/*--------------------------------*- C++ -*----------------------------------*\
| =========                 |                                                 |
| \\      /  F ield         | OpenFOAM: The Open Source CFD Toolbox           |
|  \\    /   O peration     | Version:  v2012                                 |
|   \\  /    A nd           | Website:  www.openfoam.com                      |
|    \\/     M anipulation  |                                                 |
\*---------------------------------------------------------------------------*/
FoamFile
{
    version     2.0;
    format      ascii;
    class       volScalarField;
    location    "0.365";
    object      p;
}
// * * * * * * * * * * * * * * * * * * * * * * * * * * * * * * * * * * * * * //

dimensions      [0 2 -2 0 0 0 0];


internalField   nonuniform List<scalar> 
247104
(
1.8463e-06
1.84619e-06
1.84634e-06
1.84632e-06
1.84623e-06
1.84634e-06
1.84633e-06
1.84612e-06
1.8462e-06
1.84625e-06
1.84631e-06
1.84616e-06
1.84607e-06
1.84618e-06
1.84632e-06
1.84623e-06
1.84634e-06
1.84631e-06
1.84601e-06
1.84564e-06
1.8455e-06
1.84568e-06
1.84606e-06
1.84633e-06
1.84634e-06
1.84632e-06
1.84616e-06
1.84564e-06
1.84516e-06
1.84499e-06
1.84521e-06
1.84572e-06
1.84621e-06
1.84632e-06
1.8463e-06
1.84623e-06
1.84607e-06
1.8455e-06
1.84499e-06
1.84481e-06
1.84504e-06
1.84558e-06
1.84612e-06
1.84621e-06
1.84634e-06
1.84618e-06
1.84568e-06
1.84521e-06
1.84504e-06
1.84525e-06
1.84575e-06
1.84623e-06
1.84634e-06
1.84633e-06
1.84632e-06
1.84606e-06
1.84572e-06
1.84558e-06
1.84575e-06
1.8461e-06
1.84634e-06
1.84633e-06
1.84612e-06
1.84623e-06
1.84633e-06
1.84621e-06
1.84612e-06
1.84623e-06
1.84634e-06
1.84619e-06
1.84634e-06
1.84632e-06
1.84621e-06
1.84634e-06
1.84633e-06
1.81329e-06
1.81129e-06
1.81071e-06
1.80949e-06
1.8095e-06
1.80944e-06
1.80944e-06
1.81075e-06
1.811e-06
1.81071e-06
1.80865e-06
1.80601e-06
1.80599e-06
1.80599e-06
1.80601e-06
1.80903e-06
1.80929e-06
1.80949e-06
1.80601e-06
1.80595e-06
1.80602e-06
1.80602e-06
1.80595e-06
1.80601e-06
1.80941e-06
1.81069e-06
1.81329e-06
1.8095e-06
1.80599e-06
1.80602e-06
1.80611e-06
1.80611e-06
1.80602e-06
1.80599e-06
1.8094e-06
1.81104e-06
1.81129e-06
1.80944e-06
1.80599e-06
1.80602e-06
1.80611e-06
1.80611e-06
1.80602e-06
1.80599e-06
1.80958e-06
1.80963e-06
1.80944e-06
1.80601e-06
1.80595e-06
1.80602e-06
1.80602e-06
1.80595e-06
1.80601e-06
1.80935e-06
1.8106e-06
1.81075e-06
1.80903e-06
1.80601e-06
1.80599e-06
1.80599e-06
1.80601e-06
1.80926e-06
1.80944e-06
1.8109e-06
1.811e-06
1.80929e-06
1.80941e-06
1.8094e-06
1.80958e-06
1.80935e-06
1.80944e-06
1.81106e-06
1.81069e-06
1.81104e-06
1.80963e-06
1.81059e-06
1.8109e-06
1.79316e-06
1.79299e-06
1.79282e-06
1.79071e-06
1.79061e-06
1.79057e-06
1.79069e-06
1.79278e-06
1.79304e-06
1.79282e-06
1.79e-06
1.78706e-06
1.78701e-06
1.78701e-06
1.78706e-06
1.7905e-06
1.79115e-06
1.79071e-06
1.78706e-06
1.7868e-06
1.78684e-06
1.78684e-06
1.78681e-06
1.78706e-06
1.7913e-06
1.79326e-06
1.79317e-06
1.79061e-06
1.78701e-06
1.78684e-06
1.78688e-06
1.78688e-06
1.78684e-06
1.78701e-06
1.79135e-06
1.79301e-06
1.793e-06
1.79057e-06
1.78701e-06
1.78684e-06
1.78688e-06
1.78688e-06
1.78684e-06
1.78701e-06
1.7913e-06
1.79128e-06
1.79069e-06
1.78706e-06
1.7868e-06
1.78684e-06
1.78684e-06
1.78681e-06
1.78707e-06
1.79135e-06
1.79334e-06
1.79278e-06
1.7905e-06
1.78706e-06
1.78701e-06
1.78701e-06
1.78706e-06
1.79097e-06
1.79127e-06
1.79326e-06
1.79304e-06
1.79115e-06
1.7913e-06
1.79135e-06
1.7913e-06
1.79135e-06
1.79127e-06
1.79315e-06
1.79326e-06
1.79301e-06
1.79129e-06
1.79334e-06
1.79326e-06
1.7742e-06
1.77403e-06
1.77389e-06
1.77173e-06
1.77163e-06
1.77154e-06
1.77173e-06
1.77383e-06
1.77411e-06
1.77389e-06
1.771e-06
1.76805e-06
1.76802e-06
1.76802e-06
1.76805e-06
1.77147e-06
1.77224e-06
1.77174e-06
1.76805e-06
1.76793e-06
1.76794e-06
1.76794e-06
1.76793e-06
1.76805e-06
1.77235e-06
1.77429e-06
1.7742e-06
1.77163e-06
1.76802e-06
1.76794e-06
1.76795e-06
1.76795e-06
1.76794e-06
1.76802e-06
1.7724e-06
1.77404e-06
1.77403e-06
1.77155e-06
1.76802e-06
1.76794e-06
1.76795e-06
1.76795e-06
1.76794e-06
1.76802e-06
1.77237e-06
1.77235e-06
1.77173e-06
1.76805e-06
1.76793e-06
1.76794e-06
1.76794e-06
1.76793e-06
1.76805e-06
1.77238e-06
1.77436e-06
1.77384e-06
1.77147e-06
1.76805e-06
1.76802e-06
1.76802e-06
1.76805e-06
1.77212e-06
1.77235e-06
1.77432e-06
1.77411e-06
1.77224e-06
1.77235e-06
1.7724e-06
1.77237e-06
1.77238e-06
1.77235e-06
1.77434e-06
1.7743e-06
1.77404e-06
1.77235e-06
1.77436e-06
1.77432e-06
1.75523e-06
1.75506e-06
1.75489e-06
1.75273e-06
1.75262e-06
1.75253e-06
1.75272e-06
1.75484e-06
1.75511e-06
1.7549e-06
1.75201e-06
1.74903e-06
1.74902e-06
1.74902e-06
1.74903e-06
1.75243e-06
1.75325e-06
1.75273e-06
1.74903e-06
1.74899e-06
1.749e-06
1.749e-06
1.74899e-06
1.74903e-06
1.75336e-06
1.75531e-06
1.75523e-06
1.75262e-06
1.74902e-06
1.749e-06
1.749e-06
1.749e-06
1.749e-06
1.74902e-06
1.75344e-06
1.75509e-06
1.75506e-06
1.75253e-06
1.74902e-06
1.749e-06
1.749e-06
1.749e-06
1.749e-06
1.74902e-06
1.75342e-06
1.7534e-06
1.75272e-06
1.74903e-06
1.74899e-06
1.749e-06
1.749e-06
1.74899e-06
1.74903e-06
1.75341e-06
1.75541e-06
1.75484e-06
1.75243e-06
1.74903e-06
1.74902e-06
1.74902e-06
1.74903e-06
1.75318e-06
1.75338e-06
1.75534e-06
1.75511e-06
1.75325e-06
1.75336e-06
1.75344e-06
1.75342e-06
1.75341e-06
1.75338e-06
1.75533e-06
1.75531e-06
1.75509e-06
1.7534e-06
1.75541e-06
1.75534e-06
1.73623e-06
1.73606e-06
1.73589e-06
1.73373e-06
1.73362e-06
1.73353e-06
1.73372e-06
1.73584e-06
1.7361e-06
1.73589e-06
1.73301e-06
1.73002e-06
1.73002e-06
1.73002e-06
1.73002e-06
1.73341e-06
1.73424e-06
1.73373e-06
1.73002e-06
1.73001e-06
1.73002e-06
1.73002e-06
1.73001e-06
1.73002e-06
1.73435e-06
1.73631e-06
1.73623e-06
1.73362e-06
1.73002e-06
1.73002e-06
1.73002e-06
1.73002e-06
1.73002e-06
1.73002e-06
1.73444e-06
1.7361e-06
1.73606e-06
1.73353e-06
1.73002e-06
1.73002e-06
1.73002e-06
1.73002e-06
1.73002e-06
1.73002e-06
1.73443e-06
1.73441e-06
1.73372e-06
1.73002e-06
1.73001e-06
1.73002e-06
1.73002e-06
1.73001e-06
1.73002e-06
1.73441e-06
1.73642e-06
1.73584e-06
1.73341e-06
1.73002e-06
1.73002e-06
1.73002e-06
1.73002e-06
1.73419e-06
1.73439e-06
1.73634e-06
1.7361e-06
1.73424e-06
1.73435e-06
1.73444e-06
1.73443e-06
1.73441e-06
1.73439e-06
1.73633e-06
1.73631e-06
1.7361e-06
1.73441e-06
1.73642e-06
1.73634e-06
1.71724e-06
1.71707e-06
1.71689e-06
1.71473e-06
1.71462e-06
1.71453e-06
1.71472e-06
1.71684e-06
1.71711e-06
1.71689e-06
1.71401e-06
1.71103e-06
1.71102e-06
1.71102e-06
1.71102e-06
1.71441e-06
1.71524e-06
1.71473e-06
1.71103e-06
1.71102e-06
1.71102e-06
1.71102e-06
1.71102e-06
1.71102e-06
1.71535e-06
1.71732e-06
1.71724e-06
1.71462e-06
1.71102e-06
1.71102e-06
1.71102e-06
1.71102e-06
1.71102e-06
1.71102e-06
1.71545e-06
1.7171e-06
1.71707e-06
1.71453e-06
1.71102e-06
1.71102e-06
1.71102e-06
1.71102e-06
1.71102e-06
1.71102e-06
1.71543e-06
1.71541e-06
1.71472e-06
1.71103e-06
1.71102e-06
1.71102e-06
1.71102e-06
1.71102e-06
1.71102e-06
1.71542e-06
1.71742e-06
1.71684e-06
1.71441e-06
1.71102e-06
1.71102e-06
1.71102e-06
1.71102e-06
1.7152e-06
1.7154e-06
1.71734e-06
1.71711e-06
1.71524e-06
1.71535e-06
1.71545e-06
1.71543e-06
1.71542e-06
1.7154e-06
1.71733e-06
1.71731e-06
1.71711e-06
1.71541e-06
1.71742e-06
1.71734e-06
1.69824e-06
1.69807e-06
1.6979e-06
1.69573e-06
1.69562e-06
1.69553e-06
1.69572e-06
1.69785e-06
1.69811e-06
1.69789e-06
1.69502e-06
1.69203e-06
1.69203e-06
1.69203e-06
1.69203e-06
1.69541e-06
1.69625e-06
1.69573e-06
1.69203e-06
1.69203e-06
1.69203e-06
1.69203e-06
1.69203e-06
1.69203e-06
1.69635e-06
1.69832e-06
1.69824e-06
1.69562e-06
1.69203e-06
1.69203e-06
1.69203e-06
1.69203e-06
1.69203e-06
1.69203e-06
1.69645e-06
1.69811e-06
1.69807e-06
1.69553e-06
1.69203e-06
1.69203e-06
1.69203e-06
1.69203e-06
1.69203e-06
1.69203e-06
1.69644e-06
1.69642e-06
1.69572e-06
1.69203e-06
1.69203e-06
1.69203e-06
1.69203e-06
1.69203e-06
1.69203e-06
1.69642e-06
1.69843e-06
1.69785e-06
1.69541e-06
1.69203e-06
1.69203e-06
1.69203e-06
1.69203e-06
1.6962e-06
1.6964e-06
1.69834e-06
1.69811e-06
1.69625e-06
1.69635e-06
1.69645e-06
1.69643e-06
1.69642e-06
1.6964e-06
1.69833e-06
1.69832e-06
1.69811e-06
1.69642e-06
1.69843e-06
1.69834e-06
1.67925e-06
1.67908e-06
1.6789e-06
1.67674e-06
1.67663e-06
1.67654e-06
1.67672e-06
1.67885e-06
1.67911e-06
1.6789e-06
1.67602e-06
1.67303e-06
1.67303e-06
1.67303e-06
1.67303e-06
1.67642e-06
1.67725e-06
1.67674e-06
1.67303e-06
1.67303e-06
1.67303e-06
1.67303e-06
1.67303e-06
1.67303e-06
1.67736e-06
1.67932e-06
1.67925e-06
1.67663e-06
1.67303e-06
1.67303e-06
1.67303e-06
1.67303e-06
1.67303e-06
1.67303e-06
1.67746e-06
1.67911e-06
1.67908e-06
1.67654e-06
1.67303e-06
1.67303e-06
1.67303e-06
1.67303e-06
1.67303e-06
1.67303e-06
1.67744e-06
1.67742e-06
1.67672e-06
1.67303e-06
1.67303e-06
1.67303e-06
1.67303e-06
1.67303e-06
1.67303e-06
1.67743e-06
1.67943e-06
1.67885e-06
1.67642e-06
1.67303e-06
1.67303e-06
1.67303e-06
1.67303e-06
1.67721e-06
1.67741e-06
1.67934e-06
1.67911e-06
1.67725e-06
1.67736e-06
1.67746e-06
1.67744e-06
1.67743e-06
1.67741e-06
1.67933e-06
1.67932e-06
1.67911e-06
1.67742e-06
1.67943e-06
1.67935e-06
1.66025e-06
1.66008e-06
1.6599e-06
1.65774e-06
1.65763e-06
1.65754e-06
1.65773e-06
1.65986e-06
1.66012e-06
1.6599e-06
1.65703e-06
1.65404e-06
1.65404e-06
1.65404e-06
1.65404e-06
1.65742e-06
1.65826e-06
1.65774e-06
1.65404e-06
1.65404e-06
1.65404e-06
1.65404e-06
1.65404e-06
1.65404e-06
1.65836e-06
1.66033e-06
1.66025e-06
1.65763e-06
1.65404e-06
1.65404e-06
1.65404e-06
1.65404e-06
1.65404e-06
1.65404e-06
1.65846e-06
1.66012e-06
1.66008e-06
1.65754e-06
1.65404e-06
1.65404e-06
1.65404e-06
1.65404e-06
1.65404e-06
1.65404e-06
1.65844e-06
1.65843e-06
1.65773e-06
1.65404e-06
1.65404e-06
1.65404e-06
1.65404e-06
1.65404e-06
1.65404e-06
1.65843e-06
1.66044e-06
1.65986e-06
1.65742e-06
1.65404e-06
1.65404e-06
1.65404e-06
1.65404e-06
1.65821e-06
1.65841e-06
1.66035e-06
1.66012e-06
1.65826e-06
1.65836e-06
1.65846e-06
1.65844e-06
1.65843e-06
1.65841e-06
1.66034e-06
1.66033e-06
1.66012e-06
1.65843e-06
1.66044e-06
1.66035e-06
1.64125e-06
1.64108e-06
1.64091e-06
1.63875e-06
1.63864e-06
1.63855e-06
1.63874e-06
1.64086e-06
1.64112e-06
1.64091e-06
1.63803e-06
1.63504e-06
1.63504e-06
1.63504e-06
1.63504e-06
1.63843e-06
1.63926e-06
1.63875e-06
1.63504e-06
1.63504e-06
1.63504e-06
1.63504e-06
1.63504e-06
1.63504e-06
1.63937e-06
1.64133e-06
1.64125e-06
1.63863e-06
1.63504e-06
1.63504e-06
1.63504e-06
1.63504e-06
1.63504e-06
1.63504e-06
1.63947e-06
1.64112e-06
1.64109e-06
1.63855e-06
1.63504e-06
1.63504e-06
1.63504e-06
1.63504e-06
1.63504e-06
1.63504e-06
1.63945e-06
1.63943e-06
1.63873e-06
1.63504e-06
1.63504e-06
1.63504e-06
1.63504e-06
1.63504e-06
1.63504e-06
1.63944e-06
1.64144e-06
1.64086e-06
1.63843e-06
1.63504e-06
1.63504e-06
1.63504e-06
1.63504e-06
1.63922e-06
1.63942e-06
1.64135e-06
1.64112e-06
1.63926e-06
1.63937e-06
1.63947e-06
1.63945e-06
1.63944e-06
1.63942e-06
1.64134e-06
1.64133e-06
1.64112e-06
1.63943e-06
1.64144e-06
1.64136e-06
1.62226e-06
1.62209e-06
1.62191e-06
1.61975e-06
1.61964e-06
1.61955e-06
1.61974e-06
1.62187e-06
1.62213e-06
1.62191e-06
1.61904e-06
1.61605e-06
1.61605e-06
1.61605e-06
1.61605e-06
1.61943e-06
1.62027e-06
1.61975e-06
1.61605e-06
1.61605e-06
1.61605e-06
1.61605e-06
1.61605e-06
1.61605e-06
1.62037e-06
1.62234e-06
1.62226e-06
1.61964e-06
1.61605e-06
1.61605e-06
1.61605e-06
1.61605e-06
1.61605e-06
1.61605e-06
1.62047e-06
1.62213e-06
1.62209e-06
1.61955e-06
1.61605e-06
1.61605e-06
1.61605e-06
1.61605e-06
1.61605e-06
1.61605e-06
1.62045e-06
1.62044e-06
1.61974e-06
1.61605e-06
1.61605e-06
1.61605e-06
1.61605e-06
1.61605e-06
1.61605e-06
1.62044e-06
1.62245e-06
1.62187e-06
1.61943e-06
1.61605e-06
1.61605e-06
1.61605e-06
1.61605e-06
1.62022e-06
1.62042e-06
1.62236e-06
1.62213e-06
1.62027e-06
1.62037e-06
1.62047e-06
1.62045e-06
1.62044e-06
1.62042e-06
1.62235e-06
1.62234e-06
1.62213e-06
1.62044e-06
1.62245e-06
1.62236e-06
1.60327e-06
1.6031e-06
1.60292e-06
1.60076e-06
1.60065e-06
1.60056e-06
1.60075e-06
1.60287e-06
1.60313e-06
1.60292e-06
1.60004e-06
1.59705e-06
1.59705e-06
1.59705e-06
1.59705e-06
1.60044e-06
1.60127e-06
1.60076e-06
1.59705e-06
1.59705e-06
1.59705e-06
1.59705e-06
1.59705e-06
1.59705e-06
1.60138e-06
1.60334e-06
1.60327e-06
1.60065e-06
1.59705e-06
1.59705e-06
1.59705e-06
1.59705e-06
1.59705e-06
1.59705e-06
1.60148e-06
1.60313e-06
1.6031e-06
1.60056e-06
1.59705e-06
1.59705e-06
1.59705e-06
1.59705e-06
1.59705e-06
1.59705e-06
1.60146e-06
1.60144e-06
1.60075e-06
1.59705e-06
1.59705e-06
1.59705e-06
1.59705e-06
1.59705e-06
1.59705e-06
1.60145e-06
1.60345e-06
1.60287e-06
1.60044e-06
1.59705e-06
1.59705e-06
1.59705e-06
1.59705e-06
1.60123e-06
1.60143e-06
1.60337e-06
1.60313e-06
1.60127e-06
1.60138e-06
1.60148e-06
1.60146e-06
1.60145e-06
1.60143e-06
1.60335e-06
1.60334e-06
1.60313e-06
1.60144e-06
1.60345e-06
1.60337e-06
1.58427e-06
1.5841e-06
1.58392e-06
1.58176e-06
1.58165e-06
1.58156e-06
1.58175e-06
1.58388e-06
1.58414e-06
1.58392e-06
1.58105e-06
1.57806e-06
1.57806e-06
1.57806e-06
1.57806e-06
1.58144e-06
1.58228e-06
1.58176e-06
1.57806e-06
1.57806e-06
1.57806e-06
1.57806e-06
1.57806e-06
1.57806e-06
1.58238e-06
1.58435e-06
1.58427e-06
1.58165e-06
1.57806e-06
1.57806e-06
1.57806e-06
1.57806e-06
1.57806e-06
1.57806e-06
1.58248e-06
1.58414e-06
1.5841e-06
1.58156e-06
1.57806e-06
1.57806e-06
1.57806e-06
1.57806e-06
1.57806e-06
1.57806e-06
1.58247e-06
1.58245e-06
1.58175e-06
1.57806e-06
1.57806e-06
1.57806e-06
1.57806e-06
1.57806e-06
1.57806e-06
1.58245e-06
1.58446e-06
1.58388e-06
1.58144e-06
1.57806e-06
1.57806e-06
1.57806e-06
1.57806e-06
1.58223e-06
1.58243e-06
1.58437e-06
1.58414e-06
1.58228e-06
1.58238e-06
1.58248e-06
1.58246e-06
1.58245e-06
1.58243e-06
1.58436e-06
1.58435e-06
1.58414e-06
1.58245e-06
1.58446e-06
1.58437e-06
1.56528e-06
1.56511e-06
1.56493e-06
1.56277e-06
1.56266e-06
1.56257e-06
1.56276e-06
1.56488e-06
1.56514e-06
1.56493e-06
1.56205e-06
1.55906e-06
1.55906e-06
1.55906e-06
1.55906e-06
1.56245e-06
1.56328e-06
1.56277e-06
1.55906e-06
1.55906e-06
1.55906e-06
1.55906e-06
1.55906e-06
1.55906e-06
1.56339e-06
1.56536e-06
1.56528e-06
1.56266e-06
1.55906e-06
1.55906e-06
1.55906e-06
1.55906e-06
1.55906e-06
1.55906e-06
1.56349e-06
1.56515e-06
1.56511e-06
1.56257e-06
1.55906e-06
1.55906e-06
1.55906e-06
1.55906e-06
1.55906e-06
1.55906e-06
1.56347e-06
1.56345e-06
1.56276e-06
1.55906e-06
1.55906e-06
1.55906e-06
1.55906e-06
1.55906e-06
1.55906e-06
1.56346e-06
1.56546e-06
1.56488e-06
1.56245e-06
1.55906e-06
1.55906e-06
1.55906e-06
1.55906e-06
1.56324e-06
1.56344e-06
1.56538e-06
1.56514e-06
1.56328e-06
1.56339e-06
1.56349e-06
1.56347e-06
1.56346e-06
1.56344e-06
1.56536e-06
1.56535e-06
1.56515e-06
1.56345e-06
1.56546e-06
1.56538e-06
1.54628e-06
1.54611e-06
1.54593e-06
1.54377e-06
1.54366e-06
1.54357e-06
1.54376e-06
1.54589e-06
1.54615e-06
1.54593e-06
1.54306e-06
1.54007e-06
1.54007e-06
1.54007e-06
1.54007e-06
1.54345e-06
1.54429e-06
1.54377e-06
1.54007e-06
1.54007e-06
1.54007e-06
1.54007e-06
1.54007e-06
1.54007e-06
1.5444e-06
1.54636e-06
1.54628e-06
1.54366e-06
1.54007e-06
1.54007e-06
1.54007e-06
1.54007e-06
1.54007e-06
1.54007e-06
1.54449e-06
1.54615e-06
1.54611e-06
1.54357e-06
1.54007e-06
1.54007e-06
1.54007e-06
1.54007e-06
1.54007e-06
1.54007e-06
1.54448e-06
1.54446e-06
1.54376e-06
1.54007e-06
1.54007e-06
1.54007e-06
1.54007e-06
1.54007e-06
1.54007e-06
1.54446e-06
1.54647e-06
1.54589e-06
1.54345e-06
1.54007e-06
1.54007e-06
1.54007e-06
1.54007e-06
1.54424e-06
1.54444e-06
1.54638e-06
1.54615e-06
1.54429e-06
1.54439e-06
1.54449e-06
1.54447e-06
1.54446e-06
1.54444e-06
1.54637e-06
1.54636e-06
1.54615e-06
1.54446e-06
1.54647e-06
1.54638e-06
1.52729e-06
1.52712e-06
1.52694e-06
1.52478e-06
1.52467e-06
1.52458e-06
1.52477e-06
1.52689e-06
1.52715e-06
1.52694e-06
1.52406e-06
1.52107e-06
1.52107e-06
1.52107e-06
1.52107e-06
1.52446e-06
1.52529e-06
1.52478e-06
1.52107e-06
1.52107e-06
1.52107e-06
1.52107e-06
1.52107e-06
1.52107e-06
1.5254e-06
1.52736e-06
1.52729e-06
1.52467e-06
1.52107e-06
1.52107e-06
1.52107e-06
1.52107e-06
1.52107e-06
1.52107e-06
1.5255e-06
1.52715e-06
1.52712e-06
1.52458e-06
1.52107e-06
1.52107e-06
1.52107e-06
1.52107e-06
1.52107e-06
1.52107e-06
1.52548e-06
1.52546e-06
1.52477e-06
1.52107e-06
1.52107e-06
1.52107e-06
1.52107e-06
1.52107e-06
1.52107e-06
1.52547e-06
1.52747e-06
1.52689e-06
1.52446e-06
1.52107e-06
1.52107e-06
1.52107e-06
1.52107e-06
1.52525e-06
1.52545e-06
1.52739e-06
1.52715e-06
1.52529e-06
1.5254e-06
1.5255e-06
1.52548e-06
1.52547e-06
1.52545e-06
1.52737e-06
1.52736e-06
1.52715e-06
1.52546e-06
1.52747e-06
1.52739e-06
1.50829e-06
1.50812e-06
1.50794e-06
1.50578e-06
1.50567e-06
1.50558e-06
1.50577e-06
1.50789e-06
1.50816e-06
1.50794e-06
1.50507e-06
1.50208e-06
1.50208e-06
1.50208e-06
1.50208e-06
1.50546e-06
1.5063e-06
1.50578e-06
1.50208e-06
1.50208e-06
1.50208e-06
1.50208e-06
1.50208e-06
1.50208e-06
1.5064e-06
1.50837e-06
1.50829e-06
1.50567e-06
1.50208e-06
1.50208e-06
1.50208e-06
1.50208e-06
1.50208e-06
1.50208e-06
1.5065e-06
1.50816e-06
1.50812e-06
1.50558e-06
1.50208e-06
1.50208e-06
1.50208e-06
1.50208e-06
1.50208e-06
1.50208e-06
1.50648e-06
1.50647e-06
1.50577e-06
1.50208e-06
1.50208e-06
1.50208e-06
1.50208e-06
1.50208e-06
1.50208e-06
1.50647e-06
1.50848e-06
1.5079e-06
1.50546e-06
1.50208e-06
1.50208e-06
1.50208e-06
1.50208e-06
1.50625e-06
1.50645e-06
1.50839e-06
1.50816e-06
1.5063e-06
1.5064e-06
1.5065e-06
1.50648e-06
1.50647e-06
1.50645e-06
1.50838e-06
1.50837e-06
1.50816e-06
1.50647e-06
1.50848e-06
1.50839e-06
1.4893e-06
1.48913e-06
1.48895e-06
1.48679e-06
1.48667e-06
1.48659e-06
1.48677e-06
1.4889e-06
1.48916e-06
1.48895e-06
1.48607e-06
1.48308e-06
1.48308e-06
1.48308e-06
1.48308e-06
1.48647e-06
1.4873e-06
1.48679e-06
1.48308e-06
1.48308e-06
1.48308e-06
1.48308e-06
1.48308e-06
1.48308e-06
1.48741e-06
1.48937e-06
1.48929e-06
1.48667e-06
1.48308e-06
1.48308e-06
1.48308e-06
1.48308e-06
1.48308e-06
1.48308e-06
1.48751e-06
1.48916e-06
1.48913e-06
1.48659e-06
1.48308e-06
1.48308e-06
1.48308e-06
1.48308e-06
1.48308e-06
1.48308e-06
1.48749e-06
1.48747e-06
1.48677e-06
1.48308e-06
1.48308e-06
1.48308e-06
1.48308e-06
1.48308e-06
1.48308e-06
1.48748e-06
1.48948e-06
1.4889e-06
1.48647e-06
1.48308e-06
1.48308e-06
1.48308e-06
1.48308e-06
1.48726e-06
1.48746e-06
1.48939e-06
1.48916e-06
1.4873e-06
1.48741e-06
1.48751e-06
1.48749e-06
1.48748e-06
1.48746e-06
1.48938e-06
1.48937e-06
1.48916e-06
1.48747e-06
1.48948e-06
1.4894e-06
1.4703e-06
1.47013e-06
1.46995e-06
1.46779e-06
1.46768e-06
1.46759e-06
1.46778e-06
1.4699e-06
1.47017e-06
1.46995e-06
1.46707e-06
1.46409e-06
1.46409e-06
1.46409e-06
1.46409e-06
1.46747e-06
1.4683e-06
1.46779e-06
1.46409e-06
1.46409e-06
1.46409e-06
1.46409e-06
1.46409e-06
1.46409e-06
1.46841e-06
1.47038e-06
1.4703e-06
1.46768e-06
1.46409e-06
1.46409e-06
1.46409e-06
1.46409e-06
1.46409e-06
1.46409e-06
1.46851e-06
1.47017e-06
1.47013e-06
1.46759e-06
1.46409e-06
1.46409e-06
1.46409e-06
1.46409e-06
1.46409e-06
1.46409e-06
1.46849e-06
1.46848e-06
1.46778e-06
1.46409e-06
1.46409e-06
1.46409e-06
1.46409e-06
1.46409e-06
1.46409e-06
1.46848e-06
1.47049e-06
1.4699e-06
1.46747e-06
1.46409e-06
1.46409e-06
1.46409e-06
1.46409e-06
1.46826e-06
1.46846e-06
1.4704e-06
1.47017e-06
1.4683e-06
1.46841e-06
1.46851e-06
1.46849e-06
1.46848e-06
1.46846e-06
1.47039e-06
1.47038e-06
1.47017e-06
1.46848e-06
1.47049e-06
1.4704e-06
1.4513e-06
1.45113e-06
1.45095e-06
1.44879e-06
1.44868e-06
1.44859e-06
1.44878e-06
1.45091e-06
1.45117e-06
1.45096e-06
1.44808e-06
1.44509e-06
1.44509e-06
1.44509e-06
1.44509e-06
1.44848e-06
1.44931e-06
1.44879e-06
1.44509e-06
1.44509e-06
1.44509e-06
1.44509e-06
1.44509e-06
1.44509e-06
1.44942e-06
1.45138e-06
1.4513e-06
1.44868e-06
1.44509e-06
1.44509e-06
1.44509e-06
1.44509e-06
1.44509e-06
1.44509e-06
1.44951e-06
1.45117e-06
1.45113e-06
1.44859e-06
1.44509e-06
1.44509e-06
1.44509e-06
1.44509e-06
1.44509e-06
1.44509e-06
1.4495e-06
1.44948e-06
1.44878e-06
1.44509e-06
1.44509e-06
1.44509e-06
1.44509e-06
1.44509e-06
1.44509e-06
1.44948e-06
1.45149e-06
1.45091e-06
1.44848e-06
1.44509e-06
1.44509e-06
1.44509e-06
1.44509e-06
1.44927e-06
1.44946e-06
1.4514e-06
1.45117e-06
1.44931e-06
1.44942e-06
1.44951e-06
1.4495e-06
1.44948e-06
1.44946e-06
1.45139e-06
1.45138e-06
1.45117e-06
1.44948e-06
1.45149e-06
1.4514e-06
1.43231e-06
1.43214e-06
1.43196e-06
1.4298e-06
1.42969e-06
1.4296e-06
1.42979e-06
1.43191e-06
1.43217e-06
1.43196e-06
1.42908e-06
1.42609e-06
1.42609e-06
1.42609e-06
1.42609e-06
1.42948e-06
1.43031e-06
1.4298e-06
1.42609e-06
1.42609e-06
1.42609e-06
1.42609e-06
1.42609e-06
1.42609e-06
1.43042e-06
1.43238e-06
1.43231e-06
1.42969e-06
1.42609e-06
1.42609e-06
1.42609e-06
1.42609e-06
1.42609e-06
1.42609e-06
1.43052e-06
1.43218e-06
1.43214e-06
1.4296e-06
1.42609e-06
1.42609e-06
1.42609e-06
1.42609e-06
1.42609e-06
1.42609e-06
1.4305e-06
1.43048e-06
1.42979e-06
1.42609e-06
1.42609e-06
1.42609e-06
1.42609e-06
1.42609e-06
1.42609e-06
1.43049e-06
1.43249e-06
1.43191e-06
1.42948e-06
1.42609e-06
1.42609e-06
1.42609e-06
1.42609e-06
1.43027e-06
1.43047e-06
1.43241e-06
1.43217e-06
1.43031e-06
1.43042e-06
1.43052e-06
1.4305e-06
1.43049e-06
1.43047e-06
1.43239e-06
1.43238e-06
1.43218e-06
1.43048e-06
1.43249e-06
1.43241e-06
1.41331e-06
1.41314e-06
1.41296e-06
1.4108e-06
1.41069e-06
1.4106e-06
1.41079e-06
1.41291e-06
1.41318e-06
1.41296e-06
1.41009e-06
1.4071e-06
1.4071e-06
1.4071e-06
1.4071e-06
1.41048e-06
1.41132e-06
1.4108e-06
1.4071e-06
1.4071e-06
1.4071e-06
1.4071e-06
1.4071e-06
1.4071e-06
1.41142e-06
1.41339e-06
1.41331e-06
1.41069e-06
1.4071e-06
1.4071e-06
1.4071e-06
1.4071e-06
1.4071e-06
1.4071e-06
1.41152e-06
1.41318e-06
1.41314e-06
1.4106e-06
1.4071e-06
1.4071e-06
1.4071e-06
1.4071e-06
1.4071e-06
1.4071e-06
1.4115e-06
1.41149e-06
1.41079e-06
1.4071e-06
1.4071e-06
1.4071e-06
1.4071e-06
1.4071e-06
1.4071e-06
1.41149e-06
1.4135e-06
1.41292e-06
1.41048e-06
1.4071e-06
1.4071e-06
1.4071e-06
1.4071e-06
1.41127e-06
1.41147e-06
1.41341e-06
1.41318e-06
1.41132e-06
1.41142e-06
1.41152e-06
1.4115e-06
1.41149e-06
1.41147e-06
1.4134e-06
1.41339e-06
1.41318e-06
1.41149e-06
1.4135e-06
1.41341e-06
1.39431e-06
1.39414e-06
1.39397e-06
1.39181e-06
1.39169e-06
1.39161e-06
1.39179e-06
1.39392e-06
1.39418e-06
1.39397e-06
1.39109e-06
1.3881e-06
1.3881e-06
1.3881e-06
1.3881e-06
1.39149e-06
1.39232e-06
1.3918e-06
1.3881e-06
1.3881e-06
1.3881e-06
1.3881e-06
1.3881e-06
1.3881e-06
1.39243e-06
1.39439e-06
1.39431e-06
1.39169e-06
1.3881e-06
1.3881e-06
1.3881e-06
1.3881e-06
1.3881e-06
1.3881e-06
1.39253e-06
1.39418e-06
1.39414e-06
1.39161e-06
1.3881e-06
1.3881e-06
1.3881e-06
1.3881e-06
1.3881e-06
1.3881e-06
1.39251e-06
1.39249e-06
1.39179e-06
1.3881e-06
1.3881e-06
1.3881e-06
1.3881e-06
1.3881e-06
1.3881e-06
1.3925e-06
1.3945e-06
1.39392e-06
1.39149e-06
1.3881e-06
1.3881e-06
1.3881e-06
1.3881e-06
1.39228e-06
1.39248e-06
1.39441e-06
1.39418e-06
1.39232e-06
1.39243e-06
1.39252e-06
1.39251e-06
1.3925e-06
1.39247e-06
1.3944e-06
1.39439e-06
1.39418e-06
1.39249e-06
1.3945e-06
1.39441e-06
1.37532e-06
1.37515e-06
1.37497e-06
1.37281e-06
1.3727e-06
1.37261e-06
1.3728e-06
1.37492e-06
1.37518e-06
1.37497e-06
1.37209e-06
1.3691e-06
1.3691e-06
1.3691e-06
1.3691e-06
1.37249e-06
1.37332e-06
1.37281e-06
1.3691e-06
1.3691e-06
1.3691e-06
1.3691e-06
1.3691e-06
1.3691e-06
1.37343e-06
1.3754e-06
1.37532e-06
1.3727e-06
1.3691e-06
1.3691e-06
1.3691e-06
1.3691e-06
1.3691e-06
1.3691e-06
1.37353e-06
1.37519e-06
1.37515e-06
1.37261e-06
1.3691e-06
1.3691e-06
1.3691e-06
1.3691e-06
1.3691e-06
1.3691e-06
1.37351e-06
1.37349e-06
1.3728e-06
1.3691e-06
1.3691e-06
1.3691e-06
1.3691e-06
1.3691e-06
1.3691e-06
1.3735e-06
1.3755e-06
1.37492e-06
1.37249e-06
1.3691e-06
1.3691e-06
1.3691e-06
1.3691e-06
1.37328e-06
1.37348e-06
1.37542e-06
1.37518e-06
1.37332e-06
1.37343e-06
1.37353e-06
1.37351e-06
1.3735e-06
1.37348e-06
1.3754e-06
1.37539e-06
1.37519e-06
1.37349e-06
1.3755e-06
1.37542e-06
1.35632e-06
1.35615e-06
1.35597e-06
1.35381e-06
1.3537e-06
1.35361e-06
1.3538e-06
1.35592e-06
1.35619e-06
1.35597e-06
1.3531e-06
1.35011e-06
1.35011e-06
1.35011e-06
1.35011e-06
1.35349e-06
1.35432e-06
1.35381e-06
1.35011e-06
1.35011e-06
1.35011e-06
1.35011e-06
1.35011e-06
1.35011e-06
1.35443e-06
1.3564e-06
1.35632e-06
1.3537e-06
1.35011e-06
1.35011e-06
1.35011e-06
1.35011e-06
1.35011e-06
1.35011e-06
1.35453e-06
1.35619e-06
1.35615e-06
1.35361e-06
1.35011e-06
1.35011e-06
1.35011e-06
1.35011e-06
1.35011e-06
1.35011e-06
1.35451e-06
1.3545e-06
1.3538e-06
1.35011e-06
1.35011e-06
1.35011e-06
1.35011e-06
1.35011e-06
1.35011e-06
1.3545e-06
1.35651e-06
1.35593e-06
1.35349e-06
1.35011e-06
1.35011e-06
1.35011e-06
1.35011e-06
1.35428e-06
1.35448e-06
1.35642e-06
1.35619e-06
1.35433e-06
1.35443e-06
1.35453e-06
1.35451e-06
1.3545e-06
1.35448e-06
1.35641e-06
1.3564e-06
1.35619e-06
1.3545e-06
1.35651e-06
1.35642e-06
1.33732e-06
1.33715e-06
1.33698e-06
1.33482e-06
1.3347e-06
1.33462e-06
1.3348e-06
1.33693e-06
1.33719e-06
1.33698e-06
1.3341e-06
1.33111e-06
1.33111e-06
1.33111e-06
1.33111e-06
1.3345e-06
1.33533e-06
1.33481e-06
1.33111e-06
1.33111e-06
1.33111e-06
1.33111e-06
1.33111e-06
1.33111e-06
1.33544e-06
1.3374e-06
1.33732e-06
1.3347e-06
1.33111e-06
1.33111e-06
1.33111e-06
1.33111e-06
1.33111e-06
1.33111e-06
1.33554e-06
1.33719e-06
1.33715e-06
1.33462e-06
1.33111e-06
1.33111e-06
1.33111e-06
1.33111e-06
1.33111e-06
1.33111e-06
1.33552e-06
1.3355e-06
1.3348e-06
1.33111e-06
1.33111e-06
1.33111e-06
1.33111e-06
1.33111e-06
1.33111e-06
1.33551e-06
1.33751e-06
1.33693e-06
1.3345e-06
1.33111e-06
1.33111e-06
1.33111e-06
1.33111e-06
1.33529e-06
1.33549e-06
1.33742e-06
1.33719e-06
1.33533e-06
1.33544e-06
1.33554e-06
1.33552e-06
1.33551e-06
1.33549e-06
1.33741e-06
1.3374e-06
1.33719e-06
1.3355e-06
1.33751e-06
1.33742e-06
1.31833e-06
1.31816e-06
1.31798e-06
1.31582e-06
1.31571e-06
1.31562e-06
1.31581e-06
1.31793e-06
1.3182e-06
1.31798e-06
1.3151e-06
1.31212e-06
1.31212e-06
1.31212e-06
1.31212e-06
1.3155e-06
1.31633e-06
1.31582e-06
1.31212e-06
1.31212e-06
1.31212e-06
1.31212e-06
1.31212e-06
1.31212e-06
1.31644e-06
1.31841e-06
1.31833e-06
1.31571e-06
1.31212e-06
1.31212e-06
1.31212e-06
1.31212e-06
1.31212e-06
1.31212e-06
1.31654e-06
1.3182e-06
1.31816e-06
1.31562e-06
1.31212e-06
1.31212e-06
1.31212e-06
1.31212e-06
1.31212e-06
1.31212e-06
1.31652e-06
1.31651e-06
1.31581e-06
1.31212e-06
1.31212e-06
1.31212e-06
1.31212e-06
1.31212e-06
1.31212e-06
1.31651e-06
1.31852e-06
1.31793e-06
1.3155e-06
1.31212e-06
1.31212e-06
1.31212e-06
1.31212e-06
1.31629e-06
1.31649e-06
1.31843e-06
1.3182e-06
1.31633e-06
1.31644e-06
1.31654e-06
1.31652e-06
1.31651e-06
1.31649e-06
1.31842e-06
1.31841e-06
1.3182e-06
1.31651e-06
1.31852e-06
1.31843e-06
1.29933e-06
1.29916e-06
1.29899e-06
1.29683e-06
1.29671e-06
1.29663e-06
1.29681e-06
1.29894e-06
1.2992e-06
1.29899e-06
1.29611e-06
1.29312e-06
1.29312e-06
1.29312e-06
1.29312e-06
1.29651e-06
1.29734e-06
1.29682e-06
1.29312e-06
1.29312e-06
1.29312e-06
1.29312e-06
1.29312e-06
1.29312e-06
1.29745e-06
1.29941e-06
1.29933e-06
1.29671e-06
1.29312e-06
1.29312e-06
1.29312e-06
1.29312e-06
1.29312e-06
1.29312e-06
1.29755e-06
1.2992e-06
1.29916e-06
1.29663e-06
1.29312e-06
1.29312e-06
1.29312e-06
1.29312e-06
1.29312e-06
1.29312e-06
1.29753e-06
1.29751e-06
1.29681e-06
1.29312e-06
1.29312e-06
1.29312e-06
1.29312e-06
1.29312e-06
1.29312e-06
1.29752e-06
1.29952e-06
1.29894e-06
1.29651e-06
1.29312e-06
1.29312e-06
1.29312e-06
1.29312e-06
1.2973e-06
1.2975e-06
1.29943e-06
1.2992e-06
1.29734e-06
1.29745e-06
1.29754e-06
1.29753e-06
1.29752e-06
1.29749e-06
1.29942e-06
1.29941e-06
1.2992e-06
1.29751e-06
1.29952e-06
1.29943e-06
1.28034e-06
1.28017e-06
1.27999e-06
1.27783e-06
1.27772e-06
1.27763e-06
1.27782e-06
1.27994e-06
1.28021e-06
1.27999e-06
1.27711e-06
1.27413e-06
1.27413e-06
1.27413e-06
1.27413e-06
1.27751e-06
1.27834e-06
1.27783e-06
1.27413e-06
1.27413e-06
1.27413e-06
1.27413e-06
1.27413e-06
1.27413e-06
1.27845e-06
1.28042e-06
1.28034e-06
1.27772e-06
1.27413e-06
1.27413e-06
1.27413e-06
1.27413e-06
1.27413e-06
1.27413e-06
1.27855e-06
1.28021e-06
1.28017e-06
1.27763e-06
1.27413e-06
1.27413e-06
1.27413e-06
1.27413e-06
1.27413e-06
1.27413e-06
1.27853e-06
1.27852e-06
1.27782e-06
1.27413e-06
1.27413e-06
1.27413e-06
1.27413e-06
1.27413e-06
1.27413e-06
1.27852e-06
1.28053e-06
1.27994e-06
1.27751e-06
1.27413e-06
1.27413e-06
1.27413e-06
1.27413e-06
1.2783e-06
1.2785e-06
1.28044e-06
1.28021e-06
1.27835e-06
1.27845e-06
1.27855e-06
1.27853e-06
1.27852e-06
1.2785e-06
1.28043e-06
1.28042e-06
1.28021e-06
1.27852e-06
1.28053e-06
1.28044e-06
1.26135e-06
1.26118e-06
1.261e-06
1.25884e-06
1.25873e-06
1.25864e-06
1.25883e-06
1.26095e-06
1.26121e-06
1.261e-06
1.25812e-06
1.25513e-06
1.25513e-06
1.25513e-06
1.25513e-06
1.25852e-06
1.25935e-06
1.25884e-06
1.25513e-06
1.25513e-06
1.25513e-06
1.25513e-06
1.25513e-06
1.25513e-06
1.25946e-06
1.26142e-06
1.26135e-06
1.25873e-06
1.25513e-06
1.25513e-06
1.25513e-06
1.25513e-06
1.25513e-06
1.25513e-06
1.25956e-06
1.26121e-06
1.26118e-06
1.25864e-06
1.25513e-06
1.25513e-06
1.25513e-06
1.25513e-06
1.25513e-06
1.25513e-06
1.25954e-06
1.25952e-06
1.25883e-06
1.25513e-06
1.25513e-06
1.25513e-06
1.25513e-06
1.25513e-06
1.25513e-06
1.25953e-06
1.26153e-06
1.26095e-06
1.25852e-06
1.25513e-06
1.25513e-06
1.25513e-06
1.25513e-06
1.25931e-06
1.25951e-06
1.26145e-06
1.26121e-06
1.25935e-06
1.25946e-06
1.25956e-06
1.25954e-06
1.25953e-06
1.25951e-06
1.26143e-06
1.26142e-06
1.26121e-06
1.25952e-06
1.26153e-06
1.26145e-06
1.24235e-06
1.24218e-06
1.242e-06
1.23984e-06
1.23973e-06
1.23964e-06
1.23983e-06
1.24196e-06
1.24222e-06
1.242e-06
1.23913e-06
1.23614e-06
1.23614e-06
1.23614e-06
1.23614e-06
1.23952e-06
1.24036e-06
1.23984e-06
1.23614e-06
1.23614e-06
1.23614e-06
1.23614e-06
1.23614e-06
1.23614e-06
1.24047e-06
1.24243e-06
1.24235e-06
1.23973e-06
1.23614e-06
1.23614e-06
1.23614e-06
1.23614e-06
1.23614e-06
1.23614e-06
1.24056e-06
1.24222e-06
1.24218e-06
1.23964e-06
1.23614e-06
1.23614e-06
1.23614e-06
1.23614e-06
1.23614e-06
1.23614e-06
1.24055e-06
1.24053e-06
1.23983e-06
1.23614e-06
1.23614e-06
1.23614e-06
1.23614e-06
1.23614e-06
1.23614e-06
1.24053e-06
1.24254e-06
1.24196e-06
1.23953e-06
1.23614e-06
1.23614e-06
1.23614e-06
1.23614e-06
1.24032e-06
1.24051e-06
1.24245e-06
1.24222e-06
1.24036e-06
1.24047e-06