/*--------------------------------*- C++ -*----------------------------------*\
| =========                 |                                                 |
| \\      /  F ield         | OpenFOAM: The Open Source CFD Toolbox           |
|  \\    /   O peration     | Version:  v2006                                 |
|   \\  /    A nd           | Website:  www.openfoam.com                      |
|    \\/     M anipulation  |                                                 |
\*---------------------------------------------------------------------------*/
FoamFile
{
    version     2.0;
    format      ascii;
    class       volScalarField;
    location    "125";
    object      k;
}
// * * * * * * * * * * * * * * * * * * * * * * * * * * * * * * * * * * * * * //

dimensions      [0 2 -2 0 0 0 0];


internalField   nonuniform List<scalar> 
14314
(
1.30799e-05
1.82634e-05
1.8266e-05
2.30646e-05
1.29615e-05
1.76063e-05
1.76077e-05
2.23308e-05
2.30493e-05
1.82598e-05
1.82591e-05
2.30344e-05
1.82586e-05
1.82618e-05
1.82581e-05
1.82619e-05
2.30372e-05
1.82606e-05
1.82602e-05
2.30331e-05
2.3076e-05
2.27304e-05
1.8265e-05
1.82644e-05
1.79655e-05
1.79643e-05
2.30634e-05
2.27264e-05
1.82638e-05
1.82671e-05
1.7965e-05
1.79657e-05
1.82673e-05
1.79648e-05
1.79665e-05
2.30752e-05
2.27257e-05
1.82656e-05
1.7966e-05
1.79652e-05
2.27239e-05
2.2336e-05
1.76067e-05
1.76055e-05
2.23304e-05
1.76066e-05
1.76071e-05
1.29614e-05
1.29616e-05
1.29619e-05
1.76075e-05
2.23369e-05
1.76068e-05
5.77356e-05
6.99861e-05
6.9168e-05
5.7735e-05
6.99876e-05
1.30838e-05
1.30838e-05
1.30843e-05
1.30847e-05
3.77577e-05
1.82627e-05
5.05981e-05
1.46528e-05
6.91684e-05
3.7758e-05
1.82654e-05
1.46537e-05
5.05993e-05
2.30566e-05
6.15529e-05
6.15595e-05
5.76996e-05
6.99383e-05
5.77179e-05
6.99941e-05
6.91073e-05
6.91679e-05
5.76992e-05
6.99396e-05
5.77175e-05
6.99955e-05
1.30799e-05
1.30805e-05
1.30808e-05
1.30464e-05
1.30464e-05
1.30467e-05
1.3047e-05
3.7683e-05
5.06944e-05
1.46464e-05
1.82205e-05
3.77815e-05
5.05156e-05
1.46528e-05
6.91076e-05
6.9168e-05
3.76832e-05
1.46471e-05
5.06959e-05
1.82225e-05
3.77817e-05
1.46533e-05
5.0517e-05
6.15687e-05
6.15754e-05
2.30055e-05
6.14423e-05
6.14491e-05
5.18878e-05
6.92271e-05
5.72432e-05
7.18331e-05
6.88244e-05
6.14292e-05
5.18869e-05
6.92279e-05
5.72427e-05
7.18367e-05
1.19852e-05
1.21891e-05
1.21892e-05
1.32777e-05
1.19921e-05
1.2262e-05
1.2262e-05
3.62672e-05
4.9854e-05
1.44424e-05
1.70099e-05
3.71725e-05
5.21807e-05
1.40229e-05
6.88244e-05
6.14298e-05
3.62672e-05
1.44427e-05
4.98554e-05
1.70108e-05
3.71727e-05
1.4023e-05
5.21819e-05
6.10319e-05
6.10386e-05
2.13797e-05
6.01032e-05
6.0106e-05
6.91663e-05
6.9168e-05
2.30393e-05
6.15543e-05
6.15623e-05
6.9166e-05
6.9116e-05
6.91677e-05
6.91176e-05
2.30809e-05
6.15179e-05
6.15263e-05
6.1597e-05
6.16052e-05
5.77344e-05
6.99832e-05
3.77579e-05
1.82641e-05
5.05996e-05
1.46525e-05
3.77569e-05
1.82636e-05
5.05996e-05
1.46522e-05
5.77296e-05
6.99899e-05
6.99487e-05
5.77287e-05
5.77284e-05
6.99869e-05
6.99457e-05
5.77274e-05
3.77844e-05
1.82675e-05
5.05784e-05
1.46531e-05
5.06845e-05
1.46529e-05
3.77463e-05
3.77835e-05
1.82669e-05
5.05788e-05
1.46529e-05
5.06846e-05
1.46527e-05
3.77453e-05
2.30532e-05
6.15628e-05
6.15537e-05
6.91661e-05
6.91679e-05
6.91177e-05
2.30881e-05
6.15266e-05
6.15175e-05
6.16059e-05
6.15965e-05
6.91657e-05
6.91156e-05
3.77574e-05
1.8263e-05
5.06011e-05
1.46528e-05
5.77328e-05
6.99837e-05
3.77559e-05
1.82666e-05
1.46527e-05
5.05998e-05
5.77293e-05
6.99913e-05
6.99502e-05
5.77282e-05
3.77842e-05
1.82663e-05
5.058e-05
1.46532e-05
5.06861e-05
1.46532e-05
3.7746e-05
5.77269e-05
6.99874e-05
6.99462e-05
5.77261e-05
3.77826e-05
1.82696e-05
1.46533e-05
5.05789e-05
1.46531e-05
5.06848e-05
3.77443e-05
5.77358e-05
6.99869e-05
3.77572e-05
1.82663e-05
1.46532e-05
5.05974e-05
5.7734e-05
6.99833e-05
3.77845e-05
1.82659e-05
5.05769e-05
1.46534e-05
5.0683e-05
1.46532e-05
3.77463e-05
5.77301e-05
6.99907e-05
6.99494e-05
5.77289e-05
3.77839e-05
1.82696e-05
1.46538e-05
5.0576e-05
1.46536e-05
5.06823e-05
3.77456e-05
5.77281e-05
6.9987e-05
6.99459e-05
5.77271e-05
2.30465e-05
6.15626e-05
6.1556e-05
6.91666e-05
6.91682e-05
6.91181e-05
2.30745e-05
6.15263e-05
6.15199e-05
6.16057e-05
6.15989e-05
6.91664e-05
6.91162e-05
3.77571e-05
1.82652e-05
1.46533e-05
5.06004e-05
5.77359e-05
6.99872e-05
5.77342e-05
6.99846e-05
3.77847e-05
1.82685e-05
1.46541e-05
5.05782e-05
1.46541e-05
5.06843e-05
3.77464e-05
3.77837e-05
1.82683e-05
1.46538e-05
5.0579e-05
1.46538e-05
5.06854e-05
3.77456e-05
5.77301e-05
6.9991e-05
6.99498e-05
5.77291e-05
5.77283e-05
6.99883e-05
6.99472e-05
5.77276e-05
6.91663e-05
6.91682e-05
2.3087e-05
6.15165e-05
6.15231e-05
6.15957e-05
6.16023e-05
6.91659e-05
6.9116e-05
6.91678e-05
6.91178e-05
6.91053e-05
6.91658e-05
6.91068e-05
6.91675e-05
6.157e-05
6.15785e-05
2.29876e-05
6.14441e-05
6.14524e-05
6.90629e-05
6.9091e-05
6.90644e-05
6.90924e-05
2.30088e-05
6.08705e-05
6.0878e-05
6.14859e-05
6.14945e-05
5.76982e-05
6.99353e-05
5.77164e-05
6.99912e-05
3.7683e-05
5.06956e-05
1.46461e-05
1.82219e-05
3.77812e-05
5.05169e-05
1.46527e-05
3.7682e-05
5.06961e-05
1.46459e-05
1.82213e-05
3.77802e-05
5.05176e-05
1.46524e-05
5.76597e-05
6.99505e-05
6.99181e-05
5.75296e-05
5.76582e-05
6.99478e-05
6.99152e-05
5.75282e-05
3.77145e-05
1.82555e-05
4.98578e-05
1.45934e-05
5.06548e-05
1.46036e-05
3.72494e-05
3.77136e-05
1.8255e-05
4.98577e-05
1.45932e-05
5.06555e-05
1.46033e-05
3.72483e-05
6.15789e-05
6.15696e-05
2.29943e-05
6.14522e-05
6.14435e-05
6.91048e-05
6.91656e-05
6.9065e-05
6.9093e-05
2.30195e-05
6.08761e-05
6.08703e-05
6.14943e-05
6.14851e-05
6.90624e-05
6.90904e-05
3.76826e-05
5.06972e-05
1.46465e-05
1.82207e-05
3.77807e-05
5.05186e-05
1.46527e-05
5.76971e-05
6.99356e-05
5.77153e-05
6.99916e-05
3.76811e-05
1.46463e-05
5.06964e-05
1.82236e-05
3.77793e-05
1.46528e-05
5.05176e-05
5.76592e-05
6.99514e-05
6.99193e-05
5.75289e-05
3.7714e-05
1.82537e-05
4.98589e-05
1.45935e-05
5.06565e-05
1.46039e-05
3.72488e-05
5.76571e-05
6.99479e-05
6.99155e-05
5.75271e-05
3.77126e-05
1.82569e-05
1.45934e-05
4.98576e-05
1.46036e-05
5.06556e-05
3.72475e-05
5.76999e-05
6.9939e-05
5.77181e-05
6.99949e-05
3.76821e-05
1.46468e-05
5.06933e-05
1.82242e-05
3.77805e-05
1.46533e-05
5.05147e-05
5.76979e-05
6.99353e-05
5.77162e-05
6.99911e-05
3.77144e-05
1.82535e-05
4.98566e-05
1.45934e-05
5.06537e-05
1.46039e-05
3.72492e-05
5.766e-05
6.99511e-05
6.99189e-05
5.75294e-05
3.77136e-05
1.82577e-05
1.45939e-05
4.98553e-05
1.46041e-05
5.06527e-05
3.72482e-05
5.76577e-05
6.99476e-05
6.99151e-05
5.75276e-05
6.15787e-05
6.15721e-05
2.29993e-05
6.14521e-05
6.1446e-05
6.91055e-05
6.91662e-05
6.9065e-05
6.90932e-05
2.30129e-05
6.08761e-05
6.08728e-05
6.1494e-05
6.14878e-05
6.9063e-05
6.9091e-05
3.76823e-05
1.4647e-05
5.06962e-05
1.82223e-05
3.77805e-05
1.46533e-05
5.05173e-05
5.77002e-05
6.99393e-05
5.77182e-05
6.99953e-05
5.76987e-05
6.99365e-05
5.77168e-05
6.99925e-05
3.77148e-05
1.82553e-05
1.45938e-05
4.98581e-05
1.46044e-05
5.06549e-05
3.72494e-05
3.77138e-05
1.82552e-05
1.4594e-05
4.98573e-05
1.46044e-05
5.06553e-05
3.72483e-05
5.76604e-05
6.99514e-05
6.99192e-05
5.75302e-05
5.76586e-05
6.99489e-05
6.99165e-05
5.75286e-05
6.91052e-05
6.91657e-05
6.91069e-05
6.91675e-05
2.30275e-05
6.0868e-05
6.08745e-05
6.14841e-05
6.14909e-05
6.90626e-05
6.90908e-05
6.90644e-05
6.90925e-05
6.88227e-05
6.1428e-05
6.88239e-05
6.14316e-05
6.10338e-05
6.10416e-05
2.13767e-05
6.01079e-05
6.01112e-05
2.05288e-05
6.00733e-05
6.00763e-05
5.18866e-05
6.92249e-05
5.72416e-05
7.18324e-05
3.62673e-05
4.98544e-05
1.44423e-05
1.701e-05
3.71724e-05
5.2181e-05
1.40228e-05
3.62658e-05
4.98532e-05
1.44419e-05
1.70091e-05
3.71712e-05
5.21788e-05
1.40224e-05
3.4742e-05
1.66974e-05
5.25336e-05
1.38354e-05
3.47405e-05
1.66966e-05
5.25309e-05
1.38351e-05
6.10386e-05
6.10349e-05
2.13769e-05
6.01086e-05
6.0107e-05
6.88224e-05
6.14299e-05
2.05299e-05
6.00737e-05
6.00723e-05
3.62663e-05
4.98553e-05
1.44424e-05
1.701e-05
3.71718e-05
5.21815e-05
1.40228e-05
5.18857e-05
6.92249e-05
5.72406e-05
7.18335e-05
3.62648e-05
1.44421e-05
4.9853e-05
1.70101e-05
3.71703e-05
1.40225e-05
5.21786e-05
3.4741e-05
1.66974e-05
5.2534e-05
1.38354e-05
3.47395e-05
1.66971e-05
1.38352e-05
5.25311e-05
1.19852e-05
1.21891e-05
1.21892e-05
1.32775e-05
1.19921e-05
1.22619e-05
1.22621e-05
1.19852e-05
1.21891e-05
1.21893e-05
1.32777e-05
1.19921e-05
1.22619e-05
1.22621e-05
1.19852e-05
1.21893e-05
1.21894e-05
1.3278e-05
1.19921e-05
1.22622e-05
1.22622e-05
1.19823e-05
1.34101e-05
1.22909e-05
1.22909e-05
1.19823e-05
1.341e-05
1.22908e-05
1.2291e-05
1.19823e-05
1.34102e-05
1.22908e-05
1.22911e-05
1.19823e-05
1.34104e-05
1.22911e-05
1.22911e-05
5.18879e-05
6.92277e-05
5.72437e-05
7.18363e-05
3.62663e-05
1.44426e-05
4.98517e-05
1.70109e-05
3.71715e-05
1.4023e-05
5.21778e-05
5.18866e-05
6.92248e-05
5.72414e-05
7.18336e-05
3.47419e-05
1.66975e-05
5.25332e-05
1.38356e-05
3.47411e-05
1.66981e-05
1.38357e-05
5.25303e-05
6.10385e-05
6.10371e-05
2.13784e-05
6.0108e-05
6.01085e-05
6.88229e-05
6.14313e-05
2.05289e-05
6.00731e-05
6.00738e-05
3.62658e-05
1.44426e-05
4.98539e-05
1.70103e-05
3.71716e-05
1.4023e-05
5.21784e-05
5.18887e-05
6.92281e-05
5.72444e-05
7.18369e-05
5.18873e-05
6.92258e-05
5.72427e-05
7.18334e-05
3.47418e-05
1.6698e-05
1.38356e-05
5.25343e-05
3.47405e-05
1.66975e-05
1.38357e-05
5.25306e-05
6.88225e-05
6.14281e-05
6.8824e-05
6.14299e-05
2.05314e-05
6.00685e-05
6.00711e-05
6.14459e-05
6.14502e-05
5.20127e-05
7.13116e-05
5.20115e-05
7.13105e-05
6.14472e-05
6.14485e-05
5.20118e-05
7.13155e-05
5.20106e-05
7.13122e-05
5.20127e-05
7.1315e-05
5.20113e-05
7.13123e-05
6.1448e-05
6.14497e-05
5.20136e-05
7.13154e-05
5.20121e-05
7.1312e-05
6.14463e-05
6.14481e-05
6.9723e-05
5.77322e-05
6.92862e-05
6.24713e-05
6.92913e-05
6.24814e-05
6.97336e-05
7.02209e-05
7.45961e-05
6.99526e-05
7.49259e-05
7.043e-05
6.91219e-05
6.97229e-05
5.77317e-05
6.24702e-05
6.92861e-05
6.24805e-05
6.92912e-05
6.97336e-05
7.02213e-05
7.45966e-05
6.99541e-05
7.49264e-05
7.04303e-05
6.91224e-05
8.86458e-05
7.19585e-05
7.19534e-05
7.19525e-05
7.19481e-05
8.8696e-05
6.14173e-05
6.9203e-05
6.16044e-05
4.61844e-05
4.62248e-05
6.91682e-05
6.13637e-05
6.14704e-05
6.92126e-05
6.1611e-05
4.61962e-05
4.62366e-05
6.91777e-05
6.14173e-05
6.97187e-05
5.77004e-05
6.92774e-05
6.24272e-05
6.92945e-05
6.24296e-05
6.9733e-05
7.05242e-05
7.50728e-05
6.99921e-05
7.01403e-05
7.44308e-05
6.97331e-05
5.7718e-05
6.92934e-05
6.24563e-05
6.97198e-05
6.9281e-05
6.24529e-05
7.01002e-05
7.43477e-05
6.99309e-05
7.51581e-05
7.05755e-05
6.91678e-05
6.91009e-05
6.97186e-05
5.76999e-05
6.24266e-05
6.92772e-05
6.24288e-05
6.92943e-05
6.97329e-05
7.05245e-05
7.50727e-05
6.99934e-05
7.01407e-05
7.44311e-05
6.97331e-05
5.77176e-05
6.24552e-05
6.92933e-05
6.97197e-05
6.24521e-05
6.92808e-05
7.01007e-05
7.43479e-05
6.99322e-05
7.51578e-05
7.05757e-05
6.9168e-05
6.91012e-05
8.85754e-05
7.19619e-05
7.19562e-05
7.19706e-05
7.19662e-05
8.87258e-05
6.13332e-05
4.62258e-05
6.91502e-05
6.14881e-05
6.1424e-05
4.6146e-05
6.92084e-05
6.13886e-05
4.62375e-05
6.91602e-05
6.14948e-05
6.14792e-05
4.61575e-05
6.92184e-05
8.87293e-05
7.19624e-05
7.19579e-05
8.86067e-05
7.19575e-05
7.19517e-05
6.1412e-05
6.92094e-05
6.15438e-05
4.60943e-05
4.62089e-05
6.91406e-05
6.12917e-05
6.14676e-05
6.92196e-05
6.15505e-05
4.61057e-05
4.62204e-05
6.91507e-05
6.13473e-05
7.46786e-05
5.55797e-05
7.55516e-05
5.72171e-05
7.07905e-05
6.08831e-05
7.50446e-05
7.21231e-05
7.01946e-05
7.56154e-05
7.36833e-05
5.70128e-05
6.9107e-05
6.18524e-05
6.97353e-05
6.89538e-05
6.2417e-05
6.30847e-05
7.2282e-05
7.07329e-05
6.21515e-05
6.21551e-05
7.46798e-05
5.55786e-05
5.72157e-05
7.55492e-05
6.08825e-05
7.07903e-05
7.50432e-05
7.21267e-05
7.0195e-05
7.56138e-05
7.36844e-05
5.70117e-05
6.18517e-05
6.91069e-05
6.97353e-05
6.2416e-05
6.89534e-05
6.30829e-05
7.22853e-05
7.07325e-05
1.20043e-05
1.19867e-05
1.19955e-05
1.19955e-05
1.19939e-05
1.19939e-05
1.20084e-05
1.27992e-05
1.31956e-05
1.29848e-05
1.29848e-05
1.29695e-05
1.29694e-05
1.27517e-05
1.2178e-05
1.21359e-05
1.22447e-05
1.23056e-05
1.22801e-05
1.21481e-05
1.21734e-05
1.2178e-05
1.2136e-05
1.22447e-05
1.23056e-05
1.22801e-05
1.21482e-05
1.21734e-05
2.39051e-05
3.62e-05
3.86452e-05
2.2135e-05
3.95498e-05
2.21145e-05
2.37295e-05
1.77827e-05
1.71237e-05
1.97099e-05
1.63416e-05
1.93672e-05
1.65313e-05
1.78173e-05
2.71183e-05
4.45231e-05
4.94695e-05
3.25466e-05
3.30668e-05
4.33951e-05
2.71714e-05
1.46713e-05
1.46172e-05
1.4119e-05
1.41362e-05
1.42039e-05
1.45219e-05
1.48648e-05
6.21518e-05
6.21556e-05
2.39048e-05
3.62e-05
2.21345e-05
3.86452e-05
2.21141e-05
3.95499e-05
2.37293e-05
1.77838e-05
1.71247e-05
1.63423e-05
1.97108e-05
1.65321e-05
1.93685e-05
1.78184e-05
1.46714e-05
1.46173e-05
1.41191e-05
1.41364e-05
1.42041e-05
1.4522e-05
1.48649e-05
2.71188e-05
4.45238e-05
4.94708e-05
3.25471e-05
3.30676e-05
4.33959e-05
2.7172e-05
8.61327e-05
7.56099e-05
7.5622e-05
7.40319e-05
7.40397e-05
7.75472e-05
5.94336e-05
4.54424e-05
6.92064e-05
5.90006e-05
6.06678e-05
4.39073e-05
6.81314e-05
5.94779e-05
4.54538e-05
6.92173e-05
5.90043e-05
6.0723e-05
4.39082e-05
6.81426e-05
4.31986e-05
2.13698e-05
2.99955e-05
2.99902e-05
2.99746e-05
2.99695e-05
4.27392e-05
8.84388e-05
7.32225e-05
7.32252e-05
8.73363e-05
7.33836e-05
7.3389e-05
5.99466e-05
7.03212e-05
5.91932e-05
4.07598e-05
4.36128e-05
6.97002e-05
5.94527e-05
5.9984e-05
7.03279e-05
5.91963e-05
4.07562e-05
4.3611e-05
6.97084e-05
5.9482e-05
6.91203e-05
6.91218e-05
8.86447e-05
7.19599e-05
7.19534e-05
7.19539e-05
7.19482e-05
8.86949e-05
6.14115e-05
6.92024e-05
6.16058e-05
4.61824e-05
6.91675e-05
6.13581e-05
4.62229e-05
6.14732e-05
6.92139e-05
6.16138e-05
4.61963e-05
6.9179e-05
6.14198e-05
4.62367e-05
6.9111e-05
6.91662e-05
6.91126e-05
6.9168e-05
8.8705e-05
7.19559e-05
7.19502e-05
8.86355e-05
7.1959e-05
7.1952e-05
6.14194e-05
4.61648e-05
6.15858e-05
6.92061e-05
6.9157e-05
4.62267e-05
6.13448e-05
6.14811e-05
4.61788e-05
6.15941e-05
6.92176e-05
6.91686e-05
4.62407e-05
6.14063e-05
6.13532e-05
6.91628e-05
4.6225e-05
6.15383e-05
6.14156e-05
6.92041e-05
4.6176e-05
6.14149e-05
6.91743e-05
4.62389e-05
6.15465e-05
6.14773e-05
6.92156e-05
4.61899e-05
8.86233e-05
7.19581e-05
7.19515e-05
7.19587e-05
7.19532e-05
8.87168e-05
6.97218e-05
5.77309e-05
6.92859e-05
6.24664e-05
6.9291e-05
6.24765e-05
6.97325e-05
7.022e-05
7.45797e-05
6.99497e-05
7.49094e-05
7.04292e-05
6.97335e-05
6.92919e-05
6.24761e-05
5.77332e-05
6.9722e-05
6.92849e-05
6.24675e-05
7.01729e-05
6.99441e-05
7.44967e-05
7.04849e-05
7.5009e-05
7.04543e-05
7.49615e-05
6.99878e-05
7.01995e-05
7.4551e-05
6.97209e-05
5.77257e-05
6.92832e-05
6.24647e-05
6.97333e-05
6.92926e-05
6.24687e-05
6.97323e-05
6.92916e-05
6.24711e-05
5.77319e-05
6.97209e-05
6.92845e-05
6.24625e-05
7.01721e-05
6.9941e-05
7.44802e-05
7.49923e-05
7.0484e-05
7.04534e-05
7.4945e-05
6.99849e-05
7.01986e-05
7.45348e-05
6.97198e-05
5.77244e-05
6.92828e-05
6.24595e-05
6.92922e-05
6.24634e-05
6.9732e-05
8.86448e-05
7.19539e-05
7.19585e-05
7.19477e-05
7.19531e-05
8.86951e-05
6.14711e-05
6.92129e-05
6.16143e-05
4.61954e-05
6.91779e-05
4.62357e-05
6.14178e-05
6.14143e-05
6.92029e-05
6.16052e-05
4.61834e-05
4.62237e-05
6.91681e-05
6.1361e-05
6.91199e-05
6.91129e-05
6.91681e-05
8.87054e-05
7.19498e-05
7.19554e-05
8.86361e-05
7.19532e-05
7.19571e-05
6.14795e-05
4.6178e-05
6.15947e-05
6.92169e-05
4.62398e-05
6.91678e-05
6.1405e-05
6.1422e-05
4.61656e-05
6.15853e-05
6.92065e-05
6.91575e-05
4.62275e-05
6.13476e-05
6.1413e-05
6.91734e-05
4.6238e-05
6.1547e-05
4.61891e-05
6.14757e-05
6.92148e-05
6.1356e-05
6.91634e-05
4.62259e-05
6.15378e-05
6.14185e-05
6.92046e-05
4.61768e-05
8.8624e-05
7.19522e-05
7.19569e-05
7.19529e-05
7.19585e-05
8.87172e-05
6.91106e-05
6.9166e-05
6.97215e-05
5.77294e-05
6.92849e-05
6.24662e-05
6.92901e-05
6.2476e-05
6.9732e-05
7.02194e-05
7.45772e-05
6.99501e-05
7.49065e-05
7.04283e-05
6.97334e-05
6.24752e-05
6.92917e-05
5.77326e-05
6.97219e-05
6.24662e-05
6.92848e-05
7.01734e-05
6.99454e-05
7.44972e-05
7.04852e-05
7.50092e-05
7.04546e-05
7.49618e-05
6.99893e-05
7.01999e-05
7.45515e-05
6.97208e-05
5.77254e-05
6.24636e-05
6.92831e-05
6.97332e-05
6.24676e-05
6.92924e-05
6.97319e-05
6.92907e-05
6.24708e-05
5.77305e-05
6.97205e-05
6.92838e-05
6.24624e-05
7.01715e-05
6.99415e-05
7.44779e-05
7.49895e-05
7.04832e-05
7.04526e-05
7.49421e-05
6.99853e-05
7.0198e-05
7.45322e-05
6.97194e-05
5.77231e-05
6.92821e-05
6.24595e-05
6.92915e-05
6.24634e-05
6.97317e-05
6.97227e-05
5.77325e-05
6.24715e-05
6.92864e-05
6.24816e-05
6.92915e-05
6.97334e-05
7.02211e-05
7.45985e-05
6.99533e-05
7.49282e-05
7.04303e-05
6.97214e-05
5.77306e-05
6.92857e-05
6.24654e-05
6.92909e-05
6.24755e-05
6.9732e-05
7.02194e-05
7.45776e-05
6.99498e-05
7.49072e-05
7.04285e-05
6.97333e-05
6.24765e-05
6.9292e-05
5.77334e-05
6.97218e-05
6.24678e-05
6.92851e-05
7.01736e-05
6.99448e-05
7.44989e-05
7.50112e-05
7.04855e-05
7.04547e-05
7.49638e-05
6.99886e-05
7.02e-05
7.45535e-05
6.97208e-05
5.77261e-05
6.24648e-05
6.92834e-05
6.24689e-05
6.92927e-05
6.97332e-05
6.97318e-05
6.92914e-05
6.24701e-05
5.77316e-05
6.97204e-05
6.92844e-05
6.24616e-05
7.01714e-05
6.99412e-05
7.44782e-05
7.49902e-05
7.04833e-05
7.04528e-05
7.49428e-05
6.9985e-05
7.0198e-05
7.45326e-05
6.97193e-05
5.77242e-05
6.92827e-05
6.24587e-05
6.92921e-05
6.24627e-05
6.97316e-05
8.86471e-05
7.19542e-05
7.19594e-05
7.19482e-05
7.19541e-05
8.86974e-05
6.14728e-05
6.92134e-05
6.16142e-05
4.61968e-05
6.91786e-05
4.62373e-05
6.14194e-05
6.14132e-05
6.92031e-05
6.16075e-05
4.61838e-05
4.62242e-05
6.91682e-05
6.13601e-05
6.91205e-05
6.91132e-05
6.91684e-05
8.87075e-05
7.19502e-05
7.19562e-05
8.86381e-05
7.19534e-05
7.19579e-05
6.14809e-05
4.61793e-05
6.15945e-05
6.92173e-05
4.62411e-05
6.91683e-05
6.14063e-05
6.14213e-05
4.61661e-05
6.15877e-05
6.92068e-05
6.91577e-05
4.62282e-05
6.13469e-05
6.14146e-05
6.9174e-05
4.62395e-05
6.15469e-05
4.61905e-05
6.14771e-05
6.92153e-05
6.13552e-05
6.91635e-05
4.62265e-05
6.15402e-05
6.14175e-05
6.92048e-05
4.61774e-05
8.86256e-05
7.19526e-05
7.19576e-05
7.19532e-05
7.19593e-05
8.87194e-05
6.91112e-05
6.91666e-05
6.97228e-05
5.77324e-05
6.24715e-05
6.92864e-05
6.24817e-05
6.92914e-05
6.97334e-05
7.02208e-05
7.45981e-05
6.99536e-05
7.49275e-05
7.043e-05
6.97218e-05
5.77306e-05
6.2467e-05
6.92855e-05
6.24772e-05
6.92906e-05
6.97324e-05
7.02203e-05
7.45799e-05
6.99511e-05
7.49094e-05
7.04294e-05
6.97333e-05
6.24765e-05
6.9292e-05
5.77336e-05
6.97218e-05
6.24678e-05
6.9285e-05
7.01734e-05
6.99451e-05
7.4499e-05
7.5011e-05
7.04852e-05
7.04545e-05
7.49635e-05
6.9989e-05
7.01997e-05
7.45532e-05
6.97208e-05
5.77261e-05
6.24652e-05
6.92834e-05
6.2469e-05
6.92927e-05
6.97332e-05
6.97322e-05
6.24718e-05
6.92912e-05
5.7732e-05
6.97208e-05
6.24633e-05
6.92843e-05
7.01725e-05
6.99424e-05
7.44802e-05
7.49923e-05
7.04843e-05
7.04536e-05
7.4945e-05
6.99863e-05
7.0199e-05
7.45349e-05
6.97197e-05
5.77245e-05
6.24602e-05
6.92826e-05
6.24643e-05
6.9292e-05
6.97319e-05
6.91203e-05
6.91221e-05
8.87063e-05
7.19547e-05
7.19502e-05
8.86371e-05
7.19579e-05
7.1952e-05
6.14243e-05
4.61669e-05
6.15844e-05
6.92065e-05
6.13496e-05
4.62288e-05
6.91575e-05
6.14788e-05
4.61785e-05
6.1591e-05
6.92165e-05
6.14045e-05
4.62404e-05
6.91674e-05
6.13586e-05
6.91634e-05
4.6227e-05
6.15369e-05
6.14211e-05
4.61782e-05
6.92047e-05
6.14126e-05
6.91731e-05
4.62388e-05
6.15435e-05
6.1475e-05
4.61897e-05
6.92144e-05
8.8625e-05
7.19572e-05
7.19517e-05
8.87183e-05
7.19577e-05
7.19532e-05
6.91109e-05
6.91662e-05
6.91127e-05
6.91681e-05
6.91657e-05
6.90989e-05
6.91674e-05
6.91003e-05
8.85734e-05
7.19628e-05
7.19557e-05
7.19712e-05
7.19661e-05
8.87239e-05
6.13288e-05
4.62234e-05
6.91497e-05
6.14898e-05
6.14195e-05
6.9208e-05
4.61438e-05
6.13904e-05
4.62375e-05
6.91613e-05
6.14981e-05
6.14812e-05
6.92196e-05
4.61579e-05
8.87276e-05
7.19631e-05
7.19578e-05
8.8605e-05
7.19582e-05
7.19515e-05
6.14079e-05
6.92091e-05
6.15454e-05
4.60924e-05
6.91402e-05
6.12876e-05
4.62069e-05
6.14694e-05
6.92207e-05
6.1554e-05
4.61063e-05
6.91519e-05
6.13489e-05
4.62211e-05
6.906e-05
6.91635e-05
6.90616e-05
6.91654e-05
8.86413e-05
7.19885e-05
7.19838e-05
8.84996e-05
7.19835e-05
7.19763e-05
6.12188e-05
4.54126e-05
6.13588e-05
6.9088e-05
6.90826e-05
4.59941e-05
6.0745e-05
6.12792e-05
4.54234e-05
6.13669e-05
6.90998e-05
6.90944e-05
4.60076e-05
6.07995e-05
6.11629e-05
6.91248e-05
4.61378e-05
6.1337e-05
6.13497e-05
6.91995e-05
4.59445e-05
6.12235e-05
6.91364e-05
4.61518e-05
6.13452e-05
6.14106e-05
6.92112e-05
4.59581e-05
8.83558e-05
7.2025e-05
7.20195e-05
7.2049e-05
7.20443e-05
8.81511e-05
6.97176e-05
5.7699e-05
6.9277e-05
6.24222e-05
6.92941e-05
6.24243e-05
6.97318e-05
7.05233e-05
7.5056e-05
6.99892e-05
7.01393e-05
7.44141e-05
6.97319e-05
5.77166e-05
6.92931e-05
6.2451e-05
6.92806e-05
6.97187e-05
6.24478e-05
7.00992e-05
7.4331e-05
6.99279e-05
7.51409e-05
7.05745e-05
6.9731e-05
6.92939e-05
6.23759e-05
5.76476e-05
6.97167e-05
6.92676e-05
6.23588e-05
6.99909e-05
6.98544e-05
7.3802e-05
7.06761e-05
7.52884e-05
7.06436e-05
7.5263e-05
6.9981e-05
7.00508e-05
7.42109e-05
6.97231e-05
5.75289e-05
6.92727e-05
6.21724e-05
6.96717e-05
6.92801e-05
6.22593e-05
6.97297e-05
6.92934e-05
6.23706e-05
5.7646e-05
6.97156e-05
6.92671e-05
6.23535e-05
6.99893e-05
6.98518e-05
7.3784e-05
7.52705e-05
7.0674e-05
7.06423e-05
7.52458e-05
6.99784e-05
7.00496e-05
7.41939e-05
6.97218e-05
5.75274e-05
6.92723e-05
6.2166e-05
6.92797e-05
6.22528e-05
6.96708e-05
8.8574e-05
7.19571e-05
7.19612e-05
7.19654e-05
7.19716e-05
8.87244e-05
6.13889e-05
4.62367e-05
6.91606e-05
6.14982e-05
6.92189e-05
6.14798e-05
4.61573e-05
6.13313e-05
4.62243e-05
6.91502e-05
6.14893e-05
4.61448e-05
6.1422e-05
6.92084e-05
8.87279e-05
7.19571e-05
7.19633e-05
7.19524e-05
8.86057e-05
7.19569e-05
6.1468e-05
6.92201e-05
6.1554e-05
4.61057e-05
6.91512e-05
4.62201e-05
6.13476e-05
6.141e-05
6.92095e-05
6.15448e-05
4.60933e-05
4.62078e-05
6.91406e-05
6.12903e-05
6.91655e-05
6.90983e-05
6.90621e-05
6.91656e-05
8.86416e-05
7.19828e-05
7.19893e-05
8.85002e-05
7.19779e-05
7.1982e-05
6.12784e-05
4.54201e-05
6.13662e-05
6.90991e-05
4.60066e-05
6.90939e-05
6.08015e-05
6.12204e-05
4.54154e-05
6.13581e-05
6.90883e-05
6.90829e-05
4.5995e-05
6.07441e-05
6.12218e-05
6.91359e-05
4.61509e-05
6.13446e-05
4.59568e-05
6.14093e-05
6.92106e-05
6.11654e-05
6.91251e-05
4.61389e-05
6.13363e-05
6.13517e-05
6.91998e-05
4.59455e-05
8.83564e-05
7.20193e-05
7.20251e-05
7.20428e-05
7.205e-05
8.8152e-05
6.90596e-05
6.91633e-05
6.97173e-05
5.76977e-05
6.92765e-05
6.24221e-05
6.92935e-05
6.2424e-05
6.97314e-05
7.05226e-05
7.50531e-05
6.99896e-05
7.01389e-05
7.44118e-05
6.97316e-05
5.77156e-05
6.92924e-05
6.24506e-05
6.92799e-05
6.97184e-05
6.24477e-05
7.00988e-05
7.4329e-05
6.99282e-05
7.51382e-05
7.05736e-05
6.9731e-05
6.23753e-05
6.92936e-05
5.7647e-05
6.97167e-05
6.2358e-05
6.92675e-05
6.99917e-05
6.98554e-05
7.38015e-05
7.06765e-05
7.52872e-05
7.06439e-05
7.52625e-05
6.99823e-05
7.00513e-05
7.42106e-05
6.9723e-05
5.75283e-05
6.21716e-05
6.92725e-05
6.96716e-05
6.22584e-05
6.928e-05
6.97294e-05
6.92929e-05
6.237e-05
5.76451e-05
6.97153e-05
6.92666e-05
6.23533e-05
6.99889e-05
6.9852e-05
7.37811e-05
7.52673e-05
7.06733e-05
7.06415e-05
7.5243e-05
6.99787e-05
7.00491e-05
7.41915e-05
6.97214e-05
5.75264e-05
6.92717e-05
6.21653e-05
6.92792e-05
6.22522e-05
6.96705e-05
6.97187e-05
5.77007e-05
6.24277e-05
6.92776e-05
6.24299e-05
6.92946e-05
6.9733e-05
7.0525e-05
7.50746e-05
6.99929e-05
7.44326e-05
7.01411e-05
6.9733e-05
5.77182e-05
6.24565e-05
6.92936e-05
6.24532e-05
6.97197e-05
6.92812e-05
7.01011e-05
7.43491e-05
6.99315e-05
7.51594e-05
7.05762e-05
6.97172e-05
5.76987e-05
6.92769e-05
6.24213e-05
6.9294e-05
6.24233e-05
6.97314e-05
7.05227e-05
7.50535e-05
6.99892e-05
7.01388e-05
7.44116e-05
6.97315e-05
5.77164e-05
6.9293e-05
6.24502e-05
6.97183e-05
6.92804e-05
6.2447e-05
7.00987e-05
7.43286e-05
6.99278e-05
7.51382e-05
7.05738e-05
6.9731e-05
6.23764e-05
6.9294e-05
5.76477e-05
6.97167e-05
6.23593e-05
6.92678e-05
6.99918e-05
6.98551e-05
7.38027e-05
7.52893e-05
7.06769e-05
7.06445e-05
7.52643e-05
6.99819e-05
7.00518e-05
7.4212e-05
6.9723e-05
5.75287e-05
6.21726e-05
6.92728e-05
6.22594e-05
6.92803e-05
6.96715e-05
6.97294e-05
6.92933e-05
6.23696e-05
5.76456e-05
6.97153e-05
6.92671e-05
6.23527e-05
6.99888e-05
6.98516e-05
7.37812e-05
7.52678e-05
7.06735e-05
7.06417e-05
7.52432e-05
6.99782e-05
7.00491e-05
7.41914e-05
6.97214e-05
5.75267e-05
6.92722e-05
6.21649e-05
6.92796e-05
6.22518e-05
6.96705e-05
8.85757e-05
7.1957e-05
7.19617e-05
7.19658e-05
7.19722e-05
8.87262e-05
6.13899e-05
4.62381e-05
6.91611e-05
6.1498e-05
6.92193e-05
6.14811e-05
4.61583e-05
6.13307e-05
4.6225e-05
6.91504e-05
6.14916e-05
4.61453e-05
6.14214e-05
6.92087e-05
8.87299e-05
7.19577e-05
7.1964e-05
7.19528e-05
8.86073e-05
7.19576e-05
6.14691e-05
6.92204e-05
6.15538e-05
4.61066e-05
6.91516e-05
4.62213e-05
6.13485e-05
6.14096e-05
6.92097e-05
6.15471e-05
4.60938e-05
4.62082e-05
6.91408e-05
6.12896e-05
6.91662e-05
6.90991e-05
6.90622e-05
6.91657e-05
8.86432e-05
7.19831e-05
7.19899e-05
8.85018e-05
7.19778e-05
7.19823e-05
6.12793e-05
4.5421e-05
6.13662e-05
6.90993e-05
4.60076e-05
6.9094e-05
6.08024e-05
6.12202e-05
4.54161e-05
6.13606e-05
6.90886e-05
6.90832e-05
4.59956e-05
6.07432e-05
6.12227e-05
6.91361e-05
4.61518e-05
6.13446e-05
4.59578e-05
6.14104e-05
6.92108e-05
6.11649e-05
6.91254e-05
4.61394e-05
6.1339e-05
6.13514e-05
6.92001e-05
4.59462e-05
8.83578e-05
7.20197e-05
7.20256e-05
7.20432e-05
7.20505e-05
8.81533e-05
6.90601e-05
6.91638e-05
6.97187e-05
5.77008e-05
6.24281e-05
6.92777e-05
6.24303e-05
6.92947e-05
6.9733e-05
7.05247e-05
7.50746e-05
6.99933e-05
7.44328e-05
7.01409e-05
6.97331e-05
5.77186e-05
6.24567e-05
6.92936e-05
6.24536e-05
6.97198e-05
6.92812e-05
7.0101e-05
7.43495e-05
6.99319e-05
7.51597e-05
7.05761e-05
6.97175e-05
5.76992e-05
6.24227e-05
6.9277e-05
6.24246e-05
6.9294e-05
6.97317e-05
7.05237e-05
7.50556e-05
6.99904e-05
7.01397e-05
7.44138e-05
6.97318e-05
5.77171e-05
6.24517e-05
6.92929e-05
6.97186e-05
6.24484e-05
6.92805e-05
7.00996e-05
7.43306e-05
6.99292e-05
7.51404e-05
7.05747e-05
6.9731e-05
6.23765e-05
6.92941e-05
5.76481e-05
6.97167e-05
6.23595e-05
6.92679e-05
6.99918e-05
6.98555e-05
7.38029e-05
7.52896e-05
7.06768e-05
7.06442e-05
7.52642e-05
6.99822e-05
7.00517e-05
7.42121e-05
6.97229e-05
5.75294e-05
6.21726e-05
6.92729e-05
6.22596e-05
6.92803e-05
6.96716e-05
6.97296e-05
6.23706e-05
6.92934e-05
5.76464e-05
6.97155e-05
6.23539e-05
6.92672e-05
6.99896e-05
6.98529e-05
7.37827e-05
7.52701e-05
7.06744e-05
7.06425e-05
7.52452e-05
6.99795e-05
7.00499e-05
7.41934e-05
6.97216e-05
5.75277e-05
6.21659e-05
6.92723e-05
6.2253e-05
6.92797e-05
6.96707e-05
6.91657e-05
6.90987e-05
6.91676e-05
6.91005e-05
8.8643e-05
7.19882e-05
7.19838e-05
8.85017e-05
7.19828e-05
7.19764e-05
6.12225e-05
4.54138e-05
6.13566e-05
6.9088e-05
6.07486e-05
4.59959e-05
6.90827e-05
6.12776e-05
4.54223e-05
6.13634e-05
6.90986e-05
6.07984e-05
4.60065e-05
6.90932e-05
6.11666e-05
6.9125e-05
4.61398e-05
6.13349e-05
6.13536e-05
4.59462e-05
6.91997e-05
6.12218e-05
6.91353e-05
4.6151e-05
6.13418e-05
6.14091e-05
4.59571e-05
6.92101e-05
8.8358e-05
7.20248e-05
7.20194e-05
8.81536e-05
7.20486e-05
7.20441e-05
6.90597e-05
6.91634e-05
6.90615e-05
6.91652e-05
6.21505e-05
6.2154e-05
6.21533e-05
6.2157e-05
8.61314e-05
7.5613e-05
7.56239e-05
7.40341e-05
7.40403e-05
7.7547e-05
5.94305e-05
4.54412e-05
6.92061e-05
5.90041e-05
6.06644e-05
6.81316e-05
4.39062e-05
5.94802e-05
4.54549e-05
6.92183e-05
5.90086e-05
6.07244e-05
6.8144e-05
4.39094e-05
4.3199e-05
2.13673e-05
2.99955e-05
2.9991e-05
4.27401e-05
2.99745e-05
2.99699e-05
8.84374e-05
7.32224e-05
7.32256e-05
8.7334e-05
7.33846e-05
7.33894e-05
5.99444e-05
7.0321e-05
5.91968e-05
4.07601e-05
6.97001e-05
5.94517e-05
4.36127e-05
5.99857e-05
7.0329e-05
5.9201e-05
4.07582e-05
6.97095e-05
5.94842e-05
4.36128e-05
7.66004e-05
7.66129e-05
7.64917e-05
2.90166e-05
2.90127e-05
4.48827e-05
7.32883e-05
4.06357e-05
5.95834e-05
7.32946e-05
4.0634e-05
5.9615e-05
7.46827e-05
5.55783e-05
7.55523e-05
5.72066e-05
7.07905e-05
6.08732e-05
7.50238e-05
7.21214e-05
7.01897e-05
7.55928e-05
7.36809e-05
5.70111e-05
6.91067e-05
6.1843e-05
6.89534e-05
6.97334e-05
6.2406e-05
6.30679e-05
7.22803e-05
7.07129e-05
2.39054e-05
3.62e-05
3.86459e-05
2.21351e-05
3.95501e-05
2.21146e-05
2.37302e-05
1.77829e-05
1.71238e-05
1.97093e-05
1.63415e-05
1.65311e-05
1.93665e-05
1.78174e-05
2.71196e-05
4.45244e-05
4.94702e-05
3.25479e-05
4.33972e-05
3.30674e-05
2.7173e-05
1.46712e-05
1.46171e-05
1.41189e-05
1.41361e-05
1.42039e-05
1.45218e-05
1.48647e-05
2.39016e-05
3.61987e-05
3.86393e-05
2.21342e-05
3.95437e-05
2.21138e-05
2.37263e-05
1.77808e-05
1.71228e-05
1.97065e-05
1.63402e-05
1.78153e-05
1.93639e-05
1.65299e-05
2.71141e-05
4.45171e-05
4.94678e-05
3.25418e-05
4.33906e-05
2.71673e-05
3.30613e-05
1.46706e-05
1.46167e-05
1.41186e-05
1.41357e-05
1.45214e-05
1.4864e-05
1.42035e-05
4.00217e-05
2.13141e-05
2.27897e-05
1.9568e-05
1.59282e-05
1.7496e-05
4.47291e-05
3.27195e-05
2.6015e-05
1.46781e-05
1.39995e-05
1.50035e-05
4.00148e-05
2.13134e-05
2.27861e-05
1.95652e-05
1.5927e-05
1.74939e-05
4.47214e-05
3.27133e-05
2.60096e-05
1.46777e-05
1.39991e-05
1.50027e-05
8.61303e-05
7.56043e-05
7.56285e-05
7.40268e-05
7.40463e-05
7.75464e-05
5.94731e-05
4.54425e-05
6.92168e-05
5.90065e-05
6.8142e-05
6.07123e-05
4.3906e-05
5.94381e-05
4.54531e-05
6.92074e-05
5.90035e-05
4.39092e-05
6.06772e-05
6.81324e-05
4.31987e-05
2.13666e-05
2.99892e-05
2.99964e-05
2.99754e-05
2.99678e-05
4.27398e-05
8.84362e-05
7.32173e-05
7.32306e-05
7.33783e-05
8.73351e-05
7.33949e-05
5.99799e-05
7.03278e-05
5.91987e-05
4.07579e-05
6.97086e-05
4.36123e-05
5.94804e-05
5.99502e-05
7.03223e-05
5.91962e-05
4.07591e-05
4.36125e-05
6.97013e-05
5.9455e-05
6.21512e-05
6.2155e-05
7.65941e-05
7.66202e-05
7.64905e-05
2.90116e-05
2.90175e-05
4.48823e-05
7.32912e-05
4.06335e-05
5.96107e-05
7.32919e-05
4.06347e-05
5.95864e-05
2.39042e-05
3.61991e-05
3.86444e-05
2.21342e-05
3.95488e-05
2.21138e-05
2.37288e-05
1.77826e-05
1.71238e-05
1.97087e-05
1.63417e-05
1.65314e-05
1.93662e-05
1.78171e-05
2.71169e-05
4.45222e-05
4.94701e-05
3.25436e-05
4.33949e-05
3.30637e-05
2.71701e-05
1.46711e-05
1.4617e-05
1.41189e-05