/*--------------------------------*- C++ -*----------------------------------*\
| =========                 |                                                 |
| \\      /  F ield         | OpenFOAM: The Open Source CFD Toolbox           |
|  \\    /   O peration     | Version:  v2006                                 |
|   \\  /    A nd           | Website:  www.openfoam.com                      |
|    \\/     M anipulation  |                                                 |
\*---------------------------------------------------------------------------*/
FoamFile
{
    version     2.0;
    format      ascii;
    class       volScalarField;
    location    "125";
    object      nut;
}
// * * * * * * * * * * * * * * * * * * * * * * * * * * * * * * * * * * * * * //

dimensions      [0 2 -1 0 0 0 0];


internalField   nonuniform List<scalar> 
14314
(
0.000124833
9.59099e-05
9.59195e-05
9.06888e-05
0.000127566
9.65177e-05
9.65255e-05
9.08224e-05
9.09007e-05
9.5931e-05
9.59128e-05
9.0756e-05
9.5944e-05
9.59218e-05
9.59457e-05
9.59461e-05
9.07767e-05
9.59545e-05
9.59295e-05
9.07046e-05
9.08296e-05
9.08896e-05
9.58949e-05
9.58768e-05
9.65982e-05
9.6582e-05
9.06999e-05
9.08564e-05
9.59082e-05
9.58874e-05
9.66101e-05
9.65874e-05
9.59112e-05
9.66139e-05
9.66131e-05
9.08194e-05
9.08461e-05
9.58947e-05
9.66187e-05
9.65998e-05
9.0821e-05
9.08785e-05
9.65049e-05
9.64882e-05
9.08272e-05
9.65158e-05
9.64967e-05
0.000127566
0.000127572
0.000127571
9.65184e-05
9.08795e-05
9.65068e-05
7.80335e-05
4.95383e-05
2.35495e-05
7.80307e-05
4.95329e-05
0.000124816
0.000124817
0.000124818
0.00012481
8.51333e-05
9.59183e-05
7.57514e-05
0.000108157
2.35485e-05
8.51327e-05
9.59254e-05
0.000108163
7.5753e-05
9.09335e-05
6.53615e-05
6.53578e-05
7.80425e-05
4.95245e-05
7.7989e-05
4.95642e-05
2.35405e-05
2.35595e-05
7.80378e-05
4.95194e-05
7.7985e-05
4.95593e-05
0.000124835
0.000124838
0.00012483
0.000125481
0.00012548
0.000125485
0.000125483
8.51072e-05
7.58211e-05
0.000108251
9.60406e-05
8.51677e-05
7.56743e-05
0.000108122
2.35395e-05
2.35585e-05
8.5107e-05
0.000108255
7.58225e-05
9.6048e-05
8.51674e-05
0.000108127
7.56763e-05
6.53206e-05
6.5317e-05
9.09399e-05
6.51142e-05
6.51115e-05
8.01582e-05
5.33603e-05
7.80733e-05
9.10393e-05
2.64727e-05
4.25611e-05
8.01559e-05
5.33551e-05
7.80694e-05
9.1044e-05
0.000168324
0.00014881
0.000148819
0.000124592
0.000167773
0.000147132
0.00014714
8.56174e-05
7.64325e-05
0.000110255
9.69278e-05
8.51235e-05
8.2294e-05
0.000111875
2.64718e-05
4.25611e-05
8.56174e-05
0.000110255
7.64344e-05
9.69323e-05
8.51236e-05
0.000111875
8.22966e-05
6.5552e-05
6.5545e-05
9.09579e-05
6.94993e-05
6.94995e-05
2.35518e-05
2.35494e-05
9.07768e-05
6.53677e-05
6.53635e-05
2.3552e-05
2.35433e-05
2.35502e-05
2.35408e-05
9.08424e-05
6.52686e-05
6.52652e-05
6.54099e-05
6.54057e-05
7.8031e-05
4.95326e-05
8.51331e-05
9.59003e-05
7.57565e-05
0.000108152
8.51307e-05
9.58851e-05
7.57484e-05
0.000108145
7.80143e-05
4.9541e-05
4.95251e-05
7.80208e-05
7.80115e-05
4.95361e-05
4.95198e-05
7.8018e-05
8.51611e-05
9.58986e-05
7.57131e-05
0.000108163
7.58351e-05
0.000108177
8.51253e-05
8.51587e-05
9.58827e-05
7.57049e-05
0.000108155
7.58272e-05
0.000108169
8.51228e-05
9.09199e-05
6.53665e-05
6.53647e-05
2.35504e-05
2.35502e-05
2.35412e-05
9.09216e-05
6.52659e-05
6.52666e-05
6.54085e-05
6.54069e-05
2.35514e-05
2.35418e-05
8.51298e-05
9.59131e-05
7.57499e-05
0.000108148
7.80247e-05
4.95294e-05
8.51252e-05
9.58929e-05
0.000108146
7.57464e-05
7.80112e-05
4.9536e-05
4.95199e-05
7.80176e-05
8.51574e-05
9.59114e-05
7.5706e-05
0.000108162
7.58285e-05
0.000108173
8.51215e-05
7.80055e-05
4.95325e-05
4.95166e-05
7.80132e-05
8.51529e-05
9.58899e-05
0.000108157
7.57023e-05
0.000108171
7.58253e-05
8.51174e-05
7.8033e-05
4.95345e-05
8.51321e-05
9.59171e-05
0.000108155
7.57471e-05
7.80303e-05
4.95312e-05
8.51608e-05
9.5916e-05
7.57078e-05
0.000108169
7.58301e-05
0.000108183
8.51248e-05
7.80136e-05
4.95379e-05
4.95215e-05
7.80199e-05
8.51598e-05
9.5914e-05
0.000108167
7.57042e-05
0.000108181
7.58259e-05
8.51236e-05
7.80108e-05
4.95346e-05
4.95179e-05
7.80171e-05
9.08283e-05
6.53645e-05
6.53675e-05
2.35502e-05
2.35492e-05
2.35402e-05
9.07575e-05
6.52641e-05
6.52693e-05
6.54064e-05
6.54097e-05
2.3551e-05
2.35416e-05
8.513e-05
9.58997e-05
0.000108152
7.5746e-05
7.80322e-05
4.95339e-05
7.80278e-05
4.95295e-05
8.51605e-05
9.59221e-05
0.000108176
7.57094e-05
0.000108188
7.58318e-05
8.51246e-05
8.51577e-05
9.58973e-05
0.000108167
7.57026e-05
0.000108178
7.58246e-05
8.5122e-05
7.80128e-05
4.95373e-05
4.95211e-05
7.80197e-05
7.80089e-05
4.9533e-05
4.95163e-05
7.80169e-05
2.35494e-05
2.35484e-05
9.08826e-05
6.52632e-05
6.52596e-05
6.54038e-05
6.54e-05
2.35505e-05
2.35409e-05
2.35494e-05
2.35398e-05
2.35424e-05
2.35612e-05
2.35404e-05
2.35592e-05
6.53259e-05
6.53225e-05
9.07933e-05
6.51212e-05
6.5117e-05
2.42776e-05
2.35595e-05
2.42757e-05
2.35573e-05
9.07256e-05
6.52423e-05
6.52366e-05
6.51358e-05
6.51319e-05
7.80389e-05
4.95194e-05
7.79855e-05
4.95595e-05
8.51078e-05
7.58257e-05
0.000108244
9.60225e-05
8.51676e-05
7.56801e-05
0.000108115
8.51051e-05
7.58176e-05
0.000108236
9.60079e-05
8.51651e-05
7.56718e-05
0.000108108
7.79432e-05
5.06833e-05
4.95624e-05
7.84885e-05
7.79402e-05
5.06796e-05
4.95577e-05
7.84858e-05
8.51112e-05
9.56777e-05
7.60487e-05
0.000108453
7.58544e-05
0.000108716
8.51791e-05
8.51082e-05
9.56634e-05
7.6042e-05
0.000108447
7.58464e-05
0.000108708
8.51763e-05
6.5323e-05
6.53238e-05
9.08593e-05
6.51168e-05
6.51175e-05
2.35417e-05
2.35604e-05
2.42764e-05
2.35576e-05
9.08254e-05
6.52364e-05
6.5238e-05
6.51314e-05
6.51313e-05
2.42763e-05
2.35583e-05
8.51039e-05
7.58189e-05
0.000108241
9.60355e-05
8.51638e-05
7.56729e-05
0.000108115
7.80341e-05
4.95159e-05
7.79802e-05
4.95562e-05
8.51002e-05
0.000108239
7.5815e-05
9.60161e-05
8.51598e-05
0.000108109
7.56693e-05
7.79397e-05
5.06781e-05
4.95574e-05
7.84863e-05
8.51072e-05
9.56945e-05
7.60429e-05
0.000108443
7.58474e-05
0.000108715
8.51752e-05
7.79357e-05
5.06758e-05
4.95541e-05
7.84831e-05
8.51035e-05
9.56685e-05
0.000108448
7.60397e-05
0.00010871
7.58439e-05
8.51719e-05
7.80408e-05
4.95213e-05
7.79879e-05
4.95612e-05
8.51059e-05
0.00010825
7.5817e-05
9.60431e-05
8.51658e-05
0.000108121
7.56706e-05
7.80376e-05
4.95179e-05
7.79839e-05
4.95581e-05
8.51105e-05
9.56995e-05
7.60435e-05
0.000108451
7.58486e-05
0.000108725
8.51785e-05
7.79423e-05
5.0679e-05
4.95589e-05
7.84889e-05
8.51092e-05
9.56954e-05
0.000108458
7.60404e-05
0.000108722
7.5845e-05
8.51771e-05
7.79387e-05
5.06772e-05
4.95559e-05
7.84854e-05
6.53213e-05
6.53265e-05
9.08829e-05
6.51156e-05
6.51212e-05
2.35412e-05
2.35605e-05
2.42753e-05
2.35566e-05
9.07464e-05
6.52353e-05
6.52406e-05
6.51304e-05
6.51362e-05
2.42762e-05
2.35587e-05
8.51044e-05
0.000108247
7.58155e-05
9.6028e-05
8.51642e-05
0.000108119
7.56698e-05
7.80427e-05
4.95207e-05
7.79888e-05
4.95613e-05
7.80383e-05
4.95162e-05
7.7985e-05
4.95561e-05
8.51104e-05
9.57042e-05
0.000108452
7.60456e-05
0.000108727
7.58509e-05
8.51789e-05
8.51077e-05
9.56859e-05
0.000108448
7.60401e-05
0.000108721
7.58441e-05
8.51761e-05
7.79441e-05
5.0679e-05
4.95592e-05
7.84906e-05
7.79404e-05
5.06756e-05
4.95544e-05
7.84877e-05
2.35408e-05
2.35596e-05
2.35398e-05
2.35583e-05
9.08764e-05
6.52354e-05
6.52323e-05
6.51279e-05
6.51251e-05
2.4276e-05
2.35575e-05
2.42749e-05
2.35564e-05
2.64734e-05
4.25601e-05
2.64717e-05
4.25628e-05
6.55593e-05
6.55489e-05
9.09298e-05
6.9508e-05
6.95037e-05
9.13418e-05
6.96576e-05
6.96532e-05
8.01561e-05
5.33578e-05
7.80697e-05
9.10403e-05
8.56179e-05
7.64389e-05
0.000110247
9.69123e-05
8.5124e-05
8.22979e-05
0.000111866
8.56147e-05
7.64317e-05
0.000110241
9.69007e-05
8.51212e-05
8.22926e-05
0.000111861
8.72051e-05
9.73263e-05
8.24616e-05
0.000112749
8.72018e-05
9.73171e-05
8.24558e-05
0.000112745
6.5552e-05
6.55516e-05
9.09325e-05
6.95042e-05
6.95022e-05
2.64722e-05
4.25626e-05
9.13561e-05
6.96534e-05
6.96514e-05
8.56142e-05
7.64317e-05
0.000110247
9.69224e-05
8.51202e-05
8.22938e-05
0.000111866
8.01531e-05
5.33536e-05
7.80659e-05
9.1047e-05
8.56108e-05
0.000110243
7.64292e-05
9.69057e-05
8.51168e-05
0.000111864
8.22917e-05
8.72015e-05
9.73359e-05
8.24572e-05
0.00011275
8.71982e-05
9.73187e-05
0.000112747
8.24551e-05
0.000168323
0.000148808
0.000148821
0.000124593
0.000167771
0.00014713
0.000147143
0.000168321
0.00014881
0.000148821
0.000124596
0.000167769
0.000147132
0.000147143
0.000168321
0.000148812
0.000148819
0.000124598
0.000167768
0.000147136
0.000147141
0.000168602
0.000123162
0.000146266
0.000146272
0.000168601
0.000123162
0.000146264
0.000146276
0.000168599
0.000123165
0.000146266
0.000146275
0.000168598
0.000123167
0.00014627
0.000146274
8.01582e-05
5.33557e-05
7.80722e-05
9.10443e-05
8.56157e-05
0.000110254
7.64297e-05
9.69297e-05
8.51218e-05
0.000111874
8.22913e-05
8.01553e-05
5.33544e-05
7.80692e-05
9.10475e-05
8.72049e-05
9.73432e-05
8.24573e-05
0.000112759
8.72034e-05
9.73432e-05
0.000112758
8.24549e-05
6.55495e-05
6.5554e-05
9.09439e-05
6.95025e-05
6.9505e-05
2.64722e-05
4.25644e-05
9.13441e-05
6.96517e-05
6.96544e-05
8.56147e-05
0.000110253
7.64282e-05
9.69205e-05
8.51208e-05
0.000111874
8.22898e-05
8.01606e-05
5.33558e-05
7.80743e-05
9.10487e-05
8.01576e-05
5.33528e-05
7.80705e-05
9.10435e-05
8.72047e-05
9.73442e-05
0.000112758
8.24599e-05
8.72021e-05
9.73347e-05
0.000112757
8.24532e-05
2.6472e-05
4.25609e-05
2.6471e-05
4.25616e-05
9.13701e-05
6.96481e-05
6.96481e-05
4.35292e-05
4.35328e-05
8.01327e-05
9.03722e-05
8.01307e-05
9.03731e-05
4.35308e-05
4.35327e-05
8.01304e-05
9.03762e-05
8.01277e-05
9.03784e-05
8.01329e-05
9.03763e-05
8.01301e-05
9.03789e-05
4.35308e-05
4.35343e-05
8.01353e-05
9.03804e-05
8.01323e-05
9.0375e-05
4.35305e-05
4.35313e-05
3.61653e-05
7.80221e-05
4.03796e-05
7.6896e-05
4.03811e-05
7.6928e-05
3.61681e-05
2.01083e-05
7.06451e-05
4.95265e-05
7.08821e-05
2.01382e-05
2.35416e-05
3.61643e-05
7.8019e-05
7.6891e-05
4.03785e-05
7.69236e-05
4.038e-05
3.61671e-05
2.0108e-05
7.0643e-05
4.95208e-05
7.08799e-05
2.01379e-05
2.35407e-05
7.34286e-05
2.14811e-05
2.14779e-05
2.14802e-05
2.14771e-05
7.34492e-05
8.20277e-05
4.72861e-05
6.54338e-05
8.53881e-05
8.54331e-05
4.72742e-05
8.19718e-05
8.20524e-05
4.72757e-05
6.54301e-05
8.53844e-05
8.54293e-05
4.72638e-05
8.19964e-05
3.6171e-05
7.7967e-05
4.03924e-05
7.68113e-05
4.03905e-05
7.68594e-05
3.61804e-05
2.01536e-05
7.08583e-05
4.95465e-05
2.00977e-05
7.03757e-05
3.61719e-05
7.80167e-05
4.03845e-05
7.68816e-05
3.61667e-05
4.03829e-05
7.68429e-05
2.00944e-05
7.02319e-05
4.95305e-05
7.08496e-05
2.01654e-05
2.35521e-05
2.35432e-05
3.61704e-05
7.79624e-05
7.68085e-05
4.03912e-05
7.68557e-05
4.03896e-05
3.61798e-05
2.01533e-05
7.08565e-05
4.95417e-05
2.00977e-05
7.03744e-05
3.61709e-05
7.80132e-05
7.68771e-05
4.03831e-05
3.61657e-05
7.68394e-05
4.03818e-05
2.00943e-05
7.02294e-05
4.95257e-05
7.0848e-05
2.01654e-05
2.35512e-05
2.35424e-05
7.34055e-05
2.14904e-05
2.14873e-05
2.14875e-05
2.14844e-05
7.34822e-05
8.19424e-05
8.54345e-05
4.72721e-05
6.51945e-05
8.20295e-05
8.53522e-05
4.72949e-05
8.19689e-05
8.54311e-05
4.72616e-05
6.51909e-05
8.20557e-05
8.53487e-05
4.72845e-05
7.34699e-05
2.14831e-05
2.148e-05
7.3412e-05
2.14835e-05
2.14802e-05
8.20387e-05
4.73119e-05
6.52625e-05
8.53402e-05
8.54376e-05
4.72771e-05
8.19501e-05
8.20654e-05
4.73018e-05
6.52588e-05
8.53366e-05
8.54341e-05
4.72668e-05
8.1978e-05
9.53285e-06
8.02072e-05
1.06682e-05
7.86291e-05
2.02432e-05
7.85931e-05
7.11036e-05
0.000108394
2.00437e-05
7.46721e-05
1.01467e-05
8.01871e-05
4.17413e-05
7.73777e-05
3.54881e-05
4.24386e-05
7.8814e-05
7.41266e-05
0.000104175
7.34035e-05
3.19645e-05
3.47087e-05
9.53303e-06
8.02048e-05
7.86249e-05
1.06678e-05
7.85881e-05
2.02436e-05
7.11023e-05
0.000108407
2.00439e-05
7.46713e-05
1.01468e-05
8.01847e-05
7.73769e-05
4.17404e-05
3.54876e-05
7.88086e-05
4.24381e-05
7.41247e-05
0.000104186
7.34016e-05
0.000166564
0.000168189
0.000167424
0.000167427
0.000167506
0.000167508
0.00016627
0.000129438
0.000124986
0.00012743
0.00012743
0.000127464
0.000127464
0.000130044
0.000149283
0.00015052
0.000147347
0.000146146
0.000146545
0.000150105
0.000149465
0.000149291
0.000150529
0.000147354
0.000146153
0.000146553
0.000150113
0.000149473
8.52833e-05
8.56051e-05
8.57866e-05
8.58217e-05
8.52332e-05
8.58805e-05
8.5406e-05
9.60546e-05
9.68226e-05
9.5427e-05
9.73818e-05
9.58164e-05
9.72075e-05
9.57555e-05
8.47549e-05
8.19544e-05
7.94546e-05
8.79672e-05
8.6872e-05
8.20842e-05
8.47302e-05
0.000108691
0.000109136
0.000111467
0.000111422
0.000111147
0.000109367
0.000108297
3.19645e-05
3.47075e-05
8.52817e-05
8.5605e-05
8.58185e-05
8.57868e-05
8.58776e-05
8.52336e-05
8.54044e-05
9.60597e-05
9.6829e-05
9.73862e-05
9.543e-05
9.72126e-05
9.58212e-05
9.57598e-05
0.000108691
0.000109135
0.000111467
0.000111421
0.000111146
0.000109367
0.000108297
8.47561e-05
8.19555e-05
7.94569e-05
8.79688e-05
8.68737e-05
8.20856e-05
8.47315e-05
7.80871e-05
5.97547e-06
5.97584e-06
1.12009e-05
1.12014e-05
7.68562e-05
8.5558e-05
8.58593e-05
4.90064e-05
7.02995e-05
8.27886e-05
8.67384e-05
5.13331e-05
8.56166e-05
8.58546e-05
4.89995e-05
7.0297e-05
8.28253e-05
8.67354e-05
5.13323e-05
9.06271e-05
9.10328e-05
9.0055e-05
9.00563e-05
8.99913e-05
8.99921e-05
9.10478e-05
7.44927e-05
2.28435e-05
2.28421e-05
7.55152e-05
1.19409e-05
1.19413e-05
8.49905e-05
2.57317e-05
6.92067e-05
8.70764e-05
8.84545e-05
2.3597e-05
8.42772e-05
8.50289e-05
2.57329e-05
6.92067e-05
8.70766e-05
8.84561e-05
2.35985e-05
8.43133e-05
2.3544e-05
2.35413e-05
7.34299e-05
2.14817e-05
2.14784e-05
2.14808e-05
2.14776e-05
7.34505e-05
8.20238e-05
4.72875e-05
6.544e-05
8.53889e-05
4.72756e-05
8.19682e-05
8.54339e-05
8.20561e-05
4.72764e-05
6.54347e-05
8.53867e-05
4.72645e-05
8.2e-05
8.54318e-05
2.35424e-05
2.35518e-05
2.35404e-05
2.35494e-05
7.34537e-05
2.14811e-05
2.14779e-05
7.34247e-05
2.14816e-05
2.14781e-05
8.20243e-05
8.53666e-05
6.53725e-05
4.72908e-05
4.72732e-05
8.54347e-05
8.19476e-05
8.20558e-05
8.53645e-05
6.5369e-05
4.72794e-05
4.72616e-05
8.54329e-05
8.19793e-05
8.19585e-05
4.72742e-05
8.54345e-05
6.53233e-05
8.20242e-05
4.72888e-05
8.53795e-05
8.199e-05
4.72631e-05
8.54323e-05
6.53198e-05
8.20558e-05
4.72774e-05
8.53774e-05
7.34186e-05
2.14821e-05
2.14787e-05
2.14818e-05
2.14785e-05
7.34603e-05
3.61628e-05
7.80201e-05
4.03793e-05
7.68845e-05
4.03808e-05
7.6917e-05
3.61656e-05
2.01066e-05
7.06248e-05
4.95207e-05
7.08618e-05
2.01365e-05
3.61683e-05
4.03815e-05
7.69147e-05
7.80273e-05
3.61653e-05
4.03797e-05
7.68775e-05
2.01014e-05
4.95239e-05
7.04886e-05
2.01464e-05
7.0867e-05
2.01417e-05
7.08755e-05
4.95392e-05
2.01052e-05
7.05762e-05
3.61651e-05
7.8003e-05
4.03801e-05
7.68649e-05
3.6169e-05
4.03822e-05
7.68982e-05
3.6166e-05
4.0381e-05
7.69031e-05
7.80251e-05
3.61626e-05
4.03794e-05
7.68677e-05
2.01004e-05
4.95188e-05
7.04689e-05
7.08476e-05
2.01453e-05
2.01403e-05
7.08552e-05
4.95339e-05
2.01036e-05
7.05569e-05
3.61632e-05
7.80009e-05
4.03798e-05
7.68539e-05
4.03821e-05
7.68883e-05
3.61669e-05
7.34294e-05
2.14784e-05
2.14813e-05
2.14775e-05
2.14805e-05
7.34501e-05
8.20537e-05
4.7277e-05
6.54382e-05
8.53827e-05
4.7265e-05
8.54274e-05
8.1998e-05
8.20248e-05
4.72856e-05
6.5437e-05
8.539e-05
8.54351e-05
4.72735e-05
8.19692e-05
2.35425e-05
2.35404e-05
2.35498e-05
7.34543e-05
2.14778e-05
2.14808e-05
7.34243e-05
2.14787e-05
2.14811e-05
8.2055e-05
8.5361e-05
6.53703e-05
4.72805e-05
8.54292e-05
4.72628e-05
8.19775e-05
8.20252e-05
8.53672e-05
6.53703e-05
4.72883e-05
4.72707e-05
8.54354e-05
8.19487e-05
8.1989e-05
4.72637e-05
8.54283e-05
6.53213e-05
8.53736e-05
8.20541e-05
4.72783e-05
8.19593e-05
4.72721e-05
8.54352e-05
6.53212e-05
8.20249e-05
4.72864e-05
8.53799e-05
7.3419e-05
2.1479e-05
2.14815e-05
2.14791e-05
2.14813e-05
7.34597e-05
2.35418e-05
2.35508e-05
3.61621e-05
7.80123e-05
4.03779e-05
7.68843e-05
4.03794e-05
7.69161e-05
3.61649e-05
2.01068e-05
7.0622e-05
4.95175e-05
7.08589e-05
2.01367e-05
3.61675e-05
7.69099e-05
4.03804e-05
7.80241e-05
3.61641e-05
7.68743e-05
4.03786e-05
2.01018e-05
4.95189e-05
7.04874e-05
2.01467e-05
7.08657e-05
2.01417e-05
7.08733e-05
4.9534e-05
2.0105e-05
7.05752e-05
3.61647e-05
7.80002e-05
7.68608e-05
4.0379e-05
3.61684e-05
7.68949e-05
4.0381e-05
3.61651e-05
4.03801e-05
7.69029e-05
7.80183e-05
3.61621e-05
4.03781e-05
7.68658e-05
2.00999e-05
4.95154e-05
7.04656e-05
7.08438e-05
2.01448e-05
2.01402e-05
7.08522e-05
4.95307e-05
2.01037e-05
7.05532e-05
3.61621e-05
7.79951e-05
4.03787e-05
7.68525e-05
4.03805e-05
7.68868e-05
3.6166e-05
3.61649e-05
7.80214e-05
7.68955e-05
4.03786e-05
7.69281e-05
4.03801e-05
3.61677e-05
2.01085e-05
7.06488e-05
4.95227e-05
7.08859e-05
2.01385e-05
3.61633e-05
7.80187e-05
4.03789e-05
7.68847e-05
4.03804e-05
7.69172e-05
3.61661e-05
2.01072e-05
7.06248e-05
4.95193e-05
7.08617e-05
2.01371e-05
3.61679e-05
7.69142e-05
4.03805e-05
7.80265e-05
3.61647e-05
7.68778e-05
4.03787e-05
2.01017e-05
4.95208e-05
7.04915e-05
7.087e-05
2.01467e-05
2.0142e-05
7.08789e-05
4.95358e-05
2.01055e-05
7.05795e-05
3.61649e-05
7.80024e-05
7.68642e-05
4.03791e-05
7.68984e-05
4.03811e-05
3.61686e-05
3.61665e-05
4.03808e-05
7.69034e-05
7.80238e-05
3.61631e-05
4.0379e-05
7.68679e-05
2.01009e-05
4.95175e-05
7.04684e-05
7.08473e-05
2.01456e-05
2.01408e-05
7.0855e-05
4.95322e-05
2.01041e-05
7.05568e-05
3.61637e-05
7.79994e-05
4.03795e-05
7.68539e-05
4.03815e-05
7.68886e-05
3.61671e-05
7.34312e-05
2.14785e-05
2.14815e-05
2.14774e-05
2.14807e-05
7.34519e-05
8.20538e-05
4.72764e-05
6.54359e-05
8.53851e-05
4.7264e-05
8.54298e-05
8.19984e-05
8.20255e-05
4.72871e-05
6.54388e-05
8.53905e-05
8.54355e-05
4.72752e-05
8.19694e-05
2.35421e-05
2.35394e-05
2.35488e-05
7.34552e-05
2.14781e-05
2.1481e-05
7.34262e-05
2.14786e-05
2.14814e-05
8.20547e-05
8.53628e-05
6.53682e-05
4.72794e-05
8.54311e-05
4.72617e-05
8.19775e-05
8.20257e-05
8.53684e-05
6.53732e-05
4.72901e-05
4.72725e-05
8.54365e-05
8.19492e-05
8.19885e-05
4.72632e-05
8.54302e-05
6.53192e-05
8.53753e-05
8.20542e-05
4.72773e-05
8.19598e-05
4.72736e-05
8.54358e-05
6.5324e-05
8.20252e-05
4.72881e-05
8.53809e-05
7.34198e-05
2.14787e-05
2.14819e-05
2.14785e-05
2.14819e-05
7.34615e-05
2.35412e-05
2.35502e-05
3.61645e-05
7.80211e-05
7.68959e-05
4.03784e-05
7.69276e-05
4.03798e-05
3.61673e-05
2.01082e-05
7.06487e-05
4.95217e-05
7.08845e-05
2.01381e-05
3.61625e-05
7.80164e-05
7.68862e-05
4.03784e-05
7.69186e-05
4.03796e-05
3.61654e-05
2.01068e-05
7.06251e-05
4.95177e-05
7.08619e-05
2.01367e-05
3.61677e-05
7.69146e-05
4.038e-05
7.80264e-05
3.61645e-05
7.68782e-05
4.03784e-05
2.01017e-05
4.95202e-05
7.04913e-05
7.08699e-05
2.01466e-05
2.01419e-05
7.08788e-05
4.95352e-05
2.01055e-05
7.05794e-05
3.61647e-05
7.80023e-05
7.68647e-05
4.03789e-05
7.68988e-05
4.03811e-05
3.61684e-05
3.61655e-05
7.69046e-05
4.03803e-05
7.80225e-05
3.61626e-05
7.68676e-05
4.03785e-05
2.01003e-05
4.9516e-05
7.04673e-05
7.08469e-05
2.01452e-05
2.01402e-05
7.08552e-05
4.95307e-05
2.01038e-05
7.05561e-05
3.61628e-05
7.79994e-05
7.68535e-05
4.03792e-05
7.68889e-05
4.03812e-05
3.61667e-05
2.35416e-05
2.35405e-05
7.34528e-05
2.14805e-05
2.14774e-05
7.34238e-05
2.1481e-05
2.14779e-05
8.20273e-05
8.5366e-05
6.5367e-05
4.72892e-05
8.19505e-05
8.5434e-05
4.72714e-05
8.20529e-05
8.53625e-05
6.53635e-05
4.72788e-05
8.19764e-05
8.54305e-05
4.72612e-05
8.19616e-05
4.72728e-05
8.54336e-05
6.53179e-05
8.20276e-05
8.53785e-05
4.72871e-05
8.19871e-05
4.72622e-05
8.54298e-05
6.53144e-05
8.20524e-05
8.53749e-05
4.72768e-05
7.3418e-05
2.14816e-05
2.14783e-05
7.34595e-05
2.14812e-05
2.14783e-05
2.35409e-05
2.35498e-05
2.35396e-05
2.35486e-05
2.3554e-05
2.3545e-05
2.35521e-05
2.35431e-05
7.34057e-05
2.1491e-05
2.14875e-05
2.14879e-05
2.14849e-05
7.34824e-05
8.19396e-05
8.54347e-05
4.7273e-05
6.52018e-05
8.20266e-05
4.72958e-05
8.53528e-05
8.19714e-05
8.54328e-05
4.72618e-05
6.51975e-05
8.20583e-05
4.72846e-05
8.5351e-05
7.34704e-05
2.14834e-05
2.14803e-05
7.34124e-05
2.14838e-05
2.14805e-05
8.2036e-05
4.73136e-05
6.52696e-05
8.53405e-05
4.72786e-05
8.19481e-05
8.54382e-05
8.20678e-05
4.73023e-05
6.52655e-05
8.5339e-05
4.72674e-05
8.19798e-05
8.54364e-05
2.37057e-05
2.36027e-05
2.37033e-05
2.36003e-05
7.34522e-05
2.15033e-05
2.15001e-05
7.33948e-05
2.15206e-05
2.15172e-05
8.19514e-05
8.57803e-05
6.46829e-05
4.79887e-05
4.7489e-05
8.53519e-05
8.22687e-05
8.19837e-05
8.57795e-05
6.4677e-05
4.79784e-05
4.74777e-05
8.53495e-05
8.23051e-05
8.20212e-05
4.73079e-05
8.53771e-05
6.50873e-05
8.20185e-05
4.73881e-05
8.538e-05
8.2054e-05
4.72966e-05
8.53741e-05
6.50816e-05
8.20497e-05
4.73767e-05
8.53781e-05
7.3519e-05
2.17905e-05
2.17872e-05
2.15794e-05
2.15761e-05
7.18129e-05
3.6168e-05
7.79635e-05
4.03918e-05
7.68003e-05
4.039e-05
7.68481e-05
3.61777e-05
2.01517e-05
7.08379e-05
4.95415e-05
2.00963e-05
7.0355e-05
3.61688e-05
7.80136e-05
4.0384e-05
7.68703e-05
4.03824e-05
3.61642e-05
7.68317e-05
2.00926e-05
7.02114e-05
4.95258e-05
7.08286e-05
2.01638e-05
3.62104e-05
4.04095e-05
7.68728e-05
7.81437e-05
3.61868e-05
4.04261e-05
7.67813e-05
2.01257e-05
4.98137e-05
6.96755e-05
2.03423e-05
7.0844e-05
2.01876e-05
7.08467e-05
4.96464e-05
2.00959e-05
7.00445e-05
3.62637e-05
7.78071e-05
4.07669e-05
7.6738e-05
3.64612e-05
4.05002e-05
7.70243e-05
3.62082e-05
4.04092e-05
7.68627e-05
7.81406e-05
3.61844e-05
4.0426e-05
7.67706e-05
2.01247e-05
4.98092e-05
6.965e-05
7.08217e-05
2.03417e-05
2.01861e-05
7.08261e-05
4.96416e-05
2.00943e-05
7.00232e-05
3.62618e-05
7.78041e-05
4.07664e-05
7.67265e-05
4.04999e-05
7.70135e-05
3.64599e-05
7.34055e-05
2.14877e-05
2.14903e-05
2.14845e-05
2.14878e-05
7.34821e-05
8.19698e-05
8.54293e-05
4.72625e-05
6.51977e-05
4.72852e-05
8.20568e-05
8.53476e-05
8.1941e-05
8.54353e-05
4.7271e-05
6.51979e-05
8.53534e-05
8.20275e-05
4.72942e-05
7.34701e-05
2.14801e-05
2.14831e-05
2.14804e-05
7.34119e-05
2.14834e-05
8.20663e-05
4.7303e-05
6.52655e-05
8.53358e-05
4.72679e-05
8.5433e-05
8.19786e-05
8.20374e-05
4.73116e-05
6.52659e-05
8.53413e-05
8.54391e-05
4.72768e-05
8.19484e-05
2.35532e-05
2.35441e-05
2.37039e-05
2.36007e-05
7.34516e-05
2.14999e-05
2.15028e-05
7.33947e-05
2.15174e-05
2.15199e-05
8.19808e-05
8.57761e-05
6.46748e-05
4.798e-05
8.53451e-05
4.74787e-05
8.23035e-05
8.19534e-05
8.57809e-05
6.46803e-05
4.79861e-05
4.74873e-05
8.53534e-05
8.22715e-05
8.20531e-05
4.72973e-05
8.53698e-05
6.5081e-05
8.53751e-05
8.20478e-05
4.73776e-05
8.20215e-05
4.73064e-05
8.53781e-05
6.50834e-05
8.20194e-05
4.73867e-05
8.53803e-05
7.35189e-05
2.17876e-05
2.179e-05
2.1576e-05
2.15792e-05
7.18135e-05
2.37042e-05
2.36013e-05
3.61682e-05
7.79588e-05
4.03908e-05
7.67992e-05
4.03892e-05
7.68467e-05
3.61776e-05
2.01521e-05
7.08349e-05
4.95382e-05
2.00962e-05
7.0353e-05
3.61687e-05
7.80087e-05
4.03829e-05
7.68685e-05
4.03813e-05
3.61636e-05
7.68302e-05
2.00931e-05
7.0209e-05
4.95224e-05
7.08265e-05
2.01642e-05
3.62096e-05
7.68704e-05
4.04085e-05
7.81397e-05
3.6186e-05
7.67776e-05
4.04252e-05
2.01261e-05
4.98081e-05
6.96754e-05
2.03429e-05
7.08415e-05
2.01873e-05
7.08443e-05
4.9641e-05
2.00957e-05
7.00422e-05
3.62634e-05
7.78021e-05
7.67357e-05
4.07659e-05
3.64612e-05
7.70216e-05
4.04991e-05
3.62076e-05
4.04079e-05
7.68607e-05
7.81365e-05
3.61837e-05
4.04248e-05
7.67684e-05
2.01248e-05
4.98054e-05
6.96466e-05
7.08186e-05
2.03416e-05
2.01861e-05
7.08232e-05
4.9638e-05
2.00945e-05
7.00199e-05
3.62617e-05
7.77993e-05
4.07659e-05
7.6725e-05
4.04989e-05
7.70122e-05
3.64597e-05
3.6171e-05
7.79656e-05
7.68108e-05
4.03913e-05
7.68586e-05
4.03897e-05
3.61805e-05
2.01539e-05
7.08607e-05
4.95434e-05
7.03786e-05
2.0098e-05
3.61718e-05
7.8016e-05
7.68811e-05
4.03835e-05
7.68423e-05
3.61663e-05
4.03821e-05
2.00949e-05
7.02325e-05
4.95274e-05
7.08521e-05
2.01659e-05
3.61684e-05
7.79619e-05
4.03912e-05
7.68011e-05
4.03896e-05
7.6848e-05
3.61782e-05
2.01521e-05
7.08372e-05
4.95401e-05
2.00964e-05
7.03539e-05
3.6169e-05
7.80122e-05
4.03836e-05
7.68703e-05
3.61641e-05
4.0382e-05
7.68317e-05
2.00932e-05
7.02105e-05
4.95243e-05
7.08279e-05
2.01644e-05
3.62109e-05
7.68727e-05
4.04086e-05
7.81426e-05
3.61871e-05
7.678e-05
4.04255e-05
2.01265e-05
4.98094e-05
6.96779e-05
7.08444e-05
2.03432e-05
2.01883e-05
7.08479e-05
4.96422e-05
2.00964e-05
7.00455e-05
3.62642e-05
7.78045e-05
7.67387e-05
4.07663e-05
7.70239e-05
4.04994e-05
3.64619e-05
3.62086e-05
4.04088e-05
7.68627e-05
7.81397e-05
3.6185e-05
4.04257e-05
7.67703e-05
2.01252e-05
4.98073e-05
6.96496e-05
7.08206e-05
2.03423e-05
2.01866e-05
7.0825e-05
4.96397e-05
2.00949e-05
7.00222e-05
3.62625e-05
7.78032e-05
4.07663e-05
7.67278e-05
4.04996e-05
7.70142e-05
3.64608e-05
7.34072e-05
2.14877e-05
2.14905e-05
2.1485e-05
2.1488e-05
7.34838e-05
8.197e-05
8.54307e-05
4.72619e-05
6.51961e-05
4.72852e-05
8.20567e-05
8.53489e-05
8.19414e-05
8.54364e-05
4.72727e-05
6.52014e-05
8.53544e-05
8.20281e-05
4.7296e-05
7.34719e-05
2.14801e-05
2.14835e-05
2.14807e-05
7.34136e-05
2.14838e-05
8.20671e-05
4.7303e-05
6.52639e-05
8.5337e-05
4.72682e-05
8.54344e-05
8.19788e-05
8.2038e-05
4.73131e-05
6.52693e-05
8.53422e-05
8.54401e-05
4.72785e-05
8.19491e-05
2.35529e-05
2.35442e-05
2.37029e-05
2.35998e-05
7.34529e-05
2.14998e-05
2.15033e-05
7.33963e-05
2.15172e-05
2.15203e-05
8.19817e-05
8.57777e-05
6.46739e-05
4.79802e-05
8.53462e-05
4.74789e-05
8.23032e-05
8.19542e-05
8.5782e-05
6.46826e-05
4.79875e-05
4.74887e-05
8.53545e-05
8.22725e-05
8.20532e-05
4.72975e-05
8.53716e-05
6.508e-05
8.53762e-05
8.20483e-05
4.73778e-05
8.20224e-05
4.73077e-05
8.53792e-05
6.50859e-05
8.20199e-05
4.7388e-05
8.53814e-05
7.35204e-05
2.17872e-05
2.17902e-05
2.15759e-05
2.15795e-05
7.18151e-05
2.37042e-05
2.36017e-05
3.61711e-05
7.79678e-05
7.68107e-05
4.03916e-05
7.68595e-05
4.03897e-05
3.61802e-05
2.01538e-05
7.08606e-05
4.95429e-05
7.0378e-05
2.0098e-05
3.61716e-05
7.80165e-05
7.68815e-05
4.03833e-05
7.68429e-05
3.61662e-05
4.03819e-05
2.00948e-05
7.02326e-05
4.95272e-05
7.08517e-05
2.01655e-05
3.61683e-05
7.79635e-05
7.68e-05
4.0391e-05
7.68477e-05
4.03891e-05
3.6178e-05
2.01522e-05
7.08367e-05
4.95385e-05
2.00962e-05
7.03544e-05
3.61688e-05
7.80127e-05
7.68702e-05
4.03831e-05
3.61638e-05
7.68316e-05
4.03813e-05
2.00933e-05
7.02108e-05
4.95223e-05
7.08279e-05
2.01645e-05
3.62109e-05
7.68728e-05
4.0409e-05
7.81444e-05
3.61868e-05
7.67799e-05
4.04258e-05
2.01261e-05
4.98094e-05
6.96767e-05
7.08443e-05
2.03431e-05
2.01879e-05
7.08476e-05
4.96425e-05
2.00961e-05
7.00447e-05
3.62643e-05
7.78074e-05
7.67383e-05
4.07666e-05
7.70245e-05
4.04997e-05
3.6462e-05
3.62084e-05
7.6862e-05
4.04086e-05
7.81407e-05
3.61848e-05
7.67688e-05
4.04255e-05
2.01247e-05
4.98058e-05
6.96477e-05
7.08202e-05
2.03418e-05
2.01864e-05
7.08254e-05
4.96384e-05
2.0095e-05
7.00215e-05
3.62618e-05
7.78033e-05
7.67261e-05
4.07661e-05
7.70132e-05
4.04991e-05
3.64601e-05
2.35523e-05
2.35433e-05
2.35512e-05
2.35419e-05
7.34513e-05
2.15029e-05
2.15e-05
7.33949e-05
2.15204e-05
2.1517e-05
8.19533e-05
8.57796e-05
6.46755e-05
4.79878e-05
8.22716e-05
8.53512e-05
4.74883e-05
8.19822e-05
8.57766e-05
6.46727e-05
4.79784e-05
8.23043e-05
8.53468e-05
4.74782e-05
8.20229e-05
4.73067e-05
8.53754e-05
6.50801e-05
8.20205e-05
8.53792e-05
4.73874e-05
8.20523e-05
4.72966e-05
8.53712e-05
6.50772e-05
8.20474e-05
8.53755e-05
4.73771e-05
7.35195e-05
2.17901e-05
2.17872e-05
7.18145e-05
2.15792e-05
2.15761e-05
2.37039e-05
2.36007e-05
2.37028e-05
2.35996e-05
3.19639e-05
3.47086e-05
3.19666e-05
3.47085e-05
7.80884e-05
5.97557e-06
5.97555e-06
1.12007e-05
1.12013e-05
7.68577e-05
8.55557e-05
8.58599e-05
4.90074e-05
7.03092e-05
8.27867e-05
5.13335e-05
8.67376e-05
8.56185e-05
8.5858e-05
4.90003e-05
7.03038e-05
8.2828e-05
5.13325e-05
8.67374e-05
9.06281e-05
9.10126e-05
9.00467e-05
9.00514e-05
9.10465e-05
8.99835e-05
8.99883e-05
7.44955e-05
2.28439e-05
2.28426e-05
7.5513e-05
1.19408e-05
1.19414e-05
8.49893e-05
2.5732e-05
6.92181e-05
8.70758e-05
2.35971e-05
8.42763e-05
8.84531e-05
8.50312e-05
2.5733e-05
6.92119e-05
8.70791e-05
2.35976e-05
8.43155e-05
8.84578e-05
5.62137e-06
5.6212e-06
7.64465e-05
9.10228e-05
9.10284e-05
9.14571e-05
1.17662e-05
8.68552e-05
8.40138e-05
1.17659e-05
8.68585e-05
8.40509e-05
9.53297e-06
8.02048e-05
1.06681e-05
7.86138e-05
2.02436e-05
7.85774e-05
7.10727e-05
0.000108399
2.00429e-05
7.46394e-05
1.01463e-05
8.01843e-05
4.17409e-05
7.73654e-05
4.24391e-05
3.54869e-05
7.87996e-05
7.41018e-05
0.000104176
7.33734e-05
8.52846e-05
8.56056e-05
8.57882e-05
8.58214e-05
8.52351e-05
8.58807e-05
8.54068e-05
9.60396e-05
9.68085e-05
9.5415e-05
9.73671e-05
9.71931e-05
9.58049e-05
9.57408e-05
8.4755e-05
8.19564e-05
7.94604e-05
8.79664e-05
8.20869e-05
8.68724e-05
8.47301e-05
0.000108683
0.000109128
0.000111458
0.000111413
0.000111138
0.000109359
0.000108289
8.52782e-05
8.56024e-05
8.57797e-05
8.58187e-05
8.52263e-05
8.5878e-05
8.54004e-05
9.60266e-05
9.67952e-05
9.54045e-05
9.73555e-05
9.57287e-05
9.57918e-05
9.71806e-05
8.4744e-05
8.1946e-05
7.94538e-05
8.7957e-05
8.20775e-05
8.4719e-05
8.68625e-05
0.000108678
0.000109123
0.000111452
0.000111407
0.000109354
0.000108284
0.000111131
8.61188e-05
8.6333e-05
8.65942e-05
9.63659e-05
9.79496e-05
9.6052e-05
8.18169e-05
8.80902e-05
8.61019e-05
0.000108642
0.000111995
0.000107559
8.61097e-05
8.63304e-05
8.65879e-05
9.63557e-05
9.79395e-05
9.60415e-05
8.18063e-05
8.80812e-05
8.60909e-05
0.000108637
0.000111989
0.000107554
7.80836e-05
5.97523e-06
5.97597e-06
1.12001e-05
1.12016e-05
7.68529e-05
8.56132e-05
8.58569e-05
4.90041e-05
7.03047e-05
5.13357e-05
8.283e-05
8.67367e-05
8.55604e-05
8.58575e-05
4.90025e-05
7.03021e-05
8.67361e-05
8.27838e-05
5.13297e-05
9.0627e-05
9.10058e-05
9.00482e-05
9.00507e-05
8.99855e-05
8.99831e-05
9.10461e-05
7.44885e-05
2.2842e-05
2.28444e-05
1.19405e-05
7.55154e-05
1.19419e-05
8.50286e-05
2.57327e-05
6.9213e-05
8.70762e-05
2.35983e-05
8.84561e-05
8.43106e-05
8.49896e-05
2.57315e-05
6.92101e-05
8.7076e-05
8.84527e-05
2.35961e-05
8.42781e-05
3.19663e-05
3.47083e-05
5.62089e-06
5.62173e-06
7.64422e-05
9.10287e-05
9.103e-05
9.14567e-05
1.17662e-05
8.68554e-05
8.40468e-05
1.17658e-05
8.68555e-05
8.40151e-05
8.5281e-05
8.5602e-05
8.57849e-05
8.58182e-05
8.52316e-05
8.58774e-05
8.54035e-05
9.60516e-05
9.68186e-05
9.5423e-05
9.73762e-05
9.72024e-05
9.58127e-05
9.57516e-05
8.47512e-05
8.19528e-05
7.94543e-05
8.79645e-05
8.20829e-05
8.68696e-05
8.47266e-05
0.000108683