/*--------------------------------*- C++ -*----------------------------------*\
| =========                 |                                                 |
| \\      /  F ield         | OpenFOAM: The Open Source CFD Toolbox           |
|  \\    /   O peration     | Version:  v2006                                 |
|   \\  /    A nd           | Website:  www.openfoam.com                      |
|    \\/     M anipulation  |                                                 |
\*---------------------------------------------------------------------------*/
FoamFile
{
    version     2.0;
    format      ascii;
    class       volScalarField;
    location    "125";
    object      p;
}
// * * * * * * * * * * * * * * * * * * * * * * * * * * * * * * * * * * * * * //

dimensions      [0 2 -2 0 0 0 0];


internalField   nonuniform List<scalar> 
14314
(
3.39678e-05
3.35129e-05
3.35102e-05
3.5266e-05
4.51372e-06
3.55891e-06
3.55707e-06
3.93958e-06
4.00089e-05
4.21245e-05
4.21234e-05
4.00083e-05
4.21227e-05
4.21205e-05
4.21221e-05
4.21195e-05
4.00054e-05
4.21199e-05
4.21191e-05
4.00048e-05
3.52691e-05
7.30122e-06
3.35138e-05
3.35143e-05
9.88742e-06
9.88757e-06
3.52688e-05
7.30201e-06
3.35127e-05
3.351e-05
9.88747e-06
9.88498e-06
3.35098e-05
9.88658e-06
9.88456e-06
3.5265e-05
7.29926e-06
3.35102e-05
9.885e-06
9.88506e-06
7.3004e-06
3.9392e-06
3.55945e-06
3.55943e-06
3.93989e-06
3.55814e-06
3.5574e-06
4.51375e-06
4.51195e-06
4.51248e-06
3.56001e-06
3.9365e-06
3.558e-06
5.76417e-05
5.76581e-05
5.74918e-05
5.76386e-05
5.76559e-05
4.24096e-05
4.24096e-05
4.24064e-05
4.24062e-05
5.76866e-05
5.98733e-05
5.77367e-05
5.99124e-05
5.74878e-05
5.7684e-05
5.9869e-05
5.99108e-05
5.77337e-05
5.77854e-05
5.76978e-05
5.76971e-05
2.10271e-05
3.48311e-05
3.49226e-05
2.04225e-05
3.51955e-05
1.98833e-05
2.10193e-05
3.48259e-05
3.4917e-05
2.04226e-05
3.39679e-05
3.39649e-05
3.39647e-05
1.04709e-05
1.04708e-05
1.04691e-05
1.04694e-05
2.15337e-05
3.48007e-05
3.35702e-05
2.52228e-05
3.50698e-05
2.09623e-05
2.52481e-05
3.51888e-05
1.98806e-05
2.15321e-05
3.35672e-05
3.47963e-05
2.52182e-05
3.50685e-05
2.52455e-05
2.09626e-05
3.47298e-05
3.47293e-05
2.26919e-05
2.07266e-05
2.07267e-05
3.01019e-06
3.07462e-06
3.01456e-06
-2.48343e-07
-7.977e-08
-3.94385e-06
3.02369e-06
3.06329e-06
3.0069e-06
-2.55696e-07
1.16236e-06
5.59667e-06
5.59594e-06
1.64033e-06
6.10147e-06
5.97195e-07
5.97074e-07
2.00658e-06
2.9571e-06
4.84883e-06
1.68791e-06
4.10242e-06
5.23531e-06
-1.51278e-07
-9.14666e-08
-3.94306e-06
2.0042e-06
4.84692e-06
2.94841e-06
1.68562e-06
4.101e-06
-1.525e-07
5.23402e-06
-4.97281e-07
-4.98534e-07
1.09213e-06
2.93679e-06
2.93546e-06
5.74923e-05
5.74903e-05
5.779e-05
5.77021e-05
5.77006e-05
3.92662e-05
5.32787e-05
3.92605e-05
5.32763e-05
5.29831e-05
3.96486e-05
3.96451e-05
5.30278e-05
5.30256e-05
5.76416e-05
5.76576e-05
5.76894e-05
5.98748e-05
5.77388e-05
5.99138e-05
5.76894e-05
5.9874e-05
5.77381e-05
5.99139e-05
5.31025e-05
3.95745e-05
5.30801e-05
3.95551e-05
5.31028e-05
3.95713e-05
5.30792e-05
3.95542e-05
5.31019e-05
5.0979e-05
3.97003e-05
4.22028e-05
5.29998e-05
5.10297e-05
3.96538e-05
5.31019e-05
5.09771e-05
3.96987e-05
4.22028e-05
5.29991e-05
5.10298e-05
3.96528e-05
5.77888e-05
5.77019e-05
5.77003e-05
5.74902e-05
3.926e-05
5.32777e-05
5.29812e-05
3.96455e-05
3.96435e-05
5.30273e-05
5.30254e-05
3.92586e-05
5.32758e-05
5.76869e-05
5.98731e-05
5.77365e-05
5.99122e-05
5.7638e-05
5.76534e-05
5.76864e-05
5.98699e-05
5.99115e-05
5.77344e-05
5.30987e-05
3.95699e-05
5.30774e-05
3.95498e-05
5.30988e-05
5.09769e-05
3.96971e-05
4.22004e-05
5.29973e-05
5.10278e-05
3.96487e-05
5.30984e-05
3.95645e-05
5.30745e-05
3.95486e-05
5.30981e-05
5.09737e-05
4.21993e-05
3.96909e-05
5.10268e-05
5.29951e-05
3.96473e-05
5.76391e-05
5.76559e-05
5.76863e-05
5.9871e-05
5.99121e-05
5.77349e-05
5.76387e-05
5.76543e-05
5.30988e-05
5.0976e-05
3.96946e-05
4.21998e-05
5.29979e-05
5.10276e-05
3.96478e-05
5.30992e-05
3.95676e-05
5.3077e-05
3.95485e-05
5.30984e-05
5.09734e-05
4.21987e-05
3.96901e-05
5.10269e-05
5.29953e-05
3.96473e-05
5.30994e-05
3.95625e-05
5.3075e-05
3.95479e-05
5.77853e-05
5.76985e-05
5.76977e-05
5.74869e-05
3.9253e-05
5.32728e-05
5.29792e-05
3.96374e-05
3.96363e-05
5.30223e-05
5.30213e-05
3.92503e-05
5.32725e-05
5.76835e-05
5.98698e-05
5.99107e-05
5.77336e-05
5.76364e-05
5.76524e-05
5.76355e-05
5.76526e-05
5.30965e-05
5.09727e-05
4.21975e-05
3.96899e-05
5.10256e-05
5.2994e-05
3.96467e-05
5.30963e-05
5.09726e-05
4.21978e-05
3.96898e-05
5.10256e-05
5.29943e-05
3.96475e-05
5.30974e-05
3.9563e-05
5.30734e-05
3.95473e-05
5.30986e-05
3.95637e-05
5.30735e-05
3.95501e-05
5.7488e-05
5.7487e-05
5.29786e-05
3.96381e-05
3.96377e-05
5.30222e-05
5.30218e-05
3.92526e-05
5.32729e-05
3.92527e-05
5.32722e-05
3.52058e-05
1.98607e-05
3.51987e-05
1.98714e-05
3.47411e-05
3.47381e-05
2.26938e-05
2.07256e-05
2.07264e-05
-6.24724e-06
1.57813e-05
-6.23596e-06
1.57793e-05
1.81758e-05
1.9951e-06
1.99036e-06
1.51399e-05
1.51373e-05
2.10268e-05
3.48263e-05
3.4922e-05
2.04324e-05
2.1543e-05
3.48067e-05
3.35739e-05
2.52224e-05
3.50771e-05
2.09649e-05
2.52522e-05
2.15433e-05
3.48054e-05
3.35739e-05
2.52238e-05
3.50767e-05
2.09683e-05
2.52524e-05
1.63592e-05
2.15581e-06
1.4991e-05
4.91441e-06
1.63611e-05
2.15397e-06
1.50069e-05
4.91799e-06
1.7215e-05
1.74957e-05
4.42561e-06
1.07373e-05
1.57407e-05
1.75721e-05
6.16746e-06
1.72158e-05
1.74964e-05
4.425e-06
1.07374e-05
1.57468e-05
1.75724e-05
6.16832e-06
3.47376e-05
3.47358e-05
2.26953e-05
2.07315e-05
2.0727e-05
3.51968e-05
1.98695e-05
-6.25255e-06
1.57983e-05
1.81772e-05
1.99489e-06
1.99374e-06
1.51473e-05
1.51389e-05
-6.24955e-06
1.57825e-05
2.1537e-05
3.48041e-05
3.35704e-05
2.52225e-05
3.50717e-05
2.09618e-05
2.52484e-05
2.10188e-05
3.48194e-05
3.4916e-05
2.04285e-05
2.15366e-05
3.35701e-05
3.4798e-05
2.5217e-05
3.50706e-05
2.52484e-05
2.09648e-05
1.63503e-05
2.14456e-06
1.4994e-05
4.90293e-06
1.72083e-05
1.7496e-05
4.41873e-06
1.0734e-05
1.57369e-05
1.75686e-05
6.16092e-06
1.6351e-05
2.13751e-06
1.50002e-05
4.90682e-06
1.72085e-05
1.74906e-05
1.07343e-05
4.41546e-06
1.75686e-05
1.57418e-05
6.1611e-06
2.10154e-05
3.48233e-05
3.49146e-05
2.04224e-05
2.15332e-05
3.35692e-05
3.47964e-05
2.52183e-05
3.50695e-05
2.52476e-05
2.0963e-05
2.10139e-05
3.48161e-05
3.49144e-05
2.0427e-05
1.72057e-05
1.74954e-05
4.4195e-06
1.07333e-05
1.57383e-05
1.75679e-05
6.15967e-06
1.6347e-05
2.14287e-06
1.49958e-05
4.90005e-06
1.72053e-05
1.74906e-05
1.07334e-05
4.41984e-06
1.75678e-05
1.57397e-05
6.15989e-06
1.63469e-05
2.14428e-06
1.49965e-05
4.90328e-06
3.47304e-05
3.4728e-05
2.26906e-05
2.07308e-05
2.07287e-05
3.51843e-05
1.98828e-05
-6.27395e-06
1.57934e-05
1.81733e-05
1.98236e-06
1.98212e-06
1.51449e-05
1.51443e-05
-6.27167e-06
1.5804e-05
2.1532e-05
3.35677e-05
3.4796e-05
2.522e-05
3.50694e-05
2.5246e-05
2.09631e-05
2.10132e-05
3.48175e-05
3.49133e-05
2.04234e-05
2.10118e-05
3.48179e-05
3.49145e-05
2.0424e-05
1.72037e-05
1.74915e-05
1.07316e-05
4.41335e-06
1.75659e-05
1.57391e-05
6.15904e-06
1.72041e-05
1.74925e-05
1.07317e-05
4.4193e-06
1.75665e-05
1.57405e-05
6.15963e-06
1.63458e-05
2.13545e-06
1.49975e-05
4.8999e-06
1.63465e-05
2.14603e-06
1.49974e-05
4.90306e-06
3.51883e-05
1.98763e-05
3.51885e-05
1.98752e-05
1.81746e-05
1.99245e-06
1.9921e-06
1.51416e-05
1.51421e-05
-6.25986e-06
1.57909e-05
-6.26012e-06
1.57914e-05
-6.67604e-08
-3.9334e-06
-7.33394e-08
-3.94106e-06
-4.89434e-07
-4.89698e-07
1.09406e-06
2.94262e-06
2.94196e-06
6.235e-07
2.6341e-06
2.63258e-06
3.01246e-06
3.06099e-06
3.01595e-06
-2.54198e-07
2.00212e-06
2.96153e-06
4.85107e-06
1.68731e-06
4.10774e-06
5.24076e-06
-1.50959e-07
2.00216e-06
2.95923e-06
4.85099e-06
1.68626e-06
4.10823e-06
5.23773e-06
-1.51296e-07
1.84973e-06
8.16548e-07
2.78618e-06
-7.76856e-08
1.84978e-06
8.16141e-07
2.78193e-06
-7.73343e-08
-4.93327e-07
-4.9033e-07
1.09303e-06
2.94117e-06
2.93699e-06
-7.33526e-08
-3.94542e-06
6.2305e-07
2.62769e-06
2.62933e-06
2.00815e-06
2.95847e-06
4.84897e-06
1.68831e-06
4.104e-06
5.23915e-06
-1.51385e-07
3.02388e-06
3.05086e-06
3.0099e-06
-2.52804e-07
2.00764e-06
4.84867e-06
2.95221e-06
1.6847e-06
4.10396e-06
-1.51944e-07
5.23953e-06
1.85266e-06
8.17049e-07
2.78559e-06
-7.73809e-08
1.85227e-06
8.15775e-07
-7.68327e-08
2.78551e-06
1.16243e-06
5.59657e-06
5.59564e-06
1.64007e-06
6.10139e-06
5.97172e-07
5.97013e-07
1.16222e-06
5.59514e-06
5.59448e-06
1.63919e-06
6.10082e-06
5.96748e-07
5.96742e-07
1.16228e-06
5.59503e-06
5.59455e-06
1.63955e-06
6.10081e-06
5.96856e-07
5.96829e-07
3.49755e-07
1.45048e-06
1.8999e-07
1.90161e-07
3.49815e-07
1.45024e-06
1.901e-07
1.90075e-07
3.49696e-07
1.44998e-06
1.90131e-07
1.90203e-07
3.49748e-07
1.45e-06
1.90106e-07
1.90308e-07
3.02171e-06
3.05971e-06
3.00397e-06
-2.61189e-07
2.007e-06
4.84859e-06
2.95664e-06
1.68604e-06
4.10284e-06
-1.51381e-07
5.23589e-06
3.02368e-06
3.05721e-06
3.00651e-06
-2.56413e-07
1.85189e-06
8.16768e-07
2.78285e-06
-7.75079e-08
1.852e-06
8.15977e-07
-7.70774e-08
2.783e-06
-5.05009e-07
-5.0752e-07
1.09095e-06
2.94196e-06
2.93901e-06
-9.88033e-08
-3.95087e-06
6.22773e-07
2.63143e-06
2.62842e-06
2.00483e-06
4.84699e-06
2.95441e-06
1.68642e-06
4.10171e-06
-1.52374e-07
5.23521e-06
3.01811e-06
3.04847e-06
3.00222e-06
-2.66588e-07
3.02056e-06
3.05558e-06
3.00465e-06
-2.55258e-07
1.85075e-06
8.16114e-07
-7.72641e-08
2.78119e-06
1.85095e-06
8.16268e-07
-7.70449e-08
2.78142e-06
-8.05185e-08
-3.9464e-06
-8.29688e-08
-3.94708e-06
6.22642e-07
2.62803e-06
2.62673e-06
-3.28467e-06
-3.28416e-06
5.06365e-07
1.47676e-06
5.10876e-07
1.46807e-06
-3.29259e-06
-3.28786e-06
5.14706e-07
1.47566e-06
5.16898e-07
1.47484e-06
5.13454e-07
1.47215e-06
5.1739e-07
1.47239e-06
-3.28992e-06
-3.2933e-06
5.10263e-07
1.46797e-06
5.14956e-07
1.46943e-06
-3.29219e-06
-3.29468e-06
6.21045e-05
6.20923e-05
5.76272e-05
5.77043e-05
6.21064e-05
6.20311e-05
5.7625e-05
6.22344e-05
5.77211e-05
6.20737e-05
6.20214e-05
5.75045e-05
6.22246e-05
6.21021e-05
6.20898e-05
5.77009e-05
5.7624e-05
6.2029e-05
6.21037e-05
5.76216e-05
6.22328e-05
5.77193e-05
6.20721e-05
6.20202e-05
5.75016e-05
6.22215e-05
6.21055e-05
5.75676e-05
5.75673e-05
6.21395e-05
6.21391e-05
5.76044e-05
6.20418e-05
5.7633e-05
6.20312e-05
5.76485e-05
6.20856e-05
6.2086e-05
5.7688e-05
6.20413e-05
5.76324e-05
6.20302e-05
5.76481e-05
6.20847e-05
6.20852e-05
5.76881e-05
2.53347e-05
2.56414e-05
2.07292e-05
2.0977e-05
2.55013e-05
2.53851e-05
2.04151e-05
2.98481e-05
3.4689e-05
3.02616e-05
3.53043e-05
3.04907e-05
3.01785e-05
3.03521e-05
3.489e-05
3.47909e-05
3.48591e-05
3.02419e-05
3.04344e-05
2.6135e-05
2.09424e-05
2.5262e-05
2.51501e-05
1.99392e-05
2.98375e-05
2.584e-05
2.53261e-05
2.5635e-05
2.09708e-05
2.072e-05
2.53789e-05
2.54928e-05
2.04104e-05
2.98353e-05
3.46827e-05
3.02566e-05
3.5297e-05
3.04841e-05
3.01692e-05
3.03463e-05
3.47851e-05
3.48833e-05
3.48517e-05
3.04291e-05
3.02345e-05
2.61236e-05
2.09401e-05
2.52582e-05
2.51445e-05
1.99467e-05
2.98324e-05
2.58367e-05
2.53801e-05
2.01566e-05
2.0156e-05
2.5417e-05
2.5416e-05
2.0304e-05
3.04161e-05
3.50008e-05
3.48268e-05
3.03729e-05
3.48202e-05
3.04418e-05
3.0178e-05
3.04159e-05
3.49992e-05
3.48265e-05
3.03724e-05
3.48193e-05
3.04404e-05
3.01776e-05
3.01029e-05
3.49318e-05
3.49316e-05
3.48861e-05
3.00329e-05
3.0033e-05
2.54072e-05
2.03703e-05
2.51921e-05
2.11679e-05
2.57778e-05
2.52682e-05
2.09363e-05
2.54065e-05
2.03698e-05
2.51916e-05
2.11682e-05
2.57765e-05
2.52679e-05
2.09376e-05
1.76126e-05
2.66318e-06
1.76552e-05
4.28484e-06
2.74441e-05
6.74011e-06
-6.16192e-07
1.48022e-05
-5.86925e-06
7.01149e-06
2.62953e-05
2.75891e-06
2.20147e-06
1.48911e-06
1.07677e-05
7.72194e-06
2.51223e-06
1.01037e-06
2.97944e-06
7.64259e-06
3.15466e-06
-8.5549e-06
1.76453e-05
2.67469e-06
4.29406e-06
1.771e-05
6.75327e-06
2.74819e-05
-6.15347e-07
1.48134e-05
-5.86601e-06
7.02324e-06
2.62989e-05
2.76083e-06
1.4858e-06
2.17715e-06
1.07553e-05
2.51874e-06
7.71547e-06
1.01828e-06
2.9937e-06
7.65674e-06
2.56979e-06
2.58269e-06
1.11791e-06
1.11751e-06
2.57097e-06
2.57083e-06
1.0834e-06
1.12247e-06
1.74441e-06
7.45801e-07
7.45069e-07
1.319e-06
1.31882e-06
3.07281e-07
2.05906e-06
6.74898e-07
2.125e-06
7.30285e-07
2.19514e-06
2.03094e-06
6.79478e-07
2.05851e-06
6.7456e-07
2.1246e-06
7.30027e-07
2.19459e-06
2.03049e-06
6.79284e-07
2.31317e-06
2.41213e-06
4.07789e-06
1.2725e-06
3.8277e-06
1.83448e-06
1.57371e-06
2.73594e-06
2.016e-06
3.0406e-06
7.09116e-07
4.09932e-06
1.03186e-06
2.42139e-06
2.40864e-06
5.5411e-06
7.6288e-06
2.74567e-06
2.90565e-06
3.58449e-06
1.29946e-06
1.71764e-06
9.8227e-07
1.08091e-06
1.88385e-07
1.02233e-06
1.34218e-06
1.7063e-06
3.16886e-06
-8.55135e-06
2.31009e-06
2.40937e-06
1.27083e-06
4.07524e-06
1.83238e-06
3.82403e-06
1.57144e-06
2.73343e-06
2.01285e-06
7.07645e-07
3.03782e-06
1.02977e-06
4.09541e-06
2.4194e-06
1.71583e-06
9.81e-07
1.07816e-06
1.8714e-07
1.02005e-06
1.34032e-06
1.70469e-06
2.40483e-06
5.53893e-06
7.62536e-06
2.74389e-06
2.90155e-06
3.5796e-06
1.29697e-06
-4.90916e-07
1.42614e-05
1.428e-05
2.09644e-05
2.09821e-05
-1.39181e-06
2.3783e-06
2.52909e-06
2.42346e-06
1.92492e-06
1.72364e-06
2.27629e-06
8.72124e-06
2.37386e-06
2.52619e-06
2.4284e-06
1.92247e-06
1.71913e-06
2.27343e-06
8.71069e-06
1.91043e-06
1.55969e-06
8.86749e-07
8.86997e-07
1.90448e-06
1.90462e-06
2.70196e-06
-7.18289e-07
-8.04837e-07
-7.91815e-07
-4.80095e-07
2.70241e-05
2.7006e-05
4.88824e-06
1.0638e-05
3.92658e-06
-7.97189e-08
2.94668e-06
2.03789e-05
1.68949e-06
4.88727e-06
1.06271e-05
3.92276e-06
-7.82383e-08
2.94489e-06
2.0382e-05
1.68615e-06
6.22249e-05
6.22236e-05
6.21094e-05
5.75726e-05
5.75719e-05
6.21429e-05
6.21428e-05
5.76089e-05
6.20454e-05
5.76375e-05
6.20348e-05
5.7653e-05
6.20897e-05
5.76918e-05
6.20892e-05
6.20449e-05
5.76364e-05
6.20339e-05
5.76524e-05
6.2089e-05
5.76913e-05
6.20889e-05
4.42942e-05
4.84345e-05
4.42896e-05
4.84309e-05
4.85876e-05
5.31645e-05
5.31639e-05
5.31263e-05
4.85437e-05
4.85419e-05
4.39961e-05
3.96208e-05
4.3958e-05
3.95289e-05
4.40462e-05
4.41103e-05
3.96468e-05
4.39938e-05
3.962e-05
4.39549e-05
3.95241e-05
4.40428e-05
4.41087e-05
3.96451e-05
4.86966e-05
5.30975e-05
5.31127e-05
4.87125e-05
5.30461e-05
4.86294e-05
4.86567e-05
4.8696e-05
5.3096e-05
5.31113e-05
4.87097e-05
5.30448e-05
4.86271e-05
4.86551e-05
4.40853e-05
3.94118e-05
3.94072e-05
4.41286e-05
4.41262e-05
3.94656e-05
6.21045e-05
6.20925e-05
5.76272e-05
5.7704e-05
6.21067e-05
6.20312e-05
5.76248e-05
6.22352e-05
5.77221e-05
6.20737e-05
6.20223e-05
5.7504e-05
4.86105e-05
5.31147e-05
5.30297e-05
4.86346e-05
5.31115e-05
4.86119e-05
4.87157e-05
4.43348e-05
4.40281e-05
3.9698e-05
3.92585e-05
4.39194e-05
4.84393e-05
5.30059e-05
4.8657e-05
5.32984e-05
4.87419e-05
4.4058e-05
4.40624e-05
3.95102e-05
3.96539e-05
3.95029e-05
4.40643e-05
4.39709e-05
4.86102e-05
5.31148e-05
5.30297e-05
4.86344e-05
5.31113e-05
4.86116e-05
4.87159e-05
4.43353e-05
4.40258e-05
3.96954e-05
4.39185e-05
3.92585e-05
4.84376e-05
5.30058e-05
4.86557e-05
5.32984e-05
4.87419e-05
4.40584e-05
4.40624e-05
3.95096e-05
3.96526e-05
4.4064e-05
4.3971e-05
3.95042e-05
6.21091e-05
5.7572e-05
5.75717e-05
6.21427e-05
6.21422e-05
5.76081e-05
6.20458e-05
5.76375e-05
6.20344e-05
5.76512e-05
6.20897e-05
6.20885e-05
5.76928e-05
6.20446e-05
5.76358e-05
6.20335e-05
5.76517e-05
6.20877e-05
6.20886e-05
5.76908e-05
6.22236e-05
4.42907e-05
4.84329e-05
4.85868e-05
5.31638e-05
5.31631e-05
5.31255e-05
4.85423e-05
4.85415e-05
4.39962e-05
3.96195e-05
4.39559e-05
3.95264e-05
4.4109e-05
4.40446e-05
3.96453e-05
4.3994e-05
3.96171e-05
4.3954e-05
3.95219e-05
4.40415e-05
4.41069e-05
3.96455e-05
4.86973e-05
5.30973e-05
5.31116e-05
4.87112e-05
4.86548e-05
5.30469e-05
4.86287e-05
4.86947e-05
5.30955e-05
5.3112e-05
4.87093e-05
5.30436e-05
4.86262e-05
4.86558e-05
4.40841e-05
3.94113e-05
3.94049e-05
4.41278e-05
4.41244e-05
3.94638e-05
4.42887e-05
4.84297e-05
6.21013e-05
6.20894e-05
5.76235e-05
5.77001e-05
6.21034e-05
6.20279e-05
5.7621e-05
6.22314e-05
5.77166e-05
6.20701e-05
6.20179e-05
5.74997e-05
4.86054e-05
5.3025e-05
5.31109e-05
4.86302e-05
5.31076e-05
4.87112e-05
4.86074e-05
4.43308e-05
4.40243e-05
3.96935e-05
3.92529e-05
4.39158e-05
4.84344e-05
5.30029e-05
4.86537e-05
5.32951e-05
4.87387e-05
4.40529e-05
4.40576e-05
3.96487e-05
3.95045e-05
3.94968e-05
4.3966e-05
4.40591e-05
4.86048e-05
5.31105e-05
5.30249e-05
4.86293e-05
5.31068e-05
4.86069e-05
4.87098e-05
4.43282e-05
4.40198e-05
3.96895e-05
4.39124e-05
3.92474e-05
4.84327e-05
5.30005e-05
4.86502e-05
5.32938e-05
4.8736e-05
4.40512e-05
4.40569e-05
3.95035e-05
3.96464e-05
4.40585e-05
4.39648e-05
3.94951e-05
6.21024e-05
6.20901e-05
5.77009e-05
5.76246e-05
6.20289e-05
6.21041e-05
5.76222e-05
6.22327e-05
5.77196e-05
6.20722e-05
6.20208e-05
5.75023e-05
6.21025e-05
6.20901e-05
5.76243e-05
5.77016e-05
6.21041e-05
6.20289e-05
5.76226e-05
6.22324e-05
5.77186e-05
6.20707e-05
6.20194e-05
5.75013e-05
4.86054e-05
5.30255e-05
5.31114e-05
4.86305e-05
5.31078e-05
4.87107e-05
4.86079e-05
4.43285e-05
4.40225e-05
3.96897e-05
4.39137e-05
3.92498e-05
4.84349e-05
5.30032e-05
4.86528e-05
5.32952e-05
4.87381e-05
4.40513e-05
4.40573e-05
3.96457e-05
3.95037e-05
4.39647e-05
4.4059e-05
3.94941e-05
4.86085e-05
5.31114e-05
5.30266e-05
4.86302e-05
5.31095e-05
4.86077e-05
4.87122e-05
4.43347e-05
4.40188e-05
3.96884e-05
4.39132e-05
3.92545e-05
4.84364e-05
5.30016e-05
4.86502e-05
5.32958e-05
4.87375e-05
4.40569e-05
4.40572e-05
3.95039e-05
3.96456e-05
4.40592e-05
4.39657e-05
3.94999e-05
6.21063e-05
5.75678e-05
5.75682e-05
6.21397e-05
6.21395e-05
5.76048e-05
6.20426e-05
5.76331e-05
6.20318e-05
5.7649e-05
6.20862e-05
6.20861e-05
5.76884e-05
6.2042e-05
5.76329e-05
6.20311e-05
5.76486e-05
6.20858e-05
6.20859e-05
5.76886e-05
6.22209e-05
4.42841e-05
4.84271e-05
4.85804e-05
5.31591e-05
5.31586e-05
5.3121e-05
4.85352e-05
4.85353e-05
4.3988e-05
3.96136e-05
4.39484e-05
3.95149e-05
4.4103e-05
4.40354e-05
3.96375e-05
4.39875e-05
3.96132e-05
4.39476e-05
3.95152e-05
4.40354e-05
4.4103e-05
3.96385e-05
4.86905e-05
5.3092e-05
5.31087e-05
4.87048e-05
4.86502e-05
5.30414e-05
4.86215e-05
4.86898e-05
5.30915e-05
5.31076e-05
4.87045e-05
5.30403e-05
4.86212e-05
4.86514e-05
4.40763e-05
3.93967e-05
3.9398e-05
4.4118e-05
4.41177e-05
3.94557e-05
4.42829e-05
4.84255e-05
6.20992e-05
6.20873e-05
5.76982e-05
5.76214e-05
6.20263e-05
6.21007e-05
5.76188e-05
6.22301e-05
5.77168e-05
6.20691e-05
6.20175e-05
5.74982e-05
6.20946e-05
6.20861e-05
5.7698e-05
5.76167e-05
6.20252e-05
6.20964e-05
5.76146e-05
6.22289e-05
5.77159e-05
6.20689e-05
6.20168e-05
5.7498e-05
4.86037e-05
5.30226e-05
5.3109e-05
4.86291e-05
5.31051e-05
4.87084e-05
4.86064e-05
4.43278e-05
4.40186e-05
3.96889e-05
4.39118e-05
3.92485e-05
4.84319e-05
5.3e-05
4.86491e-05
5.32924e-05
4.87349e-05
4.40509e-05
4.40562e-05
3.96453e-05
3.95031e-05
4.39636e-05
4.40584e-05
3.94943e-05
4.86105e-05
5.30245e-05
5.31104e-05
4.86315e-05
5.31076e-05
4.87111e-05
4.8612e-05
4.43295e-05
4.40191e-05
3.96884e-05
4.39126e-05
3.92489e-05
4.84337e-05
5.29996e-05
4.86493e-05
5.32932e-05
4.8736e-05
4.40585e-05
4.40598e-05
3.96463e-05
3.95097e-05
4.39663e-05
4.40654e-05
3.95009e-05
6.22215e-05
6.22204e-05
4.85808e-05
5.31592e-05
5.31586e-05
5.31208e-05
4.85348e-05
4.85347e-05
4.39887e-05
3.96131e-05
4.39492e-05
3.95154e-05
3.96388e-05
4.41026e-05
4.40357e-05
4.39875e-05
3.96123e-05
4.39488e-05
3.95151e-05
3.96389e-05
4.41034e-05
4.40352e-05
4.8691e-05
5.3092e-05
5.31073e-05
4.87056e-05
5.30413e-05
4.86498e-05
4.86217e-05
4.86901e-05
5.30912e-05
5.31084e-05
4.87054e-05
5.30401e-05
4.86518e-05
4.8621e-05
4.40767e-05
3.9396e-05
3.93964e-05
3.9456e-05
4.41178e-05
4.41176e-05
4.42841e-05
4.84263e-05
4.42838e-05
4.8426e-05
2.98489e-05
2.58338e-05
2.98435e-05
2.58469e-05
2.53825e-05
2.01631e-05
2.01652e-05
2.54188e-05
2.54194e-05
2.0306e-05
3.04215e-05
3.5009e-05
3.484e-05
3.03813e-05
3.48281e-05
3.01828e-05
3.04493e-05
3.04221e-05
3.50067e-05
3.48359e-05
3.03799e-05
3.48269e-05
3.01828e-05
3.04471e-05
3.01075e-05
3.49433e-05
3.49403e-05
3.48946e-05
3.00264e-05
3.00311e-05
2.54111e-05
2.03713e-05
2.51959e-05
2.11694e-05
2.52705e-05
2.09381e-05
2.57833e-05
2.5411e-05
2.03738e-05
2.51969e-05
2.11702e-05
2.52749e-05
2.09385e-05
2.57813e-05
3.51105e-06
8.34518e-06
3.48609e-06
8.33412e-06
9.97459e-06
1.5225e-05
1.52185e-05
1.53314e-05
9.25792e-06
9.25532e-06
6.76064e-06
4.8857e-06
4.99587e-06
2.39711e-06
5.36029e-06
8.00636e-06
4.05135e-06
6.75713e-06
4.88275e-06
4.98801e-06
2.39623e-06
5.3577e-06
8.00248e-06
4.05021e-06
1.14753e-05
1.51646e-05
1.64765e-05
1.06421e-05
1.57487e-05
1.01564e-05
1.21078e-05
1.14744e-05
1.51612e-05
1.64761e-05
1.06355e-05
1.57468e-05
1.01517e-05
1.2107e-05
5.27415e-06
-2.35442e-06
-2.35754e-06
3.68721e-06
3.68746e-06
1.12337e-06
2.53292e-05
2.5641e-05
2.07286e-05
2.09782e-05
2.54997e-05
2.53842e-05
2.04151e-05
2.98408e-05
3.46844e-05
3.02563e-05
3.53064e-05
3.04869e-05
3.01785e-05
3.0351e-05
3.48892e-05
3.47893e-05
3.02405e-05
3.48604e-05
3.04323e-05
2.61057e-05
2.09473e-05
2.52584e-05
2.51468e-05
1.99524e-05
1.04792e-05
1.589e-05
1.58164e-05
1.20142e-05
1.53308e-05
1.11706e-05
1.17285e-05
4.74562e-06
4.71666e-06
1.93877e-06
-9.11239e-06
4.29877e-06
8.62213e-06
1.49937e-05
9.92325e-06
1.6593e-05
1.07984e-05
6.38024e-06
7.99808e-06
3.32358e-06
4.32386e-06
5.35783e-06
6.70588e-06
7.10959e-06
1.04871e-05
1.58926e-05
1.58202e-05
1.20174e-05
1.53373e-05
1.11784e-05
1.17309e-05
4.75267e-06
4.71776e-06
1.95501e-06
4.31221e-06
-9.0525e-06
8.63646e-06
1.50068e-05
9.93569e-06
1.66245e-05
1.0814e-05
6.38883e-06
8.00369e-06
3.33573e-06
4.32545e-06
6.72196e-06
7.11263e-06
5.36708e-06
2.53825e-05
2.01639e-05
2.0156e-05
2.54132e-05
2.54254e-05
2.03056e-05
3.04187e-05
3.50074e-05
3.48366e-05
3.03794e-05
3.01788e-05
3.48258e-05
3.04468e-05
3.04211e-05
3.50041e-05
3.4833e-05
3.03782e-05
3.04458e-05
3.48258e-05
3.01814e-05
3.01066e-05
3.49447e-05
3.49364e-05
3.0027e-05
3.48936e-05
3.00309e-05
2.54099e-05
2.03748e-05
2.51971e-05
2.11716e-05
2.52686e-05
2.57827e-05
2.09386e-05
2.54106e-05
2.037e-05
2.51962e-05
2.1171e-05
2.57804e-05
2.52766e-05
2.09398e-05
2.98412e-05
2.58452e-05
3.50989e-06
8.35574e-06
9.97933e-06
1.52236e-05
1.52212e-05
1.53336e-05
9.26567e-06
9.26075e-06
6.76364e-06
4.88772e-06
4.99889e-06
2.39661e-06
8.01104e-06
5.36797e-06
4.05086e-06
6.76456e-06
4.88543e-06
4.99269e-06
2.40684e-06
5.36992e-06
8.00645e-06
4.05736e-06
1.14781e-05
1.51691e-05
1.64819e-05
1.06487e-05
1.21132e-05
1.57511e-05
1.01637e-05
1.14809e-05
1.51622e-05
1.6478e-05
1.06407e-05
1.57496e-05
1.01587e-05
1.21112e-05
5.28212e-06
-2.34592e-06
-2.33962e-06
3.69971e-06
3.70218e-06
1.12887e-06
3.49275e-06
8.34765e-06
2.53272e-05
2.56342e-05
2.07196e-05
2.09714e-05
2.54919e-05
2.53791e-05
2.04146e-05
2.98261e-05
3.46782e-05
3.02498e-05
3.52908e-05
3.04805e-05
3.01691e-05
3.03448e-05
3.48823e-05
3.47834e-05
3.02333e-05
3.48499e-05
3.04269e-05
2.61194e-05
2.09452e-05
2.5254e-05
2.51432e-05
1.99667e-05
1.046e-05
1.58075e-05
1.58784e-05
1.20036e-05
1.53204e-05
1.17175e-05
1.11568e-05
4.69748e-06
4.69793e-06
1.92714e-06
-9.11668e-06
4.27748e-06
8.58382e-06
1.49896e-05
9.918e-06
1.65997e-05
1.07857e-05
6.36302e-06
7.98665e-06
4.31628e-06
3.30449e-06
5.34294e-06
7.09858e-06
6.69315e-06
1.04613e-05
1.58796e-05
1.58098e-05
1.20052e-05
1.53236e-05
1.11595e-05
1.17173e-05
4.74316e-06
4.70614e-06
1.93939e-06
4.29568e-06
-9.09587e-06
8.60771e-06
1.49977e-05
9.92604e-06
1.66008e-05
1.0798e-05
6.36515e-06
7.99025e-06
3.3175e-06
4.31551e-06
6.69901e-06
7.09791e-06
5.34663e-06
2.53185e-05
2.56309e-05
2.09683e-05
2.07143e-05
2.53752e-05
2.54878e-05
2.0404e-05
2.98294e-05
3.4679e-05
3.02542e-05
3.04798e-05
3.52913e-05
3.01635e-05
3.03427e-05
3.47818e-05
3.48813e-05
3.04244e-05
3.48471e-05
3.0231e-05
2.6112e-05
2.09373e-05
2.52564e-05
2.51409e-05
1.99377e-05
2.53179e-05
2.56303e-05
2.07122e-05
2.09674e-05
2.54905e-05
2.53736e-05
2.04009e-05
2.98097e-05
3.4674e-05
3.02466e-05
3.52778e-05
3.04743e-05
3.01611e-05
3.03418e-05
3.48823e-05
3.47798e-05
3.48479e-05
3.02328e-05
3.0422e-05
2.61205e-05
2.094e-05
2.52557e-05
2.51381e-05
1.99499e-05
1.04665e-05
1.58081e-05
1.58729e-05
1.20011e-05
1.53214e-05
1.17186e-05
1.1152e-05
4.70569e-06
4.70087e-06
1.92379e-06
4.28172e-06
-9.13614e-06
8.60378e-06
1.4992e-05
9.92165e-06
1.66104e-05
1.07908e-05
6.36601e-06
7.98426e-06
4.31423e-06
3.29538e-06
7.09936e-06
6.68681e-06
5.33513e-06
1.0467e-05
1.58703e-05
1.58063e-05
1.2002e-05
1.53186e-05
1.11576e-05
1.17154e-05
4.72164e-06
4.70659e-06
1.9397e-06
4.29301e-06
-9.09641e-06
8.61431e-06
1.49944e-05
9.92352e-06
1.66066e-05
1.07982e-05
6.36128e-06
7.98806e-06
3.31073e-06
4.31395e-06
6.6956e-06
7.09595e-06
5.34178e-06
2.53836e-05
2.01711e-05
2.01597e-05
2.54289e-05
2.54277e-05
2.0308e-05
3.04162e-05
3.50017e-05
3.4826e-05
3.03746e-05
3.01757e-05
3.48199e-05
3.04424e-05
3.04165e-05
3.49986e-05
3.48262e-05
3.03715e-05
3.04396e-05
3.48191e-05
3.01755e-05
3.01039e-05
3.49302e-05
3.49312e-05
3.00255e-05
3.48868e-05
3.00284e-05
2.54102e-05
2.03793e-05
2.51956e-05
2.11685e-05
2.52746e-05
2.57793e-05
2.09393e-05
2.54083e-05
2.03726e-05
2.5192e-05
2.11678e-05
2.5775e-05
2.52726e-05
2.09404e-05
2.98221e-05
2.58252e-05
3.50966e-06
8.35018e-06
9.97317e-06
1.52214e-05
1.52174e-05
1.53324e-05
9.25439e-06
9.26026e-06
6.75373e-06
4.87933e-06
4.98969e-06
2.38422e-06
8.00312e-06
5.35731e-06
4.03868e-06
6.75633e-06
4.87843e-06
4.98943e-06
2.38862e-06
5.36398e-06
8.00297e-06
4.04475e-06
1.14726e-05
1.51678e-05
1.64777e-05
1.06424e-05
1.21071e-05
1.57492e-05
1.01565e-05
1.14781e-05
1.51651e-05
1.64774e-05
1.06439e-05
1.57495e-05
1.01613e-05
1.21103e-05
5.26822e-06
-2.37406e-06
-2.36353e-06
3.68527e-06
3.69252e-06
1.10894e-06
3.49544e-06
8.36488e-06
2.53165e-05
2.56286e-05
2.09638e-05
2.07105e-05
2.53719e-05
2.54844e-05
2.03994e-05
2.98308e-05
3.46775e-05
3.02473e-05
3.04774e-05
3.52935e-05
3.01631e-05
3.03408e-05
3.4781e-05
3.48801e-05
3.04225e-05
3.48474e-05
3.02289e-05
2.61141e-05
2.09332e-05
2.52491e-05
2.51367e-05
1.99375e-05
2.53122e-05
2.56273e-05
2.09661e-05
2.07068e-05
2.53721e-05
2.54798e-05
2.04004e-05
2.98204e-05
3.46758e-05
3.02476e-05
3.52894e-05
3.04765e-05
3.01604e-05
3.03396e-05
3.47806e-05
3.48859e-05
3.48519e-05
3.04214e-05
3.02277e-05
2.61068e-05
2.09395e-05
2.52509e-05
2.51373e-05
1.99498e-05
1.0467e-05
1.58046e-05
1.58708e-05
1.20013e-05
1.5311e-05
1.17173e-05
1.11574e-05
4.72793e-06
4.70361e-06
1.92189e-06
4.2866e-06
-9.14673e-06
8.61378e-06
1.49871e-05
9.92547e-06
1.65744e-05
1.07896e-05
6.36802e-06
7.98503e-06
4.31221e-06
3.29623e-06
7.0991e-06
6.69148e-06
5.33027e-06
1.04751e-05
1.58071e-05
1.58716e-05
1.20029e-05
1.53242e-05
1.17165e-05
1.11621e-05
4.72853e-06
4.71009e-06
1.93388e-06
4.2945e-06
-9.12078e-06
8.62861e-06
1.49973e-05
9.92709e-06
1.66161e-05
1.08019e-05
6.36384e-06
7.98879e-06
4.31185e-06
3.31027e-06
7.09653e-06
6.69902e-06
5.3297e-06
2.98303e-05
2.58342e-05
2.98304e-05
2.58338e-05
9.97826e-06
1.5214e-05
1.52134e-05
1.53309e-05
9.26658e-06
9.26719e-06
6.76306e-06
4.88414e-06
4.99601e-06
2.39944e-06
4.05013e-06
8.00685e-06
5.37156e-06
6.76156e-06
4.88378e-06
4.99619e-06
2.40117e-06
4.05092e-06
8.00665e-06
5.3721e-06
1.14779e-05
1.51622e-05
1.64775e-05
1.06445e-05
1.57481e-05
1.21096e-05
1.0162e-05
1.14786e-05
1.51623e-05
1.64781e-05
1.06451e-05
1.57476e-05
1.2111e-05
1.01619e-05
5.27962e-06
-2.35412e-06
-2.34828e-06
1.12118e-06
3.70679e-06
3.70731e-06
3.51378e-06
8.34652e-06
3.51601e-06
8.34829e-06
3.15227e-06
-8.56642e-06
3.16653e-06
-8.55091e-06
-4.89216e-07
1.42718e-05
1.42667e-05
2.09548e-05
2.09654e-05
-1.39554e-06
2.3852e-06
2.53351e-06
2.4381e-06
1.93043e-06
1.73097e-06
8.7256e-06
2.28137e-06
2.38444e-06
2.53037e-06
2.43968e-06
1.9327e-06
1.72718e-06
8.72525e-06
2.28092e-06
1.91488e-06
1.5618e-06
8.88483e-07
8.89236e-07
2.70446e-06
1.90829e-06
1.90946e-06
-7.04172e-07
-7.43469e-07
-7.5003e-07
-4.62617e-07
2.69823e-05
2.70202e-05
4.89118e-06
1.06513e-05
3.92629e-06
-8.15316e-08
2.03794e-05
1.69079e-06
2.94987e-06
4.89296e-06
1.06557e-05
3.92977e-06
-7.74314e-08
2.03747e-05
1.68752e-06
2.95184e-06
1.2095e-05
1.20739e-05
-4.93453e-06
5.48808e-07
5.48942e-07
5.38454e-06
7.61416e-06
-2.52357e-06
1.36343e-07
7.61307e-06
-2.52186e-06
1.31436e-07
1.76035e-05
2.66061e-06
1.76327e-05
4.27305e-06
2.74489e-05
6.72576e-06
-6.02011e-07
1.47992e-05
-5.83737e-06
7.00729e-06
2.62654e-05
2.75593e-06
2.2096e-06
1.4946e-06
7.72339e-06
1.07768e-05
2.51518e-06
1.01018e-06
2.98272e-06
7.63103e-06
2.31276e-06
2.40973e-06
4.07391e-06
1.27109e-06
3.82472e-06
1.83504e-06
1.5715e-06
2.73722e-06
2.01518e-06
3.04083e-06
7.09545e-07
1.03233e-06
4.10074e-06
2.42208e-06
2.40864e-06
5.53976e-06
7.62612e-06
2.74519e-06
3.58223e-06
2.90582e-06
1.29819e-06
1.71819e-06
9.81575e-07
1.08214e-06
1.8898e-07
1.02317e-06
1.34233e-06
1.70622e-06
2.31057e-06
2.4097e-06
4.06868e-06
1.27143e-06
3.81937e-06
1.83568e-06
1.56948e-06
2.73701e-06
2.01436e-06
3.03894e-06
7.09482e-07
2.42145e-06
4.09903e-06
1.03225e-06
2.40975e-06
5.53948e-06
7.62664e-06
2.74281e-06
3.58223e-06
1.29773e-06
2.90369e-06
1.71777e-06
9.81492e-07
1.08095e-06
1.88574e-07
1.34197e-06
1.70574e-06
1.02223e-06
4.73578e-06
9.00955e-07
7.73218e-07
1.72875e-06
1.26538e-07
1.43418e-06
4.05606e-06
1.6352e-06
6.6561e-07
1.23206e-06
3.05344e-07
1.79719e-06
4.7313e-06
9.00723e-07
7.72549e-07
1.72828e-06
1.26505e-07
1.43375e-06
4.05788e-06
1.63407e-06
6.64617e-07
1.23212e-06
3.05381e-07
1.79697e-06
-4.94878e-07
1.42942e-05
1.42886e-05
2.09453e-05
2.09741e-05
-1.40226e-06
2.3801e-06
2.53369e-06
2.43293e-06
1.92655e-06
8.71561e-06
1.72733e-06
2.27869e-06
2.38167e-06
2.52908e-06
2.44075e-06
1.93068e-06
2.27773e-06
1.72946e-06
8.7237e-06
1.91096e-06
1.56086e-06
8.85976e-07
8.87723e-07
1.90708e-06
1.90493e-06
2.70133e-06
-7.08521e-07
-7.59416e-07
-7.59715e-07
2.70186e-05
-4.62643e-07
2.70242e-05
4.88698e-06
1.06446e-05
3.92839e-06
-8.00397e-08
2.03708e-05
2.94748e-06
1.68284e-06
4.8865e-06
1.06418e-05
3.92546e-06
-8.12701e-08
2.94713e-06
2.03775e-05
1.68726e-06
3.16404e-06
-8.55906e-06
1.20943e-05
1.2072e-05
-4.93728e-06
5.48038e-07
5.48393e-07
5.3826e-06
7.61037e-06
-2.52247e-06
1.30765e-07
7.59498e-06
-2.52343e-06
1.31482e-07
2.31432e-06
2.41399e-06
4.08079e-06
1.27308e-06
3.8307e-06
1.83534e-06
1.57475e-06
2.73723e-06
2.01585e-06
3.04162e-06
7.09689e-07
1.03201e-06
4.10112e-06
2.42265e-06
2.41096e-06