/*--------------------------------*- C++ -*----------------------------------*\
| =========                 |                                                 |
| \\      /  F ield         | OpenFOAM: The Open Source CFD Toolbox           |
|  \\    /   O peration     | Version:  v2006                                 |
|   \\  /    A nd           | Website:  www.openfoam.com                      |
|    \\/     M anipulation  |                                                 |
\*---------------------------------------------------------------------------*/
FoamFile
{
    version     2.0;
    format      ascii;
    class       surfaceScalarField;
    location    "125";
    object      phi;
}
// * * * * * * * * * * * * * * * * * * * * * * * * * * * * * * * * * * * * * //

dimensions      [0 3 -1 0 0 0 0];
oriented        oriented;


internalField   nonuniform List<scalar> 
41864
(
8.79495e-07
8.75953e-07
-0.00116431
-7.69976e-07
-7.64385e-07
0.00116409
-0.001145
-1.15098e-06
-8.81264e-07
-3.55037e-07
0.00114537
-1.55951e-07
1.40769e-06
3.19795e-07
1.03038e-06
-1.09817e-07
-7.74512e-07
2.98202e-07
-0.00114491
-1.14528e-06
-8.87378e-07
-3.55714e-07
0.00114528
-1.58528e-07
1.40797e-06
3.25539e-07
1.02768e-06
-1.09728e-07
-7.71758e-07
2.98293e-07
-0.000275752
1.18317e-06
1.14285e-06
-1.20556e-07
-1.2815e-07
0.000273675
5.43644e-06
5.42917e-06
-0.00115054
-1.12689e-05
-1.12121e-05
0.000279268
0.000282629
0.000281823
0.000281824
4.43829e-06
6.74418e-06
7.12169e-06
4.4365e-06
6.74205e-06
7.12508e-06
-0.000283102
5.35676e-06
-5.43441e-06
5.92378e-06
-3.41744e-06
0.000280673
-0.000283099
-5.43462e-06
5.35712e-06
-3.42028e-06
5.92375e-06
0.000280673
-0.000276711
-5.3561e-06
-5.37038e-06
5.86588e-06
5.85618e-06
0.000275716
-1.35051e-06
-1.30735e-06
0.000275797
-0.000273658
2.55255e-07
2.63393e-07
0.00114439
-3.5454e-07
-0.00114424
-1.59652e-07
-1.24096e-06
2.74061e-07
-1.99573e-07
-8.30312e-07
2.31667e-07
-1.53778e-07
9.32868e-07
1.34775e-06
0.00114452
-3.60286e-07
-0.00114436
-1.65201e-07
-1.23836e-06
2.76873e-07
-2.02462e-07
-8.35525e-07
2.34494e-07
-1.56481e-07
9.38314e-07
-1.30993e-06
0.000275784
-0.000273648
2.58126e-07
2.63108e-07
0.00114541
-3.61788e-07
-0.00114525
-1.64955e-07
-1.19798e-06
2.68609e-07
-1.96922e-07
-8.29806e-07
2.32028e-07
-1.535e-07
9.3317e-07
1.34488e-06
0.00114443
-3.60858e-07
-0.00114426
-1.65686e-07
-1.2357e-06
2.74246e-07
-2.02297e-07
-8.32669e-07
2.31875e-07
-1.5632e-07
9.35673e-07
-3.61543e-07
-0.00114484
-1.53761e-07
-1.20052e-06
2.68603e-07
-1.96932e-07
-8.29841e-07
2.34704e-07
9.33174e-07
-1.58991e-07
1.34198e-06
0.0011441
-3.71922e-07
-0.00114393
-1.59964e-07
-1.23261e-06
2.7139e-07
-1.96646e-07
-8.24511e-07
2.31807e-07
-1.53575e-07
9.27343e-07
-1.30707e-06
0.000275769
-0.000273638
2.5819e-07
2.63117e-07
-3.619e-07
-0.00114476
-1.59983e-07
-1.19781e-06
2.68805e-07
-1.93884e-07
-8.24283e-07
2.34809e-07
9.30461e-07
-1.56099e-07
1.30163e-06
0.00114508
-3.61908e-07
-0.00114493
-1.65253e-07
-1.18683e-06
2.68662e-07
-1.91263e-07
-8.26832e-07
2.34848e-07
-1.58855e-07
9.33003e-07
-0.000273622
2.52626e-07
2.6072e-07
1.19135e-06
1.14834e-06
-1.23217e-07
-1.3075e-07
0.000273711
-5.53566e-06
-5.57817e-06
0.000276725
-0.000274667
4.52977e-06
4.52565e-06
-3.55522e-07
0.00114476
-1.64336e-07
1.44554e-06
3.27998e-07
1.03274e-06
-1.10254e-07
-7.75093e-07
3.00523e-07
-1.18887e-06
-8.79387e-07
-3.6084e-07
0.00114489
-1.64408e-07
1.44823e-06
3.3089e-07
1.03266e-06
-1.10148e-07
-7.77507e-07
3.00606e-07
0.000283066
-1.42725e-05
-0.00114501
-6.82478e-06
1.38984e-06
4.25055e-06
2.04373e-06
2.26412e-06
6.1847e-06
2.90732e-06
6.70336e-06
0.000285819
0.000281328
0.000284611
5.54676e-06
0.000283071
-1.42356e-05
-0.00114513
-6.90154e-06
1.39817e-06
4.27294e-06
2.05754e-06
2.27153e-06
6.21029e-06
2.91988e-06
6.71295e-06
0.00028587
0.00028133
0.000284609
-1.28509e-07
-1.30696e-07
0.000273703
-5.55852e-06
0.000276715
-0.000274662
4.52965e-06
4.52279e-06
-3.49315e-07
0.00114576
-1.56097e-07
1.40798e-06
3.25341e-07
1.03029e-06
-1.09865e-07
-7.74525e-07
3.00931e-07
-1.18327e-06
-8.85899e-07
-3.66973e-07
0.0011448
-1.58583e-07
1.443e-06
3.28208e-07
1.03278e-06
-1.07186e-07
-7.74739e-07
3.00734e-07
0.000283129
-1.41302e-05
-0.00114584
-6.58579e-06
1.45839e-06
4.27602e-06
2.06595e-06
2.27313e-06
6.20121e-06
2.91579e-06
6.7151e-06
0.000285914
0.000281378
0.000284656
5.54946e-06
0.000283071
-1.42501e-05
-0.00114509
-6.93297e-06
1.39791e-06
4.27309e-06
2.05767e-06
2.27438e-06
6.21316e-06
2.92274e-06
6.71316e-06
0.000281324
0.00028587
0.000284609
-8.79842e-07
-3.72416e-07
0.00114447
-1.58475e-07
1.44253e-06
3.25445e-07
1.02718e-06
-1.09891e-07
3.00736e-07
-7.69298e-07
-1.41597e-05
-0.0011455
-6.61677e-06
1.44752e-06
4.2532e-06
2.05446e-06
2.26517e-06
6.16941e-06
6.69887e-06
2.90267e-06
0.000285838
0.000281365
0.000284625
5.54073e-06
0.000283045
-1.43027e-05
-0.00114481
-6.91842e-06
1.39797e-06
4.25583e-06
2.049e-06
2.26917e-06
6.18413e-06
2.9097e-06
6.69972e-06
0.000281303
0.000285794
0.00028458
-1.25784e-07
-1.30574e-07
0.000273697
-5.56405e-06
0.000276714
-0.000274656
4.53244e-06
4.52285e-06
-8.87382e-07
-3.60726e-07
0.00114546
-1.5585e-07
1.39949e-06
3.22797e-07
1.03023e-06
-1.09679e-07
3.01042e-07
-7.74258e-07
-1.41764e-05
-0.00114546
-6.64862e-06
1.44734e-06
4.25618e-06
2.05469e-06
2.26519e-06
6.17206e-06
6.69893e-06
2.90011e-06
0.000281356
0.000285839
0.000284628
5.58335e-06
0.000283109
-1.41736e-05
-0.00114562
-6.68534e-06
1.46388e-06
4.28129e-06
2.06854e-06
2.27253e-06
6.19779e-06
2.91539e-06
6.71381e-06
0.000281357
0.000285888
0.000284623
-0.000274648
4.53488e-06
4.52534e-06
-5.35381e-06
-5.36514e-06
5.86344e-06
5.85118e-06
0.00027573
5.92321e-06
-3.42572e-06
0.000280652
5.36717e-06
-5.43615e-06
5.93376e-06
-3.43927e-06
0.000280646
5.83281e-06
5.88138e-06
0.000275724
5.92929e-06
-3.41736e-06
0.000280682
-5.43652e-06
5.36737e-06
-3.44205e-06
5.93398e-06
0.000280648
-0.00115048
-1.13216e-05
-1.12116e-05
0.000279265
0.000282623
0.000281818
0.00028182
4.43926e-06
6.74467e-06
7.12505e-06
4.43808e-06
6.74381e-06
7.12429e-06
-0.00115045
-1.13417e-05
-1.12406e-05
0.000279265
0.000282623
0.000281827
0.000281823
4.43925e-06
6.7448e-06
7.12519e-06
4.44111e-06
6.747e-06
7.12451e-06
5.44468e-06
5.43162e-06
-0.00115042
-1.13386e-05
-1.12793e-05
0.000279262
0.000282623
0.00028182
0.000281824
4.44665e-06
6.74695e-06
7.12449e-06
4.44187e-06
6.74453e-06
7.12776e-06
-3.4365e-06
5.92865e-06
0.000280641
5.83311e-06
5.88151e-06
0.000275724
-3.43374e-06
5.93164e-06
0.000280673
-8.99106e-11
-2.35789e-08
0.000232561
-0.000232558
3.68199e-08
-1.59097e-08
-2.24647e-08
5.18812e-08
0.000194372
1.54464e-08
-0.000194417
2.22994e-08
1.0343e-07
9.78267e-05
-9.79524e-05
-2.6134e-08
-5.85973e-11
0.000232556
-0.000232551
-1.58426e-08
3.69305e-08
-2.24919e-08
4.96227e-08
0.000194349
1.56173e-08
-0.000194392
-0.00116451
-2.57878e-07
-2.57454e-07
0.00116413
-0.00116434
-2.57642e-07
-2.5748e-07
0.00116395
-0.00116414
-2.69531e-07
-2.63735e-07
0.00116396
-0.00116416
-2.63802e-07
-2.63512e-07
2.61189e-08
-1.59232e-09
0.00025616
-0.000256003
-6.2554e-09
-1.74984e-07
-2.77845e-08
1.27074e-06
0.00114474
-6.78836e-08
-8.74754e-07
2.10894e-07
-1.98856e-07
8.95783e-07
-1.24246e-06
2.48841e-07
-2.36414e-07
-0.00114472
-3.61264e-08
-5.18601e-08
0.000248896
1.89401e-08
-0.000248777
-5.08202e-08
-3.10419e-09
0.00115246
-4.91675e-08
-9.74669e-07
8.11919e-07
-8.00127e-07
9.85181e-07
-0.00115246
2.23036e-08
1.03406e-07
9.7822e-05
-9.79477e-05
-8.14121e-10
2.36696e-08
0.000256155
-0.000255996
-1.75042e-07
-6.42575e-09
-2.23906e-08
1.26806e-06
0.00114464
-6.82471e-08
-8.7469e-07
2.08199e-07
-1.98795e-07
8.93114e-07
-1.23947e-06
2.48918e-07
-2.33548e-07
-0.00114462
-3.64427e-09
0.00115232
-4.94745e-08
-9.74645e-07
8.11974e-07
-8.00123e-07
9.85281e-07
-0.00115231
-3.61723e-08
-4.97177e-08
0.000248891
1.63805e-08
-0.000248769
-5.31928e-08
-1.30022e-06
-1.25699e-06
0.000275679
-0.000273591
2.31789e-07
2.37271e-07
3.60665e-08
-1.0587e-07
0.000280415
-3.42353e-08
-0.000280337
2.53143e-08
3.61941e-08
-1.0575e-07
0.000280333
-3.37386e-08
-0.000280255
2.52098e-08
1.30606e-09
-2.35106e-07
0.000232875
-0.000232778
1.27631e-07
8.48865e-09
-0.000194377
5.4351e-08
-9.53296e-08
-3.73972e-08
0.000194455
-0.000232588
2.17647e-10
-3.29433e-08
0.000232637
-3.9334e-08
2.31651e-08
-7.49053e-08
3.39502e-08
0.000194544
2.76504e-08
-0.000194531
-9.77858e-05
-5.2968e-08
-1.89007e-07
9.80277e-05
7.329e-08
2.44872e-07
9.77796e-05
-9.80977e-05
-2.32877e-07
1.54938e-09
0.000232868
-0.000232774
8.5341e-09
1.28068e-07
-0.000194352
5.28998e-08
-9.79022e-08
-3.69553e-08
0.000194434
-0.000232581
-3.54865e-08
5.20487e-10
0.000232635
2.28629e-08
-4.16008e-08
-7.4096e-08
3.60387e-08
0.000194522
2.76234e-08
-0.000194512
-7.75275e-07
-7.70014e-07
0.00116391
-7.81652e-07
-7.76438e-07
0.00116374
-7.87192e-07
-7.87403e-07
0.00116376
-0.00115999
-9.55381e-06
-9.39775e-06
-0.00115984
-9.59265e-06
-9.44242e-06
-0.00115977
-9.63271e-06
-9.47719e-06
-0.00115979
-9.62682e-06
-9.47681e-06
2.32896e-07
1.07642e-09
0.000256569
-0.000256259
4.87265e-08
-5.92619e-07
-0.000248947
7.04756e-08
9.78694e-08
-1.71309e-08
-3.69781e-08
0.000248832
0.00115276
-0.0011526
1.59823e-08
-1.24019e-06
1.17495e-06
-6.5929e-07
-8.38369e-07
1.02436e-06
-1.12736e-06
1.80049e-06
0.00114582
-2.45186e-06
-5.45744e-07
6.35104e-07
9.444e-08
1.43466e-06
-9.30581e-07
6.06005e-07
3.01256e-08
-0.0002562
3.29726e-08
2.2594e-09
0.000256092
1.60781e-08
5.68793e-08
1.70794e-08
-3.60333e-08
0.000249369
-8.18736e-08
-0.000249
-2.6815e-07
2.65974e-08
0.00115269
-3.12081e-06
-6.10936e-07
1.46743e-06
-4.19386e-07
1.59865e-06
-9.77811e-05
-5.29417e-08
-1.88918e-07
9.8023e-05
7.33263e-08
2.44589e-07
9.7775e-05
-9.80929e-05
1.03018e-09
2.3295e-07
0.000256565
-0.000256255
-5.92673e-07
4.95856e-08
0.00115264
-0.00115246
5.86507e-09
-1.24636e-06
1.17234e-06
-6.5365e-07
-8.32769e-07
1.02173e-06
-0.000248944
6.58775e-08
9.80163e-08
-1.45415e-08
-3.71416e-08
0.000248832
-1.1448e-06
1.79816e-06
0.00114575
-2.45799e-06
-5.43086e-07
6.35128e-07
9.45233e-08
1.4346e-06
-9.27333e-07
6.06098e-07
3.02433e-08
-0.000256196
1.01581e-09
3.3027e-08
0.000256088
5.68366e-08
1.67438e-08
2.70472e-09
0.00115259
-3.13244e-06
-6.0805e-07
1.46748e-06
-4.1931e-07
1.59878e-06
1.48144e-08
-3.59144e-08
0.000249366
-8.21046e-08
-0.000248997
-2.65775e-07
-0.000280477
-6.85208e-08
1.88691e-07
-7.52336e-08
6.61707e-08
0.000280366
-0.000280392
-7.07229e-08
1.88731e-07
-7.53547e-08
6.59324e-08
0.000280284
-1.82702e-06
-1.79257e-06
0.000276163
-0.000273845
6.49245e-07
6.52573e-07
-1.48765e-08
-2.44919e-07
0.000280899
-5.85538e-08
-0.00028049
-9.13489e-08
-1.48464e-08
-2.42438e-07
0.000280817
-5.84717e-08
-0.00028041
-9.14153e-08
6.4249e-09
-1.69467e-06
5.94982e-05
-5.94358e-05
1.47183e-06
1.5399e-07
-0.000200868
8.61659e-06
-1.12246e-05
-2.81692e-06
0.000206293
-0.000234791
2.18341e-08
-4.27049e-06
0.000234585
3.65489e-06
7.99975e-07
2.35104e-07
-1.3473e-06
5.72021e-05
-4.92133e-07
-5.56622e-05
3.81722e-08
7.65703e-08
1.17288e-08
-7.01038e-08
-9.60615e-09
-9.72735e-08
1.1488e-07
-0.000104438
-8.62439e-06
-2.23325e-05
1.89161e-05
4.18555e-05
3.5656e-05
3.8967e-05
-2.35692e-07
-4.43815e-07
1.33121e-05
1.10186e-07
-1.28916e-05
1.48829e-07
-1.69475e-06
5.41319e-09
5.94992e-05
-5.94364e-05
1.54641e-07
1.47191e-06
-0.00020085
8.61392e-06
-1.12259e-05
-2.81611e-06
0.000206278
-0.000234782
-4.27339e-06
2.16837e-08
0.000234582
8.00292e-07
3.65136e-06
2.35626e-07
-1.34727e-06
5.71973e-05
-4.92029e-07
-5.56579e-05
3.7571e-08
7.65618e-08
1.17271e-08
-6.95848e-08
-9.58504e-09
-9.73248e-08
1.1489e-07
8.0961e-10
1.97426e-09
0.000278506
-0.000279259
3.74704e-07
3.7579e-07
-1.08981e-05
2.24472e-05
3.07423e-08
0.000280402
0.000281573
0.000282467
0.000279688
-0.00114698
-1.09132e-05
2.24546e-05
7.08968e-08
0.000280399
0.000281576
0.000282469
0.000279686
-0.00114695
2.97003e-06
2.97312e-06
0.000276746
-0.000278808
-1.94051e-06
-1.94024e-06
1.73068e-08
4.64399e-08
0.000281338
0.000280164
0.000280712
0.000280718
-0.00114481
2.20068e-06
2.36893e-09
0.000277871
-1.31963e-06
-0.000279306
5.51386e-07
2.20104e-06
3.60248e-09
0.000277871
-1.31998e-06
-0.000279307
5.50584e-07
1.69478e-06
1.81214e-08
0.000255863
-0.000258334
1.28426e-06
-5.91126e-06
1.69777e-06
1.87113e-06
1.81574e-06
-0.000251935
6.08244e-06
1.12238e-05
-8.52098e-06
-3.82803e-06
0.000246978
-0.00114604
-2.24602e-05
8.532e-08
0.000282193
0.000278752
0.000280312
0.000282052
9.59481e-06
5.96671e-06
6.80613e-06
9.42648e-06
4.18971e-06
1.98471e-06
2.81885e-06
4.31541e-06
3.26632e-06
-2.97594e-06
0.000272922
-0.00027506
4.116e-06
-2.26771e-06
-0.000258343
4.26865e-06
2.06497e-08
0.000258554
1.04806e-06
-5.54828e-06
8.20828e-07
1.34732e-06
6.1376e-05
-7.47841e-07
-6.10717e-05
-1.7246e-06
-2.20108e-06
4.53765e-09
0.000275727
3.03352e-06
-0.000277249
6.85159e-07
-0.000104433
-8.62394e-06
-2.23312e-05
1.89168e-05
4.18526e-05
3.56525e-05
3.89663e-05
-2.35686e-07
-4.43777e-07
1.33112e-05
1.10695e-07
-1.28912e-05
1.488e-07
1.7737e-08
1.69479e-06
0.000255863
-0.000258335
-5.91128e-06
1.28477e-06
1.69777e-06
1.87113e-06
1.81695e-06
-0.00114601
-2.24712e-05
5.49847e-08
0.000282198
0.000278749
0.000280307
0.000282054
9.59768e-06
5.96944e-06
6.8061e-06
9.42648e-06
4.18988e-06
1.99065e-06
2.81918e-06
4.32118e-06
-0.000251932
6.08302e-06
1.12238e-05
-8.52345e-06
-3.82843e-06
0.000246977
-2.97615e-06
3.26929e-06
0.000272922
-0.000275063
-2.26796e-06
4.11618e-06
-0.000258341
1.98259e-08
4.26862e-06
0.000258555
-5.55092e-06
1.04856e-06
-2.20124e-06
3.54285e-09
0.000275727
3.0363e-06
-0.000277251
6.85874e-07
8.20853e-07
1.34739e-06
6.13759e-05
-7.47907e-07
-6.10716e-05
-1.72464e-06
-0.000287563
-6.09506e-06
2.23308e-05
-7.08818e-06
-1.74334e-06
0.000280159
-0.000287495
-6.09737e-06
2.23307e-05
-7.11197e-06
-1.74193e-06
0.000280115
-3.26943e-06
-3.27199e-06
0.000268306
-0.000270333
4.28558e-06
4.28328e-06
-8.20942e-07
4.43797e-07
5.99318e-05
7.9366e-07
-5.90818e-05
-1.78954e-06
3.36208e-07
7.52652e-08
1.11532e-07
-8.1974e-07
4.43812e-07
5.99316e-05
7.93634e-07
-5.90832e-05
-1.78967e-06
3.36762e-07
7.52803e-08
1.11543e-07
1.05823e-07
9.78439e-05
-9.79722e-05
1.03426e-07
9.78325e-05
-9.79584e-05
0.000275729
-1.30837e-06
-1.2652e-06
-0.000273625
2.31796e-07
2.37217e-07
0.000280445
3.60174e-08
-3.41484e-08
-0.000280366
2.53892e-08
0.000280363
3.61011e-08
-3.09669e-08
-0.000280293
2.77701e-08
1.63179e-07
4.32642e-08
9.78012e-05
-9.80077e-05
-1.15843e-07
-2.73345e-08
9.79871e-05
1.62919e-07
4.33712e-08
9.77916e-05
-9.79979e-05
-1.13549e-07
-2.73406e-08
9.79734e-05
1.28382e-06
1.23811e-06
0.000273632
-2.11059e-07
-2.13561e-07
4.47793e-08
0.000280506
3.03105e-08
-0.000280368
-5.02529e-08
4.71352e-08
0.000280425
3.26755e-08
-0.000280294
-4.7629e-08
-4.35311e-08
3.83149e-08
-3.41792e-08
0.000280368
-4.11429e-08
3.83068e-08
-3.43958e-08
0.000280287
-2.36601e-08
0.000232522
-0.000232518
3.50926e-08
-1.57687e-08
4.96189e-08
0.00019431
1.53824e-08
-0.000194352
-9.04911e-10
0.000256163
-0.000256007
-6.91533e-09
-1.72343e-07
-2.7664e-08
0.00114414
-6.12178e-08
-1.28022e-06
2.54418e-07
-2.39165e-07
-8.77791e-07
2.10663e-07
-2.01838e-07
8.95687e-07
-0.00114412
0.000248893
1.62243e-08
-0.00024877
-5.06533e-08
-3.53998e-09
0.00115267
-4.30113e-08
-9.80472e-07
8.1752e-07
-8.05842e-07
9.90893e-07
-0.00115267
0.000256135
-0.000255979
-5.69545e-09
-1.74971e-07
-2.75656e-08
0.00114426
1.30586e-06
-7.28455e-08
-8.83121e-07
2.13428e-07
9.01069e-07
-2.04472e-07
-1.27754e-06
2.51549e-07
-2.36454e-07
-0.00114423
0.000248792
-3.60871e-08
1.88444e-08
-0.000248674
-5.07119e-08
0.00115263
-4.88005e-08
-9.80271e-07
8.17495e-07
-8.03033e-07
9.93514e-07
-0.00115264
5.84653e-11
9.98654e-09
-3.59456e-08
1.87755e-08
0.000232568
7.0524e-08
-0.000194429
2.51909e-08
-5.43799e-08
-2.29202e-08
0.000194422
1.76554e-13
-3.82558e-08
-0.000232588
5.52901e-08
-1.74074e-08
1.00697e-08
-3.64003e-08
1.84832e-08
0.00023253
7.04364e-08
-4.13638e-08
0.000194315
-0.000194371
2.74252e-08
-5.66064e-08
2.73605e-08
-2.25309e-08
0.000194361
-3.8327e-08
0.00023255
-0.000232548
5.36353e-08
-1.74622e-08
9.20651e-10
9.17782e-09
1.5163e-07
0.000256012
-1.59642e-08
-1.01442e-07
1.30291e-06
-2.43158e-07
2.39149e-07
8.85726e-07
-2.01379e-07
1.92026e-07
-8.76779e-07
0.000248942
-5.11507e-08
-0.000248785
9.43771e-09
-0.00115275
-2.49658e-09
0.00115281
-4.48056e-07
-9.28219e-07
8.715e-07
-7.5201e-07
1.03729e-06
-2.43684e-08
4.53716e-08
0.000248774
4.08723e-09
-1.749e-07
9.9838e-07
-7.89437e-07
-9.60715e-07
8.28545e-07
-7.49502e-10
0.000256206
-0.000256038
-2.63719e-09
-2.03448e-07
7.86621e-09
1.54261e-07
0.000255984
-2.13256e-08
-1.28112e-06
-9.01201e-08
8.88374e-07
-2.01349e-07
-8.79312e-07
1.92054e-07
1.29755e-06
-2.40527e-07
2.36223e-07
-4.46748e-08
0.000248841
-4.88957e-08
-0.000248692
1.45625e-08
-0.0011527
0.00115276
-4.53778e-07
-9.30839e-07
8.71475e-07
-7.52004e-07
1.03985e-06
4.10495e-08
-2.42035e-08
4.29117e-08
0.000248675
-1.69148e-07
1.00379e-06
-7.92233e-07
-9.66097e-07
8.31335e-07
0.000256178
-0.00025601
-1.04824e-09
-2.06084e-07
0.000275727
-0.000273619
2.32065e-07
2.37025e-07
0.000280323
-3.42382e-08
-0.000280247
2.53077e-08
-1.05796e-07
0.000280456
-3.40816e-08
-0.000280378
2.52872e-08
9.78365e-05
2.26116e-08
-9.79649e-05
1.63451e-07
-9.79906e-05
-1.15776e-07
9.79698e-05
1.24604e-06
0.000273624
-2.11139e-07
-2.13388e-07
0.000280385
3.27769e-08
-0.000280249
-5.04098e-08
-1.63083e-07
4.71764e-08
0.000280513
3.02921e-08
-0.000280377
-5.01023e-08
3.83794e-08
-3.4162e-08
0.000280244
1.15974e-07
-4.10883e-08
3.87068e-08
-3.20534e-08
0.000280375
4.33816e-08
9.77979e-05
-9.80044e-05
-2.742e-08
9.79798e-05
-1.65767e-09
0.000256152
-0.000255998
-6.30429e-09
-1.72397e-07
-2.18671e-08
0.00114515
-6.80348e-08
-1.24e-06
2.48921e-07
-2.36499e-07
-8.77372e-07
2.11039e-07
-2.0154e-07
8.98626e-07
-0.00114513
0.000248851
1.89224e-08
-0.000248733
-5.08535e-08
-2.88614e-09
0.00115252
-4.93668e-08
-9.80198e-07
8.17586e-07
-8.05718e-07
9.93574e-07
-0.00115252
-2.36595e-08
0.000232515
-0.000232515
3.92741e-08
-1.5634e-08
4.96672e-08
0.000194298
1.54135e-08
-0.000194341
0.000256124
-0.000255971
-1.72396e-07
-5.84059e-09
-3.36311e-08
0.00114417
1.30317e-06
-6.75166e-08
-8.77602e-07
2.0802e-07
8.95631e-07
-1.99009e-07
-1.27734e-06
2.54359e-07
-2.41992e-07
-0.00114413
0.00115249
-4.34114e-08
-9.77483e-07
8.14761e-07
-8.03001e-07
9.88023e-07
-0.0011525
0.000248789
-3.60896e-08
1.8743e-08
-0.000248669
-5.31036e-08
1.49477e-08
2.84829e-10
1.84399e-08
-3.60238e-08
0.000232559
7.26798e-08
-0.000194406
2.49909e-08
-5.45491e-08
-2.24902e-08
0.000194399
-3.83378e-08
9.0449e-11
-0.000232581
-1.761e-08
5.54901e-08
2.00504e-09
8.25991e-09
1.5157e-07
0.000256006
-1.58571e-08
-1.02655e-07
1.25692e-06
-2.32139e-07
2.30837e-07
8.88666e-07
-2.03816e-07
1.95123e-07
-8.7908e-07
0.000248903
-4.90234e-08
-0.000248747
1.2147e-08
-0.0011526
1.80893e-09
0.00115266
-4.54541e-07
-9.27916e-07
8.71612e-07
-7.5183e-07
1.03717e-06
-2.42026e-08
4.50742e-08
0.000248734
6.01785e-09
-1.75543e-07
1.00109e-06
-7.89293e-07
-9.6322e-07
8.28624e-07
-1.33018e-09
0.000256198
-0.000256029
-2.25866e-09
-2.03582e-07
1.25316e-08
-3.62403e-08
1.86035e-08
0.00023252
7.2795e-08
-4.13535e-08
0.000194301
-0.000194357
2.45409e-08
-5.66759e-08
2.73821e-08
-2.2602e-08
0.00019435
-3.83551e-08
0.000232542
-0.000232542
5.56893e-08
-1.73147e-08
1.5163e-07
8.2486e-09
0.000255978
-2.17559e-08
-1.27561e-06
-9.62601e-08
8.85698e-07
-2.01225e-07
-8.76517e-07
1.94918e-07
1.29465e-06
-2.40389e-07
2.39158e-07
-0.00115256
0.00115262
-4.54362e-07
-9.27966e-07
8.71577e-07
-7.51947e-07
1.03721e-06
-4.22763e-08
0.000248839
-5.37631e-08
-0.000248682
1.18838e-08
-1.75415e-07
1.00108e-06
-7.89409e-07
-9.605e-07
8.31408e-07
4.35999e-08
-2.43726e-08
4.76014e-08
0.000248665
0.000256169
-0.000256002
-2.06165e-07
-8.74899e-10
-8.55376e-11
0.00023256
-0.000232555
-1.58063e-08
3.69425e-08
0.000194355
1.56103e-08
-0.0001944
2.36477e-08
0.000256131
-0.000255976
-1.74986e-07
-5.35811e-09
-2.19586e-08
0.00114383
-6.72466e-08
-1.27447e-06
2.5158e-07
-2.39124e-07
-8.7488e-07
2.10665e-07
-2.01738e-07
8.92798e-07
-0.0011438
0.0011524
-5.48611e-08
-9.74667e-07
8.1191e-07
-8.00204e-07
9.85199e-07
-0.0011524
-5.19617e-08
0.000248832
1.62464e-08
-0.000248709
-5.06584e-08
0.000232521
-0.00023252
3.72411e-08
-1.5475e-08
0.000194304
-2.24004e-08
1.53017e-08
-0.000194349
-1.49788e-08
1.85783e-09
8.31764e-09
1.51589e-07
0.000256013
-2.15652e-08
-9.6777e-08
1.26243e-06
-2.34911e-07
2.33579e-07
8.85867e-07
-2.03826e-07
-8.7645e-07
1.97743e-07
-7.27162e-08
-5.13834e-08
-0.000248785
9.53375e-09
-0.00115253
1.42792e-09
-4.5439e-07
-9.22375e-07
8.68771e-07
1.03439e-06
-7.49012e-07
5.6779e-08
-2.67272e-08
4.51192e-08
0.00024878
5.67664e-09
-1.75306e-07
9.95473e-07
-7.83674e-07
-9.57683e-07
8.25784e-07
3.83151e-08
-1.28909e-09
-0.000256031
-2.46643e-09
-2.0355e-07
2.9049e-10
1.84077e-08
-3.60369e-08
0.000232563
0.000194361
-0.000194415
2.49538e-08
-2.24623e-08
0.000194407
-6.82771e-12
0.000232588
-0.000232587
-1.773e-08
5.54538e-08
-1.25739e-08
1.51646e-07
7.99817e-09
0.000255986
-2.71995e-08
-1.27247e-06
-9.02949e-08
8.82868e-07
-2.01254e-07
-8.73837e-07
1.92071e-07
1.29181e-06
-2.40315e-07
2.36304e-07
-0.00115247
0.00115254
-4.59903e-07
-9.22409e-07
8.68724e-07
-7.51933e-07
1.03159e-06
-7.27435e-08
-4.45799e-08
0.00024888
-5.13054e-08
-0.000248725
1.43244e-08
-1.6946e-07
9.95425e-07
-7.80952e-07
-9.54956e-07
8.25768e-07
5.44544e-08
4.36249e-08
-2.44358e-08
4.52607e-08
0.000248713
3.83464e-08
0.000256174
-0.000256006
-2.06117e-07
-1.50534e-09
-3.63962e-08
1.88416e-08
0.000232527
-4.30044e-08
0.00019431
-0.000194367
2.67706e-08
2.74659e-08
-2.30306e-08
0.000194354
0.000232549
-0.000232549
5.5785e-08
-1.73995e-08
0.00027571
-0.000273608
2.34722e-07
2.34502e-07
0.000280327
-3.15172e-08
-0.000280251
2.28757e-08
-1.03534e-07
0.000280449
-3.3705e-08
-0.000280374
2.52957e-08
9.78364e-05
2.25033e-08
-9.79624e-05
1.63411e-07
-9.79859e-05
-1.15722e-07
9.79651e-05
1.24325e-06
0.000273613
-2.085e-07
-2.13351e-07
0.000280389
3.26747e-08
-0.000280253
-4.70382e-08
-1.63167e-07
4.47027e-08
0.000280514
3.0237e-08
-0.000280375
-5.03041e-08
3.89114e-08
-2.94082e-08
0.000280246
1.13713e-07
-4.35703e-08
3.84275e-08
-3.20252e-08
0.000280373
4.32368e-08
9.77955e-05
-9.80019e-05
-2.73102e-08
9.79774e-05
2.38221e-08
0.000256125
-0.000255969
-1.75078e-07
-5.22917e-09
-2.77176e-08
0.00114483
-6.82134e-08
-1.23145e-06
2.46004e-07
-2.33697e-07
-8.77258e-07
2.13715e-07
-2.04251e-07
8.95696e-07
-0.0011448
0.00115225
-4.95171e-08
-9.74441e-07
8.14741e-07
-8.00115e-07
9.8782e-07
-0.00115226
-5.18098e-08
0.000248797
1.64169e-08
-0.000248672
-5.324e-08
2.17207e-11
0.000232557
-0.000232552
-1.58225e-08
3.48524e-08
0.000194355
1.30566e-08
-0.000194395
0.000232517
-0.000232513
-1.55347e-08
3.5524e-08
0.000194297
-2.25377e-08
1.56022e-08
-0.000194342
8.42362e-10
-1.24031e-08
1.51531e-07
8.62757e-09
0.000256006
-2.75667e-08
-1.02891e-07
1.25956e-06
-2.37555e-07
2.33746e-07
8.83181e-07
-2.0103e-07
-8.73621e-07
1.95088e-07
-0.00115239
-2.92375e-09
-4.60518e-07
-9.19535e-07
8.66017e-07
1.02887e-06
-7.46183e-07
-7.27653e-08
-5.14451e-08
-0.000248784
9.398e-09
3.87143e-09
-1.75741e-07
9.95545e-07
-7.83653e-07
-9.57666e-07
8.23052e-07
5.46522e-08
-2.67924e-08
4.74433e-08
0.000248772
-6.85084e-10
3.83826e-08
-0.000256025
-2.062e-07
-2.59017e-09
-1.24051e-08
1.48935e-07
7.59318e-09
0.000255982
-1.60155e-08
-1.2323e-06
-1.02869e-07
8.83031e-07
-2.01035e-07
-8.73399e-07
1.95135e-07
1.2486e-06
-2.34956e-07
2.30739e-07
-0.00115233
0.0011524
-4.60505e-07
-9.22148e-07
8.68785e-07
-7.48977e-07
1.03417e-06
-7.26527e-08
-4.70155e-08
0.000248845
-5.1456e-08
-0.000248686
1.19149e-08
-1.75814e-07
9.95358e-07
-7.83626e-07
-9.57413e-07
8.23028e-07
5.46517e-08
4.11735e-08
-2.42723e-08
4.73861e-08
0.000248678
3.83628e-08
0.000256165
-0.000256
-2.03567e-07
-7.75315e-10
1.65559e-10
1.83994e-08
-3.5977e-08
0.000232562
0.000194359
-0.000194413
2.46935e-08
-2.24196e-08
0.000194405
-3.46771e-11
0.000232587
-0.000232585
-1.74406e-08
5.3325e-08
1.87261e-08
-3.61915e-08
0.000232522
-4.31575e-08
0.000194302
-0.000194359
2.71572e-08
2.73948e-08
-2.27859e-08
0.000194347
0.000232547
-0.000232545
-1.71661e-08
5.3415e-08
9.78255e-05
-9.79538e-05
9.78195e-05
-9.79478e-05
0.000273596
-2.08352e-07
-2.13475e-07
-1.63213e-07
3.03509e-08
-0.000280339
-5.02571e-08
-1.63059e-07
3.02025e-08
-0.000280256
-5.02181e-08
1.15788e-07
3.86279e-08
-3.42579e-08
0.000280339
1.15835e-07
3.84663e-08
-3.19178e-08
0.000280252
9.77871e-05
-9.79933e-05
9.79687e-05
9.7781e-05
-9.79873e-05
9.79628e-05
-1.88511e-07
9.80441e-05
2.44908e-07
9.77963e-05
-9.81161e-05
-1.89098e-07
9.80336e-05
2.45168e-07
9.77855e-05
-9.81047e-05
-6.80856e-08
-7.75353e-08
6.54179e-08
0.000280398
-6.80434e-08
-7.79329e-08
6.28503e-08
0.000280319
0.000276205
-1.82967e-06
-1.7952e-06
-0.000273876
6.46388e-07
6.49752e-07
0.000280929
-1.49624e-08
-5.81941e-08
-0.000280522
-8.88193e-08
0.00028085
-1.71921e-08
-5.56885e-08
-0.000280441
-9.09758e-08
-3.01749e-06
-1.44065e-06
0.000104447
-9.99891e-05
-3.84173e-07
-1.47223e-07
9.83277e-05
-3.02379e-06
-1.43992e-06
0.00010444
-9.99761e-05
-3.84042e-07
-1.47059e-07
9.83166e-05
3.78157e-07
3.31e-07
0.000274231
6.34922e-07
6.30392e-07
-2.47099e-06
0.000287575
-3.79035e-06
-0.000283562
-7.69771e-07
-2.4705e-06
0.000287509
-3.79769e-06
-0.00028349
-7.74388e-07
-2.38144e-07
1.31796e-07
-4.12744e-07
0.000281064
-2.35448e-07
1.28921e-07
-4.10607e-07
0.000280983
-2.35219e-07
0.000232837
-0.000232741
1.28364e-07
1.1577e-08
-9.55074e-08
-3.75891e-08
0.000194395
-3.28475e-08
0.000232599
-3.98902e-08
2.34093e-08
3.59106e-08
0.000194486
2.72238e-08
-0.000194476
1.06545e-09
0.00025657
-0.000256265
4.91253e-08
-5.89724e-07
-1.93816e-08
-3.70593e-08
0.000248835
0.00115298
6.87177e-09
-1.23388e-06
1.18056e-06
-6.62316e-07
-8.4147e-07
1.02705e-06
-1.13968e-06
0.00114525
-2.44845e-06
-9.74041e-07
6.11445e-07
2.02099e-08
-5.49262e-07
6.37354e-07
9.14657e-08
1.43692e-06
1.18952e-09
0.000256096
1.66924e-08
5.95479e-08
0.000249367
-8.21833e-08
-0.000248998
-2.67868e-07
4.9744e-09
0.00115291
-3.10903e-06
-6.1698e-07
1.47e-06
-4.22512e-07
1.6042e-06
0.000256543
-0.000256238
5.39521e-08
-5.92376e-07
6.8156e-08
-1.95133e-08
-3.96965e-08
0.000248737
0.00115295
-1.23384e-06
1.17753e-06
-6.62293e-07
-8.44073e-07
1.02423e-06
-1.15056e-06
0.00114538
1.83263e-06
-2.45404e-06
-5.49064e-07
6.34653e-07
1.43943e-06
9.40764e-08
-9.7144e-07
6.11612e-07
2.52321e-08
0.000256071
1.5905e-08
5.95727e-08
0.000249276
1.50628e-08
-8.47163e-08
-0.000248902
-2.6794e-07
0.00115287
-3.10891e-06
-6.14079e-07
1.46995e-06
-4.19667e-07
1.60663e-06
2.95035e-09
-4.00882e-07
3.64773e-08
7.50414e-08
0.000233162
-4.05658e-06
-0.000196565
-1.6871e-06
-2.96507e-07
-1.23031e-07
0.000194816
1.61969e-08
-2.40502e-06
-0.000234179
1.32696e-06
4.50288e-07
-3.98277e-07
3.80643e-08
8.00453e-08
0.00023312
-4.05569e-06
1.44629e-06
0.000200831
-0.000196516
-1.70557e-06
-2.98515e-07
1.47057e-07
-1.27338e-07
0.000194764
-2.40208e-06
0.000234755
-0.000234144
1.3253e-06
4.82432e-07
4.54127e-09
1.19984e-07
-6.56154e-07
0.000256701
-3.03297e-06
-6.33547e-06
2.87063e-06
4.73679e-07
1.44447e-06
2.67005e-06
6.63653e-07
1.77282e-06
9.12218e-08
0.000251946
-4.87832e-06
-0.00025143
-2.16447e-06
-0.00115157
3.81022e-08
0.00114606
-1.66134e-05
1.94964e-06
5.51829e-06
2.0265e-06
5.76378e-06
-2.22329e-07
-5.32097e-07
0.000249587
2.39913e-08
-7.59545e-06
2.84207e-06
2.61227e-07
7.79675e-08
2.69245e-06
1.4661e-08
0.000258344
-0.000257658
6.97514e-07
-3.80351e-06
1.25676e-07
-6.56091e-07
0.000256679
-3.07116e-06
-3.72501e-07
-6.32968e-06
2.67489e-06
6.68748e-07
9.11719e-08
1.78053e-06
2.8738e-06
4.76447e-07
1.45299e-06
2.48078e-06
0.000251887
-4.88491e-06
-0.000251354
-2.18451e-06
-0.00115154
0.00114602
-1.66127e-05
1.95184e-06
5.5208e-06
2.02641e-06
5.76821e-06
2.38095e-07
-2.27238e-07
-5.3207e-07
0.000249498
-7.59506e-06
2.84696e-06
2.58513e-07
7.27054e-08
2.69515e-06
0.000258322
-0.000257633
7.29629e-07
-3.80578e-06
-7.75371e-08
6.55377e-08
0.000280276
1.88846e-07
-7.55209e-08
6.5424e-08
0.000280405
0.000276202
-0.000273866
6.4698e-07
6.49313e-07
0.000280812
-5.8347e-08
-0.000280402
-9.12291e-08
-2.4535e-07
0.000280936
-5.77806e-08
-0.000280527
-8.8685e-08
-5.45764e-08
9.80413e-05
9.77917e-05
7.42061e-08
-9.81112e-05
-3.01422e-06
-9.99772e-05
-3.83705e-07
9.83103e-05
3.36416e-07
0.000274228
6.35429e-07
6.30062e-07
0.000287502
-3.80648e-06
-0.000283463
-7.6617e-07
3.02349e-06
-2.46801e-06
0.000287575
-3.78357e-06
-0.000283568
-7.79137e-07
1.32121e-07
-4.10193e-07
0.000280944
3.82602e-07
-2.35505e-07
1.28617e-07
-4.13165e-07
0.000281073
-1.43796e-06
0.000104443
-9.99811e-05
-1.47019e-07
9.83213e-05
1.1434e-09
0.000256564
-0.000256254
4.89418e-08
-5.92642e-07
-1.9741e-08
-3.93974e-08
0.000248796
0.00115283
1.68663e-08
-1.24045e-06
1.1778e-06
-6.62094e-07
-8.41106e-07
1.02734e-06
-1.12155e-06
0.00114621
-2.44674e-06
-9.27923e-07
6.08906e-07
2.7543e-08
-5.45809e-07
6.37779e-07
9.18173e-08
1.43742e-06
2.43833e-09
0.000256087
1.55595e-08
5.68441e-08
0.000249331
-8.19732e-08
-0.000248962
-2.68103e-07
2.86951e-08
0.00115276
-3.12113e-06
-6.10852e-07
1.46751e-06
-4.1928e-07
1.60147e-06
-2.3287e-07
0.000232832
-0.000232735
1.26162e-07
1.16287e-08
-9.78272e-08
-3.72365e-08
0.000194384
-3.29185e-08
0.000232594
-4.18797e-08
2.37866e-08
3.5994e-08
0.000194474
2.23928e-08
-0.000194459
0.000256534
-0.000256227
-5.92528e-07
5.45908e-08
0.00115282
-1.24016e-06
1.1777e-06
-6.62202e-07
-8.41194e-07
1.02437e-06
6.59415e-08
-1.43456e-08
-3.97789e-08
0.000248729
-1.1679e-06
0.00114531
1.83023e-06
-2.4605e-06
-5.46207e-07
6.34735e-07
1.43675e-06
9.42306e-08
-9.65508e-07
6.14331e-07
2.28327e-08
0.000256063
5.94783e-08
1.6593e-08
0.00115275
-3.12071e-06
-6.111e-07
1.47012e-06
-4.19542e-07
1.60401e-06
0.000249268
1.73372e-08
-8.72008e-08
-0.000248894
-2.67971e-07
-4.01132e-07
3.47718e-09
7.41837e-08
3.86539e-08
0.000233153
-4.05931e-06
-0.000196543
-1.68812e-06
-2.98951e-07
-1.21579e-07
0.000194795
-2.40305e-06
1.65233e-08
-0.000234176
4.50004e-07
1.32996e-06
6.39123e-09
1.18279e-07
-6.59154e-07
0.000256697
-2.98549e-06
-6.30921e-06
2.85054e-06
4.79168e-07
1.45057e-06
2.67064e-06