/*--------------------------------*- C++ -*----------------------------------*\
| =========                 |                                                 |
| \\      /  F ield         | OpenFOAM: The Open Source CFD Toolbox           |
|  \\    /   O peration     | Version:  v2006                                 |
|   \\  /    A nd           | Website:  www.openfoam.com                      |
|    \\/     M anipulation  |                                                 |
\*---------------------------------------------------------------------------*/
FoamFile
{
    version     2.0;
    format      ascii;
    class       volVectorField;
    location    "125";
    object      U;
}
// * * * * * * * * * * * * * * * * * * * * * * * * * * * * * * * * * * * * * //

dimensions      [0 1 -1 0 0 0 0];


internalField   nonuniform List<vector> 
14314
(
(-1.17594e-05 -1.16611e-05 0.110648)
(-6.81293e-06 1.11012e-05 0.108734)
(1.10452e-05 -6.78032e-06 0.108734)
(-2.95418e-05 -2.94541e-05 0.106436)
(-3.42337e-05 -3.41295e-05 0.110661)
(5.62422e-05 -3.89006e-05 0.108809)
(-3.89969e-05 5.628e-05 0.108809)
(4.42757e-05 4.4337e-05 0.106705)
(-4.24228e-05 -4.23412e-05 0.106394)
(-8.71935e-06 -1.02089e-05 0.108634)
(8.72375e-06 -1.02227e-05 0.108634)
(4.23728e-05 -4.23397e-05 0.106394)
(-1.03448e-05 -8.71575e-06 0.108635)
(-1.0286e-05 8.79319e-06 0.108634)
(1.03229e-05 -8.71763e-06 0.108636)
(1.02532e-05 8.77628e-06 0.108634)
(-4.22787e-05 4.23075e-05 0.106394)
(-8.80923e-06 1.03608e-05 0.108636)
(8.78132e-06 1.0375e-05 0.108635)
(4.22705e-05 4.23343e-05 0.106393)
(2.93393e-05 2.94526e-05 0.106436)
(-5.62457e-05 -5.6129e-05 0.10639)
(1.11209e-05 6.94074e-06 0.108733)
(-1.11209e-05 6.93504e-06 0.108733)
(-4.14211e-05 -5.77337e-05 0.108663)
(4.14207e-05 -5.7717e-05 0.108663)
(-2.94289e-05 2.94811e-05 0.106436)
(5.62486e-05 -5.60816e-05 0.10639)
(6.80432e-06 1.11451e-05 0.108734)
(6.89023e-06 -1.10793e-05 0.108733)
(-5.7925e-05 -4.13724e-05 0.108665)
(-5.78229e-05 4.14679e-05 0.108663)
(-6.87797e-06 -1.10488e-05 0.108733)
(5.79158e-05 -4.13509e-05 0.108665)
(5.78389e-05 4.14368e-05 0.108664)
(2.94415e-05 -2.9403e-05 0.106436)
(-5.61095e-05 5.6219e-05 0.10639)
(-1.10617e-05 -6.77298e-06 0.108733)
(-4.14424e-05 5.79634e-05 0.108665)
(4.14394e-05 5.79363e-05 0.108664)
(5.60664e-05 5.61332e-05 0.10639)
(-4.44606e-05 -4.43483e-05 0.106705)
(-3.89836e-05 -5.60728e-05 0.108808)
(3.89705e-05 -5.60294e-05 0.108808)
(4.4414e-05 -4.42541e-05 0.106705)
(-5.62274e-05 -3.89195e-05 0.108809)
(-5.61252e-05 3.90153e-05 0.108808)
(3.42262e-05 -3.41117e-05 0.110662)
(-3.42269e-05 3.42905e-05 0.110662)
(3.42002e-05 3.42568e-05 0.110662)
(5.61748e-05 3.89821e-05 0.108808)
(-4.43971e-05 4.44931e-05 0.106705)
(3.89653e-05 5.62363e-05 0.108809)
(6.24558e-06 -1.7345e-06 0.0928077)
(-3.14854e-06 2.73028e-05 0.0831113)
(-1.82225e-05 4.7321e-05 0.0717344)
(-1.74029e-06 6.2931e-06 0.0928079)
(2.73134e-05 -3.09513e-06 0.0831115)
(1.11613e-06 1.19223e-06 0.110583)
(-1.12751e-06 1.19293e-06 0.110583)
(1.14011e-06 -1.08865e-06 0.110583)
(-1.15901e-06 -1.1016e-06 0.110583)
(4.21833e-06 3.23018e-06 0.100842)
(6.36446e-06 -5.46353e-06 0.108643)
(-1.43476e-05 9.87613e-06 0.0945131)
(-2.41495e-06 3.71163e-06 0.109913)
(4.72941e-05 -1.82061e-05 0.071734)
(3.19791e-06 4.24747e-06 0.100842)
(-5.51177e-06 6.41137e-06 0.108643)
(3.70047e-06 -2.38937e-06 0.109912)
(9.87072e-06 -1.43556e-05 0.0945129)
(5.05689e-05 5.06483e-05 0.106424)
(-1.851e-05 -2.0024e-05 0.0885382)
(-2.00403e-05 -1.84747e-05 0.0885368)
(6.17316e-06 -4.78645e-06 0.0930039)
(-8.48212e-07 -4.6843e-05 0.0817399)
(-7.96605e-06 -5.75223e-06 0.092447)
(6.32755e-06 6.03046e-05 0.0836494)
(3.77427e-05 -8.52983e-05 0.0711549)
(-6.03469e-05 0.000124698 0.0718513)
(-4.87057e-06 6.2326e-06 0.0930039)
(-4.69368e-05 -9.14812e-07 0.0817398)
(-5.78342e-06 -7.93629e-06 0.0924468)
(6.02777e-05 6.66226e-06 0.0836496)
(1.17366e-05 -1.16647e-05 0.110648)
(-1.17511e-05 1.18033e-05 0.110648)
(1.17099e-05 1.17845e-05 0.110648)
(-8.31596e-06 -8.22199e-06 0.110568)
(8.32416e-06 -8.21186e-06 0.110568)
(-8.3081e-06 8.37383e-06 0.110568)
(8.31252e-06 8.35063e-06 0.110568)
(1.84365e-05 2.05058e-06 0.100736)
(2.35255e-05 -1.50883e-05 0.0940018)
(5.53808e-06 -7.43643e-06 0.109957)
(2.35801e-05 -1.69585e-05 0.108626)
(4.37422e-06 -3.98367e-06 0.100972)
(-1.31493e-05 6.75415e-06 0.0946824)
(9.00073e-06 5.53121e-06 0.109904)
(-8.52193e-05 3.77097e-05 0.0711546)
(0.00012457 -6.03246e-05 0.0718506)
(1.99609e-06 1.84629e-05 0.100736)
(-7.50221e-06 5.5697e-06 0.109957)
(-1.51226e-05 2.3567e-05 0.0940018)
(-1.70255e-05 2.36239e-05 0.108626)
(-4.03581e-06 4.4018e-06 0.100972)
(5.46731e-06 9.01688e-06 0.109904)
(6.65486e-06 -1.30769e-05 0.0946819)
(3.15663e-05 3.22585e-05 0.0878123)
(3.2203e-05 3.15811e-05 0.08781)
(4.08365e-05 4.09398e-05 0.106357)
(-3.9837e-05 -3.50555e-05 0.0888441)
(-3.50403e-05 -3.9787e-05 0.0888427)
(-1.53039e-05 -7.00384e-05 0.0946304)
(-0.000140997 -0.000188502 0.0814302)
(-2.24232e-05 -8.30885e-05 0.0922946)
(-0.000245956 -0.000111888 0.0862494)
(0.000273197 -0.000434357 0.0717142)
(0.000109289 -0.000236572 0.0806367)
(-7.01461e-05 -1.51667e-05 0.0946305)
(-0.000188755 -0.000140649 0.0814301)
(-8.34097e-05 -2.23196e-05 0.0922942)
(-0.000111833 -0.000246059 0.0862503)
(-9.35376e-06 -9.26122e-06 0.111331)
(-1.18573e-05 -2.66445e-05 0.11111)
(-2.67836e-05 -1.17606e-05 0.11111)
(-2.54469e-05 -2.53512e-05 0.110506)
(-8.80741e-06 -8.71393e-06 0.111388)
(-1.26188e-05 -3.63077e-05 0.111015)
(-3.64451e-05 -1.2525e-05 0.111015)
(4.42672e-05 -1.77138e-06 0.100983)
(0.00011511 -5.87057e-05 0.0942487)
(5.48821e-05 -1.74527e-05 0.110013)
(2.8036e-05 -3.14877e-05 0.108831)
(7.63849e-05 -1.19743e-05 0.101391)
(0.000101173 -6.26206e-05 0.0946277)
(8.01347e-05 -2.17226e-05 0.110074)
(-0.000434404 0.000273022 0.0717145)
(-0.000236304 0.000109213 0.0806373)
(-1.87024e-06 4.42795e-05 0.100983)
(-1.7517e-05 5.48991e-05 0.110013)
(-5.88157e-05 0.00011512 0.0942486)
(-3.15795e-05 2.80901e-05 0.108831)
(-1.20596e-05 7.63734e-05 0.10139)
(-2.17893e-05 8.01657e-05 0.110073)
(-6.26806e-05 0.000101254 0.0946276)
(0.000262298 7.30579e-05 0.0878927)
(7.29423e-05 0.00026237 0.0878908)
(5.01279e-05 5.02006e-05 0.10675)
(0.000142223 -3.09841e-05 0.0912256)
(-3.10166e-05 0.000142289 0.0912261)
(1.82471e-05 4.73358e-05 0.0717346)
(4.72928e-05 1.82927e-05 0.0717345)
(-5.05285e-05 -5.04715e-05 0.106425)
(2.00056e-05 1.84958e-05 0.088539)
(1.85407e-05 2.00108e-05 0.088537)
(3.23405e-05 7.54725e-05 0.0717812)
(-2.07807e-05 -5.26155e-05 0.0712043)
(7.53455e-05 3.23815e-05 0.0717815)
(-5.25755e-05 -2.0829e-05 0.0712022)
(4.23276e-05 4.24017e-05 0.106404)
(2.84216e-05 2.72974e-05 0.0886548)
(2.73254e-05 2.84126e-05 0.0886528)
(-2.17652e-05 -1.92355e-05 0.0879303)
(-1.93499e-05 -2.1762e-05 0.0879276)
(-6.25049e-06 -1.77862e-06 0.0928077)
(3.19634e-06 2.72915e-05 0.0831112)
(3.18794e-06 -4.20293e-06 0.100842)
(-5.46072e-06 -6.26696e-06 0.108642)
(9.8085e-06 1.43929e-05 0.0945126)
(3.73346e-06 2.44965e-06 0.109913)
(-3.1989e-06 -4.22264e-06 0.100842)
(5.44068e-06 -6.28395e-06 0.108642)
(-9.83729e-06 1.43779e-05 0.0945114)
(-3.73407e-06 2.45253e-06 0.109913)
(-6.94297e-06 -6.82495e-07 0.0925181)
(-1.34317e-06 4.19074e-05 0.0833243)
(1.73178e-06 -2.96472e-05 0.0819676)
(7.38314e-06 -1.40244e-07 0.0928782)
(6.91384e-06 -6.39868e-07 0.0925178)
(1.46666e-06 4.19003e-05 0.0833245)
(-1.72165e-06 -2.96511e-05 0.0819675)
(-7.3753e-06 -1.85406e-07 0.0928783)
(-3.48091e-06 2.33011e-06 0.100916)
(1.08492e-05 9.50396e-06 0.108726)
(1.20133e-05 1.8774e-05 0.0945786)
(4.50037e-06 4.57833e-07 0.10991)
(-1.19311e-05 -1.40781e-05 0.0940626)
(-5.60146e-06 -1.58181e-07 0.109957)
(3.52111e-06 -4.94229e-06 0.100799)
(3.45006e-06 2.34934e-06 0.100916)
(-1.08921e-05 9.50792e-06 0.108726)
(-1.19972e-05 1.87379e-05 0.0945776)
(-4.5157e-06 4.59279e-07 0.10991)
(1.18727e-05 -1.41091e-05 0.0940623)
(5.59723e-06 -1.62003e-07 0.109957)
(-3.53052e-06 -4.95941e-06 0.100799)
(5.05909e-05 -5.05576e-05 0.106425)
(-2.00088e-05 1.84883e-05 0.0885363)
(-1.85223e-05 2.00227e-05 0.0885392)
(-4.7322e-05 1.83193e-05 0.0717348)
(-3.22621e-05 7.54461e-05 0.0717813)
(2.07943e-05 -5.26026e-05 0.0712041)
(-4.22865e-05 4.23071e-05 0.106404)
(-2.83925e-05 2.72685e-05 0.0886521)
(-2.73156e-05 2.83901e-05 0.0886552)
(2.17258e-05 -1.9209e-05 0.0879288)
(1.93348e-05 -2.17429e-05 0.0879294)
(-7.54327e-05 3.2408e-05 0.0717819)
(5.26319e-05 -2.08368e-05 0.0712025)
(-4.22232e-06 3.23656e-06 0.100842)
(-6.4094e-06 -5.47579e-06 0.108643)
(1.43525e-05 9.84662e-06 0.094512)
(2.40139e-06 3.74955e-06 0.109912)
(-1.76462e-06 -6.20837e-06 0.0928076)
(2.73357e-05 3.17558e-06 0.0831113)
(-4.23011e-06 -3.15292e-06 0.100842)
(-6.32141e-06 5.47964e-06 0.108641)
(2.42075e-06 -3.71809e-06 0.109912)
(1.43752e-05 -9.81088e-06 0.0945113)
(-7.0152e-07 -6.90981e-06 0.0925177)
(4.1926e-05 -1.27787e-06 0.0833247)
(-2.9691e-05 1.70232e-06 0.0819676)
(-1.6174e-07 7.43309e-06 0.0928782)
(2.31079e-06 -3.42522e-06 0.100916)
(9.38456e-06 1.08557e-05 0.108727)
(1.87067e-05 1.20434e-05 0.0945782)
(3.77752e-07 4.53062e-06 0.10991)
(-1.4168e-05 -1.18877e-05 0.0940622)
(-2.21629e-07 -5.57287e-06 0.109957)
(-4.99195e-06 3.57088e-06 0.100799)
(-6.57623e-07 6.95976e-06 0.0925179)
(4.19546e-05 1.44033e-06 0.0833247)
(-2.96787e-05 -1.70513e-06 0.0819675)
(-1.76954e-07 -7.32086e-06 0.0928782)
(2.32818e-06 3.50424e-06 0.100916)
(9.45559e-06 -1.08183e-05 0.108726)
(4.07405e-07 -4.48437e-06 0.109909)
(1.87119e-05 -1.19644e-05 0.0945775)
(-2.02266e-07 5.61214e-06 0.109956)
(-1.4124e-05 1.19266e-05 0.094062)
(-4.99474e-06 -3.47128e-06 0.100799)
(1.73989e-06 6.2768e-06 0.0928081)
(-2.73297e-05 -3.09714e-06 0.0831116)
(4.22849e-06 -3.17404e-06 0.100842)
(6.28419e-06 5.44942e-06 0.108642)
(-2.41976e-06 -3.71792e-06 0.109912)
(-1.44012e-05 -9.8337e-06 0.0945124)
(1.76579e-06 -6.22349e-06 0.092808)
(-2.73604e-05 3.20676e-06 0.0831116)
(-2.32398e-06 -3.43717e-06 0.100916)
(-9.40803e-06 1.08532e-05 0.108727)
(-1.87164e-05 1.20507e-05 0.0945794)
(-3.87379e-07 4.51727e-06 0.10991)
(1.41737e-05 -1.18728e-05 0.0940631)
(2.06741e-07 -5.59903e-06 0.109957)
(4.9773e-06 3.55808e-06 0.100799)
(6.94326e-07 -6.90462e-06 0.0925178)
(-4.19284e-05 -1.29978e-06 0.0833249)
(2.96911e-05 1.71897e-06 0.0819678)
(1.54544e-07 7.39522e-06 0.0928786)
(-2.34423e-06 3.4951e-06 0.100916)
(-9.47927e-06 -1.0836e-05 0.108726)
(-4.19572e-07 -4.48766e-06 0.10991)
(-1.87438e-05 -1.19033e-05 0.0945787)
(1.9588e-07 5.60279e-06 0.109956)
(1.4117e-05 1.19328e-05 0.0940629)
(4.97789e-06 -3.48365e-06 0.100799)
(6.44809e-07 6.96802e-06 0.0925178)
(-4.19646e-05 1.51154e-06 0.0833249)
(2.96719e-05 -1.70468e-06 0.0819676)
(1.71512e-07 -7.35898e-06 0.0928785)
(-5.06006e-05 5.06212e-05 0.106425)
(1.85119e-05 -2.0009e-05 0.0885361)
(2.00161e-05 -1.85174e-05 0.0885392)
(1.83104e-05 -4.73617e-05 0.0717348)
(7.54011e-05 -3.22245e-05 0.0717809)
(-5.25526e-05 2.0794e-05 0.0712037)
(4.23283e-05 -4.23218e-05 0.106404)
(2.72903e-05 -2.83677e-05 0.0886519)
(2.83754e-05 -2.7297e-05 0.0886551)
(-1.92694e-05 2.17926e-05 0.087928)
(-2.17776e-05 1.93391e-05 0.0879295)
(3.23558e-05 -7.54751e-05 0.0717818)
(-2.08261e-05 5.2662e-05 0.0712024)
(-3.21784e-06 4.28063e-06 0.100841)
(5.47716e-06 6.40587e-06 0.108642)
(-3.74003e-06 -2.38936e-06 0.109912)
(-9.88635e-06 -1.43234e-05 0.0945123)
(6.2955e-06 1.76211e-06 0.0928075)
(-3.11164e-06 -2.73554e-05 0.0831116)
(-6.22857e-06 1.85964e-06 0.0928075)
(3.12232e-06 -2.73241e-05 0.0831119)
(-3.45675e-06 -2.29031e-06 0.100916)
(1.0774e-05 -9.36074e-06 0.108727)
(4.4877e-06 -3.5438e-07 0.10991)
(1.20026e-05 -1.8693e-05 0.0945792)
(-5.61178e-06 2.4592e-07 0.109956)
(-1.18946e-05 1.41899e-05 0.0940631)
(3.5089e-06 4.99523e-06 0.100799)
(3.45453e-06 -2.2899e-06 0.100916)
(-1.08338e-05 -9.36799e-06 0.108726)
(-4.52873e-06 -3.59836e-07 0.109909)
(-1.19634e-05 -1.87007e-05 0.0945785)
(5.57342e-06 2.54586e-07 0.109956)
(1.18888e-05 1.42003e-05 0.094062)
(-3.51607e-06 4.98586e-06 0.100799)
(-6.88895e-06 7.19153e-07 0.0925179)
(-1.37503e-06 -4.19838e-05 0.0833249)
(1.73092e-06 2.97384e-05 0.0819675)
(7.35594e-06 1.83427e-07 0.0928781)
(6.95572e-06 7.28744e-07 0.0925179)
(1.40588e-06 -4.19311e-05 0.0833253)
(-1.748e-06 2.97341e-05 0.0819675)
(-7.37206e-06 1.76841e-07 0.0928781)
(-4.73578e-05 -1.82375e-05 0.0717342)
(-1.82791e-05 -4.733e-05 0.0717344)
(-4.2332e-05 -4.22468e-05 0.106404)
(-2.72991e-05 -2.83666e-05 0.0886542)
(-2.83635e-05 -2.72313e-05 0.0886527)
(1.92308e-05 2.18332e-05 0.0879299)
(2.17855e-05 1.92518e-05 0.0879276)
(-7.54924e-05 -3.22715e-05 0.0717812)
(5.26151e-05 2.08621e-05 0.0712033)
(-3.23141e-05 -7.54632e-05 0.0717815)
(2.08382e-05 5.2623e-05 0.0712029)
(-3.76348e-05 -8.52494e-05 0.0711548)
(6.02956e-05 0.000124723 0.0718516)
(-8.52374e-05 -3.77121e-05 0.071153)
(0.000124759 6.06646e-05 0.071852)
(-3.2095e-05 -3.15039e-05 0.0878125)
(-3.17206e-05 -3.20929e-05 0.0878098)
(-4.08472e-05 -4.07196e-05 0.106358)
(3.50415e-05 3.98918e-05 0.0888448)
(4.01109e-05 3.50677e-05 0.0888428)
(7.28897e-05 0.000139457 0.0721617)
(-6.90264e-05 -0.0001477 0.0711166)
(0.000139073 7.3139e-05 0.0721625)
(-0.000147517 -6.89361e-05 0.0711144)
(-8.11028e-07 -6.70787e-07 0.106491)
(2.82525e-05 -1.58593e-06 0.0892881)
(-1.61153e-06 2.8379e-05 0.0892865)
(-5.09553e-05 -6.37511e-05 0.0876586)
(-6.39464e-05 -5.08474e-05 0.0876559)
(-6.10998e-06 -4.85536e-06 0.0930039)
(9.36167e-07 -4.68677e-05 0.0817398)
(7.96666e-06 -5.70161e-06 0.0924468)
(-6.27276e-06 6.01782e-05 0.0836493)
(2.00865e-06 -1.83277e-05 0.100735)
(-1.50816e-05 -2.33684e-05 0.0940013)
(-7.47903e-06 -5.4561e-06 0.109957)
(-1.69603e-05 -2.34141e-05 0.108625)
(-4.01481e-06 -4.33737e-06 0.100972)
(6.6249e-06 1.32277e-05 0.0946815)
(5.49371e-06 -8.89683e-06 0.109904)
(-1.99365e-06 -1.83633e-05 0.100735)
(1.51234e-05 -2.34425e-05 0.0940009)
(7.46534e-06 -5.46341e-06 0.109957)
(1.69837e-05 -2.34432e-05 0.108625)
(3.99942e-06 -4.3217e-06 0.100972)
(-6.59238e-06 1.31523e-05 0.0946804)
(-5.49688e-06 -8.8946e-06 0.109904)
(-1.06547e-05 -2.42389e-05 0.0923459)
(9.17542e-07 4.4695e-05 0.0841931)
(-1.60796e-05 -7.86347e-05 0.0814317)
(-7.03879e-06 -4.37122e-05 0.0932631)
(1.06806e-05 -2.42044e-05 0.0923457)
(-6.89518e-07 4.47322e-05 0.0841937)
(1.59685e-05 -7.86214e-05 0.0814313)
(6.9516e-06 -4.35822e-05 0.0932633)
(-5.53309e-06 -2.62829e-05 0.101084)
(2.97166e-06 -1.0836e-05 0.108748)
(-3.74499e-05 -4.42733e-05 0.0949723)
(6.27564e-06 -3.53595e-05 0.109912)
(-2.32089e-05 -4.7441e-05 0.0939468)
(-9.33992e-06 -2.33697e-05 0.109957)
(-8.37333e-06 -6.19689e-05 0.100695)
(5.53203e-06 -2.62866e-05 0.101084)
(-2.99198e-06 -1.08296e-05 0.108748)
(3.74633e-05 -4.42283e-05 0.0949718)
(-6.28545e-06 -3.53381e-05 0.109912)
(2.3186e-05 -4.74666e-05 0.0939464)
(9.34485e-06 -2.3365e-05 0.109957)
(8.3095e-06 -6.19368e-05 0.100695)
(3.20878e-05 -3.15358e-05 0.087811)
(3.16857e-05 -3.21148e-05 0.0878116)
(4.08564e-05 -4.07434e-05 0.106358)
(-3.49512e-05 3.98379e-05 0.0888419)
(-4.00862e-05 3.51014e-05 0.0888456)
(8.53222e-05 -3.77607e-05 0.0711534)
(-0.000124885 6.07464e-05 0.0718528)
(-7.29195e-05 0.000139576 0.0721624)
(6.89928e-05 -0.000147594 0.0711164)
(8.68462e-07 -7.53289e-07 0.106491)
(-2.81849e-05 -1.61941e-06 0.0892858)
(1.6163e-06 2.8505e-05 0.0892888)
(5.09686e-05 -6.36331e-05 0.0876571)
(6.39664e-05 -5.08904e-05 0.087657)
(-0.000139336 7.33073e-05 0.0721631)
(0.000147766 -6.90305e-05 0.0711141)
(-1.84144e-05 2.0665e-06 0.100735)
(-2.35065e-05 -1.50518e-05 0.0940009)
(-5.5342e-06 -7.43624e-06 0.109957)
(-2.35923e-05 -1.69431e-05 0.108626)
(-4.38755e-06 -3.97846e-06 0.100972)
(1.31629e-05 6.71138e-06 0.0946812)
(-8.98081e-06 5.54553e-06 0.109904)
(-4.88888e-06 -6.07551e-06 0.0930038)
(-4.69013e-05 9.50836e-07 0.0817397)
(-5.73282e-06 8.03158e-06 0.0924469)
(6.02527e-05 -6.3203e-06 0.0836496)
(-1.84207e-05 -1.9306e-06 0.100735)
(-5.53295e-06 7.52329e-06 0.109957)
(-2.35203e-05 1.51306e-05 0.0940007)
(-2.35117e-05 1.70171e-05 0.108624)
(-4.36322e-06 4.06638e-06 0.100972)
(-8.97264e-06 -5.43669e-06 0.109904)
(1.31169e-05 -6.63202e-06 0.0946803)
(-2.43254e-05 -1.06026e-05 0.0923457)
(4.45857e-05 1.29839e-06 0.0841935)
(-7.87634e-05 -1.59863e-05 0.0814313)
(-4.38933e-05 -6.93406e-06 0.0932636)
(-2.63705e-05 -5.4758e-06 0.101084)
(-1.09956e-05 3.0023e-06 0.108749)
(-4.44427e-05 -3.73038e-05 0.0949722)
(-3.5487e-05 6.35421e-06 0.109912)
(-4.75631e-05 -2.31061e-05 0.0939464)
(-2.34641e-05 -9.26356e-06 0.109957)
(-6.21475e-05 -8.29963e-06 0.100695)
(-2.42791e-05 1.07327e-05 0.0923457)
(4.47488e-05 -9.88737e-07 0.0841939)
(-7.87218e-05 1.59982e-05 0.0814312)
(-4.38408e-05 7.02514e-06 0.0932635)
(-2.63589e-05 5.59793e-06 0.101084)
(-1.0904e-05 -2.94414e-06 0.108748)
(-3.54506e-05 -6.23669e-06 0.109912)
(-4.43351e-05 3.74293e-05 0.0949718)
(-2.34644e-05 9.39025e-06 0.109957)
(-4.75328e-05 2.31694e-05 0.0939463)
(-6.21126e-05 8.3755e-06 0.100695)
(4.87808e-06 6.17652e-06 0.0930043)
(4.69441e-05 -8.9565e-07 0.0817401)
(5.75883e-06 -7.96011e-06 0.0924469)
(-6.0289e-05 6.68436e-06 0.08365)
(1.84322e-05 -1.95989e-06 0.100735)
(5.52711e-06 7.49549e-06 0.109957)
(2.34959e-05 1.52217e-05 0.0940018)
(2.351e-05 1.701e-05 0.108625)
(4.33789e-06 4.04693e-06 0.100972)
(8.97913e-06 -5.43319e-06 0.109904)
(-1.31656e-05 -6.63384e-06 0.0946817)
(4.84709e-06 -6.10088e-06 0.0930041)
(4.68996e-05 9.69685e-07 0.08174)
(5.69948e-06 8.01832e-06 0.0924469)
(-6.02822e-05 -6.33889e-06 0.0836499)
(2.6391e-05 -5.49359e-06 0.101084)
(1.10019e-05 2.99978e-06 0.108749)
(4.44151e-05 -3.72445e-05 0.0949729)
(3.55184e-05 6.34791e-06 0.109912)
(4.76031e-05 -2.30773e-05 0.093947)
(2.35084e-05 -9.27527e-06 0.109957)
(6.22003e-05 -8.283e-06 0.100695)
(2.43571e-05 -1.06233e-05 0.0923457)
(-4.46065e-05 1.31223e-06 0.0841936)
(7.88028e-05 -1.59169e-05 0.0814313)
(4.39948e-05 -6.90414e-06 0.0932641)
(2.63648e-05 5.58005e-06 0.101084)
(1.09334e-05 -2.9513e-06 0.108748)
(3.54832e-05 -6.23329e-06 0.109912)
(4.43308e-05 3.73806e-05 0.0949725)
(2.3492e-05 9.38515e-06 0.109956)
(4.75572e-05 2.3175e-05 0.0939469)
(6.21525e-05 8.36363e-06 0.100695)
(2.42945e-05 1.07317e-05 0.0923459)
(-4.46968e-05 -1.07843e-06 0.0841939)
(7.87561e-05 1.5926e-05 0.0814312)
(4.3882e-05 6.99579e-06 0.0932638)
(-3.16142e-05 3.21995e-05 0.0878102)
(-3.21284e-05 3.17525e-05 0.0878118)
(-4.09306e-05 4.10195e-05 0.106358)
(3.98384e-05 -3.5039e-05 0.0888416)
(3.50842e-05 -3.97744e-05 0.0888451)
(-3.77925e-05 8.53995e-05 0.0711532)
(6.03678e-05 -0.000124464 0.071852)
(0.000139528 -7.30997e-05 0.0721617)
(-0.000147513 6.88874e-05 0.0711163)
(-8.19905e-07 9.05987e-07 0.106491)
(-1.48832e-06 -2.82863e-05 0.0892858)
(2.83921e-05 1.54455e-06 0.0892886)
(-6.37452e-05 5.09656e-05 0.0876564)
(-5.09165e-05 6.39615e-05 0.0876574)
(7.32135e-05 -0.000139416 0.0721632)
(-6.89943e-05 0.000147764 0.0711144)
(-1.99868e-06 1.84652e-05 0.100735)
(7.45128e-06 5.56983e-06 0.109957)
(1.51737e-05 2.35408e-05 0.0940008)
(1.70272e-05 2.36197e-05 0.108625)
(4.01388e-06 4.34865e-06 0.100972)
(-5.50309e-06 9.01302e-06 0.109904)
(-6.64095e-06 -1.30722e-05 0.0946813)
(6.12964e-06 4.89399e-06 0.0930042)
(-9.68853e-07 4.697e-05 0.0817397)
(-8.00527e-06 5.77631e-06 0.0924471)
(6.27244e-06 -6.02609e-05 0.0836499)
(-6.13969e-06 4.91435e-06 0.0930041)
(9.25946e-07 4.69543e-05 0.0817398)
(7.98198e-06 5.65969e-06 0.0924469)
(-6.42718e-06 -6.0222e-05 0.0836502)
(-5.54635e-06 2.64192e-05 0.101084)
(2.91634e-06 1.10451e-05 0.108749)
(6.29344e-06 3.55348e-05 0.109912)
(-3.73086e-05 4.43801e-05 0.0949728)
(-9.33047e-06 2.35303e-05 0.109957)
(-2.31535e-05 4.76344e-05 0.0939471)
(-8.36261e-06 6.21831e-05 0.100695)
(5.5391e-06 2.63961e-05 0.101084)
(-2.94385e-06 1.10266e-05 0.108748)
(-6.33019e-06 3.55246e-05 0.109912)
(3.73667e-05 4.43914e-05 0.0949724)
(9.30624e-06 2.35331e-05 0.109956)
(2.31634e-05 4.76304e-05 0.0939463)
(8.30824e-06 6.21497e-05 0.100695)
(-1.06889e-05 2.44071e-05 0.0923457)
(1.14784e-06 -4.46894e-05 0.0841938)
(-1.5948e-05 7.8861e-05 0.0814312)
(-6.99791e-06 4.39504e-05 0.0932639)
(1.0674e-05 2.43719e-05 0.0923455)
(-1.17026e-06 -4.46782e-05 0.0841942)
(1.59242e-05 7.88161e-05 0.0814313)
(6.93541e-06 4.38609e-05 0.0932641)
(8.53317e-05 3.77852e-05 0.0711545)
(-0.000124741 -6.03996e-05 0.0718515)
(3.77856e-05 8.53435e-05 0.0711539)
(-6.04973e-05 -0.00012472 0.0718516)
(8.5799e-07 9.76482e-07 0.106491)
(1.51639e-06 -2.84049e-05 0.0892874)
(-2.8361e-05 1.56621e-06 0.0892864)
(6.37571e-05 5.10614e-05 0.087658)
(5.09817e-05 6.3771e-05 0.0876558)
(-0.000139744 -7.33107e-05 0.0721623)
(0.000147742 6.90267e-05 0.0711156)
(-7.33756e-05 -0.000139763 0.0721625)
(6.89834e-05 0.000147761 0.0711151)
(-0.000273037 -0.000434316 0.0717139)
(-0.000109186 -0.000236577 0.0806363)
(-0.000433894 -0.000272639 0.0717118)
(-0.000236639 -0.000108964 0.0806363)
(-7.31392e-05 -0.000262122 0.0878928)
(-0.000262403 -7.29262e-05 0.0878907)
(-5.01271e-05 -5.00247e-05 0.10675)
(3.10988e-05 -0.000142223 0.0912253)
(-0.000142209 3.10309e-05 0.0912252)
(-5.07468e-05 -5.06496e-05 0.107095)
(8.5954e-06 -0.000145922 0.090593)
(-0.000145875 8.52311e-06 0.0905928)
(1.53476e-05 -6.99677e-05 0.0946308)
(0.000141217 -0.000188301 0.0814308)
(2.23065e-05 -8.28711e-05 0.0922945)
(0.000246298 -0.000111799 0.0862508)
(-1.86429e-06 -4.41433e-05 0.100983)
(-5.89066e-05 -0.000114809 0.0942486)
(-1.75424e-05 -5.47092e-05 0.110013)
(-3.15484e-05 -2.78439e-05 0.10883)
(-1.20652e-05 -7.61315e-05 0.10139)
(-6.27276e-05 -0.000101107 0.0946272)
(-2.18118e-05 -7.99774e-05 0.110074)
(1.81845e-06 -4.4196e-05 0.100984)
(5.89775e-05 -0.000114849 0.0942492)
(1.75288e-05 -5.46907e-05 0.110013)
(3.15617e-05 -2.78034e-05 0.10883)
(1.19756e-05 -7.60703e-05 0.101391)
(6.28112e-05 -0.000101074 0.0946282)
(2.18251e-05 -7.99613e-05 0.110074)
(2.12632e-05 -4.42019e-05 0.102139)
(-2.97525e-05 -3.03861e-05 0.108886)
(-6.88052e-05 -7.87542e-05 0.0939072)
(-1.65425e-05 -6.81263e-05 0.110066)
(-2.12909e-05 -4.42335e-05 0.102139)
(2.97773e-05 -3.03497e-05 0.108886)
(6.89099e-05 -7.87746e-05 0.0939084)
(1.65538e-05 -6.81115e-05 0.110066)
(7.31078e-05 -0.000262077 0.0878924)
(0.000262434 -7.28086e-05 0.0878911)
(5.01746e-05 -5.00239e-05 0.10675)
(-3.10264e-05 -0.000142239 0.0912256)
(0.000142311 3.11405e-05 0.0912251)
(0.000434332 -0.000272797 0.0717114)
(0.000236792 -0.000108952 0.0806362)
(5.08098e-05 -5.06657e-05 0.107095)
(-8.51723e-06 -0.000145959 0.0905932)
(0.000145986 8.60845e-06 0.0905926)
(-4.41978e-05 -1.7516e-06 0.100983)
(-0.000115095 -5.87548e-05 0.0942487)
(-5.48393e-05 -1.74589e-05 0.110013)
(-2.79832e-05 -3.14796e-05 0.108831)
(-7.63334e-05 -1.19919e-05 0.10139)
(-0.000101102 -6.26436e-05 0.094628)
(-8.01025e-05 -2.1712e-05 0.110074)
(-7.00772e-05 1.54533e-05 0.0946306)
(-0.000188563 0.000141181 0.0814308)
(-8.31828e-05 2.23837e-05 0.0922945)
(-0.000111703 0.000246195 0.0862511)
(-4.42431e-05 1.89047e-06 0.100984)
(-5.48153e-05 1.75801e-05 0.110013)
(-0.000115047 5.89533e-05 0.0942492)
(-2.78971e-05 3.16062e-05 0.10883)
(-7.62679e-05 1.20517e-05 0.101391)
(-8.00806e-05 2.18809e-05 0.110074)
(-0.000101136 6.28777e-05 0.0946282)
(-4.42232e-05 2.13815e-05 0.102139)
(-3.05162e-05 -2.96853e-05 0.108887)
(-7.87465e-05 -6.87507e-05 0.0939079)
(-6.82464e-05 -1.64521e-05 0.110066)
(-4.42676e-05 -2.12131e-05 0.102139)
(-3.04405e-05 2.98173e-05 0.108886)
(-6.82243e-05 1.66081e-05 0.110066)
(-7.87913e-05 6.89818e-05 0.0939082)
(9.36167e-06 -9.26057e-06 0.111331)
(1.18512e-05 -2.66403e-05 0.11111)
(2.67778e-05 -1.17635e-05 0.11111)
(2.54562e-05 -2.53523e-05 0.110506)
(8.81172e-06 -8.71195e-06 0.111388)
(1.26208e-05 -3.63142e-05 0.111015)
(3.64436e-05 -1.2531e-05 0.111015)
(-9.35702e-06 9.44949e-06 0.111331)
(-2.67485e-05 1.19368e-05 0.11111)
(-1.1853e-05 2.68417e-05 0.11111)
(-2.54648e-05 2.55243e-05 0.110506)
(-8.81101e-06 8.90237e-06 0.111388)
(-3.64329e-05 1.27053e-05 0.111015)
(-1.26207e-05 3.65232e-05 0.111015)
(9.35863e-06 9.44413e-06 0.111331)
(2.6749e-05 1.19262e-05 0.11111)
(1.18395e-05 2.68382e-05 0.11111)
(2.54482e-05 2.55018e-05 0.110506)
(8.80758e-06 8.89464e-06 0.111388)
(3.64267e-05 1.26935e-05 0.111015)
(1.26098e-05 3.65209e-05 0.111015)
(-8.73631e-06 -8.64336e-06 0.111278)
(-2.63572e-05 -2.62632e-05 0.110411)
(-1.04723e-05 -3.91278e-05 0.110933)
(-3.92573e-05 -1.03815e-05 0.110933)
(8.74608e-06 -8.6432e-06 0.111278)
(2.63794e-05 -2.62691e-05 0.110411)
(1.04766e-05 -3.91297e-05 0.110933)
(3.92637e-05 -1.03889e-05 0.110933)
(-8.73833e-06 8.83197e-06 0.111278)
(-2.63722e-05 2.64427e-05 0.110411)
(-3.92414e-05 1.05581e-05 0.110933)
(-1.0477e-05 3.93366e-05 0.110933)
(8.74251e-06 8.82765e-06 0.111278)
(2.63628e-05 2.64182e-05 0.110411)
(3.92439e-05 1.05452e-05 0.110933)
(1.04658e-05 3.93324e-05 0.110933)
(7.02275e-05 -1.52074e-05 0.0946306)
(0.000188789 -0.000140603 0.0814302)
(8.35336e-05 -2.22899e-05 0.092294)
(0.000111903 -0.000246011 0.0862501)
(4.42934e-05 1.84106e-06 0.100983)
(5.48526e-05 1.7554e-05 0.110013)
(0.000115048 5.88797e-05 0.0942492)
(2.79558e-05 3.1604e-05 0.10883)
(7.63158e-05 1.20314e-05 0.101391)
(8.01043e-05 2.18502e-05 0.110074)
(0.000101157 6.28097e-05 0.094628)
(7.01381e-05 1.53866e-05 0.0946307)
(0.000188582 0.000140997 0.0814308)
(8.32674e-05 2.23638e-05 0.0922945)
(0.000111763 0.000246134 0.0862509)
(4.42934e-05 2.13456e-05 0.102139)
(3.05706e-05 -2.96986e-05 0.108887)
(7.88289e-05 -6.87207e-05 0.0939077)
(6.82797e-05 -1.64648e-05 0.110066)
(4.43087e-05 -2.1261e-05 0.102139)
(3.0492e-05 2.98073e-05 0.108886)
(6.82497e-05 1.65801e-05 0.110066)
(7.88158e-05 6.89126e-05 0.093908)
(-0.000262404 7.31237e-05 0.0878917)
(-7.29375e-05 0.000262407 0.0878913)
(-5.00868e-05 5.02011e-05 0.10675)
(-0.000142122 -3.08565e-05 0.0912256)
(3.11011e-05 0.000142364 0.0912249)
(-0.000272797 0.000434263 0.0717121)
(-0.000108983 0.000236798 0.0806367)
(-5.07075e-05 5.08153e-05 0.107095)
(-0.000145856 -8.35839e-06 0.0905932)
(8.58449e-06 0.000146107 0.0905926)
(1.7699e-06 4.43264e-05 0.100984)
(1.74742e-05 5.48903e-05 0.110013)
(5.88558e-05 0.000115067 0.0942488)
(3.15653e-05 2.80255e-05 0.108831)
(1.19813e-05 7.63127e-05 0.101391)
(2.17563e-05 8.0152e-05 0.110073)
(6.27644e-05 0.000101201 0.0946286)
(-1.53106e-05 7.02371e-05 0.0946307)
(-0.00014063 0.000188822 0.0814302)
(-2.23961e-05 8.35069e-05 0.092294)
(-0.000246138 0.000112021 0.0862503)
(1.53028e-05 7.01814e-05 0.0946309)
(0.000140954 0.000188607 0.0814309)
(2.23056e-05 8.32985e-05 0.092294)
(0.000246025 0.00011181 0.0862515)
(2.12507e-05 4.43293e-05 0.102139)
(-2.97814e-05 3.06269e-05 0.108887)
(-1.65312e-05 6.83158e-05 0.110065)
(-6.87838e-05 7.89459e-05 0.0939076)
(-2.13408e-05 4.43555e-05 0.102139)
(2.97665e-05 3.05612e-05 0.108887)
(1.64981e-05 6.83027e-05 0.110066)
(6.88519e-05 7.88763e-05 0.0939087)
(0.000434685 0.000273093 0.0717133)
(0.000236451 0.000109169 0.0806369)
(0.00027316 0.000434746 0.0717129)
(0.000109187 0.000236535 0.0806374)
(5.07383e-05 5.08062e-05 0.107095)
(0.000145929 -8.45525e-06 0.0905929)
(-8.48923e-06 0.000146023 0.0905933)
(-0.000111648 -0.000225706 0.0804468)
(-0.000225718 -0.000111484 0.0804471)
(-2.13865e-05 -4.15358e-05 0.0938684)
(-0.000243987 -0.000208974 0.0872151)
(2.14522e-05 -4.14545e-05 0.0938687)
(0.000244316 -0.000208967 0.0872168)
(0.000111784 -0.000225776 0.080448)
(0.000225882 -0.000111478 0.080447)
(-4.15833e-05 -2.12409e-05 0.0938685)
(-0.000208948 -0.000244023 0.087216)
(-4.15281e-05 2.15983e-05 0.0938686)
(-0.000208839 0.000244241 0.0872166)
(4.17109e-05 -2.13065e-05 0.0938688)
(0.000209017 -0.000243971 0.0872157)
(4.16065e-05 2.15132e-05 0.0938687)
(0.000208902 0.000244181 0.0872164)
(-0.000225484 0.00011174 0.0804481)
(-0.000111514 0.000225945 0.0804476)
(-2.14133e-05 4.17459e-05 0.0938688)
(-0.000244118 0.000209141 0.0872159)
(2.14181e-05 4.1671e-05 0.0938689)
(0.000244074 0.000208974 0.087217)
(0.000225629 0.000111679 0.0804479)
(0.000111689 0.000225739 0.0804485)
(1.56869e-05 -3.4976e-05 0.0769476)
(-6.27508e-06 6.52134e-07 0.0925436)
(1.19836e-05 -2.32717e-05 0.0788359)
(5.49499e-06 4.87421e-06 0.0910258)
(-1.12101e-05 2.14879e-05 0.078931)
(-6.05696e-06 -6.00087e-06 0.0908007)
(-1.72388e-05 3.90995e-05 0.0771306)
(-5.31284e-05 -7.30573e-05 0.0674547)
(2.08848e-05 -4.99816e-07 0.0866204)
(1.82134e-06 -2.35388e-05 0.082055)
(-2.12565e-05 -2.8215e-07 0.0861546)
(5.71137e-05 8.48727e-05 0.0693645)
(1.55846e-05 -4.18341e-05 0.0712268)
(-3.5032e-05 1.57029e-05 0.0769473)
(6.38547e-07 -6.24024e-06 0.0925432)
(4.89006e-06 5.57911e-06 0.0910259)
(-2.33481e-05 1.1998e-05 0.078836)
(-6.01689e-06 -6.0127e-06 0.0908004)
(2.15431e-05 -1.11399e-05 0.0789304)
(3.91558e-05 -1.71384e-05 0.0771308)
(-7.30888e-05 -5.30527e-05 0.0674551)
(-4.97412e-07 2.09542e-05 0.0866201)
(-2.35905e-05 1.80269e-06 0.0820549)
(-3.22866e-07 -2.12314e-05 0.0861545)
(8.48698e-05 5.71453e-05 0.0693641)
(-4.17956e-05 1.55756e-05 0.0712264)
(-5.21282e-06 -5.35238e-06 0.0842781)
(-6.04828e-06 -3.98851e-06 0.0685707)
(-3.85154e-06 -5.92357e-06 0.0685623)
(5.32794e-06 3.84206e-06 0.0685215)
(3.79674e-06 5.16544e-06 0.0685191)
(5.59043e-06 5.61503e-06 0.0841952)
(4.46943e-06 2.90565e-07 0.0926678)
(-4.00995e-05 -1.38237e-05 0.0824897)
(1.5412e-05 1.78481e-05 0.0879749)
(-5.30354e-06 -2.07227e-06 0.0979455)
(4.6314e-06 -1.31236e-07 0.0978867)
(3.60524e-05 1.25214e-05 0.081522)
(-4.16797e-06 -9.60573e-07 0.0929317)
(2.63525e-07 4.42281e-06 0.0926599)
(-1.38032e-05 -4.00342e-05 0.0824856)
(1.78069e-05 1.54271e-05 0.0879727)
(-2.09757e-06 -5.26439e-06 0.0979422)
(-1.24126e-07 4.68337e-06 0.097882)
(1.24629e-05 3.60101e-05 0.0815176)
(-1.00291e-06 -4.14345e-06 0.0929251)
(3.05999e-05 -7.90491e-05 0.0769498)
(-8.62381e-06 -1.17438e-05 0.0924002)
(2.40463e-05 -5.36803e-05 0.078739)
(3.03099e-06 -1.02722e-06 0.0911503)
(-2.5251e-05 4.34448e-05 0.0790447)
(-8.19636e-06 -1.73849e-05 0.0907231)
(-2.76353e-05 8.14502e-05 0.0771624)
(0.000109054 0.000198751 0.0702024)
(-3.39069e-05 8.43392e-06 0.0860872)
(1.5078e-06 5.11187e-05 0.0834681)
(-9.75823e-05 -0.000169719 0.0666801)
(3.38917e-05 -1.13437e-05 0.0867095)
(-2.63352e-05 6.91434e-05 0.07715)
(7.48115e-06 -7.04518e-07 0.0929314)
(-2.00988e-05 3.69005e-05 0.0790033)
(-7.69491e-06 -1.19095e-05 0.0907441)