/*--------------------------------*- C++ -*----------------------------------*\
| =========                 |                                                 |
| \\      /  F ield         | OpenFOAM: The Open Source CFD Toolbox           |
|  \\    /   O peration     | Version:  v2006                                 |
|   \\  /    A nd           | Website:  www.openfoam.com                      |
|    \\/     M anipulation  |                                                 |
\*---------------------------------------------------------------------------*/
FoamFile
{
    version     2.0;
    format      ascii;
    class       volVectorField;
    location    "500";
    object      U;
}
// * * * * * * * * * * * * * * * * * * * * * * * * * * * * * * * * * * * * * //

dimensions      [0 1 -1 0 0 0 0];


internalField   nonuniform List<vector> 
14361
(
(-8.89894e-06 1.37186e-05 0.107446)
(-5.5346e-06 1.57941e-05 0.109767)
(5.2831e-06 -1.38324e-06 0.093267)
(-1.4688e-06 -1.98497e-06 0.0987179)
(6.41727e-06 4.61573e-06 0.0878404)
(6.02126e-06 -1.58753e-06 0.0718127)
(5.34539e-06 -3.32914e-06 0.0825221)
(1.0186e-06 -1.33542e-06 0.0916559)
(-1.33996e-05 2.08656e-06 0.0919617)
(-2.63625e-06 -4.15038e-06 0.0818273)
(-8.27844e-06 2.07281e-06 0.0818599)
(1.1354e-06 -4.67564e-06 0.0919325)
(-2.15355e-06 1.3321e-05 0.0919686)
(4.35456e-06 -2.16684e-06 0.0965022)
(4.26445e-06 2.71054e-06 0.0818315)
(-1.67009e-06 1.1419e-05 0.0878764)
(-6.03565e-06 1.97899e-05 0.0965413)
(4.48571e-06 -1.31099e-06 0.0919386)
(-1.84142e-06 8.42356e-06 0.0818652)
(-3.76604e-06 3.98143e-06 0.0839043)
(-9.10835e-08 -2.53258e-06 0.068541)
(2.73262e-06 3.08397e-07 0.0685463)
(-2.09732e-06 2.60494e-06 0.0685745)
(2.17787e-07 -1.31284e-07 0.0838806)
(-2.32528e-06 2.35744e-06 0.0685799)
(1.00136e-06 3.26771e-06 0.0718512)
(3.63793e-06 3.20553e-06 0.0687173)
(3.25445e-06 -9.44911e-07 0.0861235)
(2.75208e-06 8.84399e-06 0.0825637)
(2.56461e-06 9.75903e-06 0.086169)
(2.75093e-06 -2.19311e-06 0.0686704)
(4.66522e-06 5.09925e-06 0.0772063)
(1.89602e-06 1.14783e-05 0.0916891)
(2.15469e-06 -1.04151e-06 0.0901816)
(2.59838e-06 -1.4067e-06 0.0789536)
(3.03651e-06 1.19232e-05 0.0902211)
(3.58241e-06 -1.53322e-06 0.0771707)
(2.80724e-06 5.14271e-06 0.0789822)
(-1.44681e-05 1.43025e-05 0.0977942)
(2.66895e-05 -1.94665e-06 0.101577)
(-4.10352e-05 1.94547e-05 0.101638)
(4.11401e-06 -4.33933e-06 0.0977502)
(-4.43177e-06 5.49536e-05 0.10156)
(-9.76474e-09 -3.04615e-05 0.0997036)
(4.22849e-07 -3.33376e-06 0.0958406)
(-3.96352e-07 1.91296e-05 0.0933163)
(-3.2156e-06 -3.12217e-05 0.101462)
(-4.53264e-06 5.21685e-05 0.0997605)
(-4.24199e-07 2.0339e-05 0.0959015)
(-3.24614e-06 5.45989e-05 0.10308)
(-5.51411e-07 2.10481e-05 0.0987675)
(-3.01494e-06 -2.66967e-05 0.103607)
(-1.58416e-06 -2.32508e-06 0.0977719)
(-4.16889e-06 -2.78852e-05 0.102971)
(-2.01841e-06 5.31593e-05 0.103695)
(-6.2111e-07 2.16647e-05 0.0978306)
(1.11133e-05 7.6743e-06 0.107445)
(-4.70708e-05 4.68227e-05 0.104365)
(-1.1141e-05 1.32937e-05 0.107445)
(6.25803e-06 1.19076e-05 0.107445)
(4.30452e-05 4.44226e-05 0.104362)
(-1.44871e-05 1.43206e-05 0.112182)
(1.16613e-05 1.24471e-05 0.112182)
(5.85863e-06 -5.2346e-06 0.0878631)
(2.92317e-06 -2.84121e-06 0.071844)
(1.43832e-05 -5.22952e-06 0.0933051)
(1.99479e-05 -2.98829e-07 0.0987635)
(7.36115e-06 -1.50325e-06 0.0825556)
(1.08193e-05 -2.05515e-07 0.0916819)
(1.49001e-05 4.69203e-06 0.0933052)
(1.99311e-05 8.4519e-07 0.0987633)
(7.8349e-06 3.45651e-07 0.0825555)
(1.08208e-05 2.37183e-07 0.0916818)
(-4.47918e-06 -2.83701e-06 0.0718467)
(-1.10473e-05 1.17711e-07 0.0878663)
(-2.65383e-07 1.09796e-05 0.0878684)
(2.84238e-06 4.62457e-06 0.0718464)
(-6.19823e-06 1.46501e-05 0.10977)
(-1.64759e-06 1.64995e-05 0.0933055)
(-2.13649e-06 1.99078e-05 0.0987607)
(1.64894e-06 1.4425e-05 0.109771)
(3.40801e-06 1.5373e-05 0.0933045)
(-9.38226e-07 1.99687e-05 0.0987612)
(3.73775e-06 9.26664e-06 0.0825539)
(9.52666e-08 1.06393e-05 0.0916796)
(6.0606e-07 7.79135e-06 0.0825557)
(-7.29203e-08 1.06275e-05 0.0916801)
(6.96839e-06 4.18056e-06 0.0878646)
(3.82926e-06 7.24752e-06 0.0878627)
(3.35016e-06 1.58892e-06 0.0718452)
(1.90318e-06 2.94369e-06 0.0718453)
(1.58879e-05 -1.08228e-05 0.0965265)
(4.49894e-06 -2.30611e-06 0.0818623)
(1.04659e-05 -6.77354e-06 0.0919571)
(1.86574e-06 -1.70739e-06 0.0685894)
(1.54722e-06 -2.14424e-06 0.0685951)
(4.13243e-06 -4.68044e-06 0.0839076)
(7.53625e-06 -1.49617e-06 0.0861566)
(2.90496e-06 -3.25905e-07 0.068712)
(1.03363e-05 -9.51966e-07 0.0902116)
(4.87914e-06 -2.79309e-07 0.0789736)
(4.66267e-06 -1.11271e-07 0.0771982)
(7.94556e-06 7.93333e-07 0.086157)
(3.20036e-06 -6.89677e-07 0.0687132)
(4.93352e-06 -4.86444e-07 0.0789735)
(1.04596e-05 7.95949e-07 0.0902109)
(4.90838e-06 -8.55058e-07 0.0771969)
(-1.87176e-05 9.6034e-06 0.0965304)
(-8.80303e-06 -2.51289e-06 0.0818548)
(-1.3737e-05 3.44667e-06 0.0919614)
(-9.92523e-06 1.84674e-05 0.0965343)
(2.56336e-06 8.76971e-06 0.0818601)
(-3.6754e-06 1.34905e-05 0.0919682)
(-3.18119e-06 -2.78367e-07 0.0685719)
(4.06778e-07 3.34833e-06 0.0685772)
(-5.89262e-06 5.86038e-06 0.0839097)
(2.24682e-06 -2.11207e-06 0.0686674)
(4.90209e-06 -3.34828e-06 0.0825132)
(2.36928e-06 9.5991e-06 0.0861589)
(2.0218e-06 -1.62689e-06 0.0861131)
(4.32195e-06 3.3304e-06 0.0687144)
(2.13294e-06 -1.64376e-06 0.0771623)
(-8.37652e-07 -2.11561e-06 0.0916472)
(8.63049e-07 1.07906e-05 0.0902105)
(2.48902e-06 5.02646e-06 0.0789728)
(-4.4554e-07 -2.25243e-06 0.0901716)
(1.61494e-06 -1.589e-06 0.0789448)
(4.34802e-06 5.03629e-06 0.0771974)
(1.26524e-06 -2.94192e-06 0.0686702)
(-1.3488e-06 -4.4917e-06 0.0825163)
(6.95494e-07 8.04407e-06 0.086156)
(-1.60024e-07 -2.78317e-06 0.086114)
(1.97867e-07 2.54755e-06 0.0687135)
(9.64894e-07 -2.11309e-06 0.0771644)
(-6.35248e-07 -1.9716e-06 0.0916475)
(-5.35271e-08 1.05639e-05 0.09021)
(1.4892e-06 4.81952e-06 0.078974)
(-4.26216e-07 -2.01732e-06 0.0901729)
(1.17822e-06 -1.70174e-06 0.0789449)
(1.34294e-07 4.43521e-06 0.0771984)
(1.63875e-05 1.08565e-05 0.0965283)
(5.28512e-06 1.33474e-06 0.0818619)
(1.09213e-05 6.31037e-06 0.0919589)
(-1.54042e-06 -2.88854e-06 0.0919202)
(9.50283e-06 1.6893e-05 0.0965245)
(-3.42234e-06 1.27666e-07 0.0878277)
(1.47112e-06 5.66155e-06 0.0818587)
(5.18805e-06 1.20015e-05 0.0919536)
(-2.29205e-06 -4.7478e-06 0.0964863)
(-2.75975e-06 -5.3261e-07 0.0818252)
(2.06221e-06 1.57568e-06 0.0685907)
(1.94443e-06 1.63444e-06 0.068587)
(4.49144e-06 4.87835e-06 0.083908)
(-2.13223e-06 -2.34193e-06 0.071807)
(-2.10675e-05 4.49501e-05 0.101629)
(-4.53156e-05 2.08316e-05 0.101632)
(-1.73894e-05 1.71705e-05 0.0977903)
(-4.63971e-06 -3.55033e-06 0.0977334)
(-2.5834e-05 -2.49918e-05 0.104254)
(1.80545e-05 4.28566e-05 0.101626)
(4.151e-05 1.91869e-05 0.101623)
(1.49406e-05 1.65961e-05 0.0977802)
(-3.95063e-06 -2.70221e-05 0.101564)
(-2.81025e-05 -3.1887e-06 0.101563)
(-5.94138e-06 1.514e-05 0.114567)
(3.5638e-06 1.47344e-05 0.114567)
(4.83096e-05 -7.39025e-06 0.0997514)
(1.74417e-05 -3.29564e-06 0.0958922)
(5.19118e-05 -5.25546e-06 0.101556)
(1.98118e-05 -1.6799e-06 0.0978244)
(5.17157e-05 -5.68074e-07 0.103695)
(5.24801e-05 -2.55072e-06 0.103079)
(4.83791e-05 7.76982e-06 0.0997509)
(1.76287e-05 3.40605e-06 0.0958921)
(5.18384e-05 5.84422e-06 0.101555)
(5.16617e-05 1.31238e-06 0.103695)
(1.98013e-05 2.15601e-06 0.097824)
(5.23852e-05 3.28726e-06 0.103078)
(-5.45471e-06 -3.34981e-05 0.101455)
(-8.31033e-06 4.98611e-05 0.0997517)
(3.17425e-06 -4.46497e-06 0.0932563)
(-2.48318e-06 1.84817e-05 0.0958909)
(-7.40193e-06 5.27819e-05 0.101554)
(-3.32576e-06 -3.30884e-05 0.0996948)
(-1.78099e-06 -5.32228e-06 0.0958303)
(-5.32506e-06 -2.97048e-05 0.102967)
(-2.59685e-06 -3.04225e-06 0.0987118)
(-3.18876e-06 5.17609e-05 0.103693)
(-2.9419e-06 1.99348e-05 0.0978218)
(-5.18037e-06 5.26406e-05 0.103075)
(-3.54046e-06 -2.80173e-05 0.103605)
(-3.51157e-06 -3.99129e-06 0.0977638)
(1.68608e-06 -3.30274e-05 0.101458)
(6.33561e-06 4.9226e-05 0.09975)
(-2.47367e-06 -4.28623e-06 0.0932576)
(1.87405e-06 1.79745e-05 0.0958912)
(1.68175e-07 -5.13109e-06 0.095833)
(2.69973e-07 -3.27802e-05 0.0996954)
(4.26539e-06 5.26001e-05 0.101555)
(1.31186e-06 -2.91287e-05 0.102969)
(-1.12051e-06 -2.82515e-06 0.0987126)
(-8.21426e-07 5.18787e-05 0.103693)
(4.15978e-07 2.01477e-05 0.0978227)
(-4.76627e-07 -2.77603e-05 0.103606)
(1.36065e-07 -3.29889e-06 0.0977662)
(1.32132e-06 5.28347e-05 0.103077)
(-1.15739e-05 -5.71906e-07 0.0916236)
(-2.10788e-05 -6.38377e-07 0.0987185)
(-1.16631e-05 -4.82415e-07 0.0916239)
(-2.11832e-05 2.39296e-07 0.0987188)
(1.76166e-06 -9.11615e-07 0.0771076)
(9.55922e-07 -4.45409e-07 0.09159)
(-1.11969e-05 -7.5478e-07 0.0901519)
(-5.19527e-06 -5.14237e-07 0.0789156)
(1.41805e-06 -6.57048e-07 0.0901143)
(1.30481e-06 -6.89763e-07 0.0788862)
(-4.91375e-06 3.30237e-07 0.0771409)
(1.49079e-06 -6.65483e-07 0.0771064)
(8.8541e-07 -2.07088e-07 0.09159)
(-5.2636e-06 -9.77951e-07 0.0789159)
(-1.16009e-05 -5.09965e-07 0.0901526)
(1.20014e-06 -6.63564e-07 0.0788855)
(1.15892e-06 -1.93461e-07 0.0901146)
(-5.1804e-06 -2.09479e-06 0.0771405)
(-1.02266e-05 -1.16232e-05 0.112207)
(1.46541e-05 -2.71579e-06 0.109782)
(-4.66981e-06 9.52553e-06 0.107445)
(-2.65512e-05 -2.76076e-05 0.104246)
(-6.32426e-06 -6.55816e-06 0.0878219)
(1.3987e-06 1.71571e-07 0.0877928)
(-6.37907e-06 -1.25333e-05 0.10745)
(3.41472e-06 -1.5649e-05 0.109791)
(-4.03094e-06 -1.1848e-05 0.107448)
(3.44293e-06 -1.54749e-05 0.109788)
(-2.67722e-05 2.72078e-05 0.104244)
(4.08255e-06 2.30566e-06 0.0717731)
(2.34507e-06 1.00648e-06 0.0877901)
(-2.02546e-06 -4.17455e-06 0.0717743)
(2.73479e-06 5.04199e-07 0.0878061)
(-4.53436e-05 -4.39775e-05 0.104363)
(-5.03262e-06 -1.08023e-05 0.107446)
(6.15073e-06 -1.07682e-05 0.107447)
(-8.87959e-06 -1.13883e-05 0.107445)
(6.16747e-06 -1.08852e-05 0.107445)
(-2.67039e-05 2.69566e-05 0.104247)
(-2.57494e-06 6.27134e-07 0.0717884)
(4.30452e-05 -4.3215e-05 0.104363)
(2.3949e-06 -7.18907e-07 0.0987008)
(2.54086e-06 4.68822e-07 0.0987005)
(-1.25386e-05 -7.33852e-06 0.107446)
(-1.33992e-05 1.08174e-05 0.107443)
(-9.68756e-07 -3.91873e-07 0.0916308)
(1.1243e-05 5.53495e-06 0.107446)
(-9.5938e-07 5.05399e-07 0.091631)
(1.10248e-05 -6.38351e-06 0.107447)
(2.81854e-05 -2.78594e-05 0.104241)
(-2.11245e-06 -3.14688e-06 0.071788)
(4.06716e-06 1.3761e-05 0.109783)
(-2.98197e-06 -5.91527e-06 0.0824963)
(-4.06731e-07 -1.10568e-06 0.0916313)
(-4.46127e-07 -2.39616e-06 0.0717883)
(-1.29445e-05 -1.26163e-05 0.112239)
(-1.63729e-05 -5.42118e-06 0.0932674)
(3.08639e-05 1.22905e-06 0.101432)
(3.40907e-06 9.79913e-08 0.0932271)
(2.99783e-06 -1.49315e-07 0.0932265)
(1.18104e-05 -5.40732e-06 0.10745)
(1.16404e-05 4.90233e-06 0.107445)
(1.16672e-05 3.79336e-07 0.0916558)
(-2.31185e-06 9.61414e-06 0.107447)
(4.52225e-06 1.43921e-05 0.109785)
(-2.16983e-06 -5.59841e-06 0.0824833)
(4.34917e-08 1.16227e-05 0.091657)
(4.28245e-05 4.11905e-05 0.104352)
(3.64715e-06 2.94436e-06 0.0718213)
(3.58086e-07 -1.19652e-05 0.09164)
(1.62757e-06 4.20424e-06 0.0824633)
(-1.7316e-06 -7.75413e-06 0.0825121)
(5.60998e-07 8.41084e-07 0.0915975)
(2.72129e-06 -2.04499e-06 0.0717601)
(-1.63633e-06 4.99437e-06 0.0718074)
(-1.1619e-06 -1.06671e-05 0.0916681)
(-1.64177e-06 5.43693e-06 0.0824959)
(-7.85286e-07 9.79823e-07 0.0916303)
(-1.72003e-06 -7.36307e-06 0.0825405)
(-5.95049e-07 2.47391e-06 0.0717862)
(2.72219e-06 -2.98671e-06 0.0718344)
(1.15954e-06 8.08179e-08 0.0916306)
(4.94042e-06 -6.44017e-07 0.0824969)
(-1.02445e-05 8.34459e-07 0.0916665)
(-8.18489e-06 -6.48198e-07 0.0825406)
(-1.29946e-05 2.75442e-06 0.114607)
(5.414e-06 1.37932e-05 0.114606)
(1.49226e-05 -4.3112e-06 0.114606)
(-1.30888e-05 -1.21206e-05 0.112184)
(1.15317e-05 -1.15087e-05 0.112184)
(1.11481e-05 -5.59281e-06 0.107448)
(-1.9107e-06 -4.22185e-07 0.0987001)
(-4.62141e-06 2.96792e-07 0.093239)
(2.00192e-05 -4.40112e-07 0.0987539)
(1.10205e-05 -5.81758e-06 0.107448)
(1.45787e-05 -5.35378e-06 0.0932919)
(1.42694e-05 -2.643e-06 0.109779)
(2.99844e-06 2.01152e-06 0.071787)
(-4.36792e-06 1.0407e-06 0.0718348)
(-1.11539e-06 1.34099e-05 0.109783)
(-2.42988e-06 -7.20385e-06 0.0932361)
(-2.42083e-07 -2.45217e-06 0.0987004)
(-2.21961e-06 1.88603e-05 0.0987521)
(-7.93848e-06 1.03268e-05 0.107445)
(-3.10726e-06 1.30985e-05 0.109779)
(-6.94452e-06 1.14927e-05 0.0932875)
(-8.97069e-07 -2.16845e-06 0.0878067)
(-2.31264e-06 -6.14485e-07 0.0878054)
(4.31288e-05 4.32239e-05 0.104357)
(5.38325e-06 5.53762e-06 0.0878482)
(4.4981e-06 5.76896e-06 0.0878493)
(2.2015e-06 2.39858e-06 0.0717602)
(-3.26231e-06 -2.49377e-06 0.0718058)
(-2.30215e-06 -3.87493e-06 0.0718068)
(2.86094e-06 1.24325e-06 0.0717595)
(-6.96273e-07 1.83933e-06 0.0877779)
(2.63434e-05 2.55439e-05 0.104241)
(-4.1636e-05 -4.26082e-05 0.104351)
(2.98675e-06 -1.04797e-06 0.0877768)
(-5.61777e-06 -6.93983e-06 0.0878189)
(-4.82937e-06 -2.29091e-06 0.0718193)
(-2.1357e-07 3.22255e-06 0.0717737)
(3.22036e-06 -5.43612e-07 0.0717739)
(-2.7599e-06 -4.21046e-06 0.0718204)
(2.8113e-05 2.69724e-05 0.104243)
(-4.39679e-06 -6.96812e-06 0.0878354)
(-4.10154e-05 -4.23114e-05 0.104352)
(-7.15452e-06 -4.28299e-06 0.087832)
(9.03486e-07 8.66953e-07 0.087791)
(5.91472e-07 -1.18933e-05 0.0916402)
(7.00323e-07 9.31692e-07 0.0915978)
(-4.86754e-06 -1.23469e-05 0.107448)
(-2.19221e-06 -1.57525e-05 0.10979)
(-2.93909e-06 -1.55751e-05 0.109795)
(4.26686e-07 -2.16047e-05 0.0987304)
(2.5035e-06 2.95896e-06 0.0932095)
(-4.24413e-06 -1.67525e-05 0.0932644)
(1.87027e-07 1.48239e-06 0.0986737)
(3.28099e-06 -1.54749e-05 0.109795)
(9.5793e-07 -2.1502e-05 0.0987307)
(1.0624e-06 1.56182e-06 0.0986738)
(1.5945e-07 3.79644e-07 0.0916152)
(-3.46629e-06 -7.11466e-06 0.0825279)
(-6.68978e-07 4.97477e-06 0.0824807)
(-5.05489e-07 -1.1702e-05 0.0916559)
(5.96357e-07 4.44139e-07 0.0916155)
(2.17506e-06 -7.63115e-06 0.0825285)
(5.15539e-07 5.03397e-06 0.0824798)
(3.23805e-07 -1.17199e-05 0.0916561)
(-1.55546e-06 -1.5577e-05 0.109788)
(-3.93952e-06 -1.12449e-05 0.107446)
(-1.42489e-06 -1.49937e-05 0.109784)
(3.82884e-07 8.77424e-07 0.0986874)
(-6.49153e-06 -1.45308e-05 0.0932771)
(1.22457e-06 2.96034e-06 0.0932245)
(-2.9189e-08 -2.09622e-05 0.0987437)
(5.85248e-06 -1.16458e-05 0.107448)
(5.90086e-06 -1.11307e-05 0.107448)
(3.40237e-06 -1.49368e-05 0.109785)
(9.20809e-07 9.85075e-07 0.0986876)
(6.11576e-06 -1.4808e-05 0.0932792)
(-5.46599e-07 3.52171e-06 0.0932253)
(7.14401e-07 -2.09422e-05 0.098744)
(3.24496e-06 -2.95148e-06 0.0718216)
(-3.5679e-08 2.82923e-06 0.0717715)
(4.24588e-05 -4.21743e-05 0.104354)
(5.5941e-06 -5.92126e-06 0.0878345)
(6.12284e-06 -5.4068e-06 0.0878349)
(-7.08651e-07 8.99026e-07 0.0877903)
(3.0543e-06 -3.21522e-06 0.0718195)
(-2.06583e-06 -2.72348e-06 0.0877801)
(-5.8238e-06 7.17951e-06 0.0878203)
(-6.86316e-06 6.3263e-06 0.0878215)
(-4.03404e-05 4.04751e-05 0.104352)
(-4.68669e-06 1.72993e-06 0.0718061)
(-1.94157e-06 6.51549e-06 0.071821)
(-4.00305e-05 4.0442e-05 0.104348)
(-7.33601e-07 -2.10156e-06 0.0877922)
(2.96465e-05 -2.93482e-05 0.104243)
(-8.8206e-06 2.14541e-06 0.0878326)
(-2.0595e-06 8.88921e-06 0.0878313)
(-6.61502e-06 1.94897e-06 0.0718199)
(-9.12e-07 3.14445e-06 0.0717877)
(-2.70782e-06 -3.38577e-06 0.0718329)
(2.50491e-06 -7.74787e-08 0.0717878)
(-3.85708e-06 -1.7198e-06 0.0718327)
(2.77768e-05 2.675e-05 0.104245)
(-4.14906e-09 3.02318e-06 0.0878047)
(-4.371e-05 -4.33852e-05 0.104356)
(-5.4346e-06 -5.05767e-06 0.0878487)
(-5.50772e-06 -4.27199e-06 0.0878473)
(6.14192e-08 -3.93417e-06 0.0718455)
(1.92478e-06 1.90997e-06 0.0718008)
(-3.30947e-06 -5.40151e-07 0.0718445)
(1.64082e-06 2.65268e-06 0.0718003)
(2.48064e-05 2.55215e-05 0.104251)
(-2.80882e-06 -8.154e-06 0.0878653)
(-8.34775e-06 -2.83849e-06 0.0878628)
(2.4613e-06 1.29438e-06 0.0878213)
(7.63275e-07 3.56761e-06 0.0878193)
(-3.04772e-07 -1.08063e-05 0.0916683)
(2.49088e-07 4.72508e-06 0.0824953)
(2.0631e-07 9.2095e-07 0.0916306)
(1.35913e-06 -7.6804e-06 0.0825429)
(-1.90631e-06 -1.43985e-05 0.109783)
(-1.19485e-06 -1.96392e-05 0.0987534)
(-8.05212e-07 5.43239e-06 0.0932369)
(-6.52908e-06 -1.05455e-05 0.107446)
(-3.21625e-07 1.93134e-06 0.0986999)
(-6.511e-06 -1.3253e-05 0.0932897)
(-2.92744e-06 -1.3793e-05 0.109779)
(3.26288e-06 -1.44154e-05 0.109783)
(1.42764e-07 -1.97813e-05 0.0987538)
(8.08609e-08 4.70755e-06 0.0932382)
(6.18137e-06 -1.05372e-05 0.107447)
(6.29799e-07 1.90711e-06 0.0987003)
(5.33656e-06 -1.43806e-05 0.0932916)
(2.95895e-06 -1.38679e-05 0.109779)
(-1.14843e-06 1.87283e-06 0.0916425)
(1.10009e-06 -8.41103e-06 0.0825539)
(8.33732e-07 4.85287e-06 0.0825077)
(-1.90196e-07 -1.06242e-05 0.0916807)
(-3.17071e-07 1.74437e-06 0.0916429)
(1.19526e-06 -7.52481e-06 0.0825558)
(-4.19821e-07 4.77456e-06 0.082509)
(1.36702e-07 -1.06411e-05 0.091681)
(-1.41437e-06 2.95725e-06 0.0987091)
(-8.2694e-06 -1.0986e-05 0.107446)
(-3.74492e-06 -1.5112e-05 0.0933043)
(-4.69852e-06 -1.38461e-05 0.109772)
(7.36809e-08 5.96297e-06 0.0932495)
(-4.07122e-06 -1.3748e-05 0.109777)
(-1.28002e-06 -1.97541e-05 0.0987626)
(2.54754e-09 2.81533e-06 0.0987095)
(6.26341e-06 -1.07336e-05 0.107445)
(4.5872e-06 -1.45314e-05 0.0933044)
(2.35003e-06 -1.38173e-05 0.109772)
(-8.96777e-07 4.94811e-06 0.0932507)
(2.58337e-06 -1.38235e-05 0.109777)
(-7.98571e-08 -1.98e-05 0.0987629)
(-1.4611e-06 1.31385e-06 0.0878073)
(-1.09689e-06 1.52505e-06 0.0878048)
(4.30091e-05 -4.25563e-05 0.104358)
(5.16584e-06 -5.59293e-06 0.0878493)
(5.57896e-06 -5.42205e-06 0.087849)
(2.81195e-06 -3.12468e-06 0.0718325)
(2.55361e-06 -2.92299e-06 0.0718459)
(-9.69471e-07 2.49398e-06 0.071798)
(-2.61811e-05 2.65178e-05 0.104251)
(4.69903e-06 -6.11044e-06 0.087863)
(-1.98202e-06 1.31597e-06 0.0878187)
(-1.48196e-06 1.65077e-06 0.0878218)
(-2.83094e-06 6.00378e-07 0.0718004)
(5.64646e-06 -7.88652e-07 0.093239)
(-9.88603e-06 -6.16045e-06 0.107449)
(-1.34052e-05 -3.35991e-06 0.109784)
(-1.89874e-05 1.89752e-07 0.0987524)
(-1.03629e-05 -6.97617e-06 0.107447)
(-1.32062e-05 -5.35734e-06 0.0932896)
(-1.30931e-05 -2.94906e-06 0.10978)
(1.29011e-06 1.44139e-06 0.0916299)
(5.77185e-06 2.87767e-06 0.0824959)
(-9.96536e-06 1.85526e-06 0.0916666)
(-7.88614e-06 6.06177e-07 0.0825398)
(-1.31138e-05 1.66011e-06 0.109784)
(-9.19118e-06 5.2929e-06 0.107445)
(7.256e-06 2.65086e-06 0.0932355)
(-1.86698e-05 1.8689e-06 0.0987519)
(-1.00789e-05 8.20105e-06 0.107443)
(-1.27798e-05 3.43596e-06 0.109779)
(-1.15135e-05 6.78844e-06 0.0932869)
(2.31045e-06 8.38023e-07 0.0916403)
(-8.1705e-06 4.86223e-07 0.082554)
(4.17442e-06 1.62512e-06 0.0825078)
(-1.05532e-05 9.13968e-08 0.0916789)
(3.51097e-06 3.95241e-07 0.0987076)
(-1.15045e-05 -7.5324e-06 0.107447)
(-1.57259e-05 -2.76526e-06 0.0933035)
(-1.45327e-05 -2.38976e-06 0.109771)
(5.74232e-06 1.44438e-06 0.0932492)
(-1.36629e-05 -2.57629e-06 0.109777)
(-1.99196e-05 4.61779e-07 0.0987603)
(2.50589e-06 1.66365e-06 0.0916394)
(-9.23377e-06 -3.72605e-06 0.0825541)
(4.03308e-06 -2.61416e-06 0.0825057)
(-1.05421e-05 -1.74586e-07 0.0916793)
(3.7946e-06 2.16731e-06 0.0987069)
(-1.18762e-05 1.07529e-05 0.107444)
(-1.46331e-05 5.83355e-06 0.10977)
(-1.65763e-05 1.29453e-06 0.0933047)
(-1.34952e-05 5.09168e-06 0.109776)
(7.02828e-06 -6.11095e-07 0.0932464)
(-1.98658e-05 1.67417e-06 0.09876)
(-4.72544e-06 -1.72658e-07 0.0824963)
(1.09477e-05 -1.15848e-07 0.0916687)
(7.59192e-06 -1.68092e-06 0.0825427)
(1.4735e-05 2.45542e-06 0.109782)
(-1.9031e-06 4.55718e-07 0.0987002)
(-4.99367e-06 2.34103e-07 0.0932379)
(1.99615e-05 8.14592e-07 0.0987539)
(1.09425e-05 6.17542e-06 0.107446)
(1.42395e-05 3.01477e-06 0.109778)
(1.40103e-05 6.00348e-06 0.093291)
(-4.99712e-06 1.03902e-06 0.0824964)
(1.08975e-05 6.50495e-07 0.0916686)
(7.49293e-06 1.81151e-06 0.0825418)
(-2.50528e-06 -4.11446e-07 0.0987103)
(1.11339e-05 -6.18489e-06 0.107448)
(1.40364e-05 -2.64754e-06 0.109773)
(-4.82763e-06 7.38345e-07 0.0932519)
(1.42506e-05 -2.58227e-06 0.109777)
(-1.53431e-06 -1.12059e-07 0.0916439)
(-4.98214e-06 5.33335e-08 0.0825102)
(-2.58323e-06 9.25741e-07 0.0987103)
(1.11865e-05 7.4574e-06 0.107446)
(1.40086e-05 3.89057e-06 0.109772)
(1.41743e-05 3.59745e-06 0.109776)
(-5.3109e-06 -2.69967e-07 0.0932511)
(-1.59239e-06 6.62123e-07 0.0916439)
(-4.93185e-06 -3.1894e-07 0.0825095)
(-1.15845e-06 -5.05792e-06 0.0878039)
(5.05753e-06 1.14996e-06 0.0878021)
(-4.48341e-05 4.5087e-05 0.104353)
(-5.15175e-06 4.0022e-06 0.0878471)
(-4.25722e-06 4.99532e-06 0.0878486)
(-1.36958e-06 4.28941e-06 0.0718339)
(6.31341e-07 -4.26784e-06 0.0718009)
(2.31641e-05 -2.31044e-05 0.104248)
(2.00155e-07 -4.65471e-06 0.0878194)
(4.38612e-06 -3.89841e-07 0.0878213)
(4.02998e-06 -7.89798e-07 0.0718018)
(6.39586e-06 1.02717e-05 0.107448)
(8.59881e-07 -2.22913e-06 0.0987011)
(3.26735e-07 -5.15672e-06 0.0932403)
(-5.98981e-07 1.92301e-05 0.0987532)
(6.79643e-06 1.05558e-05 0.107447)
(3.16826e-06 1.34605e-05 0.109779)
(5.05452e-06 1.39167e-05 0.0932918)
(-1.69464e-06 -1.33012e-06 0.0916307)
(-2.37367e-06 1.0088e-05 0.0916665)
(-8.84902e-07 7.72496e-06 0.0825396)
(1.56146e-07 -4.81041e-06 0.0824977)
(-1.39221e-06 1.04085e-05 0.0916674)
(7.10015e-07 8.13663e-06 0.0825425)
(-2.62444e-06 -3.60399e-06 0.0987075)
(-1.07603e-05 1.19976e-05 0.107445)
(-5.21329e-06 1.37245e-05 0.109776)
(3.54228e-07 -7.08527e-06 0.0932472)
(-9.19967e-07 -3.24389e-06 0.0987085)
(6.54895e-06 1.11885e-05 0.107447)
(2.26264e-06 1.38433e-05 0.109776)
(-1.56953e-06 -5.09107e-06 0.0932508)
(-2.14508e-06 -2.39892e-06 0.0916407)
(2.36969e-06 -4.19502e-06 0.0825062)
(-1.32977e-06 -2.10114e-06 0.0916413)
(-1.27601e-06 -4.29663e-06 0.0825094)
(-2.84105e-06 2.9166e-07 0.0717874)
(3.09072e-06 2.95297e-06 0.0718327)
(1.94396e-06 3.63193e-06 0.0718341)
(-2.59262e-05 -2.55867e-05 0.104251)
(-1.36153e-06 -1.9249e-06 0.0878217)
(-3.04177e-06 -7.06992e-07 0.0878193)
(-2.43888e-06 -1.21521e-06 0.0718008)
(-2.07778e-06 -1.95003e-06 0.0718007)
(-7.23564e-06 -2.34333e-06 0.082514)
(4.87788e-06 6.44553e-07 0.0824646)
(-1.22118e-05 -9.63235e-07 0.0916417)
(6.63898e-07 -7.44129e-07 0.0915987)
(-3.55325e-06 -1.5256e-05 0.114631)
(-1.33577e-05 2.55166e-06 0.114617)
(5.56181e-06 1.40882e-05 0.114617)
(4.76297e-06 -1.52215e-05 0.11463)
(-1.30452e-05 1.25653e-05 0.11224)
(-4.32904e-06 1.77875e-05 0.0932681)
(-3.00843e-06 1.16768e-05 0.107452)
(1.55612e-06 2.20572e-05 0.0987319)
(-1.21587e-06 1.57323e-05 0.109791)
(3.80609e-06 -1.16868e-06 0.0957901)
(-1.21802e-05 -6.27158e-06 0.107452)
(-1.16435e-05 -5.77688e-06 0.107452)
(-2.18537e-05 -1.15719e-06 0.0987322)
(-1.57243e-05 -3.55734e-06 0.109795)
(1.16219e-06 -7.92602e-07 0.0986752)
(-1.5582e-05 -3.66345e-06 0.109792)
(4.27706e-06 -1.77099e-06 0.0824653)
(-7.30657e-06 3.13807e-06 0.082516)
(-1.23591e-05 -6.34417e-07 0.0916423)
(5.22538e-07 -6.23073e-07 0.0915987)
(-1.71808e-05 4.87144e-06 0.0932679)
(-1.26358e-05 5.60721e-06 0.107453)
(-1.16512e-05 3.55157e-06 0.10745)
(-2.20514e-05 -7.14676e-07 0.0987326)
(-1.59349e-05 2.72859e-06 0.109796)
(1.01026e-06 2.28261e-08 0.0986753)
(-1.57141e-05 1.51932e-06 0.109791)
(5.25729e-06 -9.87314e-07 0.0824823)
(-1.16024e-05 -2.18317e-07 0.0916569)
(-7.41204e-06 -2.70813e-06 0.0825294)
(1.70599e-07 -9.17576e-07 0.091617)
(-1.08243e-05 -5.36059e-06 0.10745)
(-2.06289e-05 -9.30003e-07 0.0987449)
(-1.42392e-05 -6.88087e-06 0.09328)
(-1.00692e-05 -5.56972e-06 0.107449)
(-1.41062e-05 -3.58491e-06 0.109786)
(7.30249e-07 -1.22016e-06 0.0986893)
(-1.50059e-05 -3.70472e-06 0.109789)
(5.47753e-06 2.44188e-06 0.0824833)
(-1.14926e-05 9.82954e-07 0.0916573)
(-6.53317e-06 5.11873e-06 0.0825303)
(3.69847e-08 -2.98321e-07 0.0916169)
(-2.05571e-05 -3.03556e-08 0.098745)
(-1.3938e-05 6.16945e-07 0.109786)
(-9.30408e-06 3.00862e-06 0.107445)
(-1.03239e-05 2.38353e-06 0.107448)
(-1.30521e-05 8.38023e-06 0.0932776)
(5.55585e-07 -7.34972e-07 0.0986895)
(-1.50073e-05 5.99147e-07 0.109789)
(1.50643e-05 -2.74192e-06 0.109784)
(1.13463e-05 -5.32598e-06 0.107449)
(2.08483e-05 -3.0167e-07 0.0987437)
(1.49273e-05 -5.78743e-06 0.0932791)
(1.55731e-05 -2.8313e-06 0.109788)
(1.16395e-05 -3.41397e-07 0.0916557)
(7.73109e-06 -2.06358e-06 0.082528)
(1.52218e-05 2.27573e-06 0.109783)
(2.08814e-05 3.55057e-07 0.0987436)
(1.46718e-05 6.03491e-06 0.0932782)
(1.21831e-05 5.23042e-06 0.107446)
(1.56839e-05 2.47509e-06 0.109787)
(-3.23732e-06 -1.35626e-06 0.0932257)
(7.51073e-06 2.80064e-06 0.0825286)
(-4.96226e-06 1.24156e-07 0.0824814)
(1.98543e-06 2.1695e-05 0.0987315)
(4.21184e-06 1.55782e-05 0.10979)
(-2.81847e-06 7.28414e-06 0.082515)
(1.28411e-06 1.23243e-05 0.0916413)
(1.54801e-06 1.20702e-05 0.0916412)
(8.20885e-08 1.41866e-05 0.109785)
(6.56661e-07 -2.62433e-06 0.0932273)
(-1.70648e-06 1.05485e-05 0.10745)
(-8.07842e-06 1.31571e-05 0.0932778)
(4.68157e-07 2.06303e-05 0.0987446)
(1.56555e-06 -5.4913e-07 0.0986889)
(-4.56513e-08 1.5153e-05 0.109789)
(6.20298e-06 1.04756e-05 0.107448)
(1.28269e-06 2.07336e-05 0.098745)
(6.45441e-06 1.46967e-05 0.0932815)
(2.02196e-06 -8.22838e-07 0.0986886)
(6.18331e-06 1.11664e-05 0.107448)
(4.57341e-06 1.51586e-05 0.109787)
(-2.98833e-07 -3.36826e-06 0.0932265)
(-5.1697e-06 6.44581e-06 0.0825298)
(-1.07077e-06 1.1492e-05 0.0916565)
(8.03334e-07 -1.17701e-07 0.0916172)
(2.21459e-06 7.49659e-06 0.0825303)
(1.36287e-06 -3.01415e-07 0.0916171)
(5.12543e-07 -5.20705e-06 0.0824828)
(6.50348e-06 4.97866e-06 0.0878369)
(4.80169e-06 6.50023e-06 0.087832)
(-2.63079e-05 -2.75856e-05 0.104242)
(-6.53742e-07 -1.28197e-06 0.0877939)
(-5.89533e-07 -8.86531e-07 0.0877914)
(2.63582e-06 4.12974e-06 0.0718193)
(-3.02102e-06 -2.90543e-07 0.0717739)
(4.99024e-08 -3.15758e-06 0.0717745)
(3.91446e-06 5.61241e-07 0.0918794)
(4.0023e-08 9.11912e-07 0.0877858)
(-1.70887e-05 -9.71938e-06 0.0964935)
(-4.60131e-06 -4.65754e-06 0.0818175)
(1.39583e-06 -5.38299e-07 0.0817827)
(-1.07077e-05 -6.81634e-06 0.0919124)
(4.00435e-06 2.57641e-06 0.0964552)
(-1.01324e-05 -7.45073e-06 0.0919179)
(4.86645e-06 2.29916e-06 0.0964585)
(-5.06024e-06 -7.07101e-06 0.0878287)
(2.12506e-06 -1.1912e-06 0.0817909)
(4.48832e-06 -8.33896e-08 0.0918833)
(-3.99433e-06 -4.86314e-06 0.0818261)
(-1.61763e-05 -1.0216e-05 0.0964974)
(-1.32782e-06 6.5773e-06 0.0718141)
(-9.29986e-06 7.49814e-06 0.0919059)
(5.14369e-06 -4.00171e-06 0.0964514)
(-3.61353e-06 8.75223e-06 0.0878255)
(2.66817e-06 3.48528e-06 0.08179)
(4.93445e-06 -3.22653e-07 0.0918737)
(-2.95911e-06 7.26662e-06 0.0818247)
(-1.55329e-05 9.14505e-06 0.0964881)
(-6.4728e-06 1.34816e-06 0.0718129)
(-1.01917e-05 -7.65572e-06 0.0919344)
(6.44213e-06 7.40956e-07 0.0964666)
(2.573e-06 7.15824e-07 0.0818071)
(-4.41906e-06 -5.9362e-06 0.0878419)
(4.98054e-06 -8.27741e-07 0.0918968)
(-4.10377e-06 -1.96962e-06 0.0818419)
(-1.48663e-05 -1.17641e-05 0.0965075)
(2.96841e-06 -3.06065e-06 0.0718264)
(4.88424e-06 2.18014e-07 0.0771786)
(-1.68055e-06 -1.3174e-06 0.0901539)
(-1.5364e-06 -1.87961e-07 0.078927)
(1.12491e-05 -2.86016e-07 0.0916624)
(1.06815e-05 -1.25662e-06 0.0901913)
(4.9717e-06 1.26485e-07 0.0789536)
(-1.73689e-06 -1.21464e-06 0.0771446)
(4.80822e-06 4.49793e-07 0.0771772)
(-1.56243e-06 5.98276e-07 0.0789273)
(-1.77827e-06 1.54194e-06 0.090155)
(1.12427e-05 5.55937e-07 0.0916624)
(4.9497e-06 3.38541e-07 0.0789536)
(1.05574e-05 1.69248e-06 0.0901907)
(-1.92344e-06 1.82507e-06 0.0771463)
(-4.59826e-06 3.06289e-06 0.071827)
(-2.205e-06 2.93831e-06 0.0686965)
(-3.95973e-06 -4.55018e-06 0.0860894)
(-3.74867e-06 6.85133e-06 0.0825348)
(-4.03063e-06 6.37473e-06 0.0861329)
(-4.50654e-06 -2.6988e-06 0.0686474)
(-9.75039e-07 5.16774e-06 0.0771771)
(1.00638e-06 -1.82266e-06 0.0901555)
(-1.14528e-06 -1.52128e-06 0.0789262)
(-8.85134e-07 1.09546e-05 0.0916625)
(6.80173e-07 1.05021e-05 0.0901912)
(-1.39689e-06 4.91741e-06 0.0789533)
(5.18332e-07 -1.53386e-06 0.0771449)
(2.82096e-06 3.38448e-06 0.071828)
(-1.8174e-06 1.6817e-06 0.0771394)
(5.0834e-06 2.91379e-07 0.0789468)
(1.09423e-05 1.41877e-06 0.0901843)
(-6.14071e-07 3.23046e-07 0.0916239)
(4.92449e-06 5.26496e-07 0.0771706)
(-1.44333e-06 4.60953e-07 0.0789202)
(-1.38856e-06 1.1312e-06 0.0901481)
(-2.77234e-06 2.72252e-06 0.06868)
(-4.68038e-06 6.61553e-06 0.0825233)
(-2.18468e-06 -3.40164e-06 0.0860783)
(-3.54124e-06 -2.8049e-06 0.0686313)
(-3.60044e-06 6.84024e-06 0.0861219)
(9.8719e-07 -1.58092e-06 0.0771389)
(1.40668e-06 1.08577e-05 0.0901857)
(-1.2516e-06 5.11363e-06 0.0789476)
(5.74215e-07 -5.30364e-07 0.0916251)
(-5.2394e-07 5.22013e-06 0.077171)
(1.58545e-06 -1.47393e-06 0.0901493)
(-7.11646e-07 -1.35876e-06 0.0789203)
(1.77944e-07 -2.84262e-06 0.0717816)
(-3.89786e-07 1.78218e-06 0.0771232)
(8.62058e-08 -5.16749e-06 0.078932)
(-2.45851e-09 -1.16265e-05 0.0901689)
(4.3993e-07 5.47827e-07 0.0916064)
(4.09893e-08 1.33552e-06 0.0789033)
(3.34122e-07 8.88971e-07 0.0901307)
(4.26076e-07 -4.92445e-06 0.0771566)
(6.34184e-07 -2.90405e-06 0.0686667)
(-5.33015e-07 -8.15417e-06 0.0825034)
(3.50327e-07 2.10724e-06 0.0860608)
(-4.62762e-07 -8.62597e-06 0.0861046)
(-5.079e-07 2.60664e-06 0.0686213)
(-1.32696e-06 2.72571e-06 0.0686271)
(-1.37936e-06 -8.28573e-06 0.0861129)
(6.27201e-07 4.53466e-06 0.0824719)
(-3.41635e-07 2.30756e-06 0.0860694)
(-3.6282e-07 -2.85557e-06 0.0686725)
(1.23298e-06 -4.98963e-06 0.0771484)
(5.58945e-07 -1.17056e-05 0.0916311)
(3.45673e-07 1.31531e-06 0.0788946)
(5.2895e-07 1.09578e-06 0.0901218)
(4.53658e-07 -5.18306e-06 0.0789235)
(4.42679e-07 -1.15223e-05 0.0901601)
(1.95146e-07 1.68742e-06 0.0771147)
(-2.40977e-06 2.70187e-06 0.0718003)
(3.53861e-06 2.18065e-07 0.0717665)
(-2.18364e-06 2.09606e-06 0.0771516)
(-1.13348e-06 1.53061e-06 0.0916366)
(-3.48924e-07 -4.75065e-06 0.0789594)
(-2.3948e-06 -9.92128e-06 0.090196)
(-8.66326e-07 1.75787e-06 0.0789329)
(-2.38919e-06 2.46134e-06 0.0901599)
(-4.43102e-07 -4.70979e-06 0.0771828)
(-1.41273e-06 -2.98701e-06 0.068693)
(-2.6241e-06 3.78441e-06 0.0860913)
(-3.0118e-06 -7.09553e-06 0.0825344)
(-3.18019e-06 2.69674e-06 0.0686482)
(-2.9898e-06 -7.03475e-06 0.0861333)
(-1.18401e-06 -4.71285e-06 0.0771771)
(-9.52381e-07 -1.11442e-05 0.0916623)
(-1.06019e-06 1.57521e-06 0.0789265)
(-2.03369e-06 1.96799e-06 0.0901538)
(-2.57995e-06 2.00975e-06 0.0771454)
(-7.65349e-07 -4.88974e-06 0.0789535)
(-2.33355e-06 -1.02614e-05 0.09019)
(-2.4526e-06 2.61595e-06 0.0686553)
(-2.20484e-06 -7.29048e-06 0.0861401)
(-7.38032e-07 5.3075e-06 0.0825018)
(-2.13364e-06 3.71024e-06 0.0860979)