/*--------------------------------*- C++ -*----------------------------------*\
| =========                 |                                                 |
| \\      /  F ield         | OpenFOAM: The Open Source CFD Toolbox           |
|  \\    /   O peration     | Version:  v2006                                 |
|   \\  /    A nd           | Website:  www.openfoam.com                      |
|    \\/     M anipulation  |                                                 |
\*---------------------------------------------------------------------------*/
FoamFile
{
    version     2.0;
    format      ascii;
    class       volScalarField;
    location    "500";
    object      k;
}
// * * * * * * * * * * * * * * * * * * * * * * * * * * * * * * * * * * * * * //

dimensions      [0 2 -2 0 0 0 0];


internalField   nonuniform List<scalar> 
14199
(
5.68905e-05
3.71543e-05
5.6884e-05
3.71369e-05
6.65035e-05
6.65011e-05
7.06865e-05
6.97412e-05
7.04088e-05
6.65152e-05
6.9749e-05
7.042e-05
7.06757e-05
7.06894e-05
6.97309e-05
7.04093e-05
6.6514e-05
6.97408e-05
7.0421e-05
7.06771e-05
7.06453e-05
7.83284e-05
7.83308e-05
7.06326e-05
2.02746e-05
2.02648e-05
5.8895e-05
5.09454e-05
4.92941e-05
5.69281e-05
5.09455e-05
4.93075e-05
5.89252e-05
5.88751e-05
5.09226e-05
4.9285e-05
5.69227e-05
5.092e-05
4.9299e-05
5.89089e-05
6.12494e-05
5.267e-05
5.26574e-05
6.12761e-05
6.82637e-05
7.00631e-05
6.24051e-05
7.2109e-05
7.21052e-05
4.37384e-05
6.2393e-05
7.0064e-05
4.75216e-05
6.82604e-05
4.37507e-05
7.21244e-05
6.22308e-05
6.82676e-05
7.19423e-05
7.20139e-05
7.19648e-05
6.2278e-05
7.00764e-05
7.0638e-05
7.21237e-05
7.83614e-05
7.83654e-05
7.06261e-05
7.2122e-05
7.00778e-05
9.37174e-05
7.25026e-05
7.24971e-05
9.35306e-05
7.25375e-05
7.25422e-05
7.21734e-05
6.22298e-05
6.82673e-05
7.19511e-05
6.22786e-05
7.2065e-05
7.19746e-05
6.12835e-05
5.27064e-05
5.64442e-05
6.24178e-05
5.64611e-05
5.27011e-05
6.13031e-05
5.64332e-05
6.24069e-05
5.64503e-05
6.27759e-05
5.49493e-05
4.75245e-05
5.49458e-05
5.49699e-05
6.27015e-05
5.49724e-05
2.8023e-05
6.65624e-05
6.65787e-05
5.70034e-05
3.7344e-05
7.2151e-05
5.69906e-05
6.24696e-05
4.38967e-05
3.73441e-05
7.06911e-05
7.04371e-05
6.98003e-05
6.65245e-05
7.04242e-05
6.97615e-05
7.07048e-05
7.06584e-05
7.84976e-05
7.84432e-05
7.06797e-05
7.0696e-05
6.98452e-05
7.04392e-05
6.65327e-05
6.97871e-05
7.04261e-05
7.07104e-05
7.06441e-05
7.84224e-05
7.2131e-05
7.83789e-05
7.06621e-05
7.00834e-05
7.22613e-05
6.82927e-05
6.23309e-05
7.19871e-05
9.38487e-05
7.25451e-05
7.25502e-05
7.22006e-05
7.19766e-05
5.28223e-05
6.14567e-05
6.13757e-05
5.28526e-05
5.10412e-05
5.9027e-05
4.9413e-05
5.69414e-05
5.89529e-05
4.93918e-05
5.10575e-05
5.10298e-05
5.89799e-05
4.94085e-05
5.69377e-05
4.93915e-05
5.89316e-05
5.10341e-05
5.27646e-05
6.13532e-05
5.65366e-05
6.24251e-05
6.13072e-05
5.65081e-05
5.2778e-05
6.28463e-05
5.50536e-05
4.20728e-05
3.68782e-05
6.95447e-05
6.69151e-05
7.1388e-05
7.74309e-05
6.95567e-05
6.6953e-05
5.9496e-05
5.94076e-05
7.11739e-05
7.0146e-05
5.07109e-05
5.07021e-05
5.9665e-05
4.83196e-05
6.0294e-05
5.86513e-05
5.27349e-05
1.3013e-05
1.30161e-05
1.30141e-05
1.3015e-05
3.68994e-05
3.68712e-05
3.68999e-05
4.21203e-05
6.48473e-05
7.13733e-05
6.47535e-05
6.9543e-05
5.27216e-05
5.35982e-05
5.269e-05
2.92534e-05
4.59635e-05
6.48456e-05
7.13703e-05
6.47519e-05
5.35986e-05
2.92587e-05
4.83083e-05
4.59717e-05
6.69397e-05
6.69376e-05
6.9542e-05
7.13735e-05
7.01583e-05
6.83171e-05
6.9877e-05
6.48074e-05
6.82806e-05
6.98666e-05
7.01689e-05
7.02094e-05
7.13899e-05
7.74129e-05
7.74327e-05
7.01984e-05
7.01548e-05
6.47904e-05
6.82342e-05
6.98525e-05
6.82664e-05
6.98625e-05
7.01446e-05
6.95561e-05
7.01557e-05
6.98758e-05
6.83132e-05
6.4806e-05
6.98654e-05
6.82773e-05
7.01664e-05
7.0208e-05
7.13849e-05
7.73999e-05
7.74188e-05
7.01967e-05
7.01523e-05
6.47889e-05
6.98514e-05
6.82309e-05
6.98613e-05
6.8263e-05
7.01423e-05
7.02707e-05
5.9454e-05
6.69728e-05
7.11688e-05
7.11888e-05
5.95252e-05
7.02034e-05
7.02186e-05
5.94464e-05
6.69709e-05
7.11597e-05
5.95179e-05
7.11798e-05
7.01508e-05
9.24972e-05
7.20495e-05
7.20563e-05
7.20591e-05
7.2066e-05
9.24676e-05
6.95551e-05
7.02095e-05
7.13882e-05
7.74184e-05
7.74395e-05
7.01976e-05
5.07514e-05
5.07521e-05
5.97082e-05
5.97846e-05
4.21356e-05
5.079e-05
5.07905e-05
4.83098e-05
6.02658e-05
5.86066e-05
4.83342e-05
6.03138e-05
5.27583e-05
5.86645e-05
4.61307e-05
5.58747e-05
4.42387e-05
5.35218e-05
5.58028e-05
4.42081e-05
4.61484e-05
4.82896e-05
6.02431e-05
5.8592e-05
4.83151e-05
6.02948e-05
5.86493e-05
5.27325e-05
5.34068e-05
5.56974e-05
4.40317e-05
4.59799e-05
5.34821e-05
5.5766e-05
4.40621e-05
4.61381e-05
4.42406e-05
5.58773e-05
5.35226e-05
4.42102e-05
5.58072e-05
4.61549e-05
5.27218e-05
6.02651e-05
5.86033e-05
4.83324e-05
6.0312e-05
5.86594e-05
5.27582e-05
5.34074e-05
4.40337e-05
5.57023e-05
4.59882e-05
5.34828e-05
4.40643e-05
5.57708e-05
7.2131e-05
6.24346e-05
3.71464e-05
4.34759e-05
4.71834e-05
7.00881e-05
6.83882e-05
4.3472e-05
4.37494e-05
4.73444e-05
4.33679e-05
4.33634e-05
6.6483e-05
3.71307e-05
4.37476e-05
5.68601e-05
6.64868e-05
5.68685e-05
6.82658e-05
7.00389e-05
7.00506e-05
2.02627e-05
2.02728e-05
2.76343e-05
2.75919e-05
5.68906e-05
6.24355e-05
3.67406e-05
4.36089e-05
6.24248e-05
3.69573e-05
5.6742e-05
6.24019e-05
5.68708e-05
5.67385e-05
6.81979e-05
6.82031e-05
4.73081e-05
6.82097e-05
6.82078e-05
7.00855e-05
4.75662e-05
6.83917e-05
7.207e-05
7.2082e-05
6.24294e-05
4.36053e-05
6.24201e-05
6.65106e-05
7.21303e-05
6.65238e-05
5.6882e-05
6.24459e-05
3.7134e-05
5.68965e-05
3.71486e-05
6.83583e-05
6.83588e-05
4.73702e-05
6.8248e-05
6.8246e-05
7.00381e-05
7.00496e-05
6.65294e-05
7.20738e-05
7.20847e-05
6.64658e-05
5.6877e-05
3.67211e-05
6.23175e-05
4.35324e-05
3.69344e-05
6.23641e-05
5.6736e-05
6.65174e-05
7.20677e-05
7.20979e-05
6.64613e-05
5.68641e-05
3.67172e-05
6.23203e-05
4.3529e-05
3.69311e-05
6.23615e-05
5.6735e-05
7.00368e-05
7.00705e-05
7.00399e-05
7.00736e-05
7.06529e-05
7.21498e-05
7.83589e-05
7.06311e-05
7.84092e-05
7.01027e-05
7.25095e-05
6.24584e-05
6.84466e-05
7.20152e-05
6.25373e-05
7.24742e-05
7.20187e-05
7.06904e-05
6.97201e-05
6.65136e-05
7.04089e-05
7.06772e-05
6.97622e-05
7.04207e-05
7.06862e-05
6.65096e-05
7.04077e-05
6.97276e-05
7.06746e-05
7.0419e-05
6.97472e-05
7.0641e-05
7.83402e-05
7.06273e-05
7.83611e-05
7.19561e-05
6.82739e-05
6.22133e-05
7.19329e-05
7.19682e-05
6.22027e-05
7.19203e-05
9.3299e-05
7.24819e-05
7.24769e-05
7.24451e-05
9.33532e-05
7.24512e-05
7.00458e-05
7.00446e-05
9.3289e-05
7.25084e-05
7.25047e-05
7.24874e-05
7.2483e-05
9.33653e-05
7.1799e-05
6.20211e-05
6.81964e-05
7.1894e-05
6.20493e-05
7.19198e-05
7.17554e-05
7.18374e-05
6.20324e-05
6.81995e-05
7.19018e-05
6.20607e-05
7.1927e-05
7.17908e-05
7.18618e-05
7.19614e-05
6.81969e-05
6.21433e-05
6.20781e-05
7.19333e-05
7.19436e-05
7.19001e-05
7.19689e-05
6.81986e-05
6.21503e-05
6.2088e-05
7.19405e-05
7.1983e-05
9.31932e-05
7.24452e-05
7.24403e-05
7.2479e-05
7.24741e-05
9.30845e-05
7.01e-05
9.42879e-05
7.25968e-05
7.25983e-05
9.42774e-05
7.25913e-05
7.25919e-05
7.2499e-05
6.24629e-05
7.20096e-05
6.84452e-05
7.24761e-05
7.20128e-05
6.25305e-05
7.06274e-05
7.20741e-05
7.83705e-05
7.83785e-05
7.06133e-05
7.06276e-05
7.83751e-05
7.2076e-05
7.83756e-05
7.0639e-05
7.06894e-05
7.04083e-05
6.97456e-05
6.65366e-05
7.0677e-05
7.042e-05
6.97763e-05
7.0647e-05
7.83842e-05
7.21473e-05
7.06287e-05
7.84148e-05
7.06864e-05
7.04075e-05
6.97737e-05
6.6541e-05
7.06753e-05
7.04189e-05
6.97785e-05
7.0648e-05
7.83686e-05
7.06378e-05
7.83649e-05
9.27104e-05
7.23416e-05
7.23465e-05
7.23401e-05
7.23451e-05
9.24975e-05
7.1916e-05
6.22643e-05
6.83473e-05
7.18763e-05
7.18682e-05
6.22258e-05
7.20825e-05
7.18692e-05
6.2261e-05
6.83476e-05
7.18688e-05
6.22238e-05
7.18604e-05
7.20355e-05
7.17393e-05
7.18594e-05
6.8307e-05
6.20819e-05
7.18593e-05
6.21426e-05
7.16128e-05
7.16905e-05
7.18512e-05
6.83053e-05
6.20799e-05
6.21404e-05
7.18513e-05
7.15637e-05
9.30324e-05
7.23881e-05
7.23938e-05
7.23659e-05
7.23711e-05
9.33984e-05
7.00448e-05
7.0044e-05
7.06607e-05
6.97751e-05
7.04035e-05
6.65101e-05
6.97673e-05
7.03921e-05
7.06717e-05
7.06249e-05
7.20774e-05
7.83922e-05
7.8394e-05
7.06114e-05
7.06243e-05
7.83862e-05
7.2079e-05
7.83901e-05
7.06362e-05
7.06568e-05
6.6501e-05
6.97332e-05
7.03762e-05
6.97628e-05
7.03874e-05
7.06456e-05
7.06612e-05
7.04034e-05
6.9748e-05
6.64996e-05
7.0392e-05
6.97407e-05
7.06721e-05
7.06211e-05
7.20788e-05
7.83556e-05
7.83559e-05
7.06112e-05
7.06198e-05
7.83472e-05
7.20844e-05
7.83496e-05
7.063e-05
7.06574e-05
6.64919e-05
7.03764e-05
6.97204e-05
7.03874e-05
6.9739e-05
7.0647e-05
7.00497e-05
7.00542e-05
7.00527e-05
7.00572e-05
7.00605e-05
6.64566e-05
7.21027e-05
6.65003e-05
6.64549e-05
7.20688e-05
6.64976e-05
7.20985e-05
7.00521e-05
7.06589e-05
7.03785e-05
6.97162e-05
6.64817e-05
7.06485e-05
7.03895e-05
6.9733e-05
7.06167e-05
7.2091e-05
7.83624e-05
7.83608e-05
7.06272e-05
7.06621e-05
6.64872e-05
6.97408e-05
7.04043e-05
7.03937e-05
6.97344e-05
7.06722e-05
7.06584e-05
7.03786e-05
6.97104e-05
6.64789e-05
7.06484e-05
7.03894e-05
6.97239e-05
7.06225e-05
7.83438e-05
7.20796e-05
7.06122e-05
7.8343e-05
7.06621e-05
6.64842e-05
6.97301e-05
7.04045e-05
7.03937e-05
6.97239e-05
7.06727e-05
7.06216e-05
7.20852e-05
7.83339e-05
7.8336e-05
7.06324e-05
5.27003e-05
5.64914e-05
6.25112e-05
6.12555e-05
5.26688e-05
6.13302e-05
5.65467e-05
6.2447e-05
5.46524e-05
5.46554e-05
4.71857e-05
5.46699e-05
5.46734e-05
6.24151e-05
6.26104e-05
5.48607e-05
5.48632e-05
4.73333e-05
5.48447e-05
5.48419e-05
6.27078e-05
5.09169e-05
5.8856e-05
4.92654e-05
5.69112e-05
5.09039e-05
5.89169e-05
4.92842e-05
5.09306e-05
4.9276e-05
5.69121e-05
5.88746e-05
5.09296e-05
4.92913e-05
5.89096e-05
5.26908e-05
6.12624e-05
5.2685e-05
6.12861e-05
2.80013e-05
2.02641e-05
1.99155e-05
1.99137e-05
2.78314e-05
2.00945e-05
2.0094e-05
1.29194e-05
1.28259e-05
1.99103e-05
1.99072e-05
2.77946e-05
2.00899e-05
2.00864e-05
1.29195e-05
1.28264e-05
2.02712e-05
5.08547e-05
5.89101e-05
4.91994e-05
5.68382e-05
5.88702e-05
4.91803e-05
5.08575e-05
5.25709e-05
5.63892e-05
6.24404e-05
6.12474e-05
5.63938e-05
6.12881e-05
5.25574e-05
5.2647e-05
6.13044e-05
6.24346e-05
5.63923e-05
5.64006e-05
6.12976e-05
5.26463e-05
5.07371e-05
5.68096e-05
5.87856e-05
4.90371e-05
5.88474e-05
4.90625e-05
5.07243e-05
6.23976e-05
6.12544e-05
6.12736e-05
5.26253e-05
5.6407e-05
5.63969e-05
5.26316e-05
5.88437e-05
5.6825e-05
5.88798e-05
5.08396e-05
4.91911e-05
4.9173e-05
5.08437e-05
5.87717e-05
5.88236e-05
5.67996e-05
5.07237e-05
4.90328e-05
4.90571e-05
5.07125e-05
6.25162e-05
4.72951e-05
5.47784e-05
5.47814e-05
5.47435e-05
5.47468e-05
6.25901e-05
6.30776e-05
5.50961e-05
4.76048e-05
5.51067e-05
5.51706e-05
6.30218e-05
5.51711e-05
5.25618e-05
5.63834e-05
6.24344e-05
6.12339e-05
6.12756e-05
5.63876e-05
5.25488e-05
5.26382e-05
6.12948e-05
6.24295e-05
5.63865e-05
6.12855e-05
5.26373e-05
5.63949e-05
5.09303e-05
5.88777e-05
4.92781e-05
5.69343e-05
5.09173e-05
5.89373e-05
4.92972e-05
5.27128e-05
5.65036e-05
6.12772e-05
6.25185e-05
5.65569e-05
5.26819e-05
6.13482e-05
5.09409e-05
5.89108e-05
4.92908e-05
5.69395e-05
5.09439e-05
5.8935e-05
4.93052e-05
5.2679e-05
6.12891e-05
5.26857e-05
6.12872e-05
6.24949e-05
4.73897e-05
5.47832e-05
5.47856e-05
5.48341e-05
5.48316e-05
6.24076e-05
5.08163e-05
4.91874e-05
5.88701e-05
5.68262e-05
4.91687e-05
5.88297e-05
5.08212e-05
5.24879e-05
5.62394e-05
6.23338e-05
6.11733e-05
5.62563e-05
6.12041e-05
5.2477e-05
5.25688e-05
6.1245e-05
6.23423e-05
5.63341e-05
5.63099e-05
6.12183e-05
5.258e-05
5.07046e-05
5.67989e-05
4.90302e-05
5.87588e-05
4.90538e-05
5.88088e-05
5.06961e-05
5.68187e-05
5.88228e-05
5.88587e-05
5.08129e-05
4.91824e-05
4.91648e-05
5.08168e-05
6.12014e-05
6.11733e-05
6.2335e-05
5.24868e-05
5.62414e-05
5.62586e-05
5.24763e-05
6.12137e-05
6.12362e-05
6.23421e-05
5.25669e-05
5.63351e-05
5.63116e-05
5.25769e-05
5.67939e-05
5.88039e-05
5.87569e-05
5.07019e-05
4.90279e-05
4.90511e-05
5.06937e-05
1.09065e-05
4.21502e-05
2.1968e-05
3.78029e-05
3.78081e-05
4.28886e-05
2.27478e-05
3.86937e-05
3.8694e-05
4.34782e-05
2.35415e-05
3.95463e-05
3.95584e-05
4.42562e-05
2.4346e-05
4.03974e-05
4.03529e-05
4.48339e-05
2.51602e-05
4.11532e-05
4.11916e-05
4.56203e-05
2.59871e-05
4.19187e-05
4.19363e-05
4.60405e-05
2.67911e-05
4.26458e-05
4.26474e-05
4.66545e-05
4.27212e-05
3.75964e-05
3.75636e-05
4.26556e-05
3.75931e-05
3.7585e-05
3.69055e-05
3.75668e-05
3.76265e-05
4.26838e-05
3.69009e-05
3.75864e-05
3.76245e-05
4.27403e-05
4.28939e-05
4.3381e-05
3.78334e-05
3.77998e-05
3.84792e-05
3.84807e-05
4.28385e-05
4.34023e-05
3.78294e-05
3.78062e-05
3.84755e-05
3.84652e-05
3.78449e-05
3.84803e-05
3.84344e-05
4.28405e-05
4.33866e-05
3.7842e-05
3.84675e-05
3.84302e-05
4.33139e-05
4.35241e-05
4.40743e-05
3.8687e-05
3.86947e-05
3.93321e-05
3.93242e-05
4.35524e-05
4.40609e-05
3.8683e-05
3.86923e-05
3.93284e-05
3.93581e-05
3.86566e-05
3.9327e-05
3.93536e-05
4.35572e-05
4.41044e-05
3.86537e-05
3.93583e-05
3.93498e-05
4.41145e-05
4.42335e-05
4.47088e-05
3.95531e-05
3.95417e-05
4.01633e-05
4.01866e-05
4.42176e-05
4.47755e-05
3.95494e-05
3.95567e-05
4.01592e-05
4.0147e-05
3.95618e-05
4.01877e-05
4.01499e-05
4.42393e-05
4.46784e-05
3.95587e-05
4.01489e-05
4.01455e-05
4.46824e-05
4.4841e-05
4.53649e-05
4.03582e-05
4.03977e-05
4.0969e-05
4.09783e-05
4.49241e-05
4.53506e-05
4.03527e-05
4.0351e-05
4.09639e-05
4.09789e-05
4.0349e-05
4.09809e-05
4.10115e-05
4.48329e-05
4.53901e-05
4.03448e-05
4.0979e-05
4.10054e-05
4.54565e-05
4.55192e-05
4.59945e-05
4.11743e-05
4.11497e-05
4.17739e-05
4.17195e-05
4.54657e-05
4.59104e-05
4.11701e-05
4.1188e-05
4.1772e-05
4.17588e-05
4.12361e-05
4.17229e-05
4.1777e-05
4.55382e-05
4.59566e-05
4.12337e-05
4.17601e-05
4.1775e-05
4.59566e-05
4.61241e-05
4.65359e-05
4.19567e-05
4.19153e-05
4.24923e-05
4.24472e-05
4.60587e-05
4.64892e-05
4.19557e-05
4.19296e-05
4.24859e-05
4.24561e-05
4.19186e-05
4.24482e-05
4.24423e-05
4.60673e-05
4.65016e-05
4.19196e-05
4.24522e-05
4.24348e-05
4.6486e-05
4.66612e-05
4.70102e-05
4.26735e-05
4.26455e-05
4.31602e-05
4.32943e-05
4.6638e-05
4.72552e-05
4.26716e-05
4.26414e-05
4.31507e-05
4.32624e-05
4.2644e-05
4.32978e-05
4.32043e-05
4.66534e-05
6.82964e-05
4.26436e-05
5.05823e-05
4.89039e-05
6.82154e-05
6.48443e-05
7.14127e-05
6.9568e-05
7.14148e-05
2.12044e-05
1.0907e-05
2.11972e-05
2.17687e-05
2.17626e-05
2.17724e-05
2.1786e-05
5.36026e-05
2.92618e-05
3.71057e-05
6.03619e-05
2.95019e-05
4.59772e-05
6.95728e-05
5.36042e-05
2.92591e-05
3.71301e-05
2.95047e-05
6.0394e-05
4.40328e-05
6.69797e-05
6.69883e-05
4.23784e-05
6.70692e-05
6.70834e-05
6.51e-05
7.14641e-05
6.49936e-05
7.14953e-05
6.96057e-05
6.96299e-05
6.50952e-05
7.14664e-05
6.49948e-05
7.1497e-05
2.19578e-05
2.19642e-05
2.19793e-05
2.25539e-05
2.25503e-05
2.2549e-05
2.25433e-05
5.40858e-05
6.05734e-05
3.02385e-05
3.80346e-05
5.38886e-05
6.07028e-05
3.04869e-05
6.96023e-05
6.96266e-05
5.40838e-05
3.02448e-05
6.05735e-05
3.80265e-05
5.38908e-05
3.04912e-05
6.06775e-05
6.71663e-05
6.7171e-05
4.30292e-05
6.71532e-05
6.71556e-05
6.52951e-05
7.15403e-05
6.52141e-05
7.15812e-05
6.9659e-05
6.96889e-05
6.53001e-05
7.15424e-05
6.52103e-05
7.1583e-05
2.27475e-05
2.27479e-05
2.27365e-05
2.33399e-05
2.33391e-05
2.33537e-05
2.33461e-05
5.45064e-05
6.08374e-05
3.12179e-05
3.89026e-05
5.43315e-05
6.09411e-05
3.1456e-05
6.96638e-05
6.96916e-05
5.45099e-05
3.12187e-05
6.08398e-05
3.89228e-05
5.43308e-05
3.14604e-05
6.09786e-05
6.72695e-05
6.72824e-05
4.37244e-05
6.74199e-05
6.74306e-05
6.55303e-05
7.16357e-05
6.54305e-05
7.16688e-05
6.97248e-05
6.97518e-05
6.55272e-05
7.16368e-05
6.54347e-05
7.16706e-05
2.35404e-05
2.3553e-05
2.35487e-05
2.41474e-05
2.41553e-05
2.41438e-05
2.41448e-05
5.4965e-05
6.11234e-05
3.21809e-05
3.97639e-05
5.47821e-05
6.12389e-05
3.24244e-05
6.9718e-05
6.9744e-05
5.49618e-05
3.21897e-05
6.11328e-05
3.97519e-05
5.47821e-05
3.24281e-05
6.12132e-05
6.75046e-05
6.7512e-05
4.43915e-05
6.74995e-05
6.75074e-05
6.57288e-05
7.17164e-05
6.56459e-05
7.17546e-05
6.97831e-05
6.98089e-05
6.57182e-05
7.17185e-05
6.56367e-05
7.1757e-05
2.43609e-05
2.43449e-05
2.43428e-05
2.49521e-05
2.4967e-05
2.49576e-05
2.49688e-05
5.53574e-05
6.13855e-05
3.3138e-05
4.06033e-05
5.51886e-05
6.15062e-05
3.33721e-05
6.97853e-05
6.98164e-05
5.534e-05
3.31296e-05
6.13464e-05
4.05582e-05
5.51813e-05
3.33606e-05
6.14657e-05
6.75796e-05
6.75816e-05
4.50495e-05
6.77206e-05
6.77232e-05
6.5932e-05
7.18109e-05
6.58408e-05
7.18501e-05
6.98349e-05
6.98682e-05
6.59462e-05
7.18143e-05
6.58432e-05
7.18537e-05
2.51617e-05
2.51662e-05
2.51865e-05
2.5784e-05
2.57615e-05
2.57861e-05
2.58009e-05
5.5763e-05
6.16141e-05
3.40653e-05
4.13309e-05
5.56009e-05
6.16884e-05
3.42914e-05
6.98503e-05
6.98754e-05
5.57826e-05
3.40657e-05
6.16507e-05
4.13924e-05
5.55966e-05
3.4304e-05
6.17647e-05
6.79014e-05
6.7913e-05
4.57781e-05
6.79339e-05
6.79477e-05
6.61219e-05
7.18931e-05
6.60545e-05
7.19266e-05
6.99122e-05
6.99375e-05
6.61144e-05
7.18936e-05
6.6062e-05
7.1926e-05
2.59649e-05
2.59839e-05
2.59884e-05
2.65905e-05
2.65642e-05
2.65765e-05
2.65693e-05
5.61321e-05
6.18695e-05
3.49708e-05
4.20999e-05
5.59887e-05
6.19469e-05
3.51923e-05
6.99043e-05
6.99336e-05
5.61283e-05
3.49892e-05
6.18676e-05
4.21053e-05
5.60063e-05
3.52062e-05
6.19189e-05
6.786e-05
6.78697e-05
4.61347e-05
6.78661e-05
6.78699e-05
6.63106e-05
7.19794e-05
6.62149e-05
7.20171e-05
6.99824e-05
7.00161e-05
6.63163e-05
7.19825e-05
6.62072e-05
7.20204e-05
2.67713e-05
2.67787e-05
2.67718e-05
2.73759e-05
1.97393e-05
2.74115e-05
1.2736e-05
5.6475e-05
6.20328e-05
3.58364e-05
4.28588e-05
5.63138e-05
6.22176e-05
3.60539e-05
6.99861e-05
7.00227e-05
5.64696e-05
3.58359e-05
6.2037e-05
4.28453e-05
5.62979e-05
3.60511e-05
6.22134e-05
6.81179e-05
6.81232e-05
4.68484e-05
6.82086e-05
6.82168e-05
6.95744e-05
6.95767e-05
4.23028e-05
6.70336e-05
6.7043e-05
6.96034e-05
6.95775e-05
6.96056e-05
6.95798e-05
4.24882e-05
6.71693e-05
6.71759e-05
6.70618e-05
6.70701e-05
6.48422e-05
7.14038e-05
5.35972e-05
3.7111e-05
6.03821e-05
2.94982e-05
5.35955e-05
3.71057e-05
6.03529e-05
2.95009e-05
6.48629e-05
7.1458e-05
7.14201e-05
6.4973e-05
6.48605e-05
7.14532e-05
7.14118e-05
6.49699e-05
5.36372e-05
3.73537e-05
6.05692e-05
2.99905e-05
6.04135e-05
2.97435e-05
5.38384e-05
5.36349e-05
3.73303e-05
6.05356e-05
2.99852e-05
6.03811e-05
2.97417e-05
5.38338e-05
4.22643e-05
6.69809e-05
6.69846e-05
6.95677e-05
6.96035e-05
6.9572e-05
4.24262e-05
6.71374e-05
6.71403e-05
6.70111e-05
6.70115e-05
6.96028e-05
6.95718e-05
3.71062e-05
6.03847e-05
2.94962e-05
7.14071e-05
3.71297e-05
2.95026e-05
6.03908e-05
6.48661e-05
7.14605e-05
7.14224e-05
6.4975e-05
5.3639e-05
3.73491e-05
6.05718e-05
2.99916e-05
6.04163e-05
2.97428e-05
5.38421e-05
6.48644e-05
7.14507e-05
7.14141e-05
6.49714e-05
5.36392e-05
3.73597e-05
2.99934e-05
6.05473e-05
2.97482e-05
6.04177e-05
5.38397e-05
6.48529e-05
7.14095e-05
6.47548e-05
5.3603e-05
2.92587e-05
5.2746e-05
3.71468e-05
2.95054e-05
6.0417e-05
4.59704e-05
6.48501e-05
7.13751e-05
7.14135e-05
6.47527e-05
5.36435e-05
3.73322e-05
6.0545e-05
2.99907e-05
6.03907e-05
2.97449e-05
5.38467e-05
6.48723e-05
7.14553e-05
7.14167e-05
6.49812e-05
5.36446e-05
3.73899e-05
3.00032e-05
6.05815e-05
2.97535e-05
6.04456e-05
5.38512e-05
6.48703e-05
7.14512e-05
7.14198e-05
6.49846e-05
4.2318e-05
6.70397e-05
6.70376e-05
6.95719e-05
6.96005e-05
6.95755e-05
4.24856e-05
6.71348e-05
6.71351e-05
6.70607e-05
6.70592e-05
6.96e-05
6.95747e-05
5.3606e-05
2.92561e-05
5.27465e-05
3.71435e-05
2.95044e-05
6.0425e-05
4.59668e-05
6.48536e-05
7.14101e-05
6.47523e-05
6.48558e-05
7.13787e-05
7.14162e-05
6.47526e-05
5.3646e-05
3.73603e-05
2.99977e-05
6.05516e-05
2.97512e-05
6.04211e-05
5.38493e-05
5.36484e-05
3.7388e-05
3.00047e-05
6.05851e-05
2.97542e-05
6.04538e-05
5.38534e-05
6.4873e-05
7.14546e-05
7.14169e-05
6.49795e-05
6.48756e-05
7.14507e-05
7.14219e-05
6.49833e-05
6.95488e-05
6.95721e-05
6.9552e-05
6.95752e-05
4.25499e-05
6.71647e-05
6.71706e-05
6.70918e-05
6.71054e-05
6.95979e-05
6.95745e-05
6.96001e-05
6.95774e-05
6.9605e-05
6.96256e-05
6.96072e-05
6.96279e-05
6.71843e-05
6.71906e-05
4.30809e-05
6.72267e-05
6.72332e-05
6.96522e-05
6.96271e-05
6.96544e-05
6.96294e-05
4.32263e-05
6.72588e-05
6.72647e-05
6.72297e-05
6.7236e-05
6.50977e-05
7.14602e-05
6.49905e-05
7.14949e-05
5.40861e-05
6.05955e-05
3.02406e-05
3.80569e-05
5.38813e-05
6.07084e-05
3.04887e-05
5.40824e-05
6.05654e-05
3.02327e-05
3.80321e-05
5.38768e-05
6.07008e-05
3.04808e-05
6.51165e-05
7.15334e-05
7.15008e-05
6.52006e-05
6.51144e-05
7.15324e-05
7.15007e-05
6.51998e-05
5.41259e-05
3.82715e-05
6.08091e-05
3.09795e-05
6.0725e-05
3.07357e-05
5.43087e-05
5.41227e-05
3.82594e-05
6.08226e-05
3.09758e-05
6.07227e-05
3.07293e-05
5.43077e-05
6.716e-05
6.71612e-05
4.30582e-05
6.72341e-05
6.72326e-05
6.96053e-05
6.96292e-05
6.96563e-05
6.96314e-05
4.32208e-05
6.72837e-05
6.72769e-05
6.7243e-05
6.724e-05
6.96558e-05
6.9631e-05
5.4085e-05
6.0598e-05
3.02413e-05
3.80535e-05
5.38847e-05
6.07103e-05
3.049e-05
6.50896e-05
7.14571e-05
6.49907e-05
7.14922e-05
5.40795e-05
3.02393e-05
6.0569e-05
3.80246e-05
5.38814e-05
3.04857e-05
6.06714e-05
6.51109e-05
7.15354e-05
7.15024e-05
6.51953e-05
5.41237e-05
3.82669e-05
6.08099e-05
3.09788e-05
6.07266e-05
3.07358e-05
5.43033e-05
6.51054e-05
7.15377e-05
7.1499e-05
6.51915e-05
5.4118e-05
3.82427e-05
3.09741e-05
6.08098e-05
3.07306e-05
6.06913e-05
5.42994e-05
6.50959e-05
7.1462e-05
6.50001e-05
7.14967e-05
5.40877e-05
3.0252e-05
6.06003e-05
3.80437e-05
5.38933e-05
3.04976e-05
6.06665e-05
6.50967e-05
7.1456e-05
6.50039e-05
7.14843e-05
5.41233e-05
3.82604e-05
6.08196e-05
3.09768e-05
6.07233e-05
3.07335e-05
5.42969e-05
6.51101e-05
7.15353e-05
7.15024e-05
6.51867e-05
5.41236e-05
3.82334e-05
3.09725e-05
6.07632e-05
3.07371e-05
6.0676e-05
5.42902e-05
6.51093e-05
7.15311e-05
7.14905e-05
6.51803e-05
6.71426e-05
6.71432e-05
4.30219e-05
6.71817e-05
6.71838e-05
6.96017e-05
6.96259e-05
6.96604e-05
6.96295e-05
4.31792e-05
6.7294e-05
6.72905e-05
6.71942e-05
6.7196e-05
6.96592e-05
6.96287e-05
5.40836e-05
3.02534e-05
6.06021e-05
3.8039e-05
5.38946e-05
3.04977e-05
6.06634e-05
6.50909e-05
7.14612e-05
6.49978e-05
7.14964e-05
6.50897e-05
7.14556e-05
6.5001e-05
7.14863e-05
5.41211e-05
3.82455e-05
3.09781e-05
6.08131e-05
3.07357e-05
6.06974e-05
5.42951e-05
5.41196e-05
3.82285e-05
3.09724e-05
6.07678e-05
3.07364e-05
6.06733e-05
5.42894e-05
6.51054e-05
7.15386e-05
7.15027e-05
6.51865e-05
6.51034e-05
7.15349e-05
7.14932e-05
6.51833e-05
6.95987e-05
6.96171e-05
6.96008e-05
6.96196e-05
4.31553e-05
6.72251e-05
6.72383e-05
6.71495e-05
6.71528e-05
6.96557e-05
6.96196e-05
6.9659e-05
6.96223e-05
6.96554e-05
6.96869e-05
6.96577e-05
6.96892e-05
6.72709e-05
6.72772e-05
4.37095e-05
6.73601e-05
6.73701e-05
6.97203e-05
6.96905e-05
6.9722e-05
6.96926e-05
4.38705e-05
6.74859e-05
6.74938e-05
6.73814e-05
6.73918e-05
6.52945e-05
7.15388e-05
6.52134e-05
7.15767e-05
5.45131e-05
6.08271e-05
3.12206e-05
3.88968e-05
5.4344e-05
6.09367e-05
3.14595e-05
5.45127e-05
6.08404e-05
3.12191e-05
3.89036e-05
5.43433e-05
6.09384e-05
3.1459e-05
6.53115e-05
7.16293e-05
7.15892e-05
6.54114e-05
6.53108e-05
7.16255e-05
7.15845e-05
6.54095e-05
5.45488e-05
3.91117e-05
6.11019e-05
3.19365e-05
6.09625e-05
3.16976e-05
5.47295e-05
5.45482e-05
3.9112e-05
6.10833e-05
3.19349e-05
6.09605e-05
3.1697e-05
5.47273e-05
6.72934e-05
6.72864e-05
4.37281e-05
6.736e-05
6.73588e-05
6.96587e-05
6.96892e-05
6.97221e-05
6.96921e-05
4.38773e-05
6.74635e-05
6.74733e-05
6.73763e-05
6.73772e-05
6.97223e-05
6.96927e-05
5.4514e-05
6.08282e-05
3.12199e-05
3.88933e-05
5.4339e-05
6.09403e-05
3.14582e-05
6.52997e-05
7.15448e-05
6.52071e-05
7.15819e-05
5.45151e-05
3.12175e-05
6.08374e-05
3.89219e-05
5.43358e-05
3.14601e-05
6.09794e-05
6.53176e-05
7.16303e-05
7.15908e-05
6.54171e-05
5.45512e-05
3.91079e-05
6.11049e-05
3.19374e-05
6.09664e-05
3.16975e-05
5.47357e-05
6.53175e-05
7.16215e-05
7.15882e-05
6.54159e-05
5.45527e-05
3.91467e-05
3.19466e-05
6.11128e-05
3.17046e-05
6.10044e-05
5.47374e-05
6.52946e-05
7.15423e-05
6.52008e-05
7.15845e-05
5.45021e-05
3.12098e-05
6.07933e-05
3.88928e-05
5.43244e-05
3.14496e-05
6.09652e-05
6.52918e-05
7.15399e-05
6.51945e-05
7.15863e-05
5.45453e-05
3.91126e-05
6.10983e-05
3.19369e-05
6.09653e-05
3.16955e-05
5.47421e-05
6.53151e-05
7.16312e-05
7.15925e-05
6.54294e-05
5.45423e-05
3.91301e-05
3.19414e-05
6.11295e-05
3.16951e-05
6.09984e-05
5.4744e-05
6.53132e-05
7.16275e-05
7.15937e-05
6.54296e-05
6.73205e-05
6.73156e-05
4.37709e-05
6.74245e-05
6.74205e-05
6.96625e-05
6.96908e-05
6.97163e-05
6.96937e-05
4.39318e-05
6.74854e-05
6.74841e-05
6.74407e-05
6.74366e-05
6.97157e-05
6.9693e-05
5.45069e-05
3.12097e-05
6.07992e-05
3.88902e-05
5.43252e-05
3.1451e-05
6.09719e-05
6.52971e-05
7.15456e-05
6.52019e-05
7.15843e-05
6.5298e-05
7.15432e-05
6.51992e-05
7.15862e-05
5.45491e-05
3.91463e-05
3.19475e-05
6.1116e-05
3.17037e-05
6.10039e-05
5.47429e-05
5.4547e-05
3.91276e-05
3.19425e-05
6.11311e-05
3.16963e-05
6.10036e-05
5.47436e-05
6.53167e-05
7.16274e-05
7.15913e-05
6.54247e-05
6.53179e-05
7.16287e-05
7.15935e-05
6.54264e-05
6.96611e-05
6.96958e-05
6.96643e-05
6.96983e-05
4.39086e-05
6.75045e-05
6.75119e-05
6.74478e-05
6.74576e-05
6.972e-05
6.96983e-05
6.97224e-05
6.97008e-05
6.9723e-05
6.97481e-05
6.97246e-05
6.97499e-05
6.7503e-05
6.75097e-05
4.44162e-05
6.75618e-05
6.75666e-05
6.97759e-05
6.97502e-05
6.9778e-05
6.9752e-05
4.45584e-05
6.75975e-05
6.76013e-05
6.75675e-05
6.75721e-05
6.55278e-05
7.16328e-05
6.54283e-05
7.16704e-05
5.49565e-05
6.11283e-05
3.21784e-05
3.97674e-05
5.47684e-05
6.12452e-05
3.24206e-05
5.49534e-05
6.11086e-05
3.21757e-05
3.97588e-05
5.4766e-05
6.12317e-05
3.24174e-05
6.55463e-05
7.17096e-05
7.16749e-05
6.56312e-05
6.55439e-05
7.17129e-05
7.16772e-05
6.56301e-05
5.49934e-05
3.99703e-05
6.13421e-05
3.28983e-05
6.1262e-05
3.26618e-05
5.51652e-05
5.49906e-05
3.99745e-05
6.13691e-05
3.28992e-05
6.12543e-05
3.26595e-05
5.51646e-05
6.74802e-05
6.74892e-05
4.4421e-05
6.75607e-05
6.75601e-05
6.9725e-05
6.97506e-05
6.97807e-05
6.97541e-05
4.45822e-05
6.76576e-05
6.76439e-05
6.75761e-05
6.75723e-05
6.97796e-05
6.97529e-05
5.49558e-05
6.11305e-05
3.21798e-05
3.97641e-05
5.47739e-05
6.1245e-05
3.24222e-05
6.5522e-05
7.16274e-05
6.54328e-05
7.16613e-05
5.49517e-05
3.21865e-05
6.11283e-05
3.97497e-05
5.47747e-05
3.24235e-05
6.12054e-05
6.5542e-05
7.17116e-05
7.16767e-05
6.56227e-05
5.49912e-05
3.99662e-05
6.13411e-05
3.28966e-05
6.12616e-05
3.26617e-05
5.51573e-05
6.55365e-05
7.17076e-05
7.16682e-05
6.56174e-05
5.49863e-05
3.99446e-05
3.28933e-05
6.13232e-05
3.26586e-05
6.1222e-05
5.51516e-05
6.55316e-05
7.16371e-05
6.54476e-05
7.16701e-05
5.49652e-05
3.2186e-05
6.11467e-05
3.97606e-05
5.4784e-05
3.24276e-05
6.12167e-05
6.55313e-05
7.16324e-05
6.54477e-05
7.16608e-05
5.49985e-05
3.9978e-05
6.13624e-05
3.29022e-05
6.12583e-05
3.26655e-05
5.51558e-05
6.55432e-05
7.17163e-05
7.1677e-05
6.56156e-05
5.49979e-05
3.99542e-05
3.2898e-05
6.13053e-05
3.26646e-05
6.12282e-05
5.51517e-05
6.55428e-05
7.17079e-05
7.16671e-05
6.56133e-05
6.74881e-05
6.74873e-05
4.43762e-05
6.75078e-05
6.75083e-05
6.97175e-05
6.97432e-05
6.97814e-05
6.97476e-05
4.45063e-05
6.75943e-05
6.75891e-05
6.75172e-05
6.75171e-05
6.97802e-05
6.97468e-05
5.49621e-05
3.21872e-05
6.11478e-05
3.97568e-05
5.47829e-05
3.24278e-05
6.12183e-05
6.553e-05
7.16331e-05
6.54427e-05
7.16641e-05
6.55304e-05
7.1634e-05
6.54441e-05
7.16631e-05
5.49953e-05
3.99487e-05
3.28977e-05
6.13249e-05
3.26641e-05
6.12293e-05
5.515e-05
5.49954e-05
3.99515e-05
3.28967e-05
6.13064e-05
3.26644e-05
6.123e-05
5.51489e-05
6.55423e-05
7.17086e-05
7.16703e-05
6.56102e-05
6.55426e-05
7.17084e-05
7.16691e-05
6.56103e-05
6.97211e-05
6.97438e-05
6.97235e-05
6.97464e-05
4.45182e-05
6.75561e-05
6.75592e-05
6.74999e-05
6.75078e-05
6.97821e-05
6.97472e-05
6.97844e-05
6.97497e-05
6.97792e-05
6.98114e-05
6.97813e-05
6.98138e-05
6.76072e-05
6.76106e-05
4.5011e-05
6.76804e-05
6.76836e-05
6.98472e-05
6.98153e-05
6.985e-05
6.98178e-05
4.51634e-05
6.77918e-05
6.78003e-05
6.7698e-05
6.77019e-05
6.57305e-05
7.17191e-05
6.56452e-05
7.17511e-05
5.5361e-05
6.13587e-05
3.3132e-05
4.05571e-05
5.51988e-05
6.146e-05
3.33638e-05
5.53641e-05
6.13921e-05
3.3137e-05
4.0604e-05
5.5199e-05
6.15039e-05
3.33725e-05
6.57433e-05
7.18032e-05
7.1762e-05
6.58255e-05
6.57451e-05
7.17902e-05
7.17569e-05
6.58255e-05
5.53942e-05
4.07632e-05
6.16006e-05
3.38284e-05
6.14824e-05
3.35964e-05
5.55561e-05
5.53976e-05
4.07987e-05
6.15907e-05
3.38349e-05
6.15212e-05
3.36059e-05
5.55574e-05
6.76764e-05
6.76616e-05
4.5088e-05
6.77399e-05
6.77402e-05
6.97825e-05
6.98097e-05
6.98326e-05
6.98106e-05
4.522e-05
6.77526e-05
6.77654e-05
6.77476e-05
6.77503e-05
6.98335e-05
6.98118e-05
5.53501e-05
6.13575e-05
3.3129e-05
4.05516e-05
5.51901e-05
6.14579e-05
3.3359e-05
6.57151e-05
7.17155e-05
6.56317e-05
7.1758e-05
5.5348e-05
3.31274e-05
6.1346e-05
4.0558e-05
5.51848e-05
3.33591e-05
6.14675e-05
6.57335e-05
7.18065e-05
7.17645e-05
6.5825e-05
5.53836e-05
4.07577e-05
6.16025e-05
3.38233e-05
6.14807e-05
3.3591e-05
5.55516e-05
6.57309e-05
7.18053e-05
7.17657e-05
6.58242e-05
5.5382e-05
4.07665e-05
3.38256e-05
6.16206e-05
3.35918e-05
6.14923e-05
5.55525e-05
6.57292e-05
7.17233e-05
6.56313e-05
7.1757e-05
5.53504e-05
3.31301e-05
6.13269e-05
4.05597e-05
5.51837e-05
3.3362e-05
6.14633e-05
6.57231e-05
7.17169e-05
6.56283e-05
7.17646e-05
5.53935e-05
4.07997e-05
6.16036e-05
3.38375e-05
6.15257e-05
3.36063e-05
5.55672e-05
6.57471e-05
7.17934e-05
7.17623e-05
6.58387e-05
5.53868e-05
4.07815e-05
3.38363e-05
6.16602e-05
3.35979e-05
6.1496e-05
5.55667e-05
6.57412e-05
7.18104e-05
7.17726e-05
6.58382e-05
6.76135e-05
6.76074e-05
4.50375e-05
6.77122e-05
6.77058e-05
6.97842e-05
6.98156e-05
6.98477e-05
6.98194e-05
4.5196e-05
6.7821e-05
6.78216e-05
6.77304e-05
6.77251e-05
6.98472e-05
6.98187e-05
5.53384e-05
3.31273e-05
6.13269e-05
4.05533e-05
5.51799e-05
3.33583e-05
6.14594e-05
6.57081e-05
7.17168e-05
6.5623e-05
7.17614e-05
6.57079e-05
7.17173e-05
6.56229e-05
7.17665e-05
5.53756e-05
4.07678e-05
3.38275e-05
6.16256e-05
3.35928e-05
6.14914e-05
5.55578e-05
5.53743e-05
4.07767e-05
3.3831e-05
6.16638e-05
3.35923e-05
6.14924e-05
5.55592e-05
6.57267e-05
7.18087e-05
7.17694e-05
6.58347e-05
6.57266e-05
7.18153e-05
7.17751e-05