/*--------------------------------*- C++ -*----------------------------------*\
| =========                 |                                                 |
| \\      /  F ield         | OpenFOAM: The Open Source CFD Toolbox           |
|  \\    /   O peration     | Version:  v2006                                 |
|   \\  /    A nd           | Website:  www.openfoam.com                      |
|    \\/     M anipulation  |                                                 |
\*---------------------------------------------------------------------------*/
FoamFile
{
    version     2.0;
    format      ascii;
    class       volScalarField;
    location    "500";
    object      p;
}
// * * * * * * * * * * * * * * * * * * * * * * * * * * * * * * * * * * * * * //

dimensions      [0 2 -2 0 0 0 0];


internalField   nonuniform List<scalar> 
14199
(
0.00137166
0.00136962
0.00137165
0.00136962
0.0013717
0.0013717
0.00136728
0.00137169
0.00137171
0.00136729
0.00136728
0.00136729
0.00137171
0.00136728
0.0013717
0.00137171
0.00136729
0.00136729
0.00136729
0.00137171
0.0013673
0.00137171
0.00136728
0.00137171
0.00136972
0.00136972
0.00137165
0.00136739
0.00137165
0.00136736
0.00137163
0.0013674
0.00136735
0.00137166
0.0013674
0.00137165
0.00136736
0.00137164
0.0013674
0.00136735
0.00137166
0.00136739
0.00137167
0.00136734
0.00137169
0.0013717
0.00137166
0.0013717
0.0013717
0.00136957
0.00137166
0.0013717
0.00137161
0.00137169
0.00136958
0.00136729
0.00137171
0.00136725
0.00137168
0.00137171
0.00136725
0.00136729
0.00136727
0.0013673
0.00136728
0.00137171
0.00136728
0.00137171
0.00136727
0.00136727
0.00136719
0.00137162
0.00137162
0.00137165
0.00136719
0.0013672
0.00136729
0.00137173
0.00136725
0.00137167
0.00136732
0.00137171
0.00136724
0.00137167
0.00136739
0.00137169
0.00136731
0.00136731
0.00137166
0.00136734
0.0013717
0.00136731
0.00136734
0.00136743
0.00137167
0.00136753
0.00137169
0.00136745
0.00137166
0.00136741
0.0013697
0.00135839
0.00135838
0.00135848
0.00136072
0.00135837
0.00135848
0.00135842
0.00136069
0.00136073
0.0013628
0.00135837
0.00135838
0.0013628
0.0013628
0.0013628
0.00135837
0.00136274
0.00135832
0.00136274
0.00135833
0.00136279
0.00135837
0.00135836
0.00136279
0.00136279
0.00136279
0.00135836
0.00136279
0.00135837
0.0013628
0.0013628
0.00135837
0.00136277
0.00136278
0.00136278
0.00136282
0.00136277
0.00136274
0.00136274
0.00136275
0.00136279
0.00136278
0.00136275
0.00135843
0.00136276
0.00135846
0.00136276
0.00135847
0.00135851
0.00136278
0.00136278
0.00136277
0.00135851
0.00136277
0.00135848
0.00135852
0.00136278
0.00136278
0.00136278
0.00135852
0.00136279
0.00135846
0.00135844
0.00136277
0.00136278
0.00136282
0.00135851
0.00136274
0.00136281
0.00167561
0.00167354
0.0016756
0.00167561
0.00167112
0.00167113
0.00167112
0.00167112
0.0016712
0.00167564
0.00167559
0.00167561
0.00167563
0.00167561
0.00167559
0.00167129
0.00167118
0.00167123
0.00167119
0.00136973
0.00136973
0.00136972
0.00136973
0.00167353
0.00167354
0.00167353
0.0016756
0.00166215
0.0016756
0.00167562
0.00167561
0.00167561
0.00166226
0.0016756
0.00167359
0.00167558
0.00166215
0.00167561
0.00167562
0.00166226
0.00167359
0.00167562
0.00167558
0.00167562
0.00167562
0.0016756
0.00167561
0.00166661
0.00166214
0.00166213
0.00166661
0.00166661
0.00166661
0.00166213
0.00167114
0.00167112
0.00167562
0.00167113
0.00167561
0.00167113
0.00167115
0.00167561
0.00167562
0.00167114
0.00167113
0.00167561
0.00167113
0.00166661
0.00166213
0.00166214
0.00166661
0.00166661
0.00166661
0.00166213
0.00167114
0.00167113
0.00167561
0.00167113
0.00167561
0.00167113
0.00167115
0.00167562
0.00167561
0.00167113
0.00167114
0.00167561
0.00167115
0.00167564
0.00167114
0.00167561
0.00167114
0.00167117
0.00167561
0.00167115
0.00167564
0.00167113
0.00167561
0.00167117
0.00167113
0.00167561
0.00167112
0.0016756
0.0016756
0.00167113
0.00167113
0.0016756
0.00167113
0.00167114
0.00167113
0.00167561
0.00167113
0.00167561
0.00167561
0.00167561
0.00167557
0.00167129
0.00167143
0.0016713
0.0016713
0.00167562
0.0016756
0.0016756
0.00167127
0.00167119
0.00167117
0.00167123
0.00166658
0.00166225
0.00166228
0.00166661
0.0016666
0.00166661
0.00166228
0.00167562
0.00167559
0.0016756
0.00167127
0.00167119
0.00167123
0.00167116
0.00167561
0.0016756
0.00167561
0.00167127
0.00167126
0.00167125
0.00167128
0.00166658
0.00166228
0.00166225
0.00166661
0.00166661
0.0016666
0.00166227
0.00167561
0.0016756
0.0016756
0.00167128
0.00167119
0.00167123
0.00167117
0.00167561
0.00167561
0.0016756
0.00167127
0.00167126
0.00167128
0.00167125
0.00137166
0.00137165
0.00136962
0.00138726
0.00138938
0.0013716
0.00137161
0.00138727
0.00136958
0.00138928
0.00138734
0.00138736
0.00137169
0.00136963
0.00136959
0.00137166
0.0013717
0.00137166
0.00137617
0.0013895
0.0013763
0.00136973
0.00136973
0.00138742
0.00138747
0.00137624
0.00138945
0.00138737
0.00137838
0.00137624
0.00137848
0.00138943
0.00137619
0.00137624
0.00138943
0.00138951
0.00138951
0.00137642
0.00137615
0.00137615
0.00137161
0.0013716
0.00137161
0.00138949
0.00137622
0.00138945
0.00137839
0.00137624
0.00137169
0.00137166
0.00137171
0.00137166
0.00137164
0.00136961
0.00137166
0.00136961
0.00138953
0.00138953
0.00137633
0.00137629
0.00137629
0.0013895
0.0013763
0.00137618
0.00138949
0.00137622
0.00138945
0.00137624
0.00138739
0.00138945
0.00137846
0.0013785
0.0013762
0.00138943
0.00137618
0.00138949
0.00137618
0.00138946
0.00137624
0.00138741
0.00138946
0.00137847
0.00137851
0.0013762
0.00138944
0.00138951
0.00137617
0.00138951
0.00137617
0.00136722
0.00136724
0.00137165
0.00137165
0.00136721
0.00136719
0.00136719
0.00137163
0.0013672
0.00137164
0.00136721
0.00137159
0.00136725
0.00136726
0.00137168
0.00136727
0.00137169
0.00137169
0.00136727
0.00136725
0.00136726
0.00136728
0.0013717
0.00137169
0.00137169
0.00136727
0.00136728
0.00136728
0.0013717
0.0013717
0.00136727
0.00138061
0.0013806
0.0013762
0.00137615
0.00137621
0.0013806
0.00138058
0.0013806
0.00137612
0.00137612
0.00138058
0.00137615
0.00138058
0.00138512
0.00138069
0.00138056
0.00137612
0.00137612
0.00138055
0.00138056
0.00137612
0.00138509
0.00138952
0.00138507
0.0013895
0.00138509
0.00138506
0.00138952
0.00138511
0.0013895
0.00138507
0.00138952
0.0013851
0.00138507
0.00138952
0.00138058
0.00137614
0.00138059
0.00137618
0.00138059
0.00138058
0.00137617
0.0013806
0.00137615
0.00138059
0.0013762
0.00138062
0.00138058
0.00137618
0.00138504
0.00138949
0.0013895
0.00138504
0.00138505
0.00138951
0.0013672
0.00136719
0.00137161
0.00137161
0.00137157
0.00136726
0.00136726
0.0013672
0.00137164
0.00137164
0.00136721
0.0013716
0.00136725
0.00136721
0.00138506
0.00138508
0.00138945
0.00138505
0.00138945
0.0013806
0.00137621
0.00138063
0.00138061
0.00137621
0.00136727
0.0013717
0.00137168
0.00136728
0.00137169
0.00136728
0.00136727
0.00136725
0.00137166
0.00136725
0.00137167
0.00136723
0.00136731
0.00137172
0.00137172
0.0013673
0.00137173
0.0013673
0.00136731
0.00136736
0.00137176
0.00137175
0.00136736
0.00138083
0.00137639
0.00137639
0.00138083
0.00138084
0.00137639
0.00138508
0.00138942
0.00138514
0.00138959
0.00138519
0.00138503
0.00138943
0.00138508
0.00138942
0.00138514
0.00138958
0.00138503
0.00138518
0.00138943
0.00138064
0.00137631
0.0013807
0.00137622
0.00138073
0.00138059
0.00137629
0.00138064
0.00137631
0.0013807
0.00137622
0.00138059
0.00138073
0.00137629
0.00138525
0.0013897
0.0013897
0.0013853
0.0013853
0.00138963
0.00138512
0.00138069
0.0013806
0.00137619
0.00137618
0.00138058
0.00138059
0.0013806
0.00137619
0.00138506
0.00138508
0.00138945
0.00138505
0.00138944
0.00138061
0.00137622
0.00138063
0.00138061
0.00137622
0.00138505
0.00138505
0.00138946
0.00138946
0.00138505
0.00138505
0.00138947
0.00138059
0.00137618
0.00137617
0.00138058
0.0013806
0.00138058
0.00137617
0.00138508
0.00138507
0.00138949
0.00138507
0.00138949
0.00138061
0.00137618
0.0013806
0.0013806
0.0013762
0.00138505
0.00138505
0.00138947
0.00138947
0.00138505
0.00138505
0.00138947
0.00138508
0.0013806
0.00138508
0.0013806
0.00137618
0.00138947
0.00137616
0.00137618
0.00138947
0.00138949
0.00137617
0.00137618
0.00138061
0.00138505
0.00138948
0.00138946
0.00138506
0.00138947
0.00138506
0.00138505
0.00138061
0.00138058
0.00137618
0.00138061
0.00137619
0.00138059
0.00138058
0.00137617
0.00137618
0.0013806
0.00138058
0.00137617
0.00138506
0.00138948
0.00138947
0.00138506
0.00138949
0.00138506
0.00138506
0.00138508
0.00138949
0.00138507
0.00138949
0.00138507
0.0013806
0.00138058
0.00137618
0.00137617
0.0013806
0.00138059
0.00137618
0.00138061
0.0013806
0.00137617
0.0013806
0.00137619
0.00136737
0.00137167
0.0013673
0.00137165
0.00137165
0.00136733
0.00136728
0.00138521
0.00138947
0.00138943
0.0013853
0.0013852
0.00138521
0.00138944
0.00138508
0.00138931
0.00138931
0.00138517
0.00138506
0.00138506
0.00138927
0.00136741
0.00137166
0.00137166
0.00136736
0.00137165
0.00136736
0.0013674
0.00136741
0.00137166
0.00136737
0.00137166
0.00137164
0.00136741
0.00136736
0.0013674
0.00137167
0.00137167
0.00136735
0.00136972
0.00136972
0.00138748
0.00138748
0.00137852
0.00137859
0.00137858
0.00137861
0.0013875
0.0013875
0.0013875
0.00137858
0.0013786
0.00137861
0.00137861
0.00138751
0.0013697
0.00138051
0.00137624
0.00137628
0.00138053
0.00138053
0.00138053
0.00137627
0.00138512
0.0013894
0.00138511
0.00138941
0.00138503
0.0013851
0.0013894
0.00138053
0.00137624
0.00138059
0.00137619
0.00138054
0.00138055
0.00137626
0.00138515
0.00138512
0.00138942
0.00138943
0.00138512
0.00138516
0.0013894
0.00138055
0.00138055
0.00137623
0.00138055
0.00137619
0.00138057
0.00137627
0.00138053
0.00138054
0.00137623
0.00138052
0.00137628
0.00138054
0.00137627
0.00138942
0.00138512
0.00138513
0.00138516
0.00138944
0.00138518
0.00138941
0.00138054
0.00138051
0.00137631
0.00137633
0.00138056
0.00138058
0.0013763
0.00136729
0.0013716
0.00136747
0.00137162
0.00136731
0.00137153
0.00136732
0.00138512
0.0013894
0.00138511
0.00138941
0.0013851
0.00138504
0.0013894
0.00138053
0.00137624
0.00138059
0.00137619
0.00138055
0.00137626
0.00138054
0.0013674
0.00137166
0.00137166
0.00136736
0.00137165
0.00136736
0.0013674
0.00136737
0.00137168
0.00137165
0.00136729
0.00136728
0.00137166
0.00136733
0.0013674
0.00137166
0.00137166
0.00136737
0.00137164
0.00136736
0.00136741
0.00136741
0.00137169
0.00137167
0.00136738
0.00138047
0.00138041
0.00137626
0.00137626
0.00138047
0.00138047
0.00137632
0.00138052
0.00137628
0.00137623
0.00138054
0.00138054
0.00138054
0.00137628
0.00138517
0.00138949
0.00138509
0.00138944
0.00138509
0.00138512
0.00138945
0.00138055
0.00137622
0.00138056
0.0013762
0.00138057
0.00138055
0.00137627
0.00138517
0.00138513
0.00138944
0.00138943
0.00138517
0.00138512
0.00138942
0.00138054
0.00138054
0.00137624
0.00138053
0.00137628
0.00138054
0.00137628
0.00138512
0.00138944
0.0013851
0.00138517
0.00138946
0.0013851
0.00138944
0.00138055
0.00137622
0.00138056
0.00138055
0.00137622
0.00138059
0.00137628
0.00138513
0.00138513
0.00138943
0.00138517
0.00138944
0.00138517
0.00138942
0.00167362
0.00167561
0.00163763
0.00163755
0.00163754
0.00163958
0.00160173
0.00160163
0.00160164
0.00160373
0.00156589
0.0015658
0.00156576
0.00156781
0.0015301
0.00152998
0.00153002
0.00153208
0.00149439
0.00149425
0.00149426
0.00149627
0.00145868
0.00145856
0.00145855
0.0014606
0.00142306
0.00142301
0.00142299
0.001425
0.00164442
0.00164654
0.00164655
0.00164445
0.00164654
0.00164653
0.00167354
0.00164655
0.00164651
0.00164443
0.00167354
0.00164652
0.00164651
0.00164439
0.0016396
0.00160851
0.00163754
0.00163755
0.00161059
0.00161059
0.00163962
0.0016085
0.00163753
0.00163754
0.00161059
0.00161061
0.00163751
0.0016106
0.00161062
0.00163961
0.00160852
0.00163751
0.00161061
0.00161063
0.00160855
0.0016037
0.00157265
0.00160163
0.00160163
0.00157474
0.00157475
0.00160368
0.00157267
0.00160163
0.00160164
0.00157474
0.00157472
0.00160166
0.00157475
0.00157473
0.0016037
0.00157263
0.00160166
0.00157472
0.00157473
0.00157263
0.00156783
0.00153685
0.00156578
0.0015658
0.00153893
0.00153893
0.00156785
0.00153684
0.00156578
0.00156576
0.00153893
0.00153895
0.00156576
0.00153893
0.00153895
0.00156781
0.00153687
0.00156576
0.00153895
0.00153895
0.00153688
0.00153205
0.00150112
0.00153
0.00152998
0.0015032
0.00150317
0.00153203
0.0015011
0.00153
0.00153001
0.00150321
0.0015032
0.00153003
0.00150317
0.0015032
0.00153207
0.00150111
0.00153003
0.0015032
0.0015032
0.00150109
0.0014963
0.0014654
0.00149427
0.00149426
0.00146748
0.00146749
0.0014963
0.0014654
0.00149427
0.00149426
0.00146748
0.00146746
0.00149424
0.00146749
0.00146745
0.0014963
0.00146539
0.00149424
0.00146746
0.00146744
0.00146539
0.0014606
0.00142976
0.00145857
0.00145856
0.00143184
0.00143189
0.0014606
0.00142985
0.00145856
0.00145855
0.00143184
0.00143188
0.00145855
0.0014319
0.00143188
0.00146059
0.00142983
0.00145855
0.00143189
0.00143188
0.0014298
0.00142496
0.00139425
0.00142294
0.00142301
0.00139629
0.00139618
0.00142506
0.00139407
0.00142293
0.00142298
0.00139628
0.00139625
0.00142297
0.00139619
0.00139624
0.00142502
0.00139395
0.00142297
0.00139407
0.00139408
0.00139398
0.00166215
0.00166212
0.00166213
0.00166212
0.0016736
0.00167362
0.00167362
0.00164663
0.00164663
0.00164662
0.00164661
0.00166226
0.00167359
0.00166453
0.00166219
0.00166459
0.00167558
0.00166213
0.00166226
0.00167359
0.00166453
0.00166459
0.00166219
0.00167561
0.0016756
0.0016756
0.00166241
0.00166211
0.00166211
0.00162618
0.00163961
0.00163963
0.00162617
0.00163961
0.00162617
0.00162618
0.00163961
0.00163963
0.00162618
0.00163764
0.00163763
0.00163761
0.00161069
0.00161069
0.00161071
0.00161071
0.00162629
0.0016396
0.0016376
0.00162855
0.00163962
0.00162622
0.00162861
0.00163963
0.00162618
0.00162629
0.0016376
0.00163961
0.00162856
0.00163961
0.00162862
0.00162622
0.00163966
0.00163966
0.00162645
0.00162622
0.00162622
0.00159031
0.00160372
0.00160372
0.00159029
0.00160372
0.0015903
0.00159031
0.00160372
0.00160372
0.00159029
0.00160173
0.00160174
0.00160174
0.00157485
0.00157485
0.00157484
0.00157484
0.00159042
0.00160371
0.00160169
0.00159267
0.00160371
0.00159035
0.00159273
0.00160369
0.00159028
0.00159041
0.0016017
0.00160369
0.00159266
0.00160371
0.00159273
0.00159034
0.0016037
0.0016037
0.00159057
0.00159028
0.00159028
0.00155448
0.00156787
0.00156788
0.00155447
0.00156786
0.00155446
0.00155448
0.00156787
0.00156787
0.00155447
0.0015659
0.00156588
0.00156588
0.00153904
0.00153905
0.00153905
0.00153905
0.00155458
0.00156785
0.00156585
0.00155684
0.00156786
0.00155451
0.00155689
0.0015679
0.00155449
0.00155458
0.00156583
0.00156786
0.00155682
0.00156786
0.00155688
0.00155453
0.00156791
0.00156791
0.00155473
0.0015545
0.0015545
0.00151872
0.00153209
0.00153209
0.00151871
0.00153207
0.00151871
0.00151873
0.0015321
0.0015321
0.00151872
0.0015301
0.00153012
0.00153012
0.00150332
0.00150329
0.00150332
0.00150332
0.00151882
0.00153207
0.00153005
0.00152104
0.00153208
0.00151876
0.00152111
0.00153209
0.0015187
0.00151883
0.00153006
0.00153207
0.00152108
0.00153208
0.00152113
0.00151876
0.00153209
0.00153209
0.00151902
0.00151867
0.00151867
0.00148301
0.00149635
0.00149637
0.00148299
0.00149639
0.001483
0.001483
0.00149635
0.00149636
0.00148299
0.00149437
0.00149438
0.00149437
0.0014676
0.0014676
0.00146758
0.00146757
0.0014831
0.00149635
0.00149431
0.00148534
0.00149634
0.00148305
0.00148539
0.00149634
0.00148301
0.00148309
0.00149432
0.00149633
0.00148532
0.00149634
0.00148538
0.00148304
0.00149633
0.00149633
0.00148318
0.00148302
0.00148302
0.00144735
0.00146067
0.00146068
0.00144734
0.00146069
0.00144737
0.00144735
0.00146067
0.00146068
0.00144735
0.00145868
0.00145867
0.00145867
0.00143196
0.001432
0.00143199
0.00143199
0.00144744
0.00146066
0.00145861
0.00144965
0.00146065
0.00144738
0.00144971
0.0014607
0.00144736
0.00144744
0.00145861
0.00146066
0.00144966
0.00146064
0.00144971
0.00144739
0.00146073
0.00146073
0.00144764
0.00144734
0.00144734
0.00141174
0.00142507
0.00142506
0.00141175
0.00142501
0.00141166
0.00141175
0.00142507
0.00142507
0.00141175
0.00142312
0.0014231
0.00142309
0.0013964
0.00139639
0.00139638
0.0013964
0.00141184
0.00142502
0.00142304
0.00141409
0.00142505
0.00141175
0.00141413
0.00142503
0.0014117
0.00141184
0.00142302
0.00142504
0.00141408
0.00142506
0.00141412
0.00141177
0.00142504
0.00142505
0.00141196
0.00141176
0.00141176
0.00166211
0.0016621
0.00166245
0.00166211
0.00166211
0.00164413
0.00165758
0.00164413
0.00165758
0.00165762
0.00164414
0.00164414
0.00165759
0.00165759
0.00166215
0.00166214
0.00166226
0.00166454
0.00166218
0.00166459
0.00166226
0.00166453
0.00166219
0.00166459
0.00165762
0.00164413
0.0016576
0.00164415
0.00165762
0.00164413
0.00165761
0.00164416
0.00165761
0.00165554
0.00164419
0.0016466
0.00165759
0.0016556
0.00164427
0.00165761
0.00165555
0.0016442
0.0016466
0.0016576
0.0016556
0.00164427
0.00166245
0.00166213
0.00166213
0.00166213
0.00164413
0.00165759
0.00165762
0.00164414
0.00164414
0.00165761
0.00165761
0.00164413
0.00165759
0.00166455
0.00166218
0.00166459
0.00166213
0.00166453
0.00166459
0.00166219
0.00165761
0.00164413
0.00165759
0.00164415
0.00165761
0.00165555
0.00164419
0.0016466
0.00165759
0.00165559
0.00164427
0.00165761
0.00164414
0.0016576
0.00164416
0.00165761
0.00165553
0.0016466
0.0016442
0.00165559
0.0016576
0.00164427
0.00166214
0.00166213
0.00167561
0.00166225
0.00167359
0.0016756
0.00166452
0.00166459
0.00166218
0.00167558
0.00166214
0.00167559
0.00166212
0.00167561
0.00165761
0.00165554
0.00164419
0.0016466
0.00165759
0.00165559
0.00164427
0.00165761
0.00164413
0.0016576
0.00164415
0.0016576
0.00165551
0.00164659
0.0016442
0.00165559
0.00165758
0.00164426
0.00165761
0.00164414
0.00165759
0.00164415
0.00166242
0.00166214
0.00166214
0.00166212
0.00164415
0.0016576
0.00165759
0.00164416
0.00164416
0.00165762
0.00165762
0.00164415
0.0016576
0.00166225
0.0016736
0.00167561
0.00166453
0.00166459
0.00166218
0.00167559
0.00166214
0.00166213
0.00167561
0.00166214
0.00167558
0.00166211
0.00167561
0.0016576
0.00165552
0.00164659
0.0016442
0.00165558
0.00165759
0.00164426
0.0016576
0.00165551
0.00164658
0.0016442
0.00165558
0.00165758
0.00164426
0.00165761
0.00164414
0.0016576
0.00164415
0.00165761
0.00164414
0.00165759
0.00164415
0.00167559
0.00166211
0.00167558
0.00166211
0.00165757
0.00164416
0.00164416
0.0016576
0.0016576
0.00164415
0.00165758
0.00164415
0.00165758
0.00163962
0.00162619
0.00163962
0.00162619
0.00163963
0.00163963
0.00162644
0.00162619
0.00162619
0.00160824
0.00162167
0.00160824
0.00162167
0.00162162
0.00160824
0.00160824
0.00162168
0.00162168
0.00162618
0.00163961
0.00163963
0.00162617
0.00162629
0.0016396
0.00163761
0.00162854
0.00163962
0.00162623
0.00162862
0.00162629
0.0016396
0.00163761
0.00162855
0.00163962
0.00162622
0.00162862
0.00162166
0.00160823
0.00162166
0.00160824
0.00162166
0.00160823
0.00162166
0.00160824
0.00162165
0.00161956
0.00160828
0.00161066
0.00162165
0.00161963
0.00160834
0.00162165
0.00161957
0.00160828
0.00161066
0.00162164
0.00161963
0.00160834
0.00163962
0.00163963
0.00162645
0.00162618
0.00162618
0.00163961
0.00162618
0.00160824
0.00162166
0.00162163
0.00160824
0.00160824
0.00162167
0.00162167
0.00160824
0.00162166
0.00162629
0.0016396
0.0016376
0.00162854
0.00163962
0.00162623
0.00162861
0.00162619
0.00163962
0.00163963
0.00162617
0.00162629
0.0016376
0.00163961
0.00162856
0.00163962
0.00162862
0.00162622
0.00162166
0.00160823
0.00162166
0.00160824
0.00162165
0.00161956
0.00160828
0.00161066
0.00162165
0.00161963
0.00160834
0.00162166
0.00160821
0.00162165
0.00160824
0.00162165
0.00161959
0.00161066
0.00160827
0.00161964
0.00162164
0.00160834
0.00162619
0.00163961
0.00163963
0.00162617
0.00162629
0.00163759
0.00163961
0.00162854
0.00163961
0.00162861
0.00162624
0.00162619
0.00163962
0.00163963
0.00162618
0.00162165
0.00161957
0.00160828
0.00161066
0.00162164
0.00161963
0.00160835
0.00162167
0.00160824
0.00162166
0.00160825
0.00162165
0.00161958
0.00161067
0.00160829
0.00161964
0.00162165
0.00160835
0.00162167
0.00160823
0.00162167
0.00160825
0.00163964
0.00163964
0.00162647
0.00162618
0.00162618
0.00163963
0.00162618
0.00160821
0.00162166
0.00162165
0.00160821
0.00160821
0.00162167
0.00162167
0.00160821
0.00162166
0.00162629
0.00163759
0.00163961
0.00162854
0.00163961
0.00162861
0.00162624
0.00162619
0.00163962
0.00163963
0.00162616
0.00162619
0.00163963
0.00163963
0.00162618
0.00162165
0.00161959
0.00161067
0.00160827
0.00161964
0.00162164
0.00160835
0.00162165
0.00161958
0.00161067
0.00160828
0.00161964
0.00162166
0.00160835
0.00162167
0.00160822
0.00162166
0.00160824
0.00162167
0.00160823
0.00162167
0.00160825
0.00163964
0.00162623
0.00163964
0.00162623
0.00162164
0.00160821
0.00160821
0.0016217
0.0016217
0.00160821
0.0016217
0.00160821
0.0016217
0.00160372
0.00159029
0.00160372
0.00159029
0.00160373
0.00160373
0.00159059
0.00159029
0.00159029
0.00157236
0.00158578
0.00157236
0.00158577
0.00158577
0.00157237
0.00157237
0.00158579
0.00158579
0.00159031
0.00160372
0.00160372
0.0015903
0.00159041
0.0016037
0.00160169
0.00159267
0.00160371
0.00159035
0.00159272
0.00159041
0.0016037
0.00160169
0.00159266
0.0016037
0.00159035
0.00159272
0.0015858
0.00157237
0.00158578
0.00157239
0.0015858
0.00157237
0.00158579
0.00157239
0.00158578
0.00158371
0.00157242
0.0015748
0.00158577
0.00158376
0.00157249
0.00158578
0.0015837
0.00157242
0.00157481
0.00158578
0.00158376
0.00157249
0.00160374
0.00160374
0.00159058
0.00159031
0.00159031
0.00160373
0.0015903
0.00157237
0.00158579
0.00158576
0.00157237
0.00157237
0.0015858
0.0015858
0.00157237
0.00158579
0.00159041
0.0016037
0.00160169
0.00159267
0.00160371
0.00159034
0.00159272
0.0015903
0.0016037
0.00160372
0.00159028
0.00159041
0.00160169
0.00160369
0.00159266
0.00160371
0.00159272
0.00159034
0.00158579
0.00157237
0.00158578
0.00157238
0.00158578
0.00158371
0.00157242
0.0015748
0.00158577
0.00158376
0.00157249
0.00158579
0.00157238
0.00158578
0.00157239
0.00158578
0.00158369
0.00157479
0.00157243
0.00158376
0.00158576
0.00157249
0.00159031
0.00160372
0.00160373
0.00159029
0.00159042
0.0016017
0.0016037
0.00159268
0.00160372
0.00159273
0.00159034
0.00159031
0.00160372
0.00160373
0.00159028
0.00158579
0.00158371
0.00157242
0.0015748
0.00158578
0.00158377
0.00157249
0.0015858
0.00157237
0.00158579
0.00157238
0.00158579
0.0015837
0.0015748
0.00157243
0.00158377
0.00158577
0.00157249
0.00158579
0.00157237
0.00158577
0.00157238
0.0016037
0.0016037
0.00159056
0.00159028
0.00159028
0.00160369
0.00159028
0.00157239
0.00158578
0.00158574
0.0015724
0.0015724
0.00158579
0.00158579
0.00157239
0.00158578
0.00159041
0.0016017
0.0016037
0.00159268
0.00160371
0.00159273
0.00159034
0.00159031
0.00160371
0.00160373
0.00159029
0.0015903
0.00160371
0.00160373
0.00159028
0.00158578
0.00158369
0.00157479
0.00157243
0.00158376
0.00158577
0.00157249
0.00158578
0.0015837
0.0015748
0.00157243
0.00158376
0.00158576
0.00157249
0.00158579
0.00157237
0.00158578
0.00157238
0.00158579
0.00157237
0.00158577
0.00157238
0.00160369
0.00159027
0.00160369
0.00159027
0.00158575
0.0015724
0.0015724
0.00158579
0.00158579
0.0015724
0.00158577
0.00157239
0.00158577
0.00156786
0.00155448
0.00156786
0.00155448
0.00156787
0.00156787
0.00155473
0.00155449
0.00155449
0.0015366
0.00154999
0.00153661
0.00154999
0.00154992
0.0015366
0.0015366
0.00155
0.00155
0.00155448
0.00156786
0.00156788
0.00155446
0.00155458
0.00156785
0.00156584
0.00155682
0.00156786
0.00155452
0.00155689
0.00155458
0.00156785
0.00156585
0.00155684
0.00156786
0.00155451
0.00155689
0.00154997
0.00153659
0.00154997
0.00153659
0.00154997
0.00153657
0.00154996
0.00153659
0.00154996
0.00154787
0.00153664
0.00153899
0.00154996
0.00154794
0.00153669
0.00154996
0.00154789
0.00153662
0.00153899
0.00154994
0.00154794
0.00153669
0.00156787
0.00156787
0.00155475
0.00155446
0.00155446
0.00156786
0.00155446
0.00153657
0.00154996
0.00154994
0.00153657
0.00153657
0.00154997
0.00154997
0.00153657
0.00154996
0.00155458
0.00156785
0.00156584
0.00155682
0.00156786
0.00155452
0.00155688
0.00155449
0.00156788
0.00156788
0.00155448
0.00155458
0.00156584
0.00156786
0.00155682
0.00156786
0.00155688
0.00155453
0.00154998
0.00153659
0.00154998
0.0015366
0.00154996
0.00154787
0.00153664
0.00153899
0.00154996
0.00154794
0.0015367
0.00154998
0.00153659
0.00154998
0.0015366
0.00154996
0.00154788
0.001539
0.00153663
0.00154794
0.00154996
0.0015367
0.00155448
0.00156786
0.00156787
0.00155446
0.00155458
0.00156584
0.00156786
0.00155681
0.00156786
0.00155688
0.00155453
0.00155449
0.00156788
0.00156787
0.00155449
0.00154996
0.00154789
0.00153663
0.001539
0.00154995
0.00154794
0.00153669
0.00154998
0.00153658
0.00154996
0.0015366
0.00154996
0.00154788
0.001539
0.00153664
0.00154794
0.00154997
0.0015367
0.00154998
0.00153658
0.00154999
0.0015366
0.00156791
0.0015679
0.00155474
0.00155449
0.00155449
0.00156789
0.00155449
0.00153659
0.00154999
0.00154994
0.00153659
0.00153659
0.00154999
0.00154999
0.00153659
0.00154999
0.00155458
0.00156583
0.00156786
0.00155681
0.00156786
0.00155688
0.00155453
0.00155449
0.00156787
0.00156787
0.00155448
0.00155449
0.00156788
0.00156787
0.00155449
0.00154996
0.00154788
0.001539
0.00153664
0.00154794
0.00154996
0.0015367
0.00154996
0.00154788
0.001539
0.00153664
0.00154793
0.00154997
0.0015367
0.00154998
0.00153659
0.00154999
0.00153661
0.00154999
0.00153659
0.00154999
0.00153661
0.0015679
0.0015545
0.0015679
0.0015545
0.00154993
0.00153659
0.00153659
0.00155
0.00155
0.00153659
0.00155
0.00153659
0.00155
0.0015321
0.00151871
0.0015321
0.00151871
0.0015321
0.00153211
0.00151899
0.0015187
0.00151871
0.00150084
0.00151421
0.00150084
0.00151421
0.00151419
0.00150084
0.00150084
0.00151422
0.00151422
0.00151872
0.00153208
0.00153209
0.00151871
0.00151882
0.00153207
0.00153005
0.00152107
0.00153207
0.00151876
0.00152111
0.00151881
0.00153206
0.00153005
0.00152104
0.00153207
0.00151876
0.00152111
0.00151422
0.00150084
0.00151422
0.00150086
0.00151422
0.00150086
0.00151422
0.00150087
0.0015142
0.00151214
0.00150089
0.00150325
0.0015142
0.00151218
0.00150096
0.0015142
0.0015121
0.00150091
0.00150324
0.0015142
0.00151217
0.00150096
0.00153208
0.00153208
0.00151895
0.00151872
0.00151871
0.00153207
0.00151871
0.00150089
0.00151423
0.00151415
0.00150088
0.00150088
0.00151424
0.00151424
0.00150088
0.00151422
0.00151882
0.00153208
0.00153006
0.00152107
0.00153208
0.00151876
0.00152112
0.00151873
0.00153209
0.0015321
0.0015187
0.00151882
0.00153006
0.00153207
0.00152108
0.00153208
0.00152113
0.00151876
0.00151423
0.00150084
0.00151422
0.00150086
0.00151421
0.00151214
0.0015009
0.00150326
0.0015142
0.00151219
0.00150096
0.00151423
0.00150084
0.00151421
0.00150086
0.00151421
0.00151214
0.00150326
0.00150089
0.00151219
0.00151419
0.00150096
0.00151872
0.00153208
0.00153209
0.00151871
0.00151882
0.00153006
0.00153207
0.00152109
0.00153208
0.00152113
0.00151874
0.00151872
0.00153208
0.0015321
0.00151868
0.0015142
0.0015121
0.0015009
0.00150325
0.0015142
0.00151218
0.00150095
0.00151422
0.00150085
0.00151422
0.00150085
0.0015142
0.00151215
0.00150325
0.00150087
0.00151219
0.00151418
0.00150095
0.00151422
0.00150082
0.00151419
0.00150085
0.00153209
0.00153209
0.001519
0.0015187
0.0015187
0.00153209
0.0015187
0.00150083
0.0015142
0.00151418
0.00150083
0.00150083
0.00151421
0.00151421
0.00150083
0.0015142
0.00151883
0.00153007
0.00153207
0.0015211
0.00153208
0.00152114
0.00151875
0.00151873
0.00153209
0.0015321
0.0015187
0.00151873
0.00153209
0.00153211
0.00151869
0.00151421
0.00151214
0.00150326
0.00150089
0.0015122
0.00151419
0.00150095
0.00151421
0.00151216
0.00150326
0.00150087
0.0015122
0.00151418
0.00150095
0.00151422
0.00150083
0.00151421
0.00150085
0.00151422
0.00150082
0.00151419
0.00150084
0.00153208
0.00151868
0.00153209
0.00151868
0.0015142
0.0015008
0.0015008
0.00151418
0.00151418
0.0015008
0.00151417
0.0015008
0.00151417
0.00149635
0.00148299
0.00149635
0.00148298
0.00149636
0.00149636
0.00148325
0.00148299
0.00148299
0.00146517
0.0014785
0.00146517
0.0014785
0.00147845
0.00146516
0.00146516
0.00147851
0.0014785
0.00148301
0.00149637
0.00149637
0.00148301
0.00148311
0.00149634
0.00149432
0.00148533
0.00149634
0.00148304
0.00148539
0.00148311
0.00149635
0.00149432
0.00148534
0.00149635
0.00148306
0.0014854
0.00147852
0.00146516
0.0014785
0.00146517
0.00147852
0.00146517
0.00147852
0.00146517
0.0014785
0.00147641
0.0014652
0.00146754
0.00147848
0.00147647
0.00146526
0.0014785
0.00147642
0.00146521
0.00146754
0.0014785
0.00147647
0.00146526
0.0014964
0.00149639
0.00148327
0.00148301
0.001483
0.00149639
0.001483
0.00146516
0.00147851
0.00147846
0.00146517
0.00146516
0.00147852
0.00147852
0.00146516
0.00147851
0.0014831
0.00149634
0.00149433
0.00148533
0.00149635
0.00148303
0.00148539
0.001483
0.00149635
0.00149636
0.00148299
0.0014831
0.00149432
0.00149633
0.00148532
0.00149634
0.00148539
0.00148305
0.00147851
0.00146515
0.0014785
0.00146517
0.00147849
0.0014764
0.00146519
0.00146754
0.00147848
0.00147646
0.00146525
0.00147851
0.00146517
0.00147851
0.00146517
0.00147849
0.00147638
0.00146753
0.00146521
0.00147646
0.00147849
0.00146525
0.001483
0.00149637
0.00149636
0.001483
0.00148309
0.00149431
0.00149632
0.00148528
0.00149633
0.00148538
0.00148304
0.001483
0.00149634
0.00149635
0.00148299
0.00147849
0.00147641
0.00146521
0.00146753
0.0014785
0.00147646
0.00146526
0.00147851
0.00146517
0.00147852
0.00146517
0.00147848
0.00147635
0.00146752
0.00146522
0.00147644
0.00147849
0.00146526
0.00147851
0.00146518
0.00147852
0.00146517
0.00149635
0.00149635
0.00148323
0.00148301
0.00148301
0.00149634
0.001483
0.00146519
0.00147852
0.00147842
0.00146518
0.00146518
0.00147854
0.00147853
0.00146519
0.00147852
0.00148308
0.00149431
0.00149632
0.00148528
0.00149633
0.00148537
0.00148304
0.00148299
0.00149634
0.00149635
0.00148299
0.00148299
0.00149633
0.00149634
0.00148299
0.00147848
0.00147638
0.00146752
0.00146521
0.00147645
0.00147849
0.00146524
0.00147847
0.00147635
0.00146751
0.00146521
0.00147644
0.00147849
0.00146524
0.0014785
0.00146517
0.00147851
0.00146516
0.0014785
0.00146518
0.00147851
0.00146517
0.00149632
0.00148301
0.00149632
0.00148301
0.00147839
0.00146521
0.00146521
0.00147855
0.00147855
0.00146522
0.00147853