/*--------------------------------*- C++ -*----------------------------------*\
| =========                 |                                                 |
| \\      /  F ield         | OpenFOAM: The Open Source CFD Toolbox           |
|  \\    /   O peration     | Version:  v2006                                 |
|   \\  /    A nd           | Website:  www.openfoam.com                      |
|    \\/     M anipulation  |                                                 |
\*---------------------------------------------------------------------------*/
FoamFile
{
    version     2.0;
    format      ascii;
    class       volVectorField;
    location    "500";
    object      U;
}
// * * * * * * * * * * * * * * * * * * * * * * * * * * * * * * * * * * * * * //

dimensions      [0 1 -1 0 0 0 0];


internalField   nonuniform List<vector> 
14199
(
(-7.07312e-07 -7.63899e-06 0.0983266)
(4.44388e-07 -3.95698e-06 0.110444)
(-6.20181e-07 -7.53177e-06 0.0983271)
(-9.44508e-07 -4.11708e-06 0.110445)
(-9.48365e-07 -2.57671e-06 0.0909537)
(-5.18548e-07 -2.51848e-06 0.0909541)
(-1.9362e-06 3.90458e-06 0.0763788)
(-5.2277e-07 -3.00185e-06 0.0894304)
(-1.9401e-06 -2.30645e-06 0.0781201)
(-1.31936e-06 1.09618e-05 0.090989)
(-1.62884e-06 1.02737e-05 0.0894718)
(-2.00233e-06 4.60041e-06 0.0781502)
(-2.38742e-06 -3.07913e-06 0.0763409)
(-1.90808e-06 4.6951e-06 0.076376)
(-4.25604e-07 -2.87083e-06 0.0894319)
(-9.19767e-07 -2.2128e-06 0.0781208)
(-6.72428e-07 1.10859e-05 0.0909882)
(-3.28369e-07 1.07142e-05 0.0894705)
(-1.25221e-06 4.7957e-06 0.0781492)
(-5.83631e-07 -2.55501e-06 0.0763428)
(-1.70297e-06 3.55392e-06 0.0679524)
(-8.40185e-08 -2.60462e-06 0.0853027)
(6.02275e-07 8.92286e-06 0.0853464)
(-2.32879e-07 -2.54031e-06 0.0679073)
(5.60101e-06 -1.51509e-05 0.115522)
(-5.10166e-06 -1.56509e-05 0.115524)
(1.89735e-07 -7.87669e-06 0.0973122)
(4.48632e-07 5.19921e-05 0.103029)
(-8.46006e-07 -4.13535e-05 0.1036)
(-8.30056e-07 1.68883e-05 0.0983839)
(5.85826e-07 -4.15093e-05 0.102891)
(-4.14457e-07 5.04603e-05 0.103712)
(-6.45902e-07 1.70119e-05 0.0973787)
(-7.78291e-07 -7.77941e-06 0.0973133)
(-1.47065e-06 5.20446e-05 0.10303)
(-5.8965e-07 -4.11739e-05 0.103601)
(-6.67466e-07 1.69985e-05 0.0983838)
(-1.48615e-06 -4.14338e-05 0.102893)
(-1.12048e-06 5.06329e-05 0.103713)
(-3.24506e-07 1.722e-05 0.0973784)
(-8.61364e-07 -7.02918e-06 0.0952848)
(1.34953e-07 5.39082e-05 0.101393)
(-2.80754e-06 -4.18866e-05 0.101274)
(1.44351e-06 1.72285e-05 0.0953499)
(5.54376e-07 -3.29548e-06 0.0870593)
(-1.55188e-06 -4.35541e-06 0.0710244)
(2.15564e-06 -6.94941e-06 0.0926022)
(-2.29909e-06 -6.44144e-06 0.0816893)
(5.80183e-06 1.10396e-06 0.0816891)
(3.97651e-07 -2.50799e-06 0.107865)
(6.69945e-06 -2.32189e-06 0.0926024)
(3.65307e-06 4.66981e-07 0.0710239)
(3.77658e-05 -3.7515e-05 0.104367)
(2.91263e-06 -1.2271e-06 0.0870569)
(3.02059e-06 -1.41641e-09 0.107865)
(-7.77561e-06 9.57451e-06 0.0912997)
(8.10621e-06 -7.28463e-06 0.0959878)
(-8.18211e-06 2.55092e-06 0.0870937)
(-3.79828e-06 -4.52292e-06 0.0810608)
(1.51038e-06 -5.92556e-06 0.0912695)
(-7.23913e-06 1.44174e-06 0.0810939)
(-6.7603e-06 1.47227e-05 0.0960245)
(-6.28233e-06 1.71866e-06 0.0710647)
(-2.48044e-06 2.42208e-06 0.0679491)
(-5.46543e-06 6.47769e-06 0.0817306)
(-2.01277e-06 -3.78804e-06 0.0852988)
(-3.66928e-06 7.3954e-06 0.0853446)
(-3.243e-06 -3.37363e-06 0.0678987)
(-7.22732e-06 3.98427e-06 0.0817299)
(-2.48398e-06 4.93279e-06 0.0710648)
(-3.39506e-06 2.54468e-06 0.083173)
(-2.04486e-06 -2.83269e-06 0.0678911)
(2.04203e-06 1.23582e-06 0.0678843)
(2.74903e-06 -3.28725e-06 0.083139)
(-1.02753e-06 4.19377e-06 0.0679246)
(-5.2735e-06 6.25101e-08 0.0679301)
(-9.81067e-06 7.45895e-06 0.0912981)
(7.37216e-06 -8.03971e-06 0.095981)
(-3.24464e-06 7.29681e-06 0.0870942)
(3.88766e-06 3.10845e-06 0.0810528)
(-1.49913e-05 6.74076e-06 0.0960268)
(5.8744e-06 -1.57835e-06 0.0912582)
(-2.37035e-06 6.30582e-06 0.08109)
(6.1635e-07 -7.46126e-06 0.0952836)
(-4.35077e-07 5.32878e-05 0.101393)
(5.14212e-06 -4.00794e-05 0.0993677)
(-6.13077e-06 1.23182e-05 0.0926532)
(-2.52401e-06 4.93527e-05 0.0994312)
(2.60708e-06 -4.24446e-05 0.101273)
(-2.35376e-06 1.64415e-05 0.0953501)
(4.0233e-05 -4.99588e-06 0.0993661)
(-1.27778e-05 5.55138e-06 0.0926539)
(-4.9199e-05 2.33323e-06 0.0994317)
(-1.30656e-05 1.33548e-05 0.097351)
(3.92535e-05 -8.87257e-06 0.101402)
(-4.21631e-05 4.25053e-05 0.104505)
(9.14122e-06 -3.90444e-05 0.101396)
(-1.46431e-05 4.00144e-05 0.101471)
(9.3491e-06 -9.16296e-06 0.0973008)
(-3.99609e-05 1.50074e-05 0.101471)
(7.00619e-06 -6.44017e-06 0.113099)
(-1.05328e-05 -1.58142e-06 0.0909893)
(-9.93498e-06 -3.46088e-06 0.0909875)
(-1.52716e-05 -2.84622e-06 0.0983817)
(4.74609e-06 -2.61979e-07 0.110436)
(-7.45841e-06 4.2552e-06 0.0817327)
(-1.61379e-05 -1.36472e-06 0.0983834)
(-1.0883e-05 7.23952e-06 0.0926537)
(4.80588e-07 -2.53334e-06 0.107857)
(4.01601e-06 -7.7792e-07 0.110436)
(2.39878e-06 1.64056e-06 0.0763447)
(-4.71336e-06 3.85118e-07 0.0781514)
(-1.0185e-05 6.08038e-07 0.0894719)
(2.57177e-06 -1.79698e-06 0.0909557)
(2.05663e-06 -2.74235e-07 0.0781216)
(2.93179e-06 -9.50875e-08 0.0894336)
(-4.56525e-06 1.04271e-06 0.0763796)
(2.13183e-06 -2.49003e-06 0.067911)
(-7.60573e-06 -2.51446e-06 0.0853425)
(4.85935e-06 -3.90687e-06 0.0852985)
(-4.40542e-06 1.50645e-06 0.0679583)
(2.65126e-06 -4.08472e-06 0.076344)
(-8.25604e-06 -5.56835e-06 0.0894674)
(-4.75066e-06 -1.51159e-07 0.0781497)
(3.15463e-06 -3.66392e-06 0.0909548)
(5.14576e-06 -6.15055e-06 0.0894303)
(2.1864e-06 -1.69886e-06 0.0781215)
(-4.80307e-06 -5.86471e-07 0.0763764)
(2.72801e-06 2.47825e-06 0.0679091)
(-7.62995e-06 2.72571e-06 0.085346)
(5.87435e-06 2.62868e-06 0.0816921)
(3.76683e-06 1.71716e-06 0.0853032)
(-3.2451e-06 1.30044e-06 0.0679559)
(2.82854e-06 8.69215e-07 0.0710297)
(6.16089e-06 1.31231e-06 0.0912609)
(4.66349e-06 9.99052e-08 0.0870587)
(8.7334e-06 -4.35274e-06 0.0959791)
(4.07382e-06 9.50767e-07 0.0810595)
(1.04989e-06 -2.12415e-06 0.0831514)
(1.30606e-06 -6.6711e-07 0.0678976)
(-3.63406e-07 -2.21931e-06 0.0679041)
(-1.56497e-06 -6.90057e-06 0.091273)
(-1.83599e-06 -5.34998e-06 0.0810671)
(4.73269e-05 -3.35224e-06 0.101267)
(-1.23538e-05 -7.13477e-06 0.0953419)
(1.20161e-05 -4.92913e-06 0.0952784)
(-4.77982e-05 -8.04881e-06 0.101384)
(4.45137e-05 -1.70876e-06 0.102889)
(-1.36063e-05 -5.25264e-06 0.0973733)
(-4.82689e-05 -1.53767e-06 0.103709)
(8.63061e-06 -1.9824e-06 0.098327)
(1.08298e-05 -3.83456e-06 0.0973104)
(4.24692e-05 -7.52632e-07 0.103598)
(-4.79345e-05 -3.44501e-06 0.103024)
(4.19048e-05 -7.43797e-07 0.102891)
(-1.64005e-05 5.70865e-08 0.0973786)
(-4.91585e-05 -1.16759e-06 0.10371)
(7.87956e-06 -9.21332e-07 0.0983279)
(4.17208e-05 -6.41109e-08 0.103598)
(8.09971e-06 -5.12245e-07 0.0973143)
(-5.07333e-05 -7.51705e-07 0.103027)
(4.3044e-05 -2.12588e-06 0.101272)
(-1.55561e-05 2.86388e-06 0.0953499)
(-4.74882e-05 5.05173e-06 0.0994297)
(8.63209e-06 1.25713e-07 0.0926031)
(8.10446e-06 1.81414e-07 0.0952857)
(4.15597e-05 -3.09513e-06 0.0993648)
(-5.18692e-05 1.26156e-06 0.10139)
(7.4623e-06 -7.30959e-06 0.0972979)
(9.14927e-06 -3.7619e-05 0.101391)
(4.96097e-05 4.9006e-05 0.104723)
(1.22523e-05 1.69039e-05 0.108267)
(2.86198e-06 2.1862e-06 0.0708696)
(3.93528e-06 3.79192e-06 0.0869817)
(-3.08378e-06 -7.24288e-06 0.0816094)
(-2.33174e-06 -7.33977e-06 0.0852574)
(-2.2916e-06 -3.29817e-06 0.0709118)
(-4.42741e-06 -3.16315e-06 0.0870185)
(-2.95326e-06 -1.21038e-05 0.0961019)
(1.2352e-05 1.12132e-05 0.0960631)
(4.0693e-06 6.02309e-07 0.0809503)
(7.50708e-06 3.84535e-06 0.0912536)
(4.75185e-05 1.47003e-05 0.101619)
(1.51143e-05 4.71461e-05 0.101626)
(1.24176e-05 1.16498e-05 0.0974041)
(3.18654e-06 -4.92318e-05 0.101649)
(-4.1714e-06 -8.00354e-06 0.0926618)
(-1.08896e-06 -1.20791e-05 0.0954367)
(1.18419e-06 -4.52845e-05 0.0995951)
(1.06792e-05 8.861e-06 0.11768)
(9.5185e-06 -8.72306e-06 0.117679)
(-6.53785e-06 7.39703e-06 0.11768)
(-7.79256e-06 -9.58796e-06 0.117679)
(9.99857e-06 -1.67596e-05 0.108268)
(1.71322e-05 1.18275e-05 0.10827)
(1.66794e-05 -1.03943e-05 0.108265)
(4.82084e-05 -4.84886e-05 0.10472)
(-8.89409e-06 -3.83499e-07 0.0910052)
(6.56582e-06 -6.49592e-07 0.0815683)
(5.61475e-06 2.74979e-08 0.090975)
(2.54545e-06 -2.54945e-06 0.0708684)
(6.63988e-06 -5.38621e-05 0.0995261)
(-1.03371e-05 2.75544e-07 0.0985707)
(5.31034e-05 8.0951e-06 0.099528)
(2.4939e-05 4.08571e-06 0.11083)
(5.81223e-05 3.2377e-06 0.103172)
(-8.80154e-06 9.03179e-07 0.0910054)
(6.74229e-06 8.17892e-07 0.0815665)
(5.69092e-06 1.09636e-06 0.0909744)
(-1.0229e-05 8.27325e-07 0.0985704)
(2.48506e-05 -3.47106e-06 0.110829)
(5.74097e-05 -4.38914e-06 0.101515)
(5.84948e-05 -2.27188e-06 0.103172)
(4.35949e-06 -3.61198e-06 0.0869788)
(3.85957e-06 -4.16403e-06 0.086981)
(2.92794e-06 -2.39367e-06 0.0708691)
(-3.9994e-07 -6.49773e-06 0.0815665)
(4.03633e-06 -1.77714e-06 0.0762197)
(-8.42087e-06 -1.15984e-06 0.0894477)
(-3.85519e-06 -7.93466e-07 0.0780372)
(5.49791e-06 -1.77324e-07 0.090971)
(5.8341e-06 -6.52363e-07 0.0894083)
(3.39965e-06 -8.62643e-07 0.0780091)
(-3.43309e-06 -6.87352e-07 0.0762529)
(-2.83713e-06 -3.64382e-07 0.0678054)
(-7.23016e-06 -3.00466e-06 0.0816103)
(4.64283e-06 -1.08855e-06 0.0852128)
(-7.40662e-06 -2.1194e-06 0.0852577)
(3.41592e-06 -1.52051e-06 0.0677589)
(-3.43203e-06 -1.10148e-07 0.0762521)
(-8.87173e-06 -4.42448e-08 0.0910097)
(5.76839e-06 -2.31576e-08 0.0894113)
(3.4299e-06 -4.87638e-07 0.0780085)
(-8.60495e-06 -4.564e-07 0.0894509)
(-3.82626e-06 -4.11299e-07 0.078037)
(4.05462e-06 -1.08181e-06 0.0762187)
(-3.8343e-06 1.24322e-06 0.0709115)
(3.95625e-06 1.57093e-06 0.076217)
(-3.84392e-06 2.6473e-07 0.0780377)
(-8.26122e-06 1.47321e-06 0.0894481)
(5.55536e-06 1.04212e-06 0.0909704)
(3.33984e-06 7.09136e-07 0.0780076)
(6.06915e-06 1.39353e-06 0.089407)
(-3.48759e-06 2.53582e-08 0.076253)
(-2.95669e-06 2.45084e-07 0.0678075)
(-7.25418e-06 2.65815e-06 0.081609)
(4.91076e-06 1.67556e-06 0.0852118)
(-7.3078e-06 2.42102e-06 0.0852578)
(3.40941e-06 1.84501e-06 0.0677599)
(-3.35633e-06 3.26795e-07 0.0762522)
(-8.73847e-06 1.07873e-06 0.09101)
(3.42333e-06 1.0366e-06 0.0780071)
(6.14017e-06 1.1969e-06 0.08941)
(-3.7647e-06 6.30709e-07 0.0780376)
(-8.21955e-06 1.47713e-06 0.0894513)
(4.09159e-06 1.7274e-06 0.0762162)
(-9.74234e-06 4.88756e-06 0.0912869)
(1.30106e-05 -1.00485e-05 0.0960569)
(-3.39095e-06 4.15775e-06 0.087017)
(3.87386e-06 -1.58124e-06 0.0809487)
(-3.56293e-06 1.8887e-06 0.0809836)
(-1.16987e-05 4.54575e-06 0.096101)
(7.80729e-06 -3.21132e-06 0.0912503)
(-4.67629e-06 9.90797e-06 0.0912944)
(9.99867e-06 -1.29665e-05 0.09606)
(-3.88852e-06 3.66809e-06 0.0870193)
(1.82291e-06 -3.61532e-06 0.0809534)
(-4.47753e-06 1.18185e-05 0.096105)
(-1.59343e-06 3.82964e-06 0.0809895)
(3.31894e-06 -7.72017e-06 0.0912569)
(-3.27618e-06 3.54643e-06 0.0830956)
(1.54255e-06 -1.70826e-06 0.0677732)
(1.95925e-06 -1.32251e-06 0.0677792)
(-1.74589e-06 1.97052e-06 0.0678085)
(-1.71549e-06 1.95785e-06 0.0678148)
(2.68997e-06 -2.45009e-06 0.083064)
(-8.9256e-07 4.05299e-06 0.0709113)
(4.20576e-07 2.99585e-06 0.0678077)
(-2.25117e-06 7.51406e-06 0.0816088)
(-1.20235e-06 -4.67425e-06 0.0852107)
(-1.84201e-06 7.48838e-06 0.0852587)
(-1.28238e-06 -3.17443e-06 0.0677555)
(4.58993e-05 -1.45093e-05 0.101623)
(1.43631e-05 -4.61178e-05 0.101619)
(1.13219e-05 -1.14187e-05 0.0974056)
(-1.26752e-05 1.27015e-05 0.0974618)
(-4.28561e-05 4.2705e-05 0.104879)
(-4.2169e-05 1.16378e-05 0.101705)
(-1.16632e-05 4.20376e-05 0.101701)
(4.17102e-06 -5.74696e-05 0.101517)
(2.4907e-06 -1.4232e-05 0.0926082)
(4.38502e-07 -1.42081e-05 0.0953668)
(1.3799e-06 4.86037e-05 0.10165)
(-4.65212e-06 7.18968e-06 0.0926623)
(-6.73845e-07 4.45809e-05 0.0995968)
(-1.95368e-06 1.15404e-05 0.0954376)
(5.76836e-05 3.2517e-06 0.103161)
(-1.06561e-05 3.56671e-08 0.0975211)
(-4.45168e-05 1.56489e-06 0.104032)
(1.58112e-05 3.77699e-07 0.0985106)
(1.5816e-05 8.09285e-07 0.0974513)
(5.81362e-05 1.01857e-06 0.103906)
(-4.62696e-05 3.2096e-06 0.103315)
(5.68069e-05 5.61899e-06 0.101518)
(1.30281e-05 3.18566e-06 0.0926095)
(1.35192e-05 1.29238e-06 0.0953677)
(-4.91761e-05 2.84706e-06 0.101651)
(-7.92504e-06 -4.23566e-06 0.0926629)
(-1.20952e-05 -1.2139e-06 0.0954378)
(-4.51804e-05 9.69756e-07 0.099597)
(1.60675e-05 3.20474e-07 0.0985203)
(1.58644e-05 9.90716e-07 0.0974597)
(5.87522e-05 8.17906e-07 0.103919)
(-4.63934e-05 3.40259e-06 0.103327)
(-1.02423e-05 3.52804e-07 0.0985807)
(-1.0806e-05 4.19289e-07 0.09753)
(-4.44405e-05 1.49225e-06 0.104046)
(5.80725e-05 -1.93801e-06 0.10316)
(-4.43787e-05 -2.04022e-07 0.104032)
(-1.0253e-05 9.79066e-07 0.0975207)
(1.59189e-05 7.85556e-07 0.0985105)
(5.82717e-05 2.58359e-07 0.103906)
(1.63277e-05 3.5797e-07 0.0974507)
(-4.59188e-05 -1.8675e-06 0.103313)
(5.38512e-05 -6.76081e-06 0.0995238)
(1.43505e-05 -2.34863e-06 0.0926068)
(1.42578e-05 -3.77199e-07 0.0953664)
(-4.86159e-05 -1.44989e-06 0.101649)
(-6.9955e-06 4.91702e-06 0.0926614)
(-1.14865e-05 2.18779e-06 0.0954369)
(-4.45356e-05 6.83785e-07 0.0995943)
(1.61818e-05 6.71988e-07 0.0985201)
(5.88735e-05 6.99173e-08 0.103919)
(1.64484e-05 6.9093e-08 0.097459)
(-4.59916e-05 -2.21677e-06 0.103326)
(-1.01059e-05 7.70597e-07 0.0985806)
(-4.43047e-05 -3.57166e-07 0.104045)
(-1.02082e-05 7.45604e-07 0.0975294)
(7.73569e-06 -6.14531e-06 0.081686)
(1.36295e-05 -4.37745e-06 0.0925964)
(4.22478e-06 7.02811e-07 0.110446)
(1.59155e-06 -7.78381e-06 0.107886)
(-3.66299e-05 -3.70614e-05 0.104388)
(2.9325e-06 -2.89765e-06 0.0710271)
(9.00485e-06 -2.67731e-06 0.0870527)
(8.62346e-06 -1.4295e-06 0.107883)
(4.83914e-06 1.83498e-06 0.107863)
(-2.9043e-05 2.9323e-05 0.104382)
(-7.86354e-07 -4.05187e-06 0.107887)
(-2.22876e-06 -1.19036e-06 0.107888)
(2.68959e-06 -2.6159e-06 0.0909549)
(4.86658e-06 2.83405e-06 0.110447)
(2.58015e-06 3.32462e-06 0.107866)
(7.80104e-06 2.03392e-07 0.0983297)
(2.37553e-06 -1.24592e-06 0.0909549)
(7.58858e-06 5.3465e-07 0.0983292)
(-5.0605e-06 5.63446e-06 0.0870928)
(-8.74669e-06 -1.19475e-06 0.0710165)
(-6.65732e-06 -5.90249e-06 0.0710665)
(1.67368e-05 7.29542e-06 0.115524)
(1.57294e-05 -4.39892e-06 0.115523)
(-3.91901e-06 4.25878e-06 0.113112)
(-7.25078e-06 -8.40105e-06 0.113114)
(1.57516e-05 -3.54409e-06 0.0983798)
(-1.13791e-05 7.85317e-07 0.0925886)
(-5.79444e-06 -4.94055e-06 0.110467)
(3.27625e-06 -7.33986e-06 0.107879)
(1.65067e-05 5.24048e-07 0.0926507)
(-4.52306e-06 -6.0163e-06 0.110454)
(-9.99789e-06 -3.82719e-06 0.0983269)
(-2.76901e-06 1.4228e-05 0.0926513)
(-7.27575e-07 1.64148e-05 0.0983836)
(-9.78672e-07 -8.95621e-06 0.098327)
(6.75511e-07 -4.76338e-06 0.0870528)
(-4.05287e-06 -1.45599e-08 0.0870527)
(4.30445e-05 4.20242e-05 0.104516)
(6.25692e-06 4.79104e-06 0.0870931)
(4.72806e-06 6.24172e-06 0.0870926)
(-3.7506e-06 3.69995e-06 0.0710267)
(3.94759e-05 3.83741e-05 0.10436)
(-2.93979e-06 9.11636e-06 0.0870498)
(-4.31675e-06 4.24943e-06 0.0816684)
(-7.41371e-06 -1.10047e-05 0.0817228)
(-2.54624e-07 1.15841e-05 0.0925876)
(8.31634e-06 -3.01727e-06 0.107877)
(-7.08201e-07 -1.65909e-05 0.0926515)
(-2.79011e-06 2.90247e-06 0.0909509)
(-7.28679e-06 8.14439e-06 0.0816844)
(-2.1309e-06 2.48114e-06 0.0909508)
(1.89978e-06 7.95925e-06 0.0983255)
(-3.80359e-06 1.32482e-05 0.092593)
(5.36936e-06 4.35905e-06 0.110446)
(2.5275e-06 7.83887e-06 0.0983245)
(5.5764e-06 3.57781e-06 0.110444)
(-7.58961e-06 -1.14102e-06 0.0870503)
(1.15063e-06 7.66587e-06 0.087053)
(5.19782e-05 -5.15412e-05 0.104527)
(-3.28101e-06 -1.49375e-05 0.0871023)
(1.46095e-05 2.65125e-06 0.0871012)
(9.52059e-07 8.65673e-06 0.0710183)
(5.41042e-06 5.73322e-06 0.0710643)
(1.02711e-05 -1.33859e-06 0.0909797)
(-4.34035e-06 4.14737e-06 0.0816689)
(1.04944e-05 6.3004e-06 0.0817223)
(-4.13515e-06 -4.07254e-06 0.0909431)
(1.63323e-05 -2.8984e-06 0.098381)
(-5.69474e-06 -2.86515e-06 0.110468)
(-5.59316e-06 -5.19131e-06 0.0925965)
(-2.88657e-07 -4.638e-06 0.107876)
(-4.65186e-06 -3.7781e-06 0.110455)
(1.36671e-05 3.51416e-06 0.0926491)
(-8.97051e-06 -2.44151e-06 0.098328)
(1.05186e-05 -1.44009e-06 0.0909805)
(-4.4007e-06 -2.3209e-06 0.0816775)
(7.9339e-06 1.98922e-06 0.0817229)
(-3.35988e-06 -3.33616e-06 0.0909445)
(-5.60085e-07 1.65992e-05 0.098384)
(-2.4109e-07 -6.02717e-06 0.110467)
(-4.14211e-06 -6.33213e-06 0.0925974)
(-2.67811e-06 -8.04849e-07 0.107878)
(-5.98328e-07 -5.0677e-06 0.110456)
(4.24095e-06 1.32889e-05 0.0926506)
(-1.76517e-07 -8.63533e-06 0.098328)
(-2.24993e-06 -3.29057e-06 0.0710177)
(3.52758e-06 1.71566e-06 0.0710643)
(-2.66032e-06 -2.45271e-06 0.071019)
(1.2268e-06 4.03451e-06 0.0710653)
(-3.18075e-06 -3.14772e-06 0.067949)
(-6.12885e-06 -5.57444e-06 0.0817248)
(5.57224e-06 -5.98834e-06 0.0852956)
(3.29778e-06 -6.02986e-06 0.0679014)
(-6.05239e-06 -5.94976e-06 0.0853383)
(-4.48104e-06 -3.48231e-06 0.0710697)
(-8.65049e-06 -1.17366e-05 0.0913021)
(1.23667e-05 -7.21662e-07 0.0959753)
(-1.3407e-07 -7.91958e-06 0.0870921)
(6.76788e-06 1.0154e-06 0.0810613)
(-1.08111e-05 -1.60821e-05 0.0960205)
(8.83582e-06 -4.74101e-06 0.0912646)
(-2.31463e-06 1.21024e-06 0.0810976)
(-4.14158e-06 -4.30159e-06 0.0763733)
(4.35385e-06 -4.86921e-06 0.0894306)
(-1.04806e-05 -3.36436e-06 0.0909885)
(2.37513e-06 -3.27584e-06 0.078119)
(3.23862e-06 -6.21483e-06 0.0763413)
(-8.57694e-06 -6.05567e-06 0.0894677)
(-4.58088e-06 -2.45937e-06 0.078147)
(-4.67874e-06 -4.86563e-07 0.0763751)
(-1.09288e-05 -1.72302e-06 0.0909896)
(2.12185e-06 -1.43868e-06 0.0781185)
(2.69277e-06 -9.09685e-07 0.0894322)
(2.45296e-06 4.20627e-09 0.0763406)
(-4.72524e-06 -1.26e-06 0.0781481)
(-1.06541e-05 -4.7493e-07 0.0894714)
(-3.27437e-06 4.99611e-07 0.0679493)
(3.40804e-06 5.05361e-07 0.0853017)
(2.69558e-06 1.24793e-06 0.0679034)
(-7.87471e-06 1.79529e-06 0.0853448)
(4.00356e-06 -3.60866e-06 0.0912706)
(4.38914e-06 -1.86747e-07 0.0870581)
(-4.09274e-06 1.6747e-05 0.0960273)
(-6.83451e-06 3.39343e-06 0.081089)
(-4.55681e-06 1.14883e-05 0.0913007)
(9.04026e-06 -5.91443e-06 0.0959885)
(-9.63942e-07 -2.04149e-06 0.0810562)
(1.9714e-06 -1.99273e-06 0.0831338)
(-5.67213e-06 3.20722e-07 0.0679157)
(-9.64501e-07 5.03421e-06 0.0679099)
(1.58821e-06 5.08423e-07 0.06787)
(-2.67274e-06 2.44343e-06 0.0831642)
(-9.00496e-07 -2.02268e-06 0.0678766)
(-6.81594e-06 -7.12291e-06 0.0710614)
(-1.12619e-05 -8.89612e-07 0.0710231)
(-1.81319e-06 -2.14965e-06 0.0831385)
(1.94307e-06 2.26525e-06 0.0679196)
(1.72697e-06 2.52842e-06 0.0679137)
(-1.10393e-06 -1.29403e-06 0.0678821)
(-1.53143e-06 -8.99128e-07 0.0678779)
(3.42858e-06 3.35935e-06 0.0831709)
(1.18729e-05 4.6922e-06 0.0913027)
(-5.64688e-06 -9.21116e-06 0.0959888)
(7.23975e-06 3.7143e-06 0.0870897)
(-1.18658e-06 -8.59708e-07 0.08105)
(1.719e-05 4.39015e-06 0.0960306)
(5.08373e-06 3.12607e-06 0.0810862)
(-3.76309e-06 -3.6116e-06 0.0912681)
(5.01114e-06 1.10948e-05 0.0912963)
(-8.45182e-06 -6.46445e-06 0.095987)
(4.25054e-06 6.66431e-06 0.0870889)
(-4.15777e-07 -1.97915e-06 0.0810467)
(5.10442e-06 1.64015e-05 0.0960275)
(3.28191e-06 4.53064e-06 0.0810811)
(-3.18419e-06 -4.45115e-06 0.0912629)
(-4.49571e-06 -2.10468e-06 0.0912663)
(5.54246e-06 2.47455e-06 0.0810916)
(-8.11212e-07 -3.11549e-06 0.0870555)
(1.63859e-05 6.10032e-06 0.0960272)
(-6.51034e-06 -7.88443e-06 0.095986)
(-1.54817e-06 -1.04327e-06 0.0810544)
(1.16337e-05 5.71511e-06 0.0913021)
(-1.77905e-06 -5.25525e-06 0.0912602)
(2.0173e-06 5.64855e-06 0.0810859)
(-2.86853e-06 -1.12262e-06 0.0870556)
(6.73659e-06 1.59868e-05 0.0960243)
(-7.20825e-06 -7.08321e-06 0.0959834)
(-1.23757e-06 -1.85003e-06 0.0810502)
(5.98176e-06 1.10314e-05 0.0912953)
(3.48274e-06 3.04184e-06 0.0831666)
(-1.25509e-06 -7.75873e-07 0.067876)
(-4.94305e-07 -1.43265e-06 0.0678724)
(1.55987e-06 2.83525e-06 0.0679144)
(2.90701e-06 1.58613e-06 0.0679088)
(-1.8934e-06 -2.35197e-06 0.0831349)
(-4.99228e-06 -3.49974e-06 0.0710681)
(-6.23919e-06 -5.09637e-06 0.0831909)
(1.36281e-06 2.656e-06 0.0679102)
(1.56696e-06 2.47145e-06 0.0679125)
(6.35538e-07 1.37336e-06 0.0831614)
(-1.3863e-07 -1.36865e-06 0.0679437)
(-2.75206e-06 1.3056e-06 0.0679417)
(-1.1648e-05 -8.63527e-06 0.0913002)
(6.34357e-08 1.20876e-05 0.0959665)
(2.26012e-07 6.85062e-06 0.0810629)
(-8.83014e-06 3.30333e-07 0.0870889)
(-4.41356e-06 8.38167e-06 0.0912585)
(9.04424e-09 -1.78268e-06 0.0810995)
(-1.56545e-05 -1.09455e-05 0.0960162)
(-4.23616e-06 -4.62069e-06 0.0679429)
(-5.09894e-06 -1.00145e-05 0.0817124)
(1.07888e-06 3.41962e-06 0.0852853)
(-3.81208e-07 -9.20636e-06 0.0853316)
(-6.53411e-07 1.81493e-06 0.0678962)
(-4.42958e-06 1.02695e-06 0.067904)
(-3.87878e-06 -1.08943e-05 0.0853418)
(-8.63018e-06 2.45034e-06 0.0816774)
(-2.95047e-06 1.37657e-06 0.0852952)
(-6.85637e-06 -5.00145e-06 0.06795)
(-7.27363e-06 -3.34842e-06 0.0763744)
(-6.50939e-06 2.5518e-06 0.0781179)
(-4.53867e-06 4.25774e-06 0.0894271)
(-4.89218e-06 -1.03451e-05 0.0909852)
(-8.31288e-06 3.82731e-06 0.0763411)
(-6.60165e-06 -4.35488e-06 0.0781468)
(-6.78823e-06 -8.48758e-06 0.0894652)
(-5.55856e-06 -2.05867e-06 0.0679474)
(-6.68923e-06 5.83107e-06 0.0852915)
(-7.37273e-06 -5.38519e-06 0.0817232)
(-7.72761e-06 4.18877e-06 0.067899)
(-7.51044e-06 -5.51995e-06 0.0853351)
(-7.90749e-06 -5.68067e-06 0.0763744)
(-5.66616e-06 1.82191e-06 0.0781176)
(-3.78992e-06 1.92133e-06 0.0894299)
(-4.21958e-06 -1.12754e-05 0.090986)
(-6.45308e-06 1.47934e-06 0.0763403)
(-6.31221e-06 -5.1271e-06 0.0781472)
(-5.45095e-06 -1.22711e-05 0.08947)
(-6.43428e-06 -4.55066e-06 0.0679553)
(-5.42775e-06 1.95978e-07 0.0853051)
(-5.5724e-06 1.0895e-06 0.0679103)
(-4.97364e-06 -1.14935e-05 0.0853507)
(2.97918e-06 -3.3057e-06 0.0831551)
(4.23243e-07 -4.06951e-06 0.0678944)
(3.36981e-06 -1.18477e-06 0.0679002)
(-5.47566e-06 -1.95477e-06 0.0678604)
(1.3666e-06 4.88061e-06 0.0678669)
(6.9408e-06 -7.49629e-06 0.0831785)
(4.65873e-06 -1.56157e-05 0.0913215)
(1.7839e-06 8.50338e-06 0.0959869)
(-2.16068e-06 -1.12238e-05 0.0870932)
(-1.16764e-05 -1.70492e-06 0.0810481)
(-7.75268e-06 -1.01721e-05 0.0810841)
(1.28792e-05 -1.68561e-05 0.0960362)
(-8.04604e-07 2.31669e-06 0.0912805)
(1.58833e-05 -4.63296e-06 0.0913275)
(-8.3653e-06 -1.4826e-06 0.0959906)
(1.12109e-05 1.96775e-06 0.0870922)
(1.60554e-06 1.15209e-05 0.081055)
(1.69848e-05 -1.26275e-05 0.0960381)
(1.0045e-05 7.34568e-06 0.0810882)
(-2.05056e-06 9.28076e-07 0.0912883)
(-5.01226e-06 -6.84342e-07 0.0912883)
(-2.9663e-06 -1.1514e-05 0.0810871)
(-1.0675e-05 -6.34639e-06 0.0870606)
(6.11099e-06 -2.07326e-05 0.0960444)
(-9.83162e-06 -4.71733e-06 0.0810512)
(-3.3492e-06 4.23169e-06 0.0959974)
(8.60033e-07 -1.74248e-05 0.0913233)
(7.52598e-07 4.90648e-06 0.0912961)
(1.10418e-05 2.21487e-06 0.0810914)
(6.07921e-06 1.03588e-05 0.0870631)
(2.06742e-05 -6.13389e-06 0.0960461)
(-4.22235e-06 3.49799e-06 0.0960008)
(4.2883e-06 9.31908e-06 0.0810584)
(1.7385e-05 -1.14749e-06 0.0913293)
(9.11815e-06 -9.22924e-06 0.0831877)
(-7.65256e-06 -1.60094e-06 0.0678683)
(1.30091e-06 7.42195e-06 0.0678747)
(-3.26088e-06 -4.82355e-06 0.0678963)
(4.3809e-06 2.84653e-06 0.0679021)
(3.6029e-06 -3.55813e-06 0.0831602)
(6.8805e-06 6.39961e-06 0.0710589)
(3.80682e-07 1.06981e-05 0.071025)
(-2.3086e-06 1.87438e-06 0.0763322)
(1.0408e-05 5.47528e-07 0.0894629)
(4.81528e-06 1.77921e-06 0.0781409)
(-3.59834e-06 -2.59372e-06 0.0909455)
(-3.79826e-06 -1.13873e-06 0.089421)
(-2.22641e-06 4.99346e-07 0.0781115)
(4.87758e-06 4.45012e-06 0.0763694)
(4.16594e-06 3.39191e-06 0.0679421)
(9.82427e-06 4.57948e-06 0.0817116)
(-3.38632e-06 -8.47405e-07 0.0852821)
(8.99383e-06 2.19016e-07 0.0853306)
(-1.98408e-06 2.46021e-07 0.0678906)
(-1.48345e-06 3.02246e-06 0.0678988)
(1.03549e-05 2.76832e-06 0.0853407)
(-2.87413e-06 7.85458e-06 0.0816781)
(-1.71021e-06 2.30547e-06 0.0852915)
(4.29245e-06 5.15094e-06 0.0679497)
(4.52797e-06 1.52128e-06 0.0763616)
(9.51041e-06 -3.49688e-06 0.0909762)
(-5.11077e-06 -4.22865e-06 0.0894163)
(-2.51034e-06 -1.78024e-06 0.0781051)
(8.87613e-06 -2.95291e-06 0.0894569)
(4.54409e-06 -4.16e-07 0.0781337)
(-2.81137e-06 -1.5683e-06 0.0763253)
(-2.85023e-06 -1.00259e-07 0.0763359)
(4.56086e-06 1.18993e-06 0.0781413)
(1.06299e-05 -1.44014e-06 0.0894633)
(-3.10684e-06 -2.44266e-06 0.0909469)
(-2.36562e-06 3.70682e-07 0.0781126)
(-2.77883e-06 -2.45543e-06 0.0894248)
(4.15803e-06 -4.69866e-07 0.0763694)
(3.18633e-06 -1.87797e-06 0.0679413)
(8.46584e-06 5.48832e-07 0.0817182)
(-2.1978e-06 -2.35788e-06 0.0852913)
(9.15895e-06 -1.17182e-06 0.0853346)
(-2.54368e-06 -1.13645e-06 0.0678968)
(-3.01366e-06 3.42598e-07 0.067901)
(8.65397e-06 4.71645e-07 0.0853382)
(-5.09888e-06 -3.93936e-07 0.0816821)
(-2.64047e-06 -1.01807e-06 0.0852951)
(2.79978e-06 -4.06898e-07 0.0679457)
(4.43666e-06 -2.31951e-06 0.0763628)
(1.02013e-05 -3.12536e-06 0.0909775)
(-2.34629e-06 -1.64182e-06 0.0781065)
(-2.8011e-06 -3.34187e-06 0.0894214)
(4.55731e-06 -9.40469e-07 0.0781347)
(1.0729e-05 -2.97211e-06 0.0894597)
(-2.55359e-06 -1.84972e-06 0.0763296)
(3.54429e-06 1.33916e-06 0.0710578)
(-2.42917e-06 -2.25011e-06 0.0710235)
(1.67796e-06 3.493e-06 0.0710588)
(-2.27171e-06 -2.20553e-06 0.0710249)
(-3.84285e-06 1.7891e-06 0.07106)
(-8.38153e-07 -3.37353e-06 0.0909448)
(-2.36772e-06 7.24248e-06 0.0817263)
(-6.4371e-07 1.06252e-05 0.0909851)
(-5.73877e-07 -3.17417e-06 0.0909461)
(-1.67889e-06 -4.80662e-06 0.0816794)
(-4.43247e-07 1.07522e-05 0.0909847)
(1.42573e-06 8.26699e-06 0.0817244)
(2.15939e-06 -3.5094e-06 0.0710211)
(1.38624e-06 3.97416e-06 0.0763674)
(-7.08507e-07 -2.44419e-06 0.0781079)
(3.90913e-07 -3.50037e-06 0.08942)
(-6.4647e-07 1.01969e-05 0.0909806)
(3.83914e-07 -2.93156e-06 0.0763286)
(-6.45069e-07 4.39495e-06 0.0781389)
(6.41117e-07 1.01213e-05 0.0894624)
(-1.05342e-06 -3.05573e-06 0.0678947)
(1.28192e-06 -5.34149e-06 0.0816841)
(-1.51457e-06 7.96263e-06 0.0853411)
(5.57171e-08 -3.21318e-06 0.0852945)
(-6.59798e-07 2.56854e-06 0.0679445)
(-5.61946e-07 -3.0614e-06 0.0763351)
(-6.26073e-07 -2.99273e-06 0.0909492)
(1.72422e-07 1.0366e-05 0.0894675)
(-1.29417e-06 4.46439e-06 0.0781449)
(-1.18607e-06 -2.415e-06 0.0781143)
(7.09244e-07 -3.08516e-06 0.0894255)
(-1.14039e-07 3.87389e-06 0.0763735)
(-1.86079e-06 4.30141e-06 0.0763649)
(-3.48336e-07 -2.43839e-06 0.0781095)
(-1.18691e-06 -3.11773e-06 0.0894231)
(-5.24095e-07 1.04291e-05 0.0909808)
(-7.00005e-07 -2.83133e-06 0.0763319)
(-6.54086e-07 4.47819e-06 0.0781381)
(-9.06666e-07 1.04246e-05 0.0894622)
(-1.55214e-06 3.21896e-06 0.0679432)
(-1.0264e-06 -2.54208e-06 0.0852931)
(8.95856e-07 8.25539e-06 0.08172)
(-2.46807e-07 -2.71867e-06 0.0678984)
(-9.71463e-08 8.95607e-06 0.0853371)
(-4.97361e-07 -2.78537e-06 0.0763374)
(-4.5569e-07 -2.87218e-06 0.0909501)
(-4.12751e-07 1.05185e-05 0.0894666)
(-9.86672e-07 4.59151e-06 0.0781437)
(-5.53629e-07 -2.40136e-06 0.0781153)
(-7.71209e-07 -3.02282e-06 0.0894277)
(-1.80648e-06 4.44548e-06 0.0763703)
(-5.62641e-08 -2.76462e-06 0.0679027)
(-4.63576e-07 -5.06047e-06 0.081684)
(4.11979e-07 8.91862e-06 0.0853417)
(-4.29913e-07 -2.63343e-06 0.085298)
(-1.59583e-06 3.3165e-06 0.0679475)
(-4.92851e-05 -3.6993e-06 0.101392)
(4.51499e-05 -8.58621e-09 0.0993629)
(-5.68159e-06 -1.10854e-05 0.0926458)
(1.05132e-05 -2.74144e-06 0.0952825)
(4.49367e-05 1.70068e-06 0.101275)
(-1.26458e-05 -6.23073e-06 0.0953454)
(-4.35113e-05 -9.58223e-06 0.0994253)
(1.31711e-05 1.29201e-05 0.0973598)
(-7.95069e-06 -3.90377e-05 0.101414)
(-3.81539e-05 -8.25453e-06 0.101412)
(4.3451e-05 4.28167e-05 0.104526)
(1.58027e-05 3.94846e-05 0.101486)
(4.04891e-05 1.54439e-05 0.101483)
(-8.59674e-06 -8.74408e-06 0.0973102)
(2.18467e-05 -2.15121e-05 0.097379)
(-2.56184e-05 3.44019e-06 0.101408)
(-3.25834e-06 2.59926e-05 0.101412)
(5.3132e-05 -5.26917e-05 0.104526)
(2.18671e-05 -5.35369e-05 0.101492)
(5.39958e-05 -2.15836e-05 0.101489)
(9.46192e-08 1.71603e-07 0.0973185)
(-4.96383e-05 3.68693e-08 0.103032)
(9.1284e-06 -7.2577e-07 0.0973144)
(4.15382e-05 1.53351e-06 0.103604)
(-1.61179e-05 -9.2614e-07 0.0983856)
(4.26436e-05 1.81614e-06 0.102896)
(-1.47986e-05 -2.81119e-06 0.0973779)
(-4.95037e-05 9.07457e-07 0.103716)
(-5.1658e-05 -3.46019e-07 0.103031)
(4.13812e-05 1.54697e-06 0.103602)
(-1.66372e-05 -2.42208e-07 0.0983861)
(7.78994e-06 -1.83444e-07 0.0973145)
(4.16003e-05 9.43849e-08 0.102893)
(-4.99984e-05 3.23797e-07 0.103715)
(-1.70224e-05 -2.38273e-08 0.0973804)
(-5.3044e-05 3.36318e-07 0.101394)
(7.30196e-06 -7.11721e-07 0.0952855)
(4.25309e-05 -2.24629e-06 0.101274)
(-1.66283e-05 1.77915e-06 0.0953513)
(1.07748e-05 9.50596e-06 0.113101)
(9.51831e-06 1.52621e-05 0.115524)
(-3.25989e-06 1.55559e-05 0.115515)
(-1.53586e-05 3.71907e-06 0.115517)
(-1.1682e-06 1.89286e-06 0.113106)
(-1.13556e-06 1.4313e-05 0.115519)
(-1.37459e-05 2.26761e-06 0.11552)
(-6.94818e-06 7.60423e-06 0.117655)
(-8.14151e-06 8.29192e-06 0.117629)
(-1.60534e-05 -7.10426e-06 0.115515)
(-5.5722e-06 -1.69402e-05 0.115516)
(-7.05732e-06 -8.58278e-06 0.113108)
(-1.49571e-05 -7.63214e-06 0.115519)
(-5.29751e-06 -1.64018e-05 0.11552)
(-8.15001e-06 -9.87145e-06 0.117655)
(-8.75214e-06 -9.80332e-06 0.117629)
(-1.03489e-06 1.36814e-05 0.115522)
(-4.44345e-05 -5.13219e-06 0.102893)
(1.59048e-05 -3.16344e-06 0.0973729)
(4.89941e-05 -4.32848e-06 0.103715)
(-9.21905e-06 -4.03518e-06 0.0983237)
(-1.01192e-05 -3.95138e-06 0.0973064)
(-4.35119e-05 -4.81966e-06 0.103604)
(5.03199e-05 -4.49747e-06 0.10303)
(4.94489e-05 -8.83275e-06 0.101395)
(-4.56408e-05 -5.24427e-06 0.0993653)
(1.13945e-05 -3.50397e-06 0.0926418)
(-1.13204e-05 -4.0569e-06 0.0952734)
(4.65983e-05 -1.10006e-05 0.0994319)
(1.41358e-05 -5.17109e-06 0.0953398)
(-4.78061e-05 -6.01881e-06 0.101276)
(-4.51421e-05 -4.98018e-06 0.101273)
(1.72729e-05 -2.17023e-06 0.0953444)
(-6.46649e-06 5.28857e-06 0.0925962)
(5.08067e-05 -6.07374e-06 0.0994363)
(-4.16756e-05 -2.19914e-06 0.099369)
(-8.58341e-06 -1.65535e-06 0.0952762)
(5.24023e-05 -6.04663e-06 0.101393)
(4.83469e-05 -5.45047e-06 0.103036)
(1.46813e-05 -4.13683e-06 0.098382)
(-1.15809e-05 -5.02135e-06 0.0973076)
(-4.46202e-05 -3.76767e-06 0.103612)
(1.39041e-05 -5.1713e-06 0.0973725)
(4.77837e-05 -4.09796e-06 0.103723)
(-4.60473e-05 -4.8694e-06 0.102899)
(4.8721e-06 -5.82829e-06 0.0925989)
(1.28273e-06 -7.55862e-06 0.0952806)
(-9.59388e-07 1.68527e-05 0.095348)
(1.69494e-06 -4.32631e-05 0.101274)
(-1.34296e-06 5.02559e-05 0.099432)
(4.82352e-06 -4.01468e-05 0.0993674)
(-4.2922e-07 5.31763e-05 0.101395)