/*--------------------------------*- C++ -*----------------------------------*\
| =========                 |                                                 |
| \\      /  F ield         | OpenFOAM: The Open Source CFD Toolbox           |
|  \\    /   O peration     | Version:  v2006                                 |
|   \\  /    A nd           | Website:  www.openfoam.com                      |
|    \\/     M anipulation  |                                                 |
\*---------------------------------------------------------------------------*/
FoamFile
{
    version     2.0;
    format      ascii;
    class       volScalarField;
    location    "250";
    object      p;
}
// * * * * * * * * * * * * * * * * * * * * * * * * * * * * * * * * * * * * * //

dimensions      [0 2 -2 0 0 0 0];


internalField   nonuniform List<scalar> 
42616
(
0.000729322
0.000729293
0.000729293
0.000731381
0.000692742
0.000692715
0.000692715
0.000694802
0.000656158
0.00065613
0.00065613
0.000658219
0.000619569
0.00061954
0.00061954
0.000621629
0.000582973
0.000582946
0.000582946
0.000585035
0.00054638
0.000546354
0.000546353
0.000548442
0.000509804
0.000509777
0.000509777
0.000511865
0.000473239
0.000473209
0.000473209
0.000475295
0.000436666
0.000436637
0.000436637
0.000438724
0.000400087
0.000400061
0.000400061
0.000402148
0.000363504
0.000363476
0.000363475
0.000365563
0.000326917
0.00032689
0.00032689
0.000328977
0.000290329
0.000290302
0.000290303
0.00029239
0.000253744
0.000253716
0.000253715
0.000255801
0.000217157
0.00021713
0.00021713
0.000219215
0.000180572
0.000180547
0.000180547
0.000182628
0.000143987
0.000143961
0.000143961
0.000146037
0.000107399
0.000107376
0.000107376
0.000109437
7.08126e-05
7.07793e-05
7.07772e-05
7.28058e-05
3.49676e-05
3.43845e-05
3.43806e-05
3.62634e-05
6.15733e-06
7.32084e-06
7.31795e-06
5.31601e-06
0.000736363
0.000738439
0.000738439
0.000736364
0.000738439
0.000738439
0.000738439
0.000738439
0.000736363
0.000738439
0.000738439
0.000736363
0.00073138
0.000699785
0.000729293
0.000729293
0.000701861
0.000701861
0.00073138
0.000699785
0.000729293
0.000729293
0.000701861
0.000701861
0.000729294
0.000701861
0.000701861
0.000731381
0.000699785
0.000729293
0.000701861
0.000701861
0.000699784
0.000694802
0.0006632
0.000692715
0.000692715
0.000665275
0.000665274
0.000694801
0.000663201
0.000692715
0.000692715
0.000665274
0.000665275
0.000692715
0.000665275
0.000665275
0.000694802
0.0006632
0.000692715
0.000665275
0.000665275
0.0006632
0.000658218
0.000626614
0.00065613
0.00065613
0.000628689
0.000628689
0.000658218
0.000626614
0.00065613
0.00065613
0.000628689
0.000628689
0.000656131
0.000628689
0.000628689
0.000658218
0.000626614
0.000656131
0.000628689
0.000628689
0.000626613
0.000621628
0.000590021
0.00061954
0.00061954
0.000592097
0.000592097
0.000621628
0.000590021
0.00061954
0.00061954
0.000592097
0.000592097
0.00061954
0.000592097
0.000592097
0.000621629
0.000590021
0.00061954
0.000592097
0.000592097
0.00059002
0.000585034
0.000553426
0.000582947
0.000582946
0.0005555
0.0005555
0.000585034
0.000553426
0.000582946
0.000582946
0.0005555
0.000555499
0.000582946
0.0005555
0.000555499
0.000585035
0.000553425
0.000582946
0.000555499
0.000555499
0.000553424
0.000548442
0.000516845
0.000546353
0.000546353
0.000518918
0.000518918
0.000548442
0.000516845
0.000546354
0.000546353
0.000518918
0.000518919
0.000546353
0.000518918
0.000518919
0.000548442
0.000516845
0.000546353
0.000518919
0.000518919
0.000516845
0.000511864
0.000480276
0.000509777
0.000509776
0.000482352
0.000482351
0.000511864
0.000480276
0.000509777
0.000509777
0.000482352
0.000482352
0.000509777
0.000482351
0.000482352
0.000511865
0.000480276
0.000509777
0.000482352
0.000482352
0.000480276
0.000475294
0.000443706
0.000473209
0.000473209
0.000445782
0.000445782
0.000475294
0.000443706
0.000473209
0.000473209
0.000445782
0.000445782
0.000473209
0.000445782
0.000445782
0.000475294
0.000443706
0.000473209
0.000445782
0.000445781
0.000443705
0.000438723
0.00040713
0.000436637
0.000436637
0.000409204
0.000409204
0.000438723
0.00040713
0.000436637
0.000436637
0.000409204
0.000409204
0.000436637
0.000409204
0.000409204
0.000438723
0.000407129
0.000436637
0.000409203
0.000409203
0.000407129
0.000402147
0.000370547
0.00040006
0.000400061
0.000372622
0.000372622
0.000402147
0.000370547
0.000400061
0.000400061
0.000372622
0.000372622
0.000400061
0.000372622
0.000372622
0.000402147
0.000370547
0.00040006
0.000372622
0.000372622
0.000370546
0.000365562
0.000333962
0.000363475
0.000363475
0.000336037
0.000336037
0.000365562
0.000333962
0.000363476
0.000363476
0.000336036
0.000336036
0.000363476
0.000336035
0.000336036
0.000365562
0.000333961
0.000363475
0.000336037
0.000336037
0.000333961
0.000328976
0.000297373
0.000326889
0.000326889
0.000299447
0.000299447
0.000328977
0.000297373
0.000326889
0.000326889
0.000299446
0.000299447
0.00032689
0.000299446
0.000299446
0.000328976
0.000297373
0.00032689
0.000299447
0.000299446
0.000297372
0.000292389
0.000260787
0.000290302
0.000290302
0.000262861
0.000262861
0.000292389
0.000260787
0.000290302
0.000290302
0.00026286
0.00026286
0.000290302
0.000262861
0.000262861
0.00029239
0.000260786
0.000290302
0.00026286
0.000262861
0.000260786
0.000255801
0.000224201
0.000253716
0.000253716
0.000226275
0.000226276
0.000255801
0.000224201
0.000253715
0.000253716
0.000226275
0.000226275
0.000253715
0.000226275
0.000226276
0.000255802
0.000224201
0.000253715
0.000226276
0.000226276
0.000224201
0.000219213
0.000187617
0.000217131
0.000217131
0.000189689
0.000189689
0.000219213
0.000187617
0.00021713
0.00021713
0.00018969
0.00018969
0.000217131
0.000189689
0.00018969
0.000219213
0.000187617
0.000217131
0.000189689
0.000189689
0.000187617
0.000182626
0.000151034
0.000180546
0.000180546
0.000153104
0.000153104
0.000182626
0.000151034
0.000180547
0.000180547
0.000153103
0.000153103
0.000180547
0.000153103
0.000153103
0.000182627
0.000151033
0.000180547
0.000153103
0.000153103
0.000151033
0.000146036
0.000114451
0.000143962
0.000143961
0.000116516
0.000116516
0.000146036
0.000114452
0.000143961
0.000143961
0.000116516
0.000116517
0.000143962
0.000116516
0.000116516
0.000146035
0.000114451
0.000143961
0.000116517
0.000116516
0.00011445
0.000109437
7.78577e-05
0.000107377
0.000107377
7.99198e-05
7.99196e-05
0.000109437
7.78579e-05
0.000107376
0.000107376
7.99194e-05
7.99178e-05
0.000107376
7.99197e-05
7.99182e-05
0.000109437
7.7856e-05
0.000107376
7.99174e-05
7.99176e-05
7.78551e-05
7.28078e-05
4.12933e-05
7.07798e-05
7.07796e-05
4.33556e-05
4.33552e-05
7.2808e-05
4.12922e-05
7.07792e-05
7.07778e-05
4.33539e-05
4.33506e-05
7.07776e-05
4.33535e-05
4.33509e-05
7.28063e-05
4.12881e-05
7.0777e-05
4.33499e-05
4.335e-05
4.12877e-05
3.6268e-05
8.60724e-06
3.4386e-05
3.4386e-05
1.17839e-05
1.17852e-05
3.62664e-05
8.60876e-06
3.43845e-05
3.43805e-05
1.1787e-05
1.17804e-05
3.43808e-05
1.17863e-05
1.17808e-05
3.62629e-05
8.6037e-06
3.43805e-05
1.17833e-05
1.17849e-05
8.60559e-06
5.3177e-06
7.31919e-06
7.31877e-06
5.31833e-06
7.32103e-06
7.31486e-06
6.15787e-06
6.15618e-06
6.15715e-06
7.317e-06
5.31353e-06
7.31904e-06
0.000738467
0.000738467
0.000738467
0.000738467
0.000717892
0.000731581
0.000731578
0.000717887
0.00073158
0.000717888
0.000717892
0.000731581
0.000731578
0.000717887
0.000729323
0.000729323
0.000729322
0.000701888
0.000701888
0.000701888
0.000701888
0.000717947
0.000731551
0.000729301
0.000720149
0.000731528
0.000717918
0.000720155
0.00073158
0.000717888
0.000717947
0.000729301
0.00073155
0.000720149
0.000731527
0.000720155
0.000717918
0.000731584
0.000731584
0.000718075
0.000717884
0.000717884
0.000681309
0.000694998
0.000694995
0.000681305
0.000694997
0.000681306
0.000681309
0.000694998
0.000694995
0.000681305
0.000692742
0.000692742
0.000692742
0.000665304
0.000665304
0.000665304
0.000665304
0.000681362
0.000694968
0.000692723
0.000683568
0.000694943
0.000681336
0.000683576
0.000694997
0.000681306
0.000681363
0.000692723
0.000694968
0.000683568
0.000694943
0.000683575
0.000681336
0.000695002
0.000695002
0.000681491
0.000681303
0.000681303
0.000644723
0.000658415
0.000658414
0.000644719
0.000658415
0.00064472
0.000644723
0.000658416
0.000658414
0.000644719
0.000656158
0.000656158
0.000656159
0.000628717
0.000628717
0.000628718
0.000628718
0.000644775
0.000658386
0.000656137
0.000646985
0.000658364
0.000644749
0.000646993
0.000658415
0.00064472
0.000644776
0.000656137
0.000658385
0.000646986
0.000658364
0.000646993
0.00064475
0.000658419
0.000658419
0.000644909
0.000644717
0.000644717
0.000608135
0.000621829
0.000621827
0.000608131
0.000621828
0.000608131
0.000608135
0.000621829
0.000621827
0.000608131
0.000619569
0.00061957
0.00061957
0.000592123
0.000592123
0.000592123
0.000592122
0.00060819
0.000621799
0.000619546
0.000610392
0.000621777
0.000608161
0.000610398
0.000621828
0.000608132
0.00060819
0.000619546
0.000621799
0.000610392
0.000621777
0.000610398
0.000608162
0.000621832
0.000621832
0.000608317
0.000608129
0.000608128
0.000571542
0.000585235
0.000585232
0.000571538
0.000585234
0.00057154
0.000571542
0.000585235
0.000585232
0.000571538
0.000582973
0.000582973
0.000582973
0.000555527
0.000555527
0.000555526
0.000555526
0.000571595
0.000585204
0.000582954
0.000573795
0.000585179
0.000571569
0.000573802
0.000585234
0.00057154
0.000571594
0.000582954
0.000585204
0.000573795
0.000585178
0.000573802
0.000571568
0.000585238
0.000585238
0.000571719
0.000571537
0.000571537
0.000534952
0.000548644
0.000548641
0.000534949
0.000548644
0.00053495
0.000534953
0.000548645
0.000548641
0.000534949
0.000546381
0.000546379
0.000546379
0.000518946
0.000518946
0.000518947
0.000518947
0.000535004
0.000548613
0.00054636
0.000537208
0.000548589
0.000534979
0.000537215
0.000548644
0.000534951
0.000535004
0.000546359
0.000548614
0.000537208
0.000548589
0.000537214
0.000534979
0.000548648
0.000548648
0.000535133
0.000534947
0.000534947
0.000498377
0.000512064
0.000512062
0.000498372
0.000512063
0.000498373
0.000498376
0.000512064
0.000512062
0.000498372
0.000509804
0.000509805
0.000509804
0.00048238
0.00048238
0.000482381
0.000482381
0.00049843
0.000512034
0.000509782
0.000500636
0.000512011
0.000498403
0.000500642
0.000512063
0.000498373
0.00049843
0.000509783
0.000512033
0.000500637
0.000512011
0.000500643
0.000498403
0.000512067
0.000512067
0.000498562
0.00049837
0.00049837
0.000461806
0.000475492
0.000475491
0.000461802
0.000475492
0.000461803
0.000461806
0.000475492
0.00047549
0.000461802
0.000473239
0.00047324
0.00047324
0.00044581
0.00044581
0.000445809
0.000445809
0.000461862
0.000475462
0.000473217
0.000464067
0.00047544
0.000461833
0.000464074
0.000475491
0.000461803
0.000461861
0.000473216
0.000475462
0.000464067
0.000475441
0.000464074
0.000461832
0.000475495
0.000475495
0.000461991
0.0004618
0.000461799
0.000425236
0.000438921
0.000438919
0.000425231
0.000438921
0.000425232
0.000425236
0.000438921
0.000438919
0.000425231
0.000436666
0.000436665
0.000436665
0.000409232
0.000409232
0.000409232
0.000409232
0.00042529
0.000438891
0.000436645
0.000427492
0.000438867
0.000425262
0.000427499
0.000438921
0.000425233
0.000425291
0.000436645
0.000438891
0.000427492
0.000438866
0.000427499
0.000425263
0.000438925
0.000438925
0.000425416
0.00042523
0.00042523
0.000388655
0.000402345
0.000402342
0.000388651
0.000402344
0.000388651
0.000388655
0.000402345
0.000402342
0.000388651
0.000400088
0.000400088
0.000400088
0.00037265
0.00037265
0.00037265
0.00037265
0.000388709
0.000402314
0.000400069
0.000390915
0.00040229
0.000388682
0.000390922
0.000402344
0.000388652
0.000388707
0.000400068
0.000402314
0.000390916
0.000402292
0.000390924
0.000388681
0.000402348
0.000402348
0.000388839
0.000388649
0.000388648
0.000352071
0.000365763
0.000365761
0.000352067
0.000365762
0.000352068
0.00035207
0.000365763
0.00036576
0.000352066
0.000363504
0.000363504
0.000363504
0.000336064
0.000336064
0.000336063
0.000336063
0.000352123
0.000365731
0.000363484
0.000354329
0.000365708
0.000352097
0.000354338
0.000365762
0.000352068
0.000352126
0.000363482
0.000365733
0.000354328
0.00036571
0.000354335
0.000352098
0.000365766
0.000365766
0.000352253
0.000352065
0.000352066
0.000315484
0.000329176
0.000329173
0.00031548
0.000329175
0.000315481
0.000315483
0.000329176
0.000329174
0.00031548
0.000326917
0.000326917
0.000326917
0.000299475
0.000299475
0.000299476
0.000299476
0.000315535
0.000329145
0.000326895
0.000317741
0.000329123
0.00031551
0.00031775
0.000329175
0.000315481
0.000315538
0.000326897
0.000329144
0.00031774
0.00032912
0.000317748
0.000315512
0.000329179
0.000329178
0.000315665
0.000315478
0.000315479
0.000278897
0.000292588
0.000292586
0.000278893
0.000292588
0.000278893
0.000278896
0.000292588
0.000292587
0.000278892
0.000290329
0.000290329
0.000290329
0.000262889
0.000262889
0.000262889
0.000262889
0.00027895
0.000292558
0.000290307
0.000281155
0.000292537
0.000278923
0.000281161
0.000292588
0.000278892
0.000278948
0.000290308
0.000292557
0.000281156
0.000292535
0.000281163
0.000278923
0.000292591
0.000292591
0.000279081
0.00027889
0.00027889
0.000242312
0.000256003
0.000256001
0.000242308
0.000256003
0.000242307
0.000242312
0.000256003
0.000256001
0.000242308
0.000253744
0.000253744
0.000253744
0.000226302
0.000226302
0.000226302
0.000226302
0.000242368
0.000255971
0.000253722
0.000244568
0.000255949
0.00024234
0.000244573
0.000256003
0.000242307
0.000242368
0.000253721
0.000255972
0.000244569
0.00025595
0.000244573
0.00024234
0.000256005
0.000256006
0.000242494
0.000242307
0.000242307
0.000205725
0.000219414
0.000219412
0.000205721
0.000219417
0.000205718
0.000205726
0.000219414
0.000219412
0.000205722
0.000217157
0.000217157
0.000217157
0.000189715
0.000189716
0.000189715
0.000189715
0.00020578
0.000219382
0.000217139
0.000207981
0.000219359
0.000205755
0.000207988
0.000219417
0.000205719
0.000205781
0.000217139
0.000219382
0.000207981
0.000219358
0.000207987
0.000205756
0.000219416
0.000219416
0.000205908
0.000205721
0.000205721
0.000169138
0.000182828
0.000182827
0.000169136
0.000182834
0.000169128
0.000169138
0.000182827
0.000182826
0.000169136
0.000180572
0.000180572
0.000180572
0.000153126
0.000153126
0.000153127
0.000153127
0.000169192
0.000182793
0.000180555
0.000171396
0.000182773
0.000169173
0.000171404
0.000182833
0.000169128
0.000169192
0.000180555
0.000182793
0.000171396
0.000182773
0.000171404
0.000169172
0.000182828
0.000182828
0.000169324
0.000169139
0.000169139
0.000132553
0.000146239
0.00014624
0.000132554
0.000146254
0.000132532
0.000132552
0.00014624
0.000146241
0.000132553
0.000143987
0.000143987
0.000143987
0.000116534
0.000116534
0.000116533
0.000116533
0.00013261
0.000146201
0.000143967
0.00013481
0.000146189
0.000132596
0.000134813
0.000146255
0.000132532
0.00013261
0.000143967
0.0001462
0.000134809
0.000146188
0.000134813
0.000132596
0.000146236
0.000146237
0.000132741
0.000132559
0.000132558
9.59559e-05
0.000109645
0.000109651
9.59668e-05
0.000109684
9.59132e-05
9.59565e-05
0.000109645
0.00010965
9.59673e-05
0.000107399
0.000107398
0.000107398
7.99256e-05
7.99256e-05
7.99242e-05
7.99241e-05
9.60161e-05
0.000109593
0.000107384
9.822e-05
0.000109594
9.60221e-05
9.82205e-05
0.000109683
9.59129e-05
9.60143e-05
0.000107384
0.000109593
9.8219e-05
0.000109593
9.82207e-05
9.60207e-05
0.000109633
0.000109633
9.61553e-05
9.59831e-05
9.59826e-05
5.93203e-05
7.30242e-05
7.30482e-05
5.93506e-05
7.31314e-05
5.91901e-05
5.93163e-05
7.30228e-05
7.30457e-05
5.93477e-05
7.08124e-05
7.08107e-05
7.08109e-05
4.36146e-05
4.36143e-05
4.36111e-05
4.36111e-05
5.93782e-05
7.29528e-05
7.07956e-05
6.1615e-05
7.29923e-05
5.94245e-05
6.16381e-05
7.31288e-05
5.91856e-05
5.93752e-05
7.07932e-05
7.29504e-05
6.16128e-05
7.29913e-05
6.16364e-05
5.94214e-05
7.29881e-05
7.29873e-05
5.95492e-05
5.93886e-05
5.93878e-05
2.20748e-05
3.60637e-05
3.61999e-05
2.14961e-05
3.64168e-05
2.09587e-05
2.2067e-05
3.60584e-05
3.61941e-05
2.14963e-05
3.49673e-05
3.49638e-05
3.49637e-05
1.18854e-05
1.18858e-05
1.18839e-05
1.18848e-05
2.25608e-05
3.6008e-05
3.46456e-05
2.57412e-05
3.62862e-05
2.20365e-05
2.60804e-05
3.64103e-05
2.09549e-05
2.25592e-05
3.46419e-05
3.60032e-05
2.57376e-05
3.62853e-05
2.60764e-05
2.20366e-05
3.59414e-05
3.59407e-05
2.35359e-05
2.18287e-05
2.18287e-05
3.03067e-06
4.49957e-06
3.86744e-06
2.56297e-08
1.98026e-06
-3.6652e-06
3.04256e-06
4.48717e-06
3.8584e-06
3.50915e-08
7.27113e-07
7.39867e-06
7.39831e-06
8.26238e-06
7.81146e-06
4.03826e-06
4.03963e-06
1.81393e-06
3.40263e-06
6.75532e-06
1.38115e-06
4.94111e-06
5.63591e-06
-2.32444e-06
1.96675e-06
-3.66991e-06
1.81177e-06
6.75294e-06
3.3954e-06
1.381e-06
4.94014e-06
-2.32382e-06
5.64257e-06
7.58635e-07
7.56189e-07
7.11094e-07
3.69292e-06
3.68273e-06
0.000736179
0.000749869
0.000736178
0.000749869
0.000749671
0.000736175
0.000736175
0.000749873
0.000749873
0.000749867
0.000736177
0.00074987
0.000736181
0.000749867
0.000736177
0.000749869
0.000736181
0.000749814
0.000747585
0.000736207
0.000738447
0.000749839
0.000747593
0.000736234
0.000749814
0.000747585
0.000736208
0.000738448
0.000749839
0.000747593
0.000736234
0.000736178
0.000749869
0.000749671
0.000736175
0.000736175
0.000749872
0.000749873
0.000736178
0.000749869
0.000749867
0.000736177
0.00074987
0.00073618
0.000749814
0.000747585
0.000736207
0.000738448
0.000749839
0.000747593
0.000736234
0.000749867
0.000736177
0.00074987
0.000736181
0.000749814
0.000747585
0.000738448
0.000736207
0.000747593
0.000749839
0.000736234
0.000749814
0.000747585
0.000736207
0.000738448
0.000749839
0.000747593
0.000736234
0.000749867
0.000736177
0.00074987
0.000736181
0.000749814
0.000747585
0.000738448
0.000736207
0.000747593
0.000749839
0.000736234
0.000749867
0.000736177
0.00074987
0.00073618
0.000736178
0.000749869
0.000749672
0.000736175
0.000736175
0.000749873
0.000749873
0.000736178
0.000749869
0.000749814
0.000747585
0.000738448
0.000736207
0.000747593
0.000749839
0.000736234
0.000749814
0.000747585
0.000738448
0.000736207
0.000747593
0.000749839
0.000736234
0.000749867
0.000736177
0.00074987
0.00073618
0.000749867
0.000736177
0.00074987
0.00073618
0.000749672
0.000736175
0.000736175
0.000749873
0.000749873
0.000736178
0.000749869
0.000736178
0.000749869
0.00073158
0.000717888
0.00073158
0.000717888
0.000731584
0.000731584
0.000718075
0.000717885
0.000717885
0.000699596
0.000713289
0.000699596
0.000713289
0.000713093
0.000699593
0.000699593
0.000713293
0.000713293
0.000717892
0.000731581
0.000731578
0.000717887
0.000717947
0.000731551
0.000729301
0.000720149
0.000731527
0.000717918
0.000720155
0.000717947
0.00073155
0.000729301
0.000720149
0.000731527
0.000717918
0.000720155
0.000713288
0.000699595
0.00071329
0.000699599
0.000713288
0.000699595
0.00071329
0.000699599
0.000713238
0.000711006
0.000699625
0.000701869
0.00071326
0.000711011
0.000699652
0.000713238
0.000711006
0.000699626
0.000701869
0.00071326
0.000711011
0.000699652
0.000731584
0.000731584
0.000718076
0.000717885
0.000717884
0.00073158
0.000717888
0.000699596
0.000713288
0.000713093
0.000699593
0.000699593
0.000713292
0.000713293
0.000699596
0.000713288
0.000717947
0.00073155
0.000729301
0.000720149
0.000731527
0.000717918
0.000720155
0.000717892
0.00073158
0.000731578
0.000717887
0.000717947
0.000729301
0.00073155
0.000720149
0.000731527
0.000720155
0.000717918
0.000713288
0.000699595
0.00071329
0.000699599
0.000713238
0.000711006
0.000699625
0.000701869
0.00071326
0.000711011
0.000699652
0.000713288
0.000699595
0.00071329
0.000699599
0.000713238
0.000711006
0.000701869
0.000699625
0.000711011
0.00071326
0.000699652
0.000717892
0.000731581
0.000731578
0.000717887
0.000717947
0.000729301
0.00073155
0.000720149
0.000731528
0.000720155
0.000717918
0.000717892
0.000731581
0.000731578
0.000717887
0.000713238
0.000711006
0.000699625
0.000701869
0.00071326
0.000711011
0.000699652
0.000713288
0.000699595
0.00071329
0.000699599
0.000713238
0.000711006
0.000701868
0.000699625
0.000711011
0.00071326
0.000699652
0.000713288
0.000699595
0.00071329
0.000699599
0.000731584
0.000731584
0.000718075
0.000717884
0.000717884
0.00073158
0.000717888
0.000699596
0.000713288
0.000713093
0.000699593
0.000699593
0.000713293
0.000713293
0.000699596
0.000713288
0.000717947
0.000729301
0.00073155
0.000720149
0.000731527
0.000720155
0.000717918
0.000717891
0.00073158
0.000731578
0.000717887
0.000717892
0.00073158
0.000731578
0.000717887
0.000713238
0.000711006
0.000701868
0.000699625
0.000711011
0.00071326
0.000699652
0.000713238
0.000711006
0.000701868
0.000699625
0.000711011
0.00071326
0.000699652
0.000713288
0.000699595
0.00071329
0.000699599
0.000713288
0.000699595
0.00071329
0.000699599
0.00073158
0.000717888
0.00073158
0.000717888
0.000713094
0.000699593
0.000699593
0.000713293
0.000713293
0.000699596
0.000713288
0.000699596
0.000713288
0.000694997
0.000681306
0.000694997
0.000681306
0.000695002
0.000695002
0.000681492
0.000681303
0.000681303
0.000663014
0.000676707
0.000663015
0.000676708
0.000676508
0.000663011
0.000663011
0.000676712
0.000676712
0.000681309
0.000694998
0.000694995
0.000681305
0.000681363
0.000694968
0.000692723
0.000683568
0.000694943
0.000681336
0.000683576
0.000681363
0.000694968
0.000692723
0.000683568
0.000694943
0.000681336
0.000683576
0.000676706
0.000663013
0.000676708
0.000663018
0.000676706
0.000663013
0.000676708
0.000663018
0.000676655
0.000674421
0.000663044
0.000665281
0.000676678
0.000674428
0.000663073
0.000676655
0.00067442
0.000663044
0.000665281
0.000676678
0.000674428
0.000663073
0.000695001
0.000695002
0.000681492
0.000681304
0.000681303
0.000694997
0.000681306
0.000663014
0.000676708
0.000676507
0.000663012
0.000663011
0.000676712
0.000676712
0.000663015
0.000676707
0.000681363
0.000694968
0.000692723
0.000683568
0.000694943
0.000681336
0.000683576
0.000681309
0.000694998
0.000694995
0.000681305
0.000681363
0.000692723
0.000694968
0.000683568
0.000694943
0.000683576
0.000681336
0.000676706
0.000663013
0.000676708
0.000663018
0.000676656
0.00067442
0.000663044
0.000665281
0.000676679
0.000674427
0.000663073
0.000676706
0.000663013
0.000676708
0.000663018
0.000676656
0.00067442
0.000665281
0.000663044
0.000674427
0.000676678
0.000663073
0.000681309
0.000694998
0.000694995
0.000681305
0.000681362
0.000692723
0.000694968
0.000683568
0.000694943
0.000683576
0.000681336
0.000681309
0.000694998
0.000694995
0.000681305
0.000676656
0.00067442
0.000663044
0.000665281
0.000676678
0.000674428
0.000663073
0.000676706
0.000663013
0.000676708
0.000663018
0.000676656
0.000674421
0.000665281
0.000663044
0.000674428
0.000676678
0.000663073
0.000676706
0.000663013
0.000676708
0.000663018
0.000695001
0.000695001
0.000681492
0.000681303
0.000681303
0.000694997
0.000681306
0.000663014
0.000676707
0.000676508
0.000663011
0.000663011
0.000676712
0.000676712
0.000663015
0.000676708
0.000681363
0.000692723
0.000694968
0.000683567
0.000694943
0.000683576
0.000681336
0.000681309
0.000694998
0.000694996
0.000681305
0.000681309
0.000694998
0.000694996
0.000681305
0.000676656
0.00067442
0.000665281
0.000663044
0.000674427
0.000676678
0.000663073
0.000676656
0.00067442
0.000665281
0.000663044
0.000674428
0.000676678
0.000663073
0.000676706
0.000663013
0.000676708
0.000663018
0.000676706
0.000663013
0.000676708
0.000663018
0.000694997
0.000681306
0.000694997
0.000681307
0.000676509
0.000663011
0.000663011
0.000676712
0.000676712
0.000663014
0.000676707
0.000663014
0.000676708
0.000658414
0.00064472
0.000658415
0.00064472
0.000658419
0.000658419
0.00064491
0.000644716
0.000644716
0.000626427
0.00064012
0.000626427
0.000640121
0.000639926
0.000626424
0.000626424
0.000640124
0.000640125
0.000644723
0.000658416
0.000658414
0.000644719
0.000644776
0.000658385
0.000656136
0.000646985
0.000658364
0.000644749
0.000646992
0.000644776
0.000658385
0.000656136
0.000646985
0.000658364
0.00064475
0.000646992
0.000640119
0.000626426
0.000640122
0.000626431
0.000640119
0.000626427
0.000640122
0.000626431
0.000640067
0.000637838
0.000626457
0.000628696
0.000640091
0.000637845
0.000626485
0.000640067
0.000637838
0.000626458
0.000628696
0.000640091
0.000637846
0.000626485
0.000658419
0.000658419
0.00064491
0.000644717
0.000644717
0.000658415
0.00064472
0.000626427
0.000640121
0.000639925
0.000626424
0.000626424
0.000640124
0.000640125
0.000626427
0.000640121
0.000644776
0.000658385
0.000656136
0.000646985
0.000658364
0.000644749
0.000646993
0.000644723
0.000658416
0.000658414
0.000644719
0.000644776
0.000656137
0.000658385
0.000646986
0.000658364
0.000646993
0.00064475
0.000640119
0.000626426
0.000640122
0.000626431
0.000640067
0.000637838
0.000626457
0.000628696
0.000640091
0.000637846
0.000626485
0.000640119
0.000626427
0.000640122
0.000626431
0.000640067
0.000637838
0.000628696
0.000626458
0.000637846
0.000640091
0.000626485
0.000644723
0.000658416
0.000658414
0.000644719
0.000644775
0.000656137
0.000658385
0.000646986
0.000658364
0.000646993
0.000644749
0.000644723
0.000658415
0.000658414
0.000644719
0.000640067
0.000637838
0.000626457
0.000628696
0.000640091
0.000637846
0.000626485
0.000640119
0.000626426
0.000640122
0.000626431
0.000640067
0.000637838
0.000628696
0.000626457
0.000637846
0.000640091
0.000626485
0.000640119
0.000626426
0.000640122
0.000626431
0.000658419
0.000658419
0.00064491
0.000644717
0.000644717
0.000658415
0.00064472
0.000626428
0.000640121
0.000639926
0.000626424
0.000626424
0.000640125
0.000640125
0.000626428
0.000640121
0.000644776
0.000656137
0.000658385
0.000646985
0.000658364
0.000646993
0.000644749
0.000644723
0.000658416
0.000658414
0.000644719
0.000644723
0.000658416
0.000658414
0.000644719
0.000640067
0.000637838
0.000628696
0.000626458
0.000637846
0.000640092
0.000626485
0.000640067
0.000637838
0.000628696
0.000626458
0.000637846
0.000640091
0.000626485
0.000640119
0.000626427
0.000640122
0.000626431
0.000640119
0.000626427
0.000640122
0.000626431
0.000658414
0.00064472
0.000658414
0.00064472
0.000639926
0.000626424
0.000626424
0.000640125
0.000640125
0.000626427
0.00064012
0.000626428
0.000640121
0.000621828
0.000608132
0.000621828
0.000608132
0.000621832
0.000621832
0.000608317
0.000608129
0.000608129
0.000589834
0.000603531
0.000589834
0.000603531
0.000603333
0.000589831
0.000589831
0.000603536
0.000603535
0.000608135
0.000621829
0.000621827
0.000608131
0.00060819
0.000621799
0.000619546
0.000610392
0.000621777
0.000608162
0.000610398
0.00060819
0.000621799
0.000619546
0.000610392
0.000621777
0.000608162
0.000610398
0.00060353
0.000589833
0.000603532
0.000589837
0.00060353
0.000589833
0.000603532
0.000589837
0.000603479
0.000601245
0.000589863
0.000592104
0.000603502
0.000601252
0.000589889
0.000603479
0.000601245
0.000589863
0.000592105
0.000603502
0.000601252
0.000589889
0.000621832
0.000621832
0.000608318
0.000608129
0.000608128
0.000621828
0.000608132
0.000589834
0.000603531
0.000603334
0.000589831
0.000589831
0.000603535
0.000603535
0.000589834
0.000603531
0.00060819
0.000621799
0.000619546
0.000610392
0.000621777
0.000608161
0.000610398
0.000608135
0.000621829
0.000621827
0.000608131
0.00060819
0.000619546
0.000621799
0.000610392
0.000621777
0.000610398
0.000608162
0.00060353
0.000589833
0.000603532
0.000589836
0.000603479
0.000601245
0.000589863
0.000592104
0.000603502
0.000601252
0.000589888
0.00060353
0.000589833
0.000603532
0.000589836
0.000603479
0.000601245
0.000592104
0.000589863
0.000601252
0.000603502
0.000589888
0.000608135
0.000621829
0.000621827
0.000608131
0.00060819
0.000619546
0.000621799
0.000610392
0.000621777
0.000610398
0.000608161
0.000608135
0.000621829
0.000621827
0.000608131
0.000603479
0.000601245
0.000589863
0.000592104
0.000603502
0.000601251
0.000589888
0.00060353
0.000589833
0.000603532
0.000589837
0.000603479
0.000601245
0.000592104
0.000589863
0.000601252
0.000603502
0.000589888
0.00060353
0.000589833
0.000603532
0.000589837
0.000621832
0.000621832
0.000608317
0.000608129
0.000608129
0.000621828
0.000608132
0.000589834
0.000603531
0.000603333
0.000589831
0.000589831
0.000603535
0.000603535
0.000589834
0.000603531
0.00060819
0.000619546
0.000621799
0.000610392
0.000621777
0.000610398
0.000608161
0.000608135
0.000621829
0.000621827
0.000608131
0.000608135
0.000621829
0.000621827
0.000608131
0.000603479
0.000601245
0.000592104
0.000589863
0.000601252
0.000603502
0.000589888
0.000603479
0.000601245
0.000592104
0.000589863
0.000601252
0.000603502
0.000589888
0.00060353
0.000589832
0.000603532
0.000589836
0.00060353
0.000589833
0.000603532
0.000589836
0.000621828
0.000608132
0.000621828
0.000608132
0.000603335
0.000589831
0.000589831
0.000603535
0.000603535
0.000589834
0.000603531
0.000589834
0.000603531
0.000585234
0.00057154
0.000585234
0.00057154
0.000585239
0.000585238
0.00057172
0.000571536
0.000571536
0.000553244
0.00056694
0.000553244
0.00056694
0.000566735
0.00055324
0.00055324
0.000566944
0.000566944
0.000571542
0.000585235
0.000585232
0.000571538
0.000571596
0.000585204
0.000582954
0.000573795
0.000585179
0.000571568
0.000573802
0.000571596
0.000585204
0.000582955
0.000573795
0.000585179
0.000571569
0.000573802
0.000566938
0.000553242
0.00056694
0.000553246
0.000566938
0.000553242
0.00056694
0.000553246
0.000566886
0.000564647
0.000553272
0.000555506
0.000566909
0.000564653
0.000553298
0.000566886
0.000564647
0.000553272
0.000555506
0.000566909
0.000564653
0.000553298
0.000585238
0.000585239
0.000571721
0.000571537
0.000571537
0.000585235
0.00057154
0.000553244
0.00056694
0.000566736
0.00055324
0.00055324
0.000566944
0.000566944
0.000553244
0.00056694
0.000571595
0.000585204
0.000582954
0.000573795
0.000585179
0.000571568
0.000573802
0.000571542
0.000585234
0.000585231
0.000571538
0.000571595
0.000582954
0.000585204
0.000573795
0.000585178
0.000573802
0.000571568
0.000566937
0.000553242
0.00056694
0.000553246
0.000566886
0.000564646
0.000553272
0.000555505
0.000566909
0.000564652
0.000553298
0.000566937
0.000553242
0.00056694
0.000553246
0.000566886
0.000564646
0.000555505
0.000553272
0.000564652
0.000566909
0.000553298
0.000571542
0.000585235
0.000585232
0.000571538
0.000571595
0.000582954
0.000585204
0.000573795
0.000585179
0.000573801
0.000571568