/*--------------------------------*- C++ -*----------------------------------*\
| =========                 |                                                 |
| \\      /  F ield         | OpenFOAM: The Open Source CFD Toolbox           |
|  \\    /   O peration     | Version:  v2006                                 |
|   \\  /    A nd           | Website:  www.openfoam.com                      |
|    \\/     M anipulation  |                                                 |
\*---------------------------------------------------------------------------*/
FoamFile
{
    version     2.0;
    format      ascii;
    class       surfaceScalarField;
    location    "250";
    object      phi;
}
// * * * * * * * * * * * * * * * * * * * * * * * * * * * * * * * * * * * * * //

dimensions      [0 3 -1 0 0 0 0];
oriented        oriented;


internalField   nonuniform List<scalar> 
123728
(
1.56326e-09
1.57872e-09
-0.00117903
-1.37337e-09
-1.4975e-09
0.00117903
-0.0011347
-1.2064e-06
-1.52698e-09
3.50495e-09
0.0011347
-2.24113e-07
1.20809e-06
2.22473e-07
8.58656e-07
-2.07502e-07
-8.57955e-07
2.05144e-07
-0.0011346
-1.20364e-06
-1.52176e-09
3.49555e-09
0.0011346
-2.24072e-07
1.20538e-06
2.22494e-07
8.53237e-07
-2.04821e-07
-8.52605e-07
2.02431e-07
-0.000271063
1.23535e-06
1.19287e-06
-2.06626e-07
-2.16991e-07
0.000269058
1.03754e-09
1.55459e-09
-0.00117903
-1.37478e-09
-1.17161e-09
0.00117903
-0.0011347
-1.20628e-06
-1.46154e-09
2.82763e-09
0.0011347
-2.23908e-07
1.2082e-06
2.22656e-07
8.58457e-07
-2.07498e-07
-8.58131e-07
2.05101e-07
-0.0011346
-1.20363e-06
-1.50353e-09
3.05947e-09
0.0011346
-2.2398e-07
1.20539e-06
2.22571e-07
8.53094e-07
-2.04805e-07
-8.52729e-07
2.02399e-07
-0.000271062
1.2352e-06
1.19284e-06
-2.06595e-07
-2.16871e-07
0.000269058
3.89517e-10
8.92452e-10
-0.00117903
-8.79415e-10
-5.75679e-10
0.00117903
-0.0011347
-1.20644e-06
-6.45145e-10
3.19583e-09
0.0011347
-2.24097e-07
1.20804e-06
2.22472e-07
8.58336e-07
-2.07625e-07
-8.58247e-07
2.05052e-07
-0.0011346
-1.2037e-06
-9.15716e-10
3.22937e-09
0.0011346
-2.2407e-07
1.20531e-06
2.22484e-07
8.52989e-07
-2.04895e-07
-8.52833e-07
2.02391e-07
-0.000271062
1.23542e-06
1.19301e-06
-2.06732e-07
-2.17043e-07
0.000269058
1.72355e-10
-1.52402e-10
-0.00117904
-3.79785e-10
-7.79094e-10
0.00117904
-0.0011347
-1.20669e-06
8.93606e-11
3.8627e-09
0.0011347
-2.24399e-07
1.20784e-06
2.22203e-07
8.58166e-07
-2.07952e-07
-8.58427e-07
2.04703e-07
-0.0011346
-1.20399e-06
1.76376e-10
4.07852e-09
0.0011346
-2.24424e-07
1.20509e-06
2.22172e-07
8.52728e-07
-2.05293e-07
-8.53092e-07
2.01963e-07
-0.000271062
1.23573e-06
1.19319e-06
-2.06971e-07
-2.17378e-07
0.000269057
-3.79684e-10
-5.57125e-11
-0.00117904
-3.77974e-10
-3.07934e-10
0.00117904
-0.0011347
-1.20671e-06
-1.74134e-10
3.8845e-09
0.0011347
-2.24346e-07
1.20784e-06
2.22251e-07
8.5809e-07
-2.08021e-07
-8.58572e-07
2.04623e-07
-0.00113461
-1.20395e-06
1.71297e-11
3.6793e-09
0.00113461
-2.24262e-07
1.20515e-06
2.22343e-07
8.52663e-07
-2.05345e-07
-8.53227e-07
2.01904e-07
-0.000271062
1.23556e-06
1.19317e-06
-2.07001e-07
-2.17274e-07
0.000269058
6.15645e-11
9.43568e-10
-0.00117905
-1.06099e-09
-3.60221e-10
0.00117905
-0.00113471
-1.20655e-06
-6.80922e-10
3.50157e-09
0.00113471
-2.24187e-07
1.20801e-06
2.22435e-07
8.58313e-07
-2.07765e-07
-8.58356e-07
2.04942e-07
-0.00113461
-1.20379e-06
-9.07756e-10
3.355e-09
0.00113461
-2.24173e-07
1.20529e-06
2.22439e-07
8.52965e-07
-2.05075e-07
-8.52953e-07
2.02251e-07
-0.000271064
1.23538e-06
1.19301e-06
-2.06783e-07
-2.17071e-07
0.000269059
2.27343e-09
1.91852e-09
-0.00117904
-1.14388e-09
-1.75345e-09
0.00117904
-0.00113471
-1.2061e-06
-1.87146e-09
2.42505e-09
0.0011347
-2.23759e-07
1.20842e-06
2.22844e-07
8.58826e-07
-2.07247e-07
-8.57795e-07
2.05451e-07
-0.00113461
-1.20344e-06
-2.09989e-09
2.97551e-09
0.00113461
-2.23823e-07
1.20561e-06
2.22765e-07
8.53503e-07
-2.04468e-07
-8.52345e-07
2.02824e-07
-0.000271063
1.23516e-06
1.19269e-06
-2.06386e-07
-2.16726e-07
0.000269059
3.64354e-09
3.7676e-09
-0.00117904
-2.52068e-09
-2.83878e-09
0.00117904
-0.0011347
-1.20587e-06
-3.75087e-09
2.06355e-09
0.0011347
-2.23602e-07
1.20859e-06
2.22936e-07
8.59106e-07
-2.0694e-07
-8.57451e-07
2.05673e-07
-0.0011346
-1.20309e-06
-3.51272e-09
1.95078e-09
0.0011346
-2.23524e-07
1.20592e-06
2.23013e-07
8.53649e-07
-2.04277e-07
-8.52114e-07
2.02942e-07
-0.000271062
1.23482e-06
1.19232e-06
-2.06098e-07
-2.16459e-07
0.000269057
2.8279e-09
3.36516e-09
-0.00117903
-2.70661e-09
-2.29812e-09
0.00117903
-0.0011347
-1.20612e-06
-3.49467e-09
2.47588e-09
0.0011347
-2.23789e-07
1.20835e-06
2.22744e-07
8.5878e-07
-2.07222e-07
-8.57753e-07
2.05325e-07
-0.0011346
-1.20341e-06
-3.50035e-09
2.39995e-09
0.0011346
-2.23776e-07
1.20561e-06
2.22747e-07
8.53336e-07
-2.04572e-07
-8.52431e-07
2.02577e-07
-0.000271062
1.23779e-06
1.19264e-06
-2.06468e-07
-2.16799e-07
0.000269055
1.77919e-09
2.01188e-09
-0.00117903
-1.79764e-09
-1.59873e-09
0.00117903
-0.0011347
-1.20626e-06
-1.79487e-09
2.52792e-09
0.0011347
-2.23892e-07
1.20823e-06
2.22669e-07
8.58557e-07
-2.07371e-07
-8.58015e-07
2.05207e-07
-0.0011346
-1.20351e-06
-1.87541e-09
2.45956e-09
0.0011346
-2.23871e-07
1.20552e-06
2.22696e-07
8.53154e-07
-2.04644e-07
-8.52621e-07
2.02566e-07
-0.000271063
1.23795e-06
1.19275e-06
-2.06539e-07
-2.16856e-07
0.000269055
1.10599e-09
1.37239e-09
-0.00117903
-1.09848e-09
-1.09848e-09
0.00117903
-0.0011347
-1.20636e-06
-1.3809e-09
3.01904e-09
0.0011347
-2.24041e-07
1.20812e-06
2.22503e-07
8.58357e-07
-2.07522e-07
-8.58181e-07
2.05025e-07
-0.0011346
-1.20372e-06
-1.30794e-09
3.50989e-09
0.0011346
-2.24113e-07
1.20532e-06
2.22433e-07
8.52978e-07
-2.04941e-07
-8.52745e-07
2.02213e-07
-0.000271063
1.23805e-06
1.19296e-06
-2.06721e-07
-2.1705e-07
0.000269055
1.04354e-09
1.37148e-09
-0.00117903
-1.15507e-09
-1.05041e-09
0.00117903
-0.0011347
-1.20643e-06
-1.29291e-09
2.90566e-09
0.0011347
-2.24046e-07
1.20807e-06
2.22483e-07
8.58218e-07
-2.07567e-07
-8.58201e-07
2.04883e-07
-0.0011346
-1.20374e-06
-1.37004e-09
3.10785e-09
0.0011346
-2.24084e-07
1.20527e-06
2.22408e-07
8.52927e-07
-2.04865e-07
-8.52758e-07
2.02146e-07
-0.000271063
1.23812e-06
1.19294e-06
-2.06711e-07
-2.17043e-07
0.000269055
1.51581e-09
1.4233e-09
-0.00117903
-1.04218e-09
-1.35609e-09
0.00117903
-0.0011347
-1.20642e-06
-1.39887e-09
2.98336e-09
0.0011347
-2.2402e-07
1.208e-06
2.22438e-07
8.58291e-07
-2.07419e-07
-8.57986e-07
2.04849e-07
-0.0011346
-1.20366e-06
-1.48163e-09
2.98013e-09
0.0011346
-2.23973e-07
1.20529e-06
2.22464e-07
8.52874e-07
-2.04659e-07
-8.52652e-07
2.02203e-07
-0.000271063
1.23813e-06
1.19291e-06
-2.06652e-07
-2.16992e-07
0.000269055
1.48848e-09
2.01221e-09
-0.00117903
-1.42097e-09
-1.15322e-09
0.00117903
-0.0011347
-1.20632e-06
-1.96831e-09
3.01474e-09
0.0011347
-2.23956e-07
1.20798e-06
2.22323e-07
8.58176e-07
-2.07208e-07
-8.57782e-07
2.04587e-07
-0.0011346
-1.2036e-06
-1.86836e-09
3.05228e-09
0.00113461
-2.23943e-07
1.20524e-06
2.22337e-07
8.52758e-07
-2.04528e-07
-8.52421e-07
2.01891e-07
-0.000271063
1.23797e-06
1.19279e-06
-2.06547e-07
-2.16876e-07
0.000269055
2.34187e-09
2.38009e-09
-0.00117903
-1.72341e-09
-1.78833e-09
0.00117903
-0.0011347
-1.20614e-06
-2.34439e-09
2.50227e-09
0.0011347
-2.2374e-07
1.20792e-06
2.222e-07
8.57877e-07
-2.06657e-07
-8.57447e-07
2.04216e-07
-0.0011346
-1.2034e-06
-2.46592e-09
2.51806e-09
0.00113461
-2.23724e-07
1.2052e-06
2.22206e-07
8.52465e-07
-2.03993e-07
-8.52082e-07
2.01477e-07
-0.000271063
1.23782e-06
1.19265e-06
-2.0628e-07
-2.16608e-07
0.000269055
2.5369e-09
3.03803e-09
-0.00117904
-2.24151e-09
-1.97078e-09
0.00117903
-0.0011347
-1.20578e-06
-3.10561e-09
1.93221e-09
0.0011347
-2.23266e-07
1.20783e-06
2.21948e-07
8.57082e-07
-2.05622e-07
-8.56773e-07
2.033e-07
-0.0011346
-1.20304e-06
-2.9821e-09
1.89695e-09
0.00113461
-2.2324e-07
1.2051e-06
2.21971e-07
8.51675e-07
-2.02928e-07
-8.51403e-07
2.00613e-07
-0.000271063
1.23748e-06
1.19229e-06
-2.05708e-07
-2.16046e-07
0.000269055
3.33391e-09
3.26586e-09
-0.00117903
-3.15e-09
-3.4018e-09
0.00117903
-0.0011347
-1.20542e-06
-3.18288e-09
2.00163e-09
0.0011347
-2.22582e-07
1.2071e-06
2.20969e-07
8.55445e-07
-2.03782e-07
-8.55369e-07
2.00932e-07
-0.0011346
-1.20267e-06
-3.2956e-09
2.11296e-09
0.00113461
-2.22584e-07
1.20438e-06
2.20944e-07
8.5005e-07
-2.01128e-07
-8.50003e-07
1.98199e-07
-0.000271063
1.23716e-06
1.19195e-06
-2.04758e-07
-2.15104e-07
0.000269054
2.78124e-09
3.08464e-09
-0.00117903
-5.33047e-09
-5.16173e-09
0.00117904
-0.0011347
-1.20441e-06
-3.09374e-09
3.14104e-09
0.0011347
-2.20974e-07
1.20514e-06
2.1821e-07
8.51854e-07
-1.9949e-07
-8.52422e-07
1.95774e-07
-0.0011346
-1.20166e-06
-3.08177e-09
3.10636e-09
0.00113461
-2.20916e-07
1.20244e-06
2.18239e-07
8.46412e-07
-1.96784e-07
-8.47088e-07
1.93072e-07
-0.000271065
1.23331e-06
1.19091e-06
-2.02236e-07
-2.12513e-07
0.000269056
1.90101e-08
7.96739e-09
-0.00117904
-2.38801e-08
-2.37017e-08
0.00117906
-0.00113471
-1.20136e-06
-1.36651e-08
1.31676e-09
0.00113473
-2.16133e-07
1.20239e-06
2.13253e-07
8.42319e-07
-1.90113e-07
-8.43228e-07
1.83397e-07
-0.0011346
-1.19592e-06
-1.38896e-08
-4.2391e-09
0.00113462
-2.13342e-07
1.19693e-06
2.10543e-07
8.42318e-07
-1.90101e-07
-8.43221e-07
1.83434e-07
-0.000271072
1.23291e-06
1.19325e-06
-2.00789e-07
-2.03351e-07
0.00026905
9.11772e-07
9.07766e-07
-0.00117891
-7.89232e-07
-7.83894e-07
0.00117867
-0.001135
-1.10843e-06
-9.13421e-07
-3.90954e-07
0.00113544
-1.31743e-07
1.36303e-06
2.98853e-07
9.94818e-07
-9.31054e-08
-7.42497e-07
2.84682e-07
-0.00113491
-1.10286e-06
-9.19348e-07
-3.91418e-07
0.00113534
-1.34398e-07
1.36308e-06
3.04447e-07
9.92199e-07
-9.30427e-08
-7.39746e-07
2.84784e-07
-0.000271159
1.14005e-06
1.10028e-06
-1.06539e-07
-1.14113e-07
0.000269139
5.44918e-06
5.44171e-06
-0.00116558
-1.16077e-05
-1.15498e-05
0.000283925
0.000285773
0.000285684
0.000285685
4.49489e-06
6.73833e-06
7.15641e-06
4.4929e-06
6.73615e-06
7.1597e-06
-0.000281426
5.40932e-06
-5.44701e-06
5.93518e-06
-3.41104e-06
0.00027894
-0.000281422
-5.44714e-06
5.40953e-06
-3.41381e-06
5.93517e-06
0.000278938
-0.00027212
-5.40857e-06
-5.42302e-06
5.74759e-06
5.73808e-06
0.000271466
-1.24803e-06
-1.20566e-06
0.000271111
-0.000269087
2.1103e-07
2.18768e-07
0.0011341
-1.6253e-09
-0.0011341
3.40829e-09
-1.24624e-06
2.27902e-07
-2.29542e-07
-8.55562e-07
2.0232e-07
-2.048e-07
8.56026e-07
1.24539e-06
0.00113422
-1.41151e-09
-0.00113422
3.5776e-09
-1.24368e-06
2.27905e-07
-2.29645e-07
-8.60735e-07
2.05039e-07
-2.075e-07
8.61216e-07
-1.20812e-06
0.000271101
-0.000269078
2.13687e-07
2.16041e-07
0.00113511
-1.60944e-09
-0.00113511
3.04393e-09
-1.20375e-06
2.2264e-07
-2.24075e-07
-8.55419e-07
2.02465e-07
-2.04845e-07
8.55911e-07
1.2427e-06
0.00113411
-1.42131e-09
-0.00113411
3.46775e-09
-1.2409e-06
2.25198e-07
-2.26822e-07
-8.58153e-07
2.05023e-07
-2.07506e-07
8.58535e-07
-1.64267e-09
-0.0011347
3.34988e-09
-1.20636e-06
2.2247e-07
-2.24088e-07
-8.58022e-07
2.05152e-07
8.58608e-07
-2.07471e-07
1.237e-06
0.00113379
-1.61246e-09
-0.00113379
3.5671e-09
-1.23531e-06
2.25058e-07
-2.26788e-07
-8.55368e-07
2.05016e-07
-2.07444e-07
8.55879e-07
-1.20544e-06
0.000271086
-0.000269065
2.11174e-07
2.16037e-07
-1.61945e-09
-0.0011346
3.25763e-09
-1.20358e-06
2.22531e-07
-2.2401e-07
-8.5268e-07
2.02434e-07
8.53179e-07
-2.04797e-07
1.19463e-06
0.00113479
-1.58006e-09
-0.00113479
3.14921e-09
-1.19281e-06
2.17059e-07
-2.18567e-07
-8.55168e-07
2.0514e-07
-2.07451e-07
8.55741e-07
-0.000269058
2.08352e-07
2.1867e-07
1.24628e-06
1.20379e-06
-2.0923e-07
-2.17016e-07
0.000269087
-1.24813e-06
-1.20565e-06
0.000271111
-0.000269087
2.11069e-07
2.18894e-07
3.59599e-09
0.0011341
-2.29581e-07
1.248e-06
2.27895e-07
8.56075e-07
-2.04829e-07
-8.55489e-07
2.02319e-07
-1.24372e-06
-1.3599e-09
3.74836e-09
0.00113422
-2.29672e-07
1.24535e-06
2.27909e-07
8.6127e-07
-2.07527e-07
-8.60657e-07
2.05036e-07
0.0011341
-1.11461e-09
-0.0011341
2.96314e-09
-1.24616e-06
2.281e-07
-2.29354e-07
-8.55635e-07
2.02379e-07
-2.04743e-07
8.55914e-07
1.24555e-06
0.00113422
-1.19349e-09
-0.00113422
2.81135e-09
-1.24354e-06
2.28182e-07
-2.29378e-07
-8.6081e-07
2.05099e-07
-2.07443e-07
8.61101e-07
-2.1199e-07
-2.14349e-07
0.000269078
-1.20824e-06
0.000271101
-0.000269077
2.13828e-07
2.162e-07
3.24471e-09
0.00113511
-2.24119e-07
1.20562e-06
2.22621e-07
8.55977e-07
-2.04865e-07
-8.55338e-07
2.02469e-07
-1.24095e-06
-1.326e-09
3.69468e-09
0.00113411
-2.26874e-07
1.24265e-06
2.25171e-07
8.58594e-07
-2.07532e-07
-8.58077e-07
2.05018e-07
0.00113511
-1.46951e-09
-0.00113511
2.91223e-09
-1.20376e-06
2.22737e-07
-2.23979e-07
-8.55421e-07
2.02582e-07
-2.04732e-07
8.55879e-07
1.24275e-06
0.00113411
-1.05815e-09
-0.00113411
3.01909e-09
-1.24085e-06
2.25352e-07
-2.26678e-07
-8.58204e-07
2.05082e-07
-2.07447e-07
8.5845e-07
-1.54849e-09
3.69094e-09
0.00113378
-2.26799e-07
1.23697e-06
2.25078e-07
8.55928e-07
-2.07469e-07
2.05013e-07
-8.55291e-07
-1.45536e-09
-0.0011347
2.80292e-09
-1.20625e-06
2.2271e-07
-2.23857e-07
-8.58084e-07
2.05221e-07
8.58506e-07
-2.07403e-07
1.23716e-06
0.00113378
-1.25297e-09
-0.00113378
2.80223e-09
-1.23516e-06
2.25328e-07
-2.26521e-07
-8.55455e-07
2.0506e-07
-2.07402e-07
8.55751e-07
-2.09412e-07
-2.14276e-07
0.000269065
-1.20544e-06
0.000271085
-0.000269065
2.11214e-07
2.16115e-07
-1.54841e-09
3.33479e-09
0.00113479
-2.18597e-07
1.19459e-06
2.17058e-07
8.55803e-07
-2.0747e-07
2.05141e-07
-8.55081e-07
-1.45834e-09
-0.0011346
2.98244e-09
-1.20358e-06
2.2264e-07
-2.23911e-07
-8.52696e-07
2.0252e-07
8.5313e-07
-2.04708e-07
1.19468e-06
0.00113479
-1.58496e-09
-0.00113479
2.77748e-09
-1.19276e-06
2.17222e-07
-2.184e-07
-8.55199e-07
2.05231e-07
-2.07362e-07
8.55676e-07
-0.000269058
2.08431e-07
2.18832e-07
1.2462e-06
1.20383e-06
-2.09235e-07
-2.16928e-07
0.000269087
-1.24795e-06
-1.20548e-06
0.000271111
-0.000269087
2.10913e-07
2.18714e-07
3.06373e-09
0.0011341
-2.29418e-07
1.24808e-06
2.28028e-07
8.55857e-07
-2.04847e-07
-8.55683e-07
2.02249e-07
-1.24357e-06
-1.22757e-09
2.9026e-09
0.00113422
-2.29438e-07
1.2455e-06
2.28114e-07
8.61057e-07
-2.07537e-07
-8.60848e-07
2.04981e-07
0.0011341
-4.44688e-10
-0.0011341
3.5959e-09
-1.24631e-06
2.2785e-07
-2.29596e-07
-8.55761e-07
2.02159e-07
-2.05024e-07
8.55786e-07
1.24532e-06
0.00113422
-7.50269e-10
-0.00113422
3.53188e-09
-1.24374e-06
2.27894e-07
-2.29656e-07
-8.60889e-07
2.04926e-07
-2.07677e-07
8.61024e-07
-2.11884e-07
-2.14227e-07
0.000269077
-1.20808e-06
0.000271101
-0.000269078
2.13677e-07
2.15981e-07
3.13137e-09
0.00113511
-2.2407e-07
1.20556e-06
2.2264e-07
8.55856e-07
-2.04812e-07
-8.5544e-07
2.02474e-07
-1.2409e-06
-1.11447e-09
3.10768e-09
0.00113411
-2.26746e-07
1.2427e-06
2.25277e-07
8.5842e-07
-2.07538e-07
-8.58231e-07
2.04966e-07
0.00113511
-1.09721e-09
-0.00113511
3.65554e-09
-1.20393e-06
2.22515e-07
-2.24216e-07
-8.55511e-07
2.02369e-07
-2.04994e-07
8.55774e-07
1.24262e-06
0.00113411
-8.5702e-10
-0.00113411
3.55885e-09
-1.24098e-06
2.25155e-07
-2.26878e-07
-8.58266e-07
2.04921e-07
-2.0767e-07
8.58384e-07
-1.17544e-09
2.88367e-09
0.00113378
-2.26586e-07
1.23712e-06
2.25256e-07
8.55701e-07
-2.07497e-07
2.04941e-07
-8.555e-07
-8.91349e-10
-0.0011347
3.34353e-09
-1.2064e-06
2.22487e-07
-2.24076e-07
-8.58189e-07
2.05003e-07
8.5839e-07
-2.07675e-07
1.23695e-06
0.00113378
-5.05248e-10
-0.00113378
3.62497e-09
-1.23536e-06
2.25051e-07
-2.26794e-07
-8.55551e-07
2.04867e-07
-2.0765e-07
8.55645e-07
-2.09398e-07
-2.14231e-07
0.000269065
-1.20537e-06
0.000271086
-0.000269065
2.11127e-07
2.15985e-07
-1.67195e-09
3.03124e-09
0.00113479
-2.18503e-07
1.1946e-06
2.17116e-07
8.55657e-07
-2.07442e-07
2.05127e-07
-8.55214e-07
-1.10649e-09
-0.0011346
3.30517e-09
-1.20366e-06
2.22511e-07
-2.2405e-07
-8.52788e-07
2.02332e-07
8.53028e-07
-2.04958e-07
1.19447e-06
0.00113479
-1.15784e-09
-0.00113479
3.6483e-09
-1.19298e-06
2.1697e-07
-2.1867e-07
-8.55247e-07
2.0507e-07
-2.07573e-07
8.55609e-07
-0.000269058
2.0825e-07
2.18644e-07
1.24638e-06
1.20395e-06
-2.09344e-07
-2.17095e-07
0.000269087
-1.24764e-06
-1.20534e-06
0.000271111
-0.000269087
2.10709e-07
2.18381e-07
3.59287e-09
0.0011341
-2.29645e-07
1.24787e-06
2.27801e-07
8.55777e-07
-2.04942e-07
-8.55776e-07
2.02242e-07
-1.24382e-06
-6.79284e-10
3.56474e-09
0.00113422
-2.2971e-07
1.24524e-06
2.27844e-07
8.61005e-07
-2.07602e-07
-8.60906e-07
2.04996e-07
0.0011341
-1.98636e-10
-0.0011341
4.30974e-09
-1.24667e-06
2.27538e-07
-2.29937e-07
-8.55858e-07
2.01973e-07
-2.05142e-07
8.55705e-07
1.24504e-06
0.00113422
-7.99189e-11
-0.00113422
4.31933e-09
-1.24407e-06
2.27596e-07
-2.29986e-07
-8.61022e-07
2.0469e-07
-2.07842e-07
8.60903e-07
-2.12014e-07
-2.14433e-07
0.000269077
-1.20782e-06
0.000271101
-0.000269077
2.13381e-07
2.15698e-07
3.49412e-09
0.00113511
-2.24215e-07
1.20545e-06
2.22516e-07
8.55728e-07
-2.04943e-07
-8.55559e-07
2.02418e-07
-1.24103e-06
-7.57868e-10
3.55135e-09
0.00113411
-2.26907e-07
1.24255e-06
2.25121e-07
8.58364e-07
-2.07592e-07
-8.58289e-07
2.04994e-07
0.00113511
6.72726e-11
-0.00113511
3.66288e-09
-1.20411e-06
2.22345e-07
-2.244e-07
-8.55765e-07
2.02061e-07
-2.05243e-07
8.5554e-07
1.2423e-06
0.00113411
6.04303e-11
-0.00113411
4.37998e-09
-1.24133e-06
2.24829e-07
-2.27219e-07
-8.58462e-07
2.04644e-07
-2.07873e-07
8.58195e-07
-3.89788e-10
3.56592e-09
0.00113378
-2.26823e-07
1.23689e-06
2.2503e-07
8.55606e-07
-2.07583e-07
2.0493e-07
-8.55591e-07
1.57069e-11
-0.0011347
3.87248e-09
-1.20669e-06
2.22197e-07
-2.24382e-07
-8.58369e-07
2.04758e-07
8.58239e-07
-2.07861e-07
1.23661e-06
0.00113378
6.96421e-11
-0.00113378
4.53744e-09
-1.23572e-06
2.24698e-07
-2.27158e-07
-8.55708e-07
2.04628e-07
-2.07824e-07
8.55513e-07
-2.09458e-07
-2.1434e-07
0.000269065
-1.20505e-06
0.000271085
-0.000269064
2.10795e-07
2.15652e-07
-9.8256e-10
3.51706e-09
0.00113479
-2.18671e-07
1.19444e-06
2.16976e-07
8.55554e-07
-2.07525e-07
2.05109e-07
-8.55302e-07
1.89767e-11
-0.0011346
4.0221e-09
-1.204e-06
2.22174e-07
-2.24392e-07
-8.53015e-07
2.02042e-07
8.52824e-07
-2.05178e-07
1.19428e-06
0.00113479
1.04717e-10
-0.00113479
3.92452e-09
-1.1932e-06
2.16743e-07
-2.18901e-07
-8.55514e-07
2.04732e-07
-2.0785e-07
8.55366e-07
-0.000269057
2.08012e-07
2.18293e-07
1.24664e-06
1.20407e-06
-2.09544e-07
-2.17393e-07
0.000269087
-1.24782e-06
-1.20533e-06
0.000271111
-0.000269087
2.10661e-07
2.18511e-07
4.26402e-09
0.0011341
-2.29934e-07
1.24769e-06
2.27566e-07
8.55612e-07
-2.05247e-07
-8.5593e-07
2.019e-07
-1.24404e-06
4.76805e-11
4.2696e-09
0.00113422
-2.29976e-07
1.24509e-06
2.27627e-07
8.60814e-07
-2.07947e-07
-8.61091e-07
2.04622e-07
0.0011341
3.24751e-10
-0.0011341
3.61733e-09
-1.24653e-06
2.27799e-07
-2.29719e-07
-8.56171e-07
2.01826e-07
-2.05322e-07
8.55429e-07
1.24522e-06
0.00113423
4.57941e-10
-0.00113422
3.55274e-09
-1.24392e-06
2.2784e-07
-2.29767e-07
-8.61339e-07
2.04554e-07
-2.08008e-07
8.60618e-07
-2.12304e-07
-2.14686e-07
0.000269077
-1.20784e-06
0.000271101
-0.000269077
2.13367e-07
2.15803e-07
3.56378e-09
0.00113511
-2.24397e-07
1.20539e-06
2.22367e-07
8.55461e-07
-2.05336e-07
-8.55833e-07
2.02008e-07
-1.2413e-06
1.99486e-10
4.38999e-09
0.00113411
-2.27228e-07
1.24236e-06
2.2485e-07
8.58089e-07
-2.0799e-07
-8.58553e-07
2.04563e-07
0.00113511
2.67332e-10
-0.00113511
3.51122e-09
-1.20413e-06
2.2241e-07
-2.24354e-07
-8.55966e-07
2.02032e-07
-2.05308e-07
8.55389e-07
1.24244e-06
0.00113411
6.02943e-10
-0.00113411
3.67074e-09
-1.24121e-06
2.25053e-07
-2.27032e-07
-8.58746e-07
2.04531e-07
-2.0803e-07
8.57966e-07
1.35906e-10
4.61195e-09
0.00113378
-2.27189e-07
1.23663e-06
2.24691e-07
8.55429e-07
-2.07923e-07
2.04563e-07
-8.55769e-07
1.78182e-11
-0.0011347
3.67267e-09
-1.2067e-06
2.22298e-07
-2.24306e-07
-8.58582e-07
2.04709e-07
8.58064e-07
-2.07941e-07
1.23676e-06
0.00113379
3.40712e-10
-0.00113379
3.76843e-09
-1.23562e-06
2.24936e-07
-2.26982e-07
-8.55997e-07
2.04478e-07
-2.07995e-07
8.55257e-07
-2.09783e-07
-2.14651e-07
0.000269064
-1.20513e-06
0.000271086
-0.000269065
2.10835e-07
2.15736e-07
2.89926e-10
3.92415e-09
0.00113479
-2.18927e-07
1.1943e-06
2.16734e-07
8.55287e-07
-2.07948e-07
2.04673e-07
-8.55579e-07
2.83404e-10
-0.00113461
3.63441e-09
-1.20393e-06
2.22352e-07
-2.24259e-07
-8.53258e-07
2.01976e-07
8.52624e-07
-2.05287e-07
1.19433e-06
0.00113479
2.99806e-10
-0.00113479
3.36877e-09
-1.19317e-06
2.16879e-07
-2.18812e-07
-8.55732e-07
2.04678e-07
-2.07929e-07
8.55183e-07
-0.000269058
2.07989e-07
2.18389e-07
1.24648e-06
1.20417e-06
-2.09622e-07
-2.17271e-07
0.000269087
-1.24792e-06
-1.20537e-06
0.000271112
-0.000269088
2.10778e-07
2.18626e-07
3.55934e-09
0.0011341
-2.2969e-07
1.24788e-06
2.27815e-07
8.55433e-07
-2.05412e-07
-8.56177e-07
2.01733e-07
-1.24389e-06
4.5012e-10
3.58538e-09
0.00113423
-2.29774e-07
1.24526e-06
2.27821e-07
8.60626e-07
-2.08096e-07
-8.61344e-07
2.04464e-07
0.0011341
3.34627e-10
-0.0011341
3.35362e-09
-1.24639e-06
2.27829e-07
-2.29659e-07
-8.56065e-07
2.01952e-07
-2.05269e-07
8.5556e-07
1.24527e-06
0.00113423
3.65303e-10
-0.00113423
3.58822e-09
-1.24384e-06
2.27833e-07
-2.29766e-07
-8.61235e-07
2.04673e-07
-2.07964e-07
8.60746e-07
-2.12332e-07
-2.14601e-07
0.000269078
-1.20795e-06
0.000271102
-0.000269078
2.13524e-07
2.15885e-07
3.79971e-09
0.00113511
-2.24402e-07
1.20531e-06
2.22355e-07
8.5543e-07
-2.05365e-07
-8.55931e-07
2.01966e-07
-1.24121e-06
4.15761e-10
3.59133e-09
0.00113411
-2.27023e-07
1.24247e-06
2.25057e-07
8.58002e-07
-2.08087e-07
-8.58714e-07
2.04466e-07
0.00113511
-6.29758e-10
-0.00113511
3.85764e-09
-1.20409e-06
2.22414e-07
-2.24363e-07
-8.55789e-07
2.02183e-07
-2.05217e-07
8.55576e-07
1.24257e-06
0.00113412
-2.75347e-10
-0.00113412
3.34263e-09
-1.24109e-06
2.25096e-07
-2.26992e-07
-8.58575e-07
2.04706e-07
-2.07923e-07
8.58161e-07
2.24012e-10
3.56859e-09
0.00113379
-2.26925e-07
1.23685e-06
2.24982e-07
8.55257e-07
-2.08097e-07
2.04378e-07
-8.56001e-07
-4.4229e-10
-0.00113471
3.74732e-09
-1.2066e-06
2.22363e-07
-2.2426e-07
-8.58454e-07
2.0482e-07
8.58207e-07
-2.07898e-07
1.23699e-06
0.00113379
-1.61439e-10
-0.00113379
3.08228e-09
-1.23539e-06
2.25082e-07
-2.26821e-07
-8.55878e-07
2.04653e-07
-2.0792e-07
8.5542e-07
-2.09754e-07
-2.14588e-07
0.000269065
-1.20528e-06
0.000271087
-0.000269066
2.10992e-07
2.15854e-07
-3.56493e-11
3.48338e-09
0.00113479
-2.18812e-07
1.19435e-06
2.1687e-07
8.55202e-07
-2.08011e-07
2.04589e-07
-8.55721e-07
-6.05579e-10
-0.00113461
3.43606e-09
-1.2038e-06
2.22396e-07
-2.24214e-07
-8.53107e-07
2.02093e-07
8.52803e-07
-2.05238e-07
1.19448e-06
0.0011348
-8.1933e-10
-0.00113479
3.39013e-09
-1.19304e-06
2.16948e-07
-2.18743e-07
-8.5559e-07
2.04824e-07
-2.07873e-07
8.55369e-07
-0.000269059
2.08178e-07
2.18584e-07
1.24642e-06
1.20406e-06
-2.09454e-07
-2.17164e-07
0.000269088
-1.24807e-06
-1.20578e-06
0.000271112
-0.000269088
2.11214e-07
2.18908e-07
3.34629e-09
0.0011341
-2.29667e-07
1.24791e-06
2.27826e-07
8.55712e-07
-2.05106e-07
-8.55923e-07
2.02103e-07
-1.24386e-06
-7.33651e-11
3.52475e-09
0.00113423
-2.29751e-07
1.24527e-06
2.27852e-07
8.60901e-07
-2.07793e-07
-8.61092e-07
2.04835e-07
0.0011341
-1.58688e-09
-0.0011341
3.76428e-09
-1.24625e-06
2.27962e-07
-2.29542e-07
-8.55425e-07
2.02457e-07
-2.04733e-07
8.56159e-07
1.24546e-06
0.00113423
-1.72966e-09
-0.00113423
3.51402e-09
-1.24366e-06
2.28034e-07
-2.29573e-07
-8.60563e-07
2.05197e-07
-2.07408e-07
8.61381e-07
-2.12126e-07
-2.14503e-07
0.000269078
-1.20832e-06
0.000271102
-0.000269078
2.13928e-07
2.16196e-07
3.64214e-09
0.00113511
-2.24302e-07
1.20542e-06
2.22478e-07
8.55699e-07
-2.05084e-07
-8.55674e-07
2.02303e-07
-1.24109e-06
-7.09788e-10
3.35991e-09
0.00113412
-2.26955e-07
1.24258e-06
2.25133e-07
8.58321e-07
-2.07763e-07
-8.58423e-07
2.04856e-07
0.00113511
-1.39391e-09
-0.00113511
2.97985e-09
-1.20369e-06
2.22785e-07
-2.23998e-07
-8.55276e-07
2.02603e-07
-2.04776e-07
8.56053e-07
1.24281e-06
0.00113412
-1.40042e-09
-0.00113412
3.58948e-09
-1.24085e-06
2.25322e-07
-2.26757e-07
-8.57975e-07
2.052e-07
-2.07396e-07
8.58712e-07
-6.12611e-10
3.09738e-09
0.00113379
-2.26797e-07
1.237e-06
2.25103e-07
8.55588e-07
-2.07733e-07
2.04828e-07
-8.55712e-07
-1.34492e-09
-0.00113471
2.91978e-09
-1.20622e-06
2.22703e-07
-2.23916e-07
-8.57927e-07
2.05241e-07
8.58698e-07
-2.07448e-07
1.23712e-06
0.00113379
-1.46253e-09
-0.00113379
3.64738e-09
-1.23526e-06
2.25188e-07
-2.26705e-07
-8.55209e-07
2.05177e-07
-2.07345e-07
8.56034e-07
-2.09573e-07
-2.14437e-07
0.000269066
-1.20555e-06
0.000271087
-0.000269066
2.11368e-07
2.16243e-07
-1.13483e-09
3.30361e-09
0.0011348
-2.187e-07
1.1945e-06
2.1699e-07
8.55536e-07
-2.07699e-07
2.0499e-07
-8.55427e-07
-1.61743e-09
-0.00113461
3.23277e-09
-1.20353e-06
2.22661e-07
-2.23943e-07
-8.52485e-07
2.02637e-07
8.53374e-07
-2.04652e-07
1.19473e-06
0.00113479
-1.69583e-09
-0.0011348
3.14705e-09
-1.19279e-06
2.17178e-07
-2.18502e-07
-8.54951e-07
2.05357e-07
-2.07291e-07
8.55951e-07
-0.000269059
2.08532e-07
2.18883e-07
1.24616e-06
1.20358e-06
-2.08973e-07
-2.16807e-07
0.000269088
-1.2485e-06
-1.20607e-06
0.000271111
-0.000269087
2.11485e-07
2.19278e-07
3.52226e-09
0.0011341
-2.29406e-07
1.24814e-06
2.28083e-07
8.56308e-07
-2.04524e-07
-8.55276e-07
2.02671e-07
-1.24357e-06
-2.46075e-09
3.2366e-09
0.00113423
-2.2944e-07
1.24554e-06
2.28155e-07
8.61524e-07
-2.07209e-07
-8.60418e-07
2.054e-07
0.0011341
-3.27902e-09
-0.0011341
2.50538e-09
-1.24582e-06
2.28388e-07
-2.29072e-07
-8.55e-07
2.02818e-07
-2.04275e-07
8.56518e-07
1.24593e-06
0.00113422
-3.44845e-09
-0.00113422
2.37205e-09
-1.24319e-06
2.28461e-07
-2.29108e-07
-8.60146e-07
2.05553e-07
-2.06965e-07
8.6174e-07
-2.11684e-07
-2.14127e-07
0.000269078
-1.20861e-06
0.000271101
-0.000269077
2.1419e-07
2.16601e-07
2.57203e-09
0.00113511
-2.23844e-07
1.20586e-06
2.22912e-07
8.56199e-07
-2.04563e-07
-8.55127e-07
2.02822e-07
-1.24076e-06
-1.94916e-09
3.38308e-09
0.00113411
-2.26638e-07
1.24286e-06
2.25421e-07
8.58859e-07
-2.07187e-07
-8.57827e-07
2.05414e-07
0.00113511
-3.14889e-09
-0.00113511
2.11985e-09
-1.20337e-06
2.23061e-07
-2.23657e-07
-8.5483e-07
2.02971e-07
-2.04304e-07
8.56429e-07
1.24311e-06
0.00113411
-3.11159e-09
-0.00113411
2.76262e-09
-1.24052e-06
2.25631e-07
-2.264e-07
-8.57562e-07
2.05525e-07
-2.06968e-07
8.59046e-07
-1.99806e-09
3.42406e-09
0.00113379
-2.26587e-07
1.2372e-06
2.25301e-07
8.56168e-07
-2.07146e-07
2.05386e-07
-8.55064e-07
-3.19334e-09
-0.0011347
2.11584e-09
-1.2059e-06
2.22951e-07
-2.23604e-07
-8.57483e-07
2.05652e-07
8.59084e-07
-2.06943e-07
1.23744e-06
0.00113378
-3.07322e-09
-0.00113379
2.89155e-09
-1.2349e-06
2.25527e-07
-2.26316e-07
-8.54807e-07
2.05517e-07
-2.06906e-07
8.56362e-07
-2.09145e-07
-2.14007e-07
0.000269066
-1.20586e-06
0.000271085
-0.000269065
2.11643e-07
2.16501e-07
-2.17179e-09
2.94162e-09
0.00113479
-2.1839e-07
1.19479e-06
2.17281e-07
8.56072e-07
-2.07109e-07
2.05541e-07
-8.54816e-07
-2.94989e-09
-0.0011346
2.31743e-09
-1.20319e-06
2.22975e-07
-2.23579e-07
-8.52115e-07
2.02912e-07
8.53667e-07
-2.04287e-07
1.19506e-06
0.00113479
-2.91293e-09
-0.00113479
2.3958e-09
-1.19242e-06
2.17526e-07
-2.18108e-07
-8.54589e-07
2.05628e-07
-2.06931e-07
8.56239e-07
-0.000269057
2.08846e-07
2.19171e-07
1.2457e-06
1.2033e-06
-2.08739e-07
-2.16464e-07
0.000269087
-1.2483e-06
-1.2058e-06
0.000271111
-0.000269087
2.11206e-07
2.19023e-07
2.1347e-09
0.0011341
-2.2901e-07
1.24857e-06
2.28427e-07
8.5648e-07
-2.04283e-07
-8.55008e-07
2.0283e-07
-1.24308e-06
-3.74288e-09
2.07612e-09
0.00113422
-2.29042e-07
1.24597e-06
2.28499e-07
8.61706e-07
-2.06961e-07
-8.60145e-07
2.0558e-07
0.0011341
-2.81256e-09
-0.0011341
2.35487e-09
-1.24594e-06
2.28252e-07
-2.29157e-07
-8.55218e-07
2.02618e-07
-2.04421e-07
8.56245e-07
1.24572e-06
0.00113422
-2.79925e-09
-0.00113422
2.19906e-09
-1.24331e-06
2.28308e-07
-2.29194e-07
-8.60399e-07
2.05338e-07
-2.0712e-07
8.61424e-07
-2.11472e-07
-2.13757e-07
0.000269077
-1.20836e-06
0.000271101
-0.000269077
2.13941e-07
2.16336e-07
1.98701e-09
0.00113511
-2.23635e-07
1.2061e-06
2.23067e-07
8.56412e-07
-2.04303e-07
-8.54822e-07
2.02992e-07
-1.24042e-06
-3.64633e-09
2.40267e-09
0.00113411
-2.26349e-07
1.24317e-06
2.25662e-07
8.59011e-07
-2.06979e-07
-8.57577e-07
2.05532e-07
0.00113511
-3.32654e-09
-0.00113511
2.55611e-09
-1.20358e-06
2.22875e-07
-2.23806e-07
-8.5501e-07
2.02801e-07
-2.04428e-07
8.56208e-07
1.24291e-06
0.00113411
-2.89623e-09
-0.00113411
2.32521e-09
-1.24065e-06
2.25493e-07
-2.26496e-07
-8.57791e-07
2.05306e-07
-2.07146e-07
8.58784e-07
-3.59248e-09
2.56284e-09
0.00113378
-2.26276e-07
1.23748e-06
2.2555e-07
8.56344e-07
-2.06923e-07
2.05517e-07
-8.54807e-07
-3.5229e-09
-0.0011347
2.44088e-09
-1.20609e-06
2.22806e-07
-2.23715e-07
-8.57632e-07
2.05485e-07
8.58881e-07
-2.07055e-07
1.24e-06
0.00113378
-3.00503e-09
-0.00113378
2.33289e-09
-1.23774e-06
2.25386e-07
-2.26413e-07
-8.55052e-07
2.05285e-07
-2.07092e-07
8.56076e-07
-2.08891e-07
-2.1376e-07
0.000269065
-1.20562e-06
0.000271086
-0.000269065
2.1136e-07
2.16227e-07
-3.46077e-09
2.01633e-09
0.00113479
-2.18046e-07
1.19512e-06
2.17569e-07
8.56213e-07
-2.06918e-07
2.05663e-07
-8.54588e-07
-3.41932e-09
-0.0011346
2.35473e-09
-1.20336e-06
2.22814e-07
-2.23696e-07
-8.523e-07
2.02736e-07
8.53432e-07
-2.04406e-07
1.19482e-06
0.00113479
-3.36959e-09
-0.00113478
2.2404e-09
-1.19257e-06
2.1733e-07
-2.18247e-07
-8.57505e-07
2.05428e-07
-2.07069e-07
8.58663e-07
-0.000269055
2.08549e-07
2.189e-07
1.24599e-06
1.20361e-06
-2.09062e-07
-2.1678e-07
0.000269087
-1.24806e-06
-1.20566e-06
0.000271111
-0.000269087
2.11078e-07
2.18826e-07
2.46489e-09
0.0011341
-2.29249e-07
1.24826e-06
2.28162e-07
8.56153e-07
-2.04577e-07
-8.55335e-07
2.02468e-07
-1.24339e-06
-2.80115e-09
2.34948e-09
0.00113422
-2.29317e-07
1.24566e-06
2.28193e-07
8.61338e-07
-2.07275e-07
-8.60517e-07
2.05193e-07
0.0011341
-1.49081e-09
-0.0011341
3.21001e-09
-1.24618e-06
2.27967e-07
-2.29467e-07
-8.55515e-07
2.02378e-07
-2.04736e-07
8.55965e-07
1.2454e-06
0.00113422
-1.49477e-09
-0.00113422
3.36613e-09
-1.24364e-06
2.2799e-07
-2.29558e-07
-8.6064e-07
2.05119e-07
-2.0741e-07
8.61196e-07
-2.11757e-07
-2.14094e-07
0.000269077
-1.2082e-06
0.000271102
-0.000269078
2.13803e-07
2.16091e-07
2.55274e-09
0.00113511
-2.23873e-07
1.20579e-06
2.22816e-07
8.56133e-07
-2.04572e-07
-8.55106e-07
2.02665e-07
-1.24069e-06
-2.94458e-09
2.29596e-09
0.00113411
-2.26563e-07
1.24291e-06
2.25442e-07
8.58712e-07
-2.07283e-07
-8.57885e-07