/*--------------------------------*- C++ -*----------------------------------*\
| =========                 |                                                 |
| \\      /  F ield         | OpenFOAM: The Open Source CFD Toolbox           |
|  \\    /   O peration     | Version:  v2012                                 |
|   \\  /    A nd           | Website:  www.openfoam.com                      |
|    \\/     M anipulation  |                                                 |
\*---------------------------------------------------------------------------*/
FoamFile
{
    version     2.0;
    format      ascii;
    class       volScalarField;
    location    "1075";
    object      k;
}
// * * * * * * * * * * * * * * * * * * * * * * * * * * * * * * * * * * * * * //

dimensions      [0 2 -2 0 0 0 0];


internalField   nonuniform List<scalar> 
171728
(
1.80807e-07
3.00808e-07
3.12865e-07
3.48822e-07
1.79596e-07
2.90579e-07
2.77694e-07
3.46194e-07
1.77107e-07
2.79657e-07
2.50233e-07
3.30107e-07
1.73545e-07
2.68131e-07
2.32202e-07
3.14747e-07
1.68379e-07
2.56613e-07
2.19425e-07
3.10548e-07
1.63214e-07
2.45921e-07
2.09323e-07
3.1941e-07
1.58478e-07
2.34843e-07
2.00522e-07
3.22745e-07
1.53219e-07
2.23914e-07
1.92603e-07
2.82675e-07
1.46119e-07
2.1428e-07
1.85026e-07
2.43101e-07
1.41264e-07
2.06999e-07
1.78102e-07
2.20436e-07
1.38845e-07
2.00563e-07
1.72722e-07
2.08873e-07
1.36168e-07
1.95181e-07
1.67923e-07
2.01861e-07
1.30602e-07
1.92535e-07
1.64923e-07
1.96325e-07
1.23942e-07
1.93773e-07
1.63776e-07
1.93058e-07
1.19612e-07
1.99536e-07
1.64737e-07
1.92745e-07
1.16778e-07
2.0847e-07
1.69281e-07
1.95762e-07
1.14557e-07
2.24305e-07
1.79598e-07
2.04311e-07
1.12626e-07
2.50052e-07
1.97139e-07
2.22276e-07
1.10798e-07
2.86648e-07
2.27092e-07
2.59804e-07
1.09719e-07
3.41308e-07
2.70999e-07
3.34659e-07
1.08869e-07
4.15992e-07
3.43939e-07
4.20377e-07
1.09072e-07
4.89406e-07
4.79685e-07
6.80116e-07
1.09622e-07
6.64422e-07
6.19944e-07
1.07985e-06
1.11014e-07
9.06419e-07
8.72585e-07
1.62349e-06
1.13479e-07
1.20015e-06
1.19672e-06
2.69721e-06
1.17648e-07
1.58611e-06
1.60036e-06
3.89132e-06
1.24443e-07
2.18161e-06
2.14091e-06
5.60853e-06
1.37631e-07
2.71602e-06
2.75833e-06
7.54524e-06
1.54461e-07
3.53506e-06
3.52521e-06
1.0108e-05
1.82362e-07
4.42872e-06
4.33674e-06
1.25038e-05
2.29716e-07
5.21176e-06
5.40456e-06
1.48294e-05
2.70949e-07
6.76571e-06
6.54895e-06
1.74173e-05
3.30516e-07
7.8426e-06
7.70995e-06
1.96784e-05
4.04735e-07
9.24034e-06
9.18532e-06
2.15895e-05
5.23039e-07
1.05008e-05
1.05806e-05
2.26046e-05
6.66993e-07
1.25981e-05
1.18277e-05
2.58173e-05
9.58012e-07
1.41514e-05
1.44097e-05
2.69661e-05
1.06229e-06
1.47532e-05
1.52399e-05
2.7109e-05
1.41121e-06
1.79867e-05
1.6975e-05
2.94869e-05
2.12244e-06
1.95678e-05
1.94926e-05
3.08713e-05
2.30446e-06
2.0014e-05
2.08918e-05
3.12645e-05
2.42348e-06
2.32901e-05
2.21395e-05
3.31059e-05
3.55332e-06
2.50891e-05
2.49182e-05
3.45915e-05
4.27948e-06
2.54267e-05
2.61546e-05
3.48463e-05
4.96795e-06
2.7927e-05
2.80567e-05
3.57414e-05
5.71613e-06
2.95262e-05
2.93087e-05
3.73994e-05
6.98264e-06
3.13386e-05
3.14652e-05
3.85783e-05
8.40618e-06
3.30754e-05
3.29073e-05
3.92533e-05
8.9988e-06
3.39441e-05
3.4151e-05
4.05405e-05
1.05205e-05
3.55751e-05
3.52288e-05
4.0816e-05
1.208e-05
3.62322e-05
3.75749e-05
4.21249e-05
1.37639e-05
3.87591e-05
3.81839e-05
4.40232e-05
1.53578e-05
3.95759e-05
3.82255e-05
4.41368e-05
1.57078e-05
3.9757e-05
4.04269e-05
4.39721e-05
1.83246e-05
4.15648e-05
4.27857e-05
4.61276e-05
2.05628e-05
4.25982e-05
4.28639e-05
4.73777e-05
2.14761e-05
4.35379e-05
4.24965e-05
4.65422e-05
2.20212e-05
4.37503e-05
4.33666e-05
4.62522e-05
2.36868e-05
4.49641e-05
4.65646e-05
5.02195e-05
2.68829e-05
4.74637e-05
4.74006e-05
5.09902e-05
2.84384e-05
4.70306e-05
4.63462e-05
4.83334e-05
2.82943e-05
4.6849e-05
4.61661e-05
4.90874e-05
2.84187e-05
4.87491e-05
4.89968e-05
5.16928e-05
3.12407e-05
4.94988e-05
5.01405e-05
5.19031e-05
3.22815e-05
4.96782e-05
5.00191e-05
5.23178e-05
3.35905e-05
5.10154e-05
5.03678e-05
5.38776e-05
3.52641e-05
5.17918e-05
5.19814e-05
5.38843e-05
3.59394e-05
5.12992e-05
5.18e-05
5.23193e-05
3.59101e-05
5.12144e-05
5.12129e-05
5.25285e-05
3.6487e-05
5.34456e-05
5.25969e-05
5.54609e-05
3.877e-05
5.42165e-05
5.42889e-05
5.60953e-05
4.0219e-05
5.35369e-05
5.42719e-05
5.51022e-05
4.04095e-05
5.34639e-05
5.4084e-05
5.54205e-05
4.05218e-05
5.49124e-05
5.4573e-05
5.63884e-05
4.10527e-05
5.51264e-05
5.46228e-05
5.57361e-05
4.22986e-05
5.51109e-05
5.46886e-05
5.57505e-05
4.35518e-05
5.5813e-05
5.61315e-05
5.77629e-05
4.39634e-05
5.60926e-05
5.68718e-05
5.80147e-05
4.38597e-05
5.58224e-05
5.61584e-05
5.64891e-05
4.42785e-05
5.61435e-05
5.51218e-05
5.64166e-05
4.53968e-05
5.67674e-05
5.5507e-05
5.77389e-05
4.52704e-05
5.67598e-05
5.76269e-05
5.82816e-05
4.50262e-05
5.67377e-05
5.80441e-05
5.83928e-05
4.60053e-05
5.71685e-05
5.73691e-05
5.81538e-05
4.70888e-05
5.70843e-05
5.61234e-05
5.7287e-05
4.6775e-05
5.68174e-05
5.61047e-05
5.7555e-05
4.6453e-05
5.73982e-05
5.78333e-05
5.88966e-05
4.64839e-05
5.76562e-05
5.79295e-05
5.87667e-05
4.62727e-05
5.66432e-05
5.64241e-05
5.73195e-05
4.62576e-05
5.60725e-05
5.61929e-05
5.70147e-05
4.77003e-05
5.73905e-05
5.7767e-05
5.87623e-05
4.80851e-05
5.80524e-05
5.8172e-05
5.95207e-05
4.63812e-05
5.64979e-05
5.62325e-05
5.75865e-05
4.50272e-05
5.54133e-05
5.49109e-05
5.59508e-05
4.56837e-05
5.54787e-05
5.52589e-05
5.72157e-05
3.59319e-07
3.03028e-07
3.29624e-07
3.49213e-07
3.5288e-07
3.3061e-07
1.78218e-07
1.65444e-07
1.63853e-07
1.88226e-07
3.10289e-07
3.41915e-07
3.64421e-07
3.17927e-07
3.70526e-07
3.51892e-07
3.58196e-07
3.40939e-07
2.59985e-07
3.32197e-07
2.52018e-07
3.24161e-07
3.48075e-07
3.30509e-07
4.36915e-07
4.00725e-07
4.22672e-07
3.91605e-07
4.2527e-07
2.93341e-07
4.29039e-07
3.63248e-07
3.44155e-07
8.17324e-07
2.85889e-07
7.86099e-07
3.4861e-07
3.38136e-07
3.26214e-07
2.4926e-07
3.20485e-07
2.42138e-07
3.09903e-07
3.29207e-07
3.13278e-07
4.18592e-07
3.87809e-07
4.14419e-07
3.77176e-07
4.31654e-07
2.82446e-07
4.48392e-07
3.42639e-07
3.23469e-07
7.66529e-07
2.56145e-07
5.851e-07
3.36182e-07
3.24096e-07
3.16948e-07
2.40074e-07
3.06539e-07
2.34436e-07
2.95922e-07
3.12068e-07
2.97667e-07
4.14508e-07
3.73652e-07
4.21491e-07
3.61986e-07
4.56512e-07
2.71068e-07
4.85479e-07
3.22102e-07
3.05777e-07
5.10536e-07
2.36096e-07
3.22697e-07
3.18106e-07
3.15262e-07
3.11349e-07
2.3264e-07
2.92196e-07
2.27399e-07
2.81534e-07
2.96521e-07
2.83225e-07
4.25499e-07
3.5895e-07
4.36376e-07
3.55086e-07
4.94607e-07
2.59469e-07
5.24014e-07
3.04672e-07
2.92188e-07
2.81949e-07
2.22295e-07
2.14045e-07
3.10948e-07
3.10283e-07
3.09181e-07
2.25681e-07
2.78183e-07
2.20732e-07
2.6976e-07
2.82186e-07
2.70016e-07
4.40345e-07
3.55036e-07
4.55617e-07
3.5719e-07
5.37834e-07
2.48584e-07
5.94233e-07
2.91021e-07
2.82641e-07
2.03272e-07
2.11651e-07
1.89195e-07
3.19827e-07
3.08135e-07
3.0658e-07
2.19228e-07
2.67323e-07
2.14867e-07
2.60559e-07
2.69083e-07
2.58025e-07
4.60848e-07
3.61469e-07
4.73006e-07
3.82649e-07
6.13128e-07
2.37665e-07
6.4337e-07
2.8168e-07
2.80635e-07
1.87186e-07
2.02686e-07
1.82823e-07
3.24574e-07
3.05129e-07
2.98475e-07
2.13445e-07
2.58704e-07
2.09122e-07
2.53163e-07
2.57221e-07
2.47667e-07
4.7495e-07
3.91591e-07
4.74245e-07
4.20966e-07
6.43972e-07
2.26632e-07
5.7945e-07
2.80614e-07
2.81517e-07
1.81477e-07
1.94535e-07
1.77072e-07
2.93506e-07
2.94806e-07
2.64774e-07
2.07663e-07
2.51525e-07
2.02976e-07
2.49812e-07
2.4699e-07
2.38997e-07
4.68255e-07
4.29589e-07
4.12525e-07
4.43524e-07
5.15631e-07
2.1642e-07
3.49886e-07
2.81014e-07
2.73673e-07
1.75942e-07
1.86865e-07
1.74178e-07
2.45106e-07
2.62172e-07
2.47767e-07
2.01583e-07
2.49836e-07
1.98021e-07
2.50893e-07
2.38477e-07
2.32085e-07
3.93339e-07
4.43999e-07
3.57699e-07
4.22139e-07
3.08347e-07
2.0879e-07
2.27564e-07
2.71707e-07
2.47585e-07
1.74095e-07
1.79698e-07
1.74309e-07
2.21586e-07
2.47025e-07
2.41648e-07
1.96926e-07
2.52374e-07
1.94299e-07
2.58886e-07
2.31771e-07
2.27488e-07
3.54124e-07
3.98702e-07
3.54022e-07
3.24866e-07
2.12317e-07
2.02132e-07
1.88555e-07
2.45928e-07
2.29243e-07
1.74586e-07
1.73987e-07
1.76064e-07
2.08994e-07
2.41722e-07
2.3961e-07
1.93524e-07
2.6163e-07
1.91462e-07
2.72145e-07
2.27375e-07
2.25118e-07
3.57646e-07
3.01295e-07
3.72142e-07
2.48457e-07
1.85134e-07
1.96221e-07
1.80321e-07
2.27889e-07
2.11214e-07
1.76694e-07
1.68928e-07
1.78304e-07
2.01921e-07
2.39197e-07
2.3017e-07
1.908e-07
2.76406e-07
1.88316e-07
2.90665e-07
2.2527e-07
2.24965e-07
3.73431e-07
2.36943e-07
3.66018e-07
2.15253e-07
1.79456e-07
1.92622e-07
1.78747e-07
2.10368e-07
1.99693e-07
1.78765e-07
1.65614e-07
1.79979e-07
1.96227e-07
2.29225e-07
2.15131e-07
1.87689e-07
2.95757e-07
1.85827e-07
3.11201e-07
2.25452e-07
2.26587e-07
3.47774e-07
2.12632e-07
2.85321e-07
2.12598e-07
1.78869e-07
1.93104e-07
1.80434e-07
1.99653e-07
1.96046e-07
1.80465e-07
1.63811e-07
1.81678e-07
1.92717e-07
2.1439e-07
2.02823e-07
1.85701e-07
3.162e-07
1.86496e-07
3.28644e-07
2.2739e-07
2.29486e-07
2.67421e-07
2.15485e-07
2.27645e-07
2.34025e-07
1.81211e-07
1.97956e-07
1.84856e-07
1.96644e-07
1.974e-07
1.82134e-07
1.6434e-07
1.83436e-07
1.91864e-07
2.02957e-07
1.99097e-07
1.87078e-07
3.31367e-07
1.91014e-07
3.33669e-07
2.30597e-07
2.31266e-07
2.18609e-07
2.38212e-07
2.02677e-07
2.57674e-07
1.86067e-07
2.06002e-07
1.91263e-07
1.98662e-07
2.04175e-07
1.84052e-07
1.67809e-07
1.87527e-07
1.93998e-07
2.00307e-07
2.02552e-07
1.92889e-07
3.31956e-07
1.99897e-07
3.05468e-07
2.32229e-07
2.30008e-07
1.99552e-07
2.6785e-07
1.9812e-07
3.07093e-07
1.92909e-07
2.19307e-07
2.0122e-07
2.07321e-07
2.19378e-07
1.88416e-07
1.76197e-07
1.95069e-07
2.00818e-07
2.05611e-07
2.1568e-07
2.02433e-07
2.96554e-07
2.14412e-07
2.76873e-07
2.31697e-07
2.35086e-07
1.98949e-07
3.21875e-07
2.08035e-07
3.61857e-07
2.04143e-07
2.41817e-07
2.16155e-07
2.24855e-07
2.43674e-07
1.9829e-07
1.91555e-07
2.11091e-07
2.16162e-07
2.2207e-07
2.44266e-07
2.19366e-07
2.73333e-07
2.37398e-07
2.68843e-07
2.40125e-07
2.58433e-07
2.12394e-07
3.74794e-07
2.3085e-07
4.07209e-07
2.21425e-07
2.76563e-07
2.40021e-07
2.50752e-07
2.75217e-07
2.15883e-07
2.16788e-07
2.35201e-07
2.44563e-07
2.56293e-07
3.00583e-07
2.47408e-07
2.69711e-07
2.77454e-07
2.89974e-07
2.68017e-07
3.20903e-07
2.38998e-07
4.14919e-07
2.6853e-07
4.25946e-07
2.5169e-07
3.29984e-07
2.91241e-07
2.86131e-07
3.2595e-07
2.47262e-07
2.58504e-07
2.8743e-07
3.20217e-07
3.20633e-07
4.17214e-07
2.93598e-07
2.97e-07
3.4837e-07
3.29068e-07
3.4137e-07
4.18534e-07
2.83528e-07
4.24267e-07
3.36117e-07
4.37028e-07
3.00244e-07
3.89919e-07
3.43913e-07
3.40513e-07
4.1588e-07
2.97507e-07
3.25157e-07
3.39715e-07
3.83448e-07
4.46162e-07
6.0456e-07
3.63685e-07
3.50283e-07
4.54202e-07
4.14705e-07
4.60704e-07
6.0711e-07
3.51119e-07
4.47724e-07
4.36905e-07
5.09923e-07
3.68663e-07
4.69514e-07
4.51874e-07
4.51512e-07
6.31951e-07
3.6413e-07
4.38093e-07
4.49515e-07
6.19382e-07
6.85973e-07
9.92935e-07
4.94423e-07
4.4824e-07
6.16649e-07
5.93182e-07
6.46587e-07
9.51918e-07
4.82065e-07
5.47214e-07
5.91606e-07
6.30107e-07
4.83787e-07
6.14209e-07
6.18307e-07
7.09167e-07
9.65867e-07
4.83496e-07
5.80722e-07
6.16682e-07
9.87286e-07
1.06303e-06
1.47124e-06
6.59453e-07
6.42945e-07
8.17565e-07
8.19474e-07
1.07692e-06
1.55284e-06
6.29682e-07
6.64653e-07
7.99994e-07
8.36289e-07
6.576e-07
8.48471e-07
8.11122e-07
1.02349e-06
1.4777e-06
6.57632e-07
8.00844e-07
8.04769e-07
1.47339e-06
1.63054e-06
2.4065e-06
8.95431e-07
8.73178e-07
1.13209e-06
1.06671e-06
1.68011e-06
2.33419e-06
8.66413e-07
9.03396e-07
1.12155e-06
1.14387e-06
8.9238e-07
1.09875e-06
1.12903e-06
1.65114e-06
2.39374e-06
8.87298e-07
1.10414e-06
1.13712e-06
2.49558e-06
2.60948e-06
3.59843e-06
1.22322e-06
1.17183e-06
1.53304e-06
1.479e-06
2.53455e-06
3.61997e-06
1.21501e-06
1.24024e-06
1.49028e-06
1.53071e-06
1.20959e-06
1.4993e-06
1.51479e-06
2.59577e-06
3.58921e-06
1.22041e-06
1.49799e-06
1.55134e-06
3.58664e-06
3.87383e-06
5.22238e-06
1.64683e-06
1.56606e-06
2.04993e-06
2.01311e-06
3.91037e-06
5.23832e-06
1.63101e-06
1.6234e-06
2.00067e-06
1.99668e-06
1.62938e-06
2.0336e-06
2.02127e-06
3.84751e-06
5.12955e-06
1.66259e-06
1.98815e-06
2.08227e-06
5.28961e-06
5.57185e-06
7.17604e-06
2.18139e-06
2.17586e-06
2.65561e-06
2.5443e-06
5.61686e-06
7.17064e-06
2.12071e-06
2.14772e-06
2.66713e-06
2.59047e-06
2.14914e-06
2.52737e-06
2.58833e-06
5.50813e-06
7.2046e-06
2.2365e-06
2.58276e-06
2.64852e-06
7.12485e-06
7.60675e-06
9.56897e-06
2.85164e-06
2.68626e-06
3.3817e-06
3.30058e-06
7.50025e-06
9.43933e-06
2.82434e-06
2.76884e-06
3.36244e-06
3.33114e-06
2.76235e-06
3.3233e-06
3.33981e-06
7.61164e-06
9.50606e-06
2.82521e-06
3.34085e-06
3.51916e-06
9.57146e-06
1.00277e-05
1.1916e-05
3.57647e-06
3.54515e-06
4.2554e-06
4.29724e-06
1.00573e-05
1.22561e-05
3.61021e-06
3.51663e-06
4.2124e-06
4.12617e-06
3.581e-06
4.26179e-06
4.14892e-06
9.9839e-06
1.18131e-05
3.76857e-06
4.1257e-06
4.21553e-06
1.20822e-05
1.24301e-05
1.45671e-05
4.45225e-06
4.46159e-06
5.19795e-06
4.78832e-06
1.26277e-05
1.3942e-05
4.40194e-06
4.34124e-06
5.3671e-06
5.11835e-06
4.34199e-06
4.9109e-06
5.14805e-06
1.22644e-05
1.43752e-05
4.37299e-06
5.09537e-06
5.2107e-06
1.42987e-05
1.50962e-05
1.70315e-05
5.56805e-06
5.12869e-06
6.40026e-06
6.48387e-06
1.44384e-05
1.70375e-05
5.71314e-06
5.43689e-06
6.51592e-06
6.30077e-06
5.39856e-06
6.451e-06
6.22078e-06
1.49437e-05
1.69454e-05
5.4914e-06
6.30235e-06
6.3433e-06
1.69098e-05
1.74586e-05
1.88736e-05
6.50308e-06
6.7894e-06
7.45621e-06
7.37291e-06
1.76865e-05
1.93571e-05
6.71657e-06
6.53731e-06
7.4666e-06
7.38286e-06
6.52997e-06
7.45358e-06
7.44042e-06
1.74004e-05
1.89401e-05
6.63693e-06
7.35455e-06
7.48916e-06
1.91825e-05
1.93761e-05
2.12974e-05
7.97308e-06
7.73161e-06
9.04955e-06
8.95037e-06
1.9708e-05
2.1182e-05
7.8612e-06
7.74472e-06
8.8223e-06
8.83485e-06
7.80758e-06
9.00815e-06
8.97111e-06
1.93974e-05
2.12189e-05
7.83936e-06
8.79204e-06
8.98993e-06
2.12929e-05
2.1702e-05
2.28064e-05
9.2778e-06
9.17018e-06
1.00699e-05
1.00306e-05
2.16406e-05
2.27702e-05
9.09358e-06
9.24029e-06
1.04103e-05
1.04523e-05
9.30042e-06
1.00885e-05
9.80157e-06
2.17106e-05
2.29852e-05
9.31386e-06
1.03697e-05
9.79235e-06
2.22556e-05
2.31941e-05
2.4665e-05
1.03375e-05
1.04428e-05
1.15768e-05
1.17234e-05
2.313e-05
2.47473e-05
1.08304e-05
1.06661e-05
1.17034e-05
1.13927e-05
9.93565e-06
1.2033e-05
1.18657e-05
2.32852e-05
2.43354e-05
9.92728e-06
1.1271e-05
1.18322e-05
2.51841e-05
2.51268e-05
2.64771e-05
1.22544e-05
1.22417e-05
1.41409e-05
1.37437e-05
2.52684e-05
2.64138e-05
1.20917e-05
1.19663e-05
1.36471e-05
1.4045e-05
1.27514e-05
1.39177e-05
1.43421e-05
2.4831e-05
2.66861e-05
1.26921e-05
1.38934e-05
1.42623e-05
2.68321e-05
2.67453e-05
2.72159e-05
1.45082e-05
1.41142e-05
1.50306e-05
1.46244e-05
2.66324e-05
2.71416e-05
1.41275e-05
1.45575e-05
1.47922e-05
1.52768e-05
1.45303e-05
1.44781e-05
1.47312e-05
2.70143e-05
2.7504e-05
1.44649e-05
1.51663e-05
1.46963e-05
2.69364e-05
2.74505e-05
2.89462e-05
1.51023e-05
1.47789e-05
1.60905e-05
1.69819e-05
2.75061e-05
2.94243e-05
1.49315e-05
1.53501e-05
1.66938e-05
1.63513e-05
1.47765e-05
1.71965e-05
1.58455e-05
2.7684e-05
2.85827e-05
1.47423e-05
1.62018e-05
1.58327e-05
2.87821e-05
2.95143e-05
3.07113e-05
1.72745e-05
1.78976e-05
1.97042e-05
1.94801e-05
2.97863e-05
3.03295e-05
1.74727e-05
1.70079e-05
1.94662e-05
1.89903e-05
1.71525e-05
1.93467e-05
1.96958e-05
2.90582e-05
3.05694e-05
1.69735e-05
1.89997e-05
1.94667e-05
3.07405e-05
3.09019e-05
3.11989e-05
2.00412e-05
1.97684e-05
2.05007e-05
2.02032e-05
3.04988e-05
3.11307e-05
1.99555e-05
1.95664e-05
2.08309e-05
2.08646e-05
1.99903e-05
1.9896e-05
2.04181e-05
3.08505e-05
3.14544e-05
1.98604e-05
2.06713e-05
2.04408e-05
3.10485e-05
3.13596e-05
3.19951e-05
2.0555e-05
2.03853e-05
2.10646e-05
2.3058e-05
3.14067e-05
3.30374e-05
2.09565e-05
2.10693e-05
2.12602e-05
2.15047e-05
2.05054e-05
2.22872e-05
2.14273e-05
3.16311e-05
3.21209e-05
2.0522e-05
2.15839e-05
2.14795e-05
3.25629e-05
3.23966e-05
3.40333e-05
2.20281e-05
2.39504e-05
2.45305e-05
2.51561e-05
3.34696e-05
3.40807e-05
2.16763e-05
2.19736e-05
2.40162e-05
2.41748e-05
2.27765e-05
2.48786e-05
2.56777e-05
3.24092e-05
3.39903e-05
2.26157e-05
2.43037e-05
2.49889e-05
3.44458e-05
3.43001e-05
3.49124e-05
2.4886e-05
2.52896e-05
2.58173e-05
2.54835e-05
3.41958e-05
3.44248e-05
2.46589e-05
2.48533e-05
2.62747e-05
2.60349e-05
2.60326e-05
2.53592e-05
2.64039e-05
3.43425e-05
3.49611e-05
2.53382e-05
2.59281e-05
2.58002e-05
3.47327e-05
3.51361e-05
3.58517e-05
2.62517e-05
2.55245e-05
2.73766e-05
2.69594e-05
3.45839e-05
3.58192e-05
2.67177e-05
2.63024e-05
2.75776e-05
2.76387e-05
2.64515e-05
2.70563e-05
2.65647e-05
3.51305e-05
3.5912e-05
2.58455e-05
2.75413e-05
2.66312e-05
3.53853e-05
3.60404e-05
3.68755e-05
2.76865e-05
2.79779e-05
2.91064e-05
2.97335e-05
3.62837e-05
3.71733e-05
2.7761e-05
2.81146e-05
2.89333e-05
2.89397e-05
2.68333e-05
2.93926e-05
2.91568e-05
3.61991e-05
3.68638e-05
2.74232e-05
2.89396e-05
2.91567e-05
3.71569e-05
3.7199e-05
3.83049e-05
2.96157e-05
2.99007e-05
3.09234e-05
3.08138e-05
3.73324e-05
3.80753e-05
2.95143e-05
2.9274e-05
3.10086e-05
3.09021e-05
2.97361e-05
3.06682e-05
3.13546e-05
3.70489e-05
3.81768e-05
2.96597e-05
3.1022e-05
3.12419e-05
3.83504e-05
3.85417e-05
3.93164e-05
3.14057e-05
3.14162e-05
3.27813e-05
3.28718e-05
3.84215e-05
3.93918e-05
3.14646e-05
3.13542e-05
3.27671e-05
3.25874e-05
3.17176e-05
3.28505e-05
3.23553e-05
3.84903e-05
3.92817e-05
3.16082e-05
3.2538e-05
3.20762e-05
3.9048e-05
3.94669e-05
3.97314e-05
3.305e-05
3.30876e-05
3.33539e-05
3.34488e-05
3.95284e-05
3.98677e-05
3.30207e-05
3.3037e-05
3.33647e-05
3.3995e-05
3.27337e-05
3.34834e-05
3.41905e-05
3.94841e-05
4.01342e-05
3.24341e-05
3.39e-05
3.40836e-05
4.03599e-05
3.98799e-05
4.12e-05
3.35432e-05
3.38755e-05
3.53625e-05
3.52745e-05
4.0083e-05
4.10827e-05
3.36781e-05
3.42033e-05
3.52878e-05
3.48218e-05
3.45556e-05
3.53402e-05
3.5132e-05
4.02707e-05
4.07984e-05
3.44913e-05
3.48177e-05
3.51013e-05
4.07478e-05
4.14981e-05
4.20671e-05
3.5837e-05
3.54685e-05
3.64494e-05
3.59557e-05
4.12134e-05
4.16329e-05
3.56794e-05
3.5174e-05
3.64634e-05
3.68855e-05
3.51941e-05
3.59063e-05
3.56339e-05
4.10667e-05
4.25688e-05
3.51701e-05
3.70645e-05
3.58677e-05
4.16822e-05
4.22348e-05
4.32855e-05
3.67275e-05
3.65514e-05
3.8128e-05
3.84001e-05
4.19291e-05
4.35624e-05
3.68526e-05
3.74482e-05
3.82374e-05
3.82802e-05
3.6265e-05
3.82486e-05
3.84682e-05
4.28729e-05
4.31157e-05
3.66474e-05
3.81634e-05
3.87171e-05
4.38153e-05
4.34904e-05
4.36921e-05
3.85381e-05
3.87685e-05
3.91455e-05
3.92213e-05
4.37903e-05
4.39761e-05
3.85468e-05
3.83491e-05
3.88969e-05
3.84497e-05
3.90075e-05
3.94999e-05
3.97063e-05
4.31187e-05
4.28281e-05
3.90666e-05
3.82085e-05
3.93188e-05
4.41275e-05
4.37293e-05
4.40962e-05
3.91989e-05
3.92491e-05
3.93354e-05
3.93733e-05
4.40001e-05
4.40835e-05
3.89193e-05
3.84854e-05
3.92652e-05
3.95737e-05
3.97509e-05
3.96686e-05
3.98009e-05
4.28791e-05
4.47527e-05
3.93156e-05
3.9312e-05
3.93208e-05
4.3917e-05
4.44204e-05
4.60775e-05
3.95704e-05
3.96324e-05
4.1533e-05
4.13359e-05
4.42759e-05
4.56673e-05
3.99049e-05
4.06198e-05
4.18708e-05
4.24951e-05
3.98205e-05
4.10916e-05
4.06064e-05
4.54303e-05
4.68453e-05
3.93507e-05
4.25172e-05
4.11581e-05
4.5579e-05
4.63027e-05
4.65e-05
4.20399e-05
4.17476e-05
4.26187e-05
4.23367e-05
4.59356e-05
4.63568e-05
4.22592e-05
4.26837e-05
4.26726e-05
4.26994e-05
4.15165e-05
4.2374e-05
4.32595e-05
4.69065e-05
4.63691e-05
4.21324e-05
4.29305e-05
4.3474e-05
4.73132e-05
4.65391e-05
4.67883e-05
4.27162e-05
4.25254e-05
4.3228e-05
4.33468e-05
4.64531e-05
4.70291e-05
4.27095e-05
4.25297e-05
4.29659e-05
4.21972e-05
4.34269e-05
4.33635e-05
4.33585e-05
4.63222e-05
4.57932e-05
4.35258e-05
4.25299e-05
4.30681e-05
4.66247e-05
4.68612e-05
4.69031e-05
4.33487e-05
4.35592e-05
4.34646e-05
4.38096e-05
4.71476e-05
4.72194e-05
4.30076e-05
4.21758e-05
4.30892e-05
4.25878e-05
4.31396e-05
4.37295e-05
4.29528e-05
4.58151e-05
4.68695e-05
4.2759e-05
4.27537e-05
4.25736e-05
4.60959e-05
4.70179e-05
4.86667e-05
4.35268e-05
4.38314e-05
4.47751e-05
4.419e-05
4.7243e-05
4.80122e-05
4.32293e-05
4.33545e-05
4.52059e-05
4.59191e-05
4.29767e-05
4.4155e-05
4.50584e-05
4.73739e-05
4.96554e-05
4.26624e-05
4.5862e-05
4.59946e-05
4.95957e-05
4.9076e-05
5.00892e-05
4.54298e-05
4.49062e-05
4.69874e-05
4.71365e-05
4.85251e-05
5.03627e-05
4.59066e-05
4.66249e-05
4.72202e-05
4.75627e-05
4.61968e-05
4.72519e-05
4.76335e-05
5.00295e-05
5.04123e-05
4.70486e-05
4.73957e-05
4.79667e-05
5.10757e-05
5.01624e-05
4.99082e-05
4.72288e-05
4.73891e-05
4.73396e-05
4.73658e-05
5.04575e-05
4.9686e-05
4.73753e-05
4.75835e-05
4.74092e-05
4.69937e-05
4.76463e-05
4.73296e-05
4.66597e-05
5.03859e-05
4.90705e-05
4.79317e-05
4.66809e-05
4.61469e-05
4.84611e-05
4.98722e-05
4.94845e-05
4.72512e-05
4.70951e-05
4.69065e-05
4.68169e-05
4.95948e-05
4.93761e-05
4.72704e-05
4.65779e-05
4.68049e-05
4.6212e-05
4.63781e-05
4.68201e-05
4.6279e-05
4.8976e-05
4.88021e-05
4.57307e-05
4.61311e-05
4.55422e-05
4.863e-05
4.9533e-05
5.06925e-05
4.6903e-05
4.68327e-05
4.76466e-05
4.81293e-05
4.95716e-05
5.12853e-05
4.67948e-05
4.62302e-05
4.74422e-05
4.80282e-05
4.64566e-05
4.82272e-05
4.83632e-05
4.90307e-05
5.14621e-05
4.57086e-05
4.81514e-05
4.8189e-05
5.14493e-05
5.10754e-05
5.17168e-05
4.83153e-05
4.87193e-05
4.93902e-05
4.9454e-05
5.15581e-05
5.17148e-05
4.82137e-05
4.89433e-05
4.9484e-05
5.00835e-05
4.87831e-05
4.9421e-05
4.93952e-05
5.19172e-05
5.24964e-05
4.88113e-05
5.00931e-05
4.97441e-05
5.18838e-05
5.17579e-05
5.18597e-05
4.95067e-05
4.95103e-05
4.96341e-05
4.95876e-05
5.17217e-05
5.17088e-05
4.96177e-05
5.01082e-05
4.97427e-05
4.97823e-05
4.9489e-05
4.96346e-05
4.96812e-05
5.2473e-05
5.17905e-05
4.98665e-05
5.00381e-05
5.0198e-05
5.21176e-05
5.19742e-05
5.30466e-05
4.97044e-05
4.96202e-05
5.06583e-05
5.0455e-05
5.18128e-05
5.30065e-05
4.97747e-05
4.97275e-05
5.03927e-05
4.98236e-05
4.98566e-05
5.0505e-05
5.11164e-05
5.17939e-05
5.23054e-05
5.03724e-05
5.00986e-05
5.11686e-05
5.3646e-05
5.33744e-05
5.39615e-05
5.11236e-05
5.10377e-05
5.18657e-05
5.18019e-05
5.33548e-05
5.38264e-05
5.09216e-05
5.01944e-05
5.19255e-05
5.19899e-05
5.1526e-05
5.1765e-05
5.19377e-05
5.26491e-05
5.41216e-05
5.14307e-05
5.18091e-05
5.17102e-05
5.39456e-05
5.3961e-05
5.31217e-05
5.18961e-05
5.18189e-05
5.16202e-05
5.14204e-05
5.38098e-05
5.29122e-05
5.19911e-05
5.21814e-05
5.18258e-05
5.21893e-05
5.19281e-05
5.1502e-05
5.11465e-05
5.42091e-05
5.36611e-05
5.16997e-05
5.20006e-05
5.10378e-05
5.24201e-05
5.30435e-05
5.28641e-05
5.13768e-05
5.1226e-05
5.11835e-05
5.11258e-05
5.28626e-05
5.29162e-05
5.15547e-05
5.19411e-05
5.12661e-05
5.1233e-05
5.08542e-05
5.11743e-05
5.06623e-05
5.35142e-05
5.27768e-05
5.0817e-05
5.1224e-05
5.06865e-05
5.22774e-05
5.30125e-05
5.45916e-05
5.12049e-05
5.11886e-05
5.25081e-05
5.29257e-05
5.31298e-05
5.51317e-05
5.1271e-05
5.12143e-05
5.21731e-05
5.17106e-05
5.07092e-05
5.28152e-05
5.26533e-05
5.28002e-05
5.40658e-05
5.07389e-05
5.17932e-05
5.26119e-05
5.50379e-05
5.49536e-05
5.5623e-05
5.30795e-05
5.34873e-05
5.39647e-05
5.4127e-05
5.54584e-05
5.58442e-05
5.28119e-05
5.24959e-05
5.3941e-05
5.40322e-05
5.34134e-05
5.41959e-05
5.43458e-05
5.45576e-05
5.58348e-05
5.3361e-05
5.41069e-05
5.43521e-05
5.61131e-05
5.56499e-05
5.54715e-05
5.4064e-05
5.41421e-05
5.40977e-05
5.3719e-05
5.58175e-05
5.4836e-05
5.40873e-05
5.42298e-05
5.41845e-05
5.43423e-05
5.43789e-05
5.37622e-05
5.39792e-05
5.59068e-05
5.56541e-05
5.43974e-05
5.43684e-05
5.40897e-05
5.51538e-05
5.54712e-05
5.54562e-05
5.40417e-05
5.3542e-05
5.39872e-05
5.34499e-05
5.47747e-05
5.47821e-05
5.41569e-05
5.42795e-05
5.40617e-05
5.40934e-05
5.37947e-05
5.34098e-05
5.372e-05
5.5623e-05
5.5459e-05
5.39231e-05
5.4081e-05
5.38514e-05
5.52206e-05
5.55063e-05
5.56541e-05
5.40039e-05
5.35086e-05
5.42935e-05
5.45664e-05
5.49573e-05
5.62136e-05
5.40628e-05
5.40932e-05
5.4239e-05
5.43604e-05
5.38181e-05
5.46441e-05
5.48151e-05
5.55087e-05
5.58429e-05
5.39335e-05
5.44519e-05
5.47527e-05
5.63556e-05
5.56684e-05
5.57097e-05
5.43209e-05
5.47944e-05
5.44076e-05
5.50294e-05
5.63552e-05
5.64018e-05
5.42729e-05
5.44609e-05
5.43624e-05
5.4523e-05
5.49051e-05
5.51288e-05
5.4778e-05
5.58947e-05
5.58499e-05
5.48191e-05
5.46308e-05
5.46651e-05
5.57918e-05
5.58204e-05
5.65251e-05
5.45436e-05
5.50491e-05
5.5129e-05
5.51056e-05
5.64029e-05
5.63508e-05
5.44977e-05
5.45367e-05
5.51181e-05
5.47973e-05
5.4639e-05
5.51021e-05
5.45581e-05
5.5859e-05
5.60308e-05
5.45385e-05
5.46382e-05
5.44744e-05
5.56162e-05
5.67032e-05
5.74247e-05
5.53956e-05
5.51589e-05
5.6126e-05
5.57663e-05
5.64011e-05
5.69963e-05
5.53749e-05
5.49567e-05
5.61136e-05
5.58076e-05
5.45937e-05
5.55334e-05
5.58225e-05
5.61374e-05
5.71311e-05
5.4518e-05
5.56691e-05
5.5884e-05
5.7491e-05
5.74973e-05
5.72376e-05
5.62265e-05
5.59124e-05
5.62149e-05
5.59873e-05
5.71123e-05
5.70686e-05
5.62362e-05
5.61336e-05
5.6271e-05
5.66216e-05
5.62957e-05
5.60975e-05
5.67481e-05
5.73803e-05
5.79249e-05
5.6387e-05
5.68422e-05
5.68808e-05
5.80918e-05
5.71237e-05
5.65075e-05
5.60414e-05
5.594e-05
5.55839e-05
5.56959e-05
5.70347e-05
5.67308e-05
5.61652e-05
5.66378e-05
5.56687e-05
5.63888e-05
5.67354e-05
5.58583e-05
5.58992e-05
5.79449e-05
5.73151e-05
5.68716e-05
5.66245e-05
5.59886e-05
5.66199e-05
5.65105e-05
5.74173e-05
5.55714e-05
5.56934e-05
5.61064e-05
5.61748e-05
5.67467e-05
5.73759e-05
5.56365e-05
5.60503e-05
5.58958e-05
5.54325e-05
5.56181e-05
5.59243e-05
5.54081e-05
5.71438e-05
5.62139e-05
5.56196e-05
5.52036e-05
5.52624e-05
5.62908e-05
5.76919e-05
5.82637e-05
5.65905e-05
5.64919e-05
5.71571e-05
5.68815e-05
5.75558e-05
5.78814e-05
5.62922e-05
5.53874e-05
5.69151e-05
5.54947e-05
5.54367e-05
5.66945e-05
5.63484e-05
5.61959e-05
5.65242e-05
5.52689e-05
5.519e-05
5.6e-05
5.75384e-05
5.82735e-05
5.73194e-05
5.71643e-05
5.68926e-05
5.65742e-05
5.66891e-05
5.78891e-05
5.75909e-05
5.69439e-05
5.58299e-05
5.66652e-05
5.7114e-05
5.66446e-05
5.67909e-05
5.71054e-05
5.68051e-05
5.84044e-05
5.63854e-05
5.72604e-05
5.72189e-05
5.82228e-05
5.71648e-05
5.67094e-05
5.61973e-05
5.65334e-05
5.57948e-05
5.63707e-05
5.75734e-05
5.75382e-05
5.64166e-05
5.73555e-05
5.61435e-05
5.76053e-05
5.71742e-05
5.67188e-05
5.72395e-05
5.85987e-05
5.89295e-05
5.73887e-05
5.8035e-05
5.75951e-05
5.83765e-05
5.67391e-05
5.82554e-05
5.57999e-05
5.63787e-05
5.68805e-05
5.70064e-05
5.76077e-05
5.818e-05
5.615e-05
5.76077e-05
5.70099e-05
5.7455e-05
5.7239e-05
5.71035e-05
5.72105e-05
5.89394e-05
5.8414e-05
5.76019e-05
5.77489e-05
5.75046e-05
5.82345e-05
5.85352e-05
5.90203e-05
5.7449e-05
5.72689e-05
5.80717e-05
5.74956e-05
5.82584e-05
5.81973e-05
5.73922e-05
5.73008e-05
5.77381e-05
5.66628e-05
5.71608e-05
5.71696e-05
5.66704e-05
5.82923e-05
5.72221e-05
5.72672e-05
5.63189e-05
5.64071e-05
5.73282e-05
5.90121e-05
5.82049e-05
5.80772e-05
5.74877e-05
5.75457e-05
5.71145e-05
5.81693e-05
5.78305e-05
5.77264e-05
5.64884e-05
5.72324e-05
5.63353e-05
5.65522e-05
5.6824e-05
5.64818e-05
5.71413e-05
5.70424e-05
5.62679e-05
5.60085e-05
5.62152e-05
5.73739e-05
5.81504e-05
5.80444e-05
5.72782e-05
5.70133e-05
5.69788e-05
5.69881e-05
5.78323e-05
5.81773e-05
5.71263e-05
5.63784e-05
5.71154e-05
5.74457e-05
5.65448e-05
5.71441e-05
5.75254e-05
5.72161e-05
5.87438e-05
5.63324e-05
5.75477e-05
5.76012e-05
5.87797e-05
5.80761e-05
5.79955e-05
5.69696e-05
5.70822e-05
5.69471e-05
5.73619e-05
5.83244e-05
5.86e-05
5.71629e-05
5.76866e-05
5.7154e-05
5.78047e-05
5.77387e-05
5.76595e-05
5.78658e-05
5.88972e-05
5.89168e-05
5.78285e-05
5.79958e-05
5.79504e-05
5.88526e-05
5.79322e-05
5.71872e-05
5.69147e-05
5.73629e-05
5.64783e-05
5.6994e-05
5.86048e-05
5.77527e-05
5.70746e-05
5.77236e-05
5.6378e-05
5.66115e-05
5.78275e-05
5.70492e-05
5.68065e-05
5.87838e-05
5.73775e-05
5.78923e-05
5.673e-05
5.67611e-05
5.74596e-05
5.71564e-05
5.74529e-05
5.63678e-05
5.66793e-05
5.6337e-05
5.62352e-05
5.75968e-05
5.70707e-05
5.6268e-05
5.63719e-05
5.62867e-05
5.62173e-05
5.64341e-05
5.60774e-05
5.59896e-05
5.72748e-05
5.71778e-05
5.64175e-05
5.61644e-05
5.60404e-05
5.69594e-05
5.77181e-05
5.94123e-05
5.64728e-05
5.62344e-05
5.78939e-05
5.69573e-05
5.70866e-05
5.83021e-05
5.65204e-05
5.62857e-05
5.80958e-05
5.76071e-05
5.5994e-05
5.6813e-05
5.69136e-05
5.73324e-05
5.88446e-05
5.60483e-05
5.73308e-05
5.69973e-05
5.84293e-05
5.95796e-05
5.95727e-05
5.81994e-05
5.74821e-05
5.83736e-05
5.80623e-05
5.86117e-05
5.92503e-05
5.83624e-05
5.79708e-05
5.84745e-05
5.82447e-05
5.75248e-05
5.80454e-05
5.82622e-05
5.907e-05
5.93943e-05
5.75756e-05
5.81793e-05
5.82824e-05
5.95066e-05
5.93631e-05
5.66668e-05
5.83022e-05
5.80652e-05
5.63566e-05
5.70974e-05
5.92562e-05
5.77013e-05
5.83551e-05
5.82134e-05
5.60485e-05
5.65767e-05
5.82762e-05
5.71682e-05
5.74711e-05
5.93542e-05
5.73322e-05
5.82967e-05
5.70006e-05
5.75218e-05
5.79884e-05
5.63183e-05
5.54977e-05
5.56495e-05
5.64114e-05
5.47404e-05
5.53403e-05
5.73857e-05
5.63947e-05
5.53326e-05
5.58344e-05
5.44997e-05
5.47703e-05
5.66483e-05
5.5442e-05
5.51349e-05
5.69703e-05
5.58147e-05
5.66587e-05
5.49581e-05
5.5013e-05
5.59732e-05
5.55621e-05
5.78865e-05
5.4743e-05
5.53123e-05
5.59233e-05
5.58773e-05
5.64073e-05
5.767e-05
5.45141e-05
5.47576e-05
5.60951e-05
5.57699e-05
5.50425e-05
5.59352e-05
5.52993e-05
5.58228e-05
5.74909e-05
5.49019e-05
5.54638e-05
5.51137e-05
5.69141e-05
5.82178e-05
5.56862e-05
5.54614e-05
5.78719e-05
5.58687e-05
5.5559e-05
4.56225e-05
4.53955e-05
4.51431e-05
5.49319e-05
5.78286e-05
5.48031e-05
9.01979e-08
2.63003e-07
6.21446e-08
7.77602e-08
2.86245e-07
3.09284e-07
2.35523e-07
1.48378e-07
2.73522e-07
3.20925e-07
1.19762e-07
3.95762e-06
3.58811e-07
2.74899e-07
6.49176e-07
2.99798e-07
4.83869e-06
2.60846e-07
6.47465e-06
1.35874e-05
2.10361e-05
3.6089e-07
5.56397e-06
3.19769e-07
7.32779e-06
1.67556e-07
1.65675e-07
1.92699e-07
1.80632e-07
1.67156e-07
1.64656e-07
1.91988e-07
2.67681e-07
6.02694e-07
2.46158e-07
2.98794e-07
2.73526e-07
5.84899e-07
2.45088e-07
1.36117e-05
2.10843e-05
2.5063e-07
2.2212e-07
1.94123e-06
3.03852e-07
2.57148e-07
2.20562e-07
1.27344e-06
1.90407e-06
1.98022e-06
3.46801e-07
1.88147e-06
1.96988e-06
4.88086e-07
9.5566e-06
3.99517e-07
1.21979e-05
3.61236e-05
4.61222e-05
5.53002e-07
1.07049e-05
4.63071e-07
1.38516e-05
1.65986e-07
1.63601e-07
1.89964e-07
1.77737e-07
1.62433e-07
1.60807e-07