/*--------------------------------*- C++ -*----------------------------------*\
| =========                 |                                                 |
| \\      /  F ield         | OpenFOAM: The Open Source CFD Toolbox           |
|  \\    /   O peration     | Version:  v2012                                 |
|   \\  /    A nd           | Website:  www.openfoam.com                      |
|    \\/     M anipulation  |                                                 |
\*---------------------------------------------------------------------------*/
FoamFile
{
    version     2.0;
    format      ascii;
    class       volScalarField;
    location    "1075";
    object      nut;
}
// * * * * * * * * * * * * * * * * * * * * * * * * * * * * * * * * * * * * * //

dimensions      [0 2 -1 0 0 0 0];


internalField   nonuniform List<scalar> 
171728
(
1.82948e-06
1.85786e-06
2.35952e-06
2.24166e-06
1.84708e-06
1.89046e-06
2.10992e-06
2.34678e-06
1.8954e-06
1.9215e-06
1.91529e-06
2.25032e-06
1.92292e-06
1.92776e-06
1.81147e-06
2.16403e-06
1.9116e-06
1.91367e-06
1.75622e-06
2.21369e-06
1.90496e-06
1.89061e-06
1.71915e-06
2.70142e-06
1.9039e-06
1.83972e-06
1.6783e-06
3.02504e-06
1.87518e-06
1.76312e-06
1.62638e-06
2.62024e-06
1.79367e-06
1.67862e-06
1.55702e-06
2.12012e-06
1.76421e-06
1.60628e-06
1.47248e-06
1.86079e-06
1.79574e-06
1.52008e-06
1.38596e-06
1.73216e-06
1.81456e-06
1.42785e-06
1.28669e-06
1.64597e-06
1.75205e-06
1.3467e-06
1.20523e-06
1.55294e-06
1.6488e-06
1.29006e-06
1.11212e-06
1.46452e-06
1.59186e-06
1.25977e-06
1.03261e-06
1.38218e-06
1.56553e-06
1.23384e-06
9.60292e-07
1.29365e-06
1.5469e-06
1.22901e-06
9.1485e-07
1.21275e-06
1.52624e-06
1.25862e-06
8.95043e-07
1.18463e-06
1.50424e-06
1.30224e-06
9.14713e-07
1.12689e-06
1.49278e-06
1.44171e-06
1.00168e-06
1.42193e-06
1.47489e-06
1.55577e-06
1.18867e-06
1.47385e-06
1.45999e-06
1.68402e-06
1.60445e-06
2.3168e-06
1.43562e-06
2.18552e-06
2.0125e-06
3.65952e-06
1.3935e-06
3.01761e-06
2.82447e-06
5.11424e-06
1.34111e-06
3.86749e-06
3.86994e-06
8.90756e-06
1.26092e-06
5.133e-06
5.2106e-06
1.22563e-05
1.2025e-06
7.25243e-06
7.0059e-06
1.79178e-05
1.16665e-06
8.81678e-06
9.01469e-06
2.35274e-05
1.16227e-06
1.1594e-05
1.17294e-05
3.12215e-05
1.24091e-06
1.51066e-05
1.44462e-05
3.86137e-05
1.43319e-06
1.6945e-05
1.80204e-05
4.4687e-05
1.64458e-06
2.32242e-05
2.22895e-05
5.23619e-05
1.75114e-06
2.63241e-05
2.59434e-05
5.85983e-05
2.13002e-06
3.17917e-05
3.10429e-05
6.53249e-05
2.72196e-06
3.5359e-05
3.67132e-05
6.57447e-05
3.16852e-06
4.29288e-05
3.90799e-05
7.70398e-05
4.98636e-06
4.97162e-05
4.98329e-05
8.18284e-05
5.51175e-06
4.86413e-05
5.27207e-05
8.04553e-05
6.30101e-06
6.16049e-05
5.65654e-05
8.75137e-05
1.11521e-05
6.8339e-05
6.6669e-05
9.40971e-05
1.22684e-05
6.71256e-05
7.20169e-05
9.37101e-05
1.08261e-05
7.89406e-05
7.38854e-05
9.95898e-05
1.7602e-05
8.70812e-05
8.47583e-05
0.00010636
2.11156e-05
8.58475e-05
8.8867e-05
0.000106397
2.50623e-05
9.40008e-05
9.53873e-05
0.000108295
2.72402e-05
0.00010066
9.86314e-05
0.000114969
3.3727e-05
0.000105886
0.00010704
0.000119472
4.15373e-05
0.000113763
0.000112051
0.000121
4.39395e-05
0.000114671
0.000116625
0.000126833
4.96041e-05
0.000122295
0.000118783
0.000127083
5.81217e-05
0.000121731
0.000129416
0.0001301
6.532e-05
0.00013353
0.000132618
0.000139137
7.47059e-05
0.000137745
0.000130448
0.000139972
7.32152e-05
0.00013612
0.00013723
0.000137769
8.43392e-05
0.000143659
0.000151098
0.000145043
9.83651e-05
0.000148224
0.000151325
0.000151891
0.000101467
0.000152881
0.000148172
0.000149491
0.000102098
0.000153766
0.000148799
0.000144708
0.000106903
0.000154898
0.000164871
0.000160291
0.000125411
0.000170037
0.000171034
0.000168221
0.00013607
0.000169338
0.000165953
0.000156528
0.000133968
0.000165132
0.000161318
0.000155162
0.000127804
0.000174415
0.00017476
0.000168327
0.000145879
0.000179665
0.000183215
0.000169696
0.000151511
0.000179068
0.000182045
0.000169622
0.000156309
0.000184453
0.000180299
0.000176623
0.000167719
0.000190431
0.000190672
0.000179202
0.000173482
0.000188576
0.000192025
0.000172775
0.00017083
0.000185513
0.000187525
0.000170034
0.000169246
0.000196521
0.000191149
0.000182706
0.000185188
0.000203261
0.000202438
0.000188087
0.00019694
0.000200245
0.000203816
0.000183813
0.000197097
0.000197138
0.00020175
0.000182946
0.000196223
0.000205857
0.000204574
0.000189033
0.000198396
0.000208791
0.000205857
0.000187325
0.000205966
0.000208348
0.000205677
0.000185042
0.000214911
0.000211294
0.000212072
0.00019386
0.000219328
0.000214517
0.000217868
0.000197829
0.000218384
0.000213478
0.000217542
0.000191508
0.000218344
0.000214461
0.00021067
0.000189201
0.000228589
0.000218855
0.000209368
0.000195354
0.00022982
0.000219826
0.000223037
0.000198581
0.000226874
0.000219587
0.000227407
0.000199539
0.00023126
0.000222557
0.000225719
0.000199753
0.000242698
0.000223884
0.000218491
0.000195824
0.000243206
0.00022237
0.000216297
0.000195268
0.000240113
0.000225099
0.000227371
0.00020237
0.00024107
0.000228172
0.000231657
0.000204046
0.00024102
0.000225381
0.000223563
0.00019807
0.000239955
0.000221118
0.0002206
0.000194968
0.000251875
0.000226752
0.000229262
0.000201623
0.000259296
0.000233292
0.000234281
0.000207416
0.000251072
0.000228933
0.000227957
0.000202797
0.000238013
0.000221045
0.000218555
0.000193338
0.000242684
0.000226753
0.000224367
0.000200523
2.2454e-06
2.05097e-06
2.43299e-06
2.2268e-06
2.35787e-06
2.26914e-06
1.82088e-06
1.7117e-06
1.67309e-06
1.91249e-06
2.24547e-06
1.93671e-06
2.26774e-06
2.4203e-06
2.91478e-06
2.24778e-06
2.24373e-06
2.20182e-06
1.58111e-06
1.95102e-06
1.54912e-06
1.95425e-06
2.22509e-06
2.19709e-06
2.2226e-06
2.0282e-06
2.18841e-06
2.01789e-06
1.89473e-06
1.88109e-06
1.92312e-06
2.26497e-06
2.2382e-06
3.83219e-06
2.16485e-06
4.7691e-06
2.34233e-06
2.19599e-06
2.18444e-06
1.54257e-06
1.95156e-06
1.53672e-06
1.94389e-06
2.19661e-06
2.17328e-06
2.18647e-06
2.01217e-06
2.24877e-06
1.99574e-06
1.94635e-06
1.91588e-06
2.09082e-06
2.23623e-06
2.19554e-06
5.31145e-06
1.95678e-06
5.31514e-06
2.30049e-06
2.18378e-06
2.20525e-06
1.53868e-06
1.94254e-06
1.54938e-06
1.93063e-06
2.17232e-06
2.14706e-06
2.27897e-06
1.98995e-06
2.43876e-06
1.95319e-06
2.16407e-06
1.92869e-06
2.44985e-06
2.19258e-06
2.15476e-06
4.80746e-06
1.83118e-06
2.85574e-06
2.18071e-06
2.2081e-06
2.28148e-06
1.55284e-06
1.92266e-06
1.56135e-06
1.89613e-06
2.14506e-06
2.11603e-06
2.51628e-06
1.94533e-06
2.74552e-06
1.96489e-06
2.54687e-06
1.91881e-06
2.95342e-06
2.15318e-06
2.13065e-06
2.37115e-06
1.76735e-06
1.59613e-06
2.19663e-06
2.28503e-06
2.4484e-06
1.56349e-06
1.88661e-06
1.5693e-06
1.86639e-06
2.11375e-06
2.08004e-06
2.83605e-06
1.97955e-06
3.25804e-06
2.0389e-06
3.22521e-06
1.89818e-06
4.75715e-06
2.12429e-06
2.1262e-06
1.48249e-06
1.72783e-06
1.36007e-06
2.68343e-06
2.44734e-06
2.60118e-06
1.57215e-06
1.86086e-06
1.57706e-06
1.84215e-06
2.07698e-06
2.04065e-06
3.44224e-06
2.09794e-06
4.00685e-06
2.40386e-06
5.50514e-06
1.85582e-06
7.86149e-06
2.1211e-06
2.23415e-06
1.35293e-06
1.69036e-06
1.342e-06
3.03848e-06
2.59104e-06
2.6544e-06
1.57794e-06
1.83807e-06
1.57316e-06
1.81621e-06
2.03694e-06
2.00019e-06
4.15982e-06
2.54661e-06
4.43e-06
3.10515e-06
8.53501e-06
1.78426e-06
8.56166e-06
2.2437e-06
2.39322e-06
1.33597e-06
1.64085e-06
1.30356e-06
2.80471e-06
2.60358e-06
2.25588e-06
1.56901e-06
1.80808e-06
1.54459e-06
1.81761e-06
1.99548e-06
1.96057e-06
4.40128e-06
3.32339e-06
3.62889e-06
3.91134e-06
7.23302e-06
1.6986e-06
3.96731e-06
2.39457e-06
2.44256e-06
1.29434e-06
1.57578e-06
1.28098e-06
2.14787e-06
2.21945e-06
2.08567e-06
1.53609e-06
1.82575e-06
1.51143e-06
1.85117e-06
1.95561e-06
1.92525e-06
3.36379e-06
4.06314e-06
2.95894e-06
4.09922e-06
3.23658e-06
1.62555e-06
1.98855e-06
2.41984e-06
2.16593e-06
1.28154e-06
1.49424e-06
1.28371e-06
1.88025e-06
2.07633e-06
2.06782e-06
1.50238e-06
1.87312e-06
1.47735e-06
1.97335e-06
1.92027e-06
1.90408e-06
2.96565e-06
3.78526e-06
3.1492e-06
2.79465e-06
1.78192e-06
1.54372e-06
1.46951e-06
2.14175e-06
1.96276e-06
1.28532e-06
1.40757e-06
1.293e-06
1.73753e-06
2.0686e-06
2.10387e-06
1.46722e-06
2.01766e-06
1.4315e-06
2.19254e-06
1.90036e-06
1.90179e-06
3.27035e-06
2.47833e-06
3.72405e-06
1.77986e-06
1.42422e-06
1.44787e-06
1.35013e-06
1.93852e-06
1.72259e-06
1.29643e-06
1.31349e-06
1.29642e-06
1.65497e-06
2.09283e-06
1.98544e-06
1.41775e-06
2.2622e-06
1.3577e-06
2.4864e-06
1.8968e-06
1.89753e-06
3.8169e-06
1.64023e-06
3.87828e-06
1.37553e-06
1.333e-06
1.35948e-06
1.29028e-06
1.70209e-06
1.55248e-06
1.29434e-06
1.22737e-06
1.27687e-06
1.56538e-06
1.95877e-06
1.74574e-06
1.33762e-06
2.56181e-06
1.27105e-06
2.77214e-06
1.88999e-06
1.88355e-06
3.57012e-06
1.33944e-06
2.52044e-06
1.22905e-06
1.27722e-06
1.29963e-06
1.24401e-06
1.53975e-06
1.47832e-06
1.27055e-06
1.132e-06
1.23597e-06
1.48051e-06
1.71611e-06
1.5109e-06
1.25081e-06
2.83383e-06
1.19438e-06
2.93977e-06
1.87166e-06
1.8471e-06
2.23836e-06
1.22791e-06
1.62583e-06
1.39162e-06
1.23116e-06
1.26296e-06
1.20517e-06
1.46713e-06
1.43386e-06
1.22172e-06
1.05301e-06
1.17389e-06
1.40062e-06
1.48274e-06
1.35765e-06
1.17592e-06
2.95016e-06
1.13173e-06
2.85142e-06
1.82712e-06
1.75094e-06
1.49434e-06
1.4316e-06
1.25637e-06
1.56924e-06
1.19031e-06
1.23725e-06
1.1591e-06
1.42098e-06
1.40189e-06
1.15328e-06
9.76305e-07
1.10547e-06
1.31647e-06
1.33082e-06
1.24388e-06
1.11853e-06
2.78536e-06
1.0763e-06
2.20699e-06
1.71147e-06
1.54741e-06
1.19712e-06
1.64474e-06
1.07679e-06
1.93093e-06
1.14134e-06
1.22116e-06
1.10529e-06
1.39596e-06
1.3977e-06
1.08575e-06
9.19904e-07
1.03442e-06
1.2351e-06
1.22075e-06
1.16257e-06
1.06227e-06
2.03157e-06
1.0296e-06
1.60724e-06
1.50248e-06
1.3503e-06
1.04492e-06
2.04624e-06
9.95497e-07
2.299e-06
1.09326e-06
1.24087e-06
1.07143e-06
1.39407e-06
1.41793e-06
1.02163e-06
8.93914e-07
1.02229e-06
1.18846e-06
1.15336e-06
1.13971e-06
1.02675e-06
1.50353e-06
1.01201e-06
1.29407e-06
1.32029e-06
1.27557e-06
9.83873e-07
2.34512e-06
9.82281e-07
2.37133e-06
1.06997e-06
1.30144e-06
1.03268e-06
1.40512e-06
1.38028e-06
1.0217e-06
8.93763e-07
9.87908e-07
1.11442e-06
1.15251e-06
1.2247e-06
1.03045e-06
1.22079e-06
1.05984e-06
1.17116e-06
1.25295e-06
1.35601e-06
9.91531e-07
2.33711e-06
1.0165e-06
2.13679e-06
1.05045e-06
1.42953e-06
1.17807e-06
1.37066e-06
1.43353e-06
1.00933e-06
9.82065e-07
1.14012e-06
1.38854e-06
1.2512e-06
1.5902e-06
1.09542e-06
1.17307e-06
1.2702e-06
1.14849e-06
1.4063e-06
1.53282e-06
1.0492e-06
2.01765e-06
1.21247e-06
1.795e-06
1.18832e-06
1.46252e-06
1.24241e-06
1.43688e-06
1.56666e-06
1.16031e-06
1.15242e-06
1.21304e-06
1.39895e-06
1.65781e-06
1.99585e-06
1.28726e-06
1.20581e-06
1.5212e-06
1.35149e-06
1.6568e-06
2.20326e-06
1.23462e-06
1.77255e-06
1.42611e-06
1.80707e-06
1.31039e-06
1.68597e-06
1.54452e-06
1.65734e-06
2.13952e-06
1.27831e-06
1.44879e-06
1.52159e-06
2.1558e-06
2.25698e-06
3.46399e-06
1.65794e-06
1.43087e-06
2.05553e-06
1.91663e-06
2.27206e-06
3.06234e-06
1.59332e-06
1.93534e-06
1.95697e-06
2.14568e-06
1.6225e-06
2.03623e-06
2.0813e-06
2.39851e-06
3.4068e-06
1.61362e-06
1.9166e-06
2.0648e-06
3.35867e-06
3.64047e-06
4.71974e-06
2.19311e-06
2.07194e-06
2.63333e-06
2.68618e-06
3.48843e-06
5.16148e-06
2.04928e-06
2.21457e-06
2.58405e-06
2.73264e-06
2.20696e-06
2.8166e-06
2.60114e-06
3.50395e-06
4.71475e-06
2.19964e-06
2.58055e-06
2.57083e-06
4.73407e-06
5.19662e-06
7.82007e-06
2.89934e-06
2.8649e-06
3.6819e-06
3.36763e-06
5.51464e-06
7.53143e-06
2.78689e-06
2.9427e-06
3.63749e-06
3.71927e-06
2.87931e-06
3.53439e-06
3.69953e-06
5.28396e-06
7.76512e-06
2.84098e-06
3.56248e-06
3.71871e-06
8.22334e-06
8.43092e-06
1.15346e-05
3.97369e-06
3.71857e-06
5.00295e-06
4.82855e-06
8.07593e-06
1.15818e-05
3.97849e-06
4.0506e-06
4.77455e-06
5.05161e-06
3.9371e-06
4.92374e-06
4.93049e-06
8.35203e-06
1.16008e-05
3.97086e-06
4.8927e-06
5.0875e-06
1.1338e-05
1.23464e-05
1.6608e-05
5.36347e-06
5.03153e-06
6.75475e-06
6.52481e-06
1.24994e-05
1.65044e-05
5.27347e-06
5.32767e-06
6.56876e-06
6.4965e-06
5.29887e-06
6.66687e-06
6.65872e-06
1.23657e-05
1.61266e-05
5.44614e-06
6.46173e-06
6.88747e-06
1.69886e-05
1.76677e-05
2.24593e-05
7.18505e-06
7.17215e-06
8.70843e-06
8.3731e-06
1.76658e-05
2.28892e-05
6.88469e-06
7.03448e-06
8.82329e-06
8.46958e-06
7.0886e-06
8.2127e-06
8.48272e-06
1.72663e-05
2.26925e-05
7.46982e-06
8.44599e-06
8.71727e-06
2.23281e-05
2.3703e-05
2.98792e-05
9.41414e-06
8.74074e-06
1.12378e-05
1.07269e-05
2.36964e-05
2.86831e-05
9.37704e-06
9.06501e-06
1.10459e-05
1.10477e-05
9.08151e-06
1.09097e-05
1.0963e-05
2.38539e-05
2.95828e-05
9.25721e-06
1.10998e-05
1.17467e-05
2.95587e-05
3.12474e-05
3.64743e-05
1.18695e-05
1.15979e-05
1.43095e-05
1.471e-05
3.06254e-05
3.84481e-05
1.19823e-05
1.16738e-05
1.41247e-05
1.37338e-05
1.18935e-05
1.45001e-05
1.38779e-05
3.10328e-05
3.63735e-05
1.28055e-05
1.37633e-05
1.42771e-05
3.74849e-05
3.78853e-05
4.42064e-05
1.49559e-05
1.54226e-05
1.71965e-05
1.54202e-05
3.95307e-05
4.18644e-05
1.45793e-05
1.44317e-05
1.79788e-05
1.6956e-05
1.4401e-05
1.6074e-05
1.72955e-05
3.75259e-05
4.33043e-05
1.45757e-05
1.6899e-05
1.7487e-05
4.32118e-05
4.57591e-05
5.17965e-05
1.86357e-05
1.64137e-05
2.2212e-05
2.20458e-05
4.30127e-05
5.09095e-05
1.93998e-05
1.8138e-05
2.25233e-05
2.14331e-05
1.81691e-05
2.18928e-05
2.09113e-05
4.50008e-05
5.1298e-05
1.84998e-05
2.1445e-05
2.14944e-05
5.08909e-05
5.29842e-05
5.62641e-05
2.21749e-05
2.34032e-05
2.46885e-05
2.47023e-05
5.30504e-05
5.84163e-05
2.3154e-05
2.21928e-05
2.51515e-05
2.47665e-05
2.20317e-05
2.49977e-05
2.497e-05
5.25824e-05
5.65901e-05
2.25691e-05
2.47149e-05
2.52546e-05
5.72419e-05
5.76002e-05
6.38722e-05
2.6805e-05
2.57884e-05
3.13177e-05
3.08477e-05
5.92446e-05
6.32902e-05
2.6609e-05
2.60387e-05
3.01167e-05
2.98007e-05
2.62206e-05
3.1083e-05
3.07532e-05
5.77879e-05
6.31719e-05
2.64221e-05
2.96742e-05
3.09102e-05
6.44432e-05
6.50546e-05
6.79757e-05
3.19903e-05
3.15141e-05
3.43847e-05
3.38272e-05
6.46663e-05
6.78024e-05
3.07699e-05
3.12189e-05
3.55274e-05
3.62728e-05
3.22693e-05
3.4057e-05
3.3582e-05
6.46952e-05
6.90288e-05
3.23967e-05
3.59979e-05
3.35867e-05
6.55497e-05
6.89605e-05
7.30156e-05
3.50644e-05
3.52678e-05
3.83455e-05
3.93838e-05
6.86531e-05
7.3177e-05
3.72767e-05
3.69883e-05
3.97687e-05
3.78133e-05
3.29546e-05
4.06965e-05
3.90068e-05
6.9744e-05
7.15188e-05
3.29794e-05
3.73834e-05
3.89753e-05
7.44448e-05
7.44054e-05
7.9722e-05
4.08551e-05
4.1224e-05
4.90199e-05
4.73091e-05
7.49224e-05
7.95622e-05
4.08395e-05
3.95976e-05
4.65494e-05
4.81443e-05
4.29489e-05
4.8659e-05
5.04984e-05
7.28708e-05
8.02176e-05
4.27971e-05
4.74783e-05
5.02045e-05
8.15433e-05
8.05774e-05
8.13486e-05
5.06901e-05
4.9051e-05
5.28027e-05
4.99935e-05
8.01297e-05
8.01123e-05
4.875e-05
5.05224e-05
5.09337e-05
5.35793e-05
5.13471e-05
4.88711e-05
5.16553e-05
8.13678e-05
8.26804e-05
5.10858e-05
5.31664e-05
5.14513e-05
8.04787e-05
8.16242e-05
8.58125e-05
5.23766e-05
4.9142e-05
5.17921e-05
5.64675e-05
8.07287e-05
8.87591e-05
5.03923e-05
5.30867e-05
5.56065e-05
5.4537e-05
5.10066e-05
5.80235e-05
5.03119e-05
8.2858e-05
8.4612e-05
5.06855e-05
5.36101e-05
5.09232e-05
8.45728e-05
8.80462e-05
9.33933e-05
5.69253e-05
6.07115e-05
6.85204e-05
6.76358e-05
9.02357e-05
9.19543e-05
5.86497e-05
5.68557e-05
6.68861e-05
6.4459e-05
5.60576e-05
6.74638e-05
6.85812e-05
8.6116e-05
9.22153e-05
5.5754e-05
6.4771e-05
6.72777e-05
9.37895e-05
9.39305e-05
9.44137e-05
6.99981e-05
6.88246e-05
7.16381e-05
6.86964e-05
9.21304e-05
9.32781e-05
6.89798e-05
6.67825e-05
7.26732e-05
7.22942e-05
6.98598e-05
6.82488e-05
7.10582e-05
9.31398e-05
9.53591e-05
6.90209e-05
7.13081e-05
7.12007e-05
9.34506e-05
9.46529e-05
9.56292e-05
7.13319e-05
6.77238e-05
6.86533e-05
7.79684e-05
9.39259e-05
0.00010046
7.29931e-05
7.30218e-05
7.11048e-05
7.22103e-05
7.0556e-05
7.42786e-05
6.88864e-05
9.57831e-05
9.65218e-05
7.07112e-05
7.2393e-05
7.01542e-05
9.74515e-05
9.67936e-05
0.000103676
7.23033e-05
8.23296e-05
8.39085e-05
8.76669e-05
0.000102231
0.000104478
7.15955e-05
7.31792e-05
8.07454e-05
8.13281e-05
7.47579e-05
8.62311e-05
8.92613e-05
9.71457e-05
0.000103209
7.50364e-05
8.20967e-05
8.60976e-05
0.000105951
0.000104609
0.000106775
8.52615e-05
8.79928e-05
8.76532e-05
8.77217e-05
0.000104623
0.000104727
8.33504e-05
8.42809e-05
8.97418e-05
8.89569e-05
9.0935e-05
8.6911e-05
9.19517e-05
0.000104559
0.000106965
8.76736e-05
8.86034e-05
8.91838e-05
0.000106307
0.000107425
0.000109889
8.91231e-05
8.66024e-05
9.30252e-05
8.91978e-05
0.000104948
0.000109169
9.1505e-05
8.94894e-05
9.43599e-05
9.37584e-05
9.18167e-05
9.00321e-05
8.8683e-05
0.000107354
0.000109913
8.84883e-05
9.32111e-05
8.82693e-05
0.00010722
0.000110309
0.000112768
9.37068e-05
9.39052e-05
9.82589e-05
0.000102283
0.000111082
0.000114605
9.44587e-05
9.5721e-05
9.72584e-05
9.79649e-05
8.83641e-05
0.000100824
9.83026e-05
0.000110899
0.000113136
9.16322e-05
9.78744e-05
9.84762e-05
0.000114224
0.000113824
0.000118291
0.000100221
0.000102463
0.000104715
0.000103902
0.000114903
0.000117057
9.94661e-05
9.85865e-05
0.000105203
0.000104617
0.000100555
0.000103106
0.0001072
0.000113509
0.000117536
0.000100235
0.000105231
0.000106755
0.000118711
0.000119057
0.00012227
0.000106413
0.000106278
0.000112237
0.000112944
0.000118326
0.000122582
0.000106808
0.000106377
0.000112253
0.000110602
0.000108736
0.000112898
0.000109638
0.000118689
0.000121783
0.00010845
0.000110699
0.000108419
0.00012052
0.000122741
0.000123102
0.000113504
0.000113803
0.000113147
0.00011298
0.000122924
0.000123471
0.000113388
0.000112462
0.000112957
0.000116353
0.000110638
0.000113076
0.000116844
0.000122432
0.000125051
0.000109145
0.000115775
0.00011624
0.000126092
0.000123237
0.000128285
0.000112768
0.000114353
0.00012018
0.000120978
0.000124041
0.000128469
0.000113499
0.000116945
0.000120153
0.000117848
0.000118617
0.000121186
0.00012091
0.000125365
0.000126351
0.000118256
0.000117699
0.000120695
0.000127287
0.000129482
0.000131467
0.000122592
0.000121719
0.000124464
0.000121048
0.000128805
0.000129097
0.000121934
0.000118661
0.000124206
0.000125562
0.000120536
0.00012136
0.000119025
0.000127026
0.000133387
0.000120259
0.000126679
0.000119802
0.000128509
0.00013179
0.000136116
0.000125028
0.000123213
0.000130573
0.000132004
0.000129827
0.000137157
0.000125451
0.000128429
0.000131459
0.000132833
0.000121329
0.000130848
0.000131803
0.000134768
0.000136637
0.000123029
0.00013267
0.000133549
0.000138215
0.000136969
0.000138028
0.000132543
0.000133973
0.00013568
0.000136308
0.000138166
0.000139277
0.000133009
0.000133048
0.000134723
0.000132501
0.000134739
0.000137458
0.000138502
0.000136537
0.000134314
0.000135638
0.000131606
0.000137011
0.000140051
0.000137932
0.00013778
0.000135848
0.000136206
0.000134217
0.000134549
0.000139229
0.000138416
0.000134496
0.000131516
0.000132855
0.000132816
0.000138562
0.000136688
0.00013794
0.000133697
0.000139072
0.000136829
0.000131462
0.000135247
0.000138214
0.000138655
0.000146176
0.000134157
0.000134844
0.000143306
0.000142626
0.000138701
0.000144326
0.000135346
0.000138259
0.000145252
0.000149581
0.000137199
0.000141291
0.000137444
0.000142086
0.000150036
0.000133939
0.000149418
0.000139849
0.000142689
0.000147181
0.000148302
0.000146118
0.000144782
0.000148999
0.000147298
0.00014544
0.00014736
0.00014751
0.000150902
0.000149599
0.000151116
0.00014195
0.000147363
0.000152036
0.000150327
0.000148733
0.000145121
0.000151813
0.000153536
0.000151559
0.000148249
0.000149308
0.000149119
0.000147875
0.000151323
0.000151623
0.000147566
0.00015021
0.000149439
0.000149931
0.000150414
0.000147159
0.000153218
0.000151877
0.000153683
0.000148375
0.00014574
0.000154085
0.000148755
0.000152691
0.000150051
0.000149554
0.000149122
0.000152023
0.00015282
0.000152073
0.000154238
0.000150672
0.000151147
0.000150612
0.000146472
0.00014972
0.000145279
0.000152309
0.00015393
0.000150237
0.000145366
0.000147277
0.000150647
0.000146495
0.000147632
0.000145482
0.000148938
0.00015495
0.00015151
0.000154106
0.000155655
0.000152074
0.000150891
0.00015133
0.000149091
0.000148526
0.000157482
0.000161042
0.000148648
0.000151573
0.000154881
0.000148929
0.000158904
0.000145179
0.000160817
0.000159565
0.000157251
0.000156635
0.000161993
0.000158756
0.00015489
0.000167276
0.000167797
0.000153082
0.000163097
0.000161113
0.000165074
0.00016877
0.000171258
0.000161369
0.00016839
0.000171384
0.000160715
0.000164523
0.000166104
0.000170507
0.000173884
0.00016821
0.000162319
0.000162388
0.000168871
0.000169646
0.000170209
0.000171249
0.000163667
0.000161979
0.000169844
0.000171676
0.000170793
0.000169786
0.000172765
0.000171297
0.000168186
0.000164459
0.000159586
0.000175777
0.000168211
0.000166423
0.000157499
0.000162098
0.000159761
0.000169951
0.000169566
0.000167601
0.000166867
0.000161303
0.000158215
0.00017027
0.000167104
0.000167198
0.000163874
0.000166137
0.000166507
0.000162138
0.000158887
0.000155708
0.000163454
0.000163035
0.00015873
0.000153887
0.000159373
0.000163259
0.000167118
0.000165553
0.000168011
0.000170459
0.000158255
0.000166117
0.000166753
0.00016246
0.000166696
0.000168804
0.000161759
0.000171101
0.000172368
0.000155706
0.000165819
0.00015783
0.000169545
0.000170871
0.000167055
0.000165102
0.000169102
0.000171762
0.000174103
0.000178498
0.000179264
0.000167573
0.000169453
0.000170968
0.000174329
0.000178917
0.000182492
0.000175165
0.000179127
0.000179185
0.000168157
0.000173054
0.000174753
0.000182595
0.000180654
0.000169872
0.000169189
0.000168779
0.000179222
0.000179687
0.000179175
0.000179663
0.000169335
0.00016821
0.000179808
0.000183275
0.000180174
0.000181405
0.000179613
0.000179622
0.000179185
0.000172877
0.000169552
0.000181221
0.00018249
0.000181931
0.000169297
0.000168757
0.000172616
0.000178903
0.000178934
0.000182506
0.000180938
0.000168035
0.00017242
0.00017983
0.000180814
0.000180966
0.000177678
0.000179305
0.000181469
0.000185105
0.000169127
0.00016893
0.000182375
0.00017959
0.000185974
0.000175497
0.000174111
0.000178642
0.00018517
0.000184398
0.000190301
0.000189907
0.000174117
0.000178296
0.000183847
0.000178738
0.000190535
0.000189965
0.000187664
0.000189746
0.000191031
0.000170021
0.000178445
0.000187628
0.000189329
0.000190125
0.00017937
0.000178646
0.000175979
0.000190879
0.000190709
0.000190603
0.000189567
0.000178232
0.000174906
0.000191249
0.000191478
0.000191811
0.000194079
0.000191911
0.000189941
0.000188747
0.000178951
0.000178885
0.000190898
0.000192875
0.000188049
0.000173543
0.000175369
0.000173017
0.000189008
0.000188228
0.000187025
0.000186249
0.000174435
0.000172571
0.000190098
0.000192994
0.000187744
0.000188142
0.000186797
0.000186785
0.000184415
0.000177934
0.000173535
0.000186552
0.000188052
0.000184494
0.000169978
0.000172934
0.0001793
0.000185925
0.000184974
0.000191258
0.000193255
0.000172648
0.000181503
0.00018699
0.000187586
0.000189446
0.000186322
0.00018287
0.000192485
0.000191235
0.000172922
0.000176228
0.000183048
0.000186715
0.000191102
0.000180585
0.000181037
0.00018543
0.000194776
0.00019693
0.000200945
0.000202054
0.000183156
0.000187134
0.000193192
0.000190622
0.00020069
0.000200588
0.000196052
0.000202278
0.000203069
0.000178385
0.000185959
0.000195776
0.000201002
0.000203052
0.000188129
0.000185476
0.000185114
0.000201785
0.000202952
0.000202494
0.000201363
0.000187028
0.000183205
0.000201794
0.000202111
0.000202934
0.00020403
0.000204152
0.000201836
0.000202849
0.000186327
0.000186189
0.000204083
0.000204326
0.000203324
0.000184345
0.000184944
0.000184721
0.000202115
0.000200096
0.000201388
0.000198132
0.000182647
0.000180918
0.000202811
0.00020376
0.000202039
0.000202297
0.000201494
0.000198018
0.000199169
0.00018585
0.00018465
0.000202105
0.000202226
0.000200019
0.00018249
0.000184772
0.000185964
0.000201209
0.000197461
0.000203128
0.000203649
0.000181069
0.000187563
0.000201839
0.000201936
0.000202902
0.000203271
0.000198852
0.000203855
0.000205355
0.000184591
0.000186548
0.000199759
0.000203645
0.000205186
0.000188846
0.000185905
0.000185973
0.000203406
0.000205358
0.000203989
0.000207855
0.000188291
0.000189712
0.000203185
0.000204043
0.000203726
0.000204924
0.000206308
0.000208556
0.000207443
0.000186752
0.000187235
0.000205998
0.000205759
0.000206785
0.00018781
0.000186182
0.000189141
0.00020465
0.000208109
0.000207342
0.000208265
0.000189572
0.000188989
0.000204335
0.000205044
0.000207344
0.000206203
0.000206614
0.000208614
0.000205482
0.000187118
0.000187443
0.000206018
0.000205854
0.000204954
0.000185318
0.000189663
0.000193468
0.000208669
0.000208027
0.000213219
0.000211155
0.000188786
0.000191521
0.000208635
0.000206719
0.000213178
0.000210634
0.000204536
0.000209435
0.000209956
0.000187487
0.000191338
0.000203976
0.000209335
0.000210185
0.000192538
0.000193771
0.000194681
0.000214006
0.000212224
0.000215668
0.000213841
0.000192047
0.000193358
0.000214111
0.000212613
0.000215792
0.000216251
0.000213149
0.00021394
0.000217372
0.000192364
0.000196207
0.00021357
0.000217194
0.000218042
0.000198107
0.000193931
0.000190788
0.000215071
0.000214002
0.000212136
0.000212615
0.000193069
0.000191609
0.000215725
0.000216863
0.000212732
0.00021805
0.000218601
0.000213738
0.000215255
0.000196296
0.000196011
0.000219328
0.000219956
0.000216108
0.000192491
0.000190248
0.000193279
0.000211834
0.000212472
0.000212988
0.000214199
0.000191215
0.000193752
0.000212409
0.00021627
0.00021227
0.000212255
0.000213373
0.000213281
0.000211202
0.000194923
0.000190311
0.000213709
0.000211362
0.000210788
0.000189237
0.000194497
0.000198887
0.000216194
0.000216292
0.000220748
0.000219333
0.000194491
0.00019705
0.000214782
0.000211832
0.000219476
0.000210306
0.000210438
0.000218232
0.000215306
0.000189878
0.000189372
0.000210064
0.000208398
0.000213031
0.000194464
0.000198962
0.00019649
0.000221677
0.00021984
0.000220616
0.000219891
0.000196993
0.000196368
0.000220154
0.000211792
0.000220477
0.000220186
0.000217372
0.000219865
0.000221006
0.000190137
0.00019843
0.000215424
0.000220319
0.00022118
0.000198399
0.000195396
0.000192284
0.000218261
0.000219007
0.00021514
0.000217864
0.0001961
0.000195628
0.000219
0.000222056
0.000216929
0.000224815
0.000221718
0.000219614
0.000222664
0.000199341
0.000202163
0.000222484
0.000226825
0.000224411
0.000199594
0.000191559
0.000197735
0.00021437
0.00021762
0.000218483
0.000220651
0.000195608
0.000198642
0.000216366
0.000225103
0.000220067
0.000224982
0.000222773
0.000221997
0.000223465
0.000202121
0.000201126
0.000224714
0.000227626
0.00022595
0.000200301
0.000199052
0.000203451
0.000222398
0.000222576
0.000227783
0.000225206
0.000198959
0.000200107
0.000222813
0.000224402
0.000226513
0.000221491
0.000223645
0.000224004
0.000221323
0.000200366
0.000196156
0.000225026
0.000219796
0.000220048
0.000196269
0.000203423
0.00020035
0.00022895
0.000225911
0.00022756
0.000224559
0.000199837
0.000198456
0.000227392
0.000220475
0.000225116
0.000219117
0.000220572
0.000222481
0.000219695
0.0001955
0.000193711
0.000219068
0.000216928
0.000217805
0.000194997
0.000199811
0.0001991
0.00022578
0.000223843
0.000223489
0.000222998
0.000198091
0.000199144
0.000224315
0.000218554
0.000223925
0.000224793
0.000219365
0.000223401
0.000225464
0.000193747
0.000201429
0.000217567
0.00022516
0.000225752
0.000201822
0.000199095
0.000200497
0.000223411
0.000223409
0.00022397
0.000225664
0.000199668
0.000202219
0.000224307
0.000226663
0.000225746
0.000229664
0.000227115
0.0002274
0.000229526
0.000202163
0.000205101
0.000227537
0.000230691
0.000230388
0.000204486
0.000200117
0.000197309
0.000224546
0.000226197
0.000223341
0.000226928
0.000202237
0.000200575
0.000226199
0.000230459
0.000222851
0.000224694
0.000230477
0.000227668
0.000226334
0.00020441
0.000198442
0.000231252
0.000225611
0.000225994
0.000199105
0.000196882
0.000196304
0.00022269
0.000225274
0.000221761
0.000222324
0.000199481
0.000196364
0.000222083
0.000223051
0.000220832
0.000221292
0.000224057
0.000221508
0.000220793
0.000197606
0.000195759
0.000223826
0.000221308
0.000220971
0.000195439
0.000196781
0.000205277
0.000221413
0.000222001
0.000229794
0.000223943
0.000195746
0.000199945
0.000221081
0.000220577
0.000231003
0.000228008
0.0002203
0.000222938
0.000223095
0.000195744
0.000202735
0.000220457
0.000226237
0.000223687
0.000200171
0.000206046
0.000209823
0.000232051
0.000227381
0.000235081
0.000232182
0.000201294
0.000206395
0.000233051
0.000230629
0.00023643
0.000233827
0.000227091
0.00023213
0.000233001
0.000203731
0.000207611
0.00022746
0.000233019
0.000233101
0.000207166
0.000208968
0.000199049
0.000236819
0.000233327
0.000228759
0.000232543
0.000206619
0.000203082
0.000238085
0.000235488
0.000227277
0.000230055
0.000234112
0.000232935
0.000235423
0.000207666
0.000201939
0.000234147
0.000232431
0.00023591
0.000205248
0.0001967
0.000190777
0.000224325
0.000228463
0.000217677
0.000221045
0.000201004
0.000195083
0.000222671
0.000225566
0.000216352
0.000218036
0.000230745
0.000221604
0.000220609
0.000199624
0.000192851
0.000231064
0.000219257
0.000220122
0.000194069
0.00018985
0.000200877
0.000216942
0.000220478
0.000223428
0.000224081
0.000194369
0.00020083
0.000215359
0.000217361
0.000224131
0.000222403
0.000219657
0.000224603
0.000220646
0.000191989
0.000199171
0.000219035
0.000220874
0.000219397
0.00019679
0.000205107
0.000227013
0.000226508
0.000204404
0.000227806
0.000226089
0.000244281
0.000240698
0.000239967
0.000222778
0.000203322
0.000221738
4.11604e-06
2.28213e-06
1.72649e-06
1.83428e-06
1.34221e-06
2.12603e-06
7.72608e-07
1.59875e-06
1.23607e-06
2.46815e-06
1.32048e-06
1.57285e-05
2.24567e-06
1.49673e-06
1.87697e-06
1.06883e-06
1.33304e-05
1.00768e-06
1.50819e-05
1.07742e-05
1.30019e-05
1.34105e-06
1.42917e-05
1.24897e-06
1.60465e-05
1.7128e-06
1.66571e-06
1.89522e-06
1.84421e-06
1.72275e-06
1.65443e-06
1.91436e-06
1.3465e-06
4.0336e-07
1.68939e-06
1.86427e-06
1.31838e-06
5.20754e-07
1.69442e-06
1.07659e-05
1.30159e-05
1.19268e-06
1.65039e-06
2.57546e-06
2.28801e-06
1.1927e-06
1.64746e-06
1.56807e-06
1.50806e-06
1.54801e-06
2.25794e-06
1.70771e-06
1.78152e-06
1.28203e-06
1.8305e-05
1.18246e-06
2.06763e-05
1.70201e-05
1.9231e-05
1.51918e-06
1.93762e-05
1.43804e-06
2.20464e-05
1.71967e-06
1.65116e-06
1.92574e-06
1.88325e-06
1.71074e-06
1.64886e-06
1.91364e-06