/*--------------------------------*- C++ -*----------------------------------*\
| =========                 |                                                 |
| \\      /  F ield         | OpenFOAM: The Open Source CFD Toolbox           |
|  \\    /   O peration     | Version:  v2012                                 |
|   \\  /    A nd           | Website:  www.openfoam.com                      |
|    \\/     M anipulation  |                                                 |
\*---------------------------------------------------------------------------*/
FoamFile
{
    version     2.0;
    format      ascii;
    class       volScalarField;
    location    "1462.5";
    object      epsilon;
}
// * * * * * * * * * * * * * * * * * * * * * * * * * * * * * * * * * * * * * //

dimensions      [0 2 -3 0 0 0 0];


internalField   nonuniform List<scalar> 
171728
(
1.40032e-09
3.92124e-09
4.77835e-09
5.16717e-09
1.35272e-09
3.55912e-09
4.36708e-09
4.66758e-09
1.27095e-09
3.20706e-09
3.95987e-09
4.22603e-09
1.20146e-09
2.90194e-09
3.60874e-09
3.84084e-09
1.14056e-09
2.64308e-09
3.31089e-09
3.50835e-09
1.08233e-09
2.42391e-09
3.06358e-09
3.21936e-09
1.04119e-09
2.24874e-09
2.86382e-09
2.97563e-09
9.83906e-10
2.12383e-09
2.69616e-09
2.77869e-09
9.41636e-10
2.03665e-09
2.54194e-09
2.62027e-09
9.09684e-10
1.97907e-09
2.43065e-09
2.50629e-09
8.79572e-10
1.96038e-09
2.34993e-09
2.42801e-09
8.50476e-10
1.97635e-09
2.30852e-09
2.38642e-09
8.21198e-10
2.03691e-09
2.31315e-09
2.38683e-09
7.91443e-10
2.16088e-09
2.38759e-09
2.43879e-09
7.63819e-10
2.36561e-09
2.53784e-09
2.56321e-09
7.36287e-10
2.67897e-09
2.81479e-09
2.80375e-09
7.10479e-10
3.15237e-09
3.27168e-09
3.24525e-09
6.89068e-10
3.89173e-09
4.00275e-09
4.01833e-09
6.73939e-10
4.99189e-09
5.09866e-09
5.33572e-09
6.62837e-10
6.64493e-09
6.76732e-09
7.6528e-09
6.59233e-10
9.09484e-09
9.16438e-09
1.15821e-08
6.64692e-10
1.25477e-08
1.26502e-08
1.82038e-08
6.86667e-10
1.74102e-08
1.75551e-08
2.87329e-08
7.30019e-10
2.41673e-08
2.42684e-08
4.56911e-08
8.05409e-10
3.29852e-08
3.31056e-08
7.39609e-08
9.06433e-10
4.42867e-08
4.45551e-08
1.09321e-07
1.0932e-09
5.85138e-08
5.82044e-08
2.00722e-07
1.35132e-09
7.44143e-08
7.46852e-08
1.79814e-07
1.69949e-09
9.53156e-08
9.52968e-08
3.01329e-07
2.26076e-09
1.18184e-07
1.18353e-07
4.084e-07
2.94097e-09
1.43275e-07
1.44401e-07
4.53552e-07
3.94248e-09
1.74717e-07
1.73574e-07
5.27736e-07
5.24872e-09
2.03343e-07
2.05562e-07
5.74683e-07
7.03707e-09
2.40913e-07
2.4006e-07
6.45149e-07
9.19922e-09
2.80385e-07
2.82325e-07
7.13949e-07
1.21467e-08
3.19189e-07
3.20136e-07
7.56763e-07
1.6534e-08
3.64013e-07
3.63611e-07
7.99545e-07
2.02881e-08
4.06934e-07
4.11719e-07
8.43372e-07
2.65821e-08
4.55265e-07
4.5227e-07
8.78595e-07
3.62543e-08
5.02573e-07
5.06126e-07
9.10011e-07
4.40054e-08
5.5069e-07
5.53359e-07
9.48339e-07
5.06422e-08
6.00977e-07
5.95428e-07
9.79862e-07
6.39826e-08
6.49556e-07
6.57241e-07
1.00344e-06
7.72979e-08
6.96735e-07
6.9869e-07
1.03269e-06
8.90459e-08
7.39663e-07
7.37246e-07
1.06547e-06
1.08551e-07
7.86073e-07
7.90292e-07
1.09595e-06
1.28613e-07
8.24219e-07
8.26152e-07
1.11747e-06
1.4755e-07
8.68261e-07
8.63364e-07
1.14003e-06
1.7618e-07
9.0442e-07
9.0751e-07
1.16992e-06
1.96909e-07
9.3779e-07
9.37138e-07
1.19186e-06
2.22098e-07
9.70718e-07
9.68772e-07
1.2162e-06
2.58726e-07
1.00142e-06
1.00293e-06
1.24021e-06
2.88013e-07
1.02979e-06
1.03021e-06
1.26057e-06
3.16014e-07
1.04232e-06
1.04698e-06
1.27763e-06
3.42136e-07
1.07793e-06
1.06797e-06
1.29339e-06
3.7973e-07
1.1085e-06
1.11017e-06
1.3238e-06
4.2133e-07
1.11336e-06
1.13203e-06
1.33902e-06
4.41948e-07
1.12339e-06
1.12618e-06
1.33622e-06
4.59786e-07
1.15102e-06
1.13776e-06
1.35113e-06
4.97264e-07
1.18382e-06
1.17641e-06
1.38654e-06
5.37326e-07
1.19589e-06
1.20563e-06
1.40603e-06
5.56289e-07
1.19821e-06
1.20371e-06
1.4045e-06
5.65043e-07
1.20704e-06
1.20641e-06
1.41035e-06
5.89572e-07
1.22983e-06
1.22984e-06
1.4205e-06
6.26093e-07
1.24854e-06
1.24692e-06
1.43556e-06
6.48428e-07
1.25733e-06
1.25623e-06
1.45824e-06
6.60116e-07
1.26677e-06
1.26945e-06
1.46802e-06
6.7691e-07
1.27037e-06
1.27483e-06
1.46317e-06
6.90983e-07
1.27743e-06
1.27498e-06
1.47202e-06
7.02752e-07
1.2927e-06
1.28302e-06
1.4884e-06
7.20866e-07
1.29673e-06
1.2942e-06
1.4909e-06
7.36346e-07
1.29436e-06
1.30761e-06
1.4952e-06
7.49449e-07
1.30803e-06
1.31435e-06
1.51176e-06
7.61545e-07
1.31687e-06
1.30627e-06
1.51548e-06
7.66208e-07
1.30735e-06
1.2975e-06
1.49765e-06
7.6953e-07
1.30752e-06
1.31144e-06
1.50299e-06
7.87712e-07
1.3239e-06
1.32973e-06
1.53143e-06
8.02014e-07
1.32871e-06
1.32895e-06
1.54194e-06
8.00928e-07
1.32072e-06
1.3205e-06
1.5272e-06
7.99331e-07
1.31748e-06
1.31765e-06
1.50994e-06
8.0401e-07
1.31793e-06
1.31478e-06
1.51226e-06
8.07586e-07
1.3196e-06
1.31517e-06
1.5338e-06
8.15287e-07
1.32481e-06
1.32545e-06
1.54868e-06
8.19896e-07
1.32127e-06
1.32548e-06
1.53459e-06
8.13792e-07
1.31079e-06
1.31107e-06
1.51149e-06
8.05981e-07
1.30672e-06
1.30628e-06
1.51489e-06
8.09853e-07
1.31083e-06
1.31197e-06
1.53467e-06
8.17153e-07
1.31269e-06
1.30741e-06
1.53363e-06
8.10592e-07
1.29625e-06
1.29017e-06
1.50683e-06
7.94853e-07
1.28065e-06
1.2829e-06
1.49234e-06
7.90466e-07
1.28795e-06
1.29623e-06
1.51775e-06
8.01959e-07
1.29819e-06
1.30174e-06
1.53682e-06
8.01392e-07
1.27719e-06
1.27295e-06
1.50299e-06
7.78232e-07
1.24726e-06
1.24551e-06
1.45744e-06
7.4848e-07
1.19536e-06
1.19724e-06
1.43498e-06
5.123e-09
4.13738e-09
4.86626e-09
4.87943e-09
3.77516e-09
4.52418e-09
1.36817e-09
1.52427e-09
1.81371e-09
1.5027e-09
3.62728e-09
4.19488e-09
5.14302e-09
4.06863e-09
4.02816e-09
5.19381e-09
5.10233e-09
4.65724e-09
6.31734e-09
5.57053e-09
5.54209e-09
5.43793e-09
4.85291e-09
4.44757e-09
3.36484e-09
6.91765e-09
3.20552e-09
6.73136e-09
5.35785e-09
3.65619e-09
5.09298e-09
5.10877e-09
4.6879e-09
4.27159e-09
4.47775e-09
3.92196e-09
4.70255e-09
4.62654e-09
4.19877e-09
5.24152e-09
5.38748e-09
4.45435e-09
5.27063e-09
4.40464e-09
4.09398e-09
3.14378e-09
6.66044e-09
2.96986e-09
6.4778e-09
4.97822e-09
3.29e-09
4.59818e-09
4.61553e-09
4.29576e-09
3.80217e-09
4.05651e-09
3.50515e-09
4.25454e-09
4.17283e-09
3.78331e-09
4.232e-09
5.23686e-09
3.66263e-09
5.15846e-09
4.045e-09
3.78339e-09
2.91552e-09
6.43779e-09
2.75595e-09
6.37729e-09
4.46124e-09
2.97339e-09
4.04453e-09
4.2392e-09
4.03109e-09
3.4282e-09
3.69161e-09
3.24636e-09
3.86672e-09
3.7607e-09
3.41107e-09
3.50175e-09
5.13939e-09
3.08818e-09
5.08672e-09
3.74144e-09
3.55813e-09
2.70425e-09
6.37208e-09
2.55683e-09
6.39703e-09
3.9128e-09
2.70415e-09
3.56174e-09
3.99259e-09
3.88533e-09
3.19673e-09
3.38073e-09
3.0587e-09
3.52993e-09
3.39392e-09
3.10927e-09
2.97142e-09
5.07749e-09
2.68065e-09
5.07611e-09
3.52484e-09
3.38978e-09
2.51108e-09
6.43088e-09
2.38629e-09
6.64196e-09
3.46022e-09
2.47443e-09
3.20541e-09
3.86475e-09
3.83726e-09
3.01374e-09
3.12073e-09
2.88295e-09
3.23708e-09
3.09825e-09
2.8693e-09
2.60109e-09
5.08271e-09
2.41207e-09
5.12222e-09
3.36561e-09
3.26282e-09
2.34903e-09
6.75309e-09
2.25087e-09
7.16082e-09
3.13496e-09
2.28826e-09
2.95605e-09
3.83168e-09
3.85275e-09
2.84198e-09
2.90969e-09
2.72786e-09
2.98878e-09
2.8626e-09
2.66677e-09
2.36709e-09
5.14177e-09
2.27786e-09
5.20503e-09
3.2537e-09
3.16031e-09
2.22274e-09
7.31242e-09
2.15099e-09
7.69817e-09
2.90603e-09
2.15e-09
2.78267e-09
3.84823e-09
3.85327e-09
2.69245e-09
2.73627e-09
2.59416e-09
2.78813e-09
2.66218e-09
2.50556e-09
2.25941e-09
5.21466e-09
2.2177e-09
5.13502e-09
3.15468e-09
3.0074e-09
2.13103e-09
7.76074e-09
2.08462e-09
7.66694e-09
2.74966e-09
2.05624e-09
2.66797e-09
3.84214e-09
3.46566e-09
2.56376e-09
2.57801e-09
2.48792e-09
2.62491e-09
2.50524e-09
2.38906e-09
2.20703e-09
5.02404e-09
2.19309e-09
4.55101e-09
2.98638e-09
2.66334e-09
2.07251e-09
7.30717e-09
2.05074e-09
5.91383e-09
2.64614e-09
1.98898e-09
2.59448e-09
3.394e-09
3.00942e-09
2.46666e-09
2.45418e-09
2.41754e-09
2.5064e-09
2.3915e-09
2.30788e-09
2.1936e-09
4.3569e-09
2.20575e-09
3.81932e-09
2.65158e-09
2.51572e-09
2.04723e-09
5.50107e-09
2.04824e-09
4.56848e-09
2.58547e-09
1.96121e-09
2.56703e-09
2.99057e-09
2.69608e-09
2.40501e-09
2.3676e-09
2.38509e-09
2.42459e-09
2.31343e-09
2.26255e-09
2.21353e-09
3.67171e-09
2.25095e-09
3.30495e-09
2.51542e-09
2.36492e-09
2.05198e-09
4.33481e-09
2.07777e-09
3.67361e-09
2.56785e-09
1.96988e-09
2.58492e-09
2.67583e-09
2.41287e-09
2.38298e-09
2.31682e-09
2.38892e-09
2.37712e-09
2.27413e-09
2.25724e-09
2.26863e-09
3.19813e-09
2.33773e-09
2.92281e-09
2.3658e-09
2.25155e-09
2.09125e-09
3.45856e-09
2.15122e-09
2.95531e-09
2.59951e-09
2.02092e-09
2.66472e-09
2.40562e-09
2.27572e-09
2.39525e-09
2.3073e-09
2.42718e-09
2.36796e-09
2.27793e-09
2.30054e-09
2.36625e-09
2.84198e-09
2.47755e-09
2.65943e-09
2.26215e-09
2.23422e-09
2.17718e-09
2.84261e-09
2.27583e-09
2.64687e-09
2.69431e-09
2.12867e-09
2.81509e-09
2.2839e-09
2.23299e-09
2.44412e-09
2.36187e-09
2.51049e-09
2.40716e-09
2.33394e-09
2.40723e-09
2.52442e-09
2.63075e-09
2.69479e-09
2.61951e-09
2.26407e-09
2.31772e-09
2.31468e-09
2.62958e-09
2.46505e-09
2.63426e-09
2.86542e-09
2.31315e-09
3.05805e-09
2.25701e-09
2.29155e-09
2.54122e-09
2.49103e-09
2.66496e-09
2.50963e-09
2.46235e-09
2.61309e-09
2.7646e-09
2.63347e-09
3.01799e-09
2.80015e-09
2.36974e-09
2.4991e-09
2.52769e-09
2.64853e-09
2.76016e-09
2.81086e-09
3.13132e-09
2.59419e-09
3.40528e-09
2.33983e-09
2.47678e-09
2.71594e-09
2.73049e-09
2.91331e-09
2.71302e-09
2.70632e-09
2.98629e-09
3.12793e-09
2.89122e-09
3.51073e-09
3.22424e-09
2.59001e-09
2.85591e-09
2.85798e-09
2.89805e-09
3.20854e-09
3.24511e-09
3.50977e-09
3.02056e-09
3.9146e-09
2.56611e-09
2.82974e-09
2.99834e-09
3.13719e-09
3.31394e-09
3.09135e-09
3.13825e-09
3.6383e-09
3.66738e-09
3.3674e-09
4.27656e-09
3.93082e-09
3.00632e-09
3.50122e-09
3.35143e-09
3.38413e-09
3.87732e-09
3.92477e-09
4.07699e-09
3.68353e-09
4.69875e-09
2.97898e-09
3.45963e-09
3.44355e-09
3.79382e-09
3.9438e-09
3.75956e-09
3.89103e-09
4.76934e-09
4.51053e-09
4.15424e-09
5.38033e-09
4.98838e-09
3.756e-09
4.62454e-09
4.09614e-09
4.14432e-09
4.88304e-09
4.9594e-09
4.95048e-09
4.6724e-09
5.90764e-09
3.70464e-09
4.54474e-09
4.13699e-09
4.78223e-09
4.90543e-09
4.91324e-09
5.18904e-09
6.79238e-09
5.73654e-09
5.32754e-09
7.01864e-09
6.55622e-09
5.05741e-09
6.61309e-09
5.20562e-09
5.28719e-09
6.42893e-09
6.48815e-09
6.29427e-09
6.18444e-09
7.64327e-09
4.95641e-09
6.48138e-09
5.20397e-09
6.28628e-09
6.34148e-09
6.95131e-09
7.48894e-09
1.02464e-08
7.48315e-09
7.02994e-09
9.3226e-09
8.84232e-09
7.30232e-09
9.98066e-09
6.88728e-09
6.97385e-09
8.64815e-09
8.73606e-09
8.20009e-09
8.3901e-09
1.02312e-08
7.18959e-09
9.81485e-09
6.7978e-09
8.46752e-09
8.48676e-09
1.04277e-08
1.14522e-08
1.58118e-08
1.00767e-08
9.56629e-09
1.24468e-08
1.20915e-08
1.1124e-08
1.58323e-08
9.35431e-09
9.45877e-09
1.17607e-08
1.19841e-08
1.09577e-08
1.15492e-08
1.34824e-08
1.09178e-08
1.56853e-08
9.21347e-09
1.1666e-08
1.16109e-08
1.62495e-08
1.76914e-08
2.66771e-08
1.34826e-08
1.3114e-08
1.70077e-08
1.66392e-08
1.77693e-08
2.59553e-08
1.27866e-08
1.2995e-08
1.63976e-08
1.66236e-08
1.44448e-08
1.60773e-08
1.76358e-08
1.75742e-08
2.56317e-08
1.25958e-08
1.6195e-08
1.60747e-08
2.63026e-08
2.92089e-08
4.15925e-08
1.82009e-08
1.80046e-08
2.30833e-08
2.30106e-08
2.86552e-08
4.1841e-08
1.77001e-08
1.79703e-08
2.24724e-08
2.29077e-08
1.87765e-08
2.22047e-08
2.36485e-08
2.82853e-08
4.14929e-08
1.73978e-08
2.23738e-08
2.22143e-08
4.06626e-08
4.62257e-08
6.74599e-08
2.50068e-08
2.50093e-08
3.18819e-08
3.1561e-08
4.65938e-08
6.77465e-08
2.42861e-08
2.48993e-08
3.10433e-08
3.13866e-08
2.56995e-08
3.06785e-08
3.10771e-08
4.63136e-08
6.63681e-08
2.39221e-08
3.07387e-08
3.02787e-08
6.91471e-08
7.37482e-08
9.99298e-08
3.42986e-08
3.38435e-08
4.18648e-08
4.18819e-08
7.36318e-08
9.99189e-08
3.35071e-08
3.36972e-08
4.12307e-08
4.19172e-08
3.35176e-08
4.11829e-08
4.30624e-08
7.19117e-08
9.92722e-08
3.29055e-08
4.13213e-08
4.31325e-08
9.8065e-08
1.08046e-07
1.47638e-07
4.50685e-08
4.49756e-08
5.52102e-08
5.54713e-08
1.08272e-07
1.47592e-07
4.44741e-08
4.52372e-08
5.47742e-08
5.56444e-08
4.68843e-08
5.46675e-08
6.12602e-08
1.08017e-07
1.46711e-07
4.78005e-08
5.46115e-08
6.18913e-08
1.90716e-07
1.57256e-07
2.04881e-07
5.87376e-08
5.9399e-08
7.17449e-08
7.12455e-08
1.58662e-07
2.05495e-07
5.83172e-08
5.93555e-08
7.12558e-08
7.18635e-08
6.41807e-08
7.01574e-08
6.59408e-08
1.57053e-07
2.03741e-07
6.31192e-08
7.03074e-08
6.36632e-08
1.79802e-07
2.19281e-07
2.74543e-07
7.64181e-08
7.5602e-08
9.05396e-08
9.05313e-08
2.17534e-07
2.71819e-07
7.59036e-08
7.62301e-08
8.97454e-08
9.07897e-08
6.79296e-08
8.9677e-08
9.08169e-08
2.16218e-07
2.71023e-07
6.72391e-08
8.97461e-08
9.521e-08
2.6246e-07
2.87911e-07
3.48924e-07
9.57648e-08
9.59353e-08
1.13061e-07
1.12843e-07
2.87314e-07
3.51773e-07
9.49808e-08
9.62419e-08
1.12511e-07
1.13551e-07
1.00211e-07
1.12504e-07
1.20609e-07
2.86008e-07
3.50123e-07
1.05732e-07
1.12461e-07
1.24798e-07
3.99897e-07
3.65568e-07
4.29305e-07
1.19353e-07
1.18607e-07
1.38409e-07
1.37085e-07
3.66785e-07
4.24225e-07
1.18739e-07
1.19614e-07
1.38094e-07
1.39097e-07
1.2461e-07
1.36286e-07
1.39178e-07
3.65979e-07
4.26925e-07
1.297e-07
1.37479e-07
1.49262e-07
4.39945e-07
4.44738e-07
5.02469e-07
1.4517e-07
1.44138e-07
1.67159e-07
1.67598e-07
4.39991e-07
5.03617e-07
1.44798e-07
1.45931e-07
1.65933e-07
1.67083e-07
1.45913e-07
1.66947e-07
1.69628e-07
4.42826e-07
5.01391e-07
1.57419e-07
1.65959e-07
1.83006e-07
5.13325e-07
5.18372e-07
5.73632e-07
1.74921e-07
1.75289e-07
1.99238e-07
1.96927e-07
5.20322e-07
5.70419e-07
1.73589e-07
1.74513e-07
1.98418e-07
1.99416e-07
1.76862e-07
1.95925e-07
1.95121e-07
5.16686e-07
5.70862e-07
1.88678e-07
1.97597e-07
1.9861e-07
5.62325e-07
5.88467e-07
6.37038e-07
2.07225e-07
2.04424e-07
2.33445e-07
2.31507e-07
5.8365e-07
6.32956e-07
2.0655e-07
2.0795e-07
2.32679e-07
2.32606e-07
2.01881e-07
2.30493e-07
2.29368e-07
5.858e-07
6.34655e-07
2.04796e-07
2.30423e-07
2.33307e-07
6.28348e-07
6.51276e-07
6.95079e-07
2.433e-07
2.41703e-07
2.72328e-07
2.71791e-07
6.48224e-07
6.95124e-07
2.42338e-07
2.41731e-07
2.71219e-07
2.72381e-07
2.40581e-07
2.70919e-07
2.75071e-07
6.487e-07
6.94874e-07
2.45257e-07
2.72005e-07
2.8433e-07
7.00804e-07
7.07244e-07
7.42919e-07
2.81408e-07
2.81181e-07
3.09342e-07
3.09454e-07
7.0805e-07
7.43844e-07
2.80902e-07
2.82521e-07
3.09195e-07
3.11979e-07
2.85265e-07
3.08717e-07
3.13261e-07
7.08453e-07
7.43829e-07
2.95326e-07
3.11006e-07
3.19096e-07
7.461e-07
7.56237e-07
7.97126e-07
3.20439e-07
3.20089e-07
3.60695e-07
3.549e-07
7.55536e-07
7.8932e-07
3.19284e-07
3.2137e-07
3.576e-07
3.5331e-07
3.23158e-07
3.53066e-07
3.55661e-07
7.54805e-07
7.89917e-07
3.26685e-07
3.51229e-07
3.52638e-07
7.88144e-07
8.08552e-07
8.27377e-07
3.7286e-07
3.66165e-07
3.97894e-07
3.9744e-07
8.0089e-07
8.31424e-07
3.70738e-07
3.66422e-07
3.99664e-07
4.03827e-07
3.6604e-07
3.95492e-07
3.99641e-07
8.02079e-07
8.33665e-07
3.62125e-07
4.00767e-07
3.9672e-07
8.324e-07
8.35591e-07
8.65856e-07
4.06484e-07
4.0781e-07
4.43696e-07
4.4173e-07
8.41577e-07
8.68401e-07
4.07852e-07
4.14099e-07
4.39175e-07
4.42876e-07
4.12118e-07
4.43369e-07
4.49732e-07
8.42765e-07
8.65272e-07
4.09449e-07
4.41585e-07
4.46211e-07
8.70042e-07
8.77611e-07
9.09826e-07
4.59069e-07
4.54107e-07
5.07405e-07
4.94317e-07
8.77997e-07
9.03791e-07
4.52834e-07
4.53464e-07
4.98408e-07
4.9201e-07
4.60797e-07
4.90931e-07
4.89559e-07
8.75004e-07
9.05187e-07
4.5698e-07
4.91295e-07
4.87614e-07
9.0071e-07
9.19293e-07
9.38659e-07
5.22057e-07
5.07565e-07
5.50904e-07
5.43324e-07
9.13365e-07
9.38089e-07
5.13913e-07
5.06556e-07
5.49091e-07
5.44406e-07
5.00139e-07
5.38271e-07
5.39017e-07
9.15644e-07
9.38168e-07
4.99354e-07
5.43882e-07
5.40233e-07
9.38436e-07
9.45793e-07
9.65962e-07
5.58641e-07
5.54546e-07
5.86061e-07
5.88265e-07
9.46462e-07
9.67643e-07
5.57744e-07
5.53558e-07
5.85507e-07
5.8329e-07
5.53383e-07
5.88666e-07
5.94512e-07
9.44828e-07
9.641e-07
5.54332e-07
5.8271e-07
5.94473e-07
9.72622e-07
9.74594e-07
1.00044e-06
5.97762e-07
5.99742e-07
6.3877e-07
6.38314e-07
9.75831e-07
9.99359e-07
5.97344e-07
5.96344e-07
6.3981e-07
6.42894e-07
6.06538e-07
6.37016e-07
6.37187e-07
9.73364e-07
1.00378e-06
6.06359e-07
6.4183e-07
6.3742e-07
9.9636e-07
1.0091e-06
1.02838e-06
6.52904e-07
6.52186e-07
6.87071e-07
6.90786e-07
1.0079e-06
1.0304e-06
6.5369e-07
6.57931e-07
6.87643e-07
6.88921e-07
6.46542e-07
6.86041e-07
6.80546e-07
1.01292e-06
1.02969e-06
6.46868e-07
6.90673e-07
6.76955e-07
1.02452e-06
1.03482e-06
1.05247e-06
6.9644e-07
7.01429e-07
7.26206e-07
7.30391e-07
1.03761e-06
1.05554e-06
6.9683e-07
6.96599e-07
7.24322e-07
7.25082e-07
6.93853e-07
7.28188e-07
7.33594e-07
1.0351e-06
1.05239e-06
6.88841e-07
7.25608e-07
7.30812e-07
1.05722e-06
1.05994e-06
1.08478e-06
7.37617e-07
7.41058e-07
7.75851e-07
7.75926e-07
1.06252e-06
1.08315e-06
7.35357e-07
7.37476e-07
7.74958e-07
7.77605e-07
7.45902e-07
7.75347e-07
7.77663e-07
1.06045e-06
1.08593e-06
7.45509e-07
7.77174e-07
7.87229e-07
1.08889e-06
1.09243e-06
1.10962e-06
7.87353e-07
7.86989e-07
8.14372e-07
8.14485e-07
1.09052e-06
1.10987e-06
7.8766e-07
7.9026e-07
8.18732e-07
8.17631e-07
7.87383e-07
8.14236e-07
8.15247e-07
1.09366e-06
1.11039e-06
7.98507e-07
8.18708e-07
8.21302e-07
1.11205e-06
1.1156e-06
1.13499e-06
8.22406e-07
8.23807e-07
8.52874e-07
8.5701e-07
1.11625e-06
1.13528e-06
8.27256e-07
8.25466e-07
8.55588e-07
8.55146e-07
8.23884e-07
8.57424e-07
8.54383e-07
1.11597e-06
1.1337e-06
8.27148e-07
8.5253e-07
8.50471e-07
1.13317e-06
1.14264e-06
1.16569e-06
8.65319e-07
8.68513e-07
8.99522e-07
8.99912e-07
1.14245e-06
1.16487e-06
8.67022e-07
8.66772e-07
8.99773e-07
9.02849e-07
8.66437e-07
8.96399e-07
8.99166e-07
1.1409e-06
1.1652e-06
8.61136e-07
8.97064e-07
8.94673e-07
1.16291e-06
1.17154e-06
1.18187e-06
9.07214e-07
9.08842e-07
9.25107e-07
9.33919e-07
1.17166e-06
1.18773e-06
9.07341e-07
9.12957e-07
9.23862e-07
9.31221e-07
9.07016e-07
9.29104e-07
9.26453e-07
1.17259e-06
1.18825e-06
9.05288e-07
9.30519e-07
9.30651e-07
1.18637e-06
1.1869e-06
1.20666e-06
9.32568e-07
9.42524e-07
9.61651e-07
9.65663e-07
1.19321e-06
1.21145e-06
9.30405e-07
9.36189e-07
9.57679e-07
9.56274e-07
9.3436e-07
9.63042e-07
9.62478e-07
1.19285e-06
1.20548e-06
9.38189e-07
9.60358e-07
9.63724e-07
1.20966e-06
1.21396e-06
1.23618e-06
9.716e-07
9.72421e-07
9.9715e-07
9.92564e-07
1.21791e-06
1.23401e-06
9.6756e-07
9.65154e-07
9.96002e-07
9.9777e-07
9.71472e-07
9.93295e-07
9.94291e-07
1.21128e-06
1.2349e-06
9.72048e-07
9.95128e-07
9.94201e-07
1.23478e-06
1.2421e-06
1.25664e-06
1.00333e-06
9.9963e-07
1.02115e-06
1.01933e-06
1.23914e-06
1.25218e-06
1.00399e-06
1.00947e-06
1.02506e-06
1.0348e-06
1.00079e-06
1.02463e-06
1.02309e-06
1.24283e-06
1.2619e-06
1.00072e-06
1.02356e-06
1.02244e-06
1.25528e-06
1.26145e-06
1.27003e-06
1.02713e-06
1.02385e-06
1.0418e-06
1.03503e-06
1.25667e-06
1.26406e-06
1.03191e-06
1.03889e-06
1.0469e-06
1.04178e-06
1.03069e-06
1.03769e-06
1.04847e-06
1.26625e-06
1.26853e-06
1.02995e-06
1.04443e-06
1.04824e-06
1.27392e-06
1.27326e-06
1.2844e-06
1.04544e-06
1.04339e-06
1.0635e-06
1.07827e-06
1.26893e-06
1.29328e-06
1.04938e-06
1.04151e-06
1.0591e-06
1.04991e-06
1.05141e-06
1.06813e-06
1.06402e-06
1.26993e-06
1.27588e-06
1.05156e-06
1.05958e-06
1.06335e-06
1.28725e-06
1.29138e-06
1.31751e-06
1.07289e-06
1.08969e-06
1.10271e-06
1.11407e-06
1.30195e-06
1.33049e-06
1.06689e-06
1.06175e-06
1.09654e-06
1.10129e-06
1.07206e-06
1.1032e-06
1.09981e-06
1.28253e-06
1.31548e-06
1.07056e-06
1.09995e-06
1.09778e-06
1.31668e-06
1.32478e-06
1.33565e-06
1.11115e-06
1.11545e-06
1.12069e-06
1.10752e-06
1.33479e-06
1.32712e-06
1.10613e-06
1.11359e-06
1.12572e-06
1.13762e-06
1.10821e-06
1.11295e-06
1.12351e-06
1.32561e-06
1.35101e-06
1.1065e-06
1.13085e-06
1.12441e-06
1.3371e-06
1.33715e-06
1.33589e-06
1.12025e-06
1.10596e-06
1.12022e-06
1.10867e-06
1.32788e-06
1.32082e-06
1.12737e-06
1.13823e-06
1.12784e-06
1.12817e-06
1.12429e-06
1.11952e-06
1.12384e-06
1.35365e-06
1.34161e-06
1.12593e-06
1.12721e-06
1.12522e-06
1.33447e-06
1.33896e-06
1.34855e-06
1.12331e-06
1.11478e-06
1.13995e-06
1.14004e-06
1.32405e-06
1.34362e-06
1.12916e-06
1.12557e-06
1.14034e-06
1.12522e-06
1.12469e-06
1.14272e-06
1.13954e-06
1.34217e-06
1.33498e-06
1.12534e-06
1.13036e-06
1.13754e-06
1.34486e-06
1.35371e-06
1.37494e-06
1.14689e-06
1.15017e-06
1.17151e-06
1.18105e-06
1.35245e-06
1.38846e-06
1.14505e-06
1.13107e-06
1.16463e-06
1.16375e-06
1.14718e-06
1.17665e-06
1.17323e-06
1.33948e-06
1.36635e-06
1.14511e-06
1.16635e-06
1.17118e-06
1.3783e-06
1.38255e-06
1.40227e-06
1.18042e-06
1.18932e-06
1.1998e-06
1.19991e-06
1.39643e-06
1.40623e-06
1.17286e-06
1.17521e-06
1.1963e-06
1.20593e-06
1.18177e-06
1.1946e-06
1.19831e-06
1.37606e-06
1.40912e-06
1.17976e-06
1.20178e-06
1.19812e-06
1.40343e-06
1.40666e-06
1.40518e-06
1.20294e-06
1.20023e-06
1.20466e-06
1.19779e-06
1.40763e-06
1.39832e-06
1.20158e-06
1.21176e-06
1.20718e-06
1.21306e-06
1.20005e-06
1.1977e-06
1.2019e-06
1.4149e-06
1.41326e-06
1.20032e-06
1.20535e-06
1.2021e-06
1.40293e-06
1.40612e-06
1.3978e-06
1.20322e-06
1.1972e-06
1.20143e-06
1.19874e-06
1.39934e-06
1.39729e-06
1.2067e-06
1.21032e-06
1.20467e-06
1.20674e-06
1.20358e-06
1.20326e-06
1.21098e-06
1.41404e-06
1.40349e-06
1.20304e-06
1.2033e-06
1.20977e-06
1.40723e-06
1.40029e-06
1.41584e-06
1.20284e-06
1.20338e-06
1.22261e-06
1.22285e-06
1.401e-06
1.41849e-06
1.20529e-06
1.20714e-06
1.22132e-06
1.22164e-06
1.21358e-06
1.22358e-06
1.2214e-06
1.40556e-06
1.41695e-06
1.21227e-06
1.22403e-06
1.22007e-06
1.41703e-06
1.42278e-06
1.44483e-06
1.22984e-06
1.23e-06
1.24925e-06
1.24898e-06
1.42562e-06
1.44582e-06
1.22779e-06
1.22747e-06
1.24554e-06
1.24328e-06
1.22426e-06
1.24557e-06
1.23629e-06
1.4227e-06
1.43942e-06
1.2231e-06
1.24429e-06
1.235e-06
1.43031e-06
1.44982e-06
1.45352e-06
1.25314e-06
1.25243e-06
1.25705e-06
1.25734e-06
1.45024e-06
1.45433e-06
1.25e-06
1.24744e-06
1.25575e-06
1.25396e-06
1.24175e-06
1.25499e-06
1.25879e-06
1.44378e-06
1.44966e-06
1.24037e-06
1.25329e-06
1.25796e-06
1.45277e-06
1.45572e-06
1.45922e-06
1.25803e-06
1.25872e-06
1.26417e-06
1.26415e-06
1.45676e-06
1.45951e-06
1.25709e-06
1.25583e-06
1.26384e-06
1.2647e-06
1.26316e-06
1.26469e-06
1.26884e-06
1.45282e-06
1.46045e-06
1.26287e-06
1.26635e-06
1.27029e-06
1.46635e-06
1.46223e-06
1.46719e-06
1.26647e-06
1.26592e-06
1.27179e-06
1.26934e-06
1.46201e-06
1.46308e-06
1.26668e-06
1.2682e-06
1.27389e-06
1.2766e-06
1.26879e-06
1.2702e-06
1.26694e-06
1.46435e-06
1.47077e-06
1.27046e-06
1.27467e-06
1.26791e-06
1.46187e-06
1.46978e-06
1.47051e-06
1.27305e-06
1.26998e-06
1.27579e-06
1.27422e-06
1.4647e-06
1.46729e-06
1.27566e-06
1.27811e-06
1.27763e-06
1.27808e-06
1.2671e-06
1.27339e-06
1.27712e-06
1.47293e-06
1.47039e-06
1.26769e-06
1.27442e-06
1.27362e-06
1.46771e-06
1.47269e-06
1.47674e-06
1.27751e-06
1.27719e-06
1.28521e-06
1.28807e-06
1.47101e-06
1.48259e-06
1.27765e-06
1.27698e-06
1.28023e-06
1.27583e-06
1.28154e-06
1.28935e-06
1.29199e-06
1.47179e-06
1.47139e-06
1.27767e-06
1.28089e-06
1.28819e-06
1.48436e-06
1.48017e-06
1.48777e-06
1.28798e-06
1.29144e-06
1.29476e-06
1.29697e-06
1.48722e-06
1.49305e-06
1.28314e-06
1.27624e-06
1.29177e-06
1.28701e-06
1.29406e-06
1.29707e-06
1.29348e-06
1.47368e-06
1.48091e-06
1.29081e-06
1.29104e-06
1.2944e-06
1.48956e-06
1.49105e-06
1.49601e-06
1.29585e-06
1.29711e-06
1.2981e-06
1.29578e-06
1.49464e-06
1.49012e-06
1.29442e-06
1.29243e-06
1.30233e-06
1.3095e-06
1.29229e-06
1.29424e-06
1.29312e-06
1.48577e-06
1.50305e-06
1.29451e-06
1.30435e-06
1.29674e-06
1.49149e-06
1.49891e-06
1.50416e-06
1.29967e-06
1.29586e-06
1.30642e-06
1.3041e-06
1.4917e-06
1.49833e-06
1.30458e-06
1.31425e-06
1.31036e-06
1.31982e-06
1.29718e-06
1.30397e-06
1.31086e-06
1.50877e-06
1.51836e-06
1.30047e-06
1.31386e-06
1.31154e-06
1.5071e-06
1.50724e-06
1.50951e-06
1.30871e-06
1.30771e-06
1.31338e-06
1.31529e-06
1.50276e-06
1.51318e-06
1.31171e-06
1.31926e-06
1.3125e-06
1.30801e-06
1.31431e-06
1.31627e-06
1.31799e-06
1.52011e-06
1.50637e-06
1.31423e-06
1.30946e-06
1.31609e-06
1.5148e-06
1.51087e-06
1.50439e-06
1.31367e-06
1.31602e-06
1.31046e-06
1.31061e-06
1.51576e-06
1.50725e-06
1.31119e-06
1.30382e-06
1.30523e-06
1.29376e-06
1.31554e-06
1.30991e-06
1.30303e-06
1.50653e-06
1.48794e-06
1.31276e-06
1.29842e-06
1.30134e-06
1.49725e-06
1.50546e-06
1.50263e-06
1.30885e-06
1.30838e-06
1.30681e-06
1.30659e-06
1.50801e-06
1.50335e-06
1.30355e-06
1.29268e-06
1.30248e-06
1.30182e-06
1.3005e-06
1.30528e-06
1.30122e-06
1.4889e-06
1.49726e-06
1.29935e-06
1.30589e-06
1.303e-06
1.49742e-06
1.50579e-06
1.51882e-06
1.30747e-06
1.30859e-06
1.3193e-06
1.32021e-06
1.5069e-06
1.51959e-06
1.30524e-06
1.30807e-06
1.32055e-06
1.32553e-06
1.30698e-06
1.32045e-06
1.32422e-06
1.50366e-06
1.52659e-06
1.3092e-06
1.32615e-06
1.32561e-06
1.52486e-06
1.52428e-06
1.53417e-06
1.32323e-06
1.3233e-06
1.33027e-06
1.32789e-06
1.52457e-06
1.53093e-06
1.32516e-06
1.33006e-06
1.33227e-06
1.33333e-06
1.32912e-06
1.32917e-06
1.33626e-06
1.53255e-06
1.53621e-06
1.33005e-06
1.33139e-06
1.33495e-06
1.54073e-06
1.53573e-06
1.52527e-06
1.33015e-06
1.32736e-06
1.32278e-06
1.32199e-06
1.53219e-06
1.52325e-06
1.33172e-06
1.33098e-06
1.32306e-06
1.32285e-06
1.3356e-06
1.32243e-06
1.32356e-06
1.53723e-06
1.52519e-06
1.33364e-06
1.32209e-06
1.32311e-06
1.52697e-06
1.52605e-06
1.51855e-06
1.32065e-06
1.3208e-06
1.31766e-06
1.3194e-06
1.52425e-06
1.51988e-06
1.32073e-06
1.32094e-06
1.31712e-06
1.31794e-06
1.31929e-06
1.31766e-06
1.30916e-06
1.52599e-06
1.5199e-06
1.31953e-06
1.31791e-06
1.31076e-06
1.50918e-06
1.52009e-06
1.51998e-06
1.3177e-06
1.31944e-06
1.31836e-06
1.3192e-06
1.52174e-06
1.52179e-06
1.31705e-06
1.31771e-06
1.31749e-06
1.31635e-06
1.30762e-06
1.31787e-06
1.31018e-06
1.52149e-06
1.51864e-06
1.30924e-06
1.31566e-06
1.30947e-06
1.50843e-06
1.52178e-06
1.52042e-06
1.31828e-06
1.31865e-06
1.31696e-06
1.31727e-06
1.52355e-06
1.52231e-06
1.31739e-06
1.31539e-06
1.31618e-06
1.31422e-06
1.31404e-06
1.31859e-06
1.32572e-06
1.51995e-06
1.51772e-06
1.31214e-06
1.31409e-06
1.32243e-06
1.52783e-06
1.52248e-06
1.52682e-06
1.31688e-06
1.31731e-06
1.32091e-06
1.32167e-06
1.52457e-06
1.52847e-06
1.31614e-06
1.31475e-06
1.32038e-06
1.32175e-06
1.32921e-06
1.32383e-06
1.33429e-06
1.52031e-06
1.52821e-06
1.32592e-06
1.32321e-06
1.33308e-06
1.54638e-06
1.53034e-06
1.5359e-06
1.32297e-06
1.32321e-06
1.32661e-06
1.32514e-06
1.53162e-06
1.53307e-06
1.32242e-06
1.32383e-06
1.32602e-06
1.32621e-06
1.33388e-06
1.32393e-06
1.32145e-06
1.53239e-06
1.53612e-06
1.33348e-06
1.32749e-06
1.3252e-06
1.53465e-06
1.5376e-06
1.52726e-06
1.32644e-06
1.32432e-06
1.31764e-06
1.31593e-06
1.53421e-06
1.524e-06
1.32582e-06
1.32491e-06
1.31696e-06
1.31474e-06
1.31665e-06
1.31309e-06
1.30461e-06
1.53719e-06
1.52428e-06
1.32029e-06
1.31418e-06
1.30676e-06
1.51107e-06
1.52787e-06
1.51394e-06
1.31397e-06
1.3132e-06
1.30459e-06
1.30647e-06
1.52483e-06
1.51692e-06
1.31331e-06
1.31177e-06
1.30418e-06
1.30618e-06
1.30242e-06
1.30682e-06
1.30456e-06
1.52489e-06
1.51618e-06
1.30355e-06
1.30606e-06
1.30204e-06
1.5103e-06
1.51498e-06
1.51672e-06
1.30302e-06
1.30546e-06
1.30514e-06
1.30657e-06
1.51838e-06
1.52032e-06
1.30278e-06
1.30603e-06
1.30563e-06
1.30978e-06
1.30822e-06
1.30947e-06
1.31665e-06
1.5183e-06
1.52324e-06
1.3054e-06
1.31097e-06
1.31493e-06
1.52986e-06
1.52071e-06
1.53028e-06
1.30835e-06
1.30868e-06
1.31462e-06
1.31293e-06
1.5234e-06
1.52842e-06
1.30863e-06
1.31104e-06
1.3142e-06
1.31205e-06
1.31849e-06
1.31302e-06
1.31635e-06
1.52643e-06
1.52569e-06
1.31698e-06
1.31101e-06
1.31574e-06
1.53317e-06
1.53318e-06
1.52353e-06
1.31529e-06
1.31327e-06
1.30702e-06
1.30449e-06
1.53051e-06
1.51916e-06
1.31461e-06
1.31068e-06
1.30567e-06
1.29886e-06
1.31125e-06
1.30112e-06
1.29383e-06
1.52667e-06
1.51077e-06
1.31018e-06
1.29406e-06
1.29188e-06
1.50732e-06
1.52387e-06
1.50274e-06
1.3019e-06
1.29946e-06
1.28607e-06
1.28495e-06
1.51948e-06
1.49987e-06
1.30087e-06
1.29492e-06
1.28597e-06
1.28466e-06
1.28855e-06
1.28288e-06
1.27845e-06
1.51113e-06
1.49852e-06
1.28674e-06
1.28281e-06
1.27842e-06
1.48984e-06
1.50311e-06
1.49664e-06
1.28219e-06
1.28188e-06
1.2782e-06
1.28088e-06
1.50055e-06
1.50077e-06
1.28238e-06
1.28334e-06
1.2788e-06
1.28655e-06
1.2784e-06
1.28321e-06
1.29069e-06
1.50026e-06
1.50918e-06
1.27908e-06
1.29235e-06
1.29401e-06
1.51045e-06
1.50022e-06
1.51198e-06
1.28035e-06
1.28499e-06
1.29149e-06
1.29467e-06
1.50549e-06
1.51904e-06
1.28082e-06
1.29027e-06
1.29106e-06
1.29722e-06
1.29593e-06
1.29702e-06
1.30468e-06
1.51437e-06
1.52597e-06
1.29918e-06
1.30215e-06
1.30662e-06
1.53494e-06
1.51659e-06
1.51391e-06
1.29408e-06
1.29632e-06
1.29187e-06
1.28772e-06
1.523e-06
1.51026e-06
1.29346e-06
1.29792e-06
1.29099e-06
1.28471e-06
1.30452e-06
1.28518e-06
1.28009e-06
1.52826e-06
1.50766e-06
1.30561e-06
1.28069e-06
1.27741e-06
1.50524e-06
1.51411e-06
1.48533e-06
1.28539e-06
1.28003e-06
1.26098e-06
1.25572e-06
1.50953e-06
1.475e-06
1.28483e-06
1.27796e-06
1.261e-06
1.25542e-06
1.27039e-06
1.25238e-06
1.24339e-06
1.50669e-06
1.47194e-06
1.26751e-06
1.24959e-06
1.24081e-06
1.45755e-06
1.48492e-06
1.45155e-06
1.25589e-06
1.25058e-06
1.22607e-06
1.22647e-06
1.47471e-06
1.45124e-06
1.25612e-06
1.25084e-06
1.22594e-06
1.22797e-06
1.239e-06
1.22597e-06
1.22494e-06
1.47197e-06
1.45205e-06
1.23703e-06
1.22792e-06
1.22552e-06
1.44717e-06
1.43285e-06
1.19145e-06
1.19429e-06
1.43526e-06
1.19107e-06
1.19508e-06
7.51269e-07
7.52458e-07
7.54081e-07
1.19789e-06
1.43607e-06
1.19878e-06
6.26896e-11
2.39647e-09
1.40167e-10
1.91361e-10
5.47807e-09
3.65906e-09
5.56571e-09
9.94126e-10
5.50357e-09
4.33793e-09
1.01055e-09
1.13729e-08
5.36314e-09
2.67967e-09
9.78186e-09
7.55974e-09
1.93129e-07
5.97895e-09
3.03228e-07
1.55049e-06
3.09679e-06
8.68732e-09
1.5613e-07
7.45132e-09
2.47071e-07
1.55623e-09
1.85732e-09
1.5416e-09
1.37516e-09
1.54258e-09
1.85484e-09
1.52429e-09
4.89006e-09
7.87378e-08
2.93049e-09
3.84738e-09
5.07394e-09
5.73626e-08
2.89079e-09
1.5434e-06
3.1106e-06
4.77016e-09
2.99953e-09
8.60467e-08
4.70178e-09
5.0295e-09
2.96325e-09
6.43912e-08
2.09514e-07
2.26419e-07
4.95716e-09
1.8075e-07
1.98698e-07
1.69322e-08
5.3848e-07
1.22799e-08
7.77682e-07
6.94181e-06
9.97195e-06
1.79602e-08
4.45669e-07
1.33776e-08
6.33993e-07
1.52443e-09
1.83642e-09
1.50545e-09
1.29138e-09