/*--------------------------------*- C++ -*----------------------------------*\
| =========                 |                                                 |
| \\      /  F ield         | OpenFOAM: The Open Source CFD Toolbox           |
|  \\    /   O peration     | Version:  v2012                                 |
|   \\  /    A nd           | Website:  www.openfoam.com                      |
|    \\/     M anipulation  |                                                 |
\*---------------------------------------------------------------------------*/
FoamFile
{
    version     2.0;
    format      ascii;
    class       volScalarField;
    location    "1462.5";
    object      k;
}
// * * * * * * * * * * * * * * * * * * * * * * * * * * * * * * * * * * * * * //

dimensions      [0 2 -2 0 0 0 0];


internalField   nonuniform List<scalar> 
171728
(
1.60505e-07
2.89806e-07
3.46798e-07
3.60364e-07
1.58968e-07
2.80932e-07
3.29418e-07
3.42505e-07
1.5412e-07
2.71192e-07
3.13272e-07
3.24235e-07
1.49637e-07
2.61842e-07
2.97517e-07
3.06719e-07
1.44686e-07
2.51939e-07
2.82802e-07
2.9171e-07
1.39376e-07
2.41189e-07
2.69465e-07
2.78184e-07
1.35441e-07
2.27703e-07
2.57269e-07
2.63376e-07
1.33582e-07
2.12656e-07
2.47567e-07
2.50532e-07
1.30367e-07
1.98936e-07
2.3951e-07
2.40113e-07
1.29247e-07
1.87512e-07
2.32864e-07
2.29932e-07
1.2309e-07
1.78805e-07
2.27762e-07
2.20556e-07
1.20129e-07
1.7309e-07
2.17844e-07
2.12562e-07
1.19637e-07
1.68569e-07
2.09192e-07
2.063e-07
1.17309e-07
1.68303e-07
2.00902e-07
2.02489e-07
1.14492e-07
1.70931e-07
1.92594e-07
2.0153e-07
1.1216e-07
1.76202e-07
1.87031e-07
2.0382e-07
1.09196e-07
1.85585e-07
1.90457e-07
2.13171e-07
1.06278e-07
2.01065e-07
2.05605e-07
2.34654e-07
1.04016e-07
2.27985e-07
2.36552e-07
2.74627e-07
1.02987e-07
2.77482e-07
2.81519e-07
3.51572e-07
1.01172e-07
3.54478e-07
3.58064e-07
4.89193e-07
9.86267e-08
4.59114e-07
4.63875e-07
6.8572e-07
9.73458e-08
6.38289e-07
6.50074e-07
1.16996e-06
9.7821e-08
8.53325e-07
8.52846e-07
1.45216e-06
1.00809e-07
1.21352e-06
1.21431e-06
3.04908e-06
1.03808e-07
1.58594e-06
1.58944e-06
3.16738e-06
1.09017e-07
2.12259e-06
2.12773e-06
8.13609e-06
1.22154e-07
2.76207e-06
2.76465e-06
1.02173e-05
1.35271e-07
3.38024e-06
3.40677e-06
4.94164e-06
1.55958e-07
4.51154e-06
4.41679e-06
1.5837e-05
1.99782e-07
5.25362e-06
5.41357e-06
1.59235e-05
2.30417e-07
6.50251e-06
6.40453e-06
1.78308e-05
3.27433e-07
7.92928e-06
7.91082e-06
2.01838e-05
3.90351e-07
8.71285e-06
8.88558e-06
2.03843e-05
5.21432e-07
1.0834e-05
1.05072e-05
2.37245e-05
6.84935e-07
1.19053e-05
1.25058e-05
2.53675e-05
8.38108e-07
1.39633e-05
1.34668e-05
2.65541e-05
1.24265e-06
1.53134e-05
1.55263e-05
2.77438e-05
1.45031e-06
1.71103e-05
1.76902e-05
2.94782e-05
1.58294e-06
1.91621e-05
1.8164e-05
3.04556e-05
2.77744e-06
2.0691e-05
2.1467e-05
3.12905e-05
3.08918e-06
2.26576e-05
2.26052e-05
3.31172e-05
3.09341e-06
2.43175e-05
2.37692e-05
3.42255e-05
4.49743e-06
2.64415e-05
2.71443e-05
3.47983e-05
5.17332e-06
2.79068e-05
2.81593e-05
3.59436e-05
5.46506e-06
2.95195e-05
2.87393e-05
3.74378e-05
7.04295e-06
3.13684e-05
3.19069e-05
3.88075e-05
8.25269e-06
3.22461e-05
3.2765e-05
3.9149e-05
8.71501e-06
3.46103e-05
3.34143e-05
4.00577e-05
1.13059e-05
3.54346e-05
3.62349e-05
4.16573e-05
1.20174e-05
3.69273e-05
3.66007e-05
4.17676e-05
1.24284e-05
3.80693e-05
3.81795e-05
4.35677e-05
1.57673e-05
3.93698e-05
3.92616e-05
4.38401e-05
1.67843e-05
4.08798e-05
4.07731e-05
4.52228e-05
1.82156e-05
4.05925e-05
4.13325e-05
4.55802e-05
1.92871e-05
4.23478e-05
4.11956e-05
4.55539e-05
2.10171e-05
4.46655e-05
4.43953e-05
4.82184e-05
2.39917e-05
4.4515e-05
4.57266e-05
4.84335e-05
2.48858e-05
4.40402e-05
4.49973e-05
4.76813e-05
2.47389e-05
4.53406e-05
4.43966e-05
4.80483e-05
2.64493e-05
4.81254e-05
4.71962e-05
5.08955e-05
2.98492e-05
4.86616e-05
4.92396e-05
5.12901e-05
3.07184e-05
4.83122e-05
4.88748e-05
5.08163e-05
3.04897e-05
4.80774e-05
4.82406e-05
5.13946e-05
3.06449e-05
4.9867e-05
4.97677e-05
5.17297e-05
3.36699e-05
5.11901e-05
5.09371e-05
5.22244e-05
3.54786e-05
5.13807e-05
5.11099e-05
5.39822e-05
3.57561e-05
5.20982e-05
5.22654e-05
5.4304e-05
3.65784e-05
5.2138e-05
5.25757e-05
5.35285e-05
3.76249e-05
5.21814e-05
5.24987e-05
5.40819e-05
3.79183e-05
5.3726e-05
5.28475e-05
5.54634e-05
3.90371e-05
5.40362e-05
5.34712e-05
5.52667e-05
4.02545e-05
5.37133e-05
5.46296e-05
5.49675e-05
4.11655e-05
5.44963e-05
5.55405e-05
5.68496e-05
4.19799e-05
5.5607e-05
5.51188e-05
5.70995e-05
4.23559e-05
5.50426e-05
5.40339e-05
5.53692e-05
4.22067e-05
5.47129e-05
5.45373e-05
5.55809e-05
4.32282e-05
5.62828e-05
5.67961e-05
5.79331e-05
4.4981e-05
5.68532e-05
5.70581e-05
5.8572e-05
4.5129e-05
5.64076e-05
5.64275e-05
5.76515e-05
4.48727e-05
5.61926e-05
5.63511e-05
5.6573e-05
4.49596e-05
5.6382e-05
5.62458e-05
5.6395e-05
4.5132e-05
5.65869e-05
5.6144e-05
5.8241e-05
4.60421e-05
5.7499e-05
5.75207e-05
5.95354e-05
4.6906e-05
5.75838e-05
5.78744e-05
5.85809e-05
4.68254e-05
5.6798e-05
5.68349e-05
5.68504e-05
4.60719e-05
5.6586e-05
5.6484e-05
5.72266e-05
4.60674e-05
5.72545e-05
5.74564e-05
5.90632e-05
4.74346e-05
5.78656e-05
5.77546e-05
5.94338e-05
4.76066e-05
5.7203e-05
5.65339e-05
5.72702e-05
4.63829e-05
5.58958e-05
5.58561e-05
5.6159e-05
4.58902e-05
5.62705e-05
5.71547e-05
5.84259e-05
4.71152e-05
5.81214e-05
5.84746e-05
6.0395e-05
4.78444e-05
5.76689e-05
5.70606e-05
5.80675e-05
4.61542e-05
5.39226e-05
5.36624e-05
5.46527e-05
3.57491e-07
3.58262e-07
3.19535e-07
3.54311e-07
2.91957e-07
2.94848e-07
1.58013e-07
1.58343e-07
1.72125e-07
1.59148e-07
3.04639e-07
3.10349e-07
3.64774e-07
3.47502e-07
3.3047e-07
3.61746e-07
3.56477e-07
3.41831e-07
4.61482e-07
3.23895e-07
4.53231e-07
3.12347e-07
3.5317e-07
3.34818e-07
2.53568e-07
3.59133e-07
2.44723e-07
3.46547e-07
3.49042e-07
2.83469e-07
3.40528e-07
3.63463e-07
3.4634e-07
3.70855e-07
3.33877e-07
3.48188e-07
3.43977e-07
3.39126e-07
3.2697e-07
4.50122e-07
3.08397e-07
4.39343e-07
2.9656e-07
3.33494e-07
3.15515e-07
2.41779e-07
3.41058e-07
2.33212e-07
3.23453e-07
3.36805e-07
2.73489e-07
3.25277e-07
3.44461e-07
3.28634e-07
3.36021e-07
3.172e-07
2.9326e-07
3.25626e-07
3.24344e-07
3.13167e-07
4.35283e-07
2.92655e-07
4.24262e-07
2.82464e-07
3.14104e-07
2.98226e-07
2.30534e-07
3.17929e-07
2.22747e-07
3.05002e-07
3.2173e-07
2.64187e-07
3.1195e-07
3.26526e-07
3.1185e-07
2.80477e-07
3.01427e-07
2.50608e-07
3.07864e-07
3.11033e-07
2.96386e-07
4.17021e-07
2.79595e-07
3.7695e-07
2.73128e-07
2.96988e-07
2.83056e-07
2.20307e-07
3.01293e-07
2.12964e-07
2.91673e-07
3.08835e-07
2.54369e-07
3.00684e-07
3.09371e-07
2.94611e-07
2.44201e-07
2.86325e-07
2.33505e-07
2.92688e-07
2.94697e-07
2.75946e-07
3.59514e-07
2.71879e-07
3.08983e-07
2.70378e-07
2.81656e-07
2.70063e-07
2.1059e-07
2.89358e-07
2.03527e-07
2.84554e-07
2.97839e-07
2.4408e-07
2.84516e-07
2.92142e-07
2.78429e-07
2.31453e-07
2.7263e-07
2.26467e-07
2.79224e-07
2.74573e-07
2.57055e-07
2.93318e-07
2.70344e-07
2.52527e-07
2.71158e-07
2.68821e-07
2.58309e-07
2.012e-07
2.836e-07
1.9455e-07
2.83854e-07
2.78219e-07
2.31275e-07
2.58798e-07
2.76281e-07
2.65888e-07
2.24956e-07
2.6017e-07
2.20789e-07
2.64392e-07
2.56141e-07
2.41938e-07
2.4108e-07
2.73004e-07
2.14616e-07
2.82412e-07
2.57091e-07
2.4973e-07
1.92481e-07
2.87439e-07
1.86954e-07
3.21574e-07
2.52933e-07
2.16381e-07
2.37843e-07
2.65378e-07
2.65809e-07
2.19401e-07
2.49752e-07
2.14892e-07
2.51242e-07
2.4138e-07
2.30752e-07
2.08776e-07
2.87175e-07
1.98639e-07
3.02059e-07
2.48828e-07
2.45218e-07
1.8532e-07
3.30191e-07
1.80662e-07
3.59719e-07
2.33773e-07
2.02131e-07
2.24138e-07
2.65893e-07
2.71315e-07
2.13342e-07
2.41473e-07
2.08519e-07
2.40628e-07
2.30432e-07
2.21073e-07
1.96736e-07
3.06387e-07
1.92478e-07
3.28843e-07
2.45129e-07
2.47814e-07
1.79279e-07
3.87795e-07
1.7545e-07
5.40597e-07
2.21573e-07
1.90106e-07
2.14596e-07
2.72911e-07
3.11839e-07
2.06942e-07
2.34193e-07
2.02384e-07
2.30387e-07
2.20859e-07
2.12107e-07
1.91229e-07
3.43248e-07
1.87853e-07
4.03542e-07
2.48462e-07
2.6207e-07
1.7429e-07
6.00252e-07
1.71178e-07
7.28527e-07
2.12261e-07
1.80636e-07
2.05421e-07
3.15424e-07
3.56717e-07
2.00934e-07
2.29196e-07
1.97205e-07
2.20904e-07
2.11976e-07
2.04258e-07
1.86856e-07
4.23485e-07
1.84391e-07
4.59737e-07
2.6322e-07
2.73625e-07
1.70299e-07
7.4626e-07
1.68122e-07
7.46558e-07
2.03505e-07
1.74386e-07
1.98546e-07
3.56585e-07
3.46457e-07
1.96303e-07
2.20698e-07
1.94642e-07
2.12763e-07
2.04264e-07
1.98086e-07
1.8359e-07
4.6294e-07
1.82123e-07
4.49182e-07
2.73889e-07
2.55837e-07
1.67682e-07
7.12739e-07
1.66468e-07
4.64507e-07
1.96805e-07
1.69523e-07
1.92385e-07
3.27187e-07
2.43183e-07
1.94504e-07
2.11184e-07
1.94455e-07
2.06287e-07
1.98227e-07
1.93615e-07
1.82008e-07
4.12428e-07
1.80933e-07
3.00547e-07
2.50219e-07
2.09193e-07
1.66479e-07
3.99491e-07
1.67243e-07
2.64433e-07
1.92012e-07
1.68084e-07
1.92373e-07
2.39409e-07
2.10618e-07
1.94473e-07
2.03144e-07
1.9377e-07
2.02208e-07
1.93963e-07
1.91561e-07
1.80953e-07
2.73441e-07
1.82097e-07
2.17045e-07
2.08072e-07
1.95118e-07
1.67958e-07
2.38546e-07
1.71018e-07
2.00408e-07
1.92902e-07
1.70208e-07
1.96616e-07
2.09417e-07
1.95428e-07
1.93373e-07
1.94633e-07
1.91804e-07
2.00784e-07
1.92442e-07
1.93303e-07
1.83063e-07
2.06104e-07
1.87806e-07
1.90122e-07
1.95406e-07
1.92353e-07
1.72265e-07
1.95128e-07
1.77593e-07
1.87119e-07
1.98992e-07
1.74994e-07
2.09456e-07
1.95407e-07
1.88633e-07
1.91653e-07
1.87575e-07
1.92775e-07
2.02187e-07
1.9514e-07
2.00881e-07
1.89848e-07
1.89324e-07
2.00696e-07
1.91044e-07
1.93709e-07
1.9622e-07
1.79821e-07
1.86804e-07
1.88786e-07
1.88756e-07
2.1365e-07
1.83096e-07
2.31037e-07
1.89578e-07
1.91803e-07
1.93736e-07
1.88707e-07
1.9788e-07
2.09314e-07
2.04923e-07
2.18308e-07
2.06107e-07
1.93637e-07
2.26772e-07
2.06448e-07
1.99144e-07
2.09738e-07
1.92982e-07
1.91223e-07
2.06297e-07
2.05663e-07
2.38429e-07
1.96065e-07
2.65859e-07
1.94711e-07
2.05733e-07
2.00396e-07
2.01156e-07
2.09703e-07
2.26801e-07
2.25517e-07
2.51741e-07
2.35328e-07
2.13013e-07
2.68923e-07
2.36506e-07
2.16607e-07
2.38276e-07
2.12077e-07
2.10977e-07
2.34578e-07
2.33845e-07
2.77362e-07
2.19968e-07
3.17403e-07
2.12415e-07
2.35653e-07
2.13727e-07
2.26984e-07
2.33135e-07
2.62198e-07
2.6425e-07
3.15581e-07
2.78863e-07
2.45437e-07
3.29002e-07
2.87604e-07
2.50255e-07
3.04387e-07
2.4162e-07
2.43155e-07
2.81124e-07
2.76692e-07
3.32712e-07
2.65202e-07
3.93952e-07
2.47537e-07
2.92164e-07
2.39639e-07
2.66988e-07
2.7122e-07
3.27445e-07
3.39336e-07
4.23544e-07
3.4462e-07
3.01387e-07
3.99183e-07
3.57578e-07
3.26137e-07
4.1349e-07
2.9425e-07
2.93847e-07
3.4529e-07
3.49253e-07
4.16758e-07
3.31784e-07
4.90406e-07
3.13537e-07
4.09613e-07
2.85176e-07
3.36971e-07
3.31979e-07
4.488e-07
4.66445e-07
6.19793e-07
4.31676e-07
3.80904e-07
4.83597e-07
4.57556e-07
4.51145e-07
5.98901e-07
3.7577e-07
3.7015e-07
4.38982e-07
4.50201e-07
5.17759e-07
4.25525e-07
6.08808e-07
4.4092e-07
5.96929e-07
3.58605e-07
4.35078e-07
4.18097e-07
6.24862e-07
6.54773e-07
1.058e-06
5.04828e-07
4.95016e-07
6.87426e-07
6.30466e-07
6.57462e-07
1.00685e-06
4.64982e-07
4.82248e-07
6.218e-07
6.2603e-07
6.32478e-07
5.98442e-07
7.69291e-07
6.57682e-07
9.91692e-07
4.55417e-07
6.02552e-07
6.03646e-07
1.0711e-06
1.18362e-06
1.44803e-06
7.09885e-07
6.66725e-07
8.20651e-07
8.19021e-07
1.10579e-06
1.43984e-06
6.60055e-07
6.66775e-07
8.11157e-07
8.0187e-07
8.00721e-07
7.83631e-07
8.6201e-07
1.0889e-06
1.41203e-06
6.45243e-07
7.79498e-07
7.4349e-07
1.36655e-06
1.59242e-06
2.41513e-06
8.81387e-07
8.90115e-07
1.184e-06
1.1645e-06
1.58617e-06
2.50183e-06
8.65469e-07
8.8712e-07
1.13855e-06
1.16287e-06
9.28955e-07
1.11761e-06
1.17557e-06
1.56431e-06
2.52661e-06
8.04045e-07
1.1342e-06
1.20713e-06
2.70231e-06
2.66665e-06
3.61119e-06
1.29247e-06
1.26274e-06
1.48267e-06
1.52716e-06
2.7472e-06
3.56506e-06
1.25215e-06
1.23574e-06
1.44248e-06
1.49873e-06
1.32384e-06
1.48254e-06
1.55887e-06
2.7275e-06
3.42998e-06
1.30191e-06
1.46688e-06
1.31973e-06
3.18905e-06
3.74901e-06
5.47251e-06
1.62841e-06
1.63323e-06
2.0712e-06
1.99152e-06
3.79732e-06
5.12329e-06
1.58599e-06
1.63458e-06
2.04504e-06
2.011e-06
1.56166e-06
1.95185e-06
1.98395e-06
3.6972e-06
5.25397e-06
1.3302e-06
1.98414e-06
2.51886e-06
6.05521e-06
5.88489e-06
6.69915e-06
2.13306e-06
2.15477e-06
2.56915e-06
2.63526e-06
5.47765e-06
7.37551e-06
2.10951e-06
2.13297e-06
2.56926e-06
2.68492e-06
2.65771e-06
2.62828e-06
3.19971e-06
5.59994e-06
7.13678e-06
3.02057e-06
2.63218e-06
3.1139e-06
1.12929e-05
7.16799e-06
9.88265e-06
2.79666e-06
2.79174e-06
3.35893e-06
3.297e-06
7.80913e-06
9.2094e-06
2.80637e-06
2.84289e-06
3.30788e-06
3.26141e-06
3.04983e-06
3.20906e-06
2.5991e-06
7.59796e-06
9.27972e-06
2.72063e-06
3.1632e-06
2.40953e-06
4.61712e-06
1.02725e-05
1.16489e-05
3.53491e-06
3.46176e-06
4.13309e-06
4.19321e-06
9.62895e-06
1.20089e-05
3.49873e-06
3.49309e-06
4.11533e-06
4.25377e-06
2.71691e-06
4.17686e-06
4.8284e-06
9.65658e-06
1.19464e-05
2.69861e-06
4.23916e-06
5.18224e-06
1.50635e-05
1.21571e-05
1.4547e-05
4.39211e-06
4.50263e-06
5.14229e-06
5.1277e-06
1.25868e-05
1.4593e-05
4.31863e-06
4.43257e-06
5.16258e-06
5.08942e-06
5.24679e-06
5.14405e-06
5.52181e-06
1.25419e-05
1.4293e-05
5.51589e-06
5.05175e-06
5.61033e-06
1.59014e-05
1.50893e-05
1.68142e-05
5.44605e-06
5.27939e-06
6.22214e-06
6.13024e-06
1.49789e-05
1.63267e-05
5.49793e-06
5.44948e-06
6.18704e-06
6.39359e-06
5.52973e-06
6.04105e-06
6.07646e-06
1.47713e-05
1.69891e-05
5.60939e-06
6.23154e-06
6.73917e-06
1.69315e-05
1.72596e-05
1.90543e-05
6.40709e-06
6.54078e-06
7.57583e-06
7.68564e-06
1.69523e-05
1.95665e-05
6.3924e-06
6.53253e-06
7.51581e-06
7.4049e-06
6.64291e-06
7.70191e-06
7.98674e-06
1.74445e-05
1.88781e-05
7.59175e-06
7.46168e-06
8.75901e-06
2.00062e-05
1.95623e-05
2.11473e-05
7.99686e-06
7.95787e-06
8.7231e-06
8.5035e-06
1.99582e-05
2.06878e-05
7.84512e-06
7.89558e-06
8.74074e-06
8.8309e-06
8.14549e-06
8.39965e-06
8.26038e-06
1.93709e-05
2.11354e-05
8.76609e-06
8.67667e-06
8.50531e-06
2.01635e-05
2.15248e-05
2.29607e-05
8.97404e-06
8.74631e-06
1.01982e-05
1.02822e-05
2.10232e-05
2.2976e-05
9.13847e-06
9.08219e-06
1.00655e-05
1.01705e-05
8.37057e-06
1.02217e-05
1.02055e-05
2.15468e-05
2.27686e-05
8.50394e-06
1.00634e-05
1.00871e-05
2.29545e-05
2.34622e-05
2.47784e-05
1.08247e-05
1.09237e-05
1.20294e-05
1.17732e-05
2.35357e-05
2.47194e-05
1.05041e-05
1.05105e-05
1.21152e-05
1.19974e-05
1.09867e-05
1.17863e-05
1.20514e-05
2.31926e-05
2.49196e-05
1.12324e-05
1.20003e-05
1.27691e-05
2.51128e-05
2.49896e-05
2.57639e-05
1.21022e-05
1.1897e-05
1.28091e-05
1.32596e-05
2.50025e-05
2.60764e-05
1.23218e-05
1.25656e-05
1.27997e-05
1.32281e-05
1.21543e-05
1.32702e-05
1.35288e-05
2.53264e-05
2.5961e-05
1.2915e-05
1.32875e-05
1.39056e-05
2.62058e-05
2.64121e-05
2.83124e-05
1.36234e-05
1.38641e-05
1.58705e-05
1.52477e-05
2.6501e-05
2.76295e-05
1.34028e-05
1.34067e-05
1.56053e-05
1.49409e-05
1.4155e-05
1.50583e-05
1.50998e-05
2.62057e-05
2.77008e-05
1.41612e-05
1.47607e-05
1.48352e-05
2.74364e-05
2.85021e-05
2.85186e-05
1.64144e-05
1.56435e-05
1.68627e-05
1.67615e-05
2.793e-05
2.88676e-05
1.62795e-05
1.57208e-05
1.71589e-05
1.76666e-05
1.53027e-05
1.66728e-05
1.67512e-05
2.81999e-05
2.91638e-05
1.51058e-05
1.74874e-05
1.6755e-05
2.90605e-05
2.86622e-05
2.98733e-05
1.68613e-05
1.6983e-05
1.74073e-05
1.82515e-05
2.91747e-05
3.01023e-05
1.71773e-05
1.78749e-05
1.74353e-05
1.80034e-05
1.75773e-05
1.86158e-05
1.91951e-05
2.93259e-05
2.96651e-05
1.75639e-05
1.78867e-05
1.88775e-05
3.02921e-05
3.04327e-05
3.21549e-05
1.86548e-05
1.89552e-05
2.20006e-05
2.06859e-05
3.04431e-05
3.14469e-05
1.80599e-05
1.81607e-05
2.14242e-05
2.07593e-05
1.93643e-05
2.04326e-05
1.99503e-05
2.99733e-05
3.18528e-05
1.89714e-05
2.06919e-05
1.99085e-05
3.09843e-05
3.23698e-05
3.25964e-05
2.25781e-05
2.10581e-05
2.3063e-05
2.23859e-05
3.17077e-05
3.25272e-05
2.21086e-05
2.16127e-05
2.27702e-05
2.25857e-05
2.03548e-05
2.19445e-05
2.21126e-05
3.21966e-05
3.25062e-05
2.04941e-05
2.25663e-05
2.22279e-05
3.27481e-05
3.27184e-05
3.33209e-05
2.30441e-05
2.28494e-05
2.30426e-05
2.38093e-05
3.28278e-05
3.36132e-05
2.27885e-05
2.25975e-05
2.32928e-05
2.29603e-05
2.27482e-05
2.40956e-05
2.45983e-05
3.25725e-05
3.31855e-05
2.27163e-05
2.30446e-05
2.44492e-05
3.40179e-05
3.3707e-05
3.5274e-05
2.33833e-05
2.40827e-05
2.64294e-05
2.57483e-05
3.38371e-05
3.49067e-05
2.39199e-05
2.37628e-05
2.63071e-05
2.65645e-05
2.50427e-05
2.57607e-05
2.57493e-05
3.36664e-05
3.55135e-05
2.50696e-05
2.63976e-05
2.59429e-05
3.46314e-05
3.55607e-05
3.58964e-05
2.71311e-05
2.65815e-05
2.77892e-05
2.81268e-05
3.52674e-05
3.61046e-05
2.70181e-05
2.72705e-05
2.78219e-05
2.80154e-05
2.5914e-05
2.77646e-05
2.69672e-05
3.57783e-05
3.59727e-05
2.59988e-05
2.81361e-05
2.67577e-05
3.56137e-05
3.59718e-05
3.67002e-05
2.78137e-05
2.82343e-05
2.8621e-05
2.87305e-05
3.62501e-05
3.68195e-05
2.78598e-05
2.80097e-05
2.8582e-05
2.81319e-05
2.7762e-05
2.88499e-05
2.96449e-05
3.60103e-05
3.64743e-05
2.72553e-05
2.83059e-05
2.90685e-05
3.71569e-05
3.70967e-05
3.83203e-05
2.93103e-05
2.93901e-05
3.12387e-05
3.12692e-05
3.7121e-05
3.82354e-05
2.90672e-05
2.86421e-05
3.10234e-05
3.14479e-05
2.98378e-05
3.11478e-05
3.10728e-05
3.68738e-05
3.85811e-05
2.979e-05
3.1266e-05
3.18182e-05
3.85417e-05
3.85622e-05
3.89441e-05
3.17121e-05
3.15225e-05
3.21039e-05
3.18758e-05
3.84054e-05
3.88163e-05
3.16944e-05
3.19833e-05
3.24744e-05
3.24205e-05
3.16044e-05
3.19112e-05
3.21663e-05
3.88062e-05
3.90297e-05
3.23459e-05
3.27434e-05
3.28766e-05
3.91096e-05
3.9029e-05
4.00204e-05
3.2148e-05
3.21123e-05
3.34067e-05
3.37903e-05
3.90009e-05
4.01663e-05
3.25244e-05
3.24385e-05
3.35553e-05
3.31214e-05
3.22359e-05
3.39982e-05
3.35225e-05
3.90882e-05
3.96542e-05
3.28579e-05
3.29408e-05
3.28511e-05
3.96696e-05
4.04781e-05
4.16094e-05
3.4214e-05
3.45082e-05
3.5948e-05
3.55423e-05
4.0505e-05
4.12795e-05
3.43025e-05
3.40121e-05
3.59984e-05
3.5963e-05
3.43043e-05
3.53848e-05
3.59067e-05
4.00616e-05
4.1623e-05
3.31315e-05
3.57771e-05
3.57136e-05
4.15378e-05
4.16724e-05
4.14201e-05
3.6101e-05
3.56646e-05
3.61062e-05
3.65642e-05
4.13604e-05
4.19416e-05
3.61782e-05
3.63588e-05
3.618e-05
3.67918e-05
3.60171e-05
3.62884e-05
3.60211e-05
4.18279e-05
4.20564e-05
3.61438e-05
3.65845e-05
3.64291e-05
4.16584e-05
4.14716e-05
4.2932e-05
3.61299e-05
3.70643e-05
3.76696e-05
3.82361e-05
4.22818e-05
4.32316e-05
3.61806e-05
3.67833e-05
3.71081e-05
3.67516e-05
3.60915e-05
3.79998e-05
3.79817e-05
4.20916e-05
4.23581e-05
3.65049e-05
3.74784e-05
3.7966e-05
4.32639e-05
4.33462e-05
4.41381e-05
3.83627e-05
3.83634e-05
3.94066e-05
3.8766e-05
4.33058e-05
4.36712e-05
3.7925e-05
3.69604e-05
3.92949e-05
3.92944e-05
3.85496e-05
3.87713e-05
3.90937e-05
4.26616e-05
4.41382e-05
3.85309e-05
3.90581e-05
3.91454e-05
4.38085e-05
4.42481e-05
4.48347e-05
3.95056e-05
3.9166e-05
4.00503e-05
4.04089e-05
4.40008e-05
4.50896e-05
3.9521e-05
4.00612e-05
4.05003e-05
4.14539e-05
3.91372e-05
4.07732e-05
4.00732e-05
4.44347e-05
4.54881e-05
3.91863e-05
4.03385e-05
3.99759e-05
4.48237e-05
4.50659e-05
4.52744e-05
4.05062e-05
4.04563e-05
4.10388e-05
4.01769e-05
4.5128e-05
4.42303e-05
4.09061e-05
4.15514e-05
4.13878e-05
4.13582e-05
4.07191e-05
4.0665e-05
4.15065e-05
4.56216e-05
4.52173e-05
4.06061e-05
4.13517e-05
4.15542e-05
4.55991e-05
4.52766e-05
4.5315e-05
4.10114e-05
4.01682e-05
4.1116e-05
4.22634e-05
4.42229e-05
4.65689e-05
4.13564e-05
4.09604e-05
4.11663e-05
4.03782e-05
4.14922e-05
4.12285e-05
4.14043e-05
4.51317e-05
4.44141e-05
4.15558e-05
4.11477e-05
4.14821e-05
4.53242e-05
4.56377e-05
4.79885e-05
4.15906e-05
4.3666e-05
4.43642e-05
4.52933e-05
4.73448e-05
4.8833e-05
4.12311e-05
4.04402e-05
4.35273e-05
4.35565e-05
4.15061e-05
4.44589e-05
4.37733e-05
4.46032e-05
4.79507e-05
4.15442e-05
4.34408e-05
4.35097e-05
4.78669e-05
4.82483e-05
4.82059e-05
4.47237e-05
4.52948e-05
4.48655e-05
4.44054e-05
4.88367e-05
4.75383e-05
4.43381e-05
4.47487e-05
4.52077e-05
4.61808e-05
4.44122e-05
4.46643e-05
4.50637e-05
4.8535e-05
4.94786e-05
4.42496e-05
4.56921e-05
4.5168e-05
4.84377e-05
4.82048e-05
4.78618e-05
4.48083e-05
4.40458e-05
4.45445e-05
4.34043e-05
4.74502e-05
4.66091e-05
4.52149e-05
4.62006e-05
4.50383e-05
4.55359e-05
4.50669e-05
4.40905e-05
4.47838e-05
4.94908e-05
4.82444e-05
4.51842e-05
4.5328e-05
4.48978e-05
4.77199e-05
4.78659e-05
4.8051e-05
4.44452e-05
4.33381e-05
4.44104e-05
4.4022e-05
4.66179e-05
4.81058e-05
4.49628e-05
4.51024e-05
4.48767e-05
4.41676e-05
4.46131e-05
4.44972e-05
4.44894e-05
4.81166e-05
4.70736e-05
4.47012e-05
4.43979e-05
4.45111e-05
4.76974e-05
4.83292e-05
5.00151e-05
4.4678e-05
4.51648e-05
4.70271e-05
4.79888e-05
4.87712e-05
5.11561e-05
4.49328e-05
4.41154e-05
4.62783e-05
4.54292e-05
4.4681e-05
4.76464e-05
4.72032e-05
4.71102e-05
4.94594e-05
4.46195e-05
4.61474e-05
4.70025e-05
5.05249e-05
5.03884e-05
5.15696e-05
4.77068e-05
4.85492e-05
4.89808e-05
4.91594e-05
5.14321e-05
5.15246e-05
4.69945e-05
4.68022e-05
4.87571e-05
4.93746e-05
4.78466e-05
4.86546e-05
4.8656e-05
5.01751e-05
5.21232e-05
4.77334e-05
4.90627e-05
4.8698e-05
5.13005e-05
5.16724e-05
5.12116e-05
4.91068e-05
4.91565e-05
4.90008e-05
4.8578e-05
5.14965e-05
5.06762e-05
4.90192e-05
4.96712e-05
4.91061e-05
4.96842e-05
4.86703e-05
4.8448e-05
4.84941e-05
5.22457e-05
5.15892e-05
4.87284e-05
4.91603e-05
4.85642e-05
5.08048e-05
5.11229e-05
5.01908e-05
4.87112e-05
4.82827e-05
4.79433e-05
4.77652e-05
5.06221e-05
5.01816e-05
4.90024e-05
4.94169e-05
4.82759e-05
4.85234e-05
4.84646e-05
4.80612e-05
4.86525e-05
5.14699e-05
5.05145e-05
4.85087e-05
4.82562e-05
4.85529e-05
5.12247e-05
5.02018e-05
5.16143e-05
4.79003e-05
4.77682e-05
4.88148e-05
4.91971e-05
5.02679e-05
5.1975e-05
4.81892e-05
4.84236e-05
4.85473e-05
4.86446e-05
4.88894e-05
4.93054e-05
4.93423e-05
5.0529e-05
5.167e-05
4.87365e-05
4.9158e-05
4.93376e-05
5.17026e-05
5.21424e-05
5.34017e-05
4.97069e-05
4.99372e-05
5.12408e-05
5.1257e-05
5.23913e-05
5.33431e-05
4.9327e-05
4.92434e-05
5.10456e-05
5.0792e-05
4.94163e-05
5.10182e-05
4.99197e-05
5.20647e-05
5.30026e-05
4.94465e-05
5.08208e-05
4.98396e-05
5.19885e-05
5.34699e-05
5.33573e-05
5.14466e-05
5.14383e-05
5.15928e-05
5.16005e-05
5.34067e-05
5.33941e-05
5.13038e-05
5.1044e-05
5.15119e-05
5.12825e-05
5.02769e-05
5.13379e-05
5.15518e-05
5.30634e-05
5.3057e-05
5.01355e-05
5.10381e-05
5.14444e-05
5.36985e-05
5.33652e-05
5.3575e-05
5.15902e-05
5.16148e-05
5.16232e-05
5.17498e-05
5.34276e-05
5.3801e-05
5.15097e-05
5.12986e-05
5.15431e-05
5.15673e-05
5.18907e-05
5.19224e-05
5.2282e-05
5.31058e-05
5.38395e-05
5.18582e-05
5.20096e-05
5.24206e-05
5.4325e-05
5.3733e-05
5.42664e-05
5.17299e-05
5.19051e-05
5.23661e-05
5.21448e-05
5.39008e-05
5.38393e-05
5.16707e-05
5.18914e-05
5.2518e-05
5.27057e-05
5.22788e-05
5.21892e-05
5.19847e-05
5.40454e-05
5.44176e-05
5.24256e-05
5.25722e-05
5.21737e-05
5.35655e-05
5.43008e-05
5.41672e-05
5.24471e-05
5.21375e-05
5.24631e-05
5.2116e-05
5.38289e-05
5.38103e-05
5.26621e-05
5.28305e-05
5.27439e-05
5.28925e-05
5.18896e-05
5.20801e-05
5.19847e-05
5.44386e-05
5.4328e-05
5.20469e-05
5.251e-05
5.19894e-05
5.37929e-05
5.41757e-05
5.45239e-05
5.24663e-05
5.22018e-05
5.29377e-05
5.32927e-05
5.39746e-05
5.51304e-05
5.27184e-05
5.28645e-05
5.26359e-05
5.24906e-05
5.23801e-05
5.34223e-05
5.37058e-05
5.43331e-05
5.42299e-05
5.20978e-05
5.26522e-05
5.33197e-05
5.53655e-05
5.46834e-05
5.52973e-05
5.32369e-05
5.3607e-05
5.38141e-05
5.40373e-05
5.53291e-05
5.56027e-05
5.26631e-05
5.24012e-05
5.34821e-05
5.25303e-05
5.38444e-05
5.40406e-05
5.38579e-05
5.42441e-05
5.44676e-05
5.35808e-05
5.32679e-05
5.38788e-05
5.52996e-05
5.53696e-05
5.54979e-05
5.38933e-05
5.4043e-05
5.39589e-05
5.38646e-05
5.56004e-05
5.50855e-05
5.37204e-05
5.30099e-05
5.41943e-05
5.46682e-05
5.37782e-05
5.37723e-05
5.35478e-05
5.46851e-05
5.61003e-05
5.38734e-05
5.43203e-05
5.38039e-05
5.49168e-05
5.55845e-05
5.62103e-05
5.39939e-05
5.38094e-05
5.45465e-05
5.39989e-05
5.50642e-05
5.56078e-05
5.4392e-05
5.50894e-05
5.49994e-05
5.58599e-05
5.35676e-05
5.39607e-05
5.47496e-05
5.63948e-05
5.72823e-05
5.38305e-05
5.54324e-05
5.49096e-05
5.6553e-05
5.63343e-05
5.6484e-05
5.4793e-05
5.44566e-05
5.52397e-05
5.54733e-05
5.59607e-05
5.69656e-05
5.51343e-05
5.5907e-05
5.52455e-05
5.54619e-05
5.52671e-05
5.55591e-05
5.57769e-05
5.73261e-05
5.64357e-05
5.5324e-05
5.54219e-05
5.56655e-05
5.72227e-05
5.64897e-05
5.62106e-05
5.52716e-05
5.55313e-05
5.5227e-05
5.53343e-05
5.69907e-05
5.6285e-05
5.52293e-05
5.50202e-05
5.48698e-05
5.3947e-05
5.5739e-05
5.53254e-05
5.4793e-05
5.62396e-05
5.49409e-05
5.56031e-05
5.42058e-05
5.45898e-05
5.55184e-05
5.6168e-05
5.57531e-05
5.51231e-05
5.50924e-05
5.47842e-05
5.47708e-05
5.61623e-05
5.57605e-05
5.46787e-05
5.37381e-05
5.43987e-05
5.37654e-05
5.44748e-05
5.46897e-05
5.42033e-05
5.48654e-05
5.53972e-05
5.43112e-05
5.40939e-05
5.41645e-05
5.52886e-05
5.57882e-05
5.72497e-05
5.47855e-05
5.4792e-05
5.56812e-05
5.58511e-05
5.58685e-05
5.73931e-05
5.44388e-05
5.42225e-05
5.58699e-05
5.63665e-05
5.42909e-05
5.58387e-05
5.60173e-05
5.58441e-05
5.791e-05
5.43542e-05
5.64345e-05
5.62234e-05
5.76501e-05
5.75462e-05
5.81655e-05
5.61895e-05
5.62702e-05
5.69092e-05
5.67445e-05
5.76385e-05
5.79293e-05
5.63813e-05
5.68084e-05
5.70788e-05
5.72184e-05
5.65461e-05
5.68467e-05
5.73681e-05
5.81288e-05
5.82633e-05
5.66718e-05
5.70876e-05
5.72857e-05
5.85577e-05
5.8166e-05
5.74884e-05
5.69214e-05
5.67419e-05
5.66057e-05
5.64366e-05
5.78995e-05
5.73072e-05
5.70882e-05
5.71964e-05
5.66987e-05
5.66092e-05
5.7406e-05
5.65615e-05
5.70091e-05
5.81931e-05
5.74086e-05
5.73024e-05
5.65402e-05
5.68847e-05
5.77921e-05
5.7423e-05
5.71924e-05
5.64332e-05
5.6339e-05
5.62291e-05
5.6278e-05
5.72802e-05
5.72822e-05
5.64927e-05
5.64593e-05
5.62258e-05
5.63379e-05
5.66224e-05
5.61958e-05
5.57626e-05
5.73804e-05
5.73956e-05
5.65872e-05
5.63439e-05
5.59186e-05
5.66654e-05
5.72238e-05
5.74866e-05
5.62307e-05
5.6305e-05
5.64507e-05
5.65217e-05
5.73466e-05
5.75572e-05
5.62219e-05
5.63464e-05
5.63885e-05
5.63642e-05
5.5571e-05
5.63487e-05
5.54085e-05
5.74446e-05
5.73925e-05
5.57477e-05
5.63228e-05
5.55166e-05
5.62853e-05
5.75104e-05
5.73679e-05
5.64852e-05
5.65228e-05
5.64257e-05
5.64411e-05
5.7566e-05
5.74168e-05
5.64219e-05
5.6329e-05
5.63702e-05
5.61532e-05
5.54906e-05
5.6454e-05
5.68213e-05
5.73572e-05
5.70451e-05
5.55344e-05
5.6091e-05
5.65424e-05
5.79289e-05
5.73715e-05
5.80376e-05
5.64202e-05
5.64451e-05
5.68964e-05
5.70119e-05
5.74473e-05
5.82399e-05
5.63696e-05
5.61748e-05
5.69151e-05
5.70589e-05
5.72535e-05
5.73125e-05
5.81834e-05
5.70986e-05
5.82896e-05
5.69943e-05
5.72028e-05
5.8058e-05
5.94485e-05
5.82214e-05
5.8699e-05
5.71888e-05
5.72833e-05
5.76913e-05
5.76134e-05
5.8387e-05
5.85841e-05
5.71949e-05
5.73732e-05
5.76834e-05
5.77593e-05
5.82802e-05
5.76332e-05
5.80348e-05
5.84811e-05
5.88544e-05
5.82321e-05
5.78888e-05
5.82121e-05
5.88401e-05
5.87319e-05
5.83295e-05
5.77252e-05
5.76113e-05
5.755e-05
5.72581e-05
5.85594e-05
5.79309e-05
5.77161e-05
5.77535e-05
5.75203e-05
5.71997e-05
5.75333e-05
5.69567e-05
5.62771e-05
5.88422e-05
5.78841e-05
5.79185e-05
5.71336e-05
5.65188e-05
5.69708e-05
5.82203e-05
5.73451e-05
5.72782e-05
5.70745e-05
5.6546e-05
5.66567e-05
5.7889e-05
5.76082e-05
5.72378e-05
5.69352e-05
5.65069e-05
5.65336e-05
5.6057e-05
5.65837e-05
5.60018e-05
5.77678e-05
5.74153e-05
5.62084e-05
5.64706e-05
5.59791e-05
5.69385e-05
5.72896e-05
5.76024e-05
5.64113e-05
5.65878e-05
5.64414e-05
5.66615e-05
5.76107e-05
5.79548e-05
5.63929e-05
5.65316e-05
5.64822e-05
5.70118e-05
5.6256e-05
5.70274e-05
5.7598e-05
5.74814e-05
5.83453e-05
5.60894e-05
5.71738e-05
5.74653e-05
5.88366e-05
5.78809e-05
5.89596e-05
5.67271e-05
5.69268e-05
5.77911e-05
5.77136e-05
5.81236e-05
5.8822e-05
5.68268e-05
5.7291e-05
5.7802e-05
5.77137e-05
5.79233e-05
5.78042e-05
5.82705e-05
5.85106e-05
5.88146e-05
5.78517e-05
5.77741e-05
5.82512e-05
5.9504e-05
5.90533e-05
5.87937e-05
5.79565e-05
5.78425e-05
5.79673e-05
5.78102e-05
5.8903e-05
5.85365e-05
5.7931e-05
5.77205e-05
5.78862e-05
5.72625e-05
5.82338e-05
5.76234e-05
5.69502e-05
5.87978e-05
5.77883e-05
5.82069e-05
5.68874e-05
5.68149e-05
5.75314e-05
5.86419e-05
5.73485e-05
5.777e-05
5.75658e-05
5.64994e-05
5.6313e-05
5.83551e-05
5.7043e-05
5.76319e-05
5.69401e-05
5.64844e-05
5.6157e-05
5.64619e-05
5.6087e-05
5.54963e-05
5.76411e-05
5.68948e-05
5.63013e-05
5.58735e-05
5.54243e-05
5.61529e-05
5.72281e-05
5.68601e-05
5.6183e-05
5.60442e-05
5.58425e-05
5.58839e-05
5.69424e-05
5.70534e-05
5.62052e-05
5.60509e-05
5.59095e-05
5.61846e-05
5.54523e-05
5.59114e-05
5.63148e-05
5.68914e-05
5.77866e-05
5.54145e-05
5.66146e-05
5.66241e-05
5.79839e-05
5.69684e-05
5.84802e-05
5.58898e-05
5.60362e-05
5.71228e-05
5.75239e-05
5.73625e-05
5.90571e-05
5.59597e-05
5.66003e-05
5.71432e-05
5.78589e-05
5.70356e-05
5.78144e-05
5.86094e-05
5.81121e-05
5.94918e-05
5.73453e-05
5.83411e-05
5.88248e-05
6.02768e-05
5.87095e-05
5.90778e-05
5.75555e-05
5.78841e-05
5.7901e-05
5.8019e-05
5.92606e-05
5.90623e-05
5.75458e-05
5.80799e-05
5.78584e-05
5.79765e-05
5.87999e-05
5.8124e-05
5.82796e-05
5.96089e-05
5.86428e-05
5.89566e-05
5.79531e-05
5.80845e-05
5.86869e-05
5.89595e-05
5.68956e-05
5.78187e-05
5.77599e-05
5.60228e-05
5.5502e-05
5.86881e-05
5.60979e-05
5.77733e-05
5.74485e-05
5.60338e-05
5.53506e-05
5.72419e-05
5.51821e-05
5.4412e-05
5.82116e-05
5.58668e-05
5.69587e-05
5.48201e-05
5.41937e-05
5.48812e-05
5.65984e-05
5.46488e-05
5.41705e-05
5.58323e-05
5.46714e-05
5.40731e-05
4.55211e-05
4.52354e-05
4.4582e-05
5.31755e-05
5.56721e-05
5.30142e-05
4.08303e-08
2.39864e-07
4.05127e-08
5.00066e-08
2.81776e-07
3.01224e-07
1.85008e-07
1.2142e-07
2.74397e-07
3.4843e-07
1.24196e-07
4.6564e-07
3.68276e-07
2.31912e-07
5.64998e-07
2.96904e-07
5.52964e-06
2.57264e-07
7.36027e-06
1.36386e-05
2.11867e-05
3.60828e-07
4.79884e-06
3.23308e-07
6.42056e-06
1.60545e-07
1.74242e-07
1.61779e-07
1.60163e-07
1.60779e-07
1.74035e-07
1.61101e-07
2.62986e-07
5.72256e-07
2.3472e-07
2.88282e-07
2.68961e-07
5.59203e-07
2.33849e-07
1.35963e-05
2.12373e-05
2.56462e-07
2.42143e-07
7.15741e-07
3.43082e-07
2.61943e-07
2.41203e-07
6.85754e-07
1.8299e-06
1.97939e-06
3.52864e-07
1.83769e-06
1.97872e-06
4.78482e-07
1.07876e-05
3.91576e-07
1.37797e-05
3.62713e-05
4.61721e-05
5.54313e-07
9.50581e-06
4.64255e-07
1.20262e-05
1.59675e-07
1.73024e-07
1.59941e-07
1.55341e-07
1.56331e-07