/*--------------------------------*- C++ -*----------------------------------*\
| =========                 |                                                 |
| \\      /  F ield         | OpenFOAM: The Open Source CFD Toolbox           |
|  \\    /   O peration     | Version:  v2012                                 |
|   \\  /    A nd           | Website:  www.openfoam.com                      |
|    \\/     M anipulation  |                                                 |
\*---------------------------------------------------------------------------*/
FoamFile
{
    version     2.0;
    format      ascii;
    class       volScalarField;
    location    "1462.5";
    object      nut;
}
// * * * * * * * * * * * * * * * * * * * * * * * * * * * * * * * * * * * * * //

dimensions      [0 2 -1 0 0 0 0];


internalField   nonuniform List<scalar> 
171728
(
1.65575e-06
1.92767e-06
2.26525e-06
2.2619e-06
1.68132e-06
1.99573e-06
2.23638e-06
2.26196e-06
1.68201e-06
2.0639e-06
2.23051e-06
2.23888e-06
1.67729e-06
2.12635e-06
2.20754e-06
2.20443e-06
1.65187e-06
2.16134e-06
2.17401e-06
2.18295e-06
1.61533e-06
2.15994e-06
2.13313e-06
2.1634e-06
1.58566e-06
2.07512e-06
2.08004e-06
2.09805e-06
1.63225e-06
1.91637e-06
2.0459e-06
2.03297e-06
1.62441e-06
1.74886e-06
2.03107e-06
1.98028e-06
1.6527e-06
1.59896e-06
2.00782e-06
1.8985e-06
1.55031e-06
1.46779e-06
1.98679e-06
1.80315e-06
1.52713e-06
1.36435e-06
1.85013e-06
1.70399e-06
1.56865e-06
1.25552e-06
1.70266e-06
1.6048e-06
1.56491e-06
1.17977e-06
1.52143e-06
1.51311e-06
1.54454e-06
1.11158e-06
1.31542e-06
1.42606e-06
1.5377e-06
1.04303e-06
1.11847e-06
1.33351e-06
1.51045e-06
9.83313e-07
9.97849e-07
1.26023e-06
1.47524e-06
9.34911e-07
9.50503e-07
1.23326e-06
1.44486e-06
9.3711e-07
9.8773e-07
1.27214e-06
1.44012e-06
1.04285e-06
1.054e-06
1.45362e-06
1.39741e-06
1.24345e-06
1.2591e-06
1.85959e-06
1.31708e-06
1.51189e-06
1.5309e-06
2.32474e-06
1.24203e-06
2.10607e-06
2.16653e-06
4.28752e-06
1.1797e-06
2.71171e-06
2.69738e-06
4.15374e-06
1.13559e-06
4.01804e-06
4.0087e-06
1.1313e-05
1.06997e-06
5.11147e-06
5.10309e-06
8.25923e-06
9.78428e-07
6.92977e-06
7.00033e-06
2.9681e-05
9.93796e-07
9.22688e-06
9.2106e-06
5.22503e-05
9.69026e-07
1.07888e-05
1.0961e-05
7.29363e-06
9.68288e-07
1.55001e-05
1.48347e-05
5.52719e-05
1.22142e-06
1.73376e-05
1.82658e-05
5.03142e-05
1.212e-06
2.17806e-05
2.12683e-05
5.42209e-05
1.83838e-06
2.78279e-05
2.73995e-05
6.38001e-05
1.94877e-06
2.83598e-05
2.96001e-05
5.79662e-05
2.66003e-06
3.76759e-05
3.51936e-05
7.0953e-05
3.47601e-06
3.99644e-05
4.39672e-05
7.65312e-05
3.82352e-06
4.82061e-05
4.48884e-05
7.93714e-05
6.8501e-06
5.18634e-05
5.26961e-05
8.21401e-05
7.12158e-06
5.78756e-05
6.22745e-05
8.90134e-05
6.2203e-06
6.57553e-05
5.86689e-05
9.17339e-05
1.57771e-05
6.99677e-05
7.49511e-05
9.2919e-05
1.69596e-05
7.68801e-05
7.72378e-05
0.000100736
1.34603e-05
8.19337e-05
7.73653e-05
0.000105063
2.35507e-05
9.0312e-05
9.49104e-05
0.000105533
2.705e-05
9.4761e-05
9.67997e-05
0.00010913
2.47627e-05
9.97695e-05
9.40602e-05
0.0001151
3.47109e-05
0.000107445
0.000110905
0.000121293
4.15427e-05
0.000107782
0.00011191
0.000120995
3.87992e-05
0.000119202
0.000110728
0.000123441
5.84237e-05
0.000120501
0.000126094
0.000131039
5.85217e-05
0.000126429
0.000124452
0.000129097
5.37323e-05
0.00013025
0.000130807
0.000137746
7.76863e-05
0.000135463
0.000134664
0.00013722
8.02312e-05
0.000144297
0.000142906
0.000144064
8.72833e-05
0.000137576
0.000143968
0.000144565
8.8166e-05
0.000145602
0.000137581
0.000141082
9.43553e-05
0.000161269
0.000156697
0.000156272
0.000117218
0.000158754
0.000167099
0.000157999
0.000121224
0.000151655
0.000160164
0.00015144
0.000110769
0.00015629
0.000150794
0.000149853
0.000117174
0.0001743
0.000166281
0.000165808
0.000144147
0.000177861
0.00018128
0.000168573
0.0001503
0.000174033
0.000178204
0.000164787
0.00014191
0.000169154
0.000170302
0.000167354
0.000134996
0.000179252
0.000178772
0.000167765
0.000157349
0.000187571
0.000185885
0.000168329
0.000171615
0.000187562
0.000185198
0.000178653
0.000169985
0.000192291
0.00019285
0.000181389
0.000174271
0.00019152
0.000195123
0.000175186
0.000181298
0.000189573
0.000193333
0.000176859
0.000179509
0.000200338
0.000194218
0.000185698
0.000186258
0.000203028
0.000196791
0.000183853
0.000194594
0.000198513
0.000204356
0.000179875
0.000200269
0.00020297
0.000212535
0.000191932
0.000207004
0.000212868
0.000210734
0.000195929
0.000209819
0.000208541
0.000200367
0.000183579
0.000203534
0.000203501
0.000201311
0.00018155
0.000209698
0.000214567
0.00021846
0.000195897
0.000227357
0.000220263
0.00022189
0.000202175
0.000229312
0.000217357
0.000217483
0.000198109
0.000225396
0.000215629
0.000217368
0.000190473
0.000225267
0.00021681
0.000216492
0.000186619
0.000224854
0.000217531
0.000214036
0.000197124
0.000232699
0.000225202
0.000224655
0.000207875
0.000243324
0.000227672
0.000229927
0.000204338
0.000244839
0.00022219
0.000222554
0.000192012
0.000235889
0.000219844
0.000218862
0.000192054
0.000233737
0.000224749
0.000227252
0.000204718
0.000249822
0.000232485
0.000232685
0.000210983
0.000256619
0.000229959
0.000224216
0.000197802
0.000244948
0.000218325
0.000216621
0.000187017
0.000236336
0.000219517
0.000225851
0.000199908
0.000249298
0.000238045
0.000241751
0.000218418
0.000264726
0.000239978
0.00023527
0.000208218
0.000256144
0.000218919
0.000216472
0.000187336
2.24517e-06
2.79203e-06
1.88836e-06
2.3155e-06
2.03209e-06
1.72941e-06
1.64242e-06
1.4804e-06
1.47016e-06
1.51695e-06
2.30268e-06
2.06645e-06
2.32847e-06
2.67121e-06
2.44006e-06
2.26759e-06
2.24149e-06
2.25806e-06
3.03401e-06
1.69494e-06
3.33586e-06
1.61467e-06
2.31317e-06
2.26848e-06
1.71976e-06
1.67801e-06
1.68149e-06
1.6057e-06
2.04648e-06
1.978e-06
2.04916e-06
2.32726e-06
2.30287e-06
2.89775e-06
2.24056e-06
2.78207e-06
2.26447e-06
2.23722e-06
2.29158e-06
3.47893e-06
1.58883e-06
3.90001e-06
1.50178e-06
2.27252e-06
2.18846e-06
1.67351e-06
1.5718e-06
1.6482e-06
1.45358e-06
2.05081e-06
2.04609e-06
2.07092e-06
2.31367e-06
2.2627e-06
2.67266e-06
2.23232e-06
2.20821e-06
2.24299e-06
2.26894e-06
2.33304e-06
4.0294e-06
1.47192e-06
4.423e-06
1.39203e-06
2.19519e-06
2.1157e-06
1.64057e-06
1.41308e-06
1.62031e-06
1.31284e-06
2.08819e-06
2.11258e-06
2.16543e-06
2.26357e-06
2.17125e-06
2.06524e-06
2.21508e-06
1.74115e-06
2.20606e-06
2.31519e-06
2.31774e-06
4.46964e-06
1.36896e-06
4.14103e-06
1.31989e-06
2.12169e-06
2.02658e-06
1.6153e-06
1.28215e-06
1.59645e-06
1.1969e-06
2.19385e-06
2.15348e-06
2.28455e-06
2.15748e-06
2.01054e-06
1.67893e-06
2.18248e-06
1.60435e-06
2.18418e-06
2.30299e-06
2.20411e-06
3.91481e-06
1.31022e-06
3.20533e-06
1.29615e-06
2.02555e-06
1.93643e-06
1.58948e-06
1.17177e-06
1.5623e-06
1.09718e-06
2.30728e-06
2.16686e-06
2.27285e-06
1.98751e-06
1.81824e-06
1.59978e-06
2.14355e-06
1.60109e-06
2.16768e-06
2.18999e-06
2.07262e-06
2.9769e-06
1.29414e-06
2.37941e-06
1.2919e-06
1.93244e-06
1.84047e-06
1.55099e-06
1.0719e-06
1.5134e-06
1.01268e-06
2.22221e-06
2.10376e-06
2.03917e-06
1.79289e-06
1.65147e-06
1.60256e-06
2.09369e-06
1.60834e-06
2.10497e-06
2.06273e-06
1.97545e-06
2.20978e-06
1.30457e-06
1.81987e-06
1.37907e-06
1.82826e-06
1.77605e-06
1.50013e-06
1.01689e-06
1.46242e-06
1.20898e-06
1.98132e-06
1.95994e-06
1.82963e-06
1.64707e-06
1.65026e-06
1.60907e-06
2.05165e-06
1.60208e-06
2.03758e-06
1.96973e-06
1.91261e-06
1.73624e-06
1.42334e-06
1.60129e-06
1.59913e-06
1.76638e-06
1.79952e-06
1.45043e-06
1.26436e-06
1.40913e-06
1.51896e-06
1.78876e-06
1.78827e-06
1.69469e-06
1.65609e-06
1.91164e-06
1.59779e-06
2.03561e-06
1.57289e-06
1.98528e-06
1.90757e-06
1.84115e-06
1.57834e-06
1.68163e-06
1.52037e-06
2.13852e-06
1.81087e-06
2.07524e-06
1.39574e-06
1.85224e-06
1.35095e-06
4.44754e-06
1.6698e-06
1.63532e-06
1.59749e-06
1.97502e-06
2.90817e-06
1.56254e-06
2.01133e-06
1.52482e-06
1.90594e-06
1.8357e-06
1.75445e-06
1.50035e-06
2.43378e-06
1.43987e-06
3.83737e-06
2.09537e-06
2.45706e-06
1.33543e-06
5.89471e-06
1.28753e-06
1.04559e-05
1.56835e-06
1.49736e-06
1.47946e-06
2.99419e-06
4.24773e-06
1.51089e-06
1.99686e-06
1.46748e-06
1.81139e-06
1.74808e-06
1.6596e-06
1.41962e-06
4.39591e-06
1.35942e-06
5.75569e-06
2.47896e-06
2.8493e-06
1.27202e-06
1.15625e-05
1.22432e-06
1.36545e-05
1.45152e-06
1.3894e-06
1.37252e-06
4.27671e-06
4.4772e-06
1.45538e-06
1.89211e-06
1.42729e-06
1.71389e-06
1.65125e-06
1.56449e-06
1.33713e-06
6.03109e-06
1.27695e-06
6.21279e-06
2.85374e-06
2.6163e-06
1.21007e-06
1.32193e-05
1.15937e-06
6.57089e-06
1.34098e-06
1.27982e-06
1.25007e-06
4.00506e-06
2.33878e-06
1.4215e-06
1.73965e-06
1.40211e-06
1.61737e-06
1.55248e-06
1.46653e-06
1.25998e-06
5.38663e-06
1.1892e-06
3.05688e-06
2.49092e-06
1.76283e-06
1.14569e-06
5.05288e-06
1.10612e-06
2.37762e-06
1.23155e-06
1.1945e-06
1.18315e-06
2.25863e-06
1.78792e-06
1.39264e-06
1.57252e-06
1.34604e-06
1.52874e-06
1.45074e-06
1.37195e-06
1.16739e-06
2.55793e-06
1.10744e-06
1.61854e-06
1.721e-06
1.47834e-06
1.09686e-06
1.94759e-06
1.06783e-06
1.37219e-06
1.16877e-06
1.1272e-06
1.13772e-06
1.74877e-06
1.49999e-06
1.32432e-06
1.36867e-06
1.24242e-06
1.44575e-06
1.35361e-06
1.28696e-06
1.09096e-06
1.45173e-06
1.05182e-06
1.16178e-06
1.45017e-06
1.33246e-06
1.0566e-06
1.29383e-06
1.0284e-06
1.12109e-06
1.13812e-06
1.06239e-06
1.15951e-06
1.46871e-06
1.29298e-06
1.21717e-06
1.15972e-06
1.14804e-06
1.35611e-06
1.26635e-06
1.21616e-06
1.03705e-06
1.11577e-06
1.03257e-06
1.01879e-06
1.30389e-06
1.21335e-06
1.01828e-06
1.08369e-06
9.99715e-07
9.88136e-07
1.1705e-06
9.98876e-07
1.2272e-06
1.2605e-06
1.17005e-06
1.12663e-06
1.0216e-06
1.06341e-06
1.27553e-06
1.2043e-06
1.17892e-06
1.04249e-06
1.00213e-06
1.08225e-06
9.75842e-07
1.18725e-06
1.13077e-06
1.00011e-06
9.72466e-07
9.87863e-07
9.69929e-07
1.25493e-06
9.39248e-07
1.35382e-06
1.1454e-06
1.10108e-06
1.04958e-06
9.59913e-07
1.00355e-06
1.23139e-06
1.17635e-06
1.1959e-06
1.105e-06
9.83026e-07
1.20973e-06
1.00918e-06
1.12425e-06
1.10493e-06
9.88219e-07
9.66631e-07
1.0142e-06
9.92361e-07
1.39858e-06
9.32013e-07
1.53479e-06
1.09614e-06
1.09971e-06
9.93745e-07
9.69624e-07
9.97192e-07
1.25931e-06
1.21112e-06
1.3196e-06
1.22005e-06
1.01764e-06
1.38799e-06
1.13548e-06
1.1145e-06
1.26093e-06
1.00934e-06
1.00643e-06
1.10637e-06
1.06197e-06
1.58283e-06
1.02352e-06
1.82747e-06
1.11264e-06
1.1853e-06
9.93171e-07
1.02055e-06
1.04399e-06
1.38821e-06
1.38382e-06
1.57569e-06
1.42836e-06
1.16289e-06
1.53833e-06
1.30142e-06
1.31094e-06
1.54175e-06
1.13143e-06
1.11433e-06
1.24076e-06
1.25663e-06
1.90631e-06
1.18082e-06
2.11557e-06
1.2306e-06
1.53853e-06
1.07671e-06
1.2069e-06
1.16875e-06
1.73844e-06
1.70984e-06
2.18653e-06
1.66433e-06
1.36499e-06
1.69104e-06
1.5583e-06
1.6467e-06
2.03897e-06
1.35855e-06
1.30366e-06
1.47469e-06
1.52213e-06
2.20179e-06
1.41105e-06
2.4742e-06
1.60261e-06
2.04453e-06
1.25618e-06
1.46034e-06
1.35497e-06
2.16258e-06
2.18103e-06
3.7764e-06
1.7012e-06
1.68169e-06
2.50062e-06
2.14997e-06
2.18934e-06
3.51518e-06
1.52181e-06
1.61067e-06
2.12209e-06
2.12182e-06
2.49243e-06
2.00481e-06
3.02016e-06
2.21514e-06
3.45317e-06
1.48196e-06
2.01767e-06
2.04015e-06
3.92559e-06
4.31671e-06
4.53718e-06
2.49188e-06
2.22204e-06
2.6258e-06
2.62365e-06
3.84048e-06
4.45934e-06
2.21527e-06
2.22662e-06
2.63514e-06
2.52621e-06
3.07319e-06
2.48898e-06
2.8279e-06
3.77273e-06
4.32471e-06
2.15375e-06
2.44418e-06
2.23955e-06
4.1333e-06
4.93712e-06
7.78173e-06
2.79587e-06
2.85124e-06
3.95735e-06
3.86695e-06
4.85977e-06
8.31516e-06
2.7758e-06
2.84459e-06
3.75821e-06
3.87758e-06
3.02209e-06
3.66427e-06
4.00222e-06
4.75531e-06
8.65686e-06
2.43223e-06
3.76649e-06
4.33127e-06
9.50471e-06
8.67809e-06
1.17449e-05
4.38337e-06
4.24027e-06
4.72587e-06
5.01168e-06
9.22483e-06
1.14479e-05
4.21134e-06
4.0785e-06
4.54193e-06
4.82275e-06
4.70587e-06
4.80328e-06
5.07881e-06
9.31046e-06
1.06659e-05
4.63594e-06
4.6866e-06
3.63421e-06
9.33363e-06
1.17076e-05
1.82565e-05
5.29541e-06
5.3378e-06
6.99309e-06
6.43492e-06
1.19862e-05
1.60058e-05
5.09019e-06
5.31566e-06
6.8718e-06
6.54102e-06
4.6815e-06
6.27203e-06
5.78263e-06
1.13893e-05
1.69339e-05
3.33154e-06
6.48785e-06
9.22616e-06
1.73027e-05
1.98204e-05
1.97143e-05
6.97158e-06
7.03501e-06
8.27999e-06
8.77266e-06
1.70199e-05
2.38247e-05
6.86768e-06
6.89845e-06
8.33752e-06
9.02808e-06
9.90499e-06
8.86163e-06
1.39737e-05
1.79707e-05
2.24993e-05
1.30094e-05
8.86897e-06
1.37076e-05
6.38351e-05
2.1088e-05
3.20169e-05
9.21138e-06
9.27808e-06
1.12152e-05
1.08064e-05
2.52303e-05
2.80818e-05
9.33835e-06
9.54195e-06
1.09731e-05
1.05443e-05
1.23235e-05
1.03352e-05
6.69457e-06
2.40294e-05
2.85961e-05
9.90742e-06
1.00341e-05
5.48814e-06
7.31007e-06
3.29866e-05
3.5001e-05
1.17434e-05
1.12424e-05
1.35981e-05
1.40237e-05
2.90431e-05
3.68967e-05
1.15992e-05
1.14103e-05
1.35474e-05
1.43417e-05
6.62945e-06
1.39564e-05
1.73967e-05
2.93434e-05
3.66856e-05
6.19892e-06
1.43814e-05
1.93674e-05
5.10678e-05
3.63859e-05
4.43635e-05
1.45464e-05
1.53839e-05
1.71946e-05
1.72623e-05
3.88743e-05
4.51788e-05
1.41366e-05
1.47833e-05
1.737e-05
1.67595e-05
1.98828e-05
1.74743e-05
1.97167e-05
3.86826e-05
4.30664e-05
2.11123e-05
1.67068e-05
1.89788e-05
5.17267e-05
4.60762e-05
5.06388e-05
1.83878e-05
1.74032e-05
2.08445e-05
2.01804e-05
4.58943e-05
4.76366e-05
1.8788e-05
1.83149e-05
2.07623e-05
2.20191e-05
1.88606e-05
1.96739e-05
1.95905e-05
4.43453e-05
5.18092e-05
1.79893e-05
2.10588e-05
2.23352e-05
5.02622e-05
5.17207e-05
5.69632e-05
2.11214e-05
2.19659e-05
2.59258e-05
2.69958e-05
4.97082e-05
6.04049e-05
2.11859e-05
2.20078e-05
2.5622e-05
2.47469e-05
2.24557e-05
2.72489e-05
2.94224e-05
5.30071e-05
5.61863e-05
2.74918e-05
2.53591e-05
3.47658e-05
6.40595e-05
5.85273e-05
6.31809e-05
2.7774e-05
2.78807e-05
2.93359e-05
2.81108e-05
6.14231e-05
6.08551e-05
2.68174e-05
2.69805e-05
2.95517e-05
3.0174e-05
2.95789e-05
2.75491e-05
2.67738e-05
5.76495e-05
6.33472e-05
3.37701e-05
2.94051e-05
2.79059e-05
5.82337e-05
6.4026e-05
6.82621e-05
2.97904e-05
2.84846e-05
3.43711e-05
3.50087e-05
6.13645e-05
6.83483e-05
3.10147e-05
3.07109e-05
3.36196e-05
3.41784e-05
2.62115e-05
3.47097e-05
3.40771e-05
6.44118e-05
6.71446e-05
2.65376e-05
3.35087e-05
3.22072e-05
6.76677e-05
7.00501e-05
7.43787e-05
3.74747e-05
3.81942e-05
4.21007e-05
4.03124e-05
7.04097e-05
7.39327e-05
3.53515e-05
3.51917e-05
4.2724e-05
4.15235e-05
3.80831e-05
4.04985e-05
4.17263e-05
6.83328e-05
7.51365e-05
3.84489e-05
4.16734e-05
4.59876e-05
7.60741e-05
7.43199e-05
7.49444e-05
4.11363e-05
3.97964e-05
4.09392e-05
4.45862e-05
7.44652e-05
7.75328e-05
4.27972e-05
4.42185e-05
4.12329e-05
4.45741e-05
4.11425e-05
4.48889e-05
4.6315e-05
7.64814e-05
7.67899e-05
4.59516e-05
4.52419e-05
4.93506e-05
7.84208e-05
7.76497e-05
8.71952e-05
4.4799e-05
4.72443e-05
5.69713e-05
5.2648e-05
7.89215e-05
8.26356e-05
4.3608e-05
4.41473e-05
5.48395e-05
4.97509e-05
4.92642e-05
5.16009e-05
5.1347e-05
7.70582e-05
8.28393e-05
4.98409e-05
4.89285e-05
4.99284e-05
8.13887e-05
8.74988e-05
8.45381e-05
5.96555e-05
5.4007e-05
5.76782e-05
5.72417e-05
8.34238e-05
8.6366e-05
5.84816e-05
5.37137e-05
6.03369e-05
6.34257e-05
5.11393e-05
5.6428e-05
5.61542e-05
8.49241e-05
8.84665e-05
5.01569e-05
6.23271e-05
5.66229e-05
8.73592e-05
8.42477e-05
8.82779e-05
5.57376e-05
5.71631e-05
5.37465e-05
6.06507e-05
8.72495e-05
9.02347e-05
5.86423e-05
6.3414e-05
5.48932e-05
5.92894e-05
6.03442e-05
6.35308e-05
6.77359e-05
8.84576e-05
8.74973e-05
6.07557e-05
5.86082e-05
6.57742e-05
9.16891e-05
9.06711e-05
9.91356e-05
5.99936e-05
6.37101e-05
7.9074e-05
7.08817e-05
9.13221e-05
9.48757e-05
5.71194e-05
5.85975e-05
7.52325e-05
7.12434e-05
6.7477e-05
6.98051e-05
6.64567e-05
8.83051e-05
9.73321e-05
6.48684e-05
7.08497e-05
6.60295e-05
9.20708e-05
9.97074e-05
9.89969e-05
8.21265e-05
7.19689e-05
8.16828e-05
7.66691e-05
9.56022e-05
9.84062e-05
7.88732e-05
7.59451e-05
7.96974e-05
7.87094e-05
6.73829e-05
7.36251e-05
7.40222e-05
9.87437e-05
9.864e-05
6.81912e-05
7.86521e-05
7.48011e-05
9.92362e-05
9.88561e-05
9.98814e-05
7.9953e-05
7.83479e-05
7.48102e-05
7.99288e-05
9.93921e-05
0.000101751
7.82438e-05
7.70669e-05
7.63197e-05
7.38005e-05
7.67852e-05
8.20288e-05
8.54643e-05
9.81004e-05
9.87417e-05
7.65926e-05
7.44666e-05
8.44008e-05
0.00010453
0.000101332
0.000108893
7.53713e-05
8.00351e-05
9.14988e-05
8.63763e-05
0.000102238
0.000106428
7.87753e-05
7.72427e-05
9.05783e-05
9.21883e-05
8.72985e-05
8.70577e-05
8.76832e-05
0.000100707
0.000110235
8.74427e-05
9.08029e-05
8.94788e-05
0.000105357
0.000109981
0.000110188
9.5125e-05
9.06607e-05
9.57049e-05
9.74827e-05
0.000107884
0.000111146
9.42814e-05
9.60826e-05
9.61798e-05
9.74205e-05
8.71053e-05
9.52754e-05
8.92192e-05
0.000111301
0.000110665
8.83138e-05
9.81902e-05
8.81727e-05
0.000107973
0.000109871
0.000111747
9.43909e-05
9.68156e-05
9.50239e-05
9.57432e-05
0.000111307
0.000112644
9.4995e-05
9.57439e-05
9.48744e-05
9.15969e-05
9.29954e-05
9.6613e-05
0.000101707
0.000110054
0.000110259
8.96789e-05
9.2785e-05
9.66021e-05
0.000114113
0.000113376
0.000119104
9.82001e-05
9.87814e-05
0.000107846
0.000108042
0.000113723
0.00011855
9.65407e-05
9.34288e-05
0.000105799
0.00010886
0.000101763
0.000107237
0.000106589
0.000111891
0.000120647
0.000100024
0.000107463
0.000110941
0.000120221
0.000119966
0.000120264
0.000110054
0.000108557
0.000108761
0.000106703
0.000118923
0.000119445
0.000109287
0.00011153
0.000110933
0.000110622
0.000109112
0.000106889
0.000108991
0.000121448
0.00012093
0.000113841
0.000113183
0.000114382
0.000121482
0.000119979
0.000123659
0.000107492
0.000106859
0.00011166
0.00011419
0.000119827
0.000124649
0.000109807
0.000109259
0.000112624
0.000109357
0.000107941
0.000116052
0.00011248
0.000120528
0.000121456
0.000112836
0.000108865
0.000108562
0.000121789
0.000125871
0.000131843
0.000116129
0.000117923
0.000125718
0.000121737
0.000126025
0.000129119
0.000116714
0.000114041
0.000126241
0.000124997
0.000116768
0.000121286
0.000125248
0.000123183
0.00013122
0.000109129
0.000123802
0.000123345
0.000130891
0.000131681
0.000127962
0.000125776
0.000121458
0.000122008
0.000124603
0.000129031
0.000130685
0.000126609
0.000127086
0.000123016
0.000127398
0.000124953
0.000123064
0.000121329
0.000132005
0.000132052
0.00012532
0.00012543
0.000123933
0.000129117
0.000127509
0.00013419
0.000120918
0.000127145
0.000128075
0.000132566
0.000132109
0.00013631
0.000121763
0.000126168
0.000124429
0.000121833
0.000120676
0.000130836
0.00013058
0.00013164
0.000130762
0.000123383
0.000127036
0.000130484
0.000136428
0.000136141
0.000139528
0.000132012
0.000132507
0.000136865
0.000132687
0.000136212
0.000137077
0.000128934
0.000121793
0.00013557
0.000134291
0.000133641
0.000132037
0.000134444
0.000131797
0.000138947
0.000133521
0.000134138
0.000134886
0.000137599
0.000139689
0.000142448
0.000136752
0.000134842
0.00013857
0.000141985
0.000138658
0.000144753
0.000136225
0.000139035
0.000141012
0.000148456
0.000133749
0.000144186
0.000137845
0.000140336
0.000146804
0.000134182
0.000140218
0.000137208
0.000141943
0.000143557
0.000143631
0.000141249
0.000141178
0.000142526
0.000134731
0.000144443
0.000136141
0.000143512
0.000149194
0.000145563
0.000146626
0.000141928
0.000139334
0.000145722
0.000147503
0.000144226
0.000141121
0.000145243
0.000146149
0.000145376
0.000142868
0.000140272
0.000141089
0.000133261
0.000137976
0.000144298
0.00013519
0.000146698
0.000144281
0.000142217
0.000139092
0.00013324
0.000144529
0.000138671
0.000140286
0.000142935
0.000134959
0.000145176
0.000138536
0.000141074
0.000140418
0.000141497
0.000155176
0.000140107
0.000153844
0.00015806
0.000166709
0.000151138
0.000161718
0.000138321
0.000132174
0.000151473
0.00015009
0.000139909
0.00015984
0.000153492
0.00013507
0.000153169
0.000140382
0.000150188
0.000151527
0.000154223
0.000156684
0.000156556
0.000160695
0.000166956
0.00016172
0.000160071
0.000161649
0.000153988
0.000156939
0.000158333
0.000163087
0.000170133
0.000157896
0.000160373
0.000162627
0.00015662
0.000164229
0.000156513
0.000166694
0.00016318
0.000158234
0.000156191
0.000152881
0.000160865
0.000156625
0.000156654
0.000148727
0.000153043
0.000145515
0.000162949
0.000170673
0.000160093
0.000165849
0.000162527
0.000153106
0.0001584
0.000164242
0.000156914
0.00016328
0.000163591
0.000159488
0.000152393
0.000152324
0.000151134
0.000155014
0.000146968
0.000151518
0.000147677
0.00014462
0.000150005
0.0001589
0.000161865
0.000155632
0.000150865
0.000156148
0.000151447
0.000151835
0.00015556
0.00014596
0.000157048
0.000152104
0.00015225
0.000148555
0.000152047
0.000160552
0.000152193
0.000154363
0.000165893
0.000172733
0.000153302
0.000167487
0.000154925
0.000149041
0.000161122
0.000154025
0.000152039
0.000171032
0.000167346
0.000145156
0.00015624
0.000151879
0.000159481
0.000165953
0.000163705
0.000162449
0.000170333
0.000170278
0.000176743
0.000179237
0.000181583
0.000169131
0.00017087
0.000165418
0.000162689
0.000177233
0.000180871
0.00017169
0.000177886
0.000177275
0.000160137
0.000173015
0.00017084
0.000179734
0.000177551
0.00016883
0.000170899
0.000168864
0.000180378
0.00018165
0.000179866
0.000177173
0.000170559
0.000165411
0.000179216
0.000183465
0.000180155
0.000184105
0.000177131
0.000175565
0.000174777
0.000173732
0.000170667
0.000177635
0.000180758
0.000175458
0.000165077
0.000167979
0.000160131
0.000177538
0.000174351
0.000169204
0.000167916
0.000164621
0.000159774
0.000179302
0.000182069
0.000171741
0.000173462
0.00017419
0.000169902
0.00017442
0.000169628
0.000162076
0.000174697
0.000171221
0.000173895
0.000166657
0.00015942
0.000165946
0.000167908
0.000166961
0.000171671
0.000174408
0.000159522
0.000168158
0.000170223
0.000171927
0.0001703
0.000171294
0.00017571
0.000175656
0.00017724
0.000161514
0.000166929
0.000174778
0.000174787
0.000177391
0.000168204
0.000168776
0.000176576
0.00017745
0.0001792
0.000187984
0.00018806
0.000170342
0.000176091
0.000175187
0.000174953
0.000186747
0.000185161
0.000176989
0.000186661
0.000178169
0.000168977
0.000174409
0.000177403
0.00018547
0.000177715
0.00016744
0.000176759
0.000175594
0.00018935
0.000189185
0.000189503
0.000189562
0.000176217
0.000175801
0.000188441
0.000186724
0.000188958
0.000187152
0.000180103
0.000187558
0.000188506
0.00017443
0.000173477
0.000179133
0.00018513
0.000187506
0.000176983
0.000175284
0.000176068
0.00018914
0.000189402
0.000188588
0.00018988
0.000175721
0.000178055
0.000188517
0.000186753
0.000187694
0.000187471
0.000190999
0.00019102
0.000194174
0.000173334
0.000177378
0.00019051
0.00019099
0.000195056
0.000181692
0.000176797
0.000180233
0.000189182
0.000190927
0.000193447
0.000192052
0.000178519
0.000177797
0.000188364
0.000189612
0.000194291
0.000195613
0.000194126
0.000192505
0.000190441
0.000178476
0.000181255
0.000195127
0.000195183
0.000192356
0.000175944
0.000180195
0.000178817
0.000193786
0.000191552
0.000192743
0.000189777
0.000177279
0.000175773
0.000195356
0.000196711
0.000195568
0.00019735
0.00018909
0.000189328
0.00018825
0.000181222
0.000180535
0.000190816
0.000193739
0.000188839
0.00017545
0.000178459
0.000179837
0.000192351
0.000189906
0.000194798
0.000197082
0.000176298
0.00018321
0.000194936
0.000197078
0.000193028
0.000192675
0.000190818
0.000198027
0.000200689
0.000180289
0.000178727
0.000189242
0.000193258
0.000197674
0.000185209
0.000180493
0.000183957
0.00019684
0.000199392
0.000200783
0.000202814
0.000184338
0.000186729
0.000192833
0.000191213
0.000197668
0.000189652
0.000201912
0.00020308
0.000201884
0.000178236
0.000177642
0.000199598
0.000195785
0.000201477
0.000184529
0.000184081
0.00018429
0.000201132
0.000202845
0.000200579
0.000200235
0.000186516
0.000182268
0.000199091
0.000192433
0.000201725
0.000203798
0.000200658
0.000199568
0.000196866
0.000178384
0.000186551
0.000200859
0.000202124
0.00019865
0.000180099
0.000184487
0.000188382
0.000200488
0.000199273
0.000203885
0.000199522
0.00018159
0.000183917
0.00020299
0.000207037
0.000207425
0.0002147
0.000196494
0.000199091
0.000204688
0.000188298
0.000196042
0.00019844
0.000211192
0.000206183
0.000190019
0.000189043
0.000190868
0.000205687
0.000202806
0.000209565
0.000211318
0.000185942
0.000193768
0.000208651
0.000215754
0.000210449
0.000213983
0.000208964
0.000212086
0.00021488
0.000196322
0.000192648
0.000209838
0.000212908
0.000214301
0.000196827
0.00019077
0.000189246
0.000210066
0.000212122
0.000210055
0.000210907
0.000193841
0.000189656
0.000210598
0.000210764
0.000208036
0.0002012
0.000215006
0.000211052
0.000207655
0.000191189
0.000181442
0.000214148
0.000202502
0.000205835
0.000185256
0.000188562
0.000184194
0.00020916
0.000208748
0.000204744
0.000204503
0.000188386
0.000184149
0.000206153
0.000198689
0.000201681
0.000196272
0.000204346
0.000203861
0.000199679
0.000180173
0.000180924
0.000202775
0.000198585
0.000199185
0.000180419
0.000183765
0.000192271
0.000204146
0.000204183
0.000209759
0.000211419
0.000184259
0.000193644
0.000201276
0.000198944
0.000210866
0.00021446
0.000199586
0.000211121
0.000211347
0.00018314
0.000196471
0.000199912
0.000215291
0.000213114
0.000194141
0.000194071
0.000199631
0.000213625
0.00021469
0.000220354
0.000219211
0.000195144
0.000198275
0.000214832
0.00021822
0.000221621
0.000222743
0.000215462
0.000219928
0.000223789
0.000197827
0.000200313
0.000216739
0.000221853
0.000223223
0.000202107
0.000199532
0.000195873
0.000220803
0.000219389
0.000218857
0.000217264
0.000197941
0.00019447
0.000222085
0.000222892
0.000219666
0.000218836
0.000224811
0.000218514
0.000223428
0.000199726
0.000195155
0.000223959
0.00021831
0.000222182
0.000199176
0.000195229
0.000193678
0.000217517
0.000216506
0.000215839
0.000216077
0.000194049
0.000194056
0.000218085
0.000217717
0.000215957
0.000217007
0.000220667
0.000215664
0.000213599
0.00019476
0.00019523
0.000220119
0.000217166
0.000214911
0.000191581
0.000193661
0.000195619
0.000215865
0.000216374
0.000217775
0.000218273
0.000194268
0.000195857
0.000215943
0.00021723
0.000217425
0.00021756
0.000211509
0.00021672
0.000208422
0.000195395
0.000195326
0.000213166
0.000217263
0.000209757
0.00018662
0.000195516
0.000193997
0.000218055
0.000218273
0.000216931
0.000216925
0.000195627
0.000194116
0.000217689
0.000217201
0.000216591
0.000214706
0.000208492
0.00021667
0.000217778
0.000194753
0.000191645
0.000209339
0.000213994
0.000215841
0.000195306
0.000193575
0.000197378
0.000216552
0.000216704
0.000219618
0.000220755
0.000193924
0.000199122
0.000216253
0.000214532
0.000219861
0.000220941
0.000221172
0.000223293
0.000230563
0.00019148
0.000199067
0.00021924
0.000221844
0.00022892
0.000207259
0.00019841
0.000203044
0.000221909
0.000223
0.000227336
0.000227017
0.000199981
0.000202683
0.00022206
0.000223601
0.00022739
0.000228374
0.000232175
0.000227664
0.000232349
0.000200238
0.00020452
0.000231152
0.000229496
0.000233386
0.000206208
0.000203192
0.00020226
0.000228238
0.000227472
0.000228486
0.000225848
0.000202401
0.000199114
0.00022828
0.000228844
0.000228321
0.000225439
0.000228735
0.000223418
0.000218495
0.000204353
0.000198889
0.000231606
0.000224938
0.000220802
0.000193412
0.000201365
0.000195132
0.000226605
0.000224576
0.00022049
0.000221113
0.000198634
0.00019646
0.000226327
0.000223383
0.000220102
0.000219612
0.000216182
0.000220055
0.000214375
0.000197813
0.000194773
0.000217822
0.000218926
0.000214483
0.000190724
0.000194244
0.000195142
0.000218902
0.000220219
0.000218091
0.000220079
0.00019608
0.000197778
0.000218713
0.000219385
0.000218476
0.000222957
0.000216025
0.000222914
0.000226823
0.000194814
0.000200811
0.000214994
0.000224403
0.000225884
0.000203211
0.000196662
0.000205352
0.000220193
0.000222086
0.000229976
0.000229804
0.00019866
0.000204984
0.000221081
0.000225381
0.0002303
0.000230802
0.000230284
0.000231123
0.000236191
0.000201821
0.00020607
0.000229902
0.000232142
0.000236391
0.000211412
0.00020596
0.000207024
0.000232204
0.000231725
0.00023515
0.000234081
0.000205505
0.000205609
0.000232182
0.000231558
0.00023451
0.000229718
0.000236859
0.000232947
0.000228323
0.000205904
0.000200566
0.000236974
0.000227046
0.000227245
0.000199946
0.000205906
0.000197774
0.000234259
0.000232661
0.000224766
0.000222819
0.000204244
0.000195135
0.000233105
0.000227372
0.000224541
0.000220609
0.000224434
0.000220632
0.000214758
0.000199314
0.00019304
0.000223039
0.000217407
0.00021365
0.00018788
0.000196475
0.000192448
0.000221883
0.000219991
0.000217311
0.000217099
0.000193836
0.000192858
0.000221976
0.000219143
0.000217905
0.00021901
0.00021355
0.000216919
0.000218768
0.000192355
0.000196949
0.000212726
0.000221533
0.000220849
0.000197136
0.000192594
0.00020331
0.000217243
0.000218005
0.000227323
0.000231269
0.000194445
0.000207843
0.000217891
0.000222142
0.000227639
0.000234519
0.000224432
0.000234073
0.000241511
0.000198874
0.000211277
0.000226685
0.000239193
0.0002438
0.000217239
0.000204881
0.000211479
0.000231943
0.000235582
0.000239279
0.000241262
0.000209378
0.000212848
0.000231966
0.000237562
0.000238924
0.000240967
0.000244939
0.000242783
0.000245849
0.000212247
0.000210271
0.000246806
0.000241895
0.000244713
0.000212667
0.000210691
0.00020071
0.000239568
0.000240096
0.000230387
0.000226048
0.000210201
0.000195163
0.000239147
0.000237465
0.000230501
0.000224543
0.000238013
0.000223542
0.000217529
0.000207186
0.00019345
0.000236037
0.000220269
0.000215684
0.000187314
0.000201211
0.000225594
0.000221136
0.000195471
0.000225854
0.000220196
0.00024824
0.000244747
0.000237216
0.000212447
0.000194241
0.000211003
2.39338e-06
2.16074e-06
1.05385e-06
1.1761e-06
1.30444e-06
2.23179e-06
5.53482e-07
1.3347e-06
1.23128e-06
2.51878e-06
1.37373e-06
1.71582e-06
2.27598e-06
1.80637e-06
2.93708e-06
1.04946e-06
1.42491e-05
9.96264e-07
1.60791e-05
1.07972e-05
1.30454e-05
1.34883e-06
1.32749e-05
1.26253e-06
1.50165e-05
1.49061e-06
1.47117e-06
1.52797e-06
1.67886e-06
1.50819e-06
1.46964e-06
1.5324e-06
1.2729e-06
3.74317e-07
1.69201e-06
1.94407e-06
1.28314e-06
4.90629e-07
1.70255e-06
1.07797e-05
1.30495e-05
1.24095e-06
1.75927e-06
5.35822e-07
2.25308e-06
1.22781e-06
1.76701e-06
6.57284e-07
1.43841e-06
1.55736e-06
2.2606e-06
1.68155e-06
1.77344e-06
1.21692e-06
1.94503e-05
1.12377e-06
2.19747e-05
1.70567e-05
1.92407e-05
1.53972e-06
1.82477e-05
1.45003e-06
2.05313e-05
1.50524e-06
1.46718e-06
1.52931e-06
1.68174e-06
1.498e-06
1.46928e-06