/*--------------------------------*- C++ -*----------------------------------*\
| =========                 |                                                 |
| \\      /  F ield         | OpenFOAM: The Open Source CFD Toolbox           |
|  \\    /   O peration     | Version:  v2012                                 |
|   \\  /    A nd           | Website:  www.openfoam.com                      |
|    \\/     M anipulation  |                                                 |
\*---------------------------------------------------------------------------*/
FoamFile
{
    version     2.0;
    format      ascii;
    class       volScalarField;
    location    "1462.5";
    object      p;
}
// * * * * * * * * * * * * * * * * * * * * * * * * * * * * * * * * * * * * * //

dimensions      [0 2 -2 0 0 0 0];


internalField   nonuniform List<scalar> 
171728
(
0.00351947
0.00351838
0.00351839
0.00351921
0.00348394
0.00348244
0.00348244
0.00348533
0.0034454
0.00344346
0.00344352
0.00344585
0.00340131
0.00339962
0.00339962
0.00340187
0.00335327
0.00335179
0.00335183
0.00335411
0.00330438
0.0033031
0.00330309
0.00330544
0.00325612
0.00325495
0.00325492
0.00325731
0.00320879
0.00320773
0.00320774
0.00321011
0.00316246
0.00316154
0.00316154
0.00316391
0.00311711
0.00311631
0.0031163
0.00311868
0.00307266
0.00307199
0.003072
0.00307434
0.003029
0.00302844
0.00302846
0.00303078
0.00298588
0.00298541
0.00298535
0.00298774
0.0029432
0.0029428
0.00294291
0.00294516
0.00290085
0.00290065
0.00290061
0.00290284
0.00285879
0.00285861
0.00285857
0.00286085
0.00281705
0.00281686
0.0028168
0.00281918
0.0027757
0.00277563
0.00277556
0.00277782
0.0027347
0.0027347
0.0027347
0.00273665
0.00269403
0.00269404
0.00269414
0.00269582
0.00265372
0.00265383
0.00265382
0.00265564
0.00261375
0.00261387
0.00261388
0.00261565
0.00257399
0.0025742
0.0025742
0.00257574
0.00253457
0.00253489
0.0025349
0.00253643
0.00249533
0.00249572
0.00249571
0.00249724
0.00245642
0.00245687
0.00245685
0.00245806
0.00241763
0.00241811
0.00241805
0.00242212
0.002379
0.0023794
0.00237944
0.00237818
0.00234079
0.00234147
0.00234147
0.00234465
0.00230268
0.0023033
0.00230322
0.00230532
0.00226466
0.00226524
0.0022653
0.00226676
0.0022269
0.00222765
0.00222763
0.00222975
0.00218907
0.00218964
0.00218969
0.00219139
0.00215162
0.00215233
0.00215214
0.0021541
0.00211435
0.00211504
0.00211521
0.00211697
0.002077
0.00207763
0.00207754
0.00207951
0.00204002
0.00204053
0.00204053
0.00204232
0.0020029
0.00200343
0.00200341
0.00200549
0.00196602
0.00196649
0.00196638
0.00196826
0.00192964
0.00192985
0.00193004
0.00193183
0.00189281
0.00189308
0.00189291
0.00189518
0.00185609
0.00185643
0.00185648
0.00185843
0.00182005
0.00182021
0.00182033
0.00182204
0.00178385
0.0017838
0.00178361
0.00178611
0.00174739
0.00174767
0.00174772
0.00174966
0.00171179
0.00171169
0.00171189
0.00171377
0.00167601
0.00167583
0.00167555
0.00167777
0.00163976
0.00163995
0.00164
0.00164209
0.00160483
0.00160431
0.00160456
0.00160652
0.00156899
0.00156894
0.00156863
0.00157077
0.00153328
0.00153325
0.00153337
0.0015356
0.00149855
0.00149806
0.00149818
0.00149994
0.00146325
0.00146312
0.00146304
0.00146513
0.00142786
0.00142717
0.00142742
0.00142947
0.00139249
0.00139289
0.00139223
0.00139431
0.00135839
0.00135799
0.00135855
0.00136038
0.00132345
0.00132247
0.00132282
0.00132467
0.00128819
0.00128812
0.00128751
0.00128966
0.00125313
0.00125342
0.00125304
0.00125521
0.00121844
0.00121862
0.00121889
0.00122081
0.00118495
0.00118379
0.00118434
0.00118581
0.0011502
0.00114978
0.0011495
0.00115147
0.00111477
0.00111506
0.00111477
0.00111705
0.00107973
0.00107997
0.00107999
0.00108183
0.00104558
0.00104485
0.00104509
0.00104683
0.00101118
0.00101077
0.00101082
0.00101282
0.000976821
0.000976936
0.000977033
0.000978835
0.000942335
0.000942075
0.000942076
0.000943896
0.000907668
0.000907389
0.000907275
0.000909303
0.000872804
0.000873177
0.000872915
0.000875093
0.000838451
0.000838097
0.000838311
0.000840085
0.000803997
0.000803369
0.0008039
0.000805426
0.000769747
0.00076989
0.000769563
0.000771793
0.000735367
0.000735533
0.000734997
0.000737194
0.000700045
0.000699616
0.000699815
0.000701549
0.000665008
0.000665113
0.000665522
0.000667358
0.000631649
0.000631693
0.000631748
0.000633724
0.000597183
0.000596707
0.000596476
0.000598444
0.000561355
0.000561271
0.000561212
0.000563147
0.000526738
0.000526864
0.000526868
0.000528822
0.000492353
0.000492386
0.000492347
0.000494419
0.000457091
0.000457175
0.000457183
0.000459409
0.000422087
0.000421927
0.000422061
0.000423788
0.000387492
0.000387054
0.00038708
0.000388815
0.000352272
0.000352208
0.000352093
0.000354148
0.00031671
0.000317101
0.000317059
0.00031928
0.000281722
0.00028175
0.000281933
0.000283933
0.000247051
0.000246619
0.000246518
0.000248354
0.00021114
0.000210951
0.000210836
0.000212745
0.000174917
0.000175077
0.000175268
0.000177357
0.000139816
0.000140194
0.000140261
0.000142386
0.000105498
0.000105335
0.000105097
0.000106975
6.96694e-05
6.90563e-05
6.9002e-05
7.078e-05
3.30798e-05
3.24195e-05
3.26535e-05
3.45561e-05
4.99048e-06
6.491e-06
6.61751e-06
4.92445e-06
0.00352387
0.00352144
0.0035215
0.00352384
0.00352139
0.00352157
0.00352781
0.00352782
0.00352782
0.00352786
0.00352138
0.00352154
0.00352392
0.00352146
0.00352163
0.00352412
0.00351912
0.00349011
0.00351842
0.00351848
0.00349194
0.00349185
0.00351909
0.0034901
0.00351841
0.00351847
0.00349192
0.00349186
0.0035184
0.00349197
0.00349191
0.00351917
0.00349015
0.00351836
0.00349201
0.00349191
0.00349015
0.00348534
0.00345138
0.00348254
0.00348252
0.00345364
0.00345366
0.00348532
0.00345137
0.0034825
0.00348254
0.00345367
0.0034537
0.00348255
0.00345374
0.00345365
0.00348539
0.0034514
0.00348288
0.00345364
0.00345348
0.00345139
0.00344586
0.00340806
0.00344358
0.00344357
0.00341107
0.00341111
0.0034458
0.00340813
0.00344353
0.00344359
0.0034111
0.00341109
0.00344346
0.00341117
0.00341114
0.00344587
0.00340805
0.0034434
0.00341108
0.00341105
0.00340805
0.00340189
0.00336059
0.00339968
0.00339968
0.00336391
0.00336394
0.00340194
0.0033606
0.00339962
0.00339965
0.00336397
0.00336395
0.00339961
0.00336396
0.00336397
0.00340188
0.00336059
0.00339962
0.00336392
0.00336389
0.00336055
0.00335413
0.00331187
0.00335184
0.0033518
0.00331523
0.00331526
0.00335413
0.00331189
0.00335179
0.00335182
0.00331524
0.00331527
0.00335185
0.00331523
0.00331528
0.00335414
0.00331191
0.00335183
0.00331522
0.00331521
0.00331189
0.00330543
0.00326363
0.00330305
0.00330309
0.00326687
0.0032669
0.00330544
0.00326361
0.0033031
0.00330311
0.0032669
0.0032669
0.00330307
0.00326688
0.00326691
0.00330547
0.00326364
0.00330307
0.0032669
0.00326688
0.00326364
0.00325729
0.00321629
0.00325489
0.00325495
0.00321941
0.00321943
0.00325729
0.00321627
0.00325494
0.00325498
0.00321944
0.00321948
0.00325489
0.00321944
0.00321946
0.00325733
0.00321629
0.00325493
0.00321944
0.00321943
0.00321629
0.0032101
0.00316996
0.00320769
0.00320776
0.00317301
0.00317301
0.0032101
0.00316994
0.00320772
0.00320777
0.003173
0.00317302
0.00320773
0.00317301
0.00317301
0.00321013
0.00316997
0.00320775
0.003173
0.00317301
0.00316995
0.00316392
0.0031246
0.00316153
0.00316158
0.00312751
0.00312755
0.00316391
0.00312459
0.00316154
0.00316152
0.00312753
0.00312749
0.00316155
0.00312755
0.00312754
0.00316394
0.0031246
0.00316157
0.00312754
0.00312756
0.00312459
0.00311869
0.00308014
0.00311631
0.00311633
0.00308299
0.00308301
0.00311868
0.00308014
0.00311632
0.00311628
0.00308298
0.00308292
0.00311629
0.003083
0.00308297
0.00311869
0.00308009
0.00311632
0.00308298
0.00308299
0.00308012
0.00307436
0.00303643
0.00307198
0.00307199
0.00303925
0.00303926
0.00307435
0.00303646
0.00307197
0.00307191
0.00303925
0.00303926
0.00307201
0.00303924
0.0030393
0.00307431
0.00303643
0.00307201
0.00303921
0.00303931
0.00303647
0.00303076
0.00299335
0.00302845
0.00302844
0.00299614
0.00299613
0.00303081
0.00299331
0.00302843
0.0030284
0.00299613
0.00299607
0.00302841
0.00299611
0.00299612
0.00303076
0.00299328
0.00302842
0.00299602
0.00299611
0.00299333
0.00298774
0.0029507
0.00298538
0.00298544
0.0029534
0.00295345
0.00298772
0.00295064
0.0029854
0.0029854
0.00295342
0.00295344
0.00298544
0.00295346
0.00295354
0.00298766
0.00295073
0.00298545
0.00295354
0.00295354
0.00295071
0.00294519
0.00290836
0.00294292
0.00294278
0.00291117
0.00291111
0.00294509
0.00290841
0.00294292
0.00294282
0.00291119
0.00291122
0.00294286
0.00291117
0.00291119
0.00294519
0.00290839
0.00294284
0.00291116
0.00291117
0.00290838
0.00290289
0.00286627
0.00290063
0.00290062
0.00286916
0.00286904
0.00290292
0.00286633
0.00290064
0.00290067
0.00286916
0.00286906
0.00290048
0.002869
0.002869
0.00290288
0.0028663
0.00290049
0.00286908
0.002869
0.00286625
0.00286081
0.00282449
0.00285854
0.00285864
0.0028274
0.00282727
0.00286092
0.00282447
0.00285852
0.00285854
0.00282741
0.00282729
0.00285859
0.00282728
0.00282738
0.00286088
0.00282449
0.0028586
0.00282728
0.0028274
0.00282454
0.00281905
0.00278309
0.00281683
0.00281688
0.00278595
0.002786
0.0028191
0.00278308
0.00281682
0.00281679
0.00278595
0.00278594
0.00281696
0.00278598
0.00278601
0.00281911
0.00278307
0.00281698
0.00278593
0.00278605
0.00278316
0.00277773
0.00274199
0.00277557
0.00277563
0.00274487
0.00274489
0.00277775
0.00274206
0.00277555
0.00277557
0.00274488
0.0027449
0.00277567
0.00274487
0.00274485
0.00277775
0.00274195
0.00277563
0.0027449
0.00274485
0.00274191
0.00273678
0.00270117
0.00273465
0.00273472
0.00270423
0.00270418
0.00273683
0.00270121
0.00273464
0.0027347
0.00270428
0.00270422
0.00273471
0.00270421
0.00270421
0.00273673
0.00270127
0.00273463
0.00270422
0.00270419
0.00270105
0.00269601
0.00266071
0.00269405
0.00269403
0.00266391
0.00266387
0.00269602
0.00266068
0.00269409
0.00269413
0.00266394
0.00266382
0.00269414
0.0026639
0.00266391
0.00269606
0.00266077
0.00269405
0.00266382
0.00266389
0.00266071
0.00265561
0.00262071
0.00265387
0.00265382
0.00262377
0.00262382
0.00265557
0.00262058
0.00265394
0.00265383
0.00262375
0.00262379
0.00265397
0.00262382
0.00262376
0.00265564
0.0026206
0.00265381
0.0026238
0.0026238
0.00262066
0.00261556
0.00258086
0.00261387
0.00261386
0.00258416
0.00258414
0.00261549
0.00258084
0.00261388
0.00261386
0.00258419
0.00258414
0.00261395
0.00258414
0.00258404
0.00261553
0.00258082
0.00261387
0.00258415
0.00258412
0.00258084
0.00257585
0.0025414
0.0025742
0.0025742
0.0025447
0.0025447
0.00257584
0.00254141
0.00257421
0.0025742
0.0025447
0.00254468
0.00257419
0.00254469
0.00254472
0.00257579
0.00254139
0.0025742
0.00254468
0.00254472
0.00254142
0.00253643
0.00250234
0.00253486
0.00253487
0.00250557
0.00250554
0.00253646
0.00250236
0.00253485
0.00253489
0.00250556
0.00250549
0.00253491
0.00250553
0.00250548
0.00253646
0.00250231
0.00253485
0.00250548
0.0025055
0.00250221
0.00249743
0.00246322
0.0024958
0.00249574
0.00246644
0.0024665
0.00249737
0.00246336
0.0024958
0.00249571
0.00246645
0.00246649
0.00249571
0.00246653
0.00246648
0.00249729
0.00246341
0.00249561
0.00246652
0.00246659
0.00246312
0.00245837
0.00242485
0.00245683
0.00245684
0.00242774
0.00242775
0.00245846
0.00242478
0.00245682
0.00245683
0.00242774
0.00242775
0.0024568
0.00242779
0.00242819
0.00245855
0.00242475
0.00245683
0.00242776
0.00242822
0.00242709
0.00241976
0.00238632
0.00241804
0.00241811
0.00238919
0.00238911
0.00241988
0.00238621
0.00241803
0.00241807
0.00238921
0.00238914
0.00241819
0.00238902
0.00238868
0.00241977
0.00238624
0.00241795
0.00238908
0.0023885
0.00238377
0.00238151
0.00234802
0.00237957
0.00237948
0.00235083
0.00235088
0.00238122
0.00234803
0.00237958
0.0023795
0.00235083
0.00235087
0.00237895
0.00235094
0.0023513
0.0023813
0.00234803
0.00237904
0.00235092
0.00235155
0.00234897
0.00234306
0.00231004
0.00234133
0.00234137
0.00231281
0.00231282
0.00234321
0.00231018
0.00234133
0.00234137
0.0023128
0.00231275
0.00234181
0.00231287
0.00231275
0.00234319
0.00231016
0.00234196
0.00231277
0.00231258
0.0023105
0.00230518
0.00227212
0.00230329
0.00230328
0.00227478
0.00227471
0.00230522
0.00227196
0.0023033
0.00230323
0.00227481
0.0022748
0.0023031
0.00227465
0.00227458
0.00230522
0.00227208
0.0023029
0.00227477
0.00227465
0.00227156
0.00226717
0.0022343
0.00226529
0.00226528
0.00223697
0.00223706
0.00226705
0.00223443
0.00226532
0.00226533
0.00223696
0.00223696
0.00226526
0.00223709
0.00223717
0.0022672
0.00223436
0.00226537
0.00223703
0.00223731
0.00223471
0.00222942
0.00219655
0.00222758
0.00222762
0.00219925
0.00219918
0.00222956
0.00219648
0.00222756
0.00222753
0.00219923
0.00219924
0.00222771
0.00219914
0.00219903
0.00222944
0.00219652
0.00222774
0.00219921
0.00219882
0.00219633
0.00219163
0.00215897
0.00218976
0.0021897
0.00216155
0.0021616
0.00219154
0.00215896
0.00218978
0.00218979
0.0021616
0.00216151
0.00218952
0.00216161
0.00216157
0.00219159
0.00215893
0.00218933
0.00216139
0.0021615
0.00215891
0.0021541
0.00212171
0.00215229
0.00215233
0.00212438
0.00212438
0.0021541
0.00212173
0.00215227
0.00215219
0.00212437
0.00212438
0.0021523
0.0021244
0.00212447
0.00215407
0.00212182
0.00215232
0.00212452
0.0021246
0.00212187
0.00211679
0.00208435
0.00211496
0.002115
0.00208684
0.00208692
0.00211685
0.00208443
0.00211502
0.00211507
0.00208684
0.00208694
0.00211514
0.00208694
0.00208692
0.00211695
0.00208431
0.00211519
0.00208695
0.00208689
0.00208442
0.00207953
0.00204754
0.00207763
0.00207762
0.00205009
0.0020498
0.00207953
0.00204721
0.00207756
0.00207754
0.00205003
0.00204976
0.00207758
0.00204982
0.00204978
0.00207941
0.0020473
0.00207756
0.00204971
0.00204969
0.00204716
0.00204259
0.00200986
0.0020407
0.00204056
0.0020124
0.00201273
0.00204236
0.00201025
0.00204072
0.0020406
0.0020125
0.00201277
0.00204051
0.00201267
0.0020127
0.00204246
0.00201016
0.00204043
0.00201275
0.00201275
0.00201035
0.002005
0.00197346
0.0020031
0.00200341
0.00197582
0.00197556
0.00200535
0.00197323
0.00200316
0.00200339
0.00197568
0.0019755
0.00200349
0.00197569
0.00197572
0.00200523
0.00197317
0.00200355
0.00197554
0.00197571
0.00197315
0.00196867
0.00193673
0.00196679
0.00196641
0.00193915
0.00193913
0.00196839
0.00193664
0.00196664
0.00196635
0.00193919
0.00193918
0.00196642
0.001939
0.00193886
0.00196838
0.00193691
0.0019664
0.00193916
0.00193887
0.00193661
0.00193178
0.00189962
0.00192979
0.00192998
0.00190198
0.00190226
0.00193184
0.00189998
0.00192991
0.00193008
0.00190202
0.0019022
0.00192976
0.00190226
0.0019024
0.00193205
0.00189971
0.00192981
0.00190222
0.00190241
0.00190006
0.0018948
0.00186351
0.00189287
0.00189304
0.00186564
0.00186551
0.00189509
0.00186322
0.00189285
0.00189288
0.00186562
0.00186548
0.00189321
0.0018656
0.00186561
0.00189483
0.00186336
0.00189319
0.00186547
0.00186561
0.00186327
0.00185871
0.00182715
0.00185657
0.00185638
0.00182938
0.00182928
0.0018584
0.00182709
0.00185658
0.00185649
0.00182938
0.0018295
0.00185644
0.00182921
0.00182903
0.00185859
0.0018272
0.00185646
0.00182947
0.00182906
0.00182682
0.00182228
0.0017905
0.00182029
0.00182029
0.00179273
0.00179295
0.0018223
0.00179065
0.00182026
0.00182034
0.00179278
0.00179273
0.00181999
0.00179294
0.00179305
0.0018223
0.00179044
0.00181997
0.00179275
0.001793
0.00179091
0.00178569
0.00175459
0.00178364
0.00178375
0.00175669
0.00175653
0.0017858
0.00175453
0.00178366
0.00178358
0.00175663
0.00175663
0.00178405
0.00175661
0.00175673
0.00178564
0.00175461
0.00178401
0.0017566
0.00175675
0.0017545
0.00174982
0.00171863
0.00174774
0.00174762
0.00172079
0.00172078
0.00174977
0.00171854
0.00174768
0.00174777
0.00172082
0.00172098
0.00174756
0.00172072
0.0017206
0.00174986
0.00171877
0.00174765
0.00172096
0.00172066
0.00171852
0.00171382
0.0016825
0.00171175
0.00171173
0.00168465
0.00168471
0.00171373
0.00168267
0.00171182
0.00171184
0.00168472
0.00168442
0.00171174
0.00168475
0.00168477
0.00171388
0.00168235
0.00171171
0.00168455
0.00168467
0.00168257
0.00167772
0.00164693
0.00167563
0.00167577
0.00164891
0.00164895
0.0016779
0.00164685
0.00167565
0.00167552
0.00164882
0.00164907
0.0016757
0.00164893
0.00164888
0.00167761
0.00164697
0.00167563
0.00164886
0.00164879
0.00164685
0.00164219
0.00161118
0.0016401
0.00164001
0.00161344
0.00161319
0.00164207
0.00161109
0.00164003
0.00164021
0.00161345
0.00161328
0.00164002
0.00161316
0.00161339
0.00164223
0.00161123
0.00163995
0.00161346
0.00161356
0.0016113
0.00160636
0.00157546
0.00160439
0.00160428
0.00157741
0.00157776
0.00160636
0.00157573
0.00160442
0.00160431
0.00157741
0.00157751
0.0016044
0.00157779
0.00157748
0.00160644
0.00157546
0.00160464
0.00157755
0.00157747
0.0015755
0.00157075
0.00154039
0.00156863
0.00156892
0.00154245
0.00154222
0.00157096
0.00154014
0.00156855
0.00156863
0.00154234
0.00154214
0.0015687
0.0015422
0.00154244
0.0015707
0.0015402
0.00156856
0.00154216
0.00154227
0.00154033
0.00153567
0.00150476
0.00153365
0.00153326
0.00150681
0.00150672
0.00153538
0.00150477
0.00153362
0.00153335
0.00150705
0.0015072
0.00153359
0.00150674
0.00150667
0.00153549
0.00150501
0.00153353
0.00150699
0.00150684
0.00150467
0.00150003
0.0014697
0.00149783
0.00149806
0.00147169
0.00147203
0.00150006
0.00146984
0.00149809
0.00149849
0.00147167
0.00147172
0.00149778
0.00147201
0.00147185
0.00150031
0.00146967
0.0014979
0.00147178
0.00147177
0.00146981
0.00146497
0.00143418
0.00146303
0.00146314
0.00143648
0.00143599
0.00146509
0.00143408
0.00146292
0.0014628
0.00143632
0.00143598
0.00146323
0.00143611
0.00143648
0.0014649
0.00143413
0.00146312
0.00143641
0.00143657
0.00143431
0.00142936
0.00139912
0.00142745
0.00142712
0.00140103
0.00140156
0.0014293
0.00139946
0.00142738
0.00142713
0.00140084
0.00140095
0.00142736
0.00140132
0.00140083
0.00142935
0.00139895
0.00142748
0.00140081
0.00140078
0.00139892
0.00139456
0.00136515
0.00139256
0.00139316
0.00136716
0.0013669
0.00139489
0.00136472
0.0013923
0.00139248
0.00136722
0.00136735
0.00139235
0.00136701
0.00136714
0.00139432
0.00136525
0.00139222
0.00136703
0.00136699
0.00136503
0.00136043
0.00132918
0.00135833
0.0013577
0.00133117
0.00133079
0.0013599
0.00132893
0.00135874
0.00135882
0.00133179
0.0013318
0.00135844
0.00133116
0.0013315
0.00136071
0.0013296
0.00135846
0.00133197
0.00133185
0.00132946
0.00132434
0.00129431
0.00132225
0.00132215
0.00129649
0.00129684
0.00132417
0.00129467
0.00132262
0.0013225
0.00129613
0.00129596
0.00132255
0.00129672
0.00129646
0.00132469
0.00129399
0.00132283
0.00129618
0.00129635
0.00129435
0.00128973
0.00126019
0.00128803
0.00128838
0.00126237
0.00126245
0.00129006
0.0012604
0.00128758
0.00128739
0.00126191
0.00126169
0.00128787
0.00126212
0.00126195
0.00128929
0.00125971
0.00128766
0.00126166
0.00126174
0.00125987
0.00125551
0.0012254
0.00125367
0.00125372
0.00122736
0.00122742
0.00125575
0.00122533
0.00125324
0.00125311
0.00122724
0.00122751
0.00125327
0.00122736
0.00122736
0.00125509
0.00122559
0.00125312
0.00122743
0.00122738
0.00122547
0.00122069
0.00119042
0.00121854
0.00121856
0.00119227
0.00119212
0.00122054
0.00119002
0.00121867
0.00121897
0.00119295
0.00119322
0.00121874
0.00119236
0.00119258
0.001221
0.00119087
0.00121884
0.0011931
0.00119284
0.00119051
0.00118574
0.00115607
0.00118371
0.00118357
0.00115833
0.00115819
0.00118535
0.00115611
0.0011843
0.00118441
0.00115832
0.00115806
0.00118389
0.00115831
0.00115826
0.00118615
0.00115595
0.0011841
0.00115816
0.00115821
0.0011561
0.00115141
0.00112151
0.00114979
0.00114968
0.00112368
0.00112379
0.00115152
0.00112183
0.00114961
0.00114937
0.0011234
0.00112331
0.00114973
0.0011238
0.00112386
0.00115124
0.00112134
0.00114961
0.00112347
0.00112371
0.00112177
0.00111681
0.00108686
0.00111494
0.00111508
0.00108878
0.00108887
0.00111711
0.00108687
0.00111467
0.00111464
0.00108864
0.00108867
0.0011151
0.00108873
0.00108859
0.00111666
0.00108677
0.00111499
0.00108869
0.00108863
0.0010866
0.00108216
0.00105175
0.00108008
0.00108014
0.00105381
0.00105369
0.00108214
0.00105152
0.00107999
0.00108
0.00105396
0.00105403
0.00107974
0.00105358
0.00105349
0.00108207
0.0010518
0.00107982
0.00105379
0.00105354
0.00105152
0.00104696
0.00101702
0.00104497
0.00104489
0.00101908
0.00101903
0.00104677
0.00101705
0.00104516
0.00104529
0.00101923
0.0010192
0.00104492
0.00101919
0.00101952
0.00104706
0.00101719
0.00104494
0.00101927
0.00101947
0.0010174
0.00101241
0.000983365
0.00101064
0.00101059
0.000985385
0.00098544
0.00101247
0.000983469
0.00101072
0.00101071
0.000985318
0.000985369
0.00101108
0.000985504
0.000985536
0.00101258
0.000983452
0.00101104
0.000985555
0.000985579
0.000983495
0.000978771
0.000949033
0.000976905
0.000976982
0.000951019
0.000951062
0.000978846
0.000948893
0.000976828
0.000976921
0.000951017
0.000951101
0.000976911
0.000950857
0.000950746
0.000978843
0.00094889
0.000976955
0.000950858
0.000950744
0.000948675
0.000944267
0.000913941
0.000942263
0.000942269
0.000916013
0.00091594
0.000944124
0.000913986
0.000942286
0.000942334
0.000915992
0.000915924
0.000941984
0.000915954
0.000915958
0.000944122
0.000913883
0.000941957
0.000915952
0.000915853
0.000913956
0.000909208
0.000879452
0.000907342
0.000907273
0.000881512
0.000881639
0.000909303
0.000879738
0.00090728
0.000907163
0.000881338
0.000881229
0.000907401
0.000881794
0.000881813
0.000909156
0.000879453
0.000907306
0.000881526
0.000881773
0.000879804
0.000874796
0.000845057
0.000872931
0.00087307
0.000846956
0.000847055
0.000875054
0.000844862
0.000872771
0.000872659
0.000847097
0.00084705
0.000873125
0.000846889
0.000846813
0.000874792
0.000845055
0.000873151
0.000846975
0.000846991
0.000844835
0.000840341
0.000810298
0.000838222
0.000838297
0.000812223
0.000812021
0.000840084
0.000810004
0.00083847
0.00083852
0.000812436
0.000812776
0.000838077
0.000811957
0.000812077
0.00084037
0.00081052
0.00083827
0.0008125
0.000812112
0.000810086
0.000805598
0.000776123
0.000803659
0.000803358
0.00077821
0.000778041
0.000805322
0.000776271
0.000803777
0.000804049
0.000778041
0.000777963
0.000803545
0.000778199
0.000778338
0.000805783
0.000776021
0.000803491
0.000778131
0.000778155
0.000776348
0.000771507
0.000741875
0.000769745
0.000769742
0.000743999
0.00074438
0.00077174
0.00074226
0.000769531
0.000769352
0.00074384
0.000743591
0.000769965
0.0007444
0.000744115
0.000771381
0.000741672
0.000769782
0.000743702
0.000744046
0.000741992
0.000737136
0.000706725
0.000735264
0.00073558
0.000708716
0.000708677
0.000737428
0.000706504
0.000735164
0.000734927
0.000708791
0.000708643
0.000735248
0.000708552
0.000708401
0.000736933
0.000706651
0.000735236
0.000708587
0.000708525
0.000706382
0.000701898
0.000671804
0.000699843
0.000699732
0.000673588
0.00067353
0.000701637
0.000671678
0.000699998
0.000699894
0.000673743
0.000673987
0.000699526
0.000673547
0.000673702
0.000701861
0.000672122
0.00069967
0.000673965
0.00067383
0.00067193
0.000667177
0.000638178
0.000665047
0.000665048
0.000640006
0.000639987
0.000667087
0.000638217
0.000665208
0.000665524
0.000640104
0.000640336
0.000665314
0.000640093
0.00064028
0.000667523
0.000638328
0.000665424
0.000640337
0.000640268
0.000638377
0.000633605
0.000603436
0.00063168
0.000631608
0.000605753
0.000605626
0.000633635
0.000603472
0.000631716
0.000631765
0.000605564
0.000605376
0.000631821
0.000605618
0.00060556
0.000633628
0.000603182
0.000631724
0.000605355
0.000605364
0.000603296
0.000598554
0.000567883
0.000596815
0.000596727
0.000569982
0.000570079
0.000598615
0.00056795
0.000596619
0.000596473
0.000569915
0.000569904
0.000596662
0.00057003
0.000569996
0.000598328
0.000567857
0.000596496
0.000569936
0.000570023
0.000567922
0.000563112
0.000533553
0.000561178
0.000561326
0.00053537
0.00053547
0.000563172
0.000533544
0.000561173
0.000561174
0.000535427
0.00053542
0.000561206
0.000535418
0.00053525
0.000563117
0.000533576
0.000561276
0.000535412
0.00053536
0.00053348
0.00052891
0.000499189
0.000526867
0.000526907
0.000501118
0.000501046
0.000528884
0.000499152
0.000526919
0.000526891
0.00050114
0.000501067
0.000526718
0.000501064
0.00050105
0.000528913
0.00049914
0.000526802
0.000501048
0.000501038
0.000499141
0.000494422
0.000463873
0.000492402
0.000492329
0.000465889
0.000465913
0.000494406
0.000463959
0.000492416
0.000492342
0.000465902
0.000465929
0.000492429
0.000466034
0.000466274
0.000494384
0.000463949
0.000492391
0.000465997
0.000466215
0.000464224
0.000459033
0.000428675
0.00045701
0.000457064
0.00043067
0.000430731
0.000459115
0.000428648
0.000457027
0.00045711
0.000430673
0.000430852
0.000457451
0.000430673
0.000430686
0.000459133
0.000428782
0.00045742
0.000430813
0.00043073
0.000428603
0.000423932
0.000393882
0.000421994
0.000422028
0.000395984
0.00039589
0.000423878
0.000393744
0.000421984
0.000422187
0.000395955
0.000395881
0.00042186
0.000395756
0.000395583
0.000424018
0.000393742
0.000421872
0.000395794
0.000395617
0.000393551
0.000389138
0.000359003
0.000387273
0.000387159
0.00036102
0.00036095
0.000389001
0.00035895
0.000387253
0.000387149
0.000361017
0.000360906
0.000386886
0.000360927
0.000360818
0.000389001
0.00035889
0.000386915
0.000360877
0.000360793
0.000358876
0.000354198
0.000323708
0.000352218
0.000352177
0.000325642
0.000325781
0.000354181
0.000323924
0.000352213
0.000352104
0.000325637
0.000325726
0.000352172
0.000325928
0.000326044
0.00035409
0.000323858
0.000352114
0.000325813
0.000325973
0.000324075
0.000318891
0.000288544
0.000316809
0.000316952
0.000290472
0.000290499
0.000319099
0.000288549
0.000316811
0.000316951
0.000290508
0.000290651
0.00031726
0.000290568
0.00029079
0.000319062
0.000288721
0.000317215
0.000290725
0.000290831
0.000288784
0.000283789
0.000253599
0.000281781
0.000281756
0.000255709
0.000255595
0.000283751
0.000253407
0.00028181
0.0002819
0.000255679
0.000255513
0.000281908
0.00025542
0.000255261
0.00028393
0.000253334
0.000281985
0.000255395
0.000255289
0.000253174
0.000248756
0.000217836
0.000246873
0.00024678
0.000219958
0.00021998
0.000248593
0.000217859
0.000246826
0.000246639
0.000219936
0.000219869
0.000246423
0.000219948
0.000219763
0.000248494
0.000217734
0.000246418
0.000219793
0.000219713
0.000217646
0.00021292
0.000181917
0.000210938
0.000210948
0.000183864
0.00018384
0.00021294
0.000181958
0.000210934
0.000210892
0.000183915
0.000184035
0.000210787
0.000183945
0.000184097
0.000212833
0.000182146
0.000210744
0.000184108
0.000184127
0.000182193
0.000177068
0.000146784
0.000174959
0.000174967
0.000148655
0.000148733
0.000177125
0.000146902
0.000175016
0.00017517
0.000148668
0.000148819
0.000175257
0.000148835
0.000149027
0.000177309
0.000146976
0.000175302
0.000148966
0.000149077
0.000147131
0.00014204
0.000112151
0.000140004
0.000140108
0.000114161
0.000114214
0.000142164
0.000112118
0.000139995
0.000140127
0.000114116
0.000114067
0.000140353
0.00011411
0.000114046
0.000142211
0.0001119
0.000140395
0.000113955
0.000113965
0.000111846
0.000107371
7.62513e-05
0.000105489
0.000105468
7.84845e-05
7.83562e-05
0.000107277
7.609e-05
0.000105443
0.000105269
7.84734e-05
7.82741e-05
0.00010514
7.82433e-05
7.8041e-05
0.000107048
7.60207e-05
0.000105071
7.81266e-05
7.79902e-05
7.58412e-05
7.1171e-05
3.93772e-05
6.92788e-05
6.91546e-05
4.14365e-05
4.133e-05
7.10138e-05
3.92927e-05
6.92858e-05
6.91319e-05
4.14869e-05
4.14271e-05
6.88846e-05
4.13256e-05
4.13042e-05
7.09681e-05
3.94825e-05
6.88558e-05
4.14558e-05
4.1377e-05
3.9454e-05
3.43206e-05
7.56224e-06
3.23996e-05
3.23533e-05
1.04036e-05
1.05569e-05
3.43158e-05
7.75285e-06
3.24557e-05
3.2554e-05
1.04342e-05
1.06973e-05
3.25253e-05
1.06812e-05
1.08985e-05
3.4546e-05
7.86422e-06
3.26161e-05
1.08643e-05
1.0974e-05
8.04726e-06
4.4959e-06
6.21285e-06
6.28175e-06
4.67316e-06
6.20644e-06
6.34989e-06
5.22413e-06
5.32089e-06
5.52922e-06
6.60229e-06
4.7451e-06
6.65592e-06
0.00353094
0.00353347
0.00353221
0.00353238
0.00355945
0.00353343
0.00356306
0.00353377
0.00355965
0.00353351
0.00353376
0.00356304
0.00354459
0.00356644
0.00356623
0.00350354
0.00351708
0.00352107
0.00349588
0.00349466
0.00349924
0.00350343
0.00351713
0.00352098
0.00349572
0.00351948
0.00351946
0.00351946
0.00349303
0.00349307
0.00349301
0.00349291
0.00350315
0.00351481
0.00351999
0.00351076
0.00352213
0.00350031
0.00351104
0.00349415
0.00349899
0.00350327
0.00352006
0.00351478
0.00351081
0.0035222
0.00351107
0.00350032
0.00352091
0.0035211
0.00350825
0.0035003
0.00350019
0.00347599
0.00349019
0.00349007
0.00347394
0.00348745
0.00347291
0.00347587
0.00349018
0.00348999
0.00347398
0.00348394
0.00348389
0.00348369
0.00345551
0.00345552
0.00345545
0.00345538
0.0034737
0.00348863
0.00348238
0.00347307
0.00348716
0.00347417
0.00347305
0.0034873
0.00347283
0.00347365
0.00348257
0.0034887
0.00347304
0.00348724
0.00347307
0.00347417
0.00349042
0.00349165
0.00347115
0.00347455
0.00347369
0.00343345
0.00344808
0.00344901
0.00343206
0.00344679
0.00343136
0.00343336
0.00344818
0.00344903
0.00343207
0.00344542
0.00344537
0.00344534
0.00341284
0.00341288
0.00341282
0.00341284
0.00343211
0.00344759
0.0034435
0.0034331
0.00344666
0.00343259
0.00343306
0.0034469
0.00343118
0.00343205
0.00344352
0.00344764
0.00343303
0.00344658
0.00343304
0.00343251
0.00344838
0.00344821
0.00343041
0.00343241
0.00343246
0.00338712
0.00340344
0.00340493
0.00338567
0.00340278
0.00338514
0.00338702
0.00340348
0.00340488
0.00338557
0.00340134
0.00340129
0.0034013
0.00336545
0.00336545
0.00336543
0.00336541
0.00338621
0.00340331
0.00339964
0.00338795
0.00340273
0.00338628
0.00338794
0.00340273
0.00338512
0.00338621
0.00339963
0.00340326
0.00338791
0.0034027
0.00338793
0.00338635
0.00340358
0.00340356
0.00338463
0.00338577
0.00338588
0.0033382
0.0033553
0.00335659
0.00333694
0.0033549
0.00333662
0.00333814
0.00335532
0.00335661
0.00333694
0.00335326
0.00335324
0.00335324
0.00331657
0.00331658
0.00331656
0.00331657
0.00333776
0.00335528
0.00335184
0.00333963
0.00335494
0.0033377
0.00333966
0.00335487
0.00333663
0.00333775
0.00335186
0.0033553
0.0033396
0.00335495
0.00333965
0.00333766
0.0033553
0.00335531
0.00333626
0.00333709
0.00333714
0.0032891
0.00330633
0.00330735
0.00328817
0.00330609
0.00328796
0.00328901
0.00330634
0.00330736
0.00328817
0.00330438
0.00330437
0.00330438
0.00326811
0.0032681
0.00326808
0.0032681
0.003289
0.0033064
0.00330312
0.00329098
0.00330614
0.00328884
0.00329102