/*--------------------------------*- C++ -*----------------------------------*\
| =========                 |                                                 |
| \\      /  F ield         | OpenFOAM: The Open Source CFD Toolbox           |
|  \\    /   O peration     | Version:  v2012                                 |
|   \\  /    A nd           | Website:  www.openfoam.com                      |
|    \\/     M anipulation  |                                                 |
\*---------------------------------------------------------------------------*/
FoamFile
{
    version     2.0;
    format      ascii;
    class       volScalarField;
    location    "0.36";
    object      p;
}
// * * * * * * * * * * * * * * * * * * * * * * * * * * * * * * * * * * * * * //

dimensions      [0 2 -2 0 0 0 0];


internalField   nonuniform List<scalar> 
247104
(
1.84837e-06
1.84827e-06
1.84842e-06
1.84839e-06
1.8483e-06
1.84841e-06
1.8484e-06
1.8482e-06
1.84828e-06
1.84833e-06
1.84839e-06
1.84823e-06
1.84814e-06
1.84826e-06
1.8484e-06
1.8483e-06
1.84842e-06
1.84839e-06
1.84808e-06
1.84772e-06
1.84758e-06
1.84776e-06
1.84813e-06
1.84841e-06
1.84842e-06
1.84839e-06
1.84824e-06
1.84772e-06
1.84723e-06
1.84706e-06
1.84728e-06
1.84779e-06
1.84828e-06
1.84839e-06
1.84837e-06
1.8483e-06
1.84814e-06
1.84758e-06
1.84706e-06
1.84688e-06
1.84711e-06
1.84765e-06
1.8482e-06
1.84829e-06
1.84841e-06
1.84826e-06
1.84776e-06
1.84728e-06
1.84711e-06
1.84733e-06
1.84783e-06
1.8483e-06
1.84842e-06
1.8484e-06
1.8484e-06
1.84813e-06
1.84779e-06
1.84765e-06
1.84783e-06
1.84818e-06
1.84841e-06
1.8484e-06
1.8482e-06
1.8483e-06
1.84841e-06
1.84828e-06
1.8482e-06
1.8483e-06
1.84841e-06
1.84827e-06
1.84842e-06
1.84839e-06
1.84829e-06
1.84842e-06
1.8484e-06
1.81533e-06
1.81333e-06
1.81276e-06
1.81154e-06
1.81155e-06
1.81149e-06
1.81149e-06
1.8128e-06
1.81305e-06
1.81276e-06
1.8107e-06
1.80805e-06
1.80803e-06
1.80803e-06
1.80805e-06
1.81108e-06
1.81134e-06
1.81154e-06
1.80805e-06
1.808e-06
1.80806e-06
1.80806e-06
1.808e-06
1.80805e-06
1.81146e-06
1.81273e-06
1.81533e-06
1.81155e-06
1.80803e-06
1.80806e-06
1.80816e-06
1.80816e-06
1.80806e-06
1.80803e-06
1.81145e-06
1.81309e-06
1.81333e-06
1.81149e-06
1.80803e-06
1.80806e-06
1.80816e-06
1.80816e-06
1.80806e-06
1.80803e-06
1.81163e-06
1.81167e-06
1.81149e-06
1.80805e-06
1.808e-06
1.80806e-06
1.80806e-06
1.808e-06
1.80805e-06
1.8114e-06
1.81264e-06
1.8128e-06
1.81108e-06
1.80805e-06
1.80803e-06
1.80803e-06
1.80806e-06
1.81131e-06
1.81149e-06
1.81295e-06
1.81306e-06
1.81133e-06
1.81146e-06
1.81145e-06
1.81163e-06
1.8114e-06
1.81149e-06
1.81312e-06
1.81273e-06
1.81309e-06
1.81168e-06
1.81263e-06
1.81295e-06
1.7952e-06
1.79503e-06
1.79486e-06
1.79275e-06
1.79265e-06
1.79261e-06
1.79273e-06
1.79482e-06
1.79508e-06
1.79486e-06
1.79204e-06
1.7891e-06
1.78905e-06
1.78905e-06
1.7891e-06
1.79254e-06
1.79319e-06
1.79275e-06
1.7891e-06
1.78884e-06
1.78888e-06
1.78888e-06
1.78884e-06
1.7891e-06
1.79334e-06
1.7953e-06
1.79521e-06
1.79265e-06
1.78904e-06
1.78888e-06
1.78891e-06
1.78891e-06
1.78888e-06
1.78904e-06
1.79339e-06
1.79505e-06
1.79504e-06
1.79261e-06
1.78904e-06
1.78888e-06
1.78891e-06
1.78891e-06
1.78888e-06
1.78905e-06
1.79334e-06
1.79332e-06
1.79273e-06
1.7891e-06
1.78884e-06
1.78888e-06
1.78888e-06
1.78884e-06
1.78911e-06
1.79339e-06
1.79539e-06
1.79482e-06
1.79254e-06
1.7891e-06
1.78904e-06
1.78905e-06
1.7891e-06
1.79302e-06
1.79331e-06
1.7953e-06
1.79508e-06
1.79319e-06
1.79334e-06
1.79339e-06
1.79334e-06
1.79339e-06
1.79331e-06
1.79519e-06
1.7953e-06
1.79505e-06
1.79332e-06
1.79539e-06
1.7953e-06
1.77622e-06
1.77605e-06
1.77592e-06
1.77376e-06
1.77365e-06
1.77357e-06
1.77375e-06
1.77586e-06
1.77613e-06
1.77592e-06
1.77302e-06
1.77007e-06
1.77004e-06
1.77004e-06
1.77007e-06
1.7735e-06
1.77427e-06
1.77376e-06
1.77007e-06
1.76995e-06
1.76996e-06
1.76996e-06
1.76995e-06
1.77007e-06
1.77438e-06
1.77632e-06
1.77623e-06
1.77366e-06
1.77004e-06
1.76996e-06
1.76997e-06
1.76997e-06
1.76996e-06
1.77004e-06
1.77443e-06
1.77607e-06
1.77606e-06
1.77357e-06
1.77004e-06
1.76996e-06
1.76997e-06
1.76997e-06
1.76996e-06
1.77004e-06
1.7744e-06
1.77438e-06
1.77376e-06
1.77007e-06
1.76995e-06
1.76996e-06
1.76996e-06
1.76995e-06
1.77007e-06
1.77441e-06
1.77639e-06
1.77587e-06
1.7735e-06
1.77007e-06
1.77004e-06
1.77004e-06
1.77007e-06
1.77416e-06
1.77438e-06
1.77635e-06
1.77614e-06
1.77427e-06
1.77438e-06
1.77443e-06
1.7744e-06
1.77441e-06
1.77438e-06
1.77637e-06
1.77633e-06
1.77607e-06
1.77438e-06
1.77639e-06
1.77635e-06
1.75725e-06
1.75707e-06
1.75691e-06
1.75475e-06
1.75464e-06
1.75454e-06
1.75474e-06
1.75686e-06
1.75713e-06
1.75691e-06
1.75402e-06
1.75104e-06
1.75103e-06
1.75103e-06
1.75104e-06
1.75445e-06
1.75527e-06
1.75475e-06
1.75104e-06
1.75101e-06
1.75101e-06
1.75101e-06
1.75101e-06
1.75104e-06
1.75538e-06
1.75733e-06
1.75725e-06
1.75464e-06
1.75103e-06
1.75101e-06
1.75101e-06
1.75101e-06
1.75101e-06
1.75103e-06
1.75546e-06
1.75711e-06
1.75708e-06
1.75454e-06
1.75103e-06
1.75101e-06
1.75101e-06
1.75101e-06
1.75101e-06
1.75103e-06
1.75544e-06
1.75542e-06
1.75474e-06
1.75104e-06
1.75101e-06
1.75101e-06
1.75101e-06
1.75101e-06
1.75104e-06
1.75543e-06
1.75743e-06
1.75686e-06
1.75445e-06
1.75104e-06
1.75103e-06
1.75103e-06
1.75104e-06
1.7552e-06
1.7554e-06
1.75736e-06
1.75713e-06
1.75527e-06
1.75538e-06
1.75546e-06
1.75544e-06
1.75543e-06
1.7554e-06
1.75734e-06
1.75733e-06
1.75711e-06
1.75542e-06
1.75743e-06
1.75736e-06
1.73824e-06
1.73807e-06
1.7379e-06
1.73573e-06
1.73562e-06
1.73553e-06
1.73572e-06
1.73785e-06
1.73811e-06
1.7379e-06
1.73501e-06
1.73203e-06
1.73202e-06
1.73202e-06
1.73203e-06
1.73542e-06
1.73625e-06
1.73573e-06
1.73203e-06
1.73202e-06
1.73202e-06
1.73202e-06
1.73202e-06
1.73203e-06
1.73636e-06
1.73832e-06
1.73824e-06
1.73562e-06
1.73202e-06
1.73202e-06
1.73202e-06
1.73202e-06
1.73202e-06
1.73202e-06
1.73646e-06
1.73811e-06
1.73807e-06
1.73553e-06
1.73202e-06
1.73202e-06
1.73202e-06
1.73202e-06
1.73202e-06
1.73202e-06
1.73644e-06
1.73642e-06
1.73572e-06
1.73203e-06
1.73202e-06
1.73202e-06
1.73202e-06
1.73202e-06
1.73203e-06
1.73643e-06
1.73843e-06
1.73785e-06
1.73542e-06
1.73203e-06
1.73202e-06
1.73202e-06
1.73203e-06
1.73621e-06
1.7364e-06
1.73834e-06
1.73811e-06
1.73625e-06
1.73636e-06
1.73646e-06
1.73644e-06
1.73643e-06
1.7364e-06
1.73834e-06
1.73832e-06
1.73811e-06
1.73642e-06
1.73843e-06
1.73834e-06
1.71923e-06
1.71906e-06
1.71889e-06
1.71672e-06
1.71661e-06
1.71652e-06
1.71671e-06
1.71884e-06
1.7191e-06
1.71889e-06
1.716e-06
1.71302e-06
1.71302e-06
1.71302e-06
1.71302e-06
1.71641e-06
1.71724e-06
1.71672e-06
1.71302e-06
1.71301e-06
1.71301e-06
1.71301e-06
1.71301e-06
1.71302e-06
1.71735e-06
1.71932e-06
1.71923e-06
1.71661e-06
1.71302e-06
1.71301e-06
1.71301e-06
1.71301e-06
1.71301e-06
1.71302e-06
1.71745e-06
1.7191e-06
1.71906e-06
1.71652e-06
1.71302e-06
1.71301e-06
1.71301e-06
1.71301e-06
1.71301e-06
1.71302e-06
1.71743e-06
1.71741e-06
1.71671e-06
1.71302e-06
1.71301e-06
1.71301e-06
1.71301e-06
1.71301e-06
1.71302e-06
1.71742e-06
1.71942e-06
1.71884e-06
1.71641e-06
1.71302e-06
1.71302e-06
1.71302e-06
1.71302e-06
1.7172e-06
1.71739e-06
1.71934e-06
1.7191e-06
1.71724e-06
1.71735e-06
1.71745e-06
1.71743e-06
1.71742e-06
1.71739e-06
1.71932e-06
1.71931e-06
1.7191e-06
1.71741e-06
1.71942e-06
1.71934e-06
1.70023e-06
1.70006e-06
1.69988e-06
1.69772e-06
1.6976e-06
1.69751e-06
1.6977e-06
1.69983e-06
1.7001e-06
1.69988e-06
1.697e-06
1.69401e-06
1.69401e-06
1.69401e-06
1.69401e-06
1.6974e-06
1.69823e-06
1.69771e-06
1.69401e-06
1.69401e-06
1.69401e-06
1.69401e-06
1.69401e-06
1.69401e-06
1.69834e-06
1.70031e-06
1.70023e-06
1.6976e-06
1.69401e-06
1.69401e-06
1.69401e-06
1.69401e-06
1.69401e-06
1.69401e-06
1.69844e-06
1.7001e-06
1.70006e-06
1.69751e-06
1.69401e-06
1.69401e-06
1.69401e-06
1.69401e-06
1.69401e-06
1.69401e-06
1.69843e-06
1.6984e-06
1.6977e-06
1.69401e-06
1.69401e-06
1.69401e-06
1.69401e-06
1.69401e-06
1.69401e-06
1.69841e-06
1.70042e-06
1.69983e-06
1.6974e-06
1.69401e-06
1.69401e-06
1.69401e-06
1.69401e-06
1.69819e-06
1.69839e-06
1.70033e-06
1.70009e-06
1.69823e-06
1.69834e-06
1.69844e-06
1.69842e-06
1.69841e-06
1.69839e-06
1.70032e-06
1.70031e-06
1.7001e-06
1.6984e-06
1.70042e-06
1.70033e-06
1.68122e-06
1.68105e-06
1.68087e-06
1.67871e-06
1.6786e-06
1.67851e-06
1.6787e-06
1.68083e-06
1.68109e-06
1.68087e-06
1.67799e-06
1.675e-06
1.675e-06
1.675e-06
1.675e-06
1.67839e-06
1.67922e-06
1.67871e-06
1.675e-06
1.675e-06
1.675e-06
1.675e-06
1.675e-06
1.675e-06
1.67934e-06
1.6813e-06
1.68122e-06
1.6786e-06
1.675e-06
1.675e-06
1.675e-06
1.675e-06
1.675e-06
1.675e-06
1.67944e-06
1.68109e-06
1.68105e-06
1.67851e-06
1.675e-06
1.675e-06
1.675e-06
1.675e-06
1.675e-06
1.675e-06
1.67942e-06
1.6794e-06
1.6787e-06
1.675e-06
1.675e-06
1.675e-06
1.675e-06
1.675e-06
1.675e-06
1.67941e-06
1.68141e-06
1.68083e-06
1.67839e-06
1.675e-06
1.675e-06
1.675e-06
1.675e-06
1.67919e-06
1.67938e-06
1.68132e-06
1.68109e-06
1.67923e-06
1.67934e-06
1.67944e-06
1.67942e-06
1.67941e-06
1.67938e-06
1.68131e-06
1.6813e-06
1.68109e-06
1.6794e-06
1.68141e-06
1.68132e-06
1.66221e-06
1.66204e-06
1.66187e-06
1.6597e-06
1.65959e-06
1.6595e-06
1.65969e-06
1.66182e-06
1.66208e-06
1.66187e-06
1.65898e-06
1.65599e-06
1.65599e-06
1.65599e-06
1.65599e-06
1.65938e-06
1.66022e-06
1.6597e-06
1.65599e-06
1.65599e-06
1.65599e-06
1.65599e-06
1.65599e-06
1.65599e-06
1.66033e-06
1.66229e-06
1.66221e-06
1.65959e-06
1.65599e-06
1.65599e-06
1.65599e-06
1.65599e-06
1.65599e-06
1.65599e-06
1.66043e-06
1.66208e-06
1.66204e-06
1.6595e-06
1.65599e-06
1.65599e-06
1.65599e-06
1.65599e-06
1.65599e-06
1.65599e-06
1.66041e-06
1.66039e-06
1.65969e-06
1.65599e-06
1.65599e-06
1.65599e-06
1.65599e-06
1.65599e-06
1.65599e-06
1.6604e-06
1.6624e-06
1.66182e-06
1.65938e-06
1.65599e-06
1.65599e-06
1.65599e-06
1.65599e-06
1.66018e-06
1.66038e-06
1.66231e-06
1.66208e-06
1.66022e-06
1.66033e-06
1.66043e-06
1.66041e-06
1.6604e-06
1.66037e-06
1.6623e-06
1.66229e-06
1.66208e-06
1.66039e-06
1.6624e-06
1.66231e-06
1.64321e-06
1.64304e-06
1.64286e-06
1.64069e-06
1.64058e-06
1.64049e-06
1.64068e-06
1.64281e-06
1.64307e-06
1.64286e-06
1.63997e-06
1.63699e-06
1.63699e-06
1.63699e-06
1.63699e-06
1.64038e-06
1.64121e-06
1.64069e-06
1.63699e-06
1.63699e-06
1.63699e-06
1.63699e-06
1.63699e-06
1.63699e-06
1.64132e-06
1.64329e-06
1.64321e-06
1.64058e-06
1.63699e-06
1.63699e-06
1.63699e-06
1.63699e-06
1.63699e-06
1.63699e-06
1.64142e-06
1.64308e-06
1.64304e-06
1.64049e-06
1.63699e-06
1.63699e-06
1.63699e-06
1.63699e-06
1.63699e-06
1.63699e-06
1.6414e-06
1.64138e-06
1.64068e-06
1.63699e-06
1.63699e-06
1.63699e-06
1.63699e-06
1.63699e-06
1.63699e-06
1.64139e-06
1.6434e-06
1.64281e-06
1.64038e-06
1.63699e-06
1.63699e-06
1.63699e-06
1.63699e-06
1.64117e-06
1.64137e-06
1.64331e-06
1.64307e-06
1.64121e-06
1.64132e-06
1.64142e-06
1.6414e-06
1.64139e-06
1.64137e-06
1.64329e-06
1.64329e-06
1.64308e-06
1.64138e-06
1.6434e-06
1.64331e-06
1.6242e-06
1.62403e-06
1.62385e-06
1.62169e-06
1.62158e-06
1.62149e-06
1.62167e-06
1.6238e-06
1.62407e-06
1.62385e-06
1.62097e-06
1.61798e-06
1.61798e-06
1.61798e-06
1.61798e-06
1.62137e-06
1.6222e-06
1.62169e-06
1.61798e-06
1.61798e-06
1.61798e-06
1.61798e-06
1.61798e-06
1.61798e-06
1.62231e-06
1.62428e-06
1.6242e-06
1.62157e-06
1.61798e-06
1.61798e-06
1.61798e-06
1.61798e-06
1.61798e-06
1.61798e-06
1.62241e-06
1.62407e-06
1.62403e-06
1.62149e-06
1.61798e-06
1.61798e-06
1.61798e-06
1.61798e-06
1.61798e-06
1.61798e-06
1.6224e-06
1.62237e-06
1.62167e-06
1.61798e-06
1.61798e-06
1.61798e-06
1.61798e-06
1.61798e-06
1.61798e-06
1.62238e-06
1.62439e-06
1.6238e-06
1.62137e-06
1.61798e-06
1.61798e-06
1.61798e-06
1.61798e-06
1.62217e-06
1.62236e-06
1.6243e-06
1.62407e-06
1.6222e-06
1.62231e-06
1.62241e-06
1.6224e-06
1.62238e-06
1.62236e-06
1.62429e-06
1.62428e-06
1.62407e-06
1.62237e-06
1.62439e-06
1.6243e-06
1.60519e-06
1.60502e-06
1.60484e-06
1.60268e-06
1.60257e-06
1.60248e-06
1.60267e-06
1.6048e-06
1.60506e-06
1.60484e-06
1.60196e-06
1.59897e-06
1.59897e-06
1.59897e-06
1.59897e-06
1.60236e-06
1.60319e-06
1.60268e-06
1.59897e-06
1.59897e-06
1.59897e-06
1.59897e-06
1.59897e-06
1.59897e-06
1.60331e-06
1.60527e-06
1.60519e-06
1.60257e-06
1.59897e-06
1.59897e-06
1.59897e-06
1.59897e-06
1.59897e-06
1.59897e-06
1.60341e-06
1.60506e-06
1.60502e-06
1.60248e-06
1.59897e-06
1.59897e-06
1.59897e-06
1.59897e-06
1.59897e-06
1.59897e-06
1.60339e-06
1.60337e-06
1.60267e-06
1.59897e-06
1.59897e-06
1.59897e-06
1.59897e-06
1.59897e-06
1.59897e-06
1.60338e-06
1.60538e-06
1.6048e-06
1.60236e-06
1.59897e-06
1.59897e-06
1.59897e-06
1.59897e-06
1.60316e-06
1.60335e-06
1.60529e-06
1.60506e-06
1.6032e-06
1.60331e-06
1.60341e-06
1.60339e-06
1.60338e-06
1.60335e-06
1.60528e-06
1.60527e-06
1.60506e-06
1.60337e-06
1.60538e-06
1.60529e-06
1.58618e-06
1.58601e-06
1.58583e-06
1.58367e-06
1.58356e-06
1.58347e-06
1.58366e-06
1.58579e-06
1.58605e-06
1.58584e-06
1.58295e-06
1.57996e-06
1.57996e-06
1.57996e-06
1.57996e-06
1.58335e-06
1.58419e-06
1.58367e-06
1.57996e-06
1.57996e-06
1.57996e-06
1.57996e-06
1.57996e-06
1.57996e-06
1.5843e-06
1.58626e-06
1.58618e-06
1.58356e-06
1.57996e-06
1.57996e-06
1.57996e-06
1.57996e-06
1.57996e-06
1.57996e-06
1.5844e-06
1.58605e-06
1.58601e-06
1.58347e-06
1.57996e-06
1.57996e-06
1.57996e-06
1.57996e-06
1.57996e-06
1.57996e-06
1.58438e-06
1.58436e-06
1.58366e-06
1.57996e-06
1.57996e-06
1.57996e-06
1.57996e-06
1.57996e-06
1.57996e-06
1.58437e-06
1.58637e-06
1.58579e-06
1.58335e-06
1.57996e-06
1.57996e-06
1.57996e-06
1.57996e-06
1.58415e-06
1.58435e-06
1.58628e-06
1.58605e-06
1.58419e-06
1.5843e-06
1.5844e-06
1.58438e-06
1.58437e-06
1.58434e-06
1.58627e-06
1.58626e-06
1.58605e-06
1.58436e-06
1.58637e-06
1.58628e-06
1.56717e-06
1.567e-06
1.56683e-06
1.56466e-06
1.56455e-06
1.56446e-06
1.56465e-06
1.56678e-06
1.56704e-06
1.56683e-06
1.56394e-06
1.56096e-06
1.56096e-06
1.56096e-06
1.56096e-06
1.56435e-06
1.56518e-06
1.56466e-06
1.56096e-06
1.56096e-06
1.56096e-06
1.56096e-06
1.56096e-06
1.56096e-06
1.56529e-06
1.56726e-06
1.56717e-06
1.56455e-06
1.56096e-06
1.56096e-06
1.56096e-06
1.56096e-06
1.56096e-06
1.56096e-06
1.56539e-06
1.56705e-06
1.567e-06
1.56446e-06
1.56096e-06
1.56096e-06
1.56096e-06
1.56096e-06
1.56096e-06
1.56096e-06
1.56537e-06
1.56535e-06
1.56465e-06
1.56096e-06
1.56096e-06
1.56096e-06
1.56096e-06
1.56096e-06
1.56096e-06
1.56536e-06
1.56736e-06
1.56678e-06
1.56435e-06
1.56096e-06
1.56096e-06
1.56096e-06
1.56096e-06
1.56514e-06
1.56534e-06
1.56728e-06
1.56704e-06
1.56518e-06
1.56529e-06
1.56539e-06
1.56537e-06
1.56536e-06
1.56534e-06
1.56726e-06
1.56726e-06
1.56705e-06
1.56535e-06
1.56736e-06
1.56728e-06
1.54817e-06
1.548e-06
1.54782e-06
1.54566e-06
1.54554e-06
1.54546e-06
1.54564e-06
1.54777e-06
1.54804e-06
1.54782e-06
1.54494e-06
1.54195e-06
1.54195e-06
1.54195e-06
1.54195e-06
1.54534e-06
1.54617e-06
1.54565e-06
1.54195e-06
1.54195e-06
1.54195e-06
1.54195e-06
1.54195e-06
1.54195e-06
1.54628e-06
1.54825e-06
1.54817e-06
1.54554e-06
1.54195e-06
1.54195e-06
1.54195e-06
1.54195e-06
1.54195e-06
1.54195e-06
1.54638e-06
1.54804e-06
1.548e-06
1.54546e-06
1.54195e-06
1.54195e-06
1.54195e-06
1.54195e-06
1.54195e-06
1.54195e-06
1.54637e-06
1.54634e-06
1.54564e-06
1.54195e-06
1.54195e-06
1.54195e-06
1.54195e-06
1.54195e-06
1.54195e-06
1.54635e-06
1.54836e-06
1.54777e-06
1.54534e-06
1.54195e-06
1.54195e-06
1.54195e-06
1.54195e-06
1.54614e-06
1.54633e-06
1.54827e-06
1.54804e-06
1.54617e-06
1.54628e-06
1.54638e-06
1.54637e-06
1.54635e-06
1.54633e-06
1.54826e-06
1.54825e-06
1.54804e-06
1.54634e-06
1.54836e-06
1.54827e-06
1.52916e-06
1.52899e-06
1.52881e-06
1.52665e-06
1.52654e-06
1.52645e-06
1.52664e-06
1.52877e-06
1.52903e-06
1.52881e-06
1.52593e-06
1.52294e-06
1.52294e-06
1.52294e-06
1.52294e-06
1.52633e-06
1.52717e-06
1.52665e-06
1.52294e-06
1.52294e-06
1.52294e-06
1.52294e-06
1.52294e-06
1.52294e-06
1.52728e-06
1.52924e-06
1.52916e-06
1.52654e-06
1.52294e-06
1.52294e-06
1.52294e-06
1.52294e-06
1.52294e-06
1.52294e-06
1.52738e-06
1.52903e-06
1.52899e-06
1.52645e-06
1.52294e-06
1.52294e-06
1.52294e-06
1.52294e-06
1.52294e-06
1.52294e-06
1.52736e-06
1.52734e-06
1.52664e-06
1.52294e-06
1.52294e-06
1.52294e-06
1.52294e-06
1.52294e-06
1.52294e-06
1.52735e-06
1.52935e-06
1.52877e-06
1.52633e-06
1.52294e-06
1.52294e-06
1.52294e-06
1.52294e-06
1.52713e-06
1.52732e-06
1.52926e-06
1.52903e-06
1.52717e-06
1.52728e-06
1.52738e-06
1.52736e-06
1.52735e-06
1.52732e-06
1.52925e-06
1.52924e-06
1.52903e-06
1.52734e-06
1.52935e-06
1.52926e-06
1.51015e-06
1.50998e-06
1.50981e-06
1.50764e-06
1.50753e-06
1.50744e-06
1.50763e-06
1.50976e-06
1.51002e-06
1.50981e-06
1.50692e-06
1.50394e-06
1.50394e-06
1.50394e-06
1.50394e-06
1.50733e-06
1.50816e-06
1.50764e-06
1.50394e-06
1.50394e-06
1.50394e-06
1.50394e-06
1.50394e-06
1.50394e-06
1.50827e-06
1.51024e-06
1.51015e-06
1.50753e-06
1.50394e-06
1.50394e-06
1.50394e-06
1.50394e-06
1.50394e-06
1.50394e-06
1.50837e-06
1.51003e-06
1.50998e-06
1.50744e-06
1.50394e-06
1.50394e-06
1.50394e-06
1.50394e-06
1.50394e-06
1.50394e-06
1.50835e-06
1.50833e-06
1.50763e-06
1.50394e-06
1.50394e-06
1.50394e-06
1.50394e-06
1.50394e-06
1.50394e-06
1.50834e-06
1.51034e-06
1.50976e-06
1.50733e-06
1.50394e-06
1.50394e-06
1.50394e-06
1.50394e-06
1.50812e-06
1.50832e-06
1.51026e-06
1.51002e-06
1.50816e-06
1.50827e-06
1.50837e-06
1.50835e-06
1.50834e-06
1.50832e-06
1.51024e-06
1.51024e-06
1.51003e-06
1.50833e-06
1.51034e-06
1.51026e-06
1.49115e-06
1.49098e-06
1.4908e-06
1.48864e-06
1.48852e-06
1.48844e-06
1.48862e-06
1.49075e-06
1.49101e-06
1.4908e-06
1.48792e-06
1.48493e-06
1.48493e-06
1.48493e-06
1.48493e-06
1.48832e-06
1.48915e-06
1.48863e-06
1.48493e-06
1.48493e-06
1.48493e-06
1.48493e-06
1.48493e-06
1.48493e-06
1.48926e-06
1.49123e-06
1.49115e-06
1.48852e-06
1.48493e-06
1.48493e-06
1.48493e-06
1.48493e-06
1.48493e-06
1.48493e-06
1.48936e-06
1.49102e-06
1.49098e-06
1.48844e-06
1.48493e-06
1.48493e-06
1.48493e-06
1.48493e-06
1.48493e-06
1.48493e-06
1.48935e-06
1.48932e-06
1.48862e-06
1.48493e-06
1.48493e-06
1.48493e-06
1.48493e-06
1.48493e-06
1.48493e-06
1.48933e-06
1.49134e-06
1.49075e-06
1.48832e-06
1.48493e-06
1.48493e-06
1.48493e-06
1.48493e-06
1.48912e-06
1.48931e-06
1.49125e-06
1.49101e-06
1.48915e-06
1.48926e-06
1.48936e-06
1.48934e-06
1.48933e-06
1.48931e-06
1.49124e-06
1.49123e-06
1.49102e-06
1.48932e-06
1.49134e-06
1.49125e-06
1.47214e-06
1.47197e-06
1.47179e-06
1.46963e-06
1.46952e-06
1.46943e-06
1.46962e-06
1.47175e-06
1.47201e-06
1.47179e-06
1.46891e-06
1.46592e-06
1.46592e-06
1.46592e-06
1.46592e-06
1.46931e-06
1.47014e-06
1.46963e-06
1.46592e-06
1.46592e-06
1.46592e-06
1.46592e-06
1.46592e-06
1.46592e-06
1.47026e-06
1.47222e-06
1.47214e-06
1.46952e-06
1.46592e-06
1.46592e-06
1.46592e-06
1.46592e-06
1.46592e-06
1.46592e-06
1.47036e-06
1.47201e-06
1.47197e-06
1.46943e-06
1.46592e-06
1.46592e-06
1.46592e-06
1.46592e-06
1.46592e-06
1.46592e-06
1.47034e-06
1.47032e-06
1.46962e-06
1.46592e-06
1.46592e-06
1.46592e-06
1.46592e-06
1.46592e-06
1.46592e-06
1.47032e-06
1.47233e-06
1.47175e-06
1.46931e-06
1.46592e-06
1.46592e-06
1.46592e-06
1.46592e-06
1.47011e-06
1.4703e-06
1.47224e-06
1.47201e-06
1.47015e-06
1.47026e-06
1.47035e-06
1.47034e-06
1.47032e-06
1.4703e-06
1.47223e-06
1.47222e-06
1.47201e-06
1.47032e-06
1.47233e-06
1.47224e-06
1.45313e-06
1.45296e-06
1.45278e-06
1.45062e-06
1.45051e-06
1.45042e-06
1.45061e-06
1.45274e-06
1.453e-06
1.45278e-06
1.4499e-06
1.44691e-06
1.44691e-06
1.44691e-06
1.44691e-06
1.4503e-06
1.45114e-06
1.45062e-06
1.44691e-06
1.44691e-06
1.44691e-06
1.44691e-06
1.44691e-06
1.44691e-06
1.45125e-06
1.45321e-06
1.45313e-06
1.45051e-06
1.44691e-06
1.44691e-06
1.44691e-06
1.44691e-06
1.44691e-06
1.44691e-06
1.45135e-06
1.453e-06
1.45296e-06
1.45042e-06
1.44691e-06
1.44691e-06
1.44691e-06
1.44691e-06
1.44691e-06
1.44691e-06
1.45133e-06
1.45131e-06
1.45061e-06
1.44691e-06
1.44691e-06
1.44691e-06
1.44691e-06
1.44691e-06
1.44691e-06
1.45132e-06
1.45332e-06
1.45274e-06
1.4503e-06
1.44691e-06
1.44691e-06
1.44691e-06
1.44691e-06
1.4511e-06
1.45129e-06
1.45323e-06
1.453e-06
1.45114e-06
1.45125e-06
1.45135e-06
1.45133e-06
1.45132e-06
1.45129e-06
1.45322e-06
1.45321e-06
1.453e-06
1.45131e-06
1.45332e-06
1.45323e-06
1.43412e-06
1.43395e-06
1.43378e-06
1.43161e-06
1.4315e-06
1.43141e-06
1.4316e-06
1.43373e-06
1.43399e-06
1.43378e-06
1.43089e-06
1.42791e-06
1.42791e-06
1.42791e-06
1.42791e-06
1.4313e-06
1.43213e-06
1.43161e-06
1.42791e-06
1.42791e-06
1.42791e-06
1.42791e-06
1.42791e-06
1.42791e-06
1.43224e-06
1.43421e-06
1.43412e-06
1.4315e-06
1.42791e-06
1.42791e-06
1.42791e-06
1.42791e-06
1.42791e-06
1.42791e-06
1.43234e-06
1.434e-06
1.43395e-06
1.43141e-06
1.42791e-06
1.42791e-06
1.42791e-06
1.42791e-06
1.42791e-06
1.42791e-06
1.43232e-06
1.4323e-06
1.4316e-06
1.42791e-06
1.42791e-06
1.42791e-06
1.42791e-06
1.42791e-06
1.42791e-06
1.43231e-06
1.43431e-06
1.43373e-06
1.4313e-06
1.42791e-06
1.42791e-06
1.42791e-06
1.42791e-06
1.43209e-06
1.43229e-06
1.43423e-06
1.43399e-06
1.43213e-06
1.43224e-06
1.43234e-06
1.43232e-06
1.43231e-06
1.43229e-06
1.43421e-06
1.4342e-06
1.434e-06
1.4323e-06
1.43431e-06
1.43423e-06
1.41512e-06
1.41495e-06
1.41477e-06
1.4126e-06
1.41249e-06
1.4124e-06
1.41259e-06
1.41472e-06
1.41498e-06
1.41477e-06
1.41188e-06
1.4089e-06
1.4089e-06
1.4089e-06
1.4089e-06
1.41229e-06
1.41312e-06
1.4126e-06
1.4089e-06
1.4089e-06
1.4089e-06
1.4089e-06
1.4089e-06
1.4089e-06
1.41323e-06
1.4152e-06
1.41512e-06
1.41249e-06
1.4089e-06
1.4089e-06
1.4089e-06
1.4089e-06
1.4089e-06
1.4089e-06
1.41333e-06
1.41499e-06
1.41495e-06
1.4124e-06
1.4089e-06
1.4089e-06
1.4089e-06
1.4089e-06
1.4089e-06
1.4089e-06
1.41331e-06
1.41329e-06
1.41259e-06
1.4089e-06
1.4089e-06
1.4089e-06
1.4089e-06
1.4089e-06
1.4089e-06
1.4133e-06
1.41531e-06
1.41472e-06
1.41229e-06
1.4089e-06
1.4089e-06
1.4089e-06
1.4089e-06
1.41308e-06
1.41328e-06
1.41522e-06
1.41498e-06
1.41312e-06
1.41323e-06
1.41333e-06
1.41331e-06
1.4133e-06
1.41328e-06
1.4152e-06
1.4152e-06
1.41499e-06
1.41329e-06
1.41531e-06
1.41522e-06
1.39611e-06
1.39594e-06
1.39576e-06
1.3936e-06
1.39348e-06
1.39339e-06
1.39358e-06
1.39571e-06
1.39597e-06
1.39576e-06
1.39288e-06
1.38989e-06
1.38989e-06
1.38989e-06
1.38989e-06
1.39328e-06
1.39411e-06
1.39359e-06
1.38989e-06
1.38989e-06
1.38989e-06
1.38989e-06
1.38989e-06
1.38989e-06
1.39422e-06
1.39619e-06
1.39611e-06
1.39348e-06
1.38989e-06
1.38989e-06
1.38989e-06
1.38989e-06
1.38989e-06
1.38989e-06
1.39432e-06
1.39598e-06
1.39594e-06
1.3934e-06
1.38989e-06
1.38989e-06
1.38989e-06
1.38989e-06
1.38989e-06
1.38989e-06
1.39431e-06
1.39428e-06
1.39358e-06
1.38989e-06
1.38989e-06
1.38989e-06
1.38989e-06
1.38989e-06
1.38989e-06
1.39429e-06
1.3963e-06
1.39571e-06
1.39328e-06
1.38989e-06
1.38989e-06
1.38989e-06
1.38989e-06
1.39408e-06
1.39427e-06
1.39621e-06
1.39597e-06
1.39411e-06
1.39422e-06
1.39432e-06
1.3943e-06
1.39429e-06
1.39427e-06
1.3962e-06
1.39619e-06
1.39598e-06
1.39428e-06
1.3963e-06
1.39621e-06
1.3771e-06
1.37693e-06
1.37675e-06
1.37459e-06
1.37448e-06
1.37439e-06
1.37458e-06
1.3767e-06
1.37697e-06
1.37675e-06
1.37387e-06
1.37088e-06
1.37088e-06
1.37088e-06
1.37088e-06
1.37427e-06
1.3751e-06
1.37459e-06
1.37088e-06
1.37088e-06
1.37088e-06
1.37088e-06
1.37088e-06
1.37088e-06
1.37521e-06
1.37718e-06
1.3771e-06
1.37447e-06
1.37088e-06
1.37088e-06
1.37088e-06
1.37088e-06
1.37088e-06
1.37088e-06
1.37531e-06
1.37697e-06
1.37693e-06
1.37439e-06
1.37088e-06
1.37088e-06
1.37088e-06
1.37088e-06
1.37088e-06
1.37088e-06
1.3753e-06
1.37527e-06
1.37457e-06
1.37088e-06
1.37088e-06
1.37088e-06
1.37088e-06
1.37088e-06
1.37088e-06
1.37528e-06
1.37729e-06
1.3767e-06
1.37427e-06
1.37088e-06
1.37088e-06
1.37088e-06
1.37088e-06
1.37507e-06
1.37526e-06
1.3772e-06
1.37697e-06
1.3751e-06
1.37521e-06
1.37531e-06
1.3753e-06
1.37528e-06
1.37526e-06
1.37719e-06
1.37718e-06
1.37697e-06
1.37527e-06
1.37729e-06
1.3772e-06
1.35809e-06
1.35792e-06
1.35774e-06
1.35558e-06
1.35547e-06
1.35538e-06
1.35557e-06
1.3577e-06
1.35796e-06
1.35774e-06
1.35486e-06
1.35187e-06
1.35187e-06
1.35187e-06
1.35187e-06
1.35526e-06
1.35609e-06
1.35558e-06
1.35187e-06
1.35187e-06
1.35187e-06
1.35187e-06
1.35187e-06
1.35187e-06
1.35621e-06
1.35817e-06
1.35809e-06
1.35547e-06
1.35187e-06
1.35187e-06
1.35187e-06
1.35187e-06
1.35187e-06
1.35187e-06
1.35631e-06
1.35796e-06
1.35792e-06
1.35538e-06
1.35187e-06
1.35187e-06
1.35187e-06
1.35187e-06
1.35187e-06
1.35187e-06
1.35629e-06
1.35627e-06
1.35557e-06
1.35187e-06
1.35187e-06
1.35187e-06
1.35187e-06
1.35187e-06
1.35187e-06
1.35628e-06
1.35828e-06
1.3577e-06
1.35526e-06
1.35187e-06
1.35187e-06
1.35187e-06
1.35187e-06
1.35606e-06
1.35625e-06
1.35819e-06
1.35796e-06
1.3561e-06
1.35621e-06
1.35631e-06
1.35629e-06
1.35627e-06
1.35625e-06
1.35818e-06
1.35817e-06
1.35796e-06
1.35627e-06
1.35828e-06
1.35819e-06
1.33908e-06
1.33891e-06
1.33873e-06
1.33657e-06
1.33646e-06
1.33637e-06
1.33656e-06
1.33869e-06
1.33895e-06
1.33873e-06
1.33585e-06
1.33286e-06
1.33286e-06
1.33286e-06
1.33286e-06
1.33625e-06
1.33709e-06
1.33657e-06
1.33286e-06
1.33286e-06
1.33286e-06
1.33286e-06
1.33286e-06
1.33286e-06
1.3372e-06
1.33916e-06
1.33908e-06
1.33646e-06
1.33286e-06
1.33286e-06
1.33286e-06
1.33286e-06
1.33286e-06
1.33286e-06
1.3373e-06
1.33895e-06
1.33891e-06
1.33637e-06
1.33286e-06
1.33286e-06
1.33286e-06
1.33286e-06
1.33286e-06
1.33286e-06
1.33728e-06
1.33726e-06
1.33656e-06
1.33286e-06
1.33286e-06
1.33286e-06
1.33286e-06
1.33286e-06
1.33286e-06
1.33727e-06
1.33927e-06
1.33869e-06
1.33625e-06
1.33286e-06
1.33286e-06
1.33286e-06
1.33286e-06
1.33705e-06
1.33724e-06
1.33918e-06
1.33895e-06
1.33709e-06
1.3372e-06
1.3373e-06
1.33728e-06
1.33727e-06
1.33724e-06
1.33917e-06
1.33916e-06
1.33895e-06
1.33726e-06
1.33927e-06
1.33918e-06
1.32007e-06
1.3199e-06
1.31973e-06
1.31756e-06
1.31745e-06
1.31736e-06
1.31755e-06
1.31968e-06
1.31994e-06
1.31973e-06
1.31684e-06
1.31385e-06
1.31385e-06
1.31385e-06
1.31385e-06
1.31724e-06
1.31808e-06
1.31756e-06
1.31385e-06
1.31385e-06
1.31385e-06
1.31385e-06
1.31385e-06
1.31385e-06
1.31819e-06
1.32016e-06
1.32007e-06
1.31745e-06
1.31385e-06
1.31385e-06
1.31385e-06
1.31385e-06
1.31385e-06
1.31385e-06
1.31829e-06
1.31995e-06
1.3199e-06
1.31736e-06
1.31385e-06
1.31385e-06
1.31385e-06
1.31385e-06
1.31385e-06
1.31385e-06
1.31827e-06
1.31825e-06
1.31755e-06
1.31385e-06
1.31385e-06
1.31385e-06
1.31385e-06
1.31385e-06
1.31385e-06
1.31826e-06
1.32026e-06
1.31968e-06
1.31724e-06
1.31385e-06
1.31385e-06
1.31385e-06
1.31385e-06
1.31804e-06
1.31824e-06
1.32017e-06
1.31994e-06
1.31808e-06
1.31819e-06
1.31829e-06
1.31827e-06
1.31826e-06
1.31824e-06
1.32016e-06
1.32015e-06
1.31995e-06
1.31825e-06
1.32026e-06
1.32018e-06
1.30106e-06
1.30089e-06
1.30072e-06
1.29855e-06
1.29844e-06
1.29835e-06
1.29854e-06
1.30067e-06
1.30093e-06
1.30072e-06
1.29783e-06
1.29485e-06
1.29485e-06
1.29485e-06
1.29485e-06
1.29823e-06
1.29907e-06
1.29855e-06
1.29485e-06
1.29485e-06
1.29485e-06
1.29485e-06
1.29485e-06
1.29485e-06
1.29918e-06
1.30115e-06
1.30106e-06
1.29844e-06
1.29485e-06
1.29485e-06
1.29485e-06
1.29485e-06
1.29485e-06
1.29485e-06
1.29928e-06
1.30094e-06
1.30089e-06
1.29835e-06
1.29485e-06
1.29485e-06
1.29485e-06
1.29485e-06
1.29485e-06
1.29485e-06
1.29926e-06
1.29924e-06
1.29854e-06
1.29485e-06
1.29485e-06
1.29485e-06
1.29485e-06
1.29485e-06
1.29485e-06
1.29925e-06
1.30125e-06
1.30067e-06
1.29824e-06
1.29485e-06
1.29485e-06
1.29485e-06
1.29485e-06
1.29903e-06
1.29923e-06
1.30117e-06
1.30093e-06
1.29907e-06
1.29918e-06
1.29928e-06
1.29926e-06
1.29925e-06
1.29923e-06
1.30115e-06
1.30115e-06
1.30094e-06
1.29924e-06
1.30125e-06
1.30117e-06
1.28205e-06
1.28188e-06
1.28171e-06
1.27954e-06
1.27943e-06
1.27934e-06
1.27953e-06
1.28166e-06
1.28192e-06
1.28171e-06
1.27882e-06
1.27584e-06
1.27584e-06
1.27584e-06
1.27584e-06
1.27922e-06
1.28006e-06
1.27954e-06
1.27584e-06
1.27584e-06
1.27584e-06
1.27584e-06
1.27584e-06
1.27584e-06
1.28017e-06
1.28214e-06
1.28205e-06
1.27943e-06
1.27584e-06
1.27584e-06
1.27584e-06
1.27584e-06
1.27584e-06
1.27584e-06
1.28027e-06
1.28193e-06
1.28188e-06
1.27934e-06
1.27584e-06
1.27584e-06
1.27584e-06
1.27584e-06
1.27584e-06
1.27584e-06
1.28025e-06
1.28023e-06
1.27953e-06
1.27584e-06
1.27584e-06
1.27584e-06
1.27584e-06
1.27584e-06
1.27584e-06
1.28024e-06
1.28224e-06
1.28166e-06
1.27923e-06
1.27584e-06
1.27584e-06
1.27584e-06
1.27584e-06
1.28002e-06
1.28022e-06
1.28216e-06
1.28192e-06
1.28006e-06
1.28017e-06
1.28027e-06
1.28025e-06
1.28024e-06
1.28022e-06
1.28214e-06
1.28214e-06
1.28193e-06
1.28023e-06
1.28224e-06
1.28216e-06
1.26304e-06
1.26287e-06
1.2627e-06
1.26053e-06
1.26042e-06
1.26033e-06
1.26052e-06
1.26265e-06
1.26291e-06
1.2627e-06
1.25981e-06
1.25683e-06
1.25683e-06
1.25683e-06
1.25683e-06
1.26021e-06
1.26105e-06
1.26053e-06
1.25683e-06
1.25683e-06
1.25683e-06
1.25683e-06
1.25683e-06
1.25683e-06
1.26116e-06
1.26313e-06
1.26304e-06
1.26042e-06
1.25683e-06
1.25683e-06
1.25683e-06
1.25683e-06
1.25683e-06
1.25683e-06
1.26126e-06
1.26292e-06
1.26288e-06
1.26033e-06
1.25683e-06
1.25683e-06
1.25683e-06
1.25683e-06
1.25683e-06
1.25683e-06
1.26124e-06
1.26122e-06
1.26052e-06
1.25683e-06
1.25683e-06
1.25683e-06
1.25683e-06
1.25683e-06
1.25683e-06
1.26123e-06
1.26323e-06
1.26265e-06
1.26022e-06
1.25683e-06
1.25683e-06
1.25683e-06
1.25683e-06
1.26101e-06
1.26121e-06
1.26315e-06
1.26291e-06
1.26105e-06
1.26116e-06
1.26126e-06
1.26124e-06
1.26123e-06
1.26121e-06
1.26313e-06
1.26313e-06
1.26292e-06
1.26122e-06
1.26323e-06
1.26315e-06
1.24403e-06
1.24386e-06
1.24369e-06
1.24152e-06
1.24141e-06
1.24132e-06
1.24151e-06
1.24364e-06
1.2439e-06
1.24369e-06
1.2408e-06
1.23782e-06
1.23782e-06
1.23782e-06
1.23782e-06
1.24121e-06
1.24204e-06
1.24152e-06
1.23782e-06
1.23782e-06
1.23782e-06
1.23782e-06
1.23782e-06
1.23782e-06
1.24215e-06
1.24412e-06
1.24403e-06
1.24141e-06
1.23782e-06
1.23782e-06
1.23782e-06
1.23782e-06
1.23782e-06
1.23782e-06
1.24225e-06
1.24391e-06
1.24387e-06
1.24132e-06
1.23782e-06
1.23782e-06
1.23782e-06
1.23782e-06
1.23782e-06
1.23782e-06
1.24223e-06
1.24221e-06
1.24151e-06
1.23782e-06
1.23782e-06
1.23782e-06
1.23782e-06
1.23782e-06
1.23782e-06
1.24222e-06
1.24423e-06
1.24364e-06
1.24121e-06
1.23782e-06
1.23782e-06
1.23782e-06
1.23782e-06
1.242e-06
1.2422e-06
1.24414e-06
1.2439e-06
1.24204e-06
1.24215e-06