/*--------------------------------*- C++ -*----------------------------------*\
| =========                 |                                                 |
| \\      /  F ield         | OpenFOAM: The Open Source CFD Toolbox           |
|  \\    /   O peration     | Version:  v2012                                 |
|   \\  /    A nd           | Website:  www.openfoam.com                      |
|    \\/     M anipulation  |                                                 |
\*---------------------------------------------------------------------------*/
FoamFile
{
    version     2.0;
    format      ascii;
    class       volScalarField;
    location    "1762.5";
    object      epsilon;
}
// * * * * * * * * * * * * * * * * * * * * * * * * * * * * * * * * * * * * * //

dimensions      [0 2 -3 0 0 0 0];


internalField   nonuniform List<scalar> 
171728
(
1.46715e-09
3.38505e-09
4.85722e-09
5.25289e-09
1.42891e-09
3.12122e-09
4.43006e-09
4.68569e-09
1.36292e-09
2.85517e-09
4.01509e-09
4.18095e-09
1.30512e-09
2.62142e-09
3.65737e-09
3.76564e-09
1.25157e-09
2.4206e-09
3.34576e-09
3.42055e-09
1.20284e-09
2.25461e-09
3.08558e-09
3.12634e-09
1.15773e-09
2.12034e-09
2.86898e-09
2.87323e-09
1.1173e-09
2.01806e-09
2.69606e-09
2.66403e-09
1.07879e-09
1.94768e-09
2.56953e-09
2.50042e-09
1.04311e-09
1.91085e-09
2.48868e-09
2.37745e-09
1.01219e-09
1.90585e-09
2.44242e-09
2.29033e-09
9.84226e-10
1.93391e-09
2.43653e-09
2.24013e-09
9.60983e-10
2.00194e-09
2.47751e-09
2.23101e-09
9.35793e-10
2.12899e-09
2.57899e-09
2.27477e-09
9.12526e-10
2.32352e-09
2.76057e-09
2.41813e-09
8.92232e-10
2.64438e-09
3.06108e-09
2.60065e-09
8.72563e-10
3.11006e-09
3.54085e-09
3.0701e-09
8.55979e-10
3.88249e-09
4.28447e-09
3.80981e-09
8.31601e-10
4.95143e-09
5.39568e-09
5.05017e-09
8.01353e-10
6.66227e-09
7.07083e-09
7.31325e-09
7.83244e-10
9.01487e-09
9.56671e-09
1.12682e-08
7.8834e-10
1.26957e-08
1.3023e-08
1.74701e-08
8.21543e-10
1.74934e-08
1.79788e-08
2.74769e-08
8.92805e-10
2.4076e-08
2.48835e-08
4.96728e-08
1.02022e-09
3.34344e-08
3.36413e-08
7.04582e-08
1.18124e-09
4.27769e-08
4.49833e-08
1.10421e-07
1.28681e-09
6.03643e-08
5.82344e-08
1.57614e-07
1.44458e-09
7.46266e-08
7.71946e-08
2.17171e-07
1.80638e-09
9.44394e-08
9.49471e-08
2.90973e-07
2.2928e-09
1.19727e-07
1.19018e-07
3.64198e-07
2.86712e-09
1.41784e-07
1.44577e-07
4.43295e-07
3.91357e-09
1.75269e-07
1.73495e-07
5.14767e-07
5.13362e-09
2.03414e-07
2.07799e-07
5.93563e-07
6.95587e-09
2.43844e-07
2.38804e-07
6.48666e-07
9.16493e-09
2.73024e-07
2.82796e-07
7.10063e-07
1.22899e-08
3.28211e-07
3.17738e-07
7.57039e-07
1.51646e-08
3.58789e-07
3.64417e-07
7.93866e-07
2.02966e-08
4.05851e-07
4.06805e-07
8.49422e-07
2.60896e-08
4.66631e-07
4.6372e-07
8.71999e-07
3.20159e-08
4.91663e-07
4.96109e-07
9.17472e-07
4.16313e-08
5.57536e-07
5.62146e-07
9.52315e-07
5.04114e-08
5.97111e-07
5.96859e-07
9.78489e-07
6.22232e-08
6.4923e-07
6.45823e-07
9.97529e-07
7.50941e-08
6.93789e-07
6.97349e-07
1.03304e-06
9.16406e-08
7.39046e-07
7.41875e-07
1.06878e-06
1.08192e-07
7.91748e-07
7.87285e-07
1.09681e-06
1.28201e-07
8.20473e-07
8.25409e-07
1.1117e-06
1.48097e-07
8.7273e-07
8.72406e-07
1.1442e-06
1.7306e-07
9.02324e-07
8.98892e-07
1.17089e-06
2.022e-07
9.33649e-07
9.41691e-07
1.18575e-06
2.18829e-07
9.71376e-07
9.69476e-07
1.21679e-06
2.62768e-07
1.00693e-06
1.00247e-06
1.241e-06
2.93234e-07
1.0213e-06
1.02134e-06
1.25381e-06
3.11622e-07
1.05545e-06
1.05657e-06
1.28986e-06
3.48291e-07
1.07587e-06
1.07877e-06
1.2947e-06
3.79051e-07
1.09945e-06
1.09546e-06
1.30546e-06
4.14549e-07
1.11373e-06
1.12112e-06
1.34257e-06
4.38991e-07
1.14087e-06
1.13656e-06
1.34765e-06
4.76073e-07
1.15939e-06
1.15769e-06
1.36445e-06
4.98927e-07
1.17218e-06
1.17074e-06
1.37725e-06
5.30345e-07
1.18941e-06
1.19306e-06
1.38696e-06
5.51287e-07
1.19949e-06
1.20225e-06
1.40406e-06
5.79472e-07
1.22254e-06
1.21675e-06
1.42172e-06
5.9955e-07
1.2329e-06
1.22993e-06
1.42814e-06
6.21931e-07
1.24754e-06
1.24916e-06
1.44564e-06
6.42032e-07
1.24712e-06
1.25295e-06
1.43923e-06
6.55659e-07
1.25814e-06
1.25579e-06
1.45495e-06
6.75585e-07
1.28607e-06
1.28209e-06
1.49091e-06
6.96113e-07
1.2843e-06
1.28733e-06
1.47207e-06
7.08284e-07
1.27578e-06
1.28178e-06
1.46094e-06
7.15889e-07
1.29649e-06
1.29294e-06
1.50501e-06
7.35731e-07
1.31032e-06
1.30876e-06
1.51331e-06
7.50962e-07
1.30268e-06
1.30136e-06
1.48426e-06
7.57941e-07
1.3032e-06
1.3004e-06
1.50336e-06
7.67818e-07
1.31579e-06
1.3219e-06
1.52645e-06
7.79535e-07
1.32001e-06
1.32071e-06
1.516e-06
7.85216e-07
1.31227e-06
1.3131e-06
1.51011e-06
7.92418e-07
1.32325e-06
1.31699e-06
1.53001e-06
8.00444e-07
1.32629e-06
1.3176e-06
1.53186e-06
8.02384e-07
1.31386e-06
1.33109e-06
1.5198e-06
8.12604e-07
1.33053e-06
1.33417e-06
1.5283e-06
8.13831e-07
1.33096e-06
1.30626e-06
1.53295e-06
8.05101e-07
1.30124e-06
1.30316e-06
1.51872e-06
8.07145e-07
1.30145e-06
1.32612e-06
1.51796e-06
8.24236e-07
1.33533e-06
1.33095e-06
1.53335e-06
8.25196e-07
1.33039e-06
1.31758e-06
1.54731e-06
8.03817e-07
1.29227e-06
1.29292e-06
1.51343e-06
7.95843e-07
1.28681e-06
1.28985e-06
1.50419e-06
8.07564e-07
1.3088e-06
1.30927e-06
1.5381e-06
8.15897e-07
1.29943e-06
1.2978e-06
1.4888e-06
7.96686e-07
1.28425e-06
1.28332e-06
1.50997e-06
7.91242e-07
1.29109e-06
1.29202e-06
1.56537e-06
7.93472e-07
1.27308e-06
1.27782e-06
1.48001e-06
7.75904e-07
1.24052e-06
1.23887e-06
1.4189e-06
7.52121e-07
1.19336e-06
1.18754e-06
1.44466e-06
5.28424e-09
4.20793e-09
3.77152e-09
4.93119e-09
3.75045e-09
4.3342e-09
1.44167e-09
1.21424e-09
1.48129e-09
1.30584e-09
3.64492e-09
3.77586e-09
5.24477e-09
4.27995e-09
3.9303e-09
5.27583e-09
5.26336e-09
4.7536e-09
5.3086e-09
3.28018e-09
4.58275e-09
3.10044e-09
4.90821e-09
4.41942e-09
3.38076e-09
4.72572e-09
3.18826e-09
4.42129e-09
3.43938e-09
3.19307e-09
3.24112e-09
5.21817e-09
4.74195e-09
3.39215e-09
4.54452e-09
3.22756e-09
4.71504e-09
4.72194e-09
4.25315e-09
4.38885e-09
3.03079e-09
3.94378e-09
2.83618e-09
4.39199e-09
3.9583e-09
3.11668e-09
4.31178e-09
2.91696e-09
4.00938e-09
3.16638e-09
2.91833e-09
2.95731e-09
4.707e-09
4.28099e-09
3.16038e-09
4.11245e-09
2.97246e-09
4.20398e-09
4.22806e-09
3.83402e-09
3.82873e-09
2.77533e-09
3.53761e-09
2.60359e-09
3.93701e-09
3.57474e-09
2.85498e-09
3.9163e-09
2.68337e-09
3.65981e-09
2.89218e-09
2.6766e-09
2.71078e-09
4.25152e-09
3.89125e-09
2.91432e-09
3.74222e-09
2.75217e-09
3.78331e-09
3.81363e-09
3.47817e-09
3.45193e-09
2.5504e-09
3.22335e-09
2.39995e-09
3.55794e-09
3.25286e-09
2.63066e-09
3.58174e-09
2.48447e-09
3.36619e-09
2.65426e-09
2.46746e-09
2.49791e-09
3.86628e-09
3.55876e-09
2.7019e-09
3.41886e-09
2.56476e-09
3.43418e-09
3.46115e-09
3.17736e-09
3.15662e-09
2.35378e-09
2.97709e-09
2.22701e-09
3.24016e-09
2.97755e-09
2.44008e-09
3.30055e-09
2.31742e-09
3.12541e-09
2.44956e-09
2.29302e-09
2.31814e-09
3.53781e-09
3.27711e-09
2.52365e-09
3.1458e-09
2.41151e-09
3.13681e-09
3.16407e-09
2.92254e-09
2.92448e-09
2.18936e-09
2.78687e-09
2.08823e-09
2.96769e-09
2.73643e-09
2.28043e-09
3.07341e-09
2.17989e-09
2.93056e-09
2.27851e-09
2.15124e-09
2.17246e-09
3.26036e-09
3.03958e-09
2.37709e-09
2.91904e-09
2.28731e-09
2.88023e-09
2.91288e-09
2.71373e-09
2.74761e-09
2.05927e-09
2.64799e-09
1.98432e-09
2.73019e-09
2.53432e-09
2.1504e-09
2.88575e-09
2.07468e-09
2.76019e-09
2.14078e-09
2.04075e-09
2.06049e-09
3.02644e-09
2.83782e-09
2.2619e-09
2.73531e-09
2.19616e-09
2.66752e-09
2.70776e-09
2.5491e-09
2.61957e-09
1.96396e-09
2.54812e-09
1.91383e-09
2.53136e-09
2.37463e-09
2.05297e-09
2.72195e-09
2.00177e-09
2.62406e-09
2.03837e-09
1.96268e-09
1.98448e-09
2.82822e-09
2.66746e-09
2.17868e-09
2.59596e-09
2.13541e-09
2.50033e-09
2.54707e-09
2.4248e-09
2.52847e-09
1.9022e-09
2.48191e-09
1.87672e-09
2.37511e-09
2.25305e-09
1.98749e-09
2.59837e-09
1.95733e-09
2.53691e-09
1.96973e-09
1.91729e-09
1.94119e-09
2.66149e-09
2.53192e-09
2.12554e-09
2.50583e-09
2.10764e-09
2.37458e-09
2.42626e-09
2.33694e-09
2.46903e-09
1.87296e-09
2.44887e-09
1.87098e-09
2.2563e-09
2.16597e-09
1.94982e-09
2.52156e-09
1.94186e-09
2.49314e-09
1.93566e-09
1.90426e-09
1.93038e-09
2.53027e-09
2.43307e-09
2.10462e-09
2.45013e-09
2.10938e-09
2.28441e-09
2.3419e-09
2.28106e-09
2.44704e-09
1.87391e-09
2.4554e-09
1.89711e-09
2.17225e-09
2.11351e-09
1.94267e-09
2.48767e-09
1.95657e-09
2.48979e-09
1.93247e-09
1.92556e-09
1.95352e-09
2.43561e-09
2.37238e-09
2.11578e-09
2.43429e-09
2.1435e-09
2.22879e-09
2.29233e-09
2.26378e-09
2.46563e-09
1.91006e-09
2.51126e-09
1.96225e-09
2.12601e-09
2.10009e-09
1.96682e-09
2.49546e-09
2.01581e-09
2.52827e-09
1.96584e-09
1.98474e-09
2.01038e-09
2.38035e-09
2.35165e-09
2.15579e-09
2.46276e-09
2.21681e-09
2.21128e-09
2.28343e-09
2.29506e-09
2.53228e-09
1.98644e-09
2.6126e-09
2.08138e-09
2.12074e-09
2.13709e-09
2.03788e-09
2.54653e-09
2.12334e-09
2.62716e-09
2.03918e-09
2.09578e-09
2.11932e-09
2.36929e-09
2.37959e-09
2.24487e-09
2.54613e-09
2.32662e-09
2.24373e-09
2.32765e-09
2.39295e-09
2.65065e-09
2.12074e-09
2.78981e-09
2.25813e-09
2.171e-09
2.23711e-09
2.16027e-09
2.66202e-09
2.29957e-09
2.79528e-09
2.15294e-09
2.27209e-09
2.31596e-09
2.41068e-09
2.4716e-09
2.37259e-09
2.70493e-09
2.54932e-09
2.35001e-09
2.4466e-09
2.58893e-09
2.84912e-09
2.31598e-09
3.08269e-09
2.55448e-09
2.29164e-09
2.44699e-09
2.35672e-09
2.85515e-09
2.58074e-09
3.08576e-09
2.38231e-09
2.56488e-09
2.57831e-09
2.52579e-09
2.66363e-09
2.6023e-09
2.97192e-09
2.79674e-09
2.52622e-09
2.68086e-09
2.95142e-09
3.17766e-09
2.64543e-09
3.53091e-09
2.98465e-09
2.54477e-09
2.78619e-09
2.67116e-09
3.17721e-09
3.01193e-09
3.52985e-09
2.65367e-09
2.98029e-09
2.98488e-09
2.75354e-09
3.0267e-09
2.89392e-09
3.40042e-09
3.24944e-09
2.90024e-09
3.10008e-09
3.56995e-09
3.67826e-09
3.119e-09
4.20541e-09
3.67051e-09
2.9261e-09
3.47349e-09
3.15724e-09
3.68189e-09
3.66156e-09
4.23937e-09
3.14125e-09
3.66501e-09
3.68559e-09
3.17668e-09
3.68566e-09
3.39662e-09
4.07112e-09
3.914e-09
3.56545e-09
3.82193e-09
4.68775e-09
4.44341e-09
3.91295e-09
5.2725e-09
4.67564e-09
3.77308e-09
4.55516e-09
3.87897e-09
4.46375e-09
4.66978e-09
5.30688e-09
3.90447e-09
4.66331e-09
4.68089e-09
3.93176e-09
4.79285e-09
4.13462e-09
5.07368e-09
4.91694e-09
4.62146e-09
5.12254e-09
6.64629e-09
5.59601e-09
4.94611e-09
6.80005e-09
6.20633e-09
4.91296e-09
6.45144e-09
5.00606e-09
5.65579e-09
6.17361e-09
6.97907e-09
5.02389e-09
6.15454e-09
6.1853e-09
5.20231e-09
6.80102e-09
5.24687e-09
6.59567e-09
6.43253e-09
6.6309e-09
7.38532e-09
1.00713e-08
7.37831e-09
6.72292e-09
9.19845e-09
8.40828e-09
7.20382e-09
1.00372e-08
6.65849e-09
7.48493e-09
8.38157e-09
9.38961e-09
6.64676e-09
8.32144e-09
8.423e-09
7.50263e-09
1.01935e-08
6.89089e-09
8.83974e-09
8.65602e-09
9.94728e-09
1.12858e-08
1.60075e-08
1.00313e-08
9.10553e-09
1.28455e-08
1.1738e-08
1.09998e-08
1.65823e-08
9.08203e-09
1.01932e-08
1.1646e-08
1.28496e-08
9.12374e-09
1.16638e-08
1.16495e-08
1.13365e-08
1.64001e-08
9.34857e-09
1.19855e-08
1.19322e-08
1.56016e-08
1.80677e-08
2.61938e-08
1.39583e-08
1.2764e-08
1.85469e-08
1.62525e-08
1.88096e-08
2.5859e-08
1.27023e-08
1.39664e-08
1.59868e-08
1.78794e-08
1.26334e-08
1.62329e-08
1.58779e-08
1.80771e-08
2.71118e-08
1.29429e-08
1.66626e-08
1.60669e-08
2.54329e-08
2.89561e-08
4.39101e-08
2.02203e-08
1.75425e-08
2.64571e-08
2.21748e-08
2.921e-08
4.01423e-08
1.72423e-08
1.92349e-08
2.29172e-08
2.42672e-08
1.72535e-08
2.20051e-08
2.28728e-08
3.05745e-08
4.16617e-08
1.7437e-08
2.3105e-08
2.32084e-08
4.4511e-08
4.86263e-08
6.80394e-08
2.91324e-08
2.42177e-08
3.62424e-08
3.12133e-08
4.45173e-08
6.96967e-08
2.4781e-08
2.61344e-08
2.98361e-08
3.16762e-08
2.47711e-08
3.10805e-08
3.02766e-08
4.68135e-08
6.51836e-08
2.51245e-08
3.06113e-08
3.04931e-08
6.54353e-08
7.33986e-08
1.13852e-07
3.92684e-08
3.36666e-08
5.26371e-08
4.03952e-08
7.51929e-08
9.72976e-08
3.25731e-08
3.45342e-08
4.26595e-08
4.35801e-08
3.25498e-08
3.99959e-08
4.1681e-08
7.02065e-08
1.09566e-07
3.26411e-08
4.27244e-08
4.18415e-08
1.00626e-07
1.24067e-07
1.48528e-07
5.585e-08
4.30915e-08
6.31973e-08
5.64865e-08
1.04953e-07
1.48923e-07
4.52316e-08
4.56943e-08
5.50021e-08
5.40367e-08
4.49299e-08
5.61744e-08
5.44887e-08
1.16695e-07
1.38411e-07
4.53018e-08
5.41649e-08
5.50775e-08
1.48105e-07
1.57456e-07
2.04171e-07
6.66425e-08
6.07881e-08
7.70403e-08
7.04559e-08
1.63513e-07
2.0842e-07
5.91624e-08
5.80171e-08
6.95004e-08
7.26598e-08
5.81393e-08
7.00393e-08
7.07761e-08
1.50443e-07
2.11041e-07
5.86224e-08
7.24682e-08
7.08039e-08
2.03411e-07
2.15008e-07
2.73703e-07
8.12954e-08
7.49225e-08
9.87451e-08
9.00172e-08
2.15429e-07
2.75409e-07
7.33772e-08
7.7382e-08
8.9803e-08
8.97497e-08
7.56608e-08
8.98377e-08
9.03269e-08
2.23789e-07
2.7585e-07
7.58322e-08
8.99973e-08
9.09114e-08
2.7652e-07
2.91591e-07
3.54722e-07
1.04086e-07
9.49759e-08
1.19311e-07
1.14364e-07
2.95025e-07
3.48654e-07
9.53405e-08
9.46861e-08
1.12356e-07
1.1265e-07
9.50017e-08
1.13349e-07
1.12828e-07
2.88488e-07
3.45791e-07
9.54131e-08
1.12805e-07
1.13529e-07
3.48099e-07
3.67646e-07
4.28616e-07
1.24854e-07
1.20549e-07
1.40105e-07
1.36011e-07
3.65124e-07
4.29461e-07
1.18883e-07
1.1884e-07
1.36868e-07
1.37512e-07
1.19229e-07
1.35534e-07
1.3625e-07
3.64861e-07
4.27842e-07
1.20033e-07
1.37837e-07
1.36844e-07
4.2763e-07
4.4463e-07
5.00292e-07
1.45299e-07
1.42089e-07
1.67676e-07
1.67805e-07
4.40799e-07
5.03687e-07
1.42626e-07
1.44275e-07
1.66402e-07
1.65685e-07
1.4297e-07
1.66842e-07
1.67744e-07
4.41154e-07
5.01062e-07
1.44066e-07
1.65837e-07
1.67395e-07
4.99376e-07
5.1462e-07
5.74722e-07
1.75281e-07
1.76325e-07
1.96744e-07
1.95963e-07
5.23511e-07
5.70907e-07
1.74221e-07
1.73287e-07
1.95413e-07
1.9914e-07
1.74739e-07
1.95833e-07
1.97655e-07
5.17852e-07
5.74935e-07
1.74366e-07
1.99008e-07
1.99212e-07
5.79972e-07
5.91701e-07
6.34567e-07
2.06166e-07
2.03603e-07
2.36593e-07
2.35161e-07
5.85337e-07
6.37115e-07
2.0503e-07
2.08252e-07
2.34375e-07
2.31312e-07
2.07736e-07
2.33957e-07
2.33736e-07
5.89699e-07
6.34138e-07
2.09073e-07
2.31275e-07
2.33287e-07
6.33499e-07
6.48456e-07
6.91515e-07
2.43666e-07
2.451e-07
2.68538e-07
2.65462e-07
6.49826e-07
6.88835e-07
2.41407e-07
2.38597e-07
2.67967e-07
2.71143e-07
2.40194e-07
2.64715e-07
2.70076e-07
6.47656e-07
6.92693e-07
2.40154e-07
2.70658e-07
2.73181e-07
6.95969e-07
7.04503e-07
7.49764e-07
2.80408e-07
2.73618e-07
3.13444e-07
3.14319e-07
7.0224e-07
7.50578e-07
2.79383e-07
2.8361e-07
3.12375e-07
3.10002e-07
2.83929e-07
3.13851e-07
3.14296e-07
7.06949e-07
7.46393e-07
2.87521e-07
3.09224e-07
3.1909e-07
7.47829e-07
7.61736e-07
7.87535e-07
3.24413e-07
3.28893e-07
3.51978e-07
3.54882e-07
7.63017e-07
7.86338e-07
3.23161e-07
3.18432e-07
3.4982e-07
3.54929e-07
3.20494e-07
3.54023e-07
3.47106e-07
7.57436e-07
7.87139e-07
3.24217e-07
3.53711e-07
3.45332e-07
7.81183e-07
7.97701e-07
8.31573e-07
3.59831e-07
3.59833e-07
3.97333e-07
3.90873e-07
7.94555e-07
8.29437e-07
3.59458e-07
3.66005e-07
3.95823e-07
3.94418e-07
3.5949e-07
3.88522e-07
3.99084e-07
7.98022e-07
8.31976e-07
3.57828e-07
3.93341e-07
4.01515e-07
8.39554e-07
8.43062e-07
8.69894e-07
4.1179e-07
4.08164e-07
4.46719e-07
4.55997e-07
8.44724e-07
8.77435e-07
4.09258e-07
4.0763e-07
4.45086e-07
4.52787e-07
4.12658e-07
4.56653e-07
4.47621e-07
8.43783e-07
8.73244e-07
4.14852e-07
4.52525e-07
4.49715e-07
8.64173e-07
8.78358e-07
9.02168e-07
4.55983e-07
4.6471e-07
4.87578e-07
4.82375e-07
8.83763e-07
8.9531e-07
4.54907e-07
4.63639e-07
4.86924e-07
4.85961e-07
4.55517e-07
4.83273e-07
4.8376e-07
8.81544e-07
8.99743e-07
4.5833e-07
4.85797e-07
4.83938e-07
9.05312e-07
9.12251e-07
9.39401e-07
5.02669e-07
4.92694e-07
5.45124e-07
5.43006e-07
9.04163e-07
9.40377e-07
5.01706e-07
4.97213e-07
5.41397e-07
5.47765e-07
4.9908e-07
5.39087e-07
5.51219e-07
9.08965e-07
9.42337e-07
4.98112e-07
5.45467e-07
5.54627e-07
9.44322e-07
9.47612e-07
9.68168e-07
5.54358e-07
5.59469e-07
5.87015e-07
5.8644e-07
9.50807e-07
9.67254e-07
5.52118e-07
5.63228e-07
5.87189e-07
5.90269e-07
5.65066e-07
5.90508e-07
5.90847e-07
9.52078e-07
9.67521e-07
5.71421e-07
5.91181e-07
6.02464e-07
9.71653e-07
9.76401e-07
9.97835e-07
6.0203e-07
5.94027e-07
6.38337e-07
6.35705e-07
9.73413e-07
9.98013e-07
6.00007e-07
5.96831e-07
6.36498e-07
6.32899e-07
5.97731e-07
6.32459e-07
6.3231e-07
9.73335e-07
9.94701e-07
6.09677e-07
6.28823e-07
6.32647e-07
9.91069e-07
1.00496e-06
1.02537e-06
6.46511e-07
6.53027e-07
6.83828e-07
6.87265e-07
1.00804e-06
1.02778e-06
6.47199e-07
6.50096e-07
6.78346e-07
6.88778e-07
6.4571e-07
6.86928e-07
6.81653e-07
1.00481e-06
1.03066e-06
6.40847e-07
6.89137e-07
6.75409e-07
1.02273e-06
1.03411e-06
1.05874e-06
6.98164e-07
6.93606e-07
7.3091e-07
7.2381e-07
1.03331e-06
1.05315e-06
6.91464e-07
6.96221e-07
7.3492e-07
7.28325e-07
6.94033e-07
7.23581e-07
7.32142e-07
1.03705e-06
1.05477e-06
6.90093e-07
7.27224e-07
7.3389e-07
1.06108e-06
1.0655e-06
1.08369e-06
7.42616e-07
7.39376e-07
7.77008e-07
7.83101e-07
1.06259e-06
1.0879e-06
7.45359e-07
7.43889e-07
7.7068e-07
7.816e-07
7.45614e-07
7.82799e-07
7.81528e-07
1.06283e-06
1.08641e-06
7.48929e-07
7.79829e-07
7.91225e-07
1.09015e-06
1.09091e-06
1.11012e-06
7.86046e-07
7.92011e-07
8.16697e-07
8.11619e-07
1.09384e-06
1.10745e-06
7.82315e-07
7.88606e-07
8.20025e-07
8.13218e-07
7.89337e-07
8.11117e-07
8.09696e-07
1.09253e-06
1.10871e-06
8.01515e-07
8.12495e-07
8.18538e-07
1.10723e-06
1.11649e-06
1.13494e-06
8.28502e-07
8.21182e-07
8.55331e-07
8.61359e-07
1.11405e-06
1.14035e-06
8.29015e-07
8.2601e-07
8.50855e-07
8.65416e-07
8.1953e-07
8.60848e-07
8.58602e-07
1.11609e-06
1.1418e-06
8.223e-07
8.64259e-07
8.46285e-07
1.13458e-06
1.14159e-06
1.16415e-06
8.63159e-07
8.72847e-07
8.96403e-07
8.93857e-07
1.14791e-06
1.16156e-06
8.61166e-07
8.73864e-07
8.99292e-07
8.91946e-07
8.71917e-07
8.94474e-07
9.01844e-07
1.14807e-06
1.15956e-06
8.59586e-07
8.90157e-07
8.99616e-07
1.16613e-06
1.17134e-06
1.18439e-06
9.08223e-07
9.01869e-07
9.32001e-07
9.29756e-07
1.16638e-06
1.18413e-06
9.09748e-07
9.0055e-07
9.27629e-07
9.34078e-07
9.0825e-07
9.27454e-07
9.22179e-07
1.16474e-06
1.18816e-06
9.08737e-07
9.32996e-07
9.25796e-07
1.18074e-06
1.18794e-06
1.20214e-06
9.36004e-07
9.36415e-07
9.53896e-07
9.58339e-07
1.19026e-06
1.20745e-06
9.31351e-07
9.42619e-07
9.55152e-07
9.60382e-07
9.28084e-07
9.59284e-07
9.59973e-07
1.19531e-06
1.20931e-06
9.31093e-07
9.61014e-07
9.59299e-07
1.20791e-06
1.2112e-06
1.24455e-06
9.65554e-07
9.69211e-07
1.00447e-06
1.00045e-06
1.21514e-06
1.23926e-06
9.6843e-07
9.68244e-07
1.00416e-06
9.97103e-07
9.73183e-07
1.00137e-06
1.0011e-06
1.21468e-06
1.23467e-06
9.71749e-07
9.95913e-07
9.99756e-07
1.23738e-06
1.25e-06
1.25277e-06
1.0127e-06
1.00708e-06
1.02263e-06
1.01814e-06
1.24419e-06
1.2498e-06
1.01017e-06
1.00481e-06
1.01759e-06
1.0175e-06
1.0053e-06
1.01658e-06
1.01547e-06
1.23992e-06
1.24886e-06
1.00412e-06
1.01643e-06
1.01521e-06
1.24805e-06
1.2552e-06
1.27027e-06
1.02502e-06
1.0226e-06
1.04293e-06
1.04583e-06
1.25335e-06
1.27271e-06
1.02071e-06
1.02118e-06
1.04282e-06
1.04474e-06
1.02263e-06
1.04628e-06
1.05405e-06
1.25333e-06
1.27219e-06
1.02236e-06
1.04625e-06
1.05285e-06
1.2832e-06
1.27783e-06
1.2929e-06
1.05116e-06
1.05434e-06
1.06856e-06
1.06986e-06
1.28019e-06
1.29376e-06
1.05272e-06
1.05579e-06
1.07244e-06
1.07816e-06
1.06285e-06
1.07187e-06
1.07282e-06
1.28016e-06
1.29907e-06
1.0615e-06
1.07658e-06
1.07261e-06
1.29358e-06
1.29638e-06
1.31055e-06
1.07302e-06
1.07436e-06
1.09521e-06
1.09491e-06
1.29756e-06
1.31189e-06
1.0758e-06
1.08079e-06
1.09277e-06
1.0917e-06
1.07353e-06
1.0934e-06
1.08337e-06
1.30219e-06
1.30736e-06
1.07351e-06
1.08827e-06
1.08253e-06
1.29822e-06
1.31744e-06
1.32809e-06
1.10301e-06
1.10166e-06
1.11489e-06
1.11195e-06
1.31755e-06
1.32443e-06
1.10021e-06
1.09841e-06
1.11374e-06
1.11488e-06
1.09214e-06
1.11054e-06
1.12219e-06
1.313e-06
1.3304e-06
1.09122e-06
1.11757e-06
1.12222e-06
1.33728e-06
1.33055e-06
1.34177e-06
1.1169e-06
1.11428e-06
1.1318e-06
1.1313e-06
1.32704e-06
1.34187e-06
1.11623e-06
1.11694e-06
1.13166e-06
1.12924e-06
1.12831e-06
1.13261e-06
1.13385e-06
1.33339e-06
1.33908e-06
1.12877e-06
1.13047e-06
1.13424e-06
1.34469e-06
1.34903e-06
1.36218e-06
1.1393e-06
1.13954e-06
1.15537e-06
1.15723e-06
1.34986e-06
1.3648e-06
1.13904e-06
1.13755e-06
1.15375e-06
1.15921e-06
1.13631e-06
1.1573e-06
1.15195e-06
1.34533e-06
1.36489e-06
1.13596e-06
1.15491e-06
1.15083e-06
1.3596e-06
1.36463e-06
1.37262e-06
1.15777e-06
1.15952e-06
1.16876e-06
1.16793e-06
1.36741e-06
1.3727e-06
1.15627e-06
1.16196e-06
1.16931e-06
1.16765e-06
1.15731e-06
1.16733e-06
1.1697e-06
1.36806e-06
1.37088e-06
1.15644e-06
1.16504e-06
1.17005e-06
1.37351e-06
1.37829e-06
1.38812e-06
1.17431e-06
1.17282e-06
1.18654e-06
1.18599e-06
1.3773e-06
1.387e-06
1.17524e-06
1.17245e-06
1.18623e-06
1.18782e-06
1.17328e-06
1.18689e-06
1.18283e-06
1.37559e-06
1.3911e-06
1.17386e-06
1.18968e-06
1.183e-06
1.38382e-06
1.39047e-06
1.39919e-06
1.18858e-06
1.18798e-06
1.19945e-06
1.19602e-06
1.38946e-06
1.39483e-06
1.18792e-06
1.19065e-06
1.19935e-06
1.19989e-06
1.18586e-06
1.19529e-06
1.19911e-06
1.39484e-06
1.40018e-06
1.1855e-06
1.19905e-06
1.19742e-06
1.39799e-06
1.40491e-06
1.41461e-06
1.20476e-06
1.20127e-06
1.21641e-06
1.2181e-06
1.4e-06
1.41644e-06
1.20496e-06
1.20449e-06
1.21658e-06
1.21459e-06
1.20507e-06
1.21758e-06
1.22019e-06
1.40418e-06
1.41117e-06
1.20345e-06
1.21389e-06
1.21991e-06
1.41856e-06
1.41676e-06
1.42341e-06
1.21817e-06
1.22136e-06
1.22704e-06
1.22757e-06
1.42062e-06
1.42678e-06
1.21824e-06
1.21594e-06
1.22644e-06
1.22411e-06
1.22292e-06
1.2301e-06
1.22712e-06
1.41332e-06
1.41964e-06
1.22309e-06
1.22527e-06
1.22807e-06
1.42442e-06
1.42869e-06
1.44013e-06
1.23195e-06
1.23156e-06
1.24358e-06
1.24633e-06
1.43102e-06
1.44384e-06
1.23116e-06
1.22985e-06
1.24287e-06
1.24737e-06
1.22984e-06
1.24512e-06
1.24429e-06
1.42558e-06
1.44451e-06
1.23078e-06
1.2457e-06
1.24401e-06
1.44184e-06
1.44265e-06
1.44518e-06
1.24569e-06
1.24853e-06
1.25173e-06
1.24732e-06
1.44689e-06
1.43708e-06
1.24472e-06
1.25051e-06
1.25241e-06
1.2539e-06
1.24796e-06
1.24763e-06
1.24965e-06
1.44829e-06
1.44745e-06
1.24704e-06
1.25291e-06
1.24784e-06
1.43842e-06
1.44815e-06
1.45154e-06
1.25317e-06
1.24655e-06
1.25567e-06
1.25022e-06
1.43782e-06
1.4429e-06
1.25519e-06
1.25422e-06
1.25843e-06
1.25528e-06
1.24904e-06
1.25132e-06
1.25326e-06
1.4488e-06
1.44709e-06
1.24723e-06
1.25375e-06
1.25172e-06
1.44611e-06
1.45428e-06
1.46732e-06
1.25797e-06
1.25738e-06
1.27353e-06
1.28078e-06
1.45078e-06
1.48093e-06
1.25911e-06
1.25683e-06
1.27047e-06
1.27414e-06
1.26119e-06
1.28126e-06
1.28442e-06
1.45034e-06
1.47202e-06
1.25954e-06
1.2758e-06
1.283e-06
1.48678e-06
1.47284e-06
1.47889e-06
1.27834e-06
1.28543e-06
1.28454e-06
1.28694e-06
1.48625e-06
1.48124e-06
1.2758e-06
1.28008e-06
1.28419e-06
1.28625e-06
1.2876e-06
1.2876e-06
1.28282e-06
1.47894e-06
1.48245e-06
1.28652e-06
1.28804e-06
1.28316e-06
1.47286e-06
1.48063e-06
1.48011e-06
1.28554e-06
1.28429e-06
1.28708e-06
1.27864e-06
1.48151e-06
1.46506e-06
1.28509e-06
1.28596e-06
1.28663e-06
1.28419e-06
1.27789e-06
1.2761e-06
1.2715e-06
1.48331e-06
1.4749e-06
1.27877e-06
1.28242e-06
1.27326e-06
1.45725e-06
1.48163e-06
1.47773e-06
1.2869e-06
1.27847e-06
1.28543e-06
1.28749e-06
1.46647e-06
1.48381e-06
1.28661e-06
1.28412e-06
1.286e-06
1.28746e-06
1.27212e-06
1.28864e-06
1.29416e-06
1.47626e-06
1.48156e-06
1.27391e-06
1.28626e-06
1.29545e-06
1.495e-06
1.48062e-06
1.50001e-06
1.28607e-06
1.2935e-06
1.30257e-06
1.30745e-06
1.49219e-06
1.50823e-06
1.28672e-06
1.2916e-06
1.30234e-06
1.30506e-06
1.30279e-06
1.31006e-06
1.31252e-06
1.48711e-06
1.5041e-06
1.30362e-06
1.30773e-06
1.31189e-06
1.5135e-06
1.5061e-06
1.50491e-06
1.30751e-06
1.30877e-06
1.31009e-06
1.30678e-06
1.51001e-06
1.49997e-06
1.30698e-06
1.30718e-06
1.30929e-06
1.30686e-06
1.31104e-06
1.30432e-06
1.29741e-06
1.50716e-06
1.49929e-06
1.30961e-06
1.30375e-06
1.29416e-06
1.48365e-06
1.50543e-06
1.49768e-06
1.30766e-06
1.30539e-06
1.30456e-06
1.30421e-06
1.50096e-06
1.4992e-06
1.30693e-06
1.30502e-06
1.30367e-06
1.30222e-06
1.29566e-06
1.30182e-06
1.30038e-06
1.50002e-06
1.49398e-06
1.29236e-06
1.29911e-06
1.29838e-06
1.49536e-06
1.50116e-06
1.51325e-06
1.30525e-06
1.30476e-06
1.31397e-06
1.31129e-06
1.50192e-06
1.50896e-06
1.3042e-06
1.30247e-06
1.3134e-06
1.31447e-06
1.30637e-06
1.31239e-06
1.32001e-06
1.49712e-06
1.51568e-06
1.30528e-06
1.31741e-06
1.32135e-06
1.52335e-06
1.51698e-06
1.51656e-06
1.31613e-06
1.31444e-06
1.31836e-06
1.32045e-06
1.51297e-06
1.51985e-06
1.31594e-06
1.31902e-06
1.31833e-06
1.32299e-06
1.32138e-06
1.32029e-06
1.31734e-06
1.52179e-06
1.52292e-06
1.3231e-06
1.32387e-06
1.3192e-06
1.51571e-06
1.51779e-06
1.51227e-06
1.31826e-06
1.3205e-06
1.3154e-06
1.31464e-06
1.52169e-06
1.51061e-06
1.318e-06
1.32143e-06
1.31498e-06
1.31511e-06
1.3144e-06
1.31327e-06
1.3111e-06
1.52344e-06
1.51097e-06
1.31574e-06
1.31351e-06
1.3112e-06
1.50671e-06
1.51362e-06
1.51979e-06
1.31483e-06
1.3132e-06
1.31767e-06
1.31626e-06
1.51141e-06
1.5176e-06
1.31471e-06
1.31466e-06
1.31908e-06
1.3165e-06
1.31176e-06
1.31795e-06
1.32347e-06
1.51245e-06
1.51596e-06
1.31149e-06
1.31606e-06
1.32084e-06
1.52529e-06
1.52458e-06
1.5272e-06
1.32131e-06
1.32124e-06
1.32535e-06
1.32684e-06
1.52434e-06
1.53146e-06
1.32196e-06
1.31686e-06
1.324e-06
1.31652e-06
1.32684e-06
1.32833e-06
1.32918e-06
1.51805e-06
1.51394e-06
1.32386e-06
1.31752e-06
1.32664e-06
1.53097e-06
1.52786e-06
1.5171e-06
1.32435e-06
1.32554e-06
1.31764e-06
1.31546e-06
1.53183e-06
1.51224e-06
1.32211e-06
1.3166e-06
1.31826e-06
1.32757e-06
1.32733e-06
1.31453e-06
1.3168e-06
1.51552e-06
1.53318e-06
1.32574e-06
1.32634e-06
1.31939e-06
1.51886e-06
1.51945e-06
1.53434e-06
1.31742e-06
1.31493e-06
1.32588e-06
1.32613e-06
1.51363e-06
1.53382e-06
1.31882e-06
1.33331e-06
1.3299e-06
1.33832e-06
1.31516e-06
1.32491e-06
1.31863e-06
1.54179e-06
1.55069e-06
1.31856e-06
1.33553e-06
1.32194e-06
1.52348e-06
1.53939e-06
1.53211e-06
1.32957e-06
1.33185e-06
1.33066e-06
1.33578e-06
1.54193e-06
1.54449e-06
1.33164e-06
1.33623e-06
1.325e-06
1.30924e-06
1.32329e-06
1.33456e-06
1.32824e-06
1.55085e-06
1.50367e-06
1.32476e-06
1.31268e-06
1.32618e-06
1.53228e-06
1.53124e-06
1.50558e-06
1.32586e-06
1.33182e-06
1.3077e-06
1.30468e-06
1.54375e-06
1.50152e-06
1.3175e-06
1.30169e-06
1.30346e-06
1.29593e-06
1.32705e-06
1.30673e-06
1.31465e-06
1.502e-06
1.4938e-06
1.32325e-06
1.30088e-06
1.3125e-06
1.51781e-06
1.50658e-06
1.51428e-06
1.30465e-06
1.29861e-06
1.30392e-06
1.29557e-06
1.50096e-06
1.49648e-06
1.30278e-06
1.29913e-06
1.31076e-06
1.32407e-06
1.31161e-06
1.29798e-06
1.30779e-06
1.50124e-06
1.53725e-06
1.31083e-06
1.32164e-06
1.31014e-06
1.51569e-06
1.51996e-06
1.54259e-06
1.30699e-06
1.30034e-06
1.32738e-06
1.33208e-06
1.50399e-06
1.55013e-06
1.31592e-06
1.33065e-06
1.33114e-06
1.33811e-06
1.30784e-06
1.32905e-06
1.31754e-06
1.54456e-06
1.55456e-06
1.31089e-06
1.33097e-06
1.31834e-06
1.52724e-06
1.54919e-06
1.55027e-06
1.33295e-06
1.33875e-06
1.3357e-06
1.33939e-06
1.55886e-06
1.55498e-06
1.3339e-06
1.33794e-06
1.33197e-06
1.32275e-06
1.32306e-06
1.33702e-06
1.33051e-06
1.55625e-06
1.53397e-06
1.32217e-06
1.32312e-06
1.32768e-06
1.54574e-06
1.5495e-06
1.50525e-06
1.33093e-06
1.33091e-06
1.30141e-06
1.29845e-06
1.55293e-06
1.50251e-06
1.3241e-06
1.31412e-06
1.29643e-06
1.29149e-06
1.32982e-06
1.29981e-06
1.30631e-06
1.53227e-06
1.49797e-06
1.32717e-06
1.29768e-06
1.30639e-06
1.51544e-06
1.50465e-06
1.49361e-06
1.29411e-06
1.2909e-06
1.2854e-06
1.28361e-06
1.50165e-06
1.49234e-06
1.29063e-06
1.28768e-06
1.28527e-06
1.2854e-06
1.29765e-06
1.28536e-06
1.28897e-06
1.49822e-06
1.4962e-06
1.2982e-06
1.28852e-06
1.28979e-06
1.49767e-06
1.49665e-06
1.51318e-06
1.28541e-06
1.28449e-06
1.29727e-06
1.30296e-06
1.49701e-06
1.52346e-06
1.28574e-06
1.28768e-06
1.29915e-06
1.30636e-06
1.29162e-06
1.30498e-06
1.309e-06
1.50112e-06
1.52594e-06
1.29224e-06
1.30619e-06
1.30888e-06
1.53513e-06
1.52118e-06
1.53681e-06
1.30407e-06
1.30879e-06
1.31273e-06
1.31209e-06
1.5303e-06
1.53021e-06
1.30542e-06
1.31097e-06
1.31271e-06
1.31191e-06
1.30949e-06
1.30646e-06
1.28673e-06
1.53206e-06
1.52923e-06
1.30929e-06
1.30511e-06
1.28632e-06
1.4914e-06
1.53828e-06
1.50819e-06
1.31181e-06
1.30797e-06
1.28883e-06
1.28528e-06
1.53001e-06
1.50226e-06
1.31161e-06
1.30626e-06
1.28819e-06
1.28365e-06
1.27929e-06
1.28486e-06
1.27904e-06
1.52869e-06
1.50035e-06
1.27897e-06
1.28371e-06
1.27896e-06
1.49347e-06
1.50751e-06
1.49836e-06
1.28264e-06
1.28186e-06
1.27802e-06
1.28291e-06
1.50308e-06
1.5095e-06
1.28198e-06
1.28061e-06
1.27744e-06
1.28304e-06
1.29127e-06
1.28974e-06
1.31572e-06
1.50131e-06
1.51051e-06
1.29125e-06
1.29014e-06
1.31526e-06
1.56305e-06
1.50276e-06
1.50849e-06
1.28055e-06
1.28575e-06
1.28394e-06
1.28508e-06
1.51439e-06
1.50719e-06
1.28013e-06
1.28666e-06
1.28405e-06
1.28761e-06
1.31559e-06
1.28264e-06
1.27401e-06
1.51606e-06
1.51256e-06
1.31513e-06
1.28659e-06
1.27505e-06
1.48824e-06
1.50911e-06
1.47077e-06
1.28209e-06
1.27913e-06
1.25504e-06
1.25042e-06
1.50557e-06
1.46126e-06
1.28242e-06
1.28303e-06
1.25473e-06
1.25002e-06
1.25598e-06
1.24466e-06
1.22266e-06
1.51137e-06
1.46045e-06
1.25764e-06
1.24525e-06
1.22366e-06
1.41808e-06
1.46975e-06
1.44614e-06
1.24865e-06
1.24548e-06
1.22419e-06
1.22451e-06
1.46132e-06
1.44739e-06
1.24785e-06
1.24297e-06
1.22242e-06
1.21858e-06
1.22102e-06
1.22198e-06
1.22156e-06
1.45942e-06
1.43745e-06
1.22138e-06
1.21618e-06
1.21858e-06
1.44636e-06
1.43217e-06
1.19274e-06
1.19369e-06
1.43455e-06
1.1912e-06
1.18833e-06
7.52801e-07
7.49589e-07
7.57056e-07
1.20264e-06
1.42555e-06
1.19986e-06
3.34894e-11
2.40741e-09
2.07882e-10
1.52747e-10
5.40681e-09
3.56478e-09
2.89252e-09
9.51052e-10
5.51869e-09
4.50119e-09
1.00161e-09
1.12146e-08
5.45357e-09
1.98174e-09
2.14469e-09
7.51852e-09
2.08202e-07
6.0475e-09
3.24515e-07
1.45615e-06
2.9338e-06
8.66195e-09
1.58578e-07
7.39263e-09
2.50322e-07
1.23076e-09
1.51792e-09
1.32584e-09
1.4465e-09
1.2099e-09
1.49434e-09
1.3037e-09
4.74616e-09
7.35479e-08
2.71579e-09
3.33474e-09
4.97853e-09
5.29649e-08
2.68795e-09
1.57013e-06
3.09751e-06
4.77422e-09
3.01622e-09
8.65116e-08
4.77578e-09
5.0377e-09
2.97944e-09
6.46012e-08
2.10346e-07
2.0982e-07
5.00614e-09
1.77779e-07
1.79248e-07
1.67996e-08
5.74291e-07
1.2152e-08
8.35694e-07
6.69325e-06
9.67806e-06
1.78236e-08
4.5139e-07
1.33397e-08
6.47623e-07
1.19393e-09
1.47407e-09
1.28738e-09
1.37848e-09