/*--------------------------------*- C++ -*----------------------------------*\
| =========                 |                                                 |
| \\      /  F ield         | OpenFOAM: The Open Source CFD Toolbox           |
|  \\    /   O peration     | Version:  v2012                                 |
|   \\  /    A nd           | Website:  www.openfoam.com                      |
|    \\/     M anipulation  |                                                 |
\*---------------------------------------------------------------------------*/
FoamFile
{
    version     2.0;
    format      ascii;
    class       volScalarField;
    location    "1762.5";
    object      p;
}
// * * * * * * * * * * * * * * * * * * * * * * * * * * * * * * * * * * * * * //

dimensions      [0 2 -2 0 0 0 0];


internalField   nonuniform List<scalar> 
171728
(
0.003518
0.00351686
0.0035169
0.00351758
0.00348256
0.00348106
0.00348106
0.00348393
0.0034441
0.00344217
0.00344219
0.00344451
0.00340003
0.00339834
0.00339836
0.00340059
0.00335202
0.00335053
0.00335058
0.00335286
0.00330318
0.00330188
0.00330187
0.00330421
0.00325492
0.00325374
0.00325373
0.00325609
0.00320761
0.00320655
0.00320654
0.00320892
0.00316129
0.00316037
0.00316037
0.00316273
0.00311595
0.00311515
0.00311514
0.0031175
0.00307151
0.00307085
0.00307084
0.00307318
0.00302783
0.00302726
0.00302725
0.00302962
0.00298474
0.00298429
0.00298433
0.00298661
0.00294207
0.00294179
0.00294169
0.00294413
0.00289969
0.00289954
0.00289934
0.00290169
0.0028576
0.00285749
0.00285733
0.00285966
0.00281592
0.00281593
0.00281566
0.0028181
0.00277456
0.00277471
0.00277441
0.00277669
0.00273354
0.00273349
0.0027335
0.00273559
0.00269288
0.00269287
0.00269292
0.00269484
0.00265255
0.00265262
0.00265257
0.00265445
0.00261256
0.00261281
0.00261271
0.00261428
0.00257284
0.00257308
0.00257316
0.00257457
0.00253341
0.0025336
0.00253358
0.00253544
0.0024941
0.00249451
0.00249432
0.00249594
0.00245526
0.00245559
0.00245569
0.00245732
0.00241646
0.00241696
0.00241689
0.00241856
0.00237785
0.00237828
0.00237841
0.0023802
0.00233962
0.0023402
0.00234011
0.00234207
0.00230148
0.00230213
0.00230208
0.00230387
0.00226345
0.00226403
0.00226409
0.00226596
0.00222568
0.00222634
0.00222634
0.00222809
0.00218796
0.00218864
0.00218866
0.00219065
0.0021505
0.00215114
0.00215112
0.00215296
0.00211307
0.00211371
0.00211377
0.00211564
0.00207585
0.00207652
0.00207641
0.00207822
0.00203859
0.00203907
0.0020392
0.00204118
0.00200176
0.00200245
0.00200229
0.00200411
0.00196484
0.00196512
0.00196522
0.00196709
0.00192805
0.00192843
0.00192844
0.00193074
0.00189161
0.00189199
0.00189195
0.00189369
0.001855
0.00185513
0.00185511
0.00185727
0.00181865
0.00181893
0.00181897
0.00182086
0.00178249
0.00178242
0.00178242
0.00178472
0.00174642
0.00174661
0.00174654
0.00174847
0.00171049
0.00171031
0.0017104
0.00171247
0.00167457
0.00167458
0.00167458
0.00167657
0.00163879
0.00163876
0.00163859
0.00164101
0.00160332
0.00160302
0.00160314
0.00160498
0.00156769
0.00156755
0.00156756
0.00156962
0.00153218
0.00153223
0.0015321
0.00153432
0.00149737
0.00149667
0.00149678
0.00149864
0.00146186
0.00146165
0.0014617
0.0014638
0.00142647
0.00142661
0.00142652
0.00142851
0.00139177
0.00139118
0.00139119
0.00139308
0.00135666
0.00135641
0.00135643
0.0013585
0.00132165
0.00132141
0.00132141
0.00132347
0.00128683
0.00128676
0.00128662
0.0012884
0.00125221
0.00125175
0.00125185
0.00125388
0.00121738
0.0012172
0.00121717
0.0012191
0.00118263
0.00118235
0.0011824
0.00118423
0.00114801
0.00114785
0.00114778
0.00114984
0.00111334
0.0011132
0.0011131
0.00111503
0.00107905
0.00107876
0.0010789
0.00108064
0.00104449
0.00104424
0.00104427
0.00104622
0.00100966
0.00100925
0.00100932
0.00101115
0.000975293
0.000975545
0.00097531
0.000977489
0.000941294
0.000941126
0.000941205
0.000942934
0.000906253
0.000905619
0.000905764
0.000907414
0.0008717
0.000871603
0.000871605
0.000873625
0.000837562
0.000838084
0.000837835
0.00084011
0.000803205
0.000802664
0.000802738
0.000804452
0.000767874
0.000767521
0.000767489
0.000769369
0.000733626
0.000733756
0.000733823
0.000736009
0.000699663
0.000699711
0.000699852
0.000701577
0.000664682
0.000664419
0.000664156
0.000666129
0.000629555
0.000629365
0.000629497
0.000631466
0.000595479
0.000595753
0.000595488
0.000597612
0.000560707
0.000560477
0.000560739
0.000562539
0.000525763
0.000525394
0.000525871
0.000527415
0.000491227
0.000491481
0.000490754
0.000493154
0.000455612
0.000455743
0.000455435
0.000457746
0.000420477
0.000420147
0.000420962
0.000422501
0.000386173
0.000386104
0.000386149
0.000387922
0.000351942
0.000351951
0.000351239
0.000353539
0.000316017
0.000315905
0.000316032
0.000318147
0.000279762
0.000279742
0.000280089
0.000281751
0.000245074
0.000245257
0.000245198
0.000247284
0.000210627
0.000210459
0.000210341
0.000212281
0.000174768
0.0001742
0.000174155
0.000175664
0.000138543
0.000139251
0.000139272
0.000141832
0.000104113
0.000104109
0.000104129
0.000105989
6.76982e-05
6.69474e-05
6.70373e-05
6.81392e-05
3.11083e-05
3.10309e-05
3.08046e-05
3.30748e-05
4.69562e-06
5.92908e-06
5.83085e-06
4.49833e-06
0.00352241
0.00352
0.00351981
0.00352227
0.00351994
0.00351995
0.00352632
0.00352629
0.00352632
0.00352631
0.0035198
0.00351982
0.00352239
0.00351993
0.00351986
0.00352231
0.00351766
0.00348871
0.00351693
0.0035169
0.00349055
0.00349048
0.00351755
0.00348873
0.00351694
0.00351694
0.0034905
0.00349044
0.00351687
0.00349054
0.00349055
0.00351764
0.00348872
0.00351689
0.00349056
0.00349058
0.00348871
0.00348398
0.00345006
0.00348116
0.00348113
0.00345231
0.00345226
0.00348395
0.00345007
0.00348116
0.00348118
0.00345231
0.00345228
0.00348108
0.00345238
0.00345237
0.00348395
0.00345007
0.00348104
0.00345235
0.00345231
0.00345004
0.00344456
0.00340677
0.00344234
0.00344223
0.0034098
0.00340982
0.00344453
0.00340678
0.00344223
0.00344225
0.0034098
0.00340981
0.00344217
0.00340986
0.00340986
0.00344454
0.00340677
0.00344221
0.00340983
0.00340981
0.00340676
0.0034006
0.00335932
0.00339838
0.00339836
0.00336265
0.00336268
0.00340059
0.00335931
0.00339835
0.00339836
0.00336268
0.00336271
0.00339835
0.00336272
0.00336269
0.0034006
0.00335932
0.00339837
0.00336267
0.00336264
0.00335932
0.00335286
0.00331067
0.0033505
0.00335051
0.003314
0.00331402
0.00335284
0.00331065
0.00335052
0.00335053
0.00331404
0.00331404
0.00335056
0.00331398
0.00331401
0.00335287
0.00331067
0.0033506
0.00331399
0.00331402
0.00331067
0.00330423
0.00326243
0.00330184
0.00330185
0.00326568
0.00326568
0.0033042
0.00326241
0.00330187
0.00330188
0.00326567
0.0032657
0.00330188
0.00326568
0.0032657
0.00330422
0.00326243
0.00330185
0.0032657
0.00326572
0.00326242
0.0032561
0.0032151
0.00325376
0.00325374
0.00321827
0.00321827
0.00325608
0.00321509
0.00325376
0.00325376
0.00321826
0.00321826
0.00325375
0.00321827
0.00321826
0.0032561
0.0032151
0.00325373
0.00321825
0.00321825
0.00321511
0.00320892
0.00316879
0.00320657
0.00320654
0.00317186
0.00317184
0.0032089
0.00316877
0.00320657
0.00320656
0.00317185
0.00317184
0.00320653
0.00317184
0.00317182
0.00320891
0.0031688
0.00320656
0.00317183
0.00317184
0.00316876
0.00316274
0.00312344
0.00316039
0.00316037
0.00312638
0.00312636
0.00316273
0.00312342
0.00316039
0.00316037
0.00312638
0.00312639
0.0031604
0.00312637
0.00312639
0.00316275
0.00312343
0.00316041
0.00312638
0.00312639
0.00312339
0.00311753
0.00307898
0.00311519
0.00311516
0.00308182
0.00308182
0.00311753
0.00307896
0.00311519
0.00311514
0.00308182
0.00308184
0.00311517
0.00308182
0.00308186
0.00311752
0.00307898
0.00311515
0.00308182
0.00308185
0.00307897
0.00307322
0.00303529
0.00307085
0.00307086
0.0030381
0.00303814
0.00307318
0.00303531
0.00307083
0.00307085
0.0030381
0.00303812
0.00307083
0.00303814
0.00303814
0.00307321
0.00303531
0.00307082
0.00303812
0.00303809
0.00303532
0.00302959
0.00299221
0.00302725
0.00302726
0.00299497
0.00299497
0.0030296
0.0029922
0.00302722
0.00302727
0.00299496
0.00299495
0.00302731
0.00299497
0.002995
0.00302961
0.00299221
0.00302729
0.00299493
0.00299501
0.00299221
0.00298663
0.00294961
0.00298433
0.00298429
0.00295235
0.00295225
0.0029866
0.00294951
0.00298434
0.00298433
0.00295234
0.00295229
0.00298442
0.00295225
0.00295228
0.00298664
0.00294962
0.00298436
0.00295231
0.00295233
0.0029496
0.00294409
0.00290726
0.00294178
0.00294179
0.00291006
0.00290995
0.00294402
0.00290716
0.00294178
0.00294172
0.00291008
0.00290995
0.00294182
0.00290995
0.00290991
0.00294408
0.0029072
0.00294184
0.00290992
0.00290997
0.0029072
0.00290172
0.00286511
0.00289934
0.00289952
0.00286787
0.00286789
0.00290176
0.00286506
0.00289937
0.00289933
0.0028679
0.00286786
0.00289924
0.00286789
0.00286804
0.00290171
0.00286511
0.00289915
0.00286786
0.00286796
0.00286506
0.00285964
0.00282335
0.00285733
0.00285748
0.00282619
0.00282627
0.00285966
0.00282329
0.00285729
0.0028573
0.00282611
0.00282621
0.00285734
0.00282625
0.00282617
0.00285966
0.00282338
0.00285731
0.00282624
0.00282612
0.00282344
0.00281799
0.002782
0.00281581
0.00281593
0.0027849
0.0027847
0.00281797
0.00278199
0.00281578
0.0028157
0.00278482
0.00278484
0.00281579
0.00278468
0.00278483
0.00281797
0.00278194
0.00281583
0.0027848
0.00278487
0.00278199
0.00277667
0.00274095
0.00277445
0.00277467
0.00274385
0.00274364
0.00277673
0.00274079
0.00277451
0.00277439
0.00274378
0.00274374
0.00277447
0.00274365
0.00274374
0.00277657
0.00274078
0.00277449
0.0027437
0.00274368
0.00274084
0.00273566
0.00270009
0.00273348
0.00273351
0.00270302
0.00270292
0.00273557
0.0027001
0.00273354
0.00273343
0.00270297
0.00270302
0.0027335
0.00270287
0.00270312
0.00273554
0.00270004
0.00273354
0.00270304
0.0027031
0.00269998
0.00269485
0.00265962
0.00269284
0.00269287
0.00266262
0.00266275
0.00269491
0.00265948
0.002693
0.00269288
0.00266264
0.00266268
0.00269293
0.00266274
0.00266268
0.00269489
0.00265951
0.00269304
0.00266266
0.00266267
0.00265958
0.00265439
0.00261955
0.00265253
0.00265257
0.00262259
0.00262282
0.0026544
0.00261941
0.0026527
0.00265255
0.00262259
0.00262275
0.00265275
0.00262275
0.00262256
0.00265441
0.00261933
0.00265278
0.00262269
0.00262255
0.00261944
0.00261434
0.00257977
0.00261255
0.00261279
0.00258289
0.00258286
0.00261445
0.00257954
0.00261264
0.00261266
0.00258285
0.00258299
0.00261261
0.0025828
0.002583
0.0026143
0.00257966
0.00261266
0.00258296
0.00258301
0.0025797
0.00257459
0.00254038
0.00257284
0.00257306
0.00254351
0.00254333
0.00257458
0.00254009
0.00257286
0.00257317
0.00254348
0.0025433
0.00257291
0.00254332
0.00254363
0.00257476
0.00254009
0.00257289
0.00254336
0.00254362
0.0025404
0.00253538
0.00250101
0.00253362
0.00253363
0.00250426
0.00250426
0.00253503
0.00250128
0.00253356
0.00253362
0.00250427
0.00250416
0.00253372
0.00250431
0.00250428
0.00253515
0.00250094
0.00253365
0.00250422
0.00250426
0.00250094
0.00249596
0.00246273
0.00249436
0.0024945
0.00246543
0.00246527
0.00249624
0.00246212
0.00249439
0.00249434
0.00246548
0.00246546
0.00249445
0.00246529
0.00246535
0.00249577
0.00246274
0.00249437
0.00246546
0.00246534
0.00246221
0.00245778
0.00242326
0.00245579
0.00245555
0.00242638
0.00242658
0.0024572
0.00242353
0.0024557
0.00245571
0.00242646
0.00242642
0.00245568
0.00242659
0.00242653
0.00245766
0.002423
0.00245561
0.00242642
0.0024265
0.00242352
0.00241834
0.00238518
0.0024167
0.00241694
0.00238801
0.00238797
0.00241874
0.00238523
0.00241686
0.00241691
0.00238803
0.00238804
0.00241691
0.002388
0.00238803
0.00241831
0.00238536
0.00241685
0.00238804
0.00238799
0.00238508
0.00238015
0.00234694
0.00237834
0.00237828
0.00234979
0.00234977
0.00238005
0.00234709
0.00237835
0.00237842
0.00234975
0.00234972
0.00237844
0.00234979
0.0023497
0.00238034
0.00234695
0.0023784
0.00234973
0.00234966
0.00234699
0.0023421
0.00230893
0.00234024
0.0023402
0.00231158
0.00231159
0.00234234
0.00230857
0.00234023
0.00234012
0.00231163
0.00231161
0.00234016
0.00231157
0.00231156
0.00234202
0.00230873
0.00234009
0.0023116
0.00231157
0.00230877
0.00230393
0.00227093
0.00230206
0.00230213
0.00227355
0.00227351
0.00230369
0.00227104
0.00230212
0.00230209
0.00227359
0.00227355
0.00230205
0.00227351
0.00227358
0.00230392
0.00227088
0.00230201
0.00227356
0.00227361
0.00227088
0.00226604
0.00223305
0.0022641
0.00226403
0.00223573
0.0022358
0.00226602
0.00223312
0.00226414
0.00226408
0.00223573
0.00223576
0.00226409
0.0022358
0.0022358
0.0022659
0.00223311
0.00226409
0.00223575
0.0022358
0.00223302
0.00222815
0.00219554
0.00222632
0.00222634
0.00219811
0.00219804
0.0022283
0.00219532
0.00222633
0.00222633
0.00219809
0.00219808
0.00222638
0.00219805
0.00219807
0.00222823
0.00219544
0.0022264
0.00219807
0.00219803
0.00219559
0.00219066
0.00215771
0.00218869
0.00218865
0.00216051
0.00216054
0.00219043
0.00215784
0.00218868
0.00218868
0.00216052
0.00216046
0.00218865
0.00216054
0.00216049
0.00219054
0.00215784
0.00218861
0.00216048
0.00216052
0.00215779
0.00215286
0.0021205
0.00215113
0.00215113
0.00212304
0.00212301
0.0021529
0.00212048
0.00215114
0.00215109
0.00212305
0.0021231
0.00215111
0.00212301
0.00212315
0.00215297
0.00212047
0.00215113
0.00212311
0.00212317
0.00212056
0.00211559
0.00208323
0.00211376
0.0021137
0.00208581
0.00208589
0.00211562
0.00208325
0.00211377
0.00211376
0.00208582
0.00208573
0.00211382
0.0020859
0.0020857
0.00211556
0.0020832
0.00211383
0.00208573
0.00208566
0.00208309
0.00207832
0.00204592
0.00207646
0.00207651
0.00204845
0.00204836
0.00207829
0.00204586
0.00207645
0.00207641
0.00204846
0.00204848
0.00207634
0.00204835
0.00204848
0.00207833
0.00204591
0.00207629
0.00204849
0.00204847
0.00204603
0.00204108
0.00200902
0.00203919
0.00203908
0.00201149
0.00201161
0.00204103
0.00200928
0.00203922
0.00203918
0.00201148
0.00201148
0.00203926
0.00201161
0.00201154
0.00204102
0.00200912
0.00203928
0.00201149
0.00201155
0.00200901
0.00200415
0.00197205
0.00200226
0.00200244
0.00197452
0.00197445
0.00200442
0.00197186
0.00200225
0.00200228
0.00197452
0.00197452
0.00200226
0.00197448
0.00197438
0.00200426
0.00197196
0.00200224
0.00197452
0.00197435
0.00197193
0.00196718
0.00193532
0.00196526
0.00196512
0.00193763
0.00193753
0.00196698
0.00193527
0.00196527
0.00196522
0.00193765
0.00193755
0.00196516
0.00193751
0.00193779
0.00196707
0.00193531
0.00196514
0.00193756
0.00193774
0.00193558
0.00193047
0.00189863
0.00192849
0.00192845
0.00190099
0.00190119
0.00193048
0.00189882
0.00192849
0.00192846
0.001901
0.00190112
0.00192866
0.00190121
0.00190093
0.00193051
0.00189871
0.00192865
0.00190117
0.00190103
0.00189853
0.00189383
0.00186217
0.00189183
0.00189195
0.00186447
0.00186427
0.00189388
0.00186201
0.00189187
0.00189189
0.00186443
0.00186426
0.00189172
0.00186425
0.00186438
0.00189382
0.00186201
0.00189176
0.00186423
0.00186431
0.00186208
0.00185728
0.00182557
0.0018553
0.00185517
0.00182776
0.00182804
0.00185722
0.00182583
0.00185525
0.00185514
0.00182783
0.00182799
0.00185527
0.00182802
0.00182784
0.00185721
0.00182583
0.00185522
0.00182801
0.0018278
0.00182568
0.0018208
0.00178951
0.00181873
0.00181891
0.00179172
0.00179142
0.00182095
0.00178926
0.00181875
0.00181893
0.00179168
0.0017915
0.00181874
0.00179144
0.0017917
0.00182098
0.00178929
0.00181873
0.00179151
0.00179172
0.00178953
0.00178469
0.00175325
0.00178263
0.00178243
0.00175541
0.00175561
0.00178451
0.00175351
0.00178267
0.00178243
0.00175543
0.00175556
0.00178269
0.0017556
0.00175544
0.00178452
0.00175342
0.00178271
0.00175552
0.00175543
0.00175327
0.00174845
0.00171736
0.00174642
0.00174661
0.00171945
0.00171934
0.00174869
0.00171713
0.00174634
0.00174657
0.00171948
0.00171931
0.00174639
0.00171934
0.00171939
0.00174858
0.00171722
0.00174639
0.00171942
0.00171944
0.00171724
0.0017126
0.00168134
0.00171049
0.00171032
0.00168349
0.00168351
0.00171238
0.00168147
0.00171058
0.00171032
0.00168347
0.0016836
0.00171041
0.0016835
0.00168344
0.00171247
0.00168151
0.00171043
0.00168354
0.00168334
0.00168136
0.00167652
0.00164562
0.00167447
0.00167458
0.00164763
0.00164772
0.00167669
0.00164556
0.00167441
0.00167463
0.00164764
0.00164754
0.00167449
0.00164775
0.00164786
0.00167669
0.00164542
0.00167436
0.00164754
0.00164785
0.00164576
0.00164088
0.00160994
0.00163877
0.00163871
0.00161211
0.00161188
0.00164077
0.00160988
0.00163881
0.00163857
0.0016121
0.00161196
0.00163892
0.00161188
0.00161181
0.00164067
0.00160998
0.00163903
0.00161201
0.0016119
0.00160975
0.00160515
0.00157421
0.00160313
0.00160304
0.00157622
0.00157649
0.00160513
0.00157435
0.00160307
0.00160312
0.00157623
0.00157655
0.00160284
0.00157645
0.00157636
0.00160523
0.00157434
0.00160287
0.00157649
0.00157632
0.00157434
0.00156948
0.00153906
0.00156738
0.00156755
0.00154102
0.00154094
0.0015696
0.00153899
0.00156742
0.00156759
0.00154107
0.00154084
0.0015676
0.00154104
0.00154114
0.00156956
0.00153891
0.00156755
0.00154089
0.0015411
0.00153908
0.00153435
0.00150357
0.0015323
0.00153215
0.00150582
0.00150567
0.00153424
0.0015035
0.00153232
0.00153205
0.00150568
0.00150573
0.00153227
0.00150553
0.00150546
0.00153419
0.00150356
0.00153226
0.00150562
0.0015055
0.00150338
0.00149879
0.00146822
0.00149678
0.00149681
0.00147016
0.00147035
0.00149877
0.00146834
0.0014967
0.00149687
0.00147028
0.00147034
0.0014966
0.00147039
0.00147042
0.00149881
0.00146839
0.00149664
0.00147046
0.00147048
0.00146848
0.00146351
0.00143338
0.00146142
0.00146155
0.00143534
0.00143531
0.00146362
0.00143335
0.00146154
0.00146156
0.00143537
0.00143534
0.00146173
0.0014354
0.00143549
0.00146369
0.00143328
0.00146177
0.00143531
0.00143542
0.00143331
0.00142869
0.00139803
0.00142665
0.00142657
0.00140014
0.00140009
0.00142862
0.00139798
0.00142664
0.00142661
0.00140004
0.00140006
0.00142657
0.00139996
0.00139979
0.00142855
0.00139794
0.0014265
0.00140001
0.00139984
0.00139779
0.0013933
0.00136312
0.00139134
0.00139134
0.00136522
0.00136522
0.00139325
0.00136314
0.00139123
0.00139122
0.00136513
0.00136503
0.00139108
0.00136514
0.00136516
0.00139319
0.00136306
0.00139111
0.00136504
0.0013651
0.00136315
0.00135842
0.00132791
0.00135644
0.0013564
0.00132991
0.00132994
0.00135843
0.00132797
0.00135643
0.00135638
0.00133003
0.00133011
0.00135651
0.00133013
0.00133045
0.0013584
0.00132807
0.00135647
0.00133029
0.00133052
0.00132826
0.0013232
0.00129345
0.00132121
0.00132124
0.00129546
0.00129551
0.00132325
0.00129345
0.00132128
0.00132131
0.00129541
0.00129538
0.00132157
0.00129539
0.00129508
0.0013233
0.0012933
0.00132162
0.0012952
0.00129498
0.00129305
0.00128883
0.00125839
0.00128687
0.00128692
0.00126048
0.00126053
0.00128881
0.00125839
0.00128682
0.00128683
0.00126051
0.0012606
0.00128644
0.00126049
0.00126063
0.00128867
0.00125849
0.00128635
0.00126065
0.00126069
0.00125859
0.00125365
0.00122383
0.00125172
0.00125174
0.00122587
0.00122574
0.00125365
0.00122377
0.00125176
0.00125173
0.00122586
0.00122569
0.00125196
0.0012258
0.00122582
0.00125374
0.00122373
0.00125205
0.00122577
0.00122583
0.00122378
0.00121919
0.00118893
0.00121729
0.00121715
0.00119103
0.00119109
0.00121913
0.00118897
0.00121725
0.00121712
0.00119099
0.00119118
0.0012171
0.00119109
0.00119101
0.00121907
0.00118903
0.00121709
0.00119117
0.00119098
0.00118894
0.00118422
0.00115455
0.00118231
0.00118236
0.00115654
0.0011565
0.00118425
0.00115447
0.0011823
0.00118243
0.00115657
0.00115649
0.00118236
0.00115643
0.00115656
0.0011843
0.00115444
0.00118233
0.0011564
0.00115655
0.00115449
0.00114992
0.0011196
0.00114796
0.00114792
0.00112172
0.00112182
0.00114982
0.00111976
0.00114799
0.00114787
0.00112168
0.00112165
0.00114794
0.00112193
0.0011218
0.00114978
0.00111964
0.00114793
0.00112178
0.00112181
0.00111975
0.00111487
0.00108539
0.00111299
0.00111309
0.00108738
0.00108735
0.00111503
0.00108529
0.00111295
0.00111296
0.00108739
0.00108744
0.00111309
0.00108728
0.00108731
0.00111493
0.0010854
0.0011131
0.00108738
0.00108731
0.00108526
0.00108082
0.00105092
0.00107894
0.00107888
0.001053
0.00105304
0.00108069
0.00105093
0.00107898
0.00107902
0.00105301
0.00105309
0.00107879
0.00105301
0.00105305
0.00108081
0.00105096
0.00107879
0.00105306
0.00105305
0.00105098
0.00104616
0.00101598
0.00104422
0.0010442
0.00101802
0.00101782
0.00104616
0.0010158
0.00104422
0.00104423
0.00101807
0.00101796
0.00104429
0.00101788
0.0010179
0.0010462
0.00101593
0.00104428
0.00101798
0.0010179
0.00101584
0.00101127
0.000981768
0.00100938
0.00100922
0.000983761
0.000983921
0.00101111
0.000981999
0.00100942
0.00100934
0.000983693
0.000983719
0.00100926
0.000983905
0.000983946
0.00101122
0.000981757
0.00100928
0.000983735
0.000983929
0.000982017
0.000977181
0.000947751
0.000975304
0.000975541
0.000949791
0.00094993
0.000977467
0.000947789
0.000975198
0.000975246
0.00094975
0.000949845
0.000975595
0.000949956
0.000949881
0.000977183
0.000947879
0.000975562
0.000949934
0.000949876
0.000947749
0.000943023
0.000912566
0.000941071
0.000941095
0.000914637
0.000914478
0.000942984
0.000912365
0.000941138
0.000941192
0.000914704
0.000914616
0.000940989
0.000914435
0.000914314
0.000943127
0.000912469
0.000941013
0.000914548
0.000914373
0.000912204
0.000907809
0.000878192
0.00090592
0.000905705
0.000880172
0.000880001
0.000907574
0.000878073
0.00090596
0.000905865
0.000880154
0.000880134
0.000905554
0.000879942
0.00088009
0.000907696
0.000878139
0.000905607
0.00088005
0.000880059
0.000878163
0.000873567
0.00084411
0.000871639
0.000871589
0.000846057
0.000846341
0.000873522
0.000844591
0.000871624
0.000871633
0.000846038
0.000846117
0.00087174
0.000846579
0.00084667
0.00087355
0.000844325
0.000871679
0.000846307
0.000846632
0.000844782
0.000839482
0.000809787
0.000837553
0.000837855
0.000811824
0.00081172
0.000839962
0.000809503
0.000837531
0.000837619
0.000811819
0.000811756
0.000838119
0.00081162
0.000811462
0.000839704
0.000809555
0.000838107
0.00081166
0.000811461
0.000809329
0.000804963
0.000774246
0.000803032
0.000802849
0.000776318
0.000776304
0.000804662
0.000774153
0.000803024
0.000802902
0.000776342
0.000776312
0.000802499
0.000776131
0.000776005
0.000804719
0.000774169
0.000802503
0.000776135
0.000776024
0.000773989
0.000769483
0.000740096
0.00076755
0.000767585
0.000742002
0.000741985
0.000769437
0.000740222
0.000767587
0.000767575
0.000742008
0.000741988
0.000767486
0.00074216
0.000742326
0.000769439
0.000740211
0.000767518
0.00074217
0.000742347
0.000740546
0.000735538
0.00070639
0.000733634
0.000733577
0.00070831
0.000708278
0.000735659
0.000706351
0.000733625
0.000733618
0.000708326
0.000708493
0.000733972
0.000708325
0.000708381
0.000735672
0.00070656
0.000733987
0.000708552
0.000708385
0.000706327
0.000701676
0.000671218
0.000699671
0.000699718
0.000673338
0.000673458
0.000701649
0.000671274
0.000699688
0.000699891
0.000673266
0.000673238
0.000699669
0.000673341
0.000673159
0.00070181
0.000671035
0.000699651
0.000673093
0.000673092
0.000670996
0.000666377
0.00063606
0.000664476
0.000664534
0.00063805
0.00063795
0.000666405
0.000635944
0.000664421
0.000664297
0.000638075
0.000638
0.000664252
0.000637951
0.00063806
0.000666166
0.00063605
0.000664194
0.000637998
0.000638086
0.000636106
0.000631371
0.000602156
0.00062942
0.000629315
0.000604019
0.000604074
0.000631273
0.000602266
0.000629468
0.000629448
0.000604034
0.000603983
0.000629524
0.000604167
0.00060418
0.000631418
0.000602144
0.000629561
0.000604062
0.000604167
0.000602288
0.00059755
0.000567371
0.000595574
0.000595675
0.000569439
0.00056946
0.000597676
0.000567372
0.000595563
0.000595422
0.000569406
0.000569443
0.00059562
0.000569422
0.000569405
0.000597473
0.000567405
0.000595596
0.000569462
0.00056944
0.00056737
0.000562537
0.000532261
0.00056056
0.000560518
0.000534198
0.00053399
0.000562494
0.000531997
0.000560575
0.000560738
0.000534306
0.000534612
0.000560555
0.000533944
0.000534083
0.000562642
0.00053259
0.00056062
0.000534547
0.000534178
0.000532128
0.000527564
0.000497901
0.000525601
0.000525424
0.000499927
0.000500013
0.000527327
0.000498135
0.00052569
0.000525945
0.000499856
0.000499535
0.000525439
0.000500027
0.000499845
0.000527846
0.000497538
0.000525496
0.000499528
0.000499729
0.000497834
0.000493127
0.000462399
0.000491261
0.000491461
0.000464552
0.000464729
0.000493456
0.000462663
0.000491086
0.000490727
0.000464387
0.000464071
0.0004913
0.000464764
0.000464742
0.000492762
0.000462091
0.000491133
0.000464182
0.000464635
0.000462625
0.000457518
0.000427247
0.000455579
0.000455712
0.000429013
0.000428787
0.000457731
0.000426871
0.000455443
0.000455349
0.000429243
0.000429603
0.00045577
0.000428824
0.000429086
0.000457346
0.000427689
0.000455721
0.000429583
0.000429265
0.000427234
0.000422556
0.000392919
0.00042042
0.000420133
0.000394741
0.000394625
0.000422163
0.000392698
0.000420669
0.000421013
0.00039491
0.000395081
0.00042038
0.000394564
0.000394516
0.000422985
0.000392968
0.000420579
0.00039496
0.000394614
0.000392623
0.000388224
0.000358262
0.000386213
0.000386179
0.000360521
0.000360772
0.000388088
0.000358651
0.000386259
0.00038626
0.00036023
0.000359877
0.000385943
0.000360721
0.000360368
0.000388148
0.000357848
0.000385959
0.000359886
0.000360151
0.00035823
0.000353491
0.000322771
0.000351763
0.000351942
0.000324915
0.000324904
0.000353827
0.000322782
0.000351508
0.000351195
0.000324888
0.000324837
0.000351777
0.000324989
0.000325193
0.000353127
0.000322773
0.000351567
0.000324994
0.000325217
0.000323076
0.000317819
0.000286774
0.000315839
0.000315809
0.000288584
0.000288579
0.000317818
0.000286649
0.000315846
0.000315853
0.000288751
0.000289038
0.000316143
0.000288575
0.000288665
0.00031787
0.000287078
0.000316213
0.000289002
0.000288799
0.000286665
0.000282023
0.000252034
0.000279847
0.0002798
0.000253897
0.000253862
0.000281856
0.000251983
0.000280008
0.000280204
0.000253937
0.000253896
0.000279622
0.000253835
0.000253807
0.00028222
0.000251969
0.000279712
0.000253818
0.000253793
0.000251928
0.000247276
0.000217195
0.000245217
0.00024523
0.000219248
0.000219348
0.000247293
0.000217301
0.000245229
0.000245228
0.00021919
0.000219229
0.000245319
0.00021936
0.000219419
0.000247271
0.000217144
0.000245289
0.000219269
0.000219383
0.000217269
0.000212422
0.000181439
0.000210563
0.000210552
0.000183616
0.000183409
0.000212435
0.000181179
0.000210477
0.000210378
0.000183582
0.000183333
0.000210296
0.000183231
0.000182784
0.000212272
0.000181125
0.000210265
0.000183178
0.000182771
0.000180541
0.000176463
0.000145284
0.000174501
0.000174336
0.000147285
0.000147495
0.00017623
0.00014574
0.000174494
0.000174289
0.000147296
0.000147506
0.000173776
0.00014781
0.000148298
0.000176188
0.000145766
0.000173774
0.000147821
0.000148308
0.000146457
0.000140496
0.000110933
0.000138464
0.000138871
0.000112866
0.000113028
0.000141055
0.000111067
0.000138484
0.000138906
0.000112879
0.000113056
0.000139882
0.000113104
0.000113264
0.000141085
0.000111097
0.00013989
0.000113116
0.000113255
0.00011109
0.000106161
7.48799e-05
0.000104204
0.000104231
7.70231e-05
7.6652e-05
0.00010617
7.43179e-05
0.000104217
0.000104266
7.70371e-05
7.67057e-05
0.000103886
7.62962e-05
7.55694e-05
0.000106202
7.43853e-05
0.00010389
7.63703e-05
7.55993e-05
7.32771e-05
6.96736e-05
3.73377e-05
6.76426e-05
6.72868e-05
3.9371e-05
3.9413e-05
6.9151e-05
3.76123e-05
6.76526e-05
6.73401e-05
3.93336e-05
3.92744e-05
6.62174e-05
3.9576e-05
3.97549e-05
6.92156e-05
3.74399e-05
6.62643e-05
3.94378e-05
3.9718e-05
3.78885e-05
3.2412e-05
6.76968e-06
3.05633e-05
3.0808e-05
9.68171e-06
9.86175e-06
3.27816e-05
7.02537e-06
3.0504e-05
3.05847e-05
9.6547e-06
9.75251e-06
3.12397e-05
1.00393e-05
1.0401e-05
3.25735e-05
6.9013e-06
3.11759e-05
9.88906e-06
1.0318e-05
7.46958e-06
3.90144e-06
5.64908e-06
5.80754e-06
4.0861e-06
5.68646e-06
5.73117e-06
4.83868e-06
4.82713e-06
5.12103e-06
6.22961e-06
3.99028e-06
6.23014e-06
0.0035294
0.003532
0.00353071
0.00353085
0.00355791
0.00353181
0.00356142
0.00353217
0.0035581
0.00353196
0.00353219
0.00356155
0.00354291
0.00356473
0.00356461
0.00350203
0.00351551
0.00351962
0.00349434
0.00349245
0.00349773
0.00350193
0.00351569
0.00351949
0.00349429
0.00351798
0.00351797
0.00351797
0.00349163
0.00349168
0.00349163
0.00349166
0.00350166
0.00351322
0.00351847
0.00350928
0.00352056
0.00349879
0.00350956
0.00349248
0.0034977
0.00350171
0.00351853
0.00351336
0.0035093
0.00352065
0.00350955
0.00349887
0.00351934
0.00351943
0.00350659
0.00349874
0.00349888
0.00347454
0.00348881
0.0034887
0.00347261
0.00348611
0.0034716
0.00347447
0.00348882
0.00348865
0.00347257
0.00348261
0.00348256
0.00348259
0.00345418
0.00345423
0.00345419
0.00345418
0.00347233
0.00348729
0.00348104
0.00347168
0.00348575
0.00347287
0.00347171
0.003486
0.00347163
0.00347235
0.00348105
0.00348728
0.00347168
0.00348575
0.00347164
0.00347282
0.00348903
0.00348906
0.00347007
0.00347328
0.00347328
0.00343215
0.00344682
0.0034477
0.00343079
0.00344564
0.00342996
0.00343206
0.0034468
0.00344769
0.0034308
0.00344413
0.0034441
0.00344411
0.00341158
0.00341161
0.00341157
0.00341158
0.00343083
0.00344641
0.0034422
0.00343182
0.00344534
0.00343124
0.00343176
0.00344558
0.00342994
0.0034308
0.00344221
0.00344634
0.00343179
0.00344534
0.00343174
0.00343123
0.00344709
0.00344714
0.00342908
0.00343121
0.00343113
0.00338579
0.00340217
0.00340366
0.00338435
0.00340149
0.00338386
0.00338575
0.00340222
0.00340361
0.00338434
0.00340007
0.00340004
0.00340006
0.0033642
0.00336422
0.00336419
0.0033642
0.00338497
0.00340201
0.00339835
0.00338669
0.00340145
0.00338507
0.00338668
0.00340149
0.00338385
0.00338495
0.00339836
0.00340201
0.00338665
0.00340144
0.00338666
0.00338507
0.00340235
0.00340229
0.00338335
0.00338454
0.00338456
0.00333693
0.00335408
0.00335531
0.00333572
0.00335364
0.0033354
0.00333689
0.00335399
0.00335531
0.00333571
0.00335203
0.00335201
0.00335203
0.00331536
0.00331537
0.00331535
0.00331536
0.00333653
0.00335402
0.00335058
0.00333839
0.00335369
0.00333647
0.00333841
0.0033536
0.00333537
0.00333651
0.00335061
0.00335403
0.00333835
0.0033537
0.0033384
0.00333644
0.00335408
0.00335409
0.00333501
0.00333582
0.00333586
0.00328788
0.00330512
0.00330609
0.00328697
0.00330485
0.00328675
0.00328782
0.00330514
0.00330611
0.00328697
0.00330319
0.00330317
0.00330317
0.0032669
0.00326691
0.0032669
0.0032669
0.00328778
0.00330517
0.00330191