/*--------------------------------*- C++ -*----------------------------------*\
| =========                 |                                                 |
| \\      /  F ield         | OpenFOAM: The Open Source CFD Toolbox           |
|  \\    /   O peration     | Version:  v2012                                 |
|   \\  /    A nd           | Website:  www.openfoam.com                      |
|    \\/     M anipulation  |                                                 |
\*---------------------------------------------------------------------------*/
FoamFile
{
    version     2.0;
    format      ascii;
    class       volScalarField;
    location    "1025";
    object      epsilon;
}
// * * * * * * * * * * * * * * * * * * * * * * * * * * * * * * * * * * * * * //

dimensions      [0 2 -3 0 0 0 0];


internalField   nonuniform List<scalar> 
171728
(
1.57353e-09
5.24264e-09
3.53471e-09
4.91894e-09
1.54205e-09
4.94129e-09
3.29752e-09
4.4584e-09
1.47822e-09
4.62419e-09
3.05423e-09
4.05614e-09
1.42097e-09
4.34122e-09
2.84197e-09
3.70859e-09
1.36585e-09
4.03906e-09
2.65816e-09
3.41352e-09
1.31292e-09
3.62596e-09
2.50395e-09
3.16511e-09
1.26193e-09
3.20968e-09
2.38103e-09
2.94549e-09
1.21311e-09
2.91742e-09
2.29466e-09
2.75822e-09
1.16555e-09
2.71618e-09
2.23678e-09
2.60831e-09
1.11693e-09
2.59466e-09
2.21063e-09
2.5073e-09
1.06705e-09
2.54731e-09
2.2154e-09
2.43985e-09
1.01475e-09
2.56334e-09
2.25067e-09
2.3919e-09
9.64451e-10
2.63682e-09
2.32179e-09
2.40244e-09
9.089e-10
2.77591e-09
2.44031e-09
2.46956e-09
8.51913e-10
3.02258e-09
2.63558e-09
2.59626e-09
8.04737e-10
3.3883e-09
2.94156e-09
2.825e-09
7.6674e-10
3.92551e-09
3.42064e-09
3.22981e-09
7.34745e-10
4.80972e-09
4.13679e-09
3.87053e-09
7.06421e-10
6.05962e-09
5.25002e-09
5.17186e-09
6.75531e-10
8.51745e-09
6.94766e-09
7.35297e-09
6.62049e-10
1.12575e-08
9.32208e-09
1.13001e-08
6.65348e-10
1.54915e-08
1.2888e-08
1.666e-08
6.8443e-10
2.04164e-08
1.78463e-08
2.89078e-08
7.45211e-10
2.79777e-08
2.45614e-08
5.8328e-08
8.18258e-10
3.43683e-08
3.47376e-08
6.47317e-08
9.41185e-10
4.54569e-08
4.19465e-08
1.03912e-07
1.21181e-09
6.47223e-08
6.15015e-08
1.81448e-07
1.31008e-09
7.18338e-08
7.54846e-08
2.34247e-07
1.6904e-09
9.92696e-08
9.4782e-08
2.6358e-07
2.30385e-09
1.21839e-07
1.17693e-07
4.07528e-07
3.01911e-09
1.36787e-07
1.46994e-07
4.33204e-07
3.77978e-09
1.69212e-07
1.71745e-07
4.88161e-07
5.07999e-09
2.14086e-07
2.06857e-07
6.05844e-07
6.86025e-09
2.3328e-07
2.40705e-07
6.509e-07
9.25803e-09
2.8657e-07
2.82667e-07
7.07476e-07
1.1682e-08
3.16066e-07
3.20545e-07
7.53843e-07
1.52742e-08
3.62276e-07
3.64637e-07
8.05894e-07
2.09554e-08
4.11789e-07
4.06876e-07
8.34057e-07
2.53632e-08
4.52585e-07
4.64189e-07
8.97451e-07
3.30177e-08
5.13728e-07
4.95735e-07
9.12719e-07
3.98253e-08
5.3778e-07
5.47473e-07
9.35069e-07
5.01832e-08
6.00819e-07
6.32311e-07
9.83008e-07
6.53296e-08
6.52694e-07
6.5462e-07
1.02207e-06
7.26729e-08
6.89814e-07
6.66562e-07
1.0294e-06
9.10782e-08
7.44079e-07
7.52533e-07
1.05242e-06
1.06025e-07
7.76787e-07
7.98818e-07
1.09941e-06
1.336e-07
8.41372e-07
8.29817e-07
1.14148e-06
1.55211e-07
8.72754e-07
8.67478e-07
1.13007e-06
1.6406e-07
8.81351e-07
8.82721e-07
1.11808e-06
1.9491e-07
9.43062e-07
9.45372e-07
1.23724e-06
2.33023e-07
9.88461e-07
9.93113e-07
1.24459e-06
2.57077e-07
9.86395e-07
9.89991e-07
1.21432e-06
2.86843e-07
1.02666e-06
1.01001e-06
1.27976e-06
3.23453e-07
1.06606e-06
1.07422e-06
1.28994e-06
3.48384e-07
1.06772e-06
1.0758e-06
1.2734e-06
3.6638e-07
1.08144e-06
1.07785e-06
1.28407e-06
4.0701e-07
1.13374e-06
1.12136e-06
1.36151e-06
4.59519e-07
1.15289e-06
1.161e-06
1.38477e-06
4.79582e-07
1.14792e-06
1.15798e-06
1.35319e-06
4.91534e-07
1.15375e-06
1.15823e-06
1.35036e-06
5.22742e-07
1.20103e-06
1.19259e-06
1.40938e-06
5.56962e-07
1.21594e-06
1.20908e-06
1.41456e-06
5.77713e-07
1.21051e-06
1.21196e-06
1.39378e-06
6.06204e-07
1.22561e-06
1.23696e-06
1.44117e-06
6.21156e-07
1.25147e-06
1.25063e-06
1.46644e-06
6.37658e-07
1.25164e-06
1.2536e-06
1.4334e-06
6.54736e-07
1.25854e-06
1.2482e-06
1.42749e-06
6.82096e-07
1.28024e-06
1.26575e-06
1.48838e-06
6.92441e-07
1.28187e-06
1.30167e-06
1.50118e-06
7.01269e-07
1.28553e-06
1.30588e-06
1.48115e-06
7.23898e-07
1.29894e-06
1.28758e-06
1.48495e-06
7.48904e-07
1.30138e-06
1.28202e-06
1.49024e-06
7.47865e-07
1.30064e-06
1.29838e-06
1.49393e-06
7.47332e-07
1.31197e-06
1.32133e-06
1.52373e-06
7.6364e-07
1.31756e-06
1.32519e-06
1.52343e-06
7.81308e-07
1.31276e-06
1.30642e-06
1.50065e-06
7.86532e-07
1.3081e-06
1.30545e-06
1.5064e-06
7.99566e-07
1.32439e-06
1.33353e-06
1.53651e-06
8.02886e-07
1.3362e-06
1.33452e-06
1.54637e-06
7.95251e-07
1.31963e-06
1.31285e-06
1.52415e-06
7.94773e-07
1.30513e-06
1.30418e-06
1.49569e-06
8.15175e-07
1.3244e-06
1.32339e-06
1.52033e-06
8.28926e-07
1.3362e-06
1.34277e-06
1.56124e-06
8.15203e-07
1.30987e-06
1.31901e-06
1.54188e-06
7.99792e-07
1.29746e-06
1.29493e-06
1.50516e-06
8.07391e-07
1.31981e-06
1.31135e-06
1.52233e-06
8.22459e-07
1.33066e-06
1.32363e-06
1.54078e-06
8.13248e-07
1.2993e-06
1.30133e-06
1.51128e-06
7.98086e-07
1.27952e-06
1.28991e-06
1.49907e-06
7.97935e-07
1.29095e-06
1.29602e-06
1.52924e-06
8.01599e-07
1.29646e-06
1.29005e-06
1.52211e-06
7.94612e-07
1.27816e-06
1.27306e-06
1.48613e-06
7.85576e-07
1.27078e-06
1.27112e-06
1.49912e-06
7.85901e-07
1.27625e-06
1.27845e-06
1.51865e-06
7.67158e-07
1.21115e-06
1.21161e-06
1.44766e-06
5.28958e-09
4.09527e-09
3.93664e-09
4.8948e-09
4.13522e-09
5.13178e-09
1.5379e-09
1.47512e-09
1.49771e-09
1.41466e-09
3.79338e-09
3.8592e-09
5.1871e-09
3.78653e-09
3.9768e-09
4.94423e-09
5.25584e-09
4.77153e-09
4.8635e-09
6.48137e-09
4.5812e-09
5.49648e-09
4.85995e-09
4.48884e-09
5.74379e-09
8.19817e-09
4.8239e-09
7.96722e-09
4.40214e-09
5.02815e-09
4.1691e-09
5.15922e-09
4.76592e-09
4.654e-09
3.36305e-09
4.45545e-09
4.49056e-09
4.73287e-09
4.29856e-09
4.47782e-09
5.1579e-09
4.1992e-09
4.31683e-09
4.44989e-09
4.09721e-09
4.60909e-09
7.83757e-09
4.20327e-09
7.52874e-09
4.07708e-09
4.70076e-09
3.82384e-09
4.70834e-09
4.41449e-09
4.36567e-09
3.11231e-09
4.10772e-09
4.08333e-09
4.26556e-09
3.90164e-09
4.11383e-09
4.0948e-09
3.87198e-09
3.56886e-09
4.06547e-09
3.73455e-09
4.10836e-09
7.38825e-09
3.85849e-09
6.9017e-09
3.74794e-09
4.41057e-09
3.53817e-09
4.37076e-09
4.05729e-09
4.02607e-09
2.89243e-09
3.80239e-09
3.73297e-09
3.87412e-09
3.57379e-09
3.79557e-09
3.42576e-09
3.57861e-09
3.04586e-09
3.70709e-09
3.40803e-09
3.78331e-09
6.70035e-09
3.59473e-09
5.8632e-09
3.47348e-09
4.12161e-09
3.29048e-09
4.02178e-09
3.65414e-09
3.7353e-09
2.70155e-09
3.55029e-09
3.43362e-09
3.55123e-09
3.31068e-09
3.51251e-09
2.93118e-09
3.33714e-09
2.62816e-09
3.38445e-09
3.11668e-09
3.54314e-09
5.53652e-09
3.4074e-09
4.62814e-09
3.2321e-09
3.7399e-09
3.06468e-09
3.63001e-09
3.34838e-09
3.4942e-09
2.54014e-09
3.33548e-09
3.18232e-09
3.29296e-09
3.09326e-09
3.28671e-09
2.54281e-09
3.15373e-09
2.33081e-09
3.09942e-09
2.87361e-09
3.369e-09
4.36969e-09
3.26657e-09
3.72102e-09
3.01173e-09
3.30216e-09
2.86183e-09
3.32745e-09
3.03723e-09
3.28716e-09
2.40834e-09
3.15933e-09
2.95917e-09
3.07944e-09
2.91984e-09
3.11654e-09
2.27268e-09
3.0269e-09
2.13189e-09
2.8614e-09
2.67197e-09
3.23743e-09
3.54843e-09
3.16486e-09
3.13005e-09
2.81541e-09
2.9815e-09
2.68967e-09
3.02005e-09
2.79705e-09
3.12081e-09
2.31394e-09
3.01525e-09
2.76865e-09
2.91057e-09
2.78777e-09
3.00331e-09
2.09516e-09
2.95136e-09
2.02391e-09
2.66402e-09
2.50763e-09
3.14916e-09
3.02194e-09
3.11299e-09
2.77535e-09
2.65269e-09
2.75996e-09
2.55817e-09
2.78639e-09
2.61017e-09
2.98346e-09
2.24856e-09
2.91342e-09
2.61343e-09
2.78253e-09
2.68892e-09
2.93871e-09
2.00599e-09
2.91524e-09
1.98698e-09
2.50398e-09
2.38186e-09
3.10947e-09
2.71699e-09
3.11435e-09
2.58355e-09
2.53127e-09
2.61801e-09
2.46575e-09
2.60522e-09
2.47272e-09
2.89647e-09
2.21443e-09
2.88592e-09
2.50753e-09
2.68802e-09
2.6307e-09
2.9126e-09
1.99021e-09
2.91824e-09
2.01093e-09
2.38254e-09
2.29579e-09
3.12248e-09
2.55429e-09
3.17333e-09
2.4971e-09
2.44981e-09
2.55154e-09
2.4172e-09
2.47236e-09
2.37428e-09
2.88871e-09
2.212e-09
2.92274e-09
2.43721e-09
2.63475e-09
2.61416e-09
2.92378e-09
2.01373e-09
2.95911e-09
2.02499e-09
2.3005e-09
2.2556e-09
3.19463e-09
2.48759e-09
3.27445e-09
2.48572e-09
2.41344e-09
2.55514e-09
2.40985e-09
2.3773e-09
2.31715e-09
2.93535e-09
2.2389e-09
2.95681e-09
2.38333e-09
2.62597e-09
2.63724e-09
2.97767e-09
2.03682e-09
3.0406e-09
2.09487e-09
2.26757e-09
2.25888e-09
3.30996e-09
2.49082e-09
3.44584e-09
2.52473e-09
2.41316e-09
2.61909e-09
2.44607e-09
2.32631e-09
2.30386e-09
2.96477e-09
2.29948e-09
3.01927e-09
2.38245e-09
2.65766e-09
2.69684e-09
3.06461e-09
2.11897e-09
3.15288e-09
2.22008e-09
2.28027e-09
2.31135e-09
3.49472e-09
2.53857e-09
3.654e-09
2.60335e-09
2.46245e-09
2.73867e-09
2.53583e-09
2.32286e-09
2.34118e-09
3.04702e-09
2.40555e-09
3.1455e-09
2.43618e-09
2.72793e-09
2.80972e-09
3.18637e-09
2.25596e-09
3.32468e-09
2.40666e-09
2.34611e-09
2.4244e-09
3.70911e-09
2.63549e-09
3.87088e-09
2.76999e-09
2.56682e-09
2.95382e-09
2.69311e-09
2.37265e-09
2.44163e-09
3.18377e-09
2.57906e-09
3.31362e-09
2.54479e-09
2.86367e-09
3.03718e-09
3.37554e-09
2.4676e-09
3.6312e-09
2.68078e-09
2.48416e-09
2.63709e-09
3.93053e-09
2.83061e-09
4.15387e-09
3.05885e-09
2.74589e-09
3.27943e-09
2.94609e-09
2.49604e-09
2.64002e-09
3.36089e-09
2.85199e-09
3.57349e-09
2.74124e-09
3.13438e-09
3.46388e-09
3.70478e-09
2.77855e-09
4.12081e-09
3.09728e-09
2.72297e-09
3.0611e-09
4.27207e-09
3.16228e-09
4.66691e-09
3.52366e-09
3.02588e-09
3.77587e-09
3.34504e-09
2.73007e-09
3.00061e-09
3.63568e-09
3.27785e-09
3.93894e-09
3.07955e-09
3.62196e-09
4.21633e-09
4.26123e-09
3.26908e-09
4.78134e-09
3.73319e-09
3.23099e-09
3.63404e-09
4.84352e-09
3.66798e-09
5.49791e-09
4.21535e-09
3.47544e-09
4.5096e-09
3.9395e-09
3.15168e-09
3.62801e-09
4.05387e-09
3.92042e-09
4.37705e-09
3.62545e-09
4.4911e-09
5.324e-09
5.08489e-09
3.93992e-09
5.72389e-09
4.68786e-09
3.90614e-09
4.80405e-09
5.67639e-09
4.44112e-09
6.57491e-09
5.36863e-09
4.16154e-09
5.71082e-09
4.86361e-09
3.87793e-09
4.80373e-09
4.57216e-09
4.95524e-09
5.30962e-09
4.72781e-09
5.8122e-09
7.14713e-09
6.15885e-09
5.023e-09
7.27114e-09
6.58322e-09
5.19727e-09
7.52687e-09
6.9429e-09
5.68989e-09
7.91082e-09
7.12922e-09
5.24312e-09
7.96402e-09
6.39481e-09
5.2127e-09
6.83218e-09
5.66165e-09
6.51325e-09
6.72876e-09
6.6864e-09
7.63291e-09
1.05842e-08
7.66624e-09
6.9695e-09
9.61917e-09
8.20761e-09
8.18023e-09
9.79864e-09
8.09412e-09
7.64532e-09
9.72493e-09
9.59306e-09
6.83878e-09
1.02552e-08
8.55649e-09
7.52738e-09
1.01319e-08
7.13567e-09
8.61462e-09
8.81279e-09
9.95259e-09
1.19272e-08
1.63414e-08
1.05291e-08
9.25392e-09
1.26253e-08
1.17411e-08
1.111e-08
1.69199e-08
1.03105e-08
1.04095e-08
1.27682e-08
1.3552e-08
9.439e-09
1.42583e-08
1.14582e-08
1.13172e-08
1.68826e-08
9.68395e-09
1.20927e-08
1.1419e-08
1.531e-08
1.77498e-08
2.6278e-08
1.34278e-08
1.29207e-08
1.74594e-08
1.59703e-08
1.8522e-08
2.55149e-08
1.33357e-08
1.44253e-08
1.74225e-08
1.85338e-08
1.24255e-08
1.85213e-08
1.67391e-08
1.85809e-08
2.60844e-08
1.2437e-08
1.65433e-08
1.63794e-08
2.66091e-08
2.98299e-08
4.21159e-08
1.89755e-08
1.79029e-08
2.47187e-08
2.31436e-08
2.83652e-08
4.67611e-08
1.82501e-08
1.99708e-08
2.3494e-08
2.46951e-08
1.74144e-08
2.65203e-08
2.42579e-08
2.94591e-08
4.16927e-08
1.70446e-08
2.24789e-08
2.37694e-08
4.92742e-08
4.67203e-08
6.84359e-08
2.66597e-08
2.51119e-08
3.3651e-08
3.17364e-08
5.0627e-08
6.65273e-08
2.53875e-08
2.69545e-08
3.16421e-08
3.42305e-08
2.74707e-08
3.21008e-08
3.18984e-08
4.62978e-08
7.26097e-08
2.69209e-08
3.21178e-08
3.06705e-08
6.44639e-08
7.43877e-08
9.43445e-08
3.52873e-08
3.4369e-08
3.85978e-08
4.44479e-08
7.31559e-08
1.00702e-07
3.54534e-08
3.65027e-08
4.21017e-08
4.14079e-08
3.22795e-08
4.32738e-08
4.04116e-08
7.89199e-08
9.32627e-08
3.10495e-08
3.95688e-08
3.86252e-08
8.62479e-08
9.96219e-08
1.68737e-07
4.19563e-08
4.62582e-08
6.10866e-08
6.30871e-08
1.0884e-07
1.61104e-07
4.40658e-08
4.38213e-08
6.27557e-08
5.71447e-08
4.65202e-08
5.97671e-08
5.86418e-08
9.81546e-08
1.50813e-07
4.46729e-08
5.65183e-08
5.63937e-08
1.70941e-07
1.87951e-07
2.06608e-07
6.59041e-08
7.09804e-08
7.3013e-08
7.96445e-08
1.80257e-07
2.11e-07
6.74027e-08
6.16957e-08
7.29401e-08
7.25637e-08
6.33342e-08
7.09862e-08
7.88487e-08
1.67548e-07
2.145e-07
6.04339e-08
7.24331e-08
7.51443e-08
2.22636e-07
2.08577e-07
2.41285e-07
7.47223e-08
8.02849e-08
8.52356e-08
9.08433e-08
2.12742e-07
2.50456e-07
7.48142e-08
7.60901e-08
8.98207e-08
8.93513e-08
8.19528e-08
8.76109e-08
8.72986e-08
2.22246e-07
2.64658e-07
7.84722e-08
8.89926e-08
8.37504e-08
2.57388e-07
2.63256e-07
3.61136e-07
9.20697e-08
1.05044e-07
1.17408e-07
1.29751e-07
2.90825e-07
3.87721e-07
9.50831e-08
9.47035e-08
1.11211e-07
1.10998e-07
9.04646e-08
1.19251e-07
1.28803e-07
2.80122e-07
3.45682e-07
8.75847e-08
1.1173e-07
1.19287e-07
3.79724e-07
3.79106e-07
4.32498e-07
1.24526e-07
1.3175e-07
1.40274e-07
1.33932e-07
3.9284e-07
3.92462e-07
1.19578e-07
1.17144e-07
1.45949e-07
1.40744e-07
1.39424e-07
1.31357e-07
1.46537e-07
3.61791e-07
4.31823e-07
1.2722e-07
1.39663e-07
1.36976e-07
4.31268e-07
4.45803e-07
4.99307e-07
1.45009e-07
1.36328e-07
1.64172e-07
1.66726e-07
4.01654e-07
4.98779e-07
1.52157e-07
1.48238e-07
1.67294e-07
1.65716e-07
1.45448e-07
1.58037e-07
1.48187e-07
4.4975e-07
5.04882e-07
1.38597e-07
1.65268e-07
1.56479e-07
4.61367e-07
5.147e-07
5.68332e-07
1.72885e-07
1.81281e-07
1.98441e-07
2.14014e-07
5.22144e-07
5.87149e-07
1.73638e-07
1.71914e-07
1.96774e-07
1.97067e-07
1.57248e-07
2.05616e-07
2.1184e-07
5.1781e-07
5.68588e-07
1.6822e-07
1.97421e-07
2.0214e-07
5.9039e-07
5.83382e-07
6.37498e-07
2.05965e-07
2.20145e-07
2.31503e-07
2.306e-07
5.9969e-07
6.29572e-07
2.04368e-07
2.06368e-07
2.30691e-07
2.32274e-07
2.23114e-07
2.27387e-07
2.3996e-07
5.84631e-07
6.35737e-07
2.10523e-07
2.32541e-07
2.34559e-07
6.39591e-07
6.53047e-07
6.98438e-07
2.42071e-07
2.35625e-07
2.73556e-07
2.73797e-07
6.41239e-07
6.99478e-07
2.42358e-07
2.40387e-07
2.73694e-07
2.72035e-07
2.45982e-07
2.72897e-07
2.70875e-07
6.49438e-07
6.96395e-07
2.42712e-07
2.7168e-07
2.69189e-07
6.9378e-07
7.10279e-07
7.42548e-07
2.81945e-07
2.87539e-07
3.08536e-07
3.12504e-07
7.14931e-07
7.43765e-07
2.81827e-07
2.83517e-07
3.07498e-07
3.12732e-07
2.82093e-07
3.11679e-07
3.10014e-07
7.10387e-07
7.46841e-07
2.80606e-07
3.11924e-07
3.06951e-07
7.42127e-07
7.53819e-07
7.87604e-07
3.1941e-07
3.16877e-07
3.50003e-07
3.46195e-07
7.53011e-07
7.87632e-07
3.17381e-07
3.21718e-07
3.50356e-07
3.52019e-07
3.17559e-07
3.45188e-07
3.54939e-07
7.58038e-07
7.89246e-07
3.15322e-07
3.51315e-07
3.56193e-07
7.95613e-07
8.00013e-07
8.37214e-07
3.60802e-07
3.63269e-07
4.01979e-07
4.05467e-07
8.01191e-07
8.341e-07
3.6158e-07
3.64144e-07
4.00662e-07
3.95982e-07
3.692e-07
4.04363e-07
3.97527e-07
7.99954e-07
8.31168e-07
3.70071e-07
3.96583e-07
3.95077e-07
8.25031e-07
8.47758e-07
8.69921e-07
4.16277e-07
4.12767e-07
4.45251e-07
4.38686e-07
8.43224e-07
8.69546e-07
4.13903e-07
4.06905e-07
4.45522e-07
4.51141e-07
4.03112e-07
4.35106e-07
4.45424e-07
8.43229e-07
8.77338e-07
4.00762e-07
4.50343e-07
4.44471e-07
8.84154e-07
8.7834e-07
9.04673e-07
4.52943e-07
4.56202e-07
4.91174e-07
5.00742e-07
8.80937e-07
9.10466e-07
4.54023e-07
4.65562e-07
4.91256e-07
4.94262e-07
4.66938e-07
5.03811e-07
5.11598e-07
8.85521e-07
8.97543e-07
4.64708e-07
4.90361e-07
5.05787e-07
9.09089e-07
9.14369e-07
9.34614e-07
5.055e-07
5.0972e-07
5.3853e-07
5.30911e-07
9.17496e-07
9.29754e-07
5.05264e-07
5.00093e-07
5.34374e-07
5.23025e-07
5.19052e-07
5.30755e-07
5.38394e-07
9.03981e-07
9.33188e-07
5.12784e-07
5.2541e-07
5.30011e-07
9.2556e-07
9.42393e-07
9.70633e-07
5.47795e-07
5.40832e-07
5.84104e-07
5.87482e-07
9.3789e-07
9.70012e-07
5.45297e-07
5.42392e-07
5.90278e-07
6.13312e-07
5.43667e-07
5.83483e-07
5.71599e-07
9.47472e-07
9.9191e-07
5.35223e-07
6.17391e-07
5.77709e-07
9.69694e-07
9.8119e-07
1.00448e-06
6.00971e-07
6.0352e-07
6.48719e-07
6.42423e-07
9.79767e-07
9.99398e-07
6.05177e-07
6.28668e-07
6.44679e-07
6.48086e-07
5.95581e-07
6.43053e-07
6.61248e-07
9.99548e-07
9.97512e-07
6.03594e-07
6.52425e-07
6.62474e-07
1.01638e-06
1.01073e-06
1.02358e-06
6.58966e-07
6.51627e-07
6.77817e-07
6.78006e-07
1.00625e-06
1.028e-06
6.54036e-07
6.49491e-07
6.7754e-07
6.54607e-07
6.72797e-07
6.77544e-07
6.89977e-07
9.99087e-07
1.00188e-06
6.7221e-07
6.60786e-07
6.87351e-07
1.02594e-06
1.03023e-06
1.05334e-06
6.87415e-07
6.90966e-07
7.30781e-07
7.33597e-07
1.03602e-06
1.05438e-06
6.88101e-07
6.60986e-07
7.27984e-07
7.30305e-07
6.94216e-07
7.32384e-07
7.16256e-07
1.0111e-06
1.06914e-06
6.91297e-07
7.2921e-07
7.11125e-07
1.04342e-06
1.06159e-06
1.08481e-06
7.43412e-07
7.45095e-07
7.69686e-07
7.69198e-07
1.06042e-06
1.07895e-06
7.41331e-07
7.55244e-07
7.72756e-07
7.96482e-07
7.29686e-07
7.68805e-07
7.70703e-07
1.08111e-06
1.09599e-06
7.24993e-07
7.90296e-07
7.76232e-07
1.08808e-06
1.09322e-06
1.1234e-06
7.81699e-07
7.76674e-07
8.29945e-07
8.23973e-07
1.08747e-06
1.12348e-06
7.85254e-07
8.05134e-07
8.32177e-07
8.31823e-07
7.85291e-07
8.24149e-07
8.37036e-07
1.10119e-06
1.12328e-06
7.97515e-07
8.22968e-07
8.43711e-07
1.13582e-06
1.12968e-06
1.1334e-06
8.42208e-07
8.41294e-07
8.61986e-07
8.68211e-07
1.13279e-06
1.14352e-06
8.43365e-07
8.38514e-07
8.59966e-07
8.55878e-07
8.50008e-07
8.69245e-07
8.66316e-07
1.12991e-06
1.13515e-06
8.50219e-07
8.5987e-07
8.52366e-07
1.1306e-06
1.13579e-06
1.14856e-06
8.65785e-07
8.7162e-07
8.80777e-07
8.79336e-07
1.14548e-06
1.14128e-06
8.63607e-07
8.61488e-07
8.76763e-07
8.72125e-07
8.66618e-07
8.7894e-07
8.67391e-07
1.13704e-06
1.13719e-06
8.49242e-07
8.79404e-07
8.50165e-07
1.1129e-06
1.15782e-06
1.18938e-06
8.92326e-07
8.82372e-07
9.28058e-07
9.21854e-07
1.14502e-06
1.1848e-06
8.88168e-07
8.77808e-07
9.30288e-07
9.29378e-07
8.71072e-07
9.16559e-07
9.31638e-07
1.14193e-06
1.19154e-06
8.56844e-07
9.19826e-07
9.48982e-07
1.21556e-06
1.19539e-06
1.21429e-06
9.3715e-07
9.45006e-07
9.70136e-07
9.81702e-07
1.20212e-06
1.23414e-06
9.38868e-07
9.51291e-07
9.68913e-07
9.87264e-07
9.60205e-07
9.87138e-07
9.84253e-07
1.2088e-06
1.24074e-06
9.78525e-07
9.90938e-07
9.97221e-07
1.24743e-06
1.22217e-06
1.23469e-06
9.80333e-07
9.84109e-07
9.95223e-07
9.85356e-07
1.23543e-06
1.21636e-06
9.79893e-07
9.90471e-07
9.96896e-07
9.9161e-07
9.82695e-07
9.86055e-07
9.78055e-07
1.24224e-06
1.22063e-06
9.94191e-07
9.90664e-07
9.85532e-07
1.21096e-06
1.23771e-06
1.2563e-06
9.99214e-07
9.8677e-07
1.02199e-06
1.01261e-06
1.21787e-06
1.25116e-06
9.99575e-07
9.9154e-07
1.0188e-06
9.99534e-07
9.81106e-07
1.0086e-06
1.02338e-06
1.22127e-06
1.23027e-06
9.87613e-07
9.99614e-07
1.01937e-06
1.26646e-06
1.26553e-06
1.28434e-06
1.02889e-06
1.03002e-06
1.04857e-06
1.06073e-06
1.26546e-06
1.29202e-06
1.02716e-06
1.00958e-06
1.05469e-06
1.06418e-06
1.04044e-06
1.06344e-06
1.05844e-06
1.24096e-06
1.29837e-06
1.03274e-06
1.06408e-06
1.05227e-06
1.28957e-06
1.28769e-06
1.28519e-06
1.05612e-06
1.0633e-06
1.07044e-06
1.0664e-06
1.29389e-06
1.28246e-06
1.06265e-06
1.07524e-06
1.07351e-06
1.08071e-06
1.0582e-06
1.067e-06
1.05707e-06
1.30587e-06
1.29944e-06
1.05332e-06
1.07768e-06
1.05805e-06
1.27242e-06
1.28627e-06
1.28651e-06
1.0725e-06
1.06742e-06
1.07743e-06
1.07432e-06
1.28349e-06
1.28699e-06
1.07427e-06
1.07924e-06
1.07641e-06
1.0751e-06
1.05822e-06
1.07563e-06
1.06917e-06
1.29948e-06
1.28423e-06
1.06117e-06
1.07483e-06
1.07274e-06
1.27613e-06
1.29235e-06
1.33926e-06
1.08196e-06
1.08116e-06
1.11899e-06
1.12262e-06
1.29441e-06
1.34593e-06
1.0794e-06
1.07612e-06
1.11284e-06
1.10053e-06
1.07661e-06
1.12088e-06
1.12203e-06
1.28643e-06
1.31945e-06
1.08031e-06
1.1035e-06
1.12252e-06
1.34714e-06
1.35112e-06
1.36713e-06
1.1314e-06
1.13467e-06
1.14991e-06
1.15089e-06
1.35723e-06
1.36838e-06
1.12701e-06
1.11889e-06
1.15165e-06
1.15806e-06
1.13599e-06
1.15219e-06
1.15682e-06
1.33489e-06
1.37418e-06
1.13597e-06
1.15809e-06
1.15719e-06
1.38341e-06
1.36857e-06
1.35365e-06
1.15143e-06
1.15125e-06
1.15125e-06
1.14765e-06
1.36909e-06
1.3451e-06
1.15391e-06
1.1614e-06
1.1539e-06
1.16059e-06
1.15768e-06
1.14985e-06
1.15365e-06
1.37771e-06
1.3657e-06
1.15798e-06
1.16002e-06
1.15359e-06
1.35431e-06
1.35448e-06
1.35902e-06
1.15111e-06
1.14645e-06
1.15674e-06
1.1498e-06
1.34531e-06
1.34639e-06
1.15337e-06
1.1585e-06
1.15627e-06
1.15728e-06
1.1503e-06
1.14926e-06
1.14999e-06
1.36592e-06
1.35656e-06
1.15041e-06
1.15682e-06
1.15024e-06
1.34365e-06
1.36643e-06
1.39388e-06
1.16426e-06
1.15694e-06
1.18931e-06
1.19067e-06
1.35495e-06
1.40015e-06
1.16132e-06
1.15868e-06
1.18759e-06
1.18167e-06
1.1534e-06
1.18971e-06
1.18873e-06
1.36022e-06
1.38737e-06
1.15351e-06
1.18139e-06
1.18688e-06
1.39895e-06
1.39847e-06
1.39981e-06
1.19417e-06
1.19983e-06
1.20132e-06
1.21252e-06
1.40963e-06
1.42019e-06
1.19398e-06
1.19225e-06
1.20321e-06
1.20741e-06
1.20046e-06
1.21591e-06
1.21188e-06
1.39639e-06
1.406e-06
1.19839e-06
1.20834e-06
1.20978e-06
1.41449e-06
1.40141e-06
1.41347e-06
1.20273e-06
1.21268e-06
1.21541e-06
1.21106e-06
1.42116e-06
1.40529e-06
1.20437e-06
1.20841e-06
1.21403e-06
1.21093e-06
1.21142e-06
1.21108e-06
1.20562e-06
1.40729e-06
1.40598e-06
1.20935e-06
1.21027e-06
1.20468e-06
1.39236e-06
1.42123e-06
1.43666e-06
1.22217e-06
1.21123e-06
1.23656e-06
1.2232e-06
1.40637e-06
1.41753e-06
1.22096e-06
1.21428e-06
1.23634e-06
1.23526e-06
1.20571e-06
1.21658e-06
1.2216e-06
1.41087e-06
1.4346e-06
1.20494e-06
1.2311e-06
1.22409e-06
1.4269e-06
1.43917e-06
1.43767e-06
1.23844e-06
1.2307e-06
1.2419e-06
1.24534e-06
1.42564e-06
1.44254e-06
1.23824e-06
1.23928e-06
1.2408e-06
1.24329e-06
1.23587e-06
1.24898e-06
1.25869e-06
1.43965e-06
1.44393e-06
1.23824e-06
1.24803e-06
1.25837e-06
1.46533e-06
1.43969e-06
1.43767e-06
1.24403e-06
1.24713e-06
1.24762e-06
1.24831e-06
1.4449e-06
1.43972e-06
1.24292e-06
1.24559e-06
1.24845e-06
1.25279e-06
1.2589e-06
1.25172e-06
1.25001e-06
1.44634e-06
1.44721e-06
1.25841e-06
1.2539e-06
1.24907e-06
1.43462e-06
1.43874e-06
1.44325e-06
1.24784e-06
1.24859e-06
1.25203e-06
1.25546e-06
1.44108e-06
1.45164e-06
1.24878e-06
1.2529e-06
1.25154e-06
1.25145e-06
1.24533e-06
1.25465e-06
1.24262e-06
1.44824e-06
1.43678e-06
1.24411e-06
1.24858e-06
1.2408e-06
1.42219e-06
1.45184e-06
1.48559e-06
1.25931e-06
1.26284e-06
1.28456e-06
1.28136e-06
1.45932e-06
1.4795e-06
1.2564e-06
1.25156e-06
1.28122e-06
1.26261e-06
1.24437e-06
1.27656e-06
1.27424e-06
1.43803e-06
1.45151e-06
1.24238e-06
1.25558e-06
1.27199e-06
1.47629e-06
1.48931e-06
1.47423e-06
1.28662e-06
1.28248e-06
1.28325e-06
1.27979e-06
1.48214e-06
1.47101e-06
1.28424e-06
1.26992e-06
1.28278e-06
1.29053e-06
1.2854e-06
1.28199e-06
1.29614e-06
1.46026e-06
1.49322e-06
1.28381e-06
1.29528e-06
1.29737e-06
1.50051e-06
1.47348e-06
1.45673e-06
1.27849e-06
1.27848e-06
1.27239e-06
1.27904e-06
1.47176e-06
1.47191e-06
1.27983e-06
1.29575e-06
1.27681e-06
1.30055e-06
1.2957e-06
1.28365e-06
1.28718e-06
1.50063e-06
1.50802e-06
1.29723e-06
1.30655e-06
1.29102e-06
1.48048e-06
1.45891e-06
1.48947e-06
1.27275e-06
1.28126e-06
1.29139e-06
1.29576e-06
1.47695e-06
1.49447e-06
1.27738e-06
1.3002e-06
1.29312e-06
1.29135e-06
1.28575e-06
1.29574e-06
1.28726e-06
1.50901e-06
1.48408e-06
1.2895e-06
1.29278e-06
1.28987e-06
1.48109e-06
1.50177e-06
1.52726e-06
1.30396e-06
1.3003e-06
1.32268e-06
1.30668e-06
1.49889e-06
1.49926e-06
1.3017e-06
1.28822e-06
1.31453e-06
1.28674e-06
1.29117e-06
1.30167e-06
1.29974e-06
1.48353e-06
1.47009e-06
1.29186e-06
1.28183e-06
1.29327e-06
1.48896e-06
1.52942e-06
1.505e-06
1.32278e-06
1.30684e-06
1.312e-06
1.30543e-06
1.50037e-06
1.49528e-06
1.31455e-06
1.28817e-06
1.3064e-06
1.30168e-06
1.29967e-06
1.30046e-06
1.29814e-06
1.47236e-06
1.48863e-06
1.2924e-06
1.29245e-06
1.29204e-06
1.48928e-06
1.50331e-06
1.48285e-06
1.3042e-06
1.30434e-06
1.29312e-06
1.30302e-06
1.49691e-06
1.50344e-06
1.30152e-06
1.30416e-06
1.29726e-06
1.31021e-06
1.29863e-06
1.30844e-06
1.31312e-06
1.49471e-06
1.51315e-06
1.29451e-06
1.31627e-06
1.31668e-06
1.51809e-06
1.48495e-06
1.5043e-06
1.29322e-06
1.30321e-06
1.30417e-06
1.31026e-06
1.5073e-06
1.51465e-06
1.29806e-06
1.31419e-06
1.31359e-06
1.32193e-06
1.31798e-06
1.31744e-06
1.3211e-06
1.51979e-06
1.53018e-06
1.32153e-06
1.32582e-06
1.32409e-06
1.52309e-06
1.51022e-06
1.51186e-06
1.3106e-06
1.31405e-06
1.31764e-06
1.31755e-06
1.51743e-06
1.51338e-06
1.31712e-06
1.32182e-06
1.31626e-06
1.31218e-06
1.32017e-06
1.31518e-06
1.30953e-06
1.5314e-06
1.50374e-06
1.32283e-06
1.31104e-06
1.30923e-06
1.50018e-06
1.51283e-06
1.51163e-06
1.3174e-06
1.31701e-06
1.31563e-06
1.31278e-06
1.5141e-06
1.50468e-06
1.31343e-06
1.3079e-06
1.31137e-06
1.30553e-06
1.30705e-06
1.30818e-06
1.30589e-06
1.50325e-06
1.49658e-06
1.30605e-06
1.30387e-06
1.30474e-06
1.50105e-06
1.51663e-06
1.54229e-06
1.3163e-06
1.31253e-06
1.32936e-06
1.31793e-06
1.50615e-06
1.51944e-06
1.31276e-06
1.30718e-06
1.33257e-06
1.32973e-06
1.3072e-06
1.317e-06
1.32319e-06
1.50207e-06
1.53621e-06
1.30642e-06
1.32795e-06
1.32544e-06
1.53031e-06
1.54741e-06
1.54108e-06
1.33264e-06
1.32393e-06
1.33357e-06
1.33402e-06
1.52694e-06
1.54234e-06
1.33614e-06
1.33465e-06
1.33551e-06
1.33605e-06
1.32895e-06
1.33612e-06
1.33726e-06
1.54278e-06
1.54205e-06
1.33081e-06
1.3362e-06
1.3363e-06
1.5448e-06
1.54011e-06
1.49623e-06
1.33153e-06
1.33414e-06
1.31168e-06
1.32673e-06
1.54458e-06
1.52754e-06
1.33118e-06
1.33352e-06
1.30561e-06
1.31428e-06
1.3372e-06
1.32717e-06
1.32716e-06
1.54222e-06
1.51128e-06
1.336e-06
1.31834e-06
1.32519e-06
1.52575e-06
1.49519e-06
1.48496e-06
1.30556e-06
1.31987e-06
1.29864e-06
1.30538e-06
1.52623e-06
1.5012e-06
1.29961e-06
1.30864e-06
1.29472e-06
1.30138e-06
1.31912e-06
1.30557e-06
1.30224e-06
1.51079e-06
1.49741e-06
1.31801e-06
1.30443e-06
1.30234e-06
1.49487e-06
1.49005e-06
1.53688e-06
1.29901e-06
1.30464e-06
1.32044e-06
1.31239e-06
1.50237e-06
1.52229e-06
1.29579e-06
1.30145e-06
1.32539e-06
1.31759e-06
1.30106e-06
1.31445e-06
1.3065e-06
1.49963e-06
1.52396e-06
1.30096e-06
1.31298e-06
1.30516e-06
1.50918e-06
1.55028e-06
1.57284e-06
1.33176e-06
1.32313e-06
1.34606e-06
1.33838e-06
1.53353e-06
1.55338e-06
1.33739e-06
1.32898e-06
1.3511e-06
1.34633e-06
1.31691e-06
1.3366e-06
1.33945e-06
1.53522e-06
1.56288e-06
1.31495e-06
1.34231e-06
1.34088e-06
1.55711e-06
1.57415e-06
1.52582e-06
1.34578e-06
1.33822e-06
1.32548e-06
1.32192e-06
1.55467e-06
1.51873e-06
1.35058e-06
1.34634e-06
1.32442e-06
1.32785e-06
1.34053e-06
1.3186e-06
1.33249e-06
1.56541e-06
1.53229e-06
1.3427e-06
1.33075e-06
1.33657e-06
1.5444e-06
1.52166e-06
1.4878e-06
1.31369e-06
1.31259e-06
1.29474e-06
1.29835e-06
1.51655e-06
1.49643e-06
1.31039e-06
1.31419e-06
1.28933e-06
1.29191e-06
1.32301e-06
1.29748e-06
1.30126e-06
1.52836e-06
1.49193e-06
1.32679e-06
1.29605e-06
1.30127e-06
1.50442e-06
1.48937e-06
1.51627e-06
1.29417e-06
1.29815e-06
1.30345e-06
1.3088e-06
1.49937e-06
1.52835e-06
1.28894e-06
1.29139e-06
1.3019e-06
1.30334e-06
1.29948e-06
1.31051e-06
1.3031e-06
1.4933e-06
1.51755e-06
1.29859e-06
1.30218e-06
1.30065e-06
1.51401e-06
1.52769e-06
1.54901e-06
1.31334e-06
1.31782e-06
1.32674e-06
1.3293e-06
1.53904e-06
1.55652e-06
1.31296e-06
1.31358e-06
1.32694e-06
1.32555e-06
1.31064e-06
1.33103e-06
1.32252e-06
1.52833e-06
1.54558e-06
1.30692e-06
1.32387e-06
1.31963e-06
1.53916e-06
1.55086e-06
1.52269e-06
1.32662e-06
1.32905e-06
1.31154e-06
1.31137e-06
1.5579e-06
1.51998e-06
1.32675e-06
1.32518e-06
1.31119e-06
1.30911e-06
1.32232e-06
1.31032e-06
1.30631e-06
1.54684e-06
1.51783e-06
1.31954e-06
1.30876e-06
1.30623e-06
1.51271e-06
1.5209e-06
1.4983e-06
1.30254e-06
1.30119e-06
1.28657e-06
1.2829e-06
1.51711e-06
1.48808e-06
1.30255e-06
1.30155e-06
1.28758e-06
1.29005e-06
1.29745e-06
1.28036e-06
1.28513e-06
1.51683e-06
1.50229e-06
1.29878e-06
1.29001e-06
1.28865e-06
1.49543e-06
1.49979e-06
1.50964e-06
1.28585e-06
1.28191e-06
1.28929e-06
1.28555e-06
1.48941e-06
1.50254e-06
1.28694e-06
1.2899e-06
1.29022e-06
1.2938e-06
1.28522e-06
1.2847e-06
1.29646e-06
1.50523e-06
1.5167e-06
1.28882e-06
1.2947e-06
1.29908e-06
1.52351e-06
1.51451e-06
1.51672e-06
1.29306e-06
1.29108e-06
1.2958e-06
1.29702e-06
1.50974e-06
1.52047e-06
1.29316e-06
1.29495e-06
1.29438e-06
1.29273e-06
1.30034e-06
1.29696e-06
1.30001e-06
1.52005e-06
1.51161e-06
1.30162e-06
1.29379e-06
1.29957e-06
1.52326e-06
1.51767e-06
1.49963e-06
1.29501e-06
1.29666e-06
1.2832e-06
1.28471e-06
1.5221e-06
1.50378e-06
1.29313e-06
1.28944e-06
1.28027e-06
1.2754e-06
1.29605e-06
1.28301e-06
1.27407e-06
1.51171e-06
1.49073e-06
1.29413e-06
1.27552e-06
1.27269e-06
1.48558e-06
1.49988e-06
1.48855e-06
1.27877e-06
1.27961e-06
1.26864e-06
1.26941e-06
1.50377e-06
1.49124e-06
1.27623e-06
1.27265e-06
1.26811e-06
1.26915e-06
1.27076e-06
1.27063e-06
1.26995e-06
1.49158e-06
1.49044e-06
1.26995e-06
1.27046e-06
1.26977e-06
1.4914e-06
1.49043e-06
1.50267e-06
1.26841e-06
1.26929e-06
1.27223e-06
1.27284e-06
1.49313e-06
1.50347e-06
1.26813e-06
1.26963e-06
1.27383e-06
1.27793e-06
1.27326e-06
1.27522e-06
1.28104e-06
1.49461e-06
1.5097e-06
1.27346e-06
1.27769e-06
1.28039e-06
1.51664e-06
1.50724e-06
1.4861e-06
1.27424e-06
1.27447e-06
1.25376e-06
1.25339e-06
1.50724e-06
1.48486e-06
1.27591e-06
1.27931e-06
1.25494e-06
1.25637e-06
1.28112e-06
1.25276e-06
1.24929e-06
1.5133e-06
1.48802e-06
1.28036e-06
1.25371e-06
1.24841e-06
1.47566e-06
1.4612e-06
1.21275e-06
1.21244e-06
1.4603e-06
1.21329e-06
1.21395e-06
7.66184e-07
7.66962e-07
7.6281e-07
1.20542e-06
1.46191e-06
1.20493e-06
2.10828e-10
2.69059e-09
2.12161e-10
3.167e-10
5.342e-09
4.15654e-09
7.6518e-09
1.37772e-09
5.50782e-09
3.70929e-09
1.08814e-09
2.69158e-09
5.10704e-09
6.63565e-09
6.05239e-09
7.55035e-09
1.70921e-07
6.0287e-09
2.68068e-07
1.59458e-06
3.19558e-06
8.78766e-09
2.31808e-07
7.29591e-09
3.62928e-07
1.51926e-09
1.53721e-09
1.44454e-09
1.55923e-09
1.50609e-09
1.5204e-09
1.43444e-09
4.56447e-09
8.91089e-08
4.08988e-09
5.19339e-09
4.82159e-09
6.60825e-08
4.05089e-09
1.74717e-06
3.67827e-06
4.77668e-09
2.81512e-09
7.28222e-08
3.49021e-09
5.03804e-09
2.79042e-09
5.21638e-08
2.13301e-07
2.13717e-07
4.72143e-09
1.83148e-07
1.83772e-07
1.68372e-08
4.82573e-07
1.22675e-08
6.98555e-07
7.10172e-06
1.01698e-05
1.80516e-08
6.60659e-07
1.31859e-08
9.15525e-07
1.48465e-09
1.49917e-09
1.41956e-09
1.49337e-09
1.42579e-09
1.43653e-09