/*--------------------------------*- C++ -*----------------------------------*\
| =========                 |                                                 |
| \\      /  F ield         | OpenFOAM: The Open Source CFD Toolbox           |
|  \\    /   O peration     | Version:  v2012                                 |
|   \\  /    A nd           | Website:  www.openfoam.com                      |
|    \\/     M anipulation  |                                                 |
\*---------------------------------------------------------------------------*/
FoamFile
{
    version     2.0;
    format      ascii;
    class       volScalarField;
    location    "1025";
    object      nut;
}
// * * * * * * * * * * * * * * * * * * * * * * * * * * * * * * * * * * * * * //

dimensions      [0 2 -1 0 0 0 0];


internalField   nonuniform List<scalar> 
171728
(
1.73238e-06
1.88588e-06
1.69195e-06
2.18557e-06
1.72202e-06
1.90865e-06
1.65548e-06
2.1619e-06
1.70227e-06
1.95775e-06
1.62685e-06
2.15517e-06
1.70265e-06
2.00573e-06
1.59977e-06
2.14637e-06
1.69638e-06
2.08234e-06
1.56669e-06
2.13107e-06
1.69148e-06
2.27702e-06
1.52736e-06
2.12223e-06
1.69268e-06
2.44466e-06
1.48363e-06
2.09277e-06
1.70243e-06
2.37e-06
1.45834e-06
2.03394e-06
1.71528e-06
1.99934e-06
1.44834e-06
1.96412e-06
1.73454e-06
1.69896e-06
1.43942e-06
1.89033e-06
1.76369e-06
1.52887e-06
1.43114e-06
1.81597e-06
1.77831e-06
1.4068e-06
1.41077e-06
1.7726e-06
1.79565e-06
1.2996e-06
1.36274e-06
1.79779e-06
1.8205e-06
1.20494e-06
1.29776e-06
1.84436e-06
1.89029e-06
1.13533e-06
1.21823e-06
1.82668e-06
1.94722e-06
1.07459e-06
1.13744e-06
1.7088e-06
2.0593e-06
1.09807e-06
1.06484e-06
1.43696e-06
2.17252e-06
1.23045e-06
1.02422e-06
1.24301e-06
2.03791e-06
1.47278e-06
1.04878e-06
1.18187e-06
1.73312e-06
1.95715e-06
1.15487e-06
1.28919e-06
1.58598e-06
2.44594e-06
1.32976e-06
1.59563e-06
1.54787e-06
3.07912e-06
1.64666e-06
2.12011e-06
1.47338e-06
3.52309e-06
2.16571e-06
3.55725e-06
1.38234e-06
4.1737e-06
2.88674e-06
7.20415e-06
1.33399e-06
4.32711e-06
4.21246e-06
7.6382e-06
1.25915e-06
5.63068e-06
4.75296e-06
1.07781e-05
1.1862e-06
8.35002e-06
7.50546e-06
2.12467e-05
1.03352e-06
9.01325e-06
9.11882e-06
2.6794e-05
8.91148e-07
1.19508e-05
1.1496e-05
2.73775e-05
1.0198e-06
1.62733e-05
1.44005e-05
4.51355e-05
1.20213e-06
1.61543e-05
1.86544e-05
4.52256e-05
1.26855e-06
2.05529e-05
2.15448e-05
4.634e-05
1.5552e-06
2.82185e-05
2.62512e-05
6.16315e-05
1.9492e-06
2.92895e-05
3.06207e-05
6.45638e-05
2.68505e-06
3.77112e-05
3.65422e-05
6.94158e-05
3.1654e-06
4.10465e-05
4.12528e-05
7.37382e-05
4.07905e-06
4.59953e-05
4.69096e-05
7.98418e-05
5.81246e-06
5.39278e-05
5.17775e-05
8.20456e-05
7.03468e-06
5.66118e-05
6.07018e-05
9.03633e-05
8.91922e-06
6.80408e-05
6.28118e-05
9.29707e-05
1.06034e-05
6.80186e-05
6.66617e-05
9.23273e-05
1.3147e-05
7.65464e-05
8.67204e-05
9.8942e-05
1.8293e-05
8.43693e-05
8.67997e-05
0.000107298
1.94571e-05
8.69613e-05
8.22254e-05
0.000106572
2.40921e-05
9.63583e-05
9.56713e-05
0.000107513
2.72567e-05
9.77202e-05
0.000106935
0.000115014
3.60828e-05
0.000108966
0.0001071
0.000124006
4.30724e-05
0.000114971
0.000111684
0.000120892
4.18044e-05
0.000112163
0.000112088
0.000115291
4.8642e-05
0.000117608
0.000118547
0.00013437
6.03445e-05
0.000132655
0.00013494
0.000140836
6.40747e-05
0.000129425
0.000131245
0.000131628
7.19765e-05
0.000129626
0.000127919
0.00014066
8.34308e-05
0.000144511
0.0001438
0.000145673
8.73585e-05
0.000143622
0.000148069
0.000140225
8.60678e-05
0.000141237
0.000143028
0.000140114
9.21572e-05
0.000153754
0.000146581
0.000154924
0.000117192
0.000162662
0.000163555
0.000160741
0.000121891
0.000158754
0.000163487
0.000154574
0.000116775
0.000156203
0.000159529
0.000152317
0.000119971
0.000168827
0.000165616
0.000163373
0.000135595
0.000175933
0.00017239
0.000166218
0.000137444
0.000172989
0.000172338
0.00016155
0.000148033
0.000172492
0.000178113
0.00016816
0.000153491
0.000182872
0.00018385
0.000176071
0.000156441
0.000183782
0.000184675
0.000170569
0.00015736
0.000183446
0.000181452
0.000167355
0.000168361
0.000191599
0.000183219
0.000178388
0.000177379
0.000193752
0.000198032
0.000184166
0.000177322
0.000193299
0.000202728
0.000180473
0.000178463
0.000197823
0.000197983
0.000180138
0.00019545
0.000200856
0.000193121
0.000182287
0.00020167
0.000201088
0.000196828
0.000182817
0.000197533
0.000205171
0.000208124
0.000189801
0.000194792
0.000208875
0.000212367
0.00019146
0.00020533
0.00020855
0.000207951
0.000186914
0.000211473
0.000207117
0.000205577
0.000187137
0.000220557
0.000212152
0.000215165
0.000194412
0.000225771
0.000219762
0.000219856
0.000198042
0.000220556
0.000218988
0.000215179
0.00019512
0.000215424
0.000212952
0.000211309
0.000189101
0.00022342
0.00021687
0.00021681
0.000192674
0.000243456
0.000225523
0.000228586
0.000203653
0.000245422
0.000222394
0.000227772
0.000202462
0.000229893
0.000217341
0.000216903
0.000194574
0.000228117
0.000224018
0.00021902
0.000196847
0.000246593
0.000232375
0.00022885
0.00020287
0.000251467
0.000227828
0.000227642
0.000199174
0.000242382
0.000219071
0.000223809
0.000196075
0.00024056
0.000222282
0.000226924
0.00020291
0.000247789
0.000229338
0.000228262
0.000203805
0.000250301
0.000228043
0.000224282
0.000197057
0.000247454
0.000225789
0.000224499
0.000199265
0.000250103
0.000230043
0.000231092
0.000205519
0.000257418
0.000232474
0.000232901
0.000205514
2.23635e-06
2.33495e-06
2.6766e-06
2.17346e-06
2.18179e-06
2.29019e-06
1.72817e-06
1.75466e-06
1.73537e-06
1.88262e-06
2.23731e-06
2.13711e-06
2.17775e-06
2.05163e-06
2.41951e-06
2.18613e-06
2.2348e-06
2.23575e-06
1.84154e-06
3.3623e-06
1.8161e-06
3.87997e-06
2.15403e-06
2.18524e-06
2.99739e-06
1.93883e-06
2.45958e-06
2.01503e-06
1.81433e-06
1.89684e-06
1.83179e-06
2.16882e-06
2.15549e-06
1.84869e-06
1.66282e-06
1.836e-06
2.1605e-06
2.23356e-06
2.19642e-06
1.81106e-06
4.06051e-06
1.80377e-06
4.56539e-06
2.1733e-06
2.26266e-06
2.28004e-06
2.05955e-06
1.93837e-06
2.22672e-06
1.84484e-06
1.9454e-06
1.88379e-06
2.14706e-06
2.15464e-06
1.83381e-06
1.63376e-06
1.81952e-06
2.15413e-06
2.19528e-06
2.17016e-06
1.80412e-06
4.66895e-06
1.80704e-06
4.47505e-06
2.24613e-06
2.31718e-06
1.88125e-06
2.30229e-06
1.79757e-06
2.59765e-06
1.89314e-06
1.99485e-06
1.90963e-06
2.15006e-06
2.21789e-06
1.81215e-06
1.60681e-06
1.78912e-06
2.14577e-06
2.16988e-06
2.14043e-06
1.80683e-06
4.26564e-06
1.78919e-06
3.44623e-06
2.28921e-06
2.27131e-06
1.77997e-06
2.7323e-06
1.72439e-06
3.3494e-06
1.91045e-06
2.05059e-06
1.90304e-06
2.21835e-06
2.38122e-06
1.78264e-06
1.57383e-06
1.76326e-06
2.13076e-06
2.13939e-06
2.09357e-06
1.77917e-06
3.1813e-06
1.7368e-06
2.54121e-06
2.234e-06
2.19557e-06
1.7053e-06
3.62386e-06
1.64036e-06
4.45675e-06
1.89783e-06
2.22193e-06
1.87726e-06
2.37779e-06
2.51645e-06
1.75683e-06
1.53841e-06
1.7414e-06
2.12169e-06
2.0912e-06
2.03231e-06
1.72152e-06
2.38273e-06
1.66948e-06
2.00168e-06
2.18657e-06
2.18452e-06
1.61781e-06
4.70837e-06
1.54889e-06
4.64632e-06
1.87e-06
2.41555e-06
1.85057e-06
2.51115e-06
2.28658e-06
1.73601e-06
1.49347e-06
1.71713e-06
2.09653e-06
2.02946e-06
1.95943e-06
1.65083e-06
1.88978e-06
1.60801e-06
1.5777e-06
2.17751e-06
2.11251e-06
1.52331e-06
4.38024e-06
1.44875e-06
3.29172e-06
1.84529e-06
2.42733e-06
1.82882e-06
2.25512e-06
2.10783e-06
1.70738e-06
1.46221e-06
1.6671e-06
2.03952e-06
1.95492e-06
1.87316e-06
1.59578e-06
1.4892e-06
1.57265e-06
1.28564e-06
2.10011e-06
1.99217e-06
1.42461e-06
2.97157e-06
1.35854e-06
2.31937e-06
1.82088e-06
2.0945e-06
1.78759e-06
2.09348e-06
1.98718e-06
1.65586e-06
1.45017e-06
1.63015e-06
1.97074e-06
1.86672e-06
1.77377e-06
1.56552e-06
1.2376e-06
1.54561e-06
1.13426e-06
1.98393e-06
1.8793e-06
1.33588e-06
2.18264e-06
1.28655e-06
1.90572e-06
1.77323e-06
1.75914e-06
1.71381e-06
1.97869e-06
1.89551e-06
1.6216e-06
1.44186e-06
1.57179e-06
1.89876e-06
1.76595e-06
1.69622e-06
1.54584e-06
1.11561e-06
1.54759e-06
1.07312e-06
1.86976e-06
1.75609e-06
1.27853e-06
1.83588e-06
1.25772e-06
1.66125e-06
1.69087e-06
1.56486e-06
1.62261e-06
1.88591e-06
1.79863e-06
1.55618e-06
1.43309e-06
1.52754e-06
1.82381e-06
1.68975e-06
1.64637e-06
1.55111e-06
1.05852e-06
1.57727e-06
1.02016e-06
1.74832e-06
1.65485e-06
1.25105e-06
1.61141e-06
1.23598e-06
1.4911e-06
1.59865e-06
1.43328e-06
1.52963e-06
1.79002e-06
1.71221e-06
1.52197e-06
1.41786e-06
1.53464e-06
1.77733e-06
1.63945e-06
1.63606e-06
1.59284e-06
1.00696e-06
1.64974e-06
9.67134e-07
1.64583e-06
1.54991e-06
1.23755e-06
1.46174e-06
1.26884e-06
1.3765e-06
1.50835e-06
1.32579e-06
1.44395e-06
1.70288e-06
1.62376e-06
1.565e-06
1.37784e-06
1.86205e-06
1.79604e-06
1.63136e-06
1.64907e-06
1.67012e-06
9.52739e-07
1.73411e-06
9.09553e-07
1.53705e-06
1.4359e-06
1.28271e-06
1.34673e-06
1.3499e-06
1.25539e-06
1.42269e-06
1.22097e-06
1.35929e-06
1.61083e-06
1.52597e-06
1.99026e-06
1.31509e-06
2.41466e-06
1.84754e-06
1.64866e-06
1.69482e-06
1.75804e-06
8.94947e-07
1.81585e-06
8.43174e-07
1.41909e-06
1.31862e-06
1.3883e-06
1.22847e-06
1.55386e-06
1.13276e-06
1.33744e-06
1.14799e-06
1.27563e-06
1.50907e-06
1.41945e-06
2.55515e-06
1.23768e-06
2.889e-06
1.84433e-06
1.69654e-06
1.76423e-06
1.83648e-06
8.2726e-07
1.87949e-06
7.82652e-07
1.29708e-06
1.20924e-06
1.62069e-06
1.10813e-06
1.86574e-06
1.03941e-06
1.25196e-06
1.09411e-06
1.17035e-06
1.39752e-06
1.31491e-06
2.95347e-06
1.1555e-06
2.93106e-06
1.74703e-06
1.76771e-06
1.88573e-06
1.90102e-06
7.69658e-07
1.93083e-06
7.4665e-07
1.19038e-06
1.11981e-06
1.97701e-06
1.02167e-06
2.42397e-06
9.85776e-07
1.13891e-06
1.08115e-06
1.04338e-06
1.29142e-06
1.22267e-06
2.88357e-06
1.07908e-06
2.39407e-06
1.48796e-06
1.89662e-06
1.99197e-06
1.9415e-06
7.41574e-07
1.94982e-06
7.36997e-07
1.11075e-06
1.08779e-06
2.57726e-06
9.74781e-07
2.95087e-06
9.76842e-07
1.0192e-06
1.17389e-06
9.4572e-07
1.20336e-06
1.16457e-06
2.19228e-06
1.03005e-06
1.75348e-06
1.27695e-06
1.98759e-06
1.90285e-06
1.91464e-06
7.4364e-07
1.84149e-06
7.59599e-07
1.08433e-06
1.13866e-06
3.04783e-06
9.96553e-07
2.9766e-06
1.10502e-06
9.31102e-07
1.40577e-06
8.99212e-07
1.15731e-06
1.18543e-06
1.62979e-06
1.03788e-06
1.41453e-06
1.17924e-06
1.85288e-06
1.7088e-06
1.76601e-06
7.75958e-07
1.69401e-06
9.24971e-07
1.14505e-06
1.41773e-06
2.87665e-06
1.1505e-06
2.36247e-06
1.35603e-06
9.16066e-07
1.84747e-06
9.86932e-07
1.20121e-06
1.32894e-06
1.36783e-06
1.1194e-06
1.31297e-06
1.2519e-06
1.66998e-06
1.76264e-06
1.66322e-06
9.51358e-07
1.69179e-06
1.02254e-06
1.48305e-06
1.56995e-06
2.06052e-06
1.43691e-06
1.70436e-06
1.69177e-06
1.00303e-06
2.33094e-06
1.15558e-06
1.38065e-06
1.63006e-06
1.30521e-06
1.25472e-06
1.33196e-06
1.4839e-06
1.86755e-06
2.35223e-06
1.78027e-06
1.09943e-06
1.91354e-06
1.39587e-06
1.66381e-06
2.47127e-06
1.66621e-06
1.82658e-06
1.74095e-06
2.24843e-06
1.24303e-06
2.91342e-06
1.38295e-06
1.72859e-06
2.41889e-06
1.39982e-06
1.57887e-06
1.50738e-06
2.05336e-06
2.45014e-06
3.29814e-06
1.91411e-06
1.5049e-06
2.41999e-06
1.83124e-06
2.5923e-06
3.33244e-06
1.77052e-06
2.34647e-06
2.08327e-06
2.91423e-06
1.51147e-06
3.33934e-06
1.9888e-06
2.59851e-06
3.34538e-06
1.53953e-06
2.03856e-06
1.99702e-06
3.34012e-06
3.70215e-06
5.03407e-06
2.57079e-06
2.07962e-06
3.14775e-06
2.60596e-06
3.55058e-06
5.8638e-06
2.1512e-06
3.05852e-06
2.78503e-06
3.60736e-06
2.05184e-06
4.08661e-06
2.8778e-06
3.71067e-06
5.0889e-06
2.05905e-06
2.66711e-06
2.78334e-06
5.82733e-06
5.48938e-06
8.21577e-06
3.47361e-06
2.88481e-06
4.28317e-06
3.53425e-06
6.28248e-06
7.7199e-06
2.94409e-06
3.85722e-06
3.89872e-06
4.61811e-06
3.34324e-06
4.24924e-06
3.85653e-06
5.50058e-06
8.81181e-06
3.24312e-06
3.87223e-06
3.69036e-06
7.8433e-06
8.8004e-06
1.07296e-05
4.39451e-06
3.91476e-06
4.55785e-06
5.53583e-06
8.4083e-06
1.15143e-05
4.43041e-06
4.84342e-06
5.21618e-06
5.09711e-06
3.86701e-06
5.50198e-06
4.35516e-06
9.51875e-06
1.06807e-05
3.69114e-06
4.64667e-06
4.05482e-06
8.6553e-06
1.09494e-05
2.03696e-05
4.67606e-06
5.7843e-06
7.65259e-06
7.82672e-06
1.2292e-05
1.78198e-05
5.38359e-06
5.2095e-06
8.22148e-06
6.98363e-06
5.49476e-06
7.51536e-06
7.16632e-06
1.08738e-05
1.66222e-05
5.1046e-06
6.75073e-06
6.65363e-06
2.0273e-05
2.27504e-05
2.38363e-05
8.48527e-06
9.32472e-06
9.12856e-06
1.0995e-05
2.06901e-05
2.46746e-05
8.99668e-06
7.61226e-06
9.69508e-06
8.84913e-06
7.68691e-06
9.03409e-06
1.02459e-05
1.87313e-05
2.44175e-05
7.18702e-06
8.88835e-06
9.44536e-06
2.53802e-05
2.3598e-05
2.41674e-05
9.05907e-06
1.09952e-05
9.68113e-06
1.10903e-05
2.44075e-05
2.4445e-05
9.65831e-06
9.18285e-06
1.05993e-05
1.07295e-05
1.0692e-05
9.54256e-06
1.09943e-05
2.48166e-05
2.79557e-05
9.86236e-06
1.06964e-05
1.02033e-05
2.74693e-05
2.6521e-05
3.8364e-05
1.06686e-05
1.28974e-05
1.48466e-05
1.80517e-05
3.02417e-05
4.43646e-05
1.12949e-05
1.14615e-05
1.34069e-05
1.35321e-05
1.11017e-05
1.60565e-05
1.70911e-05
2.94492e-05
3.60985e-05
1.03271e-05
1.37013e-05
1.52343e-05
4.16898e-05
4.01724e-05
4.48699e-05
1.59435e-05
1.80528e-05
1.79432e-05
1.72149e-05
4.42935e-05
3.89572e-05
1.474e-05
1.42349e-05
1.92821e-05
1.77084e-05
1.93089e-05
1.58393e-05
2.00846e-05
3.74694e-05
4.40646e-05
1.67658e-05
1.75328e-05
1.78202e-05
4.56501e-05
4.59367e-05
5.01968e-05
1.84182e-05
1.69909e-05
2.04544e-05
2.00479e-05
3.91143e-05
4.96963e-05
2.01667e-05
1.88817e-05
2.14969e-05
2.09526e-05
1.90415e-05
1.88754e-05
1.78443e-05
4.59027e-05
5.139e-05
1.77317e-05
2.0862e-05
1.78322e-05
4.3596e-05
5.14315e-05
5.63266e-05
2.16615e-05
2.31648e-05
2.52449e-05
2.94349e-05
5.22165e-05
5.95954e-05
2.2135e-05
2.15726e-05
2.50064e-05
2.47786e-05
1.79658e-05
2.69232e-05
2.79876e-05
5.22695e-05
5.60956e-05
1.99489e-05
2.49077e-05
2.60218e-05
6.00155e-05
5.76365e-05
6.27143e-05
2.6127e-05
3.01059e-05
2.92738e-05
3.02975e-05
6.08081e-05
6.22306e-05
2.58535e-05
2.60957e-05
2.90466e-05
2.96025e-05
3.03624e-05
2.92414e-05
3.19615e-05
5.75754e-05
6.28081e-05
2.71795e-05
2.97054e-05
3.0312e-05
6.38748e-05
6.42219e-05
6.9432e-05
3.08519e-05
3.02156e-05
3.55951e-05
3.49722e-05
6.27699e-05
6.8848e-05
3.09245e-05
3.04781e-05
3.5733e-05
3.48685e-05
3.23035e-05
3.5097e-05
3.46837e-05
6.39353e-05
6.85578e-05
3.13434e-05
3.48851e-05
3.43168e-05
6.8131e-05
7.03895e-05
7.28465e-05
3.65626e-05
3.77112e-05
3.94254e-05
4.0989e-05
7.08811e-05
7.38083e-05
3.66108e-05
3.66966e-05
3.9346e-05
4.05651e-05
3.62888e-05
4.09578e-05
4.00057e-05
6.99602e-05
7.38424e-05
3.60449e-05
4.03838e-05
3.92566e-05
7.29291e-05
7.37689e-05
7.7344e-05
4.09059e-05
4.10665e-05
4.46465e-05
4.27761e-05
7.41449e-05
7.67409e-05
4.05031e-05
4.15295e-05
4.47554e-05
4.50407e-05
4.03784e-05
4.2648e-05
4.53401e-05
7.46912e-05
7.76745e-05
3.98156e-05
4.48249e-05
4.59886e-05
7.85232e-05
7.84889e-05
8.33618e-05
4.58829e-05
4.61026e-05
5.20112e-05
5.33124e-05
7.83624e-05
8.32785e-05
4.61718e-05
4.67888e-05
5.1852e-05
5.05294e-05
4.78064e-05
5.31456e-05
5.15215e-05
7.87128e-05
8.19292e-05
4.8391e-05
5.08708e-05
5.13716e-05
8.16592e-05
8.45282e-05
8.68444e-05
5.43943e-05
5.40997e-05
5.77755e-05
5.50095e-05
8.39099e-05
8.59743e-05
5.38793e-05
5.15777e-05
5.78498e-05
5.85178e-05
5.16331e-05
5.45319e-05
5.51864e-05
8.29617e-05
8.7957e-05
5.13883e-05
5.8407e-05
5.59026e-05
8.80181e-05
8.74201e-05
9.03571e-05
5.80468e-05
5.78954e-05
6.27317e-05
6.57143e-05
8.71276e-05
9.22683e-05
5.84552e-05
6.10827e-05
6.29247e-05
6.40989e-05
5.98399e-05
6.66996e-05
6.96163e-05
8.88393e-05
8.96273e-05
6.00083e-05
6.29699e-05
6.79877e-05
9.30407e-05
9.15418e-05
9.41567e-05
6.49911e-05
6.66626e-05
6.90905e-05
6.7301e-05
9.27945e-05
9.31944e-05
6.50883e-05
6.39843e-05
6.80381e-05
6.39803e-05
7.04541e-05
6.8227e-05
6.92209e-05
8.97964e-05
9.26182e-05
6.84317e-05
6.32008e-05
6.73198e-05
9.18119e-05
9.47451e-05
9.84136e-05
6.9773e-05
6.78975e-05
7.35367e-05
7.46821e-05
9.36392e-05
9.85144e-05
6.90086e-05
6.54911e-05
7.5486e-05
8.20444e-05
6.88771e-05
7.33426e-05
6.86808e-05
9.44396e-05
0.000104026
6.70993e-05
8.35793e-05
6.88914e-05
9.69151e-05
9.9758e-05
0.000103655
7.62009e-05
7.74333e-05
8.44304e-05
8.31805e-05
0.000100008
0.000102881
7.78336e-05
8.52395e-05
8.34974e-05
8.60581e-05
7.15514e-05
8.34138e-05
8.79733e-05
0.000105041
0.000103524
7.49832e-05
8.7517e-05
8.8455e-05
0.000106826
0.000104159
0.000105285
8.58219e-05
8.39476e-05
8.63758e-05
8.53363e-05
0.000103326
0.000105551
8.4411e-05
8.53426e-05
8.58176e-05
8.13081e-05
9.0198e-05
8.54744e-05
9.08801e-05
0.000103276
0.000100378
8.99759e-05
8.28202e-05
8.96921e-05
0.000106697
0.000105785
0.000109593
8.65553e-05
8.70513e-05
9.3119e-05
9.47653e-05
0.000106535
0.000110492
8.69722e-05
8.06708e-05
9.24296e-05
8.78556e-05
9.04055e-05
9.45049e-05
8.87267e-05
0.000100918
0.000111004
8.91488e-05
8.86522e-05
8.74367e-05
0.000106631
0.000110495
0.000113149
9.49604e-05
9.65433e-05
9.68687e-05
9.78639e-05
0.000111076
0.000112263
9.42524e-05
9.53131e-05
9.75734e-05
0.000107103
8.98616e-05
9.77896e-05
9.63195e-05
0.000113865
0.00011812
8.8182e-05
0.000105988
9.70726e-05
0.000113438
0.000114
0.000120275
9.82528e-05
9.78049e-05
0.00010745
0.000104587
0.000112807
0.000119062
9.93273e-05
0.00010862
0.000108796
0.000110301
9.85026e-05
0.000104629
0.000109985
0.000118326
0.00011941
0.000101512
0.00010741
0.000113665
0.000123183
0.000121336
0.000121352
0.000110192
0.000108901
0.0001126
0.000114779
0.000120906
0.000123639
0.00011123
0.000110163
0.000112375
0.000109302
0.00011321
0.000115161
0.000114764
0.000119784
0.000120648
0.000114518
0.000110158
0.000113195
0.000121648
0.000121221
0.000121382
0.000112344
0.000114592
0.000111221
0.000112674
0.000123495
0.000121121
0.000111928
0.000109801
0.000110602
0.000110006
0.000114316
0.000112606
0.000109257
0.000120879
0.000120871
0.000109805
0.000112177
0.000103917
0.000115407
0.000122316
0.000129019
0.000111266
0.000112285
0.000119384
0.000113019
0.000120926
0.000125754
0.000110206
0.000109994
0.000119686
0.000116765
0.000108777
0.000111746
0.000112181
0.000120902
0.000126948
0.000103375
0.000112899
0.000115603
0.000130491
0.00012969
0.000131611
0.000121023
0.000119507
0.000126101
0.000130765
0.000128682
0.000136657
0.000121627
0.000122152
0.000126171
0.000133051
0.000121571
0.000131835
0.000134227
0.000129701
0.000138056
0.000126486
0.000133733
0.000139485
0.00014159
0.000132476
0.000135127
0.000127794
0.000131311
0.000129801
0.000129685
0.000136677
0.000132425
0.000127989
0.000133838
0.000130324
0.000132629
0.000134446
0.000130378
0.000130413
0.000138139
0.000133949
0.000139803
0.000133654
0.000133212
0.000131852
0.000135391
0.000138714
0.000130388
0.000129116
0.000135007
0.000128001
0.00013229
0.000135356
0.000130512
0.00013069
0.000133774
0.000128504
0.000129844
0.000127812
0.000129407
0.000133511
0.000132472
0.000132085
0.000128607
0.000129766
0.000138073
0.000139748
0.000142956
0.000136223
0.000131568
0.000139237
0.000142847
0.000137523
0.00014522
0.000135264
0.000127945
0.000141077
0.000139988
0.000134656
0.000142799
0.000143944
0.00013334
0.000145144
0.000132783
0.000139188
0.0001418
0.000145935
0.000143281
0.000143091
0.00014066
0.000144056
0.000142954
0.0001438
0.000145308
0.000142703
0.000142905
0.000144356
0.000144226
0.000148344
0.00014456
0.000144795
0.000142683
0.000146749
0.000147257
0.00014298
0.000148111
0.000142729
0.000140544
0.000142989
0.000141958
0.000142845
0.00014266
0.000142252
0.000141026
0.000142444
0.000141514
0.000144018
0.00014825
0.00014253
0.000143303
0.000141058
0.000141637
0.000138868
0.000146776
0.000141871
0.00014179
0.000143656
0.000140159
0.00013926
0.000142288
0.000150651
0.000142002
0.00014069
0.000149254
0.000150275
0.000142192
0.000152058
0.000142237
0.000142704
0.000147159
0.000141858
0.000138489
0.000148967
0.000148975
0.000141724
0.000145761
0.000139878
0.000142382
0.000149754
0.00015242
0.000152877
0.000157533
0.000153714
0.000154759
0.000161267
0.000161731
0.000154162
0.000157992
0.000151967
0.000145708
0.000161455
0.000161032
0.00015441
0.00016214
0.000164367
0.000148339
0.000158693
0.000154698
0.000161394
0.000164434
0.000160754
0.000157488
0.000154534
0.000161707
0.000162042
0.000160398
0.000159673
0.000157883
0.00015319
0.000162322
0.000163317
0.000161687
0.000164413
0.000165144
0.000160875
0.000163678
0.00015919
0.000157558
0.00016526
0.000164512
0.000163884
0.000155584
0.000154255
0.000154161
0.000159285
0.000157956
0.000158138
0.000156374
0.000152647
0.00015181
0.000160303
0.000163505
0.000158833
0.000159957
0.000160981
0.000156499
0.000157545
0.000157032
0.000154336
0.000161262
0.000159777
0.00015788
0.000151892
0.000154938
0.000161554
0.00015814
0.000156131
0.00016612
0.000165478
0.000152644
0.000161827
0.000158538
0.000159722
0.000165341
0.000161831
0.000157218
0.000164426
0.000163714
0.000154269
0.000159296
0.000157551
0.00016161
0.000163508
0.000161467
0.000162282
0.000162711
0.000168008
0.000168989
0.000170163
0.000174463
0.000163571
0.000167152
0.000167813
0.000165635
0.000170782
0.00017151
0.000168156
0.000175635
0.000174354
0.000160974
0.000164113
0.000167757
0.000171938
0.000173721
0.000166574
0.000162635
0.000164563
0.000170253
0.000174731
0.000171753
0.000173583
0.00016708
0.000164144
0.000170944
0.000172036
0.000171446
0.0001723
0.000174465
0.000173985
0.00017181
0.000164035
0.000163602
0.000173825
0.000172429
0.000171488
0.000161696
0.000165688
0.000170167
0.000173859
0.000173255
0.000179211
0.00017309
0.00016397
0.000165176
0.00017331
0.000172346
0.000179187
0.000177701
0.0001713
0.000172212
0.000171173
0.000163798
0.000169208
0.000171157
0.000175877
0.000171461
0.000165807
0.000170316
0.000170446
0.000180077
0.000175214
0.000180671
0.000180744
0.00016619
0.000171441
0.000180118
0.000179498
0.000180779
0.000181448
0.000174417
0.000181309
0.000185415
0.000170153
0.000171765
0.000175642
0.000182772
0.00018573
0.00017598
0.000170448
0.000170689
0.000181065
0.000181719
0.000181801
0.000182527
0.000171671
0.000171323
0.000180826
0.000181955
0.00018208
0.000183744
0.000186435
0.000183924
0.000186084
0.00017193
0.000172654
0.000186558
0.000184749
0.000186018
0.000171783
0.000170572
0.0001709
0.000181802
0.000182519
0.0001819
0.000182587
0.000171202
0.000172329
0.000182173
0.000183798
0.000182299
0.000182889
0.000183655
0.000183377
0.000180265
0.000172549
0.00017048
0.000183437
0.000182
0.000179686
0.000167309
0.000171766
0.000180132
0.000182579
0.000183918
0.000192154
0.000191784
0.000173177
0.000179196
0.000182684
0.000182713
0.000190824
0.000183258
0.000180102
0.000189646
0.000184981
0.000170349
0.000172198
0.000179522
0.000181379
0.000184011
0.000176275
0.00018073
0.000179843
0.000193885
0.000193017
0.000194773
0.000193655
0.000179536
0.000178635
0.000192831
0.000185873
0.000194286
0.000193966
0.000189746
0.00019373
0.000197701
0.000173402
0.000181511
0.000188961
0.000194936
0.000198065
0.000184215
0.000179073
0.000175375
0.000194127
0.00019306
0.000190019
0.000191937
0.000178311
0.000177616
0.000194113
0.000196398
0.000191738
0.000200377
0.000198174
0.000193431
0.000197318
0.000182866
0.000186225
0.000198873
0.000202564
0.000198889
0.000180942
0.000175181
0.000180055
0.000189844
0.000191727
0.000191134
0.000195237
0.000177865
0.000182523
0.000191631
0.000200518
0.000193196
0.000198845
0.000196023
0.00019614
0.00019497
0.000186191
0.000182418
0.000197774
0.000200555
0.000196373
0.000179892
0.000182088
0.000190412
0.000195954
0.000197644
0.000207159
0.000202378
0.000183384
0.000184925
0.000196626
0.000197183
0.000204724
0.000195137
0.000194758
0.000200655
0.000198608
0.000181422
0.000178248
0.000196096
0.000193422
0.000196706
0.000182311
0.00019066
0.000188494
0.000208432
0.000203056
0.000209267
0.00020354
0.000184817
0.000184637
0.000205731
0.000195024
0.000206211
0.000198531
0.000199275
0.000201033
0.000199961
0.000178058
0.000181767
0.000196826
0.000193923
0.000197142
0.000182566
0.000187144
0.00018224
0.000207353
0.000203451
0.000200087
0.000202884
0.000184544
0.000186309
0.000204554
0.000200163
0.000201072
0.00020414
0.000200271
0.000203538
0.00020475
0.000182826
0.000188127
0.000197805
0.000205528
0.000205593
0.000188861
0.000182017
0.000185564
0.00019948
0.000202896
0.000199231
0.000204279
0.000186709
0.000188959
0.000200938
0.000205838
0.000203216
0.000210315
0.00020687
0.000208476
0.000209871
0.00018908
0.000192641
0.000208052
0.000212225
0.000211135
0.00019175
0.000186694
0.000189539
0.000201637
0.000205775
0.000208343
0.000208826
0.00018923
0.000189729
0.000205601
0.000210654
0.000208378
0.000209749
0.000209978
0.000209038
0.000207937
0.0001926
0.000188951
0.000211265
0.000210158
0.000208532
0.00018753
0.000189469
0.000189914
0.000209263
0.000209009
0.000210453
0.000209203
0.000189463
0.00018845
0.00020881
0.000208113
0.000209181
0.000206483
0.000206821
0.00020715
0.000205879
0.000187825
0.000186164
0.000206978
0.000205609
0.000205625
0.000186699
0.000190216
0.000196787
0.000211032
0.000209212
0.000215825
0.000210476
0.000188315
0.000191151
0.000209537
0.000206528
0.000216322
0.000213125
0.000205971
0.000209231
0.000211314
0.000186397
0.00019448
0.000205676
0.00021177
0.000211719
0.000193348
0.000197481
0.000198567
0.000217484
0.000212642
0.000219189
0.000218308
0.000192279
0.000197475
0.000218547
0.000216231
0.000220273
0.00021968
0.000213984
0.000218961
0.000219741
0.000195668
0.000198471
0.000214575
0.000219613
0.000219707
0.000198048
0.000197637
0.000190175
0.000219231
0.000219008
0.0002145
0.000219518
0.000197582
0.000196689
0.000220307
0.000219936
0.000212731
0.000215713
0.000220268
0.000220382
0.000220542
0.000198044
0.000193013
0.000220055
0.00021736
0.000220093
0.000196429
0.000188708
0.000186522
0.000212117
0.000218447
0.000209027
0.00021306
0.000195539
0.000190875
0.00021004
0.000213334
0.000207287
0.000209997
0.000218636
0.000213413
0.000211974
0.000191833
0.000189383
0.000217891
0.000211473
0.000211749
0.00018951
0.000186715
0.0001972
0.000209045
0.000212533
0.000215031
0.00021315
0.000190621
0.000193972
0.00020739
0.000209962
0.000216665
0.000214217
0.000211209
0.000213712
0.000211517
0.000189209
0.000194581
0.00021098
0.000213039
0.000211226
0.000191176
0.000199156
0.000207065
0.000219981
0.000216038
0.000229426
0.000225416
0.000195449
0.000202422
0.000222188
0.000219026
0.000231887
0.000229386
0.000213668
0.000224987
0.000225188
0.000196268
0.000204867
0.000213074
0.000227233
0.000225523
0.000203048
0.000207033
0.000201307
0.000229988
0.000226182
0.000229201
0.000226321
0.000202429
0.000198914
0.00023233
0.000230287
0.000230269
0.000230352
0.000227051
0.00022519
0.000228449
0.000205042
0.000202498
0.000227834
0.000229519
0.000229525
0.000203858
0.000198649
0.000190914
0.000225033
0.000223427
0.000216233
0.000217689
0.000197162
0.000193042
0.000224871
0.000226293
0.000214409
0.000215973
0.000227961
0.000217507
0.000220159
0.000200249
0.000192207
0.000229587
0.000218088
0.000220718
0.000195193
0.000190646
0.000195688
0.000215504
0.000217396
0.000216435
0.000219233
0.000192784
0.000198753
0.000213647
0.000215074
0.000214948
0.000215765
0.000219013
0.000220023
0.000218886
0.000191854
0.000195771
0.000219032
0.000216816
0.000218238
0.000195825
0.000197366
0.000205545
0.000220104
0.000223007
0.000230018
0.000231155
0.000200239
0.000206822
0.000219518
0.000219652
0.000230237
0.000229131
0.000220387
0.000231917
0.000227905
0.00019723
0.000204346
0.000218787
0.000228011
0.000226338
0.00020285
0.000205638
0.00020344
0.000230979
0.000231728
0.000231776
0.000231683
0.000206801
0.000202936
0.000231232
0.000229906
0.000232024
0.000230428
0.000228502
0.000231665
0.000228525
0.000204372
0.000202042
0.000227164
0.00022961
0.000227813
0.000200574
0.000201836
0.000196982
0.000229241
0.000228338
0.000222517
0.000220664
0.000200888
0.000194611
0.000229432
0.000228131
0.000223151
0.000223895
0.000225861
0.000219812
0.000221272
0.000200736
0.00019809
0.000225982
0.000223944
0.000222778
0.000196318
0.000196751
0.000198914
0.000221816
0.000219857
0.00022201
0.000220125
0.000194334
0.000197031
0.000222529
0.000223687
0.00022284
0.000225104
0.000221164
0.000219661
0.000224484
0.000197902
0.000201224
0.000222748
0.000225636
0.000226281
0.000202078
0.000199654
0.000202285
0.000223684
0.000222093
0.000227973
0.000228622
0.000198122
0.000203138
0.000224457
0.000226337
0.000227469
0.00022749
0.000227161
0.000228824
0.000229871
0.000201571
0.000202068
0.000228305
0.000228049
0.000230004
0.000204759
0.0002022
0.000200807
0.00022834
0.000229264
0.000228946
0.000230269
0.000203173
0.000202112
0.000227738
0.000227719
0.00022748
0.000224962
0.000230197
0.000229701
0.00022584
0.00020151
0.000198162
0.000230263
0.000224994
0.000224983
0.000197737
0.000200122
0.000198827
0.000227657
0.000228801
0.000225282
0.000225633
0.000201206
0.000199278
0.000226329
0.000224203
0.000224873
0.000223834
0.000224569
0.000225784
0.000224059
0.000197765
0.000198317
0.000223917
0.000224071
0.000223719
0.000198236
0.000198681
0.000202251
0.000225217
0.000225519
0.00022698
0.000227299
0.000199122
0.000202534
0.000224893
0.000224098
0.000227911
0.00022968
0.000224866
0.000228746
0.000231203
0.000198598
0.000204105
0.000224867
0.000229973
0.000231075
0.000205486
0.000202817
0.000206133
0.000228813
0.000229034
0.000233962
0.000234116
0.000203002
0.000206019
0.000229747
0.00023129
0.000234867
0.000236175
0.000231799
0.000234599
0.000234452
0.000204499
0.000206955
0.000231591
0.000235301
0.000233955
0.000204525
0.000208055
0.000232449
0.000232517
0.000207875
0.000233046
0.000233924
0.00025726
0.000259265
0.000257616
0.0002311
0.000208425
0.00023068
4.41933e-06
2.08404e-06
1.7988e-06
2.00005e-06
1.16467e-06
2.14878e-06
1.0659e-06
2.00233e-06
1.21493e-06
1.92011e-06
1.43534e-06
5.3108e-07
2.19328e-06
2.26594e-06
1.88886e-06
1.10656e-06
1.36795e-05
1.04829e-06
1.54346e-05
1.09031e-05
1.31835e-05
1.32325e-06
1.51269e-05
1.24466e-06
1.70587e-05
1.74765e-06
1.74377e-06
1.88519e-06
1.72815e-06
1.73666e-06
1.77705e-06
1.89754e-06
1.17091e-06
5.10638e-07
1.88014e-06
1.88331e-06
1.16994e-06
6.37426e-07
1.89653e-06
1.12172e-05
1.38084e-05
1.22009e-06
1.58707e-06
3.159e-07
1.67861e-06
1.21655e-06
1.59099e-06
4.21757e-07
1.49284e-06
1.50826e-06
2.17236e-06
1.69492e-06
1.70604e-06
1.36119e-06
1.87535e-05
1.26784e-06
2.12025e-05
1.71871e-05
1.93669e-05
1.51923e-06
2.07967e-05
1.45231e-06
2.32036e-05
1.73317e-06
1.78024e-06
1.89406e-06
1.70309e-06
1.71826e-06
1.79345e-06
1.88179e-06