/*--------------------------------*- C++ -*----------------------------------*\
| =========                 |                                                 |
| \\      /  F ield         | OpenFOAM: The Open Source CFD Toolbox           |
|  \\    /   O peration     | Version:  v2006                                 |
|   \\  /    A nd           | Website:  www.openfoam.com                      |
|    \\/     M anipulation  |                                                 |
\*---------------------------------------------------------------------------*/
FoamFile
{
    version     2.0;
    format      ascii;
    class       volVectorField;
    location    "500";
    object      U;
}
// * * * * * * * * * * * * * * * * * * * * * * * * * * * * * * * * * * * * * //

dimensions      [0 1 -1 0 0 0 0];


internalField   nonuniform List<vector> 
43248
(
(5.21846e-05 5.20511e-05 0.108944)
(-9.70857e-05 7.44307e-05 0.107947)
(8.31395e-05 -0.000104482 0.107957)
(-0.000138207 -0.000138861 0.106586)
(6.46866e-05 5.65231e-05 0.109236)
(-8.76308e-05 2.51745e-05 0.108135)
(5.27564e-05 -9.76748e-05 0.108121)
(-0.000174904 -0.000179341 0.106595)
(6.0915e-05 5.98384e-05 0.109511)
(-8.59114e-05 5.04873e-05 0.10833)
(4.78977e-05 -8.52808e-05 0.108292)
(-0.000136514 -0.000141934 0.106571)
(5.6837e-05 5.92834e-05 0.10981)
(-9.74912e-05 8.2472e-05 0.108458)
(5.30081e-05 -8.79449e-05 0.108438)
(-0.000136348 -0.000132458 0.106684)
(3.56013e-05 2.45993e-05 0.110062)
(-7.82155e-05 5.60209e-06 0.108576)
(0.000100407 -0.000108263 0.108531)
(-0.000136739 -0.000143645 0.106592)
(6.7611e-05 8.92055e-05 0.110326)
(-9.59146e-05 0.000113429 0.108714)
(-3.84066e-05 -5.17644e-05 0.108651)
(-0.000153786 -0.000140842 0.106458)
(5.47496e-05 5.87694e-05 0.110572)
(-7.72983e-05 5.17307e-05 0.108718)
(9.64348e-05 -8.57224e-05 0.108845)
(-0.000108666 -0.000101713 0.106438)
(5.43088e-05 3.55741e-05 0.110807)
(-6.60429e-05 8.66857e-06 0.108814)
(7.30973e-05 -8.41843e-05 0.108829)
(-0.000109623 -0.000126829 0.106548)
(4.18898e-05 4.22073e-05 0.111031)
(-7.45088e-05 5.86313e-05 0.108938)
(4.41202e-05 -7.64394e-05 0.108842)
(-0.000135049 -0.000134723 0.10622)
(4.71116e-05 6.02393e-05 0.111272)
(-9.07941e-05 0.000111873 0.108877)
(3.83925e-05 -6.6598e-05 0.108888)
(-7.86908e-05 -6.83965e-05 0.10627)
(5.42282e-05 4.69145e-05 0.111457)
(-4.01216e-05 -6.51795e-05 0.108915)
(1.22706e-05 -6.22465e-05 0.108969)
(-0.000155399 -0.000160445 0.106051)
(4.27764e-05 4.37333e-05 0.111649)
(-7.74541e-05 0.000118218 0.109025)
(7.39922e-05 -6.90964e-05 0.108989)
(-6.74217e-05 -6.80228e-05 0.105791)
(4.07922e-05 4.39785e-05 0.111845)
(-6.12217e-05 3.68781e-05 0.10888)
(4.58851e-05 -6.04091e-05 0.108915)
(-8.21462e-05 -7.86813e-05 0.105911)
(4.51447e-05 4.21658e-05 0.112019)
(-5.36967e-05 2.12014e-05 0.108893)
(2.97288e-05 -5.59232e-05 0.1089)
(-0.000110013 -0.000113103 0.105822)
(4.39827e-05 4.4145e-05 0.112176)
(-5.48921e-05 3.8509e-05 0.108904)
(3.12716e-05 -5.24361e-05 0.108895)
(-8.00251e-05 -7.9825e-05 0.105571)
(4.18745e-05 4.22068e-05 0.112322)
(-4.91166e-05 3.47095e-05 0.108853)
(3.74237e-05 -5.07258e-05 0.108853)
(-7.34532e-05 -7.30033e-05 0.105544)
(4.05277e-05 4.11387e-05 0.112454)
(-4.64658e-05 2.81608e-05 0.108813)
(2.47028e-05 -4.52268e-05 0.108814)
(-8.14309e-05 -8.1085e-05 0.105473)
(4.24155e-05 4.15968e-05 0.112573)
(-4.16638e-05 2.53203e-05 0.108777)
(3.05314e-05 -4.27094e-05 0.10878)
(-7.04111e-05 -7.11919e-05 0.105364)
(3.73464e-05 3.63993e-05 0.112679)
(-3.95911e-05 2.58731e-05 0.10873)
(2.78864e-05 -4.04304e-05 0.108719)
(-6.86358e-05 -6.94199e-05 0.105283)
(3.62856e-05 3.70437e-05 0.112779)
(-3.69224e-05 2.42821e-05 0.108671)
(1.83616e-05 -3.55729e-05 0.108662)
(-6.74561e-05 -6.67592e-05 0.105202)
(3.51991e-05 3.59819e-05 0.112864)
(-3.3067e-05 2.03436e-05 0.108613)
(2.08007e-05 -3.39685e-05 0.108616)
(-6.12584e-05 -6.06573e-05 0.105119)
(3.32284e-05 3.34923e-05 0.112937)
(-3.03636e-05 1.83711e-05 0.108555)
(2.09624e-05 -2.95555e-05 0.108562)
(-6.06538e-05 -6.06343e-05 0.105048)
(3.18743e-05 3.07742e-05 0.113)
(-2.71389e-05 1.60586e-05 0.108498)
(1.56929e-05 -2.81859e-05 0.108495)
(-5.60799e-05 -5.71312e-05 0.104972)
(2.97947e-05 3.03319e-05 0.113053)
(-2.48219e-05 1.53029e-05 0.108441)
(1.459e-05 -2.39938e-05 0.108439)
(-5.4785e-05 -5.41879e-05 0.104902)
(2.86775e-05 2.87318e-05 0.113094)
(-2.15462e-05 1.30423e-05 0.108382)
(1.24613e-05 -2.19303e-05 0.108382)
(-5.22443e-05 -5.23537e-05 0.104836)
(2.47334e-05 2.51137e-05 0.113127)
(-1.96087e-05 1.16151e-05 0.108324)
(1.21965e-05 -1.86229e-05 0.108327)
(-4.95962e-05 -4.93468e-05 0.104777)
(2.51192e-05 2.44794e-05 0.113152)
(-1.63946e-05 1.06722e-05 0.108268)
(1.11594e-05 -1.74278e-05 0.108266)
(-4.78877e-05 -4.85677e-05 0.104722)
(-1.64264e-05 -1.39885e-05 0.106726)
(5.07361e-05 9.81125e-05 0.107926)
(-8.48615e-05 0.000106499 0.107908)
(-2.79928e-05 3.06414e-05 0.106646)
(9.50445e-05 5.41464e-05 0.107926)
(0.000106156 -6.92482e-05 0.107911)
(-0.000103222 8.87121e-05 0.107906)
(-8.8851e-05 -3.52138e-05 0.107926)
(1.73479e-06 2.20281e-06 0.106718)
(7.32657e-05 -0.000102058 0.107909)
(-3.78485e-05 -8.69778e-05 0.107924)
(2.12275e-05 2.40307e-05 0.10673)
(0.000139765 0.000141041 0.106575)
(-1.07955e-05 -1.80195e-05 0.106858)
(3.85967e-05 9.05236e-05 0.107975)
(-7.16024e-05 0.000101415 0.107951)
(6.27088e-05 9.48905e-05 0.108119)
(-3.71962e-05 8.66152e-05 0.108077)
(-0.000174403 0.000177703 0.106476)
(3.38644e-05 -3.77197e-05 0.106683)
(8.92772e-05 3.89398e-05 0.107975)
(0.000106826 -8.32697e-05 0.107959)
(0.000100938 5.44634e-05 0.10812)
(8.94449e-05 -5.38019e-05 0.108085)
(-9.26419e-05 -4.76014e-05 0.107972)
(-8.89753e-05 3.16287e-05 0.10808)
(-9.75371e-05 -8.11921e-05 0.108108)
(0.000175588 -0.000172511 0.106559)
(-2.21453e-05 1.70005e-05 0.106694)
(-4.37439e-05 -9.56773e-05 0.107972)
(4.77081e-05 -9.39045e-05 0.108089)
(-7.49061e-05 -0.000101066 0.108108)
(-2.25575e-05 -2.78682e-05 0.106774)
(0.000162573 0.000155112 0.106693)
(-2.01336e-05 -2.32286e-05 0.106882)
(7.47012e-05 9.71101e-05 0.108162)
(-2.95939e-05 8.45606e-05 0.108131)
(4.65514e-05 8.6061e-05 0.108294)
(-3.34541e-05 8.75768e-05 0.10828)
(-0.000127713 0.000123747 0.106534)
(3.33355e-05 -3.022e-05 0.106893)
(0.000103477 6.60144e-05 0.108163)
(9.34312e-05 -5.69931e-05 0.108118)
(8.85126e-05 4.11911e-05 0.108296)
(9.7086e-05 -6.29679e-05 0.108247)
(-9.32328e-05 -6.96608e-05 0.108152)
(-8.51441e-05 3.652e-05 0.108284)
(-9.12347e-05 -5.915e-05 0.108249)
(0.000132952 -0.000137444 0.106521)
(4.75645e-06 -1.63957e-06 0.106714)
(-6.36424e-05 -9.5884e-05 0.108152)
(6.58848e-05 -9.43424e-05 0.10825)
(-5.11901e-05 -9.70122e-05 0.108252)
(2.35928e-05 1.74184e-05 0.106744)
(0.000139613 0.000137432 0.106697)
(2.57704e-05 2.91685e-05 0.10675)
(6.91513e-05 9.7188e-05 0.10832)
(-4.42078e-05 8.89996e-05 0.108326)
(8.26396e-05 9.84592e-05 0.108421)
(-9.19063e-05 0.000102646 0.108432)
(-0.000136022 0.000139907 0.106722)
(-2.4288e-05 2.61159e-05 0.106846)
(9.78442e-05 6.76619e-05 0.108322)
(8.92282e-05 -4.16551e-05 0.10829)
(9.63361e-05 8.87778e-05 0.10842)
(8.5959e-05 -3.36946e-05 0.108398)
(-8.38613e-05 -4.12925e-05 0.108297)
(-0.000100961 9.69099e-05 0.108429)
(-8.91335e-05 -3.77878e-05 0.108422)
(0.000151641 -0.000147554 0.106534)
(-3.29004e-05 3.48934e-05 0.106793)
(-3.73015e-05 -8.82316e-05 0.1083)
(3.90568e-05 -8.40417e-05 0.108396)
(-4.50427e-05 -8.61804e-05 0.108418)
(3.42531e-05 3.87094e-05 0.106875)
(0.000156099 0.000158535 0.106543)
(-7.42063e-05 -8.19559e-05 0.106858)
(4.1246e-05 8.28745e-05 0.108459)
(-8.3249e-05 9.74164e-05 0.108462)
(3.90527e-06 6.88654e-05 0.108545)
(-3.08296e-05 7.4507e-05 0.108544)
(-0.00017765 0.000177993 0.106625)
(5.76996e-05 -6.8652e-05 0.106783)
(8.19954e-05 4.41864e-05 0.108456)
(8.77984e-05 -5.35426e-05 0.108441)
(7.35999e-05 -8.85153e-06 0.108545)
(0.000102797 -0.000124868 0.108517)
(-9.47477e-05 -6.08025e-05 0.108457)
(-8.24599e-05 1.51775e-05 0.108545)
(-8.80726e-05 -7.20015e-05 0.108563)
(0.000132949 -0.000132633 0.106615)
(4.22027e-05 -5.2623e-05 0.106669)
(-6.51508e-05 -9.1889e-05 0.108452)
(0.000109609 -0.000110646 0.108519)
(-5.97273e-05 -9.17317e-05 0.108563)
(6.34631e-06 -3.07971e-07 0.106814)
(0.000102575 9.50914e-05 0.106689)
(3.48201e-05 4.42799e-05 0.106948)
(1.94141e-05 7.30778e-05 0.108595)
(-1.96123e-05 7.09889e-05 0.108572)
(9.24864e-05 9.66494e-05 0.108705)
(-6.07114e-05 8.52071e-05 0.108687)
(-9.80618e-05 8.72651e-05 0.106592)
(-4.82231e-06 8.94597e-06 0.106921)
(7.75672e-05 6.12397e-06 0.108599)
(0.00010091 -0.000113817 0.108527)
(9.04489e-05 0.000106456 0.108714)
(6.08475e-05 2.80326e-05 0.108607)
(-8.72094e-05 -6.87313e-05 0.108576)
(-8.35166e-05 6.45482e-05 0.108693)
(-9.29325e-05 -6.47141e-05 0.108628)
(0.000182198 -0.000192581 0.10643)
(-0.000109163 0.000113352 0.1066)
(-5.58797e-05 -9.12768e-05 0.10858)
(-2.42692e-05 -5.90395e-05 0.108612)
(-7.82278e-05 -8.74076e-05 0.108637)
(-7.9764e-06 1.37188e-06 0.106671)
(0.000188746 0.000201443 0.10669)
(-2.48483e-05 -1.32331e-05 0.106519)
(0.000105567 0.000104175 0.108718)
(-0.000103831 0.000100273 0.108709)
(5.6915e-05 9.07545e-05 0.108718)
(-8.84602e-05 9.92066e-05 0.10872)
(-0.000173634 0.000179497 0.106696)
(-6.91145e-06 1.6989e-05 0.106477)
(9.34303e-05 0.000129873 0.108722)
(5.62888e-05 4.76635e-05 0.108647)
(8.09816e-05 7.35805e-05 0.108709)
(8.44417e-05 -4.74066e-05 0.108805)
(-9.03727e-05 -5.01881e-05 0.108653)
(-9.14237e-05 0.000101196 0.108719)
(-8.29013e-05 -2.63284e-05 0.108731)
(3.94237e-05 -3.32249e-05 0.106434)
(1.05546e-05 -6.19658e-07 0.10697)
(-7.40204e-05 -7.99981e-05 0.108658)
(6.04057e-05 -7.65027e-05 0.108805)
(-4.30353e-05 -7.2871e-05 0.108722)
(3.77121e-05 4.97825e-05 0.106642)
(0.000108289 0.000114766 0.106292)
(-1.42596e-05 -3.23444e-05 0.106494)
(4.22211e-05 8.0474e-05 0.108723)
(-4.14441e-05 8.37267e-05 0.108719)
(6.13013e-05 7.66284e-05 0.108767)
(6.13984e-06 6.34579e-05 0.108773)
(-0.000119369 0.000128299 0.106237)
(7.08767e-05 -7.05861e-05 0.106564)
(7.65145e-05 4.51279e-05 0.108715)
(9.23566e-05 -8.58772e-05 0.108846)
(8.85919e-05 3.86866e-05 0.108769)
(8.61017e-05 -8.27107e-05 0.108848)
(-7.75232e-05 -2.52528e-05 0.108762)
(-6.30151e-05 -3.70875e-06 0.10877)
(-6.12084e-05 -3.24283e-05 0.108857)
(0.000187008 -0.000178065 0.106748)
(-4.67464e-06 4.88347e-06 0.106616)
(-2.83495e-05 -7.36547e-05 0.108754)
(8.52254e-05 -8.55803e-05 0.108845)
(-9.63581e-06 -7.28166e-05 0.108859)
(4.92888e-05 3.15851e-05 0.106765)
(0.000127629 0.000109933 0.106284)
(-4.60009e-05 -4.77878e-05 0.106573)
(4.75116e-05 7.02962e-05 0.108795)
(-1.18591e-05 6.48262e-05 0.108818)
(2.50991e-05 6.35138e-05 0.10887)
(-6.24919e-05 7.13668e-05 0.108917)
(-8.96726e-05 8.8335e-05 0.106383)
(1.91849e-06 -9.51646e-06 0.106676)
(8.24524e-05 2.57912e-05 0.108799)
(8.3069e-05 -7.62214e-05 0.108833)
(6.60337e-05 2.01894e-05 0.108876)
(7.88223e-05 -6.99334e-05 0.108823)
(-6.9892e-05 -6.86221e-05 0.108876)
(-7.56024e-05 4.97201e-05 0.108925)
(-8.97122e-05 -0.000104228 0.108887)
(0.000125723 -0.000127085 0.106354)
(-1.27105e-05 4.97604e-06 0.106368)
(-4.67879e-05 -8.17714e-05 0.108881)
(5.7243e-05 -8.34085e-05 0.108831)
(-9.92081e-05 -9.26456e-05 0.108893)
(-1.90077e-05 -2.12085e-05 0.10648)
(0.000108736 0.000109297 0.106352)
(-1.9872e-05 -9.43556e-06 0.10637)
(5.98339e-05 7.62265e-05 0.108888)
(-6.46839e-05 7.07087e-05 0.108929)
(5.54815e-05 7.99756e-05 0.108923)
(-0.000107466 9.39833e-05 0.108899)
(-0.000136599 0.000130209 0.10643)
(-2.57308e-05 3.33978e-05 0.106315)
(7.53888e-05 6.1502e-05 0.108893)
(7.26438e-05 -5.02827e-05 0.108833)
(7.30801e-05 7.06517e-05 0.108923)
(7.05765e-05 -2.47957e-05 0.108874)
(-7.88476e-05 -5.79615e-05 0.108884)
(-8.9319e-05 0.000119869 0.108897)
(-5.68363e-05 2.17846e-05 0.108906)
(0.000115939 -0.00012226 0.106143)
(-3.62233e-05 4.43318e-05 0.106343)
(-5.93371e-05 -7.81874e-05 0.108889)
(3.73706e-05 -6.58364e-05 0.108872)
(6.56582e-06 -5.00262e-05 0.108905)
(7.71662e-05 8.82463e-05 0.106467)
(9.34528e-05 0.000103415 0.106125)
(-1.59588e-05 -1.88407e-05 0.106291)
(2.50513e-05 7.03803e-05 0.108917)
(-0.000103028 9.60569e-05 0.108881)
(5.27583e-05 6.88808e-05 0.108914)
(4.06687e-05 4.11541e-05 0.108887)
(-0.000155287 0.000162569 0.106051)
(0.000119556 -0.000127354 0.106219)
(6.37803e-05 3.95343e-05 0.108914)
(7.17286e-05 -2.93239e-05 0.108892)
(6.93871e-05 4.76184e-05 0.108911)
(5.85199e-05 -2.34609e-05 0.108949)
(-6.3121e-05 -8.11288e-06 0.108937)
(-4.53352e-05 -5.18247e-05 0.108889)
(-8.51725e-05 -0.00011902 0.10897)
(0.000102544 -9.49383e-05 0.10613)
(-5.21659e-05 4.44745e-05 0.106388)
(-2.27542e-05 -5.64414e-05 0.108934)
(1.23519e-05 -6.26661e-05 0.108951)
(-0.000114059 -8.56064e-05 0.108967)
(-4.05892e-05 -4.35064e-05 0.106334)
(0.000130488 0.000125707 0.106064)
(-3.64798e-05 -3.91067e-05 0.106117)
(7.49133e-05 7.16207e-05 0.108921)
(5.33101e-05 3.44681e-05 0.108909)
(4.3069e-05 6.24618e-05 0.108909)
(-8.63085e-05 7.0394e-05 0.109014)
(-1.12001e-05 2.33768e-06 0.106038)
(-4.76065e-05 4.74264e-05 0.10644)
(7.4608e-05 6.46539e-05 0.108921)
(5.65263e-05 -2.4137e-05 0.108964)
(6.51501e-05 3.98668e-05 0.108915)
(6.78802e-05 -6.49712e-05 0.108994)
(-8.27107e-05 -0.000112047 0.108936)
(-7.12089e-05 8.58606e-05 0.109018)
(-6.03802e-05 -2.82987e-05 0.108851)
(8.16076e-05 -9.0215e-05 0.106166)
(-3.49953e-06 3.42837e-06 0.10632)
(-0.000102105 -8.58575e-05 0.108937)
(6.44991e-05 -6.86784e-05 0.108998)
(-2.51418e-05 -6.31052e-05 0.108857)
(5.72891e-05 5.45641e-05 0.105996)
(8.10668e-05 8.04784e-05 0.105889)
(-3.47015e-05 -2.98939e-05 0.1061)
(2.45366e-05 5.92223e-05 0.108906)
(-0.000115882 7.85102e-05 0.109022)
(2.75507e-05 6.21333e-05 0.108934)
(-5.65073e-05 7.07208e-05 0.108911)
(-0.000189666 0.000190816 0.106176)
(4.34252e-05 -3.94921e-05 0.105938)
(5.92434e-05 2.71115e-05 0.10891)
(7.02347e-05 -7.17466e-05 0.108987)
(5.84541e-05 3.32964e-05 0.108932)
(6.53563e-05 -4.93499e-05 0.108931)
(-5.83196e-05 -1.27088e-05 0.108856)
(-6.80714e-05 6.1865e-05 0.108912)
(-5.62236e-05 -5.52289e-06 0.108928)
(0.000127953 -0.00012659 0.106067)
(-2.84772e-05 3.24118e-05 0.106034)
(-1.52299e-05 -5.84021e-05 0.10886)
(5.46892e-05 -6.26333e-05 0.108932)
(-1.1263e-05 -5.25427e-05 0.108926)
(4.57166e-05 5.04359e-05 0.106119)
(9.54958e-05 9.90818e-05 0.10588)
(-3.12591e-05 -3.4122e-05 0.106006)
(3.68481e-05 6.2811e-05 0.108943)
(-3.1655e-05 6.36569e-05 0.10888)
(4.06984e-05 5.62413e-05 0.108936)
(-1.84318e-05 5.27883e-05 0.108879)
(-6.75725e-05 7.10843e-05 0.105704)
(4.01391e-05 -4.12624e-05 0.105941)
(6.04104e-05 3.96244e-05 0.108942)
(6.28402e-05 -4.06704e-05 0.108915)
(5.77005e-05 3.70365e-05 0.108938)
(5.55909e-05 -3.15047e-05 0.1089)
(-5.51404e-05 -1.28227e-05 0.108948)
(-5.29167e-05 1.71836e-05 0.108879)
(-5.77271e-05 -5.61603e-05 0.108962)
(9.07112e-05 -8.7163e-05 0.105801)
(-3.6232e-05 3.50658e-05 0.105946)
(-1.56141e-05 -5.26e-05 0.108947)
(3.01999e-05 -5.5769e-05 0.1089)
(-5.24771e-05 -5.92727e-05 0.108964)
(1.38815e-05 1.09271e-05 0.106066)
(8.9341e-05 8.63789e-05 0.105776)
(-3.03502e-05 -3.05437e-05 0.105883)
(4.02868e-05 5.48898e-05 0.108927)
(-2.53188e-05 5.23156e-05 0.108892)
(3.86633e-05 5.38374e-05 0.108905)
(-3.96399e-05 5.20108e-05 0.108907)
(-8.55567e-05 8.33838e-05 0.105733)
(2.7012e-05 -3.06918e-05 0.105899)
(5.66411e-05 3.65222e-05 0.10893)
(5.45163e-05 -3.38933e-05 0.108899)
(5.41859e-05 3.81874e-05 0.108907)
(5.1573e-05 -3.41518e-05 0.108894)
(-6.03602e-05 -6.71372e-05 0.108949)
(-5.47153e-05 3.45183e-05 0.108911)
(-5.9261e-05 -4.93262e-05 0.10888)
(8.48009e-05 -8.70291e-05 0.105728)
(-3.53103e-05 3.1699e-05 0.105877)
(-6.33269e-05 -6.21625e-05 0.108951)
(2.90713e-05 -5.4167e-05 0.108899)
(-4.88909e-05 -5.96254e-05 0.108882)
(2.97516e-05 2.96281e-05 0.105795)
(8.64106e-05 8.6577e-05 0.105658)
(-3.61301e-05 -3.5471e-05 0.105775)
(3.62987e-05 5.31304e-05 0.108897)
(-4.13933e-05 5.28951e-05 0.1089)
(3.18648e-05 5.1151e-05 0.108869)
(-3.47664e-05 5.25302e-05 0.108864)
(-9.05158e-05 8.7553e-05 0.105671)
(3.45747e-05 -3.19892e-05 0.105758)
(5.29524e-05 3.6836e-05 0.108898)
(5.06369e-05 -3.41298e-05 0.10889)
(5.0443e-05 3.23406e-05 0.108871)
(5.37531e-05 -3.83179e-05 0.108863)
(-5.55805e-05 -3.44982e-05 0.108861)
(-5.10798e-05 3.77634e-05 0.108866)
(-4.68366e-05 -1.62176e-05 0.108842)
(8.27664e-05 -8.56299e-05 0.105656)
(-2.74711e-05 2.98825e-05 0.10576)
(-3.50831e-05 -5.53806e-05 0.108862)
(4.1319e-05 -5.2448e-05 0.108865)
(-1.66834e-05 -4.61628e-05 0.108843)
(4.44909e-05 4.51685e-05 0.10575)
(7.87191e-05 7.91721e-05 0.105557)
(-3.57008e-05 -3.54188e-05 0.105689)
(3.00782e-05 4.98889e-05 0.108861)
(-3.15859e-05 5.09358e-05 0.108851)
(2.96543e-05 4.65861e-05 0.108834)
(-2.9829e-05 4.76041e-05 0.108819)
(-7.84031e-05 8.10411e-05 0.105537)
(3.55097e-05 -3.52872e-05 0.105663)
(4.93857e-05 3.0254e-05 0.108862)
(5.23623e-05 -3.42805e-05 0.108852)
(4.64078e-05 3.02086e-05 0.108835)
(4.61752e-05 -2.51361e-05 0.108819)
(-4.69108e-05 -2.08667e-05 0.108844)
(-4.72258e-05 3.00361e-05 0.108821)
(-4.81452e-05 -3.4804e-05 0.108836)
(8.54136e-05 -8.29501e-05 0.105538)
(-4.09493e-05 4.1288e-05 0.105668)
(-2.10252e-05 -4.64944e-05 0.108845)
(2.53457e-05 -4.56903e-05 0.108821)
(-3.53406e-05 -4.78963e-05 0.108837)
(2.95309e-05 2.98926e-05 0.105692)
(7.77912e-05 7.8071e-05 0.105472)
(-3.39368e-05 -3.44501e-05 0.105572)
(3.18668e-05 4.63826e-05 0.108823)
(-2.83763e-05 4.64473e-05 0.10881)
(3.29349e-05 4.507e-05 0.108783)
(-2.33132e-05 4.25649e-05 0.108784)
(-7.63711e-05 7.62556e-05 0.105449)
(4.01923e-05 -3.96632e-05 0.10559)
(4.60781e-05 3.249e-05 0.108824)
(4.5274e-05 -2.49169e-05 0.108811)
(4.52315e-05 3.22333e-05 0.108784)
(4.29668e-05 -2.70138e-05 0.10879)
(-4.76108e-05 -3.43844e-05 0.108824)
(-4.22403e-05 2.40369e-05 0.108787)
(-4.32772e-05 -2.75192e-05 0.108782)
(7.21362e-05 -7.21133e-05 0.105456)
(-3.6332e-05 3.6873e-05 0.105598)
(-3.50028e-05 -4.72775e-05 0.108825)
(2.77378e-05 -4.26341e-05 0.108793)
(-2.68127e-05 -4.34566e-05 0.108783)
(3.86978e-05 3.81668e-05 0.105574)
(7.395e-05 7.31746e-05 0.105358)
(-3.9717e-05 -4.05977e-05 0.105481)
(3.01838e-05 4.36397e-05 0.108767)
(-2.45558e-05 4.21391e-05 0.108775)
(2.33748e-05 3.93179e-05 0.108728)
(-2.70966e-05 4.05063e-05 0.108741)
(-7.02027e-05 7.07428e-05 0.105379)
(3.64959e-05 -3.66365e-05 0.105501)
(4.40678e-05 2.89596e-05 0.108769)
(4.32182e-05 -2.97562e-05 0.108778)
(3.98743e-05 2.20264e-05 0.10873)
(4.13571e-05 -2.97036e-05 0.108734)
(-4.20293e-05 -2.67791e-05 0.108769)
(-4.04588e-05 2.68177e-05 0.108744)
(-4.03012e-05 -2.6149e-05 0.108733)
(7.41137e-05 -7.35571e-05 0.105385)
(-3.53917e-05 3.52682e-05 0.10548)
(-2.55523e-05 -4.24624e-05 0.108771)
(2.94377e-05 -4.13138e-05 0.108736)
(-2.47991e-05 -4.08367e-05 0.108735)
(3.77481e-05 3.68853e-05 0.105488)
(6.74128e-05 6.663e-05 0.105276)
(-3.85619e-05 -3.80289e-05 0.105403)
(2.36459e-05 3.88381e-05 0.108717)
(-2.62235e-05 3.94638e-05 0.108727)
(2.27955e-05 3.72211e-05 0.108682)
(-2.52842e-05 3.76295e-05 0.108683)
(-7.00637e-05 6.97615e-05 0.105291)
(3.77033e-05 -3.77128e-05 0.105402)
(3.92297e-05 2.25524e-05 0.108719)
(4.0319e-05 -2.82334e-05 0.108717)
(3.69811e-05 2.33705e-05 0.108684)
(3.74336e-05 -2.12362e-05 0.108672)
(-3.92102e-05 -2.42602e-05 0.108722)
(-3.75364e-05 2.50758e-05 0.108686)
(-3.7081e-05 -2.3452e-05 0.108683)
(6.98668e-05 -7.01406e-05 0.105271)
(-4.02596e-05 4.02145e-05 0.105387)
(-2.31691e-05 -3.96058e-05 0.108724)
(2.10582e-05 -3.74192e-05 0.108674)
(-2.40026e-05 -3.68419e-05 0.108685)
(3.77578e-05 3.83179e-05 0.105404)
(6.53804e-05 6.60483e-05 0.105199)
(-3.92317e-05 -3.84249e-05 0.105315)
(2.23236e-05 3.65857e-05 0.108668)
(-2.45596e-05 3.7023e-05 0.108668)
(2.15555e-05 3.48163e-05 0.108625)
(-2.02216e-05 3.38741e-05 0.108625)
(-6.66826e-05 6.66166e-05 0.105198)
(4.05848e-05 -4.0602e-05 0.105315)
(3.60813e-05 2.34419e-05 0.10867)
(3.56217e-05 -1.86115e-05 0.10866)
(3.40737e-05 2.23767e-05 0.108627)
(3.43819e-05 -2.15808e-05 0.108625)
(-3.69773e-05 -2.39965e-05 0.10867)
(-3.38812e-05 2.02136e-05 0.108627)
(-3.47139e-05 -2.02667e-05 0.108626)
(6.31965e-05 -6.32957e-05 0.105187)
(-3.85408e-05 3.85505e-05 0.105322)
(-2.50918e-05 -3.64627e-05 0.108671)
(2.15582e-05 -3.44087e-05 0.108628)
(-2.10831e-05 -3.40207e-05 0.108628)
(4.02712e-05 4.10539e-05 0.105316)
(6.24196e-05 6.30503e-05 0.105116)
(-4.04025e-05 -4.02099e-05 0.105237)
(2.01145e-05 3.37907e-05 0.108611)
(-2.02097e-05 3.31646e-05 0.10861)
(1.86526e-05 3.09732e-05 0.108568)
(-2.00243e-05 3.16148e-05 0.108567)
(-6.16488e-05 6.16179e-05 0.105117)
(3.95452e-05 -3.93997e-05 0.105234)
(3.32681e-05 2.08028e-05 0.108613)
(3.40337e-05 -2.06688e-05 0.108613)
(3.0768e-05 1.91883e-05 0.108569)
(2.92547e-05 -1.62766e-05 0.108574)
(-3.33133e-05 -1.86091e-05 0.108612)
(-3.14151e-05 2.01301e-05 0.108569)
(-3.08905e-05 -1.89191e-05 0.108571)
(6.41856e-05 -6.41795e-05 0.105124)
(-4.28252e-05 4.30049e-05 0.105251)
(-1.92793e-05 -3.28093e-05 0.108613)
(1.64114e-05 -2.9038e-05 0.108577)
(-1.94557e-05 -3.06293e-05 0.108572)
(3.95989e-05 3.98302e-05 0.105242)
(6.00192e-05 6.00355e-05 0.105043)
(-4.13259e-05 -4.24491e-05 0.105162)
(1.90141e-05 3.02853e-05 0.108554)
(-1.83777e-05 3.04556e-05 0.108552)
(1.69241e-05 2.74693e-05 0.108511)
(-1.63828e-05 2.76274e-05 0.108509)
(-5.98664e-05 5.98541e-05 0.10504)
(4.147e-05 -4.17484e-05 0.105162)
(3.01492e-05 1.88572e-05 0.108555)
(2.96776e-05 -2.09605e-05 0.108559)
(2.80867e-05 1.52654e-05 0.108514)
(2.98564e-05 -2.11682e-05 0.10851)
(-3.0288e-05 -1.94698e-05 0.108557)
(-2.77583e-05 1.59392e-05 0.108512)
(-2.78327e-05 -1.81953e-05 0.108512)
(5.93439e-05 -5.93063e-05 0.105055)
(-3.91444e-05 3.88935e-05 0.105151)
(-1.93093e-05 -3.01329e-05 0.108558)
(2.07332e-05 -2.99855e-05 0.108513)
(-1.65329e-05 -2.8453e-05 0.108514)
(4.17589e-05 4.06384e-05 0.105161)
(5.65344e-05 5.54852e-05 0.104972)
(-4.10889e-05 -4.0491e-05 0.105089)
(1.64317e-05 2.6692e-05 0.108497)
(-1.64852e-05 2.69765e-05 0.108496)
(1.5859e-05 2.58051e-05 0.108453)
(-1.5896e-05 2.54462e-05 0.108453)
(-5.69558e-05 5.6615e-05 0.104972)
(4.14138e-05 -4.14129e-05 0.10509)
(2.7332e-05 1.52372e-05 0.108499)
(2.80788e-05 -1.60858e-05 0.108492)
(2.54433e-05 1.65242e-05 0.108455)
(2.42281e-05 -1.28138e-05 0.108448)
(-2.72029e-05 -1.74322e-05 0.108497)
(-2.54227e-05 1.58131e-05 0.108456)
(-2.53511e-05 -1.50663e-05 0.108452)
(5.61598e-05 -5.64503e-05 0.10496)
(-4.2666e-05 4.26501e-05 0.105089)
(-1.62432e-05 -2.78217e-05 0.108499)
(1.2715e-05 -2.42074e-05 0.108451)
(-1.57165e-05 -2.4973e-05 0.108454)
(4.12021e-05 4.18007e-05 0.105087)
(5.45111e-05 5.51333e-05 0.104903)
(-4.13777e-05 -4.14258e-05 0.10502)
(1.42551e-05 2.48001e-05 0.108438)
(-1.54529e-05 2.48913e-05 0.108438)
(1.45953e-05 2.24957e-05 0.108394)
(-1.27877e-05 2.21117e-05 0.108394)
(-5.45272e-05 5.44746e-05 0.104903)
(4.27362e-05 -4.27777e-05 0.105021)
(2.42581e-05 1.49277e-05 0.10844)
(2.40154e-05 -1.47559e-05 0.108436)
(2.24025e-05 1.44764e-05 0.108396)
(2.29215e-05 -1.43341e-05 0.108394)
(-2.47624e-05 -1.47926e-05 0.108437)
(-2.21326e-05 1.27155e-05 0.108397)
(-2.26283e-05 -1.39916e-05 0.108393)
(5.49065e-05 -5.49762e-05 0.104905)
(-4.2154e-05 4.21507e-05 0.10502)
(-1.54419e-05 -2.42317e-05 0.108439)
(1.42717e-05 -2.29177e-05 0.108397)
(-1.38662e-05 -2.2501e-05 0.108395)
(4.17576e-05 4.17291e-05 0.105017)
(5.34537e-05 5.33329e-05 0.104838)
(-4.49521e-05 -4.46094e-05 0.104954)
(1.53336e-05 2.2433e-05 0.108379)
(-1.29431e-05 2.15255e-05 0.10838)
(9.49064e-06 1.96865e-05 0.108336)
(-1.30111e-05 2.04823e-05 0.108336)
(-5.16477e-05 5.15757e-05 0.104839)
(4.18977e-05 -4.17748e-05 0.104954)
(2.24586e-05 1.52504e-05 0.108381)
(2.19823e-05 -1.23563e-05 0.10838)
(1.94092e-05 9.99532e-06 0.108338)
(1.92594e-05 -1.08465e-05 0.108338)
(-2.19727e-05 -1.33952e-05 0.108378)
(-2.02961e-05 1.29657e-05 0.108339)
(-1.98875e-05 -1.10554e-05 0.108335)
(5.15122e-05 -5.15169e-05 0.104838)
(-4.32045e-05 4.3312e-05 0.10496)
(-1.33135e-05 -2.19573e-05 0.10838)
(1.08227e-05 -1.91053e-05 0.108341)
(-1.15612e-05 -1.96057e-05 0.108337)
(4.28661e-05 4.32121e-05 0.104953)
(4.72308e-05 4.74879e-05 0.104777)
(-4.05914e-05 -4.12331e-05 0.104895)
(9.01023e-06 1.86309e-05 0.108322)
(-1.17702e-05 1.96953e-05 0.108321)
(1.2636e-05 1.72805e-05 0.108281)
(-9.85543e-06 1.68441e-05 0.108279)
(-5.01548e-05 5.01608e-05 0.104776)
(4.32415e-05 -4.30841e-05 0.104894)
(1.83094e-05 9.23759e-06 0.108324)
(1.87217e-05 -1.23457e-05 0.108324)
(1.75941e-05 1.17094e-05 0.108283)
(1.83004e-05 -1.2806e-05 0.108279)
(-1.91326e-05 -1.06772e-05 0.108322)
(-1.67469e-05 1.00421e-05 0.108282)
(-1.70376e-05 -1.09351e-05 0.10828)
(5.02393e-05 -5.02257e-05 0.104783)
(-4.1642e-05 4.17851e-05 0.104889)
(-1.09089e-05 -1.87961e-05 0.108323)
(1.29866e-05 -1.82477e-05 0.108282)
(-9.98912e-06 -1.73428e-05 0.108282)
(4.3134e-05 4.24959e-05 0.104894)
(5.00427e-05 4.93725e-05 0.10472)
(1.21084e-05 1.69108e-05 0.108267)
(-1.03575e-05 1.66359e-05 0.108266)
(-4.81085e-05 4.83007e-05 0.10472)
(1.73188e-05 1.12974e-05 0.108269)
(1.75931e-05 -1.0828e-05 0.108263)
(-1.64421e-05 -1.06741e-05 0.108267)
(4.85004e-05 -4.83433e-05 0.104715)
(-9.84117e-06 -1.68498e-05 0.108269)
(5.82272e-05 6.10025e-05 0.108867)
(-7.18261e-05 7.52253e-05 0.108864)
(6.46795e-05 -6.12881e-05 0.108855)
(-5.36588e-05 -5.19382e-05 0.108859)
(3.15025e-06 2.26781e-05 0.0940208)
(8.19614e-06 1.64821e-05 0.0835909)
(-3.73615e-06 4.53964e-05 0.0940795)
(4.84294e-06 -2.12778e-06 0.0835689)
(6.13303e-06 8.70816e-06 0.0721804)
(8.90174e-07 -3.11633e-06 0.0721649)
(2.23376e-05 -3.20139e-06 0.0940241)
(2.14477e-05 1.18459e-06 0.0835876)
(4.4037e-05 -5.86155e-06 0.094078)
(1.00904e-06 1.4174e-08 0.083565)
(-6.7487e-05 6.90971e-05 0.10894)
(6.86955e-05 -6.92331e-05 0.108934)
(-5.37389e-05 -5.69879e-05 0.108932)
(6.03353e-05 5.3152e-05 0.10916)
(-5.04072e-05 4.64431e-05 0.109158)
(5.71427e-05 -6.18858e-05 0.109155)
(-6.56572e-05 -7.12074e-05 0.109164)
(-6.31151e-05 -3.09575e-06 0.10248)
(-7.03457e-05 1.71612e-05 0.0957322)
(-9.71652e-05 2.79681e-05 0.108631)
(-9.26613e-05 5.71213e-05 0.107988)
(-0.000102586 5.02897e-06 0.10245)
(-5.00516e-05 1.91177e-06 0.0957196)
(-9.62675e-05 1.51637e-05 0.108695)
(1.46607e-05 1.92465e-05 0.0721886)
(-2.96983e-06 1.50016e-05 0.072207)
(5.08029e-06 -6.04245e-05 0.102477)
(2.79538e-05 -0.000102967 0.108625)
(2.28732e-05 -4.50036e-05 0.0957653)
(7.49377e-05 -0.000100903 0.108008)
(5.11182e-07 -0.000106283 0.102464)
(2.51612e-05 -0.000103222 0.108694)
(-1.00882e-05 -4.02723e-05 0.0957336)
(-1.19527e-05 -3.17895e-05 0.089448)
(-2.82476e-05 -1.28123e-05 0.0894482)
(1.09256e-05 3.76724e-06 0.106778)
(-3.43846e-06 -9.84667e-06 0.08941)
(-6.03614e-06 -4.89845e-06 0.089404)
(1.16621e-05 1.6629e-05 0.0937157)
(1.39575e-06 1.7008e-05 0.0833673)
(9.7818e-06 3.96543e-05 0.0937705)
(-3.75909e-06 -3.93149e-06 0.0833391)
(-5.24303e-06 -1.92258e-06 0.0720094)
(-1.30205e-05 -1.2773e-05 0.0720264)
(1.68922e-05 3.3924e-06 0.0937198)
(1.53797e-05 1.6666e-06 0.0833724)
(4.03299e-05 1.60576e-06 0.093767)
(-3.85503e-06 -3.56256e-06 0.0833452)
(-4.77232e-05 4.48916e-05 0.109231)
(5.71699e-05 -6.0315e-05 0.109224)
(-6.31591e-05 -6.93103e-05 0.109236)
(5.83985e-05 5.36548e-05 0.109446)
(-4.37474e-05 4.59622e-05 0.109446)
(6.34858e-05 -6.13633e-05 0.109448)
(-5.16667e-05 -5.85249e-05 0.10945)
(-5.96837e-05 4.17351e-07 0.102198)
(-7.24669e-05 1.48428e-05 0.0954296)
(-9.84954e-05 5.29666e-07 0.108889)
(-8.64925e-05 2.3266e-05 0.108189)
(-0.000100497 -3.21586e-06 0.102207)
(-3.71261e-05 1.07339e-05 0.0954128)
(-9.87673e-05 2.15993e-07 0.10895)
(5.90209e-06 -2.09117e-05 0.0720486)
(1.04952e-05 2.34434e-05 0.0720221)
(2.27167e-06 -5.7396e-05 0.1022)
(1.55397e-05 -0.00010321 0.108882)
(2.67246e-05 -5.23051e-05 0.0954441)
(6.64411e-05 -0.000102077 0.108158)
(6.67863e-06 -9.93972e-05 0.102194)
(1.94575e-05 -0.000104181 0.108944)
(1.83026e-05 -1.27657e-05 0.0954645)
(-3.97672e-05 1.30912e-06 0.089146)
(6.26737e-06 -4.33934e-05 0.0891459)
(1.57995e-05 1.13786e-05 0.106742)
(-1.24206e-05 -8.965e-06 0.0891482)
(-6.41125e-06 -1.35467e-05 0.0891508)
(-1.20548e-06 1.40786e-05 0.093457)
(2.42894e-05 1.30176e-05 0.0831711)
(3.75113e-06 3.81437e-05 0.0934764)
(-2.24008e-05 8.45678e-06 0.0831955)
(-8.32763e-06 6.05571e-06 0.0718998)
(5.35859e-06 7.11279e-06 0.0719002)
(1.38178e-05 8.64466e-06 0.0934492)
(1.24453e-05 2.43967e-05 0.083171)
(3.71853e-05 1.05023e-05 0.0934811)
(9.17405e-06 -2.38061e-05 0.0831926)
(-4.72043e-05 5.31417e-05 0.109515)
(5.88098e-05 -5.28114e-05 0.109518)
(-4.87218e-05 -5.19318e-05 0.109521)
(6.96168e-05 7.50329e-05 0.10974)
(-6.82631e-05 7.25874e-05 0.109732)
(4.6288e-05 -4.192e-05 0.109717)
(-4.84367e-05 -4.25609e-05 0.109719)
(-4.63504e-05 7.04595e-06 0.101923)
(-3.96803e-05 2.86902e-05 0.0951554)
(-9.47578e-05 1.66545e-05 0.109123)
(-9.09921e-05 7.07722e-05 0.10837)
(-8.81457e-05 5.62536e-06 0.101909)
(-3.89866e-06 -4.18068e-07 0.0951668)
(-9.57363e-05 2.84068e-05 0.109178)
(-3.56437e-06 -7.64156e-07 0.0718913)
(-2.21816e-05 -3.33599e-05 0.0719177)
(1.56338e-06 -5.15488e-05 0.101918)
(1.94166e-05 -9.60187e-05 0.109132)
(3.01654e-06 -7.51213e-05 0.0951468)
(3.23481e-05 -7.97304e-05 0.108327)
(4.16224e-06 -9.01427e-05 0.101921)
(1.37376e-05 -9.40008e-05 0.109185)
(8.72478e-06 -4.16445e-05 0.0951384)
(-4.93573e-05 -5.7395e-06 0.0888883)
(-8.11135e-06 -4.7424e-05 0.0888868)
(3.67937e-05 3.63282e-05 0.106812)
(-1.15586e-05 -4.12962e-06 0.0888779)
(-5.31737e-06 -1.05649e-05 0.0888704)
(-1.00442e-05 1.20223e-05 0.093197)
(-3.23829e-05 2.43924e-05 0.0829606)
(-1.25407e-05 3.21749e-05 0.0932522)
(1.62018e-05 -7.14125e-06 0.082939)
(2.48332e-05 1.75779e-05 0.071732)
(1.24562e-05 -6.44513e-06 0.0717411)
(1.32506e-05 -2.87609e-05 0.0931978)
(2.79499e-05 -3.83558e-05 0.0829629)
(3.40067e-05 -2.26334e-05 0.0932407)
(-4.25041e-06 1.16898e-05 0.0829451)
(-6.87717e-05 6.75008e-05 0.109807)
(5.06629e-05 -5.1957e-05 0.109785)
(-5.42926e-05 -5.08529e-05 0.10979)
(3.05669e-05 1.94907e-05 0.109996)
(-4.82388e-05 3.53982e-05 0.110002)
(7.44085e-05 -8.74715e-05 0.109993)
(-5.92883e-05 -6.96998e-05 0.110003)
(-4.12476e-05 -4.38651e-06 0.101664)
(-4.55501e-05 -5.69198e-07 0.0949174)
(-9.87702e-05 2.9448e-05 0.109359)
(-9.1658e-05 5.61322e-05 0.108489)
(-8.12048e-05 7.15787e-06 0.101655)