/*--------------------------------*- C++ -*----------------------------------*\
| =========                 |                                                 |
| \\      /  F ield         | OpenFOAM: The Open Source CFD Toolbox           |
|  \\    /   O peration     | Version:  v2012                                 |
|   \\  /    A nd           | Website:  www.openfoam.com                      |
|    \\/     M anipulation  |                                                 |
\*---------------------------------------------------------------------------*/
FoamFile
{
    version     2.0;
    format      ascii;
    class       volScalarField;
    location    "1625";
    object      epsilon;
}
// * * * * * * * * * * * * * * * * * * * * * * * * * * * * * * * * * * * * * //

dimensions      [0 2 -3 0 0 0 0];


internalField   nonuniform List<scalar> 
171728
(
1.4247e-09
3.38594e-09
4.79299e-09
5.19016e-09
1.39155e-09
3.12644e-09
4.38041e-09
4.86082e-09
1.3261e-09
2.86337e-09
3.97506e-09
4.66213e-09
1.26533e-09
2.62642e-09
3.62504e-09
4.30709e-09
1.20757e-09
2.42019e-09
3.32233e-09
3.75857e-09
1.15277e-09
2.25014e-09
3.06451e-09
3.40618e-09
1.10017e-09
2.11425e-09
2.85433e-09
3.05065e-09
1.0507e-09
2.011e-09
2.69028e-09
2.78428e-09
1.00258e-09
1.94013e-09
2.56908e-09
2.59588e-09
9.53062e-10
1.90109e-09
2.48391e-09
2.42594e-09
9.05353e-10
1.89583e-09
2.43698e-09
2.30825e-09
8.54155e-10
1.92499e-09
2.43208e-09
2.2353e-09
8.0283e-10
1.99781e-09
2.47346e-09
2.21282e-09
7.5924e-10
2.1239e-09
2.57514e-09
2.2502e-09
7.22558e-10
2.32567e-09
2.76196e-09
2.37069e-09
6.89257e-10
2.63986e-09
3.06593e-09
2.60568e-09
6.58158e-10
3.13224e-09
3.53964e-09
3.02197e-09
6.33143e-10
3.85775e-09
4.30679e-09
3.73287e-09
6.16892e-10
4.981e-09
5.4719e-09
5.10402e-09
6.08655e-10
6.65185e-09
7.06742e-09
7.45634e-09
6.08566e-10
8.98857e-09
9.50418e-09
1.06771e-08
6.19066e-10
1.24855e-08
1.31558e-08
1.77006e-08
6.435e-10
1.77092e-08
1.75822e-08
2.87964e-08
6.89123e-10
2.38799e-08
2.51534e-08
4.87145e-08
7.64131e-10
3.26599e-08
3.33522e-08
6.92418e-08
8.81562e-10
4.4741e-08
4.46855e-08
1.139e-07
1.06033e-09
5.81865e-08
5.86448e-08
1.55195e-07
1.31486e-09
7.49105e-08
7.64594e-08
2.19211e-07
1.67939e-09
9.52302e-08
9.47561e-08
2.9099e-07
2.1986e-09
1.17446e-07
1.194e-07
3.6345e-07
2.88383e-09
1.43329e-07
1.44151e-07
4.4613e-07
3.86557e-09
1.74381e-07
1.73559e-07
5.17981e-07
5.1451e-09
2.04649e-07
2.05852e-07
5.86572e-07
6.87183e-09
2.42162e-07
2.4354e-07
6.54517e-07
8.95731e-09
2.77779e-07
2.76105e-07
7.01743e-07
1.21939e-08
3.20236e-07
3.242e-07
7.65625e-07
1.54281e-08
3.672e-07
3.62664e-07
8.02049e-07
2.03801e-08
4.03686e-07
4.10933e-07
8.38921e-07
2.57456e-08
4.57134e-07
4.53357e-07
8.77886e-07
3.26949e-08
5.01118e-07
5.06963e-07
9.19201e-07
4.09503e-08
5.59276e-07
5.50749e-07
9.42695e-07
5.14789e-08
5.90553e-07
6.00979e-07
9.74912e-07
6.11417e-08
6.56997e-07
6.49726e-07
1.00735e-06
7.69462e-08
6.94029e-07
6.95904e-07
1.03912e-06
9.13375e-08
7.38365e-07
7.44518e-07
1.05633e-06
1.06377e-07
7.86778e-07
7.81048e-07
1.09421e-06
1.31117e-07
8.23288e-07
8.32813e-07
1.11958e-06
1.49445e-07
8.72142e-07
8.6164e-07
1.14439e-06
1.70805e-07
8.96498e-07
9.09481e-07
1.167e-06
2.00033e-07
9.46143e-07
9.40047e-07
1.19429e-06
2.28349e-07
9.71433e-07
9.64624e-07
1.21658e-06
2.5255e-07
9.89721e-07
9.99109e-07
1.2352e-06
2.83128e-07
1.03423e-06
1.03367e-06
1.26265e-06
3.22299e-07
1.05498e-06
1.04884e-06
1.27807e-06
3.45936e-07
1.07508e-06
1.07588e-06
1.30126e-06
3.83384e-07
1.09015e-06
1.09719e-06
1.31507e-06
4.05799e-07
1.12268e-06
1.11828e-06
1.32847e-06
4.46332e-07
1.14386e-06
1.14015e-06
1.356e-06
4.76514e-07
1.15472e-06
1.15623e-06
1.35764e-06
5.02453e-07
1.17351e-06
1.17354e-06
1.37281e-06
5.2651e-07
1.18899e-06
1.19029e-06
1.41756e-06
5.50548e-07
1.20471e-06
1.20533e-06
1.38002e-06
5.79096e-07
1.21019e-06
1.21043e-06
1.38916e-06
5.97327e-07
1.23371e-06
1.23179e-06
1.46433e-06
6.25282e-07
1.25069e-06
1.25174e-06
1.47243e-06
6.43566e-07
1.25561e-06
1.25746e-06
1.44009e-06
6.55923e-07
1.25694e-06
1.25582e-06
1.41271e-06
6.71292e-07
1.26302e-06
1.26348e-06
1.44584e-06
6.92385e-07
1.28675e-06
1.28622e-06
1.50838e-06
7.1109e-07
1.30103e-06
1.30263e-06
1.52646e-06
7.27811e-07
1.29754e-06
1.29871e-06
1.48891e-06
7.35606e-07
1.29161e-06
1.29034e-06
1.45758e-06
7.39702e-07
1.29606e-06
1.29413e-06
1.48717e-06
7.54046e-07
1.31754e-06
1.31138e-06
1.5227e-06
7.75704e-07
1.32284e-06
1.32335e-06
1.52409e-06
7.79785e-07
1.31253e-06
1.32102e-06
1.52333e-06
7.79462e-07
1.30998e-06
1.31278e-06
1.51818e-06
7.90593e-07
1.32237e-06
1.31517e-06
1.50581e-06
8.04865e-07
1.32366e-06
1.31912e-06
1.5179e-06
8.06107e-07
1.32012e-06
1.32142e-06
1.54247e-06
8.05283e-07
1.32271e-06
1.32793e-06
1.53822e-06
8.09622e-07
1.31902e-06
1.32042e-06
1.51027e-06
8.1137e-07
1.31751e-06
1.31367e-06
1.51636e-06
8.11693e-07
1.32062e-06
1.31943e-06
1.54146e-06
8.12397e-07
1.3143e-06
1.31804e-06
1.53934e-06
8.1177e-07
1.30469e-06
1.30605e-06
1.51806e-06
8.15406e-07
1.31143e-06
1.31162e-06
1.51716e-06
8.11473e-07
1.31128e-06
1.31376e-06
1.5292e-06
7.963e-07
1.28671e-06
1.27742e-06
1.49981e-06
8.00217e-07
1.30085e-06
1.28885e-06
1.51063e-06
8.11351e-07
1.30798e-06
1.32023e-06
1.54832e-06
7.92914e-07
1.2621e-06
1.27789e-06
1.5029e-06
7.73561e-07
1.24854e-06
1.23566e-06
1.45536e-06
7.81579e-07
1.28325e-06
1.25823e-06
1.48944e-06
7.84086e-07
1.23927e-06
1.24732e-06
1.50077e-06
5.21944e-09
4.52628e-09
3.82985e-09
4.94129e-09
3.70287e-09
4.0583e-09
1.39785e-09
1.25617e-09
1.5189e-09
1.62533e-09
3.64752e-09
3.69209e-09
5.15575e-09
4.26397e-09
5.74646e-09
5.22608e-09
5.19895e-09
4.69346e-09
4.75713e-09
3.33672e-09
4.49938e-09
3.17481e-09
4.9186e-09
4.4359e-09
3.36004e-09
4.96231e-09
3.17178e-09
4.71402e-09
3.36612e-09
3.19695e-09
3.17887e-09
5.12717e-09
4.67194e-09
1.1633e-08
4.4917e-09
1.13769e-08
4.91607e-09
4.66269e-09
4.2031e-09
4.40898e-09
3.10845e-09
4.15895e-09
2.92512e-09
4.40948e-09
3.97869e-09
3.10157e-09
4.62106e-09
2.90632e-09
4.36374e-09
3.1106e-09
2.92667e-09
2.9192e-09
4.63606e-09
4.23272e-09
1.12998e-08
4.07089e-09
1.1139e-08
4.71656e-09
4.1773e-09
3.79976e-09
4.08146e-09
2.86898e-09
3.86718e-09
2.71217e-09
3.95654e-09
3.59167e-09
2.84575e-09
4.28462e-09
2.67725e-09
4.06396e-09
2.86013e-09
2.68309e-09
2.6921e-09
4.20206e-09
3.85865e-09
1.10111e-08
3.70819e-09
1.00405e-08
4.42523e-09
3.77901e-09
3.47395e-09
3.80234e-09
2.66497e-09
3.62249e-09
2.53249e-09
3.5749e-09
3.27128e-09
2.62458e-09
3.99623e-09
2.47898e-09
3.80939e-09
2.63888e-09
2.4682e-09
2.49031e-09
3.83255e-09
3.54072e-09
9.53467e-09
3.39399e-09
7.8006e-09
3.79525e-09
3.45775e-09
3.20388e-09
3.56724e-09
2.48973e-09
3.41958e-09
2.36866e-09
3.25781e-09
2.99452e-09
2.4339e-09
3.75273e-09
2.30933e-09
3.59877e-09
2.445e-09
2.28929e-09
2.32018e-09
3.51875e-09
3.27047e-09
7.22259e-09
3.12509e-09
5.87234e-09
3.4316e-09
3.19086e-09
2.97768e-09
3.37757e-09
2.33211e-09
3.27055e-09
2.23734e-09
2.98423e-09
2.75336e-09
2.27131e-09
3.55303e-09
2.1681e-09
3.43063e-09
2.28221e-09
2.14452e-09
2.17731e-09
3.25249e-09
3.04382e-09
5.53777e-09
2.90225e-09
4.69633e-09
3.07369e-09
2.96852e-09
2.79074e-09
3.24066e-09
2.21071e-09
3.17302e-09
2.14223e-09
2.74647e-09
2.55467e-09
2.13796e-09
3.39547e-09
2.05929e-09
3.30696e-09
2.14671e-09
2.03328e-09
2.06651e-09
3.0298e-09
2.85726e-09
4.44789e-09
2.72671e-09
3.77367e-09
2.79481e-09
2.78521e-09
2.64348e-09
3.15803e-09
2.12282e-09
3.13537e-09
2.07729e-09
2.55102e-09
2.39632e-09
2.038e-09
3.28267e-09
1.98441e-09
3.22989e-09
2.0442e-09
1.95452e-09
1.98874e-09
2.84744e-09
2.70871e-09
3.58498e-09
2.59547e-09
3.12753e-09
2.6021e-09
2.64175e-09
2.53172e-09
3.1317e-09
2.06518e-09
3.13706e-09
2.0431e-09
2.39643e-09
2.27912e-09
1.97022e-09
3.21695e-09
1.94104e-09
3.19609e-09
1.97317e-09
1.9078e-09
1.94247e-09
2.70306e-09
2.59643e-09
3.00505e-09
2.5013e-09
2.70967e-09
2.42842e-09
2.5333e-09
2.4558e-09
3.14431e-09
2.03953e-09
3.18373e-09
2.04262e-09
2.28191e-09
2.19506e-09
1.93545e-09
3.19426e-09
1.93069e-09
3.20134e-09
1.93534e-09
1.89406e-09
1.92782e-09
2.59534e-09
2.51965e-09
2.62762e-09
2.44497e-09
2.43221e-09
2.3051e-09
2.46079e-09
2.40177e-09
3.197e-09
2.04761e-09
3.22412e-09
2.07431e-09
2.20095e-09
2.14675e-09
1.9328e-09
3.20877e-09
1.95383e-09
3.24793e-09
1.92901e-09
1.91623e-09
1.94393e-09
2.52224e-09
2.47587e-09
2.38525e-09
2.42948e-09
2.29686e-09
2.22727e-09
2.41037e-09
2.36446e-09
3.22607e-09
2.08915e-09
3.21028e-09
2.14726e-09
2.15895e-09
2.13804e-09
1.96377e-09
3.26594e-09
2.0123e-09
3.33839e-09
1.95344e-09
1.97949e-09
1.99913e-09
2.48505e-09
2.47063e-09
2.28767e-09
2.45867e-09
2.293e-09
2.19412e-09
2.38202e-09
2.39329e-09
3.20391e-09
2.17354e-09
3.21401e-09
2.27336e-09
2.15873e-09
2.17713e-09
2.03395e-09
3.36902e-09
2.12351e-09
3.46946e-09
2.02216e-09
2.09197e-09
2.11152e-09
2.48921e-09
2.51403e-09
2.30695e-09
2.5438e-09
2.41682e-09
2.21856e-09
2.42667e-09
2.50079e-09
3.23126e-09
2.31548e-09
3.33345e-09
2.47045e-09
2.21068e-09
2.2803e-09
2.16117e-09
3.50849e-09
2.3071e-09
3.65305e-09
2.14781e-09
2.27368e-09
2.28552e-09
2.54556e-09
2.62372e-09
2.45313e-09
2.70677e-09
2.5485e-09
2.31745e-09
2.55641e-09
2.6991e-09
3.37428e-09
2.53204e-09
3.55834e-09
2.77119e-09
2.33473e-09
2.48568e-09
2.36754e-09
3.7152e-09
2.59421e-09
3.96218e-09
2.34131e-09
2.5587e-09
2.56618e-09
2.67858e-09
2.83659e-09
2.58551e-09
2.97333e-09
2.77019e-09
2.51661e-09
2.78591e-09
3.04218e-09
3.6227e-09
2.86343e-09
3.92609e-09
3.22639e-09
2.57613e-09
2.86058e-09
2.6832e-09
4.06215e-09
3.02684e-09
4.46588e-09
2.65594e-09
3.00066e-09
2.99868e-09
2.92917e-09
3.21643e-09
2.861e-09
3.40663e-09
3.20125e-09
2.87947e-09
3.17394e-09
3.59586e-09
4.01901e-09
3.36804e-09
4.36088e-09
3.89465e-09
3.00827e-09
3.47915e-09
3.16037e-09
4.62732e-09
3.69053e-09
5.25733e-09
3.13328e-09
3.64342e-09
3.65717e-09
3.35875e-09
3.92091e-09
3.33374e-09
4.08863e-09
3.85887e-09
3.50882e-09
3.86055e-09
4.55917e-09
4.54896e-09
4.11422e-09
5.06451e-09
4.9448e-09
3.74071e-09
4.64904e-09
3.912e-09
5.4997e-09
4.65179e-09
6.38504e-09
3.85367e-09
4.67877e-09
4.70628e-09
4.19632e-09
5.03042e-09
4.05171e-09
5.11225e-09
4.90351e-09
4.69925e-09
4.93275e-09
6.58928e-09
5.29246e-09
5.25662e-09
6.38725e-09
6.4497e-09
5.0572e-09
6.49693e-09
4.96712e-09
6.78403e-09
6.19028e-09
7.88914e-09
4.99883e-09
6.12878e-09
6.16005e-09
5.52847e-09
6.80211e-09
5.19673e-09
6.5012e-09
6.34053e-09
6.4671e-09
7.32408e-09
9.85255e-09
6.85609e-09
6.97484e-09
8.4551e-09
8.71173e-09
7.23988e-09
1.00805e-08
6.66941e-09
8.43441e-09
8.38359e-09
1.03113e-08
6.79106e-09
8.37237e-09
8.30917e-09
7.49084e-09
1.08302e-08
6.98255e-09
8.95465e-09
8.51553e-09
9.83364e-09
1.09491e-08
1.56798e-08
9.1197e-09
9.36211e-09
1.1577e-08
1.1956e-08
1.10182e-08
1.60893e-08
9.06733e-09
1.08519e-08
1.15675e-08
1.31785e-08
8.96336e-09
1.15113e-08
1.1509e-08
1.17131e-08
1.51794e-08
9.16144e-09
1.1766e-08
1.16765e-08
1.58349e-08
1.75364e-08
2.55584e-08
1.25586e-08
1.29044e-08
1.60601e-08
1.68713e-08
1.80043e-08
2.66881e-08
1.25648e-08
1.45621e-08
1.60699e-08
1.78498e-08
1.26747e-08
1.64015e-08
1.61366e-08
1.75854e-08
2.75007e-08
1.2832e-08
1.67171e-08
1.6378e-08
2.69186e-08
2.84615e-08
4.18358e-08
1.74577e-08
1.82553e-08
2.2437e-08
2.21621e-08
3.00085e-08
3.91772e-08
1.74292e-08
1.86213e-08
2.22769e-08
2.42183e-08
1.71944e-08
2.16059e-08
2.26804e-08
2.90073e-08
4.21995e-08
1.73742e-08
2.30912e-08
2.30067e-08
4.2865e-08
4.62079e-08
6.53539e-08
2.4299e-08
2.43852e-08
3.05866e-08
3.14557e-08
4.31141e-08
7.06954e-08
2.41185e-08
2.63928e-08
3.03702e-08
3.13976e-08
2.44298e-08
3.07688e-08
3.01803e-08
4.89919e-08
6.47398e-08
2.48499e-08
3.06833e-08
3.01835e-08
6.32744e-08
7.14356e-08
1.01265e-07
3.31332e-08
3.34196e-08
4.14929e-08
4.23685e-08
7.54035e-08
1.00261e-07
3.28855e-08
3.38459e-08
4.12395e-08
4.20078e-08
3.30132e-08
4.15127e-08
4.20264e-08
6.95533e-08
1.02353e-07
3.30681e-08
4.17602e-08
4.21939e-08
1.05956e-07
1.09419e-07
1.46457e-07
4.45299e-08
4.56297e-08
5.49432e-08
5.47228e-08
1.1112e-07
1.46696e-07
4.42134e-08
4.50155e-08
5.45134e-08
5.60624e-08
4.47951e-08
5.41347e-08
5.46018e-08
1.10017e-07
1.47817e-07
4.49378e-08
5.52516e-08
5.47746e-08
1.44392e-07
1.57292e-07
2.0553e-07
5.88609e-08
5.8935e-08
7.13135e-08
7.25811e-08
1.56066e-07
2.10782e-07
5.83313e-08
5.94367e-08
7.06151e-08
7.17078e-08
5.85095e-08
7.13228e-08
7.12238e-08
1.59223e-07
2.02017e-07
5.84683e-08
7.13555e-08
7.12211e-08
2.06288e-07
2.17987e-07
2.72911e-07
7.57394e-08
7.60826e-08
9.02738e-08
9.03771e-08
2.23952e-07
2.68208e-07
7.50815e-08
7.66919e-08
8.95938e-08
8.99575e-08
7.59438e-08
8.92514e-08
9.06246e-08
2.1561e-07
2.76574e-07
7.64095e-08
8.98985e-08
9.06016e-08
2.7686e-07
2.87601e-07
3.49876e-07
9.55291e-08
9.6624e-08
1.12872e-07
1.13049e-07
2.82735e-07
3.56024e-07
9.48183e-08
9.47555e-08
1.11829e-07
1.13672e-07
9.5329e-08
1.12223e-07
1.12604e-07
2.89381e-07
3.48964e-07
9.50494e-08
1.13426e-07
1.1349e-07
3.47252e-07
3.65593e-07
4.26015e-07
1.18874e-07
1.18685e-07
1.37429e-07
1.37295e-07
3.70439e-07
4.21608e-07
1.17791e-07
1.19746e-07
1.36492e-07
1.37357e-07
1.19093e-07
1.35913e-07
1.37165e-07
3.66858e-07
4.27587e-07
1.19956e-07
1.37127e-07
1.37814e-07
4.29798e-07
4.42025e-07
5.02949e-07
1.44314e-07
1.4449e-07
1.67377e-07
1.68597e-07
4.38272e-07
5.08718e-07
1.43408e-07
1.44337e-07
1.66083e-07
1.66292e-07
1.44214e-07
1.67213e-07
1.68507e-07
4.42077e-07
4.99968e-07
1.45586e-07
1.66259e-07
1.71211e-07
5.03791e-07
5.18744e-07
5.70491e-07
1.74821e-07
1.75608e-07
1.9703e-07
1.97595e-07
5.238e-07
5.70978e-07
1.73195e-07
1.73602e-07
1.9572e-07
1.97742e-07
1.75192e-07
1.95658e-07
1.93958e-07
5.16207e-07
5.71041e-07
1.77454e-07
1.97126e-07
1.95734e-07
5.69276e-07
5.85428e-07
6.37999e-07
2.06304e-07
2.06781e-07
2.34257e-07
2.34366e-07
5.87634e-07
6.35665e-07
2.04925e-07
2.0673e-07
2.32649e-07
2.33991e-07
2.03772e-07
2.33798e-07
2.39332e-07
5.8581e-07
6.38634e-07
2.06403e-07
2.34127e-07
2.42822e-07
6.41444e-07
6.51686e-07
6.9157e-07
2.4275e-07
2.42765e-07
2.68977e-07
2.70472e-07
6.49398e-07
6.92118e-07
2.40897e-07
2.43209e-07
2.672e-07
2.69077e-07
2.48089e-07
2.67657e-07
2.66401e-07
6.52891e-07
6.90648e-07
2.50809e-07
2.67439e-07
2.67958e-07
6.89784e-07
7.04982e-07
7.46117e-07
2.7904e-07
2.80224e-07
3.12803e-07
3.08917e-07
7.03676e-07
7.45898e-07
2.77731e-07
2.77479e-07
3.11064e-07
3.11928e-07
2.74611e-07
3.08451e-07
3.17312e-07
7.02983e-07
7.45832e-07
2.76395e-07
3.12418e-07
3.20089e-07
7.50949e-07
7.58375e-07
7.90388e-07
3.23719e-07
3.20674e-07
3.52832e-07
3.59736e-07
7.60117e-07
7.93125e-07
3.21656e-07
3.24269e-07
3.50641e-07
3.5368e-07
3.30893e-07
3.57702e-07
3.55706e-07
7.59149e-07
7.90914e-07
3.33742e-07
3.52386e-07
3.58191e-07
7.93643e-07
8.01013e-07
8.31937e-07
3.63556e-07
3.69924e-07
3.99932e-07
3.93312e-07
8.03219e-07
8.29607e-07
3.61451e-07
3.63373e-07
3.97656e-07
3.9906e-07
3.64666e-07
3.91541e-07
3.986e-07
8.0091e-07
8.31472e-07
3.66053e-07
3.99314e-07
4.00841e-07
8.28267e-07
8.42712e-07
8.69466e-07
4.11032e-07
4.04171e-07
4.44619e-07
4.47662e-07
8.39581e-07
8.68187e-07
4.0912e-07
4.11376e-07
4.41657e-07
4.438e-07
4.07183e-07
4.46697e-07
4.36103e-07
8.42629e-07
8.69209e-07
4.11191e-07
4.41414e-07
4.38491e-07
8.67014e-07
8.78989e-07
9.04605e-07
4.57704e-07
4.58779e-07
4.92228e-07
4.87257e-07
8.78077e-07
9.04246e-07
4.53916e-07
4.55437e-07
4.92401e-07
4.94675e-07
4.52372e-07
4.86045e-07
5.01566e-07
8.7833e-07
9.05162e-07
4.52877e-07
4.9499e-07
5.05887e-07
9.10765e-07
9.13409e-07
9.37191e-07
5.03252e-07
5.01725e-07
5.41845e-07
5.49931e-07
9.14628e-07
9.413e-07
5.03419e-07
5.0624e-07
5.37035e-07
5.39683e-07
5.11771e-07
5.48845e-07
5.3621e-07
9.14612e-07
9.37114e-07
5.18267e-07
5.38415e-07
5.41065e-07
9.3505e-07
9.46416e-07
9.69395e-07
5.5447e-07
5.60785e-07
5.91038e-07
5.83144e-07
9.48031e-07
9.61873e-07
5.50341e-07
5.52607e-07
5.90754e-07
5.91642e-07
5.48732e-07
5.81353e-07
5.90143e-07
9.45576e-07
9.69256e-07
5.48202e-07
5.89893e-07
5.81446e-07
9.66428e-07
9.76685e-07
9.96179e-07
6.02078e-07
5.92244e-07
6.35532e-07
6.40792e-07
9.70146e-07
1.00432e-06
6.01673e-07
6.02655e-07
6.3149e-07
6.37e-07
5.99373e-07
6.3955e-07
6.3373e-07
9.77305e-07
9.97878e-07
5.94499e-07
6.35986e-07
6.36187e-07
9.97815e-07
1.00468e-06
1.03008e-06
6.48294e-07
6.58017e-07
6.86732e-07
6.88034e-07
1.01384e-06
1.02734e-06
6.43362e-07
6.50694e-07
6.8674e-07
6.8695e-07
6.49853e-07
6.87466e-07
6.93116e-07
1.00616e-06
1.03034e-06
6.5185e-07
6.85119e-07
6.93403e-07
1.03336e-06
1.03773e-06
1.0539e-06
6.99007e-07
6.94737e-07
7.31533e-07
7.25094e-07
1.03224e-06
1.05251e-06
7.00023e-07
6.97344e-07
7.28584e-07
7.3506e-07
7.02351e-07
7.22665e-07
7.23568e-07
1.03776e-06
1.05671e-06
7.02478e-07
7.3369e-07
7.2329e-07
1.0497e-06
1.06014e-06
1.08154e-06
7.4044e-07
7.4064e-07
7.71802e-07
7.78768e-07
1.06303e-06
1.08747e-06
7.36517e-07
7.46834e-07
7.69291e-07
7.72475e-07
7.33922e-07
7.79203e-07
7.77337e-07
1.0639e-06
1.08236e-06
7.33242e-07
7.70103e-07
7.74707e-07
1.08559e-06
1.09036e-06
1.11534e-06
7.8609e-07
7.86793e-07
8.21786e-07
8.13166e-07
1.09235e-06
1.10645e-06
7.84434e-07
7.82414e-07
8.21139e-07
8.22573e-07
7.89419e-07
8.10577e-07
8.20022e-07
1.08912e-06
1.11288e-06
7.86531e-07
8.21762e-07
8.17946e-07
1.11319e-06
1.12115e-06
1.13521e-06
8.29406e-07
8.25341e-07
8.58785e-07
8.63495e-07
1.11454e-06
1.14143e-06
8.28241e-07
8.34634e-07
8.54506e-07
8.58547e-07
8.31553e-07
8.63466e-07
8.60129e-07
1.12052e-06
1.13622e-06
8.29267e-07
8.54462e-07
8.58273e-07
1.13868e-06
1.14183e-06
1.16141e-06
8.69721e-07
8.72934e-07
8.92136e-07
8.91513e-07
1.14745e-06
1.15791e-06
8.65772e-07
8.65557e-07
8.91625e-07
8.96919e-07
8.66707e-07
8.89485e-07
8.93241e-07
1.14166e-06
1.16332e-06
8.65599e-07
8.96335e-07
8.93672e-07
1.15979e-06
1.16707e-06
1.18906e-06
8.99161e-07
8.97925e-07
9.33459e-07
9.31465e-07
1.16298e-06
1.18906e-06
9.00537e-07
9.09414e-07
9.35703e-07
9.37024e-07
9.04843e-07
9.32798e-07
9.3143e-07
1.17195e-06
1.19176e-06
9.05536e-07
9.35004e-07
9.3138e-07
1.18913e-06
1.19732e-06
1.21034e-06
9.44382e-07
9.45118e-07
9.635e-07
9.6983e-07
1.1986e-06
1.2162e-06
9.4527e-07
9.4216e-07
9.61028e-07
9.54113e-07
9.38789e-07
9.68189e-07
9.66611e-07
1.19565e-06
1.19958e-06
9.37195e-07
9.56896e-07
9.63091e-07
1.20946e-06
1.2136e-06
1.22714e-06
9.69449e-07
9.73202e-07
9.90504e-07
9.83576e-07
1.21877e-06
1.21943e-06
9.65475e-07
9.5883e-07
9.87263e-07
9.8454e-07
9.75034e-07
9.83141e-07
9.90271e-07
1.20336e-06
1.22512e-06
9.72657e-07
9.89855e-07
9.90579e-07
1.23128e-06
1.23477e-06
1.25499e-06
9.96698e-07
9.88878e-07
1.01948e-06
1.01714e-06
1.22346e-06
1.25375e-06
9.96581e-07
9.99141e-07
1.02485e-06
1.0382e-06
9.9538e-07
1.0236e-06
1.02364e-06
1.23468e-06
1.26828e-06
9.95769e-07
1.02699e-06
1.02293e-06
1.25446e-06
1.26134e-06
1.27851e-06
1.02961e-06
1.03014e-06
1.05289e-06
1.05786e-06
1.26412e-06
1.28425e-06
1.03397e-06
1.04465e-06
1.05157e-06
1.05297e-06
1.03335e-06
1.05014e-06
1.04899e-06
1.27451e-06
1.279e-06
1.03217e-06
1.04549e-06
1.0473e-06
1.27508e-06
1.28209e-06
1.28905e-06
1.05681e-06
1.06325e-06
1.07081e-06
1.07214e-06
1.28826e-06
1.29468e-06
1.05451e-06
1.05497e-06
1.06713e-06
1.06491e-06
1.0525e-06
1.07091e-06
1.07275e-06
1.28043e-06
1.28586e-06
1.05076e-06
1.06674e-06
1.07143e-06
1.29312e-06
1.29508e-06
1.31262e-06
1.07859e-06
1.07415e-06
1.09472e-06
1.08313e-06
1.2974e-06
1.29909e-06
1.07505e-06
1.07053e-06
1.09546e-06
1.08838e-06
1.08142e-06
1.08572e-06
1.09547e-06
1.29254e-06
1.30873e-06
1.08067e-06
1.09432e-06
1.09592e-06
1.31303e-06
1.31508e-06
1.31887e-06
1.09681e-06
1.0878e-06
1.10649e-06
1.1125e-06
1.30242e-06
1.32626e-06
1.09823e-06
1.09255e-06
1.10742e-06
1.1128e-06
1.09776e-06
1.11314e-06
1.10929e-06
1.31191e-06
1.32523e-06
1.09811e-06
1.1108e-06
1.10858e-06
1.32148e-06
1.3249e-06
1.35277e-06
1.11399e-06
1.12278e-06
1.14202e-06
1.14163e-06
1.3357e-06
1.35378e-06
1.11432e-06
1.12135e-06
1.14105e-06
1.1387e-06
1.11695e-06
1.1408e-06
1.14143e-06
1.33339e-06
1.34937e-06
1.11562e-06
1.13643e-06
1.14023e-06
1.35205e-06
1.35724e-06
1.36011e-06
1.14687e-06
1.14447e-06
1.15341e-06
1.15206e-06
1.35657e-06
1.3589e-06
1.14587e-06
1.14194e-06
1.15269e-06
1.15236e-06
1.14563e-06
1.15151e-06
1.14999e-06
1.35225e-06
1.3583e-06
1.14503e-06
1.15119e-06
1.15048e-06
1.35616e-06
1.36362e-06
1.37823e-06
1.15635e-06
1.15594e-06
1.1719e-06
1.17119e-06
1.36277e-06
1.37608e-06
1.15578e-06
1.15763e-06
1.1716e-06
1.17201e-06
1.15082e-06
1.16892e-06
1.16282e-06
1.36357e-06
1.3768e-06
1.15144e-06
1.17033e-06
1.16297e-06
1.3645e-06
1.38222e-06
1.38182e-06
1.17613e-06
1.17456e-06
1.18221e-06
1.18166e-06
1.37975e-06
1.38324e-06
1.17589e-06
1.17448e-06
1.18245e-06
1.18223e-06
1.17344e-06
1.18449e-06
1.20137e-06
1.3796e-06
1.38395e-06
1.17316e-06
1.18467e-06
1.20075e-06
1.4141e-06
1.38424e-06
1.39833e-06
1.18431e-06
1.18524e-06
1.19796e-06
1.20248e-06
1.38694e-06
1.40213e-06
1.18472e-06
1.18686e-06
1.199e-06
1.20524e-06
1.20239e-06
1.20274e-06
1.19173e-06
1.38861e-06
1.40525e-06
1.20189e-06
1.20419e-06
1.19234e-06
1.38247e-06
1.40524e-06
1.41522e-06
1.20488e-06
1.20751e-06
1.21723e-06
1.21246e-06
1.40664e-06
1.40819e-06
1.20586e-06
1.20884e-06
1.21685e-06
1.21152e-06
1.18777e-06
1.20766e-06
1.19345e-06
1.40863e-06
1.4064e-06
1.18889e-06
1.20759e-06
1.19542e-06
1.37717e-06
1.41701e-06
1.41957e-06
1.21864e-06
1.2137e-06
1.22445e-06
1.22423e-06
1.41039e-06
1.42226e-06
1.21791e-06
1.21286e-06
1.22339e-06
1.22361e-06
1.20442e-06
1.22628e-06
1.24406e-06
1.40856e-06
1.42058e-06
1.206e-06
1.22518e-06
1.24306e-06
1.45414e-06
1.42429e-06
1.44641e-06
1.22848e-06
1.23045e-06
1.24752e-06
1.24841e-06
1.42962e-06
1.44679e-06
1.22732e-06
1.22965e-06
1.24682e-06
1.24942e-06
1.25296e-06
1.24853e-06
1.26073e-06
1.42771e-06
1.44782e-06
1.25138e-06
1.24814e-06
1.25981e-06
1.47179e-06
1.45146e-06
1.44878e-06
1.25185e-06
1.2508e-06
1.25432e-06
1.25275e-06
1.44969e-06
1.44795e-06
1.25166e-06
1.25289e-06
1.2548e-06
1.25531e-06
1.26022e-06
1.2546e-06
1.25098e-06
1.45207e-06
1.45171e-06
1.25968e-06
1.25723e-06
1.25244e-06
1.44186e-06
1.44971e-06
1.44684e-06
1.25424e-06
1.25363e-06
1.25647e-06
1.25786e-06
1.44944e-06
1.45011e-06
1.2547e-06
1.25535e-06
1.25622e-06
1.25657e-06
1.24605e-06
1.25693e-06
1.23654e-06
1.4528e-06
1.44726e-06
1.24763e-06
1.25626e-06
1.23509e-06
1.41158e-06
1.45012e-06
1.46121e-06
1.25838e-06
1.25937e-06
1.26742e-06
1.26498e-06
1.45242e-06
1.45648e-06
1.25788e-06
1.25782e-06
1.26623e-06
1.2647e-06
1.23666e-06
1.25972e-06
1.25097e-06
1.44942e-06
1.4569e-06
1.23464e-06
1.25969e-06
1.24783e-06
1.4343e-06
1.46588e-06
1.47506e-06
1.27131e-06
1.26719e-06
1.27962e-06
1.27725e-06
1.45993e-06
1.47326e-06
1.27018e-06
1.2678e-06
1.27925e-06
1.27698e-06
1.26027e-06
1.28033e-06
1.29245e-06
1.46126e-06
1.47301e-06
1.25769e-06
1.27991e-06
1.2938e-06
1.49761e-06
1.47876e-06
1.48698e-06
1.28184e-06
1.28199e-06
1.29004e-06
1.29523e-06
1.4798e-06
1.49533e-06
1.28199e-06
1.28146e-06
1.29145e-06
1.29657e-06
1.30022e-06
1.29981e-06
1.30957e-06
1.47856e-06
1.49653e-06
1.30249e-06
1.30095e-06
1.31245e-06
1.52535e-06
1.49062e-06
1.49694e-06
1.29336e-06
1.29812e-06
1.3018e-06
1.30044e-06
1.49851e-06
1.49494e-06
1.29441e-06
1.29956e-06
1.30058e-06
1.30059e-06
1.30922e-06
1.29924e-06
1.29602e-06
1.50041e-06
1.49558e-06
1.31196e-06
1.30097e-06
1.29687e-06
1.49145e-06
1.49971e-06
1.49691e-06
1.30293e-06
1.29995e-06
1.30181e-06
1.29611e-06
1.49597e-06
1.48718e-06
1.30135e-06
1.29909e-06
1.3007e-06
1.29476e-06
1.28943e-06
1.29251e-06
1.27836e-06
1.49627e-06
1.48493e-06
1.28938e-06
1.29166e-06
1.27534e-06
1.4566e-06
1.49763e-06
1.48138e-06
1.2993e-06
1.29468e-06
1.29244e-06
1.29342e-06
1.48817e-06
1.48523e-06
1.29895e-06
1.29407e-06
1.29304e-06
1.29571e-06
1.2784e-06
1.29305e-06
1.2913e-06
1.48601e-06
1.4874e-06
1.27487e-06
1.29133e-06
1.28535e-06
1.47679e-06
1.48254e-06
1.49781e-06
1.29229e-06
1.29463e-06
1.30281e-06
1.30779e-06
1.48857e-06
1.50841e-06
1.2928e-06
1.29778e-06
1.30155e-06
1.30569e-06
1.29887e-06
1.31223e-06
1.31711e-06
1.49119e-06
1.50327e-06
1.29274e-06
1.30688e-06
1.31433e-06
1.51811e-06
1.50694e-06
1.53003e-06
1.31002e-06
1.31377e-06
1.32525e-06
1.3235e-06
1.51576e-06
1.52732e-06
1.30798e-06
1.30852e-06
1.32328e-06
1.31838e-06
1.31927e-06
1.32326e-06
1.32006e-06
1.50797e-06
1.52066e-06
1.31777e-06
1.32167e-06
1.32073e-06
1.52276e-06
1.53303e-06
1.5177e-06
1.32601e-06
1.32379e-06
1.31919e-06
1.31897e-06
1.52885e-06
1.51401e-06
1.3246e-06
1.32102e-06
1.32061e-06
1.32275e-06
1.31968e-06
1.31536e-06
1.31896e-06
1.52465e-06
1.52355e-06
1.32096e-06
1.32311e-06
1.32165e-06
1.52163e-06
1.51693e-06
1.497e-06
1.31451e-06
1.31573e-06
1.30512e-06
1.30819e-06
1.51418e-06
1.502e-06
1.31683e-06
1.32158e-06
1.3081e-06
1.31483e-06
1.31857e-06
1.30939e-06
1.31634e-06
1.52434e-06
1.51086e-06
1.32163e-06
1.31398e-06
1.31831e-06
1.51747e-06
1.49864e-06
1.51461e-06
1.30505e-06
1.30792e-06
1.31518e-06
1.31522e-06
1.50402e-06
1.51752e-06
1.30768e-06
1.31349e-06
1.31379e-06
1.31387e-06
1.31505e-06
1.31911e-06
1.3119e-06
1.5119e-06
1.51393e-06
1.31561e-06
1.31344e-06
1.30871e-06
1.50471e-06
1.52199e-06
1.53503e-06
1.32107e-06
1.32027e-06
1.33094e-06
1.32894e-06
1.52375e-06
1.53208e-06
1.3181e-06
1.3157e-06
1.32665e-06
1.31986e-06
1.31172e-06
1.32469e-06
1.31527e-06
1.51744e-06
1.52088e-06
1.30832e-06
1.31896e-06
1.31377e-06
1.51186e-06
1.5369e-06
1.528e-06
1.33099e-06
1.32892e-06
1.32516e-06
1.32339e-06
1.53334e-06
1.52358e-06
1.32687e-06
1.31992e-06
1.32313e-06
1.3193e-06
1.31846e-06
1.32024e-06
1.32797e-06
1.52217e-06
1.51888e-06
1.31811e-06
1.31974e-06
1.33037e-06
1.53797e-06
1.52888e-06
1.52209e-06
1.32271e-06
1.32148e-06
1.31804e-06
1.31907e-06
1.52469e-06
1.52365e-06
1.32162e-06
1.31956e-06
1.3197e-06
1.32473e-06
1.32938e-06
1.32221e-06
1.32801e-06
1.5219e-06
1.53233e-06
1.33209e-06
1.32762e-06
1.3302e-06
1.53803e-06
1.52354e-06
1.52373e-06
1.31773e-06
1.31902e-06
1.31804e-06
1.31871e-06
1.52593e-06
1.5241e-06
1.31982e-06
1.326e-06
1.32159e-06
1.32582e-06
1.3249e-06
1.3206e-06
1.31318e-06
1.53567e-06
1.53195e-06
1.32642e-06
1.32342e-06
1.31205e-06
1.51004e-06
1.52559e-06
1.52331e-06
1.31809e-06
1.31833e-06
1.31725e-06
1.31793e-06
1.52534e-06
1.52366e-06
1.32164e-06
1.32407e-06
1.31823e-06
1.31759e-06
1.31086e-06
1.31722e-06
1.31141e-06
1.53273e-06
1.52081e-06
1.30892e-06
1.31392e-06
1.30833e-06
1.51062e-06
1.52474e-06
1.52325e-06
1.31691e-06
1.31847e-06
1.31682e-06
1.32042e-06
1.52644e-06
1.53067e-06
1.31668e-06
1.31604e-06
1.31315e-06
1.31502e-06
1.31467e-06
1.32055e-06
1.32477e-06
1.52202e-06
1.52376e-06
1.31136e-06
1.31741e-06
1.32422e-06
1.53713e-06
1.52483e-06
1.52096e-06
1.31682e-06
1.32038e-06
1.31485e-06
1.31647e-06
1.53254e-06
1.52532e-06
1.31265e-06
1.31535e-06
1.31176e-06
1.315e-06
1.32588e-06
1.31667e-06
1.32295e-06
1.52684e-06
1.52578e-06
1.32677e-06
1.32013e-06
1.32664e-06
1.53866e-06
1.52217e-06
1.51785e-06
1.31323e-06
1.31394e-06
1.30833e-06
1.30499e-06
1.52609e-06
1.51237e-06
1.31124e-06
1.31335e-06
1.30946e-06
1.30758e-06
1.32007e-06
1.30588e-06
1.30823e-06
1.5267e-06
1.5148e-06
1.32368e-06
1.30804e-06
1.30939e-06
1.51786e-06
1.52048e-06
1.53428e-06
1.30806e-06
1.30392e-06
1.3136e-06
1.30781e-06
1.51347e-06
1.52133e-06
1.30956e-06
1.30719e-06
1.31757e-06
1.31413e-06
1.30535e-06
1.30744e-06
1.30418e-06
1.51603e-06
1.52718e-06
1.30505e-06
1.30736e-06
1.30188e-06
1.51285e-06
1.53997e-06
1.53593e-06
1.31661e-06
1.31195e-06
1.31553e-06
1.31431e-06
1.52799e-06
1.53246e-06
1.32025e-06
1.31901e-06
1.31806e-06
1.32099e-06
1.30657e-06
1.31436e-06
1.31202e-06
1.53485e-06
1.54194e-06
1.30359e-06
1.31631e-06
1.31026e-06
1.52798e-06
1.53458e-06
1.48413e-06
1.30916e-06
1.31056e-06
1.28412e-06
1.28995e-06
1.5325e-06
1.49698e-06
1.31047e-06
1.31555e-06
1.27911e-06
1.27928e-06
1.311e-06
1.28986e-06
1.29152e-06
1.54149e-06
1.48238e-06
1.30969e-06
1.28445e-06
1.2913e-06
1.50028e-06
1.48399e-06
1.49909e-06
1.28088e-06
1.2877e-06
1.28802e-06
1.29601e-06
1.49749e-06
1.51764e-06
1.27413e-06
1.27191e-06
1.27993e-06
1.27467e-06
1.2862e-06
1.2924e-06
1.28569e-06
1.4805e-06
1.48544e-06
1.28563e-06
1.2781e-06
1.28461e-06
1.50095e-06
1.51293e-06
1.5496e-06
1.2979e-06
1.30403e-06
1.3124e-06
1.31012e-06
1.52998e-06
1.54416e-06
1.29212e-06
1.28783e-06
1.31643e-06
1.32156e-06
1.29265e-06
1.31041e-06
1.31099e-06
1.49978e-06
1.56034e-06
1.29168e-06
1.31906e-06
1.31261e-06
1.54544e-06
1.55152e-06
1.50206e-06
1.31119e-06
1.30549e-06
1.28069e-06
1.26787e-06
1.54317e-06
1.47485e-06
1.31654e-06
1.32285e-06
1.28873e-06
1.29463e-06
1.31115e-06
1.27353e-06
1.28719e-06
1.56517e-06
1.51915e-06
1.31307e-06
1.29348e-06
1.28905e-06
1.50752e-06
1.49739e-06
1.45265e-06
1.26861e-06
1.25755e-06
1.24724e-06
1.24736e-06
1.47126e-06
1.45125e-06
1.27509e-06
1.27829e-06
1.24482e-06
1.23748e-06
1.27486e-06
1.24766e-06
1.24775e-06
1.51223e-06
1.43895e-06
1.27606e-06
1.23894e-06
1.24605e-06
1.45461e-06
1.45368e-06
1.47807e-06
1.24682e-06
1.24938e-06
1.26044e-06
1.27666e-06
1.4575e-06
1.50996e-06
1.24286e-06
1.2339e-06
1.2516e-06
1.24237e-06
1.24625e-06
1.27129e-06
1.25625e-06
1.4388e-06
1.45583e-06
1.24412e-06
1.24443e-06
1.25354e-06
1.47654e-06
1.49108e-06
1.52193e-06
1.27271e-06
1.28854e-06
1.27864e-06
1.28184e-06
1.52393e-06
1.53191e-06
1.26357e-06
1.25646e-06
1.27651e-06
1.28009e-06
1.26811e-06
1.27849e-06
1.27412e-06
1.47027e-06
1.52604e-06
1.26559e-06
1.27955e-06
1.27498e-06
1.51792e-06
1.50598e-06
1.24189e-06
1.24118e-06
1.50826e-06
1.24217e-06
1.24853e-06
7.81439e-07
7.886e-07
7.8193e-07
1.2377e-06
1.51442e-06
1.23924e-06
4.36463e-11
2.47156e-09
1.46301e-10
1.60677e-10
5.58758e-09
3.56313e-09
2.77645e-09
9.53423e-10
5.52013e-09
4.47219e-09
1.00983e-09
1.11385e-08
5.40058e-09
1.96965e-09
6.02249e-09
7.63267e-09
1.62338e-07
5.95554e-09
2.57572e-07
1.45801e-06
2.902e-06
8.77995e-09
1.59652e-07
7.34469e-09
2.52228e-07
1.27273e-09
1.55543e-09
1.68338e-09
1.40802e-09
1.25122e-09
1.53609e-09
1.66767e-09
4.79388e-09
7.39856e-08
2.71687e-09
3.33578e-09
5.11065e-09
5.34424e-08
2.68758e-09
1.54579e-06
3.06792e-06
4.77822e-09
3.00853e-09
8.61752e-08
4.71474e-09
5.04549e-09
2.97266e-09
6.42272e-08
2.10589e-07
2.1747e-07
5.05358e-09
1.78988e-07
1.87185e-07
1.68443e-08
4.64301e-07
1.20409e-08
6.6157e-07
6.66874e-06
9.64162e-06
1.81646e-08
4.53563e-07
1.3269e-08
6.46845e-07
1.23508e-09
1.51654e-09
1.6387e-09
1.34208e-09
1.18693e-09
1.45802e-09