/*--------------------------------*- C++ -*----------------------------------*\
| =========                 |                                                 |
| \\      /  F ield         | OpenFOAM: The Open Source CFD Toolbox           |
|  \\    /   O peration     | Version:  v2006                                 |
|   \\  /    A nd           | Website:  www.openfoam.com                      |
|    \\/     M anipulation  |                                                 |
\*---------------------------------------------------------------------------*/
FoamFile
{
    version     2.0;
    format      ascii;
    class       volScalarField;
    location    "1000";
    object      epsilon;
}
// * * * * * * * * * * * * * * * * * * * * * * * * * * * * * * * * * * * * * //

dimensions      [0 2 -3 0 0 0 0];


internalField   nonuniform List<scalar> 
42616
(
6.67181e-07
1.19291e-06
1.19304e-06
1.42412e-06
6.71663e-07
1.19305e-06
1.19297e-06
1.42207e-06
6.74638e-07
1.19374e-06
1.19355e-06
1.4291e-06
6.83696e-07
1.20504e-06
1.20557e-06
1.44452e-06
6.83744e-07
1.19423e-06
1.1938e-06
1.42065e-06
6.82924e-07
1.19018e-06
1.19035e-06
1.42062e-06
6.89575e-07
1.20398e-06
1.20404e-06
1.44569e-06
6.92233e-07
1.19959e-06
1.19952e-06
1.43255e-06
6.90106e-07
1.19039e-06
1.19043e-06
1.42007e-06
6.9052e-07
1.19286e-06
1.19256e-06
1.42878e-06
6.97622e-07
1.20325e-06
1.20398e-06
1.45082e-06
6.88558e-07
1.17305e-06
1.17265e-06
1.39294e-06
6.87181e-07
1.18208e-06
1.18021e-06
1.41584e-06
7.02741e-07
1.21179e-06
1.21419e-06
1.48447e-06
6.9137e-07
1.17045e-06
1.16921e-06
1.39059e-06
6.83674e-07
1.16316e-06
1.1614e-06
1.38368e-06
6.90441e-07
1.18075e-06
1.18288e-06
1.43339e-06
6.90153e-07
1.17883e-06
1.17776e-06
1.41736e-06
6.88421e-07
1.17615e-06
1.17621e-06
1.41825e-06
6.83501e-07
1.16149e-06
1.16209e-06
1.40113e-06
6.6904e-07
1.12097e-06
1.11964e-06
1.38573e-06
1.42286e-06
1.19271e-06
1.1919e-06
1.42176e-06
1.19251e-06
1.19208e-06
1.19197e-06
1.19249e-06
1.42191e-06
1.19213e-06
1.1923e-06
1.42213e-06
1.42534e-06
1.42075e-06
1.19364e-06
1.19295e-06
1.19358e-06
1.19379e-06
1.42421e-06
1.42197e-06
1.19345e-06
1.1931e-06
1.19344e-06
1.19385e-06
1.19294e-06
1.19368e-06
1.1931e-06
1.42438e-06
1.42178e-06
1.19276e-06
1.19372e-06
1.19296e-06
1.42073e-06
1.42192e-06
1.4229e-06
1.19228e-06
1.19313e-06
1.19195e-06
1.19251e-06
1.42329e-06
1.42356e-06
1.19213e-06
1.19304e-06
1.19171e-06
1.19227e-06
1.1924e-06
1.19255e-06
1.19235e-06
1.42303e-06
1.42295e-06
1.19226e-06
1.1923e-06
1.19213e-06
1.42369e-06
1.42851e-06
1.44314e-06
1.19372e-06
1.19367e-06
1.20566e-06
1.20455e-06
1.42835e-06
1.44098e-06
1.19343e-06
1.19349e-06
1.20556e-06
1.20512e-06
1.19408e-06
1.20454e-06
1.20546e-06
1.42792e-06
1.442e-06
1.1938e-06
1.20508e-06
1.20536e-06
1.44266e-06
1.44504e-06
1.42084e-06
1.20594e-06
1.20508e-06
1.19813e-06
1.19928e-06
1.44311e-06
1.42309e-06
1.20586e-06
1.20563e-06
1.19799e-06
1.19899e-06
1.20571e-06
1.19924e-06
1.19817e-06
1.44413e-06
1.42233e-06
1.20564e-06
1.19895e-06
1.19804e-06
1.42086e-06
1.42065e-06
1.41537e-06
1.19301e-06
1.19423e-06
1.18922e-06
1.18953e-06
1.42296e-06
1.41551e-06
1.19277e-06
1.19379e-06
1.18896e-06
1.18952e-06
1.19301e-06
1.18954e-06
1.18898e-06
1.42213e-06
1.41579e-06
1.19279e-06
1.18953e-06
1.18874e-06
1.41486e-06
1.42124e-06
1.4409e-06
1.19024e-06
1.19018e-06
1.20293e-06
1.20199e-06
1.42073e-06
1.43946e-06
1.19003e-06
1.19036e-06
1.20284e-06
1.20239e-06
1.18993e-06
1.20196e-06
1.20348e-06
1.42134e-06
1.43991e-06
1.18974e-06
1.20236e-06
1.20341e-06
1.44228e-06
1.44391e-06
1.43104e-06
1.20431e-06
1.20393e-06
1.20175e-06
1.2023e-06
1.44301e-06
1.43226e-06
1.20416e-06
1.20399e-06
1.20148e-06
1.20204e-06
1.20527e-06
1.20245e-06
1.20285e-06
1.44311e-06
1.43185e-06
1.20514e-06
1.20219e-06
1.2026e-06
1.43236e-06
1.43153e-06
1.4209e-06
1.19906e-06
1.19948e-06
1.19188e-06
1.19173e-06
1.43269e-06
1.42072e-06
1.19881e-06
1.1994e-06
1.19176e-06
1.19194e-06
1.19965e-06
1.19171e-06
1.19098e-06
1.43237e-06
1.42093e-06
1.19942e-06
1.19189e-06
1.19085e-06
1.41875e-06
1.4223e-06
1.42522e-06
1.19047e-06
1.19044e-06
1.19041e-06
1.19057e-06
1.42211e-06
1.42549e-06
1.19033e-06
1.19051e-06
1.1902e-06
1.19044e-06
1.18927e-06
1.19046e-06
1.18907e-06
1.42227e-06
1.42514e-06
1.18911e-06
1.19029e-06
1.18885e-06
1.42296e-06
1.43077e-06
1.44572e-06
1.19293e-06
1.19312e-06
1.20498e-06
1.20367e-06
1.43097e-06
1.44342e-06
1.19265e-06
1.19284e-06
1.20481e-06
1.20429e-06
1.19145e-06
1.20354e-06
1.20674e-06
1.43065e-06
1.44453e-06
1.19117e-06
1.2042e-06
1.20663e-06
1.44929e-06
1.44673e-06
1.39329e-06
1.20466e-06
1.20332e-06
1.1797e-06
1.18048e-06
1.44438e-06
1.39654e-06
1.20452e-06
1.20401e-06
1.17976e-06
1.18094e-06
1.20671e-06
1.18127e-06
1.18325e-06
1.44556e-06
1.39629e-06
1.20663e-06
1.18179e-06
1.18341e-06
1.3964e-06
1.39188e-06
1.40842e-06
1.17075e-06
1.17262e-06
1.17131e-06
1.17313e-06
1.39567e-06
1.41078e-06
1.17062e-06
1.17219e-06
1.17085e-06
1.17177e-06
1.17113e-06
1.1727e-06
1.16722e-06
1.39495e-06
1.40782e-06
1.17105e-06
1.1713e-06
1.16676e-06
1.39708e-06
1.4287e-06
1.47704e-06
1.18332e-06
1.18356e-06
1.21591e-06
1.21231e-06
1.42864e-06
1.46941e-06
1.18252e-06
1.18176e-06
1.21592e-06
1.21451e-06
1.17551e-06
1.21199e-06
1.21849e-06
1.42607e-06
1.47366e-06
1.17479e-06
1.21419e-06
1.21858e-06
1.48267e-06
1.47715e-06
1.39045e-06
1.2153e-06
1.2119e-06
1.17913e-06
1.18181e-06
1.46995e-06
1.39766e-06
1.21539e-06
1.21428e-06
1.17944e-06
1.18234e-06
1.21893e-06
1.18341e-06
1.18602e-06
1.47446e-06
1.39636e-06
1.21914e-06
1.18406e-06
1.18652e-06
1.39818e-06
1.3863e-06
1.38347e-06
1.16587e-06
1.16959e-06
1.15955e-06
1.16176e-06
1.39422e-06
1.3856e-06
1.1657e-06
1.16826e-06
1.15881e-06
1.15935e-06
1.16799e-06
1.16107e-06
1.15488e-06
1.39164e-06
1.3813e-06
1.16798e-06
1.15863e-06
1.15417e-06
1.37198e-06
1.39576e-06
1.42675e-06
1.16415e-06
1.16425e-06
1.18252e-06
1.17941e-06
1.39474e-06
1.42099e-06
1.16331e-06
1.16257e-06
1.18267e-06
1.18174e-06
1.15818e-06
1.17936e-06
1.18372e-06
1.39198e-06
1.4254e-06
1.15742e-06
1.18165e-06
1.18385e-06
1.43036e-06
1.42866e-06
1.41488e-06
1.18286e-06
1.18038e-06
1.17703e-06
1.17852e-06
1.42374e-06
1.41825e-06
1.1831e-06
1.18259e-06
1.17687e-06
1.17798e-06
1.18514e-06
1.17883e-06
1.17864e-06
1.42802e-06
1.41683e-06
1.18539e-06
1.17837e-06
1.17855e-06
1.41621e-06
1.41651e-06
1.41899e-06
1.1767e-06
1.17865e-06
1.17693e-06
1.17827e-06
1.42048e-06
1.41982e-06
1.17635e-06
1.1776e-06
1.17651e-06
1.17747e-06
1.1773e-06
1.17822e-06
1.17628e-06
1.41845e-06
1.41978e-06
1.17699e-06
1.17742e-06
1.17588e-06
1.41718e-06
1.42015e-06
1.40151e-06
1.17608e-06
1.17633e-06
1.16442e-06
1.1624e-06
1.42048e-06
1.3976e-06
1.17577e-06
1.17633e-06
1.16446e-06
1.16353e-06
1.17469e-06
1.16201e-06
1.16308e-06
1.42073e-06
1.39933e-06
1.17443e-06
1.16314e-06
1.16313e-06
1.39952e-06
1.4028e-06
1.3983e-06
1.16329e-06
1.16179e-06
1.15061e-06
1.15145e-06
1.39921e-06
1.40114e-06
1.16327e-06
1.16243e-06
1.15031e-06
1.15039e-06
1.16269e-06
1.15225e-06
1.15388e-06
1.40062e-06
1.39873e-06
1.16264e-06
1.15092e-06
1.15335e-06
1.40449e-06
1.37938e-06
1.1191e-06
1.12003e-06
1.38239e-06
1.11883e-06
1.11895e-06
6.69575e-07
6.69139e-07
6.70672e-07
1.12249e-06
1.38008e-06
1.12203e-06
6.65842e-07
6.65446e-07
6.65644e-07
6.66002e-07
4.24375e-06
9.58406e-06
4.24341e-06
9.57924e-06
1.9123e-05
1.91032e-05
4.24437e-06
9.58641e-06
4.24388e-06
9.58194e-06
6.66756e-07
6.66899e-07
6.67035e-07
6.70831e-07
6.70976e-07
6.71004e-07
6.70643e-07
2.30074e-06
3.65424e-06
9.41808e-07
1.19358e-06
2.29969e-06
3.65462e-06
9.43085e-07
1.91279e-05
1.91076e-05
2.30106e-06
9.41851e-07
3.65436e-06
1.19368e-06
2.29975e-06
9.43107e-07
3.65539e-06
5.6593e-06
5.6612e-06
1.42275e-06
5.66024e-06
5.66241e-06
4.22868e-06
9.55644e-06
4.23197e-06
9.56065e-06
1.90809e-05
1.91246e-05
4.22786e-06
9.55673e-06
4.2316e-06
9.56031e-06
6.72024e-07
6.72031e-07
6.71617e-07
6.73281e-07
6.73649e-07
6.73659e-07
6.73422e-07
2.29014e-06
3.64175e-06
9.44626e-07
1.19239e-06
2.29437e-06
3.63689e-06
9.44458e-07
1.90759e-05
1.91156e-05
2.28959e-06
9.44697e-07
3.64177e-06
1.19218e-06
2.29439e-06
9.44513e-07
3.63546e-06
5.6351e-06
5.63643e-06
1.41953e-06
5.62981e-06
5.63063e-06
4.27025e-06
9.64636e-06
4.24672e-06
9.67815e-06
1.92608e-05
1.92866e-05
4.27096e-06
9.64793e-06
4.24582e-06
9.68158e-06
6.7466e-07
6.747e-07
6.7486e-07
6.81806e-07
6.81066e-07
6.81403e-07
6.81859e-07
2.31105e-06
3.66061e-06
9.44397e-07
1.19754e-06
2.29549e-06
3.68246e-06
9.45478e-07
1.92659e-05
1.92979e-05
2.31093e-06
9.44361e-07
3.65819e-06
1.1976e-06
2.29432e-06
9.45426e-07
3.68317e-06
5.69058e-06
5.69153e-06
1.4354e-06
5.72104e-06
5.72344e-06
4.26899e-06
9.6586e-06
4.28335e-06
9.58672e-06
1.91908e-05
1.90893e-05
4.27012e-06
9.66246e-06
4.28504e-06
9.58768e-06
6.8306e-07
6.83398e-07
6.83733e-07
6.84512e-07
6.84699e-07
6.84758e-07
6.84585e-07
2.31917e-06
3.69343e-06
9.54375e-07
1.20474e-06
2.32337e-06
3.66978e-06
9.54788e-07
1.91969e-05
1.90842e-05
2.32025e-06
9.5467e-07
3.69624e-06
1.20522e-06
2.3245e-06
9.55086e-07
3.67125e-06
5.72405e-06
5.7275e-06
1.43659e-06
5.6576e-06
5.65972e-06
4.20289e-06
9.52114e-06
4.21421e-06
9.52793e-06
1.90366e-05
1.91059e-05
4.20183e-06
9.52041e-06
4.21294e-06
9.52805e-06
6.84275e-07
6.84215e-07
6.83833e-07
6.82758e-07
6.83089e-07
6.8315e-07
6.82738e-07
2.2734e-06
3.62035e-06
9.51007e-07
1.19086e-06
2.28543e-06
3.61019e-06
9.47757e-07
1.90295e-05
1.91095e-05
2.27249e-06
9.50902e-07
3.61798e-06
1.19055e-06
2.28456e-06
9.47585e-07
3.60823e-06
5.58942e-06
5.58951e-06
1.41238e-06
5.58415e-06
5.58425e-06
4.26389e-06
9.65249e-06
4.22796e-06
9.70584e-06
1.93008e-05
1.93498e-05
4.2654e-06
9.65616e-06
4.22944e-06
9.70879e-06
6.83156e-07
6.8325e-07
6.8288e-07
6.87536e-07
6.86898e-07
6.87262e-07
6.87613e-07
2.30045e-06
3.64386e-06
9.45171e-07
1.19243e-06
2.27835e-06
3.67765e-06
9.45739e-07
1.93114e-05
1.93542e-05
2.30167e-06
9.45177e-07
3.64639e-06
1.1931e-06
2.27895e-06
9.4585e-07
3.68032e-06
5.6825e-06
5.68532e-06
1.42928e-06
5.73223e-06
5.73525e-06
4.28091e-06
9.70214e-06
4.28854e-06
9.64803e-06
1.92839e-05
1.92185e-05
4.27935e-06
9.70195e-06
4.28865e-06
9.64784e-06
6.89157e-07
6.89365e-07
6.89924e-07
6.92306e-07
6.92459e-07
6.92505e-07
6.9278e-07
2.3214e-06
3.69764e-06
9.54612e-07
1.20421e-06
2.32238e-06
3.68225e-06
9.55851e-07
1.92757e-05
1.92135e-05
2.32101e-06
9.5482e-07
3.69774e-06
1.20414e-06
2.3225e-06
9.55909e-07
3.67938e-06
5.74588e-06
5.7476e-06
1.44251e-06
5.69214e-06
5.69249e-06
4.23237e-06
9.60121e-06
4.24142e-06
9.60198e-06
1.91877e-05
1.92006e-05
4.23316e-06
9.60346e-06
4.24153e-06
9.60473e-06
6.92405e-07
6.92457e-07
6.92661e-07
6.90652e-07
6.90639e-07
6.90778e-07
6.90544e-07
2.28908e-06
3.64898e-06
9.54585e-07
1.19656e-06
2.2983e-06
3.64257e-06
9.52841e-07
1.91909e-05
1.92058e-05
2.28929e-06
9.54501e-07
3.64862e-06
1.19671e-06
2.29797e-06
9.52856e-07
3.64328e-06
5.64046e-06
5.64205e-06
1.42328e-06
5.6394e-06
5.64149e-06
4.23492e-06
9.62409e-06
4.23051e-06
9.63217e-06
1.9214e-05
1.92364e-05
4.23444e-06
9.62511e-06
4.23093e-06
9.63233e-06
6.90138e-07
6.90228e-07
6.89758e-07
6.89935e-07
6.90075e-07
6.90096e-07
6.89395e-07
2.28201e-06
3.64436e-06
9.47243e-07
1.1899e-06
2.28269e-06
3.64232e-06
9.45988e-07
1.92154e-05
1.92354e-05
2.28178e-06
9.47334e-07
3.64469e-06
1.18982e-06
2.28288e-06
9.45995e-07
3.64188e-06
5.66195e-06
5.66352e-06
1.41782e-06
5.66112e-06
5.66219e-06
4.28323e-06
9.70796e-06
4.25653e-06
9.74589e-06
1.93889e-05
1.94356e-05
4.28365e-06
9.70889e-06
4.25578e-06
9.74823e-06
6.90698e-07
6.9066e-07
6.89889e-07
6.97271e-07
6.96644e-07
6.96985e-07
6.97939e-07
2.31084e-06
3.65554e-06
9.45924e-07
1.1985e-06
2.29054e-06
3.68868e-06
9.4792e-07
1.93921e-05
1.94407e-05
2.31076e-06
9.45826e-07
3.65503e-06
1.19844e-06
2.2897e-06
9.47765e-07
3.6894e-06
5.68805e-06
5.68813e-06
1.43925e-06
5.73926e-06
5.74109e-06
4.2568e-06
9.69711e-06
4.29948e-06
9.54409e-06
1.92321e-05
1.90124e-05
4.25917e-06
9.7018e-06
4.30073e-06
9.54715e-06
6.96924e-07
6.97349e-07
6.98742e-07
6.928e-07
6.92752e-07
6.93302e-07
6.95159e-07
2.31627e-06
3.70952e-06
9.56571e-07
1.20112e-06
2.3285e-06
3.66028e-06
9.56283e-07
1.92407e-05
1.90163e-05
2.31804e-06
9.56966e-07
3.71117e-06
1.20201e-06
2.32955e-06
9.56717e-07
3.6626e-06
5.76649e-06
5.76921e-06
1.43717e-06
5.64831e-06
5.65187e-06
4.1502e-06
9.45769e-06
4.1576e-06
9.55441e-06
1.89997e-05
1.93253e-05
4.1484e-06
9.45745e-06
4.15664e-06
9.54809e-06
6.89267e-07
6.89355e-07
6.89709e-07
6.85923e-07
6.86918e-07
6.86433e-07
6.84514e-07
2.22317e-06
3.55787e-06
9.38998e-07
1.17009e-06
2.23825e-06
3.55214e-06
9.32936e-07
1.89905e-05
1.93038e-05
2.22157e-06
9.39274e-07
3.55755e-06
1.16907e-06
2.23815e-06
9.32677e-07
3.54993e-06
5.50402e-06
5.50455e-06
1.38094e-06
5.50626e-06
5.50518e-06
4.37231e-06
9.92447e-06
4.29346e-06
9.99095e-06
1.98006e-05
1.98063e-05
4.37337e-06
9.92393e-06
4.29057e-06
9.99559e-06
6.8785e-07
6.87344e-07
6.85314e-07
7.01643e-07
6.9992e-07
7.00728e-07
7.01858e-07
2.34736e-06
3.70814e-06
9.32988e-07
1.19799e-06
2.2789e-06
3.78448e-06
9.40104e-07
1.98104e-05
1.98325e-05
2.34655e-06
9.32208e-07
3.7031e-06
1.19756e-06
2.27515e-06
9.39092e-07
3.7855e-06
5.81809e-06
5.81681e-06
1.4564e-06
5.92383e-06
5.92566e-06
4.27069e-06
9.7558e-06
4.39277e-06
9.51194e-06
1.92311e-05
1.89521e-05
4.2781e-06
9.76985e-06
4.39868e-06
9.51695e-06
7.01233e-07
7.02269e-07
7.04356e-07
6.97425e-07
6.9778e-07
6.98562e-07
7.00731e-07
2.33954e-06
3.79145e-06
9.60716e-07
1.20898e-06
2.38033e-06
3.66897e-06
9.60333e-07
1.92641e-05
1.89426e-05
2.34613e-06
9.61887e-07
3.80279e-06
1.21152e-06
2.38404e-06
9.61599e-07
3.67945e-06
5.90329e-06
5.91277e-06
1.46012e-06
5.65078e-06
5.65823e-06
4.10988e-06
9.38979e-06
4.12124e-06
9.48493e-06
1.89301e-05
1.91839e-05
4.10302e-06
9.3829e-06
4.11668e-06
9.47266e-06
6.92888e-07
6.92871e-07
6.93588e-07
6.8354e-07
6.84463e-07
6.83741e-07
6.81926e-07
2.19789e-06
3.52799e-06
9.37475e-07
1.16288e-06
2.2217e-06
3.51835e-06
9.28196e-07
1.88847e-05
1.91503e-05
2.1929e-06
9.37727e-07
3.51997e-06
1.16056e-06
2.22013e-06
9.27506e-07
3.50623e-06
5.42735e-06
5.4242e-06
1.36661e-06
5.42618e-06
5.42021e-06
4.27476e-06
9.74081e-06
4.21963e-06
9.79423e-06
1.94792e-05
1.94979e-05
4.2784e-06
9.74369e-06
4.21696e-06
9.80382e-06
6.84273e-07
6.83723e-07
6.81961e-07
6.88932e-07
6.87072e-07
6.88041e-07
6.88417e-07
2.28494e-06
3.63034e-06
9.23215e-07
1.16899e-06
2.23644e-06
3.68217e-06
9.25434e-07
1.9509e-05
1.95394e-05
2.28567e-06
9.21999e-07
3.6267e-06
1.1691e-06
2.23177e-06
9.24592e-07
3.68865e-06
5.69315e-06
5.69291e-06
1.40834e-06
5.77865e-06
5.78386e-06
4.26503e-06
9.73279e-06
4.29175e-06
9.70105e-06
1.9367e-05
1.93727e-05
4.26659e-06
9.73936e-06
4.29826e-06
9.70018e-06
6.88899e-07
6.8993e-07
6.90834e-07
6.90531e-07
6.90714e-07
6.90912e-07
6.91554e-07
2.29732e-06
3.69304e-06
9.3739e-07
1.1806e-06
2.30945e-06
3.66165e-06
9.37573e-07
1.93721e-05
1.93593e-05
2.30008e-06
9.38481e-07
3.70341e-06
1.18246e-06
2.31364e-06
9.38648e-07
3.6639e-06
5.76619e-06
5.7736e-06
1.42624e-06
5.68613e-06
5.68797e-06
4.26961e-06
9.72646e-06
4.25476e-06
9.75897e-06
1.94814e-05
1.95094e-05
4.26597e-06
9.72127e-06
4.25119e-06
9.75878e-06
6.9079e-07
6.90752e-07
6.91059e-07
6.88868e-07
6.89796e-07
6.89488e-07
6.88887e-07
2.28567e-06
3.6616e-06
9.34574e-07
1.17881e-06
2.28121e-06
3.67816e-06
9.33721e-07
1.94602e-05
1.95063e-05
2.28265e-06
9.34327e-07
3.65574e-06
1.17755e-06
2.27902e-06
9.33144e-07
3.67196e-06
5.68632e-06
5.68371e-06
1.41538e-06
5.73521e-06
5.7335e-06
4.24499e-06
9.70956e-06
4.27647e-06
9.66125e-06
1.93297e-05
1.92688e-05
4.24999e-06
9.71677e-06
4.27684e-06
9.66706e-06
6.88901e-07
6.88869e-07
6.87991e-07
6.84108e-07
6.83193e-07
6.83714e-07
6.83416e-07
2.27482e-06
3.68522e-06
9.32232e-07
1.17051e-06
2.29257e-06
3.64074e-06
9.29169e-07
1.93543e-05
1.92809e-05
2.27756e-06
9.31967e-07
3.68601e-06
1.17191e-06
2.29233e-06
9.29615e-07
3.64764e-06
5.75427e-06
5.75695e-06
1.40854e-06
5.66962e-06
5.67513e-06
4.22251e-06
9.65819e-06
4.21093e-06
9.71081e-06
1.93293e-05
1.94577e-05
4.22013e-06
9.65824e-06
4.21156e-06
9.70797e-06
6.82547e-07
6.83038e-07
6.82932e-07
6.74831e-07
6.75114e-07
6.74825e-07
6.76011e-07
2.25175e-06
3.62324e-06
9.19595e-07
1.1619e-06
2.24832e-06
3.62876e-06
9.18228e-07
1.93184e-05
1.94403e-05
2.25084e-06
9.20117e-07
3.62433e-06
1.16186e-06
2.24919e-06
9.18288e-07
3.62556e-06
5.6324e-06
5.63449e-06
1.40434e-06
5.69318e-06
5.69096e-06
3.48092e-06
8.90783e-06
4.21563e-06
5.82333e-06
1.71661e-05
8.49022e-06
3.48068e-06
8.9069e-06
4.21294e-06
5.82358e-06
3.2136e-07
4.87062e-07
4.86941e-07
7.17389e-07
3.27267e-07
5.09844e-07
5.0972e-07
2.20737e-06
3.57957e-06
9.0641e-07
1.06903e-06
2.26045e-06
3.66363e-06
8.47313e-07
1.71627e-05
8.49436e-06
2.20586e-06
9.05562e-07
3.57427e-06
1.06815e-06
2.2576e-06
8.46726e-07
3.66203e-06
5.68925e-06
5.68726e-06
1.32952e-06
5.26922e-06
5.27002e-06
1.91276e-05
1.91143e-05
1.91319e-05
1.91179e-05
1.42279e-06
5.66258e-06
5.66455e-06
5.64738e-06
5.64883e-06
4.23495e-06
9.58337e-06
9.57163e-06
4.24201e-06
4.23493e-06
9.58351e-06
9.5714e-06
4.24199e-06
2.29479e-06
1.19153e-06
3.6533e-06
9.40586e-07
3.64403e-06
9.39372e-07
2.29934e-06
2.29472e-06
1.1908e-06
3.65289e-06
9.40378e-07
3.64447e-06
9.39213e-07
2.29924e-06
1.91255e-05
1.91136e-05
1.42198e-06
5.66253e-06
5.65964e-06
5.64977e-06
5.64721e-06
1.91215e-05
1.91096e-05
4.23465e-06
9.5856e-06
9.57307e-06
4.2423e-06
2.29458e-06
1.19133e-06
3.6539e-06
9.40547e-07
3.64427e-06
9.39322e-07
2.29935e-06
4.23463e-06
9.58454e-06
9.57121e-06
4.24213e-06
2.29445e-06
1.19092e-06
9.40432e-07
3.65254e-06
9.39243e-07
3.64321e-06
2.29921e-06
2.29516e-06
1.19101e-06
3.65166e-06
9.40617e-07
3.64388e-06
9.3965e-07
2.29843e-06
4.23448e-06
9.58197e-06
9.57035e-06
4.24054e-06
2.29528e-06
1.19194e-06
9.40842e-07
3.64996e-06
9.39965e-07
3.64379e-06
2.29833e-06
4.23462e-06
9.57878e-06
9.56847e-06
4.24039e-06
1.91298e-05
1.91138e-05
1.42207e-06
5.66227e-06
5.65927e-06
5.64695e-06
5.64477e-06
1.91247e-05
1.91088e-05
2.29496e-06
1.19109e-06
9.40674e-07
3.65123e-06
9.39677e-07
3.64282e-06
2.29836e-06
2.2951e-06
1.19173e-06
9.40813e-07
3.65048e-06
9.39926e-07
3.64398e-06
2.29832e-06
4.23415e-06
9.58234e-06
9.56952e-06
4.24057e-06
4.23439e-06
9.58017e-06
9.56912e-06
4.24058e-06
1.42301e-06
5.65605e-06
5.65779e-06
5.6441e-06
5.64525e-06
1.91176e-05
1.91039e-05
1.91207e-05
1.91061e-05
1.9125e-05
1.90991e-05
1.91294e-05
1.91032e-05
5.66587e-06
5.668e-06
1.42413e-06
5.66548e-06
5.66789e-06
1.90666e-05
1.90813e-05
1.90683e-05
1.90846e-05
1.42553e-06
5.6353e-06
5.63691e-06
5.66029e-06
5.66297e-06
4.24367e-06
9.58429e-06
4.24337e-06
9.58003e-06
2.30175e-06
3.65613e-06
9.42007e-07
1.19407e-06
2.3008e-06
3.65651e-06
9.43399e-07
2.30165e-06
3.6556e-06
9.41773e-07
1.19369e-06
2.30071e-06
3.65577e-06
9.432e-07
4.24323e-06
9.55799e-06
9.57135e-06
4.2343e-06
4.24311e-06
9.56003e-06
9.57239e-06
4.23411e-06
2.30164e-06
1.19405e-06
3.64253e-06
9.44666e-07
3.6556e-06
9.44349e-07
2.29604e-06
2.30155e-06
1.1939e-06
3.64378e-06
9.44666e-07
3.65502e-06
9.44248e-07
2.29599e-06
5.66559e-06
5.66243e-06
1.42342e-06
5.66427e-06
5.66161e-06
1.91193e-05
1.91015e-05
1.90796e-05
1.90882e-05
1.42524e-06
5.63928e-06
5.6387e-06
5.65964e-06
5.65718e-06
1.90805e-05
1.9088e-05
2.30211e-06
3.65686e-06
9.41969e-07
1.1939e-06
2.30095e-06
3.65741e-06
9.43359e-07
4.24427e-06
9.5856e-06
4.24384e-06
9.5822e-06
2.30199e-06
9.41818e-07
3.65568e-06
1.19381e-06
2.30078e-06
9.43226e-07
3.65659e-06
4.24389e-06
9.55861e-06
9.57357e-06
4.23425e-06
2.30203e-06
1.19389e-06
3.64311e-06
9.44648e-07
3.65656e-06
9.44326e-07
2.29621e-06
4.24385e-06
9.5597e-06
9.57432e-06
4.23413e-06
2.30191e-06
1.194e-06
9.44726e-07
3.64432e-06
9.44297e-07
3.65604e-06
2.2962e-06
4.24249e-06
9.58281e-06
4.24194e-06
9.57967e-06
2.30056e-06
9.41877e-07
3.65271e-06
1.19321e-06
2.29953e-06
9.4299e-07
3.65339e-06
4.24222e-06
9.57964e-06
4.24172e-06
9.57729e-06
2.3007e-06
1.19378e-06
3.6439e-06
9.44578e-07
3.65397e-06
9.44109e-07
2.29607e-06
4.24215e-06
9.56209e-06
9.57298e-06
4.2349e-06
2.30051e-06
1.19326e-06
9.44402e-07
3.64352e-06
9.43938e-07
3.65299e-06
2.29594e-06
4.24188e-06
9.56193e-06
9.57149e-06
4.23478e-06
5.66588e-06
5.66291e-06
1.42361e-06
5.66652e-06
5.66371e-06
1.9123e-05
1.91052e-05
1.90759e-05
1.90907e-05
1.4254e-06
5.63975e-06
5.63904e-06
5.66308e-06
5.66073e-06
1.90762e-05
1.90896e-05
2.30089e-06
9.41849e-07
3.65333e-06
1.19304e-06
2.29965e-06
9.42955e-07
3.65425e-06
4.24291e-06
9.58347e-06
4.24215e-06
9.58116e-06
4.24274e-06
9.58118e-06
4.24207e-06
9.57909e-06
2.30105e-06
1.19385e-06
9.44647e-07
3.6444e-06
9.44152e-07
3.65496e-06
2.29629e-06
2.30088e-06
1.19311e-06
9.4439e-07
3.64409e-06
9.4391e-07
3.65384e-06
2.29612e-06
4.24262e-06
9.56122e-06
9.5744e-06
4.23495e-06
4.24243e-06
9.56198e-06
9.57303e-06
4.23476e-06
1.9116e-05
1.91015e-05
1.91193e-05
1.91044e-05
1.4243e-06
5.63861e-06
5.64017e-06
5.65787e-06
5.66019e-06
1.90776e-05
1.9088e-05
1.90785e-05
1.90903e-05
1.9067e-05
1.91132e-05
1.90685e-05
1.91138e-05
5.6309e-06
5.63229e-06
1.41876e-06
5.62496e-06
5.62582e-06
1.92496e-05
1.91384e-05
1.9253e-05
1.91391e-05
1.42073e-06
5.67237e-06
5.67298e-06
5.62643e-06
5.62714e-06
4.22867e-06
9.55868e-06
4.2318e-06
9.56317e-06
2.28923e-06
3.6396e-06
9.44641e-07
1.19159e-06
2.29403e-06
3.63364e-06
9.44297e-07
2.28927e-06
3.64159e-06
9.44679e-07
1.19239e-06
2.29401e-06
3.63631e-06
9.4443e-07
4.22868e-06
9.6294e-06
9.57025e-06
4.23666e-06
4.2287e-06
9.62927e-06
9.57296e-06
4.23715e-06
2.28895e-06
1.19155e-06
3.64726e-06
9.43888e-07
3.63392e-06
9.43902e-07
2.29049e-06
2.28901e-06
1.19227e-06
3.64897e-06
9.44016e-07
3.63665e-06
9.44045e-07
2.2906e-06
5.63646e-06
5.63566e-06
1.42051e-06
5.63203e-06
5.63178e-06
1.90822e-05
1.91256e-05
1.92448e-05
1.9146e-05
1.42231e-06
5.67511e-06
5.67458e-06
5.63398e-06
5.63363e-06
1.92431e-05
1.91472e-05
2.28867e-06
3.63995e-06
9.44621e-07
1.19138e-06
2.29398e-06
3.63355e-06
9.44254e-07
4.22783e-06
9.55772e-06
4.23161e-06
9.56077e-06
2.28869e-06
9.44738e-07
3.64144e-06
1.19218e-06
2.29396e-06
9.44459e-07
3.63488e-06
4.22784e-06
9.63016e-06
9.56926e-06
4.23531e-06
2.28833e-06
1.19133e-06
3.64681e-06
9.43797e-07
3.63379e-06
9.43822e-07
2.28972e-06
4.22785e-06
9.62769e-06
9.56893e-06
4.23527e-06
2.28832e-06
1.19203e-06
9.43971e-07
3.64586e-06
9.44019e-07
3.63507e-06
2.2897e-06
4.23001e-06
9.56094e-06
4.23288e-06
9.56558e-06
2.29003e-06
9.44458e-07
3.64124e-06
1.19193e-06
2.29424e-06
9.44303e-07
3.63594e-06
4.22988e-06
9.56086e-06
4.23277e-06
9.56527e-06
2.28988e-06
1.19229e-06
3.64957e-06
9.4414e-07
3.6372e-06
9.44151e-07
2.29144e-06
4.23003e-06
9.6302e-06
9.57533e-06
4.23821e-06
2.28975e-06
1.19193e-06
9.44049e-07
3.64861e-06
9.44041e-07
3.63622e-06
2.29129e-06
4.22989e-06
9.63018e-06
9.57449e-06
4.23775e-06
5.6356e-06
5.63511e-06
1.41994e-06
5.62912e-06
5.6289e-06
1.90764e-05
1.91156e-05
1.92457e-05
1.91379e-05
1.42168e-06
5.67037e-06
5.66941e-06
5.63007e-06
5.62986e-06
1.92432e-05
1.91373e-05
2.28952e-06
9.44449e-07
3.64158e-06
1.19175e-06
2.29425e-06
9.44286e-07
3.63589e-06
4.2292e-06
9.55944e-06
4.23261e-06
9.56252e-06
4.22911e-06
9.56062e-06
4.23244e-06
9.56434e-06
2.28924e-06
1.19205e-06
9.44121e-07
3.64612e-06
9.4415e-07
3.63565e-06
2.29051e-06
2.28918e-06
1.19174e-06
9.43989e-07
3.64811e-06
9.43991e-07
3.63611e-06
2.29051e-06
4.22917e-06
9.62773e-06
9.57044e-06
4.2362e-06
4.22908e-06
9.63012e-06
9.57283e-06
4.23624e-06
1.90785e-05
1.91214e-05
1.9079e-05
1.91209e-05
1.42164e-06
5.67344e-06
5.67381e-06
5.63115e-06
5.6318e-06
1.92486e-05
1.91442e-05
1.92509e-05
1.91439e-05
1.92693e-05
1.9298e-05
1.92737e-05
1.93041e-05
5.69064e-06
5.69181e-06
1.43536e-06
5.72348e-06
5.72606e-06
1.92361e-05
1.92953e-05
1.92421e-05
1.93016e-05
1.44133e-06
5.7334e-06
5.73667e-06
5.73023e-06
5.73303e-06
4.27036e-06
9.64506e-06
4.24711e-06
9.675e-06
2.31108e-06
3.66005e-06
9.44176e-07
1.19869e-06
2.29468e-06
3.68505e-06
9.45377e-07
2.31098e-06
3.66056e-06
9.44255e-07
1.19739e-06
2.29482e-06
3.68286e-06
9.45296e-07
4.276e-06
9.6751e-06
9.68067e-06
4.28274e-06
4.27601e-06
9.67229e-06
9.67742e-06
4.28253e-06
2.31626e-06
1.20344e-06
3.69703e-06
9.52693e-07
3.69202e-06
9.48908e-07
2.32363e-06
2.31611e-06
1.20201e-06
3.69439e-06
9.52283e-07
3.68956e-06
9.48506e-07
2.3234e-06
5.69129e-06
5.68994e-06
1.43357e-06
5.7192e-06
5.71749e-06
1.9259e-05
1.92838e-05
1.92354e-05
1.9284e-05
1.43906e-06
5.72844e-06
5.72629e-06
5.72559e-06
5.72338e-06
1.9232e-05
1.92813e-05
2.31112e-06
3.65983e-06
9.44077e-07
1.19839e-06
2.29381e-06
3.68594e-06
9.45269e-07
4.27079e-06
9.64513e-06
4.24596e-06
9.67912e-06
2.31094e-06
9.44206e-07
3.65814e-06
1.19751e-06
2.29371e-06
9.45256e-07
3.68374e-06
4.2771e-06
9.67907e-06
9.68439e-06
4.28439e-06
2.31665e-06
1.20324e-06
3.69855e-06
9.52755e-07
3.69317e-06
9.48849e-07
2.32463e-06
4.27717e-06
9.67773e-06
9.68219e-06
4.28413e-06
2.31643e-06
1.20247e-06
9.52521e-07
3.69713e-06
9.48574e-07
3.69118e-06
2.32447e-06
4.27005e-06
9.64554e-06
4.24782e-06
9.67444e-06
2.31102e-06
9.44357e-07
3.66077e-06
1.19887e-06
2.29531e-06
9.45584e-07
3.68405e-06
4.26978e-06
9.6461e-06
4.24739e-06
9.67573e-06
2.31591e-06
1.20208e-06
3.69358e-06
9.52387e-07
3.68884e-06
9.4872e-07
2.32285e-06
4.27545e-06
9.67129e-06
9.67671e-06
4.2816e-06
2.31589e-06
1.20336e-06
9.52725e-07
3.69519e-06
9.49089e-07
3.69064e-06
2.32287e-06
4.27521e-06
9.67225e-06
9.67797e-06
4.28153e-06
5.68855e-06
5.68726e-06
1.43382e-06
5.72227e-06
5.72021e-06
1.92628e-05
1.9294e-05
1.92436e-05
1.9296e-05
1.43972e-06
5.73396e-06
5.73169e-06
5.72943e-06
5.7273e-06
1.92401e-05
1.92921e-05
2.31101e-06
9.44279e-07
3.66044e-06
1.19856e-06
2.29439e-06
9.45477e-07
3.68489e-06
4.27041e-06
9.64476e-06
4.24629e-06
9.67791e-06
4.2704e-06
9.64686e-06
4.24631e-06
9.6784e-06
2.31622e-06
1.20249e-06
9.52603e-07
3.69627e-06
9.4874e-07
3.6905e-06
2.32392e-06
2.31626e-06
1.20317e-06
9.52779e-07
3.69667e-06
9.49002e-07
3.69171e-06
2.32388e-06
4.27631e-06
9.67623e-06
9.68084e-06
4.28322e-06
4.27625e-06
9.6755e-06
9.68093e-06
4.28315e-06
1.92666e-05
1.92929e-05
1.92699e-05
1.92979e-05
1.44109e-06
5.72998e-06
5.73311e-06
5.72735e-06
5.72998e-06
1.92324e-05
1.929e-05
1.92373e-05
1.92953e-05
1.91879e-05
1.90754e-05
1.9193e-05
1.9077e-05
5.72763e-06
5.73117e-06
1.43699e-06
5.65948e-06
5.66172e-06
1.90199e-05
1.90449e-05
1.90201e-05
1.90457e-05
1.43667e-06
5.59496e-06
5.59537e-06
5.64013e-06
5.64178e-06
4.26834e-06
9.65661e-06
4.28309e-06
9.58863e-06
2.32003e-06
3.69678e-06
9.5466e-07
1.20545e-06
2.32421e-06
3.6699e-06
9.55019e-07
2.31978e-06
3.69431e-06
9.54349e-07
1.20478e-06
2.32399e-06
3.67045e-06
9.54787e-07
4.25649e-06
9.52533e-06
9.56396e-06
4.22189e-06
4.25598e-06
9.5293e-06
9.56683e-06
4.22179e-06
2.31389e-06
1.20339e-06
3.62371e-06
9.53716e-07
3.65875e-06
9.54788e-07
2.29139e-06
2.31372e-06
1.20339e-06
3.62688e-06
9.53687e-07
3.66058e-06
9.54605e-07
2.29143e-06
5.72399e-06
5.72157e-06
1.4367e-06
5.66309e-06
5.66162e-06
1.91885e-05
1.90877e-05
1.90353e-05
1.90598e-05
1.43684e-06
5.60269e-06
5.60168e-06
5.64602e-06
5.64406e-06
1.90347e-05
1.9059e-05
2.32092e-06
3.69834e-06
9.54779e-07
1.20537e-06
2.32524e-06
3.67105e-06
9.55141e-07
4.26968e-06
9.66213e-06
4.28488e-06
9.5889e-06
2.32082e-06
9.5465e-07
3.69711e-06
1.20528e-06
2.32507e-06
9.5508e-07
3.67197e-06
4.2568e-06
9.52457e-06
9.56419e-06
4.22073e-06
2.31444e-06
1.20332e-06
3.62343e-06
9.53755e-07
3.65944e-06
9.54897e-07
2.29079e-06
4.25669e-06
9.52619e-06
9.56567e-06
4.22064e-06
2.31435e-06
1.20365e-06
9.53836e-07
3.6248e-06
9.54871e-07
3.66071e-06
2.2908e-06
4.26736e-06
9.65542e-06
4.2821e-06
9.58868e-06
2.31921e-06
9.54607e-07
3.6949e-06
1.20523e-06
2.32339e-06
9.54944e-07
3.66848e-06
4.26768e-06
9.6559e-06
4.28207e-06
9.58604e-06
2.31318e-06
1.20333e-06
3.62685e-06
9.53709e-07
3.65984e-06
9.54607e-07
2.29157e-06
4.25542e-06
9.53057e-06
9.56732e-06
4.22214e-06
2.31315e-06
1.20328e-06
9.53688e-07
3.62402e-06
9.54719e-07
3.65784e-06
2.29139e-06
4.2556e-06
9.52682e-06
9.56397e-06
4.22205e-06
5.72979e-06
5.72751e-06
1.43728e-06
5.66424e-06
5.66244e-06
1.91936e-05
1.90824e-05
1.90276e-05
1.90532e-05
1.43722e-06
5.59827e-06
5.59721e-06
5.64457e-06
5.64301e-06
1.90265e-05
1.90517e-05
2.32014e-06
9.54727e-07
3.69641e-06
1.20517e-06
2.32444e-06
9.55074e-07
3.66964e-06
4.26887e-06
9.66057e-06
4.28381e-06
9.5885e-06
4.26885e-06
9.65909e-06
4.28375e-06
9.58627e-06
2.3139e-06
1.20358e-06
9.53869e-07
3.62476e-06
9.54878e-07
3.66021e-06
2.29095e-06
2.31377e-06
1.20321e-06
9.5374e-07
3.6237e-06
9.54836e-07
3.65846e-06
2.2908e-06
4.25598e-06
9.52695e-06
9.56568e-06
4.22098e-06
4.25595e-06
9.52533e-06
9.56347e-06
4.22089e-06
1.91852e-05
1.90771e-05
1.91894e-05
1.90777e-05
1.43633e-06
5.59611e-06
5.59635e-06
5.63911e-06
5.64062e-06
1.90243e-05
1.90478e-05
1.90234e-05
1.90476e-05
1.90219e-05
1.91025e-05
1.90223e-05
1.91054e-05
5.58785e-06
5.58813e-06
1.41252e-06
5.58263e-06
5.5829e-06
1.9282e-05
1.91396e-05
1.9288e-05
1.91436e-05
1.41394e-06
5.65962e-06
5.66221e-06
5.58866e-06
5.58926e-06
4.2031e-06
9.52497e-06
4.21419e-06
9.5306e-06
2.27286e-06
3.61693e-06
9.50658e-07
1.18997e-06
2.28508e-06
3.60719e-06
9.47384e-07
2.27298e-06
3.62044e-06
9.50923e-07
1.19084e-06
2.28518e-06
3.61008e-06
9.47651e-07
4.20246e-06
9.62727e-06
9.54497e-06
4.21395e-06
4.20269e-06
9.62501e-06
9.54614e-06
4.2142e-06
2.27185e-06
1.18908e-06
3.63002e-06
9.44972e-07
3.60769e-06
9.45497e-07
2.27334e-06
2.27197e-06
1.18955e-06
3.62942e-06
9.45054e-07
3.61046e-06
9.4567e-07
2.2734e-06
5.59618e-06
5.59487e-06
1.41429e-06
5.59006e-06
5.58909e-06
1.9036e-05
1.91046e-05
1.92741e-05
1.91388e-05
1.41555e-06
5.65818e-06
5.65637e-06
5.59478e-06
5.59354e-06
1.92713e-05
1.91374e-05
2.272e-06
3.61648e-06
9.50542e-07
1.1897e-06
2.28425e-06
3.60678e-06
9.4721e-07
4.20189e-06
9.52193e-06
4.21298e-06
9.52922e-06
2.27206e-06
9.50805e-07
3.61788e-06
1.19053e-06
2.28426e-06
9.47467e-07
3.6081e-06
4.20152e-06
9.63074e-06
9.54637e-06
4.21497e-06
2.27112e-06
1.18881e-06
3.63092e-06
9.4486e-07
3.60732e-06
9.45346e-07
2.27316e-06
4.20163e-06
9.62994e-06
9.54713e-06
4.21507e-06
2.27116e-06
1.18945e-06
9.4501e-07
3.63134e-06
9.45547e-07
3.60865e-06
2.27321e-06
4.20374e-06
9.52634e-06
4.21471e-06
9.53185e-06
2.27314e-06
9.50717e-07
3.61754e-06
1.18986e-06
2.2852e-06
9.47437e-07
3.60777e-06
4.20339e-06
9.52281e-06