/*--------------------------------*- C++ -*----------------------------------*\
| =========                 |                                                 |
| \\      /  F ield         | OpenFOAM: The Open Source CFD Toolbox           |
|  \\    /   O peration     | Version:  v2006                                 |
|   \\  /    A nd           | Website:  www.openfoam.com                      |
|    \\/     M anipulation  |                                                 |
\*---------------------------------------------------------------------------*/
FoamFile
{
    version     2.0;
    format      ascii;
    class       volScalarField;
    location    "1000";
    object      p;
}
// * * * * * * * * * * * * * * * * * * * * * * * * * * * * * * * * * * * * * //

dimensions      [0 2 -2 0 0 0 0];


internalField   nonuniform List<scalar> 
42616
(
0.00071665
0.000716601
0.000716612
0.000718633
0.000681212
0.000681111
0.000681088
0.000683081
0.000646291
0.000646227
0.000646262
0.000648289
0.000609813
0.000609791
0.00060977
0.000611823
0.000573909
0.000573819
0.000573818
0.000575801
0.000539383
0.000539394
0.000539416
0.00054149
0.000503255
0.000503195
0.000503172
0.000505221
0.0004671
0.000466994
0.000467011
0.000468992
0.000431696
0.000431665
0.000431654
0.000433684
0.000396367
0.000396458
0.000396475
0.0003986
0.000359058
0.000358989
0.000359004
0.000361097
0.000323964
0.000323767
0.000323703
0.000325385
0.000290571
0.000290709
0.000290819
0.000293148
0.000251215
0.00025124
0.000251269
0.000253465
0.000214626
0.000214572
0.000214445
0.00021623
0.000181102
0.000181169
0.000181357
0.000183586
0.000144855
0.00014475
0.000144672
0.000146631
0.000108853
0.000108813
0.000108786
0.00011078
7.20933e-05
7.19446e-05
7.20109e-05
7.40455e-05
3.66027e-05
3.63525e-05
3.6254e-05
3.83321e-05
6.89502e-06
7.99473e-06
8.00719e-06
6.4123e-06
0.000723502
0.000725553
0.000725547
0.000723496
0.000725554
0.000725557
0.000725538
0.000725523
0.000723512
0.000725548
0.000725525
0.000723484
0.000718626
0.000687793
0.000716595
0.000716604
0.00068984
0.000689871
0.000718635
0.000687831
0.000716598
0.000716615
0.000689836
0.00068985
0.000716599
0.000689881
0.000689884
0.00071865
0.000687804
0.000716602
0.00068986
0.000689881
0.000687834
0.000683047
0.000653107
0.000681089
0.000681101
0.000655063
0.00065502
0.000683071
0.000653047
0.000681084
0.000681079
0.000655064
0.000655038
0.00068112
0.000655018
0.000655044
0.000683045
0.000653076
0.000681115
0.000655035
0.000655045
0.000653079
0.00064832
0.000616839
0.00064628
0.000646232
0.000618993
0.000619019
0.000648264
0.000616873
0.000646285
0.000646267
0.000618996
0.000619019
0.00064625
0.000619015
0.000618986
0.000648302
0.000616862
0.000646256
0.000619015
0.000618989
0.000616836
0.000611821
0.000580533
0.000609753
0.000609792
0.000582547
0.000582564
0.000611858
0.000580543
0.000609751
0.000609772
0.000582539
0.000582541
0.000609757
0.000582568
0.000582558
0.00061184
0.000580525
0.000609754
0.000582544
0.00058255
0.000580539
0.000575801
0.0005462
0.000573827
0.000573816
0.000548105
0.000548057
0.000575794
0.000546147
0.000573823
0.000573815
0.000548113
0.000548093
0.000573828
0.000548056
0.000548105
0.00057579
0.000546182
0.000573825
0.000548091
0.000548113
0.000546206
0.00054147
0.00051018
0.000539426
0.000539394
0.00051234
0.000512387
0.000541435
0.000510237
0.000539434
0.000539416
0.000512333
0.000512356
0.000539445
0.000512395
0.000512376
0.000541459
0.000510207
0.000539452
0.000512365
0.000512371
0.000510217
0.000505197
0.000473896
0.000503146
0.000503189
0.000475929
0.000475918
0.000505243
0.000473862
0.000503139
0.000503165
0.000475932
0.000475933
0.000503162
0.000475907
0.000475863
0.000505222
0.000473882
0.000503156
0.000475922
0.000475866
0.00047382
0.000469059
0.000438449
0.000467035
0.000467008
0.000440466
0.000440451
0.000469016
0.000438438
0.00046704
0.000467025
0.000440464
0.000440444
0.000466967
0.00044045
0.000440461
0.000469036
0.000438427
0.000466971
0.000440442
0.00044046
0.000438456
0.000433666
0.000403371
0.000431665
0.000431663
0.000405327
0.00040534
0.000433665
0.000403384
0.000431661
0.000431653
0.000405328
0.000405345
0.000431679
0.000405345
0.000405361
0.000433655
0.000403394
0.000431675
0.000405352
0.000405364
0.00040342
0.000398538
0.000366211
0.000396448
0.000396452
0.000368481
0.000368496
0.000398546
0.000366229
0.00039645
0.000396465
0.000368484
0.000368497
0.000396502
0.000368494
0.00036855
0.000398562
0.000366244
0.000396506
0.000368516
0.000368556
0.000366299
0.000361034
0.000330033
0.000358968
0.000358987
0.000331965
0.000332006
0.000361065
0.000330067
0.000358968
0.000358989
0.000331953
0.000331951
0.000359009
0.000331975
0.000331778
0.000361075
0.000329997
0.000359013
0.000331918
0.000331767
0.00032981
0.000325621
0.000297825
0.000323807
0.000323815
0.000299634
0.000299521
0.000325615
0.000297658
0.000323793
0.000323756
0.000299646
0.000299568
0.000323578
0.000299489
0.000299601
0.000325548
0.000297737
0.000323563
0.000299528
0.000299605
0.000297876
0.000292976
0.000258704
0.000290803
0.000290687
0.00026119
0.000261298
0.000292846
0.00025888
0.000290823
0.000290796
0.000261215
0.00026136
0.000290989
0.000261369
0.000261525
0.000292956
0.000258932
0.000291013
0.00026144
0.000261548
0.00025905
0.000253181
0.000221205
0.000251054
0.000251216
0.000223065
0.000223112
0.000253365
0.000221194
0.000251067
0.000251205
0.000223023
0.000222943
0.000251286
0.000223034
0.000222665
0.000253387
0.00022102
0.000251288
0.000222864
0.000222621
0.00022074
0.000216669
0.000188088
0.000214715
0.000214668
0.000189915
0.000189767
0.00021659
0.000187912
0.000214679
0.000214542
0.000189936
0.000189878
0.000214284
0.000189741
0.000189942
0.000216454
0.000188074
0.000214245
0.000189866
0.000189962
0.000188218
0.00018335
0.000151561
0.000181246
0.000181136
0.000153771
0.00015387
0.000183233
0.000151695
0.000181282
0.000181294
0.000153777
0.000153855
0.000181476
0.000153925
0.000153945
0.000183413
0.000151657
0.000181517
0.000153918
0.000153959
0.000151673
0.000146586
0.000115767
0.000144614
0.000144732
0.000117783
0.000117829
0.000146709
0.000115779
0.000144601
0.000144652
0.000117757
0.000117742
0.000144644
0.000117791
0.000117647
0.000146642
0.00011571
0.000144632
0.000117701
0.000117619
0.000115642
0.00011087
7.91764e-05
0.000108847
0.000108841
8.12871e-05
8.11837e-05
0.000110856
7.90501e-05
0.000108837
0.000108814
8.13079e-05
8.12702e-05
0.00010876
8.11853e-05
8.1273e-05
0.000110817
7.91442e-05
0.000108747
8.12728e-05
8.12953e-05
7.9147e-05
7.4078e-05
4.29844e-05
7.20377e-05
7.19483e-05
4.48712e-05
4.49616e-05
7.397e-05
4.31285e-05
7.2054e-05
7.20155e-05
4.48547e-05
4.48813e-05
7.20045e-05
4.4969e-05
4.49467e-05
7.40536e-05
4.30286e-05
7.20212e-05
4.48876e-05
4.49315e-05
4.31128e-05
3.81599e-05
1.00016e-05
3.61966e-05
3.63207e-05
1.30063e-05
1.30323e-05
3.83124e-05
1.00179e-05
3.61746e-05
3.6226e-05
1.30022e-05
1.30196e-05
3.63625e-05
1.30814e-05
1.30861e-05
3.82146e-05
1.00161e-05
3.63373e-05
1.30709e-05
1.30835e-05
1.00544e-05
6.42901e-06
7.99602e-06
8.00664e-06
6.40298e-06
8.00059e-06
8.01444e-06
6.87236e-06
6.89589e-06
6.84774e-06
8.00276e-06
6.4212e-06
8.01122e-06
0.000725569
0.00072556
0.000725562
0.000725542
0.000705388
0.0007188
0.000718824
0.00070535
0.000718796
0.000705391
0.00070539
0.000718805
0.000718835
0.00070535
0.000716652
0.00071665
0.000716635
0.000689985
0.000690015
0.000690003
0.000690021
0.000705458
0.000718762
0.000716625
0.000707651
0.000718778
0.000705398
0.000707706
0.000718807
0.000705385
0.000705461
0.000716628
0.000718777
0.000707654
0.00071879
0.000707707
0.000705397
0.000718805
0.000718809
0.000705571
0.000705381
0.000705383
0.000670161
0.000683209
0.00068318
0.00067022
0.000683234
0.000670214
0.000670149
0.000683203
0.000683164
0.000670216
0.000681229
0.000681215
0.000681238
0.000655104
0.000655068
0.000655082
0.000655093
0.000670227
0.000683181
0.000681152
0.0006724
0.000683147
0.000670231
0.000672423
0.000683218
0.00067021
0.000670214
0.000681138
0.000683156
0.000672387
0.000683128
0.000672413
0.000670215
0.000683222
0.000683218
0.000670432
0.000670201
0.000670196
0.000635048
0.00064839
0.000648409
0.000635023
0.000648306
0.000635007
0.000635069
0.0006484
0.000648429
0.000635033
0.000646255
0.000646278
0.000646273
0.000619037
0.000619053
0.000619054
0.000619027
0.000635114
0.000648358
0.00064622
0.000637289
0.000648387
0.000635051
0.000637299
0.000648348
0.000635021
0.000635144
0.000646239
0.000648398
0.000637325
0.00064841
0.000637322
0.000635077
0.000648337
0.000648343
0.00063521
0.000634999
0.000635005
0.000598432
0.000612155
0.000612191
0.000598482
0.000612224
0.000598557
0.000598407
0.000612149
0.000612183
0.000598469
0.000609845
0.000609829
0.000609814
0.000582661
0.000582683
0.000582665
0.000582671
0.000598397
0.000612115
0.000609828
0.000600586
0.000612087
0.000598448
0.000600637
0.000612202
0.000598535
0.000598366
0.000609817
0.000612096
0.000600552
0.000612077
0.000600615
0.000598411
0.000612193
0.000612192
0.000598388
0.00059851
0.000598505
0.000563043
0.000576111
0.000576054
0.000563107
0.000576109
0.000563064
0.000563057
0.000576111
0.000576052
0.000563117
0.00057391
0.000573908
0.000573915
0.000548103
0.000548066
0.000548092
0.000548107
0.000563092
0.000576033
0.000573816
0.000565198
0.000575944
0.000563088
0.000565187
0.000576112
0.000563084
0.000563108
0.000573811
0.000576033
0.00056522
0.000575938
0.000565197
0.000563115
0.000576079
0.000576078
0.000563295
0.000563035
0.000563038
0.000528173
0.000541384
0.000541442
0.000528101
0.000541312
0.000528112
0.000528168
0.000541387
0.000541455
0.000528098
0.000539359
0.000539375
0.000539401
0.000512434
0.000512473
0.000512447
0.000512463
0.000528348
0.000541412
0.000539379
0.000530561
0.000541504
0.000528206
0.000530578
0.000541322
0.000528102
0.000528343
0.000539397
0.000541425
0.000530561
0.000541527
0.000530586
0.000528194
0.000541357
0.00054136
0.000528532
0.000528134
0.000528134
0.00049184
0.000505459
0.000505476
0.000491926
0.000505544
0.000491965
0.000491837
0.00050545
0.000505459
0.000491923
0.000503298
0.000503274
0.000503265
0.000476029
0.000476022
0.00047603
0.000475971
0.000491806
0.00050545
0.000503255
0.000494024
0.000505415
0.000491874
0.000494055
0.000505542
0.000491971
0.0004918
0.000503236
0.000505431
0.000494012
0.000505398
0.000494045
0.000491879
0.000505532
0.000505528
0.000491832
0.000491934
0.000491934
0.000455995
0.000469404
0.00046936
0.000455992
0.000469349
0.000455945
0.000456001
0.00046941
0.000469372
0.000456002
0.00046708
0.000467089
0.000467037
0.000440524
0.000440507
0.000440505
0.000440527
0.000456022
0.000469302
0.000466966
0.000458129
0.000469199
0.000455978
0.000458118
0.000469354
0.000455941
0.000456026
0.000466976
0.000469306
0.00045814
0.000469217
0.000458127
0.000455979
0.000469334
0.000469338
0.000456101
0.000455929
0.000455931
0.000420621
0.00043375
0.000433783
0.000420662
0.000433784
0.00042072
0.000420612
0.000433742
0.000433772
0.000420657
0.000431694
0.000431689
0.000431711
0.000405296
0.000405304
0.000405313
0.000405342
0.000420707
0.000433737
0.000431691
0.000422894
0.000433768
0.000420708
0.000422917
0.000433767
0.000420711
0.000420698
0.000431685
0.000433719
0.000422888
0.000433755
0.000422912
0.000420699
0.000433749
0.000433745
0.000420906
0.000420643
0.000420639
0.000385149
0.000398773
0.00039874
0.000385123
0.000398682
0.00038507
0.000385162
0.000398777
0.000398734
0.000385129
0.000396371
0.000396384
0.000396426
0.000368502
0.000368504
0.000368524
0.000368566
0.000385236
0.000398749
0.000396396
0.000387344
0.000398682
0.000385171
0.000387319
0.000398695
0.000385092
0.000385262
0.00039641
0.000398772
0.000387367
0.000398698
0.000387337
0.000385201
0.000398755
0.00039876
0.000385322
0.000385182
0.000385186
0.000347355
0.00036137
0.000361471
0.000347425
0.000361446
0.000347647
0.000347359
0.000361374
0.000361484
0.000347413
0.000359081
0.000359076
0.000359069
0.000332215
0.00033223
0.000332187
0.000332069
0.00034727
0.000361335
0.000359036
0.000349608
0.000361405
0.000347328
0.000349729
0.000361456
0.000347603
0.000347264
0.000359083
0.000361355
0.0003496
0.000361424
0.000349726
0.00034731
0.000361498
0.000361506
0.000347266
0.000347447
0.000347444
0.00031359
0.000325789
0.000325653
0.000313711
0.000325777
0.000313517
0.000313551
0.000325767
0.000325615
0.000313696
0.000323956
0.000323908
0.000323774
0.000299378
0.000299321
0.000299355
0.000299414
0.000313582
0.000325655
0.000323695
0.00031575
0.000325477
0.000313691
0.000315654
0.000325704
0.000313497
0.000313556
0.000323656
0.000325584
0.000315705
0.000325429
0.000315619
0.000313645
0.000325466
0.00032546
0.000313902
0.000313409
0.000313397
0.00027879
0.000292487
0.000292641
0.000278651
0.000292338
0.000278678
0.000278902
0.000292538
0.00029269
0.000278698
0.000290503
0.000290576
0.00029069
0.000261223
0.000261361
0.000261403
0.000261545
0.000279099
0.000292602
0.000290731
0.0002813
0.000292953
0.000278832
0.000281446
0.000292411
0.00027879
0.000279202
0.000290807
0.000292702
0.000281435
0.000293024
0.000281542
0.000278951
0.000292578
0.000292591
0.00027943
0.000278996
0.000279009
0.000239497
0.000254043
0.00025394
0.000239718
0.000254409
0.000239911
0.000239434
0.000254046
0.000253972
0.000239672
0.000251391
0.000251325
0.000251366
0.000223118
0.000223146
0.000223016
0.000222835
0.000239089
0.000253946
0.000251387
0.000241349
0.000253882
0.000239519
0.000241443
0.000254388
0.000239835
0.000238997
0.000251389
0.000253961
0.000241256
0.000253916
0.000241382
0.000239419
0.000254258
0.000254267
0.000238725
0.000239634
0.000239618
0.000204453
0.000217261
0.000217112
0.000204493
0.000217122
0.000204216
0.000204433
0.000217217
0.000217032
0.000204488
0.000214573
0.000214466
0.000214262
0.000189751
0.000189636
0.000189738
0.000189799
0.00020437
0.000217
0.000214346
0.000206327
0.000216682
0.000204388
0.000206138
0.000217051
0.000204228
0.000204345
0.000214239
0.000216904
0.00020628
0.00021657
0.000206086
0.000204384
0.000216875
0.000216849
0.000204513
0.000204242
0.000204232
0.000169502
0.000182764
0.00018291
0.000169403
0.000182702
0.000169465
0.000169566
0.000182806
0.000182992
0.000169431
0.000181032
0.000181128
0.000181254
0.000154036
0.00015412
0.000154132
0.0001542
0.000169934
0.000182919
0.00018124
0.000172277
0.000183315
0.00016963
0.000172442
0.000182787
0.000169524
0.000170032
0.000181356
0.000183049
0.00017243
0.000183445
0.00017256
0.000169717
0.00018294
0.000182941
0.000170437
0.000169637
0.000169651
0.000133452
0.000146848
0.000146794
0.00013354
0.000147025
0.00013357
0.000133378
0.000146813
0.000146755
0.0001335
0.000144968
0.000144911
0.000144916
0.00011784
0.000117878
0.000117803
0.000117739
0.000133327
0.000146823
0.00014484
0.000135672
0.000146764
0.000133537
0.000135677
0.000146979
0.000133494
0.000133228
0.000144792
0.000146752
0.000135552
0.00014672
0.000135597
0.000133443
0.000146865
0.000146848
0.000133347
0.000133453
0.000133438
9.7573e-05
0.00011116
0.000111179
9.74955e-05
0.000111104
9.73461e-05
9.7608e-05
0.000111155
0.000111156
9.75173e-05
0.000108855
0.00010882
0.000108776
8.12929e-05
8.12102e-05
8.12722e-05
8.12824e-05
9.76209e-05
0.000111087
0.000108742
9.97148e-05
0.000111023
9.7521e-05
9.96841e-05
0.000111086
9.73896e-05
9.76559e-05
0.000108705
0.000111061
9.97498e-05
0.00011101
9.96905e-05
9.75807e-05
0.000111051
0.000111039
9.77215e-05
9.74755e-05
9.74732e-05
6.05847e-05
7.42514e-05
7.42959e-05
6.07321e-05
7.44087e-05
6.06729e-05
6.0573e-05
7.4273e-05
7.43436e-05
6.07237e-05
7.20242e-05
7.20681e-05
7.20739e-05
4.50425e-05
4.50913e-05
4.50421e-05
4.51035e-05
6.05215e-05
7.40806e-05
7.20446e-05
6.27596e-05
7.41969e-05
6.07238e-05
6.28404e-05
7.44523e-05
6.06387e-05
6.05282e-05
7.20896e-05
7.41463e-05
6.27961e-05
7.42531e-05
6.28661e-05
6.06945e-05
7.42185e-05
7.42381e-05
6.07006e-05
6.0766e-05
6.07621e-05
2.43333e-05
3.8151e-05
3.81919e-05
2.37218e-05
3.8576e-05
2.31819e-05
2.42843e-05
3.81171e-05
3.81393e-05
2.37018e-05
3.67193e-05
3.66436e-05
3.67361e-05
1.32044e-05
1.32443e-05
1.32369e-05
1.32684e-05
2.49181e-05
3.82135e-05
3.64538e-05
2.7819e-05
3.83294e-05
2.4423e-05
2.80227e-05
3.85105e-05
2.31342e-05
2.48543e-05
3.63828e-05
3.81315e-05
2.77441e-05
3.82597e-05
2.79616e-05
2.43587e-05
3.81206e-05
3.81041e-05
2.57788e-05
2.41851e-05
2.41708e-05
3.41312e-06
5.76247e-06
5.25603e-06
3.09142e-07
2.96506e-06
-3.45332e-06
3.43392e-06
5.75342e-06
5.24885e-06
3.15862e-07
8.69493e-07
7.98656e-06
7.98943e-06
7.67559e-06
8.40108e-06
3.93647e-06
3.94446e-06
2.12091e-06
4.73811e-06
7.36876e-06
1.55433e-06
6.26462e-06
5.71204e-06
-1.7103e-06
2.95956e-06
-3.44299e-06
2.14718e-06
7.38842e-06
4.74296e-06
1.5771e-06
6.27291e-06
-1.68754e-06
5.72974e-06
2.02005e-06
2.01716e-06
9.70438e-07
3.66574e-06
3.6688e-06
0.000723303
0.000736685
0.000723307
0.000736687
0.000736509
0.000723299
0.000723303
0.000736692
0.000736695
0.000736713
0.000723316
0.000736724
0.000723341
0.000736714
0.000723311
0.000736703
0.000723343
0.000736653
0.000734468
0.000723343
0.000725556
0.000736691
0.000734456
0.000723404
0.000736652
0.000734454
0.00072334
0.000725554
0.000736675
0.000734452
0.000723405
0.000723304
0.000736674
0.000736487
0.000723301
0.000723298
0.000736677
0.000736672
0.000723302
0.000736667
0.000736718
0.000723322
0.000736729
0.000723352
0.000736656
0.000734468
0.000723349
0.000725557
0.000736693
0.000734456
0.000723415
0.000736721
0.000723328
0.000736719
0.000723354
0.000736655
0.000734459
0.000725557
0.000723358
0.000734453
0.000736686
0.000723417
0.000736618
0.000734442
0.000723334
0.000725536
0.000736659
0.000734428
0.000723393
0.000736683
0.000723308
0.00073669
0.000723336
0.000736614
0.000734418
0.00072553
0.000723342
0.00073442
0.000736648
0.000723392
0.00073668
0.000723315
0.00073669
0.000723336
0.000723319
0.000736684
0.00073649
0.000723315
0.00072331
0.000736692
0.000736684
0.000723314
0.000736675
0.000736621
0.000734447
0.00072554
0.000723351
0.00073443
0.000736669
0.000723405
0.000736617
0.000734418
0.000725532
0.000723347
0.00073442
0.000736651
0.000723403
0.000736688
0.000723322
0.000736705
0.000723348
0.000736685
0.000723321
0.000736694
0.000723347
0.000736454
0.000723302
0.000723305
0.00073667
0.000736671
0.000723307
0.000736667
0.000723311
0.000736668
0.000718786
0.000705364
0.00071879
0.000705367
0.000718794
0.000718798
0.000705526
0.000705348
0.000705353
0.000687639
0.000700887
0.000687637
0.000700889
0.000700681
0.00068761
0.000687608
0.000700864
0.000700866
0.00070539
0.0007188
0.000718827
0.00070537
0.000705434
0.000718761
0.000716629
0.000707622
0.000718777
0.000705365
0.000707693
0.000705437
0.000718763
0.000716632
0.000707647
0.000718779
0.000705386
0.000707701
0.000700882
0.000687609
0.000700853
0.000687601
0.000700884
0.000687631
0.000700881
0.0006876
0.000700823
0.000698689
0.000687612
0.000689913
0.000700805
0.000698775
0.000687646
0.000700827
0.000698722
0.000687635
0.000689923
0.000700832
0.000698786
0.000687648
0.000718805
0.000718802
0.00070556
0.000705375
0.000705384
0.000718795
0.0007054
0.000687653
0.000700911
0.000700715
0.000687624
0.000687628
0.000700891
0.000700898
0.000687658
0.000700918
0.000705436
0.000718766
0.00071663
0.000707625
0.000718788
0.000705363
0.000707694
0.000705392
0.000718815
0.000718837
0.000705369
0.000705439
0.000716634
0.000718779
0.00070765
0.000718791
0.000707702
0.000705387
0.00070088
0.000687604
0.000700851
0.000687586
0.00070082
0.000698689
0.000687606
0.000689908
0.000700803
0.000698773
0.000687632
0.000700881
0.000687609
0.000700871
0.000687585
0.000700823
0.000698712
0.000689913
0.000687608
0.000698782
0.000700825
0.000687632
0.000705409
0.0007188
0.000718826
0.000705383
0.000705459
0.00071662
0.000718767
0.000707653
0.000718778
0.000707703
0.000705399
0.000705409
0.000718808
0.000718826
0.000705382
0.00070085
0.00069873
0.000687646
0.000689942
0.000700845
0.0006988
0.000687673
0.000700908
0.000687642
0.000700895
0.00068762
0.000700852
0.000698732
0.000689944
0.000687637
0.000698802
0.000700844
0.000687674
0.000700908
0.000687631
0.000700889
0.000687622
0.000718816
0.000718813
0.000705559
0.000705373
0.000705378
0.000718806
0.000705391
0.000687636
0.000700901
0.000700707
0.000687606
0.000687611
0.000700882
0.000700888
0.000687642
0.000700906
0.000705462
0.000716622
0.000718776
0.000707656
0.000718789
0.000707705
0.000705401
0.000705411
0.000718814
0.000718837
0.000705381
0.000705412
0.000718814
0.000718837
0.000705383
0.000700848
0.00069872
0.000689932
0.00068762
0.000698797
0.000700837
0.000687657
0.00070085
0.000698732
0.000689939
0.00068763
0.0006988
0.000700844
0.00068766
0.000700905
0.00068762
0.000700885
0.000687605
0.000700906
0.000687624
0.000700887
0.000687608
0.000718799
0.000705392
0.000718804
0.000705393
0.000700725
0.000687629
0.000687624
0.000700895
0.000700895
0.000687657
0.00070091
0.000687651
0.00070091
0.000683229
0.000670237
0.000683226
0.000670234
0.000683207
0.000683203
0.000670428
0.000670199
0.000670194
0.000652769
0.000665879
0.000652774
0.000665878
0.000665722
0.000652789
0.000652794
0.000665861
0.000665858
0.000670158
0.000683223
0.000683178
0.000670213
0.000670224
0.000683155
0.00068113
0.000672406
0.000683124
0.000670238
0.000672415
0.000670221
0.000683168
0.000681135
0.000672394
0.000683125
0.000670226
0.000672412
0.000665808
0.000652826
0.000665881
0.000652836
0.000665805
0.000652796
0.000665864
0.000652833
0.000665773
0.000663744
0.000652901
0.000655027
0.000665843
0.000663731
0.000652929
0.000665769
0.000663715
0.000652863
0.000655013
0.00066582
0.00066372
0.000652923
0.000683208
0.000683218
0.000670413
0.000670178
0.000670182
0.000683242
0.000670216
0.000652743
0.000665844
0.0006657
0.000652758
0.000652759
0.000665829
0.000665832
0.000652745
0.000665847
0.000670213
0.000683148
0.000681123
0.000672401
0.000683111
0.000670232
0.000672409
0.000670146
0.000683201
0.000683163
0.000670199
0.000670209
0.000681122
0.000683144
0.000672382
0.000683108
0.000672403
0.000670213
0.0006658
0.000652836
0.000665879
0.000652849
0.000665766
0.000663743
0.00065291
0.000655032
0.000665839
0.000663729
0.00065294
0.000665797
0.000652828
0.000665861
0.000652848
0.000665762
0.000663717
0.000655024
0.000652897
0.00066372
0.000665815
0.000652937
0.000670164
0.000683234
0.000683195
0.000670215
0.00067023
0.000681156
0.000683175
0.000672417
0.000683149
0.00067243
0.000670241
0.000670166
0.000683226
0.000683196
0.000670223
0.000665771
0.000663717
0.000652856
0.000655008
0.000665824
0.000663722
0.00065291
0.000665807
0.000652791
0.000665864
0.00065282
0.000665773
0.000663739
0.000655016
0.000652879
0.000663731
0.000665838
0.000652911
0.000665809
0.000652808
0.000665877
0.000652821
0.000683196
0.000683203
0.000670401
0.000670168
0.000670171
0.000683225
0.000670212
0.000652771
0.000665857
0.000665696
0.00065279
0.000652787
0.00066583
0.000665832
0.000652768
0.000665856
0.000670217
0.000681148
0.000683167
0.000672412
0.000683132
0.000672423
0.000670234
0.000670151
0.000683212
0.000683177
0.000670204
0.000670154
0.000683219
0.00068318
0.000670219
0.000665762
0.000663718
0.000655017
0.000652889
0.000663721
0.000665816
0.000652923
0.000665765
0.000663737
0.000655021
0.000652888
0.000663729
0.000665834
0.000652924
0.000665798
0.00065282
0.000665861
0.000652835
0.0006658
0.000652818
0.000665876
0.000652835
0.000683244
0.000670239
0.000683239
0.000670236
0.00066572
0.000652771
0.000652776
0.000665855
0.000665853
0.000652753
0.000665874
0.000652757
0.000665874
0.000648341
0.000635008
0.000648346
0.000635014
0.000648354
0.00064836
0.000635238
0.000635011
0.000635017
0.000616798
0.000630467
0.000616797
0.000630472
0.000630283
0.000616806
0.000616807
0.000630486
0.000630492
0.000635049
0.000648368
0.000648406
0.000635015
0.000635134
0.000648397
0.000646244
0.000637323
0.00064841
0.000635068
0.000637321
0.000635133
0.000648365
0.00064623
0.000637296
0.000648405
0.00063506
0.000637312
0.000630496
0.000616778
0.000630478
0.000616829
0.000630498
0.000616795
0.000630474
0.000616832
0.00063045
0.000628206
0.000616799
0.000619055
0.000630452
0.000628252
0.000616838
0.000630451
0.00062821
0.00061682
0.000619063
0.000630448
0.00062825
0.000616843
0.000648318
0.00064833
0.000635214
0.00063501
0.000635007
0.000648313
0.000635003
0.000616822
0.000630473
0.000630275
0.000616832
0.000616829
0.000630491
0.000630489
0.000616822
0.000630469
0.00063516
0.000648408
0.000646255
0.000637331
0.00064843
0.000635079
0.000637336
0.000635072
0.000648393
0.000648428
0.000635032
0.000635162
0.00064625
0.000648408
0.000637332
0.000648427
0.000637335
0.000635085
0.000630513
0.000616775
0.000630486
0.000616828
0.000630471
0.000628214
0.000616799
0.000619061
0.000630461
0.000628265
0.000616838
0.000630516
0.000616784
0.000630487
0.00061683
0.000630474
0.000628232
0.000619069
0.000616811
0.000628269
0.000630465
0.000616841
0.000635034
0.000648364
0.000648391
0.000635007
0.000635113
0.000646226
0.000648375
0.000637294
0.000648389
0.0006373
0.00063505
0.000635032
0.000648369
0.000648391
0.000635008
0.000630436
0.000628203
0.000616818
0.000619055
0.000630442
0.000628237
0.00061684
0.000630487
0.000616794
0.000630468
0.000616829
0.000630434
0.000628187
0.000619044
0.000616798
0.000628233
0.000630436
0.000616836
0.000630484
0.000616778
0.000630467
0.000616826
0.000648365
0.00064836
0.000635249
0.000635027
0.000635024
0.000648344
0.000635018
0.000616807
0.00063048
0.0006303
0.00061682
0.000616818
0.000630503
0.0006305
0.000616806
0.000630478
0.000635139
0.000646237
0.000648386
0.000637302
0.00064841
0.000637315
0.000635063
0.000635057
0.000648383
0.000648413
0.000635026
0.000635053
0.000648381
0.000648412
0.000635019
0.000630459
0.000628225
0.000619061
0.000616809
0.000628257
0.000630459
0.000616837
0.000630454
0.000628194
0.00061905
0.000616799
0.000628246
0.000630449
0.000616834
0.000630504
0.000616783
0.000630482
0.000616826
0.000630501
0.000616775
0.000630475
0.000616824
0.000648324
0.000634996
0.00064833
0.000635002
0.000630262
0.000616807
0.000616809
0.000630477
0.000630484
0.000616801
0.000630458
0.000616799
0.000630463
0.000612199
0.000598546
0.000612196
0.000598539
0.000612189
0.000612187
0.000598373
0.000598509
0.000598501
0.000580557
0.00059398
0.000580556
0.000593974
0.000593446
0.000580518
0.000580515
0.000593946
0.00059394
0.000598434
0.000612177
0.000612194
0.000598501
0.000598382
0.000612087
0.000609816
0.000600537
0.000612082
0.00059842
0.000600619
0.000598388
0.000612115
0.00060983
0.000600585
0.000612087
0.000598444
0.000600634
0.000593867
0.00058054
0.000593928
0.000580491
0.000593867
0.000580545
0.000593942
0.000580488
0.000593695
0.000591447
0.000580508
0.000582576
0.000593805
0.000591522
0.000580456
0.0005937
0.000591487
0.00058051
0.000582584
0.000593826
0.000591535
0.000580456
0.000612217
0.000612216
0.000598432
0.000598523
0.000598521
0.000612225
0.000598558
0.000580554
0.000593987
0.000593493
0.000580514
0.000580512
0.000593956
0.000593957
0.000580559
0.000593989
0.000598357
0.000612083
0.000609811
0.00060053
0.000612074
0.000598405
0.000600607
0.000598408
0.000612156
0.000612185
0.000598469
0.000598358
0.000609819
0.000612096
0.000600551
0.000612077
0.000600612
0.000598407
0.000593843
0.000580536
0.000593918
0.00058048
0.000593667
0.000591438
0.0005805
0.000582562
0.000593792
0.000591506
0.000580443
0.00059384
0.000580536
0.00059391
0.000580478
0.000593667
0.000591448
0.000582563
0.000580499
0.00059151
0.000593792
0.000580441
0.000598442
0.000612179
0.000612195
0.000598505
0.000598392
0.000609815
0.000612091
0.000600548
0.000612083
0.000600625
0.000598429
0.00059844
0.00061216
0.000612192
0.000598488
0.000593711
0.00059149
0.000580511
0.000582591
0.00059383
0.000591541
0.000580462
0.000593876
0.000580547
0.000593947
0.00058049
0.000593707
0.000591462
0.000582587
0.000580504
0.000591532
0.000593813
0.000580462
0.000593875
0.000580536
0.000593932
0.000580492
0.000612196
0.000612195
0.000598389
0.000598496
0.000598496
0.000612202
0.000598536
0.000580545
0.000593966
0.000593452
0.000580509
0.000580504
0.000593934
0.000593935
0.00058056
0.000593968
0.000598366
0.000609811
0.000612086
0.000600542
0.000612074
0.000600613
0.000598415
0.000598415
0.000612157
0.000612185
0.000598474
0.000598414
0.000612152
0.000612182
0.000598476
0.000593678
0.000591452
0.00058257
0.0005805
0.000591516
0.000593797
0.000580446
0.000593678
0.000591453
0.000582572
0.000580508
0.000591516
0.000593801
0.000580447
0.00059385
0.00058054
0.000593917
0.00058048
0.00059385
0.000580533
0.000593923
0.00058048
0.000612205
0.000598547
0.000612201
0.000598543
0.000593462
0.000580511
0.00058051
0.000593947
0.000593942
0.00058055
0.00059398
0.000580549
0.000593976
0.000576116
0.000563089
0.000576119
0.000563094
0.000576084
0.000576089
0.000563309
0.000563053
0.000563057
0.000545709
0.000558729
0.000545715
0.000558735
0.000558654
0.00054573
0.000545735
0.000558725
0.00055873
0.00056304
0.000576113
0.000576046
0.00056309
0.000563104
0.000576036
0.000573813
0.000565231
0.000575943
0.000563118
0.000565196
0.0005631
0.000576031
0.000573811
0.000565198
0.00057594
0.000563091
0.000565185
0.000558708
0.00054578
0.000558778
0.000545834
0.000558705
0.000545763
0.000558756
0.000545834
0.000558684
0.000556678
0.000545889
0.000548055
0.000558745
0.000556639
0.000545977
0.000558679
0.000556635
0.000545869
0.000548042
0.000558713
0.000556625
0.000545973
0.000576078
0.000576079
0.000563264
0.000563023
0.000563021
0.000576109
0.00056306
0.000545702
0.000558706
0.000558609
0.000545721
0.000545719
0.000558693
0.000558691
0.000545701
0.000558702
0.000563119
0.000576034
0.000573807
0.000565233
0.000575938
0.000563126
0.0005652
0.000563055
0.000576112
0.00057605
0.000563113
0.000563116
0.000573806
0.000576033
0.00056522
0.000575936
0.000565196
0.000563118
0.000558728
0.000545788
0.000558789
0.000545855
0.000558704
0.000556685
0.0005459
0.000548071
0.000558756
0.000556652
0.000546004
0.000558726
0.00054578
0.000558784
0.000545854
0.000558702
0.000556668
0.000548065
0.000545891
0.000556646
0.000558746
0.000546001
0.000563031
0.000576112
0.000576044
0.000563083
0.000563094
0.000573819
0.000576028
0.000565224
0.000575946
0.000565196
0.000563099
0.000563032
0.000576103
0.000576051
0.000563088
0.00055867
0.000556633