/*--------------------------------*- C++ -*----------------------------------*\
| =========                 |                                                 |
| \\      /  F ield         | OpenFOAM: The Open Source CFD Toolbox           |
|  \\    /   O peration     | Version:  v2006                                 |
|   \\  /    A nd           | Website:  www.openfoam.com                      |
|    \\/     M anipulation  |                                                 |
\*---------------------------------------------------------------------------*/
FoamFile
{
    version     2.0;
    format      ascii;
    class       volVectorField;
    location    "1000";
    object      U;
}
// * * * * * * * * * * * * * * * * * * * * * * * * * * * * * * * * * * * * * //

dimensions      [0 1 -1 0 0 0 0];


internalField   nonuniform List<vector> 
42616
(
(-6.95092e-06 -6.76856e-06 0.112455)
(8.48512e-06 -5.85921e-06 0.10749)
(-5.09694e-06 8.01747e-06 0.10749)
(-2.66627e-05 -2.71594e-05 0.104206)
(-1.88614e-05 -1.8537e-05 0.11241)
(1.92694e-05 -9.99752e-06 0.107475)
(-1.1626e-05 2.00007e-05 0.107476)
(-2.01646e-05 -1.95846e-05 0.104215)
(-6.59021e-06 -6.60225e-06 0.112355)
(8.52263e-06 -2.63384e-06 0.107454)
(-8.32738e-07 8.35236e-06 0.107455)
(-3.27121e-05 -3.31887e-05 0.104187)
(-8.44326e-06 -9.66008e-06 0.11235)
(6.53381e-06 -8.70763e-06 0.107466)
(-9.43814e-06 5.79834e-06 0.107463)
(-2.47992e-05 -2.56858e-05 0.104211)
(-2.33206e-05 -2.15114e-05 0.112313)
(2.05151e-05 -8.08517e-06 0.107478)
(-8.71367e-06 2.18659e-05 0.107479)
(-2.32366e-05 -2.1207e-05 0.104264)
(-2.61958e-06 -4.13685e-06 0.112261)
(8.16519e-06 -3.10272e-06 0.107453)
(-1.75898e-06 6.82153e-06 0.107452)
(-2.9697e-05 -3.18556e-05 0.104221)
(-1.03002e-05 -9.56898e-06 0.112245)
(8.8563e-06 -9.80146e-06 0.107438)
(-1.11251e-05 9.65107e-06 0.107436)
(-2.5145e-05 -2.39776e-05 0.104209)
(-1.84588e-05 -1.83396e-05 0.112206)
(1.58529e-05 -2.99371e-06 0.107453)
(-2.20332e-06 1.5573e-05 0.107453)
(-2.6963e-05 -2.73055e-05 0.104264)
(-1.25146e-05 -1.26418e-05 0.112175)
(1.51812e-05 -1.18594e-05 0.107457)
(-1.24277e-05 1.55363e-05 0.107456)
(-2.19326e-05 -2.18328e-05 0.104275)
(-4.36335e-06 -4.27071e-06 0.11213)
(2.92096e-06 4.64083e-06 0.107428)
(4.66161e-06 3.02054e-06 0.107427)
(-3.73865e-05 -3.74939e-05 0.10424)
(-8.38828e-06 -9.29385e-06 0.112162)
(2.31189e-06 -2.19036e-05 0.107468)
(-2.07534e-05 1.31045e-06 0.107466)
(-2.88939e-05 -2.99774e-05 0.104274)
(-3.77915e-05 -3.63599e-05 0.112075)
(4.58054e-05 1.64185e-07 0.107458)
(-3.53838e-06 4.73581e-05 0.107459)
(-3.70324e-06 -1.5734e-06 0.104338)
(1.61098e-05 1.7181e-05 0.112002)
(-1.25298e-05 5.13043e-06 0.107378)
(7.87026e-06 -1.132e-05 0.107381)
(-4.46069e-05 -4.49461e-05 0.104239)
(-8.33038e-06 -1.43327e-05 0.112076)
(-4.65645e-06 -3.00234e-05 0.107447)
(-2.85602e-05 -9.61336e-06 0.107437)
(-3.31334e-05 -3.87447e-05 0.104239)
(-3.86771e-05 -3.09529e-05 0.112029)
(3.25798e-05 1.93412e-05 0.1075)
(1.2261e-05 3.83429e-05 0.107503)
(-1.99793e-05 -1.08161e-05 0.104407)
(1.20681e-05 1.0275e-05 0.111991)
(-2.94321e-07 -1.34632e-05 0.107453)
(-6.65824e-06 -1.99769e-06 0.107461)
(-3.12887e-05 -3.62642e-05 0.104355)
(-1.38818e-05 -1.92602e-05 0.111962)
(1.72276e-05 -1.88862e-05 0.107426)
(-2.0414e-05 1.46989e-05 0.107414)
(-1.48462e-05 -1.77385e-05 0.104278)
(-1.89352e-05 -1.24218e-05 0.111919)
(6.01977e-06 1.35827e-05 0.107419)
(1.04954e-05 9.84428e-06 0.10742)
(-3.67772e-05 -3.0296e-05 0.104329)
(-5.73498e-06 -9.12877e-06 0.111943)
(6.5477e-06 -1.57262e-05 0.107455)
(-1.16058e-05 3.46825e-06 0.107457)
(-1.87084e-05 -2.39299e-05 0.104368)
(-1.63158e-05 -1.5333e-05 0.111915)
(6.76449e-07 1.36504e-05 0.107471)
(1.06694e-05 2.30897e-06 0.107468)
(-3.14404e-05 -2.84843e-05 0.1044)
(-1.90137e-05 -1.78572e-05 0.112103)
(5.40556e-05 -5.00854e-05 0.107777)
(-5.02396e-05 5.57574e-05 0.107781)
(2.70427e-05 2.73995e-05 0.104764)
(-4.12756e-05 -4.15263e-05 0.104313)
(-3.38841e-06 -5.71663e-06 0.107489)
(6.1867e-06 -5.80902e-06 0.107491)
(4.36857e-05 -4.12289e-05 0.104316)
(-5.69602e-06 -3.4759e-06 0.107491)
(-5.58632e-06 5.35366e-06 0.10749)
(7.88352e-06 -3.04904e-06 0.107492)
(7.49281e-06 5.33956e-06 0.10749)
(-4.04148e-05 4.28559e-05 0.104315)
(-2.22628e-06 7.68579e-06 0.107492)
(5.42957e-06 7.50635e-06 0.107491)
(4.24179e-05 4.21925e-05 0.104317)
(2.75107e-05 2.70261e-05 0.104201)
(-5.10501e-05 -5.07393e-05 0.104327)
(-6.52923e-06 -6.86749e-06 0.107487)
(7.99231e-06 -6.85093e-06 0.107489)
(-1.35525e-05 -1.87783e-05 0.10748)
(8.57073e-06 -1.80091e-05 0.107478)
(-2.56513e-05 2.75541e-05 0.104204)
(4.71638e-05 -4.94159e-05 0.104323)
(-6.51837e-06 -7.12112e-06 0.107489)
(-6.38191e-06 7.2004e-06 0.107488)
(-1.88474e-05 -1.3381e-05 0.107482)
(-1.81319e-05 9.73907e-06 0.107477)
(8.32493e-06 7.00556e-06 0.107489)
(1.67883e-05 -1.08448e-05 0.107481)
(1.79431e-05 1.15598e-05 0.107482)
(2.84032e-05 -2.6518e-05 0.104203)
(-5.04148e-05 4.81513e-05 0.104323)
(7.63388e-06 8.01033e-06 0.107491)
(-1.20244e-05 1.68337e-05 0.107481)
(1.14097e-05 1.7918e-05 0.107483)
(4.97003e-05 4.99826e-05 0.104326)
(1.86307e-05 1.9238e-05 0.104215)
(-3.73928e-05 -3.73368e-05 0.104303)
(-1.21734e-05 -2.19306e-05 0.107476)
(7.26547e-06 -2.09069e-05 0.107472)
(1.37932e-06 -1.23802e-05 0.107458)
(2.75488e-06 -1.30018e-05 0.107455)
(-2.26246e-05 2.02252e-05 0.10421)
(4.0764e-05 -4.03315e-05 0.104303)
(-2.25234e-05 -1.13265e-05 0.107478)
(-2.16791e-05 8.88548e-06 0.107472)
(-1.28744e-05 1.61774e-06 0.10746)
(-1.36796e-05 1.89644e-06 0.107456)
(2.08859e-05 1.05781e-05 0.107477)
(1.27417e-05 -2.77757e-06 0.107457)
(1.20208e-05 -7.19994e-07 0.107455)
(1.90463e-05 -2.14573e-05 0.104211)
(-3.94799e-05 3.99093e-05 0.104304)
(9.74087e-06 2.13989e-05 0.107478)
(-1.91673e-06 1.34945e-05 0.107458)
(-9.87469e-07 1.25342e-05 0.107457)
(3.78119e-05 3.79039e-05 0.1043)
(3.38374e-05 3.33454e-05 0.104189)
(-4.20296e-05 -4.33897e-05 0.10431)
(2.21151e-06 -6.9494e-06 0.107452)
(3.68954e-06 -7.97187e-06 0.107453)
(-7.29083e-06 -2.38656e-06 0.107452)
(8.08752e-06 -2.70799e-06 0.107459)
(-2.96726e-05 3.06046e-05 0.10419)
(4.26005e-05 -4.14782e-05 0.104319)
(-6.61019e-06 1.38677e-06 0.107454)
(-7.76362e-06 1.90008e-06 0.107453)
(-9.59484e-07 -9.05244e-06 0.107454)
(-1.376e-06 7.56263e-06 0.107456)
(7.18179e-06 -1.02287e-06 0.10745)
(3.86042e-06 -6.58341e-06 0.107461)
(3.18468e-06 7.89696e-06 0.107453)
(3.18662e-05 -3.09372e-05 0.104191)
(-4.12508e-05 4.23735e-05 0.104315)
(-2.2668e-07 6.85226e-06 0.107452)
(-6.07064e-06 2.48105e-06 0.107458)
(9.68491e-06 1.73611e-06 0.107455)
(4.36917e-05 4.2317e-05 0.104312)
(2.57379e-05 2.48751e-05 0.104208)
(-4.87846e-05 -4.65702e-05 0.104371)
(-1.20461e-05 -6.00405e-06 0.107458)
(9.55312e-06 -5.78741e-06 0.107464)
(-1.36765e-05 -2.01634e-05 0.10748)
(8.0889e-06 -1.91947e-05 0.107475)
(-2.64824e-05 2.72174e-05 0.104215)
(4.50682e-05 -4.62573e-05 0.104363)
(-5.26093e-06 -1.27834e-05 0.10746)
(-5.08327e-06 1.02744e-05 0.10746)
(-2.19173e-05 -1.12481e-05 0.107481)
(-2.06091e-05 9.76636e-06 0.107474)
(6.57283e-06 1.20782e-05 0.10746)
(1.84421e-05 -9.42538e-06 0.107478)
(1.96444e-05 1.29626e-05 0.107482)
(2.69412e-05 -2.62018e-05 0.104212)
(-4.72454e-05 4.60864e-05 0.104364)
(1.28313e-05 5.82209e-06 0.107462)
(-1.10633e-05 1.98662e-05 0.107477)
(1.04947e-05 2.14399e-05 0.107482)
(4.61853e-05 4.84581e-05 0.104372)
(2.11265e-05 2.3118e-05 0.104263)
(-3.72649e-05 -3.913e-05 0.104338)
(-1.0038e-05 -2.22639e-05 0.107483)
(6.6639e-06 -2.14463e-05 0.107475)
(3.30584e-06 -1.22454e-05 0.107463)
(2.35608e-06 -1.25275e-05 0.107459)
(-2.41016e-05 2.28844e-05 0.104254)
(4.12094e-05 -4.07078e-05 0.104338)
(-2.3958e-05 -7.91184e-06 0.107484)
(-2.27889e-05 7.32044e-06 0.107475)
(-1.11183e-05 1.51601e-06 0.107465)
(-1.16422e-05 5.12523e-07 0.107459)
(2.17788e-05 9.89148e-06 0.107483)
(1.28247e-05 -2.03785e-06 0.107461)
(1.30006e-05 -2.55647e-06 0.107462)
(2.22651e-05 -2.34578e-05 0.104256)
(-3.9506e-05 3.99717e-05 0.104336)
(7.74255e-06 2.34895e-05 0.107484)
(-2.21515e-07 1.19025e-05 0.107461)
(-7.28911e-07 1.17945e-05 0.107464)
(3.98482e-05 3.79342e-05 0.104337)
(3.22316e-05 3.01338e-05 0.104221)
(-4.66898e-05 -4.59498e-05 0.104318)
(2.43313e-06 -6.69067e-06 0.107451)
(3.6643e-06 -7.61465e-06 0.107451)
(-1.0336e-05 -5.18865e-06 0.107428)
(8.16515e-06 -6.20785e-06 0.107435)
(-2.81147e-05 2.871e-05 0.104223)
(4.46805e-05 -4.57573e-05 0.104325)
(-5.01247e-06 9.11645e-08 0.107453)
(-6.2845e-06 2.29549e-06 0.10745)
(-5.3992e-06 -9.87447e-06 0.10743)
(-6.51742e-06 9.50134e-06 0.107432)
(7.42995e-06 -2.48244e-06 0.107449)
(5.39245e-06 -9.43215e-06 0.107437)
(3.71006e-06 7.74911e-06 0.107424)
(2.9742e-05 -2.91653e-05 0.104221)
(-4.68043e-05 4.57226e-05 0.104323)
(-1.09085e-07 5.68922e-06 0.107451)
(-1.07828e-05 5.71117e-06 0.107435)
(7.28566e-06 3.93191e-06 0.107425)
(4.37951e-05 4.45363e-05 0.104311)
(2.19603e-05 2.31397e-05 0.104215)
(-4.10368e-05 -4.09687e-05 0.104366)
(-1.28153e-05 -9.54064e-06 0.10743)
(8.24278e-06 -1.00978e-05 0.107435)
(-6.81752e-06 -1.69301e-05 0.107449)
(5.52802e-06 -1.54e-05 0.107446)
(-2.49167e-05 2.36568e-05 0.104222)
(4.10829e-05 -3.94333e-05 0.104361)
(-1.05755e-05 -1.13973e-05 0.107431)
(-1.09001e-05 9.54732e-06 0.107433)
(-1.73016e-05 -6.50853e-06 0.10745)
(-1.55075e-05 4.916e-06 0.107446)
(7.62269e-06 1.08763e-05 0.107425)
(1.61914e-05 -3.71265e-06 0.107448)
(1.7234e-05 9.31174e-06 0.107446)
(2.26155e-05 -2.38767e-05 0.104221)
(-3.87747e-05 4.04193e-05 0.104361)
(9.45435e-06 8.66148e-06 0.107426)
(-3.06999e-06 1.62632e-05 0.107448)
(8.97807e-06 1.7623e-05 0.107448)
(4.2581e-05 4.26734e-05 0.104365)
(2.9055e-05 2.86883e-05 0.104262)
(-4.5424e-05 -4.57073e-05 0.104375)
(-4.73886e-06 -1.59382e-05 0.107456)
(6.04092e-06 -1.4055e-05 0.107451)
(-7.92603e-06 -1.18939e-05 0.107458)
(1.12207e-05 -1.20982e-05 0.107456)
(-2.80093e-05 3.01196e-05 0.104256)
(4.70303e-05 -4.64334e-05 0.104376)
(-1.56137e-05 -5.27443e-06 0.107458)
(-1.37488e-05 5.31034e-06 0.107451)
(-1.14632e-05 -8.35438e-06 0.107459)
(-1.18783e-05 1.15113e-05 0.107455)
(1.74174e-05 7.97801e-06 0.107456)
(1.3126e-05 -9.99167e-06 0.107459)
(1.26281e-05 8.18964e-06 0.107465)
(3.0841e-05 -2.87156e-05 0.104257)
(-4.67591e-05 4.74806e-05 0.104374)
(8.46525e-06 1.71421e-05 0.107458)
(-1.01839e-05 1.3052e-05 0.107458)
(8.53013e-06 1.22973e-05 0.107467)
(4.56482e-05 4.54616e-05 0.104384)
(2.16067e-05 2.16433e-05 0.104266)
(-3.56637e-05 -3.52597e-05 0.104348)
(-1.06167e-05 -1.44528e-05 0.107453)
(1.14994e-05 -1.51752e-05 0.107454)
(5.53244e-07 -1.08161e-05 0.107427)
(-3.41018e-06 -1.09852e-05 0.107429)
(-2.08592e-05 2.07003e-05 0.104268)
(3.38626e-05 -3.51175e-05 0.104349)
(-1.45794e-05 -1.0458e-05 0.107455)
(-1.54143e-05 1.21127e-05 0.107452)
(-1.12856e-05 9.29988e-07 0.107429)
(-1.14028e-05 -3.47508e-06 0.107427)
(1.50753e-05 1.0734e-05 0.107461)
(1.01246e-05 1.51091e-06 0.107431)
(1.12061e-05 -1.13952e-06 0.107429)
(2.0259e-05 -2.03238e-05 0.104267)
(-3.5231e-05 3.37232e-05 0.104348)
(1.05162e-05 1.52878e-05 0.107463)
(1.38995e-06 1.03454e-05 0.10743)
(-1.33729e-06 1.1523e-05 0.107431)
(3.61708e-05 3.64033e-05 0.104349)
(3.77694e-05 3.78677e-05 0.10424)
(-3.80105e-05 -3.91566e-05 0.104381)
(5.00076e-06 -3.56867e-06 0.107426)
(-6.19262e-06 -3.37609e-06 0.107426)
(-6.67588e-06 6.59248e-06 0.107449)
(9.93738e-06 4.66794e-06 0.10745)
(-3.85643e-05 3.749e-05 0.10424)
(4.03917e-05 -4.33448e-05 0.104386)
(-3.67042e-06 4.93222e-06 0.107428)
(-3.74118e-06 -6.44259e-06 0.107425)
(7.62251e-06 -7.85134e-06 0.107451)
(5.459e-06 8.70332e-06 0.107448)
(4.60187e-06 -5.88791e-06 0.107425)
(-7.09322e-06 -1.33593e-05 0.107453)
(-9.94529e-06 3.25836e-07 0.10744)
(3.75576e-05 -3.88873e-05 0.104239)
(-4.21787e-05 3.92203e-05 0.104383)
(-5.60109e-06 4.46944e-06 0.107427)
(-1.21952e-05 -8.0411e-06 0.10745)
(1.58915e-06 -1.11058e-05 0.107441)
(3.36342e-05 3.24608e-05 0.104366)
(2.3949e-05 2.28405e-05 0.104288)
(-6.26138e-05 -6.1227e-05 0.104447)
(-1.63782e-05 -3.38776e-06 0.107462)
(1.77868e-05 -5.70631e-06 0.107466)
(-2.45088e-05 -4.44137e-05 0.107469)
(1.64435e-05 -4.23692e-05 0.107471)
(-2.25243e-05 1.91342e-05 0.104294)
(5.73731e-05 -5.41766e-05 0.104445)
(-2.4051e-06 -1.75386e-05 0.107464)
(-4.73294e-06 1.66618e-05 0.107464)
(-4.49675e-05 -2.33224e-05 0.107471)
(-4.21724e-05 1.85302e-05 0.10747)
(-8.3699e-07 1.09529e-05 0.107452)
(4.26644e-05 -1.35636e-05 0.107472)
(4.19119e-05 2.91515e-05 0.107463)
(2.04074e-05 -2.37471e-05 0.104291)
(-5.53229e-05 5.87676e-05 0.104445)
(1.20833e-05 -1.87847e-06 0.107453)
(-1.53914e-05 4.26595e-05 0.107471)
(2.76987e-05 4.2676e-05 0.107464)
(6.34174e-05 6.50629e-05 0.104442)
(6.46718e-06 8.36839e-06 0.104336)
(-2.4898e-05 -2.38715e-05 0.104328)
(-1.56032e-05 -4.63862e-05 0.107461)
(7.68743e-06 -4.15689e-05 0.107457)
(1.59207e-05 1.40381e-06 0.107398)
(-5.1405e-06 4.64059e-06 0.107386)
(-1.17756e-05 1.69666e-05 0.104329)
(3.36692e-05 -2.60757e-05 0.104317)
(-4.81292e-05 -1.30687e-05 0.107462)
(-4.2889e-05 1.16417e-05 0.107457)
(-6.23703e-07 1.77376e-05 0.1074)
(1.90889e-06 -4.90275e-06 0.107389)
(4.84782e-05 2.67762e-05 0.107461)
(4.23328e-06 1.52581e-05 0.107388)
(9.06487e-06 -8.49866e-06 0.107419)
(1.4838e-05 -9.37926e-06 0.104331)
(-2.60171e-05 3.37408e-05 0.104322)
(2.39772e-05 5.04548e-05 0.107462)
(1.51629e-05 7.10687e-06 0.107392)
(-1.04488e-05 1.12441e-05 0.107421)
(2.90916e-05 3.02718e-05 0.104359)
(4.73332e-05 4.70058e-05 0.104208)
(-3.92563e-05 -4.55507e-05 0.104349)
(1.73384e-05 1.84e-05 0.107381)
(-2.07032e-06 1.76062e-05 0.107374)
(-1.04537e-05 1.2679e-05 0.107389)
(9.8941e-06 3.77984e-06 0.107408)
(-3.76183e-05 4.16337e-05 0.104203)
(3.63548e-05 -5.49555e-05 0.10438)
(1.815e-05 1.63135e-05 0.107383)
(1.6432e-05 -4.84735e-06 0.107377)
(1.84063e-05 -1.76825e-05 0.107391)
(8.88166e-06 4.37396e-06 0.107401)
(-1.01218e-05 -1.74288e-05 0.107403)
(-1.78028e-05 -3.05073e-05 0.107415)
(-2.36645e-05 -9.80697e-06 0.107381)
(4.27416e-05 -3.87468e-05 0.104206)
(-5.09385e-05 3.19962e-05 0.104367)
(-1.63718e-05 -9.88962e-06 0.107405)
(-2.53621e-05 -2.3322e-05 0.107408)
(-2.17715e-06 -2.97468e-05 0.107383)
(3.09679e-05 2.44157e-05 0.104323)
(2.4979e-05 1.97496e-05 0.10427)
(-4.87888e-05 -4.06278e-05 0.104523)
(-2.04921e-05 -4.26303e-06 0.107419)
(8.82215e-06 -1.11802e-05 0.107442)
(-1.84261e-05 -3.43104e-05 0.107504)
(7.83424e-07 -2.83291e-05 0.1075)
(-3.21055e-05 1.38663e-05 0.104299)
(3.97733e-05 -2.85783e-05 0.104503)
(5.37085e-07 -2.57332e-05 0.107421)
(-6.76903e-06 6.94096e-06 0.107432)
(-3.97659e-05 -1.00249e-05 0.107503)
(-3.21781e-05 8.81955e-06 0.107497)
(-9.48266e-06 4.46315e-06 0.107399)
(3.17913e-05 8.53168e-06 0.107497)
(3.4034e-05 3.14167e-05 0.107475)
(1.63073e-05 -3.49944e-05 0.104286)
(-3.39237e-05 4.53139e-05 0.104507)
(1.01204e-05 -1.47636e-05 0.1074)
(5.85696e-07 3.55562e-05 0.107493)
(2.29322e-05 3.95203e-05 0.107474)
(4.92204e-05 5.76633e-05 0.104502)
(2.21697e-05 3.09392e-05 0.104418)
(-3.35492e-05 -3.63086e-05 0.104441)
(-8.6478e-06 -2.85737e-05 0.107522)
(1.33902e-06 -2.00507e-05 0.107505)
(1.00347e-05 2.20144e-06 0.107475)
(1.09873e-05 5.60108e-06 0.107455)
(-2.71272e-05 4.28363e-05 0.104391)
(4.7534e-05 -3.82321e-05 0.104425)
(-3.62392e-05 1.7491e-06 0.107521)
(-2.55731e-05 8.71777e-06 0.107508)
(1.66278e-06 8.84985e-06 0.107479)
(4.63734e-06 7.083e-06 0.107466)
(3.59504e-05 2.80953e-05 0.107505)
(6.81076e-06 3.52833e-06 0.107457)
(7.56558e-06 -6.48179e-06 0.107502)
(3.77162e-05 -2.17019e-05 0.104399)
(-3.48862e-05 4.46541e-05 0.104435)
(1.73967e-05 4.39289e-05 0.107504)
(7.96828e-06 8.33077e-06 0.107468)
(-5.85995e-06 8.62233e-06 0.107507)
(3.6371e-05 3.41886e-05 0.10448)
(3.34577e-05 2.81119e-05 0.104318)
(-5.13525e-05 -5.62243e-05 0.104386)
(6.18205e-06 4.71269e-06 0.107455)
(1.40649e-05 3.45985e-06 0.107446)
(-1.32231e-05 -1.63386e-05 0.10739)
(9.47358e-06 -2.39706e-05 0.107413)
(-2.08188e-05 2.3318e-05 0.104312)
(4.66831e-05 -6.37288e-05 0.104418)
(8.63111e-06 -7.15348e-07 0.10746)
(5.5917e-06 7.60026e-06 0.107453)
(-1.04166e-05 -2.01224e-05 0.107392)
(-1.97703e-05 6.98967e-06 0.107403)
(-8.24982e-07 -1.13379e-05 0.107486)
(9.33484e-06 -2.91615e-05 0.10742)
(8.17126e-06 3.95447e-06 0.107395)
(2.75085e-05 -2.47484e-05 0.104318)
(-6.29634e-05 4.53656e-05 0.104404)
(-4.80146e-06 -4.32669e-06 0.107492)
(-2.71084e-05 4.76833e-06 0.107411)
(1.134e-05 1.91734e-06 0.107397)
(5.24486e-05 4.70158e-05 0.104377)
(1.52943e-05 1.29945e-05 0.104289)
(-3.83592e-05 -3.10755e-05 0.104429)
(-1.56579e-05 -2.27379e-05 0.107399)
(4.69942e-06 -2.84512e-05 0.107421)
(-8.38201e-06 -1.42496e-05 0.107409)
(-4.20765e-06 -1.01214e-05 0.107405)
(-2.18256e-05 8.10611e-06 0.104319)
(3.21702e-05 -2.31953e-05 0.104414)
(-2.03701e-05 -1.75633e-05 0.107399)
(-2.64471e-05 5.67694e-06 0.10741)
(-2.02426e-05 -2.17871e-07 0.107408)
(-1.39275e-05 7.72833e-07 0.107402)
(1.68045e-05 1.13334e-05 0.107393)
(1.57517e-05 1.1983e-05 0.107404)
(1.66666e-05 1.15787e-05 0.107398)
(7.58112e-06 -2.18857e-05 0.104305)
(-2.60092e-05 3.50687e-05 0.104416)
(1.38214e-05 1.39464e-05 0.107394)
(6.98436e-06 1.93448e-05 0.1074)
(3.46157e-06 2.24615e-05 0.107397)
(3.24164e-05 3.9812e-05 0.104421)
(3.10483e-05 3.72872e-05 0.104333)
(-3.41238e-05 -3.88234e-05 0.104444)
(-2.6455e-06 -4.72965e-06 0.107433)
(-4.86159e-06 5.76132e-07 0.10742)
(-2.8265e-06 -1.17693e-06 0.107433)
(1.49598e-05 -4.17306e-07 0.10742)
(-3.5527e-05 4.44311e-05 0.104314)
(4.25124e-05 -4.26426e-05 0.104435)
(-1.00842e-05 4.07926e-06 0.107433)
(-3.02481e-06 -1.53086e-06 0.107422)
(1.55218e-06 -6.95749e-06 0.107436)
(1.3398e-06 1.11299e-05 0.107424)
(7.10994e-06 4.7305e-06 0.107426)
(6.78439e-07 -1.40015e-05 0.107423)
(6.96772e-07 4.94615e-06 0.107436)
(4.2408e-05 -3.32364e-05 0.104319)
(-3.9508e-05 3.95166e-05 0.104436)
(-2.25177e-06 1.26139e-05 0.107426)
(-9.87151e-06 -7.47233e-07 0.107427)
(8.77252e-06 -1.68312e-06 0.10744)
(4.02672e-05 3.57746e-05 0.104449)
(2.68505e-05 2.16434e-05 0.104362)
(-2.57562e-05 -2.40882e-05 0.104415)
(-1.35737e-06 -4.75177e-06 0.107457)
(1.66011e-05 -6.16317e-06 0.107453)
(-2.59645e-06 -1.55093e-05 0.107423)
(1.92299e-06 -1.81696e-05 0.107436)
(-1.70673e-05 1.68102e-05 0.10436)
(2.37627e-05 -2.3542e-05 0.104433)
(-5.79986e-07 -7.00265e-06 0.10746)
(-3.19974e-06 1.24225e-05 0.107454)
(-1.59107e-05 -1.93955e-06 0.107425)
(-1.81781e-05 3.75714e-06 0.107432)
(5.84463e-06 5.60129e-06 0.107462)
(1.97998e-05 -1.09538e-06 0.107438)
(1.89467e-05 1.37357e-06 0.107426)
(2.00156e-05 -2.03422e-05 0.104359)
(-2.53217e-05 2.55877e-05 0.104429)
(1.12906e-05 1.62277e-06 0.107465)
(-3.02902e-06 1.96247e-05 0.107435)
(8.49466e-07 1.91397e-05 0.107427)
(2.34708e-05 2.5037e-05 0.104419)
(2.55345e-05 2.82978e-05 0.104399)
(-3.57814e-05 -3.46962e-05 0.104397)
(8.1312e-06 -5.35526e-08 0.107457)
(-1.71058e-05 -2.20345e-06 0.107469)
(-3.43755e-05 -3.02089e-05 0.107514)
(2.44777e-05 -2.98342e-05 0.107512)
(-3.08793e-05 2.94105e-05 0.104414)
(2.90524e-05 -3.60862e-05 0.104389)
(-2.47529e-06 1.13962e-05 0.107457)
(-3.46533e-06 -1.36688e-05 0.107466)
(-3.19345e-05 -3.24039e-05 0.107516)
(-3.18441e-05 2.59683e-05 0.107516)
(4.711e-07 -1.36217e-05 0.107457)
(2.20485e-05 -3.31172e-05 0.107514)
(2.14852e-05 2.85276e-05 0.107503)
(2.71942e-05 -2.8315e-05 0.104412)
(-3.69066e-05 3.01826e-05 0.104396)
(-1.72688e-05 3.17207e-06 0.107458)
(-3.42331e-05 2.47955e-05 0.107518)
(2.61758e-05 2.39445e-05 0.107505)
(2.91718e-05 3.05993e-05 0.104378)
(-3.0585e-05 -3.03103e-05 0.104781)
(-4.95245e-05 -6.07188e-05 0.10778)
(4.42074e-05 -6.00548e-05 0.107776)
(2.65038e-05 -3.18872e-05 0.104773)
(-6.14331e-05 -4.89099e-05 0.107782)
(-6.14102e-05 4.44197e-05 0.107779)
(9.72886e-06 -1.77422e-05 0.112106)
(-1.88779e-05 1.11753e-05 0.112107)
(1.14787e-05 1.29937e-05 0.112099)
(5.37201e-05 4.68044e-05 0.107769)
(-3.22262e-05 2.68706e-05 0.104778)
(4.61119e-05 5.48014e-05 0.107771)
(-6.27385e-06 -5.78864e-06 0.11246)
(8.50304e-06 -5.7454e-06 0.112462)
(-5.79264e-06 8.59528e-06 0.11246)
(8.62588e-06 9.16714e-06 0.112457)
(-7.7275e-07 -7.7672e-06 0.0914452)
(5.54277e-06 4.04896e-06 0.082271)
(-8.1509e-07 2.77717e-06 0.0914036)
(4.73397e-06 -7.2404e-06 0.082313)
(-6.67173e-06 1.56039e-06 0.0715887)
(-3.3007e-07 -1.3798e-06 0.0716135)
(-7.52717e-06 -5.16293e-07 0.0914448)
(3.9612e-06 5.43736e-06 0.082272)
(2.71997e-06 -8.88274e-07 0.0914033)
(-7.21483e-06 4.81813e-06 0.082314)
(8.93349e-06 -6.29724e-06 0.112456)
(-5.99521e-06 8.65631e-06 0.112455)
(8.85146e-06 9.07642e-06 0.112453)
(-1.60491e-05 -1.61036e-05 0.112426)
(1.37073e-05 -1.42456e-05 0.112425)
(-1.44711e-05 1.38555e-05 0.112426)
(1.50914e-05 1.49527e-05 0.112427)
(1.81332e-05 -1.73432e-06 0.0985879)
(-6.84879e-06 1.61543e-06 0.0930307)
(1.00402e-05 -1.50983e-06 0.109905)
(1.03909e-05 -8.31741e-06 0.107488)
(-3.83621e-06 -1.50981e-06 0.0985353)
(1.29803e-05 -1.83542e-06 0.0930878)
(1.07691e-05 -3.28349e-06 0.109899)
(1.26292e-06 -7.16178e-06 0.0715936)
(-1.81229e-06 -1.47026e-06 0.0716121)
(-1.7985e-06 1.77531e-05 0.0985873)
(-7.33147e-07 9.92077e-06 0.109905)
(1.3508e-06 -6.95721e-06 0.0930291)
(-7.99731e-06 9.76296e-06 0.107488)
(-9.25055e-07 -3.7454e-06 0.0985354)
(-2.62934e-06 1.04383e-05 0.1099)
(-1.75536e-06 1.20833e-05 0.0930867)
(-2.90228e-06 -5.25869e-06 0.0875872)
(-4.97097e-06 -3.02521e-06 0.0875867)
(4.74705e-05 4.67034e-05 0.104323)
(5.27909e-06 1.25189e-06 0.08763)
(1.23249e-06 5.28178e-06 0.0876285)
(8.10318e-07 -2.07761e-05 0.091495)
(-2.98495e-06 4.69913e-06 0.0822893)
(2.97232e-07 -1.18167e-06 0.091448)
(-1.05696e-05 -1.05372e-05 0.0823471)
(5.96978e-06 4.57712e-06 0.0715817)
(1.13788e-05 -3.58031e-06 0.0716681)
(-2.08727e-05 4.60969e-07 0.0914959)
(4.98332e-06 -2.97943e-06 0.0822897)
(-9.69886e-07 4.50288e-07 0.0914481)
(-1.03765e-05 -1.08327e-05 0.082347)
(1.52757e-05 -1.66611e-05 0.112409)
(-1.74445e-05 1.60044e-05 0.112409)
(1.70346e-05 1.72842e-05 0.112412)
(-1.10515e-05 -1.03739e-05 0.112364)
(1.14191e-05 -1.24274e-05 0.112362)
(-1.29064e-05 1.19783e-05 0.112362)
(9.84748e-06 1.05922e-05 0.112363)
(3.19189e-05 -7.02474e-07 0.0986256)
(7.7079e-07 4.58261e-07 0.093071)
(2.13664e-05 -4.30834e-06 0.109871)
(1.93685e-05 -7.34904e-06 0.107468)
(3.27223e-06 -7.63951e-07 0.0985633)
(2.53833e-05 -1.16796e-05 0.0931281)
(2.41529e-05 -3.55697e-06 0.109861)
(4.85027e-06 5.77758e-06 0.0715766)
(-3.08604e-06 1.23713e-05 0.0716589)
(-1.08272e-06 3.22758e-05 0.0986262)
(-5.6771e-06 2.15109e-05 0.109871)
(1.00342e-06 5.4892e-07 0.0930705)
(-8.71222e-06 2.05957e-05 0.107469)
(-1.66424e-06 2.96872e-06 0.0985625)
(-5.08485e-06 2.48384e-05 0.109861)
(-1.12241e-05 2.63606e-05 0.09313)
(3.62377e-06 1.85662e-06 0.0876164)
(1.5917e-06 3.66537e-06 0.0876155)
(4.5339e-05 4.65496e-05 0.104317)
(1.47242e-05 1.40281e-05 0.0876685)
(1.40864e-05 1.4695e-05 0.0876669)
(-1.3105e-06 -1.1157e-05 0.0915149)
(-3.54501e-06 1.35155e-07 0.0823725)
(-1.11893e-06 -7.39108e-06 0.0914818)
(3.64944e-06 -9.16498e-06 0.0824325)
(-1.99538e-06 -1.16215e-06 0.0717287)
(-5.81685e-06 -5.53512e-06 0.0717824)
(-1.13695e-05 -1.24785e-06 0.0915149)
(-2.54528e-07 -3.81116e-06 0.082373)
(-8.0078e-06 -1.82186e-06 0.0914827)
(-9.66152e-06 3.92825e-06 0.0824337)
(9.29908e-06 -9.46743e-06 0.112355)
(-8.91331e-06 8.79791e-06 0.112354)
(6.9163e-06 6.96263e-06 0.112354)
(-4.33248e-06 -5.99715e-06 0.11235)
(7.62637e-06 -6.24535e-06 0.112354)
(-4.6899e-06 6.03461e-06 0.112353)
(7.18227e-06 5.4923e-06 0.11235)
(1.80313e-05 -7.67747e-07 0.0986282)
(1.10489e-06 -7.90176e-06 0.0930975)
(1.44756e-05 -2.59892e-06 0.109849)
(5.10924e-06 -3.22524e-06 0.107454)
(4.90372e-06 -1.71039e-06 0.0985878)
(1.37271e-05 -5.27665e-06 0.0931488)
(8.42359e-06 -2.94345e-06 0.109849)
(-1.16219e-06 -7.23203e-07 0.0717344)
(-5.88982e-06 -6.04511e-06 0.0717876)
(2.56749e-07 1.80729e-05 0.0986288)
(-1.19379e-06 1.50318e-05 0.109849)
(-8.90436e-06 1.88451e-06 0.0930976)
(-1.12398e-06 4.01137e-06 0.107453)
(-2.53014e-07 5.87155e-06 0.0985899)
(-7.45985e-07 8.03562e-06 0.109849)
(-6.11448e-06 1.34164e-05 0.093148)
(1.73011e-06 3.87479e-06 0.0876723)
(4.45951e-06 1.48135e-06 0.0876721)
(3.92558e-05 3.75569e-05 0.104294)
(3.63917e-06 1.48216e-06 0.0877234)
(1.60222e-06 3.72683e-06 0.0877224)
(5.38722e-07 3.88215e-06 0.091545)
(1.30164e-05 1.11481e-05 0.0823879)
(-8.03184e-07 1.66695e-05 0.0915013)
(5.07194e-06 4.84033e-07 0.0823958)
(-1.09197e-05 5.87732e-06 0.0716696)
(5.51639e-07 2.41863e-06 0.0716456)
(4.35841e-06 1.33769e-06 0.0915447)
(1.11617e-05 1.36632e-05 0.0823894)
(1.72935e-05 2.21773e-07 0.0915002)
(9.54427e-07 5.30922e-06 0.0823964)
(9.46134e-06 -8.27966e-06 0.112354)
(-7.52328e-06 8.67221e-06 0.112352)
(1.04798e-05 9.23667e-06 0.11235)
(-2.24281e-05 -2.08938e-05 0.112327)
(1.79726e-05 -1.84819e-05 0.112326)
(-2.01367e-05 1.96343e-05 0.112325)
(2.02356e-05 2.17877e-05 0.112328)
(6.61722e-06 1.51593e-06 0.0986546)
(-1.83833e-05 1.46678e-05 0.0931223)
(4.73506e-06 -3.21016e-06 0.109849)
(1.03938e-05 -9.73792e-06 0.107471)
(-1.79415e-05 1.28399e-06 0.0985891)
(2.32851e-06 9.00762e-06 0.0931809)
(9.80708e-06 -3.18575e-06 0.109845)
(5.83807e-06 -1.25072e-05 0.0716721)
(2.56606e-06 8.30542e-08 0.0716376)
(-1.55627e-07 5.94853e-06 0.0986524)
(-3.00233e-06 3.47057e-06 0.109847)
(1.51342e-05 -1.97529e-05 0.0931196)
(-1.13973e-05 1.05137e-05 0.107468)
(3.19966e-07 -1.90417e-05 0.0985865)
(-4.38362e-06 9.30924e-06 0.109843)
(9.91406e-06 1.89675e-06 0.093181)
(-1.04337e-05 -1.5862e-05 0.0876947)
(-1.66333e-05 -1.00244e-05 0.0876939)
(4.75237e-05 4.84905e-05 0.104346)
(-1.21231e-06 -5.51315e-06 0.0877208)
(-6.19914e-06 -9.15502e-07 0.0877189)
(6.72629e-07 -2.48066e-05 0.09158)
(-7.73089e-06 5.60604e-06 0.0823403)
(8.26438e-07 -1.95185e-07 0.0915403)
(-1.34557e-05 -1.334e-05 0.0824009)
(9.42901e-06 4.89461e-06 0.0715988)
(1.31496e-05 -5.42197e-06 0.0717036)
(-2.54552e-05 -3.60997e-07 0.0915813)
(5.86605e-06 -8.4178e-06 0.0823403)
(-5.33688e-07 1.92584e-07 0.0915414)
(-1.34439e-05 -1.41645e-05 0.0824011)
(1.90489e-05 -1.99599e-05 0.11231)
(-2.1484e-05 2.05841e-05 0.112309)
(2.08421e-05 2.26677e-05 0.112313)
(-8.61666e-06 -9.29445e-06 0.112269)
(1.10575e-05 -1.12656e-05 0.112265)
(-1.01132e-05 9.89477e-06 0.112264)
(9.68389e-06 8.98338e-06 0.112268)
(3.46611e-05 -2.02946e-06 0.0987135)
(-2.38702e-06 -8.9941e-07 0.0931583)
(2.65516e-05 -2.58907e-06 0.10983)
(2.01153e-05 -5.6107e-06 0.107475)
(1.09704e-06 -7.46392e-07 0.0986524)
(2.79803e-05 -1.63156e-05 0.0932111)
(2.80224e-05 -2.45859e-06 0.109825)
(5.27938e-06 1.06365e-05 0.0715967)
(-5.66842e-06 1.43074e-05 0.071704)
(-8.45117e-07 3.56459e-05 0.0987159)
(-4.26978e-06 2.80852e-05 0.109828)
(-9.98086e-07 -1.21461e-06 0.0931598)
(-4.98486e-06 2.08693e-05 0.107475)
(-9.98896e-07 1.8876e-06 0.0986536)
(-2.80638e-06 2.93098e-05 0.109824)
(-1.69569e-05 2.92117e-05 0.0932132)
(2.82477e-06 3.89878e-06 0.0876851)
(4.28033e-06 2.54041e-06 0.0876843)
(4.34692e-05 4.40787e-05 0.104367)
(1.67675e-05 1.77783e-05 0.0877363)
(1.86807e-05 1.62856e-05 0.087735)
(-1.7569e-06 -1.64174e-05 0.0916042)
(-1.46927e-06 -4.83381e-06 0.0824537)
(-1.85412e-06 -1.46578e-05 0.091565)
(4.47592e-06 -1.2004e-05 0.0825304)
(-3.15688e-06 -3.44009e-06 0.0718033)
(-5.16246e-06 -5.97226e-06 0.0718708)
(-1.58812e-05 -1.12959e-06 0.0916036)
(-5.20714e-06 -1.22752e-06 0.0824552)
(-1.45337e-05 -1.9194e-06 0.0915645)
(-1.20277e-05 5.0629e-06 0.0825317)
(6.83458e-06 -6.76604e-06 0.112259)
(-5.17883e-06 5.2438e-06 0.112258)
(4.40481e-06 2.87374e-06 0.11226)
(-4.92586e-06 -5.15472e-06 0.112249)
(5.43284e-06 -6.47992e-06 0.112253)
(-6.80185e-06 5.78657e-06 0.112251)
(3.13413e-06 2.9325e-06 0.112245)
(2.5395e-05 -1.95813e-06 0.0986922)
(9.29954e-06 -1.28024e-05 0.0931768)
(1.34329e-05 -3.34818e-06 0.109815)
(4.61459e-06 -5.33145e-06 0.107445)
(1.33613e-05 -2.9642e-06 0.0986619)
(1.99912e-05 -8.42445e-06 0.0932305)
(6.40328e-06 -4.65023e-06 0.10981)
(-3.53763e-06 -4.14437e-06 0.0718104)
(-6.17794e-06 -6.2549e-06 0.0718686)
(-2.18759e-06 2.44083e-05 0.0986904)
(-1.25002e-06 1.22878e-05 0.109815)
(-1.28918e-05 8.58456e-06 0.093175)
(-4.95803e-06 3.45183e-06 0.107442)
(-1.93756e-06 1.29404e-05 0.0986618)
(-3.33925e-06 4.96779e-06 0.10981)
(-7.88548e-06 1.87624e-05 0.0932292)
(7.66075e-06 7.38616e-06 0.0877555)
(7.58703e-06 7.68215e-06 0.0877553)
(4.12825e-05 3.96541e-05 0.10431)
(7.3864e-06 4.6095e-06 0.0878164)
(4.13879e-06 7.64266e-06 0.0878149)
(8.92579e-07 2.3955e-07 0.091644)
(7.39559e-06 1.06079e-05 0.0825015)
(-4.7235e-07 1.26143e-05 0.0915999)
(-1.40698e-06 -1.9251e-07 0.0825181)
(-4.48906e-06 6.81174e-06 0.0717859)
(5.47186e-06 1.73921e-06 0.0717909)
(-6.94185e-08 6.88217e-07 0.0916449)
(1.09288e-05 7.45787e-06 0.0825018)
(1.27354e-05 -9.62455e-08 0.0916)
(-5.69785e-08 -1.79427e-06 0.0825181)
(8.22454e-06 -9.66651e-06 0.112249)
(-1.06583e-05 9.23887e-06 0.112247)
(7.44018e-06 8.18652e-06 0.11224)
(-1.98587e-05 -1.90773e-05 0.112215)
(1.74695e-05 -1.66728e-05 0.112216)
(-1.68808e-05 1.76751e-05 0.112215)
(2.03583e-05 2.11544e-05 0.112213)
(9.42142e-06 2.21859e-06 0.0987139)
(-1.27234e-05 1.17816e-05 0.0932111)
(5.53077e-06 -4.77975e-06 0.10979)
(1.23569e-05 -8.42538e-06 0.107439)
(-1.36004e-05 8.79837e-07 0.098648)
(5.36875e-06 5.40856e-06 0.0932699)
(1.20901e-05 -3.20129e-06 0.109782)
(7.20693e-06 -4.2793e-06 0.0717813)
(1.7624e-06 6.61033e-06 0.0717851)
(1.95578e-06 1.00098e-05 0.0987145)
(-6.38474e-06 6.00164e-06 0.109787)
(1.23567e-05 -1.24641e-05 0.0932107)
(-9.10786e-06 1.31709e-05 0.107439)
(-2.06423e-07 -1.37744e-05 0.0986466)
(-4.63004e-06 1.30307e-05 0.109781)
(5.23995e-06 6.03214e-06 0.0932713)
(-7.49972e-06 -1.17021e-05 0.0877976)
(-1.2187e-05 -7.26673e-06 0.0877968)
(4.44537e-05 4.60554e-05 0.104335)
(-1.06223e-06 -2.45956e-06 0.0878277)
(-2.32707e-06 -1.2365e-06 0.0878261)
(-2.98508e-08 -1.287e-05 0.0916666)
(-1.89449e-06 5.52276e-06 0.0824676)
(8.91385e-07 3.44618e-06 0.091631)
(-1.62225e-10 -1.03643e-05 0.0825153)
(-1.38672e-06 1.84493e-06 0.0717486)
(-1.73978e-06 -5.25151e-06 0.0717968)
(-1.27543e-05 1.64622e-07 0.0916662)
(5.30542e-06 -2.09865e-06 0.0824684)
(3.2836e-06 6.04791e-07 0.091631)
(-1.04992e-05 1.35937e-07 0.0825161)
(1.80586e-05 -1.58851e-05 0.112205)
(-1.55865e-05 1.77834e-05 0.112205)
(2.09011e-05 2.10504e-05 0.112205)
(-1.2554e-05 -1.30911e-05 0.112183)