/*--------------------------------*- C++ -*----------------------------------*\
| =========                 |                                                 |
| \\      /  F ield         | OpenFOAM: The Open Source CFD Toolbox           |
|  \\    /   O peration     | Version:  v2012                                 |
|   \\  /    A nd           | Website:  www.openfoam.com                      |
|    \\/     M anipulation  |                                                 |
\*---------------------------------------------------------------------------*/
FoamFile
{
    version     2.0;
    format      ascii;
    class       volScalarField;
    location    "0.41";
    object      p;
}
// * * * * * * * * * * * * * * * * * * * * * * * * * * * * * * * * * * * * * //

dimensions      [0 2 -2 0 0 0 0];


internalField   nonuniform List<scalar> 
247104
(
1.83965e-06
1.83954e-06
1.83969e-06
1.83967e-06
1.83959e-06
1.83968e-06
1.83967e-06
1.83947e-06
1.83953e-06
1.8396e-06
1.83966e-06
1.83951e-06
1.83942e-06
1.83953e-06
1.83967e-06
1.83957e-06
1.83969e-06
1.83966e-06
1.83936e-06
1.83899e-06
1.83885e-06
1.83903e-06
1.8394e-06
1.83968e-06
1.83969e-06
1.83967e-06
1.83951e-06
1.83899e-06
1.83851e-06
1.83834e-06
1.83856e-06
1.83906e-06
1.83955e-06
1.83967e-06
1.83965e-06
1.83959e-06
1.83942e-06
1.83885e-06
1.83834e-06
1.83816e-06
1.83839e-06
1.83893e-06
1.83947e-06
1.83957e-06
1.83969e-06
1.83953e-06
1.83903e-06
1.83856e-06
1.83839e-06
1.83861e-06
1.8391e-06
1.83957e-06
1.83969e-06
1.83967e-06
1.83967e-06
1.8394e-06
1.83906e-06
1.83893e-06
1.8391e-06
1.83945e-06
1.83968e-06
1.83967e-06
1.83947e-06
1.83957e-06
1.83968e-06
1.83955e-06
1.83947e-06
1.83957e-06
1.83968e-06
1.83954e-06
1.83969e-06
1.83967e-06
1.83957e-06
1.83969e-06
1.83967e-06
1.80686e-06
1.80487e-06
1.80422e-06
1.80301e-06
1.80301e-06
1.80296e-06
1.80295e-06
1.80428e-06
1.8045e-06
1.80424e-06
1.80217e-06
1.79958e-06
1.79957e-06
1.79957e-06
1.79958e-06
1.80255e-06
1.80282e-06
1.80301e-06
1.79958e-06
1.79952e-06
1.79959e-06
1.79959e-06
1.79952e-06
1.79958e-06
1.80293e-06
1.80428e-06
1.80686e-06
1.80302e-06
1.79957e-06
1.79959e-06
1.79968e-06
1.79968e-06
1.79959e-06
1.79957e-06
1.80295e-06
1.80459e-06
1.80487e-06
1.80296e-06
1.79957e-06
1.79959e-06
1.79968e-06
1.79968e-06
1.79959e-06
1.79957e-06
1.80311e-06
1.8032e-06
1.80296e-06
1.79958e-06
1.79952e-06
1.79959e-06
1.79959e-06
1.79952e-06
1.79958e-06
1.8029e-06
1.8042e-06
1.80429e-06
1.80256e-06
1.79958e-06
1.79957e-06
1.79957e-06
1.79958e-06
1.8028e-06
1.80297e-06
1.80443e-06
1.8045e-06
1.80282e-06
1.80293e-06
1.80295e-06
1.80311e-06
1.8029e-06
1.80297e-06
1.80452e-06
1.80428e-06
1.80459e-06
1.8032e-06
1.8042e-06
1.80444e-06
1.78673e-06
1.78657e-06
1.78639e-06
1.7843e-06
1.78419e-06
1.78414e-06
1.78427e-06
1.78634e-06
1.7866e-06
1.78639e-06
1.78359e-06
1.78068e-06
1.78062e-06
1.78062e-06
1.78066e-06
1.78405e-06
1.78473e-06
1.7843e-06
1.78066e-06
1.78043e-06
1.78047e-06
1.78047e-06
1.78043e-06
1.78066e-06
1.78485e-06
1.7868e-06
1.78673e-06
1.78419e-06
1.78062e-06
1.78047e-06
1.78051e-06
1.78051e-06
1.78047e-06
1.78061e-06
1.7849e-06
1.78656e-06
1.78657e-06
1.78414e-06
1.78061e-06
1.78047e-06
1.78051e-06
1.7805e-06
1.78046e-06
1.7806e-06
1.78485e-06
1.78488e-06
1.78427e-06
1.78066e-06
1.78043e-06
1.78047e-06
1.78047e-06
1.78042e-06
1.78063e-06
1.78489e-06
1.7869e-06
1.78634e-06
1.78405e-06
1.78068e-06
1.78062e-06
1.78062e-06
1.78067e-06
1.78452e-06
1.78484e-06
1.78682e-06
1.7866e-06
1.78473e-06
1.78486e-06
1.78491e-06
1.78486e-06
1.7849e-06
1.78484e-06
1.7867e-06
1.78681e-06
1.78657e-06
1.78488e-06
1.7869e-06
1.78682e-06
1.76784e-06
1.76767e-06
1.76752e-06
1.76538e-06
1.76528e-06
1.7652e-06
1.76538e-06
1.76746e-06
1.76773e-06
1.76752e-06
1.76467e-06
1.76171e-06
1.76169e-06
1.76169e-06
1.76171e-06
1.7651e-06
1.76587e-06
1.76538e-06
1.76171e-06
1.76161e-06
1.76162e-06
1.76162e-06
1.76161e-06
1.76171e-06
1.76596e-06
1.76791e-06
1.76783e-06
1.76527e-06
1.76169e-06
1.76162e-06
1.76163e-06
1.76163e-06
1.76162e-06
1.76169e-06
1.76601e-06
1.76766e-06
1.76767e-06
1.7652e-06
1.76169e-06
1.76162e-06
1.76163e-06
1.76163e-06
1.76162e-06
1.76169e-06
1.76598e-06
1.76601e-06
1.76538e-06
1.76171e-06
1.76161e-06
1.76162e-06
1.76162e-06
1.76161e-06
1.76172e-06
1.766e-06
1.76799e-06
1.76745e-06
1.76509e-06
1.76171e-06
1.76169e-06
1.76169e-06
1.76172e-06
1.76573e-06
1.76599e-06
1.76796e-06
1.76773e-06
1.76587e-06
1.76596e-06
1.76601e-06
1.76598e-06
1.766e-06
1.76599e-06
1.76798e-06
1.76791e-06
1.76766e-06
1.76601e-06
1.76799e-06
1.76796e-06
1.74893e-06
1.74876e-06
1.7486e-06
1.74646e-06
1.74634e-06
1.74626e-06
1.74644e-06
1.74854e-06
1.74881e-06
1.7486e-06
1.74575e-06
1.74277e-06
1.74276e-06
1.74276e-06
1.74277e-06
1.74614e-06
1.74695e-06
1.74645e-06
1.74277e-06
1.74273e-06
1.74274e-06
1.74274e-06
1.74274e-06
1.74277e-06
1.74704e-06
1.74899e-06
1.74893e-06
1.74634e-06
1.74276e-06
1.74274e-06
1.74274e-06
1.74274e-06
1.74274e-06
1.74276e-06
1.74711e-06
1.74877e-06
1.74876e-06
1.74625e-06
1.74276e-06
1.74274e-06
1.74274e-06
1.74274e-06
1.74274e-06
1.74276e-06
1.74709e-06
1.74711e-06
1.74644e-06
1.74277e-06
1.74274e-06
1.74274e-06
1.74274e-06
1.74274e-06
1.74277e-06
1.74709e-06
1.74909e-06
1.74854e-06
1.74614e-06
1.74277e-06
1.74276e-06
1.74276e-06
1.74277e-06
1.74684e-06
1.74708e-06
1.74903e-06
1.74881e-06
1.74695e-06
1.74704e-06
1.74711e-06
1.74709e-06
1.74709e-06
1.74708e-06
1.74902e-06
1.74899e-06
1.74877e-06
1.74711e-06
1.74909e-06
1.74903e-06
1.73e-06
1.72983e-06
1.72966e-06
1.72752e-06
1.7274e-06
1.72732e-06
1.7275e-06
1.7296e-06
1.72987e-06
1.72966e-06
1.72682e-06
1.72383e-06
1.72383e-06
1.72383e-06
1.72383e-06
1.72719e-06
1.72801e-06
1.72752e-06
1.72383e-06
1.72382e-06
1.72382e-06
1.72382e-06
1.72382e-06
1.72383e-06
1.7281e-06
1.73006e-06
1.73e-06
1.7274e-06
1.72383e-06
1.72382e-06
1.72382e-06
1.72382e-06
1.72382e-06
1.72383e-06
1.72818e-06
1.72985e-06
1.72983e-06
1.72732e-06
1.72383e-06
1.72382e-06
1.72382e-06
1.72382e-06
1.72382e-06
1.72383e-06
1.72816e-06
1.72818e-06
1.72751e-06
1.72383e-06
1.72382e-06
1.72382e-06
1.72382e-06
1.72382e-06
1.72383e-06
1.72816e-06
1.73017e-06
1.7296e-06
1.72719e-06
1.72383e-06
1.72383e-06
1.72383e-06
1.72383e-06
1.72791e-06
1.72815e-06
1.73009e-06
1.72987e-06
1.72801e-06
1.7281e-06
1.72818e-06
1.72816e-06
1.72816e-06
1.72815e-06
1.73009e-06
1.73006e-06
1.72985e-06
1.72818e-06
1.73016e-06
1.73009e-06
1.71107e-06
1.7109e-06
1.71073e-06
1.70859e-06
1.70847e-06
1.70839e-06
1.70857e-06
1.71067e-06
1.71094e-06
1.71073e-06
1.70789e-06
1.7049e-06
1.7049e-06
1.7049e-06
1.7049e-06
1.70826e-06
1.70908e-06
1.70859e-06
1.7049e-06
1.7049e-06
1.7049e-06
1.7049e-06
1.7049e-06
1.7049e-06
1.70917e-06
1.71113e-06
1.71107e-06
1.70847e-06
1.7049e-06
1.7049e-06
1.7049e-06
1.7049e-06
1.7049e-06
1.7049e-06
1.70925e-06
1.71092e-06
1.7109e-06
1.70839e-06
1.7049e-06
1.7049e-06
1.7049e-06
1.7049e-06
1.7049e-06
1.7049e-06
1.70923e-06
1.70925e-06
1.70857e-06
1.7049e-06
1.7049e-06
1.7049e-06
1.7049e-06
1.7049e-06
1.7049e-06
1.70923e-06
1.71124e-06
1.71067e-06
1.70825e-06
1.7049e-06
1.7049e-06
1.7049e-06
1.7049e-06
1.70899e-06
1.70922e-06
1.71116e-06
1.71094e-06
1.70908e-06
1.70917e-06
1.70925e-06
1.70923e-06
1.70923e-06
1.70922e-06
1.71115e-06
1.71113e-06
1.71092e-06
1.70925e-06
1.71124e-06
1.71116e-06
1.69214e-06
1.69197e-06
1.6918e-06
1.68966e-06
1.68954e-06
1.68946e-06
1.68964e-06
1.69174e-06
1.69201e-06
1.6918e-06
1.68896e-06
1.68597e-06
1.68597e-06
1.68597e-06
1.68597e-06
1.68932e-06
1.69015e-06
1.68966e-06
1.68597e-06
1.68597e-06
1.68597e-06
1.68597e-06
1.68597e-06
1.68597e-06
1.69023e-06
1.6922e-06
1.69214e-06
1.68954e-06
1.68597e-06
1.68597e-06
1.68597e-06
1.68597e-06
1.68597e-06
1.68597e-06
1.69032e-06
1.69199e-06
1.69197e-06
1.68946e-06
1.68597e-06
1.68597e-06
1.68597e-06
1.68597e-06
1.68597e-06
1.68597e-06
1.6903e-06
1.69032e-06
1.68964e-06
1.68597e-06
1.68597e-06
1.68597e-06
1.68597e-06
1.68597e-06
1.68597e-06
1.6903e-06
1.69231e-06
1.69174e-06
1.68932e-06
1.68597e-06
1.68597e-06
1.68597e-06
1.68597e-06
1.69005e-06
1.69029e-06
1.69223e-06
1.69201e-06
1.69015e-06
1.69023e-06
1.69032e-06
1.6903e-06
1.6903e-06
1.69029e-06
1.69222e-06
1.6922e-06
1.69199e-06
1.69032e-06
1.69231e-06
1.69223e-06
1.67321e-06
1.67304e-06
1.67287e-06
1.67073e-06
1.67061e-06
1.67053e-06
1.67071e-06
1.67281e-06
1.67308e-06
1.67287e-06
1.67003e-06
1.66704e-06
1.66704e-06
1.66704e-06
1.66704e-06
1.67039e-06
1.67122e-06
1.67073e-06
1.66704e-06
1.66704e-06
1.66704e-06
1.66704e-06
1.66704e-06
1.66704e-06
1.6713e-06
1.67327e-06
1.67321e-06
1.67061e-06
1.66704e-06
1.66704e-06
1.66704e-06
1.66704e-06
1.66704e-06
1.66704e-06
1.67139e-06
1.67306e-06
1.67304e-06
1.67053e-06
1.66704e-06
1.66704e-06
1.66704e-06
1.66704e-06
1.66704e-06
1.66704e-06
1.67137e-06
1.67139e-06
1.67071e-06
1.66704e-06
1.66704e-06
1.66704e-06
1.66704e-06
1.66704e-06
1.66704e-06
1.67137e-06
1.67337e-06
1.67281e-06
1.67039e-06
1.66704e-06
1.66704e-06
1.66704e-06
1.66704e-06
1.67112e-06
1.67136e-06
1.6733e-06
1.67308e-06
1.67122e-06
1.6713e-06
1.67139e-06
1.67137e-06
1.67137e-06
1.67136e-06
1.67329e-06
1.67326e-06
1.67306e-06
1.67139e-06
1.67337e-06
1.6733e-06
1.65428e-06
1.65411e-06
1.65394e-06
1.6518e-06
1.65168e-06
1.6516e-06
1.65178e-06
1.65388e-06
1.65415e-06
1.65394e-06
1.6511e-06
1.64811e-06
1.64811e-06
1.64811e-06
1.64811e-06
1.65146e-06
1.65229e-06
1.6518e-06
1.64811e-06
1.64811e-06
1.64811e-06
1.64811e-06
1.64811e-06
1.64811e-06
1.65237e-06
1.65434e-06
1.65428e-06
1.65168e-06
1.64811e-06
1.64811e-06
1.64811e-06
1.64811e-06
1.64811e-06
1.64811e-06
1.65246e-06
1.65413e-06
1.65411e-06
1.6516e-06
1.64811e-06
1.64811e-06
1.64811e-06
1.64811e-06
1.64811e-06
1.64811e-06
1.65244e-06
1.65246e-06
1.65178e-06
1.64811e-06
1.64811e-06
1.64811e-06
1.64811e-06
1.64811e-06
1.64811e-06
1.65244e-06
1.65444e-06
1.65388e-06
1.65146e-06
1.64811e-06
1.64811e-06
1.64811e-06
1.64811e-06
1.65219e-06
1.65243e-06
1.65437e-06
1.65415e-06
1.65229e-06
1.65237e-06
1.65246e-06
1.65243e-06
1.65244e-06
1.65243e-06
1.65436e-06
1.65433e-06
1.65413e-06
1.65246e-06
1.65444e-06
1.65437e-06
1.63535e-06
1.63518e-06
1.63501e-06
1.63287e-06
1.63275e-06
1.63267e-06
1.63285e-06
1.63495e-06
1.63522e-06
1.63501e-06
1.63217e-06
1.62918e-06
1.62918e-06
1.62918e-06
1.62918e-06
1.63253e-06
1.63336e-06
1.63287e-06
1.62918e-06
1.62918e-06
1.62918e-06
1.62918e-06
1.62918e-06
1.62918e-06
1.63344e-06
1.63541e-06
1.63535e-06
1.63275e-06
1.62918e-06
1.62918e-06
1.62918e-06
1.62918e-06
1.62918e-06
1.62918e-06
1.63353e-06
1.6352e-06
1.63518e-06
1.63267e-06
1.62918e-06
1.62918e-06
1.62918e-06
1.62918e-06
1.62918e-06
1.62918e-06
1.63351e-06
1.63353e-06
1.63285e-06
1.62918e-06
1.62918e-06
1.62918e-06
1.62918e-06
1.62918e-06
1.62918e-06
1.6335e-06
1.63551e-06
1.63495e-06
1.63253e-06
1.62918e-06
1.62918e-06
1.62918e-06
1.62918e-06
1.63326e-06
1.6335e-06
1.63544e-06
1.63522e-06
1.63336e-06
1.63344e-06
1.63353e-06
1.6335e-06
1.63351e-06
1.6335e-06
1.63543e-06
1.6354e-06
1.6352e-06
1.63353e-06
1.63551e-06
1.63544e-06
1.61642e-06
1.61625e-06
1.61608e-06
1.61394e-06
1.61382e-06
1.61374e-06
1.61392e-06
1.61602e-06
1.61629e-06
1.61608e-06
1.61324e-06
1.61025e-06
1.61025e-06
1.61025e-06
1.61025e-06
1.6136e-06
1.61443e-06
1.61394e-06
1.61025e-06
1.61025e-06
1.61025e-06
1.61025e-06
1.61025e-06
1.61025e-06
1.61451e-06
1.61648e-06
1.61642e-06
1.61382e-06
1.61025e-06
1.61025e-06
1.61025e-06
1.61025e-06
1.61025e-06
1.61025e-06
1.6146e-06
1.61627e-06
1.61625e-06
1.61374e-06
1.61025e-06
1.61025e-06
1.61025e-06
1.61025e-06
1.61025e-06
1.61025e-06
1.61458e-06
1.6146e-06
1.61392e-06
1.61025e-06
1.61025e-06
1.61025e-06
1.61025e-06
1.61025e-06
1.61025e-06
1.61458e-06
1.61658e-06
1.61602e-06
1.6136e-06
1.61025e-06
1.61025e-06
1.61025e-06
1.61025e-06
1.61433e-06
1.61457e-06
1.61651e-06
1.61629e-06
1.61443e-06
1.61451e-06
1.6146e-06
1.61457e-06
1.61458e-06
1.61457e-06
1.6165e-06
1.61647e-06
1.61627e-06
1.6146e-06
1.61658e-06
1.61651e-06
1.59749e-06
1.59732e-06
1.59715e-06
1.59501e-06
1.59489e-06
1.59481e-06
1.59499e-06
1.59709e-06
1.59736e-06
1.59715e-06
1.59431e-06
1.59132e-06
1.59132e-06
1.59132e-06
1.59132e-06
1.59467e-06
1.5955e-06
1.59501e-06
1.59132e-06
1.59132e-06
1.59132e-06
1.59132e-06
1.59132e-06
1.59132e-06
1.59558e-06
1.59755e-06
1.59749e-06
1.59489e-06
1.59132e-06
1.59132e-06
1.59132e-06
1.59132e-06
1.59132e-06
1.59132e-06
1.59567e-06
1.59734e-06
1.59732e-06
1.59481e-06
1.59132e-06
1.59132e-06
1.59132e-06
1.59132e-06
1.59132e-06
1.59132e-06
1.59565e-06
1.59567e-06
1.59499e-06
1.59132e-06
1.59132e-06
1.59132e-06
1.59132e-06
1.59132e-06
1.59132e-06
1.59565e-06
1.59766e-06
1.59709e-06
1.59467e-06
1.59132e-06
1.59132e-06
1.59132e-06
1.59132e-06
1.59541e-06
1.59565e-06
1.59758e-06
1.59736e-06
1.5955e-06
1.59558e-06
1.59567e-06
1.59565e-06
1.59565e-06
1.59564e-06
1.59757e-06
1.59755e-06
1.59734e-06
1.59567e-06
1.59766e-06
1.59758e-06
1.57856e-06
1.57839e-06
1.57822e-06
1.57608e-06
1.57596e-06
1.57589e-06
1.57606e-06
1.57816e-06
1.57843e-06
1.57822e-06
1.57539e-06
1.57239e-06
1.57239e-06
1.57239e-06
1.57239e-06
1.57575e-06
1.57657e-06
1.57608e-06
1.57239e-06
1.57239e-06
1.57239e-06
1.57239e-06
1.57239e-06
1.57239e-06
1.57666e-06
1.57862e-06
1.57856e-06
1.57596e-06
1.57239e-06
1.57239e-06
1.57239e-06
1.57239e-06
1.57239e-06
1.57239e-06
1.57674e-06
1.57841e-06
1.5784e-06
1.57589e-06
1.57239e-06
1.57239e-06
1.57239e-06
1.57239e-06
1.57239e-06
1.57239e-06
1.57672e-06
1.57675e-06
1.57606e-06
1.57239e-06
1.57239e-06
1.57239e-06
1.57239e-06
1.57239e-06
1.57239e-06
1.57672e-06
1.57873e-06
1.57816e-06
1.57575e-06
1.57239e-06
1.57239e-06
1.57239e-06
1.57239e-06
1.57648e-06
1.57672e-06
1.57865e-06
1.57843e-06
1.57657e-06
1.57665e-06
1.57674e-06
1.57672e-06
1.57672e-06
1.57672e-06
1.57864e-06
1.57862e-06
1.57841e-06
1.57675e-06
1.57873e-06
1.57865e-06
1.55964e-06
1.55947e-06
1.55929e-06
1.55715e-06
1.55704e-06
1.55696e-06
1.55714e-06
1.55924e-06
1.5595e-06
1.55929e-06
1.55646e-06
1.55346e-06
1.55346e-06
1.55346e-06
1.55346e-06
1.55682e-06
1.55764e-06
1.55715e-06
1.55346e-06
1.55346e-06
1.55346e-06
1.55346e-06
1.55346e-06
1.55346e-06
1.55773e-06
1.55969e-06
1.55964e-06
1.55704e-06
1.55346e-06
1.55346e-06
1.55346e-06
1.55346e-06
1.55346e-06
1.55346e-06
1.55781e-06
1.55948e-06
1.55947e-06
1.55696e-06
1.55346e-06
1.55346e-06
1.55346e-06
1.55346e-06
1.55346e-06
1.55346e-06
1.55779e-06
1.55782e-06
1.55714e-06
1.55346e-06
1.55346e-06
1.55346e-06
1.55346e-06
1.55346e-06
1.55346e-06
1.55779e-06
1.5598e-06
1.55924e-06
1.55682e-06
1.55346e-06
1.55346e-06
1.55346e-06
1.55346e-06
1.55755e-06
1.55779e-06
1.55972e-06
1.5595e-06
1.55764e-06
1.55773e-06
1.55781e-06
1.55779e-06
1.55779e-06
1.55779e-06
1.55971e-06
1.55969e-06
1.55948e-06
1.55782e-06
1.5598e-06
1.55972e-06
1.54071e-06
1.54054e-06
1.54037e-06
1.53823e-06
1.53811e-06
1.53803e-06
1.53821e-06
1.54031e-06
1.54058e-06
1.54037e-06
1.53753e-06
1.53454e-06
1.53454e-06
1.53454e-06
1.53454e-06
1.53789e-06
1.53872e-06
1.53823e-06
1.53454e-06
1.53454e-06
1.53454e-06
1.53454e-06
1.53454e-06
1.53454e-06
1.5388e-06
1.54076e-06
1.54071e-06
1.53811e-06
1.53454e-06
1.53454e-06
1.53454e-06
1.53454e-06
1.53454e-06
1.53454e-06
1.53889e-06
1.54056e-06
1.54054e-06
1.53803e-06
1.53454e-06
1.53454e-06
1.53454e-06
1.53454e-06
1.53454e-06
1.53454e-06
1.53886e-06
1.53889e-06
1.53821e-06
1.53454e-06
1.53454e-06
1.53454e-06
1.53454e-06
1.53454e-06
1.53454e-06
1.53886e-06
1.54087e-06
1.54031e-06
1.53789e-06
1.53454e-06
1.53454e-06
1.53454e-06
1.53454e-06
1.53862e-06
1.53886e-06
1.54079e-06
1.54057e-06
1.53872e-06
1.5388e-06
1.53889e-06
1.53886e-06
1.53886e-06
1.53886e-06
1.54079e-06
1.54076e-06
1.54056e-06
1.53889e-06
1.54087e-06
1.54079e-06
1.52178e-06
1.52161e-06
1.52144e-06
1.5193e-06
1.51918e-06
1.5191e-06
1.51928e-06
1.52138e-06
1.52165e-06
1.52144e-06
1.5186e-06
1.51561e-06
1.51561e-06
1.51561e-06
1.51561e-06
1.51896e-06
1.51979e-06
1.5193e-06
1.51561e-06
1.51561e-06
1.51561e-06
1.51561e-06
1.51561e-06
1.51561e-06
1.51987e-06
1.52184e-06
1.52178e-06
1.51918e-06
1.51561e-06
1.51561e-06
1.51561e-06
1.51561e-06
1.51561e-06
1.51561e-06
1.51996e-06
1.52163e-06
1.52161e-06
1.5191e-06
1.51561e-06
1.51561e-06
1.51561e-06
1.51561e-06
1.51561e-06
1.51561e-06
1.51994e-06
1.51996e-06
1.51928e-06
1.51561e-06
1.51561e-06
1.51561e-06
1.51561e-06
1.51561e-06
1.51561e-06
1.51994e-06
1.52195e-06
1.52138e-06
1.51896e-06
1.51561e-06
1.51561e-06
1.51561e-06
1.51561e-06
1.5197e-06
1.51993e-06
1.52187e-06
1.52165e-06
1.51979e-06
1.51987e-06
1.51996e-06
1.51994e-06
1.51994e-06
1.51993e-06
1.52186e-06
1.52184e-06
1.52163e-06
1.51996e-06
1.52195e-06
1.52187e-06
1.50285e-06
1.50269e-06
1.50251e-06
1.50037e-06
1.50025e-06
1.50018e-06
1.50035e-06
1.50245e-06
1.50272e-06
1.50251e-06
1.49968e-06
1.49668e-06
1.49668e-06
1.49668e-06
1.49668e-06
1.50004e-06
1.50086e-06
1.50037e-06
1.49668e-06
1.49668e-06
1.49668e-06
1.49668e-06
1.49668e-06
1.49668e-06
1.50095e-06
1.50291e-06
1.50285e-06
1.50025e-06
1.49668e-06
1.49668e-06
1.49668e-06
1.49668e-06
1.49668e-06
1.49668e-06
1.50103e-06
1.5027e-06
1.50269e-06
1.50018e-06
1.49668e-06
1.49668e-06
1.49668e-06
1.49668e-06
1.49668e-06
1.49668e-06
1.50101e-06
1.50104e-06
1.50035e-06
1.49668e-06
1.49668e-06
1.49668e-06
1.49668e-06
1.49668e-06
1.49668e-06
1.50101e-06
1.50302e-06
1.50245e-06
1.50004e-06
1.49668e-06
1.49668e-06
1.49668e-06
1.49668e-06
1.50077e-06
1.50101e-06
1.50294e-06
1.50272e-06
1.50086e-06
1.50095e-06
1.50103e-06
1.50101e-06
1.50101e-06
1.50101e-06
1.50293e-06
1.50291e-06
1.5027e-06
1.50104e-06
1.50302e-06
1.50294e-06
1.48393e-06
1.48376e-06
1.48358e-06
1.48144e-06
1.48133e-06
1.48125e-06
1.48143e-06
1.48353e-06
1.48379e-06
1.48358e-06
1.48075e-06
1.47775e-06
1.47775e-06
1.47775e-06
1.47775e-06
1.48111e-06
1.48193e-06
1.48144e-06
1.47775e-06
1.47775e-06
1.47775e-06
1.47775e-06
1.47775e-06
1.47775e-06
1.48202e-06
1.48398e-06
1.48393e-06
1.48133e-06
1.47775e-06
1.47775e-06
1.47775e-06
1.47775e-06
1.47775e-06
1.47775e-06
1.4821e-06
1.48377e-06
1.48376e-06
1.48125e-06
1.47775e-06
1.47775e-06
1.47775e-06
1.47775e-06
1.47775e-06
1.47775e-06
1.48208e-06
1.48211e-06
1.48143e-06
1.47775e-06
1.47775e-06
1.47775e-06
1.47775e-06
1.47775e-06
1.47775e-06
1.48208e-06
1.48409e-06
1.48353e-06
1.48111e-06
1.47775e-06
1.47775e-06
1.47775e-06
1.47775e-06
1.48184e-06
1.48208e-06
1.48401e-06
1.48379e-06
1.48193e-06
1.48202e-06
1.4821e-06
1.48208e-06
1.48208e-06
1.48208e-06
1.48401e-06
1.48398e-06
1.48377e-06
1.48211e-06
1.48409e-06
1.48401e-06
1.465e-06
1.46483e-06
1.46466e-06
1.46252e-06
1.4624e-06
1.46232e-06
1.4625e-06
1.4646e-06
1.46487e-06
1.46466e-06
1.46182e-06
1.45883e-06
1.45883e-06
1.45883e-06
1.45883e-06
1.46218e-06
1.46301e-06
1.46252e-06
1.45883e-06
1.45883e-06
1.45883e-06
1.45883e-06
1.45883e-06
1.45883e-06
1.46309e-06
1.46506e-06
1.465e-06
1.4624e-06
1.45883e-06
1.45883e-06
1.45883e-06
1.45883e-06
1.45883e-06
1.45883e-06
1.46318e-06
1.46485e-06
1.46483e-06
1.46232e-06
1.45883e-06
1.45883e-06
1.45883e-06
1.45883e-06
1.45883e-06
1.45883e-06
1.46316e-06
1.46318e-06
1.4625e-06
1.45883e-06
1.45883e-06
1.45883e-06
1.45883e-06
1.45883e-06
1.45883e-06
1.46316e-06
1.46516e-06
1.4646e-06
1.46218e-06
1.45883e-06
1.45883e-06
1.45883e-06
1.45883e-06
1.46291e-06
1.46315e-06
1.46509e-06
1.46487e-06
1.46301e-06
1.46309e-06
1.46318e-06
1.46315e-06
1.46316e-06
1.46315e-06
1.46508e-06
1.46505e-06
1.46485e-06
1.46318e-06
1.46516e-06
1.46509e-06
1.44607e-06
1.4459e-06
1.44573e-06
1.44359e-06
1.44347e-06
1.44339e-06
1.44357e-06
1.44567e-06
1.44594e-06
1.44573e-06
1.44289e-06
1.4399e-06
1.4399e-06
1.4399e-06
1.4399e-06
1.44325e-06
1.44408e-06
1.44359e-06
1.4399e-06
1.4399e-06
1.4399e-06
1.4399e-06
1.4399e-06
1.4399e-06
1.44416e-06
1.44613e-06
1.44607e-06
1.44347e-06
1.4399e-06
1.4399e-06
1.4399e-06
1.4399e-06
1.4399e-06
1.4399e-06
1.44425e-06
1.44592e-06
1.4459e-06
1.44339e-06
1.4399e-06
1.4399e-06
1.4399e-06
1.4399e-06
1.4399e-06
1.4399e-06
1.44423e-06
1.44425e-06
1.44357e-06
1.4399e-06
1.4399e-06
1.4399e-06
1.4399e-06
1.4399e-06
1.4399e-06
1.44423e-06
1.44624e-06
1.44567e-06
1.44325e-06
1.4399e-06
1.4399e-06
1.4399e-06
1.4399e-06
1.44399e-06
1.44423e-06
1.44616e-06
1.44594e-06
1.44408e-06
1.44416e-06
1.44425e-06
1.44423e-06
1.44423e-06
1.44422e-06
1.44615e-06
1.44613e-06
1.44592e-06
1.44425e-06
1.44624e-06
1.44616e-06
1.42714e-06
1.42698e-06
1.4268e-06
1.42466e-06
1.42454e-06
1.42447e-06
1.42465e-06
1.42674e-06
1.42701e-06
1.4268e-06
1.42397e-06
1.42097e-06
1.42097e-06
1.42097e-06
1.42097e-06
1.42433e-06
1.42515e-06
1.42466e-06
1.42097e-06
1.42097e-06
1.42097e-06
1.42097e-06
1.42097e-06
1.42097e-06
1.42524e-06
1.4272e-06
1.42714e-06
1.42454e-06
1.42097e-06
1.42097e-06
1.42097e-06
1.42097e-06
1.42097e-06
1.42097e-06
1.42532e-06
1.42699e-06
1.42698e-06
1.42447e-06
1.42097e-06
1.42097e-06
1.42097e-06
1.42097e-06
1.42097e-06
1.42097e-06
1.4253e-06
1.42533e-06
1.42464e-06
1.42097e-06
1.42097e-06
1.42097e-06
1.42097e-06
1.42097e-06
1.42097e-06
1.4253e-06
1.42731e-06
1.42674e-06
1.42433e-06
1.42097e-06
1.42097e-06
1.42097e-06
1.42097e-06
1.42506e-06
1.4253e-06
1.42723e-06
1.42701e-06
1.42515e-06
1.42524e-06
1.42532e-06
1.4253e-06
1.4253e-06
1.4253e-06
1.42722e-06
1.4272e-06
1.42699e-06
1.42533e-06
1.42731e-06
1.42723e-06
1.40822e-06
1.40805e-06
1.40787e-06
1.40574e-06
1.40562e-06
1.40554e-06
1.40572e-06
1.40782e-06
1.40808e-06
1.40787e-06
1.40504e-06
1.40204e-06
1.40204e-06
1.40204e-06
1.40204e-06
1.4054e-06
1.40623e-06
1.40573e-06
1.40204e-06
1.40204e-06
1.40204e-06
1.40204e-06
1.40204e-06
1.40204e-06
1.40631e-06
1.40827e-06
1.40822e-06
1.40562e-06
1.40204e-06
1.40204e-06
1.40204e-06
1.40204e-06
1.40204e-06
1.40204e-06
1.4064e-06
1.40806e-06
1.40805e-06
1.40554e-06
1.40204e-06
1.40204e-06
1.40204e-06
1.40204e-06
1.40204e-06
1.40204e-06
1.40637e-06
1.4064e-06
1.40572e-06
1.40204e-06
1.40204e-06
1.40204e-06
1.40204e-06
1.40204e-06
1.40204e-06
1.40637e-06
1.40838e-06
1.40782e-06
1.4054e-06
1.40204e-06
1.40204e-06
1.40204e-06
1.40204e-06
1.40613e-06
1.40637e-06
1.4083e-06
1.40808e-06
1.40623e-06
1.40631e-06
1.40639e-06
1.40637e-06
1.40637e-06
1.40637e-06
1.4083e-06
1.40827e-06
1.40806e-06
1.4064e-06
1.40838e-06
1.4083e-06
1.38929e-06
1.38912e-06
1.38895e-06
1.38681e-06
1.38669e-06
1.38661e-06
1.38679e-06
1.38889e-06
1.38916e-06
1.38895e-06
1.38611e-06
1.38312e-06
1.38312e-06
1.38312e-06
1.38312e-06
1.38647e-06
1.3873e-06
1.38681e-06
1.38312e-06
1.38312e-06
1.38312e-06
1.38312e-06
1.38312e-06
1.38312e-06
1.38738e-06
1.38935e-06
1.38929e-06
1.38669e-06
1.38312e-06
1.38312e-06
1.38312e-06
1.38312e-06
1.38312e-06
1.38312e-06
1.38747e-06
1.38914e-06
1.38912e-06
1.38661e-06
1.38312e-06
1.38312e-06
1.38312e-06
1.38312e-06
1.38312e-06
1.38312e-06
1.38745e-06
1.38747e-06
1.38679e-06
1.38312e-06
1.38312e-06
1.38312e-06
1.38312e-06
1.38312e-06
1.38312e-06
1.38745e-06
1.38946e-06
1.38889e-06
1.38647e-06
1.38312e-06
1.38312e-06
1.38312e-06
1.38312e-06
1.38721e-06
1.38745e-06
1.38938e-06
1.38916e-06
1.3873e-06
1.38738e-06
1.38747e-06
1.38745e-06
1.38745e-06
1.38744e-06
1.38937e-06
1.38935e-06
1.38914e-06
1.38747e-06
1.38946e-06
1.38938e-06
1.37037e-06
1.3702e-06
1.37002e-06
1.36788e-06
1.36777e-06
1.36769e-06
1.36787e-06
1.36996e-06
1.37023e-06
1.37002e-06
1.36719e-06
1.36419e-06
1.36419e-06
1.36419e-06
1.36419e-06
1.36755e-06
1.36837e-06
1.36788e-06
1.36419e-06
1.36419e-06
1.36419e-06
1.36419e-06
1.36419e-06
1.36419e-06
1.36846e-06
1.37042e-06
1.37037e-06
1.36777e-06
1.36419e-06
1.36419e-06
1.36419e-06
1.36419e-06
1.36419e-06
1.36419e-06
1.36854e-06
1.37021e-06
1.3702e-06
1.36769e-06
1.36419e-06
1.36419e-06
1.36419e-06
1.36419e-06
1.36419e-06
1.36419e-06
1.36852e-06
1.36855e-06
1.36787e-06
1.36419e-06
1.36419e-06
1.36419e-06
1.36419e-06
1.36419e-06
1.36419e-06
1.36852e-06
1.37053e-06
1.36997e-06
1.36755e-06
1.36419e-06
1.36419e-06
1.36419e-06
1.36419e-06
1.36828e-06
1.36852e-06
1.37045e-06
1.37023e-06
1.36837e-06
1.36846e-06
1.36854e-06
1.36852e-06
1.36852e-06
1.36852e-06
1.37044e-06
1.37042e-06
1.37021e-06
1.36855e-06
1.37053e-06
1.37045e-06
1.35144e-06
1.35127e-06
1.3511e-06
1.34896e-06
1.34884e-06
1.34876e-06
1.34894e-06
1.35104e-06
1.35131e-06
1.3511e-06
1.34826e-06
1.34527e-06
1.34527e-06
1.34527e-06
1.34527e-06
1.34862e-06
1.34945e-06
1.34896e-06
1.34527e-06
1.34527e-06
1.34527e-06
1.34527e-06
1.34527e-06
1.34527e-06
1.34953e-06
1.3515e-06
1.35144e-06
1.34884e-06
1.34527e-06
1.34527e-06
1.34527e-06
1.34527e-06
1.34527e-06
1.34527e-06
1.34962e-06
1.35129e-06
1.35127e-06
1.34876e-06
1.34527e-06
1.34527e-06
1.34527e-06
1.34527e-06
1.34527e-06
1.34527e-06
1.3496e-06
1.34962e-06
1.34894e-06
1.34527e-06
1.34527e-06
1.34527e-06
1.34527e-06
1.34527e-06
1.34527e-06
1.3496e-06
1.3516e-06
1.35104e-06
1.34862e-06
1.34527e-06
1.34527e-06
1.34527e-06
1.34527e-06
1.34935e-06
1.34959e-06
1.35153e-06
1.35131e-06
1.34945e-06
1.34953e-06
1.34962e-06
1.34959e-06
1.3496e-06
1.34959e-06
1.35152e-06
1.35149e-06
1.35129e-06
1.34962e-06
1.3516e-06
1.35153e-06
1.33251e-06
1.33234e-06
1.33217e-06
1.33003e-06
1.32991e-06
1.32984e-06
1.33001e-06
1.33211e-06
1.33238e-06
1.33217e-06
1.32934e-06
1.32634e-06
1.32634e-06
1.32634e-06
1.32634e-06
1.3297e-06
1.33052e-06
1.33003e-06
1.32634e-06
1.32634e-06
1.32634e-06
1.32634e-06
1.32634e-06
1.32634e-06
1.33061e-06
1.33257e-06
1.33251e-06
1.32991e-06
1.32634e-06
1.32634e-06
1.32634e-06
1.32634e-06
1.32634e-06
1.32634e-06
1.33069e-06
1.33236e-06
1.33235e-06
1.32984e-06
1.32634e-06
1.32634e-06
1.32634e-06
1.32634e-06
1.32634e-06
1.32634e-06
1.33067e-06
1.3307e-06
1.33001e-06
1.32634e-06
1.32634e-06
1.32634e-06
1.32634e-06
1.32634e-06
1.32634e-06
1.33067e-06
1.33268e-06
1.33211e-06
1.3297e-06
1.32634e-06
1.32634e-06
1.32634e-06
1.32634e-06
1.33043e-06
1.33067e-06
1.3326e-06
1.33238e-06
1.33052e-06
1.33061e-06
1.33069e-06
1.33067e-06
1.33067e-06
1.33067e-06
1.33259e-06
1.33257e-06
1.33236e-06
1.3307e-06
1.33268e-06
1.3326e-06
1.31359e-06
1.31342e-06
1.31324e-06
1.3111e-06
1.31099e-06
1.31091e-06
1.31109e-06
1.31319e-06
1.31345e-06
1.31324e-06
1.31041e-06
1.30741e-06
1.30741e-06
1.30741e-06
1.30741e-06
1.31077e-06
1.31159e-06
1.3111e-06
1.30741e-06
1.30741e-06
1.30741e-06
1.30741e-06
1.30741e-06
1.30741e-06
1.31168e-06
1.31364e-06
1.31359e-06
1.31099e-06
1.30741e-06
1.30741e-06
1.30741e-06
1.30741e-06
1.30741e-06
1.30741e-06
1.31177e-06
1.31343e-06
1.31342e-06
1.31091e-06
1.30741e-06
1.30741e-06
1.30741e-06
1.30741e-06
1.30741e-06
1.30741e-06
1.31174e-06
1.31177e-06
1.31109e-06
1.30741e-06
1.30741e-06
1.30741e-06
1.30741e-06
1.30741e-06
1.30741e-06
1.31174e-06
1.31375e-06
1.31319e-06
1.31077e-06
1.30741e-06
1.30741e-06
1.30741e-06
1.30741e-06
1.3115e-06
1.31174e-06
1.31367e-06
1.31345e-06
1.3116e-06
1.31168e-06
1.31176e-06
1.31174e-06
1.31174e-06
1.31174e-06
1.31367e-06
1.31364e-06
1.31343e-06
1.31177e-06
1.31375e-06
1.31367e-06
1.29466e-06
1.29449e-06
1.29432e-06
1.29218e-06
1.29206e-06
1.29198e-06
1.29216e-06
1.29426e-06
1.29453e-06
1.29432e-06
1.29148e-06
1.28849e-06
1.28849e-06
1.28849e-06
1.28849e-06
1.29184e-06
1.29267e-06
1.29218e-06
1.28849e-06
1.28849e-06
1.28849e-06
1.28849e-06
1.28849e-06
1.28849e-06
1.29275e-06
1.29472e-06
1.29466e-06
1.29206e-06
1.28849e-06
1.28849e-06
1.28849e-06
1.28849e-06
1.28849e-06
1.28849e-06
1.29284e-06
1.29451e-06
1.29449e-06
1.29198e-06
1.28849e-06
1.28849e-06
1.28849e-06
1.28849e-06
1.28849e-06
1.28849e-06
1.29282e-06
1.29284e-06
1.29216e-06
1.28849e-06
1.28849e-06
1.28849e-06
1.28849e-06
1.28849e-06
1.28849e-06
1.29282e-06
1.29482e-06
1.29426e-06
1.29184e-06
1.28849e-06
1.28849e-06
1.28849e-06
1.28849e-06
1.29258e-06
1.29281e-06
1.29475e-06
1.29453e-06
1.29267e-06
1.29275e-06
1.29284e-06
1.29282e-06
1.29282e-06
1.29281e-06
1.29474e-06
1.29472e-06
1.29451e-06
1.29284e-06
1.29482e-06
1.29475e-06
1.27573e-06
1.27557e-06
1.27539e-06
1.27325e-06
1.27313e-06
1.27306e-06
1.27323e-06
1.27533e-06
1.2756e-06
1.27539e-06
1.27256e-06
1.26956e-06
1.26956e-06
1.26956e-06
1.26956e-06
1.27292e-06
1.27374e-06
1.27325e-06
1.26956e-06
1.26956e-06
1.26956e-06
1.26956e-06
1.26956e-06
1.26956e-06
1.27383e-06
1.27579e-06
1.27573e-06
1.27313e-06
1.26956e-06
1.26956e-06
1.26956e-06
1.26956e-06
1.26956e-06
1.26956e-06
1.27391e-06
1.27558e-06
1.27557e-06
1.27306e-06
1.26956e-06
1.26956e-06
1.26956e-06
1.26956e-06
1.26956e-06
1.26956e-06
1.27389e-06
1.27392e-06
1.27323e-06
1.26956e-06
1.26956e-06
1.26956e-06
1.26956e-06
1.26956e-06
1.26956e-06
1.27389e-06
1.2759e-06
1.27533e-06
1.27292e-06
1.26956e-06
1.26956e-06
1.26956e-06
1.26956e-06
1.27365e-06
1.27389e-06
1.27582e-06
1.2756e-06
1.27374e-06
1.27383e-06
1.27391e-06
1.27389e-06
1.27389e-06
1.27389e-06
1.27581e-06
1.27579e-06
1.27558e-06
1.27392e-06
1.2759e-06
1.27582e-06
1.25681e-06
1.25664e-06
1.25646e-06
1.25432e-06
1.25421e-06
1.25413e-06
1.25431e-06
1.25641e-06
1.25667e-06
1.25646e-06
1.25363e-06
1.25063e-06
1.25063e-06
1.25063e-06
1.25063e-06
1.25399e-06
1.25481e-06
1.25432e-06
1.25063e-06
1.25063e-06
1.25063e-06
1.25063e-06
1.25063e-06
1.25063e-06
1.2549e-06
1.25686e-06
1.25681e-06
1.25421e-06
1.25063e-06
1.25063e-06
1.25063e-06
1.25063e-06
1.25063e-06
1.25063e-06
1.25498e-06
1.25665e-06
1.25664e-06
1.25413e-06
1.25063e-06
1.25063e-06
1.25063e-06
1.25063e-06
1.25063e-06
1.25063e-06
1.25496e-06
1.25499e-06
1.25431e-06
1.25063e-06
1.25063e-06
1.25063e-06
1.25063e-06
1.25063e-06
1.25063e-06
1.25496e-06
1.25697e-06
1.25641e-06
1.25399e-06
1.25063e-06
1.25063e-06
1.25063e-06
1.25063e-06
1.25472e-06
1.25496e-06
1.25689e-06
1.25667e-06
1.25482e-06
1.2549e-06
1.25498e-06
1.25496e-06
1.25496e-06
1.25496e-06
1.25689e-06
1.25686e-06
1.25665e-06
1.25499e-06
1.25697e-06
1.25689e-06
1.23788e-06
1.23771e-06
1.23754e-06
1.2354e-06
1.23528e-06
1.2352e-06
1.23538e-06
1.23748e-06
1.23775e-06
1.23754e-06
1.2347e-06
1.23171e-06
1.23171e-06
1.23171e-06
1.23171e-06
1.23506e-06
1.23589e-06
1.2354e-06
1.23171e-06
1.23171e-06
1.23171e-06
1.23171e-06
1.23171e-06
1.23171e-06
1.23597e-06
1.23794e-06
1.23788e-06
1.23528e-06
1.23171e-06
1.23171e-06
1.23171e-06
1.23171e-06
1.23171e-06
1.23171e-06
1.23606e-06
1.23773e-06
1.23771e-06
1.2352e-06
1.23171e-06
1.23171e-06
1.23171e-06
1.23171e-06
1.23171e-06
1.23171e-06
1.23604e-06
1.23606e-06
1.23538e-06
1.23171e-06
1.23171e-06
1.23171e-06
1.23171e-06
1.23171e-06
1.23171e-06
1.23604e-06
1.23804e-06
1.23748e-06
1.23506e-06
1.23171e-06
1.23171e-06
1.23171e-06
1.23171e-06
1.23579e-06