/*--------------------------------*- C++ -*----------------------------------*\
| =========                 |                                                 |
| \\      /  F ield         | OpenFOAM: The Open Source CFD Toolbox           |
|  \\    /   O peration     | Version:  v2012                                 |
|   \\  /    A nd           | Website:  www.openfoam.com                      |
|    \\/     M anipulation  |                                                 |
\*---------------------------------------------------------------------------*/
FoamFile
{
    version     2.0;
    format      ascii;
    class       volScalarField;
    location    "112.5";
    object      epsilon;
}
// * * * * * * * * * * * * * * * * * * * * * * * * * * * * * * * * * * * * * //

dimensions      [0 2 -3 0 0 0 0];


internalField   nonuniform List<scalar> 
171728
(
4.49223e-08
7.75086e-09
8.68052e-09
5.61339e-09
4.53474e-08
8.30078e-09
8.89733e-09
5.18691e-09
4.6888e-08
9.02136e-09
9.35985e-09
4.99471e-09
4.84345e-08
9.85595e-09
9.99092e-09
4.92374e-09
4.99721e-08
1.08756e-08
1.07662e-08
4.95057e-09
5.15095e-08
1.20992e-08
1.16882e-08
5.04241e-09
5.30296e-08
1.30919e-08
1.28021e-08
5.17097e-09
5.45444e-08
1.36618e-08
1.40868e-08
5.25318e-09
5.60232e-08
1.38312e-08
1.5478e-08
5.42095e-09
5.74791e-08
1.39708e-08
1.69982e-08
5.70813e-09
5.89298e-08
1.47492e-08
1.86172e-08
6.07941e-09
6.04136e-08
1.61734e-08
2.02733e-08
6.57937e-09
6.18796e-08
1.80362e-08
2.15523e-08
7.34609e-09
6.33754e-08
2.03341e-08
2.24826e-08
8.6982e-09
6.50727e-08
2.33354e-08
2.46078e-08
1.0955e-08
6.68184e-08
2.71098e-08
2.78666e-08
1.43107e-08
6.87225e-08
3.18502e-08
3.23909e-08
1.90467e-08
7.09345e-08
3.76639e-08
3.80764e-08
2.56441e-08
7.33462e-08
4.50056e-08
4.55436e-08
3.60914e-08
7.65295e-08
5.49385e-08
5.57714e-08
5.30671e-08
8.05619e-08
6.88888e-08
6.95953e-08
7.96604e-08
8.59305e-08
8.88886e-08
8.93916e-08
1.23185e-07
9.35563e-08
1.2186e-07
1.22102e-07
1.96097e-07
1.05655e-07
1.72703e-07
1.72716e-07
2.96342e-07
1.24218e-07
2.40406e-07
2.40395e-07
4.08868e-07
1.46384e-07
3.09626e-07
3.09633e-07
5.03984e-07
1.69038e-07
3.66441e-07
3.66464e-07
5.69478e-07
1.858e-07
3.99449e-07
3.99476e-07
6.01876e-07
1.93732e-07
4.11492e-07
4.11515e-07
6.11922e-07
1.96284e-07
4.14609e-07
4.14633e-07
6.14207e-07
1.96905e-07
4.15275e-07
4.15299e-07
6.14793e-07
1.97029e-07
4.15395e-07
4.15419e-07
6.14825e-07
1.9705e-07
4.15401e-07
4.15425e-07
6.14787e-07
1.97056e-07
4.15407e-07
4.1543e-07
6.14818e-07
1.97059e-07
4.1541e-07
4.15433e-07
6.14807e-07
1.97062e-07
4.15413e-07
4.15436e-07
6.14818e-07
1.97065e-07
4.15416e-07
4.15439e-07
6.14817e-07
1.97067e-07
4.15419e-07
4.15442e-07
6.1482e-07
1.97069e-07
4.1542e-07
4.15443e-07
6.14819e-07
1.97071e-07
4.15422e-07
4.15444e-07
6.1482e-07
1.97072e-07
4.15424e-07
4.15447e-07
6.14815e-07
1.97073e-07
4.15422e-07
4.15445e-07
6.14825e-07
1.97073e-07
4.15421e-07
4.15444e-07
6.14831e-07
1.97074e-07
4.15423e-07
4.15445e-07
6.14816e-07
1.97073e-07
4.15424e-07
4.15445e-07
6.14816e-07
1.97073e-07
4.15423e-07
4.15445e-07
6.14818e-07
1.97074e-07
4.15421e-07
4.15442e-07
6.14784e-07
1.97073e-07
4.15421e-07
4.15443e-07
6.14742e-07
1.97073e-07
4.15422e-07
4.15443e-07
6.14737e-07
1.97073e-07
4.15422e-07
4.15443e-07
6.14763e-07
1.97073e-07
4.15421e-07
4.15443e-07
6.14792e-07
1.97073e-07
4.15421e-07
4.15443e-07
6.14804e-07
1.97073e-07
4.15421e-07
4.15443e-07
6.14821e-07
1.97073e-07
4.15421e-07
4.15443e-07
6.1483e-07
1.97073e-07
4.1542e-07
4.15443e-07
6.14841e-07
1.97073e-07
4.15421e-07
4.15442e-07
6.14851e-07
1.97073e-07
4.15422e-07
4.15443e-07
6.14849e-07
1.97073e-07
4.15423e-07
4.15442e-07
6.14836e-07
1.97073e-07
4.15424e-07
4.15443e-07
6.14825e-07
1.97073e-07
4.15424e-07
4.15442e-07
6.14826e-07
1.97073e-07
4.15424e-07
4.15442e-07
6.1483e-07
1.97073e-07
4.15424e-07
4.15442e-07
6.14828e-07
1.97073e-07
4.15424e-07
4.15442e-07
6.14824e-07
1.97073e-07
4.15424e-07
4.15442e-07
6.14825e-07
1.97073e-07
4.15424e-07
4.15442e-07
6.1483e-07
1.97073e-07
4.15422e-07
4.15442e-07
6.14832e-07
1.97073e-07
4.15423e-07
4.15442e-07
6.14827e-07
1.97073e-07
4.15423e-07
4.15443e-07
6.14822e-07
1.97073e-07
4.15423e-07
4.15442e-07
6.14822e-07
1.97073e-07
4.15423e-07
4.15442e-07
6.14828e-07
1.97073e-07
4.15423e-07
4.15443e-07
6.14827e-07
1.97073e-07
4.15423e-07
4.15443e-07
6.14822e-07
1.97073e-07
4.15423e-07
4.15444e-07
6.14825e-07
1.97073e-07
4.15424e-07
4.15444e-07
6.14832e-07
1.97073e-07
4.15424e-07
4.15444e-07
6.14837e-07
1.97073e-07
4.15424e-07
4.15444e-07
6.14842e-07
1.97074e-07
4.15424e-07
4.15445e-07
6.1484e-07
1.97074e-07
4.15424e-07
4.15445e-07
6.14829e-07
1.97074e-07
4.15423e-07
4.15444e-07
6.14817e-07
1.97074e-07
4.15423e-07
4.15444e-07
6.14814e-07
1.97074e-07
4.15423e-07
4.15445e-07
6.14822e-07
1.97075e-07
4.15424e-07
4.15445e-07
6.14827e-07
1.97075e-07
4.15424e-07
4.15446e-07
6.14829e-07
1.97076e-07
4.15425e-07
4.15447e-07
6.14826e-07
1.97076e-07
4.15426e-07
4.15448e-07
6.14823e-07
1.97077e-07
4.15427e-07
4.15449e-07
6.14826e-07
1.97077e-07
4.15429e-07
4.15452e-07
6.14836e-07
1.97078e-07
4.15431e-07
4.15453e-07
6.14839e-07
1.97078e-07
4.15431e-07
4.15453e-07
6.14829e-07
1.97079e-07
4.1543e-07
4.15452e-07
6.14812e-07
1.97079e-07
4.15427e-07
4.15448e-07
6.14796e-07
1.9708e-07
4.15419e-07
4.15441e-07
6.14779e-07
1.97077e-07
4.15396e-07
4.15418e-07
6.14766e-07
1.96924e-07
4.15297e-07
4.1532e-07
6.14501e-07
1.90958e-07
3.89608e-07
3.89613e-07
5.82566e-07
5.62404e-09
5.66255e-09
6.50336e-09
5.80705e-09
6.45165e-09
7.10423e-09
4.5975e-08
4.61093e-08
4.64335e-08
4.60472e-08
5.75961e-09
6.47468e-09
6.03665e-09
6.86578e-09
6.45522e-09
5.70108e-09
5.5463e-09
5.22972e-09
6.87179e-09
8.03131e-09
7.02487e-09
8.06987e-09
5.73759e-09
5.42786e-09
7.93566e-09
8.9719e-09
7.9759e-09
9.05265e-09
7.94302e-09
8.1336e-09
7.99644e-09
5.96685e-09
5.66453e-09
9.60432e-09
8.81425e-09
9.64798e-09
5.25841e-09
5.16896e-09
4.97437e-09
7.10891e-09
8.10752e-09
7.39339e-09
8.26121e-09
5.35998e-09
5.17445e-09
8.01101e-09
9.11033e-09
8.15519e-09
9.32445e-09
8.03877e-09
8.83107e-09
8.21261e-09
5.59702e-09
5.4537e-09
9.69917e-09
9.22917e-09
9.89584e-09
5.04072e-09
4.9197e-09
4.78489e-09
7.50891e-09
8.3381e-09
7.87119e-09
8.59844e-09
5.12884e-09
5.06428e-09
8.21919e-09
9.41209e-09
8.45358e-09
9.70776e-09
8.28842e-09
9.64059e-09
8.554e-09
5.40483e-09
5.3652e-09
9.98794e-09
9.8262e-09
1.02695e-08
4.95181e-09
4.74613e-09
4.71123e-09
8.0024e-09
8.70456e-09
8.43855e-09
9.05517e-09
5.03337e-09
5.04851e-09
8.54134e-09
9.81595e-09
8.85437e-09
1.01723e-08
8.6552e-09
1.05981e-08
8.98297e-09
5.33923e-09
5.41811e-09
1.03829e-08
1.05569e-08
1.0749e-08
4.96965e-09
4.68942e-09
4.72738e-09
8.59798e-09
9.18717e-09
9.14491e-09
9.6447e-09
5.02908e-09
5.15545e-09
8.96704e-09
1.03017e-08
9.38148e-09
1.07207e-08
9.10401e-09
1.17926e-08
9.53814e-09
5.39719e-09
5.54351e-09
1.08642e-08
1.1444e-08
1.12588e-08
5.06033e-09
4.70954e-09
4.7678e-09
9.33063e-09
9.8097e-09
9.95254e-09
1.04045e-08
5.1362e-09
5.2832e-09
9.53065e-09
1.0862e-08
1.00588e-08
1.13384e-08
9.69078e-09
1.2892e-08
1.01983e-08
5.52323e-09
5.7181e-09
1.1387e-08
1.25234e-08
1.17983e-08
5.18872e-09
4.74855e-09
4.8647e-09
1.01737e-08
1.06069e-08
1.08863e-08
1.1309e-08
5.26264e-09
5.38258e-09
1.0257e-08
1.14952e-08
1.09285e-08
1.20213e-08
1.03884e-08
1.35621e-08
1.1022e-08
5.70093e-09
5.93036e-09
1.19248e-08
1.37676e-08
1.22871e-08
5.27272e-09
4.84959e-09
5.08571e-09
1.11399e-08
1.1566e-08
1.1983e-08
1.23717e-08
5.35841e-09
5.44234e-09
1.11797e-08
1.22038e-08
1.20109e-08
1.28224e-08
1.12516e-08
1.38052e-08
1.20443e-08
5.91353e-09
6.17167e-09
1.24139e-08
1.51131e-08
1.28692e-08
5.43084e-09
5.0787e-09
5.46198e-09
1.22904e-08
1.26789e-08
1.32324e-08
1.36626e-08
5.4227e-09
5.72705e-09
1.23242e-08
1.3053e-08
1.32953e-08
1.37428e-08
1.23453e-08
1.39274e-08
1.32588e-08
6.15814e-09
6.49629e-09
1.30678e-08
1.66308e-08
1.3746e-08
5.71436e-09
5.46186e-09
5.96487e-09
1.35759e-08
1.40087e-08
1.47154e-08
1.51241e-08
5.72201e-09
6.19015e-09
1.36381e-08
1.401e-08
1.47924e-08
1.48186e-08
1.35938e-08
1.44845e-08
1.46991e-08
6.48505e-09
6.896e-09
1.40298e-08
1.82058e-08
1.50116e-08
6.0828e-09
5.9727e-09
6.62315e-09
1.51084e-08
1.55148e-08
1.64025e-08
1.67932e-08
6.20111e-09
6.87093e-09
1.52012e-08
1.51395e-08
1.65066e-08
1.63534e-08
1.50845e-08
1.5774e-08
1.63599e-08
6.89117e-09
7.418e-09
1.53407e-08
1.98871e-08
1.63998e-08
6.57046e-09
6.64689e-09
7.55266e-09
1.68704e-08
1.72544e-08
1.83343e-08
1.86435e-08
6.89558e-09
7.75432e-09
1.69751e-08
1.67355e-08
1.84774e-08
1.81455e-08
1.68316e-08
1.75394e-08
1.8325e-08
7.41833e-09
8.02651e-09
1.67757e-08
2.12807e-08
1.78948e-08
7.30859e-09
7.60439e-09
8.85685e-09
1.89075e-08
1.91527e-08
2.07842e-08
2.07861e-08
7.80357e-09
8.96886e-09
1.90417e-08
1.87217e-08
2.09095e-08
2.03181e-08
1.88937e-08
1.97555e-08
2.08017e-08
8.03848e-09
8.86561e-09
1.83341e-08
2.22504e-08
1.9902e-08
8.49577e-09
9.03907e-09
1.07957e-08
2.1436e-08
2.1349e-08
2.38198e-08
2.33794e-08
9.17725e-09
1.08422e-08
2.15569e-08
2.08882e-08
2.38726e-08
2.33203e-08
2.14695e-08
2.25399e-08
2.38769e-08
9.00775e-09
1.05674e-08
2.04662e-08
2.39561e-08
2.2572e-08
1.05469e-08
1.11843e-08
1.38823e-08
2.46816e-08
2.41225e-08
2.75032e-08
2.66335e-08
1.12121e-08
1.37865e-08
2.47256e-08
2.42116e-08
2.74657e-08
2.69189e-08
2.47498e-08
2.60453e-08
2.75384e-08
1.0931e-08
1.36333e-08
2.3366e-08
2.68908e-08
2.6015e-08
1.36917e-08
1.44931e-08
1.83039e-08
2.86042e-08
2.76474e-08
3.21299e-08
3.09824e-08
1.43917e-08
1.82307e-08
2.85217e-08
2.7953e-08
3.19278e-08
3.13117e-08
2.86197e-08
3.06235e-08
3.2027e-08
1.42588e-08
1.81568e-08
2.70978e-08
3.12343e-08
3.05932e-08
1.81509e-08
1.91874e-08
2.43999e-08
3.33771e-08
3.21777e-08
3.75799e-08
3.62791e-08
1.91369e-08
2.43689e-08
3.31451e-08
3.25041e-08
3.73425e-08
3.66295e-08
3.32335e-08
3.60672e-08
3.73953e-08
1.90611e-08
2.42459e-08
3.18187e-08
3.64269e-08
3.59657e-08
2.43065e-08
2.57334e-08
3.39189e-08
3.92337e-08
3.78906e-08
4.46295e-08
4.32018e-08
2.56916e-08
3.37568e-08
3.89645e-08
3.82593e-08
4.44707e-08
4.36164e-08
3.90246e-08
4.30341e-08
4.44561e-08
2.557e-08
3.38381e-08
3.7575e-08
4.35761e-08
4.296e-08
3.38688e-08
3.61367e-08
4.96823e-08
4.66043e-08
4.51784e-08
5.3977e-08
5.22952e-08
3.59809e-08
4.93113e-08
4.65258e-08
4.55836e-08
5.38478e-08
5.26353e-08
4.64562e-08
5.21349e-08
5.37235e-08
3.60753e-08
4.94481e-08
4.49335e-08
5.28794e-08
5.20051e-08
4.94485e-08
5.3385e-08
7.43843e-08
5.68407e-08
5.51014e-08
6.63592e-08
6.51054e-08
5.28615e-08
7.38711e-08
5.67091e-08
5.543e-08
6.64723e-08
6.53205e-08
5.65731e-08
6.50086e-08
6.61865e-08
5.30568e-08
7.43747e-08
5.48159e-08
6.57924e-08
6.47869e-08
7.39793e-08
8.00079e-08
1.13768e-07
6.99722e-08
6.90105e-08
8.3606e-08
8.31779e-08
7.96822e-08
1.13921e-07
7.0139e-08
6.91668e-08
8.36628e-08
8.32085e-08
6.98221e-08
8.29859e-08
8.33979e-08
8.02232e-08
1.14575e-07
6.86737e-08
8.35296e-08
8.28856e-08
1.13637e-07
1.23336e-07
1.81285e-07
8.95205e-08
8.91235e-08
1.12787e-07
1.12429e-07
1.23436e-07
1.80694e-07
8.95048e-08
8.91157e-08
1.12677e-07
1.12276e-07
8.92689e-08
1.12156e-07
1.12458e-07
1.24092e-07
1.81229e-07
8.8866e-08
1.12476e-07
1.12202e-07
1.80848e-07
1.96575e-07
2.77221e-07
1.22443e-07
1.22153e-07
1.58278e-07
1.58274e-07
1.95904e-07
2.76846e-07
1.22347e-07
1.21956e-07
1.58265e-07
1.58035e-07
1.22124e-07
1.58024e-07
1.58077e-07
1.9639e-07
2.7695e-07
1.21905e-07
1.58072e-07
1.57961e-07
2.76882e-07
2.96624e-07
3.88788e-07
1.72893e-07
1.72951e-07
2.22856e-07
2.22964e-07
2.96393e-07
3.88854e-07
1.72883e-07
1.72727e-07
2.22816e-07
2.22834e-07
1.72733e-07
2.22774e-07
2.22791e-07
2.96408e-07
3.88767e-07
1.72638e-07
2.22761e-07
2.22711e-07
3.88771e-07
4.08865e-07
4.87969e-07
2.40496e-07
2.40593e-07
2.93003e-07
2.93056e-07
4.0895e-07
4.88016e-07
2.40436e-07
2.40494e-07
2.92899e-07
2.9303e-07
2.4045e-07
2.92901e-07
2.92993e-07
4.08864e-07
4.88009e-07
2.40366e-07
2.92903e-07
2.92894e-07
4.88053e-07
5.03903e-07
5.58666e-07
3.09741e-07
3.09783e-07
3.5433e-07
3.54353e-07
5.03956e-07
5.58689e-07
3.09628e-07
3.09772e-07
3.54203e-07
3.54373e-07
3.09739e-07
3.54209e-07
3.54343e-07
5.0395e-07
5.5872e-07
3.09636e-07
3.54229e-07
3.54232e-07
5.58771e-07
5.69381e-07
5.96489e-07
3.66568e-07
3.66587e-07
3.93691e-07
3.93707e-07
5.69419e-07
5.965e-07
3.66436e-07
3.66611e-07
3.93563e-07
3.93737e-07
3.6658e-07
3.93567e-07
3.93709e-07
5.69441e-07
5.96543e-07
3.66469e-07
3.93594e-07
3.93596e-07
5.96591e-07
6.01781e-07
6.09408e-07
3.99574e-07
3.99589e-07
4.09857e-07
4.09871e-07
6.01806e-07
6.09423e-07
3.99446e-07
3.99618e-07
4.09734e-07
4.09902e-07
3.99591e-07
4.09737e-07
4.09875e-07
6.01838e-07
6.0946e-07
3.99479e-07
4.0976e-07
4.09767e-07
6.09499e-07
6.11832e-07
6.12409e-07
4.11611e-07
4.11624e-07
4.14319e-07
4.14334e-07
6.11858e-07
6.12429e-07
4.11487e-07
4.11655e-07
4.14197e-07
4.14364e-07
4.11627e-07
4.14201e-07
4.14334e-07
6.11886e-07
6.1246e-07
4.1152e-07
4.14224e-07
4.14229e-07
6.12496e-07
6.1412e-07
6.13146e-07
4.14728e-07
4.14742e-07
4.15313e-07
4.15327e-07
6.14151e-07
6.13166e-07
4.14605e-07
4.1477e-07
4.15191e-07
4.15355e-07
4.14741e-07
4.15193e-07
4.15325e-07
6.14173e-07
6.13194e-07
4.14636e-07
4.15216e-07
4.1522e-07
6.1323e-07
6.14711e-07
6.13196e-07
4.15395e-07
4.15409e-07
4.15504e-07
4.1552e-07
6.14741e-07
6.13215e-07
4.15272e-07
4.15437e-07
4.15383e-07
4.15547e-07
4.15406e-07
4.15384e-07
4.15514e-07
6.14762e-07
6.13243e-07
4.15301e-07
4.15407e-07
4.15409e-07
6.13277e-07
6.14746e-07
6.13167e-07
4.15516e-07
4.15531e-07
4.15523e-07
4.15538e-07
6.14777e-07
6.13183e-07
4.15393e-07
4.15557e-07
4.154e-07
4.15564e-07
4.15524e-07
4.15401e-07
4.1553e-07
6.14796e-07
6.13213e-07
4.15419e-07
4.15424e-07
4.15424e-07
6.13245e-07
6.1471e-07
6.13189e-07
4.15523e-07
4.15538e-07
4.15528e-07
4.15543e-07
6.14738e-07
6.1321e-07
4.154e-07
4.15564e-07
4.15405e-07
4.15569e-07
4.1553e-07
4.15405e-07
4.15534e-07
6.14759e-07
6.13236e-07
4.15424e-07
4.15428e-07
4.15428e-07
6.13268e-07
6.14741e-07
6.13188e-07
4.15528e-07
4.15544e-07
4.15532e-07
4.15548e-07
6.14772e-07
6.13205e-07
4.15405e-07
4.15569e-07
4.15409e-07
4.15573e-07
4.15534e-07
4.15409e-07
4.15538e-07
6.14789e-07
6.13232e-07
4.15428e-07
4.15432e-07
4.15432e-07
6.13264e-07
6.14732e-07
6.13193e-07
4.15532e-07
4.15548e-07
4.15535e-07
4.15551e-07
6.14761e-07
6.13212e-07
4.15409e-07
4.15573e-07
4.15412e-07
4.15575e-07
4.15538e-07
4.15412e-07
4.1554e-07
6.14779e-07
6.13238e-07
4.15432e-07
4.15435e-07
4.15435e-07
6.1327e-07
6.14742e-07
6.13196e-07
4.15535e-07
4.15551e-07
4.15539e-07
4.15554e-07
6.14772e-07
6.13213e-07
4.15412e-07
4.15575e-07
4.15415e-07
4.15579e-07
4.1554e-07
4.15415e-07
4.15543e-07
6.1479e-07
6.1324e-07
4.15435e-07
4.15438e-07
4.15438e-07
6.13272e-07
6.14742e-07
6.13201e-07
4.15539e-07
4.15554e-07
4.15541e-07
4.15557e-07
6.14771e-07
6.13218e-07
4.15415e-07
4.15579e-07
4.15418e-07
4.15581e-07
4.15544e-07
4.15418e-07
4.15545e-07
6.14789e-07
6.13244e-07
4.15438e-07
4.15441e-07
4.1544e-07
6.13274e-07
6.1475e-07
6.13198e-07
4.15541e-07
4.15557e-07
4.15543e-07
4.15559e-07
6.14776e-07
6.13217e-07
4.15418e-07
4.15581e-07
4.1542e-07
4.15583e-07
4.15545e-07
4.15419e-07
4.15546e-07
6.14795e-07
6.13242e-07
4.1544e-07
4.15442e-07
4.15441e-07
6.13273e-07
6.14746e-07
6.132e-07
4.15542e-07
4.15559e-07
4.15546e-07
4.15562e-07
6.14775e-07
6.1322e-07
4.15419e-07
4.15582e-07
4.15422e-07
4.15585e-07
4.15546e-07
4.15422e-07
4.15549e-07
6.14793e-07
6.13244e-07
4.15441e-07
4.15445e-07
4.15444e-07
6.13274e-07
6.14747e-07
6.132e-07
4.15545e-07
4.15561e-07
4.15546e-07
4.15565e-07
6.14777e-07
6.13226e-07
4.15421e-07
4.15584e-07
4.15422e-07
4.15585e-07
4.15547e-07
4.15423e-07
4.15548e-07
6.14794e-07
6.13246e-07
4.15442e-07
4.15445e-07
4.15444e-07
6.13271e-07
6.14757e-07
6.13198e-07
4.15546e-07
4.15563e-07
4.15541e-07
4.15562e-07
6.14781e-07
6.13216e-07
4.15422e-07
4.15585e-07
4.15422e-07
4.15584e-07
4.15549e-07
4.15421e-07
4.15547e-07
6.14796e-07
6.1324e-07
4.15444e-07
4.15443e-07
4.15443e-07
6.13283e-07
6.14755e-07
6.13205e-07
4.15541e-07
4.15562e-07
4.15539e-07
4.15564e-07
6.14772e-07
6.13221e-07
4.15422e-07
4.15584e-07
4.15424e-07
4.15585e-07
4.15547e-07
4.15422e-07
4.15549e-07
6.1479e-07
6.13248e-07
4.15443e-07
4.15445e-07
4.15444e-07
6.13279e-07
6.14755e-07
6.13218e-07
4.15537e-07
4.15563e-07
4.15539e-07
4.15565e-07
6.14773e-07
6.1323e-07
4.15423e-07
4.15584e-07
4.15427e-07
4.15587e-07
4.15547e-07
4.15424e-07
4.15549e-07
6.14794e-07
6.13256e-07
4.15443e-07
4.15446e-07
4.15445e-07
6.13264e-07
6.14776e-07
6.13189e-07
4.15536e-07
4.15563e-07
4.15536e-07
4.15565e-07
6.14789e-07
6.13203e-07
4.15425e-07
4.15584e-07
4.15427e-07
4.15586e-07
4.15549e-07
4.15423e-07
4.15547e-07
6.14811e-07
6.13226e-07
4.15444e-07
4.15445e-07
4.15445e-07
6.13268e-07
6.14762e-07
6.13159e-07
4.15536e-07
4.15564e-07
4.15533e-07
4.15563e-07
6.14772e-07
6.13186e-07
4.15426e-07
4.15585e-07
4.15426e-07
4.15585e-07
4.15547e-07
4.15422e-07
4.15547e-07
6.14789e-07
6.13217e-07
4.15444e-07
4.15443e-07
4.15444e-07
6.13263e-07
6.14716e-07
6.13189e-07
4.15533e-07
4.15563e-07
4.15531e-07
4.15561e-07
6.14737e-07
6.13218e-07
4.15426e-07
4.15585e-07
4.15425e-07
4.15584e-07
4.15546e-07
4.15421e-07
4.1555e-07
6.14759e-07
6.13256e-07
4.15445e-07
4.15442e-07
4.15444e-07
6.13231e-07
6.14715e-07
6.13239e-07
4.15531e-07
4.15561e-07
4.15533e-07
4.1556e-07
6.14748e-07
6.13252e-07
4.15425e-07
4.15584e-07
4.15425e-07
4.15585e-07
4.15548e-07
4.15422e-07
4.15547e-07
6.14779e-07
6.13286e-07
4.15444e-07
4.15444e-07
4.15443e-07
6.1322e-07
6.14763e-07
6.13248e-07
4.15531e-07
4.15559e-07
4.15533e-07
4.15559e-07
6.14788e-07
6.13247e-07
4.15425e-07
4.15584e-07
4.15426e-07
4.15585e-07
4.15548e-07
4.15423e-07
4.15547e-07
6.14821e-07
6.13272e-07
4.15443e-07
4.15443e-07
4.15444e-07
6.13254e-07
6.14799e-07
6.13216e-07
4.15531e-07
4.15557e-07
4.15532e-07
4.15557e-07
6.14805e-07
6.13219e-07
4.15425e-07
4.15584e-07
4.15426e-07
4.15586e-07
4.15547e-07
4.15422e-07
4.15547e-07
6.1483e-07
6.13248e-07
4.15443e-07
4.15443e-07
4.15444e-07
6.13304e-07
6.14788e-07
6.13193e-07
4.15531e-07
4.15556e-07
4.15532e-07
4.15554e-07
6.14789e-07
6.13203e-07
4.15425e-07
4.15584e-07
4.15426e-07
4.15586e-07
4.15546e-07
4.15421e-07
4.15548e-07
6.14812e-07
6.13242e-07
4.15443e-07
4.15443e-07
4.15444e-07
6.13343e-07
6.14764e-07
6.13196e-07
4.15531e-07
4.15553e-07
4.15532e-07
4.15554e-07
6.1477e-07
6.13208e-07
4.15425e-07
4.15584e-07
4.15426e-07
4.15586e-07
4.15546e-07
4.15422e-07
4.15548e-07
6.14801e-07
6.13247e-07
4.15443e-07
4.15442e-07
4.15444e-07
6.13366e-07
6.14761e-07
6.13199e-07
4.15531e-07
4.15551e-07
4.15532e-07
4.15552e-07
6.14769e-07
6.13212e-07
4.15425e-07
4.15584e-07
4.15426e-07
4.15586e-07
4.15547e-07
4.15421e-07
4.15548e-07
6.14803e-07
6.13251e-07
4.15442e-07
4.15443e-07
4.15444e-07
6.13398e-07
6.14764e-07
6.132e-07
4.15531e-07
4.1555e-07
4.15532e-07
4.15549e-07
6.14774e-07
6.13205e-07
4.15424e-07
4.15584e-07
4.15425e-07
4.15586e-07
4.15546e-07
4.1542e-07
4.15548e-07
6.14807e-07
6.13253e-07
4.15442e-07
4.15442e-07
4.15444e-07
6.13411e-07
6.14767e-07
6.13197e-07
4.15531e-07
4.15548e-07
4.15532e-07
4.15548e-07
6.14771e-07
6.13203e-07
4.15424e-07
4.15584e-07
4.15425e-07
4.15585e-07
4.15546e-07
4.1542e-07
4.15548e-07
6.14811e-07
6.13255e-07
4.15442e-07
4.15442e-07
4.15444e-07
6.13418e-07
6.14767e-07
6.13193e-07
4.15531e-07
4.15546e-07
4.15532e-07
4.15547e-07
6.14768e-07
6.13206e-07
4.15424e-07
4.15584e-07
4.15425e-07
4.15585e-07
4.15547e-07
4.1542e-07
4.15548e-07
6.14817e-07
6.13251e-07
4.15442e-07
4.15442e-07
4.15444e-07
6.13422e-07
6.14763e-07
6.13194e-07
4.15531e-07
4.15546e-07
4.15532e-07
4.15546e-07
6.14772e-07
6.13202e-07
4.15424e-07
4.15584e-07
4.15424e-07
4.15585e-07
4.15547e-07
4.15422e-07
4.15548e-07
6.14816e-07
6.13248e-07
4.15442e-07
4.15442e-07
4.15444e-07
6.13419e-07
6.14762e-07
6.132e-07
4.15532e-07
4.15545e-07
4.15532e-07
4.15545e-07
6.14771e-07
6.13198e-07
4.15424e-07
4.15584e-07
4.15425e-07
4.15585e-07
4.15546e-07
4.15422e-07
4.15548e-07
6.14813e-07
6.1325e-07
4.15443e-07
4.15442e-07
4.15443e-07
6.13412e-07
6.14767e-07
6.13202e-07
4.15531e-07
4.15544e-07
4.15532e-07
4.15545e-07
6.14766e-07
6.13201e-07
4.15424e-07
4.15584e-07
4.15424e-07
4.15585e-07
4.15546e-07
4.15423e-07
4.15549e-07
6.14814e-07
6.13251e-07
4.15442e-07
4.15442e-07
4.15444e-07
6.13407e-07
6.14771e-07
6.13202e-07
4.15531e-07
4.15543e-07
4.15532e-07
4.15543e-07
6.14768e-07
6.13201e-07
4.15424e-07
4.15585e-07
4.15424e-07
4.15585e-07
4.15547e-07
4.15423e-07
4.15548e-07
6.14817e-07
6.13249e-07
4.15442e-07
4.15442e-07
4.15443e-07
6.13407e-07
6.14774e-07
6.13199e-07
4.15532e-07
4.15543e-07
4.15532e-07
4.15543e-07
6.1477e-07
6.13199e-07
4.15424e-07
4.15585e-07
4.15424e-07
4.15585e-07
4.15547e-07
4.15423e-07
4.15548e-07
6.14816e-07
6.13249e-07
4.15442e-07
4.15442e-07
4.15443e-07
6.13409e-07
6.14774e-07
6.13196e-07
4.15531e-07
4.15542e-07
4.15532e-07
4.15543e-07
6.14768e-07
6.13201e-07
4.15423e-07
4.15585e-07
4.15424e-07
4.15585e-07
4.15547e-07
4.15423e-07
4.15548e-07
6.14816e-07
6.1325e-07
4.15442e-07
4.15442e-07
4.15443e-07
6.13408e-07
6.14771e-07
6.13194e-07
4.15531e-07
4.15542e-07
4.15532e-07
4.15542e-07
6.1477e-07
6.13202e-07
4.15423e-07
4.15585e-07
4.15424e-07
4.15585e-07
4.15547e-07
4.15424e-07
4.15548e-07
6.14818e-07
6.13247e-07
4.15442e-07
4.15441e-07
4.15443e-07
6.13405e-07
6.14767e-07
6.13195e-07
4.15532e-07
4.15542e-07
4.15532e-07
4.15542e-07
6.14773e-07
6.13199e-07
4.15423e-07
4.15584e-07
4.15424e-07
4.15586e-07
4.15547e-07
4.15423e-07
4.15548e-07
6.14816e-07
6.13244e-07
4.15442e-07
4.15442e-07
4.15443e-07
6.13407e-07
6.14766e-07
6.13201e-07
4.15532e-07
4.15541e-07
4.15532e-07
4.15541e-07
6.14773e-07
6.13194e-07
4.15423e-07
4.15584e-07
4.15424e-07
4.15585e-07
4.15547e-07
4.15422e-07
4.15548e-07
6.14813e-07
6.13245e-07
4.15442e-07
4.15441e-07
4.15443e-07
6.1341e-07
6.1477e-07
6.13202e-07
4.15532e-07
4.15541e-07
4.15532e-07
4.15541e-07
6.14769e-07
6.1319e-07
4.15424e-07
4.15585e-07
4.15424e-07
4.15585e-07
4.15546e-07
4.15422e-07
4.15548e-07
6.14811e-07
6.13249e-07
4.15442e-07
4.15442e-07
4.15444e-07
6.1341e-07
6.14772e-07
6.13202e-07
4.15532e-07
4.1554e-07
4.15532e-07
4.15541e-07
6.14764e-07
6.13192e-07
4.15423e-07
4.15585e-07
4.15424e-07
4.15586e-07
4.15546e-07
4.15423e-07
4.15548e-07
6.14813e-07
6.13252e-07
4.15442e-07
4.15441e-07
4.15443e-07
6.13407e-07
6.14772e-07
6.13205e-07
4.15532e-07
4.1554e-07
4.15532e-07
4.1554e-07
6.14763e-07
6.13194e-07
4.15423e-07
4.15584e-07
4.15424e-07
4.15585e-07
4.15547e-07
4.15422e-07
4.15548e-07
6.14817e-07
6.1325e-07
4.15442e-07
4.15442e-07
4.15443e-07
6.13404e-07
6.14776e-07
6.13202e-07
4.15532e-07
4.1554e-07
4.15532e-07
4.1554e-07
6.14765e-07
6.13193e-07
4.15423e-07
4.15584e-07
4.15424e-07
4.15585e-07
4.15547e-07
4.15422e-07
4.15548e-07
6.14817e-07
6.13248e-07
4.15442e-07
4.15441e-07
4.15443e-07
6.13405e-07
6.14777e-07
6.13196e-07
4.15532e-07
4.1554e-07
4.15532e-07
4.1554e-07
6.14765e-07
6.13191e-07
4.15423e-07
4.15584e-07
4.15423e-07
4.15585e-07
4.15546e-07
4.15422e-07
4.15548e-07
6.14816e-07
6.13249e-07
4.15442e-07
4.15441e-07
4.15443e-07
6.13408e-07
6.14772e-07
6.13197e-07
4.15532e-07
4.1554e-07
4.15532e-07
4.1554e-07
6.14762e-07
6.13191e-07
4.15423e-07
4.15585e-07
4.15423e-07
4.15585e-07
4.15547e-07
4.15421e-07
4.15548e-07
6.14817e-07
6.13248e-07
4.15442e-07
4.15441e-07
4.15443e-07
6.13407e-07
6.1477e-07
6.13198e-07
4.15532e-07
4.1554e-07
4.15532e-07
4.1554e-07
6.14759e-07
6.13197e-07
4.15423e-07
4.15585e-07
4.15423e-07
4.15585e-07
4.15547e-07
4.15422e-07
4.15547e-07
6.14817e-07
6.13246e-07
4.15442e-07
4.15442e-07
4.15444e-07
6.13404e-07
6.14771e-07
6.13198e-07
4.15532e-07
4.1554e-07
4.15532e-07
4.1554e-07
6.14763e-07
6.13203e-07
4.15423e-07
4.15585e-07
4.15423e-07
4.15585e-07
4.15547e-07
4.15422e-07
4.15547e-07
6.14815e-07
6.13245e-07
4.15443e-07
4.15442e-07
4.15443e-07
6.13407e-07
6.14769e-07
6.132e-07
4.15532e-07
4.1554e-07
4.15532e-07
4.1554e-07
6.14772e-07
6.13199e-07
4.15423e-07
4.15585e-07
4.15424e-07
4.15585e-07
4.15547e-07
4.15422e-07
4.15547e-07
6.14813e-07
6.13246e-07
4.15443e-07
4.15442e-07
4.15443e-07
6.13411e-07
6.1477e-07
6.13205e-07
4.15532e-07
4.1554e-07
4.15532e-07
4.1554e-07
6.14772e-07
6.13192e-07
4.15424e-07
4.15585e-07
4.15424e-07
4.15585e-07
4.15546e-07
4.15421e-07
4.15547e-07
6.14813e-07
6.13248e-07
4.15442e-07
4.15442e-07
4.15443e-07
6.13414e-07
6.14775e-07
6.13204e-07
4.15532e-07
4.1554e-07
4.15532e-07
4.1554e-07
6.14766e-07
6.13191e-07
4.15424e-07
4.15585e-07
4.15423e-07
4.15585e-07
4.15546e-07
4.15421e-07
4.15548e-07
6.14814e-07
6.1325e-07
4.15442e-07
4.15442e-07
4.15443e-07
6.13417e-07
6.14779e-07
6.13198e-07
4.15532e-07
4.1554e-07
4.15531e-07
4.15539e-07
6.14764e-07
6.13192e-07
4.15424e-07
4.15585e-07
4.15423e-07
4.15584e-07
4.15547e-07
4.15421e-07
4.15547e-07
6.14815e-07
6.13251e-07
4.15443e-07
4.15442e-07
4.15443e-07
6.13414e-07
6.14774e-07
6.13195e-07
4.15533e-07
4.15541e-07
4.1553e-07
4.15538e-07
6.14763e-07
6.13193e-07
4.15424e-07
4.15585e-07
4.15422e-07
4.15584e-07
4.15547e-07
4.1542e-07
4.15546e-07
6.14817e-07
6.13249e-07
4.15443e-07
4.15441e-07
4.15442e-07
6.13407e-07
6.1477e-07
6.13197e-07
4.15532e-07
4.1554e-07
4.15531e-07
4.15539e-07
6.14763e-07
6.13195e-07
4.15424e-07
4.15585e-07
4.15422e-07
4.15583e-07
4.15547e-07
4.1542e-07
4.15546e-07
6.14817e-07
6.13247e-07
4.15443e-07
4.15441e-07
4.15442e-07
6.134e-07
6.1477e-07
6.13197e-07
4.15532e-07
4.1554e-07
4.1553e-07
4.15538e-07
6.14765e-07
6.13196e-07
4.15424e-07
4.15585e-07
4.15421e-07
4.15582e-07
4.15547e-07
4.15419e-07
4.15546e-07
6.14816e-07
6.13247e-07
4.15443e-07
4.15441e-07
4.15442e-07
6.13399e-07
6.1477e-07
6.13196e-07
4.15532e-07
4.15541e-07
4.15529e-07
4.15537e-07
6.14767e-07
6.13195e-07
4.15423e-07
4.15585e-07
4.15421e-07
4.15582e-07
4.15547e-07
4.15419e-07
4.15545e-07
6.14816e-07
6.13247e-07
4.15443e-07
4.1544e-07
4.15441e-07
6.13404e-07
6.14769e-07
6.13197e-07
4.15532e-07
4.1554e-07
4.15528e-07
4.15536e-07
6.14768e-07
6.1319e-07
4.15423e-07
4.15585e-07
4.15419e-07
4.15581e-07
4.15547e-07
4.15418e-07
4.15544e-07
6.14817e-07
6.13244e-07
4.15444e-07
4.15439e-07
4.1544e-07
6.13407e-07
6.1477e-07
6.13198e-07
4.15532e-07
4.1554e-07
4.15526e-07
4.15535e-07
6.14764e-07
6.13188e-07
4.15423e-07
4.15584e-07
4.15418e-07
4.15579e-07
4.15547e-07
4.15417e-07
4.15543e-07
6.14814e-07
6.13243e-07
4.15443e-07
4.15439e-07
4.1544e-07
6.13407e-07
6.14773e-07
6.13192e-07
4.15532e-07
4.1554e-07
4.15525e-07
4.15533e-07
6.1476e-07
6.13193e-07
4.15423e-07
4.15585e-07
4.15417e-07
4.15579e-07
4.15548e-07
4.15416e-07
4.15542e-07
6.14812e-07
6.13244e-07
4.15444e-07
4.15438e-07
4.1544e-07
6.13404e-07
6.1477e-07
6.13187e-07
4.15533e-07
4.15541e-07
4.15524e-07
4.15532e-07
6.14762e-07
6.13197e-07
4.15424e-07
4.15586e-07
4.15415e-07
4.15577e-07
4.15549e-07
4.15414e-07
4.15541e-07
6.14811e-07
6.13246e-07
4.15447e-07
4.15436e-07
4.15439e-07
6.13402e-07
6.14763e-07
6.13188e-07
4.15534e-07
4.15542e-07
4.15523e-07
4.15531e-07
6.14767e-07
6.13194e-07
4.15425e-07
4.15587e-07
4.15414e-07
4.15575e-07
4.1555e-07
4.15412e-07
4.1554e-07
6.14813e-07
6.13247e-07
4.15449e-07
4.15434e-07
4.15438e-07
6.13405e-07
6.14761e-07
6.13192e-07
4.15536e-07
4.15544e-07
4.1552e-07
4.15527e-07
6.14769e-07
6.13187e-07
4.15427e-07
4.15588e-07
4.15411e-07
4.15573e-07
4.15552e-07
4.1541e-07
4.15538e-07
6.14816e-07
6.13244e-07
4.15451e-07
4.15432e-07
4.15436e-07
6.13411e-07
6.14763e-07
6.13196e-07
4.15537e-07
4.15545e-07
4.15517e-07
4.15523e-07
6.14763e-07
6.13185e-07
4.15429e-07
4.1559e-07
4.15408e-07
4.15569e-07
4.15554e-07
4.15405e-07
4.15533e-07
6.14815e-07
6.13244e-07
4.15453e-07
4.15428e-07
4.15432e-07
6.1341e-07
6.14766e-07
6.13199e-07
4.15539e-07
4.15546e-07
4.15511e-07
4.15517e-07
6.14758e-07
6.13188e-07
4.15431e-07
4.15592e-07
4.15402e-07
4.15563e-07
4.15556e-07
4.15399e-07
4.15527e-07
6.14814e-07
6.13242e-07
4.15454e-07
4.15422e-07
4.15426e-07
6.13403e-07
6.14769e-07
6.13195e-07
4.1554e-07
4.15547e-07
4.15501e-07
4.15508e-07
6.14758e-07
6.13186e-07
4.15432e-07
4.15593e-07
4.15393e-07
4.15554e-07
4.15556e-07
4.1539e-07
4.15518e-07
6.14811e-07
6.13235e-07
4.15455e-07
4.15412e-07
4.15416e-07
6.13392e-07
6.14769e-07
6.13177e-07
4.1554e-07
4.15547e-07
4.15486e-07
4.15494e-07
6.14755e-07
6.13178e-07
4.15431e-07
4.15592e-07
4.15378e-07
4.15539e-07
4.15555e-07
4.15375e-07
4.15503e-07
6.14803e-07
6.13226e-07
4.15455e-07
4.15397e-07
4.15402e-07
6.13382e-07
6.14754e-07
6.13159e-07
4.15536e-07
4.15544e-07
4.15464e-07
4.15471e-07
6.14746e-07
6.13169e-07
4.15428e-07
4.15589e-07
4.15356e-07
4.15516e-07
4.15552e-07
4.15353e-07
4.15481e-07
6.1479e-07
6.13217e-07
4.15451e-07
4.15375e-07
4.1538e-07
6.13378e-07
6.14726e-07
6.13152e-07
4.15528e-07
4.15536e-07
4.15426e-07
4.15433e-07
6.14731e-07
6.13159e-07
4.1542e-07
4.15581e-07
4.15317e-07
4.15478e-07
4.15544e-07
4.15316e-07
4.15441e-07
6.14772e-07
6.1321e-07
4.15443e-07
4.15338e-07
4.15341e-07
6.13374e-07
6.14692e-07
6.13019e-07
4.15503e-07
4.15508e-07
4.1514e-07
4.15145e-07
6.14703e-07
6.1301e-07
4.15396e-07
4.15553e-07
4.15033e-07
4.15187e-07
4.15515e-07
4.15028e-07
4.15148e-07
6.14745e-07
6.1307e-07
4.15414e-07
4.15048e-07
4.1505e-07
6.13178e-07
6.14464e-07
5.99165e-07
4.15407e-07
4.15415e-07
4.02549e-07
4.0253e-07
6.14467e-07
5.99158e-07
4.15298e-07
4.15453e-07
4.02476e-07
4.02547e-07
4.15417e-07
4.02475e-07
4.02517e-07
6.14516e-07
5.99188e-07
4.15321e-07
4.02477e-07
4.02455e-07
5.9918e-07
5.8259e-07
3.89666e-07
3.89646e-07
5.82581e-07
3.89614e-07
3.89661e-07
1.90949e-07
1.9095e-07
1.9094e-07
3.89629e-07
5.82606e-07
3.89588e-07
1.05167e-07
2.08552e-08
7.44047e-08
7.44053e-08
1.29454e-09
5.84392e-09
5.42547e-09
4.73152e-08
1.00748e-09
6.97716e-09
4.71524e-08
1.53447e-08
5.99089e-09
1.01058e-08
1.15649e-08
6.78348e-09
1.67902e-07
4.66734e-09
2.4977e-07
1.65525e-06
3.24196e-06
6.79005e-09
1.68079e-07
4.95795e-09
2.65052e-07
4.50755e-08
4.54183e-08
4.50152e-08
4.49876e-08
4.51304e-08
4.54846e-08
4.50893e-08
1.3121e-09
8.79756e-08
2.24654e-08
7.8226e-09
1.32884e-09
6.64427e-08
2.23039e-08
1.68333e-06
3.269e-06
1.01397e-09
2.17605e-08
9.06862e-08
8.69591e-09
1.00815e-09
2.16583e-08
6.91697e-08
2.20938e-07
2.20538e-07
5.44954e-09
1.90322e-07
1.88965e-07
1.69172e-08
4.66718e-07
1.08434e-08
6.58296e-07
7.24187e-06
1.0247e-05
1.64488e-08
4.75446e-07
1.12654e-08
6.82811e-07
4.54931e-08