/*--------------------------------*- C++ -*----------------------------------*\
| =========                 |                                                 |
| \\      /  F ield         | OpenFOAM: The Open Source CFD Toolbox           |
|  \\    /   O peration     | Version:  v2006                                 |
|   \\  /    A nd           | Website:  www.openfoam.com                      |
|    \\/     M anipulation  |                                                 |
\*---------------------------------------------------------------------------*/
FoamFile
{
    version     2.0;
    format      ascii;
    class       volScalarField;
    location    "500";
    object      epsilon;
}
// * * * * * * * * * * * * * * * * * * * * * * * * * * * * * * * * * * * * * //

dimensions      [0 2 -3 0 0 0 0];


internalField   nonuniform List<scalar> 
14258
(
3.98194e-06
8.98181e-06
3.98065e-06
8.98445e-06
1.82704e-05
1.82742e-05
6.07933e-07
5.30044e-06
5.3022e-06
1.69719e-06
3.73079e-07
3.20953e-06
2.10598e-07
1.69676e-06
3.73004e-07
3.20997e-06
2.10589e-07
3.98168e-06
1.6963e-06
2.10735e-07
1.21494e-05
3.97869e-06
1.07585e-05
4.67661e-06
1.07588e-05
4.67398e-06
1.21478e-05
2.2083e-05
7.15103e-06
8.97618e-06
7.15814e-06
2.20773e-05
1.21517e-05
3.97813e-06
4.67539e-06
1.07592e-05
4.67359e-06
1.07597e-05
1.21498e-05
2.20894e-05
7.15084e-06
8.97882e-06
7.15854e-06
2.2083e-05
1.82774e-05
1.82813e-05
9.48602e-06
2.20126e-05
2.20136e-05
2.17464e-05
2.17476e-05
9.31869e-06
4.06559e-06
9.20894e-06
5.31339e-06
2.32207e-06
9.20992e-06
3.9893e-06
2.35279e-06
4.07198e-06
9.21673e-06
5.31522e-06
2.32339e-06
9.21769e-06
3.99536e-06
2.3544e-06
1.21493e-05
3.9798e-06
1.07581e-05
4.68174e-06
1.07583e-05
4.68064e-06
1.21489e-05
2.21333e-05
7.15067e-06
7.15198e-06
2.21332e-05
2.09457e-06
6.21348e-07
1.16674e-06
1.16713e-06
2.04212e-06
1.19426e-06
1.19476e-06
8.30569e-07
1.69139e-06
1.99228e-06
7.0135e-07
1.98628e-06
6.98822e-07
8.32443e-07
1.07569e-06
2.55675e-06
3.209e-06
1.50613e-06
2.55348e-06
1.50995e-06
1.07627e-06
8.30853e-07
1.69153e-06
1.99198e-06
7.01413e-07
1.98649e-06
6.99009e-07
8.32568e-07
1.07595e-06
2.55671e-06
3.20959e-06
1.50657e-06
2.55366e-06
1.51067e-06
1.07642e-06
8.2959e-07
1.69145e-06
7.01041e-07
1.98846e-06
6.98636e-07
1.98434e-06
8.31372e-07
1.07174e-06
2.54233e-06
2.54004e-06
1.07351e-06
6.26786e-07
3.59682e-07
9.40947e-07
3.54366e-07
4.03061e-06
6.18764e-07
9.32512e-07
1.8291e-05
6.26536e-07
3.59695e-07
3.35917e-06
9.40376e-07
5.38096e-06
1.82924e-05
9.04247e-06
6.26896e-07
3.59277e-07
1.9514e-06
5.38164e-06
5.37952e-06
1.82931e-05
1.9493e-06
3.35625e-06
4.03069e-06
9.04178e-06
1.9492e-06
6.1923e-07
3.35526e-06
9.03977e-06
3.35487e-06
9.03968e-06
5.3792e-06
5.37915e-06
1.82909e-05
3.59634e-07
3.35814e-06
1.95139e-06
4.03107e-06
9.04037e-06
4.03103e-06
1.82908e-05
4.44367e-06
5.38181e-06
9.35485e-06
2.67387e-06
1.21291e-05
1.07571e-05
4.69647e-06
4.03008e-06
1.21301e-05
1.07562e-05
4.696e-06
1.82877e-05
1.82945e-05
9.69067e-06
2.16305e-05
2.16325e-05
4.4423e-06
9.35203e-06
2.67208e-06
5.38149e-06
2.67395e-06
9.35416e-06
4.44037e-06
1.82943e-05
2.19799e-05
7.07699e-06
9.044e-06
7.07585e-06
2.19773e-05
4.45074e-06
2.6736e-06
9.3459e-06
5.38213e-06
4.44606e-06
2.67731e-06
9.35044e-06
4.69651e-06
1.07574e-05
1.21301e-05
7.07693e-06
2.1981e-05
2.19791e-05
7.07561e-06
9.03775e-06
2.19822e-05
7.07622e-06
2.19806e-05
9.03797e-06
7.07553e-06
7.07631e-06
2.1983e-05
4.43981e-06
2.67143e-06
5.37808e-06
9.34459e-06
4.44356e-06
2.66756e-06
9.3396e-06
4.44008e-06
2.67013e-06
5.37827e-06
9.34397e-06
4.44363e-06
2.66614e-06
9.33994e-06
9.68509e-06
2.16155e-05
2.16112e-05
9.68758e-06
2.16122e-05
2.16084e-05
1.82879e-05
1.21299e-05
4.03148e-06
4.6965e-06
1.0757e-05
4.69667e-06
1.2129e-05
1.07577e-05
2.1982e-05
7.07549e-06
9.04226e-06
2.19795e-05
7.07508e-06
1.21312e-05
4.03157e-06
4.69638e-06
1.07572e-05
1.21303e-05
4.69695e-06
1.0758e-05
1.8294e-05
2.53371e-06
9.40763e-07
1.58791e-06
1.58671e-06
1.58897e-06
2.53105e-06
1.58828e-06
2.52272e-06
1.58084e-06
9.32534e-07
1.57956e-06
2.52593e-06
1.57897e-06
1.57775e-06
1.41209e-06
1.85013e-06
2.73718e-06
3.35996e-06
1.85136e-06
2.73815e-06
1.41186e-06
2.527e-06
1.58466e-06
1.58549e-06
9.39951e-07
1.586e-06
2.52566e-06
1.58542e-06
1.18481e-06
1.95414e-06
1.04342e-06
2.22059e-06
1.1846e-06
1.04445e-06
2.22351e-06
1.03642e-06
2.21933e-06
1.17733e-06
1.84478e-06
2.73408e-06
1.40455e-06
1.17684e-06
1.03635e-06
2.21897e-06
1.94636e-06
1.17709e-06
1.03528e-06
2.21602e-06
1.40364e-06
2.73313e-06
1.8444e-06
3.35413e-06
1.40408e-06
2.73185e-06
1.84259e-06
1.40333e-06
1.84363e-06
3.35377e-06
2.73279e-06
2.73157e-06
1.8419e-06
1.40371e-06
1.41158e-06
1.84965e-06
2.73586e-06
3.35935e-06
1.85147e-06
1.41116e-06
2.7373e-06
1.18533e-06
1.95421e-06
1.0435e-06
2.22066e-06
1.04454e-06
1.18511e-06
2.22365e-06
4.03144e-06
1.9518e-06
4.03157e-06
1.95171e-06
3.3584e-06
9.04048e-06
5.38134e-06
1.82909e-05
1.2131e-05
1.07572e-05
4.69681e-06
4.03201e-06
1.07582e-05
4.69736e-06
1.213e-05
1.21309e-05
4.69704e-06
1.07576e-05
4.03207e-06
4.69727e-06
1.07584e-05
1.21299e-05
2.19821e-05
7.07561e-06
9.04239e-06
7.07508e-06
2.19792e-05
4.45034e-06
2.67469e-06
5.38246e-06
9.34652e-06
2.67775e-06
4.44694e-06
9.35024e-06
9.69806e-06
2.16136e-05
2.16097e-05
9.69197e-06
2.16164e-05
2.16136e-05
1.82942e-05
1.18576e-06
1.0438e-06
2.22136e-06
1.95465e-06
2.22424e-06
1.04483e-06
1.18561e-06
1.18556e-06
1.04375e-06
2.221e-06
1.95457e-06
1.04477e-06
2.22396e-06
1.18538e-06
1.41189e-06
2.73621e-06
1.85039e-06
3.3596e-06
2.73753e-06
1.85196e-06
1.41151e-06
1.82551e-05
1.82586e-05
6.04584e-07
5.28994e-06
5.29108e-06
3.98471e-06
8.98388e-06
3.98559e-06
8.97897e-06
1.7056e-06
3.7355e-07
3.20853e-06
2.13456e-07
1.70563e-06
3.89491e-07
3.19918e-06
2.14477e-07
1.83088e-05
6.65783e-07
5.31418e-06
5.30842e-06
1.82989e-05
3.98293e-06
8.98657e-06
1.70487e-06
3.73438e-07
3.20874e-06
2.1341e-07
3.9836e-06
8.97482e-06
1.70433e-06
3.81546e-07
2.13787e-07
3.19072e-06
3.88818e-07
3.19627e-06
8.97931e-06
1.82899e-05
6.36612e-07
5.30226e-06
5.2953e-06
1.82809e-05
1.69936e-06
3.80933e-07
2.13567e-07
3.18753e-06
3.97384e-06
8.97514e-06
1.82533e-05
1.82564e-05
8.98816e-06
2.2234e-05
2.22344e-05
9.14772e-06
2.23293e-05
2.23293e-05
3.87383e-06
5.27939e-06
9.20727e-06
2.29451e-06
3.92427e-06
9.19995e-06
2.27232e-06
3.87949e-06
5.28057e-06
9.21493e-06
2.29571e-06
3.93008e-06
9.20732e-06
2.27333e-06
1.21406e-05
3.986e-06
1.07563e-05
4.67824e-06
1.21427e-05
1.07552e-05
4.679e-06
2.20642e-05
8.98633e-06
7.14382e-06
2.20632e-05
7.13629e-06
1.21483e-05
3.98633e-06
1.07569e-05
4.68407e-06
1.21489e-05
1.07561e-05
4.68338e-06
2.2129e-05
8.98347e-06
7.15204e-06
2.21302e-05
7.14708e-06
1.83142e-05
9.72072e-06
2.19765e-05
2.19696e-05
9.75947e-06
2.20288e-05
2.20211e-05
4.29334e-06
5.31092e-06
9.29939e-06
2.44629e-06
2.44083e-06
4.30714e-06
9.31117e-06
4.28465e-06
5.30525e-06
9.28864e-06
2.44304e-06
4.2994e-06
9.30036e-06
2.43715e-06
1.83064e-05
1.21418e-05
3.98394e-06
4.67637e-06
1.07566e-05
1.21442e-05
4.67677e-06
1.07552e-05
2.20661e-05
8.98864e-06
7.1428e-06
2.20667e-05
7.13491e-06
1.21458e-05
3.98405e-06
1.07562e-05
4.68203e-06
1.21464e-05
1.07553e-05
4.68135e-06
2.21259e-05
8.97708e-06
7.14822e-06
2.21256e-05
7.14569e-06
2.21065e-05
8.98258e-06
7.14175e-06
2.21077e-05
7.1363e-06
1.82914e-05
9.61957e-06
2.16702e-05
2.16603e-05
9.62713e-06
2.16751e-05
2.16633e-05
4.25776e-06
5.30197e-06
9.19801e-06
2.41098e-06
2.41588e-06
4.2547e-06
9.20165e-06
4.24875e-06
9.18806e-06
2.40707e-06
5.29507e-06
4.24514e-06
9.18965e-06
2.41189e-06
1.8283e-05
4.66919e-06
1.07543e-05
1.21438e-05
7.13914e-06
2.21068e-05
1.38693e-07
9.83345e-08
9.83172e-08
8.06269e-08
1.41305e-07
9.86242e-08
9.86816e-08
8.06867e-08
1.40348e-07
9.86295e-08
9.86108e-08
8.07059e-08
1.40144e-07
9.85109e-08
9.85766e-08
8.06803e-08
1.96928e-06
5.91995e-07
1.15011e-06
1.15041e-06
2.00081e-06
1.13112e-06
1.13132e-06
8.44132e-07
1.71015e-06
1.99891e-06
7.10776e-07
8.42848e-07
2.00246e-06
7.13069e-07
1.08281e-06
3.20042e-06
2.55953e-06
1.50278e-06
1.49312e-06
1.08316e-06
2.55923e-06
8.45765e-07
1.71005e-06
1.99809e-06
7.10818e-07
8.44062e-07
2.00165e-06
7.13199e-07
1.09258e-06
3.19862e-06
2.55313e-06
1.54306e-06
1.09137e-06
2.5548e-06
1.54343e-06
2.27098e-06
6.64475e-07
1.28786e-06
1.28641e-06
1.28111e-06
2.28167e-06
1.27995e-06
8.43918e-07
1.70902e-06
1.99827e-06
7.10607e-07
8.42759e-07
2.0015e-06
7.12795e-07
1.08274e-06
3.20028e-06
2.55918e-06
1.50308e-06
1.49326e-06
1.08315e-06
2.55874e-06
8.43206e-07
1.70828e-06
7.10234e-07
1.99521e-06
8.41711e-07
7.12485e-07
1.99822e-06
1.08496e-06
3.19116e-06
2.54795e-06
1.522e-06
1.08355e-06
2.54946e-06
1.52447e-06
1.09093e-06
3.1961e-06
2.54963e-06
1.54114e-06
1.08985e-06
1.54159e-06
2.55083e-06
2.236e-06
6.36845e-07
1.24346e-06
1.24202e-06
1.24624e-06
2.23081e-06
1.24475e-06
7.08717e-07
1.99011e-06
8.40047e-07
2.54441e-06
1.51988e-06
1.0821e-06
1.82247e-05
1.82255e-05
6.3522e-07
5.28319e-06
5.28411e-06
3.97449e-06
8.95665e-06
8.75453e-07
3.96961e-07
3.17297e-06
2.2505e-07
3.97338e-06
7.495e-07
2.25991e-07
1.82211e-05
1.8222e-05
9.44068e-06
2.04154e-05
2.04134e-05
2.04567e-05
2.04559e-05
9.23981e-06
4.34765e-06
8.91132e-06
2.42892e-06
5.29716e-06
8.91249e-06
4.25038e-06
2.48424e-06
4.3531e-06
8.91324e-06
2.4295e-06
5.29832e-06
8.91575e-06
2.4854e-06
4.25476e-06
1.21351e-05
4.66928e-06
1.07511e-05
3.97438e-06
4.67042e-06
1.07514e-05
1.21346e-05
2.21018e-05
7.11776e-06
8.95172e-06
7.12283e-06
2.20948e-05
1.21399e-05
1.07525e-05
3.97294e-06
4.66185e-06
1.07525e-05
4.66104e-06
1.21405e-05
1.3892e-07
1.71921e-06
1.71924e-06
3.18306e-06
3.98248e-06
1.7175e-06
3.92982e-07
2.16894e-07
3.9788e-06
6.46059e-07
2.16552e-07
3.91539e-07
6.67934e-07
1.82834e-05
6.55845e-07
9.83695e-08
3.97362e-07
1.72339e-06
1.72371e-06
3.17701e-06
3.98078e-06
1.7225e-06
3.97956e-06
9.85752e-08
9.86079e-08
9.85145e-08
1.82843e-05
3.93329e-07
3.19512e-06
1.82474e-05
1.82496e-05
5.26529e-06
5.26612e-06
5.8368e-07
3.98498e-06
8.98705e-06
3.98415e-06
8.9859e-06
3.18323e-06
3.74133e-07
2.16156e-07
3.19687e-06
2.17499e-07
3.93496e-07
1.83131e-05
5.30593e-06
6.66023e-07
5.30241e-06
1.83086e-05
8.98859e-06
3.9833e-06
1.71791e-06
3.73968e-07
2.16055e-07
8.97854e-06
3.87333e-07
2.16792e-07
3.19399e-06
2.17265e-07
3.19558e-06
1.71469e-06
8.98373e-06
3.9788e-06
3.9193e-07
1.71437e-06
3.1962e-06
8.97171e-06
1.82888e-05
5.30173e-06
5.29593e-06
1.82836e-05
3.86734e-07
3.19132e-06
2.16782e-07
8.97593e-06
5.3124e-06
5.30186e-06
5.29775e-06
1.82812e-05
8.97538e-06
3.9825e-06
8.9856e-06
3.9749e-06
8.96403e-06
1.83077e-05
1.82937e-05
8.9862e-06
3.98132e-06
3.97515e-06
8.9637e-06
9.85768e-08
9.85318e-08
2.20213e-07
3.196e-06
1.72091e-06
4.0264e-07
3.20231e-06
1.82422e-05
1.82331e-05
1.82439e-05
1.82341e-05
5.26203e-06
5.26264e-06
5.84691e-07
6.03997e-07
5.27016e-06
5.27016e-06
3.98148e-06
8.98534e-06
3.97332e-06
8.98011e-06
3.17714e-06
3.75798e-07
2.18751e-07
1.72848e-06
3.81395e-07
3.16896e-06
2.21643e-07
3.197e-06
2.20342e-07
3.97541e-07
1.72954e-06
4.02703e-07
3.20066e-06
2.23164e-07
3.97396e-06
8.95659e-06
3.9723e-06
1.73164e-06
3.97118e-07
3.17277e-06
2.25075e-07
1.73297e-06
2.26139e-07
5.30463e-06
6.69626e-07
5.30244e-06
6.74358e-07
5.30487e-06
5.30594e-06
1.83055e-05
1.82939e-05
1.72228e-06
3.75588e-07
2.18666e-07
8.67716e-07
3.81074e-07
3.16884e-06
2.21564e-07
8.97837e-06
8.97812e-06
3.97396e-06
3.93732e-07
2.19766e-07
3.19676e-06
1.11592e-06
4.00852e-07
7.42046e-07
2.22792e-07
8.98275e-06
3.97952e-06
8.97581e-06
1.72092e-06
8.85646e-06
2.21263e-05
2.21249e-05
2.23086e-05
2.23081e-05
8.77083e-06
9.68519e-06
2.20131e-05
2.20057e-05
2.20339e-05
2.20267e-05
9.65664e-06
1.21442e-05
1.07532e-05
4.67569e-06
3.98421e-06
1.07531e-05
4.6792e-06
1.21447e-05
1.2144e-05
1.07549e-05
4.67445e-06
3.97827e-06
1.07543e-05
4.67459e-06
1.21449e-05
1.82742e-05
8.7802e-06
2.16229e-05
2.16204e-05
8.7439e-06
2.10853e-05
2.10833e-05
9.63476e-06
2.19195e-05
2.19118e-05
9.63929e-06
2.17909e-05
2.17875e-05
1.21444e-05
1.07528e-05
4.67257e-06
3.97767e-06
1.2144e-05
1.07533e-05
4.66882e-06
1.21458e-05
1.07548e-05
4.67396e-06
3.97982e-06
1.21448e-05
1.07556e-05
4.67352e-06
1.82832e-05
1.82477e-05
1.82502e-05
3.84463e-06
9.13577e-06
2.24937e-06
5.27159e-06
9.17602e-06
2.2567e-06
3.84022e-06
3.85018e-06
9.1418e-06
2.25024e-06
5.27226e-06
9.18255e-06
2.25766e-06
3.84569e-06
1.21368e-05
1.07524e-05
4.67696e-06
3.98634e-06
1.07525e-05
4.6786e-06
1.2137e-05
2.20622e-05
7.12284e-06
8.98677e-06
7.12899e-06
2.207e-05
1.21461e-05
1.07541e-05
4.67667e-06
3.98628e-06
1.0754e-05
4.68044e-06
1.21462e-05
2.21199e-05
7.13678e-06
8.98487e-06
7.14213e-06
2.21186e-05
1.83128e-05
4.28224e-06
9.30981e-06
2.43386e-06
5.30822e-06
2.43557e-06
9.31297e-06
4.27841e-06
4.27918e-06
9.30277e-06
2.43367e-06
5.30384e-06
9.304e-06
2.43475e-06
4.27726e-06
1.83066e-05
2.20623e-05
7.12147e-06
8.98876e-06
7.12737e-06
2.20676e-05
1.21366e-05
4.67495e-06
1.07517e-05
3.9843e-06
4.67626e-06
1.0752e-05
1.21362e-05
2.21188e-05
7.13885e-06
8.97758e-06
7.14264e-06
2.21186e-05
2.20986e-05
7.12938e-06
8.9833e-06
7.13298e-06
2.20994e-05
1.21428e-05
4.67218e-06
1.07549e-05
3.97828e-06
4.67219e-06
1.07547e-05
1.21425e-05
2.21221e-05
7.13957e-06
8.9678e-06
7.14087e-06
2.21242e-05
1.82888e-05
4.26828e-06
2.42968e-06
5.30209e-06
9.20335e-06
2.42209e-06
9.20271e-06
4.27911e-06
4.26068e-06
2.42667e-06
5.29548e-06
9.19187e-06
9.19084e-06
2.4187e-06
4.27209e-06
9.61667e-06
2.16485e-05
2.16361e-05
2.16682e-05
2.1656e-05
9.61797e-06
1.82818e-05
1.21433e-05
3.97449e-06
4.66955e-06
1.07544e-05
2.21011e-05
8.97575e-06
7.13239e-06
7.1345e-06
2.21025e-05
2.21071e-05
8.97598e-06
7.13582e-06
4.36721e-06
2.48254e-06
5.30806e-06
9.20075e-06
4.37988e-06
2.47171e-06
9.16989e-06
4.30224e-06
2.43791e-06
5.30171e-06
9.20261e-06
9.20061e-06
4.29136e-06
2.44686e-06
4.29747e-06
2.43589e-06
9.19128e-06
5.29899e-06
2.44551e-06
4.28576e-06
9.18987e-06
9.64321e-06
2.15923e-05
2.15829e-05
2.15496e-05
9.62812e-06
2.1544e-05
1.82816e-05
2.21002e-05
7.13157e-06
8.97537e-06
7.13035e-06
2.20976e-05
1.21371e-05
1.07519e-05
4.67439e-06
3.97941e-06
1.21364e-05
1.07524e-05
4.67247e-06
2.20852e-05
7.11782e-06
8.98052e-06
2.2073e-05
7.11495e-06
1.21364e-05
3.97712e-06
1.07521e-05
4.66955e-06
1.07519e-05
4.67054e-06
1.21366e-05
2.20876e-05
8.97086e-06
7.11404e-06
7.11366e-06
2.20986e-05
1.83051e-05
1.82967e-05
2.20791e-05
7.11679e-06
8.9798e-06
2.20689e-05
7.11445e-06
1.21357e-05
4.67274e-06
1.0751e-05
3.97875e-06
1.21351e-05
4.67133e-06
1.07515e-05
1.2135e-05
3.97693e-06
4.66932e-06
1.07516e-05
4.66983e-06
1.07512e-05
1.21354e-05
2.20816e-05
8.97037e-06
7.1145e-06
7.11358e-06
2.20936e-05
1.82408e-05
1.8235e-05
1.82423e-05
1.82361e-05
3.95137e-06
9.07778e-06
2.25007e-06
5.26128e-06
3.86708e-06
9.01444e-06
2.26582e-06
3.9546e-06
9.08302e-06
2.25104e-06
5.26209e-06
3.87354e-06
9.01891e-06
2.26612e-06
8.89534e-06
2.04749e-05
2.04724e-05
2.06814e-05
2.06795e-05
9.05073e-06
4.0448e-06
5.26269e-06
8.92589e-06
2.37213e-06
8.95935e-06
2.31307e-06
4.14882e-06
4.05406e-06
5.26385e-06
8.92755e-06
2.37043e-06
8.96339e-06
2.31531e-06
4.14957e-06
1.21452e-05
1.07536e-05
4.6725e-06
3.97809e-06
1.21452e-05
1.0754e-05
4.66853e-06
2.21073e-05
7.13213e-06
8.98455e-06
2.21089e-05
7.12747e-06
1.21433e-05
3.97575e-06
1.07534e-05
4.66209e-06
1.07534e-05
4.66492e-06
1.21426e-05
2.20979e-05
8.98153e-06
7.1204e-06
7.12395e-06
2.20962e-05
1.21359e-05
1.07514e-05
4.66921e-06
3.97369e-06
1.21356e-05
1.07516e-05
4.66996e-06
2.21044e-05
7.1168e-06
8.95128e-06
2.20988e-05
7.12178e-06
1.21395e-05
1.07523e-05
4.6603e-06
3.97187e-06
1.214e-05
1.07522e-05
4.65971e-06
4.28948e-06
9.29508e-06
2.43435e-06
5.30356e-06
4.28058e-06
9.27344e-06
2.43798e-06
4.29427e-06
9.28868e-06
2.43445e-06
5.30297e-06
4.2808e-06
2.43945e-06
9.26798e-06
9.64435e-06
2.15392e-05
2.15412e-05
2.16407e-05
2.164e-05
9.66414e-06
4.30663e-06
5.30417e-06
9.22955e-06
2.45988e-06
9.24941e-06
2.44946e-06
4.31928e-06
4.30655e-06
5.30427e-06
9.22289e-06
2.45995e-06
2.44957e-06
9.24348e-06
4.31846e-06
1.83038e-05
1.82965e-05
2.2108e-05
7.13538e-06
8.97854e-06
2.21098e-05
7.13081e-06
2.20974e-05
8.9781e-06
7.12279e-06
7.12725e-06
2.20952e-05
1.21432e-05
3.97616e-06
4.66327e-06
1.07532e-05
1.07529e-05
4.66605e-06
1.21428e-05
2.20961e-05
7.12768e-06
8.98113e-06
2.2094e-05
7.12632e-06
1.21415e-05
4.67235e-06
1.07545e-05
3.97978e-06
1.21412e-05
4.67235e-06
1.07551e-05
2.20915e-05
8.97728e-06
7.12635e-06
7.12619e-06
2.20942e-05
1.26557e-06
2.29213e-06
1.26543e-06
6.55255e-07
1.31792e-06
2.37531e-06
1.31816e-06
7.47945e-07
1.73189e-06
2.01179e-06
8.76631e-07
1.73423e-06
2.01536e-06
7.49524e-07
1.10445e-06
1.52944e-06
2.54446e-06
1.10864e-06
3.18259e-06
1.55147e-06
2.54881e-06
1.73358e-06
8.82428e-07
2.01945e-06
8.83516e-07
1.73574e-06
7.51095e-07
2.02176e-06
9.83132e-08
9.82965e-08
8.00957e-08
8.53193e-07
2.00734e-06
7.23728e-07
1.71649e-06
2.00607e-06
7.21901e-07
8.53694e-07
8.5576e-07
2.00801e-06
7.24215e-07
1.71648e-06
2.00625e-06
7.2225e-07
8.56785e-07
1.08748e-06
2.55199e-06
1.4836e-06
3.19267e-06
1.48991e-06
2.55728e-06
1.08649e-06
8.52952e-07
7.2325e-07
2.00549e-06
1.71482e-06
7.21311e-07
2.00358e-06
8.54094e-07
2.24901e-06
1.26049e-06
6.45187e-07
1.25912e-06
1.25616e-06
1.25471e-06
2.25949e-06
2.33727e-06
1.31212e-06
6.63865e-07
1.31081e-06
2.34881e-06
1.30286e-06
1.3018e-06
2.28707e-06
1.27353e-06
6.57463e-07
1.27247e-06
1.27826e-06
2.27545e-06
1.27912e-06
1.40871e-07
1.39479e-07
9.83293e-08
9.83097e-08
9.83849e-08
7.91116e-08
7.95917e-08
8.61194e-07
2.00884e-06
7.31591e-07
1.72469e-06
8.61199e-07
2.00885e-06
7.32948e-07
8.66008e-07
2.01083e-06
7.32394e-07
1.72518e-06
8.65486e-07
2.01149e-06
7.33908e-07
1.08918e-06
2.54897e-06
1.48297e-06
3.17111e-06
1.09022e-06
2.54501e-06
1.4823e-06
8.64049e-07
7.3143e-07
2.00969e-06
1.7242e-06
8.63186e-07
7.33024e-07
2.01092e-06
1.42112e-07
9.86169e-08
8.0144e-08
1.41793e-07
9.85875e-08
8.01609e-08
1.41099e-07
9.84883e-08
8.01374e-08
1.10423e-06
1.54243e-06
2.55505e-06
3.19691e-06
1.10278e-06
1.5464e-06
2.55672e-06
1.95125e-06
1.11499e-06
1.11511e-06
5.90678e-07
1.12252e-06
1.12268e-06
1.94642e-06
1.08764e-06
2.55266e-06
1.48356e-06
3.19284e-06
1.48978e-06
2.55802e-06
1.0867e-06
1.10092e-06
2.55771e-06
1.54543e-06
3.19878e-06
2.55744e-06
1.5456e-06
1.1012e-06
2.26597e-06
1.27772e-06
1.278e-06
6.67689e-07
1.28038e-06
1.28036e-06
2.26397e-06
8.52837e-07
2.00611e-06
7.23216e-07
1.71528e-06
2.00499e-06
7.21445e-07
8.53253e-07
1.09429e-06
2.55474e-06
1.53499e-06
3.19338e-06
2.5538e-06
1.53213e-06
1.09543e-06
1.09924e-06
1.54445e-06
2.55388e-06
3.19659e-06
1.54436e-06
2.55362e-06
1.09962e-06
8.53931e-07
7.22531e-07
2.00379e-06
1.71158e-06
2.00164e-06
7.20455e-07
8.5512e-07
8.51032e-07
7.2201e-07
2.00315e-06
1.71103e-06
7.19805e-07
1.99968e-06
8.52828e-07
1.09465e-06
1.55227e-06
2.55287e-06
3.19314e-06
2.55037e-06
1.5465e-06
1.09729e-06
8.41452e-07
1.70266e-06
7.10825e-07
1.99288e-06
1.09242e-06
1.53317e-06
3.19028e-06
2.55062e-06
1.09361e-06
1.5301e-06
2.54943e-06
1.08334e-06
3.18797e-06
1.52235e-06
2.5455e-06
1.42928e-07
9.85787e-08
1.43878e-07
9.8593e-08
9.8584e-08
7.91146e-08
7.96183e-08
9.85126e-08
1.42179e-07
9.84993e-08
9.85277e-08
1.43403e-07
7.91105e-08
7.96143e-08
1.10721e-06
1.54724e-06
2.55577e-06
3.19613e-06
1.10684e-06
1.54875e-06
2.5563e-06
8.65206e-07
7.31062e-07
2.00824e-06
1.7235e-06
8.64287e-07
2.01027e-06
7.32942e-07
1.1149e-06
3.19964e-06
2.56215e-06
1.5592e-06
1.55559e-06
2.55999e-06
1.11596e-06
2.00884e-06
1.11559e-06
1.11574e-06
5.83887e-07
1.95689e-06
1.12104e-06
1.12109e-06
1.2019e-06
2.1973e-06
1.20024e-06
2.1046e-06
5.94443e-07
1.15311e-06
1.15381e-06
1.08943e-06
2.54954e-06
1.48289e-06
3.17122e-06
1.09045e-06
2.54542e-06
1.48227e-06
8.68009e-07
1.72753e-06
2.00951e-06
7.41153e-07
2.00955e-06
7.39992e-07
8.6805e-07
1.49976e-06
1.09411e-06
3.16926e-06
2.54283e-06
2.54397e-06
1.48772e-06
1.09464e-06
1.10832e-06
2.55893e-06
1.54777e-06
3.19663e-06
1.10823e-06
2.55873e-06
1.54883e-06
8.73923e-07
1.72843e-06
2.0146e-06
7.42532e-07
2.01373e-06
7.41259e-07
8.74378e-07
1.11535e-06
3.19877e-06
2.56096e-06
1.55867e-06
2.56019e-06
1.11596e-06
1.55524e-06
8.76663e-07
2.01149e-06
7.48122e-07
1.73377e-06
8.75573e-07
2.01475e-06
7.49596e-07
1.52972e-06
1.55134e-06
3.1822e-06
1.10866e-06
2.54435e-06
1.10455e-06
2.54826e-06
8.83361e-07
2.01809e-06
7.49652e-07
1.73499e-06
8.82508e-07
2.02081e-06
7.51095e-07
2.27485e-06
1.27942e-06
1.27962e-06
6.68533e-07
2.26612e-06
1.28103e-06
1.28042e-06
2.29239e-06
6.7444e-07
1.29516e-06
1.29515e-06
1.28996e-06
1.29005e-06
2.30496e-06
8.60731e-07
2.00769e-06
7.31008e-07
1.72371e-06
8.60743e-07
2.00776e-06
7.32381e-07
7.40762e-07
1.72819e-06
2.00903e-06
8.67616e-07
1.72699e-06
2.00875e-06
7.39505e-07
1.09439e-06
1.49943e-06
2.54265e-06
1.0939e-06
3.16926e-06
2.54375e-06
1.48786e-06
1.1055e-06
2.55822e-06
1.54373e-06
3.19775e-06
1.10437e-06
1.54728e-06
2.55897e-06
2.56329e-06
3.20277e-06
1.11458e-06
3.20135e-06
1.56147e-06
1.55744e-06
2.56233e-06
1.72959e-06
8.73588e-07
2.01562e-06
8.72757e-07
1.72819e-06
7.40614e-07
2.01446e-06
8.64881e-07
7.30813e-07
2.00892e-06
1.72371e-06
8.63267e-07
7.32843e-07
2.01222e-06
5.38168e-06
1.4978e-07
4.23728e-07
4.24508e-07
7.04289e-07
1.56884e-07
4.46969e-07
4.49616e-07
7.26938e-07
1.59327e-07
4.74895e-07
4.74974e-07
7.86707e-07
1.65437e-07
5.08623e-07
5.08965e-07
8.11484e-07
1.73912e-07
5.37204e-07
5.406e-07
8.35603e-07
1.83334e-07
5.64735e-07
5.6575e-07
8.71167e-07
2.00784e-07
5.95552e-07
5.93452e-07
9.07173e-07
2.0347e-07
6.23891e-07
7.2442e-07
4.18448e-07
4.16397e-07
7.63629e-07
8.05763e-07
4.38536e-07
4.23368e-07
4.68457e-07
4.41929e-07
7.05885e-07
7.23411e-07
4.38405e-07
4.24122e-07
4.68321e-07
4.44448e-07
4.23466e-07
4.41621e-07
4.38638e-07
7.09897e-07
7.31437e-07
4.23351e-07
4.44113e-07
4.38519e-07
7.15422e-07
8.00956e-07
7.48678e-07
4.69977e-07
4.47486e-07
4.69928e-07
4.67175e-07
7.28806e-07
7.54498e-07
4.69846e-07
4.5014e-07
4.69806e-07
4.67851e-07
4.46551e-07
4.66721e-07
4.73432e-07
7.36965e-07
7.55359e-07
4.46427e-07
4.67426e-07
4.73294e-07
7.76775e-07
7.51829e-07
7.83925e-07
4.72281e-07
4.75228e-07
4.93423e-07
5.00934e-07
7.66435e-07
8.06951e-07
4.72156e-07
4.7527e-07
4.93237e-07
5.00538e-07
4.81434e-07
5.00848e-07
5.01671e-07
7.65441e-07
8.07619e-07
4.81305e-07
5.00428e-07
5.01462e-07
8.05645e-07
7.94798e-07
8.26782e-07
5.01352e-07
5.08704e-07
5.25449e-07
5.30178e-07
8.16105e-07
8.38671e-07
5.0114e-07
5.09073e-07
5.25273e-07
5.33592e-07
5.07898e-07
5.3e-07
5.27117e-07
8.19036e-07
8.48441e-07
5.07673e-07
5.33437e-07
5.26939e-07
8.28145e-07
8.36264e-07
8.68096e-07
5.33457e-07
5.37378e-07
5.57984e-07
5.58101e-07
8.45924e-07
8.65105e-07
5.33286e-07
5.40774e-07
5.57803e-07
5.59541e-07
5.33958e-07
5.57891e-07
5.5641e-07
8.55336e-07
8.68241e-07
5.33808e-07
5.59368e-07
5.56255e-07
8.61934e-07
8.78103e-07
9.05006e-07
5.66325e-07
5.64867e-07
5.90447e-07
5.87712e-07
8.72467e-07
8.98047e-07
5.66142e-07
5.65928e-07
5.90299e-07
5.86573e-07
5.64209e-07
5.87423e-07
5.87833e-07
8.74202e-07
8.92849e-07
5.64051e-07
5.86387e-07
5.87699e-07
8.9862e-07
9.12461e-07
9.30786e-07
5.97794e-07
5.95657e-07
6.18991e-07
3.35626e-06
9.07413e-07
5.38022e-06
5.97629e-07
5.93649e-07
6.18771e-07
6.16184e-07
5.95542e-07
6.1922e-07
9.00392e-07
9.24372e-07
5.95387e-07
6.15975e-07
3.35913e-06
6.24091e-07
9.33319e-07
1.82923e-05
3.9941e-06
8.9464e-06
3.982e-06
8.97397e-06
1.82622e-05
1.82717e-05
3.99377e-06
8.94764e-06
3.98217e-06
8.97623e-06
7.76966e-08
1.47705e-07
1.47567e-07
1.55968e-07
1.51465e-07
1.51897e-07
1.51029e-07
1.77274e-06
1.15169e-06
2.33437e-07
4.30383e-07
9.07696e-07
3.2394e-06
2.37139e-07
1.82694e-05
1.82812e-05
1.77248e-06
2.33551e-07
1.60329e-06
4.3166e-07
2.3729e-07
3.23762e-06
9.082e-07
5.31617e-06
5.31804e-06
7.02843e-07
5.31187e-06
5.3135e-06
4.00252e-06
9.0184e-06
4.00475e-06
9.0162e-06
1.82839e-05
1.82788e-05
4.00342e-06
9.01958e-06
4.00494e-06
9.01727e-06
1.5273e-07
1.53171e-07
1.52599e-07
1.58501e-07
1.57113e-07
1.57306e-07
1.58159e-07
1.80563e-06
3.2484e-06
2.48242e-07
4.52789e-07
1.79483e-06
3.25262e-06
2.51994e-07
1.82914e-05
1.82876e-05
1.80606e-06
2.48489e-07
3.25193e-06
4.5502e-07
1.79504e-06
2.52237e-07
3.25497e-06
5.31868e-06
5.32013e-06
7.46692e-07
5.32924e-06
5.33076e-06
4.00215e-06
8.99292e-06
4.00037e-06
8.98955e-06
1.8262e-05
1.82629e-05
4.00221e-06
8.99439e-06
4.00066e-06
8.99103e-06
1.58891e-07
1.58987e-07
1.5999e-07
1.63578e-07
1.64896e-07
1.64855e-07
1.65255e-07
1.83647e-06
3.26542e-06
2.63897e-07
4.83621e-07
1.8258e-06
3.275e-06
2.68161e-07
1.8268e-05
1.8262e-05
1.83651e-06
2.64001e-07
3.26494e-06
4.83234e-07
1.82601e-06
2.68215e-07
3.27379e-06
5.34221e-06
5.34387e-06
7.94491e-07
5.34289e-06
5.34436e-06
4.01127e-06
8.99512e-06
4.00898e-06
9.00409e-06
1.82695e-05
1.82828e-05
4.01076e-06
8.99627e-06
4.0083e-06
9.00534e-06
1.66894e-07
1.66969e-07
1.66922e-07
1.71692e-07
1.72814e-07
1.73451e-07
1.72327e-07
1.86532e-06
3.29237e-06
2.81528e-07
5.15865e-07
1.85553e-06
3.29617e-06
2.86023e-07
1.82725e-05
1.82863e-05
1.86476e-06
2.81515e-07
3.28825e-06
5.174e-07
1.85512e-06
2.86068e-07
3.29591e-06
5.34416e-06
5.34525e-06
8.15873e-07
5.34497e-06
5.3461e-06
4.01706e-06
9.00994e-06
4.01516e-06
9.01344e-06
1.82792e-05
1.8275e-05
4.01753e-06
9.01089e-06
4.01557e-06
9.01449e-06
1.74875e-07
1.75551e-07
1.74225e-07
1.80884e-07
1.81127e-07
1.81523e-07
1.80703e-07
1.89134e-06
3.30976e-06
2.99635e-07
5.44304e-07
1.88169e-06
3.3156e-06
3.04348e-07
1.82844e-05
1.82899e-05
1.89179e-06
3.00078e-07
3.31367e-06
5.47118e-07
1.88234e-06
3.04778e-07
3.31735e-06
5.34768e-06
5.34939e-06
8.43439e-07
5.3504e-06
5.35225e-06
4.0218e-06
9.01912e-06
4.02053e-06
9.02397e-06
1.82763e-05
1.82773e-05
4.02207e-06
9.02083e-06
4.02039e-06
9.02506e-06
1.83274e-07
1.83573e-07
1.82943e-07
1.90859e-07
1.90289e-07
1.90156e-07
1.90336e-07
1.91504e-06
3.32355e-06
3.18604e-07
5.71877e-07
1.90661e-06
3.32798e-06
3.23477e-07
1.82838e-05
1.82771e-05
1.91518e-06
3.18825e-07
3.32526e-06
5.72459e-07
1.90656e-06
3.23619e-07
3.33078e-06
5.35863e-06
5.36025e-06
8.80847e-07
5.36214e-06
5.36392e-06
4.02793e-06
9.03136e-06
4.02594e-06
9.03525e-06
1.82733e-05
1.82843e-05
4.02793e-06
9.03243e-06
4.02629e-06
9.03684e-06
1.12991e-07
1.93332e-07
1.92841e-07
1.92497e-07
1.92776e-07
2.00825e-07
2.00085e-07
1.93827e-06
3.3424e-06
3.38543e-07
6.03501e-07
1.92957e-06
3.34787e-06
3.43812e-07
1.82731e-05
1.82782e-05
1.93806e-06
3.38481e-07
3.34112e-06
6.00702e-07
1.92981e-06
3.43578e-07
3.34507e-06
5.36934e-06
5.37117e-06
9.15592e-07
5.37245e-06
5.37437e-06
1.13943e-07
2.0341e-07
2.02782e-07
1.82799e-05
3.35653e-06
1.82196e-05
1.82214e-05
5.33188e-06
5.33346e-06
8.94728e-06
3.97863e-06
3.20933e-06
2.29136e-07
1.74482e-06
8.97711e-06
3.97639e-06
8.97773e-06
4.08523e-07
2.29421e-07
1.58726e-06
1.74543e-06
1.57647e-06
1.82267e-05
1.83074e-05
1.82287e-05
1.83099e-05
5.35026e-06
5.3519e-06
8.09156e-07
5.38477e-06
5.38637e-06
1.83906e-05
1.83323e-05
1.83932e-05
1.83348e-05
8.20096e-07
5.36982e-06
5.37144e-06
5.38731e-06
5.38892e-06
3.99257e-06
8.97222e-06
3.98003e-06
8.97613e-06
1.77207e-06
1.63612e-06
2.33652e-07
4.53975e-07
9.02037e-07
3.25709e-06
2.38382e-07
1.7711e-06
1.60045e-06
2.33021e-07
4.30167e-07
9.04496e-07
3.23865e-06
2.36882e-07
3.99795e-06
9.01577e-06
8.98623e-06
4.00403e-06
3.99676e-06
8.99082e-06
8.97811e-06
4.00374e-06
1.78026e-06
4.63687e-07
3.27131e-06
2.47331e-07
3.26555e-06
2.42983e-07
1.79593e-06
1.77903e-06
4.36312e-07
3.24941e-06
2.44826e-07
3.24389e-06
2.40863e-07
1.79472e-06
5.31807e-06
5.32067e-06
7.1343e-07
5.32376e-06
5.32405e-06
1.82709e-05
1.82805e-05
1.82856e-05
1.82749e-05
7.19806e-07
5.32581e-06
5.32162e-06
5.32526e-06
5.32434e-06
1.82837e-05
1.82818e-05
1.77195e-06
3.22477e-06
2.33675e-07
4.53836e-07
1.75278e-06
3.25758e-06
2.38376e-07
3.99213e-06
8.97615e-06
3.98055e-06
8.97734e-06
1.7709e-06
2.33123e-07
1.60129e-06
4.31448e-07
1.75282e-06
2.37012e-07
3.23713e-06
3.99738e-06
9.01708e-06
8.98833e-06
4.0041e-06
1.78e-06
4.63548e-07
3.27182e-06
2.47323e-07
3.26604e-06
2.43013e-07
1.79586e-06
3.99629e-06
8.99165e-06
8.97878e-06
4.0037e-06
1.77864e-06
4.38238e-07
2.45024e-07
3.25168e-06
2.4103e-07
3.24336e-06
1.79468e-06
3.99284e-06
8.97395e-06
3.98896e-06
8.98467e-06
1.77249e-06
2.33592e-07
1.59732e-06
4.27433e-07
9.09338e-07
2.37051e-07
3.23072e-06
3.99271e-06
8.98723e-06
3.98874e-06
8.98707e-06
1.77843e-06
4.36252e-07
3.24648e-06
2.44552e-07
3.24312e-06
2.40852e-07
1.79001e-06
3.99415e-06
8.9933e-06
8.98698e-06
3.99599e-06
1.77802e-06
4.32277e-07
2.4425e-07
3.23741e-06
2.40585e-07
3.23212e-06
1.78961e-06
3.99411e-06
8.98604e-06
8.9862e-06
3.99615e-06
5.31787e-06
5.32043e-06
7.1919e-07
5.32666e-06
5.32656e-06
1.82771e-05
1.82874e-05
1.82926e-05
1.82826e-05
7.26548e-07
5.33152e-06
5.32788e-06
5.32953e-06
5.32832e-06
1.8289e-05
1.8287e-05
1.77231e-06
2.33611e-07
1.59801e-06
4.27318e-07
2.37076e-07
3.23145e-06
9.09589e-07
3.9925e-06
8.97747e-06
8.98491e-06
3.98946e-06
3.99242e-06
8.98788e-06
8.98836e-06
3.98912e-06
1.77824e-06
4.38178e-07
2.44762e-07
3.24894e-06
2.41033e-07
3.24247e-06
1.78985e-06
1.77793e-06
4.32165e-07
2.44268e-07
3.23777e-06
2.40614e-07
3.23262e-06
1.7894e-06
3.99381e-06
8.9932e-06
8.98633e-06
3.99584e-06
3.99381e-06
8.98696e-06
8.98775e-06
3.99605e-06
1.82935e-05
1.82855e-05
1.82951e-05
1.82879e-05
7.07558e-07
5.31468e-06
5.31616e-06
5.31161e-06
5.3132e-06
1.82712e-05
1.82793e-05
1.82739e-05
1.82819e-05
1.83915e-05
1.83656e-05
1.83941e-05
1.83682e-05
5.36132e-06
5.36305e-06
7.63658e-07
5.33697e-06
5.33887e-06
1.82794e-05
1.83383e-05
1.82819e-05
1.83408e-05
7.62015e-07
5.3214e-06
5.32324e-06
5.33088e-06
5.33284e-06
4.00332e-06
8.99281e-06
4.00474e-06
8.99765e-06
1.80963e-06
3.27057e-06
2.51187e-07
4.69938e-07
1.80134e-06
3.26205e-06
2.54658e-07
1.80946e-06
3.25175e-06
2.48715e-07
4.53369e-07
1.80023e-06
3.25552e-06
2.5252e-07
4.00211e-06
8.99701e-06
9.0093e-06
4.00008e-06
4.00297e-06
8.99596e-06
8.99735e-06
4.00085e-06
1.81327e-06
4.69612e-07
3.261e-06
2.60973e-07
3.26155e-06
2.57811e-07
1.82057e-06
1.81331e-06
4.599e-07
3.26237e-06
2.60106e-07
3.25813e-06
2.56302e-07
1.82102e-06
5.32582e-06
5.32137e-06
7.33954e-07
5.32514e-06
5.31992e-06
1.82795e-05
1.82706e-05
1.82653e-05
1.82726e-05
7.41826e-07
5.32744e-06