/*--------------------------------*- C++ -*----------------------------------*\
| =========                 |                                                 |
| \\      /  F ield         | OpenFOAM: The Open Source CFD Toolbox           |
|  \\    /   O peration     | Version:  v2006                                 |
|   \\  /    A nd           | Website:  www.openfoam.com                      |
|    \\/     M anipulation  |                                                 |
\*---------------------------------------------------------------------------*/
FoamFile
{
    version     2.0;
    format      ascii;
    class       volScalarField;
    location    "500";
    object      k;
}
// * * * * * * * * * * * * * * * * * * * * * * * * * * * * * * * * * * * * * //

dimensions      [0 2 -2 0 0 0 0];


internalField   nonuniform List<scalar> 
14258
(
5.96456e-05
7.04192e-05
5.9737e-05
7.04283e-05
6.91381e-05
6.91433e-05
2.63182e-05
6.26504e-05
6.27011e-05
4.09749e-05
1.98819e-05
5.24749e-05
1.5547e-05
4.10346e-05
1.98849e-05
5.25055e-05
1.55513e-05
5.97674e-05
4.10345e-05
1.55369e-05
6.99215e-05
5.96056e-05
6.95393e-05
6.39581e-05
6.95406e-05
6.39559e-05
6.99153e-05
7.02497e-05
7.54312e-05
7.03895e-05
7.54134e-05
7.02377e-05
6.99293e-05
5.96851e-05
6.4068e-05
6.9541e-05
6.40591e-05
6.9543e-05
6.99223e-05
7.02627e-05
7.55304e-05
7.03986e-05
7.54991e-05
7.0249e-05
6.91559e-05
6.91614e-05
9.38738e-05
7.26494e-05
7.26468e-05
7.20665e-05
7.20642e-05
9.78822e-05
6.60738e-05
6.96806e-05
6.26122e-05
5.06251e-05
6.96851e-05
6.76485e-05
5.00798e-05
6.61829e-05
6.97052e-05
6.26568e-05
5.06755e-05
6.97096e-05
6.77697e-05
5.01209e-05
6.99174e-05
5.96919e-05
6.95359e-05
6.41698e-05
6.95368e-05
6.40884e-05
6.99159e-05
7.03526e-05
7.56633e-05
7.56137e-05
7.03524e-05
5.06859e-05
2.60572e-05
3.75287e-05
3.75511e-05
5.16763e-05
3.70479e-05
3.70642e-05
2.83603e-05
4.08609e-05
4.42554e-05
2.60767e-05
4.4187e-05
2.60043e-05
2.84273e-05
3.2386e-05
4.89339e-05
5.24668e-05
3.91748e-05
4.8909e-05
3.904e-05
3.24698e-05
2.83665e-05
4.08995e-05
4.4312e-05
2.60939e-05
4.42225e-05
2.60127e-05
2.84404e-05
3.23905e-05
4.89638e-05
5.24953e-05
3.91986e-05
4.89311e-05
3.90579e-05
3.24804e-05
2.83624e-05
4.08871e-05
2.60907e-05
4.43481e-05
2.60111e-05
4.4219e-05
2.843e-05
3.23075e-05
4.90781e-05
4.89991e-05
3.23774e-05
2.78465e-05
2.0862e-05
3.44471e-05
2.06568e-05
6.24728e-05
2.75831e-05
3.42145e-05
6.9184e-05
2.78575e-05
2.08577e-05
5.71457e-05
3.44141e-05
6.51849e-05
6.91906e-05
7.07327e-05
2.78596e-05
2.08665e-05
4.82635e-05
6.51179e-05
6.51564e-05
6.91925e-05
4.81811e-05
5.70964e-05
6.2474e-05
7.07291e-05
4.81838e-05
2.75896e-05
5.70767e-05
7.0716e-05
5.70885e-05
7.07174e-05
6.5086e-05
6.51014e-05
6.91859e-05
2.08671e-05
5.71207e-05
4.82618e-05
6.25101e-05
7.0721e-05
6.25119e-05
6.91858e-05
6.76077e-05
6.52121e-05
7.04074e-05
5.53834e-05
6.98415e-05
6.95325e-05
6.63116e-05
6.24218e-05
6.98453e-05
6.95288e-05
6.62656e-05
6.91759e-05
6.91974e-05
9.11935e-05
7.18128e-05
7.18157e-05
6.75797e-05
7.03886e-05
5.52576e-05
6.52135e-05
5.53813e-05
7.03999e-05
6.74786e-05
6.9196e-05
7.003e-05
7.64308e-05
7.0741e-05
7.64493e-05
7.00246e-05
6.73525e-05
5.51404e-05
7.03644e-05
6.51575e-05
6.7283e-05
5.52387e-05
7.03852e-05
6.63174e-05
6.95333e-05
6.98467e-05
7.64232e-05
7.00325e-05
7.00264e-05
7.63942e-05
7.07057e-05
7.00329e-05
7.63686e-05
7.00286e-05
7.07082e-05
7.64102e-05
7.63938e-05
7.00337e-05
6.71574e-05
5.50868e-05
6.50495e-05
7.03461e-05
6.72312e-05
5.49918e-05
7.03221e-05
6.71915e-05
5.50915e-05
6.50689e-05
7.03552e-05
6.72559e-05
5.49929e-05
7.03336e-05
9.08307e-05
7.17792e-05
7.17735e-05
9.08417e-05
7.17723e-05
7.17664e-05
6.91784e-05
6.98463e-05
6.25526e-05
6.63369e-05
6.95319e-05
6.63691e-05
6.98427e-05
6.95352e-05
7.00315e-05
7.64124e-05
7.07305e-05
7.00263e-05
7.64243e-05
6.98483e-05
6.2556e-05
6.63458e-05
6.95324e-05
6.9845e-05
6.63816e-05
6.95357e-05
6.91939e-05
5.51301e-05
3.44746e-05
4.44534e-05
4.44477e-05
4.45078e-05
5.50513e-05
4.45052e-05
5.48787e-05
4.42919e-05
3.41813e-05
4.42839e-05
5.49687e-05
4.42309e-05
4.42231e-05
4.16501e-05
4.70146e-05
5.46552e-05
5.72207e-05
4.70902e-05
5.47495e-05
4.15933e-05
5.53465e-05
4.45054e-05
4.45099e-05
3.44742e-05
4.45998e-05
5.52162e-05
4.45952e-05
3.84536e-05
4.8372e-05
3.61453e-05
5.09746e-05
3.8417e-05
3.61984e-05
5.10686e-05
3.59242e-05
5.08945e-05
3.8176e-05
4.68196e-05
5.4597e-05
4.13834e-05
3.81618e-05
3.5931e-05
5.09007e-05
4.8075e-05
3.82003e-05
3.58794e-05
5.07993e-05
4.13826e-05
5.45929e-05
4.68529e-05
5.7009e-05
4.14274e-05
5.45077e-05
4.67956e-05
4.13829e-05
4.68532e-05
5.70191e-05
5.46041e-05
5.45168e-05
4.67955e-05
4.14287e-05
4.16587e-05
4.69928e-05
5.46496e-05
5.71856e-05
4.70495e-05
4.16143e-05
5.47311e-05
3.84594e-05
4.83723e-05
3.61454e-05
5.09706e-05
3.61991e-05
3.84203e-05
5.10718e-05
6.24964e-05
4.82427e-05
6.24978e-05
4.82441e-05
5.71104e-05
7.07201e-05
6.51069e-05
6.91844e-05
6.98489e-05
6.95331e-05
6.63307e-05
6.25492e-05
6.9537e-05
6.63762e-05
6.98451e-05
6.98497e-05
6.63369e-05
6.95338e-05
6.25508e-05
6.63819e-05
6.95377e-05
6.98461e-05
7.00327e-05
7.64019e-05
7.07305e-05
7.64244e-05
7.00266e-05
6.73289e-05
5.51367e-05
6.51538e-05
7.03566e-05
5.5229e-05
6.72657e-05
7.03793e-05
9.08281e-05
7.17745e-05
7.17694e-05
9.08363e-05
7.17794e-05
7.17747e-05
6.91933e-05
3.84398e-05
3.61287e-05
5.09553e-05
4.83585e-05
5.10675e-05
3.61831e-05
3.8396e-05
3.84514e-05
3.61346e-05
5.09563e-05
4.83573e-05
3.61875e-05
5.10597e-05
3.84131e-05
4.16537e-05
5.46389e-05
4.69905e-05
5.71784e-05
5.47229e-05
4.70451e-05
4.16102e-05
6.90994e-05
6.91037e-05
2.69454e-05
6.27449e-05
6.2802e-05
5.96622e-05
7.04302e-05
5.97125e-05
7.04015e-05
4.10746e-05
2.03287e-05
5.25224e-05
1.56527e-05
4.10643e-05
1.94291e-05
5.24143e-05
1.55618e-05
6.92304e-05
2.44252e-05
6.27772e-05
6.26516e-05
6.92071e-05
5.9756e-05
7.04396e-05
4.11474e-05
2.03366e-05
5.25578e-05
1.56621e-05
5.9798e-05
7.03766e-05
4.1156e-05
1.99441e-05
1.56302e-05
5.28054e-05
1.94497e-05
5.23881e-05
7.04032e-05
6.91807e-05
2.5732e-05
6.29126e-05
6.28168e-05
6.91616e-05
4.12453e-05
1.99582e-05
1.56446e-05
5.27916e-05
5.98825e-05
7.03813e-05
6.90946e-05
6.90982e-05
0.000105757
7.31507e-05
7.31467e-05
0.000102565
7.33745e-05
7.33695e-05
7.08405e-05
6.29965e-05
6.96738e-05
5.13052e-05
6.94637e-05
6.96405e-05
5.19789e-05
7.09505e-05
6.30592e-05
6.96979e-05
5.13617e-05
6.95802e-05
6.96632e-05
5.20344e-05
6.98879e-05
5.96955e-05
6.95301e-05
6.39596e-05
6.98961e-05
6.95251e-05
6.39764e-05
7.02091e-05
7.04432e-05
7.54456e-05
7.02072e-05
7.54798e-05
6.99145e-05
5.97683e-05
6.95326e-05
6.41434e-05
6.9917e-05
6.95291e-05
6.42267e-05
7.03434e-05
7.04259e-05
7.57108e-05
7.03459e-05
7.58198e-05
6.92452e-05
9.34636e-05
7.2571e-05
7.25596e-05
9.17699e-05
7.26917e-05
7.26771e-05
6.58784e-05
6.311e-05
7.01163e-05
4.91142e-05
5.00091e-05
6.47553e-05
7.01794e-05
6.5729e-05
6.29744e-05
7.0073e-05
4.90976e-05
6.46327e-05
7.01328e-05
4.99601e-05
6.92259e-05
6.98915e-05
5.9792e-05
6.40695e-05
6.95301e-05
6.9901e-05
6.40822e-05
6.95241e-05
7.02126e-05
7.04507e-05
7.55457e-05
7.0214e-05
7.55807e-05
6.99043e-05
5.98565e-05
6.95278e-05
6.42045e-05
6.99064e-05
6.95241e-05
6.42789e-05
7.0337e-05
7.03885e-05
7.56881e-05
7.03364e-05
7.57529e-05
7.02988e-05
7.04203e-05
7.57107e-05
7.03015e-05
7.57317e-05
6.91846e-05
9.05849e-05
7.19004e-05
7.18841e-05
9.04478e-05
7.1912e-05
7.18914e-05
6.40675e-05
6.30577e-05
6.96083e-05
4.92403e-05
4.93649e-05
6.39973e-05
6.96268e-05
6.39326e-05
6.95727e-05
4.92253e-05
6.29005e-05
6.38801e-05
6.95805e-05
4.93297e-05
6.91667e-05
6.42385e-05
6.95206e-05
6.98998e-05
7.56884e-05
7.02993e-05
1.37025e-05
1.25866e-05
1.25872e-05
1.23033e-05
1.35449e-05
1.25672e-05
1.2568e-05
1.23009e-05
1.36335e-05
1.25824e-05
1.25829e-05
1.23032e-05
1.36443e-05
1.25815e-05
1.25823e-05
1.23026e-05
5.36636e-05
2.71546e-05
3.81798e-05
3.82057e-05
5.28137e-05
3.86547e-05
3.86826e-05
2.87456e-05
4.11717e-05
4.4319e-05
2.63056e-05
2.86808e-05
4.44139e-05
2.63774e-05
3.28249e-05
5.26826e-05
4.90003e-05
3.94605e-05
3.97436e-05
3.27322e-05
4.91348e-05
2.85715e-05
4.11778e-05
4.42943e-05
2.62654e-05
2.85018e-05
4.44306e-05
2.6337e-05
3.23149e-05
5.27147e-05
4.89126e-05
3.83344e-05
3.21823e-05
4.90803e-05
3.87771e-05
5.01877e-05
2.48389e-05
3.52454e-05
3.52621e-05
3.62147e-05
4.89858e-05
3.62137e-05
2.87783e-05
4.12547e-05
4.4391e-05
2.63393e-05
2.87088e-05
4.44939e-05
2.64164e-05
3.28523e-05
5.27303e-05
4.90428e-05
3.94972e-05
3.97847e-05
3.27553e-05
4.91995e-05
2.87545e-05
4.12791e-05
2.63332e-05
4.44531e-05
2.86886e-05
2.641e-05
4.45872e-05
3.26877e-05
5.29723e-05
4.91936e-05
3.89661e-05
3.26191e-05
4.93208e-05
3.90547e-05
3.23613e-05
5.26785e-05
4.89871e-05
3.83487e-05
3.22324e-05
3.87833e-05
4.91437e-05
4.89051e-05
2.57737e-05
3.6149e-05
3.61596e-05
3.62157e-05
4.88165e-05
3.6222e-05
2.63985e-05
4.45378e-05
2.87492e-05
4.92752e-05
3.8986e-05
3.26723e-05
6.90233e-05
6.9022e-05
2.65633e-05
6.33738e-05
6.33557e-05
6.05431e-05
7.02857e-05
3.02105e-05
2.07438e-05
5.40849e-05
1.61182e-05
6.05227e-05
2.76787e-05
1.60766e-05
6.90137e-05
6.90127e-05
6.90753e-05
6.90966e-05
6.90904e-05
6.9179e-05
6.91734e-05
7.26201e-05
5.37665e-05
6.81666e-05
4.7721e-05
6.29328e-05
6.81722e-05
5.64989e-05
4.62557e-05
5.37981e-05
6.81712e-05
4.77208e-05
6.2913e-05
6.81772e-05
4.62566e-05
5.65292e-05
6.98653e-05
6.47564e-05
6.95061e-05
6.05563e-05
6.47596e-05
6.95075e-05
6.98634e-05
7.02877e-05
7.57098e-05
7.02594e-05
7.56609e-05
7.02728e-05
6.98819e-05
6.95118e-05
6.05327e-05
6.47842e-05
6.9512e-05
6.47786e-05
6.98841e-05
1.37411e-05
4.14464e-05
4.14683e-05
5.35258e-05
6.00031e-05
4.15494e-05
2.00433e-05
1.57002e-05
5.99425e-05
2.60168e-05
1.57447e-05
1.97983e-05
2.46549e-05
6.91648e-05
2.61999e-05
1.24818e-05
2.06017e-05
4.164e-05
4.1656e-05
5.38449e-05
6.01198e-05
4.17101e-05
5.99842e-05
1.25312e-05
1.2541e-05
1.25475e-05
6.91673e-05
2.03971e-05
5.33216e-05
6.90799e-05
6.90811e-05
6.35279e-05
6.35601e-05
2.76252e-05
5.98837e-05
7.04474e-05
5.9966e-05
7.04401e-05
5.3494e-05
2.06662e-05
1.57473e-05
5.33335e-05
1.56759e-05
2.00298e-05
6.9244e-05
6.35839e-05
2.63361e-05
6.34474e-05
6.92303e-05
7.04508e-05
5.99237e-05
4.1514e-05
2.06743e-05
1.57593e-05
7.03964e-05
2.01703e-05
1.57305e-05
5.32761e-05
1.56899e-05
5.32675e-05
4.15259e-05
7.04257e-05
5.99338e-05
1.9801e-05
4.15293e-05
5.27572e-05
7.03604e-05
6.91785e-05
6.32536e-05
6.31205e-05
6.91684e-05
2.01808e-05
5.32237e-05
1.57113e-05
7.03856e-05
6.24898e-05
6.32947e-05
6.31691e-05
6.91624e-05
7.03828e-05
6.0055e-05
7.04403e-05
6.05487e-05
7.03287e-05
6.92315e-05
6.91947e-05
7.04391e-05
6.0056e-05
6.05014e-05
7.03229e-05
1.25033e-05
1.24801e-05
1.58271e-05
5.35096e-05
4.16474e-05
2.10284e-05
5.38101e-05
6.9067e-05
6.90443e-05
6.90671e-05
6.90436e-05
6.36514e-05
6.36703e-05
2.77469e-05
2.71173e-05
6.3608e-05
6.36077e-05
6.01199e-05
7.04378e-05
6.05464e-05
7.04097e-05
5.38268e-05
2.08105e-05
1.58521e-05
4.233e-05
2.08113e-05
5.41244e-05
1.59815e-05
5.35896e-05
1.58181e-05
2.06001e-05
4.23171e-05
2.10452e-05
5.39007e-05
1.59819e-05
6.05903e-05
7.02896e-05
6.0577e-05
4.25402e-05
2.07418e-05
5.40937e-05
1.61177e-05
4.2517e-05
1.61448e-05
6.37058e-05
2.71777e-05
6.35692e-05
2.79516e-05
6.37705e-05
6.36265e-05
6.92223e-05
6.91955e-05
4.16863e-05
2.08155e-05
1.58635e-05
2.99175e-05
2.08133e-05
5.41177e-05
1.59892e-05
7.03956e-05
7.03944e-05
6.04899e-05
2.03953e-05
1.584e-05
5.33829e-05
3.36889e-05
2.05787e-05
2.74079e-05
1.59581e-05
7.04206e-05
5.99778e-05
7.03857e-05
4.16349e-05
0.000106986
7.29629e-05
7.29549e-05
7.33387e-05
7.33328e-05
0.000106859
9.44786e-05
7.26676e-05
7.26483e-05
7.27074e-05
7.26917e-05
9.48348e-05
6.98978e-05
6.95149e-05
6.44534e-05
5.98993e-05
6.95147e-05
6.433e-05
6.98997e-05
6.98986e-05
6.9523e-05
6.43104e-05
5.9877e-05
6.95205e-05
6.42355e-05
6.99022e-05
6.91427e-05
9.67807e-05
7.18731e-05
7.18629e-05
0.00010464
7.06616e-05
7.06525e-05
9.40941e-05
7.247e-05
7.24482e-05
9.47791e-05
7.21871e-05
7.21755e-05
6.98988e-05
6.95129e-05
6.45529e-05
6.02822e-05
6.98971e-05
6.95152e-05
6.46826e-05
6.99056e-05
6.95225e-05
6.43521e-05
6.00794e-05
6.99016e-05
6.95261e-05
6.44459e-05
6.91643e-05
6.90806e-05
6.90824e-05
7.13702e-05
6.93256e-05
5.24882e-05
6.32932e-05
6.95254e-05
5.23812e-05
7.13511e-05
7.1472e-05
6.93416e-05
5.25352e-05
6.33372e-05
6.95439e-05
5.24323e-05
7.14503e-05
6.98728e-05
6.95129e-05
6.41738e-05
5.97468e-05
6.95132e-05
6.40229e-05
6.98735e-05
7.02046e-05
7.56408e-05
7.04457e-05
7.55202e-05
7.02208e-05
6.99061e-05
6.95201e-05
6.44504e-05
5.98248e-05
6.95199e-05
6.4293e-05
6.99065e-05
7.0324e-05
7.59574e-05
7.04339e-05
7.58732e-05
7.03214e-05
6.92424e-05
6.66127e-05
7.01854e-05
5.12412e-05
6.33728e-05
5.07188e-05
7.0195e-05
6.69732e-05
6.64907e-05
7.0139e-05
5.11919e-05
6.32389e-05
7.01483e-05
5.06788e-05
6.68584e-05
6.92256e-05
7.02041e-05
7.56592e-05
7.04515e-05
7.55984e-05
7.02152e-05
6.98715e-05
6.42126e-05
6.95086e-05
5.98284e-05
6.4113e-05
6.95101e-05
6.98696e-05
7.0322e-05
7.58606e-05
7.03912e-05
7.57858e-05
7.03217e-05
7.02821e-05
7.57345e-05
7.04237e-05
7.57289e-05
7.02837e-05
6.98956e-05
6.42861e-05
6.95225e-05
5.98677e-05
6.4227e-05
6.95216e-05
6.98945e-05
7.03295e-05
7.57097e-05
7.03407e-05
7.56394e-05
7.03341e-05
6.91783e-05
6.40724e-05
4.96056e-05
6.31668e-05
6.96359e-05
4.94809e-05
6.96324e-05
6.40583e-05
6.39316e-05
4.95439e-05
6.30195e-05
6.95921e-05
6.95866e-05
4.94326e-05
6.39126e-05
9.05974e-05
7.18557e-05
7.18336e-05
7.18975e-05
7.1876e-05
9.0522e-05
6.91637e-05
6.9898e-05
5.99217e-05
6.42588e-05
6.95207e-05
7.02871e-05
7.03847e-05
7.56883e-05
7.5684e-05
7.02901e-05
7.03e-05
7.03858e-05
7.56928e-05
6.01578e-05
4.73123e-05
6.24781e-05
6.96175e-05
6.06397e-05
4.72709e-05
6.94663e-05
6.38017e-05
4.96627e-05
6.33106e-05
6.96324e-05
6.96225e-05
6.39938e-05
4.96701e-05
6.36336e-05
4.95869e-05
6.95893e-05
6.31882e-05
4.9588e-05
6.38404e-05
6.95823e-05
8.912e-05
7.17328e-05
7.17171e-05
7.16363e-05
9.01115e-05
7.16289e-05
6.91634e-05
7.0285e-05
7.56837e-05
7.03827e-05
7.56945e-05
7.02797e-05
6.98741e-05
6.95108e-05
6.43574e-05
6.02717e-05
6.98713e-05
6.95128e-05
6.45745e-05
7.02531e-05
7.57371e-05
7.04151e-05
7.02272e-05
7.58073e-05
6.9871e-05
6.0425e-05
6.95115e-05
6.47919e-05
6.95108e-05
6.46977e-05
6.98718e-05
7.02576e-05
7.03645e-05
7.58035e-05
7.58094e-05
7.0281e-05
6.9225e-05
6.92033e-05
7.02394e-05
7.57163e-05
7.04069e-05
7.02179e-05
7.57634e-05
6.98678e-05
6.43509e-05
6.95055e-05
6.02469e-05
6.98654e-05
6.45442e-05
6.95077e-05
6.98652e-05
6.0383e-05
6.4741e-05
6.95081e-05
6.46525e-05
6.95064e-05
6.98665e-05
7.02447e-05
7.03576e-05
7.5749e-05
7.57599e-05
7.027e-05
6.90636e-05
6.9049e-05
6.90635e-05
6.90486e-05
6.82173e-05
6.90347e-05
5.24292e-05
6.36852e-05
7.07293e-05
6.87119e-05
5.20786e-05
6.82715e-05
6.9047e-05
5.24741e-05
6.36989e-05
7.08187e-05
6.8721e-05
5.21137e-05
8.69321e-05
6.92454e-05
6.92381e-05
6.97324e-05
6.97242e-05
7.86881e-05
6.39178e-05
6.36742e-05
6.82462e-05
4.93113e-05
6.84257e-05
5.09255e-05
5.99936e-05
6.39885e-05
6.36843e-05
6.82496e-05
4.92993e-05
6.84347e-05
5.0951e-05
6.00127e-05
6.99027e-05
6.9518e-05
6.45747e-05
6.03129e-05
6.99027e-05
6.95197e-05
6.47257e-05
7.02976e-05
7.59742e-05
7.04337e-05
7.0301e-05
7.59946e-05
6.98957e-05
6.04428e-05
6.95173e-05
6.48458e-05
6.95173e-05
6.47969e-05
6.98929e-05
7.02775e-05
7.04178e-05
7.59858e-05
7.5988e-05
7.02739e-05
6.98693e-05
6.95085e-05
6.48088e-05
6.06012e-05
6.9868e-05
6.95093e-05
6.48111e-05
7.02936e-05
7.57661e-05
7.02615e-05
7.02816e-05
7.57074e-05
6.9881e-05
6.95125e-05
6.4846e-05
6.05833e-05
6.98831e-05
6.9512e-05
6.48383e-05
6.6936e-05
7.01161e-05
5.15099e-05
6.37699e-05
6.70275e-05
7.00068e-05
5.15845e-05
6.68299e-05
7.00707e-05
5.14451e-05
6.36278e-05
6.69145e-05
5.15086e-05
6.99681e-05
9.19696e-05
7.16193e-05
7.16259e-05
7.18506e-05
7.1848e-05
8.98297e-05
6.64728e-05
6.37812e-05
6.97748e-05
5.1439e-05
6.98808e-05
5.15682e-05
6.53698e-05
6.63484e-05
6.36358e-05
6.97491e-05
5.13368e-05
5.14763e-05
6.98492e-05
6.52509e-05
6.9219e-05
6.92017e-05
7.02995e-05
7.58849e-05
7.03966e-05
7.03031e-05
7.59285e-05
7.0277e-05
7.03943e-05
7.59419e-05
7.59322e-05
7.02724e-05
6.98944e-05
6.03926e-05
6.4784e-05
6.95148e-05
6.95136e-05
6.47403e-05
6.98929e-05
7.02764e-05
7.57252e-05
7.04128e-05
7.02721e-05
7.57263e-05
6.98905e-05
6.43234e-05
6.95206e-05
6.0078e-05
6.98892e-05
6.44118e-05
6.95232e-05
7.02668e-05
7.03932e-05
7.57165e-05
7.57156e-05
7.02724e-05
3.55834e-05
4.48248e-05
3.55852e-05
2.5603e-05
3.41919e-05
4.24892e-05
3.41939e-05
2.77158e-05
4.251e-05
4.58784e-05
3.02657e-05
4.2673e-05
4.59849e-05
2.78043e-05
3.41709e-05
4.01318e-05
5.06126e-05
3.41315e-05
5.39621e-05
3.95842e-05
5.05915e-05
4.24577e-05
3.00664e-05
4.56768e-05
3.01319e-05
4.26204e-05
2.77664e-05
4.58067e-05
1.25482e-05
1.25498e-05
1.22366e-05
2.90052e-05
4.47569e-05
2.66877e-05
4.12922e-05
4.45558e-05
2.66083e-05
2.9086e-05
2.88508e-05
4.47864e-05
2.66521e-05
4.13063e-05
4.45847e-05
2.657e-05
2.89466e-05
3.31637e-05
4.97542e-05
4.04717e-05
5.31188e-05
4.01918e-05
4.94559e-05
3.32849e-05
2.90136e-05
2.67265e-05
4.48837e-05
4.13997e-05
2.66484e-05
4.47156e-05
2.90838e-05
4.89641e-05
3.64326e-05
2.59989e-05
3.64246e-05
3.63895e-05
3.63869e-05
4.89671e-05
4.55075e-05
3.41826e-05
2.47995e-05
3.41784e-05
4.55757e-05
3.42122e-05
3.4209e-05
4.89191e-05
3.65623e-05
2.62019e-05
3.65438e-05
3.65586e-05
4.89589e-05
3.65826e-05
1.37494e-05
1.37517e-05
1.25112e-05
1.25129e-05
1.24804e-05
1.21079e-05
1.2171e-05
2.94822e-05
4.50007e-05
2.69393e-05
4.18617e-05
2.93842e-05
4.52684e-05
2.70334e-05
2.93906e-05
4.49983e-05
2.691e-05
4.18714e-05
2.92771e-05
4.52318e-05
2.70069e-05
3.37356e-05
5.0075e-05
4.06603e-05
5.40471e-05
3.36319e-05
5.03419e-05
4.06726e-05
2.94308e-05
2.69715e-05
4.5042e-05
4.19e-05
2.9355e-05
2.70563e-05
4.52252e-05
1.35862e-05
1.25335e-05
1.22347e-05
1.36055e-05
1.25425e-05
1.22372e-05
1.36641e-05
1.25452e-05
1.22372e-05
3.33574e-05
3.95563e-05
4.97779e-05
5.34066e-05
3.32888e-05
3.96314e-05
4.98873e-05
5.40157e-05
3.90939e-05
3.91204e-05
2.75741e-05
3.90259e-05
3.90532e-05
5.40142e-05
3.31296e-05
4.97123e-05
4.04376e-05
5.30717e-05
4.01511e-05
4.94009e-05
3.3252e-05
3.27111e-05
4.95555e-05
3.9832e-05
5.30243e-05
4.9314e-05
3.93802e-05
3.28856e-05
5.11283e-05
3.79234e-05
3.79274e-05
2.58334e-05
3.72324e-05
3.72401e-05
5.16936e-05
2.90463e-05
4.48169e-05
2.67344e-05
4.13692e-05
4.46288e-05
2.66554e-05
2.91262e-05
3.29339e-05
4.9627e-05
3.93652e-05
5.31227e-05
4.94748e-05
3.92689e-05
3.30102e-05
3.27493e-05
3.9812e-05
4.95762e-05
5.29766e-05
3.93729e-05
4.93615e-05
3.29156e-05
2.88979e-05
2.6698e-05
4.4806e-05
4.13831e-05
4.46342e-05
2.66258e-05
2.89838e-05
2.89876e-05
2.67173e-05
4.47755e-05
4.13986e-05
2.66553e-05
4.46607e-05
2.90219e-05
3.26896e-05
3.83503e-05
4.93676e-05
5.27395e-05
4.92917e-05
3.83507e-05
3.26971e-05
2.88117e-05
4.13791e-05
2.64727e-05
4.46685e-05
3.29752e-05
3.93512e-05
5.30791e-05
4.96543e-05
3.30435e-05
3.92637e-05
4.95239e-05
3.27377e-05
5.29414e-05
3.90664e-05
4.93892e-05
1.36818e-05
1.25069e-05
1.37714e-05
1.24824e-05
1.24858e-05
1.21092e-05
1.21707e-05
1.25147e-05
1.36861e-05
1.25109e-05
1.24836e-05
1.37036e-05
1.211e-05
1.21728e-05
3.35116e-05
4.02823e-05
4.98033e-05
5.36913e-05
3.33551e-05
4.05644e-05
4.99924e-05
2.93894e-05
2.69325e-05
4.49606e-05
4.18214e-05
2.92913e-05
4.51545e-05
2.70125e-05
3.39048e-05
5.37837e-05
5.02708e-05
4.08058e-05
4.07688e-05
5.01557e-05
3.40077e-05
5.27987e-05
3.90884e-05
3.91145e-05
2.76793e-05
5.37796e-05
3.89011e-05
3.89245e-05
3.69579e-05
4.74266e-05
3.69504e-05
5.02489e-05
2.76054e-05
3.8344e-05
3.83642e-05
3.37109e-05
5.00494e-05
4.06335e-05
5.40415e-05
3.36022e-05
5.03314e-05
4.06505e-05
2.98095e-05
4.20996e-05
4.57292e-05
2.74188e-05
4.55155e-05
2.73152e-05
2.99031e-05
4.04652e-05
3.40099e-05
5.412e-05
5.06175e-05
5.05328e-05
4.0625e-05
3.40616e-05
3.3514e-05
4.98157e-05
4.03193e-05
5.37772e-05
3.33445e-05
5.00366e-05
4.06108e-05
2.97481e-05
4.20943e-05
4.5651e-05
2.74009e-05
4.54468e-05
2.72945e-05
2.98582e-05
3.39345e-05
5.3873e-05
5.03879e-05
4.08774e-05
5.02364e-05
3.40516e-05
4.0832e-05
3.0271e-05
4.59047e-05
2.77149e-05
4.2713e-05
3.02094e-05
4.60211e-05
2.78117e-05
4.01338e-05
3.95899e-05
5.39777e-05
3.4138e-05
5.06326e-05
3.41741e-05
5.06136e-05
3.02824e-05
4.58142e-05
2.77026e-05
4.26894e-05
3.01983e-05
4.59441e-05
2.78035e-05
5.19443e-05
3.85132e-05
3.85043e-05
2.7469e-05
5.19296e-05
3.87411e-05
3.87587e-05
5.1864e-05
2.79097e-05
3.88454e-05
3.88011e-05
3.8832e-05
3.8873e-05
5.15125e-05
2.95147e-05
4.50408e-05
2.69828e-05
4.1891e-05
2.94218e-05
4.5291e-05
2.70714e-05
2.74364e-05
4.23196e-05
4.57178e-05
2.98312e-05
4.2105e-05
4.55198e-05
2.73409e-05
3.4067e-05
4.04696e-05
5.06009e-05
3.40245e-05
5.41169e-05
5.05281e-05
4.06442e-05
3.33534e-05
4.97803e-05
3.95872e-05
5.34769e-05
3.32732e-05
3.96705e-05
4.99177e-05
5.01502e-05
5.35672e-05
3.36186e-05
5.35258e-05
3.99081e-05
3.98557e-05
5.00413e-05
4.22863e-05
2.97883e-05
4.55478e-05
2.9713e-05
4.20881e-05
2.73173e-05
4.53815e-05
2.92703e-05
2.69292e-05
4.48687e-05
4.17955e-05
2.92227e-05
2.69969e-05
4.50273e-05
6.51827e-05
1.36172e-05
2.14017e-05
2.09272e-05
2.80128e-05
1.36993e-05
2.21255e-05
2.21479e-05
2.89908e-05
1.45457e-05
2.29108e-05
2.30955e-05
2.84874e-05
1.44692e-05
2.35998e-05
2.36427e-05
3.11035e-05
1.44417e-05
2.49897e-05
2.48954e-05
3.17934e-05
1.48255e-05
2.59433e-05
2.61794e-05
3.22654e-05
1.55542e-05
2.68428e-05
2.69274e-05
3.32817e-05
1.56622e-05
2.78052e-05
2.42211e-05
2.05102e-05
2.08122e-05
2.3744e-05
2.65881e-05
2.02554e-05
2.14331e-05
2.05435e-05
2.17265e-05
2.77812e-05
2.81776e-05
2.02518e-05
2.09587e-05
2.05398e-05
2.17883e-05
2.13224e-05
2.17626e-05
2.22578e-05
2.67044e-05
2.83374e-05
2.13146e-05
2.18206e-05
2.22546e-05
2.90137e-05
2.90758e-05
3.40026e-05
2.17086e-05
2.20812e-05
2.45066e-05
2.28013e-05
2.86291e-05
2.9231e-05
2.17045e-05
2.21063e-05
2.45032e-05
2.29265e-05
2.23472e-05
2.28041e-05
2.24274e-05
2.87644e-05
2.95429e-05
2.23461e-05
2.29266e-05
2.24274e-05
2.83494e-05
3.37187e-05
2.97827e-05
2.4537e-05
2.29273e-05
2.40684e-05
2.33662e-05
2.92651e-05
2.95098e-05
2.4534e-05
2.31138e-05
2.40679e-05
2.34502e-05
2.25606e-05
2.3342e-05
2.3736e-05
2.96266e-05
2.96875e-05
2.25604e-05
2.34266e-05
2.37346e-05
3.07022e-05
2.97608e-05
3.04668e-05
2.39817e-05
2.36172e-05
2.41157e-05
2.46693e-05
2.98535e-05
3.15467e-05
2.39811e-05
2.36561e-05
2.4113e-05
2.45781e-05
2.40881e-05
2.46752e-05
2.48159e-05
2.98568e-05
3.13835e-05
2.40877e-05
2.45816e-05
2.48113e-05
3.16808e-05
3.08424e-05
3.19292e-05
2.4436e-05
2.49845e-05
2.53774e-05
2.56836e-05
3.18631e-05
3.25311e-05
2.44307e-05
2.48914e-05
2.53731e-05
2.58826e-05
2.50078e-05
2.5686e-05
2.55692e-05
3.1766e-05
3.29961e-05
2.50016e-05
2.58835e-05
2.55632e-05
3.21125e-05
3.21756e-05
3.31982e-05
2.56637e-05
2.5945e-05
2.65145e-05
2.6656e-05
3.27119e-05
3.32847e-05
2.5661e-05
2.61797e-05
2.65111e-05
2.67589e-05
2.57626e-05
2.66562e-05
2.64824e-05
3.3211e-05
3.34912e-05
2.57599e-05
2.67582e-05
2.648e-05
3.30172e-05
3.35022e-05
3.45759e-05
2.68229e-05
2.68431e-05
2.77651e-05
5.70958e-05
3.3432e-05
6.51605e-05
2.68189e-05
2.69284e-05
2.77647e-05
2.75875e-05
2.67544e-05
2.75581e-05
3.35925e-05
3.40716e-05
2.67519e-05
2.75866e-05
5.71424e-05
2.78067e-05
3.42663e-05
6.91919e-05
6.02984e-05
7.02346e-05
6.05021e-05
7.03759e-05
6.91129e-05
6.91362e-05
6.03129e-05
7.02363e-05
6.04758e-05
7.0383e-05
1.19319e-05
1.37294e-05
1.37632e-05
1.35989e-05
1.38708e-05
1.38445e-05
1.39685e-05
4.3029e-05
3.45573e-05
1.63341e-05
2.14346e-05
3.06977e-05
5.3669e-05
1.6414e-05
6.91284e-05
6.91579e-05
4.30324e-05
1.62478e-05
4.02302e-05
2.11666e-05
1.63564e-05
5.3879e-05
3.05417e-05
6.36227e-05
6.36033e-05
2.88556e-05
6.3854e-05
6.38566e-05
6.10113e-05
7.06108e-05
6.05273e-05
7.06008e-05
6.9168e-05
6.91556e-05
6.09864e-05
7.06123e-05
6.05254e-05
7.06017e-05
1.39027e-05
1.39099e-05
1.39957e-05
1.44629e-05
1.40675e-05
1.40986e-05
1.40114e-05
4.40669e-05
5.44541e-05
1.67733e-05
2.2433e-05
4.36304e-05
5.47268e-05
1.69283e-05
6.91842e-05
6.9175e-05
4.40514e-05
1.67759e-05
5.43799e-05
2.24427e-05
4.36556e-05
1.69299e-05
5.46615e-05
6.37609e-05
6.37813e-05
2.85133e-05
6.34752e-05
6.3489e-05
6.1284e-05
7.04788e-05
6.12877e-05
7.04607e-05
6.91128e-05
6.91149e-05
6.13065e-05
7.04818e-05
6.12987e-05
7.04637e-05
1.40987e-05
1.41443e-05
1.40236e-05
1.45288e-05
1.41831e-05
1.42164e-05
1.42454e-05
4.48596e-05
5.48118e-05
1.73515e-05
2.30172e-05
4.45526e-05
5.49389e-05
1.7481e-05
6.91255e-05
6.91102e-05
4.48871e-05
1.73732e-05
5.49532e-05
2.3207e-05
4.45522e-05
1.75079e-05
5.50056e-05
6.36361e-05
6.36507e-05
2.92545e-05
6.41425e-05
6.41582e-05
6.14529e-05
7.0489e-05
6.13137e-05
7.0536e-05
6.91312e-05
6.91649e-05
6.14503e-05
7.04903e-05
6.13189e-05
7.05378e-05
1.42308e-05
1.42592e-05
1.43441e-05
1.442e-05
1.4509e-05
1.44925e-05
1.45814e-05
4.56616e-05
5.51782e-05
1.78978e-05
2.39303e-05
4.53433e-05
5.55305e-05
1.80614e-05
6.91358e-05
6.91713e-05
4.56713e-05
1.79151e-05
5.51918e-05
2.39352e-05
4.53459e-05
1.80757e-05
5.55538e-05
6.43913e-05
6.44019e-05
3.1429e-05
6.44027e-05
6.44069e-05
6.1817e-05
7.05669e-05
6.16931e-05
7.05851e-05
6.91564e-05
6.91458e-05
6.18e-05
7.05672e-05
6.16796e-05
7.05858e-05
1.46089e-05
1.45823e-05
1.4644e-05
1.47229e-05
1.48468e-05
1.48937e-05
1.48287e-05
4.64615e-05
5.59538e-05
1.86247e-05
2.52403e-05
4.61557e-05
5.60044e-05
1.88065e-05
6.91665e-05
6.91803e-05
4.64305e-05
1.86087e-05
5.57793e-05
2.52168e-05
4.61334e-05
1.87894e-05
5.60239e-05
6.44838e-05
6.44699e-05
3.18693e-05
6.4533e-05
6.45326e-05
6.20945e-05
7.06148e-05
6.19631e-05
7.06399e-05
6.9149e-05
6.91515e-05
6.21076e-05
7.0619e-05
6.19782e-05
7.06409e-05
1.49361e-05
1.50033e-05
1.48925e-05
1.51293e-05
1.52048e-05
1.52499e-05
1.51366e-05
4.71777e-05
5.63272e-05
1.93324e-05
2.62105e-05
4.68635e-05
5.65447e-05
1.95225e-05
6.91655e-05
6.91486e-05
4.72039e-05
1.93703e-05
5.64733e-05
2.64187e-05
4.68882e-05
1.95656e-05
5.6567e-05
6.45544e-05
6.45709e-05
3.24678e-05
6.46757e-05
6.46971e-05
6.2334e-05
7.06787e-05
6.22415e-05
7.0699e-05
6.91411e-05
6.91692e-05
6.23414e-05
7.06795e-05
6.22313e-05
7.07025e-05
1.24365e-05
1.52399e-05
1.5284e-05
1.53203e-05
1.52304e-05
1.56095e-05
1.55742e-05
4.7853e-05
5.66581e-05
2.00865e-05
2.70454e-05
4.7596e-05
5.67535e-05
2.02711e-05
6.9138e-05
6.91515e-05
4.78517e-05
2.0105e-05
5.66549e-05
2.71314e-05
4.75843e-05
2.02866e-05
5.68834e-05
6.48533e-05
6.48592e-05
3.36437e-05
6.49809e-05
6.50002e-05
1.24684e-05
1.57257e-05
1.56646e-05
6.91558e-05
5.71034e-05
6.90083e-05
6.90085e-05
6.19238e-05
6.19084e-05
7.02348e-05
6.05302e-05
5.33228e-05
1.62147e-05
4.28783e-05
7.0389e-05
6.05073e-05
7.03924e-05
2.07058e-05
1.61873e-05
4.01321e-05
4.28455e-05
4.00536e-05
6.90251e-05
6.92264e-05
6.90257e-05
6.92283e-05
6.15095e-05
6.14973e-05
2.30182e-05
6.13124e-05
6.13071e-05
6.94396e-05
6.92892e-05
6.94417e-05
6.92912e-05
2.31142e-05
6.41863e-05
6.41882e-05
6.17773e-05
6.17796e-05
6.02778e-05
7.03673e-05
6.04772e-05
7.0387e-05
4.29329e-05
3.81479e-05
1.62762e-05
2.01784e-05
3.06386e-05
5.25681e-05
1.62988e-05
4.29749e-05
4.0608e-05
1.63747e-05
2.14583e-05
3.08139e-05
5.35915e-05
1.64369e-05
6.02697e-05
7.05964e-05
7.04401e-05
6.03864e-05
6.02471e-05
7.04636e-05
7.03972e-05
6.035e-05
4.29247e-05
2.02242e-05
5.39247e-05
1.63918e-05
5.25926e-05
1.63265e-05
4.30843e-05
4.29765e-05
2.15242e-05
5.41733e-05
1.65842e-05
5.36535e-05
1.64968e-05
4.31468e-05
6.29905e-05
6.3091e-05
2.75692e-05
6.29911e-05
6.32423e-05
6.91372e-05
6.9161e-05
6.91722e-05
6.91443e-05
2.76564e-05
6.36888e-05
6.38392e-05
6.31604e-05
6.3445e-05
6.917e-05
6.91645e-05
4.29174e-05
5.29942e-05
1.62643e-05
2.01747e-05
4.29219e-05
5.25629e-05
1.62864e-05
6.0304e-05
7.03839e-05
6.04585e-05
7.03895e-05
4.29736e-05
1.6287e-05
4.02883e-05
2.11804e-05
4.29051e-05
1.63782e-05
5.3742e-05
6.02913e-05
7.05986e-05
7.04464e-05
6.04112e-05
4.29202e-05
2.02205e-05
5.39326e-05
1.6386e-05
5.25891e-05
1.63162e-05
4.31325e-05
6.02788e-05
7.04636e-05
7.03969e-05
6.03757e-05
4.29899e-05
2.14684e-05
1.658e-05
5.41344e-05
1.64716e-05
5.37928e-05
4.31875e-05
6.04897e-05
7.03759e-05
6.0419e-05
7.04314e-05
4.30584e-05
1.62794e-05
4.11017e-05
2.17318e-05
3.05825e-05
1.6418e-05
5.42367e-05
6.04902e-05
7.04436e-05
6.04166e-05
7.04429e-05
4.31036e-05
2.15179e-05
5.4339e-05
1.6628e-05
5.38336e-05
1.65069e-05
4.35142e-05
6.05171e-05
7.04772e-05
7.04436e-05
6.0719e-05
4.31353e-05
2.2053e-05
1.66955e-05
5.44744e-05
1.65574e-05
5.43236e-05
4.35375e-05
6.05167e-05
7.04374e-05
7.04384e-05
6.07156e-05
6.30357e-05
6.31023e-05
2.71474e-05
6.31636e-05
6.34151e-05
6.91517e-05
6.91777e-05
6.9187e-05
6.91615e-05
2.75748e-05
6.36413e-05
6.37819e-05
6.32425e-05
6.34927e-05
6.91821e-05
6.91767e-05
4.3044e-05
1.6266e-05
4.10864e-05
2.17241e-05
1.64055e-05
5.42327e-05
3.05547e-05
6.05149e-05
7.03933e-05
7.0432e-05
6.0391e-05
6.05007e-05
7.04449e-05
7.04476e-05
6.03826e-05
4.31243e-05
2.14794e-05
1.66247e-05
5.42943e-05
1.64826e-05
5.39596e-05
4.35483e-05
4.31399e-05
2.20473e-05
1.66933e-05
5.44898e-05
1.65497e-05
5.43297e-05
4.35682e-05
6.05466e-05
7.04756e-05
7.04394e-05
6.07423e-05
6.05334e-05
7.04403e-05
7.04445e-05
6.07391e-05
6.91929e-05
6.9173e-05
6.91939e-05
6.91761e-05
2.90967e-05
6.38363e-05
6.38528e-05
6.38708e-05
6.38784e-05
6.91369e-05
6.91572e-05
6.91409e-05
6.9161e-05
6.94425e-05
6.93799e-05
6.94447e-05
6.93821e-05
6.47536e-05
6.47554e-05
3.32253e-05
6.55679e-05
6.557e-05
6.91624e-05
6.93116e-05
6.91646e-05
6.93137e-05
3.39838e-05
6.48605e-05
6.48685e-05
6.55784e-05
6.55808e-05
6.09922e-05
7.04742e-05
6.04899e-05
7.05002e-05
4.39887e-05
5.44791e-05
1.65745e-05
2.32322e-05
4.32764e-05
5.55491e-05
1.68752e-05
4.39561e-05
5.43177e-05
1.6711e-05
2.23941e-05
4.33039e-05
5.47236e-05
1.68694e-05
6.10937e-05
7.05005e-05
7.05652e-05
6.12813e-05
6.10792e-05
7.04916e-05
7.04987e-05
6.12853e-05
4.419e-05
2.41584e-05
5.5638e-05
1.74337e-05
5.56624e-05
1.71716e-05
4.47175e-05
4.41422e-05
2.26343e-05
5.49122e-05
1.72206e-05
5.4795e-05
1.70448e-05
4.46636e-05
6.37951e-05
6.38954e-05
2.90823e-05
6.399e-05
6.39559e-05
6.91595e-05
6.91372e-05
6.91213e-05
6.91401e-05
2.92368e-05
6.39369e-05
6.37991e-05
6.3998e-05