/*--------------------------------*- C++ -*----------------------------------*\
| =========                 |                                                 |
| \\      /  F ield         | OpenFOAM: The Open Source CFD Toolbox           |
|  \\    /   O peration     | Version:  v2006                                 |
|   \\  /    A nd           | Website:  www.openfoam.com                      |
|    \\/     M anipulation  |                                                 |
\*---------------------------------------------------------------------------*/
FoamFile
{
    version     2.0;
    format      ascii;
    class       volScalarField;
    location    "500";
    object      p;
}
// * * * * * * * * * * * * * * * * * * * * * * * * * * * * * * * * * * * * * //

dimensions      [0 2 -2 0 0 0 0];


internalField   nonuniform List<scalar> 
14258
(
0.00232759
0.00232709
0.00232751
0.00232704
0.00232692
0.00232688
0.00232871
0.00232652
0.0023265
0.00232776
0.00233052
0.00232714
0.00233044
0.0023277
0.00233048
0.00232709
0.00233034
0.00232751
0.00232769
0.00233022
0.00233217
0.00233234
0.00232753
0.00232745
0.00233231
0.00233217
0.00232742
0.0023322
0.00232742
0.00233179
0.00233221
0.00232743
0.00233207
0.00233226
0.00232738
0.00232745
0.00233208
0.00233222
0.00232733
0.00233214
0.00232738
0.00233174
0.00233218
0.00232737
0.00233172
0.00233169
0.00233043
0.00232433
0.00232433
0.00232965
0.00232964
0.0023251
0.00233213
0.00232603
0.00233138
0.00232778
0.00233066
0.00232757
0.00233248
0.0023321
0.00232599
0.00233138
0.00232776
0.00233065
0.00232755
0.00233246
0.00233226
0.00233225
0.00232745
0.00232755
0.00233221
0.0023323
0.00232749
0.00233224
0.00232751
0.00233228
0.00232749
0.00233279
0.00233314
0.00232848
0.00232846
0.0023285
0.00233292
0.00233289
0.00233243
0.00233237
0.00232761
0.00232788
0.00233216
0.00233254
0.00232781
0.00233246
0.00232755
0.00233173
0.00232775
0.00233219
0.00233235
0.00232785
0.00233238
0.0023323
0.00232753
0.0023278
0.00233212
0.00233246
0.00232775
0.00233244
0.00232751
0.00233166
0.00232771
0.00233215
0.00233232
0.00232782
0.00233244
0.0023323
0.00232779
0.00232773
0.00233245
0.00233233
0.0023278
0.00233246
0.00232771
0.00233232
0.0023278
0.00200156
0.00200157
0.00200369
0.00201081
0.00200828
0.00201075
0.00200859
0.00200824
0.00200153
0.00200158
0.00200357
0.00200373
0.00200358
0.00200356
0.00200358
0.00200153
0.00200155
0.00200362
0.00200362
0.00200821
0.00200821
0.00200842
0.0020083
0.00200828
0.00200822
0.00200842
0.00201077
0.00200833
0.00200825
0.00200832
0.00200824
0.00200826
0.00200826
0.00200824
0.00200156
0.0020036
0.00200362
0.00200362
0.00200359
0.00200361
0.00200359
0.00199899
0.00199898
0.00199897
0.00199905
0.00201285
0.00200825
0.00200827
0.00201286
0.00200825
0.00201285
0.00201286
0.00201283
0.00199897
0.00199894
0.00199894
0.00199894
0.00199899
0.00200355
0.00200363
0.00199898
0.00199905
0.00199897
0.00200356
0.00199898
0.00199901
0.0020036
0.00199899
0.001999
0.00200359
0.00199904
0.00200364
0.0020036
0.00199903
0.0020036
0.00199907
0.00199902
0.00200826
0.00200825
0.00200824
0.00200824
0.00200824
0.00201283
0.00200825
0.00201284
0.00200825
0.00201284
0.00201283
0.00201283
0.00200825
0.00201284
0.00200825
0.00201285
0.00200833
0.00201286
0.00200826
0.00200828
0.0020129
0.00201286
0.00201284
0.0020083
0.00201285
0.00200825
0.00200826
0.00201289
0.00201284
0.00201285
0.00200825
0.00200825
0.00200825
0.00201284
0.00201283
0.00201283
0.00199901
0.00199904
0.00200361
0.00200361
0.00199903
0.00200361
0.00199902
0.00199902
0.00200361
0.001999
0.0020036
0.00199902
0.00199901
0.00199904
0.00200361
0.00200361
0.0020036
0.00199902
0.00199901
0.00199901
0.00199921
0.00199936
0.00200365
0.00200358
0.00199924
0.00200356
0.00199917
0.0020128
0.00200845
0.00201292
0.00200841
0.00200843
0.00201285
0.00201285
0.0019992
0.00200363
0.00200361
0.00199906
0.00199906
0.00199912
0.00200368
0.00199916
0.00200362
0.00200364
0.00199939
0.0019992
0.00200353
0.0019992
0.00199917
0.00199917
0.00200367
0.0020036
0.00200362
0.0019992
0.00199915
0.00200846
0.0020084
0.00200844
0.00200833
0.00200838
0.00200846
0.00201287
0.00200845
0.0020084
0.00201288
0.00200842
0.00201292
0.00201286
0.00201291
0.00200838
0.00200832
0.00201284
0.00200844
0.00201286
0.00201286
0.00201289
0.00200827
0.00201283
0.00200836
0.00201284
0.00201285
0.00200841
0.00199918
0.00200359
0.00200361
0.00199909
0.00199903
0.00200365
0.00199913
0.00199917
0.00199917
0.00200366
0.00200361
0.0019992
0.00200362
0.00199915
0.00200362
0.00200363
0.00200362
0.00200364
0.0020036
0.0020036
0.00200362
0.0020036
0.00199901
0.00200361
0.00200361
0.00199904
0.00199901
0.00199903
0.00200361
0.001999
0.00200361
0.00200361
0.00199903
0.00199902
0.00199901
0.0020036
0.00199902
0.00200361
0.00199901
0.00199902
0.00200359
0.00199905
0.00200368
0.00199903
0.0020036
0.00199911
0.00200361
0.00199901
0.00199903
0.00200361
0.00200361
0.00200362
0.00199902
0.00199903
0.00199901
0.00199919
0.00200368
0.00200362
0.00199918
0.00199915
0.00199921
0.00200364
0.00199919
0.00200368
0.00200362
0.00199918
0.00199921
0.00199916
0.00200364
0.00199921
0.00200362
0.00200364
0.00199909
0.00199914
0.00199908
0.00200368
0.00232205
0.00232201
0.00232339
0.00232178
0.00232175
0.00232277
0.00232237
0.0023228
0.00232268
0.00232282
0.00232088
0.00232237
0.00232079
0.00232286
0.00232121
0.00232268
0.0023209
0.00232238
0.00232389
0.00232228
0.00232233
0.00232245
0.00232268
0.00232231
0.00232274
0.00232083
0.00232232
0.00232068
0.0023227
0.00232272
0.00232275
0.00232061
0.00232063
0.00232277
0.00232118
0.00232271
0.00232273
0.00232263
0.0023229
0.00232271
0.00232277
0.00232273
0.00232287
0.0023206
0.00232062
0.00232281
0.00232287
0.00232278
0.0023173
0.00231728
0.00231556
0.00231971
0.00231971
0.0023201
0.00231578
0.00231578
0.00231756
0.00231716
0.00232153
0.00232279
0.00232252
0.00231726
0.00231776
0.00231756
0.00231714
0.0023215
0.00232275
0.00232252
0.00231724
0.00231772
0.00231791
0.00231801
0.00232273
0.00232264
0.00232264
0.00231795
0.00231792
0.0023178
0.00231773
0.00232256
0.00232258
0.00231774
0.00231796
0.00231805
0.00232274
0.00232281
0.00232274
0.00231797
0.00231805
0.00231794
0.0023179
0.00232276
0.00232274
0.00231794
0.00231755
0.00231672
0.00232132
0.00232135
0.00232147
0.00231672
0.00231676
0.00231759
0.00231746
0.00232204
0.00232298
0.002318
0.0023225
0.00231735
0.00231758
0.0023175
0.00232207
0.00232298
0.0023225
0.00231737
0.00231801
0.0023176
0.00231785
0.00231794
0.00232257
0.00232265
0.00232256
0.00231785
0.00231789
0.00231776
0.00231768
0.00232252
0.00232253
0.00231771
0.00231792
0.00231797
0.00232265
0.00232274
0.00232269
0.0023179
0.002318
0.00231791
0.00231797
0.00232269
0.00232266
0.00231794
0.00231809
0.00231796
0.00232287
0.00232288
0.00231803
0.00231787
0.00231799
0.00232266
0.00232268
0.00232268
0.002318
0.00231802
0.00231805
0.00231796
0.00232275
0.00232284
0.00231809
0.00232278
0.00231804
0.00231806
0.00232279
0.00232285
0.00231803
0.0023228
0.00231809
0.00231812
0.00231798
0.00232284
0.00232285
0.00232283
0.00232281
0.0023228
0.00232075
0.00232069
0.00232064
0.00232067
0.00232093
0.00232078
0.0023208
0.00232072
0.00232067
0.0023207
0.00232065
0.00232066
0.00232065
0.00232063
0.00232066
0.00232064
0.00231797
0.00231863
0.00232324
0.00232321
0.00232315
0.00231828
0.00231825
0.00231826
0.00231825
0.00232272
0.00232297
0.00232289
0.00231818
0.00231831
0.00231823
0.00231788
0.00232266
0.00232288
0.00231811
0.0023229
0.00231809
0.00231842
0.00231828
0.00232288
0.002323
0.00232306
0.00231828
0.00231835
0.00231845
0.00231799
0.00232288
0.00232319
0.00232316
0.00231823
0.00231837
0.00231811
0.00231932
0.0023236
0.00232359
0.00231873
0.002323
0.0023188
0.00231819
0.00231817
0.00232264
0.00232288
0.00232283
0.00231811
0.00231823
0.00231819
0.00231784
0.00232262
0.00232285
0.00231808
0.00232287
0.00231804
0.00231825
0.00231818
0.00232288
0.00232278
0.00232288
0.00231823
0.0023182
0.00231825
0.00231812
0.00232278
0.00232285
0.0023229
0.00231816
0.00231813
0.00231847
0.00231803
0.00232294
0.00232316
0.00232318
0.00231837
0.00231829
0.00231818
0.00231834
0.00232278
0.00232277
0.00231817
0.00232271
0.00231817
0.00232298
0.00232284
0.00232293
0.00232284
0.00232286
0.00232295
0.00228579
0.00228578
0.00228315
0.00228627
0.00228625
0.00228468
0.0022851
0.00228461
0.00228131
0.00228522
0.00228209
0.00228469
0.00228479
0.00228234
0.0022813
0.00228129
0.0022839
0.00228864
0.00228861
0.00228322
0.0022832
0.00228886
0.00228165
0.00228685
0.00228526
0.00228157
0.002282
0.00228545
0.00228077
0.00228165
0.00228686
0.00228491
0.00228154
0.00228199
0.00228072
0.00228561
0.00228016
0.00228478
0.00228469
0.00228006
0.00228017
0.00228006
0.0022848
0.00228021
0.00228483
0.00228051
0.00228032
0.00228475
0.00227999
0.0022847
0.00228005
0.00228465
0.00228005
0.00227998
0.00228464
0.00231091
0.00230875
0.00230877
0.00230858
0.00230844
0.00230869
0.0023115
0.00231123
0.00230868
0.00230872
0.00231108
0.00231113
0.00230906
0.00230878
0.0023037
0.00229175
0.00230167
0.00230377
0.00230379
0.00230383
0.00230365
0.00230375
0.00230386
0.00231116
0.00231119
0.00231112
0.00230367
0.00230148
0.00230379
0.00230797
0.00230796
0.00230828
0.00230827
0.00230806
0.00230842
0.0023084
0.00230846
0.00230832
0.00230862
0.00231091
0.002311
0.00230841
0.00231121
0.00231148
0.00230799
0.002308
0.00230922
0.00230806
0.00230807
0.00230837
0.00230839
0.00230867
0.00231087
0.00231089
0.00230843
0.00231102
0.00231102
0.00230859
0.00231126
0.00230851
0.00230881
0.00230844
0.00230862
0.00231116
0.00230886
0.00230883
0.00230874
0.00230842
0.00230851
0.00230856
0.00230849
0.00231104
0.00230867
0.00231113
0.00230855
0.00230876
0.0023038
0.00230384
0.00230375
0.00230378
0.0023036
0.00230371
0.00228937
0.00228977
0.00230324
0.00228946
0.00230369
0.00230359
0.0022894
0.00228977
0.00230153
0.00229194
0.00230164
0.00230364
0.00230387
0.00229188
0.00228958
0.00230345
0.00229024
0.00230344
0.00229025
0.00230398
0.00230398
0.0023025
0.00228762
0.00229097
0.00229098
0.00230364
0.00230355
0.00228939
0.00228934
0.00230386
0.0023007
0.0023012
0.00228957
0.00229069
0.00229004
0.0022915
0.00230356
0.00230148
0.00230163
0.00228959
0.00229181
0.0022895
0.0022918
0.00228464
0.00228511
0.00228464
0.00228463
0.00228132
0.00228524
0.00228207
0.00228464
0.00228227
0.00230334
0.00230394
0.00230342
0.00228935
0.00228968
0.00228968
0.00230335
0.0022895
0.00230371
0.00230068
0.00230113
0.00228943
0.00229065
0.00229002
0.00229148
0.00230364
0.00228942
0.00228944
0.00230143
0.00230139
0.0023037
0.00228969
0.00229186
0.00228965
0.00229181
0.00230365
0.0023038
0.00228947
0.00230391
0.00231158
0.00230897
0.00230897
0.00231205
0.00231207
0.00230781
0.00231208
0.00230787
0.00230787
0.00231206
0.00231225
0.00230765
0.00231311
0.00230835
0.00230844
0.00231317
0.00231311
0.00231318
0.00230834
0.00231339
0.00230862
0.00230871
0.00231343
0.00231338
0.00231346
0.00230863
0.00231361
0.00230166
0.00230629
0.00230629
0.00230461
0.00230352
0.00230351
0.0022989
0.00230348
0.00230351
0.00230321
0.00229928
0.0022993
0.0022988
0.00230356
0.00230363
0.00229892
0.00230353
0.00229884
0.00229889
0.00229903
0.00230381
0.00230387
0.00229911
0.0023038
0.00229905
0.00229911
0.002299
0.00231256
0.00231254
0.00231243
0.00230876
0.00230762
0.00231265
0.00231301
0.00231261
0.00230738
0.00231242
0.00230875
0.00230761
0.00231263
0.00231297
0.00231259
0.00230739
0.00231313
0.00230832
0.00230841
0.00231319
0.00231311
0.00231314
0.00230838
0.00231292
0.00230808
0.00231303
0.00231287
0.00230815
0.00231312
0.00230835
0.00230842
0.00231322
0.00231314
0.00231321
0.00230833
0.00231307
0.00230829
0.00231307
0.00231308
0.00230831
0.00231271
0.00231263
0.00230807
0.00230813
0.00231269
0.00231299
0.00231274
0.00230786
0.00231262
0.00230815
0.00230816
0.00231271
0.0023127
0.002313
0.0023079
0.00231277
0.00231291
0.00230807
0.00231299
0.00231285
0.00230816
0.00231309
0.00230837
0.00230831
0.00231313
0.00231309
0.00231308
0.00230837
0.00231309
0.00230841
0.00231317
0.00231314
0.00230837
0.00231322
0.00230838
0.00231316
0.00231317
0.00230845
0.00231334
0.00230859
0.00230858
0.00231338
0.00231334
0.00231335
0.00230859
0.00231342
0.00230873
0.00231351
0.00231349
0.00230868
0.00231312
0.00231321
0.00230853
0.00231321
0.00230858
0.00231326
0.00231328
0.00230848
0.00231324
0.00230857
0.00231326
0.00230864
0.00231333
0.00231329
0.00230852
0.00231329
0.00230868
0.00230872
0.00231329
0.00231332
0.00230865
0.00231318
0.00231811
0.00231815
0.00231812
0.00231811
0.00231325
0.00231327
0.00230851
0.00231325
0.00230853
0.00231807
0.00231805
0.00231805
0.00231392
0.00230914
0.00231362
0.00230867
0.00230907
0.00231383
0.00231363
0.00229897
0.00230374
0.00229913
0.00230381
0.00229912
0.00230365
0.00229905
0.00229902
0.00230378
0.00230389
0.00229916
0.00229907
0.00230368
0.00229922
0.0022994
0.00230406
0.0023041
0.00229946
0.00230399
0.00229948
0.00229907
0.00229902
0.00230374
0.00229905
0.00229902
0.00230373
0.00229888
0.0023035
0.00230363
0.00229885
0.00230359
0.00229876
0.0022989
0.00229867
0.0023033
0.00229907
0.00230334
0.00229864
0.00229413
0.00229407
0.00228935
0.00228947
0.00229403
0.00229414
0.00228948
0.00229398
0.0022944
0.00228944
0.00229399
0.0022894
0.00229866
0.00229402
0.00229868
0.0023033
0.00229906
0.00230335
0.00229863
0.00229889
0.00230361
0.0023035
0.00229885
0.00230359
0.00229889
0.00229877
0.00229415
0.00229408
0.00228949
0.00228935
0.00229415
0.00229404
0.00228951
0.00229399
0.00229438
0.00228943
0.00229399
0.0022894
0.00229898
0.0022946
0.00229897
0.00229458
0.00229745
0.00230469
0.00230253
0.00229983
0.00230211
0.0023008
0.00229769
0.00229749
0.00230468
0.00230252
0.00229983
0.0023021
0.00230078
0.00229774
0.00229797
0.00229408
0.00229404
0.0022993
0.00229927
0.00229355
0.00229325
0.00229552
0.00229175
0.00228929
0.00229657
0.00229328
0.00228969
0.00229334
0.00229549
0.00229173
0.00228911
0.00229651
0.00229325
0.00228963
0.00229877
0.00230354
0.00230361
0.00229889
0.00230352
0.0022988
0.00229885
0.00229877
0.0023035
0.0022988
0.00230349
0.00229878
0.00229401
0.00229409
0.00228937
0.00228933
0.00229404
0.00229405
0.00228931
0.00229401
0.00229403
0.0022894
0.00229405
0.00228936
0.00228013
0.00228466
0.00228475
0.00228002
0.00228478
0.00228003
0.00228014
0.00228021
0.00228484
0.00228052
0.00228475
0.00228032
0.00227994
0.00228466
0.00228458
0.00228
0.0022846
0.00228001
0.00227993
0.0022984
0.00230342
0.00230326
0.00229881
0.00230305
0.00229888
0.00229857
0.00229846
0.00230352
0.00230332
0.00229889
0.00230313
0.00229866
0.00229899
0.00229466
0.00229042
0.00229042
0.00229496
0.00229497
0.00229034
0.00229369
0.00229423
0.00228975
0.00228928
0.00229431
0.00229387
0.00228927
0.00229377
0.00229427
0.00228984
0.0022893
0.00229392
0.00229442
0.00228936
0.00229871
0.00229408
0.0022989
0.00230365
0.00229891
0.00230359
0.00229896
0.00229414
0.00229413
0.00228953
0.00229422
0.00228948
0.00229405
0.00229414
0.00228941
0.00228942
0.00229409
0.0022941
0.00228937
0.00229888
0.00230357
0.00229894
0.00230361
0.00229883
0.00229903
0.00230378
0.00230376
0.00229905
0.00230378
0.00229903
0.002299
0.00229409
0.00229417
0.0022894
0.00229408
0.00228939
0.00228324
0.00228397
0.00228314
0.00227889
0.00227944
0.00228036
0.0022793
0.00228473
0.00228465
0.00228469
0.00228008
0.00228012
0.00228016
0.00228017
0.00228454
0.00228434
0.00228472
0.0022801
0.00228065
0.00227997
0.0022802
0.00228468
0.00228476
0.00228464
0.00228018
0.00228013
0.0022802
0.00228008
0.00231103
0.00231098
0.00231104
0.00231331
0.00230874
0.00230873
0.00231332
0.0023133
0.00231339
0.00230865
0.00231347
0.00230874
0.00230877
0.00231334
0.00231334
0.00231343
0.00230879
0.00231316
0.00230855
0.00230817
0.0023131
0.00231307
0.00231315
0.00230843
0.00231334
0.0023087
0.00230868
0.00231325
0.00231333
0.00231326
0.0023087
0.00231308
0.00230856
0.00231328
0.00230856
0.00231316
0.00231316
0.00230858
0.00231391
0.00230925
0.00231344
0.00230922
0.0023095
0.00231367
0.00231369
0.00229905
0.00230358
0.00229916
0.0023036
0.00229904
0.00230352
0.00229902
0.00229152
0.00230112
0.00230137
0.00230134
0.00229175
0.00229183
0.00230141
0.002299
0.00230379
0.00230378
0.00229917
0.00230368
0.00229919
0.00229911
0.00229914
0.00230374
0.00230383
0.00229919
0.00230382
0.00229911
0.00229917
0.00229867
0.00230361
0.00230312
0.00229934
0.00230342
0.00229903
0.00229816
0.00229915
0.00230379
0.00230372
0.00229917
0.00230378
0.00229916
0.00229912
0.0023113
0.00231123
0.00231113
0.00231121
0.00231115
0.00231112
0.00231109
0.00231105
0.00231106
0.00229923
0.00230374
0.00230377
0.00229917
0.00230386
0.00229902
0.00229918
0.00231226
0.00230749
0.00230748
0.00231302
0.00231263
0.00231261
0.00230721
0.00231321
0.0023086
0.00230822
0.00231315
0.0023131
0.00231321
0.00230848
0.00231346
0.0023086
0.00230851
0.0023131
0.00231326
0.00231336
0.00230873
0.00231276
0.00230845
0.00230844
0.00231403
0.00231337
0.00231336
0.00230807
0.00231324
0.00230867
0.00230866
0.00231323
0.00231322
0.00231331
0.00230859
0.00231335
0.00230863
0.00230854
0.00231323
0.00231323
0.00231328
0.0023087
0.00231349
0.00230854
0.00230867
0.00231315
0.00231337
0.00231331
0.00230877
0.00231351
0.00230888
0.00230882
0.00231343
0.00231339
0.00231353
0.00230886
0.00231353
0.00230891
0.00230887
0.00231345
0.00231354
0.00231345
0.00230893
0.0023136
0.002309
0.00230886
0.00231352
0.00231348
0.00231365
0.002309
0.00231831
0.00231829
0.00231834
0.00231827
0.0023134
0.00230856
0.0023133
0.00230869
0.00230877
0.00231331
0.0023133
0.0023183
0.00231818
0.00231815
0.00231823
0.00230162
0.00230164
0.00229198
0.00229194
0.00229206
0.00229198
0.00230154
0.00230158
0.00230153
0.00230146
0.00229206
0.00229201
0.00229197
0.0023015
0.00229911
0.00230361
0.00230369
0.00229903
0.00230381
0.00229883
0.00229907
0.00229925
0.00230396
0.00230383
0.00229927
0.00230391
0.00229922
0.00229932
0.00229419
0.00229421
0.00228954
0.00228927
0.00229397
0.00229414
0.00228954
0.00229618
0.00230192
0.0023019
0.00229747
0.00230113
0.00229671
0.00229661
0.00228749
0.002288
0.00228746
0.0022915
0.00229233
0.00229156
0.00229154
0.00229871
0.00230365
0.00230316
0.00229937
0.00230346
0.00229906
0.00229823
0.00229406
0.00229417
0.00228961
0.00228957
0.0022942
0.0022942
0.00228943
0.00228881
0.00229382
0.00229459
0.00228963
0.00229413
0.0022934
0.00228921
0.00229906
0.00230364
0.00230353
0.00229893
0.00230377
0.00229901
0.0022987
0.00229419
0.00229419
0.00228951
0.00228962
0.00229412
0.00229425
0.00228954
0.00229416
0.00229412
0.0022895
0.00228921
0.00229409
0.00228952
0.00229384
0.00228008
0.00228468
0.00228471
0.00228008
0.00228462
0.00228014
0.00228014
0.00228443
0.00228002
0.00228065
0.00228012
0.00228473
0.00228458
0.0022802
0.00228007
0.00228457
0.00228475
0.00228008
0.00228465
0.00228001
0.00228015
0.00229842
0.00230325
0.00230327
0.00229912
0.00230293
0.00229852
0.00229852
0.00229334
0.002294
0.00228899
0.00228902
0.00229357
0.00229353
0.00228901
0.00229896
0.00230373
0.00230374
0.00229913
0.00230363
0.00229915
0.00229908
0.00228957
0.00228957
0.00228961
0.00229403
0.00229415
0.00229418
0.00229418
0.00228921
0.0022888
0.00228959
0.00229379
0.00229456
0.00229411
0.00229336
0.00229918
0.00230371
0.0023037
0.00229907
0.00230382
0.00229897
0.00229911
0.00228962
0.00228956
0.00229431
0.00229419
0.00228951
0.00229419
0.00229421
0.00228962
0.00228964
0.00228957
0.00229425
0.0022942
0.00229426
0.00229415
0.00229941
0.00230401
0.00230391
0.00229931
0.00230403
0.00229937
0.00229929
0.00200357
0.00226381
0.00226353
0.00226373
0.00226611
0.0022265
0.00222588
0.00222594
0.00222763
0.00218764
0.00218784
0.00218782
0.00219061
0.00215024
0.00215048
0.00215044
0.00215255
0.00211298
0.00211291
0.00211303
0.00211501
0.00207568
0.00207561
0.00207556
0.0020778
0.0020108
0.00203848
0.00203846
0.00204071
0.00200156
0.00200149
0.00227042
0.00227235
0.00227301
0.00226608
0.00223553
0.0022637
0.00226354
0.00223704
0.0022356
0.00226579
0.00223328
0.00226371
0.00226373
0.00223705
0.00223561
0.00226374
0.00223545
0.00223493
0.00226603
0.00223331
0.00226376
0.00223546
0.00223493
0.00223251
0.00222988
0.00219367
0.00222716
0.00222602
0.00219661
0.00219722
0.0022282
0.002195
0.00222716
0.00222607
0.00219661
0.00219725
0.00222552
0.00219727
0.00219755
0.00222827
0.00219498
0.00222552
0.00219729
0.00219755
0.00219553
0.00218871
0.00215748
0.00218699
0.00218776
0.00215949
0.00215978
0.00219003
0.00215773
0.00218699
0.00218774
0.00215946
0.00215966
0.00218824
0.00215983
0.00215982
0.00218998
0.0021576
0.00218824
0.00215972
0.00215981
0.00215755
0.00215258
0.00212022
0.00215029
0.00215045
0.00212238
0.0021223
0.00215277
0.00212006
0.00215028
0.00215041
0.00212239
0.0021224
0.00215036
0.00212229
0.00212218
0.0021527
0.00212023
0.00215035
0.00212238
0.00212219
0.00211996
0.00211523
0.00208278
0.002113
0.00211293
0.00208498
0.00208494
0.00211511
0.00208272
0.00211301
0.00211305
0.00208498
0.00208493
0.00211284
0.00208492
0.00208489
0.00211527
0.00208264
0.00211285
0.00208492
0.0020849
0.00208272
0.00207786
0.00204568
0.00207567
0.00207562
0.00204784
0.00204773
0.00207777
0.00204556
0.00207566
0.00207556
0.00204783
0.0020477
0.00207561
0.00204773
0.0020478
0.00207769
0.00204554
0.00207561
0.0020477
0.00204779
0.00204563
0.00204074
0.00200852
0.00203856
0.00203848
0.00201073
0.00200829
0.00204066
0.00200821
0.00203856
0.00203846
0.00201073
0.00201072
0.00203853
0.00201082
0.00204062
0.00200854
0.00203852
0.00201072
0.00200357
0.00200148
0.00200364
0.00200355
0.00225209
0.00226642
0.00226606
0.00225213
0.00226603
0.00225166
0.0022521
0.00226642
0.00226609
0.00225215
0.00226364
0.00226371
0.00226369
0.00223604
0.00223544
0.00223549
0.00223517
0.00225178
0.00226589
0.0022636
0.00225423
0.00226581
0.00225169
0.00225418
0.00226587
0.00225163
0.00225181
0.00226369
0.00226595
0.00225436
0.00225424
0.00225165
0.00226589
0.00226531
0.00226532
0.00225164
0.00225145
0.00225145
0.00221368
0.00222752
0.00222809
0.00221336
0.00222787
0.00221382
0.00221369
0.00222754
0.00222809
0.00221337
0.00222596
0.002226
0.00222573
0.00219716
0.00219734
0.00219735
0.0021975
0.002214
0.00222792
0.00222582
0.00221631
0.00222801
0.00221393
0.00221634
0.00222791
0.00221372
0.002214
0.00222586
0.00222792
0.00221639
0.00222801
0.00221638
0.00221389
0.00222834
0.00222835
0.00221401
0.00221416
0.00221416
0.00217593
0.00219
0.00218994
0.002176
0.0021902
0.00217604
0.00217591
0.00218999
0.00218992
0.00217599
0.00218788
0.00218785
0.0021881
0.00215953
0.00215974
0.0021597
0.0021598
0.00217623
0.00219023
0.00218798
0.00217847
0.0021902
0.00217614
0.00217857
0.00219012
0.0021761
0.00217621
0.00218796
0.00219018
0.0021784
0.00219019
0.00217854
0.00217616
0.00219004
0.00219004
0.00217668
0.0021758
0.0021758
0.00213851
0.00215256
0.00215252
0.00213849
0.00215238
0.00213829
0.00213853
0.00215256
0.00215253
0.00213849
0.0021504
0.00215038
0.00215038
0.00212229
0.00212231
0.00212235
0.00212224
0.0021386
0.00215244
0.00215042
0.00214109
0.0021525
0.00213846
0.00214103
0.00215244
0.00213839
0.00213862
0.0021504
0.0021525
0.0021411
0.00215251
0.00214103
0.00213849
0.00215239
0.0021524
0.00213868
0.00213843
0.00213844
0.0021011
0.00211505
0.00211507
0.00210107
0.002115
0.00210106
0.00210111
0.00211507
0.00211509
0.00210108
0.00211294
0.00211301
0.00211289
0.00208499
0.00208496
0.00208497
0.00208492
0.0021012
0.00211496
0.00211293
0.00210356
0.00211503
0.00210111
0.00210359
0.00211497
0.00210091
0.00210122
0.00211299
0.00211498
0.00210368
0.00211505
0.00210364
0.00210109
0.00211507
0.00211507
0.00210131
0.00210111
0.00210111
0.00206385
0.00207775
0.00207777
0.0020638
0.00207768
0.00206384
0.00206383
0.00207774
0.00207775
0.0020638
0.00207565
0.00207563
0.00207563
0.00204782
0.00204776
0.00204774
0.00204779
0.00206398
0.00207772
0.00207565
0.00206629
0.00207776
0.0020639
0.00206635
0.00207767
0.00206385
0.00206396
0.00207563
0.00207768
0.00206624
0.00207774
0.00206633
0.00206388
0.0020778
0.0020778
0.00206419
0.00206384
0.00206383
0.00202675
0.00204055
0.00204061
0.00202669
0.00204068
0.00202673
0.00202674
0.00204054
0.0020406
0.00202667
0.00201077
0.00203855
0.0020385
0.00203848
0.00203852
0.00201076
0.00201073
0.00202692
0.00204063
0.00203854
0.00202927
0.00204063
0.00202684
0.0020293
0.0020406
0.00202672
0.0020269
0.00203851
0.00204061
0.00202921
0.00204061
0.00202926
0.00202681
0.00204059
0.00204059
0.00202708
0.00202674
0.00202674
0.00200153
0.00200151
0.00200151
0.00200364
0.00200361
0.002272
0.00227199
0.00227193
0.00227192
0.00227117
0.00227078
0.00227118
0.00227288
0.00227075
0.00227062
0.00227071
0.00228467
0.00228239
0.00227297
0.00227534
0.00227072
0.0022801
0.00226717
0.00225211
0.00226717
0.00225212
0.00226699
0.00226699
0.00225351
0.00225174
0.00225176
0.00223156
0.00224675
0.00223156
0.00224677
0.00224906
0.00223124
0.00223124
0.00224636
0.00224638
0.002252
0.0022659
0.00226599
0.00225182
0.00225211
0.00226671
0.0022638
0.00225508
0.00226606
0.00225212
0.00225467
0.00225202
0.00226594
0.0022636
0.0022543
0.00226586
0.00225182
0.00225435
0.00224732
0.0022324
0.00224723
0.00223296
0.00224724
0.0022328
0.00224704
0.00223296
0.00224727
0.00224626
0.00223237
0.00223601
0.00224716
0.00224544
0.00223328
0.00224718
0.00224502
0.0022329
0.00223567
0.00224699
0.00224506
0.00223323
0.00226598
0.0022659
0.0022522
0.00225155
0.00225144
0.00226596
0.00225149
0.00223261
0.0022468
0.00224729
0.00223264
0.00223259
0.00224674
0.00224663
0.00223255
0.00224665
0.00225214
0.0022663
0.00226385
0.00225509
0.00226591
0.00225214
0.00225471
0.002252
0.00226589
0.00226601
0.00225179
0.00225204
0.00226369
0.00226595
0.00225443
0.00226586
0.00225442
0.00225179
0.00224732
0.00223242
0.00224724
0.00223297
0.00224728
0.00224627
0.00223238
0.00223603
0.00224718
0.00224546
0.00223327
0.00224724
0.0022328
0.00224703
0.00223298
0.00224719
0.00224505
0.00223571
0.00223292
0.00224511
0.00224698
0.00223323
0.00225162
0.00226579
0.00226576
0.00225158
0.00225174
0.00226363
0.00226567
0.0022541
0.00226579
0.00225411
0.00225158
0.00225158
0.00226555
0.00226573
0.00225147
0.00224689
0.00224491
0.00223273
0.0022353
0.00224681
0.00224475
0.00223292
0.00224685
0.00223263
0.00224679
0.00223272
0.00224685
0.00224446
0.00223518
0.00223291
0.00224463
0.00224681
0.0022329
0.00224683
0.00223275
0.00224676
0.00223272
0.0022658
0.00226572
0.0022523
0.00225156
0.00225147
0.00226575
0.00225149
0.00223267
0.00224686
0.00224734
0.00223269
0.00223264
0.00224682
0.00224673
0.00223261
0.00224672
0.00225178
0.00226368
0.00226568
0.00225411
0.00225416
0.00225161
0.00226583
0.00225163
0.00226579
0.00225158
0.00226579
0.0022516
0.00226557
0.00225148
0.00226576
0.0022469
0.00224493
0.00223533
0.00223275
0.00224479
0.00224681
0.00223292
0.00224688
0.00224447
0.00223519
0.00223292
0.00224466
0.00224685
0.0022329
0.00224687
0.00223264
0.0022468
0.00223273
0.00224684
0.00223277
0.00224678
0.00223272
0.00226535
0.00225136
0.00226536
0.00225136
0.00224657
0.00223306
0.00223309
0.00224684
0.00224681
0.00223289
0.0022467
0.00223291
0.00224668
0.00222671
0.00221295
0.00222672
0.00221295
0.00222649
0.0022265
0.00221389
0.002213
0.002213
0.002195
0.00220844
0.002195
0.00220844
0.00220853
0.0021953
0.0021953
0.00220858
0.00220858
0.00221375
0.00222801
0.00222812
0.00221378
0.002214
0.00222746
0.00222639
0.00221683
0.00222831
0.00221346
0.0022166
0.00221405
0.00222807
0.00222617
0.00221639
0.00222829
0.00221397
0.00221655
0.00220888
0.00219469
0.00220865
0.00219469
0.00220894
0.00219483
0.00220901
0.00219473
0.00220898
0.0022066
0.0021949
0.00219713
0.0022087
0.00220681
0.00219482
0.00220904
0.00220677
0.00219497
0.00219727
0.00220909
0.0022069
0.00219487
0.00222795
0.00222791
0.00221399
0.00221393
0.00221396
0.00222783
0.00221386
0.00219497
0.00220908
0.00220895
0.00219505
0.00219512
0.00220921
0.00220925
0.00219506
0.00220915
0.002214
0.00222747
0.0022264
0.00221683
0.0022283
0.00221346
0.00221661
0.00221375
0.002228
0.00222814
0.00221375
0.00221405
0.0022262
0.00222807
0.00221647
0.00222829
0.00221658
0.00221392
0.00220888
0.00219468
0.00220866
0.00219467
0.00220899
0.00220661
0.00219489
0.00219713
0.00220871
0.00220681
0.00219481
0.00220894
0.00219477
0.00220896
0.0021947
0.00220905
0.00220683
0.00219727
0.00219492
0.00220691
0.00220903
0.00219486
0.00221385
0.00222788
0.00222796
0.00221379
0.00221401
0.00222574
0.00222807
0.00221617
0.002228
0.00221633
0.00221403
0.00221387
0.00222803
0.00222797
0.00221393
0.00220909
0.00220676
0.00219508
0.00219741
0.0022091
0.00220686
0.0021951
0.0022091
0.00219496
0.00220906
0.00219497
0.00220911
0.00220685
0.00219749
0.00219505
0.0022069
0.00220918
0.00219512
0.00220912
0.00219496
0.00220917
0.00219498
0.00222795
0.00222791
0.00221411
0.00221381
0.00221383
0.00222787
0.00221377
0.00219485
0.00220896
0.00220902
0.00219496
0.00219501
0.00220906
0.00220909
0.00219494
0.00220903
0.00221401
0.00222575
0.00222807
0.00221615
0.00222799
0.00221635
0.00221403
0.00221385
0.00222789
0.00222798
0.00221377
0.00221387
0.00222805
0.00222798
0.00221393
0.00220909
0.00220682
0.00219741
0.00219501
0.00220688
0.00220905
0.00219509
0.00220911
0.00220685
0.00219749
0.00219504
0.00220691
0.00220918
0.00219511
0.00220909
0.00219491
0.00220903
0.00219494
0.00220912
0.00219494
0.00220917
0.00219496
0.0022282
0.00221413
0.00222821
0.00221412
0.00220912
0.0021949
0.00219489
0.00220935
0.00220935
0.00219493
0.00220933
0.00219492
0.00220933
0.00219036
0.0021763
0.00219035
0.0021763
0.00219063
0.00219063
0.00217551
0.0021764
0.0021764
0.00215735
0.00217153
0.00215735
0.00217153
0.00217075
0.00215734
0.00215735
0.0021716
0.0021716
0.00217593
0.00219008
0.00218997
0.00217595
0.00217599
0.00219015
0.0021876
0.00217775
0.0021899
0.00217615
0.0021782
0.00217601
0.00219011
0.00218775
0.00217838
0.00218994
0.00217603
0.00217833
0.00217122
0.00215727
0.0021713
0.00215723
0.00217121
0.00215717
0.00217122
0.00215722
0.00217115
0.00216863
0.00215736
0.00215958
0.00217132
0.00216887
0.00215734
0.00217116
0.00216907
0.00215722
0.00215967
0.00217119
0.00216898
0.00215734
0.00219028
0.00219035
0.00217627
0.00217606
0.00217611
0.0021903
0.0021761
0.00215715
0.00217129
0.00217136
0.00215712
0.00215712
0.00217128
0.00217133
0.00215714
0.00217133
0.00217598
0.00219014
0.0021876
0.00217775
0.00218989
0.00217613
0.00217818