/*--------------------------------*- C++ -*----------------------------------*\
| =========                 |                                                 |
| \\      /  F ield         | OpenFOAM: The Open Source CFD Toolbox           |
|  \\    /   O peration     | Version:  v2006                                 |
|   \\  /    A nd           | Website:  www.openfoam.com                      |
|    \\/     M anipulation  |                                                 |
\*---------------------------------------------------------------------------*/
FoamFile
{
    version     2.0;
    format      ascii;
    class       volVectorField;
    location    "500";
    object      U;
}
// * * * * * * * * * * * * * * * * * * * * * * * * * * * * * * * * * * * * * //

dimensions      [0 1 -1 0 0 0 0];


internalField   nonuniform List<vector> 
14258
(
(-2.54751e-05 2.11043e-06 0.092307)
(-6.18647e-05 1.84013e-05 0.0823725)
(2.61843e-06 -1.08619e-05 0.0922988)
(1.59311e-05 -5.64076e-05 0.0823683)
(-8.40372e-05 4.27978e-05 0.0712291)
(4.1057e-05 -7.93481e-05 0.0712288)
(1.06481e-05 1.57853e-05 0.106329)
(-5.77913e-05 5.83115e-05 0.0878693)
(5.41998e-05 -5.18888e-05 0.0878688)
(-1.39487e-05 1.58772e-05 0.100511)
(9.67876e-05 9.3663e-05 0.10886)
(-1.96732e-05 5.51506e-06 0.0939748)
(2.67329e-05 9.00366e-05 0.110314)
(1.76542e-05 7.13381e-07 0.100508)
(9.09932e-05 0.000104107 0.108865)
(1.37088e-06 -1.12163e-05 0.0939734)
(8.80056e-05 4.01607e-05 0.110321)
(2.4933e-06 -7.21065e-06 0.0922929)
(1.79075e-05 4.61607e-08 0.100506)
(8.73162e-05 -2.02797e-06 0.110323)
(-2.8632e-05 1.6628e-05 0.0768505)
(-1.99449e-05 2.18384e-05 0.0922671)
(-3.67549e-05 2.06016e-06 0.0787018)
(-1.89928e-05 2.87362e-06 0.0905979)
(-3.28765e-05 1.02763e-05 0.0786783)
(-8.84769e-06 2.08676e-05 0.0905532)
(-3.92689e-05 9.05241e-06 0.0768805)
(-3.7755e-05 1.75508e-05 0.0681623)
(-4.56863e-05 1.45608e-05 0.0861191)
(-3.61079e-05 2.87536e-05 0.0823332)
(-3.12071e-05 2.53488e-05 0.0860804)
(-4.96329e-05 1.26724e-05 0.0681996)
(1.57822e-05 -1.9829e-05 0.0768441)
(2.19954e-05 -4.40741e-06 0.092262)
(1.1087e-06 -6.03212e-06 0.0905905)
(2.06717e-06 -3.10185e-05 0.0786929)
(1.84996e-05 4.69722e-06 0.0905489)
(1.00676e-05 -2.41326e-05 0.0786708)
(8.48613e-06 -3.28172e-05 0.0768737)
(1.61066e-05 -3.05904e-05 0.0681637)
(1.25095e-05 -3.70663e-05 0.0861163)
(2.5452e-05 -2.96782e-05 0.0823291)
(2.27794e-05 -2.12219e-05 0.0860814)
(1.18761e-05 -4.47152e-05 0.0681986)
(-5.08671e-05 4.47778e-05 0.0712182)
(4.23969e-05 -4.51368e-05 0.0712173)
(4.96003e-05 5.57444e-05 0.0836369)
(-9.55754e-05 3.75728e-05 0.0683818)
(3.51092e-05 -9.17359e-05 0.0683756)
(-8.3316e-05 3.17179e-05 0.068206)
(2.85545e-05 -7.86387e-05 0.0681985)
(5.50501e-05 6.0718e-05 0.0837046)
(2.39564e-05 4.16613e-05 0.0921776)
(-0.000142186 5.98992e-05 0.0816308)
(-2.48189e-05 3.89243e-05 0.0878718)
(4.67593e-05 2.2847e-05 0.0974189)
(-0.000109014 3.86788e-05 0.0816038)
(-9.09735e-06 4.42668e-05 0.092189)
(6.34923e-05 4.49647e-05 0.0973837)
(3.62146e-05 2.97309e-05 0.0921657)
(5.59924e-05 -0.000137819 0.0816249)
(3.45278e-05 -1.85885e-05 0.0878688)
(1.89797e-05 5.3096e-05 0.0974173)
(3.41419e-05 -0.000104233 0.0815924)
(3.84181e-05 -3.22275e-06 0.0921835)
(4.14236e-05 6.91099e-05 0.0973759)
(6.41752e-06 -1.28692e-05 0.0768068)
(2.18917e-05 -2.05888e-06 0.0922574)
(-5.7459e-07 -2.10607e-05 0.0786797)
(8.3759e-07 -7.63155e-06 0.0905754)
(8.19616e-06 -1.54414e-05 0.0786568)
(1.97915e-05 -4.99846e-06 0.0905346)
(-3.2606e-06 -1.7148e-05 0.0768362)
(2.00901e-06 -7.68307e-06 0.068205)
(-4.26407e-06 -5.4332e-06 0.0861292)
(1.10799e-05 -4.72697e-06 0.0860849)
(-6.07466e-06 -1.11411e-05 0.0682516)
(7.48267e-05 7.96118e-05 0.0986185)
(0.000134744 0.00013797 0.106164)
(2.63543e-05 4.9847e-05 0.103094)
(4.58416e-05 3.25876e-05 0.103093)
(5.79216e-05 6.38842e-05 0.0986568)
(0.000129471 7.37285e-05 0.103012)
(7.07811e-05 0.000133787 0.103007)
(1.55005e-05 0.000129903 0.104992)
(-9.07846e-06 5.16717e-05 0.100434)
(-3.9752e-06 9.19261e-06 0.0993046)
(-2.05255e-06 -1.87545e-05 0.105945)
(1.29808e-06 4.40702e-05 0.0992139)
(2.5336e-06 0.000140061 0.105789)
(1.22588e-05 -2.75172e-05 0.105182)
(2.66331e-05 0.000123087 0.10333)
(-1.06665e-05 8.73468e-06 0.0970039)
(3.7338e-06 2.10779e-05 0.0939127)
(3.84948e-05 -3.04404e-05 0.101198)
(-1.99289e-06 3.81204e-05 0.0969124)
(4.56793e-05 0.000100885 0.101107)
(2.45351e-05 -2.91839e-05 0.103505)
(0.000130866 2.43675e-05 0.104996)
(5.36559e-05 3.9544e-06 0.100435)
(7.69976e-06 8.45666e-06 0.0993022)
(-1.60236e-05 1.24906e-05 0.105947)
(4.26255e-05 1.19726e-05 0.0992145)
(0.000142519 1.37806e-05 0.105794)
(-2.69623e-05 2.38413e-05 0.105184)
(0.000121441 3.3577e-05 0.103333)
(6.5382e-06 -3.39269e-07 0.097002)
(1.68548e-05 1.19088e-05 0.0939122)
(-3.3144e-05 4.62195e-05 0.101197)
(3.59275e-05 7.10697e-06 0.096913)
(9.85245e-05 5.20231e-05 0.101107)
(-3.09291e-05 3.335e-05 0.103506)
(0.000139631 -3.54972e-06 0.104995)
(5.35076e-05 3.83233e-06 0.100435)
(-1.3986e-05 1.70704e-06 0.105946)
(1.42162e-05 -4.28619e-06 0.099293)
(0.000144387 5.26146e-06 0.105795)
(4.94656e-05 -1.09098e-06 0.0992088)
(-1.77247e-05 -6.90869e-06 0.105181)
(0.000128667 -1.20297e-05 0.103344)
(5.56586e-06 -5.36317e-06 0.0969923)
(3.75283e-05 -4.96877e-06 0.0969062)
(-2.63265e-05 -1.31224e-05 0.103515)
(-4.4272e-05 3.12527e-05 0.108774)
(-5.55295e-05 -9.1697e-06 0.110993)
(-7.34602e-05 -7.15357e-05 0.105369)
(-5.62937e-05 -9.7002e-06 0.110987)
(3.98749e-06 1.02942e-06 0.0913919)
(-3.05422e-05 -4.31922e-05 0.108788)
(3.56718e-05 3.74267e-05 0.105583)
(3.59775e-06 1.0229e-06 0.0709521)
(-2.92698e-05 -4.20537e-05 0.108776)
(-5.54951e-05 1.29891e-05 0.110993)
(-2.36981e-05 1.90132e-06 0.0929534)
(-7.524e-05 7.43306e-05 0.105369)
(-1.01372e-05 3.60318e-06 0.0871838)
(-5.02458e-06 5.53352e-07 0.0709044)
(-1.03189e-05 -3.49164e-06 0.0817061)
(-4.35156e-05 -2.66116e-05 0.108774)
(6.40402e-06 -5.43307e-05 0.110992)
(-1.93783e-06 -3.00448e-05 0.0991386)
(-6.26881e-06 -6.91743e-06 0.0871875)
(-1.63955e-06 -5.32492e-06 0.0872348)
(1.61946e-06 -3.83521e-06 0.0709529)
(-6.51733e-07 1.21118e-06 0.0992325)
(-9.48918e-08 -5.93379e-06 0.0930283)
(4.02603e-06 -7.86135e-07 0.0913922)
(5.04225e-06 -5.53827e-06 0.0817584)
(-8.3863e-07 1.5398e-06 0.0992322)
(-4.43599e-05 -2.75324e-05 0.108785)
(-7.13047e-07 5.28477e-06 0.0930286)
(5.97176e-06 3.54022e-06 0.0817552)
(3.48921e-06 3.88765e-07 0.0930297)
(2.99045e-06 5.76515e-06 0.0817551)
(1.73881e-07 3.64261e-06 0.0872351)
(2.89658e-06 9.06074e-07 0.0872368)
(6.67412e-07 3.47916e-06 0.070952)
(-1.30263e-05 -5.43666e-05 0.110991)
(-4.52411e-06 -2.28329e-05 0.0929555)
(-1.52094e-06 -2.99254e-05 0.0991392)
(-1.82015e-06 -1.23396e-05 0.0913383)
(6.84136e-07 -9.2921e-06 0.0817044)
(-2.91863e-07 -1.22333e-05 0.0913389)
(-4.06141e-06 -3.18072e-06 0.0709056)
(4.68949e-07 -3.35297e-06 0.0915704)
(3.73228e-06 1.28954e-06 0.0872246)
(2.75432e-06 1.52958e-06 0.0811263)
(-2.18681e-06 -2.17059e-06 0.096516)
(-5.84205e-06 1.73345e-06 0.0763424)
(2.4423e-06 -4.69175e-08 0.0781849)
(4.0097e-06 1.7438e-06 0.089767)
(-1.21811e-05 1.52597e-06 0.0913586)
(2.20661e-06 -1.613e-07 0.0763749)
(-5.33237e-06 5.44927e-07 0.0781582)
(-1.20859e-05 2.05973e-06 0.0897277)
(-3.55866e-06 -2.49598e-06 0.0709081)
(2.48698e-06 -2.4927e-06 0.0709476)
(-8.27193e-07 -5.29883e-07 0.0832631)
(1.61043e-06 -1.07933e-06 0.0678949)
(1.86678e-07 -2.71308e-06 0.0678978)
(2.35735e-06 -1.35853e-06 0.0915694)
(-9.90936e-06 2.19479e-07 0.0810944)
(-2.59074e-05 1.66234e-05 0.0964606)
(-2.18623e-06 -5.02197e-06 0.0872231)
(1.61716e-06 8.21963e-07 0.096512)
(-2.3247e-06 -3.81572e-06 0.0811282)
(-1.68922e-05 7.50929e-06 0.0915331)
(1.90925e-06 -3.52444e-06 0.0709466)
(2.01226e-06 -1.74091e-06 0.0678626)
(-8.525e-06 -3.19077e-06 0.0854062)
(4.67751e-06 -5.52261e-06 0.0817481)
(4.64151e-06 -3.85281e-06 0.0854538)
(-4.57946e-06 -3.36257e-06 0.0678108)
(-8.68329e-07 6.0062e-06 0.0915779)
(-1.7946e-05 -2.41153e-05 0.0964757)
(-3.70651e-06 -5.94384e-06 0.0810917)
(2.07848e-06 1.73243e-06 0.0872267)
(-9.02221e-06 -1.39952e-05 0.0915446)
(-2.98601e-06 3.8324e-06 0.0965243)
(8.57397e-07 1.95181e-06 0.0811274)
(4.06241e-06 -1.68071e-06 0.0897682)
(2.33323e-06 -1.496e-06 0.0781856)
(1.78298e-06 -1.32978e-06 0.0763781)
(4.76939e-06 -3.95396e-06 0.0854654)
(2.06469e-06 -1.61242e-06 0.067869)
(-3.98144e-06 1.85005e-06 0.067822)
(5.31489e-06 2.62236e-06 0.0854647)
(-9.61045e-06 2.08163e-06 0.0817133)
(2.88499e-06 -2.65313e-07 0.0678698)
(-8.26175e-06 2.33995e-06 0.0854192)
(1.1922e-06 -4.00003e-06 0.0678214)
(1.17618e-06 -9.60083e-06 0.0817134)
(1.67913e-06 5.37785e-06 0.0854642)
(9.46597e-07 -8.026e-06 0.0854188)
(-4.85658e-07 2.77815e-06 0.0678689)
(-1.6387e-05 -7.86039e-06 0.0915545)
(2.00728e-06 -1.24794e-06 0.0965366)
(-8.779e-06 -4.48145e-06 0.0871951)
(6.89795e-07 1.21922e-06 0.0811367)
(3.67018e-06 6.22918e-07 0.0915906)
(-2.61475e-05 -1.71185e-05 0.0964873)
(-7.69832e-06 -2.05977e-06 0.0811002)
(-8.60465e-06 -1.49648e-05 0.0915581)
(-2.59034e-06 3.41316e-06 0.0965441)
(-5.56132e-06 -7.68993e-06 0.0871976)
(9.66828e-07 1.02312e-06 0.0811355)
(-1.63985e-08 5.00793e-06 0.0915943)
(-1.83308e-05 -2.44659e-05 0.0964951)
(-2.59574e-06 -7.01981e-06 0.0810993)
(-6.18038e-06 -5.10217e-06 0.0832512)
(1.54886e-06 8.55677e-07 0.067903)
(6.56968e-07 1.83454e-06 0.0678988)
(4.849e-07 1.41134e-06 0.0832769)
(-2.18094e-06 -2.96295e-06 0.0678674)
(-3.41114e-06 -1.78731e-06 0.0678641)
(-3.23153e-06 -3.50959e-06 0.0709089)
(2.14234e-07 2.10337e-06 0.076369)
(-1.43502e-06 3.89647e-06 0.0913737)
(-1.4338e-06 -1.20492e-05 0.0897092)
(-1.16443e-06 -5.31941e-06 0.0781466)
(-1.11721e-06 4.09728e-06 0.0897524)
(-1.43272e-06 -5.84779e-06 0.0763306)
(-7.25948e-07 2.42134e-06 0.0781763)
(-5.57135e-07 2.80036e-06 0.0678634)
(9.61751e-07 -7.88412e-06 0.0854078)
(2.4098e-06 6.09497e-06 0.0817467)
(1.08669e-06 -3.95971e-06 0.0678159)
(1.72957e-06 5.51167e-06 0.0854533)
(-4.03593e-07 2.11102e-06 0.0763663)
(8.92931e-09 3.97917e-06 0.0913731)
(-9.15247e-08 -1.17291e-05 0.0897113)
(5.49957e-07 -5.36601e-06 0.0781475)
(9.81737e-07 -5.88915e-06 0.0763332)
(1.74916e-07 4.29443e-06 0.0897508)
(4.67587e-07 2.41576e-06 0.0781753)
(8.21968e-08 3.49299e-06 0.0709487)
(3.74628e-06 5.26238e-06 0.0978983)
(3.59684e-05 3.82155e-05 0.105558)
(-2.96962e-05 -6.45662e-05 0.102156)
(-6.65208e-05 -2.82811e-05 0.102162)
(-4.78496e-07 3.79305e-05 0.102256)
(-2.27128e-05 -2.15653e-05 0.0978356)
(3.6054e-05 1.05726e-06 0.102259)
(-2.36872e-05 -2.30073e-05 0.0978548)
(-9.79471e-07 3.73581e-05 0.102277)
(-7.43716e-05 -7.3036e-05 0.105394)
(3.53466e-05 2.90714e-07 0.102282)
(3.32694e-06 4.29289e-06 0.0979182)
(-3.02526e-05 -6.6092e-05 0.102179)
(-6.79294e-05 -2.92127e-05 0.102184)
(4.14968e-05 6.82157e-06 0.1023)
(-7.63059e-05 1.25504e-05 0.100039)
(-2.39153e-05 7.89676e-07 0.0958249)
(-7.79877e-07 -5.90328e-06 0.0930116)
(3.67807e-05 4.28406e-06 0.100118)
(4.15228e-06 -2.17343e-06 0.0959011)
(-8.23777e-05 1.02177e-05 0.102149)
(3.3443e-06 -4.3888e-06 0.0978851)
(-6.75971e-05 2.96513e-05 0.102152)
(-3.03441e-05 6.66812e-05 0.102149)
(3.48484e-05 -3.59185e-05 0.105554)
(-6.6661e-07 -3.6412e-05 0.102246)
(-2.34532e-05 2.24193e-05 0.0978216)
(3.53736e-05 -3.69694e-08 0.102249)
(3.60851e-06 3.50458e-05 0.104007)
(-1.72599e-06 -5.33868e-07 0.0992038)
(-1.23551e-06 -9.15291e-05 0.104627)
(-4.84678e-07 -2.95382e-05 0.0980075)
(2.88375e-06 -8.94466e-05 0.103832)
(-2.99232e-07 3.22282e-05 0.104768)
(-7.18286e-07 3.80318e-07 0.098085)
(3.24291e-05 4.61757e-06 0.104798)
(6.16908e-07 1.28033e-06 0.0981106)
(3.55344e-05 8.60557e-06 0.104036)
(3.72109e-05 6.09702e-06 0.100143)
(4.42346e-06 -1.4239e-06 0.0959222)
(4.19765e-05 8.96429e-06 0.102329)
(-9.00262e-05 -3.92961e-06 0.103859)
(3.20661e-05 -2.06283e-07 0.104797)
(-9.67888e-08 9.69344e-07 0.0981096)
(-3.02888e-05 1.87611e-06 0.0991673)
(3.47135e-05 -4.26823e-06 0.104033)
(-9.21791e-05 5.49938e-07 0.104655)
(-2.98317e-05 5.53538e-07 0.098034)
(-8.42542e-05 -7.64048e-06 0.102173)
(3.92616e-06 2.03956e-06 0.095922)
(3.65787e-05 -4.18195e-06 0.100142)
(-2.45188e-05 -2.23202e-06 0.0929704)
(4.06716e-05 -5.24459e-06 0.102325)
(-2.46082e-05 -3.82642e-07 0.095846)
(-7.7452e-05 -1.16635e-05 0.100062)
(-1.03386e-05 -8.33938e-05 0.102174)
(-6.2489e-06 3.77305e-05 0.100146)
(-4.28276e-06 -2.30747e-05 0.0929721)
(-5.83859e-08 4.54507e-06 0.0959222)
(-2.68078e-06 -2.38287e-05 0.0958461)
(-1.37326e-05 -7.62028e-05 0.100066)
(-7.83099e-06 4.15178e-05 0.102327)
(-7.50383e-06 4.18402e-05 0.1023)
(-1.34929e-05 -7.54638e-05 0.100044)
(-2.79824e-06 -2.36416e-05 0.0958256)
(3.06761e-06 8.88554e-07 0.093013)
(-6.1883e-06 3.80738e-05 0.100123)
(-1.00483e-05 -8.24136e-05 0.102149)
(-9.88712e-08 4.73376e-06 0.0959014)
(-7.3082e-06 3.56563e-05 0.104006)
(-1.27792e-06 -4.65942e-07 0.0992038)
(-3.19397e-06 -9.10859e-05 0.104627)
(-2.4655e-06 -2.88232e-05 0.0980091)
(-3.81779e-06 3.25922e-05 0.104768)
(-7.00086e-06 -8.85167e-05 0.103832)
(-1.73139e-06 8.21383e-07 0.0980846)
(-1.2072e-05 5.7718e-07 0.0913413)
(-2.99095e-05 5.32374e-07 0.0991418)
(-1.20972e-05 -1.19294e-06 0.0913414)
(-2.99824e-05 9.27536e-07 0.0991416)
(-2.34961e-05 -3.09591e-06 0.092954)
(-8.93302e-06 8.47806e-07 0.0817041)
(-7.22529e-06 -5.82014e-06 0.0871852)
(-2.95506e-06 -4.08614e-06 0.0709054)
(2.23038e-06 -1.03057e-06 0.076367)
(-5.31686e-06 -6.56265e-08 0.0781494)
(-1.17911e-05 1.05269e-06 0.0897128)
(4.05687e-06 2.14987e-07 0.0913745)
(2.42908e-06 -5.40932e-07 0.0781763)
(4.27207e-06 6.83133e-07 0.089752)
(-5.76779e-06 8.02205e-07 0.0763343)
(1.63902e-06 -1.63538e-06 0.0763698)
(-1.18749e-05 -1.72704e-06 0.0897124)
(-5.46411e-06 -1.95711e-06 0.0781498)
(3.97631e-06 -1.47594e-06 0.091375)
(3.93108e-06 -2.02671e-06 0.0897533)
(2.23072e-06 -1.83486e-06 0.0781769)
(-6.16112e-06 -2.90649e-06 0.0763344)
(3.02395e-06 -1.12949e-06 0.0678646)
(-7.7717e-06 1.42245e-06 0.0854084)
(6.47304e-06 2.23587e-06 0.0817466)
(5.73516e-06 1.7248e-06 0.0854541)
(-3.79463e-06 8.77599e-07 0.067817)
(5.21316e-06 -2.58091e-07 0.0915759)
(-2.52146e-05 -1.66599e-05 0.0964679)
(1.85406e-06 2.23789e-06 0.087226)
(-5.98119e-06 -3.67536e-06 0.0810917)
(3.32742e-06 -1.71558e-06 0.0965198)
(-1.50821e-05 -8.3451e-06 0.09154)
(2.15475e-06 6.88485e-07 0.081129)
(1.06944e-06 1.47715e-06 0.0832629)
(-1.54802e-06 -3.69848e-06 0.0678577)
(-3.75684e-06 -1.53316e-06 0.067856)
(-5.35818e-06 -4.69232e-06 0.0832411)
(1.77049e-06 8.6412e-07 0.0678934)
(1.05225e-06 1.64038e-06 0.0678895)
(3.80241e-06 -2.58898e-07 0.0709489)
(3.54359e-05 6.79818e-06 0.104008)
(-9.09543e-05 3.28575e-06 0.104629)
(-2.89439e-05 1.18958e-06 0.0980107)
(-6.26275e-07 -1.8367e-07 0.099206)
(4.11476e-07 -9.86514e-08 0.0980861)
(3.24976e-05 3.29174e-06 0.104771)
(-8.84417e-05 7.29759e-06 0.103835)
(3.50802e-05 -4.81263e-06 0.104007)
(-9.12108e-05 2.75396e-07 0.104628)
(-2.93801e-05 -1.69231e-07 0.0980107)
(-6.00052e-07 4.56543e-07 0.0992059)
(3.23317e-05 -9.25512e-07 0.10477)
(3.9502e-07 2.27403e-08 0.098086)
(-8.90801e-05 -4.07634e-06 0.103833)
(4.11096e-05 -5.7697e-06 0.1023)
(-2.40039e-05 -1.06205e-06 0.0958258)
(-7.65524e-05 -1.16617e-05 0.10004)
(7.19364e-07 4.02316e-06 0.0930126)
(4.59742e-06 1.20881e-06 0.0959017)
(3.72659e-05 -4.60383e-06 0.100121)
(-8.32577e-05 -7.85275e-06 0.102148)
(-9.61713e-05 4.77741e-05 0.0711478)
(4.67444e-05 -9.26454e-05 0.0711459)
(0.000141893 0.000148449 0.106091)
(-6.61749e-05 9.71424e-05 0.0877609)
(9.34799e-05 -6.10579e-05 0.0877557)
(-3.0837e-05 1.99148e-05 0.0922417)
(-7.98363e-05 4.0952e-05 0.0822929)
(-2.60535e-05 1.68481e-05 0.0922357)
(2.15913e-05 1.38851e-05 0.082289)
(-1.80401e-05 4.89057e-05 0.100399)
(7.75612e-05 8.85518e-05 0.108868)
(-2.83955e-05 5.21891e-05 0.0938634)
(1.72617e-05 8.78579e-05 0.110368)
(-2.21923e-05 4.51653e-05 0.100399)
(-0.000112655 9.26184e-05 0.10893)
(-2.59837e-06 2.13331e-05 0.0938863)
(-4.17295e-05 8.99429e-05 0.11037)
(3.35951e-05 1.68254e-05 0.0712636)
(-0.000175461 0.000179514 0.106276)
(2.25407e-05 4.14061e-05 0.0878616)
(-5.07677e-05 -3.61987e-05 0.0878522)
(-2.62029e-05 -5.05889e-05 0.0712533)
(2.06816e-05 -1.82892e-05 0.0922307)
(3.93576e-05 -7.57701e-05 0.0822884)
(5.02363e-05 -2.92904e-06 0.100392)
(8.36721e-05 8.85678e-05 0.108868)
(4.83504e-05 -2.00572e-05 0.0938596)
(8.35647e-05 3.61565e-05 0.11037)
(2.00552e-05 -1.27738e-05 0.0922215)
(1.01362e-05 -9.6322e-07 0.0822484)
(5.03831e-05 -4.47793e-06 0.100389)
(7.30285e-05 -4.51616e-05 0.108903)
(8.39656e-05 -6.87563e-06 0.110366)
(3.8565e-05 -1.07766e-05 0.0938479)
(-9.13363e-05 0.000119128 0.108922)
(-2.61597e-05 -6.42495e-06 0.0938767)
(-2.40411e-05 -4.19892e-05 0.0822892)
(1.73792e-06 -1.78481e-06 0.0712415)
(0.000115194 -0.000111023 0.106212)
(2.20151e-05 -8.50681e-06 0.0878364)
(-5.42957e-06 -3.11066e-05 0.0878278)
(-1.51975e-05 -1.1635e-05 0.0712329)
(1.89205e-06 -5.30122e-05 0.100358)
(5.15905e-05 -7.23056e-05 0.108895)
(2.25404e-05 -8.23437e-05 0.110349)
(1.47135e-06 -4.33419e-05 0.0938387)
(-8.48307e-06 -2.35699e-05 0.0921927)
(-1.90771e-05 -2.05434e-05 0.0822495)
(-0.000100352 3.00565e-05 0.0711758)
(2.98002e-05 -9.8092e-05 0.0711746)
(2.72685e-05 3.10424e-05 0.0838707)
(-7.08037e-05 4.16624e-05 0.0684567)
(4.0005e-05 -6.79461e-05 0.0684498)
(5.36399e-05 5.85911e-05 0.0837319)
(-3.54808e-05 2.66732e-05 0.0685757)
(2.58926e-05 -3.3811e-05 0.0685699)
(-7.27353e-05 7.48584e-05 0.0921909)
(-8.35212e-05 0.000110036 0.0877571)
(-0.000128247 9.8341e-05 0.0815676)
(4.27227e-05 7.08221e-05 0.0973234)
(-3.18489e-05 8.7477e-05 0.0921241)
(-8.92028e-05 0.000107693 0.0815915)
(-1.80146e-05 5.92116e-05 0.097365)
(6.92984e-05 -6.74749e-05 0.0921865)
(0.00010715 -7.92306e-05 0.087755)
(9.50528e-05 -0.000124824 0.0815578)
(6.66456e-05 4.92228e-05 0.0973136)
(8.15174e-05 -2.62814e-05 0.0921113)
(0.00010527 -8.65699e-05 0.0815878)
(5.51907e-05 -1.11855e-05 0.0973631)
(-5.72131e-05 8.45567e-06 0.0768386)
(-3.57238e-05 1.82913e-06 0.0922742)
(-3.92835e-05 1.01742e-05 0.0786465)
(-3.12215e-05 2.24459e-05 0.0905251)
(-5.16512e-05 1.77596e-05 0.0768183)
(-3.87855e-05 1.17791e-06 0.0786626)
(-4.44142e-05 7.06544e-06 0.0905593)
(-6.39273e-05 1.31442e-05 0.0681657)
(-9.25626e-05 2.70395e-05 0.0823075)
(-5.66773e-05 3.27518e-05 0.0860335)
(-6.13865e-05 2.09893e-05 0.068122)
(-6.49955e-05 1.98105e-05 0.0860627)
(-1.56796e-05 -4.32744e-06 0.0768171)
(-2.80585e-05 -1.41169e-06 0.092267)
(-2.63984e-05 6.80544e-06 0.0786366)
(-2.30917e-05 1.22746e-05 0.0905179)
(-1.78085e-05 4.40149e-06 0.0767927)
(-2.6657e-05 -1.93387e-06 0.078654)
(-1.97727e-05 -4.64658e-06 0.0905515)
(-3.38768e-06 -2.97045e-06 0.0682305)
(2.79251e-05 -1.08869e-06 0.0823142)
(-6.51365e-06 9.42526e-06 0.0860755)
(-4.24519e-06 3.67488e-06 0.0681893)
(-2.02398e-06 -3.9373e-06 0.0861069)
(3.51932e-05 5.97943e-06 0.0713012)
(-3.42459e-05 1.84419e-05 0.083855)
(1.88475e-05 1.55837e-05 0.0683692)
(-2.75574e-05 -3.32661e-05 0.0683787)
(-4.64847e-05 3.29674e-05 0.083784)
(1.10017e-05 7.30779e-06 0.06843)
(-1.91464e-05 -2.60028e-05 0.0684377)
(1.49081e-05 3.8979e-05 0.092216)
(3.32734e-05 4.08393e-05 0.0878849)
(4.62497e-05 4.49471e-05 0.0816563)
(-5.34068e-05 3.96028e-05 0.0973611)
(-1.76205e-05 1.9823e-05 0.0973841)
(-4.63124e-06 5.70668e-05 0.0921736)
(3.48951e-05 3.84422e-05 0.0816863)
(-4.82469e-05 -2.63845e-05 0.0922261)
(-5.24329e-05 -4.91208e-05 0.0878751)
(-5.5945e-05 -6.08474e-05 0.0816731)
(-4.39183e-05 4.87989e-05 0.0973598)
(-6.3029e-05 -4.28835e-06 0.0921819)
(-5.08087e-05 -5.04797e-05 0.0817016)
(-2.64477e-05 1.00223e-05 0.0973847)
(-1.57339e-05 -5.39745e-05 0.0712936)
(9.17318e-06 -5.59503e-05 0.0768334)
(2.61866e-06 -2.62992e-05 0.0922618)
(2.11081e-05 -1.97928e-05 0.0905164)
(1.04777e-05 -3.67704e-05 0.0786379)
(1.78364e-05 -4.78078e-05 0.076813)
(5.99713e-06 -3.53937e-05 0.0905493)
(1.65036e-06 -3.93655e-05 0.0786541)
(1.38e-05 -6.31381e-05 0.0681625)
(2.6409e-05 -9.00555e-05 0.0823035)
(3.13886e-05 -4.99017e-05 0.0860291)
(2.09604e-05 -5.856e-05 0.0681213)
(1.90739e-05 -6.03814e-05 0.0860557)
(-5.32627e-06 -2.21653e-05 0.0768019)
(1.47936e-06 -1.8729e-05 0.0922522)
(7.18728e-06 -2.54468e-05 0.0786225)
(1.81548e-05 -1.07153e-05 0.0904978)
(4.2817e-06 -1.81961e-05 0.0767734)
(-1.87059e-06 -2.91837e-05 0.078642)
(-4.17433e-07 -1.37588e-05 0.0905343)
(-7.56316e-06 -1.56709e-05 0.0682263)
(-7.67174e-06 -7.04357e-07 0.0822827)
(1.01524e-05 -8.27507e-06 0.0860508)
(5.40522e-07 -1.14772e-05 0.0681802)
(-5.5749e-06 -9.8917e-06 0.0860908)
(-5.64526e-06 -2.69091e-05 0.0682185)
(-9.99219e-06 -5.03881e-05 0.0823181)
(-1.79047e-05 -1.58642e-05 0.0860439)
(-1.18472e-05 -2.38394e-05 0.0681682)
(-5.61605e-06 -2.44181e-05 0.0860822)
(-7.55835e-06 -1.58792e-06 0.0712847)
(-3.48761e-06 -1.16023e-05 0.0838713)
(-3.70443e-06 -1.01064e-05 0.0682568)
(-4.1676e-06 -8.18778e-06 0.0682662)
(5.25749e-06 -1.83883e-05 0.083835)
(-9.81169e-06 -1.00256e-05 0.0682952)
(-4.60073e-06 -2.0168e-06 0.0683047)
(6.39944e-06 -5.59917e-07 0.0923537)
(1.02682e-05 7.71346e-07 0.0878701)
(1.64186e-05 -3.3886e-06 0.0816007)
(4.74849e-05 -2.80699e-05 0.0974368)
(1.53915e-05 -7.02343e-06 0.0974853)
(3.14171e-05 -1.10678e-05 0.0923109)
(2.4954e-06 -5.23614e-06 0.0816339)
(-1.09421e-05 -1.55284e-05 0.0923641)
(-1.10359e-05 -2.77314e-05 0.0816172)
(2.34284e-05 -5.16159e-05 0.0974356)
(-1.6784e-05 -2.16135e-05 0.0878623)
(2.27145e-06 -3.74125e-05 0.0923199)
(-1.01224e-05 -1.55152e-05 0.0816517)
(-7.27976e-07 -2.1752e-05 0.0974863)
(-1.73451e-05 -2.19764e-06 0.0712778)
(-8.82904e-06 -2.21673e-05 0.090478)
(-1.46483e-05 -8.98204e-06 0.0786168)
(-1.68897e-05 -1.08027e-05 0.0767841)
(-1.37808e-05 -1.88467e-05 0.08602)
(-1.63771e-05 -8.80887e-06 0.0681614)
(6.40607e-05 7.32761e-05 0.111165)
(1.86969e-05 6.77105e-05 0.111729)
(5.80195e-05 3.19337e-05 0.11173)
(1.8639e-05 3.00148e-05 0.112059)
(-7.70786e-05 8.31878e-05 0.111165)
(-3.13717e-05 7.11749e-05 0.111723)
(-6.2729e-05 4.21448e-05 0.111715)
(-2.45601e-05 3.3569e-05 0.112053)
(-3.62038e-05 -2.68145e-05 0.111146)
(-5.32514e-05 6.53939e-07 0.11171)
(-1.25482e-05 -4.35826e-05 0.111712)
(-1.91974e-05 -7.75731e-06 0.11205)
(5.23533e-05 -4.63211e-05 0.111156)
(5.61837e-05 -1.13234e-05 0.111725)
(2.21554e-05 -4.78033e-05 0.111717)
(2.06839e-05 -1.17197e-05 0.112055)
(3.45794e-05 4.12458e-05 0.0986131)
(3.05001e-06 1.0903e-05 0.106277)
(0.00014601 8.63715e-05 0.102943)
(8.12511e-05 0.000153079 0.102936)
(8.61111e-05 9.27659e-05 0.0985331)
(4.27272e-06 4.99441e-05 0.103045)
(4.41976e-05 1.24614e-05 0.103043)
(-1.68729e-07 -2.16771e-05 0.105158)
(-2.21801e-05 1.59017e-05 0.100475)
(-8.59256e-06 4.4605e-05 0.0991826)
(-8.44225e-06 0.000137364 0.105765)
(6.66044e-06 0.000129422 0.104967)
(-1.66492e-05 1.57627e-05 0.0992679)
(-1.29788e-05 -1.68178e-05 0.105922)
(7.64166e-06 -1.85199e-05 0.103479)
(-5.57562e-05 5.23176e-05 0.0939034)
(-1.45871e-05 4.74809e-05 0.0968787)
(3.47168e-05 0.000114858 0.101074)
(1.61465e-06 -5.81952e-06 0.101163)
(2.13891e-05 0.000128231 0.103303)
(-2.7276e-05 2.61775e-05 0.0969567)
(-4.29802e-05 -3.22108e-05 0.105167)
(-2.54202e-05 1.17635e-05 0.100473)
(-2.75735e-05 3.4282e-05 0.0991851)
(-2.40179e-05 0.000132425 0.105766)
(-3.95434e-05 0.000121652 0.104978)
(-2.7239e-05 3.16593e-06 0.0992674)
(-3.01723e-05 -2.30611e-05 0.105923)
(-5.53553e-05 -4.82728e-05 0.103503)
(1.37816e-05 1.00397e-05 0.0939329)
(-2.22591e-05 2.11181e-05 0.0968963)
(-6.35688e-05 9.2131e-05 0.101131)
(-5.98902e-05 0.000101329 0.103339)
(-1.61275e-05 -4.09549e-06 0.0969724)
(-4.3647e-05 -3.39381e-05 0.101196)
(-3.6446e-05 3.14659e-05 0.0986426)
(-3.58795e-05 3.6931e-05 0.10643)
(-0.000167496 8.40498e-05 0.103072)
(-8.33444e-05 0.00016964 0.103071)
(-3.22207e-05 4.37809e-05 0.103123)
(-7.42819e-05 7.24478e-05 0.0986032)
(-4.55592e-05 3.08399e-05 0.103124)
(-2.2329e-05 1.40167e-05 0.105155)
(1.66923e-05 -7.61188e-06 0.100465)
(4.29535e-05 4.54589e-06 0.0991767)
(0.000139518 7.96115e-06 0.105764)
(0.000129236 1.98998e-05 0.104965)
(1.39071e-05 -3.92803e-06 0.0992599)
(-1.52331e-05 4.17235e-06 0.105918)
(-2.12353e-05 1.83128e-05 0.103477)
(4.88666e-05 -4.78627e-05 0.0938993)
(4.5362e-05 -3.93163e-06 0.0968746)
(0.000111555 4.29728e-05 0.101071)
(-9.23495e-06 1.00809e-05 0.10116)
(0.000125989 3.13369e-05 0.103301)
(2.41194e-05 -1.70733e-05 0.0969511)
(-1.81995e-05 -1.34399e-05 0.105145)
(1.61853e-05 -8.93304e-06 0.100459)
(0.000140879 -8.66799e-07 0.105762)
(4.71754e-05 -8.82258e-06 0.0991642)
(0.000137172 -9.42391e-06 0.104959)
(-1.52746e-05 -6.28216e-06 0.105914)
(1.35332e-05 -1.08592e-05 0.0992459)
(-2.69393e-05 -1.75425e-05 0.103474)
(1.40413e-05 -7.48877e-07 0.0939044)
(3.80404e-05 -1.11098e-05 0.0968632)
(0.000114278 -2.30734e-05 0.101107)
(0.000126861 -1.77603e-05 0.103304)
(6.93881e-06 -9.26632e-06 0.0969443)
(-2.19005e-05 -1.43102e-05 0.101196)
(4.45891e-05 5.10038e-05 0.103488)
(-1.7038e-05 -2.70201e-05 0.0939244)
(-2.64491e-05 1.56023e-05 0.0968752)
(-9.36933e-05 6.15949e-05 0.101124)
(-0.000103848 6.04304e-05 0.103323)
(3.07176e-05 3.76622e-05 0.101189)
(-2.27153e-06 4.32599e-06 0.0969537)
(6.75321e-06 -1.16503e-05 0.0988551)
(-2.4514e-05 2.57888e-05 0.106418)
(5.69329e-05 -9.91398e-05 0.103114)
(0.000101545 -5.62447e-05 0.103113)
(2.07778e-05 2.78522e-05 0.103228)
(4.28877e-05 -4.4467e-05 0.0987773)
(-2.87852e-05 -2.2807e-05 0.103227)
(8.04044e-06 -0.000144591 0.105737)
(4.73726e-06 -4.83763e-05 0.0991399)
(1.42551e-05 -0.000137671 0.104939)
(4.25791e-06 -4.31996e-05 0.0968422)
(2.11217e-05 -0.000115651 0.1011)
(1.8426e-05 -0.000129349 0.103288)
(0.000102371 -3.3167e-05 0.0711884)
(-3.19039e-05 9.96337e-05 0.0711866)
(-3.68332e-05 -3.57458e-05 0.106248)
(9.18478e-05 -7.95849e-05 0.0877934)
(-7.72502e-05 8.92797e-05 0.0877905)
(2.75993e-05 -2.10032e-05 0.0920061)
(-7.56081e-07 7.43858e-05 0.0820736)
(0.000156551 -6.0128e-05 0.104753)
(2.00443e-05 -0.000105203 0.108951)
(4.16343e-05 2.21781e-05 0.0936392)
(7.00083e-05 -6.74487e-05 0.110465)
(2.37477e-05 -1.96478e-05 0.0920123)
(0.000141661 -3.60642e-05 0.10558)
(7.42006e-05 -5.21142e-05 0.110469)
(9.71797e-05 -3.41786e-05 0.0712465)
(-3.31106e-05 9.46598e-05 0.0712453)
(-4.14775e-05 -4.49896e-05 0.0838801)
(5.78486e-05 -5.36266e-05 0.0678146)
(-5.17311e-05 5.49102e-05 0.06781)
(1.88558e-05 -4.52769e-05 0.0678572)
(-4.35808e-05 1.62003e-05 0.0678524)
(-5.19849e-05 -5.58168e-05 0.0839966)
(8.97038e-05 -9.0425e-05 0.0928445)
(0.000113839 -9.3537e-05 0.0815449)
(-4.07349e-05 2.95892e-05 0.0976235)
(8.79214e-05 -0.000115058 0.087866)
(6.73638e-05 -0.000118242 0.0815884)
(7.26267e-05 -5.51285e-05 0.0928256)
(8.03672e-06 -3.69791e-05 0.0977426)
(-8.80721e-05 8.73656e-05 0.0928391)
(-9.24605e-05 0.00011109 0.0815421)
(2.87532e-05 -4.06435e-05 0.0976219)
(-0.000112992 8.49722e-05 0.0878644)
(-0.000116653 6.4517e-05 0.0815862)
(-3.60904e-05 6.77487e-06 0.0977391)
(-5.34498e-05 7.14041e-05 0.092821)
(-1.02606e-05 4.1297e-05 0.0766869)
(2.97882e-05 -1.82759e-05 0.0902978)
(6.43175e-06 1.70339e-05 0.0784968)
(8.08186e-06 -7.29897e-06 0.092038)
(6.43869e-06 2.16982e-06 0.0903425)
(-3.13976e-06 2.88033e-05 0.0785297)
(1.68853e-06 2.2025e-05 0.0766482)
(-2.08151e-05 5.32674e-05 0.0681723)
(5.73461e-06 1.95023e-05 0.0858854)
(-2.41321e-05 8.87332e-05 0.082144)
(-1.6087e-05 3.75832e-05 0.0859575)
(-1.07314e-05 3.71657e-05 0.0681086)
(2.52409e-06 1.05819e-05 0.0767327)
(8.70973e-06 1.07064e-05 0.0785106)
(5.76718e-06 -9.35709e-06 0.0920462)
(1.68668e-05 -2.02748e-05 0.0903185)
(5.33073e-07 2.02232e-05 0.0785456)
(3.73296e-07 -1.23423e-05 0.0903613)
(9.42273e-06 3.79926e-06 0.0766894)
(4.57276e-05 5.5681e-05 0.111227)
(-3.03531e-05 2.23079e-05 0.100425)
(-2.92379e-05 1.66513e-05 0.100421)
(9.36187e-05 -6.67706e-05 0.0938034)
(2.5986e-06 -2.95591e-05 0.0921993)
(1.82952e-05 -1.84874e-05 0.100405)
(-8.68036e-05 8.79357e-05 0.108906)
(-8.85047e-05 3.15588e-06 0.110382)
(-1.73993e-06 -1.59892e-05 0.0922035)
(-3.44405e-05 2.76194e-05 0.106399)
(1.29172e-05 -8.37241e-05 0.110382)
(-5.3327e-05 -6.86468e-05 0.108945)
(4.30154e-06 1.22656e-05 0.106542)
(2.981e-06 1.50904e-07 0.0712974)
(9.54411e-05 -0.000106594 0.106172)
(2.32237e-05 -1.29267e-05 0.111929)
(-7.86906e-05 4.47456e-05 0.108888)
(-3.42015e-05 5.96005e-05 0.100298)
(-2.99099e-05 5.32766e-05 0.100296)
(0.000127435 -5.16587e-05 0.09368)
(2.16112e-05 -3.29746e-05 0.0921176)
(5.32839e-05 -2.31598e-05 0.100281)
(-1.99659e-05 -1.98828e-05 0.0921351)
(-3.83492e-05 6.49371e-05 0.1118)
(-5.94467e-05 -6.87676e-06 0.111781)
(1.49765e-05 -5.12761e-05 0.111785)
(-4.00538e-06 -2.27134e-05 0.0712095)
(2.67445e-05 -7.2271e-05 0.108911)
(-6.02648e-06 -4.71921e-05 0.0937497)
(-4.99977e-05 -5.08948e-06 0.0711631)
(-4.20088e-06 -5.0159e-05 0.0711616)
(-5.5313e-05 0.000104464 0.0877058)
(0.000103412 -5.32832e-05 0.0877031)
(-5.24719e-05 -4.40087e-05 0.106272)
(-4.13458e-05 5.42662e-06 0.092219)
(-7.43327e-05 2.37177e-05 0.0822155)
(-2.97535e-05 1.35964e-06 0.0922126)
(2.00509e-05 -1.0725e-06 0.0822513)
(-7.21967e-05 9.58106e-05 0.0938083)
(2.30715e-05 6.94627e-05 0.108888)
(-2.36066e-06 8.37601e-05 0.110419)
(1.89761e-05 3.34831e-05 0.0938586)
(-5.11537e-05 8.63784e-05 0.110417)
(-9.33891e-05 8.29348e-05 0.108917)
(1.05671e-05 -6.29439e-06 0.0712793)
(1.83285e-05 3.60189e-05 0.0878448)
(-7.82593e-06 1.10378e-06 0.106315)
(-4.9462e-05 -3.58761e-05 0.0878342)
(-2.73277e-06 -2.94023e-05 0.0712782)
(2.45924e-05 -7.46048e-05 0.0822127)
(5.87926e-06 -3.95498e-05 0.0922077)
(2.18877e-05 -2.01737e-05 0.100412)
(6.3738e-05 3.45547e-05 0.108887)
(7.84897e-05 1.56609e-05 0.110415)
(-9.53397e-06 -8.69702e-06 0.0822446)
(6.78611e-05 -4.41529e-05 0.108914)
(8.10382e-05 -1.80338e-05 0.110405)
(1.24995e-05 -3.27605e-06 0.0938532)
(-8.88863e-05 4.6161e-05 0.110393)
(-4.35168e-05 -3.90798e-05 0.0938535)
(-1.66664e-05 1.65187e-06 0.100398)
(-1.05247e-05 -4.22495e-05 0.0822618)
(-3.57942e-06 -1.67335e-05 0.0922066)
(-7.39244e-05 -4.17441e-05 0.108944)
(-1.54345e-05 -2.62559e-06 0.100395)
(1.35147e-05 -4.47685e-06 0.0938916)
(9.72845e-06 -5.7362e-06 0.082284)
(-1.098e-05 -1.38387e-05 0.0712684)
(-9.97657e-07 -6.59495e-06 0.0878431)
(-1.12667e-05 -1.22592e-05 0.0878389)
(-5.09964e-06 2.85162e-06 0.0712695)
(3.88482e-05 -7.20907e-05 0.108904)
(-1.71283e-05 -2.34256e-05 0.0938497)