/*--------------------------------*- C++ -*----------------------------------*\
| =========                 |                                                 |
| \\      /  F ield         | OpenFOAM: The Open Source CFD Toolbox           |
|  \\    /   O peration     | Version:  v2006                                 |
|   \\  /    A nd           | Website:  www.openfoam.com                      |
|    \\/     M anipulation  |                                                 |
\*---------------------------------------------------------------------------*/
FoamFile
{
    version     2.0;
    format      ascii;
    class       volScalarField;
    location    "625";
    object      nut;
}
// * * * * * * * * * * * * * * * * * * * * * * * * * * * * * * * * * * * * * //

dimensions      [0 2 -1 0 0 0 0];


internalField   nonuniform List<scalar> 
171728
(
9.88959e-05
8.2097e-05
0.000142048
9.65774e-05
9.65787e-05
8.2154e-05
0.000138119
9.47929e-05
9.4787e-05
8.26984e-05
0.000134288
9.35044e-05
9.3501e-05
8.36377e-05
0.000130631
9.27513e-05
9.27484e-05
8.50168e-05
0.000127159
9.24677e-05
9.24665e-05
8.6688e-05
0.000123911
9.26281e-05
9.26438e-05
8.865e-05
8.21063e-05
8.22072e-05
9.88618e-05
9.71049e-05
9.70805e-05
8.22073e-05
8.21537e-05
8.26583e-05
9.65566e-05
9.6541e-05
9.51634e-05
9.51534e-05
8.21497e-05
8.26551e-05
9.65744e-05
9.65422e-05
9.51882e-05
9.5151e-05
9.6554e-05
9.51886e-05
9.5166e-05
8.21538e-05
8.26517e-05
9.6575e-05
9.5188e-05
9.5191e-05
8.26546e-05
8.27014e-05
8.35221e-05
9.4767e-05
9.47546e-05
9.37486e-05
9.37333e-05
8.26979e-05
8.35175e-05
9.47866e-05
9.47509e-05
9.37736e-05
9.37407e-05
9.4771e-05
9.37725e-05
9.37447e-05
8.26929e-05
8.35206e-05
9.47885e-05
9.37718e-05
9.37687e-05
8.35123e-05
8.36484e-05
8.48059e-05
9.34808e-05
9.34664e-05
9.28607e-05
9.28536e-05
8.3643e-05
8.48047e-05
9.34968e-05
9.34679e-05
9.28845e-05
9.28545e-05
9.34733e-05
9.2883e-05
9.28581e-05
8.36453e-05
8.48067e-05
9.34893e-05
9.28878e-05
9.28855e-05
8.48027e-05
8.50209e-05
8.64317e-05
9.27274e-05
9.27189e-05
9.24621e-05
9.24601e-05
8.50171e-05
8.64263e-05
9.27438e-05
9.27157e-05
9.24907e-05
9.24654e-05
9.27235e-05
9.24842e-05
9.24559e-05
8.5019e-05
8.6433e-05
9.2743e-05
9.24976e-05
9.24831e-05
8.64166e-05
8.67003e-05
8.83196e-05
9.24398e-05
9.2437e-05
9.25364e-05
9.25126e-05
8.66961e-05
8.83002e-05
9.24597e-05
9.24369e-05
9.25613e-05
9.25175e-05
9.24396e-05
9.25387e-05
9.25375e-05
8.67006e-05
8.83035e-05
9.24529e-05
9.25545e-05
9.25571e-05
8.83218e-05
8.86501e-05
9.26274e-05
9.25998e-05
9.30188e-05
8.8621e-05
9.0423e-05
9.26398e-05
9.26113e-05
9.26258e-05
9.30471e-05
9.30261e-05
8.86332e-05
9.26371e-05
9.30441e-05
9.04215e-05
2.36157e-05
2.36124e-05
7.00643e-05
6.76743e-05
0.000122225
9.82659e-05
6.83728e-05
0.00012126
6.90281e-05
6.20256e-05
6.20241e-05
8.20621e-05
6.2435e-05
6.24321e-05
7.38131e-05
4.95939e-05
7.30528e-05
4.96012e-05
2.36044e-05
2.36014e-05
7.38044e-05
4.95895e-05
7.30539e-05
4.95968e-05
0.000186671
0.000166401
0.000186668
0.000139072
0.000139067
0.000139066
0.000139069
7.3068e-05
6.9463e-05
0.000118521
9.60795e-05
7.19802e-05
7.0143e-05
0.000117618
2.36031e-05
2.36001e-05
7.30653e-05
0.000118524
7.33217e-05
9.60834e-05
7.42463e-05
0.000117623
7.01473e-05
6.29018e-05
6.29008e-05
8.23698e-05
6.32748e-05
6.32739e-05
7.53422e-05
4.96099e-05
7.46758e-05
4.96164e-05
2.3594e-05
2.35913e-05
7.53367e-05
4.96055e-05
7.46807e-05
4.96119e-05
0.000138117
0.00013811
0.000138117
0.000135227
0.000135213
0.000135221
0.00013522
7.60842e-05
7.11573e-05
0.000115123
9.44216e-05
7.49574e-05
7.18207e-05
0.00011432
2.35927e-05
2.359e-05
7.60644e-05
0.000115123
7.11586e-05
9.44202e-05
7.49616e-05
0.000114317
7.18182e-05
6.37142e-05
6.37108e-05
8.30368e-05
6.40499e-05
6.40478e-05
7.67147e-05
4.96241e-05
7.6115e-05
4.96297e-05
2.35846e-05
2.35822e-05
7.67046e-05
4.96197e-05
7.61197e-05
4.96253e-05
0.000134294
0.00013428
0.000134275
0.000131523
0.000131506
0.000131521
0.000131515
7.90186e-05
7.27468e-05
0.000112028
9.32621e-05
7.78758e-05
7.33939e-05
0.000111314
2.35832e-05
2.35809e-05
7.90067e-05
0.000112023
7.27484e-05
9.32606e-05
7.78821e-05
0.000111311
7.33917e-05
6.44536e-05
6.44503e-05
8.40973e-05
6.47693e-05
6.47659e-05
7.79339e-05
4.96364e-05
7.73972e-05
4.96416e-05
2.35762e-05
2.35741e-05
7.79318e-05
4.96321e-05
7.73988e-05
4.96373e-05
0.000130646
0.000130624
0.000130627
0.000127996
0.000127978
0.000127996
0.00012799
8.18688e-05
7.42548e-05
0.000109325
9.26307e-05
8.07261e-05
7.48826e-05
0.000108709
2.35748e-05
2.35727e-05
8.18665e-05
0.000109323
7.42549e-05
9.2637e-05
8.07331e-05
0.000108716
7.48803e-05
6.51489e-05
6.51472e-05
8.55778e-05
6.5439e-05
6.54354e-05
7.90472e-05
4.96479e-05
7.85568e-05
4.96528e-05
2.35687e-05
2.35669e-05
7.90431e-05
4.96434e-05
7.85601e-05
4.96484e-05
0.000127174
0.000127151
0.000127147
0.000124686
0.000124651
0.000124677
0.00012468
8.46019e-05
7.5671e-05
0.00010702
9.24573e-05
8.34645e-05
7.62866e-05
0.000106502
2.35673e-05
2.35656e-05
8.46002e-05
0.000107023
7.56751e-05
9.24652e-05
8.34758e-05
0.000106519
7.62805e-05
6.57894e-05
6.57862e-05
8.73303e-05
6.6066e-05
6.60619e-05
8.00619e-05
4.96585e-05
7.96183e-05
4.96632e-05
2.35622e-05
2.35608e-05
8.00574e-05
4.9654e-05
7.96152e-05
4.96589e-05
0.000123919
0.000123897
0.000123904
0.000121599
0.000121632
8.72232e-05
7.70089e-05
0.000105135
9.27298e-05
8.60982e-05
7.7609e-05
0.000104735
2.35608e-05
2.35594e-05
8.72237e-05
0.000105143
7.70194e-05
9.27515e-05
8.61031e-05
0.000104742
7.761e-05
6.63962e-05
6.63938e-05
8.93456e-05
6.66475e-05
6.66444e-05
6.20264e-05
6.20309e-05
8.20743e-05
6.24335e-05
6.24386e-05
2.36166e-05
2.36133e-05
2.36068e-05
2.36099e-05
8.21786e-05
6.28594e-05
6.28638e-05
6.24725e-05
6.24777e-05
2.36077e-05
2.36108e-05
7.20593e-05
4.95728e-05
4.9581e-05
7.12026e-05
7.00652e-05
0.000122219
6.76688e-05
9.82324e-05
0.000121253
6.83659e-05
6.90225e-05
7.20569e-05
4.95695e-05
4.95778e-05
7.11999e-05
7.05049e-05
9.76734e-05
6.92692e-05
0.000119403
6.85806e-05
0.000120341
7.15644e-05
7.21632e-05
4.95899e-05
4.95822e-05
7.29553e-05
7.04985e-05
9.76437e-05
0.000119401
6.92627e-05
0.000120336
6.85847e-05
7.15682e-05
7.21612e-05
4.95868e-05
4.95791e-05
7.2954e-05
2.36157e-05
2.36124e-05
2.36146e-05
2.36113e-05
8.21706e-05
6.2863e-05
6.28617e-05
6.24757e-05
6.24727e-05
2.36067e-05
2.36099e-05
2.36057e-05
2.36088e-05
2.3606e-05
2.3603e-05
2.3604e-05
2.36011e-05
6.29085e-05
6.29043e-05
8.23747e-05
6.32836e-05
6.32792e-05
2.35978e-05
2.36006e-05
2.35959e-05
2.35987e-05
8.23734e-05
6.36778e-05
6.36732e-05
6.3322e-05
6.33176e-05
7.38109e-05
4.95901e-05
7.305e-05
4.95974e-05
7.30635e-05
7.33258e-05
0.000118523
9.60599e-05
7.42514e-05
7.01506e-05
0.000117611
7.30663e-05
7.33201e-05
0.000118513
9.60452e-05
7.4249e-05
7.0145e-05
0.000117609
7.38939e-05
4.96089e-05
4.96022e-05
7.4602e-05
7.38911e-05
4.96052e-05
4.95984e-05
7.46003e-05
7.34875e-05
9.56017e-05
7.10004e-05
0.000115904
7.03239e-05
0.000116783
7.457e-05
7.34803e-05
9.55869e-05
7.09943e-05
0.000115903
7.03205e-05
0.000116772
7.45735e-05
6.29e-05
6.2904e-05
8.23683e-05
6.32776e-05
6.32809e-05
2.36053e-05
2.36023e-05
2.35962e-05
2.35991e-05
8.23671e-05
6.36708e-05
6.36758e-05
6.3316e-05
6.33198e-05
2.35971e-05
2.36e-05
7.30668e-05
7.33258e-05
0.000118517
9.6083e-05
7.42467e-05
7.01448e-05
0.000117621
7.38071e-05
4.9586e-05
7.30465e-05
4.95932e-05
7.30688e-05
0.000118509
7.22289e-05
9.60476e-05
7.42476e-05
0.000117612
7.01419e-05
7.3897e-05
4.96045e-05
4.95978e-05
7.45951e-05
7.34797e-05
9.56205e-05
7.09958e-05
0.000115915
7.03223e-05
0.000116778
7.45746e-05
7.38864e-05
4.96012e-05
4.95942e-05
7.45994e-05
7.34718e-05
9.55836e-05
0.000115906
7.09853e-05
0.000116768
7.0319e-05
7.45757e-05
7.37992e-05
4.95911e-05
7.30524e-05
4.95984e-05
7.30748e-05
0.000118521
6.9463e-05
9.60573e-05
7.19763e-05
0.000117618
7.0136e-05
7.37996e-05
4.95879e-05
7.30517e-05
4.95953e-05
7.34653e-05
9.56211e-05
7.09958e-05
0.000115916
7.03208e-05
0.000116779
7.45828e-05
7.38927e-05
4.96064e-05
4.95995e-05
7.46002e-05
7.34635e-05
9.55982e-05
0.000115914
7.0994e-05
0.00011678
7.03219e-05
7.45857e-05
7.38931e-05
4.96031e-05
4.95963e-05
7.45972e-05
6.29004e-05
6.29078e-05
8.23709e-05
6.32763e-05
6.32834e-05
2.36048e-05
2.36019e-05
2.35949e-05
2.35978e-05
8.23687e-05
6.3668e-05
6.36762e-05
6.33151e-05
6.33222e-05
2.35967e-05
2.35995e-05
7.30682e-05
0.000118525
7.33252e-05
9.60841e-05
7.42505e-05
0.000117624
7.01417e-05
7.38056e-05
4.95903e-05
7.3058e-05
4.95975e-05
7.38024e-05
4.95863e-05
7.3058e-05
4.95935e-05
7.34841e-05
9.56212e-05
0.000115917
7.09911e-05
0.000116784
7.03266e-05
7.45717e-05
7.34785e-05
9.56195e-05
0.000115916
7.09946e-05
0.000116783
7.03195e-05
7.45711e-05
7.3897e-05
4.96053e-05
4.95985e-05
7.45939e-05
7.38944e-05
4.96012e-05
4.95945e-05
7.45892e-05
2.36043e-05
2.36013e-05
2.36033e-05
2.36003e-05
8.23677e-05
6.36767e-05
6.36732e-05
6.33149e-05
6.33136e-05
2.35962e-05
2.3599e-05
2.35951e-05
2.3598e-05
2.35956e-05
2.35929e-05
2.35936e-05
2.3591e-05
6.37159e-05
6.37116e-05
8.30431e-05
6.40579e-05
6.40538e-05
2.35882e-05
2.35907e-05
2.35863e-05
2.35888e-05
8.31262e-05
6.44245e-05
6.44187e-05
6.40951e-05
6.40908e-05
7.53399e-05
4.96061e-05
7.46735e-05
4.96125e-05
7.60607e-05
7.11548e-05
0.000115121
9.43975e-05
7.4965e-05
7.18212e-05
0.000114304
7.60637e-05
7.11527e-05
0.00011511
9.43831e-05
7.49587e-05
7.18144e-05
0.000114302
7.54127e-05
4.96233e-05
4.96172e-05
7.60491e-05
7.54093e-05
4.96195e-05
4.96134e-05
7.60456e-05
7.64285e-05
9.40591e-05
7.26229e-05
0.00011275
7.19637e-05
0.000113518
7.75463e-05
7.64212e-05
9.40458e-05
7.26137e-05
0.000112746
7.19578e-05
0.000113507
7.75467e-05
6.37087e-05
6.37139e-05
8.30396e-05
6.40503e-05
6.40558e-05
2.35949e-05
2.35922e-05
2.35867e-05
2.35892e-05
8.3122e-05
6.44151e-05
6.442e-05
6.40872e-05
6.40926e-05
2.35875e-05
2.359e-05
7.60653e-05
7.1154e-05
0.000115117
9.44223e-05
7.49605e-05
7.18161e-05
0.000114316
7.53431e-05
4.96021e-05
7.46728e-05
4.96085e-05
7.60703e-05
0.000115109
7.1152e-05
9.43872e-05
7.49545e-05
0.000114309
7.18145e-05
7.54181e-05
4.96189e-05
4.96128e-05
7.60427e-05
7.64256e-05
9.40775e-05
7.26166e-05
0.000112761
7.19612e-05
0.000113514
7.75514e-05
7.54114e-05
4.96153e-05
4.96093e-05
7.60465e-05
7.64239e-05
9.40497e-05
0.000112755
7.26082e-05
0.000113509
7.1963e-05
7.75536e-05
7.5342e-05
4.96073e-05
7.4687e-05
4.96136e-05
7.60836e-05
0.000115122
7.11584e-05
9.43928e-05
7.49511e-05
0.000114316
7.18083e-05
7.53391e-05
4.9604e-05
7.46839e-05
4.96104e-05
7.64268e-05
9.40863e-05
7.26165e-05
0.000112765
7.19658e-05
0.000113526
7.75567e-05
7.54218e-05
4.96204e-05
4.96144e-05
7.60382e-05
7.64187e-05
9.40576e-05
0.000112759
7.26113e-05
0.000113521
7.19626e-05
7.75596e-05
7.54197e-05
4.96173e-05
4.96113e-05
7.60377e-05
6.37061e-05
6.37144e-05
8.30366e-05
6.40524e-05
6.40595e-05
2.35944e-05
2.35918e-05
2.35853e-05
2.35879e-05
8.31227e-05
6.44131e-05
6.44205e-05
6.40896e-05
6.40963e-05
2.35871e-05
2.35896e-05
7.60652e-05
0.000115122
7.11523e-05
9.44163e-05
7.49541e-05
0.000114317
7.18099e-05
7.53387e-05
4.96062e-05
7.46801e-05
4.96126e-05
7.53366e-05
4.96022e-05
7.46768e-05
4.96088e-05
7.64317e-05
9.40813e-05
0.00011276
7.26126e-05
0.00011352
7.19665e-05
7.75468e-05
7.64266e-05
9.4075e-05
0.00011276
7.26135e-05
0.00011352
7.19584e-05
7.75502e-05
7.54206e-05
4.96195e-05
4.96134e-05
7.60417e-05
7.542e-05
4.96156e-05
4.96097e-05
7.60397e-05
2.35939e-05
2.35912e-05
2.35929e-05
2.35902e-05
8.31182e-05
6.44173e-05
6.44142e-05
6.40867e-05
6.40848e-05
2.35866e-05
2.35891e-05
2.35855e-05
2.3588e-05
2.35861e-05
2.35837e-05
2.35842e-05
2.35818e-05
6.44607e-05
6.44549e-05
8.41083e-05
6.47749e-05
6.47695e-05
2.35796e-05
2.35818e-05
2.35777e-05
2.35799e-05
8.42797e-05
6.51186e-05
6.51145e-05
6.48105e-05
6.48054e-05
7.67122e-05
4.96203e-05
7.61111e-05
4.9626e-05
7.90142e-05
7.27482e-05
0.000112025
9.3241e-05
7.78901e-05
7.33987e-05
0.000111307
7.9015e-05
7.2742e-05
0.000112011
9.32272e-05
7.78811e-05
7.33915e-05
0.000111303
7.67753e-05
4.96357e-05
4.96304e-05
7.73407e-05
7.67722e-05
4.96321e-05
4.96267e-05
7.73385e-05
7.93272e-05
9.30366e-05
7.41539e-05
0.000109953
7.35121e-05
0.000110624
8.04546e-05
7.93196e-05
9.30256e-05
7.41492e-05
0.000109952
7.35066e-05
0.000110611
8.04562e-05
6.44516e-05
6.44564e-05
8.41059e-05
6.47689e-05
6.47736e-05
2.35855e-05
2.35831e-05
2.35781e-05
2.35803e-05
8.42785e-05
6.51112e-05
6.51166e-05
6.48048e-05
6.48095e-05
2.35789e-05
2.35811e-05
7.90142e-05
7.27444e-05
0.00011202
9.3264e-05
7.78857e-05
7.33936e-05
0.000111314
7.67067e-05
4.96161e-05
7.61102e-05
4.96219e-05
7.90115e-05
0.000112013
7.27428e-05
9.32277e-05
7.788e-05
0.000111305
7.33841e-05
7.67755e-05
4.96314e-05
4.96261e-05
7.73301e-05
7.9318e-05
9.30529e-05
7.41485e-05
0.000109959
7.35083e-05
0.000110618
8.04487e-05
7.67655e-05
4.9628e-05
4.96226e-05
7.73355e-05
7.93104e-05
9.30246e-05
0.000109952
7.41412e-05
0.000110609
7.35076e-05
8.04487e-05
7.67071e-05
4.96212e-05
7.61152e-05
4.9627e-05
7.90196e-05
0.000112022
7.27432e-05
9.32312e-05
7.7872e-05
0.000111308
7.33865e-05
7.67044e-05
4.96181e-05
7.61149e-05
4.96239e-05
7.93116e-05
9.30609e-05
7.41521e-05
0.000109958
7.35115e-05
0.000110627
8.04618e-05
7.67794e-05
4.9633e-05
4.96277e-05
7.73354e-05
7.93054e-05
9.30348e-05
0.000109954
7.41455e-05
0.000110622
7.35122e-05
8.04634e-05
7.6777e-05
4.96299e-05
4.96247e-05
7.73331e-05
6.44489e-05
6.44567e-05
8.41065e-05
6.47679e-05
6.47768e-05
2.3585e-05
2.35827e-05
2.35767e-05
2.35789e-05
8.42803e-05
6.51106e-05
6.5118e-05
6.48045e-05
6.4813e-05
2.35785e-05
2.35807e-05
7.90062e-05
0.000112022
7.27388e-05
9.32549e-05
7.7878e-05
0.000111312
7.33866e-05
7.67009e-05
4.96203e-05
7.61167e-05
4.9626e-05
7.66968e-05
4.96164e-05
7.61153e-05
4.96222e-05
7.93191e-05
9.30571e-05
0.000109962
7.41482e-05
0.000110621
7.35145e-05
8.04521e-05
7.93128e-05
9.30514e-05
0.000109963
7.41492e-05
0.000110623
7.35077e-05
8.04556e-05
7.67742e-05
4.96321e-05
4.96267e-05
7.73366e-05
7.67719e-05
4.96284e-05
4.9623e-05
7.7336e-05
2.35845e-05
2.35821e-05
2.35835e-05
2.35811e-05
8.42709e-05
6.51147e-05
6.5113e-05
6.48058e-05
6.48028e-05
2.3578e-05
2.35802e-05
2.35769e-05
2.35791e-05
2.35777e-05
2.35756e-05
2.35758e-05
2.35737e-05
6.51538e-05
6.51496e-05
8.55914e-05
6.54474e-05
6.54416e-05
2.35719e-05
2.35738e-05
2.357e-05
2.35719e-05
8.58324e-05
6.57642e-05
6.57596e-05
6.5481e-05
6.54752e-05
7.79321e-05
4.96327e-05
7.73947e-05
4.96379e-05
8.18575e-05
7.42514e-05
0.000109322
9.2612e-05
8.0736e-05
7.48879e-05
0.000108702
8.18608e-05
7.42483e-05
0.000109313
9.26013e-05
8.07301e-05
7.48799e-05
0.000108702
7.79876e-05
4.96473e-05
4.96422e-05
7.85046e-05
7.79854e-05
4.96435e-05
4.96385e-05
7.85019e-05
8.21116e-05
9.25252e-05
7.55956e-05
0.000107541
7.4973e-05
0.00010811
8.32426e-05
8.21078e-05
9.25144e-05
7.55905e-05
0.000107545
7.49644e-05
0.000108102
8.32439e-05
6.51459e-05
6.51516e-05
8.55851e-05
6.54386e-05
6.54439e-05
2.3577e-05
2.35749e-05
2.35704e-05
2.35723e-05
8.58253e-05
6.57564e-05
6.57612e-05
6.54723e-05
6.54774e-05
2.35712e-05
2.35731e-05
8.18641e-05
7.42473e-05
0.000109317
9.26395e-05
8.07273e-05
7.48851e-05
0.000108711
7.79352e-05
4.96287e-05
7.7392e-05
4.96339e-05
8.18644e-05
0.000109308
7.42491e-05
9.26027e-05
8.07241e-05
0.000108703
7.48726e-05
7.79964e-05
4.96428e-05
4.96379e-05
7.84995e-05
8.21161e-05
9.25449e-05
7.55928e-05
0.000107556
7.49699e-05
0.000108113
8.32506e-05
7.79882e-05
4.96393e-05
4.96345e-05
7.8503e-05
8.21131e-05
9.25206e-05
0.000107555
7.5588e-05
0.000108107
7.49706e-05
8.32505e-05
7.79301e-05
4.96336e-05
7.74031e-05
4.96388e-05
8.187e-05
0.00010932
7.42488e-05
9.26082e-05
8.07216e-05
0.000108708
7.48785e-05
7.79283e-05
4.96306e-05
7.74015e-05
4.96358e-05
8.2108e-05
9.25454e-05
7.55939e-05
0.000107549
7.49699e-05
0.000108118
8.32536e-05
7.79942e-05
4.96444e-05
4.96394e-05
7.85007e-05
8.21042e-05
9.25203e-05
0.000107549
7.55853e-05
0.000108117
7.49716e-05
8.3256e-05
7.7993e-05
4.96414e-05
4.96364e-05
7.84993e-05
6.51452e-05
6.51526e-05
8.5589e-05
6.54381e-05
6.5447e-05
2.35766e-05
2.35745e-05
2.3569e-05
2.35709e-05
8.58319e-05
6.57556e-05
6.57645e-05
6.5472e-05
6.5481e-05
2.35708e-05
2.35727e-05
8.18684e-05
0.000109327
7.42474e-05
9.26363e-05
8.0731e-05
0.00010872
7.48803e-05
7.79304e-05
4.96328e-05
7.74036e-05
4.9638e-05
7.79281e-05
4.9629e-05
7.74039e-05
4.96341e-05
8.21209e-05
9.25526e-05
0.000107566
7.55969e-05
0.000108122
7.4976e-05
8.32514e-05
8.21169e-05
9.25373e-05
0.000107563
7.55853e-05
0.000108125
7.49685e-05
8.32498e-05
7.79953e-05
4.96435e-05
4.96386e-05
7.85025e-05
7.79937e-05
4.96396e-05
4.96347e-05
7.84984e-05
2.35761e-05
2.3574e-05
2.3575e-05
2.35729e-05
8.58152e-05
6.57566e-05
6.57534e-05
6.54728e-05
6.54692e-05
2.35703e-05
2.35722e-05
2.35693e-05
2.35711e-05
2.35702e-05
2.35685e-05
2.35683e-05
2.35665e-05
6.57969e-05
6.57924e-05
8.73358e-05
6.60706e-05
6.60653e-05
2.35653e-05
2.35668e-05
2.35634e-05
2.35649e-05
8.76347e-05
6.6374e-05
6.6368e-05
6.61038e-05
6.60982e-05
7.90442e-05
4.96441e-05
7.85538e-05
4.96489e-05
8.46001e-05
7.56661e-05
0.000107008
9.24398e-05
8.34705e-05
7.62896e-05
0.000106498
8.46007e-05
7.5665e-05
0.000107004
9.2431e-05
8.34652e-05
7.62831e-05
0.000106497
7.90984e-05
4.9658e-05
4.96533e-05
7.95681e-05
7.90954e-05
4.96542e-05
4.96494e-05
7.95649e-05
8.4803e-05
9.24757e-05
7.69664e-05
0.00010556
7.6354e-05
0.000106014
8.59309e-05
8.47981e-05
9.24599e-05
7.69491e-05
0.000105554
7.63441e-05
0.000106007
8.59275e-05
6.57895e-05
6.57947e-05
8.73349e-05
6.60631e-05
6.6069e-05
2.35695e-05
2.35678e-05
2.35637e-05
2.35653e-05
8.76317e-05
6.63578e-05
6.63624e-05
6.60947e-05
6.61006e-05
2.35646e-05
2.35661e-05
8.4602e-05
7.56638e-05
0.000107017
9.24681e-05
8.34753e-05
7.62865e-05
0.000106514
7.90437e-05
4.96399e-05
7.85542e-05
4.96448e-05
8.46001e-05
0.000107012
7.56696e-05
9.24324e-05
8.34745e-05
0.000106509
7.62713e-05
7.91008e-05
4.96535e-05
4.96489e-05
7.95619e-05
8.48032e-05
9.2492e-05
7.69601e-05
0.000105569
7.63492e-05
0.00010602
8.59259e-05
7.90946e-05
4.965e-05
4.96453e-05
7.95596e-05
8.47998e-05
9.24595e-05
0.000105557
7.69471e-05
0.000106012
7.6344e-05
8.59186e-05
7.90402e-05
4.9645e-05
7.85615e-05
4.96499e-05
8.46006e-05
0.000107017
7.56617e-05
9.24374e-05
8.34619e-05
0.000106503
7.62825e-05
7.90378e-05
4.9642e-05
7.85606e-05
4.96469e-05
8.47921e-05
9.24896e-05
7.69534e-05
0.000105561
7.63496e-05
0.000106017
8.5931e-05
7.90978e-05
4.96552e-05
4.96504e-05
7.95646e-05
8.47873e-05
9.24777e-05
0.000105564
7.69521e-05
0.000106016
7.63506e-05
8.59306e-05
7.90962e-05
4.96522e-05
4.96474e-05
7.95624e-05
6.57884e-05
6.57971e-05
8.73325e-05
6.60603e-05
6.60685e-05
2.3569e-05
2.35673e-05
2.35624e-05
2.35639e-05
8.76277e-05
6.6361e-05
6.63705e-05
6.60924e-05
6.61007e-05
2.35642e-05
2.35657e-05
8.45959e-05
0.000107022
7.56585e-05
9.24605e-05
8.34681e-05
0.000106512
7.62803e-05
7.90413e-05
4.96441e-05
7.85617e-05
4.96489e-05
7.90368e-05
4.96402e-05
7.85584e-05
4.96451e-05
8.47996e-05
9.249e-05
0.000105573
7.69602e-05
0.000106022
7.63491e-05
8.59256e-05
8.4792e-05
9.24875e-05
0.000105567
7.69499e-05
0.000106018
7.63471e-05
8.59233e-05
7.90993e-05
4.96542e-05
4.96495e-05
7.95655e-05
7.9096e-05
4.96504e-05
4.96456e-05
7.95613e-05
2.35686e-05
2.35669e-05
2.35675e-05
2.35658e-05
8.76332e-05
6.63663e-05
6.63635e-05
6.60993e-05
6.60953e-05
2.35637e-05
2.35653e-05
2.35627e-05
2.35642e-05
2.35637e-05
2.35623e-05
2.35618e-05
2.35604e-05
6.64048e-05
6.63988e-05
8.93484e-05
6.66539e-05
6.66487e-05
2.35608e-05
2.35589e-05
8.96852e-05
6.66835e-05
6.66781e-05
8.00603e-05
4.96548e-05
7.96152e-05
4.96596e-05
8.72226e-05
7.70163e-05
0.000105137
9.27309e-05
8.61076e-05
7.76106e-05
0.000104733
8.72209e-05
7.70031e-05
0.000105128
9.27037e-05
8.60999e-05
7.76053e-05
0.000104722
8.01117e-05
4.96637e-05
8.05433e-05
8.01103e-05
4.96648e-05
4.96601e-05
8.05409e-05
8.73759e-05
9.2857e-05
0.000103997
7.76555e-05
0.000104361
8.84884e-05
8.73731e-05
9.28511e-05
7.82387e-05
0.000103998
7.76527e-05
0.000104356
8.84853e-05
6.6389e-05
6.63935e-05
8.93249e-05
6.6649e-05
6.66534e-05
2.3563e-05
2.35616e-05
2.35581e-05
2.35594e-05
8.96759e-05
6.69311e-05
6.69362e-05
6.66804e-05
6.66847e-05
2.35589e-05
2.35602e-05
8.72137e-05
7.70097e-05
0.000105134
9.27544e-05
8.60991e-05
7.76067e-05
0.000104738
8.00556e-05
4.96506e-05
7.96096e-05
4.96554e-05
8.7207e-05
0.000105125
7.70106e-05
9.27151e-05
8.6095e-05
0.000104721
7.75963e-05
8.01099e-05
4.96595e-05
8.73692e-05
9.28673e-05
7.76505e-05
0.000104357
8.01054e-05
4.9656e-05
8.73677e-05
9.28517e-05
0.000104351
7.76494e-05
8.0058e-05
4.96558e-05
7.96194e-05
4.96605e-05
8.72224e-05
0.000105138
7.70069e-05
9.2728e-05
8.60965e-05
0.00010474
7.76028e-05
8.00569e-05
4.96527e-05
7.96183e-05
4.96574e-05
8.73705e-05
9.28728e-05
7.82438e-05
0.000104024
7.76562e-05
0.000104352
8.84883e-05
8.01099e-05
4.96659e-05
4.96611e-05
8.05418e-05
8.73689e-05
9.28576e-05
0.00010402
7.82377e-05
0.000104357
7.76502e-05
8.84855e-05
8.01094e-05
4.96627e-05
4.9658e-05
8.05393e-05
6.63932e-05
6.64026e-05
8.93474e-05
6.66491e-05
6.66581e-05
2.35626e-05
2.35612e-05
2.35579e-05
8.96939e-05
6.66782e-05
6.66869e-05
2.35597e-05
8.72224e-05
0.000105141
7.70041e-05
9.27501e-05
8.60964e-05
0.000104744
7.7603e-05
8.00622e-05
4.96548e-05
7.96193e-05
4.96594e-05
8.00597e-05
4.9651e-05
7.96162e-05
4.96559e-05
8.73773e-05
9.28801e-05
0.000104002
0.000104365
7.76556e-05
8.84816e-05
8.73743e-05
9.28726e-05
0.000104014
7.82352e-05
0.000104367
7.76505e-05
8.84855e-05
8.01139e-05
4.96599e-05
8.05371e-05
8.01125e-05
4.96611e-05
4.96565e-05
8.05365e-05
2.35621e-05
2.35607e-05
2.35611e-05
2.35597e-05
8.96871e-05
6.69331e-05
6.69281e-05
6.66783e-05
6.66752e-05
2.3558e-05
2.35592e-05
2.3557e-05
2.35582e-05
2.36153e-05
2.36128e-05
7.14531e-05
2.15366e-05
2.15332e-05
2.1537e-05
2.15337e-05
7.15675e-05
7.57023e-05
7.34286e-05
6.22114e-05
4.71935e-05
7.38909e-05
4.72017e-05
7.53505e-05
7.57384e-05
7.34372e-05
6.22092e-05
4.71839e-05
4.7192e-05
7.53923e-05
7.38972e-05
7.57683e-05
4.72131e-05
6.22525e-05
7.45215e-05
7.40578e-05
4.72053e-05
7.61123e-05
7.58103e-05
4.72033e-05
6.225e-05
7.45263e-05
4.71954e-05
7.61475e-05
7.40644e-05
7.14064e-05
2.154e-05
2.15367e-05
2.15396e-05
2.15363e-05
7.12883e-05
3.62157e-05
7.34815e-05
4.03946e-05
7.38565e-05
4.03904e-05
7.36384e-05
3.62174e-05
2.01948e-05
6.96065e-05
4.9597e-05
6.97039e-05
2.01951e-05
3.62155e-05
7.3393e-05
4.03845e-05
7.33168e-05
4.03889e-05
7.35422e-05
3.62137e-05
2.01921e-05
6.98359e-05
4.95981e-05
6.97428e-05
2.01918e-05
2.36041e-05
2.36017e-05
3.6215e-05
7.34818e-05
7.38509e-05
4.03936e-05
7.36348e-05
4.03894e-05
3.62167e-05
2.01945e-05
6.96051e-05
4.95926e-05
6.97007e-05
2.01947e-05
3.62148e-05
7.33856e-05
7.33166e-05
4.03834e-05
7.35378e-05
4.03878e-05
3.6213e-05
2.01918e-05
6.98333e-05
4.95937e-05
6.97395e-05
2.01915e-05
2.36027e-05
2.36004e-05
7.20307e-05
2.15244e-05
2.15212e-05
2.15246e-05
2.15216e-05
7.2142e-05
7.7239e-05
7.58599e-05
4.72368e-05
6.30692e-05
7.69107e-05
7.63054e-05
4.7244e-05
7.72748e-05
7.58675e-05
4.72272e-05
6.30688e-05
7.69546e-05
7.63127e-05
4.72344e-05
7.19886e-05
2.15274e-05
2.15243e-05
7.18869e-05
2.15271e-05
2.1524e-05
7.7289e-05
4.72541e-05
6.31086e-05
7.69003e-05
7.64582e-05
4.7247e-05
7.76174e-05
7.73325e-05
4.72445e-05
6.31082e-05
7.69084e-05
7.64668e-05
4.72374e-05
7.76531e-05
3.62213e-05
7.50482e-05
4.04143e-05
7.50094e-05
4.04109e-05
7.48162e-05
3.62225e-05
2.01828e-05
7.01165e-05
4.96126e-05
2.01831e-05
7.01998e-05
3.62215e-05
7.49763e-05
4.04062e-05
7.45347e-05
3.62202e-05
4.04098e-05
7.47307e-05
2.01801e-05
7.03185e-05
4.96136e-05
7.02347e-05
2.01799e-05
2.35938e-05
2.35916e-05
3.62206e-05
7.50542e-05
7.50059e-05
4.04135e-05
7.48147e-05
4.04101e-05
3.62218e-05
2.01825e-05
7.01169e-05
4.96082e-05
2.01827e-05
7.01973e-05
3.62208e-05
7.49708e-05
7.45348e-05
4.04054e-05
3.62195e-05
7.47285e-05
4.0409e-05
2.01798e-05
7.03143e-05
4.96091e-05
7.02329e-05
2.01795e-05
2.35924e-05
2.35902e-05
7.25531e-05
2.15128e-05
2.15097e-05
2.1513e-05
2.151e-05
7.2648e-05
7.86733e-05
7.82214e-05
4.72755e-05
6.38656e-05
7.83859e-05
7.8638e-05
4.72817e-05
7.87098e-05
7.82264e-05
4.72659e-05
6.38627e-05
7.84271e-05
7.86433e-05
4.72721e-05
7.25211e-05
2.15158e-05
2.15127e-05
7.24412e-05
2.15155e-05
2.15123e-05
7.8713e-05
4.72906e-05
6.39019e-05
7.91874e-05
7.8768e-05
4.72842e-05
7.90082e-05
7.87546e-05
4.7281e-05
6.38993e-05
7.91927e-05
7.87739e-05
4.72746e-05
7.90434e-05
3.62239e-05
7.64505e-05
4.04292e-05
7.60613e-05
4.04267e-05
7.58875e-05
3.62247e-05
2.01711e-05
7.05793e-05
4.96266e-05
2.01713e-05
7.06565e-05
3.62244e-05
7.63873e-05
4.04233e-05
7.56309e-05
3.62235e-05
4.0426e-05
7.58102e-05
2.01684e-05
7.07615e-05
4.96273e-05
7.06866e-05
2.01681e-05
2.35844e-05
2.35824e-05
3.62232e-05
7.64536e-05
7.60571e-05
4.04284e-05
7.58841e-05
4.04259e-05
3.6224e-05
2.01707e-05
7.05778e-05
4.96222e-05
2.0171e-05
7.06537e-05
3.62238e-05
7.63801e-05
7.56282e-05
4.04225e-05
3.62229e-05
7.58071e-05
4.04252e-05
2.0168e-05
7.07572e-05
4.9623e-05
7.06848e-05
2.01677e-05
2.35831e-05
2.3581e-05
7.30248e-05
2.15028e-05
2.14997e-05
2.15028e-05
2.14997e-05
7.3125e-05
7.99942e-05
8.04515e-05
4.73103e-05
6.45944e-05
7.97341e-05
8.08507e-05
4.7316e-05
8.003e-05
8.04568e-05
4.73006e-05
6.45907e-05
7.97723e-05
8.08547e-05
4.73063e-05
7.29931e-05
2.15051e-05
2.1502e-05
7.29241e-05
2.15049e-05
2.15018e-05
8.00369e-05
4.73246e-05
6.46303e-05
8.13978e-05
8.09788e-05
4.73184e-05
8.03262e-05
8.0074e-05
4.73149e-05
6.46266e-05
8.1399e-05
8.09819e-05
4.73087e-05
8.03578e-05
3.62238e-05
7.76958e-05
4.04393e-05
7.7002e-05
4.04375e-05
7.68437e-05
3.62244e-05
2.01594e-05
7.0987e-05
4.96387e-05
2.01597e-05
7.10566e-05
3.62246e-05
7.76411e-05
4.04352e-05
7.66139e-05
3.62241e-05
4.04372e-05
7.67752e-05
2.01569e-05
7.11511e-05
4.96393e-05
7.10818e-05
2.01566e-05
2.3576e-05
2.35742e-05
3.62232e-05
7.77017e-05
7.70049e-05
4.04385e-05
7.68432e-05
4.04367e-05
3.62237e-05
2.01591e-05
7.09846e-05
4.96344e-05
2.01594e-05
7.10564e-05
3.6224e-05
7.76348e-05
7.66082e-05
4.04344e-05
3.62234e-05
7.67728e-05
4.04364e-05
2.01566e-05
7.11542e-05
4.96351e-05
7.10843e-05
2.01563e-05
2.35747e-05
2.35728e-05
7.34619e-05
2.14932e-05
2.14901e-05
2.14931e-05
2.149e-05
7.35518e-05
8.12635e-05
8.26274e-05
4.73425e-05
6.52781e-05
8.10303e-05
8.30107e-05
4.73476e-05
8.12985e-05
8.26355e-05
4.73328e-05
6.52757e-05
8.10674e-05
8.30148e-05
4.73379e-05
7.34375e-05
2.14953e-05
2.14922e-05
7.33916e-05
2.14951e-05
2.1492e-05
8.12995e-05
4.73554e-05
6.53116e-05
8.35282e-05
8.31278e-05
4.73498e-05
8.15561e-05
8.13346e-05
4.73457e-05
6.53089e-05
8.3528e-05
8.31322e-05
4.73401e-05
8.15873e-05
3.6222e-05
7.88308e-05
4.04454e-05
7.78715e-05
4.04443e-05
7.77243e-05
3.62223e-05
2.01484e-05
7.13613e-05
4.96501e-05
2.01486e-05
7.14292e-05
3.6223e-05
7.87797e-05
4.04429e-05
7.75114e-05
3.62226e-05
4.04442e-05
7.7662e-05
2.0146e-05
7.15171e-05
4.96506e-05
7.14506e-05
2.01457e-05
2.35686e-05
2.35669e-05
3.62213e-05
7.8833e-05
7.78697e-05
4.04446e-05
7.77212e-05
4.04434e-05
3.62216e-05
2.01481e-05
7.1359e-05
4.96456e-05
2.01483e-05
7.14258e-05
3.62222e-05
7.87735e-05
7.75084e-05
4.04421e-05
3.62219e-05
7.76583e-05
4.04434e-05
2.01456e-05
7.15156e-05
4.96462e-05
7.14493e-05
2.01454e-05
2.35673e-05
2.35656e-05
7.38863e-05
2.14852e-05
2.14821e-05
2.1485e-05
2.1482e-05
7.39881e-05
8.2449e-05
8.46889e-05
4.73724e-05
6.5911e-05
8.22202e-05
8.50649e-05
4.73775e-05
8.24814e-05
8.46966e-05
4.73626e-05
6.59075e-05
8.22549e-05
8.50642e-05
4.73677e-05
7.38545e-05
2.14867e-05
2.14836e-05
7.37968e-05
2.14867e-05
2.14836e-05
8.24911e-05
4.7385e-05
6.59441e-05
8.55783e-05
8.51864e-05
4.73796e-05
8.27443e-05
8.25231e-05
4.73752e-05
6.59405e-05
8.55729e-05
8.51887e-05
4.73698e-05
8.27724e-05
3.62187e-05
7.9867e-05
4.04484e-05
7.86642e-05
4.04477e-05
7.8529e-05
3.62188e-05
2.01379e-05
7.17026e-05
4.96605e-05
2.01381e-05
7.17648e-05
3.62198e-05
7.98178e-05
4.04471e-05
7.83359e-05
3.62196e-05
4.04479e-05
7.84733e-05
2.01356e-05
7.18446e-05
4.96611e-05
7.17824e-05
2.01354e-05
2.35623e-05
2.35607e-05
3.6218e-05
7.98641e-05
7.86612e-05
4.04477e-05
7.85245e-05
4.04469e-05
3.62181e-05
2.01376e-05
7.16987e-05
4.96561e-05
2.01377e-05
7.17603e-05
3.62191e-05
7.98115e-05
7.83309e-05
4.04463e-05
3.62189e-05
7.84682e-05
4.04471e-05
2.01352e-05
7.18435e-05
4.96567e-05
7.17798e-05
2.01351e-05
2.35609e-05
2.35594e-05
7.42546e-05
2.14774e-05
2.14743e-05
2.14772e-05
2.14741e-05
7.43416e-05
8.3567e-05
8.66929e-05
4.74006e-05
6.65069e-05
8.33608e-05
8.70469e-05
4.74053e-05
8.36001e-05
8.6703e-05
4.73909e-05
6.65044e-05
8.33955e-05
8.70455e-05
4.73956e-05
7.42296e-05
2.14787e-05
2.14756e-05
7.41863e-05
2.14788e-05
2.14756e-05
8.36028e-05
4.74123e-05
6.65365e-05
8.75191e-05
8.71556e-05
4.74072e-05
8.383e-05
8.36362e-05
4.74025e-05
6.65341e-05
8.75115e-05
8.71655e-05
4.73975e-05
8.38606e-05
7.1469e-05
2.15335e-05
2.15366e-05
2.15341e-05
2.15372e-05
7.15692e-05
7.57528e-05
7.34651e-05
6.22136e-05
4.71848e-05
4.71928e-05
7.54227e-05
7.3919e-05
7.5712e-05
7.34621e-05
6.22181e-05
4.71935e-05
7.39163e-05
4.72015e-05
7.53857e-05
7.58192e-05
4.72035e-05
6.22539e-05
7.45145e-05
4.7196e-05
7.61297e-05
7.40776e-05
7.57838e-05
4.72123e-05
6.22586e-05
7.45126e-05
7.40753e-05
4.72047e-05
7.60914e-05
7.1425e-05
2.15373e-05
2.15404e-05
2.15369e-05
2.154e-05
7.12965e-05
2.36163e-05
2.36137e-05
2.36071e-05
2.36095e-05
7.16904e-05
2.15306e-05
2.15337e-05
7.16024e-05
2.15302e-05
2.15332e-05
7.65664e-05
7.57066e-05
6.26862e-05
4.72249e-05
4.72173e-05
7.68914e-05
7.52608e-05
7.6532e-05
7.57052e-05
6.26913e-05
4.72336e-05
4.7226e-05
7.52597e-05
7.68489e-05
7.64982e-05
4.72066e-05
7.46648e-05
6.26468e-05
7.61894e-05
4.72141e-05
7.51011e-05
7.64604e-05
4.72154e-05
7.46635e-05
6.2652e-05
7.61574e-05
4.72229e-05
7.51003e-05
7.17298e-05
2.15273e-05
2.15304e-05
2.15276e-05
2.15307e-05
7.18386e-05
2.3608e-05
2.36105e-05
3.62063e-05
7.25591e-05
4.03691e-05
7.16925e-05
7.23038e-05
4.03643e-05
3.62085e-05
2.02066e-05
4.95764e-05
6.90255e-05
6.91392e-05
2.02068e-05
2.02038e-05
6.92847e-05
4.95776e-05
6.91773e-05
2.02035e-05
3.62059e-05
7.15842e-05
7.19442e-05
4.03576e-05
7.22097e-05
4.03625e-05
3.62035e-05
3.62043e-05
4.03695e-05
7.25456e-05
7.16899e-05
4.03647e-05
7.22987e-05
3.62065e-05
2.0205e-05
4.95731e-05