/*--------------------------------*- C++ -*----------------------------------*\
| =========                 |                                                 |
| \\      /  F ield         | OpenFOAM: The Open Source CFD Toolbox           |
|  \\    /   O peration     | Version:  v2012                                 |
|   \\  /    A nd           | Website:  www.openfoam.com                      |
|    \\/     M anipulation  |                                                 |
\*---------------------------------------------------------------------------*/
FoamFile
{
    version     2.0;
    format      ascii;
    class       volScalarField;
    location    "0.23";
    object      p;
}
// * * * * * * * * * * * * * * * * * * * * * * * * * * * * * * * * * * * * * //

dimensions      [0 2 -2 0 0 0 0];


internalField   nonuniform List<scalar> 
247104
(
1.88588e-06
1.886e-06
1.8861e-06
1.88601e-06
1.88586e-06
1.88604e-06
1.88609e-06
1.88593e-06
1.886e-06
1.88605e-06
1.8861e-06
1.88592e-06
1.88581e-06
1.88595e-06
1.88611e-06
1.88602e-06
1.8861e-06
1.8861e-06
1.8858e-06
1.88542e-06
1.88526e-06
1.88546e-06
1.88585e-06
1.88612e-06
1.8861e-06
1.88601e-06
1.88592e-06
1.88542e-06
1.88492e-06
1.88475e-06
1.88497e-06
1.88549e-06
1.88596e-06
1.88599e-06
1.88588e-06
1.88586e-06
1.88581e-06
1.88526e-06
1.88475e-06
1.88456e-06
1.8848e-06
1.88534e-06
1.88585e-06
1.88583e-06
1.88604e-06
1.88595e-06
1.88545e-06
1.88497e-06
1.8848e-06
1.88502e-06
1.88552e-06
1.88599e-06
1.88603e-06
1.88609e-06
1.88611e-06
1.88584e-06
1.88549e-06
1.88534e-06
1.88552e-06
1.88589e-06
1.88612e-06
1.88609e-06
1.88592e-06
1.88602e-06
1.88612e-06
1.88597e-06
1.88585e-06
1.88599e-06
1.88612e-06
1.88599e-06
1.8861e-06
1.886e-06
1.88583e-06
1.88603e-06
1.88609e-06
1.85218e-06
1.85013e-06
1.84986e-06
1.8487e-06
1.84864e-06
1.84856e-06
1.84857e-06
1.84992e-06
1.85028e-06
1.84987e-06
1.84781e-06
1.84494e-06
1.84487e-06
1.84487e-06
1.84494e-06
1.84821e-06
1.84842e-06
1.8487e-06
1.84494e-06
1.84487e-06
1.84492e-06
1.84492e-06
1.84488e-06
1.84494e-06
1.84863e-06
1.84961e-06
1.85218e-06
1.84864e-06
1.84487e-06
1.84492e-06
1.84503e-06
1.84503e-06
1.84492e-06
1.84487e-06
1.84853e-06
1.85018e-06
1.85013e-06
1.84855e-06
1.84487e-06
1.84492e-06
1.84503e-06
1.84503e-06
1.84492e-06
1.84487e-06
1.8487e-06
1.84854e-06
1.84857e-06
1.84494e-06
1.84487e-06
1.84492e-06
1.84492e-06
1.84487e-06
1.84494e-06
1.8485e-06
1.84944e-06
1.84991e-06
1.84821e-06
1.84494e-06
1.84487e-06
1.84487e-06
1.84494e-06
1.84835e-06
1.84861e-06
1.85001e-06
1.85027e-06
1.84842e-06
1.84863e-06
1.84853e-06
1.84869e-06
1.8485e-06
1.84861e-06
1.85071e-06
1.84961e-06
1.85017e-06
1.84854e-06
1.84943e-06
1.85001e-06
1.83207e-06
1.83188e-06
1.83173e-06
1.82955e-06
1.82948e-06
1.82947e-06
1.82953e-06
1.83176e-06
1.83197e-06
1.83173e-06
1.82883e-06
1.82585e-06
1.82571e-06
1.82571e-06
1.82586e-06
1.8295e-06
1.83e-06
1.82955e-06
1.82585e-06
1.82547e-06
1.82548e-06
1.82548e-06
1.82547e-06
1.82586e-06
1.83031e-06
1.83229e-06
1.83208e-06
1.82948e-06
1.8257e-06
1.82548e-06
1.8255e-06
1.8255e-06
1.82548e-06
1.82571e-06
1.83035e-06
1.83199e-06
1.83188e-06
1.82947e-06
1.82571e-06
1.82548e-06
1.8255e-06
1.8255e-06
1.82548e-06
1.82571e-06
1.83028e-06
1.83006e-06
1.82954e-06
1.82585e-06
1.82547e-06
1.82548e-06
1.82548e-06
1.82547e-06
1.82586e-06
1.83037e-06
1.83234e-06
1.83176e-06
1.82951e-06
1.82586e-06
1.82571e-06
1.82571e-06
1.82585e-06
1.82999e-06
1.8302e-06
1.83224e-06
1.83196e-06
1.83001e-06
1.83031e-06
1.83035e-06
1.83028e-06
1.83037e-06
1.83019e-06
1.83227e-06
1.83229e-06
1.83199e-06
1.83006e-06
1.83234e-06
1.83225e-06
1.81273e-06
1.81255e-06
1.81242e-06
1.81017e-06
1.81011e-06
1.81001e-06
1.8102e-06
1.81243e-06
1.81266e-06
1.81242e-06
1.80933e-06
1.80641e-06
1.80636e-06
1.80636e-06
1.80641e-06
1.81005e-06
1.81076e-06
1.81017e-06
1.80641e-06
1.80625e-06
1.80625e-06
1.80625e-06
1.80625e-06
1.80641e-06
1.81099e-06
1.81295e-06
1.81273e-06
1.81011e-06
1.80636e-06
1.80625e-06
1.80625e-06
1.80625e-06
1.80625e-06
1.80636e-06
1.81109e-06
1.81262e-06
1.81255e-06
1.81001e-06
1.80636e-06
1.80625e-06
1.80625e-06
1.80625e-06
1.80625e-06
1.80636e-06
1.81106e-06
1.81081e-06
1.81021e-06
1.80641e-06
1.80625e-06
1.80625e-06
1.80625e-06
1.80625e-06
1.80641e-06
1.81107e-06
1.81297e-06
1.81244e-06
1.81005e-06
1.80641e-06
1.80636e-06
1.80636e-06
1.80641e-06
1.81085e-06
1.81093e-06
1.81294e-06
1.81266e-06
1.81077e-06
1.811e-06
1.81109e-06
1.81106e-06
1.81107e-06
1.81093e-06
1.81293e-06
1.81295e-06
1.81262e-06
1.81081e-06
1.81297e-06
1.81294e-06
1.79337e-06
1.7932e-06
1.79303e-06
1.79076e-06
1.79069e-06
1.79055e-06
1.79079e-06
1.79305e-06
1.79327e-06
1.79303e-06
1.7899e-06
1.78697e-06
1.78696e-06
1.78696e-06
1.78697e-06
1.79058e-06
1.79139e-06
1.79076e-06
1.78698e-06
1.78693e-06
1.78693e-06
1.78693e-06
1.78693e-06
1.78697e-06
1.79164e-06
1.79358e-06
1.79337e-06
1.79069e-06
1.78696e-06
1.78693e-06
1.78693e-06
1.78693e-06
1.78693e-06
1.78696e-06
1.79178e-06
1.79331e-06
1.7932e-06
1.79055e-06
1.78696e-06
1.78693e-06
1.78693e-06
1.78693e-06
1.78693e-06
1.78696e-06
1.79176e-06
1.79149e-06
1.79079e-06
1.78697e-06
1.78693e-06
1.78693e-06
1.78693e-06
1.78693e-06
1.78697e-06
1.79173e-06
1.79365e-06
1.79305e-06
1.79058e-06
1.78698e-06
1.78696e-06
1.78696e-06
1.78697e-06
1.79156e-06
1.79159e-06
1.79357e-06
1.79327e-06
1.79139e-06
1.79164e-06
1.79178e-06
1.79176e-06
1.79173e-06
1.79159e-06
1.7935e-06
1.79359e-06
1.79331e-06
1.7915e-06
1.79365e-06
1.79357e-06
1.77398e-06
1.77381e-06
1.77362e-06
1.77135e-06
1.77128e-06
1.77113e-06
1.77138e-06
1.77365e-06
1.77386e-06
1.77362e-06
1.77049e-06
1.76756e-06
1.76756e-06
1.76756e-06
1.76756e-06
1.77115e-06
1.77199e-06
1.77135e-06
1.76756e-06
1.76755e-06
1.76755e-06
1.76755e-06
1.76755e-06
1.76756e-06
1.77224e-06
1.77419e-06
1.77398e-06
1.77128e-06
1.76756e-06
1.76755e-06
1.76755e-06
1.76755e-06
1.76755e-06
1.76756e-06
1.7724e-06
1.77393e-06
1.77381e-06
1.77113e-06
1.76756e-06
1.76755e-06
1.76755e-06
1.76755e-06
1.76755e-06
1.76756e-06
1.77239e-06
1.77212e-06
1.77138e-06
1.76756e-06
1.76755e-06
1.76755e-06
1.76755e-06
1.76755e-06
1.76756e-06
1.77234e-06
1.77427e-06
1.77364e-06
1.77115e-06
1.76756e-06
1.76756e-06
1.76756e-06
1.76756e-06
1.7722e-06
1.7722e-06
1.77417e-06
1.77386e-06
1.77199e-06
1.77224e-06
1.7724e-06
1.77239e-06
1.77234e-06
1.7722e-06
1.77413e-06
1.77419e-06
1.77393e-06
1.77212e-06
1.77427e-06
1.77417e-06
1.75458e-06
1.75441e-06
1.75422e-06
1.75195e-06
1.75187e-06
1.75173e-06
1.75197e-06
1.75425e-06
1.75448e-06
1.75422e-06
1.75109e-06
1.74816e-06
1.74816e-06
1.74816e-06
1.74816e-06
1.75174e-06
1.75256e-06
1.75195e-06
1.74816e-06
1.74815e-06
1.74815e-06
1.74815e-06
1.74815e-06
1.74816e-06
1.75284e-06
1.75479e-06
1.75458e-06
1.75187e-06
1.74816e-06
1.74815e-06
1.74815e-06
1.74815e-06
1.74815e-06
1.74816e-06
1.75301e-06
1.75454e-06
1.75441e-06
1.75173e-06
1.74816e-06
1.74815e-06
1.74815e-06
1.74815e-06
1.74815e-06
1.74816e-06
1.753e-06
1.75272e-06
1.75197e-06
1.74816e-06
1.74815e-06
1.74815e-06
1.74815e-06
1.74815e-06
1.74816e-06
1.75294e-06
1.75487e-06
1.75424e-06
1.75174e-06
1.74816e-06
1.74816e-06
1.74816e-06
1.74816e-06
1.75281e-06
1.75281e-06
1.75477e-06
1.75446e-06
1.75259e-06
1.75284e-06
1.753e-06
1.753e-06
1.75294e-06
1.75281e-06
1.75471e-06
1.75479e-06
1.75454e-06
1.75272e-06
1.75487e-06
1.75477e-06
1.73518e-06
1.73501e-06
1.73481e-06
1.73255e-06
1.73247e-06
1.73233e-06
1.73257e-06
1.73485e-06
1.73507e-06
1.73481e-06
1.73169e-06
1.72876e-06
1.72876e-06
1.72876e-06
1.72876e-06
1.73233e-06
1.73316e-06
1.73255e-06
1.72876e-06
1.72876e-06
1.72876e-06
1.72876e-06
1.72876e-06
1.72876e-06
1.73344e-06
1.73539e-06
1.73518e-06
1.73247e-06
1.72876e-06
1.72876e-06
1.72876e-06
1.72876e-06
1.72876e-06
1.72876e-06
1.7336e-06
1.73514e-06
1.73501e-06
1.73233e-06
1.72876e-06
1.72876e-06
1.72876e-06
1.72876e-06
1.72876e-06
1.72876e-06
1.7336e-06
1.73332e-06
1.73257e-06
1.72876e-06
1.72876e-06
1.72876e-06
1.72876e-06
1.72876e-06
1.72876e-06
1.73354e-06
1.73547e-06
1.73484e-06
1.73234e-06
1.72876e-06
1.72876e-06
1.72876e-06
1.72876e-06
1.73341e-06
1.73341e-06
1.73537e-06
1.73505e-06
1.73319e-06
1.73344e-06
1.73361e-06
1.7336e-06
1.73354e-06
1.73341e-06
1.73531e-06
1.73539e-06
1.73514e-06
1.73333e-06
1.73547e-06
1.73537e-06
1.71578e-06
1.71561e-06
1.71541e-06
1.71315e-06
1.71307e-06
1.71293e-06
1.71317e-06
1.71545e-06
1.71567e-06
1.71541e-06
1.71229e-06
1.70936e-06
1.70936e-06
1.70936e-06
1.70936e-06
1.71293e-06
1.71376e-06
1.71315e-06
1.70936e-06
1.70936e-06
1.70936e-06
1.70936e-06
1.70936e-06
1.70936e-06
1.71404e-06
1.71599e-06
1.71578e-06
1.71307e-06
1.70936e-06
1.70936e-06
1.70936e-06
1.70936e-06
1.70936e-06
1.70936e-06
1.71421e-06
1.71574e-06
1.71561e-06
1.71293e-06
1.70936e-06
1.70936e-06
1.70936e-06
1.70936e-06
1.70936e-06
1.70936e-06
1.7142e-06
1.71393e-06
1.71317e-06
1.70936e-06
1.70936e-06
1.70936e-06
1.70936e-06
1.70936e-06
1.70936e-06
1.71414e-06
1.71608e-06
1.71545e-06
1.71294e-06
1.70936e-06
1.70936e-06
1.70936e-06
1.70936e-06
1.71401e-06
1.71401e-06
1.71597e-06
1.71566e-06
1.71379e-06
1.71404e-06
1.71421e-06
1.7142e-06
1.71414e-06
1.71401e-06
1.71591e-06
1.71599e-06
1.71574e-06
1.71393e-06
1.71608e-06
1.71597e-06
1.69638e-06
1.69621e-06
1.69601e-06
1.69375e-06
1.69367e-06
1.69353e-06
1.69377e-06
1.69605e-06
1.69628e-06
1.69601e-06
1.69289e-06
1.68996e-06
1.68996e-06
1.68996e-06
1.68996e-06
1.69353e-06
1.69436e-06
1.69375e-06
1.68996e-06
1.68996e-06
1.68996e-06
1.68996e-06
1.68996e-06
1.68996e-06
1.69464e-06
1.69659e-06
1.69638e-06
1.69367e-06
1.68996e-06
1.68996e-06
1.68996e-06
1.68996e-06
1.68996e-06
1.68996e-06
1.69481e-06
1.69634e-06
1.69621e-06
1.69353e-06
1.68996e-06
1.68996e-06
1.68996e-06
1.68996e-06
1.68996e-06
1.68996e-06
1.6948e-06
1.69453e-06
1.69377e-06
1.68996e-06
1.68996e-06
1.68996e-06
1.68996e-06
1.68996e-06
1.68996e-06
1.69474e-06
1.69668e-06
1.69605e-06
1.69354e-06
1.68996e-06
1.68996e-06
1.68996e-06
1.68996e-06
1.69461e-06
1.69461e-06
1.69657e-06
1.69626e-06
1.69439e-06
1.69464e-06
1.69481e-06
1.6948e-06
1.69474e-06
1.69461e-06
1.69651e-06
1.69659e-06
1.69634e-06
1.69453e-06
1.69668e-06
1.69657e-06
1.67698e-06
1.67681e-06
1.67662e-06
1.67435e-06
1.67428e-06
1.67413e-06
1.67437e-06
1.67665e-06
1.67687e-06
1.67661e-06
1.67349e-06
1.67056e-06
1.67056e-06
1.67056e-06
1.67056e-06
1.67413e-06
1.67496e-06
1.67435e-06
1.67056e-06
1.67056e-06
1.67056e-06
1.67056e-06
1.67056e-06
1.67056e-06
1.67524e-06
1.67719e-06
1.67698e-06
1.67427e-06
1.67056e-06
1.67056e-06
1.67056e-06
1.67056e-06
1.67056e-06
1.67056e-06
1.67541e-06
1.67694e-06
1.67681e-06
1.67413e-06
1.67056e-06
1.67056e-06
1.67056e-06
1.67056e-06
1.67056e-06
1.67056e-06
1.6754e-06
1.67513e-06
1.67437e-06
1.67056e-06
1.67056e-06
1.67056e-06
1.67056e-06
1.67056e-06
1.67056e-06
1.67534e-06
1.67728e-06
1.67665e-06
1.67414e-06
1.67056e-06
1.67056e-06
1.67056e-06
1.67056e-06
1.67521e-06
1.67521e-06
1.67717e-06
1.67686e-06
1.67499e-06
1.67524e-06
1.67541e-06
1.6754e-06
1.67534e-06
1.67521e-06
1.67711e-06
1.67719e-06
1.67694e-06
1.67513e-06
1.67728e-06
1.67717e-06
1.65758e-06
1.65742e-06
1.65722e-06
1.65495e-06
1.65488e-06
1.65473e-06
1.65497e-06
1.65725e-06
1.65748e-06
1.65722e-06
1.65409e-06
1.65116e-06
1.65116e-06
1.65116e-06
1.65116e-06
1.65473e-06
1.65556e-06
1.65495e-06
1.65116e-06
1.65116e-06
1.65116e-06
1.65116e-06
1.65116e-06
1.65116e-06
1.65584e-06
1.65779e-06
1.65759e-06
1.65487e-06
1.65116e-06
1.65116e-06
1.65116e-06
1.65116e-06
1.65116e-06
1.65116e-06
1.65601e-06
1.65754e-06
1.65741e-06
1.65473e-06
1.65116e-06
1.65116e-06
1.65116e-06
1.65116e-06
1.65116e-06
1.65116e-06
1.656e-06
1.65573e-06
1.65497e-06
1.65116e-06
1.65116e-06
1.65116e-06
1.65116e-06
1.65116e-06
1.65116e-06
1.65594e-06
1.65788e-06
1.65725e-06
1.65474e-06
1.65116e-06
1.65116e-06
1.65116e-06
1.65116e-06
1.65582e-06
1.65581e-06
1.65777e-06
1.65746e-06
1.65559e-06
1.65584e-06
1.65601e-06
1.656e-06
1.65594e-06
1.65581e-06
1.65771e-06
1.6578e-06
1.65754e-06
1.65573e-06
1.65788e-06
1.65777e-06
1.63818e-06
1.63802e-06
1.63782e-06
1.63555e-06
1.63548e-06
1.63533e-06
1.63557e-06
1.63785e-06
1.63808e-06
1.63782e-06
1.63469e-06
1.63176e-06
1.63176e-06
1.63176e-06
1.63176e-06
1.63534e-06
1.63616e-06
1.63555e-06
1.63176e-06
1.63176e-06
1.63176e-06
1.63176e-06
1.63176e-06
1.63176e-06
1.63644e-06
1.63839e-06
1.63819e-06
1.63547e-06
1.63176e-06
1.63176e-06
1.63176e-06
1.63176e-06
1.63176e-06
1.63176e-06
1.63661e-06
1.63814e-06
1.63801e-06
1.63533e-06
1.63176e-06
1.63176e-06
1.63176e-06
1.63176e-06
1.63176e-06
1.63176e-06
1.6366e-06
1.63633e-06
1.63557e-06
1.63176e-06
1.63176e-06
1.63176e-06
1.63176e-06
1.63176e-06
1.63176e-06
1.63654e-06
1.63848e-06
1.63785e-06
1.63534e-06
1.63176e-06
1.63176e-06
1.63176e-06
1.63176e-06
1.63642e-06
1.63641e-06
1.63837e-06
1.63806e-06
1.63619e-06
1.63644e-06
1.63661e-06
1.6366e-06
1.63654e-06
1.63642e-06
1.63831e-06
1.6384e-06
1.63814e-06
1.63633e-06
1.63848e-06
1.63837e-06
1.61878e-06
1.61862e-06
1.61842e-06
1.61615e-06
1.61608e-06
1.61593e-06
1.61617e-06
1.61845e-06
1.61868e-06
1.61842e-06
1.61529e-06
1.61236e-06
1.61236e-06
1.61236e-06
1.61236e-06
1.61594e-06
1.61676e-06
1.61615e-06
1.61236e-06
1.61236e-06
1.61236e-06
1.61236e-06
1.61236e-06
1.61236e-06
1.61704e-06
1.619e-06
1.61879e-06
1.61608e-06
1.61236e-06
1.61236e-06
1.61236e-06
1.61236e-06
1.61236e-06
1.61236e-06
1.61721e-06
1.61874e-06
1.61862e-06
1.61593e-06
1.61236e-06
1.61236e-06
1.61236e-06
1.61236e-06
1.61236e-06
1.61236e-06
1.6172e-06
1.61693e-06
1.61617e-06
1.61236e-06
1.61236e-06
1.61236e-06
1.61236e-06
1.61236e-06
1.61236e-06
1.61714e-06
1.61908e-06
1.61845e-06
1.61594e-06
1.61236e-06
1.61236e-06
1.61236e-06
1.61236e-06
1.61702e-06
1.61701e-06
1.61897e-06
1.61866e-06
1.61679e-06
1.61704e-06
1.61721e-06
1.6172e-06
1.61714e-06
1.61702e-06
1.61891e-06
1.619e-06
1.61874e-06
1.61693e-06
1.61908e-06
1.61897e-06
1.59938e-06
1.59922e-06
1.59902e-06
1.59675e-06
1.59668e-06
1.59653e-06
1.59677e-06
1.59905e-06
1.59928e-06
1.59902e-06
1.59589e-06
1.59296e-06
1.59296e-06
1.59296e-06
1.59296e-06
1.59654e-06
1.59736e-06
1.59675e-06
1.59296e-06
1.59296e-06
1.59296e-06
1.59296e-06
1.59296e-06
1.59296e-06
1.59764e-06
1.5996e-06
1.59939e-06
1.59668e-06
1.59296e-06
1.59296e-06
1.59296e-06
1.59296e-06
1.59296e-06
1.59296e-06
1.59781e-06
1.59934e-06
1.59922e-06
1.59653e-06
1.59296e-06
1.59296e-06
1.59296e-06
1.59296e-06
1.59296e-06
1.59296e-06
1.5978e-06
1.59753e-06
1.59677e-06
1.59296e-06
1.59296e-06
1.59296e-06
1.59296e-06
1.59296e-06
1.59296e-06
1.59774e-06
1.59968e-06
1.59905e-06
1.59654e-06
1.59296e-06
1.59296e-06
1.59296e-06
1.59296e-06
1.59762e-06
1.59761e-06
1.59957e-06
1.59926e-06
1.59739e-06
1.59764e-06
1.59781e-06
1.5978e-06
1.59774e-06
1.59762e-06
1.59952e-06
1.5996e-06
1.59934e-06
1.59753e-06
1.59968e-06
1.59958e-06
1.57998e-06
1.57982e-06
1.57962e-06
1.57735e-06
1.57728e-06
1.57713e-06
1.57737e-06
1.57965e-06
1.57988e-06
1.57962e-06
1.5765e-06
1.57356e-06
1.57356e-06
1.57356e-06
1.57356e-06
1.57714e-06
1.57796e-06
1.57735e-06
1.57356e-06
1.57356e-06
1.57356e-06
1.57356e-06
1.57356e-06
1.57356e-06
1.57824e-06
1.5802e-06
1.57999e-06
1.57728e-06
1.57356e-06
1.57356e-06
1.57356e-06
1.57356e-06
1.57356e-06
1.57356e-06
1.57841e-06
1.57994e-06
1.57982e-06
1.57713e-06
1.57356e-06
1.57356e-06
1.57356e-06
1.57356e-06
1.57356e-06
1.57356e-06
1.5784e-06
1.57813e-06
1.57737e-06
1.57356e-06
1.57356e-06
1.57356e-06
1.57356e-06
1.57356e-06
1.57356e-06
1.57834e-06
1.58028e-06
1.57965e-06
1.57714e-06
1.57356e-06
1.57356e-06
1.57356e-06
1.57356e-06
1.57822e-06
1.57821e-06
1.58017e-06
1.57986e-06
1.57799e-06
1.57824e-06
1.57841e-06
1.5784e-06
1.57834e-06
1.57822e-06
1.58012e-06
1.5802e-06
1.57994e-06
1.57813e-06
1.58028e-06
1.58018e-06
1.56058e-06
1.56042e-06
1.56022e-06
1.55795e-06
1.55788e-06
1.55773e-06
1.55797e-06
1.56025e-06
1.56048e-06
1.56022e-06
1.5571e-06
1.55416e-06
1.55416e-06
1.55416e-06
1.55416e-06
1.55774e-06
1.55856e-06
1.55795e-06
1.55416e-06
1.55416e-06
1.55416e-06
1.55416e-06
1.55416e-06
1.55416e-06
1.55884e-06
1.5608e-06
1.56059e-06
1.55788e-06
1.55416e-06
1.55416e-06
1.55416e-06
1.55416e-06
1.55416e-06
1.55416e-06
1.55901e-06
1.56054e-06
1.56042e-06
1.55773e-06
1.55416e-06
1.55416e-06
1.55416e-06
1.55416e-06
1.55416e-06
1.55416e-06
1.559e-06
1.55873e-06
1.55797e-06
1.55416e-06
1.55416e-06
1.55416e-06
1.55416e-06
1.55416e-06
1.55416e-06
1.55894e-06
1.56088e-06
1.56025e-06
1.55774e-06
1.55416e-06
1.55416e-06
1.55416e-06
1.55416e-06
1.55882e-06
1.55882e-06
1.56078e-06
1.56046e-06
1.55859e-06
1.55884e-06
1.55901e-06
1.55901e-06
1.55894e-06
1.55882e-06
1.56072e-06
1.5608e-06
1.56054e-06
1.55873e-06
1.56088e-06
1.56078e-06
1.54118e-06
1.54102e-06
1.54082e-06
1.53855e-06
1.53848e-06
1.53833e-06
1.53858e-06
1.54085e-06
1.54108e-06
1.54082e-06
1.5377e-06
1.53476e-06
1.53476e-06
1.53476e-06
1.53476e-06
1.53834e-06
1.53916e-06
1.53855e-06
1.53476e-06
1.53476e-06
1.53476e-06
1.53476e-06
1.53476e-06
1.53476e-06
1.53944e-06
1.5414e-06
1.54119e-06
1.53848e-06
1.53476e-06
1.53476e-06
1.53476e-06
1.53476e-06
1.53476e-06
1.53476e-06
1.53961e-06
1.54114e-06
1.54102e-06
1.53833e-06
1.53476e-06
1.53476e-06
1.53476e-06
1.53476e-06
1.53476e-06
1.53476e-06
1.53961e-06
1.53933e-06
1.53857e-06
1.53476e-06
1.53476e-06
1.53476e-06
1.53476e-06
1.53476e-06
1.53476e-06
1.53954e-06
1.54148e-06
1.54085e-06
1.53834e-06
1.53476e-06
1.53476e-06
1.53476e-06
1.53476e-06
1.53942e-06
1.53942e-06
1.54138e-06
1.54106e-06
1.53919e-06
1.53945e-06
1.53961e-06
1.53961e-06
1.53954e-06
1.53942e-06
1.54132e-06
1.5414e-06
1.54114e-06
1.53933e-06
1.54148e-06
1.54138e-06
1.52178e-06
1.52162e-06
1.52142e-06
1.51915e-06
1.51908e-06
1.51893e-06
1.51917e-06
1.52145e-06
1.52168e-06
1.52142e-06
1.5183e-06
1.51536e-06
1.51536e-06
1.51536e-06
1.51536e-06
1.51894e-06
1.51976e-06
1.51915e-06
1.51536e-06
1.51536e-06
1.51536e-06
1.51536e-06
1.51536e-06
1.51536e-06
1.52004e-06
1.522e-06
1.52179e-06
1.51908e-06
1.51536e-06
1.51536e-06
1.51536e-06
1.51536e-06
1.51536e-06
1.51536e-06
1.52021e-06
1.52174e-06
1.52162e-06
1.51893e-06
1.51536e-06
1.51536e-06
1.51536e-06
1.51536e-06
1.51536e-06
1.51536e-06
1.52021e-06
1.51993e-06
1.51917e-06
1.51536e-06
1.51536e-06
1.51536e-06
1.51536e-06
1.51536e-06
1.51536e-06
1.52014e-06
1.52208e-06
1.52145e-06
1.51894e-06
1.51536e-06
1.51536e-06
1.51536e-06
1.51536e-06
1.52002e-06
1.52002e-06
1.52198e-06
1.52166e-06
1.51979e-06
1.52005e-06
1.52021e-06
1.52021e-06
1.52014e-06
1.52002e-06
1.52192e-06
1.522e-06
1.52174e-06
1.51993e-06
1.52208e-06
1.52198e-06
1.50238e-06
1.50222e-06
1.50202e-06
1.49975e-06
1.49968e-06
1.49953e-06
1.49977e-06
1.50205e-06
1.50228e-06
1.50202e-06
1.4989e-06
1.49596e-06
1.49596e-06
1.49596e-06
1.49596e-06
1.49954e-06
1.50036e-06
1.49975e-06
1.49596e-06
1.49596e-06
1.49596e-06
1.49596e-06
1.49596e-06
1.49596e-06
1.50064e-06
1.5026e-06
1.50239e-06
1.49968e-06
1.49596e-06
1.49596e-06
1.49596e-06
1.49596e-06
1.49596e-06
1.49596e-06
1.50081e-06
1.50234e-06
1.50222e-06
1.49953e-06
1.49596e-06
1.49596e-06
1.49596e-06
1.49596e-06
1.49596e-06
1.49596e-06
1.5008e-06
1.50053e-06
1.49977e-06
1.49596e-06
1.49596e-06
1.49596e-06
1.49596e-06
1.49596e-06
1.49596e-06
1.50074e-06
1.50268e-06
1.50205e-06
1.49954e-06
1.49596e-06
1.49596e-06
1.49596e-06
1.49596e-06
1.50062e-06
1.50061e-06
1.50257e-06
1.50226e-06
1.50039e-06
1.50064e-06
1.50081e-06
1.5008e-06
1.50074e-06
1.50062e-06
1.50252e-06
1.5026e-06
1.50234e-06
1.50053e-06
1.50268e-06
1.50258e-06
1.48298e-06
1.48282e-06
1.48262e-06
1.48035e-06
1.48028e-06
1.48013e-06
1.48037e-06
1.48265e-06
1.48288e-06
1.48262e-06
1.47949e-06
1.47656e-06
1.47656e-06
1.47656e-06
1.47656e-06
1.48014e-06
1.48096e-06
1.48035e-06
1.47656e-06
1.47656e-06
1.47656e-06
1.47656e-06
1.47656e-06
1.47656e-06
1.48124e-06
1.4832e-06
1.48299e-06
1.48028e-06
1.47656e-06
1.47656e-06
1.47656e-06
1.47656e-06
1.47656e-06
1.47656e-06
1.48141e-06
1.48294e-06
1.48282e-06
1.48013e-06
1.47656e-06
1.47656e-06
1.47656e-06
1.47656e-06
1.47656e-06
1.47656e-06
1.4814e-06
1.48113e-06
1.48037e-06
1.47656e-06
1.47656e-06
1.47656e-06
1.47656e-06
1.47656e-06
1.47656e-06
1.48134e-06
1.48328e-06
1.48265e-06
1.48014e-06
1.47656e-06
1.47656e-06
1.47656e-06
1.47656e-06
1.48122e-06
1.48121e-06
1.48317e-06
1.48286e-06
1.48099e-06
1.48124e-06
1.48141e-06
1.4814e-06
1.48134e-06
1.48122e-06
1.48312e-06
1.4832e-06
1.48294e-06
1.48113e-06
1.48328e-06
1.48318e-06
1.46358e-06
1.46342e-06
1.46322e-06
1.46095e-06
1.46088e-06
1.46073e-06
1.46097e-06
1.46325e-06
1.46348e-06
1.46322e-06
1.46009e-06
1.45716e-06
1.45716e-06
1.45716e-06
1.45716e-06
1.46074e-06
1.46156e-06
1.46095e-06
1.45716e-06
1.45716e-06
1.45716e-06
1.45716e-06
1.45716e-06
1.45716e-06
1.46184e-06
1.4638e-06
1.46359e-06
1.46088e-06
1.45716e-06
1.45716e-06
1.45716e-06
1.45716e-06
1.45716e-06
1.45716e-06
1.46201e-06
1.46354e-06
1.46341e-06
1.46073e-06
1.45716e-06
1.45716e-06
1.45716e-06
1.45716e-06
1.45716e-06
1.45716e-06
1.462e-06
1.46173e-06
1.46097e-06
1.45716e-06
1.45716e-06
1.45716e-06
1.45716e-06
1.45716e-06
1.45716e-06
1.46194e-06
1.46388e-06
1.46325e-06
1.46074e-06
1.45716e-06
1.45716e-06
1.45716e-06
1.45716e-06
1.46182e-06
1.46181e-06
1.46377e-06
1.46346e-06
1.46159e-06
1.46184e-06
1.46201e-06
1.462e-06
1.46194e-06
1.46182e-06
1.46371e-06
1.4638e-06
1.46354e-06
1.46173e-06
1.46388e-06
1.46377e-06
1.44418e-06
1.44401e-06
1.44382e-06
1.44155e-06
1.44147e-06
1.44133e-06
1.44157e-06
1.44385e-06
1.44408e-06
1.44382e-06
1.44069e-06
1.43776e-06
1.43776e-06
1.43776e-06
1.43776e-06
1.44134e-06
1.44216e-06
1.44155e-06
1.43776e-06
1.43776e-06
1.43776e-06
1.43776e-06
1.43776e-06
1.43776e-06
1.44244e-06
1.44439e-06
1.44419e-06
1.44147e-06
1.43776e-06
1.43776e-06
1.43776e-06
1.43776e-06
1.43776e-06
1.43776e-06
1.44261e-06
1.44414e-06
1.44401e-06
1.44133e-06
1.43776e-06
1.43776e-06
1.43776e-06
1.43776e-06
1.43776e-06
1.43776e-06
1.4426e-06
1.44233e-06
1.44157e-06
1.43776e-06
1.43776e-06
1.43776e-06
1.43776e-06
1.43776e-06
1.43776e-06
1.44254e-06
1.44448e-06
1.44385e-06
1.44134e-06
1.43776e-06
1.43776e-06
1.43776e-06
1.43776e-06
1.44241e-06
1.44241e-06
1.44437e-06
1.44406e-06
1.44219e-06
1.44244e-06
1.44261e-06
1.4426e-06
1.44254e-06
1.44241e-06
1.44431e-06
1.44439e-06
1.44414e-06
1.44233e-06
1.44448e-06
1.44437e-06
1.42478e-06
1.42461e-06
1.42442e-06
1.42215e-06
1.42207e-06
1.42193e-06
1.42217e-06
1.42445e-06
1.42467e-06
1.42441e-06
1.42129e-06
1.41836e-06
1.41836e-06
1.41836e-06
1.41836e-06
1.42193e-06
1.42276e-06
1.42215e-06
1.41836e-06
1.41836e-06
1.41836e-06
1.41836e-06
1.41836e-06
1.41836e-06
1.42304e-06
1.42499e-06
1.42478e-06
1.42207e-06
1.41836e-06
1.41836e-06
1.41836e-06
1.41836e-06
1.41836e-06
1.41836e-06
1.42321e-06
1.42474e-06
1.42461e-06
1.42193e-06
1.41836e-06
1.41836e-06
1.41836e-06
1.41836e-06
1.41836e-06
1.41836e-06
1.4232e-06
1.42293e-06
1.42217e-06
1.41836e-06
1.41836e-06
1.41836e-06
1.41836e-06
1.41836e-06
1.41836e-06
1.42314e-06
1.42508e-06
1.42445e-06
1.42194e-06
1.41836e-06
1.41836e-06
1.41836e-06
1.41836e-06
1.42301e-06
1.42301e-06
1.42497e-06
1.42466e-06
1.42279e-06
1.42304e-06
1.42321e-06
1.4232e-06
1.42314e-06
1.42301e-06
1.42491e-06
1.42499e-06
1.42474e-06
1.42293e-06
1.42508e-06
1.42497e-06
1.40538e-06
1.40521e-06
1.40501e-06
1.40275e-06
1.40267e-06
1.40253e-06
1.40277e-06
1.40504e-06
1.40527e-06
1.40501e-06
1.40189e-06
1.39896e-06
1.39896e-06
1.39896e-06
1.39896e-06
1.40253e-06
1.40336e-06
1.40275e-06
1.39896e-06
1.39896e-06
1.39896e-06
1.39896e-06
1.39896e-06
1.39896e-06
1.40364e-06
1.40559e-06
1.40538e-06
1.40267e-06
1.39896e-06
1.39896e-06
1.39896e-06
1.39896e-06
1.39896e-06
1.39896e-06
1.40381e-06
1.40534e-06
1.40521e-06
1.40253e-06
1.39896e-06
1.39896e-06
1.39896e-06
1.39896e-06
1.39896e-06
1.39896e-06
1.4038e-06
1.40352e-06
1.40277e-06
1.39896e-06
1.39896e-06
1.39896e-06
1.39896e-06
1.39896e-06
1.39896e-06
1.40374e-06
1.40568e-06
1.40504e-06
1.40254e-06
1.39896e-06
1.39896e-06
1.39896e-06
1.39896e-06
1.40361e-06
1.40361e-06
1.40557e-06
1.40526e-06
1.40339e-06
1.40364e-06
1.4038e-06
1.4038e-06
1.40374e-06
1.40361e-06
1.40551e-06
1.40559e-06
1.40534e-06
1.40353e-06
1.40567e-06
1.40557e-06
1.38598e-06
1.38581e-06
1.38561e-06
1.38335e-06
1.38327e-06
1.38313e-06
1.38337e-06
1.38564e-06
1.38587e-06
1.38561e-06
1.38249e-06
1.37955e-06
1.37955e-06
1.37955e-06
1.37955e-06
1.38313e-06
1.38396e-06
1.38335e-06
1.37955e-06
1.37955e-06
1.37955e-06
1.37955e-06
1.37955e-06
1.37955e-06
1.38424e-06
1.38619e-06
1.38598e-06
1.38327e-06
1.37955e-06
1.37955e-06
1.37955e-06
1.37955e-06
1.37955e-06
1.37955e-06
1.3844e-06
1.38594e-06
1.38581e-06
1.38313e-06
1.37955e-06
1.37955e-06
1.37955e-06
1.37955e-06
1.37955e-06
1.37955e-06
1.3844e-06
1.38412e-06
1.38337e-06
1.37955e-06
1.37955e-06
1.37955e-06
1.37955e-06
1.37955e-06
1.37955e-06
1.38434e-06
1.38627e-06
1.38564e-06
1.38314e-06
1.37955e-06
1.37955e-06
1.37955e-06
1.37955e-06
1.38421e-06
1.38421e-06
1.38617e-06
1.38585e-06
1.38399e-06
1.38424e-06
1.3844e-06
1.3844e-06
1.38433e-06
1.38421e-06
1.38611e-06
1.38619e-06
1.38594e-06
1.38412e-06
1.38627e-06
1.38617e-06
1.36657e-06
1.36641e-06
1.36621e-06
1.36395e-06
1.36387e-06
1.36372e-06
1.36397e-06
1.36624e-06
1.36647e-06
1.36621e-06
1.36309e-06
1.36015e-06
1.36015e-06
1.36015e-06
1.36015e-06
1.36373e-06
1.36455e-06
1.36395e-06
1.36015e-06
1.36015e-06
1.36015e-06
1.36015e-06
1.36015e-06
1.36015e-06
1.36483e-06
1.36679e-06
1.36658e-06
1.36387e-06
1.36015e-06
1.36015e-06
1.36015e-06
1.36015e-06
1.36015e-06
1.36015e-06
1.365e-06
1.36654e-06
1.36641e-06
1.36373e-06
1.36015e-06
1.36015e-06
1.36015e-06
1.36015e-06
1.36015e-06
1.36015e-06
1.365e-06
1.36472e-06
1.36397e-06
1.36015e-06
1.36015e-06
1.36015e-06
1.36015e-06
1.36015e-06
1.36015e-06
1.36494e-06
1.36687e-06
1.36624e-06
1.36374e-06
1.36015e-06
1.36015e-06
1.36015e-06
1.36015e-06
1.36481e-06
1.36481e-06
1.36677e-06
1.36645e-06
1.36459e-06
1.36484e-06
1.365e-06
1.365e-06
1.36493e-06
1.36481e-06
1.36671e-06
1.36679e-06
1.36654e-06
1.36472e-06
1.36687e-06
1.36677e-06
1.34717e-06
1.34701e-06
1.34681e-06
1.34455e-06
1.34447e-06
1.34432e-06
1.34457e-06
1.34684e-06
1.34707e-06
1.34681e-06
1.34369e-06
1.34075e-06
1.34075e-06
1.34075e-06
1.34075e-06
1.34433e-06
1.34515e-06
1.34454e-06
1.34075e-06
1.34075e-06
1.34075e-06
1.34075e-06
1.34075e-06
1.34075e-06
1.34543e-06
1.34739e-06
1.34718e-06
1.34447e-06
1.34075e-06
1.34075e-06
1.34075e-06
1.34075e-06
1.34075e-06
1.34075e-06
1.3456e-06
1.34714e-06
1.34701e-06
1.34432e-06
1.34075e-06
1.34075e-06
1.34075e-06
1.34075e-06
1.34075e-06
1.34075e-06
1.3456e-06
1.34532e-06
1.34457e-06
1.34075e-06
1.34075e-06
1.34075e-06
1.34075e-06
1.34075e-06
1.34075e-06
1.34554e-06
1.34747e-06
1.34684e-06
1.34433e-06
1.34075e-06
1.34075e-06
1.34075e-06
1.34075e-06
1.34541e-06
1.34541e-06
1.34737e-06
1.34705e-06
1.34518e-06
1.34544e-06
1.3456e-06
1.3456e-06
1.34553e-06
1.34541e-06
1.34731e-06
1.34739e-06
1.34714e-06
1.34532e-06
1.34747e-06
1.34737e-06
1.32777e-06
1.32761e-06
1.32741e-06
1.32514e-06
1.32507e-06
1.32492e-06
1.32516e-06
1.32744e-06
1.32767e-06
1.32741e-06
1.32429e-06
1.32135e-06
1.32135e-06
1.32135e-06
1.32135e-06
1.32493e-06
1.32575e-06
1.32514e-06
1.32135e-06
1.32135e-06
1.32135e-06
1.32135e-06
1.32135e-06
1.32135e-06
1.32603e-06
1.32799e-06
1.32778e-06
1.32507e-06
1.32135e-06
1.32135e-06
1.32135e-06
1.32135e-06
1.32135e-06
1.32135e-06
1.3262e-06
1.32773e-06
1.32761e-06
1.32492e-06
1.32135e-06
1.32135e-06
1.32135e-06
1.32135e-06
1.32135e-06
1.32135e-06
1.3262e-06
1.32592e-06
1.32516e-06
1.32135e-06
1.32135e-06
1.32135e-06
1.32135e-06
1.32135e-06
1.32135e-06
1.32613e-06
1.32807e-06
1.32744e-06
1.32493e-06
1.32135e-06
1.32135e-06
1.32135e-06
1.32135e-06
1.32601e-06
1.32601e-06
1.32797e-06
1.32765e-06
1.32578e-06
1.32604e-06
1.3262e-06
1.3262e-06
1.32613e-06
1.32601e-06
1.32791e-06
1.32799e-06
1.32773e-06
1.32592e-06
1.32807e-06
1.32797e-06
1.30837e-06
1.30821e-06
1.30801e-06
1.30574e-06
1.30567e-06
1.30552e-06
1.30576e-06
1.30804e-06
1.30827e-06
1.30801e-06
1.30488e-06
1.30195e-06
1.30195e-06
1.30195e-06
1.30195e-06
1.30553e-06
1.30635e-06
1.30574e-06
1.30195e-06
1.30195e-06
1.30195e-06
1.30195e-06
1.30195e-06
1.30195e-06
1.30663e-06
1.30859e-06
1.30838e-06
1.30567e-06
1.30195e-06
1.30195e-06
1.30195e-06
1.30195e-06
1.30195e-06
1.30195e-06
1.3068e-06
1.30833e-06
1.30821e-06
1.30552e-06
1.30195e-06
1.30195e-06
1.30195e-06
1.30195e-06
1.30195e-06
1.30195e-06
1.30679e-06
1.30652e-06
1.30576e-06
1.30195e-06
1.30195e-06
1.30195e-06
1.30195e-06
1.30195e-06
1.30195e-06
1.30673e-06
1.30867e-06
1.30804e-06
1.30553e-06
1.30195e-06
1.30195e-06
1.30195e-06
1.30195e-06
1.30661e-06
1.3066e-06
1.30856e-06
1.30825e-06
1.30638e-06
1.30663e-06
1.3068e-06
1.30679e-06
1.30673e-06
1.30661e-06
1.30851e-06
1.30859e-06
1.30833e-06
1.30652e-06
1.30867e-06
1.30857e-06
1.28897e-06
1.28881e-06
1.28861e-06
1.28634e-06
1.28627e-06
1.28612e-06
1.28636e-06
1.28864e-06
1.28887e-06
1.28861e-06
1.28548e-06
1.28255e-06
1.28255e-06
1.28255e-06
1.28255e-06
1.28613e-06
1.28695e-06
1.28634e-06
1.28255e-06
1.28255e-06
1.28255e-06
1.28255e-06
1.28255e-06
1.28255e-06
1.28723e-06
1.28919e-06
1.28898e-06
1.28627e-06
1.28255e-06
1.28255e-06
1.28255e-06
1.28255e-06
1.28255e-06
1.28255e-06
1.2874e-06
1.28893e-06
1.28881e-06
1.28612e-06
1.28255e-06
1.28255e-06
1.28255e-06
1.28255e-06
1.28255e-06
1.28255e-06
1.28739e-06
1.28712e-06
1.28636e-06
1.28255e-06
1.28255e-06
1.28255e-06
1.28255e-06
1.28255e-06
1.28255e-06
1.28733e-06
1.28927e-06
1.28864e-06
1.28613e-06
1.28255e-06
1.28255e-06
1.28255e-06
1.28255e-06
1.28721e-06
1.2872e-06
1.28916e-06
1.28885e-06
1.28698e-06
1.28723e-06
1.2874e-06
1.28739e-06
1.28733e-06
1.28721e-06
1.28911e-06
1.28919e-06
1.28893e-06
1.28712e-06
1.28927e-06
1.28916e-06
1.26957e-06
1.2694e-06
1.26921e-06
1.26694e-06
1.26686e-06
1.26672e-06
1.26696e-06
1.26924e-06
1.26947e-06
1.26921e-06
1.26608e-06
1.26315e-06
1.26315e-06
1.26315e-06
1.26315e-06
1.26673e-06
1.26755e-06
1.26694e-06
1.26315e-06
1.26315e-06
1.26315e-06
1.26315e-06
1.26315e-06
1.26315e-06
1.26783e-06
1.26978e-06
1.26958e-06
1.26686e-06
1.26315e-06
1.26315e-06
1.26315e-06
1.26315e-06
1.26315e-06
1.26315e-06
1.268e-06
1.26953e-06
1.2694e-06
1.26672e-06
1.26315e-06
1.26315e-06
1.26315e-06
1.26315e-06
1.26315e-06
1.26315e-06
1.26799e-06
1.26772e-06
1.26696e-06
1.26315e-06
1.26315e-06
1.26315e-06
1.26315e-06
1.26315e-06
1.26315e-06
1.26793e-06
1.26987e-06