/*--------------------------------*- C++ -*----------------------------------*\
| =========                 |                                                 |
| \\      /  F ield         | OpenFOAM: The Open Source CFD Toolbox           |
|  \\    /   O peration     | Version:  v2012                                 |
|   \\  /    A nd           | Website:  www.openfoam.com                      |
|    \\/     M anipulation  |                                                 |
\*---------------------------------------------------------------------------*/
FoamFile
{
    version     2.0;
    format      ascii;
    class       volScalarField;
    location    "200";
    object      epsilon;
}
// * * * * * * * * * * * * * * * * * * * * * * * * * * * * * * * * * * * * * //

dimensions      [0 2 -3 0 0 0 0];


internalField   nonuniform List<scalar> 
171728
(
1.09486e-08
3.60327e-09
4.91292e-09
5.07975e-09
1.08589e-08
3.35164e-09
4.54309e-09
4.64609e-09
1.10151e-08
3.12201e-09
4.23742e-09
4.23382e-09
1.11821e-08
2.93406e-09
3.96672e-09
3.87655e-09
1.13634e-08
2.7882e-09
3.7301e-09
3.57646e-09
1.15595e-08
2.68725e-09
3.54791e-09
3.33656e-09
1.17683e-08
2.63918e-09
3.42732e-09
3.14185e-09
1.19923e-08
2.63745e-09
3.3565e-09
2.98201e-09
1.22324e-08
2.67764e-09
3.33535e-09
2.85844e-09
1.24878e-08
2.76338e-09
3.36174e-09
2.769e-09
1.27523e-08
2.9047e-09
3.44044e-09
2.71576e-09
1.30262e-08
3.08436e-09
3.56589e-09
2.7041e-09
1.33132e-08
3.3209e-09
3.74523e-09
2.73856e-09
1.36076e-08
3.62956e-09
3.99608e-09
2.83305e-09
1.39051e-08
4.02322e-09
4.34118e-09
3.01383e-09
1.42087e-08
4.53805e-09
4.81714e-09
3.32855e-09
1.45137e-08
5.24756e-09
5.4825e-09
3.87001e-09
1.48222e-08
6.21073e-09
6.43955e-09
4.77108e-09
1.51442e-08
7.59696e-09
7.77762e-09
6.30382e-09
1.54742e-08
9.5881e-09
9.6962e-09
8.99376e-09
1.58368e-08
1.23318e-08
1.26e-08
1.34252e-08
1.62333e-08
1.62788e-08
1.64013e-08
2.14e-08
1.66847e-08
2.16756e-08
2.19017e-08
3.2334e-08
1.72048e-08
2.93305e-08
2.95191e-08
5.33492e-08
1.78207e-08
3.88239e-08
3.89473e-08
8.11049e-08
1.85658e-08
5.19114e-08
5.20405e-08
1.22395e-07
1.94829e-08
6.70264e-08
6.7073e-08
1.74533e-07
2.06168e-08
8.64383e-08
8.57562e-08
2.39283e-07
2.20468e-08
1.0843e-07
1.07845e-07
3.13039e-07
2.38297e-08
1.35837e-07
1.33477e-07
3.92412e-07
2.60719e-08
1.63052e-07
1.62623e-07
4.71142e-07
2.88607e-08
1.95669e-07
1.95527e-07
5.48209e-07
3.23351e-08
2.31677e-07
2.32664e-07
6.18808e-07
3.66081e-08
2.68372e-07
2.72439e-07
6.80706e-07
4.1824e-08
3.09541e-07
3.12104e-07
7.38522e-07
4.81654e-08
3.52677e-07
3.56459e-07
7.88785e-07
5.59522e-08
3.98371e-07
4.01138e-07
8.3315e-07
6.49488e-08
4.44405e-07
4.4664e-07
8.73123e-07
7.57547e-08
4.91549e-07
4.9268e-07
9.05841e-07
8.83589e-08
5.36679e-07
5.38161e-07
9.33645e-07
1.03287e-07
5.83546e-07
5.84657e-07
9.63879e-07
1.20545e-07
6.25777e-07
6.26259e-07
9.9078e-07
1.35975e-07
6.48866e-07
6.49297e-07
9.9372e-07
1.48822e-07
6.61033e-07
6.61398e-07
9.83144e-07
1.64344e-07
6.79361e-07
6.79587e-07
9.78793e-07
1.91225e-07
7.17264e-07
7.17368e-07
9.96889e-07
2.31388e-07
7.67613e-07
7.67707e-07
1.03453e-06
2.79449e-07
8.18359e-07
8.18454e-07
1.0805e-06
3.25477e-07
8.61614e-07
8.61706e-07
1.12696e-06
3.56642e-07
8.87639e-07
8.87731e-07
1.15763e-06
3.72481e-07
8.99929e-07
9.00024e-07
1.17344e-06
3.79099e-07
9.04904e-07
9.05001e-07
1.1803e-06
3.8152e-07
9.06768e-07
9.06863e-07
1.1831e-06
3.82302e-07
9.07403e-07
9.07497e-07
1.18415e-06
3.82434e-07
9.07469e-07
9.07566e-07
1.18437e-06
3.82443e-07
9.07426e-07
9.07522e-07
1.1841e-06
3.82481e-07
9.07517e-07
9.07612e-07
1.18439e-06
3.82466e-07
9.07474e-07
9.07567e-07
1.1843e-06
3.82461e-07
9.07458e-07
9.07554e-07
1.18423e-06
3.82465e-07
9.07488e-07
9.07579e-07
1.18434e-06
3.82462e-07
9.07462e-07
9.07558e-07
1.18423e-06
3.82463e-07
9.07473e-07
9.07569e-07
1.1843e-06
3.82463e-07
9.07471e-07
9.07567e-07
1.18431e-06
3.82464e-07
9.07473e-07
9.07567e-07
1.18425e-06
3.82464e-07
9.07471e-07
9.07566e-07
1.18434e-06
3.82464e-07
9.07474e-07
9.07569e-07
1.1843e-06
3.82464e-07
9.0747e-07
9.07566e-07
1.18425e-06
3.82464e-07
9.07468e-07
9.07563e-07
1.18428e-06
3.82463e-07
9.07474e-07
9.07568e-07
1.18435e-06
3.82461e-07
9.07472e-07
9.0757e-07
1.1843e-06
3.82461e-07
9.07468e-07
9.07565e-07
1.18424e-06
3.82461e-07
9.07475e-07
9.07567e-07
1.1843e-06
3.8246e-07
9.07472e-07
9.07569e-07
1.18434e-06
3.82459e-07
9.07468e-07
9.0756e-07
1.18428e-06
3.82458e-07
9.07471e-07
9.0757e-07
1.18425e-06
3.82456e-07
9.07476e-07
9.0756e-07
1.18436e-06
3.82454e-07
9.07463e-07
9.07561e-07
1.18433e-06
3.82454e-07
9.07471e-07
9.07562e-07
1.18426e-06
3.82453e-07
9.07469e-07
9.07562e-07
1.18426e-06
3.82453e-07
9.07465e-07
9.07563e-07
1.18429e-06
3.82452e-07
9.0747e-07
9.07566e-07
1.18425e-06
3.82451e-07
9.07464e-07
9.07565e-07
1.18418e-06
3.82451e-07
9.07467e-07
9.07566e-07
1.18422e-06
3.8245e-07
9.07468e-07
9.07562e-07
1.18428e-06
3.8245e-07
9.07466e-07
9.07561e-07
1.18432e-06
3.82451e-07
9.07468e-07
9.07568e-07
1.18434e-06
3.82451e-07
9.07473e-07
9.07574e-07
1.18431e-06
3.82452e-07
9.07481e-07
9.07577e-07
1.18427e-06
3.82452e-07
9.0749e-07
9.07587e-07
1.18426e-06
3.82454e-07
9.07502e-07
9.07598e-07
1.18427e-06
3.82456e-07
9.07518e-07
9.07618e-07
1.18432e-06
3.8246e-07
9.07552e-07
9.0765e-07
1.18435e-06
3.82457e-07
9.07596e-07
9.07692e-07
1.18426e-06
3.8195e-07
9.07296e-07
9.0739e-07
1.18392e-06
3.64397e-07
8.51146e-07
8.51201e-07
1.1387e-06
4.97078e-09
4.13521e-09
4.35594e-09
4.91391e-09
4.21024e-09
4.32691e-09
1.12021e-08
1.11724e-08
1.13308e-08
1.12638e-08
3.59432e-09
4.21108e-09
5.15289e-09
4.31329e-09
3.97495e-09
5.09875e-09
4.94312e-09
4.53712e-09
4.86948e-09
5.82225e-09
4.56297e-09
5.46403e-09
4.89023e-09
4.4907e-09
4.75524e-09
4.9333e-09
4.49182e-09
4.65968e-09
4.76468e-09
3.41493e-09
4.50022e-09
5.12603e-09
4.71795e-09
4.12528e-09
4.63258e-09
3.98087e-09
4.67662e-09
4.50403e-09
4.1472e-09
4.46274e-09
5.33633e-09
4.17789e-09
4.92081e-09
4.45839e-09
4.08901e-09
4.40681e-09
4.57184e-09
4.17663e-09
4.33474e-09
4.41518e-09
3.17651e-09
4.18187e-09
4.68507e-09
4.32248e-09
3.93265e-09
4.30967e-09
3.80055e-09
4.26212e-09
4.10441e-09
3.80503e-09
4.089e-09
4.77676e-09
3.84252e-09
4.3724e-09
4.05936e-09
3.7383e-09
4.10663e-09
4.26278e-09
3.91512e-09
4.06436e-09
4.11124e-09
2.97692e-09
3.91797e-09
4.27651e-09
3.97551e-09
3.75906e-09
4.03214e-09
3.64474e-09
3.90467e-09
3.76095e-09
3.50015e-09
3.7668e-09
4.25765e-09
3.55646e-09
3.9779e-09
3.71378e-09
3.43486e-09
3.85656e-09
4.00393e-09
3.69882e-09
3.84026e-09
3.85866e-09
2.82118e-09
3.69569e-09
3.92653e-09
3.67496e-09
3.61066e-09
3.78613e-09
3.52291e-09
3.59978e-09
3.46872e-09
3.23748e-09
3.49328e-09
3.90094e-09
3.32383e-09
3.70642e-09
3.41398e-09
3.16914e-09
3.65091e-09
3.79078e-09
3.52383e-09
3.66082e-09
3.64702e-09
2.7075e-09
3.52098e-09
3.63745e-09
3.4202e-09
3.49746e-09
3.58631e-09
3.42855e-09
3.3535e-09
3.21811e-09
3.01526e-09
3.27341e-09
3.65146e-09
3.14989e-09
3.51009e-09
3.15226e-09
2.94879e-09
3.48806e-09
3.62428e-09
3.39583e-09
3.52913e-09
3.48656e-09
2.64711e-09
3.39911e-09
3.3993e-09
3.2105e-09
3.40763e-09
3.4536e-09
3.35953e-09
3.15536e-09
2.99962e-09
2.82919e-09
3.11844e-09
3.47216e-09
3.0477e-09
3.38464e-09
2.93512e-09
2.7691e-09
3.37067e-09
3.50314e-09
3.31554e-09
3.44521e-09
3.37519e-09
2.63476e-09
3.3233e-09
3.19584e-09
3.03852e-09
3.34752e-09
3.36939e-09
3.32488e-09
2.99196e-09
2.81751e-09
2.68529e-09
3.03374e-09
3.36388e-09
3.01577e-09
3.33062e-09
2.7594e-09
2.63757e-09
3.30314e-09
3.43166e-09
3.28544e-09
3.41116e-09
3.31247e-09
2.66665e-09
3.29512e-09
3.02775e-09
2.9064e-09
3.32311e-09
3.33483e-09
3.33071e-09
2.86467e-09
2.67831e-09
2.59028e-09
3.01702e-09
3.32947e-09
3.03912e-09
3.33964e-09
2.63181e-09
2.54611e-09
3.28612e-09
3.41156e-09
3.30121e-09
3.42593e-09
3.29594e-09
2.74183e-09
3.313e-09
2.89983e-09
2.81351e-09
3.33861e-09
3.35314e-09
3.37693e-09
2.77118e-09
2.58835e-09
2.53682e-09
3.05278e-09
3.35067e-09
3.11443e-09
3.39739e-09
2.54483e-09
2.50035e-09
3.31187e-09
3.43708e-09
3.36459e-09
3.48968e-09
3.3249e-09
2.87052e-09
3.37954e-09
2.81139e-09
2.75677e-09
3.3953e-09
3.42013e-09
3.4651e-09
2.71288e-09
2.54048e-09
2.52351e-09
3.14091e-09
3.41907e-09
3.24083e-09
3.50666e-09
2.50487e-09
2.49527e-09
3.38763e-09
3.51328e-09
3.47716e-09
3.60402e-09
3.40401e-09
3.04249e-09
3.496e-09
2.75969e-09
2.737e-09
3.49409e-09
3.53441e-09
3.59818e-09
2.69313e-09
2.53532e-09
2.55266e-09
3.28016e-09
3.54169e-09
3.4187e-09
3.66585e-09
2.50752e-09
2.53174e-09
3.51395e-09
3.64136e-09
3.64441e-09
3.77248e-09
3.53327e-09
3.26241e-09
3.66504e-09
2.74778e-09
2.7591e-09
3.63938e-09
3.69826e-09
3.779e-09
2.71729e-09
2.57455e-09
2.63649e-09
3.47331e-09
3.71922e-09
3.66003e-09
3.90413e-09
2.5551e-09
2.62219e-09
3.69548e-09
3.82352e-09
3.87848e-09
4.0058e-09
3.71725e-09
3.5541e-09
3.89966e-09
2.77979e-09
2.83663e-09
3.83339e-09
3.93045e-09
4.01923e-09
2.79685e-09
2.67495e-09
2.78909e-09
3.7318e-09
3.97661e-09
3.9823e-09
4.22736e-09
2.66038e-09
2.79414e-09
3.94933e-09
4.07789e-09
4.20052e-09
4.3289e-09
3.97152e-09
3.92496e-09
4.21917e-09
2.87227e-09
2.99103e-09
4.09185e-09
4.24921e-09
4.34035e-09
2.95134e-09
2.85181e-09
3.0657e-09
4.08011e-09
4.32508e-09
4.4231e-09
4.66807e-09
2.85693e-09
3.07526e-09
4.29804e-09
4.42562e-09
4.64439e-09
4.76866e-09
4.31556e-09
4.40574e-09
4.65972e-09
3.05273e-09
3.26603e-09
4.43537e-09
4.68861e-09
4.77594e-09
3.22475e-09
3.16564e-09
3.53085e-09
4.5555e-09
4.80481e-09
5.0346e-09
5.28652e-09
3.18299e-09
3.55699e-09
4.7781e-09
4.90256e-09
5.26116e-09
5.38731e-09
4.79467e-09
5.06112e-09
5.27856e-09
3.36916e-09
3.74582e-09
4.90632e-09
5.30271e-09
5.37915e-09
3.69522e-09
3.705e-09
4.30491e-09
5.22381e-09
5.47509e-09
5.8849e-09
6.15022e-09
3.72746e-09
4.32976e-09
5.44902e-09
5.57683e-09
6.12828e-09
6.25565e-09
5.46931e-09
5.93913e-09
6.14215e-09
3.91587e-09
4.53847e-09
5.56414e-09
6.16258e-09
6.23201e-09
4.47806e-09
4.59704e-09
5.6891e-09
6.14809e-09
6.42631e-09
7.13159e-09
7.41924e-09
4.62792e-09
5.7519e-09
6.4025e-09
6.53776e-09
7.38323e-09
7.49972e-09
6.41043e-09
7.23369e-09
7.38587e-09
4.85478e-09
5.83041e-09
6.50152e-09
7.37975e-09
7.45976e-09
5.82963e-09
6.18927e-09
7.83364e-09
7.52769e-09
7.78936e-09
8.82895e-09
9.15848e-09
6.19685e-09
7.90563e-09
7.77685e-09
7.90691e-09
9.12268e-09
9.29675e-09
7.77209e-09
8.97775e-09
9.19152e-09
6.33746e-09
8.21999e-09
7.84427e-09
9.18385e-09
9.27e-09
8.23322e-09
8.52405e-09
1.23948e-08
9.36199e-09
9.77662e-09
1.1545e-08
1.18413e-08
8.83441e-09
1.23561e-08
9.65898e-09
9.8236e-09
1.1851e-08
1.19843e-08
9.72863e-09
1.16335e-08
1.17013e-08
8.8826e-09
1.25685e-08
9.80252e-09
1.18268e-08
1.17547e-08
1.19363e-08
1.39069e-08
1.83768e-08
1.2372e-08
1.25608e-08
1.49554e-08
1.53797e-08
1.34033e-08
1.84546e-08
1.2691e-08
1.27778e-08
1.53425e-08
1.54796e-08
1.25759e-08
1.51564e-08
1.55e-08
1.39675e-08
1.847e-08
1.26222e-08
1.52831e-08
1.55523e-08
1.9658e-08
2.01353e-08
2.95315e-08
1.60123e-08
1.65094e-08
2.00065e-08
2.04502e-08
2.06366e-08
2.97795e-08
1.64003e-08
1.66085e-08
2.03968e-08
2.06255e-08
1.65118e-08
2.01583e-08
2.02541e-08
2.05536e-08
3.00895e-08
1.65578e-08
2.03511e-08
2.02927e-08
2.90514e-08
3.28329e-08
4.7774e-08
2.15434e-08
2.19927e-08
2.68791e-08
2.75843e-08
3.29775e-08
4.89124e-08
2.19699e-08
2.21847e-08
2.74176e-08
2.77702e-08
2.1816e-08
2.72905e-08
2.73996e-08
3.33458e-08
4.90174e-08
2.18738e-08
2.74742e-08
2.74235e-08
4.83325e-08
5.2704e-08
7.53458e-08
2.9007e-08
2.96417e-08
3.613e-08
3.6367e-08
5.39012e-08
7.38211e-08
2.9523e-08
2.9868e-08
3.66262e-08
3.66076e-08
2.9496e-08
3.605e-08
3.64394e-08
5.39898e-08
7.40229e-08
2.95051e-08
3.62116e-08
3.64709e-08
7.45158e-08
8.18593e-08
1.12928e-07
3.8741e-08
3.90937e-08
4.79648e-08
4.87281e-08
8.04068e-08
1.14851e-07
3.92621e-08
3.93523e-08
4.85118e-08
4.91845e-08
3.91472e-08
4.85285e-08
4.83588e-08
8.04647e-08
1.15216e-07
3.91905e-08
4.86728e-08
4.85109e-08
1.13391e-07
1.2236e-07
1.63002e-07
5.14196e-08
5.21529e-08
6.25231e-08
6.31252e-08
1.24304e-07
1.6263e-07
5.19665e-08
5.26176e-08
6.30774e-08
6.36511e-08
5.17467e-08
6.28759e-08
6.31181e-08
1.24868e-07
1.63308e-07
5.18658e-08
6.29522e-08
6.32806e-08
1.62947e-07
1.73975e-07
2.25506e-07
6.66667e-08
6.72508e-08
8.04292e-08
8.09546e-08
1.73525e-07
2.25871e-07
6.71788e-08
6.78101e-08
8.09003e-08
8.15506e-08
6.72904e-08
8.13272e-08
8.09805e-08
1.74096e-07
2.25293e-07
6.75737e-08
8.07572e-08
8.12488e-08
2.25736e-07
2.3934e-07
2.97027e-07
8.53187e-08
8.59128e-08
1.01254e-07
1.02032e-07
2.39814e-07
2.98036e-07
8.58155e-08
8.65843e-08
1.01688e-07
1.02684e-07
8.59344e-08
1.02454e-07
1.01749e-07
2.39111e-07
2.98509e-07
8.61601e-08
1.02056e-07
1.02586e-07
2.97927e-07
3.12101e-07
3.75594e-07
1.07092e-07
1.07739e-07
1.25753e-07
1.26176e-07
3.13347e-07
3.77536e-07
1.07428e-07
1.08494e-07
1.25805e-07
1.27849e-07
1.07398e-07
1.28854e-07
1.25936e-07
3.13717e-07
3.7756e-07
1.0855e-07
1.26755e-07
1.2723e-07
3.76124e-07
3.91759e-07
4.55038e-07
1.32371e-07
1.32881e-07
1.5385e-07
1.5396e-07
3.93686e-07
4.54749e-07
1.32331e-07
1.34466e-07
1.5367e-07
1.55844e-07
1.3261e-07
1.5606e-07
1.53708e-07
3.9406e-07
4.57332e-07
1.33681e-07
1.5495e-07
1.54375e-07
4.5507e-07
4.71471e-07
5.31663e-07
1.61477e-07
1.61192e-07
1.85361e-07
1.84577e-07
4.70426e-07
5.29318e-07
1.61259e-07
1.63765e-07
1.84947e-07
1.87464e-07
1.6117e-07
1.86882e-07
1.85296e-07
4.73481e-07
5.33757e-07
1.61897e-07
1.86935e-07
1.86321e-07
5.31962e-07
5.4748e-07
6.0289e-07
1.93813e-07
1.93269e-07
2.20479e-07
2.21157e-07
5.45622e-07
6.04247e-07
1.9332e-07
1.95496e-07
2.19956e-07
2.22335e-07
1.93893e-07
2.22788e-07
2.2064e-07
5.49895e-07
6.04973e-07
1.94956e-07
2.23064e-07
2.21706e-07
6.03991e-07
6.1803e-07
6.67483e-07
2.29654e-07
2.30527e-07
2.58437e-07
2.59095e-07
6.19622e-07
6.67879e-07
2.2913e-07
2.31726e-07
2.5791e-07
2.59959e-07
2.29712e-07
2.58746e-07
2.57916e-07
6.1955e-07
6.65456e-07
2.30799e-07
2.62462e-07
2.59006e-07
6.66694e-07
6.8162e-07
7.25141e-07
2.68489e-07
2.69174e-07
2.99401e-07
3.00658e-07
6.81857e-07
7.25471e-07
2.6795e-07
2.69494e-07
2.98952e-07
2.98646e-07
2.67836e-07
2.99091e-07
2.99019e-07
6.78974e-07
7.20879e-07
2.68864e-07
3.01929e-07
2.99661e-07
7.25227e-07
7.38208e-07
7.76742e-07
3.1004e-07
3.1127e-07
3.42948e-07
3.43726e-07
7.38426e-07
7.75774e-07
3.09633e-07
3.08841e-07
3.42777e-07
3.41993e-07
3.09839e-07
3.41567e-07
3.43061e-07
7.33827e-07
7.73249e-07
3.10288e-07
3.45112e-07
3.42907e-07
7.76917e-07
7.88881e-07
8.23134e-07
3.54185e-07
3.54916e-07
3.89121e-07
3.8902e-07
7.87867e-07
8.21672e-07
3.54113e-07
3.53685e-07
3.8922e-07
3.89099e-07
3.54204e-07
3.8696e-07
3.8849e-07
7.85659e-07
8.20509e-07
3.5385e-07
3.90006e-07
3.87134e-07
8.22047e-07
8.34271e-07
8.63509e-07
4.01043e-07
4.00304e-07
4.36368e-07
4.34253e-07
8.32564e-07
8.60936e-07
4.01061e-07
4.00714e-07
4.36037e-07
4.35192e-07
4.00353e-07
4.32723e-07
4.36263e-07
8.31687e-07
8.616e-07
3.9854e-07
4.35163e-07
4.33526e-07
8.63212e-07
8.73266e-07
8.97812e-07
4.4808e-07
4.45835e-07
4.83788e-07
4.80999e-07
8.70745e-07
8.95871e-07
4.47645e-07
4.46765e-07
4.82914e-07
4.81819e-07
4.48126e-07
4.79844e-07
4.83566e-07
8.71589e-07
8.96704e-07
4.45294e-07
4.81147e-07
4.80388e-07
8.97363e-07
9.0638e-07
9.25781e-07
4.95781e-07
4.92605e-07
5.30175e-07
5.26346e-07
9.04702e-07
9.25935e-07
4.94682e-07
4.93443e-07
5.28685e-07
5.2727e-07
4.95357e-07
5.25594e-07
5.29396e-07
9.05428e-07
9.26473e-07
4.91956e-07
5.26946e-07
5.25631e-07
9.25853e-07
9.33307e-07
9.54047e-07
5.40935e-07
5.3737e-07
5.73672e-07
5.72099e-07
9.34036e-07
9.56355e-07
5.3946e-07
5.38251e-07
5.72501e-07
5.72664e-07
5.40154e-07
5.71432e-07
5.73205e-07
9.34532e-07
9.5657e-07
5.36573e-07
5.72764e-07
5.70777e-07
9.55163e-07
9.62731e-07
9.84064e-07
5.85143e-07
5.84215e-07
6.17312e-07
6.17499e-07
9.65121e-07
9.85541e-07
5.84057e-07
5.84649e-07
6.16466e-07
6.1768e-07
5.84804e-07
6.16861e-07
6.17333e-07
9.65219e-07
9.85426e-07
5.82763e-07
6.17437e-07
6.16048e-07
9.84973e-07
9.89956e-07
9.91525e-07
6.26089e-07
6.26377e-07
6.45077e-07
6.45251e-07
9.91159e-07
9.91631e-07
6.25329e-07
6.2652e-07
6.44564e-07
6.45433e-07
6.26199e-07
6.44803e-07
6.45357e-07
9.91056e-07
9.91823e-07
6.25072e-07
6.45249e-07
6.4446e-07
9.9193e-07
9.93345e-07
9.81583e-07
6.49237e-07
6.49261e-07
6.58572e-07
6.58275e-07
9.93419e-07
9.81216e-07
6.48787e-07
6.49446e-07
6.58218e-07
6.58478e-07
6.49488e-07
6.5796e-07
6.58662e-07
9.93611e-07
9.81503e-07
6.48675e-07
6.58349e-07
6.57985e-07
9.81682e-07
9.83072e-07
9.75913e-07
6.61706e-07
6.61335e-07
6.74023e-07
6.73577e-07
9.82687e-07
9.75457e-07
6.61365e-07
6.61531e-07
6.73713e-07
6.7375e-07
6.61739e-07
6.73318e-07
6.73933e-07
9.82965e-07
9.75653e-07
6.61107e-07
6.7358e-07
6.73436e-07
9.7584e-07
9.78886e-07
9.89769e-07
6.80033e-07
6.79611e-07
7.06161e-07
7.05886e-07
9.78457e-07
9.89518e-07
6.79726e-07
6.79768e-07
7.05874e-07
7.0599e-07
6.79932e-07
7.05675e-07
7.06081e-07
9.7862e-07
9.89596e-07
6.79475e-07
7.058e-07
7.05738e-07
9.89728e-07
9.9693e-07
1.02528e-06
7.17692e-07
7.17472e-07
7.55215e-07
7.55086e-07
9.96724e-07
1.02519e-06
7.17407e-07
7.17557e-07
7.54949e-07
7.55166e-07
7.17632e-07
7.5491e-07
7.55211e-07
9.96779e-07
1.02524e-06
7.17315e-07
7.55005e-07
7.54928e-07
1.02532e-06
1.0345e-06
1.06991e-06
7.67891e-07
7.67781e-07
8.06024e-07
8.05948e-07
1.03442e-06
1.06989e-06
7.67629e-07
7.6786e-07
8.05786e-07
8.06039e-07
7.67903e-07
8.05817e-07
8.0606e-07
1.03447e-06
1.06995e-06
7.6763e-07
8.05913e-07
8.05817e-07
1.07e-06
1.08043e-06
1.11754e-06
8.18553e-07
8.1848e-07
8.5246e-07
8.52385e-07
1.08042e-06
1.11753e-06
8.18317e-07
8.18572e-07
8.52242e-07
8.52487e-07
8.18588e-07
8.52286e-07
8.52492e-07
1.08047e-06
1.11761e-06
8.18354e-07
8.52379e-07
8.52278e-07
1.11763e-06
1.12688e-06
1.15121e-06
8.61783e-07
8.61705e-07
8.8285e-07
8.82767e-07
1.12687e-06
1.15118e-06
8.61568e-07
8.61807e-07
8.82652e-07
8.82878e-07
8.61817e-07
8.82688e-07
8.82893e-07
1.12694e-06
1.15128e-06
8.61608e-07
8.82779e-07
8.82696e-07
1.15132e-06
1.15753e-06
1.16932e-06
8.87794e-07
8.87711e-07
8.97912e-07
8.97828e-07
1.15751e-06
1.1693e-06
8.87597e-07
8.8782e-07
8.97722e-07
8.97942e-07
8.87839e-07
8.97759e-07
8.9796e-07
1.15759e-06
1.1694e-06
8.87645e-07
8.97853e-07
8.97772e-07
1.16945e-06
1.17332e-06
1.17739e-06
9.00075e-07
8.9999e-07
9.04215e-07
9.04131e-07
1.1733e-06
1.17737e-06
8.99884e-07
9.00103e-07
9.04027e-07
9.04247e-07
9.00123e-07
9.04067e-07
9.04261e-07
1.17339e-06
1.17747e-06
8.99936e-07
9.04164e-07
9.04078e-07
1.17752e-06
1.18018e-06
1.1807e-06
9.05047e-07
9.04962e-07
9.06601e-07
9.06517e-07
1.18016e-06
1.18068e-06
9.04857e-07
9.05077e-07
9.06413e-07
9.06633e-07
9.05091e-07
9.06457e-07
9.06644e-07
1.18025e-06
1.18078e-06
9.04909e-07
9.06553e-07
9.06464e-07
1.18083e-06
1.18298e-06
1.18192e-06
9.06909e-07
9.06825e-07
9.07458e-07
9.07373e-07
1.18297e-06
1.1819e-06
9.06719e-07
9.06939e-07
9.07269e-07
9.07488e-07
9.06952e-07
9.07314e-07
9.07503e-07
1.18306e-06
1.18199e-06
9.06772e-07
9.07408e-07
9.07323e-07
1.18205e-06
1.18403e-06
1.18222e-06
9.07544e-07
9.07459e-07
9.07626e-07
9.07539e-07
1.18401e-06
1.1822e-06
9.07355e-07
9.07574e-07
9.07437e-07
9.07656e-07
9.0759e-07
9.07482e-07
9.07672e-07
1.1841e-06
1.18229e-06
9.0741e-07
9.07576e-07
9.07492e-07
1.18234e-06
1.18425e-06
1.18195e-06
9.07613e-07
9.07524e-07
9.07568e-07
9.07478e-07
1.18423e-06
1.18192e-06
9.07424e-07
9.07642e-07
9.07378e-07
9.07597e-07
9.07659e-07
9.07421e-07
9.07613e-07
1.18432e-06
1.18203e-06
9.07478e-07
9.07518e-07
9.07432e-07
1.18208e-06
1.18398e-06
1.1822e-06
9.07569e-07
9.07479e-07
9.07648e-07
9.07558e-07
1.18396e-06
1.18218e-06
9.07379e-07
9.07599e-07
9.07458e-07
9.07678e-07
9.07614e-07
9.07504e-07
9.07692e-07
1.18405e-06
1.18228e-06
9.07434e-07
9.07599e-07
9.07512e-07
1.18233e-06
1.18427e-06
1.18222e-06
9.07659e-07
9.07569e-07
9.07635e-07
9.07544e-07
1.18426e-06
1.1822e-06
9.07469e-07
9.07689e-07
9.07445e-07
9.07663e-07
9.07703e-07
9.07491e-07
9.07678e-07
1.18435e-06
1.18229e-06
9.07523e-07
9.07584e-07
9.07498e-07
1.18234e-06
1.1842e-06
1.18206e-06
9.07616e-07
9.07525e-07
9.07596e-07
9.07505e-07
1.18418e-06
1.18204e-06
9.07425e-07
9.07643e-07
9.07404e-07
9.07624e-07
9.0766e-07
9.07451e-07
9.07643e-07
1.18427e-06
1.18214e-06
9.07479e-07
9.07546e-07
9.07462e-07
1.1822e-06
1.1841e-06
1.18225e-06
9.076e-07
9.07509e-07
9.07639e-07
9.07547e-07
1.18408e-06
1.18222e-06
9.07408e-07
9.07628e-07
9.07447e-07
9.07667e-07
9.07647e-07
9.07496e-07
9.07684e-07
1.18417e-06
1.18232e-06
9.07468e-07
9.07588e-07
9.07503e-07
1.18236e-06
1.18424e-06
1.18203e-06
9.07628e-07
9.07535e-07
9.07604e-07
9.07511e-07
1.18422e-06
1.182e-06
9.07435e-07
9.07655e-07
9.07412e-07
9.07632e-07
9.07673e-07
9.07457e-07
9.0765e-07
1.1843e-06
1.18211e-06
9.0749e-07
9.07552e-07
9.0747e-07
1.18217e-06
1.18409e-06
1.1822e-06
9.07607e-07
9.07514e-07
9.07624e-07
9.07531e-07
1.18407e-06
1.18218e-06
9.07414e-07
9.07634e-07
9.07431e-07
9.07651e-07
9.07652e-07
9.0748e-07
9.07671e-07
1.18416e-06
1.18228e-06
9.07474e-07
9.07572e-07
9.07488e-07
1.18232e-06
1.18421e-06
1.1821e-06
9.07618e-07
9.07523e-07
9.07619e-07
9.07523e-07
1.18419e-06
1.18208e-06
9.07425e-07
9.07644e-07
9.07425e-07
9.07646e-07
9.07662e-07
9.07467e-07
9.07662e-07
1.18428e-06
1.18219e-06
9.07481e-07
9.07565e-07
9.07483e-07
1.18226e-06
1.18417e-06
1.18213e-06
9.07618e-07
9.07523e-07
9.07616e-07
9.07524e-07
1.18415e-06
1.18212e-06
9.07424e-07
9.07645e-07
9.07422e-07
9.07643e-07
9.07662e-07
9.0747e-07
9.0766e-07
1.18424e-06
1.1822e-06
9.07483e-07
9.07564e-07
9.0748e-07
1.18225e-06
1.18413e-06
1.18219e-06
9.07615e-07
9.07523e-07
9.0762e-07
9.07526e-07
1.18412e-06
1.18217e-06
9.07422e-07
9.07642e-07
9.07426e-07
9.07646e-07
9.0766e-07
9.0747e-07
9.07663e-07
1.1842e-06
1.18227e-06
9.0748e-07
9.07566e-07
9.07483e-07
1.18232e-06
1.18422e-06
1.18212e-06
9.07615e-07
9.07522e-07
9.07618e-07
9.07524e-07
1.1842e-06
1.18208e-06
9.07422e-07
9.07643e-07
9.07425e-07
9.07646e-07
9.0766e-07
9.07471e-07
9.07665e-07
1.18429e-06
1.18219e-06
9.07481e-07
9.07566e-07
9.07485e-07
1.18226e-06
1.18417e-06
1.1821e-06
9.07619e-07
9.07525e-07
9.07612e-07
9.07519e-07
1.18413e-06
1.1821e-06
9.07425e-07
9.07645e-07
9.07419e-07
9.07641e-07
9.07664e-07
9.07467e-07
9.07658e-07
1.18424e-06
1.18218e-06
9.07484e-07
9.07562e-07
9.07478e-07
1.18223e-06
1.18413e-06
1.18215e-06
9.07612e-07
9.07518e-07
9.07618e-07
9.07527e-07
1.18411e-06
1.18216e-06
9.07419e-07
9.07641e-07
9.07422e-07
9.07642e-07
9.0766e-07
9.07469e-07
9.07663e-07
1.1842e-06
1.18222e-06
9.0748e-07
9.07563e-07
9.07482e-07
1.1823e-06
1.18415e-06
1.18219e-06
9.07612e-07
9.0752e-07
9.07621e-07
9.07525e-07
1.18417e-06
1.18215e-06
9.07417e-07
9.07639e-07
9.07427e-07
9.07647e-07
9.07657e-07
9.07471e-07
9.07666e-07
1.18421e-06
1.18227e-06
9.07477e-07
9.07567e-07
9.07486e-07
1.18232e-06
1.18422e-06
1.18214e-06
9.07621e-07
9.07528e-07
9.07615e-07
9.0752e-07
1.1842e-06
1.18211e-06
9.07425e-07
9.07645e-07
9.07421e-07
9.07645e-07
9.07665e-07
9.07467e-07
9.0766e-07
1.18427e-06
1.18226e-06
9.07485e-07
9.07564e-07
9.07481e-07
1.18225e-06
1.1842e-06
1.18211e-06
9.07616e-07
9.0752e-07
9.07619e-07
9.07524e-07
1.18416e-06
1.18209e-06
9.07421e-07
9.07645e-07
9.07424e-07
9.07644e-07
9.07663e-07
9.07465e-07
9.07659e-07
1.18429e-06
1.1822e-06
9.07485e-07
9.07561e-07
9.07478e-07
1.18223e-06
1.18416e-06
1.18212e-06
9.07619e-07
9.07523e-07
9.07618e-07
9.07527e-07
1.18411e-06
1.18219e-06
9.07424e-07
9.07645e-07
9.07422e-07
9.07641e-07
9.07658e-07
9.07471e-07
9.07664e-07
1.18426e-06
1.18218e-06
9.07477e-07
9.07564e-07
9.07485e-07
1.18231e-06
1.18414e-06
1.18216e-06
9.07618e-07
9.07529e-07
9.07617e-07
9.07522e-07
1.1842e-06
1.18213e-06
9.07422e-07
9.07643e-07
9.07423e-07
9.07641e-07
9.07665e-07
9.07466e-07
9.07661e-07
1.18422e-06
1.18218e-06
9.07485e-07
9.07562e-07
9.07482e-07
1.18232e-06
1.1842e-06
1.1821e-06
9.0762e-07
9.07526e-07
9.07614e-07
9.07521e-07
1.1842e-06
1.18204e-06
9.07425e-07
9.07643e-07
9.07419e-07
9.07641e-07
9.07663e-07
9.07462e-07
9.07659e-07
1.18422e-06
1.18218e-06
9.07485e-07
9.07559e-07
9.07478e-07
1.18224e-06
1.18409e-06
1.18224e-06
9.07611e-07
9.07521e-07
9.07621e-07
9.07527e-07
1.18409e-06
1.18218e-06
9.07417e-07
9.07637e-07
9.07426e-07
9.07647e-07
9.07661e-07
9.0747e-07
9.07664e-07
1.18417e-06
1.18231e-06
9.0748e-07
9.07565e-07
9.07482e-07
1.18226e-06
1.18425e-06
1.18212e-06
9.07624e-07
9.07525e-07
9.0761e-07
9.07523e-07
1.18416e-06
1.18217e-06
9.07428e-07
9.0765e-07
9.07416e-07
9.07635e-07
9.07662e-07
9.07464e-07
9.07656e-07
1.18433e-06
1.18215e-06
9.07481e-07
9.07553e-07
9.0748e-07
1.18235e-06
1.18419e-06
1.1821e-06
9.07615e-07
9.0753e-07
9.07609e-07
9.07517e-07
1.18425e-06
1.18206e-06
9.07421e-07
9.07639e-07
9.07414e-07
9.07636e-07
9.0766e-07
9.07459e-07
9.07654e-07
1.18419e-06
1.18224e-06
9.07484e-07
9.07554e-07
9.07474e-07
1.18227e-06
1.18414e-06
1.18214e-06
9.07611e-07
9.0752e-07
9.07607e-07
9.07519e-07
1.18409e-06
1.18216e-06
9.07417e-07
9.07638e-07
9.07411e-07
9.07634e-07
9.07656e-07
9.07464e-07
9.07653e-07
1.18424e-06
1.18226e-06
9.0748e-07
9.07553e-07
9.07472e-07
1.18222e-06
1.18416e-06
1.18213e-06
9.0761e-07
9.07522e-07
9.07606e-07
9.07514e-07
1.18418e-06
1.18208e-06
9.07414e-07
9.07638e-07
9.07408e-07
9.07633e-07
9.07658e-07
9.07456e-07
9.07649e-07
1.18429e-06
1.18219e-06
9.07475e-07
9.07551e-07
9.07472e-07
1.18224e-06
1.18417e-06
1.1821e-06
9.07612e-07
9.07522e-07
9.07605e-07
9.07515e-07
1.18414e-06
1.18209e-06
9.07413e-07
9.07639e-07
9.07403e-07
9.07631e-07
9.07654e-07
9.07456e-07
9.07649e-07
1.18425e-06
1.18217e-06
9.07474e-07
9.07552e-07
9.07469e-07
1.18227e-06
1.18414e-06
1.18212e-06
9.07612e-07
9.07518e-07
9.07604e-07
9.07514e-07
1.18409e-06
1.18216e-06
9.0741e-07
9.07636e-07
9.07401e-07
9.07631e-07
9.07653e-07
9.07454e-07
9.07643e-07
1.18419e-06
1.18223e-06
9.07475e-07
9.07552e-07
9.07462e-07
1.18221e-06
1.18413e-06
1.18216e-06
9.07615e-07
9.07523e-07
9.07598e-07
9.07506e-07
1.18417e-06
1.18215e-06
9.07408e-07
9.07638e-07
9.07398e-07
9.07626e-07
9.07654e-07
9.07447e-07
9.07634e-07
1.18423e-06
1.18224e-06
9.07473e-07
9.07548e-07
9.07457e-07
1.18219e-06
1.18416e-06
1.18219e-06
9.07609e-07
9.07518e-07
9.07598e-07
9.07507e-07
1.18415e-06
1.1822e-06
9.07409e-07
9.07638e-07
9.07394e-07
9.07621e-07
9.07647e-07
9.07447e-07
9.07635e-07
1.18424e-06
1.18227e-06
9.0747e-07
9.07543e-07
9.07455e-07
1.18227e-06
1.1842e-06
1.18217e-06
9.07611e-07
9.07521e-07
9.0759e-07
9.07497e-07
1.18423e-06
1.1821e-06
9.0741e-07
9.07639e-07
9.07389e-07
9.07613e-07
9.07649e-07
9.07439e-07
9.07633e-07
1.1843e-06
1.18218e-06
9.07471e-07
9.07534e-07
9.07452e-07
1.18232e-06
1.18422e-06
1.18212e-06
9.07614e-07
9.07522e-07
9.07584e-07
9.07491e-07
1.18417e-06
1.18208e-06
9.07412e-07
9.07635e-07
9.07385e-07
9.0761e-07
9.07654e-07
9.07433e-07
9.07629e-07
1.18423e-06
1.18218e-06
9.07473e-07
9.07531e-07
9.07448e-07
1.18233e-06
1.18419e-06
1.18208e-06
9.07614e-07
9.07519e-07
9.07581e-07
9.07488e-07
1.18412e-06
1.18212e-06
9.07413e-07
9.07635e-07
9.07381e-07
9.07606e-07
9.07656e-07
9.07428e-07
9.07624e-07
1.18419e-06
1.18225e-06
9.07475e-07
9.07528e-07
9.07445e-07
1.18232e-06
1.18414e-06
1.18209e-06
9.07616e-07
9.07521e-07
9.07577e-07
9.07483e-07
1.18414e-06
1.18213e-06
9.07417e-07
9.0764e-07
9.07376e-07
9.07599e-07
9.0766e-07
9.07423e-07
9.07619e-07
1.18426e-06
1.18223e-06
9.07481e-07
9.07519e-07
9.07437e-07
1.18228e-06
1.18413e-06
1.18212e-06
9.07623e-07
9.07529e-07
9.07568e-07
9.07472e-07
1.18417e-06
1.18211e-06
9.07422e-07
9.07646e-07
9.0737e-07
9.0759e-07
9.07665e-07
9.07415e-07
9.07612e-07
1.18428e-06
1.18217e-06
9.07485e-07
9.0751e-07
9.07428e-07
1.18225e-06
1.18415e-06
1.18213e-06
9.07629e-07
9.07534e-07
9.07559e-07
9.07463e-07
1.18418e-06
1.18208e-06
9.0743e-07
9.07652e-07
9.0736e-07
9.0758e-07
9.07672e-07
9.07405e-07
9.07603e-07
1.18424e-06
1.18214e-06
9.07488e-07
9.07504e-07
9.07421e-07
1.18227e-06
1.18417e-06
1.18213e-06
9.07636e-07
9.07541e-07
9.0755e-07
9.07454e-07
1.18416e-06
1.18204e-06
9.07438e-07
9.07657e-07
9.07351e-07
9.07572e-07
9.0768e-07
9.07394e-07
9.07593e-07
1.1842e-06
1.18215e-06
9.07498e-07
9.07492e-07
9.07408e-07
1.18229e-06
1.18417e-06
1.18216e-06
9.07648e-07
9.07553e-07
9.07538e-07
9.07442e-07
1.18411e-06
1.18205e-06
9.0745e-07
9.07671e-07
9.0734e-07
9.0756e-07
9.07693e-07
9.07383e-07
9.07582e-07
1.18419e-06
1.18219e-06
9.07508e-07
9.07483e-07
9.07401e-07
1.18234e-06
1.1842e-06
1.1821e-06
9.0767e-07
9.07574e-07
9.07522e-07
9.07429e-07
1.18409e-06
1.18208e-06
9.07472e-07
9.07692e-07
9.07326e-07
9.07547e-07
9.07712e-07
9.07375e-07
9.0757e-07
1.18421e-06
1.18218e-06
9.07528e-07
9.07471e-07
9.07386e-07
1.18231e-06
1.18417e-06
1.18209e-06
9.07697e-07
9.07603e-07
9.07514e-07
9.07422e-07
1.18411e-06
1.18209e-06
9.07501e-07
9.07721e-07
9.07316e-07
9.07541e-07
9.07744e-07
9.07366e-07
9.07557e-07
1.18421e-06
1.18218e-06
9.07561e-07
9.07462e-07
9.07374e-07
1.18224e-06
1.18412e-06
1.18191e-06
9.07735e-07
9.07643e-07
9.07113e-07
9.0702e-07
1.18411e-06
1.1819e-06
9.07542e-07
9.0776e-07
9.06915e-07
9.07131e-07
9.07778e-07
9.06964e-07
9.07149e-07
1.18419e-06
1.18199e-06
9.07593e-07
9.07055e-07
9.06963e-07
1.18204e-06
1.18382e-06
1.1618e-06
9.07442e-07
9.07353e-07
8.84803e-07
8.84655e-07
1.18381e-06
1.16177e-06
9.07242e-07
9.07458e-07
8.84671e-07
8.84719e-07
9.07479e-07
8.84736e-07
8.84762e-07
1.1839e-06
1.16183e-06
9.07296e-07
8.84787e-07
8.8464e-07
1.16183e-06
1.13871e-06
8.5119e-07
8.51047e-07
1.13868e-06
8.51093e-07
8.51108e-07
3.64354e-07
3.64387e-07
3.64356e-07
8.51136e-07
1.13873e-06
8.51057e-07
2.98497e-08
4.75191e-09
1.95276e-08
1.9554e-08
1.6041e-09
3.65343e-09
4.52991e-09
1.09306e-08
1.40972e-09
4.36566e-09
1.10387e-08
1.13448e-08
5.24938e-09
7.67893e-09
5.92544e-09
7.76773e-09
1.6415e-07
6.209e-09
2.6045e-07
1.63318e-06
3.20912e-06
7.47363e-09
1.63234e-07
5.77299e-09
2.58633e-07
1.09177e-08
1.10773e-08
1.0997e-08
1.08283e-08
1.07988e-08
1.09577e-08
1.08757e-08
1.61957e-09
7.73769e-08
4.83772e-09
3.54514e-09
1.61676e-09
5.63137e-08
4.78798e-09
1.63781e-06
3.20083e-06
1.39864e-09
5.13271e-09
8.67654e-08
4.82321e-09
1.40375e-09
5.07472e-09
6.50292e-08
2.18827e-07
2.16893e-07
4.89847e-09
1.88163e-07
1.82243e-07
1.74923e-08
4.71021e-07
1.22991e-08
6.7268e-07
7.14552e-06
1.02027e-05
1.7619e-08
4.63523e-07
1.21449e-08
6.6814e-07
1.0832e-08
1.0991e-08
1.09121e-08
1.09774e-08
1.09461e-08
1.11102e-08
1.10376e-08
1.53283e-09