/*--------------------------------*- C++ -*----------------------------------*\
| =========                 |                                                 |
| \\      /  F ield         | OpenFOAM: The Open Source CFD Toolbox           |
|  \\    /   O peration     | Version:  v2012                                 |
|   \\  /    A nd           | Website:  www.openfoam.com                      |
|    \\/     M anipulation  |                                                 |
\*---------------------------------------------------------------------------*/
FoamFile
{
    version     2.0;
    format      ascii;
    class       volScalarField;
    location    "200";
    object      p;
}
// * * * * * * * * * * * * * * * * * * * * * * * * * * * * * * * * * * * * * //

dimensions      [0 2 -2 0 0 0 0];


internalField   nonuniform List<scalar> 
171728
(
0.00353051
0.00352957
0.00352965
0.00353047
0.00349469
0.0034934
0.00349339
0.00349629
0.00345716
0.00345537
0.00345529
0.00345767
0.00341276
0.00341119
0.00341117
0.00341356
0.00336438
0.00336286
0.00336293
0.00336541
0.00331598
0.00331457
0.00331456
0.00331706
0.00326805
0.00326677
0.00326681
0.00326926
0.00322074
0.00321952
0.0032196
0.00322208
0.00317451
0.00317337
0.00317346
0.00317596
0.00312925
0.00312826
0.00312832
0.00313083
0.0030849
0.00308404
0.00308402
0.00308653
0.00304131
0.00304065
0.00304056
0.00304305
0.00299818
0.0029975
0.00299758
0.00299999
0.00295556
0.00295495
0.00295506
0.0029574
0.00291313
0.00291267
0.00291272
0.00291513
0.00287107
0.0028706
0.00287067
0.00287308
0.00282937
0.00282894
0.00282905
0.00283142
0.00278799
0.00278755
0.00278774
0.00279002
0.00274698
0.00274658
0.00274656
0.00274886
0.00270625
0.00270601
0.00270575
0.00270814
0.00266595
0.00266555
0.00266569
0.00266787
0.00262583
0.00262557
0.00262556
0.00262761
0.00258611
0.00258583
0.00258586
0.00258789
0.00254664
0.00254646
0.00254647
0.00254852
0.00250741
0.00250722
0.00250721
0.0025093
0.00246848
0.00246833
0.00246832
0.00247055
0.00242974
0.00242958
0.00242959
0.00243191
0.00239124
0.00239116
0.00239113
0.00239347
0.00235298
0.00235285
0.00235289
0.00235524
0.00231495
0.00231493
0.00231489
0.00231726
0.0022771
0.00227704
0.00227711
0.00227937
0.00223943
0.00223951
0.00223946
0.00224172
0.00220198
0.00220207
0.00220208
0.00220423
0.00216471
0.00216481
0.00216484
0.00216692
0.00212762
0.00212777
0.0021277
0.00212984
0.00209082
0.00209097
0.00209098
0.002093
0.00205433
0.00205443
0.00205446
0.00205645
0.00201818
0.00201829
0.00201831
0.00202026
0.00198261
0.00198266
0.00198266
0.00198457
0.00194757
0.0019476
0.0019476
0.00194949
0.00191314
0.0019132
0.00191317
0.00191506
0.00187868
0.00187863
0.00187862
0.00188051
0.00184316
0.0018431
0.0018431
0.00184511
0.00180669
0.00180672
0.00180673
0.00180891
0.00177017
0.0017703
0.00177031
0.00177252
0.00173499
0.00173495
0.00173495
0.00173703
0.00170112
0.00170075
0.00170075
0.00170268
0.00166825
0.00166759
0.00166759
0.00166938
0.00163563
0.00163478
0.00163478
0.00163648
0.0016023
0.00160156
0.00160156
0.00160329
0.0015681
0.00156765
0.00156765
0.0015695
0.00153325
0.00153303
0.00153303
0.00153498
0.00149795
0.00149785
0.00149785
0.00149986
0.00146239
0.00146234
0.00146234
0.00146438
0.0014267
0.00142667
0.00142667
0.00142873
0.00139097
0.00139094
0.00139094
0.001393
0.00135524
0.00135521
0.00135521
0.00135727
0.0013195
0.00131947
0.00131947
0.00132153
0.00128376
0.00128373
0.00128373
0.00128579
0.00124802
0.001248
0.00124799
0.00125006
0.00121229
0.00121226
0.00121226
0.00121432
0.00117655
0.00117652
0.00117652
0.00117859
0.00114082
0.00114079
0.00114079
0.00114285
0.00110508
0.00110505
0.00110505
0.00110711
0.00106934
0.00106931
0.00106931
0.00107138
0.00103361
0.00103358
0.00103358
0.00103564
0.00099787
0.00099784
0.00099784
0.000999904
0.000962133
0.000962102
0.000962102
0.000964166
0.000926396
0.000926368
0.000926368
0.000928433
0.000890659
0.000890632
0.000890633
0.000892696
0.000854922
0.000854893
0.000854894
0.000856956
0.000819186
0.000819158
0.000819156
0.00082122
0.000783449
0.000783421
0.000783419
0.000785485
0.000747712
0.000747682
0.000747681
0.000749748
0.000711976
0.000711947
0.000711949
0.00071401
0.000676241
0.000676215
0.000676213
0.000678278
0.000640507
0.000640476
0.000640478
0.000642543
0.000604774
0.000604745
0.000604745
0.000606807
0.000569041
0.000569012
0.000569011
0.000571073
0.000533307
0.000533278
0.000533278
0.000535343
0.000497575
0.000497547
0.000497546
0.000499611
0.000461841
0.000461812
0.000461813
0.000463875
0.000426108
0.000426079
0.00042608
0.00042814
0.000390373
0.000390346
0.000390343
0.000392407
0.000354638
0.000354608
0.000354606
0.000356672
0.000318901
0.000318871
0.000318873
0.000320936
0.000283164
0.000283135
0.000283137
0.000285198
0.000247426
0.000247399
0.000247398
0.000249457
0.000211689
0.000211662
0.00021166
0.000213716
0.00017595
0.000175922
0.000175921
0.000177971
0.000140209
0.000140182
0.000140182
0.000142224
0.000104461
0.000104441
0.000104441
0.000106466
6.87202e-05
6.86968e-05
6.86943e-05
7.06864e-05
3.37956e-05
3.32485e-05
3.32449e-05
3.50575e-05
5.68562e-06
6.14997e-06
6.14761e-06
4.84919e-06
0.0035354
0.00353325
0.00353323
0.00353535
0.00353327
0.00353331
0.00353905
0.00353902
0.00353907
0.00353901
0.00353318
0.00353314
0.00353544
0.00353332
0.00353313
0.00353519
0.00353058
0.00350095
0.00352963
0.00352957
0.00350265
0.00350267
0.00353055
0.00350095
0.00352963
0.00352963
0.00350264
0.00350271
0.00352954
0.00350265
0.0035026
0.00353061
0.00350094
0.00352955
0.00350269
0.00350274
0.00350092
0.0034963
0.00346307
0.00349343
0.00349341
0.00346514
0.00346517
0.00349629
0.00346308
0.00349343
0.00349335
0.00346513
0.00346522
0.00349346
0.00346515
0.00346512
0.00349628
0.00346306
0.00349343
0.00346522
0.00346515
0.00346308
0.00345765
0.0034198
0.00345536
0.00345537
0.00342284
0.00342287
0.00345765
0.00341982
0.00345537
0.00345531
0.00342283
0.00342286
0.00345541
0.00342284
0.00342285
0.00345763
0.00341979
0.00345534
0.00342287
0.00342285
0.00341981
0.00341356
0.00337187
0.00341118
0.00341117
0.00337506
0.0033751
0.00341356
0.00337186
0.00341119
0.00341117
0.00337507
0.00337507
0.0034112
0.00337511
0.00337509
0.00341355
0.00337188
0.00341119
0.00337505
0.00337508
0.00337188
0.00336541
0.00332344
0.00336289
0.00336292
0.00332658
0.00332661
0.0033654
0.00332345
0.00336288
0.00336289
0.00332659
0.0033266
0.00336289
0.00332654
0.00332659
0.00336542
0.00332345
0.00336291
0.0033266
0.00332658
0.00332344
0.00331706
0.00327558
0.00331455
0.0033145
0.00327869
0.00327869
0.00331706
0.00327556
0.00331456
0.00331459
0.00327873
0.00327871
0.00331458
0.00327874
0.0032787
0.00331707
0.00327556
0.00331458
0.00327868
0.00327871
0.00327557
0.00326927
0.00322827
0.00326679
0.00326671
0.00323127
0.00323128
0.00326925
0.0032283
0.00326679
0.00326679
0.0032313
0.00323129
0.00326679
0.0032313
0.00323128
0.00326926
0.00322827
0.00326679
0.00323129
0.00323128
0.00322827
0.00322208
0.00318199
0.00321956
0.00321945
0.00318487
0.0031849
0.00322209
0.00318202
0.00321957
0.00321958
0.00318489
0.00318487
0.00321958
0.00318485
0.00318487
0.00322209
0.003182
0.00321957
0.0031849
0.00318488
0.00318199
0.00317595
0.00313671
0.00317345
0.00317336
0.0031395
0.00313956
0.00317594
0.00313675
0.00317344
0.00317346
0.00313951
0.0031395
0.00317345
0.0031395
0.00313948
0.00317597
0.00313672
0.00317344
0.00313949
0.00313949
0.00313672
0.0031308
0.00309233
0.00312829
0.00312827
0.00309503
0.0030951
0.00313081
0.00309234
0.00312828
0.00312831
0.00309505
0.00309502
0.00312832
0.00309508
0.00309503
0.00313082
0.0030923
0.00312831
0.00309501
0.00309502
0.00309232
0.00308654
0.00304871
0.00308402
0.00308403
0.00305134
0.00305145
0.00308653
0.00304888
0.00308401
0.00308402
0.00305131
0.00305133
0.00308402
0.00305143
0.00305134
0.00308654
0.00304876
0.00308402
0.00305131
0.0030513
0.00304872
0.00304303
0.00300557
0.0030405
0.00304065
0.00300812
0.00300806
0.00304315
0.00300551
0.00304052
0.00304055
0.00300817
0.00300821
0.00304054
0.0030081
0.00300819
0.00304308
0.00300563
0.00304054
0.00300819
0.00300821
0.0030056
0.00299999
0.00296296
0.00299745
0.0029975
0.00296546
0.00296558
0.00299996
0.00296296
0.00299743
0.00299759
0.00296544
0.00296555
0.00299751
0.00296556
0.00296555
0.00300002
0.00296297
0.00299749
0.00296556
0.00296552
0.00296295
0.00295745
0.00292047
0.00295489
0.00295492
0.00292314
0.00292327
0.00295738
0.00292068
0.0029549
0.00295509
0.00292316
0.00292329
0.00295493
0.00292327
0.00292319
0.00295748
0.00292067
0.0029549
0.00292328
0.00292318
0.00292063
0.00291495
0.00287852
0.00291245
0.00291266
0.00288119
0.00288108
0.00291512
0.00287849
0.00291244
0.00291272
0.00288121
0.00288124
0.00291265
0.00288105
0.00288108
0.00291519
0.00287856
0.00291265
0.00288125
0.00288114
0.00287855
0.00287303
0.00283685
0.00287061
0.00287063
0.00283941
0.00283938
0.00287306
0.00283679
0.0028706
0.00287066
0.00283939
0.00283956
0.00287061
0.00283941
0.00283935
0.00287308
0.00283682
0.00287061
0.00283958
0.00283937
0.00283681
0.00283145
0.00279535
0.00282905
0.00282894
0.00279789
0.00279789
0.00283139
0.0027953
0.00282903
0.00282906
0.00279788
0.00279793
0.00282897
0.00279792
0.00279782
0.00283141
0.00279541
0.00282896
0.00279795
0.0027978
0.0027953
0.00279005
0.00275427
0.00278766
0.00278761
0.00275681
0.00275691
0.00278998
0.00275415
0.00278767
0.00278782
0.0027568
0.00275667
0.00278762
0.00275689
0.00275682
0.00279014
0.00275424
0.00278759
0.00275664
0.00275679
0.00275412
0.002749
0.00271327
0.00274664
0.00274662
0.002716
0.00271599
0.00274887
0.00271355
0.00274666
0.0027466
0.002716
0.00271607
0.00274654
0.00271599
0.00271614
0.00274896
0.00271325
0.00274652
0.00271603
0.00271611
0.00271331
0.00270808
0.00267292
0.00270581
0.00270601
0.0026758
0.0026757
0.00270835
0.00267283
0.0027058
0.0027058
0.0026758
0.00267584
0.00270597
0.0026757
0.00267564
0.00270805
0.00267289
0.00270594
0.00267583
0.00267562
0.00267304
0.00266784
0.00263274
0.00266571
0.00266556
0.0026355
0.00263556
0.00266771
0.00263279
0.00266572
0.00266572
0.00263549
0.00263553
0.00266567
0.00263559
0.00263561
0.00266781
0.00263274
0.00266567
0.00263554
0.00263559
0.00263271
0.00262761
0.00259298
0.00262552
0.00262557
0.00259577
0.00259575
0.00262771
0.00259294
0.00262552
0.00262557
0.00259577
0.00259579
0.00262556
0.00259575
0.00259574
0.00262766
0.00259293
0.00262555
0.00259578
0.00259574
0.00259293
0.00258794
0.00255348
0.00258588
0.00258583
0.00255627
0.0025563
0.00258789
0.0025535
0.00258588
0.00258587
0.00255627
0.00255629
0.00258585
0.00255631
0.00255631
0.00258789
0.00255351
0.00258585
0.0025563
0.0025563
0.00255351
0.00254848
0.00251434
0.00254644
0.00254646
0.00251701
0.00251697
0.00254852
0.00251424
0.00254644
0.00254647
0.00251701
0.00251696
0.00254646
0.00251697
0.00251699
0.00254853
0.00251427
0.00254646
0.00251696
0.00251698
0.00251427
0.00250934
0.0024755
0.00250722
0.00250722
0.00247803
0.00247805
0.00250928
0.00247558
0.00250722
0.00250721
0.00247803
0.00247806
0.00250722
0.00247805
0.00247803
0.00250928
0.0024756
0.00250723
0.00247805
0.00247804
0.00247553
0.00247056
0.0024368
0.00246832
0.00246832
0.00243923
0.00243923
0.00247062
0.00243674
0.00246832
0.00246833
0.00243923
0.00243923
0.0024683
0.00243922
0.00243925
0.00247063
0.00243675
0.0024683
0.00243923
0.00243925
0.00243683
0.00243185
0.00239844
0.00242958
0.00242959
0.00240074
0.00240074
0.0024318
0.00239848
0.00242959
0.00242959
0.00240074
0.00240073
0.0024296
0.00240077
0.00240074
0.00243182
0.00239842
0.00242961
0.00240073
0.00240073
0.0023984
0.00239352
0.00236016
0.00239114
0.00239114
0.00236243
0.00236243
0.00239355
0.00236013
0.00239114
0.00239113
0.00236244
0.00236244
0.00239114
0.00236239
0.00236242
0.00239349
0.00236018
0.00239112
0.00236244
0.00236243
0.00236016
0.00235524
0.00232215
0.0023529
0.00235289
0.00232437
0.00232436
0.00235521
0.00232217
0.00235291
0.0023529
0.00232437
0.00232438
0.00235288
0.00232441
0.00232437
0.00235525
0.00232215
0.0023529
0.00232438
0.00232439
0.00232217
0.00231725
0.0022843
0.00231489
0.00231489
0.00228653
0.00228651
0.00231726
0.00228428
0.00231488
0.00231489
0.00228653
0.00228653
0.0023149
0.00228648
0.00228651
0.00231724
0.00228432
0.0023149
0.00228652
0.0022865
0.00228428
0.0022794
0.00224661
0.0022771
0.00227708
0.00224886
0.00224886
0.00227937
0.00224659
0.0022771
0.00227712
0.00224885
0.00224885
0.00227708
0.00224887
0.00224886
0.00227943
0.00224658
0.00227708
0.00224885
0.00224887
0.0022466
0.00224171
0.00220911
0.00223948
0.00223949
0.00221141
0.00221144
0.00224171
0.00220915
0.00223947
0.00223944
0.00221141
0.0022114
0.00223948
0.00221143
0.00221141
0.00224168
0.00220909
0.00223948
0.0022114
0.00221139
0.00220911
0.00220424
0.00217181
0.00220207
0.00220209
0.00217412
0.00217412
0.00220427
0.00217179
0.00220207
0.00220207
0.00217413
0.00217411
0.00220206
0.00217409
0.0021741
0.00220422
0.0021718
0.00220206
0.00217416
0.00217411
0.00217179
0.00216694
0.00213467
0.00216483
0.00216483
0.00213701
0.00213702
0.00216692
0.00213468
0.00216483
0.00216482
0.002137
0.00213697
0.00216481
0.00213702
0.00213702
0.00216693
0.00213464
0.00216482
0.00213694
0.00213701
0.00213469
0.00212982
0.00209781
0.00212776
0.00212777
0.00210014
0.00210015
0.00212983
0.00209783
0.00212776
0.00212773
0.00210014
0.00210014
0.00212779
0.00210015
0.00210016
0.00212979
0.00209782
0.00212777
0.00210015
0.00210016
0.00209782
0.00209299
0.00206125
0.00209097
0.00209097
0.00206357
0.00206353
0.002093
0.00206122
0.00209097
0.00209098
0.00206357
0.00206358
0.00209098
0.00206354
0.00206355
0.002093
0.00206126
0.00209098
0.00206355
0.00206355
0.00206124
0.00205646
0.002025
0.00205447
0.00205442
0.00202727
0.00202727
0.00205642
0.002025
0.00205447
0.00205448
0.00202728
0.0020273
0.00205446
0.00202728
0.00202729
0.00205646
0.00202503
0.00205445
0.0020273
0.0020273
0.00202501
0.00202024
0.00198925
0.00201827
0.00201829
0.00199151
0.00199151
0.00202026
0.00198927
0.00201827
0.0020183
0.00199149
0.00199151
0.00201829
0.00199151
0.00199151
0.00202028
0.00198927
0.0020183
0.00199151
0.0019915
0.00198925
0.00198456
0.00195408
0.00198266
0.00198265
0.00195627
0.0019563
0.00198458
0.00195412
0.00198264
0.00198265
0.00195627
0.00195628
0.00198266
0.0019563
0.00195628
0.00198458
0.00195411
0.00198264
0.00195631
0.00195628
0.0019541
0.00194947
0.0019196
0.00194755
0.00194759
0.0019217
0.00192175
0.00194951
0.00191962
0.00194756
0.00194757
0.00192171
0.00192174
0.00194756
0.00192175
0.00192171
0.0019495
0.0019196
0.00194758
0.00192173
0.00192175
0.00191961
0.00191506
0.00188516
0.00191316
0.0019132
0.00188736
0.00188735
0.00191507
0.00188514
0.00191317
0.00191319
0.00188736
0.00188735
0.00191316
0.00188735
0.00188736
0.00191505
0.00188514
0.0019132
0.00188734
0.00188737
0.00188515
0.00188052
0.0018499
0.00187864
0.00187862
0.00185209
0.00185208
0.0018805
0.00184988
0.00187864
0.00187863
0.0018521
0.00185208
0.00187863
0.00185208
0.00185209
0.0018805
0.00184988
0.00187864
0.00185208
0.00185208
0.00184988
0.00184513
0.00181378
0.00184311
0.00184309
0.00181588
0.00181586
0.00184511
0.00181377
0.00184312
0.0018431
0.00181588
0.00181587
0.00184311
0.00181586
0.00181587
0.00184512
0.00181377
0.0018431
0.00181587
0.00181586
0.00181377
0.00180891
0.00177734
0.00180673
0.00180672
0.00177934
0.00177934
0.00180891
0.00177734
0.00180673
0.00180673
0.00177934
0.00177934
0.00180673
0.00177934
0.00177934
0.00180891
0.00177734
0.00180672
0.00177934
0.00177934
0.00177733
0.00177252
0.00174168
0.00177031
0.0017703
0.00174367
0.00174366
0.00177252
0.00174168
0.00177031
0.00177031
0.00174367
0.00174367
0.0017703
0.00174366
0.00174367
0.00177253
0.00174168
0.0017703
0.00174367
0.00174366
0.00174168
0.00173703
0.00170718
0.00173495
0.00173495
0.0017092
0.0017092
0.00173703
0.00170718
0.00173495
0.00173495
0.0017092
0.0017092
0.00173495
0.0017092
0.0017092
0.00173703
0.00170718
0.00173495
0.0017092
0.0017092
0.00170718
0.00170268
0.00167378
0.00170075
0.00170075
0.00167581
0.00167581
0.00170268
0.00167378
0.00170075
0.00170075
0.00167581
0.00167581
0.00170075
0.00167581
0.00167581
0.00170268
0.00167378
0.00170075
0.00167581
0.00167581
0.00167378
0.00166938
0.00164089
0.0016676
0.00166759
0.00164301
0.00164301
0.00166938
0.00164089
0.0016676
0.00166759
0.00164301
0.00164301
0.00166759
0.00164301
0.00164301
0.00166938
0.00164089
0.00166759
0.00164301
0.00164301
0.00164089
0.00163648
0.00160778
0.00163478
0.00163478
0.00160992
0.00160992
0.00163648
0.00160778
0.00163478
0.00163478
0.00160992
0.00160992
0.00163478
0.00160992
0.00160992
0.00163648
0.00160778
0.00163478
0.00160992
0.00160992
0.00160778
0.00160329
0.00157409
0.00160156
0.00160156
0.0015762
0.0015762
0.00160329
0.00157409
0.00160156
0.00160156
0.0015762
0.0015762
0.00160156
0.0015762
0.0015762
0.00160329
0.00157409
0.00160156
0.0015762
0.0015762
0.00157409
0.0015695
0.00153967
0.00156765
0.00156765
0.00154174
0.00154174
0.0015695
0.00153967
0.00156765
0.00156765
0.00154174
0.00154174
0.00156765
0.00154174
0.00154174
0.0015695
0.00153967
0.00156765
0.00154174
0.00154174
0.00153967
0.00153498
0.00150462
0.00153303
0.00153303
0.00150668
0.00150668
0.00153498
0.00150462
0.00153303
0.00153303
0.00150668
0.00150668
0.00153303
0.00150668
0.00150668
0.00153498
0.00150462
0.00153303
0.00150668
0.00150668
0.00150462
0.00149986
0.00146918
0.00149785
0.00149785
0.00147124
0.00147123
0.00149986
0.00146918
0.00149785
0.00149785
0.00147123
0.00147124
0.00149785
0.00147124
0.00147124
0.00149986
0.00146918
0.00149785
0.00147124
0.00147124
0.00146918
0.00146438
0.00143354
0.00146234
0.00146234
0.00143559
0.00143559
0.00146438
0.00143354
0.00146234
0.00146234
0.00143559
0.00143559
0.00146234
0.00143559
0.00143559
0.00146438
0.00143354
0.00146234
0.00143559
0.00143559
0.00143354
0.00142873
0.00139781
0.00142667
0.00142667
0.00139987
0.00139987
0.00142873
0.00139781
0.00142667
0.00142667
0.00139987
0.00139987
0.00142667
0.00139987
0.00139987
0.00142873
0.00139781
0.00142667
0.00139987
0.00139987
0.00139781
0.001393
0.00136209
0.00139094
0.00139094
0.00136414
0.00136414
0.001393
0.00136209
0.00139094
0.00139094
0.00136414
0.00136414
0.00139094
0.00136414
0.00136414
0.001393
0.00136209
0.00139094
0.00136414
0.00136414
0.00136209
0.00135727
0.00132635
0.00135521
0.00135521
0.0013284
0.0013284
0.00135727
0.00132635
0.00135521
0.00135521
0.0013284
0.0013284
0.00135521
0.0013284
0.0013284
0.00135727
0.00132635
0.00135521
0.0013284
0.0013284
0.00132635
0.00132153
0.00129061
0.00131947
0.00131947
0.00129266
0.00129266
0.00132153
0.00129061
0.00131947
0.00131947
0.00129266
0.00129266
0.00131947
0.00129266
0.00129266
0.00132153
0.00129061
0.00131947
0.00129266
0.00129266
0.00129061
0.00128579
0.00125488
0.00128373
0.00128373
0.00125693
0.00125693
0.00128579
0.00125488
0.00128373
0.00128373
0.00125693
0.00125693
0.00128373
0.00125693
0.00125693
0.00128579
0.00125487
0.00128373
0.00125693
0.00125693
0.00125487
0.00125006
0.00121913
0.001248
0.00124799
0.00122119
0.00122119
0.00125006
0.00121913
0.00124799
0.00124799
0.00122119
0.00122119
0.001248
0.00122119
0.00122119
0.00125006
0.00121913
0.00124799
0.00122119
0.00122119
0.00121913
0.00121432
0.0011834
0.00121226
0.00121226
0.00118546
0.00118546
0.00121432
0.0011834
0.00121226
0.00121226
0.00118546
0.00118546
0.00121226
0.00118546
0.00118546
0.00121432
0.0011834
0.00121226
0.00118546
0.00118546
0.0011834
0.00117859
0.00114767
0.00117652
0.00117652
0.00114972
0.00114972
0.00117859
0.00114767
0.00117652
0.00117652
0.00114972
0.00114972
0.00117652
0.00114972
0.00114972
0.00117859
0.00114767
0.00117652
0.00114972
0.00114972
0.00114767
0.00114285
0.00111193
0.00114079
0.00114079
0.00111398
0.00111398
0.00114285
0.00111193
0.00114079
0.00114079
0.00111398
0.00111398
0.00114079
0.00111398
0.00111398
0.00114285
0.00111193
0.00114079
0.00111398
0.00111398
0.00111193
0.00110711
0.00107619
0.00110505
0.00110505
0.00107825
0.00107825
0.00110711
0.00107619
0.00110505
0.00110505
0.00107825
0.00107825
0.00110505
0.00107825
0.00107825
0.00110711
0.00107619
0.00110505
0.00107825
0.00107825
0.00107619
0.00107138
0.00104046
0.00106931
0.00106931
0.00104251
0.00104251
0.00107138
0.00104046
0.00106931
0.00106931
0.00104251
0.00104251
0.00106931
0.00104251
0.00104251
0.00107138
0.00104046
0.00106931
0.00104251
0.00104251
0.00104046
0.00103564
0.00100472
0.00103358
0.00103358
0.00100677
0.00100677
0.00103564
0.00100472
0.00103358
0.00103358
0.00100677
0.00100677
0.00103358
0.00100677
0.00100677
0.00103564
0.00100472
0.00103358
0.00100677
0.00100677
0.00100472
0.000999903
0.000968983
0.000997839
0.000997839
0.000971039
0.000971039
0.000999902
0.000968984
0.00099784
0.00099784
0.000971038
0.000971038
0.00099784
0.000971038
0.000971038
0.000999903
0.000968982
0.000997841
0.000971037
0.000971038
0.000968982
0.000964165
0.000933249
0.000962102
0.000962103
0.000935304
0.000935303
0.000964166
0.000933249
0.000962102
0.000962102
0.000935304
0.000935303
0.000962102
0.000935303
0.000935304
0.000964165
0.000933248
0.000962102
0.000935304
0.000935304
0.000933248
0.000928432
0.00089751
0.000926369
0.000926369
0.000899564
0.000899563
0.000928433
0.00089751
0.000926368
0.000926367
0.000899565
0.000899566
0.000926369
0.000899564
0.000899564
0.000928432
0.000897511
0.000926368
0.000899565
0.000899564
0.000897509
0.000892696
0.000861772
0.000890632
0.000890631
0.000863827
0.000863827
0.000892695
0.000861771
0.000890632
0.000890632
0.000863827
0.000863828
0.000890632
0.000863826
0.000863826
0.000892696
0.000861772
0.000890632
0.000863826
0.000863826
0.00086177
0.000856957
0.000826034
0.000854894
0.000854892
0.00082809
0.000828091
0.000856956
0.000826037
0.000854894
0.000854895
0.00082809
0.000828089
0.000854893
0.000828091
0.000828091
0.000856958
0.000826035
0.000854892
0.00082809
0.000828091
0.000826035
0.000821219
0.000790299
0.000819157
0.000819157
0.000792353
0.000792353
0.00082122
0.0007903
0.000819156
0.000819157
0.000792354
0.000792352
0.000819157
0.000792353
0.000792353
0.00082122
0.000790297
0.000819156
0.000792352
0.000792353
0.0007903
0.000785483
0.000754562
0.000783419
0.00078342
0.000756618
0.000756617
0.000785485
0.000754561
0.000783419
0.000783418
0.000756618
0.000756618
0.00078342
0.000756616
0.000756617
0.000785483
0.000754561
0.00078342
0.000756617
0.000756616
0.000754562
0.000749745
0.000718829
0.000747681
0.000747682
0.000720884
0.000720883
0.000749746
0.000718828
0.000747681
0.000747681
0.000720884
0.000720884
0.000747682
0.000720883
0.000720883
0.000749745
0.000718829
0.000747682
0.000720884
0.000720882
0.000718825
0.000714013
0.000683091
0.000711949
0.000711948
0.000685145
0.000685146
0.00071401
0.000683093
0.000711949
0.000711949
0.000685145
0.000685145
0.000711947
0.000685146
0.000685146
0.000714013
0.00068309
0.000711947
0.000685145
0.000685147
0.000683092
0.000678277
0.000647355
0.000676214
0.000676215
0.00064941
0.000649409
0.000678278
0.000647354
0.000676214
0.000676213
0.00064941
0.000649411
0.000676214
0.000649409
0.000649411
0.000678276
0.000647356
0.000676214
0.000649411
0.00064941
0.000647356
0.000642539
0.000611623
0.000640477
0.000640477
0.000613677
0.000613677
0.000642539
0.000611625
0.000640477
0.000640478
0.000613677
0.000613677
0.000640477
0.000613679
0.000613678
0.00064254
0.000611624
0.000640479
0.000613677
0.000613675
0.000611621
0.000606807
0.000575892
0.000604744
0.000604744
0.000577945
0.000577943
0.000606808
0.00057589
0.000604743
0.000604744
0.000577945
0.000577944
0.000604745
0.000577944
0.000577944
0.000606809
0.00057589
0.000604743
0.000577944
0.000577945
0.000575888
0.000571076
0.000540157
0.000569011
0.000569011
0.000542212
0.000542211
0.000571075
0.000540156
0.000569011
0.000569011
0.000542211
0.000542211
0.00056901
0.000542212
0.000542213
0.000571076
0.000540156
0.000569009
0.000542212
0.000542213
0.000540158
0.000535342
0.000504423
0.000533278
0.000533277
0.000506478
0.00050648
0.00053534
0.000504425
0.000533278
0.000533277
0.000506479
0.00050648
0.000533278
0.00050648
0.000506479
0.000535341
0.000504424
0.000533279
0.00050648
0.000506479
0.000504424
0.000499608
0.00046869
0.000497547
0.000497547
0.000470744
0.000470744
0.000499609
0.000468691
0.000497545
0.000497545
0.000470746
0.000470747
0.000497548
0.000470744
0.000470743
0.000499608
0.000468691
0.000497547
0.000470745
0.000470744
0.000468689
0.000463874
0.000432958
0.000461811
0.000461812
0.000435013
0.000435013
0.000463874
0.00043296
0.000461813
0.000461813
0.000435011
0.000435011
0.000461812
0.000435013
0.000435012
0.000463875
0.000432958
0.000461813
0.000435011
0.000435011
0.000432956
0.000428141
0.000397224
0.000426078
0.000426079
0.000399278
0.000399276
0.000428143
0.000397223
0.000426079
0.00042608
0.000399276
0.000399275
0.000426077
0.000399277
0.000399279
0.000428143
0.000397222
0.000426078
0.000399275
0.000399277
0.000397223
0.000392408
0.000361488
0.000390346
0.000390346
0.00036354
0.000363539
0.000392408
0.000361485
0.000390344
0.000390343
0.000363541
0.000363541
0.000390345
0.00036354
0.000363542
0.000392407
0.000361486
0.000390343
0.000363541
0.000363542
0.000361488
0.000356672
0.000325751
0.000354609
0.000354607
0.000327804
0.000327806
0.000356669
0.000325751
0.000354608
0.000354606
0.000327805
0.000327807
0.000354609
0.000327805
0.000327805
0.000356669
0.000325752
0.000354608
0.000327807
0.000327806
0.000325753
0.000320933
0.000290014
0.000318871
0.00031887
0.000292069
0.00029207
0.000320932
0.000290016
0.000318872
0.000318872
0.000292068
0.000292069
0.000318872
0.000292069
0.000292068
0.000320934
0.000290016
0.000318873
0.000292068
0.000292067
0.000290015
0.000285194
0.000254277
0.000283135
0.000283136
0.00025633
0.000256329
0.000285196
0.000254279
0.000283135
0.000283137
0.00025633
0.000256328
0.000283136
0.000256331
0.00025633
0.000285197
0.000254277
0.000283137
0.000256328
0.000256328
0.000254276
0.000249455
0.00021854
0.000247398
0.000247399
0.000220591
0.000220589
0.000249458
0.00021854
0.000247398
0.000247399
0.000220591
0.000220589
0.000247398
0.000220591
0.000220591
0.000249458
0.000218539
0.000247398
0.000220591
0.000220591
0.000218539
0.000213715
0.000182804
0.000211659
0.000211659
0.000184854
0.000184852
0.000213717
0.000182802
0.00021166
0.000211659
0.000184852
0.000184852
0.000211661
0.00018485
0.000184852
0.000213716
0.000182802
0.000211661
0.000184851
0.000184851
0.000182801
0.000177972
0.000147069
0.000175922
0.000175921
0.000149114
0.000149113
0.000177972
0.000147066
0.000175922
0.000175921
0.000149112
0.000149111
0.000175922
0.000149111
0.000149112
0.000177971
0.000147066
0.000175921
0.000149113
0.000149113
0.000147067
0.000142225
0.00011133
0.000140186
0.000140184
0.000113368
0.000113368
0.000142222
0.000111329
0.000140185
0.000140183
0.000113368
0.000113368
0.000140184
0.00011337
0.000113368
0.000142223
0.000111328
0.000140183
0.000113369
0.000113369
0.00011133
0.000106465
7.55881e-05
0.000104442
0.000104441
7.76208e-05
7.76215e-05
0.000106463
7.55878e-05
0.000104442
0.00010444
7.76203e-05
7.76199e-05
0.000104442
7.76211e-05
7.7618e-05
0.000106463
7.55854e-05
0.000104443
7.76181e-05
7.76171e-05
7.55857e-05
7.06876e-05
3.99184e-05
6.8697e-05
6.86965e-05
4.19578e-05
4.19577e-05
7.0687e-05
3.9917e-05
6.86967e-05
6.86946e-05
4.19552e-05
4.19525e-05
6.86955e-05
4.19552e-05
4.19518e-05
7.06849e-05
3.99128e-05
6.86949e-05
4.1951e-05
4.19506e-05
3.99129e-05
3.50622e-05
7.93707e-06
3.32519e-05
3.32517e-05
1.07706e-05
1.07715e-05
3.50602e-05
7.9387e-06
3.325e-05
3.32465e-05
1.07729e-05
1.07672e-05
3.32449e-05
1.0773e-05
1.07676e-05
3.50569e-05
7.9343e-06
3.32449e-05
1.07697e-05
1.07704e-05
7.9357e-06
4.85054e-06
6.14941e-06
6.14944e-06
4.85135e-06
6.1495e-06
6.14592e-06
5.68576e-06
5.68424e-06
5.68476e-06
6.14743e-06
4.84699e-06
6.14853e-06
0.00354243
0.00354529
0.00354406
0.00354408
0.00356971
0.00354561
0.00357428
0.00354539
0.00356992
0.00354574
0.00354549
0.00357445
0.00355603
0.0035774
0.00357743
0.00351446
0.00352828
0.00353208
0.00350674
0.00350492
0.0035102
0.00351446
0.0035283
0.00353205
0.00350671
0.00353047
0.00353052
0.00353048
0.00350364
0.00350364
0.00350363
0.0035036
0.003514
0.00352599
0.00353101
0.00352164
0.00353323
0.00351125
0.00352181
0.00350513
0.00351021
0.00351408
0.00353108
0.00352611
0.00352164
0.00353335
0.00352185
0.00351127
0.0035319
0.00353124
0.00351876
0.0035111
0.00351114
0.00348723
0.00350114
0.00350094
0.00348516
0.00349844
0.0034842
0.00348724
0.00350115
0.00350089
0.00348518
0.00349469
0.00349468
0.00349468
0.00346709
0.00346707
0.00346709
0.00346709
0.00348485
0.0034997
0.00349333
0.00348401
0.00349817
0.00348547
0.00348411
0.00349848
0.00348416
0.00348483
0.00349333
0.00349972
0.00348407
0.00349818
0.00348412
0.00348546
0.00350144
0.00350152
0.00348267
0.00348583
0.00348584
0.00344508
0.00345965
0.00346054
0.00344374
0.0034585
0.00344282
0.00344509
0.00345966
0.00346058
0.00344376
0.00345714
0.00345716
0.00345716
0.00342447
0.00342447
0.00342446
0.00342447
0.00344374
0.00345928
0.00345533
0.0034449
0.0034583
0.00344425
0.00344498
0.00345849
0.00344283
0.00344373
0.00345528
0.00345924
0.00344498
0.00345828
0.00344497
0.00344423
0.0034599
0.00345997
0.00344229
0.00344402
0.00344402
0.00339842
0.00341501
0.00341651
0.00339701
0.00341431
0.00339648
0.00339843
0.00341501
0.00341655
0.00339702
0.00341274
0.00341275
0.00341276
0.00337656
0.00337655
0.00337655
0.00337656
0.00339751
0.00341491
0.00341117
0.00339933
0.00341431
0.00339768
0.00339928
0.00341431
0.00339651
0.00339747
0.00341115
0.00341486
0.00339932
0.0034143
0.00339928
0.00339767
0.00341508
0.0034151
0.00339611
0.00339719
0.0033972
0.00334937
0.00336648
0.00336783
0.00334825
0.00336608
0.00334796
0.00334933
0.00336651
0.00336787
0.0033482
0.00336438
0.00336438
0.00336439
0.00332803
0.00332803
0.00332803
0.00332803
0.00334891
0.00336647
0.00336292
0.00335073
0.0033662
0.00334892
0.00335079
0.00336614
0.00334787
0.0033489
0.00336294
0.00336651
0.00335075
0.00336621
0.00335078
0.0033489
0.00336656
0.00336656
0.00334759
0.00334833
0.00334833
0.00330065
0.00331786
0.00331876
0.00329982
0.00331759
0.00329957
0.00330062
0.00331785
0.00331885
0.0032998
0.00331598
0.00331598
0.00331598
0.00327999
0.00327999
0.00327998
0.00327999
0.00330053
0.00331785
0.00331466
0.00330261
0.00331771