/*--------------------------------*- C++ -*----------------------------------*\
| =========                 |                                                 |
| \\      /  F ield         | OpenFOAM: The Open Source CFD Toolbox           |
|  \\    /   O peration     | Version:  v2012                                 |
|   \\  /    A nd           | Website:  www.openfoam.com                      |
|    \\/     M anipulation  |                                                 |
\*---------------------------------------------------------------------------*/
FoamFile
{
    version     2.0;
    format      ascii;
    class       volScalarField;
    location    "37500";
    object      p;
}
// * * * * * * * * * * * * * * * * * * * * * * * * * * * * * * * * * * * * * //

dimensions      [0 2 -2 0 0 0 0];


internalField   nonuniform List<scalar> 
171728
(
1.28072e-07
1.28006e-07
1.28006e-07
1.28154e-07
1.25161e-07
1.25085e-07
1.25085e-07
1.25216e-07
1.23002e-07
1.22977e-07
1.22977e-07
1.23085e-07
1.21174e-07
1.21167e-07
1.21167e-07
1.21261e-07
1.19518e-07
1.19518e-07
1.19518e-07
1.19607e-07
1.17966e-07
1.17968e-07
1.17968e-07
1.18052e-07
1.16481e-07
1.16484e-07
1.16484e-07
1.16566e-07
1.15044e-07
1.15046e-07
1.15046e-07
1.15125e-07
1.1364e-07
1.13641e-07
1.13641e-07
1.1372e-07
1.12261e-07
1.12262e-07
1.12262e-07
1.12339e-07
1.10901e-07
1.10902e-07
1.10902e-07
1.10978e-07
1.09557e-07
1.09558e-07
1.09558e-07
1.09633e-07
1.08228e-07
1.08228e-07
1.08228e-07
1.08303e-07
1.06909e-07
1.06909e-07
1.06909e-07
1.06984e-07
1.05596e-07
1.05596e-07
1.05596e-07
1.0567e-07
1.04284e-07
1.04283e-07
1.04283e-07
1.04358e-07
1.02972e-07
1.02972e-07
1.02972e-07
1.03046e-07
1.0166e-07
1.0166e-07
1.0166e-07
1.01734e-07
1.00349e-07
1.00348e-07
1.00348e-07
1.00423e-07
9.90369e-08
9.90367e-08
9.90367e-08
9.91109e-08
9.77253e-08
9.7725e-08
9.7725e-08
9.77992e-08
9.64136e-08
9.64134e-08
9.64133e-08
9.64875e-08
9.51019e-08
9.51017e-08
9.51017e-08
9.51758e-08
9.37902e-08
9.379e-08
9.379e-08
9.38642e-08
9.24785e-08
9.24783e-08
9.24783e-08
9.25525e-08
9.11669e-08
9.11666e-08
9.11666e-08
9.12408e-08
8.98552e-08
8.98549e-08
8.98549e-08
8.99291e-08
8.85435e-08
8.85433e-08
8.85433e-08
8.86174e-08
8.72318e-08
8.72316e-08
8.72316e-08
8.73058e-08
8.59201e-08
8.59199e-08
8.59199e-08
8.59941e-08
8.46085e-08
8.46082e-08
8.46082e-08
8.46824e-08
8.32968e-08
8.32965e-08
8.32965e-08
8.33707e-08
8.19851e-08
8.19848e-08
8.19848e-08
8.2059e-08
8.06734e-08
8.06732e-08
8.06732e-08
8.07473e-08
7.93617e-08
7.93615e-08
7.93615e-08
7.94356e-08
7.805e-08
7.80497e-08
7.80497e-08
7.81239e-08
7.67383e-08
7.6738e-08
7.6738e-08
7.68122e-08
7.54265e-08
7.54263e-08
7.54263e-08
7.55005e-08
7.41148e-08
7.41146e-08
7.41146e-08
7.41888e-08
7.28031e-08
7.28029e-08
7.28029e-08
7.28771e-08
7.14914e-08
7.14912e-08
7.14912e-08
7.15654e-08
7.01797e-08
7.01795e-08
7.01795e-08
7.02537e-08
6.8868e-08
6.88678e-08
6.88678e-08
6.8942e-08
6.75563e-08
6.75561e-08
6.75561e-08
6.76303e-08
6.62446e-08
6.62444e-08
6.62444e-08
6.63186e-08
6.4933e-08
6.49327e-08
6.49327e-08
6.50069e-08
6.36213e-08
6.3621e-08
6.3621e-08
6.36952e-08
6.23096e-08
6.23094e-08
6.23094e-08
6.23835e-08
6.09979e-08
6.09977e-08
6.09977e-08
6.10718e-08
5.96862e-08
5.9686e-08
5.9686e-08
5.97602e-08
5.83745e-08
5.83743e-08
5.83743e-08
5.84485e-08
5.70628e-08
5.70626e-08
5.70626e-08
5.71368e-08
5.57511e-08
5.57509e-08
5.57509e-08
5.58251e-08
5.44394e-08
5.44392e-08
5.44392e-08
5.45134e-08
5.31278e-08
5.31275e-08
5.31275e-08
5.32017e-08
5.18161e-08
5.18158e-08
5.18158e-08
5.189e-08
5.05044e-08
5.05042e-08
5.05042e-08
5.05783e-08
4.91927e-08
4.91925e-08
4.91925e-08
4.92667e-08
4.7881e-08
4.78808e-08
4.78808e-08
4.7955e-08
4.65693e-08
4.65691e-08
4.65691e-08
4.66433e-08
4.52577e-08
4.52575e-08
4.52575e-08
4.53316e-08
4.3946e-08
4.39458e-08
4.39458e-08
4.40199e-08
4.26343e-08
4.26341e-08
4.26341e-08
4.27083e-08
4.13226e-08
4.13224e-08
4.13224e-08
4.13966e-08
4.00109e-08
4.00107e-08
4.00107e-08
4.00849e-08
3.86992e-08
3.8699e-08
3.8699e-08
3.87732e-08
3.73875e-08
3.73873e-08
3.73873e-08
3.74615e-08
3.60759e-08
3.60756e-08
3.60756e-08
3.61498e-08
3.47642e-08
3.4764e-08
3.4764e-08
3.48381e-08
3.34525e-08
3.34523e-08
3.34523e-08
3.35265e-08
3.21409e-08
3.21407e-08
3.21407e-08
3.22149e-08
3.08293e-08
3.08291e-08
3.08291e-08
3.09032e-08
2.95177e-08
2.95174e-08
2.95174e-08
2.95916e-08
2.8206e-08
2.82058e-08
2.82058e-08
2.828e-08
2.68944e-08
2.68942e-08
2.68942e-08
2.69683e-08
2.55828e-08
2.55826e-08
2.55826e-08
2.56567e-08
2.42711e-08
2.42709e-08
2.42709e-08
2.43451e-08
2.29595e-08
2.29593e-08
2.29593e-08
2.30335e-08
2.16479e-08
2.16477e-08
2.16477e-08
2.17219e-08
2.03363e-08
2.03361e-08
2.03361e-08
2.04102e-08
1.90247e-08
1.90245e-08
1.90245e-08
1.90986e-08
1.77131e-08
1.77128e-08
1.77128e-08
1.7787e-08
1.64015e-08
1.64012e-08
1.64012e-08
1.64754e-08
1.50898e-08
1.50896e-08
1.50896e-08
1.51638e-08
1.37782e-08
1.3778e-08
1.3778e-08
1.38521e-08
1.24665e-08
1.24663e-08
1.24663e-08
1.25405e-08
1.11549e-08
1.11547e-08
1.11547e-08
1.12288e-08
9.84323e-09
9.84301e-09
9.84301e-09
9.91717e-09
8.53156e-09
8.53134e-09
8.53134e-09
8.60551e-09
7.21988e-09
7.21967e-09
7.21967e-09
7.29384e-09
5.90821e-09
5.908e-09
5.90801e-09
5.98214e-09
4.59657e-09
4.59636e-09
4.59637e-09
4.67045e-09
3.28498e-09
3.2847e-09
3.28469e-09
3.35884e-09
1.97711e-09
1.97293e-09
1.97287e-09
2.04853e-09
6.72819e-10
7.41784e-10
7.41707e-10
6.74689e-10
1.28664e-07
1.28739e-07
1.28739e-07
1.28664e-07
1.28739e-07
1.28739e-07
1.28906e-07
1.28906e-07
1.28906e-07
1.28906e-07
1.28739e-07
1.28739e-07
1.28664e-07
1.28739e-07
1.28739e-07
1.28664e-07
1.28154e-07
1.25556e-07
1.28007e-07
1.28007e-07
1.25699e-07
1.25699e-07
1.28154e-07
1.25556e-07
1.28006e-07
1.28007e-07
1.25699e-07
1.25699e-07
1.28007e-07
1.25699e-07
1.25699e-07
1.28154e-07
1.25556e-07
1.28006e-07
1.25699e-07
1.25699e-07
1.25556e-07
1.25216e-07
1.23356e-07
1.25085e-07
1.25085e-07
1.23468e-07
1.23468e-07
1.25216e-07
1.23356e-07
1.25085e-07
1.25085e-07
1.23468e-07
1.23468e-07
1.25085e-07
1.23468e-07
1.23468e-07
1.25216e-07
1.23356e-07
1.25085e-07
1.23468e-07
1.23468e-07
1.23356e-07
1.23085e-07
1.21497e-07
1.22977e-07
1.22977e-07
1.216e-07
1.216e-07
1.23085e-07
1.21497e-07
1.22977e-07
1.22977e-07
1.216e-07
1.216e-07
1.22977e-07
1.216e-07
1.216e-07
1.23085e-07
1.21497e-07
1.22977e-07
1.216e-07
1.216e-07
1.21497e-07
1.21261e-07
1.19825e-07
1.21167e-07
1.21167e-07
1.19919e-07
1.19919e-07
1.21261e-07
1.19825e-07
1.21167e-07
1.21167e-07
1.19919e-07
1.19919e-07
1.21167e-07
1.19919e-07
1.19919e-07
1.21261e-07
1.19825e-07
1.21167e-07
1.19919e-07
1.19919e-07
1.19825e-07
1.19607e-07
1.18259e-07
1.19518e-07
1.19518e-07
1.18348e-07
1.18348e-07
1.19607e-07
1.18259e-07
1.19518e-07
1.19518e-07
1.18348e-07
1.18348e-07
1.19518e-07
1.18348e-07
1.18348e-07
1.19607e-07
1.18259e-07
1.19518e-07
1.18348e-07
1.18348e-07
1.18259e-07
1.18052e-07
1.16765e-07
1.17968e-07
1.17968e-07
1.1685e-07
1.1685e-07
1.18052e-07
1.16765e-07
1.17968e-07
1.17968e-07
1.1685e-07
1.1685e-07
1.17968e-07
1.1685e-07
1.1685e-07
1.18052e-07
1.16765e-07
1.17968e-07
1.1685e-07
1.1685e-07
1.16765e-07
1.16566e-07
1.1532e-07
1.16484e-07
1.16484e-07
1.15402e-07
1.15402e-07
1.16566e-07
1.1532e-07
1.16484e-07
1.16484e-07
1.15402e-07
1.15402e-07
1.16484e-07
1.15402e-07
1.15402e-07
1.16566e-07
1.1532e-07
1.16484e-07
1.15402e-07
1.15402e-07
1.1532e-07
1.15125e-07
1.1391e-07
1.15046e-07
1.15046e-07
1.1399e-07
1.1399e-07
1.15125e-07
1.1391e-07
1.15046e-07
1.15046e-07
1.1399e-07
1.1399e-07
1.15046e-07
1.1399e-07
1.1399e-07
1.15125e-07
1.1391e-07
1.15046e-07
1.1399e-07
1.1399e-07
1.1391e-07
1.1372e-07
1.12526e-07
1.13641e-07
1.13641e-07
1.12605e-07
1.12605e-07
1.1372e-07
1.12526e-07
1.13641e-07
1.13641e-07
1.12605e-07
1.12605e-07
1.13641e-07
1.12605e-07
1.12605e-07
1.1372e-07
1.12526e-07
1.13641e-07
1.12605e-07
1.12605e-07
1.12526e-07
1.12339e-07
1.11163e-07
1.12262e-07
1.12262e-07
1.1124e-07
1.1124e-07
1.12339e-07
1.11163e-07
1.12262e-07
1.12262e-07
1.1124e-07
1.1124e-07
1.12262e-07
1.1124e-07
1.1124e-07
1.12339e-07
1.11163e-07
1.12262e-07
1.1124e-07
1.1124e-07
1.11163e-07
1.10978e-07
1.09816e-07
1.10902e-07
1.10902e-07
1.09892e-07
1.09892e-07
1.10978e-07
1.09816e-07
1.10902e-07
1.10902e-07
1.09892e-07
1.09892e-07
1.10902e-07
1.09892e-07
1.09892e-07
1.10978e-07
1.09816e-07
1.10902e-07
1.09892e-07
1.09892e-07
1.09816e-07
1.09633e-07
1.08485e-07
1.09558e-07
1.09558e-07
1.08559e-07
1.08559e-07
1.09633e-07
1.08485e-07
1.09558e-07
1.09558e-07
1.08559e-07
1.08559e-07
1.09558e-07
1.08559e-07
1.08559e-07
1.09633e-07
1.08485e-07
1.09558e-07
1.08559e-07
1.08559e-07
1.08485e-07
1.08303e-07
1.07164e-07
1.08228e-07
1.08228e-07
1.07238e-07
1.07238e-07
1.08303e-07
1.07164e-07
1.08228e-07
1.08228e-07
1.07238e-07
1.07238e-07
1.08228e-07
1.07238e-07
1.07238e-07
1.08303e-07
1.07164e-07
1.08228e-07
1.07238e-07
1.07238e-07
1.07164e-07
1.06984e-07
1.0585e-07
1.06909e-07
1.06909e-07
1.05924e-07
1.05924e-07
1.06984e-07
1.0585e-07
1.06909e-07
1.06909e-07
1.05924e-07
1.05924e-07
1.06909e-07
1.05924e-07
1.05924e-07
1.06984e-07
1.0585e-07
1.06909e-07
1.05924e-07
1.05924e-07
1.0585e-07
1.0567e-07
1.04537e-07
1.05596e-07
1.05596e-07
1.04611e-07
1.04611e-07
1.0567e-07
1.04537e-07
1.05596e-07
1.05596e-07
1.04611e-07
1.04611e-07
1.05596e-07
1.04611e-07
1.04611e-07
1.0567e-07
1.04537e-07
1.05596e-07
1.04611e-07
1.04611e-07
1.04537e-07
1.04358e-07
1.03226e-07
1.04283e-07
1.04283e-07
1.033e-07
1.033e-07
1.04358e-07
1.03226e-07
1.04283e-07
1.04283e-07
1.033e-07
1.033e-07
1.04283e-07
1.033e-07
1.033e-07
1.04358e-07
1.03226e-07
1.04283e-07
1.033e-07
1.033e-07
1.03226e-07
1.03046e-07
1.01914e-07
1.02972e-07
1.02972e-07
1.01988e-07
1.01988e-07
1.03046e-07
1.01914e-07
1.02972e-07
1.02972e-07
1.01988e-07
1.01988e-07
1.02972e-07
1.01988e-07
1.01988e-07
1.03046e-07
1.01914e-07
1.02972e-07
1.01988e-07
1.01988e-07
1.01914e-07
1.01734e-07
1.00602e-07
1.0166e-07
1.0166e-07
1.00676e-07
1.00676e-07
1.01734e-07
1.00602e-07
1.0166e-07
1.0166e-07
1.00676e-07
1.00676e-07
1.0166e-07
1.00676e-07
1.00676e-07
1.01734e-07
1.00602e-07
1.0166e-07
1.00676e-07
1.00676e-07
1.00602e-07
1.00423e-07
9.92906e-08
1.00348e-07
1.00348e-07
9.93646e-08
9.93646e-08
1.00423e-07
9.92906e-08
1.00348e-07
1.00348e-07
9.93646e-08
9.93646e-08
1.00348e-07
9.93646e-08
9.93646e-08
1.00423e-07
9.92905e-08
1.00348e-07
9.93646e-08
9.93646e-08
9.92905e-08
9.91108e-08
9.79789e-08
9.90367e-08
9.90367e-08
9.80529e-08
9.80529e-08
9.91109e-08
9.79789e-08
9.90367e-08
9.90367e-08
9.80529e-08
9.80529e-08
9.90367e-08
9.80529e-08
9.80529e-08
9.91109e-08
9.79789e-08
9.90367e-08
9.80529e-08
9.80529e-08
9.79789e-08
9.77992e-08
9.66672e-08
9.7725e-08
9.7725e-08
9.67413e-08
9.67413e-08
9.77992e-08
9.66672e-08
9.7725e-08
9.7725e-08
9.67413e-08
9.67413e-08
9.7725e-08
9.67413e-08
9.67413e-08
9.77992e-08
9.66672e-08
9.7725e-08
9.67413e-08
9.67413e-08
9.66672e-08
9.64875e-08
9.53555e-08
9.64133e-08
9.64134e-08
9.54296e-08
9.54296e-08
9.64875e-08
9.53555e-08
9.64133e-08
9.64133e-08
9.54296e-08
9.54296e-08
9.64134e-08
9.54296e-08
9.54296e-08
9.64875e-08
9.53555e-08
9.64133e-08
9.54296e-08
9.54296e-08
9.53555e-08
9.51758e-08
9.40438e-08
9.51017e-08
9.51017e-08
9.41179e-08
9.41179e-08
9.51758e-08
9.40439e-08
9.51017e-08
9.51017e-08
9.41179e-08
9.41179e-08
9.51017e-08
9.41179e-08
9.41179e-08
9.51758e-08
9.40438e-08
9.51017e-08
9.41179e-08
9.41179e-08
9.40438e-08
9.38642e-08
9.27322e-08
9.379e-08
9.379e-08
9.28062e-08
9.28062e-08
9.38642e-08
9.27322e-08
9.379e-08
9.379e-08
9.28062e-08
9.28062e-08
9.379e-08
9.28062e-08
9.28062e-08
9.38642e-08
9.27322e-08
9.379e-08
9.28062e-08
9.28062e-08
9.27322e-08
9.25525e-08
9.14205e-08
9.24783e-08
9.24783e-08
9.14946e-08
9.14946e-08
9.25525e-08
9.14205e-08
9.24783e-08
9.24783e-08
9.14946e-08
9.14946e-08
9.24783e-08
9.14946e-08
9.14946e-08
9.25525e-08
9.14205e-08
9.24783e-08
9.14946e-08
9.14946e-08
9.14205e-08
9.12408e-08
9.01088e-08
9.11666e-08
9.11666e-08
9.01829e-08
9.01829e-08
9.12408e-08
9.01088e-08
9.11666e-08
9.11666e-08
9.01829e-08
9.01829e-08
9.11666e-08
9.01829e-08
9.01829e-08
9.12408e-08
9.01088e-08
9.11666e-08
9.01829e-08
9.01829e-08
9.01088e-08
8.99291e-08
8.87971e-08
8.98549e-08
8.98549e-08
8.88712e-08
8.88712e-08
8.99291e-08
8.87971e-08
8.98549e-08
8.98549e-08
8.88712e-08
8.88712e-08
8.98549e-08
8.88712e-08
8.88712e-08
8.99291e-08
8.87971e-08
8.98549e-08
8.88712e-08
8.88712e-08
8.87971e-08
8.86174e-08
8.74854e-08
8.85433e-08
8.85433e-08
8.75595e-08
8.75595e-08
8.86174e-08
8.74854e-08
8.85433e-08
8.85433e-08
8.75595e-08
8.75595e-08
8.85433e-08
8.75595e-08
8.75595e-08
8.86174e-08
8.74854e-08
8.85433e-08
8.75595e-08
8.75595e-08
8.74854e-08
8.73058e-08
8.61738e-08
8.72316e-08
8.72316e-08
8.62478e-08
8.62478e-08
8.73057e-08
8.61738e-08
8.72316e-08
8.72316e-08
8.62478e-08
8.62478e-08
8.72316e-08
8.62478e-08
8.62478e-08
8.73058e-08
8.61738e-08
8.72316e-08
8.62478e-08
8.62478e-08
8.61737e-08
8.59941e-08
8.48621e-08
8.59199e-08
8.59199e-08
8.49362e-08
8.49362e-08
8.59941e-08
8.48621e-08
8.59199e-08
8.59199e-08
8.49362e-08
8.49362e-08
8.59199e-08
8.49362e-08
8.49362e-08
8.59941e-08
8.48621e-08
8.59199e-08
8.49362e-08
8.49362e-08
8.48621e-08
8.46824e-08
8.35504e-08
8.46082e-08
8.46082e-08
8.36245e-08
8.36245e-08
8.46824e-08
8.35504e-08
8.46082e-08
8.46082e-08
8.36245e-08
8.36245e-08
8.46082e-08
8.36245e-08
8.36245e-08
8.46824e-08
8.35504e-08
8.46082e-08
8.36245e-08
8.36245e-08
8.35504e-08
8.33707e-08
8.22387e-08
8.32965e-08
8.32965e-08
8.23128e-08
8.23128e-08
8.33707e-08
8.22387e-08
8.32965e-08
8.32965e-08
8.23128e-08
8.23128e-08
8.32965e-08
8.23128e-08
8.23128e-08
8.33707e-08
8.22387e-08
8.32965e-08
8.23128e-08
8.23128e-08
8.22387e-08
8.2059e-08
8.0927e-08
8.19848e-08
8.19848e-08
8.10011e-08
8.10011e-08
8.2059e-08
8.0927e-08
8.19848e-08
8.19848e-08
8.10011e-08
8.10011e-08
8.19848e-08
8.10011e-08
8.10011e-08
8.2059e-08
8.0927e-08
8.19848e-08
8.10011e-08
8.10011e-08
8.0927e-08
8.07473e-08
7.96153e-08
8.06732e-08
8.06732e-08
7.96894e-08
7.96894e-08
8.07473e-08
7.96153e-08
8.06732e-08
8.06732e-08
7.96894e-08
7.96894e-08
8.06732e-08
7.96894e-08
7.96894e-08
8.07473e-08
7.96153e-08
8.06732e-08
7.96894e-08
7.96894e-08
7.96153e-08
7.94356e-08
7.83036e-08
7.93615e-08
7.93615e-08
7.83777e-08
7.83777e-08
7.94356e-08
7.83036e-08
7.93615e-08
7.93615e-08
7.83777e-08
7.83777e-08
7.93615e-08
7.83777e-08
7.83777e-08
7.94356e-08
7.83036e-08
7.93615e-08
7.83777e-08
7.83777e-08
7.83036e-08
7.81239e-08
7.69919e-08
7.80497e-08
7.80497e-08
7.7066e-08
7.7066e-08
7.81239e-08
7.69919e-08
7.80497e-08
7.80497e-08
7.7066e-08
7.7066e-08
7.80497e-08
7.7066e-08
7.7066e-08
7.81239e-08
7.69919e-08
7.80497e-08
7.7066e-08
7.7066e-08
7.69919e-08
7.68122e-08
7.56802e-08
7.6738e-08
7.6738e-08
7.57542e-08
7.57542e-08
7.68122e-08
7.56802e-08
7.6738e-08
7.6738e-08
7.57542e-08
7.57542e-08
7.6738e-08
7.57542e-08
7.57542e-08
7.68122e-08
7.56802e-08
7.6738e-08
7.57542e-08
7.57542e-08
7.56802e-08
7.55005e-08
7.43685e-08
7.54263e-08
7.54263e-08
7.44425e-08
7.44425e-08
7.55005e-08
7.43685e-08
7.54263e-08
7.54263e-08
7.44425e-08
7.44425e-08
7.54263e-08
7.44425e-08
7.44425e-08
7.55005e-08
7.43685e-08
7.54263e-08
7.44425e-08
7.44425e-08
7.43684e-08
7.41888e-08
7.30568e-08
7.41146e-08
7.41146e-08
7.31308e-08
7.31308e-08
7.41888e-08
7.30568e-08
7.41146e-08
7.41146e-08
7.31308e-08
7.31308e-08
7.41146e-08
7.31308e-08
7.31308e-08
7.41888e-08
7.30568e-08
7.41146e-08
7.31308e-08
7.31308e-08
7.30567e-08
7.28771e-08
7.17451e-08
7.28029e-08
7.28029e-08
7.18191e-08
7.18191e-08
7.28771e-08
7.17451e-08
7.28029e-08
7.28029e-08
7.18191e-08
7.18191e-08
7.28029e-08
7.18191e-08
7.18191e-08
7.28771e-08
7.17451e-08
7.28029e-08
7.18191e-08
7.18191e-08
7.1745e-08
7.15654e-08
7.04334e-08
7.14912e-08
7.14912e-08
7.05074e-08
7.05074e-08
7.15654e-08
7.04334e-08
7.14912e-08
7.14912e-08
7.05074e-08
7.05074e-08
7.14912e-08
7.05074e-08
7.05074e-08
7.15654e-08
7.04334e-08
7.14912e-08
7.05074e-08
7.05074e-08
7.04333e-08
7.02537e-08
6.91217e-08
7.01795e-08
7.01795e-08
6.91957e-08
6.91957e-08
7.02537e-08
6.91217e-08
7.01795e-08
7.01795e-08
6.91957e-08
6.91957e-08
7.01795e-08
6.91957e-08
6.91957e-08
7.02537e-08
6.91217e-08
7.01795e-08
6.91957e-08
6.91957e-08
6.91216e-08
6.8942e-08
6.781e-08
6.88678e-08
6.88678e-08
6.7884e-08
6.7884e-08
6.8942e-08
6.781e-08
6.88678e-08
6.88678e-08
6.7884e-08
6.7884e-08
6.88678e-08
6.7884e-08
6.7884e-08
6.8942e-08
6.781e-08
6.88678e-08
6.7884e-08
6.7884e-08
6.78099e-08
6.76303e-08
6.64983e-08
6.75561e-08
6.75561e-08
6.65723e-08
6.65723e-08
6.76303e-08
6.64983e-08
6.75561e-08
6.75561e-08
6.65723e-08
6.65723e-08
6.75561e-08
6.65723e-08
6.65723e-08
6.76303e-08
6.64983e-08
6.75561e-08
6.65723e-08
6.65723e-08
6.64983e-08
6.63186e-08
6.51866e-08
6.62444e-08
6.62444e-08
6.52607e-08
6.52607e-08
6.63186e-08
6.51866e-08
6.62444e-08
6.62444e-08
6.52607e-08
6.52607e-08
6.62444e-08
6.52607e-08
6.52607e-08
6.63186e-08
6.51866e-08
6.62444e-08
6.52607e-08
6.52607e-08
6.51866e-08
6.50069e-08
6.38749e-08
6.49327e-08
6.49327e-08
6.3949e-08
6.3949e-08
6.50069e-08
6.38749e-08
6.49327e-08
6.49327e-08
6.3949e-08
6.3949e-08
6.49327e-08
6.3949e-08
6.3949e-08
6.50069e-08
6.38749e-08
6.49327e-08
6.3949e-08
6.3949e-08
6.38749e-08
6.36952e-08
6.25632e-08
6.3621e-08
6.3621e-08
6.26373e-08
6.26373e-08
6.36952e-08
6.25632e-08
6.3621e-08
6.3621e-08
6.26373e-08
6.26373e-08
6.3621e-08
6.26373e-08
6.26373e-08
6.36952e-08
6.25632e-08
6.3621e-08
6.26373e-08
6.26373e-08
6.25632e-08
6.23835e-08
6.12515e-08
6.23094e-08
6.23094e-08
6.13256e-08
6.13256e-08
6.23835e-08
6.12515e-08
6.23094e-08
6.23094e-08
6.13256e-08
6.13256e-08
6.23094e-08
6.13256e-08
6.13256e-08
6.23835e-08
6.12515e-08
6.23094e-08
6.13256e-08
6.13256e-08
6.12515e-08
6.10718e-08
5.99398e-08
6.09977e-08
6.09977e-08
6.00139e-08
6.00139e-08
6.10718e-08
5.99398e-08
6.09977e-08
6.09977e-08
6.00139e-08
6.00139e-08
6.09977e-08
6.00139e-08
6.00139e-08
6.10718e-08
5.99398e-08
6.09977e-08
6.00139e-08
6.00139e-08
5.99398e-08
5.97601e-08
5.86282e-08
5.9686e-08
5.9686e-08
5.87022e-08
5.87022e-08
5.97601e-08
5.86282e-08
5.9686e-08
5.9686e-08
5.87022e-08
5.87022e-08
5.9686e-08
5.87022e-08
5.87022e-08
5.97601e-08
5.86281e-08
5.9686e-08
5.87022e-08
5.87022e-08
5.86281e-08
5.84484e-08
5.73165e-08
5.83743e-08
5.83743e-08
5.73905e-08
5.73905e-08
5.84484e-08
5.73165e-08
5.83743e-08
5.83743e-08
5.73905e-08
5.73905e-08
5.83743e-08
5.73905e-08
5.73905e-08
5.84485e-08
5.73165e-08
5.83743e-08
5.73905e-08
5.73905e-08
5.73164e-08
5.71368e-08
5.60048e-08
5.70626e-08
5.70626e-08
5.60788e-08
5.60788e-08
5.71368e-08
5.60048e-08
5.70626e-08
5.70626e-08
5.60788e-08
5.60788e-08
5.70626e-08
5.60788e-08
5.60788e-08
5.71368e-08
5.60048e-08
5.70626e-08
5.60788e-08
5.60788e-08
5.60047e-08
5.58251e-08
5.46931e-08
5.57509e-08
5.57509e-08
5.47671e-08
5.47671e-08
5.58251e-08
5.46931e-08
5.57509e-08
5.57509e-08
5.47671e-08
5.47671e-08
5.57509e-08
5.47671e-08
5.47671e-08
5.58251e-08
5.46931e-08
5.57509e-08
5.47671e-08
5.47671e-08
5.4693e-08
5.45134e-08
5.33814e-08
5.44392e-08
5.44392e-08
5.34555e-08
5.34555e-08
5.45134e-08
5.33814e-08
5.44392e-08
5.44392e-08
5.34555e-08
5.34555e-08
5.44392e-08
5.34554e-08
5.34555e-08
5.45134e-08
5.33814e-08
5.44392e-08
5.34555e-08
5.34554e-08
5.33814e-08
5.32017e-08
5.20697e-08
5.31275e-08
5.31275e-08
5.21438e-08
5.21438e-08
5.32017e-08
5.20697e-08
5.31275e-08
5.31275e-08
5.21438e-08
5.21438e-08
5.31275e-08
5.21438e-08
5.21438e-08
5.32017e-08
5.20697e-08
5.31275e-08
5.21438e-08
5.21438e-08
5.20697e-08
5.189e-08
5.0758e-08
5.18158e-08
5.18158e-08
5.08321e-08
5.08321e-08
5.189e-08
5.0758e-08
5.18158e-08
5.18158e-08
5.08321e-08
5.08321e-08
5.18158e-08
5.08321e-08
5.08321e-08
5.189e-08
5.0758e-08
5.18158e-08
5.08321e-08
5.08321e-08
5.0758e-08
5.05783e-08
4.94463e-08
5.05042e-08
5.05042e-08
4.95204e-08
4.95204e-08
5.05783e-08
4.94463e-08
5.05042e-08
5.05042e-08
4.95204e-08
4.95204e-08
5.05042e-08
4.95204e-08
4.95204e-08
5.05783e-08
4.94463e-08
5.05042e-08
4.95204e-08
4.95204e-08
4.94463e-08
4.92666e-08
4.81346e-08
4.91925e-08
4.91925e-08
4.82087e-08
4.82087e-08
4.92666e-08
4.81347e-08
4.91925e-08
4.91925e-08
4.82087e-08
4.82087e-08
4.91925e-08
4.82087e-08
4.82087e-08
4.92666e-08
4.81346e-08
4.91925e-08
4.82087e-08
4.82087e-08
4.81346e-08
4.79549e-08
4.6823e-08
4.78808e-08
4.78808e-08
4.6897e-08
4.6897e-08
4.79549e-08
4.6823e-08
4.78808e-08
4.78808e-08
4.6897e-08
4.6897e-08
4.78808e-08
4.6897e-08
4.6897e-08
4.7955e-08
4.6823e-08
4.78808e-08
4.6897e-08
4.6897e-08
4.68229e-08
4.66433e-08
4.55113e-08
4.65691e-08
4.65691e-08
4.55854e-08
4.55854e-08
4.66433e-08
4.55113e-08
4.65691e-08
4.65691e-08
4.55854e-08
4.55854e-08
4.65691e-08
4.55854e-08
4.55854e-08
4.66433e-08
4.55113e-08
4.65691e-08
4.55854e-08
4.55854e-08
4.55113e-08
4.53316e-08
4.41996e-08
4.52575e-08
4.52575e-08
4.42737e-08
4.42737e-08
4.53316e-08
4.41996e-08
4.52575e-08
4.52575e-08
4.42737e-08
4.42737e-08
4.52575e-08
4.42737e-08
4.42737e-08
4.53316e-08
4.41996e-08
4.52575e-08
4.42737e-08
4.42737e-08
4.41996e-08
4.40199e-08
4.28879e-08
4.39458e-08
4.39458e-08
4.2962e-08
4.2962e-08
4.40199e-08
4.28879e-08
4.39458e-08
4.39458e-08
4.2962e-08
4.2962e-08
4.39458e-08
4.2962e-08
4.2962e-08
4.40199e-08
4.28879e-08
4.39458e-08
4.2962e-08
4.2962e-08
4.28879e-08
4.27082e-08
4.15763e-08
4.26341e-08
4.26341e-08
4.16503e-08
4.16503e-08
4.27082e-08
4.15763e-08
4.26341e-08
4.26341e-08
4.16503e-08
4.16503e-08
4.26341e-08
4.16503e-08
4.16503e-08
4.27082e-08
4.15762e-08
4.26341e-08
4.16503e-08
4.16503e-08
4.15762e-08
4.13965e-08
4.02646e-08
4.13224e-08
4.13224e-08
4.03386e-08
4.03386e-08
4.13965e-08
4.02646e-08
4.13224e-08
4.13224e-08
4.03386e-08
4.03386e-08
4.13224e-08
4.03386e-08
4.03386e-08
4.13966e-08
4.02645e-08
4.13224e-08
4.03386e-08
4.03386e-08
4.02645e-08
4.00849e-08
3.89529e-08
4.00107e-08
4.00107e-08
3.90269e-08
3.90269e-08
4.00848e-08
3.89529e-08
4.00107e-08
4.00107e-08
3.90269e-08
3.90269e-08
4.00107e-08
3.90269e-08
3.90269e-08
4.00849e-08
3.89529e-08
4.00107e-08
3.90269e-08
3.90269e-08
3.89528e-08
3.87732e-08
3.76412e-08
3.8699e-08
3.8699e-08
3.77152e-08
3.77152e-08
3.87732e-08
3.76412e-08
3.8699e-08
3.8699e-08
3.77152e-08
3.77152e-08
3.8699e-08
3.77152e-08
3.77152e-08
3.87732e-08
3.76412e-08
3.8699e-08
3.77152e-08
3.77152e-08
3.76412e-08
3.74615e-08
3.63295e-08
3.73873e-08
3.73873e-08
3.64036e-08
3.64036e-08
3.74615e-08
3.63295e-08
3.73873e-08
3.73873e-08
3.64036e-08
3.64036e-08
3.73873e-08
3.64036e-08
3.64036e-08
3.74615e-08
3.63295e-08
3.73873e-08
3.64036e-08
3.64036e-08
3.63295e-08
3.61498e-08
3.50178e-08
3.60756e-08
3.60756e-08
3.50919e-08
3.50919e-08
3.61498e-08
3.50178e-08
3.60756e-08
3.60756e-08
3.50919e-08
3.50919e-08
3.60756e-08
3.50919e-08
3.50919e-08
3.61498e-08
3.50178e-08
3.60756e-08
3.50919e-08
3.50919e-08
3.50178e-08
3.48381e-08
3.37062e-08
3.4764e-08
3.4764e-08
3.37802e-08
3.37802e-08
3.48381e-08
3.37062e-08
3.4764e-08
3.4764e-08
3.37802e-08
3.37802e-08
3.4764e-08
3.37802e-08
3.37802e-08
3.48381e-08
3.37062e-08
3.4764e-08
3.37802e-08
3.37802e-08
3.37061e-08
3.35265e-08
3.23945e-08
3.34523e-08
3.34523e-08
3.24686e-08
3.24686e-08
3.35265e-08
3.23945e-08
3.34523e-08
3.34523e-08
3.24686e-08
3.24686e-08
3.34523e-08
3.24686e-08
3.24686e-08
3.35265e-08
3.23945e-08
3.34523e-08
3.24686e-08
3.24686e-08
3.23945e-08
3.22148e-08
3.10829e-08
3.21407e-08
3.21407e-08
3.1157e-08
3.1157e-08
3.22148e-08
3.10829e-08
3.21407e-08
3.21407e-08
3.1157e-08
3.1157e-08
3.21407e-08
3.1157e-08
3.1157e-08
3.22148e-08
3.10829e-08
3.21407e-08
3.1157e-08
3.1157e-08
3.10829e-08
3.09032e-08
2.97713e-08
3.08291e-08
3.08291e-08
2.98453e-08
2.98453e-08
3.09032e-08
2.97713e-08
3.08291e-08
3.08291e-08
2.98453e-08
2.98453e-08
3.08291e-08
2.98453e-08
2.98453e-08
3.09032e-08
2.97713e-08
3.08291e-08
2.98453e-08
2.98453e-08
2.97712e-08
2.95916e-08
2.84596e-08
2.95174e-08
2.95174e-08
2.85337e-08
2.85337e-08
2.95916e-08
2.84596e-08
2.95174e-08
2.95174e-08
2.85337e-08
2.85337e-08
2.95174e-08
2.85337e-08
2.85337e-08
2.95916e-08
2.84596e-08
2.95174e-08
2.85337e-08
2.85337e-08
2.84596e-08
2.828e-08
2.7148e-08
2.82058e-08
2.82058e-08
2.72221e-08
2.72221e-08
2.82799e-08
2.7148e-08
2.82058e-08
2.82058e-08
2.72221e-08
2.72221e-08
2.82058e-08
2.72221e-08
2.72221e-08
2.828e-08
2.7148e-08
2.82058e-08
2.72221e-08
2.72221e-08
2.7148e-08
2.69683e-08
2.58364e-08
2.68942e-08
2.68942e-08
2.59105e-08
2.59105e-08
2.69683e-08
2.58364e-08
2.68942e-08
2.68942e-08
2.59105e-08
2.59105e-08
2.68942e-08
2.59105e-08
2.59105e-08
2.69683e-08
2.58364e-08
2.68942e-08
2.59105e-08
2.59105e-08
2.58364e-08
2.56567e-08
2.45248e-08
2.55826e-08
2.55826e-08
2.45988e-08
2.45988e-08
2.56567e-08
2.45248e-08
2.55826e-08
2.55826e-08
2.45988e-08
2.45988e-08
2.55826e-08
2.45988e-08
2.45988e-08
2.56567e-08
2.45248e-08
2.55826e-08
2.45988e-08
2.45988e-08
2.45247e-08
2.43451e-08
2.32131e-08
2.42709e-08
2.42709e-08
2.32872e-08
2.32872e-08
2.43451e-08
2.32131e-08
2.42709e-08
2.42709e-08
2.32872e-08
2.32872e-08
2.42709e-08
2.32872e-08
2.32872e-08
2.43451e-08
2.32131e-08
2.42709e-08
2.32872e-08
2.32872e-08
2.32131e-08
2.30334e-08
2.19015e-08
2.29593e-08
2.29593e-08
2.19756e-08
2.19756e-08
2.30334e-08
2.19015e-08
2.29593e-08
2.29593e-08
2.19756e-08
2.19756e-08
2.29593e-08
2.19756e-08
2.19756e-08
2.30335e-08
2.19015e-08
2.29593e-08
2.19756e-08
2.19756e-08
2.19015e-08
2.17218e-08
2.05899e-08
2.16477e-08
2.16477e-08
2.0664e-08
2.0664e-08
2.17218e-08
2.05899e-08
2.16477e-08
2.16477e-08
2.0664e-08
2.0664e-08
2.16477e-08
2.0664e-08
2.0664e-08
2.17218e-08
2.05899e-08
2.16477e-08
2.0664e-08
2.0664e-08
2.05899e-08
2.04102e-08
1.92783e-08
2.03361e-08
2.03361e-08
1.93524e-08
1.93524e-08
2.04102e-08
1.92783e-08
2.03361e-08
2.03361e-08
1.93524e-08
1.93524e-08
2.03361e-08
1.93524e-08
1.93524e-08
2.04102e-08
1.92783e-08
2.03361e-08
1.93524e-08
1.93524e-08
1.92783e-08
1.90986e-08
1.79667e-08
1.90245e-08
1.90245e-08
1.80407e-08
1.80407e-08
1.90986e-08
1.79667e-08
1.90245e-08
1.90245e-08
1.80407e-08
1.80407e-08
1.90245e-08
1.80407e-08
1.80408e-08
1.90986e-08
1.79667e-08
1.90245e-08
1.80407e-08
1.80407e-08
1.79667e-08
1.7787e-08
1.66551e-08
1.77128e-08
1.77128e-08
1.67291e-08
1.67291e-08
1.7787e-08
1.66551e-08
1.77128e-08
1.77128e-08
1.67291e-08
1.67291e-08
1.77128e-08
1.67291e-08
1.67291e-08
1.7787e-08
1.66551e-08
1.77128e-08
1.67291e-08
1.67291e-08
1.6655e-08
1.64754e-08
1.53434e-08
1.64012e-08
1.64012e-08
1.54175e-08
1.54175e-08
1.64754e-08
1.53434e-08
1.64012e-08
1.64012e-08
1.54175e-08
1.54175e-08
1.64012e-08
1.54175e-08
1.54175e-08
1.64754e-08
1.53434e-08
1.64012e-08
1.54175e-08
1.54175e-08
1.53434e-08
1.51638e-08
1.40318e-08
1.50896e-08
1.50896e-08
1.41059e-08
1.41059e-08
1.51637e-08
1.40318e-08
1.50896e-08
1.50896e-08
1.41059e-08
1.41059e-08
1.50896e-08
1.41059e-08
1.41059e-08
1.51638e-08
1.40318e-08
1.50896e-08
1.41059e-08
1.41059e-08
1.40318e-08
1.38521e-08
1.27202e-08
1.3778e-08
1.3778e-08
1.27942e-08
1.27942e-08
1.38521e-08
1.27202e-08
1.3778e-08
1.3778e-08
1.27942e-08
1.27942e-08
1.3778e-08
1.27942e-08
1.27942e-08
1.38521e-08
1.27202e-08
1.3778e-08
1.27942e-08
1.27942e-08
1.27202e-08
1.25405e-08
1.14085e-08
1.24663e-08
1.24663e-08
1.14826e-08
1.14826e-08
1.25405e-08
1.14085e-08
1.24663e-08
1.24663e-08
1.14826e-08
1.14826e-08
1.24663e-08
1.14826e-08
1.14826e-08
1.25405e-08
1.14085e-08
1.24663e-08
1.14826e-08
1.14826e-08
1.14085e-08
1.12288e-08
1.00969e-08
1.11547e-08
1.11547e-08
1.01709e-08
1.01709e-08
1.12288e-08
1.00969e-08
1.11547e-08
1.11547e-08
1.01709e-08
1.01709e-08
1.11547e-08
1.01709e-08
1.01709e-08
1.12288e-08
1.00968e-08
1.11547e-08
1.01709e-08
1.01709e-08
1.00968e-08
9.91716e-09
8.78518e-09
9.84301e-09
9.84301e-09
8.85925e-09
8.85925e-09
9.91715e-09
8.78518e-09
9.84301e-09
9.84301e-09
8.85925e-09
8.85925e-09
9.843e-09
8.85925e-09
8.85925e-09
9.91716e-09
8.78517e-09
9.843e-09
8.85925e-09
8.85925e-09
8.78516e-09
8.60547e-09
7.47349e-09
8.53133e-09
8.53133e-09
7.54756e-09
7.54757e-09
8.60548e-09
7.4735e-09
8.53133e-09
8.53133e-09
7.54756e-09
7.54757e-09
8.53134e-09
7.54757e-09
7.54758e-09
8.60549e-09
7.47349e-09
8.53134e-09
7.54757e-09
7.54758e-09
7.4735e-09
7.29379e-09
6.16182e-09
7.21965e-09
7.21966e-09
6.23589e-09
6.23589e-09
7.2938e-09
6.16182e-09
7.21965e-09
7.21966e-09
6.23589e-09
6.23589e-09
7.21968e-09
6.23589e-09
6.23589e-09
7.29381e-09
6.16181e-09
7.21967e-09
6.23589e-09
6.23589e-09
6.1618e-09
5.98213e-09
4.85016e-09
5.90801e-09
5.908e-09
4.92422e-09
4.9242e-09
5.98212e-09
4.85013e-09
5.90801e-09
5.90801e-09
4.92422e-09
4.92421e-09
5.908e-09
4.92419e-09
4.92418e-09
5.98214e-09
4.85013e-09
5.908e-09
4.9242e-09
4.92418e-09
4.85008e-09
4.67049e-09
3.53848e-09
4.59639e-09
4.59637e-09
3.61251e-09
3.6125e-09
4.67046e-09
3.53845e-09
4.59639e-09
4.59638e-09
3.61252e-09
3.6125e-09
4.59634e-09
3.61249e-09
3.61247e-09
4.67047e-09
3.53844e-09
4.59634e-09
3.61249e-09
3.61247e-09
3.53841e-09
3.35888e-09
2.22782e-09
3.28471e-09
3.2847e-09
2.30059e-09
2.30059e-09
3.35886e-09
2.22784e-09
3.28472e-09
3.2847e-09
2.30058e-09
2.30055e-09
3.28469e-09
2.3006e-09
2.30059e-09
3.35886e-09
2.2278e-09
3.28468e-09
2.30056e-09
2.30059e-09
2.22782e-09
2.04848e-09
8.8035e-10
1.97291e-09
1.97291e-09
1.03668e-09
1.03672e-09
2.04849e-09
8.80447e-10
1.9729e-09
1.97286e-09
1.03684e-09
1.03664e-09
1.97292e-09
1.03691e-09
1.0368e-09
2.04846e-09
8.80365e-10
1.97292e-09
1.0368e-09
1.03697e-09
8.80549e-10
6.74475e-10
7.41573e-10
7.4156e-10
6.7459e-10
7.41642e-10
7.41487e-10
6.72869e-10
6.7283e-10
6.72912e-10
7.41697e-10
6.74519e-10
7.4176e-10
1.29405e-07
1.30015e-07
1.29688e-07
1.29688e-07
1.31416e-07
1.30273e-07
1.32802e-07
1.29909e-07
1.31416e-07
1.30273e-07
1.29909e-07
1.32802e-07
1.3057e-07
1.33236e-07
1.33236e-07
1.2677e-07
1.28022e-07
1.28037e-07
1.26732e-07
1.2796e-07
1.26716e-07
1.2677e-07
1.28022e-07
1.28037e-07
1.26732e-07
1.28072e-07
1.28072e-07
1.28072e-07
1.25793e-07
1.25793e-07
1.25793e-07
1.25793e-07
1.26831e-07
1.28077e-07
1.28049e-07
1.27146e-07
1.28112e-07
1.26781e-07
1.27197e-07
1.2796e-07
1.26716e-07
1.26831e-07
1.28049e-07
1.28077e-07
1.27146e-07
1.28112e-07
1.27197e-07
1.26781e-07
1.28093e-07
1.28093e-07
1.26951e-07
1.26765e-07
1.26765e-07
1.24334e-07
1.25141e-07
1.25161e-07
1.2432e-07
1.25135e-07
1.24316e-07
1.24334e-07
1.25141e-07
1.25161e-07
1.2432e-07
1.25161e-07
1.25161e-07
1.25161e-07
1.23502e-07
1.23502e-07
1.23502e-07
1.23502e-07
1.24351e-07
1.25158e-07