/*--------------------------------*- C++ -*----------------------------------*\
| =========                 |                                                 |
| \\      /  F ield         | OpenFOAM: The Open Source CFD Toolbox           |
|  \\    /   O peration     | Version:  v2006                                 |
|   \\  /    A nd           | Website:  www.openfoam.com                      |
|    \\/     M anipulation  |                                                 |
\*---------------------------------------------------------------------------*/
FoamFile
{
    version     2.0;
    format      ascii;
    class       volScalarField;
    location    "375";
    object      k;
}
// * * * * * * * * * * * * * * * * * * * * * * * * * * * * * * * * * * * * * //

dimensions      [0 2 -2 0 0 0 0];


internalField   nonuniform List<scalar> 
14374
(
4.76624e-05
4.76638e-05
4.91924e-05
4.76671e-05
4.76627e-05
4.91903e-05
3.79816e-05
3.79814e-05
7.26236e-05
6.11423e-05
6.11389e-05
7.26225e-05
7.09469e-05
6.71814e-05
6.7178e-05
7.09458e-05
4.36809e-05
6.11447e-05
5.59755e-05
4.36788e-05
6.11411e-05
5.59734e-05
7.26271e-05
6.50275e-05
7.26244e-05
6.50252e-05
6.71725e-05
6.71783e-05
7.09449e-05
7.09473e-05
7.25622e-05
7.25611e-05
7.08819e-05
7.06318e-05
6.09451e-05
6.72227e-05
7.22928e-05
6.11213e-05
7.22375e-05
7.04982e-05
7.05873e-05
6.09406e-05
6.72191e-05
7.22853e-05
7.22301e-05
6.11171e-05
7.04536e-05
9.22486e-05
7.31916e-05
7.31974e-05
7.31395e-05
7.31454e-05
9.22133e-05
7.08807e-05
7.14322e-05
7.25659e-05
7.74541e-05
7.75489e-05
7.15324e-05
7.14988e-05
6.50608e-05
6.83092e-05
7.13175e-05
6.83577e-05
7.12859e-05
7.15545e-05
7.14326e-05
7.25629e-05
7.74359e-05
7.753e-05
7.15325e-05
7.14981e-05
6.50588e-05
6.83026e-05
7.13172e-05
6.83509e-05
7.12856e-05
7.15538e-05
7.05914e-05
6.09378e-05
6.72138e-05
7.22849e-05
7.04563e-05
6.11147e-05
7.22299e-05
7.06264e-05
6.09429e-05
6.72194e-05
7.22912e-05
7.04925e-05
6.11197e-05
7.22357e-05
9.22474e-05
7.3196e-05
7.31922e-05
9.22118e-05
7.31437e-05
7.31403e-05
7.08799e-05
7.08822e-05
6.16559e-05
4.94956e-05
5.48908e-05
5.48929e-05
5.51411e-05
5.51435e-05
6.14637e-05
6.16551e-05
4.9494e-05
5.48891e-05
5.48903e-05
6.14618e-05
5.51398e-05
5.51414e-05
3.33278e-05
3.33272e-05
5.58377e-05
6.12534e-05
5.60568e-05
5.58354e-05
6.12505e-05
5.60546e-05
5.30043e-05
5.58412e-05
6.12555e-05
5.99757e-05
5.2762e-05
5.60594e-05
6.0119e-05
5.18792e-05
5.61154e-05
5.03509e-05
5.77766e-05
5.16018e-05
5.06196e-05
5.79104e-05
5.29984e-05
5.58382e-05
6.12524e-05
5.99671e-05
6.011e-05
5.60568e-05
5.27559e-05
5.18748e-05
5.61134e-05
5.0349e-05
5.7771e-05
5.06178e-05
5.79045e-05
5.15973e-05
4.01293e-05
5.08457e-05
5.22738e-05
4.43126e-05
5.72144e-05
5.97569e-05
5.22841e-05
5.90402e-05
5.08478e-05
5.08424e-05
5.59535e-05
5.59526e-05
5.22859e-05
5.08477e-05
5.08472e-05
5.59499e-05
5.59532e-05
5.08405e-05
5.59576e-05
5.22907e-05
5.90454e-05
5.08412e-05
5.5961e-05
5.59544e-05
5.9048e-05
5.97485e-05
5.72098e-05
5.72063e-05
5.72085e-05
5.72174e-05
5.97521e-05
5.72136e-05
7.17907e-05
7.50571e-05
6.91335e-05
7.55994e-05
7.24821e-05
7.26901e-05
7.17852e-05
7.56005e-05
4.01258e-05
4.01319e-05
4.01264e-05
4.2797e-05
4.27997e-05
4.28033e-05
4.28029e-05
6.34276e-05
6.50377e-05
4.67545e-05
5.1816e-05
6.01526e-05
6.77085e-05
4.72693e-05
7.24815e-05
7.26895e-05
6.34305e-05
5.18157e-05
4.72716e-05
6.77057e-05
7.08916e-05
7.08975e-05
5.51129e-05
7.31291e-05
7.31357e-05
7.51808e-05
7.51825e-05
7.41862e-05
4.43157e-05
4.43186e-05
4.43212e-05
7.21718e-05
5.23086e-05
7.03868e-05
6.70208e-05
7.50036e-05
7.50067e-05
7.24797e-05
7.26876e-05
7.26899e-05
7.08991e-05
5.51158e-05
7.3129e-05
7.31341e-05
7.23884e-05
7.26845e-05
7.239e-05
7.26866e-05
5.64189e-05
7.48889e-05
7.48904e-05
7.37423e-05
7.37457e-05
7.17895e-05
7.50561e-05
6.91324e-05
7.55974e-05
6.34269e-05
6.50335e-05
4.67578e-05
5.18145e-05
6.01586e-05
6.77033e-05
4.7271e-05
6.34259e-05
6.50368e-05
4.67548e-05
5.18139e-05
6.01576e-05
6.77042e-05
4.72688e-05
7.2527e-05
7.54677e-05
7.56596e-05
7.4015e-05
7.25255e-05
7.54649e-05
7.56574e-05
7.40131e-05
6.44102e-05
5.40545e-05
7.01292e-05
5.09344e-05
6.84797e-05
4.89719e-05
6.66143e-05
6.44089e-05
5.40555e-05
7.01261e-05
5.09332e-05
6.84804e-05
4.89711e-05
6.66125e-05
7.09083e-05
7.09039e-05
5.51216e-05
7.3135e-05
7.31325e-05
7.24815e-05
7.26886e-05
7.26864e-05
5.64232e-05
7.37472e-05
7.37436e-05
7.26852e-05
6.3421e-05
4.67587e-05
5.18126e-05
6.77045e-05
4.72708e-05
7.17833e-05
7.50547e-05
6.91299e-05
7.55965e-05
6.34202e-05
4.67586e-05
6.50332e-05
5.18154e-05
6.01555e-05
4.7271e-05
6.77015e-05
7.25213e-05
7.54693e-05
7.56609e-05
7.40104e-05
6.44042e-05
5.40511e-05
7.01281e-05
5.09316e-05
6.84799e-05
4.89696e-05
6.66086e-05
7.25203e-05
7.54651e-05
7.56567e-05
7.40085e-05
6.44032e-05
5.40553e-05
5.09324e-05
7.01247e-05
4.89704e-05
6.84771e-05
6.66072e-05
7.17922e-05
7.50606e-05
6.91299e-05
7.56031e-05
6.34251e-05
4.67534e-05
6.50232e-05
5.18083e-05
6.01486e-05
4.72673e-05
6.77013e-05
7.17898e-05
7.50563e-05
6.91262e-05
7.56015e-05
6.44129e-05
5.40583e-05
5.09392e-05
6.84841e-05
4.89743e-05
6.66242e-05
7.25313e-05
7.56634e-05
7.40257e-05
6.44107e-05
5.40534e-05
5.09388e-05
7.01375e-05
4.89718e-05
6.84804e-05
6.66237e-05
7.25292e-05
7.5472e-05
7.56625e-05
7.4025e-05
7.0903e-05
5.51248e-05
7.31329e-05
7.31325e-05
7.26876e-05
7.23897e-05
7.26861e-05
5.64267e-05
7.48886e-05
7.48887e-05
7.37447e-05
7.37464e-05
7.23888e-05
7.26846e-05
6.34277e-05
4.67559e-05
6.50283e-05
5.18084e-05
6.01587e-05
4.72704e-05
6.77044e-05
7.17932e-05
7.56013e-05
7.17907e-05
7.5058e-05
6.91336e-05
7.56022e-05
6.44154e-05
5.40621e-05
5.09436e-05
7.01317e-05
4.89782e-05
6.84837e-05
6.6621e-05
6.44123e-05
5.40518e-05
5.09389e-05
7.01363e-05
4.89745e-05
6.84826e-05
6.66188e-05
7.25325e-05
7.54703e-05
7.56613e-05
7.40203e-05
7.2529e-05
7.54719e-05
7.56629e-05
7.40189e-05
7.24818e-05
7.2691e-05
7.24839e-05
7.26936e-05
5.64188e-05
7.48973e-05
7.49003e-05
7.37443e-05
7.37506e-05
7.23919e-05
7.26879e-05
7.23942e-05
7.26905e-05
7.21707e-05
7.21722e-05
7.49944e-05
7.49961e-05
7.03856e-05
7.03844e-05
5.22985e-05
6.70103e-05
7.51781e-05
7.41846e-05
5.22992e-05
7.03808e-05
6.70087e-05
5.23086e-05
7.03956e-05
6.70265e-05
7.51842e-05
7.42021e-05
7.49939e-05
7.49934e-05
7.21704e-05
5.23067e-05
7.03938e-05
6.70205e-05
7.51827e-05
7.41956e-05
7.51844e-05
7.41948e-05
7.21735e-05
7.2176e-05
7.33888e-05
7.0938e-05
7.31537e-05
7.49476e-05
7.31097e-05
7.41193e-05
7.34363e-05
7.31566e-05
8.10788e-05
7.52937e-05
7.30262e-05
8.18735e-05
7.33098e-05
7.00659e-05
7.29141e-05
7.2357e-05
7.31833e-05
7.30332e-05
7.32706e-05
7.32203e-05
8.32832e-05
7.5472e-05
8.26007e-05
7.32654e-05
7.25947e-05
7.26533e-05
7.33881e-05
7.09331e-05
7.49428e-05
7.31529e-05
7.41145e-05
7.31088e-05
7.34357e-05
7.31561e-05
7.52945e-05
8.18712e-05
7.3309e-05
7.00617e-05
7.32669e-05
7.30323e-05
7.32201e-05
8.32809e-05
7.54731e-05
8.25986e-05
7.32652e-05
7.25936e-05
7.2653e-05
9.79049e-05
7.50987e-05
7.50947e-05
7.50301e-05
7.50269e-05
9.87333e-05
7.53345e-05
6.48301e-05
7.4865e-05
7.16783e-05
7.43571e-05
6.58866e-05
7.51283e-05
7.53635e-05
6.48423e-05
7.48698e-05
7.16838e-05
7.43853e-05
6.58975e-05
7.5133e-05
9.70317e-05
7.47944e-05
7.47914e-05
9.61212e-05
7.49422e-05
7.49383e-05
7.62873e-05
7.54887e-05
7.24271e-05
6.79718e-05
6.6943e-05
7.5332e-05
7.72108e-05
7.63175e-05
7.54943e-05
7.24334e-05
6.79812e-05
6.69521e-05
7.53374e-05
7.72435e-05
7.24893e-05
8.47944e-05
7.48596e-05
7.27084e-05
8.46739e-05
7.24902e-05
8.47925e-05
7.48614e-05
7.27093e-05
8.46729e-05
7.27054e-05
7.42236e-05
7.71614e-05
7.26745e-05
7.29336e-05
7.71678e-05
7.24538e-05
7.19642e-05
8.03062e-05
7.15051e-05
7.52052e-05
7.49957e-05
8.01725e-05
7.17446e-05
7.48934e-05
8.03425e-05
7.15081e-05
7.52118e-05
7.49988e-05
8.02086e-05
7.17473e-05
7.48996e-05
0.000100923
7.46465e-05
7.46431e-05
0.000100949
7.44309e-05
7.44246e-05
7.25915e-05
7.26511e-05
7.25935e-05
7.26534e-05
9.79038e-05
7.50944e-05
7.50915e-05
7.50274e-05
7.50248e-05
9.87277e-05
7.53395e-05
6.48406e-05
7.48645e-05
7.16827e-05
7.43625e-05
7.51263e-05
6.58952e-05
7.53623e-05
6.48467e-05
7.16865e-05
7.51293e-05
6.59005e-05
9.7036e-05
7.49389e-05
7.49366e-05
7.62862e-05
7.54849e-05
7.24292e-05
6.79736e-05
7.53292e-05
7.72098e-05
6.69468e-05
7.63123e-05
7.54893e-05
7.24347e-05
6.79798e-05
7.53332e-05
7.72391e-05
6.69527e-05
7.25231e-05
7.26506e-05
7.25247e-05
7.26526e-05
0.000100063
7.51075e-05
7.51042e-05
9.94499e-05
7.50962e-05
7.50927e-05
7.93945e-05
7.10849e-05
7.46393e-05
7.54708e-05
7.55814e-05
7.05046e-05
7.98641e-05
7.94265e-05
7.10864e-05
7.46407e-05
7.54754e-05
7.5586e-05
7.05069e-05
7.98964e-05
7.87894e-05
7.55707e-05
6.89278e-05
7.42559e-05
7.80418e-05
7.56001e-05
6.97846e-05
7.88212e-05
7.55753e-05
6.89331e-05
7.42581e-05
7.80728e-05
7.56047e-05
6.97885e-05
0.000100521
7.48686e-05
7.48642e-05
7.50012e-05
7.4997e-05
0.000100815
7.33881e-05
7.09368e-05
7.31533e-05
7.49431e-05
7.31094e-05
7.41151e-05
7.34355e-05
7.31567e-05
8.10658e-05
7.52924e-05
7.30267e-05
8.186e-05
7.33091e-05
7.00648e-05
7.29138e-05
7.23533e-05
7.30329e-05
7.31827e-05
7.32669e-05
7.32204e-05
8.32679e-05
7.54704e-05
8.25863e-05
7.32652e-05
7.3419e-05
7.31597e-05
7.56531e-05
7.31766e-05
7.34421e-05
7.3138e-05
7.62699e-05
7.30889e-05
7.56295e-05
8.47694e-05
7.29546e-05
8.46046e-05
7.32265e-05
8.38456e-05
7.56702e-05
7.3261e-05
8.43039e-05
7.33053e-05
7.36634e-05
7.2878e-05
7.70307e-05
7.31498e-05
7.30315e-05
7.6719e-05
7.3418e-05
7.31594e-05
7.56479e-05
7.31749e-05
7.34412e-05
7.31376e-05
7.62642e-05
7.30887e-05
7.56269e-05
8.47514e-05
8.45869e-05
7.29539e-05
7.32262e-05
8.38294e-05
7.56678e-05
7.32608e-05
8.42868e-05
7.33042e-05
7.36615e-05
7.28777e-05
7.70241e-05
7.30312e-05
7.67127e-05
7.31488e-05
9.79129e-05
7.50898e-05
7.50968e-05
7.50234e-05
7.50305e-05
9.87342e-05
7.53808e-05
6.48547e-05
7.48717e-05
7.16906e-05
7.51334e-05
7.44056e-05
6.59065e-05
7.5336e-05
6.48489e-05
7.48644e-05
7.16879e-05
6.59032e-05
7.43586e-05
7.51258e-05
9.70487e-05
7.47906e-05
7.47978e-05
7.4936e-05
9.61418e-05
7.49429e-05
7.63296e-05
7.54913e-05
7.24379e-05
6.79833e-05
7.53359e-05
6.6959e-05
7.72511e-05
7.62838e-05
7.54838e-05
7.24339e-05
6.79805e-05
6.69538e-05
7.53286e-05
7.72074e-05
7.2593e-05
7.26525e-05
7.26526e-05
0.000100064
7.51022e-05
7.51094e-05
9.9453e-05
7.50907e-05
7.50977e-05
7.88285e-05
7.55766e-05
6.89366e-05
7.42585e-05
6.97908e-05
7.80841e-05
7.56058e-05
7.87852e-05
7.55693e-05
6.89323e-05
7.42557e-05
7.80393e-05
7.55982e-05
6.97885e-05
7.26509e-05
7.33866e-05
7.09324e-05
7.31525e-05
7.49369e-05
7.31082e-05
7.41103e-05
7.34344e-05
7.31551e-05
8.10607e-05
7.52911e-05
7.30247e-05
8.18541e-05
7.33079e-05
7.00598e-05
7.29125e-05
7.23503e-05
7.30319e-05
7.3181e-05
7.32616e-05
7.32186e-05
8.32619e-05
7.54693e-05
8.25803e-05
7.32638e-05
7.34186e-05
7.56476e-05
7.3159e-05
7.31709e-05
7.34415e-05
7.62647e-05
7.31375e-05
7.30894e-05
7.56309e-05
8.47672e-05
7.2955e-05
8.46019e-05
7.32267e-05
8.38429e-05
7.56714e-05
7.3261e-05
8.43012e-05
7.33052e-05
7.36582e-05
7.70262e-05
7.28781e-05
7.31505e-05
7.67137e-05
7.30318e-05
7.34173e-05
7.31585e-05
7.56428e-05
7.31689e-05
7.34401e-05
7.31371e-05
7.62588e-05
7.3088e-05
7.56265e-05
8.47478e-05
8.45827e-05
7.29539e-05
7.32251e-05
8.38239e-05
7.56673e-05
7.32594e-05
8.42819e-05
7.33037e-05
7.36568e-05
7.28779e-05
7.70203e-05
7.3031e-05
7.67085e-05
7.31494e-05
7.33912e-05
7.09378e-05
7.49495e-05
7.3157e-05
7.4121e-05
7.31126e-05
7.34392e-05
7.31594e-05
8.10816e-05
7.52973e-05
8.18742e-05
7.30274e-05
7.33122e-05
7.00631e-05
7.23556e-05
7.29161e-05
7.32691e-05
7.3185e-05
7.30357e-05
7.32219e-05
8.32864e-05
7.54758e-05
8.26056e-05
7.32678e-05
7.33905e-05
7.09348e-05
7.31566e-05
7.49429e-05
7.31121e-05
7.41119e-05
7.34385e-05
7.3158e-05
8.10563e-05
7.52939e-05
7.30272e-05
8.1853e-05
7.33108e-05
7.00598e-05
7.29155e-05
7.23449e-05
7.31838e-05
7.30351e-05
7.32603e-05
7.32225e-05
8.32678e-05
7.54733e-05
8.25826e-05
7.3268e-05
7.34222e-05
7.5658e-05
7.31632e-05
7.31829e-05
7.3445e-05
7.62754e-05
7.31418e-05
7.32288e-05
8.3852e-05
7.56738e-05
7.32628e-05
8.43093e-05
7.33084e-05
7.36723e-05
7.70391e-05
7.2882e-05
7.67268e-05
7.30358e-05
7.31535e-05
7.34218e-05
7.31629e-05
7.56515e-05
7.31813e-05
7.34446e-05
7.31415e-05
7.62712e-05
7.30927e-05
7.56331e-05
8.47639e-05
8.45973e-05
7.29574e-05
7.32299e-05
8.38331e-05
7.56734e-05
7.3264e-05
8.4294e-05
7.33088e-05
7.36711e-05
7.28817e-05
7.70372e-05
7.30358e-05
7.67232e-05
7.3153e-05
9.79071e-05
7.50891e-05
7.50953e-05
7.50228e-05
7.50289e-05
9.87324e-05
6.48525e-05
7.16877e-05
6.59059e-05
7.63247e-05
7.54915e-05
7.2434e-05
6.79826e-05
7.53377e-05
6.69566e-05
7.72486e-05
7.628e-05
7.54839e-05
7.2431e-05
6.7978e-05
6.69533e-05
7.53292e-05
7.72048e-05
7.26514e-05
7.25243e-05
7.26521e-05
0.000100068
7.51022e-05
7.51085e-05
9.94563e-05
7.50911e-05
7.50975e-05
7.9436e-05
7.10879e-05
7.46395e-05
7.54755e-05
7.0509e-05
7.55867e-05
7.99029e-05
7.93934e-05
7.10877e-05
7.46403e-05
7.54696e-05
7.558e-05
7.05095e-05
7.98614e-05
7.88311e-05
7.55765e-05
6.89356e-05
7.42568e-05
6.97909e-05
7.80844e-05
7.56055e-05
7.87888e-05
7.55693e-05
6.89334e-05
7.42589e-05
7.80401e-05
7.55987e-05
6.97901e-05
0.000100524
7.48628e-05
7.48695e-05
7.49961e-05
7.50028e-05
0.000100816
7.25242e-05
7.26515e-05
7.33895e-05
7.09392e-05
7.49479e-05
7.31548e-05
7.41185e-05
7.31111e-05
7.34368e-05
7.32194e-05
8.32845e-05
7.54749e-05
8.26015e-05
7.3265e-05
7.33898e-05
7.0938e-05
7.49428e-05
7.31554e-05
7.41139e-05
7.3111e-05
7.34377e-05
7.31584e-05
8.10613e-05
7.52952e-05
7.30277e-05
8.18565e-05
7.33107e-05
7.00646e-05
7.235e-05
7.29151e-05
7.31836e-05
7.32633e-05
7.30347e-05
7.32225e-05
8.32689e-05
7.54742e-05
8.25853e-05
7.32679e-05
7.34205e-05
7.56573e-05
7.3161e-05
7.31826e-05
7.34427e-05
7.62739e-05
7.31397e-05
7.30906e-05
7.56315e-05
8.47709e-05
8.46075e-05
7.29574e-05
7.32274e-05
8.38504e-05
7.56719e-05
7.32604e-05
8.43063e-05
7.33076e-05
7.36694e-05
7.70338e-05
7.28801e-05
7.67232e-05
7.30343e-05
7.31524e-05
7.34208e-05
7.56504e-05
7.31614e-05
7.31787e-05
7.34435e-05
7.6268e-05
7.31399e-05
7.30923e-05
7.56332e-05
8.47606e-05
8.45949e-05
7.29575e-05
7.32295e-05
8.38332e-05
7.56736e-05
7.32637e-05
8.42926e-05
7.33071e-05
7.36669e-05
7.70314e-05
7.28802e-05
7.67188e-05
7.30337e-05
7.31524e-05
7.25942e-05
7.26541e-05
7.25964e-05
7.26566e-05
0.000100076
7.51112e-05
7.51077e-05
9.94596e-05
7.5101e-05
7.50967e-05
7.94046e-05
7.10939e-05
7.46458e-05
7.54763e-05
7.9875e-05
7.05117e-05
7.55863e-05
7.94409e-05
7.10981e-05
7.46496e-05
7.54824e-05
7.9911e-05
7.05171e-05
7.55925e-05
7.87952e-05
7.5575e-05
6.89297e-05
7.42603e-05
7.80473e-05
6.97883e-05
7.56048e-05
7.88312e-05
7.5581e-05
6.89381e-05
7.42651e-05
7.80823e-05
6.97959e-05
7.56108e-05
0.000100537
7.48754e-05
7.48688e-05
0.000100832
7.50052e-05
7.50014e-05
7.25268e-05
7.26543e-05
7.25292e-05
7.26568e-05
7.1963e-05
7.19646e-05
8.02921e-05
7.1494e-05
7.52004e-05
7.49859e-05
8.01589e-05
7.48892e-05
7.17318e-05
8.03254e-05
7.14952e-05
7.52048e-05
7.49877e-05
8.01916e-05
7.48936e-05
7.17329e-05
0.000100904
7.46445e-05
7.46399e-05
0.00010093
7.44261e-05
7.44214e-05
7.24893e-05
8.47732e-05
7.48575e-05
7.27077e-05
8.46535e-05
7.27045e-05
7.42217e-05
7.26736e-05
7.71557e-05
7.24536e-05
7.29319e-05
7.71619e-05
7.24915e-05
8.47899e-05
7.48624e-05
7.27115e-05
8.46708e-05
7.27068e-05
7.42397e-05
7.26775e-05
7.71738e-05
7.2936e-05
7.24561e-05
7.71804e-05
8.03292e-05
7.14958e-05
7.52045e-05
7.49852e-05
7.48924e-05
8.01971e-05
7.17326e-05
8.02877e-05
7.14953e-05
7.51987e-05
7.49846e-05
7.17318e-05
8.01551e-05
7.48869e-05
0.000100904
7.46381e-05
7.46448e-05
7.44198e-05
0.000100931
7.44265e-05
7.19628e-05
7.2491e-05
8.4796e-05
7.4861e-05
8.46747e-05
7.27076e-05
7.2706e-05
7.42319e-05
7.71688e-05
7.26755e-05
7.71743e-05
7.29341e-05
7.24543e-05
7.2492e-05
8.47864e-05
7.48629e-05
7.27115e-05
8.46669e-05
7.27065e-05
7.42317e-05
7.71673e-05
7.26754e-05
7.29346e-05
7.71735e-05
7.24548e-05
7.19655e-05
7.19679e-05
3.42983e-05
3.42975e-05
4.03011e-05
3.43374e-05
3.43365e-05
2.68276e-05
2.68482e-05
6.63071e-05
5.83137e-05
5.83204e-05
5.29439e-05
6.52311e-05
5.92712e-05
5.92771e-05
3.70353e-05
3.7032e-05
2.76022e-05
7.25973e-05
6.57261e-05
6.57269e-05
6.01486e-05
7.22951e-05
6.60968e-05
6.60973e-05
6.63128e-05
5.83245e-05
5.83303e-05
5.29523e-05
6.52379e-05
5.92798e-05
5.92845e-05
7.11751e-05
5.83735e-05
6.51335e-05
6.51347e-05
6.4461e-05
6.44629e-05
7.18079e-05
6.63209e-05
5.83344e-05
5.8336e-05
5.29564e-05
5.929e-05
6.52472e-05
5.9288e-05
5.83342e-05
5.29613e-05
5.92896e-05
7.1181e-05
5.83794e-05
6.51364e-05
6.51411e-05
6.44651e-05
6.44705e-05
7.18117e-05
7.11851e-05
5.83784e-05
6.51419e-05
6.51436e-05
7.18184e-05
6.44673e-05
6.44696e-05
7.25832e-05
6.57161e-05
6.57169e-05
6.01374e-05
7.22814e-05
6.60847e-05
6.60851e-05
7.25838e-05
6.57173e-05
6.57216e-05
6.014e-05
6.60883e-05
7.22836e-05
6.60847e-05
3.42966e-05
3.4295e-05
4.02986e-05
3.43358e-05
3.43343e-05
2.68267e-05
2.68472e-05
3.43001e-05
3.43004e-05
4.03044e-05
3.43393e-05
3.43398e-05
2.683e-05
2.68505e-05
3.42974e-05
3.42979e-05
4.02992e-05
3.43368e-05
3.43373e-05
2.6829e-05
2.68493e-05
4.10571e-05
3.55102e-05
3.55072e-05
3.4591e-05
3.45896e-05
2.68531e-05
2.70162e-05
4.10578e-05
3.55104e-05
3.5511e-05
3.45899e-05
3.4589e-05
2.68523e-05
2.7016e-05
4.10626e-05
3.55127e-05
3.55148e-05
3.4593e-05
3.45941e-05
2.68555e-05
2.7019e-05
4.10585e-05
3.55157e-05
3.55134e-05
3.45919e-05
3.45918e-05
2.68547e-05
2.70188e-05
5.73379e-05
6.23547e-05
6.52364e-05
5.69463e-05
6.4178e-05
5.5975e-05
5.82905e-05
5.74317e-05
5.96229e-05
6.41795e-05
6.5957e-05
5.64921e-05
6.05723e-05
6.52437e-05
5.61428e-05
6.12621e-05
6.19995e-05
5.38976e-05
5.52442e-05
6.31015e-05
5.47992e-05
5.86228e-05
6.72905e-05
6.68479e-05
6.26772e-05
6.16872e-05
6.62851e-05
5.96158e-05
5.73423e-05
6.23609e-05
5.69525e-05
6.52348e-05
5.59849e-05
6.41793e-05
5.82906e-05
5.8624e-05
6.72875e-05
6.68456e-05
6.26751e-05
6.16882e-05
6.62844e-05
5.96144e-05
6.74137e-05
5.41795e-05
6.14786e-05
6.14835e-05
6.0443e-05
6.04479e-05
6.84801e-05
3.70362e-05
3.70379e-05
2.76037e-05
3.7038e-05
3.704e-05
2.76063e-05
3.70435e-05
3.70402e-05
2.76077e-05
6.39766e-05
6.64967e-05
7.0499e-05
7.04953e-05
6.36794e-05
6.6781e-05
7.06431e-05
6.28121e-05
6.72399e-05
6.12311e-05
6.87039e-05
6.25024e-05
6.15673e-05
6.88972e-05
6.74143e-05
5.41853e-05
6.14811e-05
6.14852e-05
6.84799e-05
6.04478e-05
6.04521e-05
7.03939e-05
5.73161e-05
6.26277e-05
6.26313e-05
6.94907e-05
6.35542e-05
6.35571e-05
5.73378e-05
6.23568e-05
6.52343e-05
5.69463e-05
6.41775e-05
5.59777e-05
5.8289e-05
5.74299e-05
5.96164e-05
6.41782e-05
6.59523e-05
6.52415e-05
5.64905e-05
6.05657e-05
5.61441e-05
6.12657e-05
6.20022e-05
5.3904e-05
6.31028e-05
5.52468e-05
5.48031e-05
5.862e-05
6.72864e-05
6.6843e-05
6.26702e-05
6.6282e-05
6.16808e-05
5.96124e-05
5.73358e-05
6.23556e-05
6.52314e-05
5.69452e-05
6.41741e-05
5.59766e-05
5.82869e-05
5.74287e-05
5.96211e-05
6.41745e-05
6.59542e-05
5.64897e-05
6.52386e-05
6.05692e-05
5.61423e-05
6.12647e-05
6.19991e-05
5.39028e-05
5.5245e-05
6.31004e-05
5.48018e-05
5.86184e-05
6.72824e-05
6.68456e-05
6.2673e-05
6.62775e-05
5.96108e-05
6.16847e-05
6.0334e-05
6.61946e-05
5.81191e-05
6.52959e-05
5.94655e-05
6.70602e-05
5.90172e-05
6.25189e-05
6.60024e-05
6.97126e-05
7.01727e-05
6.54041e-05
6.96667e-05
6.31336e-05
6.16309e-05
6.82017e-05
6.37309e-05
6.91637e-05
6.45891e-05
6.07547e-05
6.90078e-05
6.12795e-05
6.60281e-05
6.83279e-05
6.0619e-05
6.77657e-05
5.99659e-05
6.19026e-05
6.03313e-05
6.61905e-05
5.81179e-05
6.52945e-05
5.94631e-05
6.70563e-05
5.90158e-05
6.25151e-05
6.60003e-05
6.97108e-05
7.01655e-05
6.96595e-05
6.54037e-05
6.31291e-05
6.16282e-05
6.81961e-05
6.37333e-05
6.91626e-05
6.07525e-05
6.90024e-05
6.45898e-05
6.12763e-05
6.60264e-05
6.83229e-05
6.06173e-05
6.77607e-05
5.99644e-05
6.1899e-05
6.7422e-05
5.41906e-05
6.14881e-05
6.149e-05
6.04572e-05
6.04559e-05
6.84853e-05
7.03967e-05
5.7321e-05
6.26332e-05
6.26346e-05
6.35589e-05
6.9496e-05
6.35609e-05
5.73347e-05
6.23519e-05
6.52295e-05
5.6942e-05
6.41729e-05
5.59742e-05
5.82849e-05
5.74286e-05
5.96195e-05
6.59523e-05
6.524e-05
5.64904e-05
6.0568e-05
5.61417e-05
6.12617e-05
5.39033e-05
6.30994e-05
5.52463e-05
5.48011e-05
5.86178e-05
6.72849e-05
6.6844e-05
6.26722e-05
6.62798e-05
6.16826e-05
5.96097e-05
5.73331e-05
6.23512e-05
5.69414e-05
6.52257e-05
5.59732e-05
6.41704e-05
5.82833e-05
5.74265e-05
5.96194e-05
6.4172e-05
6.59515e-05
5.64888e-05
6.5234e-05
6.05675e-05
5.61405e-05
6.12608e-05
5.39025e-05
6.19975e-05
5.5245e-05
5.48003e-05
6.3096e-05
5.8616e-05
6.72772e-05
6.68417e-05
6.26709e-05
6.62738e-05
5.96073e-05
6.16821e-05
6.03292e-05
6.61892e-05
5.8114e-05
6.52896e-05
5.94613e-05
6.70548e-05
5.9012e-05
6.25154e-05
6.60019e-05
6.97115e-05
7.01698e-05
6.54041e-05
6.96631e-05
6.31299e-05
6.16276e-05
6.81986e-05
6.37324e-05
6.91634e-05
6.45901e-05
6.07517e-05
6.90054e-05
6.1275e-05
6.60222e-05
6.83228e-05
6.0614e-05
6.77601e-05
5.99606e-05
6.18979e-05
6.03271e-05
5.8113e-05
6.61859e-05
6.52884e-05
5.94592e-05
5.90111e-05
6.70506e-05
6.25125e-05
6.59996e-05
6.97085e-05
7.01619e-05
6.9656e-05
6.54023e-05
6.31266e-05
6.16248e-05
6.8192e-05
6.37311e-05
6.91604e-05
6.07495e-05
6.89975e-05
6.45882e-05
6.12725e-05
6.60208e-05
6.0613e-05
6.83184e-05
5.99594e-05
6.77564e-05
6.18953e-05
5.73293e-05
6.23515e-05
5.69436e-05
6.52294e-05
5.59716e-05
6.41689e-05
5.8284e-05
5.74176e-05
5.96052e-05
6.41619e-05
6.59445e-05
6.05562e-05
5.64755e-05
6.52287e-05
5.6134e-05
6.12585e-05
5.38938e-05
6.19883e-05
5.47956e-05
5.52337e-05
6.3092e-05
5.86102e-05
6.72796e-05
6.68382e-05
6.26666e-05
6.16747e-05
6.62712e-05
5.96059e-05
6.03385e-05
6.61984e-05
5.81208e-05
6.53015e-05
5.94687e-05
6.70656e-05
5.90215e-05
6.16359e-05
6.82062e-05
6.37368e-05
6.91685e-05
6.07595e-05
6.45958e-05
6.90141e-05
6.12855e-05
6.60356e-05
6.83361e-05
6.06272e-05
6.19097e-05
6.77726e-05
5.9972e-05
6.03348e-05
5.81182e-05
6.61923e-05
6.52999e-05
5.94628e-05
5.90196e-05
6.70617e-05
6.2522e-05
6.60099e-05
6.97186e-05
7.0178e-05
6.96687e-05
6.54095e-05
6.31395e-05
6.1631e-05
6.81973e-05
6.37308e-05
6.91673e-05
6.07514e-05
6.90075e-05
6.45914e-05
6.12828e-05
6.60344e-05
6.06265e-05
6.83351e-05
5.99705e-05
6.77698e-05
6.19087e-05
6.74215e-05
5.41947e-05
6.14891e-05
6.14929e-05
6.04621e-05
6.04567e-05
6.84852e-05
7.04003e-05
5.73234e-05
6.26344e-05
6.26388e-05
6.35601e-05
6.94967e-05
6.35648e-05
5.73332e-05
6.23573e-05
5.69486e-05
6.52302e-05
5.5979e-05
6.41719e-05
5.8286e-05
5.74225e-05
5.96118e-05
6.41675e-05
6.59489e-05
6.05622e-05
5.64821e-05
6.5233e-05
5.61386e-05
6.12661e-05
5.39033e-05
6.19947e-05
5.48043e-05
5.52403e-05
6.30961e-05
5.86138e-05
6.72812e-05
6.68416e-05
6.2671e-05
6.16793e-05
6.6274e-05
5.9608e-05
6.03374e-05
5.8125e-05
6.61977e-05
6.53029e-05
5.94675e-05
5.90244e-05
6.70647e-05
6.25232e-05
6.60073e-05
6.97162e-05
7.01762e-05
6.31372e-05
6.54102e-05
6.96711e-05
6.16344e-05
6.82054e-05
6.37365e-05
6.91682e-05
6.07572e-05
6.45952e-05
6.90122e-05
6.12842e-05
6.60353e-05
6.06267e-05
6.83324e-05
6.1907e-05
5.99733e-05
6.77707e-05
6.03342e-05
5.81215e-05
6.61921e-05
6.52989e-05
5.94639e-05
5.90207e-05
6.70593e-05
6.25199e-05
6.60099e-05
6.97184e-05
7.01743e-05
6.9666e-05
6.54104e-05
6.31362e-05
6.16304e-05
6.81975e-05
6.3734e-05
6.91683e-05
6.07523e-05
6.90064e-05
6.45941e-05
6.12809e-05
6.60322e-05
6.06241e-05
6.83297e-05
5.997e-05
6.77661e-05
6.19053e-05
7.03998e-05
5.73191e-05
6.26287e-05
6.26328e-05
6.94955e-05
6.35577e-05
6.35613e-05
6.39736e-05
6.64935e-05
7.04966e-05
7.04942e-05
7.06407e-05
6.36759e-05
6.67783e-05
6.397e-05
6.64926e-05
7.04934e-05
7.04932e-05
7.06382e-05
6.36722e-05
6.67773e-05
6.28033e-05
6.72298e-05
6.86955e-05
6.12201e-05
6.88893e-05
6.24934e-05
6.15563e-05
6.39662e-05
6.64901e-05
7.04859e-05
7.04893e-05
6.36688e-05
7.06303e-05
6.67743e-05
6.28005e-05
6.72282e-05
6.12188e-05
6.86914e-05
6.24906e-05
6.15552e-05
6.88848e-05
6.39837e-05
6.65035e-05
7.05038e-05
7.05053e-05
6.67896e-05
6.36841e-05
7.06497e-05
6.28175e-05
6.72471e-05
6.12341e-05
6.87096e-05
6.15717e-05
6.25059e-05
6.89045e-05
6.39784e-05
6.65021e-05
7.04989e-05
7.05033e-05
6.67878e-05
6.36796e-05
7.06443e-05
6.2812e-05
6.72395e-05
6.12302e-05
6.87032e-05
6.15663e-05
6.25013e-05
6.88972e-05
7.50579e-05
6.91297e-05
7.24814e-05
7.09011e-05
6.50334e-05
6.0155e-05
8.10769e-05
7.30259e-05
7.23527e-05
7.2913e-05
7.31825e-05
7.48666e-05
7.43828e-05
7.47928e-05
7.47908e-05
9.61267e-05
6.41762e-05
6.19983e-05
7.08329e-05
5.02959e-05
6.73702e-05
6.73672e-05
7.08318e-05
5.65777e-05
4.85621e-05
4.46568e-05
6.15562e-05
6.526e-05
7.25255e-05
7.08748e-05
9.22978e-05
7.30951e-05
7.31008e-05
9.2422e-05
7.31231e-05
7.31288e-05
7.07075e-05
7.22097e-05
6.15842e-05
6.72305e-05
6.12822e-05
7.09637e-05
7.22258e-05
7.06632e-05
7.22023e-05
6.15806e-05
6.72271e-05
7.09196e-05
7.22184e-05
6.12781e-05
7.08736e-05
7.14775e-05
6.85381e-05
7.12168e-05
6.5148e-05
7.14406e-05
6.83992e-05
7.12429e-05
7.14623e-05
7.76097e-05
7.25501e-05
7.13851e-05
7.74926e-05
7.14767e-05
6.51458e-05
6.83928e-05
7.12425e-05
7.1462e-05
7.25471e-05
7.74741e-05
7.0875e-05
6.18711e-05
4.98425e-05
5.58273e-05
5.58302e-05
5.54381e-05
6.21955e-05
5.54403e-05
5.2141e-05
5.13251e-05
5.8347e-05
5.63181e-05
5.25633e-05
5.09116e-05
5.80951e-05
5.32482e-05
6.04878e-05
5.66263e-05
6.13053e-05
5.36301e-05
5.62802e-05
6.02203e-05
5.63161e-05
5.80899e-05
5.14594e-05
5.67854e-05
6.04074e-05
6.12258e-05
4.2978e-05
5.13652e-05
5.13603e-05
5.28712e-05
7.23038e-05
7.46736e-05
5.78001e-05
5.77975e-05
7.50846e-05
5.37543e-05
6.7923e-05
6.49747e-05
5.32428e-05
5.32381e-05
7.21516e-05
5.37526e-05
6.49806e-05
6.49797e-05
5.32432e-05
5.32427e-05
6.04016e-05
7.09025e-05
5.32446e-05
5.32489e-05
6.12273e-05
5.37547e-05
5.67849e-05
7.38813e-05
5.32481e-05
5.32477e-05
7.15538e-05
5.37593e-05
5.28653e-05
5.13603e-05
5.13565e-05
5.28641e-05
5.13622e-05
5.13551e-05
5.13593e-05
5.28661e-05
5.13592e-05
6.8631e-05
6.59465e-05
7.26841e-05
6.59521e-05
7.50828e-05
7.08607e-05
5.76235e-05
6.16778e-05
7.16768e-05
6.23345e-05
7.2306e-05
7.38798e-05
7.08998e-05
6.88197e-05
7.3226e-05
7.15515e-05
7.11969e-05
7.0904e-05
7.38828e-05
6.88224e-05
7.32282e-05
4.63954e-05
4.63955e-05
4.6393e-05
4.52268e-05
4.52245e-05
4.52339e-05
4.52358e-05
6.04044e-05
6.49799e-05
6.79231e-05
6.21509e-05
5.78815e-05
6.55398e-05
5.45317e-05
7.15518e-05
7.11966e-05
5.67869e-05
6.21497e-05
6.79263e-05
5.7885e-05
6.49791e-05
5.45331e-05
6.5541e-05
7.21581e-05
7.2152e-05
5.79378e-05
7.02343e-05
7.02401e-05
6.54436e-05
7.25993e-05
6.626e-05
7.25296e-05
7.08436e-05
7.08418e-05
6.54428e-05
7.26009e-05
6.62602e-05
7.25309e-05
4.29772e-05
4.29667e-05
4.29675e-05
5.69162e-05
6.27921e-05
4.76875e-05
4.9766e-05
5.83181e-05
6.16829e-05
4.59661e-05
7.08424e-05
7.08407e-05
5.691e-05
4.76792e-05
6.27908e-05
4.97775e-05
5.83146e-05
4.59795e-05
6.168e-05
6.82097e-05
6.82144e-05
5.08088e-05
6.74309e-05
6.74354e-05
7.17786e-05
6.40032e-05
6.23373e-05
7.26867e-05
7.26858e-05
7.46679e-05
7.17767e-05
7.23027e-05
6.1994e-05
6.16836e-05
5.76252e-05
6.83168e-05
6.86345e-05
7.08612e-05
6.59521e-05
5.76228e-05
6.16783e-05
7.08576e-05
6.19884e-05
6.86355e-05
6.83141e-05
6.59504e-05
7.3772e-05
7.41784e-05
7.5085e-05
7.16784e-05
7.41783e-05
7.37706e-05
7.1677e-05
7.15502e-05
7.11951e-05
7.15526e-05
7.11973e-05
7.21486e-05
7.21573e-05
6.12255e-05
5.79335e-05
7.02312e-05
7.02392e-05
7.08928e-05
7.10525e-05
7.08948e-05
7.10546e-05
5.67138e-05
6.84228e-05
6.84302e-05
6.98274e-05
6.98356e-05
7.08977e-05
7.38775e-05
6.88181e-05
7.32236e-05
6.49761e-05
6.04025e-05
5.67839e-05
6.21456e-05
5.78799e-05
6.5539e-05
5.4529e-05
6.79203e-05
6.03971e-05
5.6782e-05
6.21441e-05
5.78746e-05
6.55345e-05
5.45269e-05
6.81764e-05
7.26915e-05
7.30287e-05
6.66691e-05
6.81742e-05
7.26897e-05
7.30265e-05
6.66681e-05
6.1227e-05
5.5465e-05
6.31204e-05
4.96898e-05
6.49615e-05
5.2028e-05
5.89487e-05
6.12252e-05
5.54597e-05
6.31186e-05
4.96879e-05
6.49585e-05
5.20258e-05
5.89475e-05
6.12229e-05
7.21479e-05
5.79304e-05
7.02316e-05
7.02307e-05
7.15506e-05
7.11958e-05
7.08957e-05
7.10547e-05
5.6711e-05
6.84283e-05
6.84234e-05
6.98315e-05
6.98278e-05
7.08937e-05
7.10533e-05
6.79269e-05
6.04045e-05
5.67858e-05
6.21496e-05
5.78821e-05
6.55427e-05
5.4533e-05
7.09026e-05
7.38787e-05
6.88201e-05
7.32241e-05
5.6786e-05
6.04029e-05
6.79247e-05
6.21475e-05
5.78805e-05
5.45331e-05
6.55387e-05
6.81782e-05
7.26931e-05
7.30308e-05
6.66699e-05
6.12301e-05
5.54675e-05
6.31229e-05
4.96922e-05
6.49647e-05
5.20316e-05
5.89504e-05
6.81765e-05
7.26889e-05
7.30266e-05
6.66672e-05
6.12289e-05
5.54648e-05
4.96921e-05
6.31182e-05
5.20319e-05
6.49618e-05
5.89482e-05
7.09035e-05
7.38815e-05
6.88239e-05
7.3228e-05
5.67845e-05
6.49788e-05
6.79245e-05
6.21508e-05
5.78831e-05
5.45322e-05
6.55418e-05
7.38798e-05
6.88233e-05
7.32251e-05
6.12327e-05
5.5468e-05
6.31221e-05
4.96941e-05
6.49627e-05
5.20322e-05
5.89542e-05
6.81808e-05
7.26937e-05
7.30308e-05
6.66734e-05
6.1232e-05
5.54693e-05
4.96949e-05
6.31207e-05
5.20328e-05
6.49641e-05
5.89534e-05
6.81798e-05
7.2689e-05
7.30275e-05
6.66718e-05
7.21545e-05
7.2151e-05
5.79351e-05
7.02348e-05
7.02328e-05
7.15505e-05
7.11955e-05
7.08945e-05
7.10539e-05
5.67151e-05
6.84258e-05
6.84237e-05
6.9833e-05
6.98289e-05
7.08933e-05
7.10529e-05
6.0404e-05
6.79269e-05
6.21487e-05
5.78831e-05
6.49766e-05
5.45322e-05
6.55449e-05
6.88221e-05
7.3881e-05
7.09015e-05
7.32271e-05
6.88206e-05
7.0901e-05
7.32262e-05
6.12307e-05
5.547e-05
4.96962e-05
6.3121e-05
5.2032e-05
6.49632e-05
5.8951e-05
6.12296e-05
5.54691e-05
4.96957e-05
6.31227e-05
5.20307e-05
6.49665e-05
5.89497e-05
6.81784e-05
7.26925e-05
7.30298e-05
6.66702e-05
6.81774e-05
7.26902e-05
7.30286e-05
6.66684e-05
7.15517e-05
7.11961e-05
7.11981e-05
5.6719e-05
6.84228e-05
6.84285e-05
6.98303e-05
6.98363e-05
7.08929e-05
7.10532e-05
7.08948e-05
7.10551e-05
7.08407e-05
7.0839e-05
7.08427e-05
7.08409e-05
6.82094e-05
6.82168e-05
5.0813e-05
6.74336e-05
6.74404e-05
7.08313e-05
7.08332e-05
5.02855e-05
6.73661e-05
6.73729e-05
6.54426e-05
7.25976e-05
6.62579e-05
7.2528e-05
5.69128e-05
6.27897e-05
4.76823e-05
4.97642e-05
5.83126e-05
6.16798e-05
4.59624e-05
5.69118e-05
6.27892e-05
4.76805e-05
4.97613e-05
5.83111e-05
6.16804e-05