/*--------------------------------*- C++ -*----------------------------------*\
| =========                 |                                                 |
| \\      /  F ield         | OpenFOAM: The Open Source CFD Toolbox           |
|  \\    /   O peration     | Version:  v2006                                 |
|   \\  /    A nd           | Website:  www.openfoam.com                      |
|    \\/     M anipulation  |                                                 |
\*---------------------------------------------------------------------------*/
FoamFile
{
    version     2.0;
    format      ascii;
    class       surfaceScalarField;
    location    "375";
    object      phi;
}
// * * * * * * * * * * * * * * * * * * * * * * * * * * * * * * * * * * * * * //

dimensions      [0 3 -1 0 0 0 0];
oriented        oriented;


internalField   nonuniform List<scalar> 
41332
(
1.21291e-06
6.74222e-07
-1.28464e-06
2.01013e-07
-2.66606e-07
1.77384e-07
-2.33917e-07
-0.00113271
1.21525e-06
8.70185e-07
-1.28243e-06
1.97856e-07
-2.61477e-07
1.74825e-07
-2.36338e-07
-0.00113256
-1.17824e-06
-0.000268627
2.18594e-07
2.21014e-07
6.68393e-07
2.49789e-07
-1.25031e-06
1.98253e-07
-2.63986e-07
-8.93641e-07
1.80136e-07
8.29012e-07
-2.36539e-07
-0.00113318
1.14059e-06
7.18765e-07
4.2924e-08
-1.31213e-06
1.90258e-07
-2.69257e-07
-8.98992e-07
1.77502e-07
-2.36517e-07
8.2609e-07
-0.00113303
-0.000268629
2.08167e-07
2.20841e-07
7.2827e-07
-0.00117985
5.02731e-07
-0.00117921
-2.63019e-08
-5.96424e-09
-0.000194308
-2.86152e-09
-9.46394e-08
-0.000246321
2.40886e-08
-2.71812e-09
-8.99533e-08
-0.000246364
-5.98931e-09
-0.000194316
9.35401e-10
-9.83098e-05
-4.24107e-08
-0.000279179
-3.04856e-09
-3.17628e-09
2.67794e-09
-4.46994e-08
-0.000279297
-3.47549e-09
6.01083e-09
-9.83246e-05
2.77504e-08
1.24234e-06
-1.05658e-06
6.66084e-07
8.48016e-07
-8.87807e-07
-0.00115162
2.40946e-08
-9.23477e-08
-0.000246422
9.15951e-09
-4.87833e-10
5.90181e-08
-0.000251094
-1.40812e-07
-1.02524e-08
1.3009e-06
-1.06469e-06
6.68708e-07
-8.90657e-07
8.50534e-07
-0.00115178
2.41649e-08
-5.2175e-09
-9.46946e-08
-0.000246324
6.98178e-09
5.90195e-08
-0.00025107
-1.38226e-07
-8.18699e-09
-0.000194362
1.02235e-08
-2.64075e-11
-0.000230378
-7.0814e-09
4.21883e-08
-6.0279e-09
-0.00019431
1.02896e-08
-0.000230341
-6.60084e-09
4.43631e-08
-3.10835e-09
-4.25143e-08
-0.000279266
-9.90643e-10
-3.10873e-09
-4.46971e-08
-0.00027918
-3.52376e-09
-9.83159e-05
-9.83106e-05
-4.05178e-09
-1.24139e-08
-0.00019429
-3.95594e-09
-1.47038e-08
-0.000194296
-3.59996e-08
-9.82779e-05
1.77073e-08
2.49308e-08
0.000222648
4.634e-09
1.343e-10
-0.000222696
-0.000251462
1.71231e-08
-7.88895e-08
-8.05636e-09
-1.55801e-08
-2.54375e-09
6.06644e-09
-0.000279203
-0.000183623
-1.52138e-08
2.12175e-09
3.95065e-08
5.29733e-08
-0.000251552
1.72928e-09
-0.000183603
2.53547e-08
-5.04807e-08
2.28861e-08
1.76139e-08
0.000222727
4.74607e-09
1.47852e-10
-0.000222772
-0.000251628
1.71495e-08
-8.13831e-08
-8.13613e-09
-1.9448e-09
-1.32135e-08
3.8245e-08
6.01988e-09
-0.000279326
-0.000183683
-1.72231e-08
2.12835e-09
1.77658e-09
-0.000183664
3.95517e-08
5.29462e-08
-0.000251716
2.53656e-08
-5.26706e-08
7.73588e-09
7.59259e-09
0.000214552
-0.000214558
-8.0807e-05
-9.74897e-09
-8.08228e-05
-9.93461e-09
-8.07975e-05
-8.08135e-05
3.88713e-09
-9.82903e-05
-3.25722e-08
7.95575e-05
-1.25991e-08
-7.95123e-05
-1.51825e-09
-1.46607e-08
-0.000194342
-0.000264372
-5.88013e-09
1.44732e-08
-5.43073e-08
-4.8488e-09
-7.07366e-09
-0.000264394
2.09888e-08
-2.20864e-08
1.38724e-10
0.000143962
-0.000143952
2.88318e-09
2.23957e-09
-8.32113e-11
2.02175e-08
-0.000230404
-0.000224362
8.45455e-09
-5.0508e-08
-0.000171798
1.52407e-09
1.72273e-11
1.57211e-08
-0.000224402
4.11601e-12
-0.000171795
-3.48304e-08
7.95135e-05
-1.27316e-08
-7.94659e-05
-1.36296e-09
-3.97658e-09
-1.47119e-08
-0.00019429
-0.000264242
-7.98701e-09
1.47087e-08
-5.21018e-08
-4.72211e-09
-9.44637e-09
-0.000264264
2.11819e-08
-2.2048e-08
2.17578e-10
0.00014389
-0.00014388
2.85788e-09
7.06332e-11
2.02339e-08
-0.000230365
-0.000224268
8.48522e-09
-4.79798e-08
-0.000171762
1.75768e-09
1.32833e-08
-0.000224305
-0.000171761
0.000222716
1.76963e-08
2.26923e-08
4.67081e-09
-4.80056e-11
-0.000222761
1.96012e-08
-0.000251595
-7.65204e-08
-5.48762e-09
-1.32385e-08
-4.50335e-09
3.82657e-08
6.16227e-09
-0.000279293
-1.74912e-08
-0.000183673
2.00165e-09
2.75142e-08
-5.05203e-08
3.9266e-08
5.05912e-08
-0.00025168
1.75636e-09
-0.000183657
0.000222648
1.75531e-08
2.28542e-08
4.75533e-09
-1.8511e-09
-0.000222692
1.7122e-08
-0.000251475
-7.86834e-08
-5.79743e-09
-1.32573e-08
-1.99353e-09
3.8327e-08
3.54873e-09
-0.000279207
-1.72127e-08
-0.000183623
2.16205e-09
2.55064e-08
-5.27535e-08
3.6957e-08
5.03085e-08
-0.000251557
1.78979e-09
-0.000183603
0.00021455
7.86986e-09
7.53155e-09
-0.000214556
-9.95641e-09
-8.08217e-05
-9.76619e-09
-8.08078e-05
-8.0812e-05
-8.07984e-05
-9.82816e-05
-9.82763e-05
8.50907e-08
8.49971e-08
0.000243658
-0.000243828
-2.18634e-07
-2.23369e-07
-0.00027072
-0.000261847
9.8703e-08
-0.000261496
9.86353e-08
-0.000262207
-0.000261858
0.00024365
7.78617e-08
8.73564e-08
-0.000243817
-2.30898e-07
-2.21296e-07
-0.000270771
9.84445e-08
-0.00026146
9.62485e-08
-0.000261866
-0.000261835
-0.000262232
1.7105e-08
-0.00120681
-0.00120683
-0.00026113
6.5911e-08
-0.0002464
-0.000261278
-0.000261164
6.34473e-08
-0.000246443
-0.000261319
0.000264806
-3.32566e-08
-1.42974e-07
4.244e-08
-0.000265566
1.7858e-08
-0.000261232
6.34855e-08
6.59362e-09
-0.0002465
-1.72971e-07
-0.000251747
1.71627e-08
2.43661e-08
-0.000261386
1.25373e-08
-0.000251903
0.000266387
2.02324e-08
-2.02245e-07
-0.000267219
1.91235e-07
-7.39097e-09
-1.39257e-10
-0.000251257
-1.87503e-08
-0.000266531
1.3389e-09
-1.59001e-07
-0.000250526
-6.6646e-10
-0.000267207
-0.000250707
-1.45301e-07
-3.56378e-08
0.000264734
3.71691e-08
-0.000265489
-0.000261146
1.54204e-08
8.99386e-09
6.58135e-08
-0.00024641
-0.000251642
-1.75429e-07
1.50459e-08
1.2773e-08
-0.000251801
-0.000261302
1.3881e-08
1.79404e-08
-2.02262e-07
0.00026633
-0.000267173
1.91296e-07
-6.65876e-09
-0.000251234
-0.000266519
-1.23826e-08
-0.000250447
-1.56202e-07
-0.000267201
-0.00025063
-5.83387e-08
-6.80204e-08
1.2277e-07
9.10578e-08
0.00118021
-1.2239e-06
1.23992e-07
-2.40594e-07
0.00113082
-1.77864e-07
1.22525e-06
2.71341e-07
9.16116e-07
-1.25546e-07
-7.938e-07
2.81769e-07
1.18886e-06
1.16046e-06
-1.44945e-07
-1.4454e-07
0.000268098
2.05853e-07
2.04443e-07
-0.00117963
-1.12462e-07
-1.14444e-07
0.00117944
-0.00113016
-1.20336e-06
-2.06869e-07
-1.89297e-08
-2.36733e-07
1.1951e-06
2.01575e-07
8.50037e-07
-2.07026e-07
-8.43301e-07
1.85356e-07
0.00113044
-0.000269991
1.23452e-06
1.19172e-06
-2.29117e-07
-2.39847e-07
0.000268034
1.20498e-06
1.15998e-06
-1.41969e-07
-1.49718e-07
0.000268129
-1.24682e-06
-1.20521e-06
0.000270041
-0.000268
2.01873e-07
2.09193e-07
-5.6192e-08
0.00113028
-1.73312e-07
1.28613e-06
2.75914e-07
9.2237e-07
-1.25252e-07
-7.90662e-07
2.82158e-07
-1.20069e-06
2.2912e-07
-6.52915e-08
0.0011304
-1.76406e-07
1.28306e-06
2.78497e-07
9.19224e-07
-1.28016e-07
-7.93275e-07
2.793e-07
0.00112966
-8.39458e-08
-0.00112965
-2.85744e-09
-1.23592e-06
2.2199e-07
-2.26691e-07
-8.32624e-07
2.12176e-07
-1.81051e-07
8.71348e-07
-8.378e-08
-0.00112977
-6.71098e-09
-8.35318e-07
2.14591e-07
-1.84032e-07
8.73573e-07
1.24508e-06
0.00112978
-1.23251e-06
2.22844e-07
-2.25908e-07
-1.5183e-07
-1.47537e-07
0.000268138
-7.21311e-08
0.00113128
-1.67592e-07
1.24391e-06
2.7084e-07
9.19591e-07
-1.25162e-07
-7.92959e-07
2.79537e-07
-1.18938e-06
7.19267e-08
-2.77333e-08
0.00113032
-1.73606e-07
1.28068e-06
2.78825e-07
9.17055e-07
-1.27923e-07
-7.92879e-07
2.79646e-07
0.00113066
-8.27256e-08
-0.00113065
-5.80489e-09
-1.19294e-06
2.14488e-07
-2.17919e-07
-8.30037e-07
2.1199e-07
-1.81427e-07
8.68306e-07
1.24234e-06
0.00112967
-7.6983e-08
-0.00112967
-5.60476e-09
-1.22982e-06
2.20063e-07
-2.23171e-07
-8.32882e-07
2.14417e-07
-1.84204e-07
8.70782e-07
7.89967e-08
-1.60602e-08
0.00113
-1.6859e-07
1.28327e-06
2.78282e-07
9.16351e-07
-1.2039e-07
2.8177e-07
-7.85621e-07
1.23579e-06
0.00112934
-8.06443e-08
-0.00112933
-2.61859e-09
-1.22508e-06
2.19126e-07
-2.23959e-07
-8.30254e-07
2.1446e-07
-1.84192e-07
8.67949e-07
-1.4973e-07
0.00026812
-1.20422e-06
0.000270016
-0.000267978
2.01415e-07
2.07059e-07
5.18963e-08
-7.94088e-08
0.00113096
-1.76862e-07
1.2323e-06
2.70135e-07
9.14033e-07
-1.27894e-07
2.76841e-07
-7.90236e-07
-8.43173e-08
-0.00113015
-3.16862e-09
-1.19347e-06
2.16425e-07
-2.21298e-07
-8.26958e-07
2.12322e-07
8.65909e-07
-1.81007e-07
1.19403e-06
0.00113034
-8.06568e-08
-0.00113033
-5.29079e-09
-1.18226e-06
2.11538e-07
-2.15311e-07
-8.30125e-07
2.14294e-07
-1.84377e-07
8.67735e-07
-0.00026797
1.99138e-07
2.09005e-07
1.24553e-06
1.2027e-06
-2.31776e-07
-2.39866e-07
0.000268064
-2.41876e-07
1.23795e-06
2.07333e-07
8.55336e-07
-2.07155e-07
-8.49045e-07
1.85172e-07
-1.99595e-08
0.00112994
-2.24298e-08
-2.33317e-07
1.19613e-06
2.02369e-07
8.52375e-07
-2.07413e-07
-8.46379e-07
1.85033e-07
0.00113094
-1.23937e-06
-2.03141e-07
-2.34778e-08
-2.38429e-07
1.23348e-06
2.05358e-07
8.54712e-07
-2.10335e-07
-8.49373e-07
1.87331e-07
0.00112996
-2.04452e-07
-2.14694e-08
-2.38995e-07
1.22707e-06
2.04609e-07
8.52271e-07
-2.09984e-07
1.87771e-07
-8.46348e-07
0.00112962
-2.32562e-07
-2.36564e-07
0.000268043
-1.9788e-07
-2.39824e-08
-2.30464e-07
1.18526e-06
1.96924e-07
8.51955e-07
-2.10297e-07
1.87559e-07
-8.46385e-07
0.00113062
7.47456e-11
-6.40513e-08
0.000230332
-0.000230271
8.26944e-09
-5.47203e-09
-5.01174e-09
-5.347e-08
5.36062e-09
0.000194834
2.63131e-10
-6.16309e-08
0.000230185
3.87127e-08
1.92915e-09
7.64862e-09
-4.71001e-08
0.000194957
5.98459e-09
-0.000194924
4.91009e-09
-1.95783e-08
9.87007e-05
-7.66484e-09
3.22139e-09
9.87248e-05
-9.87204e-05
-6.40892e-08
-3.03753e-10
0.000230328
-0.000230267
-5.00704e-09
8.33188e-09
7.78656e-09
-4.70737e-08
0.000194935
5.84596e-09
-0.000194901
5.47255e-08
-8.06884e-08
0.00117991
1.27424e-07
1.26409e-07
0.00117982
1.44825e-07
1.24898e-07
0.00117985
-0.00117983
2.08534e-08
1.97773e-08
0.00117944
-0.00117963
1.57788e-08
1.28623e-08
8.39791e-08
0.00117923
-0.00117944
2.10359e-08
2.52081e-08
0.00117924
-0.00117946
2.96095e-08
2.41883e-08
6.14601e-08
-2.25874e-09
0.000250628
-0.000250487
-3.33813e-10
-1.99891e-07
2.52874e-08
5.34527e-08
-2.09647e-08
-3.33362e-08
0.000246274
0.00114994
-5.87929e-08
3.00519e-07
9.75099e-07
-7.34714e-07
-9.12616e-07
7.89234e-07
-6.24621e-08
1.23336e-06
0.00113045
9.39226e-08
-8.01262e-07
2.60251e-07
-1.41844e-07
8.99268e-07
-1.17903e-06
2.52058e-07
-1.87605e-07
6.16621e-08
-3.1106e-10
0.000250484
1.14822e-08
6.63888e-08
1.45456e-08
4.72064e-08
0.000246437
-1.41385e-08
-0.000246348
-1.36855e-07
-3.2845e-08
0.0011495
3.19384e-07
-9.1513e-07
7.82924e-07
-7.40761e-07
9.68273e-07
4.81666e-09
-1.93537e-08
9.86953e-05
-7.82228e-09
3.11842e-09
9.87198e-05
-9.87151e-05
-3.51951e-10
6.14461e-08
0.000250624
-0.000250481
-2.0278e-07
-1.7608e-09
-2.23404e-08
1.22752e-06
0.00113037
8.23947e-08
-7.9799e-07
2.57776e-07
-1.38736e-07
8.96861e-07
-1.17393e-06
2.5441e-07
-1.8787e-07
-6.30602e-09
0.00114935
3.0403e-07
-9.14414e-07
7.83504e-07
-7.40023e-07
9.6886e-07
1.70619e-08
4.71698e-08
0.000246429
-1.41137e-08
-0.000246343
-1.3689e-07
-2.53083e-08
2.18734e-08
-5.89108e-08
1.25292e-08
0.000279503
-2.34466e-08
2.15156e-08
-5.10763e-08
1.06771e-08
0.000279422
-1.26138e-06
-1.21913e-06
0.000269986
-0.000268015
2.4959e-07
2.59635e-07
-1.72812e-08
-5.26791e-09
0.000279643
1.63967e-08
-0.000279594
-4.33375e-08
-1.54597e-08
-5.60098e-09
0.00027956
1.68208e-08
-0.000279513
-4.28589e-08
-0.000194814
8.35933e-09
1.02986e-07
-6.24645e-09
0.000194709
-0.000194792
8.21315e-09
1.02924e-07
-6.12023e-09
0.000194687
-0.000230443
1.26732e-07
2.7747e-10
0.000230434
-1.26905e-08
-1.04683e-07
-1.14446e-07
-1.19486e-07
2.0722e-07
2.04031e-07
0.00117926
-1.14173e-07
-1.12529e-07
0.00117905
-1.11571e-07
-1.12783e-07
0.00117906
-9.85528e-05
-8.17287e-09
9.04075e-08
9.84706e-05
-0.00114893
6.46227e-09
-2.71593e-07
9.7249e-07
-7.28763e-07
-9.11256e-07
7.96441e-07
0.00114905
-0.000246535
-5.27975e-08
-1.03011e-07
1.45559e-07
4.42776e-08
0.000246501
-0.000250817
1.3859e-09
-1.24328e-07
0.000250772
1.79017e-07
-1.12154e-08
-0.00027962
5.27898e-08
-9.06348e-08
1.14549e-07
-1.56592e-08
0.000279559
-0.000279537
5.0203e-08
-9.05709e-08
1.14691e-07
-1.57473e-08
0.000279478
-2.19073e-08
9.87194e-05
5.29075e-09
9.87418e-05
-9.87394e-05
5.56544e-09
9.87286e-05
-9.87264e-05
-2.28075e-08
-5.65307e-08
1.29963e-08
0.00027953
0.000270038
-1.27233e-06
-1.23057e-06
-0.000268045
2.49941e-07
2.59712e-07
0.00027967
-1.71428e-08
1.63559e-08
-0.000279623
-4.10323e-08
0.000279595
-1.52677e-08
1.67504e-08
-0.000279548
-4.29558e-08
6.22076e-08
-1.54972e-08
9.85776e-05
-9.86243e-05
3.73441e-08
-2.26181e-09
9.87067e-05
6.20826e-08
-1.53725e-08
9.85642e-05
-9.86109e-05
3.75009e-08
-2.29477e-09
9.86934e-05
1.22568e-06
1.18266e-06
0.000267997
-1.78466e-07
-1.89238e-07
2.06307e-08
0.000279647
4.39075e-08
-0.00027965
1.11683e-09
2.29351e-08
0.000279572
4.17577e-08
-0.000279575
9.6773e-10
1.54284e-08
8.944e-10
2.87802e-08
0.000279662
1.25933e-08
1.17671e-09
3.12309e-08
0.000279587
-6.40597e-08
0.000230293
-0.000230232
8.27207e-09
-5.18068e-09
-5.09971e-08
5.08473e-09
0.000194774
-6.16128e-08
0.000230146
3.86985e-08
2.29474e-09
-4.91419e-08
0.000194898
5.91976e-09
-0.000194863
-5.86282e-10
0.000250631
-0.000250487
-1.87394e-09
-2.05477e-07
-2.64338e-08
-3.27768e-08
0.000246277
0.00115011
5.31396e-09
2.19841e-07
9.86767e-07
-7.37027e-07
-9.09424e-07
8.0087e-07
-1.95513e-08
0.00112988
6.9978e-08
-1.21419e-06
2.56687e-07
-1.88378e-07
-8.03589e-07
2.5775e-07
-1.38776e-07
9.02457e-07
1.17531e-09
0.000250485
9.75699e-09
7.12474e-08
0.00024643
-1.41787e-08
-0.000246346
-1.34477e-07
-1.16939e-09
0.0011497
2.96609e-07
-9.20125e-07
7.8658e-07
-7.4558e-07
9.71953e-07
0.000250605
-0.000250464
-2.63184e-11
-2.05415e-07
2.54176e-08
-2.08666e-08
-3.33026e-08
0.000246184
0.00115008
2.36622e-07
9.83834e-07
-7.36964e-07
-9.11978e-07
7.9812e-07
-1.98315e-08
0.00112999
1.27011e-06
8.41924e-08
-8.06184e-07
2.6043e-07
9.04936e-07
-1.44319e-07
-1.21143e-06
2.60068e-07
-1.9087e-07
0.000250461
9.0924e-09
7.12364e-08
0.000246337
1.48636e-08
-1.4593e-08
-0.000246252
-1.3425e-07
0.00114966
3.01575e-07
-9.19916e-07
7.89295e-07
-7.45578e-07
9.74421e-07
2.30319e-10
3.22136e-08
-3.57068e-08
-7.93452e-09
0.000230343
3.29111e-08
-0.000194862
-9.40809e-10
2.05676e-08
1.26829e-09
0.000194933
-2.71546e-11
2.92339e-08
-0.000230401
-6.42018e-08
-1.18213e-08
0.000230447
3.22257e-08
-3.57034e-08
-7.67957e-09
0.000230304
3.07872e-08
-0.000194801
-9.41362e-10
1.54667e-08
0.000194755
2.28917e-08
2.2873e-09
1.15726e-09
0.000194872
2.92486e-08
-0.000230361
-6.41934e-08
-1.17274e-08
0.000230408
1.26791e-09
-3.13954e-09
1.27611e-07
0.000250538
4.45764e-09
2.28828e-08
1.25814e-06
-2.10063e-07
2.38861e-07
8.86103e-07
-1.5945e-07
2.35183e-07
-8.18201e-07
0.000246536
-4.64779e-08
-0.000246461
2.47054e-08
-0.0011494
-1.28625e-09
-1.37379e-09
-9.19497e-07
7.87556e-07
-7.37605e-07
9.70374e-07
0.0011493
5.24749e-09
5.35134e-08
0.000246408
6.0276e-09
2.04522e-07
9.71717e-07
-7.42383e-07
-9.18525e-07
7.88563e-07
-6.7493e-10
-0.000250635
-1.10753e-08
-1.47757e-07
0.000250824
-3.74631e-09
1.27674e-07
0.000250514
-9.36855e-09
-1.22243e-06
2.15512e-08
8.88407e-07
-1.62257e-07
-8.20745e-07
2.37716e-07
1.25618e-06
-2.09368e-07
2.39649e-07
-4.62524e-08
-0.000246368
2.44525e-08
-2.29942e-08
0.000246443
-0.00114936
-1.45829e-09
-9.19448e-07
7.90199e-07
-7.37676e-07
9.72776e-07
0.00114925
-1.26389e-08
4.83036e-09
5.37098e-08
0.000246314
2.03837e-07
9.71427e-07
-7.45156e-07
-9.2118e-07
7.88476e-07
-0.000250612
-9.46526e-09
-1.47689e-07
0.000250797
-5.393e-08
1.03778e-08
0.000279416
2.19845e-08
-5.63678e-08
1.23612e-08
0.000279541
0.000270025
-0.000268034
2.55168e-07
2.57374e-07
0.000279552
1.90909e-08
-0.00027951
-4.29773e-08
-5.22574e-09
0.000279678
1.67315e-08
-0.000279634
-4.09514e-08
5.16552e-09
9.87133e-05
9.87351e-05
-7.3841e-09
-9.8733e-05
3.97055e-08
9.86874e-05
1.18523e-06
0.000267987
-1.83824e-07
-1.86083e-07
-1.43043e-09
3.11852e-08
0.000279549
-3.72344e-08
1.32859e-08
1.51198e-10
2.86657e-08
0.000279673
-2.00852e-09
9.86999e-05
-2.05683e-09
0.000250622
-0.00025048
-5.46358e-10
-2.02922e-07
0.00114998
-2.12792e-08
2.22363e-07
9.84099e-07
-7.33863e-07
-9.11676e-07
7.95669e-07
-2.6499e-08
0.00113088
8.01456e-08
-1.16872e-06
2.51964e-07
-1.82491e-07
-8.03523e-07
2.57647e-07
-1.38996e-07
8.99542e-07
0.000246397
-1.48538e-08
-0.00024631
-1.34325e-07
-1.32865e-08
0.00114957
3.06201e-07
-9.19857e-07
7.86579e-07
-7.42681e-07
9.71725e-07
-6.40497e-08
0.000230288
-0.000230229
1.0394e-08
-5.71188e-09
-5.09718e-08
5.01402e-09
0.000194761
-5.93363e-08
0.000230144
3.67051e-08
1.88947e-09
1.01972e-10
-4.92449e-08
0.000194886
5.81704e-09
-0.000194851
0.000250594
-0.000250458
-2.0045e-07
-1.08724e-09
0.00114996
2.21863e-07
9.81551e-07
-7.36502e-07
-9.14244e-07
7.95851e-07
2.31894e-08
-2.0903e-08
-3.32948e-08
0.000246176
-8.90799e-09
0.00112989
1.26748e-06
8.45603e-08
-8.00676e-07
2.57722e-07
8.99698e-07
-1.38882e-07
-1.20853e-06
2.57242e-07
-1.87988e-07
0.000250456
6.84342e-08
8.32488e-09
-8.25828e-10
0.00114953
3.05214e-07
-9.17013e-07
7.8672e-07
-7.42581e-07
9.71943e-07
0.000246329
1.74829e-08
-1.46809e-08
-0.000246245
-1.36654e-07
3.46277e-08
1.61715e-10
-7.78679e-09
-3.56312e-08
0.000230337
3.28869e-08
-0.000194839
-8.02692e-10
2.06486e-08
1.21373e-09
0.000194911
2.68516e-08
-1.4395e-10
-0.000230394
-1.18442e-08
-6.41698e-08
1.55606e-09
-3.45332e-09
1.25148e-07
0.000250533
-3.78125e-09
2.31744e-08
1.21655e-06
-2.01245e-07
2.31462e-07
8.83016e-07
-1.59764e-07
2.34998e-07
-8.15555e-07
0.000246503
-4.87223e-08
-0.000246423
2.45026e-08
-0.00114926
-5.0722e-09
0.00114915
-5.16112e-10
-9.16908e-07
7.89992e-07
-7.351e-07
9.69917e-07
4.76514e-09
5.3764e-08
0.000246372
-4.65434e-10
2.0958e-07
9.68632e-07
-7.42466e-07
-9.1857e-07
7.82825e-07
-1.7363e-09
0.000250814
-0.00025063
-1.0155e-08
-1.45032e-07
3.21704e-08
-3.77308e-08
-7.76061e-09
0.000230301
3.29614e-08
1.53518e-08
0.000194741
-0.000194788
-8.68297e-10
2.29958e-08
2.20171e-09
1.19549e-09
0.00019486
2.93075e-08
0.000230403
-0.000230359
-6.20604e-08
-1.17144e-08
1.22557e-07
-3.70413e-09
0.000250509
-2.66171e-09
-1.2198e-06
2.2293e-08
8.8569e-07
-1.62408e-07
-8.18228e-07
2.37572e-07
1.25341e-06
-2.06778e-07
2.36848e-07
-0.00114923
0.00114911
6.06237e-09
-9.16935e-07
7.89999e-07
-7.35133e-07
9.69883e-07
-2.05175e-08
0.000246437
-4.85453e-08
-0.000246359
2.43864e-08
2.0845e-07
9.68747e-07
-7.42402e-07
-9.18441e-07
7.82979e-07
-1.49527e-08
4.81133e-09
5.61657e-08
0.000246306
0.000250786
-0.000250606
-1.42471e-07
-9.78304e-09
-2.78824e-11
0.00023033
-0.000230271
-5.58105e-09
8.28484e-09
5.50577e-09
0.000194819
-1.91689e-10
0.000230186
2.30202e-09
3.88406e-08
0.000194944
6.37851e-09
-0.00019491
6.14049e-08
0.0002506
-0.000250463
-1.9989e-07
-9.48195e-10
0.00114988
2.40781e-07
9.77835e-07
-7.34645e-07
7.92066e-07
-9.06939e-07
5.35083e-08
-2.6226e-08
-3.30016e-08
0.000246214
-6.74794e-09
0.00112957
9.12328e-08
-1.20599e-06
2.53862e-07
-1.85796e-07
-8.01275e-07
2.59923e-07
-1.4202e-07
8.98921e-07
6.17248e-08
0.000250461
6.62925e-08
7.73918e-09
0.00114943
3.07585e-07
-9.12446e-07
7.80136e-07
-7.38044e-07
9.65366e-07
4.70944e-08
0.000246369
-1.44517e-08
-0.000246282
-1.36621e-07
0.000230292
-0.000230234
8.25919e-09
-5.09918e-09
-4.86542e-09
5.11503e-09
0.000194771
0.000230148
3.88417e-08
1.94599e-09
0.000194894
7.60905e-09
5.9595e-09
-0.000194861
-2.9905e-08
1.35335e-09
-3.32687e-09
1.25507e-07
0.000250534
-1.618e-08
2.39114e-08
1.21892e-06
-2.01308e-07
2.31128e-07
8.8585e-07
-1.62126e-07
-8.18137e-07
2.37939e-07
0.00113024
-0.00114918
-1.05781e-08
3.72903e-09
-9.17093e-07
7.86926e-07
9.69762e-07
-7.35429e-07
9.80272e-09
0.00114907
-2.04266e-08
5.43739e-09
5.58155e-08
0.00024641
-9.08534e-09
2.20849e-07
9.68121e-07
-7.40389e-07
-9.19084e-07
7.82152e-07
-3.18125e-08
-1.95152e-09
-0.000250632
-1.10084e-08
-1.44904e-07
0.000250821
4.0073e-10
-8.06751e-09
-3.56949e-08
0.000230344
1.68392e-09
0.00019492
-3.00666e-12
-0.000230401
-1.22137e-08
-6.43447e-08
0.000230446
-2.99924e-08
1.23051e-07
-4.15348e-09
0.000250512
1.11757e-08
-1.2148e-06
2.7064e-08
8.82478e-07
-1.62658e-07
-8.15906e-07
2.3727e-07
1.24703e-06
-2.04628e-07
2.3319e-07
-0.00114912
0.001149
5.11537e-09
-9.14659e-07
7.8677e-07
-7.3562e-07
9.66684e-07
-3.29894e-08
-2.07501e-08
0.000246475
-4.62618e-08
-0.000246399
2.45796e-08
2.21418e-07
9.65144e-07
-7.40496e-07
-9.16504e-07
7.82104e-07
-2.06206e-08
-1.52908e-08
5.00918e-09
5.37545e-08
0.000246346
-3.18798e-08
0.000250791
-0.000250609
-1.4226e-07
-9.63013e-09
-3.57386e-08
-7.78688e-09
0.000230306
1.53944e-08
0.000194751
-0.000194799
-8.58363e-10
2.19417e-09
1.24962e-09
0.00019487
0.000230407
-0.000230363
-6.43387e-08
-1.16074e-08
-5.63217e-08
0.000279417
0.00027001
-0.000268025
2.5237e-07
2.57351e-07
0.000279555
1.71756e-08
-0.00027951
-4.06111e-08
-5.33494e-09
0.000279677
1.64741e-08
-0.000279628
-4.31875e-08
9.87324e-05
-7.67839e-09
-9.873e-05
6.21222e-08
-9.85996e-05
3.98768e-08
9.86822e-05
1.18298e-06
0.000267975
-1.81569e-07
-1.86188e-07
0.000279534
4.41759e-08
-0.000279538
1.56697e-09
-6.21945e-08
2.08691e-08
0.000279654
4.16152e-08
-0.000279655
1.02306e-09
6.09121e-10
2.90331e-08
0.00027955
-3.74505e-08
1.53854e-08
1.02166e-09
3.10372e-08
0.000279667
-1.54931e-08
9.85677e-05
-9.86144e-05
-2.18934e-09
9.86971e-05
6.14278e-08
0.000250595
-0.000250455
-2.02652e-07
3.95964e-10
0.00114971
2.25648e-07
9.78166e-07
-7.31385e-07
7.92607e-07
-9.08971e-07
5.32875e-08
-1.84198e-08
-3.1021e-08
0.000246181
-1.7446e-08
0.00113056
8.91079e-08
-1.16658e-06
2.48747e-07
-1.8579e-07
-8.00879e-07
2.60111e-07
-1.41913e-07
8.99099e-07
6.17376e-08
0.000250452
6.86442e-08
8.72227e-09
0.00114929
3.0426e-07
-9.14562e-07
7.80617e-07
-7.40229e-07
9.65584e-07
4.70686e-08
0.000246339
-1.50817e-08
-0.00024625
-1.36679e-07
4.8032e-10
0.000230328
-0.000230269
-5.9055e-09
8.26937e-09
0.000194939
6.13819e-09
-0.000194905
0.000230289
-0.000230232
-4.79014e-09
1.03383e-08
-4.50349e-09
4.73088e-09
0.000194764
0.000230145
2.36965e-09
3.88466e-08
0.000194888
7.93177e-09
5.57373e-09
-0.000194854
1.40525e-09
-2.98885e-08
1.25372e-07
-3.60662e-09
0.000250531
-2.54161e-09
2.37516e-08
1.21578e-06
-2.04553e-07
2.3348e-07
8.80467e-07
-1.59611e-07
-8.12756e-07
2.35185e-07
-0.00114904
-2.59761e-09
7.89371e-09
-9.14152e-07
7.87196e-07
9.67234e-07
-7.35185e-07
-3.3031e-08
-4.8815e-08
-0.000246457
2.50422e-08
2.84099e-09
2.12835e-07
9.65738e-07
-7.40087e-07
-9.16081e-07
7.82505e-07
-2.04894e-08
5.34998e-09
5.58902e-08
0.000246404
-2.00867e-10
-2.94107e-08
-0.000250631
-1.44983e-07
-1.12473e-08
-2.98801e-08
1.254e-07
-3.92969e-09
0.000250505
-1.28028e-09
-1.17217e-06
2.61571e-08
8.82408e-07
-1.62724e-07
-8.15674e-07
2.37284e-07
1.20514e-06
-1.98824e-07
2.28335e-07
-0.00114899
0.00114887
9.27586e-09
-9.11621e-07
7.84104e-07
-7.32654e-07
9.63842e-07
-3.303e-08
-2.28012e-08
0.000246442
-4.61175e-08
-0.000246365
2.42149e-08
2.13329e-07
9.62432e-07
-7.37366e-07
-9.13354e-07
7.79568e-07
-2.06758e-08
-1.23677e-08
4.45678e-09
5.62221e-08
0.000246311
-2.95119e-08
0.000250788
-0.000250605
-1.44781e-07
-8.67623e-09
5.77228e-10
-8.31517e-09
-3.56544e-08
0.000230341
0.000194795
-0.000194843
-8.67186e-10
1.44359e-09
0.000194915
2.07562e-10
0.000230443
-0.000230396
-1.20937e-08
-6.43471e-08
-7.37128e-09
-3.77875e-08
0.000230305
1.54206e-08
0.000194744
-0.000194792
-8.85196e-10
2.41451e-09
1.00635e-09
0.000194863
0.000230404
-0.000230359
-1.15881e-08
-6.22284e-08
9.87025e-05
9.87249e-05
-9.87225e-05
9.86971e-05
9.87196e-05
-9.87172e-05
0.000267967
-1.78625e-07
-1.89241e-07
-6.22042e-08
4.16329e-08
-0.000279621
9.33775e-10
-6.22525e-08
4.19862e-08
-0.000279541
1.04377e-09
-3.73173e-08
8.91132e-10
3.10476e-08
0.000279633
-3.75613e-08
1.31658e-09
3.13476e-08
0.000279552
9.85604e-05
-9.86072e-05
9.86898e-05
9.85549e-05
-9.86018e-05
9.86844e-05
9.05849e-08
9.84953e-05
9.04138e-08
9.8482e-05
5.26932e-08
1.12181e-07
-1.55613e-08
0.000279588
5.0265e-08
1.14517e-07
-1.57681e-08
0.000279513
1.4321e-07
4.39957e-08
0.000246505
1.45706e-07
4.38776e-08
0.000246466
3.48657e-09
-2.70814e-07
9.74946e-07
-7.31738e-07
-9.14183e-07
7.96158e-07
0.00114927
1.8637e-09
0.000250771
-1.12235e-08
1.79115e-07
1.03007e-07
-6.13431e-09
0.000194636
1.24232e-07
0.000230398
-1.06753e-07
-1.25033e-08
-2.71082e-07
9.74868e-07
-7.31799e-07
-9.14275e-07
7.96155e-07
0.00114923
-5.25717e-08
1.45874e-07
4.37517e-08
0.000246403
0.000250746
1.76591e-07
-1.12181e-08
-2.69637e-07
9.72187e-07
-7.26247e-07
7.96177e-07
-9.08795e-07
4.36696e-09
0.00114911
-1.03094e-07
1.43355e-07
4.3959e-08
0.000246443
-1.2198e-07
0.000250746
1.76622e-07
-1.00853e-08
8.04053e-10
8.26874e-09
-6.17747e-09
0.000194646
0.000230403
-1.04877e-07
-1.24494e-08
-4.9551e-11
1.12302e-07
-1.62667e-08
0.000279476
-9.05678e-08
1.14472e-07
-1.55714e-08
0.000279593
-8.39809e-09
9.84855e-05
-2.63854e-07
9.69088e-07
-7.26301e-07
7.93303e-07
-9.08669e-07
0.00114899
-1.03087e-07
1.43522e-07
4.36887e-08
0.000246408
-1.24399e-07
0.000250746
1.79235e-07
-1.16645e-08
-6.29403e-09
0.00019469
2.49927e-10
0.000230436
-1.27163e-08
-1.04767e-07
8.23778e-09
-6.14826e-09
0.000194639
0.000230399
-1.24861e-08
-1.06926e-07
9.8478e-05
9.84726e-05
-2.27947e-09
5.51471e-09
0.000144374
-0.000144378
8.3105e-10
2.53944e-09
-3.36506e-09
-0.000230254
1.25564e-10
-1.64461e-08
-0.000172244
6.36477e-10
2.31698e-11
0.000172252
-0.000224373
3.3019e-09
-8.07609e-09
0.000224433
-6.09719e-08
-0.000172244
4.08084e-11
-0.000224359
-5.15892e-09
-5.9736e-09
-5.34737e-11
0.000144378
-7.98836e-05
-2.3876e-08
-6.57594e-10
7.99081e-05
1.03539e-08
0.000264615
-4.13665e-09
-4.20926e-08
8.13448e-09
0.000194908
4.10497e-09
-8.54301e-08
-1.45872e-09
-3.36492e-10
0.000264695
-9.49758e-08
-0.000144341
-9.59892e-10
-3.60526e-08
4.56204e-08
-6.22207e-10
2.37972e-10
-1.13618e-07
2.25171e-09
0.000172199
5.82206e-11
2.70271e-08
0.000224288
-5.08657e-08
5.42267e-11
-1.08964e-07
1.27223e-08
7.98963e-05
-0.000264707
5.2426e-10
0.000264754
-5.03407e-08
3.95318e-09
-1.66004e-09
-1.85195e-08
-2.20904e-10
7.98967e-05
9.87317e-05
-4.20307e-09
-2.68267e-08
1.56404e-09
9.72402e-09
5.4456e-09
-2.34568e-09
0.00014437
-0.000144374
9.39922e-10
-3.09531e-09
2.61922e-09
-0.00023025
-1.13224e-10
-1.65182e-08
-0.000224367
3.34038e-09
-7.83943e-09
0.000224425
-5.84981e-08
-0.000172239
8.33715e-10
4.83409e-12
0.000172247
-0.000224352
-4.80241e-09
-8.53666e-09
-0.000172239
8.4517e-12
1.05403e-11
0.000144374
-2.37612e-08
-7.91097e-10
7.99074e-05
-7.98829e-05
7.72732e-09
0.000194885
4.46898e-09
-8.53878e-08
-0.000194812
-7.33259e-10
0.000264693
-9.2476e-08
-0.000264615
-3.60895e-08
-1.06965e-09
-0.000144337
-6.21997e-11
4.56892e-08
-2.67115e-10
-1.13729e-07
-0.000230182
-1.06569e-07
-0.000224282
-2.45281e-11
-0.000172194
1.27951e-08
7.98956e-05
-0.000264707
4.99836e-10
0.000264752
-4.78164e-08
3.6398e-09
-1.39652e-09
-1.84472e-08
-2.46538e-09
7.98961e-05
9.87265e-05
-4.4417e-09
-2.68326e-08
1.48743e-09
9.93579e-09
-1.20722e-08
-1.25755e-08
0.000214778
-0.000214766
6.35716e-09
5.96849e-09
-8.10763e-05
1.10728e-08
-1.04868e-08
8.10757e-05
-8.10626e-05
1.14155e-08
-1.08434e-08
8.1062e-05
-8.10855e-05
-2.86031e-09
-8.10721e-05
-2.98345e-09
-1.97963e-09
-2.45946e-09
0.000214805
-0.00022263
-6.32599e-08
6.09013e-08
2.88663e-08
0.000222698
-9.45298e-08
4.01773e-08
0.000251228
-3.70357e-08
-1.95577e-08
-4.5028e-08
0.000184128
4.82276e-09
-8.85328e-08
2.52203e-08
0.000279578
2.48332e-08
-3.6462e-08
2.25616e-08
-4.1604e-08
0.000251279
-1.42021e-07
-6.10232e-08
1.27771e-08
0.000184201
-0.000222571
-5.8466e-08
5.85303e-08
2.9287e-08
0.000222634
-9.2242e-08
3.0401e-08
0.00025111
-2.64194e-08
-1.23986e-08
-4.22759e-08
0.000184077
3.33238e-09
-8.53707e-08
2.34437e-08
0.000279494
2.44104e-08
-3.46439e-08
1.6704e-08
-4.12763e-08
0.000251162
-1.36481e-07
-5.87596e-08
1.30529e-08
0.000184146
-0.000214719
5.86305e-09
5.44053e-09
-4.30179e-09
8.10669e-05
-3.78509e-09
8.10537e-05
-7.63919e-09
1.29403e-08
0.00022271
-1.03491e-08
-0.000184219
-2.83237e-08
0.000184253
-1.1979e-08
7.67484e-09
-7.30727e-09
-4.26015e-09
-0.00025125
2.79903e-08
0.000251315
-1.05125e-07
-3.14024e-08
5.45407e-11
1.00943e-08
0.000222767
-5.98917e-08
-7.88266e-09
1.27453e-08
0.000222647
-1.23574e-08
-0.000184164
-2.81965e-08
0.000184198
-1.15035e-08
8.03734e-09
-7.67926e-09
-7.26564e-09
-0.000251135
2.84057e-08
0.000251195
-1.02264e-07
-2.93377e-08
-2.19723e-09
9.84503e-09
0.000222703
-5.73795e-08
-7.96599e-05
5.87711e-08
1.38261e-09
7.95998e-05
-7.63691e-08
0.000264612
-0.000264691
1.25653e-07
2.3522e-08
-4.92226e-09
1.54552e-08
7.6142e-08
0.000194623
-7.9737e-05
6.9633e-10
7.17026e-08
2.21726e-08
0.000264572
-7.96595e-05
5.87359e-08
1.39728e-09
7.95994e-05
-7.62997e-08
0.000264612
2.35577e-08
-0.000264689
1.23206e-07
-4.78437e-09
1.52973e-08
7.60649e-08
0.0001946
7.16679e-10
-7.97365e-05
2.22719e-08
7.40854e-08
0.00026457
-0.000144089
8.03682e-08
2.09575e-09
0.000144008
-1.20767e-08
-9.29471e-08
2.93313e-11
7.05409e-08
0.000230468
-9.51834e-08
0.00022449
-0.000224511
1.26882e-07
-3.1563e-10
0.00017194
-0.000172044
3.89447e-11
-0.000144184
6.58651e-08
0.000224515
-6.51783e-12
0.000171849
-1.52372e-08
8.24272e-08
9.84034e-05
-0.00022288
4.34077e-08
-7.3209e-08
-6.0427e-08
5.04262e-08
0.00022292
-6.57469e-08
0.000251461
-0.000251455
1.13599e-07
6.07901e-08
9.08058e-08
0.000184034
-8.25442e-09
-0.000184132
8.10442e-08
-9.1757e-09
-8.27467e-08
3.68687e-08
0.000279533
-7.47163e-08
-0.000222879
9.9093e-08
1.0097e-08
7.77714e-09
0.000251567
-3.05883e-09
0.000183955
-0.000222815
4.32909e-08
-7.52243e-08
-6.05469e-08
5.29588e-08
0.000222855
-6.55856e-08
0.000251349
-0.000251336
1.11371e-07
5.53861e-08
8.88944e-08
0.000183981
-8.25054e-09
-0.000184077
8.1237e-08
-9.27828e-09
-8.26183e-08
3.91379e-08
0.00027945
-7.45721e-08
-0.000222814
9.72748e-08
1.29869e-08
1.24476e-08
0.000251448
-2.98766e-09
0.000183899
-0.000214732
-4.34213e-08
-4.53833e-08
0.0002147
5.43924e-08
8.08869e-05
-8.09495e-05
5.27465e-08
8.08741e-05