/*--------------------------------*- C++ -*----------------------------------*\
| =========                 |                                                 |
| \\      /  F ield         | OpenFOAM: The Open Source CFD Toolbox           |
|  \\    /   O peration     | Version:  v2012                                 |
|   \\  /    A nd           | Website:  www.openfoam.com                      |
|    \\/     M anipulation  |                                                 |
\*---------------------------------------------------------------------------*/
FoamFile
{
    version     2.0;
    format      ascii;
    class       volScalarField;
    location    "700";
    object      k;
}
// * * * * * * * * * * * * * * * * * * * * * * * * * * * * * * * * * * * * * //

dimensions      [0 2 -2 0 0 0 0];


internalField   nonuniform List<scalar> 
171728
(
2.16866e-07
2.6964e-07
3.03295e-07
3.38736e-07
2.13848e-07
2.62805e-07
2.91699e-07
3.21333e-07
2.06704e-07
2.57042e-07
2.78093e-07
3.05304e-07
2.0004e-07
2.52794e-07
2.66409e-07
2.91226e-07
1.88138e-07
2.50972e-07
2.56653e-07
2.79137e-07
1.78428e-07
2.50897e-07
2.48921e-07
2.67632e-07
1.72052e-07
2.4172e-07
2.43844e-07
2.56697e-07
1.68477e-07
2.24041e-07
2.38799e-07
2.46925e-07
1.65675e-07
2.0257e-07
2.34163e-07
2.37821e-07
1.63048e-07
1.83741e-07
2.32092e-07
2.28794e-07
1.60556e-07
1.71917e-07
2.32479e-07
2.20591e-07
1.58496e-07
1.66148e-07
2.3344e-07
2.13399e-07
1.56803e-07
1.63235e-07
2.3709e-07
2.07744e-07
1.55305e-07
1.6204e-07
2.46048e-07
2.03847e-07
1.54036e-07
1.63314e-07
2.58322e-07
2.04737e-07
1.52928e-07
1.68056e-07
2.76192e-07
2.12577e-07
1.51579e-07
1.78316e-07
2.95562e-07
2.33775e-07
1.50286e-07
1.96728e-07
3.17191e-07
2.77358e-07
1.49174e-07
2.26916e-07
3.32547e-07
3.36656e-07
1.48334e-07
2.73684e-07
3.60987e-07
4.00927e-07
1.48349e-07
3.52663e-07
4.05197e-07
4.8251e-07
1.49158e-07
4.63702e-07
4.8837e-07
7.82521e-07
1.51604e-07
6.32148e-07
6.3104e-07
1.08775e-06
1.55228e-07
8.58502e-07
8.66456e-07
1.62779e-06
1.56425e-07
1.18299e-06
1.19725e-06
2.72829e-06
1.61213e-07
1.58734e-06
1.59476e-06
3.99465e-06
1.68292e-07
2.10256e-06
2.15835e-06
5.43259e-06
1.82503e-07
2.74913e-06
2.71113e-06
7.56801e-06
1.99671e-07
3.46253e-06
3.56305e-06
9.95084e-06
2.16399e-07
4.38289e-06
4.36187e-06
1.30202e-05
2.3363e-07
5.32924e-06
5.41495e-06
1.43494e-05
2.97937e-07
6.49145e-06
6.49475e-06
1.77072e-05
3.47438e-07
7.74903e-06
7.82457e-06
1.95404e-05
4.82123e-07
9.12702e-06
8.91573e-06
2.20888e-05
5.57101e-07
1.03392e-05
1.10993e-05
2.29119e-05
7.09098e-07
1.24065e-05
1.16711e-05
2.49001e-05
8.91523e-07
1.32086e-05
1.3956e-05
2.72403e-05
1.18903e-06
1.60753e-05
1.55234e-05
2.76747e-05
1.44672e-06
1.73031e-05
1.70358e-05
2.89121e-05
1.76459e-06
1.8374e-05
1.94057e-05
3.10962e-05
2.32558e-06
2.12196e-05
2.05747e-05
3.16431e-05
2.84526e-06
2.26531e-05
2.28349e-05
3.28776e-05
3.34891e-06
2.43378e-05
2.46968e-05
3.39969e-05
4.17865e-06
2.62071e-05
2.56917e-05
3.5121e-05
4.93878e-06
2.77985e-05
2.83662e-05
3.63241e-05
6.02909e-06
2.9749e-05
3.01596e-05
3.74588e-05
6.99306e-06
3.15758e-05
3.10015e-05
3.76569e-05
7.75017e-06
3.18514e-05
3.23389e-05
3.96331e-05
9.55023e-06
3.46991e-05
3.47066e-05
4.09698e-05
1.09002e-05
3.58378e-05
3.55675e-05
4.12438e-05
1.16419e-05
3.64886e-05
3.667e-05
4.17282e-05
1.37839e-05
3.78191e-05
3.81519e-05
4.35947e-05
1.49519e-05
3.97316e-05
3.94249e-05
4.41458e-05
1.68165e-05
4.09039e-05
4.05714e-05
4.50256e-05
1.84296e-05
4.09602e-05
4.1079e-05
4.58151e-05
1.94978e-05
4.17864e-05
4.23988e-05
4.58015e-05
2.10296e-05
4.4095e-05
4.40652e-05
4.74297e-05
2.38535e-05
4.50217e-05
4.45925e-05
4.85456e-05
2.46253e-05
4.51115e-05
4.44556e-05
4.85006e-05
2.53588e-05
4.60785e-05
4.62141e-05
4.80794e-05
2.71361e-05
4.60774e-05
4.70099e-05
5.01497e-05
2.80953e-05
4.84806e-05
4.83863e-05
5.22233e-05
3.06799e-05
4.95592e-05
4.91322e-05
5.13029e-05
3.19243e-05
4.84707e-05
4.84778e-05
4.92376e-05
3.17243e-05
4.89743e-05
4.84603e-05
5.17845e-05
3.2107e-05
5.21142e-05
5.1952e-05
5.57537e-05
3.56009e-05
5.172e-05
5.27604e-05
5.44898e-05
3.63816e-05
5.00844e-05
5.11327e-05
5.15583e-05
3.60083e-05
5.16893e-05
5.05205e-05
5.25743e-05
3.66741e-05
5.48241e-05
5.33933e-05
5.5941e-05
3.92401e-05
5.45816e-05
5.45672e-05
5.60499e-05
3.98101e-05
5.24151e-05
5.3799e-05
5.47741e-05
3.96592e-05
5.26431e-05
5.35379e-05
5.52935e-05
4.04553e-05
5.50044e-05
5.46299e-05
5.6286e-05
4.1793e-05
5.52797e-05
5.47091e-05
5.56503e-05
4.23046e-05
5.53364e-05
5.49394e-05
5.62385e-05
4.32883e-05
5.61874e-05
5.6637e-05
5.81958e-05
4.39154e-05
5.58084e-05
5.60213e-05
5.70319e-05
4.37054e-05
5.52502e-05
5.49999e-05
5.58298e-05
4.40499e-05
5.6958e-05
5.66079e-05
5.7972e-05
4.5781e-05
5.77624e-05
5.78068e-05
5.92094e-05
4.56663e-05
5.56958e-05
5.64137e-05
5.69369e-05
4.46884e-05
5.4829e-05
5.52523e-05
5.56913e-05
4.50727e-05
5.79136e-05
5.68625e-05
5.84654e-05
4.75401e-05
5.96466e-05
5.88784e-05
6.03874e-05
4.77598e-05
5.7287e-05
5.83376e-05
5.86171e-05
4.56734e-05
5.46098e-05
5.5704e-05
5.61964e-05
4.49829e-05
5.53085e-05
5.53599e-05
5.68762e-05
4.66194e-05
5.83566e-05
5.7298e-05
5.88783e-05
4.78919e-05
5.88247e-05
5.78734e-05
5.9032e-05
4.75232e-05
5.68556e-05
5.7626e-05
5.80678e-05
4.6358e-05
5.59285e-05
5.67155e-05
5.75594e-05
4.61003e-05
5.63847e-05
5.61175e-05
5.7493e-05
4.64922e-05
5.67527e-05
5.61648e-05
5.77321e-05
4.62568e-05
5.50469e-05
5.52607e-05
5.7256e-05
3.62258e-07
3.19692e-07
3.00674e-07
3.5154e-07
4.08866e-07
3.14242e-07
2.13165e-07
1.70221e-07
2.0095e-07
1.95298e-07
2.76006e-07
3.25376e-07
3.60065e-07
3.24283e-07
3.34744e-07
3.39845e-07
3.59682e-07
3.63735e-07
2.92941e-07
2.53964e-07
2.85592e-07
2.4484e-07
3.50612e-07
3.30027e-07
9.54781e-07
3.78716e-07
9.79681e-07
3.72008e-07
3.25023e-07
2.64494e-07
3.11906e-07
3.58901e-07
3.42059e-07
3.31525e-07
2.95073e-07
3.19399e-07
3.2261e-07
3.61839e-07
3.72671e-07
2.82842e-07
2.41368e-07
2.74669e-07
2.31685e-07
3.2891e-07
3.1008e-07
9.82563e-07
3.69748e-07
9.91885e-07
3.63496e-07
3.07313e-07
2.58312e-07
2.9418e-07
3.40281e-07
3.25817e-07
3.14892e-07
2.81384e-07
3.01375e-07
3.06453e-07
3.70003e-07
3.66793e-07
2.72033e-07
2.28668e-07
2.64339e-07
2.20571e-07
3.09107e-07
2.93197e-07
9.99025e-07
3.60632e-07
9.93337e-07
3.50687e-07
2.90108e-07
2.5375e-07
2.78399e-07
3.23448e-07
3.11041e-07
2.97049e-07
2.69075e-07
2.85277e-07
2.92201e-07
3.59664e-07
3.23251e-07
2.61864e-07
2.18036e-07
2.5496e-07
2.11007e-07
2.92345e-07
2.78935e-07
9.52893e-07
3.4732e-07
7.38008e-07
3.36614e-07
2.74649e-07
2.50986e-07
2.64665e-07
3.08731e-07
2.97921e-07
2.81677e-07
2.58956e-07
2.70959e-07
2.79993e-07
3.18421e-07
2.92246e-07
2.52912e-07
2.08754e-07
2.47502e-07
2.02517e-07
2.78225e-07
2.67188e-07
6.57975e-07
3.33678e-07
4.45066e-07
3.28471e-07
2.61469e-07
2.51168e-07
2.5231e-07
2.95797e-07
2.85271e-07
2.67291e-07
2.50556e-07
2.55471e-07
2.68458e-07
2.89364e-07
2.70283e-07
2.45917e-07
2.00572e-07
2.40898e-07
1.95152e-07
2.66549e-07
2.55555e-07
3.93765e-07
3.27563e-07
2.94481e-07
3.26687e-07
2.49281e-07
2.44921e-07
2.3981e-07
2.83212e-07
2.73757e-07
2.51542e-07
2.4493e-07
2.4219e-07
2.57401e-07
2.68855e-07
2.54364e-07
2.39048e-07
1.93455e-07
2.33054e-07
1.88581e-07
2.54807e-07
2.42709e-07
2.75757e-07
3.26544e-07
2.45255e-07
3.22278e-07
2.36976e-07
2.28935e-07
2.29229e-07
2.71992e-07
2.63449e-07
2.3968e-07
2.39933e-07
2.32361e-07
2.47515e-07
2.53519e-07
2.43461e-07
2.3091e-07
1.86983e-07
2.2446e-07
1.82529e-07
2.41934e-07
2.29474e-07
2.3967e-07
3.18308e-07
2.28141e-07
3.06501e-07
2.26571e-07
2.07835e-07
2.18903e-07
2.61396e-07
2.51275e-07
2.29924e-07
2.35071e-07
2.21345e-07
2.38321e-07
2.42888e-07
2.34013e-07
2.2225e-07
1.81132e-07
2.16062e-07
1.77119e-07
2.28816e-07
2.17749e-07
2.25325e-07
3.04056e-07
2.18273e-07
3.01663e-07
2.16652e-07
1.88026e-07
2.10827e-07
2.49771e-07
2.46362e-07
2.18171e-07
2.32301e-07
2.09749e-07
2.29199e-07
2.33531e-07
2.2508e-07
2.14064e-07
1.7586e-07
2.08548e-07
1.72376e-07
2.17617e-07
2.11497e-07
2.16107e-07
3.0168e-07
2.10128e-07
3.05076e-07
2.09126e-07
1.74011e-07
2.04856e-07
2.46259e-07
2.46691e-07
2.07491e-07
2.32316e-07
2.01389e-07
2.20887e-07
2.24712e-07
2.17064e-07
2.0683e-07
1.71267e-07
2.0183e-07
1.68399e-07
2.11626e-07
2.04679e-07
2.08371e-07
3.10487e-07
2.03553e-07
3.32225e-07
2.03946e-07
1.67205e-07
2.033e-07
2.47203e-07
2.52171e-07
1.99486e-07
2.33026e-07
1.94967e-07
2.1356e-07
2.1683e-07
2.09917e-07
2.00289e-07
1.67502e-07
1.95791e-07
1.65253e-07
2.04711e-07
1.97239e-07
2.0201e-07
3.42683e-07
1.97747e-07
3.84283e-07
2.03358e-07
1.63824e-07
2.04541e-07
2.53566e-07
2.63424e-07
1.93906e-07
2.35869e-07
1.91324e-07
2.0773e-07
2.09859e-07
2.04087e-07
1.94514e-07
1.64599e-07
1.9191e-07
1.63605e-07
1.97369e-07
1.91229e-07
1.96688e-07
3.99422e-07
1.93278e-07
4.36133e-07
2.05107e-07
1.62046e-07
2.0882e-07
2.65845e-07
2.76271e-07
1.90662e-07
2.43381e-07
1.87632e-07
2.03604e-07
2.04253e-07
2.00433e-07
1.91882e-07
1.63346e-07
1.92808e-07
1.63677e-07
1.91561e-07
1.87456e-07
1.92109e-07
4.43579e-07
1.91823e-07
4.49846e-07
2.11886e-07
1.62849e-07
2.26216e-07
2.77838e-07
2.79384e-07
1.86459e-07
2.55259e-07
1.86223e-07
2.03537e-07
2.01022e-07
2.00761e-07
1.93773e-07
1.64012e-07
1.9745e-07
1.66652e-07
1.88235e-07
1.87114e-07
1.92176e-07
4.47274e-07
1.96127e-07
3.79296e-07
2.31487e-07
1.66761e-07
2.48522e-07
2.7844e-07
2.53735e-07
1.86713e-07
2.72025e-07
1.90575e-07
2.09696e-07
2.02268e-07
2.06109e-07
1.9908e-07
1.67967e-07
2.0505e-07
1.74055e-07
1.88769e-07
1.92111e-07
1.98175e-07
3.54891e-07
2.0657e-07
3.01885e-07
2.57534e-07
1.75519e-07
3.02922e-07
2.53252e-07
2.46782e-07
1.93198e-07
2.89188e-07
2.01574e-07
2.274e-07
2.09429e-07
2.20715e-07
2.07418e-07
1.76875e-07
2.19813e-07
1.88839e-07
1.95608e-07
2.05958e-07
2.10973e-07
2.92125e-07
2.26665e-07
2.87274e-07
3.24978e-07
1.91192e-07
4.06298e-07
2.48633e-07
2.55299e-07
2.05573e-07
3.11457e-07
2.2415e-07
2.66708e-07
2.2721e-07
2.52357e-07
2.24893e-07
1.93842e-07
2.45122e-07
2.13769e-07
2.12296e-07
2.35688e-07
2.34823e-07
2.90554e-07
2.62438e-07
3.12316e-07
4.31212e-07
2.17772e-07
5.03914e-07
2.62832e-07
2.8594e-07
2.31196e-07
3.30544e-07
2.63538e-07
3.21881e-07
2.64814e-07
3.14703e-07
2.54232e-07
2.23004e-07
2.8577e-07
2.55474e-07
2.48169e-07
2.9294e-07
2.7282e-07
3.14404e-07
3.2139e-07
3.28008e-07
5.22397e-07
2.60912e-07
5.54609e-07
2.91665e-07
3.24977e-07
2.72605e-07
3.52218e-07
3.12872e-07
3.77234e-07
3.36571e-07
4.28348e-07
3.00378e-07
2.68463e-07
3.52411e-07
3.26516e-07
3.12808e-07
4.11002e-07
3.38036e-07
3.35316e-07
4.0553e-07
3.82152e-07
5.619e-07
3.30432e-07
5.37298e-07
3.45984e-07
4.36775e-07
3.36607e-07
3.88639e-07
3.88016e-07
4.68213e-07
4.66178e-07
6.438e-07
3.74261e-07
3.47496e-07
4.53001e-07
4.26161e-07
4.49777e-07
6.05253e-07
4.41942e-07
4.09797e-07
5.27426e-07
4.59206e-07
5.21563e-07
4.32234e-07
5.45034e-07
4.7761e-07
6.17309e-07
4.14532e-07
4.61407e-07
5.2381e-07
6.91626e-07
6.97458e-07
1.01992e-06
4.83405e-07
4.58011e-07
6.1732e-07
5.74551e-07
6.63645e-07
9.54263e-07
5.71592e-07
4.7426e-07
7.34545e-07
6.14175e-07
5.70884e-07
5.80523e-07
6.47646e-07
6.56098e-07
9.59711e-07
5.6775e-07
5.90827e-07
7.23801e-07
1.02177e-06
1.11968e-06
1.5526e-06
6.55074e-07
6.26722e-07
8.17986e-07
7.91422e-07
1.05518e-06
1.55172e-06
7.78667e-07
6.69054e-07
9.81287e-07
8.09391e-07
6.76531e-07
7.97365e-07
8.06271e-07
1.07505e-06
1.50762e-06
7.60554e-07
7.96703e-07
9.38756e-07
1.46142e-06
1.72108e-06
2.45902e-06
8.96217e-07
8.55092e-07
1.11001e-06
1.09326e-06
1.68557e-06
2.37607e-06
1.07002e-06
8.75593e-07
1.28207e-06
1.12579e-06
8.83735e-07
1.09444e-06
1.10946e-06
1.63579e-06
2.40175e-06
1.04549e-06
1.11001e-06
1.30149e-06
2.56111e-06
2.61098e-06
3.69072e-06
1.18257e-06
1.17946e-06
1.54218e-06
1.4754e-06
2.59797e-06
3.58897e-06
1.35586e-06
1.21069e-06
1.73265e-06
1.49801e-06
1.16824e-06
1.47466e-06
1.51831e-06
2.6162e-06
3.55524e-06
1.34649e-06
1.488e-06
1.72339e-06
3.60166e-06
4.05621e-06
5.13551e-06
1.66208e-06
1.58951e-06
1.97072e-06
1.96687e-06
3.85517e-06
5.18756e-06
1.85315e-06
1.60363e-06
2.19188e-06
2.01776e-06
1.65884e-06
1.96228e-06
1.94158e-06
3.82166e-06
5.22091e-06
1.86555e-06
2.00985e-06
2.16954e-06
5.27355e-06
5.37787e-06
7.21106e-06
2.12136e-06
2.1068e-06
2.62508e-06
2.58188e-06
5.53601e-06
7.24888e-06
2.33484e-06
2.16169e-06
2.70676e-06
2.57045e-06
2.06744e-06
2.5756e-06
2.60687e-06
5.61122e-06
7.15499e-06
2.29327e-06
2.56223e-06
2.59692e-06
7.03551e-06
7.69864e-06
9.45024e-06
2.77087e-06
2.75814e-06
3.30128e-06
3.28613e-06
7.68748e-06
9.51558e-06
2.89166e-06
2.73165e-06
3.70986e-06
3.3146e-06
2.75658e-06
3.28387e-06
3.21518e-06
7.51118e-06
9.41155e-06
2.73425e-06
3.31944e-06
3.5985e-06
9.45094e-06
9.93618e-06
1.23087e-05
3.5423e-06
3.46728e-06
4.29461e-06
4.15144e-06
9.9555e-06
1.19039e-05
3.93546e-06
3.54446e-06
4.47288e-06
4.19798e-06
3.50235e-06
4.13185e-06
4.33898e-06
9.96878e-06
1.20706e-05
3.974e-06
4.17216e-06
4.5871e-06
1.25695e-05
1.2764e-05
1.40832e-05
4.48441e-06
4.40147e-06
5.03288e-06
5.1241e-06
1.24446e-05
1.44932e-05
4.62347e-06
4.38639e-06
5.07181e-06
5.1763e-06
4.43755e-06
5.10819e-06
4.97737e-06
1.25489e-05
1.4366e-05
4.61904e-06
5.12834e-06
4.89173e-06
1.39104e-05
1.45387e-05
1.70234e-05
5.34496e-06
5.34366e-06
6.48494e-06
6.15805e-06
1.49658e-05
1.67052e-05
5.33941e-06
5.47314e-06
6.43156e-06
6.19893e-06
5.38725e-06
6.13659e-06
6.25468e-06
1.48796e-05
1.69151e-05
5.3704e-06
6.18832e-06
6.38038e-06
1.71447e-05
1.75944e-05
1.89766e-05
6.73104e-06
6.5204e-06
7.30336e-06
7.4908e-06
1.72271e-05
1.92659e-05
6.68857e-06
6.53112e-06
7.33417e-06
7.68437e-06
6.44858e-06
7.46516e-06
7.4691e-06
1.74171e-05
1.90999e-05
6.54067e-06
7.55221e-06
7.63598e-06
1.90248e-05
1.93818e-05
2.13456e-05
7.65983e-06
7.769e-06
9.19256e-06
8.79097e-06
1.97234e-05
2.11174e-05
7.7093e-06
7.92962e-06
9.03263e-06
8.61171e-06
7.89399e-06
8.7547e-06
9.04405e-06
1.95243e-05
2.11265e-05
8.05068e-06
8.49015e-06
9.02525e-06
2.17433e-05
2.18897e-05
2.30703e-05
9.63897e-06
9.17142e-06
1.04284e-05
1.00187e-05
2.15381e-05
2.29185e-05
9.35982e-06
9.04713e-06
1.01277e-05
1.10028e-05
9.41709e-06
9.96437e-06
1.00566e-05
2.15921e-05
2.33743e-05
9.46449e-06
1.07356e-05
1.04067e-05
2.26607e-05
2.33654e-05
2.45132e-05
1.064e-05
1.03912e-05
1.17158e-05
1.20988e-05
2.33594e-05
2.47811e-05
1.04467e-05
1.15435e-05
1.16998e-05
1.21169e-05
1.0179e-05
1.20529e-05
1.13651e-05
2.38416e-05
2.46248e-05
1.04821e-05
1.14423e-05
1.12135e-05
2.43206e-05
2.49494e-05
2.6177e-05
1.21402e-05
1.24548e-05
1.33515e-05
1.28654e-05
2.5093e-05
2.58936e-05
1.21065e-05
1.21722e-05
1.31906e-05
1.30829e-05
1.19839e-05
1.28345e-05
1.39404e-05
2.48778e-05
2.60968e-05
1.20943e-05
1.33325e-05
1.45385e-05
2.69314e-05
2.65285e-05
2.77682e-05
1.37879e-05
1.32157e-05
1.52707e-05
1.53525e-05
2.62883e-05
2.80655e-05
1.36189e-05
1.36627e-05
1.51544e-05
1.55285e-05
1.44996e-05
1.53144e-05
1.51969e-05
2.65838e-05
2.77896e-05
1.51077e-05
1.52944e-05
1.57502e-05
2.75553e-05
2.81346e-05
2.89788e-05
1.57899e-05
1.61214e-05
1.69564e-05
1.73627e-05
2.84527e-05
2.90314e-05
1.56785e-05
1.59676e-05
1.6864e-05
1.6839e-05
1.52356e-05
1.72473e-05
1.59303e-05
2.80601e-05
2.88418e-05
1.57462e-05
1.64797e-05
1.57913e-05
2.84063e-05
2.92269e-05
3.00374e-05
1.72257e-05
1.74247e-05
1.83092e-05
1.77021e-05
2.91653e-05
2.96984e-05
1.71684e-05
1.72816e-05
1.83554e-05
1.89045e-05
1.67598e-05
1.76644e-05
1.93712e-05
2.91705e-05
3.03871e-05
1.61599e-05
1.89561e-05
1.95234e-05
3.08202e-05
3.03791e-05
3.15596e-05
1.88402e-05
1.8315e-05
2.05573e-05
2.07734e-05
3.01145e-05
3.17558e-05
1.88806e-05
1.93246e-05
2.0502e-05
2.02417e-05
1.99041e-05
2.07207e-05
2.03974e-05
3.06867e-05
3.13453e-05
2.02665e-05
2.02015e-05
2.09973e-05
3.14721e-05
3.18521e-05
3.26273e-05
2.10085e-05
2.12602e-05
2.23318e-05
2.22749e-05
3.20076e-05
3.26272e-05
2.09689e-05
2.06579e-05
2.22996e-05
2.23672e-05
2.05399e-05
2.22128e-05
2.22495e-05
3.15955e-05
3.27213e-05
2.10623e-05
2.22398e-05
2.22272e-05
3.25392e-05
3.28811e-05
3.36582e-05
2.27747e-05
2.27306e-05
2.38729e-05
2.41259e-05
3.28757e-05
3.37251e-05
2.27351e-05
2.29573e-05
2.39114e-05
2.41772e-05
2.27533e-05
2.40513e-05
2.38357e-05
3.30447e-05
3.37486e-05
2.26764e-05
2.43957e-05
2.40219e-05
3.37109e-05
3.3909e-05
3.4828e-05
2.42789e-05
2.43826e-05
2.58267e-05
2.55181e-05
3.39542e-05
3.47076e-05
2.43238e-05
2.44058e-05
2.57436e-05
2.52402e-05
2.44583e-05
2.55862e-05
2.61498e-05
3.39376e-05
3.45512e-05
2.46522e-05
2.53308e-05
2.58222e-05
3.49344e-05
3.51007e-05
3.59519e-05
2.62747e-05
2.61779e-05
2.74763e-05
2.7689e-05
3.50115e-05
3.60183e-05
2.61774e-05
2.57629e-05
2.74854e-05
2.80444e-05
2.63891e-05
2.75197e-05
2.72453e-05
3.48291e-05
3.62248e-05
2.60434e-05
2.75546e-05
2.74427e-05
3.59605e-05
3.6209e-05
3.72075e-05
2.78911e-05
2.79577e-05
2.93827e-05
2.90644e-05
3.62212e-05
3.70455e-05
2.79628e-05
2.86603e-05
2.94715e-05
2.92661e-05
2.78531e-05
2.90988e-05
2.97513e-05
3.65756e-05
3.72591e-05
2.81363e-05
3.00138e-05
2.99462e-05
3.73458e-05
3.74682e-05
3.79939e-05
2.99608e-05
2.96694e-05
3.08293e-05
3.14151e-05
3.737e-05
3.8399e-05
2.99408e-05
2.93326e-05
3.06398e-05
3.07074e-05
3.00396e-05
3.13819e-05
3.02849e-05
3.73701e-05
3.78694e-05
3.02052e-05
3.05473e-05
3.03358e-05
3.74908e-05
3.81199e-05
3.89535e-05
3.09241e-05
3.16727e-05
3.21104e-05
3.18385e-05
3.85252e-05
3.86454e-05
3.08106e-05
3.14589e-05
3.22269e-05
3.24414e-05
3.04798e-05
3.17095e-05
3.22536e-05
3.81831e-05
3.90787e-05
3.0386e-05
3.18939e-05
3.20746e-05
3.92565e-05
3.93098e-05
4.04362e-05
3.26812e-05
3.19431e-05
3.40831e-05
3.38513e-05
3.87786e-05
4.03367e-05
3.28022e-05
3.25141e-05
3.4082e-05
3.37291e-05
3.28459e-05
3.39717e-05
3.45255e-05
3.92245e-05
4.02466e-05
3.28435e-05
3.43013e-05
3.46635e-05
4.0741e-05
4.06279e-05
4.10972e-05
3.45369e-05
3.4609e-05
3.5345e-05
3.58097e-05
4.07321e-05
4.15115e-05
3.44464e-05
3.43956e-05
3.52651e-05
3.55414e-05
3.49533e-05
3.5777e-05
3.53875e-05
4.0587e-05
4.12304e-05
3.51132e-05
3.53002e-05
3.56379e-05
4.12233e-05
4.12256e-05
4.18742e-05
3.54335e-05
3.58843e-05
3.63216e-05
3.62603e-05
4.15856e-05
4.17594e-05
3.54335e-05
3.57768e-05
3.63572e-05
3.63283e-05
3.53874e-05
3.61673e-05
3.57061e-05
4.13549e-05
4.1968e-05
3.56338e-05
3.64179e-05
3.56852e-05
4.14233e-05
4.21474e-05
4.31319e-05
3.68302e-05
3.6574e-05
3.7919e-05
3.7418e-05
4.19215e-05
4.26485e-05
3.68144e-05
3.6546e-05
3.79013e-05
3.77137e-05
3.62915e-05
3.74112e-05
3.82155e-05
4.2159e-05
4.28608e-05
3.60073e-05
3.77317e-05
3.7991e-05
4.32803e-05
4.32799e-05
4.37933e-05
3.80991e-05
3.77905e-05
3.89332e-05
3.9238e-05
4.2896e-05
4.42554e-05
3.81414e-05
3.81634e-05
3.89939e-05
3.9127e-05
3.86733e-05
3.92826e-05
3.91126e-05
4.31056e-05
4.40453e-05
3.85649e-05
3.91385e-05
3.92774e-05
4.40829e-05
4.40311e-05
4.48897e-05
3.93367e-05
3.96946e-05
4.03414e-05
4.07155e-05
4.45522e-05
4.51969e-05
3.9345e-05
3.93842e-05
4.02215e-05
4.03007e-05
3.91821e-05
4.07336e-05
4.01723e-05
4.42258e-05
4.48134e-05
3.93487e-05
4.0331e-05
4.01546e-05
4.47466e-05
4.50383e-05
4.54839e-05
4.06039e-05
4.08924e-05
4.13345e-05
4.09877e-05
4.52668e-05
4.50429e-05
4.04813e-05
4.06021e-05
4.13813e-05
4.11402e-05
4.06393e-05
4.09825e-05
4.1575e-05
4.49714e-05
4.52649e-05
4.05777e-05
4.09599e-05
4.1583e-05
4.57458e-05
4.56208e-05
4.58991e-05
4.14696e-05
4.09755e-05
4.16901e-05
4.13114e-05
4.50542e-05
4.55524e-05
4.15703e-05
4.12221e-05
4.1776e-05
4.18281e-05
4.16604e-05
4.12144e-05
4.1666e-05
4.53455e-05
4.60228e-05
4.17063e-05
4.1947e-05
4.17421e-05
4.57509e-05
4.60304e-05
4.72424e-05
4.19263e-05
4.19005e-05
4.3332e-05
4.35903e-05
4.59157e-05
4.75831e-05
4.19434e-05
4.22445e-05
4.33146e-05
4.36514e-05
4.1702e-05
4.3599e-05
4.31365e-05
4.63329e-05
4.76432e-05
4.17742e-05
4.37111e-05
4.31061e-05
4.70527e-05
4.7548e-05
4.8222e-05
4.38324e-05
4.40551e-05
4.48588e-05
4.4882e-05
4.78815e-05
4.8346e-05
4.38188e-05
4.40449e-05
4.48293e-05
4.46514e-05
4.37584e-05
4.49483e-05
4.49934e-05
4.7847e-05
4.79686e-05
4.36871e-05
4.45874e-05
4.48926e-05
4.84374e-05
4.82788e-05
4.81383e-05
4.49633e-05
4.49552e-05
4.49523e-05
4.49893e-05
4.83672e-05
4.82778e-05
4.49193e-05
4.46634e-05
4.48954e-05
4.45684e-05
4.51654e-05
4.50596e-05
4.52322e-05
4.79639e-05
4.76005e-05
4.51234e-05
4.44526e-05
4.5305e-05
4.85048e-05
4.81748e-05
4.91212e-05
4.49522e-05
4.50407e-05
4.57844e-05
4.60256e-05
4.83963e-05
4.91681e-05
4.48984e-05
4.45801e-05
4.58375e-05
4.58232e-05
4.51696e-05
4.59432e-05
4.50531e-05
4.76649e-05
4.91551e-05
4.52811e-05
4.56127e-05
4.50584e-05
4.80547e-05
4.93364e-05
4.9485e-05
4.62166e-05
4.63117e-05
4.66739e-05
4.65e-05
4.92472e-05
4.90213e-05
4.62528e-05
4.63983e-05
4.66554e-05
4.71222e-05
4.51179e-05
4.60691e-05
4.64634e-05
4.94882e-05
4.99656e-05
4.50665e-05
4.6949e-05
4.64373e-05
4.96264e-05
4.95192e-05
5.02472e-05
4.66939e-05
4.64908e-05
4.71068e-05
4.69328e-05
4.90285e-05
5.04269e-05
4.66979e-05
4.71407e-05
4.72969e-05
4.72808e-05
4.70746e-05
4.76153e-05
4.87761e-05
4.99955e-05
5.04946e-05
4.7238e-05
4.78902e-05
4.90649e-05
5.20341e-05
5.05748e-05
5.1797e-05
4.76271e-05
4.7751e-05
4.91571e-05
4.93267e-05
5.09929e-05
5.22017e-05
4.77548e-05
4.76563e-05
4.91825e-05
4.91602e-05
4.91143e-05
4.95613e-05
4.9263e-05
5.08158e-05
5.17264e-05
4.93304e-05
4.91205e-05
4.92994e-05
5.15259e-05
5.1917e-05
5.16921e-05
4.94041e-05
4.93993e-05
4.95027e-05
4.90802e-05
5.21924e-05
5.07541e-05
4.94315e-05
4.93066e-05
4.95342e-05
4.92189e-05
4.90877e-05
4.87679e-05
4.78473e-05
5.17543e-05
5.10197e-05
4.89349e-05
4.87505e-05
4.75361e-05
4.93321e-05
5.1651e-05
5.10842e-05
4.94356e-05
4.8856e-05
4.90391e-05
4.87938e-05
5.06374e-05
5.11204e-05
4.94596e-05
4.8972e-05
4.89185e-05
4.85542e-05
4.76017e-05
4.84643e-05
4.78721e-05
5.09316e-05
5.06542e-05
4.7302e-05
4.82694e-05
4.77019e-05
5.0813e-05
5.11105e-05
5.27357e-05
4.90366e-05
4.90583e-05
5.02073e-05
5.13888e-05
5.16702e-05
5.42885e-05
4.88899e-05
4.85895e-05
4.97954e-05
5.06357e-05
4.8943e-05
5.17445e-05
5.24462e-05
5.09446e-05
5.3668e-05
4.90003e-05
5.12636e-05
5.27039e-05
5.54634e-05
5.32251e-05
5.42135e-05
5.09917e-05
5.18346e-05
5.21416e-05
5.20194e-05
5.4486e-05
5.36593e-05
5.07484e-05
5.14942e-05
5.2245e-05
5.25816e-05
5.29213e-05
5.2121e-05
5.296e-05
5.40865e-05
5.47069e-05
5.32749e-05
5.27692e-05
5.34909e-05
5.4899e-05
5.42298e-05
5.33642e-05
5.21843e-05
5.181e-05
5.17879e-05
5.05476e-05
5.33965e-05
5.15821e-05
5.2326e-05
5.25855e-05
5.202e-05
5.1757e-05
5.24517e-05
5.02718e-05
5.05058e-05
5.4658e-05
5.3e-05
5.31251e-05
5.1631e-05
5.06753e-05
5.17358e-05
5.3264e-05
5.2941e-05
5.14802e-05
5.03385e-05
5.1133e-05
5.05544e-05
5.15259e-05
5.30679e-05
5.16931e-05
5.13474e-05
5.12489e-05
5.08392e-05
5.01839e-05
5.05383e-05
5.02249e-05
5.28273e-05
5.23517e-05
5.01411e-05
5.04852e-05
4.97656e-05
5.20036e-05
5.31149e-05
5.50489e-05
5.11842e-05
5.13824e-05
5.29262e-05
5.40935e-05
5.38483e-05
5.66795e-05
5.12698e-05
5.08765e-05
5.27284e-05
5.27312e-05
5.08943e-05
5.44198e-05
5.36209e-05
5.25552e-05
5.50213e-05
4.99888e-05
5.26024e-05
5.30361e-05
5.56056e-05
5.53823e-05
5.58207e-05
5.34964e-05
5.45253e-05
5.41962e-05
5.4696e-05
5.68959e-05
5.61659e-05
5.33607e-05
5.34426e-05
5.41775e-05
5.44086e-05
5.41264e-05
5.49313e-05
5.45539e-05
5.54419e-05
5.61842e-05
5.37617e-05
5.4527e-05
5.45621e-05
5.61528e-05
5.57807e-05
5.47221e-05
5.41953e-05
5.44476e-05
5.35787e-05
5.29378e-05
5.58483e-05
5.3755e-05
5.41834e-05
5.44239e-05
5.36409e-05
5.38293e-05
5.44976e-05
5.27501e-05
5.34471e-05
5.61646e-05
5.50193e-05
5.45575e-05
5.4106e-05
5.39284e-05
5.48283e-05
5.46441e-05
5.4727e-05
5.33313e-05
5.26596e-05
5.3182e-05
5.25997e-05
5.36409e-05
5.40644e-05
5.33918e-05
5.35262e-05
5.32162e-05
5.32651e-05
5.32124e-05
5.23102e-05
5.31473e-05
5.49104e-05
5.47848e-05
5.37223e-05
5.35036e-05
5.36288e-05
5.50532e-05
5.4966e-05
5.64147e-05
5.33157e-05
5.2926e-05
5.47593e-05
5.47227e-05
5.44824e-05
5.63781e-05
5.33124e-05
5.33256e-05
5.4667e-05
5.44688e-05
5.33822e-05
5.46731e-05
5.46879e-05
5.49606e-05
5.6102e-05
5.37343e-05
5.44196e-05
5.45603e-05
5.62605e-05
5.65619e-05
5.64536e-05
5.50259e-05
5.50115e-05
5.51828e-05
5.52379e-05
5.65507e-05
5.65656e-05
5.49555e-05
5.47211e-05
5.51491e-05
5.49112e-05
5.48077e-05
5.52814e-05
5.47619e-05
5.62129e-05
5.60762e-05
5.4622e-05
5.47449e-05
5.45121e-05
5.57251e-05
5.64175e-05
5.60506e-05
5.51586e-05
5.52337e-05
5.49834e-05
5.521e-05
5.65549e-05
5.65217e-05
5.51293e-05
5.48961e-05
5.49618e-05
5.48635e-05
5.46609e-05
5.52759e-05
5.46732e-05
5.60493e-05
5.60212e-05
5.43924e-05
5.47138e-05
5.44397e-05
5.5826e-05
5.6081e-05
5.72143e-05
5.49939e-05
5.52545e-05
5.57745e-05
5.59935e-05
5.6633e-05
5.74209e-05
5.49741e-05
5.49738e-05
5.58117e-05
5.62767e-05
5.49446e-05
5.60776e-05
5.64764e-05
5.62593e-05
5.78663e-05
5.48371e-05
5.64438e-05
5.65882e-05
5.80911e-05
5.74013e-05
5.7429e-05
5.60904e-05
5.61427e-05
5.63001e-05
5.61033e-05
5.74677e-05
5.69315e-05
5.6129e-05
5.65115e-05
5.63108e-05
5.64516e-05
5.66634e-05
5.60739e-05
5.64846e-05
5.79886e-05
5.72916e-05
5.67733e-05
5.64719e-05
5.65217e-05
5.72936e-05
5.73371e-05
5.65038e-05
5.62329e-05
5.58896e-05
5.55878e-05
5.53423e-05
5.68081e-05
5.62208e-05
5.62194e-05
5.60899e-05
5.55161e-05
5.508e-05
5.60342e-05
5.52544e-05
5.50309e-05
5.70496e-05
5.58487e-05
5.60112e-05
5.5045e-05
5.50335e-05
5.58303e-05
5.64824e-05
5.72905e-05
5.54989e-05
5.53321e-05
5.57932e-05
5.63044e-05
5.62547e-05
5.79447e-05
5.54365e-05
5.50139e-05
5.57929e-05
5.57476e-05
5.49719e-05
5.63498e-05
5.58374e-05
5.58438e-05
5.74225e-05
5.49989e-05
5.58859e-05
5.60147e-05
5.75491e-05
5.76215e-05
5.85502e-05
5.63603e-05
5.68936e-05
5.73929e-05
5.7696e-05
5.82886e-05
5.90665e-05
5.6381e-05
5.65018e-05
5.74249e-05
5.77687e-05
5.6626e-05
5.77804e-05
5.79021e-05
5.78359e-05
5.9039e-05
5.67453e-05
5.77661e-05
5.78662e-05
5.9201e-05
5.85618e-05
5.74454e-05
5.74291e-05
5.76777e-05
5.67962e-05
5.62866e-05
5.90039e-05
5.66629e-05
5.7468e-05
5.78253e-05
5.69141e-05
5.71169e-05
5.79366e-05
5.63226e-05
5.68758e-05
5.90578e-05
5.7595e-05
5.78839e-05
5.70034e-05
5.67544e-05
5.72748e-05
5.72554e-05
5.65513e-05
5.63424e-05
5.56881e-05
5.55766e-05
5.48572e-05
5.63412e-05
5.54434e-05
5.6465e-05
5.65281e-05
5.56549e-05
5.54457e-05
5.61816e-05
5.48076e-05
5.49992e-05
5.73159e-05
5.61828e-05
5.60897e-05
5.53297e-05
5.49337e-05
5.5681e-05
5.65638e-05
5.78595e-05
5.55497e-05
5.48836e-05
5.64463e-05
5.70132e-05
5.558e-05
5.87525e-05
5.56038e-05
5.5361e-05
5.62175e-05
5.59563e-05
5.4958e-05
5.69582e-05
5.62569e-05
5.61769e-05
5.76037e-05
5.48917e-05
5.59917e-05
5.6204e-05
5.79408e-05
5.82248e-05
5.95204e-05
5.71414e-05
5.79353e-05
5.85297e-05
5.95235e-05
5.92825e-05
6.0992e-05
5.69107e-05
5.67537e-05
5.83334e-05
5.83832e-05
5.7216e-05
5.95604e-05
5.90008e-05
5.80541e-05
5.96588e-05
5.71981e-05
5.86187e-05
5.90817e-05
6.02932e-05
5.96298e-05
5.90313e-05
5.87059e-05
5.9606e-05
5.84911e-05
5.84242e-05
6.10232e-05
5.85772e-05
5.85445e-05
5.86293e-05
5.84868e-05
5.86283e-05
5.91735e-05
5.84505e-05
5.86945e-05
5.97868e-05
5.93303e-05
5.92871e-05
5.88342e-05
5.89257e-05
5.9087e-05
5.87032e-05
5.67573e-05
5.78266e-05
5.72816e-05
5.59173e-05
5.49774e-05
5.79825e-05
5.53853e-05
5.80436e-05
5.82523e-05
5.61661e-05
5.62995e-05
5.77619e-05
5.49553e-05
5.56527e-05
5.90134e-05
5.69261e-05
5.80261e-05
5.61468e-05
5.57286e-05
5.63307e-05
5.6614e-05
5.6503e-05
5.55562e-05
5.46224e-05
5.53051e-05
5.46164e-05
5.52458e-05
5.6043e-05
5.57892e-05
5.58863e-05
5.54668e-05
5.54673e-05
5.53135e-05
5.46498e-05
5.52188e-05
5.67583e-05
5.64294e-05
5.53357e-05
5.52953e-05
5.51428e-05
5.64973e-05
5.67406e-05
5.84528e-05
5.54557e-05
5.52067e-05
5.72317e-05
5.77788e-05
5.66129e-05
5.9244e-05
5.55466e-05
5.551e-05
5.70529e-05
5.68345e-05
5.55699e-05
5.78503e-05
5.74909e-05
5.65911e-05
5.81606e-05
5.53805e-05
5.68605e-05
5.72653e-05
5.86945e-05
5.86741e-05
5.91344e-05
5.76733e-05
5.83064e-05
5.82196e-05
5.88764e-05
5.95279e-05
6.00801e-05
5.74751e-05
5.72638e-05
5.80055e-05
5.78268e-05
5.78713e-05
5.88621e-05
5.81986e-05
5.83782e-05
5.88037e-05
5.76577e-05
5.78505e-05
5.8022e-05
5.90775e-05
5.91409e-05
5.83457e-05
5.82219e-05
5.88512e-05
5.75177e-05
5.74561e-05
6.00281e-05
5.81232e-05
5.80154e-05
5.78559e-05
5.7585e-05
5.77541e-05
5.81644e-05
5.73691e-05
5.72421e-05
5.88223e-05
5.86864e-05
5.80072e-05
5.77374e-05
5.73778e-05
5.81353e-05
5.82338e-05
5.74995e-05
5.71449e-05
5.69125e-05
5.63472e-05
5.59791e-05
5.78876e-05
5.69435e-05
5.72851e-05
5.76234e-05
5.65182e-05
5.6903e-05
5.69538e-05
5.59856e-05
5.63671e-05
5.8669e-05
5.80088e-05
5.71567e-05
5.69472e-05
5.65739e-05
5.75709e-05
5.74767e-05
5.73681e-05
5.62378e-05
5.5912e-05
5.61642e-05
5.60719e-05
5.69406e-05
5.7444e-05
5.6381e-05
5.66726e-05
5.62021e-05
5.61478e-05
5.62935e-05
5.61179e-05
5.62515e-05
5.79228e-05
5.72621e-05
5.64612e-05
5.61692e-05
5.62815e-05
5.74582e-05
5.74156e-05
5.76698e-05
5.62217e-05
5.63426e-05
5.65425e-05
5.67133e-05
5.76174e-05
5.79928e-05
5.62079e-05
5.6101e-05
5.64021e-05
5.60916e-05
5.63177e-05
5.67456e-05
5.65902e-05
5.72501e-05
5.72523e-05
5.62839e-05
5.60975e-05
5.64154e-05
5.77058e-05
5.7695e-05
5.74244e-05
5.65763e-05
5.67211e-05
5.63825e-05
5.62174e-05
5.7996e-05
5.71627e-05
5.64536e-05
5.61717e-05
5.63598e-05
5.6248e-05
5.66172e-05
5.62168e-05
5.63593e-05
5.73176e-05
5.7357e-05
5.64567e-05
5.62358e-05
5.63286e-05
5.73996e-05
5.7312e-05
5.52867e-05
5.50575e-05
5.69942e-05
5.53121e-05
5.52717e-05
4.61656e-05
4.61409e-05
4.62048e-05
5.52233e-05
5.731e-05
5.52532e-05
2.57912e-07
2.74285e-07
1.20651e-07
1.62388e-07
5.62317e-07
2.71961e-07
1.28581e-07
2.72479e-07
1.35798e-07
3.23802e-07
1.01956e-07
2.22016e-07
3.466e-07
2.6308e-07
4.50942e-07
2.95307e-07
4.90601e-06
2.55887e-07
6.56816e-06
1.3078e-05
2.04272e-05
3.57504e-07
6.00502e-06
3.17928e-07
8.02753e-06
1.71253e-07
2.02429e-07
1.96701e-07
2.15748e-07
1.70562e-07
2.01867e-07
1.96096e-07
5.22205e-07
5.12674e-07
5.59738e-07
2.68014e-07
5.31903e-07
5.01467e-07
5.63526e-07
1.36624e-05
2.1361e-05
1.26404e-07
1.54305e-07
5.84359e-07
3.01565e-07
1.30602e-07
1.52836e-07
5.7295e-07
1.89587e-06
1.9372e-06
3.31279e-07
1.86755e-06
1.91297e-06
4.8445e-07
9.65095e-06
4.01582e-07
1.24911e-05
3.5172e-05
4.52389e-05
5.48496e-07
1.2061e-05
4.62727e-07
1.5332e-05
1.69754e-07
2.01034e-07
1.9523e-07
2.08069e-07
1.6716e-07
1.98424e-07
1.92626e-07