/*--------------------------------*- C++ -*----------------------------------*\
| =========                 |                                                 |
| \\      /  F ield         | OpenFOAM: The Open Source CFD Toolbox           |
|  \\    /   O peration     | Version:  v2012                                 |
|   \\  /    A nd           | Website:  www.openfoam.com                      |
|    \\/     M anipulation  |                                                 |
\*---------------------------------------------------------------------------*/
FoamFile
{
    version     2.0;
    format      ascii;
    class       volScalarField;
    location    "700";
    object      nut;
}
// * * * * * * * * * * * * * * * * * * * * * * * * * * * * * * * * * * * * * //

dimensions      [0 2 -1 0 0 0 0];


internalField   nonuniform List<scalar> 
171728
(
2.00303e-06
1.70141e-06
1.81861e-06
2.14915e-06
1.99201e-06
1.69183e-06
1.80044e-06
2.12474e-06
2.12712e-06
1.71565e-06
1.7759e-06
2.10168e-06
2.36225e-06
1.76414e-06
1.75937e-06
2.08431e-06
2.32418e-06
1.90169e-06
1.74948e-06
2.07598e-06
2.2149e-06
2.1562e-06
1.74309e-06
2.06181e-06
2.14375e-06
2.27897e-06
1.7557e-06
2.0339e-06
2.12891e-06
2.16065e-06
1.75176e-06
1.99614e-06
2.12728e-06
1.88444e-06
1.72969e-06
1.93892e-06
2.12461e-06
1.60532e-06
1.72371e-06
1.85364e-06
2.12032e-06
1.41968e-06
1.73481e-06
1.75488e-06
2.12468e-06
1.30758e-06
1.73785e-06
1.64714e-06
2.1358e-06
1.21385e-06
1.75273e-06
1.54079e-06
2.14878e-06
1.12188e-06
1.8058e-06
1.43684e-06
2.16735e-06
1.03947e-06
1.84856e-06
1.37035e-06
2.19412e-06
9.66161e-07
1.94158e-06
1.34007e-06
2.20966e-06
9.18787e-07
1.91732e-06
1.38194e-06
2.22311e-06
9.02259e-07
1.89578e-06
1.56287e-06
2.23446e-06
9.30228e-07
1.71271e-06
1.7554e-06
2.23829e-06
1.017e-06
1.60328e-06
1.78962e-06
2.25216e-06
1.23279e-06
1.54262e-06
1.81763e-06
2.24608e-06
1.54346e-06
1.6905e-06
2.85798e-06
2.26106e-06
2.06197e-06
2.04339e-06
3.76662e-06
2.25352e-06
2.77026e-06
2.7767e-06
5.01059e-06
2.08246e-06
3.83738e-06
3.87867e-06
9.1513e-06
2.00606e-06
5.14228e-06
5.13428e-06
1.28039e-05
1.8384e-06
6.82863e-06
7.14918e-06
1.72445e-05
1.78997e-06
9.05854e-06
8.76111e-06
2.33893e-05
1.75823e-06
1.13806e-05
1.18932e-05
3.01621e-05
1.67283e-06
1.46621e-05
1.44797e-05
4.17678e-05
1.49336e-06
1.78277e-05
1.82202e-05
4.17749e-05
1.87192e-06
2.18192e-05
2.17863e-05
5.37517e-05
1.88444e-06
2.63064e-05
2.68228e-05
5.7652e-05
2.806e-06
3.12169e-05
2.92013e-05
6.78011e-05
2.95668e-06
3.43988e-05
3.96489e-05
6.74017e-05
3.67524e-06
4.36508e-05
3.84188e-05
7.28567e-05
4.40675e-06
4.29113e-05
4.77297e-05
8.32237e-05
6.11956e-06
5.63311e-05
5.32739e-05
8.24306e-05
7.34725e-06
6.00545e-05
5.69292e-05
8.4952e-05
8.41977e-06
6.0101e-05
6.72057e-05
9.4821e-05
1.16713e-05
7.31038e-05
6.89148e-05
9.53212e-05
1.43054e-05
7.69772e-05
7.76246e-05
9.93929e-05
1.62073e-05
8.25001e-05
8.50741e-05
0.000103133
2.06689e-05
8.8807e-05
8.51156e-05
0.000107036
2.3855e-05
9.37108e-05
9.64694e-05
0.000111326
2.97973e-05
0.000100848
0.000104377
0.000116191
3.50907e-05
0.000109321
0.00010506
0.000114197
3.57568e-05
0.000105152
0.000108059
0.000122673
4.66442e-05
0.000119023
0.00011962
0.000128614
5.42553e-05
0.000123801
0.000121577
0.000128985
5.38e-05
0.000123853
0.000124723
0.000128719
6.68505e-05
0.000127839
0.000130464
0.000137308
6.99144e-05
0.000137405
0.000135836
0.000138963
7.98758e-05
0.00014366
0.00014103
0.000142254
8.80799e-05
0.000141181
0.000141239
0.000145852
9.08513e-05
0.000142167
0.000146315
0.00014358
9.48806e-05
0.000155121
0.000155886
0.000150596
0.000114852
0.000160169
0.000158385
0.000156862
0.000116637
0.000159011
0.00015428
0.000156578
0.000116126
0.00016409
0.000163369
0.000151123
0.000126434
0.000159778
0.000166447
0.000160036
0.000126341
0.000173436
0.000173811
0.000173421
0.000144479
0.000182861
0.000179858
0.000170735
0.000155726
0.000172781
0.00017381
0.000154669
0.000147917
0.000171244
0.000167901
0.000162848
0.000141983
0.000194324
0.000190515
0.000188729
0.000171013
0.000193994
0.000199638
0.000186085
0.000179223
0.000178426
0.000188249
0.000166347
0.000170216
0.000184158
0.000178618
0.000167137
0.000169139
0.000208193
0.000196631
0.000187139
0.000191396
0.000210177
0.000207234
0.000189901
0.00019647
0.000192626
0.000201771
0.000181249
0.000190097
0.000190445
0.000197633
0.000182807
0.000193819
0.000207468
0.000205427
0.000189793
0.000205305
0.000209904
0.000205744
0.000185071
0.000206649
0.000208442
0.000204426
0.000185572
0.000213177
0.000215288
0.000218455
0.000199475
0.000220091
0.000214007
0.000216355
0.000194639
0.000216926
0.000207306
0.000205906
0.000184099
0.000215391
0.00021848
0.000215531
0.000195198
0.000232767
0.000229487
0.000228273
0.000207075
0.000235351
0.000215725
0.000220735
0.000195245
0.000223556
0.000203644
0.000208803
0.000183033
0.00022135
0.000223454
0.000216846
0.000196752
0.000246548
0.000243285
0.000235008
0.000212406
0.000257243
0.000231485
0.000237444
0.00020636
0.000237985
0.000209113
0.000217924
0.000190017
0.000225627
0.000209047
0.00021158
0.000190802
0.000239164
0.000231977
0.000225224
0.000203452
0.000256323
0.000240887
0.000231768
0.000206566
0.000257522
0.000228261
0.000232792
0.000201758
0.000246479
0.000220764
0.000227754
0.000198959
0.000243012
0.000224382
0.000223329
0.000198528
0.000247883
0.000229637
0.0002241
0.000201081
0.000253561
0.000227575
0.000228414
0.000204436
2.18412e-06
2.24687e-06
2.13968e-06
2.24771e-06
1.91846e-06
2.09435e-06
2.07243e-06
2.09472e-06
2.14549e-06
2.09335e-06
2.03517e-06
2.28639e-06
2.27974e-06
2.35985e-06
2.42082e-06
2.1516e-06
2.17602e-06
2.15052e-06
1.72191e-06
1.75418e-06
1.72583e-06
1.72771e-06
2.246e-06
2.19894e-06
2.75596e-06
1.98123e-06
3.02657e-06
1.99295e-06
2.04417e-06
1.68912e-06
2.00151e-06
2.27942e-06
2.25783e-06
2.14882e-06
1.80376e-06
2.13324e-06
2.12649e-06
2.15797e-06
2.38747e-06
1.73129e-06
1.7199e-06
1.74776e-06
1.69797e-06
2.19779e-06
2.15294e-06
3.11663e-06
2.00079e-06
3.81302e-06
2.03119e-06
1.99069e-06
1.70827e-06
1.95862e-06
2.26618e-06
2.24347e-06
2.1259e-06
1.78221e-06
2.0919e-06
2.10338e-06
2.44995e-06
2.74868e-06
1.75386e-06
1.69128e-06
1.77039e-06
1.67816e-06
2.15138e-06
2.1122e-06
4.3159e-06
2.03258e-06
6.93278e-06
2.01845e-06
1.94711e-06
1.74732e-06
1.90423e-06
2.24283e-06
2.2241e-06
2.07971e-06
1.76188e-06
2.04925e-06
2.08508e-06
2.70214e-06
2.51211e-06
1.7746e-06
1.67351e-06
1.78731e-06
1.6622e-06
2.1108e-06
2.09182e-06
7.79326e-06
2.01017e-06
8.18971e-06
1.97035e-06
1.88807e-06
1.85365e-06
1.84713e-06
2.22236e-06
2.20615e-06
2.03965e-06
1.75235e-06
2.00549e-06
2.07632e-06
2.4655e-06
2.30312e-06
1.79264e-06
1.65719e-06
1.81469e-06
1.64288e-06
2.09141e-06
2.0994e-06
7.57308e-06
1.96117e-06
4.76064e-06
1.96507e-06
1.83257e-06
2.08795e-06
1.78839e-06
2.20231e-06
2.16263e-06
1.99144e-06
1.74259e-06
1.92918e-06
2.0634e-06
2.27369e-06
2.15787e-06
1.82424e-06
1.63782e-06
1.84094e-06
1.62263e-06
2.09889e-06
2.10695e-06
3.99191e-06
1.97482e-06
2.55628e-06
2.02824e-06
1.77078e-06
2.27009e-06
1.70195e-06
2.14421e-06
2.10792e-06
1.90512e-06
1.75123e-06
1.85807e-06
2.0364e-06
2.14657e-06
2.05811e-06
1.84158e-06
1.61617e-06
1.83051e-06
1.59402e-06
2.1012e-06
2.06022e-06
2.30565e-06
2.04945e-06
1.94114e-06
2.06334e-06
1.68e-06
2.20903e-06
1.61614e-06
2.09076e-06
2.05122e-06
1.84799e-06
1.75297e-06
1.81182e-06
1.99987e-06
2.05144e-06
2.00436e-06
1.8226e-06
1.58372e-06
1.79127e-06
1.54942e-06
2.05091e-06
1.96758e-06
1.88439e-06
2.03073e-06
1.77383e-06
1.91385e-06
1.59037e-06
1.95872e-06
1.50622e-06
2.02586e-06
1.92343e-06
1.79689e-06
1.73307e-06
1.72048e-06
1.94468e-06
1.99891e-06
1.94905e-06
1.77644e-06
1.53611e-06
1.72768e-06
1.49223e-06
1.95523e-06
1.86128e-06
1.74556e-06
1.88487e-06
1.67163e-06
1.85105e-06
1.48073e-06
1.67064e-06
1.40354e-06
1.90285e-06
1.88157e-06
1.68527e-06
1.72254e-06
1.58782e-06
1.86091e-06
1.94179e-06
1.87287e-06
1.70922e-06
1.47639e-06
1.6487e-06
1.42237e-06
1.85628e-06
1.82749e-06
1.6456e-06
1.84709e-06
1.56857e-06
1.88174e-06
1.37955e-06
1.45478e-06
1.30976e-06
1.88046e-06
1.92518e-06
1.56065e-06
1.73261e-06
1.47858e-06
1.76352e-06
1.86441e-06
1.78411e-06
1.62538e-06
1.40262e-06
1.55226e-06
1.34166e-06
1.82429e-06
1.75435e-06
1.54331e-06
1.94968e-06
1.46791e-06
2.26968e-06
1.28988e-06
1.3308e-06
1.24949e-06
1.93498e-06
2.06483e-06
1.45016e-06
1.73721e-06
1.37536e-06
1.65818e-06
1.7739e-06
1.68178e-06
1.52677e-06
1.32027e-06
1.44144e-06
1.25286e-06
1.7444e-06
1.64094e-06
1.44189e-06
2.43246e-06
1.35887e-06
3.12013e-06
1.23712e-06
1.2342e-06
1.20198e-06
2.08312e-06
2.26524e-06
1.35448e-06
1.74895e-06
1.29338e-06
1.55414e-06
1.66803e-06
1.5689e-06
1.41155e-06
1.22861e-06
1.32901e-06
1.16075e-06
1.62677e-06
1.51845e-06
1.33446e-06
3.39233e-06
1.24667e-06
4.08269e-06
1.18819e-06
1.1396e-06
1.15787e-06
2.29468e-06
2.48618e-06
1.27385e-06
1.78891e-06
1.1916e-06
1.45293e-06
1.5511e-06
1.45341e-06
1.30993e-06
1.13674e-06
1.25313e-06
1.06792e-06
1.50027e-06
1.39398e-06
1.21419e-06
4.25019e-06
1.14605e-06
4.49337e-06
1.16561e-06
1.05714e-06
1.24401e-06
2.49445e-06
2.5245e-06
1.15899e-06
1.843e-06
1.09226e-06
1.38324e-06
1.43116e-06
1.34958e-06
1.23879e-06
1.04493e-06
1.19128e-06
9.83479e-07
1.37181e-06
1.27517e-06
1.12449e-06
4.48284e-06
1.08129e-06
3.27446e-06
1.27588e-06
9.842e-07
1.36388e-06
2.47294e-06
1.99534e-06
1.07317e-06
1.93719e-06
1.02885e-06
1.3498e-06
1.32575e-06
1.25104e-06
1.1754e-06
9.64428e-07
1.11951e-06
9.15307e-07
1.25067e-06
1.1711e-06
1.07223e-06
2.86592e-06
1.04072e-06
2.00526e-06
1.42066e-06
9.30503e-07
1.75846e-06
1.94149e-06
1.70928e-06
1.02406e-06
1.89984e-06
9.94556e-07
1.37473e-06
1.22976e-06
1.18528e-06
1.09998e-06
9.02832e-07
1.07716e-06
8.82404e-07
1.15183e-06
1.10034e-06
1.03879e-06
1.80846e-06
1.04354e-06
1.58634e-06
1.93993e-06
9.00236e-07
2.63763e-06
1.66052e-06
1.52457e-06
9.92602e-07
1.9138e-06
1.02123e-06
1.53968e-06
1.17538e-06
1.18425e-06
1.06997e-06
8.78612e-07
1.07268e-06
8.87152e-07
1.08951e-06
1.09056e-06
1.065e-06
1.57008e-06
1.11615e-06
1.6217e-06
2.82854e-06
9.16527e-07
3.30477e-06
1.51258e-06
1.51829e-06
1.03322e-06
1.78334e-06
1.12295e-06
1.7274e-06
1.19823e-06
1.30179e-06
1.08418e-06
9.02882e-07
1.12033e-06
9.58289e-07
1.10706e-06
1.18434e-06
1.13301e-06
1.56868e-06
1.28614e-06
1.41505e-06
3.38929e-06
9.963e-07
3.29668e-06
1.46782e-06
1.40446e-06
1.13116e-06
1.61563e-06
1.22779e-06
1.74349e-06
1.34869e-06
1.59162e-06
1.1525e-06
9.81415e-07
1.2745e-06
1.14939e-06
1.21742e-06
1.51737e-06
1.32046e-06
1.38186e-06
1.51907e-06
1.46092e-06
3.22337e-06
1.17e-06
2.60291e-06
1.43859e-06
1.67243e-06
1.31401e-06
1.52429e-06
1.41132e-06
1.89512e-06
1.68886e-06
2.2806e-06
1.32713e-06
1.20522e-06
1.53881e-06
1.42056e-06
1.63041e-06
2.08821e-06
1.66989e-06
1.56335e-06
1.86356e-06
1.59662e-06
2.32663e-06
1.45609e-06
2.08248e-06
1.79737e-06
2.21683e-06
1.49103e-06
1.62318e-06
1.83341e-06
2.48175e-06
2.39684e-06
3.51155e-06
1.62101e-06
1.50985e-06
2.06896e-06
1.85412e-06
2.24329e-06
3.14677e-06
2.01777e-06
1.5774e-06
2.66052e-06
2.03542e-06
2.15008e-06
1.88967e-06
2.27362e-06
2.25057e-06
3.18369e-06
1.98634e-06
1.94719e-06
2.63098e-06
3.65633e-06
3.82624e-06
5.02243e-06
2.15986e-06
2.029e-06
2.64983e-06
2.54453e-06
3.44872e-06
5.15786e-06
2.74177e-06
2.23207e-06
3.42673e-06
2.60912e-06
2.30708e-06
2.58593e-06
2.61331e-06
3.59053e-06
4.93854e-06
2.67881e-06
2.54485e-06
3.11951e-06
4.51446e-06
5.58148e-06
8.16472e-06
2.93051e-06
2.74247e-06
3.58034e-06
3.53103e-06
5.53134e-06
7.63883e-06
3.80431e-06
2.81439e-06
4.35634e-06
3.66835e-06
2.89519e-06
3.54391e-06
3.62171e-06
5.26113e-06
7.82863e-06
3.58811e-06
3.59822e-06
4.52242e-06
8.72632e-06
8.44598e-06
1.19041e-05
3.76513e-06
3.80941e-06
5.08837e-06
4.76166e-06
8.34787e-06
1.14885e-05
4.51762e-06
3.94274e-06
6.00109e-06
4.85494e-06
3.72647e-06
4.77258e-06
4.98701e-06
8.51398e-06
1.13509e-05
4.49017e-06
4.80374e-06
5.9071e-06
1.12918e-05
1.33276e-05
1.63436e-05
5.51625e-06
5.13823e-06
6.34854e-06
6.37994e-06
1.22379e-05
1.63786e-05
6.44344e-06
5.17278e-06
7.41255e-06
6.63877e-06
5.55388e-06
6.36849e-06
6.26067e-06
1.20969e-05
1.65511e-05
6.52482e-06
6.61024e-06
7.4331e-06
1.7374e-05
1.66848e-05
2.2566e-05
6.87092e-06
6.83597e-06
8.67448e-06
8.46326e-06
1.73728e-05
2.28242e-05
7.88701e-06
7.14765e-06
8.71836e-06
8.37876e-06
6.63177e-06
8.45137e-06
8.65251e-06
1.78511e-05
2.26086e-05
7.80991e-06
8.35264e-06
8.19935e-06
2.15627e-05
2.42025e-05
2.90238e-05
9.08582e-06
9.08694e-06
1.0701e-05
1.08127e-05
2.41876e-05
2.97178e-05
9.29283e-06
8.86734e-06
1.28459e-05
1.08511e-05
9.0785e-06
1.08389e-05
1.02e-05
2.34473e-05
2.88355e-05
8.43436e-06
1.09105e-05
1.19856e-05
2.87331e-05
3.04127e-05
3.89418e-05
1.16223e-05
1.13637e-05
1.4657e-05
1.37898e-05
3.09027e-05
3.62902e-05
1.38235e-05
1.17325e-05
1.57502e-05
1.40081e-05
1.1414e-05
1.37167e-05
1.51218e-05
3.06716e-05
3.72862e-05
1.39678e-05
1.39438e-05
1.66451e-05
4.035e-05
4.02745e-05
4.20116e-05
1.52114e-05
1.4729e-05
1.63501e-05
1.72425e-05
3.79392e-05
4.41923e-05
1.60882e-05
1.45163e-05
1.66937e-05
1.73458e-05
1.50923e-05
1.72046e-05
1.61645e-05
3.86234e-05
4.33244e-05
1.61491e-05
1.71691e-05
1.54168e-05
4.0951e-05
4.30055e-05
5.15506e-05
1.74932e-05
1.78497e-05
2.24867e-05
2.04627e-05
4.54391e-05
4.9765e-05
1.75804e-05
1.84591e-05
2.22246e-05
2.05079e-05
1.79666e-05
2.04143e-05
2.11144e-05
4.47563e-05
5.09872e-05
1.75782e-05
2.06827e-05
2.16592e-05
5.19039e-05
5.34747e-05
5.64539e-05
2.32561e-05
2.1912e-05
2.38539e-05
2.54815e-05
5.12624e-05
5.80552e-05
2.30665e-05
2.17315e-05
2.43042e-05
2.65413e-05
2.14343e-05
2.54163e-05
2.49473e-05
5.24595e-05
5.71926e-05
2.176e-05
2.60219e-05
2.57414e-05
5.61316e-05
5.73338e-05
6.39418e-05
2.49868e-05
2.63263e-05
3.1798e-05
2.99435e-05
5.93708e-05
6.30287e-05
2.56788e-05
2.71268e-05
3.14046e-05
2.78288e-05
2.67146e-05
2.98507e-05
3.1589e-05
5.82054e-05
6.25587e-05
2.74633e-05
2.76735e-05
3.10425e-05
6.6803e-05
6.58634e-05
6.9221e-05
3.38601e-05
3.13591e-05
3.61746e-05
3.34053e-05
6.41314e-05
6.79677e-05
3.26113e-05
2.92947e-05
3.44265e-05
3.87912e-05
3.32325e-05
3.31925e-05
3.44339e-05
6.39234e-05
7.05208e-05
3.30461e-05
3.81261e-05
3.62776e-05
6.73445e-05
6.97339e-05
7.26095e-05
3.6413e-05
3.46002e-05
3.97254e-05
4.25361e-05
6.93493e-05
7.43633e-05
3.5329e-05
4.16584e-05
3.98985e-05
4.27284e-05
3.39063e-05
4.23669e-05
3.69864e-05
7.2156e-05
7.3493e-05
3.53964e-05
3.83753e-05
3.51006e-05
7.07611e-05
7.39565e-05
7.77855e-05
4.12248e-05
4.38401e-05
4.5123e-05
4.22305e-05
7.49977e-05
7.58303e-05
4.1334e-05
4.18048e-05
4.44024e-05
4.31962e-05
3.94832e-05
4.21567e-05
4.87508e-05
7.37748e-05
7.72563e-05
3.90358e-05
4.4892e-05
5.18787e-05
8.2162e-05
7.8749e-05
8.31399e-05
4.65779e-05
4.28156e-05
5.22634e-05
5.23149e-05
7.69619e-05
8.47627e-05
4.57782e-05
4.54632e-05
5.17224e-05
5.38063e-05
5.16418e-05
5.23077e-05
5.32725e-05
7.90179e-05
8.34705e-05
5.50904e-05
5.31019e-05
5.66764e-05
8.28102e-05
8.43606e-05
8.69761e-05
5.44607e-05
5.63691e-05
5.85095e-05
6.16786e-05
8.62636e-05
8.76495e-05
5.39198e-05
5.55009e-05
5.79484e-05
5.70893e-05
5.20297e-05
6.10775e-05
5.10763e-05
8.41023e-05
8.59401e-05
5.52037e-05
5.48762e-05
5.02037e-05
8.31095e-05
8.75131e-05
8.96206e-05
5.88953e-05
6.07208e-05
6.132e-05
5.74641e-05
8.74931e-05
8.75617e-05
5.85389e-05
5.85266e-05
6.16829e-05
6.51335e-05
5.45594e-05
5.73231e-05
6.76484e-05
8.68917e-05
9.15835e-05
5.05774e-05
6.54762e-05
6.77118e-05
9.38895e-05
9.06842e-05
9.53296e-05
6.31992e-05
5.95908e-05
7.00633e-05
7.12499e-05
8.89532e-05
9.63803e-05
6.35647e-05
6.66057e-05
6.98129e-05
6.82207e-05
7.02217e-05
7.10835e-05
6.96901e-05
9.25147e-05
9.4214e-05
7.16571e-05
6.81069e-05
7.31602e-05
9.51566e-05
9.62702e-05
9.88457e-05
7.1644e-05
7.31816e-05
7.62125e-05
7.57192e-05
9.71457e-05
9.88255e-05
7.14845e-05
6.93439e-05
7.60629e-05
7.6083e-05
6.90369e-05
7.55013e-05
7.55519e-05
9.48365e-05
9.92835e-05
7.22359e-05
7.50959e-05
7.54287e-05
9.82243e-05
9.95636e-05
0.000102055
7.77531e-05
7.73223e-05
8.06269e-05
8.25146e-05
9.95116e-05
0.000102494
7.75386e-05
7.87046e-05
8.09699e-05
8.31252e-05
7.74205e-05
8.20789e-05
7.98678e-05
0.000100462
0.000102776
7.6901e-05
8.43152e-05
8.12419e-05
0.0001022
0.000102762
0.000106062
8.17797e-05
8.27463e-05
8.76249e-05
8.54467e-05
0.000103079
0.000105373
8.2204e-05
8.32018e-05
8.71715e-05
8.36082e-05
8.24903e-05
8.61098e-05
8.99039e-05
0.000103125
0.000104416
8.40395e-05
8.45486e-05
8.77043e-05
0.000106684
0.00010691
0.000109852
8.91842e-05
8.83344e-05
9.27748e-05
9.43906e-05
0.000106394
0.000110282
8.8574e-05
8.52955e-05
9.27615e-05
9.62002e-05
9.0111e-05
9.3403e-05
9.10781e-05
0.000105207
0.000111185
8.75554e-05
9.23817e-05
9.1935e-05
0.000109835
0.000110648
0.000114774
9.40433e-05
9.47178e-05
9.99247e-05
9.74884e-05
0.000110753
0.00011358
9.44954e-05
9.93108e-05
0.000100778
9.98657e-05
9.36534e-05
9.7753e-05
0.000103096
0.00011261
0.000115255
9.52347e-05
0.000104436
0.000104521
0.00011611
0.000115725
0.00011718
0.000102708
0.000100201
0.000105216
0.000109034
0.000114845
0.000119585
0.000102845
9.88662e-05
0.000103901
0.000103622
0.000104013
0.000109048
0.000101488
0.000115319
0.00011633
0.000105286
0.000103368
0.000102039
0.000114096
0.000117215
0.00011976
0.000104437
0.000109811
0.000107819
0.000106821
0.000119763
0.000118367
0.000103558
0.000107507
0.000108572
0.000110676
0.000101097
0.000105886
0.000108228
0.000117441
0.000120761
0.000100706
0.000106602
0.000106812
0.000121107
0.000121156
0.000126275
0.000110298
0.000105875
0.000116354
0.000114153
0.000118329
0.000125213
0.00011118
0.000109794
0.000116569
0.00011382
0.00011095
0.000115006
0.000119315
0.00012095
0.000125056
0.000110613
0.000117738
0.000119864
0.000127708
0.000126903
0.00012823
0.000118491
0.000118287
0.000121187
0.000124283
0.000127007
0.000130671
0.000118052
0.000117249
0.000120635
0.000122355
0.00012145
0.000124214
0.000121949
0.000126507
0.000128969
0.000122177
0.000120803
0.000123612
0.000129351
0.000128383
0.000130273
0.000120661
0.000123986
0.000123075
0.000123449
0.000130665
0.000130126
0.00012066
0.000123052
0.00012338
0.000123651
0.000120882
0.000122881
0.000119001
0.000129132
0.000130988
0.000122666
0.000124145
0.000119264
0.000127717
0.00013125
0.000135567
0.000125488
0.000124413
0.000130208
0.000126453
0.000130384
0.000132313
0.000125425
0.000123931
0.000130034
0.000128412
0.000121557
0.000126314
0.000131644
0.000131516
0.000133869
0.000119987
0.000128575
0.000129967
0.000135942
0.00013592
0.000137341
0.000130456
0.00012774
0.000133048
0.000134687
0.000133086
0.000139665
0.000130723
0.000130514
0.000133649
0.000134557
0.0001341
0.000134949
0.000134778
0.000134706
0.000138881
0.000133124
0.000134661
0.000135831
0.000139102
0.000138189
0.000142187
0.00013491
0.000137186
0.000139663
0.000142791
0.000141034
0.000144361
0.000135181
0.000135492
0.000138864
0.000139553
0.000134267
0.00014293
0.000138167
0.000139497
0.000141975
0.000135394
0.000139996
0.000138057
0.000141054
0.000142659
0.00014421
0.000140851
0.000143524
0.000144055
0.00014213
0.000144467
0.000142264
0.000139929
0.000141005
0.000144192
0.000142668
0.000140707
0.000142252
0.000145791
0.000142479
0.000142918
0.000140238
0.000141407
0.000145713
0.000145825
0.000144527
0.000144581
0.000144295
0.000141138
0.000143045
0.000140103
0.00014177
0.000142187
0.000144862
0.000142345
0.000143681
0.000143426
0.00014583
0.000139472
0.000143207
0.000142792
0.000144775
0.000146036
0.000144087
0.000143712
0.000144003
0.000144706
0.000150356
0.000143574
0.000142979
0.000150537
0.0001522
0.000143566
0.000151873
0.000143756
0.000145324
0.0001505
0.000153139
0.000142281
0.000152144
0.000148749
0.000146022
0.000152991
0.00014281
0.000153702
0.000148646
0.000148837
0.000151789
0.000155467
0.000153463
0.000154953
0.000159649
0.00015964
0.000153311
0.000155993
0.000153469
0.000155555
0.000159549
0.000158927
0.000152355
0.000160044
0.000160088
0.000153998
0.000154862
0.000151915
0.000158802
0.000159213
0.000156353
0.000155509
0.000153817
0.000160017
0.000159717
0.000158271
0.000158296
0.000155847
0.000154555
0.000159782
0.000158493
0.000157844
0.000155481
0.000161223
0.000159075
0.000161231
0.000154501
0.000150714
0.000160727
0.000155173
0.00016175
0.000156933
0.000153518
0.000158088
0.000157592
0.000158063
0.000161454
0.000163642
0.000154847
0.000159031
0.000157172
0.000154652
0.000161703
0.000160921
0.00016031
0.000163699
0.000156728
0.000150353
0.000157549
0.000161217
0.000159745
0.000156713
0.000151889
0.000159046
0.000158923
0.000164055
0.000165284
0.000165695
0.00016441
0.000159162
0.000156058
0.000164165
0.000164583
0.000165379
0.000168519
0.000155956
0.00016097
0.000161955
0.000159163
0.000161261
0.000155432
0.000166778
0.000161194
0.000157431
0.000158516
0.000160982
0.000165027
0.000163313
0.000165099
0.000163571
0.000155287
0.000161498
0.000164877
0.000167965
0.000166356
0.00016649
0.000165514
0.000167513
0.000176942
0.000160946
0.000162609
0.000166123
0.000170555
0.000179102
0.000172201
0.000162463
0.000170059
0.000167973
0.000168787
0.000178104
0.000180316
0.00016465
0.000173775
0.000168842
0.000168441
0.000178253
0.000178704
0.000179595
0.00018253
0.000182077
0.000164214
0.000170706
0.000181714
0.000179526
0.000183069
0.000172239
0.000170725
0.000170105
0.000180007
0.000181099
0.000181066
0.000178246
0.000173653
0.000164291
0.000180178
0.000180041
0.000181517
0.000179722
0.000181011
0.000176415
0.000170323
0.000170794
0.000166461
0.000180556
0.000176851
0.000168075
0.000156547
0.000169538
0.000163942
0.000180401
0.000175466
0.000174587
0.000171562
0.000162702
0.000161973
0.000180924
0.000177615
0.000174292
0.000170812
0.000166723
0.000168709
0.000163484
0.000165325
0.000160084
0.00016455
0.000167974
0.000161836
0.000158046
0.000163258
0.00017111
0.000173472
0.000172451
0.000179141
0.000188168
0.000164551
0.000181592
0.000172852
0.000169732
0.000176105
0.00018131
0.000169592
0.000190649
0.0001944
0.000160818
0.000175893
0.000169326
0.000185449
0.000195218
0.000186594
0.000173845
0.000181406
0.000184516
0.000191886
0.000193918
0.000195347
0.000182972
0.000181185
0.000182461
0.000187376
0.000194207
0.000197164
0.000199252
0.000196695
0.000202695
0.000178434
0.000185092
0.000200786
0.000198922
0.000206505
0.000188752
0.000181444
0.000176628
0.000194723
0.00019413
0.000192256
0.000183633
0.000179379
0.000165889
0.000195405
0.00019791
0.000193841
0.000192601
0.000199351
0.00018143
0.000183697
0.000184796
0.000175364
0.000204669
0.00019222
0.000186551
0.000168368
0.000175513
0.000170922
0.000189663
0.000180587
0.000183843
0.00017789
0.000164325
0.000168826
0.000191255
0.000189291
0.000184916
0.000181913
0.000179887
0.000177079
0.000176112
0.00017375
0.000167508
0.000181427
0.00017964
0.000174305
0.000164659
0.000171178
0.000182011
0.000183151
0.000182668
0.000193765
0.000201817
0.000172794
0.000191635
0.000184005
0.000180996
0.000192389
0.000192026
0.000179715
0.000203965
0.000198498
0.000167774
0.000181296
0.000174548
0.000190943
0.000194295
0.000185042
0.000184011
0.000188669
0.000197938
0.00020587
0.000204563
0.000209788
0.000193207
0.000192927
0.000196954
0.000197189
0.000204392
0.000205954
0.00020273
0.000212173
0.000207985
0.000183798
0.000190455
0.000199702
0.000206449
0.00020726
0.000190655
0.000188337
0.00018182
0.000204979
0.000208442
0.000200611
0.000196874
0.000190801
0.000177235
0.000204889
0.000206584
0.000201151
0.000202616
0.000207978
0.000196224
0.000200049
0.000190277
0.000183688
0.000207574
0.000204267
0.000202936
0.000182109
0.000180773
0.000179307
0.00019824
0.000193789
0.00019475
0.000190653
0.000175753
0.000175464
0.000198855
0.000200059
0.000195213
0.000195994
0.000197543
0.000188822
0.000194996
0.000182561
0.000180284
0.000200904
0.000197807
0.000198771
0.000181665
0.00018023
0.000189334
0.000195118
0.000192345
0.000205252
0.000205123
0.000177384
0.000188964
0.000195308
0.000195891
0.000204661
0.000203696
0.00019625
0.000204721
0.000205854
0.000180894
0.000188055
0.000199278
0.000203719
0.000205519
0.000189733
0.000190197
0.000190434
0.000207544
0.000207585
0.000209444
0.000209767
0.000189961
0.000190449
0.000207016
0.000205691
0.000209165
0.000207422
0.000207104
0.000210034
0.000206839
0.000188655
0.000187926
0.00020625
0.000206449
0.000205266
0.000186185
0.000189963
0.000186377
0.000209233
0.000209636
0.000206338
0.000207976
0.000190026
0.000188861
0.000208993
0.000207082
0.000206152
0.000204668
0.000205437
0.000208383
0.000203088
0.000187266
0.000185092
0.000203519
0.000203329
0.000201203
0.000183567
0.000185995
0.000192842
0.000205847
0.000207877
0.000210936
0.000213111
0.000189178
0.000194992
0.000205672
0.000204923
0.000211251
0.000214573
0.000204564
0.000213906
0.000216364
0.000186008
0.00019726
0.000203558
0.000215918
0.000217173
0.000198701
0.000193997
0.000196149
0.000213513
0.00021465
0.000217
0.000215893
0.000195247
0.000193381
0.000213915
0.000217263
0.000217311
0.000219304
0.000218801
0.000215899
0.000219733
0.000198138
0.000196526
0.000219678
0.000219567
0.000220035
0.000196529
0.000195426
0.000189459
0.000216879
0.000214449
0.00021169
0.000209011
0.000192361
0.000186727
0.000216984
0.000216855
0.000211136
0.000207775
0.00021654
0.000208256
0.000207343
0.000194777
0.000185322
0.000216311
0.000207295
0.000207063
0.000185041
0.000188641
0.000192133
0.00021013
0.000208044
0.000210307
0.000213642
0.000186099
0.000195542
0.000209613
0.000206163
0.00021023
0.000209187
0.000205759
0.000213819
0.000209708
0.000184379
0.000192106
0.000205742
0.000210232
0.000211101
0.000192724
0.000193975
0.000202236
0.000214373
0.000218142
0.000224023
0.0002276
0.000197696
0.000207195
0.000214458
0.000214653
0.000224135
0.000226444
0.000215492
0.000228241
0.000228056
0.000194455
0.00020503
0.000216548
0.000226679
0.000228158
0.000206794
0.000202352
0.000197243
0.000225397
0.000228804
0.000222834
0.000220238
0.000207005
0.00019402
0.000225537
0.000228157
0.000223658
0.000225646
0.000229823
0.000220635
0.000224677
0.000205293
0.000198906
0.000229759
0.000225022
0.000223999
0.000197713
0.000195769
0.000189458
0.000219473
0.00021554
0.000211759
0.000205333
0.000191453
0.000181256
0.000220401
0.000221395
0.000212736
0.000211668
0.000219445
0.000205048
0.00020772
0.000196883
0.000187757
0.000218979
0.000210709
0.000207312
0.000184156
0.000188682
0.00019468
0.000210461
0.000203997
0.000214484
0.000216752
0.000180729
0.000197684
0.000211287
0.000209821
0.000213118
0.00021109
0.000205955
0.000216288
0.000212205
0.000186743
0.000192776
0.000205459
0.000210864
0.000211498
0.000193841
0.000196597
0.000206733
0.00021943
0.000223681
0.000231713
0.000240064
0.000200838
0.000217044
0.000217929
0.000216537
0.000229873
0.000229757
0.000219106
0.000240345
0.000235243
0.000195125
0.000206995
0.000218571
0.000231303
0.000235311
0.000211499
0.000207593
0.000208413
0.000234659
0.000242942
0.000237735
0.000239522
0.000217742
0.000208448
0.000233002
0.000233155
0.000237154
0.00023793
0.000238446
0.000239766
0.000239873
0.000207985
0.000210049
0.000238887
0.000239951
0.000241678
0.000209565
0.000206194
0.00019423
0.00023361
0.000231439
0.000219482
0.000213419
0.000204374
0.00018675
0.000234864
0.000236303
0.000221237
0.000222396
0.000233499
0.000213129
0.000217356
0.000207961
0.000195547
0.000235735
0.000221612
0.000218387
0.000191602
0.000192728
0.000189545
0.000216221
0.000209392
0.000211301
0.000205144
0.000184801
0.000185195
0.000218028
0.000219005
0.000212825
0.000213203
0.000213903
0.000205255
0.000210159
0.000193978
0.000189654
0.000214675
0.000211966
0.000210112
0.000189091
0.0001903
0.000200553
0.000211548
0.000208375
0.000224093
0.000226935
0.000187797
0.000203912
0.000212598
0.000212694
0.000223053
0.000221573
0.000212009
0.000227559
0.00022621
0.000189939
0.000199082
0.000211061
0.000221786
0.000224746
0.000202318
0.000201861
0.000206853
0.000227686
0.000231422
0.000234586
0.000239856
0.000205731
0.000213222
0.000226444
0.000224937
0.000232829
0.000230855
0.000229614
0.000239931
0.000234975
0.000200294
0.000204147
0.000228077
0.000231057
0.000233333
0.000206936
0.000206845
0.000203795
0.0002355
0.000240934
0.000232453
0.000232713
0.000213004
0.000203394
0.00023367
0.000231639
0.0002327
0.000233202
0.000235528
0.000232041
0.000230324
0.000204146
0.000205054
0.000233901
0.000233002
0.000231027
0.000202361
0.000202912
0.000198906
0.000229906
0.000228722
0.00022418
0.000221433
0.000201657
0.00019546
0.000230791
0.000232847
0.000225657
0.000229007
0.000228348
0.000221437
0.000224252
0.000204859
0.000202514
0.000229663
0.000229339
0.000226034
0.000199228
0.000198554
0.000197976
0.0002233
0.000220686
0.000222741
0.000221846
0.00019506
0.000198103
0.000224617
0.000227412
0.00022332
0.00022356
0.000223672
0.000222152
0.000223396
0.000201802
0.000198107
0.000225218
0.000223771
0.000223984
0.000198494
0.000198085
0.000200741
0.000223242
0.000224099
0.000227015
0.000228968
0.000199105
0.000203348
0.000223393
0.000223155
0.000225823
0.000223349
0.000223978
0.000229236
0.000227503
0.000197803
0.000197965
0.000224045
0.000223449
0.00022607
0.000201025
0.000200774
0.000202447
0.000227574
0.00022936
0.000231037
0.000230233
0.00020328
0.00020136
0.000226481
0.000224099
0.000230638
0.000229424
0.000228043
0.000230294
0.000231128
0.00019823
0.00020164
0.00022667
0.00022936
0.000230637
0.000202545
0.000204557
0.000229098
0.000227605
0.000202927
0.000229138
0.000228484
0.000253289
0.000251733
0.000253463
0.000228848
0.000204164
0.000228891
8.0859e-06
2.05007e-06
2.63709e-06
3.83389e-06
1.35571e-06
1.99375e-06
5.44859e-07
2.54182e-06
7.67262e-07
2.24203e-06
1.12295e-06
6.597e-07
2.16317e-06
1.77655e-06
1.98467e-06
1.07154e-06
1.34213e-05
9.99028e-07
1.5191e-05
1.05367e-05
1.28131e-05
1.31348e-06
1.4842e-05
1.24795e-06
1.67837e-05
2.08726e-06
2.1293e-06
2.08831e-06
1.98539e-06
2.09003e-06
2.1239e-06
2.09041e-06
1.31334e-06
3.21885e-07
2.36164e-06
1.69036e-06
1.31622e-06
4.29297e-07
2.39369e-06
1.08047e-05
1.30924e-05
7.10299e-07
1.16433e-06
3.85492e-07
1.81044e-06
7.38016e-07
1.15872e-06
5.03332e-07
1.50213e-06
1.53486e-06
2.13762e-06
1.70367e-06
1.73863e-06
1.25841e-06
1.8398e-05
1.20321e-06
2.09295e-05
1.67957e-05
1.90446e-05
1.49567e-06
2.05476e-05
1.45231e-06
2.31722e-05
2.0909e-06
2.12472e-06
2.09048e-06
2.06812e-06