/*--------------------------------*- C++ -*----------------------------------*\
| =========                 |                                                 |
| \\      /  F ield         | OpenFOAM: The Open Source CFD Toolbox           |
|  \\    /   O peration     | Version:  v2012                                 |
|   \\  /    A nd           | Website:  www.openfoam.com                      |
|    \\/     M anipulation  |                                                 |
\*---------------------------------------------------------------------------*/
FoamFile
{
    version     2.0;
    format      ascii;
    class       volScalarField;
    location    "60.5";
    object      p;
}
// * * * * * * * * * * * * * * * * * * * * * * * * * * * * * * * * * * * * * //

dimensions      [0 2 -2 0 0 0 0];


internalField   nonuniform List<scalar> 
247104
(
1.02953e-06
1.0295e-06
1.02948e-06
1.02943e-06
1.02941e-06
1.02944e-06
1.02949e-06
1.02949e-06
1.0295e-06
1.02947e-06
1.0293e-06
1.02912e-06
1.02906e-06
1.02914e-06
1.02932e-06
1.02949e-06
1.02948e-06
1.0293e-06
1.02899e-06
1.02876e-06
1.02868e-06
1.02878e-06
1.02903e-06
1.02933e-06
1.02948e-06
1.02943e-06
1.02912e-06
1.02876e-06
1.02849e-06
1.0284e-06
1.02852e-06
1.0288e-06
1.02917e-06
1.02946e-06
1.02953e-06
1.02941e-06
1.02906e-06
1.02868e-06
1.0284e-06
1.02832e-06
1.02843e-06
1.02872e-06
1.02911e-06
1.02943e-06
1.02944e-06
1.02914e-06
1.02878e-06
1.02852e-06
1.02843e-06
1.02854e-06
1.02882e-06
1.02919e-06
1.02946e-06
1.02949e-06
1.02932e-06
1.02903e-06
1.0288e-06
1.02872e-06
1.02882e-06
1.02906e-06
1.02935e-06
1.02948e-06
1.02949e-06
1.02949e-06
1.02933e-06
1.02917e-06
1.02911e-06
1.02919e-06
1.02935e-06
1.0295e-06
1.02948e-06
1.02946e-06
1.02943e-06
1.02946e-06
1.02948e-06
1.01513e-06
1.01503e-06
1.0148e-06
1.01395e-06
1.01389e-06
1.01386e-06
1.01393e-06
1.01485e-06
1.01488e-06
1.0148e-06
1.01357e-06
1.01211e-06
1.01211e-06
1.01211e-06
1.01211e-06
1.01375e-06
1.01416e-06
1.01395e-06
1.01211e-06
1.01211e-06
1.01213e-06
1.01213e-06
1.01211e-06
1.01211e-06
1.01424e-06
1.01512e-06
1.01513e-06
1.01389e-06
1.01211e-06
1.01213e-06
1.01215e-06
1.01215e-06
1.01213e-06
1.01211e-06
1.01427e-06
1.01502e-06
1.01503e-06
1.01386e-06
1.01211e-06
1.01213e-06
1.01215e-06
1.01215e-06
1.01213e-06
1.01211e-06
1.01425e-06
1.0143e-06
1.01393e-06
1.01211e-06
1.01211e-06
1.01213e-06
1.01213e-06
1.01211e-06
1.01211e-06
1.01426e-06
1.01518e-06
1.01485e-06
1.01375e-06
1.01211e-06
1.01211e-06
1.01211e-06
1.01211e-06
1.01402e-06
1.01423e-06
1.01507e-06
1.01488e-06
1.01416e-06
1.01424e-06
1.01427e-06
1.01425e-06
1.01426e-06
1.01423e-06
1.01498e-06
1.01512e-06
1.01502e-06
1.0143e-06
1.01518e-06
1.01507e-06
1.00423e-06
1.00418e-06
1.00403e-06
1.00315e-06
1.00308e-06
1.00305e-06
1.00314e-06
1.00409e-06
1.00414e-06
1.00403e-06
1.00276e-06
1.00124e-06
1.00125e-06
1.00125e-06
1.00124e-06
1.00292e-06
1.00336e-06
1.00315e-06
1.00124e-06
1.00124e-06
1.00125e-06
1.00125e-06
1.00124e-06
1.00124e-06
1.00341e-06
1.00431e-06
1.00423e-06
1.00308e-06
1.00125e-06
1.00125e-06
1.00126e-06
1.00126e-06
1.00125e-06
1.00125e-06
1.00342e-06
1.00418e-06
1.00418e-06
1.00305e-06
1.00125e-06
1.00125e-06
1.00126e-06
1.00126e-06
1.00125e-06
1.00125e-06
1.0034e-06
1.00349e-06
1.00314e-06
1.00124e-06
1.00124e-06
1.00125e-06
1.00125e-06
1.00124e-06
1.00124e-06
1.00342e-06
1.00434e-06
1.00409e-06
1.00292e-06
1.00124e-06
1.00125e-06
1.00125e-06
1.00124e-06
1.00318e-06
1.00343e-06
1.0043e-06
1.00414e-06
1.00336e-06
1.00341e-06
1.00342e-06
1.0034e-06
1.00342e-06
1.00343e-06
1.00424e-06
1.00431e-06
1.00418e-06
1.00349e-06
1.00434e-06
1.0043e-06
9.93399e-07
9.9335e-07
9.93202e-07
9.92318e-07
9.92252e-07
9.9222e-07
9.92306e-07
9.93258e-07
9.93306e-07
9.93201e-07
9.91934e-07
9.90405e-07
9.90406e-07
9.90406e-07
9.90405e-07
9.92088e-07
9.92531e-07
9.92318e-07
9.90405e-07
9.90405e-07
9.90409e-07
9.90409e-07
9.90405e-07
9.90405e-07
9.92574e-07
9.9348e-07
9.93399e-07
9.92252e-07
9.90406e-07
9.90409e-07
9.90413e-07
9.90413e-07
9.90409e-07
9.90406e-07
9.92582e-07
9.9335e-07
9.9335e-07
9.9222e-07
9.90406e-07
9.90409e-07
9.90413e-07
9.90413e-07
9.90409e-07
9.90406e-07
9.92561e-07
9.92659e-07
9.92306e-07
9.90405e-07
9.90405e-07
9.90409e-07
9.90409e-07
9.90405e-07
9.90405e-07
9.92586e-07
9.93512e-07
9.93258e-07
9.92088e-07
9.90405e-07
9.90406e-07
9.90406e-07
9.90405e-07
9.92345e-07
9.92596e-07
9.93469e-07
9.93306e-07
9.92531e-07
9.92574e-07
9.92582e-07
9.92561e-07
9.92586e-07
9.92597e-07
9.93407e-07
9.9348e-07
9.9335e-07
9.92659e-07
9.93512e-07
9.93469e-07
9.82563e-07
9.82514e-07
9.82366e-07
9.81482e-07
9.81416e-07
9.81384e-07
9.8147e-07
9.82422e-07
9.8247e-07
9.82366e-07
9.81098e-07
9.79567e-07
9.79568e-07
9.79568e-07
9.79567e-07
9.81251e-07
9.81695e-07
9.81482e-07
9.79567e-07
9.79569e-07
9.7957e-07
9.7957e-07
9.79569e-07
9.79567e-07
9.81738e-07
9.82645e-07
9.82563e-07
9.81415e-07
9.79568e-07
9.7957e-07
9.79571e-07
9.79571e-07
9.7957e-07
9.79568e-07
9.81744e-07
9.82514e-07
9.82514e-07
9.81384e-07
9.79568e-07
9.7957e-07
9.79572e-07
9.79571e-07
9.7957e-07
9.79568e-07
9.81724e-07
9.81823e-07
9.8147e-07
9.79567e-07
9.79569e-07
9.7957e-07
9.7957e-07
9.79568e-07
9.79568e-07
9.8175e-07
9.82676e-07
9.82422e-07
9.81251e-07
9.79567e-07
9.79568e-07
9.79568e-07
9.79567e-07
9.81509e-07
9.81761e-07
9.82634e-07
9.8247e-07
9.81695e-07
9.81738e-07
9.81744e-07
9.81724e-07
9.8175e-07
9.81761e-07
9.82571e-07
9.82645e-07
9.82514e-07
9.81823e-07
9.82676e-07
9.82633e-07
9.71728e-07
9.71678e-07
9.7153e-07
9.70646e-07
9.70579e-07
9.70548e-07
9.70634e-07
9.71586e-07
9.71634e-07
9.7153e-07
9.70262e-07
9.68731e-07
9.68731e-07
9.68731e-07
9.68731e-07
9.70415e-07
9.70859e-07
9.70646e-07
9.68731e-07
9.68732e-07
9.68732e-07
9.68733e-07
9.68732e-07
9.68731e-07
9.70901e-07
9.71809e-07
9.71728e-07
9.70579e-07
9.68731e-07
9.68733e-07
9.68733e-07
9.68733e-07
9.68733e-07
9.68731e-07
9.70908e-07
9.71679e-07
9.71678e-07
9.70548e-07
9.68731e-07
9.68733e-07
9.68733e-07
9.68733e-07
9.68733e-07
9.68731e-07
9.70888e-07
9.70987e-07
9.70634e-07
9.68731e-07
9.68732e-07
9.68732e-07
9.68732e-07
9.68732e-07
9.68731e-07
9.70914e-07
9.7184e-07
9.71586e-07
9.70415e-07
9.68731e-07
9.68731e-07
9.68731e-07
9.68731e-07
9.70673e-07
9.70925e-07
9.71798e-07
9.71634e-07
9.70859e-07
9.70901e-07
9.70908e-07
9.70888e-07
9.70914e-07
9.70925e-07
9.71736e-07
9.71809e-07
9.71679e-07
9.70987e-07
9.7184e-07
9.71798e-07
9.60892e-07
9.60842e-07
9.60694e-07
9.5981e-07
9.59743e-07
9.59712e-07
9.59798e-07
9.6075e-07
9.60798e-07
9.60694e-07
9.59426e-07
9.57895e-07
9.57895e-07
9.57895e-07
9.57895e-07
9.59579e-07
9.60023e-07
9.5981e-07
9.57895e-07
9.57896e-07
9.57896e-07
9.57896e-07
9.57896e-07
9.57895e-07
9.60066e-07
9.60973e-07
9.60892e-07
9.59743e-07
9.57895e-07
9.57896e-07
9.57896e-07
9.57896e-07
9.57896e-07
9.57895e-07
9.60072e-07
9.60843e-07
9.60842e-07
9.59711e-07
9.57895e-07
9.57896e-07
9.57896e-07
9.57896e-07
9.57896e-07
9.57895e-07
9.60051e-07
9.60151e-07
9.59798e-07
9.57895e-07
9.57896e-07
9.57896e-07
9.57896e-07
9.57896e-07
9.57895e-07
9.60078e-07
9.61004e-07
9.6075e-07
9.59579e-07
9.57895e-07
9.57895e-07
9.57895e-07
9.57895e-07
9.59837e-07
9.60089e-07
9.60962e-07
9.60798e-07
9.60023e-07
9.60066e-07
9.60072e-07
9.60051e-07
9.60078e-07
9.60089e-07
9.609e-07
9.60973e-07
9.60843e-07
9.60151e-07
9.61004e-07
9.60962e-07
9.50056e-07
9.50006e-07
9.49858e-07
9.48974e-07
9.48907e-07
9.48876e-07
9.48962e-07
9.49914e-07
9.49963e-07
9.49858e-07
9.4859e-07
9.47059e-07
9.47059e-07
9.47059e-07
9.47059e-07
9.48743e-07
9.49187e-07
9.48974e-07
9.47059e-07
9.4706e-07
9.4706e-07
9.4706e-07
9.4706e-07
9.47059e-07
9.4923e-07
9.50137e-07
9.50056e-07
9.48907e-07
9.47059e-07
9.4706e-07
9.4706e-07
9.4706e-07
9.4706e-07
9.47059e-07
9.49236e-07
9.50007e-07
9.50006e-07
9.48876e-07
9.47059e-07
9.4706e-07
9.4706e-07
9.4706e-07
9.4706e-07
9.47059e-07
9.49215e-07
9.49315e-07
9.48962e-07
9.47059e-07
9.4706e-07
9.4706e-07
9.4706e-07
9.4706e-07
9.47059e-07
9.49242e-07
9.50168e-07
9.49914e-07
9.48743e-07
9.47059e-07
9.47059e-07
9.47059e-07
9.47059e-07
9.49001e-07
9.49253e-07
9.50126e-07
9.49962e-07
9.49187e-07
9.4923e-07
9.49236e-07
9.49215e-07
9.49242e-07
9.49253e-07
9.50064e-07
9.50137e-07
9.50007e-07
9.49315e-07
9.50168e-07
9.50126e-07
9.3922e-07
9.3917e-07
9.39022e-07
9.38139e-07
9.38071e-07
9.3804e-07
9.38126e-07
9.39078e-07
9.39127e-07
9.39022e-07
9.37754e-07
9.36223e-07
9.36223e-07
9.36223e-07
9.36223e-07
9.37907e-07
9.38351e-07
9.38139e-07
9.36223e-07
9.36224e-07
9.36224e-07
9.36223e-07
9.36224e-07
9.36223e-07
9.38394e-07
9.39301e-07
9.3922e-07
9.38071e-07
9.36223e-07
9.36223e-07
9.36223e-07
9.36223e-07
9.36223e-07
9.36223e-07
9.384e-07
9.39171e-07
9.3917e-07
9.3804e-07
9.36223e-07
9.36223e-07
9.36223e-07
9.36223e-07
9.36224e-07
9.36223e-07
9.3838e-07
9.38479e-07
9.38126e-07
9.36223e-07
9.36224e-07
9.36223e-07
9.36223e-07
9.36224e-07
9.36223e-07
9.38406e-07
9.39332e-07
9.39078e-07
9.37907e-07
9.36223e-07
9.36223e-07
9.36223e-07
9.36223e-07
9.38165e-07
9.38417e-07
9.3929e-07
9.39126e-07
9.38351e-07
9.38394e-07
9.384e-07
9.3838e-07
9.38406e-07
9.38417e-07
9.39228e-07
9.39301e-07
9.39171e-07
9.38479e-07
9.39332e-07
9.3929e-07
9.28384e-07
9.28334e-07
9.28186e-07
9.27303e-07
9.27235e-07
9.27204e-07
9.2729e-07
9.28243e-07
9.28291e-07
9.28186e-07
9.26918e-07
9.25387e-07
9.25387e-07
9.25387e-07
9.25387e-07
9.27071e-07
9.27516e-07
9.27303e-07
9.25387e-07
9.25388e-07
9.25387e-07
9.25388e-07
9.25388e-07
9.25387e-07
9.27558e-07
9.28465e-07
9.28384e-07
9.27235e-07
9.25387e-07
9.25387e-07
9.25387e-07
9.25387e-07
9.25387e-07
9.25387e-07
9.27564e-07
9.28335e-07
9.28334e-07
9.27204e-07
9.25387e-07
9.25387e-07
9.25387e-07
9.25387e-07
9.25387e-07
9.25387e-07
9.27544e-07
9.27643e-07
9.2729e-07
9.25387e-07
9.25388e-07
9.25387e-07
9.25387e-07
9.25388e-07
9.25387e-07
9.2757e-07
9.28496e-07
9.28242e-07
9.27071e-07
9.25387e-07
9.25387e-07
9.25387e-07
9.25387e-07
9.27329e-07
9.27581e-07
9.28454e-07
9.28291e-07
9.27516e-07
9.27558e-07
9.27564e-07
9.27544e-07
9.2757e-07
9.27581e-07
9.28392e-07
9.28465e-07
9.28335e-07
9.27643e-07
9.28496e-07
9.28454e-07
9.17548e-07
9.17499e-07
9.1735e-07
9.16467e-07
9.164e-07
9.16368e-07
9.16454e-07
9.17407e-07
9.17455e-07
9.1735e-07
9.16082e-07
9.14551e-07
9.14551e-07
9.14551e-07
9.14551e-07
9.16236e-07
9.1668e-07
9.16467e-07
9.14551e-07
9.14552e-07
9.14552e-07
9.14552e-07
9.14552e-07
9.14551e-07
9.16722e-07
9.17629e-07
9.17548e-07
9.164e-07
9.14551e-07
9.14552e-07
9.14551e-07
9.14551e-07
9.14552e-07
9.14551e-07
9.16728e-07
9.17499e-07
9.17498e-07
9.16368e-07
9.14551e-07
9.14552e-07
9.14551e-07
9.14551e-07
9.14552e-07
9.14551e-07
9.16708e-07
9.16807e-07
9.16454e-07
9.14551e-07
9.14552e-07
9.14552e-07
9.14552e-07
9.14552e-07
9.14551e-07
9.16734e-07
9.17661e-07
9.17407e-07
9.16236e-07
9.14551e-07
9.14551e-07
9.14551e-07
9.14551e-07
9.16493e-07
9.16745e-07
9.17618e-07
9.17455e-07
9.1668e-07
9.16722e-07
9.16728e-07
9.16708e-07
9.16734e-07
9.16745e-07
9.17556e-07
9.17629e-07
9.17499e-07
9.16807e-07
9.17661e-07
9.17618e-07
9.06712e-07
9.06663e-07
9.06514e-07
9.05631e-07
9.05564e-07
9.05532e-07
9.05618e-07
9.06571e-07
9.06619e-07
9.06514e-07
9.05246e-07
9.03715e-07
9.03715e-07
9.03715e-07
9.03715e-07
9.054e-07
9.05844e-07
9.05631e-07
9.03715e-07
9.03716e-07
9.03716e-07
9.03716e-07
9.03716e-07
9.03715e-07
9.05886e-07
9.06793e-07
9.06712e-07
9.05564e-07
9.03715e-07
9.03716e-07
9.03715e-07
9.03715e-07
9.03716e-07
9.03715e-07
9.05892e-07
9.06663e-07
9.06663e-07
9.05532e-07
9.03715e-07
9.03716e-07
9.03715e-07
9.03715e-07
9.03716e-07
9.03715e-07
9.05872e-07
9.05971e-07
9.05618e-07
9.03715e-07
9.03716e-07
9.03716e-07
9.03716e-07
9.03716e-07
9.03715e-07
9.05898e-07
9.06825e-07
9.06571e-07
9.054e-07
9.03715e-07
9.03715e-07
9.03715e-07
9.03715e-07
9.05657e-07
9.05909e-07
9.06782e-07
9.06619e-07
9.05844e-07
9.05886e-07
9.05892e-07
9.05872e-07
9.05898e-07
9.05909e-07
9.0672e-07
9.06793e-07
9.06663e-07
9.05971e-07
9.06825e-07
9.06782e-07
8.95876e-07
8.95827e-07
8.95678e-07
8.94795e-07
8.94728e-07
8.94696e-07
8.94783e-07
8.95735e-07
8.95783e-07
8.95678e-07
8.9441e-07
8.92879e-07
8.92879e-07
8.92879e-07
8.92879e-07
8.94564e-07
8.95008e-07
8.94795e-07
8.92879e-07
8.9288e-07
8.9288e-07
8.9288e-07
8.9288e-07
8.92879e-07
8.9505e-07
8.95957e-07
8.95876e-07
8.94728e-07
8.92879e-07
8.9288e-07
8.92879e-07
8.92879e-07
8.9288e-07
8.92879e-07
8.95056e-07
8.95827e-07
8.95827e-07
8.94696e-07
8.92879e-07
8.9288e-07
8.92879e-07
8.92879e-07
8.9288e-07
8.92879e-07
8.95036e-07
8.95136e-07
8.94783e-07
8.92879e-07
8.9288e-07
8.9288e-07
8.9288e-07
8.9288e-07
8.92879e-07
8.95062e-07
8.95989e-07
8.95735e-07
8.94564e-07
8.92879e-07
8.92879e-07
8.92879e-07
8.92879e-07
8.94821e-07
8.95073e-07
8.95946e-07
8.95783e-07
8.95008e-07
8.9505e-07
8.95056e-07
8.95036e-07
8.95062e-07
8.95073e-07
8.95884e-07
8.95957e-07
8.95827e-07
8.95136e-07
8.95989e-07
8.95946e-07
8.8504e-07
8.84991e-07
8.84842e-07
8.83959e-07
8.83892e-07
8.8386e-07
8.83947e-07
8.84899e-07
8.84947e-07
8.84842e-07
8.83574e-07
8.82043e-07
8.82043e-07
8.82043e-07
8.82043e-07
8.83728e-07
8.84172e-07
8.83959e-07
8.82043e-07
8.82044e-07
8.82044e-07
8.82044e-07
8.82044e-07
8.82043e-07
8.84214e-07
8.85121e-07
8.8504e-07
8.83892e-07
8.82043e-07
8.82044e-07
8.82043e-07
8.82043e-07
8.82044e-07
8.82043e-07
8.8422e-07
8.84991e-07
8.84991e-07
8.8386e-07
8.82043e-07
8.82044e-07
8.82043e-07
8.82043e-07
8.82044e-07
8.82043e-07
8.842e-07
8.843e-07
8.83947e-07
8.82043e-07
8.82044e-07
8.82044e-07
8.82044e-07
8.82044e-07
8.82043e-07
8.84226e-07
8.85153e-07
8.84899e-07
8.83728e-07
8.82043e-07
8.82043e-07
8.82043e-07
8.82043e-07
8.83985e-07
8.84237e-07
8.8511e-07
8.84947e-07
8.84172e-07
8.84214e-07
8.8422e-07
8.842e-07
8.84226e-07
8.84237e-07
8.85048e-07
8.85121e-07
8.84991e-07
8.843e-07
8.85153e-07
8.8511e-07
8.74204e-07
8.74155e-07
8.74006e-07
8.73123e-07
8.73056e-07
8.73024e-07
8.73111e-07
8.74063e-07
8.74111e-07
8.74006e-07
8.72738e-07
8.71207e-07
8.71207e-07
8.71207e-07
8.71207e-07
8.72892e-07
8.73336e-07
8.73123e-07
8.71207e-07
8.71208e-07
8.71208e-07
8.71208e-07
8.71208e-07
8.71207e-07
8.73378e-07
8.74285e-07
8.74204e-07
8.73056e-07
8.71207e-07
8.71208e-07
8.71208e-07
8.71208e-07
8.71208e-07
8.71207e-07
8.73385e-07
8.74155e-07
8.74155e-07
8.73024e-07
8.71207e-07
8.71208e-07
8.71208e-07
8.71208e-07
8.71208e-07
8.71207e-07
8.73364e-07
8.73464e-07
8.73111e-07
8.71207e-07
8.71208e-07
8.71208e-07
8.71208e-07
8.71208e-07
8.71207e-07
8.7339e-07
8.74317e-07
8.74063e-07
8.72892e-07
8.71207e-07
8.71207e-07
8.71207e-07
8.71207e-07
8.73149e-07
8.73401e-07
8.74274e-07
8.74111e-07
8.73336e-07
8.73378e-07
8.73384e-07
8.73364e-07
8.7339e-07
8.73402e-07
8.74212e-07
8.74285e-07
8.74155e-07
8.73464e-07
8.74317e-07
8.74274e-07
8.63368e-07
8.63319e-07
8.6317e-07
8.62287e-07
8.6222e-07
8.62188e-07
8.62275e-07
8.63227e-07
8.63275e-07
8.6317e-07
8.61902e-07
8.60371e-07
8.60371e-07
8.60371e-07
8.60371e-07
8.62056e-07
8.625e-07
8.62287e-07
8.60371e-07
8.60372e-07
8.60372e-07
8.60372e-07
8.60372e-07
8.60371e-07
8.62542e-07
8.63449e-07
8.63368e-07
8.6222e-07
8.60371e-07
8.60372e-07
8.60372e-07
8.60372e-07
8.60372e-07
8.60371e-07
8.62549e-07
8.63319e-07
8.63319e-07
8.62188e-07
8.60371e-07
8.60372e-07
8.60372e-07
8.60372e-07
8.60372e-07
8.60371e-07
8.62528e-07
8.62628e-07
8.62275e-07
8.60371e-07
8.60372e-07
8.60372e-07
8.60372e-07
8.60372e-07
8.60371e-07
8.62554e-07
8.63481e-07
8.63227e-07
8.62056e-07
8.60371e-07
8.60371e-07
8.60371e-07
8.60371e-07
8.62313e-07
8.62565e-07
8.63438e-07
8.63275e-07
8.625e-07
8.62542e-07
8.62549e-07
8.62528e-07
8.62554e-07
8.62566e-07
8.63376e-07
8.63449e-07
8.63319e-07
8.62628e-07
8.63481e-07
8.63438e-07
8.52532e-07
8.52483e-07
8.52334e-07
8.51451e-07
8.51384e-07
8.51352e-07
8.51439e-07
8.52391e-07
8.52439e-07
8.52334e-07
8.51066e-07
8.49535e-07
8.49535e-07
8.49535e-07
8.49535e-07
8.5122e-07
8.51664e-07
8.51451e-07
8.49535e-07
8.49536e-07
8.49536e-07
8.49536e-07
8.49536e-07
8.49535e-07
8.51706e-07
8.52614e-07
8.52532e-07
8.51384e-07
8.49535e-07
8.49536e-07
8.49536e-07
8.49536e-07
8.49536e-07
8.49535e-07
8.51713e-07
8.52483e-07
8.52483e-07
8.51352e-07
8.49535e-07
8.49536e-07
8.49536e-07
8.49536e-07
8.49536e-07
8.49535e-07
8.51692e-07
8.51792e-07
8.51439e-07
8.49535e-07
8.49536e-07
8.49536e-07
8.49536e-07
8.49536e-07
8.49535e-07
8.51718e-07
8.52645e-07
8.52391e-07
8.5122e-07
8.49535e-07
8.49535e-07
8.49535e-07
8.49535e-07
8.51477e-07
8.51729e-07
8.52602e-07
8.52439e-07
8.51664e-07
8.51706e-07
8.51713e-07
8.51692e-07
8.51718e-07
8.5173e-07
8.5254e-07
8.52614e-07
8.52483e-07
8.51792e-07
8.52645e-07
8.52602e-07
8.41696e-07
8.41647e-07
8.41498e-07
8.40615e-07
8.40548e-07
8.40516e-07
8.40603e-07
8.41555e-07
8.41603e-07
8.41498e-07
8.40231e-07
8.38699e-07
8.38699e-07
8.38699e-07
8.38699e-07
8.40384e-07
8.40828e-07
8.40615e-07
8.38699e-07
8.387e-07
8.387e-07
8.387e-07
8.387e-07
8.38699e-07
8.4087e-07
8.41778e-07
8.41696e-07
8.40548e-07
8.38699e-07
8.387e-07
8.387e-07
8.387e-07
8.387e-07
8.38699e-07
8.40877e-07
8.41647e-07
8.41647e-07
8.40516e-07
8.38699e-07
8.387e-07
8.387e-07
8.387e-07
8.387e-07
8.38699e-07
8.40856e-07
8.40956e-07
8.40603e-07
8.38699e-07
8.387e-07
8.387e-07
8.387e-07
8.387e-07
8.38699e-07
8.40882e-07
8.41809e-07
8.41555e-07
8.40384e-07
8.38699e-07
8.38699e-07
8.38699e-07
8.38699e-07
8.40641e-07
8.40894e-07
8.41766e-07
8.41603e-07
8.40828e-07
8.4087e-07
8.40877e-07
8.40856e-07
8.40882e-07
8.40894e-07
8.41704e-07
8.41778e-07
8.41647e-07
8.40956e-07
8.41809e-07
8.41766e-07
8.3086e-07
8.30811e-07
8.30662e-07
8.29779e-07
8.29712e-07
8.2968e-07
8.29767e-07
8.30719e-07
8.30767e-07
8.30662e-07
8.29395e-07
8.27863e-07
8.27863e-07
8.27863e-07
8.27863e-07
8.29548e-07
8.29992e-07
8.29779e-07
8.27863e-07
8.27864e-07
8.27864e-07
8.27864e-07
8.27864e-07
8.27863e-07
8.30034e-07
8.30942e-07
8.3086e-07
8.29712e-07
8.27863e-07
8.27864e-07
8.27864e-07
8.27864e-07
8.27864e-07
8.27863e-07
8.30041e-07
8.30811e-07
8.30811e-07
8.2968e-07
8.27863e-07
8.27864e-07
8.27864e-07
8.27864e-07
8.27864e-07
8.27863e-07
8.3002e-07
8.3012e-07
8.29767e-07
8.27863e-07
8.27864e-07
8.27864e-07
8.27864e-07
8.27864e-07
8.27863e-07
8.30046e-07
8.30973e-07
8.30719e-07
8.29548e-07
8.27863e-07
8.27863e-07
8.27863e-07
8.27863e-07
8.29805e-07
8.30058e-07
8.3093e-07
8.30767e-07
8.29992e-07
8.30034e-07
8.30041e-07
8.3002e-07
8.30046e-07
8.30058e-07
8.30868e-07
8.30942e-07
8.30811e-07
8.3012e-07
8.30973e-07
8.3093e-07
8.20024e-07
8.19975e-07
8.19827e-07
8.18943e-07
8.18876e-07
8.18844e-07
8.18931e-07
8.19883e-07
8.19931e-07
8.19827e-07
8.18559e-07
8.17027e-07
8.17028e-07
8.17028e-07
8.17027e-07
8.18712e-07
8.19156e-07
8.18943e-07
8.17027e-07
8.17028e-07
8.17028e-07
8.17028e-07
8.17028e-07
8.17027e-07
8.19198e-07
8.20106e-07
8.20024e-07
8.18876e-07
8.17028e-07
8.17028e-07
8.17028e-07
8.17028e-07
8.17028e-07
8.17028e-07
8.19205e-07
8.19975e-07
8.19975e-07
8.18844e-07
8.17028e-07
8.17028e-07
8.17028e-07
8.17028e-07
8.17028e-07
8.17028e-07
8.19184e-07
8.19284e-07
8.18931e-07
8.17027e-07
8.17028e-07
8.17028e-07
8.17028e-07
8.17028e-07
8.17027e-07
8.1921e-07
8.20137e-07
8.19883e-07
8.18712e-07
8.17027e-07
8.17028e-07
8.17028e-07
8.17027e-07
8.18969e-07
8.19222e-07
8.20094e-07
8.19931e-07
8.19156e-07
8.19198e-07
8.19205e-07
8.19184e-07
8.1921e-07
8.19222e-07
8.20033e-07
8.20106e-07
8.19975e-07
8.19284e-07
8.20137e-07
8.20094e-07
8.09188e-07
8.09139e-07
8.08991e-07
8.08107e-07
8.0804e-07
8.08008e-07
8.08095e-07
8.09047e-07
8.09095e-07
8.08991e-07
8.07723e-07
8.06191e-07
8.06192e-07
8.06192e-07
8.06191e-07
8.07876e-07
8.0832e-07
8.08107e-07
8.06191e-07
8.06192e-07
8.06192e-07
8.06192e-07
8.06192e-07
8.06191e-07
8.08362e-07
8.0927e-07
8.09188e-07
8.0804e-07
8.06192e-07
8.06192e-07
8.06192e-07
8.06192e-07
8.06192e-07
8.06192e-07
8.08369e-07
8.09139e-07
8.09139e-07
8.08008e-07
8.06192e-07
8.06192e-07
8.06192e-07
8.06192e-07
8.06192e-07
8.06192e-07
8.08348e-07
8.08448e-07
8.08095e-07
8.06191e-07
8.06192e-07
8.06192e-07
8.06192e-07
8.06192e-07
8.06191e-07
8.08374e-07
8.09301e-07
8.09047e-07
8.07876e-07
8.06191e-07
8.06192e-07
8.06192e-07
8.06191e-07
8.08133e-07
8.08386e-07
8.09258e-07
8.09095e-07
8.0832e-07
8.08362e-07
8.08369e-07
8.08348e-07
8.08374e-07
8.08386e-07
8.09197e-07
8.0927e-07
8.09139e-07
8.08448e-07
8.09301e-07
8.09258e-07
7.98352e-07
7.98303e-07
7.98155e-07
7.97271e-07
7.97204e-07
7.97172e-07
7.97259e-07
7.98211e-07
7.98259e-07
7.98155e-07
7.96887e-07
7.95355e-07
7.95356e-07
7.95356e-07
7.95355e-07
7.9704e-07
7.97484e-07
7.97271e-07
7.95355e-07
7.95356e-07
7.95356e-07
7.95356e-07
7.95356e-07
7.95355e-07
7.97526e-07
7.98434e-07
7.98352e-07
7.97204e-07
7.95356e-07
7.95356e-07
7.95356e-07
7.95356e-07
7.95356e-07
7.95356e-07
7.97533e-07
7.98303e-07
7.98303e-07
7.97172e-07
7.95356e-07
7.95356e-07
7.95356e-07
7.95356e-07
7.95356e-07
7.95356e-07
7.97512e-07
7.97612e-07
7.97259e-07
7.95355e-07
7.95356e-07
7.95356e-07
7.95356e-07
7.95356e-07
7.95355e-07
7.97538e-07
7.98465e-07
7.98211e-07
7.9704e-07
7.95355e-07
7.95356e-07
7.95356e-07
7.95355e-07
7.97297e-07
7.9755e-07
7.98422e-07
7.98259e-07
7.97484e-07
7.97526e-07
7.97533e-07
7.97512e-07
7.97538e-07
7.9755e-07
7.98361e-07
7.98434e-07
7.98303e-07
7.97612e-07
7.98465e-07
7.98422e-07
7.87516e-07
7.87467e-07
7.87319e-07
7.86435e-07
7.86368e-07
7.86336e-07
7.86423e-07
7.87375e-07
7.87423e-07
7.87319e-07
7.86051e-07
7.84519e-07
7.8452e-07
7.8452e-07
7.84519e-07
7.86204e-07
7.86648e-07
7.86435e-07
7.84519e-07
7.84521e-07
7.8452e-07
7.8452e-07
7.84521e-07
7.84519e-07
7.8669e-07
7.87598e-07
7.87516e-07
7.86368e-07
7.8452e-07
7.8452e-07
7.8452e-07
7.8452e-07
7.8452e-07
7.8452e-07
7.86697e-07
7.87467e-07
7.87467e-07
7.86336e-07
7.8452e-07
7.8452e-07
7.8452e-07
7.8452e-07
7.8452e-07
7.8452e-07
7.86676e-07
7.86776e-07
7.86423e-07
7.84519e-07
7.84521e-07
7.8452e-07
7.8452e-07
7.84521e-07
7.84519e-07
7.86702e-07
7.87629e-07
7.87375e-07
7.86204e-07
7.84519e-07
7.8452e-07
7.8452e-07
7.84519e-07
7.86461e-07
7.86714e-07
7.87586e-07
7.87423e-07
7.86648e-07
7.8669e-07
7.86697e-07
7.86676e-07
7.86702e-07
7.86714e-07
7.87525e-07
7.87598e-07
7.87467e-07
7.86776e-07
7.87629e-07
7.87587e-07
7.7668e-07
7.76631e-07
7.76483e-07
7.75599e-07
7.75532e-07
7.755e-07
7.75587e-07
7.76539e-07
7.76587e-07
7.76483e-07
7.75215e-07
7.73683e-07
7.73684e-07
7.73684e-07
7.73683e-07
7.75368e-07
7.75812e-07
7.75599e-07
7.73683e-07
7.73685e-07
7.73684e-07
7.73684e-07
7.73685e-07
7.73683e-07
7.75854e-07
7.76762e-07
7.7668e-07
7.75532e-07
7.73684e-07
7.73684e-07
7.73684e-07
7.73684e-07
7.73684e-07
7.73684e-07
7.75861e-07
7.76632e-07
7.76631e-07
7.755e-07
7.73684e-07
7.73684e-07
7.73684e-07
7.73684e-07
7.73684e-07
7.73684e-07
7.7584e-07
7.7594e-07
7.75587e-07
7.73683e-07
7.73685e-07
7.73684e-07
7.73684e-07
7.73685e-07
7.73683e-07
7.75867e-07
7.76793e-07
7.76539e-07
7.75368e-07
7.73683e-07
7.73684e-07
7.73684e-07
7.73683e-07
7.75626e-07
7.75878e-07
7.76751e-07
7.76587e-07
7.75812e-07
7.75854e-07
7.75861e-07
7.7584e-07
7.75866e-07
7.75878e-07
7.76689e-07
7.76762e-07
7.76631e-07
7.7594e-07
7.76793e-07
7.76751e-07
7.65845e-07
7.65795e-07
7.65647e-07
7.64763e-07
7.64696e-07
7.64664e-07
7.64751e-07
7.65703e-07
7.65751e-07
7.65647e-07
7.64379e-07
7.62848e-07
7.62848e-07
7.62848e-07
7.62848e-07
7.64532e-07
7.64976e-07
7.64763e-07
7.62848e-07
7.62849e-07
7.62848e-07
7.62848e-07
7.62849e-07
7.62848e-07
7.65018e-07
7.65926e-07
7.65844e-07
7.64696e-07
7.62848e-07
7.62848e-07
7.62848e-07
7.62848e-07
7.62848e-07
7.62848e-07
7.65025e-07
7.65796e-07
7.65795e-07
7.64664e-07
7.62848e-07
7.62848e-07
7.62848e-07
7.62848e-07
7.62848e-07
7.62848e-07
7.65004e-07
7.65104e-07
7.64751e-07
7.62848e-07
7.62849e-07
7.62848e-07
7.62848e-07
7.62849e-07
7.62848e-07
7.65031e-07
7.65957e-07
7.65703e-07
7.64532e-07
7.62848e-07
7.62848e-07
7.62848e-07
7.62848e-07
7.6479e-07
7.65042e-07
7.65915e-07
7.65751e-07
7.64976e-07
7.65018e-07
7.65025e-07
7.65004e-07
7.65031e-07
7.65042e-07
7.65853e-07
7.65926e-07
7.65796e-07
7.65104e-07
7.65957e-07
7.65915e-07
7.55009e-07
7.54959e-07
7.54811e-07
7.53927e-07
7.5386e-07
7.53829e-07
7.53915e-07
7.54867e-07
7.54915e-07
7.54811e-07
7.53543e-07
7.52012e-07
7.52012e-07
7.52012e-07
7.52012e-07
7.53696e-07
7.5414e-07
7.53927e-07
7.52012e-07
7.52013e-07
7.52012e-07
7.52012e-07
7.52013e-07
7.52012e-07
7.54183e-07
7.5509e-07
7.55009e-07
7.5386e-07
7.52012e-07
7.52012e-07
7.52012e-07
7.52012e-07
7.52012e-07
7.52012e-07
7.54189e-07
7.5496e-07
7.54959e-07
7.53829e-07
7.52012e-07
7.52012e-07
7.52012e-07
7.52012e-07
7.52012e-07
7.52012e-07
7.54168e-07
7.54268e-07
7.53915e-07
7.52012e-07
7.52013e-07
7.52012e-07
7.52012e-07
7.52013e-07
7.52012e-07
7.54195e-07
7.55121e-07
7.54867e-07
7.53696e-07
7.52012e-07
7.52012e-07
7.52012e-07
7.52012e-07
7.53954e-07
7.54206e-07
7.55079e-07
7.54915e-07
7.5414e-07
7.54183e-07
7.54189e-07
7.54168e-07
7.54195e-07
7.54206e-07
7.55017e-07
7.5509e-07
7.5496e-07
7.54268e-07
7.55121e-07
7.55079e-07
7.44173e-07
7.44123e-07
7.43975e-07
7.43091e-07
7.43024e-07
7.42993e-07
7.43079e-07
7.44031e-07
7.44079e-07
7.43975e-07
7.42707e-07
7.41176e-07
7.41176e-07
7.41176e-07
7.41176e-07
7.4286e-07
7.43304e-07
7.43091e-07
7.41176e-07
7.41177e-07
7.41176e-07
7.41176e-07
7.41177e-07
7.41176e-07
7.43347e-07
7.44254e-07
7.44173e-07
7.43024e-07
7.41176e-07
7.41176e-07
7.41176e-07
7.41176e-07
7.41176e-07
7.41176e-07
7.43353e-07
7.44124e-07
7.44123e-07
7.42993e-07
7.41176e-07
7.41176e-07
7.41176e-07
7.41176e-07
7.41176e-07
7.41176e-07
7.43332e-07
7.43432e-07
7.43079e-07
7.41176e-07
7.41177e-07
7.41176e-07
7.41176e-07
7.41177e-07
7.41176e-07
7.43359e-07
7.44285e-07
7.44031e-07
7.4286e-07
7.41176e-07
7.41176e-07
7.41176e-07
7.41176e-07
7.43118e-07
7.4337e-07
7.44243e-07
7.44079e-07
7.43304e-07
7.43347e-07
7.43353e-07
7.43332e-07
7.43359e-07
7.4337e-07
7.44181e-07
7.44254e-07
7.44124e-07
7.43432e-07
7.44285e-07
7.44243e-07
7.33337e-07
7.33287e-07
7.33139e-07
7.32255e-07
7.32188e-07
7.32157e-07
7.32243e-07
7.33195e-07
7.33243e-07
7.33139e-07
7.31871e-07
7.3034e-07
7.3034e-07
7.3034e-07
7.3034e-07
7.32024e-07
7.32468e-07
7.32255e-07
7.3034e-07
7.30341e-07
7.3034e-07
7.3034e-07
7.30341e-07
7.3034e-07
7.32511e-07
7.33418e-07
7.33337e-07
7.32188e-07
7.3034e-07
7.3034e-07
7.3034e-07
7.3034e-07
7.3034e-07
7.3034e-07
7.32517e-07
7.33288e-07
7.33287e-07
7.32157e-07
7.3034e-07
7.3034e-07
7.3034e-07
7.3034e-07
7.3034e-07
7.3034e-07
7.32496e-07
7.32596e-07
7.32243e-07
7.3034e-07
7.30341e-07
7.3034e-07
7.3034e-07
7.30341e-07
7.3034e-07
7.32523e-07
7.33449e-07
7.33195e-07
7.32024e-07
7.3034e-07
7.3034e-07
7.3034e-07
7.3034e-07
7.32282e-07
7.32534e-07
7.33407e-07
7.33243e-07
7.32468e-07
7.32511e-07
7.32517e-07
7.32496e-07
7.32523e-07
7.32534e-07
7.33345e-07
7.33418e-07
7.33288e-07
7.32596e-07
7.33449e-07
7.33407e-07
7.22501e-07
7.22451e-07
7.22303e-07
7.21419e-07
7.21352e-07
7.21321e-07
7.21407e-07
7.22359e-07
7.22408e-07
7.22303e-07
7.21035e-07
7.19504e-07
7.19504e-07
7.19504e-07
7.19504e-07
7.21188e-07
7.21632e-07
7.21419e-07
7.19504e-07
7.19505e-07
7.19504e-07
7.19504e-07
7.19505e-07
7.19504e-07
7.21675e-07
7.22582e-07
7.22501e-07
7.21352e-07
7.19504e-07
7.19504e-07
7.19504e-07
7.19504e-07
7.19504e-07
7.19504e-07
7.21681e-07
7.22452e-07
7.22451e-07
7.21321e-07
7.19504e-07
7.19504e-07
7.19504e-07
7.19504e-07
7.19504e-07
7.19504e-07
7.2166e-07
7.2176e-07
7.21407e-07
7.19504e-07
7.19505e-07
7.19504e-07
7.19504e-07
7.19505e-07
7.19504e-07
7.21687e-07
7.22613e-07
7.22359e-07
7.21188e-07
7.19504e-07
7.19504e-07
7.19504e-07
7.19504e-07
7.21446e-07
7.21698e-07
7.22571e-07
7.22407e-07
7.21632e-07
7.21675e-07
7.21681e-07
7.2166e-07
7.21687e-07
7.21698e-07
7.22509e-07
7.22582e-07
7.22452e-07
7.2176e-07
7.22613e-07
7.22571e-07
7.11665e-07
7.11615e-07
7.11467e-07
7.10584e-07
7.10516e-07
7.10485e-07
7.10571e-07
7.11523e-07
7.11572e-07
7.11467e-07
7.10199e-07
7.08668e-07
7.08668e-07
7.08668e-07
7.08668e-07
7.10352e-07
7.10796e-07
7.10584e-07
7.08668e-07
7.08669e-07
7.08668e-07
7.08668e-07
7.08669e-07
7.08668e-07
7.10839e-07
7.11746e-07
7.11665e-07
7.10516e-07
7.08668e-07
7.08668e-07
7.08668e-07
7.08668e-07
7.08668e-07
7.08668e-07
7.10845e-07
7.11616e-07
7.11615e-07
7.10485e-07
7.08668e-07
7.08668e-07
7.08668e-07
7.08668e-07
7.08668e-07
7.08668e-07
7.10825e-07
7.10924e-07
7.10571e-07
7.08668e-07
7.08669e-07
7.08668e-07
7.08668e-07
7.08669e-07
7.08668e-07
7.10851e-07
7.11777e-07
7.11523e-07
7.10352e-07
7.08668e-07
7.08668e-07
7.08668e-07
7.08668e-07
7.1061e-07
7.10862e-07
7.11735e-07
7.11571e-07
7.10796e-07
7.10839e-07
7.10845e-07
7.10824e-07
7.10851e-07
7.10862e-07
7.11673e-07
7.11746e-07
7.11616e-07
7.10924e-07
7.11777e-07
7.11735e-07
7.00829e-07
7.00779e-07
7.00631e-07
6.99748e-07
6.99681e-07
6.99649e-07
6.99735e-07
7.00687e-07
7.00736e-07
7.00631e-07
6.99363e-07
6.97832e-07
6.97832e-07
6.97832e-07
6.97832e-07
6.99516e-07
6.99961e-07
6.99748e-07
6.97832e-07
6.97833e-07
6.97832e-07
6.97832e-07
6.97833e-07
6.97832e-07
7.00003e-07
7.0091e-07
7.00829e-07
6.99681e-07
6.97832e-07
6.97833e-07
6.97832e-07
6.97832e-07
6.97832e-07
6.97832e-07
7.00009e-07
7.0078e-07
7.00779e-07
6.99649e-07
6.97832e-07
6.97833e-07
6.97832e-07
6.97832e-07
6.97832e-07
6.97832e-07
6.99989e-07
7.00088e-07
6.99735e-07
6.97832e-07
6.97833e-07
6.97832e-07
6.97832e-07
6.97833e-07
6.97832e-07
7.00015e-07
7.00942e-07
7.00687e-07
6.99516e-07
6.97832e-07
6.97832e-07
6.97832e-07
6.97832e-07
6.99774e-07
7.00026e-07
7.00899e-07
7.00736e-07
6.99961e-07
7.00003e-07
7.00009e-07
6.99989e-07
7.00015e-07
7.00026e-07
7.00837e-07
7.0091e-07
7.0078e-07
7.00088e-07
7.00942e-07
7.00899e-07
6.89993e-07
6.89944e-07
6.89795e-07
6.88912e-07
6.88845e-07
6.88813e-07
6.88899e-07
6.89852e-07
6.899e-07
6.89795e-07
6.88527e-07
6.86996e-07
6.86996e-07
6.86996e-07
6.86996e-07
6.88681e-07
6.89125e-07
6.88912e-07
6.86996e-07
6.86997e-07
6.86997e-07
6.86997e-07
6.86997e-07
6.86996e-07
6.89167e-07
6.90074e-07
6.89993e-07
6.88845e-07
6.86996e-07
6.86997e-07
6.86996e-07
6.86996e-07
6.86997e-07
6.86996e-07
6.89173e-07
6.89944e-07
6.89943e-07
6.88813e-07
6.86996e-07
6.86997e-07
6.86996e-07
6.86996e-07
6.86997e-07
6.86996e-07
6.89153e-07
6.89252e-07
6.88899e-07
6.86996e-07
6.86997e-07
6.86997e-07
6.86997e-07
6.86997e-07
6.86996e-07
6.89179e-07
6.90106e-07
6.89852e-07
6.88681e-07
6.86996e-07
6.86996e-07
6.86996e-07
6.86996e-07
6.88938e-07
6.8919e-07
6.90063e-07
6.899e-07
6.89125e-07
6.89167e-07