/*--------------------------------*- C++ -*----------------------------------*\
| =========                 |                                                 |
| \\      /  F ield         | OpenFOAM: The Open Source CFD Toolbox           |
|  \\    /   O peration     | Version:  v2012                                 |
|   \\  /    A nd           | Website:  www.openfoam.com                      |
|    \\/     M anipulation  |                                                 |
\*---------------------------------------------------------------------------*/
FoamFile
{
    version     2.0;
    format      ascii;
    class       volScalarField;
    location    "725";
    object      epsilon;
}
// * * * * * * * * * * * * * * * * * * * * * * * * * * * * * * * * * * * * * //

dimensions      [0 2 -3 0 0 0 0];


internalField   nonuniform List<scalar> 
171728
(
2.08995e-09
3.45022e-09
3.64481e-09
4.79673e-09
2.0498e-09
3.21682e-09
3.47985e-09
4.34385e-09
1.9683e-09
2.97895e-09
3.26933e-09
3.94512e-09
1.89257e-09
2.77454e-09
3.08474e-09
3.6034e-09
1.82035e-09
2.60425e-09
2.92335e-09
3.30667e-09
1.72933e-09
2.47069e-09
2.77576e-09
3.05165e-09
1.63805e-09
2.37201e-09
2.64162e-09
2.83744e-09
1.50119e-09
2.30885e-09
2.52753e-09
2.66072e-09
1.32225e-09
2.27599e-09
2.44288e-09
2.5197e-09
1.16908e-09
2.25215e-09
2.39603e-09
2.4146e-09
1.05795e-09
2.2266e-09
2.38796e-09
2.33974e-09
9.88529e-10
2.20631e-09
2.42385e-09
2.29808e-09
9.45947e-10
2.22375e-09
2.50595e-09
2.29717e-09
9.17059e-10
2.2887e-09
2.63905e-09
2.35524e-09
8.93431e-10
2.42455e-09
2.85401e-09
2.47725e-09
8.72462e-10
2.71532e-09
3.19475e-09
2.70666e-09
8.54938e-10
3.15527e-09
3.69917e-09
3.13518e-09
8.40796e-10
3.83148e-09
4.48009e-09
3.87246e-09
8.30975e-10
4.92087e-09
5.63613e-09
5.15499e-09
8.25553e-10
6.58489e-09
7.51027e-09
7.40946e-09
8.26436e-10
9.02516e-09
1.00308e-08
1.13116e-08
8.4001e-10
1.23944e-08
1.3843e-08
1.7991e-08
8.63821e-10
1.75299e-08
1.82149e-08
2.90921e-08
9.10815e-10
2.38718e-08
2.67386e-08
4.6147e-08
9.88679e-10
3.31078e-08
3.43741e-08
7.59561e-08
1.11647e-09
4.40334e-08
4.50611e-08
1.14752e-07
1.30384e-09
5.88072e-08
6.05417e-08
1.53359e-07
1.59388e-09
7.48182e-08
7.57662e-08
2.28542e-07
1.99282e-09
9.52833e-08
9.51417e-08
2.93307e-07
2.56929e-09
1.17659e-07
1.18162e-07
3.59368e-07
3.30598e-09
1.43892e-07
1.44918e-07
4.4561e-07
4.39737e-09
1.72695e-07
1.7282e-07
5.19771e-07
5.66111e-09
2.04814e-07
2.08394e-07
5.90125e-07
7.32764e-09
2.41331e-07
2.38006e-07
6.44196e-07
1.01596e-08
2.77734e-07
2.81866e-07
7.12224e-07
1.27783e-08
3.21926e-07
3.20663e-07
7.6275e-07
1.62904e-08
3.60514e-07
3.63489e-07
8.01431e-07
2.09303e-08
4.09785e-07
4.12166e-07
8.42652e-07
2.58982e-08
4.56894e-07
4.53134e-07
8.86418e-07
3.5068e-08
5.01382e-07
5.0408e-07
9.19206e-07
4.21858e-08
5.52659e-07
5.63231e-07
9.38337e-07
5.11245e-08
6.01407e-07
5.91039e-07
9.78191e-07
6.10454e-08
6.38681e-07
6.55187e-07
1.01919e-06
7.8783e-08
7.09187e-07
6.94032e-07
1.03358e-06
9.13104e-08
7.4139e-07
7.4119e-07
1.05731e-06
1.06851e-07
7.78627e-07
7.9015e-07
1.10151e-06
1.28428e-07
8.27711e-07
8.22551e-07
1.12023e-06
1.51693e-07
8.7098e-07
8.72568e-07
1.14294e-06
1.7228e-07
9.00887e-07
9.07035e-07
1.1712e-06
1.98824e-07
9.40173e-07
9.27362e-07
1.1896e-06
2.23373e-07
9.65658e-07
9.79544e-07
1.22416e-06
2.61267e-07
1.00921e-06
1.00703e-06
1.24103e-06
2.86271e-07
1.03076e-06
1.02427e-06
1.24869e-06
3.10745e-07
1.04185e-06
1.04851e-06
1.27801e-06
3.51348e-07
1.08591e-06
1.08258e-06
1.31758e-06
3.84168e-07
1.10449e-06
1.10189e-06
1.31692e-06
4.09584e-07
1.1083e-06
1.11316e-06
1.31843e-06
4.40561e-07
1.13497e-06
1.1384e-06
1.35434e-06
4.73318e-07
1.16764e-06
1.16218e-06
1.36587e-06
5.03576e-07
1.18209e-06
1.17558e-06
1.38678e-06
5.32366e-07
1.18263e-06
1.18274e-06
1.39729e-06
5.47867e-07
1.19197e-06
1.20353e-06
1.39144e-06
5.73462e-07
1.2246e-06
1.22799e-06
1.42037e-06
6.0908e-07
1.2421e-06
1.23418e-06
1.45095e-06
6.25391e-07
1.25019e-06
1.23674e-06
1.44068e-06
6.37953e-07
1.24666e-06
1.24784e-06
1.41833e-06
6.51427e-07
1.2458e-06
1.25711e-06
1.45951e-06
6.72005e-07
1.29233e-06
1.29134e-06
1.51613e-06
7.07511e-07
1.29619e-06
1.29494e-06
1.48662e-06
7.12522e-07
1.26744e-06
1.26789e-06
1.42409e-06
7.09123e-07
1.28891e-06
1.27199e-06
1.47506e-06
7.30686e-07
1.32878e-06
1.32731e-06
1.55912e-06
7.60772e-07
1.30562e-06
1.33245e-06
1.53883e-06
7.59287e-07
1.27362e-06
1.29305e-06
1.47079e-06
7.54633e-07
1.30093e-06
1.28647e-06
1.47876e-06
7.7607e-07
1.34848e-06
1.32658e-06
1.53569e-06
7.94781e-07
1.33442e-06
1.33228e-06
1.53441e-06
7.89136e-07
1.29861e-06
1.31269e-06
1.51117e-06
7.88413e-07
1.30433e-06
1.31512e-06
1.5249e-06
8.04769e-07
1.32306e-06
1.32374e-06
1.53302e-06
8.07193e-07
1.31361e-06
1.30841e-06
1.50348e-06
8.02915e-07
1.31468e-06
1.31449e-06
1.51979e-06
8.16374e-07
1.3306e-06
1.33847e-06
1.55732e-06
8.17733e-07
1.31285e-06
1.31562e-06
1.52734e-06
8.03315e-07
1.29677e-06
1.29361e-06
1.49463e-06
8.05929e-07
1.32409e-06
1.31604e-06
1.53776e-06
8.21345e-07
1.33327e-06
1.33243e-06
1.56273e-06
8.09919e-07
1.28123e-06
1.29619e-06
1.50713e-06
7.87179e-07
1.25916e-06
1.26447e-06
1.46495e-06
7.89134e-07
1.30222e-06
1.28325e-06
1.51021e-06
8.14968e-07
1.33206e-06
1.32027e-06
1.56123e-06
8.10252e-07
1.29147e-06
1.30282e-06
1.53119e-06
7.72823e-07
1.23193e-06
1.24846e-06
1.4639e-06
7.60747e-07
1.23074e-06
1.23852e-06
1.46059e-06
7.57542e-07
1.21579e-06
1.20144e-06
1.45396e-06
5.2216e-09
3.61535e-09
3.8133e-09
4.94687e-09
5.6187e-09
4.0405e-09
2.02959e-09
1.20787e-09
1.5511e-09
1.50826e-09
3.37016e-09
4.12335e-09
5.17194e-09
4.00379e-09
4.16698e-09
4.8249e-09
5.15465e-09
4.79829e-09
7.58139e-09
3.27895e-09
4.69823e-09
3.11447e-09
4.92435e-09
4.43913e-09
9.02861e-09
5.22186e-09
8.95044e-09
4.9164e-09
4.67046e-09
3.28101e-09
4.35407e-09
5.15002e-09
4.6905e-09
4.61243e-09
3.53372e-09
4.31646e-09
4.3773e-09
4.72255e-09
4.50744e-09
4.23107e-09
3.04683e-09
3.55381e-09
2.85618e-09
4.41159e-09
3.98073e-09
8.9344e-09
4.80671e-09
8.93933e-09
4.51054e-09
4.24053e-09
3.03528e-09
3.92577e-09
4.65811e-09
4.24629e-09
4.2104e-09
3.3215e-09
3.91e-09
3.97309e-09
4.47226e-09
4.40571e-09
3.43347e-09
2.797e-09
3.17428e-09
2.63082e-09
3.95884e-09
3.60346e-09
8.96426e-09
4.42331e-09
9.06248e-09
4.19033e-09
3.82905e-09
2.82256e-09
3.56092e-09
4.21771e-09
3.87041e-09
3.81752e-09
3.12827e-09
3.55748e-09
3.62755e-09
4.38055e-09
4.35476e-09
3.11028e-09
2.57807e-09
2.94394e-09
2.42781e-09
3.58662e-09
3.29022e-09
9.10106e-09
4.12007e-09
9.28974e-09
3.92532e-09
3.47924e-09
2.64353e-09
3.25405e-09
3.84596e-09
3.55054e-09
3.47686e-09
2.96272e-09
3.25318e-09
3.32711e-09
4.33544e-09
4.34084e-09
2.89558e-09
2.38083e-09
2.77314e-09
2.25098e-09
3.27656e-09
3.01586e-09
9.36872e-09
3.86327e-09
9.60811e-09
3.69531e-09
3.18554e-09
2.50059e-09
2.99867e-09
3.52963e-09
3.27743e-09
3.18462e-09
2.81166e-09
2.99592e-09
3.06811e-09
4.3227e-09
4.31099e-09
2.73789e-09
2.21159e-09
2.64139e-09
2.10624e-09
3.00491e-09
2.77671e-09
9.70109e-09
3.64538e-09
9.94241e-09
3.51951e-09
2.94275e-09
2.39354e-09
2.79038e-09
3.26014e-09
3.04273e-09
2.93902e-09
2.67364e-09
2.78734e-09
2.84977e-09
4.28693e-09
4.19129e-09
2.61164e-09
2.07531e-09
2.52732e-09
1.99512e-09
2.76939e-09
2.58243e-09
9.98464e-09
3.48678e-09
9.9954e-09
3.40599e-09
2.74388e-09
2.32071e-09
2.62109e-09
3.02949e-09
2.85349e-09
2.74312e-09
2.5538e-09
2.62288e-09
2.66909e-09
4.15458e-09
3.51701e-09
2.50045e-09
1.97334e-09
2.42656e-09
1.91959e-09
2.57863e-09
2.43281e-09
9.92281e-09
3.38222e-09
8.90795e-09
3.31978e-09
2.58592e-09
2.28182e-09
2.4988e-09
2.84449e-09
2.70469e-09
2.58687e-09
2.46024e-09
2.49845e-09
2.52394e-09
3.46844e-09
3.07608e-09
2.4058e-09
1.90634e-09
2.35824e-09
1.88016e-09
2.43276e-09
2.32119e-09
8.34691e-09
3.29991e-09
6.53545e-09
3.24786e-09
2.47618e-09
2.25782e-09
2.4218e-09
2.69938e-09
2.58879e-09
2.47582e-09
2.40285e-09
2.41853e-09
2.4146e-09
3.04597e-09
2.67714e-09
2.34642e-09
1.87497e-09
2.32338e-09
1.8759e-09
2.32355e-09
2.23774e-09
5.99127e-09
3.2347e-09
4.70144e-09
3.21263e-09
2.4092e-09
2.23393e-09
2.38702e-09
2.58775e-09
2.51286e-09
2.40513e-09
2.38617e-09
2.3705e-09
2.33633e-09
2.66099e-09
2.46278e-09
2.32157e-09
1.88007e-09
2.33119e-09
1.90617e-09
2.24303e-09
2.18338e-09
4.38888e-09
3.21347e-09
3.62813e-09
3.23406e-09
2.38264e-09
2.208e-09
2.38704e-09
2.51596e-09
2.47395e-09
2.36357e-09
2.41096e-09
2.35576e-09
2.28858e-09
2.46381e-09
2.37209e-09
2.33971e-09
1.91947e-09
2.38234e-09
1.97861e-09
2.19399e-09
2.16287e-09
3.40405e-09
3.24848e-09
2.93129e-09
3.30491e-09
2.39385e-09
2.2169e-09
2.43187e-09
2.48384e-09
2.47158e-09
2.35882e-09
2.47966e-09
2.38828e-09
2.27844e-09
2.38164e-09
2.3543e-09
2.40454e-09
2.00256e-09
2.48124e-09
2.09637e-09
2.18188e-09
2.18541e-09
2.84895e-09
3.32892e-09
2.71229e-09
3.41425e-09
2.45011e-09
2.26696e-09
2.52755e-09
2.4906e-09
2.51565e-09
2.40523e-09
2.59915e-09
2.48034e-09
2.32101e-09
2.38251e-09
2.44341e-09
2.51283e-09
2.13716e-09
2.64191e-09
2.28441e-09
2.21711e-09
2.27269e-09
2.70301e-09
3.44701e-09
2.71861e-09
3.5785e-09
2.56263e-09
2.39917e-09
2.69296e-09
2.54707e-09
2.62221e-09
2.51322e-09
2.79361e-09
2.63585e-09
2.4257e-09
2.49584e-09
2.63437e-09
2.69861e-09
2.34288e-09
2.90529e-09
2.57282e-09
2.32399e-09
2.45503e-09
2.74686e-09
3.6402e-09
2.93043e-09
3.87681e-09
2.74428e-09
2.62957e-09
2.9613e-09
2.67656e-09
2.84309e-09
2.68704e-09
3.09352e-09
2.89023e-09
2.61627e-09
2.72409e-09
2.99216e-09
2.99459e-09
2.65971e-09
3.33738e-09
3.01429e-09
2.54606e-09
2.8272e-09
3.01006e-09
3.97329e-09
3.33965e-09
4.34304e-09
3.0601e-09
3.03868e-09
3.40334e-09
2.93945e-09
3.23914e-09
2.97612e-09
3.54406e-09
3.30298e-09
2.9833e-09
3.14288e-09
3.62115e-09
3.48308e-09
3.15813e-09
3.99216e-09
3.68228e-09
2.98243e-09
3.48131e-09
3.46741e-09
4.47661e-09
3.98473e-09
5.21151e-09
3.54541e-09
3.64046e-09
4.07046e-09
3.39505e-09
3.94766e-09
3.44086e-09
4.24745e-09
3.94239e-09
3.62093e-09
3.87221e-09
4.72476e-09
4.20471e-09
3.89914e-09
4.99923e-09
4.67596e-09
3.73838e-09
4.57881e-09
4.19085e-09
5.48877e-09
4.95786e-09
6.48231e-09
4.29737e-09
4.60173e-09
5.11891e-09
4.22808e-09
5.1808e-09
4.16555e-09
5.33366e-09
4.91925e-09
4.7354e-09
5.1406e-09
6.65483e-09
5.31446e-09
4.99035e-09
6.51487e-09
6.16024e-09
4.99787e-09
6.5119e-09
5.28781e-09
7.02278e-09
6.39884e-09
8.26322e-09
5.44586e-09
6.10031e-09
6.72904e-09
5.64e-09
7.31235e-09
5.23645e-09
7.00851e-09
6.43502e-09
6.6974e-09
7.36391e-09
1.00574e-08
6.99065e-09
6.63367e-09
8.73292e-09
8.40874e-09
7.21981e-09
1.00006e-08
6.89168e-09
8.85645e-09
8.64096e-09
1.11427e-08
7.22288e-09
8.33668e-09
9.09347e-09
8.05933e-09
1.09785e-08
6.87591e-09
9.24633e-09
8.60532e-09
1.00943e-08
1.11844e-08
1.58888e-08
9.45751e-09
9.10191e-09
1.19907e-08
1.15591e-08
1.11721e-08
1.57665e-08
9.27947e-09
1.18413e-08
1.1854e-08
1.4133e-08
9.88678e-09
1.14596e-08
1.24751e-08
1.20805e-08
1.69123e-08
9.32785e-09
1.27035e-08
1.18646e-08
1.60913e-08
1.77421e-08
2.5962e-08
1.29936e-08
1.25061e-08
1.65761e-08
1.61524e-08
1.75536e-08
2.59817e-08
1.28988e-08
1.51719e-08
1.63966e-08
1.87009e-08
1.35511e-08
1.60674e-08
1.77061e-08
1.8688e-08
2.71379e-08
1.28178e-08
1.71512e-08
1.64412e-08
2.60629e-08
2.89139e-08
4.18945e-08
1.7969e-08
1.76331e-08
2.28258e-08
2.22011e-08
2.91212e-08
4.20229e-08
1.78011e-08
1.93577e-08
2.25916e-08
2.40025e-08
1.92953e-08
2.20707e-08
2.45405e-08
2.93397e-08
4.0531e-08
1.78917e-08
2.41928e-08
2.23091e-08
4.23007e-08
4.61533e-08
6.64726e-08
2.46869e-08
2.39866e-08
3.11907e-08
3.08076e-08
4.60749e-08
6.70118e-08
2.45138e-08
2.71656e-08
3.13565e-08
3.42119e-08
2.6938e-08
3.06834e-08
3.41847e-08
4.7984e-08
7.30359e-08
2.45033e-08
3.26467e-08
3.10999e-08
6.98629e-08
7.26978e-08
1.01241e-07
3.37289e-08
3.32104e-08
4.19149e-08
4.10079e-08
7.36273e-08
1.00255e-07
3.38044e-08
3.57708e-08
4.17155e-08
4.06451e-08
3.63759e-08
4.09165e-08
4.7086e-08
7.63181e-08
9.35774e-08
3.30018e-08
4.16501e-08
4.2995e-08
1.03317e-07
1.09323e-07
1.47888e-07
4.48958e-08
4.4163e-08
5.55904e-08
5.50595e-08
1.08158e-07
1.496e-07
4.50025e-08
4.36237e-08
5.58304e-08
5.78904e-08
5.08767e-08
5.49451e-08
5.75703e-08
1.02544e-07
1.51487e-07
4.66746e-08
5.68405e-08
5.42236e-08
1.4748e-07
1.58996e-07
2.06914e-07
5.92923e-08
5.89056e-08
7.18817e-08
7.06057e-08
1.60941e-07
2.0599e-07
5.97314e-08
6.19688e-08
7.25736e-08
7.02918e-08
6.01626e-08
7.04885e-08
7.51699e-08
1.64098e-07
2.05406e-07
5.72792e-08
7.15587e-08
7.40454e-08
2.09562e-07
2.19316e-07
2.76042e-07
7.67609e-08
7.49223e-08
9.0529e-08
9.00124e-08
2.17985e-07
2.74215e-07
7.7185e-08
7.44383e-08
9.20655e-08
9.1289e-08
8.07186e-08
8.99443e-08
9.2598e-08
2.15142e-07
2.70867e-07
7.97503e-08
8.99078e-08
9.17688e-08
2.83567e-07
2.90834e-07
3.50558e-07
9.54657e-08
9.53728e-08
1.13675e-07
1.12109e-07
2.89656e-07
3.52465e-07
9.73209e-08
9.67155e-08
1.15525e-07
1.1258e-07
9.63525e-08
1.11797e-07
1.13335e-07
2.87574e-07
3.4996e-07
9.61399e-08
1.11816e-07
1.14374e-07
3.42089e-07
3.66955e-07
4.28477e-07
1.19637e-07
1.18059e-07
1.37139e-07
1.37388e-07
3.67766e-07
4.27934e-07
1.21965e-07
1.18895e-07
1.4093e-07
1.39183e-07
1.19517e-07
1.37066e-07
1.36004e-07
3.6505e-07
4.28411e-07
1.213e-07
1.38636e-07
1.40814e-07
4.30593e-07
4.4285e-07
5.026e-07
1.44235e-07
1.4418e-07
1.6759e-07
1.6556e-07
4.44089e-07
5.02986e-07
1.46879e-07
1.45238e-07
1.69282e-07
1.65359e-07
1.42707e-07
1.65171e-07
1.67616e-07
4.4445e-07
5.01556e-07
1.47009e-07
1.64403e-07
1.70071e-07
5.02101e-07
5.20026e-07
5.74798e-07
1.75034e-07
1.73032e-07
1.98793e-07
1.96697e-07
5.18153e-07
5.72248e-07
1.79031e-07
1.73888e-07
2.03843e-07
2.00484e-07
1.75003e-07
1.96287e-07
1.9785e-07
5.17699e-07
5.76418e-07
1.79641e-07
2.00478e-07
2.06514e-07
5.77566e-07
5.88069e-07
6.32494e-07
2.07428e-07
2.05378e-07
2.31896e-07
2.3268e-07
5.87636e-07
6.38341e-07
2.09481e-07
2.08416e-07
2.31073e-07
2.30737e-07
2.06954e-07
2.32078e-07
2.29761e-07
5.91158e-07
6.34763e-07
2.12653e-07
2.29444e-07
2.26101e-07
6.29925e-07
6.46729e-07
6.95815e-07
2.39746e-07
2.41842e-07
2.70298e-07
2.68507e-07
6.52368e-07
6.94377e-07
2.41338e-07
2.39463e-07
2.7709e-07
2.71834e-07
2.36636e-07
2.67985e-07
2.70813e-07
6.48162e-07
6.95097e-07
2.34109e-07
2.70885e-07
2.77879e-07
6.97102e-07
7.10015e-07
7.48243e-07
2.82866e-07
2.78289e-07
3.14064e-07
3.11838e-07
7.07449e-07
7.47702e-07
2.89713e-07
2.82268e-07
3.19129e-07
3.11925e-07
2.85135e-07
3.1099e-07
3.13073e-07
7.09437e-07
7.48416e-07
2.93408e-07
3.10822e-07
3.21798e-07
7.52319e-07
7.59166e-07
7.91081e-07
3.21408e-07
3.22876e-07
3.52057e-07
3.51796e-07
7.59844e-07
7.91027e-07
3.25413e-07
3.22799e-07
3.52382e-07
3.54761e-07
3.2049e-07
3.51062e-07
3.53703e-07
7.59785e-07
7.918e-07
3.27044e-07
3.53594e-07
3.53493e-07
7.90746e-07
8.02825e-07
8.33904e-07
3.66412e-07
3.612e-07
4.03649e-07
3.98488e-07
8.01608e-07
8.32514e-07
3.65435e-07
3.6441e-07
3.99525e-07
3.99184e-07
3.65299e-07
3.97282e-07
3.96996e-07
8.03129e-07
8.34606e-07
3.64208e-07
3.976e-07
3.9688e-07
8.32119e-07
8.43143e-07
8.6876e-07
4.11628e-07
4.11108e-07
4.38947e-07
4.44244e-07
8.43737e-07
8.72789e-07
4.0828e-07
4.1365e-07
4.41341e-07
4.48713e-07
4.07452e-07
4.43455e-07
4.4445e-07
8.45189e-07
8.70717e-07
4.09431e-07
4.46469e-07
4.46899e-07
8.75039e-07
8.79605e-07
9.1072e-07
4.5376e-07
4.57525e-07
5.02391e-07
4.93815e-07
8.82054e-07
9.05204e-07
4.56275e-07
4.55438e-07
4.97947e-07
4.8492e-07
4.59908e-07
4.92916e-07
5.04767e-07
8.79257e-07
9.04617e-07
4.6051e-07
4.86081e-07
5.04531e-07
9.12265e-07
9.19553e-07
9.38836e-07
5.15196e-07
5.02443e-07
5.45711e-07
5.38224e-07
9.13968e-07
9.3857e-07
5.08649e-07
5.02788e-07
5.40548e-07
5.596e-07
5.15473e-07
5.36589e-07
5.35166e-07
9.15429e-07
9.46961e-07
5.16985e-07
5.53074e-07
5.41566e-07
9.31654e-07
9.46928e-07
9.68361e-07
5.5576e-07
5.54377e-07
5.88654e-07
5.95118e-07
9.47834e-07
9.69193e-07
5.52603e-07
5.73534e-07
5.88584e-07
5.97405e-07
5.41038e-07
5.93408e-07
5.76817e-07
9.55017e-07
9.68369e-07
5.46805e-07
5.82216e-07
5.7668e-07
9.65552e-07
9.76008e-07
9.96584e-07
5.99099e-07
6.03137e-07
6.32519e-07
6.24814e-07
9.75727e-07
9.94599e-07
5.98894e-07
6.02332e-07
6.3089e-07
6.30316e-07
5.96291e-07
6.24424e-07
6.52043e-07
9.74824e-07
9.98523e-07
5.96541e-07
6.3817e-07
6.58916e-07
1.01238e-06
1.00537e-06
1.03366e-06
6.46059e-07
6.38373e-07
6.92229e-07
6.94616e-07
1.0044e-06
1.03836e-06
6.44359e-07
6.46617e-07
6.89523e-07
6.89404e-07
6.64668e-07
6.94213e-07
6.8768e-07
1.00842e-06
1.03074e-06
6.72904e-07
6.87858e-07
6.98716e-07
1.02885e-06
1.04184e-06
1.05691e-06
7.05867e-07
7.10339e-07
7.31953e-07
7.39075e-07
1.0463e-06
1.05888e-06
7.02537e-07
6.98892e-07
7.30135e-07
7.31239e-07
6.92429e-07
7.36414e-07
7.16437e-07
1.03665e-06
1.05467e-06
7.03872e-07
7.25606e-07
7.17617e-07
1.04893e-06
1.0624e-06
1.08157e-06
7.39107e-07
7.4406e-07
7.7145e-07
7.65289e-07
1.06347e-06
1.07813e-06
7.38425e-07
7.44891e-07
7.71787e-07
7.80834e-07
7.32701e-07
7.64507e-07
7.86357e-07
1.06341e-06
1.08924e-06
7.27942e-07
7.81149e-07
7.82667e-07
1.09355e-06
1.09003e-06
1.11444e-06
7.83943e-07
7.78736e-07
8.19834e-07
8.17933e-07
1.08623e-06
1.11405e-06
7.84059e-07
7.89073e-07
8.18976e-07
8.13887e-07
7.96653e-07
8.17548e-07
8.18549e-07
1.09526e-06
1.10858e-06
7.97516e-07
8.12713e-07
8.25219e-07
1.11507e-06
1.12147e-06
1.13995e-06
8.31431e-07
8.2805e-07
8.60258e-07
8.6302e-07
1.12082e-06
1.14046e-06
8.30202e-07
8.24954e-07
8.59587e-07
8.63854e-07
8.28067e-07
8.61285e-07
8.53783e-07
1.11522e-06
1.14189e-06
8.32478e-07
8.59968e-07
8.55111e-07
1.13651e-06
1.14603e-06
1.16201e-06
8.6873e-07
8.73349e-07
8.94096e-07
8.93334e-07
1.14749e-06
1.16292e-06
8.68545e-07
8.754e-07
8.95118e-07
8.97071e-07
8.62454e-07
8.92945e-07
8.98262e-07
1.14969e-06
1.16477e-06
8.65264e-07
9.01456e-07
9.00446e-07
1.16434e-06
1.16798e-06
1.18619e-06
9.03143e-07
9.00099e-07
9.31417e-07
9.30607e-07
1.16784e-06
1.18559e-06
9.0376e-07
9.00915e-07
9.28721e-07
9.20504e-07
9.09486e-07
9.31059e-07
9.28475e-07
1.16858e-06
1.17796e-06
9.09177e-07
9.19662e-07
9.24524e-07
1.18453e-06
1.19233e-06
1.2105e-06
9.3879e-07
9.4105e-07
9.60381e-07
9.60818e-07
1.19289e-06
1.20956e-06
9.35919e-07
9.33373e-07
9.62128e-07
9.73708e-07
9.34503e-07
9.58578e-07
9.65918e-07
1.18435e-06
1.21869e-06
9.31516e-07
9.67567e-07
9.67152e-07
1.21584e-06
1.21759e-06
1.24021e-06
9.70634e-07
9.66863e-07
1.00176e-06
9.97521e-07
1.21471e-06
1.23765e-06
9.73665e-07
9.81899e-07
1.00189e-06
9.93243e-07
9.76754e-07
9.98492e-07
9.97537e-07
1.22686e-06
1.23859e-06
9.78916e-07
1.00146e-06
1.00061e-06
1.2381e-06
1.24517e-06
1.25062e-06
1.00826e-06
1.00858e-06
1.01862e-06
1.02892e-06
1.24598e-06
1.26123e-06
1.00635e-06
9.97492e-07
1.01581e-06
1.02282e-06
1.00152e-06
1.02797e-06
1.01374e-06
1.24181e-06
1.25325e-06
1.00477e-06
1.02118e-06
1.01541e-06
1.24488e-06
1.25399e-06
1.27144e-06
1.02287e-06
1.03197e-06
1.0432e-06
1.03784e-06
1.26403e-06
1.26474e-06
1.02156e-06
1.0308e-06
1.04552e-06
1.04315e-06
1.01943e-06
1.03701e-06
1.04307e-06
1.25883e-06
1.26953e-06
1.01897e-06
1.03924e-06
1.03824e-06
1.26872e-06
1.27896e-06
1.29991e-06
1.05147e-06
1.04201e-06
1.07721e-06
1.07261e-06
1.26817e-06
1.29658e-06
1.05377e-06
1.04784e-06
1.07697e-06
1.07162e-06
1.05363e-06
1.07411e-06
1.08421e-06
1.27426e-06
1.29613e-06
1.04995e-06
1.07579e-06
1.08535e-06
1.31192e-06
1.30516e-06
1.31154e-06
1.08399e-06
1.08461e-06
1.09414e-06
1.1029e-06
1.30643e-06
1.3217e-06
1.08269e-06
1.08015e-06
1.09238e-06
1.09945e-06
1.09061e-06
1.10323e-06
1.09752e-06
1.30248e-06
1.31557e-06
1.09265e-06
1.09858e-06
1.10062e-06
1.31607e-06
1.31432e-06
1.32623e-06
1.09666e-06
1.1045e-06
1.11376e-06
1.10743e-06
1.32387e-06
1.32048e-06
1.09578e-06
1.10275e-06
1.114e-06
1.10947e-06
1.09797e-06
1.10616e-06
1.10248e-06
1.31943e-06
1.32516e-06
1.10103e-06
1.10903e-06
1.10361e-06
1.31359e-06
1.33254e-06
1.34439e-06
1.12021e-06
1.11012e-06
1.132e-06
1.1267e-06
1.323e-06
1.3356e-06
1.12001e-06
1.1136e-06
1.13231e-06
1.13256e-06
1.10865e-06
1.12648e-06
1.13743e-06
1.32857e-06
1.34229e-06
1.10748e-06
1.13186e-06
1.13366e-06
1.34771e-06
1.34821e-06
1.36201e-06
1.1362e-06
1.13431e-06
1.1541e-06
1.15917e-06
1.34279e-06
1.37007e-06
1.13712e-06
1.13904e-06
1.15457e-06
1.15563e-06
1.14422e-06
1.16037e-06
1.15208e-06
1.34861e-06
1.36464e-06
1.14132e-06
1.15664e-06
1.15224e-06
1.36274e-06
1.36752e-06
1.3789e-06
1.15976e-06
1.16671e-06
1.17451e-06
1.18041e-06
1.37736e-06
1.38905e-06
1.1592e-06
1.16069e-06
1.17243e-06
1.17401e-06
1.15465e-06
1.18073e-06
1.17367e-06
1.36947e-06
1.3783e-06
1.15552e-06
1.17363e-06
1.17373e-06
1.38027e-06
1.38304e-06
1.39013e-06
1.17919e-06
1.18183e-06
1.18904e-06
1.18253e-06
1.39088e-06
1.38026e-06
1.17763e-06
1.17716e-06
1.18954e-06
1.18284e-06
1.18117e-06
1.18255e-06
1.19283e-06
1.38102e-06
1.38151e-06
1.18067e-06
1.18008e-06
1.19278e-06
1.39578e-06
1.39229e-06
1.39152e-06
1.19039e-06
1.18282e-06
1.19247e-06
1.18819e-06
1.38116e-06
1.38262e-06
1.19122e-06
1.18451e-06
1.19347e-06
1.19516e-06
1.19323e-06
1.18699e-06
1.19272e-06
1.38383e-06
1.39582e-06
1.19364e-06
1.19704e-06
1.19386e-06
1.38979e-06
1.39474e-06
1.41614e-06
1.19436e-06
1.19306e-06
1.21421e-06
1.21703e-06
1.38874e-06
1.41989e-06
1.1953e-06
1.2015e-06
1.21489e-06
1.22268e-06
1.19305e-06
1.21678e-06
1.2096e-06
1.40319e-06
1.42667e-06
1.19439e-06
1.22329e-06
1.20958e-06
1.41058e-06
1.42417e-06
1.43821e-06
1.22308e-06
1.22455e-06
1.23963e-06
1.23864e-06
1.42723e-06
1.43938e-06
1.22339e-06
1.22768e-06
1.23856e-06
1.23379e-06
1.22075e-06
1.23952e-06
1.24618e-06
1.43162e-06
1.43142e-06
1.22006e-06
1.23379e-06
1.24614e-06
1.44698e-06
1.4406e-06
1.43824e-06
1.24175e-06
1.24121e-06
1.24385e-06
1.24693e-06
1.44233e-06
1.44562e-06
1.24045e-06
1.2344e-06
1.24243e-06
1.23716e-06
1.24895e-06
1.24892e-06
1.24735e-06
1.43247e-06
1.42786e-06
1.24923e-06
1.23544e-06
1.24776e-06
1.44131e-06
1.4401e-06
1.44471e-06
1.24451e-06
1.24931e-06
1.25032e-06
1.2521e-06
1.4483e-06
1.44526e-06
1.24322e-06
1.23933e-06
1.24992e-06
1.25108e-06
1.24292e-06
1.24918e-06
1.23391e-06
1.43078e-06
1.44219e-06
1.24266e-06
1.24527e-06
1.23184e-06
1.41721e-06
1.44751e-06
1.44663e-06
1.25254e-06
1.25157e-06
1.25464e-06
1.24933e-06
1.44591e-06
1.43535e-06
1.25246e-06
1.25469e-06
1.25479e-06
1.25786e-06
1.23365e-06
1.2441e-06
1.24622e-06
1.44653e-06
1.45128e-06
1.23168e-06
1.25245e-06
1.24929e-06
1.44463e-06
1.44842e-06
1.46398e-06
1.25517e-06
1.25002e-06
1.26735e-06
1.27281e-06
1.43818e-06
1.47565e-06
1.25528e-06
1.25857e-06
1.26759e-06
1.27329e-06
1.26002e-06
1.28053e-06
1.29851e-06
1.45478e-06
1.47824e-06
1.26541e-06
1.28421e-06
1.30183e-06
1.51077e-06
1.47321e-06
1.4963e-06
1.27665e-06
1.28371e-06
1.29627e-06
1.29522e-06
1.48775e-06
1.49681e-06
1.27735e-06
1.28291e-06
1.29842e-06
1.29797e-06
1.30334e-06
1.3e-06
1.29952e-06
1.48688e-06
1.49695e-06
1.30489e-06
1.29671e-06
1.2972e-06
1.49155e-06
1.49871e-06
1.48133e-06
1.297e-06
1.29383e-06
1.28827e-06
1.2752e-06
1.49628e-06
1.45662e-06
1.29936e-06
1.29781e-06
1.29015e-06
1.28152e-06
1.28796e-06
1.27067e-06
1.25484e-06
1.49755e-06
1.46392e-06
1.28406e-06
1.27344e-06
1.24987e-06
1.42397e-06
1.48095e-06
1.46706e-06
1.28346e-06
1.27208e-06
1.27815e-06
1.27585e-06
1.45692e-06
1.47239e-06
1.28405e-06
1.27496e-06
1.27554e-06
1.27003e-06
1.25217e-06
1.27435e-06
1.26585e-06
1.46317e-06
1.45721e-06
1.24683e-06
1.26631e-06
1.25921e-06
1.45504e-06
1.4702e-06
1.49903e-06
1.27913e-06
1.28641e-06
1.30264e-06
1.3214e-06
1.48592e-06
1.5335e-06
1.27604e-06
1.27254e-06
1.29859e-06
1.30856e-06
1.28547e-06
1.32595e-06
1.33364e-06
1.46426e-06
1.51586e-06
1.28009e-06
1.3164e-06
1.33726e-06
1.5515e-06
1.50903e-06
1.52173e-06
1.31208e-06
1.32566e-06
1.32171e-06
1.32033e-06
1.53797e-06
1.51064e-06
1.30938e-06
1.32038e-06
1.32252e-06
1.33036e-06
1.3383e-06
1.31793e-06
1.33191e-06
1.52712e-06
1.53566e-06
1.34461e-06
1.33489e-06
1.34271e-06
1.54274e-06
1.5225e-06
1.49528e-06
1.32068e-06
1.30952e-06
1.30183e-06
1.28096e-06
1.50658e-06
1.45654e-06
1.32191e-06
1.3285e-06
1.30432e-06
1.30229e-06
1.32023e-06
1.27607e-06
1.28586e-06
1.53581e-06
1.49202e-06
1.33204e-06
1.30266e-06
1.29016e-06
1.47211e-06
1.49498e-06
1.48824e-06
1.29603e-06
1.27794e-06
1.29203e-06
1.28495e-06
1.45705e-06
1.48274e-06
1.29824e-06
1.29425e-06
1.29305e-06
1.28805e-06
1.28087e-06
1.28434e-06
1.28305e-06
1.49029e-06
1.47726e-06
1.28157e-06
1.28472e-06
1.27786e-06
1.46918e-06
1.49337e-06
1.52705e-06
1.29451e-06
1.29878e-06
1.3232e-06
1.33827e-06
1.49873e-06
1.55656e-06
1.29481e-06
1.29022e-06
1.32127e-06
1.32004e-06
1.29307e-06
1.34365e-06
1.32995e-06
1.48226e-06
1.52193e-06
1.28266e-06
1.31704e-06
1.31934e-06
1.52807e-06
1.53469e-06
1.53571e-06
1.33057e-06
1.3435e-06
1.3346e-06
1.34155e-06
1.56277e-06
1.54844e-06
1.32915e-06
1.32896e-06
1.33423e-06
1.33541e-06
1.33556e-06
1.34451e-06
1.33523e-06
1.53154e-06
1.53864e-06
1.32728e-06
1.33399e-06
1.33088e-06
1.53447e-06
1.53588e-06
1.50878e-06
1.33154e-06
1.33322e-06
1.31227e-06
1.30627e-06
1.54572e-06
1.49672e-06
1.33153e-06
1.33321e-06
1.31273e-06
1.31485e-06
1.3289e-06
1.30356e-06
1.3088e-06
1.53911e-06
1.51461e-06
1.32716e-06
1.31621e-06
1.31234e-06
1.51035e-06
1.50915e-06
1.51001e-06
1.30856e-06
1.30204e-06
1.30847e-06
1.30235e-06
1.49663e-06
1.49644e-06
1.30894e-06
1.31072e-06
1.30837e-06
1.30914e-06
1.30592e-06
1.29846e-06
1.30846e-06
1.51495e-06
1.51347e-06
1.31048e-06
1.31178e-06
1.3139e-06
1.51836e-06
1.51604e-06
1.5348e-06
1.31332e-06
1.30798e-06
1.32922e-06
1.32397e-06
1.50338e-06
1.52472e-06
1.31253e-06
1.31224e-06
1.32805e-06
1.3241e-06
1.31496e-06
1.32203e-06
1.32519e-06
1.51829e-06
1.5289e-06
1.31912e-06
1.32384e-06
1.32541e-06
1.53247e-06
1.53748e-06
1.52251e-06
1.33008e-06
1.32482e-06
1.3216e-06
1.31797e-06
1.52765e-06
1.51946e-06
1.32904e-06
1.32444e-06
1.32126e-06
1.31511e-06
1.32479e-06
1.3167e-06
1.30965e-06
1.53043e-06
1.51159e-06
1.32454e-06
1.31212e-06
1.30736e-06
1.5033e-06
1.52249e-06
1.51391e-06
1.31645e-06
1.3146e-06
1.31056e-06
1.31217e-06
1.52038e-06
1.52255e-06
1.31613e-06
1.31115e-06
1.31051e-06
1.30968e-06
1.3056e-06
1.31198e-06
1.30551e-06
1.5119e-06
1.51422e-06
1.30341e-06
1.30823e-06
1.30415e-06
1.50918e-06
1.51815e-06
1.5407e-06
1.31135e-06
1.31413e-06
1.3283e-06
1.32915e-06
1.52824e-06
1.54466e-06
1.31145e-06
1.31409e-06
1.32908e-06
1.33651e-06
1.31208e-06
1.32969e-06
1.33518e-06
1.52288e-06
1.554e-06
1.31204e-06
1.33731e-06
1.33591e-06
1.55397e-06
1.54522e-06
1.53479e-06
1.33146e-06
1.3304e-06
1.32892e-06
1.32285e-06
1.54698e-06
1.52407e-06
1.33192e-06
1.33801e-06
1.32819e-06
1.32748e-06
1.33657e-06
1.32156e-06
1.326e-06
1.55731e-06
1.53138e-06
1.33705e-06
1.32626e-06
1.32452e-06
1.53051e-06
1.5335e-06
1.50527e-06
1.32141e-06
1.31426e-06
1.30097e-06
1.29815e-06
1.52229e-06
1.49952e-06
1.32011e-06
1.31666e-06
1.30005e-06
1.29433e-06
1.31498e-06
1.29708e-06
1.29289e-06
1.52835e-06
1.49424e-06
1.31382e-06
1.2947e-06
1.29383e-06
1.49328e-06
1.5063e-06
1.52131e-06
1.29909e-06
1.29776e-06
1.30557e-06
1.31369e-06
1.50193e-06
1.53559e-06
1.29826e-06
1.29294e-06
1.30463e-06
1.30339e-06
1.29182e-06
1.31364e-06
1.30585e-06
1.49542e-06
1.52002e-06
1.29312e-06
1.30505e-06
1.30796e-06
1.52461e-06
1.53069e-06
1.54703e-06
1.31446e-06
1.3238e-06
1.32735e-06
1.33386e-06
1.54727e-06
1.55994e-06
1.3134e-06
1.31457e-06
1.32694e-06
1.33207e-06
1.31829e-06
1.33473e-06
1.33542e-06
1.53211e-06
1.55634e-06
1.31952e-06
1.33251e-06
1.33476e-06
1.56148e-06
1.54832e-06
1.51491e-06
1.32708e-06
1.33231e-06
1.30581e-06
1.29565e-06
1.55987e-06
1.49535e-06
1.32683e-06
1.33212e-06
1.30792e-06
1.31127e-06
1.33508e-06
1.29638e-06
1.30655e-06
1.55811e-06
1.51928e-06
1.33428e-06
1.30977e-06
1.30512e-06
1.51198e-06
1.51246e-06
1.48111e-06
1.2945e-06
1.28093e-06
1.27162e-06
1.25989e-06
1.4906e-06
1.4571e-06
1.297e-06
1.29834e-06
1.27288e-06
1.26969e-06
1.29126e-06
1.25928e-06
1.26304e-06
1.5155e-06
1.47413e-06
1.28982e-06
1.26701e-06
1.2613e-06
1.46384e-06
1.48209e-06
1.49608e-06
1.26984e-06
1.25981e-06
1.27644e-06
1.28536e-06
1.45998e-06
1.51138e-06
1.27054e-06
1.26693e-06
1.27451e-06
1.27129e-06
1.26155e-06
1.28486e-06
1.27481e-06
1.47489e-06
1.49056e-06
1.25978e-06
1.27063e-06
1.27316e-06
1.49494e-06
1.50669e-06
1.54363e-06
1.28812e-06
1.30241e-06
1.31538e-06
1.33086e-06
1.52939e-06
1.57347e-06
1.28447e-06
1.28206e-06
1.31225e-06
1.31269e-06
1.29019e-06
1.3311e-06
1.32111e-06
1.50214e-06
1.54458e-06
1.28893e-06
1.31633e-06
1.32224e-06
1.55647e-06
1.54872e-06
1.53357e-06
1.31801e-06
1.33186e-06
1.30975e-06
1.30995e-06
1.57687e-06
1.53144e-06
1.31546e-06
1.31659e-06
1.30966e-06
1.31212e-06
1.32325e-06
1.30941e-06
1.31023e-06
1.55036e-06
1.53857e-06
1.32488e-06
1.31472e-06
1.31337e-06
1.53573e-06
1.53053e-06
1.47057e-06
1.29737e-06
1.29222e-06
1.25417e-06
1.24046e-06
1.52475e-06
1.44406e-06
1.29854e-06
1.30155e-06
1.25716e-06
1.25959e-06
1.29577e-06
1.24007e-06
1.25135e-06
1.53588e-06
1.47516e-06
1.2989e-06
1.25806e-06
1.25289e-06
1.46491e-06
1.46926e-06
1.45606e-06
1.24553e-06
1.23195e-06
1.23677e-06
1.22647e-06
1.44267e-06
1.43814e-06
1.24847e-06
1.25027e-06
1.23911e-06
1.23951e-06
1.24371e-06
1.22713e-06
1.23774e-06
1.4735e-06
1.45746e-06
1.24456e-06
1.23787e-06
1.23747e-06
1.45571e-06
1.45976e-06
1.46569e-06
1.23777e-06
1.22964e-06
1.2369e-06
1.2434e-06
1.44606e-06
1.47692e-06
1.23986e-06
1.24003e-06
1.23535e-06
1.23279e-06
1.2395e-06
1.24469e-06
1.24084e-06
1.46039e-06
1.46054e-06
1.23886e-06
1.23254e-06
1.23761e-06
1.46943e-06
1.45126e-06
1.20703e-06
1.21509e-06
1.46478e-06
1.20495e-06
1.20155e-06
7.6423e-07
7.54066e-07
7.59174e-07
1.20913e-06
1.44503e-06
1.20624e-06
6.51842e-10
3.34334e-09
4.44254e-10
5.95433e-10
8.93708e-09
3.34292e-09
2.93911e-09
2.95087e-09
2.52128e-09
3.99277e-09
7.45977e-10
6.07424e-08
5.00038e-09
3.75279e-09
9.07064e-09
7.2945e-09
2.64651e-07
5.74149e-09
4.09627e-07
1.43129e-06
2.88526e-06
8.77797e-09
1.70317e-07
7.22074e-09
2.70893e-07
1.22505e-09
1.57637e-09
1.53605e-09
2.07204e-09
1.21036e-09
1.5615e-09
1.52174e-09
8.12045e-09
7.42426e-08
5.82464e-09
3.40703e-09
8.36481e-09
5.31983e-08
5.83343e-09
1.5471e-06
3.11084e-06
2.29925e-09
1.69213e-09
1.14245e-07
3.63154e-09
2.37581e-09
1.67608e-09
7.80084e-08
2.1585e-07
2.19917e-07
4.60199e-09
1.8715e-07
1.895e-07
1.65292e-08
7.55437e-07
1.17778e-08
1.0373e-06
6.61993e-06
9.6959e-06
1.7996e-08
4.83445e-07
1.32055e-08
7.22877e-07
1.19746e-09
1.54595e-09
1.50582e-09
1.98836e-09