/*--------------------------------*- C++ -*----------------------------------*\
| =========                 |                                                 |
| \\      /  F ield         | OpenFOAM: The Open Source CFD Toolbox           |
|  \\    /   O peration     | Version:  v2012                                 |
|   \\  /    A nd           | Website:  www.openfoam.com                      |
|    \\/     M anipulation  |                                                 |
\*---------------------------------------------------------------------------*/
FoamFile
{
    version     2.0;
    format      ascii;
    class       volScalarField;
    location    "725";
    object      k;
}
// * * * * * * * * * * * * * * * * * * * * * * * * * * * * * * * * * * * * * //

dimensions      [0 2 -2 0 0 0 0];


internalField   nonuniform List<scalar> 
171728
(
2.07528e-07
2.56679e-07
2.51765e-07
3.42023e-07
2.04824e-07
2.4634e-07
2.43299e-07
3.24166e-07
2.00697e-07
2.36374e-07
2.37205e-07
3.07574e-07
1.96518e-07
2.26851e-07
2.32739e-07
2.9245e-07
1.91764e-07
2.17956e-07
2.28885e-07
2.78329e-07
1.87482e-07
2.09915e-07
2.2461e-07
2.64896e-07
1.83968e-07
2.0333e-07
2.1957e-07
2.52604e-07
1.80506e-07
1.9905e-07
2.13378e-07
2.4159e-07
1.82452e-07
1.96652e-07
2.06551e-07
2.3184e-07
1.84184e-07
1.97055e-07
2.01249e-07
2.23293e-07
1.71938e-07
2.02169e-07
1.97555e-07
2.16138e-07
1.57313e-07
2.10562e-07
1.95964e-07
2.09809e-07
1.49067e-07
2.13564e-07
1.96617e-07
2.03868e-07
1.45261e-07
2.06579e-07
1.98192e-07
1.99471e-07
1.42916e-07
1.95602e-07
2.01147e-07
1.96972e-07
1.40801e-07
1.84056e-07
2.0833e-07
1.96955e-07
1.3908e-07
1.8378e-07
2.21637e-07
2.03219e-07
1.37526e-07
1.96313e-07
2.43665e-07
2.20046e-07
1.3627e-07
2.23427e-07
2.78687e-07
2.55488e-07
1.35479e-07
2.70555e-07
3.37638e-07
3.236e-07
1.35224e-07
3.46807e-07
4.21833e-07
4.4751e-07
1.35418e-07
4.58661e-07
5.47012e-07
6.81143e-07
1.35838e-07
6.30119e-07
7.10685e-07
1.06526e-06
1.37131e-07
8.55526e-07
9.92301e-07
1.7071e-06
1.39969e-07
1.19452e-06
1.30325e-06
2.77062e-06
1.43903e-07
1.58034e-06
1.64283e-06
3.91745e-06
1.51334e-07
2.13421e-06
2.23115e-06
5.66752e-06
1.64606e-07
2.73001e-06
2.79631e-06
7.63007e-06
1.80176e-07
3.50308e-06
3.5021e-06
1.04464e-05
2.12579e-07
4.36032e-06
4.34644e-06
1.20749e-05
2.44541e-07
5.36341e-06
5.44011e-06
1.50768e-05
2.96361e-07
6.47342e-06
6.40738e-06
1.72701e-05
3.648e-07
7.68007e-06
7.89755e-06
1.97533e-05
4.45019e-07
9.10739e-06
8.94483e-06
2.1264e-05
5.83411e-07
1.04663e-05
1.06121e-05
2.34211e-05
7.78451e-07
1.21719e-05
1.21407e-05
2.53831e-05
8.77528e-07
1.36746e-05
1.37977e-05
2.64736e-05
1.21481e-06
1.54752e-05
1.54502e-05
2.79006e-05
1.37584e-06
1.71847e-05
1.74171e-05
2.93636e-05
1.96609e-06
1.91197e-05
1.86295e-05
3.09344e-05
2.37363e-06
2.06373e-05
2.15624e-05
3.14947e-05
2.85015e-06
2.30167e-05
2.23729e-05
3.24009e-05
3.31286e-06
2.3687e-05
2.44708e-05
3.4737e-05
4.24494e-06
2.6703e-05
2.64516e-05
3.52802e-05
5.15954e-06
2.84455e-05
2.76246e-05
3.566e-05
5.71491e-06
2.88927e-05
2.99817e-05
3.77112e-05
6.87978e-06
3.11816e-05
3.09458e-05
3.85321e-05
8.26222e-06
3.29725e-05
3.28062e-05
3.92691e-05
9.28812e-06
3.40721e-05
3.46162e-05
4.04187e-05
1.06019e-05
3.55983e-05
3.50225e-05
4.12029e-05
1.18341e-05
3.65922e-05
3.69446e-05
4.23757e-05
1.36949e-05
3.82413e-05
3.8637e-05
4.35462e-05
1.54872e-05
3.97788e-05
3.9403e-05
4.35836e-05
1.61571e-05
3.99754e-05
3.98042e-05
4.44081e-05
1.80988e-05
4.13588e-05
4.16977e-05
4.64611e-05
2.03684e-05
4.30874e-05
4.2828e-05
4.6808e-05
2.10925e-05
4.31894e-05
4.31913e-05
4.65043e-05
2.28656e-05
4.38111e-05
4.41958e-05
4.79372e-05
2.4331e-05
4.55096e-05
4.54564e-05
4.86785e-05
2.59544e-05
4.68865e-05
4.64647e-05
4.94077e-05
2.76627e-05
4.70707e-05
4.67725e-05
5.02626e-05
2.86165e-05
4.69628e-05
4.73612e-05
5.00675e-05
2.9058e-05
4.83612e-05
4.89325e-05
5.06202e-05
3.1516e-05
4.99896e-05
4.98244e-05
5.25755e-05
3.30944e-05
5.04771e-05
4.9815e-05
5.27732e-05
3.33426e-05
5.06049e-05
5.00335e-05
5.1601e-05
3.42506e-05
5.03794e-05
5.06149e-05
5.21361e-05
3.47265e-05
5.16491e-05
5.23588e-05
5.54921e-05
3.68562e-05
5.34714e-05
5.33695e-05
5.57051e-05
3.85201e-05
5.24471e-05
5.25472e-05
5.25649e-05
3.8462e-05
5.2112e-05
5.1836e-05
5.26223e-05
3.84023e-05
5.49737e-05
5.40536e-05
5.73395e-05
4.03104e-05
5.54766e-05
5.5978e-05
5.82314e-05
4.17551e-05
5.32764e-05
5.51391e-05
5.5186e-05
4.14848e-05
5.30254e-05
5.35356e-05
5.41569e-05
4.15604e-05
5.65007e-05
5.46365e-05
5.67888e-05
4.33568e-05
5.73728e-05
5.64939e-05
5.78517e-05
4.39932e-05
5.55315e-05
5.6297e-05
5.69431e-05
4.38353e-05
5.48443e-05
5.58721e-05
5.69054e-05
4.42408e-05
5.61454e-05
5.63845e-05
5.77872e-05
4.50147e-05
5.64795e-05
5.61408e-05
5.69187e-05
4.49998e-05
5.64165e-05
5.59105e-05
5.66654e-05
4.56827e-05
5.74864e-05
5.77543e-05
5.89986e-05
4.6593e-05
5.74917e-05
5.78838e-05
5.88007e-05
4.60612e-05
5.61338e-05
5.60581e-05
5.67539e-05
4.56759e-05
5.66492e-05
5.61776e-05
5.75126e-05
4.70541e-05
5.85829e-05
5.83882e-05
5.98264e-05
4.75778e-05
5.75598e-05
5.81989e-05
5.87836e-05
4.60228e-05
5.48863e-05
5.55145e-05
5.59393e-05
4.53507e-05
5.54944e-05
5.52833e-05
5.65324e-05
4.72033e-05
5.92732e-05
5.82186e-05
5.99433e-05
4.85729e-05
5.94102e-05
5.89266e-05
6.01764e-05
4.72002e-05
5.52436e-05
5.64389e-05
5.68414e-05
4.49825e-05
5.39748e-05
5.47782e-05
5.57617e-05
4.46771e-05
5.48118e-05
5.42363e-05
5.70288e-05
3.63376e-07
2.98636e-07
3.0499e-07
3.52074e-07
3.1929e-07
3.22949e-07
2.05076e-07
1.64934e-07
1.87064e-07
1.8357e-07
2.79957e-07
3.27591e-07
3.57471e-07
3.04673e-07
3.33961e-07
3.43215e-07
3.60651e-07
3.42082e-07
5.31847e-07
2.53738e-07
3.53507e-07
2.46058e-07
3.51199e-07
3.30467e-07
4.14869e-07
3.40244e-07
4.12527e-07
3.27677e-07
3.33153e-07
2.49014e-07
3.1968e-07
3.56552e-07
3.38562e-07
3.31574e-07
2.45112e-07
3.17482e-07
3.25512e-07
3.38682e-07
3.245e-07
3.17661e-07
2.42726e-07
2.61218e-07
2.33381e-07
3.29385e-07
3.0981e-07
4.12062e-07
3.23134e-07
4.1191e-07
3.10423e-07
3.14801e-07
2.38788e-07
3.00965e-07
3.37342e-07
3.20627e-07
3.1326e-07
2.38521e-07
3.00509e-07
3.08781e-07
3.21824e-07
3.11044e-07
2.51614e-07
2.30492e-07
2.3589e-07
2.2275e-07
3.0885e-07
2.91585e-07
4.12249e-07
3.06423e-07
4.1611e-07
2.96306e-07
2.96668e-07
2.29243e-07
2.84589e-07
3.19523e-07
3.04642e-07
2.96559e-07
2.33769e-07
2.8504e-07
2.9355e-07
3.09086e-07
3.02312e-07
2.32645e-07
2.20175e-07
2.2491e-07
2.12785e-07
2.90702e-07
2.74897e-07
4.1739e-07
2.93199e-07
4.25075e-07
2.84987e-07
2.80791e-07
2.20097e-07
2.69852e-07
3.03713e-07
2.90962e-07
2.81118e-07
2.29842e-07
2.7069e-07
2.79364e-07
3.01381e-07
3.00567e-07
2.22829e-07
2.10476e-07
2.17185e-07
2.03632e-07
2.74065e-07
2.59715e-07
4.29988e-07
2.8235e-07
4.46716e-07
2.7506e-07
2.66395e-07
2.11857e-07
2.56382e-07
2.90146e-07
2.78434e-07
2.67479e-07
2.25782e-07
2.57941e-07
2.6587e-07
3.00064e-07
3.03302e-07
2.15507e-07
2.01332e-07
2.11425e-07
1.94915e-07
2.5897e-07
2.46241e-07
4.54455e-07
2.72772e-07
4.84535e-07
2.65947e-07
2.53084e-07
2.04728e-07
2.43863e-07
2.77602e-07
2.66697e-07
2.5488e-07
2.20911e-07
2.46716e-07
2.53462e-07
3.02931e-07
3.07996e-07
2.10309e-07
1.928e-07
2.07518e-07
1.86724e-07
2.45656e-07
2.35077e-07
4.9269e-07
2.64242e-07
5.15057e-07
2.61559e-07
2.40949e-07
1.99782e-07
2.32761e-07
2.65925e-07
2.56613e-07
2.4431e-07
2.15038e-07
2.37117e-07
2.42347e-07
3.08047e-07
3.29094e-07
2.06877e-07
1.84749e-07
2.05936e-07
1.79357e-07
2.34687e-07
2.25984e-07
5.31073e-07
2.60903e-07
6.20666e-07
2.59019e-07
2.30252e-07
1.96925e-07
2.22739e-07
2.55999e-07
2.48177e-07
2.34652e-07
2.08123e-07
2.27463e-07
2.3248e-07
3.29833e-07
3.39898e-07
2.05661e-07
1.77685e-07
2.03967e-07
1.73522e-07
2.25757e-07
2.18439e-07
6.55872e-07
2.58194e-07
7.26754e-07
2.53952e-07
2.20318e-07
1.9679e-07
2.13621e-07
2.47651e-07
2.39753e-07
2.25204e-07
2.0228e-07
2.19114e-07
2.23786e-07
3.38079e-07
2.93843e-07
2.03014e-07
1.72308e-07
1.99609e-07
1.69216e-07
2.1835e-07
2.12272e-07
7.33073e-07
2.52264e-07
7.00165e-07
2.46737e-07
2.11456e-07
2.00192e-07
2.06061e-07
2.39286e-07
2.31467e-07
2.17481e-07
1.98276e-07
2.12531e-07
2.16465e-07
2.8565e-07
2.46079e-07
1.98724e-07
1.68419e-07
1.97503e-07
1.66403e-07
2.1233e-07
2.08297e-07
6.34832e-07
2.45383e-07
4.56889e-07
2.44557e-07
2.04514e-07
2.08754e-07
1.9958e-07
2.31098e-07
2.24013e-07
2.10584e-07
1.96032e-07
2.04548e-07
2.10033e-07
2.43612e-07
2.21485e-07
1.97385e-07
1.65858e-07
1.96962e-07
1.64897e-07
2.08413e-07
2.03852e-07
4.06765e-07
2.44694e-07
2.92456e-07
2.47489e-07
1.97935e-07
2.13458e-07
1.93638e-07
2.23731e-07
2.1786e-07
2.02711e-07
1.96302e-07
1.98538e-07
2.03916e-07
2.20344e-07
2.07872e-07
1.96966e-07
1.64712e-07
1.96778e-07
1.64524e-07
2.03899e-07
1.9746e-07
2.67892e-07
2.48746e-07
2.24783e-07
2.50704e-07
1.92418e-07
2.09145e-07
1.89156e-07
2.17796e-07
2.13316e-07
1.97834e-07
1.97765e-07
1.9625e-07
1.99258e-07
2.07626e-07
2.0221e-07
1.96686e-07
1.64624e-07
1.96735e-07
1.65787e-07
1.97532e-07
1.91186e-07
2.17054e-07
2.50663e-07
2.03651e-07
2.46698e-07
1.88053e-07
1.98925e-07
1.86011e-07
2.13342e-07
2.08378e-07
1.95573e-07
2.00208e-07
1.93346e-07
1.9642e-07
2.02669e-07
2.01721e-07
1.96997e-07
1.66349e-07
1.98785e-07
1.69712e-07
1.91532e-07
1.87898e-07
2.01631e-07
2.46634e-07
1.9908e-07
2.48597e-07
1.85566e-07
1.8663e-07
1.86024e-07
2.08833e-07
2.10131e-07
1.92805e-07
2.05892e-07
1.92483e-07
1.95583e-07
2.03114e-07
2.06403e-07
1.99795e-07
1.70815e-07
2.04756e-07
1.77296e-07
1.89179e-07
1.9217e-07
1.99241e-07
2.49743e-07
2.02669e-07
2.6024e-07
1.86847e-07
1.82909e-07
1.92082e-07
2.1219e-07
2.2086e-07
1.92883e-07
2.17671e-07
1.96189e-07
2.0003e-07
2.09566e-07
2.19731e-07
2.07632e-07
1.80537e-07
2.18432e-07
1.92402e-07
1.95625e-07
2.06595e-07
2.04981e-07
2.65884e-07
2.14675e-07
2.95537e-07
1.94792e-07
1.92369e-07
2.0714e-07
2.25296e-07
2.44208e-07
1.98828e-07
2.37392e-07
2.08262e-07
2.13676e-07
2.25971e-07
2.4872e-07
2.2298e-07
1.9766e-07
2.42082e-07
2.17889e-07
2.13243e-07
2.36234e-07
2.19576e-07
3.12417e-07
2.38054e-07
3.6893e-07
2.1309e-07
2.14854e-07
2.35454e-07
2.52695e-07
2.90426e-07
2.13556e-07
2.69528e-07
2.33929e-07
2.43458e-07
2.60348e-07
3.05824e-07
2.50506e-07
2.26352e-07
2.82906e-07
2.60069e-07
2.47868e-07
2.9409e-07
2.46527e-07
3.95545e-07
2.77776e-07
4.67645e-07
2.44454e-07
2.56503e-07
2.81462e-07
3.04066e-07
3.68551e-07
2.42085e-07
3.20385e-07
2.75782e-07
3.01997e-07
3.26539e-07
4.1645e-07
2.9676e-07
2.73597e-07
3.49734e-07
3.28296e-07
3.14845e-07
4.07534e-07
2.89838e-07
4.94835e-07
3.44343e-07
5.7331e-07
2.99479e-07
3.2578e-07
3.593e-07
3.90034e-07
5.01174e-07
2.8951e-07
3.95493e-07
3.38214e-07
4.1134e-07
4.5153e-07
6.16144e-07
3.72957e-07
3.49648e-07
4.55636e-07
4.31843e-07
4.44911e-07
6.10072e-07
3.65625e-07
5.94963e-07
4.44914e-07
6.64437e-07
3.87254e-07
4.28773e-07
4.78233e-07
5.32606e-07
7.00301e-07
3.61855e-07
5.08685e-07
4.45568e-07
6.23672e-07
6.75644e-07
9.64599e-07
4.87956e-07
4.62321e-07
6.09753e-07
5.79009e-07
6.6759e-07
9.50888e-07
4.80127e-07
6.7382e-07
5.98073e-07
7.71293e-07
5.13051e-07
5.76752e-07
6.61296e-07
7.55159e-07
1.06185e-06
4.77542e-07
6.80433e-07
5.95995e-07
9.75075e-07
1.06206e-06
1.53363e-06
6.57214e-07
6.3283e-07
8.29037e-07
8.00772e-07
1.05486e-06
1.54683e-06
6.48229e-07
8.0412e-07
8.18708e-07
8.60765e-07
7.29617e-07
7.97145e-07
9.25747e-07
1.16252e-06
1.37598e-06
6.51203e-07
8.85709e-07
7.99603e-07
1.5813e-06
1.67352e-06
2.38775e-06
8.95139e-07
8.58645e-07
1.12453e-06
1.10368e-06
1.68005e-06
2.38015e-06
8.84862e-07
9.46103e-07
1.13253e-06
1.31039e-06
1.0111e-06
1.09948e-06
1.34333e-06
1.5505e-06
2.82738e-06
8.66306e-07
1.24834e-06
1.15026e-06
2.50431e-06
2.59773e-06
3.61365e-06
1.21712e-06
1.19706e-06
1.52074e-06
1.47478e-06
2.61064e-06
3.60138e-06
1.23023e-06
1.3864e-06
1.50849e-06
1.5155e-06
1.41883e-06
1.47428e-06
1.75817e-06
2.96792e-06
3.3145e-06
1.20761e-06
1.5296e-06
1.52579e-06
3.57548e-06
3.88858e-06
5.18606e-06
1.62379e-06
1.58349e-06
2.02495e-06
1.98768e-06
3.84261e-06
5.22182e-06
1.62414e-06
1.56907e-06
2.03239e-06
2.07689e-06
1.9392e-06
1.98289e-06
2.27748e-06
3.55011e-06
5.21887e-06
1.69632e-06
2.07891e-06
2.02345e-06
5.50877e-06
5.54992e-06
7.25092e-06
2.16635e-06
2.13691e-06
2.60039e-06
2.58239e-06
5.62311e-06
7.24286e-06
2.17468e-06
2.29817e-06
2.65856e-06
2.61803e-06
2.31451e-06
2.58115e-06
2.72929e-06
5.67962e-06
7.38463e-06
2.0834e-06
2.64678e-06
2.63617e-06
6.9489e-06
7.65381e-06
9.52689e-06
2.79547e-06
2.73216e-06
3.3514e-06
3.29118e-06
7.6215e-06
9.41647e-06
2.84083e-06
2.70977e-06
3.40344e-06
3.33439e-06
2.97446e-06
3.29199e-06
3.52576e-06
7.6721e-06
9.22209e-06
2.91773e-06
3.30651e-06
3.46249e-06
1.01245e-05
1.00189e-05
1.19427e-05
3.51088e-06
3.50029e-06
4.19818e-06
4.14352e-06
9.91186e-06
1.20392e-05
3.58823e-06
3.56952e-06
4.28672e-06
4.15942e-06
3.6276e-06
4.14052e-06
4.18101e-06
9.77738e-06
1.19748e-05
3.57567e-06
4.11752e-06
4.19325e-06
1.15866e-05
1.24479e-05
1.45422e-05
4.46127e-06
4.36943e-06
5.09887e-06
5.10927e-06
1.25342e-05
1.44185e-05
4.54883e-06
4.37863e-06
5.31455e-06
5.20938e-06
4.45342e-06
5.09613e-06
5.089e-06
1.24376e-05
1.4424e-05
4.48682e-06
5.17032e-06
5.30029e-06
1.45542e-05
1.49963e-05
1.67528e-05
5.34302e-06
5.37165e-06
6.27908e-06
6.19594e-06
1.49206e-05
1.68436e-05
5.54714e-06
5.46512e-06
6.29296e-06
6.15816e-06
5.28645e-06
6.18313e-06
6.27355e-06
1.49549e-05
1.67707e-05
5.5269e-06
6.13015e-06
6.32184e-06
1.6739e-05
1.73057e-05
1.92172e-05
6.58242e-06
6.4867e-06
7.45094e-06
7.37054e-06
1.73229e-05
1.90008e-05
6.66311e-06
6.4558e-06
7.82897e-06
7.54038e-06
6.60615e-06
7.36361e-06
7.3989e-06
1.72396e-05
1.91512e-05
6.69004e-06
7.53328e-06
7.8979e-06
1.93416e-05
1.96295e-05
2.09673e-05
7.7903e-06
7.69285e-06
8.8017e-06
8.75734e-06
1.94695e-05
2.1145e-05
8.06706e-06
7.88706e-06
8.6728e-06
8.73031e-06
7.75307e-06
8.73152e-06
8.76874e-06
1.96557e-05
2.10968e-05
8.21819e-06
8.69198e-06
8.66696e-06
2.08798e-05
2.13906e-05
2.29555e-05
9.08048e-06
9.12815e-06
1.0063e-05
1.01523e-05
2.15968e-05
2.2983e-05
9.01198e-06
8.99828e-06
1.03806e-05
1.0204e-05
8.97193e-06
1.01395e-05
9.96374e-06
2.14717e-05
2.28925e-05
8.76178e-06
1.01448e-05
1.01799e-05
2.28983e-05
2.34193e-05
2.49041e-05
1.05548e-05
1.04802e-05
1.20389e-05
1.17389e-05
2.33692e-05
2.46874e-05
1.09203e-05
1.06548e-05
1.23672e-05
1.17685e-05
1.06047e-05
1.1715e-05
1.2052e-05
2.33592e-05
2.47847e-05
1.09308e-05
1.1799e-05
1.26046e-05
2.50689e-05
2.52378e-05
2.61067e-05
1.23223e-05
1.22036e-05
1.31424e-05
1.33933e-05
2.51012e-05
2.62256e-05
1.26187e-05
1.21716e-05
1.32816e-05
1.34816e-05
1.22447e-05
1.33661e-05
1.33021e-05
2.51459e-05
2.62094e-05
1.28178e-05
1.34003e-05
1.33106e-05
2.61547e-05
2.6454e-05
2.77639e-05
1.36628e-05
1.36935e-05
1.5427e-05
1.49638e-05
2.65415e-05
2.75297e-05
1.37434e-05
1.38409e-05
1.52627e-05
1.49476e-05
1.37872e-05
1.49326e-05
1.50478e-05
2.65616e-05
2.76367e-05
1.37467e-05
1.49076e-05
1.49405e-05
2.75775e-05
2.80674e-05
2.87896e-05
1.58007e-05
1.55191e-05
1.64579e-05
1.67559e-05
2.78997e-05
2.90426e-05
1.56021e-05
1.55011e-05
1.65491e-05
1.71953e-05
1.54229e-05
1.67219e-05
1.66136e-05
2.79945e-05
2.90495e-05
1.54001e-05
1.71365e-05
1.68095e-05
2.89763e-05
2.90945e-05
3.04603e-05
1.68742e-05
1.72046e-05
1.89196e-05
1.88186e-05
2.93496e-05
3.02513e-05
1.70668e-05
1.74959e-05
1.89027e-05
1.79904e-05
1.71607e-05
1.88032e-05
1.91802e-05
2.93054e-05
2.99768e-05
1.72783e-05
1.80061e-05
1.9085e-05
3.06625e-05
3.08092e-05
3.15288e-05
1.95494e-05
1.91451e-05
2.08206e-05
2.01011e-05
3.05238e-05
3.1316e-05
1.93681e-05
1.84852e-05
2.0465e-05
2.10483e-05
1.97525e-05
2.00436e-05
2.0604e-05
3.03028e-05
3.18651e-05
1.9693e-05
2.09821e-05
2.08701e-05
3.13677e-05
3.17659e-05
3.25642e-05
2.11431e-05
2.0702e-05
2.22856e-05
2.26508e-05
3.16374e-05
3.27322e-05
2.0876e-05
2.18152e-05
2.22864e-05
2.31049e-05
2.06836e-05
2.25909e-05
2.1252e-05
3.22056e-05
3.27226e-05
2.10367e-05
2.22886e-05
2.1327e-05
3.20232e-05
3.28251e-05
3.35359e-05
2.26719e-05
2.3076e-05
2.37529e-05
2.35613e-05
3.29479e-05
3.33627e-05
2.26964e-05
2.32524e-05
2.36951e-05
2.35425e-05
2.19027e-05
2.35036e-05
2.45403e-05
3.28638e-05
3.35037e-05
2.16455e-05
2.36698e-05
2.47334e-05
3.43874e-05
3.37929e-05
3.5001e-05
2.41798e-05
2.37187e-05
2.59496e-05
2.58333e-05
3.35811e-05
3.51565e-05
2.41035e-05
2.39302e-05
2.58596e-05
2.60396e-05
2.52645e-05
2.58743e-05
2.64334e-05
3.38568e-05
3.50634e-05
2.56058e-05
2.6241e-05
2.6949e-05
3.51953e-05
3.5342e-05
3.60852e-05
2.66026e-05
2.66967e-05
2.78762e-05
2.83241e-05
3.55635e-05
3.63074e-05
2.64799e-05
2.6476e-05
2.7731e-05
2.74756e-05
2.659e-05
2.82273e-05
2.67977e-05
3.52533e-05
3.57492e-05
2.71279e-05
2.70871e-05
2.73428e-05
3.54846e-05
3.62365e-05
3.67914e-05
2.80595e-05
2.8559e-05
2.89323e-05
2.88053e-05
3.64264e-05
3.66514e-05
2.79716e-05
2.79533e-05
2.89658e-05
2.95875e-05
2.69716e-05
2.87007e-05
2.95058e-05
3.60089e-05
3.73113e-05
2.73811e-05
2.95199e-05
2.88795e-05
3.7265e-05
3.70628e-05
3.81654e-05
2.93975e-05
2.89555e-05
3.08042e-05
3.07315e-05
3.68197e-05
3.81617e-05
2.94286e-05
2.99661e-05
3.0809e-05
3.06805e-05
3.02489e-05
3.07425e-05
3.10456e-05
3.75489e-05
3.79705e-05
2.99097e-05
3.07157e-05
3.14443e-05
3.83991e-05
3.84224e-05
3.92669e-05
3.12884e-05
3.11761e-05
3.2569e-05
3.25309e-05
3.84391e-05
3.92232e-05
3.12676e-05
3.09817e-05
3.2518e-05
3.24628e-05
3.13141e-05
3.25098e-05
3.22816e-05
3.81303e-05
3.91912e-05
3.17161e-05
3.22356e-05
3.23177e-05
3.90812e-05
3.94738e-05
4.01037e-05
3.28949e-05
3.30425e-05
3.37966e-05
3.39536e-05
3.94856e-05
4.0216e-05
3.2861e-05
3.30325e-05
3.38594e-05
3.42433e-05
3.2513e-05
3.38618e-05
3.37191e-05
3.95181e-05
4.03966e-05
3.25764e-05
3.43098e-05
3.39989e-05
4.01228e-05
4.02891e-05
4.10577e-05
3.4102e-05
3.41017e-05
3.52409e-05
3.50358e-05
4.03463e-05
4.09535e-05
3.41824e-05
3.44176e-05
3.51779e-05
3.46355e-05
3.43019e-05
3.51364e-05
3.53991e-05
4.05155e-05
4.06839e-05
3.45032e-05
3.49542e-05
3.51937e-05
4.11041e-05
4.12732e-05
4.19494e-05
3.56015e-05
3.55331e-05
3.63328e-05
3.65777e-05
4.12234e-05
4.20473e-05
3.5471e-05
3.48356e-05
3.63021e-05
3.67766e-05
3.55015e-05
3.64538e-05
3.63748e-05
4.08013e-05
4.21529e-05
3.52728e-05
3.62483e-05
3.63108e-05
4.20139e-05
4.21554e-05
4.32919e-05
3.66409e-05
3.67185e-05
3.80773e-05
3.76351e-05
4.21716e-05
4.29123e-05
3.67245e-05
3.73564e-05
3.82335e-05
3.82061e-05
3.69038e-05
3.76635e-05
3.82584e-05
4.25509e-05
4.33805e-05
3.69257e-05
3.83564e-05
3.84358e-05
4.34416e-05
4.35408e-05
4.38509e-05
3.85294e-05
3.81839e-05
3.91439e-05
3.9569e-05
4.32472e-05
4.43373e-05
3.85868e-05
3.82644e-05
3.89656e-05
3.88008e-05
3.8519e-05
3.95722e-05
3.88009e-05
4.34654e-05
4.379e-05
3.87108e-05
3.92838e-05
3.90373e-05
4.35494e-05
4.38988e-05
4.43525e-05
3.92004e-05
3.98045e-05
3.97329e-05
4.00348e-05
4.44454e-05
4.44229e-05
3.90345e-05
3.93168e-05
3.9806e-05
4.00946e-05
3.88627e-05
3.99652e-05
3.95045e-05
4.40034e-05
4.44782e-05
3.90638e-05
3.95949e-05
3.92377e-05
4.41144e-05
4.46134e-05
4.57352e-05
4.00362e-05
4.00456e-05
4.12935e-05
4.04889e-05
4.44428e-05
4.51672e-05
4.01645e-05
4.01636e-05
4.13839e-05
4.09634e-05
3.99153e-05
4.05507e-05
4.16551e-05
4.45778e-05
4.54847e-05
3.95439e-05
4.1266e-05
4.16114e-05
4.61328e-05
4.59761e-05
4.64042e-05
4.17362e-05
4.12549e-05
4.25383e-05
4.28438e-05
4.56104e-05
4.68409e-05
4.17664e-05
4.1409e-05
4.23991e-05
4.25883e-05
4.21649e-05
4.28982e-05
4.2863e-05
4.57621e-05
4.65118e-05
4.2206e-05
4.26264e-05
4.30373e-05
4.68034e-05
4.64612e-05
4.67716e-05
4.26097e-05
4.30518e-05
4.29572e-05
4.31955e-05
4.69362e-05
4.69002e-05
4.24768e-05
4.28362e-05
4.30429e-05
4.31278e-05
4.28965e-05
4.31932e-05
4.28625e-05
4.66484e-05
4.69315e-05
4.30805e-05
4.30985e-05
4.30275e-05
4.64787e-05
4.70071e-05
4.77523e-05
4.33262e-05
4.32135e-05
4.41232e-05
4.36031e-05
4.69203e-05
4.71273e-05
4.33665e-05
4.32174e-05
4.41006e-05
4.39111e-05
4.28623e-05
4.34399e-05
4.38386e-05
4.70126e-05
4.74942e-05
4.30122e-05
4.38841e-05
4.35392e-05
4.75672e-05
4.78577e-05
4.838e-05
4.42761e-05
4.38771e-05
4.49739e-05
4.49945e-05
4.73286e-05
4.85371e-05
4.42858e-05
4.42349e-05
4.50853e-05
4.51292e-05
4.44277e-05
4.50562e-05
4.52641e-05
4.77089e-05
4.8542e-05
4.41814e-05
4.51378e-05
4.52061e-05
4.86093e-05
4.85891e-05
4.92635e-05
4.52676e-05
4.54441e-05
4.61225e-05
4.66237e-05
4.88541e-05
4.98547e-05
4.53501e-05
4.53927e-05
4.60122e-05
4.61848e-05
4.53329e-05
4.66615e-05
4.59217e-05
4.87253e-05
4.93604e-05
4.53369e-05
4.62758e-05
4.5987e-05
4.91458e-05
4.94143e-05
4.9949e-05
4.64177e-05
4.68562e-05
4.71411e-05
4.70659e-05
4.99536e-05
4.97626e-05
4.62878e-05
4.64308e-05
4.71113e-05
4.69024e-05
4.63525e-05
4.70796e-05
4.73343e-05
4.94811e-05
4.96178e-05
4.63523e-05
4.67328e-05
4.72961e-05
5.01991e-05
5.00272e-05
5.00174e-05
4.72642e-05
4.70621e-05
4.7355e-05
4.69895e-05
4.97459e-05
4.94832e-05
4.72736e-05
4.69558e-05
4.74163e-05
4.70829e-05
4.74528e-05
4.69618e-05
4.74762e-05
4.96409e-05
4.98518e-05
4.74425e-05
4.71204e-05
4.75194e-05
5.00641e-05
5.00356e-05
5.06693e-05
4.7353e-05
4.69937e-05
4.76804e-05
4.78185e-05
4.95457e-05
5.08029e-05
4.74202e-05
4.72451e-05
4.77492e-05
4.84285e-05
4.74382e-05
4.77484e-05
4.74861e-05
5.00555e-05
5.13559e-05
4.75022e-05
4.85102e-05
4.75538e-05
5.03165e-05
5.10153e-05
5.21703e-05
4.82723e-05
4.83945e-05
4.96975e-05
4.9677e-05
5.11801e-05
5.22001e-05
4.83268e-05
4.88764e-05
4.96843e-05
4.97078e-05
4.77684e-05
4.97326e-05
4.97453e-05
5.16362e-05
5.21115e-05
4.78093e-05
4.97355e-05
4.97068e-05
5.23286e-05
5.22779e-05
5.23082e-05
4.99474e-05
4.99325e-05
5.02274e-05
5.02594e-05
5.23154e-05
5.24971e-05
4.99116e-05
4.98015e-05
5.0156e-05
4.98634e-05
5.01621e-05
5.03637e-05
5.0549e-05
5.21242e-05
5.18495e-05
5.01377e-05
4.98491e-05
5.05508e-05
5.28035e-05
5.23224e-05
5.24869e-05
5.02385e-05
5.03171e-05
5.02868e-05
5.06618e-05
5.25672e-05
5.2801e-05
5.01643e-05
4.98624e-05
5.02286e-05
4.99787e-05
5.05335e-05
5.0614e-05
4.9932e-05
5.1857e-05
5.21946e-05
5.05366e-05
4.98435e-05
4.98422e-05
5.16457e-05
5.2611e-05
5.2822e-05
5.04346e-05
5.07141e-05
5.0869e-05
5.06989e-05
5.28211e-05
5.23801e-05
5.04074e-05
5.02811e-05
5.08598e-05
5.09678e-05
4.97907e-05
5.03979e-05
4.97324e-05
5.24015e-05
5.2898e-05
4.96763e-05
5.05045e-05
4.96283e-05
5.17539e-05
5.2838e-05
5.30301e-05
5.09039e-05
5.06908e-05
5.09982e-05
5.08165e-05
5.23787e-05
5.30399e-05
5.08931e-05
5.10471e-05
5.09943e-05
5.12922e-05
4.98888e-05
5.07547e-05
5.24072e-05
5.29532e-05
5.36323e-05
4.98716e-05
5.18129e-05
5.27424e-05
5.50993e-05
5.32485e-05
5.48697e-05
5.11528e-05
5.12241e-05
5.2785e-05
5.30413e-05
5.3575e-05
5.52785e-05
5.11735e-05
5.16195e-05
5.28945e-05
5.31215e-05
5.31179e-05
5.33818e-05
5.3807e-05
5.39473e-05
5.51388e-05
5.33776e-05
5.33131e-05
5.39019e-05
5.58769e-05
5.5069e-05
5.50764e-05
5.31421e-05
5.32113e-05
5.33989e-05
5.30234e-05
5.53302e-05
5.40944e-05
5.32641e-05
5.33383e-05
5.35318e-05
5.33454e-05
5.37823e-05
5.29398e-05
5.21391e-05
5.52112e-05
5.44957e-05
5.38567e-05
5.30662e-05
5.19032e-05
5.28517e-05
5.50183e-05
5.40873e-05
5.33584e-05
5.26725e-05
5.2756e-05
5.23384e-05
5.39069e-05
5.35477e-05
5.34899e-05
5.30855e-05
5.26844e-05
5.2191e-05
5.15567e-05
5.20578e-05
5.11439e-05
5.42984e-05
5.33987e-05
5.12814e-05
5.18441e-05
5.08211e-05
5.22236e-05
5.40743e-05
5.45823e-05
5.2692e-05
5.23651e-05
5.28311e-05
5.39842e-05
5.37711e-05
5.63969e-05
5.25672e-05
5.21494e-05
5.26238e-05
5.25937e-05
5.1247e-05
5.42978e-05
5.43468e-05
5.34139e-05
5.50617e-05
5.09171e-05
5.30123e-05
5.42453e-05
5.67686e-05
5.49594e-05
5.65583e-05
5.3315e-05
5.46797e-05
5.4932e-05
5.53679e-05
5.67654e-05
5.70685e-05
5.2975e-05
5.35064e-05
5.48924e-05
5.54536e-05
5.52792e-05
5.55188e-05
5.62371e-05
5.56421e-05
5.72965e-05
5.53664e-05
5.58167e-05
5.66851e-05
5.82918e-05
5.66609e-05
5.62278e-05
5.51168e-05
5.53489e-05
5.51117e-05
5.40274e-05
5.6893e-05
5.45025e-05
5.51498e-05
5.56383e-05
5.52332e-05
5.55293e-05
5.62308e-05
5.37786e-05
5.46562e-05
5.73651e-05
5.64399e-05
5.6706e-05
5.57874e-05
5.5369e-05
5.55899e-05
5.60691e-05
5.52625e-05
5.48299e-05
5.35419e-05
5.40557e-05
5.31616e-05
5.42786e-05
5.40975e-05
5.50467e-05
5.50539e-05
5.41827e-05
5.38784e-05
5.39405e-05
5.29294e-05
5.31771e-05
5.61339e-05
5.47905e-05
5.44018e-05
5.36431e-05
5.30805e-05
5.41116e-05
5.52686e-05
5.63052e-05
5.40262e-05
5.32197e-05
5.4543e-05
5.54228e-05
5.4427e-05
5.76287e-05
5.41323e-05
5.38057e-05
5.44382e-05
5.41459e-05
5.31849e-05
5.56881e-05
5.48257e-05
5.47816e-05
5.58788e-05
5.3038e-05
5.38547e-05
5.39732e-05
5.63213e-05
5.67063e-05
5.77116e-05
5.5246e-05
5.62117e-05
5.63955e-05
5.7109e-05
5.80663e-05
5.87635e-05
5.50801e-05
5.48805e-05
5.63339e-05
5.63694e-05
5.56077e-05
5.73738e-05
5.6662e-05
5.63553e-05
5.77733e-05
5.49022e-05
5.63085e-05
5.6347e-05
5.78341e-05
5.77394e-05
5.70195e-05
5.6475e-05
5.71131e-05
5.62428e-05
5.61074e-05
5.87003e-05
5.67205e-05
5.64307e-05
5.65133e-05
5.62662e-05
5.64453e-05
5.67096e-05
5.6141e-05
5.62173e-05
5.78384e-05
5.73296e-05
5.64566e-05
5.65055e-05
5.63037e-05
5.70475e-05
5.6881e-05
5.64644e-05
5.58809e-05
5.55889e-05
5.54594e-05
5.50209e-05
5.64588e-05
5.58121e-05
5.59376e-05
5.61535e-05
5.55167e-05
5.56693e-05
5.58362e-05
5.48448e-05
5.55021e-05
5.72036e-05
5.67527e-05
5.60761e-05
5.5874e-05
5.58879e-05
5.67743e-05
5.65133e-05
5.75745e-05
5.54628e-05
5.50241e-05
5.62174e-05
5.59059e-05
5.58688e-05
5.71774e-05
5.55172e-05
5.56648e-05
5.61738e-05
5.61503e-05
5.55265e-05
5.57686e-05
5.63363e-05
5.67841e-05
5.74741e-05
5.59199e-05
5.62714e-05
5.64848e-05
5.77437e-05
5.77337e-05
5.77839e-05
5.65196e-05
5.62487e-05
5.67359e-05
5.6548e-05
5.73641e-05
5.75329e-05
5.6471e-05
5.63509e-05
5.66859e-05
5.64189e-05
5.64733e-05
5.64854e-05
5.63742e-05
5.75575e-05
5.72788e-05
5.65392e-05
5.63402e-05
5.62726e-05
5.70728e-05
5.77139e-05
5.72039e-05
5.66982e-05
5.65388e-05
5.63101e-05
5.64139e-05
5.75233e-05
5.74279e-05
5.66472e-05
5.63025e-05
5.62704e-05
5.60325e-05
5.61122e-05
5.63957e-05
5.58124e-05
5.71853e-05
5.68583e-05
5.59479e-05
5.58758e-05
5.56243e-05
5.65344e-05
5.72068e-05
5.80974e-05
5.62918e-05
5.64248e-05
5.67536e-05
5.71407e-05
5.75132e-05
5.85052e-05
5.62564e-05
5.60514e-05
5.68006e-05
5.7252e-05
5.58484e-05
5.72417e-05
5.73008e-05
5.69325e-05
5.87224e-05
5.56719e-05
5.73492e-05
5.73298e-05
5.87703e-05
5.833e-05
5.86889e-05
5.71806e-05
5.7405e-05
5.76017e-05
5.75543e-05
5.86321e-05
5.84622e-05
5.72328e-05
5.76664e-05
5.7631e-05
5.79385e-05
5.77171e-05
5.76002e-05
5.79753e-05
5.89424e-05
5.9005e-05
5.77599e-05
5.79919e-05
5.80054e-05
5.90285e-05
5.86469e-05
5.7411e-05
5.75873e-05
5.74708e-05
5.67366e-05
5.63848e-05
5.83067e-05
5.69954e-05
5.76114e-05
5.78557e-05
5.66894e-05
5.63821e-05
5.78765e-05
5.63122e-05
5.63054e-05
5.87948e-05
5.6927e-05
5.78835e-05
5.63499e-05
5.6299e-05
5.68683e-05
5.73113e-05
5.73533e-05
5.64591e-05
5.62067e-05
5.63089e-05
5.6264e-05
5.69416e-05
5.76196e-05
5.64099e-05
5.60655e-05
5.6256e-05
5.59265e-05
5.59963e-05
5.6201e-05
5.5901e-05
5.68079e-05
5.70228e-05
5.60233e-05
5.59557e-05
5.59682e-05
5.70889e-05
5.75928e-05
5.90958e-05
5.6432e-05
5.66841e-05
5.78653e-05
5.83632e-05
5.80596e-05
5.97992e-05
5.6371e-05
5.61127e-05
5.78263e-05
5.80228e-05
5.61706e-05
5.8422e-05
5.82786e-05
5.73767e-05
5.94268e-05
5.62689e-05
5.80981e-05
5.82913e-05
5.96899e-05
5.92026e-05
5.88142e-05
5.80841e-05
5.85111e-05
5.80936e-05
5.82421e-05
5.98681e-05
5.86024e-05
5.80711e-05
5.83354e-05
5.81305e-05
5.84362e-05
5.85628e-05
5.83316e-05
5.85593e-05
5.95766e-05
5.92278e-05
5.85515e-05
5.84563e-05
5.85318e-05
5.91929e-05
5.858e-05
5.6805e-05
5.78171e-05
5.7467e-05
5.60093e-05
5.51877e-05
5.80981e-05
5.56279e-05
5.793e-05
5.82206e-05
5.6171e-05
5.6119e-05
5.81452e-05
5.51699e-05
5.56035e-05
5.8935e-05
5.66262e-05
5.81131e-05
5.59612e-05
5.55591e-05
5.61002e-05
5.66917e-05
5.66641e-05
5.56865e-05
5.49225e-05
5.54937e-05
5.49849e-05
5.55376e-05
5.64581e-05
5.58106e-05
5.56761e-05
5.55429e-05
5.53366e-05
5.51904e-05
5.49328e-05
5.49947e-05
5.6457e-05
5.63422e-05
5.51351e-05
5.51962e-05
5.49208e-05
5.61321e-05
5.68791e-05
5.90668e-05
5.56135e-05
5.55559e-05
5.77223e-05
5.87022e-05
5.70865e-05
6.04501e-05
5.56079e-05
5.5399e-05
5.74504e-05
5.73416e-05
5.5219e-05
5.87184e-05
5.80182e-05
5.65755e-05
5.8986e-05
5.51234e-05
5.75135e-05
5.79555e-05
5.96066e-05
5.93728e-05
5.98805e-05
5.82933e-05
5.92479e-05
5.87999e-05
5.95645e-05
6.07363e-05
6.07028e-05
5.80536e-05
5.80095e-05
5.86468e-05
5.87128e-05
5.86484e-05
5.95909e-05
5.91357e-05
5.93382e-05
5.99939e-05
5.86383e-05
5.8935e-05
5.92069e-05
6.03619e-05
5.9829e-05
5.75105e-05
5.87692e-05
5.93926e-05
5.689e-05
5.62336e-05
6.03165e-05
5.64842e-05
5.86345e-05
5.87103e-05
5.71001e-05
5.73318e-05
5.90666e-05
5.6193e-05
5.66901e-05
5.99736e-05
5.78146e-05
5.91573e-05
5.73126e-05
5.69107e-05
5.72284e-05
5.71482e-05
5.59039e-05
5.60696e-05
5.52759e-05
5.47199e-05
5.39773e-05
5.6028e-05
5.48746e-05
5.63026e-05
5.65088e-05
5.49225e-05
5.50067e-05
5.58483e-05
5.39949e-05
5.46387e-05
5.74344e-05
5.60248e-05
5.60277e-05
5.48972e-05
5.46979e-05
5.57492e-05
5.58957e-05
5.65861e-05
5.46396e-05
5.39494e-05
5.48636e-05
5.48341e-05
5.49065e-05
5.68074e-05
5.48256e-05
5.48826e-05
5.49191e-05
5.48849e-05
5.46003e-05
5.49608e-05
5.51234e-05
5.60024e-05
5.64318e-05
5.46397e-05
5.48219e-05
5.49815e-05
5.68275e-05
5.67723e-05
5.44588e-05
5.47179e-05
5.71452e-05
5.44018e-05
5.42539e-05
4.46496e-05
4.4593e-05
4.4728e-05
5.47406e-05
5.65633e-05
5.45686e-05
2.37346e-07
2.554e-07
1.09287e-07
1.5776e-07
3.40879e-07
2.69985e-07
1.42549e-07
2.6234e-07
1.45906e-07
2.94485e-07
9.4887e-08
2.50244e-06
3.49974e-07
2.70647e-07
4.34562e-07
2.86823e-07
6.82004e-06
2.43925e-07
8.98876e-06
1.29163e-05
2.0208e-05
3.59775e-07
5.085e-06
3.19101e-07
6.8287e-06
1.66114e-07
1.88088e-07
1.85095e-07
2.06067e-07
1.6546e-07
1.87092e-07
1.8459e-07
3.23709e-07
5.22886e-07
3.30679e-07
2.54287e-07
3.2772e-07
5.08687e-07
3.31543e-07
1.35838e-05
2.12532e-05
1.387e-07
1.47313e-07
1.39363e-06
2.49294e-07
1.4004e-07
1.46572e-07
9.91069e-07
1.89753e-06
1.9303e-06
3.34282e-07
1.87755e-06
1.90573e-06
4.77229e-07
1.35098e-05
3.94404e-07
1.6697e-05
3.51357e-05
4.53177e-05
5.48981e-07
1.00426e-05
4.62607e-07
1.31304e-05
1.64608e-07
1.86279e-07
1.83703e-07
2.01524e-07
1.62056e-07
1.83803e-07