/*--------------------------------*- C++ -*----------------------------------*\
| =========                 |                                                 |
| \\      /  F ield         | OpenFOAM: The Open Source CFD Toolbox           |
|  \\    /   O peration     | Version:  v2012                                 |
|   \\  /    A nd           | Website:  www.openfoam.com                      |
|    \\/     M anipulation  |                                                 |
\*---------------------------------------------------------------------------*/
FoamFile
{
    version     2.0;
    format      ascii;
    class       volScalarField;
    location    "725";
    object      p;
}
// * * * * * * * * * * * * * * * * * * * * * * * * * * * * * * * * * * * * * //

dimensions      [0 2 -2 0 0 0 0];


internalField   nonuniform List<scalar> 
171728
(
0.00351922
0.00351806
0.00351828
0.00351891
0.00348356
0.00348211
0.00348219
0.00348508
0.00344507
0.00344329
0.00344326
0.00344558
0.00340103
0.00339936
0.0033994
0.0034016
0.00335293
0.00335153
0.0033515
0.00335383
0.00330407
0.00330278
0.00330279
0.00330515
0.00325585
0.00325464
0.00325468
0.00325704
0.00320857
0.00320751
0.00320754
0.0032099
0.00316226
0.00316133
0.00316137
0.00316373
0.00311689
0.0031161
0.00311611
0.00311848
0.00307247
0.00307179
0.0030718
0.00307415
0.00302881
0.00302824
0.00302822
0.00303058
0.00298568
0.00298522
0.00298529
0.00298755
0.00294299
0.00294263
0.00294259
0.00294497
0.00290062
0.00290031
0.0029003
0.00290261
0.00285859
0.00285839
0.00285845
0.00286067
0.00281688
0.00281671
0.00281683
0.00281898
0.0027755
0.00277538
0.00277551
0.00277755
0.00273448
0.00273446
0.00273453
0.00273649
0.00269384
0.00269387
0.00269389
0.00269577
0.00265352
0.0026536
0.00265358
0.00265533
0.00261352
0.00261364
0.00261354
0.00261525
0.00257378
0.002574
0.00257401
0.00257564
0.00253438
0.0025346
0.00253474
0.00253623
0.00249516
0.0024955
0.00249538
0.00249716
0.00245618
0.00245654
0.00245658
0.0024584
0.00241744
0.00241786
0.00241785
0.00241933
0.00237891
0.0023794
0.00237938
0.00238153
0.00234061
0.00234113
0.00234114
0.00234281
0.00230246
0.00230301
0.00230302
0.0023049
0.00226449
0.00226508
0.00226507
0.00226698
0.00222668
0.00222731
0.00222732
0.00222919
0.00218898
0.00218963
0.00218962
0.00219144
0.00215145
0.00215208
0.00215203
0.00215393
0.00211416
0.00211476
0.00211478
0.00211656
0.00207677
0.00207739
0.00207736
0.00207928
0.00203973
0.00204022
0.0020402
0.00204206
0.0020027
0.00200322
0.00200322
0.00200512
0.00196596
0.00196631
0.00196629
0.00196827
0.00192925
0.00192956
0.00192965
0.00193138
0.00189253
0.00189285
0.00189273
0.00189495
0.0018561
0.00185624
0.0018564
0.00185846
0.00181982
0.00182012
0.00181992
0.00182172
0.00178365
0.00178347
0.00178362
0.00178578
0.00174735
0.00174748
0.00174753
0.00174972
0.00171154
0.00171163
0.00171136
0.00171335
0.00167569
0.00167548
0.00167568
0.00167768
0.0016399
0.00163977
0.00163978
0.00164194
0.00160424
0.00160414
0.001604
0.00160606
0.00156869
0.00156849
0.00156868
0.00157069
0.0015335
0.00153325
0.0015332
0.00153521
0.00149814
0.00149785
0.00149765
0.00149977
0.00146278
0.00146247
0.00146271
0.00146474
0.00142768
0.00142751
0.00142755
0.00142961
0.00139277
0.0013926
0.00139232
0.00139424
0.0013578
0.00135729
0.00135748
0.00135936
0.00132277
0.00132248
0.00132248
0.00132463
0.00128775
0.00128781
0.0012877
0.00128961
0.00125331
0.00125289
0.0012529
0.00125478
0.00121851
0.00121805
0.00121811
0.00122012
0.00118372
0.00118347
0.00118358
0.00118535
0.00114893
0.00114903
0.00114899
0.00115084
0.00111469
0.00111439
0.00111415
0.00111642
0.0010802
0.00107983
0.0010798
0.00108164
0.00104562
0.00104535
0.00104551
0.00104706
0.00101077
0.00101044
0.00101074
0.00101263
0.00097627
0.000976543
0.00097645
0.000978794
0.000942405
0.000942187
0.000941896
0.000943676
0.000907476
0.000906514
0.000906655
0.000908082
0.000872429
0.000872787
0.00087263
0.000874848
0.000838978
0.000839672
0.000839542
0.000842047
0.000804909
0.00080403
0.000804706
0.000806136
0.000769349
0.000768453
0.000768501
0.000770038
0.000734401
0.000734936
0.000734249
0.000736582
0.000700982
0.00070171
0.000701393
0.000703698
0.000667017
0.000666328
0.000666988
0.000668633
0.000630905
0.000630254
0.000630536
0.000632287
0.000595922
0.000596107
0.00059584
0.000597904
0.000562329
0.000562697
0.000562362
0.000564492
0.000527643
0.000527426
0.000527355
0.000529331
0.000491743
0.00049158
0.000491784
0.000493717
0.000457127
0.000457089
0.000457423
0.000459362
0.000422845
0.000422552
0.000422415
0.000424323
0.000387289
0.00038716
0.000386997
0.000388966
0.000352087
0.000352315
0.000352345
0.0003544
0.000317496
0.000317559
0.000317599
0.000319622
0.000281802
0.000281437
0.000281533
0.00028342
0.000245487
0.000245334
0.000245303
0.000247303
0.000210316
0.000210759
0.000210524
0.000212722
0.000176169
0.0001764
0.000176315
0.000178385
0.000141198
0.000140493
0.000140829
0.000142504
0.000104442
0.00010399
0.000104156
0.000105992
6.75768e-05
6.81983e-05
6.78877e-05
7.02221e-05
3.31658e-05
3.29147e-05
3.27282e-05
3.46869e-05
5.86215e-06
6.61e-06
6.64033e-06
4.65687e-06
0.00352376
0.00352128
0.0035211
0.00352361
0.0035214
0.00352133
0.00352763
0.00352761
0.00352766
0.00352766
0.00352118
0.00352126
0.00352374
0.00352131
0.00352127
0.00352368
0.00351896
0.00348978
0.00351818
0.00351802
0.00349173
0.0034916
0.00351867
0.00348976
0.00351819
0.00351822
0.00349167
0.00349167
0.00351823
0.00349164
0.00349165
0.00351901
0.00348977
0.00351823
0.00349182
0.00349164
0.00348986
0.003485
0.00345104
0.00348231
0.00348213
0.00345323
0.00345326
0.00348499
0.00345108
0.00348211
0.00348208
0.00345344
0.00345342
0.00348222
0.00345336
0.00345335
0.00348498
0.00345105
0.00348208
0.00345329
0.00345334
0.00345108
0.00344549
0.00340782
0.00344308
0.00344324
0.00341061
0.00341075
0.00344557
0.00340776
0.00344326
0.00344326
0.00341082
0.00341084
0.00344335
0.00341078
0.00341079
0.00344555
0.00340777
0.00344325
0.00341078
0.00341083
0.00340778
0.00340166
0.0033603
0.00339918
0.00339934
0.00336353
0.00336361
0.00340159
0.00336028
0.00339935
0.00339936
0.0033637
0.00336365
0.00339938
0.00336365
0.00336364
0.0034016
0.00336029
0.00339936
0.00336362
0.00336361
0.00336029
0.00335384
0.00331162
0.00335143
0.0033515
0.00331495
0.00331492
0.00335382
0.00331159
0.00335154
0.00335152
0.00331498
0.00331495
0.00335155
0.00331491
0.00331495
0.00335383
0.00331161
0.00335152
0.00331496
0.00331495
0.00331159
0.00330518
0.00326338
0.00330277
0.00330275
0.00326664
0.00326662
0.00330513
0.00326335
0.00330287
0.00330281
0.0032667
0.00326663
0.00330279
0.00326662
0.00326663
0.00330516
0.00326336
0.00330279
0.00326663
0.00326663
0.00326336
0.00325707
0.00321609
0.00325468
0.00325465
0.00321925
0.00321921
0.00325702
0.00321607
0.00325468
0.00325469
0.00321925
0.00321923
0.00325469
0.0032192
0.00321924
0.00325705
0.00321607
0.00325468
0.00321922
0.00321923
0.00321607
0.00320992
0.00316977
0.00320753
0.00320752
0.00317284
0.00317281
0.00320989
0.00316978
0.00320753
0.00320753
0.0031728
0.00317283
0.00320756
0.00317282
0.00317284
0.0032099
0.00316977
0.00320754
0.00317281
0.00317282
0.00316978
0.00316374
0.00312438
0.00316137
0.00316135
0.00312736
0.00312732
0.00316373
0.0031244
0.00316138
0.00316135
0.00312729
0.00312733
0.00316139
0.00312732
0.00312738
0.00316373
0.00312441
0.00316136
0.00312735
0.00312736
0.00312439
0.00311847
0.00307993
0.00311612
0.0031161
0.00308281
0.00308278
0.00311849
0.00307993
0.0031161
0.00311611
0.00308278
0.00308277
0.00311613
0.00308277
0.00308282
0.0031185
0.00307993
0.00311611
0.00308279
0.00308281
0.00307993
0.00307416
0.00303626
0.00307182
0.00307178
0.00303905
0.00303907
0.00307415
0.00303628
0.00307174
0.00307179
0.00303909
0.00303905
0.00307181
0.00303906
0.00303909
0.00307416
0.00303627
0.00307179
0.00303909
0.00303908
0.00303626
0.00303058
0.00299316
0.00302826
0.00302823
0.00299597
0.00299594
0.00303061
0.00299317
0.00302829
0.00302824
0.00299591
0.00299593
0.00302826
0.00299593
0.00299597
0.00303059
0.00299316
0.00302824
0.00299591
0.00299595
0.00299314
0.00298754
0.00295047
0.00298521
0.00298522
0.00295327
0.00295323
0.00298757
0.00295051
0.0029852
0.00298526
0.00295327
0.00295327
0.00298525
0.00295323
0.00295325
0.00298757
0.0029505
0.00298525
0.00295332
0.00295324
0.00295053
0.00294493
0.00290814
0.00294267
0.00294264
0.00291091
0.00291085
0.00294498
0.00290813
0.00294266
0.00294261
0.00291088
0.00291087
0.00294268
0.00291082
0.00291094
0.00294494
0.00290813
0.00294265
0.00291083
0.00291092
0.00290808
0.00290266
0.00286609
0.00290036
0.00290031
0.00286885
0.00286883
0.00290265
0.00286611
0.00290033
0.00290028
0.00286884
0.00286876
0.00290033
0.00286885
0.00286886
0.00290262
0.00286607
0.00290034
0.00286877
0.00286883
0.00286611
0.00286067
0.00282433
0.00285839
0.00285838
0.0028271
0.00282711
0.00286069
0.00282433
0.0028584
0.00285837
0.0028271
0.00282703
0.0028584
0.00282711
0.00282713
0.00286068
0.00282432
0.00285835
0.0028271
0.00282711
0.00282434
0.00281896
0.00278285
0.00281672
0.00281671
0.00278569
0.0027857
0.00281895
0.00278283
0.00281672
0.00281672
0.00278568
0.00278564
0.00281678
0.00278567
0.00278573
0.00281903
0.00278289
0.00281678
0.00278573
0.00278576
0.00278288
0.00277754
0.00274173
0.00277539
0.00277541
0.00274464
0.00274463
0.00277752
0.00274175
0.00277537
0.00277538
0.00274462
0.00274463
0.00277537
0.00274462
0.00274469
0.00277761
0.00274176
0.00277539
0.00274465
0.00274474
0.00274176
0.00273649
0.002701
0.00273442
0.00273446
0.00270396
0.00270396
0.00273651
0.00270101
0.00273441
0.00273439
0.00270398
0.00270397
0.00273442
0.00270397
0.00270402
0.00273652
0.00270105
0.00273439
0.00270393
0.002704
0.00270097
0.00269581
0.00266051
0.00269383
0.00269387
0.0026636
0.00266362
0.00269582
0.00266049
0.00269384
0.00269383
0.00266363
0.00266365
0.00269384
0.00266362
0.00266367
0.00269584
0.00266061
0.00269381
0.00266353
0.00266363
0.00266047
0.00265538
0.00262039
0.00265358
0.0026536
0.00262357
0.0026236
0.00265537
0.00262036
0.0026536
0.00265361
0.00262359
0.00262349
0.0026536
0.00262359
0.00262359
0.00265544
0.00262041
0.00265363
0.0026235
0.00262358
0.00262034
0.0026153
0.00258059
0.00261362
0.00261364
0.00258384
0.00258389
0.00261528
0.00258061
0.00261362
0.00261362
0.00258387
0.0025839
0.00261365
0.00258388
0.0025838
0.00261531
0.00258065
0.0026137
0.00258394
0.00258381
0.00258068
0.00257556
0.00254125
0.00257398
0.00257401
0.0025444
0.00254443
0.00257559
0.00254117
0.00257394
0.00257391
0.00254446
0.00254448
0.00257398
0.00254442
0.00254436
0.00257566
0.00254115
0.00257402
0.00254443
0.00254437
0.00254126
0.00253626
0.00250208
0.00253461
0.00253461
0.00250521
0.00250527
0.00253617
0.00250209
0.00253462
0.00253475
0.00250526
0.00250523
0.00253452
0.00250527
0.00250529
0.00253634
0.00250206
0.00253457
0.0025052
0.0025053
0.00250216
0.00249711
0.00246317
0.00249543
0.0024955
0.00246624
0.00246625
0.00249715
0.00246313
0.00249544
0.00249541
0.00246628
0.0024662
0.00249543
0.00246624
0.00246624
0.00249701
0.0024631
0.00249546
0.00246623
0.00246625
0.00246322
0.00245822
0.00242453
0.0024565
0.00245655
0.00242754
0.00242754
0.00245818
0.00242456
0.00245656
0.00245653
0.00242753
0.00242755
0.00245658
0.00242752
0.00242741
0.00245821
0.00242469
0.00245664
0.00242749
0.00242739
0.00242432
0.00241962
0.00238609
0.00241788
0.00241787
0.00238895
0.00238899
0.00241962
0.00238605
0.0024179
0.0024179
0.00238893
0.00238892
0.00241778
0.002389
0.00238903
0.00241977
0.002386
0.00241777
0.00238897
0.00238899
0.00238641
0.0023812
0.00234791
0.00237938
0.0023794
0.00235067
0.00235069
0.00238114
0.0023479
0.00237939
0.00237934
0.00235066
0.00235074
0.00237941
0.00235069
0.00235066
0.00238106
0.00234799
0.00237939
0.00235071
0.00235068
0.00234782
0.00234297
0.00230981
0.0023411
0.00234114
0.0023125
0.00231252
0.002343
0.0023098
0.00234108
0.00234116
0.0023125
0.00231249
0.0023411
0.00231252
0.00231249
0.0023431
0.00230975
0.00234107
0.0023125
0.00231246
0.00230972
0.00230493
0.00227184
0.00230302
0.00230302
0.00227452
0.00227456
0.00230488
0.00227183
0.00230303
0.002303
0.00227451
0.00227456
0.002303
0.00227456
0.00227453
0.00230484
0.00227191
0.00230302
0.00227457
0.00227455
0.00227194
0.00226692
0.0022341
0.00226504
0.00226508
0.00223673
0.00223674
0.00226693
0.00223405
0.00226501
0.00226506
0.00223675
0.00223671
0.00226505
0.00223674
0.00223675
0.00226699
0.00223403
0.00226502
0.0022367
0.00223673
0.00223406
0.00222921
0.00219635
0.0022273
0.00222731
0.00219902
0.00219905
0.00222915
0.00219637
0.00222735
0.00222733
0.00219897
0.00219906
0.00222732
0.00219905
0.00219902
0.00222915
0.00219642
0.00222734
0.00219909
0.002199
0.00219636
0.00219144
0.00215882
0.0021896
0.00218964
0.00216141
0.00216145
0.00219147
0.0021588
0.00218954
0.0021896
0.00216142
0.00216139
0.0021896
0.00216145
0.00216142
0.00219151
0.00215877
0.00218954
0.00216136
0.00216137
0.00215881
0.00215393
0.00212147
0.00215205
0.00215209
0.00212407
0.00212407
0.00215391
0.00212146
0.00215209
0.00215205
0.00212408
0.00212408
0.00215207
0.00212407
0.00212409
0.00215388
0.00212148
0.00215206
0.0021241
0.00212414
0.00212145
0.00211657
0.00208417
0.00211473
0.00211475
0.0020867
0.00208674
0.00211659
0.00208414
0.00211473
0.00211475
0.00208667
0.00208671
0.00211475
0.00208674
0.0020867
0.00211661
0.00208414
0.00211476
0.0020867
0.00208665
0.00208416
0.00207929
0.00204698
0.00207738
0.0020774
0.00204952
0.00204949
0.00207924
0.00204698
0.00207733
0.00207737
0.00204951
0.00204949
0.00207736
0.00204948
0.00204949
0.00207924
0.00204697
0.00207734
0.00204948
0.00204948
0.00204694
0.00204209
0.00200994
0.00204023
0.00204023
0.00201239
0.00201247
0.00204212
0.00200996
0.00204023
0.00204022
0.00201241
0.00201242
0.0020402
0.00201247
0.00201243
0.00204211
0.00200995
0.00204019
0.00201247
0.00201243
0.00200998
0.0020051
0.00197316
0.00200315
0.00200322
0.00197558
0.00197552
0.0020051
0.0019731
0.00200318
0.00200317
0.00197558
0.00197546
0.0020032
0.00197553
0.0019756
0.00200508
0.00197308
0.00200322
0.00197546
0.00197559
0.00197315
0.00196829
0.00193633
0.00196639
0.0019663
0.00193873
0.00193873
0.00196822
0.00193637
0.00196636
0.00196628
0.00193871
0.00193889
0.00196637
0.00193871
0.00193863
0.00196826
0.00193648
0.00196637
0.00193887
0.00193863
0.00193622
0.00193149
0.00189972
0.00192951
0.00192957
0.00190198
0.00190208
0.00193155
0.0018997
0.00192953
0.0019297
0.00190205
0.00190192
0.00192942
0.00190206
0.00190199
0.00193159
0.00189956
0.0019294
0.0019019
0.001902
0.00189975
0.00189487
0.00186314
0.00189284
0.00189286
0.00186542
0.00186532
0.00189482
0.00186307
0.00189289
0.0018927
0.00186542
0.00186537
0.0018929
0.00186533
0.00186564
0.00189472
0.00186324
0.00189293
0.00186547
0.00186566
0.00186336
0.00185832
0.00182683
0.0018563
0.00185624
0.00182904
0.00182917
0.00185828
0.00182698
0.00185629
0.00185631
0.00182903
0.00182909
0.00185647
0.00182917
0.00182883
0.00185843
0.0018268
0.00185648
0.00182909
0.00182871
0.00182651
0.00182202
0.00179048
0.00181999
0.00182012
0.00179274
0.00179265
0.00182215
0.00179034
0.00181998
0.00181999
0.00179273
0.00179266
0.00181969
0.00179262
0.00179273
0.00182195
0.00179049
0.00181963
0.00179263
0.00179272
0.00179057
0.00178565
0.00175432
0.00178362
0.00178348
0.00175643
0.00175638
0.00178552
0.00175431
0.00178362
0.0017836
0.00175645
0.00175651
0.00178376
0.00175642
0.00175668
0.00178571
0.00175437
0.00178374
0.00175659
0.00175664
0.00175455
0.00174954
0.00171838
0.00174745
0.00174745
0.00172053
0.00172063
0.00174954
0.00171853
0.00174747
0.00174746
0.00172051
0.00172039
0.00174759
0.00172064
0.00172031
0.00174955
0.00171824
0.0017476
0.00172035
0.00172039
0.00171813
0.00171359
0.00168241
0.00171153
0.00171164
0.00168455
0.00168447
0.0017137
0.00168235
0.0017115
0.00171144
0.00168453
0.00168462
0.00171129
0.00168445
0.00168455
0.00171346
0.00168251
0.00171127
0.0016846
0.00168447
0.00168244
0.00167762
0.00164661
0.00167555
0.0016755
0.00164868
0.00164871
0.00167758
0.0016466
0.00167556
0.00167568
0.0016487
0.00164873
0.0016756
0.00164872
0.00164879
0.00167773
0.00164663
0.00167559
0.00164878
0.00164887
0.00164674
0.00164185
0.00161094
0.00163977
0.00163976
0.00161304
0.00161298
0.00164184
0.00161097
0.00163979
0.00163973
0.00161302
0.0016129
0.00163987
0.00161302
0.00161301
0.00164184
0.00161084
0.0016399
0.00161289
0.00161293
0.00161083
0.00160617
0.00157536
0.00160413
0.00160413
0.00157739
0.00157749
0.0016062
0.00157534
0.0016041
0.00160406
0.00157739
0.00157757
0.00160403
0.00157742
0.00157738
0.00160609
0.00157548
0.00160397
0.00157746
0.00157741
0.00157542
0.00157062
0.00154001
0.0015685
0.00156856
0.00154207
0.00154196
0.00157059
0.00153999
0.00156854
0.00156872
0.00154212
0.00154194
0.00156859
0.00154202
0.00154208
0.00157074
0.00153997
0.00156864
0.00154215
0.00154215
0.00153998
0.00153526
0.00150456
0.00153328
0.00153319
0.00150668
0.00150681
0.00153527
0.00150465
0.00153326
0.00153302
0.00150657
0.00150662
0.00153315
0.00150677
0.00150656
0.0015352
0.00150451
0.00153318
0.00150646
0.00150641
0.00150448
0.00149982
0.00146938
0.00149779
0.00149791
0.00147132
0.00147124
0.00149989
0.00146924
0.00149772
0.00149788
0.00147144
0.00147154
0.00149779
0.00147123
0.00147153
0.00149978
0.00146944
0.00149768
0.0014715
0.00147156
0.00146947
0.00146466
0.00143422
0.00146258
0.00146245
0.0014363
0.00143617
0.00146452
0.00143421
0.00146269
0.00146264
0.00143629
0.00143616
0.00146273
0.00143624
0.00143628
0.00146472
0.00143424
0.00146278
0.00143632
0.00143637
0.00143432
0.00142949
0.00139907
0.00142749
0.00142744
0.00140116
0.00140145
0.00142951
0.00139924
0.00142744
0.0014274
0.00140108
0.0014012
0.00142749
0.00140135
0.00140113
0.0014295
0.00139905
0.00142759
0.00140108
0.00140104
0.00139899
0.00139437
0.00136419
0.00139241
0.00139269
0.0013662
0.00136612
0.00139452
0.00136404
0.00139237
0.00139247
0.00136626
0.00136628
0.00139236
0.00136608
0.00136617
0.00139433
0.00136417
0.00139224
0.00136623
0.00136614
0.00136404
0.00135949
0.00132923
0.00135749
0.00135731
0.00133133
0.00133112
0.00135931
0.00132917
0.00135756
0.00135748
0.00133131
0.00133117
0.00135746
0.00133114
0.00133126
0.00135947
0.00132921
0.00135747
0.00133122
0.00133128
0.00132931
0.00132449
0.00129421
0.00132251
0.00132243
0.00129621
0.00129643
0.00132449
0.00129438
0.00132249
0.00132242
0.00129623
0.00129633
0.00132256
0.00129652
0.00129646
0.00132448
0.00129429
0.00132257
0.00129639
0.00129648
0.00129433
0.00128953
0.00125963
0.00128757
0.00128777
0.00126175
0.00126172
0.00128967
0.00125959
0.00128759
0.00128765
0.00126168
0.00126164
0.00128765
0.00126162
0.00126151
0.0012896
0.00125953
0.00128768
0.0012616
0.00126147
0.00125945
0.00125494
0.00122478
0.00125305
0.001253
0.00122684
0.00122675
0.0012549
0.00122468
0.00125298
0.00125296
0.0012269
0.00122686
0.0012529
0.00122675
0.00122695
0.00125484
0.00122476
0.00125285
0.00122679
0.00122695
0.00122483
0.00122007
0.00119003
0.00121812
0.00121803
0.00119208
0.00119208
0.00121996
0.00118999
0.00121821
0.00121814
0.00119211
0.00119213
0.00121824
0.0011921
0.00119206
0.00122006
0.00119011
0.00121825
0.00119219
0.00119214
0.00119004
0.00118536
0.00115557
0.00118345
0.00118348
0.00115759
0.00115763
0.00118533
0.00115568
0.00118345
0.00118352
0.00115755
0.0011577
0.00118339
0.00115763
0.00115749
0.00118544
0.00115565
0.00118346
0.00115769
0.00115748
0.0011555
0.0011509
0.00112091
0.00114896
0.00114901
0.00112302
0.00112307
0.00115104
0.00112098
0.00114892
0.00114902
0.00112298
0.00112284
0.0011489
0.0011231
0.00112318
0.00115096
0.00112079
0.00114885
0.00112284
0.00112309
0.00112112
0.00111619
0.00108626
0.00111432
0.00111436
0.00108837
0.00108839
0.00111627
0.00108628
0.00111428
0.00111413
0.00108837
0.00108828
0.00111457
0.00108842
0.00108848
0.00111608
0.00108622
0.0011145
0.00108833
0.00108852
0.00108634
0.00108162
0.00105213
0.0010798
0.00107982
0.00105414
0.00105412
0.00108162
0.00105201
0.00107982
0.00107977
0.00105418
0.00105423
0.0010798
0.00105404
0.0010538
0.00108159
0.00105215
0.00107985
0.00105415
0.00105381
0.00105175
0.00104747
0.00101736
0.00104551
0.00104545
0.00101937
0.00101919
0.00104731
0.00101717
0.00104555
0.00104562
0.00101942
0.00101949
0.00104512
0.00101913
0.00101924
0.00104748
0.00101742
0.00104511
0.00101944
0.00101931
0.0010173
0.00101258
0.000982605
0.0010106
0.00101044
0.000984631
0.000984725
0.00101245
0.000982878
0.00101064
0.00101071
0.000984595
0.000984669
0.00101068
0.000984938
0.000985286
0.00101268
0.000982862
0.00101079
0.000984967
0.000985369
0.000983409
0.000977987
0.000948926
0.000976131
0.000976314
0.000950912
0.000951111
0.000978293
0.000948961
0.000976085
0.000976166
0.000950869
0.000950839
0.000976852
0.000951062
0.000950728
0.000978232
0.000948647
0.000976844
0.000950631
0.000950518
0.000948481
0.000944287
0.000913769
0.000942376
0.000942409
0.000915898
0.000915611
0.00094417
0.000913364
0.000942358
0.00094225
0.000915948
0.000915726
0.000941844
0.000915341
0.000915101
0.000943926
0.000913463
0.000941667
0.000915451
0.000915108
0.000912891
0.000908915
0.000878735
0.000906984
0.000906732
0.000880777
0.000880843
0.000908543
0.000879036
0.000907023
0.000906841
0.00088072
0.000880692
0.000906242
0.000880989
0.000881027
0.00090866
0.000878929
0.000906321
0.00088095
0.00088111
0.00087928
0.000874148
0.000845559
0.000872305
0.000872529
0.00084742
0.000847754
0.000874547
0.000846136
0.000872227
0.000872298
0.000847373
0.000847545
0.000872939
0.000848082
0.000848413
0.000874413
0.000845889
0.00087296
0.000847848
0.000848367
0.000846614
0.000841042
0.000811618
0.000839102
0.00083943
0.000813598
0.000813372
0.000841594
0.000811043
0.000839083
0.000839285
0.000813744
0.000813959
0.00084001
0.000813033
0.000813303
0.0008414
0.000811588
0.00084001
0.000813713
0.00081344
0.000811085
0.000806784
0.000775619
0.000804801
0.000804382
0.000777778
0.000777441
0.000806151
0.000775104
0.00080497
0.000805061
0.000777796
0.000777709
0.000804171
0.000777194
0.000777118
0.000806689
0.000775355
0.000804279
0.000777408
0.000777066
0.000774878
0.000770727
0.000740807
0.000768844
0.000768563
0.00074282
0.00074294
0.000770298
0.000741264
0.000768803
0.000768669
0.000742693
0.000742381
0.000768273
0.000743174
0.000742814
0.000770465
0.000740664
0.000768169
0.000742573
0.00074261
0.000741049
0.00073629
0.000707745
0.000734429
0.000734691
0.000709549
0.000709915
0.000736763
0.000708277
0.00073429
0.000734029
0.000709483
0.000709481
0.000734648
0.000710095
0.000709984
0.000736181
0.00070783
0.000734478
0.000709694
0.000709932
0.0007082
0.000703218
0.000673549
0.000701225
0.000701577
0.000675606
0.000675477
0.000703719
0.000673248
0.000701178
0.000701219
0.000675752
0.000675869
0.000701685
0.000675391
0.000675678
0.000703319
0.000673749
0.000701641
0.000675881
0.000675908
0.000673541
0.000668678
0.000637423
0.00066672
0.000666488
0.000639561
0.000639392
0.000668345
0.000637078
0.000666884
0.000667033
0.000639603
0.000639753
0.000666663
0.000639197
0.000639407
0.000668879
0.000637455
0.000666907
0.000639592
0.000639471
0.000637217
0.000632485
0.000602454
0.000630562
0.000630407
0.000604403
0.000604393
0.000632172
0.0006026
0.000630552
0.000630679
0.000604292
0.000604289
0.000630416
0.000604417
0.000604383
0.000632501
0.000602334
0.000630419
0.000604296
0.000604217
0.000602454
0.000597896
0.000569116
0.000595996
0.000596038
0.000570959
0.000571039
0.000598048
0.000569261
0.000595881
0.00059584
0.000570893
0.000570769
0.000595988
0.000571122
0.000570944
0.000597772
0.000568975
0.000595809
0.00057079
0.000570811
0.000569104
0.00056454
0.000534342
0.000562551
0.000562633
0.000536431
0.000536444
0.000564678
0.000534318
0.000562502
0.000562361
0.000536449
0.000536315
0.000562507
0.000536433
0.000536255
0.00056439
0.000534245
0.000562387
0.000536263
0.00053624
0.000534203
0.000529447
0.000498341
0.00052744
0.000527444
0.000500391
0.000500421
0.000529415
0.000498361
0.000527492
0.000527387
0.000500476
0.000500494
0.000527323
0.000500447
0.000500485
0.000529379
0.000498494
0.000527352
0.000500556
0.000500607
0.0004985
0.000493496
0.000463663
0.000491503
0.00049155
0.000465574
0.000465559
0.000493523
0.000463674
0.000491583
0.000491686
0.000465618
0.00046583
0.000491719
0.000465596
0.000465859
0.0004937
0.000463954
0.000491863
0.00046592
0.000465958
0.000463989
0.000459048
0.000429419
0.000457095
0.000457062
0.000431508
0.000431359
0.000459051
0.00042928
0.000457136
0.000457359
0.000431462
0.000431365
0.000457355
0.000431277
0.00043121
0.000459337
0.000429214
0.000457432
0.000431246
0.000431133
0.00042911
0.000424625
0.000393984
0.000422725
0.000422634
0.000396101
0.000396086
0.000424521
0.000393983
0.000422661
0.000422528
0.000396035
0.000395882
0.000422402
0.000396042
0.000395879
0.000424413
0.000393775
0.000422311
0.000395837
0.000395813
0.000393775
0.000389099
0.000358917
0.000387144
0.000387176
0.000360796
0.000360914
0.000389138
0.000359028
0.000387101
0.000386996
0.000360812
0.000360915
0.000387022
0.000360975
0.000361002
0.000388953
0.000359054
0.000386994
0.000360987
0.000361033
0.000359123
0.000354197
0.000324306
0.00035216
0.000352251
0.000326258
0.000326351
0.000354299
0.000324354
0.00035218
0.000352281
0.000326273
0.000326346
0.000352373
0.000326384
0.00032645
0.000354327
0.000324395
0.000352397
0.000326366
0.000326444
0.000324458
0.000319517
0.000288479
0.000317539
0.000317546
0.000290622
0.000290507
0.00031951
0.000288344
0.000317556
0.000317611
0.00029064
0.000290609
0.000317661
0.000290464
0.00029049
0.000319588
0.000288439
0.000317653
0.000290569
0.000290507
0.000288345
0.000283556
0.000252339
0.000281592
0.000281482
0.000254389
0.000254243
0.000283415
0.000252227
0.000281607
0.000281568
0.000254399
0.000254336
0.00028144
0.000254197
0.000254178
0.000283516
0.000252233
0.000281463
0.0002543
0.000254191
0.000252135
0.000247464
0.00021728
0.00024541
0.000245368
0.00021917
0.000219349
0.00024742
0.000217496
0.000245387
0.000245327
0.000219093
0.000219083
0.000245254
0.00021938
0.000219297
0.000247354
0.000217268
0.000245242
0.000219127
0.000219239
0.000217426
0.000212558
0.000182893
0.000210534
0.000210718
0.000184817
0.00018505
0.000212777
0.000183112
0.000210465
0.000210469
0.000184768
0.000184779
0.000210711
0.000185097
0.000185041
0.000212554
0.000182944
0.000210657
0.000184851
0.000185016
0.000183122
0.000178205
0.000147615
0.000176257
0.00017638
0.000149769
0.000149546
0.000178317
0.00014734
0.000176253
0.000176268
0.000149888
0.000149934
0.000176414
0.000149502
0.000149607
0.000178273
0.000147664
0.00017644
0.000149869
0.000149701
0.000147436
0.00014269
0.000111238
0.00014076
0.000140542
0.000113411
0.000113194
0.000142424
0.000110952
0.000140859
0.000140898
0.000113471
0.000113488
0.000140567
0.00011316
0.000113249
0.000142731
0.000111254
0.000140642
0.000113435
0.000113284
0.000111044
0.000106143
7.4994e-05
0.000104159
0.000104006
7.68646e-05
7.70175e-05
0.000105936
7.52085e-05
0.000104184
0.0001042
7.67696e-05
7.67218e-05
0.000104053
7.70502e-05
7.70016e-05
0.000106146
7.49247e-05
0.000104047
7.67562e-05
7.69035e-05
7.51375e-05
7.00725e-05
3.94698e-05
6.79906e-05
6.81588e-05
4.14247e-05
4.14944e-05
7.02923e-05
3.96321e-05
6.78838e-05
6.78359e-05
4.13698e-05
4.13531e-05
6.81416e-05
4.15285e-05
4.14837e-05
7.00066e-05
3.94314e-05
6.8046e-05
4.13764e-05
4.14319e-05
3.95416e-05
3.46162e-05
7.98437e-06
3.27836e-05
3.29024e-05
1.10941e-05
1.11335e-05
3.48054e-05
7.94752e-06
3.27454e-05
3.27086e-05
1.10836e-05
1.10071e-05
3.28233e-05
1.11068e-05
1.09957e-05
3.45679e-05
7.93192e-06
3.27959e-05
1.0992e-05
1.09981e-05
7.86292e-06
4.77154e-06
6.62349e-06
6.65404e-06
4.69747e-06
6.77273e-06
6.68652e-06
5.84523e-06
5.81666e-06
5.79194e-06
6.51563e-06
4.75289e-06
6.6634e-06
0.00353077
0.0035334
0.003532
0.00353228
0.00355892
0.00353327
0.00356315
0.00353379
0.00355985
0.00353334
0.00353349
0.00356286
0.00354435
0.00356605
0.00356607
0.00350331
0.00351665
0.00352091
0.00349576
0.00349382
0.00349878
0.0035033
0.00351689
0.00352075
0.00349548
0.00351918
0.00351927
0.00351927
0.00349265
0.00349274
0.00349272
0.00349274
0.00350281
0.00351514
0.00351976
0.00351042
0.00352208
0.00349996
0.00351067
0.00349384
0.00349907
0.0035031
0.00351991
0.00351497
0.00351056
0.00352207
0.00351084
0.00350019
0.00352108
0.00352084
0.00350771
0.00350019
0.00350007
0.00347561
0.00348974
0.00348978
0.00347388
0.00348715
0.00347264
0.0034756
0.00348983
0.00348966
0.00347354
0.00348366
0.00348359
0.00348363
0.00345514
0.00345527
0.00345518
0.00345519
0.00347332
0.00348841
0.00348219
0.00347274
0.00348693
0.00347393
0.00347278
0.00348714
0.00347255
0.00347336
0.00348211
0.00348825
0.00347248
0.00348682
0.00347254
0.00347362
0.00349034
0.00349023
0.00347117
0.00347443
0.00347427
0.00343308
0.00344781
0.00344869
0.00343153
0.00344668
0.00343084
0.00343305
0.00344789
0.00344869
0.00343143
0.0034452
0.0034451
0.00344513
0.00341254
0.00341261
0.00341257
0.00341257
0.00343177
0.00344743
0.00344336
0.00343275
0.00344645
0.00343228
0.00343282
0.00344664
0.00343088
0.00343188
0.00344318
0.00344721
0.00343272
0.00344629
0.00343273
0.00343225
0.00344815
0.00344795
0.00343014
0.00343207
0.00343211
0.0033868
0.00340337
0.00340463
0.00338558
0.00340244
0.00338484
0.00338677
0.0034032
0.00340459
0.00338529
0.00340107
0.00340103
0.00340103
0.00336512
0.00336519
0.00336514
0.00336513
0.00338584
0.00340301
0.00339939
0.00338763
0.00340245
0.00338607
0.00338769
0.00340246
0.00338479
0.003386
0.00339935
0.00340308
0.0033876
0.00340244
0.00338762
0.00338606
0.00340325
0.00340329
0.00338435
0.00338551
0.00338554
0.00333792
0.0033549
0.00335627
0.00333663
0.00335457
0.00333636
0.00333786
0.00335495
0.00335625
0.00333665
0.00335301
0.00335294
0.00335295
0.00331626
0.0033163
0.00331628
0.00331626
0.00333735
0.00335501
0.00335159
0.00333929
0.00335469
0.00333736
0.00333939
0.00335454
0.00333635
0.00333749
0.00335152
0.003355
0.00333932
0.00335463
0.00333934
0.00333737
0.00335504
0.00335504
0.00333596
0.00333679
0.00333681
0.00328882
0.00330606
0.003307
0.00328791
0.00330579
0.00328767
0.00328878
0.00330607
0.00330701
0.00328788
0.00330412
0.0033041
0.00330408
0.00326782
0.00326787
0.00326783
0.00326783
0.00328863
0.00330609
0.00330289
0.0032907