/*--------------------------------*- C++ -*----------------------------------*\
| =========                 |                                                 |
| \\      /  F ield         | OpenFOAM: The Open Source CFD Toolbox           |
|  \\    /   O peration     | Version:  v2012                                 |
|   \\  /    A nd           | Website:  www.openfoam.com                      |
|    \\/     M anipulation  |                                                 |
\*---------------------------------------------------------------------------*/
FoamFile
{
    version     2.0;
    format      ascii;
    class       volScalarField;
    location    "0.49";
    object      p;
}
// * * * * * * * * * * * * * * * * * * * * * * * * * * * * * * * * * * * * * //

dimensions      [0 2 -2 0 0 0 0];


internalField   nonuniform List<scalar> 
247104
(
1.82889e-06
1.82876e-06
1.82892e-06
1.8289e-06
1.82884e-06
1.82892e-06
1.8289e-06
1.8287e-06
1.82876e-06
1.82883e-06
1.82889e-06
1.82874e-06
1.82866e-06
1.82876e-06
1.8289e-06
1.82881e-06
1.82892e-06
1.82889e-06
1.82859e-06
1.82823e-06
1.8281e-06
1.82827e-06
1.82864e-06
1.82891e-06
1.82892e-06
1.82891e-06
1.82874e-06
1.82823e-06
1.82776e-06
1.82759e-06
1.8278e-06
1.8283e-06
1.82879e-06
1.82891e-06
1.82889e-06
1.82884e-06
1.82866e-06
1.8281e-06
1.82759e-06
1.82741e-06
1.82764e-06
1.82817e-06
1.82871e-06
1.82882e-06
1.82892e-06
1.82876e-06
1.82827e-06
1.8278e-06
1.82764e-06
1.82785e-06
1.82834e-06
1.82881e-06
1.82893e-06
1.8289e-06
1.8289e-06
1.82864e-06
1.8283e-06
1.82817e-06
1.82834e-06
1.82868e-06
1.82891e-06
1.8289e-06
1.8287e-06
1.82881e-06
1.82891e-06
1.82879e-06
1.82871e-06
1.82881e-06
1.82891e-06
1.82877e-06
1.82892e-06
1.82891e-06
1.82882e-06
1.82893e-06
1.8289e-06
1.79641e-06
1.79447e-06
1.79378e-06
1.79256e-06
1.79255e-06
1.79251e-06
1.7925e-06
1.79385e-06
1.79402e-06
1.79378e-06
1.79172e-06
1.7892e-06
1.78919e-06
1.78919e-06
1.7892e-06
1.7921e-06
1.7924e-06
1.79256e-06
1.7892e-06
1.78913e-06
1.78921e-06
1.78921e-06
1.78913e-06
1.7892e-06
1.7925e-06
1.79391e-06
1.79641e-06
1.79255e-06
1.78919e-06
1.78921e-06
1.7893e-06
1.7893e-06
1.78921e-06
1.78919e-06
1.79254e-06
1.79417e-06
1.79447e-06
1.79251e-06
1.78919e-06
1.78921e-06
1.7893e-06
1.7893e-06
1.78921e-06
1.78919e-06
1.79268e-06
1.79279e-06
1.7925e-06
1.7892e-06
1.78913e-06
1.78921e-06
1.78921e-06
1.78914e-06
1.7892e-06
1.7925e-06
1.79386e-06
1.79385e-06
1.7921e-06
1.7892e-06
1.78919e-06
1.78919e-06
1.7892e-06
1.79238e-06
1.79253e-06
1.79401e-06
1.79402e-06
1.79239e-06
1.7925e-06
1.79254e-06
1.79268e-06
1.79249e-06
1.79253e-06
1.79401e-06
1.79391e-06
1.79417e-06
1.79279e-06
1.79385e-06
1.79401e-06
1.77636e-06
1.77619e-06
1.77602e-06
1.77395e-06
1.77383e-06
1.77378e-06
1.77392e-06
1.77595e-06
1.77622e-06
1.77602e-06
1.77326e-06
1.7703e-06
1.77028e-06
1.77028e-06
1.7703e-06
1.77367e-06
1.77438e-06
1.77395e-06
1.7703e-06
1.77012e-06
1.77017e-06
1.77017e-06
1.77012e-06
1.7703e-06
1.77446e-06
1.7764e-06
1.77636e-06
1.77383e-06
1.77028e-06
1.77017e-06
1.77021e-06
1.77021e-06
1.77017e-06
1.77028e-06
1.7745e-06
1.77616e-06
1.77619e-06
1.77378e-06
1.77028e-06
1.77017e-06
1.77021e-06
1.77021e-06
1.77017e-06
1.77028e-06
1.77446e-06
1.77453e-06
1.77392e-06
1.7703e-06
1.77012e-06
1.77017e-06
1.77017e-06
1.77012e-06
1.7703e-06
1.77449e-06
1.77649e-06
1.77595e-06
1.77367e-06
1.7703e-06
1.77028e-06
1.77028e-06
1.7703e-06
1.77412e-06
1.77446e-06
1.77642e-06
1.77622e-06
1.77438e-06
1.77446e-06
1.7745e-06
1.77446e-06
1.77449e-06
1.77446e-06
1.77628e-06
1.7764e-06
1.77616e-06
1.77453e-06
1.77649e-06
1.77643e-06
1.75758e-06
1.75741e-06
1.75727e-06
1.75516e-06
1.75504e-06
1.75497e-06
1.75514e-06
1.7572e-06
1.75748e-06
1.75727e-06
1.75447e-06
1.75149e-06
1.75148e-06
1.75148e-06
1.75149e-06
1.75485e-06
1.75563e-06
1.75516e-06
1.75149e-06
1.7514e-06
1.75142e-06
1.75142e-06
1.7514e-06
1.75149e-06
1.75568e-06
1.75762e-06
1.75758e-06
1.75504e-06
1.75148e-06
1.75142e-06
1.75143e-06
1.75143e-06
1.75142e-06
1.75148e-06
1.75572e-06
1.75738e-06
1.75741e-06
1.75497e-06
1.75148e-06
1.75142e-06
1.75143e-06
1.75143e-06
1.75142e-06
1.75148e-06
1.75569e-06
1.75576e-06
1.75514e-06
1.75149e-06
1.7514e-06
1.75142e-06
1.75142e-06
1.7514e-06
1.75149e-06
1.75571e-06
1.7577e-06
1.7572e-06
1.75485e-06
1.75149e-06
1.75148e-06
1.75148e-06
1.75149e-06
1.75543e-06
1.75572e-06
1.75767e-06
1.75748e-06
1.75563e-06
1.75568e-06
1.75572e-06
1.75569e-06
1.75571e-06
1.75572e-06
1.75771e-06
1.75762e-06
1.75738e-06
1.75576e-06
1.7577e-06
1.75767e-06
1.73876e-06
1.7386e-06
1.73844e-06
1.73632e-06
1.7362e-06
1.73613e-06
1.7363e-06
1.73836e-06
1.73864e-06
1.73844e-06
1.73565e-06
1.73265e-06
1.73265e-06
1.73265e-06
1.73265e-06
1.73598e-06
1.73679e-06
1.73632e-06
1.73265e-06
1.73263e-06
1.73263e-06
1.73263e-06
1.73263e-06
1.73265e-06
1.73685e-06
1.7388e-06
1.73877e-06
1.7362e-06
1.73265e-06
1.73263e-06
1.73263e-06
1.73263e-06
1.73263e-06
1.73265e-06
1.73691e-06
1.73858e-06
1.7386e-06
1.73613e-06
1.73265e-06
1.73263e-06
1.73263e-06
1.73263e-06
1.73263e-06
1.73265e-06
1.73688e-06
1.73695e-06
1.7363e-06
1.73265e-06
1.73263e-06
1.73263e-06
1.73263e-06
1.73263e-06
1.73265e-06
1.73689e-06
1.7389e-06
1.73836e-06
1.73598e-06
1.73265e-06
1.73265e-06
1.73265e-06
1.73265e-06
1.73662e-06
1.73691e-06
1.73884e-06
1.73864e-06
1.73679e-06
1.73685e-06
1.73691e-06
1.73688e-06
1.73689e-06
1.73691e-06
1.73884e-06
1.7388e-06
1.73858e-06
1.73695e-06
1.73889e-06
1.73884e-06
1.71993e-06
1.71977e-06
1.7196e-06
1.71749e-06
1.71737e-06
1.7173e-06
1.71747e-06
1.71953e-06
1.7198e-06
1.7196e-06
1.71682e-06
1.71382e-06
1.71382e-06
1.71381e-06
1.71382e-06
1.71714e-06
1.71795e-06
1.71749e-06
1.71382e-06
1.71381e-06
1.71381e-06
1.71381e-06
1.71381e-06
1.71382e-06
1.71801e-06
1.71996e-06
1.71993e-06
1.71737e-06
1.71381e-06
1.71381e-06
1.71381e-06
1.71381e-06
1.71381e-06
1.71382e-06
1.71808e-06
1.71975e-06
1.71977e-06
1.7173e-06
1.71382e-06
1.71381e-06
1.71381e-06
1.71381e-06
1.71381e-06
1.71382e-06
1.71805e-06
1.71812e-06
1.71747e-06
1.71382e-06
1.71381e-06
1.71381e-06
1.71381e-06
1.71381e-06
1.71382e-06
1.71806e-06
1.72007e-06
1.71953e-06
1.71714e-06
1.71382e-06
1.71381e-06
1.71382e-06
1.71382e-06
1.71779e-06
1.71808e-06
1.72001e-06
1.7198e-06
1.71795e-06
1.71801e-06
1.71807e-06
1.71805e-06
1.71806e-06
1.71808e-06
1.72001e-06
1.71996e-06
1.71975e-06
1.71812e-06
1.72007e-06
1.72001e-06
1.7011e-06
1.70094e-06
1.70077e-06
1.69866e-06
1.69854e-06
1.69847e-06
1.69864e-06
1.7007e-06
1.70097e-06
1.70077e-06
1.69799e-06
1.69499e-06
1.69499e-06
1.69499e-06
1.69499e-06
1.6983e-06
1.69912e-06
1.69866e-06
1.69499e-06
1.69498e-06
1.69498e-06
1.69498e-06
1.69498e-06
1.69499e-06
1.69918e-06
1.70113e-06
1.7011e-06
1.69853e-06
1.69499e-06
1.69498e-06
1.69499e-06
1.69499e-06
1.69498e-06
1.69499e-06
1.69924e-06
1.70092e-06
1.70094e-06
1.69847e-06
1.69499e-06
1.69498e-06
1.69499e-06
1.69499e-06
1.69498e-06
1.69499e-06
1.69922e-06
1.69929e-06
1.69864e-06
1.69499e-06
1.69498e-06
1.69498e-06
1.69498e-06
1.69498e-06
1.69499e-06
1.69923e-06
1.70124e-06
1.7007e-06
1.6983e-06
1.69499e-06
1.69499e-06
1.69499e-06
1.69499e-06
1.69896e-06
1.69925e-06
1.70118e-06
1.70097e-06
1.69912e-06
1.69917e-06
1.69924e-06
1.69922e-06
1.69923e-06
1.69925e-06
1.70118e-06
1.70113e-06
1.70092e-06
1.69929e-06
1.70124e-06
1.70118e-06
1.68228e-06
1.68211e-06
1.68194e-06
1.67983e-06
1.67971e-06
1.67964e-06
1.67981e-06
1.68187e-06
1.68214e-06
1.68194e-06
1.67916e-06
1.67616e-06
1.67616e-06
1.67616e-06
1.67616e-06
1.67947e-06
1.68029e-06
1.67983e-06
1.67616e-06
1.67616e-06
1.67616e-06
1.67616e-06
1.67616e-06
1.67616e-06
1.68034e-06
1.6823e-06
1.68228e-06
1.67971e-06
1.67616e-06
1.67616e-06
1.67616e-06
1.67616e-06
1.67616e-06
1.67616e-06
1.68041e-06
1.68209e-06
1.68211e-06
1.67964e-06
1.67616e-06
1.67616e-06
1.67616e-06
1.67616e-06
1.67616e-06
1.67616e-06
1.68039e-06
1.68046e-06
1.67981e-06
1.67616e-06
1.67616e-06
1.67616e-06
1.67616e-06
1.67616e-06
1.67616e-06
1.6804e-06
1.68241e-06
1.68187e-06
1.67947e-06
1.67616e-06
1.67616e-06
1.67616e-06
1.67616e-06
1.68013e-06
1.68042e-06
1.68235e-06
1.68214e-06
1.68029e-06
1.68034e-06
1.68041e-06
1.68039e-06
1.6804e-06
1.68042e-06
1.68234e-06
1.6823e-06
1.68209e-06
1.68047e-06
1.68241e-06
1.68235e-06
1.66345e-06
1.66328e-06
1.66311e-06
1.661e-06
1.66088e-06
1.66081e-06
1.66098e-06
1.66304e-06
1.66331e-06
1.66311e-06
1.66033e-06
1.65733e-06
1.65733e-06
1.65733e-06
1.65733e-06
1.66065e-06
1.66146e-06
1.661e-06
1.65733e-06
1.65733e-06
1.65733e-06
1.65733e-06
1.65733e-06
1.65733e-06
1.66152e-06
1.66347e-06
1.66345e-06
1.66088e-06
1.65733e-06
1.65733e-06
1.65733e-06
1.65733e-06
1.65733e-06
1.65733e-06
1.66159e-06
1.66326e-06
1.66328e-06
1.66081e-06
1.65733e-06
1.65733e-06
1.65733e-06
1.65733e-06
1.65733e-06
1.65733e-06
1.66156e-06
1.66164e-06
1.66098e-06
1.65733e-06
1.65733e-06
1.65733e-06
1.65733e-06
1.65733e-06
1.65733e-06
1.66157e-06
1.66358e-06
1.66304e-06
1.66064e-06
1.65733e-06
1.65733e-06
1.65733e-06
1.65733e-06
1.66131e-06
1.6616e-06
1.66352e-06
1.66331e-06
1.66146e-06
1.66151e-06
1.66159e-06
1.66156e-06
1.66157e-06
1.66159e-06
1.66351e-06
1.66347e-06
1.66326e-06
1.66164e-06
1.66358e-06
1.66352e-06
1.64462e-06
1.64445e-06
1.64428e-06
1.64217e-06
1.64205e-06
1.64198e-06
1.64215e-06
1.64421e-06
1.64448e-06
1.64428e-06
1.6415e-06
1.6385e-06
1.6385e-06
1.6385e-06
1.6385e-06
1.64182e-06
1.64263e-06
1.64217e-06
1.6385e-06
1.6385e-06
1.6385e-06
1.6385e-06
1.6385e-06
1.6385e-06
1.64269e-06
1.64465e-06
1.64462e-06
1.64205e-06
1.6385e-06
1.6385e-06
1.6385e-06
1.6385e-06
1.6385e-06
1.6385e-06
1.64276e-06
1.64443e-06
1.64445e-06
1.64198e-06
1.6385e-06
1.6385e-06
1.6385e-06
1.6385e-06
1.6385e-06
1.6385e-06
1.64273e-06
1.64281e-06
1.64215e-06
1.6385e-06
1.6385e-06
1.6385e-06
1.6385e-06
1.6385e-06
1.6385e-06
1.64275e-06
1.64475e-06
1.64421e-06
1.64182e-06
1.6385e-06
1.6385e-06
1.6385e-06
1.6385e-06
1.64248e-06
1.64277e-06
1.64469e-06
1.64448e-06
1.64263e-06
1.64269e-06
1.64276e-06
1.64273e-06
1.64275e-06
1.64276e-06
1.64469e-06
1.64465e-06
1.64443e-06
1.64281e-06
1.64475e-06
1.64469e-06
1.62579e-06
1.62562e-06
1.62545e-06
1.62334e-06
1.62322e-06
1.62315e-06
1.62332e-06
1.62539e-06
1.62566e-06
1.62545e-06
1.62267e-06
1.61967e-06
1.61967e-06
1.61967e-06
1.61967e-06
1.62299e-06
1.6238e-06
1.62334e-06
1.61967e-06
1.61967e-06
1.61967e-06
1.61967e-06
1.61967e-06
1.61967e-06
1.62386e-06
1.62582e-06
1.62579e-06
1.62322e-06
1.61967e-06
1.61967e-06
1.61967e-06
1.61967e-06
1.61967e-06
1.61967e-06
1.62393e-06
1.62561e-06
1.62562e-06
1.62315e-06
1.61967e-06
1.61967e-06
1.61967e-06
1.61967e-06
1.61967e-06
1.61967e-06
1.6239e-06
1.62398e-06
1.62332e-06
1.61967e-06
1.61967e-06
1.61967e-06
1.61967e-06
1.61967e-06
1.61967e-06
1.62392e-06
1.62592e-06
1.62539e-06
1.62299e-06
1.61967e-06
1.61967e-06
1.61967e-06
1.61967e-06
1.62365e-06
1.62394e-06
1.62586e-06
1.62565e-06
1.6238e-06
1.62386e-06
1.62393e-06
1.6239e-06
1.62392e-06
1.62394e-06
1.62586e-06
1.62582e-06
1.62561e-06
1.62398e-06
1.62592e-06
1.62586e-06
1.60696e-06
1.6068e-06
1.60663e-06
1.60452e-06
1.60439e-06
1.60433e-06
1.60449e-06
1.60656e-06
1.60683e-06
1.60663e-06
1.60385e-06
1.60084e-06
1.60084e-06
1.60084e-06
1.60084e-06
1.60416e-06
1.60498e-06
1.60452e-06
1.60084e-06
1.60084e-06
1.60084e-06
1.60084e-06
1.60084e-06
1.60084e-06
1.60503e-06
1.60699e-06
1.60696e-06
1.60439e-06
1.60084e-06
1.60084e-06
1.60084e-06
1.60084e-06
1.60084e-06
1.60084e-06
1.6051e-06
1.60678e-06
1.6068e-06
1.60433e-06
1.60084e-06
1.60084e-06
1.60084e-06
1.60084e-06
1.60084e-06
1.60084e-06
1.60508e-06
1.60515e-06
1.60449e-06
1.60084e-06
1.60084e-06
1.60084e-06
1.60084e-06
1.60084e-06
1.60084e-06
1.60509e-06
1.6071e-06
1.60656e-06
1.60416e-06
1.60084e-06
1.60084e-06
1.60084e-06
1.60084e-06
1.60482e-06
1.60511e-06
1.60703e-06
1.60683e-06
1.60498e-06
1.60503e-06
1.6051e-06
1.60507e-06
1.60509e-06
1.60511e-06
1.60703e-06
1.60699e-06
1.60678e-06
1.60515e-06
1.6071e-06
1.60703e-06
1.58814e-06
1.58797e-06
1.5878e-06
1.58569e-06
1.58557e-06
1.5855e-06
1.58567e-06
1.58773e-06
1.588e-06
1.5878e-06
1.58502e-06
1.58202e-06
1.58202e-06
1.58202e-06
1.58202e-06
1.58534e-06
1.58615e-06
1.58569e-06
1.58202e-06
1.58202e-06
1.58202e-06
1.58202e-06
1.58202e-06
1.58202e-06
1.58621e-06
1.58816e-06
1.58814e-06
1.58557e-06
1.58202e-06
1.58202e-06
1.58202e-06
1.58202e-06
1.58202e-06
1.58202e-06
1.58628e-06
1.58795e-06
1.58797e-06
1.5855e-06
1.58202e-06
1.58202e-06
1.58202e-06
1.58202e-06
1.58202e-06
1.58202e-06
1.58625e-06
1.58633e-06
1.58567e-06
1.58202e-06
1.58202e-06
1.58202e-06
1.58202e-06
1.58202e-06
1.58202e-06
1.58626e-06
1.58827e-06
1.58773e-06
1.58534e-06
1.58202e-06
1.58202e-06
1.58202e-06
1.58202e-06
1.586e-06
1.58629e-06
1.58821e-06
1.588e-06
1.58615e-06
1.58621e-06
1.58628e-06
1.58625e-06
1.58626e-06
1.58628e-06
1.58821e-06
1.58816e-06
1.58795e-06
1.58633e-06
1.58827e-06
1.58821e-06
1.56931e-06
1.56914e-06
1.56897e-06
1.56686e-06
1.56674e-06
1.56667e-06
1.56684e-06
1.56891e-06
1.56917e-06
1.56897e-06
1.56619e-06
1.56319e-06
1.56319e-06
1.56319e-06
1.56319e-06
1.56651e-06
1.56732e-06
1.56686e-06
1.56319e-06
1.56319e-06
1.56319e-06
1.56319e-06
1.56319e-06
1.56319e-06
1.56738e-06
1.56934e-06
1.56931e-06
1.56674e-06
1.56319e-06
1.56319e-06
1.56319e-06
1.56319e-06
1.56319e-06
1.56319e-06
1.56745e-06
1.56912e-06
1.56914e-06
1.56667e-06
1.56319e-06
1.56319e-06
1.56319e-06
1.56319e-06
1.56319e-06
1.56319e-06
1.56742e-06
1.5675e-06
1.56684e-06
1.56319e-06
1.56319e-06
1.56319e-06
1.56319e-06
1.56319e-06
1.56319e-06
1.56744e-06
1.56944e-06
1.56891e-06
1.56651e-06
1.56319e-06
1.56319e-06
1.56319e-06
1.56319e-06
1.56717e-06
1.56746e-06
1.56938e-06
1.56917e-06
1.56732e-06
1.56738e-06
1.56745e-06
1.56742e-06
1.56744e-06
1.56746e-06
1.56938e-06
1.56934e-06
1.56912e-06
1.5675e-06
1.56944e-06
1.56938e-06
1.55048e-06
1.55032e-06
1.55014e-06
1.54804e-06
1.54791e-06
1.54785e-06
1.54801e-06
1.55008e-06
1.55035e-06
1.55015e-06
1.54737e-06
1.54436e-06
1.54436e-06
1.54436e-06
1.54436e-06
1.54768e-06
1.5485e-06
1.54804e-06
1.54436e-06
1.54436e-06
1.54436e-06
1.54436e-06
1.54436e-06
1.54436e-06
1.54855e-06
1.55051e-06
1.55048e-06
1.54791e-06
1.54436e-06
1.54436e-06
1.54436e-06
1.54436e-06
1.54436e-06
1.54436e-06
1.54862e-06
1.5503e-06
1.55032e-06
1.54785e-06
1.54436e-06
1.54436e-06
1.54436e-06
1.54436e-06
1.54436e-06
1.54436e-06
1.54859e-06
1.54867e-06
1.54801e-06
1.54436e-06
1.54436e-06
1.54436e-06
1.54436e-06
1.54436e-06
1.54436e-06
1.54861e-06
1.55062e-06
1.55008e-06
1.54768e-06
1.54436e-06
1.54436e-06
1.54436e-06
1.54436e-06
1.54834e-06
1.54863e-06
1.55055e-06
1.55035e-06
1.5485e-06
1.54855e-06
1.54862e-06
1.54859e-06
1.54861e-06
1.54863e-06
1.55055e-06
1.55051e-06
1.5503e-06
1.54867e-06
1.55062e-06
1.55055e-06
1.53166e-06
1.53149e-06
1.53132e-06
1.52921e-06
1.52909e-06
1.52902e-06
1.52919e-06
1.53125e-06
1.53152e-06
1.53132e-06
1.52854e-06
1.52554e-06
1.52554e-06
1.52554e-06
1.52554e-06
1.52886e-06
1.52967e-06
1.52921e-06
1.52554e-06
1.52554e-06
1.52554e-06
1.52554e-06
1.52554e-06
1.52554e-06
1.52973e-06
1.53168e-06
1.53166e-06
1.52909e-06
1.52554e-06
1.52554e-06
1.52554e-06
1.52554e-06
1.52554e-06
1.52554e-06
1.5298e-06
1.53147e-06
1.53149e-06
1.52902e-06
1.52554e-06
1.52554e-06
1.52554e-06
1.52554e-06
1.52554e-06
1.52554e-06
1.52977e-06
1.52985e-06
1.52919e-06
1.52554e-06
1.52554e-06
1.52554e-06
1.52554e-06
1.52554e-06
1.52554e-06
1.52978e-06
1.53179e-06
1.53125e-06
1.52886e-06
1.52554e-06
1.52554e-06
1.52554e-06
1.52554e-06
1.52952e-06
1.5298e-06
1.53173e-06
1.53152e-06
1.52967e-06
1.52972e-06
1.52979e-06
1.52977e-06
1.52978e-06
1.5298e-06
1.53172e-06
1.53168e-06
1.53147e-06
1.52985e-06
1.53179e-06
1.53173e-06
1.51283e-06
1.51266e-06
1.51249e-06
1.51038e-06
1.51026e-06
1.51019e-06
1.51036e-06
1.51243e-06
1.51269e-06
1.51249e-06
1.50971e-06
1.50671e-06
1.50671e-06
1.50671e-06
1.50671e-06
1.51003e-06
1.51084e-06
1.51038e-06
1.50671e-06
1.50671e-06
1.50671e-06
1.50671e-06
1.50671e-06
1.50671e-06
1.5109e-06
1.51286e-06
1.51283e-06
1.51026e-06
1.50671e-06
1.50671e-06
1.50671e-06
1.50671e-06
1.50671e-06
1.50671e-06
1.51097e-06
1.51264e-06
1.51266e-06
1.51019e-06
1.50671e-06
1.50671e-06
1.50671e-06
1.50671e-06
1.50671e-06
1.50671e-06
1.51094e-06
1.51102e-06
1.51036e-06
1.50671e-06
1.50671e-06
1.50671e-06
1.50671e-06
1.50671e-06
1.50671e-06
1.51096e-06
1.51296e-06
1.51243e-06
1.51003e-06
1.50671e-06
1.50671e-06
1.50671e-06
1.50671e-06
1.51069e-06
1.51098e-06
1.5129e-06
1.51269e-06
1.51084e-06
1.5109e-06
1.51097e-06
1.51094e-06
1.51096e-06
1.51098e-06
1.5129e-06
1.51286e-06
1.51264e-06
1.51102e-06
1.51296e-06
1.5129e-06
1.494e-06
1.49384e-06
1.49367e-06
1.49156e-06
1.49144e-06
1.49137e-06
1.49154e-06
1.4936e-06
1.49387e-06
1.49367e-06
1.49089e-06
1.48789e-06
1.48789e-06
1.48789e-06
1.48789e-06
1.4912e-06
1.49202e-06
1.49156e-06
1.48789e-06
1.48789e-06
1.48789e-06
1.48789e-06
1.48789e-06
1.48789e-06
1.49207e-06
1.49403e-06
1.494e-06
1.49143e-06
1.48789e-06
1.48789e-06
1.48789e-06
1.48789e-06
1.48789e-06
1.48789e-06
1.49214e-06
1.49382e-06
1.49384e-06
1.49137e-06
1.48789e-06
1.48789e-06
1.48789e-06
1.48789e-06
1.48789e-06
1.48789e-06
1.49212e-06
1.49219e-06
1.49154e-06
1.48789e-06
1.48789e-06
1.48789e-06
1.48789e-06
1.48789e-06
1.48789e-06
1.49213e-06
1.49414e-06
1.4936e-06
1.4912e-06
1.48789e-06
1.48789e-06
1.48789e-06
1.48789e-06
1.49186e-06
1.49215e-06
1.49407e-06
1.49387e-06
1.49202e-06
1.49207e-06
1.49214e-06
1.49212e-06
1.49213e-06
1.49215e-06
1.49407e-06
1.49403e-06
1.49382e-06
1.49219e-06
1.49414e-06
1.49407e-06
1.47518e-06
1.47501e-06
1.47484e-06
1.47273e-06
1.47261e-06
1.47255e-06
1.47271e-06
1.47478e-06
1.47505e-06
1.47484e-06
1.47206e-06
1.46906e-06
1.46906e-06
1.46906e-06
1.46906e-06
1.47238e-06
1.47319e-06
1.47273e-06
1.46906e-06
1.46906e-06
1.46906e-06
1.46906e-06
1.46906e-06
1.46906e-06
1.47325e-06
1.47521e-06
1.47518e-06
1.47261e-06
1.46906e-06
1.46906e-06
1.46906e-06
1.46906e-06
1.46906e-06
1.46906e-06
1.47332e-06
1.475e-06
1.47501e-06
1.47255e-06
1.46906e-06
1.46906e-06
1.46906e-06
1.46906e-06
1.46906e-06
1.46906e-06
1.47329e-06
1.47337e-06
1.47271e-06
1.46906e-06
1.46906e-06
1.46906e-06
1.46906e-06
1.46906e-06
1.46906e-06
1.47331e-06
1.47532e-06
1.47478e-06
1.47238e-06
1.46906e-06
1.46906e-06
1.46906e-06
1.46906e-06
1.47304e-06
1.47333e-06
1.47525e-06
1.47505e-06
1.47319e-06
1.47325e-06
1.47332e-06
1.47329e-06
1.47331e-06
1.47333e-06
1.47525e-06
1.47521e-06
1.475e-06
1.47337e-06
1.47531e-06
1.47525e-06
1.45636e-06
1.45619e-06
1.45602e-06
1.45391e-06
1.45379e-06
1.45372e-06
1.45389e-06
1.45595e-06
1.45622e-06
1.45602e-06
1.45324e-06
1.45024e-06
1.45024e-06
1.45024e-06
1.45024e-06
1.45356e-06
1.45437e-06
1.45391e-06
1.45024e-06
1.45024e-06
1.45024e-06
1.45024e-06
1.45024e-06
1.45024e-06
1.45443e-06
1.45639e-06
1.45636e-06
1.45379e-06
1.45024e-06
1.45024e-06
1.45024e-06
1.45024e-06
1.45024e-06
1.45024e-06
1.4545e-06
1.45617e-06
1.45619e-06
1.45372e-06
1.45024e-06
1.45024e-06
1.45024e-06
1.45024e-06
1.45024e-06
1.45024e-06
1.45447e-06
1.45455e-06
1.45389e-06
1.45024e-06
1.45024e-06
1.45024e-06
1.45024e-06
1.45024e-06
1.45024e-06
1.45449e-06
1.45649e-06
1.45596e-06
1.45356e-06
1.45024e-06
1.45024e-06
1.45024e-06
1.45024e-06
1.45422e-06
1.45451e-06
1.45643e-06
1.45622e-06
1.45437e-06
1.45443e-06
1.4545e-06
1.45447e-06
1.45449e-06
1.45451e-06
1.45643e-06
1.45639e-06
1.45617e-06
1.45455e-06
1.45649e-06
1.45643e-06
1.43754e-06
1.43737e-06
1.4372e-06
1.43509e-06
1.43497e-06
1.4349e-06
1.43507e-06
1.43713e-06
1.4374e-06
1.4372e-06
1.43442e-06
1.43142e-06
1.43142e-06
1.43142e-06
1.43142e-06
1.43474e-06
1.43555e-06
1.43509e-06
1.43142e-06
1.43142e-06
1.43142e-06
1.43142e-06
1.43142e-06
1.43142e-06
1.43561e-06
1.43756e-06
1.43754e-06
1.43497e-06
1.43142e-06
1.43142e-06
1.43142e-06
1.43142e-06
1.43142e-06
1.43142e-06
1.43568e-06
1.43735e-06
1.43737e-06
1.4349e-06
1.43142e-06
1.43142e-06
1.43142e-06
1.43142e-06
1.43142e-06
1.43142e-06
1.43565e-06
1.43573e-06
1.43507e-06
1.43142e-06
1.43142e-06
1.43142e-06
1.43142e-06
1.43142e-06
1.43142e-06
1.43566e-06
1.43767e-06
1.43713e-06
1.43474e-06
1.43142e-06
1.43142e-06
1.43142e-06
1.43142e-06
1.4354e-06
1.43569e-06
1.43761e-06
1.4374e-06
1.43555e-06
1.43561e-06
1.43568e-06
1.43565e-06
1.43566e-06
1.43568e-06
1.4376e-06
1.43756e-06
1.43735e-06
1.43573e-06
1.43767e-06
1.43761e-06
1.41871e-06
1.41855e-06
1.41838e-06
1.41627e-06
1.41614e-06
1.41608e-06
1.41624e-06
1.41831e-06
1.41858e-06
1.41838e-06
1.4156e-06
1.4126e-06
1.4126e-06
1.4126e-06
1.4126e-06
1.41591e-06
1.41673e-06
1.41627e-06
1.4126e-06
1.4126e-06
1.4126e-06
1.4126e-06
1.4126e-06
1.4126e-06
1.41678e-06
1.41874e-06
1.41871e-06
1.41614e-06
1.4126e-06
1.4126e-06
1.4126e-06
1.4126e-06
1.4126e-06
1.4126e-06
1.41685e-06
1.41853e-06
1.41855e-06
1.41608e-06
1.4126e-06
1.4126e-06
1.4126e-06
1.4126e-06
1.4126e-06
1.4126e-06
1.41683e-06
1.4169e-06
1.41624e-06
1.4126e-06
1.4126e-06
1.4126e-06
1.4126e-06
1.4126e-06
1.4126e-06
1.41684e-06
1.41885e-06
1.41831e-06
1.41591e-06
1.4126e-06
1.4126e-06
1.4126e-06
1.4126e-06
1.41657e-06
1.41686e-06
1.41878e-06
1.41858e-06
1.41673e-06
1.41678e-06
1.41685e-06
1.41682e-06
1.41684e-06
1.41686e-06
1.41878e-06
1.41874e-06
1.41853e-06
1.4169e-06
1.41885e-06
1.41878e-06
1.39989e-06
1.39972e-06
1.39955e-06
1.39744e-06
1.39732e-06
1.39725e-06
1.39742e-06
1.39948e-06
1.39975e-06
1.39955e-06
1.39677e-06
1.39377e-06
1.39377e-06
1.39377e-06
1.39377e-06
1.39709e-06
1.3979e-06
1.39744e-06
1.39377e-06
1.39377e-06
1.39377e-06
1.39377e-06
1.39377e-06
1.39377e-06
1.39796e-06
1.39992e-06
1.39989e-06
1.39732e-06
1.39377e-06
1.39377e-06
1.39377e-06
1.39377e-06
1.39377e-06
1.39377e-06
1.39803e-06
1.3997e-06
1.39972e-06
1.39725e-06
1.39377e-06
1.39377e-06
1.39377e-06
1.39377e-06
1.39377e-06
1.39377e-06
1.398e-06
1.39808e-06
1.39742e-06
1.39377e-06
1.39377e-06
1.39377e-06
1.39377e-06
1.39377e-06
1.39377e-06
1.39802e-06
1.40002e-06
1.39949e-06
1.39709e-06
1.39377e-06
1.39377e-06
1.39377e-06
1.39377e-06
1.39775e-06
1.39804e-06
1.39996e-06
1.39975e-06
1.3979e-06
1.39796e-06
1.39803e-06
1.398e-06
1.39802e-06
1.39804e-06
1.39996e-06
1.39992e-06
1.3997e-06
1.39808e-06
1.40002e-06
1.39996e-06
1.38106e-06
1.3809e-06
1.38073e-06
1.37862e-06
1.3785e-06
1.37843e-06
1.3786e-06
1.38066e-06
1.38093e-06
1.38073e-06
1.37795e-06
1.37495e-06
1.37495e-06
1.37495e-06
1.37495e-06
1.37826e-06
1.37908e-06
1.37862e-06
1.37495e-06
1.37495e-06
1.37495e-06
1.37495e-06
1.37495e-06
1.37495e-06
1.37913e-06
1.38109e-06
1.38106e-06
1.3785e-06
1.37495e-06
1.37495e-06
1.37495e-06
1.37495e-06
1.37495e-06
1.37495e-06
1.3792e-06
1.38088e-06
1.3809e-06
1.37843e-06
1.37495e-06
1.37495e-06
1.37495e-06
1.37495e-06
1.37495e-06
1.37495e-06
1.37918e-06
1.37925e-06
1.3786e-06
1.37495e-06
1.37495e-06
1.37495e-06
1.37495e-06
1.37495e-06
1.37495e-06
1.37919e-06
1.3812e-06
1.38066e-06
1.37826e-06
1.37495e-06
1.37495e-06
1.37495e-06
1.37495e-06
1.37892e-06
1.37921e-06
1.38114e-06
1.38093e-06
1.37908e-06
1.37913e-06
1.3792e-06
1.37918e-06
1.37919e-06
1.37921e-06
1.38113e-06
1.38109e-06
1.38088e-06
1.37925e-06
1.3812e-06
1.38113e-06
1.36224e-06
1.36207e-06
1.3619e-06
1.35979e-06
1.35967e-06
1.3596e-06
1.35977e-06
1.36184e-06
1.36211e-06
1.3619e-06
1.35912e-06
1.35612e-06
1.35612e-06
1.35612e-06
1.35612e-06
1.35944e-06
1.36025e-06
1.35979e-06
1.35612e-06
1.35612e-06
1.35612e-06
1.35612e-06
1.35612e-06
1.35612e-06
1.36031e-06
1.36227e-06
1.36224e-06
1.35967e-06
1.35612e-06
1.35612e-06
1.35612e-06
1.35612e-06
1.35612e-06
1.35612e-06
1.36038e-06
1.36206e-06
1.36207e-06
1.3596e-06
1.35612e-06
1.35612e-06
1.35612e-06
1.35612e-06
1.35612e-06
1.35612e-06
1.36035e-06
1.36043e-06
1.35977e-06
1.35612e-06
1.35612e-06
1.35612e-06
1.35612e-06
1.35612e-06
1.35612e-06
1.36037e-06
1.36237e-06
1.36184e-06
1.35944e-06
1.35612e-06
1.35612e-06
1.35612e-06
1.35612e-06
1.3601e-06
1.36039e-06
1.36231e-06
1.36211e-06
1.36025e-06
1.36031e-06
1.36038e-06
1.36035e-06
1.36037e-06
1.36039e-06
1.36231e-06
1.36227e-06
1.36206e-06
1.36043e-06
1.36237e-06
1.36231e-06
1.34342e-06
1.34325e-06
1.34308e-06
1.34097e-06
1.34085e-06
1.34078e-06
1.34095e-06
1.34301e-06
1.34328e-06
1.34308e-06
1.3403e-06
1.3373e-06
1.3373e-06
1.3373e-06
1.3373e-06
1.34062e-06
1.34143e-06
1.34097e-06
1.3373e-06
1.3373e-06
1.3373e-06
1.3373e-06
1.3373e-06
1.3373e-06
1.34149e-06
1.34344e-06
1.34342e-06
1.34085e-06
1.3373e-06
1.3373e-06
1.3373e-06
1.3373e-06
1.3373e-06
1.3373e-06
1.34156e-06
1.34323e-06
1.34325e-06
1.34078e-06
1.3373e-06
1.3373e-06
1.3373e-06
1.3373e-06
1.3373e-06
1.3373e-06
1.34153e-06
1.34161e-06
1.34095e-06
1.3373e-06
1.3373e-06
1.3373e-06
1.3373e-06
1.3373e-06
1.3373e-06
1.34154e-06
1.34355e-06
1.34301e-06
1.34062e-06
1.3373e-06
1.3373e-06
1.3373e-06
1.3373e-06
1.34128e-06
1.34156e-06
1.34349e-06
1.34328e-06
1.34143e-06
1.34148e-06
1.34155e-06
1.34153e-06
1.34154e-06
1.34156e-06
1.34348e-06
1.34344e-06
1.34323e-06
1.3416e-06
1.34355e-06
1.34349e-06
1.32459e-06
1.32442e-06
1.32425e-06
1.32214e-06
1.32202e-06
1.32195e-06
1.32212e-06
1.32419e-06
1.32446e-06
1.32425e-06
1.32147e-06
1.31847e-06
1.31847e-06
1.31847e-06
1.31847e-06
1.32179e-06
1.3226e-06
1.32214e-06
1.31847e-06
1.31847e-06
1.31847e-06
1.31847e-06
1.31847e-06
1.31847e-06
1.32266e-06
1.32462e-06
1.32459e-06
1.32202e-06
1.31847e-06
1.31847e-06
1.31847e-06
1.31847e-06
1.31847e-06
1.31847e-06
1.32273e-06
1.32441e-06
1.32442e-06
1.32195e-06
1.31847e-06
1.31847e-06
1.31847e-06
1.31847e-06
1.31847e-06
1.31847e-06
1.3227e-06
1.32278e-06
1.32212e-06
1.31847e-06
1.31847e-06
1.31847e-06
1.31847e-06
1.31847e-06
1.31847e-06
1.32272e-06
1.32473e-06
1.32419e-06
1.32179e-06
1.31847e-06
1.31847e-06
1.31847e-06
1.31847e-06
1.32245e-06
1.32274e-06
1.32466e-06
1.32446e-06
1.3226e-06
1.32266e-06
1.32273e-06
1.3227e-06
1.32272e-06
1.32274e-06
1.32466e-06
1.32462e-06
1.32441e-06
1.32278e-06
1.32472e-06
1.32466e-06
1.30577e-06
1.3056e-06
1.30543e-06
1.30332e-06
1.3032e-06
1.30313e-06
1.3033e-06
1.30536e-06
1.30563e-06
1.30543e-06
1.30265e-06
1.29965e-06
1.29965e-06
1.29965e-06
1.29965e-06
1.30297e-06
1.30378e-06
1.30332e-06
1.29965e-06
1.29965e-06
1.29965e-06
1.29965e-06
1.29965e-06
1.29965e-06
1.30384e-06
1.30579e-06
1.30577e-06
1.3032e-06
1.29965e-06
1.29965e-06
1.29965e-06
1.29965e-06
1.29965e-06
1.29965e-06
1.30391e-06
1.30558e-06
1.3056e-06
1.30313e-06
1.29965e-06
1.29965e-06
1.29965e-06
1.29965e-06
1.29965e-06
1.29965e-06
1.30388e-06
1.30396e-06
1.3033e-06
1.29965e-06
1.29965e-06
1.29965e-06
1.29965e-06
1.29965e-06
1.29965e-06
1.30389e-06
1.3059e-06
1.30536e-06
1.30297e-06
1.29965e-06
1.29965e-06
1.29965e-06
1.29965e-06
1.30363e-06
1.30392e-06
1.30584e-06
1.30563e-06
1.30378e-06
1.30384e-06
1.3039e-06
1.30388e-06
1.30389e-06
1.30391e-06
1.30583e-06
1.30579e-06
1.30558e-06
1.30396e-06
1.3059e-06
1.30584e-06
1.28694e-06
1.28678e-06
1.2866e-06
1.2845e-06
1.28437e-06
1.28431e-06
1.28447e-06
1.28654e-06
1.28681e-06
1.2866e-06
1.28383e-06
1.28082e-06
1.28082e-06
1.28082e-06
1.28082e-06
1.28414e-06
1.28495e-06
1.28449e-06
1.28082e-06
1.28082e-06
1.28082e-06
1.28082e-06
1.28082e-06
1.28082e-06
1.28501e-06
1.28697e-06
1.28694e-06
1.28437e-06
1.28082e-06
1.28082e-06
1.28082e-06
1.28082e-06
1.28082e-06
1.28082e-06
1.28508e-06
1.28676e-06
1.28678e-06
1.28431e-06
1.28082e-06
1.28082e-06
1.28082e-06
1.28082e-06
1.28082e-06
1.28082e-06
1.28505e-06
1.28513e-06
1.28447e-06
1.28082e-06
1.28082e-06
1.28082e-06
1.28082e-06
1.28082e-06
1.28082e-06
1.28507e-06
1.28708e-06
1.28654e-06
1.28414e-06
1.28082e-06
1.28082e-06
1.28082e-06
1.28082e-06
1.2848e-06
1.28509e-06
1.28701e-06
1.28681e-06
1.28496e-06
1.28501e-06
1.28508e-06
1.28505e-06
1.28507e-06
1.28509e-06
1.28701e-06
1.28697e-06
1.28676e-06
1.28513e-06
1.28708e-06
1.28701e-06
1.26812e-06
1.26795e-06
1.26778e-06
1.26567e-06
1.26555e-06
1.26548e-06
1.26565e-06
1.26771e-06
1.26798e-06
1.26778e-06
1.265e-06
1.262e-06
1.262e-06
1.262e-06
1.262e-06
1.26532e-06
1.26613e-06
1.26567e-06
1.262e-06
1.262e-06
1.262e-06
1.262e-06
1.262e-06
1.262e-06
1.26619e-06
1.26815e-06
1.26812e-06
1.26555e-06
1.262e-06
1.262e-06
1.262e-06
1.262e-06
1.262e-06
1.262e-06
1.26626e-06
1.26793e-06
1.26795e-06
1.26548e-06
1.262e-06
1.262e-06
1.262e-06
1.262e-06
1.262e-06
1.262e-06
1.26623e-06
1.26631e-06
1.26565e-06
1.262e-06
1.262e-06
1.262e-06
1.262e-06
1.262e-06
1.262e-06
1.26625e-06
1.26825e-06
1.26771e-06
1.26532e-06
1.262e-06
1.262e-06
1.262e-06
1.262e-06
1.26598e-06
1.26627e-06
1.26819e-06
1.26798e-06
1.26613e-06
1.26619e-06
1.26626e-06
1.26623e-06
1.26625e-06
1.26626e-06
1.26819e-06
1.26814e-06
1.26793e-06
1.26631e-06
1.26825e-06
1.26819e-06
1.24929e-06
1.24913e-06
1.24896e-06
1.24685e-06
1.24672e-06
1.24666e-06
1.24683e-06
1.24889e-06
1.24916e-06
1.24896e-06
1.24618e-06
1.24318e-06
1.24318e-06
1.24318e-06
1.24318e-06
1.24649e-06
1.24731e-06
1.24685e-06
1.24318e-06
1.24318e-06
1.24318e-06
1.24318e-06
1.24318e-06
1.24318e-06
1.24736e-06
1.24932e-06
1.24929e-06
1.24672e-06
1.24318e-06
1.24318e-06
1.24318e-06
1.24318e-06
1.24318e-06
1.24318e-06
1.24743e-06
1.24911e-06
1.24913e-06
1.24666e-06
1.24318e-06
1.24318e-06
1.24318e-06
1.24318e-06
1.24318e-06
1.24318e-06
1.24741e-06
1.24748e-06
1.24683e-06
1.24318e-06
1.24318e-06
1.24318e-06
1.24318e-06
1.24318e-06
1.24318e-06
1.24742e-06
1.24943e-06
1.24889e-06
1.24649e-06
1.24318e-06
1.24318e-06
1.24318e-06
1.24318e-06
1.24715e-06
1.24744e-06
1.24936e-06
1.24916e-06
1.24731e-06
1.24736e-06
1.24743e-06
1.24741e-06
1.24742e-06
1.24744e-06
1.24936e-06
1.24932e-06
1.24911e-06
1.24748e-06
1.24943e-06
1.24936e-06
1.23047e-06
1.2303e-06
1.23013e-06
1.22802e-06
1.2279e-06
1.22783e-06
1.228e-06
1.23007e-06
1.23033e-06
1.23013e-06
1.22735e-06
1.22435e-06
1.22435e-06
1.22435e-06
1.22435e-06
1.22767e-06
1.22848e-06
1.22802e-06
1.22435e-06
1.22435e-06
1.22435e-06
1.22435e-06
1.22435e-06
1.22435e-06
1.22854e-06
1.2305e-06
1.23047e-06
1.2279e-06
1.22435e-06
1.22435e-06
1.22435e-06
1.22435e-06
1.22435e-06
1.22435e-06
1.22861e-06
1.23029e-06
1.2303e-06
1.22783e-06
1.22435e-06
1.22435e-06
1.22435e-06
1.22435e-06
1.22435e-06
1.22435e-06
1.22858e-06
1.22866e-06
1.228e-06
1.22435e-06
1.22435e-06
1.22435e-06
1.22435e-06
1.22435e-06
1.22435e-06
1.2286e-06
1.2306e-06
1.23007e-06
1.22767e-06
1.22435e-06
1.22435e-06
1.22435e-06
1.22435e-06
1.22833e-06
1.22862e-06
1.23054e-06
1.23033e-06
1.22848e-06
1.22854e-06
1.22861e-06
1.22858e-06
1.2286e-06
1.22862e-06
1.23054e-06
1.2305e-06