/*--------------------------------*- C++ -*----------------------------------*\
| =========                 |                                                 |
| \\      /  F ield         | OpenFOAM: The Open Source CFD Toolbox           |
|  \\    /   O peration     | Version:  v2012                                 |
|   \\  /    A nd           | Website:  www.openfoam.com                      |
|    \\/     M anipulation  |                                                 |
\*---------------------------------------------------------------------------*/
FoamFile
{
    version     2.0;
    format      ascii;
    class       volScalarField;
    location    "1837.5";
    object      epsilon;
}
// * * * * * * * * * * * * * * * * * * * * * * * * * * * * * * * * * * * * * //

dimensions      [0 2 -3 0 0 0 0];


internalField   nonuniform List<scalar> 
171728
(
1.46508e-09
6.54309e-08
4.65772e-09
4.79027e-09
1.37828e-09
6.55075e-08
4.26184e-09
4.45777e-09
1.22971e-09
5.51754e-08
3.88015e-09
3.85036e-09
1.14749e-09
2.19463e-08
3.57497e-09
3.27697e-09
1.09285e-09
6.06158e-09
3.32791e-09
2.84376e-09
1.04991e-09
2.86732e-09
3.12335e-09
2.63736e-09
1.00478e-09
2.04825e-09
2.95579e-09
2.46397e-09
9.62383e-10
1.93818e-09
2.82059e-09
2.32432e-09
9.25007e-10
1.92096e-09
2.73465e-09
2.23185e-09
8.89583e-10
1.91668e-09
2.68205e-09
2.17343e-09
8.56542e-10
1.92906e-09
2.63942e-09
2.14085e-09
8.25014e-10
1.96244e-09
2.59399e-09
2.13034e-09
7.93137e-10
2.02891e-09
2.58445e-09
2.14931e-09
7.62154e-10
2.13951e-09
2.61783e-09
2.20701e-09
7.34165e-10
2.34923e-09
2.7869e-09
2.32962e-09
7.10497e-10
2.64244e-09
3.05591e-09
2.56405e-09
6.89379e-10
3.12623e-09
3.54231e-09
2.96269e-09
6.71318e-10
3.85161e-09
4.28304e-09
3.70067e-09
6.57955e-10
4.99214e-09
5.35715e-09
5.00739e-09
6.40971e-10
6.58656e-09
7.16599e-09
7.08559e-09
6.47146e-10
9.34507e-09
9.37244e-09
1.08157e-08
6.52452e-10
1.14064e-08
1.27945e-08
1.72275e-08
6.70728e-10
1.84154e-08
1.85866e-08
2.69834e-08
7.31273e-10
2.47999e-08
2.32412e-08
4.60401e-08
7.6711e-10
3.0244e-08
3.49847e-08
6.88927e-08
8.91799e-10
4.6742e-08
4.46705e-08
1.1658e-07
1.11115e-09
5.8274e-08
5.8132e-08
1.54802e-07
1.29758e-09
7.63653e-08
7.70541e-08
2.27599e-07
1.89164e-09
9.5934e-08
9.59409e-08
2.94296e-07
2.25605e-09
1.12558e-07
1.20164e-07
3.57656e-07
2.80237e-09
1.51018e-07
1.44264e-07
4.69696e-07
3.801e-09
1.74531e-07
1.70829e-07
4.51889e-07
4.96237e-09
1.95499e-07
2.0461e-07
5.88897e-07
6.90311e-09
2.4417e-07
2.47103e-07
6.8243e-07
9.37596e-09
2.78863e-07
2.77237e-07
6.99749e-07
1.18471e-08
3.20903e-07
3.21096e-07
7.50114e-07
1.51604e-08
3.68122e-07
3.65532e-07
8.01213e-07
2.05892e-08
4.0804e-07
4.0948e-07
8.41412e-07
2.48347e-08
4.49618e-07
4.53064e-07
8.86351e-07
3.43136e-08
5.04709e-07
5.0688e-07
9.1249e-07
4.18968e-08
5.49283e-07
5.52462e-07
9.41321e-07
5.12335e-08
6.0474e-07
5.93603e-07
9.80284e-07
5.62805e-08
6.55225e-07
6.53308e-07
1.00506e-06
7.66743e-08
6.82412e-07
7.03637e-07
1.03566e-06
1.03312e-07
7.42266e-07
7.33796e-07
1.06156e-06
1.1591e-07
7.90409e-07
7.86286e-07
1.09136e-06
1.21839e-07
8.18761e-07
8.28525e-07
1.11796e-06
1.50373e-07
8.75365e-07
8.67347e-07
1.14596e-06
1.80566e-07
8.95584e-07
9.03739e-07
1.16749e-06
2.03173e-07
9.42511e-07
9.34525e-07
1.19474e-06
2.26307e-07
9.76042e-07
9.78755e-07
1.2065e-06
2.58737e-07
9.89664e-07
9.92355e-07
1.23262e-06
2.78593e-07
1.03078e-06
1.03172e-06
1.26319e-06
3.17322e-07
1.05261e-06
1.05459e-06
1.28364e-06
3.57662e-07
1.07577e-06
1.07427e-06
1.30742e-06
3.7856e-07
1.09713e-06
1.09896e-06
1.32112e-06
4.13253e-07
1.12284e-06
1.12011e-06
1.32612e-06
4.41855e-07
1.14145e-06
1.13324e-06
1.31507e-06
4.66929e-07
1.14679e-06
1.15234e-06
1.36019e-06
5.01025e-07
1.17839e-06
1.18204e-06
1.41593e-06
5.3401e-07
1.1937e-06
1.1998e-06
1.40934e-06
5.51133e-07
1.20603e-06
1.20179e-06
1.37639e-06
5.75562e-07
1.20829e-06
1.20505e-06
1.39905e-06
6.00297e-07
1.23041e-06
1.23023e-06
1.43605e-06
6.1898e-07
1.24083e-06
1.24097e-06
1.44328e-06
6.39559e-07
1.26081e-06
1.26443e-06
1.45703e-06
6.69017e-07
1.27187e-06
1.26661e-06
1.46769e-06
6.74408e-07
1.2686e-06
1.26624e-06
1.4705e-06
6.8354e-07
1.27329e-06
1.28664e-06
1.47752e-06
7.04961e-07
1.28885e-06
1.2925e-06
1.46766e-06
7.26635e-07
1.29414e-06
1.28795e-06
1.48296e-06
7.40692e-07
1.30122e-06
1.29373e-06
1.51259e-06
7.466e-07
1.31221e-06
1.30958e-06
1.50647e-06
7.55615e-07
1.31394e-06
1.31435e-06
1.50628e-06
7.70005e-07
1.30775e-06
1.312e-06
1.50775e-06
7.76925e-07
1.30487e-06
1.31494e-06
1.51149e-06
7.83075e-07
1.32059e-06
1.31605e-06
1.52697e-06
7.94098e-07
1.32884e-06
1.3147e-06
1.52888e-06
8.01637e-07
1.3273e-06
1.32956e-06
1.52475e-06
8.08845e-07
1.32239e-06
1.33362e-06
1.52489e-06
8.06777e-07
1.30104e-06
1.30743e-06
1.50278e-06
8.01949e-07
1.31715e-06
1.30389e-06
1.5307e-06
8.18293e-07
1.35253e-06
1.34436e-06
1.57393e-06
8.27464e-07
1.31389e-06
1.32745e-06
1.50987e-06
8.05426e-07
1.27933e-06
1.28697e-06
1.47884e-06
7.97735e-07
1.32062e-06
1.30845e-06
1.56002e-06
8.23551e-07
1.34031e-06
1.33124e-06
1.55992e-06
8.2231e-07
1.29153e-06
1.29374e-06
1.48343e-06
7.95195e-07
1.27532e-06
1.2811e-06
1.50422e-06
7.98573e-07
1.30358e-06
1.31483e-06
1.54877e-06
8.05517e-07
1.30372e-06
1.30065e-06
1.51531e-06
7.91836e-07
1.26863e-06
1.25932e-06
1.47819e-06
7.86267e-07
1.27521e-06
1.26496e-06
1.50675e-06
7.86885e-07
1.27778e-06
1.27722e-06
1.50753e-06
7.62035e-07
1.19557e-06
1.22145e-06
1.43353e-06
4.84142e-09
3.54459e-09
3.63535e-09
9.8611e-09
4.0179e-09
3.60996e-09
1.37605e-09
2.91114e-09
1.40638e-09
1.32964e-09
3.32052e-08
2.34595e-09
4.69885e-09
3.48744e-09
5.01146e-09
4.86654e-09
4.78355e-09
4.53457e-09
5.92731e-09
2.82496e-09
4.33058e-09
2.6591e-09
9.24803e-09
8.85501e-09
1.72408e-08
4.85299e-09
1.31253e-08
4.54677e-09
7.67911e-09
6.59325e-08
3.74892e-09
4.6671e-09
4.23765e-09
2.58476e-08
4.36669e-09
2.0797e-08
4.59508e-09
4.48127e-09
4.01892e-09
3.94186e-09
2.59939e-09
3.19633e-09
2.43887e-09
8.61228e-09
8.88043e-09
1.12267e-08
4.43659e-09
6.4116e-09
4.1259e-09
3.23343e-09
6.10665e-08
2.54357e-09
4.20154e-09
3.83042e-09
1.78708e-08
3.96935e-09
9.6224e-09
3.90705e-09
3.97372e-09
3.49819e-09
3.04981e-09
2.384e-09
2.74917e-09
2.19688e-09
8.46057e-09
5.12347e-09
5.31601e-09
4.02802e-09
3.29434e-09
3.74789e-09
2.42907e-09
2.96195e-08
2.2115e-09
3.80091e-09
3.49716e-09
7.60645e-09
3.64413e-09
3.99925e-09
3.31172e-09
3.47013e-09
3.11486e-09
2.6751e-09
2.13699e-09
2.51361e-09
1.99068e-09
4.70956e-09
3.29256e-09
2.92541e-09
3.66137e-09
2.30087e-09
3.41645e-09
2.15367e-09
8.24739e-09
2.00888e-09
3.47228e-09
3.21732e-09
3.38154e-09
3.38705e-09
2.40184e-09
2.85828e-09
3.10026e-09
2.83726e-09
2.47431e-09
1.95249e-09
2.35433e-09
1.84963e-09
3.23595e-09
2.78634e-09
2.18305e-09
3.34029e-09
1.99246e-09
3.13912e-09
1.9722e-09
3.2575e-09
1.893e-09
3.19704e-09
2.99381e-09
2.22689e-09
3.17019e-09
1.94733e-09
2.64121e-09
2.82993e-09
2.62929e-09
2.33831e-09
1.82077e-09
2.33764e-09
1.75634e-09
2.75121e-09
2.41684e-09
1.96383e-09
3.08066e-09
1.91853e-09
2.92894e-09
1.87379e-09
2.14727e-09
1.81707e-09
2.97888e-09
2.82339e-09
1.90221e-09
2.99349e-09
1.82047e-09
2.4646e-09
2.62611e-09
2.51238e-09
2.31234e-09
1.7415e-09
2.2021e-09
1.70775e-09
2.41384e-09
2.29541e-09
1.91114e-09
2.88745e-09
1.90242e-09
2.77978e-09
1.80009e-09
1.94837e-09
1.76469e-09
2.81311e-09
2.68893e-09
1.80482e-09
2.85245e-09
1.7801e-09
2.32279e-09
2.51415e-09
2.4207e-09
2.18169e-09
1.70057e-09
2.14713e-09
1.69544e-09
2.29781e-09
2.21962e-09
1.90023e-09
2.74866e-09
1.89865e-09
2.68443e-09
1.75787e-09
1.92276e-09
1.75251e-09
2.68213e-09
2.58413e-09
1.77624e-09
2.75058e-09
1.77615e-09
2.22764e-09
2.42397e-09
2.34697e-09
2.14454e-09
1.69768e-09
2.14331e-09
1.71318e-09
2.22399e-09
2.16293e-09
1.8985e-09
2.67116e-09
1.90102e-09
2.6396e-09
1.75404e-09
1.91606e-09
1.76831e-09
2.58167e-09
2.51092e-09
1.77948e-09
2.69202e-09
1.79352e-09
2.16615e-09
2.35177e-09
2.29184e-09
2.14584e-09
1.72289e-09
2.16614e-09
1.76023e-09
2.16987e-09
2.12683e-09
1.90369e-09
2.63305e-09
1.9185e-09
2.61093e-09
1.77723e-09
1.92504e-09
1.81393e-09
2.51163e-09
2.45927e-09
1.79952e-09
2.64993e-09
1.82789e-09
2.12968e-09
2.3003e-09
2.25995e-09
2.17832e-09
1.77533e-09
2.23619e-09
1.83368e-09
2.13758e-09
2.1088e-09
1.92448e-09
2.60329e-09
1.95314e-09
2.56501e-09
1.82817e-09
1.95482e-09
1.88173e-09
2.46281e-09
2.41557e-09
1.83871e-09
2.60949e-09
1.87665e-09
2.11366e-09
2.2727e-09
2.2396e-09
2.25854e-09
1.8542e-09
2.34453e-09
1.93364e-09
2.12426e-09
2.10487e-09
1.96385e-09
2.55834e-09
2.01492e-09
2.56318e-09
1.90407e-09
2.01139e-09
1.97579e-09
2.4222e-09
2.37656e-09
1.89377e-09
2.58288e-09
1.95679e-09
2.12622e-09
2.25854e-09
2.26246e-09
2.37396e-09
1.9644e-09
2.48325e-09
2.06244e-09
2.12667e-09
2.14284e-09
2.03668e-09
2.56365e-09
2.11642e-09
2.55829e-09
2.00211e-09
2.10963e-09
2.10889e-09
2.3924e-09
2.38678e-09
1.97868e-09
2.60114e-09
2.07477e-09
2.17163e-09
2.29459e-09
2.3712e-09
2.5321e-09
2.10426e-09
2.74401e-09
2.25409e-09
2.17577e-09
2.24053e-09
2.15061e-09
2.56474e-09
2.29885e-09
2.82058e-09
2.14468e-09
2.29081e-09
2.2882e-09
2.41395e-09
2.46192e-09
2.11241e-09
2.74201e-09
2.25406e-09
2.27333e-09
2.42955e-09
2.59293e-09
2.82981e-09
2.31461e-09
3.14843e-09
2.53514e-09
2.29705e-09
2.44074e-09
2.36349e-09
2.93206e-09
2.58153e-09
3.12632e-09
2.35233e-09
2.55331e-09
2.57584e-09
2.51223e-09
2.66313e-09
2.31658e-09
2.97098e-09
2.53042e-09
2.47785e-09
2.69128e-09
2.98384e-09
3.28145e-09
2.63859e-09
3.71989e-09
3.0003e-09
2.53329e-09
2.81705e-09
2.68229e-09
3.15897e-09
2.99955e-09
3.38151e-09
2.66944e-09
2.99724e-09
3.0106e-09
2.75494e-09
3.00985e-09
2.61611e-09
3.39049e-09
2.9489e-09
2.81138e-09
3.14245e-09
3.63647e-09
3.91179e-09
3.14466e-09
4.47514e-09
3.64968e-09
2.98102e-09
3.41786e-09
3.15811e-09
3.53301e-09
3.66345e-09
4.05483e-09
3.14765e-09
3.62752e-09
3.6715e-09
3.15704e-09
3.67455e-09
3.08662e-09
4.04497e-09
3.60076e-09
3.45065e-09
3.87995e-09
4.79739e-09
4.74425e-09
3.85464e-09
5.58636e-09
4.67047e-09
3.6442e-09
4.5739e-09
3.87672e-09
4.28113e-09
4.67987e-09
5.01245e-09
3.89807e-09
4.68237e-09
4.72797e-09
3.95035e-09
4.72842e-09
3.81672e-09
5.02358e-09
4.59814e-09
4.58507e-09
5.21471e-09
6.78834e-09
5.92768e-09
5.02668e-09
7.36119e-09
6.24686e-09
5.0576e-09
6.532e-09
4.96703e-09
5.32501e-09
6.31153e-09
6.66241e-09
5.05108e-09
6.11977e-09
6.17714e-09
5.10438e-09
6.89366e-09
4.91965e-09
6.67427e-09
6.10554e-09
6.43676e-09
7.50726e-09
9.2351e-09
7.69271e-09
6.69697e-09
8.67341e-09
8.51557e-09
7.20839e-09
1.01717e-08
6.68781e-09
7.16875e-09
8.1264e-09
8.6759e-09
6.64111e-09
8.58202e-09
8.36711e-09
7.66208e-09
9.86206e-09
6.5487e-09
8.74269e-09
8.20733e-09
9.66849e-09
1.01355e-08
1.70395e-08
9.42649e-09
9.27206e-09
1.27621e-08
1.09126e-08
1.13267e-08
1.39575e-08
8.96623e-09
9.30996e-09
1.15031e-08
1.18817e-08
9.10981e-09
1.07624e-08
1.14453e-08
1.0928e-08
1.53505e-08
8.93024e-09
1.18162e-08
1.13327e-08
1.54324e-08
1.91429e-08
2.49347e-08
1.42023e-08
1.16706e-08
1.73013e-08
1.65471e-08
1.49399e-08
2.66879e-08
1.26497e-08
1.28967e-08
1.59047e-08
1.68598e-08
1.23837e-08
1.638e-08
1.58271e-08
1.71733e-08
2.67558e-08
1.23584e-08
1.69212e-08
1.56459e-08
2.44265e-08
2.70173e-08
4.04288e-08
1.79956e-08
1.84826e-08
2.29964e-08
2.36934e-08
3.25322e-08
4.77902e-08
1.68812e-08
1.84731e-08
2.21818e-08
2.19231e-08
1.70964e-08
2.3496e-08
2.27356e-08
2.98867e-08
4.01765e-08
1.68275e-08
2.1962e-08
2.21397e-08
4.13277e-08
4.52434e-08
6.29277e-08
2.47173e-08
2.51082e-08
3.02713e-08
2.80176e-08
5.00881e-08
5.55244e-08
2.40082e-08
2.32372e-08
2.98222e-08
3.18905e-08
2.455e-08
2.77556e-08
2.96333e-08
4.27709e-08
6.78686e-08
2.38918e-08
3.20259e-08
2.9574e-08
6.29946e-08
6.99862e-08
9.6304e-08
3.33292e-08
3.0368e-08
4.1396e-08
4.27422e-08
5.90395e-08
1.07552e-07
3.27894e-08
3.48367e-08
4.09151e-08
4.1855e-08
3.25408e-08
4.26058e-08
4.21784e-08
7.75859e-08
1.02445e-07
3.2578e-08
4.16871e-08
4.23018e-08
1.06868e-07
1.0022e-07
1.41542e-07
4.26921e-08
4.69196e-08
5.41634e-08
5.64075e-08
1.22476e-07
1.60495e-07
4.22678e-08
4.48974e-08
5.37817e-08
5.47009e-08
4.51857e-08
5.61004e-08
5.443e-08
1.08434e-07
1.46575e-07
4.53616e-08
5.43158e-08
5.3615e-08
1.4601e-07
1.64496e-07
2.09054e-07
6.04894e-08
5.86022e-08
7.13107e-08
7.04013e-08
1.66636e-07
2.01666e-07
6.0137e-08
5.83218e-08
7.07224e-08
7.20669e-08
5.81213e-08
7.00873e-08
7.16168e-08
1.57526e-07
2.07239e-07
5.71744e-08
7.25875e-08
7.20773e-08
2.11581e-07
2.14353e-07
2.80564e-07
7.31626e-08
7.66341e-08
9.38618e-08
9.34879e-08
2.17917e-07
2.86243e-07
7.23507e-08
7.6534e-08
9.19219e-08
9.06384e-08
7.6553e-08
9.28729e-08
9.24966e-08
2.20971e-07
2.7732e-07
7.72693e-08
8.99787e-08
9.20265e-08
2.82365e-07
3.17056e-07
3.92282e-07
1.0343e-07
9.66644e-08
1.18976e-07
1.06042e-07
2.95429e-07
3.23e-07
1.02022e-07
9.69058e-08
1.19361e-07
1.15346e-07
9.66354e-08
1.04748e-07
1.07823e-07
2.9194e-07
3.57475e-07
9.54512e-08
1.14818e-07
1.07614e-07
3.4248e-07
3.9828e-07
4.14851e-07
1.21168e-07
1.13623e-07
1.34913e-07
1.423e-07
3.37148e-07
4.46552e-07
1.21958e-07
1.20066e-07
1.35075e-07
1.37054e-07
1.17331e-07
1.43298e-07
1.48539e-07
3.73676e-07
4.28598e-07
1.1727e-07
1.37516e-07
1.46836e-07
4.5952e-07
4.27506e-07
4.98561e-07
1.42361e-07
1.49897e-07
1.65866e-07
1.6897e-07
4.70981e-07
5.14502e-07
1.42043e-07
1.44623e-07
1.62995e-07
1.64623e-07
1.52518e-07
1.68803e-07
1.54591e-07
4.42597e-07
4.91123e-07
1.50606e-07
1.65313e-07
1.53286e-07
4.48274e-07
5.15033e-07
5.63358e-07
1.7359e-07
1.75473e-07
1.95675e-07
1.91285e-07
5.2162e-07
5.46684e-07
1.70619e-07
1.7072e-07
1.95298e-07
1.94078e-07
1.55685e-07
1.88329e-07
1.8577e-07
5.05717e-07
5.6525e-07
1.54907e-07
1.93024e-07
1.89701e-07
5.45028e-07
5.77444e-07
6.37612e-07
2.03309e-07
1.97418e-07
2.3054e-07
2.2908e-07
5.6304e-07
6.39365e-07
2.03529e-07
2.05123e-07
2.29861e-07
2.39851e-07
2.09534e-07
2.31248e-07
2.6011e-07
5.82259e-07
6.46123e-07
2.12519e-07
2.3906e-07
2.57121e-07
6.77562e-07
6.54846e-07
7.01558e-07
2.43067e-07
2.41903e-07
2.76848e-07
2.73757e-07
6.53634e-07
6.89357e-07
2.40827e-07
2.47103e-07
2.74131e-07
2.67636e-07
2.66523e-07
2.72924e-07
2.7503e-07
6.60086e-07
6.90592e-07
2.62484e-07
2.68088e-07
2.71271e-07
6.91894e-07
7.1299e-07
7.42536e-07
2.84579e-07
2.80453e-07
3.08884e-07
3.07018e-07
7.02554e-07
7.46956e-07
2.83044e-07
2.77867e-07
3.09287e-07
3.08692e-07
2.78853e-07
3.0592e-07
3.02949e-07
7.01909e-07
7.43537e-07
2.76675e-07
3.09056e-07
3.05042e-07
7.34263e-07
7.53673e-07
7.88566e-07
3.19116e-07
3.21692e-07
3.52308e-07
3.62527e-07
7.60117e-07
7.95915e-07
3.188e-07
3.20661e-07
3.50414e-07
3.56995e-07
3.15347e-07
3.6085e-07
3.50028e-07
7.57267e-07
7.94211e-07
3.16883e-07
3.54998e-07
3.48718e-07
7.90901e-07
8.00059e-07
8.29341e-07
3.61489e-07
3.70135e-07
3.97666e-07
3.94326e-07
8.05733e-07
8.27244e-07
3.60304e-07
3.66796e-07
3.96408e-07
3.99671e-07
3.60826e-07
3.95733e-07
3.98316e-07
8.04735e-07
8.30491e-07
3.60256e-07
3.99262e-07
3.98841e-07
8.29876e-07
8.39588e-07
8.67614e-07
4.11911e-07
4.05328e-07
4.41339e-07
4.37982e-07
8.36305e-07
8.65197e-07
4.0875e-07
4.10389e-07
4.38134e-07
4.40593e-07
4.10003e-07
4.38595e-07
4.45975e-07
8.40143e-07
8.66508e-07
4.10733e-07
4.40283e-07
4.45125e-07
8.76379e-07
8.77506e-07
9.08914e-07
4.51834e-07
4.50381e-07
4.98315e-07
4.9207e-07
8.76885e-07
9.06131e-07
4.50446e-07
4.5221e-07
4.95944e-07
4.93813e-07
4.59844e-07
4.90642e-07
4.98962e-07
8.7639e-07
9.07478e-07
4.58003e-07
4.94739e-07
4.98566e-07
9.05545e-07
9.20338e-07
9.45483e-07
5.12826e-07
5.05932e-07
5.47843e-07
5.4023e-07
9.1425e-07
9.32759e-07
5.09169e-07
5.07663e-07
5.44155e-07
5.42636e-07
5.08501e-07
5.39376e-07
5.31838e-07
9.1799e-07
9.36999e-07
5.0965e-07
5.4065e-07
5.31795e-07
9.31806e-07
9.52268e-07
9.63386e-07
5.58999e-07
5.49664e-07
5.87502e-07
5.87755e-07
9.41552e-07
9.76911e-07
5.56374e-07
5.53825e-07
5.9345e-07
5.86454e-07
5.42727e-07
5.88603e-07
5.91751e-07
9.43179e-07
9.61134e-07
5.41181e-07
5.83494e-07
5.90524e-07
9.71166e-07
9.6869e-07
9.82877e-07
5.93763e-07
6.0375e-07
6.11789e-07
6.44399e-07
9.8656e-07
9.99384e-07
6.03814e-07
5.97093e-07
6.24087e-07
6.37905e-07
6.06622e-07
6.46222e-07
6.34791e-07
9.70624e-07
1.0058e-06
6.07601e-07
6.36278e-07
6.37018e-07
9.98273e-07
9.9158e-07
1.03467e-06
6.2431e-07
6.52957e-07
6.93054e-07
6.71216e-07
1.00343e-06
1.01536e-06
6.32585e-07
6.5419e-07
6.78499e-07
6.97419e-07
6.45669e-07
6.7402e-07
6.87511e-07
1.01507e-06
1.03272e-06
6.45602e-07
6.95463e-07
6.84337e-07
1.02758e-06
1.04693e-06
1.07197e-06
7.17966e-07
6.80677e-07
7.66169e-07
7.297e-07
1.02386e-06
1.05894e-06
6.95762e-07
7.07043e-07
7.39752e-07
7.28074e-07
6.97365e-07
7.25263e-07
7.2746e-07
1.03794e-06
1.05127e-06
6.95614e-07
7.2343e-07
7.29301e-07
1.0544e-06
1.07712e-06
1.08442e-06
7.73404e-07
7.47626e-07
7.84578e-07
7.85479e-07
1.06828e-06
1.08753e-06
7.51819e-07
7.36726e-07
7.78071e-07
7.72722e-07
7.40723e-07
7.82784e-07
7.76901e-07
1.05845e-06
1.08362e-06
7.42001e-07
7.7438e-07
7.74129e-07
1.08446e-06
1.08835e-06
1.09874e-06
7.86863e-07
7.92227e-07
7.98387e-07
8.06613e-07
1.09264e-06
1.10423e-06
7.83138e-07
7.85192e-07
8.04556e-07
8.17782e-07
7.85722e-07
8.07818e-07
8.15506e-07
1.09142e-06
1.1112e-06
7.83154e-07
8.17673e-07
8.16524e-07
1.10977e-06
1.10582e-06
1.14285e-06
8.08597e-07
8.15893e-07
8.576e-07
8.61149e-07
1.11057e-06
1.14159e-06
8.17647e-07
8.2836e-07
8.58824e-07
8.58743e-07
8.29402e-07
8.64278e-07
8.61411e-07
1.11841e-06
1.13889e-06
8.30209e-07
8.57686e-07
8.59464e-07
1.14097e-06
1.15108e-06
1.16597e-06
8.73148e-07
8.74158e-07
9.05039e-07
8.91935e-07
1.14947e-06
1.15874e-06
8.69433e-07
8.68879e-07
8.97373e-07
8.98161e-07
8.68065e-07
8.90016e-07
8.94065e-07
1.14485e-06
1.16058e-06
8.66639e-07
8.96766e-07
8.97429e-07
1.15979e-06
1.17085e-06
1.18715e-06
9.12657e-07
8.97569e-07
9.31399e-07
9.31185e-07
1.1623e-06
1.18756e-06
9.05132e-07
9.05131e-07
9.24461e-07
9.23785e-07
9.04446e-07
9.29932e-07
9.31343e-07
1.16658e-06
1.18346e-06
9.08107e-07
9.23493e-07
9.30977e-07
1.19046e-06
1.19394e-06
1.21443e-06
9.38742e-07
9.42731e-07
9.67204e-07
9.68561e-07
1.19864e-06
1.21738e-06
9.33092e-07
9.33957e-07
9.66477e-07
9.70594e-07
9.38752e-07
9.69808e-07
9.60429e-07
1.18985e-06
1.21515e-06
9.37836e-07
9.7126e-07
9.61059e-07
1.20191e-06
1.2202e-06
1.22898e-06
9.76569e-07
9.74683e-07
9.94346e-07
9.85778e-07
1.21981e-06
1.22065e-06
9.7636e-07
9.79118e-07
9.91753e-07
9.9065e-07
9.67543e-07
9.85465e-07
9.86594e-07
1.22105e-06
1.22805e-06
9.67328e-07
9.87545e-07
9.8354e-07
1.22513e-06
1.23209e-06
1.24522e-06
9.96878e-07
9.91307e-07
1.01113e-06
1.02009e-06
1.22541e-06
1.25798e-06
9.93886e-07
9.95519e-07
1.01132e-06
1.0216e-06
9.93995e-07
1.0198e-06
1.02515e-06
1.23188e-06
1.25791e-06
9.91492e-07
1.02233e-06
1.02332e-06
1.25672e-06
1.25317e-06
1.28189e-06
1.02129e-06
1.02909e-06
1.05492e-06
1.0475e-06
1.26616e-06
1.27354e-06
1.02247e-06
1.02994e-06
1.05513e-06
1.04972e-06
1.03521e-06
1.04942e-06
1.05163e-06
1.26571e-06
1.27654e-06
1.03339e-06
1.05024e-06
1.05091e-06
1.27851e-06
1.28764e-06
1.29411e-06
1.06262e-06
1.05244e-06
1.0733e-06
1.06947e-06
1.27553e-06
1.28788e-06
1.06209e-06
1.05583e-06
1.07105e-06
1.07096e-06
1.05545e-06
1.06813e-06
1.07241e-06
1.27982e-06
1.29033e-06
1.0555e-06
1.06838e-06
1.07696e-06
1.30187e-06
1.29676e-06
1.3096e-06
1.07517e-06
1.07564e-06
1.09086e-06
1.09114e-06
1.29554e-06
1.31215e-06
1.0728e-06
1.07508e-06
1.09123e-06
1.09047e-06
1.07833e-06
1.09333e-06
1.09527e-06
1.29565e-06
1.30992e-06
1.08446e-06
1.0931e-06
1.10221e-06
1.31741e-06
1.31741e-06
1.33218e-06
1.09963e-06
1.09626e-06
1.11775e-06
1.11752e-06
1.31611e-06
1.32906e-06
1.10063e-06
1.09729e-06
1.11739e-06
1.11792e-06
1.10143e-06
1.11482e-06
1.11477e-06
1.31479e-06
1.32677e-06
1.1066e-06
1.11536e-06
1.11106e-06
1.32507e-06
1.33431e-06
1.33685e-06
1.11997e-06
1.12527e-06
1.13225e-06
1.13977e-06
1.33578e-06
1.35038e-06
1.11898e-06
1.1232e-06
1.12864e-06
1.13203e-06
1.11624e-06
1.13956e-06
1.118e-06
1.33104e-06
1.33933e-06
1.11078e-06
1.13058e-06
1.11026e-06
1.31356e-06
1.34148e-06
1.35485e-06
1.13698e-06
1.14126e-06
1.14547e-06
1.14385e-06
1.35292e-06
1.35217e-06
1.13359e-06
1.13406e-06
1.14636e-06
1.14822e-06
1.11966e-06
1.14397e-06
1.14314e-06
1.34302e-06
1.3562e-06
1.11157e-06
1.14533e-06
1.13467e-06
1.34512e-06
1.3598e-06
1.37997e-06
1.15005e-06
1.14729e-06
1.17405e-06
1.17068e-06
1.35633e-06
1.37779e-06
1.15174e-06
1.15576e-06
1.17475e-06
1.17595e-06
1.15714e-06
1.17163e-06
1.19287e-06
1.36326e-06
1.38392e-06
1.14964e-06
1.17576e-06
1.19653e-06
1.40967e-06
1.3861e-06
1.39243e-06
1.18126e-06
1.17612e-06
1.19008e-06
1.18495e-06
1.38291e-06
1.3887e-06
1.18169e-06
1.17995e-06
1.19094e-06
1.18867e-06
1.19794e-06
1.18978e-06
1.19905e-06
1.38869e-06
1.39515e-06
1.20508e-06
1.19651e-06
1.20958e-06
1.41016e-06
1.3939e-06
1.39367e-06
1.19046e-06
1.18942e-06
1.19551e-06
1.20534e-06
1.39236e-06
1.40329e-06
1.19142e-06
1.19292e-06
1.1949e-06
1.20387e-06
1.19507e-06
1.20446e-06
1.18476e-06
1.39817e-06
1.40066e-06
1.20638e-06
1.20223e-06
1.18459e-06
1.37583e-06
1.39781e-06
1.41107e-06
1.20117e-06
1.20849e-06
1.21386e-06
1.21111e-06
1.40627e-06
1.40555e-06
1.1995e-06
1.20514e-06
1.2118e-06
1.20701e-06
1.1846e-06
1.20733e-06
1.20002e-06
1.40219e-06
1.40157e-06
1.18195e-06
1.20205e-06
1.18759e-06
1.38866e-06
1.41545e-06
1.42677e-06
1.21678e-06
1.2117e-06
1.22958e-06
1.22348e-06
1.40801e-06
1.42019e-06
1.21537e-06
1.20952e-06
1.22974e-06
1.22752e-06
1.2106e-06
1.22414e-06
1.23529e-06
1.40588e-06
1.42307e-06
1.19808e-06
1.22608e-06
1.23023e-06
1.43102e-06
1.43077e-06
1.43205e-06
1.23363e-06
1.22928e-06
1.23815e-06
1.23725e-06
1.42546e-06
1.43244e-06
1.23377e-06
1.23168e-06
1.23793e-06
1.23591e-06
1.23871e-06
1.2386e-06
1.2417e-06
1.42731e-06
1.43125e-06
1.23717e-06
1.23619e-06
1.24608e-06
1.44068e-06
1.43342e-06
1.44405e-06
1.23843e-06
1.239e-06
1.2467e-06
1.25486e-06
1.43559e-06
1.4533e-06
1.2382e-06
1.23748e-06
1.24678e-06
1.25522e-06
1.24221e-06
1.25482e-06
1.24937e-06
1.43509e-06
1.45433e-06
1.24779e-06
1.26021e-06
1.25706e-06
1.45204e-06
1.45339e-06
1.47511e-06
1.25715e-06
1.26165e-06
1.27717e-06
1.27243e-06
1.4601e-06
1.46946e-06
1.25699e-06
1.26153e-06
1.27529e-06
1.26851e-06
1.25485e-06
1.27147e-06
1.27007e-06
1.45975e-06
1.4623e-06
1.26088e-06
1.26736e-06
1.26739e-06
1.46564e-06
1.47685e-06
1.45872e-06
1.27779e-06
1.2726e-06
1.26942e-06
1.2683e-06
1.47071e-06
1.45846e-06
1.27567e-06
1.26834e-06
1.26846e-06
1.2667e-06
1.27251e-06
1.26919e-06
1.27509e-06
1.46331e-06
1.45788e-06
1.26791e-06
1.26528e-06
1.27031e-06
1.46757e-06
1.45913e-06
1.45596e-06
1.2663e-06
1.26733e-06
1.26447e-06
1.2683e-06
1.45946e-06
1.46142e-06
1.26668e-06
1.26728e-06
1.26721e-06
1.28131e-06
1.27647e-06
1.27006e-06
1.27966e-06
1.46089e-06
1.47763e-06
1.27295e-06
1.28138e-06
1.28111e-06
1.4758e-06
1.46005e-06
1.47781e-06
1.26583e-06
1.27131e-06
1.28054e-06
1.28501e-06
1.46604e-06
1.48056e-06
1.27043e-06
1.28638e-06
1.2857e-06
1.29279e-06
1.27961e-06
1.28573e-06
1.27654e-06
1.48343e-06
1.48946e-06
1.28184e-06
1.29277e-06
1.27982e-06
1.46679e-06
1.48414e-06
1.49884e-06
1.28733e-06
1.28923e-06
1.30379e-06
1.29686e-06
1.48495e-06
1.49076e-06
1.29056e-06
1.2927e-06
1.30006e-06
1.28915e-06
1.27619e-06
1.29329e-06
1.2822e-06
1.49048e-06
1.48119e-06
1.279e-06
1.28825e-06
1.28173e-06
1.47397e-06
1.50239e-06
1.5014e-06
1.3062e-06
1.29827e-06
1.30694e-06
1.3017e-06
1.49333e-06
1.49606e-06
1.30135e-06
1.28867e-06
1.30167e-06
1.2898e-06
1.29161e-06
1.29872e-06
1.31016e-06
1.4825e-06
1.48448e-06
1.28895e-06
1.29089e-06
1.30798e-06
1.50964e-06
1.50247e-06
1.497e-06
1.30563e-06
1.30279e-06
1.30258e-06
1.30611e-06
1.49863e-06
1.50412e-06
1.30111e-06
1.29205e-06
1.30098e-06
1.30457e-06
1.3113e-06
1.30994e-06
1.30889e-06
1.48778e-06
1.50051e-06
1.30944e-06
1.30578e-06
1.30796e-06
1.50537e-06
1.4991e-06
1.50502e-06
1.3025e-06
1.30736e-06
1.30571e-06
1.31158e-06
1.50765e-06
1.5116e-06
1.30191e-06
1.30929e-06
1.31006e-06
1.31655e-06
1.30807e-06
1.31416e-06
1.30819e-06
1.50594e-06
1.51408e-06
1.30742e-06
1.31435e-06
1.30774e-06
1.50428e-06
1.50842e-06
1.51159e-06
1.30868e-06
1.31237e-06
1.31453e-06
1.31216e-06
1.51335e-06
1.50611e-06
1.31243e-06
1.31673e-06
1.31478e-06
1.3141e-06
1.30909e-06
1.30961e-06
1.30999e-06
1.51588e-06
1.5104e-06
1.30849e-06
1.31233e-06
1.3102e-06
1.50613e-06
1.51328e-06
1.5088e-06
1.31476e-06
1.31074e-06
1.31264e-06
1.30665e-06
1.50696e-06
1.49944e-06
1.31466e-06
1.3129e-06
1.31178e-06
1.31094e-06
1.30978e-06
1.30475e-06
1.30962e-06
1.51166e-06
1.51005e-06
1.31038e-06
1.31346e-06
1.31218e-06
1.50813e-06
1.5101e-06
1.51309e-06
1.31194e-06
1.30649e-06
1.31325e-06
1.31364e-06
1.50123e-06
1.51461e-06
1.31121e-06
1.31088e-06
1.31252e-06
1.31365e-06
1.31109e-06
1.31543e-06
1.32207e-06
1.51228e-06
1.51361e-06
1.31395e-06
1.31625e-06
1.32143e-06
1.52305e-06
1.517e-06
1.52228e-06
1.31635e-06
1.31908e-06
1.32239e-06
1.32775e-06
1.52105e-06
1.53151e-06
1.31537e-06
1.31473e-06
1.32067e-06
1.31533e-06
1.32455e-06
1.32849e-06
1.326e-06
1.51538e-06
1.51243e-06
1.32332e-06
1.3146e-06
1.32455e-06
1.52783e-06
1.52415e-06
1.52492e-06
1.32281e-06
1.32817e-06
1.32342e-06
1.32771e-06
1.53367e-06
1.53161e-06
1.32101e-06
1.31542e-06
1.32193e-06
1.32438e-06
1.32495e-06
1.32767e-06
1.32176e-06
1.5142e-06
1.52783e-06
1.32391e-06
1.32458e-06
1.32188e-06
1.52309e-06
1.52837e-06
1.53386e-06
1.3251e-06
1.32764e-06
1.32857e-06
1.32648e-06
1.53327e-06
1.52825e-06
1.32415e-06
1.33013e-06
1.32916e-06
1.33633e-06
1.32177e-06
1.32535e-06
1.32224e-06
1.53524e-06
1.54442e-06
1.32192e-06
1.3343e-06
1.32196e-06
1.52404e-06
1.53514e-06
1.5157e-06
1.32829e-06
1.32419e-06
1.31662e-06
1.30512e-06
1.5285e-06
1.4962e-06
1.32906e-06
1.33582e-06
1.31957e-06
1.31783e-06
1.3216e-06
1.30389e-06
1.30868e-06
1.54532e-06
1.51227e-06
1.32103e-06
1.31461e-06
1.30771e-06
1.50237e-06
1.51556e-06
1.50628e-06
1.31136e-06
1.30176e-06
1.30577e-06
1.30401e-06
1.49652e-06
1.50977e-06
1.31396e-06
1.30987e-06
1.30555e-06
1.30095e-06
1.30577e-06
1.30468e-06
1.30895e-06
1.51088e-06
1.49862e-06
1.305e-06
1.30151e-06
1.30824e-06
1.51634e-06
1.51069e-06
1.54424e-06
1.30681e-06
1.31448e-06
1.33265e-06
1.34916e-06
1.52416e-06
1.57291e-06
1.30581e-06
1.30194e-06
1.3269e-06
1.33167e-06
1.32074e-06
1.35092e-06
1.34841e-06
1.50432e-06
1.55164e-06
1.31989e-06
1.3383e-06
1.34857e-06
1.57167e-06
1.5523e-06
1.54975e-06
1.33947e-06
1.35143e-06
1.34135e-06
1.33629e-06
1.57659e-06
1.5334e-06
1.33536e-06
1.33968e-06
1.34032e-06
1.34101e-06
1.3489e-06
1.33273e-06
1.32115e-06
1.55958e-06
1.54632e-06
1.34928e-06
1.3407e-06
1.32337e-06
1.51596e-06
1.54826e-06
1.49796e-06
1.33554e-06
1.3189e-06
1.29785e-06
1.28323e-06
1.52713e-06
1.47407e-06
1.3366e-06
1.33274e-06
1.30172e-06
1.29664e-06
1.30421e-06
1.28045e-06
1.28239e-06
1.54271e-06
1.49055e-06
1.30659e-06
1.29074e-06
1.28403e-06
1.47424e-06
1.49716e-06
1.49434e-06
1.2898e-06
1.28079e-06
1.28619e-06
1.29486e-06
1.47521e-06
1.51725e-06
1.29325e-06
1.29095e-06
1.28798e-06
1.29133e-06
1.28299e-06
1.30369e-06
1.32064e-06
1.49085e-06
1.5059e-06
1.28443e-06
1.29469e-06
1.3185e-06
1.54539e-06
1.50321e-06
1.55442e-06
1.29173e-06
1.31134e-06
1.33206e-06
1.3383e-06
1.53432e-06
1.56595e-06
1.29172e-06
1.29994e-06
1.32879e-06
1.32862e-06
1.33413e-06
1.3411e-06
1.34204e-06
1.51842e-06
1.55239e-06
1.33087e-06
1.33108e-06
1.33768e-06
1.56346e-06
1.5607e-06
1.53539e-06
1.33698e-06
1.33872e-06
1.32741e-06
1.3139e-06
1.56707e-06
1.51334e-06
1.33413e-06
1.33058e-06
1.32659e-06
1.31613e-06
1.33634e-06
1.30533e-06
1.28882e-06
1.55499e-06
1.51587e-06
1.33178e-06
1.30617e-06
1.28689e-06
1.48454e-06
1.5306e-06
1.48606e-06
1.31084e-06
1.29921e-06
1.27859e-06
1.27576e-06
1.50946e-06
1.48219e-06
1.31071e-06
1.30199e-06
1.27898e-06
1.27981e-06
1.28004e-06
1.27488e-06
1.2779e-06
1.51228e-06
1.48693e-06
1.2794e-06
1.27984e-06
1.27943e-06
1.49141e-06
1.48771e-06
1.51473e-06
1.27702e-06
1.27535e-06
1.29001e-06
1.29167e-06
1.48582e-06
1.51755e-06
1.27751e-06
1.27979e-06
1.29175e-06
1.30191e-06
1.28573e-06
1.29657e-06
1.31121e-06
1.49144e-06
1.53428e-06
1.28924e-06
1.30922e-06
1.31625e-06
1.54502e-06
1.52341e-06
1.52591e-06
1.29757e-06
1.29989e-06
1.30347e-06
1.30649e-06
1.52616e-06
1.53014e-06
1.29944e-06
1.3094e-06
1.30452e-06
1.31106e-06
1.313e-06
1.30718e-06
1.30222e-06
1.54244e-06
1.53322e-06
1.31777e-06
1.31207e-06
1.30352e-06
1.51904e-06
1.52572e-06
1.48902e-06
1.30146e-06
1.30453e-06
1.27589e-06
1.27567e-06
1.53012e-06
1.48858e-06
1.30164e-06
1.30401e-06
1.27461e-06
1.26826e-06
1.29111e-06
1.27378e-06
1.26774e-06
1.53015e-06
1.47658e-06
1.29006e-06
1.26385e-06
1.26312e-06
1.47689e-06
1.4892e-06
1.49096e-06
1.27033e-06
1.26934e-06
1.26769e-06
1.26727e-06
1.48853e-06
1.49174e-06
1.26947e-06
1.26266e-06
1.26719e-06
1.2601e-06
1.26639e-06
1.26895e-06
1.27409e-06
1.47672e-06
1.47961e-06
1.26169e-06
1.25942e-06
1.27035e-06
1.49893e-06
1.49749e-06
1.50468e-06
1.27176e-06
1.27288e-06
1.27745e-06
1.2801e-06
1.50015e-06
1.5102e-06
1.27077e-06
1.26356e-06
1.27473e-06
1.27433e-06
1.27911e-06
1.2802e-06
1.28012e-06
1.48605e-06
1.50221e-06
1.2764e-06
1.27576e-06
1.2793e-06
1.50783e-06
1.50526e-06
1.46602e-06
1.27626e-06
1.27857e-06
1.23988e-06
1.23647e-06
1.51035e-06
1.45669e-06
1.27379e-06
1.27671e-06
1.24375e-06
1.26018e-06
1.27628e-06
1.23342e-06
1.23027e-06
1.50591e-06
1.49473e-06
1.27684e-06
1.25844e-06
1.23671e-06
1.455e-06
1.44582e-06
1.20209e-06
1.19813e-06
1.43573e-06
1.20625e-06
1.22342e-06
7.5776e-07
7.74667e-07
7.56333e-07
1.19208e-06
1.47536e-06
1.19766e-06
2.9566e-11
2.4105e-09
1.85402e-10
1.50339e-10
4.75832e-09
4.49658e-08
5.18713e-08
1.39101e-09
5.31684e-09
3.75288e-09
1.06934e-09
9.78245e-09
5.00028e-09
6.09985e-08
3.47059e-08
7.39623e-09
1.96983e-07
5.94316e-09
3.01484e-07
1.47962e-06
2.94745e-06
8.67389e-09
2.30292e-07
7.26793e-09
3.5477e-07
3.22587e-09
1.44658e-09
1.46607e-09
1.42419e-09
3.08728e-09
1.43468e-09
1.4209e-09
4.35007e-09
1.83604e-07
1.72477e-08
6.59008e-08
4.50691e-09
1.62761e-07
1.64751e-08
1.55257e-06
3.0952e-06
4.63316e-09
3.53771e-09
8.98534e-08
4.57902e-09
4.86974e-09
3.49257e-09
6.67668e-08
2.44693e-07
2.40734e-07
4.73744e-09
2.23774e-07
2.09858e-07
1.67381e-08
5.53135e-07
1.20069e-08
7.95138e-07
6.72787e-06
9.76621e-06
1.7938e-08
6.55559e-07
1.32345e-08
9.26154e-07
2.95464e-09
1.41785e-09
1.35956e-09
1.26007e-09
2.54879e-09
1.37052e-09