/*--------------------------------*- C++ -*----------------------------------*\
| =========                 |                                                 |
| \\      /  F ield         | OpenFOAM: The Open Source CFD Toolbox           |
|  \\    /   O peration     | Version:  v2012                                 |
|   \\  /    A nd           | Website:  www.openfoam.com                      |
|    \\/     M anipulation  |                                                 |
\*---------------------------------------------------------------------------*/
FoamFile
{
    version     2.0;
    format      ascii;
    class       volScalarField;
    location    "1837.5";
    object      k;
}
// * * * * * * * * * * * * * * * * * * * * * * * * * * * * * * * * * * * * * //

dimensions      [0 2 -2 0 0 0 0];


internalField   nonuniform List<scalar> 
171728
(
1.63256e-07
1.57269e-06
2.83219e-07
3.25377e-07
1.60794e-07
1.67318e-06
2.71179e-07
3.3584e-07
1.51055e-07
1.71385e-06
2.58978e-07
3.3693e-07
1.39057e-07
1.44869e-06
2.48854e-07
2.77585e-07
1.34192e-07
5.42667e-07
2.41827e-07
2.39136e-07
1.3207e-07
2.11903e-07
2.37838e-07
2.16859e-07
1.30741e-07
1.64753e-07
2.33511e-07
2.02542e-07
1.291e-07
1.62279e-07
2.32994e-07
1.91378e-07
1.27229e-07
1.6729e-07
2.37475e-07
1.86474e-07
1.24926e-07
1.72646e-07
2.49541e-07
1.85491e-07
1.22383e-07
1.76386e-07
2.56811e-07
1.86314e-07
1.19904e-07
1.76771e-07
2.54569e-07
1.87723e-07
1.17559e-07
1.72263e-07
2.35335e-07
1.88626e-07
1.1543e-07
1.68557e-07
2.18679e-07
1.879e-07
1.1315e-07
1.68552e-07
2.11632e-07
1.86716e-07
1.10301e-07
1.71825e-07
2.10651e-07
1.87931e-07
1.08271e-07
1.80521e-07
2.16961e-07
1.93421e-07
1.06513e-07
1.97373e-07
2.31284e-07
2.10276e-07
1.04661e-07
2.26426e-07
2.61048e-07
2.45948e-07
1.01423e-07
2.74106e-07
3.13109e-07
3.12744e-07
9.74629e-08
3.55237e-07
3.80008e-07
4.27923e-07
9.57951e-08
4.50891e-07
4.86825e-07
6.50782e-07
9.5565e-08
6.23389e-07
6.6539e-07
1.00518e-06
9.51342e-08
9.2703e-07
8.93984e-07
1.61809e-06
9.5902e-08
1.08681e-06
1.24196e-06
2.47845e-06
9.94601e-08
1.62909e-06
1.63181e-06
4.01875e-06
1.02402e-07
2.24922e-06
2.10203e-06
5.61033e-06
1.16178e-07
2.65544e-06
2.83917e-06
7.65646e-06
1.29417e-07
3.70098e-06
3.47209e-06
1.03988e-05
1.67592e-07
4.05209e-06
4.53869e-06
1.22669e-05
1.76235e-07
5.63353e-06
5.36861e-06
1.60267e-05
2.25558e-07
6.66328e-06
6.54668e-06
1.64681e-05
2.901e-07
7.42365e-06
7.43921e-06
1.69102e-05
3.64864e-07
8.87082e-06
9.45267e-06
2.37799e-05
5.4555e-07
1.09188e-05
1.05179e-05
2.37595e-05
6.56025e-07
1.16865e-05
1.20218e-05
2.43707e-05
8.59441e-07
1.43084e-05
1.38735e-05
2.65596e-05
1.08059e-06
1.53764e-05
1.56014e-05
2.78273e-05
1.40688e-06
1.70302e-05
1.70332e-05
2.94418e-05
1.82286e-06
1.88774e-05
1.91666e-05
3.06752e-05
2.32106e-06
2.09266e-05
2.08692e-05
3.14314e-05
2.86087e-06
2.248e-05
2.25162e-05
3.28374e-05
3.204e-06
2.50153e-05
2.42099e-05
3.40481e-05
3.6298e-06
2.5994e-05
2.68745e-05
3.50393e-05
5.60081e-06
2.74386e-05
2.77492e-05
3.60924e-05
6.77009e-06
3.00537e-05
2.9492e-05
3.72844e-05
6.97593e-06
3.08799e-05
3.12084e-05
3.81477e-05
7.59366e-06
3.29317e-05
3.27777e-05
3.96257e-05
9.62907e-06
3.42249e-05
3.43591e-05
4.0193e-05
1.12043e-05
3.53607e-05
3.51454e-05
4.1505e-05
1.20047e-05
3.71496e-05
3.7165e-05
4.20538e-05
1.37368e-05
3.80886e-05
3.815e-05
4.26734e-05
1.49378e-05
3.89201e-05
3.91189e-05
4.39965e-05
1.61047e-05
4.052e-05
4.05885e-05
4.51723e-05
1.88357e-05
4.1389e-05
4.14568e-05
4.59642e-05
2.00698e-05
4.24422e-05
4.23194e-05
4.67464e-05
2.13563e-05
4.33329e-05
4.34669e-05
4.72341e-05
2.29382e-05
4.48105e-05
4.43248e-05
4.69657e-05
2.4221e-05
4.5151e-05
4.47914e-05
4.71864e-05
2.54513e-05
4.60678e-05
4.64049e-05
5.04701e-05
2.77654e-05
4.71901e-05
4.76707e-05
5.13352e-05
2.86563e-05
4.79898e-05
4.80519e-05
5.0005e-05
2.96948e-05
4.83118e-05
4.8002e-05
4.95967e-05
3.08968e-05
4.87598e-05
4.89308e-05
5.16941e-05
3.23589e-05
4.9896e-05
4.97266e-05
5.25529e-05
3.3092e-05
5.06223e-05
5.09392e-05
5.28288e-05
3.49527e-05
5.17416e-05
5.16349e-05
5.36185e-05
3.58973e-05
5.19145e-05
5.16125e-05
5.38257e-05
3.62374e-05
5.18939e-05
5.22072e-05
5.42063e-05
3.69297e-05
5.2544e-05
5.32005e-05
5.41959e-05
3.82658e-05
5.33536e-05
5.32656e-05
5.39995e-05
3.97655e-05
5.37833e-05
5.33013e-05
5.57802e-05
4.06265e-05
5.44048e-05
5.40462e-05
5.61094e-05
4.07664e-05
5.49168e-05
5.48923e-05
5.59515e-05
4.15521e-05
5.49631e-05
5.5056e-05
5.60731e-05
4.24108e-05
5.4776e-05
5.51825e-05
5.62151e-05
4.27505e-05
5.51293e-05
5.55356e-05
5.68971e-05
4.34339e-05
5.62775e-05
5.56072e-05
5.74425e-05
4.41962e-05
5.6623e-05
5.6115e-05
5.73787e-05
4.4886e-05
5.66247e-05
5.69838e-05
5.73956e-05
4.52329e-05
5.58435e-05
5.66858e-05
5.69723e-05
4.49622e-05
5.56234e-05
5.58262e-05
5.66813e-05
4.5108e-05
5.81411e-05
5.7187e-05
5.94406e-05
4.69162e-05
5.84957e-05
5.81882e-05
5.89972e-05
4.68153e-05
5.56683e-05
5.63322e-05
5.60845e-05
4.55266e-05
5.56064e-05
5.58578e-05
5.76926e-05
4.60751e-05
5.85731e-05
5.79548e-05
6.01292e-05
4.77583e-05
5.82784e-05
5.79396e-05
5.77911e-05
4.69031e-05
5.59758e-05
5.62427e-05
5.64235e-05
4.62057e-05
5.6435e-05
5.72207e-05
5.89935e-05
4.69838e-05
5.76983e-05
5.81535e-05
5.93425e-05
4.71026e-05
5.6921e-05
5.63982e-05
5.70454e-05
4.6475e-05
5.62673e-05
5.56219e-05
5.7207e-05
4.66238e-05
5.6905e-05
5.66001e-05
5.83607e-05
4.64393e-05
5.52596e-05
5.62077e-05
5.71704e-05
3.28762e-07
3.01974e-07
2.33754e-07
4.64507e-07
3.68699e-07
2.95226e-07
1.56788e-07
1.86238e-07
1.53524e-07
1.48913e-07
1.11069e-06
2.07543e-07
3.3243e-07
2.5348e-07
4.22897e-07
3.27966e-07
3.27473e-07
3.39893e-07
5.19923e-07
1.92108e-07
4.44846e-07
1.86318e-07
4.49816e-07
4.274e-07
9.54725e-07
3.27341e-07
9.41969e-07
3.1226e-07
5.20498e-07
1.64866e-06
3.01094e-07
3.31267e-07
3.12633e-07
1.20976e-06
2.7435e-07
1.20431e-06
3.38232e-07
3.37562e-07
3.37049e-07
4.07154e-07
1.84223e-07
3.03802e-07
1.77574e-07
4.19588e-07
4.2027e-07
9.37047e-07
3.0685e-07
8.69234e-07
2.91242e-07
2.62278e-07
1.70102e-06
2.05337e-07
3.11207e-07
2.92894e-07
1.20098e-06
2.62027e-07
1.13536e-06
3.4242e-07
3.29448e-07
2.95289e-07
2.75891e-07
1.75488e-07
2.21184e-07
1.69402e-07
4.13947e-07
4.20551e-07
7.85792e-07
2.86266e-07
4.94682e-07
2.71561e-07
1.95907e-07
1.65789e-06
1.77146e-07
2.91481e-07
2.74701e-07
1.0264e-06
2.5131e-07
6.22236e-07
2.81293e-07
2.91889e-07
2.55503e-07
2.10509e-07
1.6646e-07
1.88957e-07
1.57216e-07
4.06771e-07
2.7674e-07
4.0555e-07
2.66764e-07
2.31375e-07
2.53728e-07
1.72602e-07
7.14357e-07
1.61667e-07
2.72913e-07
2.55789e-07
4.99821e-07
2.43322e-07
2.60092e-07
2.41989e-07
2.53481e-07
2.31065e-07
1.84136e-07
1.54707e-07
1.74972e-07
1.49169e-07
2.70693e-07
2.32063e-07
2.02372e-07
2.49469e-07
1.62813e-07
2.38756e-07
1.58804e-07
2.51942e-07
1.5235e-07
2.53191e-07
2.39924e-07
2.19379e-07
2.38437e-07
1.62454e-07
2.17494e-07
2.30064e-07
2.14297e-07
1.72284e-07
1.47804e-07
1.68911e-07
1.43802e-07
2.27593e-07
1.97466e-07
1.58182e-07
2.35932e-07
1.53637e-07
2.27324e-07
1.50911e-07
1.68129e-07
1.48262e-07
2.37778e-07
2.29315e-07
1.55399e-07
2.34654e-07
1.45606e-07
2.03068e-07
2.13906e-07
2.07215e-07
1.68712e-07
1.42699e-07
1.65297e-07
1.40102e-07
1.9722e-07
1.92387e-07
1.53516e-07
2.24879e-07
1.54935e-07
2.223e-07
1.47545e-07
1.62165e-07
1.45007e-07
2.27949e-07
2.22581e-07
1.44134e-07
2.32856e-07
1.42902e-07
1.91559e-07
2.07365e-07
2.05101e-07
1.63899e-07
1.39453e-07
1.6107e-07
1.39065e-07
1.92538e-07
1.91252e-07
1.56635e-07
2.22325e-07
1.61427e-07
2.23615e-07
1.4405e-07
1.65913e-07
1.42575e-07
2.21704e-07
2.18446e-07
1.42926e-07
2.35052e-07
1.44256e-07
1.86258e-07
2.0547e-07
2.04736e-07
1.60454e-07
1.39147e-07
1.5934e-07
1.40111e-07
1.91855e-07
1.92559e-07
1.62984e-07
2.25667e-07
1.67437e-07
2.38169e-07
1.42566e-07
1.71392e-07
1.42926e-07
2.18317e-07
2.20909e-07
1.45631e-07
2.46646e-07
1.50108e-07
1.84912e-07
2.05366e-07
2.05267e-07
1.59308e-07
1.40675e-07
1.59012e-07
1.43708e-07
1.93396e-07
1.94729e-07
1.68785e-07
2.42047e-07
1.72114e-07
2.50437e-07
1.434e-07
1.75728e-07
1.47103e-07
2.2135e-07
2.28119e-07
1.51594e-07
2.55838e-07
1.55746e-07
1.85544e-07
2.05956e-07
2.03921e-07
1.58956e-07
1.45004e-07
1.59266e-07
1.49712e-07
1.9558e-07
1.95831e-07
1.72876e-07
2.51772e-07
1.7392e-07
2.52194e-07
1.48654e-07
1.77005e-07
1.53782e-07
2.28952e-07
2.32273e-07
1.56951e-07
2.56772e-07
1.59611e-07
1.8694e-07
2.04261e-07
1.98062e-07
1.59494e-07
1.51367e-07
1.61417e-07
1.55729e-07
1.96435e-07
1.93444e-07
1.73903e-07
2.50254e-07
1.71993e-07
2.34831e-07
1.55499e-07
1.73311e-07
1.60196e-07
2.32245e-07
2.247e-07
1.60143e-07
2.39832e-07
1.61095e-07
1.87931e-07
1.98079e-07
1.91143e-07
1.6204e-07
1.56984e-07
1.65125e-07
1.59712e-07
1.93614e-07
1.87557e-07
1.71117e-07
2.3117e-07
1.68962e-07
2.16562e-07
1.61353e-07
1.69294e-07
1.64126e-07
2.2402e-07
2.14166e-07
1.61208e-07
2.22122e-07
1.61454e-07
1.87276e-07
1.91494e-07
1.90937e-07
1.67375e-07
1.60251e-07
1.7938e-07
1.61877e-07
1.8785e-07
1.84295e-07
1.68333e-07
2.12101e-07
1.68373e-07
2.0943e-07
1.64817e-07
1.68256e-07
1.66226e-07
2.1388e-07
2.08349e-07
1.61742e-07
2.12389e-07
1.62678e-07
1.8586e-07
1.92327e-07
1.96864e-07
1.85501e-07
1.62538e-07
2.08335e-07
1.65566e-07
1.85104e-07
1.84618e-07
1.68857e-07
2.10492e-07
1.71937e-07
2.19053e-07
1.66871e-07
1.71042e-07
1.70123e-07
2.08776e-07
2.07744e-07
1.63145e-07
2.10329e-07
1.65315e-07
1.86276e-07
1.99556e-07
2.08574e-07
2.17646e-07
1.6714e-07
2.4707e-07
1.7535e-07
1.86272e-07
1.90111e-07
1.7336e-07
2.20238e-07
1.79749e-07
2.20292e-07
1.71823e-07
1.78309e-07
1.7838e-07
2.09092e-07
2.12158e-07
1.66469e-07
2.14049e-07
1.71232e-07
1.9041e-07
2.12996e-07
2.28228e-07
2.56786e-07
1.78615e-07
2.88277e-07
1.91635e-07
1.93639e-07
2.04695e-07
1.81853e-07
2.20757e-07
1.96012e-07
2.28995e-07
1.81409e-07
1.92268e-07
1.93218e-07
2.15196e-07
2.25137e-07
1.73452e-07
2.26773e-07
1.83838e-07
2.03696e-07
2.35327e-07
2.59374e-07
2.96325e-07
1.97096e-07
3.27964e-07
2.15159e-07
2.11238e-07
2.29032e-07
1.99566e-07
2.33075e-07
2.22541e-07
2.55483e-07
1.99656e-07
2.16683e-07
2.19745e-07
2.31287e-07
2.58294e-07
1.89164e-07
2.53891e-07
2.09473e-07
2.33553e-07
2.72918e-07
3.134e-07
3.37508e-07
2.24719e-07
3.64644e-07
2.62784e-07
2.41689e-07
2.98588e-07
2.30972e-07
2.61594e-07
2.61738e-07
2.92385e-07
2.29478e-07
2.61339e-07
2.63034e-07
2.69309e-07
3.08293e-07
2.18361e-07
2.94163e-07
2.51883e-07
2.92873e-07
3.35079e-07
4.15091e-07
3.75608e-07
2.76886e-07
4.05829e-07
3.26825e-07
3.17327e-07
4.08194e-07
2.80216e-07
3.11072e-07
3.22216e-07
3.59628e-07
2.78359e-07
3.27557e-07
3.25933e-07
3.36217e-07
4.24196e-07
2.68017e-07
3.61073e-07
3.15193e-07
3.92745e-07
4.3303e-07
6.05491e-07
4.10316e-07
3.51911e-07
4.72532e-07
4.3325e-07
4.51791e-07
5.94155e-07
3.36502e-07
3.78065e-07
4.27191e-07
4.51988e-07
3.49604e-07
4.3542e-07
4.3326e-07
4.48036e-07
6.1199e-07
3.38729e-07
4.5775e-07
4.18549e-07
5.92877e-07
7.06447e-07
9.94736e-07
5.21609e-07
4.49222e-07
6.88637e-07
5.50954e-07
6.23934e-07
7.77759e-07
4.59696e-07
4.84677e-07
5.96804e-07
6.08409e-07
4.60048e-07
5.34304e-07
5.79332e-07
6.58454e-07
9.77732e-07
4.46168e-07
6.07335e-07
5.74592e-07
9.25098e-07
1.05007e-06
1.41714e-06
7.10862e-07
6.34007e-07
8.35467e-07
8.63317e-07
9.37512e-07
1.92621e-06
6.24118e-07
6.62117e-07
7.86675e-07
8.53628e-07
6.1749e-07
8.64998e-07
7.96591e-07
1.09147e-06
1.58873e-06
6.08387e-07
8.63268e-07
7.7736e-07
1.44834e-06
1.58361e-06
2.25942e-06
9.10792e-07
9.30924e-07
1.08037e-06
1.07631e-06
2.05269e-06
2.22396e-06
8.67607e-07
8.84611e-07
1.0527e-06
1.0816e-06
8.85717e-07
1.06145e-06
1.07112e-06
1.69934e-06
2.12309e-06
8.57967e-07
1.07516e-06
1.04807e-06
2.32814e-06
2.4113e-06
3.70139e-06
1.16318e-06
1.09965e-06
1.56369e-06
1.44433e-06
2.27653e-06
3.16803e-06
1.13572e-06
1.23526e-06
1.54179e-06
1.54159e-06
1.13351e-06
1.44515e-06
1.51356e-06
2.45921e-06
3.92466e-06
1.12775e-06
1.54701e-06
1.50732e-06
3.6045e-06
3.92004e-06
4.19105e-06
1.65454e-06
1.62962e-06
1.80084e-06
2.14095e-06
3.76647e-06
6.06773e-06
1.63681e-06
1.63258e-06
1.776e-06
2.01199e-06
1.64536e-06
2.12723e-06
1.98698e-06
4.09338e-06
5.09097e-06
1.64802e-06
1.99241e-06
1.98364e-06
5.39621e-06
4.60218e-06
8.01652e-06
2.00131e-06
2.25154e-06
2.7681e-06
2.48345e-06
6.35022e-06
6.9922e-06
1.97614e-06
2.12272e-06
2.75364e-06
2.60095e-06
2.10449e-06
2.46659e-06
2.59351e-06
5.48796e-06
7.15976e-06
2.07531e-06
2.61921e-06
2.56901e-06
7.10009e-06
8.21762e-06
8.4405e-06
2.86953e-06
2.67211e-06
3.11511e-06
3.48449e-06
7.27854e-06
1.00863e-05
2.85011e-06
2.81929e-06
3.05171e-06
3.29288e-06
2.78207e-06
3.47287e-06
3.37813e-06
7.59876e-06
9.63211e-06
2.78809e-06
3.31318e-06
3.4075e-06
9.97307e-06
9.01923e-06
1.42219e-05
3.50025e-06
3.71823e-06
4.69717e-06
4.0273e-06
1.0675e-05
1.14333e-05
3.38428e-06
3.48773e-06
4.67961e-06
4.3241e-06
3.60911e-06
3.99045e-06
4.08266e-06
1.00842e-05
1.21247e-05
3.62126e-06
4.27586e-06
4.01025e-06
1.18972e-05
1.45718e-05
1.46425e-05
4.8681e-06
4.09148e-06
5.04386e-06
5.1333e-06
1.15997e-05
1.40749e-05
4.87718e-06
4.58685e-06
5.08321e-06
5.06409e-06
4.1729e-06
5.13364e-06
5.44403e-06
1.26962e-05
1.4628e-05
4.11066e-06
5.1514e-06
5.42476e-06
1.49044e-05
1.47519e-05
1.64626e-05
5.18684e-06
5.58524e-06
6.16688e-06
6.40427e-06
1.51359e-05
1.78764e-05
5.2281e-06
5.3193e-06
6.1136e-06
6.24318e-06
5.89854e-06
6.42725e-06
6.27282e-06
1.50485e-05
1.65655e-05
5.8461e-06
6.24374e-06
6.20246e-06
1.65343e-05
1.71037e-05
1.88378e-05
6.47782e-06
6.63487e-06
7.39523e-06
7.46747e-06
1.8129e-05
1.85183e-05
6.3563e-06
6.49885e-06
7.31255e-06
7.17988e-06
6.27667e-06
7.33459e-06
6.35298e-06
1.69814e-05
1.86398e-05
6.20798e-06
7.11961e-06
6.33151e-06
1.60685e-05
1.92366e-05
2.08385e-05
7.68992e-06
7.58973e-06
8.53134e-06
8.2885e-06
1.8726e-05
2.07608e-05
7.65674e-06
7.48259e-06
8.5986e-06
8.99817e-06
6.59758e-06
8.32364e-06
9.84559e-06
1.91212e-05
2.12413e-05
6.66922e-06
8.96517e-06
9.87313e-06
2.33169e-05
2.13793e-05
2.32965e-05
8.89062e-06
8.76817e-06
1.05281e-05
1.04634e-05
2.14342e-05
2.29947e-05
8.9202e-06
9.5244e-06
1.03585e-05
1.01727e-05
1.0532e-05
1.05281e-05
1.12235e-05
2.18554e-05
2.31011e-05
1.04418e-05
1.02622e-05
1.10124e-05
2.36934e-05
2.37381e-05
2.47266e-05
1.09498e-05
1.09172e-05
1.17795e-05
1.14879e-05
2.33686e-05
2.45344e-05
1.07974e-05
1.04524e-05
1.18155e-05
1.16225e-05
1.12643e-05
1.14119e-05
1.13701e-05
2.33729e-05
2.44365e-05
1.10465e-05
1.15879e-05
1.12736e-05
2.401e-05
2.50205e-05
2.60274e-05
1.20624e-05
1.17554e-05
1.33584e-05
1.38217e-05
2.49286e-05
2.65007e-05
1.21314e-05
1.19889e-05
1.32835e-05
1.35302e-05
1.1559e-05
1.37919e-05
1.32108e-05
2.48748e-05
2.63283e-05
1.17072e-05
1.34704e-05
1.31683e-05
2.6213e-05
2.64099e-05
2.74854e-05
1.377e-05
1.43629e-05
1.47747e-05
1.50334e-05
2.69106e-05
2.76026e-05
1.36815e-05
1.39776e-05
1.48369e-05
1.51304e-05
1.36005e-05
1.49543e-05
1.49846e-05
2.67111e-05
2.76474e-05
1.35317e-05
1.51456e-05
1.4985e-05
2.74938e-05
2.78074e-05
2.88477e-05
1.53469e-05
1.53593e-05
1.68866e-05
1.65562e-05
2.78432e-05
2.86487e-05
1.53967e-05
1.55892e-05
1.66486e-05
1.67194e-05
1.55042e-05
1.67146e-05
1.67791e-05
2.79416e-05
2.88094e-05
1.55294e-05
1.66619e-05
1.68283e-05
2.90668e-05
2.91509e-05
3.01339e-05
1.71244e-05
1.6938e-05
1.85118e-05
1.83933e-05
2.89716e-05
3.02151e-05
1.69277e-05
1.7074e-05
1.85469e-05
1.84596e-05
1.72395e-05
1.83142e-05
1.89428e-05
2.91112e-05
3.01223e-05
1.72404e-05
1.86061e-05
1.88028e-05
3.04238e-05
3.05203e-05
3.17966e-05
1.92078e-05
1.89566e-05
2.07796e-05
2.06047e-05
3.05558e-05
3.13544e-05
1.91916e-05
1.90477e-05
2.06132e-05
2.05514e-05
1.94644e-05
2.05348e-05
2.03417e-05
3.05033e-05
3.15566e-05
1.93679e-05
2.04438e-05
2.05327e-05
3.12176e-05
3.20566e-05
3.26444e-05
2.11991e-05
2.09876e-05
2.24299e-05
2.19379e-05
3.15779e-05
3.25254e-05
2.10259e-05
2.0963e-05
2.24579e-05
2.22398e-05
2.05097e-05
2.1951e-05
2.19048e-05
3.17782e-05
3.23225e-05
2.06575e-05
2.2195e-05
2.16549e-05
3.24391e-05
3.28261e-05
3.31505e-05
2.27462e-05
2.24427e-05
2.3185e-05
2.43619e-05
3.2946e-05
3.40727e-05
2.29671e-05
2.26167e-05
2.39621e-05
2.37389e-05
2.26753e-05
2.44563e-05
2.42057e-05
3.25407e-05
3.36535e-05
2.24888e-05
2.35989e-05
2.44673e-05
3.38675e-05
3.33016e-05
3.44296e-05
2.3263e-05
2.48931e-05
2.47759e-05
2.57694e-05
3.42649e-05
3.45304e-05
2.40638e-05
2.42989e-05
2.4997e-05
2.63243e-05
2.43991e-05
2.59086e-05
2.58334e-05
3.40472e-05
3.52754e-05
2.46636e-05
2.63055e-05
2.56409e-05
3.47181e-05
3.49485e-05
3.68063e-05
2.59602e-05
2.58634e-05
2.91808e-05
2.6778e-05
3.46579e-05
3.56051e-05
2.57074e-05
2.69276e-05
2.78098e-05
2.791e-05
2.64144e-05
2.67859e-05
2.73825e-05
3.55064e-05
3.59177e-05
2.62063e-05
2.76616e-05
2.73965e-05
3.59009e-05
3.70759e-05
3.74803e-05
2.98267e-05
2.75742e-05
3.05505e-05
2.97771e-05
3.60166e-05
3.73392e-05
2.8395e-05
2.80025e-05
2.97645e-05
2.88774e-05
2.77574e-05
2.95108e-05
2.92825e-05
3.60468e-05
3.68085e-05
2.78428e-05
2.89041e-05
2.92645e-05
3.70059e-05
3.75693e-05
3.76742e-05
3.06023e-05
3.02513e-05
3.06617e-05
3.08957e-05
3.75571e-05
3.79479e-05
3.00595e-05
2.93908e-05
3.03916e-05
3.07874e-05
2.97348e-05
3.08035e-05
3.05891e-05
3.71397e-05
3.80759e-05
2.96326e-05
3.07982e-05
3.05424e-05
3.79398e-05
3.77722e-05
3.88921e-05
3.06628e-05
3.09461e-05
3.13775e-05
3.18508e-05
3.80621e-05
3.89652e-05
3.05248e-05
3.12025e-05
3.21713e-05
3.24337e-05
3.09866e-05
3.21995e-05
3.2678e-05
3.82914e-05
3.92359e-05
3.10166e-05
3.24474e-05
3.2643e-05
3.93872e-05
3.93526e-05
4.04685e-05
3.23155e-05
3.26531e-05
3.43049e-05
3.41497e-05
3.94022e-05
4.0319e-05
3.27244e-05
3.27979e-05
3.39922e-05
3.3992e-05
3.30379e-05
3.41367e-05
3.37655e-05
3.94625e-05
4.01327e-05
3.29399e-05
3.39394e-05
3.37859e-05
4.00352e-05
4.06425e-05
4.11595e-05
3.47497e-05
3.42811e-05
3.56232e-05
3.49107e-05
4.04001e-05
4.06942e-05
3.43993e-05
3.44072e-05
3.52288e-05
3.50411e-05
3.41223e-05
3.47763e-05
3.52896e-05
4.03337e-05
4.09384e-05
3.42534e-05
3.49642e-05
3.54064e-05
4.12881e-05
4.13263e-05
4.21312e-05
3.57998e-05
3.54745e-05
3.65998e-05
3.67768e-05
4.10344e-05
4.24721e-05
3.53949e-05
3.51924e-05
3.64156e-05
3.65062e-05
3.56056e-05
3.67932e-05
3.64606e-05
4.10857e-05
4.21028e-05
3.56267e-05
3.65988e-05
3.64859e-05
4.19222e-05
4.23907e-05
4.3096e-05
3.70026e-05
3.71214e-05
3.81195e-05
3.7875e-05
4.26465e-05
4.2862e-05
3.69204e-05
3.70855e-05
3.80938e-05
3.81578e-05
3.67728e-05
3.79865e-05
3.75815e-05
4.2439e-05
4.30941e-05
3.68578e-05
3.80943e-05
3.74552e-05
4.25007e-05
4.3194e-05
4.33665e-05
3.83439e-05
3.79634e-05
3.8587e-05
3.86561e-05
4.29149e-05
4.34445e-05
3.826e-05
3.82349e-05
3.84594e-05
3.86927e-05
3.77621e-05
3.84481e-05
3.86568e-05
4.31534e-05
4.35763e-05
3.75743e-05
3.85835e-05
3.8519e-05
4.36916e-05
4.35014e-05
4.47506e-05
3.86984e-05
3.90577e-05
4.00001e-05
4.00879e-05
4.38145e-05
4.48945e-05
3.86383e-05
3.91396e-05
4.00966e-05
4.01795e-05
3.91882e-05
4.02299e-05
4.05551e-05
4.39301e-05
4.49269e-05
3.90557e-05
4.02983e-05
4.04883e-05
4.50163e-05
4.50873e-05
4.58322e-05
4.05462e-05
4.03766e-05
4.16845e-05
4.11887e-05
4.50009e-05
4.52508e-05
4.06153e-05
4.04892e-05
4.16501e-05
4.13802e-05
4.07736e-05
4.11411e-05
4.13719e-05
4.50582e-05
4.54561e-05
4.07403e-05
4.12687e-05
4.14761e-05
4.57354e-05
4.59111e-05
4.59972e-05
4.18734e-05
4.14505e-05
4.20705e-05
4.21374e-05
4.53983e-05
4.62384e-05
4.17985e-05
4.15835e-05
4.19598e-05
4.19962e-05
4.16483e-05
4.22408e-05
4.23552e-05
4.55879e-05
4.60856e-05
4.1816e-05
4.20774e-05
4.27338e-05
4.66261e-05
4.61296e-05
4.72985e-05
4.21692e-05
4.23116e-05
4.33809e-05
4.30654e-05
4.63992e-05
4.69226e-05
4.21174e-05
4.21818e-05
4.3433e-05
4.31459e-05
4.25679e-05
4.29974e-05
4.3352e-05
4.62483e-05
4.6971e-05
4.29808e-05
4.3157e-05
4.35095e-05
4.7149e-05
4.74553e-05
4.75283e-05
4.36859e-05
4.34653e-05
4.41118e-05
4.46234e-05
4.71218e-05
4.81083e-05
4.37139e-05
4.35145e-05
4.40197e-05
4.43416e-05
4.35698e-05
4.4529e-05
4.38595e-05
4.71553e-05
4.76466e-05
4.35686e-05
4.41838e-05
4.35681e-05
4.6976e-05
4.75889e-05
4.81574e-05
4.43309e-05
4.48617e-05
4.48312e-05
4.50987e-05
4.82615e-05
4.83509e-05
4.41696e-05
4.44755e-05
4.4746e-05
4.46713e-05
4.3895e-05
4.51356e-05
4.39967e-05
4.77449e-05
4.80456e-05
4.35634e-05
4.46154e-05
4.35895e-05
4.68983e-05
4.83014e-05
4.9071e-05
4.49116e-05
4.51105e-05
4.57736e-05
4.56271e-05
4.83699e-05
4.89704e-05
4.49221e-05
4.48662e-05
4.58587e-05
4.61135e-05
4.41632e-05
4.55273e-05
4.63751e-05
4.82177e-05
4.94031e-05
4.37001e-05
4.59348e-05
4.61002e-05
4.99636e-05
4.93496e-05
5.01274e-05
4.62415e-05
4.61192e-05
4.72472e-05
4.68345e-05
4.92755e-05
4.98412e-05
4.62987e-05
4.65231e-05
4.72838e-05
4.71398e-05
4.70931e-05
4.70333e-05
4.8101e-05
4.96555e-05
5.01531e-05
4.70637e-05
4.74399e-05
4.85869e-05
5.13188e-05
5.0193e-05
5.01659e-05
4.73637e-05
4.69248e-05
4.7444e-05
4.76284e-05
4.99069e-05
5.04516e-05
4.74181e-05
4.72249e-05
4.75232e-05
4.77963e-05
4.81369e-05
4.77922e-05
4.76528e-05
5.02313e-05
5.05287e-05
4.86731e-05
4.80397e-05
4.82256e-05
5.01295e-05
5.01997e-05
5.07382e-05
4.75002e-05
4.79326e-05
4.82296e-05
4.84629e-05
5.06296e-05
5.08561e-05
4.75576e-05
4.79838e-05
4.81086e-05
4.81963e-05
4.74341e-05
4.82893e-05
4.7263e-05
5.05945e-05
5.05798e-05
4.76963e-05
4.8009e-05
4.71192e-05
4.94815e-05
5.08967e-05
5.14875e-05
4.83984e-05
4.85085e-05
4.89367e-05
4.85986e-05
5.08796e-05
5.1077e-05
4.82801e-05
4.82101e-05
4.89269e-05
4.86363e-05
4.73127e-05
4.84573e-05
4.88031e-05
5.06003e-05
5.12306e-05
4.71114e-05
4.84315e-05
4.8043e-05
5.13066e-05
5.16748e-05
5.2156e-05
4.92181e-05
4.87617e-05
4.99129e-05
4.97074e-05
5.12726e-05
5.20329e-05
4.92293e-05
4.90426e-05
4.99194e-05
4.97544e-05
4.92967e-05
4.97633e-05
5.01362e-05
5.14908e-05
5.19569e-05
4.8787e-05
4.96089e-05
5.01915e-05
5.24773e-05
5.22012e-05
5.22139e-05
5.00051e-05
4.98222e-05
5.01052e-05
5.02818e-05
5.21008e-05
5.25245e-05
5.00076e-05
4.9818e-05
5.01022e-05
5.02105e-05
5.02645e-05
5.03582e-05
5.0421e-05
5.20066e-05
5.26322e-05
5.04145e-05
5.05778e-05
5.08318e-05
5.27248e-05
5.23102e-05
5.37416e-05
5.02038e-05
5.05901e-05
5.15663e-05
5.15943e-05
5.27595e-05
5.3701e-05
5.01988e-05
5.05931e-05
5.15301e-05
5.15304e-05
5.04871e-05
5.15334e-05
5.12729e-05
5.28969e-05
5.3561e-05
5.09907e-05
5.15855e-05
5.14696e-05
5.3493e-05
5.39494e-05
5.39152e-05
5.19048e-05
5.17922e-05
5.2126e-05
5.1916e-05
5.38114e-05
5.36997e-05
5.18351e-05
5.16491e-05
5.20135e-05
5.16888e-05
5.15635e-05
5.19187e-05
5.20419e-05
5.35983e-05
5.345e-05
5.15711e-05
5.16176e-05
5.17502e-05
5.37869e-05
5.38639e-05
5.33854e-05
5.2073e-05
5.18889e-05
5.17434e-05
5.18132e-05
5.36819e-05
5.34817e-05
5.19562e-05
5.16829e-05
5.18139e-05
5.19257e-05
5.21036e-05
5.18906e-05
5.23506e-05
5.34579e-05
5.38234e-05
5.18251e-05
5.19004e-05
5.22527e-05
5.41183e-05
5.33949e-05
5.38016e-05
5.17246e-05
5.18138e-05
5.17982e-05
5.21219e-05
5.35128e-05
5.41036e-05
5.18134e-05
5.22237e-05
5.20968e-05
5.30237e-05
5.24115e-05
5.22559e-05
5.24391e-05
5.40379e-05
5.48581e-05
5.24062e-05
5.30518e-05
5.26047e-05
5.42131e-05
5.40222e-05
5.51253e-05
5.20038e-05
5.24404e-05
5.33212e-05
5.32839e-05
5.4316e-05
5.498e-05
5.24439e-05
5.31876e-05
5.3384e-05
5.33195e-05
5.24163e-05
5.3209e-05
5.24153e-05
5.49521e-05
5.48549e-05
5.26048e-05
5.3278e-05
5.25846e-05
5.39687e-05
5.53201e-05
5.5735e-05
5.36917e-05
5.34869e-05
5.43114e-05
5.39197e-05
5.50814e-05
5.53374e-05
5.36172e-05
5.33165e-05
5.4037e-05
5.33177e-05
5.24766e-05
5.36732e-05
5.37723e-05
5.48542e-05
5.47846e-05
5.26011e-05
5.32711e-05
5.36245e-05
5.55132e-05
5.57669e-05
5.56062e-05
5.43737e-05
5.40199e-05
5.43565e-05
5.42235e-05
5.53961e-05
5.56058e-05
5.40934e-05
5.33319e-05
5.41372e-05
5.36505e-05
5.41616e-05
5.42296e-05
5.46354e-05
5.48206e-05
5.52277e-05
5.40276e-05
5.37869e-05
5.45407e-05
5.61162e-05
5.56079e-05
5.56974e-05
5.43016e-05
5.42871e-05
5.4266e-05
5.45568e-05
5.57041e-05
5.61566e-05
5.41435e-05
5.39176e-05
5.4294e-05
5.47698e-05
5.46571e-05
5.48412e-05
5.46636e-05
5.54152e-05
5.62314e-05
5.45739e-05
5.47521e-05
5.46186e-05
5.59422e-05
5.57991e-05
5.62718e-05
5.42837e-05
5.46838e-05
5.48212e-05
5.49646e-05
5.62378e-05
5.62931e-05
5.4488e-05
5.49649e-05
5.50044e-05
5.51854e-05
5.46644e-05
5.4973e-05
5.47386e-05
5.6342e-05
5.64124e-05
5.46268e-05
5.50498e-05
5.47233e-05
5.6019e-05
5.63459e-05
5.64209e-05
5.49913e-05
5.49894e-05
5.52049e-05
5.49474e-05
5.62901e-05
5.60206e-05
5.50996e-05
5.51887e-05
5.52007e-05
5.51518e-05
5.47884e-05
5.47999e-05
5.48456e-05
5.64162e-05
5.63608e-05
5.47916e-05
5.5102e-05
5.49633e-05
5.61746e-05
5.64286e-05
5.6412e-05
5.52121e-05
5.49119e-05
5.52186e-05
5.49248e-05
5.602e-05
5.61564e-05
5.52004e-05
5.51463e-05
5.51964e-05
5.51896e-05
5.48906e-05
5.48633e-05
5.54035e-05
5.63906e-05
5.65807e-05
5.505e-05
5.54764e-05
5.54865e-05
5.67347e-05
5.64827e-05
5.70177e-05
5.52594e-05
5.50482e-05
5.58074e-05
5.59918e-05
5.63432e-05
5.73337e-05
5.52267e-05
5.52943e-05
5.57326e-05
5.55701e-05
5.56526e-05
5.60694e-05
5.62058e-05
5.66387e-05
5.67293e-05
5.56754e-05
5.55974e-05
5.61182e-05
5.73984e-05
5.71114e-05
5.72391e-05
5.59694e-05
5.62077e-05
5.61657e-05
5.65457e-05
5.74686e-05
5.76888e-05
5.58861e-05
5.56068e-05
5.60727e-05
5.58108e-05
5.6284e-05
5.65916e-05
5.63239e-05
5.67435e-05
5.69278e-05
5.61962e-05
5.58146e-05
5.62839e-05
5.7375e-05
5.72723e-05
5.7746e-05
5.62448e-05
5.66001e-05
5.66355e-05
5.66506e-05
5.77163e-05
5.77412e-05
5.61472e-05
5.6081e-05
5.66435e-05
5.69693e-05
5.6319e-05
5.66362e-05
5.63258e-05
5.71277e-05
5.81632e-05
5.63049e-05
5.68966e-05
5.63463e-05
5.73749e-05
5.78173e-05
5.76715e-05
5.67009e-05
5.66476e-05
5.66938e-05
5.62345e-05
5.7753e-05
5.69418e-05
5.67494e-05
5.70902e-05
5.67896e-05
5.70929e-05
5.63277e-05
5.6092e-05
5.62117e-05
5.82442e-05
5.79394e-05
5.63471e-05
5.69395e-05
5.61842e-05
5.70707e-05
5.75894e-05
5.69467e-05
5.65716e-05
5.59473e-05
5.60395e-05
5.56252e-05
5.67907e-05
5.63399e-05
5.67256e-05
5.69112e-05
5.61301e-05
5.59274e-05
5.60384e-05
5.55904e-05
5.58419e-05
5.77561e-05
5.66572e-05
5.60069e-05
5.58726e-05
5.58124e-05
5.66238e-05
5.69387e-05
5.76491e-05
5.60042e-05
5.56426e-05
5.63633e-05
5.73095e-05
5.63957e-05
5.9019e-05
5.60559e-05
5.58348e-05
5.61808e-05
5.60611e-05
5.58782e-05
5.75117e-05
5.76346e-05
5.66317e-05
5.76927e-05
5.5847e-05
5.63912e-05
5.75927e-05
5.91654e-05
5.80157e-05
5.91177e-05
5.70174e-05
5.79953e-05
5.80704e-05
5.85644e-05
5.93793e-05
5.97952e-05
5.66234e-05
5.67155e-05
5.79209e-05
5.80223e-05
5.81224e-05
5.85957e-05
5.83728e-05
5.81489e-05
5.93105e-05
5.81079e-05
5.8185e-05
5.84024e-05
5.93998e-05
5.91366e-05
5.79681e-05
5.8104e-05
5.85056e-05
5.74554e-05
5.64795e-05
5.95488e-05
5.66257e-05
5.79924e-05
5.80635e-05
5.76092e-05
5.72963e-05
5.81454e-05
5.61984e-05
5.58518e-05
5.93114e-05
5.75077e-05
5.82081e-05
5.69227e-05
5.59857e-05
5.6223e-05
5.76836e-05
5.67153e-05
5.67886e-05
5.58773e-05
5.58352e-05
5.54302e-05
5.63706e-05
5.62327e-05
5.70026e-05
5.66849e-05
5.60067e-05
5.59653e-05
5.5537e-05
5.53814e-05
5.56102e-05
5.72334e-05
5.66424e-05
5.5655e-05
5.58109e-05
5.56828e-05
5.70662e-05
5.67188e-05
5.83113e-05
5.58142e-05
5.55249e-05
5.68075e-05
5.77762e-05
5.66437e-05
5.95233e-05
5.59716e-05
5.59682e-05
5.66904e-05
5.71486e-05
5.6307e-05
5.8179e-05
5.86095e-05
5.67566e-05
5.87885e-05
5.62936e-05
5.75397e-05
5.84058e-05
6.00565e-05
5.87433e-05
5.96243e-05
5.76305e-05
5.83113e-05
5.84906e-05
5.86176e-05
5.9752e-05
5.9439e-05
5.74748e-05
5.77059e-05
5.83505e-05
5.81507e-05
5.87779e-05
5.86585e-05
5.82304e-05
5.9045e-05
5.91562e-05
5.85563e-05
5.81478e-05
5.79654e-05
5.82876e-05
5.95937e-05
5.74813e-05
5.84748e-05
5.84633e-05
5.69944e-05
5.65016e-05
5.91074e-05
5.69083e-05
5.83406e-05
5.80889e-05
5.69893e-05
5.66546e-05
5.72825e-05
5.62135e-05
5.58683e-05
5.89168e-05
5.71269e-05
5.70812e-05
5.63915e-05
5.58848e-05
5.6392e-05
5.72815e-05
5.72347e-05
5.65018e-05
5.61455e-05
5.61812e-05
5.59982e-05
5.68116e-05
5.72388e-05
5.65247e-05
5.63752e-05
5.62397e-05
5.63579e-05
5.58326e-05
5.60133e-05
5.68569e-05
5.70497e-05
5.78207e-05
5.58714e-05
5.65433e-05
5.71545e-05
5.86494e-05
5.75184e-05
5.86709e-05
5.62881e-05
5.61894e-05
5.73236e-05
5.74678e-05
5.75698e-05
5.88188e-05
5.63732e-05
5.67524e-05
5.74199e-05
5.78968e-05
5.74563e-05
5.76156e-05
5.80046e-05
5.82299e-05
5.93718e-05
5.77586e-05
5.81406e-05
5.82597e-05
5.94758e-05
5.87111e-05
5.79639e-05
5.74276e-05
5.75964e-05
5.72635e-05
5.74519e-05
5.8875e-05
5.81541e-05
5.75063e-05
5.79434e-05
5.72511e-05
5.72672e-05
5.79815e-05
5.73995e-05
5.67391e-05
5.93871e-05
5.77009e-05
5.8218e-05
5.70371e-05
5.66043e-05
5.72322e-05
5.77778e-05
5.71667e-05
5.68955e-05
5.70372e-05
5.62518e-05
5.62487e-05
5.79274e-05
5.71482e-05
5.68386e-05
5.66504e-05
5.61983e-05
5.57687e-05
5.63553e-05
5.62594e-05
5.60725e-05
5.73947e-05
5.65947e-05
5.61447e-05
5.56215e-05
5.5799e-05
5.69409e-05
5.72031e-05
5.80367e-05
5.62491e-05
5.62417e-05
5.66983e-05
5.67633e-05
5.71701e-05
5.81988e-05
5.61967e-05
5.57524e-05
5.66084e-05
5.6152e-05
5.61729e-05
5.68237e-05
5.69236e-05
5.66392e-05
5.76119e-05
5.58869e-05
5.62633e-05
5.6839e-05
5.83195e-05
5.81025e-05
5.76043e-05
5.68055e-05
5.688e-05
5.66011e-05
5.65967e-05
5.82724e-05
5.75137e-05
5.67227e-05
5.64701e-05
5.6629e-05
5.71278e-05
5.69739e-05
5.64863e-05
5.64112e-05
5.77894e-05
5.83237e-05
5.69411e-05
5.71111e-05
5.66576e-05
5.74419e-05
5.7452e-05
5.54726e-05
5.53881e-05
5.72481e-05
5.55695e-05
5.62345e-05
4.62985e-05
4.69844e-05
4.63297e-05
5.51397e-05
5.83234e-05
5.54207e-05
2.29313e-08
2.27937e-07
4.59605e-08
4.06781e-08
2.6645e-07
1.2656e-06
1.14095e-06
1.3144e-07
2.71614e-07
2.5494e-07
1.37174e-07
3.94103e-07
3.32008e-07
8.12531e-07
9.28041e-07
3.03247e-07
5.60216e-06
2.63295e-07
7.33243e-06
1.32252e-05
2.05012e-05
3.56768e-07
6.21448e-06
3.20302e-07
8.16834e-06
1.97823e-07
1.56225e-07
1.56352e-07
1.62757e-07
1.99347e-07
1.55628e-07
1.55106e-07
2.53066e-07
2.08948e-06
5.85177e-07
1.59051e-06
2.56026e-07
2.10018e-06
5.7379e-07
1.36159e-05
2.1178e-05
2.51742e-07
2.58775e-07
7.32985e-07
2.80787e-07
2.57186e-07
2.57889e-07
7.01872e-07
2.11826e-06
2.10669e-06
3.28674e-07
2.19835e-06
2.09309e-06
4.9325e-07
1.09795e-05
4.10787e-07
1.39883e-05
3.55157e-05
4.55369e-05
5.49516e-07
1.22854e-05
4.64655e-07
1.54847e-05
1.92931e-07
1.54494e-07
1.53194e-07
1.54398e-07