/*--------------------------------*- C++ -*----------------------------------*\
| =========                 |                                                 |
| \\      /  F ield         | OpenFOAM: The Open Source CFD Toolbox           |
|  \\    /   O peration     | Version:  v2012                                 |
|   \\  /    A nd           | Website:  www.openfoam.com                      |
|    \\/     M anipulation  |                                                 |
\*---------------------------------------------------------------------------*/
FoamFile
{
    version     2.0;
    format      ascii;
    class       volScalarField;
    location    "1837.5";
    object      p;
}
// * * * * * * * * * * * * * * * * * * * * * * * * * * * * * * * * * * * * * //

dimensions      [0 2 -2 0 0 0 0];


internalField   nonuniform List<scalar> 
171728
(
0.00352007
0.00351912
0.003519
0.00351988
0.00348423
0.00348309
0.00348284
0.00348579
0.00344533
0.00344335
0.00344358
0.0034457
0.00340098
0.00340008
0.00339936
0.00340143
0.00335273
0.00335181
0.00335126
0.00335348
0.00330384
0.00330246
0.00330246
0.00330485
0.00325556
0.00325398
0.00325438
0.00325674
0.00320835
0.00320728
0.00320727
0.00320963
0.00316204
0.00316113
0.00316112
0.00316346
0.00311668
0.00311592
0.0031159
0.00311825
0.00307223
0.00307156
0.00307154
0.00307394
0.00302854
0.00302793
0.00302793
0.00303036
0.00298543
0.00298495
0.00298489
0.00298733
0.00294269
0.00294235
0.00294241
0.00294469
0.00290037
0.00290016
0.00290018
0.00290235
0.0028583
0.00285807
0.0028581
0.0028604
0.00281658
0.00281632
0.00281649
0.00281868
0.00277522
0.00277511
0.0027751
0.00277731
0.00273421
0.00273419
0.00273403
0.0027363
0.00269346
0.00269343
0.00269362
0.00269551
0.00265317
0.00265319
0.00265338
0.00265509
0.00261332
0.00261338
0.0026135
0.00261506
0.00257351
0.00257407
0.00257371
0.0025753
0.00253397
0.00253428
0.00253422
0.00253595
0.00249487
0.00249502
0.00249536
0.00249669
0.00245587
0.00245645
0.00245623
0.00245822
0.00241719
0.00241761
0.0024176
0.0024191
0.00237865
0.00237922
0.00237924
0.00238124
0.00234039
0.00234094
0.00234091
0.00234271
0.00230219
0.00230283
0.00230281
0.00230442
0.00226412
0.00226485
0.00226476
0.00226689
0.00222632
0.00222685
0.00222692
0.00222866
0.00218876
0.00218945
0.00218956
0.0021915
0.00215128
0.00215198
0.00215192
0.00215366
0.00211377
0.00211438
0.00211437
0.0021162
0.0020765
0.0020772
0.00207719
0.00207909
0.00203936
0.00203988
0.00203994
0.00204185
0.00200243
0.00200289
0.00200287
0.0020048
0.00196551
0.00196603
0.00196601
0.00196795
0.00192892
0.00192919
0.00192922
0.00193104
0.00189216
0.00189247
0.00189241
0.00189464
0.00185564
0.00185603
0.00185601
0.00185792
0.00181929
0.00181929
0.00181962
0.00182159
0.00178359
0.00178356
0.00178318
0.00178539
0.00174726
0.00174735
0.00174738
0.00174934
0.00171103
0.00171098
0.00171117
0.00171325
0.00167511
0.00167523
0.00167514
0.00167726
0.00163978
0.00163944
0.00163946
0.0016415
0.00160404
0.00160382
0.00160386
0.00160595
0.00156843
0.0015685
0.00156834
0.00157032
0.00153298
0.00153251
0.00153266
0.00153476
0.00149761
0.00149745
0.00149742
0.00149958
0.00146253
0.00146249
0.0014624
0.0014643
0.0014274
0.00142679
0.00142687
0.00142897
0.00139247
0.00139241
0.00139237
0.0013943
0.00135738
0.00135701
0.001357
0.00135904
0.00132198
0.00132191
0.00132175
0.00132362
0.00128765
0.00128711
0.00128727
0.00128922
0.00125274
0.00125263
0.00125279
0.00125512
0.00121832
0.00121812
0.00121805
0.00121987
0.00118354
0.0011832
0.00118308
0.00118465
0.00114873
0.00114848
0.00114832
0.00115035
0.00111399
0.0011138
0.001114
0.00111625
0.00107919
0.00107911
0.00107919
0.00108102
0.00104487
0.00104474
0.00104469
0.00104649
0.00101122
0.00101086
0.00101072
0.00101261
0.000976297
0.000976041
0.000975989
0.000977955
0.000941114
0.00094115
0.000941364
0.000943316
0.000906993
0.000906804
0.000906929
0.000908593
0.00087266
0.0008724
0.000872101
0.000874113
0.000837986
0.000837889
0.000837768
0.000840074
0.000803329
0.000803339
0.000803455
0.000805153
0.000769176
0.000769093
0.00076925
0.000770942
0.000734687
0.000734437
0.000734449
0.000736538
0.000699837
0.000699617
0.00069964
0.000701607
0.000665066
0.000665139
0.000665073
0.000667043
0.000630628
0.000630751
0.00063048
0.000632575
0.00059607
0.000595832
0.00059595
0.000597771
0.000561421
0.000561126
0.000561447
0.000563161
0.000526202
0.000526078
0.000526072
0.000528125
0.000490938
0.000491101
0.000490783
0.000493006
0.000457073
0.000457677
0.000457283
0.000459587
0.000422767
0.000421898
0.000422417
0.000423872
0.000386116
0.000385294
0.000385628
0.000387269
0.000350647
0.000351591
0.000351215
0.000353689
0.000317243
0.000317894
0.000317607
0.000319724
0.000282369
0.000281115
0.000281367
0.000282813
0.000245228
0.000244983
0.000245101
0.000247301
0.000210333
0.000210982
0.000211009
0.000213439
0.000176094
0.000176022
0.000175908
0.000177584
0.000139647
0.000139316
0.000139019
0.000140904
0.000103433
0.000103546
0.000103701
0.000105893
6.86163e-05
6.87992e-05
6.88354e-05
7.08518e-05
3.35457e-05
3.2583e-05
3.30974e-05
3.44253e-05
5.7215e-06
6.34374e-06
6.70919e-06
4.53919e-06
0.00352453
0.00352205
0.0035219
0.00352448
0.00352207
0.00352199
0.00352847
0.00352848
0.00352846
0.00352857
0.00352205
0.00352207
0.00352448
0.003522
0.0035222
0.00352468
0.00351973
0.00349053
0.00351906
0.00351896
0.00349232
0.00349239
0.00351973
0.00349062
0.00351902
0.00351899
0.00349234
0.00349234
0.00351911
0.00349236
0.00349273
0.00351973
0.00349049
0.00351921
0.00349238
0.00349241
0.0034906
0.00348573
0.00345143
0.003483
0.0034828
0.0034538
0.00345368
0.00348578
0.0034515
0.00348294
0.0034828
0.00345384
0.00345379
0.00348287
0.00345402
0.00345365
0.00348568
0.00345146
0.00348307
0.00345374
0.0034537
0.00345124
0.0034458
0.00340779
0.00344338
0.0034435
0.0034108
0.0034109
0.00344585
0.00340779
0.00344346
0.00344348
0.00341094
0.00341088
0.00344378
0.00341056
0.00341054
0.00344588
0.0034078
0.00344354
0.0034108
0.00341088
0.0034076
0.00340156
0.00336007
0.00339933
0.00339925
0.00336348
0.00336338
0.00340163
0.00335955
0.00339944
0.00339929
0.00336336
0.0033634
0.00339934
0.00336363
0.00336304
0.00340159
0.00336006
0.00339948
0.00336341
0.00336351
0.00335996
0.00335355
0.00331141
0.00335081
0.00335095
0.00331486
0.00331443
0.0033531
0.00331089
0.00335121
0.00335126
0.00331446
0.00331463
0.00335115
0.00331422
0.00331436
0.00335358
0.00331129
0.00335128
0.00331464
0.00331447
0.0033113
0.00330487
0.00326298
0.0033021
0.00330217
0.00326658
0.00326644
0.00330455
0.00326342
0.0033024
0.00330247
0.00326622
0.00326634
0.0033024
0.00326571
0.00326628
0.00330484
0.00326306
0.00330234
0.00326633
0.00326625
0.00326306
0.00325672
0.00321586
0.00325447
0.00325455
0.00321879
0.00321895
0.00325703
0.00321588
0.00325433
0.00325441
0.003219
0.00321894
0.00325432
0.00321895
0.00321893
0.00325675
0.00321581
0.00325437
0.00321892
0.00321896
0.00321582
0.00320966
0.00316953
0.00320719
0.00320726
0.00317257
0.00317258
0.0032097
0.00316954
0.00320729
0.00320725
0.00317257
0.00317255
0.00320728
0.00317257
0.00317255
0.00320963
0.0031695
0.00320728
0.00317255
0.00317257
0.00316951
0.00316348
0.00312416
0.00316114
0.00316112
0.0031271
0.00312709
0.00316351
0.00312416
0.00316112
0.00316116
0.0031271
0.00312715
0.00316112
0.00312709
0.00312709
0.00316347
0.00312416
0.00316112
0.00312709
0.00312709
0.00312416
0.00311826
0.00307973
0.00311592
0.00311592
0.00308254
0.00308251
0.00311825
0.00307973
0.00311591
0.00311594
0.00308254
0.00308258
0.0031159
0.00308251
0.00308253
0.00311826
0.00307976
0.00311589
0.00308253
0.00308255
0.00307973
0.00307394
0.00303602
0.00307158
0.00307156
0.00303879
0.00303878
0.00307394
0.00303604
0.00307158
0.0030716
0.00303878
0.00303875
0.00307154
0.00303878
0.00303881
0.003074
0.00303604
0.00307151
0.00303876
0.00303879
0.00303601
0.00303035
0.00299286
0.00302795
0.00302793
0.00299566
0.0029957
0.00303035
0.00299285
0.00302795
0.003028
0.00299566
0.00299571
0.00302794
0.00299571
0.00299561
0.00303037
0.00299287
0.00302797
0.00299575
0.00299567
0.00299292
0.00298726
0.00295016
0.00298499
0.00298494
0.00295304
0.00295293
0.00298728
0.00295021
0.00298498
0.00298485
0.00295306
0.00295303
0.002985
0.00295294
0.00295297
0.00298727
0.00295002
0.00298495
0.00295296
0.00295299
0.00295022
0.00294461
0.00290791
0.00294232
0.00294234
0.00291066
0.00291062
0.00294465
0.00290787
0.0029423
0.00294238
0.00291063
0.00291073
0.0029423
0.00291062
0.00291065
0.0029445
0.00290789
0.00294229
0.00291077
0.00291069
0.00290784
0.00290242
0.0028659
0.00290008
0.00290017
0.00286855
0.00286864
0.00290243
0.00286587
0.0029001
0.00290015
0.0028686
0.00286881
0.00290004
0.00286862
0.0028686
0.00290244
0.00286586
0.00290003
0.00286877
0.00286863
0.0028658
0.00286045
0.00282412
0.00285806
0.00285808
0.00282673
0.0028268
0.00286045
0.00282413
0.00285809
0.0028581
0.00282672
0.00282685
0.0028582
0.00282678
0.00282689
0.0028604
0.00282406
0.00285821
0.00282688
0.00282688
0.00282406
0.00281871
0.00278261
0.00281635
0.00281633
0.00278537
0.00278555
0.00281874
0.00278264
0.00281633
0.00281648
0.00278536
0.00278539
0.0028164
0.00278558
0.00278551
0.00281872
0.00278277
0.00281642
0.00278537
0.0027855
0.00278262
0.00277729
0.00274149
0.00277501
0.00277511
0.00274444
0.00274451
0.00277734
0.00274157
0.00277501
0.00277511
0.00274447
0.00274443
0.00277517
0.00274453
0.00274447
0.0027774
0.00274151
0.00277517
0.00274446
0.0027445
0.00274153
0.00273627
0.00270058
0.0027342
0.00273422
0.00270358
0.00270369
0.00273632
0.00270063
0.00273424
0.00273403
0.00270363
0.00270386
0.00273422
0.00270371
0.00270376
0.00273623
0.00270071
0.00273426
0.00270386
0.00270375
0.00270071
0.00269538
0.00266018
0.0026936
0.00269342
0.00266324
0.00266331
0.00269542
0.00266011
0.00269367
0.00269361
0.00266328
0.0026633
0.00269356
0.00266334
0.00266336
0.00269555
0.00266022
0.0026936
0.00266328
0.00266334
0.00266025
0.00265497
0.00262031
0.00265329
0.00265319
0.00262349
0.00262344
0.00265498
0.00262013
0.00265329
0.00265336
0.00262348
0.00262334
0.00265336
0.00262342
0.00262334
0.00265507
0.00262022
0.00265336
0.00262329
0.00262334
0.00262011
0.00261541
0.00258031
0.00261367
0.00261342
0.00258367
0.00258385
0.00261509
0.00258045
0.00261363
0.0026135
0.00258366
0.00258361
0.00261348
0.00258386
0.00258369
0.00261509
0.00258042
0.0026135
0.00258358
0.00258365
0.00258034
0.00257527
0.00254091
0.00257383
0.00257404
0.00254415
0.00254414
0.00257551
0.00254085
0.00257381
0.00257373
0.00254416
0.00254423
0.00257383
0.00254413
0.0025442
0.00257538
0.00254087
0.00257382
0.00254421
0.00254418
0.0025409
0.00253593
0.00250157
0.00253453
0.00253428
0.00250475
0.00250486
0.00253585
0.00250156
0.00253455
0.00253423
0.00250476
0.00250512
0.00253436
0.00250485
0.00250495
0.0025358
0.002502
0.00253439
0.00250512
0.00250495
0.0025017
0.00249681
0.00246301
0.00249514
0.00249504
0.00246623
0.00246622
0.00249651
0.00246333
0.00249512
0.00249536
0.00246621
0.00246595
0.00249518
0.00246625
0.00246614
0.00249718
0.00246282
0.00249518
0.00246596
0.00246611
0.00246313
0.00245776
0.00242447
0.00245626
0.00245644
0.00242721
0.00242725
0.00245838
0.00242433
0.00245623
0.00245623
0.00242724
0.00242729
0.00245637
0.00242725
0.00242727
0.00245783
0.00242427
0.00245633
0.00242727
0.00242728
0.00242406
0.00241996
0.00238589
0.00241769
0.00241763
0.00238883
0.00238876
0.00241933
0.00238552
0.00241773
0.00241764
0.00238883
0.00238879
0.00241761
0.00238878
0.00238882
0.00241933
0.00238598
0.0024176
0.00238883
0.00238886
0.00238611
0.00238074
0.00234801
0.00237907
0.0023792
0.00235061
0.00235049
0.00238074
0.00234796
0.00237906
0.00237922
0.00235061
0.00235047
0.00237929
0.00235046
0.00235035
0.0023811
0.00234763
0.00237928
0.00235043
0.00235036
0.0023476
0.00234324
0.00230972
0.00234102
0.00234098
0.00231225
0.00231226
0.00234296
0.00230913
0.00234107
0.00234096
0.00231231
0.00231232
0.0023408
0.00231225
0.00231236
0.0023427
0.00230968
0.00234083
0.00231232
0.00231238
0.0023095
0.00230463
0.00227113
0.00230269
0.00230282
0.00227428
0.00227432
0.0023043
0.00227201
0.00230274
0.00230279
0.00227423
0.00227424
0.00230282
0.00227438
0.00227426
0.00230479
0.0022715
0.00230282
0.00227428
0.0022742
0.00227176
0.00226631
0.00223386
0.00226484
0.00226481
0.00223643
0.00223635
0.00226712
0.00223358
0.00226479
0.00226473
0.00223643
0.00223638
0.00226464
0.00223631
0.00223626
0.00226656
0.00223362
0.0022646
0.00223635
0.00223631
0.00223359
0.00222893
0.00219607
0.00222696
0.00222689
0.00219875
0.00219874
0.00222864
0.00219602
0.00222699
0.00222696
0.00219879
0.00219887
0.00222689
0.00219874
0.00219925
0.00222876
0.00219626
0.00222692
0.00219889
0.00219929
0.00219659
0.00219121
0.00215879
0.00218941
0.00218943
0.00216137
0.00216139
0.00219121
0.00215876
0.00218944
0.00218952
0.00216139
0.0021613
0.00218971
0.00216148
0.00216118
0.00219136
0.0021587
0.00218969
0.00216136
0.00216114
0.00215857
0.00215387
0.00212113
0.002152
0.00215192
0.00212378
0.00212376
0.00215375
0.00212114
0.00215201
0.00215187
0.00212378
0.00212375
0.00215174
0.00212371
0.00212368
0.0021538
0.00212113
0.00215172
0.00212371
0.00212368
0.00212109
0.00211624
0.00208387
0.0021144
0.00211444
0.0020864
0.00208652
0.0021163
0.00208399
0.0021144
0.00211441
0.00208641
0.00208647
0.00211436
0.00208651
0.00208646
0.00211622
0.00208391
0.00211437
0.00208647
0.00208647
0.00208396
0.002079
0.00204673
0.00207712
0.0020772
0.00204925
0.00204919
0.00207905
0.00204662
0.00207712
0.00207719
0.00204926
0.00204923
0.00207719
0.00204921
0.00204926
0.00207904
0.00204671
0.00207719
0.00204925
0.00204925
0.00204673
0.00204186
0.00200962
0.00203996
0.00203987
0.00201215
0.00201211
0.00204177
0.00200968
0.00203997
0.00203993
0.00201214
0.00201212
0.00203995
0.00201214
0.00201214
0.00204183
0.00200963
0.00203996
0.00201213
0.00201214
0.00200965
0.00200472
0.00197282
0.00200287
0.00200287
0.00197517
0.00197524
0.0020048
0.00197286
0.00200286
0.00200286
0.00197521
0.00197519
0.00200291
0.00197521
0.00197526
0.00200476
0.00197282
0.0020029
0.00197522
0.00197525
0.00197284
0.001968
0.00193603
0.00196602
0.00196607
0.00193846
0.00193841
0.00196801
0.00193598
0.00196603
0.001966
0.00193843
0.00193846
0.001966
0.00193842
0.00193828
0.00196797
0.00193603
0.00196601
0.00193842
0.0019383
0.00193588
0.00193117
0.00189931
0.00192925
0.00192918
0.00190164
0.00190162
0.00193112
0.00189932
0.00192923
0.00192926
0.00190166
0.00190159
0.00192909
0.0019016
0.00190168
0.00193117
0.00189927
0.00192908
0.0019016
0.00190167
0.00189945
0.00189444
0.00186262
0.00189243
0.00189247
0.00186483
0.00186519
0.0018945
0.0018629
0.00189247
0.0018924
0.00186492
0.00186502
0.00189259
0.00186523
0.00186515
0.00189443
0.0018628
0.0018926
0.00186504
0.00186516
0.00186279
0.00185781
0.00182655
0.00185572
0.001856
0.00182873
0.00182837
0.00185799
0.00182613
0.00185579
0.00185598
0.00182863
0.00182879
0.00185595
0.00182838
0.00182855
0.00185802
0.00182651
0.00185594
0.00182879
0.00182854
0.00182638
0.00182179
0.00179037
0.00181981
0.00181923
0.00179276
0.00179251
0.00182135
0.00179043
0.00181967
0.00181963
0.00179262
0.00179221
0.00181952
0.00179247
0.00179239
0.00182163
0.00179002
0.00181951
0.00179222
0.00179242
0.00179017
0.00178551
0.00175392
0.00178357
0.00178367
0.00175599
0.00175657
0.0017857
0.00175424
0.00178351
0.00178319
0.00175615
0.0017563
0.00178333
0.00175648
0.00175632
0.00178525
0.00175422
0.00178336
0.00175633
0.00175627
0.00175415
0.00174911
0.00171793
0.00174689
0.00174735
0.00171994
0.00171992
0.00174935
0.00171783
0.00174707
0.00174734
0.00172005
0.00172028
0.00174731
0.00172001
0.00172019
0.00174944
0.00171809
0.00174724
0.00172026
0.00172018
0.00171805
0.00171315
0.00168217
0.00171103
0.00171091
0.00168421
0.00168408
0.00171304
0.00168209
0.00171109
0.0017112
0.00168423
0.00168409
0.00171114
0.00168412
0.00168417
0.00171326
0.00168201
0.00171118
0.00168409
0.00168422
0.00168206
0.00167741
0.00164639
0.00167532
0.0016752
0.00164867
0.00164861
0.00167733
0.00164634
0.00167532
0.00167514
0.00164846
0.0016484
0.00167522
0.00164848
0.00164829
0.00167724
0.00164629
0.00167522
0.00164836
0.00164825
0.00164622
0.00164158
0.00161055
0.00163963
0.0016396
0.00161256
0.0016126
0.00164155
0.00161063
0.00163945
0.00163948
0.00161265
0.00161271
0.00163939
0.00161262
0.00161279
0.00164153
0.00161064
0.00163938
0.00161274
0.00161282
0.00161071
0.0016058
0.0015752
0.00160366
0.00160378
0.00157721
0.00157738
0.00160592
0.0015753
0.00160375
0.00160382
0.0015772
0.00157721
0.00160391
0.00157742
0.00157721
0.0016059
0.0015752
0.00160391
0.00157722
0.00157716
0.0015751
0.00157045
0.00153956
0.00156839
0.00156848
0.00154168
0.00154149
0.00157052
0.0015394
0.00156839
0.00156835
0.00154172
0.00154167
0.00156825
0.00154148
0.00154153
0.00157042
0.00153951
0.00156824
0.00154162
0.00154153
0.00153948
0.00153478
0.00150408
0.00153275
0.00153253
0.0015061
0.00150616
0.00153461
0.00150416
0.00153276
0.0015327
0.00150606
0.00150612
0.00153271
0.0015061
0.0015063
0.00153473
0.00150418
0.0015327
0.00150612
0.00150634
0.00150431
0.00149938
0.00146922
0.00149732
0.00149747
0.00147121
0.00147131
0.00149951
0.00146927
0.00149729
0.00149739
0.00147124
0.00147122
0.00149753
0.00147141
0.00147114
0.00149949
0.00146917
0.00149758
0.00147129
0.00147117
0.00146904
0.00146451
0.00143377
0.0014625
0.00146243
0.0014359
0.0014357
0.00146446
0.0014336
0.0014625
0.00146239
0.00143587
0.00143578
0.00146228
0.0014356
0.00143572
0.00146439
0.00143367
0.00146226
0.00143568
0.00143567
0.00143369
0.001429
0.00139872
0.00142699
0.00142692
0.00140073
0.00140094
0.0014289
0.00139894
0.00142695
0.00142698
0.00140075
0.00140089
0.00142696
0.00140097
0.00140099
0.00142895
0.00139893
0.00142693
0.00140099
0.00140103
0.00139897
0.00139407
0.00136407
0.00139209
0.00139232
0.00136608
0.00136599
0.00139429
0.00136388
0.00139212
0.00139226
0.00136608
0.00136598
0.00139232
0.00136595
0.00136596
0.00139428
0.00136389
0.00139237
0.00136595
0.00136592
0.00136384
0.00135933
0.00132847
0.00135732
0.0013571
0.00133056
0.0013306
0.0013591
0.00132855
0.00135731
0.00135712
0.00133052
0.00133055
0.00135707
0.0013306
0.00133038
0.00135909
0.00132842
0.001357
0.00133047
0.00133029
0.00132832
0.00132371
0.00129378
0.00132173
0.00132188
0.00129584
0.0012958
0.00132386
0.00129373
0.00132168
0.00132177
0.00129586
0.00129581
0.00132162
0.0012958
0.00129583
0.00132372
0.00129382
0.00132155
0.00129587
0.00129587
0.00129381
0.00128915
0.00125931
0.00128725
0.00128714
0.00126127
0.00126117
0.00128904
0.00125922
0.00128731
0.00128723
0.00126135
0.00126139
0.00128733
0.0012612
0.00126166
0.00128918
0.00125941
0.00128741
0.00126141
0.00126179
0.00125978
0.00125462
0.00122452
0.00125257
0.00125256
0.00122665
0.00122679
0.00125458
0.00122468
0.00125264
0.00125271
0.00122659
0.00122658
0.00125306
0.00122687
0.00122673
0.00125474
0.00122459
0.00125317
0.00122679
0.00122683
0.00122463
0.00121982
0.00118985
0.00121799
0.00121808
0.00119192
0.001192
0.00121995
0.00118984
0.00121791
0.0012179
0.00119191
0.00119203
0.00121788
0.00119188
0.0011916
0.00121988
0.00118977
0.00121794
0.0011918
0.00119145
0.00118941
0.00118518
0.00115527
0.00118326
0.00118336
0.00115732
0.0011573
0.00118515
0.00115517
0.00118326
0.00118339
0.00115725
0.00115719
0.0011829
0.00115717
0.00115703
0.00118505
0.001155
0.00118271
0.00115696
0.0011568
0.00115496
0.00115055
0.00112042
0.00114865
0.00114854
0.00112249
0.00112231
0.00115046
0.00112039
0.00114858
0.00114843
0.00112255
0.0011224
0.00114851
0.00112246
0.00112281
0.00115031
0.00112055
0.00114836
0.00112257
0.00112289
0.00112091
0.00111571
0.00108563
0.00111374
0.00111361
0.00108765
0.00108775
0.00111569
0.00108572
0.00111383
0.00111379
0.00108767
0.00108783
0.00111415
0.00108779
0.00108782
0.00111591
0.0010858
0.00111433
0.00108797
0.00108802
0.00108578
0.00108091
0.00105111
0.00107898
0.00107912
0.00105313
0.00105332
0.00108101
0.00105123
0.00107896
0.00107909
0.0010531
0.00105318
0.00107902
0.00105325
0.00105314
0.00108104
0.00105116
0.00107913
0.00105321
0.00105311
0.0010511
0.00104652
0.00101755
0.00104466
0.00104482
0.00101952
0.00101945
0.00104661
0.00101741
0.00104465
0.0010447
0.00101953
0.00101945
0.00104467
0.00101939
0.00101932
0.00104654
0.00101728
0.00104463
0.00101928
0.00101922
0.00101725
0.00101296
0.000982687
0.0010111
0.00101091
0.000984868
0.00098476
0.00101278
0.000982699
0.00101109
0.0010109
0.000984827
0.000984746
0.00101079
0.000984801
0.000984788
0.00101265
0.000982661
0.00101067
0.000984725
0.000984704
0.000982668
0.000977886
0.000947624
0.000975973
0.00097597
0.000949572
0.00094975
0.000977932
0.000947751
0.000975953
0.000975968
0.000949648
0.000949868
0.000976061
0.00094981
0.000949999
0.00097791
0.000947949
0.000976031
0.000949975
0.000950108
0.000948029
0.000942963
0.000913499
0.000940961
0.000941124
0.000915435
0.000915401
0.000943052
0.000913415
0.000941055
0.000941263
0.000915497
0.000915596
0.000941322
0.000915359
0.00091529
0.000943277
0.000913561
0.00094147
0.000915598
0.000915396
0.000913314
0.000908865
0.000879161
0.000906943
0.000906866
0.000881257
0.000881116
0.00090878
0.000879051
0.000906973
0.000906971
0.000881123
0.00088085
0.000906606
0.000881023
0.000880765
0.000908847
0.000878772
0.000906644
0.000880766
0.000880655
0.000878741
0.000874436
0.000844352
0.0008726
0.000872483
0.000846418
0.000846488
0.000874358
0.000844487
0.00087244
0.000872161
0.000846394
0.000846268
0.000872248
0.000846523
0.000846756
0.000874066
0.000844335
0.000872124
0.00084632
0.00084671
0.000844733
0.000839616
0.000809725
0.000837695
0.000837805
0.000811678
0.000811852
0.000839778
0.000809862
0.000837709
0.000837685
0.000811779
0.000811972
0.000838228
0.000811951
0.00081194
0.000839674
0.000810014
0.000838201
0.000812043
0.000812017
0.000809886
0.000805066
0.000775771
0.000803105
0.000803268
0.000777639
0.000777661
0.000805172
0.000775696
0.000803211
0.000803429
0.000777719
0.000777899
0.000803185
0.000777654
0.000777464
0.000805341
0.000775848
0.00080325
0.000777818
0.000777495
0.000775547
0.000771144
0.000741357
0.00076915
0.000769132
0.000743391
0.000743264
0.00077105
0.000741225
0.000769204
0.000769338
0.000743313
0.000743265
0.000769
0.000743137
0.00074335
0.00077119
0.000741179
0.000769021
0.000743163
0.000743303
0.000741298
0.00073659
0.000706313
0.000734693
0.000734554
0.000708405
0.00070833
0.000736485
0.000706304
0.000734569
0.000734496
0.000708348
0.000708245
0.000734655
0.000708303
0.000708337
0.000736421
0.000706296
0.000734595
0.000708302
0.000708351
0.000706347
0.000701555
0.000671605
0.000699653
0.000699591
0.00067357
0.000673591
0.000701551
0.000671692
0.000699642
0.000699546
0.000673623
0.000673596
0.00069959
0.000673719
0.000673657
0.00070157
0.000671696
0.000699632
0.000673713
0.000673684
0.000671726
0.000666915
0.000637321
0.00066495
0.000665019
0.000639239
0.000639425
0.000667016
0.000637443
0.000664994
0.000664989
0.000639228
0.000639221
0.000665092
0.000639412
0.00063935
0.000666989
0.000637192
0.000665087
0.000639129
0.000639282
0.000637297
0.000632637
0.000602584
0.000630658
0.000630817
0.000604612
0.000604634
0.000632721
0.000602547
0.000630635
0.00063059
0.000604609
0.000604601
0.000630691
0.000604573
0.000604522
0.000632485
0.000602594
0.000630632
0.000604573
0.000604544
0.000602515
0.000597838
0.000567966
0.000595911
0.000595875
0.000569934
0.000569794
0.00059778
0.000567813
0.000595926
0.000595958
0.00056999
0.000570104
0.000595794
0.000569781
0.000569804
0.000597882
0.000568109
0.000595841
0.000570112
0.000569868
0.000567871
0.000563256
0.000532978
0.000561293
0.000561133
0.00053502
0.000534912
0.000563098
0.000532901
0.000561347
0.000561458
0.000535014
0.000534954
0.00056118
0.000534925
0.000535008
0.000563373
0.000532918
0.000561222
0.000534962
0.00053499
0.00053296
0.000528139
0.000497565
0.000526147
0.00052607
0.000499568
0.000499611
0.000528068
0.000497698
0.000526131
0.000526062
0.000499554
0.000499434
0.000526155
0.000499641
0.00049964
0.000528077
0.000497461
0.00052613
0.00049943
0.000499612
0.000497672
0.000492825
0.000463603
0.000490883
0.000491063
0.000465507
0.000465877
0.000493031
0.000464108
0.000490838
0.000490752
0.000465406
0.000465506
0.000491073
0.000465963
0.000465938
0.000492755
0.00046371
0.000491037
0.00046562
0.000465878
0.000464101
0.000459052
0.000429426
0.000457136
0.000457586
0.000431503
0.000431194
0.000459596
0.000428937
0.000457027
0.000457147
0.000431603
0.000431685
0.000457645
0.000431127
0.000431017
0.000459163
0.000429422
0.000457598
0.000431563
0.00043111
0.000428862
0.000424503
0.000392888
0.000422513
0.000422024
0.00039502
0.000394507
0.000423938
0.000392217
0.000422697
0.000422652
0.000395119
0.00039496
0.00042182
0.000394348
0.00039424
0.000424433
0.000392667
0.000421912
0.000394775
0.000394312
0.000392109
0.000387877
0.000357393
0.000385886
0.0003854
0.000359244
0.000359636
0.000387294
0.000357984
0.00038597
0.000385797
0.000359166
0.000359332
0.000385294
0.000359836
0.000360096
0.000387663
0.000357662
0.000385334
0.000359525
0.00036003
0.000358247
0.00035279
0.000323922
0.000350782
0.000351347
0.000325791
0.000326325
0.000353439
0.000324599
0.00035068
0.000350942
0.000325672
0.000325878
0.000351794
0.000326577
0.000326681
0.000353098
0.000324196
0.000351721
0.000326156
0.000326583
0.000324616
0.000319385
0.000289045
0.000317449
0.000317817
0.000291305
0.000290679
0.000319867
0.000288267
0.000317327
0.000317461
0.000291366
0.000290937
0.000317774
0.000290318
0.000289961
0.000319575
0.000288511
0.000317711
0.000290574
0.000290038
0.000287821
0.000283958
0.000251895
0.000282008
0.000281432
0.000254091
0.000253851
0.000283257
0.000251717
0.000282112
0.000281714
0.00025417
0.000254066
0.000280783
0.000253776
0.0002538
0.000283492
0.00025187
0.000280857
0.000253971
0.000253862
0.000251948
0.000246859
0.000217074
0.00024486
0.000244868
0.000218859
0.000219222
0.000246906
0.000217533
0.000244924
0.000244973
0.00021884
0.000219179
0.000245298
0.000219504
0.00021991
0.000247009
0.000217509
0.000245352
0.000219485
0.000219923
0.000218083
0.000212501
0.000183076
0.000210501
0.000210763
0.000185018
0.000185047
0.000212899
0.000182984
0.000210484
0.000210753
0.000185037
0.000185107
0.00021137
0.000184997
0.000184748
0.000212907
0.000182969
0.000211425
0.000185017
0.000184721
0.000182566
0.000178227
0.000146561
0.000176219
0.000176173
0.000148755
0.000148633
0.000178066
0.00014639
0.000176217
0.00017612
0.000148705
0.00014843
0.000175587
0.000148467
0.000148122
0.000177985
0.000146135
0.000175491
0.000148239
0.000148034
0.000145885
0.000141497
0.000110237
0.000139542
0.000139446
0.00011218
0.000112135
0.000141365
0.000110261
0.000139477
0.000139196
0.000112203
0.000112188
0.00013902
0.000112238
0.000112546
0.000141079
0.00011039
0.000138915
0.000112295
0.000112565
0.000110662
0.000105443
7.54779e-05
0.000103391
0.000103403
7.73877e-05
7.75014e-05
0.000105509
7.56222e-05
0.000103452
0.000103553
7.73873e-05
7.7493e-05
0.00010389
7.75815e-05
7.77219e-05
0.00010565
7.56421e-05
0.000103952
7.76189e-05
7.77585e-05
7.57908e-05
7.06608e-05
3.9692e-05
6.86645e-05
6.8758e-05
4.17637e-05
4.166e-05
7.0759e-05
3.94808e-05
6.86631e-05
6.87477e-05
4.1826e-05
4.19736e-05
6.88049e-05
4.15662e-05
4.15032e-05
7.07967e-05
3.98282e-05
6.88551e-05
4.18929e-05
4.15816e-05
3.94308e-05
3.46972e-05
7.79198e-06
3.28713e-05
3.26629e-05
1.06891e-05
1.0363e-05
3.44336e-05
7.38941e-06
3.29515e-05
3.31918e-05
1.09261e-05
1.12383e-05
3.26047e-05
1.03369e-05
1.04142e-05
3.48599e-05
8.051e-06
3.26909e-05
1.11387e-05
1.05553e-05
7.55305e-06
4.71527e-06
6.62885e-06
6.32508e-06
4.41528e-06
6.63251e-06
6.77334e-06
5.47951e-06
5.69593e-06
5.50006e-06
6.44966e-06
4.84282e-06
6.35506e-06
0.00353163
0.00353426
0.00353292
0.0035331
0.00356039
0.00353398
0.00356389
0.00353453
0.00356037
0.0035341
0.00353448
0.00356376
0.00354544
0.00356748
0.00356719
0.00350396
0.00351729
0.00352143
0.00349611
0.00349454
0.00349969
0.00350403
0.00351749
0.00352152
0.00349626
0.00352009
0.00352006
0.00352016
0.00349342
0.00349352
0.00349349
0.00349343
0.00350379
0.00351574
0.00352069
0.00351121
0.00352287
0.00350108
0.00351156
0.00349457
0.00349971
0.00350377
0.00352067
0.00351548
0.00351131
0.00352282
0.00351158
0.00350092
0.00352192
0.00352172
0.00350871
0.00350105
0.00350088
0.0034762
0.00349054
0.00349042
0.00347418
0.00348778
0.00347321
0.00347606
0.00349036
0.00349034
0.00347421
0.0034843
0.00348431
0.0034842
0.00345553
0.00345552
0.00345562
0.0034554
0.00347396
0.00348943
0.00348288
0.00347346
0.00348766
0.0034743
0.00347345
0.0034877
0.00347319
0.00347394
0.00348286
0.00348908
0.00347326
0.00348756
0.00347327
0.00347451
0.00349102
0.0034909
0.00347162
0.00347475
0.00347484
0.0034333
0.00344811
0.003449
0.00343192
0.00344703
0.00343115
0.00343327
0.00344806
0.00344902
0.00343184
0.00344536
0.00344539
0.00344522
0.00341262
0.0034126
0.0034126
0.00341252
0.00343186
0.00344768
0.00344346
0.0034334
0.00344669
0.00343288
0.00343299
0.00344694
0.00343107
0.00343194
0.00344357
0.00344767
0.0034329
0.00344668
0.00343295
0.00343248
0.00344795
0.00344834
0.00343017
0.00343186
0.00343206
0.00338665
0.00340342
0.00340463
0.00338483
0.00340256
0.00338467
0.00338662
0.00340298
0.00340459
0.00338517
0.00340095
0.00340097
0.00340087
0.00336498
0.00336481
0.00336492
0.00336488
0.0033858
0.00340372
0.00339938
0.00338774
0.00340236
0.00338556
0.00338766
0.00340245
0.00338465
0.00338578
0.00339934
0.00340298
0.00338745
0.00340236
0.00338747
0.00338594
0.00340231
0.00340292
0.00338417
0.0033854
0.00338542
0.00333747
0.00335431
0.00335603
0.00333643
0.00335416
0.00333585
0.00333754
0.0033543
0.00335599
0.0033362
0.00335257
0.0033527
0.00335265
0.00331602
0.00331585
0.00331598
0.00331598
0.00333691
0.00335433
0.00335123
0.0033389
0.00335423
0.00333608
0.00333897
0.00335431
0.00333607
0.00333711
0.00335128
0.00335476
0.00333902
0.00335434
0.00333904
0.00333705
0.00335483
0.00335438
0.00333564
0.00333662
0.00333643
0.00328841
0.00330527
0.0033067
0.00328827
0.00330516
0.00328735
0.00328846
0.00330609
0.00330676
0.00328764
0.00330372
0.00330379
0.0033038
0.00326752
0.00326767
0.00326754
0.00326759
0.00328839
0.00330565
0.00330226
0.00329015
0.00330531
0.0032854
0.00329031