/*--------------------------------*- C++ -*----------------------------------*\
| =========                 |                                                 |
| \\      /  F ield         | OpenFOAM: The Open Source CFD Toolbox           |
|  \\    /   O peration     | Version:  v2006                                 |
|   \\  /    A nd           | Website:  www.openfoam.com                      |
|    \\/     M anipulation  |                                                 |
\*---------------------------------------------------------------------------*/
FoamFile
{
    version     2.0;
    format      ascii;
    class       volScalarField;
    location    "750";
    object      k;
}
// * * * * * * * * * * * * * * * * * * * * * * * * * * * * * * * * * * * * * //

dimensions      [0 2 -2 0 0 0 0];


internalField   nonuniform List<scalar> 
14314
(
4.38936e-05
5.2882e-05
5.256e-05
5.49987e-05
4.31808e-05
5.20208e-05
5.15196e-05
5.51233e-05
5.65832e-05
5.44109e-05
5.30221e-05
5.46372e-05
5.43464e-05
5.27749e-05
5.27772e-05
5.29899e-05
5.4333e-05
5.25636e-05
5.29383e-05
5.4868e-05
5.66062e-05
5.52832e-05
5.44633e-05
5.30953e-05
5.36974e-05
5.29928e-05
5.46979e-05
5.47132e-05
5.43899e-05
5.27703e-05
5.35904e-05
5.24811e-05
5.32055e-05
5.2913e-05
5.33714e-05
5.43234e-05
5.40738e-05
5.31261e-05
5.23883e-05
5.3251e-05
5.52169e-05
5.4877e-05
5.23621e-05
5.20292e-05
5.46087e-05
5.22895e-05
5.15656e-05
4.26337e-05
4.22551e-05
4.29426e-05
5.24814e-05
5.40137e-05
5.23798e-05
6.97571e-05
7.46973e-05
7.19637e-05
6.96476e-05
7.46566e-05
4.37223e-05
4.241e-05
4.22873e-05
4.22975e-05
6.07772e-05
5.24429e-05
6.48516e-05
4.8194e-05
7.18716e-05
6.07651e-05
5.24973e-05
4.82853e-05
6.47707e-05
5.43133e-05
7.01924e-05
7.01644e-05
6.93625e-05
7.44138e-05
6.96443e-05
7.4302e-05
7.19713e-05
7.20448e-05
6.90809e-05
7.43733e-05
6.93688e-05
7.42788e-05
4.26743e-05
4.24382e-05
4.26942e-05
4.34652e-05
4.26222e-05
4.22482e-05
4.29036e-05
6.1137e-05
6.5118e-05
4.89162e-05
5.29319e-05
6.10574e-05
6.50216e-05
4.89735e-05
7.18736e-05
7.19771e-05
6.07083e-05
4.86703e-05
6.47559e-05
5.25244e-05
6.07594e-05
4.86586e-05
6.45574e-05
7.05877e-05
7.05458e-05
5.51873e-05
7.05994e-05
7.0565e-05
6.47712e-05
7.3817e-05
6.8616e-05
7.4634e-05
7.18944e-05
6.64391e-05
6.47338e-05
7.38139e-05
6.84614e-05
7.46398e-05
3.13227e-05
3.77855e-05
3.7635e-05
4.4069e-05
3.16713e-05
3.82813e-05
3.81479e-05
6.1111e-05
6.50314e-05
4.894e-05
5.08483e-05
6.10932e-05
6.67804e-05
4.71507e-05
7.18928e-05
6.63966e-05
6.0852e-05
4.85575e-05
6.46245e-05
5.04464e-05
6.0706e-05
4.68569e-05
6.65814e-05
7.01783e-05
7.01636e-05
5.47212e-05
7.13579e-05
7.13602e-05
7.23282e-05
7.23157e-05
5.61639e-05
7.16571e-05
7.16042e-05
7.21831e-05
7.22539e-05
7.2181e-05
7.22434e-05
5.63911e-05
7.15174e-05
7.14805e-05
7.17254e-05
7.16734e-05
6.95363e-05
7.42726e-05
6.19527e-05
5.38337e-05
6.64462e-05
4.92911e-05
6.1696e-05
5.26668e-05
6.50689e-05
4.88743e-05
6.97679e-05
7.4529e-05
7.46373e-05
6.97485e-05
6.95456e-05
7.42957e-05
7.42491e-05
6.95452e-05
6.20757e-05
5.42395e-05
6.64062e-05
4.98636e-05
6.65859e-05
4.9684e-05
6.21037e-05
6.18104e-05
5.29048e-05
6.51785e-05
4.93532e-05
6.521e-05
4.91996e-05
6.18376e-05
5.43996e-05
7.0042e-05
7.00925e-05
7.19569e-05
7.20187e-05
7.19342e-05
5.45148e-05
7.01991e-05
7.01878e-05
7.01444e-05
7.01755e-05
7.20064e-05
7.19244e-05
6.18628e-05
5.38099e-05
6.63803e-05
4.92744e-05
6.94133e-05
7.41588e-05
6.16012e-05
5.26743e-05
4.88762e-05
6.49342e-05
6.96402e-05
7.44846e-05
7.45935e-05
6.95179e-05
6.19352e-05
5.41913e-05
6.6322e-05
4.97353e-05
6.65147e-05
4.96029e-05
6.18808e-05
6.94001e-05
7.416e-05
7.4126e-05
6.92776e-05
6.16516e-05
5.27632e-05
4.91671e-05
6.48614e-05
4.90931e-05
6.50269e-05
6.15745e-05
6.86793e-05
7.41423e-05
6.07791e-05
5.23266e-05
4.81281e-05
6.49499e-05
6.86922e-05
7.42775e-05
6.08616e-05
5.26631e-05
6.49433e-05
4.87288e-05
6.49776e-05
4.85377e-05
6.09768e-05
6.8696e-05
7.42179e-05
7.41272e-05
6.88393e-05
6.08838e-05
5.27288e-05
4.8803e-05
6.52264e-05
4.85502e-05
6.51322e-05
6.10323e-05
6.87167e-05
7.43643e-05
7.42689e-05
6.88908e-05
5.43925e-05
6.99084e-05
6.99802e-05
7.18619e-05
7.19168e-05
7.18357e-05
5.441e-05
6.98618e-05
6.98538e-05
6.99535e-05
7.00044e-05
7.18962e-05
7.18217e-05
6.0779e-05
5.23434e-05
4.81945e-05
6.49261e-05
6.86343e-05
7.4031e-05
6.86591e-05
7.42371e-05
6.07785e-05
5.25622e-05
4.8606e-05
6.46321e-05
4.85084e-05
6.48383e-05
6.07436e-05
6.08232e-05
5.27099e-05
4.8716e-05
6.51422e-05
4.85367e-05
6.50909e-05
6.08336e-05
6.86158e-05
7.4066e-05
7.40011e-05
6.86045e-05
6.86531e-05
7.431e-05
7.42237e-05
6.86798e-05
7.20636e-05
7.20495e-05
5.45457e-05
7.04683e-05
7.04259e-05
7.03472e-05
7.031e-05
7.21252e-05
7.2038e-05
7.21133e-05
7.20237e-05
7.20837e-05
7.20166e-05
7.20839e-05
7.20217e-05
7.14714e-05
7.14442e-05
5.63329e-05
7.08168e-05
7.08234e-05
7.18754e-05
7.19145e-05
7.1882e-05
7.19202e-05
5.60636e-05
7.01043e-05
7.01193e-05
7.07496e-05
7.07597e-05
6.92683e-05
7.42479e-05
6.94743e-05
7.4284e-05
6.17196e-05
6.64676e-05
4.99349e-05
5.44489e-05
6.20968e-05
6.58314e-05
4.9916e-05
6.15609e-05
6.53425e-05
4.94284e-05
5.31217e-05
6.18417e-05
6.51813e-05
4.94141e-05
6.91886e-05
7.41562e-05
7.41905e-05
6.88786e-05
6.91291e-05
7.42492e-05
7.42098e-05
6.88827e-05
6.16621e-05
5.42483e-05
6.4974e-05
4.93068e-05
6.58735e-05
4.98418e-05
6.10216e-05
6.15262e-05
5.30628e-05
6.49246e-05
4.89853e-05
6.53864e-05
4.93896e-05
6.0992e-05
7.03043e-05
7.02826e-05
5.4757e-05
7.0285e-05
7.02456e-05
7.19592e-05
7.20361e-05
7.20105e-05
7.19781e-05
5.47706e-05
7.02235e-05
7.01807e-05
7.03807e-05
7.03378e-05
7.20084e-05
7.19708e-05
6.13861e-05
6.63806e-05
4.9779e-05
5.43692e-05
6.18396e-05
6.57527e-05
4.97348e-05
6.89253e-05
7.4114e-05
6.91479e-05
7.41763e-05
6.1152e-05
4.91897e-05
6.49881e-05
5.27327e-05
6.1537e-05
4.91315e-05
6.47638e-05
6.89167e-05
7.41476e-05
7.41709e-05
6.86652e-05
6.13331e-05
5.41402e-05
6.49211e-05
4.9049e-05
6.58007e-05
4.96337e-05
6.07549e-05
6.87978e-05
7.42007e-05
7.41165e-05
6.86283e-05
6.11215e-05
5.25553e-05
4.86079e-05
6.45552e-05
4.9062e-05
6.49647e-05
6.06691e-05
6.90066e-05
7.41872e-05
6.88574e-05
7.42812e-05
6.12184e-05
4.90413e-05
6.54323e-05
5.33354e-05
6.11255e-05
4.9127e-05
6.53891e-05
6.9072e-05
7.43315e-05
6.8913e-05
7.4405e-05
6.1204e-05
5.29035e-05
6.48843e-05
4.88346e-05
6.5254e-05
4.9014e-05
6.10663e-05
6.89992e-05
7.43026e-05
7.42244e-05
6.90102e-05
6.12857e-05
5.33343e-05
4.90164e-05
6.52499e-05
4.91831e-05
6.56296e-05
6.11453e-05
6.90637e-05
7.43876e-05
7.43383e-05
6.90729e-05
6.99305e-05
6.99038e-05
5.42075e-05
6.98587e-05
6.97887e-05
7.18522e-05
7.19592e-05
7.20038e-05
7.19246e-05
5.41743e-05
6.98665e-05
6.97881e-05
6.99597e-05
6.98807e-05
7.1999e-05
7.19092e-05
6.08528e-05
4.88835e-05
6.53371e-05
5.32347e-05
6.08643e-05
4.89287e-05
6.5277e-05
6.85976e-05
7.40344e-05
6.85795e-05
7.41521e-05
6.87169e-05
7.42765e-05
6.86664e-05
7.43582e-05
6.07577e-05
5.24028e-05
4.84719e-05
6.44603e-05
4.86722e-05
6.47767e-05
6.06616e-05
6.09112e-05
5.3226e-05
4.87799e-05
6.51507e-05
4.89609e-05
6.55167e-05
6.08095e-05
6.85869e-05
7.42416e-05
7.41112e-05
6.86768e-05
6.87142e-05
7.43635e-05
7.42968e-05
6.87939e-05
7.20765e-05
7.21393e-05
7.20661e-05
7.21349e-05
5.52323e-05
7.05447e-05
7.05292e-05
7.07003e-05
7.06699e-05
7.20818e-05
7.20673e-05
7.20858e-05
7.20652e-05
7.17371e-05
6.6174e-05
7.17445e-05
6.61827e-05
6.96827e-05
6.96955e-05
5.39702e-05
7.05828e-05
7.05889e-05
5.32876e-05
7.04676e-05
7.04732e-05
6.48179e-05
7.39424e-05
6.86491e-05
7.47765e-05
6.06542e-05
6.50436e-05
4.90995e-05
5.06753e-05
6.0962e-05
6.63634e-05
4.69434e-05
6.07072e-05
6.50551e-05
4.89625e-05
5.07819e-05
6.09515e-05
6.67085e-05
4.69435e-05
6.04061e-05
4.99753e-05
6.6312e-05
4.60443e-05
6.04787e-05
5.02694e-05
6.66841e-05
4.60967e-05
6.98637e-05
6.982e-05
5.4235e-05
7.10461e-05
7.10324e-05
7.19033e-05
6.6458e-05
5.37398e-05
7.09415e-05
7.09297e-05
6.05471e-05
6.49945e-05
4.88932e-05
5.06455e-05
6.07228e-05
6.63549e-05
4.68243e-05
6.47623e-05
7.39085e-05
6.84632e-05
7.47436e-05
6.05585e-05
4.8605e-05
6.46994e-05
5.04331e-05
6.066e-05
4.67209e-05
6.65277e-05
6.03633e-05
4.99649e-05
6.63086e-05
4.59764e-05
6.04012e-05
5.00096e-05
4.59543e-05
6.65446e-05
3.12691e-05
3.74905e-05
3.73514e-05
4.40257e-05
3.14968e-05
3.82091e-05
3.82584e-05
3.11571e-05
3.71903e-05
3.70673e-05
4.36629e-05
3.13519e-05
3.79544e-05
3.80003e-05
3.12428e-05
3.74655e-05
3.73262e-05
4.43878e-05
3.14071e-05
3.83793e-05
3.82328e-05
3.11575e-05
4.42722e-05
3.83914e-05
3.83005e-05
3.1156e-05
4.44813e-05
3.84048e-05
3.85994e-05
3.10589e-05
4.41945e-05
3.82205e-05
3.8381e-05
3.11596e-05
4.4855e-05
3.87128e-05
3.85834e-05
6.52804e-05
7.40108e-05
6.89101e-05
7.48604e-05
6.11777e-05
4.91241e-05
6.53935e-05
5.12698e-05
6.11713e-05
4.7285e-05
6.70603e-05
6.53126e-05
7.40912e-05
6.89706e-05
7.49387e-05
6.09709e-05
5.03618e-05
6.67653e-05
4.64117e-05
6.10251e-05
5.07346e-05
4.65209e-05
6.70238e-05
6.95353e-05
6.94627e-05
5.3812e-05
7.08781e-05
7.08613e-05
7.18965e-05
6.64161e-05
5.34311e-05
7.07826e-05
7.07692e-05
6.09549e-05
4.88797e-05
6.52977e-05
5.12047e-05
6.08486e-05
4.7089e-05
6.70255e-05
6.51459e-05
7.39675e-05
6.86395e-05
7.48242e-05
6.51877e-05
7.40752e-05
6.87369e-05
7.49341e-05
6.07997e-05
5.00545e-05
4.6179e-05
6.66231e-05
6.08813e-05
5.06953e-05
4.6364e-05
6.7001e-05
7.19778e-05
6.65998e-05
7.19816e-05
6.66079e-05
5.41825e-05
7.12506e-05
7.1254e-05
6.62027e-05
6.62117e-05
6.47202e-05
7.41922e-05
6.47683e-05
7.43426e-05
6.6474e-05
6.64956e-05
6.46984e-05
7.42015e-05
6.47298e-05
7.43198e-05
6.52429e-05
7.44275e-05
6.52718e-05
7.44992e-05
6.64347e-05
6.64573e-05
6.51325e-05
7.44037e-05
6.51705e-05
7.45011e-05
6.66357e-05
6.66445e-05
7.29223e-05
6.96609e-05
7.26523e-05
7.29266e-05
7.26647e-05
7.29135e-05
7.29225e-05
7.26645e-05
8.10266e-05
7.46832e-05
8.13157e-05
7.28499e-05
7.19036e-05
7.28765e-05
6.95974e-05
7.28258e-05
7.25916e-05
7.28315e-05
7.26127e-05
7.2873e-05
7.26321e-05
8.09468e-05
7.46457e-05
8.12504e-05
7.2817e-05
7.18202e-05
9.52378e-05
7.43129e-05
7.43046e-05
7.42809e-05
7.42746e-05
9.54126e-05
7.41998e-05
7.40917e-05
7.01695e-05
6.53147e-05
6.52569e-05
7.40162e-05
7.42374e-05
7.42283e-05
7.40838e-05
7.01464e-05
6.53013e-05
6.52491e-05
7.40083e-05
7.42647e-05
7.26946e-05
6.94264e-05
7.24403e-05
7.23944e-05
7.24854e-05
7.25904e-05
7.26826e-05
7.27849e-05
8.13638e-05
7.44066e-05
7.24459e-05
8.06177e-05
7.27484e-05
6.95849e-05
7.25438e-05
7.28347e-05
7.27642e-05
7.24976e-05
7.26603e-05
7.2346e-05
8.03324e-05
7.42917e-05
8.12665e-05
7.27778e-05
7.2035e-05
7.19782e-05
7.26592e-05
6.91414e-05
7.21859e-05
7.24047e-05
7.23747e-05
7.24374e-05
7.26529e-05
7.27659e-05
8.1238e-05
7.43701e-05
7.24232e-05
8.04942e-05
7.27043e-05
6.93037e-05
7.26264e-05
7.24827e-05
7.27158e-05
7.24418e-05
7.2444e-05
7.23316e-05
8.02203e-05
7.42642e-05
8.11456e-05
7.27676e-05
7.19449e-05
7.18977e-05
9.59814e-05
7.4434e-05
7.44384e-05
7.44481e-05
7.44521e-05
9.61456e-05
7.48039e-05
6.59156e-05
7.41723e-05
7.05504e-05
7.48313e-05
6.5909e-05
7.42392e-05
7.48384e-05
6.58626e-05
7.41708e-05
7.05103e-05
7.48636e-05
6.58547e-05
7.42399e-05
9.60339e-05
7.44313e-05
7.44331e-05
9.58734e-05
7.44276e-05
7.44286e-05
7.49624e-05
7.42563e-05
7.06665e-05
6.59894e-05
6.60418e-05
7.4187e-05
7.48951e-05
7.4999e-05
7.42618e-05
7.06284e-05
6.59357e-05
6.59873e-05
7.41901e-05
7.49337e-05
7.66996e-05
6.74402e-05
7.70639e-05
6.83799e-05
7.2961e-05
7.14266e-05
8.08572e-05
7.53801e-05
7.24417e-05
8.08951e-05
7.60714e-05
6.87509e-05
7.22856e-05
7.16071e-05
7.25e-05
7.22102e-05
7.20977e-05
7.19358e-05
7.52814e-05
7.77123e-05
6.66685e-05
6.66887e-05
7.67252e-05
6.73366e-05
6.83622e-05
7.71259e-05
7.13556e-05
7.30158e-05
8.0799e-05
7.53781e-05
7.24512e-05
8.08594e-05
7.60953e-05
6.86205e-05
7.15016e-05
7.22959e-05
7.25161e-05
7.20132e-05
7.22309e-05
7.19268e-05
7.52831e-05
7.76712e-05
3.22622e-05
3.14043e-05
3.19284e-05
3.18564e-05
3.18275e-05
3.17453e-05
3.25052e-05
4.16739e-05
4.3783e-05
4.2654e-05
4.26189e-05
4.28088e-05
4.27571e-05
4.1222e-05
3.72336e-05
3.65354e-05
3.81419e-05
3.87673e-05
3.85073e-05
3.6825e-05
3.70548e-05
3.71216e-05
3.64182e-05
3.80179e-05
3.86528e-05
3.83907e-05
3.66983e-05
3.69573e-05
5.66924e-05
6.09983e-05
6.24795e-05
5.57719e-05
6.24823e-05
5.5646e-05
5.6665e-05
5.23959e-05
5.10355e-05
5.46505e-05
4.96024e-05
5.44785e-05
4.9958e-05
5.24067e-05
5.78627e-05
6.47919e-05
6.55019e-05
6.11667e-05
6.07372e-05
6.40488e-05
5.80849e-05
4.92969e-05
4.92782e-05
4.75482e-05
4.74157e-05
4.7733e-05
4.90365e-05
4.97355e-05
6.66148e-05
6.6635e-05
5.63185e-05
6.07003e-05
5.54684e-05
6.22151e-05
5.53057e-05
6.2165e-05
5.63716e-05
5.19317e-05
5.05976e-05
4.92185e-05
5.41836e-05
4.95403e-05
5.39928e-05
5.19662e-05
4.89679e-05
4.89215e-05
4.72295e-05
4.71077e-05
4.74038e-05
4.86808e-05
4.93827e-05
5.74184e-05
6.45417e-05
6.51753e-05
6.07993e-05
6.02951e-05
6.37014e-05
5.77008e-05
9.43379e-05
7.72781e-05
7.72922e-05
7.63661e-05
7.63807e-05
8.63896e-05
7.4152e-05
6.58958e-05
7.42318e-05
6.99647e-05
7.4758e-05
6.52173e-05
7.39406e-05
7.41869e-05
6.5854e-05
7.42493e-05
6.9955e-05
7.48009e-05
6.5176e-05
7.39594e-05
6.62821e-05
5.46877e-05
6.00465e-05
6.00148e-05
5.99955e-05
5.99599e-05
6.61933e-05
9.6546e-05
7.62064e-05
7.62188e-05
9.50656e-05
7.60302e-05
7.60451e-05
7.48027e-05
7.4383e-05
7.03103e-05
6.36729e-05
6.54633e-05
7.44158e-05
7.43953e-05
7.48334e-05
7.43996e-05
7.03025e-05
6.36448e-05
6.5427e-05
7.44347e-05
7.44214e-05
7.23076e-05
7.22936e-05
9.71722e-05
7.46825e-05
7.46748e-05
7.47089e-05
7.47017e-05
9.72903e-05
7.61281e-05
7.46717e-05
7.16827e-05
6.72246e-05
7.46612e-05
7.61484e-05
6.71539e-05
7.61524e-05
7.46632e-05
7.16299e-05
6.71869e-05
7.46514e-05
7.61727e-05
6.71201e-05
7.21751e-05
7.2265e-05
7.21701e-05
7.22573e-05
9.72781e-05
7.46532e-05
7.4648e-05
9.72602e-05
7.4591e-05
7.45886e-05
7.62619e-05
6.73471e-05
7.16701e-05
7.44449e-05
7.4469e-05
6.7428e-05
7.61281e-05
7.62895e-05
6.7301e-05
7.16238e-05
7.44502e-05
7.44714e-05
6.73817e-05
7.61582e-05
7.62061e-05
7.46022e-05
6.73907e-05
7.16505e-05
7.6262e-05
7.45883e-05
6.73739e-05
7.6232e-05
7.45961e-05
6.7346e-05
7.16001e-05
7.62867e-05
7.45852e-05
6.73279e-05
9.71489e-05
7.4484e-05
7.44834e-05
7.45581e-05
7.45573e-05
9.71017e-05
7.27605e-05
6.94461e-05
7.26017e-05
7.22848e-05
7.261e-05
7.22789e-05
7.277e-05
7.23913e-05
8.01624e-05
7.42312e-05
8.04585e-05
7.2601e-05
7.28815e-05
7.26433e-05
7.29767e-05
6.97915e-05
7.28926e-05
7.26127e-05
7.29512e-05
7.25375e-05
7.45405e-05
8.0848e-05
7.2807e-05
8.14252e-05
7.28325e-05
8.14156e-05
7.46344e-05
7.26131e-05
8.09908e-05
7.28343e-05
6.97682e-05
7.25588e-05
7.28822e-05
7.28192e-05
7.25998e-05
7.29597e-05
7.27599e-05
7.25969e-05
7.23348e-05
6.95699e-05
7.27557e-05
7.25738e-05
7.23183e-05
7.23741e-05
7.42542e-05
8.01343e-05
8.06413e-05
7.26789e-05
7.26397e-05
8.05567e-05
7.42897e-05
7.23883e-05
8.0165e-05
7.27392e-05
6.95513e-05
7.25336e-05
7.23107e-05
7.25653e-05
7.23483e-05
7.27397e-05
9.50345e-05
7.41489e-05
7.41962e-05
7.41209e-05
7.41763e-05
9.5134e-05
7.41383e-05
7.39112e-05
7.0048e-05
6.53124e-05
7.38551e-05
6.52976e-05
7.4132e-05
7.41795e-05
7.39304e-05
7.01191e-05
6.52752e-05
6.52731e-05
7.38782e-05
7.41701e-05
7.19002e-05
7.19569e-05
7.19951e-05
9.52869e-05
7.41783e-05
7.42257e-05
9.51537e-05
7.4195e-05
7.42383e-05
7.43594e-05
6.54965e-05
7.0231e-05
7.40077e-05
6.55138e-05
7.39428e-05
7.4334e-05
7.43793e-05
6.54164e-05
7.02311e-05
7.40139e-05
7.39523e-05
6.54357e-05
7.4345e-05
7.42323e-05
7.39019e-05
6.54179e-05
7.01273e-05
6.54199e-05
7.42452e-05
7.3962e-05
7.42593e-05
7.39178e-05
6.53556e-05
7.0142e-05
7.4279e-05
7.39745e-05
6.53486e-05
9.53029e-05
7.42415e-05
7.42759e-05
7.42303e-05
7.42693e-05
9.54577e-05
7.19445e-05
7.19838e-05
7.2692e-05
6.93789e-05
7.25314e-05
7.21539e-05
7.25495e-05
7.21754e-05
7.26955e-05
7.23231e-05
8.00381e-05
7.41285e-05
8.03722e-05
7.25264e-05
7.28267e-05
7.28562e-05
7.25807e-05
6.96369e-05
7.28381e-05
7.28178e-05
7.25477e-05
7.25087e-05
7.44942e-05
8.07266e-05
7.27808e-05
8.13094e-05
7.28015e-05
8.13214e-05
7.45889e-05
7.25809e-05
8.08855e-05
7.27798e-05
6.95698e-05
7.26865e-05
7.24946e-05
7.27661e-05
7.28059e-05
7.25344e-05
7.2677e-05
7.25235e-05
7.2172e-05
6.9393e-05
7.26762e-05
7.24966e-05
7.21237e-05
7.22907e-05
7.41197e-05
7.98731e-05
8.0408e-05
7.25967e-05
7.25574e-05
8.03937e-05
7.41596e-05
7.23092e-05
7.99666e-05
7.26552e-05
6.93226e-05
7.24562e-05
7.20206e-05
7.24874e-05
7.21146e-05
7.26566e-05
7.26195e-05
6.86228e-05
7.1692e-05
7.24348e-05
7.16898e-05
7.24274e-05
7.26458e-05
7.23437e-05
7.98837e-05
7.40941e-05
8.01825e-05
7.25573e-05
7.2662e-05
6.8619e-05
7.24511e-05
7.17168e-05
7.24429e-05
7.16934e-05
7.26931e-05
7.23949e-05
7.99346e-05
7.4221e-05
8.01977e-05
7.26155e-05
7.26727e-05
7.17493e-05
7.24568e-05
6.87545e-05
7.26479e-05
7.17523e-05
7.24623e-05
7.23539e-05
7.41588e-05
7.9918e-05
8.03964e-05
7.2666e-05
7.261e-05
8.028e-05
7.41807e-05
7.23527e-05
7.99027e-05
7.26726e-05
6.87722e-05
7.18224e-05
7.24858e-05
7.18166e-05
7.24836e-05
7.2695e-05
7.27227e-05
7.24745e-05
7.1814e-05
6.87893e-05
7.26966e-05
7.24803e-05
7.18347e-05
7.24232e-05
7.43062e-05
8.00732e-05
8.05318e-05
7.2737e-05
7.26771e-05
8.03627e-05
7.43258e-05
7.24154e-05
8.00138e-05
7.27224e-05
6.88131e-05
7.25033e-05
7.19497e-05
7.25015e-05
7.19312e-05
7.2744e-05
9.50196e-05
7.40364e-05
7.40859e-05
7.40308e-05
7.40816e-05
9.50307e-05
7.41329e-05
7.37658e-05
6.99732e-05
6.522e-05
7.37323e-05
6.52697e-05
7.40519e-05
7.41738e-05
7.37866e-05
7.00651e-05
6.52102e-05
6.52802e-05
7.37581e-05
7.40884e-05
7.18151e-05
7.18532e-05
7.18927e-05
9.50095e-05
7.40495e-05
7.4097e-05
9.49779e-05
7.40575e-05
7.41009e-05
7.40479e-05
6.51172e-05
6.99368e-05
7.38091e-05
6.51977e-05
7.3751e-05
7.39504e-05
7.40631e-05
6.50434e-05
6.99476e-05
7.38096e-05
7.37567e-05
6.51334e-05
7.39563e-05
7.39972e-05
7.37372e-05
6.52401e-05
6.98825e-05
6.5173e-05
7.40879e-05
7.37817e-05
7.40203e-05
7.37531e-05
6.52105e-05
6.99134e-05
7.41188e-05
7.37923e-05
6.51217e-05
9.49452e-05
7.40868e-05
7.41209e-05
7.40789e-05
7.41178e-05
9.50028e-05
7.18338e-05
7.18759e-05
7.25563e-05
6.86256e-05
7.16351e-05
7.23712e-05
7.16732e-05
7.23702e-05
7.25713e-05
7.22772e-05
7.9805e-05
7.39996e-05
8.01478e-05
7.24816e-05
7.26212e-05
6.86379e-05
7.16963e-05
7.2396e-05
7.16979e-05
7.23937e-05
7.26418e-05
7.23652e-05
7.9895e-05
7.41866e-05
8.018e-05
7.25825e-05
7.25836e-05
7.16446e-05
7.23818e-05
6.86212e-05
7.25662e-05
7.15997e-05
7.23825e-05
7.22604e-05
7.40119e-05
7.96576e-05
8.01779e-05
7.25713e-05
7.25205e-05
8.01549e-05
7.40425e-05
7.22692e-05
7.97309e-05
7.25797e-05
6.8597e-05
7.15653e-05
7.23973e-05
7.16094e-05
7.23963e-05
7.26003e-05
7.26615e-05
7.17442e-05
7.24088e-05
6.86714e-05
7.26409e-05
7.1737e-05
7.24104e-05
7.23862e-05
7.42537e-05
7.995e-05
8.0426e-05
7.27007e-05
7.26402e-05
8.02999e-05
7.42765e-05
7.238e-05
7.99295e-05
7.26596e-05
6.86601e-05
7.17748e-05
7.24263e-05
7.17842e-05
7.24253e-05
7.26811e-05
7.19988e-05
7.19851e-05
9.5644e-05
7.43449e-05
7.43407e-05
9.54621e-05
7.43609e-05
7.43574e-05
7.46516e-05
6.57509e-05
7.04844e-05
7.42049e-05
7.46609e-05
6.57257e-05
7.41389e-05
7.46762e-05
6.5705e-05
7.04413e-05
7.42014e-05
7.46878e-05
6.56839e-05
7.41338e-05
7.44567e-05
7.40896e-05
6.55031e-05
7.03556e-05
7.44301e-05
6.55461e-05
7.41546e-05
7.4481e-05
7.40823e-05
6.54783e-05
7.03156e-05
7.44551e-05
6.55153e-05
7.41482e-05
9.56779e-05
7.44044e-05
7.44039e-05
9.58696e-05
7.4395e-05
7.43947e-05
7.20638e-05
7.21012e-05
7.20507e-05
7.20872e-05
7.20957e-05
7.19931e-05
7.20981e-05
7.19969e-05
9.64433e-05
7.42768e-05
7.42809e-05
7.43514e-05
7.43554e-05
9.63838e-05
7.58486e-05
6.73472e-05
7.42966e-05
7.11964e-05
7.61181e-05
7.42742e-05
6.71382e-05
7.58918e-05
6.73027e-05
7.43075e-05
7.11858e-05
7.61523e-05
7.42874e-05
6.7098e-05
9.67705e-05
7.44521e-05
7.44539e-05
9.6832e-05
7.4374e-05
7.43758e-05
7.5781e-05
7.41127e-05
7.11283e-05
6.67e-05
7.41173e-05
7.54111e-05
6.70644e-05
7.58278e-05
7.41306e-05
7.1124e-05
6.66692e-05
7.41343e-05
7.5464e-05
6.70275e-05
7.18508e-05
7.19546e-05
7.18572e-05
7.19609e-05
9.59278e-05
7.42721e-05
7.42791e-05
9.60181e-05
7.42321e-05
7.4237e-05
7.48697e-05
6.55112e-05
7.03555e-05
7.38923e-05
7.38562e-05
6.61038e-05
7.43302e-05
7.49276e-05
6.54949e-05
7.03704e-05
7.39112e-05
7.38753e-05
6.6084e-05
7.43842e-05
7.49206e-05
7.39757e-05
6.66143e-05
7.04287e-05
7.53433e-05
7.39968e-05
6.61724e-05
7.49785e-05
7.39947e-05
6.65866e-05
7.04431e-05
7.53982e-05
7.40158e-05
6.61501e-05
9.56109e-05
7.42627e-05
7.42678e-05
7.42908e-05
7.4297e-05
9.51182e-05
7.26833e-05
6.93138e-05
7.24412e-05
7.21558e-05
7.24788e-05
7.22462e-05
7.26825e-05
7.27221e-05
8.07224e-05
7.4293e-05
7.23485e-05
8.0073e-05
7.27122e-05
6.94351e-05
7.25237e-05
7.23191e-05
7.24866e-05
7.27138e-05
7.22595e-05
7.2312e-05
7.99799e-05
7.42325e-05
8.08099e-05
7.27742e-05
7.26271e-05
7.24325e-05
7.23152e-05
6.91249e-05
7.26349e-05
7.23876e-05
7.21237e-05
7.21466e-05
7.409e-05
7.94798e-05
7.28042e-05
8.10431e-05
7.27979e-05
8.1175e-05
7.42154e-05
7.22439e-05
7.99995e-05
7.2593e-05
6.89257e-05
7.2355e-05
7.1856e-05
7.25663e-05
7.23859e-05
7.1999e-05
7.26556e-05
7.24369e-05
7.21248e-05
6.90827e-05
7.2655e-05
7.23986e-05
7.20164e-05
7.22084e-05
7.41689e-05
7.94733e-05
8.09564e-05
7.28815e-05
7.2842e-05
8.09114e-05
7.42673e-05
7.22642e-05
7.98322e-05
7.26354e-05
6.89156e-05
7.23716e-05
7.18661e-05
7.23991e-05
7.19679e-05
7.26132e-05
9.5532e-05
7.43004e-05
7.43103e-05
7.43056e-05
7.43218e-05
9.5688e-05
7.44264e-05
6.5595e-05
7.39761e-05
7.02543e-05
7.40467e-05
7.44722e-05
6.55551e-05
7.44168e-05
6.55154e-05
7.39794e-05
7.02254e-05
6.5478e-05
7.44734e-05
7.40467e-05
9.55923e-05
7.42743e-05
7.43016e-05
7.42772e-05
9.54463e-05
7.42973e-05
7.45703e-05
7.40775e-05
7.036e-05
6.55849e-05
7.40001e-05
6.56597e-05
7.44935e-05
7.45491e-05
7.40717e-05
7.03244e-05
6.55183e-05
6.55871e-05
7.39973e-05
7.44622e-05
7.20239e-05
7.19679e-05
7.19667e-05
7.20491e-05
9.56812e-05
7.43396e-05
7.4346e-05
9.5554e-05
7.4338e-05
7.43364e-05
7.45757e-05
6.53552e-05
7.02907e-05
7.40831e-05
6.56234e-05
7.40079e-05
7.43158e-05
7.45207e-05
6.53252e-05
7.02461e-05
7.40682e-05
7.39945e-05
6.55768e-05
7.42579e-05
7.44978e-05
7.40126e-05
6.569e-05
7.02637e-05
6.55551e-05
7.46293e-05
7.40973e-05
7.44478e-05
7.40042e-05
6.5631e-05
7.022e-05
7.45875e-05
7.40863e-05
6.55042e-05
9.54855e-05
7.44129e-05
7.44016e-05
7.4426e-05
7.44193e-05
9.51384e-05
7.19629e-05
7.20436e-05
7.2622e-05
6.89672e-05
7.24e-05
7.1787e-05
7.24211e-05
7.18703e-05
7.26315e-05
7.26485e-05
8.04352e-05
7.41645e-05
7.22693e-05
7.97718e-05
7.26405e-05
6.90983e-05
7.24495e-05
7.19941e-05
7.24214e-05
7.26355e-05
7.18887e-05
7.22447e-05
7.96699e-05
7.41125e-05
8.04968e-05
7.27163e-05
7.2616e-05
7.21127e-05
7.24057e-05
6.88636e-05
7.26171e-05
7.19288e-05
7.23773e-05
7.21504e-05
7.4079e-05
7.94179e-05
7.2812e-05
8.09638e-05
7.27971e-05
8.10707e-05
7.42002e-05
7.22385e-05
7.99089e-05
7.25913e-05
6.86907e-05
7.1705e-05
7.23608e-05
7.25728e-05
7.18307e-05
7.23809e-05
7.26278e-05
7.24057e-05
7.17685e-05
6.87656e-05
7.26156e-05
7.23817e-05
7.16899e-05
7.21842e-05
7.41106e-05
7.92322e-05
8.06829e-05
7.28719e-05
7.28063e-05
8.06037e-05
7.41914e-05
7.22159e-05
7.95439e-05
7.26099e-05
6.86343e-05
7.23731e-05
7.15835e-05
7.23895e-05
7.16595e-05
7.26103e-05
7.27064e-05
6.89445e-05
7.19513e-05
7.25048e-05
7.19584e-05
7.25144e-05
7.27244e-05
7.27265e-05
8.05351e-05
7.42522e-05
7.99237e-05
7.23456e-05
7.27131e-05
6.89299e-05
7.18933e-05
7.25025e-05
7.18982e-05
7.26922e-05
7.24993e-05
7.23252e-05
7.9909e-05
7.421e-05
8.06969e-05
7.27938e-05
7.27496e-05
6.90082e-05
7.25185e-05
7.21189e-05
7.25293e-05
7.21249e-05
7.27642e-05
7.27968e-05
8.07066e-05
7.43912e-05
7.24164e-05
8.01059e-05
7.27589e-05
6.8992e-05
7.25189e-05
7.20429e-05
7.27401e-05
7.25151e-05
7.20546e-05
7.23937e-05
8.01037e-05
7.43428e-05
8.08885e-05
7.28596e-05
7.27268e-05
7.19843e-05
7.25187e-05
6.90293e-05
7.27129e-05
7.1957e-05
7.24987e-05
7.22458e-05
7.42146e-05
7.95533e-05
8.10024e-05
7.29233e-05
7.28745e-05
8.08799e-05
7.42984e-05
7.22912e-05
7.98417e-05
7.27124e-05
6.89886e-05
7.19169e-05
7.24893e-05
7.19579e-05
7.25077e-05
7.27057e-05
7.27593e-05
7.2531e-05
7.21522e-05
6.90934e-05
7.27493e-05
7.25095e-05
7.21251e-05
7.2299e-05
7.43057e-05
7.97319e-05
8.11925e-05
7.29699e-05
7.2932e-05
8.10771e-05
7.44008e-05
7.23534e-05
8.00342e-05
7.27443e-05
6.90517e-05
7.24977e-05
7.20838e-05
7.25172e-05
7.21256e-05
7.27295e-05
9.49244e-05
7.41795e-05
7.41917e-05
7.41715e-05
7.41883e-05
9.50632e-05
7.39207e-05
6.51569e-05
7.37759e-05
6.98533e-05
7.38503e-05
7.40224e-05
6.5066e-05
7.39046e-05
6.50765e-05
7.37716e-05
6.98102e-05
6.49804e-05
7.40178e-05
7.38414e-05
9.50184e-05
7.41177e-05
7.41468e-05
7.41259e-05
9.4925e-05
7.41494e-05
7.40185e-05
7.39054e-05
6.99405e-05
6.50231e-05
7.3813e-05
6.51281e-05
7.39123e-05
7.399e-05
7.38894e-05
6.98817e-05
6.4931e-05
6.50383e-05
7.38002e-05
7.38722e-05
7.1924e-05
7.18777e-05
7.19456e-05
7.20123e-05
9.50932e-05
7.42434e-05
7.42498e-05
9.4937e-05
7.42578e-05
7.42583e-05
7.40091e-05
6.48232e-05
6.99032e-05
7.39911e-05
6.50529e-05
7.39073e-05
7.37951e-05
7.39406e-05
6.47532e-05
6.98212e-05
7.39688e-05
7.38865e-05
6.49703e-05
7.37257e-05
7.39114e-05
7.38604e-05
6.51113e-05
6.98602e-05
6.49767e-05
7.40351e-05
7.397e-05
7.38502e-05
7.3842e-05
6.50189e-05
6.97782e-05
7.39833e-05
7.39501e-05
6.48872e-05
9.4918e-05
7.43831e-05
7.43708e-05
7.43846e-05
7.43767e-05
9.4614e-05
7.19372e-05
7.20003e-05
7.26224e-05
6.85724e-05
7.15351e-05
7.244e-05
7.15627e-05
7.24404e-05
7.26507e-05
7.26371e-05
8.02347e-05
7.41029e-05
7.95946e-05
7.22516e-05
7.26226e-05
6.85933e-05
7.15802e-05
7.24158e-05
7.15424e-05
7.25982e-05
7.24167e-05
7.22416e-05
7.95478e-05
7.40685e-05
8.0343e-05
7.27209e-05
7.26966e-05
6.8681e-05
7.18591e-05
7.2463e-05
7.18637e-05
7.24659e-05
7.27188e-05
7.27656e-05
8.05681e-05
7.43375e-05
7.23822e-05
7.99587e-05
7.27005e-05
6.86912e-05
7.1823e-05
7.24447e-05
7.26783e-05
7.18149e-05
7.2445e-05
7.23662e-05
7.99516e-05
7.42915e-05
8.0735e-05
7.28372e-05
7.26809e-05
7.15595e-05
7.24654e-05
6.86346e-05
7.26515e-05
7.15425e-05
7.24589e-05
7.22123e-05
7.4142e-05
7.92627e-05
8.06725e-05
7.29077e-05
7.28272e-05
8.05142e-05
7.42051e-05
7.22286e-05
7.94943e-05
7.2677e-05
6.86333e-05
7.15562e-05
7.24746e-05
7.15699e-05
7.24826e-05
7.26904e-05
7.27319e-05
7.19006e-05
7.24858e-05
6.87674e-05
7.27123e-05
7.18855e-05
7.24762e-05
7.22939e-05
7.42779e-05
7.96242e-05
8.10671e-05
7.29719e-05
7.29212e-05
8.09286e-05
7.4366e-05
7.23362e-05
7.98975e-05
7.27193e-05
6.87568e-05
7.18636e-05
7.24858e-05
7.18974e-05
7.24964e-05
7.2722e-05
7.21376e-05
7.20773e-05
7.2129e-05
7.20708e-05
9.61457e-05
7.44632e-05
7.44701e-05
9.60168e-05
7.44494e-05
7.44549e-05
7.49841e-05
6.58116e-05
7.06109e-05
7.42205e-05
7.47218e-05
6.60666e-05
7.41519e-05
7.50257e-05
6.57663e-05
7.05888e-05
7.42334e-05
7.47627e-05
6.6018e-05
7.41645e-05
7.49065e-05
7.41815e-05
6.61133e-05
7.05849e-05
7.50371e-05
6.59918e-05
7.42541e-05
7.49478e-05
7.41895e-05
6.60609e-05
7.056e-05
7.50772e-05
6.59417e-05
7.42645e-05
9.59489e-05
7.4504e-05
7.45103e-05
9.55946e-05
7.4524e-05
7.45313e-05
7.2043e-05
7.21316e-05
7.20453e-05
7.21318e-05
6.64605e-05
6.64731e-05
6.64691e-05
6.64817e-05
9.35461e-05
7.71307e-05
7.71437e-05
7.61361e-05
7.61474e-05
8.55434e-05
7.34816e-05
6.54914e-05
7.38887e-05
6.93019e-05
7.42636e-05
7.35569e-05
6.45776e-05
7.35269e-05
6.54799e-05
7.39081e-05
6.93115e-05
7.43186e-05
7.35769e-05
6.45669e-05
6.5475e-05
5.40228e-05
5.92208e-05
5.92064e-05
6.53019e-05
5.92349e-05
5.92167e-05
9.5765e-05
7.59012e-05
7.59126e-05
9.43554e-05
7.57715e-05
7.57828e-05
7.39855e-05
7.40622e-05
6.96099e-05
6.28183e-05
7.40498e-05
7.34744e-05
6.47293e-05
7.40218e-05
7.40732e-05
6.96183e-05
6.2814e-05
7.40661e-05
7.35024e-05
6.47212e-05
7.79485e-05
7.7963e-05
8.45587e-05
5.88771e-05
5.88696e-05
6.68988e-05
7.60038e-05
6.26633e-05
7.35229e-05
7.60126e-05
6.26611e-05
7.35495e-05
7.67522e-05
6.74841e-05
7.70607e-05
6.85716e-05
7.29654e-05
7.15644e-05
8.08951e-05
7.55035e-05
7.25272e-05
8.09922e-05
7.61298e-05
6.87939e-05
7.23032e-05
7.16998e-05
7.22306e-05
7.25596e-05
7.22195e-05
7.21708e-05
7.54076e-05
7.7881e-05
5.64183e-05
6.06026e-05
6.20212e-05
5.53758e-05
6.20814e-05
5.53014e-05
5.62492e-05
5.24425e-05
5.09758e-05
5.44435e-05
4.9463e-05
4.99318e-05
5.4448e-05
5.2314e-05
5.7634e-05
6.43266e-05
6.52662e-05
6.08299e-05
6.37486e-05
6.05754e-05
5.77399e-05
4.92119e-05
4.9029e-05
4.74286e-05
4.72153e-05
4.76203e-05
4.90324e-05
4.94955e-05
5.64768e-05
6.06443e-05
6.21832e-05
5.54082e-05
6.22207e-05
5.53196e-05
5.63944e-05
5.23379e-05
5.09839e-05
5.45598e-05
4.95172e-05
5.23184e-05
5.44342e-05
4.98972e-05
5.77578e-05
6.45763e-05
6.5469e-05
6.11017e-05
6.39131e-05
5.79173e-05
6.07085e-05
4.91719e-05
4.90262e-05
4.73979e-05
4.72382e-05
4.89457e-05
4.95386e-05
4.76019e-05
6.27477e-05
5.50914e-05
5.62677e-05
5.423e-05
4.85071e-05
5.16383e-05
6.43432e-05
6.07491e-05
5.76082e-05
4.89404e-05
4.64412e-05
4.94615e-05
6.29614e-05
5.51447e-05
5.64444e-05
5.45333e-05
4.87257e-05
5.18362e-05
6.46107e-05
6.10849e-05
5.78862e-05
4.89716e-05
4.65453e-05
4.95667e-05
9.39344e-05
7.72632e-05
7.72896e-05
7.63264e-05
7.63298e-05
8.60567e-05
7.37412e-05
6.54351e-05
7.41074e-05
6.96144e-05
7.38196e-05
7.43521e-05
6.47547e-05
7.36833e-05
6.54161e-05
7.40911e-05
6.95678e-05
6.47477e-05
7.43015e-05
7.37991e-05
6.58036e-05
5.41902e-05
5.95486e-05
5.95632e-05
5.94893e-05
5.9484e-05
6.57401e-05
9.6126e-05
7.61001e-05
7.60911e-05
7.59706e-05
9.46217e-05
7.59673e-05
7.44147e-05
7.43244e-05
6.99643e-05
6.32358e-05
7.43198e-05
6.50066e-05
7.405e-05
7.43623e-05
7.43142e-05
6.99215e-05
6.32559e-05
6.50064e-05
7.43069e-05
7.40029e-05
6.667e-05
6.66922e-05
7.80696e-05
7.81023e-05
8.5095e-05
5.93686e-05
5.93987e-05
6.74175e-05
7.62174e-05
6.31159e-05
7.41186e-05
7.6217e-05
6.31422e-05
7.40728e-05
5.62779e-05
6.04635e-05
6.19452e-05
5.52472e-05
6.19891e-05
5.51494e-05
5.61725e-05
5.23688e-05
5.09361e-05
5.43989e-05
4.94185e-05
4.98757e-05
5.43919e-05
5.22537e-05
5.75635e-05
6.42905e-05
6.52339e-05
6.07996e-05
6.36819e-05
6.05291e-05
5.7682e-05
4.90522e-05
4.88907e-05
4.72856e-05
4.71111e-05
4.74899e-05
4.88449e-05