/*--------------------------------*- C++ -*----------------------------------*\
| =========                 |                                                 |
| \\      /  F ield         | OpenFOAM: The Open Source CFD Toolbox           |
|  \\    /   O peration     | Version:  v2006                                 |
|   \\  /    A nd           | Website:  www.openfoam.com                      |
|    \\/     M anipulation  |                                                 |
\*---------------------------------------------------------------------------*/
FoamFile
{
    version     2.0;
    format      ascii;
    class       volScalarField;
    location    "750";
    object      nut;
}
// * * * * * * * * * * * * * * * * * * * * * * * * * * * * * * * * * * * * * //

dimensions      [0 2 -1 0 0 0 0];


internalField   nonuniform List<scalar> 
14314
(
0.0002485
0.000214996
0.000213573
0.000191449
0.000251246
0.000218145
0.000214518
0.00019801
0.000199879
0.000224062
0.00021586
0.000190518
0.000223776
0.000214944
0.000214197
0.000214467
0.000189747
0.00021363
0.000214326
0.000190908
0.000199973
0.000197153
0.000224872
0.000216417
0.000225347
0.000219619
0.000190628
0.000193059
0.000224501
0.000214888
0.000224556
0.000216162
0.000216172
0.000218975
0.000221912
0.000189457
0.000189706
0.000215813
0.000215538
0.000221096
0.000195567
0.000197896
0.000221631
0.000218291
0.000195257
0.000221044
0.000214877
0.000244313
0.00024012
0.000246701
0.000221377
0.000191881
0.000220617
0.000101904
5.1179e-05
2.40204e-05
0.000101772
5.1159e-05
0.000246007
0.000234756
0.000234531
0.000231591
0.000146189
0.000211498
0.000103895
0.000223874
2.40042e-05
0.00014646
0.000212693
0.000225318
0.000103913
0.000187841
7.77778e-05
7.77326e-05
0.000101365
5.10874e-05
0.00010186
5.10691e-05
2.40233e-05
2.40445e-05
0.000100831
5.10676e-05
0.000101369
5.10553e-05
0.000237664
0.00023618
0.000235891
0.000250448
0.000240956
0.000237244
0.000242758
0.000147532
0.000104209
0.000231255
0.000215944
0.000147039
0.000104227
0.000232492
2.40058e-05
2.40318e-05
0.000146231
0.000229987
0.00010359
0.000213767
0.000146336
0.000230469
0.000103309
7.82485e-05
7.8186e-05
0.000193089
7.82298e-05
7.81803e-05
0.000109113
5.51023e-05
0.000100974
8.59721e-05
2.70571e-05
4.6423e-05
0.000108917
5.50951e-05
0.000100633
8.59625e-05
0.000269966
0.000262444
0.00026017
0.000244899
0.000268815
0.000258862
0.000256671
0.000153024
0.000106651
0.000238907
0.000218686
0.000149065
0.000109352
0.000238449
2.70552e-05
4.63305e-05
0.000151771
0.000235409
0.000105686
0.000215204
0.000147618
0.000235101
0.000108791
7.84156e-05
7.83672e-05
0.000203061
8.67472e-05
8.67243e-05
2.40848e-05
2.40799e-05
0.000196574
7.98332e-05
7.9744e-05
2.40615e-05
2.40726e-05
2.40589e-05
2.40681e-05
0.000197756
7.97591e-05
7.96852e-05
7.99397e-05
7.98507e-05
0.000101525
5.1027e-05
0.000149742
0.000219153
0.000107023
0.000232198
0.000149007
0.000213037
0.00010426
0.000229688
0.000101941
5.1125e-05
5.11591e-05
0.000102005
0.000101552
5.10379e-05
5.10196e-05
0.000101602
0.000150249
0.000222349
0.000107187
0.000238414
0.000107252
0.000235988
0.000150686
0.000149458
0.000214822
0.000104449
0.000234795
0.000104437
0.0002328
0.000149789
0.000189261
7.75666e-05
7.77712e-05
2.40206e-05
2.40305e-05
2.40158e-05
0.000189663
7.77227e-05
7.77997e-05
7.76888e-05
7.78498e-05
2.40301e-05
2.40152e-05
0.000149669
0.000219183
0.000106895
0.000232545
0.000101387
5.0985e-05
0.000148981
0.00021392
0.000230445
0.000104138
0.000101779
5.11039e-05
5.11383e-05
0.000101634
0.000149975
0.000222192
0.000107007
0.000237792
0.000107111
0.000235786
0.000150154
0.000101377
5.09874e-05
5.09743e-05
0.000101187
0.000149184
0.000214643
0.000234029
0.000103913
0.00023267
0.000104211
0.000149185
9.99621e-05
5.09825e-05
0.000146128
0.000209376
0.00022269
0.000103941
9.99671e-05
5.10263e-05
0.000146424
0.000213196
0.000104014
0.000229178
0.000104028
0.000227055
0.000146813
9.99756e-05
5.10107e-05
5.09776e-05
0.000100178
0.000146433
0.00021232
0.000229081
0.000104485
0.000226516
0.000104201
0.000146945
9.99961e-05
5.10589e-05
5.10234e-05
0.000100262
0.000189978
7.74893e-05
7.7722e-05
2.40047e-05
2.40123e-05
2.39984e-05
0.0001899
7.73306e-05
7.74235e-05
7.75304e-05
7.7718e-05
2.40111e-05
2.39979e-05
0.000146388
0.000209708
0.000223715
0.000103926
9.99936e-05
5.09444e-05
0.000100004
5.10105e-05
0.000146473
0.000213321
0.000229079
0.000103521
0.000227557
0.000103923
0.000146365
0.000146513
0.000212421
0.00022891
0.00010433
0.000226886
0.000104147
0.000146553
9.99463e-05
5.09579e-05
5.09344e-05
9.98696e-05
9.99779e-05
5.10382e-05
5.1006e-05
9.99727e-05
2.40371e-05
2.40334e-05
0.000188875
7.80967e-05
7.80345e-05
7.79683e-05
7.79108e-05
2.40489e-05
2.4033e-05
2.40455e-05
2.40291e-05
2.40457e-05
2.4043e-05
2.40433e-05
2.40414e-05
7.96986e-05
7.96397e-05
0.000200426
7.87899e-05
7.87887e-05
2.47678e-05
2.40371e-05
2.47667e-05
2.40355e-05
0.000198673
7.89289e-05
7.89355e-05
7.86173e-05
7.86213e-05
0.00010114
5.10232e-05
0.000101506
5.10568e-05
0.000149918
0.000107217
0.000239766
0.000226546
0.00015069
0.000106215
0.000240888
0.000149269
0.000104641
0.000235892
0.000217272
0.0001498
0.000104557
0.00023667
0.000101096
5.21864e-05
5.10565e-05
0.000101382
0.000100939
5.22149e-05
5.10573e-05
0.000101337
0.000149611
0.000225132
0.00010649
0.000238657
0.000106155
0.00024163
0.000149087
0.000149042
0.00021654
0.000106155
0.000235465
0.000104852
0.00023752
0.000148878
7.78617e-05
7.79024e-05
0.000191364
7.78028e-05
7.77839e-05
2.40229e-05
2.40444e-05
2.47889e-05
2.40446e-05
0.000191219
7.89137e-05
7.88411e-05
7.7913e-05
7.78794e-05
2.47888e-05
2.40444e-05
0.000148796
0.000107026
0.000238782
0.000226086
0.000150005
0.000106031
0.000239578
0.000100497
5.09733e-05
0.000100942
5.10155e-05
0.000147921
0.000234549
0.000104009
0.000215139
0.000149018
0.000234782
0.000103724
0.000100561
5.21774e-05
5.10439e-05
0.000100906
0.000148489
0.000224419
0.000106352
0.000236296
0.000105984
0.000239921
0.000148073
0.000100295
5.21927e-05
5.10205e-05
0.000100781
0.00014769
0.000213384
0.00023218
0.000105321
0.000235008
0.000103984
0.000147677
0.000100517
5.10019e-05
0.000100198
5.10552e-05
0.000147783
0.000231665
0.000104762
0.000217968
0.000147224
0.000233243
0.000104934
0.000100631
5.10494e-05
0.000100288
5.10964e-05
0.000147686
0.000215422
0.000106033
0.000233667
0.000104562
0.000233829
0.000148833
0.000100563
5.22311e-05
5.10612e-05
0.000101403
0.00014794
0.000217779
0.00023496
0.000106811
0.000234878
0.000105304
0.000149097
0.000100677
5.22611e-05
5.10991e-05
0.000101517
7.74049e-05
7.74521e-05
0.000189064
7.72226e-05
7.71711e-05
2.40043e-05
2.40312e-05
2.47862e-05
2.40342e-05
0.00018856
7.83332e-05
7.81975e-05
7.73345e-05
7.72577e-05
2.47865e-05
2.4034e-05
0.000146645
0.000230833
0.000104579
0.00021741
0.000146578
0.000231941
0.000104703
9.97763e-05
5.09486e-05
9.98044e-05
5.101e-05
9.99714e-05
5.10284e-05
9.9922e-05
5.10775e-05
0.000146287
0.00021243
0.000230712
0.000105068
0.000231344
0.000103583
0.000147381
0.000146746
0.000217143
0.000232979
0.000106575
0.000233195
0.000105064
0.000147882
9.98121e-05
5.22081e-05
5.10214e-05
0.000100699
0.000100022
5.225e-05
5.10826e-05
0.000100929
2.40415e-05
2.40609e-05
2.40384e-05
2.40584e-05
0.000193191
7.93669e-05
7.93266e-05
7.83466e-05
7.83026e-05
2.48014e-05
2.40599e-05
2.48006e-05
2.4058e-05
2.7029e-05
4.62401e-05
2.70284e-05
4.62407e-05
7.7891e-05
7.78851e-05
0.000199684
8.5654e-05
8.5642e-05
0.000201911
8.57567e-05
8.57434e-05
0.00010919
5.51462e-05
0.000101002
8.58943e-05
0.000151754
0.000106969
0.000241395
0.00021862
0.000149026
0.000108759
0.000237432
0.000151852
0.000106752
0.000239672
0.000218273
0.000148885
0.000109256
0.000236943
0.00015826
0.000217942
0.00010781
0.000235841
0.000158454
0.000219008
0.000108372
0.000235892
7.7973e-05
7.78932e-05
0.000200029
8.62351e-05
8.61919e-05
2.70585e-05
4.64221e-05
0.000203473
8.63585e-05
8.63143e-05
0.000151186
0.000106833
0.000239293
0.000218305
0.000148091
0.000108716
0.000235836
0.000108932
5.51277e-05
0.000100606
8.58529e-05
0.000151094
0.000236203
0.000105915
0.00021519
0.00014777
0.000234198
0.000108757
0.000157898
0.000217762
0.000107779
0.000234617
0.000157905
0.000216321
0.000233707
0.00010797
0.000268476
0.000258035
0.000255303
0.000243138
0.00026599
0.00025727
0.000257026
0.000266356
0.000253796
0.000251387
0.000238963
0.000263713
0.000253349
0.000253145
0.000267152
0.000256109
0.000254093
0.000246459
0.000263864
0.000258211
0.000255932
0.000270433
0.000241253
0.00025617
0.000254397
0.000269676
0.00024195
0.000255679
0.000257332
0.000267609
0.00023828
0.00025244
0.00025373
0.000268772
0.000245644
0.000258577
0.000256369
0.000110119
5.51676e-05
0.000101403
8.5931e-05
0.000153292
0.000240397
0.000107444
0.000222055
0.000149331
0.000239765
0.000109963
0.000110203
5.51982e-05
0.000101517
8.59439e-05
0.000160104
0.000219641
0.00010849
0.00023861
0.000160348
0.00022288
0.000239808
0.000109053
7.74316e-05
7.73016e-05
0.000197029
8.58729e-05
8.58175e-05
2.70563e-05
4.63276e-05
0.000200886
8.59913e-05
8.59375e-05
0.000152211
0.00023811
0.000107203
0.000221469
0.000148119
0.000237483
0.000109846
0.000109608
5.51497e-05
0.000100835
8.5877e-05
0.000109726
5.51896e-05
0.000101021
8.5916e-05
0.000159074
0.000216569
0.000235547
0.000108072
0.000159473
0.000222451
0.000237696
0.000108964
2.70727e-05
4.65728e-05
2.70719e-05
4.65695e-05
0.00020648
8.68794e-05
8.68568e-05
4.73231e-05
4.73235e-05
0.000108545
8.68417e-05
0.000108627
8.67925e-05
4.75172e-05
4.75195e-05
0.00010839
8.68264e-05
0.000108413
8.6699e-05
0.000109592
8.68306e-05
0.000109666
8.68887e-05
4.74242e-05
4.74251e-05
0.00010914
8.67244e-05
0.000109248
8.685e-05
4.76728e-05
4.76694e-05
3.69859e-05
0.000101679
4.13493e-05
9.6391e-05
4.13524e-05
9.63519e-05
3.69863e-05
2.04555e-05
8.01771e-05
5.11735e-05
8.03546e-05
2.04817e-05
2.40103e-05
3.69735e-05
0.000101642
9.62706e-05
4.13311e-05
9.62678e-05
4.13368e-05
3.69729e-05
2.04506e-05
8.00976e-05
5.11545e-05
8.02928e-05
2.04768e-05
2.39956e-05
8.12794e-05
2.18292e-05
2.18254e-05
2.18244e-05
2.1821e-05
8.14228e-05
0.000105101
4.8925e-05
7.77516e-05
0.000129579
0.00012939
4.88997e-05
0.000105185
0.000105079
4.89083e-05
7.77118e-05
0.000129542
0.000129368
4.88831e-05
0.000105156
3.69363e-05
0.000101502
4.13052e-05
9.55997e-05
4.13112e-05
9.60488e-05
3.6939e-05
2.0475e-05
8.02795e-05
5.1088e-05
2.04262e-05
7.96568e-05
3.69471e-05
0.000101745
4.1322e-05
9.63798e-05
3.69494e-05
4.1311e-05
9.60448e-05
2.04147e-05
7.92512e-05
5.10541e-05
8.00453e-05
2.04785e-05
2.40353e-05
2.40284e-05
3.69264e-05
0.000100971
9.52373e-05
4.12935e-05
9.56753e-05
4.12963e-05
3.69305e-05
2.04719e-05
8.01372e-05
5.10698e-05
2.0423e-05
7.95154e-05
3.69347e-05
0.000101236
9.60395e-05
4.13031e-05
3.69359e-05
9.56799e-05
4.12943e-05
2.04123e-05
7.91177e-05
5.1039e-05
7.99042e-05
2.04769e-05
2.40191e-05
2.40138e-05
8.20463e-05
2.18565e-05
2.18549e-05
2.18543e-05
2.18524e-05
8.21674e-05
0.0001062
0.000131144
4.89569e-05
7.81767e-05
0.000106177
0.00013125
4.89822e-05
0.00010618
0.000130978
4.8942e-05
7.81184e-05
0.000106152
0.000131078
4.8968e-05
8.20288e-05
2.18485e-05
2.18462e-05
8.19139e-05
2.18492e-05
2.18468e-05
0.000106442
4.90057e-05
7.83349e-05
0.000131613
0.000131531
4.89709e-05
0.000106463
0.000106425
4.89933e-05
7.82772e-05
0.000131438
0.000131356
4.89575e-05
0.000106452
9.66126e-06
0.000105654
1.07746e-05
0.00010215
2.05513e-05
0.000100081
7.98892e-05
9.1534e-05
2.03626e-05
8.26471e-05
1.03102e-05
0.000104453
4.26912e-05
9.58995e-05
3.61854e-05
4.343e-05
9.76101e-05
9.18358e-05
9.02148e-05
8.57786e-05
3.42522e-05
3.71513e-05
9.66293e-06
0.000105356
0.000102054
1.07787e-05
9.98887e-05
2.05594e-05
7.98104e-05
9.15514e-05
2.0364e-05
8.2594e-05
1.03118e-05
0.000104121
9.56776e-05
4.26928e-05
3.61887e-05
9.74122e-05
4.34353e-05
9.17831e-05
9.0229e-05
8.56878e-05
0.000269164
0.000269672
0.000271531
0.000270332
0.000270596
0.00026915
0.000270588
0.000247521
0.000246017
0.000246234
0.000245792
0.000247899
0.000247277
0.000246312
0.000259421
0.000258503
0.000259208
0.000258797
0.000258976
0.000259436
0.000258445
0.00025753
0.000256366
0.000257149
0.000256948
0.000257104
0.000257244
0.000256711
0.000186553
0.000152628
0.000149097
0.000192685
0.000145067
0.000192085
0.000187636
0.000217528
0.000218418
0.000210856
0.000222026
0.000212577
0.000221448
0.000217208
0.000177682
0.000130031
0.00011186
0.000168881
0.000163429
0.000132683
0.000178585
0.000236158
0.000237204
0.00023846
0.000237542
0.00023774
0.000237587
0.000235442
3.41935e-05
3.70852e-05
0.000184241
0.00015125
0.000190581
0.000147907
0.000189816
0.000143828
0.000185709
0.000213948
0.000214812
0.000218423
0.000207398
0.000217753
0.000209337
0.000213722
0.000232946
0.000233692
0.000235038
0.000234105
0.000234257
0.000234074
0.000232057
0.000175158
0.000129115
0.000110999
0.00016694
0.000161388
0.000131476
0.00017633
8.92726e-05
6.04124e-06
6.04169e-06
1.13764e-05
1.13775e-05
9.06323e-05
0.000113867
0.000133954
5.07547e-05
8.77391e-05
0.000108647
0.000138155
5.34767e-05
0.000113906
0.000133786
5.07493e-05
8.77087e-05
0.000108655
0.000138012
5.34781e-05
0.000149335
0.000202849
0.00018022
0.000180076
0.000179956
0.000179798
0.000151647
8.41118e-05
2.33047e-05
2.33047e-05
8.46473e-05
1.21547e-05
1.21558e-05
0.000112995
2.64651e-05
8.6369e-05
0.000147118
0.000141957
2.43824e-05
0.00011268
0.000113022
2.6468e-05
8.63334e-05
0.000146998
0.000141835
2.43856e-05
0.000112714
2.40812e-05
2.40758e-05
8.3207e-05
2.18852e-05
2.18816e-05
2.18886e-05
2.1885e-05
8.33603e-05
0.000108455
4.91209e-05
7.98442e-05
0.000134472
4.91167e-05
0.000108577
0.000134142
0.000108411
4.91023e-05
7.97537e-05
0.000134348
4.90977e-05
0.000108531
0.000134033
2.40598e-05
2.40747e-05
2.40566e-05
2.40705e-05
8.34018e-05
2.18811e-05
2.18778e-05
8.33791e-05
2.18722e-05
2.18693e-05
0.000108911
0.000135297
7.99182e-05
4.90513e-05
4.90581e-05
0.000135274
0.000108818
0.000108866
0.00013513
7.98347e-05
4.9037e-05
4.90426e-05
0.000135113
0.000108776
0.000108795
4.90993e-05
0.000135003
7.98704e-05
0.000108788
4.9096e-05
0.000135107
0.000108749
4.90815e-05
0.000134851
7.97834e-05
0.000108742
4.90788e-05
0.000134949
8.33488e-05
2.18573e-05
2.18547e-05
2.18676e-05
2.1865e-05
8.32897e-05
3.69424e-05
0.000101328
4.13345e-05
9.54163e-05
4.13366e-05
9.54056e-05
3.69449e-05
2.04151e-05
7.90802e-05
5.10126e-05
7.92953e-05
2.04447e-05
3.69768e-05
4.13472e-05
9.64929e-05
0.000102014
3.69795e-05
4.1339e-05
9.64642e-05
2.04381e-05
5.11279e-05
7.99684e-05
2.04764e-05
8.04261e-05
2.04795e-05
8.04547e-05
5.11589e-05
2.04485e-05
8.01453e-05
3.6965e-05
0.000102014
4.13249e-05
9.64147e-05
3.6962e-05
4.13356e-05
9.65041e-05
3.69431e-05
4.13333e-05
9.54974e-05
0.000101615
3.69414e-05
4.13274e-05
9.54656e-05
2.04134e-05
5.10224e-05
7.9001e-05
7.93931e-05
2.04567e-05
2.04505e-05
7.93583e-05
5.1034e-05
2.04147e-05
7.90632e-05
3.69384e-05
0.000101597
4.13171e-05
9.54455e-05
4.13256e-05
9.55177e-05
3.69391e-05
8.10921e-05
2.18031e-05
2.18124e-05
2.17991e-05
2.18094e-05
8.11564e-05
0.000105079
4.88532e-05
7.75867e-05
0.000129794
4.88346e-05
0.00012973
0.000105073
0.00010523
4.88721e-05
7.78148e-05
0.000129819
0.000129787
4.88546e-05
0.000105236
2.40111e-05
2.40197e-05
2.4026e-05
8.12915e-05
2.18075e-05
2.18168e-05
8.1183e-05
2.18104e-05
2.18186e-05
0.000105354
0.000130221
7.77847e-05
4.88876e-05
0.000130202
4.88652e-05
0.00010534
0.000105498
0.000130104
7.78804e-05
4.89015e-05
4.88802e-05
0.000130094
0.000105481
0.000105198
4.88504e-05
0.000130002
7.76508e-05
0.000130048
0.000105204
4.88708e-05
0.000105356
4.8868e-05
0.000129946
7.7791e-05
0.00010536
4.8887e-05
0.000129965
8.13351e-05
2.18178e-05
2.18247e-05
2.18161e-05
2.18232e-05
8.14647e-05
2.40194e-05
2.40255e-05
3.69247e-05
0.000101298
4.13136e-05
9.52888e-05
4.13185e-05
9.53233e-05
3.69256e-05
2.04059e-05
7.89815e-05
5.09745e-05
7.92446e-05
2.04346e-05
3.69621e-05
9.63338e-05
4.13284e-05
0.000101802
3.69644e-05
9.62949e-05
4.13194e-05
2.04343e-05
5.11062e-05
7.98346e-05
2.0473e-05
8.03014e-05
2.04751e-05
8.03577e-05
5.11376e-05
2.04437e-05
8.00352e-05
3.69508e-05
0.000101725
9.61192e-05
4.13053e-05
3.69479e-05
9.62967e-05
4.13159e-05
3.69213e-05
4.13119e-05
9.53176e-05
0.000101381
3.69211e-05
4.13044e-05
9.52325e-05
2.04013e-05
5.09727e-05
7.87167e-05
7.91503e-05
2.04448e-05
2.04389e-05
7.92107e-05
5.09861e-05
2.0404e-05
7.88675e-05
3.69161e-05
0.000101275
4.12941e-05
9.50309e-05
4.1302e-05
9.521e-05
3.69172e-05
3.6908e-05
9.98795e-05
9.44351e-05
4.12851e-05
9.44458e-05
4.12829e-05
3.69147e-05
2.041e-05
7.88352e-05
5.09659e-05
7.90567e-05
2.04402e-05
3.69173e-05
9.98532e-05
4.12902e-05
9.44368e-05
4.12878e-05
9.44091e-05
3.69253e-05
2.04159e-05
7.88216e-05
5.10066e-05
7.89978e-05
2.04471e-05
3.69219e-05
9.44965e-05
4.12916e-05
0.000100058
3.69152e-05
9.44837e-05
4.12935e-05
2.04116e-05
5.09894e-05
7.87722e-05
7.91391e-05
2.04559e-05
2.04476e-05
7.90953e-05
5.09965e-05
2.04113e-05
7.88099e-05
3.69221e-05
0.000100073
9.4552e-05
4.13012e-05
9.45634e-05
4.12998e-05
3.69284e-05
3.69335e-05
4.12972e-05
9.45695e-05
0.000100107
3.69262e-05
4.12991e-05
9.45908e-05
2.04207e-05
5.10379e-05
7.89186e-05
7.92553e-05
2.04651e-05
2.04561e-05
7.91309e-05
5.10436e-05
2.04189e-05
7.88858e-05
3.6934e-05
0.000100133
4.13068e-05
9.47431e-05
4.13055e-05
9.47294e-05
3.69397e-05
8.11791e-05
2.1787e-05
2.17966e-05
2.17861e-05
2.1796e-05
8.11644e-05
0.000105268
4.88055e-05
7.75965e-05
0.000129892
4.8794e-05
0.000129988
0.000105138
0.000105425
4.88273e-05
7.78445e-05
0.000129994
0.000130138
4.88179e-05
0.0001053
2.39966e-05
2.40013e-05
2.40079e-05
8.11221e-05
2.17891e-05
2.17982e-05
8.11255e-05
2.17903e-05
2.1799e-05
0.000104996
0.000129503
7.74631e-05
4.88211e-05
0.000129673
4.8801e-05
0.00010484
0.000105134
0.000129427
7.75827e-05
4.88362e-05
4.8818e-05
0.000129622
0.000104974
0.000104985
4.87962e-05
0.000129858
7.74086e-05
0.000129715
0.000105134
4.88108e-05
0.000105138
4.88161e-05
0.000129908
7.75756e-05
0.000105287
4.88295e-05
0.000129702
8.10802e-05
2.17947e-05
2.18023e-05
2.17934e-05
2.18016e-05
8.10905e-05
2.40003e-05
2.40069e-05
3.68919e-05
9.9988e-05
9.44385e-05
4.12671e-05
9.45139e-05
4.12668e-05
3.68957e-05
2.04006e-05
7.88032e-05
5.09333e-05
7.90757e-05
2.04294e-05
3.69063e-05
9.99789e-05
9.4475e-05
4.12744e-05
9.44871e-05
4.12735e-05
3.69118e-05
2.04114e-05
7.8802e-05
5.09931e-05
7.90034e-05
2.0442e-05
3.68992e-05
9.44343e-05
4.12701e-05
9.99402e-05
3.68946e-05
9.43369e-05
4.12708e-05
2.03984e-05
5.09386e-05
7.85048e-05
7.89302e-05
2.04425e-05
2.04351e-05
7.90066e-05
5.09488e-05
2.03997e-05
7.86618e-05
3.68985e-05
9.98771e-05
9.423e-05
4.12759e-05
9.43339e-05
4.12751e-05
3.69042e-05
3.6917e-05
9.45293e-05
4.12783e-05
9.99951e-05
3.69117e-05
9.44988e-05
4.1279e-05
2.04147e-05
5.1018e-05
7.87934e-05
7.91539e-05
2.04594e-05
2.04502e-05
7.90839e-05
5.10249e-05
2.04135e-05
7.88116e-05
3.6917e-05
9.99542e-05
9.45115e-05
4.12847e-05
9.45546e-05
4.12837e-05
3.69232e-05
2.40263e-05
2.40226e-05
8.16309e-05
2.1834e-05
2.18308e-05
8.14803e-05
2.18364e-05
2.18335e-05
0.00010586
0.000130758
7.81313e-05
4.89653e-05
0.000105926
0.000130609
4.89422e-05
0.000105819
0.000130619
7.80672e-05
4.89497e-05
0.000105888
0.000130486
4.89263e-05
0.000105546
4.89248e-05
0.000130011
7.79748e-05
0.000105471
0.000130174
4.89467e-05
0.000105507
4.8908e-05
0.000129942
7.79144e-05
0.000105434
0.000130087
4.89305e-05
8.16885e-05
2.18435e-05
2.1841e-05
8.18654e-05
2.18417e-05
2.18393e-05
2.40383e-05
2.4044e-05
2.40345e-05
2.40401e-05
2.4049e-05
2.40342e-05
2.40471e-05
2.40327e-05
8.27245e-05
2.1835e-05
2.18331e-05
2.18416e-05
2.18399e-05
8.25997e-05
0.000108481
0.000135332
4.90044e-05
7.93322e-05
0.000108807
4.90001e-05
0.000135091
0.000108465
0.000135164
4.89921e-05
7.93019e-05
0.000108772
4.89885e-05
0.000134931
8.29833e-05
2.18532e-05
2.18511e-05
8.30842e-05
2.18428e-05
2.18407e-05
0.000108309
4.89641e-05
7.92071e-05
0.000134166
4.89541e-05
0.000107819
0.000134827
0.000108301
4.89541e-05
7.9186e-05
0.000134031
4.89439e-05
0.000107826
0.000134675
2.41807e-05
2.40752e-05
2.41791e-05
2.40734e-05
8.21217e-05
2.18428e-05
2.18413e-05
8.23642e-05
2.18551e-05
2.18534e-05
0.00010695
0.000133457
7.78131e-05
4.9631e-05
4.91043e-05
0.000132832
0.000107362
0.000106974
0.000133374
7.78274e-05
4.96225e-05
4.90948e-05
0.000132732
0.000107398
0.000107273
4.89423e-05
0.000133815
7.83627e-05
0.000107615
4.90054e-05
0.00013324
0.000107297
4.89327e-05
0.000133689
7.8375e-05
0.000107628
4.89958e-05
0.000133132
8.22668e-05
2.21272e-05
2.21255e-05
2.19134e-05
2.19117e-05
8.00344e-05
3.69299e-05
0.000101251
4.13048e-05
9.51506e-05
4.13086e-05
9.53807e-05
3.69359e-05
2.04637e-05
7.94038e-05
5.10419e-05
2.04105e-05
7.88903e-05
3.69343e-05
0.000101428
4.13156e-05
9.54588e-05
4.13071e-05
3.69334e-05
9.53298e-05
2.04075e-05
7.87324e-05
5.10274e-05
7.93971e-05
2.04759e-05
3.69558e-05
4.13155e-05
9.57166e-05
0.000101181
3.69376e-05
4.13274e-05
9.52614e-05
2.0434e-05
5.13035e-05
7.8303e-05
2.0647e-05
7.95864e-05
2.04939e-05
7.97876e-05
5.11283e-05
2.04089e-05
7.88046e-05
3.70035e-05
0.000100741
4.16647e-05
9.51526e-05
3.72119e-05
4.13989e-05
9.55728e-05
3.69606e-05
4.13164e-05
9.52899e-05
0.000101048
3.69399e-05
4.13305e-05
9.50015e-05
2.04416e-05
5.13256e-05
7.82448e-05
7.94236e-05
2.06574e-05
2.04983e-05
7.93905e-05
5.11405e-05
2.04097e-05
7.85314e-05
3.70124e-05
0.000100676
4.1669e-05
9.507e-05
4.14024e-05
9.54102e-05
3.72224e-05
8.16142e-05
2.18347e-05
2.18383e-05
2.1831e-05
2.18359e-05
8.17251e-05
0.000105498
0.00013038
4.88786e-05
7.7772e-05
4.89049e-05
0.00010552
0.000130382
0.000105607
0.00013026
4.88922e-05
7.77944e-05
0.000130264
0.00010564
4.8918e-05
8.1603e-05
2.1823e-05
2.18293e-05
2.18245e-05
8.15021e-05
2.183e-05
0.000105706
4.89332e-05
7.79199e-05
0.000130579
4.88957e-05
0.000130572
0.000105698
0.000105789
4.89442e-05
7.79155e-05
0.000130476
0.00013046
4.89078e-05
0.000105765
2.40349e-05
2.4028e-05
2.41975e-05
2.40878e-05
8.17556e-05
2.18491e-05
2.18521e-05
8.17059e-05
2.18673e-05
2.18692e-05
0.00010598
0.000132497
7.7544e-05
4.96794e-05
0.000130958
4.91371e-05
0.000106951
0.000105998
0.000132436
7.74889e-05
4.96847e-05
4.91456e-05
0.00013089
0.000106957
0.000106053
4.89358e-05
0.000130809
7.7916e-05
0.000130969
0.000105935
4.90206e-05
0.000106074
4.89464e-05
0.000130729
7.78652e-05
0.000105978
4.90303e-05
0.000130889
8.19259e-05
2.21469e-05
2.21468e-05
2.19301e-05
2.19314e-05
7.98981e-05
2.41975e-05
2.40879e-05
3.69143e-05
0.000100615
4.12917e-05
9.45371e-05
4.1291e-05
9.47614e-05
3.69225e-05
2.04536e-05
7.90822e-05
5.09939e-05
2.03992e-05
7.8543e-05
3.69157e-05
0.000100831
4.12933e-05
9.49698e-05
4.12872e-05
3.69128e-05
9.47465e-05
2.03984e-05
7.83562e-05
5.0982e-05
7.90285e-05
2.0468e-05
3.69518e-05
9.53483e-05
4.13065e-05
0.000100647
3.69319e-05
9.48973e-05
4.13231e-05
2.04348e-05
5.12933e-05
7.82229e-05
2.06486e-05
7.94854e-05
2.04934e-05
7.96609e-05
5.11168e-05
2.04078e-05
7.86931e-05
3.70025e-05
0.000100248
9.4847e-05
4.1665e-05
3.72132e-05
9.52363e-05
4.13959e-05
3.69526e-05
4.13058e-05
9.46679e-05
0.000100411
3.69289e-05
4.1324e-05
9.44398e-05
2.0438e-05
5.13003e-05
7.79158e-05
7.9068e-05
2.06556e-05
2.04931e-05
7.90107e-05
5.11095e-05
2.0403e-05
7.81633e-05
3.70053e-05
0.000100098
4.16686e-05
9.45509e-05
4.13982e-05
9.48444e-05
3.7221e-05
3.69377e-05
0.000100388
9.4719e-05
4.13212e-05
9.47696e-05
4.13171e-05
3.69483e-05
2.04661e-05
7.91903e-05
5.10274e-05
7.87125e-05
2.04114e-05
3.69363e-05
0.000100336
9.46624e-05
4.13075e-05
9.46454e-05
3.6929e-05
4.1309e-05
2.04112e-05
7.86177e-05
5.10189e-05
7.9246e-05
2.04804e-05
3.69465e-05
0.000100498
4.13253e-05
9.49903e-05
4.13215e-05
9.5038e-05
3.69566e-05
2.04745e-05
7.93667e-05
5.10733e-05
2.04201e-05
7.89089e-05
3.69456e-05
0.00010044
4.13125e-05
9.48951e-05
3.69392e-05
4.13136e-05
9.48925e-05
2.04196e-05
7.88502e-05
5.1063e-05
7.94634e-05
2.04885e-05
3.69806e-05
9.49198e-05
4.13381e-05
0.000100789
3.69565e-05
9.48104e-05
4.13576e-05
2.04482e-05
5.13396e-05
7.82801e-05
7.94185e-05
2.06642e-05
2.05046e-05
7.93106e-05
5.11496e-05
2.04152e-05
7.84919e-05
3.70335e-05
0.000100679
9.50557e-05
4.17022e-05
9.52605e-05
4.14321e-05
3.72477e-05
3.69871e-05
4.13421e-05
9.51924e-05
0.000100901
3.69641e-05
4.13611e-05
9.50835e-05
2.0455e-05
5.13709e-05
7.8525e-05
7.9671e-05
2.06705e-05
2.05115e-05
7.95543e-05
5.11842e-05
2.04229e-05
7.87398e-05
3.70406e-05
0.000100791
4.17048e-05
9.53335e-05
4.14353e-05
9.55394e-05
3.72531e-05
8.10349e-05
2.18166e-05
2.18206e-05
2.18113e-05
2.18161e-05
8.11078e-05
0.000104734
0.000129479
4.88117e-05
7.72631e-05
4.88396e-05
0.000104881
0.000129308
0.000104832
0.000129381
4.88254e-05
7.72809e-05
0.000129191
0.000104993
4.88518e-05
8.10788e-05
2.17999e-05
2.18068e-05
2.18023e-05
8.10472e-05
2.18084e-05
0.000104827
4.88755e-05
7.73672e-05
0.000129213
4.88334e-05
0.00012934
0.000104728
0.000104899
4.88845e-05
7.73444e-05
0.000129057
0.000129204
4.88438e-05
0.000104782
2.40176e-05
2.40126e-05
2.41924e-05
2.40803e-05
8.11557e-05
2.18343e-05
2.18378e-05
8.10747e-05
2.18548e-05
2.18575e-05
0.000104948
0.000130957
7.69926e-05
4.96468e-05
0.000129429
4.91023e-05
0.000105948
0.00010494
0.000130769
7.68827e-05
4.96508e-05
4.91094e-05
0.000129263
0.000105937
0.000104996
4.88845e-05
0.000129366
7.73294e-05
0.000129445
0.00010492
4.89773e-05
0.000104999
4.88929e-05
0.000129203
7.72234e-05
0.000104946
4.89851e-05
0.000129259
8.12931e-05
2.21413e-05
2.21417e-05
2.19233e-05
2.19247e-05
7.93323e-05
2.41925e-05
2.40804e-05
3.69162e-05
9.97597e-05
9.40925e-05
4.13026e-05
9.41769e-05
4.12957e-05
3.69289e-05
2.04534e-05
7.88668e-05
5.09752e-05
7.83421e-05
2.03981e-05
3.6913e-05
9.98057e-05
9.4247e-05
4.12825e-05
9.4144e-05
3.69048e-05
4.1285e-05
2.03992e-05
7.81842e-05
5.09695e-05
7.88348e-05
2.04695e-05
3.69326e-05
9.99239e-05
9.4557e-05
4.13088e-05
9.46071e-05
4.13026e-05
3.69445e-05
2.047e-05
7.92199e-05
5.10527e-05
2.04149e-05
7.87498e-05
3.69303e-05
9.99447e-05
9.45741e-05
4.12908e-05
3.69231e-05
9.45245e-05
4.12927e-05
2.04155e-05
7.86771e-05
5.10427e-05
7.92912e-05
2.04852e-05
3.69684e-05
9.42078e-05
4.13227e-05
0.00010001
3.694e-05
9.41065e-05
4.13459e-05
2.04428e-05
5.13131e-05
7.78825e-05
7.89882e-05
2.06615e-05
2.04973e-05
7.88609e-05
5.11166e-05
2.04058e-05
7.80491e-05
3.7024e-05
9.99832e-05
9.43887e-05
4.16975e-05
9.45512e-05
4.14245e-05
3.72431e-05
3.69796e-05
9.47436e-05
4.13284e-05
0.000100257
3.69541e-05
9.46556e-05
4.13508e-05
2.04535e-05
5.13588e-05
7.83816e-05
7.95119e-05
2.067e-05
2.05095e-05
7.93795e-05
5.117e-05
2.04204e-05
7.85745e-05
3.7033e-05
0.000100211
9.49123e-05
4.17006e-05
9.51098e-05
4.14283e-05
3.725e-05
2.4053e-05
2.40454e-05
2.40501e-05
2.40426e-05
8.22124e-05
2.18696e-05
2.18684e-05
8.21589e-05
2.18863e-05
2.18847e-05
0.000106783
0.000133753
7.79697e-05
4.97383e-05
0.000107762
0.000132139
4.91995e-05
0.00010678
0.00013359
7.79369e-05
4.97289e-05
0.000107775
0.000131971
4.91894e-05
0.000106846
4.90057e-05
0.000131912
7.83528e-05
0.000106717
0.00013212
4.90871e-05
0.000106843
4.89941e-05
0.00013174
7.83136e-05
0.000106709
0.000131949
4.90761e-05
8.23958e-05
2.21624e-05
2.21612e-05
8.03523e-05
2.19472e-05
2.19458e-05
2.42109e-05
2.41021e-05
2.42097e-05
2.41007e-05
3.41636e-05
3.70559e-05
3.4167e-05
3.70553e-05
8.84802e-05
6.03537e-06
6.03542e-06
1.13588e-05
1.13598e-05
8.95966e-05
0.00011285
0.000133338
5.06397e-05
8.67906e-05
0.000108046
5.33393e-05
0.000136724
0.00011291
0.000133259
5.06345e-05
8.6793e-05
0.000108077
5.33407e-05
0.000136681
0.000147242
0.000200073
0.00017713
0.000177082
0.000149198
0.000177228
0.000177164
8.34185e-05
2.32587e-05
2.32587e-05
8.39915e-05
1.21337e-05
1.21349e-05
0.000111667
2.64078e-05
8.54116e-05
0.000144669
2.43224e-05
0.000111114
0.00014019
0.000111707
2.64092e-05
8.54046e-05
0.000144657
2.4324e-05
0.000111155
0.000140168
5.67074e-06
5.67063e-06
8.93906e-05
0.000180988
0.000180965
0.000144125
1.19824e-05
0.000144786
0.00011077
1.19822e-05
0.000144779
0.000110808
9.66442e-06
0.000105705
1.07742e-05
0.000102427
2.05524e-05
0.000100225
7.98943e-05
9.14189e-05
2.03742e-05
8.2728e-05
1.03138e-05
0.000104496
4.26959e-05
9.59849e-05
4.34367e-05
3.61994e-05
9.7735e-05
9.21944e-05
9.00972e-05
8.59895e-05
0.000185759
0.000151632
0.000147963
0.000191018
0.000144109
0.000190746
0.000185976
0.000218974
0.000219183
0.000210771
0.000222049
0.000222385
0.000213427
0.000217641
0.000177371
0.000129103
0.000111642
0.000168133
0.00013221
0.000163436
0.000177635
0.000236429
0.000235952
0.000238337
0.000236711
0.00023776
0.000238556
0.000234391
0.000185642
0.000151678
0.000148297
0.000191027
0.000144386
0.00019067
0.000186382
0.000217288
0.000218124
0.000210393
0.000221472
0.000216753
0.000212404
0.000221105
0.000177371
0.000129604
0.000111844
0.000168664
0.000132463
0.000177918
0.000163369
0.000235515
0.000235505
0.000237551
0.000236283
0.000237328
0.000234181
0.000236976
0.000143687
0.000194988
0.000192331
0.000210952
0.000221652
0.000216856
0.000128383
0.000167125
0.000184067
0.00023369
0.000234776
0.00023142
0.000144182
0.000195149
0.000192907
0.000211891
0.000222456
0.000217375
0.000128937
0.000167958
0.000184897
0.000233569
0.000235084
0.000231673
8.87749e-05
6.04059e-06
6.04141e-06
1.13729e-05
1.13732e-05
9.01268e-05
0.000113001
0.000132689
5.07051e-05
8.71609e-05
5.34302e-05
0.000107847
0.000136797
0.000112922
0.000132604
5.07015e-05
8.70535e-05
0.000136765
0.000107796
5.34205e-05
0.00014777
0.000199815
0.000177788
0.000177782
0.000177453
0.000177509
0.000150063
8.3673e-05
2.32874e-05
2.32864e-05
1.21497e-05
8.41667e-05
1.21495e-05
0.000112222
2.64541e-05
8.58043e-05
0.000145549
2.43662e-05
0.000140544
0.000111927
0.000112158
2.6452e-05
8.57026e-05
0.000145587
0.000140533
2.43632e-05
0.000111868
3.42448e-05
3.71443e-05
5.67493e-06
5.676e-06
8.99675e-05
0.000182494
0.000182579
0.000145116
1.1999e-05
0.000145805
0.000111631
1.19986e-05
0.000145863
0.000111574
0.00018484
0.000150945
0.000147572
0.000190047
0.000143721
0.000189662
0.000185424
0.000218345
0.000218799
0.000210404
0.000221544
0.000221805
0.000213009
0.000217105
0.000176951
0.00012894
0.000111542
0.000167978
0.000131962
0.000163218
0.000177274
0.00023472
0.000234384
0.000236585