/*--------------------------------*- C++ -*----------------------------------*\
| =========                 |                                                 |
| \\      /  F ield         | OpenFOAM: The Open Source CFD Toolbox           |
|  \\    /   O peration     | Version:  v2006                                 |
|   \\  /    A nd           | Website:  www.openfoam.com                      |
|    \\/     M anipulation  |                                                 |
\*---------------------------------------------------------------------------*/
FoamFile
{
    version     2.0;
    format      ascii;
    class       surfaceScalarField;
    location    "750";
    object      phi;
}
// * * * * * * * * * * * * * * * * * * * * * * * * * * * * * * * * * * * * * //

dimensions      [0 3 -1 0 0 0 0];
oriented        oriented;


internalField   nonuniform List<scalar> 
41864
(
1.58905e-06
1.55569e-06
-0.00117596
-1.62384e-06
-1.57363e-06
0.00117601
-0.00113163
-1.0871e-06
-1.00766e-06
-5.70117e-07
0.00113214
-1.26384e-07
1.37027e-06
2.96328e-07
1.03486e-06
-4.60004e-08
-6.99968e-07
3.30492e-07
-0.00113182
-1.08073e-06
-1.08954e-06
-5.59728e-07
0.00113235
-1.28647e-07
1.37147e-06
3.02494e-07
1.04371e-06
-3.59891e-08
-6.85741e-07
3.40556e-07
-0.000270452
1.12331e-06
1.05915e-06
-7.75207e-08
-1.05241e-07
0.000268452
5.48192e-06
5.44379e-06
-0.00116403
-1.1753e-05
-1.19393e-05
0.000283633
0.000285501
0.000285395
0.000285392
4.52729e-06
6.77327e-06
7.18624e-06
4.49322e-06
6.74053e-06
7.15797e-06
-0.000280664
5.31582e-06
-5.47043e-06
5.96094e-06
-3.33439e-06
0.000278193
-0.000280671
-5.44336e-06
5.30454e-06
-3.31917e-06
5.94576e-06
0.000278183
-0.000271526
-5.39232e-06
-5.43249e-06
5.75339e-06
5.73247e-06
0.000270865
-1.36719e-06
-1.34394e-06
0.000270546
-0.000268404
2.90668e-07
2.79165e-07
0.00113062
-1.04718e-06
-0.00112991
-6.36013e-07
-1.11737e-06
3.03015e-07
-1.14166e-07
-6.99565e-07
2.99955e-07
-4.50131e-08
9.8419e-07
1.31004e-06
0.00113122
-1.00795e-06
-0.00113084
2.43493e-08
-1.18457e-06
2.77678e-07
-1.60683e-07
-7.41484e-07
2.52407e-07
-9.53996e-08
9.48059e-07
-1.30194e-06
0.000270574
-0.000268476
2.45481e-07
2.69057e-07
0.0011317
-1.08428e-06
-0.00113097
-6.59838e-07
-1.05999e-06
3.18136e-07
-9.3477e-08
-7.06678e-07
2.90475e-07
-5.48406e-08
9.75981e-07
1.31843e-06
0.0011314
-1.08467e-06
-0.00113097
-2.32475e-08
-1.17076e-06
2.83116e-07
-1.52132e-07
-7.30901e-07
2.57742e-07
-8.81259e-08
9.5406e-07
-4.17994e-07
-0.00113141
-4.88157e-07
-1.09975e-06
2.71558e-07
-1.35156e-07
-7.53625e-07
2.62657e-07
9.33834e-07
-9.6149e-08
1.30693e-06
0.00113036
-5.49037e-07
-0.0011302
-1.832e-07
-1.16448e-06
2.62452e-07
-1.54158e-07
-7.50235e-07
2.48466e-07
-9.91614e-08
9.23228e-07
-1.30362e-06
0.00027062
-0.000268522
2.47977e-07
2.7624e-07
-5.26545e-07
-0.00113153
-5.20231e-07
-1.09315e-06
2.74581e-07
-1.29754e-07
-7.35037e-07
2.74201e-07
9.44875e-07
-8.19989e-08
1.28181e-06
0.00113143
-5.98427e-07
-0.00113126
-1.90509e-07
-1.10974e-06
2.77289e-07
-1.34722e-07
-7.55486e-07
2.44487e-07
-1.10851e-07
9.24464e-07
-0.00026837
2.57768e-07
2.49309e-07
1.08792e-06
1.01818e-06
-5.58835e-08
-8.53246e-08
0.000268581
-5.42032e-06
-5.48816e-06
0.000271764
-0.000269763
4.4615e-06
4.44543e-06
-7.35179e-07
0.00113155
-9.73606e-08
1.44938e-06
3.43559e-07
1.07921e-06
-8.91038e-09
-6.5492e-07
3.63812e-07
-1.10816e-06
-1.39099e-06
-3.57609e-07
0.00113184
-9.37866e-08
1.44221e-06
3.61621e-07
1.0173e-06
-7.76314e-08
-7.16128e-07
2.97476e-07
0.000280819
-1.4624e-05
-0.00113319
-6.69303e-06
1.36996e-06
4.163e-06
2.0169e-06
2.26268e-06
6.11428e-06
2.89256e-06
6.61448e-06
0.000281409
0.000279579
0.000281845
5.50982e-06
0.000280707
-1.42132e-05
-0.00113299
-7.07015e-06
1.4542e-06
4.2708e-06
2.11557e-06
2.20062e-06
6.07532e-06
2.83752e-06
6.55501e-06
0.000281351
0.000279463
0.000281735
-1.18911e-07
-7.82888e-08
0.000268576
-5.37637e-06
0.000271617
-0.000269629
4.39116e-06
4.50705e-06
-8.14783e-07
0.00113262
-6.0481e-08
1.4423e-06
3.6974e-07
1.06356e-06
-2.30965e-08
-6.67218e-07
3.51998e-07
-1.09692e-06
-1.44062e-06
-3.65908e-07
0.00113203
-8.43625e-08
1.44235e-06
3.61952e-07
1.02423e-06
-6.83976e-08
-7.06712e-07
3.04482e-07
0.000280883
-1.43505e-05
-0.00113404
-6.6197e-06
1.46599e-06
4.20805e-06
2.06153e-06
2.26067e-06
6.12607e-06
2.89453e-06
6.61659e-06
0.000281501
0.000279625
0.000281885
5.4988e-06
0.000280709
-1.41645e-05
-0.00113309
-6.99146e-06
1.44204e-06
4.26036e-06
2.10502e-06
2.20137e-06
6.0777e-06
2.83904e-06
6.55314e-06
0.000279452
0.000281366
0.000281741
-1.08373e-06
-4.34081e-07
0.00113084
-1.20911e-07
1.4058e-06
3.16228e-07
1.01927e-06
-6.31072e-08
3.14383e-07
-7.04816e-07
-1.42842e-05
-0.00113304
-6.34096e-06
1.36574e-06
4.10677e-06
1.9721e-06
2.26193e-06
6.10261e-06
6.60546e-06
2.89148e-06
0.000281243
0.000279415
0.000281659
5.42669e-06
0.000280519
-1.44081e-05
-0.00113195
-6.87482e-06
1.38084e-06
4.1788e-06
2.03379e-06
2.24295e-06
6.09059e-06
2.87309e-06
6.58261e-06
0.000279275
0.000281104
0.000281531
-1.14759e-07
-7.29525e-08
0.00026863
-5.37311e-06
0.000271615
-0.000269636
4.39233e-06
4.50057e-06
-1.08379e-06
-4.96724e-07
0.00113191
-9.14224e-08
1.39112e-06
3.41554e-07
1.0113e-06
-7.47319e-08
3.03404e-07
-7.19714e-07
-1.42341e-05
-0.00113316
-6.26799e-06
1.35765e-06
4.10364e-06
1.96602e-06
2.25717e-06
6.10166e-06
6.60028e-06
2.8846e-06
0.000279409
0.000281267
0.000281676
5.49931e-06
0.00028059
-1.41447e-05
-0.00113281
-6.81649e-06
1.47848e-06
4.22809e-06
2.07993e-06
2.23275e-06
6.09739e-06
2.86951e-06
6.58463e-06
0.000279331
0.000281201
0.000281577
-0.000269521
4.47341e-06
4.44744e-06
-5.37814e-06
-5.41046e-06
5.7403e-06
5.72106e-06
0.000271091
5.95717e-06
-3.39879e-06
0.000278364
5.47885e-06
-5.38894e-06
5.8902e-06
-3.509e-06
0.000278236
5.64977e-06
5.8127e-06
0.000270949
5.94546e-06
-3.41937e-06
0.00027839
-5.36569e-06
5.46179e-06
-3.48922e-06
5.87863e-06
0.000278224
-0.00116365
-1.16967e-05
-1.1556e-05
0.0002835
0.000285358
0.000285241
0.000285268
4.51467e-06
6.76961e-06
7.17849e-06
4.43419e-06
6.68247e-06
7.09987e-06
-0.00116385
-1.15316e-05
-1.14043e-05
0.000283515
0.000285378
0.000285267
0.000285286
4.48659e-06
6.74205e-06
7.14906e-06
4.41275e-06
6.66212e-06
7.07446e-06
5.46455e-06
5.41732e-06
-0.00116298
-1.16005e-05
-1.17871e-05
0.000283342
0.000285197
0.000285098
0.0002851
4.50866e-06
6.75398e-06
7.16449e-06
4.46832e-06
6.71723e-06
7.13243e-06
-3.43265e-06
5.94264e-06
0.000278081
5.64826e-06
5.80584e-06
0.000270927
-3.46315e-06
5.9249e-06
0.000278114
4.61852e-08
-6.66199e-08
0.000230796
-0.000230766
4.71172e-08
-5.68761e-08
-3.87287e-08
1.5266e-08
0.000195105
5.68981e-08
-0.000195138
-3.347e-08
1.34233e-07
9.86229e-05
-9.87236e-05
-6.91347e-08
3.54474e-08
0.000230787
-0.000230756
-4.45515e-08
4.67421e-08
-3.34055e-08
1.71123e-08
0.000195068
4.96624e-08
-0.000195102
-0.00117583
-1.1955e-06
-1.06206e-06
0.00117701
-0.00117734
-7.45078e-09
-1.08505e-06
0.00117707
-0.00117726
-1.86044e-07
-1.23345e-06
0.00117681
-0.00117739
-3.61876e-07
-2.02292e-07
6.73291e-08
3.33623e-09
0.000251257
-0.000251113
-2.64118e-09
-2.12618e-07
-6.06508e-07
1.33829e-06
0.0011313
-1.45142e-07
-7.82905e-07
2.3565e-07
-1.26501e-07
8.94275e-07
-1.04789e-06
3.23452e-07
-8.60131e-08
-0.0011313
-3.75271e-08
-1.5295e-08
0.000246888
2.04223e-08
-0.00024677
-8.54043e-08
-3.09972e-07
0.00114929
-4.83783e-07
-8.33132e-07
8.53533e-07
-6.49833e-07
1.02553e-06
-0.00114949
-3.04006e-08
1.32338e-07
9.85822e-05
-9.86841e-05
1.12273e-08
6.5049e-08
0.000251268
-0.000251116
-2.1813e-07
-1.07201e-08
-7.00785e-07
1.34447e-06
0.00113129
-2.56183e-07
-7.72746e-07
2.4354e-07
-1.16949e-07
9.03061e-07
-1.0365e-06
3.29853e-07
-7.67373e-08
-0.00113115
-4.74912e-07
0.00114916
-6.07131e-07
-8.21569e-07
8.66299e-07
-6.3833e-07
1.03871e-06
-0.00114922
-4.55956e-08
-1.3168e-08
0.000246879
2.83258e-08
-0.000246757
-9.18191e-08
-1.28419e-06
-1.21833e-06
0.00027033
-0.000268306
2.31517e-07
2.46298e-07
2.40097e-09
-9.66777e-08
0.000280046
-9.8626e-09
-0.000279939
-3.08346e-09
-1.10404e-08
-1.02109e-07
0.000279963
-9.57384e-10
-0.000279855
6.5543e-09
6.78158e-08
-2.35318e-07
0.000231189
-0.000231101
1.27923e-07
-4.82331e-08
-0.000195093
4.00152e-08
-1.02619e-07
-1.41131e-09
0.000195157
-0.000230896
7.62767e-08
-4.97505e-08
0.000230954
-4.10574e-08
-4.34889e-08
-8.25829e-08
2.57718e-08
0.000195205
5.77584e-08
-0.000195206
-9.86211e-05
-9.78485e-08
-1.40002e-07
9.88589e-05
4.83265e-08
2.57253e-07
9.86345e-05
-9.89401e-05
-2.35777e-07
7.25513e-08
0.000231172
-0.000231087
-5.37769e-08
1.32148e-07
-0.000195052
3.24416e-08
-1.06761e-07
6.33496e-09
0.00019512
-0.00023088
-5.37968e-08
7.1347e-08
0.000230942
-3.86763e-08
-4.05902e-08
-9.45873e-08
2.14905e-08
0.000195173
7.42601e-08
-0.000195174
-5.79867e-07
-1.45035e-06
0.00117664
-6.86115e-07
-1.5355e-06
0.00117676
-8.41183e-07
-7.71938e-07
0.00117626
-0.00117271
-1.0151e-05
-1.01458e-05
-0.00117253
-9.76555e-06
-9.85105e-06
-0.00117273
-9.718e-06
-9.79139e-06
-0.00117195
-9.79408e-06
-9.78833e-06
2.38452e-07
3.28726e-08
0.000251778
-0.00025148
1.35478e-08
-5.83168e-07
-0.000247013
3.39616e-08
1.1386e-07
-6.27041e-08
-6.80262e-09
0.000246935
0.00114928
-0.00114915
-9.49167e-08
-1.51831e-06
1.19026e-06
-5.6725e-07
-7.45756e-07
1.0371e-06
-1.21238e-06
1.71197e-06
0.0011329
-2.58336e-06
-4.94546e-07
6.44466e-07
1.30426e-07
1.41581e-06
-9.22553e-07
5.34558e-07
1.30958e-08
-0.000251368
5.29167e-08
2.83326e-08
0.000251293
-9.96765e-09
4.0032e-09
-7.86204e-09
-2.05016e-08
0.000247481
-4.10418e-08
-0.000247122
-2.88764e-07
-2.39348e-08
0.00114928
-3.31217e-06
-5.4742e-07
1.44972e-06
-3.60029e-07
1.58268e-06
-9.8586e-05
-9.94749e-08
-1.42424e-07
9.88279e-05
4.34022e-08
2.55958e-07
9.86203e-05
-9.89197e-05
4.51974e-08
2.45021e-07
0.000251791
-0.000251499
-5.88351e-07
5.86955e-09
0.00114943
-0.00114925
-7.56148e-08
-1.63216e-06
1.20052e-06
-5.48813e-07
-7.26873e-07
1.04673e-06
-0.000247006
3.06521e-08
1.15564e-07
-6.60907e-08
-2.38601e-09
0.000246929
-1.18e-06
1.70748e-06
0.0011331
-2.62846e-06
-4.84879e-07
6.50638e-07
1.35935e-07
1.42224e-06
-9.21971e-07
5.33391e-07
1.18638e-08
-0.000251392
4.49201e-08
5.78987e-08
0.000251316
-3.84417e-09
-2.322e-08
4.3791e-08
0.00114945
-3.40129e-06
-5.35873e-07
1.45685e-06
-3.51881e-07
1.59039e-06
-2.87704e-09
-1.67241e-08
0.000247466
-4.40275e-08
-0.00024711
-2.92285e-07
-0.000280204
-7.86786e-08
1.71877e-07
-7.43238e-08
7.11185e-08
0.000280114
-0.000280124
-9.07402e-08
1.7753e-07
-6.78384e-08
6.64361e-08
0.000280038
-1.76632e-06
-1.76686e-06
0.000270924
-0.00026865
6.40645e-07
6.18743e-07
-3.04186e-08
-2.39658e-07
0.000280666
-4.46008e-08
-0.000280259
-9.1914e-08
-2.79373e-08
-2.24574e-07
0.000280593
-5.8779e-08
-0.000280189
-9.3072e-08
5.34686e-09
-1.65864e-06
5.90387e-05
-5.89889e-05
1.45135e-06
1.52143e-07
-0.000201439
8.64273e-06
-1.11095e-05
-2.82241e-06
0.000206728
-0.000233021
4.35932e-08
-4.2e-06
0.000232771
3.63069e-06
7.76388e-07
2.35573e-07
-1.34074e-06
5.72789e-05
-4.90655e-07
-5.57503e-05
3.83043e-08
7.76143e-08
1.22353e-08
-7.00242e-08
-9.45143e-09
-9.65556e-08
1.15173e-07
-0.000105286
-8.64306e-06
-2.23912e-05
1.90421e-05
4.21283e-05
3.59294e-05
3.92206e-05
-2.3405e-07
-4.40833e-07
1.33845e-05
1.09013e-07
-1.29646e-05
1.45987e-07
-1.65949e-06
9.96399e-09
5.9038e-05
-5.89877e-05
1.46977e-07
1.45223e-06
-0.000201423
8.62507e-06
-1.11197e-05
-2.80292e-06
0.000206721
-0.000233006
-4.20625e-06
6.22915e-08
0.000232763
7.56331e-07
3.63097e-06
2.35226e-07
-1.343e-06
5.72762e-05
-4.86611e-07
-5.57478e-05
3.67603e-08
7.68732e-08
1.13462e-08
-6.91765e-08
-9.11425e-09
-9.622e-08
1.15555e-07
-2.60475e-08
-9.53281e-08
0.000290348
-0.000291098
4.6897e-07
4.02453e-07
-1.19159e-05
2.31893e-05
-1.01657e-07
0.000288003
0.000288557
0.000289135
0.000287613
-0.00117623
-1.17153e-05
2.3027e-05
-2.96399e-07
0.000288016
0.000288576
0.000289154
0.000287628
-0.00117633
3.10389e-06
3.08071e-06
0.000279083
-0.000281462
-1.88204e-06
-1.92352e-06
-3.37461e-07
-5.07453e-07
0.000292581
0.000292033
0.000292266
0.000292271
-0.00119194
2.33326e-06
2.09139e-08
0.000284662
-1.35553e-06
-0.000286181
5.20446e-07
2.28988e-06
-4.072e-08
0.000284661
-1.30071e-06
-0.00028619
5.80024e-07
1.66048e-06
3.57262e-08
0.000251025
-0.000253445
1.21786e-06
-5.78495e-06
1.6697e-06
1.83504e-06
1.78655e-06
-0.000250004
6.01533e-06
1.11133e-05
-8.40386e-06
-3.76825e-06
0.000245047
-0.00114365
-2.29066e-05
2.55192e-07
0.000281246
0.000279017
0.000280528
0.000281189
9.46026e-06
5.93324e-06
6.77409e-06
9.29488e-06
4.03778e-06
1.92461e-06
2.66467e-06
4.23167e-06
3.15571e-06
-3.14422e-06
0.00027079
-0.000272761
4.06829e-06
-2.10846e-06
-0.000253528
4.20432e-06
4.64942e-08
0.00025372
1.0123e-06
-5.45511e-06
8.03608e-07
1.34169e-06
6.08282e-05
-7.4203e-07
-6.05211e-05
-1.71034e-06
-2.32701e-06
5.1806e-08
0.000276544
2.93484e-06
-0.00027779
5.87311e-07
-0.000105298
-8.65138e-06
-2.23915e-05
1.90466e-05
4.21334e-05
3.5935e-05
3.92261e-05
-2.34619e-07
-4.4083e-07
1.33857e-05
1.10067e-07
-1.29663e-05
1.45998e-07
1.58914e-08
1.66097e-06
0.000250981
-0.000253409
-5.77843e-06
1.23571e-06
1.67014e-06
1.83536e-06
1.78805e-06
-0.00114375
-2.27739e-05
4.02036e-07
0.000281246
0.000279007
0.000280515
0.000281186
9.44769e-06
5.92177e-06
6.75945e-06
9.27977e-06
4.01199e-06
1.90244e-06
2.63852e-06
4.20788e-06
-0.00024998
6.02831e-06
1.11159e-05
-8.40774e-06
-3.78184e-06
0.000245025
-3.10864e-06
3.14483e-06
0.000270727
-0.00027272
-2.08868e-06
4.045e-06
-0.000253509
3.89316e-08
4.20871e-06
0.000253695
-5.45514e-06
1.02082e-06
-2.27995e-06
8.86472e-08
0.000276498
2.90509e-06
-0.000277767
5.55198e-07
8.05958e-07
1.34211e-06
6.08271e-05
-7.45263e-07
-6.05197e-05
-1.71025e-06
-0.000287209
-6.04256e-06
2.23845e-05
-7.02166e-06
-1.73828e-06
0.000279627
-0.000287151
-6.02472e-06
2.24002e-05
-7.06017e-06
-1.75562e-06
0.000279592
-3.24445e-06
-3.25417e-06
0.000264215
-0.000266025
4.15412e-06
4.15505e-06
-8.02382e-07
4.40087e-07
5.97153e-05
7.9109e-07
-5.88803e-05
-1.77362e-06
3.32346e-07
7.04478e-08
1.07033e-07
-7.94397e-07
4.40739e-07
5.9716e-05
7.85879e-07
-5.88828e-05
-1.77762e-06
3.33479e-07
7.11126e-08
1.07634e-07
8.19046e-08
9.87493e-05
-9.88699e-05
8.35467e-08
9.87365e-05
-9.88534e-05
0.000270213
-1.3499e-06
-1.2928e-06
-0.000268121
2.71009e-07
2.79445e-07
0.00028022
4.05721e-08
-4.17239e-08
-0.000280123
-1.42279e-08
0.00028014
2.67358e-08
-3.16944e-08
-0.000280048
-2.99561e-09
1.46417e-07
5.85768e-08
9.86683e-05
-9.88733e-05
-1.13365e-07
-9.67075e-09
9.88723e-05
1.41656e-07
6.21582e-08
9.86612e-05
-9.88651e-05
-1.09179e-07
-1.2374e-08
9.8858e-05
1.12504e-06
1.08124e-06
0.000268252
-1.19392e-07
-1.26213e-07
6.93327e-08
0.000280303
4.04346e-09
-0.00028017
-6.01076e-08
6.22551e-08
0.000280228
1.35627e-08
-0.000280102
-6.10495e-08
-1.51314e-08
1.38708e-08
-5.05927e-08
0.000280159
-2.64063e-08
1.83394e-08
-4.07871e-08
0.00028008
-6.76566e-08
0.000230761
-0.000230731
4.46951e-08
3.89775e-08
4.6307e-08
0.00019494
-5.64141e-08
-0.000194963
-7.48172e-09
0.000251246
-0.000251076
3.7815e-09
-2.3253e-07
-6.44473e-07
0.00112933
-6.35599e-07
-1.11318e-06
3.13019e-07
-1.08968e-07
-7.34035e-07
2.79587e-07
-8.12369e-08
9.43484e-07
-0.00112889
0.000246977
2.02018e-08
-0.000246843
-9.80288e-08
-6.40428e-07
0.00114797
-8.19124e-07
-7.95828e-07
9.02128e-07
-6.12295e-07
1.07375e-06
-0.00114773
0.000251235
-0.00025107
2.4608e-09
-2.42852e-07
4.22184e-07
0.00113057
1.20489e-06
-9.7222e-07
-7.08508e-07
2.9225e-07
9.72664e-07
-6.46958e-08
-1.26797e-06
1.88944e-07
-2.45381e-07
-0.00113039
0.000246825
3.67093e-08
-2.98258e-08
-0.000246704
-8.1011e-08
0.00114851
-1.00383e-06
-7.76832e-07
9.21355e-07
-5.8811e-07
1.09044e-06
-0.00114838
5.71773e-08
-2.51282e-08
-2.88653e-08
-3.30228e-08
0.000230826
4.59744e-08
-0.00019515
6.97472e-08
-7.38828e-08
1.93315e-08
0.00019515
7.45009e-08
-6.24731e-08
-0.000230883
5.80436e-08
-8.30748e-08
-2.36121e-08
-2.98654e-08
8.20266e-08
0.000230789
8.37021e-08
5.51405e-09
0.000194981
-0.000195027
-4.26308e-08
-4.0489e-08
8.26114e-08
-1.0073e-07
0.000194999
-5.62811e-08
0.000230855
-0.000230841
5.50944e-08
6.1946e-08
1.32725e-08
2.32636e-10
4.18153e-08
0.000251166
-6.07544e-07
-7.99222e-07
1.34384e-06
-1.22858e-07
2.95318e-07
9.49467e-07
-7.21525e-08
2.75853e-07
-7.25038e-07
0.000247125
-9.01991e-08
-0.000246973
5.32059e-08
-0.00114838
-4.46998e-07
0.00114886
-1.41161e-06
-7.57689e-07
9.5278e-07
-5.78582e-07
1.12063e-06
-4.70817e-09
-1.98323e-08
0.000246912
-5.54457e-07
-1.1043e-06
1.09262e-06
-5.96065e-07
-7.73158e-07
9.22212e-07
5.57221e-08
0.000251447
-0.000251268
-5.08659e-08
-2.47074e-07
3.34186e-08
4.15822e-08
0.00025115
2.80337e-07
-1.23955e-06
-9.21851e-07
9.39807e-07
-9.07828e-08
-7.33979e-07
2.51392e-07
1.2378e-06
-2.13358e-07
2.16918e-07
4.5301e-08
0.000246954
-3.8683e-08
-0.000246807
-6.96134e-08
-0.00114879
0.00114913
-1.4488e-06
-7.78867e-07
9.47061e-07
-5.82308e-07
1.10152e-06
1.07502e-07
-8.45193e-08
9.03312e-09
0.000246752
-1.20419e-06
1.09304e-06
-5.90238e-07
-7.7957e-07
9.31527e-07
0.000251417
-0.000251242
6.7045e-08
-2.4287e-07
0.000270425
-0.000268367
2.85403e-07
2.00207e-07
0.000279887
4.12507e-08
-0.000279783
2.53687e-08
-6.69117e-08
0.000280053
-5.1442e-08
-0.00027995
-2.19443e-08
9.86431e-05
3.91981e-08
-9.87492e-05
1.90404e-07
-9.8806e-05
-5.92344e-08
9.87647e-05
1.08794e-06
0.000268412
-1.27389e-07
-1.87456e-07
0.000280053
5.7779e-08
-0.000279897
2.17328e-08
-1.27329e-07
6.77942e-08
0.000280194
-1.99261e-08
-0.000280044
-7.087e-08
1.01818e-07
-4.53585e-09
0.000279838
1.30757e-07
-1.72624e-08
4.27434e-09
-6.21919e-08
0.000279997
6.01191e-08
9.86359e-05
-9.88233e-05
-9.00695e-09
9.87829e-05
-1.49676e-08
0.000251254
-0.000251084
1.37004e-08
-2.37783e-07
-4.95145e-07
0.00113037
-7.86871e-07
-1.09378e-06
2.98571e-07
-1.20786e-07
-7.24326e-07
2.82956e-07
-7.56972e-08
9.53734e-07
-0.0011299
0.000246939
7.72223e-09
-0.00024681
-9.28072e-08
-4.74882e-07
0.00114789
-9.76868e-07
-7.8331e-07
9.16321e-07
-5.97678e-07
1.08749e-06
-0.00114755
-6.81878e-08
0.000230749
-0.000230723
4.83928e-08
2.9981e-08
4.57195e-08
0.000194886
-5.13403e-08
-0.00019491
0.000251243
-0.000251078
-2.45154e-07
-3.65612e-09
2.89191e-07
0.0011306
1.22e-06
-1.05823e-06
-6.96502e-07
2.93565e-07
9.74757e-07
-5.3066e-08
-1.2505e-06
2.06587e-07
-2.35955e-07
-0.00113029
0.00114845
-1.12455e-06
-7.63213e-07
9.30387e-07
-5.76862e-07
1.09662e-06
-0.00114819
0.000246819
3.04847e-08
-2.26664e-08
-0.000246696
-8.54399e-08
-2.06453e-08
4.62795e-08
-2.10938e-08
-2.88221e-08
0.000230812
4.81572e-08
-0.000195111
7.30315e-08
-7.07596e-08
1.4458e-08
0.000195112
-6.32763e-08
6.73407e-08
-0.000230869
-7.57499e-08
6.00466e-08
3.57955e-09
1.29381e-08
3.78082e-08
0.000251179
-5.3653e-07
-8.96671e-07
1.30265e-06
-1.08357e-07
2.94808e-07
9.50709e-07
-7.81471e-08
2.74159e-07
-7.27161e-07
0.000247085
-8.00558e-08
-0.000246934
3.94341e-08
-0.00114835
-4.12505e-07
0.00114888
-1.52621e-06
-7.54931e-07
9.58233e-07
-5.72371e-07
1.12248e-06
-2.17615e-08
-1.19649e-08
0.000246876
-4.38852e-07
-1.24679e-06
1.10197e-06
-5.84675e-07
-7.6781e-07
9.3284e-07
3.83744e-08
0.000251455
-0.000251277
-3.12412e-08
-2.48341e-07
-2.28202e-08
-2.97424e-08
7.31346e-08
0.000230774
8.34228e-08
5.66834e-09
0.000194929
-0.000194973
-4.56368e-08
-4.16869e-08
8.09946e-08
-9.79342e-08
0.000194944
-5.93871e-08
0.00023084
-0.000230829
5.92393e-08
5.6876e-08
3.42599e-08
2.43653e-08
0.000251165
1.855e-07
-1.21883e-06
-1.0196e-06
9.45765e-07
-8.33942e-08
-7.23398e-07
2.61992e-07
1.25046e-06
-2.0117e-07
2.31788e-07
-0.00114883
0.00114923
-1.56957e-06
-7.65101e-07
9.5737e-07
-5.72182e-07
1.11027e-06
4.4315e-08
0.000246945
-4.86202e-08
-0.000246792
-6.53805e-08
-1.34232e-06
1.10269e-06
-5.75721e-07
-7.62294e-07
9.43565e-07
1.04218e-07
-7.63599e-08
1.07896e-08
0.000246739
0.000251429
-0.000251256
-2.47747e-07
5.38183e-08
2.11707e-08
0.000230743
-0.000230718
-3.28615e-08
5.37675e-08
0.000194917
4.34108e-08
-0.000194937
6.45833e-08
0.000251225
-0.000251083
-2.14748e-07
1.05119e-08
-5.43071e-08
0.00113018
-3.14665e-07
-1.16889e-06
2.59227e-07
-1.64785e-07
-7.65366e-07
2.44341e-07
-1.15861e-07
9.05838e-07
-0.00113029
0.00114916
-5.18968e-07
-8.26805e-07
8.59411e-07
-6.43339e-07
1.03011e-06
-0.00114943
-2.97451e-08
0.000246837
-1.21412e-08
-0.000246715
-7.78144e-08
0.000230712
-0.000230689
5.33127e-08
1.00037e-08
0.000194945
-7.61073e-09
-3.39346e-09
-0.000194963
1.86983e-08
1.20051e-08
2.99721e-09
6.63596e-08
0.000251157
-5.05583e-07
-2.07384e-07
1.30175e-06
-1.19209e-07
2.82525e-07
8.95681e-07
-1.25546e-07
-7.82307e-07
2.35718e-07
-4.16162e-08
-8.75099e-08
-0.000246855
3.93544e-08
-0.00114919
-1.97714e-07
-7.35771e-07
-8.17304e-07
8.865e-07
1.05447e-06
-6.41044e-07
7.86682e-08
-1.43564e-08
-6.65932e-09
0.000246813
-2.45799e-07
-5.88532e-07
1.03414e-06
-6.47792e-07
-8.27655e-07
8.6354e-07
6.48035e-08
2.17782e-08
-0.000251207
-2.43576e-08
-2.23212e-07
2.322e-08
-3.49908e-09
-2.12678e-08
0.000230764
0.000194996
-0.000195029
5.23827e-08
3.57716e-09
0.000194983
2.40908e-08
0.000230837
-0.000230822
-4.10632e-08
6.7305e-08
2.01827e-08
6.50196e-08
2.55456e-08
0.000251127
-8.034e-08
-1.1763e-06
-3.47612e-07
8.97401e-07
-1.20886e-07
-7.72002e-07
2.28326e-07
1.27485e-06
-1.72509e-07
2.45397e-07
-0.00114902
0.00114895
-7.88111e-07
-8.18669e-07
8.88505e-07
-6.41084e-07
1.04897e-06
-5.89235e-08
-1.87262e-08
0.000246965
-6.63101e-08
-0.000246813
-7.97992e-09
-6.20894e-07
1.03501e-06
-6.40181e-07
-8.22376e-07
8.6784e-07
5.99161e-08
5.96555e-08
-4.96765e-08
5.39e-09
0.000246762
6.29412e-08
0.000251339
-0.000251179
-2.25076e-07
2.37494e-08
-2.21037e-08
4.26308e-08
0.000230735
-3.40712e-08
0.000195009
-0.00019505
1.62129e-08
4.07226e-08
-4.3184e-08
0.000195007
0.000230804
-0.000230791
6.66352e-08
6.58605e-09
0.000270436
-0.000268371
2.90984e-07
2.07782e-07
0.000279854
3.90637e-08
-0.000279752
2.20133e-08
-6.47194e-08
0.000280005
-5.47476e-08
-0.000279907
-2.34871e-08
9.86039e-05
4.05094e-08
-9.87091e-05
1.87757e-07
-9.87681e-05
-6.09376e-08
9.87241e-05
1.07837e-06
0.00026844
-1.22264e-07
-1.78271e-07
0.000280017
5.37506e-08
-0.000279861
2.25217e-08
-1.27556e-07
6.58907e-08
0.000280151
-2.27141e-08
-0.000279998
-6.93592e-08
9.79886e-08
-1.3216e-09
0.0002798
1.27792e-07
-1.35008e-08
2.02035e-09
-6.38389e-08
0.000279952
5.71955e-08
9.85991e-05
-9.87838e-05
-9.51655e-09
9.87412e-05
6.43958e-08
0.000251234
-0.000251085
-2.20879e-07
1.90683e-08
1.10527e-07
0.00113119
-4.85044e-07
-1.15571e-06
2.37124e-07
-1.81946e-07
-7.54294e-07
2.54481e-07
-1.08915e-07
9.20262e-07
-0.00113125
0.00114901
-6.66655e-07
-8.13316e-07
8.77582e-07
-6.2813e-07
1.04559e-06
-0.00114919
-3.48118e-08
0.000246807
-2.47603e-08
-0.000246682
-7.66827e-08
3.17762e-08
0.000230735
-0.000230709
-4.28079e-08
5.01077e-08
0.000194872
4.50747e-08
-0.00019489
0.000230703
-0.000230678
2.08536e-08
5.0221e-08
0.000194922
-1.66248e-09
-1.18243e-08
-0.000194943
2.21747e-08
2.2697e-08
5.98638e-08
-7.13159e-09
0.00025117
-5.81378e-07
-3.34025e-07
1.30614e-06
-1.17332e-07
2.87447e-07
9.06843e-07
-1.10921e-07
-7.66669e-07
2.45328e-07
-0.00114919
-2.32507e-07
-8.90845e-07
-7.98415e-07
8.99498e-07
1.06555e-06
-6.22892e-07
-4.11268e-08
-9.31953e-08
-0.000246852
4.5666e-08
-3.61314e-07
-7.35741e-07
1.0505e-06
-6.32881e-07
-8.12241e-07
8.7647e-07
7.6922e-08
-4.09565e-09
-9.40626e-09
0.000246802
3.97236e-08
6.84944e-08
-0.000251227
-2.34142e-07
-3.90821e-08
2.0829e-08
5.675e-08
3.79727e-08
0.00025114
2.49507e-08
-1.14545e-06
-4.87474e-07
9.00712e-07
-1.19942e-07
-7.66607e-07
2.30403e-07
1.22927e-06
-1.69884e-07
2.42103e-07
-0.00114897
0.00114896
-9.2719e-07
-8.10883e-07
8.99239e-07
-6.2694e-07
1.05838e-06
-6.04014e-08
-1.02296e-08
0.000246932
-5.85974e-08
-0.000246776
-2.68124e-08
-7.88338e-07
1.04598e-06
-6.28127e-07
-8.13201e-07
8.79576e-07
5.5664e-08
7.25891e-08
-6.52154e-08
1.28833e-08
0.000246731
6.43555e-08
0.000251355
-0.000251196
-2.26962e-07
4.3194e-08
3.40319e-08
-1.27335e-08
-2.19713e-08
0.000230758
0.000194946
-0.000194979
4.89739e-08
5.16865e-09
0.000194934
3.19779e-08
0.000230831
-0.000230815
-4.63129e-08
6.67559e-08
5.43922e-08
-2.2589e-08
0.000230726
-3.61015e-08
0.00019498
-0.000195022
1.76749e-08
4.5084e-08
-4.95575e-08
0.000194982
0.000230797
-0.000230781
1.52974e-08
6.59267e-08
9.86745e-05
-9.87788e-05
9.86646e-05
-9.87684e-05
0.000268325
-1.56242e-07
-1.60032e-07
-1.54338e-07
1.07623e-08
-0.000280049
-3.01706e-08
-1.51363e-07
1.87484e-08
-0.00027997
-3.11731e-08
9.96609e-08
4.76259e-08
-4.00863e-08
0.000279999
9.60606e-08
5.3922e-08
-2.72978e-08
0.000279913
9.86662e-05
-9.88546e-05
9.88149e-05
9.86597e-05
-9.88471e-05
9.88057e-05
-1.78516e-07
9.88868e-05
2.37755e-07
9.86171e-05
-9.89375e-05
-1.86153e-07
9.88798e-05
2.25383e-07
9.8611e-05
-9.8931e-05
-2.78278e-08
-8.1112e-08
4.19061e-08
0.000280192
-3.44668e-08
-7.64586e-08
3.27181e-08
0.00028012
0.000271161
-1.79496e-06
-1.79491e-06
-0.000268845
6.46953e-07
6.269e-07
0.000280673
8.8162e-09
-6.19126e-08
-0.000280291
-9.15157e-08
0.000280606
1.20036e-08
-7.49737e-08
-0.00028022
-9.68916e-08
-3.0113e-06
-1.43762e-06
0.000105234
-0.000100785
-3.73396e-07
-1.42627e-07
9.91332e-05
-3.03388e-06
-1.42052e-06
0.000105231
-0.000100776
-3.86702e-07
-1.29253e-07
9.9127e-05
3.47939e-07
2.67572e-07
0.000269274
6.48556e-07
6.22537e-07
-2.43236e-06
0.000287136
-3.74119e-06
-0.000283212
-7.60909e-07
-2.4122e-06
0.000287082
-3.76145e-06
-0.000283154
-7.87868e-07
-2.05532e-07
1.18135e-07
-4.04678e-07
0.000280792
-1.94507e-07
9.85367e-08
-4.08743e-07
0.000280724
-2.26658e-07
0.000231147
-0.000231059
1.27286e-07
7.90511e-08
-6.82125e-08
-1.10751e-07
0.000195062
-4.24274e-08
0.000230912
-4.24433e-08
1.03786e-07
5.26092e-08
0.000195156
-1.30985e-08
-0.000195147
8.44174e-08
0.000251888
-0.000251592
-2.31295e-08
-5.92578e-07
-6.42209e-08
7.34147e-09
0.000247051
0.00114945
-2.77335e-07
-2.20423e-06
1.25561e-06
-5.08079e-07
-6.86541e-07
1.09955e-06
-1.38414e-06
0.00113272
-3.08459e-06
-9.13885e-07
5.88674e-07
4.43864e-08
-4.67062e-07
6.64791e-07
1.47328e-07
1.44595e-06
6.87229e-08
0.000251385
-4.03075e-08
-1.56232e-08
0.000247563
-3.06652e-08
-0.000247217
-2.80614e-07
-1.48117e-07
0.00114987
-3.99241e-06
-4.994e-07
1.50306e-06
-3.08781e-07
1.63868e-06
0.000251848
-0.000251553
1.43515e-07
-5.81134e-07
1.4572e-07
-5.6733e-09
-1.33845e-07
0.000246879
0.0011496
-2.16166e-06
1.21875e-06
-5.21616e-07
-7.2107e-07
1.08179e-06
-1.26398e-06
0.00113273
1.82764e-06
-2.79447e-06
-5.38938e-07
5.88196e-07
1.376e-06
8.02331e-08
-8.90823e-07
6.39663e-07
8.93592e-08
0.000251353
9.48241e-08
-4.46585e-09
0.000247416
8.69327e-08
-1.64341e-07
-0.000247058
-2.27682e-07
0.00114987
-3.89946e-06
-5.36877e-07
1.48146e-06
-3.27137e-07
1.60089e-06
6.26556e-08
-3.97233e-07
2.55972e-08
2.29079e-08
0.000231475
-4.02443e-06
-0.000197185
-1.66782e-06
-2.92831e-07
-1.09752e-07
0.000195465
4.87774e-08
-2.35891e-06
-0.000232459
1.32457e-06
4.23555e-07
-3.86232e-07
2.71524e-08
1.4081e-07
0.000231428
-4.01535e-06
1.44049e-06
0.000201442
-0.000197171
-1.69637e-06
-2.72882e-07
1.685e-07
-1.72048e-07
0.000195432
-2.34869e-06
0.00023298
-0.000232418
1.32221e-06
5.13633e-07
8.77956e-08
4.83722e-08
-6.76463e-07
0.000252032
-3.12617e-06
-6.91044e-06
2.80007e-06
4.78852e-07
1.39388e-06
2.64081e-06
6.93943e-07
1.76606e-06
1.40883e-07
0.000250035
-4.8303e-06
-0.000249555
-2.10665e-06
-0.00114914
1.53193e-07
0.00114456
-1.73856e-05
1.97302e-06
5.43733e-06
2.04109e-06
5.67571e-06
-1.80649e-07
-5.35381e-07
0.000247781
5.3422e-08
-8.48002e-06
2.83976e-06
3.37891e-07
1.60333e-07
2.69199e-06
8.34761e-08
0.000253611
-0.000252956
6.23931e-07
-3.72197e-06
2.16789e-07
-6.61901e-07
0.000251995
-3.30149e-06
-2.87806e-07
-6.53118e-06
2.57276e-06
6.2668e-07
7.06561e-08
1.70302e-06
2.86223e-06
5.49231e-07
1.47498e-06
2.48629e-06
0.000249963
-4.8005e-06
-0.000249454
-2.20978e-06
-0.00114905
0.00114435
-1.72361e-05
1.93849e-06
5.41624e-06
2.01731e-06
5.64449e-06
2.91999e-07
-3.11518e-07
-4.8415e-07
0.000247647
-8.33041e-06
2.80432e-06
3.11634e-07
1.15621e-07
2.67036e-06
0.000253574
-0.000252915
7.85833e-07
-3.70967e-06
-3.12627e-08
1.19817e-07
0.00027997
1.97991e-07
-1.07945e-07
3.09747e-08
0.000280107
0.000271069
-0.000268774
5.74716e-07
6.69929e-07
0.000280541
-1.48031e-08
-0.000280128
-5.38574e-08
-2.25708e-07
0.000280659
-6.9287e-08
-0.000280252
-1.20268e-07
-3.87344e-08
9.88726e-05
9.86423e-05
8.29005e-08
-9.89509e-05
-3.01488e-06
-0.000100831
-3.57534e-07
9.91605e-05
3.63908e-07
0.000269166
5.74985e-07
6.76215e-07
0.000287133
-3.7385e-06
-0.000283168
-7.54904e-07
3.01919e-06
-2.42406e-06
0.000287188
-3.75425e-06
-0.000283257
-7.71471e-07
1.57981e-07
-3.65326e-07
0.000280683
3.81507e-07
-2.00329e-07
1.09299e-07
-4.32965e-07
0.000280802
-1.43655e-06
0.000105284
-0.000100828
-1.42718e-07
9.91666e-05
7.22276e-08
0.000251882
-0.000251586
-1.10047e-08
-5.9358e-07
-5.67257e-08
-9.38228e-09
0.00024701
0.00114947
-2.98805e-07
-2.25991e-06
1.24985e-06
-5.07191e-07
-6.88587e-07
1.09934e-06
-1.50409e-06
0.00113373
-3.00573e-06
-8.34849e-07
6.16793e-07
8.10246e-08
-4.78588e-07
6.53733e-07
1.35395e-07
1.4323e-06
5.264e-08
0.000251389
-2.21561e-08
-1.86456e-08
0.000247522
-3.28305e-08
-0.000247176
-2.7946e-07
-2.17905e-07
0.00114989
-4.01447e-06
-5.00047e-07
1.49508e-06
-3.10442e-07
1.62954e-06
-2.29231e-07
0.000231133
-0.000231044
1.29603e-07
8.387e-08
-7.39915e-08
-1.1309e-07
0.000195017
-4.66819e-08
0.000230898
-4.14061e-08
1.00848e-07
4.87833e-08
0.00019513
-2.61719e-08
-0.000195109
0.000251842
-0.00025155
-5.83792e-07
1.34667e-07
0.00114972
-2.23982e-06
1.22585e-06
-5.14893e-07
-7.1043e-07
1.08758e-06
1.41547e-07
-6.63428e-09
-1.28278e-07
0.000246864
-1.23938e-06
0.0011329
1.82462e-06
-2.81665e-06
-5.3202e-07
5.93372e-07
1.37744e-06
8.43384e-08
-8.85233e-07
6.40661e-07
8.59276e-08
0.000251362
-9.55844e-09
8.21596e-08
0.00114999
-3.95581e-06
-5.30017e-07
1.48346e-06
-3.24377e-07
1.6014e-06
0.000247397
9.23334e-08
-1.65991e-07
-0.00024704
-2.34451e-07
-4.00591e-07
7.06919e-08
1.27041e-08
3.15458e-08
0.000231457
-4.03709e-06
-0.000197161
-1.64588e-06
-3.03047e-07
-9.02689e-08
0.000195437
-2.3606e-06
6.57266e-08
-0.000232448
4.05169e-07
1.33152e-06
8.01132e-08
5.52856e-08
-6.77283e-07
0.000252024
-3.25154e-06
-6.76029e-06
2.81253e-06
5.12867e-07
1.42696e-06
2.62908e-06
6.86782e-07