/*--------------------------------*- C++ -*----------------------------------*\
| =========                 |                                                 |
| \\      /  F ield         | OpenFOAM: The Open Source CFD Toolbox           |
|  \\    /   O peration     | Version:  v2006                                 |
|   \\  /    A nd           | Website:  www.openfoam.com                      |
|    \\/     M anipulation  |                                                 |
\*---------------------------------------------------------------------------*/
FoamFile
{
    version     2.0;
    format      ascii;
    class       volVectorField;
    location    "750";
    object      U;
}
// * * * * * * * * * * * * * * * * * * * * * * * * * * * * * * * * * * * * * //

dimensions      [0 1 -1 0 0 0 0];


internalField   nonuniform List<vector> 
14314
(
(-8.77092e-05 -8.71913e-05 0.111771)
(1.50729e-05 -1.0282e-05 0.107436)
(-1.02073e-05 2.0734e-05 0.107465)
(-6.44005e-06 -1.47007e-05 0.104371)
(-3.88155e-05 -5.94516e-05 0.112015)
(9.54689e-05 -2.24736e-05 0.107746)
(-1.60856e-05 8.86463e-05 0.107745)
(4.50712e-05 3.83764e-05 0.104767)
(-4.60728e-05 -5.38265e-05 0.104388)
(-4.49606e-05 -5.75909e-05 0.107334)
(4.99872e-06 -4.56373e-05 0.107395)
(3.56025e-05 -3.74595e-05 0.104413)
(-5.55003e-05 -5.00205e-05 0.107342)
(-4.9846e-05 9.65107e-06 0.107419)
(2.31302e-05 -3.55816e-05 0.107399)
(2.63984e-05 1.54413e-05 0.107364)
(-3.84621e-05 3.90016e-05 0.104435)
(-3.76453e-05 3.00718e-05 0.107422)
(1.85365e-05 2.6735e-05 0.107372)
(3.91056e-05 3.29366e-05 0.104378)
(3.142e-06 -6.1555e-06 0.1044)
(-4.3e-05 -5.00017e-05 0.104475)
(-2.50984e-05 -4.58938e-05 0.107418)
(7.04373e-06 -2.2224e-05 0.107446)
(-3.58381e-05 -7.4722e-05 0.107557)
(7.01472e-05 -3.92132e-05 0.107515)
(-6.10054e-06 1.56978e-05 0.104408)
(7.15992e-05 -2.07133e-05 0.104423)
(-4.01601e-05 -3.64148e-05 0.107426)
(-2.51085e-05 8.63443e-06 0.107474)
(-6.5923e-05 -5.05559e-05 0.107559)
(-3.5036e-05 6.18828e-05 0.107522)
(1.46166e-05 2.4925e-06 0.107396)
(6.96524e-05 -1.24143e-05 0.107483)
(6.11689e-05 3.9879e-05 0.107446)
(1.53113e-05 -3.77322e-06 0.104431)
(-1.91686e-05 6.80213e-05 0.104425)
(1.25989e-05 1.03147e-05 0.107405)
(-5.42163e-06 6.43485e-05 0.107493)
(5.61197e-05 5.12382e-05 0.10745)
(5.44648e-05 4.55936e-05 0.104386)
(-3.38312e-05 -3.87033e-05 0.104851)
(-4.40262e-05 -9.23792e-05 0.107817)
(8.09897e-05 -6.30856e-05 0.107772)
(6.21801e-05 -1.27339e-05 0.104799)
(-8.54658e-05 -5.47523e-05 0.107816)
(-5.77429e-05 7.27619e-05 0.107769)
(4.24279e-05 -2.04078e-05 0.111966)
(-5.95419e-06 2.69488e-05 0.111984)
(4.52206e-05 2.36532e-05 0.111901)
(8.75481e-05 5.3024e-05 0.107713)
(-1.11476e-05 5.83687e-05 0.104794)
(6.54796e-05 7.92966e-05 0.107714)
(2.23525e-05 -9.08958e-06 0.0920242)
(9.35047e-06 1.97759e-05 0.0833577)
(8.48883e-06 5.35484e-05 0.0722883)
(-8.75391e-06 1.81021e-05 0.092023)
(2.0075e-05 6.83474e-06 0.0833525)
(-8.66635e-05 -7.87772e-05 0.111668)
(-3.73637e-06 -8.24016e-05 0.111809)
(-9.24277e-05 9.18396e-06 0.111829)
(1.45945e-05 2.54259e-05 0.11182)
(2.4654e-05 2.67659e-06 0.0989549)
(2.05913e-05 -6.30892e-05 0.107396)
(5.3976e-06 1.01534e-05 0.0936685)
(4.04345e-05 -4.54129e-05 0.109623)
(5.3352e-05 7.4229e-06 0.072262)
(5.25881e-06 2.56459e-05 0.0989596)
(-6.89988e-05 2.73818e-05 0.107398)
(-5.8202e-05 4.85966e-05 0.109619)
(1.38465e-05 6.15727e-06 0.0936667)
(4.11047e-05 4.75167e-05 0.104384)
(-1.00977e-05 -7.20847e-06 0.0883378)
(-3.64773e-06 -1.26622e-05 0.088336)
(3.11723e-05 -4.13505e-06 0.0922036)
(6.29546e-06 -4.67378e-05 0.082105)
(2.03786e-05 -5.5047e-06 0.0918833)
(1.4823e-05 6.15346e-05 0.083874)
(5.49236e-05 -7.63379e-05 0.0717738)
(-4.76929e-05 0.000126414 0.0724674)
(-6.05715e-06 3.30904e-05 0.092199)
(-4.92062e-05 8.66902e-06 0.0820982)
(-6.76218e-06 1.8374e-05 0.0918797)
(5.8125e-05 2.07279e-05 0.0838694)
(1.08881e-05 -7.46043e-05 0.111866)
(-7.99284e-05 1.92588e-05 0.111891)
(2.53095e-05 2.85174e-05 0.111851)
(-4.5501e-05 -6.03184e-05 0.111812)
(2.35037e-05 -2.66358e-05 0.111797)
(-1.92036e-05 1.6524e-05 0.11182)
(2.95322e-05 1.50819e-05 0.111745)
(2.10488e-05 1.57759e-05 0.0989577)
(3.30011e-05 -7.1903e-07 0.0933819)
(3.62275e-05 -2.3156e-05 0.109624)
(3.48298e-05 -1.19559e-05 0.107413)
(1.6426e-05 6.34041e-06 0.0989985)
(-1.6698e-06 1.88905e-05 0.0938498)
(2.20163e-05 -9.64816e-06 0.10958)
(-7.65664e-05 5.55332e-05 0.0717519)
(0.000126363 -4.55399e-05 0.0724583)
(2.01024e-05 2.29857e-05 0.0989648)
(-2.1448e-05 4.28789e-05 0.109647)
(-3.41476e-07 3.48074e-05 0.0933803)
(-9.51636e-06 3.71336e-05 0.10744)
(1.26118e-05 1.86492e-05 0.0990099)
(-3.04452e-06 2.58376e-05 0.109608)
(1.66304e-05 6.18471e-07 0.0938446)
(2.42356e-05 3.37759e-05 0.0878278)
(3.43908e-05 2.46051e-05 0.0878278)
(3.73178e-05 2.57351e-05 0.104364)
(-3.31049e-05 -2.93064e-05 0.0886634)
(-3.22772e-05 -3.00433e-05 0.0886649)
(-1.26901e-05 -4.04132e-05 0.0938068)
(-0.000140808 -0.00018511 0.0816792)
(-1.30373e-05 -7.90673e-05 0.09176)
(-0.000245391 -0.000106622 0.0864071)
(0.000260659 -0.000438159 0.0722833)
(9.64119e-05 -0.000215573 0.0810341)
(-4.19654e-05 -3.88272e-06 0.0938038)
(-0.000187982 -0.000134182 0.0816797)
(-8.11175e-05 -5.61501e-06 0.0917579)
(-0.000108957 -0.000239807 0.086411)
(-2.40483e-05 -5.03689e-05 0.116046)
(-3.50386e-05 -8.54251e-05 0.114016)
(-6.56038e-05 -5.83291e-05 0.114027)
(-3.31287e-05 -4.77552e-05 0.111474)
(-5.64062e-05 -7.57292e-05 0.116008)
(-9.47628e-06 -5.54593e-05 0.113747)
(-3.46197e-05 -3.31499e-05 0.113751)
(4.28608e-05 1.186e-05 0.0991659)
(0.000109427 -4.00723e-05 0.0936479)
(8.08191e-05 1.43525e-05 0.109774)
(5.37918e-05 1.15401e-05 0.10793)
(8.0685e-05 -6.76975e-06 0.0993746)
(0.000105334 -4.94451e-05 0.0937265)
(8.04398e-05 1.18393e-05 0.110306)
(-0.000438306 0.000263156 0.0722973)
(-0.000215664 9.92412e-05 0.0810483)
(4.90195e-06 4.31729e-05 0.0991501)
(2.94587e-05 7.00077e-05 0.10978)
(-4.54356e-05 0.00011134 0.0936404)
(1.82768e-05 4.40426e-05 0.107911)
(-9.41607e-06 8.16927e-05 0.0993674)
(2.484e-05 6.70435e-05 0.110293)
(-5.38543e-05 0.000105324 0.0937244)
(0.000251646 7.17513e-05 0.0878777)
(6.49551e-05 0.000257256 0.0878793)
(5.31136e-05 5.29289e-05 0.10506)
(0.000118348 -4.28512e-05 0.0908409)
(-5.15243e-05 0.000123199 0.0908428)
(2.13869e-05 4.19192e-05 0.0723748)
(4.19415e-05 1.94371e-05 0.0723731)
(-6.25665e-05 -5.91327e-05 0.104308)
(2.09404e-05 7.81969e-06 0.0883856)
(1.01346e-05 1.73598e-05 0.0883835)
(3.41236e-05 7.25676e-05 0.0724014)
(-1.39874e-05 -5.05127e-05 0.0718751)
(7.05767e-05 3.63078e-05 0.0724026)
(-5.10854e-05 -1.48272e-05 0.0718727)
(-3.79703e-06 -3.93976e-06 0.104276)
(3.27245e-05 1.87957e-05 0.0884977)
(1.86365e-05 3.17921e-05 0.0884973)
(-1.14751e-05 -1.71852e-05 0.0879463)
(-1.53151e-05 -1.45717e-05 0.0879441)
(1.29439e-05 -8.51079e-06 0.0920258)
(2.43616e-05 3.34685e-05 0.0833126)
(-1.81262e-06 -2.97599e-05 0.0989439)
(-5.41415e-05 -5.14769e-05 0.10724)
(1.13561e-05 -6.24451e-06 0.0936999)
(-6.19595e-05 -6.64914e-05 0.109455)
(-3.08347e-06 -3.11971e-05 0.0989511)
(-2.3952e-05 -7.21521e-05 0.107361)
(1.51684e-05 3.37782e-06 0.0936813)
(-5.7371e-05 -7.86894e-05 0.109516)
(1.4546e-05 -4.53633e-06 0.0919004)
(1.13432e-05 3.83835e-05 0.0835648)
(1.09688e-05 -3.32921e-05 0.0823418)
(3.46857e-05 -3.25413e-06 0.0921008)
(2.88622e-05 -3.42031e-06 0.091901)
(2.01612e-05 4.75551e-05 0.0835407)
(2.3928e-05 -1.98607e-05 0.0823004)
(2.18728e-05 -1.35612e-06 0.0920997)
(8.49674e-07 -2.03842e-05 0.0989457)
(-4.38953e-05 -4.99333e-05 0.107313)
(2.4459e-05 3.69274e-06 0.0937898)
(-4.73858e-05 -6.92396e-05 0.109518)
(-1.26628e-06 -2.53461e-05 0.0934361)
(-6.0465e-05 -7.81555e-05 0.10952)
(2.27511e-05 -2.04866e-05 0.098992)
(8.71722e-06 -2.05268e-05 0.098951)
(-1.73599e-05 -5.276e-05 0.107404)
(2.34725e-05 2.06986e-05 0.0937615)
(-3.54908e-05 -6.76148e-05 0.109554)
(3.60165e-05 -1.32109e-05 0.0934132)
(-4.39824e-05 -8.35373e-05 0.109569)
(2.04915e-05 -1.79624e-05 0.0989916)
(2.12079e-05 -7.1537e-05 0.104401)
(8.00216e-06 2.18063e-05 0.0883152)
(-1.16121e-06 2.02356e-05 0.088329)
(-3.86967e-05 2.4217e-05 0.0722976)
(-9.11582e-06 7.9633e-05 0.0723717)
(4.40341e-05 -3.95806e-05 0.0718022)
(-3.01642e-05 -5.84383e-06 0.104348)
(7.10286e-07 3.179e-05 0.0884505)
(-8.90157e-06 3.2731e-05 0.0884584)
(4.35831e-05 -2.69397e-06 0.0878792)
(2.51907e-05 -1.23215e-05 0.0878896)
(-6.91917e-05 3.76621e-05 0.0723745)
(5.41622e-05 -1.0957e-05 0.0718069)
(-3.04032e-05 -4.63636e-06 0.0989506)
(-5.86657e-05 -4.40715e-05 0.107244)
(-3.7958e-06 5.4429e-06 0.0937008)
(-7.55672e-05 -4.56312e-05 0.109458)
(-8.41853e-06 9.06506e-06 0.092024)
(3.37334e-05 2.28778e-05 0.0832947)
(-3.19417e-05 -5.43486e-06 0.0989583)
(-7.70278e-05 -1.44611e-05 0.107368)
(-8.62419e-05 -4.30076e-05 0.109519)
(2.93015e-06 1.24241e-05 0.0936802)
(-4.47253e-06 1.01008e-05 0.0918985)
(3.65872e-05 1.26819e-05 0.0835587)
(-3.36979e-05 9.47844e-06 0.0823359)
(-3.92559e-06 3.19222e-05 0.0920974)
(-2.08214e-05 -3.52193e-06 0.098953)
(-5.21174e-05 -4.19081e-05 0.107319)
(5.39482e-06 1.92785e-05 0.093789)
(-7.33088e-05 -4.58024e-05 0.109533)
(-2.27878e-05 -7.6157e-06 0.0934369)
(-8.54151e-05 -4.96695e-05 0.109528)
(-2.0546e-05 1.59509e-05 0.0989982)
(-3.75505e-06 2.49146e-05 0.0918992)
(4.75785e-05 2.02172e-05 0.0835244)
(-1.98491e-05 2.32457e-05 0.082282)
(-2.51483e-06 1.92424e-05 0.0920965)
(-2.14978e-05 4.95738e-06 0.0989594)
(-5.77902e-05 -9.90221e-06 0.107421)
(-7.3863e-05 -3.15072e-05 0.109577)
(1.88554e-05 2.16166e-05 0.0937592)
(-9.11162e-05 -3.35306e-05 0.10958)
(-1.40784e-05 3.32681e-05 0.0934117)
(-1.91966e-05 1.45855e-05 0.0989997)
(1.21488e-05 1.36467e-05 0.0920055)
(-1.90978e-05 6.92687e-06 0.0832827)
(2.49431e-05 1.17569e-06 0.0989535)
(3.23686e-05 1.94407e-05 0.107379)
(4.39278e-05 -1.185e-05 0.109619)
(1.48226e-07 2.73474e-06 0.0936722)
(1.16091e-05 2.46924e-06 0.092008)
(-2.41894e-05 6.9215e-06 0.0833155)
(1.55875e-05 4.47484e-07 0.0989466)
(1.46318e-05 -4.24794e-05 0.107422)
(-7.86997e-07 2.12518e-05 0.0937464)
(2.78482e-05 -2.98215e-05 0.109591)
(2.58914e-05 -3.5602e-06 0.093398)
(4.36545e-05 -4.12469e-05 0.109642)
(1.76568e-05 1.15905e-05 0.0989667)
(7.99681e-06 2.44218e-06 0.091878)
(-3.66122e-05 9.02482e-06 0.0835258)
(3.44912e-05 8.51617e-06 0.0822727)
(7.24133e-06 1.66865e-05 0.092077)
(1.56455e-05 7.32415e-06 0.0989452)
(2.2385e-05 9.72313e-06 0.107395)
(3.01101e-05 -7.32302e-06 0.109578)
(-9.39172e-06 -2.23083e-06 0.0937522)
(4.67824e-05 -5.62124e-06 0.109633)
(1.95516e-05 1.86961e-05 0.0934034)
(1.71298e-05 6.02092e-06 0.0989654)
(7.29256e-06 1.49403e-05 0.0918809)
(-4.04417e-05 2.31478e-06 0.0835534)
(2.91098e-05 5.35477e-06 0.0823061)
(6.43457e-06 1.50703e-06 0.0920795)
(-7.32961e-05 2.61329e-05 0.104409)
(2.11228e-05 6.43532e-06 0.0883037)
(2.2102e-05 -9.73519e-07 0.0883167)
(2.44324e-05 -3.91049e-05 0.0722695)
(7.9303e-05 -9.05776e-06 0.0723486)
(-3.97804e-05 4.34978e-05 0.0717752)
(-7.25288e-06 -2.5704e-05 0.104361)
(3.0129e-05 3.05573e-07 0.0884376)
(3.18439e-05 -7.91956e-06 0.0884445)
(-3.53416e-06 4.23703e-05 0.0878662)
(-1.12844e-05 2.53497e-05 0.0878762)
(3.63507e-05 -6.9563e-05 0.0723488)
(-1.15275e-05 5.37321e-05 0.0717778)
(4.04812e-06 2.58639e-05 0.0989577)
(5.7178e-06 4.19488e-05 0.107379)
(-2.97191e-05 5.38701e-05 0.109616)
(8.42566e-06 -2.0599e-06 0.0936735)
(1.75506e-05 1.16267e-05 0.0920026)
(7.8235e-06 -1.99487e-05 0.0832641)
(6.55325e-06 1.09937e-05 0.0920057)
(9.88448e-06 -2.53962e-05 0.0833098)
(4.53555e-06 1.69809e-05 0.0989536)
(-4.67059e-05 2.22109e-05 0.107437)
(-3.28061e-05 3.70007e-05 0.109611)
(2.24463e-05 6.39289e-07 0.0937447)
(-5.02985e-05 5.31003e-05 0.109648)
(-2.78742e-07 2.69251e-05 0.0933966)
(1.77832e-05 1.96899e-05 0.0989771)
(1.1805e-05 1.66005e-05 0.0989514)
(4.82158e-06 2.72928e-05 0.1074)
(-1.00405e-05 3.69565e-05 0.109592)
(3.75335e-06 -1.16036e-05 0.0937526)
(-1.78049e-05 5.61767e-05 0.109637)
(2.50872e-05 1.69448e-05 0.0934042)
(1.30167e-05 1.79197e-05 0.0989743)
(6.4794e-06 7.90596e-06 0.0918761)
(7.64518e-06 -3.7573e-05 0.0835058)
(8.45739e-06 3.37411e-05 0.0822528)
(1.9513e-05 8.31334e-06 0.0920745)
(1.92337e-05 6.96178e-06 0.0918792)
(1.77143e-06 -3.90233e-05 0.0835451)
(7.44242e-06 2.87095e-05 0.082299)
(4.64056e-06 7.04735e-06 0.092077)
(-4.47794e-05 -9.48025e-06 0.0723272)
(-6.84887e-06 -4.52627e-05 0.0723242)
(-1.49326e-05 -1.23283e-05 0.104327)
(-1.90881e-05 -1.8705e-05 0.0884708)
(-1.6993e-05 -1.93579e-05 0.0884706)
(1.53193e-05 2.612e-05 0.0879019)
(2.95056e-05 1.29798e-05 0.0878997)
(-7.36534e-05 -2.58221e-05 0.0724044)
(4.80361e-05 2.55983e-05 0.0718396)
(-2.73615e-05 -7.20906e-05 0.0724034)
(2.70994e-05 4.81415e-05 0.0718367)
(-3.21615e-05 -8.19737e-05 0.0717893)
(5.89428e-05 0.000125356 0.0724459)
(-8.4458e-05 -2.88719e-05 0.0717906)
(0.000122304 6.54197e-05 0.072449)
(-2.03676e-05 -2.49845e-05 0.0878459)
(-2.59656e-05 -2.02374e-05 0.0878457)
(-3.16278e-05 -4.27692e-05 0.104436)
(3.79353e-05 3.2741e-05 0.0886623)
(2.9602e-05 4.15813e-05 0.0886635)
(7.3359e-05 0.000148101 0.0727313)
(-6.63919e-05 -0.000146471 0.0717111)
(0.000144837 8.03744e-05 0.0727348)
(-0.000149356 -5.99224e-05 0.0717134)
(-6.9784e-06 -1.74969e-05 0.104542)
(2.96226e-05 -1.54097e-06 0.089067)
(-6.8143e-06 3.6674e-05 0.0890692)
(-4.32338e-05 -5.40426e-05 0.087684)
(-5.81491e-05 -3.88402e-05 0.0876856)
(1.93001e-05 -2.20582e-06 0.0922014)
(2.35881e-05 -3.91543e-05 0.0820871)
(3.73361e-05 -3.42043e-06 0.0918817)
(2.4895e-06 6.35312e-05 0.0838753)
(3.3065e-05 -2.03419e-05 0.0990001)
(2.37624e-06 -2.88917e-05 0.0934254)
(-3.93848e-05 -7.60577e-05 0.109601)
(-3.15092e-05 -5.76454e-05 0.107434)
(2.03795e-05 -1.8125e-05 0.0990303)
(1.9709e-05 6.02424e-06 0.0938839)
(-2.15441e-05 -5.92174e-05 0.109595)
(3.04548e-05 -1.62468e-05 0.0989946)
(4.71595e-05 -1.20064e-05 0.0933971)
(-1.3563e-05 -6.90148e-05 0.109623)
(3.5356e-05 -2.58002e-05 0.107434)
(3.10648e-05 -1.50297e-05 0.0990285)
(2.40929e-05 2.16016e-05 0.0938596)
(-6.94727e-06 -4.74035e-05 0.109605)
(1.10938e-05 -2.15669e-05 0.0918167)
(8.42051e-06 5.08605e-05 0.0844088)
(-1.50156e-05 -7.68969e-05 0.0817655)
(5.23027e-06 -3.92344e-05 0.092415)
(3.38905e-05 -1.9952e-05 0.0918146)
(-8.01314e-06 4.79727e-05 0.0844253)
(2.91932e-05 -7.61788e-05 0.0817717)
(1.9162e-05 -3.7748e-05 0.0924126)
(2.28118e-05 -3.05542e-05 0.0991358)
(-1.01458e-05 -4.43467e-05 0.107518)
(-2.74866e-05 -4.57045e-05 0.0941222)
(4.48688e-06 -5.83945e-05 0.109699)
(-8.61293e-06 -4.62666e-05 0.0933924)
(-1.38424e-05 -7.45058e-05 0.109692)
(2.05592e-05 -5.29525e-05 0.0989811)
(4.03021e-05 -2.64436e-05 0.0991301)
(2.97221e-05 -9.59847e-06 0.107496)
(5.15205e-05 -3.73181e-05 0.0941124)
(1.73963e-05 -4.43641e-05 0.109688)
(4.83023e-05 -3.24171e-05 0.0933733)
(1.98477e-05 -5.99777e-05 0.109688)
(3.14297e-05 -4.91606e-05 0.098975)
(5.28987e-05 -1.25332e-05 0.0878082)
(3.46618e-05 -2.01108e-05 0.0878125)
(4.68819e-05 -1.27902e-05 0.104406)
(-1.5082e-05 4.1075e-05 0.0886495)
(-2.52852e-05 3.93147e-05 0.0886517)
(8.56365e-05 -2.87159e-05 0.0717733)
(-0.000124033 6.17822e-05 0.0724653)
(-7.67495e-05 0.000145102 0.0727778)
(7.45163e-05 -0.000145942 0.0717385)
(2.72202e-05 1.33019e-05 0.104505)
(-2.36705e-05 -5.4626e-07 0.089083)
(4.19619e-06 3.14355e-05 0.0890792)
(6.27634e-05 -4.66324e-05 0.0876832)
(6.01624e-05 -4.18017e-05 0.0876816)
(-0.000149213 7.35794e-05 0.0727714)
(0.000147698 -6.4881e-05 0.0717341)
(-2.06305e-05 2.83111e-05 0.0990004)
(-2.78417e-05 -1.98426e-06 0.0934242)
(-7.66006e-05 -4.41517e-05 0.109616)
(-4.98046e-05 -4.62355e-05 0.107441)
(-1.81158e-05 1.32221e-05 0.0990365)
(4.55019e-06 2.04389e-05 0.0938816)
(-5.67657e-05 -3.26351e-05 0.109612)
(-4.36353e-06 2.08617e-05 0.0921972)
(-3.95635e-05 2.44962e-05 0.0820713)
(-5.25634e-06 3.54913e-05 0.0918787)
(6.31923e-05 4.74835e-06 0.0838679)
(-1.77828e-05 2.60035e-05 0.0989959)
(-7.23738e-05 -1.4577e-05 0.109646)
(-1.43117e-05 4.57803e-05 0.0933947)
(-2.65624e-05 3.36569e-05 0.107458)
(-1.63244e-05 2.51009e-05 0.0990366)
(-4.89139e-05 -1.31002e-05 0.10963)
(1.89281e-05 2.45756e-05 0.0938548)
(-2.35766e-05 1.41347e-05 0.0918128)
(4.74537e-05 1.60068e-05 0.0844089)
(-8.05264e-05 -9.2597e-06 0.0817611)
(-4.14703e-05 1.19028e-05 0.0924121)
(-3.10288e-05 1.92001e-05 0.0991353)
(-3.57348e-05 -2.58507e-05 0.107523)
(-4.98331e-05 -2.04082e-05 0.0941201)
(-5.06803e-05 -1.10068e-05 0.109705)
(-4.83699e-05 -6.4935e-06 0.09339)
(-6.81085e-05 -3.01986e-05 0.109703)
(-5.37362e-05 2.20048e-05 0.0989752)
(-2.21722e-05 3.66464e-05 0.0918114)
(4.79914e-05 -4.25403e-06 0.0844298)
(-7.64937e-05 3.16438e-05 0.0817664)
(-3.99528e-05 2.53198e-05 0.0924099)
(-2.80179e-05 3.68562e-05 0.0991309)
(-8.948e-06 2.50869e-05 0.107516)
(-3.91677e-05 5.36119e-06 0.109698)
(-3.90001e-05 5.56458e-05 0.0941057)
(-5.64144e-05 8.53102e-06 0.109706)
(-3.52016e-05 4.94849e-05 0.0933692)
(-5.02753e-05 3.24773e-05 0.0989682)
(6.92299e-06 1.3882e-05 0.0921888)
(4.91739e-05 3.90561e-06 0.0820765)
(9.51476e-06 1.44137e-06 0.0918607)
(-6.00259e-05 1.35281e-05 0.0838782)
(1.98751e-05 8.59046e-06 0.0989569)
(3.74678e-05 2.58217e-06 0.109608)
(2.39156e-05 2.01621e-05 0.0933891)
(3.06131e-05 1.83054e-05 0.107372)
(1.5612e-05 1.35378e-05 0.098997)
(2.21935e-05 2.2986e-07 0.109562)
(-1.04934e-05 -7.53428e-07 0.0938555)
(6.13099e-06 3.58792e-07 0.0921902)
(4.58556e-05 6.69873e-06 0.0821029)
(8.57253e-06 1.63947e-05 0.0918632)
(-6.0536e-05 -8.18707e-06 0.0838946)
(3.2447e-05 5.66454e-06 0.0990931)
(2.97453e-05 1.05634e-05 0.107469)
(4.9248e-05 -2.57019e-05 0.0941096)
(4.02578e-05 8.66124e-06 0.109627)
(5.0585e-05 -8.98056e-06 0.0933646)
(4.72473e-05 -5.94511e-06 0.109634)
(5.593e-05 7.53525e-06 0.0989481)
(2.43715e-05 -4.59034e-06 0.0918078)
(-5.13618e-05 8.01816e-06 0.0844412)
(7.84051e-05 -1.67467e-05 0.0817782)
(4.04319e-05 -3.97033e-06 0.0924145)
(3.11808e-05 1.86471e-05 0.0990923)
(2.30903e-05 5.4362e-06 0.107428)
(3.90617e-05 8.37025e-06 0.10961)
(4.33072e-05 3.77764e-05 0.0941139)
(4.64507e-05 1.45575e-05 0.109616)
(4.24042e-05 2.56571e-05 0.0933712)
(5.44812e-05 1.44658e-05 0.0989479)
(2.36853e-05 1.68771e-05 0.0918094)
(-4.92956e-05 -1.02093e-05 0.084445)
(7.84942e-05 2.0402e-05 0.0817923)
(3.9805e-05 9.49369e-06 0.0924144)
(-1.44588e-05 5.31963e-05 0.087795)
(-2.17105e-05 3.58857e-05 0.087799)
(-1.26954e-05 4.72313e-05 0.104425)
(3.91337e-05 -1.32929e-05 0.0886392)
(3.62196e-05 -2.32257e-05 0.0886399)
(-3.03032e-05 8.55431e-05 0.0717486)
(5.92914e-05 -0.000123614 0.0724538)
(0.000145807 -7.39689e-05 0.072787)
(-0.000145935 7.69369e-05 0.0717331)
(1.3791e-05 2.63886e-05 0.104522)
(-1.37573e-06 -1.95558e-05 0.089081)
(2.72722e-05 5.46702e-06 0.0890763)
(-4.90375e-05 6.57022e-05 0.0876742)
(-4.58464e-05 6.24826e-05 0.0876725)
(7.11262e-05 -0.000149525 0.0727812)
(-6.7258e-05 0.00014798 0.0717274)
(1.36459e-05 2.02387e-05 0.0989624)
(6.30094e-06 4.07562e-05 0.109624)
(2.54686e-05 2.2167e-05 0.0933885)
(3.28108e-05 2.29488e-05 0.10738)
(2.06785e-05 1.64363e-05 0.0990067)
(1.04501e-05 2.15145e-05 0.109582)
(8.73547e-08 -9.59865e-06 0.0938537)
(1.23602e-05 9.57202e-06 0.0921849)
(1.82716e-06 4.87706e-05 0.0820562)
(3.4352e-06 1.11747e-05 0.091859)
(1.00454e-05 -5.92205e-05 0.0838664)
(-9.29277e-07 8.27256e-06 0.0921857)
(5.03672e-06 4.80044e-05 0.0820938)
(1.89461e-05 9.68335e-06 0.091861)
(-1.35837e-05 -5.69565e-05 0.0838878)
(8.92195e-06 3.41362e-05 0.0990989)
(1.49356e-05 2.90173e-05 0.107493)
(2.07833e-05 3.5674e-05 0.109643)
(-3.07935e-05 5.09598e-05 0.0941009)
(5.60992e-06 4.45151e-05 0.109657)
(-1.19851e-05 5.30253e-05 0.09336)
(6.60017e-06 5.68403e-05 0.0989423)
(2.27666e-05 3.14462e-05 0.0990964)
(2.19404e-05 1.39532e-05 0.107435)
(2.40519e-05 3.17121e-05 0.109621)
(3.15682e-05 4.76158e-05 0.0941113)
(3.05783e-05 4.06567e-05 0.109631)
(2.51367e-05 4.40874e-05 0.093369)
(1.38648e-05 5.51042e-05 0.0989426)
(-7.27564e-06 2.74494e-05 0.0918045)
(4.18409e-06 -5.0805e-05 0.0844441)
(-1.97172e-05 7.93123e-05 0.0817692)
(-1.04321e-05 4.31307e-05 0.0924092)
(1.43112e-05 2.6195e-05 0.0918051)
(-1.77707e-05 -4.52581e-05 0.0844435)
(1.50013e-05 8.24034e-05 0.0817862)
(2.83037e-06 4.27372e-05 0.0924093)
(8.15311e-05 3.96979e-05 0.0718038)
(-0.000124759 -5.61379e-05 0.0724894)
(3.69178e-05 8.37668e-05 0.071804)
(-6.2221e-05 -0.000121397 0.0724906)
(1.53253e-05 3.82279e-06 0.104463)
(1.3544e-06 -2.82591e-05 0.089088)
(-3.51486e-05 6.97379e-06 0.0890903)
(5.25636e-05 5.01803e-05 0.0876962)
(4.64156e-05 5.63142e-05 0.0876979)
(-0.000147408 -7.60124e-05 0.0727865)
(0.000147014 6.82954e-05 0.0717569)
(-8.34054e-05 -0.00014408 0.0727896)
(6.18533e-05 0.000150376 0.0717596)
(-0.000266643 -0.000434431 0.0722439)
(-0.000109359 -0.000210698 0.0809927)
(-0.000435933 -0.000260176 0.0722445)
(-0.00021337 -0.000104355 0.0809953)
(-7.16004e-05 -0.000251766 0.0878464)
(-0.00025709 -6.49106e-05 0.087848)
(-4.48482e-05 -4.35785e-05 0.105126)
(3.96899e-05 -0.000116842 0.0908173)
(-0.000120987 4.70547e-05 0.090819)
(-4.17605e-05 -3.6839e-05 0.105562)
(2.20641e-05 -0.000118871 0.090281)
(-0.000122992 2.90909e-05 0.0902825)
(9.06678e-06 -3.98027e-05 0.093806)
(0.000137806 -0.000188455 0.0816966)
(2.92181e-05 -7.78568e-05 0.0917585)
(0.000233696 -0.000112088 0.0864267)
(1.59376e-05 -3.81481e-05 0.0991797)
(-4.19469e-05 -0.000105899 0.0936498)
(1.31187e-05 -8.67272e-05 0.109871)
(-8.34962e-06 -3.86281e-05 0.108003)
(3.90087e-06 -7.67458e-05 0.0994049)
(-5.07315e-05 -0.000103347 0.0937155)
(1.2351e-05 -7.50391e-05 0.110393)
(7.29781e-06 -3.59128e-05 0.0991756)
(5.89495e-05 -0.000100639 0.0936491)
(3.3479e-05 -7.26535e-05 0.109852)
(4.69603e-05 -1.7195e-05 0.107951)
(4.03608e-05 -7.33615e-05 0.0993992)
(4.58779e-05 -0.000105976 0.0937226)
(3.95388e-05 -6.67063e-05 0.110375)
(3.10806e-05 -4.58526e-05 0.10016)
(-4.66316e-06 -4.49085e-05 0.108147)
(-5.31066e-05 -7.42661e-05 0.0931121)
(2.09045e-05 -5.38022e-05 0.110534)
(-1.88605e-05 -4.47516e-05 0.100156)
(3.97463e-05 -3.08392e-05 0.108101)
(4.6461e-05 -7.69688e-05 0.0931219)
(3.17527e-05 -4.80124e-05 0.110518)
(7.37743e-05 -0.000252928 0.0878715)
(0.000253956 -7.09554e-05 0.0878658)
(7.16982e-05 -2.45016e-05 0.105079)
(-4.85539e-05 -0.000121863 0.0908427)
(0.000116187 3.96827e-05 0.0908359)
(0.000432839 -0.00026726 0.0722788)
(0.000208621 -0.000111982 0.0810335)
(6.49935e-05 -2.56003e-05 0.105525)
(-3.19925e-05 -0.000124265 0.0903092)
(0.000117849 2.16892e-05 0.0903027)
(-3.90759e-05 2.38096e-05 0.0991694)
(-0.000110355 -3.3776e-05 0.0936484)
(-7.62031e-05 -4.75023e-06 0.109869)
(-3.37318e-05 -1.23952e-05 0.107999)
(-7.75919e-05 7.20203e-06 0.0993978)
(-0.000107373 -4.08511e-05 0.0937159)
(-6.37864e-05 -8.28267e-07 0.11038)
(-4.10738e-05 1.73966e-05 0.093802)
(-0.000188585 0.000141186 0.0817039)
(-7.95947e-05 3.60218e-05 0.0917573)
(-0.000112437 0.000237665 0.086437)
(-3.6312e-05 1.42275e-05 0.0991629)
(-6.30978e-05 1.79749e-05 0.109852)
(-0.000102312 6.38258e-05 0.0936434)
(-9.37607e-06 3.82372e-05 0.107931)
(-7.43528e-05 4.312e-05 0.0993916)
(-5.51734e-05 2.59395e-05 0.110357)
(-0.000105417 5.12514e-05 0.0937216)
(-4.66467e-05 4.07326e-05 0.100147)
(-4.3133e-05 -3.82395e-06 0.108141)
(-7.82687e-05 -4.34941e-05 0.0931128)
(-4.3407e-05 1.16795e-05 0.110515)
(-4.44838e-05 -1.02269e-05 0.100141)
(-2.2954e-05 3.19053e-05 0.10807)
(-3.66036e-05 2.09249e-05 0.110492)
(-7.65827e-05 5.1808e-05 0.0931216)
(4.77466e-06 -3.86423e-05 0.116032)
(1.04124e-05 -6.85838e-05 0.114011)
(3.94713e-05 -2.61162e-05 0.113974)
(5.71643e-05 -1.88628e-05 0.11141)
(-9.77797e-06 -6.12436e-05 0.116008)
(2.41354e-05 -4.38375e-05 0.113732)
(4.28668e-05 -7.21694e-06 0.113674)
(-1.2921e-05 -2.12278e-05 0.116043)
(-5.16256e-05 -9.65217e-06 0.114033)
(-6.12184e-06 2.29234e-05 0.113999)
(-4.28262e-06 4.07373e-05 0.111413)
(-4.31657e-05 -2.71854e-05 0.116028)
(-2.39679e-05 1.2118e-06 0.11374)
(1.489e-05 2.17639e-05 0.113687)
(1.38868e-05 -1.25137e-05 0.116018)
(4.47804e-05 8.34443e-06 0.113948)
(3.13186e-05 2.51588e-05 0.113963)
(5.55054e-05 3.9257e-05 0.111343)
(1.81894e-06 -1.67907e-05 0.116005)
(4.62918e-05 1.52099e-05 0.113651)
(3.90249e-05 2.40048e-05 0.113659)
(-6.71431e-07 -2.93731e-05 0.116024)
(-3.08843e-05 -4.08936e-05 0.111286)
(8.92391e-06 -4.68765e-05 0.113628)
(-2.72136e-05 -1.23308e-05 0.113624)
(9.51041e-06 -1.98294e-05 0.116007)
(6.19461e-05 -1.99796e-05 0.11122)
(2.38267e-05 -3.81974e-05 0.113611)
(5.17107e-05 7.77211e-06 0.113549)
(8.58245e-06 -1.94262e-05 0.116014)
(-6.45526e-06 4.65656e-05 0.111209)
(-1.84757e-05 2.03846e-06 0.113607)
(2.8646e-05 2.98229e-05 0.11355)
(1.69444e-05 -1.20603e-05 0.11599)
(5.84953e-05 4.69678e-05 0.111159)
(5.40847e-05 1.36105e-05 0.113528)
(3.49497e-05 3.22504e-05 0.113528)
(4.19021e-05 -1.23972e-05 0.0938208)
(0.000184661 -0.000141725 0.0817138)
(8.02292e-05 -1.96682e-05 0.0917677)
(0.00010635 -0.000248029 0.0864462)
(4.18174e-05 1.36438e-06 0.0991665)
(7.92914e-05 1.66969e-05 0.109758)
(0.000104833 4.91938e-05 0.0936536)
(4.64265e-05 2.35207e-05 0.107905)
(7.93399e-05 2.65001e-05 0.0993745)
(8.02378e-05 2.42626e-05 0.110296)
(0.000105923 4.90808e-05 0.0937265)
(4.16551e-05 9.34654e-06 0.0938208)
(0.000187237 0.000138179 0.0817152)
(7.96804e-05 2.22882e-05 0.0917682)
(0.000109104 0.000239479 0.0864435)
(5.20093e-05 3.03355e-05 0.100153)
(6.58129e-05 1.11342e-05 0.108085)
(7.58941e-05 -5.20265e-05 0.093127)
(6.82288e-05 1.9215e-05 0.110458)
(5.15228e-05 -2.03085e-05 0.100154)
(5.91061e-05 2.34832e-05 0.108067)
(6.81506e-05 1.90191e-05 0.110451)
(7.63e-05 5.05109e-05 0.0931273)
(-0.000254589 7.79743e-05 0.0878707)
(-7.48321e-05 0.00025584 0.0878652)
(-2.15093e-05 6.68623e-05 0.105054)
(-0.000121008 -4.48391e-05 0.0908482)
(3.71454e-05 0.000116026 0.0908411)
(-0.000269287 0.000433199 0.0722933)
(-0.000114143 0.000209257 0.0810481)
(-2.21383e-05 6.03587e-05 0.105492)
(-0.000123534 -2.81577e-05 0.0903152)
(1.90372e-05 0.000117921 0.0903086)
(-6.46237e-06 4.25311e-05 0.0991537)
(3.53552e-05 6.74225e-05 0.109762)
(4.14368e-05 0.000109544 0.093651)
(2.93282e-05 3.97665e-05 0.107902)
(2.39048e-05 8.02951e-05 0.0993679)
(3.81444e-05 6.71679e-05 0.110287)
(3.80963e-05 0.000110497 0.0937264)
(-2.0918e-05 4.33449e-05 0.0938137)
(-0.000144649 0.000184924 0.08172)
(-2.68743e-05 8.22318e-05 0.0917641)
(-0.000251434 0.000107537 0.0864565)
(2.03379e-07 4.33226e-05 0.093815)
(0.000131408 0.000190442 0.081715)
(1.45712e-05 8.22369e-05 0.0917642)
(0.000232516 0.000112261 0.0864467)
(2.16938e-05 5.10202e-05 0.100134)
(1.75036e-05 5.62165e-05 0.108055)
(2.94636e-05 5.42398e-05 0.110435)
(-5.63221e-05 7.61428e-05 0.0931258)
(-3.02256e-05 5.15445e-05 0.100138)
(2.39059e-05 5.58363e-05 0.108062)
(2.87102e-05 5.52629e-05 0.110434)
(3.96221e-05 8.08897e-05 0.0931274)
(0.000436022 0.000263422 0.07229)
(0.000211109 0.000103369 0.0810429)
(0.000256851 0.000438329 0.0722926)
(9.74652e-05 0.000214213 0.0810465)
(4.90338e-05 5.30376e-05 0.105514)
(0.00012026 -2.58262e-05 0.0903086)
(-3.42523e-05 0.000125203 0.0903105)
(-0.000110176 -0.000196425 0.0808824)
(-0.000198897 -0.000105573 0.0808851)
(-1.98361e-05 -5.01322e-06 0.0932416)
(-0.000241161 -0.000197174 0.0872766)
(1.29722e-05 -4.50202e-06 0.0932416)
(0.000228076 -0.00020291 0.0872956)
(9.67991e-05 -0.000201473 0.0809274)
(0.000194296 -0.00011309 0.0809275)
(-6.49195e-06 -1.10958e-05 0.0932397)
(-0.000199362 -0.000235592 0.0872808)
(-5.71887e-06 2.12707e-05 0.0932387)
(-0.000203027 0.000231834 0.0873056)
(6.15569e-06 -1.88788e-05 0.0932614)
(0.000196796 -0.000243712 0.0873138)
(5.97035e-06 1.40911e-05 0.0932616)
(0.000199762 0.000234932 0.0873102)
(-0.000201529 9.96407e-05 0.0809409)
(-0.000115235 0.000194986 0.0809421)
(-2.72948e-05 7.37698e-06 0.093255)
(-0.00024681 0.00019769 0.0873244)
(4.9609e-06 7.41189e-06 0.0932563)
(0.00022796 0.000202692 0.0873138)
(0.000196944 0.000103963 0.0809381)
(9.83515e-05 0.000199928 0.0809418)
(2.74747e-05 -3.59628e-05 0.0773921)
(6.48796e-06 -5.59994e-06 0.0918934)
(2.78494e-05 -2.49135e-05 0.0792265)
(2.09079e-05 -3.16499e-06 0.0905644)
(5.17248e-06 1.84726e-05 0.0792955)
(6.17266e-06 -1.36494e-05 0.0904288)
(4.74794e-07 3.18218e-05 0.0775742)
(-4.27598e-05 -7.02276e-05 0.0681091)
(3.3483e-05 -7.15929e-07 0.0866762)
(9.81066e-06 -2.82066e-05 0.0824231)
(-8.4726e-06 -6.56953e-06 0.0862628)
(6.83468e-05 7.66679e-05 0.0699238)
(3.86762e-05 -2.85956e-05 0.0718093)
(-3.61656e-05 2.54524e-05 0.077381)
(-5.08657e-06 2.59633e-06 0.091892)
(-2.11858e-06 1.57174e-05 0.0905624)
(-2.487e-05 2.7344e-05 0.079214)
(-1.24937e-05 1.19966e-06 0.0904267)
(1.87241e-05 4.11772e-06 0.0792834)
(3.16164e-05 -9.55397e-07 0.0775632)
(-7.03932e-05 -4.37102e-05 0.0681016)
(-1.88281e-08 3.09246e-05 0.0866724)
(-2.75845e-05 7.03365e-06 0.0824182)
(-5.79004e-06 -1.11454e-05 0.0862593)
(7.64424e-05 6.76726e-05 0.069916)
(-2.86608e-05 3.77365e-05 0.071784)
(-1.10734e-06 -4.76207e-06 0.0841907)
(-6.35411e-06 -1.37985e-06 0.0688251)
(-7.19339e-07 -5.78919e-06 0.0688162)
(5.61027e-06 3.83861e-06 0.0687992)
(4.96563e-06 5.33165e-06 0.0687952)
(8.8463e-06 5.7125e-06 0.0841012)
(9.93258e-06 5.37618e-06 0.0921055)
(-3.27258e-05 -7.53936e-06 0.0825528)
(1.27801e-05 2.35844e-05 0.087921)
(6.37039e-06 1.13291e-05 0.0967578)
(1.27792e-05 1.4257e-05 0.0966684)
(3.2798e-05 1.3313e-05 0.0817226)
(1.44084e-06 5.95964e-06 0.092263)
(8.72346e-06 5.60249e-06 0.0920988)
(-6.04058e-06 -3.38751e-05 0.082545)
(2.67864e-05 1.00165e-05 0.0879179)
(1.52896e-05 1.79932e-06 0.0967566)
(1.61866e-05 9.35515e-06 0.096666)
(1.48516e-05 3.12488e-05 0.081715)
(1.01149e-05 -3.5439e-06 0.0922569)
(3.66891e-05 -7.64453e-05 0.0773731)
(1.79352e-05 -1.01465e-05 0.0918563)
(3.28843e-05 -5.54212e-05 0.0791421)
(2.19783e-05 -1.89345e-06 0.0906912)
(-1.29335e-05 4.63169e-05 0.0793878)
(1.42527e-05 -1.88338e-05 0.0904177)
(-1.69042e-05 7.99035e-05 0.0776032)
(0.00011784 0.000192239 0.0707303)
(-1.71573e-05 3.39928e-06 0.0862078)
(1.24306e-05 5.02149e-05 0.0837006)
(-9.00308e-05 -0.000164168 0.0673093)
(4.92015e-05 -7.04702e-06 0.0867635)
(-1.20221e-05 6.586e-05 0.077593)
(3.53044e-05 -1.67921e-06 0.0921459)
(-4.41203e-06 3.84048e-05 0.0793573)
(1.66513e-05 -1.52805e-05 0.0904312)
(3.67339e-05 -6.1615e-05 0.0773746)
(3.39788e-05 -4.3158e-05 0.0791708)