/*--------------------------------*- C++ -*----------------------------------*\
| =========                 |                                                 |
| \\      /  F ield         | OpenFOAM: The Open Source CFD Toolbox           |
|  \\    /   O peration     | Version:  v2012                                 |
|   \\  /    A nd           | Website:  www.openfoam.com                      |
|    \\/     M anipulation  |                                                 |
\*---------------------------------------------------------------------------*/
FoamFile
{
    version     2.0;
    format      ascii;
    class       volScalarField;
    location    "912.5";
    object      p;
}
// * * * * * * * * * * * * * * * * * * * * * * * * * * * * * * * * * * * * * //

dimensions      [0 2 -2 0 0 0 0];


internalField   nonuniform List<scalar> 
171728
(
0.00351928
0.00351815
0.00351821
0.00351896
0.00348342
0.00348205
0.00348216
0.00348497
0.00344474
0.00344288
0.00344311
0.00344535
0.00340059
0.00339892
0.00339895
0.0034012
0.0033525
0.00335104
0.00335104
0.0033533
0.00330366
0.00330234
0.00330237
0.0033048
0.00325543
0.00325424
0.00325427
0.00325664
0.00320813
0.00320706
0.00320709
0.00320948
0.00316181
0.0031609
0.00316091
0.00316329
0.00311647
0.00311568
0.00311568
0.00311807
0.00307201
0.00307134
0.0030713
0.00307373
0.00302833
0.00302778
0.00302779
0.0030302
0.00298524
0.00298483
0.00298477
0.00298727
0.00294255
0.00294221
0.0029422
0.00294489
0.00290019
0.00289981
0.00289997
0.00290212
0.00285815
0.0028579
0.00285819
0.00286049
0.00281641
0.00281625
0.00281615
0.0028184
0.002775
0.00277491
0.00277479
0.00277709
0.00273402
0.00273401
0.00273407
0.00273613
0.00269344
0.00269346
0.00269378
0.00269551
0.00265322
0.00265313
0.00265319
0.00265529
0.00261308
0.00261336
0.00261324
0.00261508
0.00257336
0.00257358
0.00257347
0.002575
0.00253397
0.00253411
0.00253414
0.00253562
0.00249492
0.00249528
0.00249537
0.00249737
0.00245586
0.00245626
0.00245621
0.00245758
0.00241703
0.00241743
0.0024175
0.00241951
0.00237871
0.00237922
0.00237921
0.00238064
0.00234025
0.00234072
0.00234092
0.00234364
0.00230206
0.00230256
0.00230248
0.00230361
0.00226416
0.00226482
0.00226479
0.00226706
0.00222642
0.00222703
0.00222716
0.00222915
0.00218867
0.00218931
0.00218927
0.00219106
0.00215108
0.00215173
0.00215173
0.00215355
0.00211379
0.00211447
0.00211446
0.00211629
0.00207653
0.00207716
0.00207715
0.00207904
0.0020394
0.00203997
0.00203992
0.00204178
0.00200252
0.00200287
0.00200298
0.00200482
0.00196558
0.0019662
0.00196605
0.00196825
0.00192888
0.00192911
0.00192921
0.00193094
0.00189219
0.00189253
0.00189256
0.00189442
0.00185587
0.00185612
0.00185585
0.00185843
0.00181964
0.00181957
0.0018199
0.00182154
0.00178316
0.00178351
0.00178349
0.00178534
0.00174724
0.00174727
0.00174702
0.00174955
0.00171148
0.00171117
0.00171136
0.00171321
0.00167559
0.00167547
0.00167539
0.00167745
0.00163961
0.00163967
0.00163969
0.00164175
0.00160404
0.00160385
0.00160392
0.00160604
0.00156868
0.00156843
0.00156838
0.00157036
0.00153301
0.00153283
0.0015328
0.001535
0.00149802
0.00149772
0.00149784
0.0014998
0.00146275
0.00146249
0.00146248
0.00146432
0.0014275
0.00142728
0.00142709
0.00142942
0.00139228
0.00139218
0.00139227
0.00139413
0.00135729
0.00135693
0.00135706
0.00135889
0.00132312
0.00132267
0.0013224
0.00132455
0.0012878
0.00128761
0.00128793
0.00128977
0.00125277
0.00125242
0.00125252
0.00125436
0.0012184
0.00121849
0.00121805
0.00122007
0.00118377
0.00118353
0.00118366
0.00118564
0.00114905
0.00114847
0.00114861
0.00115046
0.00111446
0.0011142
0.00111423
0.00111602
0.00107989
0.00107987
0.00107995
0.00108192
0.00104526
0.00104516
0.00104498
0.00104706
0.00101048
0.00101027
0.0010101
0.0010119
0.000976225
0.000975866
0.000976067
0.000977814
0.000941887
0.000941817
0.000941936
0.000944144
0.000907394
0.000907324
0.000907167
0.000908928
0.000872633
0.000872258
0.000872333
0.000874024
0.00083813
0.000838073
0.000838032
0.000840245
0.000804021
0.000803995
0.000804069
0.000805995
0.000768899
0.000768877
0.000768664
0.000770424
0.000734167
0.000733795
0.000733907
0.000735904
0.000700386
0.000700338
0.00070049
0.000702662
0.000665827
0.000665771
0.00066571
0.000667487
0.000630227
0.000630114
0.000630095
0.000631821
0.000595522
0.000595721
0.000595479
0.000597892
0.000562252
0.000562044
0.000562038
0.000564093
0.000527613
0.000526967
0.000527498
0.000528513
0.00049094
0.000491212
0.000491034
0.000493345
0.000455594
0.000456255
0.000455846
0.000458909
0.000422796
0.000422561
0.000422379
0.000423889
0.000388151
0.00038712
0.000387761
0.000388743
0.000351096
0.000351055
0.000351332
0.000353715
0.000315833
0.000316706
0.000315938
0.000318689
0.000281995
0.000281977
0.000281955
0.000283564
0.000246613
0.000245933
0.000246472
0.000248145
0.000210022
0.000210082
0.000209751
0.00021205
0.000174927
0.000174925
0.000174974
0.000176946
0.000140719
0.000140756
0.000140882
0.00014271
0.000104487
0.000104568
0.000104309
0.000106414
6.73443e-05
6.70203e-05
6.72517e-05
6.93259e-05
3.34022e-05
3.29974e-05
3.31188e-05
3.48855e-05
6.54243e-06
7.67085e-06
7.49626e-06
5.45317e-06
0.00352384
0.00352148
0.00352117
0.00352361
0.00352138
0.00352138
0.00352782
0.00352762
0.00352766
0.00352759
0.00352114
0.00352139
0.00352386
0.00352137
0.00352136
0.00352373
0.00351889
0.00348976
0.00351839
0.00351809
0.00349179
0.00349185
0.00351891
0.00348971
0.00351807
0.00351818
0.00349146
0.00349172
0.00351824
0.00349164
0.00349151
0.00351886
0.00348965
0.0035182
0.00349144
0.00349144
0.00348972
0.00348499
0.00345077
0.00348201
0.0034823
0.00345293
0.00345285
0.00348493
0.00345092
0.00348256
0.00348219
0.00345334
0.00345322
0.0034822
0.00345299
0.00345354
0.00348489
0.00345087
0.0034821
0.00345311
0.00345322
0.00345085
0.00344525
0.00340738
0.00344282
0.00344261
0.00341034
0.00341014
0.00344528
0.00340716
0.00344321
0.00344303
0.00341017
0.00341041
0.0034429
0.0034104
0.00341087
0.00344534
0.00340738
0.00344305
0.0034104
0.00341039
0.00340747
0.00340119
0.00335982
0.0033989
0.00339878
0.00336314
0.00336287
0.00340099
0.00335986
0.00339878
0.00339893
0.00336317
0.00336318
0.00339867
0.00336311
0.00336344
0.0034012
0.00335985
0.00339891
0.00336319
0.00336315
0.00335964
0.00335335
0.00331114
0.00335099
0.00335074
0.00331451
0.00331447
0.00335339
0.00331117
0.00335106
0.00335109
0.00331451
0.00331451
0.00335102
0.0033145
0.00331433
0.0033534
0.00331116
0.00335102
0.00331455
0.00331454
0.00331127
0.00330469
0.00326291
0.0033023
0.00330232
0.00326618
0.00326618
0.00330471
0.00326291
0.00330235
0.00330237
0.00326622
0.0032662
0.00330226
0.00326621
0.00326623
0.00330473
0.00326292
0.00330236
0.00326619
0.00326621
0.00326295
0.00325659
0.0032156
0.00325424
0.00325424
0.00321876
0.00321876
0.00325658
0.0032156
0.00325425
0.00325424
0.00321879
0.00321878
0.00325426
0.00321878
0.00321879
0.00325662
0.00321563
0.00325426
0.00321879
0.00321879
0.00321565
0.00320942
0.00316929
0.00320707
0.00320706
0.00317233
0.00317233
0.00320941
0.00316928
0.00320707
0.00320708
0.00317237
0.00317238
0.00320708
0.00317235
0.00317237
0.00320947
0.00316932
0.00320711
0.00317237
0.00317237
0.00316933
0.00316326
0.00312392
0.0031609
0.00316089
0.00312688
0.00312689
0.00316326
0.00312393
0.00316091
0.00316091
0.00312689
0.00312691
0.0031609
0.00312689
0.00312691
0.00316329
0.00312396
0.0031609
0.00312692
0.00312691
0.00312396
0.00311802
0.0030795
0.00311568
0.00311567
0.00308232
0.00308233
0.00311803
0.00307946
0.00311569
0.00311568
0.0030823
0.00308235
0.00311568
0.00308232
0.00308235
0.00311806
0.00307949
0.00311567
0.00308239
0.00308233
0.00307951
0.00307372
0.00303579
0.00307133
0.00307131
0.00303861
0.00303861
0.00307366
0.00303582
0.00307139
0.00307134
0.00303857
0.00303855
0.00307135
0.00303861
0.00303858
0.00307372
0.00303583
0.00307135
0.00303859
0.00303859
0.00303588
0.00303011
0.00299274
0.0030278
0.0030278
0.00299549
0.00299548
0.00303013
0.00299266
0.00302782
0.00302781
0.00299554
0.00299549
0.00302784
0.00299549
0.00299543
0.00303018
0.00299279
0.00302785
0.00299547
0.00299544
0.00299285
0.00298712
0.00295003
0.00298477
0.00298483
0.00295282
0.00295295
0.00298705
0.00295007
0.00298471
0.00298477
0.00295275
0.00295269
0.0029848
0.00295297
0.00295284
0.0029872
0.00295015
0.00298474
0.00295274
0.00295279
0.00295038
0.00294452
0.00290771
0.00294225
0.00294218
0.00291052
0.0029105
0.00294455
0.00290759
0.00294228
0.00294221
0.00291051
0.0029103
0.00294229
0.00291047
0.0029102
0.00294457
0.00290757
0.00294227
0.00291026
0.00291022
0.00290764
0.00290223
0.00286566
0.00289982
0.0028998
0.00286836
0.00286852
0.00290217
0.00286556
0.0028999
0.00289999
0.00286846
0.0028685
0.00289971
0.00286855
0.00286818
0.00290212
0.00286582
0.00289977
0.00286856
0.00286829
0.00286594
0.00286021
0.00282395
0.00285785
0.00285788
0.0028266
0.00282686
0.00286018
0.00282378
0.00285787
0.00285813
0.00282659
0.00282662
0.00285797
0.00282686
0.00282655
0.00286041
0.00282379
0.00285808
0.00282668
0.00282663
0.00282377
0.00281854
0.0027824
0.00281618
0.00281624
0.00278525
0.00278529
0.00281846
0.0027823
0.00281608
0.00281607
0.00278526
0.00278534
0.00281629
0.00278528
0.00278513
0.0028184
0.00278233
0.00281629
0.0027853
0.00278515
0.00278243
0.00277705
0.00274129
0.00277477
0.00277494
0.0027443
0.00274422
0.00277699
0.00274142
0.00277464
0.00277469
0.00274436
0.00274435
0.00277501
0.00274416
0.00274408
0.00277693
0.00274118
0.00277498
0.00274433
0.00274406
0.00274134
0.00273608
0.00270051
0.00273403
0.00273401
0.00270353
0.00270356
0.00273615
0.0027004
0.00273396
0.00273409
0.00270365
0.00270358
0.00273395
0.00270356
0.00270343
0.00273602
0.00270071
0.00273394
0.00270367
0.00270355
0.00270071
0.00269534
0.0026603
0.00269348
0.00269344
0.00266319
0.00266314
0.00269533
0.00266043
0.00269354
0.00269377
0.00266334
0.00266328
0.00269344
0.00266313
0.00266322
0.00269554
0.00266023
0.00269346
0.00266319
0.0026633
0.00266038
0.00265502
0.00261993
0.00265308
0.00265311
0.00262331
0.00262342
0.00265515
0.00261992
0.00265322
0.00265323
0.00262315
0.00262326
0.00265326
0.00262342
0.00262332
0.00265508
0.00262007
0.00265328
0.00262332
0.00262326
0.00262011
0.00261495
0.00258025
0.0026132
0.00261337
0.00258348
0.00258333
0.00261496
0.0025801
0.00261326
0.00261328
0.00258342
0.00258349
0.00261343
0.00258332
0.00258335
0.00261499
0.00258017
0.00261328
0.00258349
0.00258333
0.00258005
0.0025751
0.00254081
0.0025734
0.00257359
0.00254412
0.00254395
0.00257506
0.00254071
0.00257333
0.00257347
0.00254412
0.00254393
0.00257338
0.00254393
0.00254387
0.00257516
0.00254063
0.00257332
0.00254381
0.00254387
0.00254059
0.0025359
0.00250176
0.00253437
0.00253412
0.00250496
0.00250506
0.00253567
0.00250196
0.00253431
0.00253415
0.00250496
0.00250517
0.00253419
0.00250507
0.00250516
0.0025357
0.00250206
0.0025343
0.00250518
0.00250517
0.00250219
0.0024968
0.00246305
0.0024952
0.00249528
0.00246602
0.00246603
0.00249702
0.00246281
0.0024951
0.00249537
0.00246607
0.00246595
0.00249549
0.00246606
0.00246604
0.0024971
0.00246283
0.00249544
0.00246599
0.00246601
0.0024628
0.00245801
0.00242389
0.0024563
0.00245624
0.0024271
0.00242709
0.00245777
0.00242417
0.0024564
0.00245619
0.00242715
0.00242714
0.0024561
0.00242706
0.00242693
0.00245787
0.00242408
0.00245607
0.00242709
0.00242696
0.00242426
0.00241928
0.00238621
0.00241758
0.00241748
0.00238879
0.00238887
0.00241937
0.00238596
0.00241753
0.00241755
0.00238877
0.0023887
0.00241753
0.00238888
0.00238876
0.00241918
0.00238585
0.00241754
0.00238874
0.00238877
0.00238551
0.00238106
0.00234706
0.00237916
0.00237918
0.00235042
0.00235028
0.00238087
0.00234775
0.00237917
0.00237914
0.00235039
0.00235045
0.00237928
0.00235034
0.00235038
0.00238096
0.00234776
0.00237928
0.00235051
0.00235039
0.0023485
0.0023423
0.00230969
0.00234092
0.00234069
0.00231215
0.0023122
0.00234297
0.00230944
0.00234088
0.00234089
0.00231215
0.00231215
0.00234071
0.00231213
0.002312
0.00234283
0.00230939
0.0023407
0.00231207
0.00231205
0.00230862
0.00230475
0.00227142
0.0023026
0.00230263
0.0022742
0.00227425
0.00230435
0.0022715
0.00230261
0.00230257
0.00227419
0.00227414
0.00230246
0.00227425
0.00227432
0.00230448
0.0022714
0.00230249
0.00227414
0.00227433
0.00227176
0.00226655
0.00223384
0.0022648
0.0022648
0.00223655
0.00223647
0.00226674
0.00223407
0.00226477
0.00226475
0.00223654
0.00223658
0.00226489
0.00223652
0.00223656
0.0022665
0.00223389
0.00226487
0.00223661
0.00223654
0.00223418
0.00222895
0.00219612
0.00222709
0.002227
0.00219873
0.00219874
0.00222905
0.00219588
0.0022271
0.00222715
0.00219876
0.00219876
0.0022271
0.00219873
0.00219862
0.00222903
0.00219617
0.00222709
0.00219873
0.00219864
0.00219596
0.00219119
0.00215844
0.0021893
0.00218932
0.00216112
0.00216113
0.00219101
0.00215847
0.00218933
0.00218931
0.0021611
0.00216109
0.00218919
0.00216109
0.00216108
0.00219123
0.00215841
0.00218921
0.00216108
0.0021611
0.00215841
0.00215356
0.00212119
0.00215175
0.00215176
0.00212377
0.00212375
0.00215355
0.00212121
0.00215173
0.00215173
0.00212378
0.00212376
0.00215175
0.00212376
0.00212381
0.00215352
0.00212115
0.00215176
0.00212376
0.00212381
0.00212118
0.0021163
0.00208382
0.00211445
0.00211446
0.00208644
0.00208649
0.00211635
0.00208386
0.00211448
0.00211445
0.00208643
0.00208647
0.00211447
0.00208651
0.00208645
0.00211628
0.0020839
0.00211448
0.00208648
0.00208643
0.00208389
0.00207894
0.00204675
0.0020771
0.00207716
0.00204923
0.00204927
0.00207898
0.00204675
0.00207709
0.00207715
0.00204923
0.00204921
0.00207714
0.00204926
0.00204929
0.002079
0.00204668
0.00207712
0.0020492
0.0020493
0.00204673
0.00204189
0.00200975
0.00203999
0.00203997
0.00201226
0.00201212
0.00204186
0.00200963
0.00203999
0.00203994
0.00201227
0.00201219
0.00203996
0.00201211
0.00201201
0.00204182
0.00200976
0.00203996
0.00201219
0.00201202
0.00200958
0.00200485
0.00197277
0.002003
0.00200288
0.0019752
0.00197535
0.00200477
0.00197297
0.002003
0.00200298
0.00197519
0.00197531
0.00200283
0.00197535
0.00197552
0.00200491
0.00197282
0.00200284
0.00197531
0.00197552
0.00197313
0.00196794
0.0019361
0.00196598
0.00196618
0.00193845
0.00193837
0.00196812
0.00193593
0.00196597
0.00196605
0.00193846
0.00193837
0.00196637
0.0019384
0.00193837
0.00196795
0.00193603
0.00196636
0.00193839
0.00193837
0.00193584
0.00193124
0.00189931
0.00192928
0.00192909
0.00190165
0.00190164
0.00193106
0.00189938
0.00192928
0.00192918
0.00190165
0.00190176
0.00192901
0.00190161
0.00190139
0.00193119
0.00189944
0.00192902
0.00190172
0.00190141
0.00189919
0.00189445
0.00186288
0.00189244
0.00189257
0.00186514
0.00186528
0.00189457
0.00186293
0.00189245
0.0018926
0.00186511
0.00186498
0.00189236
0.00186528
0.00186538
0.00189457
0.00186266
0.00189236
0.00186496
0.00186538
0.00186322
0.00185811
0.00182667
0.00185611
0.0018561
0.00182899
0.00182861
0.00185806
0.00182642
0.00185607
0.00185585
0.00182897
0.00182885
0.00185636
0.00182863
0.00182892
0.00185788
0.00182673
0.00185636
0.00182887
0.00182889
0.00182645
0.00182177
0.00178997
0.00181981
0.00181957
0.00179211
0.00179254
0.00182165
0.00179039
0.00181981
0.00181989
0.00179218
0.00179265
0.00181965
0.00179254
0.00179213
0.00182195
0.00179033
0.00181963
0.00179267
0.0017922
0.00179006
0.0017852
0.00175434
0.001783
0.0017835
0.00175643
0.00175628
0.00178556
0.00175412
0.0017831
0.00178345
0.00175642
0.00175602
0.00178316
0.00175632
0.00175645
0.00178543
0.00175391
0.00178323
0.00175602
0.00175648
0.00175436
0.00174958
0.00171828
0.00174761
0.00174724
0.00172059
0.00172021
0.00174933
0.00171805
0.00174754
0.00174704
0.00172052
0.00172036
0.00174751
0.00172017
0.00172032
0.00174917
0.00171826
0.0017475
0.00172028
0.00172027
0.00171803
0.00171339
0.00168199
0.00171144
0.00171123
0.00168403
0.0016844
0.00171328
0.0016823
0.00171138
0.00171141
0.00168405
0.00168437
0.00171122
0.00168436
0.00168423
0.00171347
0.00168224
0.00171116
0.00168439
0.00168427
0.0016822
0.00167726
0.0016465
0.00167508
0.00167547
0.00164846
0.00164856
0.00167752
0.00164649
0.00167513
0.00167534
0.00164861
0.00164854
0.00167534
0.00164864
0.00164864
0.00167746
0.00164646
0.00167539
0.00164862
0.00164864
0.00164655
0.00164172
0.00161082
0.00163958
0.0016396
0.00161293
0.00161283
0.00164171
0.00161072
0.0016397
0.00163963
0.00161291
0.00161283
0.00163968
0.0016128
0.00161284
0.00164169
0.00161078
0.00163968
0.00161281
0.00161283
0.00161078
0.00160607
0.00157529
0.00160407
0.00160392
0.0015774
0.00157727
0.00160595
0.00157527
0.001604
0.00160396
0.00157735
0.00157735
0.00160398
0.00157727
0.00157727
0.00160604
0.00157522
0.00160397
0.0015773
0.00157728
0.00157515
0.00157051
0.00153952
0.00156845
0.00156842
0.00154162
0.00154176
0.00157051
0.00153963
0.00156841
0.00156841
0.00154155
0.00154159
0.00156828
0.00154172
0.00154166
0.00157044
0.00153958
0.00156829
0.00154162
0.00154165
0.00153968
0.00153478
0.00150453
0.00153274
0.00153285
0.00150645
0.00150642
0.00153488
0.00150444
0.00153269
0.00153276
0.00150658
0.00150652
0.00153292
0.00150645
0.00150669
0.00153484
0.00150453
0.00153292
0.00150656
0.00150671
0.00150459
0.00149985
0.00146934
0.00149776
0.0014977
0.00147144
0.00147138
0.00149974
0.00146926
0.00149792
0.00149783
0.00147145
0.0014715
0.00149782
0.00147136
0.00147104
0.00149986
0.00146933
0.00149785
0.00147139
0.00147105
0.00146902
0.00146456
0.00143374
0.00146256
0.00146251
0.00143586
0.00143598
0.0014645
0.00143396
0.0014625
0.00146259
0.00143574
0.00143577
0.00146223
0.00143599
0.00143617
0.00146454
0.00143377
0.0014622
0.00143584
0.00143613
0.00143413
0.00142901
0.00139879
0.00142703
0.00142724
0.00140088
0.00140099
0.00142927
0.00139895
0.00142694
0.00142697
0.00140081
0.00140085
0.00142748
0.00140104
0.00140101
0.00142906
0.0013989
0.00142749
0.00140101
0.00140106
0.00139892
0.0013941
0.00136407
0.00139218
0.00139217
0.00136599
0.00136575
0.00139418
0.00136367
0.00139213
0.00139214
0.00136608
0.00136602
0.00139207
0.00136568
0.00136557
0.00139419
0.00136391
0.00139214
0.00136588
0.00136556
0.00136356
0.00135942
0.0013292
0.00135728
0.00135703
0.00133118
0.00133119
0.00135899
0.00132918
0.00135745
0.00135732
0.00133147
0.0013312
0.00135689
0.0013312
0.00133122
0.00135919
0.00132906
0.00135687
0.00133093
0.0013312
0.00132917
0.00132449
0.00129412
0.00132249
0.00132262
0.0012964
0.00129648
0.00132454
0.00129436
0.00132262
0.00132249
0.00129604
0.00129631
0.00132268
0.00129652
0.00129663
0.00132441
0.00129437
0.00132266
0.00129666
0.00129667
0.00129453
0.00128938
0.00125913
0.00128765
0.00128759
0.00126126
0.00126111
0.00128959
0.00125905
0.00128726
0.00128756
0.00126117
0.00126125
0.00128777
0.00126106
0.00126118
0.00128963
0.00125916
0.00128781
0.00126133
0.00126117
0.00125909
0.00125445
0.00122484
0.00125255
0.00125246
0.00122678
0.00122694
0.00125437
0.00122492
0.00125256
0.00125255
0.00122691
0.00122676
0.00125245
0.00122698
0.00122673
0.00125444
0.0012247
0.00125242
0.00122658
0.00122666
0.00122467
0.00122021
0.0011903
0.00121819
0.0012184
0.0011923
0.00119231
0.00122031
0.00119026
0.00121834
0.00121821
0.00119238
0.00119243
0.0012182
0.00119238
0.00119235
0.00122009
0.00119039
0.00121811
0.00119234
0.00119228
0.00119035
0.00118555
0.00115516
0.00118354
0.00118342
0.00115728
0.00115716
0.00118547
0.00115506
0.00118361
0.0011837
0.00115727
0.0011572
0.00118364
0.00115712
0.0011573
0.00118565
0.00115514
0.00118361
0.00115734
0.00115743
0.0011552
0.00115045
0.00112078
0.00114863
0.00114855
0.00112291
0.00112291
0.00115036
0.00112075
0.0011486
0.00114847
0.0011228
0.00112276
0.00114855
0.00112275
0.00112267
0.00115041
0.0011207
0.0011487
0.00112276
0.00112277
0.00112063
0.00111615
0.00108647
0.0011143
0.00111433
0.00108841
0.00108841
0.00111611
0.00108645
0.00111422
0.00111427
0.0010885
0.00108866
0.00111415
0.00108848
0.00108856
0.00111609
0.00108662
0.0011142
0.00108856
0.00108851
0.00108656
0.00108179
0.0010517
0.00107979
0.00107975
0.0010538
0.00105379
0.00108178
0.00105181
0.00107988
0.00108001
0.00105377
0.00105367
0.00107997
0.00105393
0.00105393
0.00108195
0.00105164
0.00107992
0.00105379
0.00105385
0.00105184
0.00104693
0.00101675
0.00104504
0.00104507
0.00101881
0.00101895
0.00104706
0.00101688
0.00104499
0.00104488
0.00101879
0.00101876
0.00104514
0.00101893
0.00101875
0.00104687
0.00101667
0.00104506
0.00101872
0.0010187
0.00101663
0.00101209
0.000982649
0.0010102
0.00101033
0.000984673
0.000984561
0.00101217
0.000982452
0.00101018
0.00101016
0.000984633
0.000984602
0.00101001
0.000984457
0.000984334
0.00101199
0.000982584
0.00100998
0.000984541
0.000984344
0.00098236
0.00097802
0.000948316
0.000976148
0.000975968
0.000950271
0.00095025
0.0009778
0.000948294
0.000976135
0.000976109
0.000950415
0.000950495
0.000975925
0.000950299
0.000950664
0.00097798
0.000948524
0.000975983
0.000950537
0.000950805
0.000948783
0.000943617
0.000913831
0.000941603
0.000941702
0.000915859
0.000915968
0.00094367
0.00091401
0.00094176
0.000941866
0.000915818
0.000915873
0.000942147
0.000916063
0.00091592
0.000943841
0.000913814
0.00094226
0.000915892
0.000915796
0.000913736
0.000909147
0.000879127
0.00090728
0.000907314
0.000881226
0.000881122
0.00090927
0.000878956
0.000907194
0.000907217
0.000881167
0.000881157
0.000907068
0.000880954
0.000880767
0.000909078
0.000879028
0.000906897
0.000881024
0.000880719
0.000878697
0.000874366
0.000844517
0.000872452
0.000872401
0.000846497
0.000846534
0.000874223
0.000844566
0.000872434
0.000872418
0.000846511
0.000846397
0.000872132
0.000846553
0.000846695
0.000874283
0.000844518
0.000872147
0.000846514
0.000846821
0.000844839
0.000839893
0.000810595
0.000837995
0.000837991
0.000812571
0.000812424
0.000839943
0.00081058
0.000838005
0.000837867
0.000812544
0.000812562
0.000838286
0.000812565
0.000812811
0.000839907
0.00081065
0.000838361
0.000812662
0.000812792
0.00081078
0.000805917
0.000775534
0.000803967
0.00080389
0.000777597
0.000777854
0.000805931
0.000775692
0.000803954
0.000804032
0.000777606
0.000777763
0.000804087
0.00077779
0.000777377
0.000805971
0.000775561
0.000804001
0.000777601
0.000777281
0.000775245
0.000770726
0.000740587
0.000768725
0.000768982
0.00074255
0.000742493
0.000770826
0.000740442
0.000768744
0.000768838
0.00074258
0.000742464
0.000768485
0.000742405
0.000742393
0.000770696
0.00074046
0.000768422
0.0007424
0.000742437
0.000740488
0.000735933
0.000706882
0.000734045
0.000733843
0.00070881
0.0007086
0.000735756
0.000706777
0.000734069
0.000733912
0.000708795
0.000708742
0.00073399
0.00070869
0.000709086
0.000735824
0.000706902
0.000734046
0.000708863
0.000709113
0.000707236
0.000702287
0.000672415
0.000700366
0.000700237
0.000674462
0.000674628
0.000702226
0.000672543
0.000700341
0.000700358
0.000674456
0.00067457
0.000700714
0.000674627
0.000674452
0.000702343
0.000672494
0.000700731
0.000674586
0.000674462
0.00067235
0.000667639
0.00063695
0.000665671
0.00066582
0.000639032
0.000639086
0.00066771
0.000636949
0.000665668
0.000665753
0.00063901
0.00063906
0.000665474
0.000638983
0.000638677
0.000667674
0.00063695
0.000665489
0.000638973
0.000638678
0.000636608
0.000632078
0.000602042
0.000630127
0.000630188
0.000603953
0.000604062
0.0006321
0.000602207
0.000630103
0.000630167
0.000603971
0.000603931
0.000629887
0.000604161
0.000604382
0.000632085
0.000602038
0.000629872
0.000603973
0.000604323
0.000602456
0.00059743
0.000568776
0.000595496
0.000595579
0.000570613
0.000570465
0.000597602
0.000568632
0.000595522
0.000595405
0.000570629
0.000570338
0.000596038
0.000570568
0.000570869
0.000597409
0.000568508
0.000595971
0.000570378
0.000570809
0.00056886
0.000564242
0.000534188
0.000562318
0.000562059
0.000536308
0.000536079
0.000564014
0.000533857
0.000562325
0.000562065
0.000536331
0.000536574
0.000562132
0.000535839
0.000535343
0.000563994
0.000534336
0.000562136
0.000536416
0.000535473
0.000533349
0.000529284
0.000497765
0.000527305
0.000527188
0.000499926
0.000500122
0.000528998
0.000498029
0.000527333
0.000527623
0.00049993
0.000500067
0.000526445
0.000500135
0.000500057
0.000529423
0.000497968
0.000526586
0.000500134
0.000500074
0.000498076
0.000492762
0.000462358
0.000490767
0.000491066
0.000464233
0.000464461
0.000493116
0.000462757
0.000490753
0.000490831
0.000464139
0.00046406
0.000491448
0.000464794
0.000465617
0.00049299
0.000462363
0.000491395
0.00046437
0.000465486
0.000463627
0.000457755
0.000429297
0.000455828
0.000455973
0.000431162
0.000431137
0.000458141
0.000429213
0.000455729
0.00045558
0.000431066
0.00043087
0.000456991
0.000431012
0.000430618
0.000457764
0.000428966
0.000456866
0.000430792
0.000430607
0.000428639
0.000424822
0.000394747
0.000422936
0.000422827
0.000396875
0.000396586
0.000424618
0.000394211
0.000422841
0.000422585
0.000397043
0.00039706
0.000421823
0.000396233
0.000395509
0.00042439
0.000394722
0.000421836
0.000396648
0.000395624
0.000393521
0.000389748
0.000357874
0.000387672
0.000387342
0.000359954
0.000359766
0.000389207
0.000357736
0.000387912
0.000388094
0.000360101
0.000360289
0.000386729
0.000359939
0.000360562
0.000389818
0.000358221
0.000386858
0.000360402
0.000360593
0.000358536
0.000352881
0.00032256
0.000350854
0.000350763
0.000324527
0.000324943
0.000352881
0.000323216
0.000350958
0.000351086
0.000324314
0.000324241
0.000351821
0.000325222
0.000325523
0.000353254
0.000322481
0.000351817
0.000324584
0.000325392
0.000323469
0.000317927
0.000288751
0.000316074
0.000316535
0.000290718
0.000290948
0.000318582
0.000288902
0.000315804
0.000315644
0.000290586
0.000290545
0.000316752
0.000290813
0.000290317
0.000317819
0.000288627
0.000316614
0.000290508
0.000290231
0.000288311
0.000284095
0.000253505
0.000282122
0.000282193
0.000255527
0.000255095
0.00028407
0.000252928
0.00028207
0.000282083
0.000255747
0.000255818
0.000281516
0.000254938
0.000255018
0.000283959
0.000253575
0.000281563
0.000255596
0.000255159
0.000253042
0.000248512
0.000216812
0.000246399
0.000246013
0.000218935
0.000218919
0.000248015
0.00021691
0.000246621
0.000246653
0.000218947
0.000218878
0.000246103
0.000218997
0.000219079
0.000248575
0.000216738
0.000246217
0.000218861
0.000218994
0.000216968
0.000211854
0.000181534
0.000209895
0.000209986
0.000183482
0.000183562
0.000212044
0.000181638
0.000209825
0.000209729
0.000183424
0.000183414
0.00021009
0.000183617
0.000183615
0.000211756
0.000181539
0.000209954
0.000183456
0.000183554
0.000181645
0.000176866
0.000147456
0.000174912
0.000174896
0.000149365
0.0001493
0.000176887
0.000147379
0.000174905
0.000174937
0.000149405
0.000149488
0.000174977
0.000149284
0.000149344
0.000176896
0.00014758
0.000174984
0.000149547
0.00014945
0.000147451
0.000142705
0.000111546
0.00014074
0.000140777
0.000113725
0.000113944
0.000142716
0.000111767
0.000140734
0.000140813
0.000113645
0.000113626
0.000140715
0.000113922
0.000113682
0.000142821
0.000111478
0.000140795
0.000113628
0.000113629
0.000111506
0.000106464
7.43024e-05
0.000104454
0.000104596
7.63636e-05
7.62264e-05
0.000106623
7.408e-05
0.000104395
0.000104339
7.64282e-05
7.63586e-05
0.000104405
7.6234e-05
7.63957e-05
0.000106367
7.4244e-05
0.000104338
7.62938e-05
7.6386e-05
7.43172e-05
6.92794e-05
3.93364e-05
6.72364e-05
6.69956e-05
4.1179e-05
4.10943e-05
6.90057e-05
3.92854e-05
6.73378e-05
6.72955e-05
4.12397e-05
4.13252e-05
6.73345e-05
4.11354e-05
4.13722e-05
6.92636e-05
3.94821e-05
6.73565e-05
4.13655e-05
4.14189e-05
3.95448e-05
3.46643e-05
8.82392e-06
3.29024e-05
3.29518e-05
1.19217e-05
1.22139e-05
3.46957e-05
9.13234e-06
3.29231e-05
3.30522e-05
1.1853e-05
1.19805e-05
3.31214e-05
1.22015e-05
1.18634e-05
3.4825e-05
8.90054e-06
3.31612e-05
1.20233e-05
1.18579e-05
8.73477e-06
5.59576e-06
7.57527e-06
7.77119e-06
5.80736e-06
7.48179e-06
7.53028e-06
6.64244e-06
6.46529e-06
6.32392e-06
7.37713e-06
5.58055e-06
7.3588e-06
0.00353084
0.00353373
0.00353222
0.00353236
0.00355929
0.00353321
0.0035628
0.00353359
0.00355933
0.00353339
0.0035336
0.00356286
0.00354435
0.00356628
0.00356608
0.00350293
0.00351576
0.00352032
0.00349517
0.00349294
0.00349867
0.00350325
0.00351653
0.00352083
0.00349564
0.00351923
0.00351923
0.00351921
0.00349269
0.00349264
0.00349254
0.00349261
0.00350285
0.00351451
0.00351979
0.00351047
0.0035219
0.00350005
0.00351072
0.00349401
0.00349885
0.00350289
0.00351978
0.0035147
0.00351036
0.00352194
0.00351067
0.00350003
0.00352074
0.00352071
0.0035076
0.00349987
0.00349984
0.00347554
0.00348997
0.00348974
0.00347335
0.00348694
0.00347246
0.00347547
0.00348946
0.00348972
0.00347379
0.00348358
0.00348341
0.00348344
0.00345482
0.00345491
0.00345494
0.00345492
0.00347325
0.00348829
0.003482
0.00347246
0.00348677
0.00347378
0.00347251
0.00348681
0.00347249
0.0034732
0.00348205
0.00348833
0.0034725
0.00348677
0.00347249
0.0034738
0.00349022
0.00349009
0.00347099
0.00347392
0.00347412
0.00343264
0.00344733
0.00344842
0.00343143
0.00344743
0.00342927
0.00343268
0.00344728
0.00344842
0.00343096
0.00344485
0.00344483
0.00344486
0.00341215
0.00341213
0.00341215
0.00341215
0.00343149
0.00344711
0.0034429
0.00343245
0.00344605
0.00343192
0.00343238
0.00344637
0.00343052
0.0034315
0.00344302
0.0034472
0.00343244
0.00344614
0.00343249
0.00343196
0.00344757
0.00344786
0.00342979
0.00343187
0.00343179
0.0033861
0.00340276
0.00340414
0.00338488
0.00340196
0.00338347
0.00338632
0.00340275
0.00340414
0.00338491
0.00340055
0.00340058
0.0034006
0.00336468
0.00336468
0.00336467
0.00336456
0.00338548
0.00340253
0.00339883
0.00338715
0.00340199
0.00338554
0.0033871
0.00340203
0.00338434
0.00338545
0.00339892
0.00340264
0.00338718
0.00340202
0.00338718
0.00338552
0.0034041
0.00340288
0.00338375
0.00338439
0.00338504
0.00333743
0.00335449
0.00335574
0.00333618
0.00335506
0.00333641
0.00333737
0.00335457
0.00335589
0.00333619
0.00335253
0.00335248
0.0033524
0.00331585
0.00331589
0.00331579
0.00331585
0.00333692
0.00335455
0.00335108
0.00333881
0.00335412
0.00333695
0.00333882
0.00335411
0.00333591
0.00333697
0.00335107
0.00335454
0.00333891
0.00335418
0.00333893
0.00333687
0.00335439
0.0033545
0.00333561
0.00333705
0.00333633
0.00328837
0.00330561
0.0033066
0.00328746
0.00330535
0.00328727
0.00328828
0.0033056
0.00330664
0.00328744
0.00330371
0.00330362
0.00330366
0.0032674
0.00326741
0.00326736
0.00326737
0.00328826
0.00330565
0.00330237