/*--------------------------------*- C++ -*----------------------------------*\
| =========                 |                                                 |
| \\      /  F ield         | OpenFOAM: The Open Source CFD Toolbox           |
|  \\    /   O peration     | Version:  v2006                                 |
|   \\  /    A nd           | Website:  www.openfoam.com                      |
|    \\/     M anipulation  |                                                 |
\*---------------------------------------------------------------------------*/
FoamFile
{
    version     2.0;
    format      ascii;
    class       volScalarField;
    location    "875";
    object      k;
}
// * * * * * * * * * * * * * * * * * * * * * * * * * * * * * * * * * * * * * //

dimensions      [0 2 -2 0 0 0 0];


internalField   nonuniform List<scalar> 
14298
(
6.96861e-05
6.9688e-05
1.78942e-05
5.87278e-05
5.87466e-05
5.21016e-05
7.0009e-05
5.2106e-05
2.79746e-05
1.6119e-05
4.45373e-05
1.50232e-05
2.79894e-05
1.50268e-05
5.20996e-05
7.00107e-05
2.79775e-05
1.612e-05
4.45494e-05
1.50235e-05
5.21007e-05
7.00014e-05
2.79779e-05
1.61203e-05
1.50236e-05
4.45495e-05
1.60994e-05
4.44759e-05
6.99929e-05
6.96658e-05
1.78928e-05
5.86012e-05
5.85924e-05
6.96639e-05
2.79809e-05
1.61196e-05
1.50235e-05
4.45444e-05
2.79804e-05
1.61e-05
1.50217e-05
4.44715e-05
5.21175e-05
7.00046e-05
5.21129e-05
6.99933e-05
1.77918e-05
5.84872e-05
5.84823e-05
6.96621e-05
6.96633e-05
6.96824e-05
6.96835e-05
8.77561e-05
7.24852e-05
7.24785e-05
8.75394e-05
7.24549e-05
7.24482e-05
5.68107e-05
6.87426e-05
3.81648e-05
5.89012e-05
5.65374e-05
6.87537e-05
3.84744e-05
5.6879e-05
6.8754e-05
3.81895e-05
5.89114e-05
5.66071e-05
6.87641e-05
3.84972e-05
6.98104e-05
6.90816e-05
5.85081e-05
5.23856e-05
6.97987e-05
6.9097e-05
5.87236e-05
7.10307e-05
7.37937e-05
7.00257e-05
7.10326e-05
7.38817e-05
6.98004e-05
6.90798e-05
5.85252e-05
5.23787e-05
6.9792e-05
6.90941e-05
5.87052e-05
6.98097e-05
5.85119e-05
6.90819e-05
5.23746e-05
6.97987e-05
5.87124e-05
6.90974e-05
7.10301e-05
7.37948e-05
7.00258e-05
7.10321e-05
7.38726e-05
6.98085e-05
6.90813e-05
5.85159e-05
5.23727e-05
6.97974e-05
6.90968e-05
5.87131e-05
7.10311e-05
7.37792e-05
7.00139e-05
7.1033e-05
7.38598e-05
7.00077e-05
6.96666e-05
8.73538e-05
7.24537e-05
7.24593e-05
8.72565e-05
7.24407e-05
7.24463e-05
5.66418e-05
6.87222e-05
3.82407e-05
5.86945e-05
3.84233e-05
5.6444e-05
6.87522e-05
5.65695e-05
6.87097e-05
3.82223e-05
5.8676e-05
5.63737e-05
6.87387e-05
3.84005e-05
6.96647e-05
6.98069e-05
5.85251e-05
6.90799e-05
5.23705e-05
6.97966e-05
5.87121e-05
6.90944e-05
7.10295e-05
7.37983e-05
7.0016e-05
7.10314e-05
7.38691e-05
6.98067e-05
5.85153e-05
6.90792e-05
5.23698e-05
6.97948e-05
5.87076e-05
6.90943e-05
7.10336e-05
7.37815e-05
7.00076e-05
7.10343e-05
7.38602e-05
8.62677e-05
7.25299e-05
7.25247e-05
8.55747e-05
7.26712e-05
7.26653e-05
5.54889e-05
6.86684e-05
3.7655e-05
5.86896e-05
5.53488e-05
3.77451e-05
6.87771e-05
5.55493e-05
6.86757e-05
3.76712e-05
5.86572e-05
5.54086e-05
3.77561e-05
6.8787e-05
6.96662e-05
6.96679e-05
1.5117e-05
1.52734e-05
1.52737e-05
1.56566e-05
1.52742e-05
1.56567e-05
1.5117e-05
1.52735e-05
1.52738e-05
1.56566e-05
1.51126e-05
1.52733e-05
1.56565e-05
3.72396e-05
1.79162e-05
2.43395e-05
2.43453e-05
3.69639e-05
2.44401e-05
2.44461e-05
1.91214e-05
3.21533e-05
1.75661e-05
2.81128e-05
1.90817e-05
3.22929e-05
1.76003e-05
2.19176e-05
3.87995e-05
2.69422e-05
4.4699e-05
2.70559e-05
2.18572e-05
3.89276e-05
1.91437e-05
3.21969e-05
1.75732e-05
2.81247e-05
1.91045e-05
3.23289e-05
1.76069e-05
1.91274e-05
3.21662e-05
1.75673e-05
2.81138e-05
1.90887e-05
3.23017e-05
1.76013e-05
2.19261e-05
3.88141e-05
2.69518e-05
4.47074e-05
2.70654e-05
2.18669e-05
3.89386e-05
1.91273e-05
1.7567e-05
3.21689e-05
2.81145e-05
1.90876e-05
1.76012e-05
3.23046e-05
2.19306e-05
3.88202e-05
2.6985e-05
4.46588e-05
2.18695e-05
3.89401e-05
2.70887e-05
2.68311e-05
4.46009e-05
2.6907e-05
3.71678e-05
1.79221e-05
2.43825e-05
2.43785e-05
2.4477e-05
3.70081e-05
2.44725e-05
1.91251e-05
1.75658e-05
3.21703e-05
2.81159e-05
1.90853e-05
1.76e-05
3.23052e-05
2.19277e-05
3.88239e-05
2.69776e-05
4.46546e-05
2.18662e-05
2.70809e-05
3.89433e-05
1.91235e-05
1.75661e-05
3.21682e-05
2.81146e-05
1.90864e-05
1.75998e-05
3.22991e-05
2.1901e-05
3.88084e-05
2.68365e-05
4.45968e-05
2.18514e-05
3.89158e-05
2.69112e-05
3.62509e-05
1.77911e-05
2.40365e-05
2.40394e-05
3.61897e-05
2.40746e-05
2.40768e-05
1.90954e-05
1.84909e-05
1.92859e-05
1.92869e-05
1.85909e-05
1.84929e-05
1.90945e-05
2.03339e-05
7.08208e-05
3.11208e-05
1.95435e-05
1.9268e-05
4.70046e-05
4.70134e-05
1.97552e-05
1.92614e-05
3.23637e-05
1.9755e-05
3.08705e-05
1.92628e-05
6.92586e-05
3.23695e-05
1.9755e-05
3.08715e-05
1.92607e-05
6.92643e-05
3.23287e-05
4.66926e-05
4.66889e-05
7.08833e-05
7.0884e-05
4.69492e-05
4.69279e-05
7.08183e-05
6.92685e-05
3.25494e-05
1.95432e-05
3.11185e-05
1.92687e-05
6.92563e-05
3.25317e-05
7.08256e-05
7.08272e-05
7.07945e-05
2.43131e-05
6.70023e-05
3.92482e-05
2.43159e-05
6.7009e-05
3.92774e-05
7.30048e-05
7.29991e-05
7.65979e-05
7.13772e-05
6.30874e-05
6.25015e-05
7.14106e-05
7.15093e-05
3.20641e-05
3.93414e-05
7.25555e-05
3.88526e-05
7.26671e-05
7.14444e-05
7.14049e-05
6.92486e-05
6.3285e-05
6.29568e-05
7.14124e-05
7.15119e-05
3.21046e-05
7.25544e-05
3.94499e-05
7.26665e-05
3.9106e-05
7.1441e-05
7.1398e-05
6.92361e-05
6.322e-05
6.27093e-05
7.14198e-05
7.15101e-05
3.20665e-05
3.93205e-05
7.25552e-05
3.88947e-05
7.26665e-05
7.14446e-05
3.80579e-05
2.40756e-05
4.62758e-05
6.69909e-05
3.85691e-05
2.39589e-05
6.6975e-05
3.80946e-05
2.4083e-05
4.6275e-05
6.6996e-05
3.86113e-05
2.39558e-05
6.69801e-05
7.45035e-05
7.29787e-05
7.29719e-05
7.55757e-05
7.28837e-05
7.28778e-05
7.09051e-05
7.09054e-05
3.95216e-05
2.43364e-05
6.70025e-05
4.70938e-05
6.70045e-05
3.93009e-05
2.44282e-05
3.94839e-05
2.43239e-05
6.69969e-05
4.70751e-05
2.44254e-05
3.9258e-05
6.69986e-05
7.66072e-05
7.29577e-05
7.29641e-05
7.29601e-05
7.64123e-05
7.29664e-05
7.07928e-05
7.14273e-05
6.34972e-05
6.92855e-05
6.386e-05
7.14132e-05
7.12506e-05
3.28241e-05
3.96927e-05
7.23686e-05
4.00697e-05
7.13128e-05
7.22632e-05
7.14066e-05
6.33994e-05
6.92571e-05
7.13983e-05
6.3498e-05
7.12463e-05
3.2794e-05
7.23677e-05
3.96178e-05
7.13068e-05
7.22624e-05
3.98534e-05
1.91653e-05
1.91647e-05
2.31394e-05
2.28437e-05
1.86517e-05
1.91733e-05
1.91724e-05
2.29262e-05
1.92183e-05
1.92168e-05
2.32576e-05
1.91692e-05
1.917e-05
1.84354e-05
1.91447e-05
2.31708e-05
1.9143e-05
2.07946e-05
2.11647e-05
2.07944e-05
2.07946e-05
2.11647e-05
1.85887e-05
1.98737e-05
2.53311e-05
3.1234e-05
1.86416e-05
1.98773e-05
2.54318e-05
1.81624e-05
1.92726e-05
2.08544e-05
1.80831e-05
1.82486e-05
2.08977e-05
1.7992e-05
1.87256e-05
2.5117e-05
1.8664e-05
2.50246e-05
1.83866e-05
1.92618e-05
2.07675e-05
1.81563e-05
1.82941e-05
2.07308e-05
1.82495e-05
1.87232e-05
1.98577e-05
3.07553e-05
2.514e-05
2.5037e-05
1.98588e-05
1.86643e-05
1.83859e-05
1.92629e-05
1.81567e-05
2.07803e-05
1.82492e-05
2.07396e-05
1.82964e-05
1.87223e-05
1.98583e-05
3.07567e-05
2.5121e-05
2.5018e-05
1.98593e-05
1.86627e-05
1.83853e-05
1.92614e-05
1.81562e-05
2.07679e-05
1.82491e-05
2.07289e-05
1.82942e-05
1.85894e-05
1.98729e-05
2.53459e-05
3.12344e-05
1.98778e-05
1.86426e-05
2.54285e-05
1.81621e-05
1.92722e-05
1.80835e-05
2.08606e-05
1.7992e-05
1.82503e-05
2.08954e-05
1.83906e-05
4.90546e-05
4.98639e-05
1.8744e-05
3.4569e-05
1.80726e-05
1.83725e-05
6.94084e-05
1.95184e-05
1.90954e-05
1.91337e-05
1.83895e-05
1.79398e-05
1.80098e-05
1.90942e-05
1.85565e-05
3.23659e-05
4.87426e-05
1.90942e-05
1.85575e-05
1.85557e-05
1.85582e-05
1.89368e-05
3.43546e-05
1.84923e-05
1.8003e-05
1.90956e-05
1.85566e-05
1.85567e-05
1.80046e-05
7.05898e-05
1.79421e-05
1.83884e-05
3.2637e-05
3.34077e-05
1.83894e-05
1.83885e-05
1.79388e-05
1.83894e-05
7.04941e-05
1.77095e-05
7.04468e-05
7.05526e-05
7.048e-05
1.87442e-05
1.94505e-05
3.2633e-05
1.82284e-05
1.85562e-05
1.9569e-05
3.31553e-05
1.79496e-05
4.90194e-05
4.96332e-05
1.77571e-05
4.96785e-05
7.05535e-05
7.04813e-05
7.04472e-05
1.77058e-05
4.98549e-05
7.04436e-05
3.46017e-05
6.93618e-05
3.55594e-05
6.94217e-05
1.94503e-05
1.85559e-05
1.83887e-05
1.82273e-05
3.31524e-05
3.26214e-05
1.95705e-05
6.94086e-05
6.93577e-05
3.55739e-05
1.83727e-05
1.96425e-05
3.34168e-05
3.58037e-05
6.94236e-05
1.80721e-05
3.34359e-05
1.96407e-05
3.5754e-05
3.32897e-05
3.25788e-05
6.92914e-05
7.07261e-05
3.33218e-05
6.93e-05
1.99896e-05
2.01242e-05
2.01241e-05
2.0124e-05
2.01241e-05
1.95183e-05
1.9518e-05
1.92991e-05
1.89096e-05
3.15911e-05
1.93365e-05
7.08197e-05
7.07272e-05
1.93009e-05
1.95433e-05
3.1115e-05
1.89097e-05
1.92657e-05
1.93364e-05
3.16001e-05
1.8286e-05
4.76165e-05
4.76239e-05
3.55445e-05
6.93622e-05
3.46069e-05
6.94279e-05
3.55346e-05
6.93588e-05
3.46187e-05
6.94017e-05
1.97962e-05
1.93241e-05
1.93239e-05
7.05604e-05
7.04753e-05
1.95699e-05
1.8744e-05
3.26236e-05
1.82282e-05
1.94505e-05
1.85561e-05
3.31573e-05
1.77554e-05
4.99013e-05
4.88424e-05
4.88484e-05
4.99092e-05
7.07221e-05
7.07231e-05
1.8282e-05
4.76173e-05
4.76267e-05
7.05933e-05
7.06754e-05
7.05933e-05
7.06772e-05
1.82018e-05
4.87867e-05
4.88071e-05
4.79259e-05
4.79221e-05
3.33129e-05
6.92654e-05
3.25614e-05
6.9302e-05
1.92992e-05
1.95433e-05
1.8909e-05
1.92687e-05
3.15937e-05
1.93365e-05
1.92993e-05
3.11259e-05
1.95432e-05
1.89085e-05
1.92686e-05
3.15952e-05
1.93364e-05
3.3513e-05
6.93645e-05
6.93096e-05
3.4443e-05
6.93466e-05
3.35341e-05
6.93261e-05
3.4419e-05
1.9326e-05
1.87301e-05
3.23723e-05
1.89369e-05
3.18482e-05
1.91344e-05
1.9406e-05
1.85571e-05
1.93275e-05
1.87296e-05
1.89369e-05
3.18486e-05
1.91343e-05
1.94056e-05
1.82832e-05
4.77271e-05
4.77169e-05
7.07252e-05
7.05932e-05
7.06829e-05
1.8012e-05
4.87222e-05
1.81987e-05
4.80208e-05
4.80197e-05
7.05928e-05
7.06814e-05
1.92968e-05
1.89096e-05
3.15908e-05
1.93363e-05
3.3341e-05
6.92526e-05
3.25154e-05
6.92967e-05
1.92991e-05
1.95429e-05
3.11157e-05
1.89086e-05
1.92661e-05
1.93361e-05
3.16036e-05
3.35218e-05
6.9361e-05
6.93307e-05
3.44245e-05
1.93246e-05
1.87309e-05
3.23766e-05
1.89369e-05
3.18462e-05
1.91342e-05
1.94041e-05
3.35224e-05
6.93738e-05
6.93008e-05
3.44132e-05
1.93263e-05
1.87289e-05
1.89366e-05
3.23584e-05
1.91339e-05
3.18569e-05
1.94018e-05
3.33245e-05
6.92954e-05
1.92972e-05
1.8909e-05
1.93363e-05
3.15936e-05
3.33216e-05
6.93062e-05
1.89369e-05
1.94018e-05
3.23629e-05
1.93268e-05
1.87306e-05
3.18454e-05
1.91343e-05
3.43978e-05
6.9354e-05
3.35362e-05
6.9305e-05
1.9404e-05
1.85561e-05
3.23697e-05
1.93278e-05
1.87296e-05
1.91342e-05
3.18497e-05
6.93519e-05
3.35739e-05
6.93372e-05
4.68512e-05
4.68473e-05
1.8285e-05
4.78108e-05
4.7811e-05
7.08177e-05
7.07267e-05
7.05974e-05
7.06744e-05
1.82005e-05
4.87705e-05
4.87362e-05
4.7998e-05
4.80206e-05
7.05951e-05
7.0674e-05
1.93004e-05
1.95433e-05
3.11192e-05
1.89101e-05
1.92676e-05
1.93364e-05
3.16011e-05
3.33728e-05
6.92509e-05
3.24962e-05
6.92995e-05
3.3316e-05
6.92704e-05
3.25338e-05
6.92921e-05
1.9328e-05
1.87299e-05
1.89367e-05
3.23502e-05
1.91342e-05
3.18538e-05
1.93977e-05
1.9327e-05
1.87304e-05
1.89368e-05
3.23644e-05
1.91342e-05
3.18554e-05
1.94021e-05
3.35318e-05
6.93699e-05
6.92969e-05
3.43907e-05
3.35137e-05
6.93402e-05
6.93139e-05
3.44009e-05
7.07221e-05
7.07213e-05
4.86814e-05
1.82025e-05
4.8697e-05
4.8007e-05
4.80022e-05
7.06829e-05
7.05899e-05
7.06805e-05
7.0541e-05
7.04937e-05
7.05403e-05
7.04909e-05
4.88854e-05
4.89051e-05
1.7751e-05
4.98477e-05
4.98484e-05
6.9349e-05
6.93968e-05
3.55314e-05
3.46011e-05
1.95642e-05
3.26284e-05
1.87441e-05
1.82266e-05
1.94539e-05
3.31392e-05
1.8556e-05
1.83891e-05
3.31477e-05
1.82272e-05
1.95645e-05
1.8744e-05
1.94536e-05
1.8556e-05
6.94121e-05
3.57693e-05
1.80712e-05
1.96356e-05
1.83725e-05
1.95675e-05
3.26339e-05
1.87441e-05
1.82274e-05
1.94544e-05
3.3143e-05
1.8556e-05
3.55066e-05
6.9381e-05
3.46469e-05
6.93879e-05
1.95694e-05
1.87438e-05
3.26324e-05
1.82269e-05
1.94539e-05
1.85558e-05
3.31565e-05
3.57648e-05
1.96369e-05
1.83724e-05
3.57374e-05
6.94004e-05
1.96372e-05
1.8071e-05
1.83723e-05
3.34191e-05
4.91265e-05
4.91091e-05
1.77571e-05
4.95962e-05
4.96027e-05
7.05612e-05
7.0475e-05
7.04463e-05
1.77079e-05
4.98772e-05
4.98474e-05
7.04419e-05
1.82284e-05
1.95675e-05
1.8744e-05
3.26179e-05
1.94495e-05
1.8556e-05
3.31537e-05
3.54997e-05
6.93946e-05
3.46531e-05
6.94037e-05
3.55569e-05
6.93444e-05
3.4582e-05
6.94341e-05
1.80723e-05
3.34197e-05
6.9407e-05
7.05437e-05
7.05437e-05
7.04966e-05
5.00774e-05
5.01027e-05
7.04504e-05
4.23695e-05
6.70924e-05
2.56646e-05
4.93322e-05
6.70977e-05
4.22784e-05
2.57544e-05
4.33559e-05
2.61803e-05
5.02308e-05
6.71402e-05
4.2974e-05
6.71851e-05
2.63373e-05
7.06183e-05
7.1308e-05
4.24311e-05
3.49545e-05
7.12279e-05
4.2972e-05
7.06586e-05
7.14606e-05
6.94138e-05
6.66289e-05
7.14497e-05
6.67533e-05
4.16075e-05
6.70877e-05
2.54516e-05
4.84532e-05
4.2013e-05
2.52916e-05
6.70704e-05
7.07979e-05
7.14654e-05
4.20616e-05
3.40812e-05
7.07506e-05
7.15512e-05
4.18e-05
7.06123e-05
7.05085e-05
7.04286e-05
7.05375e-05
7.04941e-05
7.95537e-05
7.29811e-05
7.29876e-05
7.29527e-05
7.29593e-05
7.95685e-05
4.24027e-05
6.70893e-05
2.56496e-05
4.93316e-05
2.57443e-05
6.71004e-05
4.22968e-05
4.25041e-05
4.94852e-05
2.59988e-05
6.71127e-05
6.71026e-05
4.26266e-05
2.59212e-05
7.94646e-05
7.29129e-05
7.29184e-05
7.29134e-05
7.2919e-05
7.94418e-05
4.24607e-05
4.95319e-05
2.60161e-05
6.71184e-05
2.58757e-05
6.71032e-05
4.26365e-05
7.05394e-05
7.04976e-05
7.04406e-05
8.00952e-05
7.29125e-05
7.29176e-05
7.954e-05
7.29357e-05
7.29402e-05
4.34179e-05
2.61944e-05
6.71385e-05
5.01712e-05
4.29701e-05
6.71832e-05
2.63628e-05
7.04359e-05
7.06158e-05
4.24739e-05
7.13076e-05
3.49295e-05
4.28703e-05
7.12278e-05
7.06578e-05
7.14683e-05
6.56524e-05
6.93857e-05
6.60337e-05
7.14504e-05
7.05298e-05
3.51764e-05
4.37193e-05
7.10025e-05
4.32393e-05
7.1077e-05
7.04918e-05
7.14645e-05
6.94042e-05
6.66706e-05
6.63623e-05
7.14741e-05
7.14605e-05
6.94013e-05
6.65627e-05
6.63931e-05
7.14636e-05
7.14684e-05
6.5628e-05
6.93857e-05
6.60827e-05
7.14526e-05
7.0532e-05
3.52319e-05
4.37017e-05
7.10005e-05
7.10761e-05
4.33831e-05
7.04886e-05
7.03743e-05
4.40298e-05
7.08587e-05
3.61276e-05
7.04106e-05
4.43376e-05
7.07895e-05
7.14643e-05
6.68066e-05
6.94262e-05
7.14597e-05
6.69051e-05
7.03694e-05
4.38665e-05
7.08572e-05
3.60688e-05
7.04026e-05
7.07893e-05
4.41709e-05
7.11254e-05
3.3017e-05
7.19851e-05
4.06043e-05
7.20831e-05
4.02981e-05
7.10703e-05
7.14289e-05
6.36114e-05
7.1421e-05
6.38803e-05
7.12502e-05
3.28403e-05
7.23685e-05
3.97981e-05
7.13156e-05
7.22636e-05
4.01122e-05
7.14173e-05
6.41566e-05
6.92869e-05
6.39863e-05
7.14309e-05
7.07413e-05
7.11252e-05
3.30168e-05
4.06913e-05
7.19846e-05
4.02561e-05
7.2083e-05
7.1071e-05
7.14027e-05
6.42816e-05
6.92611e-05
6.37758e-05
7.144e-05
7.07968e-05
7.07469e-05
7.75762e-05
7.29861e-05
7.29786e-05
7.29993e-05
7.2993e-05
7.76708e-05
3.9756e-05
4.71865e-05
2.44633e-05
6.70076e-05
3.98131e-05
4.72062e-05
2.44865e-05
6.70144e-05
7.72904e-05
7.302e-05
7.30135e-05
4.00821e-05
6.70092e-05
4.73323e-05
2.47214e-05
2.46394e-05
6.7007e-05
4.02218e-05
4.0128e-05
6.70157e-05
4.73487e-05
2.47236e-05
2.46451e-05
6.70134e-05
4.02682e-05
7.05319e-05
3.51205e-05
7.10039e-05
4.37148e-05
7.10778e-05
4.31299e-05
7.04969e-05
7.14569e-05
6.57104e-05
6.93653e-05
7.14471e-05
6.58099e-05
7.06114e-05
3.48745e-05
7.13061e-05
4.24256e-05
7.06523e-05
7.12273e-05
4.27024e-05
7.14605e-05
6.66114e-05
6.9382e-05
6.6078e-05
7.14898e-05
7.05228e-05
3.51675e-05
4.36554e-05
7.10015e-05
4.3186e-05
7.10757e-05
7.04855e-05
7.1443e-05
6.57154e-05
6.93625e-05
7.14339e-05
6.59133e-05
7.06087e-05
3.49362e-05
4.24642e-05
7.13064e-05
7.06513e-05
4.2851e-05
7.12267e-05
7.14377e-05
6.65246e-05
6.93721e-05
6.61289e-05
7.14531e-05
7.0541e-05
7.049e-05
4.24461e-05
2.60581e-05
4.95621e-05
6.71513e-05
2.58457e-05
6.71152e-05
4.29219e-05
4.20227e-05
2.55343e-05
4.91621e-05
6.70628e-05
2.56322e-05
4.17952e-05
6.7082e-05
7.95368e-05
7.29939e-05
7.29883e-05
7.29742e-05
7.29682e-05
8.00482e-05
4.20572e-05
2.55306e-05
6.70682e-05
4.91567e-05
4.18231e-05
2.56291e-05
6.70858e-05
7.90416e-05
7.29565e-05
7.295e-05
7.87718e-05
7.29685e-05
7.29616e-05
4.24902e-05
2.60769e-05
6.7158e-05
4.95563e-05
2.58456e-05
6.71198e-05
4.29789e-05
7.0744e-05
7.07439e-05
7.7155e-05
7.30513e-05
7.30445e-05
7.30241e-05
7.30174e-05
7.80464e-05
3.98399e-05
6.70228e-05
4.7416e-05
2.47207e-05
6.70071e-05
4.03566e-05
2.45763e-05
3.98857e-05
6.70289e-05
4.74348e-05
2.47289e-05
6.70133e-05
4.04008e-05
2.45846e-05
7.06154e-05
7.06603e-05
7.06157e-05
7.06615e-05
7.87886e-05
7.30384e-05
7.30317e-05
7.85529e-05
7.30136e-05
7.3007e-05
4.14757e-05
2.54138e-05
4.86216e-05
6.70516e-05
6.70496e-05
2.53004e-05
4.16095e-05
4.15207e-05
2.54228e-05
4.86311e-05
6.70593e-05
6.70568e-05
2.53076e-05
4.16575e-05
4.12011e-05
6.70311e-05
2.49353e-05
4.83159e-05
4.08389e-05
6.7047e-05
2.50977e-05
4.12423e-05
6.70368e-05
2.49418e-05
4.83137e-05
4.08842e-05
6.70534e-05
2.51033e-05
7.88237e-05
7.29192e-05
7.29127e-05
7.29458e-05
7.29393e-05
7.88001e-05
7.11262e-05
3.3006e-05
7.19845e-05
4.07246e-05
7.20829e-05
4.02571e-05
7.10718e-05
7.1422e-05
6.34829e-05
6.92719e-05
7.14125e-05
6.36605e-05
7.12491e-05
3.28237e-05
7.23678e-05
3.97225e-05
7.22626e-05
7.13121e-05
4.00147e-05
7.14188e-05
6.43393e-05
6.92777e-05
6.386e-05
7.14444e-05
7.09115e-05
7.18122e-05
4.10309e-05
3.38641e-05
7.09619e-05
7.17199e-05
4.15749e-05
7.14606e-05
6.936e-05
6.56488e-05
7.14626e-05
6.54626e-05
7.14678e-05
6.45592e-05
6.93484e-05
7.14375e-05
6.51053e-05
7.08057e-05
3.41294e-05
7.14651e-05
4.22724e-05
7.07521e-05
7.15526e-05
4.19902e-05
7.14446e-05
6.93448e-05
6.54751e-05
6.52951e-05
7.14505e-05
7.09088e-05
7.18115e-05
4.11334e-05
3.38753e-05
7.09611e-05
7.17186e-05
4.15941e-05
7.14589e-05
6.93445e-05
6.47802e-05
7.14466e-05
6.51566e-05
7.08002e-05
4.21788e-05
3.41058e-05
7.14647e-05
7.15516e-05
4.18503e-05
7.07509e-05
7.67079e-05
7.29827e-05
7.29889e-05
7.29554e-05
7.29617e-05
7.69597e-05
3.9736e-05
6.70191e-05
4.73471e-05
2.46766e-05
6.7007e-05
2.45863e-05
3.99773e-05
3.96771e-05
6.70136e-05
4.73504e-05
2.46688e-05
2.45628e-05
6.70017e-05
3.99606e-05
7.0741e-05
7.06103e-05
7.06621e-05
7.92113e-05
7.30438e-05
7.30505e-05
7.95101e-05
7.30596e-05
7.30667e-05
4.16248e-05
6.70838e-05
2.55003e-05
4.84677e-05
4.20461e-05
6.70672e-05
2.53137e-05
7.86203e-05
7.30237e-05
7.30303e-05
7.76958e-05
7.30642e-05
7.30711e-05
4.10356e-05
4.8259e-05
6.70347e-05
2.4872e-05
2.50259e-05
4.04971e-05
6.70602e-05
4.10217e-05
4.82729e-05
6.70302e-05
2.48438e-05
4.04283e-05
6.70558e-05
2.50467e-05
7.06096e-05
7.06607e-05
7.11278e-05
3.30425e-05
7.19845e-05
4.07806e-05
7.20823e-05
4.04064e-05
7.10708e-05
7.1426e-05
6.3333e-05
6.92799e-05
7.14041e-05
6.3812e-05
7.12504e-05
3.28276e-05
7.23673e-05
3.95854e-05
7.22637e-05
7.13107e-05
4.00654e-05
7.14202e-05
6.43294e-05
6.92874e-05
6.40779e-05
7.14316e-05
7.0909e-05
4.10575e-05
7.18115e-05
3.38536e-05
7.09603e-05
4.15663e-05
7.17193e-05
7.14477e-05
6.9359e-05
6.56238e-05
7.14495e-05
6.54213e-05
7.14615e-05
6.47226e-05
6.93561e-05
7.14454e-05
6.51847e-05
7.08019e-05
3.40913e-05
4.22654e-05
7.14656e-05
7.07523e-05
4.19027e-05
7.15525e-05
7.09045e-05
7.181e-05
4.10095e-05
3.38281e-05
7.09553e-05
7.1719e-05
4.14018e-05
7.14496e-05
6.93428e-05
6.56552e-05
6.52065e-05
7.14682e-05
7.14467e-05
6.44864e-05
6.93181e-05
7.14265e-05
6.48286e-05
7.08026e-05
3.40558e-05
7.14668e-05
4.227e-05
7.15522e-05
4.17579e-05
7.07567e-05
7.11259e-05
3.30172e-05
4.07329e-05
7.19844e-05
4.03555e-05
7.20833e-05
7.10697e-05
7.14181e-05
6.42995e-05
6.92877e-05
6.40132e-05
7.14324e-05
7.11293e-05
3.29899e-05
7.19848e-05
4.07656e-05
7.20834e-05
4.02104e-05
7.10759e-05
7.14139e-05
6.4324e-05
6.92652e-05
6.37235e-05
7.14599e-05
7.08019e-05
4.22018e-05
7.14662e-05
3.40764e-05
7.07547e-05
4.18093e-05
7.15527e-05
7.14408e-05
6.54476e-05
6.93396e-05
7.14541e-05
6.51935e-05
7.0906e-05
3.38569e-05
4.10443e-05
7.18114e-05
7.0957e-05
4.14696e-05
7.17189e-05
7.14469e-05
6.93303e-05
6.4583e-05
7.143e-05
6.49943e-05
7.14537e-05
6.54106e-05
6.93511e-05
7.14575e-05
6.53128e-05
7.09086e-05
3.39037e-05
7.18114e-05
4.12486e-05
7.0965e-05
7.17175e-05
4.16204e-05
7.1471e-05
6.93521e-05
6.48663e-05
7.14638e-05
6.51995e-05
7.72692e-05
7.2928e-05
7.29346e-05
7.29361e-05
7.29427e-05
7.7303e-05
3.9773e-05
2.43352e-05
6.7e-05
4.71171e-05
6.70042e-05
3.93943e-05
2.44586e-05
3.97291e-05
2.43291e-05
6.69946e-05
4.70912e-05
2.44482e-05
3.9352e-05
6.69979e-05
7.71631e-05
7.29707e-05
7.29771e-05
7.2969e-05
7.67603e-05
7.29755e-05
3.99643e-05
6.70112e-05
4.74702e-05
2.47116e-05
6.70058e-05
2.46275e-05
4.00989e-05
3.99199e-05
6.70064e-05
4.74466e-05
2.47033e-05
2.46185e-05
6.69999e-05
4.00543e-05
7.07951e-05
7.07458e-05
7.06096e-05
7.06539e-05
7.77757e-05
7.29216e-05
7.29281e-05
7.73849e-05
7.29447e-05
7.29511e-05
4.12465e-05
2.53417e-05
4.83967e-05
6.70693e-05
2.52149e-05
6.70409e-05
4.15559e-05
4.11997e-05
2.53304e-05
4.83778e-05
6.70602e-05
6.70342e-05
2.52074e-05
4.15073e-05
4.08441e-05
6.70157e-05
2.48887e-05
4.8155e-05
2.50158e-05
4.04239e-05
6.70282e-05
4.07984e-05
6.70114e-05
2.4884e-05
4.81654e-05
4.03794e-05
6.70235e-05
2.50089e-05
7.83239e-05
7.29592e-05
7.29657e-05
7.29499e-05
7.29562e-05
7.88206e-05
7.06063e-05
7.06524e-05
7.11286e-05
3.30692e-05
4.08585e-05
7.19834e-05
4.05133e-05
7.20831e-05
7.10672e-05
7.14251e-05
6.33346e-05
6.92872e-05
6.38881e-05
7.1395e-05
7.12508e-05
3.28211e-05
3.9536e-05
7.23686e-05
4.00495e-05
7.13106e-05
7.22639e-05
7.14165e-05
6.44326e-05
6.92963e-05
6.42496e-05
7.14197e-05
7.11246e-05
3.30438e-05
4.06721e-05
7.19834e-05
4.03363e-05
7.20821e-05
7.10686e-05
7.14209e-05
6.35018e-05
6.92755e-05
7.14119e-05
6.37339e-05
7.12504e-05
3.28515e-05
3.97055e-05
7.23686e-05
7.13126e-05
4.01078e-05
7.22627e-05
7.14152e-05
6.42873e-05
6.92778e-05
6.39092e-05
7.14342e-05
7.08983e-05
4.10273e-05
7.18097e-05
3.38008e-05
7.09492e-05
4.12607e-05
7.1718e-05
7.14307e-05
6.93181e-05
6.55564e-05
6.49515e-05
7.14734e-05
7.14207e-05
6.45038e-05
6.93002e-05
7.14064e-05
6.46259e-05
7.08e-05
3.40202e-05
4.22068e-05
7.14668e-05
4.16317e-05
7.15527e-05
7.07569e-05
7.09066e-05
4.10406e-05
7.18109e-05
3.38613e-05
7.09571e-05
4.15508e-05
7.17183e-05
7.14376e-05
6.93381e-05
6.5373e-05
6.52592e-05
7.1444e-05
7.14487e-05
6.46943e-05
6.93355e-05
7.14353e-05
6.50765e-05
7.08012e-05
3.40969e-05
4.21877e-05
7.1465e-05
4.18856e-05
7.15517e-05
7.07513e-05
7.07986e-05
7.07388e-05
7.08002e-05
7.07393e-05
4.13424e-05
2.53864e-05
4.85717e-05
6.70573e-05
4.15896e-05
2.52656e-05
6.70507e-05
7.79838e-05
7.29607e-05
7.29542e-05
7.77378e-05
7.2969e-05
7.2962e-05
4.13398e-05
2.53986e-05
4.85805e-05
6.70621e-05
4.16219e-05
2.52672e-05
6.70551e-05
4.08306e-05
4.83661e-05
6.70176e-05
2.48874e-05
4.0482e-05
2.50246e-05
6.70393e-05
4.09297e-05
6.70229e-05
2.48727e-05
4.83685e-05
4.04839e-05
2.50526e-05
6.70464e-05
7.84095e-05
7.29668e-05
7.29599e-05
7.86509e-05
7.2964e-05
7.29572e-05
7.0665e-05
7.06118e-05
7.06631e-05
7.05287e-05
7.05021e-05
7.05273e-05
7.04996e-05
7.88008e-05
7.29588e-05
7.2952e-05
7.29057e-05
7.2899e-05
7.94725e-05
4.18304e-05
2.55306e-05
6.70518e-05
4.90861e-05
4.16992e-05
6.70596e-05
2.56046e-05
4.18815e-05
2.55414e-05
6.70597e-05
4.90997e-05
4.17501e-05
6.70673e-05
2.56155e-05
7.86775e-05
7.28869e-05
7.28803e-05
7.86991e-05
7.28904e-05
7.28838e-05
4.21576e-05
6.71387e-05
4.94508e-05
2.59785e-05
6.70871e-05
4.26967e-05
2.57665e-05
4.22097e-05
6.71454e-05
4.94558e-05
2.59872e-05
6.70941e-05
4.27458e-05
2.57768e-05
7.14554e-05
6.93632e-05
6.56208e-05
7.14413e-05
6.59539e-05
7.145e-05
6.93737e-05
6.63964e-05
6.61234e-05
7.14653e-05
7.05276e-05
4.36017e-05
3.5156e-05
7.10019e-05
7.10762e-05
4.32029e-05
7.04898e-05
7.06121e-05
4.24407e-05
3.49152e-05
7.13063e-05
7.12268e-05
7.06534e-05
4.28773e-05
7.14809e-05
6.94481e-05
6.66191e-05
7.14635e-05
6.70143e-05
7.03776e-05
4.38745e-05
3.61127e-05
7.08588e-05
7.04113e-05
7.07905e-05
4.43163e-05
7.05226e-05
3.51758e-05
7.10014e-05
4.35407e-05
7.10747e-05
4.31853e-05
7.04841e-05
7.14617e-05
6.59145e-05
6.93857e-05
7.14578e-05
6.61158e-05
7.06153e-05
3.49755e-05
7.13066e-05
4.26145e-05
7.12267e-05
7.06604e-05
4.29909e-05
7.1447e-05
6.63548e-05
6.93842e-05
6.61982e-05
7.14571e-05
7.03706e-05
3.61056e-05
4.39327e-05
7.08579e-05
7.04059e-05
4.43109e-05
7.07895e-05
7.03754e-05
3.61119e-05
7.08582e-05
4.38508e-05
7.04073e-05
7.07903e-05
4.43518e-05
7.14738e-05
6.65565e-05
6.94408e-05
7.14544e-05
6.69947e-05
7.95146e-05
7.28866e-05
7.28934e-05
7.28984e-05
7.29053e-05
7.95504e-05
4.23341e-05
2.55635e-05
6.70855e-05
4.93562e-05
6.70998e-05
4.19534e-05
2.57296e-05
4.22828e-05
2.55532e-05
6.70787e-05
4.93695e-05
2.57184e-05
4.19035e-05
6.70953e-05
7.94211e-05
7.29451e-05
7.29517e-05
7.29355e-05
7.91632e-05
7.29423e-05
4.26671e-05
6.71116e-05
4.9462e-05
2.60461e-05
6.71036e-05
2.59408e-05
4.28392e-05
4.2616e-05
6.71065e-05
4.94877e-05
2.60406e-05
2.59331e-05
6.70994e-05
4.27882e-05
7.05429e-05
7.04918e-05
7.04412e-05
7.97058e-05
7.28698e-05
7.28764e-05
7.95785e-05
7.28837e-05
7.28905e-05
4.31792e-05
6.7127e-05
2.61944e-05
5.02792e-05
2.63158e-05
4.29689e-05
6.71693e-05
4.31288e-05
6.71199e-05
2.61889e-05
5.0249e-05
4.29189e-05
6.71603e-05
2.63018e-05
7.04365e-05
7.05208e-05
3.51908e-05
4.35015e-05
7.10009e-05
4.32512e-05
7.10751e-05
7.04808e-05
7.14742e-05
6.6009e-05
6.94058e-05
6.62915e-05
7.14708e-05
7.06178e-05
3.49935e-05
4.26887e-05
7.13076e-05
4.30687e-05
7.06648e-05
7.12267e-05
7.1451e-05
6.64555e-05
6.94036e-05
6.63872e-05
7.14506e-05
7.05318e-05
3.51821e-05
4.37508e-05
7.10021e-05
4.32251e-05
7.10766e-05
7.04948e-05
7.1465e-05
6.55101e-05
6.93683e-05
7.14396e-05
6.58659e-05
7.06132e-05
3.49202e-05
4.23818e-05
7.13068e-05
7.06534e-05
4.27952e-05
7.12273e-05
7.14716e-05
6.67263e-05
6.94037e-05
6.62953e-05
7.14903e-05
7.14563e-05
6.65908e-05
6.94318e-05
7.14404e-05
6.6971e-05
7.05351e-05
7.05351e-05
7.05099e-05
4.36358e-05
2.63198e-05
5.0166e-05
6.71638e-05
2.64692e-05
4.33699e-05
6.71758e-05
8.04353e-05
7.29839e-05
7.29785e-05
8.03287e-05
7.29776e-05
7.29713e-05
4.37001e-05
2.63427e-05
6.71723e-05
5.01932e-05
4.34319e-05
2.64977e-05
6.71836e-05
7.04309e-05
1.99899e-05
1.97162e-05
1.99897e-05
2.01861e-05
2.01863e-05
2.05814e-05
2.03925e-05
2.32889e-05
1.84335e-05
1.91442e-05
1.91446e-05
2.43533e-05
1.7876e-05
1.90964e-05
1.90968e-05
1.90938e-05
2.42712e-05
1.90939e-05
2.4081e-05
1.80716e-05
1.91078e-05
1.91074e-05
1.91166e-05
1.91162e-05
2.415e-05
1.84635e-05
2.00151e-05
3.22377e-05
2.64256e-05
2.63259e-05
1.99959e-05
1.84302e-05
2.32969e-05
1.91686e-05
1.91694e-05
1.84352e-05
1.91472e-05
2.31852e-05
1.91467e-05
2.39526e-05
1.80639e-05
1.90863e-05
1.90867e-05
1.9091e-05
1.90915e-05
2.40589e-05
2.39899e-05
1.90924e-05
1.8066e-05
1.90926e-05
2.40989e-05
1.91038e-05
1.90969e-05
2.43153e-05
1.91055e-05
1.91055e-05
1.78757e-05
2.42618e-05
1.90869e-05
1.9087e-05
1.83931e-05
2.00694e-05
3.27638e-05
2.66439e-05
2.00871e-05
1.84234e-05
2.67432e-05
1.83566e-05
2.02128e-05
3.35419e-05
2.73202e-05
2.02401e-05
1.83668e-05
2.74467e-05
2.44014e-05
1.90957e-05
1.90961e-05
1.78768e-05
1.90963e-05
2.42858e-05
1.90961e-05
2.51168e-05
1.91387e-05
1.76483e-05
1.91407e-05
1.91466e-05
2.49721e-05
1.91491e-05
1.77262e-05
1.75029e-05
2.1498e-05
1.9476e-05
2.15621e-05
1.7421e-05
1.77895e-05
1.83936e-05
2.00702e-05
2.66347e-05
3.27626e-05
2.00874e-05
2.67503e-05
1.84201e-05
1.76991e-05
1.95365e-05
1.73005e-05
2.17775e-05
2.17054e-05
1.73784e-05
1.76417e-05
1.83921e-05
3.30302e-05
2.01562e-05
2.71244e-05
2.01357e-05
2.70087e-05
1.83728e-05
2.45079e-05
1.91245e-05
1.91314e-05
1.78858e-05
1.91254e-05
2.44452e-05
1.91199e-05
2.46097e-05
1.78245e-05
1.9114e-05
1.91148e-05
1.91214e-05
2.46638e-05
1.91262e-05
2.49438e-05
1.91208e-05
1.76424e-05
1.91231e-05
2.48091e-05
1.91275e-05
1.91237e-05
1.77275e-05
1.75033e-05
2.1504e-05
1.94764e-05
1.7421e-05
2.15676e-05
1.77927e-05
1.83917e-05
2.01525e-05
3.30163e-05
2.71042e-05
2.69963e-05
1.83688e-05
2.01271e-05
1.83955e-05
2.66614e-05
2.00568e-05
3.27459e-05
2.67628e-05
2.00739e-05
1.84261e-05
1.76992e-05
1.95387e-05
1.73005e-05
2.17775e-05
1.73782e-05
2.17103e-05
1.76403e-05
1.75662e-05
1.7263e-05
2.1932e-05
1.96782e-05
1.76181e-05
2.20019e-05
1.71899e-05
1.83619e-05
2.02163e-05
2.73721e-05
3.35482e-05
1.83745e-05
2.02443e-05
2.74771e-05
1.83596e-05
2.02246e-05
3.35653e-05
2.73441e-05
1.83705e-05
2.74547e-05
2.02544e-05
1.75645e-05
1.72629e-05
2.19194e-05
1.96754e-05
1.76163e-05
1.71895e-05
2.1988e-05
1.95181e-05
1.97162e-05
1.99898e-05
2.01861e-05
2.01863e-05
2.05814e-05
2.03923e-05
2.05885e-05
2.05887e-05
1.99183e-05
2.03857e-05
2.03859e-05
2.07731e-05
2.09676e-05
2.05885e-05
2.05887e-05
1.99183e-05
2.03858e-05
2.03859e-05
2.07732e-05
2.09676e-05
2.05884e-05
2.05886e-05
1.99181e-05
2.03856e-05
2.03858e-05
2.07731e-05
2.09675e-05
2.05884e-05
2.05886e-05
1.99181e-05
2.03856e-05
2.03858e-05
2.07731e-05
2.09675e-05
1.97165e-05
1.99897e-05
1.99899e-05
2.01862e-05
2.01864e-05
2.05815e-05
2.03924e-05
1.97161e-05
1.99895e-05
1.99898e-05
2.0186e-05
2.01863e-05
2.05814e-05
2.03923e-05
1.81208e-05
1.92894e-05
2.1041e-05
1.78358e-05
2.09946e-05
1.79255e-05
1.80394e-05
1.85711e-05
2.57485e-05
3.14735e-05
1.99048e-05
1.98987e-05
2.56513e-05
1.85248e-05
1.81195e-05
1.92903e-05
1.78356e-05
2.10441e-05
1.79248e-05
2.09952e-05
1.80385e-05
1.8588e-05
1.98738e-05
2.53196e-05
3.12306e-05
1.86418e-05
1.98779e-05
2.54232e-05
1.8161e-05
1.92709e-05
1.8083e-05
2.08456e-05
1.82482e-05
1.79913e-05
2.08901e-05
1.857e-05
2.57495e-05
3.14789e-05
1.99079e-05
1.99014e-05
2.56533e-05
1.85229e-05
2.34866e-05
1.83448e-05
1.91234e-05
1.91231e-05
1.91421e-05
1.91422e-05
2.35606e-05
1.96059e-05
1.93239e-05
1.91335e-05
1.97965e-05
1.96061e-05
2.00221e-05
2.0206e-05
1.97964e-05
1.97966e-05
1.91335e-05
1.9606e-05
1.96062e-05
2.00222e-05
2.02061e-05
1.97962e-05
1.97965e-05
1.91334e-05
1.96058e-05
1.96061e-05
2.00221e-05
2.0206e-05
1.76993e-05
1.954e-05
1.73011e-05
2.17799e-05
1.73789e-05
2.17173e-05
1.76428e-05
1.83922e-05
2.0053e-05
2.66462e-05
3.27568e-05
1.84161e-05
2.00741e-05
2.67708e-05
1.77257e-05
1.9478e-05
1.7502e-05
2.15022e-05
1.77878e-05
1.74207e-05
2.15744e-05
1.83926e-05
2.71389e-05
3.30314e-05
2.01574e-05
2.01343e-05