/*--------------------------------*- C++ -*----------------------------------*\
| =========                 |                                                 |
| \\      /  F ield         | OpenFOAM: The Open Source CFD Toolbox           |
|  \\    /   O peration     | Version:  v2006                                 |
|   \\  /    A nd           | Website:  www.openfoam.com                      |
|    \\/     M anipulation  |                                                 |
\*---------------------------------------------------------------------------*/
FoamFile
{
    version     2.0;
    format      ascii;
    class       volScalarField;
    location    "875";
    object      nut;
}
// * * * * * * * * * * * * * * * * * * * * * * * * * * * * * * * * * * * * * //

dimensions      [0 2 -1 0 0 0 0];


internalField   nonuniform List<scalar> 
14298
(
2.36394e-05
2.36375e-05
8.30652e-05
6.06147e-05
6.0635e-05
6.7862e-05
4.95447e-05
6.78833e-05
6.47268e-05
0.000103232
6.46728e-05
0.0001282
6.47888e-05
0.000128239
6.78729e-05
4.95404e-05
6.47455e-05
0.000103268
6.46946e-05
0.0001282
6.78706e-05
4.95351e-05
6.47475e-05
0.00010321
0.000128191
6.47746e-05
0.000103112
6.46465e-05
4.95341e-05
2.36328e-05
8.30249e-05
6.04863e-05
6.04906e-05
2.36344e-05
6.47698e-05
0.000103249
0.000128197
6.47739e-05
6.47724e-05
0.000103138
0.00012817
6.46318e-05
6.79361e-05
4.95394e-05
6.79229e-05
4.95322e-05
8.26214e-05
6.02364e-05
6.02186e-05
2.36336e-05
2.36324e-05
2.36389e-05
2.36369e-05
7.10969e-05
2.15603e-05
2.15572e-05
7.07049e-05
2.15563e-05
2.15531e-05
7.38186e-05
4.71291e-05
6.94284e-05
6.093e-05
7.31537e-05
4.71335e-05
7.01819e-05
7.3864e-05
4.71181e-05
6.94558e-05
6.09371e-05
7.32016e-05
4.71222e-05
7.02106e-05
3.61877e-05
4.03193e-05
6.9505e-05
6.83479e-05
3.61847e-05
4.03238e-05
6.98421e-05
2.02242e-05
6.79873e-05
4.95507e-05
2.02244e-05
6.8132e-05
3.61832e-05
4.03189e-05
6.95714e-05
6.83423e-05
3.61811e-05
4.0323e-05
6.98335e-05
3.61868e-05
6.95257e-05
4.03186e-05
6.83274e-05
3.6184e-05
6.98268e-05
4.03231e-05
2.02237e-05
6.79939e-05
4.95458e-05
2.0224e-05
6.81193e-05
3.61847e-05
4.03182e-05
6.95297e-05
6.83306e-05
3.61818e-05
4.03227e-05
6.98385e-05
2.02229e-05
6.79889e-05
4.95394e-05
2.02231e-05
6.81187e-05
4.95393e-05
2.36329e-05
7.0505e-05
2.15531e-05
2.15564e-05
7.03692e-05
2.15512e-05
2.15544e-05
7.32023e-05
4.71072e-05
6.97883e-05
6.0593e-05
7.01009e-05
7.2883e-05
4.71173e-05
7.31531e-05
4.71174e-05
6.97859e-05
6.05757e-05
7.28366e-05
4.7127e-05
7.00908e-05
2.36345e-05
3.61865e-05
6.95636e-05
4.0318e-05
6.83462e-05
3.61838e-05
6.98587e-05
4.03222e-05
2.02238e-05
6.80086e-05
4.95434e-05
2.02241e-05
6.81341e-05
3.61841e-05
6.95428e-05
4.03174e-05
6.83387e-05
3.61811e-05
6.98275e-05
4.03218e-05
2.02231e-05
6.80043e-05
4.95371e-05
2.02232e-05
6.81293e-05
6.85222e-05
2.15631e-05
2.15601e-05
6.78943e-05
2.15845e-05
2.15814e-05
7.03361e-05
4.70984e-05
6.81707e-05
6.05532e-05
7.05776e-05
6.78901e-05
4.71358e-05
7.03613e-05
4.70872e-05
6.81831e-05
6.04703e-05
7.06089e-05
6.78746e-05
4.71255e-05
2.36343e-05
2.36332e-05
0.000152218
0.000174937
0.000174948
0.000193689
0.000174946
0.000193688
0.000152188
0.000174929
0.000174939
0.000193683
0.000152113
0.000174925
0.00019368
7.33737e-05
8.31417e-05
7.20803e-05
7.2086e-05
7.25869e-05
7.22941e-05
7.23007e-05
7.27648e-05
6.63834e-05
7.56978e-05
6.49659e-05
7.26864e-05
6.66263e-05
7.57145e-05
6.82847e-05
6.67169e-05
6.7463e-05
6.49805e-05
6.76752e-05
6.81491e-05
6.69322e-05
7.28974e-05
6.65408e-05
7.57471e-05
6.50199e-05
7.28119e-05
6.67685e-05
7.57625e-05
7.27986e-05
6.64349e-05
7.57088e-05
6.49768e-05
7.2724e-05
6.66642e-05
7.57223e-05
6.83227e-05
6.67617e-05
6.74818e-05
6.49947e-05
6.76945e-05
6.81906e-05
6.69665e-05
7.27949e-05
7.5705e-05
6.6444e-05
6.49794e-05
7.27147e-05
7.57187e-05
6.66795e-05
6.83433e-05
6.67991e-05
6.76627e-05
6.49472e-05
6.81943e-05
6.70016e-05
6.78464e-05
6.72419e-05
6.48492e-05
6.72324e-05
7.3168e-05
8.31582e-05
7.23295e-05
7.23376e-05
7.25077e-05
7.28758e-05
7.25149e-05
7.27898e-05
7.57026e-05
6.64578e-05
6.50024e-05
7.27055e-05
7.57198e-05
6.66949e-05
6.83396e-05
6.6809e-05
6.76638e-05
6.49499e-05
6.8187e-05
6.78474e-05
6.70129e-05
7.28008e-05
7.57112e-05
6.64737e-05
6.50001e-05
7.27366e-05
7.57241e-05
6.66907e-05
6.82805e-05
6.68293e-05
6.72494e-05
6.48311e-05
6.82033e-05
6.6989e-05
6.72309e-05
6.98378e-05
8.23765e-05
7.10409e-05
7.10372e-05
7.03832e-05
7.06852e-05
7.06745e-05
0.000143648
0.000113132
0.000145086
0.00014512
0.000114378
0.000113171
0.000143628
0.000189825
2.38293e-05
4.67169e-05
0.000168096
5.77242e-05
4.70045e-05
4.69962e-05
0.000169438
5.80439e-05
4.1355e-05
0.000169433
4.64211e-05
5.80522e-05
4.92743e-05
4.13836e-05
0.000169433
4.64159e-05
5.80403e-05
4.92736e-05
4.12854e-05
4.6631e-05
4.66085e-05
2.384e-05
2.38387e-05
4.69341e-05
4.69108e-05
2.38302e-05
4.92791e-05
4.14654e-05
0.00016809
4.66951e-05
5.77425e-05
4.92735e-05
4.14516e-05
2.38304e-05
2.38293e-05
2.38248e-05
5.24105e-05
4.65273e-05
5.17606e-05
5.23838e-05
4.6516e-05
5.17577e-05
2.16366e-05
2.16333e-05
5.85199e-05
2.02732e-05
5.60127e-05
5.52917e-05
2.02778e-05
3.6625e-05
4.07875e-05
4.59959e-05
4.13198e-05
4.52186e-05
4.13516e-05
3.66084e-05
2.02759e-05
4.927e-05
5.64586e-05
5.60195e-05
2.02772e-05
3.66242e-05
4.08817e-05
4.13201e-05
4.63222e-05
4.1352e-05
4.57703e-05
3.66061e-05
2.02747e-05
4.92629e-05
5.62512e-05
5.5592e-05
2.02781e-05
3.6623e-05
4.08081e-05
4.59314e-05
4.13193e-05
4.53274e-05
4.13509e-05
3.66062e-05
5.00109e-05
5.22037e-05
4.60296e-05
4.65228e-05
5.07516e-05
5.21058e-05
4.65177e-05
5.00321e-05
5.21939e-05
4.60174e-05
4.65109e-05
5.07748e-05
5.20641e-05
4.65058e-05
5.62315e-05
2.16321e-05
2.16287e-05
5.7348e-05
2.16175e-05
2.16142e-05
2.38436e-05
2.38422e-05
5.23414e-05
5.25537e-05
4.65143e-05
4.7014e-05
4.65151e-05
5.20886e-05
5.2617e-05
5.23272e-05
5.2545e-05
4.6525e-05
4.69926e-05
5.26501e-05
5.20653e-05
4.65257e-05
5.86995e-05
2.16277e-05
2.16311e-05
2.16281e-05
5.85804e-05
2.16315e-05
2.38258e-05
2.02805e-05
5.64465e-05
4.92857e-05
5.69024e-05
2.02783e-05
3.65588e-05
4.19758e-05
4.63481e-05
4.12666e-05
4.68981e-05
3.65748e-05
4.12365e-05
2.02761e-05
5.64343e-05
4.92736e-05
2.02752e-05
5.63637e-05
3.65559e-05
4.19168e-05
4.12669e-05
4.6289e-05
3.65715e-05
4.12368e-05
4.64532e-05
8.17284e-05
8.17129e-05
5.75964e-05
5.76588e-05
0.000114528
8.23471e-05
8.23292e-05
5.75874e-05
8.28695e-05
8.28489e-05
5.79503e-05
8.17979e-05
8.18174e-05
0.000113007
8.14678e-05
5.79017e-05
8.14409e-05
0.000205613
0.000216981
0.000205605
0.000205611
0.00021698
7.8717e-05
6.53001e-05
4.88332e-05
4.68633e-05
7.91486e-05
6.51617e-05
4.89433e-05
9.39413e-05
5.76093e-05
5.45146e-05
0.000101169
9.46223e-05
5.4474e-05
0.000100653
8.02567e-05
4.87097e-05
7.97574e-05
4.86625e-05
9.58892e-05
5.81781e-05
5.47101e-05
0.000101901
9.51886e-05
5.47967e-05
0.000102397
8.02301e-05
6.57005e-05
4.62813e-05
4.87937e-05
4.86642e-05
6.58649e-05
7.97566e-05
9.58756e-05
5.81749e-05
0.000101906
5.4774e-05
0.000102392
5.48017e-05
9.52102e-05
8.02105e-05
6.56901e-05
4.62755e-05
4.86918e-05
4.85864e-05
6.58532e-05
7.97304e-05
9.58641e-05
5.8172e-05
0.000101896
5.46978e-05
0.000102388
5.47644e-05
9.51776e-05
7.87228e-05
6.52736e-05
4.89571e-05
4.6851e-05
6.51444e-05
7.91585e-05
4.89853e-05
9.39364e-05
5.76173e-05
0.000101174
5.46062e-05
0.000100652
9.46405e-05
5.45055e-05
0.000137937
4.91335e-05
4.98763e-05
0.000162855
4.40931e-05
0.000135149
0.000160305
4.93274e-05
0.000185281
0.000143658
0.000183036
0.000137954
0.000107976
0.000108964
0.000143626
0.000139341
4.81973e-05
4.87839e-05
0.000143622
0.000139375
0.000139322
0.000139362
0.000164148
4.39887e-05
0.00011316
0.000108864
0.000143656
0.000139353
0.000139364
0.000108873
2.37905e-05
0.000108032
0.000137924
4.85309e-05
4.94523e-05
0.000137959
0.00013792
0.000107974
0.000137952
2.37745e-05
0.0001055
2.37668e-05
2.37854e-05
2.37729e-05
0.000162857
5.63318e-05
4.85075e-05
0.000136559
0.000161581
5.60337e-05
4.91882e-05
0.00010808
4.90555e-05
4.97318e-05
0.000106243
4.98262e-05
2.3784e-05
2.3772e-05
2.37672e-05
0.00010546
4.98801e-05
2.37655e-05
4.41977e-05
4.93104e-05
4.56342e-05
4.9332e-05
5.63297e-05
0.000161578
0.000137918
0.00013653
4.91518e-05
4.85126e-05
5.60463e-05
4.93276e-05
4.93087e-05
4.57069e-05
0.00016031
5.59038e-05
4.94811e-05
4.58668e-05
4.93328e-05
0.000135146
4.95136e-05
5.59085e-05
4.57684e-05
4.25676e-05
4.15263e-05
4.92909e-05
2.38131e-05
4.26267e-05
4.92871e-05
0.00020208
0.000188683
0.000188681
0.000188677
0.000188679
0.000185279
0.000185272
5.72121e-05
0.000142216
4.72751e-05
0.00016677
2.38281e-05
2.38122e-05
5.72152e-05
0.000168092
4.66974e-05
0.000142211
5.77158e-05
0.000166768
4.72861e-05
0.000111627
4.74974e-05
4.7501e-05
4.55807e-05
4.9317e-05
4.4251e-05
4.93387e-05
4.55946e-05
4.93099e-05
4.42409e-05
4.93241e-05
0.000201196
0.000184156
0.000184149
2.37841e-05
2.37697e-05
5.60557e-05
0.000162858
4.84872e-05
0.000136567
5.63124e-05
0.000161582
4.91873e-05
0.000106213
5.01829e-05
4.87706e-05
4.87738e-05
5.01743e-05
2.38152e-05
2.38125e-05
0.000111575
4.75365e-05
4.75401e-05
2.37937e-05
2.38072e-05
2.37908e-05
2.38047e-05
0.000110532
4.89666e-05
4.89832e-05
4.78092e-05
4.7787e-05
4.25976e-05
4.92778e-05
4.14978e-05
4.92901e-05
5.72197e-05
0.000168093
0.00014218
5.77203e-05
4.72719e-05
0.000166768
5.72114e-05
4.6714e-05
0.000168089
0.00014216
5.77231e-05
4.7278e-05
0.000166765
4.26924e-05
4.93178e-05
4.92963e-05
4.42171e-05
4.93092e-05
4.27483e-05
4.92995e-05
4.41466e-05
5.69326e-05
0.00014076
4.82275e-05
0.000164153
4.75512e-05
0.000165454
5.65663e-05
0.000139343
5.69379e-05
0.000140756
0.000164152
4.75567e-05
0.000165451
5.6568e-05
0.00011158
4.76974e-05
4.76934e-05
2.38143e-05
2.37923e-05
2.38062e-05
0.000108944
4.87542e-05
0.000110479
4.80081e-05
4.80125e-05
2.37907e-05
2.38068e-05
5.71967e-05
0.000142207
4.72544e-05
0.000166765
4.26845e-05
4.92692e-05
4.13876e-05
4.92855e-05
5.72071e-05
0.000168083
4.66875e-05
0.000142174
5.77186e-05
0.000166759
4.72832e-05
4.27308e-05
4.93108e-05
4.92986e-05
4.41391e-05
5.69228e-05
0.000140788
4.82301e-05
0.000164152
4.753e-05
0.000165451
5.65475e-05
4.27515e-05
4.93124e-05
4.92868e-05
4.40937e-05
5.69436e-05
0.000140736
0.000164144
4.81735e-05
0.000165442
4.75794e-05
5.65288e-05
4.26315e-05
4.92889e-05
5.71907e-05
0.000142176
0.000166763
4.72714e-05
4.25932e-05
4.92891e-05
0.000164151
5.6542e-05
4.81823e-05
5.69421e-05
0.00014076
4.75516e-05
0.000165453
4.40883e-05
4.93078e-05
4.2768e-05
4.92915e-05
5.65626e-05
0.000139319
4.8221e-05
5.69303e-05
0.000140748
0.000165449
4.7549e-05
4.93067e-05
4.28373e-05
4.93012e-05
4.6712e-05
4.67323e-05
0.000111628
4.78854e-05
4.78863e-05
2.38295e-05
2.38141e-05
2.37902e-05
2.38034e-05
0.000110532
4.87902e-05
4.87428e-05
4.80217e-05
4.80752e-05
2.37918e-05
2.38053e-05
5.72173e-05
0.000168092
4.66917e-05
0.000142216
5.77177e-05
0.000166767
4.72816e-05
4.27592e-05
4.9271e-05
4.13389e-05
4.92899e-05
4.26187e-05
4.92761e-05
4.14139e-05
4.92832e-05
5.69667e-05
0.00014077
0.000164149
4.81654e-05
0.000165451
4.75813e-05
5.65124e-05
5.69435e-05
0.000140776
0.00016415
4.82113e-05
0.00016545
4.75629e-05
5.65477e-05
4.28059e-05
4.9313e-05
4.92889e-05
4.40275e-05
4.27109e-05
4.93015e-05
4.92909e-05
4.41051e-05
2.38128e-05
2.38113e-05
4.87632e-05
0.000110544
4.87842e-05
4.79471e-05
4.79284e-05
2.38062e-05
2.37899e-05
2.38044e-05
2.37847e-05
2.37766e-05
2.37817e-05
2.37732e-05
4.89097e-05
4.89268e-05
0.000106182
5.00526e-05
5.00388e-05
4.93098e-05
4.93259e-05
4.55822e-05
4.4215e-05
5.6008e-05
4.85353e-05
0.000162858
0.000136524
5.63757e-05
4.9134e-05
0.00016158
0.000137953
4.91734e-05
0.000136521
5.60238e-05
0.000162858
5.63649e-05
0.000161578
4.93311e-05
4.57742e-05
0.000135155
5.58657e-05
0.000160308
5.60412e-05
4.85449e-05
0.00016286
0.000136559
5.63564e-05
4.91364e-05
0.000161581
4.55425e-05
4.93155e-05
4.42819e-05
4.93178e-05
5.60531e-05
0.00016285
4.85031e-05
0.000136527
5.63391e-05
0.000161574
4.91791e-05
4.57739e-05
5.58819e-05
0.000160309
4.56853e-05
4.93215e-05
5.58787e-05
0.000135139
0.0001603
4.94711e-05
4.92474e-05
4.92179e-05
0.000106266
4.96414e-05
4.96825e-05
2.37862e-05
2.37718e-05
2.37646e-05
0.000105515
4.98744e-05
4.98451e-05
2.37659e-05
0.000136566
5.60227e-05
0.000162856
4.84923e-05
5.6333e-05
0.00016158
4.91457e-05
4.55223e-05
4.93229e-05
4.4292e-05
4.93269e-05
4.56335e-05
4.93025e-05
4.41545e-05
4.93339e-05
0.000135184
4.94895e-05
4.93277e-05
2.37827e-05
2.37816e-05
2.37735e-05
5.03674e-05
5.03894e-05
2.3766e-05
5.57597e-05
4.65589e-05
5.36564e-05
4.95459e-05
4.65599e-05
5.57319e-05
5.37258e-05
5.62699e-05
5.35516e-05
5.03848e-05
4.65729e-05
5.56656e-05
4.65887e-05
5.37898e-05
3.63945e-05
4.09636e-05
4.9362e-05
4.47802e-05
4.09406e-05
5.0217e-05
3.64048e-05
2.02836e-05
4.93289e-05
5.94649e-05
2.02823e-05
5.9472e-05
5.46785e-05
4.65569e-05
5.34722e-05
4.84192e-05
5.54841e-05
5.31375e-05
4.65492e-05
3.64409e-05
4.10088e-05
4.90393e-05
4.35503e-05
3.64286e-05
4.10334e-05
4.88352e-05
2.37943e-05
2.37768e-05
2.37636e-05
2.37826e-05
2.37753e-05
6.16008e-05
2.16342e-05
2.16332e-05
2.16295e-05
2.16289e-05
6.16317e-05
5.57637e-05
4.65443e-05
5.3575e-05
4.95179e-05
5.36377e-05
4.65492e-05
5.58058e-05
5.55389e-05
4.96268e-05
5.36407e-05
4.6561e-05
4.65581e-05
5.55123e-05
5.3668e-05
6.14128e-05
2.16225e-05
2.16225e-05
2.16228e-05
2.16228e-05
6.1204e-05
5.54838e-05
4.97049e-05
5.36646e-05
4.65583e-05
5.35188e-05
4.65535e-05
5.54374e-05
2.37817e-05
2.37748e-05
2.37661e-05
6.1676e-05
2.16225e-05
2.16219e-05
6.1067e-05
2.16259e-05
2.16251e-05
5.62989e-05
5.35833e-05
4.65616e-05
5.02684e-05
5.5673e-05
4.65769e-05
5.37884e-05
2.37641e-05
3.63953e-05
4.95233e-05
4.09629e-05
4.47449e-05
5.00335e-05
4.094e-05
3.64061e-05
2.02858e-05
5.84026e-05
4.93184e-05
5.88599e-05
2.02833e-05
3.63731e-05
4.49397e-05
5.11681e-05
4.08752e-05
5.04079e-05
4.08967e-05
3.63633e-05
2.02853e-05
4.93252e-05
5.96491e-05
5.92168e-05
2.02868e-05
2.02839e-05
4.93245e-05
5.9535e-05
5.93324e-05
2.02843e-05
2.02849e-05
5.83541e-05
4.93183e-05
5.89606e-05
2.02826e-05
3.63724e-05
4.50852e-05
5.12211e-05
4.08752e-05
4.0897e-05
5.07789e-05
3.63613e-05
3.63331e-05
5.1505e-05
4.08338e-05
4.64219e-05
3.63425e-05
5.18969e-05
4.08139e-05
2.02853e-05
5.97386e-05
4.93337e-05
2.02848e-05
5.97849e-05
3.63303e-05
5.11853e-05
4.08339e-05
4.62576e-05
3.6339e-05
4.08143e-05
5.14458e-05
3.6527e-05
4.20971e-05
4.11584e-05
4.73125e-05
4.11862e-05
4.70056e-05
3.6513e-05
2.02809e-05
5.66302e-05
2.02796e-05
5.69639e-05
3.65591e-05
4.20145e-05
4.12677e-05
4.65692e-05
3.65759e-05
4.12377e-05
4.70409e-05
2.02791e-05
5.69297e-05
4.92896e-05
5.68956e-05
2.02808e-05
2.38157e-05
3.65261e-05
4.20757e-05
4.74683e-05
4.11569e-05
4.68838e-05
4.1185e-05
3.65122e-05
2.02764e-05
5.70527e-05
4.92743e-05
5.64894e-05
2.02816e-05
2.38242e-05
2.38157e-05
5.97056e-05
2.16345e-05
2.16312e-05
2.16364e-05
2.16333e-05
5.97534e-05
5.27543e-05
4.72153e-05
5.27156e-05
4.65296e-05
5.28059e-05
4.72314e-05
5.27741e-05
4.65183e-05
5.93905e-05
2.16394e-05
2.1636e-05
5.30659e-05
4.65295e-05
4.71961e-05
5.27724e-05
5.27596e-05
4.6529e-05
5.31363e-05
5.31436e-05
4.65188e-05
4.72116e-05
5.27542e-05
5.27609e-05
4.65181e-05
5.31464e-05
3.63743e-05
4.47987e-05
4.0877e-05
5.10832e-05
4.08982e-05
5.01341e-05
3.63654e-05
2.02845e-05
5.86013e-05
4.93178e-05
2.02834e-05
5.85552e-05
3.63949e-05
4.46536e-05
4.09638e-05
4.94993e-05
3.64055e-05
4.09412e-05
4.97004e-05
2.02849e-05
5.9436e-05
4.93225e-05
5.87155e-05
2.02891e-05
3.63711e-05
4.49442e-05
5.10538e-05
4.08749e-05
5.03492e-05
4.08963e-05
3.63615e-05
2.02824e-05
5.86006e-05
4.93109e-05
2.02812e-05
5.87336e-05
3.63933e-05
4.47749e-05
4.95456e-05
4.09626e-05
3.64043e-05
5.00265e-05
4.09397e-05
2.02816e-05
5.93898e-05
4.93139e-05
5.88939e-05
2.02838e-05
2.3781e-05
2.37724e-05
5.51992e-05
5.37385e-05
4.9646e-05
4.6579e-05
5.32671e-05
4.65656e-05
5.60491e-05
5.48079e-05
5.32193e-05
4.91388e-05
4.65469e-05
5.32388e-05
5.46557e-05
4.65539e-05
6.12537e-05
2.16351e-05
2.1632e-05
2.16319e-05
2.16288e-05
6.19042e-05
5.47952e-05
5.31805e-05
4.65384e-05
4.91228e-05
5.46287e-05
5.31781e-05
4.65427e-05
6.07284e-05
2.16293e-05
2.16268e-05
6.05406e-05
2.16311e-05
2.16281e-05
5.52183e-05
5.37515e-05
4.65678e-05
4.96192e-05
5.32027e-05
4.65539e-05
5.60989e-05
2.3819e-05
2.3816e-05
5.88164e-05
2.16443e-05
2.16409e-05
2.16395e-05
2.16361e-05
5.99249e-05
5.22259e-05
4.65355e-05
4.7365e-05
5.26853e-05
4.65299e-05
5.31472e-05
5.24459e-05
5.22564e-05
4.6523e-05
4.73838e-05
5.26809e-05
4.65175e-05
5.31774e-05
5.24416e-05
2.37974e-05
2.38047e-05
2.37945e-05
2.38021e-05
6.09262e-05
2.16429e-05
2.16395e-05
6.05869e-05
2.16396e-05
2.16362e-05
5.47996e-05
5.34928e-05
4.87605e-05
4.65463e-05
4.65454e-05
5.33225e-05
5.4916e-05
5.48228e-05
5.34869e-05
4.87562e-05
4.65344e-05
4.65333e-05
5.33099e-05
5.49469e-05
5.45117e-05
4.65384e-05
5.28134e-05
4.83771e-05
5.38287e-05
4.65443e-05
5.31593e-05
5.45315e-05
4.65258e-05
5.28039e-05
4.83524e-05
5.38582e-05
4.65319e-05
5.31452e-05
6.09732e-05
2.16254e-05
2.1622e-05
2.16296e-05
2.16263e-05
6.09231e-05
3.65251e-05
4.20553e-05
4.1158e-05
4.75199e-05
4.11862e-05
4.68566e-05
3.65112e-05
2.02782e-05
5.64908e-05
4.92803e-05
2.02769e-05
5.66024e-05
3.65568e-05
4.198e-05
4.12675e-05
4.64543e-05
4.12375e-05
3.6573e-05
4.6797e-05
2.02776e-05
5.71686e-05
4.9282e-05
5.66183e-05
2.02812e-05
3.64722e-05
4.1109e-05
4.77321e-05
4.33355e-05
3.64851e-05
4.10826e-05
4.86268e-05
2.02853e-05
4.93159e-05
5.86841e-05
2.02857e-05
5.84547e-05
2.02861e-05
5.72831e-05
4.93108e-05
2.02817e-05
5.80186e-05
3.64452e-05
4.36123e-05
4.10095e-05
4.95868e-05
3.64314e-05
4.10346e-05
4.91904e-05
2.02818e-05
4.93082e-05
5.83957e-05
5.82431e-05
2.02826e-05
3.64696e-05
4.11086e-05
4.79901e-05
4.33746e-05
3.64828e-05
4.1082e-05
4.87293e-05
2.02838e-05
4.93072e-05
5.76696e-05
2.02816e-05
5.81832e-05
3.64418e-05
4.93282e-05
4.35755e-05
4.10092e-05
4.10341e-05
4.89151e-05
3.6429e-05
5.85479e-05
2.16308e-05
2.16335e-05
2.16272e-05
2.16304e-05
5.85489e-05
5.21959e-05
4.65205e-05
4.71737e-05
5.25485e-05
4.65161e-05
5.25576e-05
5.2299e-05
5.21411e-05
4.65294e-05
4.71865e-05
5.25549e-05
5.25097e-05
4.65261e-05
5.23022e-05
2.38169e-05
2.37949e-05
2.38032e-05
6.1135e-05
2.16432e-05
2.16422e-05
6.15523e-05
2.16448e-05
2.16445e-05
5.47115e-05
4.65423e-05
5.36068e-05
4.84568e-05
5.5525e-05
4.65376e-05
5.31642e-05
6.03805e-05
2.16371e-05
2.16392e-05
5.92503e-05
2.16443e-05
2.16454e-05
5.37774e-05
4.83162e-05
4.65271e-05
5.25231e-05
5.28119e-05
5.27972e-05
4.65408e-05
5.3726e-05
4.83518e-05
4.65337e-05
5.24489e-05
5.2741e-05
4.65381e-05
5.28353e-05
2.3794e-05
2.38031e-05
3.6525e-05
4.21198e-05
4.11567e-05
4.77391e-05
4.11846e-05
4.71965e-05
3.65104e-05
2.0279e-05
5.61885e-05
4.92793e-05
2.02758e-05
5.67929e-05
3.65564e-05
4.19709e-05
4.1266e-05
4.61028e-05
4.12364e-05
3.65719e-05
4.68459e-05
2.02782e-05
5.7283e-05
4.92822e-05
5.70318e-05
2.02798e-05
3.64706e-05
4.78238e-05
4.11074e-05
4.33221e-05
3.64838e-05
4.86143e-05
4.1081e-05
2.02833e-05
4.93099e-05
5.86184e-05
2.02835e-05
5.8403e-05
2.02851e-05
5.75331e-05
4.93085e-05
2.02826e-05
5.8147e-05
3.64432e-05
4.35283e-05
4.95062e-05
4.10083e-05
3.64304e-05
4.89956e-05
4.10333e-05
3.64676e-05
4.11068e-05
4.78075e-05
4.32887e-05
3.64807e-05
4.10807e-05
4.83053e-05
2.02822e-05
4.93008e-05
5.85748e-05
5.79852e-05
2.0285e-05
2.02818e-05
5.72864e-05
4.92923e-05
2.0279e-05
5.76109e-05
3.64413e-05
4.34316e-05
4.10084e-05
4.94231e-05
4.10329e-05
4.86215e-05
3.64296e-05
3.65268e-05
4.20763e-05
4.76127e-05
4.11569e-05
4.70945e-05
4.11851e-05
3.65123e-05
2.02792e-05
5.71871e-05
4.92865e-05
5.69184e-05
2.02811e-05
3.65258e-05
4.19993e-05
4.11575e-05
4.7568e-05
4.11857e-05
4.67055e-05
3.65122e-05
2.02768e-05
5.7104e-05
4.92758e-05
5.63618e-05
2.02833e-05
3.64435e-05
4.93563e-05
4.10085e-05
4.35112e-05
3.64311e-05
4.87973e-05
4.10333e-05
2.02823e-05
5.83143e-05
4.93029e-05
2.02838e-05
5.80573e-05
3.64702e-05
4.33474e-05
4.78492e-05
4.11074e-05
3.64833e-05
4.8464e-05
4.10809e-05
2.02831e-05
4.92999e-05
5.73994e-05
2.02807e-05
5.79298e-05
2.0283e-05
5.82567e-05
4.93065e-05
2.02834e-05
5.82668e-05
3.64695e-05
4.34714e-05
4.1108e-05
4.82422e-05
3.64839e-05
4.10811e-05
4.8833e-05
2.02855e-05
4.93072e-05
5.77845e-05
2.02842e-05
5.82495e-05
5.94375e-05
2.16236e-05
2.16271e-05
2.16252e-05
2.16286e-05
5.93181e-05
5.28783e-05
5.25014e-05
4.65132e-05
4.6996e-05
4.65149e-05
5.21629e-05
5.26957e-05
5.28486e-05
5.25164e-05
4.65256e-05
4.69673e-05
5.2695e-05
5.2135e-05
4.65269e-05
5.93905e-05
2.16298e-05
2.16332e-05
2.16298e-05
5.88802e-05
2.16332e-05
5.28527e-05
4.65173e-05
4.7374e-05
5.27278e-05
4.65154e-05
5.27112e-05
5.28085e-05
5.28231e-05
4.65299e-05
4.73378e-05
5.27318e-05
5.27129e-05
4.65276e-05
5.27841e-05
2.38256e-05
2.38172e-05
2.37923e-05
2.37999e-05
5.95021e-05
2.16223e-05
2.16257e-05
5.91769e-05
2.16255e-05
2.16289e-05
5.4017e-05
5.3074e-05
4.82827e-05
4.6537e-05
5.29155e-05
4.65272e-05
5.44355e-05
5.39859e-05
5.30738e-05
4.82768e-05
4.65481e-05
4.65392e-05
5.29291e-05
5.44053e-05
5.3608e-05
4.65188e-05
5.272e-05
4.81367e-05
5.28779e-05
5.29118e-05
4.6523e-05
5.35804e-05
4.65315e-05
5.27353e-05
4.8183e-05
5.28822e-05
4.65356e-05
5.28892e-05
6.00886e-05
2.16281e-05
2.16315e-05
2.16264e-05
2.16298e-05
6.06709e-05
2.37937e-05
2.38017e-05
3.65275e-05
4.21713e-05
4.79629e-05
4.11566e-05
4.7403e-05
4.11851e-05
3.65119e-05
2.028e-05
5.61306e-05
4.92846e-05
5.68791e-05
2.02756e-05
3.65587e-05
4.19204e-05
4.59636e-05
4.12666e-05
4.67712e-05
3.65741e-05
4.12367e-05
2.0279e-05
5.75117e-05
4.92885e-05
5.73e-05
2.02795e-05
3.65242e-05
4.21417e-05
4.74541e-05
4.11561e-05
4.70781e-05
4.11843e-05
3.65098e-05
2.02783e-05
5.6508e-05
4.92781e-05
2.0277e-05
5.67258e-05
3.65565e-05
4.20184e-05
4.63656e-05
4.12661e-05
3.65724e-05
4.69861e-05
4.12359e-05
2.02774e-05
5.71268e-05
4.92787e-05
5.67328e-05
2.028e-05
3.64682e-05
4.79263e-05
4.11069e-05
4.32421e-05
3.64814e-05
4.80649e-05
4.10806e-05
2.02808e-05
4.92949e-05
5.83469e-05
5.75477e-05
2.02869e-05
2.02793e-05
5.74038e-05
4.92898e-05
2.02775e-05
5.73556e-05
3.6443e-05
4.33615e-05
4.92444e-05
4.10086e-05
4.83402e-05
4.10332e-05
3.64319e-05
3.64681e-05
4.78007e-05
4.11068e-05
4.33497e-05
3.64811e-05
4.86171e-05
4.10803e-05
2.02807e-05
4.93007e-05
5.82591e-05
5.82256e-05
2.02815e-05
2.02822e-05
5.75608e-05
4.92994e-05
2.02802e-05
5.8077e-05
3.64411e-05
4.35659e-05
4.93749e-05
4.10077e-05
4.90079e-05
4.10326e-05
3.64283e-05
2.38259e-05
2.38157e-05
2.38248e-05
2.38144e-05
5.42787e-05
5.3303e-05
4.87005e-05
4.6542e-05
5.4668e-05
5.31088e-05
4.65395e-05
5.98285e-05
2.16303e-05
2.16274e-05
5.96559e-05
2.16312e-05
2.16286e-05
5.43241e-05
5.33725e-05
4.87068e-05
4.65399e-05
5.47267e-05
5.31835e-05
4.65373e-05
5.36495e-05
4.85033e-05
4.65319e-05
5.27062e-05
5.31232e-05
5.29208e-05
4.65383e-05
5.37478e-05
4.65212e-05
5.26228e-05
4.84885e-05
5.30671e-05
5.29535e-05
4.65303e-05
6.02972e-05
2.16306e-05
2.16287e-05
6.05466e-05
2.16301e-05
2.16283e-05
2.38033e-05
2.37937e-05
2.38018e-05
2.37825e-05
2.37779e-05
2.37794e-05
2.37746e-05
6.03109e-05
2.16298e-05
2.16265e-05
2.16219e-05
2.16185e-05
6.10519e-05
5.451e-05
5.33151e-05
4.65463e-05
4.90531e-05
5.4636e-05
4.65484e-05
5.32325e-05
5.45511e-05
5.33152e-05
4.65344e-05
4.90597e-05
5.4673e-05
4.65366e-05
5.32353e-05
6.04499e-05
2.16201e-05
2.16167e-05
6.06969e-05
2.16203e-05
2.16169e-05
5.45852e-05
4.65751e-05
4.94469e-05
5.34288e-05
4.65567e-05
5.54842e-05
5.30217e-05
5.46249e-05
4.65628e-05
4.94416e-05
5.34245e-05
4.65446e-05
5.55166e-05
5.30251e-05
2.02832e-05
4.93142e-05
5.84271e-05
2.02812e-05
5.88361e-05
2.02824e-05
4.93178e-05
5.92023e-05
5.89191e-05
2.02845e-05
3.63713e-05
5.09504e-05
4.4917e-05
4.08762e-05
4.08976e-05
5.04038e-05
3.63616e-05
3.63931e-05
4.94697e-05
4.47344e-05
4.09637e-05
4.09408e-05
3.64038e-05
5.00937e-05
2.02867e-05
4.93437e-05
5.93321e-05
2.02842e-05
5.98214e-05
3.63327e-05
5.11147e-05
4.63455e-05
4.08349e-05
3.63414e-05
4.08152e-05
5.17122e-05
3.63694e-05
4.49773e-05
4.08747e-05
5.08187e-05
4.08957e-05
5.04003e-05
3.63593e-05
2.02842e-05
5.8869e-05
4.93174e-05
2.02836e-05
5.90981e-05
3.63933e-05
4.48823e-05
4.09624e-05
4.98108e-05
4.09395e-05
3.64049e-05
5.03677e-05
2.02821e-05
5.91373e-05
4.93168e-05
5.90734e-05
2.02833e-05
3.63319e-05
4.63424e-05
5.12975e-05
4.08336e-05
3.63411e-05
5.17874e-05
4.08139e-05
3.63312e-05
4.6338e-05
4.08334e-05
5.10465e-05
3.63394e-05
4.08138e-05
5.17895e-05
2.02856e-05
5.92485e-05
4.93353e-05
2.02829e-05
5.97886e-05
6.15019e-05
2.16176e-05
2.1621e-05
2.16195e-05
2.16229e-05
6.14856e-05
5.55159e-05
5.32199e-05
4.6543e-05
4.95854e-05
4.65484e-05
5.48448e-05
5.35575e-05
5.54789e-05
5.32187e-05
4.65548e-05
4.96123e-05
5.35524e-05
5.48095e-05
4.6561e-05
6.14072e-05
2.16262e-05
2.16296e-05
2.16249e-05
6.10675e-05
2.16284e-05
5.5907e-05
4.65524e-05
4.95828e-05
5.38013e-05
4.65498e-05
5.3706e-05
5.60958e-05
5.58681e-05
4.65649e-05
4.96473e-05
5.38229e-05
5.37137e-05
4.65626e-05
5.606e-05
2.37833e-05
2.37747e-05
2.37638e-05
6.133e-05
2.16147e-05
2.16181e-05
6.13615e-05
2.16164e-05
2.16198e-05
5.595e-05
4.65572e-05
5.36718e-05
5.04617e-05
5.37562e-05
5.58763e-05
4.65712e-05
5.59219e-05
4.65691e-05
5.36976e-05
5.0421e-05
5.58457e-05
4.65823e-05
5.37522e-05
2.3765e-05
3.63712e-05
4.50223e-05
5.07521e-05
4.08747e-05
5.05516e-05
4.08961e-05
3.63607e-05
2.02875e-05
5.8915e-05
4.93276e-05
5.93174e-05
2.02869e-05
3.63965e-05
4.49143e-05
4.9921e-05
4.09629e-05
5.05332e-05
3.64085e-05
4.09397e-05
2.0284e-05
5.93154e-05
4.9327e-05
5.93363e-05
2.02838e-05
3.63715e-05
4.49596e-05
5.11982e-05
4.08747e-05
5.0359e-05
4.08961e-05
3.6362e-05
2.02841e-05
5.82257e-05
4.93096e-05
2.02807e-05
5.85705e-05
3.63925e-05
4.4719e-05
4.93575e-05
4.09622e-05
3.64029e-05
4.98454e-05
4.09394e-05
2.02851e-05
5.96539e-05
4.93223e-05
5.90617e-05
2.0288e-05
2.02844e-05
5.92931e-05
4.93355e-05
2.02822e-05
5.97607e-05
2.37812e-05
2.37798e-05
2.37756e-05
5.71586e-05
5.40658e-05
5.03874e-05
4.65838e-05
5.43495e-05
5.67049e-05
4.65882e-05
6.23811e-05
2.16338e-05
2.16308e-05
6.2258e-05
2.1633e-05
2.16298e-05
5.7224e-05
5.41089e-05
4.65733e-05
5.0426e-05
5.67675e-05
5.44205e-05
4.65775e-05
2.37626e-05
0.000202091
0.000186404
0.000202085
0.000202966
0.000202972
0.000215206
0.0002146
5.79358e-05
0.000112976
8.14156e-05
8.14053e-05
5.78701e-05
0.000107532
7.80853e-05
7.80753e-05
7.78498e-05
5.7912e-05
7.78285e-05
5.83752e-05
0.000109315
7.88892e-05
7.88727e-05
7.91222e-05
7.91047e-05
5.83668e-05
7.62113e-05
6.37632e-05
4.80221e-05
4.98561e-05
4.97547e-05
6.38377e-05
7.59225e-05
5.80776e-05
8.17692e-05
8.17897e-05
0.000113011
8.14789e-05
5.7878e-05
8.1461e-05
5.76883e-05
0.00010922
7.86485e-05
7.86667e-05
7.88834e-05
7.89018e-05
5.77828e-05
5.78599e-05
7.86948e-05
0.000109236
7.87211e-05
5.79833e-05
7.8908e-05
7.90088e-05
5.78758e-05
7.82472e-05
7.8231e-05
0.000107561
5.80701e-05
7.78752e-05
7.78632e-05
7.50498e-05
6.35096e-05
4.87077e-05
5.00257e-05
6.34239e-05
7.53267e-05
5.01105e-05
7.34269e-05
6.27004e-05
4.96264e-05
5.05684e-05
6.26256e-05
7.35787e-05
5.07246e-05
5.8079e-05
7.80497e-05
7.80661e-05
0.00010756
7.78675e-05
5.79307e-05
7.78512e-05
5.86242e-05
7.64772e-05
0.000104988
7.64649e-05
7.63169e-05
5.83233e-05
7.63101e-05
8.92758e-05
9.6508e-05
5.38835e-05
5.62643e-05
5.38816e-05
9.59014e-05
8.98241e-05
7.50102e-05
6.34865e-05
4.99326e-05
4.86878e-05
6.33956e-05
5.00652e-05
7.52594e-05
8.87113e-05
5.60776e-05
9.47832e-05
5.38784e-05
5.38441e-05
9.5395e-05
8.82134e-05
7.44274e-05
4.90224e-05
6.29958e-05
5.05023e-05
6.31e-05
5.03477e-05
7.42267e-05
5.85884e-05
7.83176e-05
7.82498e-05
0.000107654
7.80237e-05
5.86265e-05
7.81037e-05
5.8228e-05
0.000106781
7.71245e-05
7.70534e-05
7.74098e-05
5.8031e-05
7.73939e-05
5.77921e-05
7.63979e-05
0.000104915
7.63153e-05
5.7654e-05
7.60771e-05
7.61575e-05
8.9291e-05
9.65128e-05
5.39045e-05
5.62593e-05
9.59015e-05
5.38951e-05
8.98578e-05
7.44517e-05
6.29625e-05
4.89648e-05
5.04669e-05
5.03432e-05
7.4219e-05
6.30353e-05
7.50473e-05
5.00484e-05
6.34485e-05
4.86658e-05
5.01394e-05
6.33451e-05
7.53217e-05
8.87224e-05
5.60851e-05
9.47843e-05
5.39035e-05
9.53929e-05
5.38737e-05
8.82079e-05
8.71838e-05
9.43145e-05
5.39124e-05
5.58704e-05
8.76379e-05
5.39372e-05
9.37044e-05
7.34762e-05
6.26966e-05
5.0785e-05
4.96446e-05
7.36384e-05
6.26225e-05
5.08907e-05
7.34564e-05
6.27447e-05
4.96955e-05
5.06937e-05
7.36139e-05
5.08035e-05
6.27015e-05
8.71664e-05
9.4315e-05
5.38833e-05
5.58601e-05
8.76264e-05
9.36988e-05
5.38747e-05
0.000185273
0.000186401
0.000202087
0.000202963
0.00020297
0.000215204
0.000214597
0.00020473
0.000204736
0.000187543
0.000203849
0.000203855
0.000215806
0.000216399
0.000204729
0.000204736
0.000187543
0.00020385
0.000203855
0.000215807
0.000216399
0.000204726
0.000204732
0.000187537
0.000203846
0.000203852
0.000215804
0.000216396
0.000204726
0.000204733
0.000187538
0.000203846
0.000203853
0.000215804
0.000216396
0.000186411
0.000202083
0.00020209
0.000202968
0.000202975
0.000215207
0.000214599
0.000186401
0.00020208
0.000202086
0.000202963
0.00020297
0.000215204
0.000214596
9.33982e-05
5.73176e-05
5.42858e-05
9.94269e-05
5.4333e-05
9.99704e-05
9.27217e-05
7.81153e-05
4.92198e-05
4.7126e-05
6.46302e-05
6.47674e-05
4.91337e-05
7.77355e-05
9.33853e-05
5.73064e-05
9.94263e-05
5.43009e-05
9.99607e-05
5.43078e-05
9.27204e-05
7.87168e-05
6.52916e-05
4.88002e-05
4.68464e-05
7.91533e-05
6.51599e-05
4.89069e-05
9.39274e-05
5.75937e-05
0.000101166
5.44857e-05
9.46197e-05
0.000100642
5.44267e-05
7.81187e-05
4.92468e-05
4.7126e-05
6.46533e-05
6.47831e-05
4.9138e-05
7.77348e-05
5.80662e-05
0.00011185
8.05584e-05
8.05468e-05
8.08586e-05
8.08516e-05
5.8069e-05
0.000200311
0.000184148
0.000183031
0.000201204
0.000200319
0.000213361
0.000213983
0.000201201
0.000201207
0.000183033
0.000200314
0.000200321
0.000213364
0.000213986
0.000201196
0.000201203
0.000183029
0.00020031
0.000200318
0.000213361
0.000213983
8.87259e-05
5.61109e-05
9.47923e-05
5.39401e-05
9.54026e-05
5.39479e-05
8.82362e-05
7.50121e-05
6.34194e-05
4.99177e-05
4.86746e-05
7.52381e-05
6.3341e-05
5.01139e-05
8.92762e-05
5.6265e-05
9.64983e-05
5.38508e-05
8.981e-05
9.58992e-05
5.39207e-05
7.44404e-05
5.05825e-05
4.90192e-05
6.30149e-05
6.30894e-05