/*--------------------------------*- C++ -*----------------------------------*\
| =========                 |                                                 |
| \\      /  F ield         | OpenFOAM: The Open Source CFD Toolbox           |
|  \\    /   O peration     | Version:  v2006                                 |
|   \\  /    A nd           | Website:  www.openfoam.com                      |
|    \\/     M anipulation  |                                                 |
\*---------------------------------------------------------------------------*/
FoamFile
{
    version     2.0;
    format      ascii;
    class       surfaceScalarField;
    location    "875";
    object      phi;
}
// * * * * * * * * * * * * * * * * * * * * * * * * * * * * * * * * * * * * * //

dimensions      [0 3 -1 0 0 0 0];
oriented        oriented;


internalField   nonuniform List<scalar> 
41099
(
5.44496e-08
-5.98993e-09
9.90039e-05
-9.90524e-05
5.49992e-08
-6.49837e-09
9.89925e-05
-9.9041e-05
1.5656e-06
1.52474e-06
0.000274315
-5.0802e-07
-5.16086e-07
-0.000276381
4.00211e-08
7.56607e-09
1.61097e-07
0.000284518
-0.000284672
3.95617e-08
8.56787e-09
1.62989e-07
0.000284437
-0.000284593
3.4361e-09
2.20222e-07
-6.91712e-08
-1.17438e-08
0.000236518
-0.000236661
1.10408e-07
-1.4469e-08
0.000197131
-0.000197232
2.20499e-07
-6.93651e-08
-5.31977e-09
0.000236478
-0.00023662
2.70594e-09
-2.37695e-08
5.2262e-07
0.000260426
-0.000260707
4.54082e-07
8.67105e-07
1.14633e-06
-5.28237e-07
1.13739e-07
7.25001e-07
-5.48588e-07
5.11023e-08
-1.25577e-06
-0.00113538
4.95684e-08
3.24758e-07
0.000253036
-0.00025326
3.27405e-08
8.97993e-07
7.86976e-07
-1.19279e-06
-1.36287e-06
5.878e-07
-0.00113714
-2.18859e-08
5.20434e-07
0.000260398
-0.000260673
8.88571e-07
7.85344e-07
-1.1953e-06
-1.36511e-06
5.87434e-07
-0.0011371
-3.68902e-07
2.21662e-07
-1.38162e-10
-9.41332e-09
-6.63582e-08
0.00023651
-0.000236656
1.11055e-07
-1.58337e-08
0.00019711
-0.000197212
1.46882e-09
-2.32724e-08
5.18866e-07
0.000260418
-0.000260693
4.37088e-07
8.72147e-07
1.10688e-06
-5.19194e-07
1.06458e-07
7.20312e-07
-5.4535e-07
4.88992e-08
-1.24917e-06
-0.00113637
4.6828e-08
3.2452e-07
0.000253
-0.00025322
7.93382e-10
9.03951e-07
7.84254e-07
-1.19257e-06
-1.36219e-06
5.82357e-07
-0.00113699
2.19272e-07
-6.82955e-08
-1.03462e-08
0.000236472
-0.000236613
1.09401e-07
-7.47325e-09
-4.29857e-09
0.000197053
-0.000197151
5.1669e-07
-2.41064e-08
0.000260391
-0.000260663
4.51868e-07
-1.55583e-06
8.70241e-07
7.19719e-07
-5.49067e-07
-1.25244e-06
4.90736e-08
1.14941e-06
-5.1329e-07
1.1641e-07
-0.00113539
9.04471e-07
7.8298e-07
-1.1934e-06
-1.36327e-06
5.81538e-07
-0.00113693
-5.05769e-08
4.73388e-08
3.2718e-07
0.000252933
-0.000253148
-1.54394e-06
8.71477e-07
-5.45606e-07
5.91587e-08
1.13453e-06
-5.20163e-07
8.6839e-08
-0.00113503
-1.25143e-06
-1.02256e-07
-4.91341e-08
3.1541e-07
0.000252979
-0.000253191
4.72732e-08
-6.74245e-09
0.000197056
-0.000197153
8.58967e-10
3.83766e-08
9.89816e-05
-9.90274e-05
1.51804e-06
0.000274297
-4.99941e-07
-5.04363e-07
-0.000276367
-1.43133e-08
1.48287e-07
0.000284428
-0.000284574
-4.01488e-08
4.969e-08
-1.13242e-08
1.50913e-07
0.000284548
-0.000284697
5.61851e-09
9.89963e-05
-9.90421e-05
3.72041e-09
-2.18539e-07
5.18987e-07
-2.52116e-08
0.000260409
-0.000260688
4.46397e-07
8.7912e-07
1.11205e-06
-5.10246e-07
1.14573e-07
7.16933e-07
-5.46248e-07
-1.24697e-06
4.92641e-08
-0.00113586
2.44099e-09
9.11353e-07
7.80522e-07
-1.19045e-06
-1.36028e-06
5.81949e-07
-0.00113675
-1.10109e-07
4.74098e-08
3.27103e-07
0.000253034
-0.000253248
-2.18267e-07
5.18192e-07
-2.04818e-08
0.00026038
-0.000260656
4.48658e-07
-1.5008e-06
8.76916e-07
7.21896e-07
-5.4488e-07
-1.2503e-06
5.97945e-08
1.09212e-06
-5.11267e-07
7.95063e-08
-0.00113603
9.10335e-07
7.79808e-07
-1.1869e-06
-1.35669e-06
5.80646e-07
-0.00113668
-1.02332e-07
-4.67475e-08
4.79072e-08
3.1474e-07
0.000252944
-0.000253158
-1.37843e-09
-8.79646e-09
-6.59906e-08
0.000236504
-0.000236647
-7.48587e-09
0.000197108
-0.000197205
-1.15064e-08
-6.5626e-08
0.000236464
-0.000236607
-6.04688e-09
-2.87028e-10
0.00019705
-0.000197146
0.000274306
-4.92253e-07
-5.02322e-07
-0.000276356
-3.51192e-08
4.0553e-09
1.28381e-07
0.000284526
-0.000284673
-3.56038e-08
4.7671e-09
1.27959e-07
0.000284442
-0.000284585
9.89895e-05
-9.90314e-05
9.89836e-05
-9.90253e-05
3.20759e-08
-1.79193e-08
3.24679e-08
-1.82723e-08
-0.0002181
-2.0352e-08
-2.07048e-08
3.68711e-08
3.88263e-08
4.21452e-08
8.16652e-05
3.33207e-09
-8.17106e-05
4.24376e-08
8.16466e-05
3.04601e-09
-8.16921e-05
7.92061e-08
7.71487e-08
-0.000218171
-3.13099e-09
-3.46829e-09
-0.000227879
-7.43786e-08
6.26237e-08
8.27937e-08
1.16733e-07
0.000186355
-0.00018646
-1.30841e-07
0.000259024
2.86396e-07
1.77495e-07
-0.000259196
2.65427e-08
9.09621e-08
1.45255e-09
1.96229e-07
-0.000228011
1.02927e-07
9.45111e-08
-0.000227805
-7.2828e-08
6.23428e-08
8.09634e-08
1.19014e-07
0.000186291
-0.000186399
-1.30798e-07
0.000258906
2.85328e-07
1.74853e-07
-0.000259072
2.66809e-08
8.82628e-08
7.87585e-10
1.98656e-07
-0.000227938
1.02428e-07
9.65474e-08
-0.000145161
2.04429e-09
2.24602e-08
-2.8238e-09
-1.14323e-09
0.000173229
-7.11258e-10
-0.000173296
-6.03056e-08
0.000229465
-1.33427e-08
1.97615e-07
-0.000229601
-2.65328e-08
-9.98283e-09
3.10739e-09
1.07522e-07
-3.28581e-09
-0.000145219
-1.69799e-09
-9.23872e-09
8.14181e-08
-8.00958e-05
2.17188e-09
-3.77499e-08
0.00026885
1.54983e-07
-0.000268995
-1.14523e-08
4.1586e-08
-8.01368e-05
5.26285e-08
-0.000145082
5.09092e-09
2.28357e-08
-5.77573e-09
-2.0307e-09
0.000173192
-0.00017326
-6.17428e-08
0.000229368
1.98727e-07
-0.000229502
-8.47566e-09
-2.64762e-08
-4.48256e-09
1.08076e-07
-0.000145142
-4.03977e-09
8.79304e-08
-6.68626e-09
-0.000145159
2.24808e-08
1.35848e-09
-2.40744e-09
-6.04606e-08
0.000229461
-1.16196e-08
1.97104e-07
-0.000229595
3.01034e-11
0.000173229
-2.12437e-09
-0.000173293
-6.88229e-09
-2.79613e-08
-1.02184e-09
1.06291e-07
-2.52094e-09
-0.000145217
-7.34453e-09
8.11543e-08
-2.18813e-09
-8.00959e-05
2.4588e-09
-3.84976e-08
0.000268847
1.52555e-07
-0.000268989
-1.25733e-08
4.20663e-08
-8.01369e-05
5.50163e-08
-0.000145083
6.15515e-09
1.92624e-08
-7.08247e-09
-4.41594e-09
0.000173191
-0.000173257
-6.16401e-08
0.000229362
-1.49869e-08
1.98248e-07
-0.000229494
-2.57381e-08
-9.5716e-09
1.09025e-07
-6.62388e-09
-0.000145142
-1.17107e-08
8.15057e-08
-8.00525e-05
-2.18907e-09
-3.39317e-08
0.00026872
1.56313e-07
-0.000268862
-5.1135e-10
6.16373e-09
3.60675e-08
-8.00931e-05
5.20916e-08
8.3916e-09
2.58958e-08
1.68246e-08
-0.000218069
-2.24362e-08
-2.44613e-08
5.53719e-08
5.57137e-08
3.26172e-08
8.16494e-05
1.31322e-08
-8.16952e-05
3.43234e-08
8.16665e-05
1.13716e-08
-8.17122e-05
8.75952e-08
8.4181e-08
-0.000218173
-4.5849e-09
-6.63547e-09
8.38934e-08
-0.000227814
-5.30149e-08
8.04968e-08
9.31874e-08
0.000186313
-0.000186407
0.00025887
-1.34167e-07
1.63145e-07
2.7589e-07
-0.000259027
7.49693e-08
1.14437e-08
1.38127e-08
9.4985e-08
9.99271e-08
1.81368e-07
-0.000227948
-0.000227897
-5.20851e-08
8.25865e-08
7.6556e-08
9.58231e-08
0.000186376
-0.000186472
-1.33521e-07
0.000259041
2.7843e-07
1.65489e-07
-0.000259201
1.41931e-08
7.33127e-08
-1.90569e-08
1.20377e-08
1.85885e-07
-0.000228036
9.75052e-08
9.12589e-08
-8.91415e-09
-0.000145157
2.00583e-08
1.65466e-10
-2.91635e-09
-6.23596e-08
0.000229461
-1.33005e-08
1.97882e-07
-0.000229592
6.24503e-10
0.000173224
-3.97924e-09
-0.000173287
-5.41744e-09
-2.72434e-08
-4.28159e-09
1.05145e-07
-3.64448e-09
-0.000145215
-7.97597e-09
8.12849e-08
-5.29747e-09
-8.00961e-05
-9.53443e-10
-3.89346e-08
0.000268853
1.56903e-07
-0.000268991
-5.37855e-09
3.71823e-08
-8.01386e-05
5.31302e-08
-0.000145079
1.92752e-08
1.03782e-08
-1.10243e-08
-5.83765e-08
0.000229357
-1.65084e-08
1.94637e-07
-0.000229489
-7.01697e-09
0.000173186
-0.000173248
-1.35651e-08
-2.67084e-08
1.04267e-07
-9.05599e-09
-0.000145135
-1.62388e-08
8.05332e-08
-8.0053e-05
-7.80031e-09
-3.00328e-08
0.000268722
1.49359e-07
-0.000268858
3.84838e-09
9.46273e-09
2.60882e-08
-8.00921e-05
4.52724e-08
-0.000218046
-3.31978e-08
-3.51293e-08
6.99778e-08
6.95268e-08
4.06177e-08
8.17353e-05
-1.66616e-08
-8.17593e-05
3.88943e-08
8.17207e-05
-1.67977e-08
-8.17428e-05
1.01017e-07
1.00699e-07
-0.000218168
-3.53186e-08
-3.53744e-08
-0.000227919
1.12979e-07
-3.38597e-08
9.1677e-08
7.36341e-08
0.000186424
-0.000186511
-1.62388e-07
0.000259072
1.87674e-07
2.70382e-07
-0.000259239
4.82206e-08
3.62095e-08
-1.52912e-08
5.39411e-09
1.89211e-07
-0.000228096
1.27818e-07
9.40341e-08
-0.000227847
1.12018e-07
-3.62173e-08
9.47727e-08
7.20018e-08
0.000186367
-0.000186451
-1.62065e-07
0.000258956
1.82427e-07
2.66605e-07
-0.000259115
4.86119e-08
3.70717e-08
-1.58808e-08
7.4632e-09
1.87418e-07
-0.000228024
1.32963e-07
9.65099e-08
4.65781e-07
4.5527e-07
-0.00114471
4.64054e-07
1.27694e-08
-0.00115094
4.7362e-07
-6.42204e-09
-0.00115138
3.98413e-09
-5.73701e-09
-0.00115956
4.56702e-07
-0.00115088
-4.33729e-07
-8.84717e-09
-0.00115953
-4.61661e-07
4.67386e-07
4.62484e-07
-0.00114431
4.73931e-07
-0.00115057
4.78025e-07
-5.25645e-10
-0.00115101
4.21117e-10
-0.00115896
4.59647e-07
-0.0011443
4.69916e-07
4.7878e-07
-0.00115096
-0.00115893
-4.69161e-07
-0.00025069
1.87838e-08
2.13086e-08
7.13123e-08
7.9077e-08
-3.53083e-07
0.000268641
-0.000269038
-3.5101e-07
0.000269075
-0.000269474
-0.000250999
-0.000273541
2.46736e-08
5.14652e-08
-9.47573e-08
5.12426e-07
0.000259205
-4.03933e-08
-0.000259503
-4.6946e-08
0.000273367
1.76432e-09
-0.000273992
-2.28242e-08
1.41902e-08
3.78261e-09
-9.36971e-08
-0.000274345
-3.25005e-08
7.47019e-09
-1.10502e-07
-0.000272913
4.17087e-08
4.52871e-07
0.000259603
-0.000259892
0.000269298
1.37322e-07
-0.000269482
1.63441e-08
2.08928e-08
-0.000273673
-0.000273474
1.97314e-08
3.89633e-08
-7.2891e-08
5.15802e-07
0.00025911
-0.000259412
-3.67458e-08
-4.4838e-08
0.000273353
-0.000273982
-1.7607e-08
1.8532e-08
-0.000274284
-8.43762e-08
-2.8065e-08
-0.000273532
2.79796e-08
4.48302e-08
-8.00241e-08
5.13901e-07
0.000259192
-3.98919e-08
-0.000259492
-4.96936e-08
0.000273361
7.85182e-09
-0.000273992
-1.96521e-08
1.57503e-08
-7.98962e-10
-1.06807e-07
-0.000274324
-3.10623e-08
-4.43282e-09
-1.09626e-07
-0.00027292
4.51256e-08
4.54529e-07
0.000259582
-0.000259877
0.000269283
1.37447e-07
-0.000269467
1.60654e-08
2.24681e-08
-0.000273684
-0.000273467
4.84527e-08
2.4181e-08
-9.03708e-08
-4.69741e-08
0.000273341
-0.000273963
5.13011e-07
0.000259108
-4.01135e-08
-0.000259407
1.92436e-08
-2.21742e-08
-8.93484e-08
-0.000274275
-3.32694e-08
-0.000272828
4.61287e-08
-1.0724e-07
4.58348e-07
0.00025948
-0.000259775
1.23547e-07
0.000269197
-0.000269379
2.94976e-08
1.00084e-08
-0.000273588
0.000269256
-0.000269424
1.2528e-07
-8.8147e-09
1.51447e-08
-0.000250694
1.69465e-08
8.13647e-08
8.60125e-08
0.000269018
-3.36527e-07
-0.000269419
-3.33578e-07
0.000268654
-0.000269057
-0.000250997
-0.000273524
4.62466e-08
2.72987e-08
-7.93038e-08
-4.89065e-08
0.000273344
2.99663e-09
-0.00027397
5.15168e-07
0.000259192
-4.35998e-08
-0.000259491
1.50265e-08
-2.14535e-08
5.11912e-10
-1.01291e-07
-0.000274317
3.01804e-09
-3.03557e-08
-0.000272917
-1.03781e-07
4.5939e-08
4.58521e-07
0.000259588
-0.000259886
1.26389e-07
0.000269308
-0.000269488
1.01963e-08
2.85522e-08
-0.00027368
-0.000273454
4.67398e-08
2.90656e-08
-7.77329e-08
-4.5549e-08
0.000273334
-0.000273955
5.108e-07
0.000259099
-3.85132e-08
-0.000259398
1.29472e-08
-2.06139e-08
-1.02864e-07
-0.000274243
-2.97971e-08
-0.000272833
5.53501e-08
-1.24101e-07
4.50491e-07
0.000259488
-0.00025978
1.30662e-07
0.000269235
-0.000269413
2.85609e-08
-9.07912e-09
-0.000273605
-0.000250798
5.55736e-08
5.77546e-08
6.68416e-08
7.70395e-08
-3.5186e-07
0.000268679
-0.000269069
-3.49767e-07
0.000269109
-0.000269506
-0.000251123
-1.53157e-06
5.04026e-07
-5.72302e-07
1.03534e-06
6.62891e-08
6.29309e-07
-6.76522e-07
-1.34401e-06
-2.67157e-08
1.03782e-06
0.00111282
-0.000272616
1.56367e-06
-5.7888e-07
-5.83537e-07
1.52568e-06
0.000270689
1.05428e-06
0.00111107
1.04428e-06
5.1595e-07
-1.56253e-06
5.00028e-08
-5.77692e-07
-1.34425e-06
-2.40576e-08
-6.80675e-07
6.30208e-07
1.0176e-06
1.04714e-06
5.37126e-07
-1.52626e-06
4.76933e-08
-5.75633e-07
-1.34869e-06
-2.20568e-08
-6.84409e-07
6.28883e-07
0.00111204
-0.00027051
-1.9648e-08
-1.42566e-08
-5.74364e-07
-5.79243e-07
0.000270714
1.56892e-06
5.0928e-07
-5.81622e-07
6.3531e-07
-6.78126e-07
-1.91982e-08
-1.33838e-06
1.04234e-06
0.00111194
1.06616e-06
6.43574e-08
5.2004e-07
5.63473e-07
0.00111348
9.71432e-08
0.000101962
-7.53327e-09
-1.03121e-07
-2.48314e-07
4.9045e-07
1.20189e-07
0.000261587
-0.00110838
1.72735e-08
6.77267e-07
-1.238e-06
-1.42632e-06
4.81333e-07
0.0011093
1.06459e-06
-0.000263426
-4.22403e-07
4.84215e-09
0.000263257
-5.75018e-08
6.43434e-07
-0.000296451
1.03871e-07
-9.88356e-08
2.86825e-07
-3.78208e-09
0.000296162
-0.000296362
-9.67607e-08
2.87814e-07
-4.73004e-09
1.0164e-07
0.000296074
5.83931e-10
1.06404e-06
-1.42807e-06
4.77928e-07
6.75843e-07
-1.23977e-06
-3.00851e-07
1.85326e-09
-0.000263229
-6.31541e-08
1.65401e-07
4.43161e-09
0.000246253
-0.000246361
-2.64221e-08
-1.71117e-07
0.00110835
1.06379e-06
-1.42198e-06
4.76201e-07
-1.23627e-06
6.73536e-07
-1.68872e-07
-6.95151e-08
0.000261773
1.31874e-07
-0.000261781
1.14013e-07
-2.99302e-07
0.000263396
-0.000263206
1.66455e-07
-5.53539e-08
2.68272e-08
0.000205271
-0.000205423
-4.45263e-08
0.000246212
-0.000246318
-1.71499e-07
-1.8242e-08
1.0596e-06
-1.42205e-06
4.77215e-07
-1.23656e-06
6.72123e-07
0.00110821
-1.68599e-07
-6.78094e-08
1.29543e-07
-0.000261743
1.07246e-07
0.000261742
-2.97219e-07
-0.000263197
1.65142e-07
-6.19783e-08
0.000263387
2.38448e-08
-0.000205413
-4.24078e-08
0.000205263
-0.000246314
-2.53659e-08
-1.69869e-07
0.00024621
-7.69622e-08
2.01534e-07
-0.000296667
2.24465e-08
-7.45755e-08
2.02234e-07
-0.000296581
2.30814e-08
0.00010205
-0.0001021
0.000102043
-0.000102093
2.86312e-07
-1.48888e-08
0.000296078
1.06022e-07
-9.28308e-08
2.841e-07
-1.60504e-08
0.000296214
-6.18065e-09
0.000101973
-4.46395e-08
0.000205114
2.47175e-09
0.00024606
-2.40199e-08
-2.07621e-07
6.78423e-07
-1.23749e-06
4.81217e-07
-1.42023e-06
0.0011093
1.06874e-06
-2.52751e-07
4.92235e-07
1.2337e-07
0.000261514
-4.21623e-07
0.000263232
6.42101e-07
-5.1487e-08
1.14086e-08
-5.1588e-08
0.000205059
0.000246022
-2.0729e-07
-2.13211e-08
0.000101962
-8.98193e-09
0.000101955
6.37063e-08
0.000101917
-1.91075e-08
-2.68668e-07
-0.000265693
4.13546e-07
2.77715e-07
0.000265557
1.87709e-07
-1.24631e-08
-0.000193292
0.000193113
-1.85982e-07
-0.000236953
3.37205e-07
0.00023672
-2.68627e-07
-0.000265571
4.12302e-07
0.00026544
2.74467e-07
1.88317e-07
-1.32198e-08
-0.000193231
0.000193051
-1.8657e-07
-0.000236884
3.36552e-07
0.000236654
5.39155e-08
-8.43728e-05
8.43064e-05
5.35276e-08
-8.43552e-05
8.42884e-05
-0.000227934
0.000227669
7.60992e-08
8.24245e-05
-1.52932e-08
-0.000281487
-3.39116e-08
2.89628e-08
0.000281242
2.10509e-07
3.0058e-08
3.3028e-07
-1.36284e-08
8.24042e-05
1.60721e-07
-1.19838e-08
0.000150424
-2.62752e-08
-2.15736e-07
3.46628e-09
4.31501e-07
-0.000239825
-1.14232e-07
0.000239673
2.69284e-07
-0.00018031
9.39499e-09
-2.73544e-09
0.000180132
4.03283e-07
-1.72719e-09
0.000150306
7.36217e-08
8.23813e-05
-1.0434e-08
-4.642e-08
1.23786e-08
2.48242e-07
-0.000281353
-3.64504e-08
2.5559e-08
0.000281124
1.94939e-07
2.74075e-08
3.21238e-07
-7.53325e-09
8.23524e-05
-6.99541e-09
1.59096e-07
0.000150351
-2.16205e-07
-1.9482e-08
4.30192e-07
-0.000180276
2.2099e-09
0.000180099
-0.000239715
-1.15307e-07
0.00023958
2.57958e-07
3.99171e-07
0.000150231
7.58346e-08
8.23816e-05
-1.54021e-08
-5.03848e-08
1.20325e-08
2.52282e-07
-0.000281339
-3.79636e-08
2.74876e-08
2.06625e-07
0.0002811
3.17938e-08
3.30186e-07
-1.14206e-08
8.2355e-05
1.56973e-07
-1.07448e-08
0.000150348
-2.57525e-08
-2.14648e-07
4.30875e-07
-0.000239715
-1.17045e-07
2.68738e-07
0.000239565
-0.000180272
8.25611e-09
0.000180095
3.98742e-07
0.000150228
0.00023709
2.77429e-07
-1.87148e-07
-1.9978e-07
3.37706e-07
-2.17967e-07
-0.0002657
2.20764e-07
2.0542e-07
2.95763e-07
1.55411e-09
-9.94761e-08
1.1546e-07
1.35597e-07
-0.000193413
7.28173e-09
-1.60695e-07
2.15827e-07
4.17397e-07
2.79165e-07
-4.87916e-09
0.000237024
2.76948e-07
-1.88084e-07
-1.99623e-07
3.36598e-07
-2.16612e-07
-0.000265582
2.23841e-07
2.06885e-07
2.95688e-07
2.55584e-09
-9.93338e-08
1.08823e-07
1.35983e-07
-0.000193351
7.51762e-09
-1.60031e-07
2.19253e-07
4.14167e-07
2.76072e-07
-4.74795e-09
0.000228171
-5.53624e-08
-5.57842e-08
4.16671e-08
-8.44072e-05
4.15893e-08
-8.43893e-05
-1.23232e-07
-0.000236675
1.93673e-07
-1.44127e-07
1.9142e-07
0.000236558
-2.51359e-07
0.000265431
4.05599e-07
2.61934e-07
0.000193049
1.84987e-07
-2.66237e-08
8.39353e-10
1.92223e-07
0.000295882
6.66182e-08
-1.20528e-08
0.000192938
-1.75489e-07
3.19385e-07
2.14266e-07
0.000265425
1.77175e-07
1.9357e-07
-0.000236753
-1.24145e-07
-1.46264e-07
1.87904e-07
0.000236642
0.000265604
-2.51921e-07
4.0873e-07
2.61712e-07
1.83168e-07
0.000193115
-2.72512e-08
1.94896e-07
7.6064e-10
-6.54181e-08
7.10472e-08
0.000296012
2.17256e-07
1.82435e-07
0.000265593
-1.7341e-07
3.2155e-07
-1.20739e-08
0.000193004
-2.86809e-08
-0.000227705
-2.84805e-08
0.000227472
8.42826e-05
4.25702e-08
4.21461e-08
8.42984e-05
8.42418e-05
8.42578e-05
-1.91073e-08
0.000101926
3.34436e-08
-8.23402e-05
-9.63763e-09
8.23164e-05
0.000280923
-7.59298e-08
2.87102e-08
3.21903e-07
-3.96469e-08
1.64327e-07
0.00020497
2.5531e-08
1.94757e-07
0.000280696
-1.19362e-08
1.08559e-07
-0.000150148
-5.95445e-09
0.000150036
-2.18123e-08
-1.61936e-07
-1.27143e-09
2.93125e-07
0.000245952
0.000239438
-1.55292e-07
3.94606e-07
9.44818e-09
0.000179916
-1.2204e-09
2.55658e-07
0.000239295
1.18529e-09
0.000179747
-8.22892e-05
3.68377e-08
-1.51489e-08
8.22675e-05
-7.47756e-08
0.000280807
2.79509e-08
3.12339e-07
-4.2459e-08
1.68019e-07
0.000204916
1.74743e-08
-1.15845e-08
2.73873e-08
2.03881e-07
0.00028057
-0.000150075
-1.04768e-08
1.08225e-07
0.000149962
-1.60398e-07
-2.58527e-08
2.92344e-07
0.000245915
7.07995e-09
0.000179884
-1.50961e-07
0.000239354
3.83358e-07
0.000179714
2.57657e-07
0.000239206
-4.64231e-07
-0.000268947
0.000268664
-4.63436e-07
-0.000269383
5.77744e-07
0.000269097
-0.000256216
0.000255962
0.000256046
4.59774e-07
4.60699e-07
-5.79823e-07
-5.85039e-07
-1.32991e-07
-0.000268563
-1.32694e-07
-0.000268993
1.02391e-07
-0.000255978
1.02864e-07
0.000256152
-4.48095e-07
0.000269078
5.75277e-07
0.000268713
-4.47176e-07
-5.04351e-09
-4.67961e-09
-1.06974e-06
0.000272829
0.000269094
-7.4226e-08
0.000269464
5.4894e-07
1.87375e-08
0.00111845
6.05868e-09
0.00112526
5.64828e-07
0.00111775
5.11316e-07
0.00111819
0.0011248
-0.000272409
-1.58428e-07
-9.07907e-08
1.0693e-07
0.000273181
1.83316e-07
0.000271519
6.12917e-07
0.000266602
1.02317e-07
-0.000266875
1.3253e-07
1.05984e-07
0.000261584
1.28178e-07
-0.000273085
0.000271649
1.00357e-07
0.000266711
-0.000271077
-1.21885e-07
5.6357e-08
0.000271927
-5.75028e-08
1.59958e-07
4.51936e-10
0.000263447
6.55151e-07
0.000263803
-0.000264018
-6.01747e-08
0.000269987
-0.000270528
7.00152e-09
-0.00027178
0.000263979
-2.77163e-09
0.000270687
0.000272304
-6.18648e-07
1.30875e-07
9.53129e-08
-0.000266761
1.03525e-07
1.09535e-07
1.03166e-07
0.000270927
-6.62436e-07
6.38189e-08
-5.87446e-08
6.483e-07
1.31782e-09
1.287e-07
-0.000263837
-6.09978e-08
-0.000269818
-5.59247e-09
3.96793e-09
-6.18671e-07
-1.87935e-07
0.000272216
1.1914e-07
-0.000271403
1.74569e-07
0.000271542
1.27919e-07
4.92155e-07
-0.000266661
8.83224e-08
1.03715e-07
0.000266778
1.03542e-07
1.22419e-07
0.000272987
5.96365e-08
-6.59011e-07
0.000270868
6.44931e-07
-5.62007e-08
-0.000269804
-6.06152e-08
0.000270502
-0.000263756
1.25141e-07
0.000263937
0.000271728
-6.21997e-07
-1.87414e-07
0.00027222
1.38317e-07
-0.000271389
1.72718e-07
0.000271531
1.23589e-07
4.96512e-07
-0.000266646
9.21214e-08
1.01364e-07
0.000266766
1.09953e-07
1.06561e-07
0.000273007
6.54177e-08
-6.58372e-07
0.000270863
6.46712e-07
-5.9926e-08
-0.000269803
-5.98071e-08
0.000270505
-0.000263747
1.28541e-07
0.000263926
0.000271711
-1.64611e-07
-0.000272325
-8.62905e-08
1.17229e-07
0.000273094
0.000271443
1.90767e-07
6.07641e-07
0.000266504
1.01378e-07
1.27927e-07
9.82057e-08
-5.80752e-08
0.000261514
-1.87036e-07
0.000271574
1.21959e-07
9.90133e-08
0.000266621
6.02557e-08
-0.000271019
-1.19625e-07
0.000271874
1.59652e-07
-5.78582e-08
0.000263423
0.000269972
-5.92081e-08
6.48328e-07
0.000263722
0.000270671
0.000263901
-0.00111571
4.82991e-07
0.00111651
-1.52819e-06
6.49757e-07
-6.72819e-07
-2.49497e-09
-1.34434e-06
-5.553e-07
1.05953e-06
9.4888e-08
1.01771e-06
-0.00029451
1.01559e-07
-9.03138e-08
-2.27934e-08
2.77059e-07
0.000294245
8.93086e-08
-0.000293616
-8.22607e-08
2.5441e-07
0.000293355
-5.79594e-10
-0.00111213
-2.49158e-09
0.00111305
-4.89374e-07
1.03496e-06
6.92119e-07
-1.23611e-06
4.96973e-07
-1.41968e-06
-0.000244999
4.47561e-09
3.98305e-07
-1.747e-07
-2.7146e-08
0.000244799
-0.00111731
-1.53787e-06
5.00993e-07
1.05115e-06
-5.76229e-07
7.81345e-08
6.61868e-07
-6.72143e-07
-1.3388e-06
2.51617e-09
0.00111814
1.00677e-06
-0.00111397
-6.69418e-09
-4.89716e-07
7.04206e-07
-1.23187e-06
-1.41791e-06
5.05263e-07
0.00111489
1.02365e-06
6.28391e-09
-0.000203266
2.20837e-07
0.000203081
-4.20946e-08
-1.01356e-06
-9.8734e-07
3.93381e-07
-0.00111673
5.25374e-07
0.00111781
-1.53478e-06
1.02509e-06
4.84175e-07
0.00111271
-5.78609e-07
1.02642e-06
6.68932e-08
6.28133e-07
-6.75675e-07
-1.34252e-06
-2.06851e-08
-1.00825e-06
-1.00387e-06
0.00111977
5.20823e-07
5.19692e-07
-0.0011188
-0.00111528
-1.52868e-06
1.01384e-06
4.9673e-07
0.00111611
-5.68694e-07
1.04578e-06
7.53465e-08
6.51369e-07
-6.68799e-07
-1.34004e-06
-8.11269e-09
-0.000273289
1.52658e-06
1.56324e-06
0.000271335
-5.66879e-07
-5.69497e-07
-1.08833e-06
-1.04873e-06
0.000273334
-0.000271218
8.42278e-09
1.29024e-08
1.0172e-06
5.15024e-07
0.00111237
6.39877e-07
-6.74354e-07
-1.34552e-06
-2.27453e-08
0.00111479
1.00619e-06
-0.00111396
4.95854e-07
-1.56758e-06
9.01044e-08
-5.66723e-07
-1.34375e-06
-1.22796e-08
-6.71403e-07
6.53347e-07
-5.92672e-08
0.000260723
-1.48837e-07
1.1404e-07
-0.000260728
9.8712e-08
-6.21357e-08
8.89404e-09
1.84474e-07
-0.000294701
-1.55827e-06
1.05169e-06
5.43541e-07
0.00111227
-5.76052e-07
1.07175e-06
7.47885e-08
6.31551e-07
-6.78412e-07
-1.34363e-06
-2.36718e-08
0.00111576
1.01263e-06
-0.00111494
4.92847e-07
-1.52541e-06
8.78511e-08
-5.61399e-07
-1.34163e-06
-1.19358e-08
-6.71678e-07
6.49699e-07
1.07718e-06
0.00111482
1.01912e-06
-0.00111397
5.06423e-07
-1.56731e-06
7.51508e-08
-5.73195e-07
-1.34574e-06
-1.41858e-08
-6.72514e-07
6.45125e-07
1.04571e-06
4.78746e-07
-0.00111478
7.4613e-08
-1.53847e-06
-5.91421e-07
-1.35256e-06
-1.80398e-08
6.45698e-07
-6.92971e-07
1.04013e-06
-2.08067e-08
-4.97813e-07
-0.00111118
-1.42069e-06
4.93695e-07
6.90857e-07
-1.23469e-06
1.47379e-09
2.69175e-07
-1.36933e-07
-2.55233e-08
-0.000245108
-5.79393e-07
-5.73645e-07
0.000270705
-1.0402e-06
0.000273311
-0.000271194
-2.38042e-09
2.42416e-09
1.02512e-06
5.18191e-07
0.00111291
1.02454e-06
5.98953e-08
6.36551e-07
-6.75078e-07
-2.06285e-08
-1.33817e-06
1.01705e-06
-0.00111442
5.04403e-07
-1.5302e-06
7.30277e-08
-5.70468e-07
-1.34394e-06
-1.47178e-08
6.39577e-07
-6.72861e-07
1.02739e-06
0.00111541
-0.00111458
5.00016e-07
-1.51524e-06
5.86345e-08
-5.52048e-07
1.01139e-06
-1.3277e-06
-3.83152e-08
-6.36759e-07
6.40924e-07
-1.08611e-06
-3.47753e-08
-0.000271181
3.99781e-08
-1.70997e-08
5.65772e-08
0.000101537
-0.000101576
1.56909e-06
1.5264e-06
-5.62653e-07
-5.68831e-07
0.00027137
1.00071e-06
4.99313e-07
0.00111563
-5.65225e-07
1.08608e-06
8.30032e-08
6.50215e-07
-6.67564e-07
-1.34403e-06
-1.5447e-08
-2.31921e-07
4.82402e-07
0.000260461
1.1279e-07
-0.000260184
-2.15122e-07
4.61161e-07
0.000259924
1.0353e-07
1.01024e-06
4.97942e-07
0.00111659
-5.62017e-07
1.04611e-06
8.05681e-08
6.49289e-07
-6.69479e-07
-1.34122e-06
-1.20815e-08
-1.56435e-06
1.00988e-06
4.94304e-07
0.00111565
-5.69993e-07
1.07949e-06
7.69124e-08
6.56291e-07
-6.67704e-07
-1.3396e-06
-7.24825e-09
-5.67684e-07
-5.73617e-07
0.000271359
0.0011163
5.07017e-07
1.03398e-06
-5.71367e-07
6.99248e-08
1.00912e-06
6.41115e-07
-6.84176e-07
-1.94544e-08
-1.34854e-06
0.000101306
-2.28602e-08
6.23585e-08
-0.000101346
1.56503e-06
-0.000273611
-5.5733e-07
0.000271654
-5.69583e-07
1.51884e-06
8.24661e-08
0.00010123
-0.000101547
-9.31153e-09
0.000101466
5.4684e-08
0.000101313
-1.818e-08
-0.00010135
0.00111304
-0.00111213
6.95379e-07
-1.23579e-06
4.9694e-07
-1.42387e-06
1.03488e-06
-3.97836e-07
-2.19486e-09
-0.000263486
6.35026e-07
-5.49811e-08
0.000263306
-9.81149e-08
-2.30677e-07
-0.000260743
4.80801e-07
1.14189e-07
0.000260477
4.97325e-07
1.0415e-06
-1.33116e-06
-2.98917e-08
-6.33606e-07
6.49552e-07
-1.5218e-06
6.29216e-08
-5.45855e-07
8.1995e-09
0.00111395
-1.4205e-06
5.02629e-07
-1.23445e-06
7.01246e-07
1.02949e-06
-2.60761e-07
2.43771e-09
0.000263479
-0.000263297
1.3286e-07
-5.61595e-08
-5.41465e-08
-1.33678e-07
0.000260212
-0.000260229
1.16549e-07
8.79407e-08
-0.000273328
1.56557e-06
-5.58581e-07
-5.69376e-07
0.000271363
-8.86902e-08
-0.000294467
-1.90048e-08
2.7628e-07
0.000294201
4.95419e-08
-0.000293769
1.39363e-07
1.93245e-08
0.000273632
-1.09184e-06
-0.000271514
-2.70741e-08
4.17872e-08
-5.20418e-08
0.000293594
-0.000293807
1.99809e-07
1.10749e-08
-1.07757e-08
-0.000101544
0.000101466
0.000101311
-1.46636e-08
-0.000101348
-9.35676e-09
0.000101241
1.56924e-06
-5.73457e-07
0.000271667
-5.68072e-07
-8.19508e-08
9.71951e-08
2.62373e-07
-4.27824e-09
0.000293321
-9.28204e-09
0.000101238
-0.000245036
-2.18663e-08
-1.73047e-07
0.000244838
-0.000203948
-4.68252e-08
0.000203753
4.3509e-09
0.000244414
-0.000244528
-2.44477e-08
-1.26924e-07
0.000203315
-0.000203437
-2.67623e-08
-0.000263455
6.33428e-07
-5.39733e-08
0.000263272
-4.96328e-07
-1.41826e-06
5.04093e-07
-1.23345e-06
7.05373e-07
1.02678e-06
0.00111534
-0.00111453
1.08318e-06
-5.62697e-07
8.22677e-08
6.45866e-07
-6.56229e-07
-9.15136e-09
-1.33345e-06
1.01833e-06
0.00111615
1.08438e-06
-1.33114e-06
-4.58227e-09
6.61694e-07
-6.58082e-07
1.00607e-06
-1.56499e-06
7.7695e-08
-5.757e-07
-1.4098e-07
0.000260171
-4.51068e-08
1.05098e-07
-0.000260181
9.08781e-08
-2.21744e-07
-9.57756e-08
-0.000260709
1.06996e-07
4.66431e-07
0.000260453
-2.56396e-07
0.000263449
-0.000263272
1.33271e-07
-5.22218e-08
-0.000203393
-3.71715e-08
-0.000203903
8.61919e-09
-4.07352e-08
0.000203714
0.00024438
-0.000244488
-1.92536e-08
-1.24705e-07
7.06918e-07
-1.2293e-06
-1.41669e-06
5.06553e-07
0.00111486
1.02391e-06
-3.82183e-07
3.75891e-09
6.23939e-07
-5.14541e-08
0.000263285
-2.1053e-07
4.62896e-07
1.10268e-07
0.000259947
-5.47693e-10
-2.1595e-08
-1.62729e-07
0.000244217
-3.66741e-08
0.000203132
-5.71094e-07
1.08907e-06
9.43642e-08
6.57285e-07
-6.58623e-07
-1.33266e-06
-6.38156e-09
0.00111695
9.99871e-07
-8.38659e-08
4.6692e-07
0.000259907
1.01717e-07
-3.79215e-07
6.20159e-07
-5.0559e-08
0.000263263
-2.38612e-08
-1.60342e-07
0.000244184
-9.0053e-10
2.80215e-07
0.000245657
-0.000245761
-1.49028e-07
-2.57488e-08
1.21269e-09
4.2555e-07
0.00024606
-2.08031e-07
-2.23553e-08
2.09454e-08
1.579e-07
0.000204644
-4.0346e-08
-0.000204782
-1.92255e-08
6.2564e-08
0.000101789
-0.000101832
2.83302e-07
4.32901e-09
0.000245647
-0.000245754
-2.87022e-08
-1.52153e-07
2.09515e-08
1.57262e-07
0.00020462
-4.06615e-08
-0.000204757
0.001122
-1.32495e-07
-4.90765e-07
-0.00112087
5.32422e-07
5.33702e-07
5.1413e-07
0.00111479
5.38065e-07
4.31346e-07
0.00111472
5.41737e-07
5.27236e-07
0.00111444
5.15267e-07
5.49722e-07
0.00111448
0.00111779
-0.00111681
5.20543e-07
5.15513e-07
0.00111743
-0.00111644
5.21349e-07
5.25529e-07
-2.84086e-07
-5.74581e-09
0.000263472
-0.000263283
-5.73767e-08
1.58648e-07
5.1774e-07
1.02808e-06
0.00111371
1.04234e-06
-1.34817e-06
-2.88485e-08
-6.81785e-07
6.29405e-07
-1.53721e-06
5.35196e-08
-5.70324e-07
-6.6321e-08
-1.57244e-07
0.000261313
1.06494e-07
-0.000261325
1.29328e-07
-1.73129e-08
0.00111028
1.06034e-06
-1.42899e-06
4.85019e-07
-1.24399e-06
6.81687e-07
-7.96342e-09
9.62646e-08
0.000101955
-2.11025e-08
6.766e-08
0.000101777
-0.000101824
-2.51163e-09
-2.83343e-07
0.000263467
-0.000263277
1.50739e-07
-5.51375e-08
0.00110921
-1.52719e-08
1.05828e-06
6.74833e-07
-1.23929e-06
-1.42488e-06
4.804e-07
-1.00683e-07
-2.49355e-07
4.92794e-07
1.1385e-07
0.000261585
5.03393e-07
1.03351e-06
0.00111357
1.02884e-06
-1.34131e-06
-1.84496e-08
-6.77437e-07
6.39927e-07
-1.52775e-06
6.84238e-08
-5.65252e-07
6.39519e-11
-4.25472e-07
0.000263255
6.45174e-07
-5.68585e-08
-1.07201e-08
0.00111017
1.04522e-06
-1.42397e-06
4.87428e-07
-1.23761e-06
6.84485e-07
-6.6494e-08
-1.59352e-07
0.000261313
1.07563e-07
-0.000261319
1.24645e-07
-1.06924e-06
-1.02456e-06
0.000272961
-0.000270855
-1.21345e-08
-2.79625e-10
6.46013e-08
-6.65954e-08
0.000295468
1.65997e-08
-0.000295683
2.00692e-07
6.52854e-08
-6.80074e-08
0.000295382
1.30522e-08
-0.000295589
1.97028e-07
3.0963e-09
2.62337e-07
-0.00024454
-1.22897e-07
-2.50482e-08
0.000244422
-0.000203973
8.58432e-09
2.30353e-07
-4.67458e-08
0.000203781
-0.000245043
-3.21604e-09
3.92272e-07
0.000244852
-1.75385e-07
-2.23545e-08
2.14894e-08
1.34485e-07
-3.18735e-08
-0.000203466
0.000203342
2.58338e-07
5.16789e-10
0.000244416
-0.000244526
-2.43041e-08
-1.24092e-07
-0.000203947
7.19751e-09
2.27229e-07
-4.25763e-08
0.000203755
-0.000245033
3.95907e-07
-1.66433e-09
0.000244836
-2.1446e-08
-1.75759e-07
2.29491e-08
1.37076e-07
-3.47476e-08
-0.000203437
0.000203312
0.00112304
-5.11465e-07
5.30421e-07
-2.51689e-08
5.19818e-07
5.16411e-07
0.00111876
5.11283e-07
5.21077e-07
0.00111842
-0.000101532
-8.98075e-09
8.86683e-08
0.000101452
-2.20238e-08
5.82102e-08
0.000101298
-0.000101334
-5.67225e-09
-2.56998e-07
-0.000263296
1.32237e-07
-5.28352e-08
0.00026348
0.00111299
-0.00111206
2.84506e-10
1.02974e-06
6.9331e-07
-1.23544e-06
-1.41964e-06
4.98643e-07
-0.000260784
-9.66642e-08
-2.24585e-07
4.73679e-07
1.11097e-07
0.00026052
4.92362e-07
1.049e-06
0.00111693
1.00492e-06
-1.33358e-06
-9.14918e-09
-6.63194e-07
6.51587e-07
-1.52744e-06
8.49789e-08
-5.64267e-07
-0.000263487
5.52639e-09
-3.98196e-07
0.000263301
6.35773e-07
-5.73687e-08
-7.721e-09
1.02779e-06
-1.41349e-06
5.01733e-07
-1.23341e-06
6.96622e-07
0.00111391
-5.17539e-08