/*--------------------------------*- C++ -*----------------------------------*\
| =========                 |                                                 |
| \\      /  F ield         | OpenFOAM: The Open Source CFD Toolbox           |
|  \\    /   O peration     | Version:  v2006                                 |
|   \\  /    A nd           | Website:  www.openfoam.com                      |
|    \\/     M anipulation  |                                                 |
\*---------------------------------------------------------------------------*/
FoamFile
{
    version     2.0;
    format      ascii;
    class       volVectorField;
    location    "875";
    object      U;
}
// * * * * * * * * * * * * * * * * * * * * * * * * * * * * * * * * * * * * * //

dimensions      [0 1 -1 0 0 0 0];


internalField   nonuniform List<vector> 
14298
(
(-2.24024e-06 8.11947e-06 0.0722618)
(8.33502e-06 -2.43814e-06 0.0722611)
(0.00016646 0.000166418 0.106599)
(1.17006e-05 3.55353e-05 0.089533)
(3.54873e-05 1.14808e-05 0.0895298)
(3.22311e-06 4.72973e-05 0.094245)
(-4.1923e-06 2.07823e-05 0.0837157)
(-6.83355e-07 4.7306e-05 0.0942451)
(5.91679e-06 0.000109449 0.102587)
(6.36467e-05 9.93033e-05 0.107881)
(1.82936e-05 6.18847e-05 0.0958775)
(2.1678e-05 0.000101802 0.10849)
(-4.57451e-06 0.000109642 0.102586)
(-1.61033e-05 0.000100906 0.108489)
(4.68908e-05 2.08289e-06 0.0942447)
(2.10971e-05 -4.45171e-06 0.0837161)
(0.000108994 5.24243e-06 0.102586)
(9.92624e-05 6.27564e-05 0.107881)
(6.19835e-05 1.81803e-05 0.0958764)
(0.000102187 1.94058e-05 0.108489)
(4.68176e-05 -2.3433e-06 0.0942439)
(1.96596e-05 -2.18575e-07 0.0837118)
(0.000109166 -5.56037e-06 0.102586)
(0.000101518 -6.53838e-05 0.107878)
(0.000102789 -2.0042e-05 0.108487)
(6.24961e-05 -1.9508e-05 0.0958747)
(-0.000101012 -6.65526e-05 0.107876)
(-5.56815e-05 -1.95085e-05 0.0958784)
(-1.97616e-05 -1.50091e-06 0.0837102)
(5.83416e-06 -4.45385e-06 0.0722591)
(0.000161807 -0.000161732 0.106601)
(2.80963e-05 -1.56408e-05 0.0895378)
(1.50398e-05 -2.83442e-05 0.0895397)
(3.62953e-06 -6.36982e-06 0.0722594)
(6.34861e-06 -0.000109024 0.102584)
(6.50235e-05 -0.00010152 0.107878)
(1.93477e-05 -0.000102787 0.108485)
(1.94187e-05 -6.25138e-05 0.0958757)
(-4.14295e-06 -0.000108702 0.102583)
(-6.57487e-05 -0.000101075 0.107876)
(-1.9364e-05 -0.000102572 0.108484)
(-1.97681e-05 -5.56212e-05 0.0958781)
(1.74763e-06 -4.63734e-05 0.0942419)
(-6.0029e-07 -2.01132e-05 0.0837116)
(-2.9173e-06 -4.64119e-05 0.0942413)
(-1.19181e-06 -1.986e-05 0.0837107)
(-0.000158228 -0.000158048 0.106607)
(-1.95852e-05 -1.54947e-05 0.0895435)
(-1.52267e-05 -1.96133e-05 0.089542)
(-7.85887e-06 -2.5584e-06 0.0722596)
(-2.21205e-06 -7.97756e-06 0.0722597)
(-7.64495e-06 -5.04365e-07 0.0722988)
(-3.84969e-07 -7.79183e-06 0.072298)
(1.27403e-05 1.25691e-05 0.0853419)
(2.57551e-06 1.02068e-05 0.0692729)
(1.03181e-05 2.45135e-06 0.0692661)
(2.34529e-05 2.33702e-05 0.0853125)
(-2.76995e-07 3.89753e-06 0.069298)
(3.99652e-06 -3.93494e-07 0.0692916)
(1.58133e-05 2.81988e-05 0.0941706)
(-6.91289e-07 3.60901e-05 0.0830367)
(6.22045e-05 8.12459e-05 0.0994644)
(-2.65062e-06 2.73774e-05 0.0895588)
(3.24635e-05 5.48719e-05 0.0941363)
(-3.06219e-06 2.91901e-05 0.0830549)
(3.52809e-05 4.32851e-05 0.099507)
(2.83355e-05 1.57541e-05 0.0941626)
(3.62457e-05 -8.31246e-07 0.0830298)
(8.09196e-05 6.21718e-05 0.0994596)
(2.73761e-05 -2.89873e-06 0.0895567)
(5.47894e-05 3.24825e-05 0.0941272)
(2.94848e-05 -3.22019e-06 0.0830495)
(4.30506e-05 3.51252e-05 0.0995032)
(1.26444e-06 2.53767e-07 0.0778585)
(5.90039e-07 6.49136e-06 0.079637)
(5.34377e-06 3.93651e-05 0.0923464)
(3.00601e-06 2.55982e-05 0.0942634)
(4.92441e-08 9.67114e-06 0.0778282)
(5.38668e-07 -2.54536e-06 0.0796634)
(4.6669e-06 1.81834e-05 0.0923741)
(2.02684e-06 -1.54672e-06 0.0691567)
(4.23322e-06 2.39171e-05 0.0876466)
(-7.22547e-06 1.77539e-06 0.0837472)
(6.59958e-07 6.61591e-06 0.0691081)
(2.51355e-06 6.85885e-06 0.0876821)
(-2.46525e-06 1.00848e-07 0.0778542)
(-1.23274e-06 6.62252e-06 0.079636)
(-2.80233e-06 3.99315e-05 0.0923466)
(-6.50646e-07 2.56484e-05 0.0942634)
(-1.2673e-07 1.00778e-05 0.0778248)
(-1.99362e-06 -2.60944e-06 0.0796621)
(-2.61988e-06 1.86276e-05 0.092373)
(2.15096e-07 1.01063e-06 0.077859)
(3.93059e-05 4.5878e-06 0.0923464)
(6.41444e-06 4.30721e-08 0.0796381)
(2.52176e-05 1.69134e-06 0.0942637)
(9.78272e-06 -4.29828e-07 0.0778289)
(1.82236e-05 3.68767e-06 0.0923744)
(-2.72268e-06 3.09385e-07 0.079664)
(-1.58583e-06 1.9043e-06 0.069157)
(2.40693e-05 3.66177e-06 0.0876473)
(2.02632e-06 -7.38773e-06 0.0837474)
(6.70124e-06 2.769e-07 0.0691088)
(6.9957e-06 1.97248e-06 0.0876821)
(-1.60788e-07 -3.45016e-06 0.0778595)
(6.28375e-06 -1.83445e-06 0.0796362)
(3.91708e-05 -5.19135e-06 0.0923444)
(2.52318e-05 -2.42051e-06 0.0942636)
(9.30609e-06 -1.66422e-06 0.0778254)
(-2.76167e-06 -2.13614e-06 0.0796647)
(1.79056e-05 -4.96314e-06 0.0923745)
(-2.2244e-06 -4.50524e-06 0.0691609)
(2.32108e-05 -5.5542e-06 0.0876463)
(-2.76205e-08 2.89913e-06 0.0837469)
(5.97898e-06 -2.89022e-06 0.0691114)
(6.03829e-06 -4.13968e-06 0.0876838)
(-4.39146e-07 1.90403e-06 0.0837447)
(-2.10377e-06 2.38583e-06 0.0723004)
(1.38069e-05 -1.45956e-05 0.0853244)
(7.32383e-06 -5.38035e-06 0.0692687)
(4.65345e-06 -7.95628e-06 0.0692752)
(2.08666e-05 -2.14588e-05 0.0853089)
(4.85392e-06 1.58729e-06 0.0692934)
(-2.39622e-06 -5.54168e-06 0.0693002)
(2.28973e-05 -2.83025e-05 0.0941663)
(2.31161e-05 -4.83673e-06 0.0830373)
(7.86693e-05 -5.70379e-05 0.0994605)
(1.94388e-05 -3.90429e-06 0.0895669)
(3.9439e-05 -3.72397e-05 0.0995082)
(4.90615e-05 -3.95471e-05 0.0941383)
(1.66025e-05 2.70445e-06 0.08306)
(2.77303e-05 -2.32998e-05 0.0941758)
(4.05037e-06 -2.35779e-05 0.0830427)
(5.68761e-05 -7.86384e-05 0.0994638)
(3.0185e-06 -1.99795e-05 0.0895691)
(3.92055e-05 -4.92282e-05 0.0941462)
(-3.58788e-06 -1.73003e-05 0.083067)
(3.68106e-05 -3.95454e-05 0.0995132)
(-3.56701e-06 1.58024e-06 0.0722998)
(9.32441e-07 -2.05034e-07 0.0778602)
(4.71321e-06 -3.90839e-05 0.0923427)
(-5.90054e-07 -6.53238e-06 0.0796356)
(5.90875e-07 -2.46536e-05 0.0942611)
(-3.90229e-07 -9.71632e-06 0.0778253)
(3.44382e-06 -1.79705e-05 0.0923734)
(-7.91633e-07 2.76555e-06 0.0796624)
(2.60694e-06 1.54717e-06 0.0691607)
(4.58286e-06 -2.35217e-05 0.0876431)
(-4.07824e-06 -5.68555e-07 0.0837469)
(1.19166e-06 -6.45196e-06 0.0691059)
(2.66658e-06 -6.58804e-06 0.0876831)
(-5.47416e-06 1.12798e-06 0.0778551)
(-5.46311e-06 -3.90812e-05 0.0923422)
(-2.90064e-06 -6.24026e-06 0.0796349)
(-3.99495e-06 -2.45943e-05 0.09426)
(-2.88358e-06 -8.71095e-06 0.0778241)
(-6.33712e-06 -1.75675e-05 0.0923698)
(-3.79859e-06 3.09604e-06 0.0796613)
(-7.09743e-06 3.40817e-06 0.0691617)
(-6.95313e-06 -2.29184e-05 0.0876455)
(2.35782e-06 -4.58597e-07 0.0837454)
(-4.66525e-06 -4.99591e-06 0.069112)
(-6.73659e-06 -5.49656e-06 0.0876823)
(-2.40533e-05 -2.41583e-05 0.0853135)
(-6.93999e-06 5.14615e-06 0.069324)
(5.09303e-06 -6.99555e-06 0.0693187)
(-2.82285e-05 -2.83612e-05 0.085301)
(-6.0334e-06 1.15805e-05 0.0693709)
(1.15286e-05 -5.95339e-06 0.069364)
(-2.17946e-05 -3.14487e-05 0.0941795)
(-1.14228e-05 8.73696e-06 0.0830645)
(-7.09544e-05 -6.94503e-05 0.0994968)
(-1.08219e-05 4.35492e-07 0.0895741)
(-4.31782e-05 -4.48183e-05 0.094168)
(-3.1114e-05 -5.33514e-05 0.0995388)
(-7.75017e-06 1.71912e-05 0.0830946)
(-3.10514e-05 -2.19347e-05 0.0941706)
(8.89182e-06 -1.16458e-05 0.0830597)
(-6.94037e-05 -7.06483e-05 0.099494)
(7.11085e-07 -1.12501e-05 0.0895714)
(-4.46833e-05 -4.33045e-05 0.0941602)
(-5.31525e-05 -3.10144e-05 0.0995349)
(1.73523e-05 -7.92521e-06 0.0830884)
(-2.91661e-07 4.9949e-06 0.072303)
(5.43569e-06 -2.50627e-07 0.0723029)
(6.33868e-05 6.26156e-05 0.108779)
(2.24165e-05 6.43315e-05 0.108991)
(6.50556e-05 2.10909e-05 0.108991)
(2.2336e-05 2.12754e-05 0.109109)
(-1.99882e-05 6.34333e-05 0.108991)
(-2.14069e-05 2.08731e-05 0.109109)
(6.27124e-05 -6.31591e-05 0.108776)
(6.54145e-05 -2.26662e-05 0.10899)
(2.21012e-05 -6.56094e-05 0.108989)
(2.21875e-05 -2.26964e-05 0.109108)
(-6.22801e-05 -6.3046e-05 0.108774)
(-2.20234e-05 -6.55945e-05 0.108988)
(-2.18257e-05 -2.28827e-05 0.109108)
(4.10732e-05 4.10205e-05 0.100762)
(8.67536e-07 7.3227e-07 0.106763)
(0.000159916 0.000104058 0.104489)
(0.000103873 0.000159777 0.104487)
(8.32221e-05 8.32433e-05 0.100685)
(-3.82792e-06 6.12253e-05 0.104606)
(6.10702e-05 -4.00424e-06 0.104604)
(2.74049e-05 7.89108e-06 0.106062)
(1.26045e-05 9.83503e-05 0.101337)
(1.07166e-05 0.000213316 0.10643)
(6.20109e-06 6.68663e-05 0.102664)
(2.62209e-05 0.00020763 0.10589)
(1.16074e-05 5.63892e-05 0.101426)
(1.27393e-05 1.6861e-05 0.106569)
(4.27602e-05 -4.794e-06 0.104898)
(1.85423e-05 7.99908e-05 0.0989819)
(5.63012e-05 0.000174616 0.102924)
(4.23407e-06 3.30436e-05 0.0959439)
(4.45207e-05 -5.56872e-06 0.103029)
(4.48621e-05 0.00019866 0.104719)
(1.36203e-05 4.19031e-05 0.0990756)
(-2.26546e-05 9.10069e-06 0.10606)
(-1.18246e-05 0.000100476 0.101335)
(-9.31831e-06 0.000213522 0.10643)
(-3.66868e-06 6.72152e-05 0.102663)
(-2.39757e-05 0.000207955 0.10589)
(-9.98901e-06 5.89808e-05 0.101423)
(-8.97877e-06 1.73737e-05 0.106569)
(7.52637e-06 2.66466e-05 0.106061)
(9.7948e-05 1.22988e-05 0.101335)
(0.000212992 1.03154e-05 0.106429)
(6.62761e-05 5.04671e-06 0.102663)
(0.000207183 2.60526e-05 0.105888)
(5.60728e-05 1.09094e-05 0.101425)
(1.64831e-05 1.15219e-05 0.106568)
(-5.28528e-06 4.24024e-05 0.104897)
(7.97895e-05 1.84568e-05 0.098981)
(0.000174311 5.63128e-05 0.102922)
(3.31382e-05 3.932e-06 0.0959429)
(-5.84501e-06 4.42474e-05 0.103027)
(0.000198095 4.49113e-05 0.104717)
(4.17089e-05 1.32171e-05 0.0990745)
(7.92349e-06 -2.61423e-05 0.106059)
(0.000213174 -1.0214e-05 0.106429)
(9.89995e-05 -1.27425e-05 0.101334)
(6.64477e-05 -5.36227e-06 0.102662)
(0.000207498 -2.54111e-05 0.105889)
(1.66629e-05 -1.13715e-05 0.106567)
(5.673e-05 -1.16316e-05 0.101424)
(-4.73526e-06 -4.06109e-05 0.104894)
(8.15116e-05 -1.80684e-05 0.0989782)
(0.000173887 -5.09072e-05 0.102918)
(3.07654e-05 -8.60776e-06 0.0959453)
(0.000197291 -4.2386e-05 0.104717)
(4.23123e-05 -1.41599e-05 0.0990738)
(-5.62083e-06 -4.26686e-05 0.103023)
(-0.000171984 -5.46782e-05 0.102927)
(-2.21126e-05 -6.46943e-06 0.0959486)
(1.08655e-05 -5.23712e-05 0.103035)
(4.15794e-05 -4.1876e-05 0.10077)
(-3.4625e-06 3.29739e-06 0.106763)
(0.000100407 -0.000152493 0.104487)
(0.000152525 -0.000100278 0.104488)
(5.99985e-05 7.451e-06 0.104603)
(7.80295e-05 -7.80971e-05 0.10069)
(-7.79733e-06 -6.00247e-05 0.104605)
(2.61385e-05 -7.68341e-06 0.106059)
(1.12599e-05 -0.000213098 0.106427)
(1.33337e-05 -9.87808e-05 0.101333)
(5.22441e-06 -6.59427e-05 0.10266)
(2.61935e-05 -0.000207369 0.105888)
(1.12628e-05 -1.63631e-05 0.106565)
(1.15768e-05 -5.64319e-05 0.101423)
(4.03171e-05 4.7822e-06 0.104894)
(1.82274e-05 -8.16694e-05 0.0989773)
(5.08564e-05 -0.000173761 0.10292)
(8.15301e-06 -3.09727e-05 0.0959455)
(4.25928e-05 -0.000197256 0.104717)
(4.2294e-05 5.71928e-06 0.103025)
(1.38559e-05 -4.24422e-05 0.0990729)
(-2.70505e-05 -6.43797e-06 0.106055)
(-8.35953e-06 -0.000212832 0.106426)
(-1.06712e-05 -9.78393e-05 0.101332)
(-5.25259e-06 -6.53051e-05 0.10266)
(-2.32561e-05 -0.000207124 0.105884)
(-1.16273e-05 -1.56423e-05 0.106564)
(-1.08095e-05 -5.432e-05 0.101421)
(-4.48298e-05 7.48561e-06 0.104892)
(-1.73402e-05 -7.73151e-05 0.0989786)
(-5.47133e-05 -0.000171502 0.102925)
(-6.53915e-06 -2.22322e-05 0.095948)
(-4.09341e-05 -0.000197766 0.104713)
(-1.45258e-05 -3.61517e-05 0.099074)
(-5.24693e-05 1.11825e-05 0.103033)
(-5.45013e-05 -5.47943e-05 0.100808)
(-1.09396e-06 -1.17218e-06 0.106771)
(-0.000100623 -0.00015594 0.104518)
(-0.000155839 -0.000100227 0.104517)
(-8.61152e-05 -8.61283e-05 0.100744)
(-6.4603e-05 -7.24058e-06 0.104635)
(-7.01319e-06 -6.46155e-05 0.104633)
(-0.000117072 7.05074e-05 0.105614)
(-0.000176652 -0.000177428 0.10524)
(-0.000117361 -7.0731e-05 0.105531)
(-7.05412e-05 -0.000117381 0.105531)
(-3.32756e-05 -3.34463e-05 0.105245)
(-0.000175309 0.000175158 0.105241)
(-0.000116584 -6.99204e-05 0.105615)
(-7.48412e-05 -7.49962e-05 0.105755)
(-5.73843e-07 1.21453e-05 0.0744375)
(-0.000124544 4.57935e-05 0.0991159)
(-0.000119636 2.50074e-05 0.105779)
(-0.000178963 1.18009e-05 0.1037)
(-7.00883e-05 -2.891e-05 0.093219)
(-2.93968e-05 -6.98183e-05 0.093219)
(-0.000120185 2.52431e-05 0.105687)
(-0.000130291 1.33179e-05 0.103768)
(-0.000103575 6.60062e-06 0.098185)
(-0.000120209 -2.53755e-05 0.105687)
(-8.56532e-05 -3.68193e-05 0.0992893)
(-0.000129607 -1.05714e-05 0.103767)
(-4.75006e-05 1.66008e-05 0.0872795)
(-0.000103234 -3.07335e-06 0.0981845)
(-2.55412e-05 -0.000120341 0.105687)
(-3.36518e-05 -8.56188e-05 0.0992892)
(-1.31352e-05 -0.000129832 0.103767)
(1.46096e-05 -4.73763e-05 0.0872791)
(-6.39997e-06 -0.000103189 0.098185)
(-6.43847e-05 -1.8076e-05 0.09338)
(-1.82583e-05 -6.43535e-05 0.0933773)
(-3.69626e-06 8.64949e-06 0.0745643)
(8.00036e-06 -2.70406e-06 0.0745634)
(-2.98852e-05 6.93236e-05 0.0932176)
(-6.91897e-05 3.02057e-05 0.0932246)
(-1.13884e-05 5.60758e-07 0.0744393)
(-6.49623e-05 -1.03458e-05 0.0871305)
(-0.000125797 5.50836e-06 0.0980529)
(-0.000119581 -2.50312e-05 0.105779)
(-0.000124732 -4.61956e-05 0.0991135)
(-0.000178331 -9.47003e-06 0.1037)
(-6.77215e-05 1.37309e-05 0.0871302)
(-0.000125838 -3.80154e-06 0.0980538)
(-1.32739e-05 6.74545e-07 0.0744407)
(6.98204e-07 -1.2557e-05 0.07444)
(4.81493e-06 2.28732e-06 0.0744654)
(-0.000136372 -0.000109038 0.101979)
(-4.41774e-05 5.78908e-07 0.0860584)
(-0.000100541 -8.36464e-05 0.0978051)
(-0.000109058 -0.000137247 0.101981)
(4.23817e-07 -4.41191e-05 0.0860553)
(-8.36925e-05 -0.000101067 0.0978049)
(-3.24022e-06 -9.62857e-06 0.0715181)
(-1.00134e-05 -3.10107e-06 0.0715133)
(-4.92903e-05 -4.91478e-05 0.0890888)
(2.92129e-06 -6.04631e-06 0.0711156)
(-5.906e-05 9.43925e-06 0.0917783)
(-7.80777e-05 9.80549e-06 0.0917886)
(1.04188e-05 -3.26884e-06 0.0711706)
(-1.87403e-05 -1.31414e-05 0.080673)
(-0.000129377 6.18592e-06 0.0981728)
(-8.87273e-05 1.18502e-05 0.0965301)
(-3.19943e-05 1.30113e-06 0.0828881)
(-0.000113451 1.14373e-05 0.0965288)
(-4.15993e-05 1.01911e-06 0.0829267)
(-9.66081e-06 -1.06521e-05 0.0806619)
(-1.685e-07 4.8002e-06 0.0711274)
(-6.57726e-05 1.17019e-05 0.0872859)
(-5.07156e-05 -8.95121e-06 0.0917803)
(-7.20965e-05 -9.93305e-06 0.0917862)
(6.53329e-06 2.4405e-06 0.0711679)
(-2.1095e-05 9.9602e-06 0.0806746)
(-0.000128682 -3.57558e-06 0.0981714)
(-3.2411e-05 -3.74516e-06 0.0828879)
(-8.33125e-05 -9.35913e-06 0.0965288)
(-4.24271e-05 -2.47941e-06 0.0829263)
(-0.000110741 -9.19189e-06 0.0965228)
(-1.2579e-05 6.49854e-06 0.0806593)
(6.43143e-06 1.78482e-06 0.0711249)
(1.24164e-05 -6.79487e-05 0.0872851)
(-9.00154e-06 -5.71012e-05 0.0917754)
(-9.58331e-06 -7.75522e-05 0.0917869)
(2.65179e-06 8.7357e-06 0.0711707)
(1.2791e-05 -1.95821e-05 0.0806737)
(-6.03676e-06 -0.00012791 0.0981718)
(-1.12617e-05 -8.88854e-05 0.0965279)
(-1.38066e-06 -3.15272e-05 0.0828885)
(-1.14165e-05 -0.0001109 0.0965278)
(-1.7226e-06 -4.19504e-05 0.0829264)
(9.63628e-06 -9.94251e-06 0.0806601)
(-0.000100345 -8.73305e-05 0.0979599)
(-9.02978e-05 -8.68822e-05 0.102094)
(-7.55775e-05 -3.37511e-05 0.0933826)
(-3.42882e-05 9.85806e-06 0.0861952)
(-7.31398e-05 -7.34103e-05 0.0979715)
(-0.00013832 -0.000110319 0.102032)
(-4.46726e-05 6.13596e-06 0.0861923)
(-8.71704e-05 -0.000100712 0.0979589)
(-8.67434e-05 -9.06214e-05 0.102088)
(-3.34448e-05 -7.58395e-05 0.0933822)
(1.01848e-05 -3.44514e-05 0.0861867)
(-7.27315e-05 -7.33515e-05 0.0979598)
(-0.000110268 -0.000138037 0.102034)
(6.30769e-06 -4.50686e-05 0.0861892)
(-5.59738e-05 -5.62587e-05 0.0892901)
(2.73479e-06 -2.36639e-06 0.0716264)
(-2.46162e-06 2.85471e-06 0.0716174)
(-4.70503e-05 -4.71715e-05 0.0892511)
(-4.59575e-07 -8.10837e-06 0.0715995)
(-8.16456e-06 -5.54342e-07 0.0715945)
(-1.1143e-05 2.87916e-06 0.0745409)
(2.16104e-06 -1.09544e-05 0.0745411)
(-7.02703e-05 6.23168e-05 0.0978292)
(-0.00010183 0.000136943 0.101974)
(-5.05056e-06 4.50087e-05 0.0860507)
(-1.9473e-05 5.86002e-05 0.0932279)
(2.78035e-07 3.35845e-05 0.0860591)
(-7.96564e-05 9.68868e-05 0.0978037)
(-7.44707e-05 8.82798e-05 0.102038)
(-6.18502e-05 7.01538e-05 0.0978246)
(-0.000137091 0.000101952 0.101985)
(-4.5005e-05 5.18816e-06 0.0860611)
(-5.84613e-05 1.97563e-05 0.093226)
(-8.84796e-05 7.43788e-05 0.102031)
(-9.71272e-05 7.97575e-05 0.0978207)
(-3.30593e-05 -2.7478e-07 0.0860594)
(-3.46224e-05 3.48659e-05 0.0890681)
(-1.47871e-05 1.57768e-07 0.0715078)
(-1.49092e-08 1.51124e-05 0.0715155)
(-8.32886e-06 -2.93005e-06 0.0715229)
(-4.32233e-05 4.3434e-05 0.089104)
(2.91951e-06 8.34477e-06 0.0715287)
(-1.98755e-06 -5.37016e-06 0.0744627)
(7.18174e-06 -2.07025e-06 0.0710949)
(-7.15826e-05 9.39784e-06 0.0916022)
(-4.43646e-05 -1.35143e-05 0.0871275)
(-5.15674e-05 8.24339e-06 0.0915981)
(-1.89007e-07 -5.02416e-06 0.0710454)
(-9.30756e-06 -8.31403e-06 0.0805152)
(-0.000100496 4.73589e-06 0.0980651)
(-0.000108233 1.07488e-05 0.0963725)
(-3.8693e-05 1.50432e-06 0.0827433)
(-8.39182e-05 1.03301e-05 0.0963769)
(-1.88832e-05 -1.12335e-05 0.0805232)
(-2.81056e-05 2.25283e-06 0.0827093)
(9.60828e-06 4.15881e-06 0.0710898)
(-6.90535e-05 -8.65842e-06 0.0916089)
(-4.67855e-05 1.33672e-05 0.0871261)
(-1.39503e-06 5.69909e-06 0.0710457)
(-5.63262e-05 -7.49772e-06 0.0916012)
(-7.25282e-06 1.15096e-05 0.0805132)
(-0.000100095 -5.81275e-06 0.0980664)
(-3.83998e-05 -2.65223e-06 0.0827441)
(-0.000104866 -1.0551e-05 0.0963784)
(-1.97581e-05 1.02693e-05 0.0805241)
(-2.7458e-05 -1.29001e-06 0.0827095)
(-8.4476e-05 -1.22849e-05 0.0963825)
(-0.000143837 -0.000188594 0.104523)
(-0.000187786 -0.000144278 0.104524)
(-0.00013638 -0.000136741 0.10281)
(-0.000136048 -0.000136217 0.102843)
(-0.00017712 -0.000176837 0.10517)
(-0.00010178 -2.19312e-05 0.104568)
(-2.17524e-05 -0.00010197 0.104566)
(-9.40576e-05 -9.43403e-05 0.102923)
(-0.000144337 -0.000186034 0.104483)
(-0.000186314 -0.000144294 0.104485)
(-8.24155e-05 8.2527e-05 0.102894)
(-0.000183117 0.000141558 0.104522)
(-0.00014161 0.000182998 0.104526)
(-3.00584e-05 2.98864e-05 0.105314)
(-9.74466e-05 1.22663e-05 0.104604)
(-0.000130174 0.000130017 0.102813)
(-1.26426e-05 9.75218e-05 0.104607)
(-7.52823e-05 2.48935e-05 0.105791)
(-2.52778e-05 2.52844e-05 0.105796)
(-7.52848e-05 -2.4966e-05 0.105791)
(-2.49768e-05 -7.53896e-05 0.105791)
(-2.5286e-05 -2.52847e-05 0.105796)
(-3.1363e-05 5.56683e-05 0.104664)
(-0.00023732 7.85202e-05 0.103768)
(-0.000153105 4.69365e-05 0.10165)
(-8.55173e-05 3.4253e-05 0.0991903)
(-0.000245075 5.73653e-05 0.104551)
(-2.49516e-05 6.80399e-05 0.103868)
(-0.000103837 4.5278e-05 0.101744)
(-4.9135e-05 3.26327e-05 0.105068)
(-0.00012774 1.20224e-05 0.103779)
(-0.000172108 3.11762e-05 0.103135)
(-0.000236563 1.2718e-05 0.105145)
(-0.000240264 3.20926e-05 0.104976)
(-0.00012025 3.17038e-05 0.103222)
(-5.64566e-05 1.35779e-05 0.105221)
(-0.000246083 5.89821e-05 0.104511)
(-0.000106116 4.55023e-05 0.101806)
(-3.21766e-05 5.70438e-05 0.104624)
(-0.000154291 4.75727e-05 0.101712)
(-0.000241337 3.25246e-05 0.104918)
(-0.000181674 1.1718e-05 0.103688)
(-0.000123333 3.35594e-05 0.103236)
(-5.78072e-05 1.39688e-05 0.105155)
(-5.09245e-05 3.33484e-05 0.105009)
(-0.000174436 3.0899e-05 0.103149)
(-0.000237546 1.2679e-05 0.105079)
(-0.000247 -5.82988e-05 0.10451)
(-2.4509e-05 -7.483e-05 0.103855)
(-0.000123716 -4.98064e-05 0.0992143)
(-0.000103068 -4.82591e-05 0.101805)
(-0.000153721 -4.81266e-05 0.10171)
(-0.000239602 -8.30404e-05 0.103751)
(-3.06595e-05 -5.87655e-05 0.104622)
(-0.00024095 -3.22681e-05 0.104918)
(-0.000181586 -1.0982e-05 0.103688)
(-5.72517e-05 -1.35309e-05 0.105155)
(-0.000120691 -3.11e-05 0.103235)
(-0.00023712 -1.26349e-05 0.105079)
(-0.000174486 -3.07489e-05 0.103148)
(-4.91222e-05 -3.33798e-05 0.105009)
(-5.84704e-05 -0.000247966 0.104509)
(-7.40158e-05 -2.47735e-05 0.103854)
(-4.70281e-05 -0.000124526 0.099214)
(-4.64495e-05 -0.000105296 0.101804)
(-4.80773e-05 -0.000155107 0.10171)
(-8.25919e-05 -0.000240104 0.103751)
(-5.82094e-05 -3.28788e-05 0.104622)
(-3.26953e-05 -0.000241059 0.104917)
(-1.15708e-05 -0.000180885 0.103688)
(-1.42195e-05 -5.80926e-05 0.105154)
(-3.3495e-05 -0.000122886 0.103235)
(-1.27844e-05 -0.000237199 0.105079)
(-3.20599e-05 -0.000173958 0.103148)
(-3.39794e-05 -5.12474e-05 0.105008)
(-2.99117e-05 -5.70088e-05 0.104665)
(-0.000236984 -8.33261e-05 0.103766)
(-0.000150567 -4.86925e-05 0.101651)
(-8.5724e-05 -2.97805e-05 0.0991904)
(-2.34191e-05 -6.92708e-05 0.103871)
(-0.000242345 -6.01214e-05 0.104551)
(-0.000104074 -4.43377e-05 0.101747)
(-4.85328e-05 -3.31297e-05 0.105068)
(-0.000127483 -1.16043e-05 0.103779)
(-0.000236252 -1.24217e-05 0.105144)
(-0.000169137 -2.87442e-05 0.103135)
(-5.6527e-05 -1.36274e-05 0.105221)
(-0.0002384 -3.25155e-05 0.104976)
(-0.000119248 -3.16086e-05 0.103223)
(-0.000113702 6.74602e-05 0.105939)
(-3.08175e-05 6.79213e-05 0.0926128)
(-2.78334e-05 6.25932e-05 0.0923356)
(-0.000116243 -2.44591e-05 0.106139)
(-0.00011484 -7.55409e-06 0.0975694)
(-0.000113264 6.86183e-05 0.106094)
(-0.000115212 -2.38063e-05 0.106314)
(-5.43688e-05 1.08804e-05 0.0862846)
(-7.32296e-05 7.29439e-05 0.106136)
(6.94858e-05 -0.00011624 0.105615)
(-7.21669e-05 7.22628e-05 0.106322)
(6.76278e-05 -0.000113847 0.10594)
(-0.000174669 -0.000174708 0.105489)
(2.36998e-05 2.36085e-05 0.105513)
(-7.0544e-05 0.000117413 0.105614)
(6.79729e-05 0.000114299 0.105859)
(-3.03162e-05 8.17511e-05 0.0988888)
(-1.70114e-05 5.9518e-05 0.0927684)
(0.000116467 -6.95938e-05 0.105615)
(0.000114151 6.77497e-05 0.10586)
(0.000114298 -6.85413e-05 0.105859)
(-0.00011432 6.80328e-05 0.10586)
(-0.000117282 -2.44101e-05 0.10605)
(-9.11988e-05 -6.26713e-06 0.0977022)
(0.000176016 -0.000175985 0.105241)
(2.66016e-05 -2.68038e-05 0.105511)
(-6.98718e-05 -0.000116437 0.105615)
(6.83063e-05 -0.00011448 0.105859)
(-6.89463e-05 -0.000114808 0.105859)
(-2.53372e-05 -2.58179e-05 0.105511)
(-1.92486e-06 4.89286e-06 0.0741851)
(0.000173314 0.000172967 0.10549)
(6.81856e-05 0.000113977 0.105937)
(-4.28195e-05 0.000118384 0.0987098)
(-3.82351e-05 0.000111051 0.098507)
(0.000113726 6.82457e-05 0.105938)
(0.000113465 -6.79187e-05 0.105939)
(0.000174819 -0.000175411 0.105492)
(-6.81996e-05 -0.000113821 0.105938)
(-2.7038e-06 6.53852e-06 0.0740167)
(-0.000173209 -0.000173976 0.105611)
(-1.11231e-05 -1.37264e-06 0.073902)
(2.17e-07 9.71576e-06 0.07407)
(4.71738e-06 1.09469e-06 0.0740171)
(-0.000116362 2.40345e-05 0.106139)
(-0.000170812 1.05302e-05 0.103718)
(-0.000118403 4.20757e-05 0.0987106)
(-0.000113792 6.85769e-05 0.106017)
(-0.000115716 2.41676e-05 0.106227)
(-0.000118564 1.2805e-05 0.103798)
(-7.45829e-05 2.73453e-05 0.0986844)
(-0.0001731 0.000173044 0.105492)
(-6.91034e-05 3.07192e-05 0.0926155)
(-1.36893e-05 4.94066e-05 0.0924872)
(-2.36802e-05 2.30609e-05 0.105634)
(-4.68806e-05 1.40629e-05 0.0924836)
(-9.50231e-06 -2.76362e-07 0.0740723)
(-1.21516e-06 -4.42295e-06 0.0740134)
(2.98201e-07 9.45e-06 0.0739032)
(-0.000175534 0.000175322 0.105606)
(-6.06657e-05 2.77205e-05 0.0923377)
(-1.01968e-05 -8.55117e-07 0.0739035)
(-0.000113141 4.13881e-06 0.097569)
(-5.78092e-05 -1.27428e-05 0.0865532)
(-8.79953e-05 6.77366e-06 0.0974539)
(-3.18362e-05 -1.0043e-05 0.0864228)
(-0.000171286 -1.19138e-05 0.103718)
(-0.00011554 -2.41521e-05 0.106227)
(-0.000113589 -6.80932e-05 0.105938)
(-0.000112829 -6.73946e-05 0.106018)
(-7.68451e-05 -2.64031e-05 0.0986831)
(-0.000115291 -4.10677e-05 0.0987129)
(-0.0001176 -1.02203e-05 0.103798)
(-3.49826e-05 1.49531e-05 0.0864215)
(-5.58487e-05 9.82194e-06 0.0865551)
(-8.57948e-05 -3.52639e-06 0.0974542)
(-0.000115301 2.44154e-05 0.106314)
(-0.000166415 1.11933e-05 0.103712)
(-0.000109965 4.22623e-05 0.0985075)
(-0.000108895 4.81097e-06 0.0973211)
(-5.06928e-05 -1.05068e-05 0.0862873)
(-0.000112788 -6.70998e-05 0.106095)
(-0.000113958 -3.69227e-05 0.0985046)
(-0.000165728 -9.77016e-06 0.103712)
(-0.000107348 -5.4617e-06 0.0973237)
(5.76708e-06 9.67302e-05 0.0979472)
(4.93305e-06 0.000125811 0.0980514)
(-1.33473e-05 4.28838e-05 0.086981)
(6.40221e-06 2.02392e-06 0.0743717)
(9.68827e-05 7.34626e-06 0.0979456)
(4.30043e-05 -1.37106e-05 0.0869806)
(-7.38476e-05 -2.44895e-05 0.106186)
(7.44759e-05 7.45865e-05 0.105851)
(-7.42302e-05 7.43161e-05 0.105851)
(7.42845e-05 -7.42657e-05 0.105851)
(-7.44092e-05 -7.42618e-05 0.105851)
(7.25078e-05 7.2465e-05 0.106136)
(7.3238e-05 -7.34746e-05 0.106136)
(-0.000126145 1.09935e-05 0.103788)
(-0.000116569 7.06788e-05 0.105696)
(-8.10803e-05 3.19578e-05 0.0990917)
(-0.000118893 2.51663e-05 0.10587)
(1.07499e-05 3.51084e-07 0.0744386)
(3.08089e-06 6.1221e-06 0.0743672)
(1.10249e-05 -0.000125534 0.103789)
(2.49854e-05 -0.000119351 0.105779)
(4.23335e-05 -0.000124288 0.0991159)
(6.95194e-05 -0.000115813 0.105697)
(1.13814e-05 -0.000179361 0.103699)
(2.4666e-05 -0.000118526 0.10587)
(3.49242e-05 -8.34206e-05 0.0990911)
(-2.93527e-05 -2.8555e-05 0.10538)
(-6.28342e-05 -1.95985e-05 0.0930719)
(-1.95993e-05 -6.31604e-05 0.0930673)
(6.93596e-06 8.81355e-05 0.0974549)
(-1.20115e-05 5.8293e-05 0.0865535)
(4.27216e-06 0.000112252 0.0975688)
(-1.26137e-05 3.28895e-05 0.0864239)
(8.66931e-05 6.05195e-06 0.0974549)
(5.66135e-05 -1.06486e-05 0.0865535)
(0.000113928 4.35871e-06 0.0975684)
(3.42208e-05 -1.38794e-05 0.0864221)
(-7.36126e-05 -2.43947e-05 0.106284)
(7.24041e-05 7.26028e-05 0.106229)
(7.25203e-05 -7.27393e-05 0.10623)
(1.11154e-05 6.5961e-07 0.0740716)
(5.4754e-07 6.28408e-06 0.0740123)
(9.96436e-06 -0.00011778 0.103798)
(2.42316e-05 -0.000116516 0.106139)
(4.16295e-05 -0.000115732 0.0987128)
(6.74885e-05 -0.000113262 0.106017)
(1.29951e-05 -0.000171558 0.103718)
(2.38479e-05 -0.000115796 0.106227)
(2.66721e-05 -7.79669e-05 0.0986847)
(-2.37702e-05 -2.42879e-05 0.105637)
(-5.20536e-05 -1.03564e-05 0.0924778)
(-6.54514e-05 -2.99569e-05 0.0926222)
(-2.94589e-05 -6.56318e-05 0.0926198)
(-1.08239e-05 -5.18599e-05 0.0924761)
(-6.80985e-06 1.06558e-06 0.0743686)
(1.2348e-06 -6.61758e-06 0.0743669)
(3.10655e-05 3.07283e-05 0.105381)
(1.68898e-05 5.94376e-05 0.0930724)
(5.89429e-05 1.6511e-05 0.0930692)
(-4.75467e-06 2.90503e-06 0.0741848)
(-2.24094e-06 8.85576e-06 0.0742513)
(2.39934e-06 -4.53372e-06 0.0741829)
(9.13575e-06 -2.28472e-06 0.0742503)
(0.000176523 0.000176317 0.105369)
(1.45429e-05 5.19474e-05 0.092771)
(5.17172e-05 1.49147e-05 0.0927679)
(3.1157e-05 7.41444e-05 0.0929125)
(7.43438e-05 3.097e-05 0.0929101)
(-6.51415e-06 9.72827e-05 0.0979448)
(1.17298e-05 6.58547e-05 0.0871291)
(-4.24497e-06 0.000125455 0.0980527)
(1.21353e-05 4.22268e-05 0.0869803)
(1.17453e-05 0.000125658 0.103788)
(2.52342e-05 0.000119806 0.105779)
(6.97964e-05 0.000115973 0.105697)
(1.15305e-05 0.000179401 0.103699)
(2.93924e-05 8.20245e-05 0.0990928)
(2.50805e-05 0.000118851 0.10587)
(-1.3101e-05 0.000126014 0.103788)
(-4.64781e-05 0.000125067 0.0991122)
(-2.48883e-05 0.000119879 0.105778)
(-7.05349e-05 0.000116584 0.105696)
(-1.05019e-05 0.000179206 0.103699)
(-3.08417e-05 8.07681e-05 0.0990924)
(-2.52979e-05 0.000118984 0.10587)
(6.77549e-06 0.000119783 0.0978129)
(-1.40952e-05 3.9065e-05 0.0866936)
(-1.12215e-05 5.98042e-05 0.0868372)
(3.24428e-06 9.1713e-05 0.0977011)
(1.4782e-05 3.81409e-05 0.0866947)
(-5.07371e-06 0.000119985 0.0978118)
(1.026e-05 5.99847e-05 0.0868356)
(-6.74213e-06 9.18617e-05 0.0977014)
(1.21985e-05 0.000175537 0.103714)
(6.81499e-05 0.000114633 0.10578)
(3.03161e-05 8.15272e-05 0.0988886)
(2.39664e-05 0.000116975 0.10605)
(4.31243e-05 0.00011989 0.0989161)
(2.46287e-05 0.000117675 0.105961)
(1.01058e-05 0.000121318 0.1038)
(-6.83391e-05 0.000114009 0.10586)
(-1.15928e-05 0.000175444 0.103713)
(-6.96061e-05 0.000115121 0.105779)
(-2.47226e-05 0.000116906 0.10605)
(-4.36303e-05 0.000117063 0.0989151)
(-2.51912e-05 0.000117784 0.105961)
(-1.21865e-05 0.000121405 0.1038)
(-3.0563e-05 3.09805e-05 0.105378)
(-1.90405e-05 5.75231e-05 0.0930742)
(-5.7854e-05 1.87166e-05 0.0930712)
(-2.58034e-06 -6.71543e-06 0.0743699)
(6.65213e-06 5.87406e-07 0.0741883)
(1.61859e-06 1.16186e-05 0.0742489)
(-2.54142e-05 2.53538e-05 0.105513)
(-5.8575e-05 1.63669e-05 0.0927632)
(-0.000177967 0.000178177 0.105366)
(-2.8244e-05 6.69927e-05 0.0929113)
(-6.79784e-05 2.82816e-05 0.0929172)
(-5.1189e-07 -6.46912e-06 0.0741853)
(-1.17849e-05 -1.64418e-06 0.0742515)
(0.000126018 1.32567e-05 0.103788)
(0.000116049 6.98929e-05 0.105697)
(8.15027e-05 2.88133e-05 0.0990919)
(0.0001189 2.54688e-05 0.10587)
(9.72624e-05 -3.79823e-06 0.097945)
(6.52288e-05 1.09022e-05 0.0871305)
(0.000125905 -6.27065e-06 0.0980528)
(4.33286e-05 1.4455e-05 0.0869779)
(0.000125782 -1.09755e-05 0.103788)
(0.000119502 -2.48732e-05 0.105779)
(0.000123947 -4.42423e-05 0.0991141)
(0.000116112 -6.93411e-05 0.105697)
(0.000179044 -1.21622e-05 0.1037)
(0.000118857 -2.45942e-05 0.10587)
(8.37019e-05 -3.24394e-05 0.09909)
(0.000119511 7.27459e-06 0.0978126)
(3.79729e-05 -1.24208e-05 0.0866929)
(6.03812e-05 -1.22767e-05 0.0868374)
(9.21553e-05 3.15569e-06 0.0977008)
(0.000175255 1.28907e-05 0.103714)
(0.000114694 6.81065e-05 0.10578)
(8.14619e-05 2.97754e-05 0.0988876)
(0.000116967 2.37349e-05 0.10605)
(0.000119947 4.31864e-05 0.0989161)
(0.000117888 2.4786e-05 0.105961)
(0.000122217 1.00736e-05 0.103799)
(0.00011917 -3.87906e-06 0.0978121)
(3.74603e-05 1.37521e-05 0.0866945)
(6.20751e-05 1.13267e-05 0.0868339)
(9.28876e-05 -7.44603e-06 0.0977011)
(0.00017472 -9.74191e-06 0.103714)
(0.000115437 -6.91612e-05 0.105778)
(0.000117001 -2.49444e-05 0.10605)
(7.96746e-05 -2.99447e-05 0.0988892)
(0.000118055 -2.47453e-05 0.10596)
(0.000119795 -4.20874e-05 0.0989134)
(0.000122649 -1.35675e-05 0.103799)
(-9.72638e-05 4.45285e-06 0.097945)
(-4.32002e-05 -1.39079e-05 0.0869805)
(-0.000126917 -1.40443e-05 0.103788)
(-0.000115868 -6.89252e-05 0.105697)
(-0.000118771 -2.47387e-05 0.10587)
(-8.24236e-05 -3.15856e-05 0.0990928)
(-9.8056e-05 -7.15958e-06 0.0979443)
(-4.08104e-05 1.32e-05 0.0869808)
(-0.000117189 2.45948e-05 0.10605)
(-0.0001218 1.26076e-05 0.103799)
(-8.11459e-05 3.00839e-05 0.098887)
(-0.000175114 1.06399e-05 0.103714)
(-0.000115285 6.94858e-05 0.105779)
(-0.000117639 4.29336e-05 0.0989171)
(-0.00011802 2.52687e-05 0.105961)
(-9.19265e-05 5.01962e-06 0.0977008)
(-3.78369e-05 -1.49018e-05 0.0866942)