/*--------------------------------*- C++ -*----------------------------------*\
| =========                 |                                                 |
| \\      /  F ield         | OpenFOAM: The Open Source CFD Toolbox           |
|  \\    /   O peration     | Version:  v2006                                 |
|   \\  /    A nd           | Website:  www.openfoam.com                      |
|    \\/     M anipulation  |                                                 |
\*---------------------------------------------------------------------------*/
FoamFile
{
    version     2.0;
    format      ascii;
    class       volScalarField;
    location    "500";
    object      epsilon;
}
// * * * * * * * * * * * * * * * * * * * * * * * * * * * * * * * * * * * * * //

dimensions      [0 2 -3 0 0 0 0];


internalField   nonuniform List<scalar> 
14212
(
4.20758e-06
9.36766e-06
1.88306e-05
9.37575e-06
1.16215e-06
3.66635e-06
1.87801e-05
1.87797e-05
1.39054e-06
5.62344e-06
5.6181e-06
4.21082e-06
9.3564e-06
2.26898e-06
1.14522e-06
3.6295e-06
8.73256e-07
2.27261e-06
1.16187e-06
3.66421e-06
8.77168e-07
1.43473e-06
5.6911e-06
5.6933e-06
1.88342e-05
1.14375e-06
3.61831e-06
9.36423e-06
1.24704e-05
4.19573e-06
1.10833e-05
4.85531e-06
1.10845e-05
4.84154e-06
1.24675e-05
2.23946e-05
7.20727e-06
9.37554e-06
7.18903e-06
2.23761e-05
1.87944e-05
9.39146e-06
1.87803e-05
1.8783e-05
1.00031e-05
2.18398e-05
2.18455e-05
2.17388e-05
2.17508e-05
1.00154e-05
4.73763e-06
9.69583e-06
5.61205e-06
2.98427e-06
9.6871e-06
4.73059e-06
2.98308e-06
4.73632e-06
5.60918e-06
9.71511e-06
2.98175e-06
9.70454e-06
4.72867e-06
2.98163e-06
1.24708e-05
4.19864e-06
1.10839e-05
4.86586e-06
1.1084e-05
4.8513e-06
1.24721e-05
2.24093e-05
7.23587e-06
9.35477e-06
7.21147e-06
2.23976e-05
2.19529e-05
2.19557e-05
1.02505e-05
4.87337e-06
9.77186e-06
5.67165e-06
3.06321e-06
9.72162e-06
3.05801e-06
4.87323e-06
9.76964e-06
3.06386e-06
4.86938e-06
5.87188e-07
3.70107e-07
5.91844e-07
3.70356e-07
2.25735e-06
2.85705e-06
1.3912e-06
1.96926e-06
1.96881e-06
2.85244e-06
1.96949e-06
1.96928e-06
1.62777e-06
2.25922e-06
2.52107e-06
1.5038e-06
2.51038e-06
1.50101e-06
1.63064e-06
1.81437e-06
3.00924e-06
3.62009e-06
2.21514e-06
2.99855e-06
2.21093e-06
1.81781e-06
1.63642e-06
2.26251e-06
2.53254e-06
1.50697e-06
2.52042e-06
1.50368e-06
1.64053e-06
1.83355e-06
3.03158e-06
3.65017e-06
2.25592e-06
3.01722e-06
1.83912e-06
2.24841e-06
2.95862e-06
1.43341e-06
2.0378e-06
2.03816e-06
2.03575e-06
2.03534e-06
2.95781e-06
3.61098e-06
2.20925e-06
2.20637e-06
1.02199e-05
2.18593e-05
2.18609e-05
4.86974e-06
5.67422e-06
3.0589e-06
9.71627e-06
1.87957e-05
9.35497e-06
3.65356e-06
2.25041e-06
2.20974e-06
7.50698e-07
4.15533e-06
2.21003e-06
1.04352e-06
7.51167e-07
3.5617e-06
4.15545e-06
9.3071e-06
1.04345e-06
3.56262e-06
9.30764e-06
1.29882e-06
5.54345e-06
5.54536e-06
1.86451e-05
1.86475e-05
1.23496e-05
4.80082e-06
1.09611e-05
4.15698e-06
1.23466e-05
4.80235e-06
1.09639e-05
1.23505e-05
1.0961e-05
4.80081e-06
4.15695e-06
1.23472e-05
1.09638e-05
4.80224e-06
2.22691e-05
7.13579e-06
9.31038e-06
2.22637e-05
7.13652e-06
9.31098e-06
9.82516e-06
2.19454e-05
2.19464e-05
9.82565e-06
2.19518e-05
2.19531e-05
4.62504e-06
9.6681e-06
2.906e-06
5.54419e-06
4.62554e-06
2.90642e-06
9.67313e-06
4.63077e-06
9.67258e-06
2.90757e-06
5.54627e-06
4.63115e-06
2.90799e-06
9.67788e-06
1.8652e-05
1.86546e-05
4.66798e-07
1.55849e-06
2.46084e-06
1.42879e-06
2.21157e-06
1.55918e-06
2.463e-06
1.42856e-06
1.55925e-06
1.42905e-06
2.4618e-06
2.21173e-06
1.56006e-06
1.4288e-06
2.46336e-06
1.74701e-06
2.94651e-06
2.14615e-06
3.56236e-06
1.74759e-06
2.94725e-06
2.14624e-06
2.1468e-06
3.56328e-06
2.14686e-06
2.76486e-06
1.29778e-06
1.88796e-06
1.88843e-06
2.76512e-06
1.88762e-06
1.88809e-06
2.22698e-05
7.13534e-06
2.22649e-05
7.13642e-06
1.74597e-06
2.94502e-06
1.74623e-06
2.94647e-06
7.24445e-06
2.2424e-05
3.03433e-06
1.84146e-06
4.16082e-06
2.23709e-06
1.30635e-06
8.7036e-07
1.13837e-06
4.17531e-06
4.18577e-06
1.37068e-06
1.88306e-05
5.84472e-07
1.15171e-06
8.69206e-07
1.37161e-06
8.69904e-07
8.65695e-07
1.39097e-06
1.13564e-06
8.7007e-07
9.43194e-06
5.58485e-06
1.13936e-06
8.70349e-07
1.41351e-06
3.59005e-06
4.15223e-06
2.23018e-06
8.71823e-07
9.42774e-06
1.31166e-06
1.13754e-06
4.16659e-06
4.1771e-06
1.88268e-05
3.62247e-07
3.61075e-07
3.6476e-07
3.63834e-07
9.47394e-06
4.16775e-06
1.13604e-06
3.58566e-06
2.24359e-06
1.13636e-06
8.71987e-07
8.72171e-07
9.54734e-06
1.11734e-06
8.70037e-07
3.5282e-06
1.12251e-06
8.71808e-07
1.89143e-05
5.47365e-06
5.47667e-06
1.89046e-05
1.11763e-06
2.2463e-06
3.53241e-06
1.12258e-06
8.71782e-07
8.72407e-07
2.25634e-06
3.60881e-06
1.13867e-06
8.72085e-07
3.6182e-06
9.53454e-06
9.45722e-06
9.46382e-06
5.58698e-06
5.5926e-06
1.37449e-06
5.59359e-06
5.60502e-06
1.88652e-05
1.88545e-05
1.88751e-05
4.18958e-06
9.41892e-06
4.17148e-06
1.87575e-05
9.44343e-06
4.16021e-06
3.67103e-07
3.67043e-07
3.66168e-07
8.7174e-07
2.27625e-06
3.61828e-06
2.25707e-06
8.77864e-07
1.88549e-05
1.11756e-06
2.23987e-06
3.52611e-06
5.58537e-06
5.58784e-06
1.36737e-06
5.58196e-06
5.57282e-06
1.885e-05
1.89335e-05
1.88599e-05
1.36206e-06
5.57358e-06
1.37185e-06
5.56676e-06
5.56375e-06
4.18772e-06
2.25917e-06
2.25616e-06
4.18106e-06
9.44963e-06
9.5188e-06
4.16869e-06
4.18005e-06
9.38168e-06
9.43898e-06
4.16974e-06
1.13511e-06
1.13563e-06
8.70063e-07
2.25277e-06
3.58159e-06
3.5852e-06
2.24295e-06
8.66974e-07
1.13476e-06
1.12306e-06
2.25076e-06
3.59316e-06
3.56662e-06
2.2433e-06
1.87574e-05
1.87871e-05
1.34714e-06
5.59025e-06
5.59285e-06
5.53603e-06
5.53339e-06
1.87502e-05
1.87815e-05
8.67246e-07
1.12308e-06
8.6533e-07
2.25074e-06
3.59933e-06
3.56505e-06
2.25137e-06
4.18206e-06
9.36845e-06
9.42432e-06
4.18486e-06
1.13703e-06
3.60568e-06
8.6906e-07
1.13717e-06
3.60648e-06
2.25543e-06
2.25428e-06
9.46e-06
4.18588e-06
4.18611e-06
1.88139e-05
1.8823e-05
1.38292e-06
5.58204e-06
9.36714e-06
4.17319e-06
8.70632e-07
3.59362e-06
2.24363e-06
1.15097e-06
3.61273e-06
2.2446e-06
5.6178e-06
5.6206e-06
1.87515e-05
2.2382e-06
1.13893e-06
8.71726e-07
9.49785e-06
1.11723e-06
8.68767e-07
3.52142e-06
4.21292e-06
9.35803e-06
4.19147e-06
1.13696e-06
3.60598e-06
2.2692e-06
1.13722e-06
2.25723e-06
8.74293e-07
3.60431e-06
4.20598e-06
4.19046e-06
9.43065e-06
5.46958e-06
5.47351e-06
1.88468e-05
8.72474e-07
2.25035e-06
3.60509e-06
1.13726e-06
3.59167e-06
9.48816e-06
9.45517e-06
9.44733e-06
1.8845e-05
1.88498e-05
1.88532e-05
1.25411e-05
1.11242e-05
4.78112e-06
4.17417e-06
1.11273e-05
4.79623e-06
1.25363e-05
1.25304e-05
4.79597e-06
1.11181e-05
4.18656e-06
4.80913e-06
1.11212e-05
1.25255e-05
1.25146e-05
4.83057e-06
1.11155e-05
4.19566e-06
4.84124e-06
1.11173e-05
1.25138e-05
1.88353e-05
2.24689e-05
9.43838e-06
7.16696e-06
7.16828e-06
2.24586e-05
4.73559e-06
2.96882e-06
9.71376e-06
5.59549e-06
4.72453e-06
9.70381e-06
2.97661e-06
1.2503e-05
1.11128e-05
4.77278e-06
4.14797e-06
1.25183e-05
1.11043e-05
4.77081e-06
2.24498e-05
7.16716e-06
9.42703e-06
2.24477e-05
7.16687e-06
1.24984e-05
4.78778e-06
1.11091e-05
4.16065e-06
1.25101e-05
4.78403e-06
1.11034e-05
1.25082e-05
4.82057e-06
1.11099e-05
4.17049e-06
1.25102e-05
4.81252e-06
1.11067e-05
1.88296e-05
2.26607e-05
9.50181e-06
7.1322e-06
7.13764e-06
2.26334e-05
1.25335e-05
4.80663e-06
1.11223e-05
4.17918e-06
4.81693e-06
1.1126e-05
1.25263e-05
2.26817e-05
7.06004e-06
9.56273e-06
7.08422e-06
2.26809e-05
1.89445e-05
4.37751e-06
2.79751e-06
9.79711e-06
5.49051e-06
2.79475e-06
9.90534e-06
4.42381e-06
9.26365e-06
2.1966e-05
2.1958e-05
2.2505e-05
2.24904e-05
9.27966e-06
4.37311e-06
2.79815e-06
9.78628e-06
5.49168e-06
9.89392e-06
2.79486e-06
4.42053e-06
1.89351e-05
2.26417e-05
7.07669e-06
9.55008e-06
7.09857e-06
2.26444e-05
2.25505e-05
7.17045e-06
9.45824e-06
7.18314e-06
2.25473e-05
2.25583e-05
9.4615e-06
7.20144e-06
2.25571e-05
7.19181e-06
4.65e-06
2.9366e-06
9.78016e-06
5.59027e-06
9.78309e-06
4.63942e-06
2.94183e-06
9.86082e-06
2.20854e-05
2.21128e-05
2.2058e-05
2.20803e-05
9.84655e-06
4.65889e-06
2.94098e-06
9.79835e-06
5.5993e-06
2.94846e-06
9.79772e-06
4.6466e-06
4.65874e-06
5.59142e-06
2.94637e-06
9.80218e-06
9.79143e-06
2.94499e-06
4.66481e-06
9.87018e-06
2.20571e-05
2.20731e-05
2.20544e-05
2.20736e-05
9.87428e-06
4.67005e-06
5.60241e-06
2.95391e-06
9.8037e-06
2.95255e-06
9.79948e-06
4.67614e-06
1.88522e-05
1.88568e-05
1.88691e-05
1.25219e-05
1.11136e-05
4.8255e-06
4.19984e-06
1.11106e-05
4.83822e-06
1.25269e-05
2.24395e-05
7.14801e-06
9.39366e-06
2.24803e-05
7.16528e-06
1.24797e-05
4.18149e-06
1.10946e-05
4.81186e-06
1.24903e-05
1.10893e-05
4.82566e-06
1.87722e-05
2.25093e-05
7.1343e-06
9.41606e-06
2.25629e-05
7.1412e-06
1.25008e-05
4.80059e-06
1.11119e-05
4.15656e-06
1.25114e-05
4.79908e-06
1.11049e-05
1.88018e-05
4.6264e-06
2.93266e-06
9.77951e-06
5.58291e-06
4.6329e-06
2.92903e-06
9.78159e-06
9.81915e-06
2.21274e-05
2.21533e-05
9.83417e-06
2.21781e-05
2.2201e-05
4.62886e-06
2.93473e-06
9.80128e-06
5.58111e-06
4.63737e-06
2.92889e-06
9.80803e-06
9.80978e-06
2.22185e-05
2.22299e-05
2.22028e-05
2.22208e-05
9.80391e-06
4.62479e-06
5.58244e-06
9.79032e-06
2.92648e-06
2.92722e-06
9.78579e-06
4.62476e-06
4.62486e-06
5.57696e-06
9.81261e-06
2.92299e-06
2.92511e-06
9.81118e-06
4.62389e-06
1.88799e-05
1.89151e-05
1.88874e-05
4.68475e-06
5.57069e-06
2.95705e-06
9.73938e-06
2.94366e-06
9.77571e-06
4.70737e-06
4.68067e-06
2.95447e-06
5.55937e-06
9.73204e-06
9.77321e-06
2.93935e-06
4.70537e-06
4.65145e-06
2.91163e-06
9.87139e-06
5.55862e-06
4.6223e-06
9.82286e-06
2.92165e-06
9.81965e-06
2.17644e-05
2.17324e-05
2.18324e-05
2.18656e-05
9.87191e-06
1.25069e-05
1.11081e-05
4.82237e-06
4.19686e-06
1.11065e-05
4.83147e-06
1.25072e-05
1.25239e-05
1.11136e-05
4.81524e-06
4.17386e-06
1.25268e-05
1.11121e-05
4.80744e-06
2.25825e-05
9.47937e-06
7.13098e-06
2.2544e-05
7.12689e-06
2.26169e-05
7.13877e-06
9.50821e-06
2.26226e-05
7.12898e-06
1.25135e-05
4.16979e-06
1.11016e-05
4.8044e-06
1.25043e-05
1.11063e-05
4.80401e-06
1.25e-05
1.11073e-05
4.81459e-06
4.17378e-06
1.25038e-05
1.11052e-05
4.80955e-06
2.25282e-05
9.39871e-06
7.13442e-06
7.12047e-06
2.25064e-05
2.25646e-05
7.12054e-06
9.41968e-06
2.25759e-05
7.11725e-06
1.24917e-05
4.17034e-06
1.10964e-05
4.80978e-06
1.10999e-05
4.80782e-06
1.24859e-05
1.87606e-05
1.87745e-05
9.7823e-06
2.17028e-05
2.16933e-05
2.16615e-05
2.16514e-05
9.70113e-06
4.74212e-06
3.00049e-06
5.56912e-06
9.62255e-06
2.97266e-06
9.62292e-06
4.78931e-06
4.73781e-06
3.00108e-06
5.56998e-06
9.6133e-06
9.61419e-06
2.97232e-06
4.78576e-06
4.68855e-06
2.91374e-06
9.65295e-06
5.54895e-06
2.94192e-06
9.63314e-06
4.63765e-06
4.68421e-06
2.91147e-06
9.6479e-06
5.54893e-06
9.62591e-06
2.94096e-06
4.63288e-06
9.87992e-06
2.16571e-05
2.16498e-05
2.16452e-05
2.16358e-05
9.97826e-06
1.87532e-05
1.87672e-05
1.24861e-05
4.81659e-06
1.10995e-05
4.18074e-06
4.81651e-06
1.10961e-05
1.24922e-05
2.24787e-05
9.38292e-06
7.15506e-06
7.13902e-06
2.24663e-05
2.25124e-05
7.12337e-06
9.40271e-06
7.12559e-06
2.25298e-05
1.24768e-05
4.18126e-06
4.82864e-06
1.10875e-05
4.82054e-06
1.10907e-05
1.24721e-05
2.25004e-05
9.44924e-06
7.17195e-06
7.1689e-06
2.25218e-05
1.25016e-05
4.82798e-06
1.11037e-05
4.18425e-06
1.11007e-05
4.82631e-06
1.25063e-05
1.24934e-05
4.82815e-06
4.18422e-06
1.10925e-05
1.10956e-05
4.82639e-06
1.24892e-05
1.87937e-05
1.8801e-05
4.73715e-06
2.9684e-06
9.70239e-06
5.59535e-06
4.72554e-06
9.68901e-06
2.97729e-06
9.97284e-06
2.1715e-05
2.16887e-05
9.92487e-06
2.16925e-05
2.17152e-05
2.24418e-05
7.15741e-06
9.35822e-06
2.24652e-05
7.18119e-06
1.24734e-05
4.18406e-06
1.10908e-05
4.81996e-06
1.1087e-05
1.24775e-05
4.83445e-06
4.85838e-06
3.02586e-06
9.63381e-06
5.64358e-06
9.66968e-06
4.83053e-06
3.04473e-06
4.85511e-06
3.02667e-06
9.62411e-06
5.64717e-06
3.04586e-06
4.82699e-06
9.66109e-06
1.01567e-05
2.16962e-05
2.16929e-05
2.17628e-05
1.00764e-05
2.17622e-05
1.87696e-05
2.25928e-05
7.04867e-06
9.44686e-06
2.26456e-05
7.04858e-06
1.24708e-05
4.20629e-06
4.86888e-06
1.10907e-05
4.86011e-06
1.1085e-05
1.24807e-05
2.24326e-05
7.178e-06
9.35414e-06
7.19955e-06
2.24404e-05
1.24684e-05
4.19814e-06
4.83871e-06
1.10845e-05
4.84843e-06
1.24683e-05
1.10842e-05
2.24215e-05
7.22568e-06
1.24847e-05
4.20087e-06
1.10928e-05
4.84504e-06
1.10891e-05
4.84017e-06
1.24887e-05
1.24846e-05
4.83154e-06
4.1951e-06
1.10894e-05
1.2485e-05
1.10889e-05
4.83514e-06
2.24533e-05
9.42736e-06
7.16976e-06
7.16832e-06
2.24711e-05
4.57805e-06
2.82298e-06
9.68238e-06
5.47507e-06
4.50925e-06
9.58763e-06
2.86648e-06
9.4765e-06
2.15123e-05
2.15097e-05
9.37806e-06
2.12278e-05
2.12293e-05
4.57434e-06
2.82516e-06
9.67243e-06
5.47977e-06
4.50583e-06
2.86849e-06
9.57914e-06
1.87956e-05
2.25873e-05
7.066e-06
9.44273e-06
2.26218e-05
7.0644e-06
2.25285e-05
7.16001e-06
9.45397e-06
2.25338e-05
7.14807e-06
2.25127e-05
9.45066e-06
7.1352e-06
7.1405e-06
2.25051e-05
1.88331e-05
1.88507e-05
1.88502e-05
1.61643e-06
1.49201e-06
2.46482e-06
2.24702e-06
1.50168e-06
2.47669e-06
1.60423e-06
2.59098e-06
1.82192e-06
1.82237e-06
1.30937e-06
1.82073e-06
1.82106e-06
2.61681e-06
2.79613e-06
1.93232e-06
1.93402e-06
1.37405e-06
1.9399e-06
2.78695e-06
1.93737e-06
3.67616e-07
3.6723e-07
1.71438e-07
2.77579e-06
1.93088e-06
1.93183e-06
1.36826e-06
2.78125e-06
1.92653e-06
1.92664e-06
2.8709e-06
1.38009e-06
1.98853e-06
1.98882e-06
1.96683e-06
1.96679e-06
2.90482e-06
2.95e-06
2.01159e-06
2.01194e-06
1.4199e-06
2.02493e-06
2.93284e-06
2.02444e-06
1.79873e-06
2.96414e-06
2.19244e-06
3.59855e-06
1.79842e-06
2.9692e-06
2.19755e-06
1.59613e-06
1.48973e-06
2.45734e-06
2.22633e-06
1.60175e-06
1.48456e-06
2.4543e-06
2.75029e-06
1.84056e-06
1.84154e-06
1.32009e-06
2.68846e-06
1.87512e-06
1.8741e-06
5.78957e-07
5.81778e-07
3.65036e-07
3.64724e-07
3.61977e-07
1.67318e-07
1.69375e-07
3.63993e-07
5.79344e-07
3.64004e-07
5.73886e-07
3.61151e-07
1.67388e-07
1.6944e-07
5.81247e-07
3.64434e-07
3.62287e-07
5.79704e-07
3.62073e-07
1.67482e-07
1.69412e-07
5.75362e-07
3.63828e-07
5.75435e-07
3.61405e-07
3.6155e-07
1.67149e-07
1.69107e-07
1.79965e-06
3.58624e-06
2.96276e-06
2.18382e-06
2.96506e-06
2.18206e-06
1.79651e-06
1.6252e-06
2.48704e-06
1.49599e-06
2.25149e-06
2.49251e-06
1.50406e-06
1.61848e-06
1.77664e-06
2.91763e-06
2.11861e-06
3.54324e-06
2.93248e-06
2.12603e-06
1.76493e-06
1.61905e-06
1.49621e-06
2.47284e-06
2.25465e-06
1.50502e-06
2.48328e-06
1.60762e-06
1.77869e-06
2.12042e-06
2.92465e-06
3.54636e-06
2.12724e-06
2.93832e-06
1.76766e-06
1.6342e-06
1.50285e-06
2.50613e-06
2.26315e-06
1.50921e-06
2.5119e-06
1.62888e-06
1.81327e-06
2.19606e-06
2.98742e-06
3.61416e-06
2.99336e-06
2.19983e-06
1.80913e-06
1.8128e-06
3.61616e-06
2.20172e-06
3.00111e-06
1.81595e-06
2.99695e-06
2.20033e-06
2.80281e-06
1.37271e-06
1.93975e-06
1.94251e-06
1.9409e-06
1.93808e-06
2.80573e-06
5.85721e-07
3.66958e-07
3.70036e-07
1.71404e-07
5.82496e-07
3.6667e-07
5.838e-07
3.69352e-07
1.71232e-07
5.76114e-07
3.66271e-07
1.71158e-07
1.64135e-06
2.27039e-06
2.53561e-06
1.51133e-06
2.52711e-06
1.50945e-06
1.64412e-06
1.82157e-06
2.2232e-06
2.99135e-06
3.63482e-06
1.81464e-06
2.23614e-06
3.00606e-06
1.62922e-06
1.50081e-06
2.26331e-06
2.50634e-06
1.62643e-06
2.51639e-06
1.50207e-06
1.83691e-06
3.02275e-06
1.60018e-06
1.49464e-06
2.4659e-06
2.23557e-06
1.60579e-06
1.48935e-06
2.46243e-06
1.76232e-06
2.12056e-06
2.9175e-06
3.52561e-06
1.76544e-06
2.12395e-06
2.91525e-06
2.77394e-06
1.3695e-06
1.9249e-06
1.92409e-06
1.9264e-06
1.92606e-06
2.77331e-06
2.79455e-06
1.91565e-06
1.36162e-06
1.91442e-06
1.92252e-06
2.76917e-06
1.92082e-06
2.81851e-06
1.36964e-06
1.94817e-06
1.94747e-06
1.93912e-06
1.93793e-06
2.83612e-06
1.63753e-06
1.50443e-06
2.50171e-06
2.26673e-06
2.51104e-06
1.51102e-06
1.62788e-06
1.62395e-06
1.50087e-06
2.49264e-06
2.26257e-06
2.49862e-06
1.5065e-06
1.61781e-06
1.61934e-06
1.50322e-06
2.49409e-06
2.24755e-06
1.62659e-06
2.48846e-06
1.49737e-06
1.79539e-06
2.1811e-06
3.57918e-06
2.96071e-06
2.17741e-06
2.95985e-06
1.79378e-06
1.79513e-06
2.17789e-06
2.96726e-06
3.57992e-06
2.1759e-06
1.80107e-06
2.96135e-06
1.61945e-06
1.49409e-06
2.24432e-06
2.48499e-06
2.48555e-06
1.49717e-06
1.61608e-06
1.61403e-06
1.50029e-06
2.48798e-06
2.2465e-06
1.61804e-06
2.48512e-06
1.4957e-06
1.79098e-06
2.20078e-06
3.57834e-06
2.96266e-06
2.95362e-06
2.1874e-06
1.79474e-06
1.7855e-06
2.16077e-06
2.95246e-06
3.56815e-06
1.78656e-06
2.95125e-06
2.1691e-06
1.61538e-06
1.49368e-06
2.24407e-06
2.4856e-06
2.4845e-06
1.49588e-06
1.61436e-06
2.8289e-06
1.3553e-06
1.91335e-06
1.91259e-06
1.93609e-06
1.93582e-06
2.78743e-06
1.61396e-06
1.49863e-06
2.48794e-06
2.24956e-06
2.48745e-06
1.49611e-06
1.61648e-06
1.79354e-06
2.20366e-06
3.58428e-06
2.97448e-06
1.79854e-06
2.1893e-06
2.9612e-06
1.78535e-06
2.15956e-06
2.95255e-06
3.56954e-06
2.1698e-06
2.95321e-06
1.78539e-06
1.61691e-06
1.49662e-06
2.24976e-06
2.49609e-06
1.6175e-06
2.48944e-06
1.4972e-06
1.80766e-06
2.19212e-06
3.60617e-06
2.98578e-06
2.19364e-06
2.98612e-06
1.80614e-06
1.80658e-06
3.60573e-06
2.19499e-06
2.98675e-06
2.1935e-06
2.98572e-06
1.80905e-06
1.62555e-06
1.50244e-06
2.50369e-06
2.25403e-06
1.49981e-06
2.50266e-06
1.62857e-06
1.62683e-06
1.49942e-06
2.50331e-06
2.25382e-06
1.5006e-06
2.50267e-06
1.62513e-06
2.85592e-06
1.95995e-06
1.96015e-06
1.38389e-06
2.84962e-06
1.96454e-06
1.96426e-06
1.80167e-06
2.19335e-06
2.96986e-06
3.6055e-06
2.9832e-06
1.79858e-06
2.20043e-06
1.61867e-06
1.49513e-06
2.24779e-06
2.48779e-06
2.49719e-06
1.61836e-06
1.49495e-06
1.81657e-06
2.2203e-06
2.98106e-06
3.62964e-06
1.80928e-06
2.99766e-06
2.2333e-06
1.6234e-06
1.49542e-06
2.2503e-06
2.49291e-06
1.62066e-06
2.50594e-06
1.49609e-06
1.61602e-06
2.48437e-06
1.49489e-06
2.23527e-06
1.61883e-06
2.48394e-06
1.49071e-06
1.75909e-06
2.91004e-06
2.1185e-06
3.52089e-06
1.76229e-06
2.9081e-06
2.12154e-06
1.80698e-06
2.19223e-06
2.98645e-06
3.60513e-06
2.1906e-06
1.808e-06
2.9861e-06
1.6311e-06
2.2654e-06
1.50722e-06
2.51203e-06
1.50655e-06
2.50978e-06
1.63047e-06
1.62716e-06
1.50195e-06
2.50531e-06
2.26095e-06
1.50191e-06
1.62796e-06
2.50736e-06
1.80916e-06
3.60524e-06
2.98639e-06
2.18954e-06
2.19075e-06
2.98667e-06
1.80817e-06
1.62391e-06
1.50196e-06
2.50024e-06
2.2458e-06
1.62902e-06
1.49686e-06
2.49568e-06
1.80478e-06
2.19435e-06
2.98269e-06
3.59904e-06
1.8093e-06
2.18897e-06
2.97689e-06
1.80498e-06
3.59573e-06
2.96969e-06
2.18398e-06
2.18748e-06
2.97308e-06
1.80124e-06
4.73926e-07
1.05204e-06
1.04888e-06
1.30332e-06
4.8984e-07
1.06441e-06
1.06485e-06
1.31289e-06
5.05215e-07
1.07607e-06
1.07867e-06
1.32859e-06
5.17793e-07
1.09329e-06
1.09148e-06
1.32929e-06
5.35281e-07
1.1018e-06
1.10293e-06
1.35785e-06
5.46169e-07
1.10954e-06
1.11183e-06
1.34048e-06
5.67658e-07
1.1325e-06
1.12622e-06
1.37274e-06
1.37454e-06
1.04742e-06
1.30238e-06
1.04748e-06
1.0473e-06
1.04721e-06
1.30023e-06
5.54023e-06
1.31329e-06
1.04891e-06
1.05195e-06
1.06192e-06
1.06193e-06
1.30708e-06
1.31165e-06
3.55984e-06
4.15886e-06
2.21475e-06
1.0617e-06
1.06066e-06
1.05051e-06
1.06191e-06
1.05933e-06
5.54148e-06
1.31135e-06
1.05039e-06
1.06064e-06
1.05902e-06
1.30787e-06
1.31711e-06
1.32286e-06
1.06567e-06
1.06452e-06
1.07555e-06
1.07283e-06
1.31432e-06
1.31826e-06
1.06542e-06
1.06498e-06
1.07551e-06
1.07572e-06
1.06339e-06
1.07269e-06
1.07684e-06
1.31628e-06
1.32316e-06
1.0631e-06
1.07561e-06
1.07676e-06
1.32605e-06
1.32637e-06
1.32621e-06
1.07876e-06
1.07611e-06
1.085e-06
1.08854e-06
1.32203e-06
1.33594e-06
1.07873e-06
1.07868e-06
1.08498e-06
1.08842e-06
1.07972e-06
1.08855e-06
1.08397e-06
1.32629e-06
1.33385e-06
1.07965e-06
1.08841e-06
1.08392e-06
1.32422e-06
1.32821e-06
1.35383e-06
1.08656e-06
1.09332e-06
1.10359e-06
1.10113e-06
1.34201e-06
1.34132e-06
1.08653e-06
1.09157e-06
1.10316e-06
1.0991e-06
1.08694e-06
1.10131e-06
1.10478e-06
1.33763e-06
1.34219e-06
1.08696e-06
1.09922e-06
1.10428e-06
1.35462e-06
1.36175e-06
1.34032e-06
1.10934e-06
1.10159e-06
1.11235e-06
1.10405e-06
1.34172e-06
1.33951e-06
1.1089e-06
1.10274e-06
1.11244e-06
1.11151e-06
1.10805e-06
1.10386e-06
1.10899e-06
1.34608e-06
1.34887e-06
1.10753e-06
1.11123e-06
1.10902e-06
1.33897e-06
1.33918e-06
1.3564e-06
1.10973e-06
1.11025e-06
1.11296e-06
1.13077e-06
1.35105e-06
1.38683e-06
1.11011e-06
1.11221e-06
1.1124e-06
1.11604e-06
1.1088e-06
1.13107e-06
1.12037e-06
1.34968e-06
1.35687e-06
1.10901e-06
1.11608e-06
1.1198e-06
1.36618e-06
1.37219e-06
1.37501e-06
1.12379e-06
1.1321e-06
1.13858e-06
1.80072e-06
1.38761e-06
1.12226e-06
1.12564e-06
1.13811e-06
1.1452e-06
1.1268e-06
1.12281e-06
2.2725e-06
4.209e-06
1.37428e-06
1.39986e-06
1.12553e-06
1.14506e-06
1.13568e-06
1.37302e-06
1.89014e-05
1.89038e-05
1.12036e-06
2.26834e-06
4.20383e-06
9.31915e-06
3.55905e-06
1.04476e-06
1.86557e-05
5.54126e-06
1.29662e-06
5.54106e-06
1.86549e-05
4.70452e-07
4.70797e-07
4.16191e-06
9.31821e-06
4.15876e-06
9.32058e-06
1.86545e-05
1.86818e-05
9.31984e-06
4.15864e-06
4.15951e-06
9.3225e-06
4.7388e-07
4.74709e-07
4.74566e-07
4.85961e-07
4.86372e-07
4.85757e-07
4.85441e-07
2.22069e-06
3.56893e-06
7.60552e-07
1.05593e-06
2.21648e-06
3.57133e-06
7.65274e-07
1.86575e-05
1.86708e-05
3.56303e-06
2.21851e-06
7.60193e-07
1.05248e-06
2.21588e-06
7.64578e-07
3.56364e-06
5.54636e-06
5.54821e-06
1.30324e-06
5.54469e-06
5.54583e-06
4.16912e-06
9.32845e-06
4.16755e-06
9.34341e-06
1.86965e-05
1.86999e-05
4.17035e-06
9.32896e-06
4.16664e-06
9.34344e-06
4.8998e-07
4.89729e-07
4.89353e-07
5.0147e-07
5.00444e-07
5.01311e-07
5.01588e-07
2.22411e-06
3.57056e-06
7.77948e-07
1.06694e-06
2.22331e-06
3.56993e-06
7.81808e-07
1.86811e-05
1.86944e-05
2.2259e-06
7.77447e-07
3.57178e-06
1.06881e-06
2.22213e-06
7.8181e-07
3.57622e-06
5.54618e-06
5.54702e-06
1.31798e-06
5.55502e-06
5.55652e-06
4.17511e-06
9.35459e-06
4.17132e-06
9.3565e-06
1.87004e-05
1.87145e-05
4.17529e-06
9.35716e-06
4.17276e-06
9.35963e-06
5.04032e-07
5.0513e-07
5.05265e-07
5.14864e-07
5.15722e-07
5.1615e-07
5.14817e-07
2.23669e-06
3.57716e-06
7.93916e-07
1.07977e-06
2.23218e-06
3.58003e-06
7.98158e-07
1.87236e-05
1.87344e-05
2.23703e-06
7.94986e-07
3.58025e-06
1.08179e-06
2.2336e-06
7.99091e-07
3.58076e-06
5.56897e-06
5.57092e-06
1.32435e-06
5.56254e-06
5.56443e-06
4.17646e-06
9.36807e-06
4.17747e-06
9.37363e-06
1.87408e-05
1.8752e-05
4.17701e-06
9.36883e-06
4.1788e-06
9.37478e-06
5.19889e-07
5.196e-07
5.18402e-07
5.30773e-07
5.30585e-07
5.29853e-07
5.31053e-07
2.23816e-06
3.58599e-06
8.10098e-07
1.09731e-06
2.23768e-06
3.59344e-06
8.13939e-07
1.87368e-05
1.87479e-05
2.23855e-06
8.10262e-07
3.58723e-06
1.094e-06
2.23855e-06
8.13753e-07
3.58785e-06
5.55248e-06
5.55447e-06
1.33948e-06
5.56511e-06
5.56704e-06
4.19652e-06
9.36633e-06
4.18721e-06
9.37128e-06
1.8768e-05
1.87864e-05
4.19472e-06
9.3695e-06
4.18048e-06
9.37155e-06
5.33364e-07
5.33544e-07
5.34765e-07
5.44392e-07
5.41598e-07
5.44083e-07
5.43594e-07
2.25478e-06
3.59942e-06
8.25823e-07
1.10198e-06
2.25133e-06
3.5875e-06
8.29238e-07
1.87717e-05
1.87783e-05
2.25358e-06
8.24705e-07
3.58876e-06
1.10674e-06
2.24592e-06
8.28849e-07
3.59814e-06
5.60068e-06
5.60098e-06
1.34898e-06
5.59284e-06
5.59338e-06
4.17599e-06
9.43319e-06
4.1887e-06
9.44238e-06
1.87755e-05
1.87635e-05
4.18257e-06
9.43048e-06
4.20287e-06
9.44543e-06
5.4588e-07
5.46348e-07
5.46187e-07
5.54695e-07
5.5945e-07
5.5509e-07
5.55634e-07
2.24319e-06
3.57917e-06
8.37271e-07
1.11911e-06
2.24555e-06
3.59905e-06
8.40348e-07
1.87811e-05
1.8805e-05
2.24929e-06
8.39728e-07
3.60474e-06
1.11216e-06
2.2575e-06
8.41838e-07
3.58637e-06
5.55438e-06
5.56044e-06
1.34541e-06
5.5534e-06
5.56001e-06
4.21562e-06
9.3587e-06
4.18997e-06
9.34488e-06
1.88152e-05
1.88699e-05
4.19869e-06
9.36966e-06
4.16618e-06
9.34588e-06
5.71215e-07
5.59115e-07
5.62642e-07
5.60703e-07
5.59349e-07
5.71126e-07
1.61689e-07
2.27597e-06
3.63638e-06
8.53453e-07
1.13197e-06
2.26544e-06
3.63075e-06
8.57918e-07
1.88102e-05
1.87912e-05
2.26231e-06
8.48631e-07
3.58196e-06
1.13717e-06
2.24394e-06
8.54359e-07
3.63003e-06
5.60401e-06
5.60168e-06
1.37478e-06
5.61934e-06
5.61254e-06
5.60577e-06
5.59507e-06
1.37423e-06
5.60935e-06
5.60613e-06
1.86592e-05
1.866e-05
5.53875e-06
1.2962e-06
5.53803e-06
9.31764e-06
4.15785e-06
9.30958e-06
4.15853e-06
1.04494e-06
3.55863e-06
7.55491e-07
2.21352e-06
3.56604e-06
7.5549e-07
2.21412e-06
1.86503e-05
5.54954e-06
5.54852e-06
1.86492e-05
3.5662e-06
7.55646e-07
2.21497e-06
9.30958e-06
4.16014e-06
7.55895e-07
3.56481e-06
2.21482e-06
9.31603e-06
4.15982e-06
1.04531e-06
3.56212e-06
7.55693e-07
2.21482e-06
7.55922e-07
3.56559e-06
2.21508e-06
9.31569e-06
4.15993e-06
9.31694e-06
4.16012e-06
5.54585e-06
5.54786e-06
1.86604e-05
1.8663e-05
1.86597e-05
1.86642e-05
1.86604e-05
1.86662e-05
1.30104e-06
5.53964e-06
1.30521e-06
5.54533e-06
5.54642e-06
1.86736e-05
1.86636e-05
1.86759e-05
1.86659e-05
1.31039e-06
5.55472e-06
5.55543e-06
5.549e-06
5.5501e-06
4.16273e-06
9.31188e-06
4.15969e-06
9.32633e-06
2.21822e-06
3.55952e-06
7.59892e-07
1.05328e-06
2.21446e-06
3.56462e-06
7.64381e-07
2.21919e-06
3.56872e-06
7.60348e-07
1.05583e-06
2.21526e-06
3.57093e-06
7.65059e-07
4.16321e-06
9.32615e-06
9.3211e-06
4.16672e-06
4.16378e-06
9.34011e-06
9.32926e-06
4.16622e-06
2.21955e-06
1.05774e-06
3.57334e-06
7.73505e-07
3.56828e-06
7.68918e-07
2.22382e-06
2.22025e-06
1.05911e-06
3.5712e-06
7.73861e-07
3.5717e-06
7.69569e-07
2.2235e-06
5.55258e-06
5.55132e-06
1.30871e-06
5.55456e-06
5.55389e-06
1.86535e-05
1.86811e-05
1.86964e-05
1.86842e-05
1.31181e-06
5.55205e-06
5.55061e-06
5.55489e-06
5.55392e-06
1.86957e-05
1.86836e-05
2.2145e-06
1.04882e-06
7.59875e-07
2.21659e-06
1.05314e-06
3.56465e-06
7.6423e-07
9.31787e-06
4.1594e-06
9.32485e-06
3.56227e-06
1.04849e-06
7.59954e-07
2.2166e-06
1.05229e-06
7.64313e-07
3.56294e-06
4.16067e-06
9.32692e-06
9.32293e-06
4.16518e-06
2.2177e-06
1.05756e-06
3.57334e-06
7.732e-07
3.5683e-06
7.6868e-07
2.22245e-06
4.16044e-06
9.32868e-06
9.32562e-06
4.1645e-06
2.21753e-06
1.05636e-06
7.73019e-07
3.56934e-06
7.68655e-07
3.56439e-06
2.22186e-06
4.16471e-06
9.31197e-06
4.16152e-06
9.32739e-06
2.22013e-06
7.6051e-07
3.56626e-06
1.0533e-06
2.2162e-06
7.6497e-07
3.56658e-06
4.16417e-06
9.31802e-06
4.16109e-06
9.32831e-06
2.22155e-06
1.05916e-06
3.57057e-06
7.73956e-07
3.57191e-06
7.69748e-07
2.22296e-06
4.16516e-06
9.34205e-06
9.33087e-06
4.16503e-06
2.22098e-06
1.05605e-06
7.73419e-07
3.56561e-06
7.69267e-07
3.56676e-06
2.22251e-06
4.16465e-06
9.33502e-06
9.32982e-06
4.16476e-06
1.30038e-06
5.54174e-06
1.30273e-06
5.54266e-06
5.54289e-06
1.86572e-05
1.86699e-05
1.86807e-05
1.86719e-05
1.30752e-06
5.5514e-06
5.55019e-06
5.54486e-06
5.54435e-06
1.86798e-05
1.86707e-05
2.21885e-06
7.60463e-07
3.5668e-06
1.05309e-06
2.21617e-06
7.64819e-07
3.56662e-06
9.31735e-06
4.16199e-06
4.16074e-06
9.32528e-06
4.16237e-06
9.31907e-06
4.16089e-06
9.3296e-06
2.21919e-06
1.05644e-06
7.7315e-07
3.56879e-06
7.68879e-07
3.56485e-06
2.22128e-06
2.21948e-06
1.05577e-06
7.73104e-07
3.56538e-06
7.69021e-07
3.56665e-06
2.22103e-06
4.16238e-06
9.33058e-06
9.32623e-06
4.16307e-06
4.16254e-06
9.3351e-06
9.33102e-06
4.16285e-06
1.8662e-05
1.8674e-05
1.86647e-05
1.86763e-05
1.30619e-06
5.54442e-06
5.54513e-06
5.54455e-06
5.54549e-06
1.86836e-05
1.86751e-05
1.86857e-05
1.86774e-05
1.8677e-05
1.87031e-05
1.86792e-05
1.87054e-05
5.55656e-06
5.55744e-06
1.31809e-06
5.55792e-06
5.55909e-06
1.87174e-05
1.87059e-05
1.87211e-05
1.87085e-05
1.32151e-06
5.55994e-06
5.56172e-06
5.55827e-06
5.55971e-06
4.1682e-06
9.34143e-06
4.16678e-06
9.34451e-06
2.22759e-06
3.57522e-06
7.78036e-07
1.06912e-06
2.22497e-06
3.57599e-06
7.82429e-07
2.22669e-06
3.57139e-06
7.77978e-07
1.06711e-06
2.22435e-06
3.57119e-06
7.8196e-07
4.16939e-06
9.35409e-06
9.34645e-06
4.17026e-06
4.16858e-06
9.34437e-06
9.3444e-06
4.17077e-06
2.22824e-06
1.07236e-06
3.57686e-06
7.90582e-07
3.57628e-06
7.86592e-07
2.22997e-06
2.22743e-06
1.06985e-06
3.57522e-06
7.899e-07
3.57231e-06
7.85903e-07
2.22996e-06
5.55192e-06
5.55003e-06
1.31431e-06
5.55076e-06
5.54848e-06
1.86958e-05
1.86985e-05
1.87004e-05
1.86985e-05
1.31734e-06
5.55463e-06
5.55291e-06
5.55184e-06
5.54931e-06
1.86978e-05
1.86969e-05
2.22829e-06
3.57537e-06
7.77754e-07
1.06893e-06
2.22403e-06
3.57664e-06
7.82217e-07
4.17028e-06
9.32925e-06
4.16628e-06
9.33647e-06
2.2282e-06
7.77453e-07
3.5728e-06
1.06901e-06
2.22347e-06
7.81933e-07
3.57749e-06
4.17111e-06
9.35634e-06
9.34682e-06
4.17243e-06
2.22934e-06
1.07226e-06
3.57795e-06
7.90727e-07
3.57713e-06
7.8656e-07
2.23163e-06
4.1714e-06
9.35513e-06
9.33953e-06
4.17294e-06
2.22939e-06
1.07258e-06
7.90823e-07
3.57987e-06
7.86441e-07
3.57929e-06
2.23203e-06
4.16478e-06
9.34339e-06
4.16481e-06
9.34508e-06
2.22403e-06
7.77513e-07
3.56609e-06
1.06805e-06
2.22292e-06
7.8165e-07
3.57153e-06
4.16469e-06
9.33528e-06
4.16455e-06
9.33639e-06
2.22504e-06
1.06966e-06
3.57481e-06
7.89709e-07
3.57104e-06
7.85685e-07
2.23026e-06
4.16567e-06
9.34236e-06
9.34447e-06
4.1719e-06
2.22518e-06
1.07278e-06
7.9032e-07
3.58343e-06
7.85925e-07
3.57607e-06
2.231e-06
4.16579e-06
9.34041e-06
9.33661e-06
4.17239e-06
5.55505e-06
5.55353e-06
1.31887e-06
5.56053e-06
5.55832e-06
1.86803e-05
1.86924e-05
1.87213e-05
1.86978e-05
1.32253e-06
5.56197e-06
5.56065e-06
5.562e-06
5.55997e-06
1.87178e-05
1.86954e-05
2.22507e-06
7.77207e-07
3.56601e-06
1.06783e-06
2.22171e-06
7.81441e-07
3.5724e-06
4.16721e-06
9.33127e-06
4.16398e-06
9.3369e-06
4.1665e-06
9.33515e-06
4.16317e-06
9.33593e-06
2.22733e-06
1.07239e-06
7.90669e-07
3.57965e-06
7.86243e-07
3.57822e-06
2.23222e-06
2.22667e-06
1.07264e-06
7.9046e-07
3.58454e-06
7.85892e-07
3.57701e-06
2.23247e-06
4.16899e-06
9.35207e-06
9.33891e-06
4.17373e-06
4.16816e-06
9.34152e-06
9.33616e-06
4.17404e-06
1.8684e-05
1.86899e-05
1.86861e-05
1.86916e-05
1.32353e-06
5.5678e-06
5.56978e-06
5.55981e-06
5.56149e-06
1.87001e-05
1.86896e-05
1.8703e-05
1.86914e-05
1.87171e-05
1.87187e-05
1.87209e-05
1.87231e-05
5.56188e-06
5.56358e-06
1.32659e-06
5.56348e-06
5.56506e-06
1.87259e-05
1.87178e-05
1.87296e-05
1.87222e-05
1.32872e-06
5.55772e-06
5.55956e-06
5.56336e-06
5.56494e-06
4.17506e-06
9.34441e-06
4.17172e-06
9.35054e-06
2.23483e-06
3.57883e-06
7.94533e-07
1.0816e-06
2.2309e-06
3.58244e-06
7.98484e-07
2.23463e-06
3.57722e-06
7.93986e-07
1.07973e-06
2.23103e-06
3.57947e-06
7.98078e-07
4.17616e-06
9.36561e-06
9.35728e-06
4.17757e-06
4.17583e-06
9.36493e-06
9.35304e-06
4.17713e-06
2.23608e-06