/*--------------------------------*- C++ -*----------------------------------*\
| =========                 |                                                 |
| \\      /  F ield         | OpenFOAM: The Open Source CFD Toolbox           |
|  \\    /   O peration     | Version:  v2006                                 |
|   \\  /    A nd           | Website:  www.openfoam.com                      |
|    \\/     M anipulation  |                                                 |
\*---------------------------------------------------------------------------*/
FoamFile
{
    version     2.0;
    format      ascii;
    class       volScalarField;
    location    "500";
    object      nut;
}
// * * * * * * * * * * * * * * * * * * * * * * * * * * * * * * * * * * * * * //

dimensions      [0 2 -1 0 0 0 0];


internalField   nonuniform List<scalar> 
14212
(
9.75976e-05
5.03937e-05
2.37785e-05
5.04056e-05
0.000177708
9.47061e-05
2.37634e-05
2.37608e-05
0.000167568
7.35494e-05
7.45325e-05
9.72395e-05
5.03651e-05
0.000140582
0.000187454
9.945e-05
0.000194961
0.00013942
0.000177826
9.51665e-05
0.000192002
0.000151684
7.02388e-05
7.00381e-05
2.37814e-05
0.000187989
0.000101312
5.03757e-05
3.65343e-05
9.91436e-05
4.08564e-05
9.15993e-05
4.08586e-05
9.33019e-05
3.65305e-05
2.0208e-05
7.55983e-05
5.04109e-05
7.70709e-05
2.02013e-05
2.37639e-05
5.04376e-05
2.37635e-05
2.37636e-05
6.95765e-05
2.15199e-05
2.15192e-05
2.1487e-05
2.14909e-05
6.97444e-05
9.37351e-05
4.82633e-05
7.4894e-05
0.000117934
4.82511e-05
9.37836e-05
0.000119182
9.44451e-05
7.58477e-05
4.8278e-05
0.000119004
4.82718e-05
9.45392e-05
0.000120056
3.65309e-05
9.86883e-05
4.0857e-05
9.07204e-05
4.08577e-05
9.21929e-05
3.65314e-05
2.02095e-05
7.43816e-05
5.03642e-05
7.5654e-05
2.02051e-05
2.15536e-05
2.15574e-05
6.60432e-05
8.53733e-05
4.83567e-05
7.08348e-05
0.000108657
4.82756e-05
0.000108871
8.61574e-05
4.83683e-05
0.000108289
8.59903e-05
0.000183244
0.000173773
0.000178367
0.00017336
0.000129794
0.000124301
0.000169559
0.000147096
0.000147554
0.000124005
0.000148635
0.000148985
0.000168061
0.000142943
0.000133665
0.00017086
0.000136374
0.000172186
0.00016594
0.000157514
0.000118201
0.00010147
0.000139206
0.000120882
0.00014169
0.000154692
0.000163058
0.000141625
0.000130606
0.00016899
0.00013279
0.000170593
0.000160845
0.000148976
0.000113885
9.65935e-05
0.00013037
0.000115995
0.000146881
0.000131713
0.000110627
0.000152381
0.000132798
0.000132653
0.000132907
0.00013306
0.000110935
0.000103206
0.000140971
0.000143096
6.45455e-05
2.15229e-05
2.15263e-05
8.51877e-05
7.04928e-05
0.000108479
4.82821e-05
2.37658e-05
5.0364e-05
9.58823e-05
0.000131009
0.000131912
0.000165481
9.58703e-05
0.000131837
0.000164725
0.000165256
9.83193e-05
9.58361e-05
5.0276e-05
0.000164716
9.82844e-05
5.02741e-05
0.000155945
7.55723e-05
7.5546e-05
2.37038e-05
2.3703e-05
3.64139e-05
9.12545e-05
4.07039e-05
9.58486e-05
3.6411e-05
9.12212e-05
4.07073e-05
3.64133e-05
4.07044e-05
9.11945e-05
9.5828e-05
3.64102e-05
4.07079e-05
9.11824e-05
2.01676e-05
7.74016e-05
5.02818e-05
2.0166e-05
7.73941e-05
5.028e-05
8.00778e-05
2.15636e-05
2.15606e-05
7.99788e-05
2.15658e-05
2.15629e-05
0.000101087
4.82221e-05
0.00011976
7.56446e-05
0.000100857
0.000120047
4.82306e-05
0.000101088
4.82107e-05
0.000119718
7.56256e-05
0.000100851
0.000120007
4.82196e-05
2.37068e-05
2.3706e-05
0.000151082
0.000149893
0.000126969
0.000153116
0.000131967
0.000149851
0.000126934
0.000153213
0.000149711
0.000153019
0.000126775
0.000131918
0.000149616
0.000153132
0.000126842
0.000142942
0.000114624
0.000133403
9.83998e-05
0.000142822
0.000114698
0.00013354
0.000133361
9.83647e-05
0.000133497
0.000128141
0.000156221
0.000143586
0.000143564
0.0001278
0.000143843
0.000143821
2.0169e-05
7.74752e-05
2.01675e-05
7.74424e-05
0.000143082
0.000114826
0.000143101
0.000114748
7.43535e-05
2.02144e-05
0.000112985
0.00014583
0.000103995
0.000146906
0.00019807
0.000192447
0.000187107
0.000102367
0.000101251
0.000174182
2.3783e-05
0.000182334
0.000180889
0.00019638
0.000174136
0.000188904
0.000191822
0.000163058
0.000186348
0.000192875
5.05028e-05
7.93197e-05
0.000189003
0.000193508
0.000157976
0.000106784
0.000104778
0.000148991
0.000193967
5.04941e-05
0.000197191
0.00018827
0.000103112
0.000101906
2.3781e-05
0.000168635
0.000170472
0.000170814
0.000171894
5.05888e-05
0.000103518
0.000186922
0.00010718
0.000146076
0.000189163
0.000190654
0.000185995
5.07144e-05
0.000196474
0.000191825
0.000112896
0.000191569
0.000186352
2.38214e-05
8.70751e-05
8.66501e-05
2.38194e-05
0.000196484
0.00014499
0.000112262
0.000191783
0.000187251
0.000190866
0.000143032
0.000102987
0.000185704
0.000188094
0.000102742
5.06953e-05
5.05439e-05
5.05557e-05
7.73263e-05
7.78167e-05
0.000174042
7.90002e-05
7.81612e-05
2.37987e-05
2.37912e-05
2.38003e-05
0.000100064
5.04932e-05
0.000101985
2.37509e-05
5.05348e-05
0.000104084
0.000172687
0.000172821
0.000173803
0.000193016
0.00013746
9.94742e-05
0.00014198
0.000191583
2.37972e-05
0.000197071
0.000146611
0.000112679
7.70014e-05
7.78609e-05
0.000174482
7.68245e-05
7.81413e-05
2.37953e-05
2.38287e-05
2.37995e-05
0.000179803
8.09354e-05
0.000178679
8.09595e-05
8.19697e-05
0.000100223
0.000140111
0.000140929
0.000101166
5.0549e-05
5.06614e-05
0.000102262
0.000101095
5.04188e-05
5.05225e-05
0.000101852
0.000187785
0.000189548
0.000192686
0.000142272
0.000107393
0.000106745
0.000145458
0.000193471
0.000186408
0.000189795
0.000142552
0.000102222
0.00010605
0.000144663
2.37515e-05
2.3766e-05
0.000179014
7.51647e-05
7.47061e-05
7.94755e-05
7.95839e-05
2.375e-05
2.37654e-05
0.0001937
0.000190001
0.000192641
0.000143321
0.000101479
0.000106424
0.000143172
0.000101004
5.03945e-05
5.04983e-05
0.000100217
0.000188091
0.000102879
0.000190568
0.000186819
0.000104028
0.00014273
0.000142943
5.0555e-05
0.000100763
0.000100177
2.37792e-05
2.37834e-05
0.00017595
7.87864e-05
5.03909e-05
0.000101497
0.000194904
0.000106292
0.000145382
0.000181076
0.000100315
0.000144491
7.34745e-05
7.29587e-05
2.37497e-05
0.000147683
0.000189067
0.000194554
5.06362e-05
0.000197142
0.000196412
0.000113406
9.65854e-05
5.03735e-05
9.91954e-05
0.000188624
0.000102266
0.000138766
0.000188725
0.000142206
0.000194003
0.000101632
9.72313e-05
9.93019e-05
5.04969e-05
8.69582e-05
8.64838e-05
2.37959e-05
0.00019345
0.000144334
0.000103067
0.000189167
0.000103542
5.06209e-05
5.05403e-05
5.05276e-05
2.37879e-05
2.3789e-05
2.37902e-05
3.65995e-05
4.09071e-05
0.000100493
0.000102434
4.09094e-05
9.90223e-05
3.65967e-05
3.65922e-05
9.9026e-05
4.08995e-05
0.00010115
9.77878e-05
4.09023e-05
3.65889e-05
3.65735e-05
9.57519e-05
4.08954e-05
0.000100308
9.50816e-05
4.08971e-05
3.6573e-05
2.37854e-05
2.02291e-05
5.05154e-05
7.88734e-05
7.94258e-05
2.02256e-05
9.52644e-05
0.000125271
4.83038e-05
7.75352e-05
9.74289e-05
4.82796e-05
0.000122246
3.65667e-05
4.08946e-05
0.000101043
0.000104992
3.65811e-05
4.08843e-05
0.000101064
2.02221e-05
7.83678e-05
5.04921e-05
2.02218e-05
7.80521e-05
3.65642e-05
9.95659e-05
4.08893e-05
0.000103445
3.65752e-05
9.96649e-05
4.08825e-05
3.65681e-05
9.62216e-05
4.08891e-05
0.000102286
3.65699e-05
9.65109e-05
4.08854e-05
2.37819e-05
2.02886e-05
5.06371e-05
8.33576e-05
8.33123e-05
2.02817e-05
3.65956e-05
9.87877e-05
4.09051e-05
0.000102274
9.81155e-05
4.09082e-05
3.65897e-05
2.02926e-05
8.66062e-05
5.07334e-05
8.57519e-05
2.02932e-05
2.3832e-05
0.000136462
0.000150758
4.84601e-05
8.64834e-05
0.000151283
4.86364e-05
0.000131012
0.000117655
2.16031e-05
2.16035e-05
2.17836e-05
2.17817e-05
0.000106021
0.000136392
0.000150603
4.84618e-05
8.61567e-05
4.86377e-05
0.000151206
0.000130838
2.38304e-05
2.02818e-05
8.53275e-05
5.0715e-05
8.45553e-05
2.02835e-05
2.02524e-05
8.0236e-05
5.05457e-05
7.98773e-05
2.02516e-05
2.02545e-05
5.05515e-05
7.92216e-05
2.02539e-05
7.95759e-05
0.000103724
0.000126521
4.84095e-05
7.78032e-05
4.84155e-05
0.000103947
0.000126716
8.00911e-05
2.16077e-05
2.16134e-05
2.16003e-05
2.16041e-05
8.03054e-05
0.000103795
0.000126485
4.84201e-05
7.78185e-05
0.000126197
4.84195e-05
0.000104119
0.000103794
7.85025e-05
0.000128045
4.8449e-05
4.84306e-05
0.000127322
0.000104306
8.00812e-05
2.16012e-05
2.16032e-05
2.15997e-05
2.16027e-05
8.04254e-05
0.000103623
7.79879e-05
0.000126854
4.84313e-05
0.000126346
4.84232e-05
0.000103901
2.3793e-05
2.37923e-05
2.37977e-05
3.65819e-05
4.0893e-05
9.58948e-05
9.86529e-05
4.08886e-05
9.43218e-05
3.65879e-05
2.02222e-05
8.07117e-05
5.04462e-05
2.02352e-05
7.89023e-05
3.65442e-05
0.000100966
4.08719e-05
9.7021e-05
3.65551e-05
4.08653e-05
9.53176e-05
2.37553e-05
2.0245e-05
8.293e-05
5.04848e-05
2.02617e-05
8.16735e-05
3.65654e-05
9.89425e-05
4.08933e-05
0.00010421
3.65756e-05
9.87854e-05
4.08848e-05
2.37754e-05
0.000104789
0.000126513
4.84081e-05
7.68661e-05
0.00010419
0.000126669
4.84106e-05
8.23179e-05
2.16212e-05
2.16265e-05
8.09848e-05
2.16386e-05
2.1643e-05
0.000105542
0.000126793
4.84239e-05
7.7962e-05
0.000104578
0.000127232
4.84352e-05
8.32761e-05
2.16532e-05
2.16543e-05
2.16472e-05
2.16504e-05
8.37616e-05
0.000105499
7.68139e-05
4.84252e-05
0.000127038
0.000126809
4.84172e-05
0.000105905
0.000106362
7.80505e-05
4.84443e-05
0.0001283
0.000127828
4.84412e-05
0.000106731
2.38078e-05
2.38218e-05
2.38109e-05
0.000105566
8.1454e-05
0.000128975
4.83522e-05
0.000132074
4.84155e-05
0.000101028
0.0001057
0.000129253
8.19535e-05
4.83255e-05
4.83965e-05
0.000132811
0.0001009
0.000111027
0.000135346
4.85597e-05
8.21365e-05
0.00011432
4.84798e-05
0.000134669
8.00936e-05
2.1508e-05
2.14944e-05
2.15317e-05
2.15456e-05
7.53499e-05
3.65661e-05
4.08866e-05
9.59798e-05
9.9069e-05
4.08842e-05
9.50656e-05
3.65668e-05
3.65867e-05
4.08935e-05
9.70137e-05
0.000101945
3.65883e-05
4.08925e-05
9.76779e-05
2.02659e-05
5.06018e-05
8.24154e-05
2.02548e-05
8.29941e-05
2.02748e-05
8.27749e-05
5.0648e-05
2.02757e-05
8.30523e-05
3.65775e-05
0.000102239
4.08805e-05
9.77284e-05
3.65688e-05
4.08861e-05
9.78296e-05
3.6561e-05
4.08862e-05
9.65421e-05
0.000101682
3.65644e-05
4.08842e-05
9.67878e-05
2.02473e-05
5.04506e-05
8.01e-05
8.13042e-05
2.02405e-05
2.02577e-05
8.19219e-05
5.04886e-05
2.02605e-05
8.18683e-05
3.65531e-05
0.000101869
4.08738e-05
9.64708e-05
4.0878e-05
9.67808e-05
3.65476e-05
2.37535e-05
2.37602e-05
7.27211e-05
2.1485e-05
2.1484e-05
2.14681e-05
2.14673e-05
7.6787e-05
9.21788e-05
0.000115344
7.6739e-05
4.81288e-05
0.000118962
4.81323e-05
8.8895e-05
9.21026e-05
0.000115081
7.6436e-05
4.81297e-05
4.81343e-05
0.000118878
8.87448e-05
9.62598e-05
0.000127138
4.8191e-05
7.82151e-05
0.000123035
4.81538e-05
0.000100704
9.62716e-05
0.000127482
4.81976e-05
7.80986e-05
4.81574e-05
0.000123152
0.000100811
6.93142e-05
2.14618e-05
2.14621e-05
2.14601e-05
2.14599e-05
6.68073e-05
2.3752e-05
2.37588e-05
3.65499e-05
9.6373e-05
4.08762e-05
0.000101028
9.62318e-05
4.08721e-05
3.65558e-05
2.02335e-05
5.04222e-05
7.85325e-05
7.96977e-05
2.02294e-05
2.02442e-05
8.16835e-05
5.04593e-05
8.08764e-05
2.02495e-05
3.65405e-05
0.000100849
9.4487e-05
4.08612e-05
9.55448e-05
4.08654e-05
3.65355e-05
2.02391e-05
5.05356e-05
8.05054e-05
8.01387e-05
2.02456e-05
3.65633e-05
9.57172e-05
4.08819e-05
0.000100805
4.08783e-05
9.56772e-05
3.65677e-05
3.65551e-05
9.456e-05
0.000100677
4.08681e-05
4.08721e-05
9.52729e-05
3.65507e-05
2.377e-05
2.37729e-05
9.46741e-05
0.000125089
4.82729e-05
7.67457e-05
9.70457e-05
4.82509e-05
0.000121684
7.01299e-05
2.14871e-05
2.14765e-05
7.19722e-05
2.14751e-05
2.14835e-05
2.02201e-05
7.86639e-05
5.03726e-05
2.02276e-05
7.72109e-05
3.65343e-05
0.000100384
4.08669e-05
9.5347e-05
4.08621e-05
3.6539e-05
9.38613e-05
8.55764e-05
0.000112173
4.81405e-05
7.19922e-05
4.81914e-05
8.66215e-05
0.000109995
8.53828e-05
0.000111801
4.81408e-05
7.15115e-05
0.000109582
8.64376e-05
4.81925e-05
6.45087e-05
2.14721e-05
2.14737e-05
2.14925e-05
6.52121e-05
2.14951e-05
2.37555e-05
2.02705e-05
8.67415e-05
5.05465e-05
2.0285e-05
8.62738e-05
3.65319e-05
9.73364e-05
9.02626e-05
4.08623e-05
9.11007e-05
4.08567e-05
3.65403e-05
2.02182e-05
7.7238e-05
5.03643e-05
7.6058e-05
2.0221e-05
3.65306e-05
9.83032e-05
9.32963e-05
4.08571e-05
9.22162e-05
3.6531e-05
4.08563e-05
2.02141e-05
7.50061e-05
3.65451e-05
9.78023e-05
4.08662e-05
9.22303e-05
4.08627e-05
9.26037e-05
3.65481e-05
3.65453e-05
9.37699e-05
9.85736e-05
4.08639e-05
3.65461e-05
4.08629e-05
9.31803e-05
2.02228e-05
5.04922e-05
7.77096e-05
7.7813e-05
2.02276e-05
0.000106104
0.000147254
4.82668e-05
8.57847e-05
0.000117878
4.8103e-05
0.000139479
7.64616e-05
2.14421e-05
2.14442e-05
8.93318e-05
2.13362e-05
2.13397e-05
0.000105886
0.000146867
4.82695e-05
8.52202e-05
0.000117643
0.000138887
4.81076e-05
2.37748e-05
2.0269e-05
8.54766e-05
5.05408e-05
2.02783e-05
8.51666e-05
2.02462e-05
8.04837e-05
5.05384e-05
2.02478e-05
8.06703e-05
2.02416e-05
5.0533e-05
8.06115e-05
8.07271e-05
2.02394e-05
2.37832e-05
2.37893e-05
2.3789e-05
0.000167255
0.000172298
0.000143976
0.00014371
0.000168449
0.000140716
0.000171393
0.000172175
0.00018549
0.000185436
0.000197366
0.000185827
0.000185802
0.000168752
0.000135191
0.000156611
0.000156435
0.000174066
0.000156227
0.000135567
0.000156691
0.000172034
0.000172177
0.000157014
0.000136397
0.000156611
0.000156621
0.000174345
0.000135896
0.000156913
0.000157056
0.000120983
0.000167767
0.000141485
0.000141402
0.000146341
0.000146344
0.000116374
0.00011114
0.000137253
0.000137119
0.000154946
0.000134375
0.000112934
0.000134534
0.000160914
0.000126976
0.000147683
0.000105526
0.000161129
0.000126381
0.000145781
0.000175934
0.000175342
0.000145787
0.00014998
0.000174343
0.00017734
0.000146361
0.000144225
0.000182223
0.000182073
0.000194311
0.000157882
0.0001744
0.00017465
0.000178798
0.000180826
0.000170259
0.00017044
0.000168656
0.000155341
0.0001562
0.000171706
0.000181828
0.000171717
0.000182733
0.000170247
0.000155213
0.000156278
0.000181158
0.000170851
0.00016871
0.000178787
0.000168782
0.000154829
0.00015605
0.000186154
0.0001719
0.000182329
0.000169733
0.000169544
0.000155841
0.000156957
0.000160044
0.000107158
0.000127073
0.000148765
0.000126609
0.000149005
0.00016102
0.000166453
0.000140937
0.00017161
0.000143471
0.000139339
0.000168411
0.000168712
0.000163866
0.000132849
0.000160439
0.000111176
0.000130143
0.000158766
0.000167533
0.000167375
0.000171452
0.000142451
0.00014268
0.000168604
0.000139845
0.000170794
0.000163786
0.000160078
0.000131593
0.000110768
0.000158675
0.000129296
0.000166975
0.000163849
0.000169558
0.000136348
0.000141342
0.0001677
0.000135286
0.000164822
0.000155454
0.000143737
0.000121882
0.000102884
0.000121354
0.000143533
0.000155922
0.000154838
0.000102842
0.0001434
0.000120436
0.000154304
0.000121004
0.000143489
0.000135304
0.000174135
0.000157621
0.000157028
0.0001566
0.000157237
0.000136024
0.000180097
0.00017289
0.000173671
0.000157447
0.000183129
0.000172915
0.000184618
0.000174534
0.000157437
0.000188019
0.000173542
0.000157741
0.000161038
0.000138784
0.000129157
0.000166528
0.000130751
0.000168096
0.00015913
0.000150428
0.000135925
0.000119001
9.76325e-05
0.000152978
0.000133246
0.000116829
0.000163267
0.000170562
0.000140493
0.00013469
0.000165269
0.000132805
0.000169608
0.0001477
0.000114617
0.000174461
0.00017371
0.000143924
0.000147561
0.000173158
0.000175317
0.000144453
0.000168908
0.00016007
0.000132507
0.000112542
0.000168501
0.000159179
0.000132599
0.000137076
0.000174316
0.000157262
0.000157788
0.000157011
0.000157343
0.000137515
0.000144227
0.000165143
0.000180374
0.000165657
0.000164499
0.000146514
0.000165036
0.000139906
0.000179551
0.000159947
0.000160174
0.000162616
0.000163048
0.000134369
0.000157894
0.000164839
0.000135316
0.0001376
0.000132337
0.000162463
0.000161076
0.000163842
0.000166639
0.000137021
0.000138975
0.000135587
0.000164832
0.000165189
0.000166868
0.000167584
0.000137736
0.000144069
0.00016433
0.000139539
0.000169854
0.000161376
0.000149561
0.000107609
0.000127039
0.000150079
0.000127126
0.000161674
0.000160224
0.000149196
0.000125403
0.000107504
0.000150079
0.000157981
0.000126753
0.000168733
0.000172722
0.00014508
0.00014053
0.000140364
0.000171688
0.0001696
0.000167105
0.000168669
0.000137982
0.000143859
0.000166428
0.000138521
0.000170225
0.00015842
0.00013961
0.00010381
0.000123209
0.000124662
0.000142414
0.000156743
0.000159281
0.000147838
0.000125136
0.00010529
0.000159393
0.000125131
0.000145435
0.00016735
0.000171968
0.000144496
0.000138377
0.000138576
0.000171427
0.000167284
0.000126641
0.000173949
0.000158086
0.000158301
0.000152227
0.000152329
0.000132746
0.000167701
0.000170272
0.000138464
0.000143567
0.000138459
0.000170932
0.000167463
0.000158289
0.000139164
0.00010327
0.000121421
0.000155903
0.00014229
0.000123571
0.000159889
0.000148558
0.000125624
0.00010515
0.000145703
0.000125192
0.000160295
0.000167459
0.000171132
0.000143516
0.000136777
0.000166768
0.000138048
0.000171183
0.000157049
0.000144426
0.000103552
0.000121947
0.000144899
0.000122553
0.000156978
0.000157012
0.000103967
0.000144997
0.000122746
0.000145054
0.000122769
0.00015664
0.000165726
0.000169326
0.000136769
0.000143085
0.000170167
0.000136945
0.000165099
0.000166083
0.0001708
0.000136587
0.000143102
0.000170683
0.000136887
0.00016615
0.00012609
0.00015551
0.000155486
0.000172605
0.000129484
0.000151586
0.000151773
0.00016028
0.000147784
0.000126199
0.000104034
0.000124139
0.000161221
0.000144905
0.000169436
0.000173103
0.000144813
0.00014023
0.000139054
0.000169718
0.000173023
0.000151805
0.000136566
0.000120804
9.84963e-05
0.000154217
0.000118547
0.000133998
0.000165251
0.000172008
0.000143711
0.000137374
0.000166516
0.000135367
0.000171743
0.000170727
0.000141542
0.000174078
0.000148386
0.00017016
0.000141589
0.000175636
0.000169943
0.000133936
0.000160516
0.00011329
0.000169412
0.000134027
0.000159748
0.000155861
0.000143917
0.000121073
0.000101918
0.00014351
0.000156593
0.000120479
0.000164685
0.000139753
0.000168076
0.000133179
0.000169228
0.000133805
0.000163789
0.000165344
0.000170563
0.000135665
0.000141098
0.000170103
0.000165886
0.000134791
0.000155335
0.000101683
0.000119664
0.000143192
0.000143304
0.000119933
0.000154774
0.000166719
0.000171287
0.000137173
0.000145297
0.000165953
0.000172612
0.000137874
0.000156763
0.00014388
0.000122256
0.000103259
0.000156333
0.000144271
0.000122708
0.00015704
0.000103386
0.000123088
0.000144973
0.000144542
0.00012294
0.000157381
0.00015346
0.000164984
0.000166645
0.000157733
0.000156346
0.000169809
0.000168788
0.00016051
0.000160087
0.000172504
0.000171375
0.000159508
0.000164639
0.000172894
0.000174345
0.00016607
0.000165961
0.0001769
0.000177044
0.000160233
0.00017133
0.000180656
0.00017875
0.000173533
0.000178306
0.000176542
0.000181189
0.000163294
0.000170784
0.000164714
0.000155353
0.000164713
0.000165462
0.000165449
0.000157085
7.62437e-05
0.000157937
0.00016721
0.000164996
0.000167759
0.000168445
0.000155275
0.000160179
9.92386e-05
9.59444e-05
0.000132135
0.000167829
0.000168433
0.000166337
0.000168481
0.00016937
7.59945e-05
0.000158847
0.000166326
0.000168436
0.000169442
0.000160553
0.000158014
0.000161888
0.000168184
0.000169742
0.000171128
0.000172162
0.000161023
0.000162439
0.000168263
0.000168736
0.000171053
0.000170341
0.000169991
0.000172267
0.000169951
0.000158755
0.000160727
0.000170071
0.000170448
0.000169878
0.000159369
0.000162272
0.000164235
0.00017204
0.000172426
0.000174283
0.000172807
0.000162374
0.000161465
0.000171921
0.000171325
0.000174272
0.00017398
0.000170388
0.000172705
0.000174913
0.000161525
0.000163378
0.00017028
0.000173893
0.000174918
0.000166043
0.000164875
0.000162077
0.000175274
0.00017298
0.000175226
0.000175079
0.000161169
0.000164679
0.000175313
0.000174406
0.000175322
0.00017621
0.000176056
0.00017513
0.000174314
0.000163366
0.000165012
0.000176078
0.0001763
0.000174438
0.000160531
0.000161046
0.000168215
0.000174397
0.000176871
0.00017647
0.000181265
0.000166336
0.000170699
0.000174488
0.000176992
0.000176363
0.000177771
0.000173931
0.000181366
0.000179624
0.000165497
0.000166628
0.000174058
0.000177809
0.000179475
0.000172233
0.000172
0.000171011
0.000180948
0.000180446
0.000184564
0.000176577
0.000168939
0.000158687
0.000180683
0.000178611
0.000184652
0.00018259
0.000182296
0.000176557
0.000181507
0.000167045
0.000169455
0.000182037
0.000182597
0.000181545
0.000164669
0.000166508
0.000161437
0.000182106
0.000176614
0.000177531
0.000154791
0.00015897
0.000182493
0.000181366
0.000177685
0.00017766
0.000179785
0.000187683
0.000135685
9.74532e-05
0.000167255
0.000159815
0.000180099
0.000177597
0.000179122
0.00016837
2.38111e-05
2.38126e-05
0.000190392
0.000137411
9.84359e-05
5.03007e-05
9.91676e-05
0.000166468
2.37076e-05
7.58902e-05
0.000157567
7.58638e-05
2.37078e-05
0.000151905
0.000151927
9.61221e-05
5.0302e-05
9.59702e-05
5.03078e-05
2.37072e-05
2.37189e-05
5.03021e-05
9.60019e-05
9.63327e-05
5.03053e-05
0.000153309
0.000152408
0.000152884
0.000155581
0.000155419
0.000155736
0.00015633
0.000132135
9.79632e-05
0.000166491
0.000165809
0.000131927
9.84186e-05
0.000167118
2.37089e-05
2.37135e-05
9.8676e-05
0.000132534
0.000166857
0.000167363
0.00013201
0.000167653
9.91213e-05
7.5841e-05
7.58549e-05
0.00015914
7.61756e-05
7.6223e-05
9.63468e-05
5.03217e-05
9.61698e-05
5.03482e-05
2.37256e-05
2.37271e-05
9.61307e-05
5.0315e-05
9.62439e-05
5.03404e-05
0.00015675
0.000156495
0.000157316
0.000159123
0.000160176
0.000159015
0.000158906
0.000134254
9.96738e-05
0.000170177
0.000170909
0.000133303
0.00010004
0.000171304
2.37175e-05
2.37225e-05
0.000133812
0.000170302
9.91552e-05
0.00016916
0.000133482
0.000171081
9.89707e-05
7.64157e-05
7.64515e-05
0.000160074
7.61106e-05
7.60692e-05
9.68396e-05
5.03696e-05
9.68241e-05
5.03731e-05
2.37272e-05
2.37328e-05
9.69669e-05
5.03663e-05
9.66202e-05
5.0371e-05
0.000160985
0.000159914
0.000159564
0.000163368
0.00016264
0.000162812
0.00016337
0.000133969
9.96291e-05
0.000173838
0.000172562
0.000134254
9.93819e-05
0.000174282
2.3735e-05
2.37398e-05
0.000134015
0.000172924
9.94122e-05
0.000172354
0.000133701
0.00017364
0.000100041
7.54275e-05
7.53691e-05
0.000161921
7.61985e-05
7.62394e-05
9.73239e-05
5.0393e-05
9.68398e-05
5.0404e-05
2.3744e-05
2.37487e-05
9.71898e-05
5.03868e-05
9.69697e-05
5.03983e-05
0.000163172
0.000163873
0.000164612
0.000166385
0.000165641
0.000166739
0.000165684
0.000136223
9.98339e-05
0.000175996
0.000173239
0.000135013
9.98764e-05
0.000176869
2.37408e-05
2.37451e-05
0.000136221
0.000176553
0.000100055
0.000174787
0.000135352
0.000177517
0.000100029
7.74582e-05
7.74733e-05
0.000164221
7.69007e-05
7.68611e-05
9.65989e-05
5.03911e-05
9.71923e-05
5.03966e-05
2.37554e-05
2.37636e-05
9.68749e-05
5.03893e-05
9.75148e-05
5.03904e-05
0.000167169
0.000167546
0.000165825
0.000168731
0.000171394
0.000169546
0.000170034
0.000135087
9.97349e-05
0.000179133
0.000178817
0.000135458
0.000101099
0.000179812
2.37555e-05
2.37584e-05
0.000135516
0.000179774
0.000100733
0.000177415
0.000136118
0.000180237
0.00010046
7.45164e-05
7.457e-05
0.000162627
7.52675e-05
7.52878e-05
9.92149e-05
5.05074e-05
9.74336e-05
5.05284e-05
2.37598e-05
2.37538e-05
9.85297e-05
5.04941e-05
9.62943e-05
5.05254e-05
0.00017202
0.000170731
0.000171694
0.000175729
0.00017084
0.000174536
0.000174732
0.000139536
0.000102521
0.00018321
0.000178991
0.000138083
0.000100917
0.000184259
2.37592e-05
2.37693e-05
0.000138186
0.000181535
9.98547e-05
0.000180171
0.000135727
0.000182733
0.000101518
7.93497e-05
7.90519e-05
0.00017289
7.91553e-05
7.88793e-05
9.58472e-05
5.03821e-05
9.84739e-05
5.03502e-05
2.37736e-05
2.37975e-05
9.74926e-05
5.03953e-05
0.00010038
5.0346e-05
0.000174136
0.000175683
0.000171114
0.00017447
0.000174905
0.000173798
0.000152211
0.00013447
9.73358e-05
0.000184156
0.000177825
0.000136388
9.86712e-05
0.000183729
2.37725e-05
2.37639e-05
0.000137941
0.000187244
0.000103181
0.000179268
0.000140141
0.000186955
9.96079e-05
7.40752e-05
7.4468e-05
0.000162425
7.37481e-05
7.41365e-05
7.83767e-05
7.91066e-05
0.00017331
7.76897e-05
7.82028e-05
2.37114e-05
2.37118e-05
7.62564e-05
0.000158548
7.6247e-05
5.03009e-05
9.59508e-05
5.02822e-05
9.58855e-05
0.000166478
9.91703e-05
0.000166156
0.000132168
9.80551e-05
0.000166026
0.000132048
2.37054e-05
7.51818e-05
7.51739e-05
2.37066e-05
9.8043e-05
0.000165997
0.000131952
5.0283e-05
9.57834e-05
0.000165976
9.8511e-05
0.000131976
5.02918e-05
9.57976e-05
0.000165951
9.86089e-05
0.00016613
0.000131961
0.000165966
9.84915e-05
0.000131932
5.02916e-05
9.57968e-05
5.02905e-05
9.57927e-05
7.57765e-05
7.57769e-05
2.37103e-05
2.37096e-05
2.37116e-05
2.37149e-05
2.3712e-05
2.3713e-05
0.000158655
7.62295e-05
0.000158427
7.60148e-05
7.6048e-05
2.3719e-05
2.37148e-05
2.3716e-05
2.37125e-05
0.000158113
7.55093e-05
7.55329e-05
7.58104e-05
7.58451e-05
9.59973e-05
5.02862e-05
9.58803e-05
5.03118e-05
0.000132646
9.9224e-05
0.000167045
0.00016758
0.00013224
9.91036e-05
0.000167862
0.000132385
9.79807e-05
0.000166562
0.000165819
0.000132075
9.84525e-05
0.0001672
9.61214e-05
5.03178e-05
5.03087e-05
9.617e-05
9.60178e-05
5.03374e-05
5.03172e-05
9.62232e-05
0.000132684
0.000167659
9.86086e-05
0.000169278
9.89422e-05
0.000168603
0.000132955
0.000132461
0.000167058
9.94222e-05
0.00016903
9.86641e-05
0.000168029
0.000133003
7.51615e-05
7.51534e-05
0.00015674
7.577e-05
7.57601e-05
2.37084e-05
2.37202e-05
2.37255e-05
2.372e-05
0.000157913
7.6446e-05
7.65005e-05
7.59534e-05
7.59533e-05
2.37268e-05
2.37214e-05
0.000132223
0.000167235
0.000167043
0.000132926
0.000167601
9.91586e-05
0.00016793
5.02946e-05
9.62932e-05
5.03064e-05
9.87237e-05
0.000166672
0.000166894
0.000132844
0.000167397
0.00016773
9.91863e-05
9.63522e-05
5.03116e-05
5.03054e-05
9.63016e-05
0.000133004
0.000167704
9.86654e-05
0.000169433
9.90058e-05
0.000168724
0.000133244
9.63295e-05
5.03128e-05
5.03072e-05
9.63519e-05
0.000132951
0.000168003
0.000169466
9.91912e-05
0.000168603
9.92361e-05
0.00013333
9.58479e-05
5.02871e-05
9.57565e-05
5.03144e-05
0.000132275
0.000166704
9.85409e-05
0.000167345
0.000131981
0.000167505
9.89715e-05
9.59096e-05
5.02954e-05
9.57851e-05
5.0314e-05
0.000132237
0.000167064
9.94978e-05
0.00016903
9.86504e-05
0.000167974
0.000133101
9.5905e-05
5.03417e-05
5.03208e-05
9.63681e-05
0.000132374
0.000168414
0.000169425
9.96434e-05
0.000168421
9.91087e-05
0.000133162
9.59613e-05
5.03268e-05
5.03169e-05
9.63741e-05
0.00015794
7.59601e-05
0.000158655
7.61996e-05
7.61659e-05
2.37086e-05
2.37147e-05
2.37174e-05
2.37137e-05
0.000158788
7.60024e-05
7.60393e-05
7.61746e-05
7.61583e-05
2.37193e-05
2.37154e-05
0.000132506
0.000166732
9.85355e-05
0.000167353
0.000131981
0.000167576
9.90364e-05
5.02946e-05
9.61002e-05
9.58187e-05
5.03097e-05
9.60849e-05
5.02943e-05
9.58145e-05
5.03136e-05
0.000132663
0.000167975
0.000169426
9.92496e-05
0.000168522
9.91684e-05
0.000133384
0.00013264
0.000168457
0.000169559
9.97055e-05
0.00016853
9.91851e-05
0.000133428
9.61632e-05
5.03201e-05
5.03121e-05
9.6499e-05
9.61531e-05
5.03242e-05
5.03163e-05
9.65157e-05
2.37111e-05
2.37162e-05
2.37103e-05
2.37154e-05
0.000159766
7.64405e-05
7.64814e-05
7.62721e-05
7.63253e-05
2.37204e-05
2.37167e-05
2.37195e-05
2.37159e-05
2.37204e-05
2.37315e-05
2.37173e-05
2.37284e-05
7.5493e-05
7.55082e-05
0.000159502
7.60693e-05
7.60054e-05
2.37379e-05
2.37328e-05
2.37355e-05
2.37298e-05
0.000160442
7.65689e-05
7.65095e-05
7.62735e-05
7.61967e-05
9.65028e-05
5.03399e-05
9.62584e-05
5.03461e-05
0.000133393
9.85482e-05
0.000169929
0.00016899
0.000132985
9.89769e-05
0.00017062
0.000133698
9.95706e-05
0.000170101
0.000170819
0.000133105
9.99106e-05
0.000171152
9.64132e-05
5.03686e-05
5.0354e-05
9.67966e-05
9.65474e-05
5.03459e-05
5.03459e-05
9.67517e-05
0.000133512
0.000170047
9.99758e-05
0.000172357
9.92732e-05
0.000171424
0.000134283
0.000133797
0.000171635
9.97827e-05
0.000172972
9.98967e-05
0.000172124
0.000134318
7.65411e-05
7.66137e-05
0.000161983
7.66399e-05
7.67313e-05
2.37269e-05
2.37282e-05
2.37273e-05
2.37265e-05
0.000162186
7.63272e-05
7.63287e-05
7.66071e-05
7.66951e-05
2.37278e-05
2.37275e-05
0.000133169
9.85905e-05
0.00017008
0.000169048
0.000133202
9.88803e-05
0.000170719
9.61592e-05
5.03137e-05
9.62943e-05
5.03254e-05
0.00013324
0.000170255
9.90627e-05
0.000169062
0.000133303
0.000170935
9.8799e-05
9.61316e-05
5.03647e-05
5.03467e-05
9.65061e-05
0.000133185
0.000170043
9.98591e-05
0.000172169
9.91472e-05
0.000171401
0.000133739
9.61335e-05
5.03589e-05
5.03306e-05
9.63998e-05
0.000133221
0.00016957
0.000172072
9.92409e-05
0.000171508
9.87483e-05
0.000133595
9.68424e-05
5.03444e-05
9.64808e-05
5.03481e-05
0.000134184
0.000170425
9.97103e-05
0.000170167
0.000133339
0.00017132
9.95765e-05
9.68117e-05
5.03274e-05
9.64686e-05
5.03294e-05
0.000134336
0.000171739
9.9815e-05
0.000173204
0.000100015
0.000172339
0.000134386
9.68388e-05
5.03432e-05
5.03472e-05
9.66629e-05
0.000134242
0.000170032
0.000172674
9.87974e-05
0.000172067
9.93721e-05
0.000134225
9.68014e-05
5.03357e-05
5.03298e-05
9.66091e-05
7.58354e-05
7.59115e-05
0.000158968
7.56177e-05
7.57206e-05
2.37195e-05
2.37243e-05
2.37339e-05
2.37238e-05
0.000159271
7.62151e-05
7.6186e-05
7.56181e-05
7.57113e-05
2.37351e-05
2.37255e-05
0.000133962
0.000170564
9.97442e-05
0.00017022
0.000133549
0.000171416
9.95333e-05
9.65201e-05
5.03213e-05
9.65215e-05
5.03309e-05
9.65915e-05
5.03244e-05
9.65595e-05
5.03257e-05
0.000133786
0.000169693
0.000172325
9.92206e-05
0.000171743
9.89119e-05
0.000133723
0.000133924
0.000170024
0.000172481
9.86723e-05
0.000172044
9.92907e-05
0.000133725
9.6462e-05
5.03576e-05
5.03343e-05
9.63324e-05
9.65358e-05
5.03345e-05
5.0326e-05
9.63365e-05
2.37206e-05
2.37231e-05
2.37196e-05
2.3722e-05
0.00015963
7.54398e-05
7.53748e-05
7.58628e-05
7.58007e-05
2.37269e-05
2.37229e-05
2.37263e-05
2.37218e-05
2.37378e-05
2.37385e-05
2.37354e-05
2.37364e-05
7.65477e-05
7.64993e-05
0.000162831
7.63738e-05
7.63963e-05
2.37413e-05
2.37381e-05
2.37388e-05
2.3736e-05
0.000163125
7.64313e-05
7.64644e-05
7.63109e-05
7.63459e-05
9.67442e-05
5.03458e-05
9.67524e-05
5.03558e-05
0.000134765
9.9993e-05
0.000173357
0.00017276
0.000134392
9.98971e-05
0.000174309
0.000134594
9.96635e-05
0.000173677
0.000172545
0.000134366
9.9505e-05
0.000174283
9.6805e-05
5.03886e-05
5.03743e-05
9.67985e-05
9.67328e-05
5.03818e-05
5.03601e-05
9.68548e-05
0.000134755
0.000173461
9.99166e-05