/*--------------------------------*- C++ -*----------------------------------*\
| =========                 |                                                 |
| \\      /  F ield         | OpenFOAM: The Open Source CFD Toolbox           |
|  \\    /   O peration     | Version:  v2006                                 |
|   \\  /    A nd           | Website:  www.openfoam.com                      |
|    \\/     M anipulation  |                                                 |
\*---------------------------------------------------------------------------*/
FoamFile
{
    version     2.0;
    format      ascii;
    class       volScalarField;
    location    "500";
    object      p;
}
// * * * * * * * * * * * * * * * * * * * * * * * * * * * * * * * * * * * * * //

dimensions      [0 2 -2 0 0 0 0];


internalField   nonuniform List<scalar> 
14212
(
0.00105745
0.00105751
0.00105776
0.00105709
0.00105961
0.00105746
0.00105774
0.00105744
0.00105707
0.00105742
0.00105725
0.00105749
0.00105759
0.00105694
0.00105878
0.0010571
0.00105892
0.00105701
0.0010595
0.00105737
0.00105912
0.00105797
0.00105757
0.00105757
0.00105776
0.00105863
0.00105681
0.00105758
0.00106207
0.00106171
0.00105774
0.00105745
0.00106208
0.00106176
0.00105771
0.00106234
0.00105778
0.00106196
0.00106215
0.00105798
0.00106236
0.00106147
0.00106223
0.00106196
0.00106197
0.00105685
0.00105676
0.00106173
0.00106163
0.00105715
0.00106188
0.00105714
0.00106196
0.00105731
0.00106176
0.00105748
0.00106157
0.00106177
0.00106179
0.00105686
0.00105717
0.00106148
0.00105737
0.00106146
0.00106212
0.00106178
0.00105777
0.00105752
0.00106211
0.00106189
0.00105773
0.00106251
0.00105792
0.00106211
0.00106235
0.00105807
0.00105671
0.0010567
0.00105706
0.00106234
0.00105697
0.00106216
0.00105785
0.00106184
0.00106211
0.00105779
0.001057
0.00105791
0.00105782
0.00105898
0.00105913
0.00105945
0.00105927
0.00105765
0.00106165
0.00106076
0.00105738
0.00105738
0.00105759
0.00106135
0.00106126
0.00106083
0.00106105
0.00105692
0.00105679
0.00106099
0.00106094
0.00105674
0.00106093
0.00105707
0.00106144
0.00105701
0.00106116
0.00106117
0.00105684
0.00106115
0.00106113
0.00105712
0.0010569
0.00106128
0.00106105
0.00105705
0.00106145
0.00105736
0.00106177
0.00105753
0.00106154
0.00105732
0.00106177
0.00106235
0.00106164
0.0010582
0.00105817
0.00106216
0.00106213
0.00105835
0.00106113
0.00105675
0.00106097
0.00106216
0.00106183
0.00106178
0.00106236
0.00106218
0.00106217
0.00106193
0.00106236
0.00106215
0.00106187
0.00106187
0.00137166
0.00136961
0.00137172
0.00137165
0.00136959
0.00136962
0.00137166
0.00137171
0.0013717
0.0013696
0.00137166
0.0013717
0.00137164
0.00137168
0.00137168
0.00137169
0.00137169
0.00136733
0.00137173
0.00137174
0.00136732
0.00137174
0.00136732
0.00136732
0.0013673
0.00137173
0.0013717
0.0013673
0.00137172
0.00136731
0.00136729
0.00136731
0.00137172
0.00136728
0.00137172
0.00136729
0.00136728
0.00136722
0.00137165
0.00137164
0.00137165
0.00136722
0.00136722
0.00136726
0.00137166
0.0013717
0.00136725
0.00137167
0.0013673
0.00136723
0.00136726
0.00137166
0.00137171
0.00136725
0.00137167
0.00136729
0.00136723
0.00136726
0.00136726
0.0013697
0.0013674
0.00137166
0.00137165
0.00136737
0.00137163
0.00136736
0.0013674
0.0013674
0.00137165
0.00137165
0.00136736
0.00137164
0.0013674
0.00136735
0.00136739
0.00137166
0.00137169
0.00136731
0.00137167
0.00136734
0.00136732
0.0013717
0.0013673
0.00136732
0.0013674
0.00136755
0.00137168
0.00137169
0.00137163
0.00136743
0.00136743
0.00136738
0.00137177
0.00137177
0.00136736
0.00136741
0.00137169
0.00137168
0.00136738
0.00105784
0.00105788
0.00105752
0.0010575
0.00107401
0.00107441
0.00107345
0.00107688
0.00107696
0.00107418
0.00107434
0.00107488
0.00107493
0.00106775
0.00106788
0.00106742
0.00107001
0.00108592
0.00108568
0.0010744
0.00107631
0.00107681
0.00107477
0.00107067
0.00106729
0.00106775
0.0010699
0.00106998
0.00106957
0.00106959
0.00106794
0.00107038
0.00106845
0.00106795
0.00106974
0.00106987
0.00107044
0.00108608
0.00108589
0.00107706
0.00107703
0.0010745
0.00107411
0.00108583
0.00107451
0.0010744
0.00107627
0.0010769
0.00108634
0.00107433
0.0010763
0.00107687
0.00107452
0.00108642
0.00108646
0.00107424
0.00107486
0.00107485
0.00107428
0.00107628
0.00107455
0.00107452
0.00108635
0.00108636
0.00107707
0.00107463
0.00107461
0.00108593
0.00108625
0.00108796
0.00107431
0.00107447
0.00108793
0.00107484
0.00107465
0.0010878
0.00108807
0.00108804
0.00108806
0.00107461
0.00108799
0.00109219
0.00107057
0.00107024
0.00107138
0.00107014
0.00106968
0.00106795
0.00106811
0.00106767
0.00106788
0.0010573
0.00107076
0.0010701
0.00105931
0.00107039
0.00106645
0.00106981
0.00107009
0.00107034
0.00107015
0.00105704
0.00105703
0.0010569
0.00107524
0.00108758
0.00107489
0.0010876
0.00107503
0.00107391
0.00107523
0.00108788
0.00109227
0.00109268
0.00109264
0.00108771
0.00107481
0.00108762
0.0010746
0.00108779
0.00107544
0.00108834
0.00107468
0.00108563
0.0010763
0.00107668
0.00108792
0.00107462
0.00108779
0.00107445
0.00107662
0.0010763
0.00108506
0.00108792
0.00107519
0.00108828
0.00107451
0.00107583
0.00108875
0.00108688
0.00107576
0.0010758
0.00108892
0.00108896
0.00107592
0.00108884
0.00107663
0.00108499
0.00108557
0.00108776
0.00107527
0.00108827
0.0010746
0.00108784
0.00107558
0.0010884
0.00107486
0.00107684
0.00107469
0.0010858
0.00108575
0.00108781
0.00108777
0.00107462
0.00108783
0.00108784
0.00107482
0.00107103
0.00107067
0.00106919
0.00107088
0.00107103
0.00107032
0.00106767
0.00107015
0.00106985
0.0010678
0.00107066
0.00106992
0.00107125
0.00107129
0.00107144
0.00106962
0.00106729
0.00106756
0.0010701
0.00106638
0.00106729
0.00107009
0.00105749
0.00107115
0.00107052
0.00106798
0.00107025
0.00105724
0.00105914
0.0010701
0.00105917
0.00105721
0.00105738
0.00107045
0.00105728
0.00107096
0.00107094
0.0010704
0.00106785
0.00106993
0.00107005
0.00105896
0.00105685
0.00107015
0.00106998
0.0010568
0.00105711
0.00107011
0.00105687
0.00107827
0.0010739
0.00107402
0.00107847
0.00107824
0.00107844
0.00107398
0.00107848
0.00107418
0.00107408
0.00107862
0.00107857
0.00107845
0.00107417
0.00107864
0.00107439
0.00107421
0.00107878
0.00107885
0.00107861
0.0010742
0.00107936
0.00107939
0.00107905
0.00107498
0.00107933
0.00107505
0.00106624
0.00106998
0.00107076
0.00106629
0.00107049
0.00106616
0.00106579
0.00106566
0.00106963
0.00106965
0.00106528
0.00106976
0.00106545
0.00106542
0.00106622
0.00107053
0.00106602
0.00107061
0.00106613
0.00106566
0.00106979
0.00106974
0.0010654
0.00106988
0.00106551
0.00106546
0.00106544
0.0010699
0.00106982
0.00106549
0.00106978
0.0010655
0.00106552
0.00106602
0.00107846
0.0010788
0.00107437
0.00107856
0.00107432
0.00107845
0.00107422
0.00107402
0.00107855
0.00107862
0.00107835
0.00107409
0.00107789
0.00107376
0.00107864
0.00107803
0.00107373
0.00107796
0.00107754
0.00107328
0.00107587
0.00107868
0.00107798
0.00107927
0.00107286
0.0010792
0.0010779
0.00107787
0.0010805
0.00108054
0.00107626
0.00107758
0.00107333
0.00107578
0.00107876
0.00107933
0.00107802
0.00107303
0.00107831
0.00107801
0.00107383
0.00107855
0.00107808
0.00107382
0.00107879
0.00107454
0.00107894
0.00107894
0.0010744
0.00108327
0.00108346
0.0010878
0.0010877
0.00108338
0.00107923
0.00107479
0.00107471
0.00107926
0.0010791
0.00107484
0.00107914
0.00107923
0.00107464
0.00107456
0.00107915
0.00107908
0.00107472
0.00107923
0.00107478
0.0010746
0.00107911
0.00107919
0.00107909
0.00107482
0.00108368
0.00108369
0.00108792
0.001088
0.00108359
0.00108357
0.00108801
0.00108378
0.00108819
0.00108821
0.00108371
0.00108367
0.00108831
0.00108372
0.00108361
0.00108801
0.00108812
0.00108364
0.00108364
0.00108808
0.00108373
0.00107907
0.00108358
0.00109639
0.00109203
0.00109208
0.00109668
0.00109647
0.00109658
0.00109197
0.00106669
0.00107061
0.00106633
0.00107084
0.00106646
0.00106637
0.00106601
0.00107052
0.00107021
0.00107053
0.00106637
0.00106601
0.00106693
0.00106615
0.00107017
0.00106585
0.00107019
0.00106604
0.00106554
0.00106976
0.00106973
0.00106538
0.00106975
0.00106543
0.00106553
0.00106677
0.00106595
0.00107034
0.00107026
0.00106591
0.00107036
0.00106593
0.00106587
0.00106562
0.00107007
0.00106996
0.00107015
0.00106561
0.0010655
0.00106587
0.00107029
0.00107008
0.00106572
0.00107033
0.00106585
0.00106564
0.00106116
0.00105697
0.00105688
0.00106123
0.00106112
0.00105684
0.00106141
0.00106144
0.00105717
0.00105699
0.00106142
0.00106148
0.00105699
0.00106131
0.00106127
0.00105686
0.00105685
0.0010613
0.0010612
0.00105687
0.0010793
0.00108344
0.00107901
0.00107871
0.0010793
0.00107425
0.00107531
0.00107848
0.00107972
0.00107466
0.00107875
0.00107427
0.00107948
0.00107544
0.00107979
0.00107852
0.00107472
0.00108293
0.00108746
0.0010882
0.00108371
0.00108721
0.00108405
0.00108295
0.00108037
0.00107608
0.00107618
0.00108069
0.0010806
0.00107604
0.00109663
0.00109211
0.00109237
0.00109672
0.00109653
0.00109678
0.00109223
0.00108327
0.00108762
0.00108763
0.00108331
0.00108757
0.0010833
0.00108325
0.00107901
0.00107903
0.0010748
0.00107497
0.00107895
0.00108321
0.00108746
0.00108333
0.00108741
0.00108321
0.00107896
0.0010789
0.00107474
0.00107456
0.00107473
0.00107899
0.00107886
0.00108354
0.00108771
0.00108792
0.00108341
0.00108785
0.00108339
0.00108358
0.00107954
0.00107976
0.00107531
0.0010795
0.00107541
0.00108373
0.001088
0.00108409
0.00108791
0.00108375
0.00107922
0.001079
0.00107483
0.00107487
0.00107907
0.00107918
0.001075
0.00108016
0.0010845
0.00108544
0.00109011
0.00109013
0.00108561
0.00108564
0.00108988
0.00107989
0.00107501
0.00108018
0.00107598
0.0010793
0.00108054
0.00107558
0.00107989
0.00107502
0.00108023
0.00107607
0.0010806
0.00107929
0.0010756
0.00108424
0.00108795
0.00108945
0.00108459
0.00108373
0.00108505
0.0010885
0.00108423
0.00108793
0.00108943
0.00108464
0.00108507
0.00108368
0.00108846
0.0010809
0.00107631
0.00107635
0.00108098
0.00108102
0.0010763
0.00108027
0.00108462
0.00108378
0.00108796
0.00108789
0.00108351
0.00108368
0.00108361
0.00108803
0.00107976
0.0010799
0.0010754
0.00107965
0.00107552
0.00108399
0.0010881
0.00108421
0.0010839
0.00108813
0.00107952
0.00107913
0.00107509
0.00107507
0.00107934
0.00107931
0.00107526
0.00108371
0.00108348
0.00108797
0.00108365
0.00108797
0.0010835
0.00108778
0.00108788
0.0010835
0.00108359
0.00108342
0.00108781
0.00107918
0.00107467
0.00107913
0.00107499
0.00107927
0.00107903
0.00107489
0.00106673
0.00106639
0.00106629
0.00107002
0.00107095
0.00106647
0.00107051
0.00106641
0.00106586
0.00106681
0.00107135
0.00107142
0.00107154
0.00106663
0.00106654
0.00106691
0.00107103
0.00106662
0.00107116
0.00106674
0.00106649
0.00106607
0.00107059
0.00107054
0.0010664
0.00107075
0.00106625
0.00106681
0.00107068
0.0010713
0.00106676
0.00106664
0.00107116
0.00106643
0.00106684
0.00107071
0.00107139
0.00106678
0.00106647
0.00107119
0.00106673
0.00106702
0.00107155
0.00107158
0.00106679
0.00107166
0.0010668
0.00106696
0.00106584
0.00106965
0.00106606
0.00106967
0.00106565
0.00106205
0.00106185
0.00105754
0.0010576
0.00106197
0.001062
0.00105758
0.00106683
0.00107106
0.00106671
0.00106672
0.00107118
0.00106652
0.00106622
0.00107074
0.00107073
0.00106639
0.00107089
0.0010664
0.00106235
0.00106229
0.00106183
0.00106174
0.00105748
0.00105733
0.00106189
0.00106167
0.00105747
0.00106621
0.00107038
0.00106614
0.00107064
0.00107054
0.0010663
0.00106607
0.00106174
0.00106162
0.00105721
0.00106165
0.00105732
0.00106554
0.00106887
0.00107207
0.00106708
0.00106899
0.00106802
0.00106461
0.00106908
0.00107429
0.00107428
0.00107299
0.00106991
0.0010699
0.00106552
0.00106891
0.00107214
0.00106701
0.00106901
0.00106468
0.00106806
0.00106672
0.00106569
0.00106962
0.00106607
0.00106963
0.00106555
0.00106565
0.00107011
0.00106557
0.00106998
0.00106573
0.0010613
0.00106113
0.00105698
0.00106132
0.00105705
0.00106153
0.00106569
0.00106126
0.0010791
0.00107463
0.00107437
0.00107897
0.00107917
0.00107893
0.00107453
0.0010772
0.00107273
0.0010727
0.00107817
0.00107775
0.00107779
0.00107227
0.00107917
0.00107488
0.00107492
0.00107888
0.00107913
0.00107497
0.00107904
0.00106791
0.00106779
0.00106799
0.00106608
0.00107024
0.00107024
0.00106599
0.00107032
0.00106601
0.00106601
0.00107917
0.00107834
0.00107472
0.00107472
0.0010788
0.00107876
0.00107518
0.00106676
0.00107041
0.00107043
0.00106613
0.00106648
0.00107078
0.00106648
0.00106537
0.00106964
0.00106963
0.00106563
0.00106966
0.0010653
0.00106531
0.00106504
0.00106965
0.00106957
0.00106517
0.0010695
0.00106519
0.00106518
0.00106395
0.00106754
0.00106745
0.00106362
0.00106749
0.00106338
0.00106339
0.00108606
0.00107691
0.00107696
0.00107703
0.00108631
0.00108619
0.00107705
0.00107684
0.00107656
0.00107687
0.00108553
0.00108584
0.00108604
0.00107702
0.0010771
0.00107714
0.00108605
0.00108611
0.00108628
0.00108618
0.00107712
0.00107661
0.00107699
0.00108644
0.00108643
0.00108642
0.00108632
0.00107707
0.00107872
0.00107892
0.00107425
0.00107413
0.00107868
0.00107857
0.00107434
0.00107895
0.00107435
0.00107463
0.00107892
0.00107884
0.00107912
0.00107449
0.00107883
0.0010742
0.00107376
0.00107882
0.00107872
0.00107851
0.00107421
0.00107905
0.0010747
0.00107448
0.001079
0.00107912
0.00107895
0.00107456
0.00107878
0.00107379
0.00107426
0.00107882
0.00107849
0.00107873
0.0010742
0.00107909
0.00107482
0.00107463
0.00107904
0.00107916
0.00107901
0.00107476
0.00107908
0.00107471
0.00107466
0.001079
0.00107901
0.0010791
0.00107481
0.00108374
0.00108357
0.001088
0.00108795
0.00108803
0.0010836
0.00108364
0.00108375
0.0010837
0.00108779
0.00108792
0.00108368
0.00108362
0.00108784
0.00106787
0.00106803
0.00105936
0.00106809
0.00106807
0.00106801
0.00105914
0.00105925
0.00106809
0.00106709
0.00106758
0.00106787
0.00106138
0.00106146
0.00105736
0.0010572
0.00106155
0.00106132
0.0010573
0.001066
0.00107041
0.00107035
0.00106642
0.00107015
0.00106619
0.00106615
0.00106586
0.00106998
0.00106592
0.00107019
0.00106995
0.00106602
0.00106581
0.00106159
0.00106171
0.00106521
0.00106981
0.00106974
0.00106541
0.00106961
0.00106541
0.00106537
0.00106492
0.00106904
0.00106958
0.00106582
0.0010693
0.00106459
0.00106519
0.00106132
0.00106108
0.00105702
0.00105696
0.00106131
0.00106124
0.00105701
0.0010826
0.00108727
0.00108315
0.0010873
0.00108279
0.00108695
0.00108277
0.00107806
0.0010782
0.00107384
0.00107384
0.00107809
0.00107803
0.00107414
0.00109733
0.00109289
0.00109265
0.00109715
0.00109713
0.00109726
0.00109292
0.00109694
0.00109277
0.0010926
0.00109706
0.00109698
0.00109711
0.00109263
0.00108357
0.00108805
0.00108786
0.0010835
0.00108801
0.00108341
0.00108364
0.00107867
0.00107413
0.00107895
0.00107435
0.00107854
0.00107873
0.00107433
0.0010834
0.00108767
0.00108773
0.0010835
0.0010831
0.00108787
0.00108333
0.00107872
0.00107449
0.00107881
0.00107438
0.00107874
0.00107883
0.00107439
0.00108354
0.00108797
0.00108794
0.00108352
0.00108785
0.00108357
0.0010836
0.00107884
0.00107469
0.00107952
0.00107471
0.001079
0.00107895
0.00107458
0.00108346
0.00108769
0.00108792
0.001084
0.00108773
0.00108356
0.0010834
0.0010788
0.00107453
0.00107886
0.00107458
0.00107895
0.00107884
0.00107453
0.00108363
0.00108291
0.0010872
0.00108715
0.00108315
0.00108312
0.00108767
0.00108342
0.00108776
0.00108781
0.00108345
0.00108351
0.00108346
0.00108768
0.00107877
0.00107471
0.00107957
0.00107479
0.00107458
0.00107893
0.00107896
0.00108334
0.00108761
0.00108781
0.00108402
0.00108332
0.00108349
0.00108762
0.00107877
0.00107457
0.00107888
0.00107469
0.00107454
0.00107899
0.00107882
0.00107895
0.00107465
0.00107897
0.0010747
0.00107898
0.00107895
0.00107468
0.00108356
0.00108346
0.00108782
0.00108779
0.00108343
0.00108348
0.00108785
0.0010835
0.00108783
0.00108773
0.00108347
0.00108352
0.00108341
0.00108778
0.00107884
0.00107461
0.00107458
0.0010789
0.00107887
0.00107884
0.0010746
0.00106605
0.00106952
0.0010695
0.00106534
0.00106994
0.00106561
0.00106559
0.00106541
0.00106967
0.00106979
0.00106589
0.00106555
0.00106968
0.00106544
0.00106541
0.0010698
0.00106553
0.00106976
0.00106545
0.00106968
0.00106552
0.00106588
0.00107034
0.00107021
0.00106631
0.00107006
0.00106597
0.0010661
0.00106567
0.00106989
0.00106561
0.00106999
0.00106985
0.00106575
0.00106561
0.00106526
0.00106961
0.00106971
0.00106523
0.00106961
0.0010652
0.0010653
0.00106478
0.00106951
0.00106895
0.00106613
0.00106924
0.00106504
0.00106421
0.00106589
0.00107021
0.00107023
0.00106596
0.00106591
0.00107011
0.00106599
0.00106129
0.00106143
0.00105712
0.00105725
0.00106125
0.00106145
0.00105714
0.00106583
0.00107
0.00107009
0.0010659
0.0010658
0.00107
0.0010659
0.00106131
0.0010615
0.00105721
0.00105709
0.00106141
0.0010615
0.00105709
0.0010657
0.00106998
0.00106997
0.00106555
0.00107
0.00106561
0.00106561
0.00106582
0.00107018
0.00107008
0.00106569
0.00107012
0.0010658
0.00106574
0.00106114
0.00106117
0.00105683
0.00105684
0.00106123
0.00106115
0.00105684
0.00135188
0.0013519
0.0013518
0.00135388
0.00131646
0.00131628
0.00131628
0.0013182
0.00128091
0.00128073
0.00128084
0.00128297
0.00124545
0.00124533
0.0012453
0.00124709
0.00120994
0.00121002
0.00120982
0.00121216
0.00117477
0.00117405
0.00117464
0.00117614
0.00111281
0.00113951
0.0011385
0.00114109
0.00110585
0.00136071
0.00135871
0.00136071
0.00136073
0.00136073
0.00135867
0.00135396
0.00132319
0.00135173
0.00135189
0.0013252
0.00132522
0.00135394
0.0013231
0.0013539
0.00135391
0.0013539
0.00132519
0.00132512
0.00135186
0.00132522
0.00132512
0.00135389
0.00132307
0.00135185
0.00132512
0.0013251
0.001323
0.00131841
0.00128755
0.00131638
0.00131629
0.00128965
0.00128959
0.00131828
0.00128754
0.00131636
0.00131628
0.00128967
0.00128975
0.0013162
0.00128958
0.0012897
0.00131831
0.00128768
0.00131619
0.00128974
0.00128972
0.00128773
0.00128278
0.00125216
0.00128075
0.00128073
0.0012542
0.00125418
0.00128275
0.0012521
0.00128077
0.00128084
0.00125421
0.00125414
0.00128091
0.00125419
0.00125413
0.00128285
0.00125209
0.00128093
0.00125416
0.00125413
0.00125193
0.00124728
0.00121653
0.00124529
0.00124533
0.00121857
0.00121888
0.00124734
0.00121692
0.00124529
0.00124531
0.00121856
0.00121871
0.00124512
0.00121888
0.00121876
0.00124732
0.00121662
0.00124512
0.00121871
0.00121875
0.00121687
0.00121191
0.00118172
0.00120988
0.00121001
0.00118379
0.00118303
0.00121206
0.00118077
0.00120986
0.0012098
0.0011838
0.00118345
0.0012101
0.00118302
0.0011834
0.0012118
0.00118145
0.00121009
0.00118344
0.00118342
0.00118108
0.00117663
0.00114488
0.00117465
0.00117408
0.00114705
0.00114805
0.00117601
0.0011463
0.0011747
0.00117467
0.00114704
0.0011474
0.00117418
0.00114808
0.00114756
0.00117667
0.00114521
0.00117426
0.00114743
0.00114756
0.00114572
0.00114041
0.00111166
0.00113845
0.00113944
0.00111341
0.00111034
0.00114163
0.00113837
0.00113843
0.00111337
0.00111325
0.00113906
0.00111265
0.00111058
0.00111014
0.00114043
0.00111172
0.00113899
0.00111324
0.0011129
0.00111074
0.0011098
0.00110539
0.00110334
0.00110588
0.00110558
0.00135837
0.00135842
0.00136065
0.00135835
0.00135835
0.00135862
0.00135836
0.00135836
0.00136081
0.00136084
0.00134066
0.00135393
0.00135394
0.00134068
0.00135397
0.00134055
0.00135392
0.0013539
0.00134063
0.00134066
0.00135193
0.00135197
0.00135197
0.0013253
0.00132536
0.00132527
0.00132527
0.00134076
0.00135395
0.0013519
0.00134306
0.00135392
0.00134067
0.00134303
0.00135387
0.00134063
0.0013539
0.00134072
0.00135185
0.00134289
0.0013539
0.00134297
0.00134067
0.00135389
0.00135388
0.00134088
0.00134058
0.00134057
0.00130512
0.00131846
0.00131843
0.0013051
0.00131834
0.00130509
0.00130518
0.00131846
0.00131845
0.00130513
0.00131645
0.0013164
0.00131634
0.0012898
0.00128972
0.00128985
0.00128979
0.00130516
0.00131832
0.00131634
0.00130735
0.00131837
0.0013051
0.00130743
0.00131851
0.00130518
0.0013052
0.00131631
0.00131839
0.00130744
0.00131836
0.00130745
0.00130517
0.00131845
0.00131846
0.00130526
0.00130523
0.00130525
0.00126964
0.00128287
0.00128288
0.00126959
0.00128297
0.00126972
0.00126962
0.00128288
0.00128291
0.00126959
0.00128085
0.00128096
0.00128099
0.00125436
0.00125429
0.0012543
0.00125431
0.00126976
0.00128291
0.0012808
0.00127188
0.00128285
0.00126977
0.00127196
0.00128283
0.0012696
0.00126976
0.00128087
0.0012829
0.00127193
0.00128292
0.00127201
0.00126967
0.00128288
0.00128291
0.00127005
0.00126945
0.00126944
0.00123418
0.00124746
0.00124747
0.00123427
0.00124752
0.00123423
0.00123418
0.00124745
0.00124744
0.0012343
0.00124543
0.00124544
0.00124534
0.00121868
0.00121896
0.00121882
0.00121881
0.00123421
0.00124746
0.00124537
0.0012365
0.00124745
0.00123416
0.00123649
0.00124752
0.00123419
0.00123421
0.00124534
0.00124741
0.00123645
0.0012474
0.00123646
0.0012342
0.00124748
0.00124749
0.00123408
0.00123445
0.00123444
0.00119883
0.00121218
0.00121206
0.00119875
0.00121179
0.00119853
0.00119884
0.00121216
0.00121206
0.00119877
0.00121012
0.00120993
0.00121012
0.00118379
0.00118329
0.00118355
0.00118356
0.00119891
0.00121187
0.00120999
0.00120109
0.00121195
0.00119875
0.00120113
0.00121196
0.00119883
0.00119885
0.00120988
0.00121197
0.00120096
0.00121194
0.00120106
0.00119879
0.00121208
0.00121207
0.00119951
0.00119835
0.00119837
0.00116312
0.00117615
0.00117646
0.00116307
0.00117689
0.0011638
0.00116309
0.00117623
0.00117656
0.00116308
0.00117431
0.00117475
0.00117449
0.00114743
0.00114804
0.00114761
0.00114773
0.00116322
0.00117668
0.00117433
0.00116526
0.0011765
0.00116345
0.00116541
0.00117657
0.00116305
0.00116339
0.00117461
0.00117654
0.0011657
0.00117665
0.00116566
0.00116333
0.00117637
0.00117638
0.00116286
0.00116358
0.00116356
0.00112818
0.0011417
0.00114122
0.00112837
0.00114096
0.00112718
0.00112821
0.00114153
0.00114106
0.00112834
0.00111289
0.00113867
0.00113935
0.00113861
0.00113905
0.00111312
0.00111295
0.00112823
0.00114105
0.00113917
0.00113081
0.00114112
0.00112769
0.00113048
0.00114144
0.00112873
0.00112792
0.00113869
0.00114127
0.00112982
0.00114094
0.00112997
0.00112814
0.00114151
0.00114149
0.00112867
0.00112791
0.00112795
0.00110553
0.00109247
0.00109678
0.00110558
0.00109248
0.00135838
0.00135836
0.00135838
0.00135851
0.0013584
0.00135839
0.00135841
0.00135846
0.00135843
0.00136063
0.00135843
0.00136072
0.00135848
0.00135848
0.00136074
0.00135849
0.00135848
0.00135846
0.00135846
0.00135849
0.00135849
0.00136075
0.0013585
0.00135847
0.00135844
0.00136075
0.00135842
0.00135849
0.00135838
0.00135843
0.0013607
0.00135843
0.00136074
0.00135848
0.00136075
0.00135841
0.00135848
0.00135839
0.0013584
0.00135837
0.0013584
0.00135836
0.00135835
0.00135837
0.00135836
0.00135394
0.00134075
0.00135392
0.00134073
0.00135373
0.00135397
0.00134081
0.00134073
0.00134073
0.00132295
0.00133629
0.00132295
0.00133628
0.00133606
0.00132292
0.00132292
0.00133628
0.00133628
0.00134066
0.00135398
0.00135396
0.00134061
0.00134073
0.0013539
0.00135184
0.00134286
0.0013539
0.0013407
0.00134297
0.00134074
0.00135394
0.00135187
0.00134305
0.00135391
0.00134066
0.00134301
0.0013362
0.00132293
0.00133622
0.0013229
0.00133618
0.00132281
0.00133612
0.00132288
0.00133615
0.00133403
0.00132295
0.00132524
0.00133617
0.00133411
0.00132298
0.00133616
0.00133415
0.00132287
0.00132525
0.00133612
0.00133414
0.00132297
0.00135395
0.00135395
0.00134099
0.00134054
0.00134054
0.00135397
0.00134054
0.00132279
0.00133607
0.00133617
0.0013228
0.00132279
0.00133608
0.00133607
0.00132277
0.00133605
0.00135389
0.00135174
0.00135183
0.0013407
0.00134287
0.00134068
0.00134294
0.0013539
0.00134062
0.00134061
0.00135389
0.0013518
0.00135184
0.00134071
0.00134289
0.00134295
0.00134067
0.00133616
0.00132291
0.0013362
0.00132291
0.00133612
0.00133402
0.00132294
0.00132521
0.00133616
0.00133407
0.00132296
0.00133615
0.00132292
0.00133616
0.0013229
0.00133612
0.00133399
0.0013252
0.00132293
0.00133407
0.00133614
0.00132295
0.00134066
0.00135399
0.00135397
0.00134061
0.00134075
0.00135189
0.00135388
0.00134297
0.00135391
0.00134302
0.00134066
0.00134065
0.00135391
0.00135396
0.0013406
0.00133617
0.00133415
0.00132286
0.00132525
0.00133612
0.00133415
0.00132297
0.00133617
0.00132279
0.00133613
0.00132285
0.00133616
0.00133405
0.00132522
0.00132292
0.00133413
0.00133613
0.00132296
0.00133617
0.0013229
0.00133614
0.00132285
0.00135382
0.0013539
0.0013408
0.00134064
0.00134064
0.00135389
0.00134063
0.00132296
0.00133618
0.00133601
0.00132294
0.00132293
0.0013362
0.0013362
0.00132294
0.00133618
0.00134072
0.00135188
0.00135387
0.00134296
0.0013539
0.00134299
0.00134064
0.00135392
0.00134062
0.00135392
0.00134063
0.00134062
0.00135389
0.00135393
0.00134058
0.00133613
0.00133399
0.00132519
0.00132292
0.00133408
0.00133614
0.00132294
0.00133614
0.00133404
0.0013252
0.0013229
0.00133409
0.00133612
0.00132294
0.00133615
0.0013229
0.00133617
0.00132287
0.00133614
0.00132287
0.00133612
0.00132285
0.0013539
0.00134058
0.00135388
0.00134057
0.00133605
0.00132287
0.00132288
0.00133612
0.00133611
0.00132284
0.00133611
0.00132287
0.00133611
0.00131844
0.00130502
0.00131845
0.00130505
0.00131842
0.00131843
0.00130543
0.00130503
0.00130505
0.00128733
0.00130055
0.00128734
0.00130058
0.00130059
0.00128734
0.00128735
0.00130057
0.00130059
0.00130511
0.00131835
0.00131841
0.00130509
0.00130522
0.00131842
0.00131637
0.0013075
0.00131839
0.00130517
0.00130749
0.0013052
0.00131834
0.00131636
0.00130737
0.00131838
0.00130511
0.00130746
0.00130065
0.00128732
0.00130062
0.00128735
0.00130064
0.0012874
0.00130064
0.00128736
0.00130064
0.00129858
0.00128737
0.0012897
0.00130063
0.00129859
0.00128743
0.00130062
0.00129847
0.00128741
0.00128967
0.00130059
0.00129856
0.00128743
0.00131835
0.00131834
0.00130528
0.00130508
0.00130508
0.00131832
0.00130509
0.00128742
0.00130065
0.00130048
0.0012874
0.00128741
0.00130064
0.00130064
0.00128744
0.00130065
0.00130525
0.00131841
0.00131635
0.0013075
0.00131838
0.00130518
0.00130749
0.00130519
0.00131847
0.00131845
0.00130518
0.00130524
0.00131634
0.00131841
0.00130745
0.00131837
0.00130748
0.0013052
0.0013007
0.00128734
0.00130065
0.00128739
0.00130067
0.00129859
0.00128739
0.00128974
0.00130064
0.00129862
0.0012875
0.00130072
0.00128735
0.0013007
0.0012874
0.00130067
0.00129862
0.00128976
0.00128743
0.00129863
0.00130067
0.00128751
0.00130508
0.00131832
0.00131837
0.00130507
0.00130516
0.00131631
0.00131839
0.00130732
0.00131837
0.0013074
0.00130518
0.00130509
0.00131843
0.00131837
0.00130517
0.00130057
0.00129845
0.00128741
0.00128965
0.00130058
0.00129853
0.00128742
0.00130063
0.00128742
0.00130063
0.00128739
0.00130058
0.00129849
0.00128969
0.00128741
0.00129853
0.00130065
0.00128743
0.00130064
0.00128739
0.0013007
0.0012874
0.00131848
0.00131847
0.00130543
0.00130515
0.00130515
0.00131848
0.00130517
0.0012873
0.00130069
0.00130065
0.00128731
0.00128733
0.00130067
0.00130066
0.00128733
0.00130069
0.00130519
0.00131629
0.00131839
0.00130732
0.00131835
0.00130741
0.0013052
0.00130516
0.00131844
0.0013184
0.00130516
0.00130515
0.00131844
0.00131839
0.0013052
0.00130063
0.00129859
0.00128973
0.00128743
0.00129859
0.00130065
0.00128749
0.00130062
0.0012985
0.00128973
0.00128743
0.00129856
0.00130067
0.00128749
0.0013007
0.00128738
0.00130069
0.00128743
0.0013007
0.00128742
0.00130074
0.00128744
0.00131842
0.00130523
0.00131844
0.00130526
0.00130053
0.00128741
0.00128743
0.00130078
0.0013008
0.00128745
0.00130078
0.00128746
0.00130081
0.00128289
0.00126968
0.00128289
0.00126965
0.00128291
0.00128291
0.00126987
0.00126965
0.00126963
0.00125187
0.00126521
0.00125186
0.00126519
0.00126509
0.00125184
0.00125183
0.00126517
0.00126516
0.00126964
0.00128295
0.0012829
0.0012697
0.00126969
0.00128283
0.00128082
0.0012719
0.00128285
0.00126961
0.00127195
0.0012697
0.0012829
0.00128079
0.00127187
0.00128285
0.00126974
0.00127193
0.00126519
0.00125191
0.00126515
0.00125194
0.00126519
0.00125196
0.00126525
0.00125194
0.00126513
0.00126306
0.00125195
0.00125423
0.00126511
0.00126309
0.00125201
0.00126514
0.00126302
0.00125201
0.00125422
0.00126523
0.00126307
0.00125202
0.00128296
0.00128298
0.00126983
0.00126973
0.00126974
0.001283
0.00126974
0.00125198
0.00126525
0.00126504
0.001252
0.00125199
0.00126529
0.0012653
0.00125196
0.00126527
0.00126969
0.00128285
0.00128086
0.00127192
0.0012829
0.00126961
0.00127198
0.0012696
0.00128288
0.00128291
0.00126961
0.00126969
0.00128087
0.00128288
0.00127192
0.00128292
0.00127198
0.00126964
0.00126515
0.00125189
0.00126511
0.0012519
0.00126511
0.00126306
0.00125194
0.00125423
0.0012651
0.00126311
0.00125196
0.00126514
0.00125191
0.00126516
0.0012519
0.0012651
0.00126301
0.00125422
0.00125193
0.00126309
0.00126512
0.00125195
0.0012697
0.00128298
0.00128294
0.00126974
0.00126977
0.00128086
0.00128287
0.00127209
0.00128286
0.00127201
0.00126964
0.00126969
0.00128293
0.00128295
0.00126957
0.00126521
0.00126303
0.00125202
0.00125424
0.00126526
0.00126311
0.00125206
0.00126523
0.00125195
0.0012653
0.00125191
0.00126521
0.00126315
0.00125424
0.00125195
0.00126314
0.00126512
0.00125205
0.00126522
0.00125186
0.0012651
0.00125189
0.00128285
0.00128287
0.00126981
0.00126961
0.00126962
0.00128286
0.0012696
0.00125197
0.00126517
0.00126502
0.00125196
0.00125196
0.00126519
0.00126519
0.00125196
0.00126517
0.00126977
0.0012809
0.00128287
0.0012721
0.00128292
0.00127205
0.00126964
0.00126965
0.00128292
0.00128296
0.00126964
0.00126966
0.00128294
0.00128298
0.00126955
0.00126518
0.00126303
0.00125424
0.00125193
0.00126313
0.00126515
0.00125199
0.00126519
0.00126316
0.00125423
0.00125192
0.00126315
0.00126511
0.00125198
0.00126517
0.0012519
0.00126518
0.00125187
0.00126517
0.00125184
0.00126508
0.00125184
0.00128294
0.00126947
0.00128295
0.00126945
0.00126515
0.00125187
0.00125186
0.001265
0.00126499
0.0012518
0.00126499
0.0012518
0.00126497
0.00124739
0.00123419
0.00124738
0.0012342
0.0012474
0.00124739
0.00123419
0.00123427
0.00123427
0.00121679
0.00122982
0.00121677
0.00122982
0.00122939
0.00121678
0.00121676
0.00122989
0.00122989
0.00123421
0.0012475
0.00124747
0.00123418
0.00123428
0.00124745
0.00124535
0.00123633
0.00124745
0.0012343
0.00123646
0.00123428
0.00124747
0.00124537
0.00123651
0.00124745
0.00123418
0.00123651
0.00122972
0.00121665
0.00122985
0.0012165
0.00122975
0.00121635
0.00122971
0.00121649
0.00122968
0.00122741
0.0012166
0.0012187
0.0012298
0.00122756
0.0012165
0.0012297
0.00122772
0.00121638
0.0012188