/*--------------------------------*- C++ -*----------------------------------*\
| =========                 |                                                 |
| \\      /  F ield         | OpenFOAM: The Open Source CFD Toolbox           |
|  \\    /   O peration     | Version:  v2006                                 |
|   \\  /    A nd           | Website:  www.openfoam.com                      |
|    \\/     M anipulation  |                                                 |
\*---------------------------------------------------------------------------*/
FoamFile
{
    version     2.0;
    format      ascii;
    class       volScalarField;
    location    "250";
    object      epsilon;
}
// * * * * * * * * * * * * * * * * * * * * * * * * * * * * * * * * * * * * * //

dimensions      [0 2 -3 0 0 0 0];


internalField   nonuniform List<scalar> 
14314
(
5.39752e-07
1.09607e-06
1.09621e-06
1.39517e-06
5.19355e-07
1.03592e-06
1.03603e-06
1.34558e-06
1.39301e-06
1.09594e-06
1.09588e-06
1.39303e-06
1.09575e-06
1.09602e-06
1.0958e-06
1.09602e-06
1.39313e-06
1.09594e-06
1.09589e-06
1.39317e-06
1.39501e-06
1.37084e-06
1.09621e-06
1.09615e-06
1.07229e-06
1.07217e-06
1.39504e-06
1.37081e-06
1.09602e-06
1.09628e-06
1.07217e-06
1.07226e-06
1.09629e-06
1.07223e-06
1.07229e-06
1.39513e-06
1.37089e-06
1.09616e-06
1.07233e-06
1.07221e-06
1.37091e-06
1.34553e-06
1.03597e-06
1.03584e-06
1.3455e-06
1.03588e-06
1.03593e-06
5.19311e-07
5.19353e-07
5.19338e-07
1.03595e-06
1.34559e-06
1.03591e-06
4.35943e-06
9.78014e-06
1.94507e-05
4.35948e-06
9.78157e-06
5.39897e-07
5.39895e-07
5.39986e-07
5.40008e-07
2.33628e-06
1.09618e-06
3.74927e-06
8.04023e-07
1.94512e-05
2.33627e-06
1.09633e-06
8.04112e-07
3.7492e-06
1.39343e-06
5.80494e-06
5.80631e-06
4.35758e-06
9.7716e-06
4.35841e-06
9.77819e-06
1.94273e-05
1.94437e-05
4.35774e-06
9.773e-06
4.35854e-06
9.77963e-06
5.3974e-07
5.39828e-07
5.39847e-07
5.31724e-07
5.31699e-07
5.31755e-07
5.31756e-07
2.33132e-06
3.7596e-06
8.03212e-07
1.09276e-06
2.3367e-06
3.74261e-06
8.03373e-07
1.94279e-05
1.94443e-05
2.33131e-06
8.03314e-07
3.75958e-06
1.09289e-06
2.33667e-06
8.03465e-07
3.74257e-06
5.81276e-06
5.81416e-06
1.38981e-06
5.80795e-06
5.80931e-06
3.56516e-06
8.99492e-06
4.3031e-06
5.95934e-06
1.72489e-05
8.61154e-06
3.56517e-06
8.99613e-06
4.30323e-06
5.95963e-06
1.73201e-07
3.27191e-07
3.27145e-07
5.78978e-07
1.8079e-07
3.53152e-07
3.53116e-07
2.23875e-06
3.65433e-06
7.75035e-07
9.78039e-07
2.2995e-06
3.75915e-06
7.03709e-07
1.72494e-05
8.61172e-06
2.23877e-06
7.75118e-07
3.65437e-06
9.78124e-07
2.29951e-06
7.03778e-07
3.75918e-06
5.72466e-06
5.72638e-06
1.28609e-06
5.36276e-06
5.36325e-06
1.94474e-05
1.94505e-05
1.3933e-06
5.80455e-06
5.80629e-06
1.94476e-05
1.94289e-05
1.94504e-05
1.9432e-05
1.39543e-06
5.8069e-06
5.80865e-06
5.80951e-06
5.81132e-06
4.35939e-06
9.78067e-06
2.33622e-06
1.09632e-06
3.74907e-06
8.03979e-07
2.33617e-06
1.09626e-06
3.74944e-06
8.03939e-07
4.359e-06
9.78088e-06
9.77381e-06
4.35954e-06
4.35896e-06
9.78124e-06
9.77424e-06
4.35951e-06
2.33698e-06
1.09651e-06
3.7481e-06
8.03976e-07
3.75694e-06
8.04061e-07
2.33545e-06
2.33694e-06
1.09645e-06
3.74851e-06
8.03935e-07
3.75732e-06
8.04023e-07
2.3354e-06
1.39328e-06
5.80622e-06
5.80488e-06
1.9449e-05
1.94507e-05
1.9432e-05
1.39541e-06
5.80871e-06
5.80718e-06
5.81126e-06
5.80988e-06
1.94486e-05
1.94304e-05
2.33621e-06
1.09613e-06
3.7496e-06
8.03983e-07
4.35946e-06
9.78113e-06
2.33615e-06
1.09641e-06
8.04014e-07
3.74943e-06
4.35908e-06
9.78228e-06
9.7752e-06
4.35961e-06
2.337e-06
1.09632e-06
3.74868e-06
8.03965e-07
3.75749e-06
8.04075e-07
2.33548e-06
4.35903e-06
9.78185e-06
9.77472e-06
4.35951e-06
2.33693e-06
1.09659e-06
8.04011e-07
3.74855e-06
8.04094e-07
3.75732e-06
2.3354e-06
4.35959e-06
9.78132e-06
2.33622e-06
1.0964e-06
8.04058e-07
3.74924e-06
4.35947e-06
9.78096e-06
2.33708e-06
1.09636e-06
3.74833e-06
8.04024e-07
3.75715e-06
8.04108e-07
2.33555e-06
4.35921e-06
9.78205e-06
9.77497e-06
4.35974e-06
2.337e-06
1.09659e-06
8.04061e-07
3.74826e-06
8.04142e-07
3.75712e-06
2.33547e-06
4.35907e-06
9.78167e-06
9.77466e-06
4.35962e-06
1.39333e-06
5.80614e-06
5.80477e-06
1.94489e-05
1.94512e-05
1.94324e-05
1.39546e-06
5.80864e-06
5.80712e-06
5.8112e-06
5.80978e-06
1.94488e-05
1.94303e-05
2.33622e-06
1.09629e-06
8.04061e-07
3.74961e-06
4.35953e-06
9.78123e-06
4.35951e-06
9.78162e-06
2.33705e-06
1.09652e-06
8.04099e-07
3.74827e-06
8.04204e-07
3.75709e-06
2.33552e-06
2.337e-06
1.09647e-06
8.04047e-07
3.74865e-06
8.04155e-07
3.75751e-06
2.33547e-06
4.35912e-06
9.7819e-06
9.77482e-06
4.35967e-06
4.35909e-06
9.78225e-06
9.7753e-06
4.3596e-06
1.94497e-05
1.94516e-05
1.39553e-06
5.80726e-06
5.80864e-06
5.80992e-06
5.81132e-06
1.94493e-05
1.94312e-05
1.94513e-05
1.94331e-05
1.94243e-05
1.94408e-05
1.94271e-05
1.94438e-05
5.81238e-06
5.81418e-06
1.38969e-06
5.80749e-06
5.80934e-06
1.885e-05
1.94042e-05
1.88528e-05
1.94072e-05
1.3915e-06
5.71496e-06
5.71679e-06
5.81453e-06
5.8164e-06
4.35756e-06
9.77198e-06
4.35838e-06
9.77853e-06
2.33122e-06
3.75938e-06
8.03166e-07
1.09291e-06
2.3366e-06
3.74234e-06
8.03336e-07
2.33116e-06
3.7598e-06
8.03126e-07
1.09283e-06
2.33655e-06
3.74278e-06
8.03291e-07
4.35273e-06
9.56289e-06
9.76068e-06
4.31589e-06
4.35268e-06
9.56312e-06
9.76103e-06
4.31583e-06
2.33334e-06
1.09459e-06
3.6596e-06
7.95103e-07
3.75573e-06
7.98616e-07
2.30181e-06
2.3333e-06
1.09451e-06
3.65988e-06
7.9506e-07
3.75617e-06
7.98572e-07
2.30175e-06
5.81423e-06
5.81267e-06
1.38966e-06
5.80935e-06
5.80788e-06
1.94252e-05
1.94419e-05
1.88524e-05
1.94072e-05
1.39147e-06
5.71648e-06
5.71543e-06
5.81642e-06
5.81496e-06
1.88514e-05
1.94055e-05
2.33125e-06
3.75995e-06
8.03182e-07
1.09272e-06
2.33662e-06
3.74294e-06
8.03338e-07
4.35762e-06
9.77257e-06
4.35845e-06
9.77915e-06
2.33118e-06
8.03204e-07
3.75984e-06
1.09296e-06
2.33655e-06
8.03376e-07
3.74281e-06
4.35287e-06
9.56427e-06
9.76211e-06
4.31591e-06
2.33337e-06
1.09437e-06
3.66008e-06
7.95085e-07
3.75634e-06
7.9862e-07
2.30182e-06
4.35275e-06
9.56377e-06
9.76168e-06
4.31581e-06
2.33329e-06
1.09463e-06
7.95127e-07
3.6599e-06
7.98642e-07
3.75621e-06
2.30175e-06
4.35783e-06
9.77277e-06
4.35863e-06
9.77938e-06
2.33123e-06
8.03246e-07
3.75954e-06
1.09296e-06
2.33662e-06
8.0341e-07
3.74255e-06
4.35774e-06
9.77243e-06
4.35856e-06
9.77898e-06
2.33344e-06
1.09441e-06
3.65983e-06
7.95111e-07
3.75603e-06
7.98654e-07
2.30188e-06
4.35303e-06
9.5642e-06
9.76195e-06
4.31599e-06
2.33336e-06
1.09464e-06
7.95158e-07
3.65971e-06
7.98681e-07
3.75597e-06
2.3018e-06
4.35282e-06
9.5637e-06
9.76156e-06
4.3159e-06
5.81418e-06
5.81264e-06
1.38975e-06
5.8093e-06
5.80782e-06
1.94256e-05
1.94418e-05
1.88531e-05
1.94079e-05
1.39156e-06
5.71649e-06
5.71553e-06
5.81634e-06
5.81483e-06
1.88517e-05
1.94052e-05
2.33125e-06
8.03266e-07
3.75993e-06
1.09283e-06
2.33662e-06
8.03423e-07
3.74287e-06
4.35768e-06
9.77262e-06
4.3585e-06
9.77917e-06
4.35768e-06
9.77299e-06
4.3585e-06
9.77965e-06
2.33344e-06
1.09453e-06
7.952e-07
3.65985e-06
7.98754e-07
3.75598e-06
2.30189e-06
2.33338e-06
1.09447e-06
7.95156e-07
3.65999e-06
7.98699e-07
3.7563e-06
2.30182e-06
4.35287e-06
9.56414e-06
9.76173e-06
4.31597e-06
4.3528e-06
9.56431e-06
9.76213e-06
4.31589e-06
1.9426e-05
1.94425e-05
1.94279e-05
1.94448e-05
1.39161e-06
5.71525e-06
5.71663e-06
5.81505e-06
5.81643e-06
1.88516e-05
1.94062e-05
1.88536e-05
1.94082e-05
1.72473e-05
8.61117e-06
1.72495e-05
8.61181e-06
5.72426e-06
5.72648e-06
1.28613e-06
5.3628e-06
5.36371e-06
1.23439e-06
5.33886e-06
5.33973e-06
3.56507e-06
8.99501e-06
4.30305e-06
5.95929e-06
2.2387e-06
3.65398e-06
7.75016e-07
9.78088e-07
2.29941e-06
3.75894e-06
7.03706e-07
2.23862e-06
3.65416e-06
7.74958e-07
9.77953e-07
2.29935e-06
3.75891e-06
7.03662e-07
2.12764e-06
9.50651e-07
3.786e-06
6.74558e-07
2.12755e-06
9.50515e-07
3.78594e-06
6.7452e-07
5.72577e-06
5.72517e-06
1.28607e-06
5.36326e-06
5.36314e-06
1.72484e-05
8.61136e-06
1.23433e-06
5.33931e-06
5.33921e-06
2.23868e-06
3.6545e-06
7.74994e-07
9.78009e-07
2.29942e-06
3.75927e-06
7.03682e-07
3.56509e-06
8.99565e-06
4.3031e-06
5.959e-06
2.2386e-06
7.7501e-07
3.65419e-06
9.78026e-07
2.29934e-06
7.03696e-07
3.75889e-06
2.12761e-06
9.50577e-07
3.78634e-06
6.74538e-07
2.12753e-06
9.5058e-07
6.7455e-07
3.78596e-06
1.73205e-07
3.27181e-07
3.27149e-07
5.78934e-07
1.80796e-07
3.5314e-07
3.53123e-07
1.7323e-07
3.27211e-07
3.27193e-07
5.78979e-07
1.80829e-07
3.5316e-07
3.53163e-07
1.73233e-07
3.27218e-07
3.27185e-07
5.78958e-07
1.80834e-07
3.53171e-07
3.53152e-07
1.70191e-07
6.0178e-07
3.63555e-07
3.63525e-07
1.70193e-07
6.01733e-07
3.63543e-07
3.63531e-07
1.70215e-07
6.01782e-07
3.63561e-07
3.63571e-07
1.70217e-07
6.01756e-07
3.6357e-07
3.63559e-07
3.56523e-06
8.99613e-06
4.30333e-06
5.95956e-06
2.23867e-06
7.75056e-07
3.6541e-06
9.78042e-07
2.29942e-06
7.03727e-07
3.75885e-06
3.56514e-06
8.99574e-06
4.30316e-06
5.95908e-06
2.12766e-06
9.50599e-07
3.78621e-06
6.7456e-07
2.12758e-06
9.50598e-07
6.74576e-07
3.78591e-06
5.72587e-06
5.72526e-06
1.28614e-06
5.36324e-06
5.36315e-06
1.72486e-05
8.61139e-06
1.2344e-06
5.33929e-06
5.3392e-06
2.23868e-06
7.75049e-07
3.65446e-06
9.77998e-07
2.29945e-06
7.03728e-07
3.75903e-06
3.56528e-06
8.99609e-06
4.30331e-06
5.95947e-06
3.56519e-06
8.99627e-06
4.30325e-06
5.95939e-06
2.1277e-06
9.50681e-07
6.74624e-07
3.78624e-06
2.12761e-06
9.50553e-07
6.7458e-07
3.78607e-06
1.72485e-05
8.61134e-06
1.72502e-05
8.61182e-06
1.23435e-06
5.33884e-06
5.33934e-06
8.42356e-06
8.42419e-06
3.57882e-06
5.8225e-06
3.57873e-06
5.82236e-06
8.42383e-06
8.42374e-06
3.57884e-06
5.82295e-06
3.57875e-06
5.82235e-06
3.57887e-06
5.82281e-06
3.57878e-06
5.82237e-06
8.42405e-06
8.42376e-06
3.57893e-06
5.82274e-06
3.57884e-06
5.82265e-06
8.42371e-06
8.42414e-06
1.2888e-05
4.35897e-06
1.14452e-05
5.02273e-06
1.1446e-05
5.02395e-06
1.28906e-05
2.31493e-05
7.40831e-06
9.77439e-06
7.44596e-06
2.32435e-05
1.94336e-05
1.28882e-05
4.35902e-06
5.02286e-06
1.14453e-05
5.02406e-06
1.14461e-05
1.28908e-05
2.31497e-05
7.40859e-06
9.77585e-06
7.44623e-06
2.32439e-05
1.94341e-05
1.02086e-05
2.28174e-05
2.2817e-05
2.28165e-05
2.28166e-05
1.02134e-05
4.84722e-06
1.01663e-05
5.80874e-06
3.05501e-06
3.05739e-06
1.01602e-05
4.84268e-06
4.85263e-06
1.01708e-05
5.81011e-06
3.05598e-06
3.05837e-06
1.01646e-05
4.84817e-06
1.28853e-05
4.35641e-06
1.14395e-05
5.02288e-06
1.14443e-05
5.02234e-06
1.28868e-05
2.32903e-05
7.4769e-06
9.78062e-06
2.31149e-05
7.40481e-06
1.28895e-05
4.35898e-06
1.14457e-05
5.02426e-06
1.28869e-05
1.1443e-05
5.02334e-06
2.30959e-05
7.40412e-06
9.7689e-06
7.49473e-06
2.33126e-05
1.94493e-05
1.94221e-05
1.28855e-05
4.35657e-06
5.02298e-06
1.14398e-05
5.02247e-06
1.14445e-05
1.2887e-05
2.3291e-05
7.4771e-06
9.782e-06
2.31151e-05
7.40506e-06
1.28899e-05
4.35906e-06
5.02438e-06
1.1446e-05
1.28872e-05
5.02344e-06
1.14432e-05
2.30966e-05
7.40452e-06
9.77028e-06
7.49491e-06
2.33129e-05
1.94497e-05
1.94226e-05
1.01985e-05
2.28104e-05
2.28098e-05
2.28209e-05
2.2821e-05
1.02136e-05
4.84034e-06
3.05774e-06
1.01567e-05
5.8085e-06
4.84859e-06
3.05241e-06
1.0167e-05
4.84593e-06
3.05873e-06
1.01613e-05
5.8099e-06
4.85419e-06
3.05339e-06
1.01716e-05
1.02169e-05
2.28202e-05
2.28203e-05
1.02038e-05
2.28147e-05
2.28143e-05
4.84692e-06
1.01644e-05
5.81379e-06
3.048e-06
3.05638e-06
1.01536e-05
4.83465e-06
4.85252e-06
1.0169e-05
5.81522e-06
3.04898e-06
3.05737e-06
1.01582e-05
4.8402e-06
5.48372e-05
3.98106e-06
4.95065e-05
4.24289e-06
2.33234e-05
4.71073e-06
7.47239e-06
5.74433e-06
2.33169e-05
7.24747e-06
5.06366e-05
4.18388e-06
1.1046e-05
4.92736e-06
1.3128e-05
1.08352e-05
4.91904e-06
5.18382e-06
5.80377e-06
6.44903e-06
1.17352e-05
1.08274e-05
5.48384e-05
3.98106e-06
4.24297e-06
4.95054e-05
4.71095e-06
2.33228e-05
7.47238e-06
5.74437e-06
2.33173e-05
7.24741e-06
5.0638e-05
4.18387e-06
4.92734e-06
1.10462e-05
1.31282e-05
4.91927e-06
1.08353e-05
5.18377e-06
5.80384e-06
6.44922e-06
1.95338e-07
1.75039e-07
1.85214e-07
1.85211e-07
1.83384e-07
1.83381e-07
2.00088e-07
4.78779e-07
5.62712e-07
5.20436e-07
5.2043e-07
5.19424e-07
5.1942e-07
4.66936e-07
3.19593e-07
3.0134e-07
3.46921e-07
3.68716e-07
3.58756e-07
3.07474e-07
3.17189e-07
3.19553e-07
3.01301e-07
3.46883e-07
3.68678e-07
3.58716e-07
3.07432e-07
3.17152e-07
1.52988e-06
2.23601e-06
2.40659e-06
1.42134e-06
2.47615e-06
1.41939e-06
1.51786e-06
1.0597e-06
9.88286e-07
1.21966e-06
8.96436e-07
1.19659e-06
9.16194e-07
1.06254e-06
1.69741e-06
2.97613e-06
3.53702e-06
2.01996e-06
2.06124e-06
2.849e-06
1.70178e-06
8.09071e-07
8.03389e-07
7.19571e-07
7.19847e-07
7.31445e-07
7.90489e-07
8.32401e-07
1.17353e-05
1.08279e-05
1.5299e-06
2.23604e-06
1.42137e-06
2.40664e-06
1.41942e-06
2.47618e-06
1.5179e-06
1.0598e-06
9.88375e-07
8.96514e-07
1.21976e-06
9.16278e-07
1.1967e-06
1.06264e-06
8.09147e-07
8.03461e-07
7.19643e-07
7.19929e-07
7.31532e-07
7.90562e-07
8.32486e-07
1.69747e-06
2.97619e-06
3.53705e-06
2.02002e-06
2.0613e-06
2.84906e-06
1.70185e-06
9.05361e-06
8.88753e-05
8.88951e-05
4.61561e-05
4.61628e-05
7.49422e-06
4.43287e-06
2.98171e-06
9.81528e-06
5.09612e-06
4.71693e-06
2.82847e-06
9.26202e-06
4.4354e-06
2.98276e-06
9.81916e-06
5.09689e-06
4.72182e-06
2.82857e-06
9.26511e-06
2.70404e-06
1.2854e-06
1.80668e-06
1.80627e-06
1.80556e-06
1.80515e-06
2.65699e-06
1.00638e-05
2.24834e-05
2.2486e-05
9.68824e-06
4.28376e-05
4.28427e-05
4.54368e-06
1.89259e-05
5.22811e-06
2.53044e-06
2.77697e-06
2.05684e-05
4.50991e-06
4.54614e-06
1.89289e-05
5.22864e-06
2.53018e-06
2.77682e-06
2.05729e-05
4.51142e-06
1.94303e-05
1.94336e-05
1.02079e-05
2.28172e-05
2.28161e-05
2.28163e-05
2.28157e-05
1.02127e-05
4.84658e-06
1.01657e-05
5.80833e-06
3.05474e-06
1.01596e-05
4.84206e-06
3.05712e-06
4.85262e-06
1.01709e-05
5.81018e-06
3.05596e-06
1.01648e-05
4.84812e-06
3.05834e-06
1.94271e-05
1.94477e-05
1.94299e-05
1.94509e-05
1.02142e-05
2.28174e-05
2.2817e-05
1.0207e-05
2.2817e-05
2.28162e-05
4.84791e-06
3.0537e-06
5.81092e-06
1.01666e-05
1.01579e-05
3.05759e-06
4.84141e-06
4.85398e-06
3.05492e-06
5.81269e-06
1.01718e-05
1.01631e-05
3.05882e-06
4.84744e-06
4.84192e-06
1.01589e-05
3.05737e-06
5.80563e-06
4.84725e-06
1.01662e-05
3.0544e-06
4.84798e-06
1.01641e-05
3.0586e-06
5.80736e-06
4.8533e-06
1.01714e-05
3.05562e-06
1.02056e-05
2.2816e-05
2.28152e-05
2.28186e-05
2.28182e-05
1.02155e-05
1.28886e-05
4.35889e-06
1.14452e-05
5.02274e-06
1.1446e-05
5.02392e-06
1.28912e-05
2.31511e-05
7.40742e-06
9.77492e-06
7.44507e-06
2.32454e-05
1.28906e-05
1.1446e-05
5.0243e-06
4.35958e-06
1.28878e-05
1.14448e-05
5.02319e-06
2.31294e-05
9.77299e-06
7.40562e-06
2.32716e-05
7.46353e-06
2.32561e-05
7.45347e-06
9.78056e-06
2.31404e-05
7.40687e-06
1.28877e-05
4.35897e-06
1.14443e-05
5.0234e-06
1.28904e-05
1.14461e-05
5.02458e-06
1.28911e-05
1.14461e-05
5.02429e-06
4.35953e-06
1.28885e-05
1.14449e-05
5.02307e-06
2.31305e-05
9.7734e-06
7.40464e-06
7.46249e-06
2.32727e-05
2.32575e-05
7.45256e-06
9.78099e-06
2.31422e-05
7.40591e-06
1.2888e-05
4.35891e-06
1.14443e-05
5.02332e-06
1.1446e-05
5.02443e-06
1.28909e-05
1.02084e-05
2.28174e-05
2.28173e-05
2.28164e-05
2.28169e-05
1.02132e-05
4.85262e-06
1.01708e-05
5.81006e-06
3.05596e-06
1.01646e-05
3.05834e-06
4.84813e-06
4.84704e-06
1.01666e-05
5.80868e-06
3.05492e-06
3.0573e-06
1.01606e-05
4.84253e-06
1.94319e-05
1.94302e-05
1.94508e-05
1.02145e-05
2.28174e-05
2.28181e-05
1.02075e-05
2.28166e-05
2.28174e-05
4.85393e-06
3.05492e-06
5.81273e-06
1.01716e-05
3.0588e-06
1.01628e-05
4.84748e-06
4.84832e-06
3.05387e-06
5.81121e-06
1.01675e-05
1.01588e-05
3.05777e-06
4.84182e-06
4.84793e-06
1.01639e-05
3.05859e-06
5.8074e-06
3.05562e-06
4.85333e-06
1.01712e-05
4.84236e-06
1.01598e-05
3.05756e-06
5.80591e-06
4.84772e-06
1.01672e-05
3.05458e-06
1.0206e-05
2.28157e-05
2.28165e-05
2.28179e-05
2.28196e-05
1.0216e-05
1.9428e-05
1.9449e-05
1.28884e-05
4.35902e-06
1.14451e-05
5.0226e-06
1.14459e-05
5.02378e-06
1.2891e-05
2.315e-05
7.40713e-06
9.77537e-06
7.4447e-06
2.32442e-05
1.28908e-05
5.02444e-06
1.14462e-05
4.35963e-06
1.28881e-05
5.02319e-06
1.1445e-05
2.31292e-05
9.77436e-06
7.40585e-06
2.32714e-05
7.46369e-06
2.32561e-05
7.45373e-06
9.78196e-06
2.31409e-05
7.40706e-06
1.28877e-05
4.35904e-06
5.0235e-06
1.14445e-05
1.28906e-05
5.02463e-06
1.14463e-05
1.28911e-05
1.1446e-05
5.02416e-06
4.3596e-06
1.28883e-05
1.14448e-05
5.02308e-06
2.31303e-05
9.77392e-06
7.40449e-06
7.46228e-06
2.32724e-05
2.32568e-05
7.45223e-06
9.78149e-06
2.31412e-05
7.40571e-06
1.28881e-05
4.35893e-06
1.14443e-05
5.02334e-06
1.14461e-05
5.02444e-06
1.28909e-05
1.28882e-05
4.35913e-06
5.02289e-06
1.14457e-05
5.02405e-06
1.14465e-05
1.28909e-05
2.31495e-05
7.40848e-06
9.77553e-06
7.44608e-06
2.32438e-05
1.28883e-05
4.35899e-06
1.14454e-05
5.02262e-06
1.14462e-05
5.0238e-06
1.2891e-05
2.31501e-05
7.40701e-06
9.77518e-06
7.44461e-06
2.32443e-05
1.2891e-05
5.0245e-06
1.14466e-05
4.35976e-06
1.28882e-05
5.02334e-06
1.14454e-05
2.313e-05
9.77413e-06
7.40592e-06
7.4638e-06
2.32722e-05
2.32565e-05
7.45368e-06
9.78171e-06
2.31408e-05
7.40716e-06
1.2888e-05
4.35917e-06
5.02362e-06
1.14449e-05
5.02475e-06
1.14467e-05
1.28909e-05
1.2891e-05
1.14463e-05
5.0242e-06
4.35964e-06
1.28883e-05
1.14451e-05
5.023e-06
2.31297e-05
9.77375e-06
7.4044e-06
7.46218e-06
2.32722e-05
2.32566e-05
7.45218e-06
9.7814e-06
2.31413e-05
7.40556e-06
1.28879e-05
4.35904e-06
1.14446e-05
5.0233e-06
1.14464e-05
5.0244e-06
1.28909e-05
1.02081e-05
2.28165e-05
2.28168e-05
2.28159e-05
2.28164e-05
1.0213e-05
4.85264e-06
1.01706e-05
5.81001e-06
3.05592e-06
1.01646e-05
3.05831e-06
4.8481e-06
4.8467e-06
1.01659e-05
5.80866e-06
3.05484e-06
3.05722e-06
1.01598e-05
4.84224e-06
1.9432e-05
1.94308e-05
1.94513e-05
1.02144e-05
2.28166e-05
2.28176e-05
1.02072e-05
2.28162e-05
2.28166e-05
4.85394e-06
3.0549e-06
5.81268e-06
1.01716e-05
3.05877e-06
1.01629e-05
4.84748e-06
4.84805e-06
3.0538e-06
5.81114e-06
1.01668e-05
1.01581e-05
3.0577e-06
4.84158e-06
4.84798e-06
1.01638e-05
3.05857e-06
5.80735e-06
3.0556e-06
4.8533e-06
1.01712e-05
4.84207e-06
1.01591e-05
3.05749e-06
5.80582e-06
4.84741e-06
1.01664e-05
3.05451e-06
1.02058e-05
2.28157e-05
2.28159e-05
2.28181e-05
2.28187e-05
1.02158e-05
1.94283e-05
1.94492e-05
1.28881e-05
4.35904e-06
5.02274e-06
1.14455e-05
5.02399e-06
1.14463e-05
1.28907e-05
2.31491e-05
7.40825e-06
9.77555e-06
7.44597e-06
2.32433e-05
1.28886e-05
4.35903e-06
5.02271e-06
1.14453e-05
5.0239e-06
1.14462e-05
1.28912e-05
2.3151e-05
7.40742e-06
9.77585e-06
7.44503e-06
2.32452e-05
1.28907e-05
5.02435e-06
1.14465e-05
4.35968e-06
1.2888e-05
5.02318e-06
1.14452e-05
2.31292e-05
9.77397e-06
7.40572e-06
7.46354e-06
2.32714e-05
2.32557e-05
7.45343e-06
9.78158e-06
2.314e-05
7.4069e-06
1.28877e-05
4.35907e-06
5.0235e-06
1.14447e-05
5.0246e-06
1.14464e-05
1.28906e-05
1.28913e-05
5.02429e-06
1.14462e-05
4.35966e-06
1.28885e-05
5.0232e-06
1.1445e-05
2.3131e-05
9.7743e-06
7.40484e-06
7.46258e-06
2.32732e-05
2.32578e-05
7.45255e-06
9.78199e-06
2.31422e-05
7.40601e-06
1.28882e-05
4.35899e-06
5.02349e-06
1.14444e-05
5.02455e-06
1.14462e-05
1.2891e-05
1.94326e-05
1.94345e-05
1.02149e-05
2.28178e-05
2.28179e-05
1.02077e-05
2.28174e-05
2.28169e-05
4.84847e-06
3.05396e-06
5.81129e-06
1.01672e-05
4.84198e-06
3.05786e-06
1.01585e-05
4.85401e-06
3.05494e-06
5.81265e-06
1.01718e-05
4.84754e-06
3.05883e-06
1.0163e-05
4.84254e-06
1.01595e-05
3.05764e-06
5.80598e-06
4.84785e-06
3.05469e-06
1.01669e-05
4.84802e-06
1.0164e-05
3.05863e-06
5.80734e-06
4.85336e-06
3.05564e-06
1.01713e-05
1.02064e-05
2.28165e-05
2.28162e-05
1.02162e-05
2.28191e-05
2.2819e-05
1.94288e-05
1.94497e-05
1.94308e-05
1.94518e-05
1.94462e-05
1.94192e-05
1.9449e-05
1.94218e-05
1.01977e-05
2.28098e-05
2.28088e-05
2.28203e-05
2.282e-05
1.02128e-05
4.83979e-06
3.05747e-06
1.01562e-05
5.80799e-06
4.84806e-06
1.01665e-05
3.05214e-06
4.84583e-06
3.0587e-06
1.01614e-05
5.80983e-06
4.85411e-06
1.01717e-05
3.05337e-06
1.02161e-05
2.28198e-05
2.28194e-05
1.0203e-05
2.28144e-05
2.28134e-05
4.8464e-06
1.01637e-05
5.8133e-06
3.04775e-06
1.0153e-05
4.8341e-06
3.05612e-06
4.85242e-06
1.0169e-05
5.81518e-06
3.04895e-06
1.01582e-05
4.8401e-06
3.05736e-06
1.92785e-05
1.94078e-05
1.92816e-05
1.94112e-05
1.02023e-05
2.28157e-05
2.28158e-05
1.01836e-05
2.2794e-05
2.2793e-05
4.82687e-06
2.97886e-06
5.82508e-06
1.00146e-05
1.01003e-05
3.03962e-06
4.75005e-06
4.83271e-06
2.9798e-06
5.82702e-06
1.00196e-05
1.01055e-05
3.04082e-06
4.75491e-06
4.81476e-06
1.01439e-05
3.05144e-06
5.79349e-06
4.83966e-06
1.01482e-05
3.03373e-06
4.82058e-06
1.01491e-05
3.0527e-06
5.79543e-06
4.84563e-06
1.01535e-05
3.03493e-06
1.01364e-05
2.25514e-05
2.25512e-05
2.27819e-05
2.27821e-05
1.03152e-05
1.28861e-05
4.35638e-06
1.14396e-05
5.02283e-06
1.14444e-05
5.02224e-06
1.28874e-05
2.32923e-05
7.47593e-06
9.781e-06
2.31162e-05
7.40392e-06
1.28903e-05
4.35895e-06
1.14458e-05
5.02421e-06
1.1443e-05
1.28875e-05
5.02331e-06
2.30978e-05
7.4032e-06
9.76922e-06
7.49376e-06
2.33141e-05
1.28762e-05
1.14391e-05
5.01461e-06
4.34573e-06
1.28797e-05
1.14282e-05
5.01563e-06
2.30037e-05
9.70469e-06
7.36233e-06
2.31899e-05
7.52528e-06
2.33358e-05
7.51653e-06
9.76193e-06
2.30674e-05
7.39829e-06
1.28527e-05
4.34408e-06
1.13319e-05
4.99562e-06
1.27789e-05
1.14116e-05
4.99125e-06
1.28767e-05
1.14391e-05
5.01444e-06
4.34568e-06
1.28803e-05
1.14282e-05
5.0155e-06
2.3004e-05
9.70506e-06
7.36173e-06
7.52433e-06
2.31896e-05
2.33371e-05
7.51555e-06
9.76232e-06
2.30688e-05
7.39742e-06
1.2853e-05
4.34401e-06
1.13319e-05
4.99541e-06
1.14116e-05
4.99099e-06
1.2779e-05
1.01981e-05
2.28099e-05
2.28101e-05
2.28204e-05
2.2821e-05
1.02132e-05
4.84584e-06
3.05868e-06
1.01613e-05
5.80987e-06
1.01715e-05
4.85413e-06
3.05336e-06
4.84016e-06
3.05765e-06
1.01571e-05
5.80842e-06
3.05232e-06
4.84844e-06
1.01672e-05
1.02164e-05
2.28197e-05
2.28207e-05
2.28145e-05
1.02035e-05
2.28145e-05
4.85242e-06
1.01688e-05
5.81519e-06
3.04894e-06
1.01581e-05
3.05731e-06
4.8401e-06
4.84672e-06
1.01645e-05
5.81371e-06
3.04791e-06
3.05628e-06
1.01537e-05
4.83454e-06
1.94473e-05
1.94202e-05
1.92813e-05
1.9411e-05
1.02027e-05
2.28158e-05
2.28172e-05
1.0184e-05
2.2794e-05
2.27944e-05
4.83285e-06
2.97955e-06
5.82711e-06
1.00192e-05
3.04081e-06
1.01052e-05
4.75525e-06
4.82708e-06
2.97918e-06
5.82535e-06
1.00155e-05
1.01009e-05
3.03976e-06
4.75e-06
4.82053e-06
1.0149e-05
3.05268e-06
5.79539e-06
3.03485e-06
4.84567e-06
1.01533e-05
4.81516e-06
1.01446e-05
3.05162e-06
5.79385e-06
4.83998e-06
1.01488e-05
3.03391e-06
1.01368e-05
2.25509e-05
2.25526e-05
2.27816e-05
2.27832e-05
1.03157e-05
1.928e-05
1.94094e-05
1.28858e-05
4.35642e-06
1.14396e-05
5.02283e-06
1.14444e-05
5.02224e-06
1.28872e-05
2.32914e-05
7.47566e-06
9.78158e-06
2.31159e-05
7.40365e-06
1.28901e-05
4.35901e-06
1.14457e-05
5.02417e-06
1.1443e-05
1.28875e-05
5.02336e-06
2.30968e-05
7.40304e-06
9.76981e-06
7.49344e-06
2.33131e-05
1.28766e-05
5.01471e-06
1.14393e-05
4.34583e-06
1.28801e-05
5.01578e-06
1.14285e-05
2.3004e-05
9.70618e-06
7.3624e-06
2.31899e-05
7.52543e-06
2.33366e-05
7.51681e-06
9.76346e-06
2.30682e-05
7.3986e-06
1.28529e-05
4.34424e-06
4.99568e-06
1.13321e-05
1.2779e-05
4.99132e-06
1.14119e-05
1.28767e-05
1.14393e-05
5.01444e-06
4.34571e-06
1.28804e-05
1.14283e-05
5.01556e-06
2.30036e-05
9.70575e-06
7.36154e-06
7.52404e-06
2.31894e-05
2.33365e-05
7.5153e-06
9.76301e-06
2.30682e-05
7.39728e-06
1.28529e-05
4.3441e-06
1.13318e-05
4.99536e-06
1.14116e-05
4.99093e-06
1.27789e-05
1.28857e-05
4.35669e-06
5.02315e-06
1.14402e-05
5.02259e-06
1.14449e-05
1.28871e-05
2.32912e-05
7.47719e-06
9.78181e-06
7.40509e-06
2.31157e-05
1.289e-05
4.35917e-06
5.02448e-06
1.14463e-05
5.02359e-06
1.28874e-05
1.14436e-05
2.30968e-05
7.40455e-06
9.77008e-06
7.49494e-06
2.33132e-05
1.28861e-05
4.35655e-06
1.14401e-05
5.02278e-06
1.14448e-05
5.02223e-06
1.28874e-05
2.32919e-05
7.47564e-06
9.78146e-06
2.31161e-05
7.40369e-06
1.28904e-05
4.35911e-06
1.14461e-05
5.0242e-06
1.28876e-05
1.14434e-05
5.02332e-06
2.30972e-05
7.403e-06
9.7697e-06
7.49349e-06
2.33136e-05
1.28765e-05
5.01485e-06
1.14397e-05
4.34592e-06
1.288e-05
5.01594e-06
1.14288e-05
2.3004e-05
9.70605e-06
7.36244e-06
7.52561e-06
2.31902e-05
2.33364e-05
7.5169e-06
9.76332e-06
2.30683e-05
7.39864e-06
1.28529e-05
4.34433e-06
4.99574e-06
1.13324e-05
4.99144e-06
1.14122e-05
1.2779e-05
1.28767e-05
1.14395e-05
5.01443e-06
4.34583e-06
1.28803e-05
1.14285e-05
5.01553e-06
2.30036e-05
9.7056e-06
7.36139e-06
7.52409e-06
2.31892e-05
2.33366e-05
7.51532e-06
9.76287e-06
2.30683e-05
7.3972e-06
1.28529e-05
4.34411e-06
1.13322e-05
4.99529e-06
1.14119e-05
4.99091e-06
1.27789e-05
1.01979e-05
2.28093e-05
2.28097e-05
2.28197e-05
2.28207e-05
1.02131e-05
4.84581e-06
3.05868e-06
1.01612e-05
5.80982e-06
1.01714e-05
4.85412e-06
3.05334e-06
4.83994e-06
3.05759e-06
1.01564e-05
5.80831e-06
3.05226e-06
4.84821e-06
1.01666e-05
1.02163e-05
2.28195e-05
2.28201e-05
2.28139e-05
1.02033e-05
2.28139e-05
4.85238e-06
1.01686e-05
5.81515e-06
3.04893e-06
1.01578e-05
3.05731e-06
4.84008e-06
4.84652e-06
1.0164e-05
5.81362e-06
3.04787e-06
3.05622e-06
1.01531e-05
4.83431e-06
1.94475e-05
1.94201e-05
1.9282e-05
1.94115e-05
1.02026e-05
2.28157e-05
2.28166e-05
1.01839e-05
2.27937e-05
2.27938e-05
4.83282e-06
2.97955e-06
5.82708e-06
1.00191e-05
3.04082e-06
1.01051e-05
4.75528e-06
4.82695e-06
2.97919e-06
5.82546e-06
1.00151e-05
1.01005e-05
3.03975e-06
4.74979e-06
4.82053e-06
1.01488e-05
3.05265e-06
5.79537e-06
3.03486e-06
4.84566e-06
1.01531e-05
4.81498e-06
1.01441e-05
3.05158e-06
5.79397e-06
4.83982e-06
1.01485e-05
3.0339e-06
1.01367e-05
2.25513e-05
2.25524e-05
2.27817e-05
2.27829e-05
1.03155e-05
1.92801e-05
1.94092e-05
1.28854e-05
4.35649e-06
5.02309e-06
1.14399e-05
5.02248e-06
1.14447e-05
1.2887e-05
2.32905e-05
7.47697e-06
9.78167e-06
7.40496e-06
2.31149e-05
1.28897e-05
4.35911e-06
5.02435e-06
1.14461e-05
5.02347e-06
1.28871e-05
1.14434e-05
2.30961e-05
7.40443e-06
9.76988e-06
7.49483e-06
2.3313e-05
1.28861e-05
4.35646e-06
5.02298e-06
1.14399e-05
5.02238e-06
1.14447e-05
1.28875e-05
2.32924e-05
7.47605e-06
9.78201e-06
2.31169e-05
7.40399e-06
1.28904e-05
4.3591e-06
5.02434e-06
1.1446e-05
1.28877e-05
5.02345e-06
1.14434e-05
2.30976e-05
7.40329e-06
9.77035e-06
7.49384e-06
2.33139e-05
1.28763e-05
5.01478e-06
1.14395e-05
4.34583e-06
1.28799e-05
5.01589e-06
1.14285e-05
2.30042e-05
9.70596e-06
7.36255e-06
7.5256e-06
2.31902e-05
2.33363e-05
7.51675e-06
9.76314e-06
2.30681e-05
7.3986e-06
1.28527e-05
4.34423e-06
4.99575e-06
1.13322e-05
4.99139e-06
1.1412e-05
1.27789e-05
1.28768e-05
5.01457e-06
1.14394e-05
4.34577e-06
1.28803e-05
5.01576e-06
1.14285e-05
2.30048e-05
9.70618e-06
7.36189e-06
7.52456e-06
2.31905e-05
2.33374e-05
7.51563e-06
9.76343e-06
2.30687e-05
7.39765e-06
1.28532e-05
4.34418e-06
4.99551e-06
1.13322e-05
4.99113e-06
1.14119e-05
1.27792e-05
1.94481e-05
1.9421e-05
1.94501e-05
1.94232e-05
1.02032e-05
2.28166e-05
2.28165e-05
1.01844e-05
2.27944e-05
2.27938e-05
4.82739e-06
2.97905e-06
5.8255e-06
1.0015e-05
4.75051e-06
3.03987e-06
1.01006e-05
4.83279e-06
2.9798e-06
5.8269e-06
1.00196e-05
4.75502e-06
3.04083e-06
1.01053e-05
4.81528e-06
1.01445e-05
3.05173e-06
5.7939e-06
4.84019e-06
3.03398e-06
1.01486e-05
4.82068e-06
1.01491e-05
3.05272e-06
5.79531e-06
4.84576e-06
3.03493e-06
1.01533e-05
1.01372e-05
2.25523e-05
2.25518e-05
1.03161e-05
2.27825e-05
2.27826e-05
1.92803e-05
1.94099e-05
1.92823e-05
1.9412e-05
1.17348e-05
1.08268e-05
1.17352e-05
1.08282e-05
9.05288e-06
8.88791e-05
8.89028e-05
4.61584e-05
4.61631e-05
7.49378e-06
4.43248e-06
2.98152e-06
9.81482e-06
5.09589e-06
4.71645e-06
9.26168e-06
2.82833e-06
4.43538e-06
2.98275e-06
9.81907e-06
5.09701e-06
4.72165e-06
9.2651e-06
2.82859e-06
2.70401e-06
1.28542e-06
1.80673e-06
1.80636e-06
2.657e-06
1.80561e-06
1.80522e-06
1.00628e-05
2.24822e-05
2.24852e-05
9.6877e-06
4.28382e-05
4.2842e-05
4.54333e-06
1.89253e-05
5.22792e-06
2.53044e-06
2.05677e-05
4.50969e-06
2.77692e-06
4.54602e-06
1.8929e-05
5.22902e-06
2.53027e-06
2.05737e-05
4.51138e-06
2.77691e-06
9.65353e-05
9.6567e-05
7.34224e-06
1.74491e-06
1.74459e-06
2.89428e-06
4.37462e-05
2.51639e-06
4.52942e-06
4.37554e-05
2.51624e-06
4.53109e-06
5.48424e-05
3.98096e-06
4.95074e-05
4.24231e-06
2.33229e-05
4.71025e-06
7.47173e-06
5.744e-06
2.33151e-05
7.2466e-06
5.06358e-05
4.18376e-06
1.1046e-05
4.92677e-06
1.08351e-05
1.31279e-05
4.91839e-06
5.18298e-06
5.80352e-06
6.44826e-06
1.52985e-06
2.23596e-06
2.40657e-06
1.42132e-06
2.47607e-06
1.41936e-06
1.51786e-06
1.05973e-06
9.88324e-07
1.21966e-06
8.96474e-07
9.16227e-07
1.19657e-06
1.06257e-06
1.69742e-06
2.9761e-06
3.53677e-06
2.01997e-06
2.84902e-06
2.06118e-06
1.7018e-06
8.09064e-07
8.03372e-07
7.19568e-07
7.19855e-07
7.31451e-07
7.90472e-07
8.32399e-07
1.52962e-06
2.23588e-06
2.40619e-06
1.42125e-06
2.47571e-06
1.41929e-06
1.51762e-06
1.05953e-06
9.88194e-07
1.21939e-06
8.9633e-07
1.06236e-06
1.19631e-06
9.16084e-07
1.69707e-06
2.97568e-06
3.53676e-06
2.01957e-06
2.84865e-06
1.70145e-06
2.06079e-06
8.08981e-07
8.0332e-07
7.19521e-07
7.19792e-07
7.90419e-07
8.32307e-07
7.31391e-07
2.54355e-06
1.37175e-06
1.46225e-06
1.20902e-06
8.55424e-07
1.03636e-06
2.9952e-06
2.02828e-06
1.62938e-06
8.13191e-07
6.97805e-07
8.48727e-07
2.54314e-06
1.37169e-06
1.46201e-06
1.20874e-06
8.55284e-07
1.03615e-06
2.99477e-06
2.02788e-06
1.62904e-06
8.13143e-07
6.9774e-07
8.48625e-07
9.0534e-06
8.8867e-05
8.89059e-05
4.6153e-05
4.61695e-05
7.49424e-06
4.43477e-06
2.98167e-06
9.81827e-06
5.09665e-06
9.26409e-06
4.72006e-06
2.82833e-06
4.43335e-06
2.98268e-06
9.81612e-06
5.09636e-06
2.82863e-06
4.71837e-06
9.26293e-06
2.70402e-06
1.28537e-06
1.80622e-06
1.80676e-06
1.80565e-06
1.80508e-06
2.657e-06
1.00637e-05
2.24811e-05
2.24872e-05
4.2833e-05
9.68783e-06
4.28467e-05
4.5455e-06
1.89286e-05
5.22858e-06
2.53024e-06
2.05724e-05
2.77687e-06
4.51126e-06
4.54413e-06
1.89266e-05
5.22844e-06
2.53041e-06
2.77696e-06
2.05699e-05
4.51006e-06
1.17346e-05
1.08276e-05
9.65301e-05
9.65743e-05
7.34252e-06
1.74447e-06
1.7449e-06
2.89429e-06
4.37505e-05
2.51619e-06
4.53089e-06
4.37524e-05
2.51636e-06
4.52977e-06
1.52977e-06
2.23595e-06
2.40652e-06
1.42126e-06
2.47604e-06
1.41931e-06
1.51776e-06
1.05962e-06
9.8825e-07
1.21951e-06
8.96413e-07
9.16168e-07
1.19644e-06
1.06246e-06
1.69726e-06
2.97605e-06
3.53708e-06
2.01974e-06
2.84898e-06
2.061e-06
1.70164e-06
8.0902e-07
8.03345e-07
7.19542e-07
7.19819e-07