/*--------------------------------*- C++ -*----------------------------------*\
| =========                 |                                                 |
| \\      /  F ield         | OpenFOAM: The Open Source CFD Toolbox           |
|  \\    /   O peration     | Version:  v2006                                 |
|   \\  /    A nd           | Website:  www.openfoam.com                      |
|    \\/     M anipulation  |                                                 |
\*---------------------------------------------------------------------------*/
FoamFile
{
    version     2.0;
    format      ascii;
    class       volVectorField;
    location    "250";
    object      U;
}
// * * * * * * * * * * * * * * * * * * * * * * * * * * * * * * * * * * * * * //

dimensions      [0 1 -1 0 0 0 0];


internalField   nonuniform List<vector> 
14314
(
(-1.01553e-05 -1.0135e-05 0.112037)
(-1.9376e-06 4.1882e-06 0.107749)
(4.14193e-06 -1.84461e-06 0.107749)
(-1.9093e-05 -1.90388e-05 0.104639)
(-2.50254e-05 -2.50325e-05 0.112146)
(8.35819e-05 -4.93586e-05 0.108034)
(-4.94489e-05 8.35709e-05 0.108034)
(3.85727e-05 3.85257e-05 0.104998)
(-2.5644e-05 -2.56253e-05 0.104655)
(-4.96813e-06 -5.20238e-06 0.107723)
(4.99047e-06 -5.22201e-06 0.107722)
(2.56143e-05 -2.56614e-05 0.104655)
(-5.23734e-06 -4.98001e-06 0.107724)
(-5.2571e-06 5.0784e-06 0.107722)
(5.22158e-06 -5.04189e-06 0.107724)
(5.20086e-06 5.04553e-06 0.107723)
(-2.56697e-05 2.57003e-05 0.104655)
(-5.04659e-06 5.31404e-06 0.107724)
(4.99665e-06 5.31158e-06 0.107724)
(2.56394e-05 2.56984e-05 0.104654)
(1.90645e-05 1.9116e-05 0.104639)
(-4.60668e-05 -4.60028e-05 0.104612)
(4.26528e-06 1.95874e-06 0.107747)
(-4.23721e-06 1.94365e-06 0.107747)
(-3.60453e-05 -5.34375e-05 0.107781)
(3.60458e-05 -5.34045e-05 0.107781)
(-1.90785e-05 1.90959e-05 0.10464)
(4.60912e-05 -4.5978e-05 0.104612)
(1.91001e-06 4.21268e-06 0.107748)
(1.89697e-06 -4.13448e-06 0.107746)
(-5.35441e-05 -3.59944e-05 0.107782)
(-5.35006e-05 3.59914e-05 0.107781)
(-1.9482e-06 -4.20751e-06 0.107747)
(5.35706e-05 -3.59871e-05 0.107783)
(5.35433e-05 3.60171e-05 0.107781)
(1.90768e-05 -1.90164e-05 0.104639)
(-4.60299e-05 4.60342e-05 0.104612)
(-4.20684e-06 -1.85478e-06 0.107748)
(-3.60292e-05 5.3552e-05 0.107783)
(3.60602e-05 5.35201e-05 0.107782)
(4.60654e-05 4.60309e-05 0.104612)
(-3.85777e-05 -3.85045e-05 0.104997)
(-4.94561e-05 -8.34612e-05 0.108032)
(4.94643e-05 -8.34588e-05 0.108032)
(3.85777e-05 -3.84654e-05 0.104998)
(-8.35836e-05 -4.93702e-05 0.108034)
(-8.35667e-05 4.94173e-05 0.108032)
(2.50808e-05 -2.49861e-05 0.112146)
(-2.50605e-05 2.50199e-05 0.112146)
(2.51197e-05 2.49963e-05 0.112147)
(8.35652e-05 4.94086e-05 0.108033)
(-3.85634e-05 3.85428e-05 0.104997)
(4.9468e-05 8.35599e-05 0.108034)
(5.63676e-06 -2.29455e-06 0.091892)
(-8.50768e-07 2.54269e-05 0.0831316)
(-1.6334e-05 4.32794e-05 0.0721906)
(-2.33531e-06 5.66853e-06 0.0918921)
(2.54233e-05 -7.92069e-07 0.083132)
(1.60861e-06 1.66434e-06 0.111971)
(-1.65742e-06 1.62469e-06 0.11197)
(1.59729e-06 -1.53576e-06 0.11197)
(-1.6728e-06 -1.54005e-06 0.11197)
(4.6357e-06 2.15318e-06 0.0990172)
(1.97947e-06 -2.14241e-06 0.107725)
(-9.38277e-06 7.38797e-06 0.0936037)
(-4.40114e-06 1.41818e-06 0.109904)
(4.32424e-05 -1.6326e-05 0.0721898)
(2.07251e-06 4.6708e-06 0.0990171)
(-2.15228e-06 2.07301e-06 0.107725)
(1.34859e-06 -4.29509e-06 0.109903)
(7.32982e-06 -9.41192e-06 0.0936034)
(2.92669e-05 2.94161e-05 0.104674)
(-1.17269e-05 -1.54475e-05 0.0881935)
(-1.54526e-05 -1.1707e-05 0.0881926)
(6.34548e-06 -3.96566e-06 0.0920237)
(-3.54448e-06 -4.54915e-05 0.0818978)
(-7.87025e-06 -3.79223e-06 0.0917219)
(9.43228e-06 6.08773e-05 0.0836697)
(3.57443e-05 -8.19627e-05 0.0716324)
(-5.74738e-05 0.000123884 0.0723245)
(-4.05495e-06 6.39756e-06 0.0920238)
(-4.56066e-05 -3.55714e-06 0.081898)
(-3.83992e-06 -7.83726e-06 0.0917218)
(6.08479e-05 9.78502e-06 0.0836704)
(1.01513e-05 -1.01664e-05 0.112037)
(-1.01791e-05 1.02425e-05 0.112037)
(1.01253e-05 1.02323e-05 0.112036)
(-1.26363e-05 -1.26122e-05 0.111981)
(1.268e-05 -1.25916e-05 0.111981)
(-1.26698e-05 1.2665e-05 0.111981)
(1.27087e-05 1.26598e-05 0.11198)
(1.32012e-05 3.13833e-06 0.0989706)
(1.98514e-05 -1.27437e-05 0.0932866)
(1.22547e-05 -4.45804e-06 0.109941)
(1.70596e-05 -1.30192e-05 0.107727)
(4.38569e-06 -3.7557e-06 0.0990264)
(-1.11536e-05 6.20289e-06 0.0937331)
(1.97491e-06 8.31999e-07 0.109898)
(-8.18831e-05 3.57466e-05 0.0716317)
(0.000123778 -5.7428e-05 0.0723237)
(3.06739e-06 1.32768e-05 0.0989709)
(-4.50309e-06 1.23469e-05 0.109941)
(-1.27755e-05 1.9927e-05 0.0932865)
(-1.30724e-05 1.71243e-05 0.107727)
(-3.71868e-06 4.44303e-06 0.0990263)
(8.1986e-07 2.04959e-06 0.109897)
(6.06234e-06 -1.10549e-05 0.0937326)
(2.34296e-05 2.83121e-05 0.0876564)
(2.82305e-05 2.34496e-05 0.0876547)
(2.42566e-05 2.43005e-05 0.104617)
(-3.11615e-05 -3.13793e-05 0.0884664)
(-3.13976e-05 -3.10942e-05 0.0884655)
(-1.0619e-05 -3.95586e-05 0.0936849)
(-0.000138773 -0.000187587 0.081504)
(-2.09702e-05 -8.10928e-05 0.0916019)
(-0.000240492 -0.000110754 0.0862567)
(0.00026293 -0.000435149 0.0721194)
(0.000104089 -0.000208174 0.0808963)
(-3.96876e-05 -1.04376e-05 0.093685)
(-0.000187847 -0.000138411 0.0815043)
(-8.14431e-05 -2.08475e-05 0.0916017)
(-0.0001107 -0.000240587 0.086258)
(-7.62314e-06 -7.65082e-06 0.115647)
(-1.56849e-05 -3.13238e-05 0.11398)
(-3.13983e-05 -1.57088e-05 0.113981)
(-4.03067e-05 -4.02674e-05 0.111542)
(-1.09074e-05 -1.0941e-05 0.115604)
(-1.1897e-05 -3.32652e-05 0.11367)
(-3.33478e-05 -1.19022e-05 0.11367)
(4.24519e-05 5.46172e-06 0.0991571)
(0.00010747 -4.59747e-05 0.0935207)
(7.33134e-05 -3.02102e-06 0.110082)
(4.16485e-05 -1.56729e-05 0.108209)
(8.01705e-05 -1.78372e-05 0.0993718)
(0.000110251 -4.90973e-05 0.093579)
(7.23627e-05 -8.40418e-06 0.110618)
(-0.000435195 0.000262803 0.0721195)
(-0.000208031 0.000103975 0.0808967)
(5.3697e-06 4.24696e-05 0.0991572)
(-3.03061e-06 7.32535e-05 0.110082)
(-4.61067e-05 0.000107512 0.0935206)
(-1.58135e-05 4.16432e-05 0.108209)
(-1.79087e-05 8.01584e-05 0.0993718)
(-8.44198e-06 7.22614e-05 0.110618)
(-4.90918e-05 0.000110363 0.0935789)
(0.000253931 7.14085e-05 0.0876894)
(7.12305e-05 0.000254049 0.087688)
(5.06148e-05 5.05737e-05 0.105294)
(0.000119754 -4.03163e-05 0.0906542)
(-4.04226e-05 0.000119876 0.0906551)
(1.6331e-05 4.32943e-05 0.0721902)
(4.32529e-05 1.63927e-05 0.0721904)
(-2.93416e-05 -2.92771e-05 0.104675)
(1.5399e-05 1.17541e-05 0.0881937)
(1.17681e-05 1.54166e-05 0.0881923)
(2.98872e-05 7.21938e-05 0.0722449)
(-1.91345e-05 -4.85272e-05 0.0716899)
(7.20655e-05 2.99708e-05 0.0722454)
(-4.85382e-05 -1.91316e-05 0.0716883)
(2.63935e-05 2.64577e-05 0.104613)
(2.38417e-05 1.93901e-05 0.0882931)
(1.93471e-05 2.38851e-05 0.0882916)
(-1.76887e-05 -1.30611e-05 0.0877592)
(-1.31569e-05 -1.76738e-05 0.0877569)
(-5.63856e-06 -2.31726e-06 0.0918921)
(8.74331e-07 2.54132e-05 0.0831321)
(2.09026e-06 -4.61774e-06 0.0990168)
(-2.1707e-06 -1.96681e-06 0.107723)
(7.34477e-06 9.43087e-06 0.0936029)
(1.36916e-06 4.39892e-06 0.109903)
(-2.10149e-06 -4.63076e-06 0.0990171)
(2.11015e-06 -1.99628e-06 0.107723)
(-7.35987e-06 9.43794e-06 0.0936025)
(-1.45659e-06 4.39707e-06 0.109903)
(-6.25421e-06 1.03677e-06 0.0917647)
(1.37644e-06 4.072e-05 0.0833416)
(-7.53487e-08 -2.80627e-05 0.0821249)
(7.16491e-06 -4.92223e-07 0.091934)
(6.23793e-06 1.05593e-06 0.0917647)
(-1.29646e-06 4.07189e-05 0.0833424)
(3.93232e-08 -2.80886e-05 0.0821254)
(-7.18684e-06 -5.24415e-07 0.0919342)
(-2.40097e-06 2.8725e-06 0.099001)
(3.7083e-06 3.07238e-06 0.107744)
(1.02479e-05 1.47794e-05 0.0936512)
(1.73259e-06 4.49248e-06 0.1099)
(-8.90333e-06 -1.06922e-05 0.0933306)
(-2.18362e-06 -5.47154e-06 0.109937)
(2.95774e-06 -3.61692e-06 0.0990014)
(2.38213e-06 2.8874e-06 0.0990011)
(-3.7382e-06 3.04992e-06 0.107744)
(-1.02388e-05 1.4765e-05 0.0936509)
(-1.7172e-06 4.48045e-06 0.1099)
(8.86395e-06 -1.07115e-05 0.0933308)
(2.13897e-06 -5.48634e-06 0.109937)
(-2.94872e-06 -3.63045e-06 0.0990017)
(2.93256e-05 -2.93558e-05 0.104675)
(-1.54247e-05 1.1755e-05 0.088192)
(-1.17436e-05 1.54305e-05 0.0881943)
(-4.32857e-05 1.64253e-05 0.0721908)
(-2.98662e-05 7.21485e-05 0.0722455)
(1.90922e-05 -4.85427e-05 0.0716903)
(-2.64175e-05 2.63809e-05 0.104613)
(-2.38648e-05 1.93383e-05 0.0882913)
(-1.93377e-05 2.38583e-05 0.0882937)
(1.7636e-05 -1.30632e-05 0.0877582)
(1.31465e-05 -1.76346e-05 0.0877589)
(-7.21539e-05 3.00025e-05 0.072246)
(4.85938e-05 -1.91349e-05 0.0716889)
(-4.64159e-06 2.12085e-06 0.099017)
(-2.0497e-06 -2.09539e-06 0.107725)
(9.40894e-06 7.34802e-06 0.0936028)
(4.31798e-06 1.47038e-06 0.109903)
(-2.35097e-06 -5.59625e-06 0.0918919)
(2.54403e-05 8.56902e-07 0.0831319)
(-4.64244e-06 -2.07371e-06 0.099017)
(-2.00553e-06 2.17733e-06 0.107722)
(4.32918e-06 -1.34929e-06 0.109903)
(9.41855e-06 -7.31093e-06 0.0936022)
(9.60516e-07 -6.24659e-06 0.0917644)
(4.07289e-05 1.47659e-06 0.0833424)
(-2.81368e-05 -7.4816e-08 0.0821252)
(-5.36354e-07 7.22496e-06 0.091934)
(2.84514e-06 -2.35479e-06 0.0990009)
(3.03443e-06 3.75247e-06 0.107745)
(1.47078e-05 1.02942e-05 0.0936512)
(4.44147e-06 1.74132e-06 0.1099)
(-1.07576e-05 -8.90894e-06 0.0933307)
(-5.55357e-06 -2.11216e-06 0.109937)
(-3.67256e-06 2.9985e-06 0.0990012)
(1.00357e-06 6.28168e-06 0.0917646)
(4.07591e-05 -1.33034e-06 0.0833424)
(-2.81264e-05 6.47464e-08 0.0821251)
(-5.40613e-07 -7.12442e-06 0.091934)
(2.86625e-06 2.42197e-06 0.0990009)
(3.03232e-06 -3.66789e-06 0.107743)
(4.45184e-06 -1.66819e-06 0.109899)
(1.46937e-05 -1.02523e-05 0.0936508)
(-5.52236e-06 2.21726e-06 0.109937)
(-1.07357e-05 8.92282e-06 0.0933304)
(-3.67673e-06 -2.89408e-06 0.0990013)
(2.30989e-06 5.63611e-06 0.0918925)
(-2.5431e-05 -7.604e-07 0.0831324)
(4.6482e-06 -2.05903e-06 0.0990172)
(1.96076e-06 2.2274e-06 0.107723)
(-4.40226e-06 -1.36477e-06 0.109903)
(-9.39993e-06 -7.38813e-06 0.0936033)
(2.31664e-06 -5.63294e-06 0.0918925)
(-2.54577e-05 8.53006e-07 0.0831325)
(-2.8424e-06 -2.35637e-06 0.0990011)
(-3.06587e-06 3.6623e-06 0.107746)
(-1.47221e-05 1.02936e-05 0.0936522)
(-4.47106e-06 1.69944e-06 0.1099)
(1.07651e-05 -8.84805e-06 0.0933315)
(5.46656e-06 -2.17643e-06 0.109937)
(3.67825e-06 2.90265e-06 0.0990017)
(-1.03398e-06 -6.26912e-06 0.0917647)
(-4.07324e-05 1.46532e-06 0.0833427)
(2.81323e-05 -3.7162e-08 0.0821256)
(4.95933e-07 7.14639e-06 0.0919345)
(-2.84394e-06 2.41038e-06 0.0990012)
(-3.07829e-06 -3.63079e-06 0.107744)
(-4.49866e-06 -1.66316e-06 0.109899)
(-1.47215e-05 -1.01639e-05 0.0936518)
(5.4665e-06 2.22495e-06 0.109937)
(1.07643e-05 8.88098e-06 0.0933313)
(3.68113e-06 -2.98381e-06 0.0990017)
(-1.07018e-06 6.25223e-06 0.0917649)
(-4.07699e-05 -1.2508e-06 0.0833429)
(2.81299e-05 3.59493e-08 0.0821256)
(5.18793e-07 -7.1921e-06 0.0919345)
(-2.93616e-05 2.93981e-05 0.104675)
(1.17588e-05 -1.54116e-05 0.0881915)
(1.53917e-05 -1.17685e-05 0.0881941)
(1.63796e-05 -4.33233e-05 0.0721905)
(7.21133e-05 -2.98256e-05 0.0722448)
(-4.85177e-05 1.90928e-05 0.0716895)
(2.63745e-05 -2.63308e-05 0.104613)
(1.93257e-05 -2.38364e-05 0.0882909)
(2.38219e-05 -1.93406e-05 0.0882935)
(-1.31178e-05 1.7697e-05 0.0877573)
(-1.77165e-05 1.31379e-05 0.0877586)
(2.99155e-05 -7.2189e-05 0.0722457)
(-1.91689e-05 4.85942e-05 0.0716884)
(-2.14334e-06 4.69095e-06 0.0990173)
(2.0874e-06 2.08034e-06 0.107724)
(-1.49163e-06 -4.2943e-06 0.109903)
(-7.36982e-06 -9.36236e-06 0.0936035)
(5.65681e-06 2.3766e-06 0.091892)
(-8.37626e-07 -2.54658e-05 0.0831321)
(-5.61526e-06 2.47312e-06 0.0918922)
(7.87791e-07 -2.54265e-05 0.083133)
(-2.38334e-06 -2.81008e-06 0.0990012)
(3.68737e-06 -2.96943e-06 0.107745)
(1.65163e-06 -4.38799e-06 0.1099)
(1.02577e-05 -1.46736e-05 0.093652)
(-2.22294e-06 5.60039e-06 0.109937)
(-8.93532e-06 1.07728e-05 0.0933312)
(2.94927e-06 3.70921e-06 0.0990016)
(2.36171e-06 -2.81051e-06 0.0990014)
(-3.75277e-06 -2.96832e-06 0.107745)
(-1.7351e-06 -4.38879e-06 0.1099)
(-1.027e-05 -1.4678e-05 0.093652)
(2.08314e-06 5.60825e-06 0.109937)
(8.88056e-06 1.08136e-05 0.093331)
(-2.93989e-06 3.70674e-06 0.0990018)
(-6.23961e-06 -9.35002e-07 0.0917648)
(1.35531e-06 -4.07825e-05 0.0833425)
(-8.83762e-08 2.81594e-05 0.0821251)
(7.12752e-06 5.38498e-07 0.0919341)
(6.28919e-06 -9.11246e-07 0.091765)
(-1.3716e-06 -4.07439e-05 0.0833435)
(4.7177e-09 2.81868e-05 0.0821258)
(-7.17796e-06 5.08346e-07 0.0919344)
(-4.33075e-05 -1.63652e-05 0.0721903)
(-1.63937e-05 -4.32791e-05 0.0721907)
(-2.64574e-05 -2.63174e-05 0.104613)
(-1.93422e-05 -2.38274e-05 0.088293)
(-2.38588e-05 -1.92676e-05 0.088292)
(1.3098e-05 1.77084e-05 0.0877592)
(1.76712e-05 1.31159e-05 0.0877575)
(-7.21979e-05 -2.98697e-05 0.0722454)
(4.85809e-05 1.91493e-05 0.0716896)
(-2.99266e-05 -7.21543e-05 0.0722459)
(1.91303e-05 4.85836e-05 0.0716894)
(-3.5731e-05 -8.1875e-05 0.0716318)
(5.73823e-05 0.000123922 0.0723244)
(-8.19161e-05 -3.57297e-05 0.0716304)
(0.000123975 5.77659e-05 0.0723251)
(-2.81919e-05 -2.33339e-05 0.0876562)
(-2.35523e-05 -2.81349e-05 0.087654)
(-2.42604e-05 -2.42102e-05 0.104617)
(3.13688e-05 3.12181e-05 0.0884665)
(3.13796e-05 3.14465e-05 0.0884651)
(7.56468e-05 0.000147098 0.0726297)
(-6.69242e-05 -0.000147208 0.0715795)
(0.00014675 7.58912e-05 0.0726309)
(-0.000147069 -6.67701e-05 0.0715777)
(-4.18958e-06 -4.11395e-06 0.104708)
(2.79621e-05 -4.67543e-06 0.0888893)
(-4.72409e-06 2.81056e-05 0.0888883)
(-4.75546e-05 -5.36072e-05 0.0875098)
(-5.37893e-05 -4.74059e-05 0.0875076)
(-6.31942e-06 -4.03509e-06 0.0920238)
(3.57092e-06 -4.55358e-05 0.0818982)
(7.83395e-06 -3.76041e-06 0.091722)
(-9.41273e-06 6.07525e-05 0.0836703)
(3.09718e-06 -1.30904e-05 0.0989704)
(-1.27542e-05 -1.97257e-05 0.0932858)
(-4.42152e-06 -1.22433e-05 0.109941)
(-1.29874e-05 -1.69848e-05 0.107726)
(-3.70445e-06 -4.3209e-06 0.0990259)
(6.07033e-06 1.12329e-05 0.0937319)
(8.68308e-07 -1.93798e-06 0.109898)
(-3.11071e-06 -1.31223e-05 0.0989706)
(1.27739e-05 -1.97818e-05 0.093286)
(4.46925e-06 -1.22606e-05 0.109941)
(1.3031e-05 -1.70038e-05 0.107725)
(3.69055e-06 -4.31367e-06 0.0990261)
(-6.06082e-06 1.1162e-05 0.0937315)
(-8.02721e-07 -1.94357e-06 0.109898)
(-1.1105e-05 -2.22583e-05 0.0916507)
(9.33577e-06 4.99348e-05 0.0842227)
(-1.96155e-05 -7.85338e-05 0.0815782)
(-6.97062e-06 -4.08765e-05 0.0922385)
(1.10908e-05 -2.22325e-05 0.0916508)
(-9.12279e-06 4.99675e-05 0.0842239)
(1.94512e-05 -7.85357e-05 0.0815784)
(6.87038e-06 -4.07476e-05 0.0922388)
(-7.35077e-06 -2.671e-05 0.0990997)
(-1.73304e-06 -1.30666e-05 0.107761)
(-3.46739e-05 -4.61794e-05 0.0939842)
(4.14437e-07 -2.71451e-05 0.109933)
(-2.12439e-05 -4.25176e-05 0.0932458)
(-9.14744e-06 -3.344e-05 0.109956)
(-4.10762e-06 -5.26827e-05 0.098944)
(7.31221e-06 -2.67169e-05 0.0990999)
(1.74151e-06 -1.30622e-05 0.107761)
(3.46455e-05 -4.6141e-05 0.0939843)
(-3.98848e-07 -2.71234e-05 0.109933)
(2.1199e-05 -4.25405e-05 0.093246)
(9.17956e-06 -3.34386e-05 0.109956)
(4.01934e-06 -5.2639e-05 0.0989442)
(2.81303e-05 -2.34185e-05 0.0876553)
(2.351e-05 -2.81446e-05 0.0876558)
(2.42869e-05 -2.42332e-05 0.104617)
(-3.13294e-05 3.11688e-05 0.0884645)
(-3.13697e-05 3.14489e-05 0.0884676)
(8.20045e-05 -3.57739e-05 0.071631)
(-0.000124107 5.78326e-05 0.072326)
(-7.5679e-05 0.000147212 0.0726308)
(6.68319e-05 -0.000147124 0.0715796)
(4.21452e-06 -4.12527e-06 0.104709)
(-2.79285e-05 -4.71276e-06 0.0888878)
(4.72592e-06 2.82185e-05 0.0888903)
(4.75375e-05 -5.35225e-05 0.0875089)
(5.37835e-05 -4.74667e-05 0.0875088)
(-0.000147019 7.60481e-05 0.0726315)
(0.000147294 -6.68935e-05 0.0715777)
(-1.32333e-05 3.14411e-06 0.0989704)
(-1.98545e-05 -1.26844e-05 0.0932859)
(-1.22725e-05 -4.44231e-06 0.109941)
(-1.70628e-05 -1.30293e-05 0.107727)
(-4.40671e-06 -3.66728e-06 0.0990261)
(1.1151e-05 6.21258e-06 0.0937321)
(-1.98879e-06 8.39559e-07 0.109898)
(-4.07507e-06 -6.29877e-06 0.0920237)
(-4.55781e-05 3.6038e-06 0.0818979)
(-3.79246e-06 7.89723e-06 0.0917219)
(6.08157e-05 -9.43612e-06 0.0836703)
(-1.32307e-05 -3.06623e-06 0.0989704)
(-1.22957e-05 4.51926e-06 0.109941)
(-1.9907e-05 1.27445e-05 0.0932857)
(-1.70707e-05 1.30725e-05 0.107725)
(-4.38299e-06 3.75633e-06 0.0990261)
(-1.99407e-06 -7.56755e-07 0.109897)
(1.10935e-05 -6.09099e-06 0.0937313)
(-2.23422e-05 -1.106e-05 0.0916507)
(4.983e-05 9.72274e-06 0.0842235)
(-7.86784e-05 -1.94985e-05 0.0815782)
(-4.10732e-05 -6.85259e-06 0.0922391)
(-2.68379e-05 -7.30831e-06 0.0990999)
(-1.3135e-05 -1.74581e-06 0.107762)
(-4.63441e-05 -3.45275e-05 0.0939846)
(-2.72478e-05 4.75303e-07 0.109933)
(-4.26327e-05 -2.10901e-05 0.0932459)
(-3.3498e-05 -9.11816e-06 0.109956)
(-5.28683e-05 -4.04755e-06 0.0989443)
(-2.23059e-05 1.11259e-05 0.0916507)
(5.0001e-05 -9.40175e-06 0.084224)
(-7.86456e-05 1.95258e-05 0.0815781)
(-4.10183e-05 6.95424e-06 0.0922389)
(-2.68268e-05 7.33741e-06 0.0991)
(-1.31323e-05 1.73823e-06 0.10776)
(-2.72383e-05 -4.08782e-07 0.109933)
(-4.62358e-05 3.46556e-05 0.0939842)
(-3.35277e-05 9.19194e-06 0.109956)
(-4.2622e-05 2.11954e-05 0.0932458)
(-5.28234e-05 4.04443e-06 0.0989442)
(4.10168e-06 6.36456e-06 0.0920242)
(4.5605e-05 -3.54873e-06 0.0818985)
(3.81617e-06 -7.87971e-06 0.0917221)
(-6.08611e-05 9.80198e-06 0.0836709)
(1.31841e-05 -3.06854e-06 0.0989707)
(1.22522e-05 4.46683e-06 0.109941)
(1.98617e-05 1.28701e-05 0.0932867)
(1.70538e-05 1.30326e-05 0.107725)
(4.3499e-06 3.6734e-06 0.0990263)
(1.96013e-06 -8.2575e-07 0.109897)
(-1.11539e-05 -6.08318e-06 0.0937326)
(4.06027e-06 -6.2847e-06 0.0920242)
(4.55824e-05 3.62606e-06 0.0818986)
(3.7759e-06 7.87862e-06 0.0917222)
(-6.08653e-05 -9.44497e-06 0.083671)
(2.68194e-05 -7.29615e-06 0.0991)
(1.31514e-05 -1.73554e-06 0.107763)
(4.63069e-05 -3.44353e-05 0.0939851)
(2.7292e-05 4.55976e-07 0.109933)
(4.26533e-05 -2.1093e-05 0.0932463)
(3.35254e-05 -9.14376e-06 0.109956)
(5.29074e-05 -3.99057e-06 0.0989444)
(2.23864e-05 -1.10493e-05 0.0916509)
(-4.98771e-05 9.72984e-06 0.0842237)
(7.87055e-05 -1.94453e-05 0.0815784)
(4.11092e-05 -6.82818e-06 0.0922396)
(2.67873e-05 7.379e-06 0.0991001)
(1.31509e-05 1.748e-06 0.107761)
(2.72757e-05 -3.79793e-07 0.109933)
(4.62211e-05 3.45556e-05 0.0939848)
(3.35226e-05 9.15683e-06 0.109955)
(4.26317e-05 2.11894e-05 0.0932464)
(5.28559e-05 4.04388e-06 0.0989444)
(2.23166e-05 1.11593e-05 0.0916512)
(-4.99809e-05 -9.47543e-06 0.0842243)
(7.86657e-05 1.94624e-05 0.0815785)
(4.09987e-05 6.91109e-06 0.0922394)
(-2.34925e-05 2.82487e-05 0.0876544)
(-2.82098e-05 2.35724e-05 0.0876558)
(-2.43107e-05 2.43558e-05 0.104617)
(3.1146e-05 -3.13799e-05 0.088464)
(3.14096e-05 -3.10665e-05 0.088467)
(-3.58582e-05 8.20527e-05 0.0716306)
(5.74626e-05 -0.000123661 0.0723251)
(0.000147187 -7.58465e-05 0.0726301)
(-0.000147052 6.67607e-05 0.0715793)
(-4.23135e-06 4.28658e-06 0.104708)
(-4.57629e-06 -2.80062e-05 0.0888876)
(2.81248e-05 4.65777e-06 0.0888901)
(-5.36284e-05 4.75598e-05 0.0875081)
(-4.75257e-05 5.38126e-05 0.087509)
(7.59869e-05 -0.000147077 0.0726316)
(-6.68573e-05 0.000147314 0.0715778)
(-3.1338e-06 1.32883e-05 0.0989711)
(4.46313e-06 1.23518e-05 0.109941)
(1.27738e-05 1.99011e-05 0.0932863)
(1.30626e-05 1.70995e-05 0.107727)
(3.70062e-06 4.41029e-06 0.0990266)
(-7.9565e-07 2.05137e-06 0.109897)
(-6.0638e-06 -1.10691e-05 0.0937327)
(6.28588e-06 4.11367e-06 0.0920241)
(-3.65988e-06 4.562e-05 0.0818979)
(-7.91774e-06 3.80352e-06 0.0917223)
(9.38494e-06 -6.07914e-05 0.0836706)
(-6.35881e-06 4.1479e-06 0.0920243)
(3.56677e-06 4.5632e-05 0.0818987)
(7.85039e-06 3.68499e-06 0.0917224)
(-9.56737e-06 -6.07812e-05 0.0836715)
(-7.38071e-06 2.6885e-05 0.0991001)
(-1.77252e-06 1.31665e-05 0.107762)
(4.67425e-07 2.72559e-05 0.109933)
(-3.45284e-05 4.62956e-05 0.0939849)
(-9.12721e-06 3.35397e-05 0.109956)
(-2.12169e-05 4.27128e-05 0.0932463)
(-4.07612e-06 5.29042e-05 0.0989444)
(7.3e-06 2.68769e-05 0.0991004)
(1.77479e-06 1.31537e-05 0.107762)
(-4.1478e-07 2.72493e-05 0.109933)
(3.4524e-05 4.62988e-05 0.0939852)
(9.14769e-06 3.35442e-05 0.109956)
(2.12188e-05 4.26968e-05 0.0932463)
(4.02534e-06 5.28667e-05 0.0989446)
(-1.11471e-05 2.24783e-05 0.0916508)
(9.59167e-06 -4.99068e-05 0.0842238)
(-1.94792e-05 7.87804e-05 0.0815781)
(-6.93381e-06 4.11463e-05 0.0922395)
(1.10667e-05 2.24534e-05 0.091651)
(-9.64146e-06 -4.99337e-05 0.0842248)
(1.94307e-05 7.87626e-05 0.0815788)
(6.84348e-06 4.10557e-05 0.0922398)
(8.19986e-05 3.58138e-05 0.0716321)
(-0.000123957 -5.74756e-05 0.0723248)
(3.57905e-05 8.20192e-05 0.0716317)
(-5.76246e-05 -0.000123894 0.0723252)
(4.17204e-06 4.22982e-06 0.104708)
(4.60298e-06 -2.81247e-05 0.0888891)
(-2.81271e-05 4.69858e-06 0.0888886)
(5.36094e-05 4.76596e-05 0.0875097)
(4.75621e-05 5.3634e-05 0.087508)
(-0.000147404 -7.60391e-05 0.0726308)
(0.000147246 6.69135e-05 0.071579)
(-7.6169e-05 -0.000147382 0.0726313)
(6.68172e-05 0.0001473 0.0715788)
(-0.000262815 -0.000435085 0.0721188)
(-0.000103996 -0.000208266 0.0808953)
(-0.00043471 -0.000262369 0.0721172)
(-0.000208436 -0.000103745 0.0808958)
(-7.15055e-05 -0.00025376 0.0876891)
(-0.000254046 -7.12698e-05 0.0876874)
(-5.06401e-05 -5.05669e-05 0.105294)
(4.04453e-05 -0.000119796 0.0906535)
(-0.000119824 4.04362e-05 0.090654)
(-4.85483e-05 -4.84673e-05 0.105751)
(2.45755e-05 -0.000121046 0.0901274)
(-0.000121034 2.45726e-05 0.0901279)
(1.05757e-05 -3.95312e-05 0.0936854)
(0.000138935 -0.000187388 0.0815051)
(2.08225e-05 -8.08839e-05 0.091602)
(0.000240794 -0.000110682 0.0862586)
(5.38578e-06 -4.23356e-05 0.0991569)
(-4.62262e-05 -0.00010721 0.0935203)
(-3.10631e-06 -7.31531e-05 0.110082)
(-1.57893e-05 -4.14884e-05 0.108208)
(-1.79327e-05 -7.99172e-05 0.0993715)
(-4.91899e-05 -0.00011021 0.0935782)
(-8.48892e-06 -7.21572e-05 0.110618)
(-5.46487e-06 -4.23735e-05 0.0991574)
(4.6253e-05 -0.000107258 0.0935215)
(3.07223e-06 -7.31348e-05 0.110083)
(1.58138e-05 -4.1445e-05 0.108209)
(1.78169e-05 -7.98538e-05 0.0993719)
(4.92503e-05 -0.000110145 0.0935797)
(8.49932e-06 -7.21339e-05 0.110619)
(2.5856e-05 -5.41975e-05 0.100167)
(-1.47452e-05 -5.47519e-05 0.108355)
(-5.02487e-05 -7.8886e-05 0.0929769)
(-1.79916e-06 -5.79245e-05 0.110755)
(-2.59307e-05 -5.42208e-05 0.100167)
(1.47703e-05 -5.47071e-05 0.108356)
(5.03443e-05 -7.88695e-05 0.0929785)
(1.82024e-06 -5.79078e-05 0.110755)
(7.14308e-05 -0.000253759 0.0876892)
(0.00025405 -7.11455e-05 0.0876878)
(5.06204e-05 -5.05026e-05 0.105294)
(-4.03879e-05 -0.000119814 0.0906545)
(0.00011986 4.04983e-05 0.0906537)
(0.000435118 -0.000262536 0.0721169)
(0.000208548 -0.000103756 0.0808957)
(4.85462e-05 -4.84244e-05 0.105752)
(-2.45075e-05 -0.000121078 0.0901283)
(0.000121077 2.46026e-05 0.0901275)
(-4.24241e-05 5.51957e-06 0.099157)
(-0.000107484 -4.60632e-05 0.0935208)
(-7.32368e-05 -3.02748e-06 0.110082)
(-4.16146e-05 -1.57193e-05 0.108209)
(-8.01269e-05 -1.78696e-05 0.0993717)
(-0.000110224 -4.90732e-05 0.0935795)
(-7.22967e-05 -8.42672e-06 0.110618)
(-3.96472e-05 1.07267e-05 0.0936852)
(-0.000187651 0.000138966 0.0815049)
(-8.12148e-05 2.0911e-05 0.091602)
(-0.000110581 0.000240732 0.0862588)
(-4.24507e-05 -5.35316e-06 0.0991572)
(-7.32324e-05 3.03295e-06 0.110082)
(-0.000107439 4.62797e-05 0.0935213)
(-4.15557e-05 1.58152e-05 0.108208)
(-8.00581e-05 1.78903e-05 0.099372)
(-7.22561e-05 8.48252e-06 0.110618)
(-0.000110235 4.93154e-05 0.0935797)
(-5.42554e-05 2.60062e-05 0.100167)
(-5.48687e-05 -1.46747e-05 0.108356)
(-7.88931e-05 -5.01509e-05 0.092978)
(-5.8046e-05 -1.74217e-06 0.110755)
(-5.42847e-05 -2.5829e-05 0.100167)
(-5.48046e-05 1.47786e-05 0.108355)
(-5.80085e-05 1.82623e-06 0.110755)
(-7.89045e-05 5.03908e-05 0.0929783)
(7.77203e-06 -7.64617e-06 0.115647)
(1.57546e-05 -3.13049e-05 0.11398)
(3.14556e-05 -1.56945e-05 0.113981)
(4.03665e-05 -4.02418e-05 0.111542)
(1.10133e-05 -1.0938e-05 0.115604)
(1.19897e-05 -3.32475e-05 0.11367)
(3.34563e-05 -1.18917e-05 0.11367)
(-7.62636e-06 7.70479e-06 0.115647)
(-3.13803e-05 1.57132e-05 0.11398)
(-1.56877e-05 3.13924e-05 0.113981)
(-4.03401e-05 4.03274e-05 0.111542)
(-1.09181e-05 1.0956e-05 0.115604)
(-3.33079e-05 1.19636e-05 0.11367)
(-1.19085e-05 3.3343e-05 0.11367)
(7.775e-06 7.70267e-06 0.115647)
(3.14438e-05 1.57048e-05 0.11398)
(1.57727e-05 3.13754e-05 0.113981)
(4.03871e-05 4.02946e-05 0.111542)
(1.10195e-05 1.09534e-05 0.115604)
(3.34247e-05 1.19544e-05 0.11367)
(1.20087e-05 3.33297e-05 0.11367)
(-2.42642e-06 -2.45229e-06 0.115621)
(-4.50272e-05 -4.49706e-05 0.111349)
(-4.48084e-06 -4.05817e-05 0.113544)
(-4.06607e-05 -4.47404e-06 0.113545)
(2.57697e-06 -2.44927e-06 0.115621)
(4.50875e-05 -4.49515e-05 0.11135)
(4.56739e-06 -4.05699e-05 0.113544)
(4.07751e-05 -4.47108e-06 0.113545)
(-2.42806e-06 2.51539e-06 0.115621)
(-4.50409e-05 4.50597e-05 0.111349)
(-4.06243e-05 4.55386e-06 0.113544)
(-4.49321e-06 4.06767e-05 0.113545)
(2.57716e-06 2.51341e-06 0.115621)
(4.50771e-05 4.5023e-05 0.11135)
(4.07435e-05 4.54275e-06 0.113544)
(4.57882e-06 4.06669e-05 0.113545)
(3.97403e-05 -1.05106e-05 0.0936852)
(0.000187851 -0.000138372 0.0815044)
(8.14949e-05 -2.08273e-05 0.0916017)
(0.00011074 -0.00024057 0.0862578)
(4.24691e-05 -5.42653e-06 0.0991573)
(7.32994e-05 3.05424e-06 0.110082)
(0.000107411 4.61611e-05 0.0935214)
(4.15857e-05 1.57533e-05 0.108209)
(8.01064e-05 1.78511e-05 0.0993721)
(7.23243e-05 8.47021e-06 0.110618)
(0.000110205 4.93121e-05 0.0935794)
(3.96931e-05 1.06467e-05 0.0936854)
(0.000187647 0.000138779 0.0815052)
(8.12427e-05 2.08735e-05 0.0916022)
(0.000110607 0.000240725 0.0862587)
(5.42954e-05 2.59458e-05 0.100167)
(5.49105e-05 -1.46435e-05 0.108356)
(7.89324e-05 -5.01777e-05 0.0929776)
(5.8123e-05 -1.73182e-06 0.110755)
(5.43035e-05 -2.58811e-05 0.100167)
(5.48369e-05 1.47261e-05 0.108356)
(5.80866e-05 1.80412e-06 0.110755)
(7.88824e-05 5.03964e-05 0.092978)
(-0.000254053 7.14902e-05 0.0876884)
(-7.12796e-05 0.000254052 0.087688)
(-5.06486e-05 5.06521e-05 0.105294)
(-0.00011974 -4.02483e-05 0.0906544)
(4.05176e-05 0.000119961 0.0906536)
(-0.000262549 0.000435072 0.0721175)
(-0.000103763 0.000208579 0.0808961)
(-4.85329e-05 4.85663e-05 0.105751)
(-0.000121013 -2.43914e-05 0.0901281)
(2.46305e-05 0.000121234 0.0901274)
(-5.54421e-06 4.25184e-05 0.0991576)
(3.03986e-06 7.32494e-05 0.110082)
(4.60773e-05 0.000107461 0.0935215)
(1.58225e-05 4.15893e-05 0.10821)
(1.78334e-05 8.01016e-05 0.0993722)
(8.4809e-06 7.22462e-05 0.110618)
(4.91711e-05 0.000110302 0.0935804)
(-1.06353e-05 3.97318e-05 0.0936854)
(-0.000138392 0.000187894 0.0815044)
(-2.09363e-05 8.15179e-05 0.0916018)
(-0.000240663 0.000110884 0.086258)
(1.05161e-05 3.97181e-05 0.0936858)
(0.000138669 0.000187713 0.0815056)
(2.08017e-05 8.13107e-05 0.091602)
(0.000240546 0.000110687 0.0862596)
(2.58313e-05 5.43385e-05 0.100167)
(-1.47494e-05 5.49043e-05 0.108356)
(-1.77182e-06 5.80379e-05 0.110755)
(-5.01774e-05 7.90806e-05 0.0929775)
(-2.60066e-05 5.43667e-05 0.100168)
(1.47484e-05 5.48435e-05 0.108357)
(1.79646e-06 5.80273e-05 0.110755)
(5.02481e-05 7.89881e-05 0.0929791)
(0.000435442 0.000262857 0.0721187)
(0.000208123 0.00010397 0.0808964)
(0.000262855 0.000435537 0.0721186)
(0.000103931 0.000208247 0.0808973)
(4.85075e-05 4.85021e-05 0.105752)
(0.000121002 -2.44183e-05 0.0901277)
(-2.45231e-05 0.000121144 0.0901287)
(-0.000104008 -0.000193932 0.0808006)
(-0.000194057 -0.000103806 0.0808014)
(-1.61134e-05 -3.26807e-06 0.093119)
(-0.000236675 -0.000202399 0.0871274)
(1.60794e-05 -3.23339e-06 0.0931194)
(0.000236977 -0.000202398 0.0871295)
(0.000104133 -0.000193912 0.0808023)
(0.000194179 -0.000103824 0.0808013)
(-3.3283e-06 -1.59186e-05 0.0931191)
(-0.000202393 -0.000236695 0.0871287)
(-3.30866e-06 1.627e-05 0.0931192)
(-0.000202281 0.000236909 0.0871292)
(3.44406e-06 -1.60131e-05 0.0931194)
(0.000202434 -0.000236674 0.0871283)
(3.38537e-06 1.61737e-05 0.0931195)
(0.00020231 0.000236899 0.0871292)
(-0.000193732 0.000104061 0.0808022)
(-0.000103841 0.000194265 0.0808017)
(-1.61482e-05 3.46083e-06 0.0931196)
(-0.000236795 0.000202574 0.0871286)
(1.60284e-05 3.43325e-06 0.0931199)
(0.000236731 0.00020241 0.0871301)
(0.000193824 0.000104042 0.0808021)
(0.000103995 0.000193967 0.0808032)
(1.27094e-05 -3.12967e-05 0.0771896)
(-5.41937e-06 2.19851e-06 0.0917782)
(1.13363e-05 -2.29524e-05 0.0790185)
(5.3745e-06 5.14518e-06 0.0904043)
(-1.05133e-05 2.08243e-05 0.0790897)
(-5.41909e-06 -5.10247e-06 0.0902821)
(-1.39031e-05 3.52074e-05 0.0773682)
(-5.24494e-05 -6.6528e-05 0.067947)
(2.00781e-05 3.42307e-06 0.0864605)
(4.07387e-07 -2.19407e-05 0.0822098)
(-1.91732e-05 -3.48945e-06 0.0860561)
(5.75413e-05 7.7777e-05 0.0697437)
(1.40541e-05 -3.77463e-05 0.071716)
(-3.13684e-05 1.26966e-05 0.0771893)
(2.16113e-06 -5.40847e-06 0.0917779)
(5.11141e-06 5.42316e-06 0.0904046)
(-2.30114e-05 1.14099e-05 0.0790184)
(-5.14112e-06 -5.40426e-06 0.090282)
(2.08416e-05 -1.05052e-05 0.0790891)
(3.52621e-05 -1.38052e-05 0.0773684)
(-6.65827e-05 -5.23745e-05 0.0679474)
(3.40371e-06 2.01365e-05 0.0864605)
(-2.20029e-05 3.89696e-07 0.0822099)
(-3.52655e-06 -1.91583e-05 0.0860563)
(7.77862e-05 5.75588e-05 0.0697433)
(-3.77224e-05 1.40563e-05 0.0717151)
(-5.06017e-06 -5.16755e-06 0.0840555)
(-6.20395e-06 -2.83694e-06 0.0686961)
(-2.71194e-06 -6.08426e-06 0.0686883)
(5.65682e-06 2.35872e-06 0.0686769)
(2.31181e-06 5.51647e-06 0.0686739)
(5.4173e-06 5.42563e-06 0.0839604)
(3.84912e-06 -6.08876e-07 0.0920518)
(-3.39237e-05 -1.06273e-05 0.0823976)
(1.00444e-05 1.38431e-05 0.0877966)
(-3.35252e-06 -1.14496e-06 0.0967858)
(2.43198e-06 5.19024e-07 0.0967059)
(3.0337e-05 9.41897e-06 0.0815886)
(-4.39462e-06 6.12911e-07 0.0921955)
(-6.55836e-07 3.80729e-06 0.0920451)
(-1.06125e-05 -3.38742e-05 0.0823935)
(1.38244e-05 1.00425e-05 0.0877948)
(-1.18645e-06 -3.36094e-06 0.0967833)
(4.87384e-07 2.44557e-06 0.0967025)
(9.34892e-06 3.02948e-05 0.0815841)
(5.74119e-07 -4.38267e-06 0.0921895)
(2.57786e-05 -7.59896e-05 0.0771774)
(-8.8631e-06 -9.72956e-06 0.0916904)
(2.35402e-05 -5.64949e-05 0.0789402)
(1.83731e-06 4.31339e-07 0.0904983)
(-2.48766e-05 4.57328e-05 0.0791803)
(-7.60194e-06 -1.63198e-05 0.0902293)
(-2.36787e-05 7.90282e-05 0.0774095)
(0.00011089 0.000190817 0.070579)
(-3.32638e-05 3.74324e-06 0.0859893)
(4.3857e-06 5.06284e-05 0.0834859)
(-9.88803e-05 -0.000161513 0.067176)
(3.40509e-05 -5.34549e-06 0.0865455)
(-2.23626e-05 6.59292e-05 0.0773947)
(7.49619e-06 -5.45627e-07 0.09197)
(-1.95804e-05 3.80023e-05 0.0791466)
(-7.11349e-06 -1.11025e-05 0.090245)