/*--------------------------------*- C++ -*----------------------------------*\
| =========                 |                                                 |
| \\      /  F ield         | OpenFOAM: The Open Source CFD Toolbox           |
|  \\    /   O peration     | Version:  v2012                                 |
|   \\  /    A nd           | Website:  www.openfoam.com                      |
|    \\/     M anipulation  |                                                 |
\*---------------------------------------------------------------------------*/
FoamFile
{
    version     2.0;
    format      ascii;
    class       volScalarField;
    location    "0.18";
    object      p;
}
// * * * * * * * * * * * * * * * * * * * * * * * * * * * * * * * * * * * * * //

dimensions      [0 2 -2 0 0 0 0];


internalField   nonuniform List<scalar> 
247104
(
1.914e-06
1.91434e-06
1.91439e-06
1.91424e-06
1.91405e-06
1.91427e-06
1.91438e-06
1.91427e-06
1.91434e-06
1.9144e-06
1.91444e-06
1.91424e-06
1.9141e-06
1.91427e-06
1.91445e-06
1.91437e-06
1.91439e-06
1.91444e-06
1.91414e-06
1.91375e-06
1.91359e-06
1.91379e-06
1.91419e-06
1.91445e-06
1.91438e-06
1.91425e-06
1.91424e-06
1.91375e-06
1.91326e-06
1.91308e-06
1.91331e-06
1.91382e-06
1.91427e-06
1.91421e-06
1.91401e-06
1.91405e-06
1.9141e-06
1.9136e-06
1.91308e-06
1.9129e-06
1.91313e-06
1.91367e-06
1.91414e-06
1.914e-06
1.91428e-06
1.91427e-06
1.91379e-06
1.91331e-06
1.91313e-06
1.91336e-06
1.91386e-06
1.9143e-06
1.91424e-06
1.91439e-06
1.91445e-06
1.91419e-06
1.91382e-06
1.91367e-06
1.91386e-06
1.91424e-06
1.91446e-06
1.91437e-06
1.91426e-06
1.91437e-06
1.91445e-06
1.91427e-06
1.91414e-06
1.9143e-06
1.91446e-06
1.91433e-06
1.91437e-06
1.91421e-06
1.914e-06
1.91424e-06
1.91437e-06
1.88015e-06
1.87806e-06
1.87804e-06
1.8769e-06
1.87669e-06
1.87663e-06
1.87663e-06
1.87816e-06
1.87853e-06
1.87804e-06
1.87597e-06
1.87294e-06
1.87282e-06
1.87282e-06
1.87294e-06
1.87638e-06
1.87658e-06
1.8769e-06
1.87294e-06
1.87286e-06
1.8729e-06
1.8729e-06
1.87286e-06
1.87294e-06
1.87684e-06
1.87771e-06
1.88015e-06
1.87669e-06
1.87282e-06
1.8729e-06
1.87301e-06
1.87301e-06
1.8729e-06
1.87282e-06
1.87667e-06
1.87836e-06
1.87806e-06
1.87663e-06
1.87282e-06
1.8729e-06
1.87301e-06
1.87301e-06
1.8729e-06
1.87282e-06
1.8768e-06
1.87651e-06
1.87663e-06
1.87294e-06
1.87286e-06
1.8729e-06
1.8729e-06
1.87286e-06
1.87294e-06
1.87668e-06
1.87749e-06
1.87816e-06
1.87638e-06
1.87294e-06
1.87282e-06
1.87282e-06
1.87294e-06
1.87647e-06
1.8768e-06
1.8782e-06
1.87852e-06
1.87657e-06
1.87684e-06
1.87667e-06
1.8768e-06
1.87667e-06
1.8768e-06
1.87915e-06
1.87771e-06
1.87836e-06
1.87651e-06
1.87748e-06
1.87821e-06
1.86007e-06
1.85986e-06
1.85972e-06
1.85751e-06
1.85746e-06
1.85746e-06
1.85749e-06
1.85982e-06
1.85998e-06
1.85972e-06
1.85682e-06
1.85376e-06
1.85358e-06
1.85358e-06
1.85375e-06
1.85759e-06
1.85797e-06
1.85751e-06
1.85375e-06
1.85332e-06
1.85331e-06
1.85331e-06
1.85332e-06
1.85376e-06
1.8584e-06
1.86037e-06
1.86007e-06
1.85746e-06
1.85358e-06
1.85331e-06
1.85333e-06
1.85333e-06
1.85331e-06
1.85358e-06
1.8584e-06
1.86e-06
1.85987e-06
1.85746e-06
1.85358e-06
1.85331e-06
1.85333e-06
1.85333e-06
1.85331e-06
1.85358e-06
1.85832e-06
1.85795e-06
1.8575e-06
1.85376e-06
1.85332e-06
1.85331e-06
1.85331e-06
1.85332e-06
1.85376e-06
1.85845e-06
1.86038e-06
1.85982e-06
1.8576e-06
1.85376e-06
1.85358e-06
1.85358e-06
1.85375e-06
1.85809e-06
1.85822e-06
1.86029e-06
1.85997e-06
1.85798e-06
1.8584e-06
1.8584e-06
1.85832e-06
1.85845e-06
1.85822e-06
1.86038e-06
1.86037e-06
1.86e-06
1.85795e-06
1.86039e-06
1.8603e-06
1.84045e-06
1.84027e-06
1.84018e-06
1.83786e-06
1.83783e-06
1.83773e-06
1.83792e-06
1.84026e-06
1.84044e-06
1.84018e-06
1.83697e-06
1.83405e-06
1.83398e-06
1.83398e-06
1.83405e-06
1.83787e-06
1.83852e-06
1.83787e-06
1.83405e-06
1.83387e-06
1.83386e-06
1.83386e-06
1.83387e-06
1.83405e-06
1.83885e-06
1.84078e-06
1.84045e-06
1.83783e-06
1.83398e-06
1.83386e-06
1.83386e-06
1.83386e-06
1.83386e-06
1.83398e-06
1.83896e-06
1.84037e-06
1.84028e-06
1.83773e-06
1.83398e-06
1.83386e-06
1.83386e-06
1.83386e-06
1.83386e-06
1.83398e-06
1.83891e-06
1.83847e-06
1.83792e-06
1.83405e-06
1.83387e-06
1.83386e-06
1.83386e-06
1.83387e-06
1.83405e-06
1.83895e-06
1.84075e-06
1.84026e-06
1.83787e-06
1.83405e-06
1.83398e-06
1.83398e-06
1.83405e-06
1.83875e-06
1.83873e-06
1.84076e-06
1.84044e-06
1.83852e-06
1.83886e-06
1.83896e-06
1.83891e-06
1.83894e-06
1.83873e-06
1.84072e-06
1.84078e-06
1.84036e-06
1.83847e-06
1.84075e-06
1.84075e-06
1.82082e-06
1.82065e-06
1.82046e-06
1.81815e-06
1.81811e-06
1.81794e-06
1.81821e-06
1.82057e-06
1.82077e-06
1.82046e-06
1.81719e-06
1.8143e-06
1.81428e-06
1.81428e-06
1.8143e-06
1.81808e-06
1.81886e-06
1.81815e-06
1.8143e-06
1.81425e-06
1.81424e-06
1.81424e-06
1.81425e-06
1.8143e-06
1.81922e-06
1.82114e-06
1.82082e-06
1.81811e-06
1.81428e-06
1.81424e-06
1.81424e-06
1.81424e-06
1.81424e-06
1.81428e-06
1.8194e-06
1.82079e-06
1.82066e-06
1.81794e-06
1.81428e-06
1.81424e-06
1.81424e-06
1.81424e-06
1.81424e-06
1.81428e-06
1.81937e-06
1.81891e-06
1.81821e-06
1.8143e-06
1.81425e-06
1.81424e-06
1.81424e-06
1.81424e-06
1.81429e-06
1.81934e-06
1.82116e-06
1.82058e-06
1.81809e-06
1.8143e-06
1.81428e-06
1.81428e-06
1.81429e-06
1.8192e-06
1.8191e-06
1.8211e-06
1.82074e-06
1.81884e-06
1.81921e-06
1.8194e-06
1.81937e-06
1.81934e-06
1.8191e-06
1.82108e-06
1.82114e-06
1.82079e-06
1.81891e-06
1.82116e-06
1.8211e-06
1.80114e-06
1.80098e-06
1.80076e-06
1.79844e-06
1.7984e-06
1.79821e-06
1.7985e-06
1.80087e-06
1.80104e-06
1.80076e-06
1.79747e-06
1.79458e-06
1.79457e-06
1.79457e-06
1.79458e-06
1.79834e-06
1.79914e-06
1.79845e-06
1.79458e-06
1.79456e-06
1.79456e-06
1.79456e-06
1.79456e-06
1.79458e-06
1.79952e-06
1.80145e-06
1.80114e-06
1.7984e-06
1.79457e-06
1.79456e-06
1.79456e-06
1.79456e-06
1.79456e-06
1.79457e-06
1.79973e-06
1.80112e-06
1.80098e-06
1.79822e-06
1.79457e-06
1.79456e-06
1.79456e-06
1.79456e-06
1.79456e-06
1.79457e-06
1.79972e-06
1.79924e-06
1.7985e-06
1.79458e-06
1.79457e-06
1.79456e-06
1.79456e-06
1.79456e-06
1.79458e-06
1.79966e-06
1.80148e-06
1.80088e-06
1.79834e-06
1.79458e-06
1.79457e-06
1.79457e-06
1.79458e-06
1.79956e-06
1.79943e-06
1.8014e-06
1.80104e-06
1.79914e-06
1.79953e-06
1.79974e-06
1.79972e-06
1.79966e-06
1.79943e-06
1.80131e-06
1.80145e-06
1.80113e-06
1.79925e-06
1.80149e-06
1.80141e-06
1.78144e-06
1.78128e-06
1.78107e-06
1.77874e-06
1.7787e-06
1.77851e-06
1.77879e-06
1.78117e-06
1.78134e-06
1.78107e-06
1.77777e-06
1.77487e-06
1.77487e-06
1.77487e-06
1.77487e-06
1.77863e-06
1.77944e-06
1.77874e-06
1.77487e-06
1.77487e-06
1.77487e-06
1.77487e-06
1.77487e-06
1.77487e-06
1.77982e-06
1.78175e-06
1.78145e-06
1.7787e-06
1.77487e-06
1.77487e-06
1.77487e-06
1.77487e-06
1.77487e-06
1.77487e-06
1.78004e-06
1.78143e-06
1.78128e-06
1.77851e-06
1.77487e-06
1.77487e-06
1.77487e-06
1.77487e-06
1.77487e-06
1.77487e-06
1.78003e-06
1.77956e-06
1.77879e-06
1.77487e-06
1.77487e-06
1.77487e-06
1.77487e-06
1.77487e-06
1.77487e-06
1.77996e-06
1.78179e-06
1.78117e-06
1.77862e-06
1.77487e-06
1.77487e-06
1.77487e-06
1.77487e-06
1.77987e-06
1.77974e-06
1.7817e-06
1.78137e-06
1.77944e-06
1.77982e-06
1.78004e-06
1.78003e-06
1.77996e-06
1.77973e-06
1.78165e-06
1.78175e-06
1.78143e-06
1.77956e-06
1.78179e-06
1.78171e-06
1.76174e-06
1.76158e-06
1.76139e-06
1.75904e-06
1.75899e-06
1.7588e-06
1.75909e-06
1.76147e-06
1.76164e-06
1.76139e-06
1.75805e-06
1.75516e-06
1.75516e-06
1.75516e-06
1.75516e-06
1.75892e-06
1.75974e-06
1.75904e-06
1.75516e-06
1.75516e-06
1.75516e-06
1.75516e-06
1.75516e-06
1.75516e-06
1.76012e-06
1.76205e-06
1.76175e-06
1.75899e-06
1.75516e-06
1.75516e-06
1.75516e-06
1.75516e-06
1.75516e-06
1.75516e-06
1.76034e-06
1.76173e-06
1.76158e-06
1.7588e-06
1.75516e-06
1.75516e-06
1.75516e-06
1.75516e-06
1.75516e-06
1.75516e-06
1.76033e-06
1.75985e-06
1.75908e-06
1.75516e-06
1.75516e-06
1.75516e-06
1.75516e-06
1.75516e-06
1.75516e-06
1.76026e-06
1.76209e-06
1.76147e-06
1.75891e-06
1.75516e-06
1.75516e-06
1.75516e-06
1.75516e-06
1.76016e-06
1.76004e-06
1.762e-06
1.76167e-06
1.75974e-06
1.76012e-06
1.76034e-06
1.76033e-06
1.76026e-06
1.76002e-06
1.76194e-06
1.76205e-06
1.76173e-06
1.75985e-06
1.76209e-06
1.762e-06
1.74204e-06
1.74188e-06
1.74168e-06
1.73933e-06
1.73929e-06
1.7391e-06
1.73938e-06
1.74177e-06
1.74194e-06
1.74168e-06
1.73834e-06
1.73546e-06
1.73546e-06
1.73546e-06
1.73546e-06
1.73921e-06
1.74003e-06
1.73933e-06
1.73546e-06
1.73546e-06
1.73546e-06
1.73546e-06
1.73546e-06
1.73546e-06
1.74042e-06
1.74234e-06
1.74204e-06
1.73928e-06
1.73546e-06
1.73546e-06
1.73546e-06
1.73546e-06
1.73546e-06
1.73546e-06
1.74064e-06
1.74203e-06
1.74187e-06
1.7391e-06
1.73546e-06
1.73546e-06
1.73546e-06
1.73546e-06
1.73546e-06
1.73546e-06
1.74063e-06
1.74015e-06
1.73938e-06
1.73546e-06
1.73546e-06
1.73546e-06
1.73546e-06
1.73546e-06
1.73546e-06
1.74055e-06
1.74239e-06
1.74176e-06
1.73921e-06
1.73546e-06
1.73546e-06
1.73546e-06
1.73546e-06
1.74047e-06
1.74033e-06
1.7423e-06
1.74196e-06
1.74003e-06
1.74041e-06
1.74064e-06
1.74063e-06
1.74055e-06
1.74032e-06
1.74224e-06
1.74235e-06
1.74203e-06
1.74015e-06
1.74239e-06
1.7423e-06
1.72233e-06
1.72217e-06
1.72198e-06
1.71962e-06
1.71958e-06
1.71939e-06
1.71967e-06
1.72206e-06
1.72223e-06
1.72197e-06
1.71863e-06
1.71575e-06
1.71575e-06
1.71575e-06
1.71575e-06
1.7195e-06
1.72033e-06
1.71962e-06
1.71575e-06
1.71575e-06
1.71575e-06
1.71575e-06
1.71575e-06
1.71575e-06
1.72071e-06
1.72264e-06
1.72233e-06
1.71958e-06
1.71575e-06
1.71575e-06
1.71575e-06
1.71575e-06
1.71575e-06
1.71575e-06
1.72093e-06
1.72232e-06
1.72217e-06
1.71939e-06
1.71575e-06
1.71575e-06
1.71575e-06
1.71575e-06
1.71575e-06
1.71575e-06
1.72092e-06
1.72044e-06
1.71967e-06
1.71575e-06
1.71575e-06
1.71575e-06
1.71575e-06
1.71575e-06
1.71575e-06
1.72085e-06
1.72268e-06
1.72206e-06
1.7195e-06
1.71575e-06
1.71575e-06
1.71575e-06
1.71575e-06
1.72076e-06
1.72063e-06
1.72259e-06
1.72226e-06
1.72033e-06
1.72071e-06
1.72093e-06
1.72092e-06
1.72085e-06
1.72062e-06
1.72253e-06
1.72264e-06
1.72232e-06
1.72045e-06
1.72268e-06
1.72259e-06
1.70262e-06
1.70246e-06
1.70227e-06
1.69992e-06
1.69987e-06
1.69968e-06
1.69997e-06
1.70236e-06
1.70253e-06
1.70227e-06
1.69893e-06
1.69604e-06
1.69605e-06
1.69605e-06
1.69605e-06
1.6998e-06
1.70062e-06
1.69992e-06
1.69605e-06
1.69605e-06
1.69605e-06
1.69605e-06
1.69605e-06
1.69605e-06
1.701e-06
1.70293e-06
1.70263e-06
1.69987e-06
1.69605e-06
1.69605e-06
1.69605e-06
1.69605e-06
1.69605e-06
1.69605e-06
1.70123e-06
1.70262e-06
1.70246e-06
1.69969e-06
1.69605e-06
1.69605e-06
1.69605e-06
1.69605e-06
1.69605e-06
1.69605e-06
1.70122e-06
1.70074e-06
1.69997e-06
1.69605e-06
1.69605e-06
1.69605e-06
1.69605e-06
1.69605e-06
1.69605e-06
1.70114e-06
1.70298e-06
1.70235e-06
1.69979e-06
1.69605e-06
1.69605e-06
1.69605e-06
1.69605e-06
1.70105e-06
1.70092e-06
1.70289e-06
1.70255e-06
1.70062e-06
1.701e-06
1.70122e-06
1.70121e-06
1.70114e-06
1.70091e-06
1.70283e-06
1.70293e-06
1.70262e-06
1.70074e-06
1.70298e-06
1.70289e-06
1.68292e-06
1.68276e-06
1.68255e-06
1.68021e-06
1.68017e-06
1.67998e-06
1.68026e-06
1.68265e-06
1.68282e-06
1.68255e-06
1.67923e-06
1.67634e-06
1.67634e-06
1.67634e-06
1.67634e-06
1.68009e-06
1.68092e-06
1.68021e-06
1.67634e-06
1.67634e-06
1.67634e-06
1.67634e-06
1.67634e-06
1.67634e-06
1.6813e-06
1.68323e-06
1.68292e-06
1.68017e-06
1.67634e-06
1.67634e-06
1.67634e-06
1.67634e-06
1.67634e-06
1.67634e-06
1.68152e-06
1.68291e-06
1.68276e-06
1.67998e-06
1.67634e-06
1.67634e-06
1.67634e-06
1.67634e-06
1.67634e-06
1.67634e-06
1.68151e-06
1.68103e-06
1.68026e-06
1.67634e-06
1.67634e-06
1.67634e-06
1.67634e-06
1.67634e-06
1.67634e-06
1.68143e-06
1.68327e-06
1.68265e-06
1.68009e-06
1.67634e-06
1.67634e-06
1.67634e-06
1.67634e-06
1.68135e-06
1.68122e-06
1.68318e-06
1.68284e-06
1.68091e-06
1.6813e-06
1.68152e-06
1.68151e-06
1.68143e-06
1.68121e-06
1.68312e-06
1.68323e-06
1.68291e-06
1.68103e-06
1.68327e-06
1.68318e-06
1.66321e-06
1.66305e-06
1.66285e-06
1.66051e-06
1.66046e-06
1.66027e-06
1.66056e-06
1.66294e-06
1.66311e-06
1.66285e-06
1.65952e-06
1.65664e-06
1.65664e-06
1.65664e-06
1.65664e-06
1.66039e-06
1.66121e-06
1.6605e-06
1.65664e-06
1.65664e-06
1.65664e-06
1.65664e-06
1.65664e-06
1.65664e-06
1.66159e-06
1.66352e-06
1.66322e-06
1.66046e-06
1.65664e-06
1.65664e-06
1.65664e-06
1.65664e-06
1.65664e-06
1.65664e-06
1.66181e-06
1.66321e-06
1.66305e-06
1.66027e-06
1.65664e-06
1.65664e-06
1.65664e-06
1.65664e-06
1.65664e-06
1.65664e-06
1.6618e-06
1.66133e-06
1.66056e-06
1.65664e-06
1.65664e-06
1.65664e-06
1.65664e-06
1.65664e-06
1.65664e-06
1.66173e-06
1.66357e-06
1.66294e-06
1.66038e-06
1.65664e-06
1.65664e-06
1.65664e-06
1.65664e-06
1.66164e-06
1.66151e-06
1.66347e-06
1.66314e-06
1.66121e-06
1.66159e-06
1.66181e-06
1.6618e-06
1.66173e-06
1.6615e-06
1.66342e-06
1.66352e-06
1.66321e-06
1.66133e-06
1.66357e-06
1.66348e-06
1.64351e-06
1.64335e-06
1.64314e-06
1.6408e-06
1.64076e-06
1.64057e-06
1.64085e-06
1.64324e-06
1.64341e-06
1.64314e-06
1.63982e-06
1.63693e-06
1.63693e-06
1.63693e-06
1.63693e-06
1.64068e-06
1.64151e-06
1.6408e-06
1.63693e-06
1.63693e-06
1.63693e-06
1.63693e-06
1.63693e-06
1.63693e-06
1.64189e-06
1.64382e-06
1.64351e-06
1.64076e-06
1.63693e-06
1.63693e-06
1.63693e-06
1.63693e-06
1.63693e-06
1.63693e-06
1.64211e-06
1.6435e-06
1.64335e-06
1.64057e-06
1.63693e-06
1.63693e-06
1.63693e-06
1.63693e-06
1.63693e-06
1.63693e-06
1.6421e-06
1.64162e-06
1.64085e-06
1.63693e-06
1.63693e-06
1.63693e-06
1.63693e-06
1.63693e-06
1.63693e-06
1.64203e-06
1.64386e-06
1.64324e-06
1.64068e-06
1.63693e-06
1.63693e-06
1.63693e-06
1.63693e-06
1.64194e-06
1.64181e-06
1.64377e-06
1.64343e-06
1.6415e-06
1.64189e-06
1.64211e-06
1.6421e-06
1.64202e-06
1.6418e-06
1.64371e-06
1.64382e-06
1.6435e-06
1.64162e-06
1.64386e-06
1.64377e-06
1.6238e-06
1.62365e-06
1.62343e-06
1.6211e-06
1.62105e-06
1.62086e-06
1.62115e-06
1.62354e-06
1.6237e-06
1.62344e-06
1.62012e-06
1.61723e-06
1.61723e-06
1.61723e-06
1.61723e-06
1.62098e-06
1.6218e-06
1.6211e-06
1.61723e-06
1.61723e-06
1.61723e-06
1.61723e-06
1.61723e-06
1.61723e-06
1.62218e-06
1.62411e-06
1.62381e-06
1.62105e-06
1.61723e-06
1.61723e-06
1.61723e-06
1.61723e-06
1.61723e-06
1.61723e-06
1.62241e-06
1.6238e-06
1.62364e-06
1.62087e-06
1.61723e-06
1.61723e-06
1.61723e-06
1.61723e-06
1.61723e-06
1.61723e-06
1.6224e-06
1.62192e-06
1.62115e-06
1.61723e-06
1.61723e-06
1.61723e-06
1.61723e-06
1.61723e-06
1.61723e-06
1.62232e-06
1.62416e-06
1.62353e-06
1.62097e-06
1.61723e-06
1.61723e-06
1.61723e-06
1.61723e-06
1.62224e-06
1.6221e-06
1.62407e-06
1.62373e-06
1.6218e-06
1.62218e-06
1.6224e-06
1.62239e-06
1.62232e-06
1.62209e-06
1.62401e-06
1.62411e-06
1.6238e-06
1.62192e-06
1.62416e-06
1.62407e-06
1.6041e-06
1.60394e-06
1.60373e-06
1.6014e-06
1.60135e-06
1.60116e-06
1.60145e-06
1.60383e-06
1.604e-06
1.60374e-06
1.60041e-06
1.59753e-06
1.59753e-06
1.59753e-06
1.59753e-06
1.60128e-06
1.6021e-06
1.60139e-06
1.59753e-06
1.59752e-06
1.59752e-06
1.59752e-06
1.59752e-06
1.59753e-06
1.60248e-06
1.60441e-06
1.60411e-06
1.60135e-06
1.59753e-06
1.59753e-06
1.59753e-06
1.59753e-06
1.59753e-06
1.59753e-06
1.6027e-06
1.6041e-06
1.60394e-06
1.60116e-06
1.59753e-06
1.59753e-06
1.59753e-06
1.59753e-06
1.59753e-06
1.59753e-06
1.60269e-06
1.60222e-06
1.60144e-06
1.59753e-06
1.59753e-06
1.59753e-06
1.59753e-06
1.59753e-06
1.59753e-06
1.60262e-06
1.60446e-06
1.60383e-06
1.60127e-06
1.59753e-06
1.59753e-06
1.59753e-06
1.59753e-06
1.60253e-06
1.6024e-06
1.60436e-06
1.60403e-06
1.6021e-06
1.60248e-06
1.6027e-06
1.60269e-06
1.60262e-06
1.60239e-06
1.6043e-06
1.60441e-06
1.60409e-06
1.60222e-06
1.60446e-06
1.60437e-06
1.5844e-06
1.58424e-06
1.58403e-06
1.58169e-06
1.58165e-06
1.58146e-06
1.58174e-06
1.58413e-06
1.5843e-06
1.58404e-06
1.58071e-06
1.57782e-06
1.57782e-06
1.57782e-06
1.57782e-06
1.58158e-06
1.5824e-06
1.58169e-06
1.57782e-06
1.57782e-06
1.57782e-06
1.57782e-06
1.57782e-06
1.57782e-06
1.58278e-06
1.58471e-06
1.5844e-06
1.58165e-06
1.57782e-06
1.57782e-06
1.57782e-06
1.57782e-06
1.57782e-06
1.57782e-06
1.583e-06
1.58439e-06
1.58424e-06
1.58146e-06
1.57782e-06
1.57782e-06
1.57782e-06
1.57782e-06
1.57782e-06
1.57782e-06
1.58299e-06
1.58251e-06
1.58174e-06
1.57782e-06
1.57782e-06
1.57782e-06
1.57782e-06
1.57782e-06
1.57782e-06
1.58292e-06
1.58475e-06
1.58413e-06
1.58157e-06
1.57782e-06
1.57782e-06
1.57782e-06
1.57782e-06
1.58283e-06
1.5827e-06
1.58466e-06
1.58433e-06
1.5824e-06
1.58278e-06
1.583e-06
1.58299e-06
1.58291e-06
1.58269e-06
1.5846e-06
1.58471e-06
1.58439e-06
1.58251e-06
1.58475e-06
1.58466e-06
1.5647e-06
1.56454e-06
1.56433e-06
1.56199e-06
1.56195e-06
1.56176e-06
1.56204e-06
1.56443e-06
1.5646e-06
1.56433e-06
1.56101e-06
1.55812e-06
1.55812e-06
1.55812e-06
1.55812e-06
1.56187e-06
1.5627e-06
1.56199e-06
1.55812e-06
1.55812e-06
1.55812e-06
1.55812e-06
1.55812e-06
1.55812e-06
1.56308e-06
1.56501e-06
1.5647e-06
1.56194e-06
1.55812e-06
1.55812e-06
1.55812e-06
1.55812e-06
1.55812e-06
1.55812e-06
1.5633e-06
1.56469e-06
1.56454e-06
1.56176e-06
1.55812e-06
1.55812e-06
1.55812e-06
1.55812e-06
1.55812e-06
1.55812e-06
1.56329e-06
1.56281e-06
1.56204e-06
1.55812e-06
1.55812e-06
1.55812e-06
1.55812e-06
1.55812e-06
1.55812e-06
1.56321e-06
1.56505e-06
1.56442e-06
1.56187e-06
1.55812e-06
1.55812e-06
1.55812e-06
1.55812e-06
1.56313e-06
1.563e-06
1.56496e-06
1.56462e-06
1.56269e-06
1.56308e-06
1.5633e-06
1.56329e-06
1.56321e-06
1.56299e-06
1.5649e-06
1.56501e-06
1.56469e-06
1.56281e-06
1.56505e-06
1.56496e-06
1.54499e-06
1.54484e-06
1.54462e-06
1.54229e-06
1.54224e-06
1.54205e-06
1.54234e-06
1.54472e-06
1.54489e-06
1.54463e-06
1.54131e-06
1.53842e-06
1.53842e-06
1.53842e-06
1.53842e-06
1.54217e-06
1.54299e-06
1.54229e-06
1.53842e-06
1.53842e-06
1.53842e-06
1.53842e-06
1.53842e-06
1.53842e-06
1.54337e-06
1.5453e-06
1.545e-06
1.54224e-06
1.53842e-06
1.53842e-06
1.53842e-06
1.53842e-06
1.53842e-06
1.53842e-06
1.5436e-06
1.54499e-06
1.54483e-06
1.54206e-06
1.53842e-06
1.53842e-06
1.53842e-06
1.53842e-06
1.53842e-06
1.53842e-06
1.54359e-06
1.54311e-06
1.54234e-06
1.53842e-06
1.53842e-06
1.53842e-06
1.53842e-06
1.53842e-06
1.53842e-06
1.54351e-06
1.54535e-06
1.54472e-06
1.54216e-06
1.53842e-06
1.53842e-06
1.53842e-06
1.53842e-06
1.54343e-06
1.54329e-06
1.54526e-06
1.54492e-06
1.54299e-06
1.54337e-06
1.54359e-06
1.54358e-06
1.54351e-06
1.54328e-06
1.54519e-06
1.5453e-06
1.54499e-06
1.54311e-06
1.54535e-06
1.54526e-06
1.52529e-06
1.52513e-06
1.52492e-06
1.52258e-06
1.52254e-06
1.52235e-06
1.52263e-06
1.52502e-06
1.52519e-06
1.52492e-06
1.5216e-06
1.51871e-06
1.51871e-06
1.51871e-06
1.51871e-06
1.52247e-06
1.52329e-06
1.52258e-06
1.51871e-06
1.51871e-06
1.51871e-06
1.51871e-06
1.51871e-06
1.51871e-06
1.52367e-06
1.5256e-06
1.52529e-06
1.52254e-06
1.51871e-06
1.51871e-06
1.51871e-06
1.51871e-06
1.51871e-06
1.51871e-06
1.52389e-06
1.52528e-06
1.52513e-06
1.52235e-06
1.51871e-06
1.51871e-06
1.51871e-06
1.51871e-06
1.51871e-06
1.51871e-06
1.52388e-06
1.5234e-06
1.52263e-06
1.51871e-06
1.51871e-06
1.51871e-06
1.51871e-06
1.51871e-06
1.51871e-06
1.52381e-06
1.52564e-06
1.52502e-06
1.52246e-06
1.51871e-06
1.51871e-06
1.51871e-06
1.51871e-06
1.52372e-06
1.52359e-06
1.52555e-06
1.52522e-06
1.52329e-06
1.52367e-06
1.52389e-06
1.52388e-06
1.5238e-06
1.52358e-06
1.52549e-06
1.5256e-06
1.52528e-06
1.5234e-06
1.52564e-06
1.52555e-06
1.50559e-06
1.50543e-06
1.50521e-06
1.50288e-06
1.50284e-06
1.50265e-06
1.50293e-06
1.50531e-06
1.50548e-06
1.50522e-06
1.5019e-06
1.49901e-06
1.49901e-06
1.49901e-06
1.49901e-06
1.50277e-06
1.50359e-06
1.50288e-06
1.49901e-06
1.49901e-06
1.49901e-06
1.49901e-06
1.49901e-06
1.49901e-06
1.50397e-06
1.50589e-06
1.50559e-06
1.50283e-06
1.49901e-06
1.49901e-06
1.49901e-06
1.49901e-06
1.49901e-06
1.49901e-06
1.50419e-06
1.50558e-06
1.50543e-06
1.50265e-06
1.49901e-06
1.49901e-06
1.49901e-06
1.49901e-06
1.49901e-06
1.49901e-06
1.50418e-06
1.5037e-06
1.50293e-06
1.49901e-06
1.49901e-06
1.49901e-06
1.49901e-06
1.49901e-06
1.49901e-06
1.5041e-06
1.50594e-06
1.50531e-06
1.50276e-06
1.49901e-06
1.49901e-06
1.49901e-06
1.49901e-06
1.50402e-06
1.50389e-06
1.50585e-06
1.50551e-06
1.50358e-06
1.50397e-06
1.50419e-06
1.50418e-06
1.5041e-06
1.50388e-06
1.50579e-06
1.5059e-06
1.50558e-06
1.5037e-06
1.50594e-06
1.50585e-06
1.48588e-06
1.48573e-06
1.48551e-06
1.48318e-06
1.48313e-06
1.48295e-06
1.48323e-06
1.48561e-06
1.48578e-06
1.48552e-06
1.4822e-06
1.47931e-06
1.47931e-06
1.47931e-06
1.47931e-06
1.48306e-06
1.48388e-06
1.48318e-06
1.47931e-06
1.47931e-06
1.47931e-06
1.47931e-06
1.47931e-06
1.47931e-06
1.48426e-06
1.48619e-06
1.48589e-06
1.48313e-06
1.47931e-06
1.47931e-06
1.47931e-06
1.47931e-06
1.47931e-06
1.47931e-06
1.48449e-06
1.48588e-06
1.48572e-06
1.48295e-06
1.47931e-06
1.47931e-06
1.47931e-06
1.47931e-06
1.47931e-06
1.47931e-06
1.48448e-06
1.484e-06
1.48323e-06
1.47931e-06
1.47931e-06
1.47931e-06
1.47931e-06
1.47931e-06
1.47931e-06
1.4844e-06
1.48624e-06
1.48561e-06
1.48305e-06
1.47931e-06
1.47931e-06
1.47931e-06
1.47931e-06
1.48432e-06
1.48418e-06
1.48615e-06
1.48581e-06
1.48388e-06
1.48426e-06
1.48448e-06
1.48448e-06
1.4844e-06
1.48417e-06
1.48608e-06
1.48619e-06
1.48588e-06
1.484e-06
1.48624e-06
1.48615e-06
1.46618e-06
1.46602e-06
1.46581e-06
1.46348e-06
1.46343e-06
1.46324e-06
1.46353e-06
1.46591e-06
1.46608e-06
1.46582e-06
1.46249e-06
1.4596e-06
1.4596e-06
1.4596e-06
1.4596e-06
1.46336e-06
1.46418e-06
1.46347e-06
1.4596e-06
1.4596e-06
1.4596e-06
1.4596e-06
1.4596e-06
1.4596e-06
1.46456e-06
1.46649e-06
1.46619e-06
1.46343e-06
1.4596e-06
1.4596e-06
1.4596e-06
1.4596e-06
1.4596e-06
1.4596e-06
1.46478e-06
1.46618e-06
1.46602e-06
1.46324e-06
1.4596e-06
1.4596e-06
1.4596e-06
1.4596e-06
1.4596e-06
1.4596e-06
1.46477e-06
1.4643e-06
1.46352e-06
1.4596e-06
1.4596e-06
1.4596e-06
1.4596e-06
1.4596e-06
1.4596e-06
1.4647e-06
1.46654e-06
1.46591e-06
1.46335e-06
1.4596e-06
1.4596e-06
1.4596e-06
1.4596e-06
1.46461e-06
1.46448e-06
1.46644e-06
1.46611e-06
1.46418e-06
1.46456e-06
1.46478e-06
1.46477e-06
1.4647e-06
1.46447e-06
1.46638e-06
1.46649e-06
1.46618e-06
1.4643e-06
1.46653e-06
1.46645e-06
1.44648e-06
1.44632e-06
1.44611e-06
1.44377e-06
1.44373e-06
1.44354e-06
1.44382e-06
1.44621e-06
1.44638e-06
1.44611e-06
1.44279e-06
1.4399e-06
1.4399e-06
1.4399e-06
1.4399e-06
1.44366e-06
1.44448e-06
1.44377e-06
1.4399e-06
1.4399e-06
1.4399e-06
1.4399e-06
1.4399e-06
1.4399e-06
1.44486e-06
1.44679e-06
1.44648e-06
1.44373e-06
1.4399e-06
1.4399e-06
1.4399e-06
1.4399e-06
1.4399e-06
1.4399e-06
1.44508e-06
1.44647e-06
1.44632e-06
1.44354e-06
1.4399e-06
1.4399e-06
1.4399e-06
1.4399e-06
1.4399e-06
1.4399e-06
1.44507e-06
1.44459e-06
1.44382e-06
1.4399e-06
1.4399e-06
1.4399e-06
1.4399e-06
1.4399e-06
1.4399e-06
1.445e-06
1.44683e-06
1.44621e-06
1.44365e-06
1.4399e-06
1.4399e-06
1.4399e-06
1.4399e-06
1.44491e-06
1.44478e-06
1.44674e-06
1.4464e-06
1.44447e-06
1.44486e-06
1.44508e-06
1.44507e-06
1.44499e-06
1.44477e-06
1.44668e-06
1.44679e-06
1.44647e-06
1.44459e-06
1.44683e-06
1.44674e-06
1.42677e-06
1.42662e-06
1.4264e-06
1.42407e-06
1.42402e-06
1.42383e-06
1.42412e-06
1.4265e-06
1.42667e-06
1.42641e-06
1.42309e-06
1.4202e-06
1.4202e-06
1.4202e-06
1.4202e-06
1.42395e-06
1.42477e-06
1.42407e-06
1.4202e-06
1.4202e-06
1.4202e-06
1.4202e-06
1.4202e-06
1.4202e-06
1.42515e-06
1.42708e-06
1.42678e-06
1.42402e-06
1.4202e-06
1.4202e-06
1.4202e-06
1.4202e-06
1.4202e-06
1.4202e-06
1.42538e-06
1.42677e-06
1.42661e-06
1.42384e-06
1.4202e-06
1.4202e-06
1.4202e-06
1.4202e-06
1.4202e-06
1.4202e-06
1.42537e-06
1.42489e-06
1.42412e-06
1.4202e-06
1.4202e-06
1.4202e-06
1.4202e-06
1.4202e-06
1.4202e-06
1.42529e-06
1.42713e-06
1.4265e-06
1.42394e-06
1.4202e-06
1.4202e-06
1.4202e-06
1.4202e-06
1.42521e-06
1.42507e-06
1.42704e-06
1.4267e-06
1.42477e-06
1.42515e-06
1.42537e-06
1.42537e-06
1.42529e-06
1.42506e-06
1.42698e-06
1.42708e-06
1.42677e-06
1.42489e-06
1.42713e-06
1.42704e-06
1.40707e-06
1.40691e-06
1.4067e-06
1.40437e-06
1.40432e-06
1.40413e-06
1.40442e-06
1.4068e-06
1.40697e-06
1.40671e-06
1.40338e-06
1.40049e-06
1.40049e-06
1.40049e-06
1.40049e-06
1.40425e-06
1.40507e-06
1.40436e-06
1.40049e-06
1.40049e-06
1.40049e-06
1.40049e-06
1.40049e-06
1.40049e-06
1.40545e-06
1.40738e-06
1.40708e-06
1.40432e-06
1.40049e-06
1.40049e-06
1.40049e-06
1.40049e-06
1.40049e-06
1.40049e-06
1.40567e-06
1.40706e-06
1.40691e-06
1.40413e-06
1.40049e-06
1.40049e-06
1.40049e-06
1.40049e-06
1.40049e-06
1.40049e-06
1.40566e-06
1.40519e-06
1.40441e-06
1.40049e-06
1.40049e-06
1.40049e-06
1.40049e-06
1.40049e-06
1.40049e-06
1.40559e-06
1.40743e-06
1.4068e-06
1.40424e-06
1.40049e-06
1.40049e-06
1.40049e-06
1.40049e-06
1.4055e-06
1.40537e-06
1.40733e-06
1.407e-06
1.40507e-06
1.40545e-06
1.40567e-06
1.40566e-06
1.40559e-06
1.40536e-06
1.40727e-06
1.40738e-06
1.40707e-06
1.40519e-06
1.40742e-06
1.40733e-06
1.38737e-06
1.38721e-06
1.387e-06
1.38466e-06
1.38462e-06
1.38443e-06
1.38471e-06
1.3871e-06
1.38727e-06
1.387e-06
1.38368e-06
1.38079e-06
1.38079e-06
1.38079e-06
1.38079e-06
1.38454e-06
1.38537e-06
1.38466e-06
1.38079e-06
1.38079e-06
1.38079e-06
1.38079e-06
1.38079e-06
1.38079e-06
1.38575e-06
1.38768e-06
1.38737e-06
1.38461e-06
1.38079e-06
1.38079e-06
1.38079e-06
1.38079e-06
1.38079e-06
1.38079e-06
1.38597e-06
1.38736e-06
1.38721e-06
1.38443e-06
1.38079e-06
1.38079e-06
1.38079e-06
1.38079e-06
1.38079e-06
1.38079e-06
1.38596e-06
1.38548e-06
1.38471e-06
1.38079e-06
1.38079e-06
1.38079e-06
1.38079e-06
1.38079e-06
1.38079e-06
1.38588e-06
1.38772e-06
1.3871e-06
1.38454e-06
1.38079e-06
1.38079e-06
1.38079e-06
1.38079e-06
1.3858e-06
1.38567e-06
1.38763e-06
1.38729e-06
1.38536e-06
1.38575e-06
1.38597e-06
1.38596e-06
1.38588e-06
1.38566e-06
1.38757e-06
1.38768e-06
1.38736e-06
1.38548e-06
1.38772e-06
1.38763e-06
1.36766e-06
1.3675e-06
1.36729e-06
1.36496e-06
1.36491e-06
1.36472e-06
1.36501e-06
1.36739e-06
1.36756e-06
1.3673e-06
1.36397e-06
1.36108e-06
1.36108e-06
1.36108e-06
1.36108e-06
1.36484e-06
1.36566e-06
1.36495e-06
1.36108e-06
1.36108e-06
1.36108e-06
1.36108e-06
1.36108e-06
1.36109e-06
1.36604e-06
1.36797e-06
1.36767e-06
1.36491e-06
1.36108e-06
1.36108e-06
1.36108e-06
1.36108e-06
1.36108e-06
1.36109e-06
1.36626e-06
1.36766e-06
1.3675e-06
1.36472e-06
1.36108e-06
1.36108e-06
1.36108e-06
1.36108e-06
1.36108e-06
1.36109e-06
1.36625e-06
1.36578e-06
1.36501e-06
1.36109e-06
1.36108e-06
1.36108e-06
1.36108e-06
1.36109e-06
1.36109e-06
1.36618e-06
1.36802e-06
1.36739e-06
1.36483e-06
1.36109e-06
1.36109e-06
1.36109e-06
1.36109e-06
1.36609e-06
1.36596e-06
1.36792e-06
1.36759e-06
1.36566e-06
1.36604e-06
1.36626e-06
1.36625e-06
1.36618e-06
1.36595e-06
1.36786e-06
1.36797e-06
1.36766e-06
1.36578e-06
1.36802e-06
1.36793e-06
1.34796e-06
1.3478e-06
1.34759e-06
1.34525e-06
1.34521e-06
1.34502e-06
1.3453e-06
1.34768e-06
1.34785e-06
1.34759e-06
1.34427e-06
1.34138e-06
1.34138e-06
1.34138e-06
1.34138e-06
1.34513e-06
1.34596e-06
1.34525e-06
1.34138e-06
1.34138e-06
1.34138e-06
1.34138e-06
1.34138e-06
1.34138e-06
1.34634e-06
1.34826e-06
1.34796e-06
1.3452e-06
1.34138e-06
1.34138e-06
1.34138e-06
1.34138e-06
1.34138e-06
1.34138e-06
1.34656e-06
1.34795e-06
1.34779e-06
1.34502e-06
1.34138e-06
1.34138e-06
1.34138e-06
1.34138e-06
1.34138e-06
1.34138e-06
1.34655e-06
1.34607e-06
1.3453e-06
1.34138e-06
1.34138e-06
1.34138e-06
1.34138e-06
1.34138e-06
1.34138e-06
1.34647e-06
1.34831e-06
1.34768e-06
1.34513e-06
1.34138e-06
1.34138e-06
1.34138e-06
1.34138e-06
1.34639e-06
1.34626e-06
1.34822e-06
1.34788e-06
1.34595e-06
1.34634e-06
1.34656e-06
1.34655e-06
1.34647e-06
1.34624e-06
1.34816e-06
1.34827e-06
1.34795e-06
1.34607e-06
1.34831e-06
1.34822e-06
1.32825e-06
1.32809e-06
1.32788e-06
1.32555e-06
1.3255e-06
1.32531e-06
1.3256e-06
1.32798e-06
1.32815e-06
1.32789e-06
1.32456e-06
1.32167e-06
1.32167e-06
1.32167e-06
1.32167e-06
1.32543e-06
1.32625e-06
1.32554e-06
1.32167e-06
1.32167e-06
1.32167e-06
1.32167e-06
1.32167e-06
1.32167e-06
1.32663e-06
1.32856e-06
1.32826e-06
1.3255e-06
1.32167e-06
1.32167e-06
1.32167e-06
1.32167e-06
1.32167e-06
1.32167e-06
1.32685e-06
1.32824e-06
1.32809e-06
1.32531e-06
1.32167e-06
1.32167e-06
1.32167e-06
1.32167e-06
1.32167e-06
1.32167e-06
1.32684e-06
1.32637e-06
1.32559e-06
1.32167e-06
1.32167e-06
1.32167e-06
1.32167e-06
1.32167e-06
1.32167e-06
1.32677e-06
1.32861e-06
1.32798e-06
1.32542e-06
1.32167e-06
1.32167e-06
1.32167e-06
1.32167e-06
1.32668e-06
1.32655e-06
1.32851e-06
1.32818e-06
1.32625e-06
1.32663e-06
1.32685e-06
1.32684e-06
1.32677e-06
1.32654e-06
1.32845e-06
1.32856e-06
1.32825e-06
1.32637e-06
1.3286e-06
1.32851e-06
1.30855e-06
1.30839e-06
1.30817e-06
1.30584e-06
1.30579e-06
1.30561e-06
1.30589e-06
1.30827e-06
1.30844e-06
1.30818e-06
1.30486e-06
1.30197e-06
1.30197e-06
1.30197e-06
1.30197e-06
1.30572e-06
1.30654e-06
1.30584e-06
1.30197e-06
1.30197e-06
1.30197e-06
1.30197e-06
1.30197e-06
1.30197e-06
1.30693e-06
1.30885e-06
1.30855e-06
1.30579e-06
1.30197e-06
1.30197e-06
1.30197e-06
1.30197e-06
1.30197e-06
1.30197e-06
1.30715e-06
1.30854e-06
1.30838e-06
1.30561e-06
1.30197e-06
1.30197e-06
1.30197e-06
1.30197e-06
1.30197e-06
1.30197e-06
1.30714e-06
1.30666e-06
1.30589e-06
1.30197e-06
1.30197e-06
1.30197e-06
1.30197e-06
1.30197e-06
1.30197e-06
1.30706e-06
1.3089e-06
1.30827e-06
1.30572e-06
1.30197e-06
1.30197e-06
1.30197e-06
1.30197e-06
1.30698e-06
1.30684e-06
1.30881e-06
1.30847e-06
1.30654e-06
1.30693e-06
1.30715e-06
1.30714e-06
1.30706e-06
1.30683e-06
1.30875e-06
1.30886e-06
1.30854e-06
1.30666e-06
1.3089e-06
1.30881e-06
1.28884e-06
1.28868e-06
1.28847e-06
1.28614e-06
1.28609e-06
1.2859e-06
1.28619e-06
1.28857e-06
1.28874e-06
1.28848e-06
1.28515e-06
1.28226e-06
1.28226e-06
1.28226e-06
1.28226e-06
1.28602e-06
1.28684e-06
1.28613e-06
1.28226e-06
1.28227e-06
1.28227e-06
1.28226e-06
1.28227e-06
1.28227e-06
1.28722e-06
1.28915e-06
1.28885e-06
1.28609e-06
1.28226e-06
1.28226e-06
1.28226e-06
1.28226e-06
1.28227e-06
1.28227e-06
1.28744e-06
1.28884e-06
1.28868e-06
1.2859e-06
1.28226e-06
1.28227e-06
1.28227e-06
1.28227e-06
1.28227e-06
1.28227e-06
1.28743e-06
1.28696e-06
1.28618e-06
1.28227e-06
1.28226e-06
1.28226e-06
1.28226e-06
1.28227e-06
1.28227e-06
1.28736e-06
1.2892e-06
1.28857e-06
1.28601e-06
1.28227e-06
1.28227e-06
1.28227e-06
1.28227e-06
1.28727e-06
1.28714e-06
1.2891e-06
1.28877e-06
1.28684e-06
1.28722e-06
1.28744e-06