/*--------------------------------*- C++ -*----------------------------------*\
| =========                 |                                                 |
| \\      /  F ield         | OpenFOAM: The Open Source CFD Toolbox           |
|  \\    /   O peration     | Version:  v2012                                 |
|   \\  /    A nd           | Website:  www.openfoam.com                      |
|    \\/     M anipulation  |                                                 |
\*---------------------------------------------------------------------------*/
FoamFile
{
    version     2.0;
    format      ascii;
    class       volScalarField;
    location    "787.5";
    object      epsilon;
}
// * * * * * * * * * * * * * * * * * * * * * * * * * * * * * * * * * * * * * //

dimensions      [0 2 -3 0 0 0 0];


internalField   nonuniform List<scalar> 
171728
(
1.72937e-09
3.37598e-09
5.20105e-09
4.95362e-09
1.70503e-09
3.1232e-09
4.92558e-09
4.50125e-09
1.64558e-09
2.86245e-09
4.66493e-09
4.09301e-09
1.59081e-09
2.63259e-09
4.4713e-09
3.74048e-09
1.53696e-09
2.43282e-09
4.33894e-09
3.43816e-09
1.48268e-09
2.26638e-09
4.27377e-09
3.17659e-09
1.43077e-09
2.1348e-09
4.24612e-09
2.94962e-09
1.3817e-09
2.0362e-09
4.28276e-09
2.75472e-09
1.3279e-09
1.96938e-09
4.29007e-09
2.59206e-09
1.27747e-09
1.93152e-09
3.95565e-09
2.46359e-09
1.22189e-09
1.92746e-09
3.54315e-09
2.37025e-09
1.15488e-09
1.95313e-09
3.2697e-09
2.31176e-09
1.09603e-09
2.02152e-09
3.07764e-09
2.29477e-09
1.04931e-09
2.1458e-09
2.89289e-09
2.33318e-09
1.00529e-09
2.33737e-09
2.7927e-09
2.44803e-09
9.6456e-10
2.64111e-09
2.82114e-09
2.68904e-09
9.25589e-10
3.12728e-09
3.21349e-09
3.09186e-09
9.00387e-10
3.83586e-09
3.89362e-09
3.8318e-09
8.79574e-10
4.96999e-09
5.00195e-09
5.13875e-09
8.5506e-10
6.57947e-09
6.6812e-09
7.29557e-09
8.29276e-10
8.8905e-09
9.22998e-09
1.14234e-08
8.27523e-10
1.24545e-08
1.28133e-08
1.75612e-08
8.55103e-10
1.75743e-08
1.7632e-08
2.94751e-08
9.25636e-10
2.38567e-08
2.41551e-08
4.46117e-08
1.02547e-09
3.23083e-08
3.36878e-08
7.60555e-08
1.17023e-09
4.53178e-08
4.42739e-08
1.11186e-07
1.2952e-09
5.66454e-08
5.90429e-08
1.49517e-07
1.56128e-09
7.72633e-08
7.57944e-08
2.37455e-07
1.86334e-09
9.39131e-08
9.52329e-08
2.77682e-07
2.3612e-09
1.19358e-07
1.19203e-07
3.65383e-07
3.0693e-09
1.4422e-07
1.44171e-07
4.51688e-07
3.99949e-09
1.71018e-07
1.74503e-07
5.17618e-07
5.31074e-09
2.0764e-07
2.0652e-07
5.89566e-07
7.11849e-09
2.43586e-07
2.42223e-07
6.52365e-07
9.20395e-09
2.76508e-07
2.82475e-07
7.08408e-07
1.23572e-08
3.21279e-07
3.18619e-07
7.58312e-07
1.56419e-08
3.61647e-07
3.6647e-07
8.03162e-07
2.07298e-08
4.09121e-07
4.13595e-07
8.46028e-07
2.58721e-08
4.53088e-07
4.47748e-07
8.80561e-07
3.30706e-08
5.04829e-07
5.15028e-07
9.13282e-07
4.16522e-08
5.48885e-07
5.48676e-07
9.53099e-07
5.08234e-08
6.02029e-07
6.01542e-07
9.78808e-07
6.3434e-08
6.47741e-07
6.50038e-07
1.00667e-06
7.56673e-08
6.9506e-07
6.97131e-07
1.0396e-06
9.16904e-08
7.40883e-07
7.38497e-07
1.06653e-06
1.10645e-07
7.84856e-07
7.90148e-07
1.09222e-06
1.25967e-07
8.27722e-07
8.19562e-07
1.11269e-06
1.5277e-07
8.64872e-07
8.72425e-07
1.15486e-06
1.78922e-07
9.07321e-07
9.05874e-07
1.17443e-06
1.9508e-07
9.33094e-07
9.32744e-07
1.18513e-06
2.28377e-07
9.73119e-07
9.75706e-07
1.22046e-06
2.56987e-07
1.00261e-06
1.00016e-06
1.2478e-06
2.92515e-07
1.02546e-06
1.03027e-06
1.25745e-06
3.15984e-07
1.05496e-06
1.05609e-06
1.26469e-06
3.43849e-07
1.07677e-06
1.07084e-06
1.31015e-06
3.81277e-07
1.09717e-06
1.10227e-06
1.3276e-06
4.19555e-07
1.12581e-06
1.12499e-06
1.32287e-06
4.43361e-07
1.13329e-06
1.13585e-06
1.33857e-06
4.67149e-07
1.15154e-06
1.15404e-06
1.37819e-06
5.03915e-07
1.18383e-06
1.17389e-06
1.38214e-06
5.28025e-07
1.1891e-06
1.19353e-06
1.38636e-06
5.51457e-07
1.19731e-06
1.20068e-06
1.40874e-06
5.78585e-07
1.22249e-06
1.21474e-06
1.41506e-06
6.02553e-07
1.23202e-06
1.2388e-06
1.43292e-06
6.23572e-07
1.24794e-06
1.24462e-06
1.43866e-06
6.3778e-07
1.25139e-06
1.24985e-06
1.44184e-06
6.59008e-07
1.25902e-06
1.26255e-06
1.46975e-06
6.79259e-07
1.28373e-06
1.28177e-06
1.47839e-06
6.92017e-07
1.28169e-06
1.28047e-06
1.46599e-06
7.05865e-07
1.28188e-06
1.28187e-06
1.47679e-06
7.20904e-07
1.30185e-06
1.2992e-06
1.50311e-06
7.37134e-07
1.3075e-06
1.30555e-06
1.50574e-06
7.48304e-07
1.29961e-06
1.30275e-06
1.504e-06
7.54776e-07
1.29999e-06
1.30477e-06
1.49499e-06
7.66775e-07
1.31752e-06
1.31657e-06
1.50343e-06
7.84139e-07
1.32744e-06
1.31956e-06
1.53325e-06
7.88247e-07
1.31986e-06
1.31503e-06
1.52971e-06
7.88278e-07
1.31084e-06
1.31489e-06
1.50586e-06
7.95131e-07
1.3109e-06
1.32096e-06
1.5119e-06
8.05391e-07
1.32971e-06
1.3306e-06
1.55429e-06
8.16635e-07
1.33901e-06
1.33068e-06
1.54881e-06
8.09989e-07
1.30962e-06
1.30655e-06
1.48764e-06
8.00265e-07
1.30103e-06
1.30059e-06
1.49471e-06
8.12346e-07
1.33262e-06
1.33445e-06
1.57758e-06
8.26001e-07
1.32647e-06
1.33719e-06
1.56866e-06
8.10103e-07
1.28805e-06
1.29177e-06
1.47853e-06
7.96307e-07
1.29012e-06
1.27695e-06
1.46774e-06
8.07263e-07
1.32605e-06
1.31455e-06
1.55098e-06
8.16753e-07
1.31476e-06
1.32785e-06
1.56875e-06
7.97836e-07
1.26531e-06
1.28602e-06
1.50314e-06
7.83761e-07
1.25935e-06
1.26389e-06
1.47474e-06
7.90838e-07
1.29338e-06
1.27878e-06
1.50617e-06
7.94512e-07
1.29238e-06
1.28039e-06
1.50839e-06
7.81266e-07
1.26331e-06
1.26155e-06
1.48376e-06
7.57368e-07
1.19781e-06
1.20345e-06
1.45593e-06
5.07822e-09
4.59055e-09
3.82407e-09
4.94922e-09
4.08839e-09
3.8742e-09
1.6979e-09
1.17998e-09
1.54854e-09
1.40316e-09
3.67464e-09
4.22153e-09
5.20157e-09
4.79726e-09
4.04337e-09
4.98023e-09
5.04827e-09
4.61199e-09
4.86975e-09
3.34408e-09
4.6657e-09
3.16535e-09
4.92609e-09
4.43583e-09
4.95079e-09
3.92442e-09
4.67616e-09
3.74633e-09
4.89394e-09
3.19284e-09
4.54758e-09
5.17787e-09
4.70031e-09
4.59253e-09
4.99851e-09
4.37644e-09
4.53469e-09
4.55288e-09
4.20942e-09
4.59075e-09
3.09215e-09
4.38222e-09
2.8856e-09
4.4083e-09
3.97143e-09
4.5777e-09
3.67904e-09
4.29608e-09
3.49147e-09
4.42833e-09
2.92485e-09
4.1004e-09
4.66744e-09
4.26742e-09
4.28274e-09
4.7224e-09
4.0218e-09
4.12213e-09
4.15389e-09
3.88172e-09
4.32138e-09
2.82112e-09
4.16122e-09
2.64001e-09
3.9495e-09
3.58386e-09
4.20441e-09
3.43226e-09
3.93031e-09
3.25825e-09
3.99983e-09
2.68734e-09
3.72075e-09
4.23993e-09
3.91008e-09
3.94044e-09
4.51451e-09
3.70974e-09
3.76538e-09
3.83222e-09
3.61034e-09
4.11371e-09
2.584e-09
3.98686e-09
2.42876e-09
3.56695e-09
3.26272e-09
3.84053e-09
3.20283e-09
3.58759e-09
3.04965e-09
3.63476e-09
2.4796e-09
3.39817e-09
3.88676e-09
3.62413e-09
3.63775e-09
4.36818e-09
3.43623e-09
3.45929e-09
3.56971e-09
3.38428e-09
3.94854e-09
2.38177e-09
3.85748e-09
2.25226e-09
3.2495e-09
2.98466e-09
3.51093e-09
3.00342e-09
3.307e-09
2.87338e-09
3.32589e-09
2.30449e-09
3.12775e-09
3.6026e-09
3.3995e-09
3.3737e-09
4.28158e-09
3.19501e-09
3.19418e-09
3.35474e-09
3.19372e-09
3.83559e-09
2.21366e-09
3.78414e-09
2.11022e-09
2.97474e-09
2.74233e-09
3.24626e-09
2.83245e-09
3.0835e-09
2.72039e-09
3.06756e-09
2.16404e-09
2.90196e-09
3.38465e-09
3.22691e-09
3.13938e-09
4.2466e-09
2.9885e-09
2.9638e-09
3.18125e-09
3.04533e-09
3.77769e-09
2.08006e-09
3.78004e-09
2.00168e-09
2.73587e-09
2.54098e-09
3.03549e-09
2.68641e-09
2.90869e-09
2.59574e-09
2.85175e-09
2.05825e-09
2.71832e-09
3.21601e-09
3.08316e-09
2.9419e-09
4.2644e-09
2.81464e-09
2.76524e-09
3.03772e-09
2.94186e-09
3.78745e-09
1.98047e-09
3.83068e-09
1.92731e-09
2.53786e-09
2.37961e-09
2.87264e-09
2.57011e-09
2.78369e-09
2.50416e-09
2.67843e-09
1.98353e-09
2.57634e-09
3.07671e-09
2.9686e-09
2.77588e-09
4.30289e-09
2.66923e-09
2.59854e-09
2.93854e-09
2.87386e-09
3.84894e-09
1.91458e-09
3.93147e-09
1.88586e-09
2.37985e-09
2.25748e-09
2.76055e-09
2.48574e-09
2.70663e-09
2.43643e-09
2.54705e-09
1.93871e-09
2.47535e-09
2.96078e-09
2.75365e-09
2.63927e-09
4.06218e-09
2.57028e-09
2.46562e-09
2.87446e-09
2.8309e-09
3.96468e-09
1.8814e-09
4.06085e-09
1.87783e-09
2.26051e-09
2.16886e-09
2.69455e-09
2.425e-09
2.67263e-09
2.40504e-09
2.45559e-09
1.926e-09
2.41469e-09
2.74039e-09
2.61029e-09
2.55292e-09
3.63572e-09
2.51486e-09
2.36795e-09
2.83411e-09
2.75154e-09
4.08549e-09
1.88018e-09
4.09739e-09
1.90221e-09
2.17495e-09
2.11551e-09
2.6715e-09
2.40308e-09
2.67099e-09
2.41102e-09
2.4044e-09
1.94523e-09
2.39484e-09
2.61234e-09
2.55069e-09
2.50382e-09
3.32708e-09
2.48545e-09
2.30394e-09
2.74885e-09
2.66913e-09
4.05974e-09
1.91426e-09
3.89731e-09
1.96882e-09
2.1276e-09
2.10345e-09
2.67403e-09
2.41741e-09
2.70253e-09
2.45454e-09
2.39682e-09
2.00583e-09
2.42011e-09
2.55604e-09
2.48152e-09
2.48464e-09
3.12079e-09
2.49569e-09
2.27869e-09
2.68525e-09
2.71097e-09
3.85893e-09
1.99104e-09
3.80504e-09
2.08445e-09
2.12457e-09
2.13918e-09
2.71893e-09
2.47249e-09
2.79497e-09
2.54309e-09
2.43355e-09
2.11475e-09
2.50064e-09
2.49073e-09
2.42098e-09
2.5047e-09
2.94616e-09
2.55671e-09
2.30204e-09
2.74221e-09
2.78914e-09
3.80056e-09
2.12372e-09
3.81378e-09
2.27188e-09
2.1733e-09
2.24574e-09
2.82644e-09
2.5747e-09
2.95972e-09
2.70009e-09
2.53251e-09
2.28833e-09
2.654e-09
2.43741e-09
2.43293e-09
2.58254e-09
2.79629e-09
2.69355e-09
2.39701e-09
2.83602e-09
2.90952e-09
3.8303e-09
2.33116e-09
3.89285e-09
2.5514e-09
2.29896e-09
2.43461e-09
3.01453e-09
2.75253e-09
3.22854e-09
2.95332e-09
2.71035e-09
2.55664e-09
2.9195e-09
2.4737e-09
2.57001e-09
2.737e-09
2.80084e-09
2.9382e-09
2.59537e-09
2.97799e-09
3.17865e-09
3.90588e-09
2.65206e-09
4.08399e-09
3.00081e-09
2.52743e-09
2.8046e-09
3.31432e-09
3.04618e-09
3.66354e-09
3.38463e-09
3.00679e-09
2.9917e-09
3.33738e-09
2.66373e-09
2.92693e-09
3.0256e-09
3.09042e-09
3.35029e-09
2.94674e-09
3.26972e-09
3.64381e-09
4.11803e-09
3.14638e-09
4.21826e-09
3.67186e-09
2.95955e-09
3.43483e-09
3.79395e-09
3.52502e-09
4.3046e-09
4.03404e-09
3.4745e-09
3.64718e-09
3.98285e-09
3.07026e-09
3.52466e-09
3.49108e-09
3.68626e-09
4.02899e-09
3.56938e-09
3.96356e-09
4.88473e-09
4.41823e-09
3.8719e-09
5.24438e-09
4.72789e-09
3.67376e-09
4.60121e-09
4.5555e-09
4.25085e-09
5.40788e-09
5.04235e-09
4.19897e-09
4.67364e-09
5.01438e-09
3.77972e-09
4.64282e-09
4.2544e-09
4.67108e-09
5.09252e-09
4.74246e-09
5.21217e-09
6.60784e-09
5.47e-09
5.03067e-09
6.53048e-09
6.14661e-09
5.01642e-09
6.3621e-09
5.70834e-09
5.36957e-09
6.96894e-09
6.54296e-09
5.32282e-09
6.05408e-09
6.43293e-09
5.06971e-09
6.58063e-09
5.40602e-09
6.19685e-09
6.55241e-09
6.56244e-09
7.24149e-09
1.01204e-08
6.90779e-09
6.67385e-09
8.59351e-09
8.40418e-09
7.11395e-09
9.93709e-09
7.40846e-09
7.01799e-09
9.43957e-09
8.80686e-09
6.92589e-09
8.2715e-09
8.74527e-09
7.27294e-09
1.00701e-08
7.03963e-09
8.48777e-09
8.81606e-09
1.02632e-08
1.15652e-08
1.5552e-08
9.30559e-09
9.02593e-09
1.17451e-08
1.18371e-08
1.0932e-08
1.64089e-08
1.02194e-08
9.55393e-09
1.28168e-08
1.19816e-08
9.4437e-09
1.16571e-08
1.18433e-08
1.13283e-08
1.57665e-08
9.5177e-09
1.16816e-08
1.19811e-08
1.58671e-08
1.79266e-08
2.53944e-08
1.2919e-08
1.26647e-08
1.60978e-08
1.62619e-08
1.81965e-08
2.5451e-08
1.42101e-08
1.3077e-08
1.75078e-08
1.64295e-08
1.27522e-08
1.60149e-08
1.64424e-08
1.77596e-08
2.57049e-08
1.29046e-08
1.60922e-08
1.65685e-08
2.62156e-08
2.76336e-08
4.54566e-08
1.77822e-08
1.7792e-08
2.24762e-08
2.21121e-08
2.90091e-08
4.11242e-08
1.94681e-08
1.79308e-08
2.52673e-08
2.29961e-08
1.79962e-08
2.18588e-08
2.21921e-08
2.85256e-08
4.29749e-08
1.8129e-08
2.26172e-08
2.23881e-08
4.12399e-08
4.85617e-08
7.07029e-08
2.4351e-08
2.41534e-08
3.14291e-08
3.07612e-08
4.51098e-08
6.69634e-08
2.74303e-08
2.45574e-08
3.63305e-08
3.12171e-08
2.38255e-08
3.03628e-08
3.12756e-08
4.66694e-08
6.57726e-08
2.4044e-08
3.08417e-08
3.15134e-08
6.82961e-08
7.7025e-08
1.03253e-07
3.29036e-08
3.26941e-08
4.27073e-08
4.20736e-08
7.25801e-08
1.00514e-07
3.80726e-08
3.41987e-08
4.85894e-08
4.18899e-08
3.35716e-08
4.16563e-08
4.21541e-08
7.32499e-08
1.03083e-07
3.38387e-08
4.15509e-08
4.24488e-08
1.02608e-07
1.18231e-07
1.51858e-07
4.71047e-08
4.57528e-08
5.43786e-08
5.36557e-08
1.10953e-07
1.45581e-07
5.40168e-08
4.48529e-08
6.19019e-08
5.59968e-08
4.55259e-08
5.32453e-08
5.29561e-08
1.09649e-07
1.47675e-07
4.5797e-08
5.5292e-08
5.33517e-08
1.42167e-07
1.55695e-07
2.00689e-07
5.6513e-08
5.69769e-08
7.18284e-08
7.26096e-08
1.52685e-07
2.09197e-07
6.32405e-08
5.93162e-08
7.53447e-08
7.18244e-08
5.65168e-08
7.23585e-08
7.4001e-08
1.59519e-07
2.04898e-07
5.69947e-08
7.09042e-08
7.43745e-08
2.18224e-07
2.2257e-07
2.81841e-07
7.73441e-08
7.7496e-08
9.02404e-08
9.00069e-08
2.26478e-07
2.75976e-07
8.17968e-08
7.69938e-08
9.63998e-08
9.14084e-08
7.86926e-08
8.93085e-08
8.80691e-08
2.17154e-07
2.76377e-07
7.9034e-08
9.02348e-08
8.84235e-08
2.7055e-07
2.91827e-07
3.47956e-07
9.50256e-08
9.48765e-08
1.1267e-07
1.1233e-07
2.86494e-07
3.47347e-07
1.00604e-07
9.66977e-08
1.15785e-07
1.13929e-07
9.20068e-08
1.12451e-07
1.12186e-07
2.91347e-07
3.50882e-07
9.26064e-08
1.13064e-07
1.12576e-07
3.42663e-07
3.65483e-07
4.29332e-07
1.1898e-07
1.18526e-07
1.38496e-07
1.38324e-07
3.653e-07
4.29873e-07
1.2134e-07
1.19642e-07
1.39188e-07
1.3908e-07
1.19822e-07
1.38442e-07
1.39562e-07
3.66891e-07
4.28154e-07
1.19841e-07
1.37421e-07
1.39587e-07
4.37608e-07
4.44535e-07
5.01681e-07
1.45303e-07
1.45184e-07
1.66389e-07
1.65637e-07
4.4551e-07
5.00606e-07
1.45486e-07
1.46308e-07
1.65635e-07
1.673e-07
1.45553e-07
1.63157e-07
1.65328e-07
4.43843e-07
5.03664e-07
1.45799e-07
1.67079e-07
1.65926e-07
5.02344e-07
5.17279e-07
5.7287e-07
1.73791e-07
1.72967e-07
1.98144e-07
1.9746e-07
5.15721e-07
5.72407e-07
1.73189e-07
1.7451e-07
1.97348e-07
1.98936e-07
1.7314e-07
1.98333e-07
1.99287e-07
5.19503e-07
5.72996e-07
1.73564e-07
1.97435e-07
1.98424e-07
5.74249e-07
5.8818e-07
6.37942e-07
2.06917e-07
2.0615e-07
2.33423e-07
2.34019e-07
5.88249e-07
6.40461e-07
2.05585e-07
2.06937e-07
2.32953e-07
2.36788e-07
2.07807e-07
2.34875e-07
2.34058e-07
5.87881e-07
6.38904e-07
2.06556e-07
2.33678e-07
2.32855e-07
6.38313e-07
6.51874e-07
6.94437e-07
2.42645e-07
2.43453e-07
2.70713e-07
2.69292e-07
6.54264e-07
6.93026e-07
2.42362e-07
2.46674e-07
2.68733e-07
2.70871e-07
2.4348e-07
2.67985e-07
2.70463e-07
6.53176e-07
6.97418e-07
2.42535e-07
2.71651e-07
2.69613e-07
6.95674e-07
7.07365e-07
7.46181e-07
2.80041e-07
2.77954e-07
3.1156e-07
3.1054e-07
7.05588e-07
7.45755e-07
2.78286e-07
2.80769e-07
3.11567e-07
3.16793e-07
2.80049e-07
3.09599e-07
3.11972e-07
7.10308e-07
7.43539e-07
2.79266e-07
3.11108e-07
3.11145e-07
7.46058e-07
7.58443e-07
7.91237e-07
3.22646e-07
3.22006e-07
3.52798e-07
3.52361e-07
7.58456e-07
7.9162e-07
3.21958e-07
3.26857e-07
3.51236e-07
3.53932e-07
3.21881e-07
3.51366e-07
3.54186e-07
7.54676e-07
7.93289e-07
3.2052e-07
3.50995e-07
3.52108e-07
7.92003e-07
8.02078e-07
8.33406e-07
3.63454e-07
3.62747e-07
3.9964e-07
3.98027e-07
8.02364e-07
8.32478e-07
3.62172e-07
3.66578e-07
3.99414e-07
4.09113e-07
3.66626e-07
3.9717e-07
3.99047e-07
8.06146e-07
8.34249e-07
3.65096e-07
4.05217e-07
3.98851e-07
8.35388e-07
8.44128e-07
8.70209e-07
4.11157e-07
4.09901e-07
4.44636e-07
4.42177e-07
8.42913e-07
8.69539e-07
4.11465e-07
4.20149e-07
4.42641e-07
4.44607e-07
4.09773e-07
4.41303e-07
4.48514e-07
8.4275e-07
8.66003e-07
4.09059e-07
4.36307e-07
4.45804e-07
8.71763e-07
8.79411e-07
9.06019e-07
4.56503e-07
4.53967e-07
4.92159e-07
4.93251e-07
8.79307e-07
9.06467e-07
4.53423e-07
4.52762e-07
4.92774e-07
4.96533e-07
4.61152e-07
4.92481e-07
4.90404e-07
8.7694e-07
9.11332e-07
4.58654e-07
5.01077e-07
4.89021e-07
9.03756e-07
9.15728e-07
9.39309e-07
5.04542e-07
5.05667e-07
5.43425e-07
5.38172e-07
9.15499e-07
9.36548e-07
5.05899e-07
5.13975e-07
5.41563e-07
5.47688e-07
4.99849e-07
5.37114e-07
5.45366e-07
9.208e-07
9.36993e-07
4.98477e-07
5.40658e-07
5.43086e-07
9.43264e-07
9.47538e-07
9.69487e-07
5.54787e-07
5.49535e-07
5.88026e-07
5.89396e-07
9.4496e-07
9.70427e-07
5.53665e-07
5.55357e-07
5.89131e-07
5.88949e-07
5.63007e-07
5.89622e-07
5.99837e-07
9.43907e-07
9.68791e-07
5.60041e-07
5.87869e-07
5.95505e-07
9.72525e-07
9.77824e-07
1.00068e-06
6.00964e-07
6.02134e-07
6.40292e-07
6.37365e-07
9.79205e-07
9.99318e-07
6.00022e-07
6.02705e-07
6.39311e-07
6.38244e-07
6.07728e-07
6.36376e-07
6.37057e-07
9.78583e-07
1.0007e-06
6.03343e-07
6.3727e-07
6.31597e-07
9.97574e-07
1.00859e-06
1.02816e-06
6.5119e-07
6.48667e-07
6.84249e-07
6.83556e-07
1.00665e-06
1.02785e-06
6.52708e-07
6.50372e-07
6.84306e-07
6.86977e-07
6.48386e-07
6.8286e-07
6.87178e-07
1.00808e-06
1.02949e-06
6.46562e-07
6.87763e-07
6.8978e-07
1.03236e-06
1.03549e-06
1.05752e-06
6.97192e-07
6.95622e-07
7.32097e-07
7.29652e-07
1.03572e-06
1.05659e-06
6.94296e-07
6.96543e-07
7.30818e-07
7.26292e-07
7.01268e-07
7.29653e-07
7.34636e-07
1.03637e-06
1.05377e-06
6.9995e-07
7.24469e-07
7.31533e-07
1.05915e-06
1.06538e-06
1.08642e-06
7.42554e-07
7.4089e-07
7.77243e-07
7.74552e-07
1.0638e-06
1.08464e-06
7.44809e-07
7.40679e-07
7.80354e-07
7.81932e-07
7.44604e-07
7.74062e-07
7.7785e-07
1.06185e-06
1.08953e-06
7.4513e-07
7.8094e-07
7.80473e-07
1.0862e-06
1.09263e-06
1.10682e-06
7.88357e-07
7.85454e-07
8.13849e-07
8.19354e-07
1.092e-06
1.11224e-06
7.88569e-07
7.90912e-07
8.11291e-07
8.11805e-07
7.87751e-07
8.18685e-07
8.12322e-07
1.09553e-06
1.105e-06
7.8851e-07
8.10883e-07
8.1112e-07
1.10617e-06
1.11334e-06
1.14319e-06
8.22651e-07
8.28275e-07
8.60885e-07
8.52452e-07
1.11854e-06
1.13494e-06
8.21671e-07
8.21287e-07
8.65051e-07
8.62757e-07
8.22086e-07
8.52686e-07
8.62872e-07
1.11063e-06
1.14348e-06
8.2114e-07
8.60503e-07
8.65355e-07
1.14561e-06
1.15185e-06
1.16637e-06
8.73534e-07
8.64519e-07
8.98483e-07
9.00893e-07
1.14189e-06
1.1673e-06
8.77628e-07
8.73746e-07
8.9998e-07
8.98836e-07
8.75723e-07
9.00207e-07
9.00564e-07
1.15207e-06
1.16572e-06
8.79211e-07
8.98425e-07
9.05637e-07
1.17097e-06
1.1699e-06
1.17943e-06
9.04233e-07
9.08323e-07
9.24258e-07
9.25108e-07
1.17308e-06
1.18238e-06
9.05198e-07
9.06837e-07
9.23538e-07
9.27839e-07
9.06096e-07
9.2441e-07
9.23881e-07
1.1701e-06
1.18349e-06
9.10975e-07
9.25386e-07
9.26623e-07
1.18007e-06
1.18701e-06
1.21444e-06
9.35704e-07
9.33335e-07
9.66861e-07
9.65425e-07
1.18743e-06
1.21394e-06
9.33523e-07
9.35023e-07
9.62984e-07
9.65872e-07
9.32666e-07
9.64812e-07
9.65043e-07
1.18951e-06
1.21203e-06
9.32473e-07
9.65217e-07
9.61636e-07
1.21195e-06
1.21946e-06
1.23363e-06
9.72636e-07
9.73785e-07
9.90489e-07
9.94807e-07
1.22085e-06
1.23473e-06
9.69748e-07
9.75998e-07
9.97393e-07
9.95753e-07
9.74098e-07
9.95179e-07
9.98748e-07
1.21998e-06
1.23578e-06
9.74381e-07
9.95425e-07
1.0016e-06
1.24231e-06
1.24114e-06
1.2622e-06
1.00006e-06
1.002e-06
1.02762e-06
1.02102e-06
1.23979e-06
1.25421e-06
1.00764e-06
1.00088e-06
1.02689e-06
1.02225e-06
1.00667e-06
1.02058e-06
1.02233e-06
1.23952e-06
1.25288e-06
1.00805e-06
1.02008e-06
1.02071e-06
1.2553e-06
1.2661e-06
1.26937e-06
1.0328e-06
1.02649e-06
1.04315e-06
1.0485e-06
1.25867e-06
1.27253e-06
1.03029e-06
1.0323e-06
1.0414e-06
1.05421e-06
1.02563e-06
1.04657e-06
1.03796e-06
1.26102e-06
1.28228e-06
1.02405e-06
1.05256e-06
1.03747e-06
1.26002e-06
1.2728e-06
1.28819e-06
1.04729e-06
1.05648e-06
1.0666e-06
1.07177e-06
1.2794e-06
1.2952e-06
1.04778e-06
1.05762e-06
1.07062e-06
1.06607e-06
1.04421e-06
1.07285e-06
1.07787e-06
1.28599e-06
1.28692e-06
1.04436e-06
1.06635e-06
1.07768e-06
1.30033e-06
1.29406e-06
1.3127e-06
1.07402e-06
1.07522e-06
1.09535e-06
1.08864e-06
1.29875e-06
1.30707e-06
1.07599e-06
1.06985e-06
1.09232e-06
1.08558e-06
1.08859e-06
1.08993e-06
1.10149e-06
1.28931e-06
1.30419e-06
1.08694e-06
1.09189e-06
1.10108e-06
1.32541e-06
1.32006e-06
1.33947e-06
1.10294e-06
1.09633e-06
1.12179e-06
1.12355e-06
1.31332e-06
1.33809e-06
1.09973e-06
1.0941e-06
1.12099e-06
1.12346e-06
1.1025e-06
1.12122e-06
1.1078e-06
1.3131e-06
1.33863e-06
1.10309e-06
1.12211e-06
1.10932e-06
1.32158e-06
1.343e-06
1.34054e-06
1.12517e-06
1.12868e-06
1.13176e-06
1.13376e-06
1.34303e-06
1.3426e-06
1.1252e-06
1.12891e-06
1.13303e-06
1.1392e-06
1.11122e-06
1.13164e-06
1.12682e-06
1.34307e-06
1.34791e-06
1.11249e-06
1.13253e-06
1.12663e-06
1.33056e-06
1.34215e-06
1.35405e-06
1.13443e-06
1.13465e-06
1.14703e-06
1.1434e-06
1.34367e-06
1.34707e-06
1.13602e-06
1.14241e-06
1.14924e-06
1.14966e-06
1.13504e-06
1.14421e-06
1.16123e-06
1.35117e-06
1.35927e-06
1.13311e-06
1.14981e-06
1.15877e-06
1.37247e-06
1.36188e-06
1.381e-06
1.15421e-06
1.14937e-06
1.17504e-06
1.17751e-06
1.35396e-06
1.38585e-06
1.156e-06
1.1519e-06
1.17205e-06
1.1632e-06
1.16572e-06
1.17906e-06
1.17097e-06
1.36224e-06
1.36816e-06
1.16491e-06
1.16778e-06
1.17439e-06
1.3808e-06
1.38452e-06
1.3874e-06
1.1785e-06
1.184e-06
1.18521e-06
1.1906e-06
1.39153e-06
1.39485e-06
1.17521e-06
1.17012e-06
1.18372e-06
1.19085e-06
1.17252e-06
1.18825e-06
1.18006e-06
1.37352e-06
1.39346e-06
1.17648e-06
1.19023e-06
1.18401e-06
1.38252e-06
1.39015e-06
1.39769e-06
1.18781e-06
1.19126e-06
1.19848e-06
1.19418e-06
1.39624e-06
1.39232e-06
1.18741e-06
1.19449e-06
1.20066e-06
1.19932e-06
1.18408e-06
1.19418e-06
1.20364e-06
1.39787e-06
1.39914e-06
1.18706e-06
1.19879e-06
1.20215e-06
1.40373e-06
1.40221e-06
1.41455e-06
1.20308e-06
1.19668e-06
1.21706e-06
1.21471e-06
1.39523e-06
1.41369e-06
1.20461e-06
1.20117e-06
1.21421e-06
1.2115e-06
1.20855e-06
1.21649e-06
1.21491e-06
1.40056e-06
1.40649e-06
1.20663e-06
1.20967e-06
1.21258e-06
1.41252e-06
1.41894e-06
1.43049e-06
1.22063e-06
1.22216e-06
1.2309e-06
1.23203e-06
1.42058e-06
1.42912e-06
1.21775e-06
1.21779e-06
1.23306e-06
1.23746e-06
1.2167e-06
1.23024e-06
1.228e-06
1.41303e-06
1.43739e-06
1.21459e-06
1.23457e-06
1.22824e-06
1.42735e-06
1.43538e-06
1.44152e-06
1.23526e-06
1.23349e-06
1.2445e-06
1.24345e-06
1.43168e-06
1.44126e-06
1.23812e-06
1.24028e-06
1.24462e-06
1.24243e-06
1.23261e-06
1.24407e-06
1.24017e-06
1.44169e-06
1.43966e-06
1.23427e-06
1.24362e-06
1.24257e-06
1.43739e-06
1.44305e-06
1.43867e-06
1.24556e-06
1.24718e-06
1.24847e-06
1.25078e-06
1.44589e-06
1.44516e-06
1.24479e-06
1.24314e-06
1.24697e-06
1.24804e-06
1.24159e-06
1.25139e-06
1.24761e-06
1.44086e-06
1.44004e-06
1.24346e-06
1.24848e-06
1.2477e-06
1.43813e-06
1.44162e-06
1.45711e-06
1.2504e-06
1.25088e-06
1.26029e-06
1.25469e-06
1.44598e-06
1.44406e-06
1.24946e-06
1.25045e-06
1.26251e-06
1.26043e-06
1.25056e-06
1.25504e-06
1.26524e-06
1.44278e-06
1.4525e-06
1.25005e-06
1.25722e-06
1.26235e-06
1.46257e-06
1.46323e-06
1.4735e-06
1.26502e-06
1.25848e-06
1.27641e-06
1.27907e-06
1.44903e-06
1.47817e-06
1.26719e-06
1.2647e-06
1.27514e-06
1.27752e-06
1.27024e-06
1.27969e-06
1.27666e-06
1.45828e-06
1.47636e-06
1.26844e-06
1.27949e-06
1.27707e-06
1.47742e-06
1.4757e-06
1.4721e-06
1.27837e-06
1.28353e-06
1.28068e-06
1.28419e-06
1.48368e-06
1.4797e-06
1.27621e-06
1.28001e-06
1.27846e-06
1.28072e-06
1.27656e-06
1.28352e-06
1.27565e-06
1.48014e-06
1.47611e-06
1.27701e-06
1.28144e-06
1.27568e-06
1.46506e-06
1.47349e-06
1.47706e-06
1.28137e-06
1.28257e-06
1.28438e-06
1.28086e-06
1.48023e-06
1.47063e-06
1.27954e-06
1.28021e-06
1.28461e-06
1.28077e-06
1.27587e-06
1.27994e-06
1.28205e-06
1.47696e-06
1.47126e-06
1.27573e-06
1.27992e-06
1.2812e-06
1.47078e-06
1.48086e-06
1.48865e-06
1.28577e-06
1.28236e-06
1.29247e-06
1.29419e-06
1.47352e-06
1.49149e-06
1.28683e-06
1.28276e-06
1.29245e-06
1.2936e-06
1.28578e-06
1.29589e-06
1.30026e-06
1.47439e-06
1.49022e-06
1.28449e-06
1.29413e-06
1.29885e-06
1.49873e-06
1.49227e-06
1.50096e-06
1.29546e-06
1.29978e-06
1.30406e-06
1.30698e-06
1.49892e-06
1.50923e-06
1.29498e-06
1.29808e-06
1.30329e-06
1.30458e-06
1.30287e-06
1.30809e-06
1.30498e-06
1.49618e-06
1.50374e-06
1.30203e-06
1.30558e-06
1.30542e-06
1.50436e-06
1.50384e-06
1.50214e-06
1.30571e-06
1.30675e-06
1.30646e-06
1.30202e-06
1.51045e-06
1.49527e-06
1.30474e-06
1.30473e-06
1.30569e-06
1.30368e-06
1.30524e-06
1.30167e-06
1.30552e-06
1.50535e-06
1.49806e-06
1.30572e-06
1.30346e-06
1.30569e-06
1.50276e-06
1.50336e-06
1.49804e-06
1.30592e-06
1.30015e-06
1.30349e-06
1.29879e-06
1.4955e-06
1.48707e-06
1.30554e-06
1.30331e-06
1.30476e-06
1.30404e-06
1.30527e-06
1.29829e-06
1.30155e-06
1.49904e-06
1.49655e-06
1.30523e-06
1.30334e-06
1.30128e-06
1.4942e-06
1.49933e-06
1.50446e-06
1.30328e-06
1.30038e-06
1.30815e-06
1.31186e-06
1.4904e-06
1.511e-06
1.30466e-06
1.30515e-06
1.30843e-06
1.31334e-06
1.30063e-06
1.3118e-06
1.30404e-06
1.49968e-06
1.51369e-06
1.30062e-06
1.31358e-06
1.30428e-06
1.49748e-06
1.51027e-06
1.52774e-06
1.31284e-06
1.31747e-06
1.32591e-06
1.32693e-06
1.51873e-06
1.53277e-06
1.31237e-06
1.31656e-06
1.32403e-06
1.32046e-06
1.30871e-06
1.32714e-06
1.326e-06
1.51882e-06
1.5229e-06
1.30854e-06
1.31979e-06
1.32438e-06
1.52835e-06
1.53084e-06
1.52242e-06
1.32688e-06
1.32723e-06
1.32266e-06
1.32252e-06
1.53487e-06
1.52344e-06
1.32494e-06
1.32026e-06
1.32141e-06
1.31664e-06
1.32845e-06
1.32258e-06
1.32583e-06
1.52397e-06
1.51214e-06
1.32685e-06
1.31616e-06
1.32513e-06
1.52938e-06
1.5229e-06
1.51102e-06
1.31992e-06
1.31988e-06
1.3136e-06
1.31318e-06
1.52382e-06
1.50982e-06
1.31906e-06
1.3155e-06
1.31394e-06
1.31487e-06
1.3224e-06
1.31238e-06
1.31111e-06
1.51299e-06
1.51104e-06
1.32203e-06
1.31426e-06
1.31142e-06
1.50559e-06
1.51231e-06
1.51389e-06
1.31312e-06
1.31193e-06
1.31484e-06
1.31076e-06
1.51075e-06
1.50474e-06
1.31368e-06
1.31553e-06
1.3157e-06
1.31937e-06
1.3094e-06
1.30978e-06
1.31231e-06
1.51412e-06
1.52177e-06
1.30978e-06
1.31917e-06
1.31291e-06
1.50598e-06
1.51676e-06
1.52463e-06
1.31596e-06
1.31137e-06
1.32176e-06
1.32008e-06
1.50694e-06
1.52296e-06
1.31683e-06
1.3204e-06
1.32173e-06
1.32425e-06
1.31574e-06
1.32272e-06
1.33375e-06
1.52511e-06
1.53192e-06
1.31665e-06
1.32797e-06
1.33502e-06
1.54677e-06
1.52959e-06
1.54518e-06
1.32508e-06
1.32623e-06
1.33507e-06
1.33846e-06
1.53177e-06
1.55506e-06
1.32469e-06
1.32678e-06
1.33441e-06
1.33263e-06
1.33786e-06
1.33989e-06
1.33572e-06
1.5361e-06
1.54352e-06
1.33842e-06
1.33267e-06
1.33387e-06
1.55026e-06
1.54867e-06
1.53462e-06
1.33574e-06
1.33836e-06
1.32722e-06
1.32353e-06
1.55725e-06
1.52451e-06
1.3351e-06
1.33244e-06
1.32654e-06
1.32092e-06
1.32976e-06
1.31909e-06
1.30289e-06
1.54479e-06
1.51841e-06
1.32739e-06
1.31389e-06
1.29968e-06
1.48986e-06
1.53309e-06
1.50039e-06
1.32079e-06
1.31499e-06
1.30331e-06
1.30159e-06
1.52132e-06
1.49463e-06
1.31999e-06
1.31381e-06
1.30196e-06
1.30076e-06
1.29608e-06
1.29928e-06
1.29583e-06
1.51644e-06
1.49361e-06
1.29363e-06
1.29883e-06
1.2951e-06
1.48423e-06
1.50123e-06
1.51672e-06
1.30237e-06
1.30217e-06
1.31225e-06
1.32078e-06
1.49834e-06
1.538e-06
1.30096e-06
1.30107e-06
1.31123e-06
1.31879e-06
1.30295e-06
1.32509e-06
1.33852e-06
1.49679e-06
1.53368e-06
1.30288e-06
1.32474e-06
1.34037e-06
1.56513e-06
1.52691e-06
1.55247e-06
1.31992e-06
1.32859e-06
1.33338e-06
1.33246e-06
1.54875e-06
1.55165e-06
1.31934e-06
1.32864e-06
1.33494e-06
1.33983e-06
1.34595e-06
1.33355e-06
1.34139e-06
1.5461e-06
1.5653e-06
1.34822e-06
1.34178e-06
1.34385e-06
1.5722e-06
1.55441e-06
1.52362e-06
1.33257e-06
1.3271e-06
1.3121e-06
1.29875e-06
1.55041e-06
1.49391e-06
1.33441e-06
1.33736e-06
1.31428e-06
1.30939e-06
1.33097e-06
1.29571e-06
1.2899e-06
1.56567e-06
1.51368e-06
1.33287e-06
1.30445e-06
1.28839e-06
1.48298e-06
1.52102e-06
1.49058e-06
1.30261e-06
1.29076e-06
1.28685e-06
1.28597e-06
1.49192e-06
1.48529e-06
1.3044e-06
1.2977e-06
1.28597e-06
1.2807e-06
1.27966e-06
1.28503e-06
1.27409e-06
1.50965e-06
1.47537e-06
1.27629e-06
1.27583e-06
1.26806e-06
1.4596e-06
1.4923e-06
1.5159e-06
1.28692e-06
1.28983e-06
1.30146e-06
1.31665e-06
1.49359e-06
1.54738e-06
1.28574e-06
1.28118e-06
1.29905e-06
1.30089e-06
1.27946e-06
1.31927e-06
1.3146e-06
1.47795e-06
1.51642e-06
1.27321e-06
1.30196e-06
1.31131e-06
1.53569e-06
1.5265e-06
1.5457e-06
1.3099e-06
1.32375e-06
1.31968e-06
1.32343e-06
1.55806e-06
1.55577e-06
1.30755e-06
1.31166e-06
1.31899e-06
1.32498e-06
1.32533e-06
1.32367e-06
1.33087e-06
1.53026e-06
1.55818e-06
1.32463e-06
1.32975e-06
1.3351e-06
1.56918e-06
1.54663e-06
1.50652e-06
1.31765e-06
1.31539e-06
1.29174e-06
1.27901e-06
1.5535e-06
1.48131e-06
1.31744e-06
1.32305e-06
1.29287e-06
1.29535e-06
1.32457e-06
1.27603e-06
1.28894e-06
1.55934e-06
1.51437e-06
1.33058e-06
1.29855e-06
1.29569e-06
1.50713e-06
1.50375e-06
1.4769e-06
1.28122e-06
1.26833e-06
1.26564e-06
1.25848e-06
1.47781e-06
1.45905e-06
1.28253e-06
1.28374e-06
1.26609e-06
1.26451e-06
1.277e-06
1.25642e-06
1.26236e-06
1.51061e-06
1.4753e-06
1.28282e-06
1.26434e-06
1.26367e-06
1.47219e-06
1.47946e-06
1.5029e-06
1.26584e-06
1.26064e-06
1.2786e-06
1.28392e-06
1.46527e-06
1.51258e-06
1.26614e-06
1.26437e-06
1.27767e-06
1.27506e-06
1.2629e-06
1.28518e-06
1.27769e-06
1.47696e-06
1.49621e-06
1.26353e-06
1.27303e-06
1.27319e-06
1.49852e-06
1.51132e-06
1.5174e-06
1.28498e-06
1.29168e-06
1.28845e-06
1.29476e-06
1.52338e-06
1.53007e-06
1.28388e-06
1.28126e-06
1.28752e-06
1.28546e-06
1.28375e-06
1.29641e-06
1.28543e-06
1.50427e-06
1.51077e-06
1.27831e-06
1.2826e-06
1.27992e-06
1.50811e-06
1.51785e-06
1.48606e-06
1.28563e-06
1.29104e-06
1.26457e-06
1.26684e-06
1.53019e-06
1.49099e-06
1.28484e-06
1.2831e-06
1.2642e-06
1.26426e-06
1.28202e-06
1.26715e-06
1.26302e-06
1.51129e-06
1.48581e-06
1.27706e-06
1.26337e-06
1.26141e-06
1.48287e-06
1.48609e-06
1.46377e-06
1.26145e-06
1.26318e-06
1.23674e-06
1.23492e-06
1.49061e-06
1.46233e-06
1.26118e-06
1.2619e-06
1.23664e-06
1.23806e-06
1.26121e-06
1.23442e-06
1.2394e-06
1.48636e-06
1.46941e-06
1.26035e-06
1.23923e-06
1.24065e-06
1.47273e-06
1.44622e-06
1.20136e-06
1.19844e-06
1.44303e-06
1.20127e-06
1.2024e-06
7.54567e-07
7.57652e-07
7.58516e-07
1.2038e-06
1.45206e-06
1.20524e-06
5.01482e-10
2.77754e-09
3.66862e-10
5.31699e-10
5.19579e-09
3.58129e-09
2.7557e-09
1.4081e-09
2.99473e-09
4.96172e-09
9.81993e-10
1.05623e-08
5.14189e-09
6.61354e-09
7.20544e-09
7.61519e-09
1.76075e-07
5.99994e-09
2.73222e-07
1.45387e-06
2.94907e-06
8.72961e-09
1.66226e-07
7.38593e-09
2.62859e-07
1.19733e-09
1.57726e-09
1.43303e-09
1.71984e-09
1.18143e-09
1.56704e-09
1.41938e-09
4.62996e-09
7.39388e-08
2.84997e-09
3.32827e-09
4.89388e-09
5.30042e-08
2.82665e-09
1.46675e-06
2.97742e-06
2.6636e-09
2.58337e-09
8.90119e-08
5.15006e-09
2.78304e-09
2.56634e-09
6.48312e-08
2.20377e-07
2.32399e-07
4.7617e-09
1.8847e-07
1.85175e-07
1.67775e-08
4.75209e-07
1.19607e-08
6.81127e-07
6.71332e-06
9.68855e-06
1.81539e-08
4.7995e-07
1.33632e-08
6.83926e-07
1.1678e-09
1.55257e-09
1.40303e-09
1.66004e-09
1.12713e-09
1.50765e-09