/*--------------------------------*- C++ -*----------------------------------*\
| =========                 |                                                 |
| \\      /  F ield         | OpenFOAM: The Open Source CFD Toolbox           |
|  \\    /   O peration     | Version:  v2012                                 |
|   \\  /    A nd           | Website:  www.openfoam.com                      |
|    \\/     M anipulation  |                                                 |
\*---------------------------------------------------------------------------*/
FoamFile
{
    version     2.0;
    format      ascii;
    class       volScalarField;
    location    "787.5";
    object      p;
}
// * * * * * * * * * * * * * * * * * * * * * * * * * * * * * * * * * * * * * //

dimensions      [0 2 -2 0 0 0 0];


internalField   nonuniform List<scalar> 
171728
(
0.00351908
0.003518
0.00351804
0.00351878
0.00348364
0.00348217
0.00348207
0.00348502
0.00344521
0.00344333
0.00344331
0.00344564
0.00340116
0.00339948
0.00339949
0.00340172
0.0033531
0.00335162
0.00335169
0.00335396
0.00330425
0.00330297
0.00330297
0.00330532
0.00325602
0.00325484
0.00325486
0.0032572
0.00320873
0.00320766
0.00320768
0.00321005
0.00316241
0.00316148
0.00316153
0.00316386
0.00311706
0.00311625
0.00311626
0.00311863
0.00307261
0.00307193
0.00307192
0.00307432
0.00302894
0.00302838
0.00302835
0.00303073
0.00298583
0.0029854
0.00298533
0.00298763
0.00294314
0.00294282
0.00294274
0.00294514
0.00290078
0.00290046
0.00290044
0.00290275
0.00285878
0.00285856
0.00285872
0.00286085
0.00281693
0.00281681
0.0028169
0.0028191
0.00277572
0.0027755
0.00277561
0.00277779
0.00273466
0.00273464
0.00273455
0.00273665
0.00269398
0.00269408
0.002694
0.00269602
0.00265366
0.00265364
0.0026538
0.00265555
0.00261367
0.00261373
0.00261385
0.00261547
0.00257394
0.00257421
0.00257412
0.00257579
0.00253449
0.00253474
0.00253467
0.00253624
0.00249523
0.00249556
0.00249563
0.00249732
0.00245638
0.00245676
0.00245667
0.00245844
0.00241755
0.00241796
0.002418
0.00241949
0.00237908
0.00237957
0.00237957
0.00238182
0.00234073
0.00234122
0.00234124
0.00234262
0.00230259
0.0023032
0.00230316
0.0023054
0.00226459
0.00226514
0.0022652
0.00226701
0.00222678
0.00222743
0.00222739
0.00222921
0.00218915
0.00218986
0.00218981
0.00219169
0.00215159
0.0021522
0.00215225
0.00215407
0.0021142
0.00211482
0.00211477
0.00211664
0.00207693
0.00207755
0.0020775
0.00207941
0.00203985
0.00204037
0.00204045
0.00204222
0.00200279
0.0020033
0.00200313
0.00200523
0.00196597
0.0019664
0.00196658
0.0019682
0.00192927
0.00192956
0.00192942
0.00193173
0.00189264
0.00189302
0.00189301
0.00189478
0.0018562
0.00185635
0.00185639
0.00185841
0.00181981
0.00181995
0.00181996
0.00182208
0.00178361
0.0017837
0.00178363
0.00178567
0.00174759
0.00174756
0.00174772
0.00174962
0.0017115
0.00171154
0.00171129
0.00171352
0.00167561
0.0016755
0.00167576
0.00167786
0.00164037
0.00164013
0.00163994
0.00164191
0.00160423
0.00160407
0.00160411
0.00160619
0.00156872
0.00156868
0.00156872
0.00157082
0.00153349
0.00153324
0.0015332
0.00153536
0.00149845
0.00149794
0.00149796
0.00149989
0.00146281
0.00146266
0.00146285
0.00146453
0.00142756
0.00142745
0.00142712
0.00142963
0.00139276
0.00139235
0.00139265
0.00139449
0.00135791
0.00135766
0.0013577
0.0013592
0.00132299
0.00132256
0.00132244
0.00132455
0.001288
0.00128785
0.00128812
0.00129035
0.00125328
0.00125325
0.00125285
0.00125481
0.00121859
0.00121822
0.00121837
0.00121988
0.00118387
0.00118348
0.00118364
0.00118582
0.00114911
0.00114899
0.00114876
0.00115082
0.00111451
0.00111435
0.00111459
0.00111621
0.00108021
0.00107977
0.00107976
0.00108173
0.00104522
0.00104524
0.00104504
0.00104697
0.00101091
0.00101053
0.00101079
0.00101276
0.00097671
0.000976639
0.000976642
0.000978392
0.000941806
0.000941609
0.000941525
0.000943331
0.000907278
0.000906839
0.000906892
0.000908944
0.000873076
0.000873199
0.000873232
0.000875345
0.000838762
0.000838777
0.000838681
0.000840442
0.000803953
0.000803454
0.000803482
0.00080542
0.000769138
0.000769012
0.000769111
0.000771059
0.000734673
0.000734882
0.000734878
0.000736669
0.00070062
0.000700501
0.00070027
0.000702496
0.000665837
0.000665516
0.00066549
0.000667513
0.000630539
0.000630426
0.000630627
0.000632297
0.000596007
0.00059597
0.000596139
0.000597968
0.000561784
0.000561933
0.000561862
0.000564156
0.000527674
0.000527675
0.000527347
0.000529275
0.000492245
0.000491548
0.00049168
0.000493193
0.000455894
0.000455865
0.00045614
0.000458277
0.000421965
0.000422772
0.00042262
0.000425125
0.000388868
0.000388307
0.00038838
0.000389992
0.000352314
0.000351441
0.000351629
0.000353098
0.000314985
0.000315595
0.000315175
0.000317661
0.00028122
0.000281937
0.000281747
0.00028405
0.000248338
0.000247596
0.000248181
0.000249624
0.000211862
0.00021112
0.000211332
0.000213092
0.000174209
0.000174739
0.000174309
0.000176741
0.000139611
0.000140114
0.000139891
0.000142067
0.0001054
0.00010499
0.000105206
0.00010695
6.89524e-05
6.8548e-05
6.87102e-05
7.0484e-05
3.36061e-05
3.32422e-05
3.32503e-05
3.51147e-05
6.20262e-06
7.21443e-06
7.18364e-06
5.35696e-06
0.00352352
0.00352108
0.00352093
0.00352339
0.00352109
0.00352106
0.00352743
0.00352742
0.00352746
0.00352747
0.00352092
0.00352105
0.00352353
0.00352111
0.0035211
0.00352354
0.00351876
0.0034898
0.00351802
0.00351797
0.00349167
0.00349171
0.00351868
0.00348981
0.00351805
0.00351806
0.00349162
0.0034916
0.00351802
0.00349164
0.00349166
0.00351877
0.00348976
0.00351808
0.00349169
0.00349166
0.00348981
0.00348501
0.00345118
0.00348212
0.00348208
0.00345348
0.00345344
0.00348502
0.00345117
0.00348216
0.00348218
0.00345351
0.00345342
0.00348215
0.00345343
0.00345348
0.00348499
0.00345117
0.00348213
0.00345348
0.00345345
0.00345117
0.00344564
0.0034079
0.00344331
0.00344327
0.00341095
0.00341093
0.00344564
0.00340789
0.00344334
0.00344335
0.00341099
0.00341097
0.0034433
0.00341094
0.00341096
0.00344565
0.00340789
0.00344329
0.00341095
0.00341098
0.00340789
0.00340172
0.00336043
0.00339948
0.00339948
0.00336379
0.00336377
0.00340172
0.00336043
0.00339946
0.00339946
0.00336382
0.00336381
0.00339949
0.00336381
0.0033638
0.00340173
0.00336044
0.00339947
0.00336377
0.0033638
0.00336042
0.00335397
0.00331176
0.00335167
0.00335165
0.00331511
0.00331507
0.00335396
0.00331175
0.00335166
0.00335162
0.00331511
0.00331511
0.00335166
0.00331512
0.0033151
0.00335398
0.00331176
0.00335165
0.00331509
0.00331509
0.00331176
0.00330532
0.00326352
0.00330297
0.00330298
0.00326678
0.00326677
0.0033053
0.00326351
0.00330298
0.00330297
0.00326679
0.00326679
0.003303
0.00326675
0.0032668
0.00330532
0.00326352
0.003303
0.0032668
0.0032668
0.00326352
0.0032572
0.00321622
0.00325485
0.00325482
0.0032194
0.00321938
0.00325718
0.00321621
0.00325486
0.00325486
0.00321939
0.00321938
0.00325485
0.00321937
0.0032194
0.00325721
0.00321622
0.00325484
0.00321938
0.0032194
0.00321622
0.00321003
0.00316991
0.00320766
0.00320766
0.00317296
0.00317296
0.00321002
0.0031699
0.00320767
0.00320768
0.00317296
0.00317296
0.00320768
0.00317297
0.00317297
0.00321004
0.00316991
0.00320767
0.00317295
0.00317299
0.0031699
0.00316386
0.00312456
0.0031615
0.00316148
0.00312751
0.00312749
0.00316384
0.00312454
0.00316149
0.00316151
0.00312751
0.0031275
0.00316151
0.00312749
0.00312751
0.00316388
0.00312453
0.00316149
0.00312751
0.0031275
0.00312453
0.00311863
0.00308009
0.00311626
0.00311626
0.00308293
0.00308292
0.00311862
0.00308008
0.00311626
0.00311624
0.00308295
0.00308294
0.00311628
0.00308293
0.00308294
0.00311861
0.00308007
0.00311628
0.00308293
0.00308292
0.0030801
0.00307431
0.00303642
0.00307192
0.00307194
0.00303914
0.00303923
0.00307429
0.00303639
0.00307192
0.00307191
0.00303916
0.00303916
0.00307195
0.00303921
0.00303918
0.00307429
0.00303642
0.00307197
0.00303918
0.00303919
0.00303638
0.00303076
0.00299333
0.00302841
0.00302837
0.00299603
0.00299609
0.0030307
0.00299336
0.00302838
0.00302839
0.00299605
0.00299604
0.00302839
0.0029961
0.00299609
0.00303076
0.0029933
0.00302837
0.00299608
0.00299607
0.00299325
0.00298773
0.00295064
0.00298542
0.00298543
0.00295334
0.00295338
0.00298774
0.00295062
0.00298543
0.00298534
0.00295334
0.0029534
0.00298535
0.00295338
0.00295339
0.00298771
0.00295057
0.00298534
0.00295342
0.0029534
0.00295066
0.00294516
0.00290833
0.00294288
0.0029428
0.00291093
0.00291108
0.00294512
0.00290827
0.00294293
0.0029427
0.00291095
0.00291108
0.00294284
0.00291108
0.00291107
0.00294504
0.00290826
0.00294279
0.00291105
0.00291106
0.00290824
0.00290289
0.0028662
0.00290055
0.00290045
0.0028689
0.00286901
0.00290275
0.00286624
0.00290059
0.00290045
0.00286884
0.002869
0.00290047
0.00286901
0.00286902
0.00290271
0.00286628
0.00290049
0.00286898
0.00286903
0.00286629
0.00286079
0.00282427
0.00285842
0.00285855
0.00282726
0.00282724
0.00286081
0.00282447
0.00285846
0.00285875
0.00282729
0.0028273
0.00285857
0.00282725
0.00282722
0.00286093
0.00282447
0.00285858
0.00282732
0.00282723
0.00282445
0.00281886
0.00278327
0.00281666
0.0028168
0.00278596
0.00278582
0.00281909
0.002783
0.00281665
0.00281686
0.00278599
0.00278598
0.00281687
0.00278581
0.00278587
0.00281908
0.00278305
0.00281692
0.00278599
0.00278588
0.0027831
0.00277797
0.00274177
0.00277579
0.00277552
0.00274478
0.00274488
0.00277771
0.00274189
0.00277571
0.00277561
0.00274477
0.00274492
0.00277561
0.00274485
0.00274483
0.00277772
0.00274191
0.00277559
0.0027449
0.00274481
0.00274188
0.00273652
0.00270102
0.00273452
0.00273465
0.00270422
0.00270413
0.00273666
0.00270125
0.00273446
0.00273455
0.00270417
0.00270416
0.00273461
0.00270411
0.00270413
0.00273665
0.00270112
0.0027346
0.00270416
0.00270411
0.00270122
0.00269584
0.00266054
0.00269399
0.0026941
0.00266386
0.00266371
0.00269604
0.0026607
0.00269391
0.00269399
0.00266389
0.00266387
0.00269407
0.00266371
0.0026638
0.00269593
0.00266062
0.00269407
0.00266388
0.00266381
0.00266068
0.00265549
0.00262053
0.00265387
0.00265365
0.00262369
0.00262382
0.0026555
0.00262051
0.0026538
0.00265377
0.00262374
0.00262375
0.00265377
0.00262381
0.00262376
0.00265553
0.00262054
0.00265378
0.00262381
0.00262376
0.00262057
0.00261552
0.00258073
0.00261388
0.00261376
0.00258388
0.00258408
0.00261545
0.00258076
0.00261387
0.00261385
0.00258392
0.00258396
0.00261378
0.00258409
0.00258407
0.00261548
0.00258079
0.00261377
0.00258399
0.00258406
0.0025808
0.00257557
0.00254135
0.00257405
0.00257422
0.00254456
0.0025445
0.0025758
0.00254128
0.0025741
0.00257412
0.00254448
0.00254451
0.00257418
0.00254451
0.00254451
0.00257573
0.00254135
0.00257418
0.00254452
0.00254451
0.00254128
0.00253628
0.00250226
0.00253465
0.00253474
0.0025054
0.00250535
0.0025363
0.0025022
0.00253463
0.00253464
0.00250539
0.00250538
0.00253468
0.00250535
0.00250548
0.00253629
0.00250227
0.00253468
0.00250537
0.00250549
0.00250231
0.00249714
0.0024638
0.00249552
0.00249556
0.00246651
0.00246645
0.00249717
0.00246344
0.00249549
0.0024956
0.00246646
0.00246637
0.00249563
0.00246645
0.00246644
0.00249734
0.0024633
0.00249564
0.00246637
0.00246644
0.00246331
0.00245901
0.00242434
0.00245682
0.00245675
0.00242755
0.00242755
0.00245857
0.0024244
0.00245684
0.00245666
0.00242754
0.00242766
0.00245675
0.00242755
0.00242756
0.0024583
0.00242478
0.00245675
0.00242768
0.00242758
0.00242435
0.00241924
0.00238679
0.00241787
0.00241795
0.00238921
0.0023892
0.00241949
0.00238664
0.00241792
0.00241798
0.00238921
0.00238915
0.00241801
0.00238922
0.00238921
0.00241984
0.00238619
0.00241802
0.00238914
0.0023892
0.00238683
0.00238192
0.00234782
0.00237957
0.00237956
0.0023508
0.00235077
0.0023817
0.00234776
0.0023796
0.00237955
0.0023508
0.0023508
0.00237956
0.00235076
0.00235073
0.00238132
0.00234808
0.00237954
0.00235078
0.00235073
0.00234748
0.00234288
0.00231
0.00234128
0.00234123
0.0023127
0.00231268
0.00234286
0.00231008
0.00234126
0.00234122
0.00231266
0.00231266
0.00234123
0.0023127
0.00231271
0.00234313
0.00230995
0.00234124
0.00231268
0.00231272
0.00231028
0.00230512
0.00227197
0.00230319
0.00230318
0.00227469
0.00227468
0.00230519
0.00227199
0.00230316
0.00230316
0.00227468
0.00227469
0.00230319
0.00227464
0.00227465
0.00230507
0.00227198
0.00230319
0.00227468
0.00227466
0.00227198
0.00226704
0.00223415
0.0022652
0.00226518
0.00223683
0.00223679
0.00226706
0.00223411
0.0022652
0.00226521
0.00223683
0.00223679
0.00226514
0.00223681
0.00223683
0.00226707
0.00223416
0.00226516
0.00223683
0.00223683
0.00223409
0.00222925
0.00219656
0.00222741
0.00222739
0.00219921
0.00219922
0.00222923
0.0021966
0.00222741
0.00222738
0.0021992
0.00219919
0.00222742
0.00219927
0.00219924
0.00222927
0.00219654
0.00222741
0.0021992
0.00219921
0.00219658
0.00219167
0.00215898
0.00218982
0.00218983
0.00216163
0.00216162
0.00219171
0.00215897
0.0021898
0.0021898
0.00216163
0.00216162
0.00218983
0.0021616
0.00216161
0.00219165
0.00215899
0.0021898
0.00216161
0.00216163
0.00215897
0.00215408
0.00212154
0.00215224
0.00215222
0.00212414
0.00212413
0.00215406
0.00212154
0.00215224
0.00215221
0.00212414
0.00212412
0.00215221
0.00212412
0.00212412
0.0021541
0.00212154
0.00215223
0.00212415
0.00212415
0.00212154
0.00211666
0.00208426
0.00211481
0.00211481
0.00208685
0.00208687
0.00211666
0.00208426
0.00211482
0.0021148
0.00208684
0.0020868
0.00211478
0.00208688
0.00208683
0.00211663
0.00208422
0.0021148
0.00208676
0.0020868
0.00208427
0.00207939
0.00204713
0.00207753
0.00207755
0.00204963
0.00204963
0.00207939
0.00204712
0.00207751
0.00207747
0.00204965
0.00204975
0.00207753
0.00204963
0.00204963
0.00207938
0.00204725
0.00207751
0.0020498
0.00204967
0.0020471
0.00204226
0.00201007
0.00204037
0.00204036
0.00201257
0.00201257
0.00204224
0.00201007
0.0020404
0.00204046
0.00201257
0.0020124
0.00204035
0.00201257
0.00201259
0.0020423
0.00200989
0.00204038
0.00201237
0.00201257
0.00201013
0.0020052
0.00197315
0.00200329
0.0020033
0.00197555
0.0019756
0.0020052
0.00197319
0.00200328
0.00200312
0.00197554
0.00197564
0.00200333
0.0019756
0.00197549
0.00200508
0.0019734
0.0020033
0.00197572
0.00197549
0.00197303
0.0019683
0.00193642
0.00196635
0.0019664
0.00193882
0.00193876
0.00196832
0.00193636
0.00196636
0.00196652
0.0019388
0.00193879
0.00196625
0.00193876
0.00193883
0.00196856
0.0019362
0.00196628
0.00193872
0.00193883
0.00193656
0.00193157
0.00189974
0.00192963
0.00192957
0.00190204
0.00190211
0.00193152
0.00189982
0.0019296
0.0019295
0.00190207
0.00190203
0.00192973
0.00190213
0.00190214
0.00193134
0.00189982
0.00192972
0.00190206
0.00190213
0.00189966
0.00189491
0.00186327
0.00189289
0.00189299
0.00186556
0.00186552
0.00189498
0.00186322
0.00189291
0.00189296
0.00186552
0.00186558
0.00189286
0.00186551
0.00186541
0.00189502
0.00186327
0.00189286
0.00186557
0.00186539
0.0018632
0.00185844
0.00182676
0.00185643
0.00185637
0.00182901
0.00182903
0.00185838
0.0018268
0.00185643
0.0018564
0.00182903
0.00182904
0.00185635
0.00182903
0.0018291
0.00185842
0.0018268
0.00185635
0.00182907
0.00182919
0.00182694
0.00182194
0.00179057
0.00181991
0.00181995
0.00179278
0.00179276
0.00182199
0.00179055
0.00181989
0.00181994
0.00179273
0.00179266
0.00182001
0.00179276
0.00179273
0.00182196
0.0017905
0.00182005
0.00179265
0.00179264
0.00179047
0.00178577
0.00175442
0.00178372
0.00178369
0.00175656
0.00175658
0.00178574
0.00175441
0.00178372
0.00178365
0.00175664
0.00175674
0.00178364
0.00175657
0.00175657
0.00178574
0.00175455
0.00178361
0.00175675
0.00175666
0.00175445
0.0017496
0.00171831
0.00174754
0.00174756
0.00172048
0.00172055
0.00174962
0.0017184
0.00174758
0.00174768
0.00172038
0.00172035
0.00174755
0.00172055
0.00172044
0.00174971
0.00171821
0.00174761
0.00172033
0.00172035
0.00171829
0.00171353
0.00168256
0.00171146
0.00171155
0.00168461
0.00168444
0.0017136
0.00168239
0.00171138
0.00171133
0.00168464
0.0016846
0.00171143
0.00168445
0.00168467
0.00171343
0.00168257
0.00171135
0.0016846
0.00168468
0.00168261
0.0016778
0.00164671
0.00167571
0.00167549
0.00164886
0.00164902
0.00167764
0.00164687
0.00167579
0.00167576
0.00164888
0.00164892
0.00167578
0.00164901
0.00164886
0.00167782
0.00164677
0.00167583
0.00164896
0.00164892
0.00164671
0.00164192
0.00161101
0.00163985
0.00164014
0.00161307
0.00161307
0.00164209
0.00161099
0.0016398
0.00163991
0.001613
0.00161311
0.00163981
0.00161306
0.00161305
0.00164199
0.00161098
0.00163984
0.00161305
0.00161292
0.00161095
0.00160625
0.0015756
0.00160421
0.00160406
0.00157765
0.00157749
0.00160621
0.00157547
0.00160418
0.00160416
0.00157764
0.0015775
0.0016042
0.00157747
0.00157756
0.0016062
0.00157552
0.00160406
0.00157751
0.00157754
0.00157555
0.00157083
0.00153994
0.00156877
0.0015687
0.00154186
0.00154207
0.00157074
0.00154002
0.00156876
0.00156869
0.001542
0.00154212
0.0015687
0.00154211
0.00154218
0.00157079
0.00154002
0.00156874
0.00154216
0.00154234
0.00154012
0.00153524
0.00150484
0.00153308
0.00153319
0.00150703
0.00150679
0.00153527
0.00150473
0.00153321
0.00153318
0.00150687
0.00150672
0.00153332
0.00150678
0.00150679
0.00153525
0.00150468
0.0015334
0.00150667
0.00150664
0.00150464
0.00150009
0.00146934
0.00149822
0.001498
0.00147133
0.00147153
0.00150001
0.00146945
0.00149799
0.00149801
0.00147137
0.00147175
0.00149791
0.00147145
0.00147119
0.00149998
0.00146962
0.00149778
0.00147174
0.0014713
0.00146926
0.00146459
0.00143416
0.00146241
0.0014627
0.00143615
0.00143621
0.00146469
0.00143416
0.00146258
0.00146285
0.00143624
0.00143593
0.00146238
0.00143627
0.0014364
0.00146483
0.00143395
0.00146251
0.00143593
0.00143633
0.00143431
0.00142943
0.00139913
0.00142747
0.00142735
0.0014013
0.00140101
0.00142944
0.00139906
0.00142744
0.00142709
0.0014011
0.00140103
0.00142777
0.00140106
0.00140146
0.00142922
0.00139911
0.00142763
0.00140123
0.00140143
0.00139925
0.00139445
0.00136441
0.00139253
0.00139236
0.00136634
0.00136652
0.00139436
0.00136437
0.0013924
0.00139244
0.00136649
0.00136669
0.00139246
0.00136633
0.00136578
0.00139446
0.00136454
0.00139252
0.0013665
0.00136598
0.00136392
0.00135971
0.00132917
0.0013576
0.00135784
0.00133126
0.00133137
0.00135969
0.00132924
0.00135779
0.00135802
0.00133133
0.00133133
0.00135708
0.00133133
0.00133138
0.00135983
0.00132917
0.0013572
0.00133114
0.00133118
0.00132918
0.00132442
0.00129434
0.00132249
0.0013225
0.00129644
0.00129619
0.0013245
0.00129431
0.0013225
0.00132246
0.00129642
0.00129635
0.00132283
0.00129649
0.00129694
0.00132442
0.0012945
0.0013226
0.00129675
0.00129698
0.001295
0.00128969
0.00125995
0.00128784
0.00128757
0.00126202
0.00126195
0.00128966
0.00125999
0.00128781
0.00128772
0.00126187
0.00126158
0.00128824
0.00126192
0.00126173
0.00128984
0.00125961
0.00128837
0.00126167
0.00126182
0.00125963
0.00125525
0.00122489
0.00125334
0.00125345
0.00122688
0.00122727
0.00125535
0.00122491
0.00125316
0.00125292
0.00122693
0.00122722
0.0012528
0.00122703
0.00122666
0.00125489
0.00122497
0.00125281
0.0012269
0.00122655
0.00122452
0.00122018
0.0011902
0.00121816
0.00121836
0.00119221
0.00119197
0.00122015
0.00119003
0.00121828
0.00121865
0.00119239
0.00119236
0.00121811
0.00119213
0.00119249
0.00122033
0.00119031
0.00121801
0.00119242
0.00119249
0.00119046
0.0011855
0.00115552
0.00118358
0.00118329
0.00115766
0.00115755
0.00118534
0.0011556
0.00118371
0.00118351
0.00115751
0.00115733
0.00118389
0.00115761
0.00115772
0.00118557
0.00115534
0.00118388
0.00115741
0.0011577
0.00115557
0.00115084
0.00112098
0.001149
0.00114904
0.00112296
0.00112325
0.00115095
0.001121
0.00114882
0.00114875
0.00112299
0.0011232
0.0011489
0.0011231
0.00112281
0.00115065
0.00112116
0.00114886
0.00112311
0.00112284
0.00112084
0.00111632
0.00108638
0.00111431
0.00111443
0.00108848
0.00108826
0.00111625
0.00108629
0.00111443
0.00111464
0.00108856
0.00108837
0.00111423
0.00108834
0.00108848
0.00111654
0.00108635
0.00111433
0.00108852
0.00108863
0.00108646
0.00108166
0.00105162
0.00107985
0.0010797
0.00105375
0.00105395
0.00108164
0.00105185
0.0010798
0.00107962
0.00105358
0.00105365
0.00107981
0.00105397
0.00105382
0.00108161
0.00105157
0.00107987
0.00105365
0.00105367
0.00105166
0.00104694
0.00101745
0.00104508
0.00104524
0.00101934
0.00101915
0.00104712
0.00101711
0.00104496
0.0010451
0.0010195
0.00101948
0.00104519
0.00101912
0.00101941
0.00104691
0.00101743
0.00104505
0.00101932
0.0010194
0.00101739
0.00101282
0.000983088
0.00101081
0.00101055
0.000985198
0.000985065
0.00101246
0.000983147
0.00101101
0.00101091
0.000985111
0.000985126
0.00101084
0.000985103
0.000984982
0.00101281
0.000983176
0.00101088
0.000985244
0.000985157
0.000983089
0.000978354
0.000948152
0.000976481
0.000976611
0.000950306
0.00095056
0.000978554
0.00094833
0.000976359
0.000976486
0.000950147
0.000950301
0.000976377
0.000950496
0.000950224
0.000978484
0.000948176
0.000976462
0.000950328
0.000950192
0.00094811
0.000943418
0.000913651
0.000941552
0.000941675
0.000915612
0.000915417
0.000943513
0.000913373
0.000941472
0.000941546
0.000915736
0.000915508
0.000941471
0.000915393
0.000915543
0.0009434
0.000913478
0.000941443
0.000915425
0.000915553
0.000913546
0.000909016
0.000879699
0.000907103
0.000906839
0.000881606
0.000881524
0.000908734
0.000879708
0.000907244
0.000906965
0.000881652
0.000881633
0.000907068
0.000881614
0.000881825
0.000908854
0.000879764
0.000907075
0.000881664
0.000881806
0.000879937
0.00087506
0.000845228
0.00087307
0.000873101
0.000847299
0.000847566
0.000875121
0.00084547
0.000873061
0.000873169
0.000847201
0.000847422
0.000873366
0.000847569
0.000847339
0.00087516
0.000845322
0.000873345
0.000847481
0.000847316
0.00084522
0.000840498
0.00081029
0.000838631
0.000838836
0.000812389
0.000812313
0.000840671
0.000810169
0.000838544
0.000838666
0.000812377
0.000812288
0.00083854
0.000812193
0.00081224
0.00084053
0.000810166
0.000838533
0.000812207
0.000812259
0.00081015
0.000805541
0.000775745
0.000803646
0.000803533
0.000777676
0.000777522
0.000805411
0.000775592
0.000803674
0.000803562
0.000777752
0.000777666
0.000803557
0.000777553
0.000777647
0.000805429
0.000775725
0.00080357
0.000777641
0.000777655
0.000775736
0.000771065
0.000741364
0.000769061
0.000768951
0.00074329
0.000743388
0.000770958
0.000741514
0.000769144
0.000769097
0.00074328
0.000743381
0.000769023
0.000743436
0.000743184
0.000771086
0.000741497
0.000769044
0.000743456
0.000743205
0.000741327
0.000736685
0.000707078
0.000734721
0.000734846
0.000709104
0.000709169
0.000736843
0.000707112
0.000734682
0.000734809
0.000709012
0.000708949
0.00073466
0.000709173
0.000709177
0.000736814
0.00070691
0.000734663
0.000708956
0.000709116
0.000707153
0.000702384
0.000672236
0.000700517
0.000700512
0.000674318
0.000674332
0.000702385
0.00067219
0.000700441
0.000700291
0.000674358
0.000674242
0.00070068
0.000674296
0.000674456
0.000702191
0.000672181
0.000700598
0.000674206
0.00067449
0.000672309
0.000667447
0.000637152
0.000665508
0.000665545
0.000639133
0.000639158
0.000667405
0.000637131
0.000665578
0.00066551
0.000639208
0.000639316
0.000665598
0.000639151
0.000639074
0.000667425
0.000637303
0.000665673
0.000639312
0.000639151
0.000637094
0.000632419
0.000602833
0.000630437
0.000630443
0.000604696
0.000604584
0.000632388
0.000602728
0.000630498
0.000630649
0.000604687
0.000604773
0.00063028
0.000604526
0.000604439
0.000632568
0.000602852
0.00063033
0.000604727
0.000604412
0.000602596
0.000598168
0.00056847
0.000596156
0.000596015
0.000570432
0.000570366
0.000598062
0.000568493
0.000596134
0.000596172
0.000570379
0.00057034
0.000595987
0.000570417
0.000570655
0.000598186
0.000568444
0.000595952
0.000570421
0.000570643
0.000568749
0.000563762
0.000533906
0.000561821
0.00056185
0.000536007
0.000536338
0.000563849
0.000534231
0.000561757
0.000561744
0.000535964
0.000535978
0.000562237
0.000536422
0.000536327
0.000563766
0.000533925
0.000562229
0.000536032
0.000536245
0.00053412
0.00052919
0.00049886
0.000527364
0.000527652
0.000500968
0.000500795
0.00052944
0.000498562
0.000527352
0.000527337
0.00050105
0.000500856
0.000527418
0.000500642
0.000500338
0.000529171
0.000498644
0.000527325
0.000500669
0.000500355
0.000498181
0.000493975
0.000462879
0.000491986
0.00049172
0.000464861
0.000464536
0.000493629
0.000462617
0.000492066
0.000491885
0.000464899
0.000464809
0.000491225
0.000464467
0.000464621
0.000493753
0.000462919
0.000491237
0.000464806
0.000464725
0.000462903
0.000458019
0.00042864
0.000455909
0.000455801
0.000430433
0.000430783
0.000457921
0.000429111
0.000455942
0.000455985
0.000430385
0.000430665
0.000456194
0.000431024
0.000431335
0.000458175
0.000428992
0.000456287
0.000430938
0.000431331
0.000429564
0.000424117
0.000395259
0.000422171
0.000422523
0.00039729
0.000397401
0.000424593
0.000395156
0.000422123
0.000422374
0.000397283
0.000397416
0.000423161
0.000397318
0.000397274
0.000424452
0.000395141
0.000423128
0.000397278
0.000397219
0.00039495
0.000390516
0.00035904
0.000388711
0.000388526
0.000361296
0.000360934
0.000390252
0.000358574
0.000388709
0.000388645
0.000361309
0.000361064
0.000388132
0.000360739
0.000360484
0.00039028
0.000358735
0.000388093
0.000360891
0.000360501
0.000358223
0.00035396
0.000322139
0.000351969
0.000351607
0.000324109
0.000324166
0.000353482
0.000322401
0.000351971
0.000351761
0.000324059
0.000323909
0.000351143
0.000324246
0.00032414
0.000353685
0.000322116
0.000351156
0.000323936
0.000324046
0.000322371
0.000317307
0.000287921
0.000315174
0.000315453
0.000289701
0.000290026
0.00031765
0.000288356
0.000315093
0.000315047
0.000289674
0.000289808
0.000315571
0.000290206
0.000290295
0.00031734
0.000288145
0.000315455
0.000290002
0.000290318
0.000288536
0.000283395
0.000254581
0.000281411
0.000281765
0.000256611
0.000256534
0.00028387
0.000254293
0.000281419
0.000281573
0.000256699
0.000256919
0.000282052
0.00025646
0.000256682
0.000283636
0.000254748
0.000282061
0.000256912
0.000256861
0.000254475
0.000249841
0.000218607
0.00024802
0.000247734
0.000220844
0.000220558
0.000249482
0.000218222
0.000248136
0.000248271
0.000220866
0.00022081
0.00024777
0.000220424
0.000220398
0.000249952
0.00021846
0.000247938
0.000220655
0.000220385
0.000218145
0.000213539
0.000181544
0.00021157
0.000211251
0.000183516
0.000183565
0.000213105
0.000181746
0.000211561
0.000211458
0.00018344
0.000183317
0.00021113
0.00018357
0.000183434
0.000213375
0.000181377
0.000211123
0.000183295
0.000183321
0.000181563
0.000176652
0.000146533
0.000174495
0.000174689
0.000148389
0.000148594
0.000176892
0.000146805
0.000174394
0.0001743
0.000148336
0.000148355
0.000174598
0.000148687
0.000148652
0.000176511
0.000146583
0.00017446
0.000148435
0.000148587
0.000146781
0.000141839
0.000111933
0.000139812
0.000140019
0.000114022
0.00011402
0.000142131
0.000111828
0.000139784
0.000139817
0.00011406
0.000114075
0.000140043
0.000114034
0.000114021
0.000141892
0.000112003
0.00014
0.000114075
0.000114059
0.000111896
0.000107027
7.5676e-05
0.00010513
0.000105022
7.78089e-05
7.76788e-05
0.000106877
7.5496e-05
0.000105207
0.000105225
7.78576e-05
7.78571e-05
0.00010503
7.76225e-05
7.76577e-05
0.000107098
7.56857e-05
0.000105117
7.78247e-05
7.7726e-05
7.55288e-05
7.06286e-05
3.98149e-05
6.87015e-05
6.85923e-05
4.1736e-05
4.17489e-05
7.04609e-05
3.98676e-05
6.87344e-05
6.8732e-05
4.1716e-05
4.17575e-05
6.8566e-05
4.17541e-05
4.18377e-05
7.06388e-05
3.98402e-05
6.86188e-05
4.17872e-05
4.18451e-05
3.99166e-05
3.5007e-05
8.56802e-06
3.31828e-05
3.32247e-05
1.16212e-05
1.16031e-05
3.50663e-05
8.54742e-06
3.31576e-05
3.3215e-05
1.16171e-05
1.16387e-05
3.33307e-05
1.16219e-05
1.17211e-05
3.50337e-05
8.57509e-06
3.33187e-05
1.16643e-05
1.17221e-05
8.6257e-06
5.37247e-06
7.28213e-06
7.25114e-06
5.34324e-06
7.21654e-06
7.25568e-06
6.17847e-06
6.11354e-06
6.12798e-06
7.31239e-06
5.33875e-06
7.21332e-06
0.00353054
0.00353312
0.0035318
0.003532
0.00355894
0.0035329
0.0035625
0.00353334
0.00355956
0.00353308
0.00353331
0.00356267
0.00354416
0.00356622
0.0035659
0.00350328
0.00351671
0.00352061
0.00349556
0.00349363
0.00349892
0.00350312
0.00351671
0.00352058
0.00349536
0.00351909
0.0035191
0.00351911
0.00349272
0.00349278
0.00349272
0.00349273
0.00350279
0.00351441
0.00351962
0.00351041
0.00352173
0.00349988
0.00351066
0.00349372
0.0034988
0.00350289
0.00351968
0.0035145
0.00351042
0.00352181
0.00351071
0.00349997
0.00352069
0.00351994
0.00350771
0.00349986
0.00349965
0.00347573
0.0034899
0.00348971
0.00347375
0.00348711
0.00347274
0.00347557
0.00348979
0.0034897
0.00347369
0.00348369
0.00348364
0.00348363
0.00345529
0.00345535
0.00345528
0.00345528
0.00347341
0.00348847
0.00348211
0.00347276
0.00348687
0.00347392
0.00347277
0.00348708
0.00347265
0.00347346
0.00348209
0.00348834
0.00347281
0.00348682
0.0034727
0.00347389
0.00349017
0.00349014
0.00347118
0.00347425
0.0034743
0.00343323
0.00344798
0.00344885
0.00343185
0.00344678
0.00343099
0.00343315
0.00344791
0.00344879
0.0034319
0.00344528
0.00344521
0.0034452
0.0034127
0.00341274
0.00341269
0.0034127
0.00343192
0.00344751
0.00344333
0.00343288
0.00344644
0.00343237
0.0034329
0.00344669
0.00343106
0.00343194
0.0034433
0.0034474
0.0034329
0.00344642
0.00343285
0.00343236
0.00344814
0.00344816
0.00343021
0.00343219
0.0034322
0.00338698
0.00340327
0.00340475
0.0033855
0.00340263
0.00338495
0.00338686
0.0034033
0.00340474
0.00338545
0.00340121
0.00340117
0.00340117
0.00336528
0.00336533
0.00336529
0.00336529
0.00338606
0.00340317
0.00339948
0.00338777
0.00340257
0.00338617
0.00338777
0.00340267
0.00338493
0.0033861
0.00339948
0.00340312
0.00338776
0.00340255
0.00338778
0.00338621
0.0034034
0.00340341
0.00338448
0.0033856
0.00338561
0.00333809
0.00335513
0.00335642
0.00333682
0.00335471
0.00333653
0.00333798
0.00335508
0.00335644
0.00333682
0.00335314
0.00335311
0.00335311
0.00331644
0.00331647
0.00331644
0.00331644
0.00333761
0.00335511
0.00335169
0.0033395
0.00335478
0.00333756
0.00333952
0.00335471
0.00333646
0.00333761
0.00335169
0.00335517
0.00333946
0.00335479
0.00333948
0.0033375
0.00335515
0.00335515
0.00333611
0.00333695
0.00333694
0.00328898
0.00330624
0.00330724
0.00328807
0.00330596
0.00328785
0.00328889
0.00330624
0.00330725
0.00328805
0.00330429
0.00330425
0.00330426
0.003268
0.00326801
0.003268
0.003268
0.00328885
0.00330626
0.00330302
0.00329083
0.00330604
0.00328872
0.00329089
0.00330595