/*--------------------------------*- C++ -*----------------------------------*\
| =========                 |                                                 |
| \\      /  F ield         | OpenFOAM: The Open Source CFD Toolbox           |
|  \\    /   O peration     | Version:  v2012                                 |
|   \\  /    A nd           | Website:  www.openfoam.com                      |
|    \\/     M anipulation  |                                                 |
\*---------------------------------------------------------------------------*/
FoamFile
{
    version     2.0;
    format      ascii;
    class       volScalarField;
    location    "0.175";
    object      p;
}
// * * * * * * * * * * * * * * * * * * * * * * * * * * * * * * * * * * * * * //

dimensions      [0 2 -2 0 0 0 0];


internalField   nonuniform List<scalar> 
247104
(
1.9178e-06
1.91816e-06
1.9182e-06
1.91805e-06
1.91785e-06
1.91808e-06
1.9182e-06
1.91809e-06
1.91816e-06
1.91822e-06
1.91826e-06
1.91805e-06
1.91792e-06
1.91808e-06
1.91827e-06
1.91819e-06
1.9182e-06
1.91826e-06
1.91796e-06
1.91757e-06
1.91741e-06
1.91761e-06
1.91801e-06
1.91827e-06
1.91819e-06
1.91805e-06
1.91806e-06
1.91757e-06
1.91708e-06
1.9169e-06
1.91713e-06
1.91764e-06
1.91809e-06
1.91801e-06
1.9178e-06
1.91785e-06
1.91792e-06
1.91741e-06
1.9169e-06
1.91672e-06
1.91695e-06
1.91748e-06
1.91795e-06
1.9178e-06
1.91808e-06
1.91808e-06
1.91761e-06
1.91713e-06
1.91695e-06
1.91718e-06
1.91768e-06
1.91812e-06
1.91805e-06
1.9182e-06
1.91827e-06
1.91801e-06
1.91764e-06
1.91748e-06
1.91768e-06
1.91805e-06
1.91828e-06
1.91818e-06
1.91808e-06
1.91819e-06
1.91827e-06
1.91809e-06
1.91795e-06
1.91811e-06
1.91828e-06
1.91815e-06
1.91819e-06
1.91801e-06
1.9178e-06
1.91805e-06
1.91818e-06
1.88393e-06
1.88184e-06
1.88185e-06
1.88071e-06
1.88048e-06
1.88043e-06
1.88042e-06
1.88198e-06
1.88234e-06
1.88185e-06
1.87977e-06
1.87672e-06
1.8766e-06
1.8766e-06
1.87672e-06
1.88018e-06
1.88038e-06
1.88071e-06
1.87672e-06
1.87664e-06
1.87668e-06
1.87668e-06
1.87664e-06
1.87672e-06
1.88064e-06
1.88152e-06
1.88393e-06
1.88048e-06
1.8766e-06
1.87668e-06
1.87679e-06
1.87679e-06
1.87668e-06
1.8766e-06
1.88047e-06
1.88217e-06
1.88184e-06
1.88043e-06
1.8766e-06
1.87668e-06
1.87679e-06
1.87679e-06
1.87668e-06
1.8766e-06
1.8806e-06
1.88029e-06
1.88042e-06
1.87672e-06
1.87664e-06
1.87668e-06
1.87667e-06
1.87664e-06
1.87672e-06
1.88048e-06
1.88129e-06
1.88198e-06
1.88018e-06
1.87672e-06
1.8766e-06
1.87659e-06
1.87672e-06
1.88026e-06
1.88061e-06
1.88202e-06
1.88234e-06
1.88038e-06
1.88065e-06
1.88047e-06
1.8806e-06
1.88048e-06
1.88061e-06
1.88299e-06
1.88152e-06
1.88217e-06
1.88029e-06
1.88128e-06
1.88202e-06
1.86385e-06
1.86364e-06
1.8635e-06
1.86128e-06
1.86123e-06
1.86124e-06
1.86127e-06
1.86361e-06
1.86376e-06
1.8635e-06
1.8606e-06
1.85753e-06
1.85735e-06
1.85735e-06
1.85753e-06
1.86139e-06
1.86174e-06
1.86129e-06
1.85753e-06
1.85709e-06
1.85708e-06
1.85708e-06
1.85708e-06
1.85753e-06
1.86219e-06
1.86416e-06
1.86385e-06
1.86124e-06
1.85735e-06
1.85708e-06
1.85709e-06
1.85709e-06
1.85708e-06
1.85735e-06
1.86219e-06
1.86379e-06
1.86365e-06
1.86124e-06
1.85735e-06
1.85708e-06
1.85709e-06
1.85709e-06
1.85708e-06
1.85735e-06
1.86211e-06
1.86172e-06
1.86127e-06
1.85753e-06
1.85708e-06
1.85708e-06
1.85708e-06
1.85708e-06
1.85753e-06
1.86224e-06
1.86417e-06
1.86361e-06
1.86139e-06
1.85753e-06
1.85735e-06
1.85735e-06
1.85752e-06
1.86188e-06
1.86201e-06
1.86408e-06
1.86376e-06
1.86175e-06
1.86219e-06
1.86219e-06
1.86211e-06
1.86224e-06
1.86201e-06
1.86417e-06
1.86416e-06
1.86379e-06
1.86172e-06
1.86417e-06
1.86409e-06
1.8442e-06
1.84402e-06
1.84393e-06
1.8416e-06
1.84157e-06
1.84147e-06
1.84166e-06
1.84402e-06
1.84419e-06
1.84392e-06
1.8407e-06
1.83778e-06
1.83771e-06
1.83771e-06
1.83778e-06
1.84163e-06
1.84226e-06
1.84161e-06
1.83778e-06
1.8376e-06
1.83759e-06
1.83759e-06
1.8376e-06
1.83778e-06
1.84262e-06
1.84454e-06
1.84419e-06
1.84158e-06
1.83771e-06
1.83759e-06
1.83759e-06
1.83759e-06
1.83759e-06
1.83772e-06
1.84272e-06
1.84411e-06
1.84402e-06
1.84147e-06
1.83771e-06
1.83759e-06
1.83759e-06
1.83759e-06
1.83759e-06
1.83772e-06
1.84267e-06
1.84221e-06
1.84166e-06
1.83778e-06
1.8376e-06
1.83759e-06
1.83759e-06
1.8376e-06
1.83778e-06
1.84271e-06
1.8445e-06
1.84402e-06
1.84163e-06
1.83778e-06
1.83771e-06
1.83771e-06
1.83778e-06
1.84251e-06
1.84249e-06
1.84451e-06
1.84419e-06
1.84226e-06
1.84262e-06
1.84272e-06
1.84267e-06
1.84271e-06
1.84249e-06
1.84447e-06
1.84454e-06
1.84411e-06
1.84221e-06
1.8445e-06
1.84451e-06
1.82453e-06
1.82436e-06
1.82417e-06
1.82185e-06
1.82181e-06
1.82164e-06
1.82191e-06
1.82429e-06
1.82447e-06
1.82418e-06
1.82087e-06
1.81799e-06
1.81797e-06
1.81797e-06
1.81799e-06
1.82179e-06
1.82257e-06
1.82185e-06
1.81799e-06
1.81794e-06
1.81793e-06
1.81793e-06
1.81793e-06
1.81799e-06
1.82294e-06
1.82486e-06
1.82453e-06
1.82181e-06
1.81797e-06
1.81793e-06
1.81793e-06
1.81793e-06
1.81793e-06
1.81797e-06
1.82313e-06
1.8245e-06
1.82436e-06
1.82164e-06
1.81797e-06
1.81793e-06
1.81793e-06
1.81793e-06
1.81793e-06
1.81797e-06
1.8231e-06
1.82261e-06
1.82191e-06
1.81799e-06
1.81794e-06
1.81793e-06
1.81793e-06
1.81793e-06
1.81798e-06
1.82307e-06
1.82487e-06
1.82429e-06
1.8218e-06
1.81799e-06
1.81797e-06
1.81797e-06
1.81798e-06
1.82293e-06
1.82282e-06
1.82481e-06
1.82447e-06
1.82255e-06
1.82294e-06
1.82313e-06
1.8231e-06
1.82306e-06
1.82282e-06
1.82479e-06
1.82486e-06
1.8245e-06
1.82261e-06
1.82487e-06
1.82482e-06
1.80481e-06
1.80465e-06
1.80445e-06
1.8021e-06
1.80206e-06
1.80187e-06
1.80216e-06
1.80455e-06
1.80473e-06
1.80445e-06
1.80111e-06
1.79823e-06
1.79822e-06
1.79822e-06
1.79823e-06
1.80201e-06
1.80281e-06
1.8021e-06
1.79823e-06
1.79821e-06
1.79821e-06
1.79821e-06
1.79821e-06
1.79823e-06
1.80321e-06
1.80513e-06
1.80481e-06
1.80206e-06
1.79822e-06
1.79821e-06
1.79821e-06
1.79821e-06
1.79821e-06
1.79822e-06
1.80343e-06
1.8048e-06
1.80465e-06
1.80188e-06
1.79822e-06
1.79821e-06
1.79821e-06
1.79821e-06
1.79821e-06
1.79822e-06
1.80341e-06
1.80291e-06
1.80216e-06
1.79823e-06
1.79821e-06
1.79821e-06
1.79821e-06
1.79821e-06
1.79823e-06
1.80335e-06
1.80516e-06
1.80455e-06
1.80201e-06
1.79823e-06
1.79822e-06
1.79822e-06
1.79823e-06
1.80325e-06
1.80311e-06
1.80508e-06
1.80473e-06
1.80281e-06
1.80321e-06
1.80343e-06
1.80341e-06
1.80335e-06
1.8031e-06
1.80502e-06
1.80513e-06
1.8048e-06
1.80291e-06
1.80516e-06
1.80508e-06
1.78507e-06
1.78491e-06
1.78471e-06
1.78236e-06
1.78232e-06
1.78212e-06
1.78241e-06
1.78481e-06
1.78499e-06
1.78471e-06
1.78136e-06
1.77848e-06
1.77848e-06
1.77848e-06
1.77848e-06
1.78225e-06
1.78307e-06
1.78236e-06
1.77848e-06
1.77847e-06
1.77847e-06
1.77847e-06
1.77847e-06
1.77848e-06
1.78347e-06
1.78539e-06
1.78507e-06
1.78232e-06
1.77848e-06
1.77847e-06
1.77847e-06
1.77847e-06
1.77847e-06
1.77848e-06
1.78369e-06
1.78506e-06
1.78491e-06
1.78213e-06
1.77848e-06
1.77847e-06
1.77847e-06
1.77847e-06
1.77847e-06
1.77848e-06
1.78368e-06
1.78318e-06
1.78241e-06
1.77848e-06
1.77847e-06
1.77847e-06
1.77847e-06
1.77847e-06
1.77848e-06
1.78361e-06
1.78543e-06
1.78481e-06
1.78225e-06
1.77848e-06
1.77848e-06
1.77848e-06
1.77848e-06
1.78352e-06
1.78337e-06
1.78534e-06
1.785e-06
1.78307e-06
1.78347e-06
1.78369e-06
1.78368e-06
1.78361e-06
1.78336e-06
1.7853e-06
1.78539e-06
1.78506e-06
1.78318e-06
1.78543e-06
1.78534e-06
1.76533e-06
1.76517e-06
1.76497e-06
1.76261e-06
1.76257e-06
1.76238e-06
1.76267e-06
1.76507e-06
1.76525e-06
1.76497e-06
1.76161e-06
1.75873e-06
1.75873e-06
1.75873e-06
1.75873e-06
1.7625e-06
1.76333e-06
1.76261e-06
1.75873e-06
1.75873e-06
1.75873e-06
1.75873e-06
1.75873e-06
1.75873e-06
1.76372e-06
1.76565e-06
1.76533e-06
1.76257e-06
1.75873e-06
1.75873e-06
1.75873e-06
1.75873e-06
1.75873e-06
1.75873e-06
1.76395e-06
1.76532e-06
1.76517e-06
1.76238e-06
1.75873e-06
1.75873e-06
1.75873e-06
1.75873e-06
1.75873e-06
1.75873e-06
1.76394e-06
1.76344e-06
1.76267e-06
1.75873e-06
1.75873e-06
1.75873e-06
1.75873e-06
1.75873e-06
1.75873e-06
1.76387e-06
1.76569e-06
1.76506e-06
1.7625e-06
1.75873e-06
1.75873e-06
1.75873e-06
1.75873e-06
1.76377e-06
1.76363e-06
1.7656e-06
1.76525e-06
1.76333e-06
1.76372e-06
1.76395e-06
1.76394e-06
1.76387e-06
1.76362e-06
1.76555e-06
1.76565e-06
1.76532e-06
1.76344e-06
1.76569e-06
1.7656e-06
1.74558e-06
1.74543e-06
1.74523e-06
1.74287e-06
1.74283e-06
1.74263e-06
1.74292e-06
1.74532e-06
1.7455e-06
1.74523e-06
1.74186e-06
1.73899e-06
1.73899e-06
1.73899e-06
1.73899e-06
1.74276e-06
1.74359e-06
1.74287e-06
1.73899e-06
1.73899e-06
1.73899e-06
1.73899e-06
1.73899e-06
1.73899e-06
1.74398e-06
1.7459e-06
1.74559e-06
1.74283e-06
1.73899e-06
1.73899e-06
1.73899e-06
1.73899e-06
1.73899e-06
1.73899e-06
1.74421e-06
1.74558e-06
1.74542e-06
1.74264e-06
1.73899e-06
1.73899e-06
1.73899e-06
1.73899e-06
1.73899e-06
1.73899e-06
1.7442e-06
1.74369e-06
1.74292e-06
1.73899e-06
1.73899e-06
1.73899e-06
1.73899e-06
1.73899e-06
1.73899e-06
1.74412e-06
1.74594e-06
1.74532e-06
1.74276e-06
1.73899e-06
1.73899e-06
1.73899e-06
1.73899e-06
1.74404e-06
1.74389e-06
1.74585e-06
1.74551e-06
1.74358e-06
1.74398e-06
1.74421e-06
1.7442e-06
1.74412e-06
1.74388e-06
1.74581e-06
1.74591e-06
1.74558e-06
1.74369e-06
1.74594e-06
1.74586e-06
1.72584e-06
1.72568e-06
1.72548e-06
1.72312e-06
1.72308e-06
1.72289e-06
1.72318e-06
1.72558e-06
1.72576e-06
1.72548e-06
1.72212e-06
1.71924e-06
1.71924e-06
1.71924e-06
1.71924e-06
1.72301e-06
1.72384e-06
1.72312e-06
1.71924e-06
1.71924e-06
1.71924e-06
1.71924e-06
1.71924e-06
1.71924e-06
1.72424e-06
1.72616e-06
1.72584e-06
1.72308e-06
1.71924e-06
1.71924e-06
1.71924e-06
1.71924e-06
1.71924e-06
1.71924e-06
1.72446e-06
1.72584e-06
1.72568e-06
1.72289e-06
1.71924e-06
1.71924e-06
1.71924e-06
1.71924e-06
1.71924e-06
1.71924e-06
1.72445e-06
1.72395e-06
1.72318e-06
1.71924e-06
1.71924e-06
1.71924e-06
1.71924e-06
1.71924e-06
1.71924e-06
1.72438e-06
1.7262e-06
1.72558e-06
1.72301e-06
1.71924e-06
1.71924e-06
1.71924e-06
1.71924e-06
1.7243e-06
1.72414e-06
1.72611e-06
1.72577e-06
1.72384e-06
1.72424e-06
1.72446e-06
1.72445e-06
1.72438e-06
1.72414e-06
1.72606e-06
1.72616e-06
1.72584e-06
1.72395e-06
1.7262e-06
1.72611e-06
1.70609e-06
1.70594e-06
1.70574e-06
1.70338e-06
1.70334e-06
1.70315e-06
1.70343e-06
1.70584e-06
1.70601e-06
1.70574e-06
1.70237e-06
1.6995e-06
1.6995e-06
1.6995e-06
1.6995e-06
1.70327e-06
1.7041e-06
1.70338e-06
1.6995e-06
1.6995e-06
1.6995e-06
1.6995e-06
1.6995e-06
1.6995e-06
1.70449e-06
1.70642e-06
1.7061e-06
1.70334e-06
1.6995e-06
1.6995e-06
1.6995e-06
1.6995e-06
1.6995e-06
1.6995e-06
1.70472e-06
1.70609e-06
1.70593e-06
1.70315e-06
1.6995e-06
1.6995e-06
1.6995e-06
1.6995e-06
1.6995e-06
1.6995e-06
1.70471e-06
1.70421e-06
1.70343e-06
1.6995e-06
1.6995e-06
1.6995e-06
1.6995e-06
1.6995e-06
1.6995e-06
1.70463e-06
1.70646e-06
1.70583e-06
1.70327e-06
1.6995e-06
1.6995e-06
1.6995e-06
1.6995e-06
1.70455e-06
1.7044e-06
1.70637e-06
1.70602e-06
1.70409e-06
1.70449e-06
1.70472e-06
1.70471e-06
1.70463e-06
1.70439e-06
1.70632e-06
1.70642e-06
1.70609e-06
1.70421e-06
1.70646e-06
1.70637e-06
1.68635e-06
1.68619e-06
1.68599e-06
1.68364e-06
1.6836e-06
1.6834e-06
1.68369e-06
1.68609e-06
1.68627e-06
1.68599e-06
1.68263e-06
1.67975e-06
1.67975e-06
1.67975e-06
1.67975e-06
1.68353e-06
1.68435e-06
1.68363e-06
1.67975e-06
1.67975e-06
1.67975e-06
1.67975e-06
1.67975e-06
1.67976e-06
1.68475e-06
1.68667e-06
1.68636e-06
1.68359e-06
1.67975e-06
1.67975e-06
1.67975e-06
1.67975e-06
1.67975e-06
1.67975e-06
1.68498e-06
1.68635e-06
1.68619e-06
1.6834e-06
1.67975e-06
1.67975e-06
1.67975e-06
1.67975e-06
1.67975e-06
1.67975e-06
1.68496e-06
1.68446e-06
1.68369e-06
1.67975e-06
1.67975e-06
1.67975e-06
1.67975e-06
1.67975e-06
1.67975e-06
1.68489e-06
1.68671e-06
1.68609e-06
1.68353e-06
1.67975e-06
1.67975e-06
1.67975e-06
1.67975e-06
1.68481e-06
1.68465e-06
1.68662e-06
1.68628e-06
1.68435e-06
1.68475e-06
1.68497e-06
1.68496e-06
1.68489e-06
1.68465e-06
1.68658e-06
1.68667e-06
1.68635e-06
1.68446e-06
1.68671e-06
1.68663e-06
1.66661e-06
1.66645e-06
1.66625e-06
1.66389e-06
1.66385e-06
1.66366e-06
1.66395e-06
1.66635e-06
1.66653e-06
1.66625e-06
1.66289e-06
1.66001e-06
1.66001e-06
1.66001e-06
1.66001e-06
1.66378e-06
1.66461e-06
1.66389e-06
1.66001e-06
1.66001e-06
1.66001e-06
1.66001e-06
1.66001e-06
1.66001e-06
1.665e-06
1.66693e-06
1.66661e-06
1.66385e-06
1.66001e-06
1.66001e-06
1.66001e-06
1.66001e-06
1.66001e-06
1.66001e-06
1.66523e-06
1.6666e-06
1.66645e-06
1.66366e-06
1.66001e-06
1.66001e-06
1.66001e-06
1.66001e-06
1.66001e-06
1.66001e-06
1.66522e-06
1.66472e-06
1.66395e-06
1.66001e-06
1.66001e-06
1.66001e-06
1.66001e-06
1.66001e-06
1.66001e-06
1.66514e-06
1.66697e-06
1.66634e-06
1.66378e-06
1.66001e-06
1.66001e-06
1.66001e-06
1.66001e-06
1.66506e-06
1.66491e-06
1.66688e-06
1.66653e-06
1.66461e-06
1.665e-06
1.66523e-06
1.66522e-06
1.66514e-06
1.6649e-06
1.66683e-06
1.66693e-06
1.6666e-06
1.66472e-06
1.66697e-06
1.66688e-06
1.64686e-06
1.64671e-06
1.6465e-06
1.64415e-06
1.64411e-06
1.64391e-06
1.6442e-06
1.6466e-06
1.64678e-06
1.6465e-06
1.64315e-06
1.64027e-06
1.64027e-06
1.64027e-06
1.64027e-06
1.64404e-06
1.64487e-06
1.64415e-06
1.64027e-06
1.64027e-06
1.64027e-06
1.64027e-06
1.64027e-06
1.64027e-06
1.64526e-06
1.64718e-06
1.64687e-06
1.64411e-06
1.64027e-06
1.64027e-06
1.64027e-06
1.64027e-06
1.64027e-06
1.64027e-06
1.64549e-06
1.64686e-06
1.6467e-06
1.64392e-06
1.64027e-06
1.64027e-06
1.64027e-06
1.64027e-06
1.64027e-06
1.64027e-06
1.64548e-06
1.64497e-06
1.6442e-06
1.64027e-06
1.64027e-06
1.64027e-06
1.64027e-06
1.64027e-06
1.64027e-06
1.6454e-06
1.64722e-06
1.6466e-06
1.64404e-06
1.64027e-06
1.64027e-06
1.64027e-06
1.64027e-06
1.64532e-06
1.64517e-06
1.64713e-06
1.64679e-06
1.64486e-06
1.64526e-06
1.64549e-06
1.64548e-06
1.6454e-06
1.64516e-06
1.64709e-06
1.64719e-06
1.64686e-06
1.64497e-06
1.64722e-06
1.64714e-06
1.62712e-06
1.62696e-06
1.62675e-06
1.6244e-06
1.62436e-06
1.62417e-06
1.62446e-06
1.62686e-06
1.62704e-06
1.62676e-06
1.6234e-06
1.62052e-06
1.62052e-06
1.62052e-06
1.62052e-06
1.6243e-06
1.62512e-06
1.6244e-06
1.62052e-06
1.62052e-06
1.62052e-06
1.62052e-06
1.62052e-06
1.62052e-06
1.62552e-06
1.62744e-06
1.62712e-06
1.62436e-06
1.62052e-06
1.62052e-06
1.62052e-06
1.62052e-06
1.62052e-06
1.62052e-06
1.62574e-06
1.62712e-06
1.62696e-06
1.62417e-06
1.62052e-06
1.62052e-06
1.62052e-06
1.62052e-06
1.62052e-06
1.62052e-06
1.62573e-06
1.62523e-06
1.62446e-06
1.62052e-06
1.62052e-06
1.62052e-06
1.62052e-06
1.62052e-06
1.62052e-06
1.62566e-06
1.62748e-06
1.62686e-06
1.62429e-06
1.62052e-06
1.62052e-06
1.62052e-06
1.62052e-06
1.62557e-06
1.62542e-06
1.62739e-06
1.62705e-06
1.62512e-06
1.62552e-06
1.62574e-06
1.62573e-06
1.62566e-06
1.62542e-06
1.62734e-06
1.62744e-06
1.62712e-06
1.62523e-06
1.62748e-06
1.62739e-06
1.60737e-06
1.60722e-06
1.60701e-06
1.60466e-06
1.60462e-06
1.60442e-06
1.60471e-06
1.60711e-06
1.60729e-06
1.60701e-06
1.60366e-06
1.60078e-06
1.60078e-06
1.60078e-06
1.60078e-06
1.60455e-06
1.60538e-06
1.60466e-06
1.60078e-06
1.60078e-06
1.60078e-06
1.60078e-06
1.60078e-06
1.60078e-06
1.60577e-06
1.60769e-06
1.60738e-06
1.60462e-06
1.60078e-06
1.60078e-06
1.60078e-06
1.60078e-06
1.60078e-06
1.60078e-06
1.606e-06
1.60737e-06
1.60721e-06
1.60443e-06
1.60078e-06
1.60078e-06
1.60078e-06
1.60078e-06
1.60078e-06
1.60078e-06
1.60599e-06
1.60548e-06
1.60471e-06
1.60078e-06
1.60078e-06
1.60078e-06
1.60078e-06
1.60078e-06
1.60078e-06
1.60591e-06
1.60773e-06
1.60711e-06
1.60455e-06
1.60078e-06
1.60078e-06
1.60078e-06
1.60078e-06
1.60583e-06
1.60568e-06
1.60764e-06
1.6073e-06
1.60537e-06
1.60577e-06
1.606e-06
1.60599e-06
1.60591e-06
1.60567e-06
1.6076e-06
1.6077e-06
1.60737e-06
1.60548e-06
1.60773e-06
1.60765e-06
1.58763e-06
1.58747e-06
1.58726e-06
1.58491e-06
1.58487e-06
1.58468e-06
1.58497e-06
1.58736e-06
1.58754e-06
1.58727e-06
1.58391e-06
1.58103e-06
1.58103e-06
1.58103e-06
1.58103e-06
1.5848e-06
1.58563e-06
1.58491e-06
1.58103e-06
1.58103e-06
1.58103e-06
1.58103e-06
1.58103e-06
1.58103e-06
1.58602e-06
1.58795e-06
1.58763e-06
1.58487e-06
1.58103e-06
1.58103e-06
1.58103e-06
1.58103e-06
1.58103e-06
1.58103e-06
1.58625e-06
1.58762e-06
1.58747e-06
1.58468e-06
1.58103e-06
1.58103e-06
1.58103e-06
1.58103e-06
1.58103e-06
1.58103e-06
1.58624e-06
1.58574e-06
1.58496e-06
1.58103e-06
1.58103e-06
1.58103e-06
1.58103e-06
1.58103e-06
1.58103e-06
1.58617e-06
1.58799e-06
1.58736e-06
1.5848e-06
1.58103e-06
1.58103e-06
1.58103e-06
1.58103e-06
1.58608e-06
1.58593e-06
1.5879e-06
1.58755e-06
1.58562e-06
1.58602e-06
1.58625e-06
1.58624e-06
1.58616e-06
1.58592e-06
1.58785e-06
1.58795e-06
1.58762e-06
1.58574e-06
1.58799e-06
1.5879e-06
1.56788e-06
1.56772e-06
1.56752e-06
1.56517e-06
1.56513e-06
1.56493e-06
1.56522e-06
1.56762e-06
1.5678e-06
1.56752e-06
1.56416e-06
1.56128e-06
1.56128e-06
1.56128e-06
1.56129e-06
1.56506e-06
1.56588e-06
1.56516e-06
1.56128e-06
1.56128e-06
1.56128e-06
1.56128e-06
1.56128e-06
1.56128e-06
1.56628e-06
1.5682e-06
1.56789e-06
1.56512e-06
1.56128e-06
1.56128e-06
1.56128e-06
1.56128e-06
1.56128e-06
1.56128e-06
1.56651e-06
1.56788e-06
1.56772e-06
1.56493e-06
1.56128e-06
1.56128e-06
1.56128e-06
1.56128e-06
1.56128e-06
1.56128e-06
1.56649e-06
1.56599e-06
1.56522e-06
1.56128e-06
1.56128e-06
1.56128e-06
1.56128e-06
1.56128e-06
1.56128e-06
1.56642e-06
1.56824e-06
1.56762e-06
1.56506e-06
1.56128e-06
1.56128e-06
1.56128e-06
1.56128e-06
1.56634e-06
1.56618e-06
1.56815e-06
1.56781e-06
1.56588e-06
1.56628e-06
1.5665e-06
1.56649e-06
1.56642e-06
1.56618e-06
1.56811e-06
1.5682e-06
1.56788e-06
1.56599e-06
1.56824e-06
1.56816e-06
1.54814e-06
1.54798e-06
1.54777e-06
1.54542e-06
1.54538e-06
1.54519e-06
1.54548e-06
1.54787e-06
1.54805e-06
1.54778e-06
1.54442e-06
1.54154e-06
1.54154e-06
1.54154e-06
1.54154e-06
1.54531e-06
1.54614e-06
1.54542e-06
1.54154e-06
1.54154e-06
1.54154e-06
1.54154e-06
1.54154e-06
1.54154e-06
1.54653e-06
1.54846e-06
1.54814e-06
1.54538e-06
1.54154e-06
1.54154e-06
1.54154e-06
1.54154e-06
1.54154e-06
1.54154e-06
1.54676e-06
1.54813e-06
1.54798e-06
1.54519e-06
1.54154e-06
1.54154e-06
1.54154e-06
1.54154e-06
1.54154e-06
1.54154e-06
1.54675e-06
1.54625e-06
1.54547e-06
1.54154e-06
1.54154e-06
1.54154e-06
1.54154e-06
1.54154e-06
1.54154e-06
1.54667e-06
1.5485e-06
1.54787e-06
1.54531e-06
1.54154e-06
1.54154e-06
1.54154e-06
1.54154e-06
1.54659e-06
1.54644e-06
1.54841e-06
1.54806e-06
1.54613e-06
1.54653e-06
1.54676e-06
1.54675e-06
1.54667e-06
1.54643e-06
1.54836e-06
1.54846e-06
1.54813e-06
1.54625e-06
1.5485e-06
1.54841e-06
1.52839e-06
1.52823e-06
1.52803e-06
1.52568e-06
1.52564e-06
1.52544e-06
1.52573e-06
1.52813e-06
1.52831e-06
1.52803e-06
1.52468e-06
1.52179e-06
1.52179e-06
1.52179e-06
1.5218e-06
1.52557e-06
1.52639e-06
1.52568e-06
1.5218e-06
1.52179e-06
1.52179e-06
1.52179e-06
1.52179e-06
1.52179e-06
1.52679e-06
1.52871e-06
1.5284e-06
1.52563e-06
1.52179e-06
1.52179e-06
1.52179e-06
1.52179e-06
1.52179e-06
1.52179e-06
1.52702e-06
1.52839e-06
1.52823e-06
1.52544e-06
1.52179e-06
1.52179e-06
1.52179e-06
1.52179e-06
1.52179e-06
1.52179e-06
1.527e-06
1.5265e-06
1.52573e-06
1.52179e-06
1.52179e-06
1.52179e-06
1.52179e-06
1.52179e-06
1.52179e-06
1.52693e-06
1.52875e-06
1.52813e-06
1.52557e-06
1.52179e-06
1.52179e-06
1.52179e-06
1.52179e-06
1.52685e-06
1.52669e-06
1.52866e-06
1.52832e-06
1.52639e-06
1.52679e-06
1.52701e-06
1.527e-06
1.52693e-06
1.52669e-06
1.52862e-06
1.52871e-06
1.52839e-06
1.5265e-06
1.52875e-06
1.52867e-06
1.50865e-06
1.50849e-06
1.50828e-06
1.50593e-06
1.50589e-06
1.5057e-06
1.50599e-06
1.50838e-06
1.50856e-06
1.50829e-06
1.50493e-06
1.50205e-06
1.50205e-06
1.50205e-06
1.50205e-06
1.50583e-06
1.50665e-06
1.50593e-06
1.50205e-06
1.50205e-06
1.50205e-06
1.50205e-06
1.50205e-06
1.50205e-06
1.50704e-06
1.50897e-06
1.50865e-06
1.50589e-06
1.50205e-06
1.50205e-06
1.50205e-06
1.50205e-06
1.50205e-06
1.50205e-06
1.50727e-06
1.50864e-06
1.50849e-06
1.5057e-06
1.50205e-06
1.50205e-06
1.50205e-06
1.50205e-06
1.50205e-06
1.50205e-06
1.50726e-06
1.50676e-06
1.50598e-06
1.50205e-06
1.50205e-06
1.50205e-06
1.50205e-06
1.50205e-06
1.50205e-06
1.50718e-06
1.50901e-06
1.50838e-06
1.50582e-06
1.50205e-06
1.50205e-06
1.50205e-06
1.50205e-06
1.5071e-06
1.50695e-06
1.50892e-06
1.50857e-06
1.50664e-06
1.50704e-06
1.50727e-06
1.50726e-06
1.50718e-06
1.50694e-06
1.50887e-06
1.50897e-06
1.50864e-06
1.50676e-06
1.50901e-06
1.50892e-06
1.4889e-06
1.48874e-06
1.48854e-06
1.48619e-06
1.48615e-06
1.48595e-06
1.48624e-06
1.48864e-06
1.48882e-06
1.48854e-06
1.48518e-06
1.4823e-06
1.4823e-06
1.4823e-06
1.4823e-06
1.48608e-06
1.4869e-06
1.48618e-06
1.4823e-06
1.4823e-06
1.4823e-06
1.4823e-06
1.4823e-06
1.4823e-06
1.4873e-06
1.48922e-06
1.48891e-06
1.48614e-06
1.4823e-06
1.4823e-06
1.4823e-06
1.4823e-06
1.4823e-06
1.4823e-06
1.48753e-06
1.4889e-06
1.48874e-06
1.48595e-06
1.4823e-06
1.4823e-06
1.4823e-06
1.4823e-06
1.4823e-06
1.4823e-06
1.48751e-06
1.48701e-06
1.48624e-06
1.4823e-06
1.4823e-06
1.4823e-06
1.4823e-06
1.4823e-06
1.4823e-06
1.48744e-06
1.48926e-06
1.48864e-06
1.48607e-06
1.4823e-06
1.4823e-06
1.4823e-06
1.4823e-06
1.48736e-06
1.4872e-06
1.48917e-06
1.48883e-06
1.4869e-06
1.4873e-06
1.48752e-06
1.48751e-06
1.48744e-06
1.4872e-06
1.48913e-06
1.48922e-06
1.4889e-06
1.48701e-06
1.48926e-06
1.48918e-06
1.46916e-06
1.469e-06
1.46879e-06
1.46644e-06
1.4664e-06
1.46621e-06
1.4665e-06
1.46889e-06
1.46907e-06
1.4688e-06
1.46544e-06
1.46256e-06
1.46256e-06
1.46256e-06
1.46256e-06
1.46634e-06
1.46716e-06
1.46644e-06
1.46256e-06
1.46256e-06
1.46256e-06
1.46256e-06
1.46256e-06
1.46256e-06
1.46755e-06
1.46948e-06
1.46916e-06
1.4664e-06
1.46256e-06
1.46256e-06
1.46256e-06
1.46256e-06
1.46256e-06
1.46256e-06
1.46778e-06
1.46915e-06
1.469e-06
1.46621e-06
1.46256e-06
1.46256e-06
1.46256e-06
1.46256e-06
1.46256e-06
1.46256e-06
1.46777e-06
1.46727e-06
1.46649e-06
1.46256e-06
1.46256e-06
1.46256e-06
1.46256e-06
1.46256e-06
1.46256e-06
1.4677e-06
1.46952e-06
1.46889e-06
1.46633e-06
1.46256e-06
1.46256e-06
1.46256e-06
1.46256e-06
1.46761e-06
1.46746e-06
1.46943e-06
1.46908e-06
1.46715e-06
1.46755e-06
1.46778e-06
1.46777e-06
1.46769e-06
1.46745e-06
1.46938e-06
1.46948e-06
1.46915e-06
1.46727e-06
1.46952e-06
1.46943e-06
1.44941e-06
1.44926e-06
1.44905e-06
1.4467e-06
1.44666e-06
1.44646e-06
1.44675e-06
1.44915e-06
1.44933e-06
1.44905e-06
1.4457e-06
1.44282e-06
1.44282e-06
1.44282e-06
1.44282e-06
1.44659e-06
1.44742e-06
1.4467e-06
1.44282e-06
1.44282e-06
1.44282e-06
1.44282e-06
1.44282e-06
1.44282e-06
1.44781e-06
1.44973e-06
1.44942e-06
1.44666e-06
1.44282e-06
1.44282e-06
1.44282e-06
1.44282e-06
1.44282e-06
1.44282e-06
1.44804e-06
1.44941e-06
1.44925e-06
1.44647e-06
1.44282e-06
1.44282e-06
1.44282e-06
1.44282e-06
1.44282e-06
1.44282e-06
1.44803e-06
1.44752e-06
1.44675e-06
1.44282e-06
1.44282e-06
1.44282e-06
1.44282e-06
1.44282e-06
1.44282e-06
1.44795e-06
1.44977e-06
1.44915e-06
1.44659e-06
1.44282e-06
1.44282e-06
1.44282e-06
1.44282e-06
1.44787e-06
1.44772e-06
1.44968e-06
1.44934e-06
1.44741e-06
1.44781e-06
1.44804e-06
1.44803e-06
1.44795e-06
1.44771e-06
1.44964e-06
1.44974e-06
1.44941e-06
1.44752e-06
1.44977e-06
1.44969e-06
1.42967e-06
1.42951e-06
1.4293e-06
1.42695e-06
1.42691e-06
1.42672e-06
1.42701e-06
1.42941e-06
1.42959e-06
1.42931e-06
1.42595e-06
1.42307e-06
1.42307e-06
1.42307e-06
1.42307e-06
1.42685e-06
1.42767e-06
1.42695e-06
1.42307e-06
1.42307e-06
1.42307e-06
1.42307e-06
1.42307e-06
1.42307e-06
1.42807e-06
1.42999e-06
1.42967e-06
1.42691e-06
1.42307e-06
1.42307e-06
1.42307e-06
1.42307e-06
1.42307e-06
1.42307e-06
1.42829e-06
1.42967e-06
1.42951e-06
1.42672e-06
1.42307e-06
1.42307e-06
1.42307e-06
1.42307e-06
1.42307e-06
1.42307e-06
1.42828e-06
1.42778e-06
1.42701e-06
1.42307e-06
1.42307e-06
1.42307e-06
1.42307e-06
1.42307e-06
1.42307e-06
1.42821e-06
1.43003e-06
1.42941e-06
1.42684e-06
1.42307e-06
1.42307e-06
1.42307e-06
1.42307e-06
1.42813e-06
1.42797e-06
1.42994e-06
1.4296e-06
1.42767e-06
1.42807e-06
1.42829e-06
1.42828e-06
1.42821e-06
1.42797e-06
1.42989e-06
1.42999e-06
1.42967e-06
1.42778e-06
1.43003e-06
1.42994e-06
1.40993e-06
1.40977e-06
1.40956e-06
1.40721e-06
1.40717e-06
1.40698e-06
1.40726e-06
1.40966e-06
1.40984e-06
1.40957e-06
1.40621e-06
1.40333e-06
1.40333e-06
1.40333e-06
1.40333e-06
1.4071e-06
1.40793e-06
1.40721e-06
1.40333e-06
1.40333e-06
1.40333e-06
1.40333e-06
1.40333e-06
1.40333e-06
1.40832e-06
1.41025e-06
1.40993e-06
1.40717e-06
1.40333e-06
1.40333e-06
1.40333e-06
1.40333e-06
1.40333e-06
1.40333e-06
1.40855e-06
1.40992e-06
1.40976e-06
1.40698e-06
1.40333e-06
1.40333e-06
1.40333e-06
1.40333e-06
1.40333e-06
1.40333e-06
1.40854e-06
1.40803e-06
1.40726e-06
1.40333e-06
1.40333e-06
1.40333e-06
1.40333e-06
1.40333e-06
1.40333e-06
1.40846e-06
1.41029e-06
1.40966e-06
1.4071e-06
1.40333e-06
1.40333e-06
1.40333e-06
1.40333e-06
1.40838e-06
1.40823e-06
1.4102e-06
1.40985e-06
1.40792e-06
1.40832e-06
1.40855e-06
1.40854e-06
1.40846e-06
1.40822e-06
1.41015e-06
1.41025e-06
1.40992e-06
1.40803e-06
1.41028e-06
1.4102e-06
1.39018e-06
1.39002e-06
1.38981e-06
1.38747e-06
1.38742e-06
1.38723e-06
1.38752e-06
1.38992e-06
1.3901e-06
1.38982e-06
1.38646e-06
1.38358e-06
1.38358e-06
1.38358e-06
1.38358e-06
1.38736e-06
1.38818e-06
1.38746e-06
1.38358e-06
1.38358e-06
1.38358e-06
1.38358e-06
1.38358e-06
1.38358e-06
1.38858e-06
1.3905e-06
1.39018e-06
1.38742e-06
1.38358e-06
1.38358e-06
1.38358e-06
1.38358e-06
1.38358e-06
1.38358e-06
1.3888e-06
1.39018e-06
1.39002e-06
1.38723e-06
1.38358e-06
1.38358e-06
1.38358e-06
1.38358e-06
1.38358e-06
1.38358e-06
1.38879e-06
1.38829e-06
1.38752e-06
1.38358e-06
1.38358e-06
1.38358e-06
1.38358e-06
1.38358e-06
1.38358e-06
1.38872e-06
1.39054e-06
1.38992e-06
1.38735e-06
1.38358e-06
1.38358e-06
1.38358e-06
1.38358e-06
1.38864e-06
1.38848e-06
1.39045e-06
1.39011e-06
1.38818e-06
1.38858e-06
1.3888e-06
1.38879e-06
1.38872e-06
1.38848e-06
1.3904e-06
1.3905e-06
1.39018e-06
1.38829e-06
1.39054e-06
1.39045e-06
1.37043e-06
1.37028e-06
1.37007e-06
1.36772e-06
1.36768e-06
1.36749e-06
1.36777e-06
1.37017e-06
1.37035e-06
1.37008e-06
1.36672e-06
1.36384e-06
1.36384e-06
1.36384e-06
1.36384e-06
1.36761e-06
1.36844e-06
1.36772e-06
1.36384e-06
1.36384e-06
1.36384e-06
1.36384e-06
1.36384e-06
1.36384e-06
1.36883e-06
1.37076e-06
1.37044e-06
1.36768e-06
1.36384e-06
1.36384e-06
1.36384e-06
1.36384e-06
1.36384e-06
1.36384e-06
1.36906e-06
1.37043e-06
1.37027e-06
1.36749e-06
1.36384e-06
1.36384e-06
1.36384e-06
1.36384e-06
1.36384e-06
1.36384e-06
1.36905e-06
1.36855e-06
1.36777e-06
1.36384e-06
1.36384e-06
1.36384e-06
1.36384e-06
1.36384e-06
1.36384e-06
1.36897e-06
1.3708e-06
1.37017e-06
1.36761e-06
1.36384e-06
1.36384e-06
1.36384e-06
1.36384e-06
1.36889e-06
1.36874e-06
1.37071e-06
1.37036e-06
1.36843e-06
1.36883e-06
1.36906e-06
1.36905e-06
1.36897e-06
1.36873e-06
1.37066e-06
1.37076e-06
1.37043e-06
1.36855e-06
1.3708e-06
1.37071e-06
1.35069e-06
1.35053e-06
1.35033e-06
1.34798e-06
1.34794e-06
1.34774e-06
1.34803e-06
1.35043e-06
1.35061e-06
1.35033e-06
1.34697e-06
1.34409e-06
1.34409e-06
1.34409e-06
1.34409e-06
1.34787e-06
1.34869e-06
1.34797e-06
1.34409e-06
1.34409e-06
1.34409e-06
1.34409e-06
1.34409e-06
1.34409e-06
1.34909e-06
1.35101e-06
1.3507e-06
1.34793e-06
1.34409e-06
1.34409e-06
1.34409e-06
1.34409e-06
1.34409e-06
1.34409e-06
1.34932e-06
1.35069e-06
1.35053e-06
1.34774e-06
1.34409e-06
1.34409e-06
1.34409e-06
1.34409e-06
1.34409e-06
1.34409e-06
1.3493e-06
1.3488e-06
1.34803e-06
1.34409e-06
1.34409e-06
1.34409e-06
1.34409e-06
1.34409e-06
1.34409e-06
1.34923e-06
1.35105e-06
1.35043e-06
1.34786e-06
1.34409e-06
1.34409e-06
1.34409e-06
1.34409e-06
1.34915e-06
1.34899e-06
1.35096e-06
1.35062e-06
1.34869e-06
1.34909e-06
1.34931e-06
1.3493e-06
1.34923e-06
1.34899e-06
1.35092e-06
1.35101e-06
1.35069e-06
1.3488e-06
1.35105e-06
1.35097e-06
1.33095e-06
1.33079e-06
1.33058e-06
1.32823e-06
1.32819e-06
1.328e-06
1.32829e-06
1.33068e-06
1.33086e-06
1.33059e-06
1.32723e-06
1.32435e-06
1.32435e-06
1.32435e-06
1.32435e-06
1.32812e-06
1.32895e-06
1.32823e-06
1.32435e-06
1.32435e-06
1.32435e-06
1.32435e-06
1.32435e-06
1.32435e-06
1.32934e-06
1.33127e-06
1.33095e-06
1.32819e-06
1.32435e-06
1.32435e-06
1.32435e-06
1.32435e-06
1.32435e-06
1.32435e-06
1.32957e-06
1.33094e-06
1.33079e-06
1.328e-06
1.32435e-06
1.32435e-06
1.32435e-06
1.32435e-06
1.32435e-06
1.32435e-06
1.32956e-06
1.32906e-06
1.32828e-06
1.32435e-06
1.32435e-06
1.32435e-06
1.32435e-06
1.32435e-06
1.32435e-06
1.32948e-06
1.33131e-06
1.33068e-06
1.32812e-06
1.32435e-06
1.32435e-06
1.32435e-06
1.32435e-06
1.3294e-06
1.32925e-06
1.33122e-06
1.33087e-06
1.32894e-06
1.32934e-06
1.32957e-06
1.32956e-06
1.32948e-06
1.32924e-06
1.33117e-06
1.33127e-06
1.33094e-06
1.32906e-06
1.33131e-06
1.33122e-06
1.3112e-06
1.31104e-06
1.31084e-06
1.30849e-06
1.30844e-06
1.30825e-06
1.30854e-06
1.31094e-06
1.31112e-06
1.31084e-06
1.30748e-06
1.3046e-06
1.3046e-06
1.3046e-06
1.3046e-06
1.30838e-06
1.3092e-06
1.30848e-06
1.3046e-06
1.3046e-06
1.3046e-06
1.3046e-06
1.3046e-06
1.3046e-06
1.3096e-06
1.31152e-06
1.31121e-06
1.30844e-06
1.3046e-06
1.3046e-06
1.3046e-06
1.3046e-06
1.3046e-06
1.3046e-06
1.30983e-06
1.3112e-06
1.31104e-06
1.30825e-06
1.3046e-06
1.3046e-06
1.3046e-06
1.3046e-06
1.3046e-06
1.3046e-06
1.30981e-06
1.30931e-06
1.30854e-06
1.3046e-06
1.3046e-06
1.3046e-06
1.3046e-06
1.3046e-06
1.3046e-06
1.30974e-06
1.31156e-06
1.31094e-06
1.30837e-06
1.3046e-06
1.3046e-06
1.3046e-06
1.3046e-06
1.30966e-06
1.3095e-06
1.31147e-06
1.31113e-06
1.3092e-06
1.3096e-06
1.30982e-06
1.30981e-06
1.30974e-06
1.3095e-06
1.31143e-06
1.31152e-06
1.3112e-06
1.30931e-06
1.31156e-06
1.31148e-06
1.29145e-06
1.2913e-06
1.29109e-06
1.28874e-06
1.2887e-06
1.2885e-06
1.28879e-06
1.29119e-06
1.29137e-06
1.29109e-06
1.28774e-06
1.28486e-06
1.28486e-06
1.28486e-06
1.28486e-06
1.28863e-06
1.28946e-06
1.28874e-06
1.28486e-06
1.28486e-06
1.28486e-06
1.28486e-06
1.28486e-06
1.28486e-06
1.28985e-06
1.29178e-06
1.29146e-06
1.2887e-06
1.28486e-06
1.28486e-06
1.28486e-06
1.28486e-06
1.28486e-06
1.28486e-06
1.29008e-06
1.29145e-06
1.29129e-06
1.28851e-06
1.28486e-06
1.28486e-06
1.28486e-06
1.28486e-06
1.28486e-06
1.28486e-06
1.29007e-06
1.28956e-06
1.28879e-06
1.28486e-06
1.28486e-06
1.28486e-06
1.28486e-06
1.28486e-06
1.28486e-06
1.28999e-06
1.29182e-06
1.29119e-06
1.28863e-06
1.28486e-06
1.28486e-06
1.28486e-06
1.28486e-06
1.28991e-06
1.28976e-06
1.29172e-06
1.29138e-06