/*--------------------------------*- C++ -*----------------------------------*\
| =========                 |                                                 |
| \\      /  F ield         | OpenFOAM: The Open Source CFD Toolbox           |
|  \\    /   O peration     | Version:  v2012                                 |
|   \\  /    A nd           | Website:  www.openfoam.com                      |
|    \\/     M anipulation  |                                                 |
\*---------------------------------------------------------------------------*/
FoamFile
{
    version     2.0;
    format      ascii;
    class       volScalarField;
    location    "387.5";
    object      nut;
}
// * * * * * * * * * * * * * * * * * * * * * * * * * * * * * * * * * * * * * //

dimensions      [0 2 -1 0 0 0 0];


internalField   nonuniform List<scalar> 
171728
(
4.83819e-06
2.10839e-06
2.37006e-06
2.2844e-06
4.82716e-06
2.06939e-06
2.38287e-06
2.18116e-06
4.8799e-06
2.05311e-06
2.34724e-06
2.07297e-06
4.93262e-06
2.03969e-06
2.27681e-06
2.00311e-06
4.98713e-06
2.02418e-06
2.18342e-06
1.99133e-06
5.0452e-06
1.99694e-06
2.10111e-06
2.07622e-06
5.10715e-06
1.96065e-06
2.04678e-06
2.63518e-06
5.17151e-06
1.91649e-06
1.99142e-06
3.41394e-06
5.23828e-06
1.8621e-06
1.94801e-06
3.6285e-06
5.30925e-06
1.78835e-06
1.88028e-06
2.33692e-06
5.37879e-06
1.69748e-06
1.80065e-06
1.89319e-06
5.45192e-06
1.61371e-06
1.71447e-06
1.75549e-06
5.52498e-06
1.5097e-06
1.6168e-06
1.63633e-06
5.60453e-06
1.41726e-06
1.51229e-06
1.543e-06
5.6799e-06
1.30743e-06
1.40952e-06
1.44076e-06
5.75724e-06
1.20823e-06
1.31137e-06
1.34048e-06
5.82575e-06
1.12546e-06
1.22731e-06
1.25172e-06
5.89107e-06
1.07337e-06
1.1713e-06
1.18891e-06
5.95566e-06
1.07753e-06
1.18093e-06
1.20251e-06
6.01304e-06
1.15093e-06
1.26544e-06
1.35934e-06
6.04706e-06
1.33489e-06
1.37752e-06
1.71286e-06
6.0644e-06
1.70431e-06
1.64402e-06
2.37831e-06
6.04575e-06
2.15295e-06
2.33215e-06
3.60508e-06
5.99559e-06
2.97172e-06
2.94132e-06
5.38972e-06
5.88566e-06
3.86628e-06
3.99726e-06
8.36101e-06
5.74699e-06
5.48328e-06
5.20811e-06
1.27211e-05
5.52213e-06
6.60982e-06
7.18135e-06
1.77338e-05
5.33431e-06
9.1959e-06
9.33083e-06
2.39277e-05
5.10995e-06
1.21511e-05
1.12632e-05
3.11789e-05
4.90119e-06
1.38745e-05
1.53164e-05
3.86501e-05
4.85046e-06
1.88944e-05
1.74945e-05
4.5325e-05
4.81904e-06
2.12756e-05
2.26941e-05
5.23749e-05
4.90409e-06
2.65696e-05
2.6057e-05
5.87911e-05
5.18481e-06
3.10736e-05
3.07459e-05
6.44339e-05
5.77516e-06
3.57071e-05
3.60675e-05
6.97168e-05
6.29594e-06
4.13717e-05
4.18063e-05
7.5176e-05
7.35208e-06
4.70101e-05
4.61626e-05
7.92126e-05
8.49132e-06
5.29888e-05
5.3804e-05
8.38941e-05
9.76741e-06
5.78743e-05
5.78055e-05
8.73965e-05
1.19782e-05
6.72938e-05
6.55272e-05
9.27202e-05
1.46089e-05
6.67438e-05
7.04412e-05
9.53612e-05
1.53513e-05
7.97173e-05
7.75883e-05
9.92028e-05
2.19425e-05
8.43654e-05
8.20377e-05
0.000104363
2.08747e-05
8.45349e-05
9.08176e-05
0.000105836
2.93067e-05
9.88651e-05
9.31051e-05
0.000112425
2.97414e-05
9.79133e-05
0.00010273
0.000112868
3.96163e-05
0.000109362
0.000102938
0.000119726
3.73344e-05
0.000109884
0.00011471
0.00012151
5.22785e-05
0.000116451
0.000116528
0.00012538
5.10055e-05
0.000120816
0.000120355
0.000129217
6.52698e-05
0.000130114
0.000128013
0.000133213
6.18524e-05
0.000126376
0.000131011
0.000134379
7.3978e-05
0.000136771
0.000132043
0.000139462
8.96138e-05
0.000144284
0.00014356
0.000143063
8.85454e-05
0.000140608
0.000144976
0.000144591
8.84481e-05
0.000144589
0.000142368
0.000145885
0.000100391
0.000158131
0.000155725
0.000152518
0.000117407
0.0001602
0.000158111
0.000154137
0.00011445
0.000154203
0.00016023
0.000155148
0.000121174
0.000164921
0.000162586
0.000158209
0.000127169
0.000170341
0.000165016
0.00016169
0.000139866
0.000168872
0.00017435
0.000164611
0.000138487
0.000176629
0.000176624
0.000165138
0.000149661
0.000177634
0.000176007
0.000170503
0.000154896
0.000177747
0.00017853
0.00016851
0.000154102
0.000186069
0.000185704
0.000172837
0.000168419
0.00018959
0.000190038
0.000176718
0.000173536
0.000189874
0.00018913
0.00017655
0.000172299
0.00018957
0.000191773
0.00017863
0.000181403
0.000196849
0.000194663
0.000179637
0.000186267
0.00019734
0.000200402
0.000182932
0.000191131
0.000202827
0.000201404
0.000185354
0.000199293
0.000202618
0.000202041
0.000184413
0.00019821
0.000202575
0.000203408
0.000187603
0.000202686
0.000208914
0.00020922
0.000189245
0.000211556
0.000209441
0.000209955
0.000188194
0.000212582
0.00020924
0.000207954
0.000190779
0.000212832
0.000213483
0.000213873
0.000192155
0.000221917
0.000215332
0.000217422
0.000194178
0.000226814
0.000216869
0.000216639
0.000194992
0.000226945
0.00021791
0.000215376
0.000195166
0.000224604
0.000214996
0.000214636
0.000191655
0.00023422
0.000223136
0.00022502
0.000200076
0.000243852
0.000229517
0.000230321
0.000204643
0.000236515
0.000216933
0.000216118
0.000192951
0.000221818
0.000206006
0.000205222
0.000182048
0.000229548
0.000222251
0.000222353
0.000197416
0.000269377
0.000247291
0.000247474
0.000217702
0.0002888
0.000254518
0.000254663
0.000220421
0.000259985
0.000228711
0.000228771
0.000202442
0.000221026
0.000202182
0.000202183
0.00018098
0.00019379
0.000184244
0.000184222
0.000164706
0.000192977
0.00019351
0.000193498
0.000173517
0.000247025
0.000226329
0.000226337
0.000198536
0.000292131
0.000254583
0.000254598
0.000224717
2.29188e-06
2.54402e-06
2.41422e-06
2.17391e-06
2.56782e-06
2.5373e-06
4.89226e-06
4.66542e-06
4.85041e-06
4.37988e-06
2.36302e-06
2.5992e-06
2.3187e-06
2.50568e-06
1.55987e-06
2.29572e-06
2.28823e-06
2.26785e-06
2.26589e-06
2.21098e-06
2.23446e-06
2.14678e-06
2.16989e-06
2.15118e-06
2.31548e-06
2.28333e-06
2.27651e-06
2.24496e-06
2.28729e-06
2.07349e-06
2.24612e-06
2.31489e-06
2.29845e-06
1.74461e-06
2.38375e-06
1.74517e-06
2.19988e-06
2.26612e-06
2.25223e-06
2.22809e-06
2.12598e-06
2.2118e-06
2.07905e-06
2.1482e-06
2.12074e-06
2.27049e-06
2.24109e-06
2.25083e-06
2.23072e-06
2.23728e-06
2.05658e-06
2.21509e-06
2.29575e-06
2.27818e-06
1.74681e-06
2.36246e-06
1.78089e-06
2.08282e-06
2.25094e-06
2.23964e-06
2.20711e-06
2.06811e-06
2.19238e-06
2.06243e-06
2.11712e-06
2.10143e-06
2.24373e-06
2.22516e-06
2.22206e-06
2.21029e-06
2.2068e-06
2.0437e-06
2.18475e-06
2.27582e-06
2.25897e-06
1.79891e-06
2.2927e-06
1.87252e-06
2.00644e-06
2.23774e-06
2.22305e-06
2.18597e-06
2.0644e-06
2.16692e-06
2.03737e-06
2.09924e-06
2.09581e-06
2.21308e-06
2.20595e-06
2.18714e-06
2.19015e-06
2.17516e-06
2.02745e-06
2.14731e-06
2.25706e-06
2.23988e-06
1.90037e-06
2.20862e-06
2.045e-06
1.98965e-06
2.21998e-06
2.20095e-06
2.16046e-06
2.01858e-06
2.14072e-06
1.96196e-06
2.09342e-06
2.08234e-06
2.17818e-06
2.18229e-06
2.15395e-06
2.16213e-06
2.13612e-06
2.00483e-06
2.11006e-06
2.23664e-06
2.21348e-06
2.10048e-06
2.11696e-06
2.36788e-06
2.05931e-06
2.19689e-06
2.17596e-06
2.13185e-06
1.94514e-06
2.10755e-06
1.89776e-06
2.07886e-06
2.06449e-06
2.14689e-06
2.15527e-06
2.12236e-06
2.13338e-06
2.10227e-06
1.97109e-06
2.08689e-06
2.20917e-06
2.18662e-06
2.48495e-06
2.0625e-06
3.33187e-06
2.56018e-06
2.17122e-06
2.14339e-06
2.09675e-06
1.88177e-06
2.06512e-06
1.82441e-06
2.05997e-06
2.04082e-06
2.11441e-06
2.12333e-06
2.08174e-06
2.09304e-06
2.08266e-06
1.92818e-06
2.07152e-06
2.18149e-06
2.1614e-06
3.99208e-06
2.00078e-06
7.32211e-06
3.38972e-06
2.13794e-06
2.10477e-06
2.05224e-06
1.80473e-06
2.01032e-06
1.75061e-06
2.03569e-06
2.00971e-06
2.06943e-06
2.08001e-06
2.03257e-06
2.03634e-06
2.06941e-06
1.87657e-06
2.04072e-06
2.15592e-06
2.12069e-06
8.65482e-06
1.96142e-06
1.19538e-05
3.87643e-06
2.098e-06
2.05606e-06
1.99438e-06
1.73211e-06
1.9452e-06
1.65986e-06
2.0038e-06
1.95946e-06
2.01792e-06
2.01966e-06
1.974e-06
1.96819e-06
2.01885e-06
1.80658e-06
1.95372e-06
2.11351e-06
2.06538e-06
1.13088e-05
1.8971e-06
5.79061e-06
2.40358e-06
2.04714e-06
1.99212e-06
1.92929e-06
1.6346e-06
1.87307e-06
1.58272e-06
1.95143e-06
1.88119e-06
1.95735e-06
1.95099e-06
1.90412e-06
1.89301e-06
1.9315e-06
1.71798e-06
1.86396e-06
2.05625e-06
1.99123e-06
4.51759e-06
1.82192e-06
2.23409e-06
1.92224e-06
1.98175e-06
1.91678e-06
1.85366e-06
1.56495e-06
1.79342e-06
1.50592e-06
1.87223e-06
1.79383e-06
1.88439e-06
1.87098e-06
1.82371e-06
1.80184e-06
1.8415e-06
1.63755e-06
1.77695e-06
1.98071e-06
1.90589e-06
1.84847e-06
1.73735e-06
1.3169e-06
1.76726e-06
1.90425e-06
1.82791e-06
1.77243e-06
1.4854e-06
1.70403e-06
1.41462e-06
1.78181e-06
1.69026e-06
1.80005e-06
1.77671e-06
1.72816e-06
1.69664e-06
1.75672e-06
1.5262e-06
1.6872e-06
1.89312e-06
1.8073e-06
1.25061e-06
1.64163e-06
1.15158e-06
1.65075e-06
1.81155e-06
1.72475e-06
1.67968e-06
1.38721e-06
1.59769e-06
1.32816e-06
1.67336e-06
1.5717e-06
1.70117e-06
1.6702e-06
1.62479e-06
1.59328e-06
1.66307e-06
1.44062e-06
1.58579e-06
1.79083e-06
1.69965e-06
1.13164e-06
1.53876e-06
1.07815e-06
1.5604e-06
1.70354e-06
1.61585e-06
1.56878e-06
1.30328e-06
1.487e-06
1.20892e-06
1.55185e-06
1.45953e-06
1.60062e-06
1.5683e-06
1.52872e-06
1.49076e-06
1.56095e-06
1.3322e-06
1.48067e-06
1.67929e-06
1.58584e-06
1.06297e-06
1.43594e-06
1.04578e-06
1.4629e-06
1.58939e-06
1.49928e-06
1.45919e-06
1.18236e-06
1.37421e-06
1.11921e-06
1.43727e-06
1.36075e-06
1.50403e-06
1.46485e-06
1.41997e-06
1.38661e-06
1.45363e-06
1.23217e-06
1.37772e-06
1.56116e-06
1.47182e-06
1.03936e-06
1.33175e-06
1.01994e-06
1.36642e-06
1.47204e-06
1.37382e-06
1.35137e-06
1.10677e-06
1.27969e-06
1.07339e-06
1.33645e-06
1.26661e-06
1.39795e-06
1.36382e-06
1.31538e-06
1.28873e-06
1.3528e-06
1.14418e-06
1.28323e-06
1.44515e-06
1.35596e-06
1.01304e-06
1.24015e-06
9.94363e-07
1.27275e-06
1.35329e-06
1.28357e-06
1.27025e-06
1.06603e-06
1.21248e-06
1.08034e-06
1.24501e-06
1.20077e-06
1.304e-06
1.27321e-06
1.24046e-06
1.21723e-06
1.2662e-06
1.0897e-06
1.21531e-06
1.33893e-06
1.26653e-06
9.90469e-07
1.17861e-06
9.81918e-07
1.20559e-06
1.26086e-06
1.27312e-06
1.20387e-06
1.07423e-06
1.19809e-06
1.12082e-06
1.18785e-06
1.20226e-06
1.2275e-06
1.20948e-06
1.2173e-06
1.19852e-06
1.20513e-06
1.07766e-06
1.19391e-06
1.26443e-06
1.2377e-06
9.81363e-07
1.1719e-06
1.01236e-06
1.20194e-06
1.27179e-06
1.35441e-06
1.19258e-06
1.14579e-06
1.2441e-06
1.26755e-06
1.20809e-06
1.33707e-06
1.20614e-06
1.21235e-06
1.26645e-06
1.23489e-06
1.1927e-06
1.13808e-06
1.25253e-06
1.2611e-06
1.30023e-06
1.0257e-06
1.20673e-06
1.10319e-06
1.31063e-06
1.41781e-06
1.64087e-06
1.27307e-06
1.3009e-06
1.38684e-06
1.50858e-06
1.37466e-06
1.68496e-06
1.29381e-06
1.2967e-06
1.39112e-06
1.30708e-06
1.26657e-06
1.31267e-06
1.40323e-06
1.3475e-06
1.55089e-06
1.13237e-06
1.29131e-06
1.28697e-06
1.59185e-06
1.71283e-06
2.27314e-06
1.42583e-06
1.54506e-06
1.66056e-06
1.92602e-06
1.83102e-06
2.20546e-06
1.42696e-06
1.39282e-06
1.66746e-06
1.73584e-06
1.44811e-06
1.61086e-06
1.66028e-06
1.54935e-06
2.62016e-06
1.34032e-06
1.68084e-06
1.574e-06
2.16975e-06
2.46493e-06
3.35183e-06
1.72711e-06
2.05496e-06
2.14015e-06
2.4916e-06
2.53348e-06
3.14428e-06
1.73226e-06
1.6937e-06
2.13209e-06
2.08861e-06
1.75185e-06
1.97232e-06
2.12603e-06
2.6453e-06
2.94238e-06
1.66041e-06
2.08658e-06
2.03878e-06
3.27246e-06
3.73076e-06
4.91586e-06
2.27654e-06
2.72024e-06
2.73929e-06
3.56346e-06
3.46295e-06
5.69326e-06
2.26481e-06
2.33543e-06
2.7461e-06
2.90798e-06
2.25987e-06
2.85295e-06
2.7694e-06
3.69724e-06
5.5538e-06
2.19601e-06
2.83e-06
2.70553e-06
4.98591e-06
5.3275e-06
8.08307e-06
3.00291e-06
3.72611e-06
3.71488e-06
4.08082e-06
5.97369e-06
6.91607e-06
2.99782e-06
3.00646e-06
3.71986e-06
3.60586e-06
3.00614e-06
3.33341e-06
3.70467e-06
5.77408e-06
7.11369e-06
2.93764e-06
3.58621e-06
3.64172e-06
7.87609e-06
8.56134e-06
1.16702e-05
3.99012e-06
4.62118e-06
5.00196e-06
5.95374e-06
7.35944e-06
1.49041e-05
3.99266e-06
4.0066e-06
4.94754e-06
4.9902e-06
4.01602e-06
5.30225e-06
5.00185e-06
7.83843e-06
1.22028e-05
3.94985e-06
4.92452e-06
4.96088e-06
1.1868e-05
1.25743e-05
1.69461e-05
5.40083e-06
6.07651e-06
6.61895e-06
6.52448e-06
1.5443e-05
1.4985e-05
5.35644e-06
5.29257e-06
6.67089e-06
6.82357e-06
5.36332e-06
6.20479e-06
6.64334e-06
1.28339e-05
1.66164e-05
5.31067e-06
6.80507e-06
6.5873e-06
1.66058e-05
1.79701e-05
2.23257e-05
6.95476e-06
6.82087e-06
8.74207e-06
8.804e-06
1.65495e-05
2.1463e-05
7.00293e-06
7.23611e-06
8.68193e-06
8.48897e-06
7.10403e-06
8.67467e-06
8.68966e-06
1.80488e-05
2.25012e-05
7.04173e-06
8.43807e-06
8.62137e-06
2.27416e-05
2.37663e-05
3.03146e-05
9.39662e-06
9.36584e-06
1.10296e-05
1.13279e-05
2.31793e-05
3.14198e-05
9.33577e-06
9.37084e-06
1.10008e-05
1.10174e-05
9.2653e-06
1.12473e-05
1.09992e-05
2.31942e-05
3.11253e-05
9.26458e-06
1.08849e-05
1.09688e-05
2.99058e-05
3.13859e-05
3.66428e-05
1.17244e-05
1.21519e-05
1.39265e-05
1.3353e-05
3.20017e-05
3.68425e-05
1.16725e-05
1.13985e-05
1.39462e-05
1.44071e-05
1.16095e-05
1.3344e-05
1.41856e-05
3.29675e-05
3.48914e-05
1.16179e-05
1.44061e-05
1.41656e-05
3.70411e-05
3.8301e-05
4.40616e-05
1.46197e-05
1.38886e-05
1.73975e-05
1.77307e-05
3.83774e-05
4.29038e-05
1.46759e-05
1.53049e-05
1.73343e-05
1.66949e-05
1.48698e-05
1.77701e-05
1.72265e-05
3.70792e-05
4.51366e-05
1.48746e-05
1.65758e-05
1.70991e-05
4.39179e-05
4.5359e-05
5.11354e-05
1.83892e-05
1.88422e-05
2.09677e-05
2.02585e-05
4.49117e-05
5.20398e-05
1.82774e-05
1.76824e-05
2.09773e-05
2.16115e-05
1.82437e-05
2.03403e-05
2.10382e-05
4.50358e-05
5.11972e-05
1.82401e-05
2.15671e-05
2.09019e-05
5.10025e-05
5.24909e-05
5.70948e-05
2.19757e-05
2.12168e-05
2.51397e-05
2.56441e-05
5.24705e-05
5.66062e-05
2.20224e-05
2.27229e-05
2.5063e-05
2.52804e-05
2.17018e-05
2.55308e-05
2.57873e-05
5.39258e-05
5.74201e-05
2.16729e-05
2.52444e-05
2.57406e-05
5.74555e-05
5.84169e-05
6.35465e-05
2.63088e-05
2.67066e-05
2.99956e-05
2.95963e-05
5.88026e-05
6.35722e-05
2.62385e-05
2.61779e-05
2.99866e-05
2.93598e-05
2.67664e-05
2.96648e-05
2.95673e-05
5.78155e-05
6.28995e-05
2.671e-05
2.9213e-05
2.97018e-05
6.32755e-05
6.46925e-05
6.85204e-05
3.09976e-05
3.09515e-05
3.46988e-05
3.481e-05
6.43627e-05
6.87755e-05
3.09202e-05
3.08648e-05
3.47115e-05
3.51107e-05
3.11272e-05
3.46339e-05
3.42165e-05
6.42887e-05
6.90694e-05
3.1161e-05
3.51265e-05
3.43389e-05
6.84793e-05
6.97856e-05
7.3779e-05
3.62109e-05
3.59573e-05
4.01877e-05
3.99968e-05
7.00396e-05
7.32149e-05
3.62886e-05
3.59684e-05
3.99248e-05
4.04366e-05
3.53319e-05
4.00662e-05
4.15918e-05
7.02781e-05
7.35963e-05
3.57975e-05
4.00713e-05
4.10641e-05
7.42796e-05
7.47616e-05
7.82378e-05
4.1324e-05
4.11601e-05
4.54231e-05
4.51855e-05
7.4251e-05
7.86429e-05
4.10933e-05
4.19612e-05
4.56498e-05
4.50074e-05
4.1972e-05
4.49117e-05
4.48446e-05
7.47277e-05
7.81908e-05
4.17611e-05
4.49439e-05
4.52348e-05
7.81019e-05
7.93021e-05
8.29007e-05
4.71049e-05
4.75371e-05
5.15578e-05
5.25239e-05
7.96881e-05
8.28784e-05
4.71241e-05
4.65031e-05
5.12326e-05
5.21786e-05
4.74498e-05
5.28818e-05
5.16277e-05
7.9113e-05
8.30731e-05
4.71989e-05
5.22491e-05
5.18188e-05
8.30267e-05
8.38293e-05
8.67486e-05
5.2937e-05
5.23885e-05
5.71157e-05
5.5458e-05
8.36349e-05
8.63427e-05
5.30135e-05
5.34981e-05
5.72753e-05
5.69206e-05
5.27032e-05
5.46963e-05
5.67619e-05
8.41083e-05
8.65751e-05
5.29345e-05
5.64072e-05
5.71908e-05
8.64157e-05
8.76641e-05
9.09549e-05
5.85687e-05
5.8945e-05
6.34523e-05
6.68004e-05
8.76535e-05
9.17865e-05
5.81586e-05
5.84837e-05
6.31282e-05
6.27389e-05
5.78496e-05
6.7095e-05
6.40916e-05
8.73457e-05
9.10972e-05
5.84505e-05
6.34687e-05
6.3358e-05
9.1653e-05
9.19697e-05
9.50633e-05
6.50905e-05
6.64503e-05
6.9998e-05
6.40395e-05
9.21405e-05
9.28541e-05
6.53657e-05
6.49211e-05
7.03864e-05
7.10707e-05
6.67335e-05
6.45031e-05
7.01915e-05
9.21986e-05
9.50528e-05
6.64219e-05
7.01472e-05
7.11823e-05
9.49865e-05
9.57036e-05
9.81015e-05
7.12245e-05
6.76861e-05
7.38943e-05
7.91053e-05
9.40686e-05
0.000101151
7.11354e-05
7.09902e-05
7.34425e-05
7.36777e-05
7.01228e-05
7.8842e-05
7.3079e-05
9.56259e-05
9.81509e-05
7.03095e-05
7.42413e-05
7.2825e-05
9.76862e-05
9.91914e-05
0.00010371
7.61757e-05
8.0109e-05
8.4341e-05
8.33962e-05
0.000101702
0.000102514
7.59245e-05
7.73313e-05
8.42996e-05
8.32119e-05
7.65292e-05
8.32718e-05
8.51103e-05
9.93653e-05
0.000103243
7.67561e-05
8.2602e-05
8.53956e-05
0.000104115
0.000104202
0.000105163
8.45976e-05
8.39675e-05
8.48445e-05
8.32483e-05
0.000103037
0.000104811
8.4635e-05
8.25227e-05
8.51126e-05
8.65567e-05
8.49733e-05
8.34278e-05
8.41053e-05
0.000103594
0.000105829
8.53785e-05
8.72152e-05
8.35891e-05
0.000104821
0.000105999
0.000111258
8.79296e-05
8.50237e-05
9.5363e-05
9.67701e-05
0.000105417
0.000111697
8.78662e-05
9.05115e-05
9.50935e-05
9.51097e-05
8.76172e-05
9.582e-05
9.59107e-05
0.000107244
0.000110941
8.60517e-05
9.36372e-05
9.7225e-05
0.000111949
0.000111731
0.000113102
9.50414e-05
9.93711e-05
9.78503e-05
9.84495e-05
0.000113015
0.000113494
9.49342e-05
9.42317e-05
9.7985e-05
9.88523e-05
9.59748e-05
9.87803e-05
9.77289e-05
0.000111026
0.000113352
9.8543e-05
9.97837e-05
9.63126e-05
0.000112447
0.00011424
0.000118722
0.000101313
9.75488e-05
0.000106741
0.000106798
0.000113372
0.000118968
0.000101404
0.000102053
0.000106698
0.000103454
9.96519e-05
0.000106478
0.000105201
0.000114924
0.000117458
9.67713e-05
0.000103331
0.000106149
0.000118868
0.00011873
0.000119262
0.000105943
0.00010949
0.000107132
0.0001093
0.000120466
0.000120947
0.000105874
0.000103733
0.000106429
0.000111527
0.000107111
0.00010945
0.000110736
0.000117528
0.00012219
0.000107188
0.00011112
0.000110158
0.000121084
0.000121014
0.000126741
0.000111604
0.000110399
0.000117697
0.000115559
0.000120894
0.000125235
0.000110922
0.000114494
0.00011854
0.000115935
0.000111087
0.000115414
0.000114771
0.000123791
0.000125474
0.000111211
0.000117555
0.000114635
0.000124586
0.000126724
0.000127615
0.000117078
0.000115714
0.000119011
0.000118972
0.00012586
0.000127638
0.000118126
0.000115073
0.000118187
0.000118595
0.000116558
0.000118638
0.000119672
0.000125177
0.000126733
0.000116477
0.000116523
0.000120524
0.000128631
0.000129109
0.000132938
0.000122264
0.000121644
0.000127403
0.000128847
0.000128851
0.0001343
0.000121678
0.000121935
0.000127631
0.000127536
0.000121039
0.000129003
0.000127762
0.000128396
0.000133773
0.000120878
0.000127128
0.000125144
0.000132411
0.000132745
0.000131089
0.000126996
0.000129382
0.000124912
0.000126575
0.000134502
0.000131799
0.000127249
0.000127596
0.000124577
0.000128879
0.000128987
0.000127765
0.000127579
0.00013403
0.00013437
0.00012773
0.00013073
0.000130968
0.000134508
0.000131817
0.000141082
0.000126471
0.000125421
0.000136507
0.00013345
0.000131095
0.000138729
0.000125492
0.000129927
0.000136634
0.000132494
0.000126955
0.000131555
0.000134533
0.000134623
0.000136872
0.000130273
0.000130622
0.000131008
0.000137628
0.000142599
0.000143598
0.000139256
0.000138169
0.000141946
0.000145018
0.000141427
0.000146074
0.000139748
0.000133822
0.000142612
0.000140882
0.000138096
0.000144448
0.000141541
0.000137571
0.000143149
0.000134578
0.000141026
0.000141439
0.000143305
0.000143247
0.000142341
0.00014165
0.000144792
0.000141534
0.000141542
0.000145785
0.000140903
0.00014204
0.000143033
0.000140637
0.000144918
0.000140901
0.000141606
0.00014182
0.000144332
0.000145674
0.00014138
0.000145669
0.000143354
0.000143365
0.00014296
0.000144781
0.000141773
0.000140369
0.000143237
0.000140221
0.00014032
0.000144088
0.000141762
0.000144305
0.00014349
0.000142239
0.00014416
0.000141709
0.000144974
0.000145341
0.000143022
0.000144739
0.000142106
0.000144631
0.000146046
0.000145309
0.000152133
0.000144852
0.000144043
0.000153384
0.000155877
0.000145876
0.000154951
0.00014472
0.000143258
0.000152703
0.000152241
0.000144978
0.000155127
0.000151468
0.000143683
0.000152118
0.000144704
0.000152834
0.000151907
0.000151036
0.000153452
0.000154691
0.000156109
0.000158788
0.000159123
0.000160993
0.000156329
0.000156389
0.000155407
0.000155238
0.000158313
0.000159158
0.000154473
0.000160739
0.000158713
0.000153484
0.0001548
0.000154845
0.000158533
0.000158169
0.000154457
0.000154371
0.000154044
0.000158698
0.00016037
0.000156945
0.000155069
0.000155765
0.000149793
0.000157909
0.00015886
0.000157353
0.000157361
0.000158425
0.000155274
0.000157001
0.000154489
0.000154997
0.000157691
0.00015792
0.000156629
0.000153937
0.000154942
0.000157876
0.000157369
0.00015402
0.000161886
0.000160882
0.000149542
0.000158533
0.000159022
0.000158388
0.00016192
0.000163506
0.000158103
0.000160817
0.000162232
0.000156099
0.000158114
0.00015891
0.000163009
0.000163432
0.000158398
0.00015795
0.000161331
0.000162664
0.000164804
0.0001676
0.000170328
0.000160439
0.000163463
0.000162275
0.000163391
0.000166519
0.000163557
0.000162363
0.000170343
0.000166392
0.000157756
0.000158595
0.000163114
0.000163044
0.000164689
0.000160394
0.00016235
0.000163947
0.000169531
0.000170443
0.000171317
0.000169105
0.000163279
0.000161816
0.000168759
0.00016516
0.000172525
0.000172418
0.000168761
0.000168875
0.000172515
0.000159633
0.00016525
0.0001674
0.000172423
0.000173119
0.00016475
0.000163673
0.000164456
0.000170849
0.000169031
0.000171101
0.000174184
0.000162012
0.000167235
0.000172392
0.000174331
0.000171521
0.000176212
0.00017231
0.00017486
0.000171385
0.000166195
0.00016805
0.000173362
0.000176656
0.000172161
0.000164381
0.000165555
0.000170031
0.000173571
0.000175959
0.00017997
0.000177861
0.000167924
0.000167863
0.000172746
0.000176138
0.000179256
0.00017609
0.000173029
0.000178072
0.000180167
0.000167939
0.000166621
0.000172347
0.000176208
0.000179314
0.0001703
0.000170105
0.000168631
0.000180676
0.000177534
0.000179611
0.000177315
0.000167468
0.000167767
0.000180283
0.000176146
0.000179674
0.000177459
0.00018096
0.000176534
0.00017987
0.0001663
0.000167903
0.000180639
0.000177119
0.000180277
0.000168967
0.00016826
0.000172347
0.000178945
0.000178704
0.000181357
0.0001849
0.000168748
0.000174451
0.000179049
0.00017872
0.000181719
0.000184326
0.00017918
0.000184874
0.000180637
0.00016879
0.000173986
0.00017962
0.00018403
0.000180282
0.000171535
0.00017372
0.000176874
0.000184511
0.000186213
0.000189688
0.000188545
0.000174911
0.000175928
0.000184671
0.000186038
0.000189328
0.000189042
0.000183262
0.000188565
0.000188821
0.000174635
0.000176423
0.000183186
0.000189478
0.000188988
0.000176484
0.000176875
0.00017653
0.000190143
0.000189416
0.000190076
0.000190143
0.000176211
0.000176789
0.000189543
0.000189298
0.000189949
0.00018917
0.000190027
0.000190327
0.000190648
0.000176515
0.000176276
0.000189793
0.000189557
0.000189801
0.000176816
0.000176409
0.000176483
0.000189774
0.000189755
0.000188953
0.00018857
0.000176479
0.000175892
0.000190074
0.000189352
0.000189681
0.000190387
0.000190225
0.000188484
0.000189621
0.000176007
0.000177171
0.00018958
0.000190463
0.000192058
0.000177944
0.000176827
0.00018142
0.000189961
0.000189796
0.000195893
0.000196123
0.000176825
0.000181519
0.00019022
0.000190779
0.000195425
0.000194215
0.000191353
0.000196173
0.000195285
0.000177644
0.000179909
0.000193038
0.000193615
0.000193185
0.000179821
0.000181964
0.000181931
0.000197115
0.000196824
0.000197398
0.000196768
0.000181572
0.000181489
0.000196947
0.000195958
0.000197973
0.00019911
0.000195323
0.000196843
0.000196131
0.000180484
0.000183785
0.000193244
0.00019926
0.000197666
0.00018204
0.000181623
0.000184334
0.00019714
0.000197149
0.000200108
0.000201848
0.000181889
0.000186048
0.000197757
0.000199319
0.000199705
0.000200671
0.000197676
0.000201953
0.000201868
0.000184014
0.000184718
0.000199496
0.000201423
0.00020206
0.000185472
0.000185197
0.000186492
0.000201934
0.00020279
0.000203937
0.00020313
0.000186185
0.000184983
0.000201536
0.000201583
0.000203907
0.000203048
0.000202431
0.000203079
0.000202397
0.000184751
0.000185385
0.000202064
0.000201986
0.000201441
0.000184468
0.000186259
0.000185377
0.000203883
0.000202665
0.000203032
0.000201754
0.000184618
0.00018488
0.000203898
0.000202954
0.000202987
0.000201958
0.00020223
0.000201856
0.000203487
0.000185208
0.00018464
0.000201463
0.000202317
0.00020435
0.00018706
0.000185501
0.000188325
0.000203031
0.000202262
0.000206178
0.000207578
0.000185517
0.000189739
0.000202808
0.000202039
0.000205906
0.000207496
0.000204888
0.000207931
0.000208025
0.000185004
0.000189937
0.000205411
0.000208048
0.000207767
0.000189363
0.000188684
0.000190737
0.000207184
0.000208659
0.0002099
0.000209743
0.000189966
0.000190095
0.000207401
0.00020901
0.000210511
0.000210661
0.000208342
0.00020957
0.000208152
0.000190479
0.000190828
0.000208011
0.000210177
0.000207801
0.000188346
0.000190787
0.00019001
0.000210382
0.000209738
0.00021028
0.000209475
0.000189871
0.000189649
0.000210808
0.000210586
0.000210127
0.000208616
0.000208046
0.000209012
0.000209573
0.000190493
0.000188076
0.000207767
0.000208213
0.000209649
0.000190542
0.000189635
0.000190643
0.000209867
0.000209484
0.000209992
0.000211849
0.000189712
0.00019221
0.000209531
0.000208211
0.00020948
0.000210449
0.000210242
0.00021247
0.000211996
0.000187745
0.000192068
0.000210119
0.000211849
0.000212145
0.000191848
0.000191513
0.000194918
0.000211736
0.000212953
0.0002158
0.000215202
0.000192629
0.000193989
0.000211435
0.000212907
0.000216182
0.000217216
0.000212924
0.000215213
0.000215313
0.000193103
0.000196106
0.000213218
0.00021717
0.000215802
0.000194185
0.000194924
0.000195262
0.000216422
0.000215426
0.000217181
0.0002162
0.000193862
0.000194412
0.00021684
0.000217611
0.000217578
0.000217462
0.000215611
0.000215958
0.000216611
0.000195961
0.000194736
0.00021614
0.00021684
0.000216652
0.000194901
0.000195151
0.00019518
0.000217391
0.000216984
0.000217743
0.000218094
0.000194801
0.000195936
0.000217737
0.0002172
0.000217299
0.000215949
0.00021724
0.000218186
0.00021816
0.000194533
0.000193654
0.000216935
0.000215893
0.000217504
0.000195642
0.000194828
0.000192369
0.00021722
0.00021782
0.000215496
0.000215454
0.000195445
0.000192151
0.000216634
0.000215283
0.000214996
0.000213928
0.000217744
0.000215352
0.000215206
0.000193221
0.00019165
0.000217087
0.00021418
0.000215086
0.000192021
0.000192101
0.000198984
0.000215253
0.000215119
0.00022091
0.000220378
0.000191744
0.000198637
0.00021487
0.00021435
0.00022137
0.000222358
0.000214869
0.000220244
0.000220414
0.000192178
0.000200251
0.000214843
0.000222477
0.000221074
0.000198846
0.000200094
0.000205084
0.000223505
0.000223201
0.000228629
0.00022866
0.000199897
0.000205217
0.000223916
0.00022493
0.000228919
0.000229767
0.000223297
0.000228705
0.000228828
0.000201299
0.000205866
0.000223823
0.000229816
0.000229097
0.00020536
0.000204408
0.000195026
0.000229399
0.000229455
0.000221013
0.000220897
0.000204515
0.000194898
0.000229644
0.000230295
0.000220901
0.000220268
0.000229633
0.000220983
0.000221028
0.000204834
0.000194294
0.000229824
0.00022021
0.000220768
0.00019492
0.000193096
0.000183525
0.000217039
0.000216867
0.000207821
0.000207612
0.000192933
0.000183334
0.000216903
0.000216174
0.00020766
0.000206893
0.000216956
0.000207649
0.000207624
0.000192289
0.000182685
0.0002167
0.000206844
0.000207397
0.000183296
0.000182274
0.000193916
0.000206174
0.00020597
0.00021398
0.000214132
0.000182089
0.000194071
0.000206015
0.000205267
0.000213977
0.000214135
0.000205975
0.000214158
0.000213992
0.000181458
0.000194072
0.000205759
0.000214214
0.000214076
0.000193951
0.000197366
0.000215957
0.000222051
0.000222219
0.00024216
0.000242379
0.000197542
0.000216211
0.000222058
0.000222273
0.000242189
0.000242522
0.000222103
0.000242436
0.000242302
0.00019757
0.000216319
0.000222184
0.000242614
0.000242384
0.000216096
0.00021756
0.000222857
0.000247017
0.00024723
0.000255466
0.000255646
0.000217806
0.000222952
0.000247054
0.000247384
0.00025552
0.000255814
0.000247171
0.000255721
0.000255623
0.000217918
0.000223075
0.00024725
0.0002559
0.000255694
0.000222948
0.000220352
0.000205911
0.000254394
0.000254437
0.000235394
0.000235295
0.000220401
0.000205805
0.000254466
0.000254599
0.000235454
0.00023539
0.000254494
0.00023535
0.000235369
0.000220512
0.000205878
0.000254545
0.000235426
0.000235407
0.000205865
0.000202489
0.000183971
0.000228774
0.000228659
0.000208408
0.000208306
0.000202377
0.000183876
0.000228827
0.000228733
0.000208437
0.000208318
0.00022873
0.000208344
0.000208355
0.000202438
0.000183885
0.000228766
0.000208357
0.000208387
0.000183922
0.000181019
0.000166481
0.000202226
0.000202143
0.000187494
0.000187464
0.000180938
0.000166475
0.000202249
0.000202139
0.000187501
0.000187431
0.000202183
0.000187498
0.000187485
0.000180938
0.000166447
0.000202212
0.000187479
0.000187508
0.000166478
0.000164703
0.000170073
0.000184223
0.000184209
0.000185138
0.000185205
0.000164704
0.000170138
0.000184226
0.000184171
0.000185123
0.000185166
0.000184224
0.000185238
0.000185192
0.000164675
0.000170119
0.000184246
0.000185218
0.000185198
0.000170114
0.000173493
0.000195046
0.000193424
0.000193479
0.00021863
0.00021865
0.000173551
0.000195078
0.000193415
0.00019345
0.000218634
0.000218644
0.000193468
0.00021869
0.000218649
0.000173535
0.000195076
0.000193477
0.000218694
0.000218663
0.000195056
0.000198532
0.000219696
0.000226283
0.000226296
0.000250497
0.000250497
0.000198559
0.000219701
0.000226288
0.000226296
0.00025051
0.000250511
0.000226297
0.000250525
0.000250505
0.00019856
0.000219712
0.00022631
0.000250539
0.00025052
0.000219699
0.000224715
0.000254562
0.00025456
0.000224716
0.000254576
0.000254575
0.000292141
0.000292159
0.000292146
0.000254569
0.000224728
0.000254583
1.97137e-05
2.42067e-06
1.14937e-05
1.16127e-05
6.64378e-07
2.23014e-06
1.59633e-06
5.29138e-06
7.14313e-07
2.44131e-06
5.3512e-06
1.49148e-06
2.32211e-06
1.86287e-06
1.70172e-06
1.11793e-06
1.35267e-05
1.07019e-06
1.53097e-05
1.09275e-05
1.31436e-05
1.34203e-06
1.35092e-05
1.24575e-06
1.52939e-05
4.60709e-06
4.80128e-06
4.30431e-06
4.81494e-06
4.57847e-06
4.78891e-06
4.26211e-06
6.5076e-07
3.72163e-07
2.3309e-06
2.0859e-06
6.9217e-07
4.80349e-07
2.30329e-06
1.0926e-05
1.31988e-05
6.91615e-07
2.59909e-06
6.22171e-07
2.38055e-06
7.10158e-07
2.58064e-06
7.63867e-07
1.52449e-06
1.57203e-06
2.25807e-06
1.73366e-06
1.78499e-06
1.28545e-06
1.86071e-05
1.29972e-06
2.0911e-05
1.71683e-05
1.9325e-05
1.46549e-06
1.85975e-05
1.47768e-06
2.0914e-05
4.58986e-06
4.80123e-06
4.26538e-06
4.86644e-06
4.62874e-06
4.8383e-06
4.3074e-06
6.09916e-07
6.32765e-07