/*--------------------------------*- C++ -*----------------------------------*\
| =========                 |                                                 |
| \\      /  F ield         | OpenFOAM: The Open Source CFD Toolbox           |
|  \\    /   O peration     | Version:  v2012                                 |
|   \\  /    A nd           | Website:  www.openfoam.com                      |
|    \\/     M anipulation  |                                                 |
\*---------------------------------------------------------------------------*/
FoamFile
{
    version     2.0;
    format      ascii;
    class       volScalarField;
    location    "387.5";
    object      p;
}
// * * * * * * * * * * * * * * * * * * * * * * * * * * * * * * * * * * * * * //

dimensions      [0 2 -2 0 0 0 0];


internalField   nonuniform List<scalar> 
171728
(
0.00351422
0.00351314
0.0035132
0.0035139
0.00347865
0.00347727
0.00347727
0.00348011
0.00344034
0.00343842
0.00343844
0.00344073
0.00339619
0.00339446
0.00339447
0.00339674
0.00334798
0.00334648
0.00334658
0.00334886
0.00329913
0.00329777
0.00329771
0.00330016
0.00325101
0.00324976
0.00324976
0.00325215
0.00320377
0.00320273
0.00320271
0.00320507
0.00315739
0.00315649
0.00315637
0.00315878
0.00311201
0.0031112
0.00311116
0.00311353
0.00306764
0.00306696
0.0030669
0.00306926
0.00302396
0.00302338
0.00302328
0.00302571
0.00298085
0.00298027
0.00298032
0.00298267
0.00293815
0.00293762
0.00293784
0.00294004
0.00289575
0.00289553
0.00289553
0.00289767
0.00285371
0.00285334
0.00285348
0.0028557
0.00281203
0.00281167
0.00281185
0.00281405
0.00277066
0.00277044
0.00277055
0.00277272
0.00272965
0.00272947
0.0027296
0.00273165
0.00268903
0.00268882
0.00268908
0.00269089
0.00264872
0.00264861
0.00264875
0.00265045
0.00260871
0.00260878
0.00260859
0.0026104
0.002569
0.00256918
0.00256915
0.00257072
0.00252954
0.00252967
0.00252964
0.00253134
0.00249036
0.00249063
0.0024906
0.00249224
0.00245138
0.00245149
0.00245161
0.00245336
0.00241264
0.00241291
0.00241298
0.00241472
0.00237412
0.00237448
0.0023745
0.00237633
0.00233579
0.00233618
0.00233611
0.00233806
0.00229767
0.00229809
0.0022981
0.0023
0.0022597
0.00226018
0.00226021
0.00226208
0.00222188
0.00222239
0.00222237
0.00222427
0.00218422
0.00218472
0.00218471
0.00218661
0.00214669
0.00214722
0.00214723
0.00214907
0.00210931
0.00210982
0.00210982
0.00211169
0.00207205
0.00207255
0.00207253
0.00207444
0.00203495
0.00203538
0.00203539
0.00203724
0.00199796
0.00199834
0.00199832
0.00200024
0.0019611
0.00196144
0.00196147
0.00196343
0.00192442
0.00192464
0.00192465
0.00192653
0.00188776
0.00188805
0.00188801
0.0018901
0.00185148
0.0018515
0.00185152
0.00185346
0.00181489
0.00181512
0.00181513
0.00181718
0.00177898
0.00177893
0.00177884
0.0017809
0.00174267
0.00174265
0.00174279
0.0017448
0.001707
0.00170687
0.00170674
0.00170889
0.00167086
0.00167082
0.001671
0.00167296
0.00163562
0.00163531
0.00163508
0.00163732
0.00159965
0.00159958
0.00159968
0.00160164
0.0015645
0.0015642
0.00156417
0.00156621
0.00152881
0.00152851
0.00152867
0.00153072
0.00149373
0.00149369
0.00149334
0.00149549
0.00145877
0.00145821
0.00145858
0.00146036
0.0014234
0.00142304
0.00142306
0.00142516
0.0013884
0.00138839
0.00138808
0.00139023
0.00135352
0.00135339
0.00135348
0.00135526
0.00131908
0.00131841
0.00131843
0.0013204
0.00128405
0.00128369
0.00128387
0.00128577
0.00124921
0.00124937
0.00124905
0.00125111
0.00121448
0.00121424
0.00121421
0.00121617
0.00118018
0.00117953
0.00117995
0.00118166
0.00114532
0.00114544
0.0011452
0.00114711
0.00111101
0.00111058
0.00111047
0.00111264
0.00107621
0.00107603
0.00107617
0.00107783
0.00104174
0.00104185
0.00104181
0.00104375
0.00100776
0.00100717
0.00100721
0.00100916
0.000972914
0.000972814
0.000972756
0.000974661
0.000938444
0.000938421
0.000938508
0.000940388
0.000904123
0.000903969
0.000903817
0.000905772
0.000869483
0.000869209
0.000869371
0.000871222
0.000835049
0.000835048
0.00083488
0.000836889
0.00080065
0.000800364
0.00080044
0.000802291
0.000765925
0.000765929
0.000765978
0.000767971
0.000731532
0.000731533
0.000731474
0.000733353
0.000696953
0.00069661
0.000696622
0.000698545
0.00066212
0.000662177
0.000662106
0.000664192
0.000627689
0.000627705
0.000627819
0.000629651
0.000593244
0.000592933
0.000592952
0.000594886
0.000558262
0.000558215
0.000558087
0.000560101
0.000523461
0.000523477
0.000523482
0.000525463
0.000488477
0.000488384
0.000488518
0.000490415
0.000453954
0.000453937
0.000453892
0.000455873
0.000419096
0.000418897
0.000418847
0.000420797
0.000383199
0.000383089
0.000383093
0.000385093
0.000347718
0.000347955
0.000347999
0.000350069
0.000313968
0.000314095
0.000314119
0.000316084
0.000280533
0.000279818
0.000279791
0.000281525
0.000244787
0.000244335
0.000244324
0.000246153
0.000207036
0.00020717
0.000207169
0.000209385
0.00016827
0.000169
0.000169003
0.000171459
0.000130962
0.000131472
0.000131474
0.000133796
9.71022e-05
9.73615e-05
9.7364e-05
9.93302e-05
6.71789e-05
6.64459e-05
6.64432e-05
6.78422e-05
3.6329e-05
3.50672e-05
3.50637e-05
3.63636e-05
7.91195e-06
8.79755e-06
8.79321e-06
6.63829e-06
0.00351864
0.00351619
0.00351613
0.00351856
0.00351621
0.00351622
0.00352259
0.00352256
0.00352261
0.00352258
0.00351611
0.00351618
0.00351866
0.00351623
0.0035163
0.00351866
0.00351388
0.00348482
0.00351316
0.00351314
0.0034866
0.00348658
0.00351381
0.00348482
0.00351319
0.00351319
0.00348661
0.0034866
0.00351319
0.0034866
0.0034866
0.00351389
0.00348481
0.00351321
0.00348661
0.00348656
0.00348482
0.00348009
0.00344623
0.00347727
0.00347728
0.00344845
0.00344844
0.00348008
0.00344624
0.00347729
0.00347728
0.00344847
0.00344844
0.00347729
0.00344843
0.00344846
0.00348008
0.00344622
0.00347733
0.00344844
0.00344851
0.00344624
0.00344072
0.00340294
0.0034384
0.00343844
0.00340597
0.00340601
0.00344073
0.00340295
0.00343842
0.00343845
0.00340598
0.00340597
0.00343842
0.00340601
0.00340599
0.00344073
0.00340292
0.00343846
0.00340599
0.00340607
0.00340292
0.00339675
0.00335533
0.00339449
0.00339446
0.0033587
0.00335873
0.00339674
0.00335532
0.00339449
0.00339451
0.00335871
0.00335868
0.00339454
0.00335875
0.00335872
0.00339673
0.00335532
0.00339454
0.00335872
0.00335875
0.00335533
0.00334885
0.00330659
0.00334649
0.0033465
0.00330992
0.00330988
0.00334883
0.00330657
0.00334651
0.0033465
0.00330992
0.00330992
0.0033465
0.00330989
0.00330996
0.00334885
0.00330658
0.00334656
0.00331009
0.00330997
0.0033066
0.00330014
0.00325844
0.00329775
0.00329777
0.00326167
0.0032617
0.00330013
0.00325843
0.00329777
0.00329777
0.00326167
0.00326165
0.00329775
0.00326168
0.00326166
0.00330014
0.00325842
0.00329774
0.00326178
0.00326166
0.00325843
0.00325213
0.00321122
0.00324975
0.00324977
0.00321438
0.00321433
0.00325212
0.0032112
0.00324977
0.00324977
0.00321436
0.00321436
0.00324978
0.00321433
0.00321438
0.00325213
0.00321119
0.00324984
0.00321442
0.00321442
0.00321122
0.00320504
0.00316485
0.00320268
0.00320271
0.0031679
0.00316787
0.00320502
0.00316482
0.0032027
0.00320268
0.00316789
0.00316789
0.0032027
0.00316789
0.00316788
0.00320502
0.00316484
0.00320279
0.00316785
0.00316793
0.00316482
0.00315881
0.00311947
0.00315641
0.00315651
0.00312238
0.00312238
0.00315882
0.00311943
0.00315641
0.00315642
0.00312237
0.00312235
0.00315637
0.00312241
0.00312238
0.00315879
0.00311944
0.00315652
0.00312234
0.00312232
0.00311942
0.00311355
0.00307504
0.00311117
0.00311126
0.0030779
0.00307787
0.00311357
0.00307505
0.00311117
0.00311118
0.00307791
0.0030779
0.00311112
0.00307792
0.0030779
0.00311355
0.00307503
0.00311117
0.00307789
0.00307782
0.00307501
0.00306926
0.00303137
0.00306691
0.00306699
0.00303415
0.0030341
0.00306933
0.00303132
0.00306688
0.00306691
0.00303417
0.00303421
0.00306696
0.00303412
0.00303416
0.00306926
0.00303138
0.00306686
0.0030342
0.00303418
0.0030314
0.00302568
0.00298825
0.0030233
0.00302333
0.002991
0.00299096
0.00302568
0.00298815
0.0030233
0.00302329
0.00299098
0.00299097
0.00302334
0.00299095
0.002991
0.00302565
0.00298825
0.00302336
0.00299097
0.00299098
0.00298823
0.00298267
0.00294554
0.0029803
0.00298028
0.00294828
0.00294834
0.00298259
0.00294559
0.00298031
0.00298032
0.00294829
0.00294832
0.00298035
0.00294833
0.00294842
0.00298266
0.00294563
0.00298031
0.00294832
0.00294841
0.00294563
0.00294002
0.00290316
0.00293773
0.00293767
0.00290602
0.00290603
0.00293999
0.00290326
0.00293772
0.00293784
0.00290602
0.00290601
0.0029377
0.00290602
0.00290594
0.00294013
0.00290328
0.0029377
0.002906
0.00290597
0.00290318
0.00289766
0.0028612
0.00289534
0.00289548
0.00286401
0.002864
0.00289779
0.00286118
0.00289537
0.00289554
0.00286403
0.00286399
0.00289531
0.00286402
0.00286382
0.00289783
0.00286121
0.00289532
0.002864
0.00286382
0.00286112
0.00285573
0.00281953
0.00285351
0.00285336
0.0028223
0.00282218
0.00285569
0.00281937
0.00285348
0.00285349
0.00282227
0.00282227
0.00285342
0.00282217
0.00282212
0.00285577
0.00281947
0.00285341
0.00282226
0.00282215
0.00281941
0.00281415
0.00277801
0.00281192
0.00281168
0.00278077
0.00278072
0.00281398
0.00277792
0.0028119
0.00281184
0.00278074
0.00278088
0.00281179
0.00278073
0.0027807
0.00281407
0.00277802
0.00281178
0.00278088
0.00278067
0.00277797
0.0027727
0.00273681
0.00277052
0.00277041
0.00273974
0.00273971
0.00277262
0.00273683
0.0027705
0.00277053
0.00273969
0.00273982
0.00277052
0.00273975
0.00273969
0.00277269
0.00273691
0.00277055
0.00273978
0.00273971
0.00273688
0.00273156
0.00269609
0.00272947
0.00272949
0.00269912
0.00269905
0.0027316
0.00269611
0.00272949
0.00272959
0.0026991
0.00269909
0.0027295
0.00269909
0.00269903
0.00273166
0.00269614
0.00272951
0.00269907
0.00269905
0.00269609
0.00269093
0.00265563
0.00268893
0.00268886
0.00265873
0.00265872
0.0026909
0.00265557
0.00268893
0.00268907
0.00265869
0.00265865
0.00268889
0.00265874
0.00265873
0.002691
0.0026557
0.00268888
0.00265863
0.00265873
0.00265554
0.00265051
0.00261552
0.00264861
0.00264862
0.00261873
0.00261874
0.00265045
0.00261544
0.00264862
0.00264876
0.00261871
0.0026187
0.00264869
0.00261875
0.00261878
0.00265056
0.00261549
0.00264868
0.00261871
0.00261876
0.00261543
0.00261043
0.00257578
0.00260865
0.00260876
0.00257899
0.00257899
0.00261044
0.00257569
0.00260865
0.00260858
0.00257899
0.00257914
0.00260875
0.00257898
0.00257903
0.00261036
0.00257582
0.00260873
0.00257915
0.00257903
0.00257571
0.00257074
0.00253633
0.00256905
0.00256914
0.00253949
0.00253947
0.00257075
0.00253624
0.00256905
0.00256914
0.00253949
0.00253954
0.00256908
0.00253947
0.00253952
0.00257085
0.00253621
0.00256906
0.00253955
0.00253951
0.00253632
0.00253136
0.0024972
0.00252969
0.00252968
0.00250027
0.00250027
0.00253125
0.00249715
0.00252968
0.00252964
0.00250027
0.00250039
0.00252969
0.00250029
0.00250028
0.00253124
0.00249721
0.00252969
0.00250041
0.00250027
0.00249719
0.00249222
0.00245833
0.00249053
0.00249062
0.00246131
0.00246126
0.00249232
0.00245826
0.00249052
0.00249059
0.00246131
0.00246136
0.00249054
0.00246127
0.00246129
0.00249231
0.00245823
0.00249055
0.00246136
0.00246129
0.00245832
0.00245337
0.0024196
0.00245159
0.00245149
0.00242259
0.00242258
0.00245313
0.00241973
0.00245159
0.00245161
0.00242259
0.00242262
0.00245159
0.00242258
0.00242257
0.00245327
0.00241973
0.0024516
0.00242262
0.00242258
0.00241965
0.00241465
0.00238131
0.00241291
0.0024129
0.00238411
0.00238411
0.00241478
0.00238137
0.00241291
0.00241298
0.00238409
0.00238405
0.00241292
0.00238413
0.00238407
0.0024148
0.00238117
0.00241292
0.00238405
0.00238407
0.00238125
0.00237641
0.00234296
0.0023745
0.00237448
0.00234572
0.00234572
0.0023765
0.00234287
0.0023745
0.0023745
0.00234572
0.00234569
0.00237446
0.00234573
0.00234572
0.00237631
0.00234304
0.00237446
0.00234569
0.00234572
0.00234299
0.00233805
0.00230494
0.00233617
0.00233618
0.00230759
0.00230759
0.00233796
0.00230493
0.00233618
0.00233611
0.0023076
0.00230766
0.00233616
0.00230759
0.0023076
0.00233801
0.00230507
0.00233616
0.00230766
0.0023076
0.00230493
0.00230004
0.00226696
0.00229809
0.00229809
0.00226965
0.00226968
0.00229999
0.00226706
0.00229809
0.0022981
0.00226964
0.00226963
0.00229807
0.00226968
0.00226964
0.00230021
0.00226678
0.00229807
0.00226963
0.00226963
0.00226698
0.00226206
0.00222918
0.00226017
0.00226017
0.0022318
0.0022318
0.00226219
0.00222907
0.00226017
0.0022602
0.00223181
0.0022318
0.00226017
0.00223179
0.0022318
0.00226189
0.00222934
0.00226016
0.0022318
0.00223181
0.00222918
0.00222428
0.0021915
0.00222238
0.00222239
0.00219413
0.00219414
0.00222415
0.00219159
0.00222238
0.00222237
0.00219412
0.00219409
0.00222236
0.00219414
0.00219414
0.00222441
0.00219141
0.00222237
0.00219409
0.00219413
0.0021915
0.00218661
0.00215397
0.00218473
0.00218472
0.00215657
0.00215658
0.00218668
0.00215392
0.00218472
0.00218472
0.00215658
0.0021566
0.00218472
0.00215658
0.00215658
0.00218656
0.00215398
0.00218472
0.00215661
0.00215658
0.00215397
0.00214907
0.00211657
0.00214721
0.00214722
0.00211916
0.00211915
0.00214903
0.00211659
0.00214721
0.00214722
0.00211916
0.00211915
0.00214722
0.00211915
0.00211917
0.00214908
0.00211658
0.00214722
0.00211916
0.00211917
0.00211659
0.00211168
0.00207929
0.00210982
0.00210982
0.00208184
0.00208184
0.00211169
0.0020793
0.00210982
0.00210982
0.00208184
0.00208183
0.00210983
0.00208185
0.00208181
0.00211169
0.00207927
0.00210983
0.00208183
0.00208181
0.00207929
0.0020744
0.00204214
0.00207253
0.00207255
0.00204467
0.00204466
0.00207444
0.00204211
0.00207253
0.00207252
0.00204466
0.00204467
0.00207251
0.00204467
0.00204467
0.00207441
0.00204215
0.00207252
0.00204466
0.00204466
0.00204212
0.00203727
0.0020051
0.00203539
0.00203536
0.00200757
0.00200758
0.00203722
0.00200517
0.00203539
0.00203538
0.00200758
0.00200758
0.00203538
0.00200757
0.00200758
0.00203726
0.00200511
0.00203538
0.00200758
0.00200758
0.00200512
0.00200023
0.00196825
0.00199832
0.00199836
0.00197066
0.00197066
0.00200032
0.00196818
0.00199832
0.00199833
0.00197065
0.00197064
0.00199831
0.00197068
0.00197068
0.00200025
0.00196824
0.00199832
0.00197065
0.00197067
0.00196827
0.00196339
0.00193146
0.00196146
0.00196142
0.00193385
0.00193379
0.00196329
0.00193147
0.00196146
0.00196145
0.00193386
0.00193388
0.0019615
0.00193378
0.00193381
0.00196339
0.00193146
0.00196147
0.00193386
0.00193385
0.0019314
0.00192661
0.00189483
0.00192464
0.00192465
0.00189714
0.00189726
0.00192668
0.00189489
0.00192465
0.00192466
0.00189712
0.00189712
0.00192459
0.00189725
0.00189715
0.0019266
0.00189486
0.00192461
0.00189713
0.00189713
0.00189491
0.00189002
0.00185836
0.00188802
0.00188806
0.00186068
0.00186056
0.00188997
0.0018583
0.001888
0.00188801
0.00186069
0.00186066
0.00188804
0.00186056
0.0018607
0.00189005
0.00185829
0.00188804
0.00186066
0.0018607
0.00185832
0.0018535
0.00182196
0.00185154
0.00185148
0.00182413
0.00182423
0.00185351
0.00182203
0.00185156
0.00185151
0.00182412
0.00182419
0.00185153
0.00182423
0.00182412
0.00185345
0.00182203
0.00185154
0.00182419
0.0018241
0.00182196
0.00181717
0.0017857
0.00181506
0.00181515
0.00178797
0.00178796
0.00181722
0.00178574
0.00181505
0.00181513
0.00178797
0.00178791
0.00181509
0.00178796
0.00178799
0.00181721
0.00178563
0.00181504
0.0017879
0.00178805
0.00178575
0.00178088
0.00174966
0.00177892
0.00177891
0.00175176
0.00175168
0.00178091
0.00174948
0.00177892
0.00177883
0.00175175
0.0017518
0.00177891
0.00175169
0.00175173
0.00178084
0.0017497
0.00177898
0.0017518
0.00175163
0.00174957
0.00174487
0.00171358
0.00174275
0.00174265
0.00171578
0.00171581
0.0017447
0.00171375
0.00174276
0.0017428
0.00171579
0.00171577
0.00174271
0.0017158
0.00171581
0.00174489
0.00171356
0.00174265
0.00171575
0.00171588
0.00171369
0.0017088
0.00167781
0.00170678
0.00170689
0.00167984
0.00167982
0.00170898
0.00167766
0.00170677
0.00170675
0.00167983
0.00167988
0.00170685
0.00167984
0.00167986
0.0017088
0.00167783
0.00170686
0.00167992
0.00167983
0.00167774
0.00167305
0.00164204
0.00167093
0.00167082
0.00164424
0.00164416
0.00167288
0.00164209
0.00167094
0.00167095
0.00164426
0.00164412
0.00167087
0.00164416
0.00164412
0.00167304
0.00164193
0.0016709
0.00164407
0.00164412
0.00164206
0.00163725
0.00160641
0.00163525
0.00163529
0.00160841
0.0016085
0.00163734
0.00160644
0.00163524
0.00163516
0.00160837
0.00160846
0.00163528
0.0016085
0.00160853
0.00163717
0.00160649
0.00163525
0.00160849
0.00160853
0.00160641
0.00160169
0.00157095
0.00159958
0.0015996
0.00157308
0.00157306
0.00160167
0.00157095
0.00159958
0.00159963
0.0015731
0.00157314
0.00159959
0.00157307
0.001573
0.00160176
0.00157093
0.00159957
0.00157312
0.00157297
0.00157095
0.00156618
0.00153546
0.00156416
0.00156418
0.00153745
0.00153739
0.00156619
0.00153537
0.00156415
0.00156419
0.00153747
0.00153741
0.00156416
0.00153738
0.00153749
0.00156616
0.00153547
0.00156418
0.00153748
0.00153763
0.00153547
0.00153072
0.00150033
0.00152864
0.00152854
0.00150237
0.00150234
0.00153063
0.00150036
0.00152868
0.0015286
0.0015024
0.00150229
0.00152861
0.00150232
0.00150227
0.00153073
0.00150016
0.0015287
0.00150214
0.00150208
0.00150019
0.00149562
0.00146495
0.00149364
0.00149369
0.00146705
0.00146719
0.00149569
0.00146503
0.00149363
0.00149348
0.00146696
0.00146714
0.00149355
0.00146723
0.00146717
0.00149545
0.00146514
0.00149336
0.00146729
0.00146731
0.00146511
0.00146019
0.00142984
0.00145817
0.00145821
0.00143181
0.00143166
0.00146024
0.00142967
0.00145811
0.00145838
0.00143193
0.00143197
0.00145825
0.00143169
0.00143183
0.00146042
0.00142989
0.00145846
0.00143196
0.00143188
0.00142985
0.00142518
0.00139505
0.00142314
0.00142298
0.0013971
0.00139713
0.00142499
0.00139513
0.00142327
0.00142311
0.00139706
0.00139683
0.00142318
0.00139712
0.00139711
0.00142515
0.00139482
0.00142315
0.00139675
0.00139698
0.00139497
0.00139032
0.00136
0.00138835
0.00138845
0.00136209
0.0013622
0.00139045
0.00136007
0.00138823
0.00138813
0.001362
0.00136214
0.00138826
0.00136212
0.00136193
0.00139011
0.00136011
0.00138816
0.00136215
0.00136195
0.00135993
0.00135531
0.00132504
0.00135335
0.00135341
0.00132709
0.00132706
0.00135536
0.00132498
0.00135335
0.00135347
0.00132722
0.0013272
0.00135327
0.00132716
0.00132725
0.00135542
0.00132508
0.00135331
0.00132719
0.00132726
0.00132512
0.00132031
0.0012904
0.00131836
0.00131833
0.00129243
0.00129231
0.00132024
0.00129024
0.00131847
0.00131843
0.00129245
0.00129241
0.00131851
0.0012923
0.0012924
0.00132036
0.00129043
0.00131851
0.00129248
0.0012925
0.00129041
0.00128578
0.00125589
0.00128384
0.00128371
0.00125794
0.00125798
0.00128561
0.00125607
0.00128386
0.00128382
0.00125788
0.00125792
0.00128379
0.00125794
0.00125794
0.0012858
0.00125581
0.00128389
0.00125788
0.00125791
0.00125587
0.00125114
0.00122084
0.00124919
0.00124939
0.00122293
0.00122313
0.00125144
0.00122093
0.00124908
0.00124913
0.00122285
0.00122278
0.00124919
0.00122313
0.00122291
0.00125104
0.00122078
0.00124906
0.00122279
0.00122279
0.00122084
0.00121617
0.0011863
0.00121427
0.00121423
0.00118832
0.00118807
0.00121616
0.00118605
0.00121426
0.00121418
0.00118849
0.00118855
0.00121425
0.00118808
0.00118836
0.00121613
0.0011865
0.00121424
0.00118857
0.00118859
0.00118635
0.00118161
0.00115179
0.00117966
0.0011795
0.00115384
0.00115401
0.0011814
0.00115198
0.00117981
0.00117995
0.00115377
0.00115391
0.0011797
0.00115401
0.00115384
0.00118184
0.00115177
0.00117989
0.00115392
0.00115374
0.00115177
0.00114715
0.00111738
0.00114529
0.00114545
0.00111948
0.00111937
0.00114735
0.00111728
0.00114517
0.0011452
0.00111942
0.00111914
0.00114526
0.00111933
0.00111944
0.00114705
0.00111716
0.00114511
0.00111911
0.00111938
0.00111736
0.00111265
0.00108252
0.00111073
0.00111062
0.00108453
0.0010846
0.00111255
0.00108255
0.00111074
0.00111049
0.00108461
0.00108471
0.00111071
0.00108459
0.00108452
0.00111248
0.00108267
0.00111076
0.00108474
0.00108461
0.00108251
0.00107784
0.00104836
0.0010759
0.00107602
0.00105032
0.00105044
0.00107789
0.00104844
0.00107596
0.00107617
0.0010503
0.00105043
0.00107589
0.00105048
0.00105032
0.00107801
0.0010484
0.00107594
0.00105045
0.00105027
0.00104836
0.00104375
0.00101384
0.00104183
0.00104182
0.00101597
0.00101581
0.00104377
0.00101377
0.00104179
0.0010418
0.00101597
0.00101583
0.00104182
0.00101581
0.00101599
0.00104374
0.0010138
0.00104177
0.00101585
0.00101601
0.00101388
0.00100911
0.000979306
0.00100724
0.00100717
0.00098134
0.000981402
0.00100907
0.000979358
0.00100725
0.00100718
0.00098133
0.000981366
0.0010073
0.000981409
0.000981405
0.00100909
0.000979332
0.00100732
0.00098135
0.00098138
0.000979325
0.00097466
0.000945066
0.000972764
0.000972824
0.000947013
0.000947031
0.000974697
0.000945027
0.000972765
0.000972795
0.000947044
0.000947083
0.00097279
0.000947004
0.000946978
0.000974674
0.00094508
0.00097278
0.000947074
0.000947031
0.000945042
0.000940392
0.000910569
0.00093842
0.000938429
0.000912611
0.000912649
0.000940365
0.000910643
0.000938434
0.000938471
0.000912549
0.000912537
0.000938401
0.000912675
0.000912598
0.000940415
0.000910508
0.000938443
0.000912521
0.000912481
0.000910513
0.00090586
0.000875828
0.000903956
0.000903965
0.000877845
0.000877817
0.000905898
0.000875769
0.000903924
0.000903876
0.000877917
0.000877936
0.000903886
0.000877803
0.000877842
0.000905788
0.000875917
0.000903789
0.000877946
0.000877954
0.000875879
0.000871123
0.000841574
0.000869204
0.000869197
0.000843574
0.0008436
0.00087109
0.000841661
0.000869249
0.00086929
0.000843509
0.000843487
0.00086928
0.000843624
0.000843667
0.000871234
0.000841497
0.000869405
0.000843517
0.000843577
0.000841592
0.000836938
0.000807086
0.000835054
0.000835058
0.000809119
0.000809078
0.000836999
0.00080701
0.000834976
0.000834926
0.000809157
0.00080912
0.000835039
0.000809051
0.000808996
0.000836817
0.000807079
0.000834901
0.000809042
0.000808984
0.000806983
0.000802341
0.000772471
0.000800387
0.000800373
0.000774431
0.000774465
0.000802273
0.000772526
0.000800452
0.000800453
0.000774455
0.000774504
0.000800344
0.000774492
0.00077455
0.00080238
0.000772571
0.000800402
0.0007746
0.000774652
0.000772649
0.000767805
0.000738205
0.000765873
0.000765904
0.00074018
0.000740211
0.000767873
0.000738228
0.00076586
0.000765908
0.000740128
0.000740169
0.00076598
0.000740201
0.000740132
0.000767881
0.000738159
0.000766018
0.000740121
0.00074003
0.000738077
0.000733496
0.000703355
0.000731534
0.000731557
0.000705399
0.000705346
0.000733492
0.000703281
0.000731512
0.000731545
0.000705445
0.000705379
0.000731447
0.000705319
0.000705301
0.000733448
0.000703322
0.000731372
0.000705338
0.00070534
0.00070328
0.000698606
0.000668702
0.000696699
0.000696632
0.000670702
0.000670715
0.000698538
0.000668773
0.000696733
0.000696639
0.000670661
0.000670614
0.000696619
0.000670745
0.000670807
0.000698574
0.000668676
0.000696668
0.000670676
0.000670801
0.000668856
0.00066401
0.000634348
0.000662071
0.000662126
0.000636276
0.000636328
0.000664101
0.000634383
0.000662024
0.000662029
0.000636286
0.000636391
0.000662227
0.000636364
0.000636342
0.000664001
0.000634462
0.000662206
0.000636417
0.000636339
0.000634368
0.000629672
0.000599758
0.00062769
0.000627703
0.000601787
0.0006017
0.000629665
0.000599642
0.000627726
0.00062783
0.000601826
0.000601794
0.000627686
0.000601639
0.000601675
0.000629786
0.000599689
0.000627698
0.000601707
0.000601696
0.00059964
0.000594977
0.000564788
0.000593054
0.000592984
0.000566835
0.000566851
0.000594892
0.000564853
0.000593065
0.000593009
0.000566797
0.000566749
0.000592969
0.000566868
0.000566843
0.000594913
0.000564738
0.000592978
0.000566764
0.000566803
0.000564822
0.000560049
0.000530154
0.000558137
0.000558181
0.000532132
0.000532191
0.000560129
0.00053021
0.000558096
0.000558056
0.000532117
0.000532122
0.000558176
0.000532215
0.000532183
0.000560001
0.000530182
0.000558129
0.00053216
0.00053218
0.000530209
0.000525421
0.000495238
0.00052344
0.000523472
0.000497196
0.000497154
0.000525451
0.000495142
0.000523443
0.000523457
0.000497238
0.000497277
0.000523464
0.000497127
0.000497149
0.000525454
0.000495287
0.000523487
0.000497266
0.00049721
0.000495183
0.000490465
0.000460532
0.00048845
0.000488405
0.000462492
0.000462489
0.000490375
0.000460552
0.000488494
0.000488538
0.000462498
0.000462541
0.000488409
0.0004625
0.000462515
0.000490514
0.000460555
0.000488456
0.000462525
0.000462496
0.000460549
0.000455844
0.000425614
0.000453908
0.000453921
0.000427729
0.000427758
0.000455881
0.000425653
0.000453897
0.000453899
0.000427694
0.000427669
0.000453946
0.000427763
0.000427745
0.000455832
0.000425582
0.000453912
0.000427678
0.000427713
0.000425623
0.000420794
0.000389989
0.000418886
0.0004189
0.000392073
0.000392072
0.00042082
0.000389971
0.000418864
0.00041884
0.000392075
0.000392049
0.000418882
0.000392064
0.000392053
0.000420765
0.000389968
0.000418869
0.000392048
0.000392062
0.000389969
0.00038511
0.000354797
0.000383098
0.000383097
0.000356629
0.00035662
0.00038509
0.000354779
0.000383107
0.000383094
0.000356645
0.000356667
0.00038308
0.000356619
0.000356627
0.000385102
0.000354823
0.000383095
0.000356668
0.000356646
0.000354798
0.000350064
0.000320634
0.000347961
0.000347953
0.00032245
0.000322446
0.000350048
0.000320632
0.000347977
0.000347998
0.000322458
0.000322479
0.000347965
0.000322448
0.000322459
0.000350091
0.000320661
0.000347982
0.00032248
0.000322464
0.00032064
0.000316077
0.0002863
0.000314097
0.000314094
0.000288578
0.000288567
0.000316078
0.000286298
0.0003141
0.000314119
0.000288567
0.000288549
0.000314102
0.000288565
0.000288569
0.000316106
0.000286273
0.000314105
0.000288539
0.000288555
0.00028629
0.000281532
0.000251054
0.000279827
0.00027982
0.000253318
0.000253319
0.000281533
0.000251055
0.000279817
0.000279798
0.000253315
0.000253304
0.000279819
0.000253317
0.000253311
0.000281508
0.000251042
0.000279804
0.000253302
0.000253307
0.000251046
0.000246159
0.000214482
0.000244336
0.000244337
0.000216583
0.000216584
0.000246158
0.000214483
0.000244334
0.000244325
0.000216584
0.000216579
0.00024433
0.000216583
0.00021658
0.000246148
0.00021448
0.000244328
0.00021658
0.000216581
0.00021448
0.000209385
0.000176713
0.000207169
0.000207171
0.000178617
0.000178619
0.000209386
0.000176714
0.000207169
0.000207168
0.000178617
0.000178619
0.000207168
0.000178619
0.00017862
0.000209385
0.000176716
0.000207169
0.000178621
0.00017862
0.000176714
0.000171456
0.000138804
0.000168999
0.000169
0.000140622
0.000140622
0.000171457
0.000138803
0.000168999
0.000169002
0.000140623
0.000140624
0.000169002
0.000140621
0.000140623
0.000171459
0.000138804
0.000169002
0.000140623
0.000140623
0.000138804
0.000133795
0.000103789
0.000131474
0.000131473
0.000105488
0.000105485
0.000133793
0.00010378
0.000131476
0.000131475
0.000105496
0.000105489
0.000131474
0.000105485
0.000105486
0.000133793
0.000103786
0.000131475
0.000105489
0.000105494
0.000103787
9.93318e-05
7.20736e-05
9.73638e-05
9.73619e-05
7.41239e-05
7.41227e-05
9.93286e-05
7.20721e-05
9.73663e-05
9.73635e-05
7.4124e-05
7.41213e-05
9.73608e-05
7.41212e-05
7.41209e-05
9.93316e-05
7.20702e-05
9.7363e-05
7.41198e-05
7.41198e-05
7.20692e-05
6.7846e-05
4.08662e-05
6.6448e-05
6.64466e-05
4.30648e-05
4.30647e-05
6.78449e-05
4.08648e-05
6.64475e-05
6.64451e-05
4.30619e-05
4.30588e-05
6.64447e-05
4.30611e-05
4.30592e-05
6.78427e-05
4.08604e-05
6.64435e-05
4.30569e-05
4.30571e-05
4.08624e-05
3.63638e-05
9.95598e-06
3.50708e-05
3.5071e-05
1.32199e-05
1.32207e-05
3.63597e-05
9.9567e-06
3.50669e-05
3.50637e-05
1.3224e-05
1.32172e-05
3.50644e-05
1.3223e-05
1.3217e-05
3.63569e-05
9.95124e-06
3.50639e-05
1.32188e-05
1.32214e-05
9.95381e-06
6.64005e-06
8.79428e-06
8.79329e-06
6.64007e-06
8.79772e-06
8.79036e-06
7.9121e-06
7.91061e-06
7.91179e-06
8.79244e-06
6.63475e-06
8.79558e-06
0.00352569
0.00352826
0.00352697
0.00352714
0.00355459
0.00352808
0.00355771
0.00352837
0.00355467
0.00352826
0.00352846
0.00355783
0.00353922
0.00356099
0.00356097
0.00349825
0.00351189
0.00351567
0.00349055
0.00348854
0.00349391
0.00349818
0.00351197
0.0035157
0.00349052
0.00351421
0.00351423
0.00351423
0.00348771
0.00348774
0.0034877
0.0034877
0.00349797
0.00350949
0.0035148
0.00350544
0.00351692
0.00349506
0.00350576
0.00348867
0.00349396
0.00349791
0.00351484
0.00350958
0.00350543
0.00351694
0.00350576
0.00349508
0.00351565
0.00351576
0.0035027
0.00349497
0.00349486
0.00347085
0.00348493
0.0034847
0.00346874
0.00348218
0.00346779
0.0034708
0.00348493
0.00348469
0.00346871
0.00347867
0.00347863
0.00347864
0.00345042
0.00345046
0.0034504
0.00345039
0.00346852
0.00348346
0.00347711
0.00346769
0.00348189
0.003469
0.00346771
0.00348221
0.00346765
0.00346852
0.0034771
0.00348345
0.00346774
0.00348185
0.00346775
0.00346905
0.00348518
0.00348507
0.00346624
0.00346933
0.00346934
0.00342847
0.00344295
0.00344378
0.00342695
0.00344182
0.00342612
0.00342839
0.00344293
0.00344385
0.00342694
0.00344038
0.00344033
0.0034403
0.00340776
0.00340781
0.00340776
0.00340774
0.00342709
0.0034426
0.00343832
0.00342794
0.00344147
0.00342745
0.00342798
0.00344174
0.0034261
0.00342704
0.00343836
0.00344262
0.00342793
0.00344147
0.00342797
0.00342741
0.00344322
0.00344321
0.00342528
0.00342723
0.00342726
0.00338195
0.00339837
0.00339986
0.00338042
0.00339761
0.00337996
0.00338196
0.00339833
0.00339977
0.00338042
0.0033962
0.00339617
0.00339617
0.00336019
0.00336022
0.00336018
0.00336016
0.00338113
0.00339822
0.00339447
0.00338281
0.00339757
0.00338112
0.00338272
0.00339759
0.00337995
0.0033811
0.00339448
0.00339817
0.0033828
0.00339758
0.00338273
0.00338108
0.00339837
0.00339837
0.00337947
0.00338065
0.00338064
0.00333287
0.00335002
0.00335141
0.00333165
0.00334964
0.00333134
0.00333283
0.00334998
0.00335133
0.00333166
0.00334801
0.00334797
0.00334795
0.0033113
0.00331132
0.00331129
0.00331128
0.00333249
0.00335001
0.00334651
0.00333432
0.00334967
0.00333239
0.00333431
0.00334962
0.00333134
0.00333247
0.00334654
0.00335
0.00333418
0.00334964
0.00333427
0.00333233
0.00335004
0.00335005
0.00333096
0.0033318
0.00333181
0.00328381
0.00330106
0.00330205
0.00328292
0.00330081
0.00328269
0.00328379
0.00330105
0.00330207
0.00328292
0.00329914
0.00329914
0.00329911
0.00326296
0.00326297
0.00326294
0.00326292
0.00328379
0.0033011
0.00329777
0.00328568