/*--------------------------------*- C++ -*----------------------------------*\
| =========                 |                                                 |
| \\      /  F ield         | OpenFOAM: The Open Source CFD Toolbox           |
|  \\    /   O peration     | Version:  v2006                                 |
|   \\  /    A nd           | Website:  www.openfoam.com                      |
|    \\/     M anipulation  |                                                 |
\*---------------------------------------------------------------------------*/
FoamFile
{
    version     2.0;
    format      ascii;
    class       volScalarField;
    location    "1000";
    object      epsilon;
}
// * * * * * * * * * * * * * * * * * * * * * * * * * * * * * * * * * * * * * //

dimensions      [0 2 -3 0 0 0 0];


internalField   nonuniform List<scalar> 
14258
(
3.97139e-06
8.97135e-06
3.97392e-06
8.9752e-06
1.82929e-05
1.82971e-05
6.35122e-07
5.29763e-06
5.30087e-06
1.69108e-06
3.76763e-07
3.18214e-06
2.106e-07
1.69264e-06
3.76643e-07
3.18369e-06
2.10678e-07
3.97389e-06
1.69268e-06
2.10769e-07
1.21456e-05
3.97012e-06
1.0755e-05
4.66936e-06
1.07545e-05
4.6678e-06
1.21462e-05
2.21226e-05
7.14363e-06
8.96921e-06
7.14389e-06
2.21246e-05
1.21499e-05
3.97313e-06
4.67193e-06
1.07578e-05
4.67129e-06
1.07575e-05
1.21499e-05
2.21306e-05
7.14616e-06
8.97443e-06
7.14834e-06
2.21292e-05
1.8293e-05
1.82977e-05
9.68542e-06
2.16479e-05
2.16476e-05
2.16473e-05
2.1647e-05
9.68294e-06
4.27971e-06
9.20108e-06
5.29737e-06
2.42134e-06
9.20051e-06
4.28108e-06
2.41607e-06
4.28689e-06
9.20795e-06
5.30057e-06
2.42295e-06
9.20714e-06
4.28822e-06
2.41834e-06
1.21495e-05
3.9732e-06
1.07576e-05
4.67167e-06
1.07572e-05
4.67128e-06
1.21496e-05
2.21291e-05
7.1437e-06
7.14603e-06
2.21278e-05
2.25258e-06
6.34763e-07
1.24857e-06
1.2491e-06
2.25538e-06
1.24598e-06
1.24649e-06
8.28382e-07
1.68776e-06
1.98263e-06
6.99976e-07
1.97918e-06
6.979e-07
8.29888e-07
1.07082e-06
2.53722e-06
3.18036e-06
1.51573e-06
2.53493e-06
1.51263e-06
1.07245e-06
8.28847e-07
1.68937e-06
1.98411e-06
7.00412e-07
1.98084e-06
6.98276e-07
8.30356e-07
1.07128e-06
2.53858e-06
3.18202e-06
1.51657e-06
2.53656e-06
1.51344e-06
1.0729e-06
8.28948e-07
1.68937e-06
7.00465e-07
1.98411e-06
6.98313e-07
1.98098e-06
8.30504e-07
1.07159e-06
2.53861e-06
2.53656e-06
1.07325e-06
6.38553e-07
3.67048e-07
9.5643e-07
3.62153e-07
4.00752e-06
6.32536e-07
9.46203e-07
1.82982e-05
6.40747e-07
3.67246e-07
3.34654e-06
9.461e-07
5.38607e-06
1.82886e-05
9.04471e-06
6.41361e-07
3.64369e-07
1.9475e-06
5.3906e-06
5.36114e-06
1.82654e-05
1.94148e-06
3.33421e-06
4.00814e-06
9.02674e-06
1.94098e-06
6.33316e-07
3.33659e-06
9.01751e-06
3.34042e-06
9.03683e-06
5.35862e-06
5.3661e-06
1.8316e-05
3.65956e-07
3.356e-06
1.94727e-06
4.02399e-06
9.05288e-06
4.02318e-06
1.83506e-05
4.44156e-06
5.40792e-06
9.37111e-06
2.66956e-06
1.20994e-05
1.07451e-05
4.66878e-06
4.00285e-06
1.21033e-05
1.07428e-05
4.66242e-06
1.82472e-05
1.83426e-05
9.61949e-06
2.16125e-05
2.16113e-05
4.43778e-06
9.31411e-06
2.65692e-06
5.40505e-06
2.66871e-06
9.36532e-06
4.4012e-06
1.83331e-05
2.19913e-05
7.0898e-06
9.06523e-06
7.10399e-06
2.19589e-05
4.47845e-06
2.67453e-06
9.36799e-06
5.41366e-06
4.44277e-06
2.68861e-06
9.42023e-06
4.67236e-06
1.07495e-05
1.21205e-05
7.07043e-06
2.19441e-05
2.189e-05
7.04688e-06
9.0012e-06
2.19196e-05
7.03885e-06
2.19531e-05
9.01667e-06
7.07259e-06
7.05891e-06
2.19926e-05
4.37343e-06
2.65875e-06
5.33752e-06
9.31141e-06
4.4068e-06
2.64512e-06
9.26475e-06
4.37669e-06
2.65973e-06
5.34403e-06
9.32129e-06
4.41018e-06
2.64548e-06
9.27422e-06
9.46433e-06
2.1517e-05
2.15172e-05
9.57934e-06
2.1337e-05
2.13387e-05
1.82649e-05
1.21455e-05
4.0332e-06
4.6927e-06
1.07587e-05
4.702e-06
1.2132e-05
1.07689e-05
2.20379e-05
7.08361e-06
9.07276e-06
2.20072e-05
7.09486e-06
1.21459e-05
4.03304e-06
4.691e-06
1.07586e-05
1.21314e-05
4.70255e-06
1.0769e-05
1.83989e-05
2.54487e-06
9.57087e-07
1.59739e-06
1.59669e-06
1.6007e-06
2.53163e-06
1.60066e-06
2.50189e-06
1.58557e-06
9.45241e-07
1.58456e-06
2.51578e-06
1.58089e-06
1.57986e-06
1.41141e-06
1.84378e-06
2.72947e-06
3.35389e-06
1.84739e-06
2.73591e-06
1.41056e-06
2.51457e-06
1.57593e-06
1.57641e-06
9.44931e-07
1.57841e-06
2.50144e-06
1.57814e-06
1.18683e-06
1.95333e-06
1.0439e-06
2.21784e-06
1.18597e-06
1.0453e-06
2.22442e-06
1.03853e-06
2.20936e-06
1.17888e-06
1.83577e-06
2.72051e-06
1.40331e-06
1.17766e-06
1.03812e-06
2.20849e-06
1.93783e-06
1.1781e-06
1.03722e-06
2.20424e-06
1.40177e-06
2.71852e-06
1.84019e-06
3.32819e-06
1.40304e-06
2.7136e-06
1.83551e-06
1.40167e-06
1.84011e-06
3.33081e-06
2.72304e-06
2.71646e-06
1.83523e-06
1.40313e-06
1.41545e-06
1.85267e-06
2.73284e-06
3.36812e-06
1.85854e-06
1.41308e-06
2.74188e-06
1.18838e-06
1.95348e-06
1.04462e-06
2.2172e-06
1.04617e-06
1.18706e-06
2.2251e-06
4.01241e-06
1.94575e-06
4.01312e-06
1.94527e-06
3.35157e-06
9.03316e-06
5.38272e-06
1.83322e-05
1.21219e-05
1.07482e-05
4.67557e-06
4.02099e-06
1.07564e-05
4.68802e-06
1.21084e-05
1.21391e-05
4.67943e-06
1.07529e-05
4.01996e-06
4.68831e-06
1.07608e-05
1.21261e-05
2.19885e-05
7.0589e-06
9.05427e-06
7.07375e-06
2.19404e-05
4.47543e-06
2.67329e-06
5.40547e-06
9.35722e-06
2.68651e-06
4.44053e-06
9.40813e-06
9.81415e-06
2.16829e-05
2.16842e-05
9.69861e-06
2.18679e-05
2.18679e-05
1.83816e-05
1.18756e-06
1.04554e-06
2.21402e-06
1.94969e-06
2.21929e-06
1.0466e-06
1.18709e-06
1.18808e-06
1.04541e-06
2.21341e-06
1.95011e-06
1.04669e-06
2.2201e-06
1.18708e-06
1.41455e-06
2.72718e-06
1.8523e-06
3.36329e-06
2.73569e-06
1.85747e-06
1.41245e-06
1.82899e-05
1.82929e-05
6.43435e-07
5.29913e-06
5.30213e-06
3.97394e-06
8.97255e-06
3.97384e-06
8.9726e-06
1.69881e-06
3.82483e-07
3.18707e-06
2.13478e-07
1.69872e-06
3.82589e-07
3.18808e-06
2.13466e-07
1.82939e-05
6.43365e-07
5.30179e-06
5.3005e-06
1.82924e-05
3.97553e-06
8.97521e-06
1.70003e-06
3.82495e-07
3.1882e-06
2.1358e-07
3.97561e-06
8.97475e-06
1.70008e-06
3.83011e-07
2.13653e-07
3.18934e-06
3.82455e-07
3.18762e-06
8.97284e-06
1.82957e-05
6.44209e-07
5.30398e-06
5.30218e-06
1.82932e-05
1.69952e-06
3.82804e-07
2.13617e-07
3.18848e-06
3.97467e-06
8.97312e-06
1.82911e-05
1.82933e-05
9.68528e-06
2.16465e-05
2.16459e-05
9.6834e-06
2.16531e-05
2.16522e-05
4.28807e-06
5.30017e-06
9.202e-06
2.42504e-06
4.28471e-06
9.20545e-06
2.43105e-06
4.29452e-06
5.30268e-06
9.20867e-06
2.42745e-06
4.29184e-06
9.21145e-06
2.43213e-06
1.21467e-05
3.97571e-06
1.07548e-05
4.6707e-06
1.21457e-05
1.07557e-05
4.67266e-06
2.2122e-05
8.97545e-06
7.14384e-06
2.212e-05
7.14365e-06
1.21463e-05
3.97538e-06
1.07547e-05
4.67046e-06
1.2146e-05
1.07554e-05
4.67182e-06
2.21209e-05
8.97438e-06
7.14177e-06
2.21198e-05
7.14043e-06
1.82954e-05
9.70252e-06
2.16639e-05
2.1665e-05
9.6971e-06
2.16775e-05
2.1679e-05
4.29969e-06
5.30346e-06
9.21016e-06
2.42736e-06
2.4338e-06
4.29433e-06
9.21633e-06
4.29175e-06
5.30174e-06
9.20585e-06
2.42643e-06
4.28908e-06
9.21261e-06
2.43225e-06
1.82946e-05
1.21475e-05
3.97603e-06
4.67221e-06
1.0757e-05
1.21482e-05
4.67238e-06
1.07569e-05
2.2119e-05
8.97588e-06
7.14512e-06
2.212e-05
7.14263e-06
1.21476e-05
3.97602e-06
1.07568e-05
4.67232e-06
1.21481e-05
1.07567e-05
4.6723e-06
2.21179e-05
8.97522e-06
7.14272e-06
2.21188e-05
7.14037e-06
2.21186e-05
8.97512e-06
7.14329e-06
2.21178e-05
7.14202e-06
1.82946e-05
9.68872e-06
2.16571e-05
2.16572e-05
9.69486e-06
2.16534e-05
2.16536e-05
4.2967e-06
5.30383e-06
9.214e-06
2.42868e-06
2.43346e-06
4.29574e-06
9.21438e-06
4.28978e-06
9.2086e-06
2.42719e-06
5.30234e-06
4.28885e-06
9.20918e-06
2.43182e-06
1.82925e-05
4.67106e-06
1.07553e-05
1.21455e-05
7.14227e-06
2.21136e-05
1.40172e-07
9.85149e-08
9.85081e-08
8.0671e-08
1.40204e-07
9.85199e-08
9.85241e-08
8.06744e-08
1.40238e-07
9.85347e-08
9.85243e-08
8.0676e-08
1.40287e-07
9.85391e-08
9.85366e-08
8.06758e-08
2.26575e-06
6.43822e-07
1.25743e-06
1.25798e-06
2.26246e-06
1.26019e-06
1.26072e-06
8.41251e-07
1.70235e-06
1.98948e-06
7.0855e-07
8.39746e-07
1.99316e-06
7.10636e-07
1.08396e-06
3.18921e-06
2.54365e-06
1.52457e-06
1.52781e-06
1.08232e-06
2.54601e-06
8.41143e-07
1.70222e-06
1.98928e-06
7.0851e-07
8.39648e-07
1.99296e-06
7.10589e-07
1.08393e-06
3.19023e-06
2.54334e-06
1.52515e-06
1.08224e-06
2.54569e-06
1.52854e-06
2.26759e-06
6.43879e-07
1.25812e-06
1.25806e-06
1.26122e-06
2.26397e-06
1.26092e-06
8.41666e-07
1.70303e-06
1.99036e-06
7.09066e-07
8.40254e-07
1.99346e-06
7.11107e-07
1.0843e-06
3.19002e-06
2.54426e-06
1.52539e-06
1.52854e-06
1.08275e-06
2.54627e-06
8.4184e-07
1.7031e-06
7.09122e-07
1.99072e-06
8.40423e-07
7.11162e-07
1.99351e-06
1.08469e-06
3.19069e-06
2.54443e-06
1.52628e-06
1.08318e-06
2.54624e-06
1.52926e-06
1.08393e-06
3.18981e-06
2.54349e-06
1.52481e-06
1.08223e-06
1.52823e-06
2.54585e-06
2.26687e-06
6.44534e-07
1.25901e-06
1.25865e-06
1.26153e-06
2.26425e-06
1.26116e-06
7.08873e-07
1.99012e-06
8.40099e-07
2.5439e-06
1.52562e-06
1.08278e-06
1.82918e-05
1.8293e-05
6.80699e-07
5.31743e-06
5.31776e-06
3.98562e-06
8.98253e-06
8.85507e-07
4.07787e-07
3.21685e-06
2.26109e-07
3.98564e-06
7.51285e-07
2.26048e-07
1.82921e-05
1.82945e-05
9.72221e-06
2.16974e-05
2.16963e-05
2.16947e-05
2.16951e-05
9.72381e-06
4.3218e-06
9.2359e-06
2.46742e-06
5.3178e-06
9.23657e-06
4.3208e-06
2.4721e-06
4.32795e-06
9.23807e-06
2.46806e-06
5.31877e-06
9.2413e-06
2.47329e-06
4.32607e-06
1.21437e-05
4.67746e-06
1.0755e-05
3.98708e-06
4.67878e-06
1.07561e-05
1.21428e-05
2.20978e-05
7.13443e-06
8.98432e-06
7.13311e-06
2.20968e-05
1.21447e-05
1.07549e-05
3.98703e-06
4.67761e-06
1.07561e-05
4.67902e-06
1.21434e-05
1.41075e-07
1.71349e-06
1.71344e-06
3.19704e-06
3.97795e-06
1.71306e-06
3.88683e-07
2.16605e-07
3.97926e-06
6.53162e-07
2.16546e-07
3.88418e-07
6.53225e-07
1.82941e-05
6.61574e-07
9.84272e-08
3.95148e-07
1.72084e-06
1.72082e-06
3.20241e-06
3.97968e-06
1.71998e-06
3.981e-06
9.8452e-08
9.84729e-08
9.8445e-08
1.82876e-05
3.9451e-07
3.20026e-06
1.82921e-05
1.82924e-05
5.30533e-06
5.30582e-06
6.52767e-07
3.97941e-06
8.97836e-06
3.97923e-06
8.97745e-06
3.19701e-06
3.88502e-07
2.16484e-07
3.19761e-06
2.1648e-07
3.88675e-07
1.82952e-05
5.30682e-06
6.53228e-07
5.30727e-06
1.82957e-05
8.97736e-06
3.978e-06
1.71309e-06
3.88302e-07
2.16506e-07
8.97589e-06
3.88734e-07
2.16549e-07
3.19635e-06
2.16584e-07
3.1977e-06
1.71379e-06
8.97778e-06
3.97911e-06
3.88841e-07
1.71392e-06
3.1977e-06
8.97873e-06
1.829e-05
5.3047e-06
5.30348e-06
1.82882e-05
3.8856e-07
3.19564e-06
2.16485e-07
8.97476e-06
5.30687e-06
5.30636e-06
5.3049e-06
1.82857e-05
8.97565e-06
3.98125e-06
8.97885e-06
3.98441e-06
8.98234e-06
1.82935e-05
1.82957e-05
8.9779e-06
3.97965e-06
3.98362e-06
8.98186e-06
9.84512e-08
9.8443e-08
2.19747e-07
3.2031e-06
1.72098e-06
4.01579e-07
3.21155e-06
1.82913e-05
1.82941e-05
1.82911e-05
1.82945e-05
5.30942e-06
5.30898e-06
6.61502e-07
6.71609e-07
5.31539e-06
5.31476e-06
3.98123e-06
8.97821e-06
3.98461e-06
8.98257e-06
3.20259e-06
3.94709e-07
2.19599e-07
1.73453e-06
4.01359e-07
3.21216e-06
2.22873e-07
3.203e-06
2.1963e-07
3.94996e-07
1.73454e-06
4.01631e-07
3.21255e-06
2.22917e-07
3.98664e-06
8.98278e-06
3.98671e-06
1.74153e-06
4.07991e-07
3.21721e-06
2.26217e-07
1.74151e-06
2.26269e-07
5.3101e-06
6.62158e-07
5.31017e-06
6.7217e-07
5.31611e-06
5.31374e-06
1.8294e-05
1.82926e-05
1.72003e-06
3.94593e-07
2.19537e-07
8.75422e-07
4.01006e-07
3.21165e-06
2.22727e-07
8.97636e-06
8.98186e-06
3.98329e-06
3.94675e-07
2.19528e-07
3.20101e-06
1.11838e-06
4.01002e-07
7.42565e-07
2.22683e-07
8.97822e-06
3.98099e-06
8.9804e-06
1.72103e-06
9.6933e-06
2.1679e-05
2.16774e-05
2.16594e-05
2.16581e-05
9.702e-06
9.70851e-06
2.16842e-05
2.16878e-05
2.16785e-05
2.16811e-05
9.71127e-06
1.21452e-05
1.07554e-05
4.67293e-06
3.97748e-06
1.07556e-05
4.67279e-06
1.21449e-05
1.21472e-05
1.07569e-05
4.6745e-06
3.97825e-06
1.07563e-05
4.67374e-06
1.21475e-05
1.82931e-05
9.71654e-06
2.1685e-05
2.16836e-05
9.71146e-06
2.16973e-05
2.16962e-05
9.7156e-06
2.16831e-05
2.16871e-05
9.71475e-06
2.16866e-05
2.16897e-05
1.21436e-05
1.07545e-05
4.6737e-06
3.98036e-06
1.21434e-05
1.07547e-05
4.67432e-06
1.21459e-05
1.07564e-05
4.67492e-06
3.98164e-06
1.21462e-05
1.07567e-05
4.6753e-06
1.82897e-05
1.82896e-05
1.82908e-05
4.2937e-06
9.21602e-06
2.44209e-06
5.30342e-06
9.20858e-06
2.43526e-06
4.29887e-06
4.30049e-06
9.2195e-06
2.44235e-06
5.30456e-06
9.2137e-06
2.4374e-06
4.30467e-06
1.21462e-05
1.07564e-05
4.67492e-06
3.97826e-06
1.07557e-05
4.67384e-06
1.21468e-05
2.21163e-05
7.14164e-06
8.97638e-06
7.14336e-06
2.21166e-05
1.21456e-05
1.07561e-05
4.67444e-06
3.97784e-06
1.07553e-05
4.67277e-06
1.21463e-05
2.21157e-05
7.13936e-06
8.97522e-06
7.14016e-06
2.21174e-05
1.82935e-05
4.30259e-06
9.22193e-06
2.44275e-06
5.30564e-06
2.43775e-06
9.21778e-06
4.30465e-06
4.29978e-06
9.22275e-06
2.4448e-06
5.30574e-06
9.21626e-06
2.43796e-06
4.30477e-06
1.82934e-05
2.21112e-05
7.13928e-06
8.97615e-06
7.14162e-06
2.21111e-05
1.21449e-05
4.67305e-06
1.07555e-05
3.9774e-06
4.67264e-06
1.07556e-05
1.21446e-05
2.21104e-05
7.13755e-06
8.97524e-06
7.13957e-06
2.21107e-05
2.2112e-05
7.13965e-06
8.97598e-06
7.14166e-06
2.21121e-05
1.2145e-05
4.67377e-06
1.07566e-05
3.97795e-06
4.67307e-06
1.07559e-05
1.21455e-05
2.21173e-05
7.13983e-06
8.97736e-06
7.14186e-06
2.21165e-05
1.82897e-05
4.29917e-06
2.44194e-06
5.30471e-06
9.21464e-06
2.43716e-06
9.21419e-06
4.30051e-06
4.29234e-06
2.44035e-06
5.30331e-06
9.20985e-06
9.20915e-06
2.43574e-06
4.29366e-06
9.68608e-06
2.16451e-05
2.16454e-05
2.16443e-05
2.16445e-05
9.68409e-06
1.8288e-05
1.21451e-05
3.97514e-06
4.67104e-06
1.07552e-05
2.21076e-05
8.97369e-06
7.13779e-06
7.13934e-06
2.21094e-05
2.21139e-05
8.97358e-06
7.13974e-06
4.29879e-06
2.44331e-06
5.30588e-06
9.21993e-06
4.30146e-06
2.43834e-06
9.21528e-06
4.30728e-06
2.44601e-06
5.30749e-06
9.21559e-06
9.21932e-06
4.30414e-06
2.45144e-06
4.30038e-06
2.44458e-06
9.21085e-06
5.30598e-06
2.4498e-06
4.29738e-06
9.21439e-06
9.68853e-06
2.16447e-05
2.1645e-05
2.16538e-05
9.68506e-06
2.1654e-05
1.82876e-05
2.21081e-05
7.13793e-06
8.9784e-06
7.13757e-06
2.21048e-05
1.2146e-05
1.07562e-05
4.67548e-06
3.98193e-06
1.21458e-05
1.07567e-05
4.67593e-06
2.21095e-05
7.14077e-06
8.98024e-06
2.21097e-05
7.13841e-06
1.2145e-05
3.9835e-06
1.0757e-05
4.67719e-06
1.07564e-05
4.6765e-06
1.21453e-05
2.21033e-05
8.98075e-06
7.13583e-06
7.13784e-06
2.21036e-05
1.82955e-05
1.8294e-05
2.21059e-05
7.13844e-06
8.9795e-06
2.21051e-05
7.13665e-06
1.21435e-05
4.67359e-06
1.07546e-05
3.98059e-06
1.21432e-05
4.67457e-06
1.07549e-05
1.21427e-05
3.98251e-06
4.67663e-06
1.07551e-05
4.67533e-06
1.07545e-05
1.21433e-05
2.21006e-05
8.98012e-06
7.13489e-06
7.13619e-06
2.21021e-05
1.82938e-05
1.82925e-05
1.82935e-05
1.82923e-05
4.30945e-06
9.22001e-06
2.44621e-06
5.31085e-06
4.3037e-06
9.22674e-06
2.45329e-06
4.31425e-06
9.2227e-06
2.44831e-06
5.31063e-06
4.31107e-06
9.22927e-06
2.45286e-06
9.72184e-06
2.17011e-05
2.16994e-05
2.16977e-05
2.16966e-05
9.72295e-06
4.31186e-06
5.31401e-06
9.23468e-06
2.46438e-06
9.22966e-06
2.45678e-06
4.31913e-06
4.32049e-06
5.31386e-06
9.23633e-06
2.46257e-06
9.23213e-06
2.45909e-06
4.3202e-06
1.21464e-05
1.0756e-05
4.67525e-06
3.98205e-06
1.21458e-05
1.07566e-05
4.67646e-06
2.21133e-05
7.13898e-06
8.98027e-06
2.21122e-05
7.13788e-06
1.21457e-05
3.98375e-06
1.07569e-05
4.67792e-06
1.07564e-05
4.67707e-06
1.21461e-05
2.21073e-05
8.98094e-06
7.13535e-06
7.13721e-06
2.21073e-05
1.21449e-05
1.07568e-05
4.67827e-06
3.98825e-06
1.21445e-05
1.07575e-05
4.67947e-06
2.20969e-05
7.13519e-06
8.98384e-06
2.20971e-05
7.13269e-06
1.21455e-05
1.07567e-05
4.67861e-06
3.9882e-06
1.21452e-05
1.07574e-05
4.67955e-06
4.31087e-06
9.22368e-06
2.44805e-06
5.31099e-06
4.3098e-06
9.22809e-06
2.45292e-06
4.3125e-06
9.22495e-06
2.44854e-06
5.31157e-06
4.30846e-06
2.45474e-06
9.2288e-06
9.71667e-06
2.16853e-05
2.16853e-05
2.16844e-05
2.1686e-05
9.7157e-06
4.31753e-06
5.31487e-06
9.23502e-06
2.46408e-06
9.2307e-06
2.45855e-06
4.31971e-06
4.31367e-06
5.31321e-06
9.23068e-06
2.46207e-06
2.45732e-06
9.22902e-06
4.31483e-06
1.8295e-05
1.82922e-05
2.21066e-05
7.13701e-06
8.9781e-06
2.2105e-05
7.13573e-06
2.2102e-05
8.97916e-06
7.1348e-06
7.13554e-06
2.21045e-05
1.21429e-05
3.98242e-06
4.67633e-06
1.07549e-05
1.07543e-05
4.67535e-06
1.21436e-05
2.21041e-05
7.13899e-06
8.97927e-06
2.21045e-05
7.13619e-06
1.21447e-05
4.67475e-06
1.07563e-05
3.98171e-06
1.21445e-05
4.675e-06
1.07567e-05
2.20966e-05
8.97947e-06
7.13289e-06
7.13548e-06
2.20968e-05
1.30675e-06
2.30754e-06
1.30662e-06
6.81256e-07
1.30929e-06
2.31024e-06
1.30946e-06
7.5142e-07
1.74037e-06
2.02777e-06
8.8701e-07
1.74395e-06
2.03147e-06
7.53555e-07
1.12885e-06
1.57468e-06
2.57615e-06
1.1305e-06
3.21879e-06
1.57792e-06
2.57823e-06
1.74021e-06
8.85177e-07
2.0275e-06
8.86715e-07
1.74388e-06
7.53435e-07
2.03124e-06
9.84397e-08
9.84244e-08
8.01192e-08
8.51183e-07
2.00342e-06
7.21377e-07
1.71003e-06
1.99987e-06
7.19277e-07
8.52705e-07
8.51103e-07
2.00332e-06
7.21334e-07
1.7099e-06
1.99954e-06
7.19234e-07
8.52626e-07
1.09411e-06
2.55416e-06
1.54071e-06
3.19494e-06
1.53746e-06
2.55202e-06
1.09566e-06
8.51566e-07
7.21632e-07
2.00252e-06
1.71015e-06
7.19661e-07
1.99976e-06
8.52907e-07
2.2733e-06
1.27269e-06
6.52841e-07
1.27235e-06
1.27014e-06
1.2698e-06
2.2761e-06
2.27484e-06
1.27374e-06
6.52796e-07
1.27241e-06
2.27795e-06
1.2708e-06
1.26983e-06
2.28643e-06
1.2815e-06
6.61987e-07
1.28117e-06
1.28394e-06
2.28309e-06
1.28428e-06
1.43238e-07
1.42102e-07
9.84372e-08
9.84149e-08
9.84522e-08
7.90777e-08
7.95873e-08
8.64233e-07
2.00973e-06
7.30094e-07
1.72415e-06
8.62708e-07
2.01314e-06
7.32221e-07
8.64237e-07
2.00964e-06
7.30072e-07
1.72418e-06
8.62695e-07
2.01324e-06
7.32205e-07
1.10715e-06
2.5601e-06
1.54987e-06
3.20451e-06
1.10554e-06
2.56224e-06
1.55317e-06
8.6392e-07
7.30062e-07
2.00868e-06
1.72293e-06
8.62581e-07
7.32021e-07
2.01169e-06
1.41175e-07
9.8464e-08
8.01253e-08
1.41152e-07
9.84439e-08
8.0126e-08
1.41146e-07
9.8444e-08
8.01222e-08
1.10676e-06
1.54883e-06
2.55898e-06
3.20236e-06
1.10522e-06
1.55196e-06
2.56122e-06
2.27375e-06
1.27235e-06
1.27277e-06
6.52302e-07
1.26941e-06
1.26988e-06
2.27739e-06
1.09389e-06
2.55464e-06
1.54031e-06
3.19473e-06
1.53693e-06
2.5524e-06
1.09556e-06
1.09396e-06
2.55437e-06
1.54099e-06
3.19559e-06
2.55207e-06
1.53773e-06
1.09564e-06
2.27581e-06
1.27293e-06
1.27428e-06
6.5266e-07
1.27014e-06
1.27115e-06
2.2792e-06
8.51462e-07
2.00282e-06
7.21614e-07
1.71007e-06
1.99953e-06
7.19629e-07
8.52837e-07
1.09437e-06
2.55354e-06
1.54078e-06
3.19487e-06
2.55171e-06
1.53782e-06
1.09582e-06
1.09408e-06
1.54139e-06
2.55446e-06
3.19546e-06
1.53787e-06
2.55219e-06
1.0958e-06
8.51324e-07
7.21586e-07
2.00341e-06
1.71015e-06
1.9997e-06
7.19441e-07
8.52867e-07
8.51489e-07
7.21647e-07
2.00369e-06
1.71033e-06
7.19491e-07
2.0001e-06
8.53042e-07
1.09427e-06
1.54126e-06
2.55458e-06
3.19572e-06
2.55244e-06
1.5379e-06
1.09595e-06
8.41526e-07
1.70253e-06
7.10898e-07
1.99304e-06
1.09403e-06
1.54019e-06
3.19407e-06
2.55314e-06
1.09552e-06
1.53721e-06
2.55121e-06
1.08431e-06
3.18993e-06
1.52862e-06
2.54571e-06
1.4222e-07
9.84642e-08
1.43365e-07
9.84673e-08
9.84823e-08
7.90862e-08
7.95947e-08
9.84298e-08
1.42107e-07
9.8429e-08
9.8443e-08
1.43196e-07
7.90806e-08
7.95904e-08
1.10759e-06
1.55077e-06
2.56053e-06
3.20502e-06
1.10592e-06
1.55403e-06
2.56258e-06
8.64478e-07
7.30386e-07
2.00964e-06
1.72446e-06
8.62964e-07
2.01317e-06
7.32512e-07
1.1176e-06
3.20987e-06
2.57023e-06
1.56588e-06
1.56288e-06
2.56829e-06
1.11919e-06
2.28919e-06
1.28186e-06
1.28218e-06
6.62056e-07
2.28568e-06
1.28483e-06
1.28514e-06
1.29783e-06
2.30028e-06
1.29691e-06
2.29712e-06
6.71036e-07
1.29415e-06
1.29488e-06
1.1073e-06
2.56075e-06
1.54964e-06
3.20471e-06
1.10559e-06
2.56287e-06
1.55305e-06
8.74329e-07
1.73123e-06
2.02264e-06
7.43184e-07
2.01919e-06
7.41042e-07
8.75851e-07
1.56588e-06
1.11742e-06
3.21005e-06
2.571e-06
2.56886e-06
1.56236e-06
1.11913e-06
1.10748e-06
2.56057e-06
1.55031e-06
3.20506e-06
1.10577e-06
2.56276e-06
1.55361e-06
8.74377e-07
1.73127e-06
2.02272e-06
7.43186e-07
2.01925e-06
7.41037e-07
8.75906e-07
1.11765e-06
3.21048e-06
2.5708e-06
1.56627e-06
2.56874e-06
1.11932e-06
1.56297e-06
8.87447e-07
2.02857e-06
7.5207e-07
1.74479e-06
8.85985e-07
2.032e-06
7.54182e-07
1.57496e-06
1.57797e-06
3.219e-06
1.13078e-06
2.57679e-06
1.12921e-06
2.57871e-06
8.87471e-07
2.02845e-06
7.52071e-07
1.74474e-06
8.8603e-07
2.03191e-06
7.54175e-07
2.28992e-06
1.28249e-06
1.28368e-06
6.62731e-07
2.28686e-06
1.28662e-06
1.2852e-06
2.29697e-06
6.71679e-07
1.29792e-06
1.29751e-06
1.29507e-06
1.29511e-06
2.29971e-06
8.64056e-07
2.00888e-06
7.30092e-07
1.72319e-06
8.62652e-07
2.01234e-06
7.3208e-07
7.42678e-07
1.73342e-06
2.02187e-06
8.73976e-07
1.73009e-06
2.01832e-06
7.40629e-07
1.11875e-06
1.56551e-06
2.57024e-06
1.11715e-06
3.2098e-06
2.5682e-06
1.56246e-06
1.10696e-06
2.55916e-06
1.54941e-06
3.20296e-06
1.10546e-06
1.55255e-06
2.56122e-06
2.56949e-06
3.21073e-06
1.11677e-06
3.20846e-06
1.56489e-06
1.56157e-06
2.56724e-06
1.73316e-06
8.75147e-07
2.02122e-06
8.73717e-07
1.72988e-06
7.40529e-07
2.01787e-06
8.64558e-07
7.30433e-07
2.00973e-06
1.72444e-06
8.63076e-07
7.32549e-07
2.01314e-06
5.3874e-06
1.47067e-07
4.20967e-07
4.21481e-07
6.99758e-07
1.52676e-07
4.47815e-07
4.47624e-07
7.33946e-07
1.58622e-07
4.74887e-07
4.74337e-07
7.6754e-07
1.64901e-07
4.99582e-07
5.01547e-07
7.97676e-07
1.72168e-07
5.27117e-07
5.30536e-07
8.2938e-07
1.85816e-07
5.70462e-07
5.73033e-07
8.7604e-07
2.10068e-07
6.16054e-07
6.10188e-07
9.19008e-07
2.11424e-07
6.33935e-07
6.90754e-07
4.14585e-07
4.14631e-07
6.99621e-07
7.25547e-07
4.21385e-07
4.21076e-07
4.4148e-07
4.41231e-07
6.98928e-07
7.25397e-07
4.21393e-07
4.21639e-07
4.41302e-07
4.41202e-07
4.21531e-07
4.41128e-07
4.4153e-07
6.99794e-07
7.25502e-07
4.21466e-07
4.4126e-07
4.41403e-07
7.25812e-07
7.3369e-07
7.58961e-07
4.48062e-07
4.4798e-07
4.68077e-07
4.68493e-07
7.3393e-07
7.59041e-07
4.4779e-07
4.47603e-07
4.67917e-07
4.68094e-07
4.47957e-07
4.6813e-07
4.68325e-07
7.33424e-07
7.58434e-07
4.47834e-07
4.67805e-07
4.68357e-07
7.59228e-07
7.67457e-07
7.91295e-07
4.74876e-07
4.75263e-07
4.94598e-07
4.93682e-07
7.67144e-07
7.89154e-07
4.74725e-07
4.74722e-07
4.94426e-07
4.9462e-07
4.75159e-07
4.93475e-07
4.93923e-07
7.66917e-07
7.91632e-07
4.75086e-07
4.94292e-07
4.93481e-07
7.90169e-07
7.98912e-07
8.22542e-07
5.01074e-07
4.99775e-07
5.21171e-07
5.20042e-07
7.9664e-07
8.20914e-07
5.00955e-07
5.01721e-07
5.21274e-07
5.2291e-07
5.00267e-07
5.19914e-07
5.20642e-07
7.99843e-07
8.24957e-07
4.99995e-07
5.23086e-07
5.20696e-07
8.20793e-07
8.31598e-07
8.68974e-07
5.28659e-07
5.27231e-07
5.59079e-07
5.5724e-07
8.2995e-07
8.66329e-07
5.28841e-07
5.3034e-07
5.59483e-07
5.61002e-07
5.27773e-07
5.57112e-07
5.55525e-07
8.33792e-07
8.72046e-07
5.27709e-07
5.61004e-07
5.55454e-07
8.64004e-07
8.81042e-07
9.11129e-07
5.70939e-07
5.70704e-07
6.01085e-07
6.07205e-07
8.79568e-07
9.22377e-07
5.71234e-07
5.73132e-07
6.00804e-07
6.02982e-07
5.67406e-07
6.06845e-07
6.00769e-07
8.84555e-07
9.15376e-07
5.67376e-07
6.02956e-07
6.00601e-07
9.10771e-07
9.17996e-07
9.37513e-07
6.0841e-07
6.16426e-07
6.2814e-07
3.33408e-06
9.30931e-07
5.36186e-06
6.07992e-07
6.10307e-07
6.27489e-07
6.28629e-07
6.09539e-07
6.34125e-07
9.22117e-07
9.38729e-07
6.09193e-07
6.27986e-07
3.3472e-06
6.34705e-07
9.46149e-07
1.82957e-05
3.99071e-06
8.98346e-06
3.99144e-06
8.98226e-06
1.82807e-05
1.82732e-05
3.99374e-06
8.98576e-06
3.99295e-06
8.98539e-06
7.76766e-08
1.47098e-07
1.47114e-07
1.51295e-07
1.51199e-07
1.51222e-07
1.51317e-07
1.77165e-06
1.15136e-06
2.33253e-07
4.27632e-07
9.08607e-07
3.23315e-06
2.36792e-07
1.82926e-05
1.82825e-05
1.77258e-06
2.33212e-07
1.59841e-06
4.28396e-07
2.36923e-07
3.23636e-06
9.08769e-07
5.31937e-06
5.32231e-06
7.09043e-07
5.31844e-06
5.32056e-06
3.99934e-06
8.98485e-06
3.99607e-06
8.9884e-06
1.82698e-05
1.82687e-05
3.99521e-06
8.98286e-06
3.99259e-06
8.98796e-06
1.52584e-07
1.52595e-07
1.52669e-07
1.57127e-07
1.57234e-07
1.5715e-07
1.57225e-07
1.80553e-06
3.24859e-06
2.47807e-07
4.54523e-07
1.79391e-06
3.25544e-06
2.5168e-07
1.82593e-05
1.82636e-05
1.80363e-06
2.47963e-07
3.24464e-06
4.54249e-07
1.79273e-06
2.51746e-07
3.25075e-06
5.31954e-06
5.31916e-06
7.42225e-07
5.3222e-06
5.32379e-06
4.00395e-06
8.99268e-06
3.99993e-06
8.99815e-06
1.82662e-05
1.82724e-05
4.00501e-06
8.99805e-06
4.00444e-06
8.99974e-06
1.58774e-07
1.58546e-07
1.58772e-07
1.63251e-07
1.63064e-07
1.63243e-07
1.6296e-07
1.83628e-06
3.26866e-06
2.63624e-07
4.8139e-07
1.82496e-06
3.27648e-06
2.67689e-07
1.82737e-05
1.82759e-05
1.83635e-06
2.6359e-07
3.27045e-06
4.8077e-07
1.82595e-06
2.67588e-07
3.27725e-06
5.33723e-06
5.33725e-06
7.75445e-07
5.34275e-06
5.34464e-06
4.01171e-06
9.00143e-06
4.0099e-06
9.0058e-06
1.82737e-05
1.82771e-05
4.0131e-06
9.00147e-06
4.00779e-06
9.00825e-06
1.64556e-07
1.65111e-07
1.64585e-07
1.70125e-07
1.69621e-07
1.70761e-07
1.70014e-07
1.86343e-06
3.28993e-06
2.79946e-07
5.0617e-07
1.85405e-06
3.2959e-06
2.83992e-07
1.82767e-05
1.82778e-05
1.8654e-06
2.80156e-07
3.29195e-06
5.08887e-07
1.85492e-06
2.84587e-07
3.29877e-06
5.35289e-06
5.35684e-06
8.04842e-07
5.356e-06
5.35843e-06
4.02127e-06
9.01427e-06
4.02109e-06
9.01547e-06
1.82715e-05
1.82609e-05
4.0186e-06
9.01206e-06
4.01916e-06
9.01197e-06
1.71512e-07
1.72885e-07
1.71876e-07
1.8165e-07
1.80834e-07
1.82396e-07
1.80303e-07
1.88992e-06
3.31038e-06
2.96663e-07
5.35264e-07
1.88108e-06
3.31273e-06
3.01376e-07
1.82541e-05
1.82393e-05
1.88843e-06
2.98194e-07
3.30509e-06
5.39184e-07
1.88097e-06
3.02971e-07
3.30608e-06
5.35739e-06
5.35721e-06
8.39543e-07
5.35112e-06
5.34978e-06
4.01615e-06
9.0091e-06
4.01912e-06
9.00233e-06
1.82013e-05
1.81968e-05
4.01761e-06
9.0093e-06
4.01992e-06
9.00476e-06
1.85668e-07
1.86492e-07
1.84389e-07
1.9705e-07
1.99577e-07
1.97479e-07
1.96989e-07
1.9125e-06
3.31268e-06
3.1844e-07
5.83803e-07
1.9038e-06
3.31406e-06
3.25023e-07
1.82363e-05
1.82249e-05
1.915e-06
3.19238e-07
3.31859e-06
5.84472e-07
1.90482e-06
3.25508e-07
3.32225e-06
5.33128e-06
5.33009e-06
8.90388e-07
5.32333e-06
5.3258e-06
3.99785e-06
8.98686e-06
4.00578e-06
8.98721e-06
1.81826e-05
1.81924e-05
4.00381e-06
8.99078e-06
4.00501e-06
8.99909e-06
1.15864e-07
1.99825e-07
2.03099e-07
2.00265e-07
2.00425e-07
2.06366e-07
2.06553e-07
1.93172e-06
3.31617e-06
3.46041e-07
6.23427e-07
1.92673e-06
3.31672e-06
3.52277e-07
1.81896e-05
1.82145e-05
1.93045e-06
3.44798e-07
3.31763e-06
6.16387e-07
1.92669e-06
3.50474e-07
3.32108e-06
5.29655e-06
5.29894e-06
9.26743e-07
5.2997e-06
5.30269e-06
1.16679e-07
2.08461e-07
2.08228e-07
1.83658e-05
3.36389e-06
1.82871e-05
1.82926e-05
5.31824e-06
5.32152e-06
8.98589e-06
3.99115e-06
3.22554e-06
2.29637e-07
1.7546e-06
8.98766e-06
3.99134e-06
8.98303e-06
4.07694e-07
2.29565e-07
1.58692e-06
1.75466e-06
1.57761e-06
1.82811e-05
1.82726e-05
1.82883e-05
1.82778e-05
5.31834e-06
5.32212e-06
7.08764e-07
5.31689e-06
5.32047e-06
1.82653e-05
1.8268e-05
1.82628e-05
1.82703e-05
7.17184e-07
5.31849e-06
5.3173e-06
5.31702e-06
5.31983e-06
3.99062e-06
8.98348e-06
3.99137e-06
8.98277e-06
1.77091e-06
1.59755e-06
2.33177e-07
4.28127e-07
9.08637e-07
3.23367e-06
2.36762e-07
1.77082e-06
1.59728e-06
2.33137e-07
4.27709e-07
9.0851e-07
3.23317e-06
2.36658e-07
3.99084e-06
8.98394e-06
8.98175e-06
3.99304e-06
3.99074e-06
8.98491e-06
8.98238e-06
3.9928e-06
1.77635e-06
4.34846e-07
3.24259e-06
2.4406e-07
3.23667e-06
2.40355e-07
1.7876e-06
1.77622e-06
4.34476e-07
3.24357e-06
2.43948e-07
3.23634e-06
2.40252e-07
1.78754e-06
5.31902e-06
5.31726e-06
7.07871e-07
5.31731e-06
5.31658e-06
1.82795e-05
1.82728e-05
1.82713e-05
1.82699e-05
7.16424e-07
5.32162e-06
5.31986e-06
5.31769e-06
5.31691e-06
1.82696e-05
1.82692e-05
1.77256e-06
3.22984e-06
2.33275e-07
4.28156e-07
1.76124e-06
3.23531e-06
2.36886e-07
3.99391e-06
8.98756e-06
3.99334e-06
8.98705e-06
1.77265e-06
2.33205e-07
1.59889e-06
4.28455e-07
1.76126e-06
2.36816e-07
3.23672e-06
3.99365e-06
8.98297e-06
8.98433e-06
3.99247e-06
1.77776e-06
4.3479e-07
3.24224e-06
2.44027e-07
3.23807e-06
2.40473e-07
1.78719e-06
3.99388e-06
8.98286e-06
8.9856e-06
3.99239e-06
1.77776e-06
4.34926e-07
2.43973e-07
3.24236e-06
2.40405e-07
3.23929e-06
1.78721e-06
3.99157e-06
8.98323e-06
3.99024e-06
8.98412e-06
1.77168e-06
2.3327e-07
1.5976e-06
4.28329e-07
9.08517e-07
2.36857e-07
3.23407e-06
3.99145e-06
8.98273e-06
3.99026e-06
8.98291e-06
1.7769e-06
4.34393e-07
3.24386e-06
2.44045e-07
3.23662e-06
2.40389e-07
1.78844e-06
3.99219e-06
8.98736e-06
8.98416e-06
3.99472e-06
1.7769e-06
4.35035e-07
2.44139e-07
3.24318e-06
2.40491e-07
3.23726e-06
1.78844e-06
3.99204e-06
8.98633e-06
8.9829e-06
3.99462e-06
5.32406e-06
5.32265e-06
7.09227e-07
5.32292e-06
5.32177e-06
1.82911e-05
1.82816e-05
1.82629e-05
1.82744e-05
7.17595e-07
5.31754e-06
5.3162e-06
5.32227e-06
5.32121e-06
1.82606e-05
1.82733e-05
1.77235e-06
2.33263e-07
1.59863e-06
4.28271e-07
2.36903e-07
3.23535e-06
9.09119e-07
3.99299e-06
8.98624e-06
8.98594e-06
3.99244e-06
3.99292e-06
8.98676e-06
8.98513e-06
3.99255e-06
1.77788e-06
4.34953e-07
2.44277e-07
3.24212e-06
2.40626e-07
3.23912e-06
1.78778e-06
1.77759e-06
4.34944e-07
2.44236e-07
3.24228e-06
2.40577e-07
3.23793e-06
1.78766e-06
3.99303e-06
8.98264e-06
8.98494e-06
3.99262e-06
3.9929e-06
8.98267e-06
8.98344e-06
3.99234e-06
1.82853e-05
1.82763e-05
1.82898e-05
1.82789e-05
7.17475e-07
5.3186e-06
5.31838e-06
5.31845e-06
5.32002e-06
1.82664e-05
1.82709e-05
1.82653e-05
1.82718e-05
1.82627e-05
1.82626e-05
1.82604e-05
1.82657e-05
5.32023e-06
5.31797e-06
7.4189e-07
5.32267e-06
5.32413e-06
1.82685e-05
1.82613e-05
1.82744e-05
1.82665e-05
7.50231e-07
5.33246e-06
5.3363e-06
5.32472e-06
5.32841e-06
3.99925e-06
8.98584e-06
3.99581e-06
8.98836e-06
1.80573e-06
3.24667e-06
2.47839e-07
4.54647e-07
1.79365e-06
3.25338e-06
2.51775e-07
1.80585e-06
3.24854e-06
2.47808e-07
4.54757e-07
1.79359e-06
3.25551e-06
2.51799e-07
3.99962e-06
8.99184e-06
8.98863e-06
3.99931e-06
3.99955e-06
8.98844e-06
8.98808e-06
3.99923e-06
1.8108e-06
4.61314e-07
3.26429e-06
2.59732e-07
3.25709e-06
2.55711e-07
1.82036e-06
1.81088e-06
4.61615e-07
3.26415e-06
2.59857e-07
3.25879e-06
2.5582e-07
1.82034e-06
5.3247e-06
5.32305e-06
7.42503e-07
5.32691e-06
5.32645e-06
1.82682e-05
1.82686e-05
1.82667e-05
1.82657e-05
7.50826e-07
5.33111e-06
5.33068e-06