/*--------------------------------*- C++ -*----------------------------------*\
| =========                 |                                                 |
| \\      /  F ield         | OpenFOAM: The Open Source CFD Toolbox           |
|  \\    /   O peration     | Version:  v2006                                 |
|   \\  /    A nd           | Website:  www.openfoam.com                      |
|    \\/     M anipulation  |                                                 |
\*---------------------------------------------------------------------------*/
FoamFile
{
    version     2.0;
    format      ascii;
    class       volScalarField;
    location    "1000";
    object      k;
}
// * * * * * * * * * * * * * * * * * * * * * * * * * * * * * * * * * * * * * //

dimensions      [0 2 -2 0 0 0 0];


internalField   nonuniform List<scalar> 
14258
(
5.97036e-05
7.03649e-05
5.98402e-05
7.03807e-05
6.91943e-05
6.92005e-05
2.55366e-05
6.28702e-05
6.29248e-05
4.0987e-05
1.9841e-05
5.27553e-05
1.55712e-05
4.11004e-05
1.98385e-05
5.28137e-05
1.55712e-05
5.98337e-05
4.1091e-05
1.55679e-05
6.99066e-05
5.96498e-05
6.95239e-05
6.4092e-05
6.95219e-05
6.40371e-05
6.99088e-05
7.0333e-05
7.56024e-05
7.03539e-05
7.55635e-05
7.03373e-05
6.99222e-05
5.97548e-05
6.42384e-05
6.95349e-05
6.4166e-05
6.95337e-05
6.99224e-05
7.03494e-05
7.57102e-05
7.03766e-05
7.5688e-05
7.03465e-05
6.91946e-05
6.92021e-05
8.95317e-05
7.18559e-05
7.18503e-05
7.18548e-05
7.18494e-05
8.9491e-05
6.34767e-05
6.96384e-05
6.28557e-05
4.9062e-05
6.96356e-05
6.35033e-05
4.89545e-05
6.35517e-05
6.96583e-05
6.28964e-05
4.91037e-05
6.96544e-05
6.3588e-05
4.89797e-05
6.99181e-05
5.97467e-05
6.95336e-05
6.42216e-05
6.95322e-05
6.41444e-05
6.99187e-05
7.03439e-05
7.56724e-05
7.5653e-05
7.03412e-05
4.84259e-05
2.54962e-05
3.58791e-05
3.58895e-05
4.85019e-05
3.58022e-05
3.58099e-05
2.84135e-05
4.08571e-05
4.43202e-05
2.61285e-05
4.4191e-05
2.60617e-05
2.84697e-05
3.23566e-05
4.91033e-05
5.26813e-05
3.87756e-05
4.90115e-05
3.86995e-05
3.24175e-05
2.84331e-05
4.09376e-05
4.4441e-05
2.61512e-05
4.42914e-05
2.60726e-05
2.84992e-05
3.23759e-05
4.91984e-05
5.27318e-05
3.87975e-05
4.91016e-05
3.87144e-05
3.24436e-05
2.84234e-05
4.0928e-05
2.61481e-05
4.44239e-05
2.60695e-05
4.42701e-05
2.84907e-05
3.23623e-05
4.91953e-05
4.90886e-05
3.24343e-05
2.61054e-05
1.9935e-05
3.27444e-05
1.97442e-05
6.09664e-05
2.55887e-05
3.1884e-05
6.91968e-05
2.6386e-05
1.99389e-05
5.52914e-05
3.22934e-05
6.34188e-05
6.91765e-05
7.07394e-05
2.6323e-05
2.03251e-05
4.68861e-05
6.38589e-05
6.29675e-05
6.91184e-05
4.66959e-05
5.4959e-05
6.10653e-05
7.06457e-05
4.66248e-05
2.55581e-05
5.49301e-05
7.05952e-05
5.50733e-05
7.06977e-05
6.29609e-05
6.32448e-05
6.9244e-05
2.00444e-05
5.55599e-05
4.68029e-05
6.13874e-05
7.07815e-05
6.13113e-05
6.93313e-05
6.45664e-05
6.39387e-05
7.04737e-05
5.33658e-05
6.97264e-05
6.94795e-05
6.46671e-05
6.09756e-05
6.97408e-05
6.94702e-05
6.46666e-05
6.90686e-05
6.93135e-05
8.51588e-05
7.17467e-05
7.17426e-05
6.45035e-05
7.01854e-05
5.25441e-05
6.38595e-05
5.33615e-05
7.04411e-05
6.33615e-05
6.92888e-05
7.00518e-05
7.55157e-05
7.08465e-05
7.58858e-05
6.99825e-05
6.61984e-05
5.32111e-05
7.04636e-05
6.45348e-05
6.49526e-05
5.40529e-05
7.07238e-05
6.49373e-05
6.94981e-05
6.98083e-05
7.51963e-05
6.99509e-05
6.98347e-05
7.49158e-05
7.05114e-05
6.98964e-05
7.48813e-05
6.99669e-05
7.05924e-05
7.55607e-05
7.52066e-05
7.00508e-05
6.27015e-05
5.23245e-05
6.2479e-05
7.01678e-05
6.36935e-05
5.16731e-05
6.99351e-05
6.28057e-05
5.24238e-05
6.26798e-05
7.02295e-05
6.38339e-05
5.17259e-05
6.99921e-05
8.37641e-05
7.1543e-05
7.15476e-05
8.56138e-05
7.11446e-05
7.11511e-05
6.9115e-05
6.99045e-05
6.17401e-05
6.5441e-05
6.95373e-05
6.57881e-05
6.98525e-05
6.95814e-05
7.01482e-05
7.58097e-05
7.08854e-05
7.00823e-05
7.61597e-05
6.9903e-05
6.16762e-05
6.52404e-05
6.95362e-05
6.98469e-05
6.5641e-05
6.95814e-05
6.94536e-05
5.39193e-05
3.3199e-05
4.27025e-05
4.2733e-05
4.33673e-05
5.29738e-05
4.342e-05
5.12051e-05
4.18196e-05
3.1578e-05
4.18357e-05
5.20299e-05
4.12902e-05
4.12861e-05
4.00294e-05
4.48797e-05
5.27933e-05
5.57054e-05
4.53537e-05
5.3134e-05
3.98075e-05
5.31018e-05
4.21241e-05
4.21477e-05
3.2874e-05
4.29678e-05
5.20328e-05
4.29506e-05
3.74063e-05
4.70839e-05
3.49842e-05
4.96539e-05
3.72706e-05
3.50662e-05
4.99914e-05
3.46507e-05
4.92745e-05
3.67027e-05
4.42964e-05
5.26422e-05
3.94725e-05
3.66626e-05
3.46203e-05
4.91278e-05
4.66415e-05
3.6645e-05
3.4638e-05
4.91324e-05
3.94339e-05
5.25909e-05
4.44829e-05
5.4809e-05
3.94809e-05
5.25716e-05
4.42678e-05
3.95195e-05
4.4556e-05
5.48941e-05
5.27442e-05
5.26699e-05
4.4322e-05
3.95858e-05
4.01518e-05
4.51685e-05
5.30151e-05
5.61576e-05
4.56918e-05
3.99103e-05
5.34978e-05
3.70553e-05
4.69756e-05
3.48821e-05
4.93753e-05
3.49537e-05
3.69451e-05
4.96766e-05
6.0977e-05
4.6702e-05
6.1075e-05
4.66303e-05
5.5322e-05
7.06769e-05
6.35859e-05
6.92833e-05
6.98111e-05
6.94928e-05
6.47034e-05
6.10591e-05
6.95274e-05
6.48827e-05
6.97599e-05
6.98788e-05
6.49924e-05
6.95121e-05
6.11486e-05
6.52059e-05
6.95457e-05
6.98293e-05
7.00427e-05
7.50777e-05
7.07875e-05
7.54836e-05
6.99403e-05
6.60239e-05
5.30792e-05
6.42494e-05
7.03987e-05
5.38768e-05
6.48058e-05
7.06582e-05
9.00412e-05
7.19104e-05
7.1917e-05
8.78057e-05
7.23197e-05
7.23211e-05
6.9409e-05
3.69676e-05
3.47448e-05
4.93069e-05
4.67383e-05
4.94171e-05
3.47911e-05
3.6877e-05
3.68521e-05
3.46964e-05
4.91531e-05
4.66685e-05
3.47368e-05
4.92563e-05
3.67743e-05
3.99795e-05
5.271e-05
4.50559e-05
5.58845e-05
5.30638e-05
4.55275e-05
3.97629e-05
6.91866e-05
6.919e-05
2.57688e-05
6.28802e-05
6.2935e-05
5.97447e-05
7.03712e-05
5.97587e-05
7.0369e-05
4.11123e-05
2.00153e-05
5.28044e-05
1.56601e-05
4.11158e-05
1.99811e-05
5.28151e-05
1.5653e-05
6.91936e-05
2.56935e-05
6.28837e-05
6.2872e-05
6.91916e-05
5.98697e-05
7.03808e-05
4.12255e-05
2.00208e-05
5.28564e-05
1.56643e-05
5.98649e-05
7.03766e-05
4.12223e-05
2.00368e-05
1.56653e-05
5.29182e-05
1.99821e-05
5.28121e-05
7.03698e-05
6.91959e-05
2.577e-05
6.3008e-05
6.29811e-05
6.91929e-05
4.12062e-05
2.00315e-05
1.56635e-05
5.2901e-05
5.98368e-05
7.03709e-05
6.91895e-05
6.9191e-05
8.94871e-05
7.18526e-05
7.18465e-05
8.94732e-05
7.18667e-05
7.18598e-05
6.35975e-05
6.29083e-05
6.96428e-05
4.91222e-05
6.35291e-05
6.96598e-05
4.92436e-05
6.36748e-05
6.2959e-05
6.96618e-05
4.91678e-05
6.36135e-05
6.96756e-05
4.92884e-05
6.99105e-05
5.98487e-05
6.95232e-05
6.41342e-05
6.9907e-05
6.95268e-05
6.42398e-05
7.03318e-05
7.03864e-05
7.56348e-05
7.03275e-05
7.57148e-05
6.99069e-05
5.98399e-05
6.95229e-05
6.41563e-05
6.99056e-05
6.95257e-05
6.42158e-05
7.03258e-05
7.03786e-05
7.56265e-05
7.03235e-05
7.56538e-05
6.91981e-05
8.98103e-05
7.18859e-05
7.18917e-05
8.95902e-05
7.19167e-05
7.19223e-05
6.37937e-05
6.29711e-05
6.967e-05
4.90907e-05
4.92876e-05
6.36024e-05
6.97027e-05
6.37327e-05
6.29564e-05
6.96588e-05
4.90858e-05
6.35512e-05
6.96916e-05
4.92738e-05
6.91965e-05
6.99131e-05
5.99251e-05
6.42569e-05
6.95317e-05
6.99158e-05
6.42935e-05
6.9531e-05
7.03248e-05
7.03842e-05
7.57066e-05
7.0327e-05
7.57167e-05
6.99111e-05
5.9924e-05
6.95305e-05
6.42437e-05
6.9913e-05
6.95301e-05
6.42877e-05
7.03202e-05
7.03791e-05
7.56692e-05
7.0322e-05
7.56795e-05
7.03243e-05
7.03813e-05
7.56457e-05
7.03226e-05
7.56896e-05
6.91931e-05
8.97658e-05
7.18716e-05
7.18774e-05
8.98257e-05
7.18633e-05
7.18692e-05
6.38583e-05
6.30269e-05
6.96891e-05
4.92511e-05
4.93865e-05
6.38038e-05
6.96911e-05
6.37897e-05
6.96761e-05
4.92304e-05
6.30124e-05
6.37348e-05
6.96791e-05
4.93658e-05
6.9191e-05
6.42111e-05
6.95248e-05
6.99063e-05
7.56431e-05
7.03137e-05
1.36754e-05
1.25911e-05
1.25909e-05
1.2305e-05
1.36641e-05
1.2589e-05
1.25887e-05
1.23047e-05
1.36728e-05
1.25899e-05
1.25905e-05
1.23048e-05
1.36755e-05
1.2591e-05
1.25905e-05
1.23048e-05
4.87242e-05
2.58071e-05
3.6082e-05
3.60975e-05
4.86205e-05
3.6162e-05
3.61787e-05
2.87711e-05
4.12814e-05
4.44357e-05
2.63485e-05
2.87092e-05
4.45993e-05
2.64212e-05
3.27086e-05
5.29046e-05
4.92167e-05
3.89556e-05
3.90353e-05
3.26447e-05
4.93345e-05
2.87644e-05
4.12767e-05
4.44398e-05
2.63496e-05
2.87048e-05
4.45899e-05
2.64209e-05
3.26848e-05
5.29273e-05
4.92116e-05
3.89133e-05
3.26183e-05
4.93275e-05
3.90093e-05
4.87482e-05
2.57371e-05
3.60125e-05
3.60154e-05
3.61158e-05
4.85835e-05
3.61132e-05
2.88173e-05
4.13666e-05
4.45408e-05
2.63921e-05
2.87557e-05
4.46691e-05
2.64677e-05
3.27444e-05
5.29384e-05
4.92885e-05
3.89889e-05
3.90691e-05
3.26813e-05
4.93778e-05
2.88153e-05
4.13675e-05
2.63894e-05
4.45407e-05
2.87501e-05
2.64661e-05
4.46775e-05
3.27516e-05
5.29941e-05
4.9308e-05
3.90178e-05
3.2683e-05
4.93973e-05
3.91049e-05
3.2688e-05
5.29216e-05
4.92197e-05
3.89182e-05
3.2627e-05
3.90107e-05
4.93263e-05
4.88404e-05
2.58141e-05
3.61272e-05
3.61219e-05
3.62144e-05
4.87369e-05
3.62082e-05
2.63839e-05
4.45267e-05
2.87449e-05
4.92919e-05
3.9009e-05
3.26769e-05
6.91915e-05
6.91911e-05
2.69511e-05
6.34352e-05
6.33924e-05
6.0221e-05
7.04195e-05
3.00068e-05
2.08526e-05
5.35714e-05
1.60736e-05
6.02097e-05
2.76148e-05
1.60689e-05
6.91924e-05
6.91949e-05
9.06278e-05
7.19645e-05
7.19603e-05
7.19598e-05
7.19568e-05
9.05707e-05
6.47208e-05
6.98096e-05
5.03188e-05
6.34968e-05
6.98166e-05
6.46258e-05
5.04704e-05
6.47721e-05
6.98151e-05
5.03013e-05
6.34744e-05
6.98284e-05
5.04608e-05
6.46616e-05
6.98982e-05
6.45441e-05
6.9523e-05
6.03031e-05
6.46218e-05
6.95273e-05
6.9895e-05
7.02798e-05
7.58226e-05
7.04287e-05
7.58713e-05
7.02776e-05
6.98996e-05
6.9522e-05
6.02972e-05
6.45269e-05
6.95273e-05
6.46133e-05
6.98948e-05
1.36848e-05
4.16085e-05
4.1601e-05
5.3099e-05
5.99931e-05
4.16252e-05
2.01801e-05
1.5745e-05
6.00234e-05
2.60964e-05
1.57583e-05
2.02143e-05
2.60834e-05
6.91931e-05
2.6333e-05
1.24864e-05
2.03954e-05
4.1745e-05
4.17424e-05
5.31792e-05
6.00174e-05
4.17387e-05
6.00598e-05
1.25511e-05
1.25515e-05
1.25545e-05
6.91751e-05
2.04122e-05
5.3119e-05
6.9192e-05
6.91886e-05
6.30465e-05
6.30274e-05
2.60814e-05
6.00269e-05
7.04018e-05
6.00099e-05
7.03956e-05
5.31016e-05
2.02017e-05
1.57524e-05
5.31267e-05
1.57471e-05
2.01799e-05
6.91986e-05
6.30928e-05
2.60387e-05
6.31035e-05
6.91975e-05
7.03919e-05
5.99907e-05
4.16189e-05
2.02102e-05
1.57637e-05
7.03824e-05
2.02364e-05
1.57684e-05
5.30969e-05
1.574e-05
5.31184e-05
4.15687e-05
7.03943e-05
6.00048e-05
2.02109e-05
4.15891e-05
5.31422e-05
7.03977e-05
6.91812e-05
6.30343e-05
6.30352e-05
6.918e-05
2.02256e-05
5.30747e-05
1.57567e-05
7.03792e-05
6.31121e-05
6.30421e-05
6.30453e-05
6.91736e-05
7.03837e-05
6.00699e-05
7.04044e-05
6.02225e-05
7.04227e-05
6.91948e-05
6.9199e-05
7.03947e-05
6.00154e-05
6.01828e-05
7.0416e-05
1.25152e-05
1.2487e-05
1.58363e-05
5.32012e-05
4.16979e-05
2.06189e-05
5.34985e-05
6.919e-05
6.91973e-05
6.91853e-05
6.91949e-05
6.31212e-05
6.30768e-05
2.63257e-05
2.66847e-05
6.33779e-05
6.33298e-05
6.00585e-05
7.04e-05
6.02371e-05
7.04217e-05
5.31896e-05
2.04039e-05
1.58487e-05
4.21512e-05
2.06273e-05
5.35204e-05
1.59539e-05
5.32133e-05
1.58468e-05
2.03991e-05
4.21599e-05
2.06326e-05
5.35326e-05
1.59554e-05
6.02681e-05
7.0425e-05
6.02788e-05
4.22796e-05
2.08626e-05
5.36103e-05
1.60747e-05
4.22859e-05
1.60777e-05
6.31456e-05
2.6306e-05
6.31575e-05
2.66903e-05
6.33848e-05
6.33505e-05
6.91928e-05
6.91917e-05
4.17328e-05
2.04167e-05
1.58664e-05
2.97495e-05
2.06292e-05
5.34876e-05
1.59688e-05
7.03848e-05
7.04134e-05
6.01708e-05
2.0425e-05
1.58703e-05
5.3142e-05
3.36462e-05
2.06119e-05
2.73845e-05
1.59683e-05
7.03964e-05
6.00452e-05
7.04092e-05
4.17161e-05
8.95627e-05
7.19234e-05
7.19151e-05
7.18801e-05
7.18725e-05
8.98058e-05
8.99303e-05
7.19353e-05
7.194e-05
7.19205e-05
7.19263e-05
9.00893e-05
6.99021e-05
6.95244e-05
6.43354e-05
5.99459e-05
6.95251e-05
6.4301e-05
6.99007e-05
6.9911e-05
6.95315e-05
6.43921e-05
5.99258e-05
6.95291e-05
6.43143e-05
6.9912e-05
6.91909e-05
9.02242e-05
7.19371e-05
7.1929e-05
9.00116e-05
7.19649e-05
7.19577e-05
9.0287e-05
7.19339e-05
7.19381e-05
9.01732e-05
7.19412e-05
7.19445e-05
6.98958e-05
6.95205e-05
6.4353e-05
6.0074e-05
6.98948e-05
6.95214e-05
6.44e-05
6.99062e-05
6.95297e-05
6.44151e-05
6.01303e-05
6.99073e-05
6.95307e-05
6.44623e-05
6.91804e-05
6.91856e-05
6.91844e-05
6.36985e-05
6.97127e-05
4.95238e-05
6.29505e-05
6.96753e-05
4.93359e-05
6.38902e-05
6.37629e-05
6.97157e-05
4.9537e-05
6.29781e-05
6.96868e-05
4.9377e-05
6.39353e-05
6.99087e-05
6.95302e-05
6.43922e-05
5.99173e-05
6.95269e-05
6.42952e-05
6.9911e-05
7.03198e-05
7.5786e-05
7.03913e-05
7.57404e-05
7.03206e-05
6.99042e-05
6.95288e-05
6.43462e-05
5.98947e-05
6.95253e-05
6.4254e-05
6.99069e-05
7.03149e-05
7.57284e-05
7.03834e-05
7.56729e-05
7.03184e-05
6.91936e-05
6.39139e-05
6.97407e-05
4.95975e-05
6.30107e-05
4.94128e-05
6.9715e-05
6.40655e-05
6.38698e-05
6.97338e-05
4.96121e-05
6.30087e-05
6.97057e-05
4.94097e-05
6.40525e-05
6.91925e-05
7.03082e-05
7.57246e-05
7.03856e-05
7.57137e-05
7.0308e-05
6.99033e-05
6.43347e-05
6.95249e-05
5.99454e-05
6.43036e-05
6.95256e-05
6.9902e-05
7.03043e-05
7.56881e-05
7.03791e-05
7.56771e-05
7.03048e-05
7.03103e-05
7.57435e-05
7.03852e-05
7.57065e-05
7.03105e-05
6.9904e-05
6.43507e-05
6.95295e-05
5.99e-05
6.42649e-05
6.95264e-05
6.99058e-05
7.03197e-05
7.57629e-05
7.03911e-05
7.57352e-05
7.0318e-05
6.91807e-05
6.38764e-05
4.95633e-05
6.303e-05
6.96923e-05
4.94535e-05
6.96901e-05
6.39054e-05
6.38082e-05
4.95452e-05
6.3022e-05
6.96823e-05
6.96789e-05
4.94339e-05
6.38389e-05
8.96706e-05
7.18444e-05
7.18505e-05
7.18427e-05
7.18488e-05
8.96303e-05
6.91795e-05
6.99047e-05
5.98898e-05
6.42526e-05
6.95244e-05
7.0301e-05
7.03738e-05
7.5663e-05
7.56482e-05
7.03047e-05
7.03142e-05
7.03733e-05
7.56498e-05
6.38892e-05
4.9616e-05
6.30455e-05
6.97212e-05
6.40129e-05
4.94478e-05
6.97017e-05
6.39926e-05
4.96252e-05
6.30738e-05
6.96969e-05
6.97151e-05
6.39302e-05
4.97474e-05
6.39283e-05
4.96074e-05
6.96871e-05
6.30756e-05
4.97288e-05
6.38644e-05
6.97045e-05
8.96373e-05
7.18432e-05
7.18492e-05
7.18626e-05
8.96161e-05
7.18684e-05
6.91784e-05
7.03018e-05
7.56809e-05
7.0398e-05
7.57421e-05
7.02949e-05
6.99082e-05
6.95293e-05
6.44226e-05
6.014e-05
6.99075e-05
6.95316e-05
6.44796e-05
7.03055e-05
7.57916e-05
7.04117e-05
7.03059e-05
7.58095e-05
6.99042e-05
6.01674e-05
6.95326e-05
6.45429e-05
6.95302e-05
6.4498e-05
6.99052e-05
7.02915e-05
7.04143e-05
7.58431e-05
7.5815e-05
7.02922e-05
6.91998e-05
6.91956e-05
7.02969e-05
7.57267e-05
7.04032e-05
7.02951e-05
7.57482e-05
6.98976e-05
6.43535e-05
6.95213e-05
6.00761e-05
6.98966e-05
6.44071e-05
6.95223e-05
6.98946e-05
6.01095e-05
6.45094e-05
6.95231e-05
6.44375e-05
6.95207e-05
6.98969e-05
7.02856e-05
7.04067e-05
7.58035e-05
7.57613e-05
7.02887e-05
6.91964e-05
6.91931e-05
6.91918e-05
6.91893e-05
6.42258e-05
6.97329e-05
4.96523e-05
6.32227e-05
6.40284e-05
6.97669e-05
4.98595e-05
6.42512e-05
6.97321e-05
4.96698e-05
6.31783e-05
6.40868e-05
6.97658e-05
4.98469e-05
9.03701e-05
7.19726e-05
7.19671e-05
7.19657e-05
7.19592e-05
9.05023e-05
6.4346e-05
6.32909e-05
6.98032e-05
5.01976e-05
6.9781e-05
4.99929e-05
6.45314e-05
6.44075e-05
6.32429e-05
6.98061e-05
5.01645e-05
6.97814e-05
4.99979e-05
6.45393e-05
6.99073e-05
6.95283e-05
6.43889e-05
6.01419e-05
6.99049e-05
6.95311e-05
6.44776e-05
7.03097e-05
7.57511e-05
7.04106e-05
7.03074e-05
7.5804e-05
6.99046e-05
6.01742e-05
6.95324e-05
6.45772e-05
6.953e-05
6.45101e-05
6.99061e-05
7.02971e-05
7.04137e-05
7.58536e-05
7.58184e-05
7.02973e-05
6.99037e-05
6.95318e-05
6.45764e-05
6.03787e-05
6.9902e-05
6.95348e-05
6.46683e-05
7.02781e-05
7.58536e-05
7.04307e-05
7.02786e-05
7.58826e-05
6.99039e-05
6.95315e-05
6.46069e-05
6.03795e-05
6.99028e-05
6.95343e-05
6.46787e-05
6.42999e-05
6.97505e-05
4.97299e-05
6.32351e-05
6.41769e-05
6.97717e-05
4.99022e-05
6.42956e-05
6.97439e-05
4.97324e-05
6.32401e-05
6.41522e-05
4.99157e-05
6.97646e-05
9.03379e-05
7.19351e-05
7.19378e-05
7.19347e-05
7.19377e-05
9.0403e-05
6.43982e-05
6.32998e-05
6.97972e-05
5.01904e-05
6.97801e-05
5.00283e-05
6.45072e-05
6.43618e-05
6.32843e-05
6.97838e-05
5.01645e-05
5.0012e-05
6.97704e-05
6.44631e-05
6.91964e-05
6.91901e-05
7.0296e-05
7.56926e-05
7.03938e-05
7.02927e-05
7.57205e-05
7.02863e-05
7.03993e-05
7.57956e-05
7.57396e-05
7.02915e-05
6.98928e-05
6.01047e-05
6.44901e-05
6.95219e-05
6.95195e-05
6.44265e-05
6.98958e-05
7.02936e-05
7.57477e-05
7.04024e-05
7.02945e-05
7.57614e-05
6.99027e-05
6.43819e-05
6.95283e-05
6.01241e-05
6.9902e-05
6.44454e-05
6.953e-05
7.02778e-05
7.04038e-05
7.57752e-05
7.57621e-05
7.02781e-05
3.74659e-05
4.99439e-05
3.74599e-05
2.70002e-05
3.75595e-05
5.00756e-05
3.75555e-05
2.7617e-05
4.22266e-05
4.54762e-05
3.00721e-05
4.23734e-05
4.56207e-05
2.76912e-05
3.3919e-05
4.02301e-05
5.01161e-05
3.39941e-05
5.36841e-05
4.03309e-05
5.02362e-05
4.22159e-05
2.9997e-05
4.54495e-05
3.00623e-05
4.23666e-05
2.76891e-05
4.56036e-05
1.25531e-05
1.25544e-05
1.22391e-05
2.90244e-05
4.48982e-05
2.67353e-05
4.14345e-05
4.47348e-05
2.66564e-05
2.90916e-05
2.90145e-05
4.48847e-05
2.67322e-05
4.14257e-05
4.47177e-05
2.66537e-05
2.90821e-05
3.29756e-05
4.95731e-05
3.93489e-05
5.29956e-05
3.92606e-05
4.94699e-05
3.30393e-05
2.90706e-05
2.6778e-05
4.49046e-05
4.14854e-05
2.67039e-05
4.47784e-05
2.91323e-05
4.89592e-05
3.65138e-05
2.60558e-05
3.65063e-05
3.64342e-05
3.6427e-05
4.90453e-05
4.89728e-05
3.65149e-05
2.6038e-05
3.65017e-05
4.91115e-05
3.64144e-05
3.6408e-05
4.92659e-05
3.67213e-05
2.63717e-05
3.67137e-05
3.67949e-05
4.91592e-05
3.68028e-05
1.37193e-05
1.36989e-05
1.25168e-05
1.252e-05
1.24831e-05
1.21107e-05
1.21745e-05
2.94222e-05
4.50175e-05
2.69813e-05
4.18935e-05
2.93541e-05
4.5159e-05
2.70611e-05
2.94213e-05
4.50133e-05
2.69788e-05
4.18969e-05
2.9349e-05
4.51679e-05
2.706e-05
3.33444e-05
4.96783e-05
3.95607e-05
5.3294e-05
3.32756e-05
4.97915e-05
3.966e-05
2.94408e-05
2.70119e-05
4.4999e-05
4.18744e-05
2.93818e-05
2.70836e-05
4.51233e-05
1.36736e-05
1.25497e-05
1.22384e-05
1.36854e-05
1.25541e-05
1.22388e-05
1.3691e-05
1.25558e-05
1.22392e-05
3.33163e-05
3.95438e-05
4.96171e-05
5.32101e-05
3.32551e-05
3.96233e-05
4.97177e-05
4.88848e-05
3.64729e-05
3.64892e-05
2.60399e-05
3.63783e-05
3.63962e-05
4.90368e-05
3.29441e-05
4.95796e-05
3.93236e-05
5.29814e-05
3.92295e-05
4.9459e-05
3.30137e-05
3.29278e-05
4.9579e-05
3.93395e-05
5.301e-05
4.9451e-05
3.92348e-05
3.30031e-05
4.89511e-05
3.64764e-05
3.64911e-05
2.59858e-05
3.63677e-05
3.63791e-05
4.91197e-05
2.90661e-05
4.48932e-05
2.6776e-05
4.14781e-05
4.47594e-05
2.67031e-05
2.91254e-05
3.29919e-05
4.95693e-05
3.93812e-05
5.30326e-05
4.94892e-05
3.9303e-05
3.30554e-05
3.29208e-05
3.93374e-05
4.95567e-05
5.29991e-05
3.92333e-05
4.9441e-05
3.29902e-05
2.90023e-05
2.67127e-05
4.48543e-05
4.14038e-05
4.46974e-05
2.66406e-05
2.90626e-05
2.90204e-05
2.67213e-05
4.48978e-05
4.14233e-05
2.66465e-05
4.474e-05
2.90857e-05
3.29487e-05
3.93621e-05
4.95914e-05
5.30343e-05
4.9477e-05
3.92639e-05
3.30196e-05
2.88041e-05
4.13433e-05
2.64542e-05
4.46527e-05
3.29712e-05
3.9363e-05
5.30116e-05
4.95256e-05
3.30308e-05
3.92865e-05
4.94516e-05
3.27407e-05
5.29745e-05
3.90933e-05
4.93689e-05
1.36907e-05
1.25138e-05
1.37155e-05
1.24823e-05
1.24805e-05
1.21097e-05
1.21734e-05
1.25195e-05
1.37051e-05
1.25218e-05
1.2484e-05
1.37179e-05
1.21112e-05
1.21751e-05
3.33123e-05
3.95741e-05
4.96711e-05
5.33167e-05
3.32382e-05
3.96778e-05
4.97846e-05
2.93789e-05
2.69458e-05
4.49685e-05
4.18591e-05
2.93141e-05
4.51223e-05
2.70213e-05
3.35673e-05
5.33922e-05
4.99984e-05
4.0006e-05
3.99096e-05
4.98896e-05
3.36418e-05
4.94017e-05
3.67197e-05
3.6732e-05
2.63737e-05
4.92311e-05
3.68264e-05
3.68364e-05
3.72078e-05
4.97669e-05
3.71967e-05
4.96005e-05
2.66331e-05
3.70908e-05
3.71006e-05
3.33362e-05
4.96958e-05
3.95473e-05
5.33116e-05
3.32612e-05
4.98109e-05
3.96535e-05
2.96869e-05
4.20088e-05
4.54017e-05
2.73867e-05
4.52622e-05
2.73075e-05
2.97557e-05
4.00085e-05
3.35945e-05
5.34001e-05
5.00435e-05
4.99233e-05
3.98969e-05
3.3674e-05
3.33455e-05
4.97013e-05
3.95822e-05
5.33294e-05
3.32645e-05
4.9824e-05
3.96895e-05
2.96953e-05
4.2017e-05
4.5422e-05
2.73905e-05
4.52808e-05
2.73098e-05
2.97675e-05
3.36143e-05
5.34176e-05
5.00554e-05
4.00361e-05
4.99376e-05
3.36948e-05
3.99329e-05
3.00968e-05
4.55195e-05
2.76349e-05
4.24457e-05
3.00248e-05
4.56801e-05
2.77173e-05
4.02532e-05
4.03544e-05
5.37248e-05
3.40193e-05
5.01613e-05
3.39397e-05
5.02867e-05
3.01114e-05
4.55329e-05
2.76407e-05
4.24469e-05
3.00407e-05
4.56829e-05
2.77227e-05
4.94578e-05
3.67496e-05
3.67611e-05
2.63631e-05
4.93098e-05
3.68703e-05
3.68549e-05
4.96216e-05
2.66369e-05
3.7222e-05
3.72138e-05
3.7121e-05
3.71242e-05
4.9746e-05
2.94341e-05
4.49934e-05
2.70083e-05
4.18764e-05
2.93732e-05
4.51364e-05
2.70805e-05
2.73843e-05
4.21206e-05
4.53773e-05
2.96866e-05
4.19855e-05
4.52383e-05
2.73124e-05
3.36642e-05
3.99934e-05
5.0011e-05
3.35915e-05
5.33779e-05
4.98981e-05
3.98922e-05
3.33485e-05
4.96589e-05
3.9565e-05
5.32284e-05
3.32865e-05
3.96451e-05
4.97488e-05
4.99613e-05
5.34202e-05
3.35799e-05
5.3305e-05
3.9933e-05
3.98399e-05
4.98518e-05
4.2108e-05
2.97466e-05
4.53438e-05
2.96871e-05
4.19791e-05
2.73139e-05
4.52162e-05
2.94088e-05
2.69585e-05
4.5005e-05
4.18726e-05
2.93437e-05
2.70346e-05
4.5149e-05
6.34608e-05
1.38043e-05
2.12683e-05
2.12848e-05
2.74857e-05
1.38614e-05
2.19304e-05
2.19752e-05
2.81933e-05
1.39996e-05
2.28251e-05
2.27634e-05
2.92933e-05
1.43611e-05
2.40294e-05
2.40485e-05
3.09795e-05
1.46552e-05
2.51277e-05
2.50488e-05
3.20008e-05
1.46912e-05
2.54421e-05
2.51335e-05
3.17846e-05
1.45461e-05
2.48722e-05
2.53714e-05
3.07977e-05
1.47969e-05
2.73881e-05
2.72951e-05
2.10808e-05
2.10468e-05
2.75259e-05
2.79967e-05
2.13224e-05
2.13019e-05
2.17495e-05
2.17575e-05
2.7486e-05
2.8024e-05
2.13022e-05
2.12957e-05
2.17646e-05
2.18603e-05
2.12798e-05
2.17536e-05
2.17827e-05
2.74969e-05
2.81188e-05
2.12963e-05
2.18519e-05
2.17978e-05
2.80435e-05
2.81392e-05
2.89523e-05
2.18953e-05
2.19227e-05
2.2506e-05
2.25913e-05
2.82071e-05
2.90744e-05
2.18984e-05
2.19752e-05
2.2492e-05
2.24532e-05
2.19413e-05
2.26125e-05
2.25201e-05
2.82526e-05
2.89202e-05
2.19307e-05
2.24492e-05
2.24992e-05
2.89796e-05
2.92767e-05
3.06794e-05
2.27754e-05
2.28036e-05
2.37847e-05
2.36983e-05
2.9343e-05
3.05062e-05
2.27819e-05
2.27686e-05
2.37953e-05
2.37566e-05
2.27914e-05
2.37244e-05
2.38192e-05
2.9244e-05
3.06669e-05
2.27793e-05
2.37854e-05
2.38026e-05
3.06674e-05
3.09871e-05
3.17172e-05
2.41036e-05
2.40237e-05
2.48758e-05
2.48765e-05
3.08299e-05
3.18792e-05
2.40972e-05
2.4004e-05
2.48671e-05
2.48618e-05
2.40897e-05
2.48474e-05
2.48741e-05
3.09574e-05
3.15783e-05
2.40898e-05
2.48623e-05
2.49155e-05
3.18382e-05
3.18433e-05
3.166e-05
2.50704e-05
2.51821e-05
2.53671e-05
2.55161e-05
3.20562e-05
3.1838e-05
2.5052e-05
2.50718e-05
2.53301e-05
2.51921e-05
2.51605e-05
2.54754e-05
2.54293e-05
3.16884e-05
3.14204e-05
2.51958e-05
2.51327e-05
2.54232e-05
3.1818e-05
3.16474e-05
3.08235e-05
2.53597e-05
2.54742e-05
2.52059e-05
2.49113e-05
3.17832e-05
3.02765e-05
2.53278e-05
2.52208e-05
2.52143e-05
2.5319e-05
2.53918e-05
2.49521e-05
2.52341e-05
3.14224e-05
3.10393e-05
2.53703e-05
2.53204e-05
2.51845e-05
3.07843e-05
3.08491e-05
3.27078e-05
2.51996e-05
2.48208e-05
2.59668e-05
5.48794e-05
3.02642e-05
6.29679e-05
2.52135e-05
2.53405e-05
2.60988e-05
2.62642e-05
2.52185e-05
2.52379e-05
3.10928e-05
3.29578e-05
2.51808e-05
2.64113e-05
5.52482e-05
2.72859e-05
3.40395e-05
6.91959e-05
6.06059e-05
7.04288e-05
6.05857e-05
7.04226e-05
6.91603e-05
6.91411e-05
6.07341e-05
7.04361e-05
6.05728e-05
7.04343e-05
1.19297e-05
1.37975e-05
1.37974e-05
1.38506e-05
1.385e-05
1.38752e-05
1.38598e-05
4.31794e-05
3.45264e-05
1.63037e-05
2.14489e-05
3.06374e-05
5.40306e-05
1.64236e-05
6.91876e-05
6.91623e-05
4.32694e-05
1.63077e-05
4.08363e-05
2.1514e-05
1.64448e-05
5.41926e-05
3.0673e-05
6.35623e-05
6.36178e-05
2.77293e-05
6.35701e-05
6.36198e-05
6.09783e-05
7.04356e-05
6.06812e-05
7.04544e-05
6.91324e-05
6.91297e-05
6.06965e-05
7.04208e-05
6.06828e-05
7.04469e-05
1.38639e-05
1.38888e-05
1.38747e-05
1.39432e-05
1.39808e-05
1.39343e-05
1.3949e-05
4.40824e-05
5.42912e-05
1.67667e-05
2.21545e-05
4.36699e-05
5.45487e-05
1.68981e-05
6.91032e-05
6.91135e-05
4.38493e-05
1.67864e-05
5.42333e-05
2.20899e-05
4.36356e-05
1.68751e-05
5.426e-05
6.35539e-05
6.35036e-05
2.83794e-05
6.35973e-05
6.35971e-05
6.10697e-05
7.04765e-05
6.09841e-05
7.05052e-05
6.91232e-05
6.91389e-05
6.12302e-05
7.05e-05
6.11486e-05
7.05091e-05
1.40227e-05
1.39884e-05
1.40024e-05
1.42702e-05
1.42494e-05
1.42605e-05
1.42837e-05
4.48255e-05
5.47735e-05
1.72942e-05
2.30811e-05
4.44719e-05
5.5057e-05
1.74434e-05
6.91394e-05
6.91453e-05
4.48758e-05
1.72281e-05
5.48301e-05
2.3133e-05
4.44737e-05
1.74134e-05
5.5137e-05
6.39568e-05
6.39159e-05
2.98111e-05
6.41886e-05
6.41836e-05
6.14961e-05
7.05225e-05
6.14206e-05
7.05451e-05
6.91424e-05
6.91511e-05
6.15232e-05
7.05179e-05
6.12682e-05
7.05532e-05
1.43351e-05
1.43316e-05
1.4363e-05
1.46055e-05
1.45756e-05
1.45835e-05
1.45932e-05
4.56094e-05
5.54797e-05
1.79265e-05
2.43196e-05
4.52968e-05
5.57383e-05
1.80986e-05
6.91471e-05
6.91504e-05
4.57572e-05
1.79521e-05
5.55288e-05
2.43154e-05
4.53475e-05
1.81287e-05
5.58221e-05
6.4484e-05
6.45796e-05
3.13495e-05
6.46698e-05
6.47165e-05
6.21507e-05
7.05897e-05
6.19721e-05
7.05963e-05
6.91374e-05
6.9111e-05
6.2021e-05
7.05736e-05
6.19323e-05
7.05732e-05
1.46646e-05
1.46468e-05
1.46815e-05
1.46981e-05
1.4761e-05
1.46652e-05
1.47415e-05
4.66872e-05
5.6221e-05
1.86494e-05
2.53715e-05
4.62795e-05
5.64179e-05
1.88315e-05
6.90911e-05
6.90532e-05
4.65396e-05
1.86938e-05
5.60628e-05
2.51312e-05
4.62614e-05
1.8841e-05
5.59882e-05
6.49071e-05
6.48599e-05
3.20492e-05
6.48929e-05
6.48368e-05
6.21447e-05
7.05633e-05
6.21951e-05
7.05277e-05
6.896e-05
6.89475e-05
6.21757e-05
7.05592e-05
6.21621e-05
7.05357e-05
1.47472e-05
1.46498e-05
1.47205e-05
1.46182e-05
1.45234e-05
1.46452e-05
1.46042e-05
4.72703e-05
5.61065e-05
1.93299e-05
2.53249e-05
4.71494e-05
5.57855e-05
1.94129e-05
6.9045e-05
6.90168e-05
4.72429e-05
1.9159e-05
5.599e-05
2.51837e-05
4.69476e-05
1.92726e-05
5.60652e-05
6.42402e-05
6.41485e-05
3.1224e-05
6.39946e-05
6.39711e-05
6.11781e-05
7.04462e-05
6.17367e-05
7.04466e-05
6.89111e-05
6.89351e-05
6.12975e-05
7.04615e-05
6.15969e-05
7.05033e-05
1.21835e-05
1.46136e-05
1.44699e-05
1.46591e-05
1.4594e-05
1.48496e-05
1.50374e-05
4.69315e-05
5.52981e-05
1.94679e-05
2.48653e-05
4.71696e-05
5.4894e-05
1.94871e-05
6.89259e-05
6.89878e-05
4.69641e-05
1.96558e-05
5.54375e-05
2.54807e-05
4.73116e-05
1.97768e-05
5.51552e-05
6.28685e-05
6.29074e-05
3.0774e-05
6.23488e-05
6.24387e-05
1.22129e-05
1.52744e-05
1.5438e-05
6.93675e-05
5.62404e-05
6.91799e-05
6.91893e-05
6.35501e-05
6.35852e-05
7.04367e-05
6.04933e-05
5.38806e-05
1.61873e-05
4.26857e-05
7.0444e-05
6.0507e-05
7.04195e-05
2.08155e-05
1.61822e-05
4.05055e-05
4.26934e-05
4.02615e-05
6.91649e-05
6.91434e-05
6.91786e-05
6.91523e-05
6.35528e-05
6.36085e-05
2.77308e-05
6.35255e-05
6.36143e-05
6.91247e-05
6.91315e-05
6.91141e-05
6.91333e-05
2.78802e-05
6.3532e-05
6.34825e-05
6.35089e-05
6.35851e-05
6.06092e-05
7.04263e-05
6.05864e-05
7.04226e-05
4.32189e-05
4.08586e-05
1.63428e-05
2.14985e-05
3.07202e-05
5.40731e-05
1.64593e-05
4.32211e-05
4.08244e-05
1.63423e-05
2.14717e-05
3.07194e-05
5.40361e-05
1.64581e-05
6.05893e-05
7.04308e-05
7.04198e-05
6.06033e-05
6.05925e-05
7.04333e-05
7.04205e-05
6.05999e-05
4.32668e-05
2.16301e-05
5.41841e-05
1.66455e-05
5.4086e-05
1.65552e-05
4.34522e-05
4.32698e-05
2.16181e-05
5.41797e-05
1.66434e-05
5.4046e-05
1.65547e-05
4.34456e-05
6.35403e-05
6.35082e-05
2.7689e-05
6.34928e-05
6.35034e-05
6.91594e-05
6.91423e-05
6.9136e-05
6.91328e-05
2.78559e-05
6.35594e-05
6.35422e-05
6.34783e-05
6.34916e-05
6.9134e-05
6.91331e-05
4.32914e-05
5.39579e-05
1.63133e-05
2.14929e-05
4.28407e-05
5.41354e-05
1.64434e-05
6.07487e-05
7.04435e-05
6.05907e-05
7.0441e-05
4.33092e-05
1.63132e-05
4.08511e-05
2.15292e-05
4.28543e-05
1.64524e-05
5.42083e-05
6.07345e-05
7.04214e-05
7.04288e-05
6.07112e-05
4.33856e-05
2.16406e-05
5.41861e-05
1.66746e-05
5.41535e-05
1.65664e-05
4.3608e-05
6.07493e-05
7.0419e-05
7.04335e-05
6.07187e-05
4.3405e-05
2.17179e-05
1.66988e-05
5.42394e-05
1.65853e-05
5.42367e-05
4.36211e-05
6.06058e-05
7.04247e-05
6.04738e-05
7.04294e-05
4.31727e-05
1.63078e-05
4.08e-05
2.147e-05
3.06463e-05
1.64231e-05
5.40739e-05
6.05991e-05
7.04202e-05
6.04758e-05
7.04211e-05
4.32508e-05
2.16057e-05
5.42155e-05
1.66459e-05
5.40525e-05
1.65356e-05
4.35632e-05
6.06166e-05
7.04461e-05
7.04296e-05
6.07133e-05
4.32444e-05
2.16328e-05
1.66494e-05
5.4223e-05
1.65341e-05
5.40961e-05
4.35627e-05
6.06095e-05
7.04387e-05
7.0421e-05
6.07135e-05
6.36471e-05
6.36382e-05
2.77906e-05
6.36832e-05
6.36838e-05
6.91875e-05
6.91639e-05
6.91124e-05
6.91418e-05
2.79818e-05
6.35169e-05
6.35243e-05
6.36732e-05
6.36769e-05
6.91108e-05
6.91431e-05
4.32773e-05
1.63185e-05
4.08406e-05
2.15048e-05
1.64576e-05
5.41492e-05
3.06961e-05
6.06918e-05
7.04396e-05
7.04381e-05
6.05819e-05
6.06931e-05
7.04393e-05
7.0431e-05
6.05898e-05
4.33548e-05
2.17027e-05
1.66859e-05
5.42424e-05
1.65725e-05
5.42282e-05
4.35924e-05
4.33559e-05
2.16669e-05
1.66782e-05
5.41747e-05
1.65776e-05
5.41601e-05
4.35709e-05
6.06927e-05
7.04209e-05
7.04329e-05
6.06923e-05
6.06902e-05
7.04178e-05
7.04222e-05
6.06773e-05
6.91722e-05
6.91496e-05
6.9181e-05
6.91535e-05
2.79021e-05
6.35501e-05
6.35095e-05
6.35565e-05
6.35864e-05
6.91242e-05
6.91358e-05
6.91188e-05
6.91354e-05
6.9118e-05
6.91177e-05
6.91078e-05
6.9121e-05
6.3557e-05
6.34727e-05
2.8325e-05
6.3629e-05
6.35873e-05
6.91323e-05
6.91144e-05
6.91432e-05
6.9123e-05
2.85497e-05
6.38425e-05
6.39352e-05
6.36435e-05
6.36587e-05
6.0973e-05
7.04381e-05
6.06686e-05
7.04517e-05
4.40282e-05
5.42287e-05
1.67461e-05
2.20759e-05
4.35586e-05
5.44411e-05
1.68606e-05
4.40271e-05
5.42663e-05
1.67425e-05
2.21339e-05
4.35503e-05
5.45362e-05
1.68615e-05
6.09938e-05
7.04722e-05
7.04556e-05
6.09946e-05
6.09901e-05
7.0452e-05
7.04502e-05
6.09917e-05
4.41442e-05
2.22793e-05
5.46875e-05
1.71081e-05
5.44792e-05
1.69815e-05
4.44041e-05
4.41477e-05
2.237e-05
5.46827e-05
1.71255e-05
5.45757e-05
1.69934e-05
4.44049e-05
6.36331e-05
6.36068e-05
2.84765e-05
6.37528e-05
6.37662e-05
6.91307e-05
6.91316e-05
6.91245e-05
6.91222e-05
2.8721e-05
6.3801e-05
6.38432e-05
6.37568e-05