/*--------------------------------*- C++ -*----------------------------------*\
| =========                 |                                                 |
| \\      /  F ield         | OpenFOAM: The Open Source CFD Toolbox           |
|  \\    /   O peration     | Version:  v2006                                 |
|   \\  /    A nd           | Website:  www.openfoam.com                      |
|    \\/     M anipulation  |                                                 |
\*---------------------------------------------------------------------------*/
FoamFile
{
    version     2.0;
    format      ascii;
    class       volVectorField;
    location    "1000";
    object      U;
}
// * * * * * * * * * * * * * * * * * * * * * * * * * * * * * * * * * * * * * //

dimensions      [0 1 -1 0 0 0 0];


internalField   nonuniform List<vector> 
14258
(
(-1.13039e-07 4.18001e-06 0.092276)
(-3.46499e-06 -3.08268e-06 0.0823227)
(4.60641e-06 1.55953e-08 0.0922741)
(-2.45657e-06 -3.95623e-06 0.0823245)
(-2.73152e-06 -1.53211e-06 0.0713155)
(-8.10142e-07 -3.27832e-06 0.0713164)
(-2.41699e-05 -2.54778e-05 0.106434)
(-2.10874e-06 5.4849e-06 0.087921)
(5.58365e-06 -1.58014e-06 0.0879196)
(1.27174e-06 2.04833e-05 0.100495)
(4.73666e-05 7.1889e-05 0.108881)
(-1.24636e-06 8.64143e-06 0.0939495)
(1.53982e-05 8.52892e-05 0.110316)
(2.06251e-05 5.71484e-07 0.100489)
(7.3648e-05 4.65446e-05 0.108883)
(8.143e-06 4.96022e-07 0.0939479)
(8.72521e-05 1.43333e-05 0.110316)
(4.75301e-06 2.61016e-07 0.0922742)
(2.08175e-05 -1.09084e-06 0.100489)
(8.75524e-05 -1.59336e-05 0.110317)
(-1.52772e-06 7.8466e-06 0.0768086)
(-4.29807e-08 2.27938e-05 0.0922425)
(-6.95885e-07 -6.07603e-07 0.0786733)
(6.32177e-07 2.64038e-06 0.0905628)
(-7.26462e-07 7.73235e-06 0.0786461)
(1.02347e-06 2.08092e-05 0.090523)
(-4.84695e-07 -6.7587e-07 0.0768425)
(-1.3083e-06 4.63456e-06 0.0681967)
(-1.24735e-06 -9.79762e-07 0.0861133)
(-1.10958e-06 1.41142e-05 0.0822813)
(-1.90282e-07 1.39286e-05 0.0860678)
(2.8185e-07 -2.66571e-06 0.0682483)
(8.41269e-06 -1.13874e-07 0.0768129)
(2.31891e-05 3.64589e-08 0.0922402)
(2.47371e-06 1.48211e-06 0.090562)
(5.82583e-08 -5.94848e-07 0.0786763)
(2.07678e-05 1.88716e-06 0.0905218)
(8.363e-06 -7.0442e-07 0.0786496)
(-1.40354e-07 6.80947e-07 0.0768456)
(5.04036e-06 -7.13453e-07 0.0682)
(-1.16418e-06 -9.35351e-07 0.0861135)
(1.38964e-05 -8.17979e-07 0.0822831)
(1.35509e-05 5.42061e-07 0.0860686)
(-2.10831e-06 4.74693e-08 0.0682483)
(2.71095e-06 5.90073e-06 0.0712751)
(6.13415e-06 2.71107e-06 0.0712749)
(8.31361e-06 9.68104e-06 0.0838496)
(-1.28597e-06 -9.14371e-07 0.0682978)
(-4.16807e-07 -1.40665e-06 0.0682924)
(4.06514e-06 3.13253e-06 0.0682616)
(3.10972e-06 4.56628e-06 0.0682551)
(1.7812e-06 2.87112e-06 0.0838767)
(1.61518e-05 2.83285e-05 0.0923579)
(-3.60336e-06 4.99595e-06 0.0816863)
(8.60609e-06 1.49407e-05 0.087887)
(9.96589e-06 1.28505e-05 0.0975262)
(2.24046e-06 1.39767e-05 0.0816563)
(5.94769e-06 5.37227e-06 0.0923916)
(2.7893e-05 4.57426e-05 0.09748)
(2.716e-05 1.68995e-05 0.0923467)
(4.65849e-06 -3.27928e-06 0.0816845)
(1.46461e-05 9.22914e-06 0.0878821)
(1.27378e-05 1.09513e-05 0.0975245)
(1.31132e-05 2.75068e-06 0.081649)
(4.0613e-06 7.10335e-06 0.0923872)
(4.58756e-05 2.80304e-05 0.097472)
(8.31565e-06 -5.2166e-07 0.0768089)
(2.31441e-05 1.24198e-07 0.0922394)
(1.19602e-07 -2.08727e-07 0.0786765)
(2.79922e-06 -9.66994e-07 0.0905624)
(8.3295e-06 -1.80299e-08 0.0786477)
(2.08213e-05 -1.05324e-06 0.0905204)
(-1.67409e-07 -1.79898e-06 0.0768445)
(4.77399e-06 -2.39017e-07 0.0682001)
(-1.5535e-06 4.45241e-07 0.0861148)
(1.31731e-05 -4.55311e-07 0.0860685)
(-2.5869e-06 -1.58757e-06 0.0682494)
(4.14879e-05 4.13023e-05 0.0988167)
(0.000112974 0.0001112 0.106229)
(-2.70647e-05 2.09367e-05 0.103259)
(2.18058e-05 -2.73379e-05 0.103258)
(1.03094e-05 1.06662e-05 0.0988897)
(9.84671e-05 5.48853e-05 0.103149)
(5.61673e-05 9.73832e-05 0.103144)
(1.10789e-05 0.00013974 0.104986)
(1.20538e-06 5.4405e-05 0.100425)
(3.25256e-06 1.67967e-05 0.0992826)
(4.60835e-06 -1.12964e-05 0.105934)
(4.15309e-06 5.06659e-05 0.0992007)
(3.62427e-06 0.000145536 0.105783)
(1.13441e-05 -1.64659e-05 0.105171)
(1.65317e-05 0.000128953 0.103336)
(1.87174e-06 8.93402e-06 0.0969806)
(8.20753e-06 3.55558e-05 0.0938874)
(1.28298e-05 -2.38209e-05 0.101234)
(5.34125e-06 4.13127e-05 0.0968966)
(2.12058e-05 0.00011423 0.101145)
(1.38971e-05 -2.5569e-05 0.103506)
(0.000141545 1.01695e-05 0.104983)
(5.55707e-05 7.71659e-07 0.10042)
(1.59899e-05 3.33931e-06 0.0992774)
(-9.98921e-06 4.18364e-06 0.105931)
(5.08142e-05 3.91692e-06 0.0991949)
(0.000148034 3.30005e-06 0.105782)
(-1.59773e-05 1.10892e-05 0.105167)
(0.000129829 1.58978e-05 0.103334)
(8.03957e-06 3.17383e-06 0.0969774)
(3.47767e-05 9.69189e-06 0.0938851)
(-2.36969e-05 1.38802e-05 0.101232)
(4.07298e-05 6.09253e-06 0.0968929)
(0.00011466 2.12093e-05 0.101142)
(-2.55835e-05 1.44061e-05 0.103504)
(0.000141399 -1.07708e-05 0.104984)
(5.54293e-05 -1.0081e-06 0.10042)
(-9.93448e-06 -4.76871e-06 0.105931)
(1.65977e-05 -3.0666e-06 0.0992779)
(0.000147845 -3.6623e-06 0.105782)
(5.08133e-05 -3.61857e-06 0.0991957)
(-1.5656e-05 -1.15264e-05 0.105168)
(0.000129812 -1.70213e-05 0.103333)
(8.81718e-06 -2.46143e-06 0.0969771)
(4.10752e-05 -5.44689e-06 0.0968922)
(-2.52978e-05 -1.46698e-05 0.103503)
(-3.25203e-05 8.29662e-05 0.108744)
(-2.49986e-05 -2.55224e-05 0.110999)
(-8.3122e-05 -8.14539e-05 0.105341)
(-2.00482e-05 -2.07943e-05 0.110982)
(2.62702e-05 1.52651e-05 0.0914696)
(-6.37981e-05 -3.1933e-05 0.108818)
(2.20607e-05 2.16383e-05 0.105576)
(-9.06249e-06 5.13367e-05 0.0709812)
(-7.33425e-05 -4.13852e-05 0.108763)
(-2.39461e-05 4.53346e-05 0.110986)
(5.52221e-06 -2.77087e-05 0.0930305)
(-7.71746e-05 8.20859e-05 0.10535)
(-1.49777e-05 -5.14205e-05 0.0872148)
(-3.08582e-05 -5.84141e-05 0.0709028)
(-1.43331e-05 -5.33863e-05 0.0817904)
(-4.10458e-05 -6.72116e-05 0.108763)
(3.5518e-05 -3.03261e-05 0.110962)
(-8.94425e-06 1.29324e-06 0.0992142)
(3.5492e-05 -1.66835e-05 0.0872371)
(-3.01727e-06 -4.54687e-05 0.0872581)
(-1.93893e-05 -4.88773e-05 0.0709302)
(3.54208e-05 9.19193e-06 0.0992997)
(3.08529e-05 -2.1945e-05 0.0930978)
(2.7202e-05 7.37062e-06 0.0914664)
(3.68118e-06 -4.17753e-05 0.081826)
(3.55981e-05 6.11967e-06 0.0993081)
(-2.85207e-05 -6.34216e-05 0.108815)
(9.63595e-06 5.03528e-05 0.093087)
(1.62838e-06 5.20769e-05 0.0818046)
(3.89049e-05 1.69308e-05 0.0930846)
(4.06713e-05 8.91184e-06 0.0818048)
(-1.721e-05 5.4254e-05 0.0872697)
(4.37327e-05 -7.5217e-06 0.0872718)
(3.98037e-05 -4.73477e-06 0.0709944)
(-3.39146e-05 -2.92759e-05 0.110992)
(3.71555e-05 -1.16308e-05 0.0930096)
(-7.37322e-06 2.9957e-06 0.0992187)
(-1.42596e-05 7.9846e-06 0.0914064)
(3.78173e-05 -4.91798e-06 0.0817637)
(-3.23255e-06 9.49988e-06 0.0914079)
(3.15086e-05 -9.372e-06 0.0709795)
(1.86659e-05 -1.72013e-05 0.0915772)
(6.45995e-05 3.76944e-06 0.0872655)
(9.02878e-05 -1.82625e-05 0.0811948)
(-4.33378e-06 -2.91492e-05 0.0965144)
(-4.73129e-06 2.64327e-05 0.0763692)
(9.1305e-06 5.16661e-06 0.0782255)
(1.79114e-05 2.96186e-05 0.0898348)
(7.51361e-06 1.3674e-05 0.0914264)
(5.82637e-06 2.44295e-05 0.0764025)
(-8.39174e-07 9.78773e-06 0.0781958)
(1.91768e-06 2.25514e-05 0.0897903)
(-1.87349e-05 4.91262e-05 0.0709065)
(6.53736e-05 2.2756e-05 0.0709807)
(-1.84598e-05 9.11537e-06 0.0832312)
(4.90845e-05 -2.23191e-06 0.0679419)
(-6.21484e-06 -5.92165e-05 0.0679469)
(1.31702e-05 -2.41723e-05 0.0915792)
(1.3146e-06 -8.0177e-05 0.0811143)
(2.76838e-06 1.9905e-05 0.0964821)
(-1.05127e-05 -7.33027e-05 0.087262)
(2.80902e-05 1.37437e-06 0.0965124)
(9.96968e-06 -0.000100131 0.0812042)
(-2.46222e-06 -8.7511e-06 0.0915556)
(-2.8197e-05 -7.53383e-05 0.0709714)
(-7.1628e-06 -4.32288e-05 0.0678784)
(-1.02205e-05 -3.26205e-05 0.0854664)
(-1.88298e-06 -6.82899e-05 0.081848)
(2.58894e-07 -4.32877e-05 0.0855087)
(-1.09731e-05 -3.49303e-05 0.0678205)
(1.8229e-05 6.46694e-06 0.0915997)
(-1.22712e-05 -9.44144e-06 0.0964799)
(3.9493e-05 7.9299e-06 0.0811573)
(4.1688e-05 -8.72103e-06 0.0872905)
(8.31126e-06 -1.13947e-05 0.091565)
(7.33519e-06 1.37901e-05 0.0965181)
(3.87582e-05 1.97306e-05 0.0812269)
(2.50543e-05 2.54739e-06 0.0898419)
(9.42223e-06 -5.42474e-06 0.0782337)
(7.71514e-06 -1.38755e-05 0.0764358)
(5.97491e-06 -2.30465e-05 0.0855279)
(-2.00026e-06 -2.25631e-05 0.067875)
(-8.40073e-06 3.32647e-05 0.0678041)
(5.67078e-06 3.9067e-05 0.0855088)
(-1.63435e-05 4.91159e-05 0.0817555)
(1.16093e-07 2.92418e-05 0.0678677)
(-7.35305e-06 3.55516e-05 0.0854574)
(1.93351e-05 -4.81399e-06 0.0678408)
(3.63113e-05 -7.67171e-06 0.0817537)
(2.43174e-05 1.01056e-05 0.0855079)
(2.0098e-05 -3.43818e-06 0.0854599)
(1.72822e-05 1.10297e-06 0.067905)
(-1.62963e-05 1.04642e-05 0.0915772)
(1.57775e-05 6.00215e-06 0.0965538)
(-2.26833e-05 4.18793e-05 0.087217)
(-5.47111e-07 5.46101e-05 0.0811721)
(-1.21807e-06 2.41174e-05 0.0916115)
(-8.53167e-06 -1.49267e-05 0.0965157)
(-1.38294e-05 4.84271e-05 0.0811052)
(1.93404e-06 -8.53678e-06 0.0915771)
(-1.5034e-06 2.03098e-05 0.0965558)
(3.14044e-05 -1.3542e-05 0.0872209)
(4.54672e-05 1.0523e-05 0.0811665)
(1.40179e-05 9.06989e-06 0.091612)
(-2.03598e-05 -4.85189e-06 0.0965193)
(3.84596e-05 -2.60389e-06 0.0810961)
(-2.37336e-05 -1.00045e-05 0.0832616)
(-5.41398e-07 3.59591e-05 0.0679045)
(2.5315e-05 6.24526e-06 0.0679003)
(-2.29326e-05 -8.97643e-06 0.0833032)
(-7.03328e-06 2.98949e-05 0.0678011)
(1.76568e-05 1.42712e-06 0.0677965)
(3.61972e-05 -1.26071e-05 0.0709205)
(-3.03811e-05 5.32514e-06 0.0764217)
(-1.46168e-05 2.32472e-05 0.0914412)
(-2.98514e-05 1.42932e-06 0.0897671)
(-1.40981e-05 2.51051e-06 0.0781902)
(-3.27888e-05 1.61985e-05 0.0898098)
(-3.13711e-05 -1.93206e-06 0.0763783)
(-1.44608e-05 9.65452e-06 0.0782247)
(1.05622e-05 1.31427e-06 0.0679205)
(2.45145e-05 -2.69448e-06 0.0854574)
(3.60537e-05 1.12951e-05 0.0818138)
(1.64931e-05 -5.58916e-06 0.0678613)
(2.39722e-05 1.02489e-05 0.085508)
(8.88947e-06 7.71286e-06 0.0764121)
(-2.50577e-06 2.44594e-05 0.0914413)
(1.48207e-05 4.00278e-06 0.0897699)
(-5.70484e-06 3.27202e-06 0.0781907)
(1.29986e-05 2.26902e-07 0.0763752)
(1.76872e-05 1.81067e-05 0.0898088)
(-7.77286e-06 1.03904e-05 0.0782229)
(2.90823e-05 -2.40669e-07 0.0710508)
(-1.03967e-05 9.69882e-07 0.0978484)
(1.89539e-05 2.40894e-05 0.105479)
(-3.04413e-05 -7.59126e-05 0.102107)
(-8.18126e-05 -2.76257e-05 0.10211)
(-5.20459e-06 2.54103e-05 0.102173)
(-3.34013e-05 -2.56209e-05 0.0978028)
(1.62459e-05 5.99559e-08 0.102173)
(-2.52524e-05 -2.30884e-05 0.0978563)
(1.17522e-06 1.98681e-05 0.102242)
(-8.0233e-05 -8.20955e-05 0.105432)
(1.64958e-05 1.91197e-06 0.102246)
(-4.14585e-06 8.08689e-07 0.0978969)
(-2.41573e-05 -7.86551e-05 0.102181)
(-7.98707e-05 -2.46609e-05 0.102185)
(9.09994e-05 3.19296e-05 0.102334)
(-2.28348e-05 3.43179e-05 0.100076)
(7.13046e-06 -5.61393e-06 0.0959015)
(2.67975e-05 -4.88171e-05 0.0930907)
(8.63416e-05 2.41038e-05 0.100135)
(3.42216e-05 -1.64339e-05 0.095976)
(-3.05263e-05 3.44345e-05 0.102194)
(3.65489e-07 -5.61531e-07 0.0978439)
(-7.5095e-05 2.1569e-05 0.102122)
(-1.80943e-05 7.87929e-05 0.102117)
(1.43228e-05 -9.55249e-06 0.105456)
(6.63713e-06 -9.16036e-06 0.102159)
(-1.90746e-05 2.03091e-05 0.0978212)
(1.16256e-05 -3.45183e-06 0.102162)
(8.1296e-06 7.01081e-05 0.104047)
(-1.1794e-05 2.97327e-05 0.0992804)
(5.15636e-06 -5.1742e-05 0.104679)
(-1.37734e-05 -2.38375e-07 0.0980719)
(1.34772e-05 -5.05842e-05 0.103874)
(2.73058e-06 6.98927e-05 0.104827)
(-2.05406e-05 2.78482e-05 0.0981466)
(8.17498e-05 1.44336e-05 0.104837)
(3.9645e-05 1.49505e-05 0.0981783)
(8.59979e-05 2.6749e-05 0.104076)
(8.59134e-05 2.91197e-05 0.100179)
(3.63374e-05 -6.54149e-07 0.0959915)
(9.01966e-05 3.16468e-05 0.102363)
(-4.38685e-05 -1.45195e-05 0.103909)
(8.07769e-05 -3.16616e-06 0.104847)
(3.34504e-05 6.35792e-06 0.0981886)
(2.85962e-06 4.55922e-06 0.0992287)
(8.13803e-05 -1.45653e-05 0.104093)
(-4.70283e-05 -1.91859e-06 0.10469)
(3.28678e-06 4.2353e-07 0.0981042)
(-3.71902e-05 -2.55918e-05 0.102227)
(3.06889e-05 2.08131e-05 0.0959938)
(6.92475e-05 -1.17648e-05 0.100175)
(-7.82748e-06 3.08993e-05 0.0930285)
(8.56559e-05 -2.18714e-05 0.102378)
(4.06256e-06 9.72514e-06 0.0959156)
(-3.90329e-05 -2.4317e-05 0.100109)
(-2.82343e-05 -4.0616e-05 0.102224)
(-1.74825e-05 7.06101e-05 0.100175)
(2.24554e-05 -1.60842e-06 0.0930285)
(1.1054e-05 3.24237e-05 0.0959839)
(2.69947e-06 5.2479e-06 0.0959103)
(-2.81625e-05 -3.83906e-05 0.10011)
(-2.644e-05 8.26706e-05 0.102373)
(-2.08098e-05 7.63802e-05 0.102337)
(-1.96152e-05 -4.48594e-05 0.100068)
(1.34072e-05 2.04991e-06 0.0958869)
(4.81115e-05 6.59205e-06 0.093063)
(-7.33953e-06 6.11818e-05 0.100128)
(-2.62457e-05 -4.22885e-05 0.102199)
(2.01706e-05 2.72498e-05 0.0959553)
(-1.88708e-05 7.06418e-05 0.104069)
(-7.38835e-06 3.10966e-05 0.0992832)
(-1.08996e-05 -5.10855e-05 0.104686)
(-1.19476e-06 1.80969e-06 0.0980821)
(-1.43172e-05 7.06937e-05 0.104834)
(-1.92103e-05 -4.98471e-05 0.103896)
(3.56519e-06 2.89541e-05 0.0981523)
(1.12552e-05 1.58742e-05 0.0914269)
(8.29611e-06 9.16156e-06 0.0992253)
(1.25545e-05 5.08804e-06 0.0914256)
(7.6003e-06 7.99819e-06 0.0992322)
(-1.92298e-05 5.12968e-05 0.0930138)
(-9.77768e-06 4.64163e-05 0.0817612)
(-2.5225e-05 4.54659e-05 0.0872353)
(-1.14574e-05 4.05211e-05 0.0709664)
(1.03998e-05 1.36122e-05 0.0763962)
(3.09512e-06 -3.12533e-07 0.0781927)
(9.61753e-07 3.40872e-05 0.0897849)
(2.67416e-05 1.50108e-05 0.0914625)
(1.21081e-05 -7.24e-06 0.0782225)
(1.53628e-05 3.58235e-05 0.0898241)
(2.73797e-07 2.2174e-05 0.0763619)
(5.301e-06 -3.2595e-05 0.0764502)
(8.7803e-06 -4.16257e-06 0.0897932)
(2.92099e-06 -1.2415e-05 0.0782047)
(2.86856e-05 1.86957e-06 0.0914643)
(2.37082e-05 -1.1755e-05 0.0898371)
(1.12051e-05 -1.91226e-05 0.0782386)
(-9.0887e-07 -2.49227e-05 0.0764034)
(4.21997e-06 1.46002e-05 0.0678964)
(-6.84575e-06 3.73454e-05 0.0854606)
(9.48205e-06 4.09203e-05 0.0818097)
(8.25136e-06 3.3747e-05 0.0855132)
(-4.27363e-06 2.51102e-05 0.0678307)
(-7.0843e-06 3.02536e-05 0.0915992)
(-1.52476e-05 -2.49672e-06 0.0964795)
(-1.54061e-05 5.0579e-05 0.0872915)
(-1.84285e-06 4.7105e-05 0.0811574)
(7.37143e-06 1.94331e-05 0.0965219)
(-2.36576e-05 1.98608e-05 0.0915631)
(1.1977e-05 4.44354e-05 0.0812241)
(-2.61485e-05 -1.4557e-05 0.083323)
(-3.46978e-07 2.96511e-05 0.0679273)
(2.13608e-05 4.07102e-06 0.0679267)
(-3.14126e-05 -1.80926e-05 0.0832846)
(6.70057e-06 2.91937e-05 0.068026)
(2.40487e-05 8.43293e-06 0.0680245)
(2.21642e-07 3.47407e-05 0.0710396)
(8.68634e-05 2.92726e-05 0.104065)
(-3.9962e-05 1.56306e-05 0.104686)
(1.15058e-05 1.23174e-05 0.0980914)
(3.78611e-05 8.56309e-06 0.0992986)
(4.07754e-05 6.80026e-06 0.0981708)
(8.25154e-05 1.87401e-05 0.104837)
(-3.54065e-05 2.77845e-05 0.10389)
(7.43778e-05 -7.14437e-06 0.104081)
(-4.2183e-05 -2.04588e-06 0.104695)
(2.49369e-06 1.21321e-05 0.0980988)
(3.55623e-05 1.05305e-05 0.0993032)
(7.88519e-05 -1.51944e-06 0.104847)
(2.8474e-05 1.98801e-05 0.0981733)
(-4.42773e-05 -1.13503e-05 0.103905)
(7.58372e-05 -9.65346e-06 0.102348)
(-8.55188e-07 2.62263e-05 0.0959013)
(-4.75921e-05 -1.1464e-05 0.10007)
(-6.04391e-07 6.38097e-05 0.0930696)
(2.36342e-05 3.57273e-05 0.0959719)
(5.70589e-05 4.11481e-06 0.100133)
(-4.10012e-05 -1.89511e-05 0.102207)
(1.23512e-06 6.01279e-06 0.0712563)
(7.07413e-06 3.67855e-07 0.0712551)
(0.000111685 0.00011127 0.106205)
(6.86888e-06 1.43595e-05 0.087856)
(1.4627e-05 7.12909e-06 0.0878507)
(-8.69175e-08 2.25237e-05 0.0922059)
(-1.71325e-06 1.35348e-05 0.0822567)
(2.4256e-07 2.20496e-05 0.0922062)
(3.17874e-06 1.39518e-05 0.0822575)
(1.31748e-06 5.4224e-05 0.100375)
(4.73446e-05 7.23704e-05 0.108892)
(7.62514e-06 3.4195e-05 0.09385)
(1.49125e-05 8.49019e-05 0.110352)
(-5.05874e-07 5.34545e-05 0.100375)
(-4.91553e-05 7.28269e-05 0.108894)
(-6.08258e-06 3.41612e-05 0.0938469)
(-1.60177e-05 8.49203e-05 0.110353)
(7.74372e-08 6.20595e-06 0.0712586)
(-0.000114268 0.000115077 0.106209)
(-5.32391e-06 1.50437e-05 0.0878515)
(-1.53726e-05 5.06487e-06 0.0878541)
(-6.30948e-06 -2.33641e-07 0.0712585)
(2.2807e-05 2.28242e-08 0.0922049)
(1.48527e-05 -2.76057e-06 0.0822579)
(5.34824e-05 7.82667e-07 0.10037)
(7.24324e-05 4.80432e-05 0.108891)
(3.39968e-05 9.20435e-06 0.0938477)
(8.58741e-05 1.51384e-05 0.110351)
(2.30123e-05 2.67213e-07 0.0922039)
(1.40184e-05 3.18354e-07 0.0822568)
(5.39286e-05 -1.19195e-06 0.10037)
(7.25652e-05 -4.66329e-05 0.10889)
(8.60687e-05 -1.49113e-05 0.110351)
(3.48142e-05 -9.32519e-06 0.0938445)
(-7.21702e-05 4.96893e-05 0.108895)
(-3.44771e-05 5.82148e-06 0.0938494)
(-1.38025e-05 -3.59972e-06 0.0822572)
(5.89447e-06 -3.29083e-06 0.071257)
(0.000112077 -0.000111312 0.106204)
(1.43231e-05 -9.36536e-06 0.0878524)
(8.5724e-06 -1.5446e-05 0.0878549)
(2.26713e-06 -6.1706e-06 0.0712577)
(1.36605e-06 -5.34819e-05 0.100374)
(4.72632e-05 -7.15346e-05 0.108892)
(1.54835e-05 -8.3937e-05 0.110353)
(8.58032e-06 -3.53798e-05 0.0938471)
(-6.78951e-07 -2.31701e-05 0.0922064)
(-1.45564e-06 -1.44362e-05 0.082257)
(-4.33722e-06 -1.49181e-06 0.0712982)
(-1.92257e-07 -5.40282e-06 0.0712977)
(3.90101e-06 3.65155e-06 0.0838502)
(3.22832e-06 2.4475e-06 0.0682475)
(3.50296e-06 2.30699e-06 0.0682411)
(9.52448e-06 1.00999e-05 0.0838227)
(-2.1082e-06 -1.53607e-06 0.0682871)
(-1.24485e-07 -3.60452e-06 0.0682817)
(5.19229e-06 5.33724e-06 0.0923561)
(-3.82003e-06 5.51551e-06 0.08789)
(2.16463e-07 1.26124e-05 0.0816317)
(2.75633e-05 4.4583e-05 0.0974421)
(1.52477e-05 2.79845e-05 0.0923245)
(-5.57285e-06 3.39967e-06 0.0816634)
(1.00534e-05 1.20676e-05 0.0974857)
(4.10929e-06 6.3596e-06 0.0923528)
(5.68046e-06 -3.87991e-06 0.0878888)
(1.27092e-05 1.53048e-08 0.0816253)
(4.39757e-05 2.88604e-05 0.0974326)
(2.63309e-05 1.64585e-05 0.0923127)
(4.15748e-06 -6.04994e-06 0.081662)
(1.12389e-05 1.15716e-05 0.0974849)
(-1.41819e-07 -4.84484e-07 0.0768231)
(-1.48785e-07 4.07462e-06 0.0922393)
(-9.4083e-07 8.07855e-06 0.0786254)
(5.53717e-07 2.06477e-05 0.0904889)
(-2.04108e-06 8.22831e-06 0.0767894)
(-4.77416e-07 -3.05812e-07 0.0786525)
(-1.11481e-07 2.39291e-06 0.090529)
(5.5394e-07 -2.44825e-06 0.0682328)
(-4.59126e-06 -3.60314e-06 0.0822983)
(-6.79379e-07 1.37462e-05 0.0860388)
(-1.39826e-06 4.86711e-06 0.0681819)
(-1.78392e-06 -1.45333e-06 0.086085)
(-6.18773e-09 -5.07703e-07 0.0768209)
(3.18666e-07 3.7009e-06 0.0922396)
(-2.72221e-07 8.197e-06 0.0786253)
(2.53265e-07 1.99356e-05 0.0904898)
(1.82147e-06 8.43336e-06 0.0767888)
(-5.73432e-07 -2.9184e-07 0.0786521)
(8.13826e-07 1.97876e-06 0.0905293)
(-3.87677e-07 -2.64417e-06 0.0682327)
(5.0458e-06 -3.08054e-06 0.0822986)
(1.45187e-06 1.32507e-05 0.0860404)
(1.9475e-06 5.08351e-06 0.0681831)
(2.10589e-06 -1.64054e-06 0.0860859)
(4.39965e-06 -1.603e-06 0.0713023)
(-4.72238e-06 4.71023e-06 0.0838507)
(-2.18235e-06 2.78307e-06 0.0682489)
(-3.38103e-06 1.8771e-06 0.0682557)
(-1.1613e-05 1.19139e-05 0.0838217)
(2.11229e-06 -1.21472e-06 0.0682893)
(1.74313e-07 -2.92255e-06 0.0682945)
(-4.58556e-06 6.27885e-06 0.092346)
(4.51087e-06 5.92991e-06 0.0878891)
(7.79005e-07 1.24459e-05 0.081628)
(-2.83982e-05 4.44922e-05 0.0974332)
(-9.84012e-06 1.22483e-05 0.097479)
(-1.4744e-05 2.88004e-05 0.0923109)
(4.85981e-06 4.00585e-06 0.081663)
(-5.73613e-06 5.061e-06 0.0923544)
(-6.6524e-06 -4.96364e-06 0.0878908)
(-1.21898e-05 -1.14758e-06 0.081634)
(-4.43034e-05 2.88532e-05 0.0974365)
(-2.82807e-05 1.51431e-05 0.0923176)
(-4.00857e-06 -5.5771e-06 0.0816686)
(-1.23888e-05 1.04373e-05 0.0974834)
(1.30603e-06 -4.98729e-06 0.0713022)
(1.30421e-07 -8.90548e-07 0.0768243)
(4.27e-06 -1.98461e-07 0.0922393)
(2.04407e-05 1.29206e-06 0.0904894)
(8.73562e-06 -1.04219e-06 0.0786286)
(8.82057e-06 -1.70021e-06 0.0767925)
(2.31611e-06 3.72825e-07 0.0905298)
(2.27072e-07 -9.39092e-07 0.0786543)
(-1.77466e-06 -1.53706e-06 0.0682299)
(-1.85916e-06 -5.87294e-06 0.0822993)
(1.39629e-05 -8.54497e-07 0.0860398)
(5.52191e-06 -2.63496e-06 0.0681815)
(-8.69013e-07 -2.48758e-06 0.0860849)
(-1.17853e-07 -9.36225e-07 0.0768235)
(4.5765e-06 1.84272e-07 0.0922393)
(8.66596e-06 8.6318e-08 0.0786268)
(2.07945e-05 -1.34292e-06 0.090488)
(8.5703e-06 1.64602e-07 0.0767887)
(2.13125e-07 -2.25769e-07 0.0786547)
(2.68472e-06 -1.17604e-06 0.0905303)
(-2.45042e-06 -5.2558e-07 0.0682309)
(-2.45198e-06 3.05256e-06 0.0822988)
(1.36088e-05 -3.2508e-07 0.0860407)
(4.92956e-06 6.84717e-07 0.0681816)
(-1.16015e-06 7.78687e-07 0.0860868)
(2.33016e-06 2.46535e-07 0.0682323)
(3.25339e-06 -5.83013e-06 0.0822988)
(-1.32298e-05 -1.40083e-06 0.0860389)
(-4.85008e-06 -1.59604e-06 0.0681785)
(1.75791e-06 -2.33423e-06 0.0860859)
(-1.10455e-06 2.36282e-06 0.0712987)
(1.23284e-06 -2.1116e-06 0.0838501)
(3.28553e-06 -5.00708e-06 0.0682416)
(4.31675e-06 -3.79689e-06 0.0682479)
(8.52659e-06 -9.52078e-06 0.0838222)
(-2.8612e-07 2.49516e-07 0.0682752)
(-7.77653e-07 -1.10371e-07 0.0682818)
(4.46103e-06 -6.8778e-06 0.0923489)
(5.28891e-06 8.07117e-07 0.0878892)
(1.33822e-05 -3.55359e-06 0.0816266)
(4.54727e-05 -2.77568e-05 0.0974308)
(1.26634e-05 -1.01768e-05 0.0974798)
(2.75848e-05 -1.66913e-05 0.0923119)
(5.47499e-06 1.80696e-06 0.0816579)
(5.89563e-06 -5.33426e-06 0.0923578)
(2.69981e-06 -1.42095e-05 0.0816323)
(2.74195e-05 -4.55328e-05 0.0974351)
(-1.65454e-06 -6.35812e-06 0.0878917)
(1.57621e-05 -2.82557e-05 0.0923196)
(-2.50898e-06 -6.22607e-06 0.081665)
(9.68288e-06 -1.30542e-05 0.0974852)
(-3.13793e-06 1.07621e-06 0.0712984)
(9.88258e-08 -2.09929e-05 0.0904893)
(-6.65173e-07 -8.50349e-06 0.0786259)
(-1.06831e-06 -8.40777e-06 0.0767875)
(-7.44329e-07 -1.36176e-05 0.0860393)
(-1.31546e-06 -4.80622e-06 0.068175)
(4.89522e-05 4.88486e-05 0.111151)
(1.84656e-05 5.37721e-05 0.11172)
(5.42907e-05 1.82001e-05 0.11172)
(2.01766e-05 1.97604e-05 0.112056)
(-4.92912e-05 4.97591e-05 0.111152)
(-1.84154e-05 5.3875e-05 0.11172)
(-5.353e-05 1.8626e-05 0.11172)
(-1.94722e-05 1.98425e-05 0.112056)
(-4.98269e-05 -4.88098e-05 0.111151)
(-5.38404e-05 -1.84317e-05 0.11172)
(-1.85425e-05 -5.32493e-05 0.111721)
(-1.95628e-05 -1.95864e-05 0.112056)
(4.94828e-05 -4.86328e-05 0.111152)
(5.44233e-05 -1.82039e-05 0.11172)
(1.87083e-05 -5.32789e-05 0.111721)
(2.02501e-05 -1.95688e-05 0.112056)
(1.06345e-05 1.22515e-05 0.0988499)
(-2.4035e-05 -2.34261e-05 0.106409)
(9.80769e-05 5.51694e-05 0.103116)
(5.50258e-05 9.85261e-05 0.10311)
(4.11492e-05 4.23818e-05 0.0987794)
(-2.58052e-05 2.21858e-05 0.103224)
(2.12074e-05 -2.44913e-05 0.103223)
(1.06496e-05 -1.6353e-05 0.105133)
(9.93346e-07 1.9991e-05 0.100444)
(3.98137e-06 5.01096e-05 0.0991533)
(3.42135e-06 0.000145041 0.105749)
(1.01526e-05 0.000139225 0.104949)
(2.86184e-06 1.5603e-05 0.0992345)
(4.24163e-06 -1.07679e-05 0.105899)
(1.40498e-05 -2.61051e-05 0.103464)
(-1.93623e-06 7.72304e-06 0.0939109)
(5.18101e-06 4.01421e-05 0.0968535)
(2.09117e-05 0.000112364 0.101105)
(1.34412e-05 -2.46559e-05 0.101192)
(1.56982e-05 0.000127903 0.103295)
(1.94171e-06 7.39723e-06 0.0969368)
(-1.18292e-05 -1.7602e-05 0.105134)
(-6.37342e-07 1.94156e-05 0.100444)
(-3.56847e-06 4.86614e-05 0.0991535)
(-3.66579e-06 0.000144298 0.105749)
(-1.13544e-05 0.000137783 0.104949)
(-2.53108e-06 1.47321e-05 0.0992351)
(-4.75084e-06 -1.14362e-05 0.1059)
(-1.59536e-05 -2.75387e-05 0.103465)
(3.55753e-06 8.00822e-06 0.0939086)
(-5.15446e-06 3.90593e-05 0.0968534)
(-2.30215e-05 0.000111999 0.101103)
(-1.83504e-05 0.000126349 0.103295)
(-1.52659e-06 6.7972e-06 0.0969367)
(-1.43808e-05 -2.46992e-05 0.10119)
(-1.14475e-05 1.24266e-05 0.0988433)
(2.17457e-05 -2.06713e-05 0.106413)
(-0.000101565 5.71878e-05 0.103112)
(-5.64269e-05 0.000102145 0.103114)
(2.34301e-05 2.33207e-05 0.10322)
(-4.29473e-05 4.36309e-05 0.0987747)
(-2.24198e-05 -2.27956e-05 0.103223)
(-1.78299e-05 1.17595e-05 0.10513)
(1.89172e-05 9.26202e-07 0.10044)
(4.87777e-05 4.53998e-06 0.0991491)
(0.000144942 3.13078e-06 0.105745)
(0.000138484 1.06215e-05 0.104944)
(1.43775e-05 3.88164e-06 0.0992324)
(-1.18943e-05 4.35285e-06 0.105895)
(-2.7291e-05 1.57882e-05 0.103462)
(7.79448e-06 -7.39741e-07 0.0939101)
(3.93653e-05 6.70212e-06 0.0968514)
(0.000112079 2.24152e-05 0.1011)
(-2.52758e-05 1.50564e-05 0.10119)
(0.000127119 1.70226e-05 0.103292)
(6.98872e-06 3.39571e-06 0.096936)
(-1.69882e-05 -1.10947e-05 0.105129)
(1.95026e-05 -9.17566e-07 0.10044)
(0.000145188 -3.66628e-06 0.105746)
(4.97929e-05 -4.19024e-06 0.0991485)
(0.000139139 -1.06363e-05 0.104945)
(-1.14866e-05 -4.44709e-06 0.105895)
(1.54825e-05 -3.38916e-06 0.0992316)
(-2.65179e-05 -1.38961e-05 0.103461)
(8.1458e-06 -4.88033e-07 0.0939085)
(4.02572e-05 -6.06827e-06 0.0968495)
(0.000113425 -2.12193e-05 0.101098)
(0.000127697 -1.62212e-05 0.103291)
(7.79192e-06 -2.97261e-06 0.0969351)
(-2.4009e-05 -1.31794e-05 0.101187)
(2.78663e-05 1.63398e-05 0.103468)
(-8.47354e-06 -3.88584e-06 0.0939106)
(-3.92484e-05 4.93463e-06 0.0968556)
(-0.000111727 2.35279e-05 0.101106)
(-0.000126035 1.86611e-05 0.103297)
(2.48688e-05 1.48453e-05 0.101193)
(-7.06177e-06 1.30825e-06 0.0969389)
(9.51712e-06 -9.98639e-06 0.0988466)
(-2.46802e-05 2.51908e-05 0.106408)
(5.55064e-05 -9.75553e-05 0.103107)
(9.78413e-05 -5.50615e-05 0.103111)
(2.08764e-05 2.75559e-05 0.103218)
(4.11235e-05 -4.13095e-05 0.0987744)
(-2.75612e-05 -2.08154e-05 0.103222)
(4.21316e-06 -0.00014381 0.105748)
(4.11231e-06 -4.93131e-05 0.0991518)
(1.11767e-05 -0.00013781 0.104948)
(5.8871e-06 -3.99617e-05 0.0968523)
(2.1762e-05 -0.000112851 0.101102)
(1.71007e-05 -0.000126477 0.103294)
(2.22046e-06 5.4041e-06 0.0712007)
(3.85674e-06 3.53705e-06 0.0712004)
(0.00010817 0.000108129 0.106098)
(7.13451e-06 1.50177e-05 0.0877414)
(1.51941e-05 7.30294e-06 0.0877406)
(2.06758e-05 -9.81874e-07 0.0920669)
(1.25303e-05 -2.17369e-06 0.0821603)
(0.00013172 9.90999e-06 0.104798)
(7.12148e-05 4.5934e-05 0.108918)
(3.60052e-05 3.97683e-06 0.093699)
(8.3723e-05 1.49559e-05 0.110485)
(2.0597e-05 2.26134e-07 0.0920664)
(0.000136388 -4.63918e-06 0.105607)
(8.38589e-05 -1.71334e-05 0.110484)
(-1.61113e-06 -2.26979e-06 0.0712418)
(-3.96667e-06 3.94278e-07 0.0712434)
(2.48296e-06 4.38094e-06 0.0837586)
(3.48271e-06 3.51595e-06 0.0682034)
(1.52583e-06 5.72022e-06 0.0681977)
(-8.19896e-07 -4.84077e-07 0.068236)
(-2.31894e-06 1.65805e-06 0.0682304)
(9.98276e-06 1.09912e-05 0.0837305)
(4.43322e-06 5.05661e-06 0.0922284)
(2.73394e-06 1.22958e-05 0.0815494)
(2.50651e-05 4.39453e-05 0.0972739)
(-1.50023e-06 5.69158e-06 0.0877779)
(-7.02027e-07 4.34475e-06 0.0815806)
(1.40451e-05 2.72879e-05 0.0921894)
(7.49136e-06 1.23895e-05 0.0973243)
(5.71073e-06 4.15953e-06 0.0922212)
(1.13669e-05 3.67479e-06 0.0815407)
(4.40862e-05 2.3922e-05 0.0972748)
(5.62328e-06 -1.08972e-06 0.0877775)
(2.46543e-06 4.23082e-07 0.0815735)
(1.29071e-05 6.41427e-06 0.0973227)
(2.85985e-05 1.31499e-05 0.0921836)
(-1.77472e-06 2.41395e-06 0.0767463)
(1.93387e-05 -1.71395e-06 0.0903626)
(6.56473e-06 6.89515e-07 0.0785466)
(2.69578e-06 -6.06157e-07 0.0920993)
(1.35861e-06 -1.04009e-06 0.0904016)
(-1.95549e-06 1.13868e-06 0.0785748)
(6.85259e-06 6.06908e-08 0.0767128)
(-3.28221e-06 2.67022e-06 0.0681688)
(1.24753e-05 -9.93619e-07 0.0859327)
(-4.78516e-06 -3.05644e-06 0.082201)
(-2.7025e-06 -9.86722e-07 0.0859778)
(4.06063e-06 2.88481e-07 0.0681197)
(-1.71235e-06 -6.83063e-07 0.0767487)
(6.50235e-06 1.03824e-06 0.0785457)
(2.80812e-06 4.9683e-07 0.0920995)
(1.89226e-05 1.17448e-06 0.0903613)
(-1.89151e-06 8.24376e-07 0.0785762)
(1.34706e-06 1.09132e-06 0.0904017)
(6.79044e-06 1.39429e-06 0.0767118)
(4.86561e-05 5.0278e-05 0.111205)
(6.73172e-07 1.80027e-05 0.100394)
(-1.30531e-06 1.81479e-05 0.100394)
(8.08349e-06 -2.79885e-06 0.0938718)
(4.0744e-06 -2.543e-07 0.0922051)
(1.79613e-05 -6.12509e-07 0.100393)
(-7.20657e-05 5.00657e-05 0.108903)
(-8.49247e-05 -1.49619e-05 0.110387)
(-3.38357e-06 6.59045e-07 0.0922028)
(-2.54128e-05 2.53245e-05 0.106384)
(1.48705e-05 -8.32002e-05 0.110387)
(-4.86583e-05 -7.01964e-05 0.108902)
(2.25441e-05 2.40747e-05 0.106382)
(1.03188e-06 4.28336e-06 0.0712843)
(0.000108861 -0.000109254 0.106154)
(5.32984e-05 1.99487e-05 0.111922)
(-7.21242e-05 4.99992e-05 0.108908)
(7.94613e-07 5.04854e-05 0.100277)
(-1.46074e-06 5.08593e-05 0.100277)
(3.43886e-05 5.2652e-06 0.0937721)
(2.18544e-05 -4.31589e-07 0.092136)
(5.05384e-05 -8.31653e-07 0.100277)
(-2.14711e-05 4.71489e-07 0.0921355)
(-1.9188e-05 5.49887e-05 0.111787)
(-5.44592e-05 -1.76116e-05 0.111787)
(1.79662e-05 -5.26679e-05 0.111788)
(6.39661e-06 6.79941e-07 0.0712205)
(4.65413e-05 -7.0725e-05 0.108908)
(6.43053e-06 -3.39771e-05 0.0937752)
(-5.18595e-06 -1.49197e-06 0.0712842)
(-5.58954e-07 -6.51717e-06 0.0712824)
(-4.66981e-06 6.22875e-06 0.0878596)
(6.5657e-06 -5.23462e-06 0.0878595)
(-2.34105e-05 -2.132e-05 0.106383)
(-3.00666e-07 3.4973e-06 0.0922033)
(-6.09076e-06 -3.5533e-06 0.082274)
(4.23069e-07 3.66539e-06 0.0922035)
(4.66914e-06 -3.57225e-06 0.0822735)
(-2.98083e-06 7.87352e-06 0.0938713)
(4.80451e-05 7.33102e-05 0.108899)
(1.48592e-05 8.50213e-05 0.110387)
(3.50113e-06 8.59185e-06 0.0938706)
(-1.67536e-05 8.5127e-05 0.110387)
(-4.93172e-05 7.34344e-05 0.108902)
(3.17413e-06 -2.42301e-06 0.0712875)
(3.29774e-06 5.91983e-06 0.0878627)
(2.27898e-05 -2.15538e-05 0.106385)
(-6.98059e-06 -4.37025e-06 0.0878601)
(1.63874e-06 -4.48945e-06 0.0712871)
(-2.11654e-06 -7.23281e-06 0.0822744)
(3.99484e-06 -8.50082e-07 0.0922049)
(1.77266e-05 1.52424e-06 0.100393)
(7.1465e-05 5.00006e-05 0.1089)
(8.40275e-05 1.6601e-05 0.110385)
(-2.30145e-06 4.89972e-06 0.0822737)
(7.05841e-05 -4.61524e-05 0.108898)
(8.38836e-05 -1.39443e-05 0.110385)
(7.46049e-06 1.47444e-07 0.0938725)
(-8.44309e-05 1.69117e-05 0.110388)
(-8.96246e-06 -3.96555e-06 0.0938706)
(-1.83969e-05 1.29954e-06 0.100397)
(3.42603e-06 -5.80126e-06 0.0822739)
(-3.4127e-06 -1.78115e-07 0.0922032)
(-7.26462e-05 -4.69985e-05 0.108898)
(-1.85346e-05 -1.94131e-07 0.100395)
(-8.06102e-06 1.95693e-06 0.0938701)
(2.89796e-06 5.1748e-06 0.0822748)
(-8.38973e-07 4.5104e-06 0.0712797)
(5.58345e-06 2.40805e-06 0.0878588)
(-3.16972e-06 -5.92784e-06 0.0878615)
(-4.42965e-06 1.04109e-06 0.0712795)
(4.63931e-05 -7.08291e-05 0.1089)
(-1.82811e-06 -8.34263e-06 0.0938741)
(-1.62655e-05 -8.26755e-05 0.110387)
(-4.90507e-06 2.40105e-06 0.0822733)
(-6.07142e-06 3.09981e-06 0.0878597)
(1.48956e-05 -6.38941e-06 0.0877927)
(5.809e-06 -1.4808e-05 0.0877952)