/*--------------------------------*- C++ -*----------------------------------*\
| =========                 |                                                 |
| \\      /  F ield         | OpenFOAM: The Open Source CFD Toolbox           |
|  \\    /   O peration     | Version:  v2012                                 |
|   \\  /    A nd           | Website:  www.openfoam.com                      |
|    \\/     M anipulation  |                                                 |
\*---------------------------------------------------------------------------*/
FoamFile
{
    version     2.0;
    format      ascii;
    class       volScalarField;
    location    "325";
    object      k;
}
// * * * * * * * * * * * * * * * * * * * * * * * * * * * * * * * * * * * * * //

dimensions      [0 2 -2 0 0 0 0];


internalField   nonuniform List<scalar> 
171728
(
4.85908e-07
2.92029e-07
3.32662e-07
3.52858e-07
4.807e-07
2.78512e-07
3.16264e-07
3.35285e-07
4.81431e-07
2.66294e-07
3.01097e-07
3.18673e-07
4.82609e-07
2.55651e-07
2.87248e-07
3.03361e-07
4.84314e-07
2.45795e-07
2.74775e-07
2.89144e-07
4.8638e-07
2.36827e-07
2.63836e-07
2.76117e-07
4.89124e-07
2.28762e-07
2.54113e-07
2.64462e-07
4.92407e-07
2.21962e-07
2.4549e-07
2.5378e-07
4.96221e-07
2.16205e-07
2.37854e-07
2.44457e-07
5.00571e-07
2.10979e-07
2.30988e-07
2.36591e-07
5.05408e-07
2.06446e-07
2.25282e-07
2.30193e-07
5.10778e-07
2.03216e-07
2.20971e-07
2.25131e-07
5.1626e-07
2.01531e-07
2.18091e-07
2.21173e-07
5.21956e-07
2.01055e-07
2.17024e-07
2.18006e-07
5.2789e-07
2.03146e-07
2.18005e-07
2.17448e-07
5.34114e-07
2.09656e-07
2.21674e-07
2.20791e-07
5.40313e-07
2.19581e-07
2.30038e-07
2.30085e-07
5.4676e-07
2.37608e-07
2.48249e-07
2.4993e-07
5.53347e-07
2.70882e-07
2.79165e-07
2.88234e-07
5.60114e-07
3.17259e-07
3.26446e-07
3.6377e-07
5.67676e-07
3.95205e-07
3.98497e-07
4.94989e-07
5.76329e-07
5.17586e-07
5.13265e-07
7.1968e-07
5.85561e-07
6.89115e-07
6.81639e-07
1.06455e-06
5.97062e-07
8.96729e-07
9.04672e-07
1.70599e-06
6.09826e-07
1.19995e-06
1.27011e-06
2.9019e-06
6.24255e-07
1.72121e-06
1.63115e-06
3.73274e-06
6.45226e-07
2.08426e-06
2.16922e-06
5.68722e-06
6.66096e-07
2.89831e-06
2.82887e-06
8.10453e-06
6.97174e-07
3.4661e-06
3.54701e-06
9.73417e-06
7.39783e-07
4.59615e-06
4.40007e-06
1.27791e-05
7.85537e-07
5.19037e-06
5.50208e-06
1.52332e-05
8.55014e-07
6.72755e-06
6.45242e-06
1.74913e-05
9.49837e-07
7.47159e-06
8.0256e-06
1.95419e-05
1.0458e-06
9.44334e-06
8.78435e-06
2.20901e-05
1.21777e-06
1.0406e-05
1.11432e-05
2.3442e-05
1.35762e-06
1.20731e-05
1.19502e-05
2.53034e-05
1.63885e-06
1.39805e-05
1.36146e-05
2.68326e-05
1.9373e-06
1.5693e-05
1.58161e-05
2.81535e-05
2.0344e-06
1.71112e-05
1.73752e-05
2.94304e-05
2.74322e-06
1.8866e-05
1.89121e-05
3.081e-05
3.07935e-06
2.20127e-05
2.12183e-05
3.19628e-05
3.88982e-06
2.26046e-05
2.30743e-05
3.32379e-05
4.0759e-06
2.34383e-05
2.3963e-05
3.40134e-05
5.37389e-06
2.75385e-05
2.66411e-05
3.5728e-05
5.81643e-06
2.85951e-05
2.7699e-05
3.62696e-05
7.19647e-06
2.919e-05
3.04205e-05
3.78759e-05
7.7738e-06
3.16017e-05
3.09794e-05
3.83356e-05
9.26554e-06
3.28904e-05
3.28433e-05
3.9989e-05
1.05976e-05
3.40293e-05
3.40329e-05
4.03778e-05
1.11977e-05
3.64525e-05
3.64697e-05
4.18915e-05
1.39114e-05
3.706e-05
3.7202e-05
4.29032e-05
1.45045e-05
3.78451e-05
3.77004e-05
4.31619e-05
1.59e-05
3.98148e-05
3.97665e-05
4.46111e-05
1.77476e-05
4.07604e-05
4.08971e-05
4.51745e-05
1.92985e-05
4.17542e-05
4.17133e-05
4.60205e-05
2.05249e-05
4.28504e-05
4.27164e-05
4.69801e-05
2.23179e-05
4.36591e-05
4.34377e-05
4.73468e-05
2.3518e-05
4.42197e-05
4.47897e-05
4.83346e-05
2.51542e-05
4.61529e-05
4.56375e-05
4.90159e-05
2.67308e-05
4.62627e-05
4.65177e-05
4.92245e-05
2.78597e-05
4.68264e-05
4.67688e-05
5.03761e-05
2.91664e-05
4.83735e-05
4.84556e-05
5.09556e-05
3.05762e-05
4.85439e-05
4.8939e-05
5.10969e-05
3.18737e-05
4.91008e-05
4.88522e-05
5.19493e-05
3.22111e-05
4.99714e-05
4.9855e-05
5.2172e-05
3.41507e-05
5.04659e-05
5.09402e-05
5.27701e-05
3.48154e-05
5.12239e-05
5.11205e-05
5.33853e-05
3.60975e-05
5.18437e-05
5.15944e-05
5.39014e-05
3.66664e-05
5.14328e-05
5.12385e-05
5.31216e-05
3.67607e-05
5.21611e-05
5.23086e-05
5.43409e-05
3.9629e-05
5.46003e-05
5.4676e-05
5.6532e-05
4.08612e-05
5.47384e-05
5.47813e-05
5.62122e-05
3.90489e-05
5.10319e-05
5.10389e-05
5.24456e-05
3.62577e-05
4.91875e-05
4.91862e-05
5.07827e-05
3.60994e-05
5.07032e-05
5.06893e-05
5.28842e-05
4.10958e-05
5.46869e-05
5.46832e-05
5.64877e-05
4.59932e-05
5.88389e-05
5.88433e-05
6.04983e-05
4.88116e-05
6.09786e-05
6.09851e-05
6.25939e-05
4.86497e-05
5.90698e-05
5.90754e-05
5.98349e-05
4.2709e-05
5.31656e-05
5.31696e-05
5.4265e-05
3.78025e-05
4.9604e-05
4.96072e-05
5.10319e-05
3.60405e-05
4.88179e-05
4.88205e-05
5.05683e-05
3.73932e-05
5.02541e-05
5.02564e-05
5.21127e-05
4.01171e-05
5.16318e-05
5.16349e-05
5.34168e-05
4.12429e-05
5.21276e-05
5.21309e-05
5.39765e-05
4.16129e-05
5.22329e-05
5.22362e-05
5.41497e-05
4.17367e-05
5.22424e-05
5.22456e-05
5.42021e-05
4.17658e-05
5.22338e-05
5.22368e-05
5.42149e-05
4.17563e-05
5.22123e-05
5.22154e-05
5.42005e-05
4.17522e-05
5.22078e-05
5.22108e-05
5.41913e-05
4.17541e-05
5.22107e-05
5.22137e-05
5.42092e-05
4.17527e-05
5.22082e-05
5.22112e-05
5.41932e-05
4.17525e-05
5.22104e-05
5.22134e-05
5.42001e-05
4.17425e-05
5.21941e-05
5.2197e-05
5.41959e-05
4.13584e-05
5.11161e-05
5.11185e-05
5.38794e-05
3.5963e-07
3.46342e-07
3.55794e-07
3.50733e-07
3.4846e-07
3.46354e-07
4.92962e-07
4.91009e-07
4.89211e-07
4.91461e-07
3.31627e-07
3.45804e-07
3.59306e-07
3.44479e-07
3.19595e-07
3.53846e-07
3.5845e-07
3.41362e-07
3.45153e-07
3.80938e-07
3.32034e-07
3.77175e-07
3.49696e-07
3.34379e-07
3.51988e-07
3.46708e-07
3.37764e-07
3.32979e-07
3.4741e-07
2.81773e-07
3.33859e-07
3.58264e-07
3.41946e-07
2.93383e-07
3.20259e-07
2.86848e-07
3.366e-07
3.3999e-07
3.24194e-07
3.27795e-07
3.76354e-07
3.15572e-07
3.75921e-07
3.31496e-07
3.19091e-07
3.33138e-07
3.28546e-07
3.20225e-07
3.16071e-07
3.29484e-07
2.69211e-07
3.17223e-07
3.40625e-07
3.24705e-07
2.84585e-07
3.04743e-07
2.78086e-07
3.19856e-07
3.22857e-07
3.09057e-07
3.11583e-07
3.76081e-07
3.00465e-07
3.78695e-07
3.16619e-07
3.07237e-07
3.16192e-07
3.12167e-07
3.04515e-07
3.00981e-07
3.13358e-07
2.58244e-07
3.02646e-07
3.23479e-07
3.08672e-07
2.7609e-07
2.90575e-07
2.70462e-07
3.04814e-07
3.07517e-07
2.95052e-07
2.96994e-07
3.80018e-07
2.87116e-07
3.84654e-07
3.05207e-07
2.98437e-07
3.00771e-07
2.97445e-07
2.90101e-07
2.87573e-07
2.99195e-07
2.48153e-07
2.89361e-07
3.07523e-07
2.93981e-07
2.68676e-07
2.77711e-07
2.63168e-07
2.90866e-07
2.93783e-07
2.82111e-07
2.83979e-07
3.86267e-07
2.75348e-07
3.92004e-07
2.96747e-07
2.91357e-07
2.86695e-07
2.84442e-07
2.77088e-07
2.76017e-07
2.86141e-07
2.38974e-07
2.77143e-07
2.92913e-07
2.80883e-07
2.61339e-07
2.66465e-07
2.55645e-07
2.77869e-07
2.81139e-07
2.70425e-07
2.72739e-07
3.93751e-07
2.65109e-07
4.02408e-07
2.89949e-07
2.87768e-07
2.74126e-07
2.73401e-07
2.65769e-07
2.65738e-07
2.74331e-07
2.30634e-07
2.6629e-07
2.79934e-07
2.69427e-07
2.53905e-07
2.56407e-07
2.49135e-07
2.662e-07
2.69517e-07
2.59969e-07
2.62662e-07
4.08602e-07
2.55526e-07
4.25959e-07
2.86984e-07
2.87443e-07
2.63166e-07
2.63368e-07
2.5621e-07
2.56765e-07
2.63848e-07
2.23557e-07
2.56977e-07
2.68592e-07
2.59211e-07
2.47645e-07
2.47612e-07
2.43664e-07
2.55343e-07
2.59194e-07
2.50757e-07
2.53295e-07
4.27966e-07
2.47097e-07
4.19317e-07
2.86441e-07
2.8375e-07
2.54048e-07
2.54641e-07
2.48158e-07
2.48918e-07
2.54808e-07
2.1753e-07
2.48777e-07
2.58438e-07
2.49721e-07
2.4256e-07
2.39688e-07
2.39473e-07
2.4537e-07
2.50081e-07
2.4233e-07
2.44997e-07
3.95724e-07
2.3935e-07
3.07391e-07
2.81643e-07
2.46623e-07
2.46223e-07
2.47113e-07
2.41137e-07
2.42214e-07
2.46843e-07
2.12176e-07
2.41449e-07
2.49054e-07
2.41412e-07
2.38653e-07
2.32654e-07
2.36442e-07
2.37137e-07
2.4172e-07
2.34275e-07
2.37664e-07
2.80509e-07
2.33051e-07
2.19137e-07
2.44074e-07
2.21339e-07
2.39525e-07
2.40719e-07
2.35384e-07
2.3659e-07
2.39815e-07
2.07554e-07
2.35274e-07
2.40839e-07
2.33608e-07
2.35944e-07
2.26536e-07
2.34951e-07
2.30598e-07
2.33743e-07
2.26961e-07
2.31686e-07
2.05618e-07
2.28023e-07
1.81755e-07
2.20209e-07
2.09165e-07
2.34145e-07
2.35344e-07
2.31192e-07
2.3184e-07
2.33913e-07
2.038e-07
2.30557e-07
2.33129e-07
2.2647e-07
2.3497e-07
2.21972e-07
2.35647e-07
2.25381e-07
2.26577e-07
2.20912e-07
2.27074e-07
1.77983e-07
2.24642e-07
1.74276e-07
2.08903e-07
2.02195e-07
2.30272e-07
2.30771e-07
2.28141e-07
2.27986e-07
2.29594e-07
2.01845e-07
2.27192e-07
2.26107e-07
2.20275e-07
2.36088e-07
2.18776e-07
2.37389e-07
2.21273e-07
2.20754e-07
2.16609e-07
2.24074e-07
1.74277e-07
2.23209e-07
1.75631e-07
2.02205e-07
1.97358e-07
2.27542e-07
2.27149e-07
2.26536e-07
2.25541e-07
2.26487e-07
2.00962e-07
2.25335e-07
2.20097e-07
2.15482e-07
2.37826e-07
2.17061e-07
2.39784e-07
2.17878e-07
2.16725e-07
2.14404e-07
2.23138e-07
1.76694e-07
2.23645e-07
1.80843e-07
1.97612e-07
1.95427e-07
2.26488e-07
2.25209e-07
2.27065e-07
2.25407e-07
2.25084e-07
2.02444e-07
2.25367e-07
2.15575e-07
2.12939e-07
2.40706e-07
2.17547e-07
2.45017e-07
2.16728e-07
2.14968e-07
2.15046e-07
2.24138e-07
1.8243e-07
2.26946e-07
1.88297e-07
1.962e-07
1.97253e-07
2.27577e-07
2.25852e-07
2.30205e-07
2.28355e-07
2.25718e-07
2.07716e-07
2.28249e-07
2.13511e-07
2.13313e-07
2.47026e-07
2.20191e-07
2.54184e-07
2.19058e-07
2.1651e-07
2.20495e-07
2.28225e-07
1.90999e-07
2.34753e-07
2.00844e-07
1.98942e-07
2.0367e-07
2.31457e-07
2.29861e-07
2.37728e-07
2.36182e-07
2.29813e-07
2.16776e-07
2.36339e-07
2.14805e-07
2.1877e-07
2.57197e-07
2.27742e-07
2.68588e-07
2.26535e-07
2.23616e-07
2.3536e-07
2.37825e-07
2.05105e-07
2.5027e-07
2.2154e-07
2.07117e-07
2.20627e-07
2.4067e-07
2.38657e-07
2.52722e-07
2.52241e-07
2.392e-07
2.32862e-07
2.51353e-07
2.21298e-07
2.34378e-07
2.73e-07
2.43258e-07
2.90565e-07
2.4288e-07
2.4162e-07
2.6553e-07
2.55655e-07
2.27521e-07
2.76115e-07
2.53832e-07
2.26553e-07
2.54258e-07
2.57914e-07
2.57134e-07
2.78165e-07
2.7721e-07
2.5623e-07
2.62065e-07
2.77683e-07
2.40698e-07
2.63293e-07
2.97226e-07
2.68887e-07
3.24524e-07
2.75215e-07
2.77682e-07
3.26379e-07
2.8505e-07
2.63662e-07
3.18821e-07
3.02702e-07
2.6683e-07
3.17422e-07
2.86889e-07
2.87252e-07
3.20364e-07
3.179e-07
2.85919e-07
3.05827e-07
3.22121e-07
2.76182e-07
3.21376e-07
3.34771e-07
3.1047e-07
3.76758e-07
3.39727e-07
3.46872e-07
4.42635e-07
3.31562e-07
3.14859e-07
3.86532e-07
3.79059e-07
3.37756e-07
4.43061e-07
3.33612e-07
3.343e-07
3.87804e-07
3.83712e-07
3.34453e-07
3.7839e-07
3.89355e-07
3.40068e-07
4.40425e-07
3.90971e-07
3.76474e-07
4.47402e-07
4.48174e-07
4.79747e-07
6.47135e-07
4.05467e-07
3.96713e-07
4.91153e-07
4.89099e-07
4.89147e-07
6.25893e-07
4.06892e-07
4.0481e-07
4.92111e-07
4.91116e-07
4.10479e-07
4.86099e-07
4.93039e-07
4.68724e-07
6.64765e-07
4.69103e-07
4.84486e-07
5.57926e-07
6.43336e-07
7.18806e-07
9.92518e-07
5.21652e-07
5.22688e-07
6.4233e-07
6.29528e-07
7.18394e-07
9.30784e-07
5.23112e-07
5.19687e-07
6.41989e-07
6.39664e-07
5.27311e-07
6.22098e-07
6.38673e-07
7.22637e-07
1.00595e-06
5.93504e-07
6.34104e-07
6.98007e-07
9.84496e-07
1.09446e-06
1.56843e-06
6.88649e-07
6.94438e-07
8.52323e-07
8.38113e-07
1.01354e-06
1.64599e-06
6.88119e-07
6.87408e-07
8.54486e-07
8.58153e-07
7.00761e-07
8.20656e-07
8.33824e-07
1.11974e-06
1.56768e-06
7.63999e-07
8.52251e-07
8.88506e-07
1.63623e-06
1.71566e-06
2.4784e-06
9.2394e-07
9.19265e-07
1.15147e-06
1.18126e-06
1.7076e-06
2.64228e-06
9.27832e-07
9.10655e-07
1.14394e-06
1.1809e-06
8.96137e-07
1.16494e-06
1.20847e-06
1.72284e-06
2.43244e-06
9.41236e-07
1.17541e-06
1.25204e-06
2.63481e-06
2.67067e-06
3.66584e-06
1.22746e-06
1.21738e-06
1.56128e-06
1.56182e-06
2.84738e-06
3.52396e-06
1.22554e-06
1.27544e-06
1.55994e-06
1.49593e-06
1.2548e-06
1.5173e-06
1.52805e-06
2.6875e-06
3.58648e-06
1.29854e-06
1.48982e-06
1.54905e-06
3.35507e-06
3.98781e-06
5.23766e-06
1.66976e-06
1.75855e-06
2.02069e-06
2.08323e-06
4.03689e-06
5.61997e-06
1.65527e-06
1.64081e-06
2.01718e-06
2.0644e-06
1.72824e-06
2.06061e-06
1.97612e-06
3.73213e-06
5.63896e-06
1.7344e-06
2.05887e-06
1.9893e-06
5.54781e-06
5.56677e-06
7.51537e-06
2.19088e-06
2.10719e-06
2.63114e-06
2.58281e-06
5.68333e-06
6.57803e-06
2.20309e-06
2.16462e-06
2.63217e-06
2.68169e-06
2.13849e-06
2.51475e-06
2.72289e-06
6.02418e-06
7.15997e-06
2.1595e-06
2.65302e-06
2.70275e-06
7.65205e-06
7.90666e-06
9.38706e-06
2.77087e-06
2.95589e-06
3.35806e-06
3.42081e-06
7.449e-06
1.04602e-05
2.75203e-06
2.8722e-06
3.34982e-06
3.27233e-06
2.77169e-06
3.38692e-06
3.38453e-06
7.72542e-06
9.61694e-06
2.75539e-06
3.32143e-06
3.32372e-06
9.00797e-06
9.96761e-06
1.23041e-05
3.56766e-06
3.50684e-06
4.23526e-06
4.40736e-06
1.06272e-05
1.21819e-05
3.57515e-06
3.49354e-06
4.22086e-06
4.31364e-06
3.74578e-06
4.36736e-06
4.13529e-06
1.0031e-05
1.21102e-05
3.69212e-06
4.24433e-06
4.18317e-06
1.26e-05
1.27311e-05
1.44779e-05
4.46544e-06
4.60301e-06
5.09978e-06
4.93297e-06
1.30317e-05
1.43575e-05
4.44567e-06
4.44248e-06
5.09896e-06
5.09603e-06
4.33957e-06
4.89749e-06
5.14789e-06
1.25616e-05
1.45992e-05
4.36734e-06
5.10735e-06
5.0128e-06
1.43796e-05
1.5024e-05
1.69875e-05
5.37354e-06
5.34425e-06
6.34984e-06
6.58911e-06
1.46049e-05
1.75624e-05
5.36922e-06
5.51996e-06
6.31167e-06
6.37864e-06
5.33738e-06
6.52921e-06
6.4847e-06
1.5003e-05
1.73915e-05
5.31876e-06
6.30161e-06
6.41842e-06
1.7098e-05
1.74134e-05
1.94359e-05
6.5793e-06
6.72178e-06
7.4129e-06
7.09783e-06
1.8091e-05
1.87998e-05
6.55667e-06
6.48079e-06
7.42731e-06
7.55854e-06
6.75355e-06
7.05631e-06
7.29556e-06
1.79363e-05
1.90042e-05
6.63695e-06
7.57852e-06
7.32412e-06
1.92232e-05
1.99413e-05
2.12793e-05
7.89071e-06
7.64359e-06
8.94445e-06
9.26031e-06
1.91878e-05
2.17769e-05
7.88937e-06
8.03721e-06
8.90074e-06
8.66295e-06
7.6772e-06
9.20517e-06
8.95353e-06
1.95007e-05
2.14378e-05
7.64295e-06
8.60857e-06
8.9276e-06
2.1472e-05
2.17014e-05
2.3079e-05
9.06184e-06
9.43424e-06
1.02291e-05
9.94609e-06
2.22024e-05
2.28845e-05
9.01656e-06
8.8347e-06
1.01729e-05
1.05812e-05
9.23521e-06
9.86701e-06
1.02967e-05
2.1782e-05
2.32112e-05
9.34122e-06
1.05791e-05
1.00343e-05
2.31319e-05
2.34867e-05
2.49547e-05
1.08807e-05
1.06391e-05
1.17981e-05
1.19783e-05
2.32278e-05
2.5021e-05
1.084e-05
1.10771e-05
1.1872e-05
1.16537e-05
1.07341e-05
1.19109e-05
1.16346e-05
2.37707e-05
2.48741e-05
1.04327e-05
1.17217e-05
1.18986e-05
2.49244e-05
2.53062e-05
2.65483e-05
1.19766e-05
1.20933e-05
1.35513e-05
1.34651e-05
2.53274e-05
2.63228e-05
1.19915e-05
1.20376e-05
1.35857e-05
1.33183e-05
1.20037e-05
1.31614e-05
1.35627e-05
2.5119e-05
2.62707e-05
1.21792e-05
1.31764e-05
1.33236e-05
2.64373e-05
2.70234e-05
2.79318e-05
1.41502e-05
1.42739e-05
1.55163e-05
1.54221e-05
2.67924e-05
2.80449e-05
1.42495e-05
1.3771e-05
1.54638e-05
1.53783e-05
1.39881e-05
1.53315e-05
1.51674e-05
2.67633e-05
2.80194e-05
1.38487e-05
1.53921e-05
1.50348e-05
2.78384e-05
2.81187e-05
2.88107e-05
1.56972e-05
1.55576e-05
1.62858e-05
1.67165e-05
2.83105e-05
2.89147e-05
1.56233e-05
1.5777e-05
1.61942e-05
1.68358e-05
1.56421e-05
1.69542e-05
1.67091e-05
2.83262e-05
2.91819e-05
1.55084e-05
1.69536e-05
1.70253e-05
2.91315e-05
2.91976e-05
3.05271e-05
1.68952e-05
1.69678e-05
1.89176e-05
1.82488e-05
2.91094e-05
3.01674e-05
1.67902e-05
1.73545e-05
1.89769e-05
1.8707e-05
1.70314e-05
1.8045e-05
1.88861e-05
2.94682e-05
3.03094e-05
1.72426e-05
1.85555e-05
1.83711e-05
3.04476e-05
3.08491e-05
3.18331e-05
1.93347e-05
1.9102e-05
2.05904e-05
2.16497e-05
3.08649e-05
3.26623e-05
1.94269e-05
1.89746e-05
2.04649e-05
2.03916e-05
1.95163e-05
2.14716e-05
2.03411e-05
3.05976e-05
3.17472e-05
1.91725e-05
2.04788e-05
2.07945e-05
3.17206e-05
3.21307e-05
3.29157e-05
2.12302e-05
2.21467e-05
2.28499e-05
2.26192e-05
3.27832e-05
3.22537e-05
2.10435e-05
2.1164e-05
2.28452e-05
2.30114e-05
2.06698e-05
2.25784e-05
2.267e-05
3.21418e-05
3.3088e-05
2.09451e-05
2.289e-05
2.24524e-05
3.29138e-05
3.31058e-05
3.36786e-05
2.30588e-05
2.26388e-05
2.34316e-05
2.28798e-05
3.23048e-05
3.34763e-05
2.3136e-05
2.32383e-05
2.35512e-05
2.35045e-05
2.32211e-05
2.28613e-05
2.3793e-05
3.32407e-05
3.35564e-05
2.30975e-05
2.34232e-05
2.3825e-05
3.38137e-05
3.3985e-05
3.54147e-05
2.3939e-05
2.34279e-05
2.65207e-05
2.6902e-05
3.39949e-05
3.58558e-05
2.40287e-05
2.3821e-05
2.63713e-05
2.64723e-05
2.40096e-05
2.6792e-05
2.63418e-05
3.38413e-05
3.5456e-05
2.40495e-05
2.63377e-05
2.62993e-05
3.54124e-05
3.562e-05
3.6177e-05
2.69627e-05
2.76287e-05
2.74218e-05
2.85708e-05
3.61344e-05
3.66842e-05
2.66741e-05
2.69652e-05
2.74796e-05
2.73848e-05
2.69688e-05
2.85398e-05
2.75768e-05
3.56624e-05
3.59657e-05
2.68749e-05
2.71139e-05
2.74216e-05
3.61051e-05
3.6448e-05
3.74509e-05
2.77465e-05
2.86622e-05
2.97138e-05
2.90104e-05
3.67749e-05
3.69458e-05
2.81101e-05
2.75467e-05
2.98139e-05
2.97528e-05
2.77466e-05
2.88222e-05
2.97206e-05
3.61877e-05
3.7768e-05
2.76407e-05
3.00203e-05
2.976e-05
3.7624e-05
3.76009e-05
3.82347e-05
3.00132e-05
2.92775e-05
3.06627e-05
3.08273e-05
3.71805e-05
3.84935e-05
3.00521e-05
3.03976e-05
3.04561e-05
3.10504e-05
3.02792e-05
3.09549e-05
3.08421e-05
3.80238e-05
3.82772e-05
3.02408e-05
3.07692e-05
3.06731e-05
3.81716e-05
3.85423e-05
3.96683e-05
3.11417e-05
3.15052e-05
3.2922e-05
3.29481e-05
3.8803e-05
3.94863e-05
3.09059e-05
3.11547e-05
3.28601e-05
3.2593e-05
3.09725e-05
3.2782e-05
3.27184e-05
3.83974e-05
3.94907e-05
3.08284e-05
3.26344e-05
3.27908e-05
3.97211e-05
3.98495e-05
4.02737e-05
3.33401e-05
3.31128e-05
3.3799e-05
3.34858e-05
3.96091e-05
4.01768e-05
3.33597e-05
3.2936e-05
3.39735e-05
3.36097e-05
3.33137e-05
3.34707e-05
3.4005e-05
3.967e-05
4.01114e-05
3.33982e-05
3.35094e-05
3.41097e-05
4.02772e-05
4.0443e-05
4.16303e-05
3.39118e-05
3.39642e-05
3.54499e-05
3.59192e-05
4.05006e-05
4.198e-05
3.40582e-05
3.40582e-05
3.53072e-05
3.5863e-05
3.40675e-05
3.59664e-05
3.51552e-05
4.04318e-05
4.20151e-05
3.41635e-05
3.59593e-05
3.50278e-05
4.14871e-05
4.19861e-05
4.27253e-05
3.61332e-05
3.64305e-05
3.73701e-05
3.70847e-05
4.22123e-05
4.24153e-05
3.5982e-05
3.63809e-05
3.73303e-05
3.7131e-05
3.59135e-05
3.70434e-05
3.74263e-05
4.22539e-05
4.24807e-05
3.57901e-05
3.71685e-05
3.74048e-05
4.2813e-05
4.27958e-05
4.29603e-05
3.74767e-05
3.71081e-05
3.76094e-05
3.73015e-05
4.24403e-05
4.28668e-05
3.74654e-05
3.71734e-05
3.76433e-05
3.73486e-05
3.75911e-05
3.72624e-05
3.77235e-05
4.25081e-05
4.2828e-05
3.76007e-05
3.73314e-05
3.77485e-05
4.30158e-05
4.31902e-05
4.43189e-05
3.78336e-05
3.78429e-05
3.9235e-05
3.96242e-05
4.32679e-05
4.45685e-05
3.79194e-05
3.77787e-05
3.92796e-05
3.96413e-05
3.7867e-05
3.96571e-05
3.93694e-05
4.3176e-05
4.45799e-05
3.78624e-05
3.95841e-05
3.93996e-05
4.44321e-05
4.44636e-05
4.50988e-05
3.95663e-05
3.97826e-05
4.04386e-05
4.03095e-05
4.46571e-05
4.50182e-05
3.95409e-05
3.98172e-05
4.0383e-05
4.04045e-05
3.96071e-05
4.02427e-05
4.03639e-05
4.4684e-05
4.51024e-05
3.97432e-05
4.04394e-05
4.03124e-05
4.49915e-05
4.53124e-05
4.58964e-05
4.07178e-05
4.07791e-05
4.15212e-05
4.16014e-05
4.53073e-05
4.60187e-05
4.06932e-05
4.07658e-05
4.15194e-05
4.16141e-05
4.07684e-05
4.16954e-05
4.14747e-05
4.53722e-05
4.60547e-05
4.0561e-05
4.16142e-05
4.14258e-05
4.58772e-05
4.60329e-05
4.65308e-05
4.17689e-05
4.16712e-05
4.23706e-05
4.23668e-05
4.60729e-05
4.65376e-05
4.17705e-05
4.18358e-05
4.23591e-05
4.24715e-05
4.15771e-05
4.23413e-05
4.25291e-05
4.61418e-05
4.6536e-05
4.17304e-05
4.24419e-05
4.2728e-05
4.67655e-05
4.66832e-05
4.74823e-05
4.26124e-05
4.27822e-05
4.36575e-05
4.35365e-05
4.68343e-05
4.73562e-05
4.25642e-05
4.26448e-05
4.35778e-05
4.33126e-05
4.29658e-05
4.36271e-05
4.36341e-05
4.67087e-05
4.71746e-05
4.29667e-05
4.32235e-05
4.3233e-05
4.72894e-05
4.76686e-05
4.79064e-05
4.38988e-05
4.35913e-05
4.41436e-05
4.3937e-05
4.73816e-05
4.76729e-05
4.38802e-05
4.36051e-05
4.42298e-05
4.43477e-05
4.36711e-05
4.38142e-05
4.40432e-05
4.73189e-05
4.80954e-05
4.3354e-05
4.44711e-05
4.44639e-05
4.80371e-05
4.79892e-05
4.89009e-05
4.42903e-05
4.44014e-05
4.54834e-05
4.58318e-05
4.80147e-05
4.93605e-05
4.43755e-05
4.45532e-05
4.53555e-05
4.53762e-05
4.45231e-05
4.5902e-05
4.56805e-05
4.82829e-05
4.88692e-05
4.48934e-05
4.54055e-05
4.5518e-05
4.8972e-05
4.91263e-05
4.94814e-05
4.58253e-05
4.60964e-05
4.62371e-05
4.62737e-05
4.94673e-05
4.92908e-05
4.57006e-05
4.57202e-05
4.63242e-05
4.64784e-05
4.58337e-05
4.6285e-05
4.59396e-05
4.90377e-05
4.9588e-05
4.55549e-05
4.63945e-05
4.59242e-05
4.90785e-05
4.95505e-05
5.00064e-05
4.63122e-05
4.62701e-05
4.69396e-05
4.6581e-05
4.92973e-05
4.97939e-05
4.64452e-05
4.65627e-05
4.69309e-05
4.66383e-05
4.59925e-05
4.63944e-05
4.69078e-05
4.96503e-05
4.96616e-05
4.62216e-05
4.66431e-05
4.69762e-05
5.01578e-05
5.01756e-05
5.06455e-05
4.72279e-05
4.7044e-05
4.77943e-05
4.79702e-05
5.00982e-05
5.09328e-05
4.71275e-05
4.67367e-05
4.76627e-05
4.7901e-05
4.73356e-05
4.81915e-05
4.81859e-05
4.97604e-05
5.0976e-05
4.72581e-05
4.80668e-05
4.80578e-05
5.09066e-05
5.0752e-05
5.13963e-05
4.7923e-05
4.81165e-05
4.86394e-05
4.85174e-05
5.10206e-05
5.11834e-05
4.78802e-05
4.82997e-05
4.8769e-05
4.89838e-05
4.82716e-05
4.85029e-05
4.83363e-05
5.12329e-05
5.15607e-05
4.81786e-05
4.8931e-05
4.83549e-05
5.09681e-05
5.15653e-05
5.17412e-05
4.89169e-05
4.871e-05
4.92981e-05
4.91101e-05
5.12572e-05
5.15749e-05
4.90334e-05
4.90381e-05
4.9322e-05
4.90004e-05
4.84315e-05
4.89934e-05
4.93535e-05
5.15678e-05
5.12925e-05
4.85678e-05
4.88578e-05
4.92435e-05
5.18841e-05
5.17506e-05
5.19402e-05
4.93058e-05
4.91714e-05
4.94329e-05
4.97144e-05
5.16512e-05
5.21801e-05
4.93178e-05
4.89633e-05
4.93429e-05
4.91188e-05
4.94698e-05
4.96905e-05
4.95899e-05
5.13042e-05
5.1906e-05
4.93071e-05
4.93768e-05
4.95536e-05
5.20341e-05
5.21841e-05
5.2983e-05
4.97759e-05
4.99957e-05
5.07169e-05
5.04757e-05
5.23662e-05
5.2672e-05
4.9546e-05
4.95618e-05
5.07329e-05
5.08111e-05
4.97665e-05
5.04358e-05
5.04378e-05
5.22084e-05
5.30894e-05
4.98702e-05
5.08205e-05
5.05391e-05
5.27298e-05
5.30293e-05
5.30776e-05
5.08081e-05
5.05053e-05
5.08941e-05
5.07894e-05
5.26915e-05
5.31067e-05
5.08779e-05
5.09831e-05
5.09981e-05
5.11336e-05
5.0492e-05
5.08451e-05
5.09114e-05
5.31594e-05
5.32496e-05
5.05937e-05
5.10379e-05
5.08886e-05
5.31391e-05
5.32184e-05
5.3832e-05
5.10239e-05
5.11595e-05
5.17686e-05
5.1801e-05
5.33733e-05
5.39066e-05
5.11111e-05
5.12427e-05
5.17224e-05
5.16291e-05
5.1263e-05
5.18342e-05
5.18555e-05
5.33475e-05
5.36812e-05
5.12068e-05
5.1586e-05
5.1774e-05
5.39058e-05
5.38455e-05
5.32082e-05
5.18076e-05
5.18135e-05
5.15926e-05
5.15165e-05
5.38982e-05
5.31407e-05
5.17504e-05
5.16315e-05
5.15225e-05
5.13281e-05
5.18659e-05
5.1535e-05
5.15496e-05
5.36711e-05
5.29576e-05
5.17833e-05
5.13179e-05
5.14729e-05
5.31469e-05
5.3184e-05
5.38589e-05
5.14903e-05
5.14158e-05
5.1602e-05
5.15753e-05
5.31183e-05
5.3909e-05
5.14245e-05
5.12453e-05
5.15625e-05
5.15297e-05
5.14395e-05
5.15869e-05
5.15655e-05
5.29451e-05
5.39671e-05
5.13718e-05
5.15448e-05
5.1545e-05
5.38663e-05
5.43091e-05
5.62403e-05
5.20957e-05
5.2158e-05
5.41241e-05
5.42162e-05
5.43927e-05
5.63589e-05
5.21057e-05
5.22728e-05
5.41365e-05
5.42851e-05
5.20978e-05
5.42205e-05
5.41705e-05
5.44986e-05
5.64157e-05
5.2154e-05
5.43147e-05
5.42134e-05
5.63125e-05
5.64603e-05
5.64423e-05
5.45068e-05
5.45951e-05
5.48046e-05
5.48749e-05
5.65735e-05
5.64867e-05
5.45178e-05
5.46483e-05
5.48152e-05
5.49103e-05
5.45572e-05
5.48817e-05
5.48536e-05
5.66234e-05
5.65185e-05
5.45939e-05
5.49344e-05
5.48812e-05
5.64906e-05
5.6172e-05
5.28896e-05
5.46764e-05
5.4731e-05
5.20015e-05
5.19843e-05
5.6203e-05
5.2859e-05
5.4687e-05
5.47601e-05
5.20076e-05
5.19902e-05
5.47205e-05
5.19893e-05
5.20095e-05
5.62294e-05
5.28682e-05
5.47428e-05
5.19976e-05
5.20112e-05
5.28904e-05
5.24474e-05
5.07935e-05
5.10483e-05
5.10282e-05
4.93596e-05
4.93417e-05
5.24146e-05
5.0769e-05
5.10522e-05
5.10316e-05
4.93566e-05
4.93363e-05
5.10499e-05
4.93417e-05
4.9351e-05
5.24218e-05
5.07651e-05
5.10521e-05
4.93425e-05
4.93545e-05
5.07839e-05
5.07922e-05
5.2293e-05
4.92028e-05
4.91879e-05
4.97313e-05
4.97385e-05
5.07695e-05
5.23066e-05
4.91982e-05
4.918e-05
4.97182e-05
4.97186e-05
4.91935e-05
4.97382e-05
4.9727e-05
5.07646e-05
5.22906e-05
4.91971e-05
4.97253e-05
4.97292e-05
5.22972e-05
5.28767e-05
5.58021e-05
5.06883e-05
5.07023e-05
5.36173e-05
5.36347e-05
5.28952e-05
5.58276e-05
5.06751e-05
5.06826e-05
5.36088e-05
5.36249e-05
5.06909e-05
5.36398e-05
5.36315e-05
5.2879e-05
5.58203e-05
5.06913e-05
5.36331e-05
5.36294e-05
5.58206e-05
5.64696e-05
5.99139e-05
5.46655e-05
5.46816e-05
5.78692e-05
5.78776e-05
5.64944e-05
5.9928e-05
5.46581e-05
5.46754e-05
5.7865e-05
5.78803e-05
5.46804e-05
5.78843e-05
5.78809e-05
5.64892e-05
5.99315e-05
5.46781e-05
5.78874e-05
5.78783e-05
5.9926e-05
6.04887e-05
6.24964e-05
5.88272e-05
5.88323e-05
6.07473e-05
6.07438e-05
6.05006e-05
6.24955e-05
5.88237e-05
5.88372e-05
6.07459e-05
6.07525e-05
5.88371e-05
6.07512e-05
6.0752e-05
6.05047e-05
6.25034e-05
5.88344e-05
6.07576e-05
6.07492e-05
6.24992e-05
6.25924e-05
6.06304e-05
6.09767e-05
6.09711e-05
6.04434e-05
6.04307e-05
6.25898e-05
6.06175e-05
6.0976e-05
6.09804e-05
6.0445e-05
6.04406e-05
6.09801e-05
6.04389e-05
6.04418e-05
6.25978e-05
6.06248e-05
6.09774e-05
6.04452e-05
6.04401e-05
6.0625e-05
5.98391e-05
5.49072e-05
5.90777e-05
5.90609e-05
5.44971e-05
5.44857e-05
5.98265e-05
5.48993e-05
5.90806e-05
5.90702e-05
5.44979e-05
5.44913e-05
5.90731e-05
5.44932e-05
5.44954e-05
5.98327e-05
5.49032e-05
5.9072e-05
5.44975e-05
5.44944e-05
5.49048e-05
5.42666e-05
5.12433e-05
5.31681e-05
5.31578e-05
5.02101e-05
5.02022e-05
5.42596e-05
5.12391e-05
5.31681e-05
5.31626e-05
5.02081e-05
5.02054e-05
5.31666e-05
5.02077e-05
5.02084e-05
5.42626e-05
5.12416e-05
5.31654e-05
5.02112e-05
5.02063e-05
5.12417e-05
5.10333e-05
5.04764e-05
4.96061e-05
4.95987e-05
4.88294e-05
4.88235e-05
5.10297e-05
5.04746e-05
4.96035e-05
4.96017e-05
4.88257e-05
4.88259e-05
4.96043e-05
4.88271e-05
4.88279e-05
5.10316e-05
5.04763e-05
4.96019e-05
4.88298e-05
4.88249e-05
5.04764e-05
5.05681e-05
5.18008e-05
4.88201e-05
4.88144e-05
4.97602e-05
4.97561e-05
5.05667e-05
5.17997e-05
4.88163e-05
4.88168e-05
4.97566e-05
4.97584e-05
4.88187e-05
4.97587e-05
4.97596e-05
5.05682e-05
5.18013e-05
4.88156e-05
4.97608e-05
4.97564e-05
5.18013e-05
5.21127e-05
5.32375e-05
5.02557e-05
5.02514e-05
5.13812e-05
5.13764e-05
5.21114e-05
5.32355e-05
5.02525e-05
5.02538e-05
5.1379e-05
5.13794e-05
5.0255e-05
5.138e-05
5.13803e-05
5.2113e-05
5.32378e-05
5.02522e-05
5.13828e-05
5.13782e-05
5.32371e-05
5.34175e-05
5.39032e-05
5.16331e-05
5.1628e-05
5.20584e-05
5.20531e-05
5.34155e-05
5.39013e-05
5.16309e-05
5.16313e-05
5.20566e-05
5.20569e-05
5.16321e-05
5.20577e-05
5.20573e-05
5.34178e-05
5.3904e-05
5.16302e-05
5.20609e-05
5.20559e-05
5.39023e-05
5.39776e-05
5.41169e-05
5.21282e-05
5.2123e-05
5.22188e-05
5.22141e-05
5.39757e-05
5.41156e-05
5.21264e-05
5.21268e-05
5.22171e-05
5.22176e-05
5.21272e-05
5.22186e-05
5.22182e-05
5.39784e-05
5.41181e-05
5.21258e-05
5.22218e-05
5.2217e-05
5.41166e-05
5.41501e-05
5.4184e-05
5.22331e-05
5.22284e-05
5.22426e-05
5.22378e-05
5.41488e-05
5.41826e-05
5.22314e-05
5.22319e-05
5.2241e-05
5.22413e-05
5.22326e-05
5.22425e-05
5.2242e-05
5.41512e-05
5.41851e-05
5.22314e-05
5.22457e-05
5.22409e-05
5.41837e-05
5.42026e-05
5.42006e-05
5.22425e-05
5.22377e-05
5.22359e-05
5.2231e-05
5.42011e-05
5.41992e-05
5.22409e-05
5.22412e-05
5.22343e-05
5.22345e-05
5.2242e-05
5.22358e-05
5.22353e-05
5.42036e-05
5.42016e-05
5.22409e-05
5.22389e-05
5.22342e-05
5.42002e-05
5.42153e-05
5.41894e-05
5.22339e-05
5.2229e-05
5.22152e-05
5.22102e-05
5.42139e-05
5.41878e-05
5.22322e-05
5.22324e-05
5.22135e-05
5.22136e-05
5.22333e-05
5.22149e-05
5.22143e-05
5.42162e-05
5.41901e-05
5.22321e-05
5.22179e-05
5.22131e-05
5.41885e-05
5.42016e-05
5.41759e-05
5.22127e-05
5.22076e-05
5.22055e-05
5.22006e-05
5.42e-05
5.41745e-05
5.2211e-05
5.2211e-05
5.22039e-05
5.2204e-05
5.22117e-05
5.22054e-05
5.22049e-05
5.42023e-05
5.41769e-05
5.22105e-05
5.22084e-05
5.22037e-05
5.41753e-05
5.41917e-05
5.41935e-05
5.22079e-05
5.22031e-05
5.22083e-05
5.22034e-05
5.41904e-05
5.41923e-05
5.22063e-05
5.22064e-05
5.22067e-05
5.22068e-05
5.22073e-05
5.22081e-05
5.22076e-05
5.41927e-05
5.41945e-05
5.22061e-05
5.22111e-05
5.22064e-05
5.41935e-05
5.42097e-05
5.41813e-05
5.22109e-05
5.22059e-05
5.22055e-05
5.22005e-05
5.42084e-05
5.41795e-05
5.22093e-05
5.22094e-05
5.22039e-05
5.2204e-05
5.22101e-05
5.22053e-05
5.22047e-05
5.42105e-05
5.41821e-05
5.22089e-05
5.22083e-05
5.22034e-05
5.41801e-05
5.41944e-05
5.41825e-05
5.22084e-05
5.22035e-05
5.22049e-05
5.22e-05
5.41926e-05
5.41815e-05
5.22068e-05
5.22069e-05
5.22032e-05
5.22033e-05
5.22076e-05
5.22047e-05
5.22042e-05
5.41951e-05
5.41836e-05
5.22064e-05
5.22077e-05
5.22029e-05
5.41826e-05
5.41999e-05
5.41869e-05
5.22106e-05
5.22057e-05
5.22037e-05
5.21989e-05
5.4199e-05
5.41852e-05
5.22089e-05
5.2209e-05
5.22021e-05
5.22022e-05
5.22098e-05
5.22036e-05
5.22029e-05
5.4201e-05
5.41874e-05
5.22085e-05
5.22065e-05
5.22016e-05
5.41855e-05
5.41975e-05
5.40215e-05
5.21944e-05
5.21895e-05
5.20484e-05
5.2043e-05
5.41958e-05
5.402e-05
5.21927e-05
5.21926e-05
5.20477e-05
5.20455e-05
5.21933e-05
5.20492e-05
5.20464e-05
5.41981e-05
5.4022e-05
5.2192e-05
5.20515e-05
5.2046e-05
5.40206e-05
5.38806e-05
5.11152e-05
5.111e-05
5.3879e-05
5.1115e-05
5.11125e-05
4.13562e-05
4.13585e-05
4.13565e-05
5.1113e-05
5.3881e-05
5.11133e-05
1.47206e-06
2.90797e-07
8.94111e-07
8.93548e-07
1.29034e-07
3.21333e-07
2.33264e-07
4.55796e-07
1.07765e-07
3.42374e-07
4.63727e-07
3.9575e-07
3.60313e-07
3.96425e-07
3.55922e-07
3.02328e-07
4.96961e-06
2.65533e-07
6.65124e-06
1.37713e-05
2.13983e-05
3.30865e-07
4.97377e-06
2.99504e-07
6.65863e-06
4.84143e-07
4.81889e-07
4.83593e-07
4.807e-07
4.79883e-07
4.76595e-07
4.78195e-07
1.10675e-07
5.60453e-07
2.46036e-07
2.88481e-07
1.1908e-07
5.42727e-07
2.43115e-07
1.40731e-05
2.173e-05
1.08505e-07
2.6336e-07
6.53167e-07
3.28587e-07
1.0963e-07
2.60098e-07
6.26821e-07
1.92734e-06
1.87765e-06
3.45584e-07
1.90746e-06
1.85659e-06
4.89342e-07
9.80275e-06
4.15211e-07
1.24518e-05
3.65434e-05
4.63589e-05
5.15776e-07
9.82278e-06
4.46749e-07
1.25001e-05
4.80248e-07
4.76607e-07
4.78339e-07
4.81219e-07
4.81779e-07
4.77251e-07
4.79391e-07
9.91618e-08