/*--------------------------------*- C++ -*----------------------------------*\
| =========                 |                                                 |
| \\      /  F ield         | OpenFOAM: The Open Source CFD Toolbox           |
|  \\    /   O peration     | Version:  v2012                                 |
|   \\  /    A nd           | Website:  www.openfoam.com                      |
|    \\/     M anipulation  |                                                 |
\*---------------------------------------------------------------------------*/
FoamFile
{
    version     2.0;
    format      ascii;
    class       volScalarField;
    location    "325";
    object      nut;
}
// * * * * * * * * * * * * * * * * * * * * * * * * * * * * * * * * * * * * * //

dimensions      [0 2 -1 0 0 0 0];


internalField   nonuniform List<scalar> 
171728
(
6.46268e-06
2.15505e-06
2.21998e-06
2.27237e-06
6.38612e-06
2.12708e-06
2.19448e-06
2.2622e-06
6.4917e-06
2.11276e-06
2.18233e-06
2.24945e-06
6.60073e-06
2.10442e-06
2.16848e-06
2.23056e-06
6.71722e-06
2.09005e-06
2.15325e-06
2.20488e-06
6.83822e-06
2.06648e-06
2.13867e-06
2.17312e-06
6.97394e-06
2.0373e-06
2.11801e-06
2.13819e-06
7.11844e-06
1.99992e-06
2.08175e-06
2.09601e-06
7.26991e-06
1.95336e-06
2.03627e-06
2.05116e-06
7.42709e-06
1.8859e-06
1.97151e-06
2.00347e-06
7.59414e-06
1.80488e-06
1.89636e-06
1.95337e-06
7.76883e-06
1.71762e-06
1.81584e-06
1.89806e-06
7.93431e-06
1.62823e-06
1.72831e-06
1.83142e-06
8.09384e-06
1.52793e-06
1.63443e-06
1.74044e-06
8.24667e-06
1.43e-06
1.53454e-06
1.64385e-06
8.39308e-06
1.34864e-06
1.42614e-06
1.54403e-06
8.52614e-06
1.26518e-06
1.33363e-06
1.45161e-06
8.65023e-06
1.21316e-06
1.27949e-06
1.38486e-06
8.75752e-06
1.23248e-06
1.27683e-06
1.38219e-06
8.8447e-06
1.29105e-06
1.33801e-06
1.53555e-06
8.92089e-06
1.47865e-06
1.48495e-06
1.85366e-06
8.98325e-06
1.84112e-06
1.80399e-06
2.45106e-06
9.00394e-06
2.35376e-06
2.30572e-06
3.41157e-06
9.00661e-06
2.92673e-06
2.98665e-06
5.6698e-06
8.94466e-06
3.95638e-06
4.29341e-06
9.94276e-06
8.80707e-06
5.73238e-06
5.29216e-06
1.10084e-05
8.67005e-06
6.99809e-06
7.16649e-06
1.83056e-05
8.39132e-06
9.6049e-06
9.44444e-06
2.65366e-05
8.15756e-06
1.13216e-05
1.1747e-05
2.85181e-05
8.04689e-06
1.60139e-05
1.47908e-05
4.01578e-05
7.73369e-06
1.67156e-05
1.85299e-05
4.55508e-05
7.74619e-06
2.36034e-05
2.16462e-05
5.24808e-05
7.83007e-06
2.41994e-05
2.78187e-05
5.82324e-05
8.07078e-06
3.32237e-05
2.8913e-05
6.60391e-05
8.53596e-06
3.46983e-05
3.9121e-05
6.93998e-05
8.91464e-06
4.13821e-05
4.02795e-05
7.51843e-05
1.01542e-05
4.74487e-05
4.55988e-05
7.98165e-05
1.2209e-05
5.37689e-05
5.44034e-05
8.37811e-05
1.09203e-05
5.86886e-05
5.94093e-05
8.77205e-05
1.56031e-05
6.22517e-05
6.38933e-05
9.22774e-05
1.62574e-05
7.75369e-05
7.19547e-05
9.60175e-05
2.18406e-05
7.77406e-05
8.0031e-05
0.000100608
2.03516e-05
7.54593e-05
7.93263e-05
0.000102366
2.85198e-05
9.51866e-05
9.15314e-05
0.000109232
2.91354e-05
9.90349e-05
9.2251e-05
0.000110121
3.72577e-05
9.77821e-05
0.00010511
0.000116771
3.86598e-05
0.000107593
0.000104151
0.000117144
4.57148e-05
0.000112486
0.000112155
0.00012426
5.37175e-05
0.000114371
0.000114346
0.000124435
5.19369e-05
0.000126012
0.000125955
0.000130213
6.98922e-05
0.000127666
0.000128479
0.000134631
7.04696e-05
0.000127915
0.000127125
0.000134128
7.53963e-05
0.000138027
0.00013755
0.000140523
8.51878e-05
0.000140766
0.000141706
0.000142094
9.24339e-05
0.000145347
0.000145097
0.000145329
9.71205e-05
0.000149431
0.00014904
0.000149313
0.000105774
0.000153396
0.000151261
0.000150454
0.000110934
0.0001535
0.000157612
0.000154145
0.000117974
0.000164949
0.000161358
0.000157564
0.000126786
0.000164684
0.000166009
0.000157398
0.000131342
0.000165371
0.000165369
0.00016253
0.000137559
0.000174762
0.00017456
0.000165467
0.000144567
0.000174987
0.000177953
0.000165277
0.00015329
0.000177426
0.000176204
0.000169684
0.00015125
0.000181964
0.000180612
0.000170179
0.000164376
0.000184738
0.000187652
0.000173206
0.000167184
0.000188428
0.000188295
0.000175763
0.000176134
0.000193587
0.000192154
0.000179744
0.000180066
0.000190907
0.000189592
0.00017522
0.000175282
0.000191936
0.000192804
0.000178439
0.000197923
0.000208963
0.000209477
0.000191378
0.000214406
0.000217052
0.00021741
0.000195455
0.000205259
0.000196594
0.000196664
0.000178414
0.000178239
0.000182509
0.000182519
0.000166715
0.000166426
0.000185568
0.000185478
0.000172257
0.000199185
0.000204922
0.000204878
0.000185808
0.000238563
0.000228794
0.000228804
0.000204127
0.000269543
0.000247177
0.000247206
0.000219234
0.00028673
0.000246897
0.000246922
0.000214379
0.000239408
0.000213626
0.00021364
0.000190183
0.000195707
0.000192774
0.000192785
0.000174541
0.000178494
0.000187958
0.000187965
0.00017116
0.000187486
0.000197009
0.000197011
0.00017835
0.000214027
0.000206712
0.000206719
0.000184723
0.000227045
0.000210563
0.000210572
0.00018729
0.000232073
0.000211568
0.000211576
0.000187979
0.000233956
0.000211782
0.00021179
0.000188151
0.000234546
0.000211794
0.000211801
0.000188205
0.000234574
0.000211672
0.000211679
0.000188136
0.000234551
0.000211634
0.000211641
0.000188048
0.00023458
0.000211655
0.000211662
0.00018816
0.000234569
0.000211638
0.000211645
0.000188083
0.000234566
0.000211646
0.000211653
0.000188098
0.000234537
0.000211567
0.000211574
0.000188131
0.000236512
0.000212917
0.000212926
0.000191584
2.31737e-06
2.55208e-06
2.17167e-06
2.2759e-06
2.57675e-06
2.54225e-06
6.66627e-06
6.53387e-06
6.60138e-06
6.62143e-06
2.31293e-06
2.54926e-06
2.30775e-06
2.51528e-06
2.27237e-06
2.27346e-06
2.31467e-06
2.29566e-06
2.26192e-06
1.92168e-06
2.24128e-06
1.92469e-06
2.27357e-06
2.23434e-06
2.30084e-06
2.27094e-06
2.27081e-06
2.24133e-06
2.27521e-06
2.13053e-06
2.2499e-06
2.30526e-06
2.29685e-06
1.76239e-06
2.19741e-06
1.77089e-06
2.2633e-06
2.29398e-06
2.27702e-06
2.23891e-06
1.93367e-06
2.23005e-06
1.98474e-06
2.22685e-06
2.18605e-06
2.26562e-06
2.2364e-06
2.25378e-06
2.22426e-06
2.24609e-06
2.116e-06
2.23756e-06
2.29544e-06
2.28199e-06
1.77655e-06
2.18531e-06
1.79234e-06
2.25042e-06
2.2739e-06
2.26375e-06
2.22578e-06
2.00596e-06
2.21661e-06
2.09879e-06
2.17882e-06
2.15464e-06
2.25081e-06
2.221e-06
2.23986e-06
2.20962e-06
2.23483e-06
2.10731e-06
2.23123e-06
2.28018e-06
2.26045e-06
1.79855e-06
2.17212e-06
1.81956e-06
2.23713e-06
2.25581e-06
2.24656e-06
2.21442e-06
2.1406e-06
2.20718e-06
2.27872e-06
2.14992e-06
2.1512e-06
2.23602e-06
2.20606e-06
2.22379e-06
2.19728e-06
2.2296e-06
2.09432e-06
2.22383e-06
2.25789e-06
2.2344e-06
1.8274e-06
2.15638e-06
1.84557e-06
2.21756e-06
2.24061e-06
2.2236e-06
2.20439e-06
2.32862e-06
2.19819e-06
2.54133e-06
2.14961e-06
2.17541e-06
2.21887e-06
2.19405e-06
2.20301e-06
2.1907e-06
2.22038e-06
2.07279e-06
2.21054e-06
2.23102e-06
2.20886e-06
1.85071e-06
2.14312e-06
1.85643e-06
2.18902e-06
2.21984e-06
2.19918e-06
2.19742e-06
2.6419e-06
2.18781e-06
3.13039e-06
2.16956e-06
2.38615e-06
2.19767e-06
2.18931e-06
2.17871e-06
2.17773e-06
2.20716e-06
2.04447e-06
2.19173e-06
2.20505e-06
2.18716e-06
1.85854e-06
2.12277e-06
1.86251e-06
2.1568e-06
2.19382e-06
2.17138e-06
2.18285e-06
3.40803e-06
2.15819e-06
4.4583e-06
2.39699e-06
2.63405e-06
2.17109e-06
2.17343e-06
2.15016e-06
2.15538e-06
2.18671e-06
2.0102e-06
2.16712e-06
2.18258e-06
2.16569e-06
1.86284e-06
2.0926e-06
1.86184e-06
2.1148e-06
2.16528e-06
2.13905e-06
2.14875e-06
4.78659e-06
2.11602e-06
5.45765e-06
2.62791e-06
2.80097e-06
2.14159e-06
2.14695e-06
2.11395e-06
2.12168e-06
2.15893e-06
1.96567e-06
2.12933e-06
2.15919e-06
2.1254e-06
1.8624e-06
2.04897e-06
1.85732e-06
2.06246e-06
2.13152e-06
2.09489e-06
2.1012e-06
5.11684e-06
2.05275e-06
3.51849e-06
2.77278e-06
2.30385e-06
2.10119e-06
2.11126e-06
2.06307e-06
2.07547e-06
2.11679e-06
1.90359e-06
2.07401e-06
2.1177e-06
2.08393e-06
1.85586e-06
1.98892e-06
1.84503e-06
2.01225e-06
2.085e-06
2.03008e-06
2.03649e-06
3.03533e-06
1.98219e-06
1.99695e-06
2.25936e-06
1.95171e-06
2.04792e-06
2.06167e-06
2.00078e-06
2.01677e-06
2.05831e-06
1.82697e-06
2.00569e-06
2.07449e-06
2.02196e-06
1.84151e-06
1.91408e-06
1.83066e-06
1.96282e-06
2.01834e-06
1.9494e-06
1.96354e-06
1.7876e-06
1.9006e-06
1.42194e-06
1.92867e-06
1.7886e-06
1.98377e-06
1.99947e-06
1.93303e-06
1.94177e-06
1.98689e-06
1.73677e-06
1.92979e-06
2.01106e-06
1.94396e-06
1.83015e-06
1.83728e-06
1.82974e-06
1.90971e-06
1.93545e-06
1.85852e-06
1.88026e-06
1.36263e-06
1.81362e-06
1.27521e-06
1.77533e-06
1.67801e-06
1.91391e-06
1.92075e-06
1.85171e-06
1.85023e-06
1.90952e-06
1.64841e-06
1.84377e-06
1.9305e-06
1.85184e-06
1.82939e-06
1.75254e-06
1.81829e-06
1.84756e-06
1.84114e-06
1.76087e-06
1.79077e-06
1.25777e-06
1.72245e-06
1.21684e-06
1.66294e-06
1.56493e-06
1.82907e-06
1.82395e-06
1.75928e-06
1.74557e-06
1.81927e-06
1.54971e-06
1.74745e-06
1.8344e-06
1.74803e-06
1.81009e-06
1.65716e-06
1.78126e-06
1.76177e-06
1.73933e-06
1.65457e-06
1.69868e-06
1.20662e-06
1.6205e-06
1.17785e-06
1.54509e-06
1.46208e-06
1.7356e-06
1.71732e-06
1.65878e-06
1.6364e-06
1.72043e-06
1.45152e-06
1.64147e-06
1.72656e-06
1.63785e-06
1.77159e-06
1.56106e-06
1.74604e-06
1.66944e-06
1.62776e-06
1.53798e-06
1.59429e-06
1.1683e-06
1.51647e-06
1.13298e-06
1.4377e-06
1.36546e-06
1.63314e-06
1.60893e-06
1.55196e-06
1.52686e-06
1.61306e-06
1.36639e-06
1.53021e-06
1.61173e-06
1.51795e-06
1.73932e-06
1.45114e-06
1.71506e-06
1.57317e-06
1.5076e-06
1.42249e-06
1.48868e-06
1.12313e-06
1.4188e-06
1.10347e-06
1.34038e-06
1.26769e-06
1.5239e-06
1.50135e-06
1.45083e-06
1.43244e-06
1.50446e-06
1.28548e-06
1.43364e-06
1.48655e-06
1.41118e-06
1.70605e-06
1.36161e-06
1.68607e-06
1.47605e-06
1.392e-06
1.33347e-06
1.39882e-06
1.10133e-06
1.34788e-06
1.10524e-06
1.24276e-06
1.21448e-06
1.42833e-06
1.40469e-06
1.37216e-06
1.36216e-06
1.41184e-06
1.22835e-06
1.35631e-06
1.37406e-06
1.32105e-06
1.67714e-06
1.29207e-06
1.66249e-06
1.39464e-06
1.31406e-06
1.29687e-06
1.33602e-06
1.10429e-06
1.31547e-06
1.14203e-06
1.19762e-06
1.21028e-06
1.35882e-06
1.34782e-06
1.3354e-06
1.32303e-06
1.34009e-06
1.22714e-06
1.32652e-06
1.30694e-06
1.27809e-06
1.65846e-06
1.26422e-06
1.67591e-06
1.36798e-06
1.30327e-06
1.39084e-06
1.31808e-06
1.15501e-06
1.35484e-06
1.24342e-06
1.22589e-06
1.33229e-06
1.33571e-06
1.33115e-06
1.36829e-06
1.34598e-06
1.32594e-06
1.28476e-06
1.37689e-06
1.28737e-06
1.36399e-06
1.68149e-06
1.30316e-06
1.75075e-06
1.47092e-06
1.4259e-06
1.69006e-06
1.36973e-06
1.25608e-06
1.49213e-06
1.43627e-06
1.37212e-06
1.66631e-06
1.38687e-06
1.38254e-06
1.50533e-06
1.47596e-06
1.39119e-06
1.45125e-06
1.50485e-06
1.3747e-06
1.69364e-06
1.77269e-06
1.43506e-06
1.86879e-06
1.69935e-06
1.79277e-06
2.25971e-06
1.52743e-06
1.46943e-06
1.76345e-06
1.74649e-06
1.83866e-06
2.1077e-06
1.54083e-06
1.51877e-06
1.77245e-06
1.76641e-06
1.55569e-06
1.74899e-06
1.77363e-06
1.73083e-06
2.38837e-06
1.91289e-06
1.73481e-06
2.14918e-06
2.22356e-06
2.50005e-06
3.31868e-06
1.84506e-06
1.85095e-06
2.20414e-06
2.1193e-06
2.4391e-06
3.01779e-06
1.85556e-06
1.8346e-06
2.20817e-06
2.18257e-06
1.87556e-06
2.09755e-06
2.17685e-06
2.56383e-06
3.37175e-06
2.25656e-06
2.1613e-06
2.49583e-06
3.29523e-06
3.6272e-06
5.13065e-06
2.34565e-06
2.35816e-06
2.83496e-06
2.73964e-06
3.11258e-06
5.68015e-06
2.34863e-06
2.32913e-06
2.85208e-06
2.88244e-06
2.40477e-06
2.67428e-06
2.73933e-06
3.76557e-06
5.13123e-06
2.74648e-06
2.85828e-06
3.03266e-06
5.64899e-06
5.5538e-06
8.13424e-06
3.07468e-06
3.02017e-06
3.81924e-06
4.01372e-06
5.64252e-06
8.91464e-06
3.10315e-06
3.00926e-06
3.7844e-06
3.95748e-06
2.90665e-06
3.96373e-06
4.17628e-06
5.62734e-06
7.72255e-06
3.13083e-06
3.9403e-06
4.41109e-06
8.75805e-06
8.70363e-06
1.16362e-05
4.02933e-06
3.99917e-06
5.19156e-06
5.03025e-06
9.72354e-06
1.04203e-05
4.02321e-06
4.30985e-06
5.20996e-06
4.81795e-06
4.27089e-06
4.82962e-06
4.90952e-06
8.54969e-06
1.15974e-05
4.50578e-06
4.80292e-06
5.04179e-06
1.0002e-05
1.27024e-05
1.64897e-05
5.55404e-06
5.90441e-06
6.60874e-06
7.27023e-06
1.2217e-05
1.93874e-05
5.49487e-06
5.32678e-06
6.57346e-06
6.88058e-06
5.82059e-06
7.19171e-06
6.3437e-06
1.15789e-05
1.83503e-05
5.86146e-06
6.85927e-06
6.43409e-06
1.83932e-05
1.73028e-05
2.40505e-05
7.24046e-06
7.06083e-06
8.73576e-06
8.09502e-06
1.91968e-05
1.84064e-05
7.29928e-06
7.12043e-06
8.78506e-06
8.94332e-06
6.85268e-06
7.79629e-06
9.43742e-06
1.98233e-05
2.19332e-05
7.02872e-06
8.81417e-06
9.34574e-06
2.4721e-05
2.52959e-05
2.84785e-05
9.12279e-06
9.86612e-06
1.11375e-05
1.15556e-05
2.1334e-05
3.42311e-05
9.06029e-06
9.6914e-06
1.10902e-05
1.0663e-05
9.2994e-06
1.14365e-05
1.10536e-05
2.37991e-05
2.99089e-05
9.25692e-06
1.09375e-05
1.07694e-05
2.63326e-05
3.02318e-05
3.81592e-05
1.18699e-05
1.14735e-05
1.4253e-05
1.52392e-05
3.42993e-05
3.66956e-05
1.19202e-05
1.1389e-05
1.42065e-05
1.47936e-05
1.28214e-05
1.50346e-05
1.37042e-05
3.08625e-05
3.71796e-05
1.25176e-05
1.44234e-05
1.41262e-05
4.01353e-05
3.92687e-05
4.35989e-05
1.50896e-05
1.60082e-05
1.69809e-05
1.58092e-05
4.00145e-05
4.34958e-05
1.50013e-05
1.5033e-05
1.70127e-05
1.67278e-05
1.42016e-05
1.58677e-05
1.72703e-05
3.82752e-05
4.42623e-05
1.46683e-05
1.68703e-05
1.64823e-05
4.24262e-05
4.51512e-05
5.1066e-05
1.78868e-05
1.73741e-05
2.16957e-05
2.32349e-05
4.3295e-05
5.36719e-05
1.79148e-05
1.85348e-05
2.14911e-05
2.19957e-05
1.76668e-05
2.29022e-05
2.23939e-05
4.51049e-05
5.27092e-05
1.75364e-05
2.15137e-05
2.21525e-05
5.17015e-05
5.20414e-05
5.82689e-05
2.23809e-05
2.35054e-05
2.47413e-05
2.28828e-05
5.55834e-05
5.54996e-05
2.22455e-05
2.18507e-05
2.4878e-05
2.55852e-05
2.34528e-05
2.28926e-05
2.42864e-05
5.45961e-05
5.63917e-05
2.28488e-05
2.57977e-05
2.45897e-05
5.76894e-05
5.99031e-05
6.33741e-05
2.67339e-05
2.50135e-05
3.10309e-05
3.26777e-05
5.61427e-05
6.56467e-05
2.68081e-05
2.77763e-05
3.08562e-05
2.93083e-05
2.55936e-05
3.23689e-05
3.07204e-05
5.76688e-05
6.40641e-05
2.55744e-05
2.90416e-05
3.05211e-05
6.37449e-05
6.44409e-05
6.85229e-05
3.08432e-05
3.30835e-05
3.43326e-05
3.27185e-05
6.70137e-05
6.77189e-05
3.06594e-05
2.91866e-05
3.40491e-05
3.64653e-05
3.15867e-05
3.26591e-05
3.50866e-05
6.48667e-05
6.88316e-05
3.23045e-05
3.63464e-05
3.37565e-05
6.88656e-05
6.96084e-05
7.41271e-05
3.73302e-05
3.57661e-05
4.04002e-05
4.1582e-05
6.83363e-05
7.46728e-05
3.71111e-05
3.87913e-05
4.09704e-05
3.95177e-05
3.68432e-05
4.13258e-05
3.93551e-05
7.0756e-05
7.42491e-05
3.49929e-05
4.01085e-05
4.09864e-05
7.40938e-05
7.50688e-05
7.90321e-05
4.02471e-05
4.1212e-05
4.58963e-05
4.51877e-05
7.54242e-05
7.79194e-05
4.04841e-05
4.07066e-05
4.60329e-05
4.49709e-05
4.03624e-05
4.37295e-05
4.64006e-05
7.46403e-05
7.74578e-05
4.17382e-05
4.43055e-05
4.51189e-05
7.85752e-05
8.07337e-05
8.37954e-05
4.84262e-05
4.90406e-05
5.42922e-05
5.36601e-05
7.94653e-05
8.41057e-05
4.90837e-05
4.64482e-05
5.41335e-05
5.28322e-05
4.79684e-05
5.27083e-05
5.17387e-05
7.91304e-05
8.37892e-05
4.71847e-05
5.28451e-05
5.09962e-05
8.29212e-05
8.40337e-05
8.5317e-05
5.45547e-05
5.33597e-05
5.41163e-05
5.71673e-05
8.48485e-05
8.64565e-05
5.4262e-05
5.42615e-05
5.37154e-05
5.71261e-05
5.3514e-05
5.87562e-05
5.67188e-05
8.46449e-05
8.72817e-05
5.26061e-05
5.79758e-05
5.87351e-05
8.69024e-05
8.65218e-05
9.14666e-05
5.62405e-05
5.75012e-05
6.46661e-05
5.99687e-05
8.66574e-05
8.85297e-05
5.56765e-05
5.90391e-05
6.49955e-05
6.39833e-05
5.73023e-05
5.91639e-05
6.43253e-05
8.81013e-05
9.05307e-05
5.90088e-05
6.3069e-05
6.13307e-05
9.10763e-05
9.24077e-05
9.59239e-05
6.60147e-05
6.33126e-05
6.95552e-05
7.56466e-05
9.12904e-05
0.000100695
6.66672e-05
6.43385e-05
6.90674e-05
6.82264e-05
6.71359e-05
7.47445e-05
6.88961e-05
9.12366e-05
9.52258e-05
6.47427e-05
6.87965e-05
7.16455e-05
9.53985e-05
9.69265e-05
9.98007e-05
7.21857e-05
7.82043e-05
7.94022e-05
7.89303e-05
0.000101158
9.7237e-05
7.12108e-05
7.15063e-05
7.9172e-05
8.01539e-05
6.94139e-05
7.87734e-05
7.76462e-05
9.6686e-05
0.00010067
7.13495e-05
7.96914e-05
7.63653e-05
9.94618e-05
0.000100173
0.000101237
7.98031e-05
7.78667e-05
7.77884e-05
7.41429e-05
9.66494e-05
9.9568e-05
8.00888e-05
8.07913e-05
7.85409e-05
7.84518e-05
8.01514e-05
7.41182e-05
8.0281e-05
0.000100943
0.000100693
7.9354e-05
7.78728e-05
8.0526e-05
0.000102049
0.000102113
0.000108141
7.90077e-05
7.52592e-05
9.10251e-05
9.1958e-05
0.000101531
0.000110145
7.96645e-05
7.84681e-05
9.04553e-05
9.08216e-05
7.9866e-05
9.14863e-05
8.97228e-05
0.000101376
0.000108431
8.02099e-05
9.04917e-05
8.97474e-05
0.000108035
0.000108694
0.000110233
9.29254e-05
9.55681e-05
9.24403e-05
9.93932e-05
0.000111142
0.000113168
9.13633e-05
9.30994e-05
9.23807e-05
9.24955e-05
9.27336e-05
9.94339e-05
9.35279e-05
0.000109053
0.000109115
9.24729e-05
9.03508e-05
9.26566e-05
0.000109916
0.000111114
0.00011521
9.29514e-05
9.92156e-05
0.000101841
9.81686e-05
0.000113205
0.000112497
9.49524e-05
9.18644e-05
0.000102652
0.000101317
9.3081e-05
9.69645e-05
0.000101396
0.00010955
0.000116474
9.24068e-05
0.000103295
0.000101833
0.000115869
0.000115439
0.000117064
0.000102793
9.84322e-05
0.000103179
0.00010375
0.000113014
0.000118484
0.000103261
0.000104537
0.000102157
0.000106049
0.000104062
0.000104605
0.000104751
0.000117441
0.000117694
0.000104089
0.000104263
0.000103793
0.000116932
0.000118163
0.000123084
0.000104826
0.000106804
0.000112873
0.000113428
0.000119668
0.000122179
0.000103545
0.000105418
0.000112354
0.000111108
0.0001042
0.000112678
0.000111367
0.000117727
0.000122161
0.000103269
0.000111645
0.00011168
0.000123211
0.000123555
0.000124227
0.000114751
0.000113683
0.000114931
0.000112442
0.000122294
0.000123507
0.000114672
0.000112477
0.000116021
0.000113203
0.000114343
0.000112275
0.000116348
0.000122666
0.000123185
0.000114746
0.000112516
0.000117012
0.000124533
0.000124554
0.000129381
0.000114365
0.000114012
0.00012009
0.000123166
0.000124596
0.000131377
0.000115424
0.000114622
0.000119413
0.000122802
0.0001156
0.000123522
0.000118286
0.000124179
0.000131491
0.00011629
0.00012333
0.000117638
0.000128477
0.000130861
0.000134143
0.000123515
0.000125803
0.000129765
0.000128461
0.000132294
0.000132828
0.000122714
0.000125445
0.000129505
0.00012867
0.000122034
0.000128254
0.000129927
0.000132461
0.000133133
0.000121344
0.000128914
0.000129759
0.000134508
0.000134154
0.000133642
0.000129909
0.000127916
0.000128156
0.000125729
0.000132555
0.000132799
0.000129793
0.000128272
0.000128227
0.000126102
0.000130488
0.000125506
0.000128802
0.000132877
0.000132676
0.00013054
0.000126121
0.00012907
0.000133973
0.00013426
0.00013938
0.000128454
0.000127891
0.000134881
0.000137337
0.000134293
0.000140542
0.000128883
0.000127489
0.000135307
0.000137265
0.000128513
0.000137524
0.000135753
0.000133849
0.000140503
0.000128591
0.000136951
0.000135783
0.000139885
0.00013976
0.000142048
0.00013632
0.000137828
0.000139812
0.000138698
0.000140678
0.000141414
0.000136312
0.000137879
0.000139479
0.000139359
0.000136721
0.0001382
0.000139225
0.000140705
0.000141819
0.000137508
0.000139404
0.000139244
0.000141576
0.00014279
0.000145191
0.000140907
0.000141019
0.00014419
0.000145066
0.000142532
0.000145934
0.000140768
0.000140969
0.000144226
0.000144762
0.0001411
0.000145508
0.000144053
0.000142861
0.000146042
0.000140036
0.000145044
0.000143345
0.000144954
0.000145557
0.000147353
0.000145221
0.000144944
0.000147247
0.000147044
0.000145896
0.000147253
0.000145281
0.00014565
0.000147319
0.0001481
0.000144025
0.000146691
0.000147781
0.000146191
0.00014748
0.000144618
0.000147798
0.000149444
0.000148458
0.000147751
0.000151259
0.000148079
0.000149143
0.000153162
0.000153014
0.0001485
0.000151088
0.000147941
0.000148638
0.000152618
0.000151024
0.000150092
0.000153616
0.000153557
0.00014805
0.00014975
0.000150645
0.000150611
0.000150952
0.000150544
0.000151983
0.000152687
0.000154444
0.000152911
0.000154643
0.000152661
0.000150908
0.000150798
0.00015422
0.000152323
0.000155254
0.000155614
0.000153345
0.000151849
0.000153382
0.000150093
0.000153363
0.000150946
0.000155989
0.000155852
0.000152886
0.000152663
0.000156589
0.000154772
0.000154814
0.000160512
0.000162857
0.000152065
0.00015915
0.000155508
0.000156401
0.000159822
0.000159933
0.000155781
0.00016333
0.000162351
0.000154023
0.000156566
0.000158239
0.000160318
0.000161681
0.000157541
0.000157535
0.000159252
0.000162438
0.000164499
0.000164405
0.00016506
0.000159608
0.000158718
0.000161632
0.000161701
0.000164823
0.000166015
0.000163194
0.000165294
0.000162742
0.000157159
0.000159963
0.000161553
0.0001654
0.000162179
0.000157089
0.000159317
0.000161097
0.000164459
0.000164563
0.000166967
0.000164506
0.000158351
0.000159633
0.000165281
0.000166414
0.000167228
0.000165538
0.000162411
0.000163268
0.000166344
0.000160084
0.000159406
0.000163591
0.000165391
0.000167142
0.000161637
0.000161687
0.000163754
0.000168446
0.000167027
0.000171167
0.000172307
0.000160916
0.000165381
0.000168095
0.000165369
0.000170183
0.000171087
0.000168735
0.000173602
0.000173857
0.000159383
0.000165085
0.000168571
0.000172111
0.000173059
0.000165394
0.000163998
0.000167112
0.000171575
0.000173054
0.000175055
0.000174775
0.000165671
0.000166406
0.000171074
0.000173462
0.000175831
0.000178001
0.000174269
0.000175088
0.000173483
0.0001663
0.000168714
0.000173657
0.000177894
0.000173645
0.000164988
0.000167852
0.000169035
0.00017672
0.000175753
0.000179085
0.000177751
0.000166529
0.00016797
0.000177507
0.000178387
0.000179401
0.000177766
0.000173541
0.00017702
0.000179078
0.000168617
0.000166944
0.000174624
0.000176717
0.000178663
0.000169495
0.000168848
0.000168907
0.000178927
0.000177872
0.000178267
0.000180412
0.0001681
0.000170552
0.000179219
0.000177144
0.000177858
0.000176239
0.000179812
0.000180303
0.000179754
0.000166613
0.000168653
0.000178957
0.000177813
0.000179407
0.000169773
0.000169869
0.000174464
0.000180101
0.000182072
0.000186154
0.000185038
0.000171335
0.000173088
0.000178595
0.000178612
0.000186103
0.000186512
0.000180521
0.00018477
0.000184534
0.000169944
0.000174895
0.000181138
0.00018683
0.000185205
0.000173215
0.000174575
0.000174552
0.00018675
0.000185044
0.000186615
0.00018575
0.000172922
0.00017444
0.000187093
0.0001877
0.000187408
0.000188423
0.000184696
0.000186026
0.00018638
0.000175137
0.000175599
0.000185429
0.000187908
0.000186432
0.000174638
0.000175024
0.000179356
0.000187197
0.00018807
0.000192534
0.000192869
0.000175673
0.000179828
0.000187953
0.000189049
0.00019241
0.000192024
0.000188609
0.000193059
0.000193144
0.000175917
0.000178827
0.00018844
0.000191751
0.000192766
0.000179824
0.000179375
0.000176236
0.000193205
0.000193406
0.000192249
0.000191736
0.00017972
0.000175771
0.000193004
0.000192408
0.00019189
0.000190551
0.000193715
0.000191843
0.000192012
0.000178698
0.00017482
0.000193294
0.000190465
0.000191547
0.00017588
0.000175606
0.000176575
0.000191371
0.000190807
0.000189314
0.000188845
0.000175108
0.000176567
0.000191019
0.000189675
0.00018903
0.000188365
0.000191051
0.000188922
0.000188932
0.000174159
0.000176783
0.000190611
0.000188389
0.000188669
0.000176436
0.000178441
0.000189743
0.00019176
0.00019192
0.000205433
0.000205868
0.00017863
0.000190245
0.000191826
0.000192625
0.000205524
0.000206353
0.000191626
0.000205891
0.000205614
0.000179164
0.000190561
0.000191919
0.000206514
0.00020586
0.00019001
0.000191106
0.000196495
0.0002085
0.000208935
0.0002152
0.000215665
0.000191588
0.000196775
0.000208581
0.000209321
0.00021528
0.000215959
0.000208721
0.000215706
0.000215492
0.000191865
0.000196967
0.000208933
0.000216124
0.000215685
0.00019674
0.000195252
0.00018128
0.000216617
0.000217004
0.00020277
0.000202634
0.000195457
0.000181136
0.0002167
0.000217259
0.000202835
0.000202706
0.000216895
0.000202669
0.000202803
0.000195616
0.000181197
0.000217062
0.000202752
0.00020282
0.000181274
0.000178434
0.000167817
0.000196726
0.000196568
0.00018462
0.000184477
0.000178275
0.000167676
0.000196778
0.00019662
0.000184631
0.000184465
0.000196714
0.000184477
0.000184536
0.000178325
0.00016767
0.000196736
0.0001845
0.000184569
0.000167746
0.000166788
0.000170223
0.00018264
0.000182511
0.000180852
0.000180867
0.000166645
0.000170262
0.000182647
0.000182484
0.000180801
0.000180748
0.000182548
0.000180861
0.000180778
0.000166638
0.000170183
0.000182585
0.000180785
0.000180814
0.000170204
0.000172256
0.000183366
0.0001855
0.000185567
0.000199561
0.000199668
0.000172323
0.000183481
0.000185446
0.000185439
0.000199533
0.000199585
0.000185471
0.000199699
0.00019962
0.000172239
0.000183431
0.000185495
0.000199638
0.00019963
0.000183432
0.000185738
0.000201453
0.000204783
0.000204888
0.000222562
0.000222631
0.000185853
0.00020153
0.000204762
0.000204825
0.000222561
0.000222624
0.000204853
0.000222676
0.000222624
0.000185813
0.000201531
0.000204862
0.000222676
0.000222636
0.0002015
0.00020409
0.000218166
0.000228699
0.00022875
0.000243506
0.000243503
0.000204159
0.000218176
0.000228702
0.000228757
0.000243523
0.000243539
0.000228752
0.000243554
0.000243527
0.000204164
0.000218205
0.000228763
0.00024358
0.000243539
0.00021817
0.000219234
0.000218806
0.000247138
0.000247128
0.000253726
0.00025366
0.000219235
0.000218741
0.000247157
0.000247169
0.000253764
0.000253712
0.000247154
0.000253717
0.000253703
0.000219266
0.000218773
0.000247167
0.000253746
0.000253722
0.000218758
0.000214415
0.000193961
0.00024694
0.000246838
0.000221277
0.000221214
0.000214353
0.000193921
0.00024699
0.000246888
0.000221311
0.000221239
0.000246892
0.000221265
0.000221255
0.000214379
0.000193936
0.000246915
0.00022128
0.000221276
0.000193934
0.000190202
0.000175993
0.000213629
0.000213574
0.000196353
0.000196315
0.000190168
0.000175972
0.000213659
0.000213594
0.000196369
0.000196325
0.00021361
0.000196354
0.000196335
0.000190178
0.00017598
0.00021363
0.000196366
0.000196349
0.000175972
0.000174559
0.00017116
0.000192771
0.000192736
0.000188061
0.000188035
0.000174541
0.000171151
0.000192782
0.000192744
0.000188064
0.000188039
0.000192753
0.000188064
0.000188046
0.000174547
0.000171154
0.000192765
0.000188071
0.000188052
0.000171146
0.000171169
0.000177035
0.000187955
0.000187929
0.00019365
0.000193636
0.000171162
0.000177031
0.000187957
0.000187933
0.000193652
0.000193638
0.00018794
0.00019366
0.000193642
0.000171166
0.000177031
0.000187946
0.000193661
0.000193647
0.000177024
0.000178361
0.000184097
0.000196999
0.000196984
0.000204873
0.000204854
0.000178356
0.000184088
0.000197004
0.000196986
0.000204885
0.000204859
0.000196991
0.000204886
0.000204863
0.000178357
0.000184092
0.000196998
0.000204891
0.000204876
0.000184083
0.000184737
0.000187182
0.0002067
0.00020668
0.000209975
0.000209952
0.000184727
0.000187173
0.000206713
0.000206685
0.000209991
0.000209962
0.00020669
0.000209991
0.000209964
0.000184732
0.000187179
0.000206703
0.000209999
0.000209981
0.000187166
0.000187306
0.000188052
0.000210547
0.000210524
0.000211406
0.000211385
0.000187297
0.000188046
0.000210563
0.000210534
0.000211422
0.000211393
0.000210536
0.000211425
0.000211397
0.000187304
0.000188051
0.000210554
0.000211433
0.000211416
0.000188038
0.000187991
0.000188291
0.000211548
0.000211528
0.000211746
0.000211726
0.000187985
0.000188284
0.000211565
0.000211535
0.000211763
0.000211733
0.000211539
0.000211767
0.000211738
0.000187991
0.000188289
0.000211559
0.000211774
0.000211758
0.000188277
0.000188164
0.000188362
0.000211761
0.000211741
0.000211782
0.000211761
0.000188157
0.000188355
0.000211779
0.000211748
0.000211799
0.000211768
0.000211753
0.000211803
0.000211773
0.000188163
0.00018836
0.000211773
0.00021181
0.000211793
0.000188348
0.000188217
0.000188304
0.000211773
0.000211752
0.000211674
0.000211652
0.000188211
0.000188296
0.00021179
0.000211759
0.000211692
0.00021166
0.000211764
0.000211694
0.000211664
0.000188216
0.000188301
0.000211784
0.000211701
0.000211683
0.000188288
0.00018815
0.000188202
0.000211652
0.00021163
0.000211606
0.000211585
0.000188143
0.000188194
0.000211669
0.000211637
0.000211623
0.000211592
0.000211641
0.000211627
0.000211597
0.000188148
0.0001882
0.000211661
0.000211634
0.000211617
0.000188185
0.000188063
0.000188299
0.000211613
0.000211593
0.000211627
0.000211606
0.000188056
0.000188294
0.000211631
0.0002116
0.000211644
0.000211613
0.000211605
0.000211647
0.000211618
0.000188061
0.000188298
0.000211624
0.000211654
0.000211637
0.00018829
0.00018817
0.000188253
0.000211635
0.000211613
0.000211615
0.000211594
0.000188165
0.000188244
0.000211652
0.000211621
0.000211633
0.000211601
0.000211625
0.000211635
0.000211605
0.000188169
0.00018825
0.000211645
0.000211643
0.000211625
0.000188235
0.000188101
0.00018823
0.000211618
0.000211596
0.00021161
0.000211589
0.000188092
0.000188225
0.000211635
0.000211604
0.000211627
0.000211596
0.000211608
0.00021163
0.000211601
0.000188098
0.000188229
0.000211627
0.000211637
0.00021162
0.00018822
0.000188106
0.0001883
0.000211625
0.000211605
0.000211672
0.000211651
0.000188102
0.000188293
0.000211643
0.000211611
0.000211689
0.000211659
0.000211617
0.000211692
0.000211663
0.000188106
0.000188297
0.000211636
0.0002117
0.000211682
0.000188283
0.000188149
0.00018966
0.000211547
0.000211526
0.000214105
0.000214089
0.00018814
0.000189653
0.000211565
0.000211533
0.000214122
0.000214098
0.000211536
0.000214121
0.000214099
0.000188145
0.00018966
0.000211555
0.000214131
0.000214116
0.000189652
0.000191589
0.000212904
0.000212889
0.000191583
0.000212918
0.000212898
0.000236506
0.000236516
0.000236511
0.000212899
0.00019159
0.000212914
2.46356e-05
2.91303e-06
1.48632e-05
1.48482e-05
8.87956e-07
2.23126e-06
1.5679e-06
7.37851e-06
6.63512e-07
2.40992e-06
7.29949e-06
1.52736e-06
2.28083e-06
1.86053e-06
1.91303e-06
1.09587e-06
1.35097e-05
1.01667e-06
1.52867e-05
1.08507e-05
1.31049e-05
1.26659e-06
1.35123e-05
1.21054e-06
1.52933e-05
6.33612e-06
6.39313e-06
6.39853e-06
6.36333e-06
6.26573e-06
6.29218e-06
6.28918e-06
6.66455e-07
3.70196e-07
3.13253e-06
2.14028e-06
7.59932e-07
4.78264e-07
3.08844e-06
1.09249e-05
1.32119e-05
6.66344e-07
3.03107e-06
4.66452e-07
2.20814e-06
6.79823e-07
2.99626e-06
5.81483e-07
1.52406e-06
1.49237e-06
2.26946e-06
1.73724e-06
1.70533e-06
1.3411e-06
1.85344e-05
1.22827e-06
2.09001e-05
1.71223e-05
1.92779e-05
1.45957e-06
1.85517e-05
1.37577e-06
2.09389e-05
6.30085e-06
6.31396e-06
6.31192e-06
6.46555e-06
6.42133e-06