/*--------------------------------*- C++ -*----------------------------------*\
| =========                 |                                                 |
| \\      /  F ield         | OpenFOAM: The Open Source CFD Toolbox           |
|  \\    /   O peration     | Version:  v2012                                 |
|   \\  /    A nd           | Website:  www.openfoam.com                      |
|    \\/     M anipulation  |                                                 |
\*---------------------------------------------------------------------------*/
FoamFile
{
    version     2.0;
    format      ascii;
    class       volScalarField;
    location    "562.5";
    object      epsilon;
}
// * * * * * * * * * * * * * * * * * * * * * * * * * * * * * * * * * * * * * //

dimensions      [0 2 -3 0 0 0 0];


internalField   nonuniform List<scalar> 
171728
(
1.60557e-09
3.40706e-09
5.86541e-09
4.93028e-09
1.58101e-09
3.16742e-09
5.49779e-09
4.47745e-09
1.52469e-09
2.918e-09
5.24626e-09
4.06703e-09
1.47154e-09
2.6999e-09
5.10611e-09
3.77663e-09
1.42365e-09
2.50855e-09
5.00427e-09
3.5177e-09
1.37908e-09
2.34866e-09
4.89405e-09
3.26585e-09
1.33642e-09
2.22327e-09
4.62366e-09
3.02839e-09
1.29498e-09
2.13315e-09
4.20063e-09
2.87673e-09
1.25454e-09
2.07668e-09
3.79104e-09
2.77988e-09
1.21554e-09
2.05496e-09
3.46629e-09
2.70489e-09
1.17864e-09
2.06505e-09
3.25297e-09
2.59059e-09
1.1438e-09
2.10882e-09
3.07323e-09
2.55084e-09
1.11166e-09
2.18926e-09
3.03355e-09
2.53633e-09
1.08192e-09
2.31734e-09
2.99015e-09
2.54117e-09
1.05485e-09
2.50823e-09
3.07611e-09
2.59596e-09
1.03032e-09
2.81705e-09
3.38787e-09
2.69302e-09
1.00945e-09
3.26701e-09
3.74834e-09
3.29888e-09
9.91973e-10
4.04172e-09
4.45542e-09
3.61756e-09
9.78069e-10
5.05704e-09
5.45284e-09
5.07883e-09
9.70555e-10
6.68169e-09
7.02076e-09
7.15164e-09
9.75265e-10
9.48864e-09
9.4645e-09
1.11416e-08
9.91324e-10
1.24496e-08
1.30219e-08
1.75864e-08
1.01974e-09
1.81979e-08
1.84297e-08
2.88516e-08
1.07373e-09
2.24771e-08
2.65418e-08
4.96993e-08
1.16371e-09
3.45119e-08
3.37308e-08
6.61726e-08
1.30024e-09
4.55605e-08
4.91163e-08
1.2212e-07
1.49817e-09
5.78772e-08
5.39794e-08
1.52863e-07
1.77378e-09
7.71676e-08
7.82988e-08
2.25665e-07
2.14317e-09
9.14975e-08
9.77134e-08
2.83062e-07
2.81339e-09
1.18725e-07
1.17861e-07
3.68608e-07
3.54528e-09
1.45344e-07
1.43876e-07
4.84832e-07
4.58663e-09
1.74388e-07
1.72639e-07
4.81959e-07
6.03483e-09
2.0423e-07
2.02422e-07
5.57599e-07
7.56982e-09
2.31363e-07
2.38377e-07
6.94305e-07
9.92747e-09
3.08362e-07
2.93553e-07
7.25262e-07
1.36069e-08
3.10069e-07
3.12864e-07
7.41394e-07
1.57391e-08
3.30122e-07
3.58372e-07
7.95879e-07
2.10546e-08
4.5801e-07
4.10198e-07
8.5237e-07
2.84657e-08
4.94973e-07
4.63929e-07
8.89167e-07
3.30351e-08
4.92655e-07
5.05219e-07
9.0778e-07
4.06701e-08
5.25159e-07
5.45215e-07
9.46985e-07
5.33259e-08
6.22085e-07
6.00989e-07
9.91996e-07
6.51927e-08
6.61017e-07
6.59497e-07
1.00808e-06
7.70296e-08
6.86276e-07
6.84581e-07
1.02189e-06
8.83308e-08
7.41209e-07
7.42224e-07
1.07525e-06
1.12629e-07
7.94651e-07
8.01491e-07
1.11109e-06
1.34309e-07
8.2055e-07
8.23918e-07
1.11416e-06
1.45398e-07
8.62018e-07
8.4287e-07
1.1156e-06
1.70943e-07
9.20558e-07
9.21009e-07
1.20244e-06
2.10921e-07
9.36793e-07
9.53768e-07
1.20373e-06
2.27681e-07
9.49724e-07
9.52982e-07
1.19942e-06
2.42967e-07
9.93409e-07
9.85784e-07
1.22218e-06
2.96432e-07
1.06219e-06
1.04926e-06
1.28714e-06
3.28442e-07
1.06256e-06
1.05892e-06
1.2948e-06
3.4398e-07
1.05384e-06
1.07011e-06
1.28285e-06
3.77183e-07
1.07391e-06
1.09526e-06
1.30489e-06
4.02802e-07
1.13306e-06
1.11371e-06
1.34521e-06
4.47467e-07
1.15403e-06
1.14506e-06
1.36086e-06
4.80232e-07
1.15756e-06
1.15935e-06
1.35958e-06
4.99564e-07
1.16607e-06
1.17577e-06
1.3809e-06
5.28818e-07
1.18881e-06
1.1949e-06
1.3989e-06
5.54243e-07
1.21218e-06
1.20122e-06
1.40412e-06
5.76333e-07
1.2194e-06
1.21514e-06
1.42294e-06
6.01261e-07
1.22308e-06
1.2384e-06
1.43062e-06
6.18942e-07
1.24178e-06
1.24354e-06
1.43711e-06
6.41373e-07
1.26317e-06
1.25443e-06
1.45766e-06
6.59531e-07
1.26661e-06
1.26702e-06
1.46331e-06
6.75559e-07
1.26736e-06
1.27037e-06
1.46494e-06
6.91807e-07
1.28433e-06
1.28388e-06
1.48216e-06
7.07556e-07
1.2917e-06
1.29034e-06
1.488e-06
7.21517e-07
1.29557e-06
1.29177e-06
1.48657e-06
7.33576e-07
1.29564e-06
1.30489e-06
1.50039e-06
7.46602e-07
1.30936e-06
1.3083e-06
1.51008e-06
7.57545e-07
1.3137e-06
1.30739e-06
1.50562e-06
7.6953e-07
1.31193e-06
1.31395e-06
1.50984e-06
7.75288e-07
1.31059e-06
1.31644e-06
1.52183e-06
7.83684e-07
1.31804e-06
1.31971e-06
1.52412e-06
7.92358e-07
1.32672e-06
1.31771e-06
1.51513e-06
7.98494e-07
1.32576e-06
1.32056e-06
1.52726e-06
8.02329e-07
1.31053e-06
1.32344e-06
1.5293e-06
8.02717e-07
1.31436e-06
1.32071e-06
1.52477e-06
8.08037e-07
1.32831e-06
1.3153e-06
1.52427e-06
8.11287e-07
1.32449e-06
1.3149e-06
1.52939e-06
8.09166e-07
1.31032e-06
1.32296e-06
1.53294e-06
8.08588e-07
1.30164e-06
1.31497e-06
1.52039e-06
8.08213e-07
1.30687e-06
1.29985e-06
1.51298e-06
8.08483e-07
1.31922e-06
1.31046e-06
1.53679e-06
8.03604e-07
1.29236e-06
1.30701e-06
1.52529e-06
7.9917e-07
1.28279e-06
1.28113e-06
1.49123e-06
8.05424e-07
1.3101e-06
1.30435e-06
1.53239e-06
7.97327e-07
1.28493e-06
1.30368e-06
1.53117e-06
7.7665e-07
1.24986e-06
1.24835e-06
1.46624e-06
7.83499e-07
1.28057e-06
1.25738e-06
1.48207e-06
7.98393e-07
1.29755e-06
1.29666e-06
1.53766e-06
7.56203e-07
1.18231e-06
1.20397e-06
1.44277e-06
5.08717e-09
3.99404e-09
3.98202e-09
4.96138e-09
3.98646e-09
3.50067e-09
1.58328e-09
1.52743e-09
1.66984e-09
1.80663e-09
3.83052e-09
4.10266e-09
5.11262e-09
4.14531e-09
3.73711e-09
4.99937e-09
5.06654e-09
4.58069e-09
4.1181e-09
4.69275e-09
3.58329e-09
4.43813e-09
4.9412e-09
4.51306e-09
4.27677e-09
7.60479e-09
4.08702e-09
4.7625e-09
5.0484e-09
3.23454e-09
4.78153e-09
5.07101e-09
4.61154e-09
1.48861e-08
5.58067e-09
1.08746e-08
4.56757e-09
4.55357e-09
4.15517e-09
3.47555e-09
4.33402e-09
3.26397e-09
4.03481e-09
4.48348e-09
4.08781e-09
4.01722e-09
4.25204e-09
3.81864e-09
3.46079e-09
4.6822e-09
2.97716e-09
4.40047e-09
4.5719e-09
4.18198e-09
9.96835e-09
5.30169e-09
8.21054e-09
4.14087e-09
4.12991e-09
3.7808e-09
3.20657e-09
3.94011e-09
3.05167e-09
3.67564e-09
4.06203e-09
3.71969e-09
3.75355e-09
3.32928e-09
3.56176e-09
3.06886e-09
4.31005e-09
2.75174e-09
4.046e-09
4.14046e-09
3.86749e-09
7.81748e-09
5.13307e-09
6.83884e-09
3.82765e-09
3.75885e-09
3.46313e-09
3.0072e-09
3.59473e-09
2.88917e-09
3.37066e-09
3.69768e-09
3.40397e-09
3.49979e-09
3.00915e-09
3.32166e-09
2.87605e-09
3.96273e-09
2.55345e-09
3.72894e-09
3.82692e-09
3.62246e-09
6.48506e-09
5.02823e-09
5.48702e-09
3.56386e-09
3.44461e-09
3.19499e-09
2.85408e-09
3.3022e-09
2.75605e-09
3.11632e-09
3.38569e-09
3.12944e-09
3.26596e-09
2.83739e-09
3.11286e-09
2.73271e-09
3.65683e-09
2.38536e-09
3.45746e-09
3.59031e-09
3.41428e-09
5.19903e-09
4.92828e-09
4.44115e-09
3.29011e-09
3.17999e-09
2.96947e-09
2.72637e-09
3.05942e-09
2.64528e-09
2.9052e-09
3.11451e-09
2.88354e-09
3.06575e-09
2.70167e-09
2.94012e-09
2.61942e-09
3.39607e-09
2.25131e-09
3.22477e-09
3.39671e-09
3.16407e-09
4.2406e-09
4.71162e-09
3.80483e-09
3.04638e-09
2.9579e-09
2.78269e-09
2.62238e-09
2.85831e-09
2.56103e-09
2.73317e-09
2.87282e-09
2.68337e-09
2.90368e-09
2.59482e-09
2.81002e-09
2.52759e-09
3.17359e-09
2.15209e-09
3.0356e-09
3.14295e-09
2.92182e-09
3.69894e-09
4.31183e-09
3.49525e-09
2.88362e-09
2.77485e-09
2.6362e-09
2.54418e-09
2.69624e-09
2.50053e-09
2.60219e-09
2.67653e-09
2.52487e-09
2.7836e-09
2.50781e-09
2.7164e-09
2.45763e-09
2.99443e-09
2.08818e-09
2.88633e-09
2.91087e-09
2.77591e-09
3.47141e-09
3.88268e-09
3.4609e-09
2.78366e-09
2.63218e-09
2.52332e-09
2.48933e-09
2.57653e-09
2.46158e-09
2.51504e-09
2.52209e-09
2.4051e-09
2.6974e-09
2.44342e-09
2.65277e-09
2.41379e-09
2.85488e-09
2.0573e-09
2.77326e-09
2.7693e-09
2.65105e-09
3.4747e-09
3.54761e-09
3.52671e-09
2.70811e-09
2.52308e-09
2.44192e-09
2.45434e-09
2.50121e-09
2.44481e-09
2.47289e-09
2.40617e-09
2.31937e-09
2.64139e-09
2.40664e-09
2.61762e-09
2.39577e-09
2.74843e-09
2.06047e-09
2.68242e-09
2.64738e-09
2.53456e-09
3.53284e-09
3.30595e-09
3.52197e-09
2.59089e-09
2.44507e-09
2.39102e-09
2.44574e-09
2.46784e-09
2.45818e-09
2.46853e-09
2.32382e-09
2.26862e-09
2.61433e-09
2.39755e-09
2.61652e-09
2.41039e-09
2.66438e-09
2.09609e-09
2.63296e-09
2.5345e-09
2.46031e-09
3.50019e-09
3.09742e-09
3.48536e-09
2.54152e-09
2.4e-09
2.37731e-09
2.46534e-09
2.47397e-09
2.50708e-09
2.50671e-09
2.2789e-09
2.25902e-09
2.62122e-09
2.41921e-09
2.65674e-09
2.47108e-09
2.62471e-09
2.16769e-09
2.63056e-09
2.46606e-09
2.418e-09
3.48473e-09
3.04743e-09
3.46459e-09
2.52274e-09
2.39549e-09
2.41071e-09
2.52516e-09
2.52598e-09
2.60754e-09
2.59816e-09
2.27818e-09
2.29654e-09
2.67349e-09
2.49183e-09
2.75425e-09
2.57824e-09
2.64153e-09
2.28104e-09
2.68601e-09
2.43339e-09
2.44185e-09
3.4512e-09
2.98943e-09
3.38274e-09
2.52037e-09
2.44279e-09
2.50706e-09
2.63953e-09
2.63294e-09
2.77435e-09
2.75701e-09
2.32914e-09
2.3971e-09
2.78353e-09
2.61531e-09
2.92433e-09
2.7578e-09
2.71039e-09
2.45758e-09
2.81686e-09
2.47113e-09
2.51849e-09
3.36751e-09
3.04755e-09
3.35952e-09
2.54842e-09
2.56334e-09
2.70801e-09
2.83121e-09
2.81831e-09
3.04642e-09
3.03114e-09
2.45248e-09
2.60087e-09
2.97977e-09
2.81494e-09
3.19255e-09
3.0395e-09
2.8676e-09
2.73514e-09
3.03132e-09
2.56696e-09
2.72905e-09
3.34942e-09
3.29679e-09
3.30553e-09
2.63378e-09
2.79203e-09
3.08783e-09
3.13193e-09
3.13049e-09
3.48306e-09
3.45379e-09
2.69602e-09
2.92742e-09
3.28403e-09
3.136e-09
3.63751e-09
3.46572e-09
3.08603e-09
3.14216e-09
3.44722e-09
2.82382e-09
3.03957e-09
3.31768e-09
3.59699e-09
3.62742e-09
3.09286e-09
3.24766e-09
3.71808e-09
3.63773e-09
3.60448e-09
4.15352e-09
4.19867e-09
3.08284e-09
3.67264e-09
3.78128e-09
3.6012e-09
4.28374e-09
4.14222e-09
3.61647e-09
3.85309e-09
3.99408e-09
3.17099e-09
3.68736e-09
3.72679e-09
4.26224e-09
3.97254e-09
3.47303e-09
3.96991e-09
4.84601e-09
4.3783e-09
4.40215e-09
5.16617e-09
5.22615e-09
3.91122e-09
4.70798e-09
4.51063e-09
4.39405e-09
5.32765e-09
5.14831e-09
4.12866e-09
4.75275e-09
4.91556e-09
3.97574e-09
4.76232e-09
4.09776e-09
5.15611e-09
4.78983e-09
4.56051e-09
5.26914e-09
6.84864e-09
5.49511e-09
5.47207e-09
6.71831e-09
6.86981e-09
5.08395e-09
6.77839e-09
5.65217e-09
5.44832e-09
6.90719e-09
6.69117e-09
5.316e-09
6.32358e-09
6.44538e-09
5.12358e-09
6.63109e-09
5.11733e-09
6.59097e-09
6.08356e-09
6.57309e-09
7.57566e-09
1.02368e-08
7.2027e-09
7.22083e-09
9.0037e-09
9.34293e-09
7.45655e-09
1.056e-08
7.40192e-09
7.1538e-09
9.16002e-09
8.99628e-09
6.85223e-09
8.75101e-09
8.56082e-09
7.34096e-09
1.01719e-08
6.50816e-09
8.7724e-09
8.15814e-09
9.77253e-09
1.146e-08
1.6156e-08
9.73419e-09
1.00992e-08
1.21945e-08
1.16101e-08
1.19107e-08
1.4865e-08
9.93747e-09
9.70063e-09
1.24076e-08
1.22402e-08
9.41282e-09
1.09763e-08
1.19173e-08
1.1237e-08
1.63431e-08
9.02358e-09
1.2239e-08
1.14074e-08
1.60816e-08
1.8067e-08
2.62164e-08
1.33328e-08
1.30518e-08
1.68564e-08
1.83302e-08
1.71253e-08
3.07216e-08
1.34852e-08
1.32413e-08
1.69404e-08
1.71384e-08
1.28334e-08
1.75951e-08
1.67563e-08
1.82061e-08
2.64397e-08
1.22674e-08
1.74483e-08
1.57379e-08
2.58397e-08
2.90872e-08
4.23799e-08
1.82916e-08
1.89967e-08
2.32495e-08
2.03817e-08
3.1648e-08
3.16263e-08
1.82883e-08
1.81322e-08
2.3237e-08
2.35555e-08
1.80538e-08
1.98736e-08
2.38509e-08
2.93675e-08
4.20274e-08
1.69845e-08
2.38336e-08
2.26485e-08
4.46472e-08
4.67982e-08
6.69238e-08
2.52673e-08
2.30275e-08
3.14633e-08
3.23429e-08
3.57814e-08
7.927e-08
2.51158e-08
2.59912e-08
3.12025e-08
3.05947e-08
2.60037e-08
3.16903e-08
3.01181e-08
4.7458e-08
6.64907e-08
2.46643e-08
3.0891e-08
2.88539e-08
6.1724e-08
7.27829e-08
1.0265e-07
3.42556e-08
3.5128e-08
4.25791e-08
4.42359e-08
8.71466e-08
1.11001e-07
3.38675e-08
3.3104e-08
4.20491e-08
4.50256e-08
3.20546e-08
4.36986e-08
4.56987e-08
7.1256e-08
1.15355e-07
3.09165e-08
4.67135e-08
4.29793e-08
1.08958e-07
1.11247e-07
1.51428e-07
4.54533e-08
4.56248e-08
5.8299e-08
5.39381e-08
1.1764e-07
1.38044e-07
4.48131e-08
4.79734e-08
5.63876e-08
5.31646e-08
4.97059e-08
5.23355e-08
5.48132e-08
1.25181e-07
1.35642e-07
4.64988e-08
5.21586e-08
5.34491e-08
1.47712e-07
1.63533e-07
2.06266e-07
6.21526e-08
5.92357e-08
7.02609e-08
7.4209e-08
1.49092e-07
2.26436e-07
6.0294e-08
5.6116e-08
7.03061e-08
7.14896e-08
5.73304e-08
7.36662e-08
7.20718e-08
1.39776e-07
2.05037e-07
5.69702e-08
7.10475e-08
7.05484e-08
2.07763e-07
2.15512e-07
2.70575e-07
7.48863e-08
7.91489e-08
9.18452e-08
9.08982e-08
2.37748e-07
2.58747e-07
7.46279e-08
7.78481e-08
9.05375e-08
9.29567e-08
7.79057e-08
8.66292e-08
9.24386e-08
2.26225e-07
2.90886e-07
7.60984e-08
9.49617e-08
9.03742e-08
2.73209e-07
2.87862e-07
3.51757e-07
9.6319e-08
9.38865e-08
1.13294e-07
1.08844e-07
2.68268e-07
3.46551e-07
9.52046e-08
9.59344e-08
1.13613e-07
1.1118e-07
9.47661e-08
1.11762e-07
1.11052e-07
3.0104e-07
3.38242e-07
9.26033e-08
1.10426e-07
1.09024e-07
3.41055e-07
3.67151e-07
4.31957e-07
1.2027e-07
1.17048e-07
1.38959e-07
1.43784e-07
3.67919e-07
4.3723e-07
1.20309e-07
1.19035e-07
1.37513e-07
1.39281e-07
1.23517e-07
1.38455e-07
1.51101e-07
3.54164e-07
4.32105e-07
1.2117e-07
1.38482e-07
1.50338e-07
4.76407e-07
4.48298e-07
5.01074e-07
1.46188e-07
1.51595e-07
1.688e-07
1.68861e-07
4.52029e-07
5.06809e-07
1.4462e-07
1.45066e-07
1.68843e-07
1.66469e-07
1.54834e-07
1.65905e-07
1.61234e-07
4.48818e-07
5.00952e-07
1.55452e-07
1.64211e-07
1.63465e-07
4.80668e-07
5.15407e-07
5.76197e-07
1.74021e-07
1.75856e-07
1.96008e-07
1.99303e-07
5.22798e-07
5.71958e-07
1.75554e-07
1.74609e-07
1.99722e-07
1.98546e-07
1.65035e-07
1.98873e-07
1.8e-07
5.16149e-07
5.73167e-07
1.66189e-07
1.96383e-07
1.77122e-07
5.30424e-07
5.92649e-07
6.40876e-07
2.075e-07
2.05032e-07
2.3752e-07
2.19226e-07
5.8199e-07
6.15726e-07
2.09798e-07
2.05776e-07
2.33969e-07
2.29816e-07
1.90632e-07
2.17538e-07
2.46637e-07
5.86878e-07
6.31943e-07
1.82387e-07
2.24852e-07
2.48911e-07
6.72905e-07
6.53567e-07
6.90013e-07
2.43518e-07
2.32626e-07
2.64988e-07
2.93342e-07
6.37124e-07
7.42476e-07
2.39532e-07
2.40287e-07
2.65503e-07
2.7635e-07
2.63571e-07
2.96704e-07
2.90405e-07
6.4862e-07
7.09305e-07
2.80579e-07
2.83367e-07
3.26857e-07
7.19826e-07
7.04024e-07
7.53467e-07
2.78738e-07
3.04649e-07
3.19494e-07
3.11795e-07
7.51559e-07
7.25812e-07
2.79526e-07
2.8844e-07
3.19521e-07
3.13993e-07
2.94377e-07
3.12294e-07
3.04061e-07
7.21869e-07
7.44834e-07
3.28806e-07
3.09495e-07
3.194e-07
7.3397e-07
7.64466e-07
7.87122e-07
3.27567e-07
3.11907e-07
3.46169e-07
3.22066e-07
7.27988e-07
7.53667e-07
3.28168e-07
3.20451e-07
3.48893e-07
3.4557e-07
3.11592e-07
3.16301e-07
3.45994e-07
7.53172e-07
7.82212e-07
3.16568e-07
3.404e-07
3.26802e-07
7.8073e-07
7.97352e-07
8.35176e-07
3.55958e-07
3.35142e-07
3.96384e-07
4.19174e-07
7.76117e-07
8.67732e-07
3.58785e-07
3.57325e-07
3.95412e-07
3.9733e-07
3.57244e-07
4.31902e-07
4.00756e-07
7.95536e-07
8.37052e-07
3.47247e-07
4.00177e-07
4.19229e-07
8.39322e-07
8.47976e-07
8.79466e-07
4.11574e-07
4.43233e-07
4.56482e-07
4.78085e-07
8.80816e-07
8.95492e-07
4.08804e-07
4.10226e-07
4.51779e-07
4.52414e-07
4.18503e-07
4.91641e-07
4.61846e-07
8.4872e-07
8.78583e-07
4.37368e-07
4.50673e-07
4.75751e-07
8.82085e-07
8.88309e-07
9.04829e-07
4.66998e-07
4.82684e-07
4.89397e-07
4.89656e-07
8.99568e-07
8.98435e-07
4.62989e-07
4.64938e-07
4.90855e-07
4.95557e-07
4.70308e-07
4.93129e-07
4.86553e-07
8.87976e-07
9.07508e-07
4.83505e-07
4.94947e-07
4.99628e-07
9.00668e-07
9.11927e-07
9.32854e-07
4.99237e-07
4.92448e-07
5.33686e-07
5.14626e-07
9.02831e-07
9.24302e-07
5.01798e-07
5.05906e-07
5.33901e-07
5.34663e-07
4.93229e-07
5.06963e-07
5.33088e-07
9.14867e-07
9.34068e-07
5.05421e-07
5.35186e-07
5.33598e-07
9.35341e-07
9.42406e-07
9.75285e-07
5.45513e-07
5.32222e-07
5.9334e-07
5.97431e-07
9.37364e-07
9.8098e-07
5.44264e-07
5.45133e-07
5.90395e-07
5.87749e-07
5.48966e-07
6.02181e-07
5.97804e-07
9.42631e-07
9.71042e-07
5.49066e-07
5.84492e-07
5.9956e-07
9.82582e-07
9.86047e-07
1.00638e-06
6.10724e-07
6.15312e-07
6.43419e-07
6.47059e-07
9.90553e-07
1.00538e-06
6.08477e-07
6.03324e-07
6.43702e-07
6.47941e-07
6.13871e-07
6.55169e-07
6.48496e-07
9.81888e-07
1.00901e-06
6.14642e-07
6.48954e-07
6.45961e-07
1.00473e-06
1.01195e-06
1.0262e-06
6.52341e-07
6.52897e-07
6.85246e-07
6.74783e-07
1.01e-06
1.0221e-06
6.5247e-07
6.59248e-07
6.85042e-07
6.79576e-07
6.55265e-07
6.7665e-07
6.70806e-07
1.01462e-06
1.01944e-06
6.52339e-07
6.77902e-07
6.67477e-07
1.0145e-06
1.03316e-06
1.05236e-06
6.94006e-07
6.88838e-07
7.22731e-07
7.32449e-07
1.03048e-06
1.06179e-06
6.93865e-07
6.86195e-07
7.20659e-07
7.25397e-07
6.77744e-07
7.28892e-07
7.29762e-07
1.02475e-06
1.06115e-06
6.76522e-07
7.2409e-07
7.30415e-07
1.06363e-06
1.06051e-06
1.09538e-06
7.36805e-07
7.4367e-07
7.81955e-07
7.82134e-07
1.06957e-06
1.09057e-06
7.35075e-07
7.43517e-07
7.82658e-07
7.90984e-07
7.47343e-07
7.82211e-07
7.92584e-07
1.07443e-06
1.10078e-06
7.4641e-07
7.91205e-07
7.94586e-07
1.10403e-06
1.10434e-06
1.11665e-06
7.96493e-07
7.94039e-07
8.26396e-07
8.15855e-07
1.0977e-06
1.10678e-06
7.96315e-07
8.00449e-07
8.24537e-07
8.18664e-07
8.05301e-07
8.16606e-07
8.24725e-07
1.10493e-06
1.10711e-06
8.07719e-07
8.19678e-07
8.23982e-07
1.11362e-06
1.11955e-06
1.12671e-06
8.31576e-07
8.19977e-07
8.44924e-07
8.46003e-07
1.10958e-06
1.13025e-06
8.29797e-07
8.23764e-07
8.45194e-07
8.39728e-07
8.26496e-07
8.4269e-07
8.33271e-07
1.1104e-06
1.12046e-06
8.24851e-07
8.35375e-07
8.32966e-07
1.10745e-06
1.13352e-06
1.17309e-06
8.52134e-07
8.66575e-07
9.00169e-07
9.14041e-07
1.14654e-06
1.18914e-06
8.53662e-07
8.51232e-07
8.99262e-07
9.00856e-07
8.41332e-07
9.1329e-07
9.06195e-07
1.12756e-06
1.1751e-06
8.42903e-07
8.99482e-07
9.17752e-07
1.19113e-06
1.18342e-06
1.19752e-06
9.17177e-07
9.20093e-07
9.42046e-07
9.31538e-07
1.19227e-06
1.18445e-06
9.15413e-07
9.17755e-07
9.41949e-07
9.49346e-07
9.24904e-07
9.32359e-07
9.45083e-07
1.18828e-06
1.21194e-06
9.33381e-07
9.52754e-07
9.4017e-07
1.20286e-06
1.19954e-06
1.1992e-06
9.45291e-07
9.36049e-07
9.56345e-07
9.4772e-07
1.1864e-06
1.18924e-06
9.45462e-07
9.52114e-07
9.54631e-07
9.53612e-07
9.47515e-07
9.47678e-07
9.58e-07
1.21367e-06
1.19426e-06
9.39661e-07
9.52286e-07
9.441e-07
1.19703e-06
1.20321e-06
1.23217e-06
9.6036e-07
9.50202e-07
9.85945e-07
9.76012e-07
1.19122e-06
1.21004e-06
9.58152e-07
9.55296e-07
9.85479e-07
9.73747e-07
9.6245e-07
9.70754e-07
9.75501e-07
1.19533e-06
1.2154e-06
9.50296e-07
9.71515e-07
9.7261e-07
1.21115e-06
1.24308e-06
1.2707e-06
1.00007e-06
9.9825e-07
1.03292e-06
1.05315e-06
1.22797e-06
1.30504e-06
1.00013e-06
9.8894e-07
1.03293e-06
1.04017e-06
9.84977e-07
1.0542e-06
1.03258e-06
1.22877e-06
1.27953e-06
9.89896e-07
1.04036e-06
1.04425e-06
1.27829e-06
1.27574e-06
1.28012e-06
1.04002e-06
1.05995e-06
1.05237e-06
1.06177e-06
1.31185e-06
1.29923e-06
1.03975e-06
1.04769e-06
1.0518e-06
1.05393e-06
1.04288e-06
1.06442e-06
1.05464e-06
1.28495e-06
1.28355e-06
1.05363e-06
1.0572e-06
1.06414e-06
1.29386e-06
1.28212e-06
1.29142e-06
1.055e-06
1.06018e-06
1.07111e-06
1.05502e-06
1.29864e-06
1.26983e-06
1.05417e-06
1.0556e-06
1.0695e-06
1.06392e-06
1.05587e-06
1.05402e-06
1.0609e-06
1.28472e-06
1.28525e-06
1.06511e-06
1.0667e-06
1.06418e-06
1.28158e-06
1.29698e-06
1.30567e-06
1.07661e-06
1.05542e-06
1.0868e-06
1.06649e-06
1.27009e-06
1.26875e-06
1.07621e-06
1.06967e-06
1.08902e-06
1.09481e-06
1.06401e-06
1.06416e-06
1.08286e-06
1.29e-06
1.31143e-06
1.06443e-06
1.08915e-06
1.07523e-06
1.2958e-06
1.3086e-06
1.32213e-06
1.08941e-06
1.07519e-06
1.10578e-06
1.11789e-06
1.27664e-06
1.33416e-06
1.09154e-06
1.09951e-06
1.1054e-06
1.1067e-06
1.09166e-06
1.1208e-06
1.11753e-06
1.31658e-06
1.32483e-06
1.08415e-06
1.108e-06
1.11723e-06
1.33769e-06
1.33124e-06
1.36032e-06
1.11752e-06
1.13011e-06
1.14783e-06
1.15203e-06
1.34711e-06
1.37319e-06
1.11586e-06
1.11128e-06
1.14558e-06
1.13779e-06
1.12578e-06
1.15206e-06
1.14315e-06
1.32936e-06
1.34879e-06
1.12599e-06
1.13779e-06
1.14246e-06
1.35859e-06
1.36461e-06
1.36245e-06
1.15213e-06
1.15487e-06
1.15602e-06
1.15819e-06
1.37637e-06
1.37087e-06
1.15041e-06
1.14601e-06
1.15539e-06
1.15842e-06
1.14565e-06
1.1565e-06
1.1506e-06
1.35483e-06
1.36416e-06
1.14497e-06
1.15699e-06
1.15061e-06
1.35719e-06
1.3638e-06
1.37172e-06
1.15728e-06
1.15937e-06
1.16602e-06
1.16473e-06
1.37204e-06
1.37046e-06
1.15671e-06
1.16021e-06
1.16572e-06
1.16993e-06
1.15291e-06
1.16323e-06
1.16786e-06
1.36724e-06
1.37839e-06
1.15325e-06
1.17037e-06
1.16887e-06
1.37415e-06
1.37843e-06
1.3952e-06
1.17216e-06
1.16725e-06
1.18918e-06
1.18157e-06
1.37347e-06
1.38294e-06
1.1723e-06
1.17546e-06
1.19104e-06
1.19205e-06
1.17484e-06
1.18173e-06
1.19056e-06
1.38437e-06
1.39814e-06
1.17568e-06
1.19171e-06
1.19162e-06
1.39565e-06
1.39857e-06
1.40121e-06
1.19237e-06
1.18837e-06
1.1993e-06
1.20736e-06
1.38858e-06
1.41093e-06
1.19448e-06
1.19542e-06
1.20098e-06
1.20053e-06
1.19363e-06
1.2076e-06
1.20027e-06
1.40101e-06
1.39732e-06
1.19464e-06
1.19988e-06
1.20063e-06
1.40114e-06
1.40407e-06
1.416e-06
1.20266e-06
1.21217e-06
1.21839e-06
1.2191e-06
1.4165e-06
1.42098e-06
1.2029e-06
1.20185e-06
1.21287e-06
1.20859e-06
1.20344e-06
1.21899e-06
1.21917e-06
1.39863e-06
1.40661e-06
1.2028e-06
1.20862e-06
1.21522e-06
1.41773e-06
1.42124e-06
1.42836e-06
1.22291e-06
1.21947e-06
1.22955e-06
1.22146e-06
1.42199e-06
1.4129e-06
1.21832e-06
1.2146e-06
1.23099e-06
1.23489e-06
1.22352e-06
1.22139e-06
1.22968e-06
1.41401e-06
1.43536e-06
1.22053e-06
1.23527e-06
1.23127e-06
1.42873e-06
1.43054e-06
1.43453e-06
1.23092e-06
1.22317e-06
1.23727e-06
1.23649e-06
1.41477e-06
1.43225e-06
1.23328e-06
1.23834e-06
1.23931e-06
1.24293e-06
1.23099e-06
1.2358e-06
1.23656e-06
1.43879e-06
1.43866e-06
1.23309e-06
1.24244e-06
1.2382e-06
1.43299e-06
1.43914e-06
1.45319e-06
1.24121e-06
1.24279e-06
1.25626e-06
1.25978e-06
1.44041e-06
1.4612e-06
1.2427e-06
1.24407e-06
1.25491e-06
1.25087e-06
1.23997e-06
1.25918e-06
1.25573e-06
1.44068e-06
1.44784e-06
1.24117e-06
1.24992e-06
1.25414e-06
1.45286e-06
1.45671e-06
1.45729e-06
1.25959e-06
1.2632e-06
1.26413e-06
1.26566e-06
1.46521e-06
1.46159e-06
1.25759e-06
1.25526e-06
1.26086e-06
1.26455e-06
1.26023e-06
1.26673e-06
1.26673e-06
1.45265e-06
1.46108e-06
1.25814e-06
1.26551e-06
1.26488e-06
1.46176e-06
1.45918e-06
1.46554e-06
1.26513e-06
1.2654e-06
1.26954e-06
1.26511e-06
1.46243e-06
1.45697e-06
1.26186e-06
1.26573e-06
1.27188e-06
1.26853e-06
1.26743e-06
1.26646e-06
1.26921e-06
1.46318e-06
1.46303e-06
1.26581e-06
1.26934e-06
1.26857e-06
1.46185e-06
1.46985e-06
1.47606e-06
1.27218e-06
1.26606e-06
1.27962e-06
1.27903e-06
1.46012e-06
1.47518e-06
1.27539e-06
1.27051e-06
1.27939e-06
1.28166e-06
1.27034e-06
1.28009e-06
1.28055e-06
1.46581e-06
1.47806e-06
1.27022e-06
1.27947e-06
1.2802e-06
1.47758e-06
1.47843e-06
1.48411e-06
1.28125e-06
1.28342e-06
1.28913e-06
1.29102e-06
1.48044e-06
1.48781e-06
1.28051e-06
1.28523e-06
1.28827e-06
1.28927e-06
1.28405e-06
1.28976e-06
1.2895e-06
1.48274e-06
1.48504e-06
1.28407e-06
1.29025e-06
1.29082e-06
1.48636e-06
1.4878e-06
1.48977e-06
1.2921e-06
1.29336e-06
1.2959e-06
1.29649e-06
1.49104e-06
1.49358e-06
1.29057e-06
1.28926e-06
1.29283e-06
1.29001e-06
1.29047e-06
1.29558e-06
1.29232e-06
1.48612e-06
1.48259e-06
1.29127e-06
1.29089e-06
1.29148e-06
1.48481e-06
1.49129e-06
1.49411e-06
1.29589e-06
1.2963e-06
1.29634e-06
1.29518e-06
1.49475e-06
1.48803e-06
1.29317e-06
1.29124e-06
1.29949e-06
1.30254e-06
1.2929e-06
1.29521e-06
1.29776e-06
1.4859e-06
1.50072e-06
1.29182e-06
1.30089e-06
1.29803e-06
1.49524e-06
1.49788e-06
1.50257e-06
1.29783e-06
1.29549e-06
1.30526e-06
1.30489e-06
1.49011e-06
1.5033e-06
1.30246e-06
1.30613e-06
1.30597e-06
1.30817e-06
1.30074e-06
1.30538e-06
1.30879e-06
1.50554e-06
1.50601e-06
1.30218e-06
1.3086e-06
1.30915e-06
1.50831e-06
1.50433e-06
1.50544e-06
1.3065e-06
1.30886e-06
1.30905e-06
1.31367e-06
1.50853e-06
1.51418e-06
1.30598e-06
1.30749e-06
1.30687e-06
1.30675e-06
1.3098e-06
1.31373e-06
1.3094e-06
1.507e-06
1.50229e-06
1.30923e-06
1.30723e-06
1.308e-06
1.50439e-06
1.50897e-06
1.51497e-06
1.3109e-06
1.31383e-06
1.31543e-06
1.31338e-06
1.51594e-06
1.51136e-06
1.30889e-06
1.30721e-06
1.31521e-06
1.31349e-06
1.30905e-06
1.3125e-06
1.30954e-06
1.50483e-06
1.51173e-06
1.30776e-06
1.31191e-06
1.30882e-06
1.50635e-06
1.51673e-06
1.5113e-06
1.31546e-06
1.31284e-06
1.31361e-06
1.31024e-06
1.51242e-06
1.5053e-06
1.31547e-06
1.31503e-06
1.31418e-06
1.31554e-06
1.31122e-06
1.3106e-06
1.31716e-06
1.5147e-06
1.51477e-06
1.31088e-06
1.31608e-06
1.31814e-06
1.51851e-06
1.51267e-06
1.51716e-06
1.31329e-06
1.31007e-06
1.31556e-06
1.31408e-06
1.50669e-06
1.51375e-06
1.31393e-06
1.31549e-06
1.31607e-06
1.31833e-06
1.31856e-06
1.31521e-06
1.31969e-06
1.51643e-06
1.51982e-06
1.31974e-06
1.3195e-06
1.32026e-06
1.52303e-06
1.52076e-06
1.52213e-06
1.31841e-06
1.31771e-06
1.32132e-06
1.32571e-06
1.51846e-06
1.52964e-06
1.31836e-06
1.31953e-06
1.32024e-06
1.31939e-06
1.31937e-06
1.32513e-06
1.31707e-06
1.52221e-06
1.51917e-06
1.31945e-06
1.31827e-06
1.31538e-06
1.51385e-06
1.52351e-06
1.5251e-06
1.32126e-06
1.32723e-06
1.32263e-06
1.32746e-06
1.53381e-06
1.53606e-06
1.32012e-06
1.31878e-06
1.32169e-06
1.31918e-06
1.31701e-06
1.32703e-06
1.32115e-06
1.52043e-06
1.52143e-06
1.31519e-06
1.31844e-06
1.31925e-06
1.52269e-06
1.52819e-06
1.52532e-06
1.32349e-06
1.3262e-06
1.3221e-06
1.31366e-06
1.53687e-06
1.50814e-06
1.32278e-06
1.32088e-06
1.32208e-06
1.32295e-06
1.3231e-06
1.31314e-06
1.32283e-06
1.52471e-06
1.52749e-06
1.32216e-06
1.32348e-06
1.3238e-06
1.52828e-06
1.52612e-06
1.51858e-06
1.31978e-06
1.31078e-06
1.31575e-06
1.31049e-06
1.50814e-06
1.50823e-06
1.32032e-06
1.32286e-06
1.31683e-06
1.32092e-06
1.32105e-06
1.3108e-06
1.31792e-06
1.52919e-06
1.52667e-06
1.32293e-06
1.32145e-06
1.31947e-06
1.52335e-06
1.52047e-06
1.527e-06
1.31575e-06
1.31341e-06
1.32033e-06
1.32699e-06
1.51562e-06
1.53969e-06
1.31673e-06
1.32024e-06
1.31943e-06
1.31701e-06
1.3178e-06
1.32724e-06
1.31832e-06
1.52815e-06
1.5213e-06
1.31883e-06
1.31667e-06
1.31674e-06
1.52293e-06
1.53044e-06
1.53079e-06
1.32234e-06
1.3284e-06
1.32288e-06
1.32682e-06
1.54353e-06
1.53963e-06
1.32064e-06
1.31595e-06
1.32057e-06
1.31493e-06
1.31855e-06
1.32643e-06
1.32044e-06
1.52225e-06
1.51866e-06
1.31609e-06
1.31422e-06
1.31658e-06
1.52586e-06
1.53189e-06
1.52148e-06
1.32157e-06
1.32454e-06
1.31405e-06
1.31334e-06
1.54034e-06
1.51989e-06
1.31933e-06
1.31539e-06
1.31491e-06
1.32166e-06
1.32091e-06
1.31419e-06
1.31983e-06
1.52203e-06
1.53398e-06
1.31856e-06
1.3224e-06
1.32052e-06
1.53178e-06
1.52255e-06
1.51962e-06
1.31217e-06
1.30966e-06
1.30947e-06
1.30308e-06
1.51997e-06
1.50615e-06
1.31399e-06
1.32226e-06
1.31223e-06
1.31912e-06
1.31795e-06
1.30262e-06
1.30966e-06
1.53766e-06
1.53269e-06
1.32003e-06
1.31928e-06
1.31334e-06
1.51987e-06
1.52174e-06
1.5216e-06
1.30894e-06
1.3023e-06
1.30851e-06
1.30349e-06
1.50738e-06
1.51353e-06
1.31161e-06
1.31493e-06
1.30773e-06
1.30156e-06
1.307e-06
1.30265e-06
1.30311e-06
1.53283e-06
1.50798e-06
1.30997e-06
1.30098e-06
1.30248e-06
1.51086e-06
1.52419e-06
1.5299e-06
1.30912e-06
1.3078e-06
1.31231e-06
1.31844e-06
1.52006e-06
1.54295e-06
1.3075e-06
1.3005e-06
1.30933e-06
1.30526e-06
1.30333e-06
1.31914e-06
1.31411e-06
1.5089e-06
1.52028e-06
1.30227e-06
1.305e-06
1.30995e-06
1.5311e-06
1.53184e-06
1.50621e-06
1.31215e-06
1.3184e-06
1.29904e-06
1.3016e-06
1.54587e-06
1.51171e-06
1.30937e-06
1.30966e-06
1.30067e-06
1.30978e-06
1.31611e-06
1.30362e-06
1.31121e-06
1.52813e-06
1.52906e-06
1.31376e-06
1.31167e-06
1.31234e-06
1.52779e-06
1.50462e-06
1.49407e-06
1.29155e-06
1.29106e-06
1.28512e-06
1.2821e-06
1.50783e-06
1.48608e-06
1.29358e-06
1.30465e-06
1.28603e-06
1.28394e-06
1.30145e-06
1.28131e-06
1.28149e-06
1.52813e-06
1.4914e-06
1.30535e-06
1.28239e-06
1.28146e-06
1.48966e-06
1.50158e-06
1.54559e-06
1.28701e-06
1.28407e-06
1.3094e-06
1.30881e-06
1.49265e-06
1.54436e-06
1.28724e-06
1.28332e-06
1.30841e-06
1.29772e-06
1.28135e-06
1.30754e-06
1.29749e-06
1.49251e-06
1.52195e-06
1.28055e-06
1.29406e-06
1.29371e-06
1.52198e-06
1.55061e-06
1.51761e-06
1.3112e-06
1.31061e-06
1.29887e-06
1.29682e-06
1.54974e-06
1.5155e-06
1.311e-06
1.30605e-06
1.30174e-06
1.30765e-06
1.30436e-06
1.29941e-06
1.30473e-06
1.53467e-06
1.54005e-06
1.30273e-06
1.30895e-06
1.30647e-06
1.53314e-06
1.51134e-06
1.4465e-06
1.28357e-06
1.28144e-06
1.24859e-06
1.25047e-06
1.50916e-06
1.45047e-06
1.28673e-06
1.30059e-06
1.24799e-06
1.25399e-06
1.29789e-06
1.25163e-06
1.25797e-06
1.53761e-06
1.45948e-06
1.30149e-06
1.25699e-06
1.25942e-06
1.46735e-06
1.44713e-06
1.48411e-06
1.24652e-06
1.24939e-06
1.25901e-06
1.26647e-06
1.45148e-06
1.49773e-06
1.24504e-06
1.24686e-06
1.25522e-06
1.24838e-06
1.25145e-06
1.26324e-06
1.25202e-06
1.45773e-06
1.46333e-06
1.25127e-06
1.24764e-06
1.25001e-06
1.4692e-06
1.50481e-06
1.55591e-06
1.278e-06
1.28412e-06
1.3027e-06
1.30114e-06
1.51823e-06
1.55386e-06
1.2742e-06
1.26027e-06
1.30287e-06
1.29674e-06
1.26165e-06
1.29901e-06
1.29222e-06
1.4788e-06
1.54099e-06
1.25835e-06
1.29486e-06
1.29205e-06
1.5343e-06
1.55774e-06
1.46885e-06
1.3022e-06
1.2992e-06
1.24077e-06
1.22978e-06
1.55399e-06
1.4429e-06
1.30285e-06
1.29816e-06
1.24597e-06
1.25428e-06
1.29312e-06
1.23134e-06
1.24741e-06
1.5452e-06
1.48715e-06
1.29351e-06
1.25565e-06
1.25203e-06
1.4774e-06
1.43159e-06
1.18943e-06
1.18083e-06
1.40953e-06
1.19308e-06
1.20222e-06
7.51444e-07
7.63314e-07
7.61531e-07
1.197e-06
1.45065e-06
1.20106e-06
1.52899e-09
2.41421e-09
9.06105e-10
1.04104e-09
1.63066e-09
3.76042e-09
2.62918e-09
8.48252e-10
1.51412e-09
4.70108e-09
1.12447e-09
1.14105e-08
5.18133e-09
7.43775e-09
2.12346e-08
7.41391e-09
2.26427e-07
5.97733e-09
3.50564e-07
1.50124e-06
3.02296e-06
8.76737e-09
1.50787e-07
7.28872e-09
2.39958e-07
1.5465e-09
1.7131e-09
1.88063e-09
1.59452e-09
1.53074e-09
1.69174e-09
1.85968e-09
1.62121e-09
7.30542e-08
1.28766e-09
3.36601e-09
1.63936e-09
5.24121e-08
1.27671e-09
1.80798e-06
3.37401e-06
1.50177e-09
2.97207e-09
9.28288e-08
5.77782e-09
1.51286e-09
2.94214e-09
6.9407e-08
2.16505e-07
2.29582e-07
4.78885e-09
1.85599e-07
1.99859e-07
1.68665e-08
6.14506e-07
1.22496e-08
8.84942e-07
6.8544e-06
9.83008e-06
1.85793e-08
4.3781e-07
1.31668e-08
6.41627e-07
1.51671e-09
1.67394e-09
1.83161e-09
1.53865e-09
1.47435e-09
1.62764e-09