/*--------------------------------*- C++ -*----------------------------------*\
| =========                 |                                                 |
| \\      /  F ield         | OpenFOAM: The Open Source CFD Toolbox           |
|  \\    /   O peration     | Version:  v2012                                 |
|   \\  /    A nd           | Website:  www.openfoam.com                      |
|    \\/     M anipulation  |                                                 |
\*---------------------------------------------------------------------------*/
FoamFile
{
    version     2.0;
    format      ascii;
    class       volScalarField;
    location    "562.5";
    object      k;
}
// * * * * * * * * * * * * * * * * * * * * * * * * * * * * * * * * * * * * * //

dimensions      [0 2 -2 0 0 0 0];


internalField   nonuniform List<scalar> 
171728
(
2.22768e-07
2.47767e-07
3.51264e-07
3.62516e-07
2.20062e-07
2.36524e-07
3.38211e-07
3.53651e-07
2.16932e-07
2.25617e-07
3.29345e-07
3.22369e-07
2.1364e-07
2.15779e-07
3.25781e-07
3.16453e-07
2.10551e-07
2.06113e-07
3.27253e-07
3.13111e-07
2.07482e-07
1.97785e-07
3.42644e-07
3.01555e-07
2.04611e-07
1.90768e-07
3.74617e-07
2.76343e-07
2.01846e-07
1.85589e-07
4.19294e-07
2.60536e-07
1.99175e-07
1.8141e-07
4.49329e-07
2.4976e-07
1.96496e-07
1.77938e-07
4.45868e-07
2.42171e-07
1.93914e-07
1.76004e-07
3.70536e-07
2.4105e-07
1.91372e-07
1.7585e-07
3.18195e-07
2.51251e-07
1.89044e-07
1.76677e-07
2.97217e-07
2.64671e-07
1.86982e-07
1.7759e-07
2.6966e-07
2.6578e-07
1.852e-07
1.78627e-07
2.57739e-07
2.38069e-07
1.83575e-07
1.82117e-07
2.57919e-07
2.20625e-07
1.82168e-07
1.89811e-07
2.47434e-07
2.26062e-07
1.80945e-07
2.08135e-07
2.41289e-07
2.19556e-07
1.79755e-07
2.32003e-07
2.5502e-07
2.50217e-07
1.78874e-07
2.79198e-07
2.95016e-07
3.11392e-07
1.7843e-07
3.72088e-07
3.73104e-07
4.36139e-07
1.78332e-07
4.50449e-07
4.92469e-07
6.65929e-07
1.78907e-07
6.76759e-07
6.99011e-07
1.05619e-06
1.80903e-07
7.68589e-07
1.00243e-06
1.81797e-06
1.83856e-07
1.25042e-06
1.22588e-06
2.31564e-06
1.87872e-07
1.68285e-06
1.89211e-06
4.38733e-06
1.96054e-07
2.04751e-06
1.97134e-06
5.39028e-06
2.0313e-07
2.8869e-06
2.84743e-06
7.84304e-06
2.16985e-07
3.29103e-06
3.70202e-06
9.75511e-06
2.52886e-07
4.40185e-06
4.34325e-06
1.21445e-05
2.80992e-07
5.43917e-06
5.3855e-06
1.71078e-05
3.41833e-07
6.52498e-06
6.46077e-06
1.5808e-05
4.06183e-07
7.68278e-06
7.5954e-06
1.76398e-05
4.9171e-07
8.26258e-06
8.78584e-06
2.35651e-05
5.78632e-07
1.22554e-05
1.14471e-05
2.4845e-05
8.34893e-07
1.18712e-05
1.18844e-05
2.41944e-05
8.9422e-07
1.15656e-05
1.32765e-05
2.61656e-05
1.17189e-06
1.80856e-05
1.54763e-05
2.84861e-05
1.64893e-06
2.00875e-05
1.76628e-05
2.99079e-05
1.82983e-06
1.86154e-05
1.91993e-05
3.01826e-05
2.22473e-06
1.86862e-05
2.04443e-05
3.15719e-05
2.91807e-06
2.38568e-05
2.2511e-05
3.35737e-05
3.6837e-06
2.54808e-05
2.51966e-05
3.41619e-05
4.28051e-06
2.56508e-05
2.56479e-05
3.41617e-05
4.66481e-06
2.78505e-05
2.76598e-05
3.65255e-05
6.12717e-06
3.02747e-05
3.08771e-05
3.83904e-05
7.56829e-06
3.09499e-05
3.12762e-05
3.8379e-05
7.84835e-06
3.16991e-05
3.11355e-05
3.76392e-05
8.70014e-06
3.54875e-05
3.47893e-05
4.19041e-05
1.17975e-05
3.58681e-05
3.70331e-05
4.22565e-05
1.22877e-05
3.5506e-05
3.62432e-05
4.13613e-05
1.23244e-05
3.6587e-05
3.64108e-05
4.19626e-05
1.59328e-05
4.1566e-05
4.05721e-05
4.54294e-05
1.77142e-05
4.20257e-05
4.12614e-05
4.58143e-05
1.794e-05
4.03212e-05
4.1136e-05
4.49544e-05
1.98242e-05
4.01347e-05
4.21059e-05
4.55998e-05
2.0481e-05
4.37419e-05
4.29952e-05
4.76867e-05
2.2948e-05
4.57739e-05
4.47014e-05
4.85266e-05
2.54539e-05
4.57891e-05
4.54158e-05
4.82898e-05
2.58016e-05
4.5672e-05
4.61705e-05
4.91677e-05
2.71915e-05
4.67227e-05
4.74919e-05
5.023e-05
2.89431e-05
4.81912e-05
4.76367e-05
5.03224e-05
2.96879e-05
4.88016e-05
4.78656e-05
5.12873e-05
3.13169e-05
4.8758e-05
4.97495e-05
5.17644e-05
3.22495e-05
4.95126e-05
5.0063e-05
5.18623e-05
3.33191e-05
5.11828e-05
5.03871e-05
5.30423e-05
3.47221e-05
5.15713e-05
5.14854e-05
5.34215e-05
3.5583e-05
5.14285e-05
5.1612e-05
5.33605e-05
3.64548e-05
5.22926e-05
5.23326e-05
5.4309e-05
3.75247e-05
5.3095e-05
5.30588e-05
5.47416e-05
3.85883e-05
5.3486e-05
5.30757e-05
5.46573e-05
3.92097e-05
5.3413e-05
5.38632e-05
5.52908e-05
4.01136e-05
5.42605e-05
5.44815e-05
5.60214e-05
4.08643e-05
5.4996e-05
5.44501e-05
5.5861e-05
4.1871e-05
5.49659e-05
5.48768e-05
5.59938e-05
4.22823e-05
5.48397e-05
5.53102e-05
5.6788e-05
4.27785e-05
5.53708e-05
5.5745e-05
5.70748e-05
4.35433e-05
5.63715e-05
5.57585e-05
5.66573e-05
4.41539e-05
5.66316e-05
5.5966e-05
5.72961e-05
4.47768e-05
5.57408e-05
5.65532e-05
5.76681e-05
4.47362e-05
5.56774e-05
5.66322e-05
5.74861e-05
4.50392e-05
5.72871e-05
5.64095e-05
5.75091e-05
4.59355e-05
5.75951e-05
5.64144e-05
5.7924e-05
4.59621e-05
5.68103e-05
5.74168e-05
5.82871e-05
4.59245e-05
5.6084e-05
5.74622e-05
5.7782e-05
4.62241e-05
5.65212e-05
5.64922e-05
5.74193e-05
4.66322e-05
5.80389e-05
5.70476e-05
5.8751e-05
4.65567e-05
5.70039e-05
5.75213e-05
5.86245e-05
4.62046e-05
5.59786e-05
5.6124e-05
5.6821e-05
4.73462e-05
5.82217e-05
5.73515e-05
5.87113e-05
4.76098e-05
5.77832e-05
5.83617e-05
5.94681e-05
4.53306e-05
5.47537e-05
5.5177e-05
5.61668e-05
4.52971e-05
5.64131e-05
5.48431e-05
5.63327e-05
4.84965e-05
5.89817e-05
5.86354e-05
5.99867e-05
4.77897e-05
5.48077e-05
5.68358e-05
5.79856e-05
3.62498e-07
3.06154e-07
3.2334e-07
3.51704e-07
3.11081e-07
3.00673e-07
2.22023e-07
2.13157e-07
2.33969e-07
2.39708e-07
3.01612e-07
3.37829e-07
3.68113e-07
3.28127e-07
3.98267e-07
3.65805e-07
3.6119e-07
3.38199e-07
3.73131e-07
3.1564e-07
2.77535e-07
3.0915e-07
3.50649e-07
3.31995e-07
2.87201e-07
7.89501e-07
2.81569e-07
5.11493e-07
3.37827e-07
2.39476e-07
3.31312e-07
3.65687e-07
3.48579e-07
1.06523e-06
3.41221e-07
9.49951e-07
3.58636e-07
3.37155e-07
3.19969e-07
2.59425e-07
3.0606e-07
2.33276e-07
2.95647e-07
3.30728e-07
3.13492e-07
2.79422e-07
4.30905e-07
2.73239e-07
2.83458e-07
3.28239e-07
2.28125e-07
3.19619e-07
3.46145e-07
3.22026e-07
8.62127e-07
3.31247e-07
6.08613e-07
3.27903e-07
3.18906e-07
3.03804e-07
2.30072e-07
2.91917e-07
2.2416e-07
2.80569e-07
3.12338e-07
2.96836e-07
2.71136e-07
2.61091e-07
2.64827e-07
2.32309e-07
3.16857e-07
2.18245e-07
3.07623e-07
3.20411e-07
3.04326e-07
5.57752e-07
3.26008e-07
5.10706e-07
3.17647e-07
3.0286e-07
2.89231e-07
2.22614e-07
2.76978e-07
2.19283e-07
2.66825e-07
2.95794e-07
2.8185e-07
2.62707e-07
2.2879e-07
2.56323e-07
2.22883e-07
3.04352e-07
2.08402e-07
2.95282e-07
3.03547e-07
2.92728e-07
5.10978e-07
3.26176e-07
5.24245e-07
3.14939e-07
2.88389e-07
2.75723e-07
2.18442e-07
2.63677e-07
2.15778e-07
2.55209e-07
2.80924e-07
2.68243e-07
2.54286e-07
2.21527e-07
2.48107e-07
2.17772e-07
2.92549e-07
1.99716e-07
2.84958e-07
2.91306e-07
2.83883e-07
5.25079e-07
3.37559e-07
4.97459e-07
3.06071e-07
2.74979e-07
2.63483e-07
2.14839e-07
2.52595e-07
2.12232e-07
2.45621e-07
2.67428e-07
2.56135e-07
2.46121e-07
2.1663e-07
2.40409e-07
2.13462e-07
2.82648e-07
1.9235e-07
2.75884e-07
2.82834e-07
2.80549e-07
4.66755e-07
3.64837e-07
3.71761e-07
2.81111e-07
2.62869e-07
2.53278e-07
2.11432e-07
2.43491e-07
2.09499e-07
2.36977e-07
2.55443e-07
2.45333e-07
2.38652e-07
2.12546e-07
2.34108e-07
2.09939e-07
2.73746e-07
1.86725e-07
2.68275e-07
2.8043e-07
2.82418e-07
3.4249e-07
4.07925e-07
2.74943e-07
2.61915e-07
2.52822e-07
2.45281e-07
2.09109e-07
2.34867e-07
2.08913e-07
2.28488e-07
2.44755e-07
2.3586e-07
2.32957e-07
2.09156e-07
2.30241e-07
2.07108e-07
2.66702e-07
1.82369e-07
2.62629e-07
2.82288e-07
2.83972e-07
2.60125e-07
4.45136e-07
2.34462e-07
2.50493e-07
2.44938e-07
2.37746e-07
2.08918e-07
2.26225e-07
2.08787e-07
2.20247e-07
2.35445e-07
2.26765e-07
2.29489e-07
2.06549e-07
2.27661e-07
2.04945e-07
2.61561e-07
1.78653e-07
2.58587e-07
2.83406e-07
2.81845e-07
2.30735e-07
4.50791e-07
2.27565e-07
2.42598e-07
2.37358e-07
2.29956e-07
2.08719e-07
2.18667e-07
2.08607e-07
2.14658e-07
2.2641e-07
2.18138e-07
2.27065e-07
2.04374e-07
2.24801e-07
2.02162e-07
2.57443e-07
1.7629e-07
2.54308e-07
2.80987e-07
2.59429e-07
2.27585e-07
3.88368e-07
2.31751e-07
2.40631e-07
2.29632e-07
2.23321e-07
2.086e-07
2.13501e-07
2.07844e-07
2.10949e-07
2.17903e-07
2.11078e-07
2.24024e-07
2.01377e-07
2.21855e-07
1.99433e-07
2.53398e-07
1.75777e-07
2.5048e-07
2.57562e-07
2.42927e-07
2.39777e-07
3.27318e-07
2.90456e-07
2.48743e-07
2.2311e-07
2.17571e-07
2.07374e-07
2.10756e-07
2.06365e-07
2.10567e-07
2.10988e-07
2.05933e-07
2.21073e-07
1.99092e-07
2.19532e-07
1.98687e-07
2.49331e-07
1.76422e-07
2.45731e-07
2.42304e-07
2.32301e-07
3.12165e-07
3.02676e-07
3.74867e-07
2.63408e-07
2.17492e-07
2.12771e-07
2.05707e-07
2.10566e-07
2.05024e-07
2.09401e-07
2.0602e-07
2.01973e-07
2.19277e-07
1.98696e-07
2.19167e-07
1.99249e-07
2.44736e-07
1.77288e-07
2.40864e-07
2.31658e-07
2.22633e-07
3.90553e-07
2.76219e-07
4.1208e-07
2.66149e-07
2.12932e-07
2.10279e-07
2.05035e-07
2.09135e-07
2.05698e-07
2.07569e-07
2.02223e-07
1.98975e-07
2.19299e-07
1.99809e-07
2.20778e-07
2.02117e-07
2.39487e-07
1.78345e-07
2.36093e-07
2.22419e-07
2.16476e-07
4.12578e-07
2.59e-07
3.78739e-07
2.39679e-07
2.1092e-07
2.11257e-07
2.06011e-07
2.07616e-07
2.08025e-07
2.0929e-07
1.99605e-07
1.98928e-07
2.21637e-07
2.02902e-07
2.25694e-07
2.06567e-07
2.3529e-07
1.80914e-07
2.31603e-07
2.16892e-07
2.17417e-07
3.52361e-07
2.57781e-07
2.89317e-07
2.20841e-07
2.12624e-07
2.17484e-07
2.09031e-07
2.11081e-07
2.15385e-07
2.17724e-07
2.00512e-07
2.02958e-07
2.27548e-07
2.08414e-07
2.35631e-07
2.14768e-07
2.2887e-07
1.87134e-07
2.24903e-07
2.18999e-07
2.19763e-07
2.74008e-07
2.4962e-07
2.49545e-07
2.21989e-07
2.21156e-07
2.31939e-07
2.19244e-07
2.21592e-07
2.3171e-07
2.37901e-07
2.0606e-07
2.21186e-07
2.38764e-07
2.17793e-07
2.50496e-07
2.30052e-07
2.25465e-07
2.02838e-07
2.22581e-07
2.21666e-07
2.28928e-07
2.43144e-07
2.40937e-07
2.26301e-07
2.18441e-07
2.38233e-07
2.62463e-07
2.37249e-07
2.4468e-07
2.57192e-07
2.6651e-07
2.27324e-07
2.4877e-07
2.56281e-07
2.37327e-07
2.78976e-07
2.57684e-07
2.22477e-07
2.24154e-07
2.31761e-07
2.35812e-07
2.54852e-07
2.22964e-07
2.48289e-07
2.2672e-07
2.3564e-07
2.74289e-07
3.22536e-07
2.65238e-07
2.73894e-07
2.99558e-07
3.16167e-07
2.58831e-07
3.11928e-07
2.86992e-07
2.65421e-07
3.24483e-07
3.01619e-07
2.42889e-07
2.7153e-07
2.74891e-07
2.63576e-07
3.064e-07
2.32487e-07
2.81671e-07
2.52654e-07
2.95379e-07
3.44391e-07
4.3062e-07
3.12722e-07
3.24658e-07
3.67756e-07
3.94751e-07
3.32809e-07
4.35557e-07
3.38848e-07
3.15281e-07
3.91785e-07
3.7027e-07
2.85525e-07
3.46482e-07
3.34808e-07
3.26768e-07
4.24186e-07
2.6305e-07
3.44656e-07
3.12482e-07
3.92512e-07
4.68534e-07
6.34138e-07
3.90145e-07
4.19901e-07
4.66648e-07
4.58626e-07
4.85369e-07
5.68857e-07
4.16309e-07
3.95474e-07
4.94888e-07
4.73086e-07
3.63791e-07
4.12499e-07
4.46089e-07
4.5625e-07
6.38647e-07
3.43361e-07
4.63292e-07
4.18685e-07
6.22432e-07
6.94008e-07
9.84527e-07
5.04548e-07
4.96166e-07
6.26564e-07
7.00976e-07
6.32426e-07
1.19971e-06
5.29539e-07
5.07632e-07
6.47679e-07
6.51193e-07
4.75783e-07
6.5652e-07
6.21063e-07
7.02674e-07
9.90892e-07
4.48989e-07
6.66247e-07
5.6469e-07
9.53846e-07
1.07638e-06
1.55079e-06
6.71705e-07
7.23303e-07
8.61802e-07
7.45084e-07
1.22638e-06
1.08407e-06
6.88799e-07
6.77294e-07
8.68242e-07
8.70768e-07
6.6377e-07
7.07692e-07
8.82465e-07
1.09412e-06
1.52251e-06
6.06267e-07
8.92302e-07
8.15319e-07
1.6307e-06
1.69453e-06
2.42186e-06
9.33258e-07
7.98084e-07
1.14256e-06
1.18675e-06
1.16921e-06
2.92448e-06
9.33415e-07
9.68989e-07
1.14193e-06
1.12077e-06
9.71171e-07
1.13701e-06
1.1053e-06
1.70951e-06
2.41562e-06
8.94689e-07
1.15824e-06
1.02071e-06
2.20876e-06
2.61014e-06
3.66424e-06
1.2586e-06
1.29453e-06
1.55098e-06
1.63648e-06
3.23672e-06
4.05709e-06
1.24393e-06
1.18508e-06
1.53374e-06
1.69174e-06
1.14894e-06
1.61875e-06
1.70267e-06
2.53752e-06
4.2822e-06
1.07421e-06
1.79436e-06
1.57104e-06
3.86358e-06
3.95939e-06
5.34189e-06
1.64055e-06
1.69278e-06
2.17504e-06
1.88831e-06
4.28192e-06
4.75286e-06
1.62316e-06
1.80979e-06
2.07797e-06
1.93798e-06
1.8792e-06
1.83669e-06
2.04872e-06
4.64563e-06
4.79791e-06
1.72041e-06
1.95674e-06
1.92608e-06
5.29221e-06
5.77331e-06
7.28747e-06
2.33959e-06
2.11046e-06
2.56066e-06
2.76983e-06
5.06003e-06
8.20491e-06
2.23655e-06
2.00353e-06
2.55247e-06
2.58239e-06
2.08784e-06
2.76206e-06
2.60169e-06
4.83612e-06
7.01441e-06
2.04877e-06
2.49624e-06
2.54524e-06
7.1768e-06
7.52619e-06
9.24344e-06
2.71032e-06
2.97888e-06
3.39085e-06
3.35395e-06
8.57971e-06
8.8771e-06
2.70542e-06
2.85713e-06
3.33081e-06
3.49326e-06
2.86138e-06
3.13116e-06
3.4476e-06
7.82931e-06
1.03059e-05
2.78435e-06
3.60936e-06
3.34684e-06
9.49681e-06
9.8442e-06
1.20174e-05
3.53814e-06
3.40345e-06
4.1963e-06
3.90841e-06
9.05068e-06
1.16923e-05
3.48215e-06
3.56977e-06
4.21653e-06
4.06053e-06
3.52317e-06
4.11497e-06
3.89807e-06
1.05999e-05
1.13999e-05
3.41902e-06
4.02433e-06
3.78876e-06
1.11991e-05
1.24996e-05
1.45829e-05
4.49292e-06
4.26594e-06
5.16621e-06
5.44242e-06
1.24586e-05
1.48341e-05
4.50289e-06
4.39891e-06
5.09187e-06
5.21834e-06
4.47369e-06
5.16496e-06
5.96232e-06
1.18689e-05
1.46278e-05
4.33373e-06
5.20516e-06
5.8837e-06
1.68543e-05
1.50926e-05
1.67498e-05
5.44419e-06
5.79046e-06
6.40106e-06
6.38903e-06
1.52803e-05
1.69662e-05
5.35447e-06
5.41689e-06
6.36622e-06
6.22129e-06
6.0964e-06
6.18194e-06
6.1147e-06
1.51831e-05
1.66908e-05
6.09001e-06
6.12285e-06
6.16564e-06
1.58991e-05
1.71844e-05
1.90997e-05
6.55313e-06
6.6301e-06
7.25418e-06
7.56371e-06
1.746e-05
1.9035e-05
6.60795e-06
6.5443e-06
7.52552e-06
7.48235e-06
6.11607e-06
7.53103e-06
6.36956e-06
1.7149e-05
1.90754e-05
6.14007e-06
7.40256e-06
6.21393e-06
1.67206e-05
1.96385e-05
2.13831e-05
7.76805e-06
7.73995e-06
9.10978e-06
8.05373e-06
1.93056e-05
1.99859e-05
7.97182e-06
7.74356e-06
8.91887e-06
8.56716e-06
6.64709e-06
7.96331e-06
9.39232e-06
1.94966e-05
2.07514e-05
6.33822e-06
8.22402e-06
8.70747e-06
2.2502e-05
2.17542e-05
2.26623e-05
9.29574e-06
8.36325e-06
9.78382e-06
1.14947e-05
2.05914e-05
2.52841e-05
9.04269e-06
8.97205e-06
9.84153e-06
1.04872e-05
1.03229e-05
1.16551e-05
1.15293e-05
2.12774e-05
2.36636e-05
1.07677e-05
1.09833e-05
1.38018e-05
2.47988e-05
2.3077e-05
2.50884e-05
1.03607e-05
1.20867e-05
1.22978e-05
1.22517e-05
2.57413e-05
2.41373e-05
1.0448e-05
1.10295e-05
1.23114e-05
1.20333e-05
1.15783e-05
1.23174e-05
1.15943e-05
2.41266e-05
2.47305e-05
1.38911e-05
1.18591e-05
1.26366e-05
2.41047e-05
2.54617e-05
2.60188e-05
1.26137e-05
1.19923e-05
1.30164e-05
1.17391e-05
2.40445e-05
2.38622e-05
1.26572e-05
1.22087e-05
1.32089e-05
1.29506e-05
1.16384e-05
1.14243e-05
1.29085e-05
2.49066e-05
2.56621e-05
1.20276e-05
1.24023e-05
1.18166e-05
2.56019e-05
2.62873e-05
2.76141e-05
1.33014e-05
1.18721e-05
1.48339e-05
1.57968e-05
2.46125e-05
2.93507e-05
1.35183e-05
1.33687e-05
1.48566e-05
1.49266e-05
1.33211e-05
1.63131e-05
1.50368e-05
2.61111e-05
2.77378e-05
1.21786e-05
1.51628e-05
1.60258e-05
2.80092e-05
2.8069e-05
2.93686e-05
1.5479e-05
1.72448e-05
1.75005e-05
1.90576e-05
3.00553e-05
3.06196e-05
1.53784e-05
1.54235e-05
1.72084e-05
1.71952e-05
1.58561e-05
2.00571e-05
1.79007e-05
2.81243e-05
2.92977e-05
1.6975e-05
1.70822e-05
1.87701e-05
2.97158e-05
2.9651e-05
3.01688e-05
1.79217e-05
1.91244e-05
1.84875e-05
1.87949e-05
3.06653e-05
2.99029e-05
1.76561e-05
1.77251e-05
1.85809e-05
1.88406e-05
1.81995e-05
1.90751e-05
1.84307e-05
2.96346e-05
3.03377e-05
1.90396e-05
1.88372e-05
1.92701e-05
3.00388e-05
3.03739e-05
3.1087e-05
1.87834e-05
1.86555e-05
1.99608e-05
1.87315e-05
2.99382e-05
3.03993e-05
1.8973e-05
1.92089e-05
2.00405e-05
2.00923e-05
1.8494e-05
1.84252e-05
1.97893e-05
3.05493e-05
3.11649e-05
1.93017e-05
2.01644e-05
1.98796e-05
3.1128e-05
3.13817e-05
3.27601e-05
2.03634e-05
1.91501e-05
2.2347e-05
2.25671e-05
3.0877e-05
3.31953e-05
2.03397e-05
2.03908e-05
2.21656e-05
2.20157e-05
2.04801e-05
2.27529e-05
2.2607e-05
3.14194e-05
3.25331e-05
2.05161e-05
2.18184e-05
2.27907e-05
3.32027e-05
3.31945e-05
3.40943e-05
2.31551e-05
2.3479e-05
2.44195e-05
2.47751e-05
3.36078e-05
3.41918e-05
2.30117e-05
2.26675e-05
2.44615e-05
2.46529e-05
2.33578e-05
2.53768e-05
2.48911e-05
3.29343e-05
3.42322e-05
2.34848e-05
2.47436e-05
2.4736e-05
3.41088e-05
3.42476e-05
3.47331e-05
2.46835e-05
2.48658e-05
2.59089e-05
2.51672e-05
3.42761e-05
3.44274e-05
2.47223e-05
2.51394e-05
2.59145e-05
2.56586e-05
2.50441e-05
2.55631e-05
2.51313e-05
3.4419e-05
3.44528e-05
2.48369e-05
2.55888e-05
2.49118e-05
3.39958e-05
3.49474e-05
3.55662e-05
2.61766e-05
2.56211e-05
2.69244e-05
2.75535e-05
3.46583e-05
3.61556e-05
2.61922e-05
2.57272e-05
2.68357e-05
2.68702e-05
2.51836e-05
2.7304e-05
2.69631e-05
3.45225e-05
3.58323e-05
2.49949e-05
2.68049e-05
2.70634e-05
3.59977e-05
3.58377e-05
3.74796e-05
2.74597e-05
2.8019e-05
2.94672e-05
2.96948e-05
3.64598e-05
3.73521e-05
2.73749e-05
2.7715e-05
2.95292e-05
3.03054e-05
2.79056e-05
2.97e-05
3.0324e-05
3.63976e-05
3.8028e-05
2.78668e-05
3.03311e-05
3.04199e-05
3.80911e-05
3.7858e-05
3.84529e-05
3.01785e-05
3.02258e-05
3.15772e-05
3.08356e-05
3.76141e-05
3.78715e-05
3.0189e-05
3.0798e-05
3.14569e-05
3.11728e-05
3.09918e-05
3.09319e-05
3.16106e-05
3.81757e-05
3.79676e-05
3.11111e-05
3.13004e-05
3.16223e-05
3.84462e-05
3.85068e-05
3.8496e-05
3.16983e-05
3.08611e-05
3.17548e-05
3.11894e-05
3.78957e-05
3.83724e-05
3.15807e-05
3.11644e-05
3.17061e-05
3.11749e-05
3.15726e-05
3.1154e-05
3.11542e-05
3.79867e-05
3.80445e-05
3.15362e-05
3.1101e-05
3.10801e-05
3.75141e-05
3.86589e-05
4.04223e-05
3.18082e-05
3.19671e-05
3.36594e-05
3.512e-05
3.90061e-05
4.16105e-05
3.18327e-05
3.13206e-05
3.3745e-05
3.37918e-05
3.1176e-05
3.498e-05
3.36152e-05
3.82577e-05
4.04892e-05
3.11304e-05
3.34515e-05
3.44183e-05
4.12966e-05
4.09126e-05
4.17852e-05
3.46852e-05
3.55411e-05
3.62542e-05
3.58012e-05
4.17241e-05
4.1139e-05
3.46461e-05
3.47457e-05
3.62008e-05
3.66852e-05
3.49801e-05
3.58714e-05
3.6745e-05
4.10761e-05
4.25366e-05
3.57722e-05
3.6957e-05
3.67372e-05
4.22967e-05
4.18016e-05
4.14194e-05
3.63287e-05
3.57843e-05
3.62587e-05
3.54932e-05
4.11424e-05
4.08676e-05
3.62854e-05
3.68159e-05
3.61977e-05
3.65477e-05
3.68271e-05
3.55725e-05
3.67036e-05
4.25773e-05
4.1429e-05
3.66866e-05
3.65336e-05
3.57288e-05
4.13633e-05
4.14589e-05
4.2687e-05
3.62538e-05
3.54619e-05
3.67657e-05
3.59052e-05
4.08899e-05
4.1434e-05
3.61877e-05
3.63029e-05
3.67753e-05
3.62685e-05
3.65542e-05
3.57447e-05
3.64983e-05
4.13717e-05
4.16612e-05
3.56153e-05
3.61883e-05
3.57501e-05
4.15444e-05
4.31989e-05
4.46969e-05
3.76686e-05
3.7041e-05
3.98132e-05
4.08598e-05
4.21246e-05
4.6286e-05
3.77187e-05
3.65422e-05
3.98329e-05
3.98411e-05
3.66154e-05
4.08086e-05
3.93413e-05
4.21317e-05
4.50649e-05
3.62469e-05
3.97868e-05
4.01869e-05
4.49954e-05
4.48464e-05
4.49303e-05
4.01864e-05
4.15002e-05
4.05689e-05
4.18849e-05
4.66521e-05
4.63844e-05
4.019e-05
4.04982e-05
4.05376e-05
4.09863e-05
4.01621e-05
4.20857e-05
4.10624e-05
4.5355e-05
4.52864e-05
4.10324e-05
4.12639e-05
4.18914e-05
4.58235e-05
4.49557e-05
4.54339e-05
4.06017e-05
4.18083e-05
4.12155e-05
4.0696e-05
4.62714e-05
4.44142e-05
4.05603e-05
4.09671e-05
4.10361e-05
4.08782e-05
4.10764e-05
4.06952e-05
4.09519e-05
4.52715e-05
4.50013e-05
4.1891e-05
4.11342e-05
4.12312e-05
4.49616e-05
4.56708e-05
4.59303e-05
4.15434e-05
4.04152e-05
4.18994e-05
4.01981e-05
4.4326e-05
4.3913e-05
4.14501e-05
4.09177e-05
4.20322e-05
4.2166e-05
4.09348e-05
4.00375e-05
4.12409e-05
4.51058e-05
4.62306e-05
4.09638e-05
4.17375e-05
4.08287e-05
4.52604e-05
4.59637e-05
4.64405e-05
4.19188e-05
4.02822e-05
4.22062e-05
4.26112e-05
4.4146e-05
4.69696e-05
4.2068e-05
4.24748e-05
4.23181e-05
4.27624e-05
4.16607e-05
4.27788e-05
4.31345e-05
4.64478e-05
4.67333e-05
4.09917e-05
4.27459e-05
4.31521e-05
4.735e-05
4.68162e-05
4.85276e-05
4.27641e-05
4.35253e-05
4.49104e-05
4.54657e-05
4.75825e-05
4.9213e-05
4.27749e-05
4.28673e-05
4.47927e-05
4.4188e-05
4.36926e-05
4.55516e-05
4.49417e-05
4.68378e-05
4.78391e-05
4.3803e-05
4.42698e-05
4.49645e-05
4.84812e-05
4.87002e-05
4.85666e-05
4.52805e-05
4.57568e-05
4.55419e-05
4.59305e-05
4.9315e-05
4.90445e-05
4.51755e-05
4.46949e-05
4.54717e-05
4.54295e-05
4.50956e-05
4.586e-05
4.5156e-05
4.81055e-05
4.85797e-05
4.50855e-05
4.5343e-05
4.51392e-05
4.82724e-05
4.85712e-05
4.87677e-05
4.55379e-05
4.58967e-05
4.55889e-05
4.57705e-05
4.90326e-05
4.88391e-05
4.54703e-05
4.54841e-05
4.55302e-05
4.58094e-05
4.51551e-05
4.56593e-05
4.54923e-05
4.86466e-05
4.9142e-05
4.51433e-05
4.5866e-05
4.55858e-05
4.88811e-05
4.90199e-05
5.01123e-05
4.57594e-05
4.57763e-05
4.70019e-05
4.63283e-05
4.89033e-05
4.93311e-05
4.57194e-05
4.6124e-05
4.712e-05
4.72668e-05
4.59428e-05
4.63413e-05
4.70954e-05
4.9385e-05
5.02808e-05
4.6004e-05
4.72612e-05
4.71704e-05
5.01269e-05
5.02231e-05
5.03007e-05
4.72348e-05
4.66873e-05
4.74939e-05
4.78332e-05
4.95273e-05
5.07585e-05
4.7404e-05
4.75144e-05
4.77109e-05
4.76904e-05
4.73105e-05
4.78644e-05
4.75459e-05
5.03732e-05
5.01738e-05
4.74053e-05
4.76484e-05
4.76454e-05
5.02817e-05
5.03415e-05
5.09466e-05
4.75711e-05
4.81786e-05
4.84087e-05
4.87761e-05
5.10111e-05
5.14098e-05
4.77331e-05
4.7678e-05
4.79747e-05
4.77072e-05
4.76094e-05
4.87708e-05
4.84423e-05
5.01738e-05
5.03728e-05
4.76717e-05
4.76822e-05
4.81269e-05
5.10424e-05
5.11832e-05
5.17211e-05
4.87441e-05
4.8804e-05
4.93067e-05
4.87588e-05
5.141e-05
5.09146e-05
4.83185e-05
4.78548e-05
4.93218e-05
4.93944e-05
4.87897e-05
4.87604e-05
4.93217e-05
5.06425e-05
5.20337e-05
4.84995e-05
4.94427e-05
4.93631e-05
5.17364e-05
5.17635e-05
5.18424e-05
4.93634e-05
4.87572e-05
4.94654e-05
4.91406e-05
5.09232e-05
5.16404e-05
4.94948e-05
4.97232e-05
4.96901e-05
5.00689e-05
4.93623e-05
4.91111e-05
4.9425e-05
5.21776e-05
5.22108e-05
4.94828e-05
5.00484e-05
4.96046e-05
5.17689e-05
5.19644e-05
5.28953e-05
4.95636e-05
4.95768e-05
5.05916e-05
5.09036e-05
5.1982e-05
5.33002e-05
4.97843e-05
5.00898e-05
5.05574e-05
5.02296e-05
4.9494e-05
5.08261e-05
5.05008e-05
5.22261e-05
5.24983e-05
4.96715e-05
5.01748e-05
5.04328e-05
5.2821e-05
5.30486e-05
5.31687e-05
5.09034e-05
5.12238e-05
5.13367e-05
5.15232e-05
5.34811e-05
5.347e-05
5.07927e-05
5.04722e-05
5.11038e-05
5.12839e-05
5.08897e-05
5.15735e-05
5.15038e-05
5.26863e-05
5.33647e-05
5.07583e-05
5.13397e-05
5.13756e-05
5.34095e-05
5.31837e-05
5.34602e-05
5.13711e-05
5.15151e-05
5.14547e-05
5.13339e-05
5.3443e-05
5.31046e-05
5.11357e-05
5.13943e-05
5.15746e-05
5.14981e-05
5.15446e-05
5.14305e-05
5.15512e-05
5.34206e-05
5.33999e-05
5.14377e-05
5.15972e-05
5.1476e-05
5.33176e-05
5.36241e-05
5.40961e-05
5.15588e-05
5.13301e-05
5.21153e-05
5.18091e-05
5.31328e-05
5.39298e-05
5.182e-05
5.15439e-05
5.21792e-05
5.2193e-05
5.15567e-05
5.18998e-05
5.20442e-05
5.34318e-05
5.41141e-05
5.14975e-05
5.1965e-05
5.20686e-05
5.41014e-05
5.41554e-05
5.45403e-05
5.22523e-05
5.22077e-05
5.28321e-05
5.29737e-05
5.41825e-05
5.47334e-05
5.22687e-05
5.24863e-05
5.28156e-05
5.29556e-05
5.23613e-05
5.29072e-05
5.29298e-05
5.43335e-05
5.46651e-05
5.23917e-05
5.30084e-05
5.30531e-05
5.47103e-05
5.4688e-05
5.48999e-05
5.30641e-05
5.32031e-05
5.34203e-05
5.35483e-05
5.48513e-05
5.5134e-05
5.29835e-05
5.29797e-05
5.31743e-05
5.29838e-05
5.30347e-05
5.3474e-05
5.31598e-05
5.46653e-05
5.4492e-05
5.31198e-05
5.30704e-05
5.3127e-05
5.46475e-05
5.49149e-05
5.50976e-05
5.34359e-05
5.35491e-05
5.34548e-05
5.34129e-05
5.51384e-05
5.48343e-05
5.3193e-05
5.29957e-05
5.35618e-05
5.36203e-05
5.31711e-05
5.34146e-05
5.33734e-05
5.45276e-05
5.53847e-05
5.31229e-05
5.34823e-05
5.32894e-05
5.50701e-05
5.52354e-05
5.56502e-05
5.35051e-05
5.34066e-05
5.40786e-05
5.38063e-05
5.48445e-05
5.55484e-05
5.38175e-05
5.39822e-05
5.42301e-05
5.44257e-05
5.36066e-05
5.38591e-05
5.43626e-05
5.56211e-05
5.58975e-05
5.36326e-05
5.44561e-05
5.44598e-05
5.59773e-05
5.5685e-05
5.58007e-05
5.42045e-05
5.42139e-05
5.44523e-05
5.48932e-05
5.58029e-05
5.63696e-05
5.42604e-05
5.44318e-05
5.43334e-05
5.43998e-05
5.45167e-05
5.49318e-05
5.4627e-05
5.58901e-05
5.57117e-05
5.45508e-05
5.44509e-05
5.45691e-05
5.58622e-05
5.59192e-05
5.64574e-05
5.46091e-05
5.49852e-05
5.51063e-05
5.50483e-05
5.64104e-05
5.63293e-05
5.44402e-05
5.44048e-05
5.50504e-05
5.47938e-05
5.46174e-05
5.50054e-05
5.46069e-05
5.57356e-05
5.62059e-05
5.45337e-05
5.46518e-05
5.45263e-05
5.58896e-05
5.64953e-05
5.63547e-05
5.5165e-05
5.50371e-05
5.51413e-05
5.48449e-05
5.63147e-05
5.59912e-05
5.51514e-05
5.49964e-05
5.51889e-05
5.52323e-05
5.46579e-05
5.48453e-05
5.52365e-05
5.63362e-05
5.65074e-05
5.45935e-05
5.52396e-05
5.53072e-05
5.66547e-05
5.63589e-05
5.66263e-05
5.51186e-05
5.48187e-05
5.52097e-05
5.49647e-05
5.5995e-05
5.6388e-05
5.51815e-05
5.52519e-05
5.52915e-05
5.55197e-05
5.54094e-05
5.50941e-05
5.57239e-05
5.65351e-05
5.68473e-05
5.5519e-05
5.56599e-05
5.57993e-05
5.7066e-05
5.67793e-05
5.70597e-05
5.54347e-05
5.52726e-05
5.59104e-05
5.61648e-05
5.65894e-05
5.7435e-05
5.5501e-05
5.56613e-05
5.58524e-05
5.58211e-05
5.57396e-05
5.61455e-05
5.56835e-05
5.69358e-05
5.69449e-05
5.57988e-05
5.57775e-05
5.56022e-05
5.66607e-05
5.70746e-05
5.73027e-05
5.59472e-05
5.63968e-05
5.62065e-05
5.66687e-05
5.76128e-05
5.79834e-05
5.58778e-05
5.58226e-05
5.6123e-05
5.5892e-05
5.56774e-05
5.66394e-05
5.59284e-05
5.69465e-05
5.70453e-05
5.55695e-05
5.58052e-05
5.57291e-05
5.70892e-05
5.74326e-05
5.75516e-05
5.63504e-05
5.66623e-05
5.64579e-05
5.6059e-05
5.79895e-05
5.67367e-05
5.62765e-05
5.60447e-05
5.64422e-05
5.64302e-05
5.61972e-05
5.60087e-05
5.64802e-05
5.7167e-05
5.7563e-05
5.60407e-05
5.64647e-05
5.65586e-05
5.76652e-05
5.75296e-05
5.72179e-05
5.64278e-05
5.57724e-05
5.61638e-05
5.55777e-05
5.65635e-05
5.64094e-05
5.64333e-05
5.65009e-05
5.62847e-05
5.65797e-05
5.6476e-05
5.55842e-05
5.63357e-05
5.76077e-05
5.76843e-05
5.65848e-05
5.66353e-05
5.65352e-05
5.74819e-05
5.72268e-05
5.76655e-05
5.61546e-05
5.5651e-05
5.64519e-05
5.69309e-05
5.66574e-05
5.837e-05
5.62777e-05
5.65779e-05
5.64777e-05
5.6483e-05
5.63226e-05
5.6973e-05
5.64137e-05
5.76973e-05
5.74787e-05
5.64956e-05
5.6485e-05
5.64166e-05
5.74846e-05
5.78278e-05
5.8147e-05
5.67592e-05
5.72762e-05
5.71839e-05
5.7614e-05
5.85598e-05
5.87711e-05
5.66786e-05
5.64384e-05
5.69846e-05
5.64216e-05
5.65277e-05
5.75999e-05
5.69442e-05
5.74501e-05
5.73461e-05
5.64128e-05
5.63646e-05
5.65597e-05
5.77833e-05
5.81583e-05
5.77746e-05
5.71919e-05
5.7607e-05
5.69407e-05
5.70597e-05
5.87452e-05
5.78368e-05
5.69952e-05
5.64719e-05
5.6898e-05
5.71764e-05
5.70735e-05
5.71154e-05
5.71968e-05
5.74237e-05
5.83366e-05
5.67773e-05
5.72217e-05
5.7225e-05
5.82744e-05
5.77464e-05
5.77013e-05
5.6783e-05
5.67508e-05
5.66093e-05
5.61615e-05
5.7698e-05
5.69803e-05
5.68612e-05
5.73639e-05
5.68527e-05
5.74754e-05
5.71855e-05
5.61554e-05
5.67927e-05
5.84888e-05
5.86454e-05
5.72519e-05
5.75197e-05
5.71628e-05
5.78518e-05
5.776e-05
5.79894e-05
5.66115e-05
5.61086e-05
5.68419e-05
5.62438e-05
5.69717e-05
5.73622e-05
5.6892e-05
5.7427e-05
5.69492e-05
5.66631e-05
5.66338e-05
5.61795e-05
5.64532e-05
5.859e-05
5.73789e-05
5.69846e-05
5.66183e-05
5.65455e-05
5.7407e-05
5.80664e-05
5.85452e-05
5.7025e-05
5.66342e-05
5.74832e-05
5.78825e-05
5.76364e-05
5.92538e-05
5.69681e-05
5.65466e-05
5.72408e-05
5.66759e-05
5.64731e-05
5.79146e-05
5.74043e-05
5.73253e-05
5.78661e-05
5.65293e-05
5.66297e-05
5.69864e-05
5.85155e-05
5.85774e-05
5.76786e-05
5.75046e-05
5.79755e-05
5.71031e-05
5.75721e-05
5.93455e-05
5.82094e-05
5.72802e-05
5.70363e-05
5.70661e-05
5.7412e-05
5.7704e-05
5.77191e-05
5.77835e-05
5.8174e-05
5.87483e-05
5.74243e-05
5.75707e-05
5.77291e-05
5.88755e-05
5.74174e-05
5.68559e-05
5.66122e-05
5.68463e-05
5.61208e-05
5.59711e-05
5.77535e-05
5.64984e-05
5.66899e-05
5.73495e-05
5.62245e-05
5.6329e-05
5.75549e-05
5.59485e-05
5.61386e-05
5.86803e-05
5.69637e-05
5.76282e-05
5.62955e-05
5.62309e-05
5.68455e-05
5.70471e-05
5.97626e-05
5.61938e-05
5.60216e-05
5.80147e-05
5.78961e-05
5.65851e-05
5.9647e-05
5.62748e-05
5.62418e-05
5.79207e-05
5.68575e-05
5.60684e-05
5.77257e-05
5.67944e-05
5.6913e-05
5.82643e-05
5.60767e-05
5.65108e-05
5.6473e-05
5.8261e-05
6.00025e-05
5.91921e-05
5.83953e-05
5.83161e-05
5.83152e-05
5.82275e-05
5.99252e-05
5.90922e-05
5.83536e-05
5.76513e-05
5.83771e-05
5.83744e-05
5.75245e-05
5.82647e-05
5.81636e-05
5.8792e-05
5.99002e-05
5.72553e-05
5.84046e-05
5.82188e-05
5.95628e-05
5.86179e-05
5.50284e-05
5.77201e-05
5.75629e-05
5.47501e-05
5.48222e-05
5.84885e-05
5.51836e-05
5.79239e-05
5.8287e-05
5.48187e-05
5.56675e-05
5.80921e-05
5.50258e-05
5.59302e-05
5.98189e-05
5.61515e-05
5.81842e-05
5.6051e-05
5.62056e-05
5.65114e-05
5.48835e-05
5.6445e-05
5.44378e-05
5.46103e-05
5.48024e-05
5.52748e-05
5.51029e-05
5.72756e-05
5.44173e-05
5.49181e-05
5.46229e-05
5.45586e-05
5.52894e-05
5.52031e-05
5.49565e-05
5.57304e-05
5.54942e-05
5.54109e-05
5.4616e-05
5.48661e-05
5.58957e-05
5.73386e-05
6.11717e-05
5.59825e-05
5.66937e-05
5.92034e-05
5.91501e-05
5.81783e-05
6.10947e-05
5.559e-05
5.48949e-05
5.91133e-05
5.83475e-05
5.52255e-05
5.89212e-05
5.80425e-05
5.60576e-05
6.01507e-05
5.50496e-05
5.80703e-05
5.78707e-05
5.97834e-05
6.1267e-05
5.85105e-05
5.93838e-05
5.91935e-05
5.80109e-05
5.68383e-05
6.11058e-05
5.68783e-05
5.93813e-05
5.88503e-05
5.83856e-05
5.86546e-05
5.83963e-05
5.68873e-05
5.79339e-05
6.04184e-05
5.93811e-05
5.83516e-05
5.86053e-05
5.82146e-05
5.87272e-05
5.75006e-05
5.581e-05
5.47273e-05
5.59678e-05
5.61762e-05
5.67938e-05
4.67965e-05
4.81087e-05
4.76434e-05
5.60874e-05
5.85988e-05
5.64431e-05
4.32214e-07
2.42279e-07
2.3007e-07
2.36803e-07
1.07562e-07
2.82777e-07
1.16975e-07
1.4526e-07
1.16664e-07
3.37896e-07
1.49269e-07
4.21451e-07
3.72145e-07
3.8468e-07
4.27322e-07
3.04269e-07
6.14785e-06
2.60425e-07
8.10931e-06
1.33471e-05
2.08429e-05
3.60861e-07
4.69046e-06
3.19299e-07
6.29674e-06
2.13568e-07
2.36415e-07
2.4321e-07
2.20926e-07
2.11754e-07
2.33846e-07
2.41242e-07
1.08553e-07
5.08756e-07
1.35536e-07
2.4532e-07
1.08873e-07
4.98689e-07
1.3441e-07
1.51034e-05
2.24273e-05
1.18356e-07
2.19281e-07
7.63564e-07
3.482e-07
1.1825e-07
2.18434e-07
7.33301e-07
1.90672e-06
1.97955e-06
3.61484e-07
1.88105e-06
1.99553e-06
4.96987e-07
1.17817e-05
4.09868e-07
1.502e-05
3.59644e-05
4.57302e-05
5.61137e-07
9.39486e-06
4.61132e-07
1.21206e-05
2.10785e-07
2.32062e-07
2.38562e-07
2.1775e-07
2.07904e-07
2.27963e-07