/*--------------------------------*- C++ -*----------------------------------*\
| =========                 |                                                 |
| \\      /  F ield         | OpenFOAM: The Open Source CFD Toolbox           |
|  \\    /   O peration     | Version:  v2012                                 |
|   \\  /    A nd           | Website:  www.openfoam.com                      |
|    \\/     M anipulation  |                                                 |
\*---------------------------------------------------------------------------*/
FoamFile
{
    version     2.0;
    format      ascii;
    class       volScalarField;
    location    "562.5";
    object      nut;
}
// * * * * * * * * * * * * * * * * * * * * * * * * * * * * * * * * * * * * * //

dimensions      [0 2 -1 0 0 0 0];


internalField   nonuniform List<scalar> 
171728
(
2.78174e-06
1.62162e-06
1.89327e-06
2.39898e-06
2.75675e-06
1.58959e-06
1.87253e-06
2.51397e-06
2.77786e-06
1.57001e-06
1.86077e-06
2.2997e-06
2.79148e-06
1.55208e-06
1.87069e-06
2.38647e-06
2.80254e-06
1.52416e-06
1.92605e-06
2.5083e-06
2.80939e-06
1.49903e-06
2.15904e-06
2.50599e-06
2.81941e-06
1.47319e-06
2.73168e-06
2.26948e-06
2.83153e-06
1.4532e-06
3.76674e-06
2.12364e-06
2.84595e-06
1.42625e-06
4.79306e-06
2.01958e-06
2.85878e-06
1.38668e-06
5.16167e-06
1.95136e-06
2.87132e-06
1.35007e-06
3.79859e-06
2.01863e-06
2.88169e-06
1.31974e-06
2.96505e-06
2.22728e-06
2.89331e-06
1.28323e-06
2.62083e-06
2.4857e-06
2.90836e-06
1.22487e-06
2.18868e-06
2.50181e-06
2.92641e-06
1.1449e-06
1.94357e-06
1.96494e-06
2.94372e-06
1.05962e-06
1.76719e-06
1.62672e-06
2.95872e-06
9.92508e-07
1.47002e-06
1.39421e-06
2.97055e-06
9.64644e-07
1.17606e-06
1.19927e-06
2.97328e-06
9.5793e-07
1.07341e-06
1.10946e-06
2.967e-06
1.04998e-06
1.11571e-06
1.22026e-06
2.93803e-06
1.3132e-06
1.32375e-06
1.53654e-06
2.88725e-06
1.46683e-06
1.67621e-06
2.26945e-06
2.82494e-06
2.26511e-06
2.38612e-06
3.47985e-06
2.74308e-06
2.36532e-06
3.40741e-06
5.98501e-06
2.61429e-06
4.07741e-06
4.00968e-06
7.29302e-06
2.4431e-06
5.59428e-06
6.56009e-06
1.41859e-05
2.30904e-06
6.51909e-06
6.47945e-06
1.71066e-05
2.0936e-06
9.72009e-06
9.31954e-06
2.45328e-05
1.97717e-06
1.06536e-05
1.26231e-05
3.0257e-05
2.04579e-06
1.46883e-05
1.44046e-05
3.60109e-05
2.00437e-06
1.83194e-05
1.81429e-05
5.43297e-05
2.29286e-06
2.19728e-05
2.17607e-05
4.66643e-05
2.46048e-06
2.60111e-05
2.565e-05
5.02237e-05
2.87458e-06
2.6557e-05
2.91437e-05
7.19833e-05
3.03535e-06
4.38362e-05
4.01743e-05
7.65996e-05
4.61046e-06
4.09049e-05
4.06296e-05
7.10594e-05
4.57248e-06
3.64671e-05
4.42665e-05
7.74207e-05
5.87038e-06
6.42737e-05
5.25511e-05
8.56799e-05
8.59657e-06
7.33689e-05
6.05217e-05
9.0538e-05
9.122e-06
6.33063e-05
6.5665e-05
9.03185e-05
1.09528e-05
5.98403e-05
6.89954e-05
9.47327e-05
1.43713e-05
8.23412e-05
7.58869e-05
0.000102266
1.87332e-05
8.8401e-05
8.66393e-05
0.000104191
2.1408e-05
8.62872e-05
8.64809e-05
0.000102781
2.21717e-05
9.41823e-05
9.27693e-05
0.000111667
2.99993e-05
0.000103807
0.000107058
0.000119382
3.83825e-05
0.000105065
0.000106853
0.000118982
3.81278e-05
0.00010491
0.000103513
0.000114291
3.98514e-05
0.000123124
0.000118269
0.00013143
5.93887e-05
0.000123599
0.000129414
0.000133506
5.96839e-05
0.000119467
0.000124054
0.000128369
5.62639e-05
0.000121274
0.000121038
0.000129668
7.70729e-05
0.000146392
0.000141193
0.000144308
8.59858e-05
0.000149595
0.0001447
0.000145896
8.42081e-05
0.000138847
0.000142317
0.000141778
9.37736e-05
0.000134994
0.000145684
0.000143415
9.37241e-05
0.000151979
0.000149386
0.000152141
0.000105918
0.000163403
0.000157057
0.000155736
0.000121423
0.000163013
0.000160118
0.000154365
0.000119934
0.000160996
0.000163173
0.000157558
0.000125835
0.000165267
0.000169883
0.000162324
0.000136029
0.000172429
0.000170021
0.000162316
0.000137634
0.000175777
0.000169693
0.00016637
0.000146804
0.000174935
0.000179871
0.00016857
0.00015123
0.000177677
0.000181391
0.000168444
0.000155783
0.000186651
0.000182152
0.000173712
0.00016452
0.000188979
0.00018829
0.000175525
0.00016868
0.000187823
0.000188718
0.000174929
0.000172889
0.000191622
0.000191983
0.000179098
0.000179109
0.000196421
0.00019636
0.000181249
0.000185741
0.000198729
0.000196268
0.000180865
0.000188619
0.000198176
0.000200103
0.000183377
0.000193971
0.000202372
0.00020419
0.000187046
0.000198391
0.000207209
0.000204096
0.000186528
0.000205042
0.000207261
0.000206272
0.000186892
0.000207537
0.000206522
0.000209147
0.000190716
0.000210161
0.000209351
0.000211922
0.000192358
0.000215359
0.000215567
0.000212347
0.00019068
0.00021974
0.000217718
0.000213467
0.000193455
0.000224903
0.000213374
0.000217496
0.000195713
0.000224387
0.000212269
0.000218555
0.000195057
0.00022594
0.000222359
0.000217732
0.000195278
0.00023408
0.000225405
0.000217836
0.000197443
0.000234965
0.000221676
0.000224272
0.000199463
0.000234749
0.000217485
0.00022599
0.000197639
0.000237932
0.000220004
0.000220966
0.000196122
0.000242071
0.000229807
0.000223509
0.000202143
0.000242753
0.000226292
0.000227835
0.000202791
0.000240422
0.000219853
0.000221282
0.000194857
0.000250489
0.000232866
0.000226955
0.000202449
0.000255858
0.000233865
0.000235141
0.000207868
0.000238123
0.000215877
0.000219494
0.000193641
0.000235692
0.000223666
0.000215288
0.000192705
0.000265122
0.000241297
0.000238636
0.000210616
0.000271815
0.000228663
0.000241474
0.000209742
2.32475e-06
2.11207e-06
2.36298e-06
2.24385e-06
2.18475e-06
2.32424e-06
2.80207e-06
2.67719e-06
2.95043e-06
2.86246e-06
2.13738e-06
2.50364e-06
2.3854e-06
2.33759e-06
3.81993e-06
2.40894e-06
2.31741e-06
2.24728e-06
3.04277e-06
1.91073e-06
1.93461e-06
1.93812e-06
2.23952e-06
2.19804e-06
1.73579e-06
7.37667e-06
1.74584e-06
4.9441e-06
2.03459e-06
1.59572e-06
2.06609e-06
2.37338e-06
2.37137e-06
6.86031e-06
1.8777e-06
7.46846e-06
2.53435e-06
2.24672e-06
2.21753e-06
1.74278e-06
1.9452e-06
1.50051e-06
1.94969e-06
2.19569e-06
2.16373e-06
1.74919e-06
3.93014e-06
1.75962e-06
2.08951e-06
2.07096e-06
1.5732e-06
2.08933e-06
2.35864e-06
2.23174e-06
6.71061e-06
1.86265e-06
4.06025e-06
2.3369e-06
2.2163e-06
2.19708e-06
1.4857e-06
1.94649e-06
1.48191e-06
1.92748e-06
2.16147e-06
2.1319e-06
1.76268e-06
1.84279e-06
1.77216e-06
1.5827e-06
2.09646e-06
1.55784e-06
2.10501e-06
2.23157e-06
2.15522e-06
3.58144e-06
1.86347e-06
3.43243e-06
2.37246e-06
2.19619e-06
2.17402e-06
1.48314e-06
1.92073e-06
1.49789e-06
1.90099e-06
2.12957e-06
2.10036e-06
1.77478e-06
1.56558e-06
1.78017e-06
1.55453e-06
2.10378e-06
1.5308e-06
2.10442e-06
2.16693e-06
2.12896e-06
3.62354e-06
1.90428e-06
4.5079e-06
2.50481e-06
2.17299e-06
2.1415e-06
1.5047e-06
1.89489e-06
1.52044e-06
1.88102e-06
2.09784e-06
2.06934e-06
1.78188e-06
1.5566e-06
1.77976e-06
1.5619e-06
2.10637e-06
1.50492e-06
2.11372e-06
2.1272e-06
2.12433e-06
4.77276e-06
2.08088e-06
5.01489e-06
2.56257e-06
2.14e-06
2.10411e-06
1.52365e-06
1.87695e-06
1.53248e-06
1.86894e-06
2.06664e-06
2.04764e-06
1.77829e-06
1.56333e-06
1.7692e-06
1.56559e-06
2.11718e-06
1.47908e-06
2.12421e-06
2.11956e-06
2.23879e-06
4.62373e-06
2.54256e-06
3.26915e-06
2.33461e-06
2.10251e-06
2.07479e-06
1.53422e-06
1.86681e-06
1.54239e-06
1.84921e-06
2.0442e-06
2.01871e-06
1.76532e-06
1.56689e-06
1.75535e-06
1.56936e-06
2.12514e-06
1.4581e-06
2.13382e-06
2.25192e-06
2.45683e-06
2.85404e-06
3.47329e-06
1.94648e-06
2.14104e-06
2.07316e-06
2.05396e-06
1.54683e-06
1.84132e-06
1.57088e-06
1.80564e-06
2.01435e-06
1.98295e-06
1.75464e-06
1.56995e-06
1.75637e-06
1.57079e-06
2.13787e-06
1.43343e-06
2.15071e-06
2.4638e-06
2.6145e-06
1.75429e-06
4.593e-06
1.42955e-06
2.02869e-06
2.05135e-06
2.01602e-06
1.57801e-06
1.78767e-06
1.59381e-06
1.73586e-06
1.97815e-06
1.92425e-06
1.7572e-06
1.57141e-06
1.75841e-06
1.56609e-06
2.15675e-06
1.39625e-06
2.17002e-06
2.61031e-06
2.69678e-06
1.37897e-06
5.15535e-06
1.32155e-06
1.95593e-06
2.00965e-06
1.94895e-06
1.59747e-06
1.72051e-06
1.60197e-06
1.677e-06
1.91737e-06
1.84645e-06
1.75675e-06
1.562e-06
1.73753e-06
1.53531e-06
2.1703e-06
1.35747e-06
2.16988e-06
2.68409e-06
2.38989e-06
1.31949e-06
4.10613e-06
1.37246e-06
2.0114e-06
1.94096e-06
1.87724e-06
1.60126e-06
1.66237e-06
1.58163e-06
1.6224e-06
1.83893e-06
1.76753e-06
1.72771e-06
1.52228e-06
1.693e-06
1.48508e-06
2.16897e-06
1.32665e-06
2.14458e-06
2.35567e-06
2.15877e-06
1.47831e-06
3.11303e-06
2.17849e-06
2.19104e-06
1.86667e-06
1.79209e-06
1.56991e-06
1.61588e-06
1.52879e-06
1.59191e-06
1.75805e-06
1.68957e-06
1.67808e-06
1.47461e-06
1.63263e-06
1.43779e-06
2.13163e-06
1.29226e-06
2.06592e-06
2.14269e-06
2.00859e-06
2.51675e-06
2.70561e-06
3.65044e-06
2.4753e-06
1.77719e-06
1.69014e-06
1.50818e-06
1.57976e-06
1.45084e-06
1.51891e-06
1.67678e-06
1.59865e-06
1.61864e-06
1.42595e-06
1.5696e-06
1.38584e-06
2.04072e-06
1.24013e-06
1.94392e-06
1.98484e-06
1.82684e-06
3.97771e-06
2.297e-06
4.51791e-06
2.52946e-06
1.67047e-06
1.58734e-06
1.43342e-06
1.49505e-06
1.37259e-06
1.40647e-06
1.58019e-06
1.48645e-06
1.55496e-06
1.37388e-06
1.50013e-06
1.33317e-06
1.90448e-06
1.16481e-06
1.78092e-06
1.80174e-06
1.67464e-06
4.5493e-06
1.98104e-06
3.84279e-06
2.02877e-06
1.56197e-06
1.48325e-06
1.34913e-06
1.3765e-06
1.27845e-06
1.30058e-06
1.46211e-06
1.36936e-06
1.48369e-06
1.31627e-06
1.43597e-06
1.26347e-06
1.73752e-06
1.07698e-06
1.59257e-06
1.64934e-06
1.5589e-06
3.33617e-06
1.81406e-06
2.27903e-06
1.66657e-06
1.4573e-06
1.37862e-06
1.2556e-06
1.28094e-06
1.1987e-06
1.23527e-06
1.34214e-06
1.2664e-06
1.41899e-06
1.24658e-06
1.37373e-06
1.19781e-06
1.52763e-06
1.00305e-06
1.32058e-06
1.52859e-06
1.43001e-06
2.03673e-06
1.55906e-06
1.54506e-06
1.43399e-06
1.35541e-06
1.30218e-06
1.18923e-06
1.22605e-06
1.16336e-06
1.21318e-06
1.23959e-06
1.19889e-06
1.35688e-06
1.18545e-06
1.31832e-06
1.1499e-06
1.26508e-06
9.6102e-07
1.11635e-06
1.39459e-06
1.27916e-06
1.4277e-06
1.22577e-06
1.16024e-06
1.23652e-06
1.28667e-06
1.27937e-06
1.15703e-06
1.22398e-06
1.15236e-06
1.22317e-06
1.18911e-06
1.18306e-06
1.31051e-06
1.15364e-06
1.31474e-06
1.16079e-06
1.07896e-06
9.51463e-07
9.83441e-07
1.25879e-06
1.22744e-06
1.09185e-06
1.07605e-06
9.65837e-07
1.09579e-06
1.28505e-06
1.36708e-06
1.15223e-06
1.23383e-06
1.20211e-06
1.30958e-06
1.18597e-06
1.29189e-06
1.3115e-06
1.16373e-06
1.37191e-06
1.22365e-06
9.98788e-07
1.04934e-06
1.05516e-06
1.22034e-06
1.2742e-06
9.50594e-07
1.08337e-06
9.44356e-07
1.19463e-06
1.40905e-06
1.6303e-06
1.22198e-06
1.31374e-06
1.35189e-06
1.50109e-06
1.33689e-06
1.61684e-06
1.39607e-06
1.25055e-06
1.50814e-06
1.37157e-06
1.07077e-06
1.23466e-06
1.17847e-06
1.30909e-06
1.59204e-06
9.56884e-07
1.2187e-06
1.07721e-06
1.41887e-06
1.72401e-06
2.24014e-06
1.40733e-06
1.57126e-06
1.60715e-06
1.63051e-06
1.78012e-06
1.95922e-06
1.56964e-06
1.45103e-06
1.77651e-06
1.64563e-06
1.26539e-06
1.39519e-06
1.50282e-06
1.66724e-06
2.2461e-06
1.17588e-06
1.57836e-06
1.38303e-06
2.16819e-06
2.39931e-06
3.32755e-06
1.7184e-06
1.69756e-06
2.09609e-06
2.41258e-06
2.10196e-06
4.21648e-06
1.87146e-06
1.7515e-06
2.22863e-06
2.22685e-06
1.58752e-06
2.20468e-06
2.07175e-06
2.4408e-06
3.34225e-06
1.47897e-06
2.2896e-06
1.82354e-06
3.16893e-06
3.58483e-06
5.10729e-06
2.21997e-06
2.47859e-06
2.87504e-06
2.45139e-06
4.27706e-06
3.34432e-06
2.33482e-06
2.27692e-06
2.91973e-06
2.89704e-06
2.19639e-06
2.26806e-06
2.93855e-06
3.66866e-06
4.96396e-06
1.94768e-06
3.00661e-06
2.64154e-06
5.3604e-06
5.5222e-06
7.88787e-06
3.10233e-06
2.48939e-06
3.73422e-06
3.91904e-06
3.43849e-06
9.71026e-06
3.12209e-06
3.25128e-06
3.76126e-06
3.69511e-06
3.26436e-06
3.6715e-06
3.6507e-06
5.54212e-06
7.89838e-06
2.92091e-06
3.90847e-06
3.24969e-06
7.11354e-06
8.42446e-06
1.1772e-05
4.16185e-06
4.29351e-06
5.08464e-06
5.44863e-06
1.08194e-05
1.33458e-05
4.112e-06
3.81817e-06
5.03487e-06
5.7207e-06
3.70637e-06
5.39678e-06
5.70954e-06
8.13281e-06
1.43067e-05
3.35917e-06
6.20329e-06
5.16841e-06
1.233e-05
1.26827e-05
1.696e-05
5.3291e-06
5.65253e-06
7.30324e-06
5.94969e-06
1.4027e-05
1.47277e-05
5.29129e-06
6.14468e-06
6.89184e-06
6.35801e-06
6.39408e-06
5.80118e-06
6.89167e-06
1.55164e-05
1.52739e-05
5.72883e-06
6.60669e-06
6.24671e-06
1.70648e-05
1.83437e-05
2.31723e-05
7.92613e-06
6.76728e-06
8.39912e-06
9.30449e-06
1.54559e-05
2.67574e-05
7.46665e-06
6.43796e-06
8.34006e-06
8.39545e-06
6.84306e-06
9.32055e-06
8.45256e-06
1.50593e-05
2.1597e-05
6.63106e-06
7.89342e-06
8.2644e-06
2.23119e-05
2.36549e-05
2.84199e-05
8.82838e-06
1.00903e-05
1.12669e-05
1.11378e-05
2.78658e-05
2.741e-05
8.82693e-06
9.43742e-06
1.10284e-05
1.18147e-05
9.45855e-06
1.01857e-05
1.15724e-05
2.43865e-05
3.28616e-05
9.16888e-06
1.23468e-05
1.1155e-05
2.971e-05
3.02983e-05
3.69503e-05
1.16972e-05
1.1104e-05
1.39884e-05
1.2631e-05
2.74811e-05
3.55037e-05
1.14625e-05
1.1955e-05
1.40839e-05
1.33469e-05
1.17885e-05
1.36358e-05
1.23145e-05
3.35908e-05
3.45793e-05
1.13611e-05
1.31995e-05
1.18499e-05
3.30965e-05
3.82992e-05
4.43089e-05
1.51058e-05
1.39929e-05
1.72862e-05
1.85402e-05
3.79692e-05
4.52958e-05
1.5168e-05
1.46305e-05
1.69689e-05
1.75961e-05
1.4583e-05
1.73407e-05
2.11741e-05
3.57979e-05
4.45669e-05
1.39499e-05
1.76083e-05
2.0724e-05
5.36644e-05
4.57305e-05
5.03921e-05
1.82472e-05
1.9906e-05
2.18461e-05
2.17562e-05
4.64879e-05
5.11174e-05
1.78422e-05
1.82044e-05
2.16035e-05
2.09252e-05
2.16034e-05
2.07316e-05
2.08706e-05
4.6227e-05
5.00498e-05
2.14724e-05
2.0547e-05
2.09303e-05
4.73306e-05
5.15654e-05
5.69802e-05
2.22095e-05
2.24971e-05
2.41627e-05
2.58345e-05
5.24806e-05
5.70144e-05
2.23854e-05
2.2075e-05
2.55205e-05
2.53781e-05
2.03991e-05
2.5667e-05
2.02856e-05
5.128e-05
5.71356e-05
2.04168e-05
2.51133e-05
1.96202e-05
4.74378e-05
5.85683e-05
6.42111e-05
2.61727e-05
2.62964e-05
3.14455e-05
2.66283e-05
5.76358e-05
5.83851e-05
2.72619e-05
2.62259e-05
3.05987e-05
2.87432e-05
2.08598e-05
2.62358e-05
3.21907e-05
5.82925e-05
6.13279e-05
1.98236e-05
2.70717e-05
2.74147e-05
6.77219e-05
6.51685e-05
6.69873e-05
3.19359e-05
2.70604e-05
3.25112e-05
4.05382e-05
5.98951e-05
7.74917e-05
3.07238e-05
3.01505e-05
3.28321e-05
3.58181e-05
3.63869e-05
4.12055e-05
4.11951e-05
6.28189e-05
7.1051e-05
3.71905e-05
3.8314e-05
5.24517e-05
7.68911e-05
6.80791e-05
7.5184e-05
3.46596e-05
4.31574e-05
4.26027e-05
4.33277e-05
7.93487e-05
7.22431e-05
3.51471e-05
3.79579e-05
4.2693e-05
4.15045e-05
4.09857e-05
4.37237e-05
3.97895e-05
7.25731e-05
7.39008e-05
5.28175e-05
4.08973e-05
4.49957e-05
7.1247e-05
7.63237e-05
7.74062e-05
4.37149e-05
4.14973e-05
4.40493e-05
3.85095e-05
7.14743e-05
6.79959e-05
4.3936e-05
4.18618e-05
4.50071e-05
4.36804e-05
3.91239e-05
3.71367e-05
4.33435e-05
7.41269e-05
7.57706e-05
4.11274e-05
4.06682e-05
3.8454e-05
7.55588e-05
7.79984e-05
8.21724e-05
4.47342e-05
3.78504e-05
4.99614e-05
5.35776e-05
7.02467e-05
8.93498e-05
4.58409e-05
4.50147e-05
5.02379e-05
5.04676e-05
4.47048e-05
5.54534e-05
5.07778e-05
7.71319e-05
8.27246e-05
3.84413e-05
5.17067e-05
5.51353e-05
8.4123e-05
8.36204e-05
8.8265e-05
5.23936e-05
6.0385e-05
6.03838e-05
6.83712e-05
9.22997e-05
9.42282e-05
5.20655e-05
5.21901e-05
5.89929e-05
5.88198e-05
5.40673e-05
7.3643e-05
6.24431e-05
8.38767e-05
8.79276e-05
5.92943e-05
5.82735e-05
6.66491e-05
9.00964e-05
8.90752e-05
9.05302e-05
6.18994e-05
6.81954e-05
6.28548e-05
6.49277e-05
9.4081e-05
8.9574e-05
6.05985e-05
6.08171e-05
6.33028e-05
6.44668e-05
6.33837e-05
6.64071e-05
6.28342e-05
8.90103e-05
9.12761e-05
6.74769e-05
6.45231e-05
6.68901e-05
9.01659e-05
9.10507e-05
9.32363e-05
6.3604e-05
6.36057e-05
6.7191e-05
6.13612e-05
8.93487e-05
8.99823e-05
6.4563e-05
6.56417e-05
6.77014e-05
6.79552e-05
6.24103e-05
6.02687e-05
6.61159e-05
9.18094e-05
9.35829e-05
6.63406e-05
6.83766e-05
6.66568e-05
9.32342e-05
9.40497e-05
9.9038e-05
6.84127e-05
6.20144e-05
7.5749e-05
7.67192e-05
9.15383e-05
0.000101096
6.84105e-05
6.86451e-05
7.48963e-05
7.42187e-05
6.87638e-05
7.73731e-05
7.69431e-05
9.42534e-05
9.80966e-05
6.89937e-05
7.33007e-05
7.79693e-05
0.000100976
0.000100572
0.000103955
7.90117e-05
8.0632e-05
8.34111e-05
8.53751e-05
0.000102623
0.000104654
7.83243e-05
7.66477e-05
8.36615e-05
8.44199e-05
7.99889e-05
8.84632e-05
8.59851e-05
9.9421e-05
0.000104524
8.07598e-05
8.49093e-05
8.52501e-05
0.000104214
0.000104314
0.000105803
8.40585e-05
8.52319e-05
8.81648e-05
8.44788e-05
0.00010469
0.000104365
8.43062e-05
8.62785e-05
8.82288e-05
8.71908e-05
8.6146e-05
8.69173e-05
8.47374e-05
0.000105084
0.000104793
8.51067e-05
8.6931e-05
8.36788e-05
0.000102528
0.000106391
0.000108181
8.88596e-05
8.57673e-05
9.02733e-05
9.32863e-05
0.00010491
0.000110804
8.8984e-05
8.68123e-05
8.99368e-05
8.95794e-05
8.42195e-05
9.20517e-05
8.96602e-05
0.000104672
0.000108897
8.31121e-05
8.93058e-05
9.02481e-05
0.000109648
0.000108995
0.000115416
9.21049e-05
9.50094e-05
9.99399e-05
0.000101467
0.000111857
0.000115137
9.17521e-05
9.29782e-05
0.00010027
0.000104499
9.37789e-05
0.000101492
0.000104417
0.000110971
0.000118235
9.36349e-05
0.000104647
0.000104813
0.000118279
0.000116804
0.000119175
0.000102909
0.000103552
0.000108593
0.00010489
0.000116
0.000116629
0.000103004
0.000106648
0.00010801
0.000106829
0.000107344
0.000105449
0.000109043
0.000118708
0.000117186
0.000107848
0.000107572
0.000109222
0.000119458
0.000119199
0.000118376
0.000108746
0.000104536
0.00010741
0.000103487
0.000116483
0.000117248
0.000108172
0.00010611
0.000107046
0.000104163
0.000108549
0.000103658
0.000104831
0.000116957
0.000116259
0.000108514
0.00010421
0.000104371
0.000114368
0.000118662
0.000125359
0.00010686
0.000106131
0.000113274
0.000121447
0.000119432
0.000131044
0.000106832
0.000103718
0.000113966
0.00011408
0.000103972
0.000120579
0.000112225
0.000116826
0.000125559
0.000103475
0.000111965
0.000116171
0.000128859
0.000127297
0.000131222
0.000118053
0.000123559
0.000125571
0.000123833
0.000131413
0.000128597
0.000118014
0.000118391
0.000125214
0.000127585
0.000119066
0.00012421
0.000128579
0.000127792
0.000134365
0.000123389
0.00012902
0.000129196
0.000133857
0.000131103
0.000128754
0.000125654
0.00012312
0.000123723
0.000119633
0.000128408
0.000126395
0.000125332
0.000128122
0.000123529
0.000126064
0.000128823
0.000120174
0.000126559
0.00013443
0.000129346
0.00012891
0.000126142
0.000121692
0.000128637
0.00012857
0.000133095
0.000123173
0.000119111
0.000123389
0.000118878
0.000126323
0.00012769
0.000123007
0.000124162
0.000123512
0.000121578
0.000124951
0.000118456
0.000122902
0.000128873
0.000128525
0.000120132
0.000121319
0.000118266
0.000128253
0.00013511
0.0001415
0.000127694
0.0001237
0.000138112
0.000142675
0.000130055
0.000147746
0.000128026
0.000121524
0.000138247
0.000137341
0.000122502
0.000142175
0.000134901
0.000130014
0.000142846
0.000119453
0.000136943
0.00013919
0.000142544
0.000141885
0.000141929
0.000139752
0.000146237
0.000140754
0.000148705
0.000149314
0.00014904
0.000139814
0.000140891
0.000140613
0.000143453
0.0001392
0.000149761
0.000143889
0.000144081
0.000143802
0.000143816
0.000144953
0.00014842
0.00014606
0.000141867
0.000143858
0.00014063
0.000148385
0.000142735
0.000141281
0.000148381
0.00013981
0.000140454
0.000143091
0.000141708
0.000141356
0.000143819
0.00014141
0.000142271
0.000143577
0.000141809
0.000148282
0.00014276
0.000143774
0.000141964
0.000144739
0.000145415
0.000144275
0.000139285
0.000145381
0.000136363
0.000139227
0.00013679
0.00014368
0.000140869
0.000146006
0.000146159
0.000141737
0.000135572
0.00014136
0.000141944
0.000146674
0.000141882
0.000143948
0.000139531
0.000142279
0.0001453
0.000146813
0.000145167
0.000135827
0.000144986
0.00014618
0.00013739
0.000148823
0.000145918
0.000147675
0.000145806
0.000148708
0.000143089
0.00014695
0.000149842
0.000147477
0.000148367
0.000139491
0.00014842
0.000150004
0.000150843
0.000148176
0.000155804
0.00014728
0.00015087
0.000158146
0.00016149
0.000151263
0.000158734
0.000147574
0.000148824
0.000157627
0.00015445
0.000152618
0.000162097
0.000159016
0.000148523
0.000152709
0.000153362
0.000155023
0.000159273
0.000155705
0.000156421
0.000155811
0.000160163
0.000163163
0.000161473
0.000163932
0.000159025
0.000157916
0.000159659
0.000156882
0.000161063
0.000160344
0.000159757
0.000163669
0.000159495
0.000153726
0.000155699
0.00015978
0.000159932
0.000159376
0.000154525
0.000155687
0.000156042
0.000161269
0.000163525
0.000160419
0.000161878
0.000157706
0.000156643
0.00016087
0.000160482
0.000160047
0.000161433
0.00015917
0.0001613
0.000159488
0.000155777
0.00015768
0.000159039
0.000161772
0.000160006
0.000156492
0.000156893
0.000161992
0.000160774
0.00016157
0.000167195
0.000163484
0.000156711
0.000158373
0.000160474
0.000162887
0.000167774
0.000168679
0.000161696
0.000163554
0.000167667
0.000158555
0.000162741
0.000162012
0.000168688
0.000168052
0.000162034
0.000162318
0.000162513
0.000168405
0.000165077
0.000169274
0.000170555
0.000158987
0.000164345
0.000169314
0.00016997
0.000170585
0.000170503
0.000168767
0.000170744
0.000169508
0.000163004
0.000162144
0.000169301
0.000170295
0.000170167
0.000162398
0.000162444
0.000164971
0.000169349
0.00017234
0.000173103
0.000175637
0.000165331
0.000167396
0.000170471
0.000170227
0.000170787
0.000169484
0.000169514
0.000175615
0.000173233
0.000161992
0.000162353
0.000170048
0.000169304
0.000171539
0.000165391
0.000165894
0.000168554
0.00017486
0.000175784
0.000177954
0.000175175
0.000167279
0.000165126
0.000172468
0.000169692
0.000177855
0.000177815
0.0001751
0.000175196
0.000178044
0.000163237
0.000169767
0.000173447
0.000178109
0.000178112
0.00016861
0.000168573
0.000168618
0.000178166
0.000174918
0.000177985
0.000175765
0.000164964
0.000167573
0.000178773
0.000179689
0.000179309
0.000181523
0.000178147
0.000175652
0.000177796
0.000170299
0.000170532
0.000178713
0.000181447
0.000178853
0.000168321
0.00016887
0.000173282
0.000178124
0.000177992
0.000183367
0.000185117
0.000168835
0.000174981
0.000179499
0.000181508
0.000183316
0.000181531
0.000177801
0.000184641
0.000182786
0.000170392
0.000171322
0.000178907
0.000181272
0.000182525
0.000172835
0.000173867
0.000174586
0.000185143
0.000186945
0.000187632
0.000188769
0.000175689
0.00017605
0.000184632
0.000182648
0.000186416
0.000187183
0.00018495
0.000188978
0.000188467
0.00017198
0.00017542
0.0001843
0.00018745
0.000187806
0.000175631
0.000174458
0.000175511
0.000187735
0.000188748
0.000187692
0.000187465
0.000175771
0.000174203
0.0001865
0.000187816
0.00018822
0.000188159
0.000188662
0.000187972
0.000188446
0.000175534
0.000175416
0.000188121
0.000188762
0.00018799
0.000175017
0.000176072
0.000178431
0.000188061
0.000187298
0.000191026
0.000188875
0.000174013
0.000177442
0.000189493
0.0001882
0.000191529
0.000191291
0.000188318
0.000189379
0.000190367
0.000175293
0.000178308
0.000187904
0.000189948
0.000190597
0.000178282
0.000178536
0.00018039
0.000191787
0.000191136
0.000194868
0.000195628
0.000178471
0.000181218
0.000192018
0.00019291
0.000194877
0.000195759
0.000192168
0.000195327
0.000195535
0.00017919
0.000181103
0.000192389
0.000196001
0.000196244
0.000181241
0.000180917
0.000182082
0.000196131
0.000196969
0.000198192
0.000199052
0.000181605
0.00018317
0.000195768
0.000195939
0.000196836
0.000195855
0.000196162
0.000198638
0.000196807
0.000180973
0.000180255
0.000196671
0.000196362
0.000196691
0.000181014
0.000181995
0.000182863
0.000198309
0.000199085
0.00019838
0.000198246
0.000183055
0.000181859
0.000196922
0.000195757
0.000198692
0.00019866
0.000196802
0.000198255
0.00019756
0.000180089
0.00018396
0.000196609
0.00019789
0.000196897
0.000182542
0.000183316
0.000185499
0.000198525
0.000198151
0.000201648
0.00019968
0.000181673
0.000184731
0.000200136
0.000200797
0.000202671
0.000203791
0.000198833
0.000199998
0.000203223
0.000184939
0.000186723
0.000198806
0.000203952
0.000203895
0.000186972
0.000185514
0.000186148
0.000202397
0.000202101
0.000203853
0.000206439
0.000185781
0.000188866
0.000202895
0.000203944
0.000203303
0.000203818
0.00020422
0.000206721
0.000205109
0.000186551
0.000185944
0.000204563
0.000204127
0.000204893
0.000186689
0.000186502
0.000189357
0.00020474
0.000207107
0.000207768
0.000207654
0.00018892
0.000188949
0.000203788
0.000203784
0.000207381
0.00020572
0.000205092
0.000207469
0.000204936
0.000185789
0.000188076
0.000204666
0.000204902
0.000204444
0.000186628
0.00018939
0.000189126
0.000208205
0.000207655
0.00020832
0.000206616
0.000188718
0.000187439
0.000208101
0.000207002
0.000208589
0.000208701
0.000205057
0.000206563
0.000208477
0.000188578
0.000189717
0.000204627
0.00020867
0.000208855
0.000190237
0.000188984
0.000190216
0.000208198
0.000206445
0.000208528
0.000206913
0.00018729
0.000189044
0.000208573
0.000208857
0.000209065
0.000210433
0.00020956
0.00020771
0.000211765
0.000189696
0.000191367
0.000210203
0.000211309
0.000212247
0.000192438
0.000190793
0.000192508
0.000209776
0.000208662
0.000212921
0.000214151
0.000189806
0.000194091
0.000210286
0.000211315
0.000212654
0.000212552
0.000211934
0.000214098
0.000211878
0.000191663
0.000192109
0.000212373
0.000212401
0.000211532
0.000190864
0.000192434
0.000193774
0.000213212
0.000215678
0.000214969
0.000217724
0.000194764
0.000196989
0.000212866
0.000212662
0.000214484
0.000213126
0.000211842
0.00021757
0.000213086
0.00019196
0.0001925
0.000211313
0.000212585
0.000211874
0.000192636
0.000194259
0.000195432
0.000215931
0.000217882
0.000216984
0.000215303
0.000196927
0.000192101
0.000215481
0.000214017
0.000216866
0.000216632
0.000214821
0.000215001
0.000217036
0.000192906
0.000195231
0.000213779
0.00021681
0.000217479
0.000195824
0.000195181
0.000194029
0.000217134
0.000213577
0.000215766
0.000212134
0.00019093
0.00018988
0.000217087
0.00021719
0.000216518
0.000218116
0.000217296
0.000212133
0.000216731
0.000195318
0.000196162
0.000217824
0.000218456
0.000218012
0.000195212
0.000193849
0.000195991
0.000215695
0.00021222
0.000217228
0.000219823
0.000190619
0.000199153
0.00021648
0.000218215
0.000217576
0.000218016
0.000216649
0.000220105
0.000217265
0.000196059
0.000195454
0.000217813
0.000218088
0.000217549
0.000195284
0.000196652
0.000198784
0.000219266
0.000222261
0.000222469
0.000225157
0.000199952
0.000201908
0.000218926
0.000217846
0.000221306
0.000217888
0.000218107
0.000225113
0.000221015
0.000195137
0.00019489
0.000217626
0.000217565
0.00021868
0.000196939
0.000198719
0.000197447
0.000222752
0.00022549
0.000222062
0.000223113
0.000201638
0.000198079
0.000221597
0.000218199
0.000221585
0.000222617
0.000221941
0.000223404
0.000223084
0.000194985
0.000199666
0.000220036
0.000222844
0.000223188
0.000199527
0.000197115
0.000197187
0.000221151
0.000221324
0.000220253
0.000217846
0.000197119
0.000194009
0.000221453
0.000223978
0.000221683
0.000225383
0.000223315
0.000217876
0.00022165
0.00020023
0.000201956
0.000223481
0.000225703
0.00022392
0.000198184
0.000197314
0.000198902
0.00022036
0.000217566
0.000222229
0.000218415
0.000193792
0.00019566
0.000222097
0.000225721
0.000223202
0.000222013
0.000220861
0.000218057
0.00022011
0.000201555
0.000196495
0.000223099
0.000221762
0.000220936
0.000196313
0.000199092
0.000201633
0.00022356
0.000220729
0.000226614
0.000228705
0.000196687
0.000204797
0.000223391
0.000221282
0.00022522
0.000221484
0.000220227
0.000228838
0.000225684
0.000196008
0.000198229
0.000220846
0.000221166
0.000223117
0.000201271
0.000201598
0.000198787
0.000226812
0.000229447
0.000225912
0.000229187
0.000205044
0.000201725
0.000225522
0.000223556
0.000225337
0.00022649
0.000227699
0.000230001
0.000229181
0.000199315
0.000203147
0.0002259
0.000227416
0.000228553
0.000204196
0.000197198
0.000194726
0.000223332
0.000225268
0.000220571
0.000219912
0.000199089
0.000193318
0.000223594
0.000226886
0.000221229
0.000222413
0.000229076
0.000219869
0.000221336
0.0002028
0.000195814
0.000228974
0.000222418
0.000222069
0.000195231
0.000195057
0.000207973
0.00022082
0.000219971
0.000231337
0.000230497
0.000193058
0.000207335
0.000221418
0.000221832
0.000230763
0.0002242
0.000220806
0.000229365
0.000223742
0.00019532
0.000200746
0.00022101
0.000222101
0.000221865
0.000200719
0.000208968
0.000207783
0.000234062
0.000233533
0.000235636
0.000235298
0.000208546
0.000207371
0.000233763
0.000229034
0.000235616
0.000234528
0.000228324
0.000235129
0.000233359
0.000202705
0.000209684
0.000226474
0.000234539
0.000233492
0.000208262
0.000204616
0.000188407
0.000233602
0.000232718
0.000216068
0.000216312
0.000204009
0.000188953
0.000234678
0.000235097
0.000216716
0.000222408
0.000234013
0.000217721
0.000223803
0.000209447
0.000194432
0.000234106
0.000224945
0.000225751
0.000195875
0.000187334
0.000193209
0.000213965
0.00021483
0.00021469
0.000217122
0.00018827
0.000197129
0.000214058
0.000217698
0.00021393
0.000214596
0.000219843
0.000217112
0.000217104
0.000191756
0.000189407
0.000220842
0.000215176
0.000216739
0.00019139
0.000196633
0.000216451
0.000220706
0.000225273
0.000242154
0.000242009
0.000200644
0.000216191
0.000218272
0.0002152
0.000241385
0.000236283
0.000217562
0.000240532
0.000234637
0.000191251
0.000211312
0.000216745
0.000234384
0.000233282
0.000209649
0.000216871
0.000209764
0.000243726
0.000242724
0.000244103
0.000236427
0.000216251
0.00020179
0.000243584
0.000240112
0.000246234
0.000246862
0.000237341
0.000236535
0.000242158
0.000212616
0.000213395
0.000236907
0.000246178
0.000243608
0.000210098
0.000207859
0.000235683
0.000228277
0.000200007
0.000238054
0.000241469
0.000262285
0.00027289
0.000268262
0.000236526
0.000213038
0.000238725
1.0996e-05
2.18826e-06
5.25757e-06
4.84785e-06
6.38547e-07
1.9138e-06
4.68392e-07
2.23876e-06
8.09008e-07
2.18581e-06
1.78335e-06
1.40098e-06
2.40561e-06
1.79061e-06
7.73942e-07
1.12385e-06
1.50231e-05
1.02117e-06
1.68827e-05
1.06799e-05
1.29338e-05
1.33676e-06
1.31314e-05
1.25889e-06
1.4871e-05
2.6544e-06
2.93636e-06
2.83076e-06
2.75489e-06
2.63634e-06
2.90917e-06
2.81649e-06
6.54161e-07
3.18872e-07
1.28396e-06
1.60913e-06
6.50741e-07
4.27042e-07
1.27354e-06
1.13553e-05
1.34168e-05
8.39506e-07
1.45609e-06
5.65263e-07
1.88858e-06
8.31854e-07
1.45956e-06
6.97274e-07
1.5113e-06
1.53617e-06
2.45578e-06
1.7158e-06
1.79323e-06
1.31798e-06
2.03296e-05
1.23426e-06
2.29438e-05
1.69831e-05
1.91466e-05
1.52529e-06
1.81442e-05
1.4535e-06
2.06069e-05
2.63644e-06
2.89541e-06
2.79648e-06
2.77343e-06
2.63857e-06
2.87351e-06
2.72798e-06