/*--------------------------------*- C++ -*----------------------------------*\
| =========                 |                                                 |
| \\      /  F ield         | OpenFOAM: The Open Source CFD Toolbox           |
|  \\    /   O peration     | Version:  v2012                                 |
|   \\  /    A nd           | Website:  www.openfoam.com                      |
|    \\/     M anipulation  |                                                 |
\*---------------------------------------------------------------------------*/
FoamFile
{
    version     2.0;
    format      ascii;
    class       volScalarField;
    location    "0.3";
    object      p;
}
// * * * * * * * * * * * * * * * * * * * * * * * * * * * * * * * * * * * * * //

dimensions      [0 2 -2 0 0 0 0];


internalField   nonuniform List<scalar> 
247104
(
1.86137e-06
1.86133e-06
1.86147e-06
1.86142e-06
1.86132e-06
1.86145e-06
1.86146e-06
1.86127e-06
1.86134e-06
1.86139e-06
1.86145e-06
1.86128e-06
1.86118e-06
1.86131e-06
1.86146e-06
1.86136e-06
1.86147e-06
1.86145e-06
1.86114e-06
1.86077e-06
1.86062e-06
1.86081e-06
1.86119e-06
1.86146e-06
1.86147e-06
1.86142e-06
1.86128e-06
1.86077e-06
1.86028e-06
1.8601e-06
1.86033e-06
1.86084e-06
1.86133e-06
1.86142e-06
1.86138e-06
1.86132e-06
1.86118e-06
1.86062e-06
1.8601e-06
1.85992e-06
1.86015e-06
1.8607e-06
1.86123e-06
1.8613e-06
1.86145e-06
1.86131e-06
1.86081e-06
1.86033e-06
1.86015e-06
1.86037e-06
1.86088e-06
1.86135e-06
1.86145e-06
1.86146e-06
1.86146e-06
1.86119e-06
1.86084e-06
1.8607e-06
1.86088e-06
1.86123e-06
1.86147e-06
1.86146e-06
1.86126e-06
1.86136e-06
1.86146e-06
1.86133e-06
1.86123e-06
1.86135e-06
1.86147e-06
1.86133e-06
1.86147e-06
1.86142e-06
1.8613e-06
1.86145e-06
1.86146e-06
1.82802e-06
1.82601e-06
1.82552e-06
1.82433e-06
1.82434e-06
1.82427e-06
1.82427e-06
1.82556e-06
1.82586e-06
1.82552e-06
1.82347e-06
1.82075e-06
1.82071e-06
1.82071e-06
1.82075e-06
1.82387e-06
1.82409e-06
1.82433e-06
1.82075e-06
1.82069e-06
1.82075e-06
1.82075e-06
1.82069e-06
1.82075e-06
1.82425e-06
1.8254e-06
1.82802e-06
1.82434e-06
1.82071e-06
1.82075e-06
1.82085e-06
1.82085e-06
1.82075e-06
1.82071e-06
1.82421e-06
1.82584e-06
1.82601e-06
1.82427e-06
1.82071e-06
1.82075e-06
1.82085e-06
1.82085e-06
1.82075e-06
1.82071e-06
1.8244e-06
1.82437e-06
1.82427e-06
1.82075e-06
1.82069e-06
1.82075e-06
1.82075e-06
1.82069e-06
1.82075e-06
1.82416e-06
1.82527e-06
1.82556e-06
1.82387e-06
1.82075e-06
1.82071e-06
1.82071e-06
1.82075e-06
1.82406e-06
1.82426e-06
1.82569e-06
1.82586e-06
1.82409e-06
1.82425e-06
1.82421e-06
1.82439e-06
1.82416e-06
1.82426e-06
1.82608e-06
1.8254e-06
1.82585e-06
1.82437e-06
1.82527e-06
1.82569e-06
1.80791e-06
1.80773e-06
1.80756e-06
1.80542e-06
1.80533e-06
1.8053e-06
1.8054e-06
1.80754e-06
1.80778e-06
1.80755e-06
1.8047e-06
1.80173e-06
1.80164e-06
1.80164e-06
1.80172e-06
1.80525e-06
1.80587e-06
1.80542e-06
1.80172e-06
1.80142e-06
1.80145e-06
1.80145e-06
1.80142e-06
1.80172e-06
1.80607e-06
1.80804e-06
1.80791e-06
1.80533e-06
1.80164e-06
1.80145e-06
1.80148e-06
1.80148e-06
1.80145e-06
1.80164e-06
1.80611e-06
1.80778e-06
1.80773e-06
1.8053e-06
1.80164e-06
1.80145e-06
1.80148e-06
1.80148e-06
1.80145e-06
1.80164e-06
1.80606e-06
1.80598e-06
1.8054e-06
1.80172e-06
1.80142e-06
1.80145e-06
1.80145e-06
1.80142e-06
1.80173e-06
1.80612e-06
1.80812e-06
1.80754e-06
1.80525e-06
1.80172e-06
1.80164e-06
1.80164e-06
1.80172e-06
1.80572e-06
1.80601e-06
1.80802e-06
1.80778e-06
1.80587e-06
1.80607e-06
1.80611e-06
1.80606e-06
1.80612e-06
1.806e-06
1.80795e-06
1.80804e-06
1.80778e-06
1.80598e-06
1.80812e-06
1.80803e-06
1.78883e-06
1.78865e-06
1.78852e-06
1.78632e-06
1.78623e-06
1.78614e-06
1.78633e-06
1.78848e-06
1.78875e-06
1.78852e-06
1.78555e-06
1.7826e-06
1.78256e-06
1.78256e-06
1.7826e-06
1.7861e-06
1.78686e-06
1.78632e-06
1.7826e-06
1.78246e-06
1.78246e-06
1.78246e-06
1.78246e-06
1.7826e-06
1.78701e-06
1.78897e-06
1.78882e-06
1.78623e-06
1.78256e-06
1.78246e-06
1.78247e-06
1.78247e-06
1.78246e-06
1.78256e-06
1.78707e-06
1.78869e-06
1.78865e-06
1.78613e-06
1.78256e-06
1.78246e-06
1.78247e-06
1.78247e-06
1.78246e-06
1.78256e-06
1.78704e-06
1.78696e-06
1.78633e-06
1.7826e-06
1.78246e-06
1.78246e-06
1.78246e-06
1.78246e-06
1.7826e-06
1.78706e-06
1.78902e-06
1.78848e-06
1.7861e-06
1.7826e-06
1.78256e-06
1.78256e-06
1.7826e-06
1.78681e-06
1.78699e-06
1.78898e-06
1.78874e-06
1.78686e-06
1.78701e-06
1.78707e-06
1.78704e-06
1.78706e-06
1.78699e-06
1.789e-06
1.78897e-06
1.78869e-06
1.78696e-06
1.78903e-06
1.78899e-06
1.7697e-06
1.76953e-06
1.76936e-06
1.76716e-06
1.76706e-06
1.76695e-06
1.76716e-06
1.76933e-06
1.76959e-06
1.76937e-06
1.76639e-06
1.76343e-06
1.76342e-06
1.76342e-06
1.76343e-06
1.7669e-06
1.76772e-06
1.76716e-06
1.76343e-06
1.76339e-06
1.76339e-06
1.76339e-06
1.76339e-06
1.76343e-06
1.76788e-06
1.76983e-06
1.7697e-06
1.76706e-06
1.76342e-06
1.76339e-06
1.76339e-06
1.76339e-06
1.76339e-06
1.76342e-06
1.76799e-06
1.7696e-06
1.76953e-06
1.76695e-06
1.76342e-06
1.76339e-06
1.76339e-06
1.76339e-06
1.76339e-06
1.76342e-06
1.76797e-06
1.76786e-06
1.76716e-06
1.76343e-06
1.76339e-06
1.76339e-06
1.76339e-06
1.76339e-06
1.76343e-06
1.76794e-06
1.76993e-06
1.76933e-06
1.7669e-06
1.76343e-06
1.76342e-06
1.76342e-06
1.76343e-06
1.76774e-06
1.76788e-06
1.76984e-06
1.76959e-06
1.76772e-06
1.76788e-06
1.76798e-06
1.76797e-06
1.76794e-06
1.76788e-06
1.76982e-06
1.76983e-06
1.7696e-06
1.76786e-06
1.76992e-06
1.76984e-06
1.75056e-06
1.75039e-06
1.75021e-06
1.74801e-06
1.74791e-06
1.7478e-06
1.74801e-06
1.75019e-06
1.75044e-06
1.75021e-06
1.74724e-06
1.74428e-06
1.74427e-06
1.74427e-06
1.74428e-06
1.74773e-06
1.74857e-06
1.74801e-06
1.74428e-06
1.74426e-06
1.74426e-06
1.74426e-06
1.74426e-06
1.74428e-06
1.74873e-06
1.75069e-06
1.75056e-06
1.74791e-06
1.74427e-06
1.74427e-06
1.74427e-06
1.74427e-06
1.74427e-06
1.74427e-06
1.74885e-06
1.75047e-06
1.75039e-06
1.7478e-06
1.74427e-06
1.74427e-06
1.74427e-06
1.74427e-06
1.74427e-06
1.74427e-06
1.74883e-06
1.74873e-06
1.74801e-06
1.74428e-06
1.74427e-06
1.74427e-06
1.74427e-06
1.74426e-06
1.74428e-06
1.7488e-06
1.75079e-06
1.75019e-06
1.74773e-06
1.74428e-06
1.74427e-06
1.74427e-06
1.74428e-06
1.74862e-06
1.74874e-06
1.7507e-06
1.75044e-06
1.74857e-06
1.74873e-06
1.74885e-06
1.74883e-06
1.7488e-06
1.74874e-06
1.75068e-06
1.75069e-06
1.75047e-06
1.74873e-06
1.75079e-06
1.7507e-06
1.73142e-06
1.73125e-06
1.73107e-06
1.72886e-06
1.72876e-06
1.72865e-06
1.72886e-06
1.73104e-06
1.73129e-06
1.73107e-06
1.7281e-06
1.72513e-06
1.72513e-06
1.72513e-06
1.72513e-06
1.72858e-06
1.72942e-06
1.72886e-06
1.72513e-06
1.72513e-06
1.72513e-06
1.72513e-06
1.72513e-06
1.72513e-06
1.72958e-06
1.73155e-06
1.73142e-06
1.72876e-06
1.72513e-06
1.72513e-06
1.72513e-06
1.72513e-06
1.72513e-06
1.72513e-06
1.72971e-06
1.73133e-06
1.73125e-06
1.72865e-06
1.72513e-06
1.72513e-06
1.72513e-06
1.72513e-06
1.72513e-06
1.72513e-06
1.72969e-06
1.72959e-06
1.72886e-06
1.72513e-06
1.72513e-06
1.72513e-06
1.72513e-06
1.72513e-06
1.72513e-06
1.72966e-06
1.73165e-06
1.73104e-06
1.72858e-06
1.72513e-06
1.72513e-06
1.72513e-06
1.72513e-06
1.72948e-06
1.7296e-06
1.73155e-06
1.73129e-06
1.72942e-06
1.72958e-06
1.72971e-06
1.72969e-06
1.72966e-06
1.7296e-06
1.73153e-06
1.73155e-06
1.73133e-06
1.72959e-06
1.73165e-06
1.73155e-06
1.71227e-06
1.71211e-06
1.71192e-06
1.70972e-06
1.70962e-06
1.70951e-06
1.70972e-06
1.7119e-06
1.71215e-06
1.71192e-06
1.70896e-06
1.70598e-06
1.70598e-06
1.70598e-06
1.70598e-06
1.70944e-06
1.71028e-06
1.70972e-06
1.70598e-06
1.70598e-06
1.70598e-06
1.70598e-06
1.70598e-06
1.70599e-06
1.71044e-06
1.7124e-06
1.71228e-06
1.70962e-06
1.70598e-06
1.70598e-06
1.70598e-06
1.70598e-06
1.70598e-06
1.70598e-06
1.71056e-06
1.71218e-06
1.71211e-06
1.70951e-06
1.70598e-06
1.70598e-06
1.70598e-06
1.70598e-06
1.70598e-06
1.70598e-06
1.71055e-06
1.71044e-06
1.70972e-06
1.70598e-06
1.70598e-06
1.70598e-06
1.70598e-06
1.70598e-06
1.70599e-06
1.71052e-06
1.71251e-06
1.7119e-06
1.70944e-06
1.70598e-06
1.70598e-06
1.70598e-06
1.70598e-06
1.71033e-06
1.71046e-06
1.71241e-06
1.71215e-06
1.71028e-06
1.71044e-06
1.71056e-06
1.71055e-06
1.71051e-06
1.71046e-06
1.71238e-06
1.7124e-06
1.71218e-06
1.71044e-06
1.71251e-06
1.71241e-06
1.69313e-06
1.69296e-06
1.69278e-06
1.69058e-06
1.69048e-06
1.69037e-06
1.69057e-06
1.69276e-06
1.693e-06
1.69278e-06
1.68981e-06
1.68684e-06
1.68684e-06
1.68684e-06
1.68684e-06
1.69029e-06
1.69114e-06
1.69057e-06
1.68684e-06
1.68684e-06
1.68684e-06
1.68684e-06
1.68684e-06
1.68684e-06
1.6913e-06
1.69326e-06
1.69313e-06
1.69048e-06
1.68684e-06
1.68684e-06
1.68684e-06
1.68684e-06
1.68684e-06
1.68684e-06
1.69142e-06
1.69304e-06
1.69296e-06
1.69037e-06
1.68684e-06
1.68684e-06
1.68684e-06
1.68684e-06
1.68684e-06
1.68684e-06
1.69141e-06
1.6913e-06
1.69057e-06
1.68684e-06
1.68684e-06
1.68684e-06
1.68684e-06
1.68684e-06
1.68684e-06
1.69137e-06
1.69336e-06
1.69276e-06
1.69029e-06
1.68684e-06
1.68684e-06
1.68684e-06
1.68684e-06
1.69119e-06
1.69131e-06
1.69326e-06
1.693e-06
1.69114e-06
1.6913e-06
1.69142e-06
1.69141e-06
1.69137e-06
1.69131e-06
1.69324e-06
1.69326e-06
1.69304e-06
1.6913e-06
1.69336e-06
1.69326e-06
1.67399e-06
1.67382e-06
1.67364e-06
1.67143e-06
1.67133e-06
1.67122e-06
1.67143e-06
1.67361e-06
1.67386e-06
1.67363e-06
1.67067e-06
1.6677e-06
1.6677e-06
1.6677e-06
1.6677e-06
1.67115e-06
1.67199e-06
1.67143e-06
1.6677e-06
1.6677e-06
1.6677e-06
1.6677e-06
1.6677e-06
1.6677e-06
1.67215e-06
1.67412e-06
1.67399e-06
1.67133e-06
1.6677e-06
1.6677e-06
1.6677e-06
1.6677e-06
1.6677e-06
1.6677e-06
1.67227e-06
1.6739e-06
1.67382e-06
1.67122e-06
1.6677e-06
1.6677e-06
1.6677e-06
1.6677e-06
1.6677e-06
1.6677e-06
1.67226e-06
1.67216e-06
1.67143e-06
1.6677e-06
1.6677e-06
1.6677e-06
1.6677e-06
1.6677e-06
1.6677e-06
1.67223e-06
1.67422e-06
1.67361e-06
1.67115e-06
1.6677e-06
1.6677e-06
1.6677e-06
1.6677e-06
1.67205e-06
1.67217e-06
1.67412e-06
1.67386e-06
1.67199e-06
1.67215e-06
1.67227e-06
1.67226e-06
1.67223e-06
1.67217e-06
1.67409e-06
1.67412e-06
1.6739e-06
1.67216e-06
1.67422e-06
1.67412e-06
1.65484e-06
1.65467e-06
1.65449e-06
1.65229e-06
1.65219e-06
1.65208e-06
1.65229e-06
1.65447e-06
1.65472e-06
1.65449e-06
1.65152e-06
1.64855e-06
1.64855e-06
1.64855e-06
1.64855e-06
1.652e-06
1.65285e-06
1.65229e-06
1.64855e-06
1.64855e-06
1.64855e-06
1.64855e-06
1.64855e-06
1.64855e-06
1.65301e-06
1.65497e-06
1.65485e-06
1.65219e-06
1.64855e-06
1.64855e-06
1.64855e-06
1.64855e-06
1.64855e-06
1.64855e-06
1.65313e-06
1.65475e-06
1.65467e-06
1.65208e-06
1.64855e-06
1.64855e-06
1.64855e-06
1.64855e-06
1.64855e-06
1.64855e-06
1.65312e-06
1.65301e-06
1.65229e-06
1.64855e-06
1.64855e-06
1.64855e-06
1.64855e-06
1.64855e-06
1.64855e-06
1.65309e-06
1.65508e-06
1.65447e-06
1.65201e-06
1.64855e-06
1.64855e-06
1.64855e-06
1.64855e-06
1.65291e-06
1.65303e-06
1.65498e-06
1.65472e-06
1.65285e-06
1.65301e-06
1.65313e-06
1.65312e-06
1.65308e-06
1.65303e-06
1.65495e-06
1.65497e-06
1.65475e-06
1.65301e-06
1.65508e-06
1.65498e-06
1.6357e-06
1.63553e-06
1.63535e-06
1.63314e-06
1.63304e-06
1.63294e-06
1.63314e-06
1.63532e-06
1.63557e-06
1.63535e-06
1.63238e-06
1.62941e-06
1.62941e-06
1.62941e-06
1.62941e-06
1.63286e-06
1.6337e-06
1.63314e-06
1.62941e-06
1.62941e-06
1.62941e-06
1.62941e-06
1.62941e-06
1.62941e-06
1.63386e-06
1.63583e-06
1.6357e-06
1.63304e-06
1.62941e-06
1.62941e-06
1.62941e-06
1.62941e-06
1.62941e-06
1.62941e-06
1.63399e-06
1.63561e-06
1.63553e-06
1.63294e-06
1.62941e-06
1.62941e-06
1.62941e-06
1.62941e-06
1.62941e-06
1.62941e-06
1.63398e-06
1.63387e-06
1.63314e-06
1.62941e-06
1.62941e-06
1.62941e-06
1.62941e-06
1.62941e-06
1.62941e-06
1.63394e-06
1.63593e-06
1.63532e-06
1.63286e-06
1.62941e-06
1.62941e-06
1.62941e-06
1.62941e-06
1.63376e-06
1.63388e-06
1.63583e-06
1.63557e-06
1.63371e-06
1.63386e-06
1.63399e-06
1.63398e-06
1.63394e-06
1.63388e-06
1.63581e-06
1.63583e-06
1.63561e-06
1.63387e-06
1.63593e-06
1.63583e-06
1.61656e-06
1.61639e-06
1.6162e-06
1.614e-06
1.6139e-06
1.61379e-06
1.614e-06
1.61618e-06
1.61643e-06
1.6162e-06
1.61324e-06
1.61026e-06
1.61026e-06
1.61026e-06
1.61026e-06
1.61372e-06
1.61456e-06
1.614e-06
1.61026e-06
1.61026e-06
1.61026e-06
1.61026e-06
1.61026e-06
1.61026e-06
1.61472e-06
1.61668e-06
1.61656e-06
1.6139e-06
1.61026e-06
1.61026e-06
1.61026e-06
1.61026e-06
1.61026e-06
1.61026e-06
1.61484e-06
1.61647e-06
1.61639e-06
1.61379e-06
1.61026e-06
1.61026e-06
1.61026e-06
1.61026e-06
1.61026e-06
1.61026e-06
1.61483e-06
1.61472e-06
1.614e-06
1.61026e-06
1.61026e-06
1.61026e-06
1.61026e-06
1.61026e-06
1.61026e-06
1.6148e-06
1.61679e-06
1.61618e-06
1.61372e-06
1.61026e-06
1.61026e-06
1.61026e-06
1.61026e-06
1.61462e-06
1.61474e-06
1.61669e-06
1.61643e-06
1.61456e-06
1.61472e-06
1.61484e-06
1.61483e-06
1.61479e-06
1.61474e-06
1.61666e-06
1.61668e-06
1.61647e-06
1.61472e-06
1.61679e-06
1.61669e-06
1.59741e-06
1.59724e-06
1.59706e-06
1.59485e-06
1.59476e-06
1.59465e-06
1.59485e-06
1.59703e-06
1.59728e-06
1.59706e-06
1.59409e-06
1.59112e-06
1.59112e-06
1.59112e-06
1.59112e-06
1.59457e-06
1.59541e-06
1.59485e-06
1.59112e-06
1.59112e-06
1.59112e-06
1.59112e-06
1.59112e-06
1.59112e-06
1.59558e-06
1.59754e-06
1.59741e-06
1.59475e-06
1.59112e-06
1.59112e-06
1.59112e-06
1.59112e-06
1.59112e-06
1.59112e-06
1.5957e-06
1.59732e-06
1.59724e-06
1.59465e-06
1.59112e-06
1.59112e-06
1.59112e-06
1.59112e-06
1.59112e-06
1.59112e-06
1.59569e-06
1.59558e-06
1.59485e-06
1.59112e-06
1.59112e-06
1.59112e-06
1.59112e-06
1.59112e-06
1.59112e-06
1.59565e-06
1.59764e-06
1.59703e-06
1.59457e-06
1.59112e-06
1.59112e-06
1.59112e-06
1.59112e-06
1.59547e-06
1.59559e-06
1.59754e-06
1.59728e-06
1.59542e-06
1.59557e-06
1.5957e-06
1.59569e-06
1.59565e-06
1.59559e-06
1.59752e-06
1.59754e-06
1.59732e-06
1.59558e-06
1.59764e-06
1.59754e-06
1.57827e-06
1.5781e-06
1.57791e-06
1.57571e-06
1.57561e-06
1.5755e-06
1.57571e-06
1.57789e-06
1.57814e-06
1.57791e-06
1.57495e-06
1.57197e-06
1.57197e-06
1.57197e-06
1.57197e-06
1.57543e-06
1.57627e-06
1.57571e-06
1.57197e-06
1.57197e-06
1.57197e-06
1.57197e-06
1.57197e-06
1.57197e-06
1.57643e-06
1.57839e-06
1.57827e-06
1.57561e-06
1.57197e-06
1.57197e-06
1.57197e-06
1.57197e-06
1.57197e-06
1.57197e-06
1.57655e-06
1.57818e-06
1.5781e-06
1.5755e-06
1.57197e-06
1.57197e-06
1.57197e-06
1.57197e-06
1.57197e-06
1.57197e-06
1.57654e-06
1.57643e-06
1.57571e-06
1.57197e-06
1.57197e-06
1.57197e-06
1.57197e-06
1.57197e-06
1.57197e-06
1.57651e-06
1.5785e-06
1.57789e-06
1.57543e-06
1.57197e-06
1.57197e-06
1.57197e-06
1.57197e-06
1.57633e-06
1.57645e-06
1.5784e-06
1.57814e-06
1.57627e-06
1.57643e-06
1.57655e-06
1.57654e-06
1.5765e-06
1.57645e-06
1.57837e-06
1.57839e-06
1.57818e-06
1.57643e-06
1.5785e-06
1.5784e-06
1.55912e-06
1.55895e-06
1.55877e-06
1.55656e-06
1.55646e-06
1.55636e-06
1.55656e-06
1.55874e-06
1.55899e-06
1.55877e-06
1.5558e-06
1.55283e-06
1.55283e-06
1.55283e-06
1.55283e-06
1.55628e-06
1.55712e-06
1.55656e-06
1.55283e-06
1.55283e-06
1.55283e-06
1.55283e-06
1.55283e-06
1.55283e-06
1.55728e-06
1.55925e-06
1.55912e-06
1.55646e-06
1.55283e-06
1.55283e-06
1.55283e-06
1.55283e-06
1.55283e-06
1.55283e-06
1.55741e-06
1.55903e-06
1.55895e-06
1.55636e-06
1.55283e-06
1.55283e-06
1.55283e-06
1.55283e-06
1.55283e-06
1.55283e-06
1.5574e-06
1.55729e-06
1.55656e-06
1.55283e-06
1.55283e-06
1.55283e-06
1.55283e-06
1.55283e-06
1.55283e-06
1.55736e-06
1.55935e-06
1.55874e-06
1.55628e-06
1.55283e-06
1.55283e-06
1.55283e-06
1.55283e-06
1.55718e-06
1.5573e-06
1.55925e-06
1.55899e-06
1.55713e-06
1.55728e-06
1.55741e-06
1.5574e-06
1.55736e-06
1.5573e-06
1.55923e-06
1.55925e-06
1.55903e-06
1.55729e-06
1.55935e-06
1.55925e-06
1.53998e-06
1.53981e-06
1.53962e-06
1.53742e-06
1.53732e-06
1.53721e-06
1.53742e-06
1.5396e-06
1.53985e-06
1.53962e-06
1.53665e-06
1.53369e-06
1.53368e-06
1.53368e-06
1.53368e-06
1.53714e-06
1.53798e-06
1.53742e-06
1.53368e-06
1.53368e-06
1.53368e-06
1.53368e-06
1.53368e-06
1.53368e-06
1.53814e-06
1.5401e-06
1.53998e-06
1.53732e-06
1.53368e-06
1.53368e-06
1.53368e-06
1.53368e-06
1.53368e-06
1.53368e-06
1.53826e-06
1.53989e-06
1.53981e-06
1.53721e-06
1.53368e-06
1.53368e-06
1.53368e-06
1.53368e-06
1.53368e-06
1.53368e-06
1.53825e-06
1.53814e-06
1.53742e-06
1.53368e-06
1.53368e-06
1.53368e-06
1.53368e-06
1.53368e-06
1.53368e-06
1.53822e-06
1.54021e-06
1.5396e-06
1.53714e-06
1.53368e-06
1.53368e-06
1.53368e-06
1.53368e-06
1.53804e-06
1.53816e-06
1.54011e-06
1.53985e-06
1.53798e-06
1.53814e-06
1.53826e-06
1.53825e-06
1.53821e-06
1.53816e-06
1.54008e-06
1.5401e-06
1.53988e-06
1.53814e-06
1.54021e-06
1.54011e-06
1.52083e-06
1.52066e-06
1.52048e-06
1.51827e-06
1.51818e-06
1.51807e-06
1.51827e-06
1.52045e-06
1.5207e-06
1.52048e-06
1.51751e-06
1.51454e-06
1.51454e-06
1.51454e-06
1.51454e-06
1.51799e-06
1.51884e-06
1.51827e-06
1.51454e-06
1.51454e-06
1.51454e-06
1.51454e-06
1.51454e-06
1.51454e-06
1.519e-06
1.52096e-06
1.52083e-06
1.51817e-06
1.51454e-06
1.51454e-06
1.51454e-06
1.51454e-06
1.51454e-06
1.51454e-06
1.51912e-06
1.52074e-06
1.52066e-06
1.51807e-06
1.51454e-06
1.51454e-06
1.51454e-06
1.51454e-06
1.51454e-06
1.51454e-06
1.51911e-06
1.519e-06
1.51827e-06
1.51454e-06
1.51454e-06
1.51454e-06
1.51454e-06
1.51454e-06
1.51454e-06
1.51907e-06
1.52106e-06
1.52045e-06
1.51799e-06
1.51454e-06
1.51454e-06
1.51454e-06
1.51454e-06
1.51889e-06
1.51901e-06
1.52096e-06
1.5207e-06
1.51884e-06
1.51899e-06
1.51912e-06
1.51911e-06
1.51907e-06
1.51901e-06
1.52094e-06
1.52096e-06
1.52074e-06
1.519e-06
1.52106e-06
1.52096e-06
1.50169e-06
1.50152e-06
1.50133e-06
1.49913e-06
1.49903e-06
1.49892e-06
1.49913e-06
1.50131e-06
1.50156e-06
1.50133e-06
1.49836e-06
1.49539e-06
1.49539e-06
1.49539e-06
1.49539e-06
1.49885e-06
1.49969e-06
1.49913e-06
1.49539e-06
1.49539e-06
1.49539e-06
1.49539e-06
1.49539e-06
1.49539e-06
1.49985e-06
1.50181e-06
1.50169e-06
1.49903e-06
1.49539e-06
1.49539e-06
1.49539e-06
1.49539e-06
1.49539e-06
1.49539e-06
1.49997e-06
1.5016e-06
1.50152e-06
1.49892e-06
1.49539e-06
1.49539e-06
1.49539e-06
1.49539e-06
1.49539e-06
1.49539e-06
1.49996e-06
1.49985e-06
1.49913e-06
1.49539e-06
1.49539e-06
1.49539e-06
1.49539e-06
1.49539e-06
1.49539e-06
1.49993e-06
1.50192e-06
1.50131e-06
1.49885e-06
1.49539e-06
1.49539e-06
1.49539e-06
1.49539e-06
1.49975e-06
1.49987e-06
1.50182e-06
1.50156e-06
1.49969e-06
1.49985e-06
1.49997e-06
1.49996e-06
1.49992e-06
1.49987e-06
1.50179e-06
1.50181e-06
1.5016e-06
1.49985e-06
1.50192e-06
1.50182e-06
1.48254e-06
1.48237e-06
1.48219e-06
1.47998e-06
1.47988e-06
1.47978e-06
1.47998e-06
1.48216e-06
1.48241e-06
1.48219e-06
1.47922e-06
1.47625e-06
1.47625e-06
1.47625e-06
1.47625e-06
1.4797e-06
1.48054e-06
1.47998e-06
1.47625e-06
1.47625e-06
1.47625e-06
1.47625e-06
1.47625e-06
1.47625e-06
1.48071e-06
1.48267e-06
1.48254e-06
1.47988e-06
1.47625e-06
1.47625e-06
1.47625e-06
1.47625e-06
1.47625e-06
1.47625e-06
1.48083e-06
1.48245e-06
1.48237e-06
1.47978e-06
1.47625e-06
1.47625e-06
1.47625e-06
1.47625e-06
1.47625e-06
1.47625e-06
1.48082e-06
1.48071e-06
1.47998e-06
1.47625e-06
1.47625e-06
1.47625e-06
1.47625e-06
1.47625e-06
1.47625e-06
1.48078e-06
1.48277e-06
1.48216e-06
1.4797e-06
1.47625e-06
1.47625e-06
1.47625e-06
1.47625e-06
1.4806e-06
1.48072e-06
1.48267e-06
1.48241e-06
1.48055e-06
1.4807e-06
1.48083e-06
1.48082e-06
1.48078e-06
1.48072e-06
1.48265e-06
1.48267e-06
1.48245e-06
1.48071e-06
1.48277e-06
1.48267e-06
1.46339e-06
1.46323e-06
1.46304e-06
1.46084e-06
1.46074e-06
1.46063e-06
1.46084e-06
1.46302e-06
1.46327e-06
1.46304e-06
1.46007e-06
1.4571e-06
1.4571e-06
1.4571e-06
1.4571e-06
1.46056e-06
1.4614e-06
1.46084e-06
1.4571e-06
1.4571e-06
1.4571e-06
1.4571e-06
1.4571e-06
1.4571e-06
1.46156e-06
1.46352e-06
1.4634e-06
1.46074e-06
1.4571e-06
1.4571e-06
1.4571e-06
1.4571e-06
1.4571e-06
1.4571e-06
1.46168e-06
1.4633e-06
1.46323e-06
1.46063e-06
1.4571e-06
1.4571e-06
1.4571e-06
1.4571e-06
1.4571e-06
1.4571e-06
1.46167e-06
1.46156e-06
1.46084e-06
1.4571e-06
1.4571e-06
1.4571e-06
1.4571e-06
1.4571e-06
1.4571e-06
1.46164e-06
1.46363e-06
1.46302e-06
1.46056e-06
1.4571e-06
1.4571e-06
1.4571e-06
1.4571e-06
1.46146e-06
1.46158e-06
1.46353e-06
1.46327e-06
1.4614e-06
1.46156e-06
1.46168e-06
1.46167e-06
1.46163e-06
1.46158e-06
1.4635e-06
1.46352e-06
1.4633e-06
1.46156e-06
1.46363e-06
1.46353e-06
1.44425e-06
1.44408e-06
1.4439e-06
1.44169e-06
1.44159e-06
1.44149e-06
1.44169e-06
1.44387e-06
1.44412e-06
1.4439e-06
1.44093e-06
1.43796e-06
1.43796e-06
1.43796e-06
1.43796e-06
1.44141e-06
1.44225e-06
1.44169e-06
1.43796e-06
1.43796e-06
1.43796e-06
1.43796e-06
1.43796e-06
1.43796e-06
1.44241e-06
1.44438e-06
1.44425e-06
1.44159e-06
1.43796e-06
1.43796e-06
1.43796e-06
1.43796e-06
1.43796e-06
1.43796e-06
1.44254e-06
1.44416e-06
1.44408e-06
1.44149e-06
1.43796e-06
1.43796e-06
1.43796e-06
1.43796e-06
1.43796e-06
1.43796e-06
1.44253e-06
1.44242e-06
1.44169e-06
1.43796e-06
1.43796e-06
1.43796e-06
1.43796e-06
1.43796e-06
1.43796e-06
1.44249e-06
1.44448e-06
1.44387e-06
1.44141e-06
1.43796e-06
1.43796e-06
1.43796e-06
1.43796e-06
1.44231e-06
1.44243e-06
1.44438e-06
1.44412e-06
1.44226e-06
1.44241e-06
1.44254e-06
1.44253e-06
1.44249e-06
1.44243e-06
1.44436e-06
1.44438e-06
1.44416e-06
1.44242e-06
1.44448e-06
1.44438e-06
1.4251e-06
1.42493e-06
1.42475e-06
1.42255e-06
1.42245e-06
1.42234e-06
1.42255e-06
1.42473e-06
1.42498e-06
1.42475e-06
1.42178e-06
1.41881e-06
1.41881e-06
1.41881e-06
1.41881e-06
1.42226e-06
1.42311e-06
1.42255e-06
1.41881e-06
1.41881e-06
1.41881e-06
1.41881e-06
1.41881e-06
1.41881e-06
1.42327e-06
1.42523e-06
1.42511e-06
1.42245e-06
1.41881e-06
1.41881e-06
1.41881e-06
1.41881e-06
1.41881e-06
1.41881e-06
1.42339e-06
1.42501e-06
1.42493e-06
1.42234e-06
1.41881e-06
1.41881e-06
1.41881e-06
1.41881e-06
1.41881e-06
1.41881e-06
1.42338e-06
1.42327e-06
1.42255e-06
1.41881e-06
1.41881e-06
1.41881e-06
1.41881e-06
1.41881e-06
1.41881e-06
1.42335e-06
1.42534e-06
1.42473e-06
1.42226e-06
1.41881e-06
1.41881e-06
1.41881e-06
1.41881e-06
1.42317e-06
1.42329e-06
1.42524e-06
1.42498e-06
1.42311e-06
1.42327e-06
1.42339e-06
1.42338e-06
1.42334e-06
1.42329e-06
1.42521e-06
1.42523e-06
1.42501e-06
1.42327e-06
1.42534e-06
1.42524e-06
1.40596e-06
1.40579e-06
1.4056e-06
1.4034e-06
1.4033e-06
1.40319e-06
1.4034e-06
1.40558e-06
1.40583e-06
1.40561e-06
1.40264e-06
1.39967e-06
1.39967e-06
1.39967e-06
1.39967e-06
1.40312e-06
1.40396e-06
1.4034e-06
1.39967e-06
1.39967e-06
1.39967e-06
1.39967e-06
1.39967e-06
1.39967e-06
1.40412e-06
1.40609e-06
1.40596e-06
1.4033e-06
1.39967e-06
1.39967e-06
1.39967e-06
1.39967e-06
1.39967e-06
1.39967e-06
1.40425e-06
1.40587e-06
1.40579e-06
1.40319e-06
1.39967e-06
1.39967e-06
1.39967e-06
1.39967e-06
1.39967e-06
1.39967e-06
1.40423e-06
1.40413e-06
1.4034e-06
1.39967e-06
1.39967e-06
1.39967e-06
1.39967e-06
1.39967e-06
1.39967e-06
1.4042e-06
1.40619e-06
1.40558e-06
1.40312e-06
1.39967e-06
1.39967e-06
1.39967e-06
1.39967e-06
1.40402e-06
1.40414e-06
1.40609e-06
1.40583e-06
1.40396e-06
1.40412e-06
1.40424e-06
1.40423e-06
1.4042e-06
1.40414e-06
1.40607e-06
1.40609e-06
1.40587e-06
1.40413e-06
1.40619e-06
1.40609e-06
1.38681e-06
1.38664e-06
1.38646e-06
1.38426e-06
1.38416e-06
1.38405e-06
1.38426e-06
1.38643e-06
1.38668e-06
1.38646e-06
1.38349e-06
1.38052e-06
1.38052e-06
1.38052e-06
1.38052e-06
1.38397e-06
1.38482e-06
1.38426e-06
1.38052e-06
1.38052e-06
1.38052e-06
1.38052e-06
1.38052e-06
1.38052e-06
1.38498e-06
1.38694e-06
1.38681e-06
1.38416e-06
1.38052e-06
1.38052e-06
1.38052e-06
1.38052e-06
1.38052e-06
1.38052e-06
1.3851e-06
1.38672e-06
1.38664e-06
1.38405e-06
1.38052e-06
1.38052e-06
1.38052e-06
1.38052e-06
1.38052e-06
1.38052e-06
1.38509e-06
1.38498e-06
1.38426e-06
1.38052e-06
1.38052e-06
1.38052e-06
1.38052e-06
1.38052e-06
1.38052e-06
1.38505e-06
1.38705e-06
1.38644e-06
1.38397e-06
1.38052e-06
1.38052e-06
1.38052e-06
1.38052e-06
1.38487e-06
1.385e-06
1.38694e-06
1.38669e-06
1.38482e-06
1.38498e-06
1.3851e-06
1.38509e-06
1.38505e-06
1.385e-06
1.38692e-06
1.38694e-06
1.38672e-06
1.38498e-06
1.38704e-06
1.38695e-06
1.36767e-06
1.3675e-06
1.36731e-06
1.36511e-06
1.36501e-06
1.3649e-06
1.36511e-06
1.36729e-06
1.36754e-06
1.36731e-06
1.36435e-06
1.36138e-06
1.36138e-06
1.36138e-06
1.36138e-06
1.36483e-06
1.36567e-06
1.36511e-06
1.36138e-06
1.36138e-06
1.36138e-06
1.36138e-06
1.36138e-06
1.36138e-06
1.36583e-06
1.3678e-06
1.36767e-06
1.36501e-06
1.36138e-06
1.36138e-06
1.36138e-06
1.36138e-06
1.36138e-06
1.36138e-06
1.36595e-06
1.36758e-06
1.3675e-06
1.3649e-06
1.36138e-06
1.36138e-06
1.36138e-06
1.36138e-06
1.36138e-06
1.36138e-06
1.36594e-06
1.36584e-06
1.36511e-06
1.36138e-06
1.36138e-06
1.36138e-06
1.36138e-06
1.36138e-06
1.36138e-06
1.36591e-06
1.3679e-06
1.36729e-06
1.36483e-06
1.36138e-06
1.36138e-06
1.36138e-06
1.36138e-06
1.36573e-06
1.36585e-06
1.3678e-06
1.36754e-06
1.36567e-06
1.36583e-06
1.36595e-06
1.36594e-06
1.36591e-06
1.36585e-06
1.36777e-06
1.3678e-06
1.36758e-06
1.36584e-06
1.3679e-06
1.3678e-06
1.34852e-06
1.34835e-06
1.34817e-06
1.34597e-06
1.34587e-06
1.34576e-06
1.34596e-06
1.34814e-06
1.34839e-06
1.34817e-06
1.3452e-06
1.34223e-06
1.34223e-06
1.34223e-06
1.34223e-06
1.34568e-06
1.34653e-06
1.34597e-06
1.34223e-06
1.34223e-06
1.34223e-06
1.34223e-06
1.34223e-06
1.34223e-06
1.34669e-06
1.34865e-06
1.34852e-06
1.34587e-06
1.34223e-06
1.34223e-06
1.34223e-06
1.34223e-06
1.34223e-06
1.34223e-06
1.34681e-06
1.34843e-06
1.34835e-06
1.34576e-06
1.34223e-06
1.34223e-06
1.34223e-06
1.34223e-06
1.34223e-06
1.34223e-06
1.3468e-06
1.34669e-06
1.34596e-06
1.34223e-06
1.34223e-06
1.34223e-06
1.34223e-06
1.34223e-06
1.34223e-06
1.34676e-06
1.34875e-06
1.34815e-06
1.34568e-06
1.34223e-06
1.34223e-06
1.34223e-06
1.34223e-06
1.34658e-06
1.34671e-06
1.34865e-06
1.34839e-06
1.34653e-06
1.34669e-06
1.34681e-06
1.3468e-06
1.34676e-06
1.34671e-06
1.34863e-06
1.34865e-06
1.34843e-06
1.34669e-06
1.34875e-06
1.34865e-06
1.32938e-06
1.32921e-06
1.32902e-06
1.32682e-06
1.32672e-06
1.32661e-06
1.32682e-06
1.329e-06
1.32925e-06
1.32902e-06
1.32606e-06
1.32309e-06
1.32309e-06
1.32309e-06
1.32309e-06
1.32654e-06
1.32738e-06
1.32682e-06
1.32309e-06
1.32309e-06
1.32309e-06
1.32309e-06
1.32309e-06
1.32309e-06
1.32754e-06
1.32951e-06
1.32938e-06
1.32672e-06
1.32309e-06
1.32309e-06
1.32309e-06
1.32309e-06
1.32309e-06
1.32309e-06
1.32766e-06
1.32929e-06
1.32921e-06
1.32661e-06
1.32309e-06
1.32309e-06
1.32309e-06
1.32309e-06
1.32309e-06
1.32309e-06
1.32765e-06
1.32754e-06
1.32682e-06
1.32309e-06
1.32309e-06
1.32309e-06
1.32309e-06
1.32309e-06
1.32309e-06
1.32762e-06
1.32961e-06
1.329e-06
1.32654e-06
1.32309e-06
1.32309e-06
1.32309e-06
1.32309e-06
1.32744e-06
1.32756e-06
1.32951e-06
1.32925e-06
1.32738e-06
1.32754e-06
1.32766e-06
1.32765e-06
1.32762e-06
1.32756e-06
1.32948e-06
1.32951e-06
1.32929e-06
1.32754e-06
1.32961e-06
1.32951e-06
1.31023e-06
1.31006e-06
1.30988e-06
1.30768e-06
1.30758e-06
1.30747e-06
1.30767e-06
1.30985e-06
1.3101e-06
1.30988e-06
1.30691e-06
1.30394e-06
1.30394e-06
1.30394e-06
1.30394e-06
1.30739e-06
1.30824e-06
1.30767e-06
1.30394e-06
1.30394e-06
1.30394e-06
1.30394e-06
1.30394e-06
1.30394e-06
1.3084e-06
1.31036e-06
1.31023e-06
1.30758e-06
1.30394e-06
1.30394e-06
1.30394e-06
1.30394e-06
1.30394e-06
1.30394e-06
1.30852e-06
1.31014e-06
1.31006e-06
1.30747e-06
1.30394e-06
1.30394e-06
1.30394e-06
1.30394e-06
1.30394e-06
1.30394e-06
1.30851e-06
1.3084e-06
1.30767e-06
1.30394e-06
1.30394e-06
1.30394e-06
1.30394e-06
1.30394e-06
1.30394e-06
1.30847e-06
1.31046e-06
1.30986e-06
1.30739e-06
1.30394e-06
1.30394e-06
1.30394e-06
1.30394e-06
1.30829e-06
1.30842e-06
1.31036e-06
1.3101e-06
1.30824e-06
1.3084e-06
1.30852e-06
1.30851e-06
1.30847e-06
1.30842e-06
1.31034e-06
1.31036e-06
1.31014e-06
1.3084e-06
1.31046e-06
1.31036e-06
1.29109e-06
1.29092e-06
1.29073e-06
1.28853e-06
1.28843e-06
1.28832e-06
1.28853e-06
1.29071e-06
1.29096e-06
1.29073e-06
1.28777e-06
1.2848e-06
1.2848e-06
1.2848e-06
1.2848e-06
1.28825e-06
1.28909e-06
1.28853e-06
1.2848e-06
1.2848e-06
1.2848e-06
1.2848e-06
1.2848e-06
1.2848e-06
1.28925e-06
1.29122e-06
1.29109e-06
1.28843e-06
1.2848e-06
1.2848e-06
1.2848e-06
1.2848e-06
1.2848e-06
1.2848e-06
1.28937e-06
1.291e-06
1.29092e-06
1.28832e-06
1.2848e-06
1.2848e-06
1.2848e-06
1.2848e-06
1.2848e-06
1.2848e-06
1.28936e-06
1.28925e-06
1.28853e-06
1.2848e-06
1.2848e-06
1.2848e-06
1.2848e-06
1.2848e-06
1.2848e-06
1.28933e-06
1.29132e-06
1.29071e-06
1.28825e-06
1.2848e-06
1.2848e-06
1.2848e-06
1.2848e-06
1.28915e-06
1.28927e-06
1.29122e-06
1.29096e-06
1.28909e-06
1.28925e-06
1.28937e-06
1.28936e-06
1.28932e-06
1.28927e-06
1.29119e-06
1.29121e-06
1.291e-06
1.28925e-06
1.29132e-06
1.29122e-06
1.27194e-06
1.27177e-06
1.27159e-06
1.26939e-06
1.26929e-06
1.26918e-06
1.26938e-06
1.27156e-06
1.27181e-06
1.27159e-06
1.26862e-06
1.26565e-06
1.26565e-06
1.26565e-06
1.26565e-06
1.2691e-06
1.26995e-06
1.26938e-06
1.26565e-06
1.26565e-06
1.26565e-06
1.26565e-06
1.26565e-06
1.26565e-06
1.27011e-06
1.27207e-06
1.27194e-06
1.26928e-06
1.26565e-06
1.26565e-06
1.26565e-06
1.26565e-06
1.26565e-06
1.26565e-06
1.27023e-06
1.27185e-06
1.27177e-06
1.26918e-06
1.26565e-06
1.26565e-06
1.26565e-06
1.26565e-06
1.26565e-06
1.26565e-06
1.27022e-06
1.27011e-06
1.26938e-06
1.26565e-06
1.26565e-06
1.26565e-06
1.26565e-06
1.26565e-06
1.26565e-06
1.27018e-06
1.27217e-06
1.27157e-06
1.2691e-06
1.26565e-06
1.26565e-06
1.26565e-06
1.26565e-06
1.27e-06
1.27012e-06
1.27207e-06
1.27181e-06
1.26995e-06
1.27011e-06
1.27023e-06
1.27022e-06
1.27018e-06
1.27012e-06
1.27205e-06
1.27207e-06
1.27185e-06
1.27011e-06
1.27217e-06
1.27207e-06
1.2528e-06
1.25263e-06
1.25244e-06
1.25024e-06
1.25014e-06
1.25003e-06
1.25024e-06
1.25242e-06
1.25267e-06
1.25244e-06
1.24948e-06
1.24651e-06
1.24651e-06
1.24651e-06
1.24651e-06
1.24996e-06
1.2508e-06
1.25024e-06
1.24651e-06
1.24651e-06
1.24651e-06
1.24651e-06
1.24651e-06
1.24651e-06
1.25096e-06
1.25293e-06
1.2528e-06
1.25014e-06
1.24651e-06
1.24651e-06
1.24651e-06
1.24651e-06
1.24651e-06
1.24651e-06
1.25108e-06
1.25271e-06
1.25263e-06
1.25003e-06
1.24651e-06
1.24651e-06
1.24651e-06
1.24651e-06
1.24651e-06
1.24651e-06
1.25107e-06
1.25096e-06
1.25024e-06
1.24651e-06
1.24651e-06
1.24651e-06
1.24651e-06
1.24651e-06
1.24651e-06
1.25104e-06
1.25303e-06
1.25242e-06
1.24996e-06
1.24651e-06
1.24651e-06
1.24651e-06
1.24651e-06
1.25086e-06
1.25098e-06
1.25293e-06
1.25267e-06