/*--------------------------------*- C++ -*----------------------------------*\
| =========                 |                                                 |
| \\      /  F ield         | OpenFOAM: The Open Source CFD Toolbox           |
|  \\    /   O peration     | Version:  v2006                                 |
|   \\  /    A nd           | Website:  www.openfoam.com                      |
|    \\/     M anipulation  |                                                 |
\*---------------------------------------------------------------------------*/
FoamFile
{
    version     2.0;
    format      ascii;
    class       volScalarField;
    location    "1000";
    object      nut;
}
// * * * * * * * * * * * * * * * * * * * * * * * * * * * * * * * * * * * * * //

dimensions      [0 2 -1 0 0 0 0];


internalField   nonuniform List<scalar> 
14199
(
0.000137744
0.000177225
0.000137378
0.000168313
9.84679e-05
9.81725e-05
3.64352e-05
9.35325e-05
4.07421e-05
9.79054e-05
9.2957e-05
4.07345e-05
3.64434e-05
3.64327e-05
9.28092e-05
4.0741e-05
9.77195e-05
9.24717e-05
4.07345e-05
3.6438e-05
2.01722e-05
7.80613e-05
7.79047e-05
2.01731e-05
0.000146286
0.000120442
0.000131937
0.000157174
0.000161647
0.000137246
0.000158709
0.000161562
0.000130782
0.000131947
0.000158284
0.00016096
0.000137313
0.000157416
0.000161413
0.000132
0.000119336
0.000151915
0.000150542
0.000119517
7.48025e-05
2.36462e-05
9.94786e-05
5.02571e-05
5.01905e-05
0.000185118
9.92036e-05
2.36117e-05
0.00017048
7.39209e-05
0.000180785
9.73279e-05
0.000121084
7.37019e-05
4.79975e-05
9.97551e-05
4.79568e-05
0.000118214
2.36401e-05
2.01751e-05
5.02335e-05
7.85589e-05
7.81716e-05
2.01806e-05
5.01558e-05
2.36034e-05
7.44096e-05
2.14055e-05
2.13882e-05
7.61387e-05
2.13777e-05
2.13947e-05
9.68861e-05
0.000121508
7.22906e-05
4.79282e-05
0.000117688
9.96287e-05
4.78742e-05
0.000117789
0.000147915
0.00013773
9.80971e-05
0.00013493
0.00015048
0.000116438
0.000139514
9.69808e-05
0.000135313
0.000125829
0.000150085
0.000165277
0.000151055
0.000145922
0.000129836
0.000145719
0.000172628
9.37097e-05
9.3731e-05
0.000131174
0.000184657
5.0128e-05
0.000131003
9.40581e-05
0.000176585
0.000184699
3.63621e-05
4.06591e-05
8.90423e-05
9.45977e-05
4.06635e-05
8.98131e-05
3.63577e-05
2.0124e-05
7.55259e-05
7.59134e-05
2.01237e-05
3.63625e-05
8.90389e-05
4.06589e-05
9.46115e-05
8.97649e-05
4.06631e-05
3.63592e-05
2.01191e-05
7.55563e-05
5.01348e-05
7.60146e-05
2.01178e-05
2.36006e-05
9.49129e-05
7.1169e-05
0.000114791
4.78502e-05
7.33442e-05
2.13763e-05
2.13927e-05
9.56096e-05
4.79386e-05
0.000147045
0.000112108
0.000113881
0.000143649
0.000156941
0.000125276
0.000158456
0.00013356
0.000127421
0.000162256
0.000153195
0.000155914
0.00012482
0.000158117
0.00013338
0.000161941
0.000126915
0.000152134
0.000145238
0.000111391
0.000129006
9.51949e-05
0.000113013
0.000131645
0.000141886
0.00012277
0.000141699
0.000121834
0.000124617
2.36129e-05
7.54451e-05
5.0004e-05
7.64768e-05
2.35734e-05
7.481e-05
0.000111154
0.000110963
4.78838e-05
9.8653e-05
0.000121491
0.000120889
0.000115971
0.000129732
9.55595e-05
0.000110309
0.000121494
0.000136086
0.000131929
0.000135222
0.000115987
0.000110366
0.000121922
0.000112686
0.000113301
9.44312e-05
5.00805e-05
9.52501e-05
2.36473e-05
0.000116425
0.00012578
0.000120216
0.00011743
0.000132942
9.40852e-05
5.00542e-05
9.49802e-05
0.000125448
0.00011401
0.000125589
0.0001315
7.53233e-05
7.41962e-05
2.36379e-05
5.00239e-05
3.63126e-05
8.99419e-05
4.05717e-05
9.52081e-05
9.09338e-05
4.0589e-05
3.62895e-05
2.01215e-05
5.00651e-05
7.76003e-05
7.75999e-05
2.0134e-05
3.63278e-05
9.53334e-05
9.10536e-05
4.05968e-05
9.11268e-05
4.05959e-05
3.63312e-05
2.36226e-05
3.62873e-05
4.05654e-05
8.8839e-05
9.49006e-05
4.05815e-05
8.99175e-05
3.62703e-05
2.01079e-05
5.00342e-05
7.69097e-05
7.65417e-05
2.01181e-05
3.63033e-05
9.50555e-05
4.05901e-05
9.02754e-05
4.05889e-05
9.02788e-05
3.63077e-05
9.9252e-05
0.000109895
7.54418e-05
4.8005e-05
4.7922e-05
0.000109854
9.93432e-05
9.8914e-05
0.00010827
7.43449e-05
4.79873e-05
0.000108304
4.79328e-05
9.88622e-05
8.66092e-05
2.15195e-05
2.15509e-05
2.14131e-05
2.14426e-05
8.76351e-05
2.36268e-05
2.01471e-05
5.00247e-05
7.62043e-05
7.63992e-05
2.01454e-05
0.000115571
0.000116629
0.000113403
0.000113248
0.000113441
0.0001155
0.000116543
0.000121524
9.37671e-05
0.000107313
0.000123475
9.40645e-05
0.00011702
0.00010816
0.000134849
0.000121195
0.0001381
0.000125896
0.000121445
0.000137736
0.00013491
0.000127575
9.53106e-05
0.000110096
0.000128116
9.53243e-05
0.000110149
0.00012025
0.000125357
0.000121216
0.000134484
0.000134198
0.000125854
0.000121459
0.000136503
0.000133636
0.000137484
0.00012039
0.000125572
0.000137108
0.000120676
0.000133708
0.000118827
9.5036e-05
0.000109449
0.000126313
9.50773e-05
0.000109486
0.000118925
0.000125047
0.000133784
0.000120497
0.000132942
0.000125535
0.00013586
0.000120715
5.02088e-05
0.000100637
0.000186261
0.000154614
0.000133316
2.36476e-05
7.56678e-05
0.000158395
0.000181646
0.000144484
0.000137508
0.000138796
9.72972e-05
0.000186098
0.000184662
0.000139752
9.72989e-05
0.000139613
7.6333e-05
2.36749e-05
2.36503e-05
0.000156121
0.00015727
0.000153911
0.000112172
0.000130544
9.54637e-05
0.000156776
0.00015268
9.67499e-05
0.000155522
0.000125769
0.000101375
0.00013784
0.000136642
7.3357e-05
7.59567e-05
0.000154322
7.74359e-05
7.83511e-05
2.36643e-05
0.000171378
7.55432e-05
5.02797e-05
5.02376e-05
9.85348e-05
0.000156293
9.75304e-05
9.69923e-05
5.02552e-05
9.66257e-05
0.000135119
9.98623e-05
0.000177516
0.000134246
0.000165948
7.5738e-05
7.39886e-05
0.000142758
7.39375e-05
7.4182e-05
2.3674e-05
2.36797e-05
9.66536e-05
5.02519e-05
5.02839e-05
9.47555e-05
0.000130758
0.000145178
9.41135e-05
0.000150503
0.00014761
0.000100063
0.000124896
9.65484e-05
5.03303e-05
5.04232e-05
9.42502e-05
0.000137308
0.000142958
9.8326e-05
0.000155148
0.000156556
0.00010198
0.000134947
2.37333e-05
2.37765e-05
2.37601e-05
2.3776e-05
2.01296e-05
5.01715e-05
7.72841e-05
2.01354e-05
7.65312e-05
2.36351e-05
9.95673e-05
0.000123819
7.4239e-05
4.80612e-05
0.00012058
0.000102059
4.79957e-05
3.63726e-05
9.20841e-05
9.58885e-05
4.06882e-05
3.63861e-05
9.08549e-05
4.06739e-05
3.63739e-05
9.58816e-05
4.06893e-05
9.22044e-05
3.63885e-05
4.06748e-05
9.09458e-05
2.01268e-05
7.75109e-05
2.0135e-05
7.67246e-05
0.000106605
7.81471e-05
0.000124948
4.80704e-05
0.000102917
0.000129113
4.81715e-05
8.16513e-05
2.14341e-05
2.14172e-05
2.14607e-05
7.85755e-05
2.1476e-05
2.36675e-05
2.36558e-05
8.13164e-05
2.16502e-05
2.16462e-05
2.16395e-05
2.16382e-05
8.21436e-05
9.92683e-05
0.000111961
7.50375e-05
4.82618e-05
0.000116021
4.83496e-05
9.64937e-05
0.000101071
0.000116095
7.70519e-05
4.83552e-05
0.000119727
4.8415e-05
9.85665e-05
0.000101546
4.84553e-05
7.63848e-05
0.000122543
0.000119619
4.84111e-05
0.000103386
0.000103042
4.84738e-05
7.78208e-05
0.000125079
0.000122733
4.8452e-05
0.000104531
8.01415e-05
2.15975e-05
2.16035e-05
2.1625e-05
2.16268e-05
7.85349e-05
2.36559e-05
7.71647e-05
2.14501e-05
2.1455e-05
7.89145e-05
2.1434e-05
2.14268e-05
9.93056e-05
0.000122322
4.80622e-05
7.4534e-05
0.000101459
4.80154e-05
0.00011977
2.01733e-05
5.02741e-05
7.89393e-05
7.88002e-05
2.01814e-05
2.01569e-05
7.77303e-05
5.02546e-05
7.82346e-05
2.01485e-05
3.64128e-05
4.07178e-05
9.22338e-05
9.64671e-05
3.64194e-05
4.07116e-05
9.17206e-05
2.01614e-05
7.78466e-05
5.02289e-05
2.01651e-05
7.74133e-05
3.6395e-05
4.07126e-05
9.1493e-05
9.60955e-05
3.64029e-05
4.07061e-05
9.09283e-05
2.01306e-05
7.70873e-05
2.01359e-05
7.66215e-05
7.70805e-05
2.14473e-05
2.14622e-05
2.14523e-05
2.14652e-05
7.64625e-05
9.80133e-05
0.000116602
7.54166e-05
4.80724e-05
4.80517e-05
0.00011635
9.85547e-05
9.6906e-05
0.000113417
7.41324e-05
4.8037e-05
0.000113475
4.80453e-05
9.71342e-05
9.73657e-05
4.80099e-05
7.46227e-05
0.000115458
4.80273e-05
0.000115859
9.68353e-05
9.66511e-05
4.80563e-05
7.41736e-05
0.000114148
0.000113736
4.80487e-05
9.6494e-05
7.78071e-05
2.14752e-05
2.1481e-05
2.1464e-05
2.14741e-05
7.8477e-05
2.36779e-05
2.36783e-05
3.6446e-05
9.20821e-05
4.07456e-05
9.61792e-05
9.18039e-05
4.07404e-05
3.64485e-05
2.01932e-05
5.0268e-05
7.76498e-05
7.79071e-05
2.01909e-05
2.01917e-05
7.81266e-05
5.02771e-05
7.80472e-05
2.01908e-05
3.64426e-05
9.55943e-05
9.08161e-05
4.07209e-05
9.1423e-05
4.07339e-05
3.64328e-05
3.64443e-05
4.07478e-05
9.18243e-05
9.59391e-05
4.07408e-05
9.12157e-05
3.64517e-05
2.01851e-05
5.03752e-05
7.65687e-05
7.72273e-05
2.01738e-05
2.01887e-05
7.80446e-05
5.04036e-05
7.76627e-05
2.0194e-05
3.64367e-05
9.52332e-05
4.07177e-05
8.95864e-05
4.07327e-05
9.05521e-05
3.64213e-05
2.37552e-05
2.3767e-05
2.37707e-05
2.37742e-05
2.36621e-05
9.86457e-05
5.02934e-05
9.88547e-05
9.82163e-05
5.04027e-05
9.84635e-05
5.04225e-05
2.36825e-05
3.64735e-05
4.07643e-05
9.41043e-05
9.88112e-05
3.64744e-05
4.07643e-05
9.42082e-05
2.02037e-05
5.03343e-05
7.90898e-05
7.95354e-05
2.01961e-05
3.6467e-05
9.88535e-05
9.41304e-05
4.0755e-05
4.07611e-05
9.42265e-05
3.64591e-05
3.64622e-05
4.07609e-05
9.3116e-05
9.84009e-05
3.64635e-05
4.07609e-05
9.32525e-05
2.01896e-05
7.858e-05
5.04181e-05
2.01921e-05
7.86217e-05
3.64557e-05
9.84453e-05
9.32252e-05
4.07524e-05
4.07578e-05
9.32807e-05
3.64493e-05
2.01826e-05
5.04224e-05
7.83843e-05
7.85765e-05
2.01795e-05
0.000150902
0.000141309
9.86728e-05
0.000118846
0.000154801
0.000116331
0.000137899
0.00012474
0.000129159
0.000131285
0.000139587
0.000134913
0.000137066
0.000120185
0.000120803
0.00013487
0.000133073
0.000143583
0.000132894
0.000134548
0.000121059
0.000160568
0.000133203
0.000170013
0.000136697
0.000164775
0.000130324
0.000166042
0.000159735
0.00016991
0.000136522
0.00013278
0.000164244
0.000165779
0.000129812
0.000149331
0.000118005
0.000153726
0.000115385
0.0001726
0.000154189
0.00014721
0.000140944
0.000148419
0.000146496
0.000138724
0.000134768
0.000134144
0.00011633
0.000109431
0.000116569
0.000116128
0.00011163
0.000114713
0.000115312
0.000145444
0.000142055
0.000125553
0.000146454
0.000129078
0.000124439
0.000145057
0.000143031
0.000134429
0.000125305
9.60512e-05
0.000110938
0.000125606
0.000111919
0.000134077
0.000135401
0.000113339
9.64144e-05
0.000127136
0.000126484
0.000112628
0.000136177
0.00014068
0.000127499
0.000121904
0.000142439
0.000123298
0.000143181
0.000140142
0.000103355
0.000121245
0.000119639
0.000155195
0.00014126
0.000144724
0.000153157
0.000133299
0.00013776
0.000133028
0.000159306
0.000161461
0.000160849
0.000159229
0.000133128
0.000133322
0.000137476
0.000159029
0.000157207
0.000159235
0.000158337
0.000128774
0.000148462
0.000145627
0.000147496
0.000140964
0.000142996
0.000131995
0.000128389
0.000152727
0.000166992
0.000151495
0.000148651
0.000131831
0.000147715
0.000141281
0.000130557
9.8496e-05
0.000115644
0.000115658
0.000130535
0.000141224
0.000141168
0.000115086
9.80878e-05
0.000130256
0.000115517
0.000141084
0.000130412
0.00015481
0.000130029
0.00015891
0.000134194
0.000156879
0.000128947
0.000157831
0.000147488
0.00013827
0.000117292
9.86415e-05
0.000135833
0.000149837
0.000116016
0.000149796
0.000127878
0.000156206
0.00013345
0.000150285
0.000127179
0.00015554
0.000140355
0.000114221
0.000140831
0.000113587
0.000120599
0.000142911
0.000134218
0.000132856
0.000132678
0.000134264
0.000120542
0.00014266
0.000146839
0.00012674
0.000128968
0.000144673
0.000124815
0.000145308
0.000133017
0.000122031
9.64974e-05
0.000109384
0.000126316
0.00011194
0.000129149
0.000137709
0.000115955
9.84404e-05
0.000134201
0.00013077
0.000114124
0.000141175
0.000138473
0.000126991
0.000140379
0.0001202
0.000141643
0.000122628
0.000136063
0.000136964
0.000131205
0.000131771
0.000153162
0.000159567
0.00015793
0.000155336
0.000117127
0.00011546
9.99718e-05
0.000141252
0.000128406
0.000132418
0.000137366
0.000118241
0.000118999
0.000101119
0.000145294
0.000138898
0.000136185
0.000148071
0.00013626
0.000130267
0.000128706
0.000149461
0.000152156
0.000154959
0.000146201
0.000122386
0.000153993
0.000103718
0.000147563
0.00011666
0.000181158
0.000133826
0.000134389
0.000159483
0.000112029
0.0001566
0.000157778
0.000190348
0.000115996
0.000160766
0.000159181
0.000159795
0.000181613
0.000157157
0.000131224
0.000155439
0.000176615
0.000119775
0.000177066
0.000136945
0.000155637
0.000112662
0.000187564
0.000140375
0.000125106
0.000120491
0.000126673
0.000155377
0.000140059
0.000124461
0.000115612
0.000150943
0.000157126
0.000180329
0.000110404
0.000146518
0.00011567
0.00017752
0.000184559
0.000120448
0.000148398
0.000126902
0.000144182
0.000144662
0.000132131
0.000135233
0.000125501
0.00012493
0.000116088
0.000143089
0.000131906
0.000176587
0.000134557
0.000137103
0.000110497
0.00014401
0.000173977
0.000138081
0.000135748
0.000118052
0.000154675
0.000165773
0.000155029
0.000132265
0.000165878
0.000150808
0.000127375
0.000157893
0.000154868
0.000156134
0.000170125
0.000195238
0.00012449
0.0001444
0.000116179
0.000157657
0.0001972
0.000124658
0.000190144
0.000118196
0.000108175
0.000163235
0.000157268
0.000165961
0.000163696
0.000167075
0.000164145
0.000164166
0.000161788
0.000170266
0.000195599
0.000166388
0.000166743
0.000118557
0.000162341
0.000173082
0.00019667
0.000148633
0.000121241
0.000166011
0.000170842
0.000177108
0.000158491
0.000170602
0.000169524
0.000159387
0.000171214
0.000131872
0.000154785
0.000113273
0.000166649
0.000158853
0.000171677
0.000156107
0.000185023
0.000132116
0.000190233
0.000145364
0.00015287
0.000181318
0.000156484
0.000188738
0.000178696
0.000169085
0.000122597
0.000167766
0.000131248
0.000137378
0.000158012
0.000112979
0.000168391
0.000168938
0.000156074
0.000142136
0.000144926
0.000184867
0.000156719
0.000165707
0.000153254
0.000130215
0.00018785
0.000144199
0.000171359
0.000158239
0.000117973
0.000127246
0.000131152
0.000175366
0.000131044
0.000186522
0.000178497
0.000183509
0.000132371
0.000136026
0.00012841
0.000132289
0.000161176
0.000191012
0.000141663
0.000124895
0.0001267
0.000162993
0.000134354
0.000135808
0.000128027
0.000138137
0.000182746
0.00014079
0.000183694
0.000183336
0.000162192
0.000178038
0.000146008
0.000134298
0.000137948
0.000183444
0.000186264
0.000136477
0.000159028
0.000133478
0.000137793
8.47276e-05
0.000131375
0.000156422
0.000148143
7.46619e-05
9.35909e-05
4.99377e-05
2.35776e-05
4.99654e-05
0.000158144
0.000119923
0.00011383
0.000102598
0.000154142
8.81135e-05
0.000159934
0.000129913
0.000150545
0.000170137
9.89083e-05
0.00015629
0.000142706
2.35342e-05
0.000127732
0.000112778
0.000113189
0.000114293
9.40715e-05
0.000126882
7.97887e-05
7.9676e-05
0.000181645
8.47012e-05
8.47856e-05
8.95756e-05
4.99216e-05
9.00416e-05
5.00281e-05
2.35485e-05
2.35554e-05
8.72861e-05
4.98571e-05
8.80224e-05
4.99666e-05
0.000147322
8.91951e-05
0.000159993
0.000123034
0.000123522
0.0001108
0.000136173
0.000125325
9.45812e-05
0.000153986
0.000140423
0.000129356
9.33032e-05
0.000150653
2.34469e-05
2.35528e-05
0.000120082
0.000129424
8.59353e-05
0.000118781
0.000125965
0.000131104
8.46636e-05
8.05469e-05
7.94794e-05
0.000154791
7.28298e-05
7.10367e-05
9.24532e-05
5.02192e-05
9.06259e-05
5.02242e-05
2.35647e-05
2.36028e-05
9.89352e-05
5.0331e-05
9.389e-05
5.03868e-05
0.000121095
0.000130278
0.000122153
0.000154661
0.000121848
0.000179109
0.000105383
0.000113144
8.92022e-05
0.000135474
0.000134762
0.000115704
8.83421e-05
0.000132893
2.38783e-05
2.39492e-05
0.000121494
0.000140094
9.63323e-05
0.000177147
0.000117138
0.000146439
0.000106031
6.40396e-05
6.5096e-05
0.000103928
6.30038e-05
6.59534e-05
9.77651e-05
5.01801e-05
9.64129e-05
5.02241e-05
2.37899e-05
2.38141e-05
9.2068e-05
5.01329e-05
9.92357e-05
4.99907e-05
0.00013089
0.000182603
0.00010479
0.000159009
0.00014136
0.000175397
0.000132655
0.000134371
9.96299e-05
0.000132148
0.00016429
0.000120023
0.000107673
0.00013712
2.36944e-05
2.34924e-05
0.000131473
0.000163343
0.00010982
0.000188519
0.000130752
0.00016506
9.92124e-05
7.23601e-05
7.20274e-05
0.000143226
8.03346e-05
7.7351e-05
9.46073e-05
5.02217e-05
9.64792e-05
5.0184e-05
2.35338e-05
2.34216e-05
9.64885e-05
5.01003e-05
8.93696e-05
5.03513e-05
0.000138061
0.000165066
0.000152161
0.000162125
0.000119909
0.000147946
0.000181548
0.00013364
0.00010512
0.000161195
0.000149396
0.000142036
8.84616e-05
0.00016049
2.35371e-05
2.37358e-05
0.000128706
0.000163288
9.12104e-05
0.000157735
0.000128383
0.00016267
9.48473e-05
8.47704e-05
8.07525e-05
0.000186314
7.88621e-05
7.98899e-05
9.38715e-05
5.00734e-05
9.38103e-05
4.99414e-05
2.35557e-05
2.3724e-05
0.000100936
5.03813e-05
0.000103409
5.00192e-05
0.000118149
0.0001427
0.000182421
0.000128964
0.000124045
0.000124697
0.000171595
0.000119028
8.05295e-05
0.000149241
0.000132085
0.00011907
8.9926e-05
0.000147598
2.38046e-05
2.35743e-05
0.000136186
0.000163514
0.000104705
0.000153771
0.000136066
0.000161889
0.000103836
7.41287e-05
7.90321e-05
0.000168665
7.55721e-05
7.83372e-05
9.20151e-05
4.98919e-05
9.25954e-05
5.00144e-05
2.38015e-05
2.37474e-05
8.33676e-05
4.96804e-05
8.52971e-05
4.98137e-05
0.000140367
0.00011882
0.000160456
0.000112006
0.000176393
0.000114015
0.000127488
0.000136432
0.000107362
0.000156491
0.00018839
0.00013429
0.000108799
0.000167274
2.33805e-05
2.35122e-05
0.00011804
0.000151293
8.42718e-05
0.00013403
0.000124419
0.000144509
8.16329e-05
7.8229e-05
7.6071e-05
0.000144799
7.74074e-05
7.16187e-05
9.61826e-05
5.03357e-05
9.36359e-05
5.0454e-05
2.36813e-05
2.36835e-05
9.99035e-05
5.0426e-05
9.28297e-05
5.0604e-05
0.00017648
0.000115141
0.000119661
0.000152443
0.000147148
0.000156993
0.000116701
0.00012418
9.8534e-05
0.000171977
0.000177912
0.000128433
9.51811e-05
0.000169122
2.38659e-05
2.3932e-05
0.000125504
0.000137912
9.52349e-05
0.000158522
0.000117256
0.00013904
0.000104709
6.67594e-05
6.65036e-05
0.000120855
6.52441e-05
6.77571e-05
2.35205e-05
2.35189e-05
0.000121728
7.05228e-05
7.076e-05
2.35053e-05
2.35052e-05
2.34905e-05
2.34982e-05
0.000121444
6.60681e-05
6.53307e-05
6.87864e-05
6.86625e-05
9.36403e-05
5.00095e-05
0.000126932
0.000126219
9.2443e-05
0.000133904
0.000127886
0.00017206
9.75028e-05
0.000154539
9.25687e-05
4.99068e-05
4.9915e-05
9.04651e-05
9.2558e-05
4.99222e-05
4.99739e-05
9.05761e-05
0.000125132
0.000126593
8.70254e-05
0.000136021
9.04926e-05
0.000136089
0.000120095
0.000125833
0.000166642
9.14426e-05
0.000150606
9.54009e-05
0.00015309
0.000120585
0.000164791
7.50921e-05
7.66631e-05
2.36217e-05
2.35488e-05
2.35612e-05
0.000159004
7.02997e-05
7.29109e-05
7.33131e-05
7.54655e-05
2.35855e-05
2.36069e-05
0.000123739
9.3206e-05
0.000120467
4.99329e-05
0.000114881
0.00011579
9.42582e-05
9.28163e-05
4.98568e-05
4.99172e-05
8.87883e-05
0.000125143
0.000124272
8.63263e-05
0.000127235
9.08794e-05
0.000124823
0.000118694
9.25361e-05
4.98212e-05
4.98829e-05
8.87345e-05
0.000124802
0.000115497
0.000122808
8.41061e-05
0.000120314
9.15357e-05
0.000118333
9.65643e-05
5.01131e-05
9.51674e-05
0.00013076
0.000133643
0.000133361
0.000169967
0.000147736
0.000106306
0.000136446
9.65166e-05
5.02634e-05
5.02738e-05
9.51794e-05
0.000130323
0.000165855
9.53645e-05
0.000156536
9.78147e-05
0.000157969
0.000130054
9.66382e-05
5.00492e-05
5.01002e-05
9.62344e-05
0.000131356
0.000179495
0.000163219
0.00010627
0.000158445
0.000106826
0.000131145
9.65777e-05
5.01136e-05
5.02442e-05
9.59048e-05
0.0001134
7.33127e-05
7.39952e-05
2.35612e-05
2.3445e-05
2.34918e-05
0.00011302
6.32998e-05
6.54642e-05
6.99188e-05
7.17483e-05
2.34655e-05
2.35215e-05
0.000129855
0.000119655
0.000131362
0.000166595
0.00013097
0.000106358
0.000130476
9.61502e-05
5.00085e-05
9.4669e-05
9.65988e-05
5.03114e-05
5.0309e-05
9.52408e-05
0.000128272
0.000114888
0.000126142
8.72449e-05
0.000120723
9.34265e-05
0.000127785
0.000130498
0.00017678
0.000152341
0.000105747
0.000144947
0.000106835
0.000129972
9.622e-05
4.99159e-05
4.99792e-05
9.41983e-05
9.6649e-05
5.00548e-05
5.02562e-05
9.40993e-05
2.37748e-05
2.38026e-05
2.37826e-05
2.38074e-05
0.000185421
8.33517e-05
8.27047e-05
8.51376e-05
8.52587e-05
2.3687e-05
2.37942e-05
2.3667e-05
2.37943e-05
2.35216e-05
2.36313e-05
2.35038e-05
2.3623e-05
6.57624e-05
6.50122e-05
0.000123409
6.80199e-05
6.7097e-05
2.37586e-05
2.36691e-05
2.37862e-05
2.3668e-05
0.000128882
7.65196e-05
7.71133e-05
7.02387e-05
6.97199e-05
8.99496e-05
4.99094e-05
9.02375e-05
4.98911e-05
0.000117064
8.66162e-05
0.000134968
0.000128132
0.000118793
8.69133e-05
0.000133873
0.000117576
9.07962e-05
0.000146158
0.000136605
0.000119291
9.04241e-05
0.000140216
8.9556e-05
5.02008e-05
5.00744e-05
9.02961e-05
8.99922e-05
4.99401e-05
4.98912e-05
9.05862e-05
0.000116916
0.00013294
9.61887e-05
0.000133481
8.89436e-05
0.000133087
0.000118441
0.00011745
0.000132929
9.09621e-05
0.000134143
9.05385e-05
0.000136161
0.000118411
6.99763e-05
7.2361e-05
0.000125217
7.01242e-05
7.17309e-05
2.35772e-05
2.35606e-05
2.35626e-05
2.35567e-05
0.00012431
7.15258e-05
6.99627e-05
7.06213e-05
7.1598e-05
2.35245e-05
2.35487e-05
0.000114067
8.57431e-05
0.000127894
0.000126251
0.000116655
8.55996e-05
0.000127878
8.73651e-05
4.98234e-05
8.80252e-05
4.99472e-05
0.000113721
0.000123449
8.28983e-05
0.000117471
0.000116283
0.000123552
8.19416e-05
8.72864e-05
5.02798e-05
5.00443e-05
9.17236e-05
0.000113873
0.000131088
9.66296e-05
0.000129659
8.73343e-05
0.000128177
0.000116798
8.73772e-05
5.0354e-05
5.00302e-05
9.1755e-05
0.000113546
0.000120989
0.000126154
9.45425e-05
0.000124203
8.24e-05
0.000116546
9.2972e-05
5.00173e-05
9.54883e-05
4.99237e-05
0.000125299
0.00016197
0.000103429
0.000169661
0.000130309
0.000158513
9.47367e-05
9.26066e-05
5.00544e-05
9.5123e-05
4.98865e-05
0.000123526
0.000136154
8.99536e-05
0.000140036
9.26542e-05
0.000145772
0.0001176
9.16831e-05
4.98661e-05
4.9896e-05
8.78767e-05
0.000123199
0.000154925
0.000145501
8.49613e-05
0.000153831
9.19301e-05
0.000116755
9.13674e-05
4.97502e-05
4.9835e-05
8.77018e-05
6.23541e-05
6.4288e-05
0.000112496
6.17622e-05
6.29653e-05
2.34642e-05
2.35329e-05
2.38261e-05
2.36144e-05
0.000115196
7.5743e-05
7.34282e-05
6.38319e-05
6.34486e-05
2.37718e-05
2.35815e-05
0.000120999
0.000153151
0.000102311
0.000167427
0.000127993
0.000151071
9.27703e-05
8.99255e-05
4.99132e-05
9.28144e-05
4.99603e-05
8.98239e-05
4.99782e-05
9.26899e-05
4.98151e-05
0.000118715
0.000123778
0.000135466
9.25831e-05
0.000132754
8.45936e-05
0.00011724
0.000119099
0.000152607
0.000141884
8.50331e-05
0.000147967
9.00501e-05
0.000116514
8.94283e-05
5.01992e-05
4.99942e-05
8.89245e-05
8.93457e-05
4.97843e-05
4.97871e-05
8.89007e-05
2.36375e-05
2.35234e-05
2.36135e-05
2.35037e-05
0.000144918
6.50226e-05
6.54023e-05
7.04146e-05
6.88534e-05
2.34557e-05
2.34929e-05
2.34745e-05
2.34827e-05
2.37698e-05
2.3767e-05
2.38065e-05
2.38178e-05
7.80381e-05
7.9082e-05
0.000163933
8.04393e-05
8.29025e-05
2.36547e-05
2.37437e-05
2.3644e-05
2.37963e-05
0.000165008
7.91815e-05
8.19244e-05
8.06397e-05
8.3377e-05
9.21086e-05
4.99789e-05
9.07473e-05
5.01224e-05
0.000123179
9.80921e-05
0.000136768
0.000161932
0.000119435
0.000101596
0.000141238
0.000121798
9.10288e-05
0.000133214
0.00013342
0.000119021
9.1399e-05
0.000132761
9.31174e-05
5.0179e-05
5.02055e-05
9.56959e-05
9.26768e-05
5.02921e-05
5.01694e-05
9.51809e-05
0.000124401
0.000165162
0.000101604
0.000151014
0.000101948
0.000145999
0.000128648
0.000122876
0.00013754
9.9208e-05
0.000136999
9.18922e-05
0.000133334
0.000127659
7.148e-05
6.92184e-05
0.000134893
7.10106e-05
6.80318e-05
2.35222e-05
2.35584e-05
2.37617e-05
2.36319e-05
0.000139386
7.68592e-05
7.53227e-05
7.09537e-05
6.79222e-05
2.37653e-05
2.35968e-05
0.000132365
9.94849e-05
0.000134858
0.000163758
0.000120437
0.000105223
0.000145524
9.90188e-05
5.04411e-05
9.39054e-05
5.05563e-05
0.000133054
0.000132313
9.92731e-05
0.000177949
0.000120356
0.000147525
0.000110565
9.95606e-05
5.0216e-05
5.03818e-05
0.000100097
0.000135244
0.000168714
0.000106027
0.000164472
0.000105892
0.000156457
0.00013822
9.96799e-05
5.03196e-05
5.05537e-05
0.000100248
0.000136148
0.000190933
0.000173525
0.000114405
0.000163038
0.000112441
0.000139364
8.60952e-05
4.98682e-05
8.70191e-05
4.99688e-05
0.000112114
0.000135639
8.34486e-05
0.000118097
0.000114773
0.000128822
8.17948e-05
8.59933e-05
4.97473e-05
8.68725e-05
4.9841e-05
0.00011296
0.000136679
9.55968e-05
0.000131162
8.8138e-05
0.000131815
0.000115779
8.60476e-05
5.03049e-05
5.00404e-05
9.14862e-05
0.000111935
0.000116272
0.000124406
8.7845e-05
0.000125523
8.16324e-05
0.000114777
8.59615e-05
5.02391e-05
4.99191e-05
9.13514e-05
7.96064e-05
7.6994e-05
0.000187554
8.78791e-05
8.51799e-05
2.38209e-05
2.3893e-05
2.37875e-05
2.39455e-05
0.000192961
9.04976e-05
8.78525e-05
8.92478e-05
8.65687e-05
2.37793e-05
2.38918e-05
0.000118521
0.000136084
8.43808e-05
0.000119543
0.000116288
0.000133088
8.4162e-05
9.28967e-05
5.02744e-05
8.90586e-05
5.0389e-05
9.24941e-05
4.98239e-05
8.91083e-05
5.0007e-05
0.000123796
0.000187041
0.000159294
0.000109992
0.000153304
0.000107873
0.000129761
0.000120483
0.000118178
0.000131042
9.0972e-05
0.000131729
8.53092e-05
0.000126613
9.40147e-05
5.02755e-05
5.03896e-05
9.59228e-05
9.34599e-05
5.02192e-05
5.00668e-05
9.51841e-05
2.34556e-05
2.35116e-05
2.34841e-05
2.35511e-05
0.000103408
6.96825e-05
7.0372e-05
6.33164e-05
6.67795e-05
2.36858e-05
2.35436e-05
2.36626e-05
2.35725e-05
2.36232e-05
2.35802e-05
2.35864e-05
2.35084e-05
7.77346e-05
7.8377e-05
0.000157355
7.36919e-05
7.03094e-05
2.36379e-05
2.35793e-05
2.35964e-05
2.35072e-05
0.000156873
7.19213e-05
6.80255e-05
7.27121e-05
6.89146e-05
9.72152e-05
5.03061e-05
9.58797e-05
5.02745e-05
0.000133057
0.000100034
0.00015586
0.00016626
0.000129929
9.72364e-05
0.000159734
0.000133366
0.00010169
0.000147102
0.000167888
0.000129379
0.000105827
0.000156455
9.7873e-05
5.02402e-05
5.02383e-05
9.73949e-05
9.73077e-05
5.0047e-05
5.02273e-05
9.68126e-05
0.000133493
0.000166527
9.67366e-05
0.000164723
9.68708e-05
0.00016245
0.00013382
0.000133828
0.000166518
0.000104806
0.00016244
0.000106162
0.000161622
0.000133942
7.92593e-05
7.85614e-05
0.000169644
8.37011e-05
8.48705e-05
2.38072e-05
2.38547e-05
2.36113e-05
2.37996e-05
0.000168481
8.20551e-05
8.5324e-05
8.41789e-05
8.57289e-05
2.36444e-05
2.38459e-05
0.000131044
0.000103105
0.000168203
0.000169085
0.000138396
9.39839e-05
0.000168913
9.2169e-05
5.01932e-05
9.9417e-05
4.99203e-05
0.000131835
0.00017757
0.000113447
0.000193655
0.000139545
0.000177885
9.77914e-05
9.06302e-05
5.00188e-05
4.99788e-05
8.93621e-05
0.000127221
0.000166906
9.12215e-05
0.000166209
9.24078e-05
0.000168547
0.000121271
9.06731e-05
4.99478e-05
4.98903e-05
8.93341e-05
0.000127656
0.000182169
0.000171237
8.83549e-05
0.000176761
9.35889e-05
0.000120807
0.000100617
5.03632e-05
9.4216e-05
5.04157e-05
0.000133744
0.000124125
9.13744e-05
0.000129406
0.000118961
0.000126274
0.000102656
0.000100799
5.03414e-05
9.40938e-05
5.05426e-05
0.000137967
0.000164364
0.000108849
0.000158357
0.000108588
0.000149454
0.000141846
0.000101515
5.0164e-05
5.04044e-05
0.000102323
0.000137793
0.000153019
0.000155816
0.00010925
0.00013693
0.000105455
0.000142876
0.000101811
5.04706e-05
5.05591e-05
0.000102759
8.7963e-05
8.64034e-05
0.000178792
7.40711e-05
7.57843e-05
2.37063e-05
2.35342e-05
2.34868e-05
2.34656e-05
0.000169465
6.58949e-05
6.81245e-05
7.05617e-05
7.28152e-05
2.3511e-05
2.35068e-05
0.000130269
0.000131861
9.30073e-05
0.000134098
0.000128115
0.000136873
9.93298e-05
9.55811e-05
5.02048e-05
9.60543e-05
5.00408e-05
9.50439e-05
5.02485e-05
9.53175e-05
5.02797e-05
0.000130899
0.000178535
0.000164512
9.15057e-05
0.000165108
9.59172e-05
0.000128584
0.000130398
0.000154501
0.000158491
0.000103423
0.000148006
0.00010088
0.000130006
9.49787e-05
5.00598e-05
5.00248e-05
9.43998e-05
9.46495e-05
5.02331e-05
5.02779e-05
9.43984e-05
2.373e-05
2.38263e-05
2.36888e-05
2.37489e-05
0.000154652
8.46205e-05
8.06601e-05
8.2215e-05
7.87023e-05
2.37996e-05
2.38343e-05
2.37438e-05
2.37541e-05
2.36724e-05
2.37575e-05
2.36533e-05
2.38123e-05
7.27533e-05
6.9352e-05
0.000170386
7.95521e-05
8.01968e-05
2.37318e-05
2.37643e-05
2.38243e-05
2.38356e-05
0.000171949
8.24514e-05
8.64398e-05
8.09399e-05
8.27337e-05
9.44445e-05
4.99817e-05
9.59977e-05
4.99104e-05
0.000130479
9.73324e-05
0.000166732
0.000174106
0.000133386
0.000102336
0.000167317
0.000128597
0.000100116
0.000161066
0.000146801
0.000133163
8.79764e-05
0.000159053
9.42023e-05
5.01094e-05
5.0165e-05
9.3821e-05
9.41575e-05
5.00266e-05
4.99146e-05
9.39601e-05
0.000129406
0.00017403
0.000103712
0.00016355
0.000103073
0.000165917
0.000127402
0.000127259
0.000136184
8.32569e-05
0.000149134
8.55983e-05
0.000154475
0.000125241
7.7018e-05
7.99031e-05
0.000129527
6.51578e-05
6.45545e-05
2.3547e-05
2.33939e-05
2.35042e-05
2.34185e-05
0.000122287
6.06278e-05
5.87303e-05
6.28805e-05
6.15938e-05
2.34722e-05
2.33866e-05
0.000124079
9.14157e-05
0.000163869
0.00016932
0.000120975
0.000101952
0.000163046
9.64206e-05
5.00437e-05
8.93281e-05
5.03406e-05
0.000123013
0.000163474
8.7982e-05
0.000156413
0.000120433
0.000159804
9.4267e-05
9.91996e-05
5.04148e-05
5.03948e-05
0.000103135
0.000129053
0.000172944
0.000109582
0.00016501
0.000105172
0.00016289
0.000141373
9.91534e-05
5.0449e-05
5.04055e-05
0.000103098
0.000128077
0.000154818
0.000158493
0.000107705
0.000158715
9.92364e-05
0.00014115
9.37578e-05
5.00505e-05
0.000101531
4.98281e-05
0.000136337
0.000169439
0.00010952
0.000189867
0.000143192
0.000175444
0.00010415
9.42774e-05
5.03714e-05
0.000102109
5.01144e-05
0.000129044
0.00013756
8.08377e-05
0.000153696
8.48358e-05
0.000158745
0.000120059
9.17914e-05
4.98658e-05
4.98078e-05
8.94134e-05
0.000131764
0.000191006
0.000175903
9.62345e-05
0.000176445
0.000101067
0.00012224
9.2237e-05
5.00312e-05
5.00626e-05
8.9763e-05
6.56281e-05
6.78288e-05
0.00014221
7.37305e-05
7.32922e-05
2.35467e-05
2.37024e-05
2.38215e-05
2.37815e-05
0.000143028
8.42474e-05
8.1791e-05
7.75776e-05
7.64623e-05
2.37713e-05
2.37387e-05
0.000130445
0.000166493
0.000103605
0.000186681
0.000129954
0.0001718
0.000103027
9.56383e-05
5.00931e-05
9.43682e-05
5.0219e-05
9.61339e-05
5.02242e-05
9.4399e-05
5.0242e-05
0.000130075
0.000156086
0.000162797
0.000104279
0.000162342
9.84434e-05
0.000135333
0.000131555
0.000188471
0.000177149
0.000102673
0.00017519
0.000102684
0.000135892
9.67218e-05
5.02613e-05
5.02486e-05
9.86913e-05
9.72464e-05
5.03129e-05
5.02669e-05