/*--------------------------------*- C++ -*----------------------------------*\
| =========                 |                                                 |
| \\      /  F ield         | OpenFOAM: The Open Source CFD Toolbox           |
|  \\    /   O peration     | Version:  v2006                                 |
|   \\  /    A nd           | Website:  www.openfoam.com                      |
|    \\/     M anipulation  |                                                 |
\*---------------------------------------------------------------------------*/
FoamFile
{
    version     2.0;
    format      ascii;
    class       surfaceScalarField;
    location    "1000";
    object      phi;
}
// * * * * * * * * * * * * * * * * * * * * * * * * * * * * * * * * * * * * * //

dimensions      [0 3 -1 0 0 0 0];
oriented        oriented;


internalField   nonuniform List<scalar> 
40825
(
-4.94524e-08
-6.26661e-08
1.09198e-08
1.97907e-07
0.000249567
-0.000249664
-1.99553e-06
2.15809e-07
9.62843e-07
-8.02957e-07
-9.73495e-07
7.60968e-07
1.89e-06
-0.00115688
-7.07253e-08
-5.34277e-08
1.74528e-07
0.00024947
-0.000249569
4.21772e-07
9.60938e-07
-7.71021e-07
-9.45822e-07
7.80308e-07
-0.00115719
1.44416e-07
-1.70988e-07
-2.78324e-08
0.000228315
-0.000228323
1.20674e-07
-3.99044e-08
0.000228262
-0.000228269
-4.45943e-08
1.27942e-07
-0.00014241
-9.45399e-08
0.000222324
7.65992e-09
2.33807e-08
-1.83623e-07
-0.000222342
0.00016998
-1.41126e-07
1.37184e-07
-0.000170004
-1.87782e-07
7.57064e-09
1.71753e-07
-2.38211e-08
-7.14026e-08
-1.79968e-07
1.28086e-07
-1.1085e-07
-0.000142433
3.2722e-08
-1.15822e-07
-0.000142379
8.14787e-08
0.000222172
-6.331e-08
1.04751e-07
8.60583e-08
-0.000222178
0.000169956
1.22228e-07
-0.000169981
1.47693e-07
-9.00803e-09
-5.4063e-09
1.23603e-07
1.52548e-08
8.45174e-08
-0.000142405
6.98162e-08
-7.8657e-05
0.000261579
-1.0131e-07
9.15517e-08
-0.000261587
2.94331e-08
-7.86738e-05
-1.67507e-06
1.68944e-06
5.8245e-07
-0.0012199
1.05141e-06
-0.00122251
1.94998e-07
0.000248994
-5.66267e-08
-0.000249098
-0.000265732
-1.77826e-07
1.93447e-07
1.17496e-07
2.57631e-07
0.000265901
-2.76011e-07
-0.000266488
-1.46814e-07
-5.44394e-08
1.79993e-08
1.94846e-07
-0.000266448
-1.93803e-07
-1.03056e-07
1.91316e-07
0.000248674
-3.92206e-08
-0.000248794
-0.000265352
1.86133e-07
1.56988e-07
-1.48271e-07
-2.53636e-07
0.000265783
-0.000266402
-1.49023e-07
7.80948e-09
-2.31855e-07
-0.000266129
1.42784e-08
1.77276e-07
0.000249641
-0.000249748
-0.000263411
1.37118e-07
-0.000264128
8.36861e-08
1.77459e-07
-3.80293e-09
0.000276768
-1.57246e-07
-0.000276868
1.21996e-07
9.717e-05
-9.72083e-05
3.21539e-08
1.35266e-07
7.56439e-08
0.000244643
-0.000244708
0.000192328
1.96406e-07
-0.000192371
1.45751e-08
-2.34623e-08
0.000192272
5.01728e-08
-0.000192313
-1.26094e-06
-5.83267e-08
3.74311e-07
1.15257e-06
-3.15226e-07
1.47467e-07
-1.34593e-06
0.00113582
4.84002e-08
1.02319e-06
-7.22887e-07
-0.00113486
-1.72184e-07
1.88353e-08
0.00024455
2.04797e-07
-0.000244587
1.95892e-08
9.70593e-05
-9.71024e-05
9.36348e-07
-2.8652e-07
0.00026877
-1.49064e-08
-0.000270665
-2.11849e-08
0.000276589
-3.42158e-08
-0.000276686
8.65453e-07
-2.15162e-07
2.20611e-07
-8.8743e-07
2.64973e-08
1.53708e-06
4.53013e-07
-1.48473e-07
-0.00113474
-0.000221179
4.7879e-08
5.24004e-08
-3.93878e-08
-3.28572e-08
0.000221151
-7.86674e-08
0.000250399
2.55779e-08
8.79395e-08
-0.000250438
-1.13166e-07
-7.01714e-08
8.73236e-08
1.43215e-07
3.08403e-09
0.00018165
-9.10087e-08
-0.000181719
-5.44364e-08
5.78043e-08
-0.000221258
-6.13271e-08
0.000181646
9.61344e-09
-4.9115e-08
8.37016e-08
-9.06512e-08
-7.87223e-05
1.68643e-07
-8.90702e-08
0.000261854
7.44916e-08
-2.74388e-09
-0.000261913
-8.57228e-08
-7.87587e-05
3.04905e-08
-3.65036e-08
0.000192282
-4.05761e-09
2.73827e-08
9.70624e-05
-0.000212494
-4.04024e-08
7.48996e-08
-3.74892e-08
0.000212458
-6.12591e-08
7.97604e-05
-7.97901e-05
4.40565e-08
7.97551e-05
-1.49779e-08
-7.97842e-05
1.4256e-08
-0.00021258
-5.39111e-08
7.97686e-05
7.9774e-05
6.78413e-08
-0.000221123
-2.43709e-09
-8.40959e-08
0.000221104
0.000250245
-1.51998e-07
2.14106e-07
-5.4981e-08
-0.000250273
-6.07482e-08
4.40336e-08
8.40974e-08
0.000276549
2.81491e-08
0.000181665
-0.000181742
1.30165e-07
-1.77955e-07
0.0002503
-3.19904e-08
-0.0002212
0.000181653
1.78292e-07
0.000250114
-0.000250217
4.39755e-08
-0.000264051
1.82848e-07
0.00026032
-9.31994e-08
-0.00026034
-1.30577e-07
1.43413e-07
-0.000264659
0.000260204
1.70413e-07
-0.0002602
-1.67822e-07
0.000244621
1.4474e-07
0.000260394
1.46349e-07
-2.57376e-08
-0.000242763
-1.97661e-07
0.000242869
4.18898e-08
0.000261151
-0.000261365
4.00964e-07
1.55911e-07
0.000261504
-1.80859e-07
-0.000261709
0.000261849
-0.000242876
-1.41711e-08
-0.00118836
-2.0158e-09
-7.2036e-08
3.25071e-08
-5.07979e-09
-0.000228365
-6.3597e-08
-1.79624e-08
3.35926e-08
-0.000228393
-2.98669e-08
-2.06133e-08
-2.08284e-07
-0.00024973
-1.97975e-07
-8.67539e-07
8.7394e-07
-6.89124e-07
1.05835e-06
-0.00115566
-3.14171e-08
-1.0037e-07
-0.000192261
-7.58139e-08
-2.18789e-07
-0.000249722
4.11034e-08
-1.75187e-07
-0.000244559
4.57868e-07
-7.05575e-07
3.95912e-07
-5.11119e-08
1.0361e-06
-3.16028e-07
-8.38681e-07
8.91346e-07
-6.74195e-07
1.08696e-06
-0.00115561
-2.65708e-08
1.07801e-08
0.000142302
2.65536e-08
-0.000142313
-0.000169876
3.97016e-08
-2.85152e-08
-0.000222255
2.14971e-08
1.84674e-08
-8.45505e-08
-9.76301e-09
-3.27007e-08
1.05448e-08
2.78693e-08
-0.000228361
-2.2003e-08
-0.00016989
-1.87011e-08
9.72482e-09
-0.000222268
4.31807e-08
-1.47724e-09
7.86171e-05
1.56062e-08
-7.86312e-05
-0.000261734
2.9699e-08
2.20512e-08
-7.09446e-08
3.69597e-08
1.09143e-08
-0.000261754
8.68745e-09
5.76156e-09
1.94462e-08
0.000142338
-0.000142347
-0.000222341
3.39422e-08
-7.06721e-08
-0.000169896
-1.9177e-08
-2.06897e-08
-1.01404e-08
3.5294e-08
-0.000228387
2.5209e-08
-0.000222344
-0.000169908
4.37094e-08
7.85525e-05
-7.85697e-05
-0.000261558
-2.59875e-08
-7.03052e-08
-6.12395e-08
6.29104e-08
1.8783e-08
6.74602e-09
-0.000261601
6.58329e-08
4.98788e-08
-3.0932e-08
4.58613e-08
3.95933e-09
-5.13654e-09
8.18601e-08
4.00143e-08
1.43617e-07
-4.02563e-08
6.66774e-08
-5.42435e-08
6.6942e-08
7.76086e-08
5.4896e-08
2.80168e-08
2.77244e-08
-1.199e-07
0.000264018
8.22079e-08
-0.00026461
-0.000250103
-2.30864e-07
5.81875e-08
7.86039e-08
-0.000250185
7.32821e-08
-1.50792e-07
2.13672e-08
0.000265753
-0.000266409
-0.000249061
-2.35637e-07
-0.000265981
-1.94415e-08
-3.53477e-08
-2.76807e-08
1.42943e-07
-3.64875e-08
-0.000249773
-0.000249136
-4.31813e-08
-0.000266463
9.30512e-08
-1.22649e-07
0.000265782
-1.62334e-07
-0.000266429
-0.00024904
-2.54952e-07
-9.08183e-08
-0.000265987
-9.47996e-08
1.29396e-07
-9.28265e-08
-0.000249767
-0.000266482
-1.25215e-07
-0.00024912
-1.38063e-07
-8.48511e-08
-1.64881e-07
0.000264102
-0.00026472
-0.000250088
-2.57137e-07
-0.000260335
1.22511e-07
1.0756e-07
1.24985e-08
-0.000250184
1.34346e-07
1.29359e-06
-6.28659e-08
-2.7208e-07
1.09608e-06
0.000269931
-2.58771e-07
9.29643e-07
3.09656e-07
0.00114099
4.99487e-08
1.27336e-06
2.45427e-07
2.0989e-07
-2.09113e-07
-8.58335e-07
-4.90852e-08
1.38891e-07
9.70346e-05
3.13887e-08
-1.66781e-07
1.37867e-07
0.000276489
2.46554e-07
-1.87041e-07
-7.80082e-08
0.000192067
-0.000192048
-6.6843e-08
0.000261548
9.63243e-08
-0.000261514
1.82082e-07
-1.22569e-07
9.69558e-05
-9.70202e-05
-1.45472e-07
2.56783e-07
-2.42087e-07
0.000276483
-0.000276475
1.11054e-07
-7.97961e-08
0.000250397
-3.25503e-07
-0.000250248
2.77183e-08
8.87631e-08
-5.8637e-08
0.000250339
3.58773e-08
0.000181524
-1.00868e-07
-4.33389e-10
0.00022107
1.16994e-07
-1.50523e-07
0.000261835
-7.57121e-08
1.12798e-07
2.94193e-08
0.000261673
0.000242839
7.37598e-08
1.98866e-07
-1.10201e-07
0.000265097
-0.000264386
1.29736e-07
2.25858e-07
-1.62225e-07
0.000244497
-0.000244382
0.000250188
-0.00025001
1.80131e-07
0.000260494
-0.000260346
-4.42439e-07
3.27094e-09
1.43216e-07
4.7775e-07
-0.00125097
-5.67074e-07
5.25213e-07
-0.0012508
-9.90066e-07
-0.00125062
9.39824e-07
-0.00125194
-1.0154e-06
-3.25739e-07
1.65116e-08
1.50154e-06
5.17102e-07
-9.86546e-07
7.84541e-07
1.44979e-07
-1.0862e-06
0.00114284
5.97892e-07
-2.82652e-07
-9.35317e-07
-9.56972e-07
8.14407e-07
1.46133e-07
0.00114222
3.08457e-07
1.41129e-06
4.24924e-07
-1.2279e-06
1.77304e-08
-9.12857e-07
-1.71244e-07
1.3517e-06
3.55023e-07
-2.56612e-07
8.64811e-07
2.06418e-07
0.0011419
9.37301e-09
-1.9179e-07
-7.11524e-08
0.000269961
-5.1049e-09
2.02246e-09
-5.50181e-08
-2.4104e-08
-0.000228302
0.000228384
0.000192134
1.41151e-07
1.17621e-08
3.1153e-08
0.000228222
-5.53729e-08
-4.27709e-08
7.33242e-08
1.90488e-07
-1.07831e-07
9.71619e-05
1.14894e-07
-2.18737e-07
-1.44221e-07
0.000260425
2.48518e-08
-5.10843e-08
-1.52215e-07
-0.000249911
0.000250084
-1.28458e-07
-1.26721e-07
0.000260429
-1.05796e-06
-4.41605e-07
-8.80227e-07
9.14452e-07
7.27393e-07
0.00116332
4.68453e-07
1.42309e-07
-2.33761e-07
-1.2663e-07
0.000266407
-6.83479e-09
-1.57955e-08
-5.85353e-08
-0.000228264
0.000228347
0.00019207
1.77198e-07
2.06454e-08
0.000228186
-4.53087e-08
9.14185e-09
7.17772e-08
-1.5465e-07
3.24074e-09
-0.00024988
0.000250049
-1.04159e-06
-8.60912e-07
9.27739e-07
7.46139e-07
0.00116378
3.34604e-07
-4.08296e-08
6.35228e-08
-2.07188e-07
0.000264311
1.09046e-08
-2.35355e-07
0.000266328
5.04869e-09
0.000276609
-2.49429e-07
1.5416e-07
2.78842e-07
-2.42449e-08
0.000276839
-4.36643e-07
2.06031e-07
3.405e-07
9.71904e-05
0.000192001
4.17506e-07
-7.20769e-08
4.30068e-08
5.48672e-09
0.000142264
-0.00014228
-3.16535e-08
-0.000222225
-1.70107e-08
-3.6077e-08
-7.37551e-08
0.000222297
-0.000169802
1.5148e-08
-5.31414e-08
0.000169816
-6.5448e-08
-5.68985e-08
-0.000228279
1.78444e-08
8.1399e-08
-0.000222211
5.70324e-08
-9.36032e-08
-0.000169813
-4.09529e-08
-6.24133e-09
0.000142268
-2.46178e-08
-7.85799e-05
5.04308e-08
7.85541e-05
1.30331e-07
-3.64406e-08
0.000192155
-1.14553e-07
0.000261496
1.89181e-08
8.73381e-08
4.51712e-08
9.48741e-08
-2.39515e-08
0.00026153
6.07588e-08
8.06597e-09
2.3307e-08
-0.000142261
-6.43402e-08
-1.96702e-08
2.77696e-08
-7.0172e-10
0.000222151
-2.60215e-08
5.89438e-08
0.000169782
-3.41785e-08
-1.22373e-08
-2.1343e-08
-2.69014e-08
2.0677e-07
-1.2797e-07
9.70831e-05
8.20409e-08
3.53189e-08
0.000142114
-0.000142128
-1.03216e-07
-0.000169737
-8.69311e-08
0.000169755
-0.000222141
3.99184e-09
-1.86881e-08
-1.27389e-07
0.000222224
-5.46914e-08
-3.47175e-08
-0.000228241
8.41738e-08
-0.00016975
-0.000222116
8.14113e-08
-1.06189e-07
-1.00844e-07
0.000142132
-8.75929e-08
-7.85322e-05
9.67704e-08
7.8523e-05
2.16311e-07
-3.68014e-08
0.000192097
0.000261417
5.25753e-08
4.09898e-08
3.64642e-08
7.23768e-08
-3.89566e-08
0.000261512
8.01892e-08
7.25455e-08
6.46249e-09
-0.00014211
-1.61033e-08
-1.01008e-08
-1.08697e-09
0.000169721
-5.41962e-08
0.000222043
-3.74083e-08
8.0193e-08
-3.52729e-09
-4.3001e-09
-1.38962e-08
-0.000221124
6.9932e-08
-1.33354e-07
0.000221206
0.000250176
-7.16568e-09
-3.22564e-09
-1.38145e-08
-2.58344e-07
-5.37582e-08
1.78056e-07
0.000276615
0.00018174
2.09734e-08
-1.34546e-07
-1.38629e-07
0.000181616
-1.58407e-07
-6.00425e-08
0.000250327
3.32403e-08
-5.04983e-08
1.58844e-10
7.33612e-08
-0.000221168
-3.04343e-08
-1.19966e-07
0.000221245
0.000250414
1.54782e-08
5.3346e-08
-1.03381e-07
-4.81017e-07
3.11711e-07
2.7393e-07
0.000276838
0.000181592
-2.5214e-08
-2.81923e-07
-1.06963e-07
-1.21712e-07
0.00025054
-3.06054e-07
0.00018149
-3.2819e-08
-6.12173e-09
-2.90304e-08
1.42643e-07
-0.000212612
0.000212538
7.97534e-05
4.29667e-08
7.9745e-05
-1.07954e-07
7.95858e-05
7.95816e-05
3.72983e-07
9.71292e-05
-2.68789e-07
-7.86582e-05
7.86654e-05
2.61508e-07
4.83803e-07
-1.43854e-07
0.000192034
0.000261704
2.25935e-07
-2.84812e-08
1.9037e-07
-1.1141e-07
0.000261763
2.67621e-07
2.37142e-07
7.85524e-08
0.000261579
-3.91211e-08
0.000261862
0.000242813
-3.10587e-07
-2.10544e-07
0.000243081
3.07875e-07
4.33021e-07
0.000272074
0.000261986
0.000262281
-2.21855e-07
0.000264542
-2.33604e-07
2.33648e-08
0.00024445
0.000250093
-9.21903e-08
2.02473e-07
1.36992e-07
0.000265225
-2.38407e-07
-7.92237e-08
1.07649e-07
0.000244551
0.000260571
0.000250243
-1.67339e-08
-2.12653e-07
-5.8371e-08
0.000266346
-0.000267137
1.01229e-06
4.94251e-08
-0.000249168
-1.92332e-07
-8.9718e-08
0.000249363
-0.000266695
2.55921e-08
-9.23507e-09
-7.6346e-07
0.000267289
-3.14577e-08
2.11503e-07
-0.000250029
1.99918e-08
-0.000249286
-6.92965e-08
-0.000267358
-2.53062e-08
8.42296e-07
-9.56113e-07
3.19025e-08
0.000267104
-2.26973e-07
0.000264485
5.89065e-08
0.000244422
0.000250029
-6.85763e-09
1.31411e-07
1.08132e-07
-1.29903e-07
0.00026519
8.46598e-08
-7.70038e-08
-1.379e-07
0.000244516
2.61283e-08
0.000250195
5.49872e-08
0.000260551
2.66705e-08
2.17185e-07
0.000249904
-8.65041e-09
0.000249127
0.000266806
-7.49927e-08
1.57085e-07
-1.0271e-07
-2.69028e-09
-1.30227e-07
7.01538e-09
-5.78617e-08
-2.31958e-08
-2.25109e-07
0.000266253
-0.000267054
1.00048e-06
4.90195e-08
-0.000266668
3.20954e-08
-7.81094e-07
0.000267253
-0.000249078
-1.70519e-07
-5.00413e-08
0.000249283
2.06178e-07
1.49007e-08
-0.000249997
-0.000267334
8.23328e-07
-0.000249178
-2.82159e-08
-9.65592e-07
4.82166e-08
0.000267032
-1.41993e-07
0.000260216
5.07086e-08
0.000244279
0.000249876
-1.66938e-08
1.4212e-07
7.79683e-08
-6.01009e-08
0.000265016
8.04841e-08
-6.52961e-08
0.000244405
-5.18157e-09
0.000250065
0.000260375
2.05648e-07
2.0179e-08
0.000249871
0.000266795
0.000249015
-7.82513e-09
1.49973e-07
-1.41685e-07
2.14877e-08
2.94659e-08
-7.43219e-08
0.000192293
8.24024e-08
-0.000192331
-1.78335e-07
6.25727e-08
0.000244512
1.66895e-07
-0.000244534
7.16665e-08
-6.32494e-07
1.05917e-06
-7.18555e-07
-8.72823e-07
8.55827e-07
-0.00115533
-1.01723e-06
-3.50813e-07
-1.16788e-06
0.00113937
-2.09206e-08
1.44882e-06
4.44438e-07
9.09326e-07
-1.81225e-07
2.49475e-07
-8.22603e-07
-0.00113887
1.35844e-06
1.38077e-06
-3.21334e-07
-2.2272e-07
0.00026852
-0.000270715
-2.27953e-08
9.71582e-05
-9.72097e-05
-2.59944e-08
0.000276745
-1.15712e-07
-0.000276804
-1.34093e-06
-8.73589e-07
0.00113819
-3.54925e-07
1.15468e-06
1.02917e-07
1.05671e-06
-2.35785e-08
4.0917e-07
-6.97462e-07
-0.00113791
2.92759e-07
-9.07812e-07
-1.49284e-06
-1.90748e-07
1.52999e-06
4.55861e-08
4.99542e-07
8.1631e-07
-2.68391e-07
1.92437e-07
-9.37603e-07
-0.00113507
-4.01025e-08
-2.85732e-07
0.00026938
-0.000271412
3.03941e-07
1.33561e-06
0.00113554
-2.83123e-07
1.18323e-06
2.12637e-07
8.38266e-07
-2.33471e-07
1.56061e-07
-8.5767e-07
-0.00113684
8.1017e-07
1.24569e-06
0.0011362
-4.18806e-07
1.01736e-06
2.18483e-08
9.08495e-07
-1.77204e-07
2.46162e-07
-8.15356e-07
-0.00113765
8.09699e-08
-3.05858e-08
-2.90869e-08
0.000228329
-4.12447e-08
-0.000228309
1.00328e-07
-4.32527e-07
1.02791e-06
-7.36637e-07
-9.0251e-07
8.34853e-07
-0.00115548
-1.30898e-06
9.68031e-07
-1.11901e-07
-7.76387e-07
3.17555e-07
-9.41912e-07
-3.19007e-07
1.18715e-06
1.48352e-07
-0.00113361
-3.43901e-08
-3.98019e-08
1.86777e-07
0.000249556
-0.000249588
7.30848e-08
0.000228304
-3.96799e-08
-8.36927e-08
-0.000228284
1.78223e-07
0.000249554
-1.08258e-07
-0.000249585
1.57724e-07
-0.000276934
-3.98824e-08
-1.67166e-07
1.14495e-07
1.07091e-07
-7.22582e-08
9.72151e-05
-9.725e-05
-1.65731e-08
1.42528e-08
-9.71765e-05
-1.08384e-07
4.61468e-07
-0.00121921
-0.00121921
-9.72994e-07
-1.31506e-06
0.00119112
-0.00119005
1.68791e-06
2.70415e-07
0.00119298
-0.00119383
7.6344e-08
1.74589e-07
-1.3753e-07
-2.06452e-07
-0.000249771
-2.11546e-08
5.56011e-08
3.30647e-08
0.000244616
1.00405e-08
-0.000244694
0.00115954
-1.55294e-06
-3.50672e-07
1.01026e-06
-7.27372e-07
8.28738e-07
-9.05945e-07
-0.00115901
-8.93885e-07
1.4281e-06
8.21686e-08
-8.42869e-07
2.35427e-07
-2.00343e-07
8.90833e-07
-1.02248e-06
4.07947e-07
-4.35761e-08
-4.35952e-08
9.22579e-08
7.27554e-08
-0.000244572
-1.55246e-07
-1.08129e-06
-2.51673e-08
-9.33692e-07
7.90508e-07
-7.6169e-07
9.82904e-07
3.96819e-08
4.54516e-08
0.00024985
-1.99902e-08
9.57176e-08
-0.000250011
7.23322e-08
-0.000244638
9.51373e-08
-7.97257e-08
-1.19488e-07
1.39778e-09
-0.000249511
8.11151e-08
-1.15627e-07
-2.98267e-07
-8.92001e-08
2.76132e-07
0.000249485
2.36137e-07
-0.000249609
-2.63395e-07
-1.4698e-07
1.20825e-07
0.000276598
2.36758e-07
-0.000276546
5.31317e-08
-3.63249e-08
-1.73141e-08
0.000276572
-7.08999e-09
-0.000276564
-1.27803e-06
-9.55687e-07
-0.000268232
3.50051e-08
3.0543e-07
-2.21929e-07
-8.51177e-08
1.38159e-07
-0.00027672
1.01211e-07
-8.89577e-09
-5.30086e-08
3.49802e-08
-0.000276633
-2.60625e-08
-2.78872e-08
6.60482e-08
9.72178e-05
-9.7256e-05
-1.27197e-08
0.000268559
-3.02331e-07
-0.00027046
3.16267e-08
5.8614e-08
-7.47211e-08
0.000276715
-0.000276759
-7.83169e-08
0.000192323
1.89757e-07
-0.000192328
-6.47913e-08
2.5457e-08
-0.00019234
-2.45481e-07
-8.62523e-08
0.000244404
3.18848e-07
-0.000244469
1.06417e-06
-8.82292e-07
-6.85575e-07
4.02151e-07
1.0603e-06
-2.13859e-08
-1.43624e-06
2.57295e-08
-4.34429e-07
9.94871e-07
-1.12869e-07
2.23684e-07
-0.0002444
-2.2941e-07
-8.74475e-08
6.4474e-08
-2.64844e-08
4.9893e-08
0.000228357
-0.000228358
3.18597e-08
6.874e-08
0.000192357
-0.000192391
2.86335e-08
-2.44214e-08
-9.54563e-08
0.000228326
-0.000228322
-2.76738e-07
2.3165e-07
1.99794e-07
0.000249665
-0.000249755
1.46945e-07
-5.65819e-08
0.000244556
-0.000244583
-1.57825e-06
-1.96607e-07
9.41654e-07
-8.05261e-07
-9.95978e-07
7.66553e-07
-0.00115665
-2.813e-07
1.2923e-07
0.000249641
-0.000249737
-5.25699e-07
1.06501e-06
-7.13708e-07
-8.66439e-07
8.55521e-07
-0.00115843
-1.2838e-07
0.000276556
-1.49347e-07
-0.000276596
5.6823e-08
-6.22242e-09
0.000276732
-4.66903e-08
-0.000276757
-0.000269323
4.11646e-07
1.05749e-07
1.48447e-08
-0.000276514
-1.13259e-07
5.75042e-08
-4.81161e-08
-0.000276711
-5.92185e-08
6.34373e-08
9.72722e-05
-9.72789e-05
4.4347e-08
-9.7276e-05
2.13689e-07
-1.8024e-07
2.64415e-08
-0.000228368
0.000192395
1.22309e-07
-0.000192399
1.16547e-07
-0.000192411
1.7573e-07
0.000228375
-1.37273e-07
3.02189e-08
-0.000228404
4.15607e-08
-1.72255e-07
2.14627e-07
-0.000249687
0.00115901
-1.50477e-07
9.80417e-07
-7.17637e-07
8.2745e-07
-9.16123e-07
-0.00115925
-7.91724e-08
1.24753e-07
0.000244304
-2.39751e-07
-0.000244374
7.24595e-07
7.44925e-07
-1.24753e-06
2.93815e-07
-1.92484e-07
-9.53822e-07
7.97746e-08
-3.28151e-07
7.51648e-07
2.95425e-07
-9.90653e-07
7.5994e-07
-7.85123e-07
9.12085e-07
-5.68864e-08
-2.52436e-07
-0.000244298
2.56186e-08
2.7752e-08
0.000249772
8.87284e-08
9.45102e-08
-0.000249938
1.18543e-08
2.27478e-07
-0.000228324
1.8477e-07
0.000192447
-2.82229e-07
-0.000192429
1.09312e-07
-1.88849e-07
-0.000192484
0.000228334
1.87942e-08
2.15906e-07
-0.000228366
6.13205e-09
-0.000249433
-1.10671e-07
-1.51793e-07
0.00115829
6.95739e-07
9.65465e-07
-7.86029e-07
7.65827e-07
-9.46857e-07
-0.00115935
1.61941e-06
-1.65311e-08
1.25669e-07
0.000244171
2.31978e-08
-0.00024425
1.59218e-06
6.09037e-07
-1.44867e-06
-1.60719e-08
-4.64509e-07
-8.20096e-07
2.3455e-07
-1.72955e-07
8.93731e-07
5.91835e-07
-9.45257e-07
7.76188e-07
-7.80677e-07
9.64557e-07
2.08096e-06
-2.83427e-08
3.39665e-08
-0.000244166
-8.89553e-08
-4.49051e-08
0.00024943
-2.61979e-07
1.54419e-07
-0.000249576
9.7404e-05
-9.73662e-05
-9.74625e-05
9.74389e-05
-4.21016e-08
-9.74332e-05
-9.74527e-05
-6.15774e-08
-7.86219e-05
-3.24587e-08
2.31717e-08
5.85069e-08
-3.88057e-08
-3.39472e-08
9.88345e-10
0.000261734
6.76351e-08
3.92808e-08
-0.000261759
3.10239e-08
-7.8652e-05
4.98686e-08
-4.39522e-08
-3.35349e-08
1.19881e-07
-0.000221147
2.50904e-08
-1.08138e-07
-8.93817e-08
0.000250242
-1.71554e-07
1.95423e-07
-5.96205e-08
-0.000250232
-7.91159e-08
-6.12886e-08
1.1794e-07
4.34633e-09
0.00018178
-4.67329e-08
-0.000181853
1.2705e-07
-1.84252e-07
-7.75791e-08
-5.78086e-08
-0.000221179
-1.57089e-08
-0.000142334
-1.29776e-08
2.25371e-08
-3.07666e-08
0.000222298
6.483e-08
-0.000222294
-2.38464e-08
5.0638e-09
-2.17794e-08
-1.76797e-08
-2.26631e-08
0.000169895
5.3912e-09
-0.000169919
-0.000142356
-3.28204e-08
1.39487e-08
-0.000142303
-7.24528e-09
-8.80359e-09
5.8952e-09
5.88155e-09
-5.87924e-08
-2.55581e-08
-1.12385e-08
0.000169877
-0.0001699
-2.49178e-08
0.000222226
-9.77939e-08
4.21171e-08
-0.000222229
-1.69314e-08
-0.000142322
-5.67333e-08
-5.32535e-08
-7.857e-05
6.28311e-09
-1.73837e-08
0.000261599
2.3738e-08
-0.000261653
-7.86044e-05
-5.70477e-08
0.000221271
3.07926e-08
-4.59307e-08
-2.32078e-08
-0.000221323
9.01701e-08
2.96274e-08
-2.07547e-07
1.05196e-07
1.75466e-07
-0.000277036
-1.48694e-08
-0.000250355
-8.17883e-08
-2.55603e-08
-9.03425e-09
-0.000181782
-9.54359e-08
-1.46457e-08
3.28936e-09
-6.72779e-08
-0.00025034
1.12668e-07
-1.23689e-07
-0.000181912
-2.2284e-08
0.000212653
4.25061e-08
-0.000212764
6.71306e-08
-6.54501e-08
-7.98201e-05
-7.98167e-05
2.49095e-08
7.55351e-09
-7.98943e-05
5.53916e-08
1.79857e-08
-7.99013e-05
9.72097e-05
6.25648e-08
-5.71167e-08
3.05902e-08
2.55036e-09
-4.97953e-08
-6.34979e-09
0.000212639
-6.94925e-08
9.55926e-08
-0.000212609
-8.01598e-05
2.51893e-08
-3.88402e-08
-8.01532e-05
9.15172e-09
-2.26009e-08
-5.0652e-08
-8.0159e-05
-7.54465e-09
-8.0152e-05
-7.00486e-08
5.77915e-08
-2.00336e-07
-6.47439e-08
-0.000220825
0.000220876
1.09857e-07
1.03741e-07
0.000249766
1.7975e-07
1.39823e-07
-1.22239e-07
-0.000249842
9.32292e-08
2.13766e-07
0.000276682
-1.18166e-07
-2.72727e-07
0.000182059
8.86539e-08
9.99427e-08
-0.000182011
0.000249795
7.05521e-08
-2.06627e-07
0.000182124
8.37338e-08
1.16575e-07
1.47072e-07
-0.00022082
9.96608e-08
5.93814e-08
-0.000220749
0.000220797
-8.77504e-08
-1.19175e-07
0.00024957
-1.41387e-07
2.68111e-08
1.9869e-07
-0.000249672
-5.64323e-08
1.77126e-08
0.000276624
-3.2209e-08
1.89994e-08
0.000182056
-4.55721e-08
-4.04817e-09
-0.000182014
0.000249593
-1.25615e-07
1.45724e-07
0.000182124
9.93801e-09
-1.22608e-07
-4.93805e-08
-0.000220764
-1.48736e-07
-9.82519e-08
0.000220874
1.79876e-07
-0.000182134
6.20871e-08
1.53321e-07
1.58772e-07
-1.21135e-07
-2.28649e-07
-0.000249736
1.70722e-07
1.09304e-07
-2.27429e-07
2.2549e-07
-1.61865e-07
1.08056e-07
1.26222e-07
8.56753e-09
0.000220802
-4.40122e-08
-0.000182138
-2.24124e-08
1.08748e-08
1.37766e-08
-6.25738e-08
2.85507e-08
-0.000249541
-7.93172e-08
-1.22046e-07
1.15573e-07
-2.59621e-09
1.91758e-07
-1.00073e-07
-5.12763e-08
1.96877e-08
-0.000212555
8.01265e-05
7.74959e-08
-8.01041e-05
8.01224e-05
-2.65933e-08
-8.00999e-05
-0.00021251
-5.09572e-08
5.28506e-08
-0.000212548
3.05283e-08
7.3748e-10
-1.17045e-09
6.64432e-10
7.98335e-05
-7.98809e-05
-1.39102e-08
7.98276e-05
5.8082e-08
-7.98717e-05
-1.28848e-08
-0.000212626
4.18427e-08
-0.000221101
1.63139e-08
-8.41646e-08
5.98274e-09
4.36768e-08
0.000250175
1.23549e-07
-1.13067e-07
-0.000250171
4.60471e-08
0.000181715
-0.000181777
-5.99462e-08
-3.9065e-08
1.70299e-08
1.03737e-07
-0.000221128
-1.28984e-07
-1.53113e-07
-4.61557e-08
-7.86622e-05
7.86516e-05
5.67195e-08
1.40929e-07
0.000192356
-1.11325e-07
0.000261577
5.11862e-08
-7.43539e-08
-0.000261612
2.47292e-07
0.000261592
-1.27184e-07
2.07277e-07
-7.86954e-05
8.43962e-08
8.83784e-09
7.86159e-05
2.68352e-08
-0.000261558
-9.61499e-09
0.000261573
-9.18665e-08
1.12216e-07
7.999e-08
-3.34845e-08
-4.13829e-08
1.6367e-07
7.86081e-05
-1.83185e-09
-0.000142399
7.00005e-08
-2.77943e-08
-5.36425e-08
-5.56778e-08
0.000169977
4.69487e-08
-0.000169995
-1.24663e-08
0.000222343
-3.32004e-09
7.10859e-08
-0.000222349
1.01499e-08
8.62125e-09
-3.61796e-08
-2.47051e-08
-4.86631e-08
-0.000142418
6.7384e-08
-2.80823e-08
-2.69851e-08
-7.87032e-05
-5.95989e-08
2.19351e-08
0.000261829
5.85487e-08
-0.000261844
7.97263e-08
-3.66593e-08
-7.87299e-05
-3.23675e-08
-0.000142383
-6.66204e-08
6.43061e-09
5.16917e-08
4.14479e-08
0.00016997
-0.000169989
-2.90105e-08
0.00022222
-6.09225e-08
-1.22121e-09
-0.000222224
9.82484e-09
-4.00218e-08
-5.12467e-08
2.81351e-08
-0.000142398
-6.02102e-09
-6.8161e-08
-7.85788e-05
5.00891e-08
-5.74201e-08
0.000261539
-7.65568e-09
-5.91932e-08
-2.08814e-08
3.20569e-08
0.000212476
3.75411e-08
-2.61966e-08
-0.000212499
-7.98766e-05
2.81673e-08
-3.81178e-08
-7.98801e-05
-5.0254e-08
3.89841e-08
-5.96974e-09
-7.98915e-05
4.72426e-08
-7.98953e-05
-3.6469e-09
-2.06179e-08
9.40379e-08
1.29355e-07
-0.000220993
0.000221002
-3.07157e-08
-2.01897e-07
0.000250095
-1.77907e-07
-1.36365e-07
2.59186e-07
-0.000250168
-8.53461e-08
-1.65422e-07
0.000276553
1.97032e-07
0.000181791
-8.53355e-08
-4.53147e-08
-0.00018181
0.000181809
-9.23415e-09
0.00025011
-2.67935e-07
2.16099e-07
-6.86971e-08
-1.46408e-07
-0.000221041
-1.01951e-07
2.14806e-08
-0.000221073
0.000221079
6.92335e-08
5.53332e-09
0.00025036
8.57248e-08
7.34625e-08
-8.37619e-08
-0.000250441
-5.74866e-08
-4.25858e-08
0.000276743
7.14652e-08
1.74371e-08
0.000181771
1.18054e-08
-3.42788e-08
-0.000181796
0.000250363
-4.35003e-08
-1.19208e-07
0.000181783
-3.28431e-08
7.44209e-08
7.40323e-08
-0.000221124
3.44658e-08
1.58253e-07
0.000220954
-1.06941e-07
-0.000181785
-4.21381e-08
-5.30257e-08
-8.61175e-08
1.80997e-07
-0.000250033
-9.64209e-08
1.99585e-07
-2.30876e-07
2.67037e-07
-1.17835e-07
-1.48624e-07
-4.07812e-08
-3.94294e-09
0.000221026
7.18966e-08
-0.000181766
-2.98863e-08
-7.84851e-09
-6.05594e-08
4.75358e-08
5.24632e-08
-0.000250265
5.20933e-08
-6.53824e-08
-3.75882e-08
-4.03742e-08
8.94887e-08
-1.61374e-09
9.77731e-09
3.30479e-08
-0.000212503
7.9891e-05
-2.28299e-08
-7.99135e-05
7.98951e-05
-1.06442e-08
-7.99187e-05
-0.000212531
9.72882e-05
5.54758e-08
5.97313e-08
-2.84306e-08
1.18023e-07
0.000142481
-8.26818e-08
-0.000142488
-0.000222338
4.95019e-08
-1.3988e-07
-1.09153e-07
-0.000170048
-1.06559e-07
1.17015e-07
-1.74604e-07
9.63308e-09
-0.000228396
2.11088e-07
-1.78711e-08
-1.38474e-07
-0.000222366
-3.66509e-08
-0.000170053
1.3259e-07
-7.40852e-08
-1.00774e-07
-7.87806e-05
7.87935e-05
8.79567e-08
1.2917e-07
0.000192426
-1.04449e-07
0.00026185
7.89751e-08
1.1196e-07
-5.39232e-08
-0.000261865
0.000261876
1.26556e-07
-1.24011e-07
8.95499e-08
-7.87912e-05
-6.11857e-08
7.8772e-05
-0.000261842
7.81322e-08
-1.10007e-07
1.22428e-07
-4.80346e-08
-4.39086e-08
-6.81256e-08
1.27609e-07
-0.00014246
-1.59524e-07
4.5792e-08
1.98266e-07
-1.05445e-07
0.000222341
4.55608e-08
-4.87613e-08
-0.000222363
0.000170023
-1.29325e-07
1.48923e-07
-0.000170012
-1.26198e-07
1.43575e-07
-0.000142454
-1.35729e-07
4.03378e-08
0.000142436
1.09893e-07
-0.000142451
-0.000170016
1.15588e-07
-0.000222223
-1.68792e-08
2.11974e-07
5.81281e-09
-5.31999e-09
2.3361e-07
-0.000228354
1.21008e-08
-0.000170024
2.28766e-07
-0.000222244
6.65896e-08
9.17716e-08
9.69016e-08
-7.86956e-05
7.87237e-05
-1.25065e-07
-2.5541e-07
0.000192491
1.67197e-07
4.50207e-08
0.000261536
-1.28154e-07
-2.39702e-07
6.16333e-08
-0.000261512
0.000261603
-2.41153e-07
1.57165e-08
-1.37259e-07
-7.86865e-05
1.12778e-07
7.87208e-05
-0.000261615
-7.37308e-08
4.28491e-08
-2.28145e-07
1.30684e-07
1.04186e-07
1.01015e-07
-1.49328e-07
6.09482e-09
-0.000142432
3.20478e-08
2.31032e-07
-8.38585e-08
0.000169998
1.60653e-07
-0.000169991
0.000222214
-2.37717e-08
1.94998e-08
-0.000222233
-3.48967e-08
-0.000142433
9.7453e-05
9.74634e-05
-5.66654e-08
-5.18416e-08
1.43435e-07
-9.72372e-05
-6.442e-08
-3.40066e-08
2.03844e-08
0.000228258
-0.000228269
-0.000192381
2.26352e-07
1.0519e-07
-0.000228285
-1.39848e-07
-1.87467e-09
-3.12615e-08
-6.01794e-08
0.000228203
-0.00022822
-6.06348e-08
0.000192426
-0.000192424
-0.000228229
8.58463e-08
-1.54802e-08
-0.000192448
-1.10885e-07
1.77075e-07
-9.73091e-05
-0.000142425
1.41e-07
-2.8198e-08
0.000142442
-1.29312e-07
-1.19818e-07
0.000169998
9.71943e-08
-0.00017001
-1.27995e-08
0.000222293
1.09953e-07
-0.0002223
-6.97477e-08
-5.38063e-09
-4.13378e-08
0.000228293
-1.74334e-09
1.29314e-08
-0.00014244
-1.17376e-07
0.000170014
1.19784e-07
0.00022233
1.1211e-08
-1.16884e-07
-9.27252e-08
7.87672e-05
1.30826e-07
-7.88053e-05
2.39806e-07
-6.86164e-09
-0.000192437
-0.000261924
1.15345e-07
1.73257e-07
-5.09398e-08
1.53824e-07
4.12019e-08
-0.000261972
1.2384e-07
1.49312e-07
2.04361e-09
0.000142421
-3.50159e-08
-9.6361e-08
5.51573e-08
8.47321e-08
-0.000222317
3.89027e-08
-3.10065e-08
-0.000169995
-1.50744e-07
1.39455e-07
1.33808e-07
7.21271e-08
-0.000142423
-9.84407e-08
2.59402e-08
6.70113e-08
0.000142428
7.91315e-08
0.000169988
-0.000170001
-4.12535e-08
0.00022211
-1.75449e-08
1.84829e-08
-0.000222129
-1.10586e-08
-7.40132e-09
0.000228239
-1.99675e-08
5.39438e-08
-0.000142439
0.000169998
1.99718e-08
0.000222146
-3.79787e-08
-7.86893e-05
6.48654e-08
7.86914e-05
-7.64049e-08
0.000261521
1.35077e-08
-0.000261536
-8.14682e-08
0.000192461
-9.21241e-09
-7.87117e-05
0.000261556
-3.20886e-08
-1.13635e-07
6.02814e-08
0.000142405
7.72461e-08
-4.16165e-08
4.18621e-08
6.5645e-08
-0.000222137
-3.70109e-08
8.25623e-08
-1.11087e-09
-0.000169977
1.19909e-07
5.17201e-08
5.94813e-08
8.26162e-08
9.97399e-08
7.86689e-05
-1.02001e-07
6.25266e-08
-0.000261546
-7.76962e-08
8.35261e-09
6.01382e-08
-0.00026381
2.00328e-07
-1.10891e-07
7.86295e-08
1.27033e-07
0.000260076
-0.000260057
1.26043e-07
-1.34449e-07
1.56834e-07
0.000249993
1.08228e-07
-0.000250052
7.25456e-08
-0.000264375
9.11706e-08
-1.74302e-07
6.42486e-08
-0.000241999
0.000242094
0.000260446
-2.30038e-08
-0.000260887
0.000260776
-2.34791e-07
-0.000261156
8.20233e-08
2.55532e-07
0.000270383
0.000260637
0.000260992
-0.000242159
-2.88347e-07
3.50863e-09
-0.000242676
0.000242764
0.000261666
-1.87827e-07
-0.00026201
0.000261401
9.37076e-08
-0.000261728
1.45706e-07
4.25674e-07
0.000271412
0.00026166
0.00026193
-0.000242842
-0.000265524
1.9665e-07
2.48121e-08
1.87197e-07
0.000248915
-0.000248969
-1.71089e-08
0.000265738
-2.48198e-08
-0.000266246
-3.44444e-08
-1.62266e-07
-3.81033e-08
-0.000266184
-2.73767e-08
-0.000265542
6.93554e-08
2.24526e-07
-1.21114e-07
-6.19131e-08
0.000265761
-0.000266264
-1.76322e-07
-1.00208e-07
1.62407e-07
0.000248899
-1.7328e-07
-0.000248955
-1.3604e-07
-0.000266179
-1.49944e-07
-0.000263906
2.34287e-07
1.1709e-07
0.000250012
-0.000250073
-0.000264478
-6.35572e-07
-0.00118825
-3.04749e-07
-0.00121974
0.00121946
-6.86208e-07
-0.00121906
4.25911e-07
-1.11409e-06
0.00122051
-7.99063e-07
-1.67194e-06
-0.00121971
-2.60693e-07
-1.33461e-06
-8.4004e-07
0.00121993
5.10073e-07
-3.97518e-07
-3.06928e-07
-1.72358e-06
-0.00125011
-1.05667e-06
-6.00524e-07
-8.13581e-07
-0.00124965
-1.13051e-06
0.00122173
-4.37431e-07
-0.00122143
0.00122303
1.04232e-06