/*--------------------------------*- C++ -*----------------------------------*\
| =========                 |                                                 |
| \\      /  F ield         | OpenFOAM: The Open Source CFD Toolbox           |
|  \\    /   O peration     | Version:  v2012                                 |
|   \\  /    A nd           | Website:  www.openfoam.com                      |
|    \\/     M anipulation  |                                                 |
\*---------------------------------------------------------------------------*/
FoamFile
{
    version     2.0;
    format      ascii;
    class       volScalarField;
    location    "1637.5";
    object      p;
}
// * * * * * * * * * * * * * * * * * * * * * * * * * * * * * * * * * * * * * //

dimensions      [0 2 -2 0 0 0 0];


internalField   nonuniform List<scalar> 
171728
(
0.00352025
0.00351914
0.0035192
0.00351994
0.00348481
0.00348339
0.00348338
0.00348622
0.00344636
0.00344451
0.0034445
0.00344679
0.0034023
0.00340063
0.00340059
0.00340285
0.00335427
0.00335279
0.00335277
0.00335513
0.00330541
0.00330409
0.0033041
0.00330647
0.00325714
0.00325597
0.00325595
0.00325831
0.00320982
0.00320878
0.00320876
0.00321115
0.00316348
0.0031626
0.00316257
0.00316494
0.00311815
0.00311734
0.00311735
0.00311968
0.0030737
0.00307303
0.00307301
0.00307536
0.00303004
0.00302949
0.00302953
0.00303187
0.00298693
0.00298646
0.00298649
0.0029888
0.00294423
0.00294382
0.00294393
0.00294609
0.00290188
0.00290156
0.00290167
0.0029038
0.00285982
0.00285956
0.00285964
0.00286203
0.00281813
0.00281789
0.00281799
0.00282015
0.00277676
0.00277657
0.00277667
0.00277883
0.00273572
0.00273571
0.00273567
0.00273779
0.00269509
0.00269518
0.00269508
0.0026971
0.00265481
0.00265485
0.00265495
0.0026566
0.00261475
0.00261496
0.00261504
0.00261668
0.00257506
0.00257533
0.00257513
0.00257682
0.00253558
0.0025358
0.00253594
0.00253722
0.00249637
0.00249674
0.00249682
0.00249837
0.00245742
0.00245788
0.00245772
0.00245937
0.00241865
0.00241912
0.00241921
0.00242122
0.00238012
0.00238059
0.00238064
0.00238215
0.00234176
0.00234238
0.00234229
0.00234438
0.00230363
0.00230426
0.00230421
0.00230596
0.00226565
0.00226627
0.00226631
0.00226821
0.00222782
0.00222852
0.00222847
0.00223035
0.00219016
0.00219077
0.00219085
0.00219265
0.00215264
0.00215337
0.00215332
0.00215519
0.00211522
0.00211589
0.00211588
0.00211768
0.00207802
0.00207862
0.00207865
0.00208073
0.00204086
0.00204144
0.00204141
0.00204312
0.00200382
0.00200429
0.00200432
0.00200637
0.00196709
0.00196761
0.00196753
0.00196931
0.00193028
0.00193057
0.00193068
0.0019327
0.00189363
0.00189401
0.00189389
0.00189587
0.00185723
0.00185731
0.00185747
0.00185968
0.00182089
0.00182129
0.00182105
0.00182291
0.00178471
0.00178449
0.00178478
0.00178686
0.00174849
0.0017487
0.00174851
0.00175065
0.00171257
0.00171256
0.00171259
0.00171475
0.00167694
0.00167661
0.00167679
0.00167859
0.0016408
0.00164112
0.00164075
0.00164308
0.00160551
0.00160497
0.00160533
0.0016073
0.00156981
0.00156994
0.00156963
0.00157173
0.00153466
0.0015341
0.0015343
0.00153633
0.00149896
0.00149892
0.00149909
0.00150104
0.00146421
0.00146398
0.0014635
0.00146573
0.00142874
0.00142823
0.00142857
0.00143056
0.00139344
0.00139341
0.00139365
0.00139534
0.00135901
0.00135885
0.00135846
0.00136065
0.00132423
0.00132377
0.00132363
0.00132564
0.00128929
0.00128874
0.00128917
0.0012911
0.00125403
0.00125386
0.00125381
0.00125563
0.00121913
0.00121944
0.00121921
0.00122129
0.00118528
0.00118443
0.00118451
0.00118644
0.00115037
0.00115014
0.00115026
0.00115183
0.00111577
0.00111563
0.00111554
0.0011179
0.00108099
0.00108103
0.00108106
0.00108286
0.00104652
0.00104579
0.00104579
0.00104714
0.00101164
0.00101172
0.00101169
0.00101407
0.000977518
0.000977797
0.000977756
0.000979817
0.000943609
0.000942956
0.000943143
0.000944699
0.000908608
0.00090825
0.000908182
0.000909744
0.000873761
0.000873708
0.000873645
0.000875689
0.000839242
0.000839385
0.000839437
0.000841776
0.000804998
0.00080515
0.000805227
0.000807154
0.000770934
0.000770495
0.000770506
0.000772177
0.000736818
0.000736145
0.000736073
0.000737563
0.000701133
0.000701165
0.000701216
0.000703326
0.000666117
0.000666646
0.000666644
0.000669133
0.000632395
0.000632406
0.000632269
0.000634085
0.000597766
0.000597026
0.000597258
0.000598869
0.000562385
0.000562355
0.000562425
0.00056448
0.000527834
0.000528113
0.000527887
0.000529955
0.00049345
0.00049344
0.000493239
0.00049514
0.000458298
0.000457974
0.000458136
0.000460241
0.000422949
0.00042299
0.000423165
0.000425098
0.000388158
0.000388073
0.000388036
0.000389846
0.00035321
0.000353001
0.000352848
0.000354848
0.000317968
0.000318161
0.00031806
0.000320261
0.000282724
0.000282729
0.000282941
0.000284851
0.000247228
0.000247071
0.000247107
0.000249051
0.000211931
0.000211788
0.000211685
0.000213661
0.000177403
0.000177304
0.000177359
0.000179166
0.00014087
0.000140951
0.000141039
0.000143197
0.00010421
0.000104536
0.000104072
0.000106324
7.07844e-05
7.07476e-05
7.08608e-05
7.25096e-05
3.62262e-05
3.51e-05
3.56491e-05
3.71749e-05
5.99431e-06
6.85611e-06
6.91684e-06
4.96943e-06
0.00352461
0.00352219
0.00352205
0.00352452
0.00352212
0.00352223
0.00352857
0.00352854
0.00352858
0.00352858
0.00352206
0.0035222
0.00352466
0.00352222
0.00352236
0.0035247
0.00351986
0.00349095
0.0035192
0.0035191
0.0034929
0.00349285
0.00351981
0.00349097
0.00351914
0.00351916
0.00349282
0.00349279
0.00351919
0.00349275
0.00349278
0.0035199
0.00349093
0.00351923
0.00349274
0.00349276
0.00349095
0.00348616
0.00345228
0.00348329
0.00348327
0.00345462
0.00345455
0.0034862
0.00345229
0.00348332
0.0034833
0.00345455
0.00345457
0.00348339
0.0034545
0.00345455
0.00348618
0.00345232
0.00348338
0.00345454
0.00345474
0.00345231
0.00344675
0.00340899
0.00344439
0.00344443
0.0034121
0.00341207
0.00344677
0.00340902
0.00344448
0.00344452
0.00341207
0.00341203
0.00344448
0.00341205
0.00341206
0.0034468
0.00340902
0.00344444
0.00341206
0.00341207
0.00340899
0.00340281
0.00336156
0.00340056
0.00340059
0.00336493
0.00336492
0.00340285
0.00336158
0.00340062
0.00340061
0.00336491
0.0033649
0.0034006
0.00336493
0.00336489
0.00340285
0.00336158
0.00340071
0.00336496
0.00336511
0.00336157
0.00335511
0.00331289
0.00335279
0.0033528
0.00331624
0.00331621
0.00335511
0.00331288
0.00335281
0.00335284
0.00331627
0.00331625
0.00335279
0.00331627
0.00331624
0.00335512
0.00331291
0.00335281
0.00331625
0.00331641
0.0033129
0.00330644
0.00326464
0.00330411
0.00330411
0.00326791
0.00326792
0.00330643
0.00326463
0.00330409
0.00330408
0.00326791
0.0032679
0.00330408
0.00326792
0.00326791
0.00330646
0.00326464
0.00330414
0.00326787
0.00326799
0.00326461
0.0032583
0.0032173
0.00325595
0.00325596
0.00322049
0.00322047
0.0032583
0.00321729
0.00325595
0.00325596
0.00322048
0.00322047
0.00325595
0.00322046
0.00322046
0.00325832
0.00321731
0.00325601
0.00322045
0.0032204
0.00321732
0.00321111
0.00317098
0.00320876
0.00320878
0.00317405
0.00317402
0.00321111
0.00317097
0.00320876
0.00320876
0.00317405
0.00317403
0.0032088
0.00317402
0.00317403
0.00321113
0.003171
0.00320878
0.00317402
0.00317409
0.00317096
0.00316492
0.00312564
0.00316257
0.0031626
0.00312859
0.00312857
0.00316494
0.00312561
0.00316256
0.00316258
0.00312858
0.00312857
0.00316259
0.00312857
0.00312858
0.00316497
0.00312562
0.00316265
0.00312856
0.00312866
0.00312559
0.00311974
0.00308116
0.00311737
0.00311735
0.00308404
0.00308402
0.0031197
0.00308115
0.00311736
0.00311736
0.00308404
0.00308402
0.00311733
0.00308402
0.00308404
0.00311973
0.00308117
0.00311731
0.00308402
0.00308395
0.00308117
0.00307538
0.00303749
0.00307302
0.00307303
0.00304033
0.00304033
0.00307535
0.00303751
0.00307302
0.00307302
0.00304032
0.00304028
0.00307302
0.00304032
0.00304034
0.00307538
0.00303753
0.00307297
0.00304027
0.00304022
0.00303756
0.00303181
0.00299442
0.00302947
0.0030295
0.0029972
0.00299728
0.00303181
0.00299443
0.00302946
0.00302952
0.00299721
0.00299724
0.00302953
0.00299727
0.00299712
0.00303188
0.00299446
0.0030294
0.00299722
0.00299709
0.00299438
0.00298879
0.00295174
0.00298649
0.00298646
0.00295454
0.00295448
0.0029888
0.00295174
0.00298648
0.00298649
0.00295452
0.00295452
0.00298643
0.00295447
0.00295449
0.00298884
0.00295175
0.00298639
0.0029545
0.00295448
0.00295161
0.00294621
0.0029094
0.00294389
0.00294382
0.00291219
0.00291202
0.00294617
0.0029093
0.0029439
0.00294394
0.00291218
0.0029123
0.00294381
0.00291203
0.00291228
0.00294622
0.00290949
0.00294373
0.00291228
0.00291236
0.00290936
0.00290392
0.00286731
0.00290164
0.00290155
0.00287014
0.00287009
0.00290383
0.00286729
0.00290162
0.00290163
0.00287013
0.00287018
0.00290161
0.00287007
0.00287012
0.00290396
0.00286743
0.00290164
0.00287019
0.00287004
0.00286742
0.00286185
0.00282557
0.00285953
0.00285953
0.00282833
0.00282829
0.00286183
0.0028255
0.00285958
0.00285966
0.00282835
0.00282842
0.00285972
0.00282831
0.00282832
0.00286195
0.00282561
0.0028597
0.00282844
0.00282835
0.00282549
0.0028202
0.00278415
0.00281799
0.00281788
0.00278689
0.00278689
0.00282011
0.00278398
0.002818
0.00281801
0.00278688
0.00278696
0.00281795
0.00278688
0.00278694
0.0028202
0.00278407
0.00281797
0.00278699
0.00278696
0.00278412
0.00277887
0.00274296
0.00277664
0.00277657
0.00274587
0.00274595
0.00277869
0.00274299
0.00277673
0.00277668
0.00274591
0.00274583
0.00277667
0.00274596
0.00274592
0.00277876
0.00274298
0.00277663
0.0027458
0.00274592
0.00274306
0.00273769
0.00270219
0.00273559
0.00273569
0.00270543
0.00270537
0.00273776
0.00270232
0.0027356
0.00273564
0.00270538
0.00270528
0.0027357
0.00270537
0.00270518
0.00273775
0.00270216
0.00273568
0.00270527
0.00270518
0.0027023
0.00269703
0.00266183
0.00269517
0.00269517
0.00266497
0.00266487
0.00269716
0.00266187
0.00269511
0.00269504
0.00266495
0.00266501
0.0026951
0.00266485
0.00266489
0.00269702
0.00266172
0.00269511
0.002665
0.0026649
0.00266172
0.00265671
0.00262163
0.00265499
0.00265485
0.00262477
0.00262492
0.00265669
0.00262166
0.00265502
0.00265495
0.00262484
0.00262485
0.00265476
0.0026249
0.00262503
0.00265671
0.00262159
0.00265474
0.00262481
0.00262503
0.00262164
0.0026165
0.00258194
0.00261481
0.00261493
0.00258523
0.00258507
0.00261658
0.0025819
0.00261485
0.00261503
0.00258523
0.00258502
0.00261503
0.00258504
0.00258505
0.00261664
0.00258183
0.00261503
0.00258499
0.00258502
0.0025817
0.00257695
0.00254244
0.00257536
0.00257533
0.00254571
0.00254569
0.00257684
0.00254247
0.00257534
0.00257516
0.00254571
0.00254579
0.0025754
0.00254568
0.00254565
0.00257663
0.00254263
0.0025754
0.00254582
0.00254564
0.00254234
0.00253743
0.00250333
0.00253588
0.0025358
0.0025065
0.00250649
0.00253737
0.00250335
0.00253587
0.00253592
0.00250651
0.00250636
0.00253576
0.0025065
0.00250647
0.00253758
0.00250292
0.00253579
0.00250635
0.00250646
0.00250332
0.00249838
0.00246442
0.00249676
0.00249673
0.00246753
0.0024676
0.00249838
0.00246459
0.00249675
0.00249684
0.00246755
0.00246755
0.00249675
0.00246759
0.00246758
0.00249822
0.00246458
0.00249675
0.00246758
0.00246757
0.00246458
0.00245948
0.00242579
0.00245783
0.00245791
0.00242878
0.00242864
0.00245971
0.00242523
0.00245782
0.00245768
0.00242879
0.00242888
0.00245773
0.00242865
0.00242885
0.00245938
0.00242594
0.00245772
0.00242885
0.00242885
0.00242608
0.00242086
0.00238731
0.00241912
0.00241911
0.00239024
0.00239026
0.00242048
0.00238771
0.00241914
0.00241925
0.00239025
0.00239015
0.00241918
0.00239027
0.00239021
0.00242126
0.0023871
0.00241917
0.00239015
0.00239019
0.00238699
0.00238241
0.00234912
0.00238066
0.00238059
0.0023519
0.00235193
0.00238261
0.00234899
0.00238067
0.00238062
0.00235189
0.00235186
0.00238067
0.00235194
0.00235193
0.0023822
0.0023492
0.00238063
0.00235188
0.00235194
0.00234937
0.0023442
0.00231099
0.00234234
0.00234237
0.00231374
0.00231372
0.00234422
0.00231095
0.00234235
0.00234229
0.00231374
0.00231376
0.00234232
0.00231374
0.00231374
0.00234424
0.00231106
0.00234231
0.00231375
0.00231373
0.00231083
0.0023061
0.00227307
0.00230425
0.00230426
0.00227576
0.00227577
0.00230601
0.00227319
0.00230425
0.00230422
0.00227576
0.00227576
0.00230423
0.00227577
0.00227578
0.00230618
0.00227299
0.00230421
0.00227578
0.00227578
0.00227312
0.00226816
0.00223523
0.00226629
0.00226626
0.00223791
0.00223791
0.00226829
0.00223512
0.00226629
0.00226629
0.00223793
0.00223789
0.0022663
0.00223793
0.00223791
0.00226811
0.00223529
0.00226631
0.0022379
0.00223789
0.00223527
0.00223034
0.00219758
0.00222849
0.0022285
0.00220026
0.00220023
0.00223024
0.00219762
0.00222849
0.00222847
0.00220025
0.00220027
0.00222846
0.00220023
0.00220023
0.00223035
0.00219759
0.00222845
0.00220027
0.00220023
0.00219752
0.00219268
0.00216005
0.00219084
0.00219078
0.00216268
0.00216271
0.0021927
0.00216002
0.00219083
0.00219086
0.0021627
0.00216265
0.00219082
0.00216272
0.00216271
0.00219271
0.00216005
0.00219082
0.00216266
0.00216271
0.00216012
0.00215514
0.00212263
0.00215333
0.00215336
0.00212525
0.00212524
0.00215512
0.00212267
0.00215334
0.00215331
0.00212524
0.00212523
0.00215335
0.00212526
0.0021252
0.00215515
0.00212262
0.00215335
0.00212525
0.00212518
0.00212252
0.00211776
0.00208536
0.0021159
0.00211589
0.00208792
0.0020879
0.00211778
0.00208535
0.00211589
0.00211587
0.00208793
0.00208792
0.00211583
0.00208789
0.002088
0.00211773
0.00208537
0.00211581
0.00208791
0.002088
0.0020856
0.00208048
0.00204818
0.00207864
0.00207861
0.00205074
0.00205075
0.00208048
0.0020482
0.00207866
0.00207864
0.00205074
0.00205075
0.00207876
0.00205077
0.00205066
0.00208051
0.00204817
0.00207877
0.00205077
0.00205064
0.00204799
0.0020433
0.00201116
0.00204141
0.00204143
0.00201359
0.00201352
0.00204332
0.00201105
0.00204142
0.00204142
0.0020136
0.00201352
0.00204131
0.00201351
0.00201355
0.00204327
0.00201113
0.00204128
0.00201352
0.00201354
0.00201119
0.00200629
0.00197424
0.00200437
0.00200429
0.00197671
0.00197679
0.0020062
0.00197441
0.00200438
0.00200432
0.0019767
0.00197677
0.00200439
0.00197681
0.00197675
0.00200628
0.00197427
0.0020044
0.00197676
0.00197676
0.00197419
0.00196939
0.00193752
0.00196748
0.0019676
0.00193988
0.00193981
0.00196953
0.00193735
0.00196749
0.00196753
0.00193986
0.00193981
0.00196749
0.00193979
0.00193988
0.00196942
0.00193752
0.0019675
0.00193988
0.00193986
0.00193756
0.00193265
0.00190079
0.0019307
0.00193057
0.00190309
0.00190314
0.00193251
0.00190093
0.00193068
0.00193064
0.00190312
0.00190314
0.00193069
0.00190316
0.00190297
0.00193266
0.00190076
0.00193067
0.00190309
0.001903
0.00190067
0.00189596
0.00186426
0.00189394
0.00189401
0.00186654
0.00186644
0.00189607
0.00186411
0.00189394
0.00189394
0.00186655
0.00186652
0.00189383
0.00186642
0.0018667
0.00189591
0.0018643
0.00189385
0.00186654
0.00186667
0.00186451
0.00185942
0.00182791
0.00185741
0.00185732
0.00183014
0.00183033
0.00185933
0.00182818
0.00185745
0.00185743
0.00183011
0.00183015
0.00185763
0.00183035
0.00183003
0.00185947
0.0018279
0.00185762
0.00183018
0.00183009
0.00182771
0.00182311
0.00179168
0.00182107
0.00182129
0.0017939
0.00179366
0.00182333
0.00179136
0.00182102
0.00182106
0.0017939
0.00179385
0.00182089
0.00179363
0.00179389
0.0018231
0.00179166
0.00182089
0.00179386
0.00179376
0.00179169
0.00178684
0.00175534
0.00178481
0.00178449
0.00175749
0.0017576
0.00178655
0.00175556
0.00178484
0.00178477
0.00175749
0.00175753
0.00178484
0.00175761
0.00175751
0.00178681
0.0017554
0.00178475
0.00175752
0.0017576
0.00175544
0.00175055
0.00171951
0.00174845
0.0017487
0.00172161
0.0017217
0.00175079
0.00171946
0.0017484
0.00174851
0.00172159
0.00172156
0.00174847
0.00172171
0.00172172
0.00175062
0.00171941
0.00174858
0.00172157
0.00172169
0.00171955
0.00171474
0.00168356
0.00171268
0.00171257
0.00168573
0.00168549
0.00171459
0.00168342
0.00171272
0.00171257
0.00168577
0.00168576
0.00171278
0.00168548
0.00168552
0.00171463
0.00168365
0.00171273
0.00168576
0.00168552
0.00168338
0.00167875
0.00164769
0.00167671
0.00167664
0.00164971
0.00165007
0.00167869
0.00164803
0.0016767
0.00167682
0.00164964
0.00164974
0.00167646
0.00165005
0.00164983
0.00167885
0.00164762
0.00167649
0.00164974
0.0016498
0.00164782
0.00164296
0.00161216
0.00164083
0.00164109
0.00161427
0.00161393
0.00164323
0.00161186
0.00164079
0.00164073
0.00161434
0.00161412
0.00164102
0.00161393
0.00161424
0.00164286
0.00161214
0.00164096
0.00161415
0.00161426
0.00161209
0.00160735
0.00157646
0.00160535
0.00160502
0.00157845
0.00157868
0.00160712
0.00157667
0.00160543
0.00160532
0.00157839
0.00157862
0.00160522
0.00157869
0.00157853
0.00160738
0.00157645
0.00160526
0.0015786
0.00157857
0.00157647
0.00157175
0.00154109
0.00156963
0.00156991
0.00154323
0.00154317
0.00157194
0.001541
0.00156956
0.00156964
0.00154318
0.00154304
0.0015697
0.00154311
0.00154309
0.00157169
0.00154108
0.00156971
0.00154306
0.00154303
0.00154107
0.00153635
0.00150573
0.00153433
0.00153418
0.00150765
0.00150755
0.00153622
0.00150564
0.00153434
0.00153429
0.00150782
0.00150797
0.00153424
0.00150763
0.00150782
0.00153637
0.00150587
0.00153421
0.00150798
0.00150796
0.00150577
0.00150099
0.00147053
0.00149888
0.00149883
0.00147278
0.00147291
0.00150094
0.00147075
0.00149903
0.00149912
0.00147258
0.00147233
0.00149902
0.00147283
0.00147252
0.00150111
0.00147025
0.00149912
0.00147228
0.00147232
0.00147044
0.00146576
0.00143509
0.00146388
0.00146409
0.00143718
0.00143703
0.00146598
0.00143503
0.0014636
0.00146344
0.00143706
0.00143709
0.00146378
0.00143707
0.00143738
0.0014655
0.00143522
0.00146359
0.00143731
0.00143748
0.00143532
0.00143037
0.00140029
0.00142837
0.00142817
0.00140205
0.001402
0.00143027
0.00140001
0.0014284
0.00142845
0.00140242
0.00140262
0.00142847
0.00140205
0.00140195
0.00143054
0.00140049
0.00142864
0.00140235
0.00140205
0.00140004
0.00139559
0.00136532
0.00139332
0.00139332
0.00136745
0.00136763
0.00139533
0.00136561
0.0013937
0.00139395
0.00136733
0.00136735
0.00139328
0.00136755
0.00136754
0.0013958
0.00136516
0.00139334
0.00136731
0.00136743
0.00136538
0.00136063
0.00133025
0.00135887
0.00135906
0.00133255
0.00133259
0.00136095
0.00133042
0.0013585
0.0013583
0.0013322
0.00133207
0.0013588
0.00133251
0.00133239
0.00136039
0.00133008
0.00135866
0.00133225
0.00133232
0.00133031
0.00132553
0.00129566
0.00132376
0.00132367
0.00129763
0.00129731
0.00132566
0.00129538
0.00132353
0.00132346
0.00129781
0.0012977
0.00132373
0.00129754
0.00129784
0.00132541
0.00129579
0.00132369
0.00129784
0.00129792
0.00129583
0.00129101
0.00126052
0.00128895
0.00128859
0.00126246
0.00126256
0.00129066
0.00126048
0.00128921
0.00128909
0.00126266
0.00126285
0.00128906
0.00126251
0.00126243
0.00129114
0.00126064
0.00128918
0.00126261
0.00126247
0.00126037
0.00125577
0.00122592
0.00125369
0.00125395
0.00122789
0.00122818
0.00125581
0.00122618
0.0012538
0.00125405
0.00122779
0.00122795
0.0012537
0.0012281
0.00122788
0.00125588
0.00122591
0.00125368
0.00122785
0.00122778
0.00122589
0.0012213
0.00119112
0.00121936
0.00121951
0.0011934
0.0011931
0.00122149
0.001191
0.00121925
0.00121921
0.00119331
0.00119303
0.00121933
0.00119311
0.00119338
0.00122123
0.00119098
0.00121926
0.00119313
0.00119341
0.00119117
0.00118638
0.00115671
0.00118458
0.00118441
0.00115871
0.00115875
0.00118628
0.00115668
0.00118456
0.00118442
0.00115878
0.00115891
0.0011846
0.00115871
0.00115848
0.0011863
0.00115682
0.00118464
0.00115887
0.00115853
0.0011565
0.00115211
0.00112212
0.00115021
0.00115021
0.00112422
0.00112417
0.00115204
0.00112217
0.00115027
0.00115035
0.00112422
0.00112411
0.00114983
0.00112426
0.00112445
0.00115218
0.00112212
0.00114988
0.00112416
0.00112443
0.00112247
0.00111735
0.0010874
0.00111542
0.00111543
0.0010894
0.0010896
0.00111749
0.00108761
0.0011154
0.00111538
0.0010894
0.00108964
0.0011161
0.00108976
0.0010899
0.00111744
0.00108763
0.00111606
0.00108976
0.00108987
0.00108773
0.00108279
0.00105315
0.00108087
0.00108105
0.00105518
0.00105501
0.00108289
0.00105267
0.00108089
0.0010811
0.00105517
0.00105493
0.00108079
0.00105457
0.00105386
0.00108293
0.00105263
0.00108078
0.00105456
0.00105391
0.00105178
0.00104837
0.00101783
0.00104643
0.00104615
0.00101992
0.00101985
0.00104791
0.00101805
0.0010464
0.00104607
0.0010199
0.00101987
0.00104526
0.00102009
0.00102047
0.00104788
0.00101804
0.00104531
0.00102009
0.00102044
0.00101857
0.00101315
0.000984062
0.00101127
0.00101134
0.000985974
0.000986202
0.00101347
0.000984355
0.00101127
0.00101134
0.000985977
0.000986166
0.00101221
0.000986415
0.00098678
0.00101344
0.000984296
0.00101217
0.000986322
0.000986732
0.000984598
0.00097954
0.000949905
0.000977626
0.000977811
0.000951994
0.000951898
0.000979716
0.000949613
0.000977636
0.000977792
0.000952041
0.00095204
0.000977919
0.00095164
0.000951503
0.000979689
0.000949782
0.000977914
0.000951816
0.000951593
0.000949438
0.000945098
0.000914745
0.000943188
0.000943124
0.000916874
0.000916887
0.000944878
0.000914812
0.000943231
0.000943266
0.000916862
0.000916867
0.000942793
0.000916918
0.000916612
0.000945047
0.000914768
0.000942887
0.000916924
0.000916645
0.00091449
0.000910038
0.000880553
0.000908226
0.000908227
0.000882509
0.000882391
0.000910102
0.000880441
0.000908196
0.000908135
0.000882472
0.000882303
0.000907895
0.000882323
0.00088217
0.000910012
0.000880347
0.000907876
0.0008822
0.000882069
0.000880312
0.000875892
0.000846016
0.000873908
0.000873771
0.000847948
0.00084783
0.000875776
0.000846003
0.000873886
0.000873733
0.000847966
0.000847879
0.000873706
0.000847918
0.000848211
0.000875715
0.000846077
0.000873636
0.000847965
0.000848243
0.000846371
0.00084129
0.000811404
0.000839282
0.000839228
0.00081337
0.000813655
0.000841335
0.000811669
0.000839296
0.000839256
0.000813411
0.000813648
0.000839737
0.000813789
0.000814128
0.000841412
0.000811675
0.000839791
0.000813814
0.000814191
0.000811922
0.000806735
0.000777176
0.000804783
0.000805144
0.00077919
0.000779306
0.000806968
0.000777072
0.000804829
0.000805192
0.000779177
0.00077938
0.000805364
0.000779073
0.000779033
0.000807003
0.000777103
0.000805402
0.000779125
0.000779001
0.000776883
0.00077256
0.000743164
0.000770744
0.000770733
0.000745265
0.000744962
0.000772416
0.000742868
0.0007707
0.000770733
0.000745217
0.000744862
0.000770331
0.000744798
0.000744304
0.000772418
0.000742778
0.000770299
0.000744729
0.000744293
0.000742294
0.000738433
0.000707921
0.000736578
0.000736261
0.000709958
0.000709738
0.000738145
0.000707903
0.000736556
0.00073616
0.000710053
0.00070983
0.000735595
0.000709931
0.000709853
0.000738055
0.000707967
0.000735584
0.000709947
0.000709839
0.000708017
0.000703056
0.000672929
0.000701007
0.000700934
0.000674756
0.000674967
0.000703121
0.000673221
0.000701079
0.000701044
0.000674764
0.00067505
0.000701307
0.000675181
0.000675642
0.000703201
0.0006733
0.0007013
0.000675233
0.000675627
0.000673773
0.000668295
0.000639112
0.000666271
0.000666479
0.000641024
0.000641184
0.000668584
0.000639132
0.000666248
0.000666483
0.000640928
0.00064091
0.000667111
0.000641097
0.000641034
0.000668629
0.000638904
0.000667085
0.000640903
0.000641066
0.000638879
0.000634483
0.000604059
0.000632547
0.0006326
0.000606219
0.000606078
0.000634384
0.000603807
0.000632472
0.00063236
0.00060624
0.000606269
0.000632209
0.000605839
0.000605785
0.000634193
0.000603976
0.000632233
0.000606043
0.000605801
0.000603628
0.000599214
0.000568867
0.000597309
0.000597209
0.000570914
0.000570916
0.000598992
0.000568916
0.000597337
0.000597443
0.000570977
0.000571086
0.000597057
0.000570946
0.000571107
0.000599169
0.000569062
0.000597067
0.000571083
0.000571136
0.000569158
0.000564118
0.000534645
0.000562197
0.000562233
0.00053651
0.000536518
0.000564227
0.00053475
0.000562268
0.000562372
0.000536499
0.000536425
0.000562501
0.000536687
0.000536618
0.000564351
0.000534589
0.000562509
0.000536493
0.000536532
0.000534697
0.000529983
0.000500334
0.000528009
0.00052799
0.000502296
0.000502258
0.000530072
0.000500294
0.000527973
0.000527843
0.000502179
0.000501993
0.000527933
0.000502191
0.000501865
0.000529898
0.000500062
0.000527817
0.000501968
0.000501803
0.000499898
0.000495588
0.000464815
0.000493606
0.000493581
0.000466898
0.000466902
0.00049552
0.000464768
0.000493492
0.000493287
0.000466949
0.000466905
0.000493153
0.000466831
0.000466968
0.000495303
0.000464871
0.00049313
0.00046692
0.00046707
0.000464996
0.000459953
0.000429504
0.000457949
0.00045798
0.000431486
0.000431556
0.000459924
0.000429588
0.00045804
0.000458082
0.000431578
0.000431824
0.000458254
0.000431684
0.000431971
0.000460069
0.000429804
0.000458383
0.0004319
0.000432023
0.000429899
0.000424744
0.000394861
0.000422774
0.000422851
0.000396829
0.000396839
0.000424842
0.000394848
0.00042285
0.000423111
0.000396826
0.000396914
0.00042316
0.000396848
0.000396725
0.000425037
0.00039483
0.000423164
0.000396859
0.000396671
0.00039466
0.00039013
0.000359994
0.000388176
0.000388129
0.000362014
0.000361887
0.000390077
0.000359839
0.000388156
0.000388138
0.00036198
0.000361767
0.000387902
0.000361742
0.000361514
0.000390038
0.000359713
0.000387841
0.000361626
0.000361454
0.000359563
0.000355194
0.000324744
0.000353231
0.000353124
0.000326766
0.000326844
0.000355068
0.000324905
0.000353188
0.00035297
0.000326711
0.000326651
0.000352873
0.000326893
0.000326956
0.000354929
0.000324763
0.000352819
0.000326744
0.000326933
0.000325007
0.000319929
0.000289472
0.000317942
0.000318072
0.000291481
0.000291576
0.000320121
0.000289535
0.000317892
0.000317922
0.000291491
0.000291661
0.000318255
0.000291651
0.0002918
0.000319999
0.000289709
0.000318249
0.000291799
0.0002919
0.000289741
0.000284656
0.000254019
0.000282648
0.000282699
0.000256051
0.00025602
0.000284676
0.000253937
0.000282684
0.00028285
0.000256106
0.000256131
0.000282832
0.000255988
0.000255996
0.000284876
0.000254012
0.000282946
0.000256065
0.000256022
0.000253926
0.000249153
0.00021865
0.000247144
0.000247099
0.000220616
0.00022053
0.000249068
0.000218578
0.000247198
0.000247179
0.000220614
0.000220504
0.000247074
0.000220496
0.00022039
0.00024913
0.000218493
0.000247075
0.000220399
0.000220309
0.000218418
0.000213893
0.000184037
0.000211913
0.000211834
0.000186058
0.000185971
0.000213817
0.000184018
0.000211899
0.000211784
0.000186058
0.000186025
0.000211664
0.000185933
0.000185829
0.000213735
0.000184046
0.000211585
0.000185932
0.000185812
0.000183872
0.000179228
0.000147857
0.00017729
0.000177302
0.000150041
0.000150112
0.000179283
0.00014799
0.000177278
0.000177368
0.000150073
0.000150241
0.00017722
0.00015022
0.000150437
0.000179329
0.000148129
0.000177214
0.000150381
0.000150499
0.000148283
0.000142751
0.000111259
0.000140744
0.000140849
0.000113178
0.000113322
0.000142917
0.000111384
0.000140742
0.000140884
0.000112997
0.000112783
0.000141157
0.000113266
0.000113153
0.000143
0.000110937
0.000141203
0.000112831
0.000113088
0.000111161
0.000106512
7.7513e-05
0.000104536
0.00010464
7.92735e-05
7.92832e-05
0.000106603
7.7431e-05
0.000104381
0.000104113
7.92883e-05
7.91845e-05
0.000104289
7.91327e-05
7.88728e-05
0.000106175
7.73626e-05
0.000104198
7.90294e-05
7.88652e-05
7.7088e-05
7.29295e-05
4.2069e-05
7.09209e-05
7.08153e-05
4.42725e-05
4.40754e-05
7.27546e-05
4.18616e-05
7.10632e-05
7.10356e-05
4.44693e-05
4.47899e-05
7.05754e-05
4.41671e-05
4.44893e-05
7.28422e-05
4.24519e-05
7.06292e-05
4.48073e-05
4.46119e-05
4.22576e-05
3.69593e-05
8.28367e-06
3.51494e-05
3.49747e-05
1.15402e-05
1.14086e-05
3.67719e-05
8.31893e-06
3.53025e-05
3.55817e-05
1.15428e-05
1.1602e-05
3.54281e-05
1.14604e-05
1.17274e-05
3.73247e-05
8.29458e-06
3.55242e-05
1.16819e-05
1.17436e-05
8.43997e-06
4.89048e-06
7.05148e-06
6.93813e-06
5.02676e-06
6.71827e-06
6.84218e-06
5.99722e-06
5.94631e-06
6.0777e-06
7.09749e-06
4.79625e-06
6.9072e-06
0.00353166
0.00353417
0.0035329
0.00353309
0.0035602
0.00353404
0.00356372
0.00353445
0.00356038
0.00353428
0.00353454
0.00356387
0.00354527
0.00356696
0.00356714
0.00350438
0.00351787
0.00352175
0.00349676
0.00349472
0.00350008
0.00350432
0.00351787
0.00352174
0.00349673
0.00352022
0.00352023
0.00352023
0.00349388
0.00349393
0.00349387
0.00349385
0.00350398
0.00351553
0.00352079
0.00351154
0.00352295
0.00350113
0.00351178
0.00349477
0.00350008
0.003504
0.0035208
0.00351562
0.00351148
0.00352292
0.00351181
0.00350108
0.00352167
0.00352172
0.00350879
0.00350106
0.00350101
0.00347682
0.00349105
0.0034909
0.00347486
0.00348837
0.00347382
0.00347676
0.00349113
0.00349094
0.00347486
0.00348486
0.0034848
0.00348476
0.00345644
0.00345648
0.00345641
0.00345637
0.00347459
0.00348959
0.00348335
0.00347385
0.00348806
0.00347509
0.00347388
0.00348818
0.00347382
0.00347456
0.00348327
0.00348955
0.00347386
0.00348801
0.0034739
0.0034751
0.0034913
0.00349129
0.00347235
0.00347545
0.00347552
0.00343432
0.0034491
0.00344993
0.00343295
0.00344791
0.00343208
0.00343431
0.00344904
0.00344994
0.00343303
0.00344639
0.00344634
0.00344627
0.00341382
0.00341386
0.0034138
0.00341376
0.00343305
0.00344862
0.00344445
0.00343395
0.00344759
0.00343356
0.00343399
0.00344786
0.00343206
0.00343303
0.00344446
0.00344863
0.00343398
0.00344757
0.00343402
0.00343345
0.00344934
0.00344931
0.00343133
0.00343334
0.00343333
0.00338805
0.0034044
0.00340592
0.00338663
0.00340372
0.0033861
0.00338797
0.0034044
0.00340586
0.00338663
0.00340232
0.00340227
0.00340224
0.00336644
0.00336647
0.00336642
0.0033664
0.00338722
0.00340432
0.00340062
0.00338889
0.00340369
0.00338732
0.0033889
0.00340368
0.00338605
0.00338719
0.00340062
0.00340428
0.0033889
0.00340369
0.00338889
0.00338725
0.00340453
0.00340444
0.00338562
0.00338683
0.00338685
0.00333915
0.00335626
0.00335761
0.00333799
0.00335585
0.00333766
0.00333914
0.00335628
0.00335759
0.00333798
0.00335429
0.00335425
0.00335422
0.0033176
0.00331761
0.00331758
0.00331755
0.00333875
0.00335628
0.00335284
0.00334065
0.00335592
0.00333868
0.00334068
0.00335583
0.00333766
0.00333873
0.00335281
0.00335624
0.00334064
0.00335591
0.00334065
0.00333868
0.00335635
0.00335641
0.00333724
0.00333806
0.00333803
0.00329003
0.00330736
0.00330839
0.00328918
0.00330709
0.00328897
0.00329003
0.00330735
0.00330832
0.00328917
0.00330542
0.00330539
0.00330537
0.00326912
0.00326914
0.0032691
0.00326909
0.00329001
0.00330739