/*--------------------------------*- C++ -*----------------------------------*\
| =========                 |                                                 |
| \\      /  F ield         | OpenFOAM: The Open Source CFD Toolbox           |
|  \\    /   O peration     | Version:  v2006                                 |
|   \\  /    A nd           | Website:  www.openfoam.com                      |
|    \\/     M anipulation  |                                                 |
\*---------------------------------------------------------------------------*/
FoamFile
{
    version     2.0;
    format      ascii;
    class       volScalarField;
    location    "500";
    object      epsilon;
}
// * * * * * * * * * * * * * * * * * * * * * * * * * * * * * * * * * * * * * //

dimensions      [0 2 -3 0 0 0 0];


internalField   nonuniform List<scalar> 
14374
(
1.17495e-06
1.17799e-06
1.41251e-06
1.17521e-06
1.17781e-06
1.41659e-06
6.88683e-07
6.89627e-07
9.6746e-06
3.64913e-06
3.66042e-06
9.67627e-06
1.93468e-05
5.68608e-06
5.68664e-06
1.93447e-05
9.32489e-07
3.65104e-06
2.2801e-06
9.3305e-07
3.65951e-06
2.28101e-06
9.67298e-06
4.25015e-06
9.67739e-06
4.25091e-06
5.69905e-06
5.69938e-06
1.935e-05
1.93524e-05
9.671e-06
9.66329e-06
1.93363e-05
4.72054e-06
2.96305e-06
5.6878e-06
1.00363e-05
2.96579e-06
1.00283e-05
4.71441e-06
4.71586e-06
2.96314e-06
5.68791e-06
1.00294e-05
1.00211e-05
2.96554e-06
4.71001e-06
1.00556e-05
2.26599e-05
2.26602e-05
2.26038e-05
2.26032e-05
1.00548e-05
1.93337e-05
2.30321e-05
9.66816e-06
7.29837e-06
7.30783e-06
2.30678e-05
1.28219e-05
4.24881e-06
4.9032e-06
1.14001e-05
4.9032e-06
1.1399e-05
1.28243e-05
2.30287e-05
9.66605e-06
7.30447e-06
7.31485e-06
2.30648e-05
1.28233e-05
4.24982e-06
4.90541e-06
1.14009e-05
4.90581e-06
1.13993e-05
1.28266e-05
4.72924e-06
2.96736e-06
5.70238e-06
1.00558e-05
4.71048e-06
2.97758e-06
1.00314e-05
4.73345e-06
2.96772e-06
5.7029e-06
1.00615e-05
4.71466e-06
2.97819e-06
1.00374e-05
1.00984e-05
2.27453e-05
2.27463e-05
1.00844e-05
2.26504e-05
2.26521e-05
1.93341e-05
1.93371e-05
2.81501e-06
1.41496e-06
1.94905e-06
1.94925e-06
1.95175e-06
1.95182e-06
2.80948e-06
2.82267e-06
1.42161e-06
1.95293e-06
1.9531e-06
2.80911e-06
1.9616e-06
1.96191e-06
5.02815e-07
5.02899e-07
2.20189e-06
3.6513e-06
2.20303e-06
2.21031e-06
3.66312e-06
2.21255e-06
1.82881e-06
2.20292e-06
3.65304e-06
3.01678e-06
1.82765e-06
2.20397e-06
3.01791e-06
1.6431e-06
2.27982e-06
1.5239e-06
2.52645e-06
1.64181e-06
1.52471e-06
2.52639e-06
1.83358e-06
2.20991e-06
3.6623e-06
3.02278e-06
3.02434e-06
2.21231e-06
1.83214e-06
1.6454e-06
2.28076e-06
1.52461e-06
2.52945e-06
1.52542e-06
2.52947e-06
1.64408e-06
6.91655e-07
1.19554e-06
1.4299e-06
6.926e-07
1.19393e-06
1.42983e-06
1.43041e-06
1.42757e-06
1.19586e-06
1.19549e-06
1.19509e-06
1.19512e-06
1.42926e-06
1.19579e-06
1.19634e-06
1.19513e-06
1.19537e-06
1.19581e-06
1.19511e-06
1.43183e-06
1.42689e-06
1.19567e-06
1.19533e-06
1.19521e-06
1.42835e-06
1.42899e-06
1.19443e-06
1.19437e-06
1.19395e-06
1.19479e-06
1.42796e-06
1.1948e-06
4.24971e-06
9.64652e-06
4.24929e-06
9.64759e-06
1.92593e-05
1.92651e-05
4.2511e-06
9.64781e-06
6.9153e-07
6.91986e-07
6.91658e-07
6.92432e-07
6.92491e-07
6.92564e-07
6.92553e-07
2.29567e-06
3.65809e-06
9.50453e-07
1.19535e-06
2.2965e-06
3.65785e-06
9.50191e-07
1.92565e-05
1.92633e-05
2.29677e-06
1.19637e-06
9.50437e-07
3.66167e-06
5.67763e-06
5.67867e-06
1.42864e-06
5.67865e-06
5.68026e-06
9.65541e-06
9.65839e-06
4.25122e-06
6.92742e-07
6.92557e-07
6.92796e-07
1.92817e-05
9.49884e-07
3.65925e-06
2.29611e-06
5.68026e-06
5.68251e-06
1.92557e-05
1.92616e-05
1.92642e-05
5.67782e-06
1.42908e-06
5.67955e-06
5.68127e-06
1.92728e-05
1.92624e-05
1.92765e-05
1.92652e-05
1.43076e-06
5.6798e-06
5.68175e-06
5.68034e-06
5.68228e-06
4.24956e-06
9.64807e-06
4.24921e-06
9.64911e-06
2.29576e-06
3.65816e-06
9.50388e-07
1.19574e-06
2.29621e-06
3.65889e-06
9.50203e-07
2.29557e-06
3.6581e-06
9.50319e-07
1.19532e-06
2.29615e-06
3.65808e-06
9.50095e-07
4.25005e-06
9.65434e-06
9.64838e-06
4.25016e-06
4.24992e-06
9.65237e-06
9.64941e-06
4.25014e-06
2.29603e-06
1.19556e-06
3.65881e-06
9.49895e-07
3.65947e-06
9.50094e-07
2.29545e-06
2.29583e-06
1.19523e-06
3.65922e-06
9.49786e-07
3.65879e-06
9.49974e-07
2.29544e-06
5.67784e-06
5.67662e-06
1.42792e-06
5.67901e-06
5.67772e-06
1.92583e-05
1.92647e-05
1.92653e-05
1.42995e-06
5.68046e-06
5.67876e-06
1.92651e-05
2.29663e-06
9.50371e-07
1.19571e-06
3.65998e-06
9.50261e-07
4.25128e-06
9.64435e-06
4.24944e-06
9.64547e-06
2.29684e-06
9.50425e-07
3.65983e-06
1.19634e-06
2.29607e-06
9.50354e-07
3.66204e-06
4.25177e-06
9.65687e-06
9.64892e-06
4.25171e-06
2.29706e-06
1.19557e-06
3.65976e-06
9.50029e-07
3.66066e-06
9.50184e-07
2.29645e-06
4.2521e-06
9.65907e-06
9.64748e-06
4.25178e-06
2.29727e-06
1.19618e-06
9.50142e-07
3.6603e-06
9.5029e-07
3.66294e-06
2.29657e-06
4.24956e-06
9.64866e-06
4.24968e-06
9.65069e-06
2.2957e-06
9.50489e-07
3.65835e-06
1.19558e-06
2.29649e-06
9.50233e-07
3.65834e-06
4.24954e-06
9.64799e-06
4.24962e-06
9.65036e-06
2.29572e-06
1.19525e-06
9.49819e-07
3.65834e-06
9.50048e-07
2.2952e-06
4.24972e-06
9.65102e-06
4.24997e-06
2.29575e-06
1.19543e-06
9.49854e-07
3.65847e-06
9.501e-07
3.65874e-06
2.29516e-06
4.24969e-06
9.65457e-06
9.65093e-06
4.24983e-06
5.68132e-06
1.43068e-06
5.68486e-06
5.68357e-06
1.9262e-05
1.928e-05
1.92649e-05
1.4321e-06
5.68196e-06
5.6806e-06
5.68593e-06
5.68445e-06
1.9278e-05
1.92636e-05
2.29637e-06
9.50428e-07
3.65868e-06
1.19555e-06
2.29613e-06
9.50277e-07
3.65917e-06
4.25109e-06
9.64599e-06
4.25063e-06
9.64835e-06
4.24936e-06
9.64941e-06
2.29712e-06
1.1962e-06
9.50226e-07
3.65999e-06
9.50369e-07
3.66248e-06
2.29642e-06
2.29671e-06
1.19544e-06
9.50029e-07
3.65963e-06
9.50187e-07
3.6598e-06
2.29621e-06
4.25164e-06
9.65921e-06
9.64802e-06
4.25154e-06
4.25132e-06
9.65537e-06
9.65008e-06
4.25137e-06
1.92589e-05
1.92654e-05
1.92608e-05
1.92669e-05
1.43045e-06
5.67982e-06
5.68214e-06
5.67938e-06
5.68131e-06
1.92746e-05
1.9266e-05
1.92769e-05
1.92676e-05
1.92738e-05
1.92777e-05
5.67977e-06
5.68155e-06
3.65888e-06
3.6596e-06
9.49713e-07
2.29609e-06
9.66143e-06
4.25133e-06
9.49767e-07
3.65947e-06
2.29603e-06
9.49691e-07
3.65878e-06
2.29527e-06
9.65513e-06
4.25003e-06
5.68085e-06
5.67957e-06
1.92796e-05
9.49808e-07
3.65984e-06
2.29613e-06
9.66135e-06
4.2512e-06
9.65646e-06
4.25131e-06
1.92752e-05
1.92778e-05
1.27725e-05
4.24967e-06
1.13534e-05
4.89889e-06
1.13517e-05
4.89885e-06
1.27744e-05
2.2964e-05
7.2784e-06
9.64669e-06
2.29605e-05
7.27868e-06
1.27719e-05
4.24931e-06
1.13495e-05
4.89819e-06
1.27702e-05
1.13511e-05
4.89826e-06
2.29624e-05
7.28047e-06
9.64675e-06
7.28032e-06
2.29663e-05
1.9262e-05
1.9262e-05
1.27719e-05
4.2507e-06
4.9005e-06
1.13532e-05
4.9e-06
1.13515e-05
1.27738e-05
2.2961e-05
9.64686e-06
7.27951e-06
1.27715e-05
4.24981e-06
4.89893e-06
1.13509e-05
2.29591e-05
7.28248e-06
9.64684e-06
7.28197e-06
2.2963e-05
1.92586e-05
1.92589e-05
1.00175e-05
2.25751e-05
2.25748e-05
2.25682e-05
2.25682e-05
1.0018e-05
4.71963e-06
2.97866e-06
1.00108e-05
5.67772e-06
4.71977e-06
2.97855e-06
1.00114e-05
4.72404e-06
2.98004e-06
1.00147e-05
5.67887e-06
4.72404e-06
2.97998e-06
1.00151e-05
1.00149e-05
2.25635e-05
2.25637e-05
1.00141e-05
2.25675e-05
2.25674e-05
4.72019e-06
1.00138e-05
5.67858e-06
2.97869e-06
2.97889e-06
1.00119e-05
4.71989e-06
4.72479e-06
1.0017e-05
5.68003e-06
2.98021e-06
2.98036e-06
1.00155e-05
4.72465e-06
2.29829e-05
7.28227e-06
9.65761e-06
2.29764e-05
7.2815e-06
2.29894e-05
7.28346e-06
9.66085e-06
2.29812e-05
7.28156e-06
1.27833e-05
4.24999e-06
4.90042e-06
1.13594e-05
1.27809e-05
4.89908e-06
1.13611e-05
1.92865e-05
4.71832e-06
2.97792e-06
1.0021e-05
5.68002e-06
4.71929e-06
2.97721e-06
1.00224e-05
4.72351e-06
2.97948e-06
1.00251e-05
5.68216e-06
4.72452e-06
2.97861e-06
1.00272e-05
1.00203e-05
2.25934e-05
2.25945e-05
1.00213e-05
2.25978e-05
2.2599e-05
1.9258e-05
1.92582e-05
1.92604e-05
1.92605e-05
1.00214e-05
2.257e-05
2.25704e-05
2.25594e-05
2.25598e-05
1.00214e-05
4.72184e-06
2.97967e-06
1.00083e-05
5.67817e-06
4.72193e-06
1.00089e-05
2.97967e-06
4.72576e-06
2.98106e-06
5.67945e-06
1.00123e-05
2.98106e-06
1.00187e-05
2.25572e-05
2.25575e-05
4.72203e-06
1.00124e-05
5.67941e-06
2.97965e-06
1.00097e-05
4.72088e-06
2.97997e-06
4.72625e-06
1.00156e-05
5.68101e-06
2.98113e-06
1.0013e-05
4.7254e-06
2.98141e-06
1.92679e-05
1.92667e-05
1.92712e-05
1.92699e-05
1.00201e-05
2.25757e-05
2.25763e-05
1.0022e-05
2.25903e-05
2.25914e-05
4.71711e-06
2.97624e-06
5.68047e-06
1.00225e-05
1.00193e-05
2.97761e-06
4.71497e-06
4.72192e-06
2.97749e-06
5.68246e-06
1.00269e-05
1.00233e-05
2.97902e-06
4.71983e-06
4.7178e-06
1.0014e-05
2.97944e-06
5.68013e-06
4.72022e-06
1.00176e-05
2.97811e-06
4.72259e-06
1.00173e-05
2.98097e-06
5.68215e-06
4.72489e-06
1.00212e-05
2.9796e-06
1.00192e-05
2.26062e-05
2.26081e-05
2.25952e-05
2.25965e-05
1.00158e-05
1.27732e-05
4.24951e-06
1.13533e-05
4.8985e-06
1.13516e-05
4.8984e-06
1.2775e-05
2.29672e-05
7.27653e-06
9.64843e-06
2.2963e-05
7.27659e-06
1.27726e-05
4.24919e-06
1.13495e-05
4.89785e-06
1.1351e-05
1.27709e-05
4.89789e-06
2.29663e-05
7.27814e-06
9.64852e-06
7.27789e-06
2.29706e-05
1.2777e-05
1.1354e-05
4.89936e-06
4.25004e-06
1.2775e-05
1.13557e-05
4.89932e-06
2.29699e-05
9.6517e-06
7.28194e-06
2.29756e-05
7.28238e-06
2.297e-05
7.28175e-06
9.65054e-06
2.29654e-05
7.28167e-06
1.27776e-05
4.25025e-06
1.13581e-05
4.89941e-06
1.27796e-05
1.13564e-05
4.89959e-06
1.27775e-05
1.13539e-05
4.89907e-06
4.24993e-06
1.27756e-05
1.13556e-05
4.89914e-06
2.29738e-05
9.65094e-06
7.28158e-06
7.28143e-06
2.29786e-05
2.29744e-05
7.27967e-06
9.65041e-06
2.29698e-05
7.27996e-06
1.27781e-05
4.25019e-06
1.13579e-05
4.89959e-06
1.13562e-05
4.8996e-06
1.278e-05
1.00146e-05
2.25719e-05
2.25732e-05
2.25698e-05
2.2571e-05
1.00159e-05
4.72251e-06
2.97843e-06
1.00158e-05
5.67774e-06
1.00161e-05
4.72217e-06
2.97838e-06
4.71694e-06
2.97758e-06
1.00117e-05
5.67669e-06
2.97756e-06
4.7165e-06
1.00121e-05
1.00114e-05
2.25701e-05
2.25711e-05
2.2572e-05
1.00105e-05
2.25731e-05
4.72433e-06
1.00163e-05
5.67891e-06
2.97927e-06
1.00159e-05
2.97921e-06
4.72469e-06
4.71861e-06
1.00127e-05
5.67749e-06
2.97832e-06
2.97826e-06
1.00121e-05
4.71904e-06
1.92612e-05
1.92615e-05
1.92687e-05
1.00207e-05
2.25706e-05
2.25719e-05
1.00196e-05
2.2574e-05
2.25752e-05
4.72645e-06
1.00165e-05
2.98012e-06
5.68058e-06
2.98009e-06
4.72636e-06
1.00176e-05
4.7207e-06
1.0013e-05
2.97901e-06
5.67902e-06
4.72054e-06
1.00143e-05
2.97899e-06
1.92683e-05
1.27717e-05
4.25099e-06
1.1353e-05
4.90111e-06
1.13512e-05
4.90072e-06
1.27736e-05
2.29603e-05
7.27862e-06
9.64415e-06
2.29585e-05
7.27975e-06
1.27713e-05
4.24981e-06
1.13493e-05
4.89867e-06
1.13507e-05
1.277e-05
4.89921e-06
2.29576e-05
7.28354e-06
9.64414e-06
7.28295e-06
2.29612e-05
1.27768e-05
4.90126e-06
1.13539e-05
4.25189e-06
1.27745e-05
4.9014e-06
1.13559e-05
2.29703e-05
9.65342e-06
7.28376e-06
2.29792e-05
7.28466e-06
2.29687e-05
7.28417e-06
9.65178e-06
2.29628e-05
7.28416e-06
1.27776e-05
4.25208e-06
4.90098e-06
1.13587e-05
1.27801e-05
4.90155e-06
1.13567e-05
1.27771e-05
1.13537e-05
4.90203e-06
4.25213e-06
1.27745e-05
1.13558e-05
4.90198e-06
2.29687e-05
9.65468e-06
7.2828e-06
7.28501e-06
2.29787e-05
2.29666e-05
7.28529e-06
9.65202e-06
2.29607e-05
7.28491e-06
1.2778e-05
4.25236e-06
1.13587e-05
4.9009e-06
1.13566e-05
4.90209e-06
1.27808e-05
1.2773e-05
4.24961e-06
4.89833e-06
1.13541e-05
4.89844e-06
1.13525e-05
1.27748e-05
2.29657e-05
7.27827e-06
9.64948e-06
7.27796e-06
2.29608e-05
1.27725e-05
4.24954e-06
4.89835e-06
1.13504e-05
4.89816e-06
1.27707e-05
1.13519e-05
2.2965e-05
7.2788e-06
9.64976e-06
7.27899e-06
2.297e-05
1.27734e-05
4.24959e-06
1.1354e-05
4.89837e-06
1.13523e-05
4.89843e-06
1.27753e-05
2.29667e-05
7.27731e-06
9.64877e-06
2.29622e-05
7.27729e-06
1.27729e-05
4.2495e-06
1.13502e-05
4.89828e-06
1.2771e-05
1.13517e-05
4.89821e-06
2.29661e-05
7.27826e-06
9.64916e-06
7.27827e-06
2.29706e-05
1.27772e-05
4.89877e-06
1.13547e-05
4.24971e-06
1.27754e-05
4.8987e-06
1.13563e-05
2.29741e-05
7.28015e-06
9.65199e-06
2.29692e-05
7.28008e-06
1.27778e-05
4.24996e-06
4.89923e-06
1.13585e-05
4.89928e-06
1.13569e-05
1.27796e-05
1.27778e-05
1.13545e-05
4.89863e-06
4.24965e-06
1.27759e-05
1.13562e-05
4.89859e-06
2.29742e-05
9.65305e-06
7.28002e-06
7.28009e-06
2.29788e-05
2.29747e-05
7.27922e-06
9.65242e-06
2.29701e-05
7.27918e-06
1.27783e-05
4.24985e-06
1.13584e-05
4.89886e-06
1.13568e-05
4.89889e-06
1.27801e-05
1.00354e-05
2.25659e-05
2.25663e-05
2.25453e-05
2.25456e-05
1.00346e-05
2.98445e-06
5.68213e-06
2.98481e-06
4.73405e-06
1.00158e-05
5.68466e-06
2.98469e-06
1.00102e-05
2.98519e-06
4.7313e-06
4.7287e-06
1.00117e-05
5.68329e-06
2.98364e-06
2.98419e-06
1.00061e-05
4.72577e-06
1.92576e-05
1.92734e-05
1.92712e-05
1.00256e-05
2.25794e-05
2.25797e-05
1.00328e-05
2.26068e-05
2.2607e-05
4.7187e-06
2.97493e-06
5.68461e-06
1.00352e-05
2.97802e-06
1.00302e-05
4.71378e-06
4.71325e-06
2.97389e-06
5.68314e-06
1.00307e-05
1.00259e-05
2.97703e-06
4.70823e-06
4.72202e-06
1.00196e-05
2.98352e-06
5.68512e-06
2.98026e-06
4.72787e-06
1.00259e-05
4.71646e-06
1.00154e-05
2.9825e-06
5.6836e-06
4.72244e-06
1.00217e-05
2.97914e-06
1.002e-05
2.26386e-05
2.26385e-05
2.26206e-05
2.26207e-05
1.00107e-05
1.92715e-05
1.92695e-05
1.27717e-05
4.25076e-06
4.90088e-06
1.13537e-05
4.90062e-06
1.13519e-05
1.27738e-05
2.29572e-05
7.28435e-06
9.64444e-06
7.28407e-06
2.29613e-05
1.27732e-05
4.25047e-06
4.89961e-06
1.13538e-05
4.89942e-06
1.13521e-05
1.27751e-05
2.29648e-05
7.27698e-06
9.64854e-06
2.29614e-05
7.27737e-06
1.27726e-05
4.24961e-06
4.89808e-06
1.13499e-05
1.2771e-05
4.89835e-06
1.13515e-05
2.29634e-05
7.27973e-06
9.6486e-06
7.2793e-06
2.29677e-05
1.27772e-05
4.90172e-06
1.13544e-05
4.25173e-06
1.27746e-05
4.90162e-06
1.13564e-05
2.29681e-05
9.65503e-06
7.28377e-06
7.28596e-06
2.29776e-05
2.29666e-05
7.28618e-06
9.65246e-06
2.29606e-05
7.28557e-06
1.2778e-05
4.25189e-06
4.90077e-06
1.13592e-05
4.90175e-06
1.13572e-05
1.27807e-05
1.27778e-05
4.90052e-06
1.13545e-05
4.25132e-06
1.27757e-05
4.90055e-06
1.13564e-05
2.29733e-05
9.65295e-06
7.28264e-06
7.28279e-06
2.29803e-05
2.29726e-05
7.28149e-06
9.65195e-06
2.29673e-05
7.28172e-06
1.27785e-05
4.25165e-06
4.90072e-06
1.1359e-05
4.90098e-06
1.13571e-05
1.27807e-05
1.92616e-05
1.92619e-05
1.92633e-05
1.92635e-05
1.002e-05
2.25774e-05
2.25772e-05
1.002e-05
2.25857e-05
2.25855e-05
4.71994e-06
2.97787e-06
5.67994e-06
1.00204e-05
4.71914e-06
2.97848e-06
1.00182e-05
4.72508e-06
2.97953e-06
5.68219e-06
1.00242e-05
4.72443e-06
2.98015e-06
1.00216e-05
4.71971e-06
1.00148e-05
2.97887e-06
5.67937e-06
4.72026e-06
2.9784e-06
1.00172e-05
4.7248e-06
1.0018e-05
2.98044e-06
5.68144e-06
4.72514e-06
2.98009e-06
1.00205e-05
1.00212e-05
2.25932e-05
2.25939e-05
1.00207e-05
2.2587e-05
2.25873e-05
1.92706e-05
1.92699e-05
1.92725e-05
1.92716e-05
1.9278e-05
1.92821e-05
4.71355e-06
2.97585e-06
1.00235e-05
5.67878e-06
4.71466e-06
1.00248e-05
2.9749e-06
4.71839e-06
2.97702e-06
1.00282e-05
5.68032e-06
4.7195e-06
1.003e-05
2.97587e-06
1.00119e-05
2.26074e-05
2.26093e-05
1.00146e-05
2.26108e-05
2.26131e-05
2.29916e-05
7.28178e-06
9.6643e-06
2.29816e-05
7.27846e-06
1.27843e-05
4.24982e-06
1.13594e-05
4.90025e-06
1.13612e-05
1.27817e-05
4.89829e-06
2.29827e-05
7.28091e-06
9.65645e-06
2.29782e-05
7.28081e-06
1.27824e-05
4.24999e-06
1.13589e-05
4.89918e-06
1.27806e-05
1.13605e-05
4.89914e-06
4.70865e-06
2.97306e-06
1.00374e-05
5.67801e-06
1.00386e-05
4.71133e-06
2.97096e-06
4.70314e-06
2.97214e-06
1.00328e-05
5.67682e-06
2.97001e-06
4.70587e-06
1.00339e-05
9.99696e-06
2.26422e-05
2.2642e-05
2.26446e-05
1.00043e-05
2.26443e-05
1.92844e-05
2.29889e-05
7.28322e-06
9.664e-06
7.27988e-06
2.29797e-05
1.27838e-05
4.2501e-06
4.90035e-06
1.13598e-05
4.8987e-06
1.27814e-05
1.13615e-05
2.2988e-05
7.28299e-06
9.65879e-06
2.29813e-05
7.28226e-06
1.27835e-05
4.25037e-06
4.90071e-06
1.13596e-05
1.27814e-05
4.89974e-06
1.13613e-05
1.92786e-05
1.92818e-05
4.94434e-07
4.94427e-07
6.91951e-07
4.95018e-07
4.9501e-07
3.00217e-07
2.99119e-07
2.8309e-06
1.97074e-06
1.97132e-06
1.42832e-06
2.83114e-06
1.97006e-06
1.97064e-06
4.96807e-07
4.96726e-07
3.03463e-07
2.82865e-06
1.96969e-06
1.97021e-06
1.42773e-06
2.82977e-06
1.96837e-06
1.96881e-06
2.83254e-06
1.9715e-06
1.97221e-06
1.42885e-06
2.83279e-06
1.97085e-06
1.97155e-06
2.82851e-06
1.42998e-06
1.96787e-06
1.9684e-06
1.96971e-06
1.97031e-06
2.8265e-06
2.82946e-06
1.97006e-06
1.97003e-06
1.42753e-06
1.96932e-06
2.82953e-06
1.96934e-06
1.97461e-06
1.43037e-06
1.9741e-06
2.82545e-06
1.43022e-06
1.966e-06
1.96584e-06
1.96981e-06
1.96965e-06
2.82132e-06
2.83065e-06
1.43033e-06
1.96914e-06
1.9697e-06
2.82969e-06
1.97036e-06
1.97097e-06
2.82523e-06
1.96824e-06
1.96874e-06
1.42672e-06
2.82637e-06
1.96663e-06
1.96705e-06
2.81766e-06
1.96576e-06
1.96563e-06
1.42491e-06
1.96292e-06
2.81983e-06
1.96303e-06
4.94407e-07
4.94398e-07
6.91825e-07
4.94999e-07
4.94983e-07
3.00219e-07
2.9911e-07
4.94539e-07
4.94526e-07
6.9234e-07
4.95135e-07
4.9512e-07
3.00288e-07
2.99198e-07
4.94492e-07
4.94464e-07
6.91954e-07
4.95076e-07
4.9506e-07
3.00275e-07
2.99172e-07
6.92261e-07
4.96212e-07
4.96161e-07
4.95655e-07
4.95634e-07
3.01324e-07
3.02384e-07
6.92192e-07
4.96205e-07
4.96189e-07
4.95643e-07
4.95632e-07
3.01338e-07
3.02403e-07
6.92532e-07
4.96273e-07
4.96269e-07
4.95751e-07
4.95737e-07
3.01384e-07
3.02436e-07
6.92302e-07
4.96286e-07
4.9624e-07
4.95725e-07
4.95689e-07
3.01388e-07
3.02451e-07
1.66621e-06
2.29606e-06
2.54045e-06
1.54574e-06
2.54092e-06
1.54706e-06
1.66436e-06
1.84643e-06
2.22362e-06
3.02715e-06
3.65775e-06
1.84806e-06
2.22291e-06
3.02645e-06
1.6649e-06
2.29603e-06
2.54138e-06
1.54755e-06
1.66678e-06
2.54086e-06
1.5462e-06
1.84761e-06
3.0262e-06
3.65809e-06
2.22279e-06
2.22339e-06
3.02679e-06
1.84605e-06
1.66672e-06
2.29679e-06
1.54603e-06
2.54268e-06
1.54705e-06
2.54263e-06
1.66543e-06
1.8493e-06
3.02986e-06
3.66161e-06
2.22565e-06
2.22619e-06
3.02994e-06
1.84819e-06
2.83139e-06
1.43023e-06
1.97016e-06
1.97076e-06
1.9709e-06
1.97149e-06
2.831e-06
4.96797e-07
4.96787e-07
3.03477e-07
4.9682e-07
4.96817e-07
3.03513e-07
4.96891e-07
4.96815e-07
3.03526e-07
1.84477e-06
2.22188e-06
3.02763e-06
3.65653e-06
1.84754e-06
2.21919e-06
3.02486e-06
1.66329e-06
2.29492e-06
1.54671e-06
2.54099e-06
1.66597e-06
1.54484e-06
2.53945e-06
2.83282e-06
1.43076e-06
1.97063e-06
1.97128e-06
2.83169e-06
1.97169e-06
1.97238e-06
2.829e-06
1.4286e-06
1.97109e-06
1.97173e-06
2.83127e-06
1.96936e-06
1.96998e-06
1.66616e-06
2.29604e-06
2.54114e-06
1.54569e-06
2.54138e-06
1.54695e-06
1.6645e-06
1.84638e-06
2.22395e-06
3.0271e-06
3.65813e-06
3.02685e-06
1.84779e-06
2.22345e-06
1.66473e-06
2.29585e-06
2.54123e-06
1.54736e-06
2.54096e-06
1.66654e-06
1.54604e-06
1.84784e-06
3.02747e-06
3.65898e-06
2.22342e-06
3.02777e-06
2.22402e-06
1.84662e-06
1.66597e-06
2.29588e-06
2.54049e-06
1.54558e-06
2.5408e-06
1.54687e-06
1.66416e-06
1.84613e-06
2.2236e-06
3.02653e-06
3.65778e-06
1.84773e-06
3.02597e-06
2.22295e-06
1.66463e-06
2.29576e-06
2.54095e-06
1.54732e-06
1.66651e-06
2.54053e-06
1.54597e-06
1.84733e-06
3.02616e-06
3.65828e-06
2.22293e-06
3.02646e-06
1.84585e-06
2.22348e-06
1.66449e-06
2.54152e-06
1.54664e-06
2.29575e-06
1.66607e-06
2.54114e-06
1.54544e-06
1.84826e-06
2.22211e-06
3.65946e-06
3.02713e-06
2.22335e-06
3.02818e-06
1.84644e-06
1.84693e-06
3.0282e-06
2.22389e-06
3.65917e-06
2.22303e-06
1.84819e-06
3.02777e-06
1.66604e-06
2.29595e-06
2.54061e-06
1.54525e-06
2.54135e-06
1.54644e-06
1.66428e-06
1.6639e-06
2.54086e-06
1.54651e-06
2.29555e-06
1.66559e-06
2.54059e-06
1.54528e-06
1.84739e-06
2.22296e-06
3.6594e-06
3.02703e-06
3.02735e-06
2.22357e-06
1.84614e-06
1.8459e-06
3.02694e-06
2.22352e-06
3.65865e-06
1.84721e-06
3.02665e-06
2.22301e-06
1.66545e-06
2.29581e-06
2.54059e-06
1.54507e-06
2.54094e-06
1.54625e-06
1.66383e-06
2.83062e-06
1.42944e-06
1.96985e-06
1.96978e-06
1.97038e-06
1.97045e-06
2.83059e-06
2.83147e-06
1.42837e-06
1.97096e-06
1.97085e-06
1.9703e-06
2.83163e-06
1.97019e-06
1.66623e-06
2.29666e-06
2.54201e-06
1.54584e-06
2.54201e-06
1.54689e-06
1.66477e-06
1.84656e-06
2.22446e-06
3.65893e-06
3.02744e-06
1.84777e-06
2.22403e-06
1.6646e-06
2.29609e-06
1.5471e-06
2.54138e-06
1.66631e-06
1.54588e-06
1.84831e-06
3.02844e-06
3.66002e-06
2.22418e-06
3.0286e-06
2.22473e-06
1.84719e-06
1.66663e-06
2.29681e-06
1.54598e-06
2.5427e-06
1.54692e-06
2.54258e-06
1.66535e-06
1.84721e-06
2.22551e-06
3.02791e-06
3.66021e-06
1.84818e-06
3.02804e-06
2.22528e-06
1.66465e-06
2.29616e-06
1.547e-06
2.54144e-06
1.66612e-06
1.54582e-06
2.5417e-06
1.84918e-06
3.02973e-06
3.662e-06
2.22589e-06
3.02979e-06
1.84807e-06
2.22641e-06
1.66516e-06
2.54251e-06
1.54705e-06
2.29696e-06
1.66659e-06
2.5423e-06
1.54612e-06
1.84872e-06
2.22275e-06
3.66061e-06
3.02771e-06
2.22411e-06
3.02909e-06
1.84667e-06
1.84746e-06
3.02923e-06
2.22466e-06
3.66036e-06
2.22381e-06
1.84878e-06
3.0288e-06
1.6668e-06
2.29715e-06
2.54143e-06
1.54593e-06
2.54244e-06
1.54727e-06
1.66479e-06
1.66574e-06
1.54728e-06
2.54324e-06
2.29718e-06
1.66721e-06
1.54634e-06
2.54303e-06
1.84933e-06
2.22248e-06
3.66238e-06
3.02793e-06
3.03019e-06
2.22504e-06
1.84669e-06
1.84831e-06
3.03066e-06
2.22636e-06
3.66244e-06
1.8497e-06
3.03014e-06
2.2251e-06
1.6672e-06
2.29732e-06
1.54595e-06
2.54169e-06
1.54742e-06
2.54305e-06
1.66484e-06
1.66625e-06
2.29608e-06
1.54575e-06
2.54065e-06
1.54706e-06
2.54108e-06
1.66446e-06
1.84648e-06
2.2239e-06
3.02694e-06
3.65813e-06
2.22324e-06
1.84799e-06
3.02646e-06
1.66491e-06
2.29605e-06
1.54753e-06
2.54138e-06
1.54619e-06
1.66674e-06
2.54093e-06
1.84778e-06
3.02657e-06
3.65857e-06
2.22304e-06
2.22372e-06
3.02697e-06
1.84635e-06
1.66392e-06
2.54065e-06
1.54662e-06
2.29538e-06
1.66572e-06
2.54028e-06
1.54534e-06
1.8459e-06
3.02667e-06
2.22332e-06
3.6582e-06
1.84734e-06
2.22275e-06
3.02633e-06
1.66537e-06
2.29551e-06
2.54033e-06
1.54499e-06
1.66367e-06
2.54063e-06
1.54624e-06
1.66413e-06
1.54664e-06
2.54083e-06
2.2954e-06
1.66586e-06
1.54537e-06
2.54041e-06
1.84753e-06
2.22228e-06
3.65882e-06
3.02643e-06
3.02702e-06
2.22316e-06
1.84601e-06
1.84626e-06
3.02708e-06
2.22349e-06
3.65847e-06
1.84768e-06
3.02662e-06
2.22274e-06
1.66555e-06
2.2955e-06
1.545e-06
2.54017e-06
1.54626e-06
2.5406e-06
1.6638e-06
2.83813e-06
1.43242e-06
1.97363e-06
1.97346e-06
1.97489e-06
1.97506e-06
2.83575e-06
2.82787e-06
1.42914e-06
1.97365e-06
1.97349e-06
1.97036e-06
2.83318e-06
1.97018e-06
1.66612e-06
2.29644e-06
1.54581e-06
2.54136e-06
1.54694e-06
2.54146e-06
1.66451e-06
1.84631e-06
2.22418e-06
3.0269e-06
3.65856e-06
2.22362e-06
1.84776e-06
3.02666e-06
1.66463e-06
2.29603e-06
1.54724e-06
2.54111e-06
1.54599e-06
1.66641e-06
2.541e-06
1.84773e-06
3.02726e-06
3.65928e-06
2.22362e-06
2.22418e-06
3.02752e-06
1.84647e-06
1.66579e-06
1.54724e-06
2.54319e-06
2.297e-06
1.66727e-06
1.54629e-06
2.54293e-06
1.8494e-06
2.22226e-06
3.66196e-06
3.0282e-06
1.8468e-06
2.22478e-06
3.0303e-06
1.84838e-06
3.03077e-06
2.22611e-06
3.66198e-06
1.84979e-06
2.22483e-06
3.03023e-06
1.66726e-06
2.29715e-06
1.54601e-06
2.54168e-06
1.66493e-06
1.5474e-06
2.54296e-06
1.66465e-06
1.5469e-06
2.54181e-06
2.29656e-06
1.66616e-06
1.54588e-06
2.5416e-06
1.84828e-06
2.22308e-06
3.66e-06
3.02748e-06
3.02821e-06
2.22395e-06
1.84677e-06
1.84681e-06
3.02802e-06
2.22414e-06
3.65961e-06
1.84804e-06
3.02769e-06
2.2235e-06
1.66629e-06
2.29677e-06
1.54581e-06
2.5412e-06
1.547e-06
2.54186e-06
1.6646e-06
2.8305e-06
1.4287e-06
1.97085e-06
1.97147e-06
2.83124e-06
1.96979e-06
1.97042e-06
1.84533e-06
2.22234e-06
3.02729e-06
3.6578e-06
3.02602e-06
1.8474e-06
2.22098e-06
1.84527e-06
2.22291e-06
3.0276e-06
3.65808e-06
3.02574e-06
1.84757e-06
2.22134e-06
1.66336e-06
2.29486e-06
2.54099e-06
1.54664e-06
2.53967e-06
1.66589e-06
1.54475e-06
1.84456e-06
2.22206e-06
3.02727e-06
3.65659e-06
1.84742e-06
3.02433e-06
2.21929e-06
1.66308e-06
2.29473e-06
1.54662e-06
2.54084e-06
1.66584e-06
1.54467e-06
2.53913e-06
1.84553e-06
2.22267e-06
3.02676e-06
3.65836e-06
2.22169e-06
1.84719e-06
3.02611e-06
1.66336e-06
2.29482e-06
1.5459e-06
2.54036e-06
1.54461e-06
1.66519e-06
2.53986e-06
1.84576e-06
2.22342e-06
3.02764e-06
3.65918e-06
2.22228e-06
1.84781e-06
3.02647e-06
1.66362e-06
2.29507e-06
1.54661e-06
2.54111e-06
1.5449e-06
1.66589e-06
2.54007e-06
9.6469e-06
4.24931e-06
1.92581e-05
5.67901e-06
3.65882e-06
2.29608e-06
7.27881e-06
2.29583e-05
4.89833e-06
1.13495e-05
1.27701e-05
1.00118e-05
4.72571e-06
2.25533e-05
2.25541e-05
1.00173e-05
3.02756e-06
2.54134e-06
1.93414e-05
1.41473e-06
5.68515e-06
5.68444e-06
1.9338e-05
2.27674e-06
1.17544e-06
9.32883e-07
3.65023e-06
4.24373e-06
9.66907e-06
1.93454e-05
1.00519e-05
2.25711e-05
2.25677e-05
1.00474e-05
2.25824e-05
2.25806e-05
4.721e-06
1.00268e-05
2.9664e-06
5.68449e-06
2.96563e-06
4.72361e-06
1.0028e-05
4.71601e-06
1.00198e-05
2.9658e-06
5.68428e-06
4.7184e-06
1.00208e-05
2.9652e-06
1.93422e-05
1.28234e-05
4.89766e-06
1.13996e-05
4.24647e-06
1.28234e-05
4.8989e-06
1.1399e-05
2.30587e-05
7.29989e-06
9.66944e-06
2.30381e-05
7.29471e-06
1.28239e-05
4.24738e-06
4.902e-06
1.1399e-05
2.30548e-05
9.66407e-06
7.30256e-06
1.93407e-05
2.81653e-06
1.41316e-06
1.95224e-06
1.95218e-06
1.95132e-06
2.81806e-06
1.95134e-06
1.64052e-06
1.5234e-06
2.52319e-06
2.27787e-06
1.64153e-06
1.5228e-06
2.52421e-06
1.82632e-06
3.01504e-06
2.20269e-06
3.64967e-06
1.82714e-06
2.2025e-06
3.01507e-06
2.27885e-06
2.52747e-06
6.91239e-07
9.37451e-07
1.1813e-06
1.41568e-06
6.89336e-07
1.1761e-06
1.17601e-06
1.41631e-06
1.93134e-05
5.68216e-06
9.38181e-07
9.38549e-07
9.67326e-06
1.41039e-06
3.65726e-06
2.28246e-06
1.17637e-06
1.17638e-06
5.68652e-06
1.41095e-06
2.28358e-06
2.28362e-06
1.17626e-06
1.17684e-06
1.17873e-06
4.24888e-06
1.17604e-06
1.17583e-06
1.42168e-06
1.41122e-06
9.37369e-07
9.67385e-06
1.1766e-06
1.176e-06
1.93301e-05
1.41112e-06
1.41202e-06
1.17577e-06
1.1764e-06
1.4144e-06
1.17564e-06
1.17613e-06
1.17652e-06
1.41283e-06
1.17659e-06
3.65538e-06
2.28161e-06
5.68559e-06
2.28207e-06
9.66323e-06
3.64937e-06
9.38085e-07
1.18093e-06
4.2486e-06
1.41508e-06
1.93317e-05
9.6632e-06
4.24844e-06
4.24755e-06
9.68311e-06
1.93273e-05
1.93427e-05
4.24936e-06
9.6613e-06
4.24989e-06
9.68429e-06
5.0299e-07
5.02859e-07
5.02797e-07
6.89602e-07
6.89489e-07
6.89801e-07
6.89544e-07
1.17986e-06
2.28339e-06
3.6552e-06
2.27864e-06
1.17772e-06
3.64725e-06
9.36013e-07
1.93141e-05
1.93493e-05
9.37595e-07
2.28164e-06
3.65877e-06
1.18036e-06
2.28387e-06
9.36776e-07
3.65328e-06
5.68552e-06
5.68617e-06
1.40856e-06
5.67373e-06
5.67584e-06
4.23923e-06
9.69337e-06
4.23793e-06
9.67996e-06
1.93482e-05
1.93474e-05
4.23836e-06
9.69753e-06
4.23861e-06
9.68255e-06
6.89441e-07
6.89598e-07
6.89645e-07
2.27513e-06
3.64322e-06
9.3347e-07
1.17639e-06
2.27154e-06
3.64914e-06
9.33106e-07
1.93631e-05
1.93542e-05
2.27397e-06
9.33783e-07
3.64423e-06
1.17549e-06
2.27282e-06
9.33067e-07
3.64572e-06
5.67745e-06
5.67982e-06
1.41963e-06
5.69159e-06
5.69285e-06
1.93139e-05
1.41945e-06
1.41992e-06
5.6908e-06
5.69023e-06
5.68129e-06
1.93138e-05
1.93124e-05
1.1811e-06
1.18134e-06
9.37865e-07
2.27948e-06
3.6567e-06
3.65027e-06
2.28305e-06
9.37903e-07
1.18068e-06
3.65436e-06
1.18232e-06
3.6544e-06
2.27996e-06
2.28267e-06
4.2429e-06
9.65588e-06
9.66249e-06
4.24861e-06
9.67234e-06
4.24313e-06
4.24807e-06
1.93203e-05
1.93441e-05
1.93212e-05
1.93468e-05
5.69092e-06
5.69279e-06
1.42124e-06
1.41466e-06
5.68571e-06
5.68816e-06
1.93625e-05
1.93463e-05
1.93668e-05
1.93495e-05
1.41553e-06
5.67606e-06
5.67846e-06
5.68502e-06
5.68757e-06
4.24784e-06
9.66998e-06
4.24695e-06
9.68276e-06
2.28293e-06
1.18137e-06
9.37498e-07
2.28217e-06
1.18012e-06
3.65314e-06
9.36722e-07
3.6542e-06
1.17958e-06
9.3728e-07
2.28153e-06
1.17789e-06
3.64918e-06
9.36324e-07
4.24555e-06
9.69621e-06
9.68703e-06
4.23896e-06
4.24508e-06
9.6883e-06
9.68465e-06
4.23905e-06
2.28075e-06
1.17817e-06
3.64367e-06
9.34432e-07
3.65227e-06
9.35875e-07
2.2749e-06
2.28022e-06
1.17702e-06
3.64386e-06
9.34249e-07
3.64887e-06
9.35517e-07
2.27484e-06
1.41764e-06
5.68734e-06
1.41153e-06
5.68082e-06
5.67878e-06
1.93308e-05
1.93438e-05
1.93548e-05
1.93425e-05
1.41278e-06
5.67745e-06
5.67352e-06
5.68107e-06
5.67848e-06
1.93536e-05
1.93429e-05
3.65811e-06
1.1812e-06
9.37511e-07
2.28376e-06
1.18008e-06
3.65439e-06
9.36942e-07
4.24953e-06
9.65612e-06
4.24991e-06
9.68426e-06
9.37448e-07
1.18129e-06
3.6589e-06
2.28379e-06
1.18055e-06
9.37028e-07
3.6549e-06
4.24788e-06
9.70036e-06
9.68918e-06
4.24011e-06
2.28256e-06
1.17813e-06
3.64448e-06
9.3457e-07
3.65351e-06
9.36126e-07
2.27561e-06
4.24807e-06
9.70137e-06
9.68997e-06
4.24011e-06
2.2826e-06
1.17874e-06
9.34707e-07
3.64496e-06
9.36277e-07
3.65404e-06
2.27562e-06
4.24894e-06
9.67471e-06
4.24305e-06
9.6875e-06
9.37355e-07
2.28333e-06
3.65502e-06
2.27819e-06
1.17673e-06
9.35837e-07
3.64351e-06
9.67884e-06
4.24264e-06
9.68972e-06
2.27689e-06
1.17666e-06
3.64112e-06
9.33863e-07
3.64648e-06
9.34988e-07
2.27174e-06
4.24066e-06
9.68953e-06
9.68873e-06
4.23445e-06
2.27642e-06
1.17598e-06
9.33809e-07
3.63894e-06
9.34822e-07
3.64275e-06
2.27145e-06
4.24021e-06
9.6863e-06
9.69e-06
4.23419e-06
5.69404e-06
5.69305e-06
1.41544e-06
5.6891e-06
5.68698e-06
1.93143e-05
1.9349e-05
1.93706e-05
1.9353e-05
1.41633e-06
5.67931e-06
5.67607e-06
5.68859e-06
5.68602e-06
1.93684e-05
1.93523e-05
1.17868e-06
3.65474e-06
2.28048e-06
1.17682e-06
2.28328e-06
9.36124e-07
3.64534e-06
4.24642e-06
9.65825e-06
4.24977e-06
9.68732e-06
4.24539e-06
4.24906e-06
9.68856e-06
2.27959e-06
1.1784e-06
9.3441e-07
3.64316e-06
9.35797e-07
3.65209e-06
2.27341e-06
2.27858e-06
1.17616e-06
9.34041e-07
3.6407e-06
9.35163e-07
3.64467e-06
2.27302e-06
4.24386e-06
9.70087e-06
9.69255e-06
4.23664e-06
4.24316e-06
9.68881e-06
9.68982e-06
4.23646e-06
1.93337e-05
1.9347e-05
1.93466e-05
1.40997e-06
5.67144e-06
5.67417e-06
5.67343e-06
5.67577e-06
1.93501e-05
1.93448e-05
1.9353e-05
1.93458e-05
1.93557e-05
1.93494e-05
1.936e-05
1.93532e-05
5.67722e-06
5.67949e-06
1.41177e-06
5.67801e-06
5.67966e-06
1.93374e-05
1.93408e-05
1.41441e-06
5.68281e-06
5.68432e-06
4.23982e-06
9.68486e-06
4.23812e-06
9.67482e-06
2.27344e-06
3.64455e-06
9.33758e-07
1.17529e-06
2.2742e-06
3.64472e-06
9.32865e-07
2.27385e-06
3.64567e-06
9.33707e-07
1.17645e-06
2.27426e-06
3.64891e-06
9.32991e-07
4.24174e-06