/*--------------------------------*- C++ -*----------------------------------*\
| =========                 |                                                 |
| \\      /  F ield         | OpenFOAM: The Open Source CFD Toolbox           |
|  \\    /   O peration     | Version:  v2006                                 |
|   \\  /    A nd           | Website:  www.openfoam.com                      |
|    \\/     M anipulation  |                                                 |
\*---------------------------------------------------------------------------*/
FoamFile
{
    version     2.0;
    format      ascii;
    class       volScalarField;
    location    "500";
    object      p;
}
// * * * * * * * * * * * * * * * * * * * * * * * * * * * * * * * * * * * * * //

dimensions      [0 2 -2 0 0 0 0];


internalField   nonuniform List<scalar> 
14374
(
0.00011469
0.000114932
0.000112739
0.000114717
0.000114912
0.000113017
0.000114744
0.000114894
0.000112558
0.000112571
0.000112595
0.000112549
0.000112562
0.000112549
0.000112562
0.000112577
0.000114728
0.000112611
0.000112609
0.000114791
0.000112547
0.000112624
0.000112597
0.000112618
0.000112513
0.000112624
0.000112425
0.000112417
0.00011247
0.000112454
0.000117025
0.000117083
0.00011715
0.000117104
0.000112624
0.000117054
0.000112485
0.000117063
0.000116998
0.000112686
0.000117115
0.000112627
0.00011706
0.000112542
0.000117041
0.00011709
0.000112707
0.000117061
0.000112356
0.00011237
0.000116973
0.000116991
0.000112489
0.000117163
0.000117182
0.000117079
0.00011263
0.000117122
0.00011259
0.000117158
0.000117097
0.000112644
0.000112628
0.000117089
0.000117158
0.000112631
0.000117173
0.000117026
0.000112615
0.000117135
0.000112565
0.000117103
0.00011711
0.000112612
0.000112632
0.000117064
0.000117175
0.00011259
0.000117231
0.000112746
0.00011699
0.000112263
0.000112734
0.000117221
0.000116844
0.000117207
0.000112747
0.000117022
0.000112239
0.000112691
0.000117211
0.000116836
0.000116797
0.000111866
0.000111866
0.000112081
0.000116578
0.000116577
0.000117148
0.000117134
0.000117033
0.000116785
0.000112728
0.000112729
0.000116981
0.000116991
0.000112785
0.000117278
0.000117016
0.000113
0.000112997
0.000113038
0.000117231
0.00011722
0.000114766
0.000114813
0.00011259
0.000116945
0.00011696
0.000112769
0.000116992
0.000117156
0.000116882
0.000112625
0.000116981
0.000112649
0.000112615
0.000116992
0.000116987
0.000116838
0.000116912
0.000112592
0.000112629
0.000112615
0.000116844
0.000116924
0.000116997
0.000112738
0.000116892
0.000112669
0.000117018
0.000117119
0.000112719
0.000116904
0.000116928
0.000112618
0.000112635
0.000116871
0.000116945
0.00011267
0.000429103
0.00042906
0.000431087
0.00039337
0.000393367
0.000395353
0.000431079
0.000400241
0.000429058
0.000429059
0.000402275
0.000402247
0.000431083
0.000429043
0.000429039
0.000402285
0.00040233
0.00042906
0.000402258
0.000431064
0.000400304
0.000429056
0.000402327
0.000402262
0.000400216
0.000395366
0.000393324
0.000393332
0.000393361
0.000393311
0.000395406
0.000393318
0.000417936
0.000431331
0.000431305
0.000417944
0.000431328
0.000417957
0.000417952
0.000417959
0.000429114
0.000429094
0.00042911
0.000402318
0.00040229
0.000402351
0.000402301
0.000417969
0.00043128
0.000429081
0.000420117
0.000431243
0.000417957
0.000420138
0.000431401
0.00041798
0.000417974
0.000420143
0.000420145
0.000417965
0.00043133
0.000431332
0.000418082
0.000417935
0.000417943
0.000395539
0.000395533
0.000395544
0.000393353
0.000393393
0.000393357
0.000395445
0.000393338
0.000395484
0.000395503
0.000395542
0.000395538
0.00043135
0.000417961
0.000417969
0.000431342
0.000418097
0.00041794
0.000417945
0.000400031
0.000413456
0.000400023
0.000413463
0.000413246
0.000400016
0.000400012
0.000413443
0.000413444
0.000417933
0.000431323
0.000431304
0.000417949
0.000417968
0.000431279
0.000429078
0.000420131
0.000431236
0.000417956
0.000420141
0.000417966
0.000431276
0.000429077
0.000420116
0.000431237
0.000417957
0.000420135
0.000413438
0.000400041
0.000413446
0.000400054
0.000413435
0.000400061
0.000413456
0.000400055
0.000413366
0.000411205
0.000400067
0.000402271
0.000413399
0.000411207
0.000400099
0.000413362
0.000411179
0.000400075
0.000402263
0.000413403
0.000411198
0.000400096
0.000431322
0.000431323
0.000418067
0.000417943
0.00041794
0.000431328
0.000417951
0.000413462
0.000413212
0.000413453
0.000413451
0.000413456
0.000417971
0.000429064
0.000420123
0.000417963
0.000420139
0.000417957
0.000431364
0.000431312
0.000417961
0.000417973
0.000429066
0.000431291
0.000420146
0.000431221
0.000420145
0.000417967
0.000413454
0.000400043
0.00041346
0.000400057
0.000413377
0.000411209
0.000400075
0.000402292
0.000413408
0.000411217
0.000400119
0.000413459
0.000400003
0.000413452
0.000400057
0.00041338
0.000411248
0.000402306
0.000400052
0.000411228
0.000413404
0.000400122
0.000417931
0.000431325
0.000431308
0.000417944
0.00041797
0.000429084
0.000431279
0.000420126
0.000431243
0.000420144
0.000417956
0.000417932
0.000431329
0.000431308
0.000417941
0.000413363
0.000411178
0.00040226
0.000413401
0.000411198
0.000400087
0.000413431
0.00041345
0.00040005
0.000413364
0.000411194
0.000402263
0.000400069
0.000411204
0.0004134
0.000400088
0.000413432
0.00040005
0.000413445
0.000400049
0.000431385
0.000418134
0.000417948
0.000417948
0.000417978
0.000399963
0.000413457
0.000413292
0.000399951
0.000399954
0.000413427
0.000413426
0.000399968
0.000413455
0.00041797
0.000429069
0.000431275
0.00042012
0.000431227
0.000420138
0.000417962
0.000417953
0.000417957
0.000417946
0.000431329
0.000431307
0.000417957
0.000413378
0.000411245
0.000402298
0.00040005
0.000411226
0.000413401
0.000400116
0.000413373
0.000411191
0.000402279
0.000400079
0.000411209
0.000413409
0.000400111
0.000413455
0.000400003
0.000413448
0.000400055
0.000413448
0.000400058
0.000413463
0.000400057
0.000431338
0.00041795
0.000431344
0.000417964
0.000413229
0.000400038
0.000400037
0.000413443
0.000413449
0.00040005
0.00041345
0.000400049
0.000413463
0.000395522
0.000395508
0.000395519
0.000395511
0.000395507
0.00039551
0.000393345
0.000395508
0.00039549
0.000395541
0.000393354
0.000395484
0.000395512
0.000393317
0.000395508
0.000395479
0.00039555
0.000395545
0.000395449
0.000395455
0.000395451
0.000393333
0.000395516
0.000395499
0.000395493
0.000395541
0.000395551
0.000395545
0.000395547
0.000395538
0.000422392
0.000422372
0.000417943
0.000417936
0.000422394
0.000422375
0.000417941
0.000426902
0.000431327
0.000426886
0.000431334
0.000426885
0.000426878
0.000426869
0.000431326
0.00043131
0.000431328
0.000426876
0.000426871
0.000422404
0.00041795
0.000422394
0.000422399
0.000417965
0.00042689
0.000422398
0.000422417
0.000422385
0.000417952
0.000417966
0.000422387
0.000422418
0.000417967
0.000426927
0.000426899
0.0004269
0.000426898
0.000426878
0.000426879
0.000426899
0.000422426
0.000417961
0.000422407
0.000422413
0.000417982
0.000426954
0.000422446
0.000422402
0.000417944
0.000417947
0.000422398
0.000422402
0.00041794
0.000426888
0.0004313
0.000431338
0.000426879
0.000431311
0.000426865
0.000426888
0.000426893
0.000431294
0.000431339
0.000426884
0.000431314
0.000426872
0.000426892
0.000426893
0.00043135
0.000431355
0.000431352
0.000426899
0.000426904
0.000422378
0.000417941
0.000422389
0.000417934
0.000422362
0.000422392
0.000417953
0.000422383
0.000417949
0.000422396
0.00041794
0.000422372
0.000422397
0.000417955
0.000391089
0.00039554
0.000391086
0.00039554
0.000391078
0.000391053
0.00039552
0.000391072
0.000395507
0.000391054
0.000391067
0.000391087
0.000395545
0.000395538
0.000395539
0.000391089
0.000391065
0.000390993
0.000391095
0.000395537
0.000395534
0.000391083
0.000395531
0.000391094
0.000391082
0.000391096
0.000395542
0.00039554
0.000391076
0.000395534
0.000391098
0.000391083
0.000391072
0.000395533
0.000395532
0.000395533
0.000391083
0.00039108
0.000426912
0.000422411
0.000426922
0.000422422
0.000422408
0.000417924
0.000417928
0.000422393
0.000422399
0.000417935
0.000426899
0.000431296
0.000431349
0.000426891
0.000431319
0.000426893
0.000426875
0.000426898
0.000431294
0.000426897
0.000426897
0.000426872
0.000426908
0.000426909
0.000426912
0.00042239
0.00041793
0.000422397
0.000417948
0.000422389
0.000417963
0.000422376
0.000422391
0.000417939
0.000422404
0.000417951
0.000422396
0.000417966
0.000422376
0.000404488
0.000408999
0.000404487
0.000409004
0.000408946
0.000413401
0.000413405
0.000413426
0.000408933
0.000408935
0.000404491
0.000400059
0.000404477
0.000400008
0.000404459
0.000404506
0.000400047
0.000404495
0.000400063
0.000404477
0.000400013
0.000404467
0.00040451
0.000400049
0.000409018
0.000413419
0.000413449
0.000408979
0.000413452
0.000408961
0.000409015
0.000409022
0.000413432
0.000413452
0.000408981
0.000413455
0.000408972
0.000409019
0.000404443
0.000399981
0.00039998
0.000404428
0.000404428
0.000399976
0.000422393
0.000422369
0.00041794
0.000417936
0.00042239
0.000422373
0.000417945
0.000426889
0.000431317
0.000426882
0.000431323
0.00042687
0.000426877
0.000426867
0.000431324
0.000431307
0.000426874
0.000431324
0.000426869
0.000422391
0.000417937
0.000422392
0.000422383
0.000417956
0.000408998
0.000413458
0.000413438
0.000408999
0.000413452
0.000409004
0.000408997
0.000404506
0.000404494
0.000400044
0.000400056
0.000404504
0.000409017
0.000413457
0.000408994
0.00041346
0.000409003
0.000404508
0.000404497
0.000400055
0.00040005
0.000400052
0.000404513
0.000404495
0.000409006
0.000413456
0.000413439
0.000408997
0.000413458
0.000409003
0.000409
0.000404513
0.000404513
0.000400055
0.000404507
0.00040007
0.000409017
0.000413448
0.00040901
0.000413455
0.000408999
0.000404516
0.000404497
0.000400057
0.000400057
0.000404514
0.0004045
0.000400059
0.000422407
0.000417974
0.000417972
0.000422419
0.000422418
0.000417954
0.000426875
0.00043129
0.000431334
0.000426876
0.000426892
0.0004313
0.000426857
0.000426875
0.000431291
0.000431337
0.000426875
0.000426858
0.000431302
0.000426894
0.000426887
0.000431346
0.000431347
0.000426908
0.000431336
0.000426908
0.000422364
0.000417957
0.000422391
0.000417919
0.000422403
0.000422351
0.00041794
0.000422365
0.000417955
0.000422389
0.000417921
0.000422354
0.000422403
0.00041794
0.000426887
0.000422393
0.000409017
0.00040901
0.000413476
0.000413473
0.000413469
0.000409021
0.00040902
0.000409007
0.000413462
0.000413416
0.000409001
0.000408989
0.00041343
0.00040901
0.000409005
0.000413459
0.000413418
0.000408998
0.00041343
0.000409005
0.000408988
0.000409011
0.000422422
0.000422389
0.000417971
0.000417957
0.000422423
0.000422394
0.000417967
0.00042695
0.000431363
0.000426918
0.00043138
0.000426925
0.000426907
0.000426882
0.000431346
0.000431321
0.000426903
0.000431352
0.000426888
0.000422447
0.000417981
0.000422419
0.000422439
0.000417997
0.000409015
0.000413455
0.000413476
0.000409014
0.000413475
0.000409013
0.000409013
0.000404494
0.000404503
0.00040003
0.000400032
0.000404498
0.000409018
0.000413464
0.000409007
0.000413471
0.000409004
0.000404516
0.000404507
0.000400059
0.000400043
0.000400049
0.000404508
0.000404514
0.000409007
0.00041348
0.000413456
0.000409017
0.00041347
0.000409016
0.00040901
0.000404482
0.00040447
0.000400012
0.000404491
0.000400008
0.000409017
0.000413475
0.000408986
0.000413478
0.000409007
0.000404502
0.000404508
0.000400041
0.000400046
0.000404514
0.0004045
0.00040003
0.000422389
0.000422369
0.000417933
0.000417935
0.000422372
0.000422387
0.000417938
0.000426883
0.000431316
0.000426881
0.000426869
0.000431321
0.000426876
0.000426869
0.00043131
0.000431325
0.000426871
0.000431326
0.000426873
0.000422383
0.000417932
0.000422389
0.000422379
0.000417947
0.000422388
0.000422371
0.000417936
0.000417934
0.000422388
0.000422374
0.000417937
0.000426889
0.000431321
0.000426883
0.000431324
0.000426874
0.000426875
0.00042687
0.000431326
0.000431312
0.000431327
0.000426874
0.000426873
0.000422388
0.000417937
0.000422389
0.000422385
0.00041795
0.000408999
0.000413434
0.000413449
0.000408992
0.000413451
0.000408994
0.000408996
0.000409011
0.000413442
0.000409003
0.000413447
0.000408995
0.00040451
0.000404491
0.000400051
0.000400054
0.000404494
0.000404509
0.000400055
0.000408996
0.00041345
0.000413434
0.000408992
0.000413449
0.000408996
0.000408993
0.000404505
0.0004045
0.000400049
0.000404502
0.000400064
0.00040901
0.000413446
0.000408997
0.000413448
0.000408995
0.000404507
0.000404491
0.000400053
0.000400049
0.000404509
0.000404492
0.000400053
0.000422422
0.000417875
0.000417874
0.000422387
0.000422387
0.000417916
0.000431308
0.000426927
0.000426896
0.000422422
0.000417915
0.000422421
0.000417982
0.000422394
0.000422405
0.000417996
0.000422422
0.000417914
0.000422419
0.000417982
0.000422405
0.000422394
0.000417996
0.000422444
0.000404436
0.000408974
0.000408859
0.00041331
0.00041331
0.000413368
0.000408813
0.000408813
0.000404483
0.000400067
0.000404424
0.00039993
0.000404535
0.000404384
0.000400024
0.000404482
0.000400068
0.000404425
0.000399931
0.000404383
0.000404534
0.000400025
0.000409029
0.000413378
0.000413491
0.000408947
0.000409052
0.00041348
0.000408899
0.000409028
0.000413375
0.00041349
0.000408947
0.000413479
0.000408896
0.000409051
0.00040434
0.000399848
0.000399853
0.000404296
0.000404297
0.000399863
0.000404438
0.000408973
0.000422414
0.000422387
0.000417953
0.000417964
0.000422392
0.000422416
0.000417959
0.00042244
0.000417978
0.000422417
0.000422434
0.000417991
0.000422409
0.00042238
0.000417947
0.000417958
0.000422381
0.000422409
0.000417961
0.000426911
0.000431331
0.000426889
0.000431343
0.000426886
0.000426892
0.000426874
0.000431308
0.000431337
0.000431336
0.000426875
0.00042689
0.000422412
0.000417949
0.0004224
0.000422399
0.000417972
0.000409002
0.000413451
0.000413476
0.000409013
0.000413462
0.000409006
0.000409014
0.000404485
0.000404468
0.000400017
0.000404492
0.000400015
0.000409015
0.000413474
0.000408981
0.000413474
0.000409007
0.0004045
0.000404506
0.000400044
0.000400046
0.000404496
0.000404514
0.000400032
0.000409016
0.000413451
0.000413471
0.000409009
0.000413472
0.000409011
0.000409011
0.000404504
0.000404515
0.000400042
0.000404502
0.00040005
0.000409019
0.000413456
0.000409014
0.000413466
0.000409001
0.00040452
0.000404504
0.000400061
0.000400051
0.000404508
0.000404516
0.000400056
0.000426895
0.000422396
0.000426904
0.00042241
0.00040898
0.000413438
0.000413442
0.000413445
0.000408982
0.000408987
0.000404489
0.000400051
0.000404494
0.000400034
0.000400053
0.00040449
0.000404487
0.000404493
0.000400056
0.000404497
0.000400043
0.000400056
0.000404494
0.000404499
0.00040901
0.000413441
0.000413432
0.000408988
0.000413439
0.000408999
0.000408987
0.000409012
0.000413451
0.000413435
0.000408992
0.000413442
0.000409001
0.000408999
0.000404486
0.000400032
0.000400033
0.000400024
0.000404482
0.000404484
0.0004045
0.000409002
0.000404505
0.000409012
0.000391071
0.000391052
0.000391075
0.000395537
0.000395516
0.000391062
0.000395518
0.000391072
0.000391085
0.000391074
0.000395539
0.000395518
0.000391052
0.000395519
0.000391068
0.000391086
0.00039104
0.000395495
0.000395489
0.000395489
0.000391064
0.000391058
0.000391017
0.000395491
0.000391037
0.000395477
0.000391018
0.000391051
0.000391083
0.000395533
0.00039553
0.000391058
0.000395521
0.000391073
0.000391111
0.000395552
0.000391097
0.000395556
0.000391095
0.000391103
0.000391099
0.000395562
0.000395545
0.000395561
0.000391102
0.000391098
0.000391022
0.000395525
0.000395448
0.000390998
0.000391019
0.000395477
0.00039106
0.000391025
0.000395529
0.000395451
0.000391003
0.000391063
0.000395481
0.000391022
0.000390954
0.000395385
0.000395389
0.000390991
0.000395379
0.000390994
0.000391
0.00039103
0.000395497
0.000391042
0.000391026
0.000395489
0.000391061
0.000391085
0.000395529
0.00039554
0.000391075
0.000395527
0.000391068
0.000391079
0.000395539
0.00039109
0.00039553
0.000391078
0.000391081
0.000391091
0.000395551
0.000395548
0.000395552
0.000391096
0.000391077
0.000391096
0.000391082
0.000429133
0.000429124
0.000420174
0.000420193
0.000420193
0.000420227
0.000429164
0.000426954
0.000431217
0.000431205
0.000427011
0.000431201
0.000426936
0.000426946
0.000393372
0.000393383
0.0003934
0.000391179
0.000395464
0.000395473
0.000391263
0.000395447
0.000391181
0.000391184
0.000426964
0.000431206
0.000431206
0.000427009
0.000431204
0.000426946
0.000426944
0.000404431
0.000404322
0.00040016
0.000400164
0.000404444
0.000404451
0.000400153
0.000426938
0.000431207
0.000431204
0.000427002
0.000426927
0.000431195
0.000426931
0.000431209
0.000427014
0.000426966
0.000404473
0.000404385
0.000400211
0.000400211
0.000404511
0.00040451
0.000400173
0.000404406
0.0004043
0.000400138
0.000400141
0.000400139
0.000404417
0.000404424
0.000391163
0.000395473
0.00039548
0.000391267
0.000395445
0.000391176
0.000391178
0.000391131
0.000395497
0.000395498
0.000391286
0.000391172
0.000395439
0.000391171
0.000429134
0.000429136
0.000420166
0.000420189
0.000420191
0.000420223
0.000429166
0.000429121
0.00042912
0.000420185
0.000420196
0.000420194
0.00042023
0.000429162
0.000429136
0.000429126
0.000420172
0.000420194
0.00042019
0.000420226
0.000429165
0.000411248
0.000402318
0.000402332
0.000411256
0.000411265
0.000411291
0.000402351
0.000411225
0.00040231
0.000402307
0.000411248
0.000411248
0.000411282
0.000402341
0.000411275
0.000402343
0.000402338
0.000411274
0.00041127
0.000411298
0.000402359
0.000411237
0.000402312
0.000402322
0.000411253
0.000411258
0.000411288
0.000402347
0.000422267
0.000422303
0.00041797
0.000418002
0.000422308
0.000422269
0.000418015
0.000426924
0.00043128
0.000431257
0.000426896
0.000431212
0.000426884
0.000426902
0.000426955
0.000426909
0.000431248
0.000431211
0.000431207
0.00042691
0.000426944
0.000422272
0.000417962
0.000422343
0.000417944
0.00042234
0.000422318
0.000417983
0.000422264
0.000422297
0.000418005
0.000417976
0.000422266
0.000422302
0.000418023
0.000422284
0.000417989
0.000422352
0.000417986
0.000422365
0.000422329
0.00041801
0.000422281
0.000422157
0.000418011
0.000418018
0.000422278
0.000422292
0.000418027
0.000393368
0.000393364
0.000393395
0.000393391
0.000393385
0.000393405
0.000393366
0.000393375
0.000393397
0.000391183
0.000395552
0.000395511
0.000391092
0.000395491
0.000391132
0.000391141
0.000391222
0.000391157
0.000395468
0.000395508
0.000395479
0.000391189
0.00039116
0.000422295
0.000422162
0.000418034
0.000418035
0.000418046
0.000422296
0.000422298
0.00040912
0.00040918
0.000413377
0.000413382
0.000413374
0.000409112
0.000409114
0.000422266
0.000422299
0.000417969
0.000418002
0.000422303
0.000422266
0.000418016
0.000426921
0.000431273
0.000431249
0.000426895
0.000426898
0.000431208
0.000426885
0.00042695
0.000426903
0.00043124
0.000431203
0.000426902
0.0004312
0.000426938
0.000422278
0.000417969
0.00042234
0.00041796
0.000422319
0.000422348
0.000417992
0.000422262
0.000422297
0.000417967
0.000417999
0.000422303
0.000422264
0.000418012
0.000426919
0.000431277
0.000431253
0.000426893
0.000431209
0.000426897
0.000426879
0.000426951
0.000426903
0.000431242
0.000431203
0.000431202
0.000426904
0.000426938
0.000422269
0.00041796
0.00042234
0.000417941
0.000422313
0.000417979
0.000422337
0.000409086
0.000413371
0.000413332
0.000409036
0.000413333
0.000409037
0.000409069
0.000404414
0.00040009
0.000404455
0.000400094
0.000404491
0.000404454
0.000400119
0.000409063
0.00041339
0.000413424
0.000409013
0.000409033
0.000413349
0.000409038
0.000404401
0.000404432
0.000400099
0.00040013
0.000404438
0.000404398
0.000400148
0.000409077
0.000413368
0.000413328
0.000409032
0.000413325
0.000409033
0.000409065
0.000404399
0.000400077
0.000404462
0.000400089
0.000404443
0.000404471
0.000400111
0.000409045
0.000413378
0.000413402
0.000409019
0.000413332
0.000409025
0.000409009
0.000404392
0.000404429
0.000400097
0.000400128
0.000404434
0.000404395
0.00040014
0.000422258
0.000422146
0.000417991
0.000417993
0.000422267
0.000422266
0.000418002
0.000409073
0.000409135
0.000413332
0.000413335
0.000409062
0.000413324
0.000409063
0.00042226
0.000422293
0.000417974
0.000418002
0.000422299
0.000422262
0.000418017
0.000426915
0.00043127
0.000426895
0.000426894
0.000431201
0.000426879
0.000426939
0.000426892
0.000431192
0.000426893
0.000431189
0.000426927
0.000422274
0.000417974
0.000422344
0.000417963
0.000422319
0.000422349
0.000417993
0.000422262
0.000422294
0.000418004
0.000417977
0.000422263
0.0004223
0.000418022
0.000426914
0.000431268
0.000431242
0.000426908
0.00043119
0.0004269
0.000426888
0.000426936
0.000426892
0.00043119
0.000431225
0.000431182
0.000426926
0.000426893
0.000422283
0.000417988
0.000422353
0.000417987
0.000422328
0.00041801
0.000422365
0.0004091
0.000413384
0.000413341
0.000409054
0.000413341
0.000409056
0.000409085
0.000404425
0.000400101
0.000404466
0.000400107
0.0004045
0.000404465
0.000400134
0.000409072
0.000413399
0.000413431
0.000409025
0.000409043
0.000413354
0.000409048
0.000404419
0.000404453
0.00040012
0.000400154
0.000404459
0.000404418
0.00040017
0.000409112
0.000413346
0.000413386
0.000409058
0.000413351
0.000409089
0.000409058
0.000404448
0.000400124
0.000404447
0.000400111
0.000404473
0.000404528
0.000400155
0.000409096
0.000413411
0.000413459
0.000409013
0.000413376
0.000409057
0.000409073
0.000404433
0.000404456
0.000400159
0.000400122
0.000404425
0.000404461
0.000400183
0.00042227
0.000422304
0.000418003
0.000417971
0.000422271
0.000422309
0.000418018
0.000426924
0.000431282
0.000431257
0.000426895
0.000426885
0.000431216
0.000426903
0.000426958
0.000426909
0.000431211
0.000431248
0.000426945
0.00043121
0.00042691
0.000422277
0.000417967
0.000422341
0.000417953
0.000422343
0.000422321
0.000417989
0.000409075
0.000413368
0.000413329
0.000409029
0.000413326
0.000409029
0.000409063
0.000409045
0.000413378
0.000413402
0.000409014
0.000413333
0.000409008
0.000409023
0.000404388
0.000404422
0.000400087
0.000400121
0.000400134
0.000404427
0.00040439
0.00040908
0.00041333
0.00041337
0.000409031
0.000413331
0.000409064
0.000409032
0.000404404
0.000400074
0.000404457
0.000400086
0.000404444
0.000404475
0.000400109
0.000409053
0.000413384
0.000413414
0.000409015
0.000413341
0.000409029
0.000409019
0.000404393
0.000404424
0.000400122
0.00040009
0.000404392
0.00040443
0.000400138
0.000422336
0.000422184
0.000418083
0.000418084
0.000422334
0.000422331
0.000418099
0.000409182
0.000409244
0.000413438
0.000413439
0.000409183
0.000413441
0.000409183
0.000422262
0.000422295
0.000418003
0.000417972
0.000422264
0.000422299
0.000418016
0.00042692
0.000431273
0.000431247
0.000426893
0.000426887
0.000431207
0.000426896
0.000426944
0.000426894
0.000431195
0.000431232
0.00042693
0.000431193
0.000426896
0.000422276
0.000417968
0.000422343
0.000417959
0.000422351
0.000422319
0.000417988
0.000409108
0.000413344
0.000413384
0.000409054
0.00041335
0.000409086
0.000409055
0.000404448
0.000400121
0.000404444
0.000400108
0.000400153
0.000404526
0.000404472
0.000409095
0.000413409
0.000413457
0.00040901
0.000413376
0.000409071
0.000409055
0.000404426
0.000404451
0.000400151
0.000400116
0.000400176
0.000404419
0.000404456
0.00040909
0.000413338
0.000413379
0.000409048
0.000413336
0.000409079
0.000409049
0.000404409
0.000400086
0.000404469
0.000400099
0.000404456
0.000404486
0.000400121
0.000409059
0.00041339
0.000413419
0.000409025
0.000413344
0.000409039
0.000409027
0.000404408
0.000404445
0.000400144
0.000400112
0.000404411
0.000404451
0.000400156
0.00040909
0.000409154
0.000413353
0.000413359
0.000413348
0.000409082
0.000409084
0.000391164
0.000395542
0.000395503
0.000391115
0.00039114
0.000395456
0.000391125
0.000391176
0.000395547
0.000395513
0.000391113
0.000391144
0.000395471
0.000391133
0.000391216
0.000391164
0.000395513
0.000395475
0.000391164
0.000395474
0.000391202
0.000391183
0.000395552
0.000395514
0.00039109
0.000395488
0.000391143
0.000391132
0.000391226
0.000391166
0.000395479
0.000395516
0.00039549
0.000391205
0.000391166
0.000391158
0.000395525
0.000395496
0.000391116
0.000391122
0.000395455
0.000391134
0.000391189
0.000391141
0.000395446
0.000395484
0.000391174
0.000395445
0.000391141
0.000391171
0.000395536
0.000395508
0.00039112
0.000391132
0.000395465
0.000391142
0.000391205
0.000391156
0.000395465
0.000395505
0.000391192
0.000395463
0.000391156
0.00043134
0.00043131
0.000431362
0.000431347
0.000431275
0.000431223
0.000431342
0.000431358
0.000431312
0.000431343
0.000431342
0.000431348
0.000431318
0.000431372
0.000431374
0.000431375
0.000431241
0.000431227
0.000126186
0.000125607
0.00012612
0.000126139
0.000126223
0.000125815
0.000123604
0.00012366
0.000125942
0.000126034
0.000126067
0.000121672
0.000121715
0.000126201
0.000126216
0.000126254
0.000121625
0.000121639
0.000121679
0.000126088
0.000125971
0.000121659
0.000121603
0.000126074
0.000121606
0.000121689
0.000126118
0.000125972
0.000121674
0.000126082
0.000121639
0.0001216
0.000121723
0.000121682
0.000126028
0.000126149
0.000121594
0.000126155
0.000121625
0.000121677
0.000121719
0.000126155
0.000121578
0.000126237
0.000121726
0.000121654
0.000121608
0.000121625
0.000121687
0.00012172
0.000121623
0.000121747
0.000121702
0.000121723
0.000121595
0.000125807
0.000125806
0.000121619
0.000125901
0.000121618
0.000121505
0.000125787
0.000125811
0.000121497
0.000125763
0.000121502
0.000121509
0.000121508
0.000125874
0.000125853
0.000121592
0.000125781
0.000121506
0.000121574
0.000121514
0.000121543
0.000177887
0.000177842
0.000177906
0.000179929
0.000141746
0.000141635
0.000141674
0.000143566
0.000198331
0.000198295
0.00019568
0.000195739
0.000198064
0.00014869
0.000180031
0.000179985
0.000150823
0.00015074
0.000180048
0.000148603
0.00018
0.000180007
0.000150841
0.000150852
0.000177864
0.00018007
0.000150712
0.000150644
0.000179961
0.000148685
0.000177842
0.000180032
0.000150829
0.000150655
0.000180028
0.000148479
0.000143729
0.000141693
0.000141657
0.000143671
0.0001417
0.000141696
0.000141572
0.000143719
0.000141571
0.000184637
0.000184583
0.00018461
0.000184577
0.000198178
0.000198035
0.000186796
0.000186822
0.000184601
0.000184827
0.000198137
0.000180107
0.000180119
0.000166632
0.000166557
0.000180099
0.000166506
0.000180165
0.000180129
0.000166672
0.000166583
0.000177867
0.000177874
0.00017787
0.000150846
0.000150757
0.000150844
0.000150703
0.00017784
0.000179994
0.000180002
0.000166683
0.000168846
0.000166604
0.000168848
0.000180189
0.000166441
0.000177848
0.000166747
0.00018007
0.000168999
0.000180015
0.000168914
0.000166643
0.000179961
0.000179941
0.000166761
0.000166458
0.000166468
0.000130501
0.000144006
0.000143969
0.000130585
0.000144078
0.000130708
0.000130464
0.000143989
0.000143947
0.000130564
0.000141702
0.000141736
0.000141658
0.000130481
0.000143983
0.000141669
0.000132609
0.000143908
0.000130623
0.000132643
0.00014397
0.000130659
0.000130453
0.000141709
0.000143938
0.000132581
0.000143924
0.00013264
0.000130555
0.000144249
0.000144234
0.000130629
0.000130824
0.000130807
0.000184784
0.000197576
0.000184792
0.000184722
0.000184712
0.000198294
0.000184778
0.000198337
0.00019557
0.000186726
0.000186738
0.000197863
0.000184674
0.000198047
0.000184601
0.000186769
0.00018682
0.000197969
0.000195776
0.000184582
0.000197881
0.000184598
0.000198033
0.000184684
0.000198204
0.000184652
0.000184574
0.000198031
0.000184636
0.000180148
0.000166459
0.000180173
0.000166472
0.000180076
0.000180112
0.000179925
0.000166963
0.000166457
0.000166467
0.000148417
0.000161903
0.000148419
0.000161906
0.00016203
0.000148511
0.000148504
0.000161911
0.000161915
0.000180113
0.000180074
0.000166626
0.000166585
0.000179986
0.000177869
0.000177825
0.000166717
0.000168948
0.00016663
0.000168886
0.000180011
0.000177843
0.000177819
0.000166709
0.000168876
0.000166641
0.000168862
0.00016208
0.000148546
0.000162006
0.000148524
0.000162077
0.000148582
0.000162059
0.000148528
0.000162086
0.000159947
0.00014859
0.00015082
0.000162024
0.000159894
0.000148652
0.000162077
0.000159839
0.000148626
0.000150788
0.000162047
0.000159859
0.000148646
0.000179895
0.000180033
0.000166817
0.000166505
0.000166483
0.000180079
0.000166469
0.000148533
0.000161978
0.000161875
0.000148596
0.0001486
0.000161982
0.000161962
0.000148539
0.000161945
0.000180024
0.000177869
0.000177819
0.000166765
0.000168962
0.000166655
0.000168912
0.000180169
0.000180161
0.000166673
0.000166579
0.000177825
0.000177893
0.000180068
0.000166771
0.000168998
0.000168922
0.000166666
0.000162114
0.000148523
0.000162024
0.00014851
0.000162139
0.000159974
0.000148592
0.000150865
0.000162046
0.000159933
0.000148681
0.000162113
0.000148511
0.000162012
0.000148507
0.000162144
0.000159999
0.00015087
0.000148581
0.000159948
0.000162047
0.000148679
0.000180076
0.000180056
0.000166572
0.00016654
0.00017785
0.000179995
0.000179967
0.000166679
0.000168833
0.000168838
0.0001666
0.000180007
0.000166564
0.000166535
0.000162041
0.000159806
0.000148599
0.000150731
0.000162008
0.000159813
0.000148587
0.000162027
0.000148563
0.000162009
0.000148521
0.000162037
0.00015975
0.000150707
0.000148639
0.000159793
0.000162016
0.000148582
0.00016202
0.000148619
0.000162022
0.000148522
0.000180101
0.000180095
0.000167025
0.000166447
0.000166428
0.000180169
0.00016641
0.000148409
0.000161873
0.000162076
0.000148493
0.000148498
0.00016189
0.000161876
0.000148421
0.00016185
0.000177876
0.000179987
0.00016673
0.000168862
0.000180008
0.000168869
0.000166635
0.000166626
0.000180129
0.000180136
0.000166535
0.000166612
0.000180117
0.000166562
0.000162114
0.000159986
0.000150812
0.000148561
0.000159908
0.000162021
0.000148625
0.000162095
0.000159779
0.00015075
0.000148649
0.000159841
0.000162045
0.000148617
0.000162067
0.000148493
0.000161969
0.000148504
0.000162057
0.000148616
0.000162039
0.000148515
0.000180001
0.00016643
0.000166446
0.000161806
0.00014871
0.000148703
0.00016197
0.000161979
0.000148624
0.000161944
0.000148613
0.000161947
0.000143995
0.000130677
0.00014398
0.000130661
0.000144017
0.000144008
0.000130497
0.000130697
0.000130687
0.00012621
0.000126194
0.000125611
0.00012614
0.000126132
0.000130509
0.000144054
0.000143975
0.000130606
0.000130484
0.000143964
0.000141734
0.0001326
0.000143953
0.000130568
0.000132664
0.00013049
0.000144
0.00014172
0.000132621
0.000143951
0.000130597
0.000132673