/*--------------------------------*- C++ -*----------------------------------*\
| =========                 |                                                 |
| \\      /  F ield         | OpenFOAM: The Open Source CFD Toolbox           |
|  \\    /   O peration     | Version:  v2006                                 |
|   \\  /    A nd           | Website:  www.openfoam.com                      |
|    \\/     M anipulation  |                                                 |
\*---------------------------------------------------------------------------*/
FoamFile
{
    version     2.0;
    format      ascii;
    class       volVectorField;
    location    "500";
    object      U;
}
// * * * * * * * * * * * * * * * * * * * * * * * * * * * * * * * * * * * * * //

dimensions      [0 1 -1 0 0 0 0];


internalField   nonuniform List<vector> 
14374
(
(-1.38815e-05 -1.11039e-06 0.107427)
(7.2216e-06 -1.51308e-05 0.107438)
(-3.71849e-05 3.24035e-05 0.104443)
(-4.53368e-06 1.17427e-05 0.10743)
(-1.79568e-05 8.66048e-06 0.107438)
(1.7333e-05 2.02613e-05 0.104447)
(-1.36713e-05 1.09018e-05 0.111914)
(4.2624e-06 5.36065e-06 0.111916)
(7.20867e-06 6.37406e-06 0.0829417)
(-1.5084e-05 -3.4622e-06 0.0935715)
(1.56582e-05 5.48351e-06 0.0935848)
(-1.09102e-05 1.85615e-05 0.0829542)
(1.60213e-05 7.40598e-06 0.0721242)
(4.29806e-07 4.00581e-06 0.0881477)
(-9.20038e-06 -3.92751e-06 0.0881517)
(-1.00906e-05 -1.62721e-05 0.0721251)
(-8.11542e-06 1.69815e-05 0.109657)
(-5.15866e-06 1.13295e-05 0.0935759)
(-7.79303e-06 2.27048e-05 0.09896)
(-1.02857e-05 1.69244e-05 0.10966)
(2.6223e-07 1.77711e-05 0.0935828)
(-1.33432e-05 2.41691e-05 0.0989627)
(-9.43239e-06 -8.57684e-06 0.0829449)
(-4.66777e-06 1.34677e-05 0.091938)
(1.62659e-05 -1.00799e-05 0.0829531)
(-9.66396e-06 1.44127e-05 0.0919394)
(-1.01582e-05 1.90829e-05 0.0881458)
(1.58323e-05 -8.00125e-06 0.0881436)
(-2.12691e-05 2.19074e-05 0.0721212)
(2.00032e-05 -2.10053e-05 0.0721213)
(-2.21717e-06 -4.01404e-07 0.0825923)
(-1.07512e-06 9.52156e-06 0.0826075)
(-3.53836e-06 5.82458e-06 0.0718829)
(-3.58249e-06 -1.10982e-05 0.0921032)
(-1.64815e-05 -8.55001e-06 0.0967337)
(-8.36813e-06 1.07045e-06 0.0879923)
(1.02235e-05 1.54407e-05 0.0821863)
(-4.70465e-06 -1.83258e-05 0.0966759)
(-9.62135e-06 1.30985e-05 0.081901)
(-7.11866e-06 -2.1677e-06 0.0921644)
(4.8787e-06 -2.60881e-06 0.0921101)
(1.71762e-06 1.21556e-05 0.0967397)
(-7.25625e-06 4.39183e-06 0.087996)
(-1.85338e-05 -1.42163e-05 0.082192)
(-1.74943e-05 4.88722e-06 0.0819076)
(1.24654e-05 1.35411e-06 0.0966807)
(-4.12984e-06 3.56103e-07 0.0921721)
(2.30128e-06 -8.71501e-06 0.084053)
(6.50065e-06 1.14884e-05 0.0687713)
(-1.36122e-05 -7.25617e-06 0.0687761)
(3.02727e-07 7.50064e-06 0.0686739)
(-1.11759e-05 -2.59642e-06 0.0686807)
(-4.33511e-07 -4.82337e-06 0.0840721)
(-1.02487e-05 1.98177e-06 0.071885)
(-2.30351e-05 1.2065e-05 0.0685847)
(-4.45284e-06 -2.83661e-07 0.0825964)
(-2.14499e-06 -2.33097e-06 0.0864765)
(-1.25321e-05 1.07706e-06 0.0862745)
(9.57896e-06 -1.4811e-05 0.0691527)
(-1.56045e-06 8.03812e-06 0.0773467)
(-9.63892e-06 2.78437e-06 0.0918844)
(-3.55731e-06 6.66808e-06 0.0904729)
(2.57336e-06 1.02201e-05 0.0791909)
(-6.15509e-06 4.29332e-06 0.0904034)
(-6.20389e-06 -5.44977e-06 0.0791819)
(-8.74808e-06 -7.63271e-06 0.0774483)
(2.25113e-05 1.11729e-05 0.0685837)
(6.35726e-06 2.97856e-07 0.0826062)
(3.49767e-07 -2.93028e-06 0.0864786)
(6.16415e-06 2.65585e-06 0.0862837)
(-5.10321e-06 -1.66096e-05 0.0691459)
(-2.62888e-06 8.31791e-06 0.0773502)
(-8.15421e-06 4.03368e-06 0.0918857)
(-9.15241e-06 9.46945e-06 0.0904761)
(-7.42857e-07 1.00405e-05 0.0791929)
(-1.07147e-05 8.3942e-06 0.0904092)
(2.6905e-06 -5.36626e-06 0.0791827)
(1.04021e-05 -8.32353e-06 0.0774519)
(-4.3226e-06 -6.81431e-06 0.0920781)
(1.13628e-05 -1.15199e-05 0.0967261)
(2.43903e-06 1.42192e-05 0.0879965)
(-1.80038e-05 3.50648e-05 0.0821885)
(-3.8644e-06 5.07309e-06 0.0921319)
(3.83872e-06 -2.52597e-05 0.0966791)
(3.7527e-06 3.35284e-05 0.0819015)
(-1.09334e-05 -5.61122e-07 0.0920716)
(-1.56354e-05 1.41864e-05 0.0967211)
(1.03246e-05 4.79736e-06 0.0879944)
(3.29378e-05 -1.59119e-05 0.0821844)
(1.13463e-06 1.80061e-07 0.0921252)
(-2.90525e-05 6.25214e-06 0.0966739)
(3.06484e-05 6.37434e-06 0.0818968)
(-1.55032e-05 -1.16586e-05 0.0840123)
(-1.11595e-05 2.32138e-05 0.0687902)
(2.17666e-05 -1.04462e-05 0.0687852)
(-1.17399e-05 -8.41935e-06 0.0840365)
(-4.76947e-06 2.10077e-05 0.0686783)
(1.86646e-05 -3.41981e-06 0.0686747)
(-2.46349e-06 1.86709e-05 0.0718833)
(1.58912e-05 -1.6214e-06 0.0718835)
(9.35445e-06 -1.43811e-05 0.0979187)
(2.71655e-05 -2.99149e-05 0.104342)
(-1.31889e-05 2.33228e-05 0.101762)
(-2.93216e-05 8.73268e-06 0.101766)
(3.96118e-06 -3.9679e-05 0.101705)
(3.54949e-05 -6.74606e-06 0.101708)
(-5.18995e-06 -1.07119e-06 0.0979644)
(-2.49916e-05 -2.15819e-05 0.0979027)
(-4.35561e-05 -4.18025e-05 0.104355)
(-5.27793e-07 9.39383e-06 0.101759)
(5.74832e-06 2.45882e-06 0.101755)
(-1.1218e-05 -7.01625e-06 0.0979332)
(-1.48334e-05 -5.47494e-05 0.101715)
(-5.73931e-05 -1.27472e-05 0.101711)
(-6.99022e-06 1.48807e-05 0.114117)
(-1.14781e-06 1.37623e-05 0.114116)
(-5.25377e-05 -9.33349e-06 0.099927)
(-1.08009e-05 -8.53149e-06 0.093444)
(2.11513e-05 -1.26169e-05 0.0998563)
(5.28682e-05 -1.64087e-05 0.0999421)
(1.51473e-05 -3.79879e-06 0.0934632)
(-1.71496e-05 -2.29257e-05 0.0998783)
(-8.08868e-07 -2.4546e-05 0.1016)
(1.64613e-06 4.91398e-05 0.099932)
(1.23869e-07 7.29139e-06 0.0934481)
(-2.13568e-06 1.43274e-05 0.0961297)
(-1.16983e-06 5.38957e-05 0.101703)
(6.49992e-06 -2.32609e-05 0.0998603)
(-3.35347e-06 3.34364e-06 0.096036)
(-5.84972e-06 -1.9716e-05 0.103083)
(-8.9839e-06 4.12228e-06 0.0989062)
(-8.70076e-06 5.74778e-05 0.103793)
(-3.28864e-06 1.93481e-05 0.0980338)
(-4.84756e-06 5.68613e-05 0.10319)
(-8.74086e-06 -1.87868e-05 0.103708)
(-4.7844e-06 4.81056e-06 0.0979671)
(-2.00692e-05 -1.802e-05 0.101616)
(-2.10729e-05 5.52073e-05 0.0999389)
(-8.99732e-06 1.71246e-05 0.0934608)
(-1.20378e-05 1.96065e-05 0.0961396)
(-1.23427e-05 1.03791e-05 0.0960505)
(-2.68205e-05 -1.55182e-05 0.0998747)
(-2.1173e-05 5.95983e-05 0.101715)
(-1.38442e-05 -1.553e-05 0.103094)
(-1.13892e-05 5.84082e-06 0.0989095)
(-1.34196e-05 5.90791e-05 0.103796)
(-1.69511e-05 2.40095e-05 0.0980413)
(-9.90302e-06 -1.69726e-05 0.103712)
(-1.54022e-05 1.03057e-05 0.0979775)
(-1.77729e-05 6.04761e-05 0.103199)
(-1.3672e-05 -1.23425e-05 0.112176)
(1.12338e-05 -6.97133e-06 0.107446)
(-2.63916e-05 -2.48613e-05 0.104257)
(-9.26148e-06 -1.14326e-05 0.112146)
(-1.19727e-06 7.7244e-06 0.107441)
(-2.63193e-05 -2.81944e-05 0.104265)
(2.41757e-05 2.5494e-05 0.104258)
(-3.92659e-05 -4.1213e-05 0.104369)
(-8.10501e-06 -1.18216e-05 0.107445)
(6.49957e-06 -1.15115e-05 0.107444)
(-2.57102e-06 -1.09292e-05 0.107442)
(6.77477e-06 -1.1753e-05 0.107443)
(-2.6126e-05 2.57742e-05 0.104256)
(-1.32397e-05 -6.68134e-06 0.107446)
(-1.40328e-05 8.48264e-06 0.107444)
(-9.63304e-06 -4.93757e-06 0.107443)
(-8.48228e-06 -3.35801e-07 0.10744)
(1.12039e-05 7.40494e-06 0.107445)
(1.13891e-05 4.63055e-06 0.107442)
(2.30947e-05 -2.33999e-05 0.10426)
(-3.63197e-05 3.67897e-05 0.104364)
(6.03024e-06 1.2578e-05 0.107445)
(8.72484e-07 8.7571e-06 0.107442)
(6.77179e-06 1.05933e-05 0.107443)
(4.27021e-05 4.11292e-05 0.10437)
(2.96264e-05 2.75912e-05 0.104263)
(-3.3366e-06 -1.05302e-05 0.107443)
(-8.60305e-06 -5.78984e-06 0.107444)
(-7.19716e-06 1.85899e-06 0.10744)
(1.15016e-05 4.57584e-06 0.107443)
(3.19278e-05 -3.14323e-05 0.104257)
(6.99943e-06 9.76278e-06 0.107445)
(1.23738e-06 -1.14282e-05 0.0916969)
(3.0317e-06 4.00943e-06 0.0825219)
(2.38457e-07 1.5901e-06 0.0916561)
(-3.65013e-07 -7.87836e-06 0.0825709)
(-1.17578e-06 2.49815e-06 0.0718094)
(2.0213e-06 -3.06923e-06 0.0718587)
(-1.20322e-05 -1.67626e-06 0.0916995)
(-6.87442e-06 -2.15921e-06 0.0825718)
(1.17876e-05 -1.20412e-05 0.112177)
(-1.48205e-05 1.44705e-05 0.112175)
(1.17374e-05 1.2919e-05 0.112176)
(-9.99113e-06 -1.15635e-05 0.11215)
(1.24782e-05 -1.24129e-05 0.112151)
(-8.21374e-06 8.5728e-06 0.112149)
(1.23201e-05 1.10945e-05 0.11215)
(2.01592e-05 -7.88556e-07 0.0987742)
(-4.95435e-06 8.72215e-07 0.0932651)
(1.4207e-05 -2.9785e-06 0.10977)
(1.13211e-05 -7.27212e-06 0.107445)
(-2.48095e-06 -3.9596e-07 0.0987202)
(1.48786e-05 -4.6679e-06 0.0933188)
(1.42262e-05 -3.41411e-06 0.109764)
(1.73708e-06 -5.84026e-06 0.0718119)
(-1.48222e-06 3.37438e-06 0.0718561)
(1.44871e-06 2.18692e-05 0.0987759)
(-4.79252e-06 1.26341e-05 0.107445)
(-3.25325e-06 1.6003e-05 0.109762)
(-1.56496e-06 1.96402e-05 0.0933257)
(2.16648e-07 -2.96839e-06 0.0878361)
(-2.87197e-06 1.69172e-07 0.0878347)
(4.23439e-05 4.30478e-05 0.104366)
(7.18854e-06 4.4834e-06 0.087879)
(5.89846e-06 6.37727e-06 0.0878774)
(-3.0238e-06 6.15438e-06 0.0825526)
(5.17941e-06 -1.52687e-06 0.0825534)
(1.14902e-06 -5.76121e-07 0.0916908)
(1.22058e-05 -1.177e-05 0.112146)
(-7.35059e-06 7.96262e-06 0.112144)
(1.24635e-05 1.05173e-05 0.112145)
(4.27221e-06 5.66491e-06 0.0718335)
(1.28744e-06 1.27484e-05 0.109757)
(-3.74886e-06 -7.57616e-06 0.0932913)
(1.49335e-06 -2.49568e-06 0.0987476)
(-1.43065e-06 -1.40701e-06 0.0878628)
(-1.27709e-06 -1.79806e-06 0.0878631)
(3.80966e-06 1.89037e-06 0.0718126)
(-2.24095e-06 -2.58439e-06 0.0718565)
(-1.82304e-06 -3.80041e-06 0.0718559)
(4.32855e-06 -1.68084e-06 0.0878378)
(-4.24415e-05 -4.20688e-05 0.104368)
(-4.41629e-06 -7.98784e-06 0.0878796)
(-6.92983e-06 -5.96417e-06 0.0878776)
(-6.05178e-06 -1.55922e-06 0.0718689)
(3.68816e-07 3.41024e-06 0.0718233)
(-2.37266e-06 -5.38694e-06 0.0718689)
(3.85219e-06 -8.74481e-07 0.0718229)
(2.7913e-05 2.76073e-05 0.104261)
(-7.86643e-06 -3.75588e-06 0.0878905)
(-3.29417e-06 -8.0819e-06 0.0878894)
(1.68654e-06 -1.54466e-08 0.0878507)
(1.11926e-06 1.44498e-07 0.0878487)
(1.23329e-06 -1.12175e-05 0.0916967)
(-5.29339e-07 4.89448e-06 0.0825216)
(4.82129e-07 1.6401e-06 0.0916563)
(9.04179e-07 -7.47824e-06 0.08257)
(3.95332e-07 -2.08323e-05 0.0987745)
(2.90489e-06 3.40281e-06 0.0932652)
(-4.45551e-06 -1.44607e-05 0.109769)
(-5.96479e-06 -1.1705e-05 0.107444)
(-9.91053e-07 2.47816e-06 0.0987187)
(-2.75102e-06 -1.73771e-05 0.0933211)
(-3.24908e-06 -1.48149e-05 0.109763)
(1.02352e-06 -2.05934e-05 0.0987744)
(-1.46502e-06 4.66589e-06 0.0932636)
(2.60785e-06 -1.43486e-05 0.109769)
(6.84607e-06 -1.19023e-05 0.107443)
(1.25768e-07 2.50796e-06 0.0987189)
(4.56362e-06 -1.50379e-05 0.0933187)
(3.25485e-06 -1.47057e-05 0.109764)
(1.1827e-06 8.18193e-07 0.0916728)
(-4.35593e-06 -6.44237e-06 0.0825866)
(2.89589e-07 4.94975e-06 0.0825387)
(-4.46956e-08 -1.14903e-05 0.0917137)
(1.31476e-06 1.03817e-06 0.0916726)
(5.865e-07 -7.83038e-06 0.0825865)
(-9.4168e-07 4.82439e-06 0.0825359)
(3.81442e-07 -1.14703e-05 0.0917136)
(7.92471e-07 1.47454e-06 0.0987315)
(-3.74646e-06 -1.1454e-05 0.107444)
(-5.91347e-06 -1.48768e-05 0.0933336)
(-7.48738e-07 -1.48863e-05 0.109757)
(2.77157e-06 2.17463e-06 0.0932813)
(-1.77539e-06 -1.51059e-05 0.109761)
(1.00259e-06 -2.0829e-05 0.0987882)
(1.35773e-06 1.74698e-06 0.0987312)
(7.10882e-06 -1.21333e-05 0.107444)
(4.58462e-06 -1.5836e-05 0.0933347)
(4.30072e-06 -1.494e-05 0.109757)
(-1.37879e-06 4.08443e-06 0.0932784)
(4.02901e-06 -1.50786e-05 0.109761)
(1.431e-06 -2.07725e-05 0.0987881)
(-2.36265e-06 6.7047e-07 0.0878325)
(-1.02975e-06 2.02605e-06 0.0878358)
(4.32844e-05 -4.37881e-05 0.104367)
(4.53287e-06 -6.80532e-06 0.0878782)
(6.85514e-06 -4.31852e-06 0.0878778)
(-2.51825e-06 1.16782e-06 0.0718118)
(3.46873e-06 -1.68026e-06 0.071857)
(-1.81211e-06 2.30345e-06 0.071822)
(-2.58797e-05 2.54272e-05 0.104262)
(-2.45269e-06 -9.30817e-08 0.0878479)
(1.76324e-07 2.92459e-06 0.0878506)
(-2.07203e-06 2.3074e-06 0.0718245)
(-2.17641e-05 -1.04317e-06 0.0987755)
(-1.57623e-05 -2.53755e-06 0.109768)
(-1.26529e-05 -5.5929e-06 0.107444)
(-1.67961e-05 -4.23394e-06 0.0933211)
(-1.60766e-05 -2.84749e-06 0.109762)
(-1.23453e-05 -2.13787e-06 0.0917003)
(3.42435e-06 -5.17813e-06 0.0825219)
(1.35883e-06 -8.58032e-07 0.0916547)
(-7.47143e-06 1.12165e-06 0.0825742)
(-2.21573e-05 -1.1297e-06 0.0987759)
(-1.60593e-05 5.12148e-06 0.109766)
(1.31188e-06 -5.55199e-06 0.0932659)
(-1.29271e-05 4.53814e-06 0.107443)
(1.93571e-06 1.12707e-06 0.0987172)
(-1.63686e-05 3.09927e-06 0.109761)
(-1.95377e-05 1.73321e-06 0.093325)
(1.40668e-07 -1.9109e-06 0.091676)
(-6.97212e-06 -3.69864e-06 0.0825876)
(5.75076e-06 -1.22819e-06 0.0825399)
(-1.17474e-05 -1.15472e-06 0.0917171)
(6.5427e-07 -1.48463e-06 0.0987336)
(-1.13411e-05 -4.91279e-06 0.107444)
(-1.38606e-05 -7.81684e-06 0.0933345)
(-1.41838e-05 -3.764e-06 0.109758)
(3.04987e-06 7.57369e-07 0.0932816)
(-1.56044e-05 -3.34976e-06 0.109761)
(-2.06163e-05 -1.91433e-06 0.0987916)
(-1.92033e-07 -1.92777e-06 0.0916764)
(-5.61595e-06 7.59731e-06 0.0825895)
(5.65212e-06 1.45602e-06 0.0825419)
(-1.17473e-05 1.22716e-07 0.0917174)
(2.35591e-07 -1.67229e-06 0.0987346)
(-1.08877e-05 9.44361e-07 0.107443)
(-1.40549e-05 -8.28424e-07 0.109757)
(-1.35412e-05 8.83176e-06 0.0933343)
(-1.57432e-05 7.47301e-07 0.10976)
(7.04292e-07 -2.68146e-06 0.0932844)
(-2.07611e-05 -1.6301e-06 0.0987919)
(1.098e-05 -6.85424e-07 0.0916962)
(-5.01529e-06 4.24664e-07 0.0825228)
(-1.53796e-06 -3.95063e-07 0.0916574)
(7.82996e-06 -5.36683e-07 0.0825695)
(2.02844e-05 1.26606e-08 0.0987741)
(1.41956e-05 3.77616e-06 0.109769)
(-4.09349e-06 -1.65104e-06 0.0932653)
(1.11065e-05 6.42846e-06 0.107443)
(-2.45051e-06 7.15725e-07 0.0987203)
(1.42389e-05 3.17959e-06 0.109763)
(1.58756e-05 3.86816e-06 0.0933201)
(1.10837e-05 -4.79023e-07 0.0916963)
(-4.58569e-06 -1.58063e-06 0.0825234)
(-1.50991e-06 5.69349e-08 0.0916575)
(7.87939e-06 4.63302e-07 0.0825707)
(-2.2327e-06 -9.43026e-07 0.0987313)
(1.16038e-05 -7.19963e-06 0.107445)
(1.47024e-05 -3.67495e-06 0.109757)
(-4.16633e-06 1.59029e-06 0.0932792)
(1.45455e-05 -3.78774e-06 0.109762)
(2.05407e-05 -8.24049e-07 0.0987866)
(-1.33692e-06 -7.4164e-07 0.0916721)
(-4.4683e-06 1.45269e-06 0.0825367)
(1.12389e-05 -1.53511e-07 0.0917121)
(-2.10789e-06 -1.62143e-07 0.0987316)
(1.1259e-05 5.39133e-06 0.107443)
(1.46637e-05 2.04993e-06 0.109757)
(1.53679e-05 4.44074e-06 0.0933334)
(1.45361e-05 2.5139e-06 0.109761)
(-3.47397e-06 -2.12625e-06 0.0932798)
(2.05363e-05 -2.76787e-07 0.0987865)
(-1.2461e-06 -4.58487e-07 0.0916724)
(7.39623e-06 1.9055e-06 0.0825863)
(-4.63659e-06 -9.20102e-07 0.0825383)
(1.12241e-05 3.20827e-08 0.091712)
(-4.66229e-06 -6.41665e-06 0.0878383)
(-4.08618e-05 4.06755e-05 0.10437)
(-8.34266e-06 5.324e-06 0.0878796)
(-5.01353e-06 8.57688e-06 0.0878818)
(-2.99031e-06 1.6551e-06 0.0718561)
(-5.89047e-07 9.77136e-06 0.0718672)
(4.80053e-06 1.87393e-06 0.0718217)
(3.0235e-05 -3.02967e-05 0.104263)
(-1.28241e-07 1.14326e-05 0.0878857)
(-1.14425e-05 2.46946e-07 0.0878877)
(7.73444e-07 3.53567e-07 0.0878493)
(-9.28823e-09 -4.89172e-07 0.0878509)
(-1.00586e-05 3.20467e-07 0.0718673)
(-1.56161e-06 -4.72173e-06 0.0718219)
(1.54025e-06 2.13491e-05 0.0987752)
(1.83105e-06 1.53768e-05 0.109768)
(-2.52922e-06 -3.74881e-06 0.0932649)
(5.89814e-06 1.23501e-05 0.107443)
(-4.98232e-07 -2.0764e-06 0.0987181)
(2.69644e-06 1.56297e-05 0.109762)
(4.96783e-06 1.56689e-05 0.0933203)
(2.84188e-06 1.21867e-05 0.0916997)
(-6.80182e-07 7.69783e-06 0.082574)
(2.51744e-06 1.16987e-05 0.0916995)
(-7.6557e-07 -4.93162e-06 0.0825238)
(6.87086e-07 -1.46658e-06 0.0916556)
(2.2229e-06 6.93271e-06 0.0825721)
(2.22852e-06 -5.28113e-07 0.0987341)
(-8.13379e-07 1.08186e-05 0.107445)
(1.57037e-06 1.42e-05 0.109757)
(-8.37656e-06 1.38018e-05 0.0933348)
(-4.27988e-07 1.55133e-05 0.109761)
(3.01882e-06 -5.06656e-07 0.0932852)
(2.34255e-06 2.077e-05 0.0987911)
(2.23338e-06 -1.04812e-06 0.0987333)
(6.28494e-06 1.16744e-05 0.107444)
(5.03663e-06 1.44098e-05 0.109757)
(6.71893e-06 1.43429e-05 0.093335)
(4.02156e-06 1.53736e-05 0.10976)
(-4.02066e-07 -3.97284e-06 0.0932809)
(2.68347e-06 2.05629e-05 0.0987908)
(2.68833e-06 -4.60088e-08 0.0916762)
(-7.84963e-06 5.46367e-06 0.0825896)
(-1.06592e-06 -5.45512e-06 0.0825418)
(5.03657e-08 1.16613e-05 0.0917166)
(2.7438e-06 -4.6137e-07 0.0916752)
(1.82678e-06 7.53714e-06 0.0825877)
(6.95781e-07 -5.54336e-06 0.08254)
(1.10541e-06 1.15955e-05 0.091717)
(-2.26244e-06 -2.27172e-06 0.0718123)
(3.1495e-06 2.02432e-06 0.071857)
(-1.45848e-06 -2.93888e-06 0.0718127)
(3.6262e-06 2.22256e-06 0.0718575)
(-2.68684e-05 -2.67591e-05 0.104261)
(5.86614e-06 5.43101e-06 0.0878922)
(6.28396e-06 5.13248e-06 0.0878919)
(-1.0526e-07 -2.36799e-06 0.0878498)
(-7.43845e-07 -1.05696e-06 0.0878492)
(2.65217e-06 3.30741e-06 0.0718702)
(-2.52048e-06 -1.43475e-06 0.071824)
(3.12059e-06 3.1606e-06 0.0718711)
(4.85565e-08 -3.23721e-06 0.0718248)
(-2.42089e-06 3.80741e-06 0.0718355)
(2.62727e-06 -1.01104e-06 0.0718353)
(-1.06129e-06 3.96223e-06 0.0878614)
(3.90674e-06 -5.15691e-07 0.0878602)
(-7.57628e-07 5.52423e-06 0.0932923)
(6.32627e-06 -1.9723e-06 0.093293)
(-1.26643e-05 -3.93831e-06 0.109758)
(2.62604e-06 -1.71985e-06 0.0987481)
(6.81115e-06 6.08012e-06 0.0825539)
(1.26223e-06 1.16427e-06 0.0916905)
(-1.22385e-05 -4.87191e-07 0.109757)
(7.78164e-06 4.05931e-06 0.0932907)
(2.65312e-06 -9.65214e-07 0.0987485)
(1.47538e-05 2.10743e-06 0.109756)
(-4.29866e-06 -1.26578e-06 0.0932926)
(-1.98739e-06 -5.38605e-08 0.0987442)
(-5.22213e-06 4.97096e-07 0.082553)
(-1.21937e-06 4.06439e-07 0.0916881)
(8.01975e-06 4.24878e-06 0.0878553)
(-4.47611e-06 -8.08203e-06 0.0878568)
(-6.17587e-06 -4.67442e-06 0.0718337)
(5.08533e-06 1.3346e-05 0.109757)
(5.00549e-07 -5.25194e-06 0.0932948)
(2.20951e-06 -2.44815e-06 0.0987476)
(-6.58019e-06 -7.09295e-06 0.082554)
(-1.35463e-06 -1.2941e-06 0.0916904)
(-4.30173e-07 -4.57435e-06 0.0825542)
(9.9227e-08 -1.10919e-06 0.0916904)
(-3.02333e-06 -2.01306e-07 0.0718364)
(-1.20105e-06 -2.09578e-06 0.0718375)
(1.0049e-06 1.68014e-06 0.0771798)
(1.01081e-06 1.13853e-06 0.0916642)
(7.64846e-07 -5.07494e-06 0.0789889)
(1.381e-06 -1.14828e-05 0.0902274)
(9.09228e-07 1.41845e-06 0.0789613)
(1.33007e-06 1.17045e-06 0.0901898)
(1.66184e-06 -4.96496e-06 0.0772123)
(1.97118e-06 -3.23381e-06 0.0687164)
(1.19944e-06 2.17018e-06 0.0861217)
(1.0961e-06 -8.39362e-06 0.0825621)
(6.92844e-07 2.35602e-06 0.0686732)
(7.55116e-07 -8.70821e-06 0.0861648)
(2.46202e-06 -5.07524e-06 0.077204)
(7.06271e-07 -1.10203e-05 0.0916884)
(1.0642e-06 1.49711e-06 0.0789532)
(3.65062e-07 1.74286e-06 0.0901811)
(1.15018e-06 1.65658e-06 0.0771718)
(1.3261e-06 -5.07602e-06 0.0789804)
(8.87122e-07 -1.10494e-05 0.0902185)
(4.06589e-08 2.55043e-06 0.0686778)
(7.19923e-08 -8.45829e-06 0.0861731)
(2.26135e-06 4.27498e-06 0.0825303)
(1.11259e-06 2.13259e-06 0.0861301)
(7.35521e-07 -2.96894e-06 0.0687213)
(2.38625e-06 -2.9801e-06 0.0718522)
(-1.45758e-06 2.39977e-06 0.0718157)
(2.3168e-06 -1.40629e-06 0.0771813)
(7.01511e-07 -1.34901e-06 0.0916653)
(-1.13137e-05 -1.20277e-06 0.0902292)
(-5.06323e-06 -1.17033e-06 0.0789915)
(1.24246e-06 -5.34645e-07 0.0901909)
(1.52641e-06 -1.57402e-06 0.078963)
(-4.5119e-06 -6.05532e-07 0.0772139)
(-2.4235e-06 -7.56251e-08 0.0687148)
(-7.52564e-06 -4.83791e-07 0.0825626)
(-8.31154e-06 -7.63455e-07 0.086164)
(-4.35349e-06 2.52815e-07 0.0772055)
(-1.12813e-05 -8.58033e-07 0.0916886)
(-1.10637e-05 -8.24481e-08 0.0902186)
(-4.89743e-06 -1.31536e-06 0.0789819)
(3.19527e-06 -2.12798e-06 0.0686764)
(-7.8164e-06 -2.24328e-06 0.0861733)
(5.29902e-06 4.44188e-07 0.0825311)
(2.69479e-06 -9.42832e-07 0.0861305)
(-2.58846e-06 -1.23147e-06 0.06872)
(-3.01948e-06 -7.22354e-07 0.0718513)
(3.32177e-06 -2.53083e-06 0.0718168)
(-2.53447e-07 -1.55007e-06 0.0838866)
(2.17511e-06 1.8418e-06 0.0686031)
(3.41193e-06 9.68275e-07 0.0685982)
(-4.56235e-07 -1.83772e-06 0.0685649)
(-4.29998e-07 -1.81076e-06 0.0685626)
(4.74205e-06 3.04182e-06 0.083918)
(1.11739e-05 5.74639e-06 0.0919649)
(-4.80012e-06 -1.86356e-06 0.0964956)
(-8.34444e-07 -2.13418e-06 0.081833)
(7.36803e-06 4.1534e-06 0.0878721)
(-3.84818e-06 -1.00567e-06 0.0919304)
(1.68569e-05 9.81996e-06 0.096535)
(5.60108e-06 1.83163e-06 0.081868)
(5.3687e-06 1.1577e-05 0.0919588)
(-3.0446e-06 -4.37417e-06 0.0964919)
(-1.64901e-06 -9.53448e-07 0.0818309)
(4.73947e-06 7.04127e-06 0.0878699)
(-1.89015e-06 -3.05851e-06 0.0919254)
(9.04301e-06 1.71855e-05 0.0965305)
(2.72106e-06 5.07757e-06 0.0818647)
(4.71005e-06 3.96969e-06 0.0839127)
(-5.33994e-07 -1.95551e-06 0.0685592)
(-1.21832e-06 -1.44538e-06 0.068557)
(-4.39079e-07 -6.07411e-07 0.0838819)
(2.30721e-06 1.62304e-06 0.0685961)
(2.82519e-06 1.17163e-06 0.0685917)
(-3.57681e-06 -1.52914e-06 0.0919355)
(5.62735e-06 2.41509e-06 0.0818748)
(3.08447e-07 -2.78291e-06 0.0878432)
(1.70152e-05 8.96752e-06 0.0965402)
(-4.53604e-06 -2.86859e-06 0.0965014)
(-6.20601e-07 -1.57985e-06 0.0818391)
(1.14148e-05 5.38239e-06 0.0919697)
(-1.31395e-06 -3.69715e-06 0.0919303)
(3.81507e-06 4.39017e-06 0.0818713)
(-1.7489e-06 -2.62459e-07 0.0878419)
(9.34567e-06 1.69554e-05 0.0965365)
(-3.1126e-06 -4.2836e-06 0.096498)
(-3.9497e-07 -1.60368e-06 0.0818371)
(6.19204e-06 1.07519e-05 0.0919636)
(-2.94136e-06 -2.6087e-06 0.0687404)
(-3.43091e-06 4.32731e-06 0.0861496)
(-4.57332e-06 -6.2868e-06 0.0825927)
(-4.55587e-06 3.07675e-06 0.0686947)
(-4.18645e-06 -6.31722e-06 0.0861919)
(-3.85615e-06 5.75669e-08 0.0687432)
(3.98142e-06 -2.538e-06 0.0861521)
(-7.64915e-06 -2.32277e-06 0.0825931)
(1.87146e-06 -2.31414e-06 0.0686973)
(-6.98245e-06 -2.19765e-06 0.0861933)
(-5.28802e-06 5.411e-07 0.0772315)
(-1.07154e-05 2.11889e-07 0.0917213)
(2.31088e-06 -2.56916e-06 0.0902142)
(1.54685e-06 1.25364e-06 0.0789832)
(1.4755e-06 -1.42923e-06 0.0771999)
(-9.86785e-06 -2.06522e-06 0.0902494)
(-4.87006e-06 1.99697e-06 0.0790096)
(-2.16786e-06 7.99842e-06 0.0718749)
(1.08733e-05 6.37076e-06 0.0919873)
(-5.02087e-06 -2.89239e-06 0.0965157)
(-1.74324e-06 -5.77914e-07 0.0818613)
(5.32251e-06 5.86555e-06 0.0878991)
(-3.70715e-06 -8.96321e-07 0.0919518)
(1.62278e-05 9.66289e-06 0.096555)
(4.20591e-06 3.19929e-06 0.0818979)
(6.88242e-06 9.86888e-06 0.0919806)
(-1.15808e-06 -6.274e-06 0.096514)
(-1.1851e-06 -1.70416e-06 0.081857)
(5.17253e-06 5.46972e-06 0.0878988)
(1.90589e-07 -5.2981e-06 0.0919462)
(1.09416e-05 1.50836e-05 0.0965522)
(1.96327e-06 5.02414e-06 0.0818918)
(3.58032e-06 4.12116e-06 0.083939)
(-1.59199e-06 -8.20108e-07 0.0685858)
(-1.79198e-06 -6.24357e-07 0.0685824)
(-1.08316e-06 -1.38918e-06 0.0839063)
(9.08487e-07 2.88729e-06 0.0686241)
(1.41461e-06 2.48033e-06 0.0686179)
(-3.81131e-07 -3.37625e-06 0.0718509)
(2.58138e-06 2.58752e-06 0.0718179)
(-2.45665e-06 -1.86019e-06 0.07185)
(3.48309e-06 9.52441e-07 0.071817)
(2.04398e-06 3.17443e-07 0.0838841)
(-2.91996e-06 -1.94067e-06 0.0685977)
(-8.98723e-07 -4.28228e-06 0.0685946)
(1.45889e-06 4.70985e-07 0.0685616)
(1.73684e-06 -6.45581e-08 0.0685587)
(-2.49273e-06 -4.39292e-06 0.0839116)
(-4.35528e-06 -1.21664e-05 0.0919651)
(2.48826e-06 4.11612e-06 0.0964981)
(3.32568e-06 -6.63146e-07 0.0818324)
(-3.02672e-06 -8.89639e-06 0.087873)
(2.20722e-06 2.91386e-06 0.0919333)
(-1.37319e-06 -6.9688e-06 0.0818659)
(-8.65748e-06 -1.78264e-05 0.0965366)
(-1.2038e-05 -4.54939e-06 0.0919595)
(3.5031e-06 3.29857e-06 0.0964933)
(-8.34174e-06 -3.97619e-06 0.0878706)
(-5.98563e-06 -2.62622e-06 0.0818634)
(-1.81313e-05 -8.31255e-06 0.0965323)
(-3.64238e-06 -5.00284e-06 0.0839088)
(-1.47514e-06 -2.60748e-06 0.068589)
(-1.27977e-06 -2.95155e-06 0.0685865)
(2.85635e-06 2.74338e-06 0.0919363)
(-3.74823e-06 -6.03444e-06 0.0818729)
(3.48096e-06 -1.63125e-06 0.0878449)
(-7.22785e-06 -1.8006e-05 0.096541)
(1.20832e-06 -2.81751e-07 0.0818387)
(-4.40066e-06 -1.20427e-05 0.0919673)
(4.44566e-06 3.49458e-06 0.0965034)
(3.4447e-06 2.1691e-06 0.0919306)
(-4.56569e-06 -5.11132e-06 0.0818698)
(-7.76341e-07 2.16321e-06 0.0878424)
(-1.75738e-05 -7.98716e-06 0.0965372)
(1.0325e-06 -1.97623e-07 0.0818359)
(-1.07718e-05 -5.54571e-06 0.0919616)
(3.47753e-06 4.27311e-06 0.0964992)
(-1.73596e-06 3.95773e-06 0.0718291)
(-4.54751e-06 -1.79123e-06 0.0718624)
(3.57486e-06 -1.81269e-06 0.0718289)
(-1.72333e-06 -5.26764e-06 0.0718622)
(-2.03428e-06 -3.5973e-06 0.0839177)
(1.75598e-08 1.20784e-06 0.0685725)
(1.88271e-06 -1.02763e-06 0.068569)
(2.94188e-06 1.09347e-06 0.0838882)
(-4.0676e-06 -1.0132e-06 0.0686105)
(-8.22398e-07 -4.56755e-06 0.0686068)
(8.58701e-07 4.26703e-06 0.0919417)
(-8.94087e-06 -1.58051e-05 0.0965468)
(-1.61731e-07 2.25128e-06 0.0878559)
(-5.84209e-06 -2.82275e-06 0.0818903)
(-2.31941e-06 2.66765e-06 0.0818548)
(4.2824e-06 4.96762e-06 0.0965095)
(-7.09846e-06 -1.00877e-05 0.0919748)
(6.1498e-06 -5.8254e-07 0.0919355)
(-1.45016e-05 -1.06928e-05 0.0965437)
(3.11597e-06 -1.04498e-06 0.0878544)
(-2.76221e-06 -5.31603e-06 0.0818852)
(3.36113e-06 -2.47314e-06 0.0818501)
(6.20767e-06 2.4585e-06 0.0965062)
(-8.48185e-06 -8.20081e-06 0.0919686)
(-5.40884e-06 -1.12108e-05 0.0919697)
(-1.14815e-06 9.64295e-07 0.0818461)
(5.15794e-06 3.80629e-06 0.0965069)
(-6.38618e-06 -5.89517e-06 0.0878851)
(2.26324e-06 3.22716e-06 0.0919382)
(-5.68383e-06 -4.54393e-06 0.0818813)
(-7.30045e-06 -1.71994e-05 0.0965438)
(-9.2849e-06 -6.97778e-06 0.0919637)
(2.40107e-06 -2.28912e-06 0.0818425)
(4.5465e-06 3.89525e-06 0.0965032)
(-4.80983e-06 -7.72084e-06 0.0878837)
(4.92021e-06 8.28983e-07 0.0919323)
(-3.3781e-06 -6.41308e-06 0.0818773)
(-1.60932e-05 -8.97864e-06 0.0965405)
(2.82764e-06 1.78759e-06 0.0838963)
(-4.18387e-06 -2.41047e-07 0.0686228)
(-1.19603e-06 -3.35166e-06 0.0686184)
(-6.96675e-07 2.16773e-06 0.0685854)
(1.78704e-06 -5.66086e-07 0.0685814)
(-2.83044e-06 -3.15571e-06 0.0839278)
(1.39541e-06 2.01774e-06 0.0771796)
(1.0883e-06 1.32255e-06 0.0916641)
(4.96794e-07 -5.01877e-06 0.0789888)
(1.41467e-06 -1.05948e-05 0.0902259)
(1.00995e-06 1.51125e-06 0.0789614)
(1.22247e-06 1.96017e-06 0.0901892)
(-4.03662e-08 -4.72674e-06 0.0772114)
(3.22078e-07 -2.84944e-06 0.0687187)
(7.55697e-07 3.08481e-06 0.0861213)
(1.13892e-06 -7.45944e-06 0.0825626)
(1.78484e-06 2.8275e-06 0.0686752)
(1.34735e-06 -7.78145e-06 0.0861632)
(2.65316e-07 -4.66864e-06 0.0772039)
(7.73044e-07 -1.0906e-05 0.0916884)
(1.09742e-06 1.62027e-06 0.0789535)
(8.01373e-07 2.09719e-06 0.0901813)
(8.90527e-07 -4.96449e-06 0.0789806)
(1.46233e-06 2.06415e-06 0.0771722)
(1.07742e-06 -1.0453e-05 0.0902176)
(1.66483e-06 2.79102e-06 0.0686812)
(1.39695e-06 -7.88163e-06 0.0861716)
(-6.67838e-07 4.92175e-06 0.0825285)
(8.68395e-07 2.98139e-06 0.0861292)
(3.75634e-08 -2.95509e-06 0.0687248)
(-1.00676e-07 -4.72975e-06 0.0772203)
(-3.16773e-09 1.44907e-06 0.0789696)
(1.20931e-06 9.63398e-07 0.0901985)
(1.00781e-06 -1.16249e-05 0.0917056)
(-3.81368e-07 1.84626e-06 0.0771878)
(-3.71495e-07 -5.01861e-06 0.0789972)
(6.52448e-07 -1.13855e-05 0.0902358)
(-3.53976e-06 3.03067e-06 0.0686882)
(-1.92463e-06 5.71363e-06 0.0825463)
(-3.32615e-06 -6.78231e-06 0.0861863)
(-2.70978e-06 -2.56977e-06 0.0687332)
(-2.00463e-06 3.57666e-06 0.0861442)
(-1.19142e-06 -2.70721e-06 0.0687267)
(-1.39869e-07 2.65613e-06 0.0861378)
(-2.57777e-06 -7.09355e-06 0.0825793)
(-1.66083e-06 2.83e-06 0.0686827)
(-1.57134e-06 -7.70668e-06 0.0861803)
(-2.32856e-06 2.09388e-06 0.077195)
(5.18654e-07 8.00684e-07 0.0916812)
(-1.53203e-06 -4.89657e-06 0.0790047)
(-1.0467e-06 -1.08264e-05 0.090243)
(-1.90637e-06 -4.48937e-06 0.0772273)
(-1.25563e-06 1.5483e-06 0.0789772)
(-9.12572e-08 1.33534e-06 0.0902063)
(-7.62424e-07 -4.87884e-06 0.077219)
(3.31207e-07 1.47047e-06 0.0789693)
(1.40973e-06 1.7985e-06 0.0901977)
(1.14366e-06 -1.1436e-05 0.0917053)
(8.59928e-07 1.9017e-06 0.0771869)
(-4.01111e-07 -5.03969e-06 0.0789969)
(1.35143e-06 -1.07819e-05 0.0902346)
(7.63261e-07 2.392e-06 0.0686929)
(-1.11237e-06 4.62984e-06 0.0825439)
(9.72602e-07 -8.14449e-06 0.086189)
(6.32273e-07 2.6752e-06 0.0861463)
(-8.49061e-07 -3.33292e-06 0.068737)
(-4.92612e-07 -3.15336e-06 0.068731)
(8.45831e-07 2.83857e-06 0.0861377)
(6.25503e-07 -7.64237e-06 0.082578)
(1.23693e-06 2.60783e-06 0.0686871)
(1.25832e-06 -8.03858e-06 0.0861804)
(1.13706e-07 1.71731e-06 0.077194)
(8.90394e-07 9.24025e-07 0.0916811)
(-1.31107e-06 -5.05476e-06 0.0790044)
(7.76177e-07 -1.09711e-05 0.090243)
(-6.29497e-07 1.46635e-06 0.0789769)
(1.10139e-06 1.60345e-06 0.0902062)
(-1.4739e-06 -5.06257e-06 0.0772262)
(-3.3864e-07 3.51844e-07 0.0838911)
(1.67415e-06 -1.77623e-06 0.0685968)
(2.20639e-06 -1.20977e-06 0.0686024)
(-1.97414e-06 1.12363e-06 0.0685633)
(-7.88999e-07 2.29855e-06 0.0685695)
(4.89651e-06 -4.61958e-06 0.0839207)
(6.17796e-06 -1.11321e-05 0.0919584)
(-1.92572e-06 5.22184e-06 0.0964909)
(-1.92845e-06 1.38607e-06 0.0818293)
(4.58148e-06 -6.42093e-06 0.0878703)
(1.57837e-06 -4.8953e-06 0.0818646)
(-9.10884e-07 3.87295e-06 0.0919236)
(1.02942e-05 -1.64292e-05 0.0965308)
(1.06138e-05 -6.647e-06 0.0919645)
(-5.57423e-06 1.39323e-06 0.0964946)
(-1.77867e-06 1.75084e-06 0.0818359)
(6.22554e-06 -4.80589e-06 0.0878703)
(1.59813e-05 -1.08292e-05 0.0965332)
(-4.46901e-06 3.52008e-07 0.091931)
(4.80161e-06 -1.63422e-06 0.0818682)
(4.54076e-06 -4.77233e-06 0.0839145)
(-1.85316e-06 1.17305e-06 0.0685599)
(-1.17091e-06 1.7672e-06 0.0685662)
(1.66258e-06 -1.60815e-06 0.0685934)
(-7.75119e-07 3.40363e-07 0.0838845)
(1.792e-06 -1.55442e-06 0.0685991)
(-9.02776e-07 3.67673e-06 0.0919309)
(1.40488e-06 -5.13214e-06 0.0818708)
(-2.44939e-06 3.32873e-07 0.0878399)
(1.02798e-05 -1.67509e-05 0.0965377)
(-2.23916e-06 1.27467e-06 0.0818354)
(-1.91318e-06 4.86876e-06 0.0964977)
(6.16006e-06 -1.13045e-05 0.0919657)
(-4.12906e-06 5.9579e-07 0.0919382)
(5.47783e-06 -1.07621e-06 0.0818743)
(-5.18389e-07 2.51869e-06 0.087843)
(1.63423e-05 -1.05483e-05 0.0965398)
(-5.36393e-06 1.49076e-06 0.0965012)
(-1.2768e-06 2.46495e-06 0.0818417)
(1.11271e-05 -6.26259e-06 0.0919716)
(3.23429e-06 -2.32262e-06 0.0718503)
(-2.19556e-06 1.78535e-06 0.0718181)
(1.76671e-06 -3.13438e-06 0.0718653)
(4.74645e-06 -4.10636e-06 0.0839255)
(-1.84031e-06 8.91205e-07 0.0685666)
(-4.44699e-07 2.37147e-06 0.0685729)
(-1.73776e-07 6.65693e-07 0.0838966)
(1.92312e-06 -1.95705e-06 0.0686008)
(2.33369e-06 -1.45207e-06 0.0686064)
(5.96256e-06 -1.13361e-05 0.0919719)
(-2.16238e-06 8.94641e-07 0.0818416)
(-2.02668e-06 4.54289e-06 0.0965045)
(4.59011e-06 -7.17889e-06 0.0878863)
(1.00044e-05 -1.70608e-05 0.0965444)
(-1.001e-06 3.54415e-06 0.0919377)
(1.78759e-06 -5.57471e-06 0.0818774)
(1.16848e-05 -5.61003e-06 0.0919778)