/*--------------------------------*- C++ -*----------------------------------*\
| =========                 |                                                 |
| \\      /  F ield         | OpenFOAM: The Open Source CFD Toolbox           |
|  \\    /   O peration     | Version:  v2012                                 |
|   \\  /    A nd           | Website:  www.openfoam.com                      |
|    \\/     M anipulation  |                                                 |
\*---------------------------------------------------------------------------*/
FoamFile
{
    version     2.0;
    format      ascii;
    class       volScalarField;
    location    "1250";
    object      epsilon;
}
// * * * * * * * * * * * * * * * * * * * * * * * * * * * * * * * * * * * * * //

dimensions      [0 2 -3 0 0 0 0];


internalField   nonuniform List<scalar> 
171728
(
1.20889e-09
3.35197e-09
4.40216e-09
5.14968e-09
1.17723e-09
3.08376e-09
4.09713e-09
4.62501e-09
1.11976e-09
2.81486e-09
3.78017e-09
4.15571e-09
1.06659e-09
2.58458e-09
3.48672e-09
3.77699e-09
1.0174e-09
2.38789e-09
3.22221e-09
3.46364e-09
9.71644e-10
2.22462e-09
2.99695e-09
3.2022e-09
9.28674e-10
2.09303e-09
2.81266e-09
2.99092e-09
8.87906e-10
1.99673e-09
2.66873e-09
2.81114e-09
8.50173e-10
1.93105e-09
2.55702e-09
2.66486e-09
8.14743e-10
1.89884e-09
2.47934e-09
2.54498e-09
7.81524e-10
1.89799e-09
2.44046e-09
2.43586e-09
7.51376e-10
1.92775e-09
2.44211e-09
2.37012e-09
7.23943e-10
2.00187e-09
2.48989e-09
2.36406e-09
6.98853e-10
2.12879e-09
2.59497e-09
2.4009e-09
6.76695e-10
2.33085e-09
2.77183e-09
2.48635e-09
6.5659e-10
2.64252e-09
3.06558e-09
2.68344e-09
6.39215e-10
3.12171e-09
3.55499e-09
3.08388e-09
6.24832e-10
3.86253e-09
4.31283e-09
3.75939e-09
6.12715e-10
4.9306e-09
5.45841e-09
5.00923e-09
6.06342e-10
6.62504e-09
7.12827e-09
7.2712e-09
6.08614e-10
9.04563e-09
9.69521e-09
1.09769e-08
6.18645e-10
1.24765e-08
1.30686e-08
1.74887e-08
6.44263e-10
1.73864e-08
1.7821e-08
2.85341e-08
6.92216e-10
2.41339e-08
2.51922e-08
4.61718e-08
7.61653e-10
3.27842e-08
3.27775e-08
7.21866e-08
8.83134e-10
4.44641e-08
4.53488e-08
1.09082e-07
1.06119e-09
5.80858e-08
5.89915e-08
1.57723e-07
1.30452e-09
7.5215e-08
7.5857e-08
2.18331e-07
1.68032e-09
9.50354e-08
9.49657e-08
2.92087e-07
2.19377e-09
1.17305e-07
1.1904e-07
3.64062e-07
2.86425e-09
1.43183e-07
1.43418e-07
4.3744e-07
3.85456e-09
1.74003e-07
1.74007e-07
5.22597e-07
5.14138e-09
2.03888e-07
2.05187e-07
5.78184e-07
6.79759e-09
2.40306e-07
2.41045e-07
6.56109e-07
9.11692e-09
2.80184e-07
2.81887e-07
7.05629e-07
1.18423e-08
3.18071e-07
3.20258e-07
7.51734e-07
1.57146e-08
3.6367e-07
3.64599e-07
8.07379e-07
2.03242e-08
4.09909e-07
4.14036e-07
8.41842e-07
2.54091e-08
4.52806e-07
4.61408e-07
8.78643e-07
3.35358e-08
5.05029e-07
5.03473e-07
9.1562e-07
4.05265e-08
5.5109e-07
5.60794e-07
9.45612e-07
5.0624e-08
5.99015e-07
6.05403e-07
9.78231e-07
6.32167e-08
6.49303e-07
6.49447e-07
1.00828e-06
7.49044e-08
6.96638e-07
7.00424e-07
1.03697e-06
9.11514e-08
7.3973e-07
7.40702e-07
1.06167e-06
1.08624e-07
7.85029e-07
7.86328e-07
1.09224e-06
1.27278e-07
8.28281e-07
8.28729e-07
1.11998e-06
1.49706e-07
8.68491e-07
8.69162e-07
1.14491e-06
1.74271e-07
9.02263e-07
8.99302e-07
1.1658e-06
1.9728e-07
9.39712e-07
9.41905e-07
1.19239e-06
2.3132e-07
9.71646e-07
9.70063e-07
1.22079e-06
2.54027e-07
1.00029e-06
9.97697e-07
1.23733e-06
2.82682e-07
1.02756e-06
1.03119e-06
1.25834e-06
3.23094e-07
1.05332e-06
1.05209e-06
1.28057e-06
3.50889e-07
1.081e-06
1.07385e-06
1.29798e-06
3.76268e-07
1.0942e-06
1.09869e-06
1.3119e-06
4.10985e-07
1.11861e-06
1.12218e-06
1.33773e-06
4.47977e-07
1.1459e-06
1.13504e-06
1.35077e-06
4.71794e-07
1.15388e-06
1.15573e-06
1.35769e-06
4.99961e-07
1.16798e-06
1.17755e-06
1.38221e-06
5.30355e-07
1.196e-06
1.18801e-06
1.39454e-06
5.52915e-07
1.20359e-06
1.20264e-06
1.40154e-06
5.76693e-07
1.21459e-06
1.22036e-06
1.41832e-06
6.0058e-07
1.2355e-06
1.22939e-06
1.42963e-06
6.21078e-07
1.2414e-06
1.24226e-06
1.43514e-06
6.41659e-07
1.25411e-06
1.25805e-06
1.45504e-06
6.5918e-07
1.26982e-06
1.26324e-06
1.4627e-06
6.76028e-07
1.27041e-06
1.27189e-06
1.46101e-06
6.93315e-07
1.27588e-06
1.28225e-06
1.47539e-06
7.07415e-07
1.29636e-06
1.28923e-06
1.49545e-06
7.2328e-07
1.29738e-06
1.29906e-06
1.48986e-06
7.33903e-07
1.29385e-06
1.29701e-06
1.48367e-06
7.45112e-07
1.3079e-06
1.30143e-06
1.51172e-06
7.61661e-07
1.31307e-06
1.31702e-06
1.51767e-06
7.69023e-07
1.31011e-06
1.31262e-06
1.5042e-06
7.74091e-07
1.31318e-06
1.31066e-06
1.51155e-06
7.88085e-07
1.31823e-06
1.32081e-06
1.52336e-06
7.96114e-07
1.3172e-06
1.32272e-06
1.5203e-06
7.97218e-07
1.31707e-06
1.31778e-06
1.51983e-06
8.00996e-07
1.32629e-06
1.31936e-06
1.53205e-06
8.10248e-07
1.32749e-06
1.32697e-06
1.53183e-06
8.11627e-07
1.31602e-06
1.3209e-06
1.52202e-06
8.08016e-07
1.30961e-06
1.31177e-06
1.5239e-06
8.0937e-07
1.3143e-06
1.31703e-06
1.52982e-06
8.16462e-07
1.32257e-06
1.32221e-06
1.53543e-06
8.15801e-07
1.31465e-06
1.30868e-06
1.52206e-06
8.06366e-07
1.29628e-06
1.30073e-06
1.50572e-06
8.04851e-07
1.29797e-06
1.30963e-06
1.5218e-06
8.10209e-07
1.30759e-06
1.30657e-06
1.53535e-06
8.06819e-07
1.2992e-06
1.28407e-06
1.51396e-06
7.92931e-07
1.27623e-06
1.27529e-06
1.48777e-06
7.89658e-07
1.27499e-06
1.28993e-06
1.50888e-06
7.98894e-07
1.29064e-06
1.29478e-06
1.52873e-06
7.94327e-07
1.27515e-06
1.26146e-06
1.48521e-06
7.48051e-07
1.18267e-06
1.17737e-06
1.4145e-06
5.30376e-09
3.98228e-09
5.13914e-09
4.74754e-09
3.7966e-09
3.79568e-09
1.19058e-09
1.25149e-09
1.52512e-09
1.36891e-09
3.62114e-09
3.6717e-09
5.29244e-09
3.96485e-09
4.62537e-09
5.16929e-09
5.28052e-09
4.73608e-09
3.46008e-09
6.58483e-09
3.25189e-09
6.54234e-09
4.72646e-09
4.41378e-09
3.37112e-09
8.3974e-09
3.19088e-09
7.01583e-09
3.37875e-09
3.15565e-09
3.18919e-09
5.25395e-09
4.78314e-09
4.88728e-09
4.18014e-09
4.63973e-09
4.65569e-09
4.70634e-09
4.21681e-09
3.1712e-09
6.47217e-09
2.94718e-09
5.80775e-09
4.38386e-09
4.09719e-09
3.12099e-09
6.74484e-09
2.92348e-09
6.28757e-09
3.11805e-09
2.87891e-09
2.91747e-09
4.74393e-09
4.34789e-09
4.55714e-09
3.85742e-09
4.32267e-09
4.18107e-09
4.19354e-09
3.78933e-09
2.87832e-09
5.37406e-09
2.69032e-09
4.04045e-09
4.06185e-09
3.6517e-09
2.86215e-09
6.17229e-09
2.6915e-09
5.6578e-09
2.85537e-09
2.63855e-09
2.68084e-09
4.31408e-09
3.96765e-09
4.24932e-09
3.5575e-09
4.04624e-09
3.79737e-09
3.77159e-09
3.43619e-09
2.63269e-09
3.68293e-09
2.47424e-09
2.92398e-09
3.62407e-09
3.24321e-09
2.63895e-09
5.41405e-09
2.49247e-09
4.57893e-09
2.62673e-09
2.43332e-09
2.47647e-09
3.93781e-09
3.61232e-09
3.98428e-09
3.28495e-09
3.81133e-09
3.48068e-09
3.4229e-09
3.13812e-09
2.42592e-09
2.75323e-09
2.29293e-09
2.43265e-09
3.22636e-09
2.97958e-09
2.44762e-09
4.30642e-09
2.32428e-09
3.67335e-09
2.43031e-09
2.26245e-09
2.30456e-09
3.58528e-09
3.29439e-09
3.75792e-09
3.0495e-09
3.61891e-09
3.21528e-09
3.12809e-09
2.87501e-09
2.25299e-09
2.37502e-09
2.14576e-09
2.22637e-09
2.97219e-09
2.72658e-09
2.28715e-09
3.52787e-09
2.18634e-09
3.22495e-09
2.26619e-09
2.12274e-09
2.16355e-09
3.27388e-09
3.03574e-09
3.5816e-09
2.85459e-09
3.49074e-09
3.00014e-09
2.86841e-09
2.65481e-09
2.11481e-09
2.16841e-09
2.03277e-09
2.01366e-09
2.71798e-09
2.53364e-09
2.15708e-09
3.15231e-09
2.08011e-09
2.99129e-09
2.13274e-09
2.01732e-09
2.05245e-09
3.02082e-09
2.83332e-09
3.46779e-09
2.70212e-09
3.41134e-09
2.81708e-09
2.65165e-09
2.47868e-09
2.01006e-09
1.97315e-09
1.95333e-09
1.90874e-09
2.5315e-09
2.37452e-09
2.05904e-09
2.94954e-09
2.00507e-09
2.84918e-09
2.03113e-09
1.94403e-09
1.97826e-09
2.82278e-09
2.66825e-09
3.3978e-09
2.58232e-09
3.3733e-09
2.66722e-09
2.47883e-09
2.3432e-09
1.93889e-09
1.89879e-09
1.90625e-09
1.86204e-09
2.3746e-09
2.25143e-09
1.9916e-09
2.82526e-09
1.96052e-09
2.7759e-09
1.96525e-09
1.90358e-09
1.93628e-09
2.66274e-09
2.55274e-09
3.36637e-09
2.49459e-09
3.33613e-09
2.54507e-09
2.34612e-09
2.24524e-09
1.90055e-09
1.85375e-09
1.89368e-09
1.84607e-09
2.25487e-09
2.16497e-09
1.95465e-09
2.77171e-09
1.94917e-09
2.77394e-09
1.92952e-09
1.89583e-09
1.92334e-09
2.5525e-09
2.47698e-09
3.3199e-09
2.44575e-09
3.24428e-09
2.43381e-09
2.25144e-09
2.18537e-09
1.89581e-09
1.84846e-09
1.91784e-09
1.87292e-09
2.17149e-09
2.11321e-09
1.95098e-09
2.77942e-09
1.97046e-09
2.8231e-09
1.92482e-09
1.91918e-09
1.94167e-09
2.4803e-09
2.43802e-09
3.21052e-09
2.43809e-09
3.11111e-09
2.35982e-09
2.19755e-09
2.16652e-09
1.93015e-09
1.88447e-09
1.9838e-09
1.93758e-09
2.12584e-09
2.10129e-09
1.98141e-09
2.84594e-09
2.03156e-09
2.93597e-09
1.95267e-09
1.98284e-09
2.00282e-09
2.44868e-09
2.44065e-09
3.08763e-09
2.47331e-09
3.05496e-09
2.34417e-09
2.18664e-09
2.1994e-09
2.00729e-09
1.9623e-09
2.10048e-09
2.05528e-09
2.12304e-09
2.13816e-09
2.05303e-09
2.97133e-09
2.14269e-09
3.09753e-09
2.02494e-09
2.09671e-09
2.11494e-09
2.46022e-09
2.4896e-09
3.05698e-09
2.563e-09
3.08398e-09
2.37048e-09
2.23211e-09
2.29786e-09
2.13764e-09
2.0938e-09
2.28984e-09
2.23963e-09
2.1708e-09
2.2448e-09
2.17768e-09
3.15267e-09
2.32139e-09
3.38269e-09
2.15315e-09
2.27832e-09
2.29377e-09
2.52257e-09
2.60308e-09
3.09309e-09
2.72087e-09
3.13438e-09
2.43949e-09
2.35649e-09
2.48867e-09
2.35018e-09
2.30395e-09
2.5821e-09
2.53145e-09
2.299e-09
2.44503e-09
2.38132e-09
3.47087e-09
2.59816e-09
3.78911e-09
2.35144e-09
2.55754e-09
2.57438e-09
2.6579e-09
2.81392e-09
3.1475e-09
2.98013e-09
3.24763e-09
2.59739e-09
2.57638e-09
2.85128e-09
2.67434e-09
2.63039e-09
3.02617e-09
2.97008e-09
2.53754e-09
2.80061e-09
2.68412e-09
3.89195e-09
3.03143e-09
4.33057e-09
2.66684e-09
2.98273e-09
3.00942e-09
2.9053e-09
3.20307e-09
3.29608e-09
3.41391e-09
3.53202e-09
2.92975e-09
3.00253e-09
3.46533e-09
3.16978e-09
3.11441e-09
3.68825e-09
3.6461e-09
2.95532e-09
3.44419e-09
3.17213e-09
4.52828e-09
3.67361e-09
5.19501e-09
3.15248e-09
3.64886e-09
3.69395e-09
3.36662e-09
3.93854e-09
3.63989e-09
4.08086e-09
4.06521e-09
3.54238e-09
3.72933e-09
4.58855e-09
3.91317e-09
3.86422e-09
4.71257e-09
4.64012e-09
3.71026e-09
4.5049e-09
3.89587e-09
5.51007e-09
4.69384e-09
6.66985e-09
3.8934e-09
4.62906e-09
4.66637e-09
4.20922e-09
5.24828e-09
4.23633e-09
5.09765e-09
4.93477e-09
4.5654e-09
4.97211e-09
6.48719e-09
5.02357e-09
4.95028e-09
6.21141e-09
6.18242e-09
4.90696e-09
6.52186e-09
5.0029e-09
7.03336e-09
6.15809e-09
8.7245e-09
5.00961e-09
6.15112e-09
6.20029e-09
5.69026e-09
7.37668e-09
5.24768e-09
6.64306e-09
6.43853e-09
6.58556e-09
7.22937e-09
9.85205e-09
6.70183e-09
6.65646e-09
8.43504e-09
8.36941e-09
7.21828e-09
9.82789e-09
6.64959e-09
9.44572e-09
8.40218e-09
1.17157e-08
6.68112e-09
8.34874e-09
8.40765e-09
8.13131e-09
1.09423e-08
6.90069e-09
8.9354e-09
8.53997e-09
9.85153e-09
1.09563e-08
1.58352e-08
9.1011e-09
9.07449e-09
1.17143e-08
1.15889e-08
1.10203e-08
1.57977e-08
9.06646e-09
1.2295e-08
1.1631e-08
1.4566e-08
9.11617e-09
1.15193e-08
1.16139e-08
1.21143e-08
1.69945e-08
9.231e-09
1.20139e-08
1.1622e-08
1.56466e-08
1.76707e-08
2.58574e-08
1.26867e-08
1.2553e-08
1.61871e-08
1.61119e-08
1.75257e-08
2.5461e-08
1.26097e-08
1.56916e-08
1.61832e-08
1.94694e-08
1.2605e-08
1.60295e-08
1.61092e-08
1.89765e-08
2.64305e-08
1.25965e-08
1.65174e-08
1.619e-08
2.56358e-08
2.86266e-08
4.14912e-08
1.75177e-08
1.74832e-08
2.24567e-08
2.24375e-08
2.84342e-08
4.24248e-08
1.75142e-08
2.09449e-08
2.24193e-08
2.57153e-08
1.74534e-08
2.22994e-08
2.2456e-08
2.92245e-08
4.53918e-08
1.7501e-08
2.311e-08
2.24981e-08
4.18294e-08
4.59392e-08
6.73088e-08
2.4316e-08
2.42741e-08
3.08563e-08
3.04549e-08
4.66596e-08
6.50411e-08
2.43013e-08
2.72117e-08
3.08329e-08
3.19876e-08
2.42437e-08
3.02522e-08
3.07911e-08
4.98898e-08
6.31936e-08
2.43844e-08
3.09225e-08
3.06153e-08
6.61659e-08
7.36831e-08
9.99944e-08
3.33427e-08
3.30079e-08
4.11503e-08
4.17567e-08
7.13943e-08
1.03044e-07
3.32996e-08
3.40935e-08
4.12098e-08
4.33742e-08
3.33396e-08
4.15322e-08
4.13664e-08
6.79927e-08
1.02161e-07
3.31546e-08
4.18844e-08
4.1338e-08
1.00757e-07
1.0779e-07
1.48052e-07
4.42389e-08
4.47241e-08
5.51775e-08
5.46502e-08
1.11617e-07
1.45787e-07
4.43185e-08
4.67034e-08
5.51741e-08
5.62924e-08
4.42911e-08
5.42555e-08
5.53343e-08
1.12517e-07
1.47603e-07
4.4308e-08
5.50649e-08
5.52183e-08
1.46606e-07
1.59388e-07
2.0425e-07
5.90467e-08
5.84981e-08
7.06721e-08
7.10937e-08
1.55997e-07
2.06094e-07
5.90043e-08
5.99045e-08
7.06443e-08
7.14485e-08
5.92162e-08
7.06033e-08
7.06873e-08
1.57143e-07
2.05961e-07
5.94561e-08
7.17969e-08
7.05131e-08
2.06201e-07
2.15994e-07
2.72086e-07
7.49833e-08
7.57186e-08
8.99811e-08
9.04458e-08
2.19443e-07
2.75155e-07
7.50056e-08
7.56004e-08
8.99451e-08
8.98565e-08
7.53303e-08
8.98911e-08
9.13338e-08
2.18841e-07
2.70941e-07
7.50839e-08
8.96633e-08
9.1846e-08
2.75649e-07
2.87555e-07
3.50891e-07
9.54256e-08
9.56243e-08
1.12427e-07
1.12304e-07
2.89585e-07
3.49346e-07
9.5394e-08
9.50847e-08
1.12365e-07
1.12717e-07
9.72152e-08
1.11537e-07
1.13044e-07
2.85509e-07
3.49843e-07
9.74491e-08
1.13045e-07
1.13204e-07
3.50633e-07
3.66267e-07
4.25486e-07
1.18392e-07
1.1811e-07
1.36969e-07
1.37001e-07
3.64535e-07
4.25453e-07
1.18295e-07
1.1884e-07
1.36957e-07
1.372e-07
1.18312e-07
1.36113e-07
1.36395e-07
3.65756e-07
4.24785e-07
1.18525e-07
1.3665e-07
1.36833e-07
4.20097e-07
4.41356e-07
5.01923e-07
1.4378e-07
1.44131e-07
1.6619e-07
1.67207e-07
4.42085e-07
5.04349e-07
1.43739e-07
1.43959e-07
1.66156e-07
1.66106e-07
1.4383e-07
1.66279e-07
1.69393e-07
4.40315e-07
5.01511e-07
1.4461e-07
1.66184e-07
1.72345e-07
5.07582e-07
5.17702e-07
5.72279e-07
1.73699e-07
1.74965e-07
1.97381e-07
1.97249e-07
5.20122e-07
5.71225e-07
1.73707e-07
1.73888e-07
1.97235e-07
1.9875e-07
1.76351e-07
1.96134e-07
1.95163e-07
5.17669e-07
5.7243e-07
1.79463e-07
1.97516e-07
1.95044e-07
5.6401e-07
5.8729e-07
6.36073e-07
2.05982e-07
2.05096e-07
2.31938e-07
2.31787e-07
5.85105e-07
6.34765e-07
2.05886e-07
2.06924e-07
2.31822e-07
2.31729e-07
2.02968e-07
2.30391e-07
2.35308e-07
5.8682e-07
6.34376e-07
2.01399e-07
2.30725e-07
2.33463e-07
6.39295e-07
6.5003e-07
6.94177e-07
2.41134e-07
2.41626e-07
2.70509e-07
2.71687e-07
6.49891e-07
6.95687e-07
2.40878e-07
2.41075e-07
2.70345e-07
2.71043e-07
2.4649e-07
2.70441e-07
2.73301e-07
6.49011e-07
6.95622e-07
2.4644e-07
2.72341e-07
2.79481e-07
6.95288e-07
7.072e-07
7.44009e-07
2.80197e-07
2.81447e-07
3.09417e-07
3.09895e-07
7.08486e-07
7.43584e-07
2.80049e-07
2.81072e-07
3.09411e-07
3.11612e-07
2.80957e-07
3.08425e-07
3.06102e-07
7.08552e-07
7.45017e-07
2.87331e-07
3.10488e-07
3.07925e-07
7.3861e-07
7.56277e-07
7.92135e-07
3.19453e-07
3.19659e-07
3.53546e-07
3.53141e-07
7.55279e-07
7.90752e-07
3.19482e-07
3.21635e-07
3.533e-07
3.52842e-07
3.16886e-07
3.5161e-07
3.57728e-07
7.56786e-07
7.89646e-07
3.16087e-07
3.52479e-07
3.52905e-07
7.95444e-07
8.03278e-07
8.31025e-07
3.65278e-07
3.65092e-07
3.98779e-07
4.00074e-07
8.02729e-07
8.33178e-07
3.64902e-07
3.64187e-07
3.98664e-07
3.99285e-07
3.71018e-07
3.98859e-07
4.02041e-07
8.01302e-07
8.35457e-07
3.68648e-07
4.01396e-07
4.04965e-07
8.32982e-07
8.40981e-07
8.69826e-07
4.09453e-07
4.11168e-07
4.41462e-07
4.42941e-07
8.42786e-07
8.67789e-07
4.09555e-07
4.11706e-07
4.41778e-07
4.47442e-07
4.11247e-07
4.41384e-07
4.42183e-07
8.45937e-07
8.69878e-07
4.14138e-07
4.51202e-07
4.44552e-07
8.68276e-07
8.80107e-07
9.06717e-07
4.53822e-07
4.54284e-07
4.95283e-07
4.93227e-07
8.77673e-07
9.06124e-07
4.53992e-07
4.57767e-07
4.95356e-07
4.8957e-07
4.54256e-07
4.91503e-07
4.95176e-07
8.7843e-07
9.03847e-07
4.56318e-07
4.91177e-07
4.94155e-07
9.0656e-07
9.15372e-07
9.35769e-07
5.07581e-07
5.06527e-07
5.38997e-07
5.42152e-07
9.15598e-07
9.37138e-07
5.07409e-07
5.02178e-07
5.39011e-07
5.45346e-07
5.07581e-07
5.40749e-07
5.41464e-07
9.1417e-07
9.40924e-07
5.06255e-07
5.46787e-07
5.39777e-07
9.37263e-07
9.44131e-07
9.69494e-07
5.50111e-07
5.52449e-07
5.87496e-07
5.87099e-07
9.44971e-07
9.6747e-07
5.50319e-07
5.58316e-07
5.8863e-07
5.89976e-07
5.53218e-07
5.85874e-07
5.90435e-07
9.4878e-07
9.67414e-07
5.51698e-07
5.95532e-07
5.91039e-07
9.69563e-07
9.78359e-07
9.99821e-07
6.00892e-07
6.00428e-07
6.39274e-07
6.38677e-07
9.76411e-07
1.0005e-06
6.02145e-07
5.99947e-07
6.39683e-07
6.34643e-07
6.0241e-07
6.37145e-07
6.38061e-07
9.75417e-07
9.99675e-07
6.03493e-07
6.36905e-07
6.38703e-07
1.00037e-06
1.00704e-06
1.02661e-06
6.50244e-07
6.50683e-07
6.82445e-07
6.85917e-07
1.00826e-06
1.02819e-06
6.50435e-07
6.49135e-07
6.83286e-07
6.89627e-07
6.51215e-07
6.85171e-07
6.8876e-07
1.0082e-06
1.03027e-06
6.51511e-07
6.89654e-07
6.90927e-07
1.02977e-06
1.03446e-06
1.05765e-06
6.94386e-07
6.97244e-07
7.31157e-07
7.30412e-07
1.03547e-06
1.05539e-06
6.95499e-07
6.99583e-07
7.31759e-07
7.29052e-07
6.99277e-07
7.2931e-07
7.29608e-07
1.03706e-06
1.0546e-06
7.01653e-07
7.30173e-07
7.29683e-07
1.05475e-06
1.06506e-06
1.08336e-06
7.42847e-07
7.41026e-07
7.74697e-07
7.74028e-07
1.06265e-06
1.08335e-06
7.43001e-07
7.40125e-07
7.75261e-07
7.75467e-07
7.40414e-07
7.72993e-07
7.75532e-07
1.06184e-06
1.08431e-06
7.39293e-07
7.74913e-07
7.73408e-07
1.08413e-06
1.08999e-06
1.11041e-06
7.84612e-07
7.85881e-07
8.1566e-07
8.19164e-07
1.09093e-06
1.11319e-06
7.85883e-07
7.86746e-07
8.16842e-07
8.17929e-07
7.86613e-07
8.1839e-07
8.15598e-07
1.09202e-06
1.11285e-06
7.86317e-07
8.17941e-07
8.20466e-07
1.11352e-06
1.11772e-06
1.13802e-06
8.26559e-07
8.29032e-07
8.60011e-07
8.58776e-07
1.11972e-06
1.13685e-06
8.26731e-07
8.28926e-07
8.58244e-07
8.62227e-07
8.25675e-07
8.58232e-07
8.61224e-07
1.11949e-06
1.13745e-06
8.30468e-07
8.60772e-07
8.59299e-07
1.13856e-06
1.14437e-06
1.16097e-06
8.70053e-07
8.68945e-07
8.93482e-07
8.94632e-07
1.14323e-06
1.16166e-06
8.68646e-07
8.70832e-07
8.95416e-07
8.92171e-07
8.72681e-07
8.94548e-07
8.97169e-07
1.14355e-06
1.15938e-06
8.67998e-07
8.90794e-07
8.91711e-07
1.16034e-06
1.16701e-06
1.18683e-06
9.00708e-07
9.02325e-07
9.27987e-07
9.30111e-07
1.16742e-06
1.18582e-06
9.03485e-07
9.00509e-07
9.30901e-07
9.3188e-07
9.03701e-07
9.29828e-07
9.27433e-07
1.1655e-06
1.18761e-06
9.00181e-07
9.3124e-07
9.28917e-07
1.18502e-06
1.19393e-06
1.21285e-06
9.39284e-07
9.40251e-07
9.68091e-07
9.65531e-07
1.1931e-06
1.21312e-06
9.41202e-07
9.42686e-07
9.68671e-07
9.67141e-07
9.37068e-07
9.64652e-07
9.66476e-07
1.1949e-06
1.21199e-06
9.39118e-07
9.64663e-07
9.65431e-07
1.21484e-06
1.2175e-06
1.227e-06
9.73696e-07
9.7219e-07
9.87478e-07
9.91818e-07
1.21836e-06
1.23097e-06
9.74044e-07
9.72681e-07
9.8658e-07
9.90435e-07
9.75107e-07
9.92952e-07
9.95917e-07
1.21663e-06
1.22866e-06
9.72394e-07
9.8948e-07
9.91582e-07
1.23292e-06
1.23235e-06
1.25755e-06
9.94104e-07
9.98776e-07
1.02244e-06
1.02158e-06
1.2362e-06
1.25395e-06
9.92867e-07
9.98148e-07
1.02255e-06
1.02621e-06
1.0016e-06
1.02174e-06
1.01863e-06
1.23447e-06
1.25756e-06
9.97683e-07
1.02419e-06
1.01842e-06
1.2521e-06
1.26497e-06
1.27788e-06
1.03193e-06
1.02832e-06
1.04948e-06
1.04697e-06
1.25973e-06
1.27376e-06
1.03256e-06
1.03465e-06
1.05264e-06
1.05179e-06
1.02569e-06
1.04589e-06
1.04855e-06
1.26396e-06
1.27519e-06
1.02589e-06
1.04698e-06
1.04782e-06
1.27521e-06
1.28122e-06
1.28772e-06
1.05371e-06
1.05354e-06
1.06882e-06
1.0733e-06
1.2791e-06
1.29506e-06
1.05721e-06
1.05598e-06
1.06927e-06
1.06775e-06
1.05615e-06
1.07546e-06
1.07417e-06
1.27866e-06
1.28822e-06
1.05495e-06
1.06758e-06
1.07263e-06
1.29391e-06
1.292e-06
1.3101e-06
1.07404e-06
1.07897e-06
1.09254e-06
1.09151e-06
1.29986e-06
1.30783e-06
1.07304e-06
1.07273e-06
1.08844e-06
1.09307e-06
1.07801e-06
1.09141e-06
1.08882e-06
1.29412e-06
1.31421e-06
1.07658e-06
1.09252e-06
1.08782e-06
1.30688e-06
1.31679e-06
1.33298e-06
1.09879e-06
1.09482e-06
1.11549e-06
1.11046e-06
1.31149e-06
1.32612e-06
1.09621e-06
1.10044e-06
1.11837e-06
1.11952e-06
1.09433e-06
1.11062e-06
1.11608e-06
1.32015e-06
1.3325e-06
1.09357e-06
1.11722e-06
1.1158e-06
1.33157e-06
1.33774e-06
1.34564e-06
1.12123e-06
1.11797e-06
1.13599e-06
1.14032e-06
1.33284e-06
1.35105e-06
1.12473e-06
1.12388e-06
1.13734e-06
1.13246e-06
1.12333e-06
1.14117e-06
1.13933e-06
1.33592e-06
1.33872e-06
1.12317e-06
1.13214e-06
1.13858e-06
1.34815e-06
1.34837e-06
1.35406e-06
1.13925e-06
1.14528e-06
1.14924e-06
1.15272e-06
1.35504e-06
1.35646e-06
1.1396e-06
1.13501e-06
1.1477e-06
1.14758e-06
1.14236e-06
1.15265e-06
1.14971e-06
1.34164e-06
1.3557e-06
1.14132e-06
1.14921e-06
1.14812e-06
1.3537e-06
1.35889e-06
1.37741e-06
1.15372e-06
1.15402e-06
1.17069e-06
1.16221e-06
1.35835e-06
1.3672e-06
1.15224e-06
1.15435e-06
1.17193e-06
1.17354e-06
1.15303e-06
1.16141e-06
1.16798e-06
1.36283e-06
1.38059e-06
1.15209e-06
1.17341e-06
1.17016e-06
1.37608e-06
1.38257e-06
1.3893e-06
1.1755e-06
1.1688e-06
1.18617e-06
1.19134e-06
1.37407e-06
1.39575e-06
1.17765e-06
1.17799e-06
1.18755e-06
1.18618e-06
1.17421e-06
1.19115e-06
1.18887e-06
1.38431e-06
1.38643e-06
1.17646e-06
1.18539e-06
1.18838e-06
1.39184e-06
1.39209e-06
1.39852e-06
1.18956e-06
1.19605e-06
1.20065e-06
1.20295e-06
1.39998e-06
1.40146e-06
1.18989e-06
1.18858e-06
1.19856e-06
1.19814e-06
1.19228e-06
1.20293e-06
1.20008e-06
1.38892e-06
1.39736e-06
1.19077e-06
1.19846e-06
1.19788e-06
1.39806e-06
1.40276e-06
1.41448e-06
1.20423e-06
1.20384e-06
1.21474e-06
1.2099e-06
1.40306e-06
1.40797e-06
1.20212e-06
1.20211e-06
1.21573e-06
1.21665e-06
1.20264e-06
1.21003e-06
1.21344e-06
1.40251e-06
1.41629e-06
1.20112e-06
1.21667e-06
1.2151e-06
1.41343e-06
1.41848e-06
1.42498e-06
1.21796e-06
1.2142e-06
1.22809e-06
1.23097e-06
1.41307e-06
1.42937e-06
1.22018e-06
1.22073e-06
1.22914e-06
1.22813e-06
1.21823e-06
1.23149e-06
1.23122e-06
1.42012e-06
1.42434e-06
1.22023e-06
1.22753e-06
1.23034e-06
1.42698e-06
1.42822e-06
1.4354e-06
1.23167e-06
1.23515e-06
1.24114e-06
1.24094e-06
1.43343e-06
1.43534e-06
1.23113e-06
1.22991e-06
1.23909e-06
1.23861e-06
1.23387e-06
1.24068e-06
1.23805e-06
1.42705e-06
1.43457e-06
1.23205e-06
1.238e-06
1.23562e-06
1.43185e-06
1.43913e-06
1.44757e-06
1.24385e-06
1.24166e-06
1.25223e-06
1.24951e-06
1.43736e-06
1.44523e-06
1.24267e-06
1.24284e-06
1.25397e-06
1.25522e-06
1.2395e-06
1.24905e-06
1.25152e-06
1.4392e-06
1.45026e-06
1.23825e-06
1.25504e-06
1.2538e-06
1.44973e-06
1.45109e-06
1.45497e-06
1.25483e-06
1.25414e-06
1.26131e-06
1.26714e-06
1.45065e-06
1.46218e-06
1.25678e-06
1.2579e-06
1.26057e-06
1.26143e-06
1.25679e-06
1.26789e-06
1.2675e-06
1.45349e-06
1.45435e-06
1.25878e-06
1.26238e-06
1.26639e-06
1.46115e-06
1.45766e-06
1.46531e-06
1.2635e-06
1.26922e-06
1.27158e-06
1.27046e-06
1.46452e-06
1.46123e-06
1.26162e-06
1.2621e-06
1.26977e-06
1.26924e-06
1.26887e-06
1.27042e-06
1.26957e-06
1.45639e-06
1.46382e-06
1.26703e-06
1.26869e-06
1.26731e-06
1.45909e-06
1.46951e-06
1.47542e-06
1.2743e-06
1.27065e-06
1.27951e-06
1.27368e-06
1.46272e-06
1.46925e-06
1.27379e-06
1.27336e-06
1.28213e-06
1.28263e-06
1.26966e-06
1.27278e-06
1.27247e-06
1.46866e-06
1.47701e-06
1.26787e-06
1.28091e-06
1.27333e-06
1.46971e-06
1.47763e-06
1.4806e-06
1.28022e-06
1.27717e-06
1.28607e-06
1.29223e-06
1.47467e-06
1.49062e-06
1.28312e-06
1.28377e-06
1.28659e-06
1.28599e-06
1.27589e-06
1.29283e-06
1.29381e-06
1.47925e-06
1.48048e-06
1.27816e-06
1.28643e-06
1.29322e-06
1.49188e-06
1.48396e-06
1.4907e-06
1.2895e-06
1.29537e-06
1.29792e-06
1.29819e-06
1.49409e-06
1.4903e-06
1.28851e-06
1.28812e-06
1.29436e-06
1.2962e-06
1.29787e-06
1.29857e-06
1.29964e-06
1.48362e-06
1.49125e-06
1.29648e-06
1.29768e-06
1.29788e-06
1.4895e-06
1.49311e-06
1.49033e-06
1.29867e-06
1.2975e-06
1.29743e-06
1.2952e-06
1.49103e-06
1.4848e-06
1.29588e-06
1.29814e-06
1.29666e-06
1.2989e-06
1.29779e-06
1.29356e-06
1.29152e-06
1.49417e-06
1.49168e-06
1.2963e-06
1.29841e-06
1.29136e-06
1.48057e-06
1.4918e-06
1.49941e-06
1.29715e-06
1.29546e-06
1.30003e-06
1.30297e-06
1.48785e-06
1.5041e-06
1.29661e-06
1.29784e-06
1.30094e-06
1.29862e-06
1.29174e-06
1.30321e-06
1.30247e-06
1.49281e-06
1.49536e-06
1.29157e-06
1.29811e-06
1.30143e-06
1.50484e-06
1.50488e-06
1.51324e-06
1.30443e-06
1.30702e-06
1.31478e-06
1.31314e-06
1.50951e-06
1.51204e-06
1.30575e-06
1.30155e-06
1.315e-06
1.31522e-06
1.30859e-06
1.31327e-06
1.31676e-06
1.50068e-06
1.51516e-06
1.30724e-06
1.31504e-06
1.31664e-06
1.51698e-06
1.51478e-06
1.50385e-06
1.3153e-06
1.31334e-06
1.31241e-06
1.31169e-06
1.51299e-06
1.50471e-06
1.31509e-06
1.31684e-06
1.31065e-06
1.31426e-06
1.31654e-06
1.31037e-06
1.31154e-06
1.51754e-06
1.50825e-06
1.3166e-06
1.31492e-06
1.31195e-06
1.5032e-06
1.50472e-06
1.50557e-06
1.31042e-06
1.31122e-06
1.30929e-06
1.31174e-06
1.50617e-06
1.51022e-06
1.3085e-06
1.31175e-06
1.30799e-06
1.30925e-06
1.31034e-06
1.31173e-06
1.31074e-06
1.50885e-06
1.50515e-06
1.31032e-06
1.31009e-06
1.31006e-06
1.50722e-06
1.51015e-06
1.52424e-06
1.31018e-06
1.3127e-06
1.32042e-06
1.31773e-06
1.51372e-06
1.51849e-06
1.30949e-06
1.30997e-06
1.321e-06
1.31862e-06
1.31211e-06
1.3177e-06
1.31843e-06
1.50866e-06
1.52128e-06
1.31122e-06
1.31819e-06
1.31793e-06
1.52104e-06
1.52755e-06
1.5238e-06
1.32328e-06
1.31883e-06
1.32439e-06
1.31915e-06
1.52033e-06
1.51725e-06
1.32368e-06
1.3215e-06
1.3249e-06
1.32426e-06
1.3194e-06
1.31771e-06
1.31881e-06
1.52495e-06
1.52448e-06
1.31937e-06
1.32313e-06
1.3194e-06
1.5192e-06
1.52456e-06
1.51476e-06
1.3232e-06
1.31874e-06
1.31663e-06
1.31813e-06
1.51862e-06
1.51938e-06
1.32366e-06
1.32378e-06
1.31679e-06
1.31903e-06
1.31766e-06
1.3166e-06
1.31566e-06
1.52555e-06
1.51786e-06
1.31863e-06
1.31885e-06
1.31687e-06
1.51706e-06
1.51613e-06
1.52232e-06
1.316e-06
1.31871e-06
1.31838e-06
1.32458e-06
1.52239e-06
1.52894e-06
1.31518e-06
1.31727e-06
1.31605e-06
1.31649e-06
1.31589e-06
1.32422e-06
1.32461e-06
1.51911e-06
1.52048e-06
1.3171e-06
1.31795e-06
1.32384e-06
1.52856e-06
1.5269e-06
1.53339e-06
1.32177e-06
1.32639e-06
1.32753e-06
1.32728e-06
1.53173e-06
1.52984e-06
1.3183e-06
1.31754e-06
1.32586e-06
1.32566e-06
1.32756e-06
1.32815e-06
1.32984e-06
1.52415e-06
1.53193e-06
1.32611e-06
1.32662e-06
1.32764e-06
1.53096e-06
1.53512e-06
1.52438e-06
1.3274e-06
1.32662e-06
1.32165e-06
1.3183e-06
1.5309e-06
1.52103e-06
1.32642e-06
1.32702e-06
1.3234e-06
1.32546e-06
1.32894e-06
1.31981e-06
1.32013e-06
1.5342e-06
1.5274e-06
1.32697e-06
1.32417e-06
1.31969e-06
1.52099e-06
1.52489e-06
1.51646e-06
1.31811e-06
1.31501e-06
1.3111e-06
1.30986e-06
1.52204e-06
1.51937e-06
1.3204e-06
1.32273e-06
1.31236e-06
1.31324e-06
1.31657e-06
1.30975e-06
1.31092e-06
1.52798e-06
1.51765e-06
1.31698e-06
1.3126e-06
1.31273e-06
1.52157e-06
1.51843e-06
1.52688e-06
1.31104e-06
1.31e-06
1.31486e-06
1.31254e-06
1.52169e-06
1.52695e-06
1.31142e-06
1.31155e-06
1.31402e-06
1.31367e-06
1.31034e-06
1.31196e-06
1.31159e-06
1.51915e-06
1.52631e-06
1.31217e-06
1.31459e-06
1.31294e-06
1.52667e-06
1.53088e-06
1.53345e-06
1.31747e-06
1.31548e-06
1.32215e-06
1.32206e-06
1.53052e-06
1.53183e-06
1.31626e-06
1.31613e-06
1.32133e-06
1.32219e-06
1.31289e-06
1.32279e-06
1.32335e-06
1.53068e-06
1.53528e-06
1.31398e-06
1.32258e-06
1.32293e-06
1.53412e-06
1.53444e-06
1.52035e-06
1.32173e-06
1.3216e-06
1.31509e-06
1.31612e-06
1.53278e-06
1.5197e-06
1.32113e-06
1.32195e-06
1.31495e-06
1.31379e-06
1.32402e-06
1.31703e-06
1.31853e-06
1.53634e-06
1.51838e-06
1.32313e-06
1.31329e-06
1.31807e-06
1.52197e-06
1.52076e-06
1.51048e-06
1.31137e-06
1.3133e-06
1.29998e-06
1.29912e-06
1.52018e-06
1.50716e-06
1.31109e-06
1.3092e-06
1.3004e-06
1.30106e-06
1.31548e-06
1.29975e-06
1.29833e-06
1.51849e-06
1.51016e-06
1.31418e-06
1.30059e-06
1.2983e-06
1.50441e-06
1.51239e-06
1.52134e-06
1.2982e-06
1.29639e-06
1.30116e-06
1.29759e-06
1.50874e-06
1.51665e-06
1.29905e-06
1.30117e-06
1.30238e-06
1.30771e-06
1.29452e-06
1.29591e-06
1.29546e-06
1.51374e-06
1.52793e-06
1.29521e-06
1.30746e-06
1.29824e-06
1.51618e-06
1.52577e-06
1.52888e-06
1.30335e-06
1.29956e-06
1.30899e-06
1.30713e-06
1.5213e-06
1.52996e-06
1.30472e-06
1.3097e-06
1.3082e-06
1.30853e-06
1.29814e-06
1.30529e-06
1.30819e-06
1.53182e-06
1.52548e-06
1.30089e-06
1.30875e-06
1.30968e-06
1.5333e-06
1.52974e-06
1.50925e-06
1.30868e-06
1.30815e-06
1.2996e-06
1.30173e-06
1.53205e-06
1.51584e-06
1.30749e-06
1.30616e-06
1.29652e-06
1.28896e-06
1.30981e-06
1.30275e-06
1.3033e-06
1.52558e-06
1.49974e-06
1.30973e-06
1.28937e-06
1.30076e-06
1.51494e-06
1.50914e-06
1.49326e-06
1.29465e-06
1.29838e-06
1.27839e-06
1.28032e-06
1.51572e-06
1.49323e-06
1.2912e-06
1.28417e-06
1.27725e-06
1.27631e-06
1.29822e-06
1.28089e-06
1.27637e-06
1.50001e-06
1.49459e-06
1.29416e-06
1.27492e-06
1.27338e-06
1.48681e-06
1.49482e-06
1.5032e-06
1.27534e-06
1.27606e-06
1.27603e-06
1.2726e-06
1.49389e-06
1.49587e-06
1.27527e-06
1.27673e-06
1.278e-06
1.2843e-06
1.27184e-06
1.27236e-06
1.27368e-06
1.49849e-06
1.51391e-06
1.27076e-06
1.2836e-06
1.2754e-06
1.50075e-06
1.50861e-06
1.51994e-06
1.27855e-06
1.27501e-06
1.29079e-06
1.28794e-06
1.50129e-06
1.518e-06
1.2814e-06
1.29001e-06
1.29213e-06
1.29578e-06
1.27912e-06
1.28863e-06
1.29504e-06
1.51979e-06
1.51942e-06
1.28239e-06
1.29667e-06
1.29679e-06
1.52725e-06
1.52159e-06
1.49563e-06
1.29166e-06
1.29046e-06
1.28055e-06
1.28228e-06
1.52133e-06
1.50114e-06
1.29204e-06
1.29396e-06
1.27774e-06
1.27086e-06
1.29513e-06
1.2817e-06
1.27752e-06
1.51955e-06
1.48125e-06
1.29636e-06
1.26989e-06
1.27378e-06
1.48906e-06
1.49338e-06
1.43974e-06
1.27441e-06
1.27617e-06
1.22093e-06
1.22271e-06
1.49895e-06
1.44231e-06
1.27091e-06
1.26254e-06
1.21786e-06
1.2134e-06
1.26854e-06
1.22189e-06
1.21479e-06
1.47891e-06
1.43807e-06
1.26415e-06
1.21349e-06
1.21249e-06
1.43231e-06
1.41907e-06
1.1812e-06
1.18294e-06
1.42088e-06
1.17906e-06
1.17672e-06
7.50465e-07
7.4331e-07
7.44989e-07
1.17738e-06
1.42043e-06
1.17607e-06
1.08493e-10
2.38403e-09
1.44615e-10
2.26579e-10
5.52884e-09
3.53655e-09
2.76292e-09
9.81074e-10
5.43091e-09
4.07775e-09
1.12266e-09
5.22728e-09
5.35324e-09
1.99599e-09
5.67552e-09
7.63013e-09
1.59736e-07
6.35225e-09
2.52223e-07
1.71373e-06
3.08566e-06
8.74177e-09
1.56737e-07
7.36137e-09
2.48591e-07
1.28111e-09
1.57461e-09
1.39496e-09
1.19177e-09
1.25826e-09
1.56658e-09
1.38263e-09
4.8427e-09
7.38453e-08
2.69839e-09
3.29882e-09
5.16643e-09
5.2932e-08
2.66965e-09
1.59199e-06
3.15294e-06
4.70114e-09
3.19395e-09
7.51054e-08
4.3426e-09
4.96464e-09
3.15872e-09
5.48335e-08
2.07457e-07
2.18741e-07
4.92624e-09
1.79589e-07
1.88495e-07
1.67986e-08
4.49291e-07
1.22776e-08
6.54214e-07
7.03176e-06
1.01169e-05
1.80953e-08
4.44279e-07
1.33602e-08
6.43102e-07
1.23587e-09
1.54863e-09
1.36801e-09
1.13377e-09
1.17009e-09