/*--------------------------------*- C++ -*----------------------------------*\
| =========                 |                                                 |
| \\      /  F ield         | OpenFOAM: The Open Source CFD Toolbox           |
|  \\    /   O peration     | Version:  v2012                                 |
|   \\  /    A nd           | Website:  www.openfoam.com                      |
|    \\/     M anipulation  |                                                 |
\*---------------------------------------------------------------------------*/
FoamFile
{
    version     2.0;
    format      ascii;
    class       volScalarField;
    location    "1250";
    object      k;
}
// * * * * * * * * * * * * * * * * * * * * * * * * * * * * * * * * * * * * * //

dimensions      [0 2 -2 0 0 0 0];


internalField   nonuniform List<scalar> 
171728
(
1.44629e-07
2.58483e-07
2.74818e-07
3.61736e-07
1.44018e-07
2.47362e-07
2.67029e-07
3.38793e-07
1.40404e-07
2.36473e-07
2.60043e-07
3.19197e-07
1.37157e-07
2.26323e-07
2.53228e-07
3.01598e-07
1.34151e-07
2.16886e-07
2.46781e-07
2.85199e-07
1.31245e-07
2.0804e-07
2.40405e-07
2.7064e-07
1.28341e-07
1.99469e-07
2.33345e-07
2.57415e-07
1.2544e-07
1.92165e-07
2.26674e-07
2.44987e-07
1.22852e-07
1.85539e-07
2.21067e-07
2.33892e-07
1.20247e-07
1.79764e-07
2.16478e-07
2.24766e-07
1.17553e-07
1.74989e-07
2.12832e-07
2.18463e-07
1.1498e-07
1.70838e-07
2.09417e-07
2.15921e-07
1.12507e-07
1.67812e-07
2.06181e-07
2.16346e-07
1.1009e-07
1.66808e-07
2.02881e-07
2.19776e-07
1.07891e-07
1.68143e-07
2.01352e-07
2.24917e-07
1.05955e-07
1.73138e-07
2.03559e-07
2.31405e-07
1.04176e-07
1.82291e-07
2.1087e-07
2.35408e-07
1.02509e-07
1.99182e-07
2.26065e-07
2.40464e-07
1.00931e-07
2.23528e-07
2.54106e-07
2.52333e-07
9.965e-08
2.77489e-07
3.09401e-07
3.29173e-07
9.85969e-08
3.49434e-07
3.85224e-07
4.35968e-07
9.777e-08
4.59313e-07
5.22511e-07
6.52111e-07
9.72891e-08
6.13312e-07
6.46001e-07
1.03997e-06
9.8064e-08
8.84846e-07
9.99098e-07
1.67251e-06
9.93832e-08
1.14209e-06
1.15853e-06
2.58848e-06
1.02823e-07
1.66233e-06
1.74046e-06
3.84113e-06
1.09694e-07
2.06943e-06
2.04791e-06
5.50117e-06
1.17041e-07
2.76413e-06
2.87211e-06
7.81442e-06
1.32376e-07
3.48708e-06
3.35909e-06
1.00349e-05
1.58119e-07
4.377e-06
4.55413e-06
1.21808e-05
1.83041e-07
5.27865e-06
5.34686e-06
1.40192e-05
2.36763e-07
6.63304e-06
6.50822e-06
1.83489e-05
3.07123e-07
7.60326e-06
7.79095e-06
1.94855e-05
3.77525e-07
8.95307e-06
8.90918e-06
2.15874e-05
5.10346e-07
1.07921e-05
1.07729e-05
2.3233e-05
6.6618e-07
1.1862e-05
1.18932e-05
2.41056e-05
8.33395e-07
1.37453e-05
1.36915e-05
2.73737e-05
1.17235e-06
1.55813e-05
1.56272e-05
2.82755e-05
1.3369e-06
1.70489e-05
1.7298e-05
2.87391e-05
1.906e-06
1.89809e-05
1.8498e-05
3.06414e-05
2.22551e-06
2.11157e-05
2.12044e-05
3.16204e-05
2.61325e-06
2.21846e-05
2.35956e-05
3.30816e-05
3.64403e-06
2.48797e-05
2.40067e-05
3.40502e-05
4.02955e-06
2.58884e-05
2.67785e-05
3.49741e-05
4.90091e-06
2.79892e-05
2.78458e-05
3.57962e-05
5.98697e-06
2.93143e-05
2.98793e-05
3.75131e-05
6.83996e-06
3.18531e-05
3.14677e-05
3.90044e-05
8.03332e-06
3.23819e-05
3.28149e-05
3.92277e-05
9.45516e-06
3.40108e-05
3.37384e-05
3.97803e-05
1.03104e-05
3.52788e-05
3.5763e-05
4.10129e-05
1.20558e-05
3.74598e-05
3.74368e-05
4.30308e-05
1.37878e-05
3.78485e-05
3.75393e-05
4.32066e-05
1.46052e-05
3.94567e-05
3.95237e-05
4.38197e-05
1.76292e-05
4.01585e-05
4.04351e-05
4.48271e-05
1.82431e-05
4.16537e-05
4.10339e-05
4.57632e-05
1.85076e-05
4.21251e-05
4.28576e-05
4.60326e-05
2.19688e-05
4.34653e-05
4.36053e-05
4.76518e-05
2.3749e-05
4.51247e-05
4.38705e-05
4.81128e-05
2.41174e-05
4.49668e-05
4.49947e-05
4.75969e-05
2.50353e-05
4.5112e-05
4.68365e-05
4.95453e-05
2.78671e-05
4.80306e-05
4.70891e-05
5.05957e-05
2.89309e-05
4.80863e-05
4.71896e-05
5.01853e-05
2.9686e-05
4.77736e-05
4.88913e-05
5.09467e-05
3.11614e-05
4.95949e-05
4.93696e-05
5.17672e-05
3.22888e-05
5.01772e-05
4.97034e-05
5.18004e-05
3.32573e-05
5.02559e-05
5.08142e-05
5.30927e-05
3.45244e-05
5.15214e-05
5.10484e-05
5.35361e-05
3.55393e-05
5.15224e-05
5.13082e-05
5.29083e-05
3.66947e-05
5.18983e-05
5.28486e-05
5.42906e-05
3.75013e-05
5.37068e-05
5.31071e-05
5.55929e-05
3.83618e-05
5.33406e-05
5.30513e-05
5.44418e-05
3.92691e-05
5.27195e-05
5.32736e-05
5.35634e-05
4.01383e-05
5.47082e-05
5.40488e-05
5.69655e-05
4.13768e-05
5.55824e-05
5.56025e-05
5.75801e-05
4.1655e-05
5.45887e-05
5.47733e-05
5.49584e-05
4.17051e-05
5.46333e-05
5.42979e-05
5.54229e-05
4.32842e-05
5.59028e-05
5.60954e-05
5.77429e-05
4.38212e-05
5.60428e-05
5.64557e-05
5.76159e-05
4.37583e-05
5.60216e-05
5.58136e-05
5.71502e-05
4.44209e-05
5.63333e-05
5.5973e-05
5.73565e-05
4.55927e-05
5.60892e-05
5.68544e-05
5.68923e-05
4.54498e-05
5.58008e-05
5.64392e-05
5.62887e-05
4.52228e-05
5.74178e-05
5.63484e-05
5.86277e-05
4.63173e-05
5.89044e-05
5.79309e-05
6.0337e-05
4.68774e-05
5.80276e-05
5.80094e-05
5.91383e-05
4.60504e-05
5.50628e-05
5.60441e-05
5.60211e-05
4.55651e-05
5.47634e-05
5.58002e-05
5.535e-05
4.68449e-05
5.81456e-05
5.81082e-05
5.933e-05
4.78839e-05
5.94695e-05
5.81932e-05
6.09745e-05
4.67598e-05
5.6947e-05
5.62003e-05
5.74946e-05
4.58284e-05
5.49392e-05
5.6466e-05
5.55814e-05
4.68767e-05
5.6649e-05
5.81666e-05
5.88324e-05
4.77937e-05
5.84337e-05
5.71423e-05
6.02333e-05
4.62545e-05
5.61471e-05
5.393e-05
5.55143e-05
4.47332e-05
5.34763e-05
5.38887e-05
5.45821e-05
3.6696e-07
3.09788e-07
3.3484e-07
3.39958e-07
2.97496e-07
3.97323e-07
1.42668e-07
1.5143e-07
1.75631e-07
1.59139e-07
2.84549e-07
2.96872e-07
3.60128e-07
2.9871e-07
3.38205e-07
3.62884e-07
3.66034e-07
3.44697e-07
2.58551e-07
4.86106e-07
2.51559e-07
4.21193e-07
3.3898e-07
3.24843e-07
2.56382e-07
7.01867e-07
2.48532e-07
7.06458e-07
2.60176e-07
2.50135e-07
2.51821e-07
3.58329e-07
3.5424e-07
3.31903e-07
2.68943e-07
3.16232e-07
3.4012e-07
3.43503e-07
3.23068e-07
2.48751e-07
4.03179e-07
2.40433e-07
3.79368e-07
3.2218e-07
3.08458e-07
2.45684e-07
7.02186e-07
2.37525e-07
6.64962e-07
2.48711e-07
2.39153e-07
2.3929e-07
3.52455e-07
3.46435e-07
3.11703e-07
2.61794e-07
2.96755e-07
3.20284e-07
3.22068e-07
3.03973e-07
2.37525e-07
3.79186e-07
2.28824e-07
3.89552e-07
3.05971e-07
2.97148e-07
2.34919e-07
6.33201e-07
2.27613e-07
5.13532e-07
2.36157e-07
2.28819e-07
2.27063e-07
3.42575e-07
3.17893e-07
2.9141e-07
2.54905e-07
2.76826e-07
3.02605e-07
3.03117e-07
2.86692e-07
2.25863e-07
4.01968e-07
2.17485e-07
4.4173e-07
2.95844e-07
2.95608e-07
2.25248e-07
4.75984e-07
2.17976e-07
3.96868e-07
2.24156e-07
2.19168e-07
2.15898e-07
3.15804e-07
2.98388e-07
2.72528e-07
2.48359e-07
2.60954e-07
2.86091e-07
2.8584e-07
2.70212e-07
2.14756e-07
4.5207e-07
2.07328e-07
4.63883e-07
2.9515e-07
2.95385e-07
2.15468e-07
3.85165e-07
2.08038e-07
3.78206e-07
2.13354e-07
2.1023e-07
2.06285e-07
2.97104e-07
2.85581e-07
2.57542e-07
2.42005e-07
2.47907e-07
2.71385e-07
2.69379e-07
2.55108e-07
2.05061e-07
4.6316e-07
1.99066e-07
3.9504e-07
2.94547e-07
2.76358e-07
2.05652e-07
3.78402e-07
1.98928e-07
3.74188e-07
2.04115e-07
2.01501e-07
1.98029e-07
2.84614e-07
2.74447e-07
2.44851e-07
2.35179e-07
2.3697e-07
2.58052e-07
2.54431e-07
2.42046e-07
1.97247e-07
3.5668e-07
1.92303e-07
2.66326e-07
2.72714e-07
2.42632e-07
1.96815e-07
3.64654e-07
1.90889e-07
3.28821e-07
1.96144e-07
1.93832e-07
1.90642e-07
2.73313e-07
2.61208e-07
2.34582e-07
2.28191e-07
2.26827e-07
2.45531e-07
2.41561e-07
2.30812e-07
1.90683e-07
2.44705e-07
1.85987e-07
2.0636e-07
2.41239e-07
2.2781e-07
1.88988e-07
3.1337e-07
1.83602e-07
2.62965e-07
1.88858e-07
1.87113e-07
1.83812e-07
2.60103e-07
2.46686e-07
2.24246e-07
2.22354e-07
2.19695e-07
2.34282e-07
2.30549e-07
2.20901e-07
1.84406e-07
2.02035e-07
1.79791e-07
1.89881e-07
2.27273e-07
2.15482e-07
1.81884e-07
2.4854e-07
1.77434e-07
2.17139e-07
1.82217e-07
1.81009e-07
1.77888e-07
2.45499e-07
2.31093e-07
2.1943e-07
2.17565e-07
2.19696e-07
2.25039e-07
2.20744e-07
2.11394e-07
1.78307e-07
1.84625e-07
1.74143e-07
1.7106e-07
2.1512e-07
2.06905e-07
1.76117e-07
2.10373e-07
1.72678e-07
1.96948e-07
1.76522e-07
1.76009e-07
1.73256e-07
2.30382e-07
2.20735e-07
2.2017e-07
2.1363e-07
2.2574e-07
2.18425e-07
2.11296e-07
2.02876e-07
1.72889e-07
1.68009e-07
1.69693e-07
1.63472e-07
2.06877e-07
1.99296e-07
1.71671e-07
1.9373e-07
1.68667e-07
1.8584e-07
1.72407e-07
1.71819e-07
1.69927e-07
2.20317e-07
2.1222e-07
2.28646e-07
2.10207e-07
2.38221e-07
2.15628e-07
2.02859e-07
1.95359e-07
1.68831e-07
1.62951e-07
1.66522e-07
1.61695e-07
1.99314e-07
1.92827e-07
1.67695e-07
1.83517e-07
1.65093e-07
1.77653e-07
1.69198e-07
1.68325e-07
1.6721e-07
2.11992e-07
2.05001e-07
2.41765e-07
2.06861e-07
2.56429e-07
2.15593e-07
1.95451e-07
1.89413e-07
1.65698e-07
1.61312e-07
1.64146e-07
1.6045e-07
1.92999e-07
1.87796e-07
1.643e-07
1.76036e-07
1.62723e-07
1.73037e-07
1.66518e-07
1.66854e-07
1.65222e-07
2.04936e-07
1.98611e-07
2.62739e-07
2.03552e-07
2.83749e-07
2.18503e-07
1.89774e-07
1.85445e-07
1.64083e-07
1.6028e-07
1.64689e-07
1.60124e-07
1.88112e-07
1.84619e-07
1.62357e-07
1.72899e-07
1.6202e-07
1.73509e-07
1.64951e-07
1.67454e-07
1.6487e-07
1.98735e-07
1.94259e-07
2.91146e-07
2.01399e-07
3.14263e-07
2.23253e-07
1.86394e-07
1.85639e-07
1.6524e-07
1.60367e-07
1.69248e-07
1.62126e-07
1.85567e-07
1.84307e-07
1.623e-07
1.74093e-07
1.65435e-07
1.77623e-07
1.65123e-07
1.71196e-07
1.67052e-07
1.94761e-07
1.93037e-07
3.22022e-07
2.02356e-07
3.43636e-07
2.29108e-07
1.86771e-07
1.9068e-07
1.70466e-07
1.63951e-07
1.76856e-07
1.69662e-07
1.86305e-07
1.88153e-07
1.66224e-07
1.79349e-07
1.72257e-07
1.85887e-07
1.68499e-07
1.79032e-07
1.7378e-07
1.94525e-07
1.96146e-07
3.49562e-07
2.08627e-07
3.59668e-07
2.33444e-07
1.9456e-07
2.01827e-07
1.80559e-07
1.73128e-07
1.90781e-07
1.83693e-07
1.91441e-07
2.02525e-07
1.75817e-07
1.87835e-07
1.84976e-07
2.0461e-07
1.75858e-07
1.92801e-07
1.90108e-07
1.9909e-07
2.11245e-07
3.59925e-07
2.22376e-07
3.38299e-07
2.38559e-07
2.0823e-07
2.39442e-07
1.96954e-07
1.90631e-07
2.22514e-07
2.12424e-07
2.10336e-07
2.31578e-07
1.91093e-07
2.16227e-07
2.14985e-07
2.48477e-07
1.94006e-07
2.18558e-07
2.09362e-07
2.17515e-07
2.4819e-07
3.26223e-07
2.46395e-07
2.93151e-07
2.40348e-07
2.47835e-07
2.84955e-07
2.29567e-07
2.18182e-07
2.60109e-07
2.59174e-07
2.39371e-07
2.97914e-07
2.21739e-07
2.66869e-07
2.53908e-07
3.51473e-07
2.20612e-07
2.61437e-07
2.58804e-07
2.61837e-07
3.19883e-07
2.92459e-07
2.93723e-07
3.06815e-07
3.08336e-07
3.09668e-07
4.02608e-07
2.77966e-07
2.75371e-07
3.29951e-07
3.22159e-07
3.21257e-07
3.95855e-07
2.72758e-07
3.82251e-07
3.19893e-07
5.34208e-07
2.73613e-07
3.2576e-07
3.24993e-07
3.49834e-07
4.56196e-07
3.17126e-07
3.61554e-07
3.48898e-07
4.0268e-07
4.28998e-07
6.12013e-07
3.50579e-07
3.46536e-07
4.30104e-07
4.29451e-07
4.31931e-07
6.27308e-07
3.41881e-07
5.89357e-07
4.25969e-07
7.49496e-07
3.47168e-07
4.29782e-07
4.29008e-07
4.98659e-07
7.20012e-07
3.65691e-07
4.72957e-07
4.33813e-07
5.93982e-07
6.67468e-07
9.66949e-07
4.63155e-07
4.59692e-07
5.8893e-07
5.72648e-07
6.76946e-07
9.09202e-07
4.56855e-07
8.11912e-07
5.86941e-07
9.76908e-07
4.6298e-07
5.71175e-07
5.77361e-07
8.07432e-07
1.09632e-06
4.60924e-07
6.19272e-07
5.88959e-07
9.45048e-07
1.06097e-06
1.46209e-06
6.25305e-07
6.1379e-07
8.09589e-07
8.15878e-07
1.00246e-06
1.58009e-06
6.2153e-07
1.03944e-06
7.96609e-07
1.25666e-06
6.25067e-07
8.17016e-07
8.02631e-07
1.13927e-06
1.9238e-06
6.29765e-07
8.74913e-07
8.11869e-07
1.52581e-06
1.6133e-06
2.45232e-06
8.64215e-07
8.83682e-07
1.12164e-06
1.06927e-06
1.7529e-06
2.23973e-06
8.54168e-07
1.28986e-06
1.11411e-06
1.28501e-06
8.67598e-07
1.06375e-06
1.10894e-06
2.20383e-06
2.27815e-06
8.81929e-07
1.15261e-06
1.09706e-06
2.39146e-06
2.71737e-06
3.67922e-06
1.24217e-06
1.15044e-06
1.46802e-06
1.53999e-06
2.41007e-06
3.76944e-06
1.23068e-06
1.28904e-06
1.47735e-06
1.71358e-06
1.18954e-06
1.54126e-06
1.48125e-06
2.2746e-06
3.41264e-06
1.17599e-06
1.49869e-06
1.50419e-06
3.53991e-06
3.84199e-06
5.18768e-06
1.55607e-06
1.66256e-06
2.026e-06
1.94429e-06
4.15161e-06
5.08547e-06
1.57364e-06
1.96773e-06
2.03315e-06
2.293e-06
1.59636e-06
1.92895e-06
1.98695e-06
4.10329e-06
5.5819e-06
1.61495e-06
1.96197e-06
1.98013e-06
5.14713e-06
5.68387e-06
7.25015e-06
2.19709e-06
2.08313e-06
2.57838e-06
2.58144e-06
5.29848e-06
7.13012e-06
2.19782e-06
2.38477e-06
2.57271e-06
2.74232e-06
2.11647e-06
2.56998e-06
2.6235e-06
5.68549e-06
7.28706e-06
2.13124e-06
2.74835e-06
2.5889e-06
7.35626e-06
7.50587e-06
9.1649e-06
2.70972e-06
2.77841e-06
3.25664e-06
3.32521e-06
7.64358e-06
9.62054e-06
2.71494e-06
2.84498e-06
3.25991e-06
3.2297e-06
2.86661e-06
3.31929e-06
3.26908e-06
7.84695e-06
9.2075e-06
2.82569e-06
3.1656e-06
3.2746e-06
9.5791e-06
9.72331e-06
1.21275e-05
3.47556e-06
3.48803e-06
4.20938e-06
4.15594e-06
1.00566e-05
1.1885e-05
3.48026e-06
3.40888e-06
4.2051e-06
4.18181e-06
3.36469e-06
4.14299e-06
4.30693e-06
9.57262e-06
1.19294e-05
3.36658e-06
4.29172e-06
4.27156e-06
1.17087e-05
1.26281e-05
1.42428e-05
4.44233e-06
4.39283e-06
5.03137e-06
5.0347e-06
1.23701e-05
1.42805e-05
4.43698e-06
4.4325e-06
5.0413e-06
5.05279e-06
4.58703e-06
5.01299e-06
4.84856e-06
1.25213e-05
1.43034e-05
4.5395e-06
5.0938e-06
4.80503e-06
1.37244e-05
1.46831e-05
1.67283e-05
5.27546e-06
5.30365e-06
6.22793e-06
6.33052e-06
1.48126e-05
1.70086e-05
5.28266e-06
5.32712e-06
6.23407e-06
6.22148e-06
4.95641e-06
6.30505e-06
6.65414e-06
1.47186e-05
1.67563e-05
4.93671e-06
6.21169e-06
6.74802e-06
1.74303e-05
1.72724e-05
1.91002e-05
6.51831e-06
6.65593e-06
7.43211e-06
7.38212e-06
1.75335e-05
1.9035e-05
6.53698e-06
6.49195e-06
7.42689e-06
7.49544e-06
7.16393e-06
7.35359e-06
7.56753e-06
1.73092e-05
1.91345e-05
7.19184e-06
7.51716e-06
7.47907e-06
1.93687e-05
1.95606e-05
2.10643e-05
7.78477e-06
7.63739e-06
8.68846e-06
8.59818e-06
1.93689e-05
2.07992e-05
7.7842e-06
7.83723e-06
8.68175e-06
8.68226e-06
7.61146e-06
8.55244e-06
8.70168e-06
1.95648e-05
2.08449e-05
7.51387e-06
8.50627e-06
8.55229e-06
2.08227e-05
2.14761e-05
2.29409e-05
9.0418e-06
8.98545e-06
1.02551e-05
1.03815e-05
2.13442e-05
2.32025e-05
9.03123e-06
8.98932e-06
1.02762e-05
1.013e-05
9.34491e-06
1.03466e-05
1.03902e-05
2.12939e-05
2.30746e-05
9.28443e-06
1.03522e-05
1.10903e-05
2.31282e-05
2.33541e-05
2.45892e-05
1.05462e-05
1.08249e-05
1.1706e-05
1.169e-05
2.3623e-05
2.45629e-05
1.05502e-05
1.05961e-05
1.16855e-05
1.19433e-05
1.05442e-05
1.16462e-05
1.08889e-05
2.34973e-05
2.4601e-05
1.12801e-05
1.17222e-05
1.13267e-05
2.36327e-05
2.49813e-05
2.62217e-05
1.21356e-05
1.19219e-05
1.33004e-05
1.32588e-05
2.48624e-05
2.60794e-05
1.21507e-05
1.22056e-05
1.33061e-05
1.31109e-05
1.12633e-05
1.31817e-05
1.38856e-05
2.49395e-05
2.59943e-05
1.13357e-05
1.29696e-05
1.23337e-05
2.67681e-05
2.65922e-05
2.76278e-05
1.36883e-05
1.37947e-05
1.52407e-05
1.51646e-05
2.65221e-05
2.77432e-05
1.3642e-05
1.37081e-05
1.52185e-05
1.51769e-05
1.47673e-05
1.51374e-05
1.59315e-05
2.63973e-05
2.78157e-05
1.37327e-05
1.53512e-05
1.65024e-05
2.81871e-05
2.79334e-05
2.88253e-05
1.57832e-05
1.55999e-05
1.64675e-05
1.6761e-05
2.80364e-05
2.87864e-05
1.57974e-05
1.54982e-05
1.65263e-05
1.69191e-05
1.60908e-05
1.67071e-05
1.6284e-05
2.81414e-05
2.89371e-05
1.67935e-05
1.69177e-05
1.69118e-05
2.84673e-05
2.91565e-05
3.04185e-05
1.67242e-05
1.7089e-05
1.88996e-05
1.84353e-05
2.90681e-05
3.02129e-05
1.67444e-05
1.73989e-05
1.88869e-05
1.84983e-05
1.64104e-05
1.8334e-05
1.85338e-05
2.91946e-05
2.99647e-05
1.69253e-05
1.81037e-05
1.82047e-05
3.01879e-05
3.07215e-05
3.12311e-05
1.95289e-05
1.90467e-05
2.03711e-05
2.08657e-05
3.06006e-05
3.15458e-05
1.94805e-05
1.87738e-05
2.03568e-05
2.03851e-05
1.94118e-05
2.08307e-05
2.05771e-05
3.03124e-05
3.17312e-05
1.9165e-05
2.03454e-05
2.04259e-05
3.14244e-05
3.14392e-05
3.24861e-05
2.06374e-05
2.11667e-05
2.17819e-05
2.17633e-05
3.17381e-05
3.22767e-05
2.06452e-05
2.11856e-05
2.18495e-05
2.27859e-05
2.07465e-05
2.1724e-05
2.22967e-05
3.20497e-05
3.26756e-05
2.0572e-05
2.32944e-05
2.24634e-05
3.26681e-05
3.28614e-05
3.39935e-05
2.23761e-05
2.2239e-05
2.44936e-05
2.43218e-05
3.25822e-05
3.39892e-05
2.24565e-05
2.29541e-05
2.44912e-05
2.33008e-05
2.30292e-05
2.42688e-05
2.42149e-05
3.28533e-05
3.35867e-05
2.33253e-05
2.38666e-05
2.43869e-05
3.39025e-05
3.42068e-05
3.46502e-05
2.49301e-05
2.49367e-05
2.56543e-05
2.56957e-05
3.42863e-05
3.47294e-05
2.49024e-05
2.37409e-05
2.55724e-05
2.64986e-05
2.44504e-05
2.56515e-05
2.58562e-05
3.38901e-05
3.52088e-05
2.44578e-05
2.61285e-05
2.56066e-05
3.46889e-05
3.48488e-05
3.59797e-05
2.59926e-05
2.5891e-05
2.74441e-05
2.75707e-05
3.48903e-05
3.58235e-05
2.59083e-05
2.70148e-05
2.75546e-05
2.74214e-05
2.64436e-05
2.756e-05
2.73136e-05
3.54466e-05
3.57629e-05
2.6132e-05
2.77378e-05
2.70149e-05
3.5618e-05
3.63139e-05
3.70383e-05
2.8008e-05
2.80551e-05
2.92736e-05
2.87984e-05
3.61332e-05
3.6863e-05
2.81727e-05
2.7496e-05
2.92687e-05
2.89572e-05
2.74257e-05
2.86915e-05
2.90804e-05
3.59094e-05
3.69805e-05
2.72823e-05
2.90855e-05
2.901e-05
3.70254e-05
3.71943e-05
3.80323e-05
2.95251e-05
2.93678e-05
3.06998e-05
3.1487e-05
3.71257e-05
3.85992e-05
2.94738e-05
2.9824e-05
3.08956e-05
3.11589e-05
3.00263e-05
3.15371e-05
3.15688e-05
3.73899e-05
3.84438e-05
2.99756e-05
3.13357e-05
3.21215e-05
3.88972e-05
3.83474e-05
3.92418e-05
3.12003e-05
3.17976e-05
3.24532e-05
3.2108e-05
3.88083e-05
3.89208e-05
3.14388e-05
3.12736e-05
3.23575e-05
3.24371e-05
3.16618e-05
3.21193e-05
3.23868e-05
3.85643e-05
3.8993e-05
3.24353e-05
3.24181e-05
3.26485e-05
3.91033e-05
3.94165e-05
4.00864e-05
3.28416e-05
3.24294e-05
3.39227e-05
3.37976e-05
3.90314e-05
4.00496e-05
3.26421e-05
3.29154e-05
3.40363e-05
3.36084e-05
3.28691e-05
3.37717e-05
3.35825e-05
3.92223e-05
3.99036e-05
3.26508e-05
3.35216e-05
3.30602e-05
3.96441e-05
4.02888e-05
4.08331e-05
3.41853e-05
3.40667e-05
3.47282e-05
3.48991e-05
4.02551e-05
4.08046e-05
3.44202e-05
3.38029e-05
3.48205e-05
3.50867e-05
3.36454e-05
3.47757e-05
3.42933e-05
4.00563e-05
4.11409e-05
3.3504e-05
3.5093e-05
3.48683e-05
4.06548e-05
4.10256e-05
4.23237e-05
3.51617e-05
3.53949e-05
3.70561e-05
3.70935e-05
4.1098e-05
4.25874e-05
3.50075e-05
3.57262e-05
3.67664e-05
3.72392e-05
3.481e-05
3.70851e-05
3.71384e-05
4.15133e-05
4.25651e-05
3.54674e-05
3.7256e-05
3.73569e-05
4.27312e-05
4.25639e-05
4.27107e-05
3.74568e-05
3.74201e-05
3.77739e-05
3.76588e-05
4.27777e-05
4.27865e-05
3.71908e-05
3.74447e-05
3.76074e-05
3.7561e-05
3.78179e-05
3.7765e-05
3.85509e-05
4.2647e-05
4.25286e-05
3.76791e-05
3.75169e-05
3.78311e-05
4.31946e-05
4.27714e-05
4.41264e-05
3.77946e-05
3.77219e-05
3.85991e-05
3.89888e-05
4.28278e-05
4.38655e-05
3.77158e-05
3.75863e-05
3.92834e-05
3.8737e-05
3.85514e-05
3.9083e-05
3.86241e-05
4.25729e-05
4.38433e-05
3.78331e-05
3.88336e-05
3.86711e-05
4.35232e-05
4.45804e-05
4.52154e-05
3.93914e-05
3.94699e-05
4.06978e-05
4.02024e-05
4.41928e-05
4.46793e-05
3.99905e-05
3.94632e-05
4.09002e-05
4.05293e-05
3.88939e-05
3.99424e-05
3.98813e-05
4.42632e-05
4.48074e-05
3.9188e-05
4.04067e-05
4.01452e-05
4.46586e-05
4.52067e-05
4.45771e-05
4.07488e-05
4.03899e-05
4.06857e-05
4.1134e-05
4.47621e-05
4.54908e-05
4.08978e-05
4.05817e-05
4.06031e-05
4.06579e-05
4.02906e-05
4.13186e-05
4.14699e-05
4.48153e-05
4.47797e-05
4.04299e-05
4.06034e-05
4.13205e-05
4.56312e-05
4.45963e-05
4.60793e-05
4.06957e-05
4.13742e-05
4.20531e-05
4.2006e-05
4.57162e-05
4.60548e-05
4.05881e-05
4.08223e-05
4.12463e-05
4.24868e-05
4.16637e-05
4.20382e-05
4.18956e-05
4.50834e-05
4.69935e-05
4.14908e-05
4.26866e-05
4.17924e-05
4.59114e-05
4.66462e-05
4.77447e-05
4.28393e-05
4.22364e-05
4.36246e-05
4.31333e-05
4.61355e-05
4.69475e-05
4.21801e-05
4.29984e-05
4.40778e-05
4.40607e-05
4.20798e-05
4.30214e-05
4.33976e-05
4.72324e-05
4.75318e-05
4.20602e-05
4.34091e-05
4.33209e-05
4.73331e-05
4.78298e-05
4.79173e-05
4.36957e-05
4.34752e-05
4.43481e-05
4.47617e-05
4.72585e-05
4.8418e-05
4.4431e-05
4.41496e-05
4.47019e-05
4.40633e-05
4.38883e-05
4.49024e-05
4.47201e-05
4.75617e-05
4.71212e-05
4.38051e-05
4.38398e-05
4.4639e-05
4.81172e-05
4.79265e-05
4.7601e-05
4.4479e-05
4.5016e-05
4.45591e-05
4.5071e-05
4.85339e-05
4.80913e-05
4.46735e-05
4.40213e-05
4.44568e-05
4.41986e-05
4.47427e-05
4.51199e-05
4.4624e-05
4.71229e-05
4.77313e-05
4.46638e-05
4.44534e-05
4.45946e-05
4.7578e-05
4.76493e-05
4.92739e-05
4.46103e-05
4.49547e-05
4.58146e-05
4.49265e-05
4.80424e-05
4.79928e-05
4.44695e-05
4.46817e-05
4.57113e-05
4.65494e-05
4.46178e-05
4.49167e-05
4.52633e-05
4.82062e-05
5.00306e-05
4.45971e-05
4.65198e-05
4.54345e-05
4.90148e-05
4.96697e-05
5.0205e-05
4.63555e-05
4.5123e-05
4.73341e-05
4.74898e-05
4.83457e-05
5.07376e-05
4.64011e-05
4.69005e-05
4.73989e-05
4.71163e-05
4.60668e-05
4.75716e-05
4.76744e-05
5.0167e-05
4.9741e-05
4.62448e-05
4.70922e-05
4.75765e-05
5.05833e-05
5.02116e-05
5.00197e-05
4.74267e-05
4.79468e-05
4.74859e-05
4.81504e-05
5.09727e-05
5.06755e-05
4.74585e-05
4.70915e-05
4.74749e-05
4.70734e-05
4.78237e-05
4.82159e-05
4.78205e-05
4.9704e-05
4.95916e-05
4.76597e-05
4.71101e-05
4.76471e-05
5.0173e-05
5.00954e-05
5.11312e-05
4.75453e-05
4.80439e-05
4.83382e-05
4.78164e-05
5.06058e-05
5.01299e-05
4.74919e-05
4.71291e-05
4.82907e-05
4.83737e-05
4.7778e-05
4.77554e-05
4.78177e-05
4.97939e-05
5.13359e-05
4.76443e-05
4.84874e-05
4.80053e-05
5.07126e-05
5.13463e-05
5.15793e-05
4.85308e-05
4.78441e-05
4.89537e-05
4.91273e-05
5.02382e-05
5.18789e-05
4.87411e-05
4.88502e-05
4.92912e-05
4.94631e-05
4.79877e-05
4.90293e-05
4.91412e-05
5.15776e-05
5.17242e-05
4.8432e-05
4.93468e-05
4.92615e-05
5.16809e-05
5.16332e-05
5.196e-05
4.92062e-05
4.96629e-05
4.99466e-05
5.02199e-05
5.21976e-05
5.23678e-05
4.93521e-05
4.94993e-05
4.95652e-05
4.95634e-05
4.94291e-05
5.01699e-05
4.97334e-05
5.17338e-05
5.18353e-05
4.93623e-05
4.95189e-05
4.94542e-05
5.177e-05
5.20532e-05
5.2511e-05
5.00378e-05
5.02213e-05
5.02857e-05
5.01966e-05
5.23485e-05
5.22387e-05
4.96344e-05
4.96473e-05
5.03194e-05
5.04762e-05
4.97695e-05
5.01931e-05
5.0338e-05
5.19822e-05
5.28089e-05
4.95124e-05
5.05492e-05
5.04842e-05
5.278e-05
5.26969e-05
5.31414e-05
5.04709e-05
5.02244e-05
5.10707e-05
5.11209e-05
5.23906e-05
5.34582e-05
5.06595e-05
5.07646e-05
5.12125e-05
5.10687e-05
5.07241e-05
5.13206e-05
5.15241e-05
5.29655e-05
5.29037e-05
5.09307e-05
5.10536e-05
5.14514e-05
5.35656e-05
5.31724e-05
5.34312e-05
5.11993e-05
5.1399e-05
5.1576e-05
5.15668e-05
5.35438e-05
5.31592e-05
5.12488e-05
5.10731e-05
5.14117e-05
5.11925e-05
5.15469e-05
5.15465e-05
5.13991e-05
5.28928e-05
5.31136e-05
5.144e-05
5.11109e-05
5.12432e-05
5.28992e-05
5.36398e-05
5.43797e-05
5.17604e-05
5.15701e-05
5.23319e-05
5.17212e-05
5.31538e-05
5.36193e-05
5.16696e-05
5.14721e-05
5.25774e-05
5.26848e-05
5.13803e-05
5.16385e-05
5.15914e-05
5.34077e-05
5.46753e-05
5.1246e-05
5.25693e-05
5.18664e-05
5.38757e-05
5.44224e-05
5.42592e-05
5.24661e-05
5.20153e-05
5.26984e-05
5.34755e-05
5.39569e-05
5.55303e-05
5.26799e-05
5.28505e-05
5.26652e-05
5.28944e-05
5.2037e-05
5.35317e-05
5.35982e-05
5.47627e-05
5.45319e-05
5.25236e-05
5.31117e-05
5.35986e-05
5.55587e-05
5.42711e-05
5.47174e-05
5.27751e-05
5.36269e-05
5.33023e-05
5.35555e-05
5.55982e-05
5.49082e-05
5.26512e-05
5.28628e-05
5.27847e-05
5.28682e-05
5.37284e-05
5.36251e-05
5.35725e-05
5.4525e-05
5.45466e-05
5.3628e-05
5.30459e-05
5.33131e-05
5.46699e-05
5.48819e-05
5.50728e-05
5.34295e-05
5.33147e-05
5.34582e-05
5.27991e-05
5.47387e-05
5.38437e-05
5.30745e-05
5.29562e-05
5.37061e-05
5.35736e-05
5.31921e-05
5.27148e-05
5.25201e-05
5.46497e-05
5.49482e-05
5.29241e-05
5.32475e-05
5.2477e-05
5.35118e-05
5.50819e-05
5.56161e-05
5.34448e-05
5.28022e-05
5.36601e-05
5.37805e-05
5.38682e-05
5.59669e-05
5.376e-05
5.36309e-05
5.42166e-05
5.3809e-05
5.25333e-05
5.38575e-05
5.40213e-05
5.49558e-05
5.51647e-05
5.25038e-05
5.35632e-05
5.41613e-05
5.638e-05
5.5957e-05
5.68318e-05
5.41555e-05
5.45516e-05
5.53097e-05
5.55159e-05
5.64715e-05
5.72248e-05
5.45614e-05
5.40829e-05
5.50972e-05
5.52986e-05
5.49901e-05
5.56038e-05
5.59118e-05
5.54453e-05
5.70921e-05
5.50378e-05
5.55253e-05
5.59003e-05
5.77657e-05
5.68244e-05
5.55696e-05
5.53374e-05
5.55122e-05
5.49159e-05
5.49627e-05
5.71356e-05
5.57296e-05
5.50906e-05
5.53707e-05
5.45178e-05
5.5022e-05
5.58622e-05
5.4804e-05
5.45459e-05
5.71383e-05
5.60846e-05
5.58578e-05
5.5227e-05
5.45812e-05
5.51565e-05
5.54274e-05
5.54079e-05
5.46371e-05
5.47504e-05
5.4441e-05
5.46287e-05
5.56489e-05
5.58643e-05
5.4296e-05
5.46311e-05
5.42345e-05
5.42671e-05
5.41937e-05
5.45206e-05
5.40588e-05
5.58487e-05
5.52174e-05
5.41871e-05
5.4271e-05
5.39858e-05
5.50781e-05
5.56901e-05
5.77035e-05
5.45146e-05
5.46866e-05
5.58857e-05
5.56029e-05
5.60772e-05
5.71245e-05
5.44151e-05
5.43144e-05
5.61969e-05
5.58126e-05
5.4216e-05
5.56907e-05
5.58881e-05
5.53239e-05
5.73483e-05
5.41125e-05
5.55695e-05
5.58422e-05
5.7556e-05
5.78376e-05
5.73397e-05
5.61977e-05
5.58597e-05
5.62896e-05
5.60607e-05
5.72063e-05
5.70493e-05
5.64396e-05
5.62777e-05
5.63984e-05
5.65235e-05
5.62333e-05
5.60486e-05
5.64605e-05
5.76299e-05
5.77023e-05
5.62549e-05
5.64893e-05
5.65367e-05
5.76599e-05
5.71736e-05
5.61959e-05
5.61507e-05
5.60513e-05
5.55251e-05
5.59316e-05
5.70393e-05
5.70025e-05
5.61323e-05
5.64481e-05
5.53809e-05
5.57245e-05
5.64395e-05
5.60108e-05
5.61797e-05
5.76115e-05
5.66667e-05
5.65102e-05
5.59153e-05
5.61428e-05
5.71509e-05
5.6196e-05
5.72254e-05
5.54941e-05
5.59247e-05
5.58524e-05
5.61341e-05
5.70744e-05
5.74423e-05
5.53497e-05
5.5623e-05
5.57175e-05
5.56728e-05
5.61374e-05
5.62902e-05
5.616e-05
5.66375e-05
5.69102e-05
5.6068e-05
5.58254e-05
5.60311e-05
5.72993e-05
5.76015e-05
5.86118e-05
5.6398e-05
5.62581e-05
5.71765e-05
5.63018e-05
5.74763e-05
5.70741e-05
5.63142e-05
5.58983e-05
5.73805e-05
5.70372e-05
5.62297e-05
5.62624e-05
5.61787e-05
5.71244e-05
5.81307e-05
5.60932e-05
5.67998e-05
5.61549e-05
5.70322e-05
5.86177e-05
5.75359e-05
5.71778e-05
5.62235e-05
5.66217e-05
5.60791e-05
5.69787e-05
5.66864e-05
5.74096e-05
5.71244e-05
5.69799e-05
5.69607e-05
5.59899e-05
5.57813e-05
5.54908e-05
5.81627e-05
5.76055e-05
5.60834e-05
5.66566e-05
5.58137e-05
5.6254e-05
5.7355e-05
5.69397e-05
5.63736e-05
5.61113e-05
5.62495e-05
5.70709e-05
5.67886e-05
5.83829e-05
5.65731e-05
5.664e-05
5.61004e-05
5.61856e-05
5.55021e-05
5.68115e-05
5.663e-05
5.74671e-05
5.70316e-05
5.58286e-05
5.62863e-05
5.68059e-05
5.81775e-05
5.7051e-05
5.87082e-05
5.6352e-05
5.75763e-05
5.77083e-05
5.86253e-05
5.87484e-05
6.01083e-05
5.61165e-05
5.61972e-05
5.70882e-05
5.70881e-05
5.73863e-05
5.87936e-05
5.89768e-05
5.70959e-05
5.86546e-05
5.73925e-05
5.75758e-05
5.85997e-05
6.02662e-05
5.89479e-05
5.90382e-05
5.79766e-05
5.8671e-05
5.8008e-05
5.82443e-05
6.01605e-05
5.91183e-05
5.75524e-05
5.76065e-05
5.78946e-05
5.80615e-05
5.91191e-05
5.86242e-05
5.88784e-05
5.89418e-05
5.93082e-05
5.86933e-05
5.81098e-05
5.8449e-05
5.94801e-05
5.88505e-05
5.68934e-05
5.78059e-05
5.75887e-05
5.61588e-05
5.54948e-05
5.87215e-05
5.59156e-05
5.7832e-05
5.80182e-05
5.66118e-05
5.67737e-05
5.83264e-05
5.56459e-05
5.58971e-05
5.91957e-05
5.71436e-05
5.79724e-05
5.65042e-05
5.60205e-05
5.63805e-05
5.66918e-05
5.65547e-05
5.57795e-05
5.50459e-05
5.55889e-05
5.48253e-05
5.56403e-05
5.53681e-05
5.61932e-05
5.6269e-05
5.58854e-05
5.5839e-05
5.5189e-05
5.46545e-05
5.45457e-05
5.68754e-05
5.646e-05
5.54425e-05
5.57117e-05
5.49481e-05
5.52099e-05
5.68037e-05
5.91474e-05
5.5717e-05
5.49883e-05
5.76421e-05
5.74445e-05
5.56739e-05
5.8895e-05
5.59551e-05
5.58981e-05
5.75219e-05
5.74883e-05
5.4611e-05
5.71498e-05
5.69381e-05
5.66749e-05
5.91873e-05
5.50192e-05
5.76055e-05
5.7221e-05
5.86945e-05
5.95111e-05
5.99923e-05
5.82666e-05
5.83273e-05
5.87774e-05
5.93372e-05
5.94559e-05
6.0907e-05
5.80883e-05
5.79872e-05
5.85107e-05
5.82442e-05
5.80743e-05
5.94756e-05
5.95553e-05
5.94866e-05
5.93839e-05
5.81944e-05
5.8354e-05
5.92429e-05
6.09827e-05
5.98344e-05
5.71776e-05
5.87075e-05
5.93098e-05
5.68663e-05
5.76039e-05
6.09e-05
5.82044e-05
5.84285e-05
5.80941e-05
5.67009e-05
5.64973e-05
5.95488e-05
5.80401e-05
5.79834e-05
5.90964e-05
5.68571e-05
5.92096e-05
5.64934e-05
5.73969e-05
5.80821e-05
5.68285e-05
5.62145e-05
5.6129e-05
5.65924e-05
5.54024e-05
5.50519e-05
5.76496e-05
5.56284e-05
5.61302e-05
5.62367e-05
5.5686e-05
5.62574e-05
5.6809e-05
5.50011e-05
5.49462e-05
5.67529e-05
5.7454e-05
5.64246e-05
5.61905e-05
5.52303e-05
5.55647e-05
5.64074e-05
5.88601e-05
5.54453e-05
5.50364e-05
5.70135e-05
5.60168e-05
5.56336e-05
5.74685e-05
5.57581e-05
5.65627e-05
5.7359e-05
5.79702e-05
5.4917e-05
5.56261e-05
5.60156e-05
5.78735e-05
5.98227e-05
5.52463e-05
5.80311e-05
5.68361e-05
5.81789e-05
5.92637e-05
5.98176e-05
5.7757e-05
5.69918e-05
5.83959e-05
5.84682e-05
5.80444e-05
5.99814e-05
5.7887e-05
5.80656e-05
5.81622e-05
5.7678e-05
5.71683e-05
5.83996e-05
5.85249e-05
5.9888e-05
5.84506e-05
5.7757e-05
5.78292e-05
5.84923e-05
6.02949e-05
5.96593e-05
5.63201e-05
5.83342e-05
5.84797e-05
5.62571e-05
5.72456e-05
6e-05
5.7749e-05
5.80233e-05
5.69725e-05
5.56147e-05
5.43817e-05
5.8499e-05
5.73636e-05
5.63924e-05
5.79086e-05
5.43772e-05
5.83911e-05
5.42892e-05
5.55721e-05
5.62033e-05
5.57747e-05
5.4703e-05
5.52275e-05
5.60293e-05
5.4043e-05
5.41625e-05
5.70903e-05
5.48522e-05
5.48163e-05
5.40684e-05
5.41466e-05
5.4168e-05
5.52078e-05
5.43098e-05
5.40189e-05
5.41926e-05
5.54448e-05
5.45815e-05
5.40083e-05
5.38224e-05
5.43583e-05
5.48211e-05
5.33019e-05
5.33407e-05
5.48779e-05
5.34592e-05
5.40145e-05
4.47343e-05
4.49824e-05
4.47818e-05
5.33122e-05
5.59987e-05
5.3252e-05
6.1361e-08
2.32712e-07
4.59362e-08
5.89209e-08
2.87797e-07
2.77364e-07
1.30463e-07
1.1914e-07
2.7097e-07
2.89746e-07
1.32254e-07
1.3911e-07
3.6998e-07
2.04708e-07
5.19071e-07
3.16152e-07
4.87259e-06
2.78661e-07
6.51024e-06
1.45927e-05
2.11325e-05
3.57415e-07
4.8112e-06
3.20475e-07
6.44675e-06
1.54033e-07
1.79289e-07
1.61122e-07
1.44918e-07
1.54537e-07
1.78926e-07
1.61538e-07
2.68177e-07
5.16727e-07
2.20688e-07
2.55843e-07
2.75627e-07
5.04557e-07
2.20073e-07
1.38395e-05
2.14134e-05
2.52502e-07
2.36756e-07
5.24276e-07
2.72955e-07
2.59146e-07
2.36358e-07
5.15097e-07
1.82871e-06
1.93067e-06
3.51902e-07
1.83167e-06
1.90671e-06
5.05975e-07
9.56011e-06
4.23139e-07
1.2285e-05
3.66049e-05
4.66034e-05
5.44927e-07
9.48913e-06
4.68981e-07
1.21416e-05
1.53772e-07
1.77587e-07
1.6069e-07
1.4129e-07
1.5175e-07
1.73085e-07