/*--------------------------------*- C++ -*----------------------------------*\
| =========                 |                                                 |
| \\      /  F ield         | OpenFOAM: The Open Source CFD Toolbox           |
|  \\    /   O peration     | Version:  v2012                                 |
|   \\  /    A nd           | Website:  www.openfoam.com                      |
|    \\/     M anipulation  |                                                 |
\*---------------------------------------------------------------------------*/
FoamFile
{
    version     2.0;
    format      ascii;
    class       volScalarField;
    location    "1250";
    object      nut;
}
// * * * * * * * * * * * * * * * * * * * * * * * * * * * * * * * * * * * * * //

dimensions      [0 2 -1 0 0 0 0];


internalField   nonuniform List<scalar> 
171728
(
1.55729e-06
1.79393e-06
1.54407e-06
2.28689e-06
1.58568e-06
1.78579e-06
1.56632e-06
2.23356e-06
1.58444e-06
1.78792e-06
1.60999e-06
2.20655e-06
1.58737e-06
1.78365e-06
1.6552e-06
2.16748e-06
1.59198e-06
1.77292e-06
1.70103e-06
2.11351e-06
1.5955e-06
1.75098e-06
1.7356e-06
2.05863e-06
1.59629e-06
1.71088e-06
1.7423e-06
1.99392e-06
1.59495e-06
1.66444e-06
1.73278e-06
1.92153e-06
1.59771e-06
1.60444e-06
1.7201e-06
1.84756e-06
1.59725e-06
1.53165e-06
1.70111e-06
1.78657e-06
1.59137e-06
1.452e-06
1.6705e-06
1.76338e-06
1.58353e-06
1.36257e-06
1.61621e-06
1.77037e-06
1.57361e-06
1.26605e-06
1.53659e-06
1.7819e-06
1.56083e-06
1.17637e-06
1.42756e-06
1.81063e-06
1.54818e-06
1.09165e-06
1.3164e-06
1.83116e-06
1.53882e-06
1.02097e-06
1.21649e-06
1.79596e-06
1.52804e-06
9.58028e-07
1.12573e-06
1.61728e-06
1.51356e-06
9.24424e-07
1.06647e-06
1.38428e-06
1.49635e-06
9.12022e-07
1.06465e-06
1.14399e-06
1.47394e-06
1.04603e-06
1.20865e-06
1.34117e-06
1.43756e-06
1.21488e-06
1.37757e-06
1.55837e-06
1.39063e-06
1.52183e-06
1.8802e-06
2.18841e-06
1.32223e-06
1.94714e-06
2.10755e-06
3.41132e-06
1.25032e-06
2.91978e-06
3.56609e-06
5.45261e-06
1.16711e-06
3.58078e-06
3.6854e-06
8.35363e-06
1.07745e-06
5.59331e-06
6.01181e-06
1.21733e-05
1.02052e-06
6.63547e-06
6.39843e-06
1.72686e-05
9.4507e-07
9.14232e-06
9.78697e-06
2.51722e-05
9.3858e-07
1.15154e-05
1.06935e-05
3.10285e-05
1.0257e-06
1.46987e-05
1.56806e-05
3.66792e-05
1.05276e-06
1.75144e-05
1.79405e-05
4.04362e-05
1.30887e-06
2.27568e-05
2.19079e-05
5.79823e-05
1.65115e-06
2.55181e-05
2.6624e-05
5.91018e-05
1.88703e-06
3.00208e-05
2.9636e-05
6.39246e-05
2.57113e-06
3.74122e-05
3.70541e-05
6.88458e-05
3.3728e-06
3.98135e-05
3.97505e-05
6.95686e-05
3.97779e-06
4.67565e-05
4.62729e-05
8.35283e-05
6.08617e-06
5.33042e-05
5.30843e-05
8.54734e-05
6.33068e-06
5.77728e-05
5.83647e-05
8.46013e-05
9.74945e-06
6.42035e-05
6.11668e-05
9.22876e-05
1.09992e-05
7.28164e-05
7.21588e-05
9.51622e-05
1.21409e-05
7.39446e-05
8.27674e-05
0.000100687
1.89049e-05
8.57996e-05
7.98662e-05
0.000103491
1.95096e-05
8.65856e-05
9.2141e-05
0.000106162
2.37155e-05
9.53128e-05
9.42148e-05
0.000108625
2.96982e-05
9.8518e-05
0.000102183
0.000115955
3.30824e-05
0.000110247
0.000107538
0.000122252
3.87966e-05
0.000108663
0.000111502
0.000120964
4.61696e-05
0.000115383
0.000113916
0.000122167
4.84966e-05
0.0001192
0.000122209
0.00012696
5.65484e-05
0.000129976
0.000130029
0.000136509
6.73525e-05
0.000128888
0.000127121
0.000135786
6.79135e-05
0.000136356
0.000136339
0.000137335
8.6572e-05
0.000137796
0.000139864
0.000141228
8.53629e-05
0.000144452
0.00014112
0.000145213
8.19308e-05
0.000145958
0.000150461
0.00014537
0.000105689
0.000152003
0.000152495
0.000152768
0.000113313
0.000159928
0.000152608
0.000154235
0.000110956
0.000157713
0.000157655
0.000150175
0.000112826
0.000156816
0.000167662
0.000159836
0.000131783
0.000173598
0.000167982
0.000165211
0.000136241
0.000172905
0.000166648
0.000161729
0.000137531
0.000169117
0.000176286
0.000164703
0.000145514
0.000179174
0.000178432
0.000168706
0.000151078
0.000182533
0.000178979
0.000168273
0.000155136
0.000181251
0.00018472
0.000174356
0.000162738
0.000188138
0.000185661
0.000176352
0.000168149
0.000188058
0.000186279
0.00017244
0.000174791
0.000189994
0.000196036
0.000179798
0.000178921
0.000200252
0.000196887
0.000185998
0.000183119
0.000197374
0.000194987
0.000179045
0.000189107
0.00019333
0.000196935
0.000174037
0.000194598
0.000205955
0.00020202
0.000193195
0.000202299
0.000211753
0.00021127
0.000196612
0.000203066
0.00020471
0.000205703
0.000180719
0.000202222
0.000204565
0.00020245
0.000182893
0.000213958
0.000213364
0.000214415
0.000196987
0.000217088
0.0002146
0.000216866
0.000196516
0.000216165
0.00021446
0.000212754
0.000193412
0.000221711
0.000215345
0.000213716
0.000193257
0.000230895
0.000213289
0.000219235
0.000190169
0.000229061
0.000212941
0.000217038
0.000187354
0.000227791
0.000226564
0.000217845
0.000202998
0.000238552
0.000237599
0.000229333
0.000214176
0.000242233
0.000229136
0.000229055
0.000204998
0.000233951
0.000207563
0.000216007
0.000185573
0.000231726
0.00020822
0.00021544
0.000183119
0.000245387
0.00023443
0.000232043
0.000208178
0.000254698
0.000243421
0.000233268
0.000217938
0.0002439
0.000224652
0.000221377
0.000196509
0.000238384
0.000212853
0.000225014
0.000186881
0.000250448
0.000226528
0.000236061
0.000206453
0.000257333
0.000238103
0.000226968
0.000213592
0.00024241
0.000222502
0.000207505
0.000186752
0.000240753
0.00021762
0.000221986
0.000189557
2.28505e-06
2.16891e-06
1.96348e-06
2.19091e-06
2.09803e-06
3.74318e-06
1.53866e-06
1.64906e-06
1.82028e-06
1.66502e-06
2.01238e-06
2.1603e-06
2.20547e-06
2.02542e-06
2.22564e-06
2.2927e-06
2.28354e-06
2.25786e-06
1.7388e-06
3.22969e-06
1.7514e-06
2.44046e-06
2.18803e-06
2.15168e-06
1.75487e-06
5.27968e-06
1.7422e-06
6.40231e-06
1.80311e-06
1.78445e-06
1.78955e-06
2.19948e-06
2.36116e-06
2.0286e-06
1.5573e-06
1.93983e-06
2.23626e-06
2.25642e-06
2.22764e-06
1.75609e-06
2.26041e-06
1.76532e-06
2.23026e-06
2.131e-06
2.09001e-06
1.74062e-06
6.57924e-06
1.73685e-06
6.32927e-06
1.78546e-06
1.788e-06
1.76639e-06
2.35674e-06
2.48433e-06
1.91881e-06
1.59906e-06
1.83352e-06
2.20814e-06
2.22616e-06
2.19457e-06
1.76409e-06
2.40793e-06
1.75163e-06
3.38021e-06
2.07434e-06
2.17617e-06
1.73535e-06
5.84628e-06
1.73237e-06
4.19498e-06
1.75786e-06
1.78592e-06
1.73088e-06
2.4483e-06
2.29229e-06
1.79859e-06
1.64382e-06
1.70452e-06
2.17026e-06
2.1925e-06
2.15276e-06
1.74395e-06
3.9485e-06
1.72052e-06
6.00594e-06
2.17356e-06
2.42494e-06
1.73035e-06
3.76622e-06
1.71566e-06
3.09578e-06
1.72158e-06
1.77664e-06
1.69397e-06
2.27941e-06
2.21828e-06
1.6777e-06
1.68996e-06
1.60803e-06
2.11635e-06
2.14829e-06
2.09403e-06
1.71103e-06
6.68054e-06
1.6872e-06
7.96122e-06
2.43005e-06
2.63551e-06
1.70711e-06
3.10041e-06
1.67586e-06
3.50459e-06
1.68571e-06
1.75815e-06
1.66184e-06
2.21584e-06
2.22805e-06
1.58851e-06
1.72848e-06
1.52842e-06
2.06156e-06
2.08781e-06
2.03728e-06
1.67978e-06
8.12902e-06
1.66209e-06
6.30852e-06
2.62709e-06
2.52098e-06
1.66423e-06
3.6529e-06
1.62898e-06
3.90751e-06
1.65461e-06
1.72147e-06
1.63129e-06
2.22686e-06
2.23303e-06
1.5065e-06
1.74381e-06
1.4478e-06
1.99764e-06
2.03114e-06
1.98612e-06
1.65575e-06
5.28029e-06
1.63728e-06
3.17018e-06
2.46269e-06
2.0912e-06
1.61618e-06
3.79644e-06
1.57658e-06
3.25315e-06
1.62351e-06
1.67618e-06
1.59371e-06
2.22555e-06
2.1673e-06
1.42817e-06
1.73435e-06
1.3574e-06
1.926e-06
1.98053e-06
1.93437e-06
1.62802e-06
2.7313e-06
1.59379e-06
2.00791e-06
2.06899e-06
1.96704e-06
1.56116e-06
2.99643e-06
1.51311e-06
2.18433e-06
1.58043e-06
1.62088e-06
1.53712e-06
2.15703e-06
2.05259e-06
1.33197e-06
1.72315e-06
1.28774e-06
1.85209e-06
1.92985e-06
1.87426e-06
1.57847e-06
1.93472e-06
1.52615e-06
1.74267e-06
1.95771e-06
1.85611e-06
1.49495e-06
1.96779e-06
1.44526e-06
1.52867e-06
1.52056e-06
1.54907e-06
1.47085e-06
2.03711e-06
1.88282e-06
1.28728e-06
1.70774e-06
1.3021e-06
1.79086e-06
1.86926e-06
1.79129e-06
1.50557e-06
1.6549e-06
1.44127e-06
1.42657e-06
1.84707e-06
1.77964e-06
1.42815e-06
1.43706e-06
1.37679e-06
1.25848e-06
1.45343e-06
1.47066e-06
1.40464e-06
1.87142e-06
1.77036e-06
1.31412e-06
1.6794e-06
1.41365e-06
1.76425e-06
1.7847e-06
1.69503e-06
1.419e-06
1.37436e-06
1.35132e-06
1.28413e-06
1.77381e-06
1.6916e-06
1.35951e-06
1.2153e-06
1.29938e-06
1.10102e-06
1.38984e-06
1.38442e-06
1.33841e-06
1.7613e-06
1.66256e-06
1.46553e-06
1.63113e-06
1.64168e-06
1.77326e-06
1.68537e-06
1.58543e-06
1.32909e-06
1.26814e-06
1.25803e-06
1.21443e-06
1.68185e-06
1.59255e-06
1.27735e-06
1.06505e-06
1.20745e-06
9.67466e-07
1.31948e-06
1.28604e-06
1.2564e-06
1.65177e-06
1.5497e-06
1.70374e-06
1.55712e-06
1.93719e-06
1.78452e-06
1.57232e-06
1.46811e-06
1.23103e-06
1.19347e-06
1.15447e-06
1.12733e-06
1.57905e-06
1.48448e-06
1.18337e-06
9.38634e-07
1.1122e-06
8.69973e-07
1.2324e-06
1.19503e-06
1.16166e-06
1.53641e-06
1.426e-06
2.03235e-06
1.45493e-06
2.34963e-06
1.81269e-06
1.45211e-06
1.34694e-06
1.13353e-06
1.10425e-06
1.06602e-06
1.03034e-06
1.46709e-06
1.36652e-06
1.08941e-06
8.53396e-07
1.01773e-06
8.00983e-07
1.13731e-06
1.10769e-06
1.06653e-06
1.40913e-06
1.30471e-06
2.46644e-06
1.34168e-06
2.83581e-06
1.83882e-06
1.32691e-06
1.24628e-06
1.04562e-06
1.00461e-06
9.9843e-07
9.34501e-07
1.34805e-06
1.25038e-06
9.95541e-07
7.859e-07
9.48056e-07
7.49382e-07
1.04357e-06
1.03136e-06
9.75601e-07
1.28442e-06
1.19183e-06
2.96516e-06
1.23663e-06
3.27245e-06
1.81881e-06
1.21857e-06
1.14765e-06
9.77911e-07
9.19712e-07
9.30223e-07
8.72254e-07
1.23106e-06
1.13766e-06
9.26463e-07
7.43829e-07
8.80944e-07
7.18117e-07
9.58165e-07
9.67136e-07
9.03153e-07
1.1722e-06
1.08103e-06
3.3365e-06
1.14744e-06
3.29627e-06
1.67408e-06
1.13465e-06
1.05793e-06
9.25662e-07
8.66165e-07
8.8816e-07
8.32914e-07
1.11611e-06
1.07179e-06
8.7703e-07
7.01232e-07
8.3826e-07
7.25284e-07
8.82911e-07
9.16863e-07
8.80545e-07
1.05961e-06
1.01972e-06
3.20316e-06
1.0906e-06
2.53374e-06
1.4459e-06
1.0464e-06
1.12452e-06
8.92163e-07
8.46384e-07
9.45586e-07
8.75229e-07
1.07316e-06
1.0714e-06
8.4358e-07
7.63666e-07
8.862e-07
8.33104e-07
8.70053e-07
9.2872e-07
8.4539e-07
1.01162e-06
1.05631e-06
2.2609e-06
1.07185e-06
1.56733e-06
1.13879e-06
1.1118e-06
1.12652e-06
9.44171e-07
8.65469e-07
9.80311e-07
9.77835e-07
1.05093e-06
1.22476e-06
8.84518e-07
9.11334e-07
9.42214e-07
1.27434e-06
8.74372e-07
1.00005e-06
9.72235e-07
1.08436e-06
1.24843e-06
1.46692e-06
1.16883e-06
1.31586e-06
1.29926e-06
1.19381e-06
1.48074e-06
1.03761e-06
1.02527e-06
1.16159e-06
1.11606e-06
1.28681e-06
1.435e-06
1.00694e-06
1.39221e-06
1.09612e-06
2.19228e-06
1.00848e-06
1.14398e-06
1.13062e-06
1.35458e-06
1.71173e-06
1.31164e-06
1.31666e-06
1.28287e-06
1.48135e-06
1.51178e-06
2.12882e-06
1.2154e-06
1.19102e-06
1.42126e-06
1.43229e-06
1.52363e-06
2.24188e-06
1.16026e-06
2.54257e-06
1.40404e-06
3.4709e-06
1.1899e-06
1.44316e-06
1.42624e-06
1.84735e-06
2.74545e-06
1.30383e-06
1.67572e-06
1.45736e-06
2.0294e-06
2.26908e-06
3.25435e-06
1.52176e-06
1.51505e-06
1.92841e-06
1.83178e-06
2.35328e-06
2.92205e-06
1.48969e-06
3.78087e-06
1.91587e-06
4.41162e-06
1.53047e-06
1.83172e-06
1.86235e-06
3.092e-06
4.09272e-06
1.51792e-06
2.08961e-06
1.92826e-06
3.13547e-06
3.53899e-06
4.63699e-06
2.00885e-06
1.93937e-06
2.62679e-06
2.67005e-06
3.18078e-06
5.29648e-06
1.98507e-06
4.6426e-06
2.54748e-06
5.52699e-06
2.01473e-06
2.69407e-06
2.58191e-06
3.99714e-06
7.33814e-06
2.03956e-06
2.98107e-06
2.63675e-06
5.00914e-06
5.09905e-06
8.04126e-06
2.76435e-06
2.89529e-06
3.66951e-06
3.3788e-06
5.92675e-06
6.94136e-06
2.70209e-06
5.50266e-06
3.62311e-06
4.64597e-06
2.79435e-06
3.36637e-06
3.59445e-06
8.76168e-06
7.39156e-06
2.87076e-06
3.86662e-06
3.53807e-06
7.77917e-06
9.01926e-06
1.21837e-05
4.16492e-06
3.6087e-06
4.7134e-06
5.11157e-06
7.32215e-06
1.24101e-05
4.09351e-06
4.38634e-06
4.76659e-06
6.09281e-06
3.81978e-06
5.14764e-06
4.77369e-06
6.84839e-06
1.02598e-05
3.7541e-06
4.82628e-06
4.92603e-06
1.11931e-05
1.23247e-05
1.63597e-05
4.92603e-06
5.56233e-06
6.69513e-06
6.22545e-06
1.38978e-05
1.59656e-05
5.02883e-06
7.46151e-06
6.74289e-06
8.40625e-06
5.17833e-06
6.17222e-06
6.42126e-06
1.34675e-05
1.89982e-05
5.29761e-06
6.29144e-06
6.39071e-06
1.62637e-05
1.82421e-05
2.31619e-05
7.35771e-06
6.67626e-06
8.46621e-06
8.43596e-06
1.61967e-05
2.22009e-05
7.3679e-06
8.54432e-06
8.43235e-06
9.47298e-06
6.80811e-06
8.41931e-06
8.76321e-06
1.85133e-05
2.3204e-05
6.87559e-06
9.46851e-06
8.55465e-06
2.36192e-05
2.34749e-05
2.77838e-05
8.81307e-06
9.17556e-06
1.0608e-05
1.10025e-05
2.39615e-05
3.02736e-05
8.84439e-06
9.63553e-06
1.06335e-05
1.04476e-05
9.81769e-06
1.1031e-05
1.05308e-05
2.5323e-05
2.81612e-05
9.57069e-06
1.00586e-05
1.05075e-05
2.99595e-05
2.95903e-05
3.77237e-05
1.13927e-05
1.14508e-05
1.41842e-05
1.38416e-05
3.1432e-05
3.63903e-05
1.14274e-05
1.0999e-05
1.41632e-05
1.39631e-05
1.04809e-05
1.385e-05
1.47683e-05
2.88858e-05
3.66107e-05
1.04675e-05
1.4664e-05
1.45062e-05
3.51887e-05
3.91852e-05
4.29088e-05
1.50017e-05
1.47043e-05
1.66339e-05
1.66519e-05
3.77791e-05
4.31395e-05
1.4978e-05
1.48791e-05
1.6701e-05
1.67475e-05
1.60058e-05
1.66163e-05
1.55121e-05
3.85788e-05
4.33464e-05
1.56476e-05
1.7089e-05
1.5186e-05
4.03531e-05
4.39633e-05
5.01774e-05
1.74207e-05
1.75644e-05
2.10052e-05
2.15709e-05
4.46686e-05
5.16234e-05
1.74732e-05
1.77415e-05
2.10509e-05
2.09723e-05
1.53719e-05
2.15169e-05
2.35252e-05
4.42802e-05
5.03868e-05
1.51677e-05
2.08965e-05
2.37791e-05
5.38701e-05
5.18645e-05
5.73733e-05
2.20148e-05
2.27881e-05
2.51861e-05
2.4865e-05
5.31956e-05
5.70877e-05
2.214e-05
2.18133e-05
2.51694e-05
2.54407e-05
2.6192e-05
2.48136e-05
2.64092e-05
5.20887e-05
5.75646e-05
2.59387e-05
2.57482e-05
2.58111e-05
5.98628e-05
5.86348e-05
6.27813e-05
2.64792e-05
2.55961e-05
2.92925e-05
2.87055e-05
5.77057e-05
6.1337e-05
2.64877e-05
2.67151e-05
2.92619e-05
2.92771e-05
2.56892e-05
2.85731e-05
2.89609e-05
5.8707e-05
6.16445e-05
2.52297e-05
2.82245e-05
2.81961e-05
6.104e-05
6.38587e-05
6.82327e-05
3.05137e-05
3.00731e-05
3.49899e-05
3.57022e-05
6.30905e-05
6.96465e-05
3.04746e-05
3.01679e-05
3.51549e-05
3.40741e-05
3.18856e-05
3.5626e-05
3.55505e-05
6.28783e-05
6.88872e-05
3.14806e-05
3.54155e-05
3.96077e-05
6.92406e-05
6.94109e-05
7.31396e-05
3.57249e-05
3.74709e-05
3.98582e-05
3.96878e-05
7.08894e-05
7.30248e-05
3.57706e-05
3.59517e-05
3.97194e-05
4.11984e-05
3.56145e-05
3.95788e-05
3.48611e-05
7.01304e-05
7.31108e-05
3.9855e-05
3.98307e-05
3.74978e-05
6.80539e-05
7.42664e-05
7.81203e-05
4.14917e-05
4.0017e-05
4.50327e-05
4.48022e-05
7.36579e-05
7.74098e-05
4.1591e-05
4.16869e-05
4.51023e-05
4.38459e-05
3.60304e-05
4.44761e-05
4.85085e-05
7.39679e-05
7.70135e-05
3.65872e-05
4.29501e-05
3.87947e-05
8.10712e-05
7.9229e-05
8.26647e-05
4.61652e-05
4.69099e-05
5.24224e-05
5.17325e-05
7.88659e-05
8.31414e-05
4.59011e-05
4.64377e-05
5.2285e-05
5.19192e-05
5.2899e-05
5.1704e-05
5.6818e-05
7.82649e-05
8.33483e-05
4.60406e-05
5.28388e-05
6.05226e-05
8.58436e-05
8.35034e-05
8.5972e-05
5.47555e-05
5.32681e-05
5.52847e-05
5.70818e-05
8.39402e-05
8.59416e-05
5.48407e-05
5.25072e-05
5.56401e-05
5.75787e-05
5.66626e-05
5.69149e-05
5.3971e-05
8.42553e-05
8.66352e-05
6.12889e-05
5.70894e-05
5.79026e-05
8.39996e-05
8.69316e-05
9.18433e-05
5.54688e-05
5.78562e-05
6.49075e-05
6.20147e-05
8.6645e-05
9.06653e-05
5.55821e-05
5.95169e-05
6.48105e-05
6.29057e-05
5.33554e-05
6.15504e-05
6.24326e-05
8.73252e-05
8.94062e-05
5.64998e-05
6.00536e-05
6.03594e-05
9.04718e-05
9.27963e-05
9.38098e-05
6.7623e-05
6.44584e-05
6.92923e-05
7.22747e-05
9.20442e-05
9.55698e-05
6.73107e-05
6.31671e-05
6.91933e-05
6.85797e-05
6.68143e-05
7.22194e-05
7.0379e-05
9.04598e-05
9.63076e-05
6.52968e-05
6.81331e-05
6.95652e-05
9.48236e-05
9.4222e-05
9.79699e-05
6.96791e-05
7.2989e-05
7.26823e-05
7.26076e-05
9.59369e-05
9.69134e-05
6.97051e-05
7.23508e-05
7.29933e-05
7.9203e-05
7.00225e-05
7.24967e-05
7.57793e-05
9.74375e-05
9.93294e-05
6.90392e-05
8.20049e-05
7.68385e-05
9.90639e-05
9.9338e-05
0.000104019
7.49923e-05
7.41333e-05
8.44619e-05
8.33589e-05
9.7852e-05
0.000103922
7.53746e-05
7.90406e-05
8.43913e-05
7.69939e-05
7.92336e-05
8.31958e-05
8.27074e-05
9.95887e-05
0.000101559
8.11379e-05
8.04914e-05
8.38027e-05
0.000103406
0.000104573
0.000105257
8.60233e-05
8.60106e-05
8.67955e-05
8.66345e-05
0.000104933
0.000105575
8.58068e-05
7.8145e-05
8.61355e-05
9.16376e-05
8.26206e-05
8.6431e-05
8.73583e-05
0.000102528
0.000108292
8.26336e-05
8.90927e-05
8.54112e-05
0.000105168
0.000105658
0.000110158
8.75672e-05
8.65275e-05
9.27106e-05
9.36634e-05
0.000105807
0.000109437
8.6861e-05
9.38874e-05
9.3382e-05
9.28246e-05
8.99983e-05
9.37323e-05
9.20263e-05
0.00010904
0.000109149
8.75922e-05
9.48332e-05
9.00147e-05
0.000108251
0.000111433
0.000113965
9.50398e-05
9.55944e-05
9.95547e-05
9.64326e-05
0.000110576
0.000112889
9.61415e-05
9.1934e-05
9.94492e-05
9.73179e-05
9.1429e-05
9.58458e-05
9.81395e-05
0.000109295
0.00011351
9.06124e-05
9.82523e-05
9.79333e-05
0.000113805
0.000114228
0.000117237
9.9993e-05
9.8771e-05
0.000103993
0.000108927
0.000113709
0.000120456
9.94847e-05
0.000101752
0.000105171
0.00010683
0.000103154
0.000109377
0.000109972
0.000115218
0.000119525
0.000102844
0.000108044
0.000113181
0.000122287
0.000118408
0.000121784
0.000105995
0.000109764
0.000110218
0.000108041
0.000121055
0.000119923
0.000107599
0.00010619
0.000109795
0.000109826
0.000109271
0.000108186
0.000109613
0.000119562
0.000120305
0.000114013
0.000109883
0.000111641
0.000120868
0.000122189
0.000124571
0.00011157
0.000108925
0.000115914
0.000114913
0.000119933
0.000124268
0.000110397
0.000111971
0.00011644
0.000113944
0.00011142
0.000114748
0.000113134
0.000121075
0.000123606
0.000110538
0.000113531
0.000110314
0.000121902
0.00012518
0.000126438
0.000116771
0.000115755
0.000116968
0.000117852
0.000124928
0.00012637
0.000118018
0.000114199
0.000117222
0.000118896
0.000112738
0.000117055
0.000114125
0.0001239
0.000128267
0.000112229
0.00011902
0.000117795
0.000125529
0.000126874
0.000132923
0.000118464
0.000119917
0.000127657
0.000128255
0.000127411
0.000134556
0.000117188
0.000121857
0.000125594
0.000129049
0.000116381
0.000128313
0.000128439
0.000129803
0.000134539
0.000120554
0.000129497
0.000130096
0.000135274
0.000133923
0.000133805
0.000129682
0.000129629
0.000130047
0.00012869
0.000135177
0.000133847
0.000127801
0.000129734
0.00012902
0.000128201
0.000132003
0.000129269
0.000134304
0.000134543
0.000132487
0.000131402
0.000128023
0.000129901
0.000136197
0.000133602
0.000139352
0.000129322
0.000128222
0.000131147
0.000133922
0.000133538
0.000138105
0.000128943
0.000127382
0.000135823
0.000131601
0.000133545
0.000134548
0.000131808
0.000132138
0.000137568
0.00012912
0.000132519
0.000132156
0.000136158
0.0001414
0.000143988
0.00013533
0.000136347
0.00014204
0.000138935
0.00013953
0.000141048
0.000139393
0.000135466
0.000143026
0.000140556
0.000132736
0.000137285
0.000136518
0.000139506
0.000141699
0.000134725
0.000140349
0.000138428
0.000140758
0.000143557
0.000138881
0.000141824
0.00013936
0.000139387
0.000141881
0.00014098
0.000143813
0.000142391
0.000140362
0.000138763
0.000139336
0.000138332
0.000142869
0.000144091
0.000141364
0.000140092
0.000139449
0.000138984
0.000143259
0.000144831
0.000138541
0.000145865
0.000138777
0.000142788
0.000145681
0.000145491
0.000144706
0.000145963
0.000138172
0.000139812
0.000140672
0.000148629
0.000144922
0.000145727
0.000145086
0.000141352
0.000151235
0.000143913
0.000150105
0.000144504
0.000145161
0.000148716
0.000153911
0.000150318
0.000146647
0.000153547
0.000150788
0.000146065
0.000149584
0.00014607
0.000151209
0.00015635
0.000156068
0.000145627
0.000149985
0.000151873
0.000152089
0.000152597
0.000145593
0.000151798
0.000151374
0.000151428
0.00015391
0.000153567
0.000153258
0.000152158
0.000155818
0.000158136
0.000150808
0.000156165
0.000157967
0.000156091
0.000158127
0.000154302
0.000154324
0.000159012
0.000157978
0.000152397
0.000149275
0.000153761
0.000152785
0.000157511
0.000154563
0.000153315
0.000150604
0.000156291
0.000159244
0.000155491
0.000158604
0.000156452
0.000153451
0.000157612
0.000153664
0.000154985
0.000153207
0.00015772
0.000158958
0.00015588
0.00014896
0.000151247
0.000157306
0.000154759
0.00015589
0.000150498
0.000150374
0.00015864
0.000155243
0.000157609
0.000161364
0.000156301
0.000152925
0.000151622
0.000154462
0.000155655
0.000160468
0.000166177
0.000155388
0.000156342
0.00015787
0.000153463
0.000163173
0.000155371
0.000165985
0.000158769
0.000157128
0.000160597
0.000163282
0.000164521
0.000156783
0.000169999
0.000170376
0.000153091
0.000165995
0.000164544
0.000168057
0.000170266
0.000168437
0.000162657
0.000170991
0.000172059
0.000163623
0.00016061
0.000163604
0.000168375
0.000171424
0.00016545
0.000162998
0.000161011
0.000170177
0.000172987
0.000169027
0.000173458
0.000167031
0.000164915
0.000170358
0.000167919
0.000169243
0.00016645
0.000172643
0.000173934
0.000171498
0.000160084
0.000158399
0.000171679
0.000166666
0.00017057
0.000162053
0.000161011
0.000166348
0.000168947
0.000172564
0.000173117
0.000170077
0.000164273
0.000160636
0.000168863
0.000166294
0.000172636
0.000173099
0.000170829
0.000169625
0.00016959
0.000159107
0.000167468
0.000170089
0.00017391
0.00017069
0.000163757
0.000167278
0.000168029
0.000174039
0.000169671
0.000175624
0.000176458
0.000160748
0.000169465
0.00017523
0.000175937
0.000177902
0.000179292
0.000170127
0.000175681
0.000176522
0.000168593
0.000169051
0.000173008
0.000178537
0.000177514
0.000168455
0.000167998
0.00016928
0.000176925
0.000179716
0.000180898
0.000182912
0.000171067
0.000171955
0.000178053
0.000179295
0.00017844
0.000178496
0.000178213
0.000182586
0.000179805
0.000168793
0.000168567
0.000177994
0.000178264
0.000178141
0.000168462
0.000169448
0.000171436
0.000181164
0.000182818
0.000181738
0.000181489
0.000171587
0.000169938
0.000178423
0.000178491
0.000181731
0.000182682
0.000179855
0.000181531
0.00018222
0.000168977
0.000173065
0.000178182
0.000183237
0.000182947
0.000172939
0.000172233
0.000174685
0.000182701
0.000181019
0.000186109
0.000185616
0.000170289
0.000175902
0.000183783
0.000184382
0.000187252
0.000186075
0.000184251
0.000186958
0.000188501
0.000173707
0.000173199
0.000185461
0.000185826
0.000188135
0.000176734
0.000174565
0.000175348
0.000186722
0.000187332
0.000188276
0.000188375
0.000176184
0.000174053
0.000187363
0.000186009
0.000187345
0.000185828
0.000188465
0.000188232
0.000187282
0.000172886
0.000173447
0.000187956
0.000185317
0.000186479
0.000172606
0.000176215
0.000180385
0.000189219
0.00018837
0.000192634
0.000189024
0.00017384
0.000176112
0.000188632
0.000187256
0.000194047
0.000194766
0.000187132
0.000188554
0.000188256
0.000174795
0.000182155
0.000186418
0.000194172
0.00019014
0.000177744
0.000180398
0.000178958
0.000193516
0.000190658
0.000194345
0.000199164
0.000177682
0.00018618
0.000194656
0.000195818
0.000194022
0.000195805
0.000191009
0.000199491
0.000199836
0.000182461
0.000180777
0.000194252
0.000197349
0.000199929
0.000186214
0.000178631
0.00018076
0.000194393
0.000199808
0.00019701
0.000198844
0.000186203
0.000182072
0.00019363
0.000195248
0.000193732
0.00019407
0.00020018
0.000199302
0.000198748
0.000180348
0.000179567
0.000199645
0.000195155
0.000197095
0.000180592
0.000181555
0.000183161
0.000197836
0.000197164
0.000198238
0.000193712
0.000180861
0.00017573
0.000195636
0.000194426
0.0002002
0.00019887
0.000196215
0.000193339
0.000192218
0.000179894
0.000182169
0.000194467
0.00019653
0.000191926
0.000174065
0.000183042
0.000185661
0.000198181
0.000193697
0.000199338
0.000199783
0.000175529
0.000187425
0.000200609
0.000199458
0.000203353
0.000200664
0.000192281
0.000200318
0.000201654
0.000182081
0.000183154
0.00019209
0.000198913
0.000202861
0.000190108
0.000187262
0.000192096
0.000202351
0.000204916
0.000209408
0.000211235
0.000190136
0.000194916
0.000205189
0.000202255
0.000207767
0.000209253
0.000207974
0.000211883
0.00021367
0.000184367
0.000193613
0.000208549
0.000211001
0.000213602
0.000197971
0.00019185
0.000184804
0.000209534
0.000211174
0.000206809
0.000207275
0.000194187
0.000185763
0.000207704
0.000209541
0.000204095
0.000207316
0.000213327
0.000206288
0.000204166
0.000193623
0.000187697
0.000213284
0.000208759
0.000204367
0.000182146
0.000183754
0.000183521
0.000205025
0.000205751
0.000203732
0.000204755
0.000185046
0.000185982
0.000202771
0.000204771
0.00020239
0.000202439
0.000201723
0.000203948
0.00020066
0.000186047
0.000182312
0.000201677
0.000202337
0.000200222
0.000181144
0.000184833
0.000196604
0.000204145
0.00020504
0.00021288
0.000211159
0.000186969
0.000193409
0.000203507
0.000202681
0.000215161
0.000212612
0.000201617
0.000211832
0.000213218
0.00018259
0.000194569
0.000200984
0.000210831
0.00021295
0.000196012
0.000197091
0.000194189
0.000214797
0.000212936
0.000215319
0.00021442
0.000193728
0.000193056
0.000216585
0.000215699
0.000216069
0.000217134
0.000215702
0.000214561
0.000217546
0.000196013
0.000196566
0.000215872
0.000217057
0.000218035
0.000196959
0.00019297
0.000187632
0.00021445
0.000214415
0.000210745
0.000213599
0.000192815
0.000192471
0.000214236
0.000216634
0.000209626
0.000211875
0.000217573
0.000214452
0.000215902
0.00019581
0.0001904
0.000217959
0.000213357
0.00021542
0.00019377
0.000187463
0.000193604
0.00021061
0.000213452
0.000212954
0.000214101
0.000192575
0.000194229
0.000209646
0.000211386
0.000212302
0.000211889
0.00021554
0.000215352
0.000214292
0.000190048
0.000191709
0.00021481
0.000212817
0.000213435
0.000193311
0.000195568
0.000201632
0.000216578
0.000214754
0.000221632
0.000214943
0.000194106
0.000191635
0.000216502
0.00021344
0.000223498
0.000220865
0.000214348
0.000214503
0.000213594
0.000192689
0.000198525
0.000213542
0.000218872
0.000213766
0.000191213
0.000201446
0.000195447
0.000221665
0.000214453
0.000218319
0.0002147
0.000190862
0.000190136
0.000223631
0.000221313
0.000220797
0.000220306
0.000212303
0.000212182
0.000209926
0.000198449
0.000195532
0.000213328
0.000218172
0.000212448
0.000187251
0.000194154
0.000192416
0.000216992
0.000215484
0.000217192
0.000223793
0.000190695
0.000201906
0.00021815
0.000218283
0.000215834
0.000216347
0.00021058
0.000221783
0.000220171
0.00019452
0.000192886
0.000212999
0.000217228
0.000221234
0.000200199
0.000192919
0.000203158
0.000217994
0.00022775
0.000227949
0.000235668
0.000204132
0.000212955
0.000216114
0.000216715
0.00022322
0.00022328
0.000226192
0.000237127
0.000238675
0.000193131
0.000202864
0.000225924
0.000226951
0.000235391
0.000214113
0.000204286
0.000204569
0.000229619
0.000235508
0.000229054
0.00023094
0.000212826
0.000205342
0.000226479
0.000226927
0.000228301
0.000229469
0.00023959
0.000233833
0.000235764
0.00020427
0.000206198
0.000235955
0.000229785
0.000232413
0.000207553
0.000203138
0.000191612
0.000227534
0.000225848
0.000215836
0.000210596
0.000202468
0.000185161
0.000227842
0.00022917
0.000219354
0.000220805
0.000231249
0.000211598
0.00021327
0.000205275
0.000193552
0.000228604
0.000218798
0.000214289
0.000187972
0.000190205
0.000190575
0.000213533
0.000207648
0.000213934
0.000208236
0.000183284
0.000183063
0.00021676
0.000217658
0.000216154
0.000215685
0.000208384
0.00020684
0.000206243
0.000191725
0.000189977
0.00021051
0.000214781
0.000209303
0.000182352
0.000192013
0.00020696
0.000215217
0.000209917
0.000229823
0.000228877
0.000184898
0.000205833
0.000216918
0.000216124
0.000228651
0.000227452
0.000207345
0.000226829
0.000225229
0.000190973
0.000206345
0.000210344
0.000228425
0.000226986
0.000204497
0.000208905
0.000211865
0.000234435
0.000235608
0.000237535
0.000242425
0.000209131
0.000218221
0.000232756
0.000231066
0.000235525
0.000233327
0.000233825
0.000243901
0.000244013
0.000207909
0.000208052
0.000234296
0.000234168
0.000241186
0.000218288
0.000210633
0.000194955
0.000237025
0.000242012
0.000223945
0.000229416
0.000217873
0.000201141
0.000234993
0.000232548
0.000223173
0.000222874
0.000243658
0.000232721
0.000232169
0.00020603
0.000193998
0.000240905
0.000222773
0.000227942
0.000200416
0.000192596
0.00019046
0.00021901
0.000222002
0.000216091
0.000213044
0.000197341
0.000186513
0.000219605
0.000221646
0.000218503
0.000223174
0.000223732
0.000212556
0.000212883
0.000193252
0.000198774
0.000221406
0.000222887
0.000215595
0.00018689
0.000191569
0.000207428
0.000216943
0.000213634
0.000229265
0.000221916
0.000186466
0.000198704
0.000219411
0.000225529
0.000231693
0.000235498
0.000213414
0.000218871
0.000221718
0.000201164
0.000212752
0.000216164
0.000236121
0.000227952
0.000202986
0.000209529
0.000211872
0.000234819
0.000229274
0.000237767
0.000238884
0.000201975
0.000213306
0.000235353
0.000235228
0.000235622
0.000231063
0.000229955
0.000238196
0.000238034
0.000212392
0.000202368
0.000234116
0.000232117
0.000237448
0.000214236
0.000210523
0.000190873
0.000237105
0.000238511
0.000222433
0.000230008
0.000212972
0.000199946
0.000234515
0.000225763
0.000217861
0.000209434
0.000237808
0.000231062
0.000224035
0.000198617
0.000179659
0.000236705
0.000208883
0.000218204
0.000190921
0.000187477
0.000187061
0.000215399
0.000221394
0.000215294
0.000215931
0.000195695
0.000187747
0.000212788
0.000208394
0.000216663
0.000217633
0.000216242
0.000217254
0.000216189
0.000178724
0.000192391
0.000212097
0.000216335
0.000215026
0.000185668
0.000190605
0.000216473
0.000216469
0.000190757
0.000218149
0.000223146
0.00023999
0.000244995
0.000242268
0.000217259
0.000198691
0.000217011
3.12339e-06
2.04442e-06
1.31322e-06
1.37899e-06
1.34828e-06
1.95778e-06
5.54432e-07
1.30213e-06
1.21678e-06
1.85292e-06
1.40222e-06
3.33184e-07
2.30134e-06
1.88953e-06
4.27258e-06
1.17897e-06
1.33771e-05
1.10019e-06
1.51235e-05
1.11833e-05
1.30256e-05
1.31519e-06
1.32916e-05
1.25566e-06
1.50466e-05
1.6668e-06
1.83729e-06
1.6749e-06
1.58596e-06
1.70818e-06
1.83923e-06
1.69859e-06
1.33658e-06
3.25418e-07
1.6244e-06
1.7858e-06
1.32342e-06
4.32858e-07
1.63276e-06
1.08279e-05
1.30887e-05
1.22059e-06
1.57949e-06
3.29376e-07
1.5441e-06
1.21743e-06
1.59174e-06
4.35487e-07
1.45079e-06
1.53366e-06
2.2624e-06
1.68135e-06
1.73585e-06
1.3716e-06
1.8308e-05
1.31249e-06
2.07622e-05
1.71497e-05
1.9321e-05
1.47691e-06
1.82406e-05
1.48163e-06
2.06306e-05
1.72197e-06
1.83281e-06
1.69876e-06
1.58468e-06
1.77127e-06