/*--------------------------------*- C++ -*----------------------------------*\
| =========                 |                                                 |
| \\      /  F ield         | OpenFOAM: The Open Source CFD Toolbox           |
|  \\    /   O peration     | Version:  v2012                                 |
|   \\  /    A nd           | Website:  www.openfoam.com                      |
|    \\/     M anipulation  |                                                 |
\*---------------------------------------------------------------------------*/
FoamFile
{
    version     2.0;
    format      ascii;
    class       volScalarField;
    location    "1250";
    object      p;
}
// * * * * * * * * * * * * * * * * * * * * * * * * * * * * * * * * * * * * * //

dimensions      [0 2 -2 0 0 0 0];


internalField   nonuniform List<scalar> 
171728
(
0.00351691
0.00351586
0.0035158
0.00351656
0.00348144
0.00347999
0.00347986
0.00348279
0.0034429
0.00344105
0.00344095
0.00344332
0.00339882
0.00339709
0.00339706
0.00339934
0.00335074
0.00334926
0.00334928
0.00335159
0.00330188
0.00330059
0.00330056
0.00330293
0.00325363
0.00325246
0.00325242
0.00325481
0.0032063
0.00320522
0.00320523
0.00320763
0.00315999
0.00315902
0.00315909
0.00316144
0.00311474
0.00311407
0.00311387
0.0031163
0.0030702
0.00306947
0.00306955
0.00307188
0.00302648
0.00302587
0.00302598
0.00302824
0.00298332
0.002983
0.00298289
0.00298523
0.00294061
0.00294033
0.00294024
0.00294269
0.00289844
0.00289826
0.00289813
0.00290037
0.00285614
0.00285627
0.00285615
0.00285841
0.00281445
0.00281453
0.00281433
0.00281666
0.00277319
0.00277323
0.00277283
0.00277494
0.00273205
0.00273201
0.00273182
0.00273425
0.00269148
0.00269151
0.00269141
0.00269346
0.00265116
0.00265133
0.00265115
0.00265303
0.00261119
0.00261126
0.00261126
0.00261298
0.00257137
0.00257166
0.00257141
0.00257326
0.0025321
0.00253228
0.00253253
0.00253388
0.00249262
0.00249315
0.00249289
0.00249467
0.00245389
0.00245424
0.00245433
0.00245585
0.00241509
0.00241561
0.00241557
0.00241734
0.00237649
0.00237705
0.002377
0.00237892
0.00233817
0.00233873
0.00233876
0.00234055
0.00229999
0.00230056
0.00230056
0.0023024
0.00226209
0.00226281
0.0022627
0.00226482
0.00222423
0.00222487
0.00222492
0.00222665
0.00218654
0.00218718
0.00218713
0.00218917
0.0021491
0.00214987
0.00214998
0.00215173
0.00211156
0.00211214
0.00211208
0.00211376
0.0020743
0.00207493
0.00207476
0.00207705
0.00203732
0.00203798
0.00203812
0.0020397
0.00200024
0.00200065
0.00200073
0.00200254
0.00196337
0.00196383
0.00196358
0.00196593
0.00192668
0.0019271
0.00192731
0.00192885
0.00189005
0.00189028
0.00189025
0.00189255
0.00185376
0.00185404
0.00185379
0.00185576
0.00181721
0.00181728
0.00181756
0.00181954
0.00178097
0.00178115
0.00178087
0.00178303
0.00174505
0.00174495
0.00174513
0.00174721
0.00170904
0.00170927
0.00170915
0.00171113
0.00167331
0.00167298
0.0016731
0.0016752
0.00163722
0.00163728
0.00163711
0.00163926
0.00160167
0.00160147
0.00160172
0.00160364
0.00156638
0.00156632
0.00156611
0.00156834
0.00153109
0.00153063
0.00153062
0.00153269
0.00149555
0.00149542
0.0014956
0.00149738
0.00146058
0.00146005
0.00146003
0.00146225
0.00142486
0.00142509
0.00142481
0.00142694
0.00139008
0.00138964
0.00139011
0.00139175
0.0013558
0.0013551
0.00135495
0.00135712
0.00132025
0.00132039
0.00132002
0.00132219
0.0012851
0.00128478
0.00128515
0.00128671
0.00125063
0.00125019
0.00125064
0.00125251
0.00121611
0.0012162
0.00121531
0.00121771
0.00118111
0.00118081
0.00118091
0.00118258
0.00114686
0.00114628
0.00114697
0.00114858
0.00111207
0.00111221
0.00111171
0.00111394
0.00107729
0.00107709
0.00107699
0.00107885
0.00104294
0.00104254
0.00104293
0.0010447
0.00100844
0.00100851
0.00100813
0.00101027
0.000973565
0.000973172
0.00097332
0.00097497
0.000939507
0.000939141
0.000939518
0.000941209
0.000904946
0.000905377
0.000904784
0.000907196
0.000870244
0.00086997
0.000869981
0.000871888
0.000835586
0.000834893
0.00083546
0.000836826
0.000801471
0.000801809
0.000801333
0.000803779
0.000767658
0.000767519
0.000767649
0.000769505
0.000731836
0.000731379
0.000731669
0.000733189
0.000696985
0.000697161
0.000696748
0.000698985
0.00066381
0.000663589
0.0006639
0.000665764
0.00062895
0.000628784
0.000628889
0.00063072
0.000593064
0.000593337
0.000592991
0.000595149
0.000558691
0.000558576
0.000558522
0.000560563
0.000524924
0.000524479
0.000524797
0.000526553
0.000489457
0.000489391
0.000489554
0.000491298
0.000454152
0.000454484
0.000454062
0.000456411
0.000420559
0.000420384
0.000420371
0.000422191
0.000385847
0.00038562
0.000385784
0.00038763
0.000348707
0.000348736
0.000348827
0.000351054
0.000312846
0.000312888
0.000312813
0.00031476
0.000279507
0.000279444
0.000279563
0.000281289
0.000245314
0.000245232
0.000244928
0.000247157
0.000208087
0.000208188
0.000207887
0.000210187
0.000171855
0.000171542
0.000172221
0.000173695
0.000138121
0.000137867
0.000138249
0.000139928
0.000103056
0.000103416
0.000102685
0.000105338
6.50103e-05
6.52913e-05
6.46148e-05
6.69033e-05
2.92844e-05
2.83389e-05
2.90969e-05
3.01975e-05
4.92137e-06
5.49221e-06
6.3867e-06
4.12623e-06
0.00352122
0.00351874
0.00351909
0.00352145
0.00351875
0.00351911
0.00352524
0.00352527
0.00352528
0.00352525
0.00351882
0.0035188
0.00352139
0.00351891
0.00351888
0.0035213
0.0035165
0.00348759
0.00351577
0.00351608
0.00348951
0.00348957
0.00351661
0.00348759
0.00351584
0.00351631
0.00348938
0.00348945
0.00351583
0.00348941
0.00348943
0.00351661
0.00348762
0.00351584
0.00348941
0.00348943
0.00348758
0.00348281
0.00344886
0.00347988
0.00348003
0.00345114
0.00345083
0.00348282
0.00344891
0.00347999
0.00348008
0.00345112
0.00345108
0.00347995
0.00345111
0.00345113
0.00348285
0.00344889
0.00347989
0.00345115
0.00345115
0.00344887
0.00344332
0.00340553
0.00344095
0.00344108
0.00340858
0.00340843
0.00344337
0.00340554
0.00344099
0.00344092
0.00340859
0.00340877
0.003441
0.00340859
0.00340862
0.00344334
0.00340553
0.003441
0.00340862
0.00340862
0.00340553
0.00339935
0.00335805
0.00339711
0.00339723
0.00336137
0.00336131
0.00339935
0.00335805
0.00339712
0.00339713
0.00336141
0.0033616
0.00339706
0.00336143
0.00336146
0.00339936
0.00335812
0.00339705
0.00336135
0.00336144
0.00335805
0.00335157
0.00330936
0.00334927
0.0033493
0.00331271
0.00331295
0.00335159
0.00330936
0.00334924
0.00334901
0.00331274
0.00331284
0.00334926
0.00331274
0.00331271
0.00335164
0.0033094
0.00334927
0.00331268
0.00331271
0.00330938
0.0033029
0.00326111
0.00330054
0.00330063
0.00326439
0.00326478
0.0033029
0.00326115
0.00330056
0.00330037
0.00326436
0.00326452
0.00330059
0.00326439
0.00326438
0.00330291
0.0032611
0.00330059
0.00326438
0.0032644
0.00326113
0.00325478
0.00321377
0.00325241
0.00325223
0.00321696
0.00321724
0.00325481
0.00321372
0.00325247
0.00325257
0.00321696
0.00321686
0.00325246
0.00321693
0.00321696
0.00325482
0.00321384
0.00325246
0.003217
0.00321698
0.0032138
0.00320758
0.00316744
0.00320521
0.0032053
0.00317047
0.0031704
0.00320754
0.0031673
0.00320523
0.00320524
0.00317051
0.00317051
0.00320527
0.00317044
0.00317051
0.00320762
0.0031675
0.00320528
0.00317054
0.00317052
0.00316747
0.00316141
0.00312221
0.00315904
0.00315913
0.00312523
0.00312549
0.00316132
0.00312245
0.00315906
0.00315909
0.00312515
0.00312508
0.0031591
0.00312529
0.00312514
0.00316145
0.00312214
0.00315911
0.00312506
0.00312512
0.00312219
0.00311629
0.00307766
0.00311399
0.00311407
0.00308054
0.00308022
0.00311649
0.00307754
0.00311392
0.00311382
0.00308058
0.0030807
0.00311394
0.00308047
0.00308057
0.00311625
0.00307778
0.00311394
0.00308059
0.00308058
0.0030777
0.00307187
0.00303395
0.00306947
0.00306929
0.00303676
0.0030368
0.00307174
0.00303392
0.00306953
0.00306967
0.00303679
0.00303664
0.00306951
0.0030368
0.00303671
0.00307196
0.00303399
0.00306954
0.00303672
0.00303673
0.00303391
0.00302827
0.00299078
0.00302593
0.0030259
0.00299365
0.00299355
0.00302821
0.00299089
0.00302592
0.00302588
0.00299363
0.00299365
0.0030259
0.00299359
0.00299365
0.00302835
0.00299086
0.00302592
0.00299367
0.00299365
0.00299085
0.00298514
0.00294831
0.00298292
0.002983
0.00295105
0.00295092
0.00298531
0.002948
0.00298293
0.00298289
0.00295107
0.00295086
0.0029829
0.00295091
0.00295087
0.00298521
0.00294812
0.00298289
0.00295083
0.00295089
0.00294821
0.00294265
0.002906
0.00294035
0.00294032
0.00290848
0.0029088
0.00294242
0.00290591
0.00294032
0.0029402
0.00290847
0.00290845
0.00294037
0.00290883
0.00290854
0.00294262
0.00290588
0.00294038
0.00290848
0.00290855
0.00290585
0.00290065
0.00286335
0.00289824
0.00289826
0.00286634
0.0028666
0.00290036
0.00286382
0.00289825
0.00289816
0.00286635
0.00286653
0.00289813
0.00286659
0.00286641
0.00290042
0.00286383
0.00289812
0.00286655
0.00286645
0.00286383
0.00285796
0.00282194
0.00285566
0.00285628
0.00282477
0.00282462
0.0028584
0.00282194
0.00285569
0.00285621
0.00282478
0.00282478
0.00285613
0.00282462
0.00282453
0.00285838
0.00282196
0.00285613
0.00282472
0.00282456
0.00282196
0.00281652
0.00278065
0.00281431
0.00281453
0.00278313
0.00278334
0.00281667
0.00278062
0.00281432
0.00281438
0.00278317
0.00278351
0.00281434
0.00278336
0.00278331
0.00281662
0.00278043
0.00281433
0.00278343
0.00278335
0.00278029
0.00277542
0.00273928
0.00277319
0.00277324
0.00274218
0.00274207
0.00277535
0.00273939
0.0027732
0.00277293
0.00274219
0.00274254
0.00277289
0.00274207
0.00274242
0.00277508
0.00273923
0.00277285
0.00274233
0.00274229
0.00273948
0.00273406
0.00269875
0.00273205
0.00273202
0.0027017
0.00270163
0.00273415
0.00269864
0.00273204
0.00273206
0.00270171
0.00270187
0.0027322
0.00270162
0.00270168
0.00273394
0.00269872
0.00273219
0.0027018
0.0027017
0.00269868
0.00269358
0.00265821
0.00269164
0.00269151
0.00266121
0.00266126
0.00269345
0.00265823
0.00269164
0.00269164
0.0026612
0.00266119
0.00269149
0.00266124
0.00266127
0.00269353
0.00265818
0.00269158
0.00266132
0.00266132
0.00265816
0.00265309
0.0026181
0.00265126
0.00265133
0.00262128
0.00262123
0.00265308
0.00261804
0.00265128
0.00265133
0.00262128
0.00262137
0.00265129
0.00262121
0.00262126
0.00265308
0.00261828
0.00265131
0.00262138
0.00262128
0.00261804
0.00261301
0.00257815
0.00261132
0.00261125
0.0025815
0.00258151
0.00261294
0.00257826
0.00261135
0.00261148
0.00258141
0.00258115
0.00261134
0.00258152
0.00258153
0.00261326
0.00257806
0.00261128
0.00258139
0.00258155
0.00257828
0.00257314
0.00253893
0.00257163
0.00257165
0.0025422
0.00254217
0.00257324
0.00253886
0.00257152
0.00257136
0.00254225
0.00254231
0.00257166
0.00254216
0.00254214
0.00257284
0.00253932
0.00257155
0.00254243
0.0025422
0.00253889
0.00253394
0.00249967
0.00253236
0.00253229
0.00250289
0.00250289
0.00253388
0.00249962
0.00253238
0.00253235
0.00250287
0.00250276
0.00253231
0.0025029
0.00250291
0.00253428
0.00249932
0.0025323
0.00250268
0.00250292
0.00249967
0.00249474
0.00246072
0.0024931
0.00249315
0.00246387
0.00246395
0.00249471
0.00246096
0.00249311
0.00249307
0.00246388
0.00246397
0.00249311
0.00246396
0.00246394
0.00249426
0.00246134
0.00249307
0.00246404
0.00246397
0.00246079
0.00245579
0.00242238
0.00245426
0.00245424
0.00242524
0.00242519
0.00245596
0.002422
0.00245423
0.00245421
0.00242524
0.00242519
0.0024542
0.0024252
0.00242524
0.00245635
0.00242202
0.00245419
0.00242518
0.00242527
0.00242223
0.00241742
0.00238353
0.00241555
0.0024156
0.00238661
0.00238665
0.00241718
0.00238388
0.00241556
0.00241559
0.00238665
0.00238661
0.00241563
0.00238666
0.00238662
0.00241714
0.00238387
0.00241562
0.00238663
0.00238664
0.00238382
0.00237863
0.0023456
0.00237702
0.00237704
0.00234833
0.00234828
0.00237894
0.00234544
0.00237704
0.00237695
0.00234834
0.0023483
0.00237699
0.00234829
0.00234835
0.00237885
0.0023454
0.00237709
0.00234828
0.0023483
0.00234554
0.00234069
0.00230738
0.00233877
0.00233873
0.00231011
0.00231011
0.00234051
0.00230733
0.00233877
0.00233876
0.00231011
0.00231013
0.0023388
0.00231009
0.00230994
0.00234055
0.00230752
0.00233875
0.00231013
0.00230992
0.00230718
0.00230245
0.00226944
0.00230058
0.00230058
0.00227218
0.00227222
0.00230242
0.00226957
0.00230058
0.00230059
0.00227218
0.00227212
0.00230043
0.00227223
0.00227237
0.00230257
0.00226938
0.00230044
0.00227211
0.00227241
0.00226963
0.00226457
0.00223171
0.00226275
0.00226279
0.00223438
0.00223436
0.0022647
0.00223166
0.00226274
0.0022627
0.00223438
0.00223439
0.00226306
0.00223438
0.00223416
0.00226452
0.00223175
0.00226305
0.00223441
0.00223417
0.00223158
0.0022268
0.00219396
0.00222492
0.00222487
0.00219661
0.00219656
0.00222673
0.00219385
0.00222492
0.00222492
0.00219662
0.00219658
0.00222461
0.00219654
0.00219658
0.00222681
0.00219389
0.00222461
0.00219649
0.00219654
0.00219396
0.00218906
0.00215645
0.00218721
0.00218719
0.00215912
0.0021592
0.00218897
0.00215661
0.00218722
0.00218718
0.00215911
0.00215914
0.00218742
0.00215923
0.00215932
0.00218901
0.0021566
0.00218735
0.00215928
0.00215951
0.00215672
0.00215156
0.00211905
0.00214977
0.00214985
0.00212165
0.00212159
0.00215171
0.00211893
0.00214976
0.00214981
0.00212164
0.00212165
0.00214978
0.00212158
0.00212129
0.00215175
0.00211897
0.00215002
0.00212164
0.00212119
0.00211865
0.00211414
0.00208159
0.00211227
0.00211217
0.00208417
0.00208416
0.002114
0.00208164
0.00211227
0.00211221
0.00208418
0.00208408
0.00211195
0.00208415
0.00208433
0.00211399
0.00208151
0.00211172
0.00208394
0.00208408
0.00208186
0.00207673
0.00204466
0.00207488
0.00207492
0.00204719
0.00204722
0.0020768
0.00204467
0.00207489
0.00207484
0.00204718
0.00204722
0.00207517
0.00204727
0.00204732
0.00207669
0.00204473
0.002075
0.00204735
0.00204758
0.00204464
0.00203977
0.00200745
0.00203791
0.00203794
0.00200997
0.00200999
0.0020398
0.00200747
0.00203792
0.00203797
0.00201
0.00201007
0.00203789
0.00200997
0.00200977
0.00203989
0.00200764
0.0020382
0.00201009
0.00200975
0.00200736
0.0020026
0.00197076
0.00200069
0.00200068
0.00197312
0.00197298
0.00200257
0.00197062
0.0020007
0.00200075
0.0019731
0.00197285
0.00200052
0.00197297
0.00197309
0.0020027
0.00197038
0.00200047
0.00197277
0.00197297
0.0019708
0.00196586
0.00193366
0.00196391
0.00196384
0.00193614
0.00193632
0.0019658
0.00193388
0.0019639
0.00196365
0.00193613
0.00193634
0.00196393
0.00193634
0.00193623
0.00196556
0.00193407
0.00196383
0.00193639
0.00193627
0.00193369
0.00192884
0.00189729
0.00192691
0.00192708
0.00189953
0.00189938
0.00192899
0.00189711
0.00192691
0.00192725
0.00189955
0.00189949
0.00192699
0.00189939
0.00189953
0.00192925
0.00189706
0.00192703
0.00189955
0.0018996
0.00189735
0.00189248
0.00186076
0.00189045
0.00189027
0.00186312
0.00186316
0.00189233
0.00186089
0.00189048
0.0018902
0.00186309
0.00186287
0.00189046
0.00186316
0.00186302
0.00189217
0.00186068
0.00189056
0.00186277
0.00186301
0.00186063
0.00185587
0.00182415
0.00185394
0.00185404
0.00182637
0.00182645
0.00185603
0.00182415
0.00185389
0.00185391
0.00182638
0.00182675
0.00185382
0.00182645
0.0018265
0.00185593
0.00182451
0.00185375
0.00182671
0.00182645
0.00182435
0.00181937
0.00178808
0.00181728
0.00181727
0.00179022
0.00179015
0.00181932
0.00178802
0.00181732
0.00181753
0.00179023
0.00178987
0.00181745
0.00179016
0.00179009
0.00181959
0.00178769
0.00181744
0.00178997
0.00179011
0.00178784
0.00178326
0.00175181
0.0017812
0.00178116
0.00175404
0.00175396
0.00178321
0.00175181
0.00178119
0.00178084
0.00175401
0.00175411
0.00178096
0.00175394
0.00175403
0.00178292
0.00175204
0.00178098
0.001754
0.00175405
0.00175195
0.00174699
0.00171593
0.00174496
0.00174495
0.00171796
0.0017182
0.00174706
0.00171603
0.00174494
0.00174522
0.00171802
0.00171814
0.00174515
0.00171826
0.00171817
0.0017473
0.00171591
0.00174516
0.00171824
0.00171822
0.00171595
0.00171118
0.00168007
0.00170908
0.00170922
0.00168225
0.00168204
0.00171121
0.00167995
0.00170915
0.00170904
0.00168221
0.00168211
0.00170908
0.00168198
0.00168207
0.0017111
0.00168006
0.00170913
0.00168206
0.00168197
0.00167999
0.00167526
0.00164403
0.00167319
0.00167302
0.00164612
0.00164622
0.00167518
0.00164413
0.00167313
0.00167318
0.00164615
0.00164611
0.00167315
0.00164624
0.00164617
0.00167526
0.00164397
0.00167298
0.00164611
0.0016461
0.00164405
0.00163923
0.00160832
0.00163716
0.00163727
0.00161035
0.00161034
0.00163932
0.00160828
0.0016372
0.00163707
0.00161032
0.00161047
0.00163712
0.00161032
0.00161031
0.00163919
0.00160847
0.00163719
0.00161049
0.00161053
0.00160836
0.00160361
0.00157309
0.0016015
0.00160147
0.00157516
0.00157512
0.00160355
0.00157306
0.00160145
0.0016017
0.00157517
0.00157508
0.00160151
0.00157514
0.00157525
0.00160375
0.00157295
0.00160166
0.00157509
0.00157512
0.00157309
0.00156833
0.00153733
0.00156634
0.00156629
0.00153946
0.0015395
0.00156834
0.00153747
0.00156635
0.0015661
0.00153942
0.00153939
0.00156644
0.00153955
0.0015396
0.00156817
0.00153737
0.00156625
0.00153939
0.00153947
0.00153747
0.00153259
0.00150234
0.00153053
0.00153061
0.00150423
0.00150426
0.00153271
0.00150219
0.00153053
0.00153062
0.00150432
0.00150438
0.00153058
0.0015042
0.00150394
0.00153265
0.0015024
0.00153057
0.00150436
0.00150416
0.00150208
0.00149766
0.00146696
0.00149554
0.0014955
0.00146915
0.00146898
0.00149746
0.00146688
0.00149565
0.00149563
0.00146908
0.00146912
0.00149522
0.00146891
0.00146909
0.0014977
0.00146689
0.00149543
0.00146903
0.00146907
0.00146699
0.00146214
0.00143124
0.00146014
0.00146006
0.00143333
0.00143361
0.00146215
0.00143166
0.00146006
0.0014601
0.00143321
0.0014333
0.0014603
0.0014338
0.00143381
0.00146209
0.00143135
0.00146016
0.00143348
0.00143364
0.00143168
0.00142651
0.00139673
0.00142459
0.00142487
0.00139873
0.00139861
0.00142694
0.00139653
0.00142446
0.00142457
0.00139869
0.00139881
0.00142497
0.00139853
0.00139842
0.00142664
0.00139684
0.00142487
0.00139888
0.00139853
0.00139647
0.00139214
0.00136197
0.00139015
0.00138984
0.00136399
0.00136377
0.0013918
0.00136165
0.00139019
0.00139025
0.00136432
0.00136395
0.00138966
0.00136364
0.0013638
0.00139218
0.00136182
0.00138979
0.00136361
0.00136381
0.00136176
0.00135719
0.00132664
0.00135507
0.0013551
0.00132879
0.00132902
0.001357
0.00132704
0.00135538
0.00135511
0.00132855
0.00132855
0.00135524
0.0013292
0.00132904
0.00135708
0.00132654
0.00135521
0.00132886
0.00132898
0.00132695
0.00132189
0.00129151
0.0013201
0.00132028
0.00129371
0.00129376
0.00132231
0.00129163
0.00131976
0.00131971
0.00129353
0.00129372
0.00132018
0.00129368
0.00129357
0.00132178
0.00129165
0.00132011
0.00129376
0.00129355
0.00129146
0.00128683
0.00125725
0.00128494
0.00128488
0.00125904
0.00125871
0.00128684
0.00125669
0.00128492
0.00128519
0.00125934
0.00125955
0.00128481
0.00125868
0.00125898
0.00128702
0.00125747
0.00128483
0.0012594
0.00125913
0.00125709
0.00125264
0.00122229
0.0012505
0.00125019
0.00122443
0.00122473
0.0012521
0.00122279
0.00125079
0.00125078
0.00122438
0.0012241
0.00125046
0.00122482
0.00122467
0.00125276
0.00122203
0.00125059
0.00122411
0.00122456
0.00122247
0.00121752
0.0011873
0.00121563
0.00121612
0.00118949
0.00118965
0.00121811
0.00118749
0.00121546
0.00121527
0.0011893
0.00118935
0.00121589
0.00118964
0.00118948
0.00121724
0.00118725
0.0012157
0.00118938
0.00118936
0.00118728
0.00118265
0.00115335
0.00118088
0.00118085
0.00115524
0.00115485
0.00118273
0.00115277
0.00118078
0.00118089
0.00115544
0.00115558
0.00118077
0.0011548
0.00115506
0.00118266
0.00115363
0.00118076
0.00115556
0.00115528
0.00115318
0.00114873
0.00111852
0.00114668
0.00114631
0.00112056
0.00112072
0.00114817
0.00111883
0.00114692
0.00114701
0.00112062
0.0011206
0.00114651
0.00112077
0.00112075
0.001149
0.00111845
0.00114676
0.00112057
0.00112071
0.00111869
0.00111376
0.00108364
0.00111182
0.00111215
0.00108582
0.00108593
0.00111419
0.00108378
0.00111172
0.00111171
0.00108561
0.00108553
0.00111208
0.00108595
0.00108578
0.00111366
0.0010835
0.00111189
0.00108557
0.00108559
0.00108357
0.00107894
0.0010493
0.00107717
0.00107712
0.00105124
0.00105106
0.001079
0.00104899
0.00107702
0.00107695
0.00105141
0.00105144
0.001077
0.00105103
0.00105118
0.00107884
0.00104947
0.00107694
0.00105146
0.0010514
0.00104929
0.00104467
0.0010149
0.00104267
0.00104254
0.00101695
0.00101707
0.00104438
0.00101517
0.00104287
0.00104293
0.00101696
0.00101696
0.00104272
0.00101714
0.00101715
0.00104485
0.00101483
0.00104294
0.00101694
0.00101706
0.00101504
0.00101016
0.000979967
0.00100827
0.00100847
0.000982071
0.000982053
0.00101048
0.000979874
0.00100816
0.00100815
0.00098194
0.000981911
0.0010084
0.000981986
0.000981858
0.00101004
0.000979851
0.00100824
0.000981879
0.00098174
0.000979702
0.000975288
0.000945913
0.000973415
0.000973246
0.000947797
0.000947547
0.000975099
0.000945541
0.000973372
0.000973366
0.000947996
0.000948047
0.000973089
0.000947513
0.00094757
0.000975208
0.000946099
0.00097307
0.000948009
0.00094778
0.000945734
0.000941263
0.000911342
0.000939265
0.000939149
0.000913477
0.00091388
0.000940996
0.000911974
0.000939444
0.000939501
0.000913338
0.000913402
0.000939233
0.000913993
0.000914061
0.000941459
0.000911343
0.000939443
0.000913538
0.000913915
0.000911935
0.000906626
0.000876804
0.000904826
0.000905249
0.000878851
0.00087887
0.000907267
0.000876782
0.000904616
0.000904666
0.000878745
0.00087868
0.000905411
0.000878857
0.000878842
0.000906588
0.000876667
0.000905165
0.000878617
0.000878732
0.000876723
0.000872111
0.000842147
0.000870184
0.000870042
0.000844012
0.000843632
0.000871959
0.000841514
0.000870184
0.000870098
0.000844325
0.000844317
0.000869918
0.000843482
0.000843328
0.000871991
0.000842267
0.000869902
0.000844114
0.000843572
0.000841456
0.000837398
0.000807724
0.000835309
0.000834997
0.000809735
0.000809843
0.000836854
0.000808088
0.000835591
0.000835602
0.000809649
0.000809574
0.000834778
0.000809951
0.000810025
0.000837533
0.000807642
0.000835003
0.000809719
0.000809968
0.00080818
0.000803155
0.000774122
0.000801395
0.000801647
0.000776229
0.000776384
0.000803652
0.000774276
0.000801193
0.000801129
0.000776016
0.00077615
0.000801961
0.000776477
0.000776632
0.000803069
0.000774202
0.000801822
0.000776263
0.000776473
0.000774377
0.000769399
0.000738665
0.000767514
0.000767539
0.000740678
0.000740562
0.000769427
0.000738252
0.000767431
0.000767644
0.000740842
0.000740907
0.000767612
0.000740336
0.00074022
0.000769523
0.000738775
0.000767563
0.000740736
0.000740433
0.000738106
0.000733729
0.000703468
0.00073166
0.000731595
0.000705391
0.000705501
0.000733374
0.000703679
0.0007318
0.000731825
0.000705408
0.000705175
0.000731194
0.00070555
0.000705409
0.000733833
0.000703263
0.000731383
0.000705143
0.000705342
0.000703532
0.000698867
0.000670293
0.000696968
0.000697031
0.000672131
0.000671927
0.000699097
0.00067017
0.000696967
0.000696741
0.000672177
0.000672094
0.000697101
0.000672082
0.000672221
0.000698685
0.000670254
0.000696974
0.000672121
0.000672107
0.000670357
0.000665728
0.000635631
0.000663784
0.00066351
0.000637719
0.000637653
0.000665545
0.000635498
0.000663806
0.000663871
0.000637652
0.000637838
0.000663784
0.000637576
0.000637631
0.000665771
0.000635733
0.000663781
0.000637877
0.000637697
0.000635546
0.000630795
0.00059979
0.000628824
0.000628864
0.000601887
0.000602211
0.000630701
0.000600101
0.000628777
0.000628882
0.000601864
0.000601881
0.000628787
0.0006022
0.000602093
0.000630857
0.000599816
0.000628825
0.000601902
0.000602093
0.000599988
0.000594945
0.000565112
0.000592983
0.00059332
0.000567066
0.000567118
0.000595254
0.000565239
0.000592989
0.000592979
0.000567072
0.00056699
0.000593233
0.000567156
0.000567134
0.000594959
0.00056505
0.000593221
0.000566986
0.000567096
0.000565203
0.000560523
0.000531477
0.000558632
0.00055855
0.00053341
0.000533061
0.00056059
0.00053115
0.00055863
0.00055853
0.000533436
0.000533372
0.000558591
0.000533044
0.000533116
0.000560439
0.00053144
0.000558557
0.000533317
0.000533117
0.000531237
0.000526784
0.000496372
0.000524796
0.000524487
0.000498361
0.00049827
0.000526472
0.000496192
0.000524846
0.000524849
0.000498433
0.000498522
0.000524515
0.000498225
0.000498136
0.000526785
0.000496486
0.000524543
0.000498492
0.00049824
0.000496113
0.000491457
0.000460726
0.000489397
0.000489434
0.000462771
0.000463094
0.000491364
0.000461101
0.000489477
0.000489574
0.000462684
0.000462689
0.000489304
0.000463122
0.00046315
0.000491593
0.000460713
0.000489401
0.000462765
0.000463112
0.000461101
0.00045599
0.000426842
0.000454136
0.000454459
0.000428834
0.000428887
0.000456396
0.000426842
0.000454021
0.000453978
0.000428718
0.000428653
0.000454554
0.00042886
0.000428904
0.000455961
0.000426723
0.000454491
0.000428688
0.000428844
0.000426823
0.000422317
0.000392664
0.000420488
0.000420415
0.000394654
0.000394489
0.00042223
0.000392526
0.00042043
0.000420374
0.000394769
0.000394813
0.000420373
0.000394491
0.000394432
0.000422211
0.000392694
0.000420325
0.000394689
0.000394427
0.000392455
0.000387799
0.000355972
0.000385719
0.000385609
0.000358067
0.000357981
0.000387671
0.000355973
0.000385815
0.000385873
0.000358144
0.000358211
0.000385582
0.000358008
0.000358115
0.000387841
0.000356078
0.000385591
0.000358217
0.000358183
0.000356136
0.000350874
0.000319643
0.000348737
0.000348721
0.000321616
0.000321617
0.00035092
0.00031967
0.000348761
0.000348752
0.000321525
0.000321424
0.000348821
0.000321581
0.000321468
0.000350931
0.000319527
0.000348886
0.000321496
0.000321478
0.00031953
0.000314893
0.000285794
0.000312933
0.000312923
0.000287678
0.000287669
0.00031491
0.000285739
0.000312854
0.000312766
0.000287656
0.000287718
0.000312747
0.000287646
0.000287587
0.000314782
0.000285914
0.000312739
0.000287741
0.000287598
0.000285694
0.000281291
0.00025182
0.000279409
0.000279433
0.000253917
0.000254027
0.000281254
0.000251891
0.000279433
0.000279555
0.00025396
0.000253946
0.00027948
0.000254054
0.000254183
0.000281455
0.000251806
0.000279502
0.000253911
0.000254174
0.000252008
0.000246975
0.000215222
0.000245042
0.000245204
0.000217483
0.000217635
0.000247086
0.000215508
0.000245046
0.000244962
0.000217401
0.000217191
0.000245292
0.000217655
0.000217568
0.000246914
0.000214934
0.000245242
0.000217173
0.00021747
0.000215386
0.000210075
0.000178802
0.000208041
0.000208136
0.000180661
0.000180385
0.000210303
0.000178508
0.000207998
0.000207899
0.000180771
0.000180973
0.000208087
0.000180303
0.000180272
0.000209879
0.000178991
0.000207976
0.000180933
0.000180415
0.000178468
0.000174032
0.000144632
0.00017196
0.000171646
0.000146456
0.000146245
0.000173718
0.000144297
0.000172071
0.000172254
0.000146545
0.000146732
0.000171555
0.000146209
0.000146312
0.000174223
0.00014489
0.000171721
0.000146694
0.000146418
0.000144442
0.000140048
0.000109864
0.000138097
0.000137902
0.000112042
0.000112318
0.000139739
0.000110183
0.000138126
0.000138216
0.000111908
0.000111695
0.000138031
0.000112431
0.000112534
0.000140227
0.000109749
0.000138155
0.000111791
0.000112395
0.000110349
0.000104882
7.24612e-05
0.000102927
0.00010329
7.47449e-05
7.49671e-05
0.000105237
7.28396e-05
0.000102792
0.000102616
7.45775e-05
7.4181e-05
0.000103388
7.49612e-05
7.46879e-05
0.000104746
7.19321e-05
0.000103209
7.41208e-05
7.44798e-05
7.23656e-05
6.7107e-05
3.52799e-05
6.50676e-05
6.53108e-05
3.71481e-05
3.68703e-05
6.74749e-05
3.49258e-05
6.49579e-05
6.47071e-05
3.73189e-05
3.75215e-05
6.48799e-05
3.67984e-05
3.67917e-05
6.67047e-05
3.54417e-05
6.46507e-05
3.74524e-05
3.69509e-05
3.48798e-05
3.05159e-05
6.25598e-06
2.86992e-05
2.83943e-05
9.05938e-06
8.86008e-06
3.01616e-05
6.02299e-06
2.8898e-05
2.91443e-05
9.2974e-06
9.84636e-06
2.8496e-05
8.91859e-06
9.45064e-06
3.0728e-05
6.8175e-06
2.87034e-05
9.94419e-06
9.73257e-06
6.64375e-06
3.73282e-06
5.70485e-06
5.45054e-06
3.562e-06
5.6522e-06
6.29642e-06
4.85816e-06
5.3514e-06
5.23869e-06
6.08636e-06
4.18204e-06
6.09003e-06
0.00352833
0.0035308
0.00352957
0.00352977
0.00355683
0.00353075
0.00356034
0.00353112
0.00355708
0.00353104
0.00353117
0.00356055
0.00354187
0.00356357
0.0035636
0.00350097
0.00351447
0.00351839
0.00349326
0.00349259
0.00349661
0.00350087
0.00351458
0.00351842
0.00349321
0.00351696
0.003517
0.00351691
0.00349055
0.00349051
0.00349045
0.00349053
0.00350063
0.00351226
0.00351744
0.00350813
0.00351955
0.00349771
0.00350845
0.00349475
0.00349593
0.00350059
0.00351745
0.00351221
0.00350822
0.00351952
0.00350848
0.00349781
0.00351847
0.00351832
0.00350548
0.00349771
0.00349768
0.00347338
0.00348766
0.00348752
0.00347151
0.0034852
0.00347016
0.00347332
0.00348775
0.00348756
0.00347141
0.00348145
0.00348128
0.00348142
0.00345301
0.003453
0.0034529
0.003453
0.00347115
0.00348618
0.00347989
0.0034705
0.00348465
0.00347173
0.00347052
0.0034849
0.00346948
0.00347116
0.00347987
0.00348614
0.00347055
0.0034846
0.00347051
0.00347169
0.00348783
0.00348776
0.0034689
0.00347209
0.00347208
0.00343087
0.00344565
0.00344649
0.00342951
0.00344445
0.00342862
0.00343084
0.00344562
0.00344644
0.00342956
0.00344289
0.0034428
0.00344289
0.00341034
0.00341034
0.00341029
0.00341033
0.00342959
0.00344518
0.00344101
0.00343053
0.00344415
0.00343005
0.00343053
0.00344487
0.00342906
0.00342958
0.00344102
0.00344512
0.00343055
0.00344412
0.00343054
0.00343
0.00344588
0.00344584
0.00342789
0.00342993
0.00342989
0.00338446
0.00340093
0.00340244
0.00338314
0.00339976
0.0033821
0.00338437
0.00340101
0.00340248
0.0033831
0.00339878
0.00339877
0.00339879
0.00336293
0.00336291
0.0033629
0.00336293
0.0033837
0.00340077
0.00339711
0.00338539
0.0034002
0.00338378
0.0033854
0.00340037
0.00338239
0.00338371
0.00339711
0.00340076
0.00338537
0.0034002
0.00338541
0.00338382
0.00340103
0.00340101
0.0033821
0.00338329
0.00338325
0.00333557
0.00335277
0.00335408
0.00333443
0.00335272
0.00333436
0.00333566
0.00335273
0.0033541
0.00333442
0.00335074
0.00335072
0.00335074
0.00331407
0.00331407
0.00331403
0.00331406
0.00333524
0.00335275
0.0033493
0.00333712
0.00335242
0.00333517
0.00333714
0.00335251
0.00333379
0.00333524
0.00334931
0.00335277
0.00333711
0.00335241
0.00333713
0.00333515
0.00335282
0.00335278
0.00333373
0.00333457
0.00333459
0.00328655
0.00330385
0.00330487
0.00328566
0.0033033
0.00328582
0.0032864
0.00330382
0.00330479
0.00328565
0.00330188
0.00330183
0.00330187
0.0032656
0.0032656
0.00326557
0.0032656
0.00328649
0.00330391
0.00330062