/*--------------------------------*- C++ -*----------------------------------*\
| =========                 |                                                 |
| \\      /  F ield         | OpenFOAM: The Open Source CFD Toolbox           |
|  \\    /   O peration     | Version:  v2006                                 |
|   \\  /    A nd           | Website:  www.openfoam.com                      |
|    \\/     M anipulation  |                                                 |
\*---------------------------------------------------------------------------*/
FoamFile
{
    version     2.0;
    format      ascii;
    class       volScalarField;
    location    "750";
    object      k;
}
// * * * * * * * * * * * * * * * * * * * * * * * * * * * * * * * * * * * * * //

dimensions      [0 2 -2 0 0 0 0];


internalField   nonuniform List<scalar> 
14298
(
6.9666e-05
6.96677e-05
1.78797e-05
5.86491e-05
5.86582e-05
5.21129e-05
7.00045e-05
5.21117e-05
2.79792e-05
1.61183e-05
4.45583e-05
1.50233e-05
2.79788e-05
1.50232e-05
5.21134e-05
7.00059e-05
2.79797e-05
1.61184e-05
4.45616e-05
1.50232e-05
5.21124e-05
7.00018e-05
2.79792e-05
1.61185e-05
1.50231e-05
4.45633e-05
1.61184e-05
4.45588e-05
7.00015e-05
6.96675e-05
1.788e-05
5.86564e-05
5.86505e-05
6.96665e-05
2.79799e-05
1.61184e-05
1.50234e-05
4.45586e-05
2.79795e-05
1.61188e-05
1.50235e-05
4.45613e-05
5.21138e-05
7.00055e-05
5.21127e-05
7.00023e-05
1.78803e-05
5.86474e-05
5.86559e-05
6.9666e-05
6.96677e-05
6.96631e-05
6.96648e-05
8.7195e-05
7.24863e-05
7.24799e-05
8.71099e-05
7.24827e-05
7.24763e-05
5.64985e-05
6.87127e-05
3.817e-05
5.87734e-05
5.63064e-05
6.87407e-05
3.83987e-05
5.6567e-05
6.87243e-05
3.81893e-05
5.87824e-05
5.63737e-05
6.87523e-05
3.8417e-05
6.98082e-05
6.90808e-05
5.85213e-05
5.239e-05
6.97972e-05
6.90957e-05
5.87241e-05
7.10311e-05
7.37974e-05
7.00161e-05
7.10324e-05
7.38787e-05
6.9807e-05
6.90803e-05
5.85164e-05
5.23888e-05
6.9796e-05
6.90953e-05
5.87194e-05
6.98082e-05
5.85211e-05
6.90808e-05
5.23907e-05
6.97972e-05
5.8724e-05
6.90959e-05
7.10314e-05
7.3798e-05
7.00175e-05
7.10327e-05
7.38795e-05
6.98071e-05
6.90805e-05
5.85168e-05
5.23898e-05
6.97961e-05
6.90955e-05
5.87196e-05
7.10296e-05
7.37785e-05
7.00135e-05
7.10309e-05
7.38599e-05
7.00131e-05
6.96648e-05
8.71942e-05
7.24798e-05
7.2486e-05
8.71131e-05
7.24762e-05
7.24825e-05
5.65664e-05
6.87237e-05
3.81876e-05
5.87808e-05
3.84171e-05
5.6373e-05
6.87521e-05
5.64995e-05
6.8713e-05
3.81695e-05
5.87749e-05
5.63043e-05
6.87413e-05
3.83973e-05
6.96637e-05
6.98081e-05
5.85214e-05
6.90808e-05
5.2391e-05
6.97971e-05
5.8724e-05
6.90958e-05
7.10315e-05
7.37973e-05
7.00172e-05
7.10323e-05
7.38784e-05
6.98069e-05
5.85168e-05
6.90804e-05
5.23899e-05
6.9796e-05
5.87198e-05
6.90954e-05
7.10301e-05
7.37801e-05
7.0014e-05
7.10314e-05
7.38617e-05
8.71959e-05
7.24857e-05
7.24798e-05
8.71132e-05
7.24827e-05
7.24765e-05
5.64991e-05
6.87124e-05
3.81719e-05
5.87717e-05
5.63087e-05
3.83986e-05
6.87406e-05
5.65663e-05
6.87238e-05
3.81891e-05
5.87801e-05
5.63749e-05
3.84182e-05
6.8752e-05
6.96632e-05
6.96649e-05
1.51165e-05
1.52734e-05
1.52736e-05
1.56566e-05
1.52734e-05
1.56566e-05
1.51164e-05
1.52733e-05
1.52736e-05
1.56565e-05
1.51164e-05
1.52736e-05
1.56565e-05
3.70714e-05
1.79003e-05
2.43243e-05
2.43294e-05
3.69358e-05
2.4412e-05
2.44172e-05
1.91265e-05
3.21698e-05
1.75672e-05
2.8116e-05
1.90876e-05
3.23059e-05
1.76009e-05
2.19246e-05
3.88246e-05
2.69558e-05
4.46817e-05
2.70602e-05
2.18653e-05
3.89456e-05
1.91265e-05
3.21679e-05
1.75671e-05
2.81157e-05
1.90877e-05
3.23043e-05
1.76009e-05
1.9127e-05
3.21701e-05
1.75673e-05
2.81165e-05
1.90884e-05
3.23062e-05
1.76012e-05
2.19258e-05
3.8825e-05
2.69613e-05
4.46845e-05
2.70659e-05
2.18666e-05
3.89463e-05
1.91266e-05
1.75672e-05
3.21684e-05
2.81164e-05
1.90877e-05
1.76012e-05
3.23045e-05
2.19254e-05
3.88202e-05
2.69621e-05
4.4682e-05
2.18663e-05
3.89408e-05
2.70663e-05
2.69563e-05
4.46792e-05
2.70604e-05
3.70719e-05
1.79005e-05
2.43294e-05
2.43253e-05
2.44171e-05
3.69364e-05
2.44129e-05
1.91268e-05
1.75675e-05
3.21699e-05
2.81167e-05
1.90881e-05
1.76013e-05
3.23058e-05
2.19245e-05
3.88237e-05
2.69557e-05
4.46809e-05
2.18655e-05
2.70597e-05
3.89442e-05
1.91268e-05
1.75674e-05
3.21682e-05
2.81163e-05
1.9088e-05
1.76013e-05
3.23045e-05
2.19251e-05
3.88198e-05
2.6962e-05
4.46841e-05
2.1866e-05
3.8941e-05
2.70663e-05
3.70731e-05
1.79009e-05
2.4326e-05
2.43309e-05
3.69379e-05
2.44135e-05
2.44187e-05
1.90946e-05
1.84893e-05
1.92854e-05
1.92863e-05
1.85899e-05
1.84898e-05
1.90935e-05
2.03338e-05
7.08195e-05
3.11132e-05
1.95433e-05
1.9266e-05
4.68777e-05
4.68854e-05
1.9755e-05
1.92601e-05
3.23439e-05
1.97548e-05
3.08739e-05
1.92602e-05
6.92391e-05
3.23439e-05
1.97549e-05
3.08765e-05
1.92601e-05
6.92393e-05
3.23445e-05
4.66491e-05
4.66556e-05
7.08781e-05
7.08785e-05
4.68801e-05
4.68808e-05
7.08189e-05
6.92504e-05
3.25319e-05
1.95431e-05
3.11138e-05
1.92661e-05
6.92468e-05
3.2532e-05
7.08194e-05
7.08198e-05
7.07974e-05
2.42698e-05
6.69639e-05
3.89685e-05
2.42714e-05
6.69696e-05
3.897e-05
7.28272e-05
7.28208e-05
7.57216e-05
7.13723e-05
6.30859e-05
6.26201e-05
7.13932e-05
7.15063e-05
3.20638e-05
3.93122e-05
7.25549e-05
3.88997e-05
7.26666e-05
7.14404e-05
7.1373e-05
6.92205e-05
6.30689e-05
6.2603e-05
7.13933e-05
7.15058e-05
3.20639e-05
7.25541e-05
3.93109e-05
7.2666e-05
3.88988e-05
7.144e-05
7.1373e-05
6.92207e-05
6.30692e-05
6.26035e-05
7.13932e-05
7.15057e-05
3.20642e-05
3.93123e-05
7.25542e-05
3.88989e-05
7.26659e-05
7.14399e-05
3.82461e-05
2.40852e-05
4.63258e-05
6.69621e-05
3.85349e-05
2.39972e-05
6.69604e-05
3.82638e-05
2.40918e-05
4.63346e-05
6.69678e-05
3.85976e-05
2.40026e-05
6.69661e-05
7.48451e-05
7.28228e-05
7.28161e-05
7.54031e-05
7.2801e-05
7.27946e-05
7.09027e-05
7.09032e-05
3.92474e-05
2.42769e-05
6.69695e-05
4.72044e-05
6.69755e-05
3.90177e-05
2.43703e-05
3.92591e-05
2.42556e-05
6.69642e-05
4.7191e-05
2.43768e-05
3.89337e-05
6.69699e-05
7.61996e-05
7.28233e-05
7.28297e-05
7.28395e-05
7.57412e-05
7.28457e-05
7.07966e-05
7.14106e-05
6.33079e-05
6.92698e-05
6.37489e-05
7.13906e-05
7.12469e-05
3.2825e-05
3.96105e-05
7.23679e-05
4.00267e-05
7.13079e-05
7.22627e-05
7.14105e-05
6.32906e-05
6.92661e-05
7.13911e-05
6.3732e-05
7.12466e-05
3.28254e-05
7.23674e-05
3.96082e-05
7.13074e-05
7.22619e-05
4.00262e-05
1.91584e-05
1.91578e-05
2.3086e-05
2.28546e-05
1.86495e-05
1.91707e-05
1.91702e-05
2.29263e-05
1.92123e-05
1.92116e-05
2.31652e-05
1.91581e-05
1.91587e-05
1.84302e-05
1.91257e-05
2.30875e-05
1.91249e-05
2.07946e-05
2.11647e-05
2.07943e-05
2.07945e-05
2.11647e-05
1.85849e-05
1.98681e-05
2.53163e-05
3.12293e-05
1.86385e-05
1.9871e-05
2.5413e-05
1.81602e-05
1.92707e-05
2.08475e-05
1.80826e-05
1.82472e-05
2.08892e-05
1.79912e-05
1.87212e-05
2.51097e-05
1.86609e-05
2.50165e-05
1.8385e-05
1.92608e-05
2.07643e-05
1.8156e-05
1.82934e-05
2.07281e-05
1.82491e-05
1.87208e-05
1.98556e-05
3.07615e-05
2.51076e-05
2.50145e-05
1.98567e-05
1.86604e-05
1.83848e-05
1.92609e-05
1.8156e-05
2.07644e-05
1.8249e-05
2.07282e-05
1.82933e-05
1.87211e-05
1.98566e-05
3.07639e-05
2.51084e-05
2.50153e-05
1.98577e-05
1.86607e-05
1.83848e-05
1.92609e-05
1.81558e-05
2.07646e-05
1.82489e-05
2.07284e-05
1.82932e-05
1.85845e-05
1.98687e-05
2.53136e-05
3.123e-05
1.98713e-05
1.86381e-05
2.54106e-05
1.816e-05
1.92708e-05
1.80824e-05
2.08473e-05
1.79911e-05
1.8247e-05
2.08892e-05
1.83885e-05
4.89722e-05
4.99454e-05
1.87438e-05
3.46107e-05
1.8072e-05
1.83724e-05
6.94135e-05
1.9518e-05
1.90944e-05
1.91334e-05
1.83882e-05
1.79329e-05
1.79979e-05
1.90934e-05
1.85544e-05
3.23563e-05
4.8773e-05
1.90933e-05
1.85554e-05
1.85542e-05
1.85555e-05
1.89365e-05
3.43912e-05
1.84897e-05
1.79976e-05
1.90944e-05
1.85553e-05
1.85553e-05
1.79974e-05
7.05931e-05
1.79333e-05
1.83874e-05
3.26208e-05
3.34212e-05
1.83883e-05
1.83871e-05
1.7933e-05
1.83883e-05
7.04828e-05
1.77041e-05
7.04457e-05
7.05504e-05
7.04831e-05
1.8744e-05
1.94494e-05
3.26221e-05
1.82269e-05
1.85559e-05
1.95666e-05
3.31487e-05
1.79332e-05
4.89772e-05
4.97597e-05
1.77518e-05
4.97579e-05
7.05504e-05
7.04829e-05
7.04458e-05
1.77045e-05
4.9947e-05
7.04459e-05
3.46108e-05
6.93621e-05
3.55264e-05
6.94097e-05
1.94493e-05
1.85557e-05
1.83873e-05
1.82258e-05
3.31473e-05
3.26203e-05
1.95667e-05
6.94055e-05
6.9358e-05
3.55264e-05
1.83726e-05
1.96375e-05
3.34216e-05
3.57585e-05
6.94177e-05
1.80708e-05
3.34202e-05
1.96376e-05
3.57585e-05
3.33262e-05
3.25319e-05
6.92968e-05
7.07236e-05
3.33278e-05
6.92978e-05
1.99895e-05
2.01242e-05
2.01241e-05
2.0124e-05
2.0124e-05
1.9518e-05
1.95178e-05
1.92976e-05
1.89086e-05
3.15952e-05
1.93363e-05
7.08199e-05
7.07236e-05
1.92975e-05
1.95432e-05
3.11129e-05
1.89084e-05
1.9266e-05
1.93362e-05
3.15958e-05
1.82772e-05
4.7731e-05
4.77398e-05
3.55248e-05
6.93612e-05
3.46107e-05
6.94087e-05
3.55268e-05
6.93623e-05
3.46102e-05
6.94099e-05
1.97962e-05
1.9324e-05
1.93237e-05
7.05508e-05
7.04836e-05
1.95665e-05
1.87439e-05
3.26196e-05
1.82267e-05
1.94492e-05
1.85558e-05
3.31467e-05
1.77512e-05
4.9754e-05
4.89702e-05
4.89772e-05
4.97631e-05
7.07229e-05
7.07233e-05
1.82777e-05
4.77325e-05
4.77422e-05
7.05927e-05
7.06731e-05
7.05933e-05
7.06735e-05
1.81947e-05
4.87678e-05
4.87772e-05
4.795e-05
4.7957e-05
3.33275e-05
6.92464e-05
3.25321e-05
6.92931e-05
1.92975e-05
1.95432e-05
1.89076e-05
1.92663e-05
3.15957e-05
1.93362e-05
1.92977e-05
3.11172e-05
1.95431e-05
1.89074e-05
1.92664e-05
3.15991e-05
1.93361e-05
3.35323e-05
6.9353e-05
6.9305e-05
3.43897e-05
6.9349e-05
3.35318e-05
6.93013e-05
3.43908e-05
1.93254e-05
1.87281e-05
3.23556e-05
1.89366e-05
3.18492e-05
1.91341e-05
1.93997e-05
1.85542e-05
1.93255e-05
1.87279e-05
1.89366e-05
3.1852e-05
1.9134e-05
1.93998e-05
1.82779e-05
4.77426e-05
4.77327e-05
7.07227e-05
7.05933e-05
7.06736e-05
1.7998e-05
4.87725e-05
1.81947e-05
4.79523e-05
4.79518e-05
7.05929e-05
7.06731e-05
1.92975e-05
1.89085e-05
3.15981e-05
1.93362e-05
3.33279e-05
6.92469e-05
3.25318e-05
6.92937e-05
1.92976e-05
1.95429e-05
3.11165e-05
1.89073e-05
1.92661e-05
1.93359e-05
3.15993e-05
3.35316e-05
6.93541e-05
6.9306e-05
3.43916e-05
1.93253e-05
1.8729e-05
3.23584e-05
1.89366e-05
3.18514e-05
1.91341e-05
1.93998e-05
3.35318e-05
6.93498e-05
6.93018e-05
3.43919e-05
1.93253e-05
1.87278e-05
1.89363e-05
3.23594e-05
1.91338e-05
3.18522e-05
1.93999e-05
3.33272e-05
6.92973e-05
1.92976e-05
1.89075e-05
1.93361e-05
3.15963e-05
3.33272e-05
6.92937e-05
1.89367e-05
1.93998e-05
3.2358e-05
1.93254e-05
1.87292e-05
3.18498e-05
1.91342e-05
3.4391e-05
6.93539e-05
3.35321e-05
6.93058e-05
1.93999e-05
1.85544e-05
3.23572e-05
1.93254e-05
1.8728e-05
1.9134e-05
3.18493e-05
6.935e-05
3.3532e-05
6.93018e-05
4.68858e-05
4.68795e-05
1.82775e-05
4.77387e-05
4.77324e-05
7.08193e-05
7.0723e-05
7.05937e-05
7.06737e-05
1.81946e-05
4.8777e-05
4.87706e-05
4.79537e-05
4.79474e-05
7.05931e-05
7.06731e-05
1.92976e-05
1.95431e-05
3.11162e-05
1.89084e-05
1.92661e-05
1.93361e-05
3.1599e-05
3.3328e-05
6.92508e-05
3.25316e-05
6.92979e-05
3.33279e-05
6.9247e-05
3.2532e-05
6.92939e-05
1.93252e-05
1.87289e-05
1.89366e-05
3.23556e-05
1.91341e-05
3.18485e-05
1.93997e-05
1.93254e-05
1.8729e-05
1.89366e-05
3.2358e-05
1.91341e-05
3.1852e-05
1.93998e-05
3.3532e-05
6.93541e-05
6.9306e-05
3.43915e-05
3.35324e-05
6.93499e-05
6.93021e-05
3.43915e-05
7.07232e-05
7.07237e-05
4.87687e-05
1.81942e-05
4.87742e-05
4.79482e-05
4.7954e-05
7.06733e-05
7.05935e-05
7.06739e-05
7.055e-05
7.04825e-05
7.05507e-05
7.04832e-05
4.89715e-05
4.89797e-05
1.77515e-05
4.97538e-05
4.97628e-05
6.93574e-05
6.94048e-05
3.55258e-05
3.46103e-05
1.95664e-05
3.26199e-05
1.87439e-05
1.82259e-05
1.94491e-05
3.31469e-05
1.85558e-05
1.83871e-05
3.31484e-05
1.82258e-05
1.95665e-05
1.87439e-05
1.94494e-05
1.85558e-05
6.94127e-05
3.57574e-05
1.80706e-05
1.96375e-05
1.83725e-05
1.95666e-05
3.26225e-05
1.87439e-05
1.82268e-05
1.94492e-05
3.31496e-05
1.85558e-05
3.5527e-05
6.9358e-05
3.46105e-05
6.94056e-05
1.95667e-05
1.87436e-05
3.26235e-05
1.82256e-05
1.94493e-05
1.85556e-05
3.31506e-05
3.57577e-05
1.96375e-05
1.83725e-05
3.5758e-05
6.94136e-05
1.96375e-05
1.80706e-05
1.83722e-05
3.34238e-05
4.89767e-05
4.89704e-05
1.77513e-05
4.9765e-05
4.97586e-05
7.05502e-05
7.0483e-05
7.04464e-05
1.77042e-05
4.99505e-05
4.9944e-05
7.04457e-05
1.82268e-05
1.95666e-05
1.87439e-05
3.26231e-05
1.94493e-05
1.85558e-05
3.31504e-05
3.55263e-05
6.93623e-05
3.46109e-05
6.94099e-05
3.55265e-05
6.93584e-05
3.46108e-05
6.94058e-05
1.80717e-05
3.34197e-05
6.94179e-05
7.05503e-05
7.05509e-05
7.04835e-05
4.99408e-05
4.99495e-05
7.04464e-05
4.20067e-05
6.70566e-05
2.55184e-05
4.92702e-05
6.70816e-05
4.17694e-05
2.5631e-05
4.33617e-05
2.62227e-05
5.02317e-05
6.71393e-05
4.30934e-05
6.71709e-05
2.63587e-05
7.06127e-05
7.13063e-05
4.24882e-05
3.49499e-05
7.12261e-05
4.2913e-05
7.06552e-05
7.14663e-05
6.94328e-05
6.66946e-05
7.1455e-05
6.70108e-05
4.10657e-05
6.7045e-05
2.52908e-05
4.84657e-05
4.13117e-05
2.51826e-05
6.70244e-05
7.0798e-05
7.14648e-05
4.2192e-05
3.40626e-05
7.07512e-05
7.15512e-05
4.17672e-05
7.06094e-05
7.0496e-05
7.04339e-05
7.0536e-05
7.0496e-05
7.90697e-05
7.29012e-05
7.29079e-05
7.29168e-05
7.29228e-05
7.86487e-05
4.21191e-05
6.7056e-05
2.55e-05
4.92754e-05
2.56768e-05
6.7084e-05
4.17149e-05
4.24493e-05
4.94655e-05
2.599e-05
6.71249e-05
6.70969e-05
4.26935e-05
2.58733e-05
7.92548e-05
7.29255e-05
7.29309e-05
7.29133e-05
7.29188e-05
7.96148e-05
4.23696e-05
4.94634e-05
2.60151e-05
6.71252e-05
2.58413e-05
6.70953e-05
4.27439e-05
7.05358e-05
7.0496e-05
7.04341e-05
8.01722e-05
7.29215e-05
7.29268e-05
7.97943e-05
7.29339e-05
7.29386e-05
4.34432e-05
2.62027e-05
6.71408e-05
5.02375e-05
4.30524e-05
6.7175e-05
2.63904e-05
7.04342e-05
7.06134e-05
4.24897e-05
7.13068e-05
3.49503e-05
4.29169e-05
7.12268e-05
7.06557e-05
7.14589e-05
6.57038e-05
6.93819e-05
6.60569e-05
7.14441e-05
7.05255e-05
3.51767e-05
4.36352e-05
7.10015e-05
4.32087e-05
7.10756e-05
7.04873e-05
7.14511e-05
6.93901e-05
6.65569e-05
6.62228e-05
7.14646e-05
7.14508e-05
6.93859e-05
6.65381e-05
6.62044e-05
7.14635e-05
7.14581e-05
6.56857e-05
6.93778e-05
6.60386e-05
7.14439e-05
7.0525e-05
3.51766e-05
4.36323e-05
7.10008e-05
7.10751e-05
4.3207e-05
7.04867e-05
7.03732e-05
4.39236e-05
7.08583e-05
3.6117e-05
7.04074e-05
4.43484e-05
7.07897e-05
7.14675e-05
6.67134e-05
6.94371e-05
7.14554e-05
6.70298e-05
7.03725e-05
4.39221e-05
7.08577e-05
3.61169e-05
7.04069e-05
7.07891e-05
4.43455e-05
7.11243e-05
3.30214e-05
7.19838e-05
4.07471e-05
7.20822e-05
4.03255e-05
7.10682e-05
7.14104e-05
6.33085e-05
7.13908e-05
6.37495e-05
7.12473e-05
3.28245e-05
7.23677e-05
3.96099e-05
7.1308e-05
7.22629e-05
4.00275e-05
7.14075e-05
6.43762e-05
6.92771e-05
6.3959e-05
7.14261e-05
7.07435e-05
7.11241e-05
3.30213e-05
4.07479e-05
7.19837e-05
4.03258e-05
7.20823e-05
7.10682e-05
7.14077e-05
6.43766e-05
6.92781e-05
6.39593e-05
7.14261e-05
7.07975e-05
7.07436e-05
7.65451e-05
7.28714e-05
7.28645e-05
7.28534e-05
7.28471e-05
7.70361e-05
3.92479e-05
4.71977e-05
2.43635e-05
6.69703e-05
3.93275e-05
4.72043e-05
2.43764e-05
6.69762e-05
7.62856e-05
7.28528e-05
7.28461e-05
3.96548e-05
6.69864e-05
4.74187e-05
2.46577e-05
2.4559e-05
6.69752e-05
3.99347e-05
3.96728e-05
6.69926e-05
4.74265e-05
2.46728e-05
2.45588e-05
6.69808e-05
4.00179e-05
7.05259e-05
3.51768e-05
7.10015e-05
4.3634e-05
7.10756e-05
4.32087e-05
7.04874e-05
7.14587e-05
6.57037e-05
6.9381e-05
7.14443e-05
6.60569e-05
7.06134e-05
3.49495e-05
7.13067e-05
4.24891e-05
7.0656e-05
7.12268e-05
4.29159e-05
7.14513e-05
6.6557e-05
6.93891e-05
6.62226e-05
7.14642e-05
7.05257e-05
3.51761e-05
4.3635e-05
7.10016e-05
4.32084e-05
7.10756e-05
7.04874e-05
7.14588e-05
6.57043e-05
6.93821e-05
7.14445e-05
6.60574e-05
7.06134e-05
3.4951e-05
4.24892e-05
7.13067e-05
7.06558e-05
4.29162e-05
7.12269e-05
7.14515e-05
6.65572e-05
6.93903e-05
6.6223e-05
7.14643e-05
7.05363e-05
7.04967e-05
4.23904e-05
2.59961e-05
4.94636e-05
6.7122e-05
2.58548e-05
6.70931e-05
4.27021e-05
4.2034e-05
2.55092e-05
4.92692e-05
6.70539e-05
2.56414e-05
4.17123e-05
6.70796e-05
7.92478e-05
7.29316e-05
7.29251e-05
7.29182e-05
7.29122e-05
7.9632e-05
4.20782e-05
2.55151e-05
6.70593e-05
4.92756e-05
4.1751e-05
2.56532e-05
6.70851e-05
7.90553e-05
7.29065e-05
7.29005e-05
7.86351e-05
7.29216e-05
7.29152e-05
4.24406e-05
2.6012e-05
6.71281e-05
4.94711e-05
2.58643e-05
6.70987e-05
4.2757e-05
7.07427e-05
7.07432e-05
7.64703e-05
7.28738e-05
7.28672e-05
7.2847e-05
7.28404e-05
7.70354e-05
3.9606e-05
6.69862e-05
4.74168e-05
2.4658e-05
6.69742e-05
3.99611e-05
2.45549e-05
3.96554e-05
6.69927e-05
4.74248e-05
2.46652e-05
6.69804e-05
4.00041e-05
2.45618e-05
7.06088e-05
7.06551e-05
7.06093e-05
7.06555e-05
7.77656e-05
7.28769e-05
7.28703e-05
7.734e-05
7.2893e-05
7.28863e-05
4.10066e-05
2.52978e-05
4.8464e-05
6.70412e-05
6.70203e-05
2.5173e-05
4.13306e-05
4.10555e-05
2.53063e-05
4.8471e-05
6.70479e-05
6.70268e-05
2.5181e-05
4.13771e-05
4.06703e-05
6.69939e-05
2.48606e-05
4.82568e-05
4.03544e-05
6.70112e-05
2.49744e-05
4.07094e-05
6.70003e-05
2.48678e-05
4.82637e-05
4.03989e-05
6.70176e-05
2.49811e-05
7.79653e-05
7.29063e-05
7.28995e-05
7.28903e-05
7.28836e-05
7.83798e-05
7.11237e-05
3.30215e-05
7.1983e-05
4.07468e-05
7.20818e-05
4.03251e-05
7.10678e-05
7.14109e-05
6.32917e-05
6.92654e-05
7.13911e-05
6.37333e-05
7.12467e-05
3.28255e-05
7.23673e-05
3.96083e-05
7.22621e-05
7.13075e-05
4.00274e-05
7.14076e-05
6.43593e-05
6.92737e-05
6.39426e-05
7.14263e-05
7.09033e-05
7.18101e-05
4.10464e-05
3.38489e-05
7.09547e-05
7.1718e-05
4.14706e-05
7.14346e-05
6.93331e-05
6.55282e-05
7.14504e-05
6.51548e-05
7.14395e-05
6.45739e-05
6.93249e-05
7.14223e-05
6.49687e-05
7.07988e-05
3.40619e-05
7.14656e-05
4.21932e-05
7.07518e-05
7.15516e-05
4.17674e-05
7.14343e-05
6.93292e-05
6.55106e-05
6.5137e-05
7.14503e-05
7.09027e-05
7.18097e-05
4.10447e-05
3.38498e-05
7.09542e-05
7.17173e-05
4.14683e-05
7.14395e-05
6.9321e-05
6.45565e-05
7.14221e-05
6.49508e-05
7.07982e-05
4.21916e-05
3.40618e-05
7.1465e-05
7.15512e-05
4.17665e-05
7.07513e-05
7.65071e-05
7.28681e-05
7.28745e-05
7.28427e-05
7.2849e-05
7.70549e-05
3.97165e-05
6.69918e-05
4.74244e-05
2.46651e-05
6.69801e-05
2.45652e-05
3.9963e-05
3.95936e-05
6.6987e-05
4.74184e-05
2.4682e-05
2.45305e-05
6.69746e-05
3.99976e-05
7.07427e-05
7.06094e-05
7.06556e-05
7.79492e-05
7.29003e-05
7.2907e-05
7.83921e-05
7.28825e-05
7.28895e-05
4.10049e-05
6.70435e-05
2.53247e-05
4.84676e-05
4.13927e-05
6.70217e-05
2.51618e-05
7.77408e-05
7.2869e-05
7.28756e-05
7.73231e-05
7.28838e-05
7.28907e-05
4.06441e-05
4.82607e-05
6.69999e-05
2.48726e-05
2.49701e-05
4.04325e-05
6.70158e-05
4.07027e-05
4.82568e-05
6.69942e-05
2.48459e-05
4.03278e-05
6.70116e-05
2.50001e-05
7.06089e-05
7.0655e-05
7.11237e-05
3.30214e-05
7.19837e-05
4.07467e-05
7.20813e-05
4.03258e-05
7.10677e-05
7.14105e-05
6.32899e-05
6.9266e-05
7.13909e-05
6.37309e-05
7.12466e-05
3.28255e-05
7.23667e-05
3.96091e-05
7.22628e-05
7.13075e-05
4.00265e-05
7.14075e-05
6.43577e-05
6.92741e-05
6.39404e-05
7.14259e-05
7.09033e-05
4.10458e-05
7.18102e-05
3.38503e-05
7.09545e-05
4.14708e-05
7.1718e-05
7.14347e-05
6.93341e-05
6.55287e-05
7.14505e-05
6.51551e-05
7.14396e-05
6.4574e-05
6.93259e-05
7.14224e-05
6.49688e-05
7.07986e-05
3.40617e-05
4.21942e-05
7.14657e-05
7.07518e-05
4.17679e-05
7.15516e-05
7.09027e-05
7.18092e-05
4.10455e-05
3.38503e-05
7.09541e-05
7.17179e-05
4.14688e-05
7.14341e-05
6.93299e-05
6.55089e-05
6.51359e-05
7.145e-05
7.14392e-05
6.45552e-05
6.93217e-05
7.1422e-05
6.49496e-05
7.07982e-05
3.40618e-05
7.14656e-05
4.21923e-05
7.15507e-05
4.17671e-05
7.07513e-05
7.11241e-05
3.30218e-05
4.07475e-05
7.19836e-05
4.0326e-05
7.20825e-05
7.1068e-05
7.14073e-05
6.43757e-05
6.92777e-05
6.39584e-05
7.14262e-05
7.11236e-05
3.30222e-05
7.19828e-05
4.0746e-05
7.20819e-05
4.03258e-05
7.10676e-05
7.14076e-05
6.43584e-05
6.9274e-05
6.39414e-05
7.14259e-05
7.07984e-05
4.21945e-05
7.14655e-05
3.40624e-05
7.07518e-05
4.1768e-05
7.15517e-05
7.14343e-05
6.5528e-05
6.93341e-05
7.14506e-05
6.51548e-05
7.09031e-05
3.38496e-05
4.10468e-05
7.18103e-05
7.09545e-05
4.14704e-05
7.17178e-05
7.14396e-05
6.93254e-05
6.45735e-05
7.1422e-05
6.49679e-05
7.14343e-05
6.55101e-05
6.93301e-05
7.145e-05
6.51366e-05
7.09026e-05
3.38495e-05
7.18098e-05
4.10447e-05
7.09539e-05
7.17171e-05
4.14679e-05
7.14392e-05
6.93216e-05
6.45558e-05
7.14221e-05
6.49502e-05
7.66062e-05
7.28628e-05
7.28694e-05
7.28497e-05
7.28561e-05
7.69986e-05
3.93247e-05
2.42741e-05
6.69691e-05
4.72068e-05
6.69763e-05
3.8969e-05
2.43708e-05
3.92844e-05
2.42683e-05
6.69639e-05
4.72007e-05
2.4363e-05
3.89273e-05
6.69709e-05
7.63195e-05
7.28195e-05
7.28258e-05
7.28496e-05
7.57263e-05
7.28561e-05
3.9709e-05
6.69927e-05
4.74284e-05
2.46696e-05
6.6981e-05
2.45651e-05
3.99995e-05
3.9663e-05
6.6987e-05
4.74224e-05
2.46594e-05
2.45593e-05
6.69756e-05
3.99567e-05
7.07972e-05
7.07431e-05
7.06099e-05
7.06558e-05
7.77221e-05
7.28624e-05
7.28689e-05
7.72254e-05
7.28838e-05
7.28903e-05
4.10861e-05
2.53155e-05
4.84753e-05
6.70488e-05
2.51848e-05
6.70263e-05
4.14114e-05
4.10376e-05
2.53033e-05
4.84691e-05
6.70428e-05
6.70205e-05
2.51785e-05
4.1365e-05
4.06891e-05
6.69993e-05
2.48612e-05
4.82649e-05
2.49808e-05
4.03504e-05
6.70163e-05
4.06457e-05
6.69937e-05
2.48569e-05
4.82584e-05
4.03043e-05
6.70105e-05
2.49698e-05
7.80223e-05
7.29037e-05
7.29103e-05
7.2887e-05
7.28935e-05
7.84454e-05
7.06093e-05
7.06553e-05
7.11241e-05
3.30217e-05
4.07485e-05
7.19836e-05
4.03266e-05
7.20822e-05
7.1068e-05
7.14107e-05
6.33078e-05
6.92702e-05
6.37491e-05
7.13905e-05
7.12469e-05
3.28254e-05
3.9609e-05
7.23677e-05
4.00269e-05
7.13078e-05
7.22627e-05
7.14072e-05
6.43765e-05
6.92781e-05
6.39589e-05
7.14263e-05
7.11235e-05
3.3022e-05
4.07469e-05
7.19829e-05
4.03254e-05
7.20818e-05
7.10675e-05
7.14105e-05
6.32908e-05
6.92663e-05
7.1391e-05
6.37322e-05
7.12464e-05
3.28255e-05
3.96085e-05
7.23673e-05
7.13072e-05
4.00269e-05
7.2262e-05
7.14076e-05
6.43588e-05
6.92742e-05
6.39414e-05
7.14259e-05
7.09031e-05
4.10461e-05
7.18101e-05
3.38498e-05
7.09544e-05
4.14701e-05
7.17178e-05
7.14342e-05
6.93341e-05
6.55277e-05
6.51546e-05
7.14507e-05
7.14397e-05
6.45741e-05
6.93259e-05
7.14219e-05
6.49682e-05
7.07984e-05
3.40617e-05
4.21943e-05
7.14655e-05
4.17671e-05
7.15515e-05
7.07517e-05
7.09026e-05
4.10455e-05
7.18097e-05
3.38499e-05
7.09538e-05
4.14687e-05
7.17172e-05
7.14343e-05
6.93301e-05
6.55098e-05
6.51368e-05
7.145e-05
7.14392e-05
6.45562e-05
6.93219e-05
7.14221e-05
6.49504e-05
7.07979e-05
3.4062e-05
4.21925e-05
7.14649e-05
4.17665e-05
7.15511e-05
7.07511e-05
7.07973e-05
7.07431e-05
7.07977e-05
7.07436e-05
4.10507e-05
2.53001e-05
4.84683e-05
6.70425e-05
4.13493e-05
2.51868e-05
6.70216e-05
7.77408e-05
7.28712e-05
7.28647e-05
7.72675e-05
7.28906e-05
7.28839e-05
4.104e-05
2.53081e-05
4.84697e-05
6.70472e-05
4.13861e-05
2.51757e-05
6.70249e-05
4.06349e-05
4.82562e-05
6.69936e-05
2.48646e-05
4.03557e-05
2.49674e-05
6.70098e-05
4.07206e-05
6.69997e-05
2.48587e-05
4.82643e-05
4.03507e-05
2.49871e-05
6.70174e-05
7.79699e-05
7.29084e-05
7.2902e-05
7.84265e-05
7.28914e-05
7.28844e-05
7.06553e-05
7.06097e-05
7.06558e-05
7.05355e-05
7.04956e-05
7.05361e-05
7.04963e-05
7.92452e-05
7.29315e-05
7.29247e-05
7.29191e-05
7.29123e-05
7.96038e-05
4.2046e-05
2.55075e-05
6.7053e-05
4.92692e-05
4.17072e-05
6.70793e-05
2.56472e-05
4.20905e-05
2.55165e-05
6.70598e-05
4.92773e-05
4.17588e-05
6.70862e-05
2.56553e-05
7.9058e-05
7.29068e-05
7.29e-05
7.86354e-05
7.29223e-05
7.29155e-05
4.2384e-05
6.71217e-05
4.94623e-05
2.59953e-05
6.70928e-05
4.26927e-05
2.5853e-05
4.24343e-05
6.71287e-05
4.94693e-05
2.60046e-05
6.70997e-05
4.27406e-05
2.58615e-05
7.14584e-05
6.93771e-05
6.56863e-05
7.14439e-05
6.60394e-05
7.14507e-05
6.93852e-05
6.65386e-05
6.62048e-05
7.14637e-05
7.05252e-05
4.36316e-05
3.51759e-05
7.1001e-05
7.10751e-05
4.32065e-05
7.04868e-05
7.06128e-05
4.24881e-05
3.49502e-05
7.13063e-05
7.12262e-05
7.06554e-05
4.29132e-05
7.14664e-05
6.9432e-05
6.66947e-05
7.14549e-05
6.70113e-05
7.03726e-05
4.39217e-05
3.61171e-05
7.08578e-05
7.04071e-05
7.07892e-05
4.43456e-05
7.05252e-05
3.51763e-05
7.10013e-05
4.36327e-05
7.10749e-05
4.32074e-05
7.04868e-05
7.14581e-05
6.56848e-05
6.93779e-05
7.14437e-05
6.60379e-05
7.06128e-05
3.49513e-05
7.13059e-05
4.24886e-05
7.12267e-05
7.06554e-05
4.29142e-05
7.14506e-05
6.65376e-05
6.9386e-05
6.62037e-05
7.14635e-05
7.03732e-05
3.61179e-05
4.39233e-05
7.08582e-05
7.04076e-05
4.43488e-05
7.07898e-05
7.03726e-05
3.61183e-05
7.08576e-05
4.39222e-05
7.04071e-05
7.07894e-05
4.43464e-05
7.14663e-05
6.66941e-05
6.94328e-05
7.14548e-05
6.70101e-05
7.92399e-05
7.2926e-05
7.29327e-05
7.29125e-05
7.29191e-05
7.96467e-05
4.20603e-05
2.5513e-05
6.70601e-05
4.92754e-05
6.70853e-05
4.17502e-05
2.56501e-05
4.20131e-05
2.55064e-05
6.70541e-05
4.9269e-05
2.56383e-05
4.16999e-05
6.70791e-05
7.90096e-05
7.29003e-05
7.29069e-05
7.2914e-05
7.86342e-05
7.29206e-05
4.24304e-05
6.7129e-05
4.94724e-05
2.60154e-05
6.70988e-05
2.58587e-05
4.27712e-05
4.23791e-05
6.71226e-05
4.9466e-05
2.60026e-05
2.58518e-05
6.70926e-05
4.2722e-05
7.05357e-05
7.04961e-05
7.04345e-05
8.01574e-05
7.29217e-05
7.29283e-05
7.98293e-05
7.29321e-05
7.29388e-05
4.34146e-05
6.71441e-05
2.6223e-05
5.02358e-05
2.63781e-05
4.31156e-05
6.71764e-05
4.33638e-05
6.71377e-05
2.62148e-05
5.02293e-05
4.3062e-05
6.71698e-05
2.63648e-05
7.04339e-05
7.05255e-05
3.51762e-05
4.36343e-05
7.10015e-05
4.32086e-05
7.10755e-05
7.04872e-05
7.1459e-05
6.57038e-05
6.93822e-05
6.60572e-05
7.14439e-05
7.06133e-05
3.4951e-05
4.24899e-05
7.13066e-05
4.29161e-05
7.06556e-05
7.12267e-05
7.1451e-05
6.65569e-05
6.93903e-05
6.62232e-05
7.14646e-05
7.05249e-05
3.51763e-05
4.36335e-05
7.10009e-05
4.32065e-05
7.10751e-05
7.04866e-05
7.14581e-05
6.56857e-05
6.93781e-05
7.14439e-05
6.60388e-05
7.06127e-05
3.49511e-05
4.24879e-05
7.13062e-05
7.06551e-05
4.29151e-05
7.12262e-05
7.14508e-05
6.65385e-05
6.93862e-05
6.62045e-05
7.14635e-05
7.14674e-05
6.67133e-05
6.94371e-05
7.14553e-05
6.70293e-05
7.05358e-05
7.05364e-05
7.04967e-05
4.33664e-05
2.62111e-05
5.02285e-05
6.71371e-05
2.63641e-05
4.30496e-05
6.71695e-05
8.01645e-05
7.29268e-05
7.29209e-05
7.98076e-05
7.29391e-05
7.29327e-05
4.34125e-05
2.62207e-05
6.71432e-05
5.02357e-05
4.30988e-05
2.63761e-05
6.71757e-05
7.04346e-05
1.99899e-05
1.97161e-05
1.99897e-05
2.01861e-05
2.01863e-05
2.05814e-05
2.03924e-05
2.31651e-05
1.84294e-05
1.91251e-05
1.91249e-05
2.43023e-05
1.78701e-05
1.90769e-05
1.90776e-05
1.90761e-05
2.42e-05
1.9077e-05
2.38945e-05
1.80598e-05
1.907e-05
1.90697e-05
1.90758e-05
1.90754e-05
2.39905e-05
1.84551e-05
1.99975e-05
3.22314e-05
2.63908e-05
2.62834e-05
1.99823e-05
1.84212e-05
2.31643e-05
1.91578e-05
1.91586e-05
1.84297e-05
1.91253e-05
2.30842e-05
1.91246e-05
2.38946e-05
1.80596e-05
1.90698e-05
1.90701e-05
1.90754e-05
1.90758e-05
2.39921e-05
2.38945e-05
1.90699e-05
1.80593e-05
1.90696e-05
2.39912e-05
1.90794e-05
1.90722e-05
2.43017e-05
1.90774e-05
1.90772e-05
1.78705e-05
2.41989e-05
1.90768e-05
1.90765e-05
1.8388e-05
2.00465e-05
3.27488e-05
2.66282e-05
2.00662e-05
1.84153e-05
2.67385e-05
1.83575e-05
2.02146e-05
3.35532e-05
2.73456e-05
2.02425e-05
1.83688e-05
2.74612e-05
2.43017e-05
1.90771e-05
1.90774e-05
1.78703e-05
1.90767e-05
2.42004e-05
1.90764e-05
2.49703e-05
1.91165e-05
1.76407e-05
1.91174e-05
1.91233e-05
2.48589e-05
1.91243e-05
1.77246e-05
1.75022e-05
2.14956e-05
1.94752e-05
2.15592e-05
1.74204e-05
1.77883e-05
1.83889e-05
2.00478e-05
2.66328e-05
3.27503e-05
2.00682e-05
2.67432e-05
1.84162e-05
1.76972e-05
1.95354e-05
1.73e-05
2.17673e-05
2.16984e-05
1.73781e-05
1.76394e-05
1.83871e-05
3.30183e-05
2.01493e-05
2.71002e-05
2.01248e-05
2.69871e-05
1.83678e-05
2.43021e-05
1.90746e-05
1.90802e-05
1.78706e-05
1.90796e-05
2.41996e-05
1.90738e-05
2.4522e-05
1.78149e-05
1.90923e-05
1.90956e-05
1.9089e-05
2.46287e-05
1.90929e-05
2.49704e-05
1.91151e-05
1.76413e-05
1.91189e-05
2.48582e-05
1.91262e-05
1.91217e-05
1.77243e-05
1.75021e-05
2.14951e-05
1.94753e-05
1.74204e-05
2.15586e-05
1.7788e-05
1.83863e-05
2.01479e-05
3.30172e-05
2.70955e-05
2.69829e-05
1.83668e-05
2.0124e-05
1.83879e-05
2.66287e-05
2.00467e-05
3.27482e-05
2.67386e-05
2.00664e-05
1.84153e-05
1.76969e-05
1.95354e-05
1.73e-05
2.17666e-05
1.73779e-05
2.16979e-05
1.76392e-05
1.75637e-05
1.72621e-05
2.1917e-05
1.9674e-05
1.76157e-05
2.19908e-05
1.71887e-05
1.83582e-05
2.02155e-05
2.73502e-05
3.35541e-05
1.83696e-05
2.0244e-05
2.74659e-05
1.83572e-05
2.02142e-05
3.35523e-05
2.73459e-05
1.83687e-05
2.74611e-05
2.02423e-05
1.75635e-05
1.7262e-05
2.19165e-05
1.96741e-05
1.76153e-05
1.71887e-05
2.19902e-05
1.95179e-05
1.9716e-05
1.99897e-05
2.0186e-05
2.01863e-05
2.05814e-05
2.03923e-05
2.05885e-05
2.05887e-05
1.99181e-05
2.03857e-05
2.03859e-05
2.07731e-05
2.09676e-05
2.05885e-05
2.05887e-05
1.99181e-05
2.03857e-05
2.03859e-05
2.07731e-05
2.09676e-05
2.05884e-05
2.05886e-05
1.99179e-05
2.03856e-05
2.03858e-05
2.0773e-05
2.09675e-05
2.05884e-05
2.05886e-05
1.9918e-05
2.03856e-05
2.03858e-05
2.0773e-05
2.09675e-05
1.97163e-05
1.99896e-05
1.99898e-05
2.01862e-05
2.01864e-05
2.05815e-05
2.03924e-05
1.9716e-05
1.99895e-05
1.99897e-05
2.0186e-05
2.01863e-05
2.05814e-05
2.03923e-05
1.81184e-05
1.92877e-05
2.10316e-05
1.78352e-05
2.0984e-05
1.79247e-05
1.8037e-05
1.85667e-05
2.57287e-05
3.14758e-05
1.98998e-05
1.98923e-05
2.56281e-05
1.85198e-05
1.81182e-05
1.92875e-05
1.7835e-05
2.10312e-05
1.79245e-05
2.09838e-05
1.80367e-05
1.85846e-05
1.98684e-05
2.5316e-05
3.12292e-05
1.86383e-05
1.98711e-05
2.54127e-05
1.816e-05
1.92706e-05
1.80824e-05
2.08472e-05
1.8247e-05
1.7991e-05
2.0889e-05
1.85665e-05
2.57285e-05
3.14763e-05
1.99e-05
1.9893e-05
2.5628e-05
1.85195e-05
2.33379e-05
1.83376e-05
1.90928e-05
1.90924e-05
1.91176e-05
1.91171e-05
2.34224e-05
1.96058e-05
1.93238e-05
1.91332e-05
1.97965e-05
1.96061e-05
2.00221e-05
2.0206e-05
1.97964e-05
1.97966e-05
1.91333e-05
1.96059e-05
1.96061e-05
2.00222e-05
2.02061e-05
1.97962e-05
1.97964e-05
1.91332e-05
1.96058e-05
1.9606e-05
2.00221e-05
2.0206e-05
1.76969e-05
1.95353e-05
1.72998e-05
2.17667e-05
1.7378e-05
2.16981e-05
1.76391e-05
1.83882e-05
2.00463e-05
2.66315e-05
3.27476e-05
1.84156e-05
2.0066e-05
2.67414e-05
1.77242e-05
1.94751e-05
1.75021e-05
2.14951e-05
1.77879e-05
1.74202e-05
2.15586e-05
1.83866e-05
2.70985e-05
3.30163e-05
2.01476e-05
2.01235e-05
2.69859e-05