/*--------------------------------*- C++ -*----------------------------------*\
| =========                 |                                                 |
| \\      /  F ield         | OpenFOAM: The Open Source CFD Toolbox           |
|  \\    /   O peration     | Version:  v2006                                 |
|   \\  /    A nd           | Website:  www.openfoam.com                      |
|    \\/     M anipulation  |                                                 |
\*---------------------------------------------------------------------------*/
FoamFile
{
    version     2.0;
    format      ascii;
    class       surfaceScalarField;
    location    "750";
    object      phi;
}
// * * * * * * * * * * * * * * * * * * * * * * * * * * * * * * * * * * * * * //

dimensions      [0 3 -1 0 0 0 0];
oriented        oriented;


internalField   nonuniform List<scalar> 
41099
(
4.41552e-08
2.22458e-09
9.89997e-05
-9.90461e-05
4.41437e-08
2.19061e-09
9.89884e-05
-9.90347e-05
1.5519e-06
1.51172e-06
0.000274318
-4.93283e-07
-5.01549e-07
-0.000276387
4.10017e-08
-6.40111e-09
1.51538e-07
0.000284537
-0.000284679
4.09327e-08
-5.77323e-09
1.53759e-07
0.000284457
-0.000284601
1.43654e-10
2.19495e-07
-6.85107e-08
-9.23376e-09
0.000236513
-0.000236655
1.11932e-07
-9.10041e-09
0.00019712
-0.000197221
2.1948e-07
-6.8497e-08
-9.13896e-09
0.000236471
-0.000236613
1.03799e-09
-2.19141e-08
5.22273e-07
0.000260419
-0.000260701
4.21598e-07
8.5523e-07
1.16008e-06
-5.08695e-07
1.29684e-07
7.26069e-07
-5.46619e-07
5.27332e-08
-1.25312e-06
-0.00113537
4.58297e-08
3.26021e-07
0.00025303
-0.000253249
3.49564e-09
8.98673e-07
7.87056e-07
-1.19258e-06
-1.36246e-06
5.88174e-07
-0.00113711
-2.27792e-08
5.19552e-07
0.000260393
-0.000260669
8.9863e-07
7.86956e-07
-1.19535e-06
-1.36498e-06
5.88186e-07
-0.00113708
-4.21124e-07
2.22045e-07
2.6437e-10
-9.24339e-09
-6.63893e-08
0.000236504
-0.000236651
1.11908e-07
-9.14829e-09
0.000197099
-0.000197199
1.95073e-09
-2.26553e-08
5.1951e-07
0.000260413
-0.00026069
4.20186e-07
8.55508e-07
1.11968e-06
-5.00376e-07
1.21321e-07
7.20688e-07
-5.43768e-07
5.01467e-08
-1.24735e-06
-0.00113637
4.33246e-08
3.25913e-07
0.000252995
-0.000253211
3.96643e-09
8.98244e-07
7.84001e-07
-1.19252e-06
-1.36233e-06
5.8256e-07
-0.00113698
2.19487e-07
-6.84562e-08
-9.15121e-09
0.000236467
-0.000236608
1.11802e-07
-2.10868e-09
-9.16521e-09
0.000197047
-0.000197147
5.16827e-07
-2.25625e-08
0.000260388
-0.00026066
4.21521e-07
-1.54935e-06
8.4956e-07
7.23347e-07
-5.46481e-07
-1.25016e-06
5.28062e-08
1.15736e-06
-5.05995e-07
1.26723e-07
-0.00113539
8.92857e-07
7.84183e-07
-1.19254e-06
-1.36223e-06
5.8263e-07
-0.00113694
-4.33347e-08
4.33072e-08
3.28356e-07
0.000252927
-0.000253143
-1.54358e-06
8.55005e-07
-5.46461e-07
5.27811e-08
1.15162e-06
-5.05852e-07
1.26782e-07
-0.00113506
-1.24733e-06
-1.11863e-07
-4.33017e-08
3.2844e-07
0.000252966
-0.000253182
4.32683e-08
-2.1544e-09
0.000197056
-0.000197156
-9.17005e-09
4.411e-08
9.89771e-05
-9.90233e-05
1.51155e-06
0.000274298
-4.96338e-07
-5.01178e-07
-0.000276362
-6.34958e-09
1.51451e-07
0.000284418
-0.000284562
-4.4176e-08
4.33445e-08
-5.72612e-09
1.53818e-07
0.00028454
-0.000284687
2.167e-09
9.89925e-05
-9.90389e-05
8.17164e-10
-2.19584e-07
5.19607e-07
-2.18627e-08
0.000260411
-0.00026069
4.20518e-07
8.5537e-07
1.11936e-06
-5.03072e-07
1.2411e-07
7.20616e-07
-5.43795e-07
-1.2446e-06
5.29202e-08
-0.00113587
2.75182e-09
8.98184e-07
7.81233e-07
-1.18977e-06
-1.35959e-06
5.82527e-07
-0.00113677
-1.11839e-07
4.33674e-08
3.28407e-07
0.000253029
-0.000253245
-2.19576e-07
5.19601e-07
-2.33667e-08
0.000260383
-0.000260659
4.20181e-07
-1.5007e-06
8.55316e-07
7.20642e-07
-5.46306e-07
-1.24695e-06
5.31093e-08
1.10837e-06
-4.97554e-07
1.18438e-07
-0.00113606
8.98123e-07
7.7822e-07
-1.18694e-06
-1.35651e-06
5.79682e-07
-0.00113671
-1.118e-07
-4.08254e-08
4.32848e-08
3.28273e-07
0.00025293
-0.000253149
7.90876e-11
-8.96416e-09
-6.64089e-08
0.000236504
-0.000236649
-9.11985e-09
0.000197103
-0.000197203
-9.19097e-09
-6.64148e-08
0.000236466
-0.00023661
-2.14587e-09
-9.12531e-09
0.000197048
-0.000197148
0.00027429
-4.93312e-07
-5.04198e-07
-0.000276337
-4.41814e-08
-5.73758e-09
1.5389e-07
0.000284502
-0.00028465
-4.41883e-08
-5.68162e-09
1.53794e-07
0.000284418
-0.000284562
9.89838e-05
-9.90301e-05
9.89775e-05
-9.90238e-05
1.91761e-08
-8.77816e-09
1.91786e-08
-8.81433e-09
-0.000218115
-1.44692e-08
-1.4519e-08
4.5594e-08
4.77082e-08
2.92079e-08
8.1696e-05
1.00083e-08
-8.17352e-05
2.92421e-08
8.16775e-05
9.96738e-09
-8.17167e-05
7.83998e-08
7.62945e-08
-0.000218211
-3.24092e-09
-3.24105e-09
-0.000227917
-4.95229e-08
7.14211e-08
7.10034e-08
9.47192e-08
0.000186387
-0.000186478
-1.24253e-07
0.000259037
2.77474e-07
1.57991e-07
-0.000259197
1.34039e-08
7.49424e-08
8.77853e-09
1.80158e-07
-0.000228048
9.37124e-08
8.55246e-08
-0.000227842
-4.75941e-08
7.11517e-08
6.90908e-08
9.67142e-08
0.000186324
-0.000186416
-1.23925e-07
0.000258919
2.77038e-07
1.55146e-07
-0.000259074
1.29271e-08
7.25444e-08
8.75793e-09
1.82683e-07
-0.000227976
9.37015e-08
8.79831e-08
-0.000145157
4.19225e-09
2.1686e-08
-5.35565e-09
-2.16406e-09
0.000173226
2.93937e-11
-0.000173292
-6.0057e-08
0.000229459
-1.24989e-08
1.98675e-07
-0.000229594
-2.55609e-08
-8.03823e-09
7.11473e-11
1.06139e-07
-4.58521e-09
-0.000145214
2.84599e-12
-9.80847e-09
8.18705e-08
-8.00963e-05
-1.49899e-09
-3.54346e-08
0.000268843
1.56795e-07
-0.000268986
-3.49118e-09
3.89975e-08
-8.01363e-05
5.24154e-08
-0.000145084
4.20011e-09
2.16555e-08
-5.38011e-09
-2.12403e-09
0.000173191
-0.000173257
-6.00331e-08
0.000229362
1.9615e-07
-0.000229495
-1.23989e-08
-2.55568e-08
-8.23141e-09
1.0611e-07
-0.000145142
-4.54908e-09
8.42375e-08
-9.82328e-09
-0.000145154
2.17056e-08
4.0671e-09
-5.43785e-09
-6.00859e-08
0.000229454
-1.24662e-08
1.98711e-07
-0.000229589
-2.1906e-09
0.000173223
3.36759e-11
-0.000173287
-7.79141e-09
-2.77325e-08
-1.86424e-11
1.06116e-07
-4.6401e-09
-0.000145211
-9.86942e-09
8.18897e-08
1.18612e-11
-8.00958e-05
-1.5565e-09
-3.54044e-08
0.000268839
1.54308e-07
-0.00026898
-3.49913e-09
3.89508e-08
-8.01359e-05
5.46999e-08
-0.000145079
4.19688e-09
1.96253e-08
-5.40201e-09
-2.17987e-09
0.000173186
-0.000173252
-6.20521e-08
0.000229357
-1.246e-08
1.98528e-07
-0.00022949
-2.56606e-08
-8.22724e-09
1.08656e-07
-4.56685e-09
-0.000145139
-9.80217e-09
8.1875e-08
-8.00505e-05
-1.50005e-09
-3.54252e-08
0.000268712
1.56679e-07
-0.000268855
-3.5487e-09
8.85333e-09
3.89476e-08
-8.00905e-05
5.23084e-08
8.86351e-09
3.89231e-08
1.93184e-08
-0.00021811
-1.44808e-08
-1.4589e-08
4.56538e-08
4.76809e-08
2.9189e-08
8.16772e-05
1.00684e-08
-8.17164e-05
2.92953e-08
8.16942e-05
9.93876e-09
-8.17334e-05
7.85192e-08
7.61418e-08
-0.000218206
-3.24959e-09
-3.31846e-09
7.13873e-08
-0.000227833
-4.9589e-08
7.35439e-08
9.47217e-08
0.000186324
-0.000186415
0.000258875
-1.24242e-07
1.58045e-07
2.746e-07
-0.000259032
7.4941e-08
1.34915e-08
6.3444e-09
8.56457e-08
9.64487e-08
1.77972e-07
-0.000227961
-0.000227915
-4.76006e-08
7.14258e-08
6.89333e-08
9.67286e-08
0.000186387
-0.000186479
-1.24177e-07
0.000259047
2.77393e-07
1.60632e-07
-0.000259207
1.30425e-08
7.25154e-08
-1.92121e-08
6.30703e-09
1.8235e-07
-0.000228049
9.37345e-08
8.29759e-08
-8.86764e-09
-0.000145154
1.96865e-08
4.24563e-09
-5.26499e-09
-6.21023e-08
0.00022946
-1.25213e-08
1.98637e-07
-0.000229593
-2.19543e-09
0.000173223
1.06891e-11
-0.000173287
-8.32132e-09
-2.7752e-08
9.06355e-11
1.06158e-07
-4.82319e-09
-0.000145213
-9.87322e-09
8.19923e-08
4.00423e-12
-8.00955e-05
-3.65616e-09
-3.75228e-08
0.00026885
1.56599e-07
-0.000268991
-3.50295e-09
3.89222e-08
-8.01378e-05
5.24144e-08
-0.00014508
2.16789e-08
4.2373e-09
-5.44736e-09
-6.00733e-08
0.00022936
-1.24742e-08
1.96206e-07
-0.000229493
-2.18602e-09
0.000173186
-0.00017325
-8.24939e-09
-2.77247e-08
1.06123e-07
-4.64475e-09
-0.000145138
-9.88057e-09
8.43076e-08
-8.00502e-05
-1.58697e-09
-3.53825e-08
0.000268718
1.54222e-07
-0.000268858
-3.48665e-09
8.87424e-09
3.88486e-08
-8.00903e-05
5.46208e-08
-0.000218109
-1.26788e-08
-1.45732e-08
4.55251e-08
4.55609e-08
3.10891e-08
8.16917e-05
9.93753e-09
-8.17328e-05
2.92583e-08
8.16769e-05
9.93644e-09
-8.17161e-05
7.85676e-08
7.8502e-08
-0.000218206
-3.25183e-09
-3.31911e-09
-0.000227905
7.15947e-08
-4.55643e-08
6.88011e-08
9.8701e-08
0.000186378
-0.000186473
-1.24246e-07
0.000258999
1.60637e-07
2.77478e-07
-0.000259159
7.25748e-08
1.29058e-08
-1.92141e-08
6.35942e-09
1.82424e-07
-0.000228035
8.30112e-08
9.38449e-08
-0.000227834
7.1273e-08
-4.76133e-08
7.1354e-08
9.6759e-08
0.000186322
-0.000186414
-1.24013e-07
0.000258883
1.55245e-07
2.74532e-07
-0.000259035
7.25573e-08
1.30699e-08
-1.92112e-08
8.61685e-09
1.80438e-07
-0.000227963
8.81146e-08
9.63296e-08
4.51557e-07
4.52215e-07
-0.00114469
4.67217e-07
-2.26589e-10
-0.00115092
4.67405e-07
1.69958e-09
-0.00115137
-1.15768e-09
1.94454e-09
-0.00115955
4.67184e-07
-0.00115086
-4.51381e-07
2.05437e-09
-0.00115952
-4.67354e-07
4.51569e-07
4.5213e-07
-0.00114431
4.67001e-07
-0.00115057
4.67253e-07
-1.10585e-09
-0.00115102
-1.51421e-09
-0.00115896
4.52145e-07
-0.00114433
4.51437e-07
4.67272e-07
-0.00115097
-0.00115893
-4.66929e-07
-0.000250721
4.5592e-09
7.54264e-09
8.40583e-08
9.18078e-08
-3.31837e-07
0.000268648
-0.000269041
-3.29665e-07
0.000269082
-0.000269478
-0.00025102
-0.000273534
2.42113e-08
4.67802e-08
-8.78146e-08
5.1314e-07
0.000259196
-3.75097e-08
-0.000259494
-4.39433e-08
0.000273361
7.55289e-11
-0.000273987
-2.04934e-08
1.31554e-08
5.33916e-10
-8.7233e-08
-0.00027434
-3.06831e-08
2.69483e-09
-9.98867e-08
-0.000272906
4.16973e-08
4.53264e-07
0.000259592
-0.000259881
0.000269291
1.23703e-07
-0.000269477
1.38907e-08
2.19937e-08
-0.000273669
-0.000273469
2.43058e-08
4.5659e-08
-8.51284e-08
5.12985e-07
0.000259108
-0.00025941
-3.74204e-08
-4.68817e-08
0.000273347
-0.000273976
-2.07096e-08
1.60796e-08
-0.000274278
-8.96574e-08
-3.06409e-08
-0.000273529
2.66905e-08
4.27308e-08
-7.44454e-08
5.15767e-07
0.000259186
-3.75444e-08
-0.000259488
-4.74797e-08
0.000273357
7.64756e-09
-0.000273991
-1.97293e-08
1.60235e-08
-3.70329e-10
-1.00325e-07
-0.000274322
-3.07333e-08
-4.74335e-09
-9.96956e-08
-0.000272916
4.44684e-08
4.55742e-07
0.000259574
-0.00025987
0.000269277
1.23518e-07
-0.000269463
1.37246e-08
2.45417e-08
-0.000273684
-0.000273465
4.72e-08
2.42906e-08
-8.78048e-08
-4.55222e-08
0.000273339
-0.000273961
5.12928e-07
0.000259105
-3.74641e-08
-0.000259405
1.89539e-08
-2.11253e-08
-8.70121e-08
-0.000274273
-3.07223e-08
-0.000272827
4.69018e-08
-1.02518e-07
4.58268e-07
0.000259476
-0.000259772
1.20887e-07
0.000269199
-0.00026938
2.4672e-08
1.10137e-08
-0.000273585
0.000269237
-0.000269413
1.18234e-07
1.10382e-08
4.75382e-09
-0.000250708
7.5539e-09
8.66292e-08
9.15959e-08
0.000269027
-3.32246e-07
-0.000269422
-3.29187e-07
0.000268663
-0.000269061
-0.000251009
-0.000273525
4.51533e-08
2.65907e-08
-7.71528e-08
-4.51312e-08
0.000273346
-7.87376e-10
-0.000273971
5.15717e-07
0.000259192
-4.00211e-08
-0.000259491
1.61057e-08
-2.05476e-08
5.53189e-10
-9.77082e-08
-0.000274316
3.52737e-09
-2.83178e-08
-0.000272917
-9.98458e-08
4.68296e-08
4.58226e-07
0.000259588
-0.000259886
1.2353e-07
0.00026931
-0.000269489
1.09883e-08
2.46815e-08
-0.000273678
-0.000273464
4.37848e-08
2.41172e-08
-6.91952e-08
-4.92507e-08
0.000273339
-0.000273958
5.13046e-07
0.000259103
-4.00124e-08
-0.000259403
1.61021e-08
-2.05194e-08
-1.05612e-07
-0.000274251
-2.83129e-08
-0.000272841
4.44916e-08
-9.97904e-08
4.5549e-07
0.000259485
-0.000259783
1.23456e-07
0.000269216
-0.000269402
2.46161e-08
1.08041e-08
-0.000273615
-0.000250697
4.68887e-09
7.71923e-09
8.38681e-08
9.42536e-08
-3.31881e-07
0.000268613
-0.000269003
-3.29572e-07
0.000269042
-0.000269439
-0.000250995
-1.53114e-06
4.99765e-07
-5.71298e-07
1.03574e-06
6.22346e-08
6.30194e-07
-6.78078e-07
-1.34435e-06
-2.5102e-08
1.03508e-06
0.00111282
-0.000272617
1.56016e-06
-5.74949e-07
-5.78213e-07
1.52334e-06
0.000270686
1.05879e-06
0.00111107
1.03968e-06
5.08634e-07
-1.5596e-06
6.19395e-08
-5.71957e-07
-1.34281e-06
-2.5574e-08
-6.80768e-07
6.26199e-07
1.02157e-06
1.04041e-06
5.29399e-07
-1.52292e-06
5.91795e-08
-5.69383e-07
-1.3454e-06
-2.30304e-08
-6.83491e-07
6.29046e-07
0.00111203
-0.000270516
-1.31389e-08
-6.86294e-09
-5.75197e-07
-5.80011e-07
0.000270713
1.56839e-06
5.06194e-07
-5.72258e-07
6.3321e-07
-6.80389e-07
-2.02484e-08
-1.34409e-06
1.03982e-06
0.00111193
1.0677e-06
6.75905e-08
5.1689e-07
5.60866e-07
0.00111347
9.89872e-08
0.000101961
-9.80968e-09
-1.04561e-07
-2.49041e-07
4.92119e-07
1.20205e-07
0.000261587
-0.00110838
1.6509e-08
6.77587e-07
-1.23838e-06
-1.42633e-06
4.81651e-07
0.0011093
1.06233e-06
-0.000263425
-4.22944e-07
1.88257e-09
0.000263257
-5.52725e-08
6.44281e-07
-0.000296455
1.06963e-07
-9.66373e-08
2.90564e-07
-6.12573e-09
0.00029616
-0.000296363
-9.65686e-08
2.90266e-07
-6.03819e-09
1.04352e-07
0.000296071
1.24747e-09
1.0628e-06
-1.42711e-06
4.77344e-07
6.76011e-07
-1.23933e-06
-3.00397e-07
-1.52343e-09
-0.000263229
-5.97571e-08
1.65599e-07
-6.54079e-11
0.000246254
-0.000246361
-2.29035e-08
-1.70435e-07
0.00110834
1.06287e-06
-1.42154e-06
4.74582e-07
-1.23661e-06
6.70591e-07
-1.70144e-07
-6.6145e-08
0.000261775
1.35427e-07
-0.000261779
1.05651e-07
-3.00364e-07
0.000263396
-0.000263206
1.68353e-07
-5.88118e-08
2.16341e-08
0.00020527
-0.000205419
-4.30627e-08
0.000246213
-0.00024632
-1.70392e-07
-2.2732e-08
1.05703e-06
-1.42141e-06
4.77291e-07
-1.23662e-06
6.73054e-07
0.00110821
-1.7013e-07
-6.8706e-08
1.32711e-07
-0.00026174
1.05695e-07
0.000261741
-2.97803e-07
-0.000263198
1.65645e-07
-5.8589e-08
0.000263387
2.15825e-08
-0.000205409
-4.30057e-08
0.000205261
-0.000246315
-2.27771e-08
-1.70402e-07
0.00024621
-7.17736e-08
2.00141e-07
-0.000296664
1.47575e-08
-7.16896e-08
1.99875e-07
-0.000296575
1.47401e-08
0.000102047
-0.000102097
0.00010204
-0.00010209
2.90147e-07
-7.31924e-09
0.00029607
1.06899e-07
-9.63357e-08
2.87799e-07
-8.37648e-09
0.000296204
-1.01265e-08
0.000101972
-4.84888e-08
0.000205114
1.98352e-10
0.000246061
-2.29383e-08
-2.06948e-07
6.77761e-07
-1.23838e-06
4.81706e-07
-1.42345e-06
0.0011093
1.06798e-06
-2.48715e-07
4.94135e-07
1.2022e-07
0.000261516
-4.22927e-07
0.000263232
6.44265e-07
-5.54383e-08
1.03932e-08
-4.85391e-08
0.000205059
0.00024602
-2.06947e-07
-2.29798e-08
0.000101961
-1.0343e-08
0.000101954
6.72367e-08
0.000101915
-2.14826e-08
-2.60108e-07
-0.0002657
4.12031e-07
2.67596e-07
0.000265571
1.8748e-07
-1.58231e-08
-0.000193271
0.000193093
-1.82065e-07
-0.00023699
3.26183e-07
0.000236774
-2.60282e-07
-0.000265577
4.09209e-07
0.000265454
2.65066e-07
1.87824e-07
-1.60584e-08
-0.000193209
0.000193031
-1.82465e-07
-0.000236922
3.25051e-07
0.000236707
5.09279e-08
-8.43289e-05
8.42621e-05
5.10139e-08
-8.43112e-05
8.42442e-05
-0.000227975
0.000227713
7.68715e-08
8.24181e-05
-1.33276e-08
-0.000281492
-3.47282e-08
2.63468e-08
0.00028125
2.06739e-07
2.78276e-08
3.26201e-07
-1.25294e-08
8.23959e-05
1.6034e-07
-9.40011e-09
0.000150422
-2.28453e-08
-2.15799e-07
1.50068e-10
4.30288e-07
-0.000239828
-1.13636e-07
0.000239679
2.65996e-07
-0.00018031
7.57499e-09
7.00373e-12
0.000180132
3.99013e-07
1.75905e-11
0.000150303
7.47111e-08
8.23717e-05
-1.35411e-08
-4.98101e-08
1.01668e-08
2.54802e-07
-0.000281357
-3.69214e-08
2.62329e-08
0.000281118
2.06544e-07
2.76291e-08
3.26348e-07
-1.23324e-08
8.23471e-05
-9.41562e-09
1.58214e-07
0.000150348
-2.15783e-07
-2.24203e-08
4.30278e-07
-0.000180276
7.58824e-09
0.000180098
-0.000239725
-1.1564e-07
0.000239579
2.65783e-07
3.99007e-07
0.000150228
7.46817e-08
8.23717e-05
-1.35017e-08
-4.97784e-08
1.01765e-08
2.54776e-07
-0.000281349
-3.68865e-08
2.62761e-08
2.06509e-07
0.00028111
2.99064e-08
3.26155e-07
-1.23037e-08
8.23471e-05
1.58244e-07
-9.40037e-09
0.000150345
-2.2486e-08
-2.15806e-07
4.32906e-07
-0.000239719
-1.15651e-07
2.65797e-07
0.000239573
-0.000180271
7.57562e-09
0.000180093
3.98999e-07
0.000150224
0.000237108
2.64142e-07
-1.91178e-07
-1.86025e-07
3.30128e-07
-2.03622e-07
-0.000265702
2.16263e-07
1.8994e-07
2.95715e-07
-7.75224e-09
-9.87897e-08
1.10051e-07
1.36613e-07
-0.000193389
-2.98154e-09
-1.50135e-07
2.0087e-07
4.15549e-07
2.69131e-07
-1.76387e-08
0.000237042
2.63696e-07
-1.91258e-07
-1.86101e-07
3.28011e-07
-2.02757e-07
-0.000265585
2.18361e-07
1.92255e-07
2.95799e-07
-8.02478e-09
-9.88262e-08
1.07643e-07
1.36052e-07
-0.000193328
-2.76897e-09
-1.49843e-07
2.03318e-07
4.1262e-07
2.66385e-07
-1.7739e-08
0.000228202
-5.03682e-08
-5.04709e-08
3.66281e-08
-8.43685e-05
3.65655e-08
-8.43506e-05
-1.31997e-07
-0.000236706
1.99029e-07
-1.46088e-07
2.00965e-07
0.000236584
-2.58451e-07
0.000265445
4.06435e-07
2.66305e-07
0.000193028
1.86934e-07
-1.74172e-08
1.54957e-08
1.95389e-07
0.000295863
6.32839e-08
-2.16353e-09
0.000192913
-1.80513e-07
3.2055e-07
2.15153e-07
0.00026544
1.84691e-07
1.97716e-07
-0.000236784
-1.32879e-07
-1.47032e-07
1.96709e-07
0.00023667
0.000265619
-2.58584e-07
4.09238e-07
2.65972e-07
1.8475e-07
0.000193095
-1.75367e-08
1.97004e-07
1.56226e-08
-6.91733e-08
6.59993e-08
0.000295995
2.16869e-07
1.88841e-07
0.000265608
-1.78064e-07
3.2154e-07
-1.91164e-09
0.000192979
-3.60848e-08
-0.000227719
-3.62587e-08
0.000227498
8.42442e-05
4.96725e-08
4.96362e-08
8.42601e-05
8.42059e-05
8.4222e-05
-2.14287e-08
0.000101925
3.4009e-08
-8.23329e-05
-1.23116e-08
8.23112e-05
0.000280928
-7.62883e-08
2.77434e-08
3.22191e-07
-4.16396e-08
1.6463e-07
0.000204969
2.61437e-08
1.98252e-07
0.000280696
-1.3196e-08
1.08319e-07
-0.000150145
-8.16543e-09
0.000150033
-2.31838e-08
-1.61832e-07
3.2434e-11
2.93489e-07
0.000245952
0.000239444
-1.54893e-07
3.94717e-07
1.00979e-08
0.000179915
4.36873e-11
2.57155e-07
0.000239298
3.47861e-11
0.000179745
-8.22864e-05
3.62387e-08
-1.21203e-08
8.22623e-05
-7.40769e-08
0.000280797
2.7731e-08
3.19451e-07
-4.17867e-08
1.64662e-07
0.000204915
2.16736e-08
-1.33776e-08
2.61934e-08
2.00502e-07
0.000280565
-0.000150072
-8.20694e-09
1.10372e-07
0.000149957
-1.61806e-07
-2.3149e-08
2.93454e-07
0.000245911
1.0113e-08
0.000179881
-1.52751e-07
0.000239344
3.92078e-07
0.000179711
2.5954e-07
0.000239198
-4.5006e-07
-0.000268951
0.000268665
-4.50374e-07
-0.000269386
5.69585e-07
0.000269098
-0.000256234
0.000255985
0.000256061
4.50778e-07
4.51284e-07
-5.75925e-07
-5.81702e-07
-1.15379e-07
-0.00026857
-1.15597e-07
-0.000269
1.11118e-07
-0.000255993
1.11059e-07
0.000256168
-4.48584e-07
0.00026908
5.74108e-07
0.000268715
-4.48023e-07
-5.95342e-09
-6.53966e-09
-1.07058e-06
0.000272832
0.000269099
-7.06284e-08
0.00026947
5.47964e-07
1.90395e-08
0.00111845
5.97172e-09
0.00112526
5.63774e-07
0.00111774
5.09863e-07
0.00111819
0.0011248
-0.000272409
-1.60622e-07
-9.07157e-08
1.0746e-07
0.000273183
1.85001e-07
0.000271519
6.13021e-07
0.000266607
1.0097e-07
-0.000266878
1.30886e-07
1.02652e-07
0.000261584
1.28055e-07
-0.000273084
0.000271653
1.00004e-07
0.000266717
-0.000271077
-1.22231e-07
5.64856e-08
0.000271928
-5.77149e-08
1.60339e-07
-1.40048e-10
0.000263448
6.55058e-07
0.000263805
-0.000264019
-5.95436e-08
0.000269986
-0.000270527
6.58405e-09
-0.00027178
0.000263982
-2.74305e-09
0.000270687
0.000272305
-6.19141e-07
1.2884e-07
9.5595e-08
-0.000266763
1.02032e-07
1.08169e-07
1.02635e-07
0.000270928
-6.60843e-07
6.28761e-08
-5.71136e-08
6.47501e-07
4.80151e-10
1.27336e-07
-0.000263839
-5.97904e-08
-0.000269818
-6.12043e-09
3.9315e-09
-6.19305e-07
-1.83631e-07
0.000272219
1.17994e-07
-0.000271408
1.64953e-07
0.000271543
1.22975e-07
4.96309e-07
-0.000266667
9.57012e-08
1.01811e-07
0.000266782
1.02429e-07
1.18547e-07
0.000272988
5.90426e-08
-6.58054e-07
0.000270869
6.44848e-07
-5.59216e-08
-0.000269804
-6.0012e-08
0.000270501
-0.00026376
1.3001e-07
0.000263939
0.000271728
-6.19187e-07
-1.83465e-07
0.000272224
1.36329e-07
-0.000271394
1.64765e-07
0.000271531
1.22992e-07
4.98928e-07
-0.000266651
9.29485e-08
9.93755e-08
0.000266771
1.07595e-07
1.02715e-07
0.000273008
6.40119e-08
-6.58134e-07
0.000270865
6.47572e-07
-5.69814e-08
-0.000269805
-5.74019e-08
0.000270505
-0.00026375
1.27414e-07
0.000263929
0.000271711
-1.63655e-07
-0.000272324
-8.76622e-08
1.15504e-07
0.000273093
0.000271441
1.8298e-07
6.1537e-07
0.000266506
1.00866e-07
1.28221e-07
1.02686e-07
-6.32747e-08
0.000261513
-1.87114e-07
0.000271573
1.17812e-07
1.00065e-07
0.000266621
5.97225e-08
-0.000271018
-1.22045e-07
0.000271874
1.60313e-07
-5.85133e-08
0.000263423
0.000269972
-5.86198e-08
6.54827e-07
0.000263721
0.000270671
0.0002639
-0.0011157
4.8915e-07
0.00111651
-1.53234e-06
6.54349e-07
-6.67725e-07
1.72246e-09
-1.34075e-06
-5.67262e-07
1.05465e-06
8.31399e-08
1.01973e-06
-0.000294517
9.45945e-08
-8.99173e-08
-5.97557e-09
2.6872e-07
0.000294249
8.65555e-08
-0.000293604
-8.34339e-08
2.5169e-07
0.00029335
-9.62822e-10
-0.00111212
-4.73756e-09
0.00111304
-4.90809e-07
1.03457e-06
6.94754e-07
-1.23463e-06
4.98238e-07
-1.41708e-06
-0.000244996
-1.22342e-10
3.96442e-07
-1.74919e-07
-2.33065e-08
0.000244797
-0.00111732
-1.53563e-06
4.94962e-07
1.05566e-06
-5.73724e-07
8.41669e-08
6.61388e-07
-6.72117e-07
-1.34005e-06
5.82355e-09
0.00111813
1.00325e-06
-0.00111397
-2.45251e-09
-4.96704e-07
7.05506e-07
-1.23291e-06
-1.42055e-06
5.06051e-07
0.00111489
1.02375e-06
8.82132e-09
-0.000203268
2.15613e-07
0.000203083
-3.98982e-08
-1.0148e-06
-9.91223e-07
3.94473e-07
-0.00111671
5.24605e-07
0.0011178
-1.53419e-06
1.02462e-06
4.84332e-07
0.00111271
-5.75547e-07
1.025e-06
6.12914e-08
6.30718e-07
-6.7778e-07
-1.34156e-06
-1.99735e-08
-1.00844e-06
-1.00262e-06
0.00111977
5.20334e-07
5.20092e-07
-0.0011188
-0.00111527
-1.52972e-06
1.01396e-06
5.00709e-07
0.0011161
-5.68681e-07
1.04309e-06
7.42664e-08
6.48572e-07
-6.68054e-07
-1.33824e-06
-9.75339e-09
-0.000273291
1.52696e-06
1.56429e-06
0.00027134
-5.68542e-07
-5.7204e-07
-1.08282e-06
-1.04278e-06
0.000273332
-0.000271213
1.23406e-09
5.66345e-09
1.01261e-06
5.1145e-07
0.00111237
6.41149e-07
-6.75234e-07
-1.34696e-06
-2.04927e-08
0.00111479
1.0134e-06
-0.00111394
5.04262e-07
-1.572e-06
7.73185e-08
-5.75235e-07
-1.3457e-06
-1.23461e-08
-6.71528e-07
6.50351e-07
-5.44734e-08
0.000260725
-1.46137e-07
1.09282e-07
-0.000260728
9.37604e-08
-6.05423e-08
2.02906e-08
1.75877e-07
-0.000294707
-1.55765e-06
1.05047e-06
5.44211e-07
0.00111226
-5.7293e-07
1.07066e-06
6.96919e-08
6.33416e-07
-6.80533e-07
-1.34416e-06
-2.23342e-08
0.00111576
1.01942e-06
-0.00111492
5.03155e-07
-1.52972e-06
7.45556e-08
-5.69768e-07
-1.34282e-06
-1.21427e-08
-6.71486e-07
6.47635e-07
1.07788e-06
0.00111481
1.01854e-06
-0.00111397
5.04172e-07
-1.56679e-06
7.50956e-08
-5.73608e-07
-1.34236e-06
-1.20786e-08
-6.70962e-07
6.47909e-07
1.04328e-06
4.82078e-07
-0.00111476
6.83684e-08
-1.53758e-06
-5.87014e-07
-1.35642e-06
-1.66622e-08
6.45033e-07
-6.9598e-07
1.04009e-06
-1.96346e-08
-4.9856e-07
-0.00111117
-1.42356e-06
4.94223e-07
6.90677e-07
-1.23555e-06
-2.6076e-10
2.70794e-07
-1.38026e-07
-2.34675e-08
-0.000245105
-5.78232e-07
-5.72773e-07
0.000270703
-1.0403e-06
0.000273311
-0.000271195
-8.17162e-10
3.61558e-09
1.02399e-06
5.15785e-07
0.00111291
1.02508e-06
6.1971e-08
6.33388e-07
-6.7764e-07
-2.23573e-08
-1.34123e-06
1.01365e-06
-0.00111442
5.0325e-07
-1.52944e-06
7.24105e-08
-5.70566e-07
-1.33962e-06
-1.20573e-08
6.45099e-07
-6.70993e-07
1.02628e-06
0.00111542
-0.00111457
5.0263e-07
-1.51641e-06
5.41128e-08
-5.53446e-07
1.01311e-06
-1.33143e-06
-3.83361e-08
-6.38649e-07
6.3941e-07
-1.08521e-06
-3.80422e-08
-0.000271179
3.72281e-08
-2.12105e-08
6.0288e-08
0.000101537
-0.000101576
1.57256e-06
1.53035e-06
-5.70061e-07
-5.75595e-07
0.000271375
1.00254e-06
5.01772e-07
0.00111563
-5.75415e-07
1.0863e-06
7.98512e-08
6.54392e-07
-6.6515e-07
-1.34371e-06
-1.19574e-08
-2.28606e-07
4.75205e-07
0.000260464
1.08927e-07
-0.000260183
-2.15592e-07
4.6045e-07
0.000259921
1.03524e-07
1.01422e-06
5.00573e-07
0.00111659
-5.72786e-07
1.04614e-06
7.71199e-08
6.51715e-07
-6.6782e-07
-1.34081e-06
-9.44954e-09
-1.56424e-06
1.01338e-06
4.96188e-07
0.00111564
-5.68889e-07
1.07805e-06
7.69811e-08
6.51369e-07
-6.68019e-07
-1.34098e-06
-9.76362e-09
-5.67352e-07
-5.72055e-07
0.000271356
0.00111629
5.06313e-07
1.03559e-06
-5.75182e-07
7.10447e-08
1.00823e-06
6.46032e-07
-6.81536e-07
-1.6439e-08
-1.34608e-06
0.000101305
-2.03585e-08
5.84178e-08
-0.000101343
1.56702e-06
-0.000273606
-5.61144e-07
0.00027165
-5.71617e-07
1.52215e-06
8.34264e-08
0.00010123
-0.000101545
-9.54578e-09
0.000101465
5.88277e-08
0.000101311
-2.04583e-08
-0.000101349
0.00111304
-0.00111212
6.97317e-07
-1.23468e-06
4.98238e-07
-1.42259e-06
1.0342e-06
-3.99036e-07
-3.80572e-10
-0.000263485
6.34104e-07
-5.48308e-08
0.000263305
-9.20001e-08
-2.26178e-07
-0.000260745
4.72679e-07
1.11667e-07
0.000260479
4.97294e-07
1.04094e-06
-1.32841e-06
-3.08483e-08
-6.32275e-07
6.49377e-07
-1.52491e-06
6.16032e-08
-5.51589e-07
7.23336e-09
0.00111395
-1.41895e-06
5.02115e-07
-1.23381e-06
7.01267e-07
1.02874e-06
-2.58026e-07
-9.21689e-10
0.000263478
-0.000263296
1.32385e-07
-5.58353e-08
-5.17867e-08
-1.38261e-07
0.000260211
-0.000260228
1.19061e-07
8.79255e-08
-0.000273324
1.56965e-06
-5.64245e-07
-5.75581e-07
0.000271361
-8.77767e-08
-0.000294473
-3.91059e-09
2.6685e-07
0.000294206
4.9228e-08
-0.000293759
1.42155e-07
2.19831e-08
0.000273637
-1.09201e-06
-0.000271518
-2.82486e-08
4.14274e-08
-5.84409e-08
0.000293582
-0.000293796
2.05044e-07
1.59626e-08
-9.66744e-09
-0.000101542
0.000101464
0.00010131
-2.03789e-08
-0.000101348
-8.97618e-09
0.000101236
1.56773e-06
-5.70496e-07
0.000271671
-5.6648e-07
-8.35249e-08
8.90865e-08
2.63592e-07
-4.55399e-09
0.000293317
-8.86658e-09
0.000101235
-0.000245035
-2.3946e-08
-1.74928e-07
0.000244835
-0.000203947
-4.28623e-08
0.000203754
7.10035e-11
0.000244417
-0.000244528
-2.32745e-08
-1.23862e-07
0.000203313
-0.000203437
-3.44594e-08
-0.000263454
6.31437e-07
-5.23886e-08
0.000263271
-4.99206e-07
-1.41882e-06
5.02183e-07
-1.23378e-06
7.01556e-07
1.02909e-06
0.00111533
-0.00111453
1.08362e-06
-5.67122e-07
8.21952e-08
6.48694e-07
-6.54214e-07
-7.48684e-09
-1.32987e-06
1.01906e-06
0.00111614
1.08425e-06
-1.33347e-06
-7.38629e-09
6.55108e-07
-6.5901e-07
1.00815e-06
-1.56405e-06
8.19703e-08
-5.71608e-07
-1.38273e-07
0.000260176
-4.91638e-08
1.05899e-07
-0.000260182
8.78644e-08
-2.23873e-07
-9.22883e-08
-0.000260707
1.09207e-07
4.65156e-07
0.000260449
-2.58004e-07
0.000263448
-0.00026327
1.35138e-07
-5.57802e-08
-0.000203392
-3.45028e-08
-0.0002039
9.68729e-09
-4.25273e-08
0.000203709
0.000244379
-0.00024449
-2.31088e-08
-1.23836e-07
7.05222e-07
-1.23016e-06
-1.41792e-06
5.05958e-07
0.00111485
1.02344e-06
-3.82043e-07
1.90896e-09
6.25123e-07
-5.24026e-08
0.000263285
-2.15578e-07
4.65299e-07
1.03634e-07
0.000259947
3.06101e-10
-2.32505e-08
-1.60879e-07
0.000244219
-3.98281e-08
0.000203128
-5.73216e-07
1.08453e-06
8.38515e-08
6.58614e-07
-6.61004e-07
-1.33713e-06
-5.17787e-09
0.00111696
1.00298e-06
-8.92555e-08
4.65533e-07
0.000259911
1.03567e-07
-3.82048e-07
6.22466e-07
-5.25487e-08
0.000263262
-2.31211e-08
-1.60882e-07
0.000244181
8.65644e-11
2.81558e-07
0.000245653
-0.00024576
-1.51422e-07
-2.36582e-08
2.26196e-10
4.25448e-07
0.000246062
-2.06823e-07
-2.29292e-08
2.16307e-08
1.59058e-07
0.000204638
-4.03675e-08
-0.000204779
-2.16362e-08
6.48367e-08
0.000101786
-0.000101829
2.84076e-07
-2.01199e-10
0.000245645
-0.000245752
-2.3449e-08
-1.53572e-07
2.15802e-08
1.58997e-07
0.000204614
-4.02929e-08
-0.000204754
0.00112199
-1.32778e-07
-4.91879e-07
-0.00112086
5.32361e-07
5.30827e-07
5.09941e-07
0.00111479
5.36407e-07
4.28518e-07
0.00111471
5.41792e-07
5.26454e-07
0.00111444
5.14687e-07
5.47963e-07
0.00111447
0.00111778
-0.0011168
5.24496e-07
5.19834e-07
0.00111742
-0.00111643
5.19153e-07
5.25139e-07
-2.84082e-07
-1.78151e-09
0.000263471
-0.000263284
-5.94018e-08
1.57829e-07
5.08227e-07
1.03346e-06
0.00111371
1.03556e-06
-1.34572e-06
-2.67573e-08
-6.77696e-07
6.31936e-07
-1.53463e-06
6.08724e-08
-5.71854e-07
-6.21862e-08
-1.59007e-07
0.000261309
1.04725e-07
-0.000261324
1.31104e-07
-1.9464e-08
0.00111028
1.05673e-06
-1.42822e-06
4.85975e-07
-1.2429e-06
6.82045e-07
-1.02938e-08
9.90098e-08
0.000101954
-2.13484e-08
6.68531e-08
0.000101776
-0.000101822
-8.79258e-10
-2.84131e-07
0.000263466
-0.000263275
1.52425e-07
-5.88358e-08
0.0011092
-1.52428e-08
1.05697e-06
6.77659e-07
-1.23838e-06
-1.42362e-06
4.81716e-07
-1.07031e-07
-2.48563e-07
4.94029e-07
1.20257e-07
0.000261582
5.02775e-07
1.03394e-06
0.00111357
1.02964e-06
-1.34009e-06
-1.7599e-08
-6.7473e-07
6.37087e-07
-1.52854e-06
6.83455e-08
-5.7098e-07
2.18525e-10
-4.25497e-07
0.000263253
6.44265e-07
-5.39577e-08
-9.55333e-09
0.00111016
1.04564e-06
-1.42275e-06
4.85912e-07
-1.23741e-06
6.81972e-07
-6.02234e-08
-1.59247e-07
0.000261315
9.95147e-08
-0.000261318
1.23878e-07
-1.06825e-06
-1.0256e-06
0.000272964
-0.000270856
-1.17953e-08
-2.2591e-09
6.00851e-08
-6.7076e-08
0.000295465
1.94193e-08
-0.00029567
1.92632e-07
6.02014e-08
-6.6981e-08
0.00029538
1.59966e-08
-0.000295579
1.89977e-07
-2.2318e-10
2.58025e-07
-0.000244539
-1.21675e-07
-2.31515e-08
0.000244426
-0.000203973
9.61138e-09
2.2628e-07
-4.29314e-08
0.00020378
-0.000245043
1.77115e-10
3.96427e-07
0.000244847
-1.77065e-07
-2.36692e-08
2.03898e-08
1.38387e-07
-3.45368e-08
-0.000203463
0.000203339
2.58008e-07
-2.11137e-10
0.000244416
-0.000244527
-2.31343e-08
-1.23852e-07
-0.000203947
9.57007e-09
2.263e-07
-4.29086e-08
0.000203754
-0.000245033
3.96466e-07
3.06387e-10
0.000244835
-2.37061e-08
-1.74933e-07
2.0438e-08
1.38303e-07
-3.45418e-08
-0.000203437
0.000203312
0.00112303
-5.11396e-07
5.29986e-07
-2.55882e-08
5.22324e-07
5.17606e-07
0.00111876
5.11455e-07
5.23075e-07
0.00111841
-0.000101529
-9.44205e-09
8.74068e-08
0.000101452
-2.04408e-08
5.85879e-08
0.000101297
-0.000101335
-8.65246e-10
-2.58036e-07
-0.000263295
1.32382e-07
-5.66401e-08
0.000263479
0.00111298
-0.00111205
2.63774e-09
1.02879e-06
6.91819e-07
-1.23471e-06
-1.41727e-06
4.98212e-07
-0.00026078
-9.50122e-08
-2.26348e-07
4.72974e-07
1.09105e-07
0.00026052
4.98282e-07
1.04641e-06
0.00111693
1.00889e-06
-1.33621e-06
-7.10078e-09
-6.64366e-07
6.52639e-07
-1.53039e-06
7.62439e-08
-5.69025e-07
-0.000263486
7.23643e-10
-3.96513e-07
0.0002633
6.34222e-07
-5.32351e-08
-3.98111e-09
1.0288e-06
-1.4162e-06
5.02196e-07
-1.23375e-06
6.95933e-07
0.0011139