/*--------------------------------*- C++ -*----------------------------------*\
| =========                 |                                                 |
| \\      /  F ield         | OpenFOAM: The Open Source CFD Toolbox           |
|  \\    /   O peration     | Version:  v2012                                 |
|   \\  /    A nd           | Website:  www.openfoam.com                      |
|    \\/     M anipulation  |                                                 |
\*---------------------------------------------------------------------------*/
FoamFile
{
    version     2.0;
    format      ascii;
    class       volScalarField;
    location    "1400";
    object      epsilon;
}
// * * * * * * * * * * * * * * * * * * * * * * * * * * * * * * * * * * * * * //

dimensions      [0 2 -3 0 0 0 0];


internalField   nonuniform List<scalar> 
171728
(
1.52421e-09
3.50292e-09
4.17718e-09
5.05648e-09
1.49273e-09
3.16065e-09
3.80706e-09
4.63768e-09
1.41749e-09
2.86436e-09
3.45863e-09
4.29918e-09
1.3466e-09
2.62631e-09
3.14421e-09
3.97646e-09
1.27544e-09
2.42653e-09
2.86191e-09
3.69791e-09
1.21096e-09
2.2601e-09
2.63412e-09
3.48189e-09
1.15361e-09
2.12674e-09
2.45853e-09
3.23238e-09
1.10285e-09
2.02391e-09
2.32495e-09
3.06259e-09
1.05486e-09
1.95298e-09
2.22707e-09
2.97291e-09
1.00781e-09
1.91412e-09
2.15839e-09
2.96054e-09
9.63573e-10
1.90825e-09
2.13126e-09
3.00242e-09
9.20293e-10
1.93569e-09
2.15056e-09
3.09659e-09
8.80623e-10
2.00809e-09
2.22131e-09
3.15606e-09
8.40862e-10
2.13648e-09
2.35248e-09
3.17887e-09
8.00304e-10
2.336e-09
2.55266e-09
3.25689e-09
7.62806e-10
2.64132e-09
2.87407e-09
3.49212e-09
7.27225e-10
3.14339e-09
3.3581e-09
3.82236e-09
6.93923e-10
3.84516e-09
4.09816e-09
4.06248e-09
6.69359e-10
4.95808e-09
5.27796e-09
5.64021e-09
6.49713e-10
6.60973e-09
7.01657e-09
7.54574e-09
6.45682e-10
8.95372e-09
9.24952e-09
1.09694e-08
6.61968e-10
1.26837e-08
1.30545e-08
1.86972e-08
6.72184e-10
1.7282e-08
1.83854e-08
2.59107e-08
7.57794e-10
2.49335e-08
2.49031e-08
5.24648e-08
8.12247e-10
3.12259e-08
3.40698e-08
6.38707e-08
8.66095e-10
4.59907e-08
4.69075e-08
1.12713e-07
1.11088e-09
5.86846e-08
5.9576e-08
1.63972e-07
1.31892e-09
7.42079e-08
7.65027e-08
2.11661e-07
1.63042e-09
9.52691e-08
1.00189e-07
2.81671e-07
2.07112e-09
1.17686e-07
1.12764e-07
3.74242e-07
3.01478e-09
1.42502e-07
1.46997e-07
4.51239e-07
3.72834e-09
1.74902e-07
1.76626e-07
5.01861e-07
5.12619e-09
2.03102e-07
1.9799e-07
5.94709e-07
6.73846e-09
2.46509e-07
2.49432e-07
6.47597e-07
9.08261e-09
2.72077e-07
2.78548e-07
7.08264e-07
1.15759e-08
3.29369e-07
3.15236e-07
7.53586e-07
1.63093e-08
3.55541e-07
3.69335e-07
8.06184e-07
1.92756e-08
4.1021e-07
4.00271e-07
8.38495e-07
2.59429e-08
4.53241e-07
4.61345e-07
8.84666e-07
3.33492e-08
4.96812e-07
4.98924e-07
9.06325e-07
3.84436e-08
5.68769e-07
5.49799e-07
9.50102e-07
5.47206e-08
5.95403e-07
6.21654e-07
9.88228e-07
6.05721e-08
6.18531e-07
6.35063e-07
9.83286e-07
7.05065e-08
7.16452e-07
6.73673e-07
1.04384e-06
9.88505e-08
7.54385e-07
7.61041e-07
1.07825e-06
1.08536e-07
7.7798e-07
7.89349e-07
1.08764e-06
1.22475e-07
8.17216e-07
8.22903e-07
1.10923e-06
1.47859e-07
8.64972e-07
8.51896e-07
1.14184e-06
1.67858e-07
9.05246e-07
9.14192e-07
1.17152e-06
2.09641e-07
9.45316e-07
9.44671e-07
1.18963e-06
2.3275e-07
9.65721e-07
9.63358e-07
1.221e-06
2.45752e-07
9.98169e-07
1.00652e-06
1.24246e-06
2.88217e-07
1.02997e-06
1.02814e-06
1.24775e-06
3.19037e-07
1.04412e-06
1.04183e-06
1.27487e-06
3.3978e-07
1.08484e-06
1.08549e-06
1.31258e-06
3.84046e-07
1.0988e-06
1.10379e-06
1.31575e-06
4.15047e-07
1.11471e-06
1.11427e-06
1.31869e-06
4.36046e-07
1.13473e-06
1.14166e-06
1.35945e-06
4.75599e-07
1.16507e-06
1.1529e-06
1.37059e-06
5.02831e-07
1.17223e-06
1.16422e-06
1.36085e-06
5.24772e-07
1.1767e-06
1.19443e-06
1.38128e-06
5.54486e-07
1.21677e-06
1.2187e-06
1.43672e-06
5.78279e-07
1.22455e-06
1.21866e-06
1.42641e-06
5.9853e-07
1.2206e-06
1.21737e-06
1.40472e-06
6.12074e-07
1.23824e-06
1.24039e-06
1.42275e-06
6.41913e-07
1.26068e-06
1.25778e-06
1.45988e-06
6.63873e-07
1.26539e-06
1.26361e-06
1.48005e-06
6.77038e-07
1.27451e-06
1.27691e-06
1.48251e-06
6.94117e-07
1.28464e-06
1.28554e-06
1.4625e-06
7.07788e-07
1.28397e-06
1.28334e-06
1.45791e-06
7.18423e-07
1.29298e-06
1.28928e-06
1.49929e-06
7.34883e-07
1.30712e-06
1.30656e-06
1.51942e-06
7.52467e-07
1.30671e-06
1.30768e-06
1.50598e-06
7.59597e-07
1.30647e-06
1.30463e-06
1.48776e-06
7.62701e-07
1.30706e-06
1.31221e-06
1.50305e-06
7.74402e-07
1.3186e-06
1.32827e-06
1.53995e-06
7.92456e-07
1.32868e-06
1.32622e-06
1.54087e-06
7.99161e-07
1.31886e-06
1.30784e-06
1.50108e-06
7.94529e-07
1.30585e-06
1.3035e-06
1.4868e-06
7.96392e-07
1.32095e-06
1.32944e-06
1.54093e-06
8.13628e-07
1.34037e-06
1.34053e-06
1.57424e-06
8.20119e-07
1.32463e-06
1.31989e-06
1.53272e-06
8.10487e-07
1.30322e-06
1.30315e-06
1.48651e-06
8.03251e-07
1.30972e-06
1.31007e-06
1.51045e-06
8.08477e-07
1.32355e-06
1.31904e-06
1.54575e-06
8.22514e-07
1.32023e-06
1.31853e-06
1.54198e-06
8.22305e-07
1.31315e-06
1.31234e-06
1.52988e-06
8.04975e-07
1.3024e-06
1.2939e-06
1.51512e-06
7.93623e-07
1.27962e-06
1.29015e-06
1.49166e-06
8.01528e-07
1.2891e-06
1.30471e-06
1.51989e-06
8.10677e-07
1.31071e-06
1.29924e-06
1.53972e-06
7.97299e-07
1.28166e-06
1.2744e-06
1.50056e-06
7.81434e-07
1.25705e-06
1.26703e-06
1.4778e-06
7.80768e-07
1.26764e-06
1.26865e-06
1.49748e-06
7.66443e-07
1.21334e-06
1.20873e-06
1.46055e-06
5.20722e-09
4.09364e-09
3.86003e-09
4.78455e-09
3.99234e-09
3.94779e-09
1.48801e-09
1.23e-09
1.29836e-09
1.92688e-09
3.65082e-09
4.7488e-09
4.67751e-09
3.58606e-09
4.23588e-09
5.1225e-09
5.17859e-09
4.72229e-09
5.25965e-09
4.35591e-09
5.20444e-09
4.16726e-09
4.76204e-09
4.30912e-09
4.52704e-09
4.68066e-09
4.29167e-09
4.48513e-09
7.69397e-09
3.24831e-09
7.37761e-09
4.6532e-09
4.25882e-09
5.38541e-09
3.90251e-09
5.07834e-09
4.71064e-09
4.68642e-09
4.29125e-09
5.15721e-09
4.08352e-09
4.94876e-09
3.83869e-09
4.27898e-09
3.87288e-09
4.19835e-09
4.40329e-09
3.93064e-09
4.16344e-09
7.2341e-09
2.93116e-09
6.77369e-09
4.22957e-09
3.89355e-09
4.97467e-09
3.54145e-09
4.68867e-09
4.36242e-09
4.25999e-09
3.929e-09
4.87807e-09
3.75893e-09
4.64116e-09
3.52789e-09
3.84792e-09
3.50474e-09
3.84703e-09
4.0876e-09
3.6143e-09
3.87512e-09
6.60269e-09
2.68205e-09
5.95877e-09
3.86971e-09
3.57642e-09
4.60311e-09
3.22047e-09
4.38906e-09
4.03964e-09
3.90121e-09
3.59613e-09
4.53785e-09
3.4552e-09
4.13854e-09
3.24885e-09
3.48415e-09
3.1931e-09
3.54231e-09
3.80886e-09
3.34219e-09
3.62224e-09
5.68584e-09
2.47312e-09
4.79626e-09
3.55456e-09
3.28683e-09
4.33147e-09
2.92845e-09
4.19004e-09
3.74495e-09
3.57215e-09
3.31668e-09
3.99325e-09
3.18405e-09
3.60745e-09
2.99996e-09
3.17596e-09
2.92311e-09
3.2803e-09
3.56419e-09
3.10869e-09
3.3994e-09
4.51007e-09
2.29886e-09
3.74645e-09
3.26761e-09
3.02661e-09
4.15408e-09
2.68605e-09
4.07951e-09
3.50337e-09
3.29901e-09
3.0756e-09
3.50015e-09
2.94173e-09
3.23468e-09
2.77644e-09
2.90873e-09
2.68507e-09
3.05605e-09
3.34908e-09
2.91077e-09
3.21101e-09
3.53327e-09
2.15767e-09
3.02609e-09
3.01018e-09
2.80325e-09
4.0636e-09
2.49794e-09
4.04239e-09
3.2492e-09
3.06139e-09
2.87687e-09
3.16269e-09
2.72406e-09
2.99229e-09
2.58263e-09
2.67393e-09
2.48631e-09
2.86691e-09
3.17054e-09
2.75111e-09
3.06516e-09
2.89514e-09
2.04695e-09
2.59882e-09
2.79076e-09
2.62168e-09
4.04252e-09
2.35419e-09
4.06599e-09
3.06871e-09
2.86719e-09
2.71585e-09
2.94759e-09
2.5382e-09
2.83544e-09
2.42405e-09
2.47892e-09
2.32701e-09
2.71824e-09
3.03392e-09
2.63329e-09
2.95422e-09
2.52502e-09
1.96784e-09
2.37017e-09
2.61313e-09
2.47541e-09
4.07992e-09
2.24943e-09
4.15266e-09
2.97086e-09
2.71041e-09
2.58982e-09
2.80596e-09
2.39144e-09
2.7489e-09
2.30158e-09
2.3238e-09
2.2031e-09
2.61011e-09
2.9307e-09
2.55556e-09
2.87821e-09
2.33521e-09
1.92123e-09
2.28174e-09
2.47066e-09
2.36007e-09
4.18633e-09
2.17277e-09
4.32582e-09
2.94949e-09
2.58832e-09
2.50299e-09
2.73659e-09
2.27264e-09
2.70377e-09
2.20398e-09
2.20393e-09
2.11274e-09
2.54361e-09
2.86535e-09
2.51728e-09
2.83538e-09
2.27207e-09
1.90692e-09
2.27827e-09
2.35925e-09
2.27514e-09
4.39032e-09
2.13358e-09
4.64465e-09
2.98261e-09
2.50574e-09
2.44966e-09
2.69633e-09
2.18695e-09
2.695e-09
2.15244e-09
2.11675e-09
2.04979e-09
2.51261e-09
2.82982e-09
2.5179e-09
2.82663e-09
2.28695e-09
1.92745e-09
2.30369e-09
2.27796e-09
2.22591e-09
4.7386e-09
2.13974e-09
5.22426e-09
3.07465e-09
2.45777e-09
2.43409e-09
2.69952e-09
2.14439e-09
2.73995e-09
2.14535e-09
2.05828e-09
2.02127e-09
2.52393e-09
2.8292e-09
2.56554e-09
2.85588e-09
2.32427e-09
1.9905e-09
2.38896e-09
2.23506e-09
2.21563e-09
5.40241e-09
2.19844e-09
5.75164e-09
3.1344e-09
2.45282e-09
2.46762e-09
2.76282e-09
2.15161e-09
2.84904e-09
2.20012e-09
2.0388e-09
2.0401e-09
2.58593e-09
2.87103e-09
2.66589e-09
2.93514e-09
2.39825e-09
2.10442e-09
2.4821e-09
2.23417e-09
2.2543e-09
5.84901e-09
2.31338e-09
6.07989e-09
3.13962e-09
2.49885e-09
2.57066e-09
2.88611e-09
2.2248e-09
3.0347e-09
2.3415e-09
2.07091e-09
2.12072e-09
2.703e-09
2.96818e-09
2.84397e-09
3.09088e-09
2.53042e-09
2.28528e-09
2.69302e-09
2.28456e-09
2.35437e-09
6.0971e-09
2.49e-09
6.04331e-09
3.21025e-09
2.6268e-09
2.77518e-09
3.10512e-09
2.39081e-09
3.33833e-09
2.59005e-09
2.17018e-09
2.29557e-09
2.90937e-09
3.14571e-09
3.13207e-09
3.33084e-09
2.75272e-09
2.55762e-09
2.99919e-09
2.40504e-09
2.54194e-09
6.05781e-09
2.77843e-09
6.12383e-09
3.39622e-09
2.86588e-09
3.15431e-09
3.44208e-09
2.67248e-09
3.83086e-09
3.00251e-09
2.37367e-09
2.64104e-09
3.23078e-09
3.42215e-09
3.59353e-09
3.72802e-09
3.10186e-09
2.99257e-09
3.47328e-09
2.63388e-09
2.88284e-09
6.14882e-09
3.21474e-09
6.49692e-09
3.72693e-09
3.30009e-09
3.82965e-09
3.95777e-09
3.14306e-09
4.57666e-09
3.60721e-09
2.79641e-09
3.18453e-09
3.70654e-09
3.85032e-09
4.3351e-09
4.38892e-09
3.62309e-09
3.62517e-09
4.15334e-09
3.02118e-09
3.51219e-09
6.51188e-09
3.89769e-09
6.41363e-09
3.92385e-09
4.08734e-09
4.95268e-09
4.74395e-09
3.83317e-09
5.71593e-09
4.57424e-09
3.4284e-09
4.23229e-09
4.51518e-09
4.5835e-09
5.37876e-09
5.45025e-09
4.38822e-09
4.61704e-09
5.23695e-09
3.75907e-09
4.66604e-09
6.44381e-09
4.97816e-09
7.16666e-09
5.05861e-09
5.38229e-09
7.00824e-09
6.00779e-09
4.89417e-09
7.29699e-09
6.15942e-09
4.67104e-09
6.31548e-09
5.73133e-09
5.78132e-09
6.87984e-09
6.9942e-09
5.62042e-09
6.23042e-09
7.30805e-09
5.03381e-09
6.50201e-09
7.52553e-09
6.45443e-09
7.9246e-09
7.06219e-09
7.72711e-09
1.05935e-08
7.85747e-09
6.58113e-09
9.86122e-09
8.34649e-09
6.88795e-09
9.36006e-09
7.44711e-09
7.64355e-09
9.36501e-09
9.29776e-09
7.64546e-09
8.34412e-09
9.66383e-09
7.37066e-09
9.84601e-09
8.00101e-09
8.6156e-09
8.93197e-09
9.86076e-09
1.17021e-08
1.68066e-08
1.0367e-08
8.96031e-09
1.37266e-08
1.16533e-08
1.04114e-08
1.57313e-08
9.91634e-09
9.94444e-09
1.30092e-08
1.29799e-08
1.02514e-08
1.16764e-08
1.32743e-08
1.07342e-08
1.6316e-08
9.23557e-09
1.21731e-08
1.18647e-08
1.61638e-08
1.88851e-08
2.86936e-08
1.47144e-08
1.27545e-08
1.87644e-08
1.66142e-08
1.79373e-08
2.51204e-08
1.40016e-08
1.37989e-08
1.79438e-08
1.75233e-08
1.47778e-08
1.62679e-08
1.67363e-08
1.81479e-08
2.55365e-08
1.33437e-08
1.67086e-08
1.53855e-08
2.4079e-08
3.25918e-08
3.8176e-08
2.04183e-08
1.76706e-08
2.38605e-08
2.23652e-08
2.74651e-08
4.09503e-08
1.9848e-08
1.8971e-08
2.36784e-08
2.32889e-08
1.74908e-08
2.22062e-08
2.53029e-08
2.89655e-08
4.25737e-08
1.67323e-08
2.33864e-08
2.33855e-08
4.72805e-08
4.00039e-08
9.45294e-08
2.47469e-08
2.5349e-08
4.05129e-08
3.1304e-08
4.69216e-08
6.55218e-08
2.42852e-08
2.45225e-08
3.64128e-08
2.99383e-08
2.69757e-08
2.99901e-08
2.97354e-08
4.55486e-08
6.04095e-08
2.52007e-08
3.0565e-08
2.97774e-08
6.01897e-08
1.10108e-07
1.06548e-07
4.47133e-08
3.23442e-08
4.40911e-08
4.34463e-08
6.83769e-08
1.01965e-07
4.13636e-08
3.35952e-08
4.54093e-08
4.41246e-08
3.20194e-08
4.25637e-08
4.28595e-08
6.86173e-08
1.12428e-07
3.25259e-08
4.4939e-08
4.11999e-08
1.01413e-07
1.04891e-07
1.31987e-07
4.28578e-08
4.68149e-08
5.05552e-08
5.51211e-08
1.16316e-07
1.468e-07
4.56752e-08
4.59994e-08
5.36487e-08
5.20616e-08
4.64445e-08
5.38052e-08
5.75943e-08
1.18451e-07
1.3233e-07
4.49665e-08
5.41681e-08
5.66051e-08
1.54491e-07
1.54865e-07
2.27251e-07
6.14005e-08
5.99263e-08
7.95593e-08
7.16696e-08
1.54464e-07
2.12516e-07
5.95823e-08
5.71456e-08
7.61507e-08
7.19672e-08
6.13663e-08
7.14549e-08
7.03461e-08
1.42369e-07
2.13776e-07
6.03596e-08
7.26608e-08
7.1362e-08
2.0101e-07
2.35693e-07
2.62261e-07
8.15662e-08
7.4698e-08
8.79385e-08
9.26829e-08
2.23874e-07
2.63258e-07
7.95173e-08
7.59445e-08
8.97991e-08
9.17022e-08
7.43505e-08
8.94169e-08
9.06172e-08
2.27893e-07
2.76254e-07
7.56863e-08
9.47194e-08
9.29848e-08
2.65332e-07
2.75202e-07
3.49738e-07
9.3629e-08
9.87397e-08
1.1096e-07
1.13223e-07
2.82278e-07
3.57419e-07
9.63613e-08
9.68391e-08
1.12361e-07
1.0627e-07
9.48552e-08
1.12368e-07
1.11977e-07
2.90515e-07
3.34643e-07
9.73704e-08
1.08587e-07
1.15461e-07
3.57764e-07
3.65179e-07
4.23394e-07
1.14961e-07
1.17852e-07
1.377e-07
1.36291e-07
3.68002e-07
4.17664e-07
1.15914e-07
1.12422e-07
1.39613e-07
1.40578e-07
1.2042e-07
1.34635e-07
1.40642e-07
3.44776e-07
4.25237e-07
1.25634e-07
1.38707e-07
1.50357e-07
4.38651e-07
4.42306e-07
5.08357e-07
1.47209e-07
1.45009e-07
1.65298e-07
1.71673e-07
4.38091e-07
5.05013e-07
1.49678e-07
1.48762e-07
1.69088e-07
1.68338e-07
1.43976e-07
1.68344e-07
1.59911e-07
4.50848e-07
5.14115e-07
1.54514e-07
1.69641e-07
1.66262e-07
4.8687e-07
5.20406e-07
5.61053e-07
1.69766e-07
1.78542e-07
1.95233e-07
1.95321e-07
5.19075e-07
5.73299e-07
1.73154e-07
1.74163e-07
1.98732e-07
1.91879e-07
1.71599e-07
1.92189e-07
2.01827e-07
5.23548e-07
5.56808e-07
1.7381e-07
1.91647e-07
1.96811e-07
5.79293e-07
5.77452e-07
6.41078e-07
2.05515e-07
2.05981e-07
2.33083e-07
2.44254e-07
5.87316e-07
6.39536e-07
2.07333e-07
1.99551e-07
2.28765e-07
2.3812e-07
2.07053e-07
2.38611e-07
2.29695e-07
5.73009e-07
6.3958e-07
2.03871e-07
2.36764e-07
2.37506e-07
6.33351e-07
6.55133e-07
6.90764e-07
2.41705e-07
2.52949e-07
2.70939e-07
2.68759e-07
6.54532e-07
6.91363e-07
2.394e-07
2.51103e-07
2.7193e-07
2.74241e-07
2.4067e-07
2.62508e-07
2.70842e-07
6.56009e-07
6.94593e-07
2.50722e-07
2.72745e-07
2.79569e-07
6.97106e-07
7.02451e-07
7.40944e-07
2.79238e-07
2.75362e-07
3.04763e-07
3.18355e-07
7.04279e-07
7.48957e-07
2.79347e-07
2.78833e-07
3.0357e-07
2.96809e-07
2.78628e-07
3.17595e-07
3.04872e-07
7.03982e-07
7.36365e-07
2.85407e-07
3.01312e-07
3.05475e-07
7.40413e-07
7.54425e-07
7.95482e-07
3.17844e-07
3.31728e-07
3.5711e-07
3.54551e-07
7.61085e-07
7.86477e-07
3.16489e-07
3.12891e-07
3.59972e-07
3.69445e-07
3.18632e-07
3.49758e-07
3.58683e-07
7.51502e-07
7.94486e-07
3.18328e-07
3.59533e-07
3.59527e-07
7.95947e-07
8.06184e-07
8.27298e-07
3.68037e-07
3.61369e-07
3.94562e-07
3.93868e-07
7.96578e-07
8.30683e-07
3.718e-07
3.80418e-07
3.95483e-07
4.02053e-07
3.67358e-07
3.95947e-07
3.94284e-07
8.03868e-07
8.30527e-07
3.68479e-07
3.90541e-07
3.93719e-07
8.28697e-07
8.35886e-07
8.6913e-07
4.0128e-07
4.10308e-07
4.42002e-07
4.58248e-07
8.42477e-07
8.68819e-07
4.00836e-07
4.07146e-07
4.36579e-07
4.36743e-07
4.03699e-07
4.44966e-07
4.44853e-07
8.42499e-07
8.68658e-07
4.02837e-07
4.46101e-07
4.45129e-07
8.73512e-07
8.82271e-07
9.04838e-07
4.60447e-07
4.68983e-07
4.97683e-07
4.90364e-07
8.76838e-07
8.98292e-07
4.56123e-07
4.53864e-07
4.97636e-07
4.91086e-07
4.61545e-07
4.83474e-07
4.95032e-07
8.76111e-07
8.93572e-07
4.61968e-07
4.91894e-07
4.9504e-07
9.00761e-07
9.10764e-07
9.30844e-07
5.04129e-07
4.97906e-07
5.27276e-07
5.55357e-07
9.08984e-07
9.55204e-07
5.04788e-07
4.98947e-07
5.26286e-07
5.44948e-07
5.01415e-07
5.52098e-07
5.27129e-07
9.02244e-07
9.43718e-07
5.01238e-07
5.27322e-07
5.25893e-07
9.33398e-07
9.4406e-07
9.81461e-07
5.45787e-07
5.71882e-07
6.04548e-07
5.86219e-07
9.63049e-07
9.52958e-07
5.4356e-07
5.71855e-07
6.04708e-07
6.21685e-07
5.46996e-07
5.91774e-07
6.08081e-07
9.59638e-07
9.89246e-07
5.45464e-07
6.12915e-07
6.07613e-07
9.85339e-07
9.86927e-07
9.84759e-07
6.13909e-07
5.87396e-07
6.28684e-07
6.01772e-07
9.54577e-07
9.66994e-07
6.1557e-07
6.27037e-07
6.31524e-07
6.3066e-07
6.16672e-07
6.09817e-07
6.29531e-07
9.9185e-07
9.78055e-07
6.16699e-07
6.31535e-07
6.30069e-07
9.77865e-07
9.88593e-07
1.01991e-06
6.33061e-07
6.12943e-07
6.66438e-07
7.0448e-07
9.81518e-07
1.05537e-06
6.35592e-07
6.31353e-07
6.63813e-07
6.51125e-07
6.35193e-07
6.91972e-07
6.67787e-07
9.81546e-07
1.01171e-06
6.35599e-07
6.55869e-07
6.65568e-07
1.02827e-06
1.0353e-06
1.06981e-06
6.9143e-07
7.31786e-07
7.48847e-07
7.63032e-07
1.06765e-06
1.07109e-06
6.86855e-07
6.70848e-07
7.45384e-07
7.52028e-07
6.91215e-07
7.49067e-07
7.51474e-07
1.02585e-06
1.07315e-06
6.87554e-07
7.45646e-07
7.49624e-07
1.07419e-06
1.07442e-06
1.07834e-06
7.57939e-07
7.68141e-07
7.75284e-07
7.77654e-07
1.07301e-06
1.0793e-06
7.54745e-07
7.6982e-07
7.69994e-07
8.00933e-07
7.61357e-07
7.72457e-07
7.79913e-07
1.08138e-06
1.09809e-06
7.60964e-07
7.84309e-07
7.80874e-07
1.08331e-06
1.08276e-06
1.10324e-06
7.79428e-07
7.80059e-07
8.04292e-07
7.92938e-07
1.08413e-06
1.09625e-06
7.75179e-07
8.0691e-07
8.13504e-07
8.18879e-07
7.85087e-07
8.01101e-07
8.05675e-07
1.10317e-06
1.10857e-06
7.85931e-07
8.14474e-07
8.0394e-07
1.10172e-06
1.11212e-06
1.12946e-06
8.19557e-07
8.0687e-07
8.5236e-07
8.5712e-07
1.10398e-06
1.13513e-06
8.26337e-07
8.21443e-07
8.48075e-07
8.34057e-07
8.18075e-07
8.56883e-07
8.52735e-07
1.11129e-06
1.11743e-06
8.14107e-07
8.43335e-07
8.51305e-07
1.13459e-06
1.135e-06
1.16538e-06
8.59443e-07
8.69033e-07
8.93029e-07
9.01853e-07
1.14307e-06
1.16946e-06
8.54564e-07
8.42985e-07
8.93756e-07
8.9588e-07
8.64617e-07
8.92219e-07
8.99962e-07
1.12386e-06
1.1681e-06
8.65168e-07
8.98628e-07
9.00259e-07
1.16565e-06
1.1766e-06
1.20114e-06
9.09049e-07
9.13485e-07
9.44433e-07
9.42027e-07
1.17751e-06
1.19665e-06
9.10448e-07
9.1366e-07
9.44747e-07
9.45759e-07
9.08105e-07
9.3844e-07
9.27753e-07
1.17932e-06
1.19891e-06
9.0756e-07
9.40181e-07
9.25035e-07
1.18383e-06
1.20516e-06
1.20706e-06
9.50133e-07
9.47545e-07
9.6175e-07
9.60533e-07
1.20094e-06
1.2059e-06
9.50024e-07
9.50475e-07
9.6153e-07
9.61795e-07
9.36796e-07
9.61393e-07
9.66503e-07
1.20206e-06
1.20487e-06
9.34216e-07
9.5806e-07
9.67505e-07
1.21395e-06
1.20937e-06
1.2214e-06
9.65753e-07
9.645e-07
9.8126e-07
9.82092e-07
1.20888e-06
1.2236e-06
9.65543e-07
9.6591e-07
9.83077e-07
9.88455e-07
9.75515e-07
9.84956e-07
9.96738e-07
1.20897e-06
1.23358e-06
9.76371e-07
9.94656e-07
9.97105e-07
1.23814e-06
1.23108e-06
1.26262e-06
9.93289e-07
9.95347e-07
1.02924e-06
1.02685e-06
1.2331e-06
1.25831e-06
9.955e-07
1.00116e-06
1.02878e-06
1.03015e-06
1.00197e-06
1.02593e-06
1.01512e-06
1.24226e-06
1.25915e-06
1.00203e-06
1.02527e-06
1.01506e-06
1.24557e-06
1.26664e-06
1.26795e-06
1.03435e-06
1.03139e-06
1.04251e-06
1.03954e-06
1.26198e-06
1.26587e-06
1.03336e-06
1.03482e-06
1.04109e-06
1.0439e-06
1.01923e-06
1.03901e-06
1.0464e-06
1.2624e-06
1.26557e-06
1.0192e-06
1.03705e-06
1.03533e-06
1.26459e-06
1.2707e-06
1.28807e-06
1.0457e-06
1.04433e-06
1.06695e-06
1.07546e-06
1.2702e-06
1.29938e-06
1.0441e-06
1.04702e-06
1.06262e-06
1.06372e-06
1.05708e-06
1.076e-06
1.07849e-06
1.26928e-06
1.29122e-06
1.04575e-06
1.07426e-06
1.08092e-06
1.30699e-06
1.29702e-06
1.31967e-06
1.0781e-06
1.08413e-06
1.10124e-06
1.09646e-06
1.30707e-06
1.31516e-06
1.07409e-06
1.07405e-06
1.10232e-06
1.10009e-06
1.08328e-06
1.09697e-06
1.09169e-06
1.29948e-06
1.31776e-06
1.08885e-06
1.10162e-06
1.09922e-06
1.31474e-06
1.32337e-06
1.32421e-06
1.10416e-06
1.0984e-06
1.10988e-06
1.10973e-06
1.31696e-06
1.32098e-06
1.10715e-06
1.10623e-06
1.11549e-06
1.12077e-06
1.09388e-06
1.10911e-06
1.10353e-06
1.32182e-06
1.32966e-06
1.10077e-06
1.11121e-06
1.1073e-06
1.31378e-06
1.32646e-06
1.34021e-06
1.11211e-06
1.1157e-06
1.13002e-06
1.12915e-06
1.32638e-06
1.33983e-06
1.11771e-06
1.12602e-06
1.13009e-06
1.14017e-06
1.11117e-06
1.12945e-06
1.14138e-06
1.33432e-06
1.35197e-06
1.11099e-06
1.13397e-06
1.13442e-06
1.35143e-06
1.34835e-06
1.36518e-06
1.14012e-06
1.13458e-06
1.15941e-06
1.15855e-06
1.34466e-06
1.36591e-06
1.13824e-06
1.14222e-06
1.15569e-06
1.14236e-06
1.14803e-06
1.15825e-06
1.15797e-06
1.35667e-06
1.35091e-06
1.14364e-06
1.15152e-06
1.15772e-06
1.36891e-06
1.36802e-06
1.36849e-06
1.16195e-06
1.16452e-06
1.16656e-06
1.17015e-06
1.37202e-06
1.37496e-06
1.15803e-06
1.14199e-06
1.1634e-06
1.14734e-06
1.15956e-06
1.17227e-06
1.16264e-06
1.35132e-06
1.34618e-06
1.15926e-06
1.16069e-06
1.16177e-06
1.35996e-06
1.37148e-06
1.38965e-06
1.1682e-06
1.17038e-06
1.18345e-06
1.17455e-06
1.37589e-06
1.37351e-06
1.1655e-06
1.1529e-06
1.18369e-06
1.19021e-06
1.16348e-06
1.17351e-06
1.17176e-06
1.35127e-06
1.39471e-06
1.16274e-06
1.18464e-06
1.1725e-06
1.36977e-06
1.3963e-06
1.40552e-06
1.19013e-06
1.17988e-06
1.20221e-06
1.20803e-06
1.3787e-06
1.41175e-06
1.19202e-06
1.20207e-06
1.20659e-06
1.22019e-06
1.18169e-06
1.20708e-06
1.21999e-06
1.40637e-06
1.42865e-06
1.18382e-06
1.21581e-06
1.22174e-06
1.43108e-06
1.4084e-06
1.4174e-06
1.2046e-06
1.21518e-06
1.21918e-06
1.22277e-06
1.41928e-06
1.42398e-06
1.20968e-06
1.22232e-06
1.22276e-06
1.224e-06
1.22585e-06
1.22504e-06
1.22706e-06
1.43154e-06
1.42121e-06
1.226e-06
1.21954e-06
1.22482e-06
1.42687e-06
1.42166e-06
1.42045e-06
1.22393e-06
1.22263e-06
1.22758e-06
1.22029e-06
1.42474e-06
1.41033e-06
1.22584e-06
1.22363e-06
1.22642e-06
1.21898e-06
1.22464e-06
1.22045e-06
1.21707e-06
1.42153e-06
1.40616e-06
1.22152e-06
1.21645e-06
1.21518e-06
1.40372e-06
1.42128e-06
1.41951e-06
1.22708e-06
1.22048e-06
1.22803e-06
1.23139e-06
1.41158e-06
1.42685e-06
1.22506e-06
1.21888e-06
1.22574e-06
1.22698e-06
1.21675e-06
1.23066e-06
1.223e-06
1.40754e-06
1.42471e-06
1.21538e-06
1.23195e-06
1.22607e-06
1.41471e-06
1.42489e-06
1.45331e-06
1.23174e-06
1.23982e-06
1.25528e-06
1.25939e-06
1.43625e-06
1.45861e-06
1.22985e-06
1.23442e-06
1.25431e-06
1.25493e-06
1.22906e-06
1.25794e-06
1.25599e-06
1.43388e-06
1.45472e-06
1.23417e-06
1.25597e-06
1.25652e-06
1.45312e-06
1.45892e-06
1.46268e-06
1.26105e-06
1.26145e-06
1.26735e-06
1.26275e-06
1.46145e-06
1.4563e-06
1.2601e-06
1.25853e-06
1.26697e-06
1.26352e-06
1.26331e-06
1.26395e-06
1.27741e-06
1.45785e-06
1.45626e-06
1.26131e-06
1.26184e-06
1.27267e-06
1.47576e-06
1.46414e-06
1.46347e-06
1.26793e-06
1.26384e-06
1.27094e-06
1.26996e-06
1.45765e-06
1.4624e-06
1.26774e-06
1.26504e-06
1.27118e-06
1.27142e-06
1.27939e-06
1.27153e-06
1.27988e-06
1.45788e-06
1.46501e-06
1.27572e-06
1.27233e-06
1.27992e-06
1.48163e-06
1.46655e-06
1.47925e-06
1.27255e-06
1.27332e-06
1.28343e-06
1.28577e-06
1.46736e-06
1.48035e-06
1.27277e-06
1.27469e-06
1.28271e-06
1.28493e-06
1.27895e-06
1.28375e-06
1.2712e-06
1.47048e-06
1.482e-06
1.27989e-06
1.28546e-06
1.27682e-06
1.46247e-06
1.4835e-06
1.48155e-06
1.28683e-06
1.2873e-06
1.28799e-06
1.28631e-06
1.48309e-06
1.4795e-06
1.28599e-06
1.28594e-06
1.28734e-06
1.28493e-06
1.26956e-06
1.28396e-06
1.27006e-06
1.48405e-06
1.47707e-06
1.2747e-06
1.28352e-06
1.2726e-06
1.45401e-06
1.48255e-06
1.47964e-06
1.28729e-06
1.28595e-06
1.2879e-06
1.28839e-06
1.48079e-06
1.48312e-06
1.28685e-06
1.28481e-06
1.28811e-06
1.28824e-06
1.27312e-06
1.28865e-06
1.29756e-06
1.47822e-06
1.48041e-06
1.27351e-06
1.28648e-06
1.28846e-06
1.48941e-06
1.48269e-06
1.49499e-06
1.28959e-06
1.29064e-06
1.29921e-06
1.30147e-06
1.48745e-06
1.49973e-06
1.28978e-06
1.29114e-06
1.29904e-06
1.30404e-06
1.30563e-06
1.30556e-06
1.31475e-06
1.48506e-06
1.50165e-06
1.29583e-06
1.30316e-06
1.31025e-06
1.51732e-06
1.50042e-06
1.51145e-06
1.30353e-06
1.30472e-06
1.31218e-06
1.3084e-06
1.50299e-06
1.50334e-06
1.30326e-06
1.30715e-06
1.31214e-06
1.30931e-06
1.31443e-06
1.30713e-06
1.30617e-06
1.50588e-06
1.50562e-06
1.3113e-06
1.3085e-06
1.30909e-06
1.5059e-06
1.51437e-06
1.50938e-06
1.31322e-06
1.30879e-06
1.31251e-06
1.31025e-06
1.50496e-06
1.50542e-06
1.31304e-06
1.30879e-06
1.3116e-06
1.30648e-06
1.30239e-06
1.30639e-06
1.29658e-06
1.50659e-06
1.4978e-06
1.30697e-06
1.30476e-06
1.29955e-06
1.48684e-06
1.5098e-06
1.49427e-06
1.31056e-06
1.31014e-06
1.30405e-06
1.30736e-06
1.50711e-06
1.5022e-06
1.30903e-06
1.3062e-06
1.30324e-06
1.3076e-06
1.2967e-06
1.30681e-06
1.3046e-06
1.49906e-06
1.50544e-06
1.2989e-06
1.30825e-06
1.30257e-06
1.49538e-06
1.4956e-06
1.50864e-06
1.30375e-06
1.30667e-06
1.30922e-06
1.30882e-06
1.50342e-06
1.50903e-06
1.30328e-06
1.30974e-06
1.3122e-06
1.31876e-06
1.31024e-06
1.31373e-06
1.32687e-06
1.51084e-06
1.52576e-06
1.3079e-06
1.32594e-06
1.32979e-06
1.53376e-06
1.51548e-06
1.52831e-06
1.31439e-06
1.31339e-06
1.32648e-06
1.32789e-06
1.51525e-06
1.53193e-06
1.31716e-06
1.32141e-06
1.3253e-06
1.32528e-06
1.33013e-06
1.32834e-06
1.33136e-06
1.52954e-06
1.53005e-06
1.33352e-06
1.32842e-06
1.33307e-06
1.54061e-06
1.53121e-06
1.52979e-06
1.32832e-06
1.32927e-06
1.32864e-06
1.32632e-06
1.53477e-06
1.52419e-06
1.32638e-06
1.32524e-06
1.32647e-06
1.32089e-06
1.32936e-06
1.32345e-06
1.31325e-06
1.53105e-06
1.51293e-06
1.32893e-06
1.31251e-06
1.30708e-06
1.50278e-06
1.5308e-06
1.51246e-06
1.32705e-06
1.32234e-06
1.31472e-06
1.30943e-06
1.52395e-06
1.50112e-06
1.32521e-06
1.3176e-06
1.31497e-06
1.30901e-06
1.3071e-06
1.30662e-06
1.29959e-06
1.51271e-06
1.498e-06
1.30093e-06
1.30292e-06
1.29627e-06
1.48347e-06
1.51265e-06
1.50918e-06
1.31119e-06
1.30802e-06
1.3099e-06
1.31152e-06
1.5021e-06
1.51499e-06
1.31179e-06
1.30848e-06
1.31056e-06
1.31436e-06
1.29997e-06
1.3125e-06
1.3186e-06
1.50005e-06
1.52211e-06
1.29787e-06
1.32111e-06
1.32437e-06
1.52747e-06
1.51431e-06
1.53615e-06
1.31243e-06
1.31831e-06
1.33049e-06
1.33674e-06
1.5242e-06
1.55055e-06
1.31283e-06
1.32155e-06
1.32896e-06
1.33507e-06
1.33001e-06
1.33949e-06
1.34833e-06
1.53141e-06
1.55013e-06
1.33586e-06
1.34071e-06
1.35121e-06
1.57189e-06
1.54093e-06
1.54041e-06
1.33377e-06
1.33802e-06
1.3338e-06
1.33214e-06
1.55387e-06
1.53713e-06
1.33216e-06
1.33543e-06
1.33295e-06
1.32832e-06
1.34839e-06
1.33221e-06
1.3317e-06
1.55214e-06
1.53111e-06
1.35086e-06
1.32757e-06
1.33021e-06
1.53694e-06
1.54119e-06
1.524e-06
1.3307e-06
1.32602e-06
1.31739e-06
1.30935e-06
1.53568e-06
1.50614e-06
1.33062e-06
1.32341e-06
1.31917e-06
1.31116e-06
1.32024e-06
1.30525e-06
1.2956e-06
1.53007e-06
1.50794e-06
1.31797e-06
1.30435e-06
1.29409e-06
1.48596e-06
1.52434e-06
1.50974e-06
1.31338e-06
1.30706e-06
1.30621e-06
1.30704e-06
1.5069e-06
1.51172e-06
1.31493e-06
1.30916e-06
1.30485e-06
1.30808e-06
1.2938e-06
1.30519e-06
1.29955e-06
1.50903e-06
1.51405e-06
1.29265e-06
1.30597e-06
1.29936e-06
1.50002e-06
1.51062e-06
1.50835e-06
1.30551e-06
1.3093e-06
1.30675e-06
1.31806e-06
1.51731e-06
1.53159e-06
1.30329e-06
1.30877e-06
1.30359e-06
1.31377e-06
1.30764e-06
1.32215e-06
1.32771e-06
1.51843e-06
1.52659e-06
1.30751e-06
1.31826e-06
1.32538e-06
1.54139e-06
1.51235e-06
1.53306e-06
1.30938e-06
1.31946e-06
1.32036e-06
1.31966e-06
1.5349e-06
1.53385e-06
1.30607e-06
1.3153e-06
1.32101e-06
1.31948e-06
1.32948e-06
1.3222e-06
1.32618e-06
1.52936e-06
1.53252e-06
1.32658e-06
1.31902e-06
1.32294e-06
1.54134e-06
1.54002e-06
1.55112e-06
1.32361e-06
1.31879e-06
1.32584e-06
1.31607e-06
1.5351e-06
1.53057e-06
1.32546e-06
1.32022e-06
1.32845e-06
1.31813e-06
1.3228e-06
1.3143e-06
1.31277e-06
1.5352e-06
1.53229e-06
1.32024e-06
1.31479e-06
1.31292e-06
1.52881e-06
1.55241e-06
1.52013e-06
1.32421e-06
1.31527e-06
1.30738e-06
1.30932e-06
1.53209e-06
1.52419e-06
1.32653e-06
1.3155e-06
1.30577e-06
1.29876e-06
1.31103e-06
1.3073e-06
1.30298e-06
1.53301e-06
1.5061e-06
1.31178e-06
1.29806e-06
1.30333e-06
1.51563e-06
1.51732e-06
1.48186e-06
1.29838e-06
1.30402e-06
1.27939e-06
1.28243e-06
1.5241e-06
1.48914e-06
1.29582e-06
1.29315e-06
1.27803e-06
1.28724e-06
1.29786e-06
1.28264e-06
1.28362e-06
1.50582e-06
1.49727e-06
1.29815e-06
1.28963e-06
1.2856e-06
1.49058e-06
1.48286e-06
1.50266e-06
1.27832e-06
1.27931e-06
1.28549e-06
1.28137e-06
1.48928e-06
1.49335e-06
1.27745e-06
1.28773e-06
1.2871e-06
1.301e-06
1.28246e-06
1.28146e-06
1.28856e-06
1.50197e-06
1.52793e-06
1.28486e-06
1.30205e-06
1.29181e-06
1.50957e-06
1.51406e-06
1.53879e-06
1.2948e-06
1.28918e-06
1.30877e-06
1.31037e-06
1.50353e-06
1.54131e-06
1.29622e-06
1.30478e-06
1.30797e-06
1.30468e-06
1.29743e-06
1.31026e-06
1.30844e-06
1.53367e-06
1.52877e-06
1.29915e-06
1.30317e-06
1.30626e-06
1.53838e-06
1.54081e-06
1.51032e-06
1.30859e-06
1.31083e-06
1.29069e-06
1.29355e-06
1.54506e-06
1.51681e-06
1.3076e-06
1.30118e-06
1.28949e-06
1.28039e-06
1.3079e-06
1.29319e-06
1.28646e-06
1.5283e-06
1.49323e-06
1.30529e-06
1.27904e-06
1.28394e-06
1.50291e-06
1.50817e-06
1.48034e-06
1.28148e-06
1.28224e-06
1.26262e-06
1.25841e-06
1.5131e-06
1.47232e-06
1.28107e-06
1.27532e-06
1.26339e-06
1.26651e-06
1.27662e-06
1.25784e-06
1.26005e-06
1.49326e-06
1.48553e-06
1.27563e-06
1.26703e-06
1.2619e-06
1.47598e-06
1.48156e-06
1.48739e-06
1.2617e-06
1.25753e-06
1.26377e-06
1.2628e-06
1.4734e-06
1.486e-06
1.26226e-06
1.26636e-06
1.26284e-06
1.26652e-06
1.25987e-06
1.26282e-06
1.26607e-06
1.48893e-06
1.49544e-06
1.26174e-06
1.26816e-06
1.26656e-06
1.4923e-06
1.49142e-06
1.47701e-06
1.26636e-06
1.26749e-06
1.24939e-06
1.25151e-06
1.49294e-06
1.48276e-06
1.26426e-06
1.26694e-06
1.24684e-06
1.24521e-06
1.26947e-06
1.25169e-06
1.25159e-06
1.49765e-06
1.47448e-06
1.26916e-06
1.24687e-06
1.25054e-06
1.48214e-06
1.45633e-06
1.21151e-06
1.21326e-06
1.4614e-06
1.20957e-06
1.20741e-06
7.67886e-07
7.64535e-07
7.6749e-07
1.21312e-06
1.45285e-06
1.21241e-06
7.2708e-11
2.56554e-09
1.34586e-10
2.0102e-10
5.69595e-09
3.64831e-09
2.88008e-09
9.7377e-10
5.50714e-09
3.80237e-09
1.07546e-09
1.1134e-08
5.30825e-09
4.72186e-09
7.15424e-09
7.70811e-09
1.69254e-07
6.32311e-09
2.68531e-07
2.24643e-06
3.95803e-06
8.68386e-09
1.59777e-07
7.25685e-09
2.53486e-07
1.25658e-09
1.32695e-09
1.97192e-09
1.51079e-09
1.23672e-09
1.31399e-09
1.95707e-09
4.8967e-09
7.30336e-08
2.71822e-09
3.42947e-09
5.19177e-09
5.25301e-08
2.68996e-09
1.50357e-06
3.03155e-06
4.77066e-09
2.94345e-09
8.5776e-08
4.09751e-09
5.02946e-09
2.90797e-09
6.38035e-08
2.16016e-07
2.17743e-07
4.90597e-09
1.84391e-07
1.86301e-07
1.67736e-08
4.88718e-07
1.23771e-08
6.99133e-07
6.91223e-06
9.79094e-06
1.79185e-08
4.56183e-07
1.31973e-08
6.62091e-07
1.21953e-09
1.29853e-09
1.93606e-09
1.43612e-09
1.16657e-09