/*--------------------------------*- C++ -*----------------------------------*\
| =========                 |                                                 |
| \\      /  F ield         | OpenFOAM: The Open Source CFD Toolbox           |
|  \\    /   O peration     | Version:  v2012                                 |
|   \\  /    A nd           | Website:  www.openfoam.com                      |
|    \\/     M anipulation  |                                                 |
\*---------------------------------------------------------------------------*/
FoamFile
{
    version     2.0;
    format      ascii;
    class       volScalarField;
    location    "1400";
    object      nut;
}
// * * * * * * * * * * * * * * * * * * * * * * * * * * * * * * * * * * * * * //

dimensions      [0 2 -1 0 0 0 0];


internalField   nonuniform List<scalar> 
171728
(
1.60691e-06
1.81491e-06
1.77544e-06
2.21906e-06
1.60853e-06
1.79796e-06
1.7038e-06
2.22471e-06
1.57615e-06
1.76165e-06
1.69714e-06
2.28711e-06
1.57043e-06
1.73131e-06
1.69739e-06
2.3644e-06
1.56778e-06
1.71046e-06
1.67617e-06
2.40906e-06
1.558e-06
1.68965e-06
1.63931e-06
2.41403e-06
1.52624e-06
1.66233e-06
1.60479e-06
2.17709e-06
1.53309e-06
1.62801e-06
1.57816e-06
1.92099e-06
1.55669e-06
1.58462e-06
1.55017e-06
1.68923e-06
1.56835e-06
1.52997e-06
1.45776e-06
1.51776e-06
1.56889e-06
1.46388e-06
1.33918e-06
1.38658e-06
1.57349e-06
1.38464e-06
1.24411e-06
1.33691e-06
1.57807e-06
1.29464e-06
1.174e-06
1.4062e-06
1.59618e-06
1.20405e-06
1.10775e-06
1.92523e-06
1.63843e-06
1.10815e-06
1.03941e-06
2.99118e-06
1.67332e-06
1.01314e-06
9.84816e-07
3.76113e-06
1.7055e-06
9.36943e-07
9.35945e-07
3.29751e-06
1.75352e-06
8.97636e-07
9.15239e-07
1.68475e-06
1.79019e-06
9.21392e-07
9.77553e-07
1.40899e-06
1.79403e-06
1.0269e-06
1.1048e-06
1.45891e-06
1.75519e-06
1.19376e-06
1.27032e-06
1.64325e-06
1.74829e-06
1.54897e-06
1.65665e-06
2.47248e-06
1.70606e-06
2.00362e-06
2.27374e-06
3.07068e-06
1.5585e-06
2.99035e-06
3.05027e-06
6.70704e-06
1.4529e-06
3.6069e-06
4.01619e-06
7.0596e-06
1.19421e-06
5.57805e-06
5.90603e-06
1.27124e-05
9.9436e-07
6.92239e-06
7.15743e-06
1.88471e-05
9.67222e-07
8.90799e-06
9.1032e-06
2.27978e-05
8.54977e-07
1.15548e-05
1.31053e-05
2.93003e-05
9.15994e-07
1.47374e-05
1.37156e-05
3.88589e-05
1.14989e-06
1.73986e-05
1.82746e-05
4.8162e-05
1.2939e-06
2.26343e-05
2.31966e-05
4.83979e-05
1.55437e-06
2.4642e-05
2.39902e-05
6.02968e-05
1.88257e-06
3.2854e-05
3.3169e-05
6.35426e-05
2.62758e-06
3.31889e-05
3.64764e-05
7.03678e-05
2.88669e-06
4.45208e-05
3.91374e-05
7.31927e-05
4.69865e-06
4.56054e-05
4.92647e-05
8.0354e-05
5.26941e-06
5.31902e-05
4.94951e-05
8.23422e-05
6.52551e-06
5.83301e-05
6.10356e-05
8.87315e-05
9.70712e-06
6.16592e-05
6.40366e-05
9.09324e-05
9.36231e-06
7.65382e-05
6.57081e-05
9.38678e-05
1.65798e-05
7.9228e-05
8.54782e-05
0.000103642
1.69038e-05
7.46566e-05
8.2112e-05
9.92273e-05
1.55283e-05
9.25405e-05
7.8703e-05
0.000105647
2.98165e-05
0.000103316
0.000100169
0.000115611
3.04088e-05
9.94586e-05
0.000103931
0.000114442
2.91911e-05
0.000100605
0.000106664
0.000115376
3.9399e-05
0.00011134
0.000105461
0.000121103
3.86478e-05
0.000114978
0.000117371
0.000126631
5.7375e-05
0.000126084
0.000125658
0.000126995
6.42151e-05
0.000125655
0.000123889
0.000133327
6.01584e-05
0.000126903
0.000131542
0.000137442
7.08542e-05
0.000137175
0.00013724
0.000135952
8.33314e-05
0.000136377
0.000135419
0.000139329
8.01144e-05
0.000145541
0.000144433
0.000148252
9.32956e-05
0.000149633
0.000151668
0.000148376
0.000105124
0.000149812
0.000150719
0.000146168
0.000102176
0.000153109
0.000156201
0.000154731
0.000114408
0.000162528
0.000161023
0.000158363
0.000123329
0.000165024
0.000159066
0.000154823
0.000121925
0.000162725
0.000165007
0.00015564
0.000134777
0.000172692
0.000177855
0.000170541
0.000141665
0.000178784
0.000178549
0.000170383
0.000147553
0.000174762
0.000173119
0.000163338
0.000145803
0.000174349
0.000175983
0.000164373
0.000151867
0.000186529
0.000186122
0.000173357
0.00016679
0.000188471
0.000187236
0.000179327
0.000171185
0.000188025
0.000188886
0.000181185
0.000171845
0.000193605
0.000194942
0.000176448
0.000180788
0.000194867
0.000194907
0.000173172
0.000184907
0.00019479
0.000193939
0.000181802
0.000184486
0.000201783
0.000200693
0.000189526
0.000195039
0.000204063
0.000204621
0.00018821
0.000204799
0.000204226
0.000203305
0.000182136
0.000202315
0.000204343
0.000203191
0.000183461
0.00019938
0.000207463
0.000213315
0.000194774
0.000210889
0.00021531
0.000216686
0.000198668
0.000222123
0.000216472
0.00021093
0.000189472
0.000222463
0.000209043
0.00020613
0.000182802
0.000216724
0.00021011
0.000214535
0.000193741
0.000221326
0.000225028
0.000226655
0.000207784
0.0002355
0.000226788
0.000225397
0.000202222
0.000238246
0.000215447
0.000215207
0.000187466
0.000230655
0.000214169
0.000215085
0.000189803
0.000226882
0.000224573
0.000223327
0.000202623
0.000237359
0.000228258
0.000227499
0.000204758
0.000250809
0.000228245
0.000228677
0.00020203
0.000252757
0.000227813
0.000222657
0.000199442
0.000236361
0.000218657
0.000220073
0.000193573
0.000233823
0.000218045
0.000229281
0.000199108
0.000253567
0.000235553
0.000233441
0.000208498
0.000259389
0.000236521
0.000226007
0.000202209
0.000246555
0.000220483
0.000223043
0.000194652
0.00024351
0.000221987
0.000227049
0.000199507
0.000251987
0.000231934
0.000230479
0.000207697
2.26763e-06
2.42537e-06
2.39308e-06
2.32196e-06
2.1437e-06
2.24205e-06
1.58159e-06
1.56171e-06
1.53342e-06
1.49077e-06
2.13901e-06
2.59129e-06
2.2057e-06
2.0114e-06
1.98907e-06
2.22059e-06
2.26515e-06
2.23026e-06
2.03445e-06
1.83979e-06
2.07667e-06
1.86855e-06
2.31676e-06
2.26569e-06
1.78332e-06
1.79103e-06
1.7981e-06
1.79669e-06
2.26947e-06
1.80102e-06
2.42039e-06
2.20415e-06
2.15185e-06
1.77019e-06
1.71413e-06
1.73245e-06
2.22006e-06
2.22902e-06
2.22258e-06
2.11538e-06
1.8837e-06
2.24058e-06
1.92561e-06
2.26244e-06
2.21984e-06
1.80601e-06
1.80016e-06
1.82279e-06
1.80725e-06
2.48668e-06
1.77193e-06
2.7225e-06
2.14991e-06
2.11584e-06
1.71118e-06
1.69587e-06
1.63522e-06
2.2792e-06
2.2139e-06
2.23372e-06
2.27539e-06
1.93708e-06
2.39142e-06
1.96691e-06
2.21774e-06
2.18781e-06
1.82471e-06
1.80803e-06
1.82164e-06
1.81002e-06
2.81333e-06
1.73676e-06
3.20089e-06
2.11668e-06
2.10506e-06
1.6067e-06
1.69924e-06
1.51618e-06
2.3547e-06
2.2238e-06
2.24234e-06
2.43864e-06
1.97778e-06
2.52976e-06
2.01515e-06
2.18682e-06
2.17022e-06
1.81957e-06
1.81047e-06
1.81633e-06
1.81297e-06
3.37729e-06
1.7151e-06
4.04001e-06
2.10765e-06
2.1056e-06
1.48258e-06
1.68327e-06
1.37495e-06
2.41191e-06
2.23498e-06
2.21056e-06
2.54853e-06
2.02669e-06
2.49948e-06
2.05804e-06
2.17062e-06
2.17035e-06
1.81595e-06
1.81768e-06
1.81381e-06
1.82538e-06
4.30957e-06
1.69489e-06
5.16782e-06
2.108e-06
2.09275e-06
1.33913e-06
1.64842e-06
1.24428e-06
2.43233e-06
2.20526e-06
2.16456e-06
2.44818e-06
2.06574e-06
2.23145e-06
2.08298e-06
2.17194e-06
2.1814e-06
1.81134e-06
1.82528e-06
1.797e-06
1.816e-06
5.35351e-06
1.66917e-06
4.74264e-06
2.09254e-06
2.05232e-06
1.21675e-06
1.61384e-06
1.1407e-06
2.22257e-06
2.15927e-06
2.10195e-06
2.15322e-06
2.08492e-06
1.94239e-06
2.06343e-06
2.18206e-06
2.17277e-06
1.79007e-06
1.81213e-06
1.76128e-06
1.80625e-06
4.33322e-06
1.63741e-06
3.04024e-06
2.04912e-06
2.00112e-06
1.12e-06
1.58216e-06
1.06608e-06
1.93957e-06
2.09635e-06
2.02907e-06
1.87677e-06
2.05088e-06
1.7138e-06
1.9984e-06
2.17047e-06
2.13368e-06
1.74817e-06
1.80154e-06
1.70434e-06
1.79319e-06
2.70914e-06
1.59503e-06
2.0456e-06
1.99592e-06
1.94139e-06
1.05026e-06
1.56217e-06
1.00183e-06
1.70693e-06
2.02211e-06
1.94578e-06
1.6753e-06
1.97466e-06
1.60786e-06
1.88403e-06
2.12833e-06
2.07028e-06
1.68926e-06
1.78586e-06
1.64206e-06
1.75203e-06
1.91641e-06
1.54298e-06
1.69563e-06
1.9351e-06
1.86882e-06
9.823e-07
1.48606e-06
9.24848e-07
1.53102e-06
1.93757e-06
1.85076e-06
1.59441e-06
1.84628e-06
1.53833e-06
1.69879e-06
2.06201e-06
1.96562e-06
1.62636e-06
1.7449e-06
1.57528e-06
1.72791e-06
1.65559e-06
1.48134e-06
1.58237e-06
1.85998e-06
1.77703e-06
9.08372e-07
1.36911e-06
8.69349e-07
1.39762e-06
1.8421e-06
1.75647e-06
1.51412e-06
1.64442e-06
1.43487e-06
1.48842e-06
1.95336e-06
1.80921e-06
1.55609e-06
1.7272e-06
1.50035e-06
1.70732e-06
1.5636e-06
1.40263e-06
1.51095e-06
1.76763e-06
1.68109e-06
8.69307e-07
1.26284e-06
9.54788e-07
1.34181e-06
1.74653e-06
1.65857e-06
1.40946e-06
1.44086e-06
1.34999e-06
1.29753e-06
1.79217e-06
1.63018e-06
1.48221e-06
1.69199e-06
1.41413e-06
1.64341e-06
1.49102e-06
1.31453e-06
1.43309e-06
1.66929e-06
1.58178e-06
1.02834e-06
1.18916e-06
1.24142e-06
1.38242e-06
1.64545e-06
1.55884e-06
1.33513e-06
1.25015e-06
1.27772e-06
1.12165e-06
1.61223e-06
1.48531e-06
1.39519e-06
1.62456e-06
1.32883e-06
1.57329e-06
1.40534e-06
1.22372e-06
1.31057e-06
1.56848e-06
1.49884e-06
1.31619e-06
1.12582e-06
1.97456e-06
1.80652e-06
1.54214e-06
1.4665e-06
1.26168e-06
1.08469e-06
1.21303e-06
9.8128e-07
1.46584e-06
1.34577e-06
1.3102e-06
1.55656e-06
1.25626e-06
1.50596e-06
1.2861e-06
1.12955e-06
1.23165e-06
1.48257e-06
1.40872e-06
2.47103e-06
1.05607e-06
4.96978e-06
2.80514e-06
1.4467e-06
1.3894e-06
1.20261e-06
9.53343e-07
1.16948e-06
8.68894e-07
1.32093e-06
1.19067e-06
1.24067e-06
1.48735e-06
1.21045e-06
1.4525e-06
1.22217e-06
1.03487e-06
1.19967e-06
1.38921e-06
1.31729e-06
5.98374e-06
9.95847e-07
8.48049e-06
3.72902e-06
1.37014e-06
1.32727e-06
1.16583e-06
8.45429e-07
1.17842e-06
7.84061e-07
1.16213e-06
1.0405e-06
1.19696e-06
1.43396e-06
1.17282e-06
1.37847e-06
1.20177e-06
9.51978e-07
1.18671e-06
1.29308e-06
1.22861e-06
8.96994e-06
9.44051e-07
8.9386e-06
3.4752e-06
1.31367e-06
1.2942e-06
1.18575e-06
7.7115e-07
1.236e-06
7.37955e-07
1.01437e-06
9.40756e-07
1.15923e-06
1.35327e-06
1.15523e-06
1.31144e-06
1.17281e-06
9.01421e-07
1.17068e-06
1.20612e-06
1.15611e-06
8.73239e-06
9.20766e-07
4.93407e-06
1.77362e-06
1.29258e-06
1.31995e-06
1.24502e-06
7.3921e-07
1.35727e-06
7.55397e-07
9.27515e-07
9.27319e-07
1.14999e-06
1.29536e-06
1.18042e-06
1.31666e-06
1.19013e-06
9.04817e-07
1.29687e-06
1.14432e-06
1.15758e-06
3.91845e-06
9.64824e-07
2.3537e-06
1.40255e-06
1.33546e-06
1.45907e-06
1.40815e-06
7.7879e-07
1.50071e-06
8.60638e-07
9.38425e-07
1.0821e-06
1.21292e-06
1.3292e-06
1.26607e-06
1.43825e-06
1.36064e-06
9.96297e-07
1.58575e-06
1.16996e-06
1.22967e-06
2.13312e-06
1.0454e-06
1.6358e-06
1.45946e-06
1.50784e-06
1.78998e-06
1.5901e-06
9.01762e-07
1.83715e-06
1.03179e-06
1.11642e-06
1.33497e-06
1.33024e-06
1.51708e-06
1.51951e-06
1.66284e-06
1.66045e-06
1.13609e-06
1.81446e-06
1.29557e-06
1.58681e-06
1.51716e-06
1.21624e-06
1.32581e-06
1.56291e-06
1.88816e-06
2.42885e-06
1.84667e-06
1.09387e-06
2.31955e-06
1.36135e-06
1.41956e-06
2.00805e-06
1.53424e-06
1.72378e-06
1.95295e-06
2.03164e-06
1.83369e-06
1.45241e-06
2.23394e-06
1.62437e-06
2.27055e-06
1.31133e-06
1.59067e-06
1.3985e-06
2.18751e-06
2.64926e-06
3.81797e-06
2.46471e-06
1.48489e-06
2.82064e-06
1.97368e-06
2.26272e-06
3.09663e-06
2.00794e-06
2.10265e-06
2.5017e-06
2.39461e-06
2.3468e-06
1.9506e-06
2.40995e-06
2.47503e-06
3.16957e-06
1.60382e-06
2.07024e-06
1.82186e-06
3.03328e-06
4.32885e-06
4.62356e-06
3.06487e-06
2.05379e-06
3.22956e-06
2.53908e-06
3.28922e-06
4.68656e-06
2.77983e-06
2.52709e-06
3.1204e-06
2.95065e-06
2.39648e-06
2.59837e-06
3.20048e-06
3.52031e-06
5.32948e-06
1.84503e-06
2.88861e-06
2.78475e-06
5.90688e-06
4.503e-06
1.231e-05
3.24262e-06
3.03902e-06
5.56513e-06
3.86541e-06
5.39847e-06
7.89104e-06
3.13941e-06
3.00297e-06
4.77387e-06
3.32225e-06
3.46078e-06
3.57078e-06
3.60709e-06
5.57949e-06
6.51595e-06
3.00805e-06
3.49742e-06
3.33358e-06
7.03487e-06
1.52143e-05
1.41008e-05
6.58953e-06
3.90643e-06
6.09637e-06
5.13791e-06
7.89863e-06
1.10756e-05
5.83342e-06
3.85738e-06
6.35624e-06
5.4684e-06
3.55972e-06
5.03656e-06
4.96129e-06
7.31004e-06
1.38768e-05
3.64729e-06
5.70369e-06
4.68157e-06
1.12905e-05
1.27521e-05
1.29451e-05
5.21417e-06
5.66341e-06
5.1293e-06
6.51043e-06
1.31915e-05
1.67348e-05
6.22273e-06
5.67041e-06
5.95592e-06
5.80674e-06
5.4564e-06
6.14117e-06
7.16088e-06
1.4503e-05
1.41845e-05
5.18087e-06
6.264e-06
6.71501e-06
1.78957e-05
1.59394e-05
2.70612e-05
6.7851e-06
7.23267e-06
1.08144e-05
8.67903e-06
1.70373e-05
2.40355e-05
6.82882e-06
6.31812e-06
9.83249e-06
8.64826e-06
7.7253e-06
8.84534e-06
8.3343e-06
1.46975e-05
2.39925e-05
7.24944e-06
8.86759e-06
8.30423e-06
2.19927e-05
2.76601e-05
2.76386e-05
1.10135e-05
8.76096e-06
1.07722e-05
1.13568e-05
2.51856e-05
2.71439e-05
1.02363e-05
9.08578e-06
1.07324e-05
1.13884e-05
8.76825e-06
1.07008e-05
1.12167e-05
2.55969e-05
3.01735e-05
8.89417e-06
1.21733e-05
1.14593e-05
2.77365e-05
2.83967e-05
3.7011e-05
1.08166e-05
1.23303e-05
1.36591e-05
1.41394e-05
2.91452e-05
3.86201e-05
1.17787e-05
1.21371e-05
1.41347e-05
1.2796e-05
1.15977e-05
1.41091e-05
1.33661e-05
3.17128e-05
3.48061e-05
1.18698e-05
1.38289e-05
1.32513e-05
3.71038e-05
3.83836e-05
4.24833e-05
1.38263e-05
1.45415e-05
1.69764e-05
1.61746e-05
3.91481e-05
4.14324e-05
1.42494e-05
1.28607e-05
1.71141e-05
1.74811e-05
1.50374e-05
1.62139e-05
1.85347e-05
3.49379e-05
4.22003e-05
1.54153e-05
1.67791e-05
2.11027e-05
4.74641e-05
4.45704e-05
5.26983e-05
1.87834e-05
1.75592e-05
2.12572e-05
2.23536e-05
4.34834e-05
5.15749e-05
1.91924e-05
1.90121e-05
2.23916e-05
2.19632e-05
1.87533e-05
2.18164e-05
1.87716e-05
4.56197e-05
5.38129e-05
2.17072e-05
2.22265e-05
2.14609e-05
4.76247e-05
5.32579e-05
5.47212e-05
2.12646e-05
2.31569e-05
2.42999e-05
2.378e-05
5.27886e-05
5.65188e-05
2.24542e-05
2.25416e-05
2.55614e-05
2.32923e-05
2.03255e-05
2.33036e-05
2.67283e-05
5.41303e-05
5.41103e-05
2.17175e-05
2.39099e-05
2.44405e-05
5.88593e-05
5.62187e-05
6.38428e-05
2.59262e-05
2.47833e-05
2.98528e-05
3.30752e-05
5.75208e-05
6.44437e-05
2.68601e-05
2.3746e-05
2.85695e-05
3.07802e-05
2.71418e-05
3.18861e-05
2.87865e-05
5.51222e-05
6.33322e-05
2.49367e-05
3.0407e-05
3.03203e-05
6.2313e-05
6.51706e-05
6.83928e-05
3.09928e-05
3.44068e-05
3.5246e-05
3.48032e-05
6.60001e-05
6.74317e-05
3.02406e-05
3.3741e-05
3.57169e-05
3.68254e-05
3.05324e-05
3.30663e-05
3.51872e-05
6.54779e-05
6.98126e-05
3.30595e-05
3.6368e-05
3.79894e-05
6.96244e-05
6.92068e-05
7.21749e-05
3.6163e-05
3.47111e-05
3.81757e-05
4.13179e-05
6.81746e-05
7.50363e-05
3.63509e-05
3.65068e-05
3.79349e-05
3.55934e-05
3.59002e-05
4.22484e-05
3.79898e-05
7.00051e-05
7.08001e-05
3.81862e-05
3.70021e-05
3.83072e-05
7.20698e-05
7.34612e-05
7.94354e-05
4.00961e-05
4.42802e-05
4.66774e-05
4.64524e-05
7.66761e-05
7.77124e-05
3.97479e-05
3.59206e-05
4.75679e-05
5.04073e-05
4.0188e-05
4.57535e-05
4.74067e-05
7.22248e-05
8.01221e-05
4.00398e-05
4.78943e-05
4.7733e-05
7.94866e-05
8.05473e-05
8.18701e-05
4.83359e-05
4.6148e-05
5.08856e-05
4.84918e-05
7.81174e-05
8.18685e-05
4.98118e-05
5.27315e-05
5.18209e-05
5.29896e-05
4.82549e-05
5.03086e-05
5.04047e-05
8.07613e-05
8.13356e-05
4.86882e-05
4.92888e-05
5.03442e-05
8.1674e-05
8.22283e-05
8.57558e-05
5.0874e-05
5.12648e-05
5.56657e-05
6.1628e-05
8.34912e-05
8.74077e-05
5.16299e-05
5.27055e-05
5.34886e-05
5.32086e-05
5.10447e-05
5.79903e-05
5.66508e-05
8.23338e-05
8.71926e-05
5.08674e-05
5.78025e-05
5.68799e-05
8.71052e-05
8.7681e-05
9.15751e-05
5.94916e-05
6.34401e-05
6.59475e-05
6.383e-05
8.79411e-05
8.87558e-05
5.78365e-05
5.71873e-05
6.58335e-05
6.27862e-05
5.9937e-05
6.03384e-05
6.5425e-05
8.80955e-05
8.89001e-05
6.02499e-05
6.43823e-05
6.54803e-05
9.09419e-05
9.1751e-05
9.24249e-05
6.59679e-05
6.36278e-05
6.52447e-05
7.20415e-05
8.95159e-05
9.92863e-05
6.60845e-05
6.28182e-05
6.55349e-05
6.49709e-05
6.53599e-05
7.22308e-05
6.4487e-05
8.91274e-05
9.38783e-05
6.53479e-05
6.36059e-05
6.43797e-05
9.19182e-05
9.37829e-05
0.000101953
6.61445e-05
7.75053e-05
8.07319e-05
8.01555e-05
0.000101106
9.82412e-05
6.60713e-05
7.17568e-05
8.04472e-05
8.77657e-05
6.56165e-05
7.98641e-05
8.12548e-05
9.63795e-05
0.000105375
6.53223e-05
8.35296e-05
8.13138e-05
0.000103338
0.000102513
0.000100829
8.25601e-05
7.87325e-05
8.14945e-05
7.20154e-05
9.76456e-05
9.39997e-05
8.28497e-05
8.84551e-05
8.25289e-05
8.48895e-05
8.33094e-05
7.54806e-05
8.23416e-05
0.000105497
9.98553e-05
8.3517e-05
8.4296e-05
8.26482e-05
9.9566e-05
0.000100675
0.000103265
8.07498e-05
7.10432e-05
7.91828e-05
8.4726e-05
9.52764e-05
0.000111167
8.178e-05
8.09838e-05
7.98446e-05
7.67407e-05
8.13404e-05
8.39665e-05
7.91995e-05
9.95249e-05
0.000100481
8.15478e-05
7.9135e-05
7.92668e-05
0.000103222
0.00010543
0.000113882
8.29918e-05
9.55869e-05
0.000100609
0.000109656
0.000114264
0.000116379
8.19756e-05
7.60245e-05
9.83716e-05
9.60492e-05
8.13475e-05
0.00010331
9.99624e-05
0.000102184
0.000113857
8.0606e-05
9.5952e-05
9.91138e-05
0.00011519
0.000114138
0.000113056
0.000102213
0.000109565
0.000101213
0.000103988
0.000116145
0.000112862
0.000100248
0.000101797
0.000100359
0.000110229
0.000102617
0.000100273
0.00010314
0.000115331
0.000117938
0.00010231
0.000104097
0.000103787
0.000114654
0.000113009
0.000115768
0.000100671
0.000100582
9.93876e-05
9.72481e-05
0.000112662
0.000113737
9.99563e-05
0.000110688
0.000103096
0.000109203
0.000102551
9.8038e-05
0.000100643
0.000118259
0.000118385
0.000103185
0.000105937
0.000101045
0.000114701
0.000117195
0.000119463
0.000102445
9.69863e-05
0.000109329
0.000109897
0.000114827
0.000120991
0.000106056
0.000107705
0.000107892
0.000103775
0.000100996
0.00011076
0.000107377
0.000118272
0.000116333
0.000100561
0.000105823
0.000106539
0.000120169
0.000119484
0.000123429
0.000109397
0.000112168
0.000110967
0.000116442
0.000121613
0.000125205
0.000107532
0.000102884
0.000110775
0.000110747
0.000109507
0.000112322
0.000117062
0.000116435
0.000124402
0.000109479
0.000112769
0.000117656
0.000126076
0.000125491
0.000132503
0.000114757
0.000118554
0.00012588
0.000125862
0.000126467
0.000131608
0.000115137
0.000116064
0.000126094
0.000126382
0.000118524
0.000124371
0.000119018
0.000126635
0.000131861
0.000118829
0.000125287
0.000118735
0.000126778
0.000132811
0.000131349
0.000127517
0.000127056
0.000127065
0.000126347
0.000131931
0.000131037
0.000127569
0.000127281
0.000127021
0.000126244
0.000119602
0.000126144
0.000124322
0.000131916
0.00013035
0.000118574
0.000124388
0.000124386
0.000132079
0.000131162
0.000131349
0.000126227
0.000125753
0.000124547
0.000124434
0.000130845
0.000131963
0.000126302
0.00012566
0.000124711
0.000124923
0.000126656
0.000124743
0.000132814
0.000130172
0.000134069
0.000126926
0.000127697
0.000133585
0.000137262
0.000132563
0.000140541
0.000124701
0.000125715
0.000136299
0.000136085
0.000133346
0.000139628
0.00012549
0.000127975
0.000136721
0.000137486
0.000133629
0.000136456
0.000133091
0.000135649
0.000140059
0.000134642
0.000137234
0.000134
0.000136114
0.000140992
0.000140174
0.000138198
0.000137093
0.000138722
0.000136963
0.000139771
0.000138961
0.000138474
0.000138845
0.000138784
0.00013873
0.000132706
0.000136696
0.000134575
0.00014015
0.000139077
0.00013336
0.000135942
0.000131812
0.000137731
0.000139995
0.000141713
0.000138364
0.000136697
0.000138877
0.000142545
0.000138944
0.000145031
0.000138344
0.000138291
0.00013727
0.000137331
0.000137912
0.000142342
0.000145232
0.000138931
0.000142684
0.000132405
0.000140257
0.000144474
0.000147243
0.000143106
0.000149488
0.000141895
0.000145557
0.000149814
0.000149221
0.00014653
0.000148361
0.000139336
0.000139204
0.000149212
0.000147885
0.000147059
0.00014958
0.000148814
0.000144147
0.000148843
0.000147994
0.000151255
0.000151945
0.000148609
0.000149857
0.00014909
0.000150874
0.000149255
0.000150712
0.000148904
0.00014826
0.000147966
0.000151172
0.000149815
0.00015261
0.000153165
0.000148506
0.00014907
0.000147161
0.000149096
0.000149789
0.00015174
0.000151005
0.000149475
0.000146172
0.000148934
0.000150685
0.000150403
0.000149983
0.000150521
0.000152227
0.000148576
0.000150938
0.000152408
0.0001543
0.000152056
0.000158898
0.000146812
0.00015218
0.000154551
0.000150114
0.000154928
0.000148984
0.000152983
0.000151194
0.000153008
0.000152065
0.000156952
0.000153938
0.000153247
0.00016163
0.000160333
0.000151277
0.000156585
0.000153794
0.000159704
0.000160642
0.000159607
0.00015732
0.000159935
0.000162833
0.000155916
0.000155207
0.000155145
0.000161046
0.00016294
0.000158406
0.000157047
0.00015643
0.000162436
0.000162538
0.000162391
0.000164311
0.000157802
0.000158893
0.00016138
0.000158214
0.000161176
0.000154745
0.000163304
0.000165148
0.000162214
0.000154654
0.000151115
0.000163482
0.000159512
0.000162006
0.000155234
0.00015632
0.000160157
0.000162211
0.0001641
0.000163897
0.0001627
0.000158657
0.000156753
0.000160955
0.000154159
0.000162543
0.00016169
0.00016091
0.000163078
0.000159303
0.000151004
0.000159544
0.000160551
0.000161056
0.000158929
0.000154271
0.000161527
0.000164303
0.000166669
0.000162374
0.000170966
0.00017004
0.000156857
0.000164335
0.000166019
0.000166971
0.000172279
0.000177562
0.000159309
0.000168346
0.00017334
0.00016201
0.000169614
0.000159162
0.000175909
0.000174612
0.000169068
0.000164392
0.000166429
0.000171239
0.000173219
0.000174319
0.000177729
0.000166056
0.000169081
0.000173133
0.000179217
0.000176481
0.000180241
0.000177263
0.000178659
0.000180896
0.00016999
0.000169001
0.000178198
0.000178983
0.000180961
0.000170988
0.000167152
0.000167666
0.000175952
0.000177817
0.000177391
0.000175317
0.000168897
0.000164742
0.000177244
0.000179962
0.000177483
0.000175026
0.000180994
0.00017586
0.000175516
0.000168539
0.000163889
0.000180836
0.000173743
0.000174085
0.000163699
0.000167374
0.000165621
0.000177233
0.000174452
0.000175803
0.000173452
0.000164478
0.000165955
0.000176829
0.000173902
0.000175077
0.000172792
0.000173815
0.000173492
0.000171802
0.000163692
0.000165796
0.00017285
0.000172816
0.000171435
0.000163496
0.00016575
0.000172901
0.000175474
0.000174919
0.000181805
0.000185216
0.000167358
0.000175275
0.000174755
0.000173635
0.000181679
0.000183488
0.000171567
0.000184462
0.000180316
0.000167257
0.000174435
0.000172502
0.000184749
0.000181866
0.0001721
0.00017427
0.000176438
0.000184946
0.000187029
0.000189279
0.000188222
0.00017576
0.00017499
0.000184766
0.000185694
0.000189289
0.000188256
0.000183737
0.000188543
0.000191653
0.000174929
0.000174855
0.000184146
0.000187284
0.000189476
0.000178569
0.000176319
0.000175496
0.000189454
0.000187997
0.000188946
0.000187166
0.000174775
0.000174431
0.000189528
0.000188258
0.000189099
0.000187903
0.000193268
0.000187966
0.000194846
0.000174702
0.00017505
0.000191036
0.000187446
0.000194106
0.000181282
0.000175324
0.000178712
0.000188741
0.000187109
0.000190623
0.000192388
0.000174847
0.000179742
0.000188905
0.000188104
0.00019058
0.000192887
0.000194843
0.00019228
0.000191149
0.000175727
0.000180424
0.000194339
0.000194151
0.000193901
0.000177239
0.000179789
0.000181329
0.000193109
0.000194206
0.000196331
0.000196051
0.000180279
0.000180548
0.000192975
0.00019429
0.000196246
0.000195406
0.000189509
0.000194862
0.000187255
0.00018068
0.000179981
0.00019247
0.000195295
0.000189289
0.000173426
0.000181107
0.000179804
0.000196443
0.000196074
0.000195589
0.000195509
0.000180392
0.000179947
0.000196351
0.000195299
0.000195673
0.000194684
0.000186949
0.000194533
0.000193498
0.000179742
0.000179113
0.00018903
0.000194108
0.000190749
0.00017987
0.000179574
0.000182126
0.000195316
0.000195303
0.000195957
0.00019789
0.000180135
0.000184183
0.000195422
0.000194552
0.000196142
0.000198748
0.000197601
0.000200361
0.000205854
0.000179321
0.000184433
0.000194171
0.000198481
0.000203163
0.000189203
0.000183117
0.000187862
0.000198241
0.000199728
0.000204317
0.000203292
0.000184787
0.000186245
0.000198367
0.000200693
0.000204541
0.000204387
0.000206696
0.000203842
0.000207445
0.000185314
0.000187195
0.000205009
0.000204377
0.00020669
0.000188853
0.000188402
0.000189399
0.000205782
0.000203909
0.000207348
0.000205815
0.000186298
0.000187203
0.000205985
0.000204737
0.000207337
0.00020468
0.00020612
0.000204202
0.00020065
0.000187053
0.000185316
0.000206785
0.000203926
0.000202594
0.000182685
0.000189014
0.000184809
0.000207484
0.000206025
0.000204258
0.000205706
0.000187189
0.0001867
0.000207397
0.000204212
0.000203708
0.000203805
0.000199853
0.000204321
0.00019914
0.000185079
0.000185883
0.000201147
0.00020278
0.000199844
0.000182453
0.000184513
0.000186437
0.000203437
0.00020502
0.000202895
0.000204468
0.00018646
0.000186902
0.00020321
0.000203963
0.000203434
0.00020861
0.000200628
0.000205402
0.000210366
0.000186517
0.000192012
0.000199907
0.000211041
0.000210917
0.00019334
0.000187573
0.000193131
0.000203999
0.000204633
0.000211802
0.000212388
0.000187707
0.00019423
0.000205919
0.000210165
0.000212061
0.000213695
0.000213376
0.000213993
0.000218008
0.000192667
0.000194665
0.000214694
0.000216363
0.000219427
0.000198821
0.000193646
0.000195317
0.000213765
0.000214487
0.000216648
0.000216577
0.000194772
0.000195446
0.000213522
0.000214198
0.000215897
0.000214702
0.000218358
0.000216601
0.000215736
0.000194623
0.000192449
0.000219974
0.000213543
0.000213866
0.000191535
0.000195252
0.000192659
0.000216915
0.000216855
0.000215226
0.000211956
0.000194694
0.000188884
0.000216125
0.000214391
0.000215103
0.000210299
0.000212296
0.000210199
0.000205206
0.000191459
0.000187415
0.000209734
0.000206326
0.000203105
0.000183158
0.000191717
0.000189923
0.000213253
0.000210549
0.00021101
0.000209696
0.00018832
0.000189747
0.00021341
0.000209654
0.00021142
0.000209705
0.000204737
0.000208515
0.000206484
0.000187149
0.000191527
0.000202776
0.00020973
0.000208213
0.000191157
0.000190021
0.000196482
0.000210842
0.000210163
0.000216785
0.000220826
0.000191003
0.000200926
0.000211267
0.000211718
0.000216557
0.000221591
0.000212473
0.000222652
0.000227942
0.000193204
0.000201563
0.000214874
0.000225351
0.000230006
0.000207216
0.000197438
0.000200514
0.000219636
0.00022326
0.000223749
0.000225485
0.000201609
0.00020189
0.000219173
0.000223205
0.000223495
0.000224665
0.000230055
0.000227135
0.000231883
0.000201871
0.000200611
0.000231746
0.000227746
0.000233109
0.000205073
0.000200456
0.000198981
0.000224299
0.000225594
0.000223385
0.00021908
0.000200659
0.000193446
0.000224048
0.000224242
0.000224466
0.000219645
0.0002292
0.000217401
0.000213907
0.000199297
0.000193734
0.000228877
0.000216601
0.0002132
0.000188647
0.000198356
0.000194879
0.000222024
0.000217456
0.00021823
0.000216093
0.000192705
0.000192873
0.000223281
0.000218541
0.000218674
0.000217318
0.000211144
0.00021402
0.000209185
0.000193284
0.000193974
0.000210622
0.000214401
0.000208935
0.000188225
0.000194309
0.000192858
0.000217372
0.000216078
0.000216557
0.000220936
0.000193457
0.000199279
0.000217274
0.000217265
0.000215628
0.000219417
0.000209805
0.000222259
0.000223486
0.000194438
0.000198199
0.000210039
0.000221742
0.000223417
0.000201582
0.000192724
0.000199348
0.00021659
0.000222694
0.000222631
0.000225748
0.00019993
0.000201909
0.000215432
0.000220627
0.000221949
0.000225197
0.000226864
0.000227841
0.000230808
0.000198605
0.000201353
0.000226383
0.000226711
0.000229765
0.000205095
0.000200681
0.000207628
0.000225465
0.000226341
0.000231811
0.000228187
0.000201849
0.000202391
0.000225623
0.000226863
0.000233022
0.000229324
0.0002313
0.000228307
0.000228928
0.00020183
0.000203706
0.000230139
0.000228537
0.000228398
0.000202311
0.000207811
0.000204771
0.000232544
0.000228645
0.000233237
0.000229463
0.00020242
0.000203364
0.000233756
0.000229714
0.000233798
0.000226584
0.000228132
0.000228265
0.000226176
0.00020356
0.000198461
0.000227982
0.000224656
0.000226161
0.000200471
0.000202396
0.000192078
0.000229883
0.000229397
0.000218625
0.000220897
0.000202693
0.000194933
0.000229258
0.000223651
0.000217859
0.000219267
0.000224622
0.000220567
0.000219041
0.000197038
0.000194283
0.000224542
0.000220031
0.00021968
0.000193979
0.000191394
0.000194617
0.000217022
0.00021863
0.000216569
0.000217146
0.000193658
0.000192776
0.000216542
0.000219211
0.000216617
0.000224485
0.000218283
0.000217475
0.000218912
0.000194236
0.000202917
0.000219195
0.000226104
0.000220512
0.000197327
0.000196566
0.000207987
0.000219007
0.000217573
0.000232912
0.000232419
0.000194004
0.000208074
0.00022041
0.000228287
0.000233179
0.000233215
0.000222338
0.000232789
0.000234147
0.000204231
0.000207642
0.000224509
0.000232963
0.000233587
0.000208344
0.000208369
0.000206159
0.000234672
0.00023529
0.000236515
0.000238251
0.000209061
0.000209123
0.000234561
0.000233735
0.00023587
0.000229523
0.000235262
0.0002384
0.000236018
0.000206843
0.000199839
0.000234267
0.000228358
0.000233712
0.000204491
0.000204151
0.000196507
0.00023373
0.000236589
0.000223351
0.000222627
0.000206694
0.000194845
0.000232704
0.000226927
0.000223764
0.000223296
0.000231724
0.000222371
0.000221452
0.000198556
0.00019702
0.000229737
0.000223042
0.000221855
0.000194938
0.000196083
0.000197647
0.000222026
0.000220697
0.000221671
0.000219912
0.000194083
0.000196228
0.000222619
0.000223234
0.000222353
0.000225273
0.000220542
0.000219793
0.000221165
0.000197182
0.000200889
0.000221271
0.000225763
0.000222436
0.000198486
0.000198336
0.000203453
0.000223014
0.000221845
0.000230978
0.000232033
0.000197444
0.000205157
0.000223478
0.000226444
0.000230211
0.000230917
0.000224145
0.000232288
0.000232477
0.000201169
0.000203449
0.000225113
0.000231681
0.000232248
0.00020511
0.000206123
0.000230512
0.000231712
0.0002079
0.00022974
0.000229802
0.00025337
0.000252919
0.000254234
0.000232033
0.000205709
0.000231723
2.58969e-06
2.13171e-06
1.12418e-06
1.26225e-06
1.14819e-06
2.06419e-06
4.53099e-07
1.29917e-06
1.20858e-06
1.91346e-06
1.40665e-06
1.75525e-06
2.21924e-06
1.45695e-06
2.60767e-06
1.05316e-06
1.36347e-05
9.46252e-07
1.54384e-05
1.2182e-05
1.42402e-05
1.33387e-06
1.33744e-05
1.25805e-06
1.51455e-05
1.57772e-06
1.53719e-06
1.50831e-06
1.61513e-06
1.60394e-06
1.5416e-06
1.51247e-06
1.16989e-06
3.16789e-07
1.6316e-06
1.8081e-06
1.14806e-06
4.26862e-07
1.63582e-06
1.0694e-05
1.29511e-05
1.21073e-06
1.69531e-06
5.4044e-07
1.7524e-06
1.20391e-06
1.69971e-06
6.55083e-07
1.5086e-06
1.50349e-06
2.21562e-06
1.71432e-06
1.71306e-06
1.33569e-06
1.88303e-05
1.23161e-06
2.12018e-05
1.70306e-05
1.91185e-05
1.51436e-06
1.83928e-05
1.41677e-06
2.08312e-05
1.60193e-06
1.53663e-06
1.50721e-06
1.58108e-06
1.59579e-06