/*--------------------------------*- C++ -*----------------------------------*\
| =========                 |                                                 |
| \\      /  F ield         | OpenFOAM: The Open Source CFD Toolbox           |
|  \\    /   O peration     | Version:  v2012                                 |
|   \\  /    A nd           | Website:  www.openfoam.com                      |
|    \\/     M anipulation  |                                                 |
\*---------------------------------------------------------------------------*/
FoamFile
{
    version     2.0;
    format      ascii;
    class       volScalarField;
    location    "1737.5";
    object      epsilon;
}
// * * * * * * * * * * * * * * * * * * * * * * * * * * * * * * * * * * * * * //

dimensions      [0 2 -3 0 0 0 0];


internalField   nonuniform List<scalar> 
171728
(
1.60808e-09
3.38074e-09
4.82417e-09
5.24607e-09
1.57811e-09
3.12151e-09
4.40415e-09
4.69924e-09
1.51809e-09
2.85645e-09
3.99164e-09
4.21516e-09
1.46566e-09
2.6219e-09
3.63831e-09
3.81443e-09
1.41313e-09
2.41871e-09
3.33424e-09
3.47111e-09
1.36778e-09
2.24848e-09
3.07595e-09
3.1768e-09
1.32816e-09
2.11091e-09
2.864e-09
2.92638e-09
1.28723e-09
2.00732e-09
2.69906e-09
2.71644e-09
1.24625e-09
1.93637e-09
2.57742e-09
2.54488e-09
1.20213e-09
1.89935e-09
2.49454e-09
2.42211e-09
1.1637e-09
1.89487e-09
2.44886e-09
2.32571e-09
1.12239e-09
1.92426e-09
2.4444e-09
2.26727e-09
1.08279e-09
1.99703e-09
2.48858e-09
2.25479e-09
1.02957e-09
2.12629e-09
2.59435e-09
2.29429e-09
9.56509e-10
2.33164e-09
2.78341e-09
2.4098e-09
8.91097e-10
2.65236e-09
3.08979e-09
2.63973e-09
8.49816e-10
3.14189e-09
3.56733e-09
3.04651e-09
8.15073e-10
3.88519e-09
4.30672e-09
3.79101e-09
7.73422e-10
4.97861e-09
5.39752e-09
5.03569e-09
7.12668e-10
6.63321e-09
7.08054e-09
7.30169e-09
6.64342e-10
9.09238e-09
9.58526e-09
1.1037e-08
6.48533e-10
1.23823e-08
1.30703e-08
1.77406e-08
6.57999e-10
1.75674e-08
1.79112e-08
2.88185e-08
6.97246e-10
2.43172e-08
2.48401e-08
4.66028e-08
7.72641e-10
3.25406e-08
3.35767e-08
7.302e-08
8.92606e-10
4.46448e-08
4.49526e-08
1.10024e-07
1.07007e-09
5.82475e-08
5.91594e-08
1.58037e-07
1.3301e-09
7.56101e-08
7.54568e-08
2.24461e-07
1.69556e-09
9.43406e-08
9.60796e-08
2.88989e-07
2.19128e-09
1.1959e-07
1.17769e-07
3.63723e-07
2.88196e-09
1.41442e-07
1.45005e-07
4.37964e-07
3.86502e-09
1.7536e-07
1.73987e-07
5.27498e-07
5.12066e-09
2.06211e-07
2.07925e-07
5.80859e-07
6.86543e-09
2.36734e-07
2.4032e-07
6.5575e-07
9.12199e-09
2.83717e-07
2.83303e-07
7.08905e-07
1.19059e-08
3.17359e-07
3.17206e-07
7.53202e-07
1.55988e-08
3.64504e-07
3.64493e-07
7.99013e-07
2.02553e-08
4.07465e-07
4.10393e-07
8.42617e-07
2.60243e-08
4.56272e-07
4.56678e-07
8.82595e-07
3.26962e-08
5.04045e-07
5.03767e-07
9.11501e-07
4.10781e-08
5.49168e-07
5.52589e-07
9.44114e-07
5.05331e-08
6.04221e-07
6.01904e-07
9.77801e-07
6.31615e-08
6.45625e-07
6.46676e-07
1.0047e-06
7.54839e-08
6.95928e-07
6.99374e-07
1.03231e-06
9.14057e-08
7.43243e-07
7.4121e-07
1.06623e-06
1.12478e-07
7.85229e-07
7.86461e-07
1.09079e-06
1.26424e-07
8.23563e-07
8.25382e-07
1.11759e-06
1.4869e-07
8.7015e-07
8.69873e-07
1.14763e-06
1.73571e-07
9.01911e-07
9.02453e-07
1.16279e-06
1.98862e-07
9.38267e-07
9.38491e-07
1.19219e-06
2.25853e-07
9.67593e-07
9.70212e-07
1.22247e-06
2.54936e-07
1.00379e-06
9.99343e-07
1.23525e-06
2.86193e-07
1.02637e-06
1.02739e-06
1.26068e-06
3.15956e-07
1.0524e-06
1.05277e-06
1.27747e-06
3.48691e-07
1.07539e-06
1.0773e-06
1.29575e-06
3.79699e-07
1.09861e-06
1.09745e-06
1.31761e-06
4.13473e-07
1.12191e-06
1.11834e-06
1.33403e-06
4.41285e-07
1.1376e-06
1.13923e-06
1.34593e-06
4.74427e-07
1.15637e-06
1.15941e-06
1.36593e-06
4.99807e-07
1.16826e-06
1.16986e-06
1.37274e-06
5.25872e-07
1.1926e-06
1.18917e-06
1.39513e-06
5.55449e-07
1.21058e-06
1.21145e-06
1.41334e-06
5.77329e-07
1.21179e-06
1.21586e-06
1.4053e-06
5.98036e-07
1.22612e-06
1.22615e-06
1.42266e-06
6.1894e-07
1.2506e-06
1.24654e-06
1.45229e-06
6.44229e-07
1.25688e-06
1.25671e-06
1.45052e-06
6.60834e-07
1.25782e-06
1.25959e-06
1.4475e-06
6.73526e-07
1.27221e-06
1.27342e-06
1.47454e-06
6.93069e-07
1.28481e-06
1.28781e-06
1.4845e-06
7.09026e-07
1.28843e-06
1.28729e-06
1.47978e-06
7.20064e-07
1.29283e-06
1.29029e-06
1.48917e-06
7.35005e-07
1.30438e-06
1.30194e-06
1.50472e-06
7.47942e-07
1.3062e-06
1.30785e-06
1.50251e-06
7.58034e-07
1.30716e-06
1.31415e-06
1.50346e-06
7.71144e-07
1.31746e-06
1.30989e-06
1.51306e-06
7.76154e-07
1.31172e-06
1.30526e-06
1.51577e-06
7.8223e-07
1.3083e-06
1.32152e-06
1.5145e-06
7.97663e-07
1.32615e-06
1.33104e-06
1.52426e-06
8.06475e-07
1.33401e-06
1.32254e-06
1.53159e-06
8.02046e-07
1.31769e-06
1.31475e-06
1.52982e-06
7.98311e-07
1.30929e-06
1.31327e-06
1.51687e-06
8.09418e-07
1.32201e-06
1.32325e-06
1.52562e-06
8.20575e-07
1.32858e-06
1.32771e-06
1.53574e-06
8.17662e-07
1.31655e-06
1.31639e-06
1.5175e-06
8.07796e-07
1.3131e-06
1.31381e-06
1.54104e-06
8.11497e-07
1.31377e-06
1.31464e-06
1.53851e-06
8.11983e-07
1.29746e-06
1.29736e-06
1.48424e-06
8.04664e-07
1.29553e-06
1.29243e-06
1.50662e-06
8.09972e-07
1.31356e-06
1.31272e-06
1.56342e-06
8.13483e-07
1.31132e-06
1.31576e-06
1.55574e-06
7.97573e-07
1.27688e-06
1.27729e-06
1.47827e-06
7.8116e-07
1.25307e-06
1.25167e-06
1.43564e-06
7.8055e-07
1.26805e-06
1.26746e-06
1.49318e-06
7.92741e-07
1.29256e-06
1.295e-06
1.56362e-06
7.8155e-07
1.22788e-06
1.22848e-06
1.49586e-06
5.26102e-09
4.46709e-09
3.79528e-09
4.93476e-09
3.76966e-09
4.45396e-09
1.58388e-09
1.22079e-09
1.50562e-09
1.35937e-09
3.64545e-09
3.77395e-09
5.24228e-09
4.25559e-09
4.05697e-09
5.26837e-09
5.23997e-09
4.73096e-09
4.68006e-09
3.26665e-09
4.42026e-09
3.09267e-09
4.91169e-09
4.42537e-09
3.42038e-09
4.85691e-09
3.23858e-09
4.60563e-09
3.41419e-09
3.19287e-09
3.2239e-09
5.21438e-09
4.73281e-09
3.81421e-09
4.51723e-09
3.66843e-09
4.72788e-09
4.70037e-09
4.23979e-09
4.32976e-09
3.02264e-09
4.09603e-09
2.82749e-09
4.39854e-09
3.96265e-09
3.16945e-09
4.51036e-09
2.97195e-09
4.22853e-09
3.1524e-09
2.91966e-09
2.95324e-09
4.69625e-09
4.27288e-09
3.6039e-09
4.08894e-09
3.4179e-09
4.23755e-09
4.21398e-09
3.82937e-09
4.02632e-09
2.76802e-09
3.8304e-09
2.60146e-09
3.94061e-09
3.57871e-09
2.90956e-09
4.13455e-09
2.73376e-09
3.86348e-09
2.89157e-09
2.67762e-09
2.71899e-09
4.24201e-09
3.8818e-09
3.35694e-09
3.7221e-09
3.18213e-09
3.83247e-09
3.80815e-09
3.49843e-09
3.76985e-09
2.54971e-09
3.60458e-09
2.40469e-09
3.56248e-09
3.25825e-09
2.67926e-09
3.78187e-09
2.52602e-09
3.56447e-09
2.66534e-09
2.46635e-09
2.5166e-09
3.85485e-09
3.54314e-09
3.12733e-09
3.40638e-09
2.9761e-09
3.48638e-09
3.48198e-09
3.23082e-09
3.55517e-09
2.36033e-09
3.42641e-09
2.23829e-09
3.24525e-09
2.98296e-09
2.47829e-09
3.50024e-09
2.34503e-09
3.33155e-09
2.47036e-09
2.28762e-09
2.34369e-09
3.52032e-09
3.25934e-09
2.93006e-09
3.13646e-09
2.80444e-09
3.18893e-09
3.21815e-09
3.00581e-09
3.38933e-09
2.20148e-09
3.3e-09
2.10241e-09
2.97307e-09
2.73749e-09
2.3038e-09
3.28288e-09
2.19199e-09
3.15585e-09
2.30452e-09
2.14163e-09
2.19879e-09
3.24113e-09
3.02398e-09
2.76612e-09
2.91211e-09
2.66043e-09
2.93519e-09
2.99682e-09
2.8203e-09
3.27756e-09
2.07375e-09
3.22993e-09
1.99665e-09
2.73096e-09
2.53398e-09
2.15834e-09
3.1195e-09
2.07357e-09
3.02518e-09
2.16741e-09
2.02948e-09
2.08307e-09
3.01034e-09
2.83482e-09
2.62942e-09
2.73569e-09
2.54202e-09
2.7221e-09
2.81507e-09
2.67806e-09
3.22351e-09
1.97548e-09
3.2229e-09
1.92169e-09
2.53073e-09
2.36866e-09
2.04946e-09
2.99885e-09
1.9931e-09
2.93792e-09
2.05831e-09
1.95063e-09
1.99846e-09
2.82528e-09
2.682e-09
2.51517e-09
2.60373e-09
2.45306e-09
2.54668e-09
2.67685e-09
2.57958e-09
3.22616e-09
1.90899e-09
3.26712e-09
1.88153e-09
2.36877e-09
2.24504e-09
1.979e-09
2.92311e-09
1.94852e-09
2.89912e-09
1.98227e-09
1.9056e-09
1.94698e-09
2.67651e-09
2.56402e-09
2.43771e-09
2.51069e-09
2.39283e-09
2.42051e-09
2.58224e-09
2.53025e-09
3.28827e-09
1.87795e-09
3.36968e-09
1.87548e-09
2.24819e-09
2.15975e-09
1.94345e-09
2.89937e-09
1.93969e-09
2.91354e-09
1.93844e-09
1.89305e-09
1.92987e-09
2.56282e-09
2.48028e-09
2.38078e-09
2.45608e-09
2.36408e-09
2.32114e-09
2.54002e-09
2.52802e-09
3.40309e-09
1.87829e-09
3.53091e-09
1.90112e-09
2.1662e-09
2.10898e-09
1.94228e-09
2.92307e-09
1.9663e-09
2.95054e-09
1.93167e-09
1.91551e-09
1.95142e-09
2.4827e-09
2.42783e-09
2.36303e-09
2.44168e-09
2.37082e-09
2.25686e-09
2.54598e-09
2.57427e-09
3.58136e-09
1.91432e-09
3.76419e-09
1.96722e-09
2.12168e-09
2.09592e-09
1.97905e-09
2.95821e-09
2.03435e-09
2.9787e-09
1.96309e-09
1.97814e-09
2.01304e-09
2.43566e-09
2.41212e-09
2.37756e-09
2.47181e-09
2.41408e-09
2.2351e-09
2.60237e-09
2.67633e-09
3.84611e-09
1.9918e-09
4.16465e-09
2.08586e-09
2.11682e-09
2.13411e-09
2.05942e-09
2.98794e-09
2.15673e-09
3.03305e-09
2.03549e-09
2.09344e-09
2.12317e-09
2.42989e-09
2.44865e-09
2.43265e-09
2.56157e-09
2.50872e-09
2.2621e-09
2.71891e-09
2.82445e-09
4.29309e-09
2.12543e-09
4.69982e-09
2.27348e-09
2.16716e-09
2.23572e-09
2.19688e-09
3.0584e-09
2.34401e-09
3.17623e-09
2.16063e-09
2.2781e-09
2.30116e-09
2.48004e-09
2.5518e-09
2.54186e-09
2.72806e-09
2.67341e-09
2.35566e-09
2.88305e-09
3.0639e-09
4.82636e-09
2.33397e-09
5.20146e-09
2.56448e-09
2.29008e-09
2.4417e-09
2.40492e-09
3.23027e-09
2.63212e-09
3.4449e-09
2.36012e-09
2.56525e-09
2.5827e-09
2.6052e-09
2.75202e-09
2.72693e-09
2.99966e-09
2.93368e-09
2.54633e-09
3.17396e-09
3.58732e-09
5.36539e-09
2.65954e-09
6.01096e-09
3.00077e-09
2.53238e-09
2.80309e-09
2.72754e-09
3.53208e-09
3.088e-09
3.83782e-09
2.67753e-09
3.00582e-09
3.0204e-09
2.84012e-09
3.10575e-09
3.02204e-09
3.4306e-09
3.3508e-09
2.89917e-09
3.79125e-09
4.54748e-09
6.30584e-09
3.1483e-09
7.26247e-09
3.67576e-09
2.95964e-09
3.43372e-09
3.23924e-09
3.95774e-09
3.77663e-09
4.36902e-09
3.15772e-09
3.66653e-09
3.68794e-09
3.25292e-09
3.7014e-09
3.48016e-09
4.08525e-09
3.99621e-09
3.54631e-09
4.84683e-09
5.98099e-09
7.58324e-09
3.89914e-09
8.89018e-09
4.6911e-09
3.69834e-09
4.55536e-09
4.00007e-09
4.54887e-09
4.80287e-09
5.17059e-09
3.89827e-09
4.67498e-09
4.68551e-09
3.95676e-09
4.74804e-09
4.20428e-09
5.07909e-09
4.98539e-09
4.61514e-09
6.43336e-09
8.10819e-09
9.40779e-09
5.00232e-09
1.08524e-08
6.21202e-09
4.94537e-09
6.47624e-09
5.10146e-09
5.43553e-09
6.31418e-09
6.48993e-09
5.00466e-09
6.15794e-09
6.19493e-09
5.15017e-09
6.76131e-09
5.30592e-09
6.63413e-09
6.50562e-09
6.58125e-09
8.78095e-09
1.07359e-08
1.13247e-08
6.6891e-09
1.26598e-08
8.44334e-09
7.18714e-09
9.99717e-09
6.76236e-09
6.87859e-09
8.41064e-09
8.49441e-09
6.67352e-09
8.38755e-09
8.40272e-09
7.37936e-09
9.94774e-09
7.00251e-09
8.83735e-09
8.7386e-09
9.93274e-09
1.18846e-08
1.63176e-08
1.31926e-08
9.16038e-09
1.53613e-08
1.15706e-08
1.12205e-08
1.55699e-08
9.14289e-09
9.23103e-09
1.14956e-08
1.1707e-08
9.08682e-09
1.14606e-08
1.16634e-08
1.1249e-08
1.60428e-08
9.44161e-09
1.21073e-08
1.19654e-08
1.58421e-08
1.81449e-08
2.63366e-08
1.62253e-08
1.24978e-08
1.90893e-08
1.64411e-08
1.71047e-08
2.69838e-08
1.24509e-08
1.2649e-08
1.60912e-08
1.61163e-08
1.26634e-08
1.62599e-08
1.61926e-08
1.77125e-08
2.57945e-08
1.30089e-08
1.65983e-08
1.65324e-08
2.59946e-08
2.9474e-08
4.18903e-08
2.02946e-08
1.77707e-08
2.405e-08
2.23995e-08
3.01903e-08
4.14395e-08
1.75771e-08
1.74061e-08
2.23304e-08
2.24303e-08
1.75569e-08
2.2208e-08
2.24396e-08
2.85092e-08
4.1985e-08
1.79058e-08
2.28878e-08
2.28143e-08
4.20065e-08
4.60658e-08
6.68672e-08
2.56413e-08
2.44945e-08
3.14956e-08
3.03968e-08
4.67563e-08
6.54716e-08
2.42119e-08
2.43976e-08
3.05706e-08
3.06253e-08
2.43033e-08
3.01908e-08
3.07673e-08
4.71173e-08
6.568e-08
2.46296e-08
3.10782e-08
3.15449e-08
6.66847e-08
7.25737e-08
1.00637e-07
3.37504e-08
3.27847e-08
4.1861e-08
4.20221e-08
7.03031e-08
1.05828e-07
3.29572e-08
3.31615e-08
4.11152e-08
4.15502e-08
3.31758e-08
4.17453e-08
4.16422e-08
7.16668e-08
1.02012e-07
3.38037e-08
4.18745e-08
4.24635e-08
1.01056e-07
1.08735e-07
1.49953e-07
4.5186e-08
4.493e-08
5.55694e-08
5.48429e-08
1.1464e-07
1.46631e-07
4.44304e-08
4.46395e-08
5.47848e-08
5.51106e-08
4.49942e-08
5.44851e-08
5.47893e-08
1.10064e-07
1.48229e-07
4.58696e-08
5.53715e-08
5.58586e-08
1.49081e-07
1.59922e-07
2.08566e-07
5.91597e-08
5.85925e-08
7.22953e-08
7.13704e-08
1.58232e-07
2.05404e-07
5.82967e-08
5.89173e-08
7.14021e-08
7.09368e-08
5.86038e-08
7.09101e-08
7.16247e-08
1.58749e-07
2.05053e-07
5.98304e-08
7.10683e-08
7.28102e-08
2.11344e-07
2.23632e-07
2.70967e-07
7.66447e-08
7.60866e-08
9.00975e-08
8.94269e-08
2.18458e-07
2.75157e-07
7.57753e-08
7.53432e-08
8.93948e-08
9.07318e-08
7.56089e-08
8.92054e-08
9.03021e-08
2.17131e-07
2.74049e-07
7.7035e-08
9.0629e-08
9.29462e-08
2.72019e-07
2.84746e-07
3.59644e-07
9.58659e-08
9.45365e-08
1.14117e-07
1.13932e-07
2.87789e-07
3.53576e-07
9.51529e-08
9.62753e-08
1.1261e-07
1.12418e-07
9.6377e-08
1.1315e-07
1.11761e-07
2.90016e-07
3.50599e-07
9.87932e-08
1.12199e-07
1.12773e-07
3.53326e-07
3.74168e-07
4.2025e-07
1.19183e-07
1.20436e-07
1.36888e-07
1.36548e-07
3.7136e-07
4.25296e-07
1.17724e-07
1.1798e-07
1.36234e-07
1.37904e-07
1.16576e-07
1.35857e-07
1.36656e-07
3.65052e-07
4.24882e-07
1.17428e-07
1.37557e-07
1.37356e-07
4.17776e-07
4.36159e-07
5.03474e-07
1.44142e-07
1.42157e-07
1.66011e-07
1.66353e-07
4.38134e-07
4.99833e-07
1.43352e-07
1.45362e-07
1.65069e-07
1.66693e-07
1.45017e-07
1.65596e-07
1.67292e-07
4.41361e-07
5.04641e-07
1.46297e-07
1.66484e-07
1.7257e-07
5.13728e-07
5.19136e-07
5.70937e-07
1.74073e-07
1.76053e-07
1.98547e-07
1.99715e-07
5.20205e-07
5.79742e-07
1.73117e-07
1.74187e-07
1.97024e-07
2.00313e-07
1.74215e-07
1.99979e-07
1.97658e-07
5.21164e-07
5.72436e-07
1.79348e-07
1.9979e-07
2.00546e-07
5.67099e-07
5.86124e-07
6.34887e-07
2.06005e-07
2.05875e-07
2.32212e-07
2.28348e-07
5.90678e-07
6.28338e-07
2.04681e-07
2.08531e-07
2.31115e-07
2.31651e-07
2.05621e-07
2.26998e-07
2.31624e-07
5.87313e-07
6.36139e-07
2.08973e-07
2.30927e-07
2.3577e-07
6.39972e-07
6.48938e-07
6.95293e-07
2.42368e-07
2.3862e-07
2.71219e-07
2.72998e-07
6.43084e-07
6.9658e-07
2.40736e-07
2.41089e-07
2.69768e-07
2.73509e-07
2.42336e-07
2.72717e-07
2.75169e-07
6.49346e-07
6.96471e-07
2.46388e-07
2.73407e-07
2.81752e-07
6.97191e-07
7.08273e-07
7.43473e-07
2.80485e-07
2.82865e-07
3.09675e-07
3.08385e-07
7.106e-07
7.43623e-07
2.7927e-07
2.83535e-07
3.08502e-07
3.09225e-07
2.83594e-07
3.08756e-07
3.07159e-07
7.10183e-07
7.42126e-07
2.91188e-07
3.08256e-07
3.13056e-07
7.41555e-07
7.55491e-07
7.90001e-07
3.20548e-07
3.1803e-07
3.54147e-07
3.53755e-07
7.5442e-07
7.89697e-07
3.19324e-07
3.18437e-07
3.52162e-07
3.53697e-07
3.17043e-07
3.51687e-07
3.53907e-07
7.53017e-07
7.89583e-07
3.21209e-07
3.51536e-07
3.53162e-07
7.87579e-07
8.01246e-07
8.31642e-07
3.64351e-07
3.66219e-07
3.97558e-07
3.97661e-07
8.01862e-07
8.31941e-07
3.62564e-07
3.66216e-07
3.96109e-07
4.00077e-07
3.6665e-07
3.97829e-07
3.9843e-07
8.01948e-07
8.33542e-07
3.65653e-07
4.00185e-07
4.00659e-07
8.31412e-07
8.42256e-07
8.71006e-07
4.10526e-07
4.07138e-07
4.46412e-07
4.4321e-07
8.41299e-07
8.69084e-07
4.08398e-07
4.10583e-07
4.4482e-07
4.45148e-07
4.09402e-07
4.42195e-07
4.48086e-07
8.43357e-07
8.6975e-07
4.13003e-07
4.4349e-07
4.54877e-07
8.73263e-07
8.80286e-07
9.03595e-07
4.56973e-07
4.57596e-07
4.9291e-07
4.94927e-07
8.79567e-07
9.04784e-07
4.56485e-07
4.58373e-07
4.89334e-07
4.95111e-07
4.60529e-07
4.94208e-07
4.91987e-07
8.79547e-07
9.0479e-07
4.67123e-07
4.93584e-07
4.9766e-07
9.03176e-07
9.12829e-07
9.37438e-07
5.05482e-07
5.04569e-07
5.39853e-07
5.36557e-07
9.12862e-07
9.35621e-07
5.01061e-07
5.05259e-07
5.40004e-07
5.39876e-07
5.02645e-07
5.3575e-07
5.37063e-07
9.13476e-07
9.37441e-07
5.0672e-07
5.38483e-07
5.3378e-07
9.35447e-07
9.45659e-07
9.6807e-07
5.52342e-07
5.50081e-07
5.89499e-07
5.93236e-07
9.45065e-07
9.70734e-07
5.52362e-07
5.54006e-07
5.8556e-07
5.93431e-07
5.49976e-07
5.92447e-07
5.91004e-07
9.46482e-07
9.69357e-07
5.44688e-07
5.91649e-07
5.86846e-07
9.6862e-07
9.76771e-07
9.99257e-07
6.00835e-07
6.04865e-07
6.38408e-07
6.35223e-07
9.78386e-07
9.96132e-07
5.97895e-07
6.03783e-07
6.38828e-07
6.35603e-07
6.03512e-07
6.34556e-07
6.37002e-07
9.76869e-07
9.96991e-07
6.02461e-07
6.3377e-07
6.40776e-07
9.98276e-07
1.00691e-06
1.02592e-06
6.51884e-07
6.46442e-07
6.85161e-07
6.84816e-07
1.00381e-06
1.0284e-06
6.50807e-07
6.48281e-07
6.80433e-07
6.88671e-07
6.47416e-07
6.83702e-07
6.78467e-07
1.00529e-06
1.03015e-06
6.50996e-07
6.87918e-07
6.79468e-07
1.02392e-06
1.03308e-06
1.05675e-06
6.94631e-07
6.96928e-07
7.30273e-07
7.30577e-07
1.03676e-06
1.0565e-06
6.90917e-07
6.99943e-07
7.30019e-07
7.30946e-07
6.90424e-07
7.30374e-07
7.32999e-07
1.03787e-06
1.05592e-06
6.90621e-07
7.30021e-07
7.31857e-07
1.05818e-06
1.06565e-06
1.08852e-06
7.44821e-07
7.43222e-07
7.83116e-07
7.77714e-07
1.06385e-06
1.08485e-06
7.44314e-07
7.42482e-07
7.79193e-07
7.78851e-07
7.46859e-07
7.76794e-07
7.77969e-07
1.06293e-06
1.08458e-06
7.45752e-07
7.76657e-07
7.77621e-07
1.08494e-06
1.09428e-06
1.10674e-06
7.91727e-07
7.86449e-07
8.13503e-07
8.13311e-07
1.091e-06
1.10711e-06
7.87209e-07
7.88881e-07
8.11184e-07
8.15776e-07
7.86105e-07
8.12357e-07
8.15082e-07
1.09149e-06
1.10833e-06
7.8593e-07
8.14451e-07
8.14494e-07
1.10955e-06
1.1129e-06
1.13703e-06
8.22328e-07
8.24144e-07
8.56062e-07
8.59535e-07
1.11412e-06
1.13879e-06
8.21527e-07
8.26099e-07
8.58072e-07
8.60202e-07
8.27305e-07
8.59993e-07
8.64012e-07
1.11538e-06
1.13941e-06
8.26458e-07
8.59305e-07
8.62337e-07
1.1419e-06
1.1449e-06
1.16253e-06
8.67928e-07
8.69663e-07
8.95471e-07
8.93738e-07
1.14596e-06
1.16165e-06
8.69218e-07
8.71289e-07
8.94187e-07
8.98013e-07
8.72408e-07
8.93587e-07
8.90019e-07
1.14618e-06
1.16371e-06
8.71085e-07
8.95318e-07
8.90162e-07
1.15779e-06
1.16792e-06
1.18594e-06
9.03541e-07
9.02388e-07
9.31521e-07
9.31106e-07
1.16734e-06
1.18648e-06
9.01791e-07
9.05194e-07
9.29526e-07
9.29702e-07
8.97172e-07
9.29699e-07
9.28202e-07
1.16953e-06
1.1847e-06
8.97189e-07
9.28359e-07
9.2739e-07
1.18374e-06
1.19277e-06
1.20986e-06
9.40464e-07
9.39704e-07
9.61439e-07
9.60073e-07
1.19309e-06
1.20769e-06
9.38992e-07
9.39e-07
9.61432e-07
9.62998e-07
9.40393e-07
9.59632e-07
9.7043e-07
1.19111e-06
1.2115e-06
9.39535e-07
9.6399e-07
9.70251e-07
1.21745e-06
1.2149e-06
1.23181e-06
9.68454e-07
9.6763e-07
9.94287e-07
9.94752e-07
1.21292e-06
1.23333e-06
9.6846e-07
9.69701e-07
9.93458e-07
9.94487e-07
9.76033e-07
9.95249e-07
9.91286e-07
1.21665e-06
1.23057e-06
9.76083e-07
9.9112e-07
9.90923e-07
1.23056e-06
1.23866e-06
1.2545e-06
1.00296e-06
1.00365e-06
1.02165e-06
1.022e-06
1.24063e-06
1.25535e-06
1.00171e-06
1.00382e-06
1.02058e-06
1.02469e-06
9.97839e-07
1.02124e-06
1.02148e-06
1.23717e-06
1.25694e-06
9.9733e-07
1.02184e-06
1.02113e-06
1.25455e-06
1.25866e-06
1.27223e-06
1.02704e-06
1.02699e-06
1.04676e-06
1.0454e-06
1.25912e-06
1.27074e-06
1.02638e-06
1.02928e-06
1.04712e-06
1.0458e-06
1.02913e-06
1.04529e-06
1.04675e-06
1.26127e-06
1.2712e-06
1.0291e-06
1.04555e-06
1.04702e-06
1.27284e-06
1.2787e-06
1.29337e-06
1.05393e-06
1.05237e-06
1.07114e-06
1.07053e-06
1.27689e-06
1.29284e-06
1.05419e-06
1.05257e-06
1.07011e-06
1.07246e-06
1.05203e-06
1.0708e-06
1.06881e-06
1.27683e-06
1.29563e-06
1.05213e-06
1.0727e-06
1.06829e-06
1.29082e-06
1.29717e-06
1.30989e-06
1.07592e-06
1.07519e-06
1.09347e-06
1.09234e-06
1.29669e-06
1.30857e-06
1.07505e-06
1.07737e-06
1.09361e-06
1.09259e-06
1.07515e-06
1.09188e-06
1.09587e-06
1.30001e-06
1.30883e-06
1.07441e-06
1.09171e-06
1.09501e-06
1.31166e-06
1.31618e-06
1.32923e-06
1.09992e-06
1.0992e-06
1.11489e-06
1.11654e-06
1.31482e-06
1.33198e-06
1.10027e-06
1.09847e-06
1.11461e-06
1.11357e-06
1.10226e-06
1.11765e-06
1.11618e-06
1.31374e-06
1.32732e-06
1.10166e-06
1.11394e-06
1.11654e-06
1.3305e-06
1.33244e-06
1.34225e-06
1.11877e-06
1.12015e-06
1.13351e-06
1.1322e-06
1.33586e-06
1.34307e-06
1.11827e-06
1.11769e-06
1.133e-06
1.1342e-06
1.11946e-06
1.1331e-06
1.13142e-06
1.33114e-06
1.34252e-06
1.11994e-06
1.13326e-06
1.1313e-06
1.34135e-06
1.34794e-06
1.36213e-06
1.1392e-06
1.13743e-06
1.154e-06
1.15323e-06
1.34741e-06
1.35993e-06
1.1388e-06
1.14086e-06
1.15382e-06
1.15772e-06
1.13697e-06
1.15237e-06
1.15543e-06
1.34854e-06
1.36545e-06
1.1364e-06
1.15581e-06
1.15342e-06
1.36136e-06
1.36518e-06
1.3705e-06
1.15722e-06
1.15667e-06
1.16686e-06
1.16378e-06
1.36363e-06
1.36686e-06
1.15716e-06
1.16069e-06
1.16797e-06
1.16785e-06
1.16015e-06
1.16454e-06
1.16731e-06
1.36891e-06
1.37115e-06
1.15792e-06
1.16693e-06
1.16556e-06
1.36974e-06
1.37483e-06
1.38785e-06
1.17088e-06
1.16758e-06
1.18426e-06
1.18546e-06
1.3702e-06
1.38697e-06
1.17215e-06
1.17099e-06
1.1844e-06
1.18351e-06
1.17025e-06
1.18568e-06
1.18607e-06
1.37431e-06
1.38589e-06
1.16882e-06
1.18326e-06
1.18542e-06
1.38797e-06
1.39205e-06
1.40194e-06
1.18899e-06
1.19253e-06
1.20354e-06
1.20863e-06
1.39446e-06
1.41157e-06
1.18812e-06
1.18876e-06
1.2016e-06
1.20513e-06
1.19256e-06
1.20881e-06
1.2079e-06
1.39135e-06
1.40642e-06
1.19211e-06
1.20745e-06
1.20818e-06
1.41137e-06
1.40646e-06
1.41251e-06
1.20735e-06
1.21039e-06
1.2151e-06
1.21187e-06
1.41395e-06
1.40865e-06
1.20622e-06
1.20937e-06
1.21507e-06
1.21541e-06
1.20933e-06
1.2113e-06
1.20867e-06
1.41108e-06
1.41392e-06
1.20988e-06
1.21536e-06
1.20984e-06
1.40409e-06
1.41505e-06
1.42172e-06
1.21751e-06
1.21313e-06
1.22581e-06
1.2219e-06
1.41012e-06
1.41602e-06
1.21728e-06
1.21691e-06
1.22557e-06
1.22462e-06
1.20893e-06
1.22084e-06
1.2214e-06
1.41527e-06
1.41846e-06
1.21016e-06
1.22232e-06
1.22212e-06
1.41552e-06
1.42596e-06
1.43418e-06
1.22878e-06
1.22647e-06
1.23804e-06
1.24294e-06
1.42121e-06
1.44115e-06
1.22872e-06
1.22816e-06
1.23866e-06
1.24071e-06
1.228e-06
1.24502e-06
1.24775e-06
1.4229e-06
1.43732e-06
1.2283e-06
1.24126e-06
1.24667e-06
1.44716e-06
1.43799e-06
1.45074e-06
1.24217e-06
1.24806e-06
1.25654e-06
1.25649e-06
1.44704e-06
1.4535e-06
1.2422e-06
1.24476e-06
1.25485e-06
1.25469e-06
1.25211e-06
1.25695e-06
1.25458e-06
1.442e-06
1.45078e-06
1.25077e-06
1.25588e-06
1.2525e-06
1.44975e-06
1.45537e-06
1.4564e-06
1.26006e-06
1.25734e-06
1.26267e-06
1.25876e-06
1.4548e-06
1.45077e-06
1.25841e-06
1.25683e-06
1.26195e-06
1.26054e-06
1.25362e-06
1.25646e-06
1.25396e-06
1.45345e-06
1.45249e-06
1.25123e-06
1.25793e-06
1.25178e-06
1.44367e-06
1.45773e-06
1.46089e-06
1.26264e-06
1.26018e-06
1.26825e-06
1.26834e-06
1.45333e-06
1.46178e-06
1.2621e-06
1.26175e-06
1.26777e-06
1.26853e-06
1.25728e-06
1.26821e-06
1.27239e-06
1.45486e-06
1.46275e-06
1.25582e-06
1.26915e-06
1.27276e-06
1.46778e-06
1.46522e-06
1.47794e-06
1.27196e-06
1.27188e-06
1.28225e-06
1.28205e-06
1.46634e-06
1.47655e-06
1.27133e-06
1.27204e-06
1.28194e-06
1.28413e-06
1.27703e-06
1.28277e-06
1.28454e-06
1.4675e-06
1.48015e-06
1.27789e-06
1.28563e-06
1.28584e-06
1.48324e-06
1.48147e-06
1.48068e-06
1.28446e-06
1.28434e-06
1.28697e-06
1.28833e-06
1.47977e-06
1.48269e-06
1.28449e-06
1.28718e-06
1.28707e-06
1.28969e-06
1.28468e-06
1.28791e-06
1.2842e-06
1.48397e-06
1.48302e-06
1.28588e-06
1.28826e-06
1.28457e-06
1.47833e-06
1.48236e-06
1.48564e-06
1.28788e-06
1.2892e-06
1.29156e-06
1.29139e-06
1.48495e-06
1.486e-06
1.28755e-06
1.28911e-06
1.2911e-06
1.28909e-06
1.28484e-06
1.29085e-06
1.29254e-06
1.48412e-06
1.48136e-06
1.28468e-06
1.28765e-06
1.29066e-06
1.48477e-06
1.4889e-06
1.49613e-06
1.2932e-06
1.29284e-06
1.29972e-06
1.30032e-06
1.48844e-06
1.49603e-06
1.29307e-06
1.29113e-06
1.30033e-06
1.29921e-06
1.29582e-06
1.30152e-06
1.3044e-06
1.4846e-06
1.49452e-06
1.29385e-06
1.29938e-06
1.30279e-06
1.50153e-06
1.49969e-06
1.50258e-06
1.30217e-06
1.30315e-06
1.30627e-06
1.30745e-06
1.50053e-06
1.50455e-06
1.30271e-06
1.30164e-06
1.30569e-06
1.30681e-06
1.30567e-06
1.30722e-06
1.30463e-06
1.49833e-06
1.50257e-06
1.30467e-06
1.30662e-06
1.30541e-06
1.50132e-06
1.50384e-06
1.50287e-06
1.30638e-06
1.30715e-06
1.30697e-06
1.30641e-06
1.5056e-06
1.50116e-06
1.30566e-06
1.30826e-06
1.30818e-06
1.31373e-06
1.30389e-06
1.30521e-06
1.30399e-06
1.50533e-06
1.51269e-06
1.3051e-06
1.3129e-06
1.30649e-06
1.501e-06
1.50602e-06
1.5139e-06
1.30891e-06
1.30819e-06
1.3152e-06
1.31603e-06
1.50438e-06
1.51534e-06
1.31059e-06
1.31494e-06
1.31576e-06
1.31207e-06
1.30566e-06
1.31575e-06
1.31345e-06
1.51619e-06
1.50981e-06
1.3081e-06
1.31249e-06
1.31337e-06
1.50948e-06
1.51661e-06
1.50982e-06
1.31648e-06
1.31752e-06
1.31464e-06
1.31435e-06
1.51922e-06
1.51168e-06
1.316e-06
1.30873e-06
1.31027e-06
1.30258e-06
1.31584e-06
1.3149e-06
1.31781e-06
1.51014e-06
1.49431e-06
1.31474e-06
1.30516e-06
1.31478e-06
1.51467e-06
1.51065e-06
1.50807e-06
1.31237e-06
1.31095e-06
1.31019e-06
1.30625e-06
1.51201e-06
1.50077e-06
1.30864e-06
1.3027e-06
1.31063e-06
1.31726e-06
1.31611e-06
1.30749e-06
1.3129e-06
1.49607e-06
1.51488e-06
1.31336e-06
1.31671e-06
1.31266e-06
1.51194e-06
1.51219e-06
1.52726e-06
1.31175e-06
1.30712e-06
1.32325e-06
1.32222e-06
1.50381e-06
1.52199e-06
1.31533e-06
1.32331e-06
1.32792e-06
1.33527e-06
1.31316e-06
1.32149e-06
1.31957e-06
1.52306e-06
1.54134e-06
1.31451e-06
1.33093e-06
1.32172e-06
1.52084e-06
1.53201e-06
1.53478e-06
1.32679e-06
1.32755e-06
1.33205e-06
1.33636e-06
1.52917e-06
1.54352e-06
1.33049e-06
1.33547e-06
1.33035e-06
1.32627e-06
1.32207e-06
1.33424e-06
1.32817e-06
1.54322e-06
1.52929e-06
1.32363e-06
1.32481e-06
1.32639e-06
1.52905e-06
1.53598e-06
1.52361e-06
1.33191e-06
1.33589e-06
1.32278e-06
1.32156e-06
1.54517e-06
1.52401e-06
1.32785e-06
1.32238e-06
1.3179e-06
1.31148e-06
1.32901e-06
1.32219e-06
1.32629e-06
1.52961e-06
1.51215e-06
1.32666e-06
1.31632e-06
1.32473e-06
1.52896e-06
1.52387e-06
1.50763e-06
1.31852e-06
1.31642e-06
1.30898e-06
1.30744e-06
1.52339e-06
1.50562e-06
1.31415e-06
1.30917e-06
1.30791e-06
1.30862e-06
1.32288e-06
1.30931e-06
1.31374e-06
1.51276e-06
1.50907e-06
1.32216e-06
1.31279e-06
1.31474e-06
1.51605e-06
1.5093e-06
1.5204e-06
1.30855e-06
1.30761e-06
1.31678e-06
1.31791e-06
1.50801e-06
1.52216e-06
1.30843e-06
1.31149e-06
1.31878e-06
1.32214e-06
1.31228e-06
1.31835e-06
1.31718e-06
1.51268e-06
1.52665e-06
1.31344e-06
1.32037e-06
1.31742e-06
1.52062e-06
1.52589e-06
1.53715e-06
1.32039e-06
1.32184e-06
1.32866e-06
1.32984e-06
1.52809e-06
1.53943e-06
1.3223e-06
1.32557e-06
1.32895e-06
1.33013e-06
1.32078e-06
1.32874e-06
1.32574e-06
1.53183e-06
1.53941e-06
1.3207e-06
1.32798e-06
1.32519e-06
1.5348e-06
1.54005e-06
1.53589e-06
1.32956e-06
1.33013e-06
1.32545e-06
1.32225e-06
1.54156e-06
1.53066e-06
1.32934e-06
1.32994e-06
1.32439e-06
1.32121e-06
1.32454e-06
1.31952e-06
1.31418e-06
1.5412e-06
1.53012e-06
1.324e-06
1.31914e-06
1.31407e-06
1.51679e-06
1.53661e-06
1.51869e-06
1.32144e-06
1.31842e-06
1.3102e-06
1.31035e-06
1.53113e-06
1.51877e-06
1.32062e-06
1.31754e-06
1.30962e-06
1.31009e-06
1.31319e-06
1.31259e-06
1.32159e-06
1.53061e-06
1.51899e-06
1.31319e-06
1.31305e-06
1.32184e-06
1.53321e-06
1.51926e-06
1.51806e-06
1.30821e-06
1.30992e-06
1.30994e-06
1.3126e-06
1.52041e-06
1.5239e-06
1.30769e-06
1.30989e-06
1.30955e-06
1.31305e-06
1.32503e-06
1.31472e-06
1.3229e-06
1.52095e-06
1.52557e-06
1.32526e-06
1.31564e-06
1.32296e-06
1.54079e-06
1.5212e-06
1.52049e-06
1.31133e-06
1.31282e-06
1.3101e-06
1.3058e-06
1.52611e-06
1.51449e-06
1.31093e-06
1.31327e-06
1.3097e-06
1.30548e-06
1.3131e-06
1.30121e-06
1.2873e-06
1.5278e-06
1.51474e-06
1.31323e-06
1.30152e-06
1.28777e-06
1.485e-06
1.52123e-06
1.50887e-06
1.30615e-06
1.30191e-06
1.29713e-06
1.29527e-06
1.51485e-06
1.50511e-06
1.30565e-06
1.30117e-06
1.29619e-06
1.29292e-06
1.28296e-06
1.29333e-06
1.29109e-06
1.51493e-06
1.5018e-06
1.28341e-06
1.29139e-06
1.29043e-06
1.49547e-06
1.5103e-06
1.52095e-06
1.29648e-06
1.29563e-06
1.30402e-06
1.3064e-06
1.50879e-06
1.52664e-06
1.29543e-06
1.29296e-06
1.30318e-06
1.30497e-06
1.30041e-06
1.30951e-06
1.32553e-06
1.50466e-06
1.52321e-06
1.29928e-06
1.30744e-06
1.32405e-06
1.55488e-06
1.52687e-06
1.5347e-06
1.30778e-06
1.3099e-06
1.31189e-06
1.31239e-06
1.53289e-06
1.53653e-06
1.30725e-06
1.30967e-06
1.31215e-06
1.31518e-06
1.33059e-06
1.31574e-06
1.32569e-06
1.53067e-06
1.54148e-06
1.32958e-06
1.3187e-06
1.32714e-06
1.55806e-06
1.53546e-06
1.50742e-06
1.30963e-06
1.30909e-06
1.28914e-06
1.28832e-06
1.53714e-06
1.50612e-06
1.31024e-06
1.31278e-06
1.28935e-06
1.28903e-06
1.3144e-06
1.2859e-06
1.27258e-06
1.54223e-06
1.50781e-06
1.31607e-06
1.28718e-06
1.27328e-06
1.48354e-06
1.50636e-06
1.47982e-06
1.28237e-06
1.28102e-06
1.2643e-06
1.26126e-06
1.50454e-06
1.47241e-06
1.2824e-06
1.28103e-06
1.26373e-06
1.26019e-06
1.2591e-06
1.2552e-06
1.23692e-06
1.50571e-06
1.47092e-06
1.2593e-06
1.25392e-06
1.23561e-06
1.43368e-06
1.48053e-06
1.48193e-06
1.2619e-06
1.25854e-06
1.262e-06
1.2596e-06
1.47287e-06
1.4767e-06
1.26116e-06
1.25739e-06
1.26122e-06
1.2585e-06
1.23711e-06
1.26008e-06
1.26405e-06
1.47137e-06
1.47499e-06
1.23569e-06
1.25898e-06
1.26336e-06
1.47708e-06
1.48696e-06
1.50482e-06
1.2661e-06
1.2654e-06
1.27797e-06
1.28117e-06
1.48364e-06
1.51277e-06
1.26565e-06
1.2647e-06
1.27849e-06
1.28253e-06
1.27809e-06
1.28818e-06
1.31048e-06
1.482e-06
1.51438e-06
1.27792e-06
1.28984e-06
1.31178e-06
1.55538e-06
1.51014e-06
1.49968e-06
1.28209e-06
1.28588e-06
1.26754e-06
1.2696e-06
1.51952e-06
1.50727e-06
1.28268e-06
1.28782e-06
1.26741e-06
1.27046e-06
1.31436e-06
1.27161e-06
1.2786e-06
1.52214e-06
1.51025e-06
1.3159e-06
1.27358e-06
1.2797e-06
1.52966e-06
1.47884e-06
1.22845e-06
1.22846e-06
1.48348e-06
1.22779e-06
1.22793e-06
7.8037e-07
7.79988e-07
7.78161e-07
1.2278e-06
1.48525e-06
1.22825e-06
3.51069e-11
2.5335e-09
2.00236e-10
1.53788e-10
5.44744e-09
3.56311e-09
2.8953e-09
9.5014e-10
5.51215e-09
4.47387e-09
1.0125e-09
1.13258e-08
5.44343e-09
1.95477e-09
2.03615e-09
7.48664e-09
1.61618e-07
5.93053e-09
2.55807e-07
1.45539e-06
2.93456e-06
8.71096e-09
1.58952e-07
7.36821e-09
2.51495e-07
1.23737e-09
1.54135e-09
1.37732e-09
1.59327e-09
1.21614e-09
1.5184e-09
1.35244e-09
4.85707e-09
7.37928e-08
2.72181e-09
3.33175e-09
5.04007e-09
5.30372e-08
2.69379e-09
1.55808e-06
3.06657e-06
4.80743e-09
3.0117e-09
8.64871e-08
4.74454e-09
5.04497e-09
2.97521e-09
6.43928e-08
2.06525e-07
2.10326e-07
5.00903e-09
1.76835e-07
1.79376e-07
1.67035e-08
4.58492e-07
1.21452e-08
6.60607e-07
6.70777e-06
9.70392e-06
1.79502e-08
4.53122e-07
1.33488e-08
6.53291e-07
1.20012e-09
1.49794e-09
1.33385e-09
1.53282e-09
1.15251e-09
1.43712e-09