/*--------------------------------*- C++ -*----------------------------------*\
| =========                 |                                                 |
| \\      /  F ield         | OpenFOAM: The Open Source CFD Toolbox           |
|  \\    /   O peration     | Version:  v2012                                 |
|   \\  /    A nd           | Website:  www.openfoam.com                      |
|    \\/     M anipulation  |                                                 |
\*---------------------------------------------------------------------------*/
FoamFile
{
    version     2.0;
    format      ascii;
    class       volScalarField;
    location    "1737.5";
    object      nut;
}
// * * * * * * * * * * * * * * * * * * * * * * * * * * * * * * * * * * * * * //

dimensions      [0 2 -1 0 0 0 0];


internalField   nonuniform List<scalar> 
171728
(
1.5624e-06
1.73626e-06
2.19172e-06
2.26441e-06
1.57716e-06
1.71827e-06
2.15726e-06
2.21104e-06
1.56248e-06
1.71045e-06
2.1206e-06
2.16341e-06
1.54592e-06
1.70699e-06
2.10618e-06
2.12696e-06
1.53915e-06
1.70066e-06
2.10341e-06
2.0938e-06
1.51996e-06
1.67874e-06
2.07529e-06
2.05413e-06
1.51689e-06
1.64611e-06
2.03367e-06
2.00978e-06
1.54557e-06
1.60173e-06
1.98043e-06
1.96965e-06
1.56329e-06
1.54556e-06
1.91986e-06
1.93075e-06
1.59309e-06
1.47867e-06
1.85952e-06
1.85649e-06
1.63262e-06
1.40477e-06
1.79212e-06
1.78287e-06
1.67564e-06
1.32689e-06
1.70492e-06
1.69829e-06
1.72865e-06
1.24196e-06
1.602e-06
1.60665e-06
1.78914e-06
1.15592e-06
1.4993e-06
1.50727e-06
1.91034e-06
1.07152e-06
1.39126e-06
1.39563e-06
2.04727e-06
1.00079e-06
1.30165e-06
1.27887e-06
2.14048e-06
9.40127e-07
1.24014e-06
1.18372e-06
2.44915e-06
9.03423e-07
1.18126e-06
1.13215e-06
3.17604e-06
9.51774e-07
1.15554e-06
1.11036e-06
3.59812e-06
1.02863e-06
1.29321e-06
1.22339e-06
2.76871e-06
1.21854e-06
1.37281e-06
1.60296e-06
1.81092e-06
1.49669e-06
1.71399e-06
2.22999e-06
1.46716e-06
2.26589e-06
2.26201e-06
3.60516e-06
1.30978e-06
2.6696e-06
3.01439e-06
5.11047e-06
1.20057e-06
3.65296e-06
3.90441e-06
8.14127e-06
1.08396e-06
5.43333e-06
5.38168e-06
1.13321e-05
1.01894e-06
7.15336e-06
7.08447e-06
2.01254e-05
1.0209e-06
8.80192e-06
9.24959e-06
2.50736e-05
9.0056e-07
1.1667e-05
1.13185e-05
2.72607e-05
1.10293e-06
1.42435e-05
1.53952e-05
4.59438e-05
1.09825e-06
1.95286e-05
1.72484e-05
3.82795e-05
1.17591e-06
1.91755e-05
2.20913e-05
5.62809e-05
1.78363e-06
2.94455e-05
2.73964e-05
5.92575e-05
1.88847e-06
2.95058e-05
3.0217e-05
6.2479e-05
2.63107e-06
3.52674e-05
3.66232e-05
7.16075e-05
3.10531e-06
4.34619e-05
4.28429e-05
7.51361e-05
4.67889e-06
4.43021e-05
4.41162e-05
7.77653e-05
4.88861e-06
5.54656e-05
5.51804e-05
8.29992e-05
7.71606e-06
5.50977e-05
5.62948e-05
8.83097e-05
8.9489e-06
6.87176e-05
6.79679e-05
9.29025e-05
1.02784e-05
6.87035e-05
6.75478e-05
9.50516e-05
1.47991e-05
7.81669e-05
8.04556e-05
9.78553e-05
1.48548e-05
8.43984e-05
8.12942e-05
0.000104995
2.28457e-05
8.84315e-05
9.01875e-05
0.000105854
2.17229e-05
9.20856e-05
9.46053e-05
0.000109175
2.977e-05
0.000104575
0.000102695
0.000117065
3.89537e-05
0.00010482
0.000104605
0.000115867
3.48511e-05
0.000110239
0.000109818
0.00012364
4.68003e-05
0.00011832
0.000119664
0.000127317
4.90069e-05
0.00011999
0.000118175
0.000123772
6.06704e-05
0.000126648
0.000129129
0.000134953
6.1334e-05
0.000127513
0.000128378
0.000136768
7.43787e-05
0.000138833
0.000137517
0.000136925
7.70185e-05
0.00013667
0.000137394
0.000142278
8.76701e-05
0.000145996
0.000146032
0.000143993
9.09862e-05
0.000145163
0.000146317
0.00014564
0.000100812
0.000153454
0.00015346
0.000152532
0.00010865
0.000156674
0.000153611
0.000152139
0.000109942
0.000159298
0.000160494
0.00015544
0.000123604
0.000165055
0.000166176
0.000159954
0.000126272
0.000161328
0.000163631
0.000155485
0.000128901
0.000173677
0.000170178
0.000167877
0.000143712
0.000179107
0.000179309
0.000170085
0.000144241
0.000174061
0.000176164
0.000161343
0.000150768
0.000174263
0.000175088
0.000168995
0.000152047
0.000189035
0.000187033
0.000179391
0.000166132
0.00018979
0.000188864
0.000173382
0.000172294
0.000185706
0.000185362
0.000169619
0.000168668
0.000191473
0.000192064
0.000182984
0.00017905
0.000197246
0.000199866
0.000183292
0.000187808
0.000197978
0.000197216
0.000178751
0.000186587
0.000196286
0.00019546
0.000183416
0.000193146
0.000205792
0.000203087
0.000188514
0.000200491
0.000205063
0.000205097
0.000186491
0.000201879
0.000203858
0.000211607
0.000185506
0.000210436
0.000213366
0.000208973
0.000191702
0.000210904
0.000209722
0.000202045
0.000190521
0.000207469
0.000204742
0.000214921
0.000189909
0.000220824
0.000217285
0.000221925
0.000193335
0.000232509
0.000225801
0.000218942
0.000198063
0.000229641
0.000216989
0.000214206
0.000198425
0.000219717
0.000210853
0.000212229
0.000190207
0.000223445
0.000220923
0.000222096
0.000199003
0.000241792
0.000227622
0.000227313
0.00020204
0.000245743
0.000222082
0.00022189
0.000188208
0.000235468
0.000223257
0.000223744
0.000211792
0.000238056
0.00022858
0.000229385
0.000207645
0.00024334
0.000218989
0.000219779
0.000180287
0.000237694
0.000216252
0.000214255
0.000191899
0.000245412
0.000235045
0.000233711
0.000219327
0.000260951
0.000244201
0.000246346
0.000225884
0.000255248
0.000224265
0.000224899
0.000189689
0.000237903
0.000208992
0.00020807
0.000169764
0.000232493
0.000217042
0.000215576
0.000195157
0.000253926
0.000242842
0.000244989
0.000233963
2.25635e-06
2.26517e-06
2.11873e-06
2.25214e-06
2.10044e-06
2.39545e-06
1.53667e-06
1.57743e-06
1.62237e-06
1.54338e-06
1.99252e-06
2.01867e-06
2.26844e-06
2.50477e-06
1.99424e-06
2.26716e-06
2.25184e-06
2.21612e-06
1.94829e-06
1.75336e-06
1.90358e-06
1.73742e-06
2.25105e-06
2.21862e-06
1.75022e-06
2.1051e-06
1.73698e-06
2.05745e-06
1.73138e-06
1.72038e-06
1.71115e-06
2.268e-06
2.27275e-06
1.51592e-06
2.16748e-06
1.48189e-06
2.21377e-06
2.21377e-06
2.19141e-06
1.88643e-06
1.72991e-06
1.8289e-06
1.70968e-06
2.21667e-06
2.17995e-06
1.73752e-06
2.03761e-06
1.74163e-06
1.98547e-06
1.7072e-06
1.71194e-06
1.69384e-06
2.27162e-06
2.25327e-06
1.47529e-06
2.12738e-06
1.46822e-06
2.16577e-06
2.18939e-06
2.17095e-06
1.80965e-06
1.70348e-06
1.74778e-06
1.68858e-06
2.17754e-06
2.13986e-06
1.74303e-06
1.97238e-06
1.74409e-06
1.9426e-06
1.69066e-06
1.70748e-06
1.68158e-06
2.25056e-06
2.22616e-06
1.4674e-06
2.10763e-06
1.46758e-06
2.12882e-06
2.16841e-06
2.13314e-06
1.72396e-06
1.68374e-06
1.64983e-06
1.66733e-06
2.13597e-06
2.09586e-06
1.74128e-06
1.9324e-06
1.72745e-06
1.90274e-06
1.67786e-06
1.70273e-06
1.66607e-06
2.224e-06
2.20645e-06
1.46728e-06
2.10573e-06
1.47097e-06
2.09583e-06
2.12938e-06
2.07316e-06
1.62136e-06
1.65929e-06
1.53915e-06
1.63674e-06
2.09155e-06
2.04989e-06
1.7207e-06
1.88975e-06
1.69705e-06
1.83375e-06
1.66283e-06
1.68575e-06
1.64965e-06
2.20476e-06
2.17812e-06
1.47257e-06
2.08487e-06
1.47652e-06
2.05678e-06
2.06888e-06
2.00539e-06
1.51501e-06
1.62951e-06
1.43988e-06
1.60751e-06
2.04516e-06
2.00815e-06
1.68836e-06
1.81266e-06
1.66179e-06
1.74788e-06
1.64602e-06
1.65495e-06
1.63301e-06
2.17579e-06
2.13511e-06
1.47699e-06
2.04371e-06
1.48796e-06
2.01276e-06
2.00089e-06
1.92518e-06
1.41266e-06
1.60139e-06
1.33218e-06
1.58121e-06
2.00328e-06
1.96555e-06
1.65443e-06
1.7284e-06
1.62224e-06
1.67478e-06
1.62821e-06
1.6133e-06
1.61076e-06
2.13169e-06
2.08083e-06
1.49242e-06
1.99558e-06
1.50873e-06
1.97213e-06
1.91964e-06
1.82163e-06
1.30437e-06
1.57054e-06
1.22008e-06
1.52342e-06
1.9609e-06
1.91866e-06
1.60899e-06
1.65755e-06
1.56318e-06
1.60762e-06
1.60509e-06
1.55945e-06
1.57406e-06
2.07583e-06
2.01219e-06
1.51586e-06
1.9345e-06
1.52084e-06
1.93467e-06
1.81439e-06
1.70857e-06
1.19566e-06
1.50331e-06
1.13203e-06
1.43925e-06
1.91329e-06
1.85067e-06
1.54658e-06
1.58632e-06
1.49666e-06
1.51637e-06
1.56035e-06
1.49571e-06
1.51201e-06
2.00524e-06
1.93846e-06
1.52027e-06
1.87463e-06
1.51522e-06
1.86347e-06
1.70063e-06
1.59198e-06
1.11425e-06
1.41802e-06
1.07103e-06
1.3705e-06
1.84439e-06
1.76164e-06
1.47894e-06
1.50233e-06
1.41859e-06
1.48903e-06
1.49365e-06
1.42362e-06
1.43163e-06
1.93054e-06
1.87614e-06
1.50915e-06
1.81104e-06
1.48172e-06
1.78899e-06
1.58174e-06
1.47652e-06
1.05983e-06
1.35682e-06
1.02351e-06
1.31271e-06
1.75478e-06
1.67293e-06
1.39839e-06
1.48593e-06
1.33115e-06
1.50875e-06
1.41168e-06
1.34445e-06
1.35411e-06
1.86904e-06
1.82463e-06
1.47074e-06
1.72798e-06
1.43619e-06
1.70733e-06
1.46354e-06
1.35032e-06
1.01076e-06
1.29543e-06
9.69104e-07
1.24182e-06
1.66355e-06
1.57816e-06
1.30836e-06
1.52763e-06
1.24217e-06
1.61037e-06
1.33641e-06
1.26198e-06
1.27947e-06
1.81557e-06
1.77017e-06
1.42214e-06
1.62896e-06
1.37023e-06
1.61919e-06
1.3352e-06
1.24046e-06
9.51995e-07
1.22155e-06
8.87247e-07
1.1614e-06
1.56457e-06
1.47038e-06
1.22181e-06
1.64968e-06
1.15797e-06
1.79133e-06
1.25986e-06
1.17374e-06
1.19723e-06
1.75786e-06
1.71881e-06
1.35233e-06
1.52381e-06
1.29688e-06
1.52437e-06
1.2275e-06
1.20146e-06
8.66915e-07
1.1418e-06
9.25284e-07
1.08592e-06
1.45342e-06
1.36155e-06
1.13747e-06
1.84008e-06
1.08062e-06
1.99785e-06
1.17409e-06
1.08861e-06
1.10707e-06
1.70418e-06
1.67236e-06
1.28003e-06
1.41718e-06
1.22455e-06
1.41791e-06
1.19925e-06
1.25449e-06
1.0034e-06
1.06844e-06
1.21391e-06
1.00861e-06
1.34103e-06
1.25211e-06
1.06354e-06
2.05992e-06
1.02033e-06
2.24844e-06
1.08435e-06
1.01201e-06
1.02356e-06
1.65586e-06
1.63076e-06
1.20639e-06
1.32165e-06
1.14907e-06
1.30837e-06
1.25987e-06
1.40019e-06
1.27692e-06
9.95577e-07
1.74505e-06
9.46067e-07
1.23313e-06
1.14702e-06
1.01146e-06
2.30551e-06
9.7114e-07
2.39301e-06
1.00103e-06
9.45381e-07
9.58522e-07
1.6152e-06
1.58104e-06
1.1233e-06
1.24488e-06
1.06171e-06
1.21036e-06
1.42117e-06
1.8596e-06
2.02376e-06
9.35567e-07
3.40044e-06
9.08809e-07
1.12604e-06
1.0826e-06
9.63827e-07
2.39385e-06
9.85881e-07
2.24838e-06
9.42612e-07
9.12178e-07
9.25829e-07
1.56014e-06
1.47452e-06
1.03769e-06
1.18408e-06
9.95838e-07
1.12203e-06
1.96298e-06
2.5299e-06
3.9523e-06
8.99254e-07
5.43597e-06
9.38654e-07
1.0544e-06
1.11878e-06
9.79747e-07
2.13741e-06
1.07221e-06
1.66231e-06
9.28781e-07
9.45941e-07
9.25466e-07
1.42674e-06
1.3853e-06
9.91188e-07
1.18611e-06
9.80771e-07
1.09712e-06
2.63131e-06
2.69275e-06
5.72793e-06
9.42984e-07
6.32159e-06
9.92232e-07
1.13474e-06
1.16385e-06
1.06078e-06
1.51647e-06
1.15024e-06
1.33322e-06
9.38734e-07
1.00165e-06
9.95934e-07
1.33685e-06
1.44015e-06
9.96165e-07
1.26813e-06
1.03369e-06
1.17605e-06
2.83769e-06
2.59028e-06
6.56658e-06
1.02378e-06
6.11484e-06
1.12584e-06
1.21256e-06
1.44452e-06
1.23187e-06
1.34058e-06
1.1871e-06
1.19497e-06
1.03796e-06
1.13651e-06
1.17874e-06
1.5395e-06
1.36767e-06
1.09359e-06
1.29928e-06
1.21817e-06
1.52871e-06
2.42948e-06
2.56121e-06
5.53406e-06
1.20397e-06
3.82929e-06
1.51929e-06
1.5563e-06
2.39584e-06
1.26968e-06
1.21813e-06
1.51055e-06
1.51192e-06
1.23055e-06
1.51944e-06
1.43711e-06
1.43079e-06
2.37627e-06
1.2957e-06
1.65508e-06
1.48897e-06
2.05084e-06
2.54763e-06
3.36617e-06
3.63318e-06
1.49816e-06
3.30893e-06
1.97101e-06
2.47585e-06
2.76296e-06
1.56552e-06
1.56245e-06
1.81301e-06
1.99759e-06
1.54971e-06
1.97596e-06
1.94648e-06
2.53259e-06
3.25907e-06
1.57646e-06
2.14547e-06
2.02429e-06
3.25846e-06
3.43972e-06
5.61705e-06
3.3346e-06
2.26838e-06
3.60012e-06
2.35548e-06
3.57911e-06
4.55466e-06
2.04194e-06
2.11009e-06
2.57141e-06
2.47838e-06
2.08981e-06
2.32116e-06
2.56329e-06
3.6745e-06
4.30544e-06
2.11366e-06
2.64974e-06
2.70907e-06
4.69519e-06
5.53105e-06
8.45673e-06
3.51878e-06
2.72269e-06
4.13018e-06
3.72494e-06
4.33413e-06
9.81332e-06
2.74454e-06
2.86658e-06
3.65561e-06
3.46276e-06
2.78333e-06
3.74181e-06
3.71273e-06
4.74293e-06
8.26671e-06
2.7703e-06
3.63277e-06
3.9196e-06
7.7102e-06
9.10782e-06
1.18692e-05
4.40001e-06
3.63893e-06
4.60393e-06
4.97802e-06
9.65233e-06
1.01139e-05
4.03167e-06
3.72578e-06
4.46997e-06
4.91281e-06
3.9862e-06
4.94611e-06
4.53511e-06
8.22323e-06
1.18166e-05
4.23737e-06
5.04825e-06
4.57734e-06
1.14147e-05
1.27241e-05
1.67934e-05
5.01124e-06
5.42434e-06
7.14714e-06
6.68556e-06
1.33984e-05
1.5938e-05
4.84045e-06
5.24945e-06
7.02121e-06
6.42108e-06
5.32535e-06
6.5918e-06
6.67283e-06
1.28553e-05
1.66417e-05
5.50412e-06
6.51239e-06
6.6052e-06
1.95227e-05
1.94778e-05
1.95945e-05
7.1597e-06
7.22819e-06
8.5565e-06
7.89554e-06
1.6022e-05
2.31323e-05
7.05521e-06
6.98249e-06
8.45752e-06
8.69662e-06
6.53085e-06
7.95697e-06
9.35689e-06
1.78574e-05
2.31638e-05
6.57139e-06
8.78774e-06
9.6289e-06
2.06904e-05
2.09489e-05
3.24725e-05
1.00543e-05
8.84506e-06
1.08179e-05
1.1754e-05
2.29198e-05
3.20036e-05
9.86253e-06
9.17263e-06
1.04716e-05
1.04068e-05
1.03169e-05
1.15623e-05
9.8586e-06
2.47918e-05
2.75443e-05
1.01835e-05
1.0549e-05
9.83119e-06
2.86713e-05
3.14157e-05
3.56261e-05
1.05845e-05
1.16446e-05
1.51464e-05
1.24642e-05
3.37524e-05
3.36355e-05
1.04165e-05
1.12221e-05
1.5096e-05
1.47566e-05
1.01368e-05
1.25986e-05
1.6013e-05
2.89871e-05
3.82085e-05
1.09717e-05
1.47507e-05
1.67898e-05
4.34445e-05
4.11096e-05
4.52071e-05
1.64166e-05
1.4318e-05
1.64075e-05
1.97173e-05
3.59095e-05
4.78944e-05
1.58961e-05
1.53847e-05
1.63098e-05
1.59585e-05
1.63485e-05
1.94912e-05
1.49906e-05
3.96772e-05
4.29202e-05
1.71739e-05
1.59526e-05
1.53156e-05
3.96237e-05
4.44057e-05
4.97935e-05
1.76356e-05
1.96865e-05
2.04614e-05
1.80547e-05
4.95951e-05
4.54985e-05
1.78094e-05
1.73084e-05
2.02576e-05
2.20698e-05
1.54825e-05
1.80637e-05
2.24867e-05
4.41508e-05
4.95762e-05
1.49064e-05
2.2049e-05
2.24936e-05
5.25917e-05
5.23876e-05
5.68685e-05
2.07756e-05
1.91128e-05
2.65309e-05
2.75708e-05
4.51893e-05
6.18839e-05
2.06336e-05
2.20687e-05
2.63493e-05
2.46125e-05
2.28665e-05
2.70224e-05
2.51525e-05
5.1557e-05
5.74355e-05
2.47358e-05
2.46017e-05
2.53511e-05
5.93809e-05
5.79191e-05
6.30226e-05
2.80429e-05
2.95712e-05
2.8152e-05
2.93613e-05
6.44607e-05
6.32822e-05
2.70901e-05
2.74333e-05
2.88784e-05
3.05108e-05
2.72537e-05
3.04503e-05
2.91421e-05
5.78062e-05
6.45277e-05
2.67269e-05
3.09033e-05
3.04488e-05
6.03847e-05
6.39509e-05
6.7943e-05
2.96322e-05
2.86353e-05
3.53133e-05
3.32553e-05
6.29695e-05
6.55519e-05
3.02719e-05
3.00669e-05
3.4589e-05
3.35328e-05
2.86042e-05
3.11634e-05
3.50146e-05
6.54189e-05
6.63687e-05
2.98932e-05
3.32916e-05
3.40459e-05
6.97733e-05
6.96526e-05
7.37978e-05
3.68363e-05
3.6798e-05
3.99188e-05
4.20868e-05
6.81013e-05
7.56995e-05
3.64896e-05
3.63051e-05
3.95338e-05
4.28254e-05
3.91331e-05
4.36879e-05
4.32401e-05
6.83164e-05
7.58513e-05
3.86168e-05
4.28177e-05
4.65898e-05
7.51442e-05
7.44374e-05
7.7715e-05
4.02084e-05
4.18644e-05
4.60239e-05
4.29123e-05
7.60732e-05
7.63157e-05
4.01789e-05
4.26085e-05
4.59143e-05
4.29787e-05
4.22021e-05
4.26133e-05
4.05474e-05
7.60376e-05
7.58873e-05
4.62129e-05
4.28479e-05
4.29754e-05
7.64915e-05
7.91274e-05
8.19982e-05
4.87779e-05
4.50307e-05
4.94891e-05
5.42107e-05
7.72053e-05
8.38763e-05
4.80154e-05
4.51945e-05
5.00045e-05
5.2634e-05
4.43351e-05
5.34054e-05
5.45562e-05
7.69843e-05
8.32324e-05
4.31423e-05
5.23672e-05
5.25859e-05
8.25672e-05
8.26546e-05
8.70916e-05
4.98444e-05
5.56143e-05
5.96985e-05
5.41048e-05
8.48405e-05
8.52736e-05
5.14245e-05
5.44761e-05
5.68054e-05
5.59893e-05
5.44032e-05
5.48298e-05
5.42046e-05
8.4426e-05
8.63651e-05
5.24165e-05
5.62279e-05
5.65265e-05
8.65552e-05
8.84754e-05
9.06546e-05
6.13168e-05
5.47339e-05
6.11357e-05
6.55721e-05
8.58989e-05
9.2236e-05
5.88585e-05
5.65001e-05
6.46271e-05
6.52742e-05
5.84648e-05
6.49796e-05
6.56268e-05
8.70138e-05
9.1493e-05
6.04438e-05
6.50609e-05
6.72554e-05
9.25265e-05
9.12131e-05
9.46941e-05
6.43821e-05
6.91352e-05
6.94709e-05
6.97891e-05
9.34721e-05
9.38539e-05
6.50081e-05
6.81512e-05
6.73176e-05
6.80153e-05
6.6696e-05
7.00055e-05
6.89993e-05
9.2712e-05
9.38748e-05
6.94269e-05
6.78603e-05
7.343e-05
9.44389e-05
9.56704e-05
9.83731e-05
6.94403e-05
6.84771e-05
7.65192e-05
7.30752e-05
9.39419e-05
9.86269e-05
7.02839e-05
6.7584e-05
7.68877e-05
7.6661e-05
6.89297e-05
7.27075e-05
7.40595e-05
9.43664e-05
9.96361e-05
7.25127e-05
7.65805e-05
6.92098e-05
9.67453e-05
9.90605e-05
0.00010193
7.86994e-05
7.85511e-05
7.89157e-05
8.505e-05
0.000100656
0.000103417
7.63938e-05
8.06619e-05
7.92285e-05
8.28922e-05
7.71414e-05
8.52472e-05
8.27762e-05
0.000101085
0.000102172
7.15131e-05
8.2523e-05
8.256e-05
0.000104219
0.000103003
0.000107453
8.03963e-05
8.41114e-05
9.07711e-05
8.38827e-05
0.000103285
0.000104441
8.29249e-05
8.16857e-05
9.03151e-05
8.5351e-05
8.44299e-05
8.37666e-05
8.86656e-05
0.000102171
0.00010555
8.54074e-05
8.49485e-05
9.0458e-05
0.000105801
0.000107785
0.000107617
9.25571e-05
8.8735e-05
9.05512e-05
9.28036e-05
0.000106168
0.000110083
9.03294e-05
9.04798e-05
8.9444e-05
9.50363e-05
8.83979e-05
9.22094e-05
8.82037e-05
0.000107511
0.000110772
8.99003e-05
9.54367e-05
8.82744e-05
0.000107847
0.000108118
0.000115695
9.00171e-05
9.2295e-05
9.98089e-05
0.000100464
0.00011025
0.000115222
9.05442e-05
9.41259e-05
0.000101034
9.85917e-05
9.07348e-05
0.000101089
0.000103055
0.000110853
0.000113886
9.05954e-05
9.87767e-05
0.000102741
0.000116329
0.000117394
0.0001191
0.000104301
0.000104194
0.000109716
0.000106533
0.000116674
0.000117307
0.000104801
0.000102792
0.000107188
0.000105539
0.000105577
0.000106107
0.000104555
0.000115565
0.000117246
0.000105272
0.000104481
0.000104413
0.000116095
0.000118724
0.000118213
0.000108857
0.000105328
0.000105577
0.00010502
0.000116968
0.000119297
0.00010601
0.000105183
0.000105472
0.000107796
0.00010328
0.000104802
0.00010792
0.000117123
0.0001206
0.000103327
0.000108104
0.000108348
0.000121618
0.000119588
0.000126359
0.000106798
0.00011011
0.000116781
0.000118291
0.000121434
0.000126398
0.000108935
0.000109281
0.00011788
0.000117951
0.000112721
0.000118675
0.000120692
0.000121781
0.000125955
0.000112155
0.000117928
0.000119918
0.000127491
0.000126776
0.000126756
0.000117882
0.000117921
0.000118241
0.000116808
0.00012628
0.000126423
0.000118604
0.000120096
0.00011771
0.000119602
0.000120341
0.00011713
0.000116093
0.0001269
0.000127733
0.000120102
0.000118598
0.000116486
0.000124079
0.000127355
0.000132915
0.000120239
0.000119896
0.000127455
0.000127677
0.000127756
0.000133025
0.000119319
0.000119264
0.000126866
0.000126762
0.000114825
0.000126921
0.000124747
0.000127557
0.000132543
0.000115255
0.00012654
0.000124195
0.000132666
0.000133336
0.000132716
0.000127748
0.000127516
0.000126127
0.000125244
0.000132865
0.000131445
0.000127451
0.000128273
0.000126638
0.000126872
0.000129412
0.000125145
0.000133435
0.000133898
0.000133624
0.000128891
0.000129119
0.000133756
0.000137253
0.000133172
0.000140044
0.000127429
0.000126321
0.000136921
0.000137431
0.000132521
0.000140975
0.000128473
0.000126741
0.000136401
0.000136742
0.000132643
0.00013765
0.000130845
0.000133196
0.000139708
0.000133023
0.000134584
0.000130653
0.000135491
0.000140503
0.000138967
0.000138055
0.00013888
0.000136615
0.000137588
0.00014143
0.000139448
0.000137066
0.000139354
0.000135916
0.000139433
0.00013305
0.000137309
0.00013865
0.000141178
0.000140697
0.000132146
0.000138064
0.000138781
0.000141931
0.000138951
0.00014599
0.000136403
0.000136978
0.000144588
0.000143743
0.000139027
0.000145577
0.000136921
0.000138573
0.000145085
0.000142122
0.000139978
0.000143649
0.000142924
0.000140164
0.000144514
0.000140208
0.000143235
0.000143257
0.00014387
0.0001464
0.000144534
0.000145982
0.000145805
0.000144885
0.000145205
0.000146431
0.000144889
0.000145775
0.000145188
0.000144144
0.000146169
0.00014306
0.000145876
0.000144064
0.000146173
0.000146714
0.000143355
0.000146821
0.000143776
0.00014476
0.000144428
0.000152141
0.000144662
0.000144617
0.000152815
0.000151552
0.000144407
0.000150858
0.000144161
0.000145942
0.000153373
0.000152344
0.000145602
0.000149935
0.000152998
0.000146362
0.000150872
0.000145132
0.000151128
0.000152608
0.000151762
0.000152738
0.000150752
0.000154623
0.000154499
0.000154082
0.000155956
0.000152363
0.000153041
0.00015504
0.000154044
0.000154226
0.000153234
0.000155015
0.000157103
0.000155912
0.000151724
0.000150287
0.000154873
0.000154161
0.00015653
0.000152536
0.000150282
0.000156753
0.000153518
0.000155325
0.000158996
0.000156805
0.000152675
0.000155086
0.000153554
0.000152499
0.000158453
0.000158054
0.000155175
0.000156618
0.000154776
0.000149774
0.000156095
0.000155897
0.000157356
0.000155311
0.000153703
0.000158139
0.000157812
0.000161722
0.000160309
0.000163586
0.000165308
0.000156642
0.000159354
0.000161562
0.000161871
0.000163897
0.000166327
0.000158183
0.000165249
0.000166242
0.000158084
0.000160113
0.000158175
0.000166033
0.000165654
0.00016021
0.000157385
0.000159576
0.000163289
0.00016487
0.000164561
0.00016167
0.000158973
0.000154951
0.000163496
0.000166067
0.000165359
0.000164363
0.000166444
0.000162156
0.000163831
0.000159756
0.000157721
0.000165801
0.000164403
0.000163163
0.00015597
0.000160575
0.000162109
0.000164987
0.000160863
0.000168416
0.000169497
0.000154692
0.000165106
0.000166895
0.000163969
0.000167544
0.000166977
0.000162973
0.000169227
0.000169178
0.000157919
0.00016178
0.000162303
0.000166368
0.00016898
0.000165496
0.000162668
0.00016734
0.000170862
0.000173763
0.000176139
0.000178808
0.000167263
0.000169893
0.000168974
0.000169445
0.000175958
0.00017755
0.000173962
0.000179108
0.000179318
0.000163052
0.000169463
0.000173779
0.000178666
0.000179438
0.000170686
0.000167418
0.000166252
0.000176296
0.000178673
0.000175458
0.000175732
0.000169563
0.000165014
0.000176915
0.000178394
0.000176157
0.000176939
0.000179191
0.000175635
0.000173308
0.000169698
0.000166325
0.000179348
0.000177449
0.000174181
0.000162166
0.000166379
0.000169807
0.000175905
0.000174639
0.00017934
0.000173424
0.000164401
0.000165118
0.000175785
0.000176136
0.000179285
0.000176325
0.000171754
0.000171948
0.000171897
0.000165781
0.000167425
0.000172721
0.000174175
0.000172429
0.0001662
0.000169677
0.000169691
0.00017898
0.000175668
0.000178898
0.000184909
0.000166687
0.000176229
0.000179935
0.0001779
0.000179918
0.000182857
0.000177057
0.000186868
0.000188946
0.000168397
0.000173253
0.000177102
0.000184544
0.000189063
0.000179062
0.00017104
0.000177997
0.00018205
0.000187346
0.000190214
0.000189898
0.000177191
0.000176551
0.000181838
0.000184962
0.000189528
0.000188386
0.000190379
0.000190308
0.000189952
0.000174332
0.000176228
0.000190408
0.000189238
0.000189479
0.000174799
0.000178114
0.00017483
0.000190899
0.000189664
0.00018932
0.000187466
0.000176022
0.00017335
0.000190454
0.000188385
0.000189296
0.000187487
0.000187693
0.000186299
0.000183242
0.000175872
0.000173563
0.000186741
0.00018598
0.000182076
0.000168709
0.000174225
0.000176078
0.00018818
0.000186886
0.000187586
0.000188172
0.00017326
0.000177281
0.000188245
0.000187121
0.000187369
0.000188059
0.000182937
0.000188715
0.000192316
0.000173455
0.000176734
0.00018184
0.000188765
0.000192758
0.000181707
0.000177777
0.000182886
0.000190196
0.000190911
0.000196892
0.000195572
0.000178421
0.000181266
0.000189561
0.00019034
0.000197103
0.000197995
0.000195287
0.000196203
0.000198328
0.000177993
0.000184199
0.00019595
0.00019908
0.000199265
0.00018365
0.000182737
0.000180999
0.000197413
0.000196486
0.000197283
0.000198595
0.000181471
0.000182725
0.000197897
0.000199234
0.000197767
0.000199245
0.000198238
0.000198334
0.00019582
0.000184448
0.0001817
0.000199255
0.000198932
0.000196523
0.000179304
0.000180762
0.000181723
0.000197208
0.000198474
0.000197073
0.00019698
0.000182528
0.000180438
0.000197396
0.000198017
0.00019643
0.000195971
0.000195116
0.000196215
0.000196065
0.000180945
0.000180289
0.000195501
0.000195088
0.000195007
0.000181613
0.000182041
0.000187096
0.000197472
0.000196689
0.000202579
0.000202884
0.00018019
0.000188032
0.000196922
0.000196058
0.000203378
0.000201834
0.000199338
0.000204149
0.000205337
0.0001811
0.000185783
0.000197466
0.000202178
0.000204503
0.000188606
0.000187672
0.000186482
0.000204241
0.000204986
0.000205445
0.000206148
0.000188843
0.000187385
0.000204634
0.000202751
0.000204652
0.000203539
0.000205839
0.000206173
0.000205579
0.000185716
0.000185318
0.000205274
0.000203799
0.000205283
0.000186814
0.00018593
0.000186436
0.000204992
0.000205439
0.000204061
0.000203894
0.000186488
0.000184702
0.000204101
0.000205028
0.000204564
0.000211306
0.000204681
0.000203214
0.000202658
0.000186078
0.000194079
0.000204883
0.000210518
0.000204103
0.000185386
0.000187592
0.000193135
0.000204702
0.000204538
0.000211227
0.000212377
0.000185805
0.000195078
0.000207134
0.00021251
0.000211837
0.000211742
0.000202587
0.000212203
0.000209607
0.000194503
0.000190841
0.000204532
0.000211314
0.000209838
0.000191203
0.000193113
0.00018855
0.000212135
0.000213502
0.000211011
0.000211941
0.000195273
0.000190286
0.000212036
0.000208585
0.000207869
0.000200942
0.000211418
0.000211954
0.000212219
0.000189048
0.000180285
0.000210728
0.000202758
0.00021046
0.00019107
0.000187509
0.000187072
0.000209251
0.000209418
0.000206389
0.000204197
0.000188848
0.000183553
0.000206143
0.000200066
0.000205342
0.000209717
0.00021144
0.000205242
0.000209497
0.000179608
0.000193332
0.000209578
0.000210263
0.000208645
0.000189561
0.000188483
0.000196363
0.000206526
0.000203622
0.000214847
0.000213423
0.000183457
0.000194524
0.000208792
0.00021532
0.000218638
0.00022412
0.00020923
0.000213218
0.000212248
0.00019571
0.000201937
0.000209913
0.000221496
0.000214467
0.000192964
0.000197077
0.000200639
0.000217389
0.00021804
0.00022326
0.000226548
0.000196653
0.000205248
0.00022046
0.000224939
0.000223368
0.000222898
0.000214058
0.000225031
0.00021985
0.000201703
0.000198213
0.000215472
0.000220162
0.000218927
0.000197468
0.00020077
0.00019587
0.00022418
0.000227373
0.000221734
0.000220095
0.000205238
0.000194772
0.00022377
0.000220251
0.000217571
0.000212772
0.000221423
0.000220378
0.000222903
0.000197253
0.000190876
0.000220095
0.000215286
0.000221447
0.000199473
0.000194179
0.000188416
0.000217891
0.000216195
0.00021119
0.000210244
0.000192815
0.000187795
0.000214778
0.0002109
0.000210237
0.000208975
0.000221554
0.000211356
0.000214094
0.00018995
0.000189517
0.000220756
0.000212199
0.000214705
0.000190976
0.000188275
0.000195455
0.000210596
0.000209751
0.000215328
0.000216569
0.000188074
0.00019643
0.000209984
0.000210403
0.000217502
0.000220083
0.000213109
0.000217351
0.00021693
0.000190422
0.000197856
0.000213785
0.000219455
0.000217253
0.000196826
0.000196662
0.000202301
0.000218588
0.000220079
0.000226386
0.000227647
0.000197863
0.000203777
0.000220284
0.000222619
0.000226879
0.000228169
0.000221326
0.000227137
0.000226221
0.000198885
0.000203646
0.000221433
0.000226907
0.00022604
0.00020413
0.000202926
0.000204511
0.000228162
0.000228627
0.000229833
0.000226839
0.000203825
0.000199699
0.000228365
0.000228912
0.000229686
0.000226061
0.000225283
0.000223605
0.000216895
0.000203685
0.000199266
0.000225055
0.000223271
0.00021682
0.000189054
0.000203013
0.000195535
0.000227917
0.000223966
0.000220364
0.000220333
0.000198605
0.000196176
0.000227478
0.000223329
0.000220245
0.000220195
0.000216386
0.000221621
0.0002289
0.000198144
0.000196179
0.00021634
0.000221762
0.000229099
0.000208753
0.000195057
0.00019949
0.000219788
0.000220463
0.000222676
0.000225933
0.000196731
0.00020305
0.000219707
0.000220445
0.000222754
0.000226639
0.000234556
0.000228168
0.000238742
0.000197049
0.000203875
0.000234681
0.000228884
0.000238716
0.000212771
0.000200346
0.000201237
0.00022498
0.000226966
0.000226715
0.000225015
0.000203101
0.000197083
0.000225109
0.000227746
0.000226944
0.000225851
0.000233015
0.000221631
0.000210806
0.000203943
0.000197973
0.000232984
0.000222633
0.000211405
0.000182324
0.000200104
0.000193754
0.000225301
0.000222283
0.000219786
0.00021785
0.000195499
0.000191692
0.000225489
0.000222644
0.000219387
0.000216411
0.000207415
0.000215434
0.000207719
0.000196317
0.000190111
0.000208049
0.000214568
0.000207588
0.000187881
0.000193118
0.000202887
0.0002192
0.000217771
0.000226335
0.000228503
0.000192638
0.000205558
0.00021871
0.000215838
0.000225722
0.00022643
0.000216074
0.0002306
0.000240178
0.000189868
0.000203842
0.0002151
0.000228051
0.00023887
0.000216509
0.000204792
0.000211933
0.000230511
0.000232416
0.000237941
0.000239213
0.000207144
0.000213687
0.000230202
0.00023163
0.000238309
0.000241069
0.000246774
0.000243105
0.000257014
0.000206198
0.000216109
0.000245877
0.000244851
0.00025728
0.000229538
0.000211353
0.000201922
0.000238894
0.000240219
0.000230876
0.000231268
0.000213012
0.000202051
0.000239345
0.000242285
0.000231406
0.000232264
0.000256076
0.00023032
0.000223991
0.00021587
0.000202313
0.000257161
0.00023187
0.000224963
0.000194373
0.000200107
0.000192115
0.000226905
0.000226693
0.000218107
0.000215873
0.000199726
0.000188549
0.000227248
0.000227089
0.00021795
0.000215524
0.000214766
0.000211224
0.000197593
0.000199711
0.000188278
0.000215158
0.000210573
0.000196908
0.000171406
0.00019126
0.000192261
0.000216404
0.0002136
0.000214979
0.00021195
0.000187285
0.000189719
0.000216062
0.000212966
0.00021435
0.000210568
0.00019536
0.000210426
0.000210279
0.000186932
0.000188018
0.000194552
0.000208579
0.000209415
0.000189893
0.000193584
0.000204349
0.000216873
0.000215094
0.000230821
0.000234119
0.000192124
0.000209009
0.000216307
0.000213484
0.000231738
0.000235562
0.000221444
0.000239776
0.000254746
0.000190614
0.00021034
0.000221056
0.000241105
0.0002557
0.000227281
0.000208187
0.000232904
0.000237446
0.000213759
0.000233826
0.00023957
0.000263457
0.000265877
0.00028758
0.000260736
0.000215647
0.000261864
1.774e-06
1.92127e-06
1.20456e-06
1.01582e-06
1.34064e-06
1.88648e-06
5.56548e-07
1.23506e-06
1.23807e-06
2.39533e-06
1.37822e-06
1.78116e-06
2.28639e-06
2.1163e-06
1.99228e-06
1.146e-06
1.34298e-05
1.12229e-06
1.51954e-05
1.0582e-05
1.28102e-05
1.32867e-06
1.33527e-05
1.26211e-06
1.5107e-05
1.61933e-06
1.65061e-06
1.57891e-06
1.58077e-06
1.64829e-06
1.67068e-06
1.60824e-06
1.31686e-06
3.26752e-07
1.60689e-06
1.72737e-06
1.32358e-06
4.33196e-07
1.61534e-06
1.08161e-05
1.30037e-05
1.2141e-06
1.75832e-06
5.4476e-07
2.18766e-06
1.21051e-06
1.76354e-06
6.66804e-07
1.4435e-06
1.45926e-06
2.24001e-06
1.65897e-06
1.66155e-06
1.32478e-06
1.8428e-05
1.27128e-06
2.08091e-05
1.68582e-05
1.90668e-05
1.52738e-06
1.83662e-05
1.47446e-06
2.07264e-05
1.64916e-06
1.67051e-06
1.61139e-06
1.5664e-06