/*--------------------------------*- C++ -*----------------------------------*\
| =========                 |                                                 |
| \\      /  F ield         | OpenFOAM: The Open Source CFD Toolbox           |
|  \\    /   O peration     | Version:  v2012                                 |
|   \\  /    A nd           | Website:  www.openfoam.com                      |
|    \\/     M anipulation  |                                                 |
\*---------------------------------------------------------------------------*/
FoamFile
{
    version     2.0;
    format      ascii;
    class       volScalarField;
    location    "1737.5";
    object      p;
}
// * * * * * * * * * * * * * * * * * * * * * * * * * * * * * * * * * * * * * //

dimensions      [0 2 -2 0 0 0 0];


internalField   nonuniform List<scalar> 
171728
(
0.00351665
0.00351556
0.00351559
0.00351626
0.00348125
0.00347979
0.00347974
0.00348261
0.00344282
0.00344091
0.0034409
0.00344324
0.00339876
0.00339707
0.00339707
0.00339931
0.00335077
0.0033493
0.00334932
0.00335163
0.00330192
0.00330063
0.00330066
0.00330298
0.00325367
0.00325251
0.00325248
0.00325488
0.00320636
0.00320533
0.00320532
0.00320769
0.00316006
0.00315915
0.00315915
0.00316153
0.00311472
0.00311391
0.00311393
0.00311624
0.00307029
0.0030696
0.00306964
0.00307202
0.00302661
0.00302603
0.00302605
0.0030284
0.00298352
0.002983
0.0029831
0.00298539
0.00294082
0.0029405
0.0029405
0.00294285
0.00289846
0.00289823
0.00289831
0.00290055
0.00285645
0.00285639
0.00285634
0.00285844
0.00281472
0.00281476
0.00281468
0.00281669
0.00277335
0.0027733
0.00277337
0.00277548
0.00273234
0.00273233
0.00273226
0.00273449
0.00269179
0.0026918
0.00269175
0.00269381
0.00265148
0.00265154
0.0026516
0.00265331
0.00261141
0.00261147
0.00261164
0.00261329
0.00257178
0.00257213
0.00257206
0.00257366
0.00253228
0.00253263
0.00253276
0.00253427
0.00249307
0.00249328
0.00249348
0.00249511
0.00245416
0.00245463
0.00245456
0.00245606
0.0024154
0.00241595
0.00241589
0.00241742
0.00237688
0.00237748
0.00237739
0.00237967
0.00233857
0.00233908
0.00233918
0.0023407
0.0023004
0.0023011
0.00230101
0.00230295
0.00226246
0.00226293
0.00226308
0.00226471
0.00222469
0.00222548
0.00222533
0.00222743
0.00218698
0.00218763
0.00218772
0.00218928
0.00214951
0.00215011
0.00215012
0.00215224
0.00211217
0.00211295
0.00211291
0.00211457
0.00207481
0.00207532
0.00207532
0.0020773
0.00203778
0.00203846
0.00203842
0.00204017
0.00200083
0.00200123
0.00200129
0.00200338
0.00196397
0.00196453
0.00196446
0.00196623
0.00192725
0.00192749
0.00192754
0.00192954
0.00189066
0.00189105
0.00189102
0.00189302
0.00185415
0.00185432
0.00185429
0.00185645
0.00181796
0.00181809
0.00181818
0.00181997
0.00178163
0.00178174
0.00178166
0.00178396
0.00174563
0.00174578
0.00174576
0.00174777
0.00170994
0.00170956
0.00170962
0.00171161
0.00167357
0.00167388
0.00167383
0.00167609
0.00163828
0.00163802
0.00163807
0.00163997
0.00160256
0.00160238
0.00160233
0.00160442
0.00156704
0.00156689
0.00156691
0.00156915
0.00153158
0.00153141
0.00153133
0.00153331
0.00149639
0.00149624
0.00149619
0.00149807
0.00146118
0.00146074
0.00146081
0.0014631
0.00142599
0.00142591
0.00142579
0.00142765
0.0013909
0.00139049
0.00139054
0.00139265
0.00135598
0.00135587
0.00135579
0.0013578
0.0013211
0.00132076
0.00132073
0.00132268
0.00128634
0.00128605
0.0012862
0.00128802
0.00125149
0.00125129
0.00125121
0.0012533
0.0012168
0.00121634
0.00121635
0.00121817
0.00118214
0.00118233
0.00118223
0.00118429
0.00114772
0.00114724
0.00114741
0.0011492
0.00111296
0.00111244
0.00111246
0.00111421
0.00107846
0.00107844
0.00107838
0.00108046
0.00104363
0.00104401
0.00104387
0.00104586
0.00100961
0.00100875
0.0010089
0.00101061
0.000974808
0.000974555
0.000974591
0.000976403
0.000940382
0.000940663
0.00094069
0.000942902
0.000906164
0.000905835
0.000905825
0.000907604
0.000871319
0.000871064
0.000870831
0.000872772
0.000836939
0.000836862
0.000836991
0.000838954
0.000802815
0.000802854
0.000802826
0.000804721
0.000767852
0.000767485
0.000767627
0.000769448
0.00073323
0.000733072
0.00073326
0.000735066
0.0006991
0.000699257
0.000698736
0.000701038
0.000663824
0.000663777
0.000663823
0.000665851
0.000629231
0.000628999
0.000629651
0.000631104
0.000595478
0.00059541
0.000594957
0.000597066
0.000560765
0.000560689
0.00056034
0.000562504
0.000525127
0.000524985
0.000525329
0.000527285
0.000489993
0.000490112
0.000490284
0.000492035
0.000456134
0.000456145
0.000456027
0.000458
0.000421389
0.000421109
0.00042102
0.000423105
0.000385712
0.000385361
0.00038536
0.000387032
0.000350261
0.000350876
0.000350895
0.000353309
0.000316197
0.000316037
0.00031603
0.000317833
0.000280238
0.000279651
0.00027968
0.000281292
0.000244122
0.00024468
0.000244597
0.000247084
0.000210459
0.000210538
0.00021058
0.000212383
0.000175757
0.000175191
0.000175315
0.000177013
0.00013875
0.000138471
0.000138293
0.000140209
0.000101625
0.000102023
0.00010203
0.000104261
6.65772e-05
6.70116e-05
6.7032e-05
6.93464e-05
3.37699e-05
3.29713e-05
3.307e-05
3.44254e-05
6.75701e-06
7.12426e-06
7.10358e-06
4.87877e-06
0.00352107
0.00351869
0.00351849
0.00352097
0.00351861
0.00351866
0.00352497
0.00352496
0.00352499
0.00352498
0.00351849
0.00351852
0.0035211
0.00351863
0.00351856
0.003521
0.00351632
0.00348736
0.00351561
0.00351559
0.00348917
0.00348914
0.00351624
0.00348737
0.00351561
0.00351564
0.00348919
0.00348912
0.00351556
0.0034892
0.00348925
0.00351636
0.00348737
0.00351555
0.00348926
0.00348931
0.0034874
0.00348264
0.00344876
0.0034798
0.00347984
0.00345102
0.00345093
0.00348263
0.00344877
0.00347984
0.00347988
0.003451
0.00345096
0.00347976
0.00345099
0.00345104
0.00348264
0.00344877
0.00347968
0.00345104
0.00345107
0.00344878
0.00344327
0.0034055
0.00344106
0.00344096
0.00340847
0.00340854
0.00344325
0.0034055
0.00344095
0.003441
0.00340853
0.00340851
0.00344087
0.00340859
0.0034086
0.00344326
0.0034055
0.00344086
0.00340855
0.00340859
0.00340548
0.00339934
0.00335809
0.00339714
0.0033971
0.00336146
0.00336141
0.00339933
0.00335809
0.0033971
0.00339712
0.00336147
0.00336145
0.00339707
0.00336147
0.00336142
0.00339934
0.00335808
0.00339709
0.00336143
0.00336134
0.00335809
0.00335165
0.00330942
0.00334935
0.00334932
0.00331281
0.0033128
0.00335162
0.00330942
0.0033493
0.00334929
0.00331282
0.00331282
0.00334931
0.0033128
0.00331283
0.00335163
0.00330944
0.00334939
0.00331278
0.00331285
0.00330941
0.00330299
0.0032612
0.00330065
0.0033006
0.00326448
0.00326445
0.00330296
0.00326117
0.00330065
0.00330064
0.00326445
0.00326446
0.00330069
0.00326444
0.00326453
0.003303
0.00326119
0.00330065
0.00326445
0.00326449
0.00326122
0.00325487
0.00321388
0.00325251
0.00325252
0.00321703
0.003217
0.00325485
0.00321385
0.00325251
0.00325251
0.00321702
0.00321703
0.00325245
0.00321701
0.00321707
0.00325486
0.00321388
0.00325239
0.00321701
0.00321701
0.00321388
0.0032077
0.00316757
0.00320535
0.00320534
0.00317062
0.0031706
0.00320768
0.00316755
0.00320532
0.00320533
0.00317061
0.00317062
0.00320528
0.00317061
0.00317065
0.0032077
0.00316757
0.00320526
0.00317061
0.00317064
0.00316757
0.00316153
0.00312221
0.00315917
0.00315916
0.00312514
0.00312518
0.00316151
0.00312219
0.00315915
0.00315916
0.00312514
0.00312516
0.00315916
0.00312517
0.00312521
0.00316153
0.00312221
0.00315916
0.00312517
0.00312522
0.00312218
0.00311633
0.00307778
0.00311398
0.00311392
0.00308064
0.00308061
0.00311626
0.00307774
0.00311395
0.00311395
0.00308063
0.00308063
0.00311394
0.0030806
0.00308057
0.0031163
0.00307778
0.0031139
0.00308061
0.00308059
0.00307777
0.00307201
0.00303409
0.00306964
0.00306961
0.00303686
0.00303686
0.00307195
0.00303404
0.00306963
0.00306964
0.00303689
0.00303687
0.00306961
0.00303687
0.00303685
0.003072
0.0030341
0.00306967
0.00303686
0.00303689
0.00303407
0.00302843
0.00299103
0.00302611
0.00302604
0.00299387
0.00299383
0.00302837
0.0029909
0.00302605
0.00302606
0.00299379
0.00299376
0.00302604
0.00299381
0.00299371
0.00302843
0.00299102
0.00302605
0.00299377
0.00299372
0.00299098
0.00298542
0.00294833
0.00298307
0.002983
0.00295107
0.00295117
0.00298526
0.00294834
0.00298311
0.00298314
0.00295114
0.00295107
0.00298307
0.00295117
0.00295102
0.00298545
0.00294835
0.00298302
0.00295106
0.00295097
0.00294833
0.00294276
0.00290591
0.00294037
0.00294048
0.0029086
0.00290885
0.00294275
0.00290602
0.00294038
0.0029405
0.00290863
0.00290872
0.00294051
0.00290888
0.00290867
0.00294282
0.00290603
0.00294051
0.00290873
0.00290865
0.00290599
0.00290045
0.00286384
0.00289817
0.00289825
0.00286655
0.00286684
0.00290049
0.00286409
0.00289815
0.0028983
0.00286658
0.00286671
0.00289828
0.00286681
0.00286662
0.00290061
0.00286401
0.00289826
0.00286673
0.00286667
0.00286386
0.00285844
0.00282208
0.00285625
0.00285641
0.00282479
0.00282489
0.00285863
0.00282222
0.0028562
0.00285635
0.00282493
0.00282498
0.00285618
0.00282491
0.00282495
0.00285858
0.00282225
0.00285618
0.00282498
0.00282502
0.00282209
0.00281673
0.00278066
0.00281455
0.00281474
0.00278343
0.00278346
0.00281694
0.00278075
0.00281446
0.00281469
0.00278357
0.00278341
0.00281451
0.00278348
0.00278378
0.00281692
0.00278077
0.00281439
0.00278345
0.0027837
0.00278081
0.00277534
0.00273961
0.00277318
0.0027733
0.00274244
0.00274254
0.00277548
0.00273956
0.00277318
0.00277335
0.00274255
0.00274247
0.00277333
0.00274257
0.00274257
0.00277553
0.00273958
0.00277333
0.00274245
0.00274255
0.00273972
0.00273436
0.00269894
0.00273221
0.00273224
0.00270196
0.00270191
0.00273432
0.00269887
0.00273229
0.00273219
0.00270194
0.00270202
0.00273237
0.00270196
0.00270189
0.00273432
0.00269888
0.00273242
0.00270204
0.00270189
0.002699
0.00269373
0.00265845
0.00269173
0.00269175
0.00266151
0.00266162
0.0026937
0.0026585
0.00269187
0.00269178
0.00266149
0.00266153
0.00269189
0.00266161
0.00266155
0.00269372
0.00265848
0.00269198
0.00266147
0.00266156
0.00265839
0.00265341
0.00261825
0.00265172
0.00265161
0.00262141
0.00262156
0.00265339
0.00261827
0.00265166
0.00265169
0.00262149
0.00262161
0.00265162
0.0026216
0.00262159
0.00265336
0.00261828
0.00265175
0.00262153
0.00262164
0.00261828
0.00261319
0.0025786
0.00261163
0.00261144
0.00258184
0.00258206
0.00261316
0.0025787
0.00261169
0.00261166
0.00258179
0.00258198
0.00261166
0.00258205
0.00258192
0.00261324
0.00257856
0.00261182
0.00258192
0.00258197
0.00257857
0.00257362
0.00253904
0.00257212
0.00257214
0.0025423
0.00254231
0.00257376
0.00253895
0.00257209
0.00257206
0.0025423
0.00254247
0.00257205
0.00254232
0.00254247
0.0025736
0.00253918
0.00257216
0.00254243
0.00254249
0.00253912
0.00253402
0.00250002
0.00253257
0.00253263
0.00250312
0.0025032
0.00253409
0.00249989
0.00253259
0.00253276
0.00250313
0.00250314
0.00253271
0.00250319
0.00250323
0.00253435
0.00249991
0.00253278
0.00250311
0.00250321
0.00249995
0.00249498
0.00246115
0.00249337
0.00249328
0.00246425
0.00246447
0.00249472
0.00246177
0.0024934
0.0024935
0.00246424
0.00246425
0.00249353
0.00246447
0.0024642
0.00249498
0.00246127
0.00249356
0.00246423
0.00246413
0.00246085
0.00245608
0.00242286
0.00245447
0.00245463
0.00242558
0.00242557
0.00245666
0.00242236
0.00245447
0.00245459
0.00242559
0.00242555
0.00245458
0.00242557
0.00242549
0.00245629
0.00242257
0.00245457
0.00242556
0.00242546
0.00242261
0.00241773
0.00238431
0.00241584
0.00241594
0.00238706
0.00238701
0.00241764
0.00238387
0.00241584
0.0024159
0.00238707
0.00238699
0.00241581
0.00238701
0.00238706
0.00241761
0.00238413
0.00241578
0.002387
0.00238701
0.00238458
0.00237958
0.00234543
0.00237746
0.00237748
0.00234858
0.00234858
0.00237904
0.0023459
0.00237747
0.00237738
0.00234861
0.00234872
0.0023774
0.00234859
0.0023487
0.00237915
0.00234598
0.00237736
0.00234871
0.00234876
0.00234531
0.00234052
0.0023083
0.00233914
0.00233905
0.0023106
0.00231065
0.00234087
0.00230798
0.00233918
0.00233918
0.00231057
0.0023105
0.00233921
0.00231061
0.00231051
0.00234113
0.00230782
0.00233928
0.00231049
0.00231044
0.00230809
0.00230336
0.00226946
0.00230103
0.00230114
0.00227252
0.00227244
0.0023031
0.00226988
0.00230101
0.00230101
0.00227255
0.00227253
0.00230093
0.00227246
0.00227261
0.0023029
0.00226985
0.00230085
0.00227252
0.00227253
0.00226942
0.00226466
0.00223228
0.00226314
0.00226292
0.00223477
0.0022349
0.00226491
0.002232
0.00226317
0.00226309
0.00223477
0.00223475
0.00226311
0.0022349
0.00223478
0.00226495
0.00223226
0.00226309
0.00223478
0.00223488
0.0022324
0.00222733
0.00219437
0.00222535
0.00222548
0.00219713
0.0021971
0.00222723
0.00219449
0.00222535
0.0022253
0.00219712
0.00219716
0.00222535
0.00219713
0.00219709
0.00222741
0.00219426
0.00222537
0.00219715
0.00219698
0.00219419
0.00218952
0.00215688
0.00218768
0.0021876
0.0021595
0.00215943
0.0021895
0.00215679
0.0021877
0.00218773
0.00215951
0.00215942
0.00218767
0.00215939
0.0021595
0.00218938
0.00215694
0.00218761
0.00215942
0.00215952
0.00215714
0.00215199
0.00211958
0.00215019
0.00215017
0.00212219
0.00212226
0.00215194
0.00211962
0.00215018
0.00215011
0.0021222
0.00212223
0.00215022
0.0021223
0.00212221
0.00215203
0.0021196
0.00215022
0.00212226
0.00212225
0.00211945
0.00211468
0.0020822
0.00211282
0.00211289
0.00208477
0.00208468
0.00211472
0.00208218
0.00211283
0.00211286
0.00208479
0.00208467
0.00211279
0.00208467
0.00208467
0.00211473
0.00208214
0.00211284
0.00208468
0.00208461
0.00208218
0.00207731
0.00204504
0.00207546
0.00207536
0.0020476
0.0020477
0.00207731
0.00204513
0.00207547
0.00207535
0.0020476
0.00204766
0.00207541
0.00204768
0.00204762
0.00207726
0.00204514
0.00207531
0.00204761
0.00204759
0.00204508
0.0020402
0.00200813
0.00203832
0.00203845
0.0020106
0.00201048
0.00204025
0.00200802
0.00203834
0.00203841
0.00201059
0.00201055
0.00203834
0.00201052
0.00201056
0.00204027
0.00200807
0.00203838
0.0020106
0.00201057
0.00200818
0.00200323
0.00197117
0.00200137
0.00200121
0.00197358
0.00197371
0.00200317
0.00197134
0.00200134
0.00200127
0.00197365
0.00197363
0.00200138
0.00197369
0.00197366
0.00200321
0.00197126
0.00200137
0.00197364
0.00197366
0.00197114
0.00196633
0.00193441
0.00196437
0.00196454
0.00193681
0.00193674
0.00196646
0.00193426
0.00196441
0.00196446
0.00193677
0.00193676
0.00196438
0.00193675
0.00193675
0.00196639
0.00193432
0.00196439
0.00193677
0.00193675
0.00193437
0.00192956
0.00189777
0.00192763
0.00192749
0.00190007
0.00190012
0.00192943
0.00189794
0.00192763
0.00192752
0.00190012
0.00190013
0.00192759
0.00190011
0.00190011
0.00192951
0.00189792
0.00192757
0.00190014
0.00190002
0.00189787
0.0018929
0.00186127
0.0018909
0.00189105
0.00186353
0.00186352
0.00189313
0.00186109
0.00189089
0.00189103
0.00186352
0.00186346
0.00189095
0.00186354
0.00186359
0.00189305
0.00186109
0.00189089
0.00186346
0.00186365
0.00186128
0.00185651
0.0018249
0.00185446
0.00185431
0.00182718
0.00182711
0.00185624
0.00182496
0.00185451
0.00185429
0.00182718
0.00182719
0.00185448
0.00182709
0.00182706
0.00185628
0.00182507
0.00185457
0.0018272
0.00182704
0.00182481
0.00182003
0.00178856
0.00181802
0.00181811
0.00179071
0.00179088
0.00182018
0.00178861
0.001818
0.00181817
0.00179073
0.00179079
0.00181791
0.00179087
0.00179083
0.00182028
0.00178848
0.00181788
0.00179082
0.00179079
0.0017887
0.0017838
0.00175271
0.00178171
0.00178173
0.00175481
0.0017547
0.00178375
0.00175263
0.00178175
0.00178164
0.00175483
0.00175468
0.0017819
0.00175473
0.00175483
0.00178364
0.00175264
0.00178187
0.0017547
0.00175485
0.00175262
0.0017479
0.00171643
0.00174584
0.00174577
0.00171868
0.00171864
0.00174784
0.0017164
0.00174582
0.00174576
0.00171864
0.00171872
0.00174573
0.0017186
0.00171851
0.00174788
0.00171645
0.00174574
0.00171867
0.00171852
0.00171635
0.00171163
0.00168063
0.00170958
0.00170959
0.00168258
0.00168276
0.00171162
0.00168076
0.00170957
0.00170963
0.00168266
0.00168272
0.00170954
0.00168278
0.00168284
0.00171166
0.0016807
0.00170957
0.00168277
0.00168284
0.00168085
0.00167588
0.00164502
0.00167371
0.00167384
0.0016472
0.00164705
0.00167599
0.00164484
0.00167378
0.00167376
0.00164715
0.00164706
0.00167394
0.00164707
0.00164703
0.00167591
0.00164492
0.00167393
0.00164699
0.00164699
0.00164478
0.00164022
0.00160917
0.00163826
0.00163804
0.00161121
0.00161123
0.00164003
0.00160922
0.00163817
0.00163815
0.00161121
0.00161124
0.00163796
0.00161117
0.00161108
0.00164014
0.00160919
0.00163796
0.00161128
0.00161114
0.00160914
0.00160443
0.00157368
0.00160229
0.00160242
0.00157579
0.00157583
0.00160449
0.00157371
0.0016023
0.00160229
0.00157578
0.00157569
0.00160226
0.00157583
0.00157593
0.00160444
0.00157368
0.00160228
0.00157569
0.00157586
0.00157388
0.00156891
0.00153816
0.0015669
0.00156683
0.00154014
0.00154009
0.00156891
0.00153815
0.00156692
0.00156688
0.00154019
0.00154026
0.00156713
0.00154018
0.00154024
0.00156893
0.0015382
0.00156709
0.00154031
0.00154032
0.0015381
0.00153344
0.00150298
0.00153132
0.00153137
0.00150509
0.00150518
0.00153344
0.00150305
0.00153134
0.00153135
0.00150502
0.00150501
0.00153118
0.00150508
0.00150471
0.00153344
0.00150293
0.00153124
0.00150489
0.00150462
0.00150273
0.00149826
0.00146755
0.00149631
0.00149634
0.00146953
0.00146948
0.0014983
0.00146748
0.00149624
0.00149628
0.00146961
0.00146959
0.00149604
0.00146954
0.00146997
0.00149823
0.00146759
0.00149598
0.00146974
0.00147007
0.0014679
0.0014628
0.00143256
0.00146069
0.00146065
0.00143462
0.00143457
0.00146275
0.00143261
0.00146078
0.00146066
0.00143457
0.00143448
0.00146109
0.00143459
0.0014344
0.00146282
0.00143248
0.00146118
0.00143448
0.00143436
0.00143236
0.00142789
0.00139728
0.00142595
0.00142592
0.0013993
0.0013994
0.00142795
0.00139726
0.00142586
0.00142584
0.00139932
0.00139951
0.0014256
0.00139936
0.00139939
0.0014278
0.00139735
0.00142553
0.00139944
0.00139939
0.00139737
0.00139254
0.00136256
0.00139049
0.00139052
0.00136455
0.00136448
0.0013925
0.00136251
0.00139055
0.00139058
0.00136457
0.00136444
0.00139069
0.00136446
0.00136455
0.00139259
0.00136245
0.00139071
0.00136443
0.00136457
0.00136248
0.0013579
0.0013273
0.00135592
0.00135588
0.00132941
0.00132953
0.00135787
0.00132742
0.00135591
0.00135579
0.00132937
0.00132942
0.00135579
0.00132962
0.00132949
0.00135777
0.00132737
0.0013558
0.00132952
0.00132948
0.00132742
0.00132257
0.00129287
0.00132063
0.00132068
0.00129481
0.00129478
0.00132266
0.00129272
0.00132061
0.00132066
0.00129487
0.00129491
0.00132076
0.00129466
0.00129469
0.00132264
0.00129283
0.00132075
0.00129479
0.0012947
0.00129266
0.00128827
0.00125779
0.00128629
0.00128621
0.00125993
0.00126001
0.00128808
0.00125793
0.00128634
0.00128638
0.00125998
0.00125999
0.00128605
0.00126009
0.00126016
0.0012882
0.0012579
0.00128607
0.00126005
0.00126012
0.00125804
0.00125299
0.00122303
0.00125104
0.00125112
0.00122508
0.00122498
0.00125316
0.00122291
0.00125102
0.00125103
0.00122505
0.00122492
0.0012514
0.00122496
0.00122495
0.00125311
0.00122288
0.00125139
0.00122494
0.00122495
0.00122287
0.00121844
0.00118873
0.00121657
0.00121643
0.00119077
0.00119089
0.00121825
0.0011889
0.00121659
0.00121643
0.00119072
0.00119084
0.00121628
0.00119082
0.00119077
0.00121825
0.00118884
0.00121629
0.0011908
0.0011908
0.00118885
0.00118402
0.00115394
0.00118208
0.00118233
0.00115602
0.00115605
0.00118431
0.00115392
0.00118196
0.00118216
0.00115604
0.00115611
0.00118233
0.00115613
0.00115618
0.00118418
0.00115404
0.00118232
0.00115621
0.00115618
0.00115399
0.00114924
0.00111918
0.00114732
0.0011472
0.00112125
0.00112108
0.00114912
0.001119
0.00114743
0.00114744
0.00112129
0.00112123
0.00114726
0.00112104
0.00112099
0.00114931
0.00111907
0.00114729
0.00112111
0.00112101
0.00111888
0.00111451
0.00108502
0.00111267
0.00111252
0.00108705
0.00108696
0.00111435
0.001085
0.00111264
0.00111256
0.00108697
0.0010869
0.00111241
0.00108692
0.001087
0.00111438
0.00108493
0.00111241
0.00108689
0.00108693
0.00108505
0.00108037
0.00105019
0.0010784
0.00107841
0.0010522
0.00105255
0.00108037
0.00105058
0.00107838
0.00107836
0.00105221
0.00105241
0.00107852
0.00105276
0.00105275
0.00108032
0.00105045
0.00107845
0.00105258
0.00105273
0.00105062
0.0010455
0.0010158
0.00104358
0.00104385
0.00101789
0.00101766
0.00104584
0.00101546
0.00104355
0.00104371
0.00101785
0.00101775
0.00104394
0.00101747
0.00101746
0.00104571
0.0010156
0.00104397
0.00101764
0.0010175
0.00101538
0.00101109
0.000981093
0.00100923
0.00100897
0.000983144
0.000983057
0.00101073
0.000981011
0.00100925
0.00100909
0.000983199
0.000983158
0.00100871
0.000983002
0.00098291
0.00101087
0.000981063
0.00100873
0.000983037
0.000982923
0.000980939
0.000976409
0.000946996
0.000974493
0.000974502
0.00094893
0.000949011
0.000976398
0.000947217
0.000974559
0.00097459
0.000948921
0.000949025
0.000974524
0.000949207
0.000949426
0.000976448
0.000947212
0.000974549
0.000949248
0.000949449
0.00094755
0.000942386
0.000912675
0.000940465
0.000940518
0.00091474
0.000914721
0.0009426
0.000912538
0.000940422
0.000940484
0.000914696
0.000914706
0.000940903
0.000914617
0.000914524
0.000942581
0.000912546
0.000940899
0.000914588
0.000914482
0.000912376
0.000907895
0.000877549
0.000905948
0.000905966
0.000879613
0.000879756
0.000907768
0.00087766
0.000905956
0.000905989
0.00087963
0.000879603
0.000905711
0.000879704
0.000879536
0.000907776
0.000877471
0.00090569
0.000879501
0.000879524
0.000877469
0.000872844
0.000843518
0.000871
0.000871086
0.000845482
0.000845319
0.000872953
0.000843411
0.000870995
0.000870888
0.000845439
0.000845292
0.000870904
0.000845353
0.000845419
0.000872756
0.000843447
0.000870879
0.000845371
0.000845399
0.000843524
0.000838911
0.000809367
0.000836982
0.000836808
0.000811292
0.000811358
0.000838797
0.000809434
0.000836955
0.000836882
0.000811368
0.000811454
0.000837002
0.000811432
0.000811477
0.000838892
0.000809531
0.000837014
0.000811521
0.000811542
0.000809481
0.000804669
0.000774347
0.000802682
0.000802807
0.000776468
0.000776456
0.000804759
0.000774315
0.000802749
0.000802813
0.000776389
0.000776434
0.000802745
0.000776357
0.00077635
0.00080479
0.00077428
0.000802805
0.000776384
0.000776337
0.000774242
0.00076954
0.000739665
0.00076765
0.000767585
0.00074161
0.000741497
0.000769501
0.000739533
0.00076756
0.000767664
0.000741663
0.000741808
0.000767577
0.000741496
0.000741625
0.000769503
0.000739851
0.000767555
0.000741792
0.000741649
0.00073969
0.000735057
0.000705722
0.000733115
0.000733045
0.000707704
0.000707784
0.000734937
0.000705911
0.00073322
0.000733265
0.000707704
0.000707411
0.000733087
0.000707849
0.000707695
0.000735214
0.000705471
0.000733138
0.000707414
0.000707631
0.000705713
0.000700994
0.000670546
0.000699083
0.000699196
0.000672629
0.000672705
0.000701221
0.000670642
0.000698994
0.000698725
0.000672482
0.000672445
0.000699169
0.000672695
0.000672761
0.000700738
0.000670463
0.000699033
0.000672508
0.0006727
0.000670674
0.000665716
0.000635828
0.000663763
0.000663795
0.000637612
0.00063752
0.000665776
0.000635568
0.000663655
0.000663777
0.000637831
0.000638169
0.00066387
0.000637511
0.000637576
0.000665723
0.000636269
0.000663866
0.000638128
0.000637768
0.000635746
0.000631221
0.000601967
0.000629139
0.000629017
0.000603951
0.00060387
0.00063093
0.000601959
0.000629397
0.000629745
0.000603981
0.000603768
0.00062904
0.000603818
0.000603697
0.000631685
0.000601645
0.000629246
0.000603701
0.000603691
0.000601739
0.000597249
0.000567081
0.000595421
0.00059547
0.000569314
0.000569451
0.000597383
0.000567399
0.000595276
0.000594993
0.000569072
0.0005689
0.000595217
0.000569483
0.000569417
0.000596892
0.000566896
0.000595055
0.000568973
0.00056922
0.000567242
0.000562314
0.000531972
0.000560546
0.000560637
0.000533973
0.000533893
0.000562599
0.000531791
0.000560362
0.000560237
0.000534032
0.000534055
0.000560698
0.000533956
0.00053415
0.000562165
0.000532117
0.00056056
0.000534153
0.000534246
0.000532136
0.000527118
0.000496897
0.000525032
0.000524915
0.000498617
0.000498693
0.000526879
0.000496829
0.000525145
0.000525252
0.000498804
0.00049902
0.000525215
0.000498669
0.000498597
0.000527306
0.000497091
0.000525363
0.00049895
0.000498741
0.000496754
0.000492257
0.00046291
0.000490127
0.000490183
0.000464804
0.000464738
0.000492162
0.000462853
0.000490276
0.000490417
0.00046481
0.000464753
0.000489932
0.000464659
0.000464543
0.00049238
0.000462727
0.000490011
0.000464592
0.00046448
0.00046262
0.000458212
0.000427684
0.000456263
0.000456187
0.000429934
0.000429952
0.000458201
0.000427841
0.000456187
0.00045608
0.000429791
0.000429736
0.000456114
0.000430026
0.000430189
0.000458016
0.000427675
0.000456033
0.000429867
0.000430115
0.000428018
0.000422851
0.000392358
0.000421044
0.000421072
0.000394428
0.000394323
0.000422981
0.000392205
0.000420937
0.000420924
0.000394445
0.000394319
0.000421165
0.000394244
0.000393949
0.000422847
0.000392232
0.000421114
0.000394253
0.000393974
0.000391825
0.000387513
0.000357097
0.000385533
0.000385431
0.000358965
0.000359188
0.000387357
0.00035739
0.000385568
0.000385434
0.000359011
0.000359219
0.000385112
0.000359388
0.000359742
0.000387392
0.000357418
0.000385147
0.000359401
0.000359775
0.000357876
0.000352424
0.000322927
0.000350351
0.00035066
0.000324885
0.000324981
0.000352745
0.000322947
0.000350391
0.000350696
0.000324889
0.000325011
0.000351368
0.000324945
0.000324922
0.000352772
0.000322965
0.000351413
0.000324963
0.000324898
0.000322832
0.000318191
0.000287188
0.000316247
0.000316236
0.000289341
0.000288986
0.000318104
0.000286788
0.000316246
0.000316245
0.000289336
0.00028898
0.000315716
0.000288713
0.000288054
0.000318108
0.000286779
0.000315692
0.000288718
0.000288066
0.000286057
0.00028214
0.000250878
0.000280092
0.00027982
0.000252824
0.000252983
0.000281831
0.000251238
0.000280092
0.000279814
0.000252821
0.000252952
0.000279279
0.00025325
0.000253635
0.000281825
0.000251204
0.000279302
0.000253219
0.000253626
0.000251765
0.00024615
0.000216937
0.000244114
0.000244388
0.000218821
0.000219047
0.00024655
0.000217137
0.0002441
0.000244322
0.000218823
0.000218992
0.000245101
0.000219136
0.00021932
0.000246494
0.000217096
0.000245071
0.000219061
0.0002193
0.000217179
0.000212371
0.000182229
0.000210473
0.000210587
0.000184423
0.00018424
0.000212447
0.000181974
0.000210484
0.000210624
0.000184457
0.000184398
0.0002105
0.000184121
0.00018405
0.000212483
0.000182115
0.000210533
0.000184296
0.000184111
0.000181894
0.000177304
0.000145686
0.000175409
0.000175268
0.000147885
0.000147858
0.000177095
0.000145667
0.000175429
0.000175368
0.000147857
0.000147744
0.000175115
0.000147782
0.000147448
0.00017721
0.000145526
0.000175168
0.000147689
0.000147433
0.000145267
0.000140618
0.000109157
0.000138612
0.000138576
0.000111023
0.000110993
0.000140594
0.000109181
0.00013857
0.000138409
0.000111017
0.000110933
0.000138134
0.000111013
0.000111002
0.00014041
0.00010916
0.00013807
0.00011095
0.000110959
0.000109193
0.000104185
7.35108e-05
0.000101975
0.000101963
7.53615e-05
7.54451e-05
0.000104219
7.36732e-05
0.000101981
0.000101972
7.53656e-05
7.54636e-05
0.000102063
7.55992e-05
7.58413e-05
0.000104224
7.36972e-05
0.000102042
7.56291e-05
7.58592e-05
7.40362e-05
6.87234e-05
3.92611e-05
6.67091e-05
6.68288e-05
4.13048e-05
4.14103e-05
6.89107e-05
3.92735e-05
6.67167e-05
6.68354e-05
4.13308e-05
4.14802e-05
6.73281e-05
4.14157e-05
4.14483e-05
6.89311e-05
3.93393e-05
6.73503e-05
4.14768e-05
4.14779e-05
3.9209e-05
3.4554e-05
8.43315e-06
3.29831e-05
3.30502e-05
1.16387e-05
1.15366e-05
3.45225e-05
8.25508e-06
3.30206e-05
3.31672e-05
1.16291e-05
1.15337e-05
3.29567e-05
1.1417e-05
1.12834e-05
3.45862e-05
8.24463e-06
3.29888e-05
1.14387e-05
1.1299e-05
7.98538e-06
5.30304e-06
7.42857e-06
7.41523e-06
5.15672e-06
7.37498e-06
7.388e-06
6.54017e-06
6.47883e-06
6.24225e-06
7.15655e-06
5.11661e-06
7.10798e-06
0.00352807
0.00353065
0.00352937
0.00352951
0.00355656
0.00353048
0.00356011
0.00353085
0.00355674
0.00353064
0.00353086
0.00356016
0.0035416
0.00356322
0.00356329
0.0035008
0.00351434
0.00351829
0.00349305
0.00349116
0.00349645
0.00350064
0.00351433
0.00351825
0.00349299
0.00351665
0.00351665
0.00351665
0.0034903
0.00349034
0.00349031
0.00349035
0.00350038
0.00351193
0.00351717
0.00350795
0.0035193
0.00349748
0.00350822
0.00349144
0.0034965
0.00350038
0.0035172
0.0035121
0.00350797
0.0035193
0.00350824
0.0034976
0.00351792
0.00351796
0.00350528
0.00349742
0.00349748
0.00347324
0.00348753
0.00348732
0.00347126
0.00348477
0.0034703
0.00347316
0.00348748
0.00348735
0.00347125
0.00348129
0.00348125
0.00348126
0.00345288
0.00345293
0.00345289
0.0034529
0.00347102
0.00348607
0.0034797
0.00347034
0.00348449
0.00347155
0.00347038
0.00348474
0.00347031
0.00347104
0.00347972
0.00348602
0.00347041
0.00348444
0.00347036
0.00347155
0.00348775
0.00348773
0.00346878
0.00347191
0.00347199
0.00343086
0.00344551
0.00344643
0.00342954
0.00344432
0.00342867
0.00343077
0.00344546
0.00344638
0.0034295
0.00344284
0.00344281
0.0034428
0.00341029
0.00341033
0.00341029
0.0034103
0.00342953
0.00344512
0.00344088
0.00343052
0.00344403
0.00342997
0.00343049
0.00344434
0.0034286
0.00342952
0.00344092
0.00344508
0.00343052
0.00344402
0.00343047
0.00342991
0.00344578
0.00344586
0.0034278
0.00342989
0.0034298
0.00338455
0.00340093
0.00340239
0.00338312
0.0034002
0.00338263
0.00338452
0.00340096
0.00340236
0.00338313
0.0033988
0.00339878
0.00339879
0.00336294
0.00336297
0.00336294
0.00336296
0.00338371
0.00340076
0.0033971
0.00338541
0.00340017
0.0033838
0.00338541
0.00340019
0.00338263
0.00338371
0.00339709
0.00340075
0.0033854
0.00340017
0.0033854
0.00338383
0.00340104
0.003401
0.00338209
0.00338328
0.00338331
0.00333572
0.0033528
0.0033541
0.0033345
0.00335241
0.00333417
0.00333566
0.00335276
0.00335409
0.00333447
0.0033508
0.00335077
0.00335077
0.00331411
0.00331414
0.00331412
0.00331412
0.00333529
0.00335278
0.00334935
0.00333716
0.00335244
0.00333523
0.00333719
0.00335239
0.00333414
0.00333526
0.00334936
0.00335277
0.00333711
0.00335244
0.00333715
0.00333521
0.00335285
0.00335287
0.00333377
0.00333459
0.00333455
0.00328663
0.00330388
0.00330486
0.00328574
0.00330362
0.00328551
0.00328659
0.0033039
0.0033049
0.00328572
0.00330195
0.00330195
0.00330195
0.00326565
0.00326567
0.00326565
0.00326567
0.00328654
0.00330394
0.00330068
0.00328852
0.00330369