/*--------------------------------*- C++ -*----------------------------------*\
| =========                 |                                                 |
| \\      /  F ield         | OpenFOAM: The Open Source CFD Toolbox           |
|  \\    /   O peration     | Version:  v2012                                 |
|   \\  /    A nd           | Website:  www.openfoam.com                      |
|    \\/     M anipulation  |                                                 |
\*---------------------------------------------------------------------------*/
FoamFile
{
    version     2.0;
    format      ascii;
    class       volScalarField;
    location    "987.5";
    object      nut;
}
// * * * * * * * * * * * * * * * * * * * * * * * * * * * * * * * * * * * * * //

dimensions      [0 2 -1 0 0 0 0];


internalField   nonuniform List<scalar> 
171728
(
1.81943e-06
1.97362e-06
1.75319e-06
2.24895e-06
1.83853e-06
1.89545e-06
1.77893e-06
2.22911e-06
1.83544e-06
1.8433e-06
1.8175e-06
2.20799e-06
1.83206e-06
1.7886e-06
1.82592e-06
2.23233e-06
1.83885e-06
1.75699e-06
1.81943e-06
2.33226e-06
1.84882e-06
1.74698e-06
1.80298e-06
2.41227e-06
1.88538e-06
1.76216e-06
1.76805e-06
2.40624e-06
1.97482e-06
1.85091e-06
1.72414e-06
2.22925e-06
2.04767e-06
2.18355e-06
1.6813e-06
2.03669e-06
1.89251e-06
2.98298e-06
1.64339e-06
1.868e-06
1.71834e-06
4.29135e-06
1.6025e-06
1.74112e-06
1.694e-06
5.66812e-06
1.54596e-06
1.6205e-06
1.73289e-06
6.45294e-06
1.48711e-06
1.51695e-06
1.72487e-06
5.92812e-06
1.41898e-06
1.46096e-06
1.74167e-06
3.22648e-06
1.31759e-06
1.43747e-06
1.80411e-06
1.87443e-06
1.2281e-06
1.44448e-06
1.79478e-06
1.37119e-06
1.16623e-06
1.50806e-06
1.62647e-06
1.17594e-06
1.11411e-06
1.57117e-06
1.46951e-06
1.11884e-06
1.08967e-06
1.59485e-06
1.4216e-06
1.16651e-06
1.12316e-06
1.50657e-06
1.40574e-06
1.19635e-06
1.28553e-06
2.05456e-06
1.3698e-06
1.54913e-06
1.59909e-06
1.82785e-06
1.31229e-06
2.00935e-06
2.02745e-06
3.83893e-06
1.23658e-06
2.97116e-06
2.84082e-06
5.8555e-06
1.15671e-06
3.5503e-06
3.83468e-06
8.08098e-06
1.08077e-06
5.57621e-06
5.33401e-06
1.22501e-05
1.00567e-06
6.59115e-06
6.88471e-06
1.74617e-05
9.66576e-07
9.14379e-06
8.92782e-06
2.41335e-05
9.66908e-07
1.19379e-05
1.18523e-05
3.1612e-05
9.89494e-07
1.4228e-05
1.49931e-05
3.80545e-05
1.12779e-06
1.87239e-05
1.81198e-05
4.7164e-05
1.31758e-06
2.03668e-05
2.39053e-05
4.50372e-05
1.62627e-06
2.67582e-05
3.06086e-05
6.44502e-05
2.06298e-06
3.12378e-05
2.9449e-05
6.70334e-05
2.44394e-06
3.46464e-05
3.42273e-05
6.67371e-05
3.47015e-06
4.29622e-05
4.74265e-05
7.3889e-05
4.18169e-06
4.49173e-05
4.98006e-05
8.07774e-05
6.07533e-06
5.53538e-05
4.83466e-05
8.47507e-05
6.92882e-06
5.92212e-05
6.10569e-05
8.49824e-05
8.01296e-06
5.95802e-05
6.36826e-05
8.88844e-05
1.26615e-05
7.42048e-05
7.22536e-05
0.000103071
1.36141e-05
7.96239e-05
8.15004e-05
0.000102446
1.64949e-05
7.84662e-05
7.9367e-05
9.63125e-05
2.27339e-05
8.93785e-05
8.51422e-05
0.00011367
2.37756e-05
9.88336e-05
0.000101188
0.0001126
2.66002e-05
9.69614e-05
0.000101388
0.000107195
3.29154e-05
0.00010358
9.81825e-05
0.000120212
4.20487e-05
0.000117189
0.000115966
0.000128788
5.0254e-05
0.000117409
0.000122004
0.000126635
4.83788e-05
0.000115059
0.000118651
0.00012354
5.30105e-05
0.000125474
0.000121791
0.000131826
6.80284e-05
0.000135663
0.000133331
0.000138915
7.25407e-05
0.000136004
0.000135055
0.000137963
7.55283e-05
0.000135297
0.000137889
0.000137988
9.03486e-05
0.000143198
0.000146098
0.000148047
9.18049e-05
0.000150102
0.000147265
0.000149518
9.71213e-05
0.000150082
0.000150535
0.000145293
0.000104192
0.000155161
0.00015199
0.000151323
0.000116855
0.000162325
0.000161498
0.000161266
0.000124167
0.000162483
0.000169065
0.00016023
0.00012115
0.00016458
0.000169097
0.000156743
0.000132083
0.000172879
0.000165447
0.000162395
0.000148362
0.000173924
0.000168461
0.000166897
0.000149463
0.000175686
0.000179338
0.000167346
0.000143078
0.000182831
0.000185697
0.000172498
0.000149463
0.000184043
0.000185823
0.000172306
0.000167879
0.000184509
0.000183161
0.000171214
0.000172137
0.000187644
0.000185982
0.000176977
0.000176711
0.000194109
0.000196932
0.000181409
0.000179265
0.000198138
0.000197014
0.000180949
0.000177426
0.000196061
0.00019363
0.000179097
0.000184761
0.000195094
0.00019764
0.000180095
0.000199034
0.000205076
0.000206197
0.000188106
0.000208656
0.000208014
0.000209099
0.000192143
0.000203706
0.000204203
0.000205426
0.00018778
0.00019805
0.000205586
0.000203143
0.000184396
0.000209306
0.000216468
0.000212903
0.000191799
0.000223736
0.000217384
0.000217041
0.000194463
0.000222252
0.000209627
0.000213638
0.000191406
0.000218013
0.000208872
0.000213492
0.000193125
0.000222378
0.000220386
0.000219272
0.000199191
0.000231258
0.000223532
0.00021928
0.000196453
0.000232535
0.000220568
0.000218409
0.000193458
0.000232584
0.000220307
0.000223358
0.000200666
0.000238253
0.000224894
0.00022595
0.00020261
0.000241133
0.000224096
0.000223336
0.000195553
0.00023841
0.000220624
0.000220455
0.000195968
0.000238851
0.000225193
0.000225895
0.000203207
0.000246177
0.000228697
0.000228758
0.000200128
0.000246232
0.000224863
0.000224535
0.000195645
0.000247029
0.000226914
0.000228342
0.000205682
0.000252596
0.000231439
0.00023281
0.000208527
0.000247827
0.000224413
0.000223378
0.000193673
0.000240353
0.000221191
0.000218037
0.000193642
0.000253662
0.000232559
0.000231201
0.000210981
2.22422e-06
2.60235e-06
1.76228e-06
2.27317e-06
1.86265e-06
2.20736e-06
1.82334e-06
1.68939e-06
1.79171e-06
1.91428e-06
2.07215e-06
2.15665e-06
2.26191e-06
2.1086e-06
2.49757e-06
2.25419e-06
2.21468e-06
2.16097e-06
1.99333e-06
1.39314e-06
2.02684e-06
1.35138e-06
2.27079e-06
2.23629e-06
1.75312e-06
2.0672e-06
1.75962e-06
1.96836e-06
1.95712e-06
1.9095e-06
1.92713e-06
2.25741e-06
2.22286e-06
2.00898e-06
1.7693e-06
2.06413e-06
2.23033e-06
2.15496e-06
2.11029e-06
2.04963e-06
1.34047e-06
2.13167e-06
1.31988e-06
2.23579e-06
2.19926e-06
1.77012e-06
1.94103e-06
1.80525e-06
1.87169e-06
1.91763e-06
1.85794e-06
1.89522e-06
2.22151e-06
2.18978e-06
2.08828e-06
1.80983e-06
2.17779e-06
2.21099e-06
2.1068e-06
2.10502e-06
2.16674e-06
1.31385e-06
2.28487e-06
1.29656e-06
2.20102e-06
2.16037e-06
1.82253e-06
1.8557e-06
1.90536e-06
1.80982e-06
1.88881e-06
1.79874e-06
1.86433e-06
2.18942e-06
2.16076e-06
2.24548e-06
1.82627e-06
2.60311e-06
2.22695e-06
2.10748e-06
2.14523e-06
2.32454e-06
1.28862e-06
2.45215e-06
1.25868e-06
2.16641e-06
2.10265e-06
1.93908e-06
1.79442e-06
2.06544e-06
1.73727e-06
1.85545e-06
1.76352e-06
1.82485e-06
2.16056e-06
2.12511e-06
2.74635e-06
1.82143e-06
3.30673e-06
2.33476e-06
2.15421e-06
2.25211e-06
2.48943e-06
1.24752e-06
2.63309e-06
1.2113e-06
2.1061e-06
2.0427e-06
2.11985e-06
1.71642e-06
2.30421e-06
1.66473e-06
1.81277e-06
1.74569e-06
1.77443e-06
2.12407e-06
2.07896e-06
3.53694e-06
1.80811e-06
4.23639e-06
2.42659e-06
2.26882e-06
2.48116e-06
2.69529e-06
1.19664e-06
2.89231e-06
1.14722e-06
2.03952e-06
1.97875e-06
2.38693e-06
1.64833e-06
2.74578e-06
1.60132e-06
1.75857e-06
1.75975e-06
1.68731e-06
2.07683e-06
2.02413e-06
4.44266e-06
1.77798e-06
4.56641e-06
2.44066e-06
2.52365e-06
2.8953e-06
2.96967e-06
1.13199e-06
3.21872e-06
1.08998e-06
1.97494e-06
1.91095e-06
2.92187e-06
1.59316e-06
3.77508e-06
1.5882e-06
1.65462e-06
1.80691e-06
1.54127e-06
2.02124e-06
1.96967e-06
4.35824e-06
1.73596e-06
3.52394e-06
2.25536e-06
2.90878e-06
3.20695e-06
3.29075e-06
1.07628e-06
3.40773e-06
1.03967e-06
1.90986e-06
1.90245e-06
4.15962e-06
1.58798e-06
5.27523e-06
1.60944e-06
1.50133e-06
2.07379e-06
1.38617e-06
1.96475e-06
1.92332e-06
3.28288e-06
1.69114e-06
2.75108e-06
2.05402e-06
3.19176e-06
2.95207e-06
3.39133e-06
1.0259e-06
3.14148e-06
9.85656e-07
1.91092e-06
2.00392e-06
5.54865e-06
1.6607e-06
5.4647e-06
1.87877e-06
1.35108e-06
2.72698e-06
1.25295e-06
1.92203e-06
1.96278e-06
2.62147e-06
1.65352e-06
2.2961e-06
1.88261e-06
2.78071e-06
2.30509e-06
3.02956e-06
9.73394e-07
2.74693e-06
9.39158e-07
2.01279e-06
2.11314e-06
4.65312e-06
1.97909e-06
2.75195e-06
2.4085e-06
1.23067e-06
3.9355e-06
1.1945e-06
1.96827e-06
2.0524e-06
2.19674e-06
1.61396e-06
1.90564e-06
1.75292e-06
2.25857e-06
2.02367e-06
2.6892e-06
9.28015e-07
2.62499e-06
8.93698e-07
2.1139e-06
2.21616e-06
2.31874e-06
2.58588e-06
1.52061e-06
3.19155e-06
1.18715e-06
5.35359e-06
1.16212e-06
2.0624e-06
2.16901e-06
1.81385e-06
1.56031e-06
1.57418e-06
1.63332e-06
2.00195e-06
1.91547e-06
2.6204e-06
8.81373e-07
2.63996e-06
8.8017e-07
2.21563e-06
2.25123e-06
1.38655e-06
3.41016e-06
1.23092e-06
4.04841e-06
1.15599e-06
6.35583e-06
1.17574e-06
2.17983e-06
2.27642e-06
1.50587e-06
1.50159e-06
1.34516e-06
1.52955e-06
1.90454e-06
1.88935e-06
2.63807e-06
8.90428e-07
2.5695e-06
9.69349e-07
2.24106e-06
2.10777e-06
1.2197e-06
4.23521e-06
1.25144e-06
4.56407e-06
1.19113e-06
6.44653e-06
1.25305e-06
2.27492e-06
2.30352e-06
1.30121e-06
1.43702e-06
1.19326e-06
1.46978e-06
1.8783e-06
1.89213e-06
2.49768e-06
9.99148e-07
2.17139e-06
1.1409e-06
2.04785e-06
1.75816e-06
1.35282e-06
4.58297e-06
1.88563e-06
4.17704e-06
1.27765e-06
3.76344e-06
1.39705e-06
2.28631e-06
1.96942e-06
1.16118e-06
1.34265e-06
1.0868e-06
1.44507e-06
1.8838e-06
1.92105e-06
2.06812e-06
1.25031e-06
1.7823e-06
2.0184e-06
1.74327e-06
1.78401e-06
2.12012e-06
3.61561e-06
2.79361e-06
2.3082e-06
1.46042e-06
2.11634e-06
1.71164e-06
1.90497e-06
1.57421e-06
1.06395e-06
1.24676e-06
1.01615e-06
1.45246e-06
1.89543e-06
1.804e-06
1.66926e-06
2.44861e-06
1.40195e-06
4.05643e-06
1.8141e-06
2.20235e-06
2.96464e-06
1.98155e-06
3.25407e-06
1.36951e-06
1.81065e-06
1.45952e-06
2.16952e-06
1.53457e-06
1.32418e-06
9.9943e-07
1.18065e-06
9.65042e-07
1.49385e-06
1.756e-06
1.52588e-06
1.29838e-06
4.56817e-06
1.15687e-06
5.66313e-06
2.27945e-06
2.56395e-06
3.27901e-06
1.23877e-06
2.8277e-06
1.00291e-06
2.31823e-06
1.23405e-06
2.7099e-06
1.28308e-06
1.17274e-06
9.55041e-07
1.12533e-06
9.51526e-07
1.57004e-06
1.47211e-06
1.25923e-06
1.08451e-06
5.85457e-06
9.41604e-07
5.70253e-06
2.52528e-06
2.3362e-06
2.68174e-06
9.60176e-07
1.66434e-06
8.80034e-07
2.78784e-06
1.1313e-06
3.0637e-06
1.15659e-06
1.12223e-06
9.47192e-07
1.08951e-06
9.58689e-07
1.5812e-06
1.21775e-06
1.2517e-06
9.1437e-07
5.45893e-06
1.03846e-06
3.76871e-06
2.24985e-06
1.76803e-06
1.47101e-06
8.90055e-07
1.18415e-06
9.6563e-07
3.08288e-06
1.10125e-06
2.86862e-06
1.11973e-06
1.19487e-06
9.83125e-07
1.10377e-06
1.00652e-06
1.53343e-06
1.31513e-06
1.56336e-06
1.08862e-06
3.04737e-06
1.26123e-06
1.9534e-06
1.83188e-06
1.71892e-06
1.23136e-06
1.00513e-06
1.44214e-06
1.14408e-06
2.81519e-06
1.20335e-06
2.25082e-06
1.23063e-06
1.48909e-06
1.03334e-06
1.24217e-06
1.26487e-06
2.02077e-06
1.63098e-06
2.02228e-06
1.29392e-06
1.865e-06
1.45926e-06
1.77723e-06
1.69224e-06
1.92668e-06
1.51588e-06
1.18843e-06
1.74246e-06
1.42208e-06
2.04605e-06
1.40095e-06
1.71698e-06
1.57379e-06
2.10096e-06
1.30387e-06
1.50321e-06
1.38854e-06
1.81183e-06
2.21257e-06
3.03688e-06
1.53881e-06
1.98742e-06
1.849e-06
2.85049e-06
2.25078e-06
3.39234e-06
1.77888e-06
1.52716e-06
1.92932e-06
1.84387e-06
1.65446e-06
1.90936e-06
2.30636e-06
2.30223e-06
3.15113e-06
1.49327e-06
1.91935e-06
1.91396e-06
3.40152e-06
3.26098e-06
4.97414e-06
2.01521e-06
2.9097e-06
2.55566e-06
3.09888e-06
3.56707e-06
5.17735e-06
2.04252e-06
1.96327e-06
2.60039e-06
2.54638e-06
2.83424e-06
2.71307e-06
3.65609e-06
3.34513e-06
4.80171e-06
2.09933e-06
2.60974e-06
2.67744e-06
5.49873e-06
5.42968e-06
7.72068e-06
2.79163e-06
3.19534e-06
3.49719e-06
3.31852e-06
5.77062e-06
7.20963e-06
2.82468e-06
2.77527e-06
3.53099e-06
3.56576e-06
3.66783e-06
3.33004e-06
3.75892e-06
5.33235e-06
7.7652e-06
2.88992e-06
3.58834e-06
3.56199e-06
7.49736e-06
8.39355e-06
1.20009e-05
3.79601e-06
3.55028e-06
4.9541e-06
5.13674e-06
7.52309e-06
1.23198e-05
3.87907e-06
3.79618e-06
5.01376e-06
4.88449e-06
3.89325e-06
5.08068e-06
4.93337e-06
8.33777e-06
1.15729e-05
3.798e-06
4.88482e-06
4.84442e-06
1.1339e-05
1.28125e-05
1.54952e-05
5.28987e-06
5.60412e-06
6.17156e-06
6.46731e-06
1.37949e-05
1.68937e-05
5.31172e-06
5.34792e-06
6.1623e-06
6.52468e-06
5.39077e-06
6.44172e-06
6.49426e-06
1.25744e-05
1.6876e-05
5.21449e-06
6.44453e-06
6.41421e-06
1.65207e-05
1.64089e-05
2.33012e-05
6.76777e-06
6.60608e-06
8.58686e-06
8.17477e-06
1.70687e-05
2.11432e-05
6.7295e-06
6.97861e-06
8.71307e-06
8.15141e-06
6.91337e-06
8.0969e-06
8.64471e-06
1.76618e-05
2.18551e-05
6.89755e-06
8.2627e-06
8.5514e-06
2.26314e-05
2.48413e-05
2.94691e-05
9.06885e-06
9.2538e-06
1.09331e-05
1.17573e-05
2.33137e-05
3.22578e-05
9.20283e-06
8.82421e-06
1.09752e-05
1.11898e-05
9.28845e-06
1.16699e-05
1.17569e-05
2.32059e-05
2.9669e-05
9.08522e-06
1.13899e-05
1.13717e-05
3.04995e-05
3.07671e-05
3.70222e-05
1.17314e-05
1.19986e-05
1.39605e-05
1.26968e-05
3.31307e-05
3.42567e-05
1.1817e-05
1.16453e-05
1.37993e-05
1.36542e-05
1.22481e-05
1.25989e-05
1.3262e-05
3.1086e-05
3.6788e-05
1.17613e-05
1.37551e-05
1.31545e-05
3.6013e-05
3.81043e-05
4.21766e-05
1.43394e-05
1.43069e-05
1.64439e-05
1.82689e-05
3.56084e-05
4.6255e-05
1.43046e-05
1.48141e-05
1.67588e-05
1.74443e-05
1.52336e-05
1.83482e-05
2.00227e-05
3.81752e-05
4.34615e-05
1.46805e-05
1.7875e-05
1.86787e-05
4.66315e-05
4.38005e-05
5.14459e-05
1.78496e-05
1.85896e-05
2.13302e-05
1.94082e-05
4.75364e-05
4.80961e-05
1.793e-05
1.7701e-05
2.12417e-05
1.93412e-05
2.02562e-05
1.9027e-05
1.99257e-05
4.4701e-05
4.95682e-05
1.90411e-05
2.08422e-05
1.90377e-05
4.50783e-05
5.27847e-05
5.65278e-05
2.19404e-05
2.09103e-05
2.45486e-05
2.56273e-05
4.88593e-05
5.80597e-05
2.20554e-05
2.20979e-05
2.48478e-05
2.84873e-05
1.97042e-05
2.55797e-05
2.58533e-05
5.15951e-05
6.18023e-05
1.89396e-05
3.03162e-05
2.68879e-05
6.01809e-05
5.79299e-05
6.35989e-05
2.60431e-05
2.67176e-05
3.08151e-05
3.01341e-05
6.00229e-05
6.31436e-05
2.64353e-05
2.90025e-05
3.00846e-05
2.84463e-05
2.98964e-05
3.01155e-05
3.41295e-05
6.25505e-05
6.07127e-05
3.00021e-05
2.98393e-05
3.27016e-05
6.7287e-05
6.46971e-05
6.757e-05
3.17674e-05
3.11818e-05
3.37215e-05
3.33877e-05
6.3844e-05
6.78794e-05
3.08547e-05
2.81404e-05
3.37668e-05
3.14357e-05
3.39943e-05
3.33942e-05
3.33032e-05
6.06386e-05
6.50678e-05
3.25117e-05
3.08192e-05
3.30582e-05
6.58925e-05
6.86988e-05
7.34303e-05
3.46811e-05
3.48209e-05
4.01923e-05
4.14335e-05
6.94835e-05
7.4083e-05
3.54661e-05
3.37833e-05
4.00926e-05
4.38491e-05
3.39647e-05
4.11435e-05
3.85569e-05
6.77862e-05
7.8339e-05
3.42259e-05
4.45779e-05
3.76805e-05
7.26178e-05
7.46539e-05
7.83972e-05
4.2303e-05
4.3103e-05
4.49901e-05
4.47004e-05
7.49031e-05
7.71847e-05
4.16015e-05
4.74906e-05
4.56064e-05
5.21545e-05
4.0542e-05
4.4868e-05
4.64362e-05
7.98182e-05
8.00301e-05
4.01131e-05
5.01734e-05
4.6741e-05
7.93743e-05
7.94186e-05
8.30909e-05
4.57904e-05
4.47597e-05
5.26682e-05
5.20165e-05
7.81346e-05
8.36221e-05
4.67127e-05
5.19454e-05
5.26464e-05
5.03187e-05
4.79087e-05
5.18215e-05
5.33286e-05
7.98474e-05
7.94672e-05
4.82295e-05
4.86578e-05
5.38617e-05
8.4057e-05
8.40616e-05
8.60001e-05
5.50458e-05
5.5465e-05
5.74451e-05
5.93618e-05
8.52437e-05
8.68936e-05
5.47267e-05
4.99399e-05
5.69098e-05
5.32911e-05
5.54105e-05
5.94298e-05
5.76923e-05
8.05564e-05
8.7519e-05
5.50905e-05
5.76933e-05
5.47511e-05
8.49596e-05
8.65009e-05
8.97929e-05
5.72863e-05
5.9163e-05
6.07119e-05
5.87167e-05
8.69407e-05
8.79345e-05
5.67647e-05
5.83151e-05
6.01141e-05
6.56296e-05
5.74913e-05
5.84187e-05
5.66325e-05
8.89729e-05
9.04722e-05
5.43581e-05
6.37518e-05
5.3729e-05
8.68052e-05
9.15265e-05
9.64676e-05
6.39313e-05
6.04673e-05
7.24857e-05
7.06998e-05
8.92167e-05
9.65889e-05
6.36395e-05
6.5937e-05
7.32736e-05
6.99539e-05
5.8055e-05
7.04912e-05
7.29043e-05
9.07873e-05
9.51242e-05
5.69155e-05
6.68658e-05
8.21066e-05
0.000101285
9.683e-05
9.71332e-05
7.33421e-05
7.41325e-05
7.5104e-05
7.86783e-05
9.79903e-05
0.000100067
7.4543e-05
7.37045e-05
7.44699e-05
8.03253e-05
7.81826e-05
7.95835e-05
8.3195e-05
9.70888e-05
0.000101172
8.66029e-05
8.13928e-05
8.82401e-05
0.000102948
9.80199e-05
0.00010413
7.62774e-05
7.8531e-05
8.11567e-05
7.88678e-05
0.000100191
0.000100041
7.51863e-05
8.04403e-05
8.1688e-05
7.94931e-05
8.28434e-05
7.848e-05
7.87355e-05
0.000101244
9.9586e-05
8.71973e-05
7.99715e-05
7.67414e-05
9.63943e-05
0.000104969
0.000106982
8.34646e-05
7.94794e-05
8.98321e-05
8.64318e-05
0.000100437
0.000106803
8.39016e-05
7.88764e-05
9.04774e-05
8.53464e-05
7.80779e-05
8.52677e-05
8.26707e-05
9.9664e-05
0.000105004
7.61046e-05
8.06466e-05
8.02481e-05
0.000110354
0.000107336
0.000108799
9.08368e-05
9.02989e-05
9.09706e-05
9.74299e-05
0.000108666
0.000112146
9.20576e-05
8.82606e-05
9.35114e-05
9.5751e-05
9.19579e-05
9.82855e-05
0.00010047
0.000106991
0.000113049
9.09691e-05
9.83814e-05
0.000102255
0.000113706
0.000109317
0.000112962
9.09988e-05
9.76779e-05
9.85589e-05
9.63468e-05
0.000112077
0.000110215
9.32801e-05
9.84272e-05
9.69162e-05
0.000101596
0.000100188
9.75583e-05
9.48812e-05
0.000113894
0.000113919
0.000102045
0.000102153
9.75301e-05
0.000106673
0.000114052
0.000116489
0.00010066
9.57383e-05
0.000102858
0.000101429
0.000110537
0.000117324
9.91491e-05
0.000101238
0.000102735
9.95922e-05
9.39619e-05
9.88365e-05
9.49903e-05
0.000113801
0.000112454
9.65697e-05
9.89202e-05
9.69628e-05
0.000116931
0.00011733
0.000123908
0.000104301
0.000105486
0.000113097
0.000115104
0.000119284
0.000124611
0.000104367
9.90024e-05
0.000113002
0.000109714
0.000102806
0.00011509
0.000119557
0.000113261
0.000123825
0.00010344
0.000110591
0.000119124
0.000128462
0.000125157
0.000126013
0.00011567
0.000116755
0.000117944
0.000117008
0.000125106
0.000124847
0.000115781
0.00011477
0.000118913
0.000121972
0.000121689
0.000117938
0.000121614
0.000125953
0.000128683
0.000121367
0.000122189
0.000121452
0.000126911
0.000125897
0.000125161
0.000117659
0.000116503
0.000116391
0.000114845
0.000124711
0.000123964
0.000118686
0.000121968
0.000117182
0.000119853
0.000120782
0.00011551
0.000116402
0.000128546
0.000126005
0.00012067
0.000119314
0.000116254
0.000123638
0.000125735
0.000131047
0.000117196
0.000115088
0.000123327
0.000123268
0.000124645
0.000131036
0.000116875
0.000119207
0.000122568
0.000118144
0.000115854
0.000121877
0.000117906
0.000125775
0.000128462
0.00011572
0.000117727
0.000117786
0.000129378
0.000132312
0.000136633
0.000125855
0.000126203
0.000131665
0.000133277
0.000132549
0.000138469
0.000125522
0.000121656
0.000132348
0.000131281
0.000123659
0.000134339
0.000134419
0.000130347
0.000136834
0.000123569
0.000131738
0.000134148
0.000138672
0.000136862
0.000136946
0.000132461
0.000134434
0.000132904
0.000135547
0.000138896
0.000138748
0.00013318
0.000133048
0.000133284
0.000135134
0.000135595
0.000136199
0.000135728
0.00013733
0.000138086
0.000135142
0.00013511
0.000135335
0.000138057
0.000137106
0.000141489
0.000133385
0.000135664
0.00013846
0.000135679
0.000138651
0.000138375
0.000133323
0.000135115
0.000138264
0.000136431
0.000135355
0.000135267
0.000134367
0.000138181
0.000139751
0.000135029
0.000135954
0.000134296
0.000137439
0.000142694
0.000145414
0.000140744
0.000136104
0.000144784
0.000141395
0.000138608
0.000143207
0.000140685
0.000138583
0.000144828
0.000145002
0.000134399
0.000140352
0.000143275
0.000140762
0.000146157
0.000134589
0.000144743
0.000143726
0.000146323
0.000145397
0.000144779
0.000145043
0.000143801
0.000144696
0.000147926
0.000144514
0.000148093
0.000145057
0.000145941
0.000144675
0.000146305
0.000146711
0.000149374
0.000151176
0.000146553
0.000146365
0.000146958
0.000147076
0.000150816
0.000149833
0.000145128
0.000149442
0.000145112
0.00014831
0.000150115
0.000149525
0.000148197
0.000148427
0.000144883
0.00014623
0.000150467
0.000149827
0.000151195
0.000150154
0.000148628
0.000146309
0.000148646
0.000150797
0.000149772
0.000148192
0.000145458
0.000149727
0.000151632
0.000150755
0.000150268
0.000153141
0.000154118
0.000148697
0.000152574
0.000151269
0.000151182
0.000152932
0.000152555
0.000148009
0.00015303
0.000147504
0.000149221
0.000150356
0.000147594
0.000151273
0.000147521
0.000149052
0.000152722
0.000158205
0.000155332
0.000156178
0.000162346
0.000161635
0.000153639
0.000157299
0.000154752
0.000153249
0.000161829
0.000159055
0.000151301
0.000161313
0.000163537
0.000150754
0.000156075
0.000151699
0.000158714
0.000163344
0.000160535
0.000158419
0.000156269
0.000163218
0.000162244
0.000162724
0.000161873
0.000157328
0.000156055
0.000163015
0.000161171
0.000163149
0.000165982
0.000165771
0.000162682
0.000167292
0.000157308
0.000161344
0.000165656
0.000168041
0.000167487
0.000160645
0.000156029
0.000156548
0.000161867
0.000161579
0.000160694
0.000161205
0.00015595
0.000158181
0.000162715
0.000167161
0.000161816
0.000168246
0.000166978
0.000162535
0.000163852
0.000161755
0.000162016
0.000167279
0.000169426
0.000164383
0.000156876
0.000157781
0.000166653
0.000161044
0.000163442
0.000172975
0.000172266
0.00015947
0.000165492
0.000163031
0.000168086
0.000171505
0.000166689
0.000163492
0.000171434
0.00016488
0.000161825
0.000158917
0.000164029
0.000165844
0.000164814
0.000160723
0.000167954
0.000170096
0.000176198
0.000173889
0.000180063
0.000175289
0.000165826
0.000165343
0.000173936
0.000166446
0.000177706
0.000169099
0.000168706
0.000174027
0.000175604
0.000158795
0.000161628
0.000168041
0.00016564
0.000173686
0.000166815
0.000169897
0.000164641
0.000180113
0.000175175
0.000176141
0.000175557
0.000165226
0.000166301
0.00017781
0.000171819
0.000175488
0.000177792
0.000176403
0.000174081
0.00017692
0.000162945
0.000169068
0.000174316
0.000176783
0.000175185
0.000167075
0.000164005
0.00016337
0.000173946
0.000175967
0.000171781
0.00017798
0.00016699
0.000170758
0.000174442
0.000179373
0.000173226
0.000182042
0.000176948
0.000181539
0.000180649
0.000170093
0.000173109
0.000176315
0.000184854
0.000182763
0.000171929
0.000164364
0.000174154
0.000171332
0.000179016
0.000181529
0.000182452
0.000171309
0.000172425
0.000173733
0.00018237
0.000184482
0.000184759
0.000182351
0.000184054
0.000183842
0.00017322
0.000173509
0.000184084
0.000185966
0.000184921
0.000172524
0.000175395
0.000176773
0.00018532
0.000183558
0.000190516
0.000186716
0.000172437
0.000173328
0.000186735
0.000185187
0.000188708
0.000184914
0.000183778
0.00018383
0.000183204
0.000173403
0.000171707
0.000184711
0.000183491
0.000183255
0.000171263
0.000176638
0.000176417
0.000190879
0.000187315
0.000190937
0.000188008
0.000173649
0.00017495
0.000188729
0.000184627
0.000188559
0.000184426
0.000183061
0.00018668
0.000187404
0.000171551
0.000173319
0.000183107
0.000183105
0.000185978
0.00017585
0.000176676
0.000180693
0.00019079
0.00018843
0.000192762
0.000191611
0.00017524
0.000179206
0.000188607
0.000185913
0.000194715
0.000195629
0.000189309
0.00019216
0.000194316
0.000174765
0.000182392
0.000188645
0.000195538
0.000195052
0.000181204
0.000180946
0.000179528
0.00019386
0.000193321
0.000194659
0.00019709
0.000180047
0.000182518
0.000195647
0.000196891
0.000195603
0.000197425
0.000195519
0.000197933
0.000196759
0.000182663
0.000181274
0.000196136
0.000197732
0.000196837
0.000181178
0.000178803
0.000176043
0.000194398
0.000197361
0.000192471
0.00019684
0.000182463
0.000180645
0.000193899
0.000196135
0.000190801
0.00019279
0.000196757
0.000197198
0.000195113
0.000180567
0.000177794
0.000196723
0.000193809
0.000194398
0.000179258
0.000175797
0.000182176
0.000192363
0.000195941
0.000195043
0.000195151
0.000180248
0.000179683
0.000190655
0.000192619
0.00019522
0.000194566
0.000194471
0.000195131
0.000194035
0.000177549
0.000181673
0.000194035
0.000194824
0.000193879
0.000179455
0.000184076
0.000192082
0.000198199
0.000195109
0.00020696
0.000202049
0.000180097
0.000187032
0.000199656
0.000197993
0.000209807
0.000206326
0.00019431
0.00020255
0.000202736
0.000183061
0.000188894
0.000195239
0.000204451
0.000202635
0.000186826
0.00019261
0.000192134
0.000208893
0.000204818
0.000210422
0.000208521
0.000188132
0.000190382
0.000211466
0.000208208
0.00021254
0.000210205
0.00020547
0.000207786
0.000209882
0.000189536
0.00019104
0.000205179
0.000208995
0.000210303
0.000192131
0.000191086
0.000183091
0.000210406
0.000208706
0.000204228
0.000205937
0.000190077
0.000185416
0.000212106
0.000210295
0.00020209
0.000205064
0.000210112
0.000204963
0.000208885
0.000190827
0.000186086
0.000210651
0.000207378
0.000210235
0.000189022
0.000182228
0.000182798
0.000202536
0.000204643
0.00020149
0.000204029
0.000184904
0.000186347
0.00019999
0.000202786
0.000198811
0.000200955
0.000206838
0.000204233
0.000204193
0.000185009
0.000183648
0.000207775
0.000203177
0.00020353
0.000184642
0.00018394
0.000194858
0.000201786
0.000204546
0.000212293
0.000213665
0.000187572
0.000195779
0.000199329
0.0002011
0.000212858
0.000211717
0.000204121
0.000214867
0.000209016
0.000184171
0.000193598
0.000203387
0.000209594
0.000206374
0.000190595
0.000195869
0.000197441
0.000215142
0.000215566
0.000217922
0.000217012
0.00019619
0.000195864
0.000216183
0.000214972
0.000219325
0.000218047
0.000211816
0.000217518
0.000215037
0.000194714
0.000196589
0.000209877
0.000216641
0.000214984
0.000194673
0.000196807
0.000191653
0.000218339
0.0002171
0.000214078
0.000212219
0.000195078
0.000189606
0.000219793
0.00021852
0.000214368
0.000214083
0.000215339
0.000211115
0.000213056
0.000195972
0.000191776
0.000215293
0.00021449
0.000214603
0.000191779
0.00019095
0.000190412
0.000212618
0.000210882
0.000211401
0.000209901
0.000188897
0.000188814
0.00021275
0.000213034
0.000211468
0.000212508
0.000212177
0.000208644
0.000211888
0.000191345
0.000192079
0.000214001
0.000213214
0.000213854
0.000192334
0.000190803
0.00019662
0.000211335
0.000210028
0.000217322
0.000217484
0.000189442
0.000197182
0.000211379
0.00021285
0.000217261
0.000218061
0.000212506
0.000217865
0.000220456
0.000192652
0.000196854
0.000214401
0.000218522
0.000220445
0.00019909
0.000197035
0.000197691
0.000219142
0.000219798
0.000221081
0.000222474
0.000197921
0.000199649
0.000218826
0.000218749
0.000220398
0.000219309
0.000221673
0.000223072
0.00022252
0.000196852
0.000195961
0.00022116
0.000219861
0.00022147
0.000197584
0.000197429
0.000196554
0.000221429
0.000222925
0.000220396
0.000221472
0.000199427
0.000197296
0.000220623
0.000218814
0.000219714
0.000218278
0.000221333
0.00022134
0.000217973
0.00019549
0.000195109
0.000219816
0.000218356
0.00021715
0.000193733
0.000196404
0.000197482
0.000220152
0.0002207
0.000220148
0.000220003
0.000196922
0.000196578
0.000219665
0.000218376
0.000220379
0.000221858
0.000217889
0.000220099
0.000220898
0.000195235
0.000199328
0.000217129
0.00022166
0.000221397
0.000199653
0.000197794
0.000200235
0.00022046
0.00022001
0.000223766
0.000223634
0.000196715
0.000200394
0.000221615
0.000223444
0.000224762
0.000226079
0.000223602
0.00022445
0.000226595
0.000199896
0.000201649
0.00022403
0.000225702
0.000226653
0.000203244
0.000200302
0.000200499
0.000224468
0.00022452
0.000225332
0.000225643
0.000200497
0.000200279
0.000225156
0.000226295
0.000225809
0.000226167
0.000226956
0.000225568
0.000222645
0.000201523
0.000199718
0.000227025
0.000224979
0.000222347
0.000196492
0.000199772
0.000196913
0.000225349
0.000225414
0.000222342
0.000221701
0.000199456
0.000196359
0.000225093
0.000224261
0.0002215
0.00022017
0.00022091
0.00022078
0.000219543
0.000198715
0.000195726
0.000220865
0.000220522
0.000219908
0.000195265
0.000196712
0.000200023
0.000222045
0.00022131
0.000222992
0.000221898
0.000196147
0.000199217
0.000221262
0.000219931
0.000222857
0.000221867
0.000219829
0.000222576
0.00022623
0.000195513
0.000199866
0.000220348
0.000223473
0.000226832
0.000202947
0.00020078
0.000202876
0.000224982
0.000224215
0.000227375
0.000227931
0.000200158
0.000203331
0.00022521
0.000224874
0.000227862
0.000228491
0.000227602
0.000228279
0.000228332
0.00020081
0.000203559
0.000227903
0.000228306
0.000228385
0.000201652
0.000202199
0.000198531
0.000227717
0.0002283
0.000225285
0.00022613
0.000203148
0.000199117
0.000228257
0.000228992
0.000225595
0.000226088
0.000227203
0.000225716
0.000222745
0.000203075
0.000198798
0.000226688
0.000225081
0.00022227
0.000195886
0.000198264
0.000201711
0.000224844
0.000225146
0.000225781
0.000224957
0.000198629
0.000200138
0.0002251
0.000225273
0.000225974
0.000225487
0.00022265
0.000224975
0.000227434
0.000198462
0.000201203
0.000222209
0.000225484
0.00022761
0.000204187
0.000202755
0.000206352
0.000228218
0.000226292
0.000231724
0.000230734
0.000201117
0.000205257
0.0002283
0.000227445
0.000231468
0.000231241
0.000231124
0.000231114
0.000234577
0.000202262
0.000206222
0.000231511
0.000232451
0.000235222
0.000209596
0.000206081
0.000197312
0.000231961
0.000231032
0.000226219
0.000227983
0.000205167
0.000199241
0.000231691
0.000231545
0.000225497
0.000227021
0.00023494
0.000227402
0.000224512
0.000206055
0.000198655
0.000235624
0.000227338
0.000224729
0.000195649
0.000195191
0.000191751
0.000222475
0.000224761
0.000218154
0.000220686
0.000197545
0.000194883
0.000221826
0.00022331
0.000217784
0.000218219
0.000221107
0.00022113
0.000218671
0.000196607
0.000192483
0.000220893
0.000218106
0.000217821
0.00019237
0.000191854
0.000207489
0.000218203
0.000220676
0.000231416
0.000230364
0.000194924
0.000205518
0.000217864
0.000218156
0.000231901
0.00022811
0.000219177
0.000231529
0.000233828
0.000192253
0.000203774
0.000218145
0.000227839
0.000232912
0.000208124
0.000211839
0.000234728
0.000232304
0.000208787
0.00023532
0.000231783
0.000251384
0.000248634
0.000254416
0.000234678
0.000208106
0.000234291
4.69844e-06
2.33131e-06
1.77207e-06
2.16801e-06
1.1262e-06
2.03859e-06
2.08783e-06
2.24495e-06
1.22201e-06
1.98152e-06
1.61881e-06
5.68286e-07
2.26997e-06
1.06297e-06
1.87771e-06
1.0216e-06
1.39529e-05
9.59841e-07
1.57334e-05
1.04165e-05
1.2766e-05
1.33944e-06
1.35737e-05
1.24574e-06
1.53336e-05
1.68354e-06
1.79071e-06
1.91678e-06
1.83683e-06
1.69985e-06
1.79475e-06
1.917e-06
1.10125e-06
8.41914e-07
2.06297e-06
1.94934e-06
1.08835e-06
9.15128e-07
2.0643e-06
1.1486e-05
1.38998e-05
1.20673e-06
1.71373e-06
3.57551e-07
1.75527e-06
1.20641e-06
1.72178e-06
4.73433e-07
1.4719e-06
1.50297e-06
2.2413e-06
1.69048e-06
1.71284e-06
1.22317e-06
1.90822e-05
1.13161e-06
2.13483e-05
1.68465e-05
1.90009e-05
1.52023e-06
1.88049e-05
1.44987e-06
2.1063e-05
1.70272e-06
1.79735e-06
1.91789e-06
1.83762e-06
1.70836e-06