/*--------------------------------*- C++ -*----------------------------------*\
| =========                 |                                                 |
| \\      /  F ield         | OpenFOAM: The Open Source CFD Toolbox           |
|  \\    /   O peration     | Version:  v2012                                 |
|   \\  /    A nd           | Website:  www.openfoam.com                      |
|    \\/     M anipulation  |                                                 |
\*---------------------------------------------------------------------------*/
FoamFile
{
    version     2.0;
    format      ascii;
    class       volScalarField;
    location    "1337.5";
    object      epsilon;
}
// * * * * * * * * * * * * * * * * * * * * * * * * * * * * * * * * * * * * * //

dimensions      [0 2 -3 0 0 0 0];


internalField   nonuniform List<scalar> 
171728
(
1.59185e-09
3.30456e-09
4.85588e-09
5.28166e-09
1.53398e-09
3.04595e-09
4.55451e-09
4.71889e-09
1.40314e-09
2.78907e-09
4.25872e-09
4.06186e-09
1.27621e-09
2.5618e-09
4.01573e-09
3.70827e-09
1.17337e-09
2.36451e-09
3.79731e-09
3.48018e-09
1.07277e-09
2.1912e-09
3.60543e-09
3.22947e-09
9.78558e-10
2.04834e-09
3.42782e-09
3.0142e-09
9.06338e-10
1.94073e-09
3.19335e-09
2.84057e-09
8.49898e-10
1.86665e-09
2.90116e-09
2.72542e-09
8.00688e-10
1.82332e-09
2.64582e-09
2.6629e-09
7.55104e-10
1.81179e-09
2.48103e-09
2.62073e-09
7.11708e-10
1.82797e-09
2.33399e-09
2.4996e-09
6.81654e-10
1.87906e-09
2.20286e-09
2.481e-09
6.57444e-10
1.98036e-09
2.16408e-09
2.54659e-09
6.32913e-10
2.17419e-09
2.2442e-09
2.62758e-09
6.09659e-10
2.52224e-09
2.54107e-09
2.67871e-09
5.90701e-10
3.03128e-09
3.05012e-09
3.12642e-09
5.74002e-10
3.81091e-09
3.70123e-09
3.75256e-09
5.65173e-10
4.79632e-09
5.03377e-09
5.08079e-09
5.56243e-10
6.83898e-09
6.31016e-09
7.02021e-09
5.6164e-10
8.96489e-09
9.1052e-09
1.13596e-08
5.65783e-10
1.23814e-08
1.23029e-08
1.733e-08
6.0331e-10
1.80306e-08
1.73903e-08
2.81053e-08
6.39249e-10
2.33436e-08
2.49458e-08
4.80141e-08
7.07411e-10
3.43178e-08
3.11956e-08
6.94403e-08
8.5858e-10
4.19269e-08
4.91416e-08
1.12603e-07
9.94514e-10
5.98848e-08
5.60385e-08
1.5982e-07
1.25905e-09
7.45546e-08
7.54651e-08
2.05798e-07
1.72929e-09
1.03797e-07
9.97387e-08
3.16995e-07
1.99509e-09
1.06051e-07
1.21113e-07
3.69029e-07
2.92512e-09
1.44341e-07
1.38113e-07
3.9861e-07
3.93922e-09
1.82607e-07
1.76522e-07
5.45756e-07
4.83421e-09
1.95976e-07
2.02918e-07
5.88599e-07
7.24295e-09
2.49242e-07
2.48254e-07
6.50044e-07
8.95557e-09
2.76941e-07
2.7611e-07
7.03795e-07
1.08136e-08
3.10884e-07
3.1925e-07
7.61695e-07
1.71912e-08
3.76634e-07
3.70995e-07
7.94102e-07
1.98591e-08
4.03758e-07
4.03635e-07
8.44709e-07
2.48789e-08
4.52888e-07
4.55572e-07
8.8546e-07
3.32182e-08
5.08994e-07
5.11219e-07
9.09777e-07
4.131e-08
5.42262e-07
5.47961e-07
9.43753e-07
4.83253e-08
6.0339e-07
5.98034e-07
9.78974e-07
6.41305e-08
6.48044e-07
6.59694e-07
1.00995e-06
7.6745e-08
6.97894e-07
6.85569e-07
1.02998e-06
8.63713e-08
7.36218e-07
7.42207e-07
1.06292e-06
1.11967e-07
7.85325e-07
7.99607e-07
1.09964e-06
1.24099e-07
8.31775e-07
8.17273e-07
1.11825e-06
1.4805e-07
8.60169e-07
8.56855e-07
1.12429e-06
1.75678e-07
8.97371e-07
9.08527e-07
1.17082e-06
1.9642e-07
9.49517e-07
9.42912e-07
1.20866e-06
2.31319e-07
9.70241e-07
9.71619e-07
1.21952e-06
2.54931e-07
9.89346e-07
9.89538e-07
1.2327e-06
2.8188e-07
1.03782e-06
1.03951e-06
1.24986e-06
3.18025e-07
1.05336e-06
1.05123e-06
1.26869e-06
3.49196e-07
1.06706e-06
1.06417e-06
1.31181e-06
3.73164e-07
1.10649e-06
1.11065e-06
1.33029e-06
4.1927e-07
1.1205e-06
1.12385e-06
1.326e-06
4.41235e-07
1.12955e-06
1.13268e-06
1.32635e-06
4.67401e-07
1.16157e-06
1.15816e-06
1.37212e-06
4.99611e-07
1.17321e-06
1.18264e-06
1.39614e-06
5.32524e-07
1.1927e-06
1.18477e-06
1.3955e-06
5.59296e-07
1.20557e-06
1.18795e-06
1.38487e-06
5.70192e-07
1.20833e-06
1.21583e-06
1.40771e-06
5.99122e-07
1.23325e-06
1.24076e-06
1.44936e-06
6.21345e-07
1.25507e-06
1.25425e-06
1.46202e-06
6.47893e-07
1.25378e-06
1.2482e-06
1.43376e-06
6.57838e-07
1.2496e-06
1.24618e-06
1.42148e-06
6.69463e-07
1.27308e-06
1.27585e-06
1.47447e-06
6.90769e-07
1.29696e-06
1.29408e-06
1.5124e-06
7.148e-07
1.29284e-06
1.29054e-06
1.49407e-06
7.29932e-07
1.28862e-06
1.28942e-06
1.47167e-06
7.31383e-07
1.29352e-06
1.29925e-06
1.48672e-06
7.33824e-07
1.304e-06
1.30311e-06
1.50533e-06
7.59109e-07
1.30943e-06
1.31782e-06
1.51327e-06
7.81778e-07
1.32597e-06
1.31841e-06
1.52673e-06
7.80925e-07
1.32258e-06
1.30544e-06
1.51159e-06
7.76755e-07
1.29947e-06
1.31413e-06
1.49648e-06
7.88432e-07
1.31498e-06
1.32907e-06
1.53291e-06
8.07326e-07
1.33785e-06
1.32197e-06
1.54039e-06
8.07437e-07
1.31888e-06
1.3164e-06
1.51965e-06
8.03956e-07
1.31192e-06
1.32097e-06
1.51796e-06
8.08576e-07
1.32367e-06
1.32285e-06
1.52975e-06
8.12912e-07
1.32113e-06
1.31807e-06
1.52811e-06
8.13636e-07
1.31913e-06
1.31812e-06
1.53785e-06
8.14934e-07
1.31497e-06
1.31445e-06
1.52928e-06
8.12444e-07
1.30173e-06
1.31014e-06
1.50719e-06
8.10265e-07
1.31552e-06
1.31396e-06
1.53449e-06
8.11058e-07
1.32179e-06
1.30941e-06
1.54464e-06
8.0696e-07
1.28264e-06
1.29015e-06
1.49468e-06
7.95597e-07
1.27063e-06
1.27758e-06
1.47832e-06
7.98714e-07
1.3104e-06
1.3033e-06
1.55172e-06
8.06928e-07
1.30958e-06
1.31188e-06
1.55086e-06
7.83614e-07
1.25063e-06
1.24958e-06
1.45579e-06
7.71042e-07
1.24361e-06
1.23832e-06
1.45828e-06
7.68877e-07
1.21803e-06
1.22556e-06
1.48263e-06
5.12654e-09
6.04711e-09
2.8044e-09
3.89995e-09
4.209e-09
3.95716e-09
1.54442e-09
1.26266e-09
1.38874e-09
1.57542e-09
3.39562e-09
3.47082e-09
4.46215e-09
3.90224e-09
2.30656e-09
5.39646e-09
5.05955e-09
4.73595e-09
8.07618e-09
4.50876e-09
7.73856e-09
4.19649e-09
3.87561e-09
3.51004e-09
6.27427e-09
7.03636e-09
5.98298e-09
6.56477e-09
4.77917e-09
3.11541e-09
4.67135e-09
4.4186e-09
4.09611e-09
3.73435e-08
4.63827e-09
1.78443e-08
4.86369e-09
4.66454e-09
4.42829e-09
7.59013e-09
4.08407e-09
7.1614e-09
3.81669e-09
3.4814e-09
3.17093e-09
5.87249e-09
6.39084e-09
5.5528e-09
5.85178e-09
4.61457e-09
2.85017e-09
4.43789e-09
4.02663e-09
3.75431e-09
1.33403e-08
4.32784e-09
6.52684e-09
4.1436e-09
4.36226e-09
4.13852e-09
7.01369e-09
3.75327e-09
6.54545e-09
3.62187e-09
3.14812e-09
2.90785e-09
5.45338e-09
5.67153e-09
5.18617e-09
5.13421e-09
4.37314e-09
2.61584e-09
4.13366e-09
3.69819e-09
3.47378e-09
5.64282e-09
4.0737e-09
4.53569e-09
3.74594e-09
4.07899e-09
3.86836e-09
6.38082e-09
3.59152e-09
5.85471e-09
3.53078e-09
2.89042e-09
2.71414e-09
5.10245e-09
4.93549e-09
4.87903e-09
4.29026e-09
4.02847e-09
2.41118e-09
3.63925e-09
3.42596e-09
3.22112e-09
4.40382e-09
3.84805e-09
4.16113e-09
3.51535e-09
3.81178e-09
3.54636e-09
5.65412e-09
3.5151e-09
4.92606e-09
3.47353e-09
2.70209e-09
2.5709e-09
4.81078e-09
4.07433e-09
4.5869e-09
3.45446e-09
3.49297e-09
2.23235e-09
3.03225e-09
3.18911e-09
2.98147e-09
4.09907e-09
3.65272e-09
3.96551e-09
3.249e-09
3.47248e-09
3.14613e-09
4.64493e-09
3.46391e-09
3.77562e-09
3.44803e-09
2.5637e-09
2.46759e-09
4.49497e-09
3.25892e-09
4.17089e-09
2.75755e-09
2.88897e-09
2.08054e-09
2.50717e-09
2.96047e-09
2.74305e-09
3.9313e-09
3.47381e-09
3.84968e-09
3.02634e-09
3.12034e-09
2.85259e-09
3.50654e-09
3.4399e-09
2.85827e-09
3.38412e-09
2.46122e-09
2.35739e-09
4.05946e-09
2.61867e-09
3.76533e-09
2.27528e-09
2.4033e-09
1.96446e-09
2.11699e-09
2.72481e-09
2.52433e-09
3.83354e-09
3.25972e-09
3.82491e-09
2.84696e-09
2.83117e-09
2.58718e-09
2.68278e-09
3.35679e-09
2.26894e-09
3.26855e-09
2.35289e-09
2.26653e-09
3.68352e-09
2.1875e-09
3.4909e-09
1.99341e-09
2.03113e-09
1.8825e-09
1.89667e-09
2.51243e-09
2.34874e-09
3.8275e-09
2.97654e-09
3.8787e-09
2.72569e-09
2.57411e-09
2.39083e-09
2.19261e-09
3.23699e-09
1.95928e-09
3.11098e-09
2.26528e-09
2.19686e-09
3.44091e-09
1.95369e-09
3.31311e-09
1.87491e-09
1.84925e-09
1.8299e-09
1.75698e-09
2.34281e-09
2.21529e-09
3.91331e-09
2.70009e-09
4.08065e-09
2.6573e-09
2.3843e-09
2.21709e-09
1.87631e-09
3.06357e-09
1.79659e-09
2.95543e-09
2.19868e-09
2.14706e-09
3.26975e-09
1.86336e-09
3.0734e-09
1.86232e-09
1.75709e-09
1.812e-09
1.77427e-09
2.2149e-09
2.12483e-09
4.14862e-09
2.517e-09
4.32645e-09
2.61487e-09
2.2135e-09
2.09093e-09
1.79328e-09
2.9436e-09
1.69818e-09
2.94661e-09
2.15375e-09
2.12588e-09
2.99227e-09
1.86799e-09
2.75837e-09
1.92181e-09
1.77438e-09
1.82158e-09
1.77122e-09
2.12758e-09
2.04059e-09
4.36681e-09
2.37395e-09
4.41169e-09
2.49918e-09
2.09851e-09
2.07255e-09
1.67184e-09
2.9591e-09
1.66526e-09
3.05025e-09
2.13938e-09
2.14194e-09
2.69979e-09
1.94344e-09
2.59955e-09
2.03275e-09
1.7743e-09
1.86688e-09
1.81444e-09
2.04531e-09
2.00516e-09
4.40165e-09
2.23233e-09
4.33589e-09
2.45733e-09
2.09473e-09
2.13002e-09
1.68117e-09
3.10138e-09
1.82705e-09
3.30464e-09
2.16405e-09
2.19988e-09
2.5937e-09
2.07586e-09
2.61643e-09
2.19407e-09
1.83512e-09
1.9576e-09
1.92271e-09
2.0222e-09
2.02735e-09
4.31063e-09
2.16305e-09
4.26462e-09
2.51302e-09
2.16688e-09
2.25742e-09
1.88087e-09
3.36913e-09
2.04853e-09
3.57653e-09
2.23431e-09
2.31665e-09
2.64815e-09
2.24315e-09
2.76493e-09
2.40207e-09
1.95594e-09
2.12607e-09
2.12835e-09
2.05594e-09
2.12338e-09
4.26669e-09
2.19901e-09
4.33733e-09
2.5852e-09
2.3165e-09
2.47807e-09
2.11747e-09
3.66337e-09
2.3705e-09
3.99119e-09
2.37518e-09
2.57056e-09
2.83087e-09
2.46139e-09
2.99246e-09
2.70915e-09
2.18375e-09
2.41791e-09
2.39394e-09
2.17805e-09
2.34061e-09
4.32369e-09
2.42357e-09
4.27783e-09
2.62134e-09
2.57428e-09
2.8215e-09
2.47523e-09
4.14579e-09
2.84812e-09
4.54912e-09
2.6681e-09
2.99769e-09
3.08317e-09
2.78318e-09
3.3601e-09
3.1389e-09
2.49841e-09
2.85463e-09
2.84988e-09
2.43015e-09
2.66547e-09
4.30671e-09
2.92061e-09
4.24491e-09
2.94042e-09
2.95667e-09
3.48758e-09
3.001e-09
4.75341e-09
3.55823e-09
5.385e-09
3.16004e-09
3.67026e-09
3.43776e-09
3.31549e-09
3.90216e-09
3.61663e-09
3.00591e-09
3.52291e-09
3.53315e-09
2.8114e-09
3.33123e-09
4.26293e-09
3.5867e-09
4.87126e-09
3.55226e-09
3.75656e-09
4.50902e-09
3.77754e-09
5.60149e-09
4.58485e-09
6.75853e-09
3.96708e-09
5.03099e-09
4.11859e-09
3.8867e-09
4.83663e-09
4.87754e-09
3.72924e-09
4.62736e-09
4.5979e-09
3.56961e-09
4.55416e-09
5.11039e-09
4.71291e-09
5.82519e-09
4.63438e-09
4.8921e-09
6.48655e-09
4.89602e-09
7.00783e-09
6.16123e-09
7.89391e-09
5.31374e-09
6.67849e-09
5.16621e-09
5.02611e-09
6.35596e-09
6.3493e-09
4.94995e-09
6.16057e-09
6.08704e-09
5.02198e-09
6.03676e-09
6.04658e-09
5.83352e-09
6.80592e-09
6.37174e-09
7.16949e-09
9.65892e-09
6.64396e-09
8.99203e-09
8.25473e-09
1.0788e-08
7.85213e-09
1.09187e-08
6.70451e-09
6.92284e-09
8.3749e-09
9.66302e-09
6.55079e-09
8.52653e-09
8.42852e-09
6.60938e-09
1.07039e-08
7.18216e-09
8.45365e-09
8.9887e-09
1.00698e-08
1.07894e-08
1.60162e-08
8.99609e-09
1.1079e-08
1.17824e-08
1.41167e-08
1.15366e-08
1.55296e-08
9.10966e-09
1.07428e-08
1.16405e-08
1.25376e-08
9.18795e-09
1.13415e-08
1.13669e-08
1.18215e-08
1.47469e-08
9.79258e-09
1.13363e-08
1.19105e-08
1.55754e-08
1.76773e-08
2.50367e-08
1.25128e-08
1.4944e-08
1.6141e-08
1.89046e-08
1.77682e-08
2.81941e-08
1.22776e-08
1.37194e-08
1.58577e-08
1.8592e-08
1.25138e-08
1.64906e-08
1.59614e-08
1.65165e-08
2.60846e-08
1.30047e-08
1.61414e-08
1.63046e-08
2.55558e-08
2.85561e-08
4.13409e-08
1.78267e-08
2.07398e-08
2.21931e-08
2.31211e-08
3.15052e-08
3.89921e-08
1.76893e-08
2.01897e-08
2.20944e-08
2.79836e-08
1.71794e-08
2.1795e-08
2.27725e-08
2.89213e-08
4.43334e-08
1.75053e-08
2.23076e-08
2.31304e-08
4.28741e-08
4.50481e-08
6.75468e-08
2.39313e-08
2.428e-08
3.08919e-08
3.24736e-08
4.1789e-08
7.04611e-08
2.37855e-08
3.02013e-08
3.09993e-08
3.40657e-08
2.49454e-08
3.09765e-08
2.94805e-08
4.98729e-08
6.50054e-08
2.53071e-08
3.02934e-08
2.96324e-08
6.4487e-08
7.41586e-08
9.70212e-08
3.32721e-08
3.47415e-08
4.07729e-08
4.40988e-08
7.8958e-08
9.90056e-08
3.32515e-08
3.53617e-08
4.00551e-08
4.9046e-08
3.19949e-08
4.03161e-08
4.20342e-08
6.80875e-08
1.18648e-07
3.20207e-08
4.40365e-08
4.24097e-08
1.02429e-07
1.04662e-07
1.51745e-07
4.4181e-08
4.80281e-08
5.64247e-08
5.90611e-08
1.0353e-07
1.47724e-07
4.36149e-08
5.29025e-08
5.53586e-08
5.5981e-08
4.46117e-08
5.59628e-08
5.59286e-08
1.34688e-07
1.43239e-07
4.50932e-08
5.53106e-08
5.57289e-08
1.49174e-07
1.64157e-07
1.98787e-07
6.0357e-08
6.19407e-08
6.76293e-08
7.17136e-08
1.61933e-07
1.96994e-07
5.88319e-08
5.63013e-08
6.83861e-08
6.83959e-08
6.04557e-08
6.69679e-08
6.7987e-08
1.43711e-07
1.90063e-07
6.02256e-08
6.97557e-08
6.81337e-08
1.99162e-07
2.08527e-07
2.80142e-07
7.17053e-08
8.38065e-08
9.52417e-08
1.11341e-07
2.11262e-07
3.33226e-07
7.28981e-08
7.7251e-08
9.31802e-08
1.06301e-07
7.02098e-08
1.00792e-07
9.50789e-08
2.18385e-07
2.93339e-07
7.04141e-08
9.1402e-08
9.45637e-08
2.83442e-07
2.99406e-07
3.46745e-07
1.01704e-07
1.12024e-07
1.09308e-07
1.01528e-07
3.40789e-07
2.95507e-07
9.94548e-08
1.14577e-07
1.09636e-07
1.24697e-07
1.03938e-07
1.05282e-07
1.15352e-07
3.07397e-07
3.74061e-07
1.03487e-07
1.18532e-07
1.16095e-07
3.66555e-07
3.55524e-07
4.17476e-07
1.11267e-07
1.00965e-07
1.35448e-07
1.30665e-07
2.95916e-07
4.02761e-07
1.13948e-07
1.25236e-07
1.36498e-07
1.27636e-07
1.16342e-07
1.29692e-07
1.24288e-07
3.81082e-07
3.93316e-07
1.17271e-07
1.28959e-07
1.24973e-07
3.79377e-07
4.39671e-07
5.11528e-07
1.4624e-07
1.55631e-07
1.70847e-07
1.93505e-07
4.47228e-07
5.38402e-07
1.4338e-07
1.31113e-07
1.64773e-07
1.66834e-07
1.35462e-07
1.76765e-07
1.74405e-07
4.03393e-07
5.16781e-07
1.35563e-07
1.70585e-07
1.72575e-07
5.25411e-07
5.24803e-07
5.65741e-07
1.77957e-07
1.97281e-07
1.94642e-07
2.02138e-07
5.4581e-07
5.62196e-07
1.74376e-07
1.78051e-07
1.96631e-07
2.0156e-07
1.81104e-07
1.91398e-07
1.97901e-07
5.35983e-07
5.68285e-07
1.80032e-07
1.93286e-07
1.98775e-07
5.78396e-07
5.80827e-07
6.42302e-07
2.00934e-07
2.04411e-07
2.34747e-07
2.32151e-07
5.72192e-07
6.38248e-07
2.0253e-07
2.09865e-07
2.33715e-07
2.4176e-07
2.0532e-07
2.35043e-07
2.32505e-07
5.80165e-07
6.42647e-07
2.06941e-07
2.37412e-07
2.32946e-07
6.3476e-07
6.57605e-07
6.92181e-07
2.47792e-07
2.46681e-07
2.73612e-07
2.74762e-07
6.58701e-07
6.9556e-07
2.46496e-07
2.51434e-07
2.73093e-07
2.73029e-07
2.42821e-07
2.734e-07
2.66885e-07
6.6018e-07
6.9398e-07
2.42132e-07
2.70852e-07
2.66964e-07
6.90294e-07
7.0135e-07
7.2933e-07
2.77985e-07
2.7893e-07
2.95624e-07
2.9684e-07
7.03354e-07
7.30938e-07
2.77666e-07
2.78455e-07
2.95113e-07
3.0343e-07
2.75117e-07
2.95615e-07
3.12939e-07
7.0319e-07
7.37358e-07
2.75948e-07
3.04427e-07
3.14292e-07
7.50538e-07
7.43594e-07
8.01949e-07
3.09449e-07
3.1142e-07
3.63389e-07
3.63307e-07
7.4649e-07
8.0073e-07
3.08898e-07
3.17328e-07
3.62199e-07
3.60112e-07
3.26368e-07
3.64163e-07
3.53561e-07
7.52597e-07
7.977e-07
3.27375e-07
3.61614e-07
3.5439e-07
7.84903e-07
8.13099e-07
8.30779e-07
3.77915e-07
3.75357e-07
4.01617e-07
3.98504e-07
8.11672e-07
8.3129e-07
3.76047e-07
3.71355e-07
3.97773e-07
3.98811e-07
3.58414e-07
3.96425e-07
3.88123e-07
8.08077e-07
8.30198e-07
3.59296e-07
3.9238e-07
3.84102e-07
8.30518e-07
8.38247e-07
8.653e-07
4.06395e-07
4.07233e-07
4.36682e-07
4.40361e-07
8.39466e-07
8.66739e-07
4.0378e-07
4.09511e-07
4.37017e-07
4.40616e-07
4.06888e-07
4.3892e-07
4.58271e-07
8.39181e-07
8.67038e-07
4.03095e-07
4.43807e-07
4.62117e-07
8.77532e-07
8.7706e-07
9.07575e-07
4.52715e-07
4.53182e-07
4.95025e-07
4.96086e-07
8.78053e-07
9.07448e-07
4.51511e-07
4.50608e-07
4.92485e-07
4.96631e-07
4.68229e-07
4.96404e-07
4.88569e-07
8.78236e-07
9.11077e-07
4.75141e-07
4.97482e-07
4.99149e-07
9.01859e-07
9.16459e-07
9.37015e-07
5.06137e-07
5.09105e-07
5.39948e-07
5.34706e-07
9.15605e-07
9.32426e-07
5.05483e-07
5.13956e-07
5.44044e-07
5.5121e-07
4.96167e-07
5.33748e-07
5.36477e-07
9.2028e-07
9.3609e-07
5.03461e-07
5.40811e-07
5.27326e-07
9.33895e-07
9.44533e-07
9.6396e-07
5.52691e-07
5.43428e-07
5.84441e-07
5.87787e-07
9.4042e-07
9.68665e-07
5.54499e-07
5.57949e-07
5.77191e-07
5.77283e-07
5.51055e-07
5.86528e-07
5.89564e-07
9.42576e-07
9.66436e-07
5.42388e-07
5.8061e-07
5.89151e-07
9.70458e-07
9.72916e-07
1.00502e-06
5.94424e-07
6.04591e-07
6.40573e-07
6.39986e-07
9.78563e-07
9.99623e-07
5.8922e-07
5.91454e-07
6.43194e-07
6.40811e-07
6.0322e-07
6.39546e-07
6.42178e-07
9.76973e-07
1.0002e-06
6.04161e-07
6.48243e-07
6.4462e-07
1.00247e-06
1.01361e-06
1.02503e-06
6.56828e-07
6.48357e-07
6.86893e-07
6.83e-07
1.00643e-06
1.02804e-06
6.5885e-07
6.51479e-07
6.85242e-07
6.73894e-07
6.53885e-07
6.83589e-07
6.81203e-07
1.00614e-06
1.01938e-06
6.5595e-07
6.81017e-07
6.80542e-07
1.02409e-06
1.02946e-06
1.05074e-06
6.9212e-07
6.97678e-07
7.21134e-07
7.30261e-07
1.03638e-06
1.05418e-06
6.89798e-07
6.86135e-07
7.19706e-07
7.44654e-07
6.89836e-07
7.28962e-07
7.26303e-07
1.02699e-06
1.06248e-06
6.88643e-07
7.20759e-07
7.234e-07
1.05301e-06
1.06231e-06
1.09034e-06
7.37551e-07
7.37675e-07
7.82395e-07
7.71092e-07
1.05988e-06
1.08119e-06
7.38315e-07
7.63496e-07
7.85011e-07
7.97481e-07
7.40236e-07
7.69404e-07
7.8055e-07
1.07419e-06
1.099e-06
7.37568e-07
7.91424e-07
7.83219e-07
1.09206e-06
1.09525e-06
1.10221e-06
7.91574e-07
7.86702e-07
8.08939e-07
8.22859e-07
1.09103e-06
1.11601e-06
7.93754e-07
8.02966e-07
8.08175e-07
8.13752e-07
7.93394e-07
8.24104e-07
8.25446e-07
1.10331e-06
1.10368e-06
7.96333e-07
8.14066e-07
8.22793e-07
1.11451e-06
1.10772e-06
1.13702e-06
8.1819e-07
8.29588e-07
8.58334e-07
8.51787e-07
1.12091e-06
1.13001e-06
8.15047e-07
8.16183e-07
8.54313e-07
8.34737e-07
8.325e-07
8.52381e-07
8.44285e-07
1.10581e-06
1.12051e-06
8.28187e-07
8.39749e-07
8.39817e-07
1.1205e-06
1.14609e-06
1.16297e-06
8.70512e-07
8.60851e-07
8.94671e-07
8.89e-07
1.1355e-06
1.15772e-06
8.68e-07
8.52547e-07
8.96151e-07
9.01422e-07
8.49322e-07
8.86217e-07
8.87717e-07
1.13195e-06
1.16985e-06
8.46723e-07
9.01694e-07
8.88133e-07
1.15702e-06
1.16766e-06
1.18566e-06
9.01212e-07
8.99852e-07
9.28208e-07
9.38025e-07
1.16581e-06
1.19552e-06
9.02701e-07
9.09927e-07
9.27612e-07
9.33987e-07
9.03979e-07
9.38211e-07
9.43218e-07
1.17572e-06
1.19097e-06
9.05448e-07
9.316e-07
9.47607e-07
1.20372e-06
1.19395e-06
1.21753e-06
9.40089e-07
9.48658e-07
9.72145e-07
9.66284e-07
1.20276e-06
1.21141e-06
9.39371e-07
9.44505e-07
9.72154e-07
9.70889e-07
9.52615e-07
9.67313e-07
9.72492e-07
1.19807e-06
1.21418e-06
9.55326e-07
9.67924e-07
9.67506e-07
1.21583e-06
1.22218e-06
1.22732e-06
9.78229e-07
9.69476e-07
9.87357e-07
9.82023e-07
1.21367e-06
1.22039e-06
9.78388e-07
9.75935e-07
9.8754e-07
9.86278e-07
9.77224e-07
9.81261e-07
9.87938e-07
1.21728e-06
1.22276e-06
9.70962e-07
9.8153e-07
9.85349e-07
1.22851e-06
1.2312e-06
1.25371e-06
9.92637e-07
9.90635e-07
1.02001e-06
1.02788e-06
1.22725e-06
1.26217e-06
9.92811e-07
9.9161e-07
1.01973e-06
1.02299e-06
9.92265e-07
1.02769e-06
1.01428e-06
1.22843e-06
1.26166e-06
9.9424e-07
1.0296e-06
1.02287e-06
1.24534e-06
1.26153e-06
1.27706e-06
1.02908e-06
1.03785e-06
1.05148e-06
1.0519e-06
1.26997e-06
1.27808e-06
1.02854e-06
1.03432e-06
1.05184e-06
1.05297e-06
1.02089e-06
1.05142e-06
1.04104e-06
1.26929e-06
1.27624e-06
1.02811e-06
1.04967e-06
1.03671e-06
1.2618e-06
1.28112e-06
1.28854e-06
1.05712e-06
1.05379e-06
1.06661e-06
1.06075e-06
1.27988e-06
1.28193e-06
1.05793e-06
1.05564e-06
1.06745e-06
1.06227e-06
1.05043e-06
1.06084e-06
1.08156e-06
1.27795e-06
1.28065e-06
1.04217e-06
1.05871e-06
1.07146e-06
1.30334e-06
1.29215e-06
1.30858e-06
1.06897e-06
1.06666e-06
1.09058e-06
1.09563e-06
1.28735e-06
1.31666e-06
1.0691e-06
1.06667e-06
1.08931e-06
1.09809e-06
1.09017e-06
1.09836e-06
1.10502e-06
1.28589e-06
1.32168e-06
1.0808e-06
1.10002e-06
1.10371e-06
1.32726e-06
1.31748e-06
1.33722e-06
1.10139e-06
1.10408e-06
1.12356e-06
1.11994e-06
1.32289e-06
1.33079e-06
1.10098e-06
1.1082e-06
1.12476e-06
1.12071e-06
1.10686e-06
1.11866e-06
1.10912e-06
1.32991e-06
1.33416e-06
1.10919e-06
1.12257e-06
1.11705e-06
1.32512e-06
1.33977e-06
1.33692e-06
1.12618e-06
1.12258e-06
1.129e-06
1.12797e-06
1.33326e-06
1.33726e-06
1.12733e-06
1.12197e-06
1.12936e-06
1.12653e-06
1.10963e-06
1.12506e-06
1.1148e-06
1.33525e-06
1.33438e-06
1.11838e-06
1.12964e-06
1.12361e-06
1.32181e-06
1.34005e-06
1.35684e-06
1.13147e-06
1.13217e-06
1.14998e-06
1.15288e-06
1.34187e-06
1.36252e-06
1.13096e-06
1.13071e-06
1.14914e-06
1.15236e-06
1.12124e-06
1.15453e-06
1.15938e-06
1.33889e-06
1.36113e-06
1.12663e-06
1.15001e-06
1.14688e-06
1.36204e-06
1.36185e-06
1.37104e-06
1.15529e-06
1.15887e-06
1.16638e-06
1.16824e-06
1.36783e-06
1.37283e-06
1.15414e-06
1.15854e-06
1.16634e-06
1.17358e-06
1.16999e-06
1.17201e-06
1.18498e-06
1.36801e-06
1.38263e-06
1.15656e-06
1.17885e-06
1.18151e-06
1.39245e-06
1.3762e-06
1.3972e-06
1.17118e-06
1.16969e-06
1.19267e-06
1.18625e-06
1.37504e-06
1.3881e-06
1.1728e-06
1.17799e-06
1.19451e-06
1.18545e-06
1.18644e-06
1.18498e-06
1.18781e-06
1.3863e-06
1.38515e-06
1.18688e-06
1.18509e-06
1.1922e-06
1.39464e-06
1.4024e-06
1.403e-06
1.19905e-06
1.1952e-06
1.20583e-06
1.20792e-06
1.39578e-06
1.40568e-06
1.19905e-06
1.1863e-06
1.20264e-06
1.19457e-06
1.18812e-06
1.20517e-06
1.18986e-06
1.38618e-06
1.38457e-06
1.19203e-06
1.18538e-06
1.18897e-06
1.38357e-06
1.40402e-06
1.40236e-06
1.20576e-06
1.20801e-06
1.206e-06
1.20756e-06
1.40686e-06
1.40215e-06
1.2027e-06
1.20123e-06
1.2059e-06
1.21794e-06
1.19175e-06
1.20623e-06
1.20641e-06
1.38951e-06
1.41197e-06
1.18893e-06
1.20915e-06
1.19812e-06
1.39919e-06
1.4073e-06
1.42679e-06
1.20793e-06
1.20854e-06
1.22916e-06
1.22682e-06
1.40596e-06
1.42748e-06
1.2118e-06
1.22012e-06
1.23024e-06
1.224e-06
1.21273e-06
1.22704e-06
1.23343e-06
1.41722e-06
1.42787e-06
1.20864e-06
1.23399e-06
1.24378e-06
1.44098e-06
1.43074e-06
1.43735e-06
1.23297e-06
1.23315e-06
1.24132e-06
1.24974e-06
1.43381e-06
1.44908e-06
1.23243e-06
1.22823e-06
1.23955e-06
1.2482e-06
1.24111e-06
1.25169e-06
1.25572e-06
1.43334e-06
1.44931e-06
1.25201e-06
1.25372e-06
1.25942e-06
1.46091e-06
1.44284e-06
1.45472e-06
1.24744e-06
1.25348e-06
1.25976e-06
1.2553e-06
1.45297e-06
1.44716e-06
1.24626e-06
1.25284e-06
1.2594e-06
1.25566e-06
1.25625e-06
1.25569e-06
1.2511e-06
1.45244e-06
1.44432e-06
1.2589e-06
1.25087e-06
1.24478e-06
1.43485e-06
1.45636e-06
1.44838e-06
1.26e-06
1.2542e-06
1.25743e-06
1.25125e-06
1.44754e-06
1.43706e-06
1.2597e-06
1.255e-06
1.25777e-06
1.25339e-06
1.2467e-06
1.24945e-06
1.24143e-06
1.4449e-06
1.43919e-06
1.23877e-06
1.24557e-06
1.2331e-06
1.41844e-06
1.44981e-06
1.45878e-06
1.25716e-06
1.25151e-06
1.26285e-06
1.26535e-06
1.43982e-06
1.46212e-06
1.2577e-06
1.25383e-06
1.26446e-06
1.26781e-06
1.24181e-06
1.26302e-06
1.26247e-06
1.44298e-06
1.46651e-06
1.23385e-06
1.26594e-06
1.26218e-06
1.46013e-06
1.46367e-06
1.47449e-06
1.26785e-06
1.27306e-06
1.28129e-06
1.29029e-06
1.47098e-06
1.49151e-06
1.26815e-06
1.27375e-06
1.27726e-06
1.28492e-06
1.27663e-06
1.2949e-06
1.30364e-06
1.47445e-06
1.4875e-06
1.27793e-06
1.29309e-06
1.30404e-06
1.50916e-06
1.47912e-06
1.49105e-06
1.28546e-06
1.29257e-06
1.29492e-06
1.29259e-06
1.49468e-06
1.48682e-06
1.28144e-06
1.28662e-06
1.29585e-06
1.28967e-06
1.30541e-06
1.29536e-06
1.30095e-06
1.48953e-06
1.48297e-06
1.30523e-06
1.29206e-06
1.29905e-06
1.49529e-06
1.49486e-06
1.49851e-06
1.29672e-06
1.29156e-06
1.29891e-06
1.29079e-06
1.48749e-06
1.48023e-06
1.29962e-06
1.29063e-06
1.30345e-06
1.29346e-06
1.29495e-06
1.28868e-06
1.28174e-06
1.48413e-06
1.48321e-06
1.29305e-06
1.28913e-06
1.28293e-06
1.47055e-06
1.50018e-06
1.48816e-06
1.29885e-06
1.29119e-06
1.29612e-06
1.29685e-06
1.48229e-06
1.48862e-06
1.30326e-06
1.29482e-06
1.29569e-06
1.2986e-06
1.28099e-06
1.2912e-06
1.28474e-06
1.48608e-06
1.49168e-06
1.28281e-06
1.29656e-06
1.2905e-06
1.4804e-06
1.48824e-06
1.47605e-06
1.29435e-06
1.29874e-06
1.29182e-06
1.30071e-06
1.49208e-06
1.49716e-06
1.29154e-06
1.29869e-06
1.28644e-06
1.29836e-06
1.2898e-06
1.30201e-06
1.30488e-06
1.4943e-06
1.49627e-06
1.29612e-06
1.30196e-06
1.30633e-06
1.50195e-06
1.47849e-06
1.50654e-06
1.29206e-06
1.30071e-06
1.30702e-06
1.30258e-06
1.49967e-06
1.50257e-06
1.28675e-06
1.29908e-06
1.30628e-06
1.31457e-06
1.30767e-06
1.30733e-06
1.31193e-06
1.49999e-06
1.51792e-06
1.30704e-06
1.31439e-06
1.3089e-06
1.50952e-06
1.51682e-06
1.53561e-06
1.3152e-06
1.30632e-06
1.3286e-06
1.32478e-06
1.50633e-06
1.52431e-06
1.31672e-06
1.31959e-06
1.33122e-06
1.32305e-06
1.31434e-06
1.32277e-06
1.32244e-06
1.52302e-06
1.52031e-06
1.31201e-06
1.31975e-06
1.32226e-06
1.52424e-06
1.53759e-06
1.51488e-06
1.3289e-06
1.32816e-06
1.32114e-06
1.32769e-06
1.52959e-06
1.52695e-06
1.33127e-06
1.32188e-06
1.31951e-06
1.3074e-06
1.32299e-06
1.32604e-06
1.31867e-06
1.52042e-06
1.49438e-06
1.32264e-06
1.30698e-06
1.31624e-06
1.51253e-06
1.51342e-06
1.49388e-06
1.31457e-06
1.32324e-06
1.30364e-06
1.30124e-06
1.5266e-06
1.49161e-06
1.31184e-06
1.3043e-06
1.30122e-06
1.30402e-06
1.31279e-06
1.30177e-06
1.30245e-06
1.49499e-06
1.50359e-06
1.31074e-06
1.30773e-06
1.30389e-06
1.49417e-06
1.496e-06
1.51976e-06
1.30352e-06
1.29905e-06
1.31496e-06
1.3045e-06
1.49214e-06
1.50433e-06
1.30128e-06
1.30775e-06
1.31536e-06
1.32627e-06
1.30239e-06
1.30413e-06
1.31586e-06
1.51264e-06
1.53616e-06
1.30417e-06
1.32844e-06
1.32069e-06
1.52405e-06
1.52832e-06
1.53678e-06
1.32333e-06
1.31602e-06
1.33319e-06
1.33801e-06
1.5163e-06
1.54667e-06
1.32304e-06
1.32813e-06
1.33089e-06
1.32604e-06
1.32481e-06
1.33751e-06
1.33446e-06
1.53883e-06
1.52476e-06
1.3273e-06
1.325e-06
1.33229e-06
1.53973e-06
1.53773e-06
1.52304e-06
1.33293e-06
1.33827e-06
1.32327e-06
1.32589e-06
1.54886e-06
1.5252e-06
1.33053e-06
1.32306e-06
1.3223e-06
1.31767e-06
1.33402e-06
1.32563e-06
1.32142e-06
1.5249e-06
1.5146e-06
1.33136e-06
1.3167e-06
1.31958e-06
1.51928e-06
1.5238e-06
1.51942e-06
1.31964e-06
1.31935e-06
1.31521e-06
1.31227e-06
1.52436e-06
1.51131e-06
1.31975e-06
1.3174e-06
1.31712e-06
1.32008e-06
1.317e-06
1.31163e-06
1.31275e-06
1.51681e-06
1.52591e-06
1.31645e-06
1.31864e-06
1.31388e-06
1.51451e-06
1.52204e-06
1.52575e-06
1.31523e-06
1.31252e-06
1.31979e-06
1.32136e-06
1.51428e-06
1.52793e-06
1.31727e-06
1.32224e-06
1.32076e-06
1.32379e-06
1.31306e-06
1.32157e-06
1.32144e-06
1.52982e-06
1.53065e-06
1.31437e-06
1.32311e-06
1.32177e-06
1.52722e-06
1.52775e-06
1.5242e-06
1.32116e-06
1.32327e-06
1.32133e-06
1.32238e-06
1.53166e-06
1.52841e-06
1.3209e-06
1.32334e-06
1.31845e-06
1.31819e-06
1.32306e-06
1.323e-06
1.32259e-06
1.53172e-06
1.52316e-06
1.32244e-06
1.31896e-06
1.3208e-06
1.52668e-06
1.52551e-06
1.52471e-06
1.32026e-06
1.32031e-06
1.31721e-06
1.31747e-06
1.52945e-06
1.52616e-06
1.31719e-06
1.31686e-06
1.3159e-06
1.31571e-06
1.32199e-06
1.3191e-06
1.32334e-06
1.5244e-06
1.52493e-06
1.32033e-06
1.31772e-06
1.32253e-06
1.53461e-06
1.52715e-06
1.52769e-06
1.31696e-06
1.31742e-06
1.31653e-06
1.31653e-06
1.5287e-06
1.5265e-06
1.31625e-06
1.31594e-06
1.31765e-06
1.31627e-06
1.32354e-06
1.31772e-06
1.32003e-06
1.52748e-06
1.52466e-06
1.32313e-06
1.31681e-06
1.32011e-06
1.52986e-06
1.52904e-06
1.52342e-06
1.3159e-06
1.3148e-06
1.3114e-06
1.30535e-06
1.52718e-06
1.51003e-06
1.31735e-06
1.31548e-06
1.31297e-06
1.31211e-06
1.31452e-06
1.30269e-06
1.30057e-06
1.52564e-06
1.52075e-06
1.31479e-06
1.31015e-06
1.30254e-06
1.50592e-06
1.52484e-06
1.52468e-06
1.31038e-06
1.3045e-06
1.30987e-06
1.30911e-06
1.51121e-06
1.52532e-06
1.31182e-06
1.312e-06
1.30937e-06
1.31233e-06
1.29987e-06
1.30767e-06
1.30751e-06
1.52375e-06
1.53035e-06
1.30212e-06
1.3134e-06
1.30987e-06
1.52533e-06
1.52652e-06
1.52171e-06
1.31041e-06
1.31546e-06
1.31029e-06
1.32102e-06
1.53424e-06
1.54544e-06
1.30893e-06
1.31215e-06
1.30595e-06
1.30772e-06
1.31548e-06
1.3228e-06
1.32229e-06
1.53256e-06
1.52424e-06
1.31602e-06
1.31177e-06
1.31999e-06
1.54397e-06
1.5229e-06
1.51287e-06
1.30944e-06
1.32005e-06
1.3006e-06
1.29564e-06
1.54636e-06
1.50204e-06
1.30518e-06
1.30616e-06
1.30014e-06
1.29836e-06
1.32108e-06
1.29431e-06
1.29256e-06
1.52495e-06
1.50802e-06
1.31831e-06
1.2959e-06
1.29109e-06
1.49771e-06
1.51324e-06
1.49576e-06
1.29479e-06
1.28487e-06
1.27992e-06
1.27131e-06
1.49878e-06
1.47472e-06
1.29666e-06
1.29429e-06
1.28396e-06
1.28154e-06
1.28129e-06
1.26988e-06
1.27004e-06
1.50808e-06
1.49113e-06
1.28131e-06
1.27795e-06
1.27121e-06
1.47384e-06
1.49704e-06
1.51504e-06
1.27909e-06
1.27169e-06
1.2885e-06
1.29703e-06
1.47838e-06
1.52927e-06
1.28264e-06
1.28043e-06
1.28785e-06
1.28775e-06
1.2711e-06
1.30025e-06
1.30485e-06
1.49256e-06
1.51604e-06
1.27209e-06
1.2912e-06
1.30399e-06
1.53839e-06
1.52563e-06
1.53737e-06
1.29897e-06
1.30782e-06
1.30798e-06
1.31371e-06
1.54193e-06
1.54732e-06
1.29664e-06
1.29874e-06
1.30469e-06
1.30967e-06
1.31504e-06
1.31435e-06
1.31782e-06
1.52837e-06
1.54612e-06
1.31453e-06
1.31368e-06
1.31834e-06
1.55422e-06
1.53749e-06
1.47155e-06
1.30635e-06
1.31031e-06
1.26635e-06
1.26495e-06
1.54563e-06
1.47146e-06
1.30311e-06
1.30837e-06
1.26405e-06
1.26626e-06
1.31141e-06
1.26167e-06
1.25622e-06
1.54664e-06
1.47352e-06
1.31275e-06
1.26511e-06
1.25609e-06
1.45905e-06
1.46838e-06
1.456e-06
1.25351e-06
1.25285e-06
1.24216e-06
1.2418e-06
1.46878e-06
1.45678e-06
1.25207e-06
1.25142e-06
1.2428e-06
1.23834e-06
1.24499e-06
1.24183e-06
1.2383e-06
1.46853e-06
1.44723e-06
1.2437e-06
1.2361e-06
1.23613e-06
1.44812e-06
1.46415e-06
1.49725e-06
1.24413e-06
1.24323e-06
1.25479e-06
1.24796e-06
1.46313e-06
1.48343e-06
1.24553e-06
1.24054e-06
1.25888e-06
1.256e-06
1.24182e-06
1.24936e-06
1.25683e-06
1.45415e-06
1.49465e-06
1.23987e-06
1.25471e-06
1.25807e-06
1.49712e-06
1.48216e-06
1.22389e-06
1.21748e-06
1.46857e-06
1.22691e-06
1.22611e-06
7.64212e-07
7.69203e-07
7.70599e-07
1.22559e-06
1.4814e-06
1.22742e-06
8.48943e-11
2.86515e-09
1.271e-10
1.96971e-10
5.66783e-09
3.42003e-09
2.81774e-09
9.55892e-10
5.50287e-09
4.2477e-09
1.07898e-09
1.2362e-08
5.5638e-09
8.29153e-09
5.10752e-08
7.35645e-09
1.73377e-07
5.9738e-09
2.58938e-07
1.56159e-06
3.12462e-06
8.68698e-09
1.80616e-07
7.38145e-09
2.83997e-07
1.29013e-09
1.43385e-09
1.74751e-09
1.56232e-09
1.27861e-09
1.42339e-09
1.64208e-09
4.90329e-09
7.42181e-08
2.69792e-09
3.25336e-09
5.16343e-09
5.31764e-08
2.67044e-09
1.64168e-06
3.21075e-06
4.74017e-09
3.37309e-09
8.50895e-08
4.80505e-09
5.01408e-09
3.34509e-09
6.30763e-08
2.14226e-07
2.49335e-07
5.1536e-09
1.82786e-07
2.28213e-07
1.67294e-08
4.8431e-07
1.21146e-08
7.01348e-07
6.93824e-06
9.90155e-06
1.79971e-08
5.07665e-07
1.33688e-08
7.24588e-07
1.26506e-09
1.40453e-09
1.5719e-09
1.43917e-09
1.22726e-09
1.34389e-09
1.44643e-09
4.33722e-09