/*--------------------------------*- C++ -*----------------------------------*\
| =========                 |                                                 |
| \\      /  F ield         | OpenFOAM: The Open Source CFD Toolbox           |
|  \\    /   O peration     | Version:  v2012                                 |
|   \\  /    A nd           | Website:  www.openfoam.com                      |
|    \\/     M anipulation  |                                                 |
\*---------------------------------------------------------------------------*/
FoamFile
{
    version     2.0;
    format      ascii;
    class       volScalarField;
    location    "1337.5";
    object      nut;
}
// * * * * * * * * * * * * * * * * * * * * * * * * * * * * * * * * * * * * * //

dimensions      [0 2 -1 0 0 0 0];


internalField   nonuniform List<scalar> 
171728
(
1.6634e-06
1.80398e-06
1.70343e-06
2.11334e-06
1.69089e-06
1.76711e-06
1.69924e-06
2.17019e-06
1.71658e-06
1.74506e-06
1.70183e-06
2.17162e-06
1.75386e-06
1.73249e-06
1.73521e-06
2.05649e-06
1.75029e-06
1.72407e-06
1.79156e-06
2.03015e-06
1.76386e-06
1.71263e-06
1.88914e-06
2.00838e-06
1.81207e-06
1.68849e-06
2.03158e-06
1.92568e-06
1.81479e-06
1.65297e-06
2.28806e-06
1.79083e-06
1.75352e-06
1.61051e-06
2.69873e-06
1.65075e-06
1.64916e-06
1.54781e-06
3.16478e-06
1.53208e-06
1.58095e-06
1.44933e-06
3.49207e-06
1.51361e-06
1.50703e-06
1.3138e-06
3.16602e-06
1.74986e-06
1.50367e-06
1.15391e-06
2.01787e-06
2.2185e-06
1.55436e-06
9.52509e-07
1.18647e-06
2.59357e-06
1.57291e-06
8.35435e-07
8.27289e-07
2.47585e-06
1.51844e-06
7.79019e-07
7.22185e-07
1.50701e-06
1.45955e-06
7.9098e-07
7.32518e-07
1.19522e-06
1.44664e-06
8.22833e-07
7.77719e-07
1.16868e-06
1.43379e-06
9.29061e-07
8.55473e-07
1.15408e-06
1.41321e-06
1.0359e-06
9.26837e-07
1.25323e-06
1.37026e-06
1.23726e-06
1.18835e-06
1.62802e-06
1.32867e-06
1.51537e-06
1.45453e-06
2.26697e-06
1.24258e-06
2.13637e-06
2.04668e-06
3.48626e-06
1.17717e-06
2.69069e-06
2.85578e-06
5.55371e-06
1.09367e-06
4.0041e-06
3.7517e-06
8.13045e-06
9.83879e-07
5.02015e-06
5.83689e-06
1.24812e-05
9.30788e-07
7.22331e-06
7.12242e-06
1.77524e-05
8.72138e-07
8.18644e-06
9.03024e-06
2.32074e-05
9.30947e-07
1.38965e-05
1.17604e-05
3.15318e-05
9.25649e-07
1.37223e-05
1.61413e-05
4.16525e-05
1.07295e-06
1.62672e-05
1.61255e-05
3.78942e-05
1.2945e-06
2.43641e-05
2.29989e-05
5.54594e-05
1.53098e-06
2.52913e-05
2.50733e-05
5.93933e-05
2.02224e-06
3.1699e-05
3.21272e-05
6.3965e-05
2.74373e-06
3.69843e-05
3.60678e-05
6.87654e-05
2.63828e-06
3.71457e-05
3.98912e-05
7.56175e-05
4.79235e-06
4.98376e-05
4.90468e-05
7.83902e-05
5.91731e-06
5.23377e-05
5.13463e-05
8.21199e-05
6.17993e-06
5.74058e-05
5.83215e-05
8.98763e-05
9.02298e-06
6.62418e-05
6.60501e-05
9.11644e-05
1.12937e-05
6.91584e-05
7.10425e-05
9.42547e-05
1.3067e-05
7.67044e-05
7.46679e-05
9.9801e-05
1.66085e-05
8.351e-05
8.6422e-05
0.000104099
2.19742e-05
8.90521e-05
8.85677e-05
0.000106359
2.17105e-05
9.46443e-05
9.12429e-05
0.000109706
3.01586e-05
9.88481e-05
0.00010573
0.000115922
3.36713e-05
0.00010778
0.000106259
0.000119221
3.64192e-05
0.00011075
0.000104653
0.000119246
4.69038e-05
0.000113897
0.000118273
0.000123169
4.97811e-05
0.000122821
0.000122137
0.000131989
5.86671e-05
0.000128091
0.000127807
0.000133896
6.67565e-05
0.000127078
0.000127434
0.000134284
6.90701e-05
0.00013617
0.000136725
0.000137483
7.82944e-05
0.000141969
0.00014165
0.000138884
8.75998e-05
0.000141117
0.000140627
0.000145484
8.86282e-05
0.000148211
0.000147658
0.000151059
0.000102093
0.00015348
0.00015553
0.000150683
0.000108976
0.000153293
0.000155092
0.000148769
0.000110501
0.000160251
0.000157536
0.000154956
0.000119073
0.000164415
0.000166647
0.000161792
0.000126059
0.000165868
0.000168344
0.000162751
0.000137083
0.000172103
0.000166789
0.000160627
0.000139357
0.000172389
0.000171153
0.000162342
0.000142543
0.000175989
0.000178953
0.000170155
0.000149121
0.000183487
0.000184859
0.000175178
0.000159576
0.000185757
0.000184897
0.000172551
0.00016531
0.000183673
0.000182561
0.000167884
0.000164318
0.000185039
0.000186974
0.000173253
0.000170551
0.000196254
0.000196494
0.000184862
0.000179429
0.000198755
0.000197902
0.00018523
0.000190108
0.000196569
0.000196553
0.000179328
0.000192141
0.000196131
0.000198311
0.000179689
0.000189121
0.000201566
0.000201847
0.000185661
0.000191897
0.000204671
0.000206712
0.00018761
0.000207884
0.000209361
0.00020927
0.000190888
0.000213301
0.000212173
0.000206581
0.000190871
0.000210713
0.000208252
0.00020634
0.000187195
0.000208292
0.000206252
0.000215668
0.000191445
0.000219811
0.000218387
0.000217338
0.000196772
0.000226302
0.00022023
0.000214977
0.000194536
0.000226282
0.000215676
0.000216545
0.000193057
0.000227283
0.000218255
0.000220343
0.000196373
0.000231047
0.000221686
0.000220487
0.000197351
0.000233298
0.000222526
0.000220989
0.000199581
0.000237227
0.000223587
0.000223256
0.000200706
0.000239839
0.00022134
0.000223335
0.000196275
0.000240487
0.000222303
0.000225758
0.000198528
0.000243374
0.000230075
0.000227451
0.000204441
0.000245362
0.000227484
0.000225148
0.000199531
0.000243562
0.00021897
0.000221564
0.000192889
0.000242951
0.000227155
0.000225745
0.000203311
0.000253865
0.00023635
0.000235147
0.000211485
0.000255338
0.000226853
0.000228521
0.000196896
0.000242424
0.000218775
0.000217571
0.000190056
0.000247861
0.000227608
0.000228374
0.00020748
2.33461e-06
2.57046e-06
1.3632e-06
2.00539e-06
2.34601e-06
2.06416e-06
1.65566e-06
1.38598e-06
1.54957e-06
1.65535e-06
1.94971e-06
2.03792e-06
2.25028e-06
1.80673e-06
4.32665e-06
2.12313e-06
2.32774e-06
2.30345e-06
2.18605e-06
1.29916e-06
2.25311e-06
1.27088e-06
1.99542e-06
1.84407e-06
2.11666e-06
2.22812e-06
2.14252e-06
2.19076e-06
2.08741e-06
1.77401e-06
2.18802e-06
2.23543e-06
2.18894e-06
5.15768e-06
1.70134e-06
4.71807e-06
2.16205e-06
2.29731e-06
2.27016e-06
2.28666e-06
1.26689e-06
2.4093e-06
1.2551e-06
1.83673e-06
1.76191e-06
2.15087e-06
2.17494e-06
2.18997e-06
2.14554e-06
2.24335e-06
1.7496e-06
2.47028e-06
2.17929e-06
2.10558e-06
4.14329e-06
1.69979e-06
2.39027e-06
2.19579e-06
2.26484e-06
2.27433e-06
2.45077e-06
1.25221e-06
2.59887e-06
1.24212e-06
1.7548e-06
1.71283e-06
2.2077e-06
2.1428e-06
2.30327e-06
2.24339e-06
2.52919e-06
1.73416e-06
2.83151e-06
2.08684e-06
2.00199e-06
2.03427e-06
1.72369e-06
1.54473e-06
2.07258e-06
2.27646e-06
2.32161e-06
2.65579e-06
1.23999e-06
2.8339e-06
1.24349e-06
1.69728e-06
1.6597e-06
2.34222e-06
2.30204e-06
2.48629e-06
2.61792e-06
2.99268e-06
1.72659e-06
3.52728e-06
1.9899e-06
1.99955e-06
1.49005e-06
1.77485e-06
1.41899e-06
2.0394e-06
2.32869e-06
2.44745e-06
2.9204e-06
1.2471e-06
3.2589e-06
1.26273e-06
1.64206e-06
1.62988e-06
2.54221e-06
2.76342e-06
2.75552e-06
3.25882e-06
3.69383e-06
1.71599e-06
4.01601e-06
1.99763e-06
2.06335e-06
1.40308e-06
1.86194e-06
1.35333e-06
2.03132e-06
2.47832e-06
2.72266e-06
3.40883e-06
1.27093e-06
4.14055e-06
1.36339e-06
1.61893e-06
1.627e-06
2.85017e-06
3.3852e-06
3.24149e-06
3.10717e-06
3.86768e-06
1.69581e-06
3.3338e-06
2.04253e-06
2.02489e-06
1.33373e-06
1.98865e-06
1.26672e-06
1.94065e-06
2.72425e-06
2.94506e-06
4.43325e-06
1.41357e-06
5.02967e-06
1.59885e-06
1.62661e-06
1.695e-06
3.40488e-06
2.90683e-06
3.88979e-06
2.15857e-06
3.12628e-06
1.66225e-06
2.52268e-06
2.01187e-06
2.0188e-06
1.24447e-06
2.20546e-06
1.18836e-06
1.80567e-06
2.92605e-06
2.93134e-06
5.03906e-06
1.65926e-06
4.37655e-06
1.78569e-06
1.6979e-06
1.72191e-06
4.03056e-06
1.92159e-06
4.36245e-06
1.39871e-06
2.32616e-06
1.62143e-06
1.76368e-06
2.00849e-06
1.94929e-06
1.17655e-06
2.58985e-06
1.15016e-06
1.66183e-06
2.84105e-06
2.56544e-06
3.92898e-06
1.80815e-06
2.57073e-06
1.79227e-06
1.71476e-06
1.63058e-06
4.44374e-06
1.28319e-06
4.60289e-06
1.06747e-06
1.63285e-06
1.56642e-06
1.32554e-06
1.94133e-06
1.89474e-06
1.14061e-06
3.04742e-06
1.15624e-06
1.53908e-06
2.50024e-06
1.91577e-06
2.18227e-06
1.671e-06
1.32962e-06
1.35449e-06
1.61564e-06
1.47583e-06
4.58876e-06
1.02015e-06
3.97965e-06
9.16155e-07
1.24842e-06
1.47858e-06
1.13336e-06
1.88739e-06
1.84197e-06
1.19597e-06
3.43723e-06
1.34609e-06
1.50905e-06
1.86168e-06
1.47591e-06
1.17784e-06
1.27589e-06
9.35013e-07
1.15056e-06
1.46011e-06
1.36469e-06
3.68853e-06
8.94022e-07
2.82071e-06
8.51099e-07
1.11804e-06
1.3472e-06
1.07115e-06
1.82975e-06
1.5915e-06
1.41809e-06
3.43784e-06
1.84202e-06
1.69151e-06
1.45435e-06
1.39109e-06
8.80705e-07
1.13603e-06
7.86526e-07
1.10623e-06
1.35256e-06
1.29865e-06
2.58374e-06
8.4192e-07
2.13511e-06
8.24752e-07
1.05411e-06
1.19628e-06
1.00325e-06
1.55593e-06
1.33999e-06
2.10564e-06
2.29293e-06
3.38033e-06
2.14911e-06
1.38485e-06
1.371e-06
7.74296e-07
1.10768e-06
7.25052e-07
1.24995e-06
1.29173e-06
1.29134e-06
2.06656e-06
8.34516e-07
2.00942e-06
8.56914e-07
9.84901e-07
9.99188e-07
9.32611e-07
1.32632e-06
1.19809e-06
3.92106e-06
1.34343e-06
5.38673e-06
2.57154e-06
1.36506e-06
1.35635e-06
7.21585e-07
1.31582e-06
7.16836e-07
1.54694e-06
1.28845e-06
1.30078e-06
1.99414e-06
8.56192e-07
2.06133e-06
8.40976e-07
9.17101e-07
8.52853e-07
8.56221e-07
1.17728e-06
1.06221e-06
5.69111e-06
8.87418e-07
5.93259e-06
2.52983e-06
1.34675e-06
1.31617e-06
7.1655e-07
1.63143e-06
7.19163e-07
1.90809e-06
1.29722e-06
1.315e-06
2.05917e-06
8.29977e-07
2.00063e-06
7.82626e-07
8.44126e-07
7.83066e-07
7.90911e-07
1.04504e-06
9.8307e-07
5.91522e-06
7.50433e-07
4.22075e-06
1.58241e-06
1.29595e-06
1.22648e-06
7.2277e-07
2.00383e-06
7.44173e-07
2.26695e-06
1.31483e-06
1.33095e-06
1.93596e-06
7.73477e-07
1.55516e-06
7.23643e-07
7.77607e-07
7.80632e-07
7.65958e-07
9.68835e-07
9.29626e-07
3.57375e-06
7.21841e-07
2.23491e-06
1.22667e-06
1.20138e-06
1.11185e-06
7.51846e-07
2.31896e-06
7.87453e-07
2.39849e-06
1.32564e-06
1.3276e-06
1.42821e-06
7.11879e-07
1.13443e-06
7.15154e-07
7.71175e-07
8.18064e-07
7.98685e-07
9.16052e-07
9.03736e-07
1.96984e-06
7.71881e-07
1.58333e-06
1.1773e-06
1.10083e-06
1.10206e-06
7.98695e-07
2.38756e-06
8.51653e-07
2.31877e-06
1.30515e-06
1.37106e-06
1.07886e-06
7.00736e-07
1.00479e-06
7.63399e-07
8.09487e-07
9.15162e-07
8.53003e-07
9.08497e-07
9.34669e-07
1.52487e-06
8.1434e-07
1.48644e-06
1.14186e-06
1.1054e-06
1.18899e-06
8.69162e-07
2.32188e-06
9.58117e-07
2.24266e-06
1.38914e-06
1.3298e-06
9.96385e-07
7.98562e-07
1.05489e-06
8.51994e-07
8.7988e-07
9.51164e-07
9.67477e-07
9.72753e-07
1.08939e-06
1.47431e-06
8.98324e-07
1.39371e-06
1.23143e-06
1.23838e-06
1.45365e-06
1.00043e-06
2.1957e-06
1.12165e-06
2.48293e-06
1.35976e-06
1.94012e-06
1.07989e-06
9.3578e-07
1.15737e-06
1.30562e-06
9.99589e-07
1.20091e-06
1.1541e-06
1.10001e-06
1.58794e-06
1.3598e-06
1.10459e-06
1.38936e-06
1.51589e-06
1.53487e-06
2.14606e-06
1.17768e-06
2.50701e-06
1.46361e-06
2.44462e-06
1.97642e-06
2.10941e-06
1.21247e-06
1.46549e-06
1.49589e-06
1.74653e-06
1.23162e-06
1.41007e-06
1.42118e-06
1.7851e-06
2.0368e-06
1.44983e-06
1.36931e-06
1.60639e-06
2.14574e-06
2.34526e-06
2.97888e-06
1.54597e-06
2.51977e-06
1.87382e-06
2.72524e-06
2.29715e-06
3.55694e-06
1.5533e-06
1.86369e-06
1.81454e-06
2.57987e-06
1.52155e-06
1.94422e-06
1.91472e-06
2.14079e-06
3.31811e-06
1.68938e-06
1.91622e-06
2.03643e-06
3.23227e-06
3.30213e-06
5.08129e-06
2.07545e-06
2.89151e-06
2.57552e-06
3.18829e-06
3.94394e-06
4.98672e-06
2.04124e-06
2.87385e-06
2.58254e-06
4.09963e-06
2.01417e-06
2.57355e-06
2.62374e-06
3.63091e-06
5.25622e-06
2.13177e-06
2.52427e-06
2.71422e-06
4.96896e-06
5.36728e-06
7.74834e-06
2.75911e-06
3.1643e-06
3.58851e-06
3.80483e-06
5.07692e-06
7.76164e-06
2.71545e-06
4.4509e-06
3.64253e-06
4.94345e-06
2.93817e-06
3.54303e-06
3.41925e-06
5.85283e-06
8.23628e-06
3.01441e-06
3.6866e-06
3.52352e-06
7.75689e-06
8.54294e-06
1.12477e-05
3.89027e-06
4.16561e-06
4.72797e-06
5.19231e-06
8.9492e-06
1.20149e-05
3.99065e-06
4.96136e-06
4.60793e-06
6.23224e-06
3.57348e-06
4.95662e-06
4.96337e-06
8.39005e-06
1.25574e-05
3.63726e-06
4.88803e-06
5.00359e-06
1.13177e-05
1.18005e-05
1.65547e-05
5.0817e-06
5.74738e-06
6.64865e-06
7.66148e-06
1.21985e-05
1.58635e-05
4.95681e-06
7.06351e-06
6.581e-06
7.5484e-06
5.23541e-06
6.49992e-06
6.54552e-06
1.53729e-05
1.84496e-05
5.31732e-06
7.09914e-06
6.58178e-06
1.68363e-05
1.8104e-05
2.2507e-05
7.28378e-06
8.07005e-06
8.18343e-06
8.49539e-06
1.77567e-05
2.13685e-05
7.09993e-06
7.40806e-06
8.10552e-06
7.13618e-06
7.2467e-06
7.98685e-06
8.55521e-06
1.79437e-05
1.79356e-05
7.23647e-06
7.75234e-06
8.56225e-06
2.27781e-05
2.30292e-05
2.9164e-05
8.2971e-06
8.92496e-06
1.14378e-05
1.59758e-05
2.1533e-05
3.90652e-05
8.50394e-06
8.35144e-06
1.11598e-05
1.32367e-05
8.62015e-06
1.31171e-05
1.07586e-05
2.13464e-05
3.18954e-05
8.63309e-06
1.05318e-05
1.07341e-05
2.73643e-05
3.13909e-05
3.75655e-05
1.2654e-05
1.64903e-05
1.42284e-05
1.34799e-05
4.08809e-05
3.28753e-05
1.22811e-05
1.50248e-05
1.3863e-05
1.76122e-05
1.26584e-05
1.38431e-05
1.54388e-05
3.284e-05
4.19546e-05
1.25885e-05
1.55779e-05
1.55055e-05
4.16166e-05
3.8085e-05
4.15514e-05
1.42445e-05
1.24739e-05
1.56334e-05
1.23835e-05
3.17529e-05
3.56341e-05
1.39483e-05
1.76136e-05
1.69463e-05
1.6994e-05
1.55635e-05
1.36334e-05
1.52717e-05
4.2692e-05
4.06258e-05
1.56746e-05
1.63004e-05
1.54446e-05
3.77801e-05
4.36599e-05
5.20845e-05
1.76205e-05
1.68498e-05
2.17972e-05
2.73407e-05
4.09569e-05
5.71789e-05
1.80348e-05
1.66827e-05
2.04239e-05
1.95254e-05
1.50154e-05
2.32353e-05
2.21477e-05
4.02767e-05
5.14985e-05
1.52077e-05
2.17785e-05
2.1664e-05
5.23427e-05
5.3364e-05
5.63288e-05
2.29304e-05
2.82518e-05
2.50077e-05
2.84031e-05
5.79322e-05
5.72773e-05
2.18247e-05
2.20087e-05
2.5342e-05
2.59288e-05
2.3655e-05
2.53995e-05
2.5459e-05
5.46322e-05
5.73122e-05
2.32233e-05
2.41125e-05
2.54681e-05
5.88623e-05
5.73119e-05
6.31636e-05
2.52657e-05
2.82206e-05
2.93423e-05
2.74868e-05
5.74038e-05
6.13873e-05
2.5694e-05
2.67952e-05
2.9249e-05
3.1454e-05
2.62465e-05
2.86457e-05
2.95133e-05
5.78064e-05
6.30461e-05
2.64515e-05
3.02405e-05
2.97847e-05
6.24442e-05
6.49367e-05
6.93327e-05
3.16827e-05
3.03431e-05
3.65175e-05
3.65333e-05
6.39248e-05
7.01351e-05
3.14976e-05
3.31259e-05
3.64405e-05
3.62181e-05
3.11235e-05
3.66199e-05
3.43756e-05
6.51696e-05
6.94699e-05
3.10793e-05
3.5807e-05
3.42778e-05
6.78953e-05
6.98662e-05
7.05624e-05
3.69851e-05
3.71414e-05
3.67875e-05
3.70029e-05
7.04946e-05
7.05745e-05
3.69984e-05
3.6609e-05
3.68902e-05
3.79131e-05
3.4883e-05
3.6612e-05
3.98504e-05
6.99462e-05
7.14999e-05
3.49488e-05
3.79044e-05
4.00707e-05
7.40694e-05
7.13074e-05
7.96144e-05
3.71863e-05
3.74845e-05
4.65615e-05
4.69473e-05
7.14451e-05
7.97351e-05
3.72472e-05
3.95849e-05
4.65216e-05
4.65115e-05
4.22803e-05
4.7175e-05
4.68095e-05
7.27236e-05
7.93323e-05
4.25437e-05
4.73966e-05
4.70103e-05
7.79936e-05
8.14428e-05
8.33265e-05
4.95332e-05
4.94173e-05
5.38225e-05
5.21776e-05
8.12836e-05
8.30612e-05
4.93828e-05
4.83907e-05
5.29139e-05
5.16449e-05
4.72162e-05
5.24316e-05
4.73551e-05
8.04918e-05
8.24345e-05
4.74603e-05
5.04709e-05
4.71084e-05
8.05834e-05
8.35693e-05
8.51789e-05
5.39052e-05
5.28317e-05
5.45443e-05
5.62041e-05
8.34931e-05
8.56579e-05
5.27884e-05
5.28574e-05
5.52607e-05
5.66633e-05
5.00114e-05
5.55875e-05
6.03215e-05
8.30903e-05
8.59363e-05
4.80739e-05
5.69236e-05
6.06153e-05
8.90448e-05
8.64019e-05
9.12067e-05
5.68851e-05
5.76944e-05
6.38254e-05
6.37917e-05
8.67138e-05
9.14133e-05
5.72254e-05
5.72623e-05
6.30527e-05
6.24581e-05
6.23e-05
6.40718e-05
6.36611e-05
8.68948e-05
9.12727e-05
6.36655e-05
6.37152e-05
6.6846e-05
9.08174e-05
9.21155e-05
9.48901e-05
6.53029e-05
6.59979e-05
6.92258e-05
6.89877e-05
9.23614e-05
9.41025e-05
6.48532e-05
6.57216e-05
7.06673e-05
7.2677e-05
6.36704e-05
6.90224e-05
6.76487e-05
9.26424e-05
9.53826e-05
6.70324e-05
7.0658e-05
6.59762e-05
9.31992e-05
9.56426e-05
9.7581e-05
7.09446e-05
6.9221e-05
7.50224e-05
7.40775e-05
9.45371e-05
9.79866e-05
7.23176e-05
7.35644e-05
7.34779e-05
7.35855e-05
6.99454e-05
7.38599e-05
7.5239e-05
9.5728e-05
9.72259e-05
6.68588e-05
7.25153e-05
7.46246e-05
9.89399e-05
9.81262e-05
0.000102968
7.56368e-05
7.69653e-05
8.0992e-05
8.28921e-05
9.94076e-05
0.000102997
7.38098e-05
7.34173e-05
8.15241e-05
8.17341e-05
7.70821e-05
8.28037e-05
8.26339e-05
9.83654e-05
0.00010352
7.7071e-05
8.41692e-05
8.34152e-05
0.000103276
0.000104444
0.000107015
8.39292e-05
8.35229e-05
8.96363e-05
8.64824e-05
0.000103481
0.000105833
8.4742e-05
8.38943e-05
8.96952e-05
8.5217e-05
8.42617e-05
8.68089e-05
8.75616e-05
0.000104164
0.000104793
8.51171e-05
8.85845e-05
8.78341e-05
0.000105959
0.000107176
0.000107896
8.99631e-05
8.87191e-05
9.02046e-05
9.43017e-05
0.000106925
0.000110318
8.9945e-05
8.49349e-05
8.9224e-05
9.33117e-05
8.81648e-05
9.41877e-05
9.1567e-05
0.000105061
0.000109735
8.82229e-05
8.79767e-05
9.10802e-05
0.00010868
0.000109002
0.00011529
9.22953e-05
9.4854e-05
0.00010054
9.7106e-05
0.000110688
0.000112367
9.13619e-05
9.79674e-05
0.000101531
0.000107325
9.33858e-05
9.66831e-05
9.94355e-05
0.000111529
0.000117911
9.27099e-05
0.000103729
9.98541e-05
0.000114866
0.000115903
0.000116399
0.000102378
9.92744e-05
0.000103548
0.000106229
0.000113403
0.000118864
0.000103327
0.000108058
0.00010452
0.000106927
0.000101579
0.00010634
0.000107234
0.000118287
0.000117384
0.0001025
0.000106495
0.000107455
0.000118877
0.000116521
0.000120455
0.000103609
0.00010734
0.000109125
0.000109422
0.000119459
0.000120552
0.000104155
0.000106235
0.000107629
0.000104182
0.000108311
0.000110031
0.000108904
0.0001173
0.000116958
0.000107951
0.000104561
0.000107677
0.000119288
0.000121871
0.000125352
0.000111584
0.000110382
0.000116016
0.000113308
0.000120854
0.000123352
0.000110435
0.000103517
0.000116224
0.000115628
0.000108655
0.000112941
0.00011083
0.000117812
0.000126271
0.000107384
0.000116358
0.000110815
0.000121579
0.000125611
0.000127203
0.00011651
0.000114395
0.000118646
0.00012043
0.000124059
0.000128948
0.000116995
0.000118056
0.000118832
0.000121176
0.000113333
0.000120151
0.000121297
0.000127196
0.000128566
0.00011344
0.000120583
0.000122851
0.000130919
0.000128043
0.000133022
0.000120272
0.000122895
0.000126668
0.000127308
0.000130225
0.000132849
0.000120307
0.000122496
0.000126662
0.000127444
0.000123798
0.000127724
0.000129152
0.000129203
0.000132988
0.000125468
0.00012713
0.000128745
0.000133799
0.000133738
0.000134479
0.000128256
0.000127612
0.000129662
0.000127024
0.000132895
0.000132254
0.000128292
0.000128508
0.000129783
0.000129023
0.000129892
0.000127488
0.000130064
0.00013331
0.000133302
0.000128724
0.000127742
0.000127864
0.000134126
0.000134509
0.000137146
0.000129488
0.000126883
0.000132532
0.000133243
0.000132516
0.000138395
0.000129603
0.000128844
0.000132584
0.000132051
0.000129743
0.000132936
0.000131164
0.000133314
0.00013794
0.000127611
0.000133475
0.000133666
0.000136832
0.000138165
0.000141778
0.000134326
0.000136235
0.000139286
0.000141455
0.000139929
0.000142953
0.000134264
0.000134703
0.000139245
0.000141194
0.000132607
0.000141592
0.000135956
0.000139486
0.000142803
0.000135474
0.000141525
0.000137396
0.00013854
0.000142258
0.000143562
0.000140624
0.000141863
0.000142512
0.000141504
0.00014293
0.000142001
0.000140705
0.000141998
0.000142925
0.000142179
0.000137169
0.000141597
0.000142585
0.000142815
0.000141892
0.000137155
0.00014105
0.000139758
0.000144029
0.000143753
0.000145514
0.000142564
0.000141016
0.000144353
0.000144816
0.000141982
0.000146918
0.000143042
0.000141869
0.000143711
0.000143932
0.000144942
0.000145171
0.000151295
0.000141822
0.000146652
0.000141879
0.000143602
0.000149024
0.000150649
0.000146551
0.000151528
0.000146646
0.000147535
0.000153035
0.000152857
0.000148305
0.000150804
0.000146196
0.000147519
0.000153215
0.000153902
0.000152474
0.000153086
0.000153024
0.000148633
0.000152032
0.000151338
0.000154857
0.000155048
0.000150887
0.00015184
0.000151984
0.000154129
0.000153545
0.000154884
0.000153895
0.000150909
0.000151052
0.000154415
0.000154506
0.000155274
0.000154467
0.000152538
0.000153503
0.000150867
0.000151999
0.000151055
0.000155127
0.000155373
0.000154303
0.000148982
0.000151879
0.000154464
0.000154788
0.000153862
0.00015736
0.00015814
0.000151176
0.000155536
0.000155192
0.000154075
0.00015705
0.000156616
0.000150155
0.000157845
0.000155477
0.000150944
0.000154231
0.000153904
0.000155375
0.000153257
0.000153351
0.000155191
0.000156728
0.000158839
0.000160025
0.000161309
0.000163047
0.000156494
0.000158059
0.000158552
0.000158659
0.000161008
0.00016351
0.000159349
0.00016407
0.000167039
0.000155369
0.000159694
0.000155531
0.000164898
0.000164502
0.00016116
0.000157071
0.000161547
0.000161935
0.000163262
0.000166531
0.000163854
0.000158062
0.00015922
0.000162028
0.000164887
0.000167405
0.000167299
0.000168265
0.000164441
0.000169232
0.000160189
0.000160917
0.000167091
0.000168385
0.000170586
0.000162825
0.000162537
0.000164189
0.000168609
0.000166243
0.000172251
0.000172035
0.00016021
0.000164385
0.000169121
0.000167497
0.000171584
0.000167267
0.000169132
0.000171349
0.000168364
0.000160833
0.000160054
0.000170655
0.000167137
0.000168804
0.000160757
0.00016411
0.000163515
0.000172478
0.000172677
0.000172444
0.000172957
0.000164436
0.000164028
0.000171724
0.000167842
0.000171671
0.000173088
0.000168102
0.000172506
0.000169175
0.000160078
0.000164496
0.000168088
0.000168615
0.000166921
0.000161525
0.0001635
0.000167727
0.000172282
0.00017287
0.000175064
0.000174022
0.000163817
0.000166766
0.000171549
0.000174386
0.000176359
0.000175843
0.000170711
0.000174411
0.000175851
0.000165449
0.000167717
0.000166958
0.00017703
0.000177487
0.000168858
0.000168393
0.000169368
0.000176923
0.000175863
0.000178945
0.000181284
0.000167674
0.000171913
0.000177468
0.000176081
0.000178563
0.000180754
0.000177975
0.000181687
0.000184506
0.000168094
0.000172348
0.000180862
0.000184035
0.000186786
0.00017499
0.000169756
0.000173934
0.000180246
0.000182962
0.000185219
0.000185254
0.000172654
0.000173846
0.00017972
0.000182622
0.000185126
0.000185234
0.000185689
0.000185571
0.00018648
0.000172913
0.000173303
0.000187169
0.000185414
0.000187248
0.000173466
0.00017412
0.000173892
0.000186029
0.000185376
0.000186435
0.000184247
0.000173587
0.000171542
0.000186009
0.000185333
0.000186498
0.000184809
0.000185806
0.000183931
0.000181447
0.000173018
0.00017162
0.000184589
0.000182682
0.000179333
0.000168172
0.000173767
0.000174433
0.000186218
0.000184107
0.000185804
0.000184159
0.000171312
0.000173503
0.000186396
0.000184741
0.000186262
0.000185946
0.000181104
0.000183078
0.000180329
0.000171413
0.000174633
0.000179
0.000183607
0.000178851
0.000171229
0.000174948
0.000177583
0.000186514
0.000186435
0.000190578
0.000193244
0.000174608
0.000180978
0.000187353
0.000188112
0.000189946
0.000192981
0.000183541
0.00019418
0.000196427
0.000175862
0.000180816
0.000183727
0.000195042
0.000197044
0.000183976
0.000178045
0.000181543
0.000192013
0.000194997
0.00019616
0.000197263
0.000181679
0.000182536
0.000190973
0.000194034
0.000195493
0.000195932
0.000199063
0.000198435
0.000201576
0.000181126
0.000181405
0.000199455
0.000197813
0.000201767
0.00018579
0.000182057
0.000183952
0.000197209
0.000197432
0.000199227
0.000197012
0.000182301
0.000180903
0.000197134
0.000196281
0.000200522
0.000196836
0.000202102
0.000197047
0.000196931
0.000181265
0.000180899
0.000202039
0.000196643
0.000196539
0.000179705
0.000183984
0.000184158
0.000199487
0.000196925
0.000199829
0.000197175
0.000180717
0.00018173
0.000200835
0.000197105
0.000201343
0.000199032
0.000195501
0.000196066
0.00019409
0.000180897
0.000182758
0.000195585
0.000196774
0.000194374
0.000179225
0.00018375
0.000181315
0.000199719
0.000198452
0.000198827
0.000201248
0.000182136
0.000184693
0.000200347
0.000199636
0.000197606
0.000200303
0.000193696
0.000200167
0.000199383
0.000183182
0.000184293
0.00019474
0.00020121
0.000201056
0.000184987
0.000181061
0.000184184
0.000198757
0.000201698
0.000199792
0.000202412
0.000184976
0.00018603
0.00019744
0.000200579
0.000198376
0.000204179
0.000201547
0.000204213
0.000205523
0.000184313
0.000188153
0.00020251
0.000205183
0.000204578
0.000187497
0.000185753
0.000192763
0.000202728
0.000202837
0.000210355
0.00020765
0.000186054
0.000189669
0.000202283
0.000206264
0.000211353
0.000209906
0.000206323
0.00020772
0.000209282
0.000189003
0.000191322
0.000205408
0.000209112
0.000209059
0.00019061
0.000193066
0.000192866
0.000211604
0.000209649
0.000212942
0.000212155
0.000190519
0.000193122
0.000212497
0.000210103
0.000213981
0.000208703
0.000210063
0.000211727
0.000210925
0.000191083
0.000187406
0.000209834
0.000207428
0.000210753
0.00019153
0.00019185
0.000187314
0.000212756
0.00021272
0.000208057
0.000209777
0.000193079
0.00018873
0.000213019
0.000207342
0.000207366
0.000206042
0.000211158
0.000209868
0.000207749
0.000186813
0.000186648
0.000210459
0.000206037
0.000207562
0.000187487
0.000187016
0.000189304
0.000207511
0.000208095
0.000206938
0.000206587
0.000187849
0.000186644
0.000206893
0.000205977
0.0002066
0.000212473
0.000207339
0.000206797
0.000206977
0.000187306
0.000194755
0.000207402
0.000214046
0.000208639
0.00019012
0.000190586
0.000196058
0.000208918
0.000206076
0.00021672
0.000216307
0.000187172
0.000196696
0.000209435
0.000214672
0.00021664
0.000216954
0.000209589
0.000216273
0.000217448
0.000195287
0.000195588
0.000211798
0.000217252
0.000217385
0.000196757
0.000196125
0.000195651
0.000217684
0.000218359
0.000219062
0.000220747
0.000197311
0.000197842
0.00021743
0.000217272
0.000218505
0.000215709
0.000218175
0.000220775
0.000219138
0.000195029
0.000192994
0.00021778
0.00021523
0.000217909
0.000195215
0.000195245
0.000194609
0.000218411
0.000220199
0.000216671
0.000216133
0.000196837
0.000193331
0.000217919
0.00021549
0.000217049
0.000215842
0.000217808
0.000215952
0.000215411
0.000192757
0.000194755
0.000216798
0.000215276
0.000215384
0.000193218
0.000194511
0.000196125
0.000216596
0.000215866
0.000217284
0.0002164
0.000192978
0.000195599
0.000217052
0.000217187
0.000218733
0.000220292
0.000215322
0.00021625
0.000216748
0.000195426
0.000197732
0.000215348
0.00021998
0.000217772
0.000195971
0.000196287
0.000197031
0.000218345
0.000218276
0.000220327
0.000220986
0.000196278
0.000198185
0.000219352
0.000220561
0.000220047
0.000220726
0.000218376
0.000221235
0.000220749
0.00019765
0.00019692
0.000219
0.000220692
0.000220522
0.000197467
0.00019691
0.000197455
0.000220674
0.000221387
0.000221333
0.000221803
0.00019804
0.000198098
0.000220144
0.000220303
0.000220311
0.000220012
0.000221032
0.000222191
0.000223083
0.000196704
0.000197057
0.000220681
0.000220498
0.000222225
0.00019917
0.000197557
0.000199113
0.00022155
0.000221904
0.000222871
0.000222691
0.000198063
0.000199254
0.000220611
0.000220166
0.000223222
0.000222583
0.000223849
0.000223257
0.00022474
0.00019728
0.000199003
0.00022338
0.000222858
0.000224623
0.000201167
0.000199084
0.000199451
0.000223124
0.000222934
0.000223748
0.000222361
0.000199184
0.000197333
0.00022365
0.000223079
0.000224459
0.000223832
0.000225247
0.000221967
0.000221617
0.000198879
0.000198764
0.000225168
0.000223347
0.000222095
0.00019667
0.000199308
0.000199936
0.000223783
0.000221985
0.000224049
0.000221874
0.000197003
0.00019784
0.000224486
0.000223905
0.000224677
0.000225218
0.000220811
0.000220956
0.000220227
0.000198568
0.000200775
0.000221465
0.000224662
0.00022111
0.000197495
0.00019998
0.000200638
0.000224642
0.000223236
0.000226189
0.000229082
0.00019878
0.000204508
0.000224781
0.000225576
0.000225354
0.000226372
0.000221797
0.000229557
0.000229239
0.000200988
0.000201623
0.000223045
0.000227116
0.000228786
0.000204384
0.000200481
0.000200758
0.000226395
0.000229502
0.000227308
0.0002307
0.000204582
0.00020265
0.00022545
0.000226364
0.000225829
0.00022573
0.000229759
0.000231381
0.000230743
0.000201362
0.000199998
0.000229203
0.000226459
0.000229329
0.000201706
0.000200467
0.000198389
0.000226974
0.000227364
0.000223399
0.000219867
0.000200518
0.00019381
0.000225968
0.000225297
0.000224772
0.000223447
0.000226677
0.000219361
0.000219042
0.000199403
0.00019718
0.000225683
0.000221864
0.000219266
0.000193401
0.000198131
0.000199284
0.000222882
0.000219432
0.000222687
0.000220778
0.000193351
0.000199671
0.000224454
0.000223145
0.000224361
0.000223203
0.000218728
0.00022132
0.000222421
0.000196951
0.00019897
0.000219018
0.000222002
0.000222681
0.000201118
0.000200294
0.000206123
0.000224989
0.000226165
0.000232502
0.000234942
0.000201674
0.0002095
0.00022566
0.000225165
0.000231487
0.000232936
0.000228651
0.000235544
0.000236826
0.000200234
0.000207618
0.000228708
0.000234585
0.000236964
0.000211341
0.000206177
0.000201469
0.000232973
0.000235607
0.00023246
0.000233243
0.000209626
0.000201823
0.000231859
0.000233437
0.000230772
0.00023366
0.000237795
0.000232138
0.000231006
0.000207705
0.000203341
0.000237829
0.000234816
0.000231616
0.000200156
0.000198905
0.000193247
0.000227599
0.00022792
0.000219791
0.00021938
0.000199062
0.000193115
0.000226364
0.000228188
0.000219852
0.000218875
0.000224942
0.000219073
0.000217147
0.000200203
0.0001921
0.000225192
0.000218028
0.000216659
0.000190402
0.00019271
0.000204035
0.000219478
0.000219034
0.000226783
0.000224642
0.000192673
0.000201622
0.000219551
0.000218476
0.000228713
0.000226168
0.000216739
0.000225417
0.000226907
0.000191391
0.000202478
0.000216202
0.000224896
0.000226711
0.000203646
0.000207495
0.000229253
0.000226973
0.000205075
0.000230744
0.000229139
0.000244103
0.00024523
0.000245976
0.000229659
0.00020648
0.000229755
2.81147e-06
2.2637e-06
1.19899e-06
1.28209e-06
1.16814e-06
1.93312e-06
6.12977e-07
1.25074e-06
1.19938e-06
1.74672e-06
1.55482e-06
1.58704e-06
2.14654e-06
2.0613e-06
1.16483e-06
1.10475e-06
1.37369e-05
1.02214e-06
1.52539e-05
1.07951e-05
1.30812e-05
1.33361e-06
1.39337e-05
1.2399e-06
1.57298e-05
1.39512e-06
1.54685e-06
1.61689e-06
1.6903e-06
1.41327e-06
1.54681e-06
1.66208e-06
1.18071e-06
3.31167e-07
1.58425e-06
1.79148e-06
1.16613e-06
4.3701e-07
1.58683e-06
1.10132e-05
1.32141e-05
1.20017e-06
1.80298e-06
5.13045e-07
1.69888e-06
1.19342e-06
1.80647e-06
6.37502e-07
1.47903e-06
1.77919e-06
2.13898e-06
1.67829e-06
2.11931e-06
1.32323e-06
1.87384e-05
1.23709e-06
2.12853e-05
1.70529e-05
1.91934e-05
1.52126e-06
1.90745e-05
1.44325e-06
2.14484e-05
1.41504e-06
1.54664e-06
1.6682e-06
1.7033e-06