/*--------------------------------*- C++ -*----------------------------------*\
| =========                 |                                                 |
| \\      /  F ield         | OpenFOAM: The Open Source CFD Toolbox           |
|  \\    /   O peration     | Version:  v2006                                 |
|   \\  /    A nd           | Website:  www.openfoam.com                      |
|    \\/     M anipulation  |                                                 |
\*---------------------------------------------------------------------------*/
FoamFile
{
    version     2.0;
    format      ascii;
    class       volScalarField;
    location    "125";
    object      k;
}
// * * * * * * * * * * * * * * * * * * * * * * * * * * * * * * * * * * * * * //

dimensions      [0 2 -2 0 0 0 0];


internalField   nonuniform List<scalar> 
42616
(
1.30792e-05
1.82596e-05
1.82606e-05
2.30735e-05
1.30793e-05
1.82607e-05
1.82617e-05
2.30715e-05
1.30795e-05
1.82618e-05
1.82628e-05
2.30763e-05
1.30793e-05
1.82619e-05
1.82629e-05
2.30836e-05
1.30783e-05
1.82612e-05
1.82623e-05
2.30855e-05
1.3078e-05
1.82607e-05
1.82619e-05
2.30834e-05
1.3078e-05
1.82609e-05
1.8262e-05
2.30805e-05
1.30782e-05
1.82614e-05
1.82626e-05
2.30776e-05
1.30784e-05
1.82619e-05
1.8263e-05
2.30754e-05
1.30785e-05
1.82623e-05
1.82634e-05
2.30753e-05
1.30787e-05
1.82625e-05
1.82636e-05
2.30767e-05
1.30787e-05
1.82627e-05
1.82638e-05
2.3076e-05
1.30788e-05
1.8263e-05
1.8264e-05
2.30779e-05
1.30789e-05
1.82633e-05
1.82644e-05
2.30884e-05
1.3079e-05
1.82636e-05
1.82647e-05
2.30884e-05
1.30791e-05
1.8264e-05
1.82651e-05
2.30834e-05
1.30792e-05
1.82645e-05
1.82657e-05
2.3077e-05
1.30794e-05
1.82652e-05
1.82664e-05
2.30753e-05
1.30795e-05
1.82661e-05
1.82672e-05
2.30784e-05
1.3076e-05
1.82634e-05
1.82645e-05
2.30779e-05
1.29576e-05
1.76055e-05
1.7606e-05
2.2335e-05
2.30417e-05
1.82612e-05
1.82605e-05
2.30395e-05
1.826e-05
1.82621e-05
1.82595e-05
1.82613e-05
2.30414e-05
1.82604e-05
1.82607e-05
2.30407e-05
2.30728e-05
2.30474e-05
1.82613e-05
1.82606e-05
1.82623e-05
1.82615e-05
2.3071e-05
2.30454e-05
1.82601e-05
1.82622e-05
1.82611e-05
1.82632e-05
1.82615e-05
1.82605e-05
1.82623e-05
2.30728e-05
2.30482e-05
1.82609e-05
1.82615e-05
1.82617e-05
2.3039e-05
2.30786e-05
2.30497e-05
1.82625e-05
1.82617e-05
1.82635e-05
1.82627e-05
2.3076e-05
2.30493e-05
1.82612e-05
1.82633e-05
1.82623e-05
1.82644e-05
1.82627e-05
1.82617e-05
1.82635e-05
2.3079e-05
2.3051e-05
1.82621e-05
1.82627e-05
1.82629e-05
2.30454e-05
2.30843e-05
2.30468e-05
1.82635e-05
1.82628e-05
1.82637e-05
1.8263e-05
2.30827e-05
2.30476e-05
1.82623e-05
1.82644e-05
1.82625e-05
1.82646e-05
1.82636e-05
1.82619e-05
1.82639e-05
2.30851e-05
2.30484e-05
1.82629e-05
1.82629e-05
1.82633e-05
2.30511e-05
2.30845e-05
2.30408e-05
1.82635e-05
1.82629e-05
1.8263e-05
1.82624e-05
2.30844e-05
2.30415e-05
1.82623e-05
1.82644e-05
1.82618e-05
1.82639e-05
1.82637e-05
1.82613e-05
1.82633e-05
2.30857e-05
2.30427e-05
1.82631e-05
1.82624e-05
1.82627e-05
2.30489e-05
2.30813e-05
2.30356e-05
1.82629e-05
1.82623e-05
1.82625e-05
1.82618e-05
2.30816e-05
2.30351e-05
1.82617e-05
1.82638e-05
1.82613e-05
1.82634e-05
1.82631e-05
1.82606e-05
1.82629e-05
2.30828e-05
2.30371e-05
1.82624e-05
1.82618e-05
1.82622e-05
2.30438e-05
2.30762e-05
2.30349e-05
1.82626e-05
1.82619e-05
1.82625e-05
1.82618e-05
2.30759e-05
2.30344e-05
1.82613e-05
1.82635e-05
1.82613e-05
1.82635e-05
1.82629e-05
1.82606e-05
1.82628e-05
2.30777e-05
2.30365e-05
1.82622e-05
1.82618e-05
1.82622e-05
2.30394e-05
2.30715e-05
2.30378e-05
1.82626e-05
1.82619e-05
1.82628e-05
1.82621e-05
2.30708e-05
2.30373e-05
1.82614e-05
1.82636e-05
1.82616e-05
1.82638e-05
1.8263e-05
1.82611e-05
1.82632e-05
2.30734e-05
2.30386e-05
1.82625e-05
1.82622e-05
1.82626e-05
2.30383e-05
2.3071e-05
2.30443e-05
1.8263e-05
1.82624e-05
1.82634e-05
1.82629e-05
2.30705e-05
2.30445e-05
1.82618e-05
1.8264e-05
1.82623e-05
1.82643e-05
1.82635e-05
1.82617e-05
1.82637e-05
2.30721e-05
2.30447e-05
1.82629e-05
1.82628e-05
1.82631e-05
2.30389e-05
2.30757e-05
2.30481e-05
1.82635e-05
1.8263e-05
1.82638e-05
1.82632e-05
2.30757e-05
2.30497e-05
1.82623e-05
1.82644e-05
1.82626e-05
1.82648e-05
1.82641e-05
1.82621e-05
1.82641e-05
2.30762e-05
2.30511e-05
1.82635e-05
1.82632e-05
1.82636e-05
2.30416e-05
2.30794e-05
2.30483e-05
1.82639e-05
1.82633e-05
1.8264e-05
1.82633e-05
2.30824e-05
2.30491e-05
1.82627e-05
1.82649e-05
1.82628e-05
1.82649e-05
1.82643e-05
1.82622e-05
1.82643e-05
2.30831e-05
2.30508e-05
1.82638e-05
1.82633e-05
1.82638e-05
2.30438e-05
2.30792e-05
2.30518e-05
1.82641e-05
1.82635e-05
1.82641e-05
1.82635e-05
2.30828e-05
2.30502e-05
1.82629e-05
1.82651e-05
1.82629e-05
1.8265e-05
1.82645e-05
1.82624e-05
1.82645e-05
2.30836e-05
2.30515e-05
1.8264e-05
1.82634e-05
1.8264e-05
2.30431e-05
2.30835e-05
2.30514e-05
1.82643e-05
1.82637e-05
1.82643e-05
1.82637e-05
2.30823e-05
2.30526e-05
1.82631e-05
1.82653e-05
1.8263e-05
1.82652e-05
1.82648e-05
1.82626e-05
1.82646e-05
2.30827e-05
2.30543e-05
1.82643e-05
1.82636e-05
1.82641e-05
2.30464e-05
2.30885e-05
2.304e-05
1.82646e-05
1.8264e-05
1.82641e-05
1.82637e-05
2.3087e-05
2.30483e-05
1.82634e-05
1.82655e-05
1.82629e-05
1.82652e-05
1.8265e-05
1.82626e-05
1.82648e-05
2.30879e-05
2.30509e-05
1.82645e-05
1.82636e-05
1.82643e-05
2.30549e-05
2.30811e-05
2.30388e-05
1.82648e-05
1.82643e-05
1.82641e-05
1.82637e-05
2.30871e-05
2.30391e-05
1.82636e-05
1.82658e-05
1.82629e-05
1.82652e-05
1.82653e-05
1.82626e-05
1.82648e-05
2.30889e-05
2.30416e-05
1.82648e-05
1.82637e-05
1.82643e-05
2.30496e-05
2.30731e-05
2.30436e-05
1.8265e-05
1.82646e-05
1.82643e-05
1.82637e-05
2.30803e-05
2.30382e-05
1.82638e-05
1.82661e-05
1.8263e-05
1.82653e-05
1.82656e-05
1.82626e-05
1.82648e-05
2.30829e-05
2.30399e-05
1.82651e-05
1.82638e-05
1.82643e-05
2.30424e-05
2.30754e-05
2.30493e-05
1.82654e-05
1.82649e-05
1.82644e-05
1.82638e-05
2.30733e-05
2.3042e-05
1.82642e-05
1.82665e-05
1.82632e-05
1.82654e-05
1.8266e-05
1.82628e-05
1.82648e-05
2.30753e-05
2.30436e-05
1.82655e-05
1.82639e-05
1.82643e-05
2.30404e-05
2.30798e-05
2.30537e-05
1.8266e-05
1.82654e-05
1.82647e-05
1.8264e-05
2.30742e-05
2.30485e-05
1.82648e-05
1.82671e-05
1.82635e-05
1.82657e-05
1.82665e-05
1.8263e-05
1.82649e-05
2.30758e-05
2.30503e-05
1.8266e-05
1.82642e-05
1.82645e-05
2.30427e-05
2.30851e-05
2.30553e-05
1.82668e-05
1.82662e-05
1.82649e-05
1.82643e-05
2.30786e-05
2.30547e-05
1.82656e-05
1.82678e-05
1.82637e-05
1.82659e-05
1.82671e-05
1.82633e-05
1.82651e-05
2.30804e-05
2.30563e-05
1.82666e-05
1.82644e-05
1.82646e-05
2.30487e-05
2.30891e-05
2.30515e-05
1.82676e-05
1.82669e-05
1.82597e-05
1.82591e-05
2.30848e-05
2.30541e-05
1.82664e-05
1.82686e-05
1.82586e-05
1.82607e-05
1.82677e-05
1.82581e-05
1.82598e-05
2.30862e-05
2.3056e-05
1.82672e-05
1.82592e-05
1.82593e-05
2.30507e-05
2.3087e-05
2.27285e-05
1.8265e-05
1.82644e-05
1.79645e-05
1.79634e-05
2.30869e-05
2.27278e-05
1.82637e-05
1.82658e-05
1.79641e-05
1.79642e-05
1.8265e-05
1.79638e-05
1.79637e-05
2.30878e-05
2.27291e-05
1.82645e-05
1.79643e-05
1.7964e-05
2.27274e-05
2.23382e-05
1.76059e-05
1.76048e-05
2.23379e-05
1.76059e-05
1.76056e-05
1.29573e-05
1.29576e-05
1.29575e-05
1.76049e-05
2.23382e-05
1.76055e-05
1.30792e-05
1.30789e-05
1.30794e-05
1.30794e-05
5.77365e-05
6.99573e-05
5.77326e-05
6.99584e-05
6.91381e-05
6.91434e-05
5.7736e-05
6.9959e-05
5.77322e-05
6.99601e-05
1.30789e-05
1.30794e-05
1.30794e-05
1.30793e-05
1.3079e-05
1.30795e-05
1.30795e-05
3.77748e-05
5.06282e-05
1.46491e-05
1.82599e-05
3.7779e-05
5.06292e-05
1.46492e-05
6.91402e-05
6.91452e-05
3.77747e-05
1.46494e-05
5.063e-05
1.82608e-05
3.77795e-05
1.46495e-05
5.06309e-05
6.15982e-05
6.16065e-05
2.30454e-05
6.15997e-05
6.1608e-05
5.77377e-05
6.9957e-05
5.77338e-05
6.99581e-05
6.91375e-05
6.91429e-05
5.77371e-05
6.99587e-05
5.77333e-05
6.99598e-05
1.3079e-05
1.30795e-05
1.30796e-05
1.30794e-05
1.30791e-05
1.30797e-05
1.30797e-05
3.77765e-05
5.06301e-05
1.46497e-05
1.8261e-05
3.77805e-05
5.06308e-05
1.46498e-05
6.91397e-05
6.91447e-05
3.77764e-05
1.465e-05
5.06321e-05
1.82619e-05
3.77814e-05
1.46502e-05
5.06324e-05
6.15985e-05
6.16069e-05
2.30454e-05
6.16001e-05
6.16084e-05
5.77384e-05
6.99567e-05
5.77348e-05
6.99579e-05
6.91373e-05
6.91428e-05
5.77376e-05
6.99585e-05
5.77341e-05
6.99596e-05
1.30792e-05
1.30797e-05
1.30797e-05
1.30794e-05
1.30792e-05
1.30797e-05
1.30797e-05
3.77775e-05
5.06311e-05
1.46504e-05
1.82618e-05
3.77826e-05
5.06313e-05
1.46505e-05
6.91393e-05
6.91445e-05
3.77774e-05
1.46508e-05
5.0633e-05
1.82627e-05
3.77836e-05
1.46509e-05
5.06327e-05
6.15988e-05
6.16071e-05
2.30386e-05
6.16003e-05
6.16086e-05
5.77378e-05
6.99567e-05
5.77347e-05
6.9958e-05
6.91373e-05
6.91428e-05
5.77371e-05
6.99584e-05
5.77339e-05
6.99598e-05
1.30791e-05
1.30796e-05
1.30796e-05
1.30784e-05
1.30782e-05
1.30788e-05
1.30788e-05
3.77731e-05
5.06312e-05
1.46503e-05
1.82615e-05
3.77812e-05
5.06313e-05
1.46499e-05
6.91393e-05
6.91445e-05
3.77736e-05
1.46507e-05
5.06324e-05
1.82625e-05
3.77823e-05
1.46503e-05
5.06328e-05
6.15991e-05
6.16073e-05
2.30368e-05
6.16009e-05
6.1609e-05
5.77381e-05
6.9957e-05
5.77343e-05
6.99582e-05
6.91373e-05
6.91428e-05
5.77375e-05
6.99587e-05
5.77337e-05
6.99599e-05
1.30781e-05
1.30786e-05
1.30786e-05
1.3078e-05
1.30778e-05
1.30784e-05
1.30784e-05
3.77714e-05
5.0631e-05
1.46494e-05
1.82608e-05
3.77756e-05
5.06309e-05
1.46492e-05
6.91394e-05
6.91445e-05
3.77715e-05
1.46498e-05
5.06352e-05
1.8262e-05
3.77761e-05
1.46496e-05
5.06349e-05
6.15999e-05
6.16082e-05
2.30396e-05
6.16015e-05
6.16098e-05
5.77387e-05
6.99569e-05
5.77352e-05
6.99582e-05
6.91373e-05
6.91429e-05
5.77382e-05
6.99586e-05
5.77346e-05
6.99599e-05
1.30778e-05
1.30784e-05
1.30784e-05
1.3078e-05
1.30778e-05
1.30784e-05
1.30784e-05
3.77721e-05
5.06314e-05
1.46491e-05
1.82606e-05
3.77796e-05
5.06323e-05
1.46489e-05
6.91394e-05
6.91446e-05
3.77727e-05
1.46496e-05
5.06334e-05
1.82618e-05
3.77803e-05
1.46495e-05
5.06348e-05
6.16003e-05
6.16086e-05
2.30449e-05
6.1602e-05
6.16103e-05
5.77393e-05
6.99569e-05
5.77356e-05
6.99582e-05
6.91375e-05
6.91431e-05
5.77389e-05
6.99587e-05
5.77352e-05
6.99599e-05
1.30778e-05
1.30784e-05
1.30784e-05
1.30781e-05
1.30779e-05
1.30785e-05
1.30785e-05
3.77719e-05
5.06317e-05
1.4649e-05
1.82609e-05
3.77776e-05
5.06322e-05
1.46489e-05
6.91395e-05
6.91447e-05
3.77733e-05
1.46495e-05
5.06341e-05
1.8262e-05
3.77781e-05
1.46494e-05
5.06337e-05
6.16008e-05
6.16092e-05
2.30494e-05
6.16025e-05
6.16108e-05
5.77404e-05
6.99571e-05
5.77366e-05
6.99584e-05
6.91377e-05
6.91433e-05
5.774e-05
6.99588e-05
5.77361e-05
6.99601e-05
1.3078e-05
1.30786e-05
1.30786e-05
1.30783e-05
1.30781e-05
1.30787e-05
1.30787e-05
3.77757e-05
5.06333e-05
1.46491e-05
1.82616e-05
3.7778e-05
5.06335e-05
1.46491e-05
6.91397e-05
6.9145e-05
3.77758e-05
1.46497e-05
5.06355e-05
1.82627e-05
3.77775e-05
1.46497e-05
5.06343e-05
6.16017e-05
6.16099e-05
2.30512e-05
6.16032e-05
6.16114e-05
5.7741e-05
6.99573e-05
5.77373e-05
6.99587e-05
6.91379e-05
6.91436e-05
5.77406e-05
6.99591e-05
5.7737e-05
6.99605e-05
1.30782e-05
1.30787e-05
1.30788e-05
1.30785e-05
1.30783e-05
1.30788e-05
1.30789e-05
3.77728e-05
5.06334e-05
1.46493e-05
1.82618e-05
3.77768e-05
5.06339e-05
1.46493e-05
6.91399e-05
6.91453e-05
3.77727e-05
1.46499e-05
5.06354e-05
1.82629e-05
3.7778e-05
1.46499e-05
5.06351e-05
6.16024e-05
6.16106e-05
2.30518e-05
6.16039e-05
6.16122e-05
5.77417e-05
6.99576e-05
5.77382e-05
6.9959e-05
6.9138e-05
6.91439e-05
5.77414e-05
6.99594e-05
5.77378e-05
6.99608e-05
1.30783e-05
1.30789e-05
1.30789e-05
1.30786e-05
1.30784e-05
1.3079e-05
1.3079e-05
3.77753e-05
5.06347e-05
1.46495e-05
1.8262e-05
3.77803e-05
5.06339e-05
1.46494e-05
6.91401e-05
6.91456e-05
3.77758e-05
1.46501e-05
5.06365e-05
1.82631e-05
3.77801e-05
1.465e-05
5.06353e-05
6.16031e-05
6.16114e-05
2.30495e-05
6.16044e-05
6.16127e-05
5.77422e-05
6.99579e-05
5.77387e-05
6.99595e-05
6.91382e-05
6.91443e-05
5.77418e-05
6.99597e-05
5.77383e-05
6.99612e-05
1.30784e-05
1.3079e-05
1.30791e-05
1.30787e-05
1.30785e-05
1.30791e-05
1.30791e-05
3.77771e-05
5.0635e-05
1.46497e-05
1.82622e-05
3.7779e-05
5.06345e-05
1.46495e-05
6.91403e-05
6.9146e-05
3.77766e-05
1.46502e-05
5.06364e-05
1.82633e-05
3.77778e-05
1.46501e-05
5.06361e-05
6.16039e-05
6.16122e-05
2.30497e-05
6.16049e-05
6.16132e-05
5.77425e-05
6.99582e-05
5.77391e-05
6.996e-05
6.91383e-05
6.91448e-05
5.77421e-05
6.99599e-05
5.77387e-05
6.99617e-05
1.30786e-05
1.30791e-05
1.30792e-05
1.30788e-05
1.30786e-05
1.30792e-05
1.30793e-05
3.77768e-05
5.0635e-05
1.46498e-05
1.82623e-05
3.77784e-05
5.06343e-05
1.46497e-05
6.91404e-05
6.91466e-05
3.77759e-05
1.46504e-05
5.06365e-05
1.82634e-05
3.77782e-05
1.46503e-05
5.06351e-05
6.16049e-05
6.16132e-05
2.30503e-05
6.16053e-05
6.16135e-05
5.77426e-05
6.99585e-05
5.77395e-05
6.99607e-05
6.91384e-05
6.91458e-05
5.77422e-05
6.99603e-05
5.77391e-05
6.99624e-05
1.30787e-05
1.30792e-05
1.30793e-05
1.30789e-05
1.30787e-05
1.30793e-05
1.30794e-05
3.77766e-05
5.06356e-05
1.465e-05
1.82624e-05
3.77796e-05
5.06344e-05
1.46498e-05
6.91405e-05
6.91476e-05
3.7776e-05
1.46506e-05
5.06377e-05
1.82634e-05
3.77796e-05
1.46504e-05
5.06351e-05
6.16067e-05
6.16149e-05
2.30428e-05
6.16065e-05
6.16147e-05
5.77427e-05
6.9959e-05
5.77398e-05
6.99618e-05
6.91384e-05
6.91474e-05
5.77423e-05
6.99607e-05
5.77394e-05
6.99636e-05
1.30788e-05
1.30793e-05
1.30794e-05
1.3079e-05
1.30788e-05
1.30794e-05
1.30795e-05
3.77765e-05
5.06362e-05
1.46502e-05
1.82625e-05
3.77807e-05
5.06336e-05
1.465e-05
6.91404e-05
6.91491e-05
3.77761e-05
1.46508e-05
5.06378e-05
1.82635e-05
3.77805e-05
1.46505e-05
5.0635e-05
6.16092e-05
6.16175e-05
2.30415e-05
6.16077e-05
6.16159e-05
5.77429e-05
6.99595e-05
5.77403e-05
6.99638e-05
6.91383e-05
6.91499e-05
5.77425e-05
6.99612e-05
5.77399e-05
6.99656e-05
1.30788e-05
1.30794e-05
1.30795e-05
1.30791e-05
1.3079e-05
1.30795e-05
1.30796e-05
3.77766e-05
5.0638e-05
1.46505e-05
1.82626e-05
3.77815e-05
5.06331e-05
1.46501e-05
6.91403e-05
6.91516e-05
3.77763e-05
1.4651e-05
5.06395e-05
1.82637e-05
3.77812e-05
1.46507e-05
5.06344e-05
6.16136e-05
6.16218e-05
2.30494e-05
6.16099e-05
6.16181e-05
5.77434e-05
6.99605e-05
5.77411e-05
6.99674e-05
6.9138e-05
6.91539e-05
5.7743e-05
6.99622e-05
5.77407e-05
6.99691e-05
1.3079e-05
1.30795e-05
1.30796e-05
1.30793e-05
1.30792e-05
1.30797e-05
1.30798e-05
3.77767e-05
5.06417e-05
1.46507e-05
1.82627e-05
3.77821e-05
5.06324e-05
1.46503e-05
6.914e-05
6.91556e-05
3.77764e-05
1.46513e-05
5.06432e-05
1.82639e-05
3.77819e-05
1.46509e-05
5.06337e-05
6.16208e-05
6.16292e-05
2.30549e-05
6.16127e-05
6.1621e-05
5.77442e-05
6.99618e-05
5.7742e-05
6.99732e-05
6.91371e-05
6.91593e-05
5.77438e-05
6.99635e-05
5.77417e-05
6.9975e-05
1.30791e-05
1.30797e-05
1.30797e-05
1.30796e-05
1.30794e-05
1.308e-05
1.308e-05
3.77762e-05
5.06483e-05
1.4651e-05
1.82629e-05
3.77829e-05
5.06299e-05
1.46505e-05
6.91388e-05
6.91607e-05
3.77759e-05
1.46516e-05
5.06497e-05
1.8264e-05
3.7783e-05
1.46511e-05
5.06312e-05
6.16276e-05
6.16359e-05
2.3055e-05
6.16098e-05
6.16182e-05
5.77445e-05
6.99625e-05
5.77425e-05
6.99806e-05
6.9134e-05
6.9165e-05
5.77441e-05
6.99642e-05
5.77421e-05
6.99823e-05
1.30793e-05
1.30799e-05
1.30799e-05
1.30799e-05
1.30797e-05
1.30803e-05
1.30803e-05
3.77739e-05
5.06593e-05
1.46514e-05
1.82631e-05
3.77855e-05
5.06231e-05
1.46507e-05
6.9135e-05
6.91658e-05
3.77735e-05
1.4652e-05
5.06607e-05
1.82642e-05
3.77852e-05
1.46513e-05
5.06244e-05
6.16273e-05
6.16358e-05
2.30511e-05
6.1594e-05
6.16024e-05
5.77418e-05
6.99566e-05
5.77402e-05
6.99871e-05
6.91258e-05
6.91686e-05
5.77414e-05
6.99583e-05
5.77397e-05
6.99888e-05
1.30794e-05
1.308e-05
1.308e-05
1.30798e-05
1.30797e-05
1.30802e-05
1.30802e-05
3.77672e-05
5.06768e-05
1.46517e-05
1.82627e-05
3.77908e-05
5.06034e-05
1.46506e-05
6.91261e-05
6.91687e-05
3.77669e-05
1.46523e-05
5.06781e-05
1.82639e-05
3.77904e-05
1.46512e-05
5.06046e-05
6.16136e-05
6.16219e-05
2.30445e-05
6.15551e-05
6.15635e-05
5.77053e-05
6.99394e-05
5.77238e-05
6.99952e-05
6.91081e-05
6.91688e-05
5.77049e-05
6.99408e-05
5.77234e-05
6.99968e-05
1.30758e-05
1.30763e-05
1.30763e-05
1.30424e-05
1.30423e-05
1.30426e-05
1.30425e-05
3.76912e-05
5.06991e-05
1.46439e-05
1.82198e-05
3.77901e-05
5.052e-05
1.46504e-05
6.91079e-05
6.91685e-05
3.76909e-05
1.46446e-05
5.07006e-05
1.82207e-05
3.77897e-05
1.46508e-05
5.05214e-05
6.15707e-05
6.15792e-05
2.29953e-05
6.14441e-05
6.14528e-05
5.18932e-05
6.92284e-05
5.72484e-05
7.1834e-05
6.88253e-05
6.14307e-05
5.18921e-05
6.92294e-05
5.72477e-05
7.18377e-05
1.19805e-05
1.21845e-05
1.21846e-05
1.3274e-05
1.19872e-05
1.22577e-05
1.22578e-05
3.62747e-05
4.98581e-05
1.44397e-05
1.70087e-05
3.71803e-05
5.21843e-05
1.40201e-05
6.8825e-05
6.1431e-05
3.6274e-05
1.44401e-05
4.98595e-05
1.70091e-05
3.71798e-05
1.40204e-05
5.21856e-05
6.10335e-05
6.1042e-05
2.13793e-05
6.01052e-05
6.01098e-05
6.91439e-05
6.9139e-05
6.91457e-05
6.91408e-05
2.30814e-05
6.16013e-05
6.16097e-05
6.15997e-05
6.16081e-05
5.77318e-05
6.99585e-05
6.99574e-05
5.77359e-05
5.77305e-05
6.99549e-05
6.99537e-05
5.77346e-05
3.77801e-05
1.8261e-05
5.06294e-05
1.4649e-05
5.06285e-05
1.4649e-05
3.77745e-05
3.7779e-05
1.82604e-05
5.06261e-05
1.46487e-05
5.06264e-05
1.46486e-05
3.77733e-05
6.91437e-05
6.91384e-05
2.30822e-05
6.16014e-05
6.16008e-05
6.16003e-05
6.15992e-05
6.91436e-05
6.91387e-05
5.77315e-05
6.99603e-05
6.99592e-05
5.77356e-05
3.77796e-05
1.82598e-05
5.06315e-05
1.46491e-05
5.06306e-05
1.46491e-05
3.77744e-05
5.77286e-05
6.99562e-05
6.9955e-05
5.77317e-05
3.77781e-05
1.82619e-05
1.46491e-05
5.06303e-05
1.4649e-05
5.06294e-05
3.7773e-05
3.77812e-05
1.82593e-05
5.06282e-05
1.4649e-05
5.06272e-05
1.46489e-05
3.77743e-05
5.77319e-05
6.99587e-05
6.99576e-05
5.77359e-05
3.77806e-05
1.82612e-05
1.46493e-05
5.06275e-05
1.46492e-05
5.06269e-05
3.77742e-05
5.77309e-05
6.99559e-05
6.99548e-05
5.77349e-05
6.91455e-05
6.91406e-05
2.30845e-05
6.16079e-05
6.16035e-05
6.16064e-05
6.16019e-05
6.91442e-05
6.91393e-05
3.77811e-05
1.82602e-05
1.46493e-05
5.06296e-05
1.46492e-05
5.06291e-05
3.77751e-05
3.77808e-05
1.82605e-05
1.46495e-05
5.06306e-05
1.46494e-05
5.06298e-05
3.77747e-05
5.77323e-05
6.9959e-05
6.99579e-05
5.77363e-05
5.77312e-05
6.99572e-05
6.99561e-05
5.77353e-05
2.30785e-05
6.15996e-05
6.16079e-05
6.15981e-05
6.16064e-05
6.91437e-05
6.91388e-05
6.91459e-05
6.9141e-05
6.91386e-05
6.91436e-05
6.91404e-05
6.91454e-05
6.15997e-05
6.16081e-05
2.30367e-05
6.16014e-05
6.16098e-05
6.91433e-05
6.91383e-05
6.91452e-05
6.91402e-05
2.30783e-05
6.16016e-05
6.161e-05
6.15999e-05
6.16083e-05
5.77352e-05
6.99536e-05
5.7731e-05
6.99547e-05
3.77748e-05
5.06294e-05
1.46491e-05
1.82616e-05
3.77799e-05
5.06304e-05
1.46493e-05
3.77736e-05
5.06273e-05
1.46488e-05
1.82609e-05
3.77789e-05
5.06269e-05
1.46489e-05
5.7733e-05
6.99582e-05
6.99571e-05
5.77371e-05
5.77316e-05
6.99545e-05
6.99534e-05
5.77358e-05
3.77794e-05
1.82621e-05
5.06314e-05
1.46496e-05
5.06305e-05
1.46494e-05
3.77753e-05
3.77784e-05
1.82614e-05
5.06281e-05
1.46492e-05
5.06282e-05
1.4649e-05
3.77741e-05
6.16003e-05
6.15992e-05
2.30377e-05
6.16014e-05
6.16009e-05
6.91384e-05
6.91433e-05
6.91431e-05
6.91378e-05
2.30792e-05
6.16016e-05
6.16012e-05
6.16003e-05
6.15994e-05
6.91431e-05
6.91381e-05
3.77743e-05
5.06313e-05
1.46493e-05
1.82604e-05
3.77799e-05
5.06325e-05
1.46494e-05
5.7732e-05
6.99548e-05
5.77284e-05
6.9956e-05
3.77726e-05
1.46492e-05
5.06302e-05
1.82625e-05
3.7778e-05
1.46493e-05
5.06312e-05
5.77325e-05
6.996e-05
6.99588e-05
5.77366e-05
3.77789e-05
1.82609e-05
5.06335e-05
1.46497e-05
5.06325e-05
1.46496e-05
3.77751e-05
5.77288e-05
6.99559e-05
6.99547e-05
5.77326e-05
3.77772e-05
1.8263e-05
1.46496e-05
5.06324e-05
1.46495e-05
5.06313e-05
3.77735e-05
5.77365e-05
6.99574e-05
5.77324e-05
6.99586e-05
3.77745e-05
1.46494e-05
5.06278e-05
1.82619e-05
3.77787e-05
1.46495e-05
5.06287e-05
5.77356e-05
6.99546e-05
5.77315e-05
6.99558e-05
3.77803e-05
1.82604e-05
5.06302e-05
1.46495e-05
5.06291e-05
1.46494e-05
3.77758e-05
5.77331e-05
6.99584e-05
6.99573e-05
5.77371e-05
3.77798e-05
1.82622e-05
1.46498e-05
5.06297e-05
1.46497e-05
5.0629e-05
3.77755e-05
5.77321e-05
6.99556e-05
6.99545e-05
5.77361e-05
6.16064e-05
6.16019e-05
2.30387e-05
6.16081e-05
6.16036e-05
6.91389e-05
6.91439e-05
6.91449e-05
6.91399e-05
2.30802e-05
6.16083e-05
6.16037e-05
6.16066e-05
6.16021e-05
6.91437e-05
6.91387e-05
3.77744e-05
1.46496e-05
5.06305e-05
1.82612e-05
3.77793e-05
1.46497e-05
5.06317e-05
5.77369e-05
6.99577e-05
5.77328e-05
6.99589e-05
5.77359e-05
6.99559e-05
5.77318e-05
6.99571e-05
3.77802e-05
1.82613e-05
1.46498e-05
5.06318e-05
1.46497e-05
5.06311e-05
3.77766e-05
3.77798e-05
1.82615e-05
1.465e-05
5.06327e-05
1.46499e-05
5.06317e-05
3.77761e-05
5.77335e-05
6.99587e-05
6.99575e-05
5.77375e-05
5.77324e-05
6.99569e-05
6.99558e-05
5.77365e-05
6.91385e-05
6.91435e-05
6.91406e-05
6.91456e-05
2.30833e-05
6.15999e-05
6.16082e-05
6.15982e-05
6.16066e-05
6.91432e-05
6.91382e-05
6.91453e-05
6.91404e-05
6.91381e-05
6.91431e-05
6.91399e-05
6.91449e-05
6.16001e-05
6.16084e-05
2.30349e-05
6.16017e-05
6.16101e-05
6.91429e-05
6.91379e-05
6.91448e-05
6.91397e-05
2.30742e-05
6.16018e-05
6.16102e-05
6.16002e-05
6.16085e-05
5.77363e-05
6.99533e-05
5.77322e-05
6.99544e-05
3.77768e-05
5.06313e-05
1.46497e-05
1.82627e-05
3.77811e-05
5.0632e-05
1.46499e-05
3.77756e-05
5.06293e-05
1.46493e-05
1.8262e-05
3.77802e-05
5.06285e-05
1.46494e-05
5.77341e-05
6.9958e-05
6.99568e-05
5.77381e-05
5.77328e-05
6.99543e-05
6.99531e-05
5.77368e-05
3.77815e-05
1.82633e-05
5.06325e-05
1.46502e-05
5.06318e-05
1.46501e-05
3.7777e-05
3.77804e-05
1.82625e-05
5.06291e-05
1.46498e-05
5.06296e-05
1.46497e-05
3.77757e-05
6.16005e-05
6.15996e-05
2.3035e-05
6.16018e-05
6.16013e-05
6.91379e-05
6.91428e-05
6.91428e-05
6.91374e-05
2.30758e-05
6.16021e-05
6.16014e-05
6.16007e-05
6.15997e-05
6.91427e-05
6.91377e-05
3.77764e-05
5.06333e-05
1.46498e-05
1.82615e-05
3.77809e-05
5.06341e-05
1.465e-05
5.77332e-05
6.99545e-05
5.77294e-05
6.99557e-05
3.77749e-05
1.46498e-05
5.06322e-05
1.82636e-05
3.7779e-05
1.46499e-05
5.06328e-05
5.77335e-05
6.99597e-05
6.99585e-05
5.77375e-05
3.77812e-05
1.8262e-05
5.06346e-05
1.46503e-05
5.06338e-05
1.46502e-05
3.77768e-05
5.773e-05
6.99556e-05
6.99544e-05
5.77337e-05
3.77796e-05
1.82642e-05
1.46503e-05
5.06334e-05
1.46502e-05
5.06326e-05
3.77755e-05
5.77377e-05
6.99571e-05
5.77336e-05
6.99583e-05
3.77763e-05
1.465e-05
5.063e-05
1.82631e-05
3.77802e-05
1.46501e-05
5.06302e-05
5.77367e-05
6.99543e-05
5.77327e-05
6.99555e-05
3.77823e-05
1.82615e-05
5.06312e-05
1.46502e-05
5.06304e-05
1.46501e-05
3.77781e-05
5.77343e-05
6.99582e-05
6.9957e-05
5.77381e-05
3.77818e-05
1.82635e-05
1.46506e-05
5.06309e-05
1.46504e-05
5.06303e-05
3.77779e-05
5.77333e-05
6.99554e-05
6.99542e-05
5.77372e-05
6.16068e-05
6.16022e-05
2.30364e-05
6.16085e-05
6.16039e-05
6.91384e-05
6.91435e-05
6.91446e-05
6.91395e-05
2.30761e-05
6.16085e-05
6.16041e-05
6.16069e-05
6.16024e-05
6.91433e-05
6.91382e-05
3.77762e-05
1.46502e-05
5.06324e-05
1.82625e-05
3.7781e-05
1.46504e-05
5.06332e-05
5.77381e-05
6.99574e-05
5.7734e-05
6.99586e-05
5.7737e-05
6.99556e-05
5.7733e-05
6.99568e-05
3.77821e-05
1.82624e-05
1.46506e-05
5.06329e-05
1.46504e-05
5.06325e-05
3.7779e-05
3.77817e-05
1.82628e-05
1.46508e-05
5.06337e-05
1.46506e-05
5.0633e-05
3.77783e-05
5.77346e-05
6.99585e-05
6.99573e-05
5.77385e-05
5.77335e-05
6.99567e-05
6.99555e-05
5.77375e-05
6.91379e-05
6.9143e-05
6.91401e-05
6.91451e-05
2.30845e-05
6.16003e-05
6.16085e-05
6.15986e-05
6.16069e-05
6.91428e-05
6.91377e-05
6.9145e-05
6.91399e-05
6.91377e-05
6.91429e-05
6.91396e-05
6.91447e-05
6.16003e-05
6.16087e-05
2.30365e-05
6.16019e-05
6.16103e-05
6.91428e-05
6.91377e-05
6.91447e-05
6.91395e-05
2.30705e-05
6.1602e-05
6.16104e-05
6.16003e-05
6.16087e-05
5.7737e-05
6.99531e-05
5.77332e-05
6.99543e-05
3.77778e-05
5.06321e-05
1.46504e-05
1.82635e-05
3.77827e-05
5.06324e-05
1.46505e-05
3.77766e-05
5.06303e-05
1.465e-05
1.82628e-05
3.77816e-05
5.06289e-05
1.46501e-05
5.77347e-05
6.99579e-05
6.99566e-05
5.77382e-05
5.77334e-05
6.99545e-05
6.99531e-05
5.7737e-05
3.77823e-05
1.82636e-05
5.06321e-05
1.46504e-05
5.0632e-05
1.46505e-05
3.77769e-05
3.77812e-05
1.82629e-05
5.06293e-05
1.465e-05
5.06295e-05
1.46501e-05
3.77758e-05
6.1601e-05
6.15998e-05
2.30352e-05
6.16023e-05
6.16014e-05
6.91375e-05
6.91425e-05
6.91428e-05
6.91373e-05
2.30705e-05
6.16026e-05
6.16016e-05
6.16012e-05
6.15999e-05
6.91424e-05
6.91374e-05
3.77773e-05
5.06342e-05
1.46505e-05
1.82623e-05
3.77824e-05
5.06346e-05
1.46506e-05
5.7734e-05
6.99543e-05
5.77305e-05
6.99555e-05
3.77755e-05
1.46505e-05
5.06331e-05
1.82644e-05
3.77806e-05
1.46506e-05
5.06333e-05
5.7734e-05
6.99596e-05
6.99584e-05
5.77374e-05
3.77819e-05
1.82624e-05
5.06343e-05
1.46505e-05
5.06341e-05
1.46506e-05
3.77763e-05
5.77306e-05
6.99555e-05
6.99542e-05
5.77339e-05
3.77799e-05
1.82645e-05
1.46505e-05
5.0633e-05
1.46506e-05
5.06328e-05
3.77744e-05
5.77383e-05
6.99569e-05
5.77346e-05
6.99581e-05
3.77773e-05
1.46507e-05
5.06309e-05
1.82637e-05
3.77824e-05
1.46508e-05
5.06307e-05
5.77373e-05
6.99541e-05
5.77336e-05
6.99553e-05
3.77828e-05
1.82619e-05
5.06314e-05
1.46504e-05
5.06308e-05
1.46505e-05
3.77773e-05
5.77347e-05
6.9958e-05
6.99568e-05
5.7738e-05
3.77823e-05
1.8264e-05
1.46508e-05
5.06304e-05
1.46509e-05
5.06305e-05
3.77769e-05
5.77336e-05
6.99554e-05
6.99541e-05
5.7737e-05
6.1607e-05
6.16025e-05
2.30375e-05
6.16086e-05
6.16042e-05
6.91381e-05
6.91433e-05
6.91445e-05
6.91393e-05
2.30717e-05
6.16087e-05
6.16043e-05
6.16071e-05
6.16026e-05
6.91432e-05
6.9138e-05
3.77774e-05
1.4651e-05
5.06334e-05
1.82631e-05
3.7783e-05
1.46511e-05
5.06338e-05
5.77386e-05
6.99572e-05
5.77349e-05
6.99584e-05
5.77376e-05
6.99554e-05
5.77339e-05
6.99566e-05
3.77825e-05
1.82628e-05
1.46508e-05
5.06325e-05
1.46509e-05
5.06326e-05
3.77781e-05
3.77824e-05
1.82633e-05
1.4651e-05
5.06336e-05
1.46511e-05
5.06334e-05
3.77775e-05
5.7735e-05
6.99584e-05
6.99571e-05
5.77384e-05
5.7734e-05
6.99566e-05
6.99553e-05
5.77374e-05
6.91376e-05
6.91428e-05
6.91398e-05
6.91449e-05
2.30793e-05
6.16005e-05
6.16087e-05
6.15988e-05
6.16071e-05
6.91428e-05
6.91376e-05
6.91449e-05
6.91397e-05
6.91377e-05
6.91429e-05
6.91395e-05
6.91447e-05
6.16005e-05
6.16089e-05
2.30395e-05
6.16023e-05
6.16107e-05
6.91429e-05
6.91377e-05
6.91448e-05
6.91396e-05
2.30715e-05
6.16028e-05
6.16112e-05
6.16009e-05
6.16092e-05
5.77366e-05
6.99533e-05
5.77332e-05
6.99546e-05
3.77743e-05
5.06317e-05
1.46502e-05
1.82632e-05
3.7782e-05
5.06323e-05
1.46498e-05
3.77737e-05
5.06308e-05
1.46498e-05
1.82626e-05
3.77812e-05
5.06313e-05
1.46494e-05
5.77341e-05
6.99582e-05
6.99568e-05
5.77377e-05
5.77328e-05
6.99546e-05
6.99534e-05
5.77364e-05
3.7778e-05
1.82631e-05
5.06337e-05
1.46493e-05
5.06325e-05
1.46496e-05
3.77708e-05
3.77775e-05
1.82625e-05
5.0632e-05
1.4649e-05
5.06326e-05
1.46493e-05
3.77697e-05
6.16016e-05
6.16e-05
2.30377e-05
6.16031e-05
6.16017e-05
6.91373e-05
6.91423e-05
6.91428e-05
6.91373e-05
2.30702e-05
6.16033e-05
6.16018e-05
6.1602e-05
6.16001e-05
6.91423e-05
6.91372e-05
3.77729e-05
5.06338e-05
1.46504e-05
1.8262e-05
3.77811e-05
5.06344e-05
1.46499e-05
5.77336e-05
6.99543e-05
5.77304e-05
6.99556e-05
3.77704e-05
1.46503e-05
5.06325e-05
1.82641e-05
3.77786e-05
1.46499e-05
5.06332e-05
5.77334e-05
6.99599e-05
6.99585e-05
5.77371e-05
3.77767e-05
1.82619e-05
5.06356e-05
1.46494e-05
5.06344e-05
1.46498e-05
3.77702e-05
5.77303e-05
6.99558e-05
6.99544e-05
5.77338e-05
3.77744e-05
1.8264e-05
1.46494e-05
5.06347e-05
1.46497e-05
5.06334e-05
3.77685e-05
5.77377e-05
6.99567e-05
5.77343e-05
6.99579e-05
3.77728e-05
1.46506e-05
5.06303e-05
1.82635e-05
3.77808e-05
1.46502e-05
5.0631e-05
5.77367e-05
6.99541e-05
5.77333e-05
6.99555e-05
3.77772e-05
1.82614e-05
5.06312e-05
1.46494e-05
5.06308e-05
1.46498e-05
3.77709e-05
5.7734e-05
6.99578e-05
6.99566e-05
5.77377e-05
3.77766e-05
1.82635e-05
1.46497e-05
5.06329e-05
1.465e-05
5.06315e-05
3.77705e-05
5.7733e-05
6.99556e-05
6.99543e-05
5.77367e-05
6.16072e-05
6.16028e-05
2.30405e-05
6.1609e-05
6.16046e-05
6.9138e-05
6.91433e-05
6.91445e-05
6.91393e-05
2.30726e-05
6.16095e-05
6.16051e-05
6.16076e-05
6.16032e-05
6.91433e-05
6.91381e-05
3.77737e-05
1.46509e-05
5.06331e-05
1.82628e-05
3.77818e-05
1.46505e-05
5.06337e-05
5.77379e-05
6.99571e-05
5.77346e-05
6.99585e-05
5.7737e-05
6.99554e-05
5.77337e-05
6.99567e-05
3.77776e-05
1.82625e-05
1.46499e-05
5.06344e-05
1.46502e-05
5.06332e-05
3.77713e-05
3.77776e-05
1.82628e-05
1.465e-05
5.06348e-05
1.46503e-05
5.06337e-05
3.77708e-05
5.77343e-05
6.99587e-05
6.99573e-05
5.77379e-05
5.77333e-05
6.99569e-05
6.99555e-05
5.77369e-05
6.91376e-05
6.91428e-05
6.91397e-05
6.91449e-05
2.30719e-05
6.16013e-05
6.16094e-05
6.15994e-05
6.16076e-05
6.91428e-05
6.91376e-05
6.9145e-05
6.91398e-05
6.91378e-05
6.91429e-05
6.91396e-05
6.91448e-05
6.16013e-05
6.16097e-05
2.3045e-05
6.16031e-05
6.16115e-05
6.91429e-05
6.91378e-05
6.91448e-05
6.91396e-05
2.30757e-05
6.16032e-05
6.16116e-05
6.16015e-05
6.161e-05
5.77368e-05
6.99533e-05
5.77328e-05
6.99544e-05
3.77709e-05
5.0634e-05
1.46492e-05
1.82626e-05
3.77756e-05
5.06345e-05
1.46491e-05
3.77698e-05
5.06322e-05
1.46489e-05
1.8262e-05
3.77748e-05
5.06297e-05
1.46487e-05
5.77346e-05
6.99581e-05
6.99569e-05
5.77385e-05
5.77332e-05
6.99545e-05
6.99532e-05
5.77372e-05
3.77763e-05
1.82625e-05
5.06329e-05
1.4649e-05
5.0634e-05
1.46491e-05
3.77738e-05
3.77752e-05
1.82619e-05
5.063e-05
1.46486e-05
5.06303e-05
1.46487e-05
3.77722e-05
6.16021e-05
6.16003e-05
2.30438e-05
6.16033e-05
6.1602e-05
6.91372e-05
6.91423e-05
6.91428e-05
6.91373e-05
2.30745e-05
6.16036e-05
6.16023e-05
6.16022e-05
6.16005e-05
6.91424e-05
6.91372e-05
3.77706e-05
5.06359e-05
1.46494e-05
1.82614e-05
3.77751e-05
5.06368e-05
1.46492e-05
5.77344e-05
6.99546e-05
5.77306e-05
6.99558e-05
3.77694e-05
1.46494e-05
5.06351e-05
1.82636e-05
3.77732e-05
1.46492e-05
5.06354e-05
5.77341e-05
6.99599e-05
6.99587e-05
5.7738e-05
3.77763e-05
1.82613e-05
5.06353e-05
1.46491e-05
5.06363e-05
1.46492e-05
3.77738e-05
5.77312e-05
6.99557e-05
6.99545e-05
5.77348e-05
3.77751e-05
1.82635e-05
1.46491e-05
5.06337e-05
1.46492e-05
5.06349e-05
3.77725e-05
5.77381e-05
6.99566e-05
5.77341e-05
6.99578e-05
3.77715e-05
1.46497e-05
5.06333e-05
1.82629e-05
3.77752e-05
1.46495e-05
5.06323e-05
5.77371e-05