/*--------------------------------*- C++ -*----------------------------------*\
| =========                 |                                                 |
| \\      /  F ield         | OpenFOAM: The Open Source CFD Toolbox           |
|  \\    /   O peration     | Version:  v2006                                 |
|   \\  /    A nd           | Website:  www.openfoam.com                      |
|    \\/     M anipulation  |                                                 |
\*---------------------------------------------------------------------------*/
FoamFile
{
    version     2.0;
    format      ascii;
    class       surfaceScalarField;
    location    "125";
    object      phi;
}
// * * * * * * * * * * * * * * * * * * * * * * * * * * * * * * * * * * * * * //

dimensions      [0 3 -1 0 0 0 0];
oriented        oriented;


internalField   nonuniform List<scalar> 
123728
(
4.92903e-09
5.62531e-09
-0.00116448
-5.53368e-09
-5.48428e-09
0.00116448
-0.00114467
-1.28963e-06
-5.53416e-09
1.16727e-08
0.00114467
-2.85887e-07
1.29677e-06
2.81227e-07
9.45997e-07
-2.72259e-07
-9.45418e-07
2.62581e-07
-0.00114458
-1.28686e-06
-5.61203e-09
1.17596e-08
0.00114458
-2.85851e-07
1.294e-06
2.81256e-07
9.40501e-07
-2.69549e-07
-9.3998e-07
2.59844e-07
-0.000275658
1.31916e-06
1.27605e-06
-2.63599e-07
-2.74165e-07
0.0002736
4.96371e-09
5.65761e-09
-0.00116448
-5.54491e-09
-5.51061e-09
0.00116448
-0.00114467
-1.28953e-06
-5.52247e-09
1.15913e-08
0.00114467
-2.8585e-07
1.29687e-06
2.81258e-07
9.45984e-07
-2.72249e-07
-9.45436e-07
2.6259e-07
-0.00114458
-1.28675e-06
-5.62574e-09
1.16752e-08
0.00114458
-2.85817e-07
1.29412e-06
2.81281e-07
9.40483e-07
-2.69536e-07
-9.40002e-07
2.59856e-07
-0.000275658
1.31912e-06
1.27601e-06
-2.63571e-07
-2.74109e-07
0.000273601
5.40314e-09
6.05956e-09
-0.00116449
-5.81712e-09
-5.7732e-09
0.00116449
-0.00114467
-1.28938e-06
-5.95136e-09
1.13963e-08
0.00114467
-2.85784e-07
1.29705e-06
2.813e-07
9.46033e-07
-2.72165e-07
-9.45368e-07
2.62647e-07
-0.00114458
-1.28659e-06
-6.05226e-09
1.14836e-08
0.00114458
-2.85746e-07
1.2943e-06
2.81327e-07
9.40532e-07
-2.69459e-07
-9.39931e-07
2.59905e-07
-0.000275658
1.31893e-06
1.27583e-06
-2.63452e-07
-2.74003e-07
0.000273601
5.62186e-09
6.34417e-09
-0.00116449
-5.96832e-09
-5.88765e-09
0.00116449
-0.00114467
-1.28935e-06
-6.21617e-09
1.13693e-08
0.00114467
-2.85743e-07
1.29711e-06
2.81313e-07
9.46045e-07
-2.72113e-07
-9.45325e-07
2.62671e-07
-0.00114458
-1.28659e-06
-6.28896e-09
1.14461e-08
0.00114458
-2.85688e-07
1.29434e-06
2.81363e-07
9.40551e-07
-2.69389e-07
-9.39872e-07
2.59938e-07
-0.000275658
1.31883e-06
1.27573e-06
-2.63392e-07
-2.7394e-07
0.000273601
5.5737e-09
6.22549e-09
-0.00116449
-5.8908e-09
-5.87514e-09
0.00116449
-0.00114467
-1.28943e-06
-6.19053e-09
1.13426e-08
0.00114467
-2.85703e-07
1.29707e-06
2.81342e-07
9.46049e-07
-2.7207e-07
-9.45272e-07
2.62669e-07
-0.00114458
-1.28666e-06
-6.25001e-09
1.14543e-08
0.00114458
-2.85659e-07
1.2943e-06
2.81376e-07
9.40542e-07
-2.69359e-07
-9.39839e-07
2.59932e-07
-0.000275659
1.31884e-06
1.27573e-06
-2.63375e-07
-2.73924e-07
0.000273601
5.46096e-09
6.15252e-09
-0.00116449
-5.79924e-09
-5.75823e-09
0.00116448
-0.00114468
-1.2895e-06
-6.08739e-09
1.13874e-08
0.00114468
-2.85669e-07
1.29698e-06
2.81366e-07
9.46039e-07
-2.72016e-07
-9.45223e-07
2.62674e-07
-0.00114458
-1.28672e-06
-6.12729e-09
1.14766e-08
0.00114458
-2.85627e-07
1.29422e-06
2.81399e-07
9.40536e-07
-2.69324e-07
-9.39778e-07
2.59908e-07
-0.000275659
1.31888e-06
1.27578e-06
-2.63366e-07
-2.73918e-07
0.000273601
5.39069e-09
6.07519e-09
-0.00116448
-5.71541e-09
-5.66827e-09
0.00116448
-0.00114468
-1.28951e-06
-5.94283e-09
1.14069e-08
0.00114468
-2.85637e-07
1.2969e-06
2.8137e-07
9.46042e-07
-2.7197e-07
-9.45137e-07
2.62631e-07
-0.00114458
-1.28675e-06
-6.07672e-09
1.14877e-08
0.00114458
-2.85613e-07
1.29413e-06
2.8139e-07
9.40559e-07
-2.69236e-07
-9.39684e-07
2.5991e-07
-0.000275659
1.31892e-06
1.27581e-06
-2.63344e-07
-2.73898e-07
0.000273601
5.14352e-09
5.8553e-09
-0.00116448
-5.6104e-09
-5.50885e-09
0.00116448
-0.00114467
-1.28949e-06
-5.72494e-09
1.14772e-08
0.00114467
-2.85656e-07
1.29681e-06
2.81299e-07
9.45952e-07
-2.71888e-07
-9.4509e-07
2.6257e-07
-0.00114458
-1.2867e-06
-5.79865e-09
1.15181e-08
0.00114458
-2.85593e-07
1.29407e-06
2.81353e-07
9.40459e-07
-2.69179e-07
-9.39643e-07
2.59829e-07
-0.000275659
1.31894e-06
1.27586e-06
-2.63336e-07
-2.73865e-07
0.000273601
4.88459e-09
5.62142e-09
-0.00116448
-5.42034e-09
-5.35924e-09
0.00116448
-0.00114467
-1.28936e-06
-5.48566e-09
1.15159e-08
0.00114467
-2.85643e-07
1.29683e-06
2.81214e-07
9.45782e-07
-2.71839e-07
-9.45021e-07
2.62398e-07
-0.00114458
-1.28663e-06
-5.58065e-09
1.16333e-08
0.00114458
-2.85621e-07
1.29403e-06
2.81233e-07
9.40302e-07
-2.69115e-07
-9.39567e-07
2.59677e-07
-0.000275659
1.3217e-06
1.2758e-06
-2.63245e-07
-2.7381e-07
0.000273598
4.53575e-09
5.21301e-09
-0.00116448
-5.2017e-09
-5.16293e-09
0.00116448
-0.00114467
-1.28927e-06
-5.17e-09
1.15539e-08
0.00114467
-2.85579e-07
1.29678e-06
2.81112e-07
9.45543e-07
-2.71683e-07
-9.44864e-07
2.62156e-07
-0.00114458
-1.28653e-06
-5.2595e-09
1.16505e-08
0.00114458
-2.85548e-07
1.29398e-06
2.81132e-07
9.40053e-07
-2.68971e-07
-9.39416e-07
2.59426e-07
-0.000275659
1.32162e-06
1.27572e-06
-2.63112e-07
-2.73685e-07
0.000273598
3.99286e-09
4.67652e-09
-0.00116448
-4.98627e-09
-4.93555e-09
0.00116448
-0.00114467
-1.28918e-06
-4.5886e-09
1.16259e-08
0.00114467
-2.85469e-07
1.29658e-06
2.8095e-07
9.45169e-07
-2.71407e-07
-9.44591e-07
2.61797e-07
-0.00114458
-1.28643e-06
-4.64094e-09
1.17512e-08
0.00114458
-2.85431e-07
1.29379e-06
2.80982e-07
9.39666e-07
-2.6871e-07
-9.39151e-07
2.59046e-07
-0.000275659
1.32153e-06
1.27566e-06
-2.62944e-07
-2.73454e-07
0.000273598
3.12069e-09
3.85254e-09
-0.00116448
-4.70218e-09
-4.61172e-09
0.00116448
-0.00114467
-1.28901e-06
-3.65148e-09
1.19408e-08
0.00114467
-2.85349e-07
1.29628e-06
2.80598e-07
9.44496e-07
-2.71008e-07
-9.44185e-07
2.61141e-07
-0.00114458
-1.28622e-06
-3.80529e-09
1.1933e-08
0.00114458
-2.85276e-07
1.29352e-06
2.80661e-07
9.39007e-07
-2.68296e-07
-9.38735e-07
2.58409e-07
-0.000275659
1.32138e-06
1.27551e-06
-2.62575e-07
-2.73115e-07
0.000273597
2.02274e-09
2.71594e-09
-0.00116448
-4.43392e-09
-4.38422e-09
0.00116449
-0.00114467
-1.28866e-06
-2.50186e-09
1.2264e-08
0.00114467
-2.85032e-07
1.29588e-06
2.80069e-07
9.4338e-07
-2.70314e-07
-9.43486e-07
2.60063e-07
-0.00114458
-1.28589e-06
-2.65299e-09
1.23389e-08
0.00114458
-2.84993e-07
1.2931e-06
2.80099e-07
9.37906e-07
-2.67589e-07
-9.38024e-07
2.57339e-07
-0.000275659
1.32103e-06
1.27514e-06
-2.61925e-07
-2.72472e-07
0.000273597
2.34845e-10
9.95378e-10
-0.00116448
-4.16147e-09
-4.13978e-09
0.00116449
-0.00114467
-1.28822e-06
-8.78014e-10
1.27882e-08
0.00114467
-2.84454e-07
1.29498e-06
2.79173e-07
9.41597e-07
-2.69064e-07
-9.42226e-07
2.58321e-07
-0.00114458
-1.28545e-06
-9.26125e-10
1.29693e-08
0.00114458
-2.84437e-07
1.2922e-06
2.79178e-07
9.36106e-07
-2.66358e-07
-9.36782e-07
2.5558e-07
-0.000275659
1.32046e-06
1.27456e-06
-2.60846e-07
-2.71392e-07
0.000273596
-1.67262e-09
-1.13303e-09
-0.00116448
-4.23713e-09
-4.22347e-09
0.00116449
-0.00114467
-1.28744e-06
1.16155e-09
1.36292e-08
0.00114467
-2.83453e-07
1.29329e-06
2.77571e-07
9.38666e-07
-2.66928e-07
-9.40091e-07
2.55423e-07
-0.00114458
-1.28468e-06
1.12849e-09
1.3848e-08
0.00114458
-2.83438e-07
1.2905e-06
2.7757e-07
9.33167e-07
-2.64225e-07
-9.34653e-07
2.52678e-07
-0.00027566
1.31961e-06
1.27372e-06
-2.5904e-07
-2.69588e-07
0.000273595
-4.31463e-09
-3.72757e-09
-0.00116448
-5.01833e-09
-4.97552e-09
0.00116449
-0.00114467
-1.2858e-06
3.78073e-09
1.49793e-08
0.00114467
-2.81626e-07
1.29042e-06
2.74626e-07
9.33724e-07
-2.63276e-07
-9.36527e-07
2.50502e-07
-0.00114458
-1.28304e-06
3.74121e-09
1.51424e-08
0.00114458
-2.81587e-07
1.28762e-06
2.74646e-07
9.28213e-07
-2.60576e-07
-9.31101e-07
2.47759e-07
-0.000275662
1.31799e-06
1.27211e-06
-2.55916e-07
-2.66444e-07
0.000273594
-7.73766e-09
-7.16744e-09
-0.00116447
-7.01804e-09
-6.95741e-09
0.0011645
-0.00114468
-1.2826e-06
7.21683e-09
1.71305e-08
0.00114468
-2.78117e-07
1.28532e-06
2.69193e-07
9.25465e-07
-2.56966e-07
-9.30422e-07
2.4209e-07
-0.00114458
-1.27983e-06
7.14488e-09
1.72837e-08
0.00114459
-2.78079e-07
1.28253e-06
2.69202e-07
9.19963e-07
-2.54255e-07
-9.24994e-07
2.3936e-07
-0.000275664
1.31486e-06
1.26899e-06
-2.50484e-07
-2.60989e-07
0.000273592
-1.26727e-08
-1.21433e-08
-0.00116447
-1.08829e-08
-1.0816e-08
0.00116451
-0.00114468
-1.27631e-06
1.21265e-08
2.12062e-08
0.00114468
-2.7117e-07
1.27573e-06
2.58843e-07
9.11327e-07
-2.4588e-07
-9.19819e-07
2.27598e-07
-0.00114459
-1.27356e-06
1.19991e-08
2.13625e-08
0.00114459
-2.71146e-07
1.27292e-06
2.58845e-07
9.0584e-07
-2.43151e-07
-9.14372e-07
2.24872e-07
-0.000275668
1.30583e-06
1.26275e-06
-2.40992e-07
-2.51469e-07
0.000273592
-2.2178e-09
-1.24017e-08
-0.00116447
-3.08078e-08
-3.06184e-08
0.00116455
-0.00114469
-1.26338e-06
6.91286e-09
2.15755e-08
0.00114472
-2.56751e-07
1.25912e-06
2.4109e-07
8.85638e-07
-2.25953e-07
-8.98075e-07
2.01846e-07
-0.00114459
-1.25783e-06
6.66011e-09
1.58718e-08
0.00114462
-2.53889e-07
1.25358e-06
2.38363e-07
8.85644e-07
-2.2593e-07
-8.9809e-07
2.01876e-07
-0.000275675
1.29564e-06
1.25533e-06
-2.29577e-07
-2.32207e-07
0.000273586
8.79775e-07
8.76093e-07
-0.00116431
-7.70016e-07
-7.64641e-07
0.00116409
-0.001145
-1.15083e-06
-8.81642e-07
-3.55184e-07
0.00114537
-1.55936e-07
1.40796e-06
3.19764e-07
1.03041e-06
-1.0975e-07
-7.74456e-07
2.98241e-07
-0.00114491
-1.14515e-06
-8.87562e-07
-3.55644e-07
0.00114528
-1.58565e-07
1.40801e-06
3.2549e-07
1.02774e-06
-1.09676e-07
-7.71707e-07
2.98345e-07
-0.000275752
1.18307e-06
1.14266e-06
-1.2047e-07
-1.28124e-07
0.000273675
5.43643e-06
5.42919e-06
-0.00115054
-1.12687e-05
-1.12119e-05
0.000279268
0.000282629
0.000281823
0.000281824
4.4383e-06
6.74413e-06
7.12169e-06
4.43653e-06
6.74202e-06
7.1251e-06
-0.000283102
5.35674e-06
-5.43445e-06
5.92368e-06
-3.41742e-06
0.000280673
-0.000283099
-5.43463e-06
5.35699e-06
-3.42022e-06
5.92366e-06
0.000280673
-0.000276711
-5.35606e-06
-5.37044e-06
5.86585e-06
5.85618e-06
0.000275716
-1.3374e-06
-1.29437e-06
0.000275708
-0.000273631
2.73327e-07
2.81348e-07
0.00114407
-4.99094e-09
-0.00114407
1.23546e-08
-1.33004e-06
2.8655e-07
-2.91538e-07
-9.43069e-07
2.59554e-07
-2.6971e-07
9.43211e-07
1.33473e-06
0.0011442
-5.0735e-09
-0.0011442
1.22156e-08
-1.32744e-06
2.86581e-07
-2.91562e-07
-9.48267e-07
2.62343e-07
-2.72379e-07
9.48539e-07
-1.29692e-06
0.000275698
-0.000273621
2.76153e-07
2.78501e-07
0.00114508
-5.68762e-09
-0.00114508
1.17915e-08
-1.28694e-06
2.81279e-07
-2.85898e-07
-9.42792e-07
2.59899e-07
-2.69574e-07
9.43254e-07
1.33197e-06
0.00114409
-5.01284e-09
-0.00114409
1.23956e-08
-1.32466e-06
2.83771e-07
-2.88785e-07
-9.45684e-07
2.62319e-07
-2.72394e-07
9.45779e-07
-5.65412e-09
-0.00114467
1.17118e-08
-1.28949e-06
2.81195e-07
-2.85882e-07
-9.45444e-07
2.62587e-07
9.45985e-07
-2.72242e-07
1.32606e-06
0.00114376
-4.99669e-09
-0.00114376
1.23734e-08
-1.31906e-06
2.83725e-07
-2.8871e-07
-9.42821e-07
2.62309e-07
-2.72326e-07
9.43107e-07
-1.29416e-06
0.000275683
-0.000273609
2.73562e-07
2.7848e-07
-5.71457e-09
-0.00114458
1.18054e-08
-1.28673e-06
2.81229e-07
-2.85843e-07
-9.40013e-07
2.59847e-07
9.40475e-07
-2.6953e-07
1.28304e-06
0.00114476
-5.74125e-09
-0.00114476
1.16389e-08
-1.27595e-06
2.757e-07
-2.80283e-07
-9.42432e-07
2.62662e-07
-2.72131e-07
9.43167e-07
-0.0002736
2.70543e-07
2.81185e-07
1.33016e-06
1.28706e-06
-2.66173e-07
-2.74099e-07
0.000273631
-1.33744e-06
-1.29441e-06
0.000275708
-0.000273631
2.73344e-07
2.81377e-07
1.23256e-08
0.00114407
-2.9155e-07
1.33725e-06
2.8657e-07
9.43241e-07
-2.69721e-07
-9.43046e-07
2.59555e-07
-1.32759e-06
-5.01246e-09
1.22048e-08
0.0011442
-2.91571e-07
1.33457e-06
2.86609e-07
9.48568e-07
-2.72389e-07
-9.48236e-07
2.62346e-07
0.00114407
-4.87505e-09
-0.00114407
1.23597e-08
-1.33006e-06
2.8656e-07
-2.91532e-07
-9.43111e-07
2.59525e-07
-2.69742e-07
9.43163e-07
1.33477e-06
0.0011442
-4.96456e-09
-0.0011442
1.22318e-08
-1.32745e-06
2.86585e-07
-2.91562e-07
-9.48315e-07
2.62319e-07
-2.72409e-07
9.48489e-07
-2.68965e-07
-2.71361e-07
0.000273621
-1.29697e-06
0.000275698
-0.000273621
2.76175e-07
2.78525e-07
1.17694e-08
0.00114508
-2.85914e-07
1.29422e-06
2.81294e-07
9.43301e-07
-2.69589e-07
-9.42762e-07
2.59896e-07
-1.3248e-06
-4.96214e-09
1.23677e-08
0.00114409
-2.88795e-07
1.33181e-06
2.83795e-07
9.45819e-07
-2.72406e-07
-9.45644e-07
2.62318e-07
0.00114508
-5.56886e-09
-0.00114508
1.17718e-08
-1.28696e-06
2.81291e-07
-2.8589e-07
-9.42828e-07
2.59872e-07
-2.69607e-07
9.43206e-07
1.33202e-06
0.00114409
-4.89557e-09
-0.00114409
1.24124e-08
-1.32466e-06
2.83783e-07
-2.88779e-07
-9.45729e-07
2.62293e-07
-2.72425e-07
9.45726e-07
-4.95887e-09
1.23402e-08
0.00114376
-2.88706e-07
1.32601e-06
2.8375e-07
9.43097e-07
-2.72345e-07
2.62288e-07
-9.42804e-07
-5.51088e-09
-0.00114467
1.17098e-08
-1.28949e-06
2.81211e-07
-2.85872e-07
-9.45501e-07
2.62556e-07
9.45924e-07
-2.72277e-07
1.32611e-06
0.00114376
-4.8671e-09
-0.00114376
1.23764e-08
-1.31902e-06
2.83718e-07
-2.88727e-07
-9.4288e-07
2.62283e-07
-2.72363e-07
9.43053e-07
-2.66405e-07
-2.713e-07
0.000273609
-1.29421e-06
0.000275683
-0.000273609
2.73586e-07
2.78523e-07
-5.70197e-09
1.16157e-08
0.00114476
-2.80283e-07
1.28299e-06
2.75717e-07
9.43168e-07
-2.72155e-07
2.62633e-07
-9.42406e-07
-5.59341e-09
-0.00114458
1.17719e-08
-1.28673e-06
2.81252e-07
-2.85824e-07
-9.40063e-07
2.59822e-07
9.40417e-07
-2.6956e-07
1.28308e-06
0.00114476
-5.60721e-09
-0.00114476
1.16437e-08
-1.2759e-06
2.75695e-07
-2.80298e-07
-9.42486e-07
2.62633e-07
-2.72171e-07
9.4311e-07
-0.000273601
2.70564e-07
2.81215e-07
1.33005e-06
1.28696e-06
-2.66112e-07
-2.74022e-07
0.000273631
-1.33749e-06
-1.29448e-06
0.000275708
-0.000273631
2.73426e-07
2.81421e-07
1.2244e-08
0.00114407
-2.91526e-07
1.33738e-06
2.86586e-07
9.43225e-07
-2.69711e-07
-9.43058e-07
2.59563e-07
-1.3275e-06
-5.03901e-09
1.21442e-08
0.0011442
-2.91547e-07
1.33467e-06
2.86623e-07
9.48563e-07
-2.72369e-07
-9.48243e-07
2.62364e-07
0.00114407
-5.26205e-09
-0.00114407
1.21708e-08
-1.33004e-06
2.86653e-07
-2.91433e-07
-9.42985e-07
2.59605e-07
-2.69635e-07
9.43253e-07
1.33486e-06
0.0011442
-5.36542e-09
-0.0011442
1.20911e-08
-1.3274e-06
2.86656e-07
-2.91475e-07
-9.4819e-07
2.62403e-07
-2.72297e-07
9.48572e-07
-2.68907e-07
-2.71298e-07
0.000273621
-1.29705e-06
0.000275698
-0.000273621
2.7624e-07
2.78622e-07
1.16596e-08
0.00114508
-2.85886e-07
1.29434e-06
2.81316e-07
9.43278e-07
-2.69572e-07
-9.42778e-07
2.59911e-07
-1.32468e-06
-4.98981e-09
1.23142e-08
0.00114409
-2.88768e-07
1.33193e-06
2.83815e-07
9.45801e-07
-2.72391e-07
-9.4566e-07
2.62331e-07
0.00114509
-5.92014e-09
-0.00114509
1.16077e-08
-1.28692e-06
2.8138e-07
-2.85794e-07
-9.42697e-07
2.59938e-07
-2.69512e-07
9.43297e-07
1.33207e-06
0.00114409
-5.27421e-09
-0.00114409
1.22162e-08
-1.32465e-06
2.83871e-07
-2.88681e-07
-9.45603e-07
2.62369e-07
-2.72322e-07
9.45805e-07
-4.93903e-09
1.2276e-08
0.00114376
-2.88673e-07
1.32603e-06
2.83787e-07
9.43111e-07
-2.72317e-07
2.62319e-07
-9.42798e-07
-5.87911e-09
-0.00114467
1.15147e-08
-1.28945e-06
2.81298e-07
-2.85772e-07
-9.45392e-07
2.62636e-07
9.45989e-07
-2.72171e-07
1.32628e-06
0.00114376
-5.2509e-09
-0.00114376
1.21952e-08
-1.31887e-06
2.83772e-07
-2.88648e-07
-9.42803e-07
2.62328e-07
-2.72291e-07
9.43092e-07
-2.6634e-07
-2.71221e-07
0.000273609
-1.29429e-06
0.000275683
-0.000273609
2.7368e-07
2.7857e-07
-5.69563e-09
1.15278e-08
0.00114476
-2.80243e-07
1.28299e-06
2.75764e-07
9.43177e-07
-2.72123e-07
2.62671e-07
-9.42403e-07
-5.91934e-09
-0.00114458
1.16149e-08
-1.28668e-06
2.81333e-07
-2.85732e-07
-9.39949e-07
2.59886e-07
9.40487e-07
-2.69466e-07
1.28325e-06
0.00114476
-5.99181e-09
-0.00114476
1.14576e-08
-1.27577e-06
2.75747e-07
-2.80223e-07
-9.42395e-07
2.62682e-07
-2.72096e-07
9.43158e-07
-0.000273601
2.70672e-07
2.81325e-07
1.32993e-06
1.28682e-06
-2.66004e-07
-2.73946e-07
0.000273632
-1.33747e-06
-1.29444e-06
0.000275709
-0.000273632
2.73429e-07
2.81445e-07
1.20615e-08
0.00114407
-2.91447e-07
1.33752e-06
2.86643e-07
9.43284e-07
-2.69627e-07
-9.42971e-07
2.5962e-07
-1.32733e-06
-5.50377e-09
1.19731e-08
0.0011442
-2.91487e-07
1.33485e-06
2.86657e-07
9.48626e-07
-2.72274e-07
-9.48157e-07
2.6243e-07
0.00114407
-5.56811e-09
-0.00114407
1.20588e-08
-1.33005e-06
2.8672e-07
-2.91364e-07
-9.4288e-07
2.59663e-07
-2.69551e-07
9.43327e-07
1.33484e-06
0.0011442
-5.5675e-09
-0.0011442
1.20077e-08
-1.32744e-06
2.86731e-07
-2.91397e-07
-9.48111e-07
2.62424e-07
-2.72243e-07
9.48609e-07
-2.68811e-07
-2.71175e-07
0.000273621
-1.29704e-06
0.000275698
-0.000273621
2.76263e-07
2.78616e-07
1.14913e-08
0.00114509
-2.85806e-07
1.2945e-06
2.81374e-07
9.4332e-07
-2.69501e-07
-9.42699e-07
2.59955e-07
-1.32455e-06
-5.42259e-09
1.21104e-08
0.00114409
-2.88696e-07
1.3321e-06
2.83865e-07
9.45842e-07
-2.72311e-07
-9.45592e-07
2.62386e-07
0.00114509
-6.296e-09
-0.00114509
1.15184e-08
-1.28695e-06
2.81442e-07
-2.85729e-07
-9.42578e-07
2.60009e-07
-2.69419e-07
9.43394e-07
1.33205e-06
0.00114409
-5.60321e-09
-0.00114409
1.21429e-08
-1.32467e-06
2.83935e-07
-2.88614e-07
-9.45484e-07
2.62432e-07
-2.72234e-07
9.45893e-07
-5.36809e-09
1.20772e-08
0.00114376
-2.8862e-07
1.32618e-06
2.83822e-07
9.4317e-07
-2.72245e-07
2.62375e-07
-9.42734e-07
-6.18104e-09
-0.00114467
1.14617e-08
-1.28947e-06
2.81357e-07
-2.85707e-07
-9.45296e-07
2.62678e-07
9.46047e-07
-2.72104e-07
1.32633e-06
0.00114376
-5.57637e-09
-0.00114376
1.21238e-08
-1.31887e-06
2.83823e-07
-2.88579e-07
-9.42707e-07
2.62375e-07
-2.72209e-07
9.43141e-07
-2.66218e-07
-2.71131e-07
0.000273609
-1.29425e-06
0.000275683
-0.000273609
2.73676e-07
2.78589e-07
-6.08839e-09
1.13518e-08
0.00114476
-2.80197e-07
1.28315e-06
2.75794e-07
9.43227e-07
-2.72054e-07
2.62723e-07
-9.42339e-07
-6.24198e-09
-0.00114458
1.15218e-08
-1.28672e-06
2.81403e-07
-2.8566e-07
-9.3984e-07
2.59954e-07
9.40565e-07
-2.69374e-07
1.28329e-06
0.00114476
-6.34744e-09
-0.00114476
1.13975e-08
-1.27577e-06
2.75791e-07
-2.80159e-07
-9.42293e-07
2.62732e-07
-2.72013e-07
9.43219e-07
-0.000273601
2.70708e-07
2.81362e-07
1.32992e-06
1.28682e-06
-2.65975e-07
-2.73905e-07
0.000273632
-1.33738e-06
-1.29436e-06
0.000275709
-0.000273632
2.73391e-07
2.81405e-07
1.19878e-08
0.00114407
-2.9139e-07
1.33757e-06
2.86681e-07
9.43303e-07
-2.69567e-07
-9.42914e-07
2.59646e-07
-1.32731e-06
-5.62539e-09
1.19371e-08
0.0011442
-2.91432e-07
1.33492e-06
2.86688e-07
9.48596e-07
-2.72256e-07
-9.48147e-07
2.62416e-07
0.00114408
-5.59041e-09
-0.00114408
1.21149e-08
-1.3301e-06
2.8673e-07
-2.91351e-07
-9.42834e-07
2.59668e-07
-2.69517e-07
9.43351e-07
1.33473e-06
0.0011442
-5.7118e-09
-0.0011442
1.19796e-08
-1.32751e-06
2.86747e-07
-2.91384e-07
-9.48019e-07
2.62475e-07
-2.72166e-07
9.48685e-07
-2.68768e-07
-2.71148e-07
0.000273621
-1.29693e-06
0.000275698
-0.000273621
2.76213e-07
2.7857e-07
1.14439e-08
0.00114509
-2.85757e-07
1.29454e-06
2.81403e-07
9.43362e-07
-2.69427e-07
-9.42617e-07
2.59997e-07
-1.32454e-06
-5.6596e-09
1.2071e-08
0.00114409
-2.88642e-07
1.33214e-06
2.83896e-07
9.45869e-07
-2.72244e-07
-9.45523e-07
2.6242e-07
0.00114509
-6.26047e-09
-0.00114509
1.15163e-08
-1.287e-06
2.81461e-07
-2.8571e-07
-9.42541e-07
2.60001e-07
-2.69393e-07
9.43408e-07
1.33196e-06
0.00114409
-5.57046e-09
-0.00114409
1.21632e-08
-1.32472e-06
2.8395e-07
-2.88599e-07
-9.45447e-07
2.62423e-07
-2.72212e-07
9.45904e-07
-5.59518e-09
1.20463e-08
0.00114376
-2.88597e-07
1.32629e-06
2.83816e-07
9.43163e-07
-2.72203e-07
2.62384e-07
-9.4271e-07
-6.2663e-09
-0.00114467
1.1442e-08
-1.28955e-06
2.81375e-07
-2.85693e-07
-9.4521e-07
2.62711e-07
9.46105e-07
-2.7204e-07
1.32626e-06
0.00114376
-5.60625e-09
-0.00114376
1.214e-08
-1.31895e-06
2.83853e-07
-2.88539e-07
-9.42651e-07
2.62381e-07
-2.72169e-07
9.43161e-07
-2.66194e-07
-2.71095e-07
0.000273609
-1.29416e-06
0.000275683
-0.000273609
2.73632e-07
2.7855e-07
-6.372e-09
1.13171e-08
0.00114477
-2.80178e-07
1.28326e-06
2.75784e-07
9.43235e-07
-2.72003e-07
2.62745e-07
-9.42298e-07
-6.26792e-09
-0.00114458
1.15427e-08
-1.28678e-06
2.81415e-07
-2.85646e-07
-9.39789e-07
2.59956e-07
9.40584e-07
-2.69344e-07
1.28323e-06
0.00114477
-6.32295e-09
-0.00114477
1.14023e-08
-1.27585e-06
2.75827e-07
-2.80116e-07
-9.42243e-07
2.62724e-07
-2.71983e-07
9.43228e-07
-0.000273601
2.70682e-07
2.81334e-07
1.32999e-06
1.28688e-06
-2.65986e-07
-2.73921e-07
0.000273632
-1.33733e-06
-1.29431e-06
0.000275709
-0.000273632
2.73359e-07
2.81374e-07
1.20317e-08
0.00114408
-2.91363e-07
1.33752e-06
2.86693e-07
9.43301e-07
-2.69537e-07
-9.42875e-07
2.59637e-07
-1.32739e-06
-5.70383e-09
1.1895e-08
0.0011442
-2.91397e-07
1.33487e-06
2.86711e-07
9.48637e-07
-2.72187e-07
-9.4806e-07
2.62438e-07
0.00114408
-5.6018e-09
-0.00114408
1.21096e-08
-1.33009e-06
2.86716e-07
-2.91358e-07
-9.42789e-07
2.59662e-07
-2.69478e-07
9.43361e-07
1.33469e-06
0.0011442
-5.60662e-09
-0.0011442
1.19825e-08
-1.32748e-06
2.8675e-07
-2.91374e-07
-9.48004e-07
2.62432e-07
-2.72166e-07
9.48658e-07
-2.68786e-07
-2.71164e-07
0.000273621
-1.29687e-06
0.000275699
-0.000273622
2.76182e-07
2.78555e-07
1.14327e-08
0.00114509
-2.8572e-07
1.2945e-06
2.81425e-07
9.43343e-07
-2.69413e-07
-9.42593e-07
2.59973e-07
-1.3246e-06
-5.55963e-09
1.20705e-08
0.00114409
-2.88609e-07
1.3321e-06
2.83915e-07
9.45849e-07
-2.72228e-07
-9.45501e-07
2.62399e-07
0.00114509
-6.30287e-09
-0.00114509
1.15445e-08
-1.28699e-06
2.81444e-07
-2.85718e-07
-9.4249e-07
2.6e-07
-2.69348e-07
9.43428e-07
1.33191e-06
0.00114409
-5.62349e-09
-0.00114409
1.21616e-08
-1.32471e-06
2.83938e-07
-2.88603e-07
-9.45388e-07
2.62424e-07
-2.72167e-07
9.45931e-07
-5.60213e-09
1.20576e-08
0.00114376
-2.88575e-07
1.32633e-06
2.83807e-07
9.43142e-07
-2.72178e-07
2.6237e-07
-9.42688e-07
-6.26444e-09
-0.00114468
1.14648e-08
-1.28953e-06
2.8137e-07
-2.85689e-07
-9.45177e-07
2.62701e-07
9.46104e-07
-2.72013e-07
1.32617e-06
0.00114376
-5.6194e-09
-0.00114376
1.21625e-08
-1.31901e-06
2.83863e-07
-2.88524e-07
-9.42578e-07
2.62373e-07
-2.72125e-07
9.43187e-07
-2.66214e-07
-2.71106e-07
0.000273609
-1.29411e-06
0.000275684
-0.00027361
2.73605e-07
2.78518e-07
-6.2745e-09
1.13099e-08
0.00114477
-2.80148e-07
1.2833e-06
2.75785e-07
9.43189e-07
-2.72001e-07
2.62706e-07
-9.42297e-07
-6.28167e-09
-0.00114458
1.15609e-08
-1.28677e-06
2.81401e-07
-2.85653e-07
-9.3973e-07
2.59946e-07
9.40605e-07
-2.69306e-07
1.28315e-06
0.00114477
-6.35821e-09
-0.00114477
1.13965e-08
-1.2759e-06
2.75838e-07
-2.80098e-07
-9.42173e-07
2.6273e-07
-2.71929e-07
9.43261e-07
-0.000273601
2.70645e-07
2.81294e-07
1.33005e-06
1.28695e-06
-2.65992e-07
-2.73926e-07
0.000273632
-1.33733e-06
-1.2943e-06
0.00027571
-0.000273633
2.73349e-07
2.81373e-07
1.20437e-08
0.00114408
-2.91335e-07
1.33744e-06
2.86712e-07
9.43303e-07
-2.69496e-07
-9.42816e-07
2.59621e-07
-1.32744e-06
-5.50206e-09
1.18927e-08
0.0011442
-2.91348e-07
1.33479e-06
2.86749e-07
9.48596e-07
-2.7217e-07
-9.48041e-07
2.62407e-07
0.00114408
-5.66526e-09
-0.00114408
1.21807e-08
-1.33001e-06
2.86685e-07
-2.91352e-07
-9.42753e-07
2.59654e-07
-2.69414e-07
9.4333e-07
1.33468e-06
0.0011442
-5.7946e-09
-0.0011442
1.20105e-08
-1.32741e-06
2.86711e-07
-2.91373e-07
-9.47933e-07
2.62455e-07
-2.72074e-07
9.48675e-07
-2.68793e-07
-2.71154e-07
0.000273622
-1.29689e-06
0.000275699
-0.000273622
2.76201e-07
2.7854e-07
1.14553e-08
0.00114509
-2.85693e-07
1.29442e-06
2.81444e-07
9.43359e-07
-2.69368e-07
-9.4252e-07
2.59957e-07
-1.32467e-06
-5.47218e-09
1.21045e-08
0.00114409
-2.88582e-07
1.33202e-06
2.83932e-07
9.45862e-07
-2.72182e-07
-9.45429e-07
2.62388e-07
0.00114509
-6.33913e-09
-0.00114509
1.15805e-08
-1.28691e-06
2.81411e-07
-2.85714e-07
-9.42464e-07
2.6e-07
-2.69282e-07
9.43388e-07
1.3319e-06
0.00114409
-5.64284e-09
-0.00114409
1.22208e-08
-1.32464e-06
2.83909e-07
-2.88595e-07
-9.45357e-07
2.62411e-07
-2.72108e-07
9.45896e-07
-5.48833e-09
1.20903e-08
0.00114376
-2.88535e-07
1.3263e-06
2.83828e-07
9.43118e-07
-2.72151e-07
2.62338e-07
-9.42642e-07
-6.30519e-09
-0.00114468
1.14967e-08
-1.28944e-06
2.81352e-07
-2.85672e-07
-9.45122e-07
2.62671e-07
9.46095e-07
-2.71958e-07
1.32611e-06
0.00114376
-5.69982e-09
-0.00114376
1.22e-08
-1.319e-06
2.83851e-07
-2.8851e-07
-9.42515e-07
2.62393e-07
-2.72031e-07
9.43191e-07
-2.66213e-07
-2.71111e-07
0.00027361
-1.29409e-06
0.000275684
-0.00027361
2.73586e-07
2.78514e-07
-6.20105e-09
1.1333e-08
0.00114477
-2.80112e-07
1.28327e-06
2.75802e-07
9.43188e-07
-2.71957e-07
2.62689e-07
-9.42232e-07
-6.37138e-09
-0.00114458
1.15971e-08
-1.28671e-06
2.81367e-07
-2.85651e-07
-9.39686e-07
2.5995e-07
9.40594e-07
-2.69233e-07
1.28309e-06
0.00114477
-6.37537e-09
-0.00114477
1.1457e-08
-1.27588e-06
2.75831e-07
-2.80077e-07
-9.42126e-07
2.62726e-07
-2.71858e-07
9.43241e-07
-0.000273602
2.70621e-07
2.81262e-07
1.33007e-06
1.28697e-06
-2.6597e-07
-2.73899e-07
0.000273632
-1.3374e-06
-1.29436e-06
0.000275709
-0.000273632
2.73351e-07
2.81381e-07
1.2052e-08
0.00114408
-2.91311e-07
1.33735e-06
2.86711e-07
9.43307e-07
-2.69415e-07
-9.42741e-07
2.59615e-07
-1.32748e-06
-5.50988e-09
1.19473e-08
0.0011442
-2.91343e-07
1.33469e-06
2.86729e-07
9.48651e-07
-2.72066e-07
-9.47916e-07
2.62424e-07
0.00114408
-5.7794e-09
-0.00114408
1.20664e-08
-1.32989e-06
2.86658e-07
-2.91315e-07
-9.4268e-07
2.59615e-07
-2.69334e-07
9.43264e-07
1.33473e-06
0.0011442
-5.78521e-09
-0.0011442
1.20955e-08
-1.3273e-06
2.86661e-07
-2.9136e-07
-9.47889e-07
2.62382e-07
-2.72019e-07
9.48577e-07
-2.68748e-07
-2.71142e-07
0.000273622
-1.29692e-06
0.000275699
-0.000273622
2.76166e-07
2.78545e-07
1.14721e-08
0.00114509
-2.85676e-07
1.29433e-06
2.81437e-07
9.43359e-07
-2.69274e-07
-9.4245e-07
2.59966e-07
-1.32469e-06
-5.38727e-09
1.21195e-08
0.00114409
-2.88559e-07
1.33194e-06
2.83929e-07
9.45857e-07
-2.72106e-07
-9.45357e-07
2.62376e-07
0.00114509
-6.54057e-09
-0.00114509
1.15729e-08
-1.28679e-06
2.81371e-07
-2.85687e-07
-9.42366e-07
2.59955e-07
-2.69208e-07
9.43352e-07
1.33194e-06
0.00114409
-5.88511e-09
-0.00114409
1.21338e-08
-1.32453e-06
2.83872e-07
-2.88569e-07
-9.45258e-07
2.62396e-07
-2.72006e-07
9.45866e-07
-5.42364e-09
1.20952e-08
0.00114376
-2.88503e-07
1.32623e-06
2.83831e-07
9.43136e-07
-2.72061e-07
2.62331e-07
-9.42542e-07
-6.40028e-09
-0.00114467
1.14931e-08
-1.28935e-06
2.81291e-07
-2.85667e-07
-9.4507e-07
2.62638e-07
9.46015e-07
-2.71869e-07
1.32609e-06
0.00114376
-5.73477e-09
-0.00114376
1.21622e-08
-1.31893e-06
2.83835e-07
-2.88473e-07
-9.42445e-07
2.62352e-07
-2.71954e-07
9.43128e-07
-2.66196e-07
-2.71084e-07
0.00027361
-1.29416e-06
0.000275684
-0.00027361
2.73611e-07
2.78496e-07
-6.14668e-09
1.13651e-08
0.00114477
-2.80076e-07
1.2832e-06
2.75804e-07
9.43187e-07
-2.71879e-07
2.62674e-07
-9.42152e-07
-6.44768e-09
-0.00114458
1.15533e-08
-1.28657e-06
2.81345e-07
-2.85609e-07
-9.39624e-07
2.59893e-07
9.40523e-07
-2.69168e-07
1.28304e-06
0.00114477
-6.54147e-09
-0.00114477
1.14287e-08
-1.27584e-06
2.75801e-07
-2.80057e-07
-9.42023e-07
2.62713e-07
-2.71754e-07
9.43212e-07
-0.000273601
2.70565e-07
2.81238e-07
1.33002e-06
1.28693e-06
-2.65918e-07
-2.73837e-07
0.000273632
-1.33738e-06
-1.29435e-06
0.000275709
-0.000273632
2.73287e-07
2.81311e-07
1.20664e-08
0.00114408
-2.91302e-07
1.33729e-06
2.86663e-07
9.43209e-07
-2.69341e-07
-9.42697e-07
2.5955e-07
-1.32743e-06
-5.16243e-09
1.20393e-08
0.0011442
-2.91341e-07
1.33463e-06
2.86675e-07
9.48519e-07
-2.72028e-07
-9.47904e-07
2.6232e-07
0.00114408
-5.95698e-09
-0.00114408
1.21393e-08
-1.32984e-06
2.86579e-07
-2.91301e-07
-9.42562e-07
2.59481e-07
-2.69259e-07
9.43169e-07
1.33474e-06
0.0011442
-6.05992e-09
-0.0011442
1.20307e-08
-1.32724e-06
2.86603e-07
-2.91324e-07
-9.4777e-07
2.62278e-07
-2.71919e-07
9.48483e-07
-2.68723e-07
-2.71081e-07
0.000273622
-1.29696e-06
0.000275699
-0.000273621
2.76145e-07
2.78473e-07
1.15573e-08
0.00114509
-2.85678e-07
1.29426e-06
2.81376e-07
9.43276e-07
-2.69209e-07
-9.42387e-07
2.599e-07
-1.32466e-06
-5.25983e-09
1.21125e-08
0.00114409
-2.88554e-07
1.33185e-06
2.8388e-07
9.45794e-07
-2.72006e-07
-9.45277e-07
2.62338e-07
0.00114509
-6.68501e-09
-0.00114509
1.15887e-08
-1.28675e-06
2.81302e-07
-2.85666e-07
-9.42267e-07
2.59824e-07
-2.69119e-07
9.43241e-07
1.33197e-06
0.00114409
-5.99388e-09
-0.00114409
1.22004e-08
-1.32446e-06
2.838e-07
-2.88549e-07
-9.45159e-07
2.62247e-07
-2.7194e-07
9.4575e-07
-5.15534e-09
1.21617e-08
0.00114376
-2.88479e-07
1.32614e-06
2.83797e-07
9.43033e-07
-2.71989e-07
2.62255e-07
-9.42493e-07
-6.5973e-09
-0.00114467
1.14988e-08
-1.28927e-06
2.81242e-07
-2.85624e-07
-9.44954e-07
2.62507e-07
9.45911e-07
-2.7179e-07
1.32884e-06
0.00114376
-5.9539e-09
-0.00114376
1.21438e-08
-1.32164e-06
2.8377e-07
-2.88459e-07
-9.42324e-07
2.62243e-07
-2.71869e-07
9.43046e-07
-2.66123e-07
-2.71047e-07
0.00027361
-1.29416e-06
0.000275684
-0.00027361
2.73529e-07
2.78459e-07
-5.91302e-09
1.14352e-08
0.00114477
-2.80064e-07
1.2831e-06
2.75762e-07
9.431e-07
-2.71791e-07
2.62616e-07
-9.42085e-07
-6.67285e-09
-0.00114458
1.15972e-08
-1.28652e-06
2.81257e-07
-2.85599e-07
-9.39513e-07
2.59772e-07
9.40422e-07
-2.69082e-07
1.28303e-06
0.00114477
-6.71269e-09
-0.00114477
1.14198e-08
-1.27574e-06
2.7575e-07
-2.80031e-07
-9.44652e-07
2.62586e-07
-2.71678e-07
9.45866e-07
-0.000273598
2.70525e-07
2.81158e-07
1.32994e-06
1.28685e-06
-2.6584e-07
-2.73763e-07
0.000273632
-1.33734e-06
-1.29432e-06
0.000275709
-0.000273632
2.73192e-07
2.81211e-07
1.21488e-08
0.00114407
-2.91312e-07
1.33727e-06
2.86564e-07
9.4304e-07
-2.69292e-07
-9.42623e-07
2.59381e-07
-1.32734e-06
-4.97971e-09
1.20554e-08
0.0011442
-2.91343e-07
1.33462e-06
2.8658e-07
9.48365e-07
-2.71952e-07
-9.47823e-07
2.62178e-07
0.00114407
-6.29439e-09
-0.00114407
1.20256e-08
-1.32975e-06
2.86559e-07
-2.91174e-07
-9.42364e-07
2.59357e-07
-2.69035e-07
9.43022e-07
1.3347e-06
0.0011442
-6.38769e-09
-0.0011442
1.18494e-08
-1.32716e-06
2.866e-07
-2.91183e-07
-9.47563e-07
2.62144e-07
-2.71703e-07
9.48338e-07
-2.68606e-07
-2.71009e-07
0.000273621
-1.2969e-06
0.000275698
-0.000273621
2.76035e-07
2.78381e-07
1.15878e-08
0.00114509
-2.8568e-07
1.29424e-06
2.81285e-07
9.43119e-07
-2.69162e-07
-9.4231e-07
2.59721e-07
-1.32456e-06
-4.90832e-09
1.22189e-08