/*--------------------------------*- C++ -*----------------------------------*\
| =========                 |                                                 |
| \\      /  F ield         | OpenFOAM: The Open Source CFD Toolbox           |
|  \\    /   O peration     | Version:  v2012                                 |
|   \\  /    A nd           | Website:  www.openfoam.com                      |
|    \\/     M anipulation  |                                                 |
\*---------------------------------------------------------------------------*/
FoamFile
{
    version     2.0;
    format      ascii;
    class       volScalarField;
    location    "500";
    object      epsilon;
}
// * * * * * * * * * * * * * * * * * * * * * * * * * * * * * * * * * * * * * //

dimensions      [0 2 -3 0 0 0 0];


internalField   nonuniform List<scalar> 
171728
(
4.95567e-07
4.97331e-07
4.97331e-07
4.99575e-07
4.45573e-07
4.53736e-07
4.53738e-07
4.63711e-07
4.03752e-07
4.18514e-07
4.18515e-07
4.39411e-07
3.68363e-07
3.88554e-07
3.88556e-07
4.1767e-07
3.38014e-07
3.62105e-07
3.62107e-07
3.96085e-07
3.11645e-07
3.38275e-07
3.38278e-07
3.74584e-07
2.88472e-07
3.1664e-07
3.16643e-07
3.53713e-07
2.67922e-07
2.97024e-07
2.97027e-07
3.34151e-07
2.49579e-07
2.79373e-07
2.79376e-07
3.16489e-07
2.33136e-07
2.63681e-07
2.63684e-07
3.01165e-07
2.18365e-07
2.49959e-07
2.49962e-07
2.88501e-07
2.05089e-07
2.38204e-07
2.38209e-07
2.78708e-07
1.93172e-07
2.28424e-07
2.28427e-07
2.71918e-07
1.82498e-07
2.20636e-07
2.20624e-07
2.68271e-07
1.72983e-07
2.14834e-07
2.14831e-07
2.67958e-07
1.64549e-07
2.11072e-07
2.11061e-07
2.71254e-07
1.57172e-07
2.09748e-07
2.09467e-07
2.7907e-07
1.50788e-07
2.10853e-07
2.1e-07
2.92392e-07
1.45253e-07
2.13661e-07
2.133e-07
3.0943e-07
1.40672e-07
2.19438e-07
2.18898e-07
3.25813e-07
1.36722e-07
2.24602e-07
2.26748e-07
3.39802e-07
1.33936e-07
2.30044e-07
2.32432e-07
3.68826e-07
1.31425e-07
2.40822e-07
2.40014e-07
3.89206e-07
1.29748e-07
2.57036e-07
2.55622e-07
4.08258e-07
1.29706e-07
2.65468e-07
2.65073e-07
4.38716e-07
1.30058e-07
2.82957e-07
2.86617e-07
4.6538e-07
1.31175e-07
3.09321e-07
3.06147e-07
5.18322e-07
1.32502e-07
3.21571e-07
3.269e-07
5.36643e-07
1.34858e-07
3.44029e-07
3.46637e-07
5.81041e-07
1.39038e-07
3.74267e-07
3.67197e-07
6.23597e-07
1.42239e-07
3.85576e-07
3.91848e-07
6.81725e-07
1.47354e-07
4.24312e-07
4.23913e-07
6.97718e-07
1.52971e-07
4.56325e-07
4.50176e-07
7.20515e-07
1.59504e-07
4.78908e-07
4.7737e-07
7.8531e-07
1.66514e-07
5.04007e-07
5.06892e-07
8.19353e-07
1.74434e-07
5.3585e-07
5.36808e-07
8.37516e-07
1.83213e-07
5.65986e-07
5.655e-07
8.76087e-07
1.93039e-07
5.94976e-07
5.95004e-07
9.07343e-07
2.03456e-07
6.25289e-07
6.2726e-07
9.36757e-07
2.14419e-07
6.55721e-07
6.555e-07
9.66481e-07
2.26243e-07
6.85275e-07
6.84603e-07
9.93851e-07
2.38812e-07
7.14465e-07
7.13989e-07
1.02084e-06
2.52078e-07
7.42836e-07
7.43702e-07
1.04755e-06
2.65986e-07
7.70864e-07
7.70618e-07
1.07231e-06
2.80514e-07
7.98115e-07
7.97827e-07
1.09571e-06
2.95489e-07
8.24616e-07
8.24456e-07
1.1174e-06
3.11018e-07
8.49984e-07
8.50753e-07
1.13917e-06
3.26897e-07
8.74549e-07
8.74406e-07
1.15977e-06
3.43032e-07
8.97613e-07
8.97833e-07
1.17973e-06
3.59326e-07
9.20931e-07
9.20398e-07
1.19629e-06
3.75967e-07
9.41741e-07
9.42709e-07
1.21579e-06
3.92765e-07
9.62311e-07
9.62463e-07
1.23212e-06
4.09298e-07
9.82168e-07
9.81655e-07
1.24671e-06
4.25977e-07
1.00048e-06
1.00066e-06
1.26318e-06
4.42118e-07
1.01694e-06
1.01809e-06
1.27604e-06
4.58325e-07
1.03565e-06
1.03373e-06
1.29013e-06
4.73644e-07
1.04827e-06
1.05031e-06
1.30255e-06
4.90353e-07
1.06497e-06
1.06513e-06
1.31578e-06
5.04499e-07
1.07926e-06
1.0766e-06
1.32414e-06
5.19416e-07
1.0897e-06
1.09324e-06
1.34169e-06
5.33812e-07
1.1018e-06
1.10077e-06
1.33796e-06
5.44546e-07
1.11685e-06
1.11439e-06
1.36665e-06
5.63894e-07
1.1173e-06
1.12874e-06
1.36815e-06
5.72609e-07
1.13834e-06
1.12273e-06
1.3393e-06
5.75859e-07
1.13696e-06
1.15017e-06
1.41078e-06
6.04525e-07
1.15872e-06
1.16806e-06
1.36466e-06
6.02982e-07
1.13926e-06
1.12897e-06
1.40638e-06
6.10628e-07
1.17101e-06
1.1727e-06
1.35671e-06
6.33384e-07
1.18794e-06
1.19303e-06
1.45126e-06
6.32667e-07
1.15959e-06
1.15423e-06
1.39097e-06
6.36626e-07
1.17451e-06
1.17778e-06
1.39652e-06
6.49561e-07
1.19216e-06
1.19225e-06
1.43099e-06
6.58476e-07
1.19003e-06
1.18933e-06
1.4129e-06
6.62689e-07
1.18853e-06
1.18953e-06
1.42345e-06
6.6673e-07
1.19326e-06
1.19307e-06
1.4296e-06
6.70877e-07
1.19328e-06
1.19319e-06
1.42393e-06
6.75689e-07
1.19493e-06
1.19523e-06
1.42663e-06
6.80498e-07
1.19824e-06
1.1984e-06
1.43095e-06
6.8391e-07
1.19857e-06
1.19836e-06
1.43146e-06
6.8641e-07
1.1979e-06
1.19821e-06
1.43078e-06
6.8851e-07
1.19758e-06
1.19738e-06
1.43072e-06
6.90239e-07
1.19653e-06
1.19702e-06
1.43172e-06
6.9177e-07
1.19604e-06
1.19606e-06
1.42895e-06
6.92365e-07
1.19401e-06
1.19403e-06
1.43043e-06
6.9326e-07
1.1922e-06
1.19311e-06
1.42651e-06
6.93107e-07
1.19131e-06
1.19034e-06
1.42698e-06
6.93036e-07
1.18732e-06
1.18842e-06
1.42376e-06
6.92612e-07
1.18608e-06
1.18537e-06
1.42252e-06
6.921e-07
1.18372e-06
1.18375e-06
1.42146e-06
6.90437e-07
1.17801e-06
1.17852e-06
1.41472e-06
6.89811e-07
1.17777e-06
1.17771e-06
1.41892e-06
6.88594e-07
1.17483e-06
1.17383e-06
1.41088e-06
6.85686e-07
1.16727e-06
1.16861e-06
1.40675e-06
6.84826e-07
1.16818e-06
1.16773e-06
1.41156e-06
6.65888e-07
1.10994e-06
1.11017e-06
1.35835e-06
5.06417e-07
5.05584e-07
5.05582e-07
5.06417e-07
5.05583e-07
5.05583e-07
5.09649e-07
5.09649e-07
5.09649e-07
5.09649e-07
5.05584e-07
5.05584e-07
5.06417e-07
5.05584e-07
5.05583e-07
5.06418e-07
4.99575e-07
4.67236e-07
4.97331e-07
4.97335e-07
4.63713e-07
4.63721e-07
4.99575e-07
4.67237e-07
4.97334e-07
4.97335e-07
4.63718e-07
4.63723e-07
4.97332e-07
4.6371e-07
4.63715e-07
4.99575e-07
4.67239e-07
4.97334e-07
4.63711e-07
4.63719e-07
4.67243e-07
4.63708e-07
4.41422e-07
4.53739e-07
4.53748e-07
4.26738e-07
4.26747e-07
4.63709e-07
4.41422e-07
4.53743e-07
4.5375e-07
4.26738e-07
4.26749e-07
4.53743e-07
4.26732e-07
4.26742e-07
4.6371e-07
4.41428e-07
4.53745e-07
4.26734e-07
4.26742e-07
4.41434e-07
4.39404e-07
4.19278e-07
4.18521e-07
4.1853e-07
3.95675e-07
3.95684e-07
4.39408e-07
4.19279e-07
4.18521e-07
4.18533e-07
3.9567e-07
3.95686e-07
4.18526e-07
3.95665e-07
3.9568e-07
4.39409e-07
4.19285e-07
4.18525e-07
3.95668e-07
3.95675e-07
4.19293e-07
4.17658e-07
3.9764e-07
3.88564e-07
3.88573e-07
3.6846e-07
3.68468e-07
4.1766e-07
3.97641e-07
3.88558e-07
3.88576e-07
3.6845e-07
3.6847e-07
3.8857e-07
3.68447e-07
3.68466e-07
4.17664e-07
3.97647e-07
3.88564e-07
3.68449e-07
3.68455e-07
3.97655e-07
3.96071e-07
3.7608e-07
3.62118e-07
3.62126e-07
3.44031e-07
3.44038e-07
3.96074e-07
3.76081e-07
3.62108e-07
3.62129e-07
3.44017e-07
3.44041e-07
3.62124e-07
3.44016e-07
3.44037e-07
3.96078e-07
3.76087e-07
3.62113e-07
3.44018e-07
3.44023e-07
3.76096e-07
3.7457e-07
3.55106e-07
3.38291e-07
3.38298e-07
3.21873e-07
3.21878e-07
3.74572e-07
3.55106e-07
3.38277e-07
3.38301e-07
3.21856e-07
3.21881e-07
3.38297e-07
3.21856e-07
3.21879e-07
3.74577e-07
3.55113e-07
3.38283e-07
3.21858e-07
3.21862e-07
3.55122e-07
3.53699e-07
3.3539e-07
3.16658e-07
3.16664e-07
3.01762e-07
3.01767e-07
3.53701e-07
3.35391e-07
3.1664e-07
3.16666e-07
3.01743e-07
3.01769e-07
3.16663e-07
3.01743e-07
3.01767e-07
3.53705e-07
3.35397e-07
3.16646e-07
3.01745e-07
3.01748e-07
3.35407e-07
3.34137e-07
3.17528e-07
2.97043e-07
2.97048e-07
2.83622e-07
2.83626e-07
3.34139e-07
3.1753e-07
2.97024e-07
2.9705e-07
2.83601e-07
2.83628e-07
2.97048e-07
2.83602e-07
2.83627e-07
3.34144e-07
3.17535e-07
2.97029e-07
2.83605e-07
2.83606e-07
3.17546e-07
3.16473e-07
3.01969e-07
2.79393e-07
2.79397e-07
2.67441e-07
2.67445e-07
3.16477e-07
3.01971e-07
2.79372e-07
2.79399e-07
2.67418e-07
2.67447e-07
2.79398e-07
2.6742e-07
2.67446e-07
3.1648e-07
3.01978e-07
2.79377e-07
2.67422e-07
2.67424e-07
3.01986e-07
3.01152e-07
2.89043e-07
2.63703e-07
2.63707e-07
2.53227e-07
2.53231e-07
3.01153e-07
2.8904e-07
2.6368e-07
2.63709e-07
2.53203e-07
2.53232e-07
2.63708e-07
2.53205e-07
2.53231e-07
3.01157e-07
2.89047e-07
2.63685e-07
2.53207e-07
2.53208e-07
2.89059e-07
2.88488e-07
2.78948e-07
2.49983e-07
2.49986e-07
2.40981e-07
2.40986e-07
2.88489e-07
2.78956e-07
2.49957e-07
2.49987e-07
2.40957e-07
2.40988e-07
2.49985e-07
2.40958e-07
2.40985e-07
2.88494e-07
2.78965e-07
2.49962e-07
2.40962e-07
2.40962e-07
2.78972e-07
2.78689e-07
2.71845e-07
2.38227e-07
2.38233e-07
2.30709e-07
2.30715e-07
2.78697e-07
2.71869e-07
2.38203e-07
2.38235e-07
2.30681e-07
2.30716e-07
2.38234e-07
2.30684e-07
2.30713e-07
2.78704e-07
2.71869e-07
2.3821e-07
2.30687e-07
2.30683e-07
2.71881e-07
2.71889e-07
2.6791e-07
2.28454e-07
2.28457e-07
2.22409e-07
2.22423e-07
2.71912e-07
2.67973e-07
2.28422e-07
2.28458e-07
2.22382e-07
2.22423e-07
2.28455e-07
2.22392e-07
2.22416e-07
2.71911e-07
2.67944e-07
2.28427e-07
2.2239e-07
2.2239e-07
2.67975e-07
2.68206e-07
2.67124e-07
2.20649e-07
2.2067e-07
2.16116e-07
2.16132e-07
2.68274e-07
2.6727e-07
2.20624e-07
2.20661e-07
2.16064e-07
2.16135e-07
2.20662e-07
2.16107e-07
2.16134e-07
2.68239e-07
2.67175e-07
2.20627e-07
2.16106e-07
2.16097e-07
2.67265e-07
2.67816e-07
2.69606e-07
2.14863e-07
2.14872e-07
2.11819e-07
2.11911e-07
2.67976e-07
2.69946e-07
2.14813e-07
2.14857e-07
2.11781e-07
2.11856e-07
2.14889e-07
2.11849e-07
2.11871e-07
2.67874e-07
2.69685e-07
2.14855e-07
2.11815e-07
2.11816e-07
2.69794e-07
2.71014e-07
2.76152e-07
2.11093e-07
2.11135e-07
2.09658e-07
2.0979e-07
2.71425e-07
2.76847e-07
2.11055e-07
2.11097e-07
2.09636e-07
2.09753e-07
2.1111e-07
2.09737e-07
2.09793e-07
2.71129e-07
2.76152e-07
2.11068e-07
2.09734e-07
2.09729e-07
2.76518e-07
2.78531e-07
2.88397e-07
2.09558e-07
2.09802e-07
2.1004e-07
2.10553e-07
2.79436e-07
2.9109e-07
2.09523e-07
2.09498e-07
2.09995e-07
2.09745e-07
2.09734e-07
2.10471e-07
2.10193e-07
2.78528e-07
2.86741e-07
2.09646e-07
2.09664e-07
2.10109e-07
2.89148e-07
2.9159e-07
3.0195e-07
2.10367e-07
2.10949e-07
2.12132e-07
2.12754e-07
2.94501e-07
3.05979e-07
2.1035e-07
2.10113e-07
2.12144e-07
2.12308e-07
2.10511e-07
2.12675e-07
2.12586e-07
2.89783e-07
3.0353e-07
2.10462e-07
2.1226e-07
2.12737e-07
3.05015e-07
3.0532e-07
3.16399e-07
2.12801e-07
2.1368e-07
2.15732e-07
2.17613e-07
3.10254e-07
3.26546e-07
2.12786e-07
2.13287e-07
2.15605e-07
2.16994e-07
2.1364e-07
2.1783e-07
2.16901e-07
3.07831e-07
3.25059e-07
2.13796e-07
2.17032e-07
2.16734e-07
3.22362e-07
3.21204e-07
3.36375e-07
2.17309e-07
2.19246e-07
2.21992e-07
2.23526e-07
3.31652e-07
3.44586e-07
2.17142e-07
2.18956e-07
2.218e-07
2.25352e-07
2.18e-07
2.23373e-07
2.21465e-07
3.30637e-07
3.53589e-07
2.17751e-07
2.25055e-07
2.21332e-07
3.35791e-07
3.39563e-07
3.51059e-07
2.23053e-07
2.24836e-07
2.28489e-07
2.28793e-07
3.4758e-07
3.52775e-07
2.22898e-07
2.27017e-07
2.28514e-07
2.31234e-07
2.23206e-07
2.28606e-07
2.30435e-07
3.58087e-07
3.64171e-07
2.23104e-07
2.31189e-07
2.30319e-07
3.6207e-07
3.58072e-07
3.81253e-07
2.31568e-07
2.30193e-07
2.39517e-07
2.37078e-07
3.55351e-07
3.70166e-07
2.31623e-07
2.32448e-07
2.39518e-07
2.37142e-07
2.33017e-07
2.36927e-07
2.40109e-07
3.66008e-07
3.70825e-07
2.32962e-07
2.36971e-07
2.40301e-07
3.84852e-07
3.83737e-07
3.85229e-07
2.41264e-07
2.40976e-07
2.46533e-07
2.53843e-07
3.78643e-07
4.19902e-07
2.4123e-07
2.40216e-07
2.46475e-07
2.52328e-07
2.42364e-07
2.53725e-07
2.50474e-07
3.75748e-07
4.12372e-07
2.42571e-07
2.52225e-07
2.50489e-07
4.02888e-07
3.91297e-07
4.33397e-07
2.49978e-07
2.57163e-07
2.64245e-07
2.63659e-07
4.26137e-07
4.27622e-07
2.49937e-07
2.55711e-07
2.64193e-07
2.62369e-07
2.53544e-07
2.63527e-07
2.64204e-07
4.19125e-07
4.24271e-07
2.53492e-07
2.62278e-07
2.64054e-07
4.31308e-07
4.44207e-07
4.77656e-07
2.68935e-07
2.65584e-07
2.8292e-07
2.76752e-07
4.29071e-07
4.49827e-07
2.68848e-07
2.65147e-07
2.82819e-07
2.80669e-07
2.68077e-07
2.76602e-07
2.78637e-07
4.2722e-07
4.68216e-07
2.67913e-07
2.80541e-07
2.7852e-07
4.58142e-07
4.85119e-07
5.09793e-07
2.87264e-07
2.83137e-07
3.00882e-07
3.04072e-07
4.63081e-07
5.24974e-07
2.87197e-07
2.86794e-07
3.00841e-07
3.01711e-07
2.83145e-07
3.03913e-07
3.00643e-07
4.81834e-07
5.14694e-07
2.83074e-07
3.01532e-07
3.00603e-07
5.09274e-07
5.18633e-07
5.41465e-07
3.06127e-07
3.09455e-07
3.20708e-07
3.19301e-07
5.33467e-07
5.34655e-07
3.06034e-07
3.06286e-07
3.20528e-07
3.21896e-07
3.05941e-07
3.19099e-07
3.17607e-07
5.21506e-07
5.49709e-07
3.05855e-07
3.2171e-07
3.17435e-07
5.31501e-07
5.45918e-07
5.62906e-07
3.24211e-07
3.21822e-07
3.37099e-07
3.3604e-07
5.36173e-07
5.58516e-07
3.2404e-07
3.27138e-07
3.36995e-07
3.41601e-07
3.21849e-07
3.35896e-07
3.39594e-07
5.57948e-07
5.78044e-07
3.21701e-07
3.41452e-07
3.39553e-07
5.71341e-07
5.75729e-07
6.34006e-07
3.44442e-07
3.44095e-07
3.69168e-07
3.6885e-07
5.73619e-07
6.31519e-07
3.44383e-07
3.46715e-07
3.69144e-07
3.6279e-07
3.4534e-07
3.68674e-07
3.62608e-07
5.85257e-07
6.04998e-07
3.45335e-07
3.62611e-07
3.62598e-07
6.11614e-07
6.41572e-07
6.46094e-07
3.75419e-07
3.74558e-07
3.8789e-07
3.82448e-07
6.37581e-07
6.23444e-07
3.75307e-07
3.67458e-07
3.87597e-07
3.84408e-07
3.7027e-07
3.82116e-07
3.94663e-07
6.10555e-07
6.35877e-07
3.70164e-07
3.84157e-07
3.9435e-07
6.73111e-07
6.51988e-07
6.92616e-07
3.93124e-07
3.85789e-07
4.14994e-07
4.129e-07
6.2559e-07
6.90327e-07
3.92881e-07
3.92035e-07
4.14977e-07
4.16346e-07
4.01273e-07
4.12805e-07
4.16831e-07
6.4853e-07
6.98332e-07
4.0102e-07
4.1624e-07
4.16829e-07
6.93602e-07
7.0333e-07
7.28503e-07
4.2242e-07
4.24418e-07
4.4249e-07
4.50615e-07
7.12444e-07
7.56079e-07
4.22392e-07
4.24032e-07
4.42336e-07
4.44248e-07
4.21696e-07
4.5044e-07
4.37703e-07
7.08906e-07
7.33292e-07
4.21694e-07
4.44061e-07
4.37563e-07
7.11573e-07
7.36411e-07
7.66914e-07
4.49186e-07
4.56532e-07
4.71146e-07
4.73372e-07
7.61248e-07
7.70782e-07
4.48996e-07
4.50376e-07
4.70923e-07
4.70307e-07
4.44487e-07
4.73095e-07
4.70972e-07
7.40372e-07
7.6354e-07
4.44311e-07
4.70044e-07
4.70759e-07
7.71224e-07
7.76048e-07
7.99217e-07
4.78545e-07
4.7918e-07
4.99178e-07
4.97252e-07
7.76335e-07
7.9255e-07
4.78316e-07
4.77637e-07
4.98985e-07
4.99789e-07
4.80472e-07
4.97082e-07
5.04367e-07
7.72894e-07
8.01622e-07
4.80257e-07
4.99599e-07
5.04181e-07
8.14153e-07
8.06875e-07
8.322e-07
5.06053e-07
5.04148e-07
5.27971e-07
5.27838e-07
8.004e-07
8.33563e-07
5.05872e-07
5.07043e-07
5.27819e-07
5.29511e-07
5.10445e-07
5.27666e-07
5.27707e-07
8.10202e-07
8.36709e-07
5.10275e-07
5.29354e-07
5.27567e-07
8.30273e-07
8.40747e-07
8.65184e-07
5.35422e-07
5.36056e-07
5.57608e-07
5.59099e-07
8.43723e-07
8.69009e-07
5.35255e-07
5.36992e-07
5.57438e-07
5.58728e-07
5.34504e-07
5.58876e-07
5.58003e-07
8.45165e-07
8.673e-07
5.34356e-07
5.58511e-07
5.57838e-07
8.66993e-07
8.7364e-07
9.01062e-07
5.65183e-07
5.66184e-07
5.8875e-07
5.87693e-07
8.76268e-07
8.96817e-07
5.65005e-07
5.65695e-07
5.88538e-07
5.87185e-07
5.65938e-07
5.87523e-07
5.88521e-07
8.74467e-07
8.96478e-07
5.65772e-07
5.87014e-07
5.88315e-07
8.99705e-07
9.09632e-07
9.31962e-07
5.96632e-07
5.95151e-07
6.19265e-07
6.17857e-07
9.04799e-07
9.28604e-07
5.96403e-07
5.95177e-07
6.19051e-07
6.1981e-07
5.95924e-07
6.1767e-07
6.18245e-07
9.05658e-07
9.33839e-07
5.95706e-07
6.19625e-07
6.18033e-07
9.29138e-07
9.39199e-07
9.58983e-07
6.26555e-07
6.25474e-07
6.48359e-07
6.48349e-07
9.36661e-07
9.59499e-07
6.26354e-07
6.27444e-07
6.48187e-07
6.48709e-07
6.25636e-07
6.4816e-07
6.48118e-07
9.41603e-07
9.5927e-07
6.25444e-07
6.48521e-07
6.47947e-07
9.58772e-07
9.66331e-07
9.87127e-07
6.55686e-07
6.55901e-07
6.77892e-07
6.78116e-07
9.67205e-07
9.87806e-07
6.55495e-07
6.55676e-07
6.77686e-07
6.77428e-07
6.55723e-07
6.77957e-07
6.77903e-07
9.65863e-07
9.85675e-07
6.5554e-07
6.77277e-07
6.77703e-07
9.86881e-07
9.94448e-07
1.01424e-06
6.85276e-07
6.85429e-07
7.07164e-07
7.07386e-07
9.95012e-07
1.0148e-06
6.8507e-07
6.8475e-07
7.06952e-07
7.06601e-07
6.85078e-07
7.07219e-07
7.06786e-07
9.93018e-07
1.01339e-06
6.84883e-07
7.06436e-07
7.06571e-07
1.01352e-06
1.02128e-06
1.04007e-06
7.14397e-07
7.14632e-07
7.35882e-07
7.35936e-07
1.02183e-06
1.04023e-06
7.1417e-07
7.14153e-07
7.35672e-07
7.36868e-07
7.14158e-07
7.35793e-07
7.36077e-07
1.02111e-06
1.04232e-06
7.13932e-07
7.3672e-07
7.35867e-07
1.0407e-06
1.04692e-06
1.06525e-06
7.42996e-07
7.42972e-07
7.64153e-07
7.64049e-07
1.04696e-06
1.06506e-06
7.42797e-07
7.43839e-07
7.63953e-07
7.63872e-07
7.43219e-07
7.63903e-07
7.64331e-07
1.04878e-06
1.0643e-06
7.43024e-07
7.63731e-07
7.64131e-07
1.06567e-06
1.07183e-06
1.0891e-06
7.71073e-07
7.7101e-07
7.91598e-07
7.91467e-07
1.07171e-06
1.08893e-06
7.70858e-07
7.70753e-07
7.91404e-07
7.91358e-07
7.71295e-07
7.91342e-07
7.91838e-07
1.0708e-06
1.08825e-06
7.71083e-07
7.91231e-07
7.91643e-07
1.08949e-06
1.09554e-06
1.11143e-06
7.98394e-07
7.98236e-07
8.18109e-07
8.18284e-07
1.09537e-06
1.11192e-06
7.98206e-07
7.97948e-07
8.17893e-07
8.17764e-07
7.98507e-07
8.18169e-07
8.18089e-07
1.09442e-06
1.11117e-06
7.98322e-07
8.17642e-07
8.17872e-07
1.11135e-06
1.11744e-06
1.13342e-06
8.24508e-07
8.24728e-07
8.43886e-07
8.43742e-07
1.11796e-06
1.13318e-06
8.24278e-07
8.24573e-07
8.43687e-07
8.44605e-07
8.24534e-07
8.43637e-07
8.43789e-07
1.11788e-06
1.1349e-06
8.24306e-07
8.44496e-07
8.43589e-07
1.13318e-06
1.13951e-06
1.15406e-06
8.50299e-07
8.50086e-07
8.68777e-07
8.68719e-07
1.13919e-06
1.15402e-06
8.5011e-07
8.50856e-07
8.68595e-07
8.68667e-07
8.50135e-07
8.68626e-07
8.68667e-07
1.1406e-06
1.15359e-06
8.49948e-07
8.68556e-07
8.68482e-07
1.15402e-06
1.15957e-06
1.17323e-06
8.74709e-07
8.74639e-07
8.92307e-07
8.9189e-07
1.15953e-06
1.17256e-06
8.74509e-07
8.74511e-07
8.92098e-07
8.92105e-07
8.74744e-07
8.91814e-07
8.92801e-07
1.15904e-06
1.17282e-06
8.74547e-07
8.92024e-07
8.92595e-07
1.17432e-06
1.17876e-06
1.19127e-06
8.98128e-07
8.97688e-07
9.14824e-07
9.15306e-07
1.17815e-06
1.19283e-06
8.97926e-07
8.97909e-07
9.14621e-07
9.14898e-07
8.98598e-07
9.15231e-07
9.14848e-07
1.17836e-06
1.19171e-06
8.984e-07
9.14805e-07
9.14644e-07
1.19123e-06
1.19639e-06
1.20974e-06
9.20198e-07
9.21003e-07
9.36662e-07
9.36741e-07
1.19826e-06
1.20949e-06
9.19978e-07
9.20492e-07
9.36436e-07
9.37352e-07
9.20178e-07
9.36682e-07
9.3687e-07
1.19719e-06
1.21108e-06
9.19961e-07
9.37262e-07
9.36648e-07
1.21026e-06
1.21529e-06
1.22753e-06
9.42216e-07
9.41792e-07
9.58074e-07
9.57274e-07
1.21428e-06
1.22624e-06
9.42008e-07
9.42782e-07
9.57915e-07
9.57812e-07
9.42441e-07
9.57223e-07
9.58101e-07
1.21626e-06
1.22678e-06
9.42242e-07
9.57753e-07
9.57952e-07
1.22758e-06
1.23213e-06
1.24239e-06
9.62927e-07
9.62365e-07
9.77072e-07
9.77227e-07
1.23129e-06
1.24299e-06
9.62754e-07
9.62528e-07
9.76879e-07
9.76808e-07
9.62937e-07
9.77207e-07
9.76934e-07
1.23127e-06
1.242e-06
9.62775e-07
9.76757e-07
9.76736e-07
1.24195e-06
1.24747e-06
1.25895e-06
9.81956e-07
9.82186e-07
9.96562e-07
9.96393e-07
1.24808e-06
1.25837e-06
9.81751e-07
9.81697e-07
9.96316e-07
9.96134e-07
9.81637e-07
9.96327e-07
9.96073e-07
1.24702e-06
1.25827e-06
9.81433e-07
9.96058e-07
9.9584e-07
1.25834e-06
1.2633e-06
1.27142e-06
1.00108e-06
1.00055e-06
1.01349e-06
1.01246e-06
1.26224e-06
1.27017e-06
1.00083e-06
1.00074e-06
1.0133e-06
1.01396e-06
1.0009e-06
1.01245e-06
1.01398e-06
1.26285e-06
1.27249e-06
1.00067e-06
1.01392e-06
1.01379e-06
1.27221e-06
1.27562e-06
1.28543e-06
1.01749e-06
1.01693e-06
1.0301e-06
1.03139e-06
1.27524e-06
1.28838e-06
1.01732e-06
1.01812e-06
1.02997e-06
1.02993e-06
1.01773e-06
1.03135e-06
1.02979e-06
1.27677e-06
1.28487e-06
1.01758e-06
1.02987e-06
1.02966e-06
1.28526e-06
1.28984e-06
1.29652e-06
1.03441e-06
1.03571e-06
1.04519e-06
1.04527e-06
1.29253e-06
1.29596e-06
1.03422e-06
1.03381e-06
1.04487e-06
1.04612e-06
1.03432e-06
1.04525e-06
1.04667e-06
1.28892e-06
1.2992e-06
1.03414e-06
1.04608e-06
1.04636e-06
1.29908e-06
1.3002e-06
1.31497e-06
1.0485e-06
1.04826e-06
1.06219e-06
1.06048e-06
1.29937e-06
1.31157e-06
1.04821e-06
1.05034e-06
1.06211e-06
1.06178e-06
1.04998e-06
1.06049e-06
1.06077e-06
1.30392e-06
1.31199e-06
1.0497e-06
1.06181e-06
1.06068e-06
1.31102e-06
1.32062e-06
1.31877e-06
1.06719e-06
1.06497e-06
1.07533e-06
1.07618e-06
1.31661e-06
1.32385e-06
1.06712e-06
1.06512e-06
1.07512e-06
1.07381e-06
1.06497e-06
1.07608e-06
1.0753e-06
1.31531e-06
1.31965e-06
1.0649e-06
1.07366e-06
1.07509e-06
1.32174e-06
1.31999e-06
1.33327e-06
1.0763e-06
1.07936e-06
1.0862e-06
1.08771e-06
1.32737e-06
1.3321e-06
1.07606e-06
1.07674e-06
1.08576e-06
1.08863e-06
1.07753e-06
1.0878e-06
1.08811e-06
1.32323e-06
1.33625e-06
1.07728e-06
1.08872e-06
1.08769e-06
1.33509e-06
1.34171e-06
1.34303e-06
1.09241e-06
1.0896e-06
1.10244e-06
1.09607e-06
1.33406e-06
1.33608e-06
1.09206e-06
1.09314e-06
1.10262e-06
1.10013e-06
1.09331e-06
1.09626e-06
1.10061e-06
1.34143e-06
1.33783e-06
1.09298e-06
1.10023e-06
1.1008e-06
1.33806e-06
1.34344e-06
1.33912e-06
1.10287e-06
1.10176e-06
1.10359e-06
1.11621e-06
1.34374e-06
1.36423e-06
1.1031e-06
1.10071e-06
1.10338e-06
1.10731e-06
1.10062e-06
1.11582e-06
1.10494e-06
1.3388e-06
1.35138e-06
1.10087e-06
1.10655e-06
1.10448e-06
1.34853e-06
1.34659e-06
1.3826e-06
1.10686e-06
1.1172e-06
1.13069e-06
1.11573e-06
1.36489e-06
1.34127e-06
1.1059e-06
1.11495e-06
1.13062e-06
1.12755e-06
1.11602e-06
1.11615e-06
1.13112e-06
1.36223e-06
1.37001e-06
1.11492e-06
1.12837e-06
1.13096e-06
1.37658e-06
1.38977e-06
1.36342e-06
1.13591e-06
1.11667e-06
1.13682e-06
1.13741e-06
1.34625e-06
1.38651e-06
1.13629e-06
1.12778e-06
1.13722e-06
1.1239e-06
1.12901e-06
1.13628e-06
1.11575e-06
1.36912e-06
1.34642e-06
1.12925e-06
1.12309e-06
1.11589e-06
1.32324e-06
1.35691e-06
1.32295e-06
1.12937e-06
1.13991e-06
1.1184e-06
1.13624e-06
1.38884e-06
1.35879e-06
1.12905e-06
1.1239e-06
1.11744e-06
1.13738e-06
1.11835e-06
1.1365e-06
1.15101e-06
1.34969e-06
1.38273e-06
1.11806e-06
1.13808e-06
1.15014e-06
1.41079e-06
1.34178e-06
1.45525e-06
1.12214e-06
1.13618e-06
1.17363e-06
1.15638e-06
1.36212e-06
1.41055e-06
1.12142e-06
1.14776e-06
1.17437e-06
1.16793e-06
1.15279e-06
1.15658e-06
1.1446e-06
1.39795e-06
1.42903e-06
1.15222e-06
1.16857e-06
1.14515e-06
1.36018e-06
1.45783e-06
1.3219e-06
1.17871e-06
1.15982e-06
1.14678e-06
1.1457e-06
1.41299e-06
1.33918e-06
1.17947e-06
1.16807e-06
1.14654e-06
1.13681e-06
1.14494e-06
1.14411e-06
1.16128e-06
1.42558e-06
1.3162e-06
1.14549e-06
1.13519e-06
1.1609e-06
1.40616e-06
1.31375e-06
1.38457e-06
1.13243e-06
1.13926e-06
1.13522e-06
1.15037e-06
1.33761e-06
1.4094e-06
1.13184e-06
1.1291e-06
1.13424e-06
1.14597e-06
1.16151e-06
1.1533e-06
1.14647e-06
1.31342e-06
1.41094e-06
1.16102e-06
1.14911e-06
1.14579e-06
1.35421e-06
1.41572e-06
1.44868e-06
1.16009e-06
1.16978e-06
1.1962e-06
1.19187e-06
1.43197e-06
1.43266e-06
1.15937e-06
1.17139e-06
1.19649e-06
1.1987e-06
1.14594e-06
1.19026e-06
1.181e-06
1.43913e-06
1.44039e-06
1.14535e-06
1.1971e-06
1.18134e-06
1.44127e-06
1.44086e-06
1.36837e-06
1.19537e-06
1.18952e-06
1.16488e-06
1.16119e-06
1.42542e-06
1.3641e-06
1.19574e-06
1.19467e-06
1.16456e-06
1.1561e-06
1.19081e-06
1.16241e-06
1.18589e-06
1.4281e-06
1.34906e-06
1.19114e-06
1.15732e-06
1.18558e-06
1.39624e-06
1.36947e-06
1.39865e-06
1.1605e-06
1.15816e-06
1.16547e-06
1.16742e-06
1.36633e-06
1.40402e-06
1.15997e-06
1.15279e-06
1.16495e-06
1.16897e-06
1.17339e-06
1.16713e-06
1.16184e-06
1.35222e-06
1.41012e-06
1.17287e-06
1.16875e-06
1.16136e-06
1.38318e-06
1.40769e-06
1.42404e-06
1.17222e-06
1.17522e-06
1.18733e-06
1.19036e-06
1.41409e-06
1.42935e-06
1.17198e-06
1.17842e-06
1.18741e-06
1.19161e-06
1.16521e-06
1.19017e-06
1.18814e-06
1.42153e-06
1.42905e-06
1.16501e-06
1.1914e-06
1.18823e-06
1.42917e-06
1.42723e-06
1.42459e-06
1.19023e-06
1.19211e-06
1.19288e-06
1.19151e-06
1.43121e-06
1.42034e-06
1.19022e-06
1.19226e-06
1.19262e-06
1.19015e-06
1.19052e-06
1.19159e-06
1.18781e-06
1.42996e-06
1.41873e-06
1.19053e-06
1.19014e-06
1.18753e-06
1.41191e-06
1.42599e-06
1.42173e-06
1.19274e-06
1.1902e-06
1.19133e-06
1.1887e-06
1.42135e-06
1.41746e-06
1.19244e-06
1.18954e-06
1.19117e-06
1.18933e-06
1.18642e-06
1.18829e-06
1.18728e-06
1.42008e-06
1.41936e-06
1.18614e-06
1.18886e-06
1.18714e-06
1.41877e-06
1.42333e-06
1.42056e-06
1.19119e-06
1.18889e-06
1.19153e-06
1.19231e-06
1.42022e-06
1.42327e-06
1.19108e-06
1.19e-06
1.19141e-06
1.19239e-06
1.19001e-06
1.19251e-06
1.19511e-06
1.42181e-06
1.42292e-06
1.18994e-06
1.19258e-06
1.19498e-06
1.42817e-06
1.42203e-06
1.41963e-06
1.19163e-06
1.19298e-06
1.19187e-06
1.19324e-06
1.42537e-06
1.42167e-06
1.19146e-06
1.19281e-06
1.19163e-06
1.19297e-06
1.19549e-06
1.19352e-06
1.19431e-06
1.42478e-06
1.42131e-06
1.19533e-06
1.19324e-06
1.19409e-06
1.42255e-06
1.42199e-06
1.4249e-06
1.19219e-06
1.19307e-06
1.19451e-06
1.1938e-06
1.42317e-06
1.42409e-06
1.19195e-06
1.19297e-06
1.19435e-06
1.19432e-06
1.1938e-06
1.19377e-06
1.19381e-06
1.42293e-06
1.42457e-06
1.19359e-06
1.19425e-06
1.19365e-06
1.42389e-06
1.42777e-06
1.42966e-06
1.19557e-06
1.19498e-06
1.19807e-06
1.19778e-06
1.42697e-06
1.4294e-06
1.19542e-06
1.19529e-06
1.19789e-06
1.19797e-06
1.19476e-06
1.19774e-06
1.19753e-06
1.4273e-06
1.42954e-06
1.19462e-06
1.19791e-06
1.19735e-06
1.42891e-06
1.43163e-06
1.42964e-06
1.19848e-06
1.19826e-06
1.19867e-06
1.19861e-06
1.43144e-06
1.42986e-06
1.19829e-06
1.19844e-06
1.1985e-06
1.19859e-06
1.19801e-06
1.19859e-06
1.19859e-06
1.43165e-06
1.42944e-06
1.19784e-06
1.19857e-06
1.19843e-06
1.42964e-06
1.43133e-06
1.42941e-06
1.19861e-06
1.19859e-06
1.19831e-06
1.19807e-06
1.43158e-06
1.42903e-06
1.19843e-06
1.19838e-06
1.19808e-06
1.19815e-06
1.19863e-06
1.19811e-06
1.19841e-06
1.43097e-06
1.42941e-06
1.19846e-06
1.19815e-06
1.19818e-06
1.42934e-06
1.43111e-06
1.42919e-06
1.19819e-06
1.19786e-06
1.19773e-06
1.19764e-06
1.43058e-06
1.42952e-06
1.19799e-06
1.19821e-06
1.19766e-06
1.19791e-06
1.19801e-06
1.1976e-06
1.1973e-06
1.43145e-06
1.42907e-06
1.19781e-06
1.19785e-06
1.19719e-06
1.42835e-06
1.43097e-06
1.42874e-06
1.19764e-06
1.19764e-06
1.19709e-06
1.19698e-06
1.43149e-06
1.4283e-06
1.19752e-06
1.19745e-06
1.19679e-06
1.19687e-06
1.19736e-06
1.19704e-06
1.19774e-06
1.43052e-06
1.42883e-06
1.19725e-06
1.19688e-06
1.19751e-06
1.43039e-06
1.43036e-06
1.42924e-06
1.19689e-06
1.19645e-06
1.1964e-06
1.19599e-06
1.42976e-06
1.4289e-06
1.19662e-06
1.19696e-06
1.19633e-06
1.19685e-06
1.19752e-06
1.19598e-06
1.1956e-06
1.43115e-06
1.4291e-06
1.19728e-06
1.19684e-06
1.19552e-06
1.42695e-06
1.43105e-06
1.42634e-06
1.19623e-06
1.19612e-06
1.19452e-06
1.19532e-06
1.43127e-06
1.42704e-06
1.19618e-06
1.19619e-06
1.1942e-06
1.19421e-06
1.19545e-06
1.19533e-06
1.19541e-06
1.43041e-06
1.42606e-06
1.19536e-06
1.1942e-06
1.19518e-06
1.4291e-06
1.42779e-06
1.42706e-06
1.19391e-06
1.19393e-06
1.19307e-06
1.19211e-06
1.42816e-06
1.42472e-06
1.19361e-06
1.19399e-06
1.19301e-06
1.1935e-06
1.19515e-06
1.19213e-06
1.19247e-06
1.4281e-06
1.42749e-06
1.19487e-06
1.19355e-06
1.19241e-06
1.42478e-06
1.42924e-06
1.42363e-06
1.193e-06
1.19222e-06
1.19138e-06
1.19234e-06
1.42777e-06
1.42634e-06
1.19297e-06
1.19316e-06
1.19108e-06
1.19109e-06
1.19212e-06
1.19227e-06
1.19163e-06
1.42892e-06
1.4242e-06
1.19209e-06
1.19099e-06
1.19146e-06
1.42571e-06
1.42477e-06
1.4222e-06
1.19005e-06
1.19131e-06
1.18816e-06
1.1875e-06
1.42733e-06
1.42003e-06
1.18973e-06
1.19038e-06
1.18802e-06
1.1886e-06
1.19112e-06
1.18755e-06
1.18834e-06
1.42566e-06
1.42262e-06
1.19075e-06
1.18866e-06
1.18821e-06
1.42178e-06
1.42499e-06
1.42121e-06
1.18812e-06
1.18729e-06
1.18725e-06
1.18692e-06
1.42261e-06
1.42194e-06
1.18802e-06
1.18837e-06
1.18709e-06
1.18628e-06
1.18802e-06
1.18688e-06
1.18672e-06
1.42457e-06
1.4204e-06
1.18794e-06
1.18621e-06
1.18657e-06
1.42125e-06
1.42228e-06
1.41892e-06
1.18581e-06
1.18615e-06
1.18347e-06
1.18393e-06
1.42317e-06
1.41976e-06
1.18559e-06
1.18543e-06
1.18328e-06
1.18394e-06
1.18578e-06
1.18393e-06
1.18383e-06
1.42174e-06
1.42009e-06
1.18559e-06
1.18392e-06
1.18363e-06
1.41933e-06
1.42148e-06
1.4137e-06
1.18335e-06
1.1837e-06
1.18034e-06
1.17966e-06
1.42207e-06
1.41263e-06
1.18317e-06
1.18376e-06
1.18016e-06
1.17992e-06
1.18358e-06
1.17966e-06
1.17988e-06
1.42226e-06
1.41328e-06
1.18339e-06
1.1799e-06
1.17972e-06
1.41354e-06
1.41469e-06
1.41515e-06
1.17868e-06
1.17802e-06
1.1773e-06
1.1769e-06
1.41356e-06
1.41488e-06
1.17851e-06
1.17852e-06
1.17717e-06
1.1774e-06
1.17871e-06
1.17691e-06
1.17775e-06
1.41434e-06
1.41549e-06
1.17857e-06
1.17743e-06
1.17764e-06
1.41625e-06
1.41833e-06
1.41103e-06
1.17772e-06
1.17775e-06
1.17593e-06
1.17676e-06
1.4186e-06
1.41244e-06
1.17758e-06
1.17771e-06
1.17564e-06
1.17535e-06
1.17795e-06
1.17672e-06
1.17522e-06
1.41841e-06
1.41041e-06
1.17782e-06
1.17525e-06
1.17492e-06
1.40991e-06
1.41193e-06
1.40417e-06
1.17436e-06
1.17489e-06
1.16871e-06
1.16798e-06
1.41318e-06
1.40243e-06
1.17405e-06
1.17392e-06
1.16862e-06
1.16935e-06
1.17374e-06
1.16798e-06
1.16903e-06
1.41142e-06
1.40551e-06
1.17345e-06
1.16934e-06
1.16894e-06
1.40515e-06
1.40561e-06
1.40673e-06
1.168e-06
1.16724e-06
1.16709e-06
1.16699e-06
1.40381e-06
1.4077e-06
1.16795e-06
1.16861e-06
1.16697e-06
1.16707e-06
1.16849e-06
1.16704e-06
1.16754e-06
1.40696e-06
1.40615e-06
1.16844e-06
1.16712e-06
1.16743e-06
1.40756e-06
1.41135e-06
1.38947e-06
1.16788e-06
1.16813e-06
1.14925e-06
1.14899e-06
1.41262e-06
1.38795e-06
1.16771e-06
1.16767e-06
1.14902e-06
1.1485e-06
1.16817e-06
1.149e-06
1.14806e-06
1.4104e-06
1.38867e-06
1.16804e-06
1.14854e-06
1.14787e-06
1.38641e-06
1.36035e-06
1.11043e-06
1.10998e-06
1.35896e-06
1.11031e-06
1.11021e-06
6.65752e-07
6.658e-07
6.65551e-07
1.10949e-06
1.36034e-06
1.10939e-06
5.35663e-07
5.35601e-07
5.35655e-07
5.35655e-07
5.34573e-07
5.35516e-07
5.33634e-07
5.35654e-07
5.34573e-07
5.35517e-07
5.35654e-07
5.33634e-07
5.35256e-07
5.35987e-07
5.35987e-07
1.10716e-06
3.88073e-06
9.33919e-07
4.60577e-06
1.26086e-05
1.66015e-05
1.10712e-06
3.88126e-06
9.33932e-07
4.6063e-06
4.95567e-07
4.95567e-07
4.95567e-07
4.57231e-07
4.57231e-07
4.57232e-07
4.57232e-07
5.43136e-07
1.22024e-06
4.95565e-07
4.85523e-07
5.25345e-07
1.20948e-06
4.82301e-07
1.26098e-05
1.66029e-05
5.43156e-07
4.95565e-07
1.22026e-06
4.85523e-07
5.25334e-07
4.82301e-07
1.20949e-06
2.52183e-06
2.52237e-06
4.84192e-07
2.37257e-06
2.37281e-06
1.43088e-06
5.59306e-06
1.32969e-06
6.13595e-06
2.1285e-05
2.31112e-05
1.43097e-06
5.59382e-06
1.32981e-06
6.13675e-06
4.45573e-07
4.45573e-07