/*--------------------------------*- C++ -*----------------------------------*\
| =========                 |                                                 |
| \\      /  F ield         | OpenFOAM: The Open Source CFD Toolbox           |
|  \\    /   O peration     | Version:  v2006                                 |
|   \\  /    A nd           | Website:  www.openfoam.com                      |
|    \\/     M anipulation  |                                                 |
\*---------------------------------------------------------------------------*/
FoamFile
{
    version     2.0;
    format      ascii;
    class       volScalarField;
    location    "500";
    object      epsilon;
}
// * * * * * * * * * * * * * * * * * * * * * * * * * * * * * * * * * * * * * //

dimensions      [0 2 -3 0 0 0 0];


internalField   nonuniform List<scalar> 
171728
(
4.95567e-07
4.97331e-07
4.97331e-07
4.99575e-07
4.45573e-07
4.53736e-07
4.53738e-07
4.63711e-07
4.03752e-07
4.18514e-07
4.18515e-07
4.39411e-07
3.68363e-07
3.88554e-07
3.88556e-07
4.1767e-07
3.38014e-07
3.62105e-07
3.62107e-07
3.96085e-07
3.11645e-07
3.38275e-07
3.38278e-07
3.74584e-07
2.88472e-07
3.1664e-07
3.16643e-07
3.53713e-07
2.67922e-07
2.97024e-07
2.97027e-07
3.34151e-07
2.49579e-07
2.79373e-07
2.79376e-07
3.16489e-07
2.33136e-07
2.63681e-07
2.63684e-07
3.01166e-07
2.18365e-07
2.49959e-07
2.49962e-07
2.88501e-07
2.05089e-07
2.38204e-07
2.38209e-07
2.78708e-07
1.93172e-07
2.28424e-07
2.28425e-07
2.71917e-07
1.82498e-07
2.20637e-07
2.20624e-07
2.68269e-07
1.72984e-07
2.14824e-07
2.14845e-07
2.67957e-07
1.64546e-07
2.11085e-07
2.11088e-07
2.71261e-07
1.57172e-07
2.09746e-07
2.09726e-07
2.79183e-07
1.50835e-07
2.10936e-07
2.10005e-07
2.91942e-07
1.45321e-07
2.13591e-07
2.13609e-07
3.09327e-07
1.40659e-07
2.19358e-07
2.17804e-07
3.24592e-07
1.36593e-07
2.25184e-07
2.25718e-07
3.40365e-07
1.33591e-07
2.29814e-07
2.33968e-07
3.67445e-07
1.3172e-07
2.40209e-07
2.42795e-07
3.80436e-07
1.29997e-07
2.54223e-07
2.56127e-07
4.07878e-07
1.29098e-07
2.64279e-07
2.72492e-07
4.49957e-07
1.30326e-07
2.89024e-07
2.7832e-07
4.78528e-07
1.31462e-07
3.07439e-07
3.01647e-07
4.92805e-07
1.32399e-07
3.18686e-07
3.28443e-07
5.35573e-07
1.35058e-07
3.46708e-07
3.4973e-07
5.87979e-07
1.38717e-07
3.7554e-07
3.67703e-07
6.07971e-07
1.42782e-07
3.85904e-07
3.89113e-07
6.9421e-07
1.47484e-07
4.24783e-07
4.22585e-07
7.03381e-07
1.52739e-07
4.54595e-07
4.52006e-07
7.20322e-07
1.59127e-07
4.76121e-07
4.77855e-07
7.8232e-07
1.66507e-07
5.06943e-07
5.06856e-07
8.19425e-07
1.74489e-07
5.36836e-07
5.36992e-07
8.38839e-07
1.83312e-07
5.65415e-07
5.64782e-07
8.75832e-07
1.93092e-07
5.94579e-07
5.95594e-07
9.0703e-07
2.03326e-07
6.25326e-07
6.26974e-07
9.36814e-07
2.14427e-07
6.55805e-07
6.55616e-07
9.66491e-07
2.26299e-07
6.85329e-07
6.84357e-07
9.93798e-07
2.38815e-07
7.14413e-07
7.14126e-07
1.02092e-06
2.52088e-07
7.42762e-07
7.43611e-07
1.04754e-06
2.65979e-07
7.70869e-07
7.70676e-07
1.07225e-06
2.80519e-07
7.9809e-07
7.97917e-07
1.09569e-06
2.95461e-07
8.2458e-07
8.24393e-07
1.11744e-06
3.11041e-07
8.50022e-07
8.50662e-07
1.13912e-06
3.26901e-07
8.74538e-07
8.74545e-07
1.15982e-06
3.43032e-07
8.9767e-07
8.97743e-07
1.17973e-06
3.59308e-07
9.20802e-07
9.20323e-07
1.19628e-06
3.7599e-07
9.41817e-07
9.42862e-07
1.21578e-06
3.92747e-07
9.62321e-07
9.62327e-07
1.23213e-06
4.09277e-07
9.82127e-07
9.81833e-07
1.24668e-06
4.25995e-07
1.00046e-06
1.00066e-06
1.26317e-06
4.42111e-07
1.01698e-06
1.0178e-06
1.27618e-06
4.58329e-07
1.03564e-06
1.03389e-06
1.28994e-06
4.73664e-07
1.04813e-06
1.05051e-06
1.30269e-06
4.90383e-07
1.06526e-06
1.06495e-06
1.31578e-06
5.044e-07
1.07917e-06
1.07666e-06
1.32415e-06
5.19521e-07
1.08943e-06
1.0934e-06
1.3418e-06
5.33751e-07
1.10234e-06
1.10017e-06
1.33736e-06
5.4455e-07
1.11641e-06
1.11554e-06
1.36866e-06
5.64213e-07
1.11776e-06
1.12802e-06
1.36423e-06
5.7203e-07
1.13779e-06
1.12246e-06
1.34513e-06
5.76526e-07
1.13704e-06
1.15168e-06
1.4076e-06
6.04343e-07
1.15816e-06
1.16655e-06
1.36791e-06
6.02408e-07
1.13922e-06
1.12927e-06
1.40338e-06
6.11975e-07
1.17309e-06
1.17539e-06
1.35969e-06
6.32898e-07
1.1858e-06
1.18998e-06
1.45032e-06
6.32299e-07
1.15986e-06
1.15477e-06
1.38877e-06
6.37009e-07
1.17568e-06
1.17905e-06
1.39936e-06
6.49718e-07
1.19184e-06
1.19172e-06
1.43041e-06
6.58324e-07
1.18965e-06
1.18905e-06
1.41238e-06
6.62639e-07
1.18871e-06
1.18993e-06
1.42424e-06
6.66687e-07
1.19317e-06
1.19289e-06
1.42867e-06
6.70896e-07
1.19325e-06
1.19312e-06
1.42396e-06
6.75752e-07
1.1951e-06
1.19541e-06
1.427e-06
6.80511e-07
1.19823e-06
1.19837e-06
1.4308e-06
6.83872e-07
1.19848e-06
1.19823e-06
1.43133e-06
6.8643e-07
1.19795e-06
1.19832e-06
1.43089e-06
6.88482e-07
1.19757e-06
1.19726e-06
1.4307e-06
6.90281e-07
1.19657e-06
1.19715e-06
1.43172e-06
6.91732e-07
1.196e-06
1.19585e-06
1.42888e-06
6.92356e-07
1.19397e-06
1.19408e-06
1.43045e-06
6.93303e-07
1.19234e-06
1.19314e-06
1.42661e-06
6.9306e-07
1.19106e-06
1.19026e-06
1.42672e-06
6.93065e-07
1.18743e-06
1.18848e-06
1.42409e-06
6.92617e-07
1.18608e-06
1.18544e-06
1.42246e-06
6.92111e-07
1.1837e-06
1.18376e-06
1.42134e-06
6.90413e-07
1.17798e-06
1.1785e-06
1.41478e-06
6.89865e-07
1.17802e-06
1.17792e-06
1.41913e-06
6.88525e-07
1.17441e-06
1.1735e-06
1.4104e-06
6.85711e-07
1.16743e-06
1.16875e-06
1.4072e-06
6.84894e-07
1.16838e-06
1.16794e-06
1.4118e-06
6.65773e-07
1.10951e-06
1.10982e-06
1.35751e-06
5.06417e-07
5.05584e-07
5.05582e-07
5.06417e-07
5.05583e-07
5.05583e-07
5.09649e-07
5.09649e-07
5.09649e-07
5.09649e-07
5.05584e-07
5.05584e-07
5.06417e-07
5.05584e-07
5.05583e-07
5.06418e-07
4.99575e-07
4.67236e-07
4.97331e-07
4.97335e-07
4.63713e-07
4.63721e-07
4.99575e-07
4.67237e-07
4.97334e-07
4.97335e-07
4.63718e-07
4.63723e-07
4.97332e-07
4.6371e-07
4.63715e-07
4.99575e-07
4.67239e-07
4.97334e-07
4.63711e-07
4.63719e-07
4.67243e-07
4.63708e-07
4.41422e-07
4.53739e-07
4.53748e-07
4.26738e-07
4.26747e-07
4.63709e-07
4.41422e-07
4.53743e-07
4.5375e-07
4.26738e-07
4.26749e-07
4.53743e-07
4.26732e-07
4.26742e-07
4.6371e-07
4.41428e-07
4.53745e-07
4.26734e-07
4.26742e-07
4.41434e-07
4.39404e-07
4.19278e-07
4.18521e-07
4.1853e-07
3.95675e-07
3.95684e-07
4.39408e-07
4.19279e-07
4.18521e-07
4.18533e-07
3.9567e-07
3.95686e-07
4.18526e-07
3.95665e-07
3.9568e-07
4.39409e-07
4.19285e-07
4.18525e-07
3.95668e-07
3.95675e-07
4.19293e-07
4.17658e-07
3.9764e-07
3.88564e-07
3.88573e-07
3.6846e-07
3.68468e-07
4.1766e-07
3.97641e-07
3.88558e-07
3.88576e-07
3.6845e-07
3.6847e-07
3.8857e-07
3.68447e-07
3.68466e-07
4.17664e-07
3.97647e-07
3.88564e-07
3.68449e-07
3.68455e-07
3.97655e-07
3.96071e-07
3.7608e-07
3.62118e-07
3.62126e-07
3.44031e-07
3.44038e-07
3.96074e-07
3.76081e-07
3.62108e-07
3.62129e-07
3.44017e-07
3.44041e-07
3.62124e-07
3.44016e-07
3.44037e-07
3.96078e-07
3.76087e-07
3.62113e-07
3.44018e-07
3.44023e-07
3.76096e-07
3.7457e-07
3.55106e-07
3.38291e-07
3.38298e-07
3.21873e-07
3.21878e-07
3.74572e-07
3.55106e-07
3.38277e-07
3.38301e-07
3.21856e-07
3.21881e-07
3.38297e-07
3.21856e-07
3.21879e-07
3.74577e-07
3.55113e-07
3.38283e-07
3.21858e-07
3.21862e-07
3.55122e-07
3.53699e-07
3.3539e-07
3.16658e-07
3.16664e-07
3.01762e-07
3.01767e-07
3.53701e-07
3.35391e-07
3.1664e-07
3.16666e-07
3.01742e-07
3.01769e-07
3.16663e-07
3.01743e-07
3.01767e-07
3.53705e-07
3.35397e-07
3.16646e-07
3.01745e-07
3.01748e-07
3.35407e-07
3.34138e-07
3.17527e-07
2.97043e-07
2.97048e-07
2.83622e-07
2.83626e-07
3.34139e-07
3.1753e-07
2.97024e-07
2.9705e-07
2.83601e-07
2.83628e-07
2.97048e-07
2.83602e-07
2.83627e-07
3.34143e-07
3.17535e-07
2.97029e-07
2.83605e-07
2.83606e-07
3.17547e-07
3.16473e-07
3.01972e-07
2.79393e-07
2.79397e-07
2.67441e-07
2.67445e-07
3.16477e-07
3.01971e-07
2.79372e-07
2.794e-07
2.67419e-07
2.67447e-07
2.79398e-07
2.6742e-07
2.67446e-07
3.1648e-07
3.01978e-07
2.79377e-07
2.67422e-07
2.67424e-07
3.01987e-07
3.01153e-07
2.8904e-07
2.63703e-07
2.63707e-07
2.53227e-07
2.53231e-07
3.01153e-07
2.89041e-07
2.6368e-07
2.63709e-07
2.53202e-07
2.53232e-07
2.63708e-07
2.53205e-07
2.53231e-07
3.01157e-07
2.89049e-07
2.63685e-07
2.53207e-07
2.53208e-07
2.89058e-07
2.88486e-07
2.78955e-07
2.49982e-07
2.49986e-07
2.40981e-07
2.40986e-07
2.88489e-07
2.78956e-07
2.49957e-07
2.49987e-07
2.40957e-07
2.40988e-07
2.49985e-07
2.40958e-07
2.40985e-07
2.88494e-07
2.78965e-07
2.49962e-07
2.40962e-07
2.40961e-07
2.78971e-07
2.78697e-07
2.71856e-07
2.38228e-07
2.38233e-07
2.3071e-07
2.30715e-07
2.78697e-07
2.71868e-07
2.38203e-07
2.38235e-07
2.30682e-07
2.30716e-07
2.38234e-07
2.30684e-07
2.30713e-07
2.78705e-07
2.7187e-07
2.3821e-07
2.30687e-07
2.30685e-07
2.7188e-07
2.71898e-07
2.67918e-07
2.28455e-07
2.28457e-07
2.22411e-07
2.22424e-07
2.71912e-07
2.67977e-07
2.28423e-07
2.28457e-07
2.22383e-07
2.22424e-07
2.28455e-07
2.22394e-07
2.22417e-07
2.7191e-07
2.6795e-07
2.28427e-07
2.22392e-07
2.2239e-07
2.67973e-07
2.68212e-07
2.67118e-07
2.2065e-07
2.20671e-07
2.16113e-07
2.16134e-07
2.68278e-07
2.67273e-07
2.20625e-07
2.20656e-07
2.16061e-07
2.1613e-07
2.2066e-07
2.1611e-07
2.16135e-07
2.68248e-07
2.6721e-07
2.20626e-07
2.16098e-07
2.16098e-07
2.67263e-07
2.67816e-07
2.6964e-07
2.14868e-07
2.14868e-07
2.11821e-07
2.119e-07
2.6798e-07
2.69958e-07
2.14819e-07
2.14876e-07
2.1179e-07
2.11847e-07
2.1489e-07
2.11848e-07
2.11859e-07
2.67916e-07
2.69841e-07
2.14854e-07
2.11818e-07
2.11812e-07
2.69797e-07
2.7106e-07
2.76149e-07
2.11096e-07
2.1115e-07
2.09656e-07
2.09802e-07
2.71446e-07
2.76912e-07
2.11065e-07
2.11124e-07
2.09625e-07
2.09916e-07
2.11112e-07
2.09745e-07
2.09836e-07
2.71321e-07
2.76769e-07
2.1107e-07
2.0989e-07
2.0978e-07
2.76577e-07
2.78556e-07
2.89084e-07
2.09581e-07
2.09808e-07
2.10103e-07
2.10581e-07
2.7953e-07
2.91141e-07
2.09544e-07
2.09757e-07
2.10067e-07
2.09852e-07
2.09777e-07
2.10501e-07
2.10122e-07
2.79414e-07
2.87231e-07
2.09683e-07
2.09765e-07
2.10075e-07
2.8895e-07
2.92443e-07
3.05194e-07
2.10571e-07
2.11039e-07
2.12741e-07
2.12901e-07
2.94784e-07
3.06608e-07
2.10565e-07
2.10102e-07
2.12733e-07
2.12488e-07
2.10412e-07
2.12846e-07
2.12569e-07
2.89847e-07
3.04384e-07
2.10374e-07
2.12465e-07
2.12697e-07
3.04722e-07
3.08437e-07
3.17558e-07
2.13407e-07
2.13597e-07
2.16034e-07
2.17193e-07
3.10224e-07
3.24069e-07
2.13369e-07
2.13586e-07
2.15921e-07
2.16741e-07
2.13667e-07
2.17396e-07
2.16697e-07
3.09479e-07
3.23188e-07
2.13791e-07
2.16729e-07
2.16496e-07
3.21362e-07
3.21461e-07
3.30483e-07
2.17393e-07
2.19199e-07
2.20647e-07
2.24267e-07
3.30041e-07
3.48093e-07
2.17239e-07
2.17893e-07
2.20461e-07
2.23757e-07
2.17703e-07
2.24091e-07
2.21466e-07
3.26883e-07
3.45581e-07
2.17427e-07
2.23482e-07
2.21359e-07
3.35455e-07
3.33193e-07
3.4745e-07
2.21797e-07
2.25423e-07
2.276e-07
2.28665e-07
3.50768e-07
3.51799e-07
2.21659e-07
2.25963e-07
2.27626e-07
2.31741e-07
2.2354e-07
2.28452e-07
2.30773e-07
3.52334e-07
3.68591e-07
2.23472e-07
2.31682e-07
2.3067e-07
3.62906e-07
3.53685e-07
3.75893e-07
2.2988e-07
2.30008e-07
2.38481e-07
2.36712e-07
3.53968e-07
3.68048e-07
2.29916e-07
2.34014e-07
2.38483e-07
2.40964e-07
2.32748e-07
2.36624e-07
2.38375e-07
3.73295e-07
3.88556e-07
2.32705e-07
2.40863e-07
2.38577e-07
3.76929e-07
3.84143e-07
4.05486e-07
2.41973e-07
2.40276e-07
2.5118e-07
2.51245e-07
3.75809e-07
4.07817e-07
2.41962e-07
2.42915e-07
2.51131e-07
2.51586e-07
2.40654e-07
2.5112e-07
2.49365e-07
3.92352e-07
4.09352e-07
2.40867e-07
2.51429e-07
2.49367e-07
3.99393e-07
4.0746e-07
4.09192e-07
2.53053e-07
2.54369e-07
2.59222e-07
2.61616e-07
4.13221e-07
4.21069e-07
2.52984e-07
2.56282e-07
2.59107e-07
2.69761e-07
2.53445e-07
2.61438e-07
2.66355e-07
4.19245e-07
4.55511e-07
2.53356e-07
2.69634e-07
2.66153e-07
4.42154e-07
4.16126e-07
4.76639e-07
2.63289e-07
2.64439e-07
2.82068e-07
2.81716e-07
4.25184e-07
4.72029e-07
2.63216e-07
2.72602e-07
2.82138e-07
2.76727e-07
2.70339e-07
2.81643e-07
2.82505e-07
4.59601e-07
4.45425e-07
2.70189e-07
2.76655e-07
2.8254e-07
4.7293e-07
4.9217e-07
5.2433e-07
2.88848e-07
2.89108e-07
3.04584e-07
3.0503e-07
4.89619e-07
5.24351e-07
2.88879e-07
2.78406e-07
3.04391e-07
2.94127e-07
2.86258e-07
3.04918e-07
2.96517e-07
4.46239e-07
4.81663e-07
2.86264e-07
2.94014e-07
2.96331e-07
4.88786e-07
5.29077e-07
5.3929e-07
3.08361e-07
3.07544e-07
3.19749e-07
3.14607e-07
5.25701e-07
5.17192e-07
3.08146e-07
3.01752e-07
3.19602e-07
3.22718e-07
2.99677e-07
3.14343e-07
3.14639e-07
4.99258e-07
5.57033e-07
2.99476e-07
3.22428e-07
3.14505e-07
5.20651e-07
5.44011e-07
5.69839e-07
3.23537e-07
3.19006e-07
3.38814e-07
3.38426e-07
5.22791e-07
5.71254e-07
3.23404e-07
3.28777e-07
3.38763e-07
3.45112e-07
3.22114e-07
3.38332e-07
3.43045e-07
5.66949e-07
5.91031e-07
3.22007e-07
3.45014e-07
3.43035e-07
5.83379e-07
5.83544e-07
6.25027e-07
3.46152e-07
3.46716e-07
3.6714e-07
3.70515e-07
5.86439e-07
6.36463e-07
3.4613e-07
3.49749e-07
3.67097e-07
3.63161e-07
3.4728e-07
3.70293e-07
3.59037e-07
5.96393e-07
6.06432e-07
3.47306e-07
3.62962e-07
3.59024e-07
5.95616e-07
6.3172e-07
6.57685e-07
3.72431e-07
3.75859e-07
3.90224e-07
3.83071e-07
6.42043e-07
6.25502e-07
3.72307e-07
3.67984e-07
3.89969e-07
3.83002e-07
3.66755e-07
3.82742e-07
3.96043e-07
6.11559e-07
6.29897e-07
3.66644e-07
3.82768e-07
3.9577e-07
6.82329e-07
6.69206e-07
6.96276e-07
3.97453e-07
3.86122e-07
4.17014e-07
4.13491e-07
6.27265e-07
6.91349e-07
3.9724e-07
3.89295e-07
4.16973e-07
4.1389e-07
4.04071e-07
4.13355e-07
4.19421e-07
6.3884e-07
6.90386e-07
4.03854e-07
4.13742e-07
4.19404e-07
7.01486e-07
7.02283e-07
7.2184e-07
4.22548e-07
4.24917e-07
4.40969e-07
4.49758e-07
7.13412e-07
7.5142e-07
4.22485e-07
4.22733e-07
4.40764e-07
4.45729e-07
4.23458e-07
4.49609e-07
4.38184e-07
7.04769e-07
7.39212e-07
4.2343e-07
4.45568e-07
4.37994e-07
7.11924e-07
7.31029e-07
7.61074e-07
4.47915e-07
4.54776e-07
4.69218e-07
4.69902e-07
7.5447e-07
7.61116e-07
4.47679e-07
4.52185e-07
4.69027e-07
4.71332e-07
4.44663e-07
4.69627e-07
4.70081e-07
7.46619e-07
7.66208e-07
4.4444e-07
4.7106e-07
4.69898e-07
7.6813e-07
7.70229e-07
7.99504e-07
4.76507e-07
4.76394e-07
4.9892e-07
4.99108e-07
7.68641e-07
8.00892e-07
4.7634e-07
4.78126e-07
4.98771e-07
4.99556e-07
4.79521e-07
4.98954e-07
5.04008e-07
7.74138e-07
8.0105e-07
4.79366e-07
4.99382e-07
5.03868e-07
8.13726e-07
8.08319e-07
8.32895e-07
5.06378e-07
5.0707e-07
5.28332e-07
5.29852e-07
8.10908e-07
8.37749e-07
5.06206e-07
5.06996e-07
5.28141e-07
5.29947e-07
5.10314e-07
5.29662e-07
5.28166e-07
8.10214e-07
8.3736e-07
5.10156e-07
5.29776e-07
5.27988e-07
8.31539e-07
8.40948e-07
8.66447e-07
5.3555e-07
5.37054e-07
5.57908e-07
5.58503e-07
8.456e-07
8.66804e-07
5.3536e-07
5.37186e-07
5.57735e-07
5.5787e-07
5.35013e-07
5.58295e-07
5.58091e-07
8.45208e-07
8.65222e-07
5.34842e-07
5.57673e-07
5.57925e-07
8.67014e-07
8.75548e-07
9.017e-07
5.65755e-07
5.656e-07
5.89239e-07
5.8725e-07
8.74257e-07
8.95821e-07
5.65566e-07
5.6496e-07
5.89032e-07
5.8774e-07
5.65883e-07
5.87065e-07
5.88385e-07
8.72713e-07
8.98276e-07
5.65707e-07
5.87554e-07
5.88183e-07
8.99311e-07
9.0953e-07
9.30102e-07
5.96729e-07
5.94771e-07
6.18579e-07
6.17817e-07
9.03907e-07
9.28597e-07
5.96514e-07
5.95784e-07
6.18372e-07
6.19576e-07
5.95812e-07
6.17633e-07
6.18217e-07
9.07447e-07
9.3321e-07
5.95607e-07
6.19389e-07
6.18012e-07
9.29152e-07
9.37594e-07
9.59378e-07
6.25952e-07
6.25507e-07
6.48374e-07
6.48455e-07
9.36827e-07
9.59807e-07
6.25751e-07
6.27154e-07
6.48192e-07
6.48776e-07
6.25633e-07
6.48275e-07
6.4815e-07
9.40902e-07
9.59492e-07
6.25442e-07
6.48599e-07
6.47967e-07
9.58828e-07
9.67014e-07
9.87706e-07
6.55868e-07
6.55978e-07
6.78157e-07
6.78132e-07
9.67428e-07
9.87883e-07
6.5567e-07
6.55784e-07
6.77962e-07
6.77312e-07
6.55738e-07
6.77968e-07
6.77854e-07
9.66191e-07
9.85223e-07
6.55546e-07
6.77156e-07
6.77666e-07
9.86786e-07
9.94831e-07
1.01418e-06
6.85447e-07
6.85491e-07
7.07155e-07
7.07425e-07
9.95145e-07
1.01477e-06
6.85251e-07
6.84511e-07
7.06931e-07
7.06553e-07
6.85043e-07
7.07258e-07
7.06833e-07
9.92358e-07
1.01348e-06
6.84857e-07
7.06387e-07
7.06606e-07
1.01363e-06
1.02123e-06
1.04012e-06
7.14392e-07
7.14578e-07
7.35909e-07
7.35797e-07
1.02165e-06
1.03993e-06
7.14155e-07
7.14288e-07
7.35706e-07
7.36902e-07
7.14201e-07
7.35654e-07
7.36071e-07
1.02149e-06
1.04233e-06
7.13966e-07
7.36754e-07
7.35869e-07
1.04069e-06
1.04697e-06
1.06515e-06
7.43021e-07
7.429e-07
7.64109e-07
7.64084e-07
1.04678e-06
1.06513e-06
7.42828e-07
7.43751e-07
7.63907e-07
7.63889e-07
7.43218e-07
7.63939e-07
7.64325e-07
1.0486e-06
1.06431e-06
7.43029e-07
7.63748e-07
7.64122e-07
1.06564e-06
1.07174e-06
1.08923e-06
7.71025e-07
7.71011e-07
7.91662e-07
7.91426e-07
1.07172e-06
1.08883e-06
7.70808e-07
7.70808e-07
7.91466e-07
7.9141e-07
7.71273e-07
7.91301e-07
7.91807e-07
1.07092e-06
1.08847e-06
7.7106e-07
7.91285e-07
7.91611e-07
1.08944e-06
1.09564e-06
1.11116e-06
7.98452e-07
7.98214e-07
8.17988e-07
8.18252e-07
1.09529e-06
1.11187e-06
7.98262e-07
7.9804e-07
8.17778e-07
8.17803e-07
7.98493e-07
8.18135e-07
8.18119e-07
1.09466e-06
1.11112e-06
7.98305e-07
8.17678e-07
8.17906e-07
1.11141e-06
1.1172e-06
1.13365e-06
8.24388e-07
8.2469e-07
8.4397e-07
8.43762e-07
1.1179e-06
1.13326e-06
8.24164e-07
8.24509e-07
8.43768e-07
8.44443e-07
8.24555e-07
8.43663e-07
8.43756e-07
1.11768e-06
1.13461e-06
8.24332e-07
8.44338e-07
8.43554e-07
1.13312e-06
1.13978e-06
1.15401e-06
8.50422e-07
8.50123e-07
8.68775e-07
8.6872e-07
1.13929e-06
1.154e-06
8.50227e-07
8.50764e-07
8.68591e-07
8.68786e-07
8.50107e-07
8.68623e-07
8.68683e-07
1.14044e-06
1.15389e-06
8.49916e-07
8.68673e-07
8.68495e-07
1.15406e-06
1.15947e-06
1.17324e-06
8.74665e-07
8.74631e-07
8.92318e-07
8.91938e-07
1.1595e-06
1.17267e-06
8.74467e-07
8.7465e-07
8.92116e-07
8.92096e-07
8.74762e-07
8.91863e-07
8.9282e-07
1.15933e-06
1.17267e-06
8.74565e-07
8.92015e-07
8.92622e-07
1.17433e-06
1.17877e-06
1.19116e-06
8.98147e-07
8.97744e-07
9.14759e-07
9.15219e-07
1.17825e-06
1.19259e-06
8.97949e-07
8.97819e-07
9.14547e-07
9.14741e-07
8.98611e-07
9.15146e-07
9.1484e-07
1.17811e-06
1.19149e-06
8.98418e-07
9.14648e-07
9.14627e-07
1.19122e-06
1.1963e-06
1.20994e-06
9.20148e-07
9.20871e-07
9.36741e-07
9.36735e-07
1.198e-06
1.20958e-06
9.19919e-07
9.20415e-07
9.36522e-07
9.37526e-07
9.20166e-07
9.36676e-07
9.36847e-07
1.19714e-06
1.21139e-06
9.19941e-07
9.37436e-07
9.3663e-07
1.21024e-06
1.21548e-06
1.22733e-06
9.42307e-07
9.41869e-07
9.58021e-07
9.57359e-07
1.21447e-06
1.22632e-06
9.42112e-07
9.42936e-07
9.57861e-07
9.57706e-07
9.42428e-07
9.57305e-07
9.58127e-07
1.2165e-06
1.22653e-06
9.42239e-07
9.57643e-07
9.57976e-07
1.22761e-06
1.23186e-06
1.24232e-06
9.6282e-07
9.62377e-07
9.77012e-07
9.77148e-07
1.23126e-06
1.24286e-06
9.62639e-07
9.62394e-07
9.76812e-07
9.769e-07
9.62953e-07
9.7713e-07
9.76927e-07
1.23102e-06
1.24231e-06
9.62784e-07
9.76853e-07
9.76722e-07
1.24193e-06
1.24747e-06
1.25904e-06
9.8194e-07
9.82142e-07
9.9661e-07
9.96408e-07
1.24801e-06
1.25836e-06
9.81731e-07
9.81871e-07
9.96374e-07
9.96239e-07
9.81624e-07
9.96341e-07
9.96043e-07
1.2474e-06
1.25832e-06
9.81417e-07
9.96162e-07
9.95819e-07
1.2583e-06
1.26339e-06
1.27145e-06
1.00113e-06
1.00053e-06
1.01348e-06
1.01243e-06
1.26219e-06
1.27019e-06
1.00089e-06
1.00074e-06
1.01329e-06
1.01368e-06
1.00089e-06
1.01243e-06
1.01405e-06
1.26274e-06
1.27195e-06
1.00067e-06
1.01364e-06
1.01387e-06
1.27237e-06
1.27565e-06
1.28545e-06
1.01748e-06
1.01697e-06
1.03015e-06
1.03149e-06
1.27536e-06
1.28842e-06
1.01731e-06
1.01782e-06
1.03e-06
1.02994e-06
1.0178e-06
1.03145e-06
1.02973e-06
1.27626e-06
1.28506e-06
1.01765e-06
1.02988e-06
1.02959e-06
1.28509e-06
1.28982e-06
1.29657e-06
1.03443e-06
1.03571e-06
1.04515e-06
1.045e-06
1.2924e-06
1.29561e-06
1.03422e-06
1.03397e-06
1.04483e-06
1.04642e-06
1.03423e-06
1.04498e-06
1.04665e-06
1.28931e-06
1.29968e-06
1.03404e-06
1.04637e-06
1.04636e-06
1.29915e-06
1.30039e-06
1.31515e-06
1.04857e-06
1.04812e-06
1.0624e-06
1.06078e-06
1.29923e-06
1.31213e-06
1.04829e-06
1.05052e-06
1.06232e-06
1.06164e-06
1.05001e-06
1.06079e-06
1.06086e-06
1.30419e-06
1.31159e-06
1.04976e-06
1.06167e-06
1.06077e-06
1.31109e-06
1.32048e-06
1.31815e-06
1.06723e-06
1.06526e-06
1.07491e-06
1.07618e-06
1.31707e-06
1.32374e-06
1.06715e-06
1.06494e-06
1.07469e-06
1.07374e-06
1.06501e-06
1.07608e-06
1.07523e-06
1.31491e-06
1.31968e-06
1.06493e-06
1.07358e-06
1.075e-06
1.32165e-06
1.3195e-06
1.33439e-06
1.07595e-06
1.07926e-06
1.08677e-06
1.08746e-06
1.32721e-06
1.33161e-06
1.07568e-06
1.07678e-06
1.08636e-06
1.08897e-06
1.07749e-06
1.08755e-06
1.08833e-06
1.32343e-06
1.33667e-06
1.07722e-06
1.08907e-06
1.08793e-06
1.33543e-06
1.34237e-06
1.34181e-06
1.09285e-06
1.08933e-06
1.10205e-06
1.09657e-06
1.33358e-06
1.33712e-06
1.09254e-06
1.0933e-06
1.10224e-06
1.09956e-06
1.0934e-06
1.0967e-06
1.10032e-06
1.34153e-06
1.33663e-06
1.09312e-06
1.09963e-06
1.10052e-06
1.33727e-06
1.34225e-06
1.33938e-06
1.1024e-06
1.10235e-06
1.10332e-06
1.11588e-06
1.34508e-06
1.36284e-06
1.10261e-06
1.10014e-06
1.10304e-06
1.10843e-06
1.10038e-06
1.11553e-06
1.10577e-06
1.3377e-06
1.35374e-06
1.10061e-06
1.1077e-06
1.10515e-06
1.35106e-06
1.34734e-06
1.38456e-06
1.10719e-06
1.11671e-06
1.13157e-06
1.11571e-06
1.36325e-06
1.34267e-06
1.10612e-06
1.11599e-06
1.1316e-06
1.12711e-06
1.11703e-06
1.1161e-06
1.13032e-06
1.36433e-06
1.36758e-06
1.11597e-06
1.12792e-06
1.13022e-06
1.37226e-06
1.39114e-06
1.35736e-06
1.13628e-06
1.11709e-06
1.13522e-06
1.13738e-06
1.34897e-06
1.38531e-06
1.13671e-06
1.12712e-06
1.13546e-06
1.12342e-06
1.12784e-06
1.1362e-06
1.11626e-06
1.36653e-06
1.34646e-06
1.12819e-06
1.12258e-06
1.11635e-06
1.32718e-06
1.35122e-06
1.32827e-06
1.12708e-06
1.13931e-06
1.11852e-06
1.1359e-06
1.38692e-06
1.3596e-06
1.12663e-06
1.12358e-06
1.11759e-06
1.13915e-06
1.11956e-06
1.13621e-06
1.15065e-06
1.35061e-06
1.38626e-06
1.11912e-06
1.14036e-06
1.14989e-06
1.40849e-06
1.35138e-06
1.45306e-06
1.12402e-06
1.13617e-06
1.174e-06
1.15676e-06
1.36444e-06
1.40966e-06
1.12344e-06
1.14927e-06
1.17473e-06
1.16704e-06
1.15199e-06
1.15668e-06
1.14479e-06
1.4011e-06
1.42468e-06
1.15152e-06
1.16757e-06
1.14533e-06
1.36206e-06
1.45393e-06
1.31994e-06
1.17765e-06
1.1593e-06
1.14377e-06
1.14424e-06
1.41108e-06
1.33906e-06
1.17838e-06
1.16678e-06
1.14346e-06
1.13546e-06
1.14548e-06
1.14302e-06
1.16071e-06
1.42002e-06
1.31681e-06
1.146e-06
1.13418e-06
1.1603e-06
1.40414e-06
1.31381e-06
1.39357e-06
1.13152e-06
1.13904e-06
1.13961e-06
1.15413e-06
1.33848e-06
1.41486e-06
1.13091e-06
1.12924e-06
1.13864e-06
1.15097e-06
1.16059e-06
1.15686e-06
1.14653e-06
1.31529e-06
1.41804e-06
1.16008e-06
1.15388e-06
1.14589e-06
1.35589e-06
1.42207e-06
1.44159e-06
1.16428e-06
1.17221e-06
1.19492e-06
1.19055e-06
1.4351e-06
1.4264e-06
1.16368e-06
1.17444e-06
1.1952e-06
1.19698e-06
1.14653e-06
1.189e-06
1.18243e-06
1.44336e-06
1.43198e-06
1.14596e-06
1.19542e-06
1.18275e-06
1.44197e-06
1.43401e-06
1.36944e-06
1.19328e-06
1.18728e-06
1.16407e-06
1.1608e-06
1.41961e-06
1.36576e-06
1.19364e-06
1.19152e-06
1.16371e-06
1.15579e-06
1.19085e-06
1.16205e-06
1.18331e-06
1.42055e-06
1.35157e-06
1.19115e-06
1.15704e-06
1.18293e-06
1.39318e-06
1.37119e-06
1.40095e-06
1.16055e-06
1.15846e-06
1.16713e-06
1.16909e-06
1.36872e-06
1.40611e-06
1.16e-06
1.15337e-06
1.16667e-06
1.17102e-06
1.17177e-06
1.16868e-06
1.16221e-06
1.35599e-06
1.41258e-06
1.17123e-06
1.1707e-06
1.16177e-06
1.38598e-06
1.40938e-06
1.42362e-06
1.17352e-06
1.17644e-06
1.18748e-06
1.19027e-06
1.41546e-06
1.42849e-06
1.17333e-06
1.17973e-06
1.18755e-06
1.19125e-06
1.16655e-06
1.19013e-06
1.18854e-06
1.4228e-06
1.42751e-06
1.16644e-06
1.19108e-06
1.18861e-06
1.42901e-06
1.42649e-06
1.42405e-06
1.19005e-06
1.19174e-06
1.19239e-06
1.19092e-06
1.4301e-06
1.41983e-06
1.19003e-06
1.1917e-06
1.19212e-06
1.18968e-06
1.19053e-06
1.191e-06
1.18728e-06
1.42841e-06
1.41836e-06
1.19052e-06
1.18966e-06
1.187e-06
1.41123e-06
1.42554e-06
1.42195e-06
1.19232e-06
1.18984e-06
1.19134e-06
1.18876e-06
1.42096e-06
1.41797e-06
1.19201e-06
1.18926e-06
1.19119e-06
1.1896e-06
1.18608e-06
1.18834e-06
1.18776e-06
1.41982e-06
1.4199e-06
1.18579e-06
1.18902e-06
1.18765e-06
1.4197e-06
1.42353e-06
1.42012e-06
1.19124e-06
1.18906e-06
1.1914e-06
1.1923e-06
1.42061e-06
1.42305e-06
1.19114e-06
1.19039e-06
1.19127e-06
1.19229e-06
1.19053e-06
1.19252e-06
1.19497e-06
1.42224e-06
1.42253e-06
1.19046e-06
1.1925e-06
1.19483e-06
1.42737e-06
1.42164e-06
1.42012e-06
1.19147e-06
1.19289e-06
1.19195e-06
1.19315e-06
1.42509e-06
1.42169e-06
1.19129e-06
1.1926e-06
1.19169e-06
1.19282e-06
1.19521e-06
1.19341e-06
1.19408e-06
1.4243e-06
1.42127e-06
1.19505e-06
1.19309e-06
1.19386e-06
1.4225e-06
1.42239e-06
1.42506e-06
1.19236e-06
1.19306e-06
1.19464e-06
1.19401e-06
1.42322e-06
1.42432e-06
1.19214e-06
1.19292e-06
1.19449e-06
1.19453e-06
1.19374e-06
1.19398e-06
1.19413e-06
1.42306e-06
1.42483e-06
1.19353e-06
1.19452e-06
1.19399e-06
1.42436e-06
1.42787e-06
1.42969e-06
1.19566e-06
1.19514e-06
1.1981e-06
1.19781e-06
1.42717e-06
1.42942e-06
1.19551e-06
1.19544e-06
1.19792e-06
1.198e-06
1.19511e-06
1.19778e-06
1.19753e-06
1.42751e-06
1.42959e-06
1.19497e-06
1.19796e-06
1.19735e-06
1.42881e-06
1.43165e-06
1.42935e-06
1.19847e-06
1.19826e-06
1.19856e-06
1.19853e-06
1.43142e-06
1.42966e-06
1.19829e-06
1.19842e-06
1.1984e-06
1.19846e-06
1.19795e-06
1.19851e-06
1.19848e-06
1.43165e-06
1.42914e-06
1.19777e-06
1.19843e-06
1.19832e-06
1.42943e-06
1.43103e-06
1.42978e-06
1.19849e-06
1.1985e-06
1.19836e-06
1.1981e-06
1.43141e-06
1.42919e-06
1.1983e-06
1.19825e-06
1.19814e-06
1.19822e-06
1.19857e-06
1.19814e-06
1.19844e-06
1.43068e-06
1.42977e-06
1.19839e-06
1.19823e-06
1.19822e-06
1.42946e-06
1.4315e-06
1.42888e-06
1.19829e-06
1.19792e-06
1.19767e-06
1.19765e-06
1.43073e-06
1.42944e-06
1.19808e-06
1.19832e-06
1.19758e-06
1.19783e-06
1.19808e-06
1.19761e-06
1.19731e-06
1.43175e-06
1.42876e-06
1.19788e-06
1.19776e-06
1.1972e-06
1.42831e-06
1.4306e-06
1.42916e-06
1.19752e-06
1.19762e-06
1.19718e-06
1.19697e-06
1.4314e-06
1.42838e-06
1.19738e-06
1.19732e-06
1.19688e-06
1.19689e-06
1.19736e-06
1.19703e-06
1.19774e-06
1.43021e-06
1.42915e-06
1.19725e-06
1.19691e-06
1.19751e-06
1.43041e-06
1.43094e-06
1.42889e-06
1.19709e-06
1.19649e-06
1.19635e-06
1.19602e-06
1.42985e-06
1.42886e-06
1.19679e-06
1.19708e-06
1.19639e-06
1.19684e-06
1.19752e-06
1.19599e-06
1.19556e-06
1.43147e-06
1.42874e-06
1.19729e-06
1.19679e-06
1.19549e-06
1.42685e-06
1.4305e-06
1.42641e-06
1.19605e-06
1.19607e-06
1.19445e-06
1.19516e-06
1.43115e-06
1.42693e-06
1.19602e-06
1.19599e-06
1.19411e-06
1.19418e-06
1.19541e-06
1.1952e-06
1.19539e-06
1.43004e-06
1.4262e-06
1.19532e-06
1.19419e-06
1.19514e-06
1.42911e-06
1.42793e-06
1.42736e-06
1.19397e-06
1.19387e-06
1.19327e-06
1.19227e-06
1.4281e-06
1.42511e-06
1.19367e-06
1.19402e-06
1.19322e-06
1.19364e-06
1.19514e-06
1.19228e-06
1.19252e-06
1.42846e-06
1.42746e-06
1.19486e-06
1.19367e-06
1.19248e-06
1.42489e-06
1.4294e-06
1.42327e-06
1.19317e-06
1.19238e-06
1.19105e-06
1.19226e-06
1.42805e-06
1.42589e-06
1.19315e-06
1.19323e-06
1.19077e-06
1.19098e-06
1.19217e-06
1.1922e-06
1.19159e-06
1.42885e-06
1.42405e-06
1.19216e-06
1.1909e-06
1.19139e-06
1.42546e-06
1.42445e-06
1.4226e-06
1.18986e-06
1.19104e-06
1.18827e-06
1.18757e-06
1.42688e-06
1.42034e-06
1.18956e-06
1.19028e-06
1.18813e-06
1.18865e-06
1.19096e-06
1.18762e-06
1.18839e-06
1.42552e-06
1.4228e-06
1.19059e-06
1.18871e-06
1.18828e-06
1.42197e-06
1.42534e-06
1.42102e-06
1.18825e-06
1.18741e-06
1.18721e-06
1.18701e-06
1.42303e-06
1.42188e-06
1.18815e-06
1.18843e-06
1.18704e-06
1.18633e-06
1.18812e-06
1.18697e-06
1.18677e-06
1.42481e-06
1.42047e-06
1.18804e-06
1.18626e-06
1.18661e-06
1.4212e-06
1.4221e-06
1.41906e-06
1.18575e-06
1.18614e-06
1.18351e-06
1.18395e-06
1.42311e-06
1.41977e-06
1.18553e-06
1.18549e-06
1.18333e-06
1.184e-06
1.18579e-06
1.18396e-06
1.18381e-06
1.42182e-06
1.4201e-06
1.1856e-06
1.18398e-06
1.18362e-06
1.41926e-06
1.42154e-06
1.4135e-06
1.18337e-06
1.18369e-06
1.18012e-06
1.17944e-06
1.42198e-06
1.41241e-06
1.18319e-06
1.18377e-06
1.17994e-06
1.17971e-06
1.18353e-06
1.17943e-06
1.17977e-06
1.42216e-06
1.4131e-06
1.18335e-06
1.17969e-06
1.17961e-06
1.41352e-06
1.41455e-06
1.41559e-06
1.17862e-06
1.17799e-06
1.17749e-06
1.17719e-06
1.41342e-06
1.41554e-06
1.17845e-06
1.1785e-06
1.17736e-06
1.17766e-06
1.17875e-06
1.17721e-06
1.17797e-06
1.41425e-06
1.41606e-06
1.17861e-06
1.17769e-06
1.17785e-06
1.41666e-06
1.41861e-06
1.41053e-06
1.17788e-06
1.17799e-06
1.17565e-06
1.17643e-06
1.41904e-06
1.41173e-06
1.17774e-06
1.17791e-06
1.17536e-06
1.17501e-06
1.1781e-06
1.17638e-06
1.17486e-06
1.41878e-06
1.40983e-06
1.17797e-06
1.1749e-06
1.17457e-06
1.40939e-06
1.41146e-06
1.40445e-06
1.17406e-06
1.17448e-06
1.16876e-06
1.16801e-06
1.41249e-06
1.40269e-06
1.17376e-06
1.17359e-06
1.16868e-06
1.16938e-06
1.17343e-06
1.16801e-06
1.1691e-06
1.41086e-06
1.40589e-06
1.17315e-06
1.16937e-06
1.16901e-06
1.4055e-06
1.40594e-06
1.4072e-06
1.16814e-06
1.16741e-06
1.16733e-06
1.16732e-06
1.40413e-06
1.4083e-06
1.1681e-06
1.16875e-06
1.16721e-06
1.1673e-06
1.16865e-06
1.16736e-06
1.16777e-06
1.40738e-06
1.40663e-06
1.1686e-06
1.16736e-06
1.16765e-06
1.40801e-06
1.41163e-06
1.38813e-06
1.16809e-06
1.16833e-06
1.14889e-06
1.14858e-06
1.41294e-06
1.38652e-06
1.16792e-06
1.16788e-06
1.14866e-06
1.14817e-06
1.16837e-06
1.14858e-06
1.14769e-06
1.41069e-06
1.38748e-06
1.16823e-06
1.14821e-06
1.14751e-06
1.38519e-06
1.35936e-06
1.11002e-06
1.10954e-06
1.35797e-06
1.10991e-06
1.10986e-06
6.65642e-07
6.65714e-07
6.65463e-07
1.10913e-06
1.35947e-06
1.10903e-06
5.35663e-07
5.35601e-07
5.35655e-07
5.35655e-07
5.34573e-07
5.35516e-07
5.33634e-07
5.35654e-07
5.34573e-07
5.35517e-07
5.35654e-07
5.33634e-07
5.35256e-07
5.35987e-07
5.35987e-07
1.10716e-06
3.88073e-06
9.33919e-07
4.60576e-06
1.26086e-05
1.66015e-05
1.10712e-06
3.88125e-06
9.33932e-07
4.60629e-06
4.95567e-07
4.95567e-07
4.95567e-07
4.57231e-07
4.57231e-07
4.57232e-07
4.57232e-07
5.43136e-07
1.22024e-06
4.95565e-07
4.85523e-07
5.25345e-07
1.20948e-06
4.82301e-07
1.26098e-05
1.66029e-05
5.43156e-07
4.95565e-07
1.22026e-06
4.85523e-07
5.25334e-07
4.82301e-07
1.20949e-06
2.52183e-06
2.52237e-06
4.84192e-07
2.37257e-06
2.37281e-06
1.43088e-06
5.59307e-06
1.32969e-06
6.13596e-06
2.1285e-05
2.31112e-05
1.43097e-06
5.59383e-06
1.32981e-06
6.13677e-06
4.45573e-07
4.45573e-07
4.45573e-07
4.13542e-07