/*--------------------------------*- C++ -*----------------------------------*\
| =========                 |                                                 |
| \\      /  F ield         | OpenFOAM: The Open Source CFD Toolbox           |
|  \\    /   O peration     | Version:  v2006                                 |
|   \\  /    A nd           | Website:  www.openfoam.com                      |
|    \\/     M anipulation  |                                                 |
\*---------------------------------------------------------------------------*/
FoamFile
{
    version     2.0;
    format      ascii;
    class       volScalarField;
    location    "500";
    object      k;
}
// * * * * * * * * * * * * * * * * * * * * * * * * * * * * * * * * * * * * * //

dimensions      [0 2 -2 0 0 0 0];


internalField   nonuniform List<scalar> 
171728
(
3.58932e-05
3.58912e-05
3.58912e-05
3.59957e-05
3.39296e-05
3.3889e-05
3.3889e-05
3.39623e-05
3.21578e-05
3.20081e-05
3.20081e-05
3.19522e-05
3.05346e-05
3.02293e-05
3.02292e-05
2.99885e-05
2.90329e-05
2.8554e-05
2.85539e-05
2.81226e-05
2.76354e-05
2.69872e-05
2.69871e-05
2.63906e-05
2.63308e-05
2.5531e-05
2.55309e-05
2.48072e-05
2.51112e-05
2.41849e-05
2.41848e-05
2.3378e-05
2.3971e-05
2.29506e-05
2.29505e-05
2.21045e-05
2.29058e-05
2.18268e-05
2.18267e-05
2.09857e-05
2.1912e-05
2.08113e-05
2.08112e-05
2.00134e-05
2.09865e-05
1.99013e-05
1.99011e-05
1.9181e-05
2.01241e-05
1.9095e-05
1.90946e-05
1.84893e-05
1.93239e-05
1.83886e-05
1.83884e-05
1.79322e-05
1.8585e-05
1.77798e-05
1.77796e-05
1.75054e-05
1.79045e-05
1.72671e-05
1.72665e-05
1.72019e-05
1.72801e-05
1.68476e-05
1.68465e-05
1.70306e-05
1.671e-05
1.65222e-05
1.65145e-05
1.69754e-05
1.61996e-05
1.63238e-05
1.63492e-05
1.71899e-05
1.57457e-05
1.62781e-05
1.61705e-05
1.7497e-05
1.53315e-05
1.62325e-05
1.62776e-05
1.83865e-05
1.49651e-05
1.64808e-05
1.62742e-05
1.85004e-05
1.46027e-05
1.65465e-05
1.65754e-05
1.9017e-05
1.43257e-05
1.64055e-05
1.6757e-05
2.00915e-05
1.41186e-05
1.67876e-05
1.68755e-05
1.97271e-05
1.39114e-05
1.72463e-05
1.74949e-05
2.08856e-05
1.36679e-05
1.72168e-05
1.80329e-05
2.24945e-05
1.37512e-05
1.88541e-05
1.76418e-05
2.32641e-05
1.37096e-05
1.90611e-05
1.87678e-05
2.24478e-05
1.3608e-05
1.8949e-05
1.99201e-05
2.55606e-05
1.36463e-05
2.05625e-05
2.05544e-05
2.56196e-05
1.38008e-05
2.15093e-05
2.09374e-05
2.64636e-05
1.39426e-05
2.12065e-05
2.14783e-05
3.01987e-05
1.40941e-05
2.34265e-05
2.31136e-05
2.9162e-05
1.42822e-05
2.41001e-05
2.4015e-05
2.93772e-05
1.45573e-05
2.47234e-05
2.48598e-05
3.24042e-05
1.49037e-05
2.59347e-05
2.59039e-05
3.28252e-05
1.52594e-05
2.69292e-05
2.69368e-05
3.32779e-05
1.56826e-05
2.78634e-05
2.77928e-05
3.45678e-05
1.61635e-05
2.88624e-05
2.89503e-05
3.54231e-05
1.66493e-05
2.99441e-05
3.00651e-05
3.63214e-05
1.71909e-05
3.10118e-05
3.09837e-05
3.72915e-05
1.77737e-05
3.20371e-05
3.19352e-05
3.80519e-05
1.83896e-05
3.30306e-05
3.30721e-05
3.89701e-05
1.90459e-05
3.40224e-05
3.40383e-05
3.98061e-05
1.97332e-05
3.50029e-05
3.50095e-05
4.06236e-05
2.0463e-05
3.59734e-05
3.59326e-05
4.13901e-05
2.11863e-05
3.68927e-05
3.69029e-05
4.20978e-05
2.19724e-05
3.78276e-05
3.78488e-05
4.28444e-05
2.27472e-05
3.86834e-05
3.86903e-05
4.35651e-05
2.3547e-05
3.95211e-05
3.95213e-05
4.42664e-05
2.43283e-05
4.03973e-05
4.03575e-05
4.47703e-05
2.51653e-05
4.1153e-05
4.12285e-05
4.55788e-05
2.59832e-05
4.19145e-05
4.1903e-05
4.60948e-05
2.67852e-05
4.27241e-05
4.26805e-05
4.66246e-05
2.76288e-05
4.33455e-05
4.34117e-05
4.73294e-05
2.83871e-05
4.40437e-05
4.40498e-05
4.76591e-05
2.91983e-05
4.48162e-05
4.46787e-05
4.83683e-05
2.99075e-05
4.52008e-05
4.54193e-05
4.86677e-05
3.08489e-05
4.6026e-05
4.59564e-05
4.93928e-05
3.13816e-05
4.66059e-05
4.63655e-05
4.93941e-05
3.22775e-05
4.6888e-05
4.73444e-05
5.07712e-05
3.29362e-05
4.77172e-05
4.72568e-05
4.93126e-05
3.32896e-05
4.80654e-05
4.84259e-05
5.29382e-05
3.48106e-05
4.82982e-05
4.86915e-05
4.97105e-05
3.46888e-05
4.90282e-05
4.81106e-05
5.17747e-05
3.48853e-05
4.91511e-05
5.03755e-05
5.21777e-05
3.69127e-05
5.03773e-05
5.08069e-05
5.24898e-05
3.61622e-05
4.87185e-05
4.81242e-05
5.21607e-05
3.68645e-05
5.15007e-05
5.18535e-05
5.08912e-05
3.83269e-05
5.1477e-05
5.15318e-05
5.59545e-05
3.7987e-05
5.01733e-05
4.99311e-05
5.14258e-05
3.81231e-05
5.10693e-05
5.13111e-05
5.34469e-05
3.90684e-05
5.19891e-05
5.19212e-05
5.41595e-05
3.96028e-05
5.1861e-05
5.1848e-05
5.33927e-05
3.98305e-05
5.18695e-05
5.19371e-05
5.41837e-05
4.00452e-05
5.21835e-05
5.21549e-05
5.42684e-05
4.02694e-05
5.2173e-05
5.21677e-05
5.40824e-05
4.05978e-05
5.23836e-05
5.23923e-05
5.43238e-05
4.09396e-05
5.26115e-05
5.26245e-05
5.44909e-05
4.11808e-05
5.27076e-05
5.26722e-05
5.4605e-05
4.13741e-05
5.27443e-05
5.27917e-05
5.45599e-05
4.15369e-05
5.28314e-05
5.27779e-05
5.4707e-05
4.16997e-05
5.28332e-05
5.29148e-05
5.46796e-05
4.1847e-05
5.29458e-05
5.28789e-05
5.47318e-05
4.19359e-05
5.28605e-05
5.29066e-05
5.47339e-05
4.20715e-05
5.29552e-05
5.29388e-05
5.47387e-05
4.21094e-05
5.28805e-05
5.28833e-05
5.46759e-05
4.21917e-05
5.2867e-05
5.28898e-05
5.47244e-05
4.22296e-05
5.2848e-05
5.28367e-05
5.46213e-05
4.22799e-05
5.28627e-05
5.28553e-05
5.47009e-05
4.2245e-05
5.26058e-05
5.26522e-05
5.43554e-05
4.23146e-05
5.2827e-05
5.27876e-05
5.47764e-05
4.22831e-05
5.25803e-05
5.25587e-05
5.42942e-05
4.17826e-05
5.12567e-05
5.13261e-05
5.38543e-05
3.63068e-05
3.6291e-05
3.6291e-05
3.63068e-05
3.6291e-05
3.6291e-05
3.6423e-05
3.6423e-05
3.6423e-05
3.6423e-05
3.6291e-05
3.6291e-05
3.63068e-05
3.6291e-05
3.6291e-05
3.63068e-05
3.59957e-05
3.42687e-05
3.58912e-05
3.58912e-05
3.43767e-05
3.43766e-05
3.59957e-05
3.42687e-05
3.58911e-05
3.58912e-05
3.43767e-05
3.43766e-05
3.58912e-05
3.43767e-05
3.43767e-05
3.59957e-05
3.42687e-05
3.58912e-05
3.43767e-05
3.43767e-05
3.42687e-05
3.39623e-05
3.22635e-05
3.38889e-05
3.38889e-05
3.24684e-05
3.24683e-05
3.39622e-05
3.22635e-05
3.38889e-05
3.38889e-05
3.24684e-05
3.24683e-05
3.38889e-05
3.24685e-05
3.24683e-05
3.39623e-05
3.22634e-05
3.38889e-05
3.24685e-05
3.24684e-05
3.22634e-05
3.19522e-05
3.02993e-05
3.20079e-05
3.20078e-05
3.06643e-05
3.06642e-05
3.19522e-05
3.02993e-05
3.2008e-05
3.20078e-05
3.06644e-05
3.06641e-05
3.20079e-05
3.06645e-05
3.06642e-05
3.19522e-05
3.02992e-05
3.2008e-05
3.06645e-05
3.06644e-05
3.0299e-05
2.99886e-05
2.84253e-05
3.0229e-05
3.02288e-05
2.89624e-05
2.89622e-05
2.99885e-05
2.84254e-05
3.02292e-05
3.02288e-05
2.89626e-05
2.89621e-05
3.02289e-05
2.89628e-05
2.89623e-05
2.99885e-05
2.84252e-05
3.02291e-05
2.89627e-05
2.89626e-05
2.8425e-05
2.81228e-05
2.66741e-05
2.85536e-05
2.85534e-05
2.7368e-05
2.73678e-05
2.81227e-05
2.66741e-05
2.85539e-05
2.85533e-05
2.73684e-05
2.73677e-05
2.85535e-05
2.73685e-05
2.73678e-05
2.81227e-05
2.6674e-05
2.85538e-05
2.73684e-05
2.73682e-05
2.66737e-05
2.63909e-05
2.50664e-05
2.69866e-05
2.69864e-05
2.58841e-05
2.58838e-05
2.63909e-05
2.50664e-05
2.6987e-05
2.69863e-05
2.58846e-05
2.58837e-05
2.69865e-05
2.58847e-05
2.58839e-05
2.63908e-05
2.50663e-05
2.69869e-05
2.58846e-05
2.58844e-05
2.50659e-05
2.48077e-05
2.36126e-05
2.55303e-05
2.55301e-05
2.45102e-05
2.451e-05
2.48076e-05
2.36126e-05
2.55308e-05
2.55299e-05
2.45108e-05
2.45098e-05
2.55302e-05
2.4511e-05
2.45101e-05
2.48074e-05
2.36124e-05
2.55307e-05
2.45109e-05
2.45107e-05
2.36121e-05
2.33785e-05
2.23127e-05
2.41841e-05
2.41839e-05
2.32478e-05
2.32475e-05
2.33785e-05
2.23125e-05
2.41848e-05
2.41837e-05
2.32485e-05
2.32474e-05
2.4184e-05
2.32487e-05
2.32477e-05
2.33784e-05
2.23124e-05
2.41846e-05
2.32486e-05
2.32484e-05
2.23119e-05
2.2105e-05
2.11681e-05
2.29496e-05
2.29494e-05
2.20965e-05
2.20962e-05
2.21049e-05
2.11682e-05
2.29504e-05
2.29492e-05
2.20973e-05
2.20961e-05
2.29495e-05
2.20975e-05
2.20964e-05
2.21047e-05
2.11679e-05
2.29502e-05
2.20974e-05
2.20972e-05
2.11676e-05
2.09864e-05
2.01709e-05
2.18258e-05
2.18255e-05
2.10541e-05
2.10539e-05
2.09864e-05
2.01708e-05
2.18266e-05
2.18253e-05
2.10551e-05
2.10538e-05
2.18256e-05
2.10552e-05
2.10541e-05
2.09862e-05
2.01704e-05
2.18265e-05
2.10551e-05
2.1055e-05
2.01702e-05
2.00137e-05
1.93146e-05
2.08102e-05
2.08099e-05
2.0118e-05
2.01178e-05
2.0014e-05
1.93148e-05
2.08111e-05
2.08098e-05
2.01189e-05
2.01176e-05
2.08101e-05
2.01191e-05
2.01179e-05
2.00136e-05
1.93144e-05
2.0811e-05
2.01189e-05
2.01188e-05
1.9314e-05
1.91818e-05
1.85912e-05
1.99001e-05
1.98999e-05
1.92858e-05
1.92853e-05
1.91817e-05
1.85904e-05
1.99011e-05
1.98998e-05
1.92867e-05
1.92853e-05
1.99001e-05
1.92867e-05
1.92854e-05
1.91814e-05
1.85908e-05
1.9901e-05
1.92866e-05
1.92865e-05
1.85891e-05
1.84908e-05
1.79986e-05
1.90936e-05
1.90936e-05
1.85546e-05
1.85543e-05
1.84902e-05
1.79974e-05
1.90945e-05
1.90933e-05
1.85556e-05
1.85544e-05
1.90935e-05
1.85555e-05
1.85546e-05
1.84902e-05
1.79978e-05
1.90946e-05
1.85558e-05
1.85557e-05
1.79961e-05
1.79331e-05
1.754e-05
1.83871e-05
1.83872e-05
1.79219e-05
1.79219e-05
1.7933e-05
1.75391e-05
1.83882e-05
1.83871e-05
1.79229e-05
1.79216e-05
1.83874e-05
1.79227e-05
1.79219e-05
1.79331e-05
1.75399e-05
1.83886e-05
1.79228e-05
1.79225e-05
1.75383e-05
1.75082e-05
1.72178e-05
1.77792e-05
1.77787e-05
1.73842e-05
1.73851e-05
1.75063e-05
1.72179e-05
1.77798e-05
1.77787e-05
1.73855e-05
1.7384e-05
1.77789e-05
1.73862e-05
1.73843e-05
1.7507e-05
1.72177e-05
1.77796e-05
1.7385e-05
1.73856e-05
1.72182e-05
1.72001e-05
1.70228e-05
1.72647e-05
1.72659e-05
1.6943e-05
1.69436e-05
1.72019e-05
1.70287e-05
1.72667e-05
1.72652e-05
1.69417e-05
1.69399e-05
1.72649e-05
1.6946e-05
1.69448e-05
1.71996e-05
1.70231e-05
1.72655e-05
1.69404e-05
1.69452e-05
1.7034e-05
1.7021e-05
1.69613e-05
1.68475e-05
1.68464e-05
1.65979e-05
1.66003e-05
1.70279e-05
1.6969e-05
1.68465e-05
1.68456e-05
1.65986e-05
1.65931e-05
1.68468e-05
1.65996e-05
1.65981e-05
1.70159e-05
1.69783e-05
1.68482e-05
1.65946e-05
1.65978e-05
1.69684e-05
1.69681e-05
1.70147e-05
1.65208e-05
1.65217e-05
1.63449e-05
1.63453e-05
1.69762e-05
1.70506e-05
1.65208e-05
1.65132e-05
1.6347e-05
1.63802e-05
1.65192e-05
1.63468e-05
1.63602e-05
1.69819e-05
1.71734e-05
1.65193e-05
1.63828e-05
1.63579e-05
1.70929e-05
1.70924e-05
1.75322e-05
1.6318e-05
1.63238e-05
1.62442e-05
1.62858e-05
1.7136e-05
1.76849e-05
1.63183e-05
1.63445e-05
1.62462e-05
1.6184e-05
1.6342e-05
1.62824e-05
1.62193e-05
1.72613e-05
1.72578e-05
1.63381e-05
1.61785e-05
1.62173e-05
1.74508e-05
1.76474e-05
1.81967e-05
1.6248e-05
1.62819e-05
1.62712e-05
1.62314e-05
1.77878e-05
1.80523e-05
1.62512e-05
1.61758e-05
1.6277e-05
1.62497e-05
1.62032e-05
1.62333e-05
1.62639e-05
1.72754e-05
1.81528e-05
1.6208e-05
1.62559e-05
1.62835e-05
1.81994e-05
1.82406e-05
1.85153e-05
1.6243e-05
1.62231e-05
1.62628e-05
1.63247e-05
1.81066e-05
1.88456e-05
1.62457e-05
1.62667e-05
1.62572e-05
1.62672e-05
1.62889e-05
1.63555e-05
1.62803e-05
1.83121e-05
1.84658e-05
1.63049e-05
1.62717e-05
1.62591e-05
1.84881e-05
1.86445e-05
1.84711e-05
1.62918e-05
1.64586e-05
1.62533e-05
1.65827e-05
1.92863e-05
1.98314e-05
1.62818e-05
1.6273e-05
1.62414e-05
1.65062e-05
1.62639e-05
1.65752e-05
1.62913e-05
1.85164e-05
1.95346e-05
1.62455e-05
1.64863e-05
1.62828e-05
1.87468e-05
1.84669e-05
1.89267e-05
1.62408e-05
1.65636e-05
1.63612e-05
1.64164e-05
1.97906e-05
1.88929e-05
1.62332e-05
1.65877e-05
1.63709e-05
1.66779e-05
1.6369e-05
1.64108e-05
1.66663e-05
1.97804e-05
2.0119e-05
1.63708e-05
1.66819e-05
1.66606e-05
2.0064e-05
1.91058e-05
2.05255e-05
1.64222e-05
1.64087e-05
1.67978e-05
1.65595e-05
1.88797e-05
1.95935e-05
1.64338e-05
1.67441e-05
1.68002e-05
1.68744e-05
1.66778e-05
1.65623e-05
1.66952e-05
2.02633e-05
2.02615e-05
1.66767e-05
1.68736e-05
1.67249e-05
1.97098e-05
2.10275e-05
2.07469e-05
1.70279e-05
1.67837e-05
1.71723e-05
1.72457e-05
2.01118e-05
2.12425e-05
1.70291e-05
1.68778e-05
1.71686e-05
1.71142e-05
1.67157e-05
1.72392e-05
1.69693e-05
2.025e-05
2.12502e-05
1.6743e-05
1.7106e-05
1.6962e-05
2.04468e-05
2.04969e-05
1.95535e-05
1.7097e-05
1.72535e-05
1.70083e-05
1.71955e-05
2.12005e-05
2.01214e-05
1.70919e-05
1.75034e-05
1.70085e-05
1.80561e-05
1.72183e-05
1.71916e-05
1.76694e-05
2.21136e-05
2.35864e-05
1.72027e-05
1.80587e-05
1.76646e-05
2.22848e-05
1.9973e-05
2.39831e-05
1.70965e-05
1.72196e-05
1.83182e-05
1.83524e-05
2.01597e-05
2.44112e-05
1.71012e-05
1.80294e-05
1.83292e-05
1.76533e-05
1.78326e-05
1.83572e-05
1.82876e-05
2.33803e-05
2.04094e-05
1.78387e-05
1.76569e-05
1.82975e-05
2.3238e-05
2.44651e-05
2.47874e-05
1.86718e-05
1.88499e-05
1.90914e-05
1.91429e-05
2.51498e-05
2.44951e-05
1.86742e-05
1.76383e-05
1.90765e-05
1.82967e-05
1.83821e-05
1.91446e-05
1.84139e-05
2.03839e-05
2.31654e-05
1.83832e-05
1.82992e-05
1.84012e-05
2.24494e-05
2.47998e-05
2.43191e-05
1.9138e-05
1.90625e-05
1.93625e-05
1.89132e-05
2.42213e-05
2.29978e-05
1.91235e-05
1.87702e-05
1.93596e-05
1.96626e-05
1.8422e-05
1.8904e-05
1.91024e-05
2.39981e-05
2.58796e-05
1.84092e-05
1.96455e-05
1.90997e-05
2.46874e-05
2.43508e-05
2.58513e-05
1.93961e-05
1.89585e-05
1.99278e-05
2.00021e-05
2.32086e-05
2.62187e-05
1.93948e-05
1.99327e-05
1.99376e-05
2.04647e-05
1.96367e-05
2.00181e-05
2.02626e-05
2.61861e-05
2.66772e-05
1.96376e-05
2.04796e-05
2.02746e-05
2.57976e-05
2.65491e-05
2.72052e-05
2.04262e-05
2.05473e-05
2.11028e-05
2.15464e-05
2.70867e-05
2.85592e-05
2.04361e-05
2.054e-05
2.11022e-05
2.08741e-05
2.0244e-05
2.15307e-05
2.03389e-05
2.67118e-05
2.64173e-05
2.02552e-05
2.08602e-05
2.03405e-05
2.55202e-05
2.72436e-05
2.85991e-05
2.11615e-05
2.15257e-05
2.19375e-05
2.11902e-05
2.83372e-05
2.55142e-05
2.1158e-05
2.09525e-05
2.19262e-05
2.11867e-05
2.07096e-05
2.11838e-05
2.25224e-05
2.64388e-05
2.65538e-05
2.06965e-05
2.11873e-05
2.25123e-05
3.01204e-05
2.90137e-05
2.92505e-05
2.22718e-05
2.12118e-05
2.27591e-05
2.27782e-05
2.55784e-05
3.05621e-05
2.22704e-05
2.14741e-05
2.27662e-05
2.27351e-05
2.27446e-05
2.27835e-05
2.29033e-05
2.69098e-05
2.95868e-05
2.27442e-05
2.27371e-05
2.29121e-05
2.91895e-05
2.93044e-05
2.99559e-05
2.28864e-05
2.34217e-05
2.35551e-05
2.40704e-05
3.11227e-05
3.08658e-05
2.2888e-05
2.31114e-05
2.35451e-05
2.38454e-05
2.29246e-05
2.40695e-05
2.31763e-05
3.00161e-05
3.06457e-05
2.2928e-05
2.38445e-05
2.31643e-05
2.90286e-05
3.02409e-05
3.11241e-05
2.37939e-05
2.41036e-05
2.45157e-05
2.44843e-05
3.08578e-05
3.08994e-05
2.3784e-05
2.40191e-05
2.45148e-05
2.46342e-05
2.34347e-05
2.44746e-05
2.47153e-05
3.07581e-05
3.12239e-05
2.34244e-05
2.46252e-05
2.47136e-05
3.1938e-05
3.1388e-05
3.23378e-05
2.4787e-05
2.47298e-05
2.56012e-05
2.5631e-05
3.11838e-05
3.24584e-05
2.47869e-05
2.48662e-05
2.55993e-05
2.56035e-05
2.51451e-05
2.56366e-05
2.5923e-05
3.14471e-05
3.23908e-05
2.51443e-05
2.56072e-05
2.59208e-05
3.27932e-05
3.25547e-05
3.31675e-05
2.58602e-05
2.59298e-05
2.6574e-05
2.66936e-05
3.2738e-05
3.3469e-05
2.58568e-05
2.58998e-05
2.65709e-05
2.6732e-05
2.60356e-05
2.66887e-05
2.65149e-05
3.26687e-05
3.34932e-05
2.60321e-05
2.6729e-05
2.65118e-05
3.30168e-05
3.33637e-05
3.42837e-05
2.6805e-05
2.69348e-05
2.76146e-05
2.76435e-05
3.36533e-05
3.42389e-05
2.68034e-05
2.69407e-05
2.76116e-05
2.75569e-05
2.67835e-05
2.7643e-05
2.76553e-05
3.36433e-05
3.40429e-05
2.67817e-05
2.75568e-05
2.76519e-05
3.43517e-05
3.45624e-05
3.53619e-05
2.79166e-05
2.78633e-05
2.87416e-05
2.8593e-05
3.44118e-05
3.50601e-05
2.79126e-05
2.77924e-05
2.87371e-05
2.8646e-05
2.79165e-05
2.85909e-05
2.86678e-05
3.42486e-05
3.5245e-05
2.79126e-05
2.86442e-05
2.86626e-05
3.52147e-05
3.55373e-05
3.61356e-05
2.89785e-05
2.88645e-05
2.97101e-05
2.96737e-05
3.52965e-05
3.61308e-05
2.89735e-05
2.89524e-05
2.97076e-05
2.98073e-05
2.89304e-05
2.96725e-05
2.96877e-05
3.55269e-05
3.63643e-05
2.89248e-05
2.9806e-05
2.96849e-05
3.61215e-05
3.63479e-05
3.70847e-05
2.99682e-05
2.99453e-05
3.07477e-05
3.07582e-05
3.63512e-05
3.70985e-05
2.99662e-05
3.00661e-05
3.07451e-05
3.07478e-05
2.99378e-05
3.0757e-05
3.07508e-05
3.65441e-05
3.70364e-05
2.99356e-05
3.07468e-05
3.07475e-05
3.70826e-05
3.729e-05
3.79451e-05
3.1013e-05
3.10124e-05
3.17774e-05
3.17737e-05
3.72963e-05
3.7954e-05
3.10101e-05
3.09839e-05
3.17747e-05
3.17141e-05
3.10177e-05
3.17736e-05
3.17457e-05
3.72045e-05
3.77976e-05
3.10146e-05
3.17144e-05
3.17429e-05
3.78725e-05
3.8128e-05
3.878e-05
3.20222e-05
3.20377e-05
3.2781e-05
3.2793e-05
3.81582e-05
3.87985e-05
3.20191e-05
3.19354e-05
3.27751e-05
3.27561e-05
3.19866e-05
3.27916e-05
3.27616e-05
3.79709e-05
3.88162e-05
3.1983e-05
3.27549e-05
3.27553e-05
3.8765e-05
3.89725e-05
3.96028e-05
3.30328e-05
3.30314e-05
3.3776e-05
3.37699e-05
3.89712e-05
3.95966e-05
3.30265e-05
3.30727e-05
3.37742e-05
3.38315e-05
3.30236e-05
3.37704e-05
3.37865e-05
3.90822e-05
3.96839e-05
3.30172e-05
3.38313e-05
3.37845e-05
3.96233e-05
3.97908e-05
4.04148e-05
3.40292e-05
3.40221e-05
3.47605e-05
3.47659e-05
3.9791e-05
4.04154e-05
3.40277e-05
3.40384e-05
3.47554e-05
3.47533e-05
3.40359e-05
3.47658e-05
3.47769e-05
3.98108e-05
4.03953e-05
3.40342e-05
3.47538e-05
3.47717e-05
4.04408e-05
4.05933e-05
4.12374e-05
3.49995e-05
3.50028e-05
3.57565e-05
3.5723e-05
4.05884e-05
4.12008e-05
3.49942e-05
3.50088e-05
3.57542e-05
3.57124e-05
3.50237e-05
3.57238e-05
3.57473e-05
4.06003e-05
4.11479e-05
3.50186e-05
3.5713e-05
3.57452e-05
4.12258e-05
4.14069e-05
4.18937e-05
3.59909e-05
3.59729e-05
3.66378e-05
3.66723e-05
4.13851e-05
4.19574e-05
3.59883e-05
3.5932e-05
3.66323e-05
3.66452e-05
3.59804e-05
3.66735e-05
3.66609e-05
4.12977e-05
4.195e-05
3.5978e-05
3.66456e-05
3.66554e-05
4.19322e-05
4.207e-05
4.2746e-05
3.68741e-05
3.68908e-05
3.76107e-05
3.75877e-05
4.21113e-05
4.27056e-05
3.68679e-05
3.69018e-05
3.76081e-05
3.76314e-05
3.68882e-05
3.75888e-05
3.75804e-05
4.21519e-05
4.27643e-05
3.68822e-05
3.76327e-05
3.75781e-05
4.26812e-05
4.29073e-05
4.33779e-05
3.78409e-05
3.78269e-05
3.84738e-05
3.84802e-05
4.2882e-05
4.33898e-05
3.78391e-05
3.78482e-05
3.84697e-05
3.84804e-05
3.78077e-05
3.84813e-05
3.84714e-05
4.29102e-05
4.33847e-05
3.78061e-05
3.84804e-05
3.84673e-05
4.33949e-05
4.35293e-05
4.40895e-05
3.86826e-05
3.86815e-05
3.93504e-05
3.9299e-05
4.35241e-05
4.40234e-05
3.86782e-05
3.8689e-05
3.93478e-05
3.93181e-05
3.86968e-05
3.93011e-05
3.93831e-05
4.3536e-05
4.40216e-05
3.86928e-05
3.93206e-05
3.93809e-05
4.41359e-05
4.42368e-05
4.46338e-05
3.95593e-05
3.95192e-05
4.01235e-05
4.01944e-05
4.41922e-05
4.47792e-05
3.95566e-05
3.95191e-05
4.01174e-05
4.01274e-05
3.95808e-05
4.01964e-05
4.01179e-05
4.41618e-05
4.4691e-05
3.95784e-05
4.01282e-05
4.0112e-05
4.4617e-05
4.47792e-05
4.54112e-05
4.03236e-05
4.03955e-05
4.09815e-05
4.09521e-05
4.49197e-05
4.53187e-05
4.0316e-05
4.0357e-05
4.09776e-05
4.10331e-05
4.03228e-05
4.09547e-05
4.09867e-05
4.48707e-05
4.54661e-05
4.03155e-05
4.10345e-05
4.09831e-05
4.54233e-05
4.55704e-05
4.59538e-05
4.12014e-05
4.11503e-05
4.1767e-05
4.17352e-05
4.546e-05
4.5935e-05
4.12e-05
4.12263e-05
4.17659e-05
4.17347e-05
4.12041e-05
4.1737e-05
4.17799e-05
4.55879e-05
4.59053e-05
4.12033e-05
4.17364e-05
4.17796e-05
4.59881e-05
4.60551e-05
4.65497e-05
4.19258e-05
4.19119e-05
4.24716e-05
4.25007e-05
4.60579e-05
4.6616e-05
4.19235e-05
4.19011e-05
4.24671e-05
4.24781e-05
4.19451e-05
4.25055e-05
4.24532e-05
4.60276e-05
4.65556e-05
4.1943e-05
4.24818e-05
4.24487e-05
4.64819e-05
4.67199e-05
4.71759e-05
4.26844e-05
4.27211e-05
4.32676e-05
4.32332e-05
4.67853e-05
4.70742e-05
4.26789e-05
4.26773e-05
4.32608e-05
4.32344e-05
4.26333e-05
4.32328e-05
4.32525e-05
4.67065e-05
4.71278e-05
4.26283e-05
4.32337e-05
4.32461e-05
4.71873e-05
4.72716e-05
4.75964e-05
4.34291e-05
4.33443e-05
4.38729e-05
4.38112e-05
4.71316e-05
4.75778e-05
4.34232e-05
4.34111e-05
4.38726e-05
4.38892e-05
4.34609e-05
4.38176e-05
4.38758e-05
4.72443e-05
4.763e-05
4.34552e-05
4.38946e-05
4.38764e-05
4.75843e-05
4.77227e-05
4.81797e-05
4.40286e-05
4.40397e-05
4.45808e-05
4.46898e-05
4.78031e-05
4.83144e-05
4.40302e-05
4.40463e-05
4.45773e-05
4.45161e-05
4.399e-05
4.46895e-05
4.45596e-05
4.77351e-05
4.80915e-05
4.39921e-05
4.45154e-05
4.45565e-05
4.82095e-05
4.82615e-05
4.84083e-05
4.47376e-05
4.48132e-05
4.50405e-05
4.50358e-05
4.8352e-05
4.83843e-05
4.47289e-05
4.4677e-05
4.50278e-05
4.52319e-05
4.47757e-05
4.50414e-05
4.51713e-05
4.82167e-05
4.877e-05
4.47672e-05
4.5236e-05
4.51599e-05
4.85978e-05
4.8545e-05
4.9612e-05
4.52134e-05
4.51965e-05
4.60396e-05
4.58448e-05
4.85168e-05
4.92821e-05
4.52086e-05
4.54154e-05
4.60526e-05
4.58461e-05
4.52826e-05
4.58508e-05
4.58442e-05
4.89053e-05
4.91406e-05
4.52778e-05
4.58536e-05
4.58573e-05
4.92762e-05
4.96551e-05
4.90678e-05
4.62095e-05
4.60228e-05
4.62518e-05
4.64466e-05
4.93847e-05
4.9713e-05
4.62161e-05
4.59543e-05
4.62405e-05
4.62069e-05
4.60484e-05
4.64407e-05
4.62892e-05
4.91854e-05
4.93297e-05
4.60571e-05
4.61981e-05
4.62768e-05
4.93534e-05
4.90912e-05
5.06881e-05
4.62642e-05
4.66084e-05
4.70593e-05
4.68516e-05
4.98475e-05
4.97212e-05
4.62504e-05
4.63689e-05
4.70387e-05
4.71642e-05
4.63467e-05
4.68696e-05
4.71808e-05
4.94804e-05
5.05093e-05
4.63304e-05
4.71852e-05
4.71653e-05
5.06824e-05
5.08777e-05
4.99136e-05
4.74145e-05
4.68687e-05
4.74701e-05
4.7242e-05
4.97026e-05
5.04751e-05
4.74194e-05
4.73262e-05
4.75044e-05
4.72848e-05
4.73862e-05
4.72406e-05
4.72324e-05
5.05454e-05
4.96831e-05
4.73977e-05
4.72812e-05
4.72655e-05
4.93627e-05
4.97801e-05
5.00403e-05
4.7332e-05
4.77399e-05
4.73539e-05
4.81624e-05
5.09872e-05
5.10066e-05
4.73522e-05
4.72709e-05
4.73259e-05
4.78699e-05
4.71755e-05
4.81463e-05
4.79762e-05
4.96899e-05
5.15879e-05
4.71895e-05
4.78237e-05
4.78959e-05
5.22961e-05
5.05234e-05
5.34006e-05
4.76133e-05
4.80591e-05
4.93901e-05
4.79888e-05
5.06725e-05
5.04394e-05
4.75486e-05
4.84194e-05
4.94494e-05
4.87394e-05
4.87768e-05
4.8042e-05
4.8796e-05
5.19806e-05
5.11891e-05
4.87165e-05
4.88219e-05
4.8835e-05
5.05102e-05
5.34548e-05
4.9739e-05
4.95306e-05
4.82376e-05
4.87384e-05
4.92239e-05
5.10945e-05
5.2156e-05
4.96044e-05
4.86257e-05
4.87199e-05
4.82092e-05
4.81749e-05
4.90988e-05
4.79488e-05
5.0934e-05
5.00157e-05
4.82451e-05
4.81043e-05
4.79408e-05
5.05575e-05
4.9027e-05
5.05135e-05
4.8007e-05
4.91543e-05
4.78595e-05
4.88162e-05
5.17302e-05
5.10547e-05
4.79518e-05
4.82108e-05
4.7814e-05
4.91383e-05
4.85791e-05
4.88819e-05
4.98048e-05
5.0074e-05
5.32566e-05
4.84946e-05
4.93706e-05
4.97625e-05
5.28745e-05
5.23768e-05
5.66005e-05
4.86496e-05
4.90089e-05
5.17864e-05
5.05595e-05
5.18494e-05
5.40825e-05
4.86478e-05
5.01208e-05
5.18616e-05
5.11688e-05
4.96443e-05
5.04734e-05
4.94585e-05
5.41583e-05
5.45517e-05
4.96402e-05
5.11264e-05
4.95102e-05
5.16365e-05
5.563e-05
4.76883e-05
5.16582e-05
5.04946e-05
4.84346e-05
4.87569e-05
5.35375e-05
4.91009e-05
5.17276e-05
5.09319e-05
4.84111e-05
4.81847e-05
4.98818e-05
4.877e-05
5.04014e-05
5.34661e-05
4.79017e-05
4.99374e-05
4.81899e-05
5.03879e-05
5.29126e-05
4.76499e-05
5.46966e-05
4.80693e-05
4.86488e-05
4.97644e-05
5.04311e-05
4.91481e-05
5.51498e-05
4.80285e-05
4.80613e-05
4.97047e-05
5.04806e-05
5.00286e-05
5.05547e-05
4.90726e-05
4.7952e-05
5.59322e-05
4.99889e-05
5.06057e-05
4.90373e-05
5.02434e-05
5.56781e-05
5.42385e-05
5.13228e-05
5.15411e-05
5.22341e-05
5.1985e-05
5.57357e-05
5.35931e-05
5.13045e-05
5.18957e-05
5.22711e-05
5.23163e-05
4.92718e-05
5.18647e-05
5.21411e-05
5.66914e-05
5.35997e-05
4.92482e-05
5.21957e-05
5.21802e-05
5.59741e-05
5.35229e-05
5.14612e-05
5.18766e-05
5.15351e-05
5.02585e-05
5.01084e-05
5.2959e-05
5.13048e-05
5.1919e-05
5.15916e-05
5.02331e-05
4.98297e-05
5.22794e-05
5.02087e-05
5.09544e-05
5.26705e-05
5.0664e-05
5.2311e-05
4.99285e-05
5.09289e-05
5.17006e-05
5.16017e-05
5.30961e-05
5.01967e-05
5.00837e-05
5.05642e-05
5.0689e-05
5.15091e-05
5.33746e-05
5.01663e-05
4.98374e-05
5.05531e-05
5.09188e-05
5.04085e-05
5.06341e-05
5.03574e-05
5.11052e-05
5.38293e-05
5.0379e-05
5.08782e-05
5.03455e-05
5.29028e-05
5.33692e-05
5.40097e-05
5.0924e-05
5.11247e-05
5.17298e-05
5.19059e-05
5.36913e-05
5.42349e-05
5.0931e-05
5.13594e-05
5.17429e-05
5.18827e-05
5.07809e-05
5.1925e-05
5.18525e-05
5.4069e-05
5.40625e-05
5.07945e-05
5.19011e-05
5.18611e-05
5.42907e-05
5.40679e-05
5.4075e-05
5.18756e-05
5.19657e-05
5.20189e-05
5.19284e-05
5.42347e-05
5.38321e-05
5.18788e-05
5.18988e-05
5.20078e-05
5.18732e-05
5.18574e-05
5.19237e-05
5.16509e-05
5.40426e-05
5.38303e-05
5.18625e-05
5.18689e-05
5.16414e-05
5.33662e-05
5.4086e-05
5.40431e-05
5.20184e-05
5.18812e-05
5.2009e-05
5.18592e-05
5.38311e-05
5.3863e-05
5.20081e-05
5.18653e-05
5.20096e-05
5.19077e-05
5.16386e-05
5.18335e-05
5.18266e-05
5.38423e-05
5.39534e-05
5.16299e-05
5.18685e-05
5.18303e-05
5.40429e-05
5.40555e-05
5.39846e-05
5.20136e-05
5.18903e-05
5.20546e-05
5.21251e-05
5.3944e-05
5.41411e-05
5.20235e-05
5.19715e-05
5.20544e-05
5.21076e-05
5.19984e-05
5.21471e-05
5.22557e-05
5.40125e-05
5.40913e-05
5.20047e-05
5.21308e-05
5.22541e-05
5.42717e-05
5.39923e-05
5.39783e-05
5.20629e-05
5.21577e-05
5.20954e-05
5.21533e-05
5.41579e-05
5.40266e-05
5.20585e-05
5.2127e-05
5.20887e-05
5.21379e-05
5.2259e-05
5.21749e-05
5.22145e-05
5.41043e-05
5.40299e-05
5.2256e-05
5.21609e-05
5.22097e-05
5.40723e-05
5.40226e-05
5.42846e-05
5.21284e-05
5.21535e-05
5.232e-05
5.22956e-05
5.40379e-05
5.42556e-05
5.2124e-05
5.21505e-05
5.23202e-05
5.23101e-05
5.22077e-05
5.22981e-05
5.22925e-05
5.4054e-05
5.42596e-05
5.22037e-05
5.23149e-05
5.22935e-05
5.42469e-05
5.43634e-05
5.45004e-05
5.24008e-05
5.23808e-05
5.2582e-05
5.25689e-05
5.43405e-05
5.4491e-05
5.24002e-05
5.23889e-05
5.25801e-05
5.25848e-05
5.23739e-05
5.25714e-05
5.25487e-05
5.43394e-05
5.45134e-05
5.23737e-05
5.25866e-05
5.2547e-05
5.44581e-05
5.45277e-05
5.45536e-05
5.26188e-05
5.26093e-05
5.26797e-05
5.26855e-05
5.45242e-05
5.45671e-05
5.26175e-05
5.2623e-05
5.26771e-05
5.26575e-05
5.25863e-05
5.26876e-05
5.26827e-05
5.45393e-05
5.45134e-05
5.25855e-05
5.26598e-05
5.2681e-05
5.45742e-05
5.45772e-05
5.46003e-05
5.27003e-05
5.27036e-05
5.27511e-05
5.27279e-05
5.45855e-05
5.45677e-05
5.26954e-05
5.26683e-05
5.27473e-05
5.27676e-05
5.27165e-05
5.27357e-05
5.27392e-05
5.45312e-05
5.46411e-05
5.2712e-05
5.2774e-05
5.27353e-05
5.45543e-05
5.46176e-05
5.46233e-05
5.27633e-05
5.27379e-05
5.27892e-05
5.28124e-05
5.45861e-05
5.46687e-05
5.27641e-05
5.27884e-05
5.27908e-05
5.2778e-05
5.27333e-05
5.28103e-05
5.27619e-05
5.46649e-05
5.45675e-05
5.2732e-05
5.27785e-05
5.27666e-05
5.46343e-05
5.46436e-05
5.46819e-05
5.28046e-05
5.28291e-05
5.28517e-05
5.28232e-05
5.46903e-05
5.46065e-05
5.28004e-05
5.27763e-05
5.28423e-05
5.28615e-05
5.28252e-05
5.28324e-05
5.28799e-05
5.45773e-05
5.47478e-05
5.28252e-05
5.28742e-05
5.28737e-05
5.46845e-05
5.47104e-05
5.47338e-05
5.28691e-05
5.28244e-05
5.29058e-05
5.29233e-05
5.46182e-05
5.48089e-05
5.2869e-05
5.29064e-05
5.29104e-05
5.29049e-05
5.28663e-05
5.2922e-05
5.28516e-05
5.4794e-05
5.46628e-05
5.28636e-05
5.29032e-05
5.28559e-05
5.46618e-05
5.47414e-05
5.46388e-05
5.29052e-05
5.29454e-05
5.28821e-05
5.2887e-05
5.48433e-05
5.4583e-05
5.2908e-05
5.28804e-05
5.28722e-05
5.28715e-05
5.28795e-05
5.28975e-05
5.29384e-05
5.46637e-05
5.46936e-05
5.28831e-05
5.28783e-05
5.29288e-05
5.4741e-05
5.46591e-05
5.48331e-05
5.28834e-05
5.28501e-05
5.2953e-05
5.289e-05
5.45781e-05
5.47861e-05
5.28746e-05
5.28911e-05
5.29608e-05
5.29383e-05
5.29247e-05
5.28923e-05
5.28905e-05
5.47405e-05
5.47589e-05
5.29165e-05
5.29415e-05
5.28966e-05
5.46882e-05
5.4852e-05
5.45457e-05
5.29597e-05
5.2956e-05
5.28746e-05
5.2945e-05
5.4875e-05
5.46477e-05
5.29657e-05
5.29374e-05
5.28643e-05
5.28906e-05
5.29054e-05
5.2948e-05
5.29185e-05
5.47637e-05
5.46588e-05
5.29125e-05
5.2891e-05
5.29123e-05
5.46798e-05
5.45479e-05
5.47729e-05
5.28432e-05
5.28728e-05
5.28806e-05
5.28283e-05
5.46078e-05
5.46389e-05
5.28354e-05
5.28783e-05
5.28834e-05
5.28794e-05
5.28944e-05
5.28365e-05
5.28697e-05
5.46686e-05
5.47042e-05
5.28856e-05
5.28874e-05
5.28716e-05
5.4684e-05
5.48186e-05
5.45512e-05
5.29105e-05
5.28614e-05
5.28512e-05
5.28595e-05
5.47162e-05
5.46258e-05
5.29138e-05
5.28833e-05
5.28486e-05
5.284e-05
5.2882e-05
5.28618e-05
5.28547e-05
5.47231e-05
5.45959e-05
5.28857e-05
5.28425e-05
5.2854e-05
5.46154e-05
5.45524e-05
5.47398e-05
5.28211e-05
5.28445e-05
5.28468e-05
5.28591e-05
5.46313e-05
5.4756e-05
5.28175e-05
5.28332e-05
5.28443e-05
5.28535e-05
5.28373e-05
5.28648e-05
5.28378e-05
5.46075e-05
5.47399e-05
5.2835e-05
5.2858e-05
5.28348e-05
5.46891e-05
5.47594e-05
5.42869e-05
5.2849e-05
5.2857e-05
5.26631e-05
5.26291e-05
5.47705e-05
5.42149e-05
5.28464e-05
5.28509e-05
5.26613e-05
5.26588e-05
5.28351e-05
5.26335e-05
5.26706e-05
5.47506e-05
5.43022e-05
5.2832e-05
5.26645e-05
5.26705e-05
5.43394e-05
5.42933e-05
5.47571e-05
5.26374e-05
5.26005e-05
5.27574e-05
5.27576e-05
5.42194e-05
5.48e-05
5.26378e-05
5.26453e-05
5.2759e-05
5.27601e-05
5.26622e-05
5.27651e-05
5.27735e-05
5.43152e-05
5.4747e-05
5.26637e-05
5.27671e-05
5.27753e-05
5.47599e-05
5.47918e-05
5.43614e-05
5.2797e-05
5.28208e-05
5.2692e-05
5.2729e-05
5.48543e-05
5.44003e-05
5.27952e-05
5.27822e-05
5.26802e-05
5.26526e-05
5.27911e-05
5.27302e-05
5.26459e-05
5.47678e-05
5.43389e-05
5.27903e-05
5.26528e-05
5.26351e-05
5.43099e-05
5.43295e-05
5.39047e-05
5.25703e-05
5.25796e-05
5.22331e-05
5.21863e-05
5.43356e-05
5.38183e-05
5.25616e-05
5.25579e-05
5.22393e-05
5.22682e-05
5.25429e-05
5.21929e-05
5.22566e-05
5.43285e-05
5.39752e-05
5.25352e-05
5.22742e-05
5.22618e-05
5.39678e-05
5.37826e-05
5.12861e-05
5.12486e-05
5.37221e-05
5.12931e-05
5.13184e-05
4.1768e-05
4.17965e-05
4.17955e-05
5.13192e-05
5.3838e-05
5.13255e-05
3.73773e-05
3.73765e-05
3.7377e-05
3.7377e-05
3.73701e-05
3.73777e-05
3.73043e-05
3.73768e-05
3.73701e-05
3.73777e-05
3.73768e-05
3.73043e-05
3.73741e-05
3.72959e-05
3.72959e-05
3.58805e-05
4.08717e-05
3.66032e-05
4.51448e-05
5.51149e-05
6.48949e-05
3.58803e-05
4.08726e-05
3.66033e-05
4.51451e-05
3.58932e-05
3.58932e-05
3.58932e-05
3.44005e-05
3.44005e-05
3.44005e-05
3.44005e-05
3.52758e-05
3.56381e-05
3.58929e-05
3.53771e-05
3.60475e-05
3.42376e-05
3.53822e-05
5.51167e-05
6.4897e-05
3.52759e-05
3.58929e-05
3.56378e-05
3.53771e-05
3.60475e-05
3.53822e-05
3.42373e-05
3.65964e-05
3.65972e-05
3.5279e-05
3.40648e-05
3.40637e-05
3.39675e-05
5.13532e-05
3.46791e-05
5.46234e-05
7.65455e-05
8.08613e-05
3.39673e-05
5.13542e-05
3.46792e-05
5.46244e-05
3.39296e-05
3.39296e-05
3.39297e-05
3.25854e-05
3.25854e-05
3.25855e-05