/*--------------------------------*- C++ -*----------------------------------*\
| =========                 |                                                 |
| \\      /  F ield         | OpenFOAM: The Open Source CFD Toolbox           |
|  \\    /   O peration     | Version:  v2006                                 |
|   \\  /    A nd           | Website:  www.openfoam.com                      |
|    \\/     M anipulation  |                                                 |
\*---------------------------------------------------------------------------*/
FoamFile
{
    version     2.0;
    format      ascii;
    class       volScalarField;
    location    "500";
    object      nut;
}
// * * * * * * * * * * * * * * * * * * * * * * * * * * * * * * * * * * * * * //

dimensions      [0 2 -1 0 0 0 0];


internalField   nonuniform List<scalar> 
171728
(
0.000233973
0.000233116
0.000233116
0.000233423
0.000232532
0.000227802
0.000227801
0.000223866
0.000230516
0.000220319
0.000220318
0.000209109
0.000227799
0.000211664
0.000211662
0.000193784
0.000224433
0.000202648
0.000202645
0.000179707
0.000220552
0.00019377
0.000193767
0.000167337
0.000216305
0.000185273
0.00018527
0.000156583
0.000211821
0.000177231
0.000177228
0.000147203
0.000207208
0.000169686
0.000169682
0.000138946
0.000202546
0.000162609
0.000162605
0.000131608
0.000197891
0.000155946
0.000155942
0.00012495
0.000193276
0.000149643
0.000149637
0.000118805
0.000188683
0.000143662
0.000143655
0.000113148
0.00018415
0.000137932
0.000137936
0.00010788
0.000179705
0.000132438
0.000132423
0.000102925
0.000175339
0.000127123
0.000127112
9.81768e-05
0.000170987
0.000121794
0.000121789
9.35004e-05
0.000166607
0.000116474
0.000116881
8.88356e-05
0.000162526
0.00011228
0.00011262
8.59746e-05
0.000158635
0.000108717
0.00010805
8.48854e-05
0.000154876
0.000105311
0.000105647
8.93914e-05
0.000150878
0.00010637
0.00010188
8.38325e-05
0.000145699
0.00010258
0.000101842
8.55549e-05
0.000142082
9.52814e-05
9.8669e-05
8.9071e-05
0.000138965
9.5975e-05
9.40592e-05
7.78393e-05
0.000133645
9.26188e-05
9.89736e-05
8.20403e-05
0.000127892
8.67734e-05
9.70235e-05
9.24105e-05
0.00012854
0.000100391
8.52837e-05
9.09487e-05
0.000125249
9.43136e-05
9.06438e-05
7.71308e-05
0.000120145
8.60519e-05
9.71239e-05
9.67166e-05
0.000117381
9.86082e-05
9.77184e-05
8.50933e-05
0.000116227
9.80231e-05
9.33627e-05
8.96085e-05
0.000114546
8.90343e-05
9.18543e-05
0.000113944
0.00011235
0.000103739
0.00010062
9.78346e-05
0.000110256
0.000103115
0.000102406
9.47878e-05
0.000109303
0.000102475
0.000103579
0.000112659
0.000109053
0.000107063
0.000106928
0.000110723
0.00010853
0.000109769
0.000109644
0.000109883
0.000108864
0.000111738
0.000110881
0.000114798
0.000109656
0.000114323
0.000115053
0.000116847
0.000110243
0.000117752
0.000118874
0.000119473
0.000111373
0.000121157
0.000120986
0.000122594
0.000112784
0.000124365
0.000123435
0.000124401
0.00011443
0.000127378
0.000127731
0.000127471
0.000116381
0.000130533
0.000130684
0.000130153
0.000118615
0.000133727
0.000133808
0.000132915
0.000121162
0.000137017
0.000136604
0.000135353
0.000123577
0.00014007
0.000140146
0.000137521
0.000126667
0.000143464
0.000143614
0.000140039
0.000129608
0.00014626
0.000146388
0.000142787
0.00013272
0.000149257
0.000149093
0.000145057
0.000135629
0.000152626
0.000152324
0.000146408
0.000139261
0.000155195
0.000155812
0.000149973
0.000142634
0.000158042
0.000157923
0.000151386
0.00014605
0.000161539
0.00016108
0.000153306
0.000149895
0.000163275
0.000164052
0.000156292
0.000153113
0.000166569
0.000166239
0.000156925
0.000156467
0.000169691
0.0001687
0.000160023
0.000159598
0.00017039
0.000172443
0.000160986
0.000164861
0.000175004
0.000173843
0.000163637
0.000166055
0.00017734
0.000175862
0.000164189
0.000172189
0.000177231
0.00018084
0.000169505
0.00017304
0.000183335
0.000178178
0.000160424
0.000174358
0.000182744
0.00018803
0.000187507
0.000189168
0.000184641
0.000185275
0.000158001
0.0001792
0.000186795
0.000178575
0.000176369
0.000181818
0.000190855
0.000202248
0.000174597
0.000200383
0.000194707
0.000197654
0.00018237
0.00018596
0.000180144
0.000175157
0.000168836
0.000193435
0.00020581
0.000209557
0.00016784
0.000207541
0.000202852
0.000202704
0.000201364
0.000199889
0.000190094
0.000188282
0.000166396
0.000198692
0.000197307
0.000199281
0.000182027
0.000207308
0.00020464
0.000203896
0.000185357
0.000211725
0.000202871
0.000202818
0.000179587
0.000212823
0.000202925
0.000203477
0.000185559
0.000213578
0.000205071
0.000204793
0.000185743
0.000214466
0.000204453
0.000204387
0.000183982
0.000216907
0.000206064
0.000206176
0.000185559
0.000219753
0.000207953
0.000207992
0.00018676
0.000221686
0.00020878
0.000208554
0.000187568
0.000223189
0.000209245
0.00020952
0.000187125
0.000224478
0.000210037
0.000209637
0.000188509
0.000226036
0.000210409
0.000211039
0.000188114
0.000227325
0.000211595
0.000210919
0.000188981
0.000228373
0.00021114
0.000211651
0.00018898
0.00022985
0.000212545
0.000212226
0.000189362
0.000230413
0.000212188
0.000212325
0.000189145
0.000231484
0.000212505
0.000212679
0.00018963
0.00023247
0.000213385
0.000213198
0.000189793
0.00023321
0.000213496
0.000213453
0.000189763
0.000233278
0.000212075
0.000212614
0.000188532
0.000235008
0.000215141
0.000214577
0.000191899
0.000234938
0.000212964
0.000212868
0.000187921
0.000235997
0.000213114
0.000213633
0.000192283
0.000234266
0.000234448
0.000234449
0.000234267
0.000234448
0.000234449
0.000234274
0.000234274
0.000234274
0.000234274
0.000234448
0.000234448
0.000234266
0.000234448
0.000234448
0.000234266
0.000233423
0.000226205
0.000233116
0.000233114
0.000229361
0.000229357
0.000233423
0.000226205
0.000233114
0.000233114
0.000229359
0.000229356
0.000233116
0.000229364
0.00022936
0.000233423
0.000226203
0.000233114
0.000229363
0.000229359
0.000226201
0.000223868
0.000212232
0.000227799
0.000227794
0.000222332
0.000222326
0.000223867
0.000212232
0.000227797
0.000227793
0.000222333
0.000222325
0.000227797
0.000222337
0.000222329
0.000223867
0.000212229
0.000227796
0.000222336
0.000222331
0.000212225
0.000209113
0.000197063
0.000220313
0.000220307
0.00021388
0.000213873
0.00020911
0.000197063
0.000220314
0.000220305
0.000213885
0.000213871
0.00022031
0.000213889
0.000213876
0.00020911
0.000197059
0.000220312
0.000213886
0.000213881
0.000197053
0.000193791
0.000182879
0.000211654
0.000211647
0.00020489
0.000204883
0.000193789
0.000182879
0.00021166
0.000211645
0.000204899
0.000204881
0.00021165
0.000204903
0.000204885
0.000193787
0.000182874
0.000211656
0.0002049
0.000204895
0.000182867
0.000179716
0.000170272
0.000202635
0.000202627
0.000195943
0.000195936
0.000179714
0.000170271
0.000202644
0.000202625
0.000195956
0.000195933
0.000202629
0.000195959
0.000195938
0.000179712
0.000170266
0.00020264
0.000195957
0.000195952
0.000170259
0.000167348
0.000159247
0.000193753
0.000193746
0.000187337
0.00018733
0.000167346
0.000159246
0.000193767
0.000193743
0.000187354
0.000187327
0.000193748
0.000187356
0.000187331
0.000167342
0.000159241
0.000193762
0.000187353
0.000187348
0.000159233
0.000156596
0.000149616
0.000185253
0.000185246
0.000179173
0.000179166
0.000156593
0.000149616
0.00018527
0.000185242
0.000179194
0.000179163
0.000185247
0.000179195
0.000179168
0.00015659
0.000149611
0.000185265
0.000179193
0.000179188
0.000149603
0.000147215
0.000141112
0.000177208
0.000177202
0.000171501
0.000171494
0.000147214
0.000141109
0.000177229
0.000177198
0.000171524
0.000171491
0.000177203
0.000171526
0.000171496
0.00014721
0.000141105
0.000177224
0.000171523
0.000171519
0.000141093
0.000138959
0.000133549
0.00016966
0.000169653
0.00016431
0.000164302
0.000138956
0.000133551
0.000169683
0.000169649
0.000164335
0.0001643
0.000169654
0.000164337
0.000164304
0.000138952
0.000133544
0.000169678
0.000164334
0.00016433
0.000133535
0.000131623
0.000126689
0.00016258
0.000162573
0.000157546
0.00015754
0.000131622
0.000126686
0.000162606
0.00016257
0.000157575
0.000157537
0.000162575
0.000157576
0.000157543
0.000131618
0.000126678
0.000162602
0.000157573
0.000157571
0.000126671
0.000124961
0.00012036
0.000155915
0.000155908
0.000151157
0.000151151
0.000124963
0.000120361
0.000155944
0.000155905
0.000151187
0.000151146
0.00015591
0.000151189
0.000151153
0.000124955
0.000120352
0.000155939
0.000151183
0.000151182
0.000120344
0.00011882
0.000114425
0.000149611
0.000149604
0.000145094
0.000145085
0.000118819
0.000114409
0.000149641
0.0001496
0.000145125
0.000145083
0.000149605
0.000145124
0.000145087
0.000118812
0.000114413
0.000149636
0.000145122
0.00014512
0.000114389
0.000113174
0.000108822
0.000143621
0.00014362
0.000139312
0.000139299
0.000113162
0.000108783
0.000143654
0.000143615
0.000139345
0.000139302
0.00014362
0.000139337
0.000139309
0.000113162
0.0001088
0.000143653
0.000139342
0.000139342
0.00010877
0.000107913
0.000103658
0.000137901
0.000137889
0.000133762
0.000133748
0.000107886
0.000103586
0.000137933
0.000137896
0.000133808
0.000133747
0.000137898
0.000133776
0.000133748
0.000107899
0.00010362
0.000137938
0.000133783
0.00013378
0.00010358
0.000103012
9.89494e-05
0.000132402
0.000132394
0.000128405
0.00012837
0.000102927
9.88339e-05
0.000132442
0.00013239
0.000128443
0.000128386
0.000132384
0.000128419
0.000128384
0.000102959
9.88749e-05
0.000132417
0.000128419
0.000128431
9.88968e-05
9.82288e-05
9.4441e-05
0.000127081
0.000127066
0.000123229
0.000123153
9.81093e-05
9.42467e-05
0.000127129
0.000127071
0.00012323
0.000123032
0.000127074
0.000123221
0.000123151
9.81282e-05
9.42334e-05
0.000127109
0.000123054
0.000123189
9.44187e-05
9.36057e-05
8.95651e-05
0.000121888
0.000121741
0.000118009
0.000117775
9.33541e-05
8.90124e-05
0.000121894
0.000121758
0.000118039
0.000118082
0.000121765
0.00011781
0.000118002
9.32619e-05
9.03232e-05
0.000121839
0.000118152
0.000118024
8.96814e-05
8.86071e-05
8.53714e-05
0.000116657
0.00011641
0.000113021
0.000112941
8.79871e-05
8.53369e-05
0.00011666
0.000116808
0.000113053
0.000113643
0.000116721
0.000112991
0.000113324
8.95456e-05
8.72034e-05
0.000116744
0.000113692
0.000113223
8.62916e-05
8.52479e-05
8.71151e-05
0.000112297
0.000112277
0.00010993
0.000109904
8.51895e-05
8.68575e-05
0.00011232
0.000112567
0.000110014
0.000108761
0.000112491
0.000109755
0.000109258
8.66474e-05
8.2939e-05
0.000112371
0.000108693
0.000109332
8.52862e-05
8.7192e-05
9.01739e-05
0.000109294
0.000108847
0.00010799
0.000105728
8.62814e-05
8.42582e-05
0.000109415
0.000108077
0.000108158
0.000106208
0.000108537
0.000105835
0.000107494
8.2169e-05
8.5818e-05
0.000108739
0.000106419
0.000107806
8.88635e-05
8.98721e-05
8.87995e-05
0.000107058
0.000105078
0.000104583
0.00010489
8.41195e-05
9.08591e-05
0.00010716
0.000105391
0.000104499
0.00010277
0.000106825
0.000105384
0.000103367
8.56571e-05
8.32597e-05
0.000107067
0.000102853
0.000103145
8.47681e-05
8.84556e-05
8.16889e-05
0.000103916
0.000105995
9.96948e-05
0.000104552
9.45751e-05
9.6171e-05
0.000103771
0.000101844
9.95486e-05
0.000101762
0.000102284
0.000104497
0.000100206
8.26617e-05
8.83887e-05
0.000102071
0.00010156
0.000100017
8.39144e-05
7.98988e-05
7.95094e-05
9.81046e-05
0.000102764
9.59146e-05
9.65385e-05
9.37982e-05
7.87724e-05
9.80172e-05
0.000101944
9.60482e-05
9.95041e-05
0.000100206
9.65206e-05
0.00010025
8.97502e-05
8.89933e-05
0.00010014
9.96138e-05
0.000100181
9.07144e-05
8.06286e-05
9.26619e-05
9.59163e-05
9.52636e-05
9.79666e-05
9.43347e-05
7.76338e-05
8.20562e-05
9.60779e-05
9.84572e-05
9.80372e-05
9.49989e-05
9.87726e-05
9.44308e-05
9.41819e-05
8.81443e-05
8.1112e-05
9.87946e-05
9.50354e-05
9.45882e-05
7.90739e-05
9.56296e-05
8.1275e-05
9.91135e-05
9.58724e-05
9.40903e-05
9.50151e-05
8.56182e-05
8.60366e-05
9.91542e-05
9.40465e-05
9.40264e-05
9.52591e-05
9.30217e-05
9.49682e-05
9.17364e-05
8.0299e-05
9.12415e-05
9.33777e-05
9.51916e-05
9.16466e-05
7.95606e-05
7.68251e-05
6.56275e-05
9.10778e-05
9.2669e-05
8.54789e-05
8.72432e-05
8.26183e-05
6.9492e-05
9.10135e-05
9.90393e-05
8.55345e-05
9.97595e-05
9.32104e-05
8.72358e-05
9.4763e-05
9.86268e-05
0.00010395
9.30394e-05
9.98268e-05
9.47704e-05
9.1441e-05
6.78593e-05
9.59912e-05
8.53093e-05
8.67725e-05
9.44497e-05
9.63516e-05
6.9578e-05
0.000103698
8.54164e-05
9.69516e-05
9.46066e-05
8.69099e-05
9.55031e-05
9.64834e-05
9.56633e-05
9.85414e-05
6.73014e-05
9.56324e-05
8.70239e-05
9.58072e-05
9.33457e-05
9.9021e-05
9.70404e-05
9.6982e-05
0.000100245
9.68178e-05
9.74524e-05
0.000108889
9.45304e-05
9.70469e-05
8.51635e-05
9.66813e-05
8.73032e-05
9.44111e-05
9.74973e-05
8.89572e-05
6.59589e-05
8.17166e-05
9.44542e-05
8.73518e-05
8.88379e-05
7.77504e-05
9.48564e-05
8.51605e-05
9.52289e-05
9.43259e-05
9.1904e-05
8.68898e-05
9.00355e-05
7.479e-05
9.50908e-05
9.06615e-05
9.18875e-05
9.58129e-05
8.79495e-05
8.68564e-05
9.14702e-05
8.69086e-05
9.93978e-05
8.78213e-05
9.56992e-05
9.14477e-05
9.20933e-05
8.44782e-05
9.14512e-05
9.09129e-05
8.60647e-05
9.15896e-05
9.39966e-05
7.55051e-05
9.89088e-05
9.09313e-05
9.71732e-05
9.17396e-05
9.84132e-05
9.46246e-05
9.42288e-05
9.33023e-05
0.000100912
0.000101684
9.46615e-05
9.86167e-05
9.34772e-05
8.77825e-05
9.47946e-05
9.56675e-05
9.44785e-05
9.84078e-05
9.61104e-05
0.000101048
0.00010527
0.000106179
9.46207e-05
9.75356e-05
9.61148e-05
9.4749e-05
9.12801e-05
0.000100933
8.87663e-05
0.000100521
9.0976e-05
9.14304e-05
9.46563e-05
8.87835e-05
8.35585e-05
9.51173e-05
0.000101978
9.53801e-05
9.81414e-05
9.82223e-05
8.98535e-05
0.000101301
7.7969e-05
9.53628e-05
9.34648e-05
9.81665e-05
9.06355e-05
9.11543e-05
8.98287e-05
0.000104187
8.92647e-05
8.58475e-05
9.1045e-05
9.0673e-05
0.000104139
0.000114691
0.000103637
0.000101177
9.96682e-05
8.90432e-05
9.93527e-05
9.93744e-05
7.80452e-05
0.000110448
9.97088e-05
9.17819e-05
9.94543e-05
9.86982e-05
0.000104705
9.94786e-05
0.00010043
8.729e-05
0.000102824
0.000104754
9.87724e-05
0.000100546
9.98303e-05
0.000100344
0.000101015
9.893e-05
0.000103636
0.000100088
0.000104475
0.000113416
0.000107059
9.89784e-05
0.000100543
0.000100032
0.000102439
9.86368e-05
0.0001045
9.59169e-05
0.000104745
0.000105517
9.86975e-05
0.000102468
9.58435e-05
9.32003e-05
0.000101824
0.000104676
0.000100624
0.000103119
0.000102382
0.000101827
0.000105682
0.000102572
0.000100574
0.000102412
0.000102412
0.00010306
9.68553e-05
0.000101783
0.000104089
0.00010509
0.000104786
9.68003e-05
0.000103017
0.000104109
0.000110402
0.000105439
0.000108623
0.00010325
0.000102486
0.00010573
0.000105864
0.000103499
0.000109389
0.000103285
0.000103594
0.000105747
0.000105757
0.000106362
0.000105949
0.00010837
0.000105303
0.000109134
0.000106389
0.000105825
0.000108383
0.000111631
0.000108941
0.000109801
0.000106384
0.000106987
0.000107861
0.000109202
0.000110334
0.00011254
0.000106392
0.00010686
0.000107874
0.000109426
0.000107808
0.000109197
0.000107538
0.000110061
0.000112395
0.000107812
0.000109436
0.00010755
0.000109094
0.000110147
0.000113733
0.000108367
0.000109779
0.000110949
0.000111318
0.000112765
0.00011362
0.000108393
0.000109641
0.000110962
0.000110309
0.000108359
0.000111348
0.000111342
0.000112258
0.000111768
0.000108382
0.000110341
0.000111352
0.000114301
0.000114667
0.000117307
0.000112054
0.000111706
0.000114667
0.00011347
0.000113762
0.000115262
0.000112058
0.000110846
0.000114664
0.000113835
0.00011211
0.000113486
0.000114118
0.000112197
0.000116519
0.000112113
0.000113851
0.00011411
0.000116399
0.000117538
0.000118983
0.000115234
0.000114309
0.000117144
0.000116862
0.000115901
0.00011893
0.000115228
0.00011504
0.000117158
0.000118059
0.000114874
0.00011688
0.00011702
0.00011757
0.000120798
0.000114863
0.000118076
0.00011703
0.000119001
0.000119523
0.000122045
0.000117921
0.000117733
0.000120324
0.00012036
0.000119507
0.000122064
0.000117939
0.000118854
0.000120342
0.000120427
0.000117751
0.000120379
0.000120403
0.000121118
0.00012181
0.000117766
0.000120448
0.000120416
0.000122097
0.000122548
0.000124587
0.00012117
0.000121133
0.000123497
0.000123486
0.000122538
0.000124668
0.000121187
0.00012096
0.00012351
0.000122839
0.000121238
0.00012351
0.000123223
0.000121954
0.000123357
0.000121254
0.000122866
0.000123235
0.000124042
0.000124967
0.000127071
0.000124207
0.000124347
0.00012657
0.000126667
0.000125188
0.000127195
0.000124215
0.000123413
0.000126558
0.000126415
0.000123897
0.000126681
0.000126385
0.000123747
0.000127409
0.000123902
0.000126429
0.000126369
0.000126915
0.000127547
0.000129591
0.000127369
0.000127361
0.000129694
0.000129685
0.00012754
0.000129598
0.000127357
0.000127713
0.000129712
0.000130162
0.000127257
0.00012971
0.000129751
0.000128364
0.000130214
0.000127243
0.000130181
0.000129767
0.000129701
0.000130059
0.000132296
0.000130526
0.000130511
0.000132944
0.000132942
0.000130102
0.000132216
0.000130546
0.000130664
0.000132939
0.000132919
0.00013057
0.00013296
0.000133047
0.000130306
0.000132173
0.000130588
0.000132943
0.000133043
0.000132436
0.000132746
0.000135003
0.000133732
0.000133708
0.000136341
0.000136119
0.00013263
0.000134811
0.000133728
0.000133783
0.000136356
0.000135928
0.00013389
0.000136141
0.000136305
0.000132734
0.000134304
0.000133887
0.00013595
0.000136322
0.000134991
0.000135384
0.000136877
0.000137086
0.000136997
0.000139057
0.000139328
0.000135299
0.000137294
0.000137098
0.000136583
0.000139045
0.000139112
0.000137057
0.000139353
0.000139247
0.000134593
0.00013726
0.00013707
0.000139133
0.000139236
0.000137123
0.000137381
0.000140167
0.000139908
0.000140041
0.000142675
0.00014256
0.000137648
0.00013997
0.000139893
0.000140121
0.000142687
0.000142867
0.00014
0.000142581
0.000142365
0.000137934
0.000140356
0.000139986
0.00014289
0.000142379
0.000139612
0.000140565
0.000142171
0.000143489
0.000143447
0.000145635
0.00014561
0.000140461
0.000142078
0.000143507
0.000143597
0.000145638
0.000145688
0.000143163
0.00014563
0.000145604
0.000140663
0.000142175
0.000143182
0.000145703
0.000145607
0.000142275
0.000142549
0.000144593
0.000146358
0.000146235
0.000148772
0.000148384
0.000142314
0.000144203
0.000146361
0.000146364
0.000148787
0.000148404
0.000146463
0.00014841
0.000149002
0.000142494
0.000143976
0.000146468
0.000148437
0.00014902
0.000144862
0.000144899
0.000146086
0.000149468
0.000149234
0.000151239
0.00015188
0.000144726
0.000147161
0.000149478
0.000149065
0.000151219
0.000151319
0.000149611
0.000151903
0.000151181
0.000144286
0.000146556
0.000149622
0.000151335
0.000151159
0.000145943
0.000146499
0.000149394
0.000151991
0.000152603
0.00015471
0.000154466
0.000147491
0.000148722
0.000151962
0.00015231
0.000154712
0.000155117
0.000151963
0.000154489
0.000154762
0.000147199
0.000149757
0.000151935
0.000155136
0.000154768
0.000149522
0.000149822
0.000150954
0.00015559
0.000155172
0.000157537
0.000157329
0.000149033
0.000150913
0.000155613
0.000155789
0.000157566
0.000157353
0.00015566
0.000157354
0.000157724
0.000149946
0.000150723
0.000155687
0.000157377
0.000157758
0.000151269
0.000151099
0.000153383
0.000158021
0.000158011
0.000160185
0.000160572
0.000151261
0.000153973
0.000158042
0.000157897
0.000160182
0.000160204
0.000158204
0.000160609
0.000159958
0.000150996
0.000153362
0.000158224
0.000160237
0.000159952
0.000152826
0.000153998
0.000155822
0.00016116
0.000161517
0.000163557
0.000163084
0.000154464
0.000154793
0.000161144
0.000161053
0.000163529
0.000163338
0.000160723
0.000163088
0.000163509
0.000153836
0.000155552
0.000160708
0.000163344
0.000163483
0.000155941
0.000155925
0.000157251
0.000164099
0.000163256
0.000165752
0.000165308
0.000154693
0.000157245
0.000164087
0.000164034
0.0001658
0.000165673
0.000164369
0.00016536
0.000165535
0.000155806
0.000157097
0.000164357
0.000165722
0.000165586
0.00015686
0.000157623
0.000158853
0.000166386
0.00016654
0.000168364
0.000169447
0.000158295
0.00016011
0.000166441
0.000166209
0.000168351
0.000167996
0.000165866
0.000169443
0.000168449
0.000157246
0.000158701
0.000165921
0.000167986
0.000168439
0.000159543
0.000158749
0.000159998
0.000168784
0.000169666
0.000169853
0.000169619
0.000159758
0.000159165
0.000168731
0.000168688
0.000169794
0.000171488
0.000169424
0.000169677
0.000170792
0.000159125
0.000162211
0.000169371
0.000171544
0.000170742
0.000160827
0.000160739
0.000166009
0.000170995
0.000170344
0.000175536
0.000173945
0.000159621
0.000164151
0.000171002
0.000172394
0.000175702
0.000173713
0.000171275
0.000173975
0.000173801
0.000162649
0.000162592
0.000171281
0.000173754
0.000173964
0.000163642
0.00016531
0.000161489
0.000175851
0.000174996
0.000174702
0.000177057
0.000164592
0.000166346
0.00017595
0.000173843
0.000174587
0.000174758
0.000174538
0.000176992
0.000175259
0.000162299
0.000163851
0.00017465
0.00017468
0.000175134
0.00016393
0.000161591
0.000172643
0.00017474
0.000177359
0.000180648
0.000177041
0.000166257
0.000163261
0.000174603
0.000175893
0.000180535
0.000180617
0.000175686
0.000177233
0.000181179
0.000164721
0.000169609
0.000175525
0.000180897
0.000181161
0.000171112
0.00017291
0.000161945
0.000182744
0.000177039
0.000179226
0.000180031
0.00016309
0.000170776
0.000182959
0.000180629
0.000179481
0.000178533
0.000180919
0.000179957
0.000177632
0.000168533
0.000162446
0.000181178
0.000178378
0.000177897
0.00015981
0.000160319
0.00016603
0.000177446
0.000183618
0.000177777
0.000183549
0.000173446
0.000169025
0.00017753
0.000178427
0.000177528
0.00018358
0.000177593
0.000183617
0.000185579
0.000162615
0.000177887
0.000177645
0.000183363
0.000184944
0.000185461
0.00017002
0.000193218
0.000181027
0.000182454
0.000196281
0.000182466
0.000166623
0.000168411
0.000180607
0.000187792
0.000196917
0.000187682
0.00019126
0.000182821
0.000186237
0.00018005
0.00017012
0.000190861
0.000188118
0.000186659
0.000163022
0.0001903
0.000153233
0.000196434
0.00018432
0.000182103
0.000188518
0.000172201
0.000173675
0.00019712
0.000185163
0.000181852
0.000179232
0.000181315
0.000187574
0.000180747
0.000166643
0.000158029
0.000181918
0.000178372
0.000180603
0.000168895
0.000148788
0.000173981
0.000176131
0.000187572
0.000180236
0.000187436
0.000170679
0.000175192
0.000175618
0.000179284
0.000179941
0.000191386
0.000185418
0.000188141
0.000192337
0.000158917
0.00019385
0.000184691
0.000193418
0.000192077
0.000179194
0.000187927
0.000206898
0.000188251
0.000189781
0.000211795
0.000199339
0.000180766
0.000186056
0.00018834
0.000200213
0.000212591
0.000204732
0.000191118
0.000198192
0.000192016
0.000200701
0.000188873
0.000191171
0.000203878
0.000192527
0.000176982
0.000195857
0.000141979
0.000206283
0.000195761
0.00017669
0.000179707
0.000179753
0.000152118
0.000206944
0.000198789
0.000176478
0.000174572
0.000195318
0.000180039
0.000193353
0.000178248
0.000144214
0.000195851
0.000174837
0.000193198
0.000174746
0.000142499
0.000196617
0.000174275
0.000179405
0.000191469
0.000197189
0.000153139
0.000200427
0.000173927
0.000174474
0.000191069
0.000198432
0.000189156
0.000197944
0.000183157
0.00014568
0.000208318
0.00018881
0.000199201
0.000182951
0.000163077
0.000203476
0.000188988
0.000204268
0.000206381
0.000210394
0.000208041
0.000204265
0.00018384
0.000204218
0.000210154
0.000210774
0.000210355
0.000186465
0.000207152
0.000210532
0.000213313
0.000183044
0.000186372
0.000209444
0.000210928
0.00020345
0.000182934
0.000167421
0.000206393
0.000203179
0.000191441
0.000189853
0.00017833
0.000165837
0.000206764
0.000203057
0.000191237
0.000187592
0.000210863
0.000190637
0.000196605
0.000175483
0.000161831
0.000211138
0.000188364
0.000196397
0.000168345
0.000167997
0.000178174
0.000190558
0.000189432
0.000192979
0.000194172
0.000166972
0.000180582
0.000190331
0.00018758
0.000192938
0.000196142
0.000192093
0.00019374
0.000192228
0.000164558
0.000183863
0.00019187
0.000195832
0.000192183
0.000178485
0.000179823
0.00018463
0.000195748
0.000197705
0.000202157
0.000203978
0.000182587
0.000186695
0.000195851
0.000199621
0.000202284
0.000203651
0.000195673
0.0002042
0.000203728
0.000185313
0.000185258
0.000195825
0.000203896
0.000203815
0.000186852
0.000184822
0.000185315
0.000203316
0.000204396
0.000204413
0.000203547
0.000186346
0.000183275
0.000203358
0.000203643
0.000204348
0.000203117
0.000203293
0.000203474
0.000200929
0.000184817
0.00018333
0.000203346
0.000203048
0.000200878
0.000179572
0.000185193
0.000185096
0.000204396
0.000203077
0.000204241
0.00020286
0.000183006
0.000183662
0.000204347
0.000203003
0.000204289
0.000203297
0.000200793
0.000202616
0.000202448
0.000183184
0.000184333
0.000200753
0.000202943
0.000202515
0.000184785
0.000184885
0.000184057
0.000204206
0.00020312
0.000204138
0.000204799
0.000184016
0.000185221
0.000204322
0.00020378
0.000204161
0.000204572
0.000203851
0.000204977
0.000205806
0.000184504
0.000184814
0.000203937
0.000204757
0.000205818
0.00018611
0.000183746
0.000183417
0.000204028
0.000204862
0.000203867
0.00020437
0.000184966
0.00018378
0.000204019
0.000204569
0.000203846
0.000204217
0.000205664
0.000204544
0.000204899
0.000184555
0.00018378
0.000205664
0.000204405
0.000204891
0.000184169
0.000183467
0.000185548
0.000204063
0.000204296
0.00020555
0.000205363
0.000183599
0.00018531
0.00020406
0.000204245
0.00020558
0.00020549
0.000204774
0.000205387
0.000205348
0.000183679
0.000185404
0.000204771
0.000205533
0.000205384
0.000185281
0.000185868
0.000186971
0.000206197
0.000206038
0.000207648
0.00020759
0.000185662
0.000186983
0.000206225
0.000206145
0.000207673
0.000207696
0.000205973
0.000207604
0.000207372
0.00018575
0.000187061
0.000206003
0.000207708
0.000207396
0.000186721
0.000186933
0.000187453
0.000207952
0.000207941
0.000208541
0.000208591
0.000187009
0.000187472
0.000207977
0.00020798
0.000208537
0.000208337
0.000207731
0.000208615
0.000208628
0.00018698
0.000187193
0.00020776
0.000208369
0.000208633
0.00018767
0.000187391
0.000187737
0.000208731
0.00020874
0.000209192
0.000209045
0.000187342
0.000187616
0.000208716
0.000208512
0.000209215
0.000209374
0.000208887
0.000209096
0.000209
0.000187125
0.00018802
0.000208871
0.000209421
0.000209009
0.000187258
0.000187624
0.000187932
0.000209306
0.000209208
0.000209641
0.000209883
0.00018755
0.000188248
0.000209363
0.000209505
0.000209646
0.000209465
0.000208992
0.00020987
0.000209562
0.000187879
0.000187567
0.000209022
0.000209477
0.000209611
0.000188276
0.00018786
0.000188663
0.000209815
0.000210006
0.00021047
0.000210119
0.000188095
0.000188074
0.000209786
0.000209602
0.000210457
0.000210598
0.000210091
0.000210185
0.000210531
0.000187464
0.000189145
0.000210107
0.000210696
0.000210524
0.000188324
0.000188659
0.000188895
0.000210694
0.000210355
0.00021111
0.000211427
0.000188001
0.000189713
0.000210747
0.000210983
0.000211157
0.000211038
0.000210466
0.000211416
0.00021081
0.000189164
0.000188391
0.000210493
0.00021102
0.000210852
0.000188724
0.000188678
0.000188781
0.000211124
0.000211585
0.000211315
0.000211139
0.00018956
0.000188049
0.000211149
0.000210915
0.000211284
0.000211242
0.000211095
0.000211234
0.000211669
0.000188214
0.000189056
0.000211127
0.000211312
0.000211628
0.000189196
0.000188765
0.000190215
0.000211537
0.000211061
0.000212378
0.000211997
0.000187884
0.000190192
0.00021152
0.000211523
0.000212466
0.000212192
0.00021167
0.000212007
0.000211855
0.000189185
0.000189674
0.000211672
0.000212207
0.000211924
0.000189295
0.00018998
0.000188436
0.000212435
0.000212555
0.000211938
0.000212539
0.000190449
0.000189028
0.000212501
0.000212223
0.000211886
0.000212223
0.000212023
0.000212571
0.000212369
0.00018944
0.000189292
0.000212094
0.000212239
0.000212348
0.000189339
0.000188309
0.000190271
0.000211947
0.000212114
0.000212649
0.00021215
0.000188588
0.000189247
0.000211924
0.000212275
0.000212705
0.000212552
0.000212351
0.000212214
0.000212507
0.00018918
0.000189655
0.000212315
0.000212619
0.000212557
0.000189627
0.000190257
0.000189477
0.000212914
0.000212462
0.000213023
0.000213212
0.000189487
0.000190142
0.000212973
0.000212625
0.000213035
0.000213006
0.000212656
0.000213232
0.000213113
0.000189512
0.000189841
0.000212719
0.000213031
0.000213137
0.00018992
0.000189344
0.000190506
0.000213051
0.000213354
0.000213463
0.000213616
0.000190044
0.000190627
0.000213052
0.00021317
0.000213466
0.000213486
0.000213158
0.000213659
0.000213304
0.000189766
0.000190444
0.000213165
0.000213518
0.0002133
0.00019001
0.000190238
0.000188041
0.00021341
0.000213455
0.000212314
0.000211898
0.000190257
0.000187381
0.000213415
0.000213419
0.000212351
0.000212394
0.000213258
0.000211944
0.000212517
0.000190154
0.00018824
0.000213256
0.000212461
0.000212569
0.000188557
0.000187961
0.00019214
0.000212395
0.00021202
0.00021433
0.00021447
0.000187313
0.000192683
0.000212452
0.000212542
0.000214358
0.000214238
0.000212707
0.000214531
0.0002144
0.000188192
0.000191871
0.00021277
0.000214297
0.00021443
0.000192016
0.00019218
0.000189002
0.000214766
0.000215095
0.00021406
0.000214364
0.000192866
0.000189126
0.000214759
0.000214534
0.000213987
0.000213746
0.000214624
0.000214366
0.000213606
0.000191815
0.000188922
0.000214627
0.000213738
0.000213541
0.000188536
0.000188188
0.000188394
0.000212936
0.000212966
0.000213724
0.000213401
0.000188057
0.000188009
0.000212896
0.000212874
0.000213818
0.000214146
0.000212662
0.000213454
0.000214141
0.000188307
0.000188975
0.000212626
0.000214189
0.000214217
0.000189235
0.000191511
0.00021326
0.00021304
0.000191275
0.00021334
0.00021356
0.000235879
0.000236175
0.000236253
0.000213708
0.000191889
0.000213779
0.00023473
0.000234746
0.000234729
0.000234729
0.000235117
0.000234798
0.000234702
0.000234727
0.000235118
0.000234798
0.000234727
0.000234701
0.000234867
0.000233566
0.000233566
0.000104652
3.87412e-05
0.000129114
3.9825e-05
2.16828e-05
2.28306e-05
0.000104655
3.87378e-05
0.000129112
3.9821e-05
0.000233973
0.000233973
0.000233973
0.000232935
0.000232935
0.000232935
0.000232935
0.000206199
9.36752e-05
0.000233969
0.000231994
0.000222612
8.7227e-05
0.000233611
2.16821e-05
2.28301e-05
0.000206193
0.000233969
9.36722e-05
0.000231994
0.000222617
0.000233611
8.72245e-05
4.77973e-05
4.77893e-05
0.000231344
4.40184e-05
4.40111e-05
7.25718e-05
4.24353e-05
8.14005e-05
4.37641e-05
2.47747e-05
2.54625e-05
7.25664e-05
4.24311e-05
8.1394e-05
4.37599e-05
0.000232532
0.000232532
0.000232532
0.000231084
0.000231084
0.000231084
0.000231084