/*--------------------------------*- C++ -*----------------------------------*\
| =========                 |                                                 |
| \\      /  F ield         | OpenFOAM: The Open Source CFD Toolbox           |
|  \\    /   O peration     | Version:  v2012                                 |
|   \\  /    A nd           | Website:  www.openfoam.com                      |
|    \\/     M anipulation  |                                                 |
\*---------------------------------------------------------------------------*/
FoamFile
{
    version     2.0;
    format      ascii;
    class       volScalarField;
    location    "500";
    object      nut;
}
// * * * * * * * * * * * * * * * * * * * * * * * * * * * * * * * * * * * * * //

dimensions      [0 2 -1 0 0 0 0];


internalField   nonuniform List<scalar> 
171728
(
3.20728e-06
1.81277e-06
2.77909e-06
2.28447e-06
3.19388e-06
1.76332e-06
2.47306e-06
2.26959e-06
3.21708e-06
1.72366e-06
1.98388e-06
2.18257e-06
3.24207e-06
1.68362e-06
1.8222e-06
2.10051e-06
3.26788e-06
1.64294e-06
1.83685e-06
2.04063e-06
3.29753e-06
1.60001e-06
2.04662e-06
1.99641e-06
3.33238e-06
1.55638e-06
2.51785e-06
1.97009e-06
3.37562e-06
1.49892e-06
3.24882e-06
1.98286e-06
3.41799e-06
1.40464e-06
3.71517e-06
1.95607e-06
3.44188e-06
1.29034e-06
2.82922e-06
1.80308e-06
3.45156e-06
1.15752e-06
1.78658e-06
1.58885e-06
3.47766e-06
1.02306e-06
1.20169e-06
1.38105e-06
3.52873e-06
9.07481e-07
1.03745e-06
1.2173e-06
3.61406e-06
8.16828e-07
1.00832e-06
1.05237e-06
3.7107e-06
7.67046e-07
9.65573e-07
9.55177e-07
3.77171e-06
7.45588e-07
9.31303e-07
1.05573e-06
3.74934e-06
7.39484e-07
9.10375e-07
1.87088e-06
3.69775e-06
9.28036e-07
9.12764e-07
3.89028e-06
3.67532e-06
1.50673e-06
9.63219e-07
5.10593e-06
3.65619e-06
2.54605e-06
1.07093e-06
4.87628e-06
3.64453e-06
3.63635e-06
1.25684e-06
2.85859e-06
3.57877e-06
4.59583e-06
1.65366e-06
3.54369e-06
3.51169e-06
5.52054e-06
2.07496e-06
3.73195e-06
3.39712e-06
4.84036e-06
2.94087e-06
5.63839e-06
3.239e-06
4.93035e-06
3.97035e-06
8.10647e-06
3.08487e-06
6.83126e-06
5.15284e-06
1.26601e-05
2.90231e-06
8.50418e-06
7.41543e-06
1.83318e-05
2.73362e-06
8.97792e-06
9.33885e-06
2.27074e-05
2.51049e-06
1.1408e-05
1.13491e-05
3.09141e-05
2.53407e-06
1.49279e-05
1.5108e-05
4.01969e-05
2.47644e-06
1.86222e-05
1.86698e-05
4.66859e-05
2.59923e-06
2.08211e-05
2.02983e-05
4.87193e-05
2.83778e-06
2.75794e-05
2.77818e-05
5.97414e-05
3.10254e-06
3.05728e-05
3.32589e-05
6.7725e-05
3.9759e-06
3.59187e-05
3.55054e-05
6.94493e-05
3.86139e-06
4.01959e-05
3.93556e-05
6.98252e-05
5.87274e-06
5.16882e-05
4.7273e-05
8.28619e-05
6.93634e-06
5.40112e-05
5.62509e-05
8.56018e-05
6.67384e-06
5.63829e-05
5.60565e-05
8.6161e-05
1.09133e-05
5.91946e-05
6.35957e-05
9.25245e-05
1.25334e-05
7.4699e-05
7.40928e-05
9.69206e-05
1.37288e-05
8.37881e-05
7.5683e-05
0.000100454
2.01819e-05
8.43507e-05
8.26994e-05
0.000102992
2.08285e-05
8.64725e-05
9.04559e-05
0.000106372
2.45894e-05
9.39604e-05
9.34711e-05
0.000111486
3.29952e-05
0.000101567
0.000102073
0.000114832
3.34997e-05
0.000104687
0.000103108
0.000117675
3.86543e-05
0.000113005
0.000112557
0.00012224
4.82054e-05
0.000112959
0.000119053
0.000125505
4.90108e-05
0.000123221
0.00011774
0.000128088
5.99838e-05
0.000128938
0.000128414
0.000133299
6.62904e-05
0.000127978
0.000130693
0.000134927
6.99139e-05
0.000134678
0.000133813
0.000137974
8.21883e-05
0.000142253
0.000139913
0.000142669
8.4334e-05
0.000142126
0.000144503
0.000144022
9.41655e-05
0.0001485
0.00014565
0.000147171
9.9969e-05
0.000150537
0.000154294
0.000150831
0.000108215
0.000157004
0.000155441
0.000153604
0.000113842
0.000159759
0.000157961
0.000153653
0.000120946
0.000162434
0.000164939
0.000159764
0.000127693
0.000166394
0.000167209
0.000161131
0.000132288
0.00017179
0.000169859
0.000162961
0.000141359
0.00017554
0.000175464
0.000165281
0.000145681
0.000175197
0.00017555
0.000168074
0.000150436
0.00017931
0.000181622
0.000171722
0.000158287
0.000184999
0.000184415
0.000171114
0.000162958
0.000189932
0.000185379
0.000174539
0.000168586
0.000188865
0.000189914
0.000177225
0.000174895
0.000187816
0.000194379
0.000179025
0.000178911
0.000195646
0.000194783
0.000179179
0.000184925
0.000200509
0.000194264
0.000182616
0.000190547
0.000201863
0.000201758
0.000185026
0.000193612
0.00020097
0.000204834
0.000185135
0.000198377
0.000200469
0.000203053
0.000184636
0.000206613
0.000210912
0.000207853
0.000190157
0.000207188
0.00020748
0.000212793
0.000191056
0.000203679
0.000202934
0.000207567
0.000187234
0.000221253
0.000218211
0.000213263
0.000193055
0.000228665
0.00021722
0.000221784
0.000197514
0.000217552
0.000208466
0.000213344
0.000192126
0.000211738
0.000219049
0.000209251
0.000190292
0.000236013
0.000231344
0.00022361
0.000200585
0.000244469
0.000218615
0.000228503
0.000200764
0.00023157
0.000213071
0.000219384
0.000194645
0.000227421
0.000221968
0.000213937
0.000194181
0.000236613
0.000225432
0.000224064
0.000199814
0.000245118
0.000226915
0.000232761
0.000201801
0.000248605
0.000228715
0.000226791
0.000203527
0.000242297
0.000221592
0.000218928
0.000196806
0.000238192
0.000219327
0.000219462
0.00019348
0.000246926
0.000229374
0.000231104
0.000202587
0.000255005
0.000233701
0.000234798
0.00020548
0.000249149
0.000223653
0.000223298
0.000199388
0.000244629
0.000221937
0.000219995
0.000196132
0.000248652
0.000226508
0.000228333
0.000202268
2.30509e-06
2.54328e-06
2.3034e-06
2.23742e-06
2.70635e-06
2.43154e-06
3.24919e-06
3.12389e-06
3.19511e-06
2.87054e-06
2.15491e-06
2.46932e-06
2.27508e-06
2.50194e-06
2.21177e-06
2.28791e-06
2.29448e-06
2.28696e-06
2.14736e-06
2.16203e-06
2.13142e-06
2.21545e-06
2.23002e-06
2.21028e-06
2.39902e-06
2.11453e-06
2.43388e-06
2.10377e-06
2.42267e-06
1.77313e-06
2.22878e-06
2.26204e-06
2.27739e-06
2.26177e-06
2.62706e-06
2.02413e-06
2.27475e-06
2.2844e-06
2.28275e-06
2.1251e-06
2.23471e-06
2.12634e-06
2.29422e-06
2.19021e-06
2.18663e-06
2.44272e-06
2.10432e-06
2.46426e-06
2.1259e-06
2.15125e-06
1.73328e-06
1.94686e-06
2.26532e-06
2.24561e-06
1.9145e-06
2.074e-06
1.60679e-06
2.19106e-06
2.27977e-06
2.28014e-06
2.12873e-06
2.31462e-06
2.10825e-06
2.37075e-06
2.16525e-06
2.1659e-06
2.47318e-06
2.1323e-06
2.50657e-06
2.1477e-06
1.89984e-06
1.6933e-06
1.81271e-06
2.23832e-06
2.21261e-06
1.53187e-06
1.83738e-06
1.38177e-06
2.10224e-06
2.27566e-06
2.27107e-06
2.09015e-06
2.38783e-06
2.05546e-06
2.42449e-06
2.14601e-06
2.15125e-06
2.51634e-06
2.15061e-06
2.5408e-06
2.15511e-06
1.79586e-06
1.65365e-06
1.79247e-06
2.20433e-06
2.15846e-06
1.34954e-06
1.82013e-06
1.29326e-06
2.04964e-06
2.25919e-06
2.26101e-06
2.04383e-06
2.42662e-06
2.03152e-06
2.40899e-06
2.13257e-06
2.12472e-06
2.54797e-06
2.15809e-06
2.57161e-06
2.19217e-06
1.80118e-06
1.61027e-06
1.82539e-06
2.14816e-06
2.17554e-06
1.28047e-06
1.97408e-06
1.25264e-06
2.00376e-06
2.24273e-06
2.24836e-06
2.03408e-06
2.39265e-06
2.06457e-06
2.3114e-06
2.11258e-06
2.09074e-06
2.58028e-06
2.21221e-06
2.57987e-06
2.31269e-06
1.8475e-06
1.56749e-06
1.97908e-06
2.17549e-06
2.28968e-06
1.24583e-06
2.36798e-06
1.22147e-06
1.96955e-06
2.23075e-06
2.24846e-06
2.09494e-06
2.26919e-06
2.21237e-06
2.11938e-06
2.0854e-06
2.03906e-06
2.56982e-06
2.35382e-06
2.51962e-06
2.47151e-06
2.04626e-06
1.51634e-06
2.32823e-06
2.29378e-06
2.41972e-06
1.20986e-06
3.0703e-06
1.16109e-06
1.98232e-06
2.23288e-06
2.26131e-06
2.26925e-06
2.06582e-06
2.47056e-06
1.9274e-06
2.03233e-06
1.95894e-06
2.49491e-06
2.49768e-06
2.36625e-06
2.52669e-06
2.43331e-06
1.43133e-06
2.69007e-06
2.41818e-06
2.51703e-06
1.13829e-06
3.66313e-06
1.05918e-06
1.9645e-06
2.24602e-06
2.24322e-06
2.53014e-06
1.89577e-06
2.66004e-06
1.87034e-06
1.95218e-06
1.8887e-06
2.30708e-06
2.5195e-06
2.10394e-06
2.41567e-06
2.74803e-06
1.32076e-06
2.71984e-06
2.50613e-06
2.25641e-06
1.03007e-06
3.1119e-06
9.42558e-07
1.82075e-06
2.23205e-06
2.14225e-06
2.68825e-06
1.87506e-06
2.63541e-06
1.90051e-06
1.88224e-06
1.80515e-06
2.02423e-06
2.35494e-06
1.76981e-06
2.13497e-06
2.62716e-06
1.19022e-06
2.28743e-06
2.22213e-06
1.99966e-06
9.11054e-07
2.00668e-06
8.2265e-07
1.60619e-06
2.12318e-06
1.97484e-06
2.56128e-06
1.90313e-06
2.27299e-06
1.82639e-06
1.79679e-06
1.68855e-06
1.69826e-06
2.06499e-06
1.61219e-06
1.89559e-06
2.17468e-06
1.05516e-06
1.89913e-06
1.97519e-06
1.81346e-06
7.94732e-07
1.30625e-06
7.14751e-07
1.39726e-06
1.95617e-06
1.82247e-06
2.16366e-06
1.80573e-06
1.88818e-06
1.66789e-06
1.67567e-06
1.5429e-06
1.60892e-06
1.8512e-06
1.60808e-06
1.73915e-06
1.82876e-06
9.326e-07
1.65756e-06
1.79944e-06
1.69799e-06
6.93999e-07
1.05537e-06
6.43419e-07
1.23191e-06
1.80194e-06
1.7461e-06
1.80978e-06
1.61013e-06
1.63483e-06
1.45536e-06
1.52908e-06
1.41771e-06
1.6168e-06
1.70377e-06
1.86731e-06
1.61424e-06
1.61055e-06
8.32149e-07
1.52458e-06
1.68584e-06
1.58695e-06
6.18512e-07
1.01152e-06
5.24933e-07
1.06794e-06
1.73426e-06
1.72914e-06
1.59261e-06
1.41569e-06
1.47891e-06
1.44948e-06
1.40103e-06
1.29697e-06
1.99307e-06
1.58754e-06
2.32705e-06
1.5077e-06
1.49813e-06
7.77986e-07
1.41522e-06
1.56893e-06
1.47969e-06
5.05276e-07
9.73498e-07
4.84948e-07
9.63173e-07
1.71268e-06
1.66538e-06
1.45721e-06
1.45525e-06
1.37136e-06
1.39197e-06
1.27749e-06
1.19575e-06
2.41478e-06
1.47947e-06
2.51451e-06
1.39468e-06
1.39122e-06
7.43023e-07
1.33319e-06
1.45768e-06
1.3813e-06
4.80724e-07
9.34811e-07
4.69749e-07
9.96246e-07
1.63482e-06
1.51352e-06
1.33417e-06
1.3574e-06
1.27269e-06
1.23436e-06
1.17677e-06
1.13139e-06
2.48369e-06
1.37106e-06
2.34066e-06
1.2901e-06
1.30707e-06
7.25274e-07
1.27628e-06
1.35828e-06
1.27434e-06
5.90566e-07
9.10119e-07
2.72083e-06
1.68855e-06
1.47731e-06
1.36096e-06
1.23484e-06
1.21618e-06
1.19686e-06
1.16423e-06
1.1218e-06
1.13338e-06
2.18101e-06
1.27016e-06
1.72596e-06
1.21992e-06
1.30611e-06
8.47108e-07
1.34741e-06
1.25203e-06
1.20836e-06
3.86623e-06
9.16749e-07
7.93061e-06
3.6135e-06
1.32378e-06
1.29757e-06
1.16401e-06
1.15805e-06
1.1969e-06
1.15285e-06
1.1398e-06
1.27306e-06
1.59634e-06
1.20687e-06
1.39649e-06
1.18632e-06
1.37891e-06
1.31639e-06
1.47506e-06
1.19316e-06
1.18495e-06
8.9749e-06
9.47683e-07
1.07241e-05
4.87778e-06
1.30998e-06
1.27701e-06
1.19379e-06
1.1658e-06
1.18151e-06
1.21678e-06
1.30333e-06
1.6425e-06
1.36968e-06
1.19674e-06
1.29418e-06
1.2297e-06
1.50137e-06
2.22195e-06
1.54731e-06
1.19844e-06
1.28999e-06
1.126e-05
1.04282e-06
1.17637e-05
5.17709e-06
1.32514e-06
1.73136e-06
1.23056e-06
1.24654e-06
1.37988e-06
1.45739e-06
1.71575e-06
2.288e-06
1.32682e-06
1.25513e-06
1.42863e-06
1.36793e-06
1.45727e-06
3.56082e-06
1.40282e-06
1.323e-06
1.56625e-06
1.14652e-05
1.17111e-06
6.26954e-06
2.49444e-06
1.79353e-06
2.11241e-06
1.41376e-06
1.46094e-06
1.6074e-06
1.5399e-06
2.37638e-06
2.48778e-06
1.4462e-06
1.41902e-06
1.61637e-06
1.61046e-06
1.56491e-06
4.17502e-06
1.80057e-06
1.65082e-06
2.12245e-06
5.26637e-06
1.51267e-06
4.92821e-06
3.64853e-06
2.31667e-06
3.21315e-06
1.69722e-06
1.89977e-06
2.10097e-06
2.5446e-06
3.28868e-06
6.87537e-06
1.69373e-06
1.71296e-06
2.08311e-06
2.07483e-06
1.73544e-06
5.4368e-06
2.00257e-06
2.28817e-06
3.34957e-06
4.86916e-06
1.98128e-06
3.80193e-06
3.34048e-06
3.50152e-06
5.0561e-06
2.2819e-06
2.60717e-06
2.70424e-06
2.61641e-06
6.96173e-06
4.66357e-06
2.2358e-06
2.23181e-06
2.72792e-06
2.79712e-06
2.24098e-06
5.10423e-06
2.77494e-06
3.60604e-06
5.08363e-06
3.64212e-06
2.71439e-06
3.38844e-06
5.43492e-06
5.36767e-06
8.00667e-06
2.93604e-06
2.47169e-06
3.66506e-06
3.79143e-06
4.22487e-06
7.50114e-06
2.94677e-06
2.99967e-06
3.68749e-06
3.66663e-06
2.86895e-06
4.23282e-06
3.62985e-06
5.521e-06
7.65082e-06
3.31339e-06
3.64932e-06
3.76777e-06
7.2945e-06
8.73486e-06
1.15876e-05
3.93665e-06
4.38614e-06
5.02942e-06
4.5555e-06
9.42404e-06
1.19488e-05
3.96363e-06
3.98162e-06
4.99022e-06
4.88463e-06
3.97361e-06
6.29815e-06
5.07235e-06
8.20508e-06
1.15901e-05
3.98725e-06
4.78843e-06
4.77135e-06
1.19029e-05
1.25542e-05
1.70174e-05
5.45787e-06
4.78921e-06
6.78002e-06
7.388e-06
1.18276e-05
1.97326e-05
5.37793e-06
5.2495e-06
6.65835e-06
6.78938e-06
5.48201e-06
8.34921e-06
6.73661e-06
1.24358e-05
1.70163e-05
5.25677e-06
6.84768e-06
6.53878e-06
1.71901e-05
1.78856e-05
2.29574e-05
7.13011e-06
7.67097e-06
8.64457e-06
8.47835e-06
2.13787e-05
2.2029e-05
7.10245e-06
7.16078e-06
8.69656e-06
8.77064e-06
7.19242e-06
8.42416e-06
8.32406e-06
1.80961e-05
2.30043e-05
7.02938e-06
8.37566e-06
8.12418e-06
2.1734e-05
2.43284e-05
2.87563e-05
9.37286e-06
9.02123e-06
1.07467e-05
1.06442e-05
2.23523e-05
2.97909e-05
9.40329e-06
9.44227e-06
1.05563e-05
1.07427e-05
8.93935e-06
1.05908e-05
1.11003e-05
2.41262e-05
2.96479e-05
8.46887e-06
1.10151e-05
1.09901e-05
2.9219e-05
2.99636e-05
3.70661e-05
1.13554e-05
1.15937e-05
1.44257e-05
1.4593e-05
3.156e-05
3.73369e-05
1.11966e-05
1.14034e-05
1.44538e-05
1.41968e-05
1.16164e-05
1.42872e-05
1.40356e-05
3.09458e-05
3.65848e-05
1.18703e-05
1.40798e-05
1.40143e-05
3.82986e-05
3.87847e-05
4.51897e-05
1.51388e-05
1.50624e-05
1.70355e-05
1.71029e-05
3.90832e-05
4.40776e-05
1.52523e-05
1.50451e-05
1.69031e-05
1.72254e-05
1.51883e-05
1.71887e-05
1.87054e-05
3.81104e-05
4.52943e-05
1.4885e-05
1.7483e-05
1.83627e-05
4.58071e-05
4.62379e-05
5.0459e-05
1.82984e-05
1.86305e-05
2.15291e-05
2.04481e-05
4.46447e-05
5.02591e-05
1.81435e-05
1.84008e-05
2.14582e-05
2.11157e-05
1.92607e-05
2.04177e-05
1.89907e-05
4.68781e-05
4.90103e-05
1.93148e-05
2.05941e-05
1.89232e-05
4.80082e-05
5.20032e-05
5.64e-05
2.17761e-05
2.1006e-05
2.45822e-05
2.56588e-05
5.21528e-05
5.75055e-05
2.17388e-05
2.08398e-05
2.46026e-05
2.44994e-05
2.0312e-05
2.55967e-05
2.59512e-05
4.95972e-05
5.63954e-05
2.00052e-05
2.50759e-05
2.52081e-05
5.74381e-05
5.74385e-05
6.37458e-05
2.62398e-05
2.7779e-05
2.98981e-05
3.04782e-05
5.9056e-05
6.45106e-05
2.62308e-05
2.7105e-05
2.98994e-05
3.29756e-05
2.6765e-05
3.03237e-05
3.03696e-05
5.90652e-05
6.69919e-05
2.56776e-05
3.25128e-05
3.10935e-05
6.59585e-05
6.52869e-05
6.89574e-05
3.10977e-05
3.03463e-05
3.60793e-05
3.50947e-05
6.55249e-05
6.66576e-05
3.09412e-05
3.37196e-05
3.55319e-05
3.30386e-05
3.24035e-05
3.5283e-05
3.66186e-05
6.74802e-05
6.76066e-05
3.35441e-05
3.48517e-05
3.68177e-05
6.95486e-05
6.99461e-05
7.22439e-05
3.70026e-05
3.52816e-05
3.78523e-05
3.75788e-05
6.67355e-05
7.31442e-05
3.67832e-05
3.38627e-05
3.85326e-05
4.00561e-05
3.73978e-05
3.65992e-05
3.709e-05
6.81689e-05
7.24096e-05
3.69463e-05
3.83551e-05
3.52424e-05
6.86121e-05
7.33096e-05
7.99916e-05
3.93091e-05
4.14431e-05
4.72784e-05
5.05428e-05
7.66265e-05
8.34134e-05
3.9904e-05
4.14678e-05
4.65899e-05
4.42385e-05
3.63658e-05
5.03599e-05
4.50674e-05
7.37675e-05
7.78311e-05
3.4178e-05
4.45668e-05
5.08029e-05
8.0463e-05
8.11552e-05
8.26459e-05
4.96473e-05
5.16221e-05
5.32322e-05
5.31918e-05
8.32455e-05
8.20611e-05
4.88701e-05
4.59923e-05
5.28717e-05
5.3816e-05
4.93785e-05
5.39466e-05
5.54177e-05
7.92687e-05
8.43909e-05
5.58659e-05
5.47449e-05
5.99999e-05
8.54813e-05
8.28077e-05
8.45955e-05
5.29779e-05
5.2984e-05
5.30971e-05
5.42328e-05
8.29637e-05
8.48648e-05
5.27461e-05
5.55415e-05
5.36974e-05
5.67802e-05
5.57501e-05
5.35074e-05
5.71689e-05
8.51702e-05
8.57525e-05
5.95835e-05
5.65496e-05
5.73108e-05
8.56593e-05
8.63681e-05
9.24774e-05
5.6109e-05
5.69491e-05
6.55085e-05
5.97362e-05
8.53068e-05
8.60655e-05
5.6083e-05
5.69553e-05
6.50507e-05
6.10495e-05
5.79712e-05
5.84575e-05
6.36108e-05
8.60506e-05
8.9848e-05
5.60203e-05
6.03498e-05
5.81488e-05
9.07892e-05
9.32346e-05
9.38547e-05
6.77549e-05
5.98365e-05
6.98151e-05
6.90539e-05
8.73368e-05
9.78754e-05
6.74351e-05
6.40342e-05
7.01544e-05
7.22314e-05
6.57519e-05
7.00382e-05
6.94892e-05
9.16112e-05
9.64887e-05
6.44091e-05
7.27457e-05
7.51639e-05
9.62563e-05
9.40699e-05
9.9105e-05
6.9035e-05
7.37302e-05
7.39895e-05
8.27877e-05
9.99154e-05
0.000102985
6.94363e-05
7.35076e-05
7.38918e-05
7.4189e-05
7.05751e-05
8.28797e-05
7.64225e-05
9.70686e-05
9.77299e-05
7.64095e-05
7.43063e-05
7.85373e-05
9.96554e-05
0.00010095
0.000104263
7.76707e-05
8.39526e-05
8.50904e-05
8.56058e-05
0.000103132
0.000103181
7.75266e-05
7.5529e-05
8.49433e-05
8.12388e-05
7.82775e-05
8.48878e-05
8.24433e-05
9.8209e-05
0.000102859
7.93642e-05
8.12694e-05
8.18139e-05
0.000102517
0.000104486
0.000104331
8.63723e-05
8.51645e-05
8.57717e-05
8.50368e-05
0.000103452
0.000104714
8.62985e-05
8.29009e-05
8.58096e-05
8.93389e-05
8.31754e-05
8.45803e-05
8.65567e-05
0.000103989
0.000107123
8.24382e-05
8.89257e-05
8.62921e-05
0.000105435
0.000104745
0.000111402
8.50844e-05
8.67367e-05
9.334e-05
9.1573e-05
0.000105631
0.000109775
8.50787e-05
9.07478e-05
9.34022e-05
9.22277e-05
8.79531e-05
9.16895e-05
9.31452e-05
0.000107716
0.000109459
8.77965e-05
9.23157e-05
9.33219e-05
0.000110475
0.000112805
0.000114965
9.66831e-05
9.38323e-05
0.000101734
0.000100874
0.000110786
0.000114516
9.6715e-05
9.34018e-05
0.000101907
0.000100196
9.57154e-05
0.000100947
0.000100086
0.000110345
0.00011452
9.56581e-05
0.00010027
9.9654e-05
0.000114393
0.000115038
0.0001163
0.000101411
0.000101529
0.000103338
0.000102884
0.00011487
0.000116671
0.000101603
0.000102293
0.000103171
0.000102925
0.000100846
0.0001028
0.00010432
0.00011515
0.000115707
0.000100698
0.000102698
0.000104401
0.000116992
0.000117322
0.000121346
0.000104906
0.000104806
0.000109592
0.000111335
0.000117962
0.000122268
0.000104738
0.00010306
0.000109057
0.000109589
0.000105374
0.000111206
0.000109549
0.000116133
0.000122231
0.000105075
0.000109799
0.000109293
0.000121216
0.000122147
0.000125465
0.000111689
0.000113104
0.00011653
0.000113673
0.000122642
0.000122127
0.000111042
0.000112425
0.000117217
0.000118164
0.000112106
0.000113687
0.000116081
0.000123545
0.000126202
0.000111691
0.000118089
0.000116056
0.00012525
0.000125755
0.000126704
0.000116512
0.000112945
0.000117784
0.000120028
0.000122324
0.000130171
0.000117912
0.000119227
0.000117797
0.000118535
0.000116324
0.000119805
0.00011855
0.000126431
0.000126606
0.000116609
0.000118089
0.000118982
0.000127209
0.000127615
0.000133253
0.000120028
0.000123404
0.000127167
0.000128383
0.000131827
0.000133805
0.000119229
0.00011801
0.000126486
0.000125699
0.000120205
0.000128511
0.000126265
0.000126832
0.000132937
0.000120216
0.000125948
0.000125392
0.000132634
0.000133799
0.000134009
0.000128675
0.000128723
0.000129188
0.00012825
0.00013357
0.000132471
0.00012806
0.00012829
0.000128913
0.000130258
0.000127674
0.000128691
0.000129767
0.000134069
0.000135178
0.000126968
0.000130087
0.000129884
0.000134649
0.000133955
0.000138115
0.000128549
0.000127469
0.00013277
0.000131516
0.00013269
0.000137732
0.000129285
0.000130742
0.000133677
0.000133072
0.000130123
0.00013157
0.0001323
0.000135206
0.00013752
0.000130543
0.000133081
0.000132876
0.000137236
0.000139362
0.000142038
0.000135353
0.00013496
0.000140792
0.000141802
0.000139424
0.000143163
0.00013566
0.00013395
0.000139368
0.000138326
0.000133942
0.000141156
0.000139869
0.000138105
0.000141218
0.000134116
0.000138061
0.000139138
0.000142084
0.000142173
0.000142714
0.000141397
0.000142872
0.000140681
0.000143349
0.000143414
0.000143641
0.00013963
0.000140101
0.000141428
0.000143817
0.000141049
0.000142513
0.000142177
0.00014212
0.00014446
0.000140439
0.000144177
0.000142823
0.000143751
0.000143399
0.00014784
0.000141741
0.000142864
0.000147665
0.000146389
0.000143638
0.000147197
0.000143058
0.000143881
0.000147423
0.000143953
0.000142877
0.000146406
0.000146578
0.00014452
0.000145239
0.000143639
0.000143769
0.00014581
0.000146602
0.000148231
0.000149181
0.000148662
0.000148098
0.000149991
0.000149944
0.000148068
0.000149219
0.000148074
0.000146274
0.000150386
0.000153103
0.000147683
0.000150277
0.000150705
0.000146318
0.000151762
0.000146614
0.000152719
0.000150963
0.000150112
0.00014971
0.00015316
0.0001511
0.000150641
0.000155585
0.000155555
0.000149349
0.000153403
0.0001518
0.000154447
0.000155585
0.000155432
0.000151958
0.00015513
0.000156174
0.000152167
0.000152363
0.000152711
0.000155733
0.000156586
0.000153395
0.000153525
0.000154593
0.000156573
0.000157289
0.000158255
0.000159419
0.000154262
0.000155593
0.000156104
0.000155077
0.000157788
0.000156474
0.000157154
0.000159765
0.000157104
0.000152132
0.000153871
0.000157092
0.000156405
0.000156408
0.000153461
0.000155083
0.000158532
0.000159038
0.000159348
0.000162958
0.000161316
0.000155496
0.000156666
0.000158991
0.000158273
0.000163064
0.000163628
0.000157234
0.000160575
0.000162669
0.000154827
0.000159099
0.000156759
0.000163412
0.000163081
0.000158936
0.000159026
0.00015991
0.000164285
0.000162782
0.000165752
0.000165376
0.00015754
0.000159992
0.000164205
0.000165002
0.000166079
0.000166825
0.000164558
0.000165751
0.000167853
0.000159622
0.000160506
0.00016491
0.000167297
0.000167733
0.000161175
0.000159959
0.000162909
0.000165974
0.000166105
0.000169319
0.000170328
0.000160235
0.00016386
0.000166357
0.0001666
0.00016902
0.000168414
0.00016794
0.000170207
0.000168406
0.000160373
0.000162191
0.00016774
0.000168007
0.000168273
0.000162209
0.000163736
0.000166245
0.000170949
0.000171942
0.000174743
0.000175186
0.000164649
0.0001665
0.000170554
0.000170208
0.00017466
0.00017467
0.000169972
0.000175096
0.000173637
0.000163219
0.000166349
0.000169865
0.000174553
0.000173607
0.00016532
0.000166374
0.000166506
0.000175279
0.00017558
0.000175076
0.000175392
0.000166542
0.000166419
0.000175474
0.000175548
0.000175606
0.000175677
0.000173824
0.000175394
0.000175468
0.00016651
0.000166425
0.000173797
0.00017549
0.000175428
0.000167073
0.00016689
0.00017084
0.00017597
0.000175303
0.000180506
0.000178435
0.000166432
0.000168874
0.000175784
0.000175591
0.00017982
0.000179777
0.000176966
0.000178373
0.00018122
0.000166604
0.0001709
0.00017695
0.000180201
0.000181407
0.000171626
0.00017127
0.000171773
0.000181675
0.000179112
0.00018282
0.000182405
0.000169147
0.000172203
0.000181334
0.000181318
0.000183404
0.000184196
0.000182105
0.000182893
0.000182859
0.000171503
0.000172592
0.000182296
0.000184141
0.000183088
0.000171343
0.000171629
0.000174412
0.000182571
0.000184654
0.000185692
0.000189353
0.000173439
0.000178152
0.000183699
0.000184574
0.000185416
0.00018488
0.000182604
0.000189209
0.000185059
0.000172575
0.00017327
0.000182941
0.000184712
0.000184542
0.000173781
0.000175108
0.000176984
0.000187297
0.000190083
0.000190152
0.000189284
0.000178275
0.000175228
0.000186452
0.000185455
0.000189461
0.000188509
0.000186585
0.000189157
0.000189957
0.000173601
0.000176424
0.000185799
0.00018853
0.000189196
0.000177009
0.000177059
0.000177677
0.000190627
0.000188958
0.000191188
0.000187322
0.00017485
0.00017443
0.000190097
0.000189831
0.000191738
0.000193605
0.000190633
0.000187158
0.000192105
0.00017701
0.000179838
0.000190224
0.000193797
0.000193129
0.000178881
0.000177729
0.000179783
0.000191028
0.000187881
0.00019314
0.000193807
0.000175177
0.00018083
0.000192158
0.000194251
0.000193917
0.000194873
0.000192511
0.000194009
0.000193322
0.00017998
0.000180049
0.000193706
0.000194917
0.000194187
0.000179387
0.000180463
0.000183275
0.000194881
0.000195551
0.000198818
0.000199687
0.000181424
0.000184034
0.000194909
0.000194804
0.000197818
0.000194393
0.000193655
0.000199579
0.000196925
0.000179919
0.000179648
0.000194152
0.000194314
0.000195779
0.000181802
0.000183322
0.000183163
0.000199381
0.0002005
0.000199963
0.000201479
0.000184288
0.000185119
0.000198536
0.000194228
0.00019933
0.000199883
0.000198454
0.000201636
0.000201384
0.00017969
0.00018444
0.000197355
0.00019985
0.000200942
0.000185009
0.000182939
0.000184432
0.000199913
0.000201637
0.00020054
0.000200992
0.00018497
0.000184167
0.000199248
0.000201692
0.000201254
0.000204276
0.000201758
0.00020119
0.000202177
0.000185349
0.000187835
0.000201527
0.000204449
0.000202538
0.000185233
0.000184755
0.000187044
0.000201043
0.000200853
0.000203582
0.00019924
0.000183999
0.000182475
0.000202062
0.00020457
0.00020445
0.000203603
0.000202113
0.000199241
0.000201737
0.00018748
0.000185049
0.000202775
0.000203476
0.000202879
0.000184856
0.000187734
0.000191074
0.000205312
0.000201371
0.000208628
0.000209633
0.000183714
0.000192706
0.000205696
0.000203083
0.000208146
0.000206091
0.000201269
0.000209666
0.000207741
0.000184371
0.000188712
0.00020273
0.000204899
0.000206008
0.000189438
0.000191206
0.00018696
0.00020947
0.000210973
0.000207387
0.000209207
0.000193331
0.000188337
0.00020888
0.000208138
0.000207045
0.000211543
0.000209176
0.00021001
0.000211862
0.000189744
0.000193167
0.000208228
0.000212151
0.000211459
0.000191972
0.000186339
0.000185817
0.000206321
0.000206981
0.000203547
0.000202203
0.000187057
0.000183126
0.00020623
0.000211028
0.00020382
0.0002076
0.000210594
0.000202811
0.000207815
0.000192109
0.000187165
0.000211877
0.000208309
0.000208842
0.000187738
0.000187507
0.000198239
0.000205169
0.000203269
0.000217713
0.000217545
0.000184996
0.000198789
0.000205367
0.000206525
0.000217524
0.00021124
0.000207007
0.000216599
0.000211062
0.000185932
0.000192323
0.000208479
0.000208538
0.000208607
0.00019189
0.000198655
0.000199111
0.00021909
0.000219116
0.000223287
0.000222345
0.000199463
0.000196983
0.000219017
0.000215343
0.000223087
0.000220884
0.000213933
0.000221614
0.000217515
0.000194168
0.000201174
0.00021208
0.000219509
0.000217257
0.000197467
0.000196876
0.000187586
0.000220326
0.000217059
0.000209588
0.000208499
0.000194166
0.000185481
0.000220943
0.000222949
0.000210267
0.000214032
0.000219273
0.000209582
0.00021531
0.000200286
0.000191199
0.000218787
0.000215573
0.000216829
0.000192978
0.000186584
0.000188896
0.00020859
0.000207183
0.000205548
0.000211655
0.000183782
0.000195271
0.00020914
0.000211964
0.000205441
0.000207921
0.000213683
0.00021216
0.000210165
0.000190202
0.000188279
0.000214806
0.000209741
0.000211614
0.000189488
0.000191401
0.000203813
0.00021208
0.000219081
0.000226065
0.000229055
0.000198275
0.000209202
0.000210348
0.000208493
0.000225073
0.000222221
0.000210733
0.000228465
0.000222615
0.000189383
0.000200374
0.000210644
0.000221183
0.000220974
0.000200129
0.000204228
0.000202795
0.000227543
0.000232098
0.000230216
0.000223189
0.000208633
0.000195321
0.000226637
0.000224468
0.000230673
0.000228244
0.000224048
0.000222937
0.000227858
0.000201053
0.000203489
0.0002229
0.000227127
0.000226511
0.000201866
0.000200701
0.000193368
0.00022572
0.000218597
0.000216892
0.000213497
0.000193364
0.000189824
0.000227596
0.000229304
0.000218246
0.000221804
0.000225779
0.000213806
0.000218548
0.000202941
0.000197027
0.000226861
0.000222491
0.000220521
0.000195175
0.000192724
0.000193566
0.000216067
0.00021261
0.000215109
0.000219853
0.000190531
0.000198505
0.000216872
0.000218803
0.00021483
0.000214966
0.000217597
0.000219926
0.000216149
0.000195457
0.000190938
0.000218881
0.000215251
0.000217059
0.000193793
0.000194608
0.000200022
0.000217902
0.000222122
0.000223801
0.000225212
0.000199195
0.000200607
0.00021509
0.000213536
0.000222972
0.000219466
0.000217369
0.000224827
0.000222878
0.000189649
0.000198068
0.000216276
0.00021891
0.000221469
0.000199237
0.000200401
0.000201555
0.000224806
0.000225726
0.000226627
0.000226535
0.000200434
0.000201399
0.000224927
0.000224413
0.000227599
0.000230881
0.000224104
0.000226759
0.000226849
0.000200135
0.000207278
0.000223818
0.000230885
0.000227579
0.000201791
0.000201499
0.000203197
0.000226859
0.000226649
0.000227895
0.000228362
0.000201416
0.000202842
0.000227859
0.000232734
0.000229448
0.000229787
0.000227239
0.000228948
0.000228595
0.000207509
0.000201917
0.000227961
0.000230314
0.000229987
0.000203881
0.000202727
0.000197798
0.000228976
0.000228177
0.000224506
0.000223135
0.000201969
0.000196902
0.000229022
0.000226363
0.000223139
0.000219643
0.000229844
0.000222906
0.000224602
0.000199992
0.000194257
0.00023035
0.000219665
0.000223548
0.000197888
0.000196924
0.000194486
0.00022257
0.000221925
0.000220283
0.000220535
0.000196369
0.00019543
0.000221545
0.000218982
0.0002196
0.000217584
0.000222246
0.0002201
0.000219469
0.000193709
0.000194962
0.000221522
0.000217323
0.000219142
0.000193801
0.000194435
0.000202288
0.000219213
0.000219826
0.000226555
0.000227489
0.000195502
0.00020281
0.00021869
0.000219954
0.000227082
0.00022961
0.000218272
0.000227446
0.000225462
0.000196217
0.000204526
0.000218008
0.00022965
0.000226052
0.000201632
0.000203018
0.00020636
0.000228744
0.00022926
0.000232594
0.000233031
0.000203433
0.000206377
0.000229176
0.000230969
0.000232866
0.000234542
0.000228296
0.000233245
0.000232132
0.000204976
0.000206882
0.000228711
0.000234762
0.000232234
0.000205993
0.000205411
0.000197929
0.000233506
0.000233401
0.000225459
0.00022494
0.00020519
0.000197507
0.000233814
0.000234647
0.000225746
0.000225141
0.000233263
0.000225413
0.000228066
0.000205655
0.000197556
0.000233328
0.000225589
0.00022853
0.000200396
0.000197191
0.000197048
0.000223699
0.000223254
0.000222396
0.000221838
0.000196854
0.000196513
0.000223841
0.000222941
0.000222176
0.000220568
0.000226051
0.000221936
0.00022241
0.000196597
0.000194623
0.000226288
0.000220626
0.000221977
0.000196542
0.000197447
0.00020105
0.000222756
0.000221877
0.000227613
0.000226652
0.00019661
0.000199885
0.000222446
0.000219933
0.000227829
0.000228289
0.000222087
0.000226051
0.000224676
0.00019457
0.000201947
0.000221605
0.000227598
0.000224428
0.000199023
0.000203559
0.00022702
0.000226813
0.000202812
0.000227288
0.000228489
0.000247517
0.000248759
0.000246051
0.000225205
0.000204753
0.000225502
1.31057e-05
2.09208e-06
7.0739e-06
6.66771e-06
5.57163e-07
2.06514e-06
9.17303e-07
2.92462e-06
5.93919e-07
2.71639e-06
2.43795e-06
5.37598e-06
2.29184e-06
2.00402e-06
1.45136e-06
1.12648e-06
1.38427e-05
1.0495e-06
1.56396e-05
1.08235e-05
1.31169e-05
1.34011e-06
1.39823e-05
1.25622e-06
1.57963e-05
3.08904e-06
3.15976e-06
2.84575e-06
3.18937e-06
3.07046e-06
3.1451e-06
2.81886e-06
5.70166e-07
4.40496e-07
1.53799e-06
1.79764e-06
5.78971e-07
5.57699e-07
1.52572e-06
1.09048e-05
1.31331e-05
6.05283e-07
1.33221e-06
7.63766e-07
2.79384e-06
5.93419e-07
1.31935e-06
9.14476e-07
1.52734e-06
1.38903e-06
2.28648e-06
1.73886e-06
1.61293e-06
1.32922e-06
1.89944e-05
1.25489e-06
2.13654e-05
1.70655e-05
1.92553e-05
1.52881e-06
1.91428e-05
1.44972e-06
2.15266e-05
3.07406e-06
3.14751e-06
2.81247e-06
3.21071e-06
3.09e-06
3.16317e-06