/*--------------------------------*- C++ -*----------------------------------*\
| =========                 |                                                 |
| \\      /  F ield         | OpenFOAM: The Open Source CFD Toolbox           |
|  \\    /   O peration     | Version:  v2012                                 |
|   \\  /    A nd           | Website:  www.openfoam.com                      |
|    \\/     M anipulation  |                                                 |
\*---------------------------------------------------------------------------*/
FoamFile
{
    version     2.0;
    format      ascii;
    class       volScalarField;
    location    "0.34";
    object      p;
}
// * * * * * * * * * * * * * * * * * * * * * * * * * * * * * * * * * * * * * //

dimensions      [0 2 -2 0 0 0 0];


internalField   nonuniform List<scalar> 
247104
(
1.85182e-06
1.85173e-06
1.85188e-06
1.85185e-06
1.85175e-06
1.85187e-06
1.85186e-06
1.85166e-06
1.85174e-06
1.85179e-06
1.85185e-06
1.8517e-06
1.8516e-06
1.85172e-06
1.85186e-06
1.85177e-06
1.85188e-06
1.85185e-06
1.85155e-06
1.85118e-06
1.85104e-06
1.85122e-06
1.85159e-06
1.85187e-06
1.85188e-06
1.85185e-06
1.8517e-06
1.85118e-06
1.85069e-06
1.85052e-06
1.85074e-06
1.85125e-06
1.85174e-06
1.85185e-06
1.85182e-06
1.85176e-06
1.8516e-06
1.85104e-06
1.85052e-06
1.85034e-06
1.85057e-06
1.85111e-06
1.85165e-06
1.85174e-06
1.85187e-06
1.85172e-06
1.85122e-06
1.85074e-06
1.85057e-06
1.85079e-06
1.85129e-06
1.85176e-06
1.85187e-06
1.85187e-06
1.85186e-06
1.85159e-06
1.85125e-06
1.85111e-06
1.85129e-06
1.85164e-06
1.85188e-06
1.85186e-06
1.85167e-06
1.85177e-06
1.85187e-06
1.85174e-06
1.85165e-06
1.85176e-06
1.85188e-06
1.85173e-06
1.85188e-06
1.85185e-06
1.85174e-06
1.85187e-06
1.85186e-06
1.81868e-06
1.81668e-06
1.81614e-06
1.81492e-06
1.81494e-06
1.81487e-06
1.81487e-06
1.81618e-06
1.81645e-06
1.81614e-06
1.81408e-06
1.81141e-06
1.81138e-06
1.81138e-06
1.81141e-06
1.81447e-06
1.81471e-06
1.81493e-06
1.81141e-06
1.81135e-06
1.81142e-06
1.81142e-06
1.81135e-06
1.81141e-06
1.81484e-06
1.81608e-06
1.81869e-06
1.81494e-06
1.81138e-06
1.81142e-06
1.81151e-06
1.81151e-06
1.81142e-06
1.81138e-06
1.81482e-06
1.81646e-06
1.81668e-06
1.81487e-06
1.81138e-06
1.81142e-06
1.81151e-06
1.81151e-06
1.81142e-06
1.81138e-06
1.815e-06
1.81503e-06
1.81487e-06
1.81141e-06
1.81135e-06
1.81142e-06
1.81142e-06
1.81135e-06
1.81141e-06
1.81477e-06
1.81597e-06
1.81619e-06
1.81447e-06
1.81141e-06
1.81138e-06
1.81138e-06
1.81141e-06
1.81468e-06
1.81487e-06
1.81632e-06
1.81645e-06
1.81471e-06
1.81484e-06
1.81483e-06
1.815e-06
1.81477e-06
1.81487e-06
1.81654e-06
1.81608e-06
1.81646e-06
1.81503e-06
1.81597e-06
1.81633e-06
1.79856e-06
1.79839e-06
1.79822e-06
1.7961e-06
1.796e-06
1.79597e-06
1.79608e-06
1.79819e-06
1.79844e-06
1.79822e-06
1.79539e-06
1.79244e-06
1.79238e-06
1.79238e-06
1.79245e-06
1.7959e-06
1.79654e-06
1.79611e-06
1.79245e-06
1.79217e-06
1.79221e-06
1.79221e-06
1.79217e-06
1.79245e-06
1.79671e-06
1.79867e-06
1.79858e-06
1.79601e-06
1.79238e-06
1.79221e-06
1.79224e-06
1.79224e-06
1.79221e-06
1.79239e-06
1.79676e-06
1.79842e-06
1.7984e-06
1.79597e-06
1.79239e-06
1.79221e-06
1.79224e-06
1.79224e-06
1.79221e-06
1.79238e-06
1.79671e-06
1.79666e-06
1.79609e-06
1.79246e-06
1.79218e-06
1.79221e-06
1.79221e-06
1.79218e-06
1.79246e-06
1.79676e-06
1.79875e-06
1.79819e-06
1.79591e-06
1.79245e-06
1.79239e-06
1.79238e-06
1.79246e-06
1.79638e-06
1.79666e-06
1.79866e-06
1.79845e-06
1.79654e-06
1.79671e-06
1.79676e-06
1.79671e-06
1.79676e-06
1.79666e-06
1.79856e-06
1.79867e-06
1.79842e-06
1.79667e-06
1.79875e-06
1.79866e-06
1.77956e-06
1.77938e-06
1.77924e-06
1.77707e-06
1.77697e-06
1.77689e-06
1.77707e-06
1.77919e-06
1.77946e-06
1.77925e-06
1.77633e-06
1.77338e-06
1.77334e-06
1.77334e-06
1.77337e-06
1.77682e-06
1.77758e-06
1.77708e-06
1.77338e-06
1.77325e-06
1.77326e-06
1.77326e-06
1.77325e-06
1.77338e-06
1.7777e-06
1.77965e-06
1.77957e-06
1.77698e-06
1.77335e-06
1.77326e-06
1.77327e-06
1.77327e-06
1.77326e-06
1.77334e-06
1.77776e-06
1.77939e-06
1.77939e-06
1.77689e-06
1.77335e-06
1.77326e-06
1.77327e-06
1.77327e-06
1.77326e-06
1.77334e-06
1.77773e-06
1.77769e-06
1.77708e-06
1.77338e-06
1.77325e-06
1.77326e-06
1.77326e-06
1.77325e-06
1.77337e-06
1.77774e-06
1.77972e-06
1.77919e-06
1.77682e-06
1.77338e-06
1.77334e-06
1.77334e-06
1.77337e-06
1.77749e-06
1.7777e-06
1.77967e-06
1.77946e-06
1.77759e-06
1.77771e-06
1.77777e-06
1.77773e-06
1.77775e-06
1.7777e-06
1.77969e-06
1.77966e-06
1.77939e-06
1.77769e-06
1.77972e-06
1.77968e-06
1.76053e-06
1.76036e-06
1.7602e-06
1.75802e-06
1.75791e-06
1.75781e-06
1.75801e-06
1.76015e-06
1.76041e-06
1.7602e-06
1.75728e-06
1.75431e-06
1.75429e-06
1.75429e-06
1.75431e-06
1.75773e-06
1.75855e-06
1.75802e-06
1.75431e-06
1.75427e-06
1.75427e-06
1.75427e-06
1.75427e-06
1.75431e-06
1.75867e-06
1.76063e-06
1.76053e-06
1.75791e-06
1.7543e-06
1.75427e-06
1.75427e-06
1.75427e-06
1.75427e-06
1.75429e-06
1.75876e-06
1.7604e-06
1.76036e-06
1.75781e-06
1.75429e-06
1.75427e-06
1.75427e-06
1.75427e-06
1.75427e-06
1.75429e-06
1.75874e-06
1.7587e-06
1.75801e-06
1.75431e-06
1.75427e-06
1.75427e-06
1.75427e-06
1.75427e-06
1.75431e-06
1.75873e-06
1.76072e-06
1.76015e-06
1.75773e-06
1.75431e-06
1.75429e-06
1.75429e-06
1.7543e-06
1.75851e-06
1.75869e-06
1.76065e-06
1.76041e-06
1.75855e-06
1.75867e-06
1.75876e-06
1.75874e-06
1.75873e-06
1.75869e-06
1.76063e-06
1.76063e-06
1.7604e-06
1.7587e-06
1.76072e-06
1.76065e-06
1.74148e-06
1.74132e-06
1.74114e-06
1.73896e-06
1.73886e-06
1.73876e-06
1.73896e-06
1.7411e-06
1.74136e-06
1.74114e-06
1.73823e-06
1.73525e-06
1.73525e-06
1.73525e-06
1.73525e-06
1.73866e-06
1.73949e-06
1.73896e-06
1.73525e-06
1.73524e-06
1.73524e-06
1.73524e-06
1.73524e-06
1.73525e-06
1.73962e-06
1.74158e-06
1.74149e-06
1.73886e-06
1.73525e-06
1.73524e-06
1.73524e-06
1.73524e-06
1.73524e-06
1.73525e-06
1.73972e-06
1.74137e-06
1.74132e-06
1.73876e-06
1.73525e-06
1.73524e-06
1.73524e-06
1.73524e-06
1.73524e-06
1.73525e-06
1.7397e-06
1.73966e-06
1.73896e-06
1.73525e-06
1.73524e-06
1.73524e-06
1.73524e-06
1.73524e-06
1.73525e-06
1.73969e-06
1.74169e-06
1.7411e-06
1.73866e-06
1.73525e-06
1.73525e-06
1.73525e-06
1.73525e-06
1.73948e-06
1.73965e-06
1.7416e-06
1.74136e-06
1.73949e-06
1.73962e-06
1.73972e-06
1.73971e-06
1.73969e-06
1.73965e-06
1.74159e-06
1.74158e-06
1.74137e-06
1.73966e-06
1.74168e-06
1.7416e-06
1.72244e-06
1.72227e-06
1.72209e-06
1.71992e-06
1.71981e-06
1.71971e-06
1.71991e-06
1.72205e-06
1.72231e-06
1.72209e-06
1.71918e-06
1.7162e-06
1.7162e-06
1.7162e-06
1.7162e-06
1.71961e-06
1.72044e-06
1.71992e-06
1.7162e-06
1.7162e-06
1.7162e-06
1.7162e-06
1.7162e-06
1.7162e-06
1.72057e-06
1.72254e-06
1.72244e-06
1.71981e-06
1.7162e-06
1.7162e-06
1.7162e-06
1.7162e-06
1.7162e-06
1.7162e-06
1.72068e-06
1.72232e-06
1.72227e-06
1.71971e-06
1.7162e-06
1.7162e-06
1.7162e-06
1.7162e-06
1.7162e-06
1.7162e-06
1.72066e-06
1.72061e-06
1.71991e-06
1.7162e-06
1.7162e-06
1.7162e-06
1.7162e-06
1.7162e-06
1.7162e-06
1.72064e-06
1.72264e-06
1.72205e-06
1.71961e-06
1.7162e-06
1.7162e-06
1.7162e-06
1.7162e-06
1.72043e-06
1.72061e-06
1.72255e-06
1.72231e-06
1.72045e-06
1.72057e-06
1.72068e-06
1.72066e-06
1.72064e-06
1.72061e-06
1.72254e-06
1.72253e-06
1.72232e-06
1.72061e-06
1.72264e-06
1.72255e-06
1.70339e-06
1.70322e-06
1.70305e-06
1.70087e-06
1.70076e-06
1.70067e-06
1.70086e-06
1.70301e-06
1.70326e-06
1.70305e-06
1.70014e-06
1.69715e-06
1.69716e-06
1.69715e-06
1.69715e-06
1.70056e-06
1.7014e-06
1.70087e-06
1.69716e-06
1.69715e-06
1.69715e-06
1.69715e-06
1.69715e-06
1.69716e-06
1.70152e-06
1.70349e-06
1.70339e-06
1.70076e-06
1.69715e-06
1.69715e-06
1.69715e-06
1.69715e-06
1.69715e-06
1.69715e-06
1.70163e-06
1.70328e-06
1.70322e-06
1.70067e-06
1.69715e-06
1.69715e-06
1.69715e-06
1.69715e-06
1.69715e-06
1.69715e-06
1.70161e-06
1.70157e-06
1.70086e-06
1.69715e-06
1.69715e-06
1.69715e-06
1.69715e-06
1.69715e-06
1.69716e-06
1.70159e-06
1.7036e-06
1.703e-06
1.70056e-06
1.69715e-06
1.69715e-06
1.69715e-06
1.69716e-06
1.70139e-06
1.70156e-06
1.7035e-06
1.70326e-06
1.7014e-06
1.70152e-06
1.70163e-06
1.70161e-06
1.70159e-06
1.70156e-06
1.70349e-06
1.70349e-06
1.70328e-06
1.70157e-06
1.7036e-06
1.7035e-06
1.68435e-06
1.68418e-06
1.684e-06
1.68182e-06
1.68171e-06
1.68162e-06
1.68181e-06
1.68396e-06
1.68422e-06
1.684e-06
1.68109e-06
1.67811e-06
1.67811e-06
1.67811e-06
1.67811e-06
1.68151e-06
1.68235e-06
1.68182e-06
1.67811e-06
1.67811e-06
1.67811e-06
1.67811e-06
1.67811e-06
1.67811e-06
1.68248e-06
1.68444e-06
1.68435e-06
1.68171e-06
1.67811e-06
1.67811e-06
1.67811e-06
1.67811e-06
1.67811e-06
1.67811e-06
1.68258e-06
1.68423e-06
1.68418e-06
1.68162e-06
1.67811e-06
1.67811e-06
1.67811e-06
1.67811e-06
1.67811e-06
1.67811e-06
1.68257e-06
1.68252e-06
1.68181e-06
1.67811e-06
1.67811e-06
1.67811e-06
1.67811e-06
1.67811e-06
1.67811e-06
1.68255e-06
1.68455e-06
1.68396e-06
1.68151e-06
1.67811e-06
1.67811e-06
1.67811e-06
1.67811e-06
1.68234e-06
1.68252e-06
1.68446e-06
1.68422e-06
1.68235e-06
1.68248e-06
1.68258e-06
1.68257e-06
1.68254e-06
1.68252e-06
1.68444e-06
1.68444e-06
1.68423e-06
1.68252e-06
1.68455e-06
1.68446e-06
1.6653e-06
1.66513e-06
1.66495e-06
1.66278e-06
1.66267e-06
1.66257e-06
1.66277e-06
1.66491e-06
1.66517e-06
1.66495e-06
1.66204e-06
1.65906e-06
1.65906e-06
1.65906e-06
1.65906e-06
1.66247e-06
1.66331e-06
1.66278e-06
1.65906e-06
1.65906e-06
1.65906e-06
1.65906e-06
1.65906e-06
1.65906e-06
1.66343e-06
1.6654e-06
1.6653e-06
1.66267e-06
1.65906e-06
1.65906e-06
1.65906e-06
1.65906e-06
1.65906e-06
1.65906e-06
1.66354e-06
1.66518e-06
1.66513e-06
1.66257e-06
1.65906e-06
1.65906e-06
1.65906e-06
1.65906e-06
1.65906e-06
1.65906e-06
1.66352e-06
1.66348e-06
1.66277e-06
1.65906e-06
1.65906e-06
1.65906e-06
1.65906e-06
1.65906e-06
1.65906e-06
1.6635e-06
1.6655e-06
1.66491e-06
1.66247e-06
1.65906e-06
1.65906e-06
1.65906e-06
1.65906e-06
1.6633e-06
1.66347e-06
1.66541e-06
1.66517e-06
1.66331e-06
1.66343e-06
1.66354e-06
1.66352e-06
1.6635e-06
1.66347e-06
1.66539e-06
1.6654e-06
1.66518e-06
1.66348e-06
1.6655e-06
1.66541e-06
1.64626e-06
1.64609e-06
1.64591e-06
1.64373e-06
1.64362e-06
1.64353e-06
1.64372e-06
1.64587e-06
1.64612e-06
1.64591e-06
1.643e-06
1.64002e-06
1.64002e-06
1.64002e-06
1.64002e-06
1.64342e-06
1.64426e-06
1.64373e-06
1.64002e-06
1.64002e-06
1.64002e-06
1.64002e-06
1.64002e-06
1.64002e-06
1.64438e-06
1.64635e-06
1.64626e-06
1.64362e-06
1.64002e-06
1.64002e-06
1.64002e-06
1.64002e-06
1.64002e-06
1.64002e-06
1.64449e-06
1.64614e-06
1.64609e-06
1.64353e-06
1.64002e-06
1.64002e-06
1.64002e-06
1.64002e-06
1.64002e-06
1.64002e-06
1.64448e-06
1.64443e-06
1.64372e-06
1.64002e-06
1.64002e-06
1.64002e-06
1.64002e-06
1.64002e-06
1.64002e-06
1.64446e-06
1.64646e-06
1.64587e-06
1.64342e-06
1.64002e-06
1.64002e-06
1.64002e-06
1.64002e-06
1.64425e-06
1.64442e-06
1.64637e-06
1.64612e-06
1.64426e-06
1.64438e-06
1.64449e-06
1.64448e-06
1.64445e-06
1.64442e-06
1.64635e-06
1.64635e-06
1.64614e-06
1.64443e-06
1.64646e-06
1.64637e-06
1.62721e-06
1.62704e-06
1.62686e-06
1.62468e-06
1.62458e-06
1.62448e-06
1.62468e-06
1.62682e-06
1.62708e-06
1.62686e-06
1.62395e-06
1.62097e-06
1.62097e-06
1.62097e-06
1.62097e-06
1.62438e-06
1.62521e-06
1.62468e-06
1.62097e-06
1.62097e-06
1.62097e-06
1.62097e-06
1.62097e-06
1.62097e-06
1.62534e-06
1.6273e-06
1.62721e-06
1.62458e-06
1.62097e-06
1.62097e-06
1.62097e-06
1.62097e-06
1.62097e-06
1.62097e-06
1.62545e-06
1.62709e-06
1.62704e-06
1.62448e-06
1.62097e-06
1.62097e-06
1.62097e-06
1.62097e-06
1.62097e-06
1.62097e-06
1.62543e-06
1.62538e-06
1.62468e-06
1.62097e-06
1.62097e-06
1.62097e-06
1.62097e-06
1.62097e-06
1.62097e-06
1.62541e-06
1.62741e-06
1.62682e-06
1.62438e-06
1.62097e-06
1.62097e-06
1.62097e-06
1.62097e-06
1.6252e-06
1.62538e-06
1.62732e-06
1.62708e-06
1.62521e-06
1.62534e-06
1.62544e-06
1.62543e-06
1.62541e-06
1.62538e-06
1.6273e-06
1.6273e-06
1.62709e-06
1.62538e-06
1.62741e-06
1.62732e-06
1.60816e-06
1.60799e-06
1.60781e-06
1.60564e-06
1.60553e-06
1.60543e-06
1.60563e-06
1.60777e-06
1.60803e-06
1.60781e-06
1.60491e-06
1.60192e-06
1.60192e-06
1.60192e-06
1.60192e-06
1.60533e-06
1.60617e-06
1.60564e-06
1.60192e-06
1.60192e-06
1.60192e-06
1.60192e-06
1.60192e-06
1.60192e-06
1.60629e-06
1.60826e-06
1.60816e-06
1.60553e-06
1.60192e-06
1.60192e-06
1.60192e-06
1.60192e-06
1.60192e-06
1.60192e-06
1.6064e-06
1.60805e-06
1.60799e-06
1.60543e-06
1.60192e-06
1.60192e-06
1.60192e-06
1.60192e-06
1.60192e-06
1.60192e-06
1.60638e-06
1.60634e-06
1.60563e-06
1.60192e-06
1.60192e-06
1.60192e-06
1.60192e-06
1.60192e-06
1.60192e-06
1.60636e-06
1.60836e-06
1.60777e-06
1.60533e-06
1.60192e-06
1.60192e-06
1.60192e-06
1.60192e-06
1.60616e-06
1.60633e-06
1.60827e-06
1.60803e-06
1.60617e-06
1.60629e-06
1.6064e-06
1.60638e-06
1.60636e-06
1.60633e-06
1.60826e-06
1.60826e-06
1.60805e-06
1.60634e-06
1.60836e-06
1.60827e-06
1.58912e-06
1.58895e-06
1.58877e-06
1.58659e-06
1.58648e-06
1.58639e-06
1.58658e-06
1.58873e-06
1.58898e-06
1.58877e-06
1.58586e-06
1.58288e-06
1.58288e-06
1.58288e-06
1.58288e-06
1.58628e-06
1.58712e-06
1.58659e-06
1.58288e-06
1.58288e-06
1.58288e-06
1.58288e-06
1.58288e-06
1.58288e-06
1.58724e-06
1.58921e-06
1.58912e-06
1.58648e-06
1.58288e-06
1.58288e-06
1.58288e-06
1.58288e-06
1.58288e-06
1.58288e-06
1.58735e-06
1.589e-06
1.58895e-06
1.58639e-06
1.58288e-06
1.58288e-06
1.58288e-06
1.58288e-06
1.58288e-06
1.58288e-06
1.58734e-06
1.58729e-06
1.58658e-06
1.58288e-06
1.58288e-06
1.58288e-06
1.58288e-06
1.58288e-06
1.58288e-06
1.58732e-06
1.58932e-06
1.58873e-06
1.58628e-06
1.58288e-06
1.58288e-06
1.58288e-06
1.58288e-06
1.58711e-06
1.58728e-06
1.58922e-06
1.58898e-06
1.58712e-06
1.58724e-06
1.58735e-06
1.58734e-06
1.58731e-06
1.58728e-06
1.58921e-06
1.58921e-06
1.589e-06
1.58729e-06
1.58932e-06
1.58923e-06
1.57007e-06
1.5699e-06
1.56972e-06
1.56754e-06
1.56744e-06
1.56734e-06
1.56753e-06
1.56968e-06
1.56994e-06
1.56972e-06
1.56681e-06
1.56383e-06
1.56383e-06
1.56383e-06
1.56383e-06
1.56724e-06
1.56807e-06
1.56754e-06
1.56383e-06
1.56383e-06
1.56383e-06
1.56383e-06
1.56383e-06
1.56383e-06
1.5682e-06
1.57016e-06
1.57007e-06
1.56744e-06
1.56383e-06
1.56383e-06
1.56383e-06
1.56383e-06
1.56383e-06
1.56383e-06
1.5683e-06
1.56995e-06
1.5699e-06
1.56734e-06
1.56383e-06
1.56383e-06
1.56383e-06
1.56383e-06
1.56383e-06
1.56383e-06
1.56829e-06
1.56824e-06
1.56753e-06
1.56383e-06
1.56383e-06
1.56383e-06
1.56383e-06
1.56383e-06
1.56383e-06
1.56827e-06
1.57027e-06
1.56968e-06
1.56724e-06
1.56383e-06
1.56383e-06
1.56383e-06
1.56383e-06
1.56806e-06
1.56824e-06
1.57018e-06
1.56994e-06
1.56807e-06
1.5682e-06
1.5683e-06
1.56829e-06
1.56827e-06
1.56824e-06
1.57016e-06
1.57016e-06
1.56995e-06
1.56824e-06
1.57027e-06
1.57018e-06
1.55102e-06
1.55085e-06
1.55067e-06
1.5485e-06
1.54839e-06
1.54829e-06
1.54849e-06
1.55063e-06
1.55089e-06
1.55067e-06
1.54776e-06
1.54478e-06
1.54478e-06
1.54478e-06
1.54478e-06
1.54819e-06
1.54903e-06
1.5485e-06
1.54478e-06
1.54478e-06
1.54478e-06
1.54478e-06
1.54478e-06
1.54478e-06
1.54915e-06
1.55112e-06
1.55102e-06
1.54839e-06
1.54478e-06
1.54478e-06
1.54478e-06
1.54478e-06
1.54478e-06
1.54478e-06
1.54926e-06
1.5509e-06
1.55085e-06
1.54829e-06
1.54478e-06
1.54478e-06
1.54478e-06
1.54478e-06
1.54478e-06
1.54478e-06
1.54924e-06
1.5492e-06
1.54849e-06
1.54478e-06
1.54478e-06
1.54478e-06
1.54478e-06
1.54478e-06
1.54478e-06
1.54922e-06
1.55122e-06
1.55063e-06
1.54819e-06
1.54478e-06
1.54478e-06
1.54478e-06
1.54478e-06
1.54902e-06
1.54919e-06
1.55113e-06
1.55089e-06
1.54903e-06
1.54915e-06
1.54926e-06
1.54924e-06
1.54922e-06
1.54919e-06
1.55112e-06
1.55112e-06
1.5509e-06
1.5492e-06
1.55122e-06
1.55113e-06
1.53198e-06
1.5318e-06
1.53162e-06
1.52945e-06
1.52934e-06
1.52925e-06
1.52944e-06
1.53158e-06
1.53184e-06
1.53162e-06
1.52872e-06
1.52573e-06
1.52573e-06
1.52573e-06
1.52573e-06
1.52914e-06
1.52998e-06
1.52945e-06
1.52573e-06
1.52573e-06
1.52573e-06
1.52573e-06
1.52573e-06
1.52573e-06
1.5301e-06
1.53207e-06
1.53197e-06
1.52934e-06
1.52573e-06
1.52573e-06
1.52573e-06
1.52573e-06
1.52573e-06
1.52573e-06
1.53021e-06
1.53186e-06
1.5318e-06
1.52925e-06
1.52573e-06
1.52573e-06
1.52573e-06
1.52573e-06
1.52573e-06
1.52573e-06
1.5302e-06
1.53015e-06
1.52944e-06
1.52573e-06
1.52573e-06
1.52573e-06
1.52573e-06
1.52573e-06
1.52573e-06
1.53018e-06
1.53218e-06
1.53159e-06
1.52914e-06
1.52573e-06
1.52573e-06
1.52573e-06
1.52573e-06
1.52997e-06
1.53014e-06
1.53208e-06
1.53184e-06
1.52998e-06
1.5301e-06
1.53021e-06
1.5302e-06
1.53017e-06
1.53014e-06
1.53207e-06
1.53207e-06
1.53186e-06
1.53015e-06
1.53218e-06
1.53208e-06
1.51293e-06
1.51276e-06
1.51258e-06
1.5104e-06
1.51029e-06
1.5102e-06
1.51039e-06
1.51254e-06
1.5128e-06
1.51258e-06
1.50967e-06
1.50669e-06
1.50669e-06
1.50669e-06
1.50669e-06
1.51009e-06
1.51093e-06
1.5104e-06
1.50669e-06
1.50669e-06
1.50669e-06
1.50669e-06
1.50669e-06
1.50669e-06
1.51106e-06
1.51302e-06
1.51293e-06
1.51029e-06
1.50669e-06
1.50669e-06
1.50669e-06
1.50669e-06
1.50669e-06
1.50669e-06
1.51116e-06
1.51281e-06
1.51276e-06
1.5102e-06
1.50669e-06
1.50669e-06
1.50669e-06
1.50669e-06
1.50669e-06
1.50669e-06
1.51115e-06
1.5111e-06
1.51039e-06
1.50669e-06
1.50669e-06
1.50669e-06
1.50669e-06
1.50669e-06
1.50669e-06
1.51113e-06
1.51313e-06
1.51254e-06
1.51009e-06
1.50669e-06
1.50669e-06
1.50669e-06
1.50669e-06
1.51092e-06
1.51109e-06
1.51304e-06
1.5128e-06
1.51093e-06
1.51106e-06
1.51116e-06
1.51115e-06
1.51112e-06
1.51109e-06
1.51302e-06
1.51302e-06
1.51281e-06
1.5111e-06
1.51313e-06
1.51304e-06
1.49388e-06
1.49371e-06
1.49353e-06
1.49135e-06
1.49124e-06
1.49115e-06
1.49134e-06
1.49349e-06
1.49375e-06
1.49353e-06
1.49062e-06
1.48764e-06
1.48764e-06
1.48764e-06
1.48764e-06
1.49104e-06
1.49188e-06
1.49135e-06
1.48764e-06
1.48764e-06
1.48764e-06
1.48764e-06
1.48764e-06
1.48764e-06
1.49201e-06
1.49397e-06
1.49388e-06
1.49124e-06
1.48764e-06
1.48764e-06
1.48764e-06
1.48764e-06
1.48764e-06
1.48764e-06
1.49211e-06
1.49376e-06
1.49371e-06
1.49115e-06
1.48764e-06
1.48764e-06
1.48764e-06
1.48764e-06
1.48764e-06
1.48764e-06
1.4921e-06
1.49205e-06
1.49134e-06
1.48764e-06
1.48764e-06
1.48764e-06
1.48764e-06
1.48764e-06
1.48764e-06
1.49208e-06
1.49408e-06
1.49349e-06
1.49104e-06
1.48764e-06
1.48764e-06
1.48764e-06
1.48764e-06
1.49187e-06
1.49205e-06
1.49399e-06
1.49375e-06
1.49188e-06
1.49201e-06
1.49211e-06
1.4921e-06
1.49207e-06
1.49204e-06
1.49397e-06
1.49397e-06
1.49376e-06
1.49205e-06
1.49408e-06
1.49399e-06
1.47483e-06
1.47466e-06
1.47448e-06
1.4723e-06
1.4722e-06
1.4721e-06
1.47229e-06
1.47444e-06
1.4747e-06
1.47448e-06
1.47157e-06
1.46859e-06
1.46859e-06
1.46859e-06
1.46859e-06
1.472e-06
1.47283e-06
1.4723e-06
1.46859e-06
1.46859e-06
1.46859e-06
1.46859e-06
1.46859e-06
1.46859e-06
1.47296e-06
1.47492e-06
1.47483e-06
1.47219e-06
1.46859e-06
1.46859e-06
1.46859e-06
1.46859e-06
1.46859e-06
1.46859e-06
1.47306e-06
1.47471e-06
1.47466e-06
1.4721e-06
1.46859e-06
1.46859e-06
1.46859e-06
1.46859e-06
1.46859e-06
1.46859e-06
1.47305e-06
1.473e-06
1.47229e-06
1.46859e-06
1.46859e-06
1.46859e-06
1.46859e-06
1.46859e-06
1.46859e-06
1.47303e-06
1.47503e-06
1.47444e-06
1.472e-06
1.46859e-06
1.46859e-06
1.46859e-06
1.46859e-06
1.47282e-06
1.473e-06
1.47494e-06
1.4747e-06
1.47283e-06
1.47296e-06
1.47306e-06
1.47305e-06
1.47302e-06
1.473e-06
1.47492e-06
1.47492e-06
1.47471e-06
1.473e-06
1.47503e-06
1.47494e-06
1.45578e-06
1.45561e-06
1.45543e-06
1.45325e-06
1.45315e-06
1.45305e-06
1.45325e-06
1.45539e-06
1.45565e-06
1.45543e-06
1.45252e-06
1.44954e-06
1.44954e-06
1.44954e-06
1.44954e-06
1.45295e-06
1.45378e-06
1.45325e-06
1.44954e-06
1.44954e-06
1.44954e-06
1.44954e-06
1.44954e-06
1.44954e-06
1.45391e-06
1.45588e-06
1.45578e-06
1.45315e-06
1.44954e-06
1.44954e-06
1.44954e-06
1.44954e-06
1.44954e-06
1.44954e-06
1.45402e-06
1.45566e-06
1.45561e-06
1.45305e-06
1.44954e-06
1.44954e-06
1.44954e-06
1.44954e-06
1.44954e-06
1.44954e-06
1.454e-06
1.45395e-06
1.45325e-06
1.44954e-06
1.44954e-06
1.44954e-06
1.44954e-06
1.44954e-06
1.44954e-06
1.45398e-06
1.45598e-06
1.45539e-06
1.45295e-06
1.44954e-06
1.44954e-06
1.44954e-06
1.44954e-06
1.45378e-06
1.45395e-06
1.45589e-06
1.45565e-06
1.45379e-06
1.45391e-06
1.45402e-06
1.454e-06
1.45398e-06
1.45395e-06
1.45587e-06
1.45587e-06
1.45566e-06
1.45395e-06
1.45598e-06
1.45589e-06
1.43673e-06
1.43656e-06
1.43638e-06
1.43421e-06
1.4341e-06
1.434e-06
1.4342e-06
1.43634e-06
1.4366e-06
1.43638e-06
1.43348e-06
1.43049e-06
1.43049e-06
1.43049e-06
1.43049e-06
1.4339e-06
1.43474e-06
1.43421e-06
1.43049e-06
1.43049e-06
1.43049e-06
1.43049e-06
1.43049e-06
1.43049e-06
1.43486e-06
1.43683e-06
1.43673e-06
1.4341e-06
1.43049e-06
1.43049e-06
1.43049e-06
1.43049e-06
1.43049e-06
1.43049e-06
1.43497e-06
1.43662e-06
1.43656e-06
1.434e-06
1.43049e-06
1.43049e-06
1.43049e-06
1.43049e-06
1.43049e-06
1.43049e-06
1.43495e-06
1.43491e-06
1.4342e-06
1.43049e-06
1.43049e-06
1.43049e-06
1.43049e-06
1.43049e-06
1.43049e-06
1.43493e-06
1.43694e-06
1.43634e-06
1.4339e-06
1.43049e-06
1.43049e-06
1.43049e-06
1.43049e-06
1.43473e-06
1.4349e-06
1.43684e-06
1.4366e-06
1.43474e-06
1.43486e-06
1.43497e-06
1.43495e-06
1.43493e-06
1.4349e-06
1.43683e-06
1.43683e-06
1.43662e-06
1.43491e-06
1.43693e-06
1.43684e-06
1.41769e-06
1.41751e-06
1.41733e-06
1.41516e-06
1.41505e-06
1.41496e-06
1.41515e-06
1.41729e-06
1.41755e-06
1.41734e-06
1.41443e-06
1.41144e-06
1.41144e-06
1.41144e-06
1.41144e-06
1.41485e-06
1.41569e-06
1.41516e-06
1.41144e-06
1.41144e-06
1.41144e-06
1.41144e-06
1.41144e-06
1.41144e-06
1.41581e-06
1.41778e-06
1.41769e-06
1.41505e-06
1.41144e-06
1.41144e-06
1.41144e-06
1.41144e-06
1.41144e-06
1.41144e-06
1.41592e-06
1.41757e-06
1.41751e-06
1.41496e-06
1.41144e-06
1.41144e-06
1.41144e-06
1.41144e-06
1.41144e-06
1.41144e-06
1.41591e-06
1.41586e-06
1.41515e-06
1.41144e-06
1.41144e-06
1.41144e-06
1.41144e-06
1.41144e-06
1.41144e-06
1.41589e-06
1.41789e-06
1.4173e-06
1.41485e-06
1.41144e-06
1.41144e-06
1.41144e-06
1.41144e-06
1.41568e-06
1.41585e-06
1.41779e-06
1.41755e-06
1.41569e-06
1.41581e-06
1.41592e-06
1.41591e-06
1.41588e-06
1.41585e-06
1.41778e-06
1.41778e-06
1.41757e-06
1.41586e-06
1.41789e-06
1.4178e-06
1.39864e-06
1.39847e-06
1.39829e-06
1.39611e-06
1.396e-06
1.39591e-06
1.3961e-06
1.39825e-06
1.39851e-06
1.39829e-06
1.39538e-06
1.3924e-06
1.3924e-06
1.3924e-06
1.3924e-06
1.3958e-06
1.39664e-06
1.39611e-06
1.3924e-06
1.3924e-06
1.3924e-06
1.3924e-06
1.3924e-06
1.3924e-06
1.39677e-06
1.39873e-06
1.39864e-06
1.396e-06
1.3924e-06
1.3924e-06
1.3924e-06
1.3924e-06
1.3924e-06
1.3924e-06
1.39687e-06
1.39852e-06
1.39847e-06
1.39591e-06
1.3924e-06
1.3924e-06
1.3924e-06
1.3924e-06
1.3924e-06
1.3924e-06
1.39686e-06
1.39681e-06
1.3961e-06
1.3924e-06
1.3924e-06
1.3924e-06
1.3924e-06
1.3924e-06
1.3924e-06
1.39684e-06
1.39884e-06
1.39825e-06
1.3958e-06
1.3924e-06
1.3924e-06
1.3924e-06
1.3924e-06
1.39663e-06
1.3968e-06
1.39875e-06
1.39851e-06
1.39664e-06
1.39677e-06
1.39687e-06
1.39686e-06
1.39683e-06
1.3968e-06
1.39873e-06
1.39873e-06
1.39852e-06
1.39681e-06
1.39884e-06
1.39875e-06
1.37959e-06
1.37942e-06
1.37924e-06
1.37706e-06
1.37696e-06
1.37686e-06
1.37706e-06
1.3792e-06
1.37946e-06
1.37924e-06
1.37633e-06
1.37335e-06
1.37335e-06
1.37335e-06
1.37335e-06
1.37676e-06
1.37759e-06
1.37706e-06
1.37335e-06
1.37335e-06
1.37335e-06
1.37335e-06
1.37335e-06
1.37335e-06
1.37772e-06
1.37968e-06
1.37959e-06
1.37696e-06
1.37335e-06
1.37335e-06
1.37335e-06
1.37335e-06
1.37335e-06
1.37335e-06
1.37783e-06
1.37947e-06
1.37942e-06
1.37686e-06
1.37335e-06
1.37335e-06
1.37335e-06
1.37335e-06
1.37335e-06
1.37335e-06
1.37781e-06
1.37776e-06
1.37705e-06
1.37335e-06
1.37335e-06
1.37335e-06
1.37335e-06
1.37335e-06
1.37335e-06
1.37779e-06
1.37979e-06
1.3792e-06
1.37676e-06
1.37335e-06
1.37335e-06
1.37335e-06
1.37335e-06
1.37758e-06
1.37776e-06
1.3797e-06
1.37946e-06
1.37759e-06
1.37772e-06
1.37782e-06
1.37781e-06
1.37779e-06
1.37776e-06
1.37968e-06
1.37968e-06
1.37947e-06
1.37776e-06
1.37979e-06
1.3797e-06
1.36054e-06
1.36037e-06
1.36019e-06
1.35802e-06
1.35791e-06
1.35781e-06
1.35801e-06
1.36015e-06
1.36041e-06
1.36019e-06
1.35728e-06
1.3543e-06
1.3543e-06
1.3543e-06
1.3543e-06
1.35771e-06
1.35855e-06
1.35802e-06
1.3543e-06
1.3543e-06
1.3543e-06
1.3543e-06
1.3543e-06
1.3543e-06
1.35867e-06
1.36064e-06
1.36054e-06
1.35791e-06
1.3543e-06
1.3543e-06
1.3543e-06
1.3543e-06
1.3543e-06
1.3543e-06
1.35878e-06
1.36043e-06
1.36037e-06
1.35781e-06
1.3543e-06
1.3543e-06
1.3543e-06
1.3543e-06
1.3543e-06
1.3543e-06
1.35876e-06
1.35872e-06
1.35801e-06
1.3543e-06
1.3543e-06
1.3543e-06
1.3543e-06
1.3543e-06
1.3543e-06
1.35874e-06
1.36074e-06
1.36015e-06
1.35771e-06
1.3543e-06
1.3543e-06
1.3543e-06
1.3543e-06
1.35854e-06
1.35871e-06
1.36065e-06
1.36041e-06
1.35855e-06
1.35867e-06
1.35878e-06
1.35876e-06
1.35874e-06
1.35871e-06
1.36064e-06
1.36064e-06
1.36042e-06
1.35872e-06
1.36074e-06
1.36065e-06
1.3415e-06
1.34132e-06
1.34114e-06
1.33897e-06
1.33886e-06
1.33877e-06
1.33896e-06
1.3411e-06
1.34136e-06
1.34114e-06
1.33824e-06
1.33525e-06
1.33525e-06
1.33525e-06
1.33525e-06
1.33866e-06
1.3395e-06
1.33897e-06
1.33525e-06
1.33525e-06
1.33525e-06
1.33525e-06
1.33525e-06
1.33525e-06
1.33962e-06
1.34159e-06
1.34149e-06
1.33886e-06
1.33525e-06
1.33525e-06
1.33525e-06
1.33525e-06
1.33525e-06
1.33525e-06
1.33973e-06
1.34138e-06
1.34132e-06
1.33877e-06
1.33525e-06
1.33525e-06
1.33525e-06
1.33525e-06
1.33525e-06
1.33525e-06
1.33972e-06
1.33967e-06
1.33896e-06
1.33525e-06
1.33525e-06
1.33525e-06
1.33525e-06
1.33525e-06
1.33525e-06
1.33969e-06
1.3417e-06
1.34111e-06
1.33866e-06
1.33525e-06
1.33525e-06
1.33525e-06
1.33525e-06
1.33949e-06
1.33966e-06
1.3416e-06
1.34136e-06
1.3395e-06
1.33962e-06
1.33973e-06
1.33972e-06
1.33969e-06
1.33966e-06
1.34159e-06
1.34159e-06
1.34138e-06
1.33967e-06
1.3417e-06
1.3416e-06
1.32245e-06
1.32228e-06
1.3221e-06
1.31992e-06
1.31981e-06
1.31972e-06
1.31991e-06
1.32206e-06
1.32232e-06
1.3221e-06
1.31919e-06
1.31621e-06
1.31621e-06
1.31621e-06
1.31621e-06
1.31961e-06
1.32045e-06
1.31992e-06
1.31621e-06
1.31621e-06
1.31621e-06
1.31621e-06
1.31621e-06
1.31621e-06
1.32058e-06
1.32254e-06
1.32245e-06
1.31981e-06
1.31621e-06
1.31621e-06
1.31621e-06
1.31621e-06
1.31621e-06
1.31621e-06
1.32068e-06
1.32233e-06
1.32228e-06
1.31972e-06
1.31621e-06
1.31621e-06
1.31621e-06
1.31621e-06
1.31621e-06
1.31621e-06
1.32067e-06
1.32062e-06
1.31991e-06
1.31621e-06
1.31621e-06
1.31621e-06
1.31621e-06
1.31621e-06
1.31621e-06
1.32065e-06
1.32265e-06
1.32206e-06
1.31961e-06
1.31621e-06
1.31621e-06
1.31621e-06
1.31621e-06
1.32044e-06
1.32061e-06
1.32256e-06
1.32232e-06
1.32045e-06
1.32058e-06
1.32068e-06
1.32067e-06
1.32064e-06
1.32061e-06
1.32254e-06
1.32254e-06
1.32233e-06
1.32062e-06
1.32265e-06
1.32256e-06
1.3034e-06
1.30323e-06
1.30305e-06
1.30087e-06
1.30077e-06
1.30067e-06
1.30086e-06
1.30301e-06
1.30327e-06
1.30305e-06
1.30014e-06
1.29716e-06
1.29716e-06
1.29716e-06
1.29716e-06
1.30057e-06
1.3014e-06
1.30087e-06
1.29716e-06
1.29716e-06
1.29716e-06
1.29716e-06
1.29716e-06
1.29716e-06
1.30153e-06
1.30349e-06
1.3034e-06
1.30077e-06
1.29716e-06
1.29716e-06
1.29716e-06
1.29716e-06
1.29716e-06
1.29716e-06
1.30164e-06
1.30328e-06
1.30323e-06
1.30067e-06
1.29716e-06
1.29716e-06
1.29716e-06
1.29716e-06
1.29716e-06
1.29716e-06
1.30162e-06
1.30157e-06
1.30086e-06
1.29716e-06
1.29716e-06
1.29716e-06
1.29716e-06
1.29716e-06
1.29716e-06
1.3016e-06
1.3036e-06
1.30301e-06
1.30057e-06
1.29716e-06
1.29716e-06
1.29716e-06
1.29716e-06
1.30139e-06
1.30157e-06
1.30351e-06
1.30327e-06
1.3014e-06
1.30153e-06
1.30163e-06
1.30162e-06
1.3016e-06
1.30157e-06
1.30349e-06
1.30349e-06
1.30328e-06
1.30157e-06
1.3036e-06
1.30351e-06
1.28435e-06
1.28418e-06
1.284e-06
1.28183e-06
1.28172e-06
1.28162e-06
1.28182e-06
1.28396e-06
1.28422e-06
1.284e-06
1.28109e-06
1.27811e-06
1.27811e-06
1.27811e-06
1.27811e-06
1.28152e-06
1.28236e-06
1.28183e-06
1.27811e-06
1.27811e-06
1.27811e-06
1.27811e-06
1.27811e-06
1.27811e-06
1.28248e-06
1.28445e-06
1.28435e-06
1.28172e-06
1.27811e-06
1.27811e-06
1.27811e-06
1.27811e-06
1.27811e-06
1.27811e-06
1.28259e-06
1.28423e-06
1.28418e-06
1.28162e-06
1.27811e-06
1.27811e-06
1.27811e-06
1.27811e-06
1.27811e-06
1.27811e-06
1.28257e-06
1.28253e-06
1.28182e-06
1.27811e-06
1.27811e-06
1.27811e-06
1.27811e-06
1.27811e-06
1.27811e-06
1.28255e-06
1.28455e-06
1.28396e-06
1.28152e-06
1.27811e-06
1.27811e-06
1.27811e-06
1.27811e-06
1.28235e-06
1.28252e-06
1.28446e-06
1.28422e-06
1.28236e-06
1.28248e-06
1.28259e-06
1.28257e-06
1.28255e-06
1.28252e-06
1.28445e-06
1.28445e-06
1.28423e-06
1.28253e-06
1.28455e-06
1.28446e-06
1.2653e-06
1.26513e-06
1.26495e-06
1.26278e-06
1.26267e-06
1.26258e-06
1.26277e-06
1.26491e-06
1.26517e-06
1.26495e-06
1.26205e-06
1.25906e-06
1.25906e-06
1.25906e-06
1.25906e-06
1.26247e-06
1.26331e-06
1.26278e-06
1.25906e-06
1.25906e-06
1.25906e-06
1.25906e-06
1.25906e-06
1.25906e-06
1.26343e-06
1.2654e-06
1.2653e-06
1.26267e-06
1.25906e-06
1.25906e-06
1.25906e-06
1.25906e-06
1.25906e-06
1.25906e-06
1.26354e-06
1.26519e-06
1.26513e-06
1.26258e-06
1.25906e-06
1.25906e-06
1.25906e-06
1.25906e-06
1.25906e-06
1.25906e-06
1.26353e-06
1.26348e-06
1.26277e-06
1.25906e-06
1.25906e-06
1.25906e-06
1.25906e-06
1.25906e-06
1.25906e-06
1.26351e-06
1.26551e-06
1.26492e-06
1.26247e-06
1.25906e-06
1.25906e-06
1.25906e-06
1.25906e-06
1.2633e-06
1.26347e-06
1.26541e-06
1.26517e-06
1.26331e-06
1.26343e-06
1.26354e-06
1.26353e-06
1.2635e-06
1.26347e-06
1.2654e-06
1.2654e-06
1.26519e-06
1.26348e-06
1.26551e-06
1.26541e-06
1.24626e-06
1.24609e-06
1.24591e-06
1.24373e-06
1.24362e-06
1.24353e-06
1.24372e-06
1.24587e-06
1.24613e-06
1.24591e-06
1.243e-06
1.24002e-06
1.24002e-06
1.24002e-06
1.24002e-06
1.24342e-06
1.24426e-06
1.24373e-06
1.24002e-06
1.24002e-06
1.24002e-06
1.24002e-06
1.24002e-06
1.24002e-06
1.24439e-06
1.24635e-06
1.24626e-06
1.24362e-06
1.24002e-06
1.24002e-06
1.24002e-06
1.24002e-06
1.24002e-06
1.24002e-06
1.24449e-06
1.24614e-06
1.24609e-06
1.24353e-06
1.24002e-06
1.24002e-06
1.24002e-06
1.24002e-06
1.24002e-06
1.24002e-06
1.24448e-06
1.24443e-06
1.24372e-06
1.24002e-06
1.24002e-06
1.24002e-06
1.24002e-06
1.24002e-06
1.24002e-06
1.24446e-06
1.24646e-06
1.24587e-06
1.24343e-06
1.24002e-06
1.24002e-06
1.24002e-06
1.24002e-06
1.24425e-06
1.24443e-06
1.24637e-06
1.24613e-06