/*--------------------------------*- C++ -*----------------------------------*\
| =========                 |                                                 |
| \\      /  F ield         | OpenFOAM: The Open Source CFD Toolbox           |
|  \\    /   O peration     | Version:  v2012                                 |
|   \\  /    A nd           | Website:  www.openfoam.com                      |
|    \\/     M anipulation  |                                                 |
\*---------------------------------------------------------------------------*/
FoamFile
{
    version     2.0;
    format      ascii;
    class       volScalarField;
    location    "537.5";
    object      nut;
}
// * * * * * * * * * * * * * * * * * * * * * * * * * * * * * * * * * * * * * //

dimensions      [0 2 -1 0 0 0 0];


internalField   nonuniform List<scalar> 
171728
(
2.97261e-06
1.63102e-06
3.04087e-06
2.27936e-06
2.94848e-06
1.62846e-06
3.73144e-06
2.30882e-06
2.95202e-06
1.64649e-06
4.76198e-06
2.29711e-06
2.95676e-06
1.65562e-06
5.08202e-06
2.2438e-06
2.96359e-06
1.66533e-06
4.08501e-06
2.23722e-06
2.97187e-06
1.67701e-06
3.5021e-06
2.43134e-06
2.98193e-06
1.67929e-06
3.12984e-06
2.68121e-06
2.99917e-06
1.65231e-06
2.77703e-06
2.77779e-06
3.02024e-06
1.59332e-06
2.60732e-06
2.32119e-06
3.04535e-06
1.51922e-06
2.52169e-06
2.1754e-06
3.07409e-06
1.43958e-06
2.09601e-06
2.02176e-06
3.10218e-06
1.35618e-06
1.56008e-06
1.75777e-06
3.12781e-06
1.27077e-06
1.28911e-06
1.53004e-06
3.15381e-06
1.18353e-06
1.21421e-06
1.38645e-06
3.18494e-06
1.1033e-06
1.28373e-06
1.28762e-06
3.2112e-06
1.03239e-06
1.55637e-06
1.21437e-06
3.22794e-06
9.82269e-07
1.83942e-06
1.16325e-06
3.24884e-06
9.05519e-07
1.92419e-06
1.13466e-06
3.26975e-06
9.37208e-07
1.73676e-06
1.11098e-06
3.25455e-06
1.05693e-06
1.53054e-06
1.29535e-06
3.18488e-06
1.16261e-06
1.20211e-06
1.44101e-06
3.12892e-06
1.54974e-06
1.69772e-06
2.4505e-06
3.08955e-06
1.90351e-06
2.22871e-06
3.4456e-06
3.00348e-06
2.74143e-06
2.66281e-06
4.70994e-06
2.95293e-06
3.74466e-06
3.85814e-06
1.0263e-05
2.81096e-06
5.12166e-06
5.15139e-06
7.30883e-06
2.5056e-06
6.8532e-06
6.77532e-06
1.87852e-05
2.40979e-06
8.37152e-06
8.91798e-06
3.40321e-05
2.16878e-06
1.36392e-05
1.24487e-05
3.9386e-05
2.2503e-06
1.48715e-05
1.35285e-05
2.89565e-05
2.0973e-06
1.40275e-05
1.77804e-05
5.1036e-05
2.32384e-06
3.18276e-05
2.25443e-05
5.3413e-05
2.58019e-06
3.13205e-05
2.63173e-05
6.09098e-05
2.78496e-06
2.69229e-05
3.10856e-05
6.27842e-05
3.47695e-06
3.54862e-05
3.56587e-05
6.96933e-05
4.08222e-06
4.7154e-05
4.07621e-05
7.606e-05
5.55719e-06
4.89204e-05
4.84062e-05
7.89822e-05
6.07317e-06
5.06689e-05
5.15782e-05
8.07262e-05
7.41823e-06
5.90872e-05
5.83273e-05
8.97933e-05
1.04122e-05
6.58538e-05
6.80787e-05
9.34629e-05
1.20342e-05
6.98566e-05
6.9703e-05
9.48129e-05
1.37763e-05
7.52271e-05
7.31752e-05
9.47828e-05
1.69237e-05
8.75501e-05
8.63097e-05
0.000108822
2.36433e-05
8.84907e-05
9.36532e-05
0.000108946
2.38302e-05
8.94195e-05
9.31851e-05
0.000106587
2.80213e-05
0.000101224
9.40993e-05
0.000113777
3.94402e-05
0.000114132
0.00011275
0.0001229
4.03017e-05
0.000113582
0.000113827
0.000122752
4.25561e-05
0.000108791
0.000110247
0.000122524
5.43821e-05
0.000115705
0.000122413
0.00012825
5.28584e-05
0.00013158
0.000125271
0.000134684
6.8068e-05
0.000136248
0.000131262
0.000136633
7.76044e-05
0.000135122
0.000135674
0.000136889
7.41735e-05
0.000137534
0.000139178
0.000141668
8.77402e-05
0.000143182
0.000145491
0.000145844
9.61526e-05
0.000148527
0.000145644
0.00014619
9.69486e-05
0.000153085
0.0001506
0.000150972
0.000109607
0.000152407
0.000158771
0.000153473
0.000113238
0.000159209
0.000159197
0.000154053
0.000119149
0.000166277
0.000162954
0.000159636
0.000130712
0.000168155
0.000168621
0.000161225
0.000130402
0.000166812
0.000168912
0.000161555
0.000140218
0.000175448
0.000174214
0.00016674
0.00014577
0.000178311
0.000178909
0.000168503
0.000152021
0.000181155
0.000178225
0.000169106
0.000156131
0.000181275
0.00018484
0.000172719
0.000163429
0.000187983
0.000188283
0.000175918
0.000168462
0.000191204
0.000187532
0.000175454
0.000174673
0.000191033
0.000192694
0.000178188
0.000179112
0.000193148
0.000195727
0.00018133
0.000183406
0.000197682
0.000197393
0.000182502
0.000189984
0.000202402
0.000200012
0.000182292
0.000194833
0.000203543
0.000201879
0.000185691
0.000200465
0.000202287
0.000205476
0.000188124
0.00020068
0.000204147
0.000207204
0.000187336
0.00020759
0.000213246
0.000208047
0.000189572
0.000213923
0.00021341
0.000209755
0.000191204
0.000214777
0.00021047
0.000214927
0.000193165
0.000218004
0.000210007
0.000216858
0.00019271
0.000223262
0.000217183
0.000214111
0.000193152
0.000225847
0.000221118
0.000217071
0.000196931
0.000228912
0.00021931
0.000222636
0.000198488
0.00022836
0.000214364
0.000218548
0.000193408
0.000237599
0.000225646
0.00022204
0.000199329
0.000240858
0.000224714
0.000229961
0.000203271
0.00023224
0.000215609
0.000218891
0.000194697
0.000235595
0.000227205
0.000217129
0.000195238
0.000254087
0.000237411
0.000232631
0.000206497
0.000250287
0.000218907
0.000229583
0.00020046
0.000232563
0.000212575
0.000217076
0.000191443
0.000239976
0.00023315
0.000221231
0.000200654
0.000259306
0.000237393
0.000235224
0.000207434
0.000260041
0.000224998
0.000238497
0.000202753
0.000244196
0.000221739
0.000218164
0.000195479
0.000241616
0.00022274
0.000216276
0.000198359
2.33016e-06
2.28934e-06
2.35774e-06
2.23604e-06
2.41403e-06
2.18432e-06
3.00855e-06
2.85277e-06
3.08659e-06
2.84506e-06
2.17865e-06
2.7373e-06
2.28936e-06
2.5285e-06
2.39892e-06
2.28402e-06
2.32864e-06
2.29639e-06
1.77045e-06
2.00659e-06
1.78544e-06
2.00832e-06
2.23238e-06
2.1982e-06
1.9556e-06
1.76992e-06
1.95852e-06
1.76837e-06
2.30884e-06
1.62555e-06
2.34075e-06
2.28199e-06
2.32598e-06
2.81504e-06
3.52345e-06
2.16883e-06
2.30298e-06
2.29674e-06
2.27569e-06
1.79506e-06
2.00607e-06
1.83136e-06
1.99279e-06
2.19655e-06
2.1641e-06
1.96398e-06
1.76904e-06
1.98552e-06
1.7726e-06
2.35223e-06
1.64292e-06
2.39644e-06
2.32353e-06
2.43872e-06
2.02809e-06
4.48029e-06
1.84684e-06
2.30402e-06
2.27557e-06
2.26131e-06
1.84565e-06
1.98723e-06
1.8854e-06
1.9724e-06
2.16245e-06
2.13501e-06
1.9942e-06
1.77537e-06
2.01797e-06
1.78695e-06
2.4145e-06
1.65374e-06
2.46223e-06
2.42739e-06
2.51319e-06
1.82119e-06
5.16032e-06
1.76563e-06
2.24927e-06
2.25239e-06
2.24161e-06
1.89501e-06
1.96772e-06
1.92001e-06
1.96663e-06
2.13318e-06
2.10931e-06
2.02541e-06
1.79136e-06
2.04229e-06
1.79974e-06
2.47816e-06
1.66228e-06
2.51043e-06
2.48602e-06
2.47473e-06
1.77776e-06
4.36438e-06
1.84656e-06
2.23058e-06
2.22646e-06
2.22146e-06
1.92796e-06
1.96907e-06
1.94381e-06
1.97086e-06
2.10711e-06
2.08876e-06
2.04491e-06
1.80075e-06
2.04626e-06
1.80322e-06
2.5147e-06
1.67382e-06
2.53084e-06
2.43429e-06
2.39814e-06
1.92181e-06
3.60212e-06
2.50139e-06
2.39803e-06
2.21018e-06
2.19116e-06
1.94262e-06
1.97407e-06
1.92997e-06
1.99401e-06
2.08703e-06
2.08437e-06
2.04644e-06
1.80409e-06
2.04515e-06
1.81053e-06
2.53573e-06
1.68036e-06
2.52644e-06
2.36908e-06
2.35574e-06
2.88395e-06
3.20652e-06
4.31079e-06
2.68329e-06
2.18632e-06
2.15342e-06
1.92269e-06
1.9995e-06
1.90504e-06
1.98513e-06
2.08196e-06
2.0711e-06
2.04442e-06
1.81406e-06
2.04378e-06
1.8148e-06
2.51675e-06
1.66171e-06
2.48086e-06
2.3305e-06
2.28549e-06
4.75909e-06
2.87081e-06
5.70708e-06
2.83174e-06
2.14842e-06
2.11269e-06
1.89508e-06
1.96962e-06
1.86021e-06
1.91274e-06
2.06621e-06
2.02898e-06
2.04354e-06
1.81544e-06
2.03755e-06
1.81518e-06
2.4644e-06
1.6096e-06
2.39167e-06
2.25373e-06
2.19593e-06
5.7952e-06
2.61446e-06
4.1698e-06
2.37512e-06
2.10646e-06
2.06765e-06
1.84903e-06
1.89425e-06
1.79822e-06
1.85245e-06
2.02215e-06
1.96262e-06
2.03508e-06
1.81202e-06
2.03058e-06
1.78827e-06
2.35966e-06
1.53746e-06
2.21877e-06
2.18146e-06
2.1622e-06
3.69731e-06
2.56526e-06
2.73082e-06
2.19461e-06
2.0597e-06
2.01329e-06
1.78141e-06
1.84429e-06
1.74969e-06
1.83759e-06
1.95454e-06
1.88969e-06
2.02925e-06
1.7782e-06
2.01477e-06
1.74025e-06
2.14792e-06
1.46121e-06
1.8914e-06
2.15268e-06
2.05118e-06
2.51e-06
2.23673e-06
1.99406e-06
2.04368e-06
2.00363e-06
1.94315e-06
1.73931e-06
1.8401e-06
1.71149e-06
1.84249e-06
1.88145e-06
1.81406e-06
2.00599e-06
1.73035e-06
1.97441e-06
1.70225e-06
1.80464e-06
1.37572e-06
1.54922e-06
2.02983e-06
1.87644e-06
1.85029e-06
1.67643e-06
1.47023e-06
1.78359e-06
1.93079e-06
1.85859e-06
1.69363e-06
1.84174e-06
1.61121e-06
1.82881e-06
1.80341e-06
1.72269e-06
1.96365e-06
1.68854e-06
1.93495e-06
1.6532e-06
1.47603e-06
1.28806e-06
1.30415e-06
1.859e-06
1.71803e-06
1.36492e-06
1.33187e-06
1.12572e-06
1.54796e-06
1.84218e-06
1.75526e-06
1.58478e-06
1.8196e-06
1.49177e-06
1.77583e-06
1.70855e-06
1.6213e-06
1.92225e-06
1.63282e-06
1.87849e-06
1.57619e-06
1.26392e-06
1.20214e-06
1.198e-06
1.70052e-06
1.60057e-06
1.07038e-06
1.23037e-06
9.49851e-07
1.40313e-06
1.73483e-06
1.65021e-06
1.46451e-06
1.75384e-06
1.39882e-06
1.68305e-06
1.60236e-06
1.50359e-06
1.86212e-06
1.56005e-06
1.80158e-06
1.51598e-06
1.17875e-06
1.12172e-06
1.13715e-06
1.58356e-06
1.54394e-06
9.21683e-07
1.2369e-06
8.69397e-07
1.30452e-06
1.62529e-06
1.54858e-06
1.38314e-06
1.65066e-06
1.33928e-06
1.51948e-06
1.48069e-06
1.37061e-06
1.77872e-06
1.51141e-06
1.68931e-06
1.49514e-06
1.13677e-06
1.04154e-06
1.20238e-06
1.53345e-06
1.54391e-06
8.57157e-07
1.48259e-06
8.34039e-07
1.23112e-06
1.51992e-06
1.44916e-06
1.33234e-06
1.4746e-06
1.32001e-06
1.34509e-06
1.34126e-06
1.27572e-06
1.65991e-06
1.50547e-06
1.55722e-06
1.48236e-06
1.2328e-06
9.83086e-07
1.35244e-06
1.53962e-06
1.55945e-06
8.24933e-07
1.7712e-06
7.96953e-07
1.17426e-06
1.42381e-06
1.37654e-06
1.33205e-06
1.2953e-06
1.37378e-06
1.16696e-06
1.2488e-06
1.10854e-06
1.51561e-06
1.48933e-06
1.42493e-06
1.45784e-06
1.39977e-06
9.06746e-07
1.47363e-06
1.54967e-06
1.5295e-06
7.92404e-07
1.91183e-06
7.75809e-07
1.13852e-06
1.36012e-06
1.36099e-06
1.38086e-06
1.14003e-06
1.47548e-06
1.14839e-06
1.08907e-06
1.20389e-06
1.3833e-06
1.45073e-06
1.33701e-06
1.44257e-06
1.50897e-06
9.54166e-07
1.51638e-06
1.50752e-06
1.4687e-06
7.78107e-07
1.8311e-06
7.80283e-07
1.11786e-06
1.36248e-06
1.43726e-06
1.47561e-06
1.18616e-06
1.56228e-06
1.18715e-06
1.22819e-06
1.26742e-06
1.29934e-06
1.40147e-06
1.27353e-06
1.41084e-06
1.49788e-06
1.03115e-06
1.48596e-06
1.42322e-06
1.48302e-06
7.87851e-07
1.57332e-06
8.67019e-07
1.22585e-06
1.48199e-06
1.65206e-06
1.59962e-06
1.21416e-06
1.59995e-06
1.32674e-06
1.32425e-06
1.38902e-06
1.28649e-06
1.44304e-06
1.32944e-06
1.4097e-06
1.52415e-06
1.06686e-06
1.50042e-06
1.54363e-06
1.47955e-06
9.22895e-07
1.29017e-06
9.73572e-07
1.44288e-06
1.76328e-06
2.24741e-06
1.68056e-06
1.40067e-06
1.77469e-06
1.78301e-06
1.44513e-06
2.4944e-06
1.41273e-06
1.42277e-06
1.58016e-06
1.66502e-06
1.4346e-06
1.49407e-06
1.72086e-06
1.47148e-06
2.31297e-06
1.01297e-06
1.53335e-06
1.34634e-06
2.19443e-06
2.33292e-06
3.208e-06
1.7908e-06
1.80958e-06
2.18434e-06
1.88286e-06
2.60567e-06
2.68091e-06
1.62036e-06
1.76322e-06
2.11421e-06
2.17315e-06
1.77206e-06
1.72222e-06
2.23745e-06
2.59619e-06
3.39632e-06
1.40998e-06
2.09205e-06
1.80736e-06
3.04653e-06
3.58035e-06
5.14156e-06
2.35287e-06
2.09376e-06
2.69382e-06
2.71161e-06
2.94803e-06
5.1715e-06
2.31969e-06
2.31308e-06
2.75345e-06
2.62156e-06
2.39235e-06
2.49201e-06
2.56986e-06
3.61659e-06
4.50865e-06
1.98876e-06
2.43088e-06
2.12303e-06
4.14479e-06
5.46872e-06
8.12172e-06
2.98993e-06
3.13869e-06
3.91343e-06
4.24554e-06
5.72113e-06
7.88292e-06
3.06828e-06
2.89709e-06
4.08694e-06
3.88863e-06
2.99751e-06
3.53657e-06
4.31187e-06
4.84328e-06
8.32155e-06
2.56758e-06
3.74355e-06
3.83282e-06
1.00984e-05
8.72651e-06
1.11614e-05
3.9208e-06
4.3851e-06
5.2025e-06
5.17418e-06
8.34463e-06
1.14308e-05
4.12091e-06
4.04653e-06
5.4171e-06
4.86507e-06
4.48678e-06
4.73686e-06
4.08339e-06
9.04776e-06
1.07044e-05
3.99467e-06
4.57065e-06
3.6444e-06
7.44847e-06
1.23165e-05
1.65951e-05
5.69275e-06
5.46657e-06
6.17486e-06
6.41485e-06
1.23483e-05
1.61045e-05
6.00573e-06
5.38365e-06
6.72108e-06
6.62624e-06
4.33301e-06
6.34643e-06
6.35366e-06
1.15984e-05
1.72576e-05
4.10309e-06
6.39751e-06
7.16384e-06
1.75652e-05
1.71042e-05
2.43507e-05
6.70176e-06
7.00491e-06
9.50526e-06
8.22258e-06
1.70559e-05
2.1981e-05
7.18415e-06
6.98096e-06
9.34755e-06
8.62343e-06
6.36897e-06
7.82214e-06
1.006e-05
1.81849e-05
2.20991e-05
7.01693e-06
8.29713e-06
1.19811e-05
2.90017e-05
2.61485e-05
2.71531e-05
9.8344e-06
8.6439e-06
1.01903e-05
1.2088e-05
2.29882e-05
3.29008e-05
9.38683e-06
9.2214e-06
1.05987e-05
1.12636e-05
1.14559e-05
1.23272e-05
1.29757e-05
2.34764e-05
3.0767e-05
1.54187e-05
1.15314e-05
1.9632e-05
4.06641e-05
2.78567e-05
3.90884e-05
1.1216e-05
1.32756e-05
1.48198e-05
1.4748e-05
3.62851e-05
3.8352e-05
1.17567e-05
1.21221e-05
1.51238e-05
1.41634e-05
1.2819e-05
1.50052e-05
1.14614e-05
3.23102e-05
3.72988e-05
1.98884e-05
1.33789e-05
1.51169e-05
2.77427e-05
4.12178e-05
4.35231e-05
1.55453e-05
1.46501e-05
1.6682e-05
1.26191e-05
3.79581e-05
2.9183e-05
1.57287e-05
1.47406e-05
1.69668e-05
1.66474e-05
1.32161e-05
1.24812e-05
1.93215e-05
3.81817e-05
4.21744e-05
1.40988e-05
1.64383e-05
1.77455e-05
4.90626e-05
4.41554e-05
5.03578e-05
1.73139e-05
1.43489e-05
2.09378e-05
2.64888e-05
3.18979e-05
6.46649e-05
1.75773e-05
1.74725e-05
2.08333e-05
2.10941e-05
1.96724e-05
2.93944e-05
2.03222e-05
4.36806e-05
5.10596e-05
2.13574e-05
2.18344e-05
2.77367e-05
5.26647e-05
5.20942e-05
5.76535e-05
2.23139e-05
2.82797e-05
2.58997e-05
2.91471e-05
6.63303e-05
6.35916e-05
2.1998e-05
2.22036e-05
2.54165e-05
2.56548e-05
2.22715e-05
3.30285e-05
2.66668e-05
5.26835e-05
5.77215e-05
2.89129e-05
2.47132e-05
3.05408e-05
5.98425e-05
5.89056e-05
6.25707e-05
2.70189e-05
2.88028e-05
2.9273e-05
2.70968e-05
6.29858e-05
5.67309e-05
2.65816e-05
2.69134e-05
2.95685e-05
3.0004e-05
2.71534e-05
2.83948e-05
2.88132e-05
5.90037e-05
6.32401e-05
3.02847e-05
3.06156e-05
3.12644e-05
6.21366e-05
6.36447e-05
6.80994e-05
3.00377e-05
2.81086e-05
3.43073e-05
3.19651e-05
5.72962e-05
6.71535e-05
3.04901e-05
3.09468e-05
3.44604e-05
3.41163e-05
2.94264e-05
3.12552e-05
3.41764e-05
6.42407e-05
6.7567e-05
3.14565e-05
3.39495e-05
3.40021e-05
6.79887e-05
6.92976e-05
7.38693e-05
3.60889e-05
3.40063e-05
4.02287e-05
4.20575e-05
6.90759e-05
7.59331e-05
3.59383e-05
3.55389e-05
3.95725e-05
3.94867e-05
3.64015e-05
4.50887e-05
4.12087e-05
6.87773e-05
7.35567e-05
3.58213e-05
3.91345e-05
4.149e-05
7.50961e-05
7.52595e-05
7.90826e-05
4.1884e-05
4.45956e-05
4.68639e-05
4.64846e-05
7.73358e-05
7.91575e-05
4.15371e-05
4.13195e-05
4.71139e-05
4.69198e-05
4.24529e-05
4.85568e-05
4.65471e-05
7.48101e-05
7.9118e-05
4.30438e-05
4.70536e-05
4.58941e-05
7.83768e-05
7.97934e-05
8.16329e-05
4.75186e-05
4.71948e-05
5.05186e-05
4.92706e-05
7.95854e-05
8.11399e-05
4.77276e-05
4.79073e-05
5.03113e-05
5.11537e-05
4.76267e-05
4.93656e-05
4.90174e-05
8.00398e-05
8.19979e-05
4.63306e-05
5.08584e-05
4.89414e-05
7.99771e-05
8.24928e-05
8.64709e-05
5.24274e-05
5.12092e-05
5.65091e-05
5.79195e-05
8.20362e-05
8.78739e-05
5.21385e-05
5.21965e-05
5.65284e-05
5.57104e-05
4.98757e-05
5.73729e-05
5.62685e-05
8.25527e-05
8.63573e-05
5.01263e-05
5.57851e-05
5.67885e-05
8.81208e-05
8.74746e-05
9.17584e-05
5.74771e-05
5.93277e-05
6.45703e-05
6.45525e-05
8.89278e-05
9.09839e-05
5.75305e-05
5.80588e-05
6.43576e-05
6.61219e-05
5.96164e-05
6.46667e-05
6.77119e-05
8.81999e-05
9.30127e-05
6.02485e-05
6.62712e-05
6.68157e-05
9.29883e-05
9.29008e-05
9.51425e-05
6.70683e-05
6.5668e-05
7.03388e-05
6.89161e-05
9.14934e-05
9.41974e-05
6.69499e-05
6.80322e-05
7.01273e-05
7.0155e-05
6.83687e-05
6.8992e-05
6.99602e-05
9.35721e-05
9.31744e-05
6.77093e-05
7.03821e-05
7.08112e-05
9.44435e-05
9.56092e-05
9.72727e-05
7.1357e-05
6.96722e-05
7.36943e-05
7.28082e-05
9.50683e-05
9.71606e-05
7.09593e-05
6.93925e-05
7.41417e-05
6.98742e-05
7.09332e-05
7.23413e-05
7.02921e-05
9.31677e-05
9.64528e-05
7.16875e-05
6.94178e-05
6.92176e-05
9.42705e-05
9.80053e-05
0.000103098
7.42638e-05
7.60473e-05
8.10262e-05
8.61167e-05
9.86671e-05
0.000106304
7.50542e-05
7.38458e-05
8.08413e-05
8.54636e-05
7.10692e-05
8.55712e-05
8.29428e-05
9.84195e-05
0.000105058
6.81332e-05
8.3252e-05
8.59403e-05
0.00010692
0.000104555
0.000107718
8.43755e-05
8.77268e-05
9.11582e-05
8.87938e-05
0.000106885
0.00010456
8.37361e-05
8.7091e-05
9.06077e-05
9.0037e-05
8.7567e-05
8.92689e-05
9.38694e-05
0.000105923
0.00010841
9.0574e-05
9.28015e-05
9.35263e-05
0.000109153
0.000107978
0.000107349
9.21942e-05
8.78836e-05
9.0693e-05
8.59313e-05
0.000103914
0.000106892
9.1658e-05
9.13838e-05
9.02281e-05
9.35086e-05
9.38138e-05
8.64621e-05
9.34925e-05
0.000108885
0.000108788
9.30058e-05
9.38737e-05
9.01013e-05
0.000106487
0.000107639
0.000115489
8.95205e-05
8.95281e-05
9.89253e-05
9.92512e-05
0.000108994
0.000114921
8.96289e-05
9.28049e-05
9.91516e-05
9.23858e-05
9.27238e-05
9.77911e-05
8.98972e-05
0.000108525
0.000109642
8.81578e-05
8.92223e-05
9.08836e-05
0.000110979
0.0001172
0.000119645
0.000102929
0.000102291
0.000108958
0.000111653
0.000115566
0.000123139
0.000102714
9.66864e-05
0.00010878
0.000109246
9.44253e-05
0.000112139
0.000108582
0.000111958
0.000121975
9.97397e-05
0.00011056
0.000114766
0.000122398
0.000119708
0.000119614
0.000109732
0.000113377
0.000108539
0.000113888
0.000124133
0.000123086
0.000109615
0.000111355
0.000108431
0.000113335
0.000111065
0.000114921
0.000112321
0.000122576
0.000122148
0.000116098
0.000114074
0.000116048
0.000122905
0.000119941
0.00012537
0.00010796
0.000113143
0.000115262
0.000110664
0.000122559
0.000118403
0.000107808
0.00011301
0.000114867
0.000109804
0.000111745
0.000110605
0.000114241
0.000121834
0.000121046
0.00011525
0.00011065
0.000112274
0.000122356
0.000126325
0.000127369
0.000117616
0.000109149
0.00012024
0.000111489
0.000118107
0.000123747
0.000117362
0.000111217
0.000120647
0.000121742
0.000115195
0.000110395
0.000117898
0.000121985
0.000129763
0.000110745
0.000120203
0.000115481
0.000126816
0.000127356
0.000130334
0.000119574
0.000115786
0.000121436
0.000127383
0.000126122
0.000134602
0.000120108
0.000123213
0.000121598
0.000124025
0.000119749
0.000128524
0.000125901
0.000130416
0.000130925
0.000120134
0.00012486
0.000128645
0.000133957
0.000132004
0.000137479
0.000124918
0.000130606
0.000133138
0.000135945
0.00013601
0.000139377
0.000124811
0.000124439
0.000132784
0.000128898
0.000127621
0.000135897
0.000132237
0.000131092
0.000134848
0.00013002
0.000129086
0.000132768
0.00013644
0.000137851
0.000137834
0.000134481
0.000136509
0.000135444
0.000136468
0.000139499
0.000138562
0.000134195
0.000131313
0.000135323
0.000135845
0.000132926
0.000135875
0.000132735
0.000135895
0.000138788
0.000132922
0.000135477
0.000132781
0.000136722
0.000137601
0.000139732
0.000134694
0.000135762
0.000135369
0.000134743
0.00013823
0.000139256
0.000134606
0.000135907
0.000135447
0.000137363
0.00013309
0.000134619
0.000137152
0.000138939
0.000140837
0.000133386
0.000137531
0.000137207
0.000140607
0.000141431
0.000145745
0.000138447
0.000137628
0.000144706
0.00014238
0.000140568
0.000143819
0.000138546
0.000139043
0.000144872
0.000144449
0.00013903
0.000142428
0.000144416
0.000141769
0.000145377
0.000138918
0.000144354
0.000144373
0.000145464
0.000146
0.000146126
0.000145642
0.000143019
0.000145716
0.000146877
0.000143941
0.000147514
0.000145997
0.000145613
0.000146639
0.000146366
0.000145599
0.000146999
0.000145866
0.000145676
0.000145625
0.000145659
0.000146099
0.000146364
0.000146166
0.000146173
0.000149605
0.000145936
0.000148511
0.000150622
0.000152329
0.000148539
0.00015085
0.00014632
0.000145933
0.000149052
0.000147788
0.000146042
0.000152189
0.000150671
0.000145506
0.000148365
0.000146324
0.000148035
0.000149613
0.000149879
0.000150728
0.000153607
0.000152652
0.000153199
0.00015666
0.000152832
0.000150921
0.000149878
0.000151169
0.000150314
0.000156889
0.000157357
0.000152749
0.000152771
0.000156506
0.000149705
0.000154716
0.000151625
0.000157427
0.000156622
0.000153437
0.000153723
0.000153309
0.000156992
0.000152429
0.000155748
0.000157117
0.000149657
0.000155023
0.000157902
0.000158778
0.000157541
0.000159883
0.000156611
0.000156979
0.000156004
0.000155089
0.000155108
0.000157157
0.000159714
0.000157295
0.000153513
0.000153688
0.000159298
0.000156367
0.000159489
0.000163838
0.000165272
0.000156423
0.00016027
0.000157476
0.000159385
0.00016282
0.000160925
0.000157182
0.000165009
0.000163314
0.000154825
0.000157467
0.000157877
0.000160846
0.000162398
0.000158857
0.000159939
0.000160578
0.000165608
0.000166367
0.00016785
0.00016772
0.000160558
0.000160832
0.000164676
0.00016304
0.000166831
0.00016764
0.000165176
0.000168075
0.000168264
0.000158581
0.000161397
0.000164235
0.000167682
0.000167672
0.000161244
0.000160359
0.000161764
0.000167773
0.00016774
0.000167004
0.000166424
0.000160723
0.000160125
0.000166536
0.000168405
0.000168657
0.000168726
0.000168493
0.000166986
0.000167607
0.000161617
0.000161987
0.000167804
0.000169086
0.000168303
0.000161185
0.00016271
0.000166317
0.000168195
0.000166251
0.000174385
0.000173252
0.000160479
0.000166372
0.000170475
0.000169007
0.000173961
0.000172919
0.000167649
0.000173286
0.000173443
0.000161985
0.00016546
0.000168985
0.000172324
0.000172912
0.000166032
0.000166506
0.000167271
0.000175423
0.000175623
0.000176522
0.000178557
0.00016724
0.000168827
0.000174284
0.000174615
0.00017638
0.000178081
0.000175185
0.00017834
0.000177378
0.000166388
0.00016865
0.00017456
0.000178334
0.000178168
0.000168426
0.00016777
0.000170219
0.000177453
0.000178767
0.000180543
0.000180742
0.000168826
0.000170379
0.000177632
0.000178513
0.000179636
0.000177855
0.00017772
0.000180254
0.000179462
0.000168678
0.000168075
0.000178733
0.000178646
0.000178851
0.000169017
0.00017032
0.00017149
0.000180891
0.000181324
0.000181573
0.000181275
0.000170649
0.000170611
0.000179843
0.000177655
0.000182484
0.000183516
0.000179872
0.000181559
0.000181855
0.000168143
0.000173311
0.000178602
0.000182786
0.000181949
0.000171855
0.000172078
0.000174916
0.000182502
0.00018095
0.000186529
0.000186023
0.000170416
0.000175012
0.0001839
0.000185333
0.000187003
0.000187846
0.000183227
0.000186034
0.000187477
0.000174161
0.000175498
0.00018398
0.000188008
0.000188129
0.000175802
0.000175068
0.000175682
0.000187446
0.000187968
0.000188632
0.000190914
0.000175945
0.000177763
0.000187288
0.000188033
0.000187857
0.000187358
0.000188405
0.000190991
0.00018933
0.000175398
0.000174632
0.000188681
0.000187922
0.000189001
0.000175727
0.000176026
0.000179024
0.000189264
0.000191104
0.000192333
0.000191087
0.0001777
0.000177605
0.000188709
0.000187114
0.000192398
0.000191685
0.000189221
0.000190985
0.000189465
0.000174647
0.000178772
0.00018873
0.000191024
0.000189504
0.000177294
0.000179311
0.000179697
0.000193234
0.000191595
0.000194227
0.000192576
0.000177654
0.000178457
0.000193385
0.000193143
0.000194433
0.000195289
0.00019134
0.000192747
0.000195532
0.000179412
0.000180579
0.000191586
0.000195573
0.000195794
0.000181187
0.000179479
0.000181523
0.000194132
0.00019275
0.00019583
0.000195824
0.000178484
0.000181694
0.000194343
0.000195321
0.000195962
0.00019605
0.000196089
0.00019609
0.000197545
0.000180457
0.000181529
0.000196377
0.000196502
0.000197721
0.000182391
0.000182211
0.0001844
0.000197336
0.000197629
0.000200704
0.000201912
0.000182511
0.000185496
0.000197234
0.000197191
0.000200471
0.000200086
0.000198086
0.00020173
0.000198702
0.000182048
0.000183954
0.000198088
0.000199757
0.000198438
0.000182606
0.000184416
0.000184888
0.000201071
0.000202569
0.000201647
0.000203524
0.000185633
0.000186618
0.000200891
0.000200458
0.000201718
0.000201303
0.000198704
0.000203387
0.000201314
0.000183924
0.000184494
0.000198288
0.000200971
0.000200953
0.000184807
0.000185295
0.000187372
0.000202572
0.000203669
0.000204898
0.000202619
0.000186485
0.000184753
0.000202523
0.000202015
0.00020467
0.000204489
0.000202792
0.000202517
0.000205465
0.000184901
0.000187339
0.000202593
0.000204838
0.000205764
0.000188221
0.000187326
0.000186964
0.000205177
0.000202382
0.000205105
0.000200893
0.000184382
0.000184382
0.000204934
0.000205109
0.000205343
0.00020664
0.000205721
0.000201036
0.000205647
0.000187495
0.000188442
0.000206172
0.000206833
0.000206305
0.000187562
0.00018689
0.000190043
0.000204829
0.000203509
0.000208569
0.000212009
0.000186105
0.000193903
0.000205767
0.000207084
0.000208453
0.000207978
0.000205421
0.000212167
0.000208102
0.000188501
0.000189144
0.000206226
0.000207984
0.000207763
0.000189313
0.000190534
0.000192048
0.000210128
0.000213118
0.00021224
0.000214582
0.000194129
0.000193233
0.000209466
0.000208118
0.000211448
0.000209123
0.000209117
0.000214446
0.00021133
0.000189012
0.000189717
0.000208222
0.000208669
0.000209717
0.000190869
0.000191959
0.000191583
0.000212622
0.00021368
0.000212042
0.000210852
0.000192629
0.000190156
0.000211789
0.000209983
0.000212003
0.000213787
0.000211932
0.000210884
0.000213119
0.000190156
0.000193718
0.000210804
0.000214069
0.00021366
0.000193173
0.000191285
0.00019242
0.000211852
0.000210408
0.000211437
0.000209495
0.000189932
0.000189796
0.000211989
0.000214678
0.000213819
0.000216501
0.000213357
0.000209707
0.000213247
0.000194035
0.00019563
0.000214211
0.0002168
0.000214742
0.000192922
0.000193036
0.000195255
0.000212835
0.000209973
0.000216697
0.000215608
0.000190169
0.000194685
0.000214838
0.000216697
0.000216416
0.000214548
0.000213173
0.000215292
0.000213883
0.000195225
0.000192483
0.000214563
0.000214477
0.000214335
0.000192961
0.000195247
0.000195898
0.000217354
0.000217378
0.000218345
0.000220235
0.000195404
0.000198358
0.000216514
0.000214195
0.000217216
0.000214298
0.000215026
0.000220452
0.000218991
0.000191926
0.000194123
0.000214135
0.000214183
0.000217388
0.000196508
0.000195913
0.000195783
0.000218709
0.000220932
0.000218944
0.00022098
0.000198527
0.000197195
0.000217789
0.00021695
0.000218907
0.000221112
0.000219779
0.000221635
0.000222144
0.00019525
0.000199818
0.000218971
0.000221567
0.000221696
0.000199286
0.000195418
0.000193676
0.000218238
0.000218866
0.000216442
0.000215266
0.00019593
0.000190751
0.000218731
0.000221892
0.000217607
0.000219423
0.000221659
0.000215579
0.000217909
0.000199536
0.000195265
0.000222378
0.000219266
0.000218666
0.000194314
0.000194535
0.000202337
0.000216696
0.00021444
0.000224645
0.0002242
0.000190668
0.000202367
0.000217764
0.000218813
0.000224447
0.000220462
0.000217047
0.000223839
0.000220487
0.000194415
0.000197809
0.000218048
0.000218409
0.000218428
0.000198132
0.000202785
0.000200351
0.000225765
0.000225907
0.000227313
0.000228356
0.000203196
0.00020138
0.000225376
0.00022308
0.000227515
0.000228274
0.000223202
0.000229257
0.000228127
0.000199101
0.000205657
0.000221906
0.000227938
0.000227223
0.000204262
0.000198007
0.00019079
0.000223004
0.000223449
0.000216592
0.000216508
0.000198658
0.000190163
0.000223594
0.000229301
0.000216813
0.000219421
0.00022891
0.000217337
0.000220586
0.0002045
0.000194503
0.000229067
0.000220919
0.00022183
0.000195589
0.000189534
0.000199742
0.000215142
0.000214392
0.000221286
0.000223592
0.000188944
0.00020166
0.000215703
0.000217983
0.0002196
0.000214144
0.000219347
0.000222265
0.000215841
0.000193351
0.000193046
0.000219912
0.000214033
0.000215482
0.000193663
0.000202228
0.000212563
0.000227237
0.000228597
0.000235545
0.000236259
0.000203692
0.000212991
0.000225918
0.000219473
0.000234959
0.000231921
0.000219255
0.00023444
0.000229642
0.000195305
0.000207873
0.000216959
0.000230699
0.0002292
0.000205849
0.000212985
0.000199072
0.000239125
0.000239176
0.000228153
0.00022277
0.000211726
0.000194245
0.000238236
0.000234056
0.000230509
0.000235059
0.000231495
0.00022353
0.000232125
0.000208592
0.000204499
0.000230963
0.000235914
0.000234558
0.000203285
0.000195861
0.000187382
0.00022151
0.000217999
0.000213421
0.000211258
0.000192118
0.000187784
0.000223436
0.00022817
0.000214418
0.000217133
0.000226426
0.00021244
0.000218376
0.000201204
0.000191633
0.000228917
0.000218195
0.000219201
0.000192393
0.000187064
0.000201027
0.000211053
0.000211623
0.000224246
0.000230427
0.000189766
0.00020708
0.000212069
0.000215885
0.000221273
0.000215847
0.000216606
0.00023019
0.000222465
0.000190573
0.000195193
0.000217955
0.000215293
0.00021909
0.00019884
0.000203119
0.000210216
0.000229429
0.000233488
0.000236512
0.00023893
0.000208127
0.000209694
0.00022724
0.000222136
0.000235451
0.000234139
0.000227008
0.000238291
0.000233387
0.000197351
0.000207898
0.000224215
0.00023363
0.000232575
0.000207202
0.000210219
0.000203344
0.00023818
0.000237877
0.000231838
0.000226759
0.000207802
0.000198388
0.000237384
0.000235712
0.000235425
0.000242224
0.000234905
0.000227084
0.000232665
0.000208438
0.000210993
0.000233953
0.000242123
0.000236564
0.000204526
0.000201404
0.000195587
0.000228329
0.000224571
0.000222025
0.000221907
0.000197567
0.000196479
0.000230958
0.000237786
0.000221389
0.000220432
0.000229625
0.000222092
0.000222749
0.000208088
0.000193414
0.00023272
0.000220745
0.00022242
0.000196081
0.000195178
0.000196697
0.000221168
0.000221659
0.000223032
0.000224181
0.000196303
0.000197889
0.000220147
0.000218002
0.000221395
0.00021659
0.000221537
0.00022389
0.000222708
0.000192239
0.000191811
0.000220768
0.000216562
0.000221362
0.000196256
0.000198929
0.000221839
0.000223087
0.000199987
0.000220549
0.000216487
0.000243712
0.000236382
0.000241485
0.000221317
0.0001945
0.00022014
1.18019e-05
2.24323e-06
5.97311e-06
5.51646e-06
5.29207e-07
1.96764e-06
4.9356e-07
2.47358e-06
5.59737e-07
2.76147e-06
1.82901e-06
1.46999e-06
2.29003e-06
1.70914e-06
3.20421e-06
1.02113e-06
1.32208e-05
9.38784e-07
1.501e-05
1.07873e-05
1.298e-05
1.33639e-06
1.35912e-05
1.25783e-06
1.53789e-05
2.82277e-06
3.03937e-06
2.81106e-06
2.94855e-06
2.80441e-06
3.02098e-06
2.78798e-06
5.88724e-07
3.34859e-07
1.3461e-06
1.6253e-06
5.61857e-07
4.4445e-07
1.33579e-06
1.06318e-05
1.29186e-05
5.10224e-07
2.34012e-06
8.92768e-07
3.16832e-06
5.10881e-07
2.37164e-06
1.0871e-06
1.51007e-06
1.40986e-06
2.29034e-06
1.71853e-06
1.60551e-06
1.25636e-06
1.82838e-05
1.19038e-06
2.08713e-05
1.70696e-05
1.91866e-05
1.51973e-06
1.86457e-05
1.45043e-06
2.11719e-05
2.80648e-06
3.02778e-06
2.7814e-06
2.95077e-06