/*--------------------------------*- C++ -*----------------------------------*\
| =========                 |                                                 |
| \\      /  F ield         | OpenFOAM: The Open Source CFD Toolbox           |
|  \\    /   O peration     | Version:  v2012                                 |
|   \\  /    A nd           | Website:  www.openfoam.com                      |
|    \\/     M anipulation  |                                                 |
\*---------------------------------------------------------------------------*/
FoamFile
{
    version     2.0;
    format      ascii;
    class       volScalarField;
    location    "537.5";
    object      p;
}
// * * * * * * * * * * * * * * * * * * * * * * * * * * * * * * * * * * * * * //

dimensions      [0 2 -2 0 0 0 0];


internalField   nonuniform List<scalar> 
171728
(
0.00351869
0.00351759
0.00351772
0.00351841
0.00348319
0.00348167
0.00348176
0.00348459
0.00344481
0.00344293
0.00344288
0.00344525
0.00340071
0.00339903
0.00339919
0.00340122
0.00335254
0.00335115
0.00335103
0.00335346
0.00330365
0.00330235
0.0033024
0.00330471
0.00325546
0.00325424
0.00325429
0.00325663
0.00320817
0.00320711
0.00320708
0.00320945
0.00316186
0.00316091
0.00316099
0.00316329
0.00311648
0.00311563
0.00311563
0.00311806
0.00307205
0.00307133
0.00307134
0.00307371
0.0030284
0.00302781
0.00302782
0.0030302
0.0029853
0.00298486
0.0029848
0.00298712
0.00294257
0.00294225
0.00294222
0.00294452
0.00290022
0.0029
0.00289992
0.00290225
0.00285814
0.00285798
0.00285789
0.00286024
0.00281645
0.00281628
0.00281627
0.00281851
0.00277513
0.00277509
0.00277506
0.00277718
0.0027341
0.00273393
0.00273412
0.00273616
0.00269346
0.00269347
0.0026934
0.00269545
0.0026532
0.00265327
0.00265317
0.00265515
0.00261314
0.00261304
0.00261326
0.00261491
0.00257342
0.00257362
0.00257357
0.00257517
0.00253408
0.00253424
0.00253427
0.00253625
0.00249471
0.00249488
0.00249489
0.0024962
0.00245574
0.00245607
0.00245602
0.00245802
0.00241719
0.00241761
0.00241763
0.00241921
0.00237872
0.00237925
0.00237925
0.0023821
0.00234027
0.00234046
0.00234068
0.00234182
0.0023021
0.00230243
0.00230253
0.00230484
0.00226438
0.00226511
0.00226503
0.00226699
0.0022265
0.00222699
0.00222698
0.00222892
0.00218859
0.0021889
0.00218921
0.00219101
0.00215113
0.0021518
0.00215171
0.00215358
0.00211387
0.00211453
0.00211444
0.00211634
0.00207655
0.00207697
0.00207712
0.0020789
0.00203925
0.00203973
0.00203974
0.00204168
0.00200245
0.00200302
0.00200292
0.00200491
0.00196562
0.00196589
0.00196601
0.00196781
0.00192873
0.00192905
0.00192884
0.0019309
0.00189213
0.00189244
0.00189254
0.00189447
0.00185586
0.00185614
0.00185619
0.00185841
0.0018195
0.00181922
0.00181939
0.00182113
0.00178297
0.00178332
0.00178282
0.00178501
0.00174712
0.00174726
0.00174752
0.00174991
0.00171173
0.00171149
0.00171168
0.00171331
0.00167551
0.00167518
0.00167493
0.00167712
0.00163919
0.0016392
0.00163932
0.0016414
0.00160386
0.00160407
0.00160396
0.00160601
0.00156859
0.00156832
0.00156821
0.00157037
0.00153353
0.00153278
0.00153315
0.00153498
0.00149798
0.00149765
0.00149767
0.00149973
0.00146238
0.00146238
0.00146231
0.00146443
0.00142739
0.00142714
0.00142701
0.00142905
0.00139234
0.00139215
0.00139199
0.00139397
0.0013573
0.0013569
0.00135724
0.00135916
0.00132237
0.001322
0.00132208
0.00132396
0.00128773
0.00128775
0.00128728
0.00128935
0.00125294
0.00125255
0.00125278
0.00125475
0.00121813
0.00121774
0.00121789
0.00121966
0.0011836
0.00118338
0.00118327
0.00118522
0.00114894
0.00114884
0.00114877
0.00115077
0.00111416
0.00111398
0.00111395
0.00111582
0.0010799
0.00107951
0.00107957
0.00108142
0.00104523
0.00104508
0.00104528
0.00104714
0.00101072
0.00101063
0.00101042
0.00101239
0.000976189
0.000975932
0.000975896
0.000977785
0.000941782
0.00094151
0.000941749
0.000943597
0.000907182
0.000907166
0.000907067
0.000909055
0.000872712
0.000872605
0.00087254
0.000874404
0.000838365
0.000838222
0.000838094
0.000840032
0.00080374
0.000803511
0.000803683
0.000805636
0.000769151
0.000768875
0.000769157
0.000770958
0.000734669
0.000734872
0.000734543
0.000736524
0.000700237
0.000700219
0.000699943
0.000702048
0.0006655
0.000665066
0.000665481
0.000667287
0.000630873
0.000630829
0.000631075
0.000632889
0.000596219
0.000596164
0.000595907
0.000597942
0.000561463
0.000561584
0.000561125
0.000563325
0.000526819
0.000526798
0.000527033
0.000528898
0.000491742
0.00049137
0.00049178
0.000493581
0.000456862
0.000456779
0.000456307
0.000458368
0.000422579
0.000422943
0.00042254
0.000424638
0.000386488
0.000386237
0.000386956
0.000388828
0.00035097
0.000351028
0.000350397
0.000352552
0.000317379
0.0003176
0.000317068
0.000319027
0.000282228
0.000281656
0.000282638
0.000284407
0.000245102
0.000244766
0.000245156
0.000247141
0.000209859
0.000210538
0.000209507
0.00021186
0.000176039
0.000176175
0.000175962
0.000178073
0.000140635
0.000139821
0.000141018
0.00014238
0.000104082
0.000104108
0.000103938
0.00010599
6.76912e-05
6.82483e-05
6.71758e-05
6.98225e-05
3.28728e-05
3.21469e-05
3.27769e-05
3.42318e-05
5.52054e-06
6.28375e-06
6.88493e-06
4.66422e-06
0.00352312
0.00352068
0.00352063
0.0035231
0.00352071
0.00352074
0.00352705
0.00352703
0.0035271
0.00352707
0.00352064
0.00352079
0.00352322
0.00352085
0.0035209
0.00352321
0.00351835
0.00348935
0.00351759
0.00351759
0.00349128
0.00349123
0.00351833
0.0034893
0.00351762
0.00351764
0.00349127
0.00349125
0.00351764
0.00349119
0.00349132
0.00351843
0.00348936
0.0035177
0.00349122
0.00349105
0.00348943
0.00348456
0.00345072
0.00348164
0.00348168
0.00345305
0.00345303
0.00348454
0.00345073
0.00348166
0.00348166
0.00345309
0.00345306
0.00348164
0.003453
0.00345304
0.00348458
0.00345073
0.00348188
0.0034531
0.00345303
0.00345075
0.0034452
0.00340741
0.00344288
0.00344289
0.00341048
0.00341047
0.00344523
0.00340744
0.0034429
0.00344286
0.00341051
0.00341052
0.00344284
0.00341046
0.0034105
0.0034452
0.0034074
0.00344327
0.00341045
0.00341056
0.00340737
0.00340124
0.00335989
0.003399
0.00339903
0.00336323
0.00336328
0.00340126
0.00335991
0.00339902
0.00339896
0.00336325
0.00336324
0.003399
0.00336325
0.00336321
0.00340126
0.00335987
0.00339905
0.00336353
0.00336311
0.00335992
0.00335343
0.00331115
0.00335111
0.00335112
0.00331446
0.00331447
0.00335344
0.00331115
0.00335114
0.00335109
0.00331449
0.00331444
0.00335113
0.00331447
0.0033145
0.00335341
0.00331114
0.00335114
0.00331472
0.0033146
0.00331116
0.00330472
0.00326293
0.00330236
0.00330235
0.00326619
0.00326617
0.0033047
0.00326292
0.00330237
0.00330238
0.0032662
0.00326615
0.00330238
0.0032662
0.00326621
0.00330471
0.00326286
0.00330228
0.0032663
0.00326614
0.00326294
0.00325662
0.00321567
0.00325423
0.00325427
0.00321881
0.00321884
0.0032566
0.00321566
0.00325423
0.0032542
0.00321881
0.00321882
0.00325426
0.00321883
0.00321885
0.00325657
0.00321568
0.00325431
0.00321861
0.00321876
0.00321561
0.0032095
0.00316936
0.00320711
0.00320712
0.00317241
0.0031724
0.00320948
0.00316934
0.00320711
0.00320714
0.0031724
0.00317238
0.00320717
0.00317239
0.00317244
0.0032095
0.00316935
0.00320723
0.00317228
0.00317232
0.00316933
0.00316332
0.00312394
0.00316092
0.00316093
0.00312689
0.00312687
0.00316329
0.00312393
0.00316092
0.00316094
0.00312691
0.0031269
0.00316095
0.00312689
0.00312687
0.00316331
0.00312396
0.00316095
0.00312679
0.00312685
0.00312397
0.00311804
0.00307949
0.00311566
0.00311568
0.00308235
0.00308233
0.00311802
0.00307948
0.00311564
0.00311568
0.00308237
0.00308233
0.00311564
0.00308235
0.00308233
0.00311804
0.00307952
0.00311562
0.00308234
0.00308228
0.0030795
0.0030737
0.00303585
0.00307136
0.00307137
0.00303863
0.00303869
0.0030737
0.00303581
0.00307133
0.00307135
0.00303864
0.00303864
0.0030713
0.00303863
0.00303864
0.00307374
0.00303582
0.0030713
0.00303862
0.00303863
0.00303586
0.00303017
0.00299274
0.00302779
0.00302775
0.00299554
0.00299548
0.00303012
0.00299273
0.00302779
0.0030278
0.00299554
0.00299552
0.00302781
0.00299553
0.00299555
0.00303015
0.00299278
0.00302777
0.00299552
0.00299556
0.00299274
0.00298715
0.00295006
0.00298481
0.00298489
0.0029528
0.00295291
0.0029871
0.00295004
0.00298481
0.00298481
0.00295278
0.00295281
0.00298484
0.00295289
0.00295286
0.00298718
0.00295006
0.00298479
0.00295283
0.00295283
0.00295005
0.00294452
0.00290772
0.00294221
0.00294224
0.0029105
0.00291047
0.00294447
0.00290774
0.00294221
0.00294226
0.0029105
0.00291052
0.00294221
0.00291046
0.0029105
0.00294452
0.00290767
0.00294222
0.00291051
0.00291055
0.00290772
0.00290224
0.00286566
0.00289987
0.00290004
0.00286836
0.00286837
0.00290221
0.00286568
0.00289988
0.00289993
0.00286834
0.0028685
0.00289988
0.00286831
0.00286842
0.00290221
0.00286559
0.00289986
0.00286851
0.0028684
0.00286568
0.00286019
0.00282385
0.00285785
0.00285803
0.00282656
0.00282675
0.00286017
0.00282383
0.00285786
0.0028579
0.00282654
0.00282679
0.00285784
0.00282669
0.00282667
0.00286018
0.00282383
0.00285783
0.00282682
0.00282667
0.00282388
0.00281849
0.00278245
0.00281627
0.00281637
0.0027852
0.00278538
0.00281847
0.00278274
0.00281628
0.00281628
0.00278518
0.00278533
0.00281627
0.00278534
0.00278531
0.00281846
0.00278244
0.00281629
0.00278535
0.00278536
0.00278247
0.0027772
0.00274138
0.00277506
0.00277521
0.00274414
0.00274415
0.00277738
0.00274129
0.00277503
0.00277509
0.00274415
0.00274408
0.00277506
0.0027442
0.00274424
0.00277716
0.00274143
0.00277504
0.00274416
0.00274435
0.00274141
0.00273619
0.00270057
0.00273412
0.00273401
0.00270348
0.00270361
0.00273604
0.0027006
0.00273404
0.00273404
0.00270354
0.00270351
0.00273407
0.00270366
0.00270356
0.00273617
0.00270052
0.00273405
0.00270349
0.00270361
0.00270059
0.00269537
0.00266011
0.00269343
0.00269349
0.00266336
0.00266332
0.00269549
0.00266013
0.00269342
0.00269342
0.00266328
0.00266314
0.00269352
0.00266334
0.00266307
0.00269539
0.00266025
0.00269347
0.00266315
0.00266305
0.0026603
0.00265494
0.00262004
0.00265326
0.00265318
0.00262326
0.0026233
0.00265499
0.00262003
0.00265327
0.00265321
0.00262321
0.00262333
0.00265325
0.00262317
0.00262314
0.00265508
0.00261998
0.00265313
0.00262337
0.00262315
0.00262001
0.00261492
0.00258024
0.00261327
0.00261314
0.00258344
0.00258336
0.00261489
0.00258011
0.00261324
0.00261325
0.00258352
0.00258352
0.00261314
0.0025835
0.00258359
0.00261493
0.00258021
0.0026131
0.00258353
0.00258356
0.00258021
0.00257525
0.00254095
0.00257363
0.00257361
0.00254411
0.00254412
0.00257511
0.00254098
0.00257366
0.0025736
0.00254405
0.00254405
0.00257371
0.00254411
0.00254402
0.00257519
0.00254086
0.00257364
0.0025441
0.00254402
0.00254102
0.00253597
0.00250157
0.00253435
0.00253425
0.00250471
0.00250475
0.00253597
0.00250157
0.00253432
0.00253426
0.00250473
0.00250481
0.00253434
0.00250472
0.00250474
0.00253589
0.00250159
0.00253429
0.00250478
0.00250472
0.00250137
0.00249658
0.00246283
0.00249493
0.00249494
0.00246586
0.0024658
0.00249657
0.00246274
0.00249494
0.00249493
0.00246586
0.00246574
0.00249477
0.00246578
0.00246554
0.00249654
0.00246266
0.00249473
0.00246568
0.00246542
0.00246248
0.00245788
0.00242406
0.00245615
0.0024561
0.0024271
0.00242715
0.00245777
0.00242425
0.00245614
0.00245606
0.00242713
0.00242715
0.00245613
0.00242715
0.00242709
0.00245777
0.00242421
0.00245605
0.00242714
0.0024271
0.00242416
0.00241925
0.00238601
0.00241754
0.0024176
0.0023888
0.0023888
0.00241941
0.00238597
0.00241753
0.00241759
0.0023888
0.00238889
0.00241751
0.00238882
0.00238903
0.00241932
0.00238613
0.00241761
0.00238895
0.00238901
0.00238704
0.00238096
0.00234749
0.00237914
0.00237926
0.00235038
0.00235022
0.00238105
0.00234777
0.00237914
0.0023793
0.00235041
0.00235036
0.0023793
0.00235016
0.00235025
0.00238121
0.00234759
0.00237923
0.00235032
0.00235012
0.00234697
0.00234269
0.00230951
0.00234078
0.00234054
0.00231202
0.002312
0.00234278
0.00230907
0.00234082
0.00234074
0.00231208
0.00231197
0.00234047
0.00231192
0.0023119
0.00234262
0.00230921
0.00234035
0.00231199
0.00231172
0.00230946
0.00230454
0.00227156
0.00230254
0.00230247
0.00227437
0.0022746
0.00230407
0.00227242
0.00230259
0.0023025
0.00227433
0.00227438
0.00230246
0.00227461
0.00227434
0.00230432
0.00227177
0.00230235
0.00227442
0.00227459
0.00227197
0.00226675
0.00223398
0.00226499
0.0022651
0.00223666
0.00223654
0.00226772
0.00223412
0.00226493
0.00226499
0.00223661
0.00223659
0.00226495
0.00223652
0.00223671
0.00226691
0.00223391
0.00226513
0.00223648
0.00223651
0.00223382
0.00222902
0.00219595
0.00222713
0.00222705
0.00219856
0.00219849
0.00222911
0.0021956
0.00222712
0.00222709
0.00219864
0.00219863
0.00222721
0.00219836
0.00219854
0.00222897
0.00219597
0.00222698
0.00219864
0.00219852
0.00219596
0.00219102
0.0021584
0.00218911
0.00218902
0.002161
0.00216099
0.00219063
0.00215852
0.00218919
0.00218918
0.00216102
0.00216102
0.00218905
0.00216098
0.00216098
0.00219105
0.00215842
0.0021891
0.00216104
0.00216102
0.00215843
0.00215353
0.00212119
0.0021517
0.00215175
0.00212382
0.00212385
0.00215377
0.00212124
0.00215169
0.00215168
0.00212379
0.00212378
0.00215173
0.00212396
0.00212387
0.00215355
0.00212116
0.00215172
0.00212376
0.00212381
0.00212123
0.00211632
0.00208386
0.00211449
0.0021145
0.00208645
0.0020864
0.00211631
0.0020838
0.00211447
0.00211447
0.00208646
0.00208647
0.00211452
0.00208635
0.00208644
0.00211629
0.00208389
0.00211447
0.0020865
0.00208642
0.00208382
0.00207894
0.00204656
0.00207709
0.00207701
0.00204904
0.00204902
0.0020789
0.00204653
0.0020771
0.0020771
0.00204905
0.00204906
0.00207705
0.00204898
0.00204894
0.00207897
0.00204652
0.00207704
0.00204902
0.00204901
0.0020465
0.00204169
0.0020096
0.00203975
0.00203977
0.00201208
0.00201219
0.00204168
0.00200971
0.00203976
0.00203977
0.00201207
0.00201206
0.00203971
0.00201221
0.00201224
0.00204165
0.00200965
0.00203978
0.00201207
0.00201223
0.00200979
0.00200477
0.00197284
0.00200288
0.00200298
0.00197527
0.00197515
0.00200481
0.00197272
0.00200288
0.0020029
0.00197527
0.00197532
0.00200304
0.00197515
0.00197521
0.00200484
0.00197282
0.00200304
0.00197535
0.0019752
0.00197267
0.00196796
0.00193582
0.00196604
0.00196588
0.00193824
0.00193827
0.00196788
0.00193587
0.00196604
0.00196602
0.00193823
0.00193807
0.00196592
0.00193827
0.00193814
0.00196788
0.00193569
0.0019659
0.00193805
0.00193815
0.00193579
0.00193097
0.0018992
0.001929
0.00192907
0.00190147
0.00190152
0.00193098
0.00189927
0.00192898
0.00192886
0.00190149
0.0019016
0.00192891
0.0019015
0.00190147
0.00193087
0.00189937
0.00192893
0.00190157
0.0019014
0.00189922
0.00189437
0.00186297
0.00189235
0.00189244
0.00186523
0.00186529
0.00189451
0.00186293
0.00189237
0.00189258
0.0018652
0.00186527
0.0018924
0.00186533
0.00186539
0.00189459
0.00186289
0.00189235
0.00186532
0.00186556
0.00186324
0.00185817
0.00182633
0.00185619
0.00185609
0.00182868
0.00182834
0.00185799
0.00182617
0.00185616
0.00185606
0.0018287
0.00182857
0.0018564
0.00182835
0.00182855
0.00185803
0.0018263
0.0018566
0.00182864
0.00182836
0.00182603
0.00182144
0.00178993
0.00181943
0.00181924
0.00179203
0.00179237
0.00182141
0.00179017
0.00181947
0.00181947
0.00179204
0.00179205
0.00181917
0.00179227
0.00179178
0.00182145
0.00178978
0.00181888
0.00179184
0.00179171
0.0017897
0.00178516
0.00175422
0.00178305
0.00178337
0.00175635
0.00175624
0.00178532
0.00175403
0.00178304
0.00178295
0.00175628
0.00175616
0.00178294
0.00175631
0.00175654
0.00178496
0.0017542
0.001783
0.00175625
0.00175691
0.00175464
0.00174942
0.00171805
0.0017474
0.00174716
0.00172022
0.00172027
0.00174925
0.00171816
0.00174735
0.00174737
0.00172033
0.00172072
0.00174763
0.00172033
0.00172061
0.00174954
0.00171848
0.00174797
0.00172092
0.00172045
0.00171822
0.00171332
0.00168238
0.00171124
0.00171142
0.00168449
0.00168439
0.00171342
0.00168219
0.00171133
0.00171159
0.00168449
0.00168409
0.00171146
0.00168433
0.00168412
0.00171355
0.00168192
0.00171109
0.00168396
0.00168382
0.00168189
0.00167756
0.00164627
0.00167552
0.00167522
0.00164837
0.00164806
0.00167734
0.00164609
0.00167549
0.00167508
0.00164834
0.00164827
0.00167514
0.00164802
0.00164825
0.00167713
0.0016462
0.00167496
0.0016482
0.00164832
0.00164619
0.0016414
0.00161025
0.00163929
0.00163921
0.00161222
0.00161281
0.00164136
0.00161077
0.00163927
0.00163939
0.0016123
0.00161275
0.00163927
0.00161289
0.00161253
0.00164144
0.0016107
0.00163942
0.00161282
0.00161277
0.0016107
0.00160557
0.00157533
0.00160341
0.00160399
0.00157738
0.00157733
0.00160605
0.00157509
0.00160347
0.00160382
0.0015773
0.00157694
0.00160374
0.00157734
0.00157735
0.00160592
0.00157499
0.00160394
0.00157707
0.00157721
0.00157515
0.00157062
0.00153985
0.00156867
0.00156828
0.00154207
0.00154169
0.00157033
0.00153966
0.00156856
0.00156818
0.00154208
0.00154204
0.00156848
0.00154158
0.00154185
0.00157029
0.00153994
0.00156821
0.0015419
0.00154174
0.0015397
0.00153509
0.00150434
0.00153309
0.00153286
0.0015063
0.00150639
0.00153492
0.00150438
0.00153312
0.00153327
0.00150639
0.00150658
0.00153298
0.00150644
0.00150643
0.00153521
0.00150444
0.00153298
0.00150659
0.00150657
0.00150446
0.0014996
0.00146914
0.00149751
0.00149756
0.00147114
0.00147114
0.00149964
0.00146916
0.00149758
0.00149762
0.00147116
0.00147104
0.00149762
0.00147121
0.00147121
0.00149967
0.0014691
0.00149776
0.00147112
0.00147123
0.00146917
0.00146442
0.00143383
0.00146235
0.00146234
0.00143602
0.001436
0.00146441
0.00143385
0.00146235
0.00146227
0.00143596
0.00143589
0.00146241
0.00143595
0.00143589
0.00146437
0.00143377
0.00146239
0.00143584
0.00143584
0.0014338
0.00142907
0.00139862
0.00142714
0.00142717
0.00140064
0.00140084
0.00142912
0.0013988
0.00142708
0.00142705
0.00140061
0.00140066
0.00142704
0.00140084
0.00140069
0.00142903
0.00139864
0.001427
0.00140069
0.00140068
0.00139865
0.00139394
0.00136387
0.00139195
0.00139216
0.00136594
0.00136577
0.00139409
0.00136367
0.00139191
0.00139196
0.00136588
0.00136595
0.00139199
0.00136576
0.00136597
0.00139395
0.00136392
0.00139197
0.00136596
0.00136591
0.00136388
0.00135915
0.00132869
0.00135719
0.0013569
0.00133069
0.0013306
0.00135893
0.00132861
0.0013572
0.00135724
0.00133087
0.0013309
0.0013572
0.00133061
0.00133069
0.00135922
0.0013288
0.0013572
0.00133088
0.00133085
0.00132869
0.00132397
0.00129398
0.00132192
0.00132199
0.00129606
0.00129635
0.00132395
0.00129427
0.00132208
0.0013221
0.00129596
0.00129592
0.00132191
0.00129635
0.00129605
0.00132408
0.00129385
0.00132206
0.00129592
0.00129597
0.00129398
0.00128934
0.00125949
0.00128751
0.00128773
0.00126161
0.00126138
0.00128961
0.00125932
0.00128733
0.00128726
0.00126149
0.00126139
0.00128751
0.00126138
0.0012616
0.00128916
0.00125938
0.00128736
0.00126141
0.00126149
0.00125948
0.00125477
0.00122434
0.00125284
0.00125254
0.00122633
0.00122635
0.00125459
0.0012243
0.00125286
0.00125277
0.00122648
0.00122665
0.00125281
0.00122636
0.00122641
0.00125473
0.00122455
0.00125278
0.00122665
0.00122653
0.00122437
0.00121964
0.00118994
0.00121764
0.00121773
0.00119194
0.00119202
0.00121961
0.0011899
0.00121779
0.00121789
0.00119201
0.00119189
0.00121769
0.001192
0.00119189
0.00121982
0.00118985
0.00121781
0.00119188
0.00119194
0.00118986
0.00118531
0.00115543
0.00118342
0.00118342
0.00115757
0.00115751
0.00118525
0.00115553
0.00118343
0.0011833
0.00115743
0.00115744
0.00118334
0.00115748
0.00115753
0.0011852
0.00115538
0.00118335
0.00115742
0.00115743
0.00115546
0.0011507
0.00112053
0.00114881
0.00114886
0.00112257
0.00112268
0.00115084
0.0011206
0.00114865
0.00114876
0.00112257
0.00112258
0.00114885
0.0011227
0.00112262
0.00115068
0.00112053
0.00114873
0.00112265
0.00112264
0.00112054
0.00111583
0.00108614
0.00111392
0.00111397
0.0010882
0.00108806
0.00111586
0.00108603
0.00111398
0.0011139
0.00108826
0.00108818
0.0011139
0.00108808
0.00108811
0.00111584
0.00108612
0.00111397
0.00108815
0.00108811
0.00108606
0.00108149
0.00105174
0.00107961
0.00107949
0.0010537
0.00105369
0.00108138
0.00105167
0.00107964
0.00107963
0.00105378
0.0010539
0.00107957
0.00105371
0.00105381
0.00108147
0.00105189
0.00107954
0.00105388
0.00105384
0.00105182
0.00104705
0.00101712
0.00104507
0.00104508
0.00101921
0.00101926
0.001047
0.00101725
0.00104515
0.00104526
0.00101913
0.00101908
0.00104516
0.00101924
0.00101919
0.00104722
0.00101702
0.00104524
0.00101914
0.00101918
0.00101711
0.00101242
0.000982557
0.00101058
0.00101066
0.000984621
0.000984639
0.00101258
0.000982539
0.00101044
0.00101038
0.000984562
0.000984506
0.00101051
0.000984622
0.000984544
0.0010123
0.000982467
0.00101044
0.000984466
0.000984467
0.000982459
0.000977888
0.000948234
0.000975993
0.000975954
0.000950193
0.000950084
0.000977824
0.000948076
0.000976008
0.000975953
0.000950313
0.000950344
0.000975922
0.000950075
0.000950165
0.000977814
0.000948355
0.000975896
0.00095031
0.000950261
0.000948232
0.000943554
0.000913634
0.000941588
0.000941506
0.000915671
0.000915731
0.000943425
0.000913763
0.000941685
0.000941736
0.000915641
0.000915689
0.000941617
0.000915798
0.00091585
0.000943692
0.000913661
0.000941722
0.000915765
0.000915819
0.000913786
0.00090893
0.000879202
0.000907024
0.000907108
0.000881206
0.000881257
0.000909059
0.000879229
0.000906981
0.000907022
0.000881164
0.000881173
0.000907162
0.000881201
0.000881148
0.000908944
0.00087914
0.000907108
0.000881126
0.0008811
0.000879095
0.000874542
0.000844804
0.000872634
0.000872662
0.000846848
0.000846889
0.000874558
0.000844821
0.000872602
0.000872586
0.000846828
0.000846762
0.000872513
0.000846845
0.00084668
0.00087447
0.000844737
0.000872475
0.000846725
0.000846659
0.000844693
0.000840099
0.000810206
0.000838188
0.000838236
0.000812194
0.000812151
0.000840119
0.000810162
0.000838182
0.000838104
0.000812265
0.000812225
0.000838092
0.000812211
0.000812323
0.000840039
0.000810266
0.000838081
0.000812279
0.000812396
0.000810344
0.000805496
0.000775684
0.000803556
0.000803456
0.000777682
0.000777488
0.000805432
0.00077552
0.000803624
0.000803631
0.000777695
0.000777814
0.000803708
0.000777486
0.000777709
0.000805582
0.000775791
0.000803785
0.000777824
0.000777736
0.000775682
0.000770978
0.000741243
0.000769038
0.000768889
0.000743201
0.000743376
0.000770839
0.000741401
0.00076904
0.000769163
0.00074318
0.000743206
0.00076901
0.000743369
0.000743154
0.000771074
0.000741209
0.000769016
0.000743184
0.000743117
0.000741187
0.000736572
0.000706811
0.000734633
0.000734874
0.000708836
0.000709083
0.000736756
0.000706995
0.000734592
0.000734563
0.000708773
0.000708618
0.000734602
0.000709079
0.000708834
0.000736508
0.000706619
0.00073454
0.000708597
0.000708745
0.000706785
0.000702082
0.000671962
0.000700171
0.000700231
0.000673984
0.000673736
0.000702153
0.00067174
0.000700123
0.000699961
0.00067404
0.000674066
0.000700146
0.000673726
0.000673967
0.000701898
0.00067208
0.000700091
0.000674075
0.000674044
0.000671987
0.00066724
0.000637477
0.000665295
0.000665072
0.000639398
0.00063935
0.000667037
0.000637426
0.000665372
0.000665462
0.000639489
0.00063969
0.000665312
0.00063939
0.000639536
0.000667396
0.000637727
0.000665413
0.000639743
0.000639643
0.000637605
0.000632779
0.000602866
0.00063077
0.000630786
0.000604867
0.000604887
0.000632745
0.000602887
0.000630857
0.000631031
0.000604846
0.000604761
0.000630896
0.000604863
0.000604739
0.000633
0.0006027
0.000630982
0.000604725
0.000604698
0.000602714
0.000598115
0.000568071
0.000596201
0.000596206
0.000570163
0.000570262
0.000598147
0.000568276
0.00059613
0.000595962
0.000569985
0.000569753
0.000596009
0.000570229
0.000570061
0.000597896
0.000567759
0.000595923
0.000569714
0.000569896
0.000568013
0.000563325
0.000533423
0.000561444
0.000561588
0.000535376
0.000535503
0.00056355
0.000533485
0.000561294
0.000561132
0.000535422
0.000535556
0.000561455
0.000535553
0.000535578
0.00056309
0.000533637
0.000561315
0.0005356
0.000535612
0.000533617
0.000528704
0.00049842
0.00052669
0.000526753
0.000500395
0.000500228
0.000528707
0.000498189
0.000526792
0.000526982
0.000500553
0.000500774
0.00052688
0.00050024
0.000500443
0.000528948
0.000498649
0.000526991
0.000500804
0.000500627
0.000498449
0.000493589
0.000463438
0.000491572
0.000491373
0.00046542
0.000465246
0.000493353
0.000463343
0.000491699
0.000491775
0.000465373
0.000465114
0.000491553
0.000465169
0.000465078
0.000493738
0.000463047
0.000491681
0.000465038
0.000465022
0.000463051
0.000458766
0.000429383
0.000456894
0.000456866
0.000431395
0.000431602
0.00045876
0.000429689
0.000456773
0.000456427
0.00043121
0.000431028
0.000456491
0.000431554
0.000431202
0.000458313
0.000429113
0.000456329
0.000430989
0.000431021
0.000429241
0.000424617
0.000393333
0.000422653
0.00042294
0.000395402
0.000395314
0.000424936
0.000393224
0.000422533
0.000422526
0.000395541
0.000396018
0.000422714
0.000395436
0.000395957
0.000424488
0.000393914
0.000422571
0.000396242
0.000396222
0.000393878
0.000388338
0.000357643
0.000386276
0.000386142
0.000359545
0.000359472
0.00038822
0.000357599
0.000386449
0.000386791
0.000359527
0.00035935
0.000386727
0.000359416
0.000359419
0.000388858
0.000357253
0.000386969
0.000359323
0.000359432
0.00035734
0.000353011
0.000324159
0.000351104
0.000351146
0.000326025
0.000326173
0.000353032
0.000324295
0.000350989
0.000350542
0.000325854
0.000325525
0.000350648
0.000326006
0.000325455
0.000352464
0.000323624
0.0003505
0.000325341
0.000325258
0.000323555
0.000319627
0.000288861
0.000317639
0.000317751
0.000291027
0.000290802
0.00031971
0.000288642
0.000317502
0.000317205
0.000291239
0.000291579
0.000317102
0.000290927
0.000291415
0.00031909
0.000289467
0.000316972
0.000291695
0.000291599
0.000289389
0.000283785
0.000251655
0.000281681
0.00028148
0.000253904
0.000253785
0.000283611
0.000251573
0.000281943
0.000282436
0.000254029
0.000254361
0.000282381
0.000253938
0.000254427
0.000284455
0.00025218
0.000282631
0.000254498
0.000254543
0.000252234
0.000246581
0.00021685
0.000244652
0.000244671
0.000218653
0.000219043
0.000246607
0.000217191
0.000244722
0.000245037
0.000218414
0.000218067
0.000245129
0.00021894
0.000218292
0.000247071
0.000216285
0.000245207
0.000217973
0.000218066
0.000216441
0.000212293
0.000183131
0.000210364
0.000210659
0.000185014
0.000185106
0.000212566
0.000183157
0.000210113
0.00020965
0.000184862
0.000184521
0.00020989
0.000185016
0.000184626
0.000211684
0.000182642
0.000209611
0.000184396
0.000184468
0.000182727
0.00017841
0.000147087
0.000176351
0.000176233
0.000149182
0.000148751
0.000178283
0.000146656
0.000176325
0.000176069
0.000149525
0.00014999
0.000176054
0.000148827
0.000149432
0.000178044
0.000147778
0.00017602
0.000150077
0.000149772
0.000147355
0.000142088
0.000110738
0.000140021
0.000139733
0.000112874
0.000112908
0.000141741
0.000110848
0.000140325
0.000140897
0.000112944
0.000113146
0.000140337
0.000112977
0.000113118
0.000142789
0.000110993
0.000140674
0.000113216
0.000113185
0.000110994
0.000105753
7.49441e-05
0.000103858
0.000104064
7.70034e-05
7.74351e-05
0.000105998
7.53704e-05
0.000103779
0.000103894
7.66561e-05
7.60975e-05
0.000104041
7.73119e-05
7.68664e-05
0.000105908
7.41693e-05
0.000104011
7.60533e-05
7.65216e-05
7.47802e-05
7.00053e-05
3.9206e-05
6.80806e-05
6.83036e-05
4.11012e-05
4.09625e-05
7.03374e-05
3.89793e-05
6.77954e-05
6.724e-05
4.12077e-05
4.13186e-05
6.78899e-05
4.09213e-05
4.10078e-05
6.93237e-05
3.94122e-05
6.7597e-05
4.12814e-05
4.11087e-05
3.91221e-05
3.42957e-05
7.68906e-06
3.23279e-05
3.21675e-05
1.05809e-05
1.04495e-05
3.40436e-05
7.47988e-06
3.2509e-05
3.28006e-05
1.08092e-05
1.12825e-05
3.22746e-05
1.04755e-05
1.06273e-05
3.45913e-05
8.22399e-06
3.24511e-05
1.12994e-05
1.08495e-05
7.73616e-06
4.61141e-06
6.37467e-06
6.23589e-06
4.44524e-06
6.51897e-06
6.84089e-06
5.34912e-06
5.78406e-06
5.56474e-06
6.4278e-06
4.96331e-06
6.56989e-06
0.00353017
0.00353272
0.00353142
0.00353163
0.00355914
0.00353261
0.00356218
0.00353285
0.00355924
0.00353279
0.003533
0.00356242
0.00354377
0.00356554
0.00356544
0.00350287
0.00351637
0.00352029
0.00349501
0.00349309
0.00349841
0.00350279
0.00351633
0.00352021
0.00349508
0.00351868
0.00351871
0.00351869
0.00349226
0.00349229
0.00349224
0.00349228
0.00350246
0.00351402
0.00351928
0.00351002
0.00352137
0.00349945
0.00351028
0.00349327
0.00349852
0.00350251
0.00351932
0.0035143
0.00350996
0.00352153
0.0035103
0.00349959
0.00352019
0.00352008
0.00350722
0.00349947
0.0034993
0.00347527
0.00348946
0.00348929
0.00347329
0.00348666
0.0034723
0.00347519
0.00348943
0.00348928
0.00347327
0.00348324
0.00348315
0.00348314
0.00345486
0.00345494
0.00345479
0.00345478
0.00347307
0.003488
0.00348168
0.0034723
0.0034864
0.00347352
0.00347221
0.00348659
0.00347226
0.00347303
0.0034817
0.00348804
0.00347243
0.00348638
0.00347229
0.00347344
0.00348968
0.00348965
0.00347077
0.00347403
0.00347411
0.00343277
0.00344749
0.00344839
0.00343142
0.00344643
0.00343052
0.00343276
0.00344745
0.00344833
0.00343141
0.00344486
0.00344472
0.00344474
0.00341225
0.00341229
0.00341218
0.00341218
0.00343155
0.00344706
0.00344287
0.00343249
0.00344598
0.00343193
0.0034324
0.00344629
0.00343051
0.00343148
0.00344292
0.00344696
0.00343254
0.00344599
0.00343245
0.00343196
0.00344775
0.00344748
0.00342975
0.00343177
0.00343241
0.00338643
0.0034028
0.00340432
0.00338502
0.00340212
0.00338446
0.0033864
0.00340276
0.00340423
0.00338499
0.00340073
0.00340065
0.00340066
0.00336475
0.00336478
0.00336471
0.0033647
0.00338563
0.00340265
0.00339897
0.00338729
0.00340209
0.0033857
0.00338727
0.00340212
0.00338439
0.00338558
0.00339906
0.0034028
0.00338718
0.00340207
0.00338727
0.00338549
0.00340291
0.0034028
0.00338395
0.00338511
0.00338518
0.00333745
0.00335458
0.0033559
0.00333623
0.00335418
0.00333594
0.00333741
0.00335457
0.00335594
0.00333624
0.00335257
0.00335251
0.00335251
0.00331583
0.00331585
0.00331581
0.00331583
0.00333707
0.00335463
0.00335111
0.00333887
0.00335423
0.00333696
0.00333889
0.00335414
0.00333591
0.00333703
0.00335109
0.0033543
0.00333861
0.0033542
0.0033388
0.00333718
0.00335462
0.00335476
0.00333556
0.00333636
0.00333638
0.00328832
0.00330564
0.00330664
0.00328745
0.00330535
0.00328722
0.00328835
0.00330562
0.00330664
0.00328745
0.00330367
0.00330365
0.00330365
0.00326743
0.00326744
0.00326741
0.0032674
0.00328831
0.00330566
0.00330236
0.00329025