/*--------------------------------*- C++ -*----------------------------------*\
| =========                 |                                                 |
| \\      /  F ield         | OpenFOAM: The Open Source CFD Toolbox           |
|  \\    /   O peration     | Version:  v2006                                 |
|   \\  /    A nd           | Website:  www.openfoam.com                      |
|    \\/     M anipulation  |                                                 |
\*---------------------------------------------------------------------------*/
FoamFile
{
    version     2.0;
    format      ascii;
    class       volScalarField;
    location    "875";
    object      epsilon;
}
// * * * * * * * * * * * * * * * * * * * * * * * * * * * * * * * * * * * * * //

dimensions      [0 2 -3 0 0 0 0];


internalField   nonuniform List<scalar> 
14404
(
1.19081e-06
1.1905e-06
1.4227e-06
6.61771e-07
1.90969e-05
3.64922e-06
9.56721e-06
4.23804e-06
9.38462e-07
3.64886e-06
2.2975e-06
5.65132e-06
5.65054e-06
1.90963e-05
9.56901e-06
7.23975e-06
2.27701e-05
1.12475e-05
4.88287e-06
1.2659e-05
2.97858e-06
9.93714e-06
4.71187e-06
4.70814e-06
2.97783e-06
9.93325e-06
5.65109e-06
2.97831e-06
4.70624e-06
9.93809e-06
2.24075e-05
2.24084e-05
9.96442e-06
1.91022e-05
9.571e-06
7.24308e-06
2.83287e-06
1.9732e-06
1.97319e-06
1.42137e-06
1.97279e-06
2.83227e-06
1.97281e-06
4.52274e-07
1.84773e-06
2.22785e-06
3.64917e-06
2.22751e-06
3.02489e-06
2.22771e-06
3.02411e-06
1.84839e-06
1.54797e-06
2.5426e-06
1.66956e-06
4.23966e-06
9.57615e-06
9.57807e-06
1.9114e-05
1.91175e-05
1.42258e-06
5.65579e-06
5.65785e-06
2.29821e-06
1.19153e-06
3.65042e-06
9.39452e-07
1.19142e-06
3.65115e-06
1.26637e-05
4.23872e-06
1.12551e-05
4.8859e-06
1.12514e-05
4.88441e-06
1.26687e-05
2.2781e-05
7.24777e-06
9.57078e-06
7.24525e-06
2.27932e-05
9.57283e-06
1.91034e-05
1.91045e-05
1.91082e-05
9.98632e-06
2.24482e-05
2.24477e-05
2.24389e-05
2.24384e-05
9.99101e-06
4.71453e-06
9.94937e-06
5.65385e-06
2.98156e-06
9.94356e-06
4.71619e-06
2.98048e-06
4.7205e-06
9.95468e-06
5.65599e-06
2.98281e-06
9.94889e-06
4.72208e-06
2.98172e-06
2.27785e-05
9.56953e-06
7.24036e-06
1.26626e-05
4.23816e-06
1.12504e-05
4.88307e-06
4.71377e-06
5.65182e-06
9.94206e-06
2.97906e-06
9.97015e-06
2.24244e-05
2.24252e-05
2.83638e-06
1.42388e-06
1.97441e-06
1.97465e-06
2.83692e-06
1.97471e-06
1.97494e-06
1.67017e-06
2.2979e-06
2.54377e-06
1.54775e-06
2.54318e-06
1.54856e-06
1.66893e-06
1.84911e-06
3.02558e-06
3.64961e-06
2.22822e-06
3.02521e-06
2.22835e-06
1.84814e-06
3.65036e-06
2.22863e-06
2.22876e-06
1.84728e-06
3.64881e-06
3.02388e-06
2.22738e-06
1.66823e-06
2.29744e-06
1.54712e-06
2.54252e-06
1.38408e-06
1.14859e-06
1.14859e-06
1.38716e-06
1.15079e-06
5.92745e-07
9.46713e-06
1.89041e-05
1.88849e-05
1.89066e-05
1.88873e-05
1.38326e-06
5.61158e-06
5.61262e-06
5.60466e-06
5.60602e-06
4.2067e-06
9.46388e-06
9.45146e-06
4.21043e-06
4.20662e-06
9.45175e-06
4.21042e-06
2.27155e-06
1.1465e-06
3.62063e-06
8.82715e-07
3.61675e-06
8.80154e-07
2.27407e-06
2.27149e-06
1.14648e-06
8.82642e-07
3.61729e-06
8.80079e-07
2.27403e-06
1.8888e-05
1.38331e-06
5.60675e-06
5.60513e-06
1.88863e-05
4.20715e-06
9.46485e-06
9.45276e-06
4.21011e-06
2.27185e-06
1.14645e-06
3.62109e-06
8.82754e-07
3.61751e-06
8.80197e-07
2.27392e-06
4.20724e-06
9.45256e-06
4.20981e-06
2.27185e-06
1.14664e-06
8.82749e-07
8.80269e-07
3.6175e-06
2.27381e-06
2.27207e-06
1.14649e-06
3.61716e-06
8.80258e-07
4.20728e-06
9.45244e-06
2.27208e-06
1.14666e-06
8.80383e-07
3.61709e-06
4.20722e-06
9.45179e-06
1.88863e-05
1.38348e-06
5.60547e-06
5.60406e-06
1.88843e-05
2.27246e-06
1.14669e-06
8.80441e-07
3.61741e-06
2.27244e-06
1.14654e-06
8.80431e-07
3.61774e-06
4.2079e-06
9.45284e-06
4.20778e-06
9.45283e-06
1.38341e-06
5.60275e-06
5.60445e-06
1.88815e-05
1.88836e-05
1.89054e-05
1.8908e-05
5.61381e-06
5.61488e-06
3.62328e-06
2.25203e-05
7.19091e-06
7.1904e-06
2.25281e-05
2.25592e-05
7.20338e-06
9.47059e-06
2.2553e-05
7.20407e-06
1.88968e-05
1.88938e-05
1.88993e-05
1.88963e-05
9.90953e-06
2.21984e-05
2.22008e-05
9.90628e-06
2.22075e-05
2.22095e-05
4.68201e-06
2.95851e-06
5.61019e-06
9.83189e-06
9.8281e-06
2.9576e-06
4.68222e-06
4.68556e-06
2.95993e-06
5.61124e-06
9.83554e-06
9.8316e-06
2.95917e-06
4.68592e-06
4.6801e-06
9.81959e-06
2.95477e-06
5.60678e-06
4.67884e-06
9.8254e-06
2.956e-06
4.68345e-06
9.82289e-06
2.95672e-06
5.60793e-06
4.68199e-06
9.8288e-06
2.95779e-06
9.91351e-06
2.22111e-05
2.22128e-05
2.22079e-05
2.22097e-05
9.9143e-06
1.25177e-05
1.11138e-05
4.85042e-06
4.20777e-06
1.25133e-05
1.11174e-05
4.8518e-06
2.25435e-05
9.45913e-06
7.20085e-06
2.25528e-05
7.19934e-06
2.25409e-05
7.19341e-06
9.45632e-06
2.25302e-05
7.19541e-06
1.25198e-05
4.20898e-06
1.11232e-05
4.85512e-06
1.25246e-05
1.11191e-05
4.85343e-06
1.25183e-05
1.11137e-05
4.85025e-06
4.20773e-06
1.25138e-05
1.11173e-05
4.85178e-06
2.2543e-05
7.19254e-06
9.45693e-06
2.2532e-05
7.19472e-06
1.25204e-05
4.20894e-06
1.11232e-05
4.85516e-06
1.11191e-05
4.85339e-06
1.25252e-05
1.88975e-05
9.91119e-06
2.22019e-05
2.22019e-05
9.90775e-06
2.22109e-05
2.22109e-05
4.68513e-06
9.82405e-06
2.95662e-06
5.6086e-06
2.95775e-06
4.68381e-06
9.83014e-06
4.68026e-06
9.82054e-06
2.95545e-06
5.60716e-06
4.67876e-06
9.82632e-06
2.95675e-06
1.88952e-05
1.25177e-05
4.85068e-06
1.11142e-05
4.20793e-06
1.25136e-05
4.8519e-06
1.11174e-05
2.25427e-05
9.46003e-06
7.20059e-06
2.2552e-05
7.19902e-06
2.25402e-05
7.19352e-06
9.45727e-06
2.25302e-05
7.19529e-06
1.25196e-05
4.20892e-06
4.8548e-06
1.11228e-05
1.25242e-05
4.85325e-06
1.1119e-05
1.25174e-05
1.1114e-05
4.85061e-06
4.20763e-06
1.25136e-05
1.11172e-05
4.85119e-06
2.25384e-05
7.19169e-06
9.45591e-06
2.25294e-05
7.19288e-06
1.25191e-05
4.20892e-06
1.11224e-05
4.85395e-06
1.11187e-05
4.85284e-06
1.25236e-05
1.25174e-05
4.85095e-06
1.11145e-05
4.2079e-06
1.25134e-05
4.85163e-06
1.11175e-05
2.25396e-05
7.19367e-06
9.45689e-06
2.25295e-05
7.19494e-06
1.25163e-05
1.11142e-05
4.85043e-06
4.20758e-06
1.25132e-05
1.11169e-05
4.85071e-06
2.2534e-05
7.19069e-06
9.45381e-06
2.25269e-05
7.19113e-06
1.88932e-05
9.90255e-06
2.21893e-05
2.219e-05
9.90027e-06
2.21984e-05
2.21989e-05
4.68201e-06
9.82087e-06
2.95573e-06
5.60643e-06
2.95642e-06
4.68095e-06
9.82541e-06
4.67618e-06
9.81649e-06
2.95485e-06
5.60493e-06
4.67526e-06
9.82069e-06
2.95536e-06
1.88907e-05
1.25162e-05
4.85137e-06
1.11144e-05
4.20793e-06
1.25131e-05
4.8514e-06
1.11169e-05
2.25349e-05
7.19311e-06
9.45548e-06
2.25272e-05
7.19345e-06
1.25165e-05
4.85103e-06
1.11146e-05
4.20783e-06
1.25138e-05
4.85108e-06
1.11169e-05
2.25341e-05
7.19144e-06
9.45445e-06
2.2528e-05
7.19157e-06
9.89338e-06
2.21754e-05
2.21754e-05
9.89113e-06
2.21854e-05
2.2185e-05
4.67267e-06
9.81337e-06
2.95368e-06
5.60296e-06
4.67229e-06
2.95378e-06
9.81581e-06
4.67813e-06
9.8181e-06
2.95498e-06
5.60458e-06
4.67767e-06
2.95505e-06
9.82037e-06
1.88869e-05
1.88887e-05
1.89096e-05
1.89124e-05
4.68195e-06
2.95941e-06
9.83306e-06
5.6143e-06
4.68264e-06
9.83462e-06
2.95966e-06
4.68591e-06
2.96074e-06
9.83675e-06
5.6154e-06
4.68642e-06
9.83837e-06
2.96089e-06
9.91302e-06
2.22091e-05
2.22107e-05
9.91485e-06
2.22093e-05
2.22108e-05
2.81487e-06
1.38527e-06
1.94972e-06
1.95048e-06
1.95002e-06
1.95082e-06
2.81489e-06
2.81529e-06
1.95153e-06
1.95221e-06
1.38591e-06
2.81564e-06
1.95107e-06
1.95172e-06
5.8995e-07
3.75762e-07
3.75753e-07
3.72966e-07
3.72929e-07
1.75115e-07
1.77179e-07
5.89944e-07
3.75778e-07
3.72948e-07
3.7293e-07
1.75109e-07
1.77131e-07
5.90125e-07
3.75884e-07
3.73048e-07
3.73027e-07
1.75149e-07
1.7718e-07
5.90137e-07
3.73089e-07
3.73034e-07
1.75177e-07
1.77198e-07
2.81316e-06
1.38209e-06
1.94807e-06
1.94899e-06
2.81269e-06
1.94786e-06
1.94875e-06
1.63785e-06
2.51861e-06
1.51376e-06
2.2722e-06
1.63898e-06
2.51933e-06
1.5131e-06
1.82049e-06
2.20601e-06
3.61979e-06
3.00187e-06
2.20603e-06
3.00137e-06
1.81967e-06
1.81788e-06
2.99892e-06
2.20419e-06
3.61748e-06
2.20413e-06
1.81877e-06
2.99922e-06
1.64061e-06
2.27314e-06
2.52143e-06
1.5148e-06
2.52034e-06
1.5154e-06
1.63953e-06
1.63772e-06
2.51843e-06
1.51369e-06
2.27215e-06
1.63885e-06
2.51925e-06
1.51304e-06
1.8178e-06
2.99865e-06
2.2046e-06
3.61806e-06
1.81866e-06
2.9991e-06
2.20457e-06
1.64051e-06
2.27311e-06
2.52139e-06
1.51475e-06
2.52025e-06
1.51535e-06
1.63944e-06
2.81369e-06
1.38215e-06
1.94878e-06
1.94854e-06
1.94858e-06
2.81314e-06
1.94834e-06
1.81756e-06
2.99777e-06
2.9979e-06
1.81657e-06
1.63794e-06
2.51885e-06
1.51392e-06
2.27233e-06
1.6391e-06
2.51945e-06
1.51324e-06
1.8206e-06
2.20653e-06
3.62033e-06
3.00193e-06
2.20658e-06
3.00144e-06
1.81975e-06
1.81802e-06
2.99916e-06
2.20478e-06
3.61812e-06
2.20471e-06
1.81893e-06
2.99941e-06
1.64066e-06
2.27316e-06
2.52131e-06
1.51483e-06
2.52037e-06
1.51546e-06
1.63955e-06
1.63792e-06
1.51392e-06
2.51882e-06
2.27226e-06
1.63911e-06
1.51323e-06
2.51917e-06
1.81797e-06
2.99897e-06
2.20469e-06
3.61772e-06
1.81896e-06
2.99894e-06
2.20446e-06
1.64052e-06
2.27306e-06
1.51477e-06
2.52086e-06
1.51541e-06
2.52005e-06
1.63939e-06
1.63803e-06
2.51899e-06
1.51407e-06
2.27245e-06
1.63919e-06
2.5195e-06
1.51337e-06
1.81804e-06
2.99918e-06
2.2045e-06
3.61784e-06
1.81893e-06
2.20445e-06
2.99938e-06
1.638e-06
1.51409e-06
2.51896e-06
2.27232e-06
1.63924e-06
1.51337e-06
2.51905e-06
1.81794e-06
2.99864e-06
2.20427e-06
3.61695e-06
1.819e-06
2.99846e-06
2.20389e-06
2.81191e-06
1.38222e-06
1.94842e-06
1.94839e-06
1.94804e-06
2.81161e-06
1.948e-06
1.63821e-06
1.5143e-06
2.51941e-06
2.27258e-06
1.63945e-06
1.51356e-06
2.51949e-06
1.81823e-06
2.99946e-06
2.20467e-06
3.61756e-06
1.81925e-06
2.20441e-06
2.99931e-06
1.63812e-06
1.51427e-06
2.51925e-06
2.27251e-06
1.63939e-06
1.51353e-06
2.51927e-06
1.81807e-06
2.999e-06
2.20477e-06
3.61757e-06
1.81917e-06
2.99872e-06
2.20438e-06
2.8102e-06
1.38208e-06
1.94777e-06
1.94813e-06
2.81026e-06
1.94725e-06
1.94761e-06
1.82156e-06
2.20834e-06
3.00385e-06
3.6237e-06
3.00418e-06
1.82241e-06
2.20821e-06
4.20659e-06
1.88842e-05
1.14478e-06
3.61674e-06
2.27128e-06
8.77686e-07
4.20664e-06
9.45121e-06
2.27127e-06
1.14471e-06
8.77747e-07
3.61662e-06
1.38056e-06
5.60403e-06
5.60299e-06
1.88826e-05
9.45184e-06
1.25089e-05
4.20654e-06
4.84988e-06
1.11129e-05
4.84958e-06
1.11104e-05
1.25121e-05
1.8879e-05
1.25094e-05
4.20675e-06
1.11128e-05
4.84982e-06
1.11103e-05
4.84986e-06
1.25123e-05
2.25213e-05
9.44952e-06
7.18998e-06
7.18991e-06
2.25277e-05
9.89088e-06
2.21858e-05
2.21866e-05
2.21747e-05
2.21755e-05
9.8943e-06
4.67746e-06
5.60398e-06
9.819e-06
2.95467e-06
9.81614e-06
2.95433e-06
4.67844e-06
4.67186e-06
5.60292e-06
9.81478e-06
2.95374e-06
2.95354e-06
9.81205e-06
4.67273e-06
1.88778e-05
9.45056e-06
3.70054e-07
5.87328e-07
3.7018e-07
3.6169e-06
2.20351e-06
2.20385e-06
1.63773e-06
2.27111e-06
2.51814e-06
1.5118e-06
2.518e-06
1.51251e-06
1.63653e-06
1.63787e-06
2.27115e-06
1.51182e-06
2.51819e-06
1.51254e-06
2.51818e-06
1.63664e-06
1.81786e-06
3.61679e-06
2.99788e-06
2.20347e-06
2.9982e-06
1.81682e-06
2.20381e-06
2.80984e-06
1.38183e-06
1.94672e-06
1.9467e-06
1.94714e-06
1.94716e-06
2.81005e-06
5.95522e-07
1.15074e-06
1.15057e-06
1.38636e-06
6.05973e-07
1.15735e-06
1.15759e-06
1.39262e-06
6.15747e-07
1.16436e-06
1.16432e-06
1.39925e-06
6.25196e-07
1.17017e-06
1.17039e-06
1.40354e-06
6.33343e-07
1.17436e-06
1.17436e-06
1.40647e-06
6.41983e-07
1.18156e-06
1.18167e-06
1.41594e-06
1.14866e-06
1.38422e-06
1.14861e-06
1.14865e-06
1.14845e-06
1.38392e-06
1.14863e-06
1.14831e-06
1.38352e-06
1.38979e-06
1.15065e-06
1.15081e-06
1.15607e-06
1.15599e-06
1.38731e-06
1.38975e-06
1.15061e-06
1.15595e-06
1.15607e-06
1.15034e-06
1.15592e-06
1.15601e-06
1.38687e-06
1.38993e-06
1.15017e-06
1.15601e-06
1.15581e-06
1.38986e-06
1.39226e-06
1.39572e-06
1.15748e-06
1.15739e-06
1.16237e-06
1.16237e-06
1.39222e-06
1.39585e-06
1.15737e-06
1.15761e-06
1.16226e-06
1.16247e-06
1.15768e-06
1.16238e-06
1.16267e-06
1.39254e-06
1.39586e-06
1.15751e-06
1.16249e-06
1.16253e-06
1.39623e-06
1.39891e-06
1.40137e-06
1.16435e-06
1.16437e-06
1.16927e-06
1.16917e-06
1.39906e-06
1.40133e-06
1.16423e-06
1.16432e-06
1.16914e-06
1.16925e-06
1.16453e-06
1.16916e-06
1.16936e-06
1.39887e-06
1.40146e-06
1.16436e-06
1.16922e-06
1.16918e-06
1.4016e-06
1.40332e-06
1.40419e-06
1.1703e-06
1.17018e-06
1.17305e-06
1.17291e-06
1.40327e-06
1.40404e-06
1.17014e-06
1.17037e-06
1.17292e-06
1.17308e-06
1.17042e-06
1.1729e-06
1.17284e-06
1.40355e-06
1.40416e-06
1.17025e-06
1.17308e-06
1.17269e-06
1.40368e-06
1.40718e-06
1.41256e-06
1.17458e-06
1.17439e-06
1.18007e-06
1.18003e-06
1.40702e-06
1.41264e-06
1.17436e-06
1.17438e-06
1.17996e-06
1.18003e-06
1.17414e-06
1.17996e-06
1.1801e-06
1.40694e-06
1.41257e-06
1.17396e-06
1.17989e-06
1.17988e-06
1.41286e-06
1.41521e-06
1.41465e-06
1.18164e-06
1.18155e-06
1.18388e-06
1.18404e-06
1.41541e-06
1.41483e-06
1.18137e-06
1.18165e-06
1.18393e-06
1.18428e-06
1.1819e-06
1.18407e-06
1.18445e-06
1.41552e-06
1.41519e-06
1.18171e-06
1.18432e-06
1.18431e-06
1.41532e-06
1.41639e-06
1.41605e-06
1.18427e-06
1.18449e-06
1.18595e-06
1.18588e-06
1.41675e-06
5.92759e-07
5.92873e-07
5.92829e-07
4.21482e-06
9.46616e-06
4.21187e-06
9.47237e-06
1.89084e-05
1.89143e-05
4.21449e-06
4.21144e-06
9.47363e-06
5.95542e-07
5.95581e-07
5.95497e-07
6.03479e-07
6.03475e-07
6.03541e-07
6.03447e-07
2.27713e-06
3.62292e-06
8.85291e-07
1.15268e-06
2.27469e-06
3.62454e-06
8.87783e-07
1.89056e-05
1.89153e-05
2.27659e-06
8.853e-07
3.62122e-06
1.1525e-06
2.2743e-06
8.87735e-07
3.62348e-06
5.60853e-06
5.60966e-06
1.38673e-06
5.61276e-06
5.61408e-06
4.21388e-06
9.47211e-06
4.21454e-06
9.47346e-06
1.89159e-05
1.89284e-05
4.21431e-06
9.47382e-06
4.21483e-06
9.47514e-06
6.05953e-07
6.06076e-07
6.06021e-07
6.13272e-07
6.13293e-07
6.13428e-07
6.13464e-07
2.27938e-06
3.6239e-06
8.94654e-07
1.15882e-06
2.27916e-06
3.62327e-06
8.96714e-07
1.89204e-05
1.89309e-05
2.27982e-06
8.94707e-07
3.62486e-06
1.15915e-06
2.27935e-06
8.96835e-07
3.62461e-06
5.61405e-06
5.61571e-06
1.39282e-06
5.6135e-06
5.61537e-06
4.22374e-06
9.4932e-06
4.21894e-06
9.50364e-06
1.896e-05
1.89693e-05
4.22355e-06
9.49438e-06
4.21881e-06
9.50504e-06
6.15771e-07
6.15876e-07
6.15919e-07
6.22979e-07
6.22981e-07
6.2306e-07
6.23078e-07
2.2855e-06
3.63122e-06
9.03019e-07
1.16624e-06
2.28247e-06
3.63456e-06
9.05234e-07
1.89578e-05
1.89699e-05
2.28502e-06
9.03087e-07
3.62994e-06
1.16613e-06
2.28228e-06
9.05245e-07
3.63335e-06
5.62388e-06
5.62531e-06
1.39967e-06
5.6285e-06
5.62989e-06
4.222e-06
9.5029e-06
4.22469e-06
9.49886e-06
1.89653e-05
1.89669e-05
4.22242e-06
9.50463e-06
4.22495e-06
9.50027e-06
6.25174e-07
6.25303e-07
6.2529e-07
6.31287e-07
6.31265e-07
6.31414e-07
6.31299e-07
2.2865e-06
3.63411e-06
9.11247e-07
1.171e-06
2.28754e-06
3.63025e-06
9.1285e-07
1.89699e-05
1.89708e-05
2.287e-06
9.1132e-07
3.6349e-06
1.17131e-06
2.28775e-06
9.12981e-07
3.63189e-06
5.62694e-06
5.62874e-06
1.40219e-06
5.61914e-06
5.62104e-06
4.2279e-06
9.50964e-06
4.22146e-06
9.5302e-06
1.89978e-05
1.90311e-05
4.22754e-06
9.51052e-06
4.22139e-06
9.53144e-06
6.33302e-07
6.33429e-07
6.33295e-07
6.39844e-07
6.3983e-07
6.39877e-07
6.39846e-07
2.28888e-06
3.63215e-06
9.17214e-07
1.17614e-06
2.28614e-06
3.63872e-06
9.18904e-07
1.89953e-05
1.903e-05
2.28821e-06
9.17305e-07
3.6313e-06
1.17599e-06
2.28613e-06
9.18906e-07
3.63674e-06
5.62097e-06
5.62231e-06
1.40764e-06
5.63599e-06
5.63716e-06
4.23667e-06
9.54555e-06
4.23632e-06
9.5451e-06
1.90443e-05
1.90427e-05
4.23712e-06
9.54736e-06
4.23659e-06
9.54692e-06
6.41966e-07
6.42073e-07
6.42078e-07
6.47685e-07
4.35348e-07
2.26347e-07
2.26352e-07
2.29708e-06
3.6482e-06
9.24735e-07
1.18275e-06
2.29589e-06
3.64771e-06
9.26523e-07
1.90486e-05
1.90475e-05
2.29748e-06
9.24751e-07
3.64872e-06
1.18295e-06
2.29579e-06
9.26584e-07
3.64893e-06
5.65229e-06
5.65405e-06
1.41556e-06
5.651e-06
5.653e-06
4.23146e-06
9.53836e-06
4.23315e-06
9.5397e-06
1.90342e-05
1.90399e-05
9.46471e-06
3.62138e-06
1.89074e-05
5.61339e-06
5.61171e-06
1.89052e-05
9.46262e-06
3.62002e-06
3.6208e-06
8.82778e-07
2.27383e-06
9.46428e-06
4.20978e-06
8.82799e-07
3.6181e-06
2.27352e-06
9.45892e-06
4.20926e-06
1.89037e-05
5.61082e-06
5.60878e-06
1.89005e-05
8.82878e-07
3.61943e-06
2.27355e-06
8.82814e-07
3.61848e-06
2.27338e-06
9.46118e-06
4.20909e-06
9.45896e-06
4.2089e-06
5.60558e-06
5.60686e-06
1.8896e-05
1.88975e-05
1.8912e-05
1.89149e-05
1.38749e-06
5.61514e-06
5.61629e-06
1.89142e-05
1.89115e-05
1.89174e-05
1.89145e-05
1.39013e-06
5.61129e-06
5.61274e-06
5.61515e-06
5.61637e-06
4.21478e-06
9.46696e-06
4.21185e-06
9.4727e-06
2.27765e-06
3.62287e-06
8.85278e-07
1.15273e-06
2.27514e-06
3.62466e-06
8.87831e-07
2.2776e-06
3.62362e-06
8.85227e-07
1.15276e-06
2.27511e-06
3.62506e-06
8.87779e-07
4.21522e-06
9.47261e-06
9.47261e-06
4.21486e-06
4.21516e-06
9.47263e-06
9.47282e-06
4.21478e-06
2.27832e-06
1.15452e-06
3.62392e-06
8.92572e-07
3.62509e-06
8.90283e-07
2.27889e-06
2.27827e-06
1.15449e-06
3.62406e-06
8.92506e-07
3.62544e-06
8.90225e-07
2.27882e-06
5.61575e-06
5.61381e-06
1.38757e-06
5.61648e-06
5.6149e-06
1.89064e-05
1.89129e-05
1.89162e-05
1.89136e-05
1.39016e-06
5.61207e-06
5.61113e-06
5.61653e-06
5.61485e-06
1.89155e-05
1.89125e-05
2.27737e-06
8.85279e-07
1.15267e-06
2.27494e-06
3.62504e-06
8.87807e-07
4.2143e-06
9.46472e-06
4.21137e-06
9.47236e-06
2.27723e-06
8.85258e-07
3.62203e-06
1.15257e-06
2.27476e-06
8.8774e-07
3.62424e-06
4.21503e-06
9.47415e-06
9.47387e-06
4.21505e-06
2.27809e-06
1.15441e-06
3.62441e-06
8.92524e-07
3.62549e-06
8.90244e-07
2.27889e-06
4.21502e-06
9.47454e-06
9.473e-06
4.21508e-06
2.27794e-06
1.15439e-06
8.9248e-07
3.62471e-06
8.9018e-07
3.62506e-06
2.27886e-06
4.21409e-06
9.46649e-06
4.21092e-06
9.47281e-06
2.27687e-06
8.85236e-07
3.61983e-06
1.15229e-06
2.27434e-06
8.87682e-07
3.62283e-06
4.21377e-06
9.46102e-06
4.21033e-06
9.47063e-06
2.27783e-06
1.1544e-06
3.62389e-06
8.92493e-07
3.62493e-06
8.90198e-07
2.27888e-06
4.21475e-06
9.47337e-06
9.47306e-06
4.21513e-06
2.27763e-06
1.15421e-06
8.9246e-07
3.62488e-06
8.90115e-07
3.62427e-06
2.27891e-06
4.21454e-06
9.47568e-06
9.47179e-06
4.21521e-06
5.61323e-06
5.61123e-06
1.3872e-06
5.61533e-06
5.61353e-06
1.89025e-05
1.89132e-05
1.89202e-05
1.89154e-05
1.38995e-06
5.61433e-06
5.61337e-06
5.61569e-06
5.61404e-06
1.89192e-05
1.89135e-05
2.27645e-06
8.85207e-07
3.62004e-06
1.15209e-06
2.2741e-06
8.87611e-07
3.623e-06
4.2133e-06
9.46318e-06
4.21021e-06
9.4715e-06
4.21309e-06
9.46093e-06
4.20978e-06
9.47087e-06
2.27739e-06
1.15431e-06
8.92475e-07
3.62465e-06
8.90141e-07
3.6245e-06
2.27892e-06
2.27728e-06
1.154e-06
8.92388e-07
3.62538e-06
8.90033e-07
3.62452e-06
2.27891e-06
4.21419e-06
9.47537e-06
9.4724e-06
4.21546e-06
4.21404e-06
9.47683e-06
9.47217e-06
4.2155e-06
1.88986e-05
1.89133e-05
1.89e-05
1.89153e-05
1.3896e-06
5.61401e-06
5.61563e-06
5.61395e-06
5.61537e-06
1.89214e-05
1.89141e-05
1.8924e-05
1.89162e-05
1.89139e-05
1.89251e-05
1.89171e-05
1.89282e-05
5.61055e-06
5.61202e-06
1.39216e-06
5.60996e-06
5.61144e-06
1.89536e-05
1.89284e-05
1.89564e-05
1.89315e-05
1.39501e-06
5.62124e-06
5.6226e-06
5.61178e-06
5.6132e-06
4.21383e-06
9.4721e-06
4.21446e-06
9.47385e-06
2.27891e-06
3.6239e-06
8.94697e-07
1.15891e-06
2.27907e-06
3.62294e-06
8.96704e-07
2.27885e-06
3.62407e-06
8.94624e-07
1.15884e-06
2.279e-06
3.62324e-06
8.96633e-07
4.21399e-06
9.4894e-06
9.47518e-06
4.21711e-06
4.21396e-06
9.4904e-06
9.47576e-06
4.21713e-06
2.2793e-06
1.16052e-06
3.62755e-06
9.00757e-07
3.62365e-06
8.98696e-07
2.28113e-06
2.27926e-06
1.1605e-06
3.62838e-06
9.00707e-07
3.62418e-06
8.98633e-07
2.28111e-06
5.61168e-06
5.61051e-06
1.39216e-06
5.61149e-06
5.61043e-06
1.89154e-05
1.89275e-05
1.89573e-05
1.89318e-05
1.39506e-06
5.62344e-06
5.62207e-06
5.61412e-06
5.61264e-06
1.89558e-05
1.89309e-05
2.27915e-06
3.6244e-06
8.94681e-07
1.15881e-06
2.27914e-06
3.62351e-06
8.96699e-07
4.2144e-06
9.47449e-06
4.21504e-06
9.47661e-06
2.27918e-06
8.94671e-07
3.62485e-06
1.15912e-06
2.27911e-06
8.96724e-07
3.62443e-06
4.21443e-06
9.49059e-06
9.47675e-06
4.21713e-06
2.27954e-06
1.16041e-06
3.62799e-06
9.0077e-07
3.62419e-06
8.9872e-07
2.28119e-06
4.21456e-06
9.48962e-06
9.47795e-06
4.21695e-06
2.27955e-06
1.16072e-06
9.00812e-07
3.62786e-06
8.98765e-07
3.62507e-06
2.28113e-06
4.21465e-06
9.47311e-06
4.21502e-06
9.47512e-06
2.27949e-06
8.9469e-07
3.62515e-06
1.15927e-06
2.27923e-06
8.96806e-07
3.62485e-06
4.21478e-06
9.47586e-06
4.21517e-06
9.47789e-06
2.27978e-06
1.16049e-06
3.62819e-06
9.00845e-07
3.62412e-06
8.98755e-07
2.28145e-06
4.2148e-06
9.49092e-06
9.47691e-06
4.21751e-06
2.27987e-06
1.16092e-06
9.00944e-07
3.62769e-06
8.98868e-07
3.62536e-06
2.28135e-06
4.21488e-06
9.48926e-06
9.47896e-06
4.21729e-06
5.61398e-06
5.6132e-06
1.39256e-06
5.61353e-06
5.61278e-06
1.89195e-05
1.89298e-05
1.89548e-05
1.89335e-05
1.39537e-06
5.62173e-06
5.6201e-06
5.61483e-06
5.61394e-06
1.89522e-05
1.89321e-05
2.27985e-06
8.94652e-07
3.62576e-06
1.15913e-06
2.27937e-06
8.96802e-07
3.62556e-06
4.21539e-06
9.47551e-06
4.21556e-06
9.47784e-06
4.21545e-06
9.47719e-06
4.21561e-06
9.47948e-06
2.28021e-06
1.16076e-06
9.00972e-07
3.62767e-06
8.98904e-07
3.62524e-06
2.28143e-06
2.28023e-06
1.16078e-06
9.00958e-07
3.62817e-06
8.98885e-07
3.62605e-06
2.28142e-06
4.21549e-06
9.48888e-06
9.47894e-06
4.2173e-06
4.21554e-06
9.48935e-06
9.48037e-06
4.2173e-06
1.89218e-05
1.89316e-05
1.89245e-05
1.89342e-05
1.39568e-06
5.62029e-06
5.62181e-06
5.61429e-06
5.61613e-06
1.89534e-05
1.89338e-05
1.89552e-05
1.89363e-05
1.89568e-05
1.89674e-05
1.89597e-05
1.89706e-05
5.62511e-06
5.62648e-06
1.3995e-06
5.62945e-06
5.63092e-06
1.89665e-05
1.89667e-05
1.89697e-05
1.89699e-05
1.40214e-06
5.62639e-06
5.62805e-06
5.63008e-06
5.6316e-06
4.22369e-06
9.49406e-06
4.21894e-06
9.50384e-06
2.28553e-06
3.63073e-06
9.02933e-07
1.16627e-06
2.2823e-06
3.63447e-06
9.05171e-07
2.28549e-06
3.63156e-06
9.02889e-07
1.16626e-06
2.28229e-06
3.63483e-06
9.05131e-07
4.22467e-06
9.50481e-06
9.50455e-06
4.22503e-06
4.2246e-06
9.50463e-06
9.50461e-06
4.22495e-06
2.28647e-06
1.16794e-06
3.63453e-06
9.09416e-07
3.63551e-06
9.07374e-07
2.2874e-06
2.28642e-06
1.16789e-06
3.63461e-06
9.0936e-07
3.63577e-06
9.07323e-07
2.28732e-06
5.62744e-06
5.62565e-06
1.3996e-06
5.63084e-06
5.62945e-06
1.89586e-05
1.89683e-05
1.89679e-05
1.89684e-05
1.40219e-06
5.62719e-06
5.62611e-06
5.63153e-06
5.62996e-06
1.89672e-05
1.89675e-05
2.2854e-06
3.63112e-06
9.02946e-07
1.16614e-06
2.28229e-06
3.63487e-06
9.05157e-07
4.22332e-06
9.49281e-06
4.21883e-06
9.50332e-06
2.28525e-06
9.02968e-07
3.6304e-06
1.16616e-06
2.28216e-06
9.0515e-07
3.63392e-06
4.22457e-06
9.50647e-06
9.50602e-06
4.22515e-06
2.28635e-06
1.16779e-06
3.63502e-06
9.09391e-07
3.63593e-06
9.07357e-07
2.28743e-06
4.22452e-06
9.50601e-06
9.50449e-06
4.22514e-06
2.28618e-06
1.16783e-06
9.09372e-07
3.63495e-06
9.07336e-07
3.6352e-06
2.28737e-06
4.22359e-06
9.4945e-06
4.21907e-06
9.50435e-06
2.28536e-06
9.03084e-07
3.63014e-06
1.16635e-06
2.28232e-06
9.05267e-07
3.63384e-06
4.22338e-06
9.49244e-06
4.21878e-06
9.50325e-06
2.28637e-06
1.16787e-06
3.63447e-06
9.0943e-07
3.63547e-06
9.07406e-07
2.28744e-06
4.22457e-06
9.50541e-06
9.50518e-06
4.22517e-06
2.28625e-06
1.168e-06
9.09457e-07
3.63504e-06
9.07427e-07
3.63523e-06
2.28745e-06
4.22443e-06
9.50623e-06
9.50454e-06
4.22518e-06
5.62516e-06
5.6234e-06
1.3993e-06
5.62941e-06
5.62759e-06
1.89551e-05
1.89679e-05
1.89716e-05
1.89697e-05
1.40197e-06
5.62912e-06
5.62803e-06
5.63045e-06
5.62877e-06
1.89705e-05
1.89678e-05
2.28502e-06
9.03071e-07
3.63044e-06
1.16616e-06
2.28225e-06
9.05227e-07
3.63409e-06
4.22273e-06
9.49184e-06
4.21848e-06
9.5027e-06
4.22276e-06
9.49238e-06
4.21845e-06
9.50352e-06
2.28595e-06
1.1678e-06
9.09441e-07
3.63482e-06
9.07393e-07
3.63477e-06
2.28748e-06
2.28595e-06
1.16781e-06
9.09412e-07
3.63552e-06
9.0737e-07
3.63554e-06
2.28747e-06
4.22395e-06
9.50656e-06
9.5041e-06
4.22527e-06
4.22396e-06
9.50734e-06
9.50499e-06
4.22529e-06
1.89565e-05
1.89689e-05
1.89583e-05
1.8971e-05
1.40229e-06
5.62833e-06
5.63003e-06
5.62967e-06
5.63111e-06
1.89698e-05
1.89686e-05
1.89724e-05
1.89708e-05
1.8964e-05
1.8965e-05
1.89672e-05
1.89679e-05
5.6243e-06
5.62596e-06
1.40216e-06
5.61811e-06
5.61967e-06
1.89899e-05
1.89663e-05
1.89926e-05
1.89692e-05
1.40435e-06
5.62161e-06
5.62299e-06
5.61778e-06
5.6193e-06
4.22195e-06
9.50272e-06
4.22459e-06
9.49895e-06
2.28625e-06
3.63415e-06
9.11243e-07
1.17111e-06
2.28745e-06
3.63007e-06
9.12834e-07
2.28619e-06
3.63427e-06
9.11173e-07
1.17099e-06
2.28738e-06
3.63032e-06
9.12769e-07
4.22123e-06
9.50509e-06
9.49849e-06
4.22073e-06
4.22117e-06
9.50516e-06
9.49864e-06
4.22067e-06
2.28609e-06
1.17199e-06
3.63026e-06
9.15709e-07
3.62995e-06
9.1429e-07
2.28573e-06
2.28604e-06
1.17183e-06
3.63051e-06
9.15645e-07
3.63028e-06
9.14218e-07
2.28566e-06
5.6255e-06
5.62413e-06
1.40206e-06
5.6194e-06
5.61828e-06
1.89647e-05
1.89657e-05
1.89918e-05
1.89682e-05
1.40423e-06
5.6227e-06
5.62117e-06
5.61931e-06
5.61793e-06
1.89897e-05
1.8967e-05
2.28643e-06
3.63464e-06
9.11231e-07
1.17099e-06
2.28754e-06
3.63054e-06
9.12827e-07
4.22249e-06
9.50524e-06
4.22508e-06
9.50163e-06
2.28646e-06
9.11238e-07
3.63491e-06
1.17128e-06
2.28749e-06
9.12863e-07
3.63158e-06
4.22161e-06
9.50595e-06
9.49981e-06
4.22086e-06
2.28626e-06
1.1718e-06
3.63063e-06
9.15703e-07
3.63039e-06
9.14292e-07
2.28578e-06
4.22176e-06
9.50459e-06
9.5009e-06
4.22073e-06
2.28625e-06
1.1721e-06
9.15751e-07
3.63054e-06
9.1435e-07
3.63134e-06
2.28572e-06
4.22255e-06
9.50361e-06
4.22499e-06
9.49967e-06
2.28653e-06
9.11296e-07
3.63497e-06
1.17123e-06
2.28756e-06
9.12909e-07
3.63096e-06
4.22259e-06
9.50547e-06
4.22506e-06
9.50075e-06
2.28628e-06
1.17184e-06
3.63018e-06
9.15711e-07
3.6301e-06
9.14299e-07
2.2857e-06
4.22168e-06
9.50472e-06
9.49922e-06
4.22071e-06
2.28625e-06
1.17195e-06
9.15728e-07
3.62912e-06
9.14353e-07
3.6305e-06
2.28556e-06
4.22163e-06
9.50155e-06
9.49952e-06
4.22044e-06
5.62793e-06
5.62712e-06
1.40247e-06
5.62158e-06
5.62093e-06
1.8969e-05
1.89698e-05
1.89899e-05
1.89712e-05
1.40458e-06
5.62168e-06
5.62009e-06
5.62092e-06
5.62013e-06
1.89863e-05
1.89699e-05
2.28693e-06
9.11276e-07
3.6355e-06
1.17108e-06
2.28773e-06
9.12919e-07
3.63172e-06
4.2235e-06
9.50619e-06
4.22531e-06
9.50294e-06
4.22341e-06
9.5069e-06
4.22532e-06
9.50247e-06
2.28676e-06
1.17216e-06
9.15854e-07
3.63032e-06
9.14469e-07
3.6316e-06
2.28588e-06
2.28666e-06
1.17182e-06
9.15745e-07
3.62965e-06
9.14378e-07
3.63122e-06
2.28575e-06
4.2226e-06
9.50349e-06
9.5018e-06
4.22097e-06
4.22245e-06
9.50194e-06
9.50095e-06
4.22076e-06
1.89677e-05
1.89668e-05
1.89704e-05
1.89695e-05
1.40417e-06
5.61783e-06
5.61946e-06
5.61805e-06
5.61989e-06
1.8984e-05
1.89666e-05
1.89857e-05
1.89692e-05
1.8996e-05
1.90291e-05
1.89987e-05
1.90322e-05
5.62682e-06
5.62819e-06
1.40835e-06
5.63961e-06
5.64116e-06
1.90415e-05
1.9032e-05
1.9045e-05
1.90352e-05
1.41177e-06
5.64783e-06
5.64957e-06
5.64357e-06
5.64519e-06
4.2278e-06
9.50948e-06
4.22138e-06
9.52993e-06
2.28952e-06
3.6325e-06
9.17252e-07
1.17635e-06
2.28635e-06
3.63948e-06
9.18974e-07
2.28943e-06
3.63272e-06
9.17179e-07
1.17621e-06
2.28628e-06
3.63938e-06
9.18903e-07
4.23035e-06
9.54484e-06
9.53457e-06
4.23537e-06
4.23022e-06
9.54544e-06
9.53436e-06
4.23536e-06
2.29108e-06
1.17835e-06
3.6466e-06
9.22845e-07
3.64302e-06
9.2088e-07
2.29476e-06
2.29099e-06
1.17816e-06
3.64701e-06
9.22779e-07
3.64306e-06
9.20801e-07
2.29471e-06
5.62815e-06
5.62605e-06
1.40821e-06
5.6404e-06
5.6387e-06
1.89957e-05
1.90296e-05
1.90453e-05
1.90342e-05
1.41168e-06
5.64971e-06
5.64846e-06
5.64495e-06
5.64301e-06
1.90452e-05
1.9033e-05
2.28932e-06
3.63281e-06
9.17237e-07
1.17622e-06
2.28633e-06
3.63982e-06
9.18944e-07
4.22711e-06
9.50808e-06
4.22123e-06
9.52858e-06
2.2891e-06
9.1726e-07
3.63194e-06
1.17611e-06
2.28619e-06
9.18923e-07
3.638e-06
4.23006e-06
9.54659e-06
9.53597e-06
4.23553e-06
2.29088e-06
1.1781e-06
3.64709e-06
9.22813e-07
3.6434e-06
9.2084e-07
2.29476e-06
4.22993e-06
9.54687e-06
9.53359e-06
4.23549e-06
2.29064e-06
1.17804e-06
9.22776e-07
3.64709e-06
9.20804e-07
3.64202e-06
2.29468e-06
4.22667e-06
9.50881e-06
4.22103e-06
9.5296e-06
2.2886e-06
9.17192e-07
3.63024e-06
1.17591e-06
2.28594e-06
9.18846e-07
3.63659e-06
4.22624e-06
9.50478e-06
4.22067e-06
9.5264e-06
2.29041e-06
1.17811e-06
3.64687e-06
9.22786e-07
3.64244e-06
9.20788e-07
2.29473e-06
4.22926e-06
9.5469e-06
9.53443e-06
4.23565e-06
2.29017e-06
1.178e-06
9.22761e-07
3.64735e-06
9.20738e-07
3.64111e-06
2.29469e-06
4.2289e-06
9.54814e-06
9.53233e-06
4.23564e-06
5.62533e-06
5.62294e-06
1.40789e-06
5.63857e-06
5.63593e-06
1.89913e-05
1.90261e-05
1.90491e-05
1.90342e-05
1.41136e-06
5.65041e-06
5.64889e-06
5.64349e-06
5.64111e-06
1.90483e-05
1.9031e-05
2.28809e-06
9.17179e-07
3.63056e-06
1.17571e-06
2.28599e-06
9.18793e-07
3.63661e-06
4.22529e-06
9.50615e-06
4.22101e-06
9.52602e-06
4.22515e-06
9.50463e-06
4.22079e-06
9.52572e-06
2.28971e-06
1.17797e-06
9.22734e-07
3.64671e-06
9.20752e-07
3.64087e-06
2.29441e-06
2.28961e-06
1.17779e-06
9.22672e-07
3.64773e-06
9.20654e-07
3.64113e-06
2.29442e-06
4.22796e-06
9.54744e-06
9.53168e-06
4.2354e-06
4.22784e-06
9.549e-06
9.53196e-06
4.23543e-06
1.89897e-05
1.9028e-05
1.89911e-05
1.90294e-05
1.41131e-06
5.65039e-06
5.65203e-06
5.64169e-06
5.64297e-06
1.90514e-05
1.90334e-05
1.90541e-05
1.90351e-05
1.90405e-05
1.90384e-05
1.9044e-05
1.90419e-05
5.64839e-06
5.65015e-06
1.41438e-06
5.64447e-06
5.64635e-06
1.90327e-05
1.90343e-05
1.90358e-05
1.90376e-05
1.41629e-06
5.63708e-06
5.63881e-06
5.64287e-06
5.64469e-06
4.23672e-06
9.5464e-06
4.23632e-06
9.54649e-06
2.29631e-06
3.64752e-06
9.2474e-07
1.18263e-06
2.29569e-06
3.64642e-06
9.26429e-07
2.29632e-06
3.6482e-06
9.24676e-07
1.18274e-06
2.29566e-06
3.64742e-06
9.26391e-07
4.23643e-06
9.53788e-06
9.54272e-06
4.23364e-06
4.23648e-06
9.53846e-06
9.54431e-06
4.23369e-06
2.29633e-06
1.18354e-06
2.22391e-06
9.29063e-07
3.64611e-06
9.27877e-07
1.66497e-06
2.29634e-06
1.18348e-06
1.84351e-06
9.29041e-07
3.64719e-06
9.27845e-07
1.66497e-06
5.65082e-06
5.64951e-06
1.41469e-06
5.64772e-06
5.64703e-06
1.90444e-05
1.90429e-05
1.90345e-05
1.90382e-05
1.4166e-06
5.63865e-06
5.63764e-06
5.64629e-06
5.64546e-06
1.90334e-05
1.90384e-05
2.29653e-06
3.64805e-06
9.2471e-07
1.18258e-06
2.29576e-06
3.64702e-06
9.26432e-07
4.23733e-06
9.5483e-06