/*--------------------------------*- C++ -*----------------------------------*\
| =========                 |                                                 |
| \\      /  F ield         | OpenFOAM: The Open Source CFD Toolbox           |
|  \\    /   O peration     | Version:  v2006                                 |
|   \\  /    A nd           | Website:  www.openfoam.com                      |
|    \\/     M anipulation  |                                                 |
\*---------------------------------------------------------------------------*/
FoamFile
{
    version     2.0;
    format      ascii;
    class       volScalarField;
    location    "875";
    object      k;
}
// * * * * * * * * * * * * * * * * * * * * * * * * * * * * * * * * * * * * * //

dimensions      [0 2 -2 0 0 0 0];


internalField   nonuniform List<scalar> 
14404
(
5.15102e-05
5.15008e-05
5.36069e-05
3.8964e-05
7.1201e-05
6.48397e-05
7.34405e-05
6.85871e-05
4.68008e-05
6.48237e-05
6.06662e-05
6.99473e-05
6.99595e-05
7.1203e-05
7.34527e-05
7.9747e-05
7.16957e-05
7.16289e-05
7.15977e-05
7.18596e-05
6.52679e-05
7.32885e-05
7.41652e-05
7.41669e-05
6.5269e-05
7.32843e-05
6.99614e-05
6.52966e-05
7.41212e-05
7.33077e-05
7.3521e-05
7.35283e-05
9.48696e-05
7.12177e-05
7.34628e-05
7.9791e-05
6.59732e-05
5.95321e-05
5.95363e-05
5.36114e-05
5.955e-05
6.5937e-05
5.9545e-05
3.19476e-05
5.74821e-05
6.04495e-05
6.48524e-05
6.04603e-05
6.42716e-05
6.04393e-05
6.4231e-05
5.74659e-05
5.51017e-05
6.23541e-05
5.6377e-05
6.85962e-05
7.34931e-05
7.34972e-05
7.12508e-05
7.12535e-05
5.36697e-05
6.99787e-05
6.99924e-05
6.07057e-05
5.15662e-05
6.48321e-05
4.68779e-05
5.15648e-05
6.484e-05
7.18807e-05
6.85847e-05
7.16629e-05
7.16084e-05
7.16471e-05
7.15903e-05
7.18994e-05
7.17212e-05
7.9779e-05
7.34657e-05
7.97417e-05
7.17468e-05
7.34703e-05
7.12172e-05
7.1227e-05
7.12303e-05
9.51274e-05
7.36166e-05
7.36099e-05
7.35958e-05
7.35893e-05
9.52171e-05
7.42388e-05
7.33642e-05
6.9928e-05
6.53461e-05
7.33355e-05
7.43136e-05
6.52882e-05
7.4288e-05
7.33743e-05
6.99423e-05
6.53565e-05
7.33459e-05
7.43623e-05
6.52982e-05
7.17132e-05
7.34523e-05
7.97463e-05
7.1873e-05
6.85936e-05
7.16413e-05
7.16011e-05
7.42088e-05
6.99476e-05
7.33127e-05
6.52914e-05
9.49482e-05
7.35579e-05
7.35651e-05
6.60166e-05
5.36619e-05
5.96046e-05
5.96059e-05
6.60775e-05
5.95814e-05
5.95825e-05
5.64206e-05
6.06872e-05
6.23853e-05
5.5149e-05
6.23649e-05
5.51492e-05
5.64158e-05
5.74929e-05
6.42493e-05
6.48088e-05
6.04703e-05
6.42276e-05
6.04547e-05
5.74959e-05
6.48156e-05
6.04749e-05
6.04588e-05
5.74666e-05
6.48307e-05
6.42406e-05
6.04473e-05
5.63729e-05
6.06879e-05
5.51038e-05
6.23714e-05
5.15093e-05
4.88284e-05
4.88311e-05
5.1603e-05
4.89461e-05
3.4737e-05
7.29288e-05
7.07286e-05
7.06803e-05
7.07288e-05
7.06811e-05
5.14122e-05
6.9403e-05
6.94044e-05
6.9278e-05
6.92871e-05
6.78205e-05
7.29184e-05
7.28539e-05
6.78679e-05
6.78179e-05
7.28515e-05
6.78666e-05
5.93437e-05
4.87268e-05
6.40152e-05
4.34435e-05
6.39345e-05
4.33203e-05
5.94102e-05
5.93407e-05
4.87166e-05
4.34394e-05
6.39236e-05
4.33157e-05
5.94083e-05
7.06827e-05
5.14029e-05
6.92738e-05
6.92812e-05
7.06811e-05
6.78357e-05
7.2917e-05
7.28558e-05
6.78678e-05
5.93609e-05
4.87278e-05
6.40158e-05
4.34507e-05
6.39431e-05
4.33256e-05
5.9417e-05
6.78362e-05
7.28526e-05
6.78636e-05
5.93639e-05
4.87475e-05
4.34555e-05
4.33315e-05
6.39661e-05
5.94158e-05
5.93724e-05
4.87251e-05
6.39408e-05
4.33281e-05
6.78468e-05
7.28558e-05
5.93815e-05
4.87689e-05
4.33433e-05
6.39891e-05
6.78524e-05
7.28508e-05
7.06766e-05
5.14475e-05
6.93119e-05
6.93216e-05
7.06752e-05
5.93962e-05
4.87564e-05
4.33439e-05
6.39825e-05
5.93994e-05
4.87699e-05
4.33487e-05
6.39984e-05
6.78649e-05
7.28571e-05
6.78673e-05
7.28541e-05
5.14691e-05
6.93213e-05
6.93335e-05
7.06674e-05
7.06701e-05
7.07319e-05
7.07323e-05
6.9439e-05
6.94397e-05
6.40461e-05
7.11727e-05
7.91893e-05
7.91901e-05
7.11889e-05
7.12547e-05
7.93075e-05
7.29468e-05
7.12416e-05
7.93496e-05
7.07101e-05
7.07027e-05
7.07103e-05
7.07028e-05
9.45075e-05
7.30691e-05
7.3069e-05
9.44303e-05
7.30895e-05
7.30884e-05
7.35288e-05
6.43267e-05
6.93527e-05
7.27862e-05
7.27672e-05
6.42632e-05
7.35817e-05
7.35487e-05
6.43362e-05
6.93549e-05
7.27885e-05
7.2769e-05
6.42744e-05
7.36054e-05
7.34819e-05
7.27245e-05
6.41812e-05
6.93068e-05
7.34117e-05
7.27535e-05
6.42273e-05
7.34994e-05
7.27262e-05
6.41998e-05
6.93115e-05
7.34268e-05
7.27553e-05
6.42417e-05
9.45733e-05
7.30977e-05
7.3096e-05
7.30905e-05
7.30891e-05
9.46223e-05
7.13272e-05
7.10618e-05
7.09037e-05
6.78291e-05
7.13103e-05
7.10769e-05
7.09144e-05
7.12219e-05
7.28936e-05
7.92894e-05
7.12416e-05
7.9232e-05
7.12165e-05
7.91786e-05
7.28788e-05
7.1194e-05
7.92031e-05
7.13349e-05
6.78385e-05
7.11017e-05
7.09662e-05
7.13533e-05
7.10845e-05
7.09273e-05
7.13268e-05
7.10615e-05
7.08962e-05
6.78269e-05
7.13096e-05
7.10767e-05
7.09083e-05
7.12173e-05
7.91602e-05
7.28779e-05
7.11942e-05
7.91882e-05
7.13346e-05
6.78366e-05
7.11016e-05
7.0963e-05
7.10843e-05
7.09223e-05
7.13531e-05
7.07064e-05
9.4525e-05
7.30712e-05
7.30762e-05
9.44412e-05
7.30916e-05
7.30965e-05
7.35176e-05
7.27321e-05
6.41804e-05
6.93154e-05
6.4235e-05
7.34411e-05
7.27623e-05
7.34831e-05
7.27271e-05
6.41854e-05
6.93141e-05
7.34069e-05
7.27558e-05
6.42368e-05
7.07033e-05
7.13262e-05
7.0916e-05
7.10625e-05
6.7841e-05
7.13108e-05
7.09234e-05
7.1076e-05
7.12196e-05
7.28923e-05
7.92819e-05
7.12394e-05
7.92281e-05
7.12144e-05
7.91896e-05
7.28783e-05
7.11934e-05
7.92057e-05
7.13334e-05
6.78465e-05
7.09635e-05
7.10988e-05
7.13508e-05
7.09322e-05
7.10828e-05
7.13226e-05
7.10615e-05
7.09191e-05
6.78407e-05
7.13085e-05
7.10746e-05
7.09231e-05
7.12084e-05
7.91845e-05
7.28697e-05
7.11894e-05
7.91905e-05
7.13292e-05
6.78451e-05
7.10969e-05
7.09503e-05
7.10812e-05
7.09277e-05
7.1346e-05
7.13254e-05
7.09212e-05
7.10637e-05
6.78515e-05
7.13106e-05
7.09282e-05
7.10761e-05
7.12136e-05
7.91903e-05
7.28784e-05
7.11924e-05
7.92055e-05
7.132e-05
7.10631e-05
7.09368e-05
6.78558e-05
7.13083e-05
7.10746e-05
7.09388e-05
7.12e-05
7.91976e-05
7.2861e-05
7.11851e-05
7.91968e-05
7.06939e-05
9.44498e-05
7.30435e-05
7.30504e-05
9.43925e-05
7.30636e-05
7.30702e-05
7.34876e-05
7.27159e-05
6.42281e-05
6.93145e-05
6.42487e-05
7.34434e-05
7.27381e-05
7.34446e-05
7.27092e-05
6.42317e-05
6.9323e-05
7.34002e-05
7.27298e-05
6.42521e-05
7.06911e-05
7.13211e-05
7.09443e-05
7.10637e-05
6.78683e-05
7.13094e-05
7.09472e-05
7.10741e-05
7.12038e-05
7.9216e-05
7.28705e-05
7.11877e-05
7.92166e-05
7.13199e-05
7.09491e-05
7.10641e-05
6.78703e-05
7.13095e-05
7.09506e-05
7.10741e-05
7.11993e-05
7.92094e-05
7.28622e-05
7.11865e-05
7.9207e-05
9.4334e-05
7.30174e-05
7.30125e-05
9.43181e-05
7.30394e-05
7.30335e-05
7.34017e-05
7.26931e-05
6.42455e-05
6.93165e-05
7.33998e-05
6.42479e-05
7.27049e-05
7.34475e-05
7.27025e-05
6.42578e-05
6.93277e-05
7.34455e-05
6.42603e-05
7.27135e-05
7.06808e-05
7.06826e-05
7.07424e-05
7.07433e-05
7.36377e-05
6.43637e-05
7.27921e-05
6.94737e-05
7.36113e-05
7.28e-05
6.44166e-05
7.36638e-05
6.43719e-05
7.27946e-05
6.94741e-05
7.36363e-05
7.28028e-05
6.44228e-05
9.46721e-05
7.30934e-05
7.30915e-05
9.46563e-05
7.30941e-05
7.30919e-05
6.49171e-05
5.15002e-05
5.80198e-05
5.80272e-05
5.7994e-05
5.80019e-05
6.4973e-05
6.50569e-05
5.80953e-05
5.81014e-05
5.16143e-05
6.50163e-05
5.81194e-05
5.81248e-05
3.4584e-05
2.69988e-05
2.69996e-05
2.68277e-05
2.68261e-05
1.75991e-05
1.77558e-05
3.45802e-05
2.69985e-05
2.68261e-05
2.68255e-05
1.75986e-05
1.77534e-05
3.45963e-05
2.70067e-05
2.68313e-05
2.68305e-05
1.76e-05
1.77561e-05
3.46059e-05
2.68352e-05
2.68328e-05
1.76015e-05
1.77576e-05
6.48676e-05
5.1416e-05
5.79058e-05
5.79158e-05
6.48106e-05
5.79261e-05
5.79355e-05
5.44748e-05
6.11361e-05
5.30689e-05
5.9363e-05
5.44796e-05
6.11551e-05
5.30708e-05
5.58382e-05
5.91116e-05
6.39695e-05
6.32502e-05
5.90882e-05
6.32078e-05
5.58476e-05
5.57844e-05
6.31713e-05
5.9029e-05
6.39509e-05
5.90428e-05
5.5783e-05
6.31889e-05
5.45426e-05
5.93771e-05
6.12076e-05
5.31373e-05
6.11704e-05
5.3132e-05
5.45406e-05
5.44673e-05
6.11276e-05
5.30658e-05
5.93604e-05
5.44717e-05
6.1148e-05
5.30677e-05
5.57737e-05
6.31581e-05
5.90203e-05
6.39448e-05
5.57708e-05
6.31788e-05
5.90365e-05
5.45361e-05
5.93747e-05
6.12031e-05
5.31348e-05
6.1164e-05
5.31293e-05
5.45346e-05
6.48721e-05
5.14088e-05
5.79012e-05
5.79053e-05
5.79243e-05
6.48109e-05
5.79283e-05
5.57461e-05
6.31759e-05
6.31709e-05
5.57451e-05
5.44833e-05
6.11491e-05
5.30825e-05
5.93785e-05
5.4488e-05
6.11664e-05
5.30842e-05
5.58444e-05
5.91187e-05
6.39744e-05
6.32519e-05
5.90967e-05
6.32134e-05
5.58526e-05
5.57914e-05
6.31815e-05
5.90394e-05
6.39578e-05
5.90526e-05
5.57903e-05
6.3197e-05
5.45505e-05
5.93899e-05
6.12115e-05
5.31481e-05
6.11792e-05
5.31445e-05
5.45478e-05
5.44914e-05
5.30857e-05
6.11585e-05
5.93802e-05
5.44968e-05
5.30872e-05
6.11716e-05
5.58081e-05
6.31972e-05
5.9065e-05
6.39703e-05
5.58094e-05
6.32045e-05
5.90713e-05
5.45555e-05
5.93907e-05
5.31495e-05
6.12073e-05
5.31465e-05
6.11816e-05
5.45513e-05
5.44875e-05
6.11553e-05
5.30911e-05
5.939e-05
5.44916e-05
6.11731e-05
5.30932e-05
5.57923e-05
6.31827e-05
5.90348e-05
6.39595e-05
5.57896e-05
5.90503e-05
6.32e-05
5.45082e-05
5.31002e-05
6.11812e-05
5.93964e-05
5.45144e-05
5.31014e-05
6.11901e-05
5.58305e-05
6.32213e-05
5.90919e-05
6.39891e-05
5.58336e-05
6.32248e-05
5.9092e-05
6.48702e-05
5.1447e-05
5.79444e-05
5.795e-05
5.7955e-05
6.48378e-05
5.79604e-05
5.45116e-05
5.31114e-05
6.11868e-05
5.94117e-05
5.45168e-05
5.31132e-05
6.11985e-05
5.5827e-05
6.32226e-05
5.90798e-05
6.3986e-05
5.58283e-05
5.9086e-05
6.32277e-05
5.45174e-05
5.31143e-05
6.11946e-05
5.94137e-05
5.45236e-05
5.31156e-05
6.12031e-05
5.58375e-05
6.3232e-05
5.91011e-05
6.39979e-05
5.58407e-05
6.32354e-05
5.91011e-05
6.48582e-05
5.14653e-05
5.79677e-05
5.79722e-05
6.48558e-05
5.79688e-05
5.79731e-05
5.59335e-05
5.91787e-05
6.32778e-05
6.40974e-05
6.33302e-05
5.59194e-05
5.92044e-05
6.78362e-05
7.06716e-05
4.86561e-05
6.39827e-05
5.93528e-05
4.31956e-05
6.78367e-05
7.28458e-05
5.93559e-05
4.865e-05
4.31994e-05
6.39663e-05
5.13751e-05
6.93142e-05
6.93245e-05
7.06709e-05
7.2852e-05
7.1293e-05
6.78323e-05
7.09175e-05
7.10571e-05
7.09146e-05
7.10464e-05
7.1305e-05
7.06586e-05
7.12924e-05
6.7833e-05
7.10563e-05
7.09217e-05
7.10459e-05
7.09192e-05
7.13034e-05
7.11727e-05
7.28373e-05
7.91878e-05
7.91911e-05
7.11861e-05
9.43021e-05
7.30357e-05
7.30428e-05
7.30114e-05
7.30187e-05
9.43272e-05
7.34206e-05
6.93185e-05
7.27068e-05
6.42213e-05
7.2693e-05
6.42144e-05
7.34275e-05
7.33749e-05
6.93286e-05
7.27008e-05
6.42243e-05
6.42154e-05
7.26875e-05
7.33834e-05
7.06592e-05
7.28456e-05
2.66471e-05
3.44349e-05
2.66512e-05
6.39805e-05
5.90563e-05
5.9051e-05
5.44265e-05
5.93333e-05
6.11424e-05
5.30194e-05
6.11288e-05
5.30154e-05
5.44223e-05
5.44358e-05
5.93364e-05
5.30225e-05
6.1153e-05
5.30183e-05
6.11397e-05
5.44318e-05
5.57666e-05
6.39646e-05
6.31941e-05
5.90435e-05
6.31898e-05
5.57656e-05
5.90395e-05
6.48092e-05
5.13753e-05
5.79067e-05
5.79113e-05
5.79043e-05
5.79001e-05
6.48231e-05
3.48915e-05
4.89468e-05
4.89526e-05
5.15885e-05
3.5524e-05
4.93888e-05
4.93801e-05
5.19204e-05
3.607e-05
4.97099e-05
4.97219e-05
5.22143e-05
3.66535e-05
5.01449e-05
5.01358e-05
5.25503e-05
3.71408e-05
5.03501e-05
5.0368e-05
5.26392e-05
3.7658e-05
5.0785e-05
5.07711e-05
5.30975e-05
4.88227e-05
5.15087e-05
4.88433e-05
4.88314e-05
4.88538e-05
5.15222e-05
4.88529e-05
4.88553e-05
5.15235e-05
5.18808e-05
4.89407e-05
4.89406e-05
4.93001e-05
4.92979e-05
5.16059e-05
5.18811e-05
4.89453e-05
4.92956e-05
4.92817e-05
4.89412e-05
4.92972e-05
4.92628e-05
5.16013e-05
5.18653e-05
4.89415e-05
4.92798e-05
4.9257e-05
5.18406e-05
5.19414e-05
5.20969e-05
4.9394e-05
4.93894e-05
4.96105e-05
4.96062e-05
5.19398e-05
5.2098e-05
4.93896e-05
4.93817e-05
4.96086e-05
4.96245e-05
4.9371e-05
4.96122e-05
4.96354e-05
5.19346e-05
5.21212e-05
4.93653e-05
4.96324e-05
4.96355e-05
5.21358e-05
5.21781e-05
5.24922e-05
4.97038e-05
4.97037e-05
5.00495e-05
5.00475e-05
5.21834e-05
5.24936e-05
4.97021e-05
4.97141e-05
5.00461e-05
5.00358e-05
4.97268e-05
5.00513e-05
5.00473e-05
5.21978e-05
5.24786e-05
4.97267e-05
5.00376e-05
5.00428e-05
5.2493e-05
5.25478e-05
5.26078e-05
5.01468e-05
5.01421e-05
5.03044e-05
5.02964e-05
5.25468e-05
5.26014e-05
5.01433e-05
5.01347e-05
5.03025e-05
5.03165e-05
5.01448e-05
5.0303e-05
5.03133e-05
5.25393e-05
5.2625e-05
5.01402e-05
5.03256e-05
5.03139e-05
5.26073e-05
5.26502e-05
5.30108e-05
5.03519e-05
5.03447e-05
5.06637e-05
5.06545e-05
5.26435e-05
5.30032e-05
5.03489e-05
5.0359e-05
5.0661e-05
5.06423e-05
5.03474e-05
5.06545e-05
5.06274e-05
5.26635e-05
5.29777e-05
5.03484e-05
5.06382e-05
5.06219e-05
5.29665e-05
5.31206e-05
5.32912e-05
5.07938e-05
5.0786e-05
5.10666e-05
5.1073e-05
5.31176e-05
5.33053e-05
5.07883e-05
5.07748e-05
5.10689e-05
5.10864e-05
5.07697e-05
5.10809e-05
5.11055e-05
5.30976e-05
5.33252e-05
5.07634e-05
5.10935e-05
5.11041e-05
5.33477e-05
5.33167e-05
5.33413e-05
5.11137e-05
5.11351e-05
5.12014e-05
5.11954e-05
5.33493e-05
3.47348e-05
3.47511e-05
3.47585e-05
6.79995e-05
7.29302e-05
6.78868e-05
7.29624e-05
7.07339e-05
7.0749e-05
6.79832e-05
6.78829e-05
7.29628e-05
3.48906e-05
3.49026e-05
3.49047e-05
3.5369e-05
3.53703e-05
3.5366e-05
3.5354e-05
5.95467e-05
6.40505e-05
4.35796e-05
4.90685e-05
5.94403e-05
6.41644e-05
4.37107e-05
7.07243e-05
7.07488e-05
5.95276e-05
4.35913e-05
6.40254e-05
4.90597e-05
5.94445e-05
4.37145e-05
6.41229e-05
6.9332e-05
6.93365e-05
5.16631e-05
6.94405e-05
6.94412e-05
6.8039e-05
7.29611e-05
6.80442e-05
7.29675e-05
7.07529e-05
7.07835e-05
6.80422e-05
7.29642e-05
6.80422e-05
7.29706e-05
3.55239e-05
3.55199e-05
3.55092e-05
3.59372e-05
3.59366e-05
3.59466e-05
3.59472e-05
5.97418e-05
6.41934e-05
4.41168e-05
4.94638e-05
5.96949e-05
6.41739e-05
4.42367e-05
7.07614e-05
7.07875e-05
5.97494e-05
4.41079e-05
6.41993e-05
4.94695e-05
5.96823e-05
4.42332e-05
6.42018e-05
6.94942e-05
6.95004e-05
5.19951e-05
6.94761e-05
6.94876e-05
6.81899e-05
7.30681e-05
6.80519e-05
7.31223e-05
7.08624e-05
7.08862e-05
6.81814e-05
7.30686e-05
6.80559e-05
7.31239e-05
3.60713e-05
3.60817e-05
3.6085e-05
3.65046e-05
3.65076e-05
3.65056e-05
3.6511e-05
5.99087e-05
6.42405e-05
4.45516e-05
4.98231e-05
5.97933e-05
6.43998e-05
4.46658e-05
7.08542e-05
7.08849e-05
5.98983e-05
4.45621e-05
6.42427e-05
4.98228e-05
5.98066e-05
4.46723e-05
6.43643e-05
6.95441e-05
6.95513e-05
5.23214e-05
6.96693e-05
6.9672e-05
6.82627e-05
7.31194e-05
6.82753e-05
7.30984e-05
7.08765e-05
7.08799e-05
6.82659e-05
7.31227e-05
6.82735e-05
7.31001e-05
3.66542e-05
3.66515e-05
3.66565e-05
3.70321e-05
3.703e-05
3.70408e-05
3.70394e-05
6.01067e-05
6.4469e-05
4.50469e-05
5.02158e-05
6.00811e-05
6.44183e-05
4.51614e-05
7.08852e-05
7.08872e-05
6.01164e-05
4.50406e-05
6.4464e-05
5.02187e-05
6.00687e-05
4.51587e-05
6.44503e-05
6.97158e-05
6.97213e-05
5.25766e-05
6.96075e-05
6.962e-05
6.82494e-05
7.31521e-05
6.81936e-05
7.32575e-05
7.09559e-05
7.10391e-05
6.82379e-05
7.3151e-05
6.81954e-05
7.32583e-05
3.7139e-05
3.71511e-05
3.71456e-05
3.75141e-05
3.75108e-05
3.75101e-05
3.74989e-05
6.01117e-05
6.43477e-05
4.54095e-05
5.04235e-05
6.00895e-05
6.44541e-05
4.54835e-05
7.09472e-05
7.10336e-05
6.01096e-05
4.54222e-05
6.43678e-05
5.0428e-05
6.01027e-05
4.54928e-05
6.44063e-05
6.94907e-05
6.95006e-05
5.2688e-05
6.96391e-05
6.96358e-05
6.85528e-05
7.33374e-05
6.84976e-05
7.33355e-05
7.10729e-05
7.10692e-05
6.85579e-05
7.3341e-05
6.84948e-05
7.33392e-05
3.76538e-05
3.76512e-05
3.76426e-05
3.808e-05
3.08097e-05
2.15201e-05
2.15192e-05
6.05349e-05
6.47496e-05
4.58156e-05
5.09062e-05
6.03719e-05
6.48122e-05
4.59521e-05
7.10808e-05
7.10785e-05
6.05339e-05
4.58066e-05
6.47317e-05
5.08991e-05
6.0346e-05
4.59432e-05
6.48293e-05
6.99972e-05
7.00026e-05
5.32478e-05
7.00529e-05
7.0063e-05
6.84607e-05
7.32949e-05
6.85133e-05
7.33013e-05
7.10451e-05
7.10589e-05
7.29181e-05
6.40197e-05
7.07314e-05
6.94145e-05
6.94076e-05
7.07284e-05
7.29038e-05
6.4002e-05
6.40204e-05
4.34539e-05
5.94242e-05
7.29165e-05
6.7871e-05
4.34658e-05
6.39907e-05
5.9423e-05
7.2887e-05
6.78658e-05
7.07194e-05
6.93679e-05
6.93632e-05
7.07155e-05
4.34703e-05
6.40102e-05
5.94339e-05
4.34729e-05
6.39974e-05
5.94327e-05
7.28996e-05
6.78727e-05
7.28852e-05
6.78724e-05
6.93172e-05
6.93261e-05
7.07034e-05
7.07044e-05
7.07485e-05
7.07498e-05
5.17192e-05
6.95106e-05
6.9511e-05
7.07541e-05
7.07473e-05
7.07561e-05
7.07487e-05
5.18071e-05
6.94992e-05
6.95017e-05
6.95164e-05
6.95168e-05
6.79988e-05
7.29298e-05
6.78858e-05
7.29598e-05
5.95667e-05
6.40478e-05
4.35707e-05
4.90654e-05
5.94325e-05
6.41682e-05
4.37068e-05
5.95659e-05
6.40547e-05
4.3568e-05
4.9065e-05
5.9431e-05
6.41701e-05
4.37051e-05
6.80131e-05
7.29636e-05
7.29634e-05
6.80465e-05
6.80121e-05
7.29596e-05
7.29604e-05
6.80448e-05
5.95934e-05
4.91879e-05
6.42035e-05
4.39922e-05
6.41844e-05
4.38498e-05
5.96981e-05
5.95927e-05
4.91879e-05
6.41983e-05
4.3991e-05
6.41851e-05
4.38487e-05
5.96966e-05
6.9452e-05
6.9442e-05
5.17246e-05
6.95159e-05
6.95077e-05
7.07316e-05
7.0748e-05
7.07538e-05
7.07472e-05
5.18117e-05
6.94881e-05
6.94913e-05
6.95201e-05
6.95123e-05
7.07545e-05
7.07469e-05
5.95545e-05
4.35766e-05
4.90643e-05
5.94358e-05
6.41642e-05
4.37097e-05
6.79772e-05
7.29147e-05
6.78778e-05
7.29543e-05
5.95489e-05
4.35793e-05
6.40216e-05
4.90559e-05
5.94335e-05
4.37088e-05
6.41343e-05
6.79991e-05
7.29659e-05
7.29643e-05
6.80435e-05
5.95802e-05
4.91846e-05
6.42015e-05
4.39878e-05
6.41804e-05
4.38486e-05
5.96876e-05
6.79938e-05
7.29658e-05
7.29576e-05
6.80407e-05
5.95745e-05
4.91708e-05
4.39829e-05
6.41947e-05
4.3845e-05
6.41539e-05
5.96836e-05
6.79724e-05
7.29279e-05
6.78831e-05
7.29609e-05
5.95349e-05
4.35844e-05
6.39981e-05
4.90395e-05
5.94364e-05
4.37071e-05
6.40909e-05
6.79612e-05
7.28977e-05
6.78751e-05
7.29473e-05
5.95712e-05
4.91884e-05
6.41976e-05
4.39851e-05
6.41793e-05
4.38474e-05
5.96808e-05
6.79881e-05
7.2964e-05
7.29623e-05
6.80446e-05
5.95596e-05
4.91491e-05
4.39739e-05
6.41949e-05
4.38379e-05
6.41155e-05
5.96755e-05
6.79784e-05
7.29736e-05
7.29533e-05
6.80446e-05
6.94018e-05
6.9394e-05
5.16968e-05
6.94824e-05
6.94722e-05
7.07205e-05
7.07475e-05
7.07611e-05
7.0749e-05
5.17808e-05
6.94983e-05
6.9494e-05
6.94933e-05
6.9484e-05
7.07625e-05
7.07483e-05
5.95211e-05
4.35903e-05
6.40025e-05
4.90376e-05
5.94421e-05
4.37092e-05
6.40842e-05
6.79473e-05
7.29098e-05
6.78779e-05
7.29529e-05
6.79425e-05
7.28952e-05
6.78758e-05
7.29464e-05
5.95502e-05
4.91706e-05
4.3976e-05
6.41975e-05
4.38432e-05
6.41417e-05
5.96642e-05
5.9544e-05
4.91447e-05
4.39678e-05
6.41929e-05
4.38355e-05
6.4108e-05
5.96612e-05
6.79637e-05
7.29731e-05
7.29576e-05
6.80382e-05
6.79596e-05
7.29774e-05
7.29532e-05
6.80386e-05
7.07098e-05
7.07468e-05
7.07107e-05
7.07489e-05
5.17442e-05
6.94942e-05
6.94998e-05
6.9462e-05
6.94633e-05
7.07671e-05
7.07489e-05
7.07709e-05
7.07514e-05
7.07532e-05
7.07807e-05
7.07553e-05
7.07825e-05
6.94692e-05
6.94728e-05
5.19839e-05
6.94179e-05
6.94235e-05
7.08515e-05
7.07889e-05
7.08526e-05
7.07905e-05
5.20368e-05
6.94926e-05
6.94954e-05
6.9412e-05
6.94177e-05
6.80373e-05
7.29569e-05
6.80424e-05
7.29653e-05
5.97353e-05
6.41987e-05
4.41254e-05
4.94695e-05
5.97086e-05
6.41735e-05
4.42434e-05
5.97332e-05
6.41917e-05
4.41237e-05
4.94622e-05
5.97069e-05
6.41634e-05
4.42409e-05
6.8032e-05
7.30486e-05
7.29761e-05
6.80372e-05
6.80305e-05
7.30496e-05
7.29749e-05
6.80367e-05
5.97358e-05
4.9536e-05
6.4188e-05
4.44432e-05
6.41646e-05
4.43469e-05
5.9759e-05
5.97339e-05
4.95296e-05
6.4192e-05
4.44407e-05
6.4157e-05
4.43441e-05
5.97579e-05
6.9459e-05
6.94629e-05
5.19801e-05
6.94111e-05
6.9418e-05
7.07541e-05
7.07839e-05
7.08556e-05
7.07921e-05
5.20333e-05
6.95142e-05
6.95118e-05
6.94081e-05
6.9414e-05
7.08542e-05
7.07922e-05
5.97374e-05
6.41975e-05
4.41203e-05
4.94657e-05
5.96999e-05
6.41761e-05
4.42394e-05
6.80415e-05
7.29655e-05
6.80401e-05
7.29761e-05
5.97377e-05
4.41161e-05
6.41935e-05
4.9468e-05
5.96966e-05
4.42375e-05
6.41908e-05
6.80378e-05
7.30491e-05
7.29786e-05
6.80438e-05
5.974e-05
4.95335e-05
6.41902e-05
4.44444e-05
6.41674e-05
4.43457e-05
5.97663e-05
6.80377e-05
7.30422e-05
7.29828e-05
6.8043e-05
5.97407e-05
4.95459e-05
4.44483e-05
6.42097e-05
4.43472e-05
6.41879e-05
5.97677e-05
6.80484e-05
7.29626e-05
6.80449e-05
7.29725e-05
5.97461e-05
4.41085e-05
6.42011e-05
4.94669e-05
5.96916e-05
4.42343e-05
6.42091e-05
6.80522e-05
7.29746e-05
6.80463e-05
7.29848e-05
5.9746e-05
4.95332e-05
6.42019e-05
4.44468e-05
6.41674e-05
4.43449e-05
5.97788e-05
6.80452e-05
7.30529e-05
7.29815e-05
6.80554e-05
5.9751e-05
4.95522e-05
4.44538e-05
6.42235e-05
4.43484e-05
6.42073e-05
5.97828e-05
6.80493e-05
7.30424e-05
7.29902e-05
6.8057e-05
6.94865e-05
6.94883e-05
5.19934e-05
6.94537e-05
6.94626e-05
7.07633e-05
7.07887e-05
7.08467e-05
7.07938e-05
5.20551e-05
6.9502e-05
6.95035e-05
6.94495e-05
6.94589e-05
7.08442e-05
7.07944e-05
5.97509e-05
4.41015e-05
6.42013e-05
4.9463e-05
5.96803e-05
4.42293e-05
6.42161e-05
6.80592e-05
7.29738e-05
6.80439e-05
7.29855e-05
6.80614e-05
7.29792e-05
6.80449e-05
7.29909e-05
5.97566e-05
4.95507e-05
4.44567e-05
6.42249e-05
4.43489e-05
6.42004e-05
5.97949e-05
5.97583e-05
4.95506e-05
4.44566e-05
6.42324e-05
4.43474e-05
6.42151e-05
5.9796e-05
6.80578e-05
7.30415e-05
7.29911e-05
6.80681e-05
6.806e-05
7.30409e-05
7.29954e-05
6.8069e-05
7.07682e-05
7.07923e-05
7.07721e-05
7.07961e-05
5.20625e-05
6.94978e-05
6.95081e-05
6.94707e-05
6.94827e-05
7.08463e-05
7.07976e-05
7.08481e-05
7.08011e-05
7.08596e-05
7.08867e-05
7.08608e-05
7.08885e-05
6.95565e-05
6.95586e-05
5.23081e-05
6.96943e-05
6.96971e-05
7.08846e-05
7.0885e-05
7.08867e-05
7.08869e-05
5.24065e-05
6.97278e-05
6.97323e-05
6.97147e-05
6.97177e-05
6.81893e-05
7.30685e-05
6.80517e-05
7.31193e-05
5.9903e-05
6.42255e-05
4.45438e-05
4.9816e-05
5.97743e-05
6.43943e-05
4.46571e-05
5.99028e-05
6.42354e-05
4.45423e-05
4.98171e-05
5.97735e-05
6.43973e-05
4.46565e-05
6.82136e-05
7.3129e-05
7.31272e-05
6.82754e-05
6.82125e-05
7.3124e-05
7.31234e-05
6.82732e-05
5.99353e-05
4.99353e-05
6.44755e-05
4.49174e-05
6.44266e-05
4.47841e-05
6.00717e-05
5.99349e-05
4.99365e-05
6.44681e-05
4.49166e-05
6.44275e-05
4.47837e-05
6.00698e-05
6.95748e-05
6.95703e-05
5.23168e-05
6.96997e-05
6.96961e-05
7.08614e-05
7.0886e-05
7.08829e-05
7.08839e-05
5.24139e-05
6.97226e-05
6.97223e-05
6.97176e-05
6.97136e-05
7.08834e-05
7.08841e-05
5.98996e-05
6.42256e-05
4.45463e-05
4.98137e-05
5.97805e-05
6.43927e-05
4.46588e-05
6.81756e-05
7.30586e-05
6.80542e-05
7.3113e-05
5.98962e-05
4.45507e-05
6.42317e-05
4.98165e-05
5.97813e-05
4.46616e-05
6.43692e-05
6.82053e-05
7.31319e-05
7.31291e-05
6.82727e-05
5.99303e-05
4.99324e-05
6.44756e-05
4.49153e-05
6.4425e-05
4.47839e-05
6.0065e-05
6.81999e-05
7.31273e-05
7.31191e-05
6.82686e-05
5.99261e-05
4.99269e-05
4.49128e-05
6.44609e-05
4.47839e-05
6.43991e-05
6.00603e-05
6.81853e-05
7.30714e-05
6.80676e-05
7.31225e-05
5.99046e-05
4.45587e-05
6.42413e-05
4.98295e-05
5.97959e-05
4.46702e-05
6.43728e-05
6.8179e-05
7.30588e-05
6.80672e-05
7.31147e-05
5.99378e-05
4.99409e-05
6.44714e-05
4.49206e-05
6.44287e-05
4.47907e-05
6.00664e-05
6.82081e-05
7.31285e-05
7.31269e-05
6.8273e-05
5.99333e-05
4.99395e-05
4.49198e-05
6.44695e-05
4.4792e-05
6.44039e-05
6.0064e-05
6.82028e-05
7.31305e-05
7.31214e-05
6.82725e-05
6.95495e-05
6.95456e-05
5.23038e-05
6.9668e-05
6.96578e-05
7.08515e-05
7.08837e-05
7.08894e-05
7.08844e-05
5.23925e-05
6.97125e-05
6.97058e-05
6.96895e-05
6.96789e-05
7.08904e-05
7.08837e-05
5.9898e-05
4.45627e-05
6.42477e-05
4.98281e-05
5.98073e-05
4.4673e-05
6.43688e-05
6.81611e-05
7.30567e-05
6.80758e-05
7.31128e-05
6.81608e-05
7.30564e-05
6.8076e-05
7.31139e-05
5.99238e-05
4.99301e-05
4.49152e-05
6.44617e-05
4.47903e-05
6.43929e-05
6.00505e-05
5.99236e-05
4.99361e-05
4.4916e-05
6.44692e-05
4.47911e-05
6.43991e-05
6.00508e-05
6.81835e-05
7.31332e-05
7.31202e-05
6.82673e-05
6.81832e-05
7.31341e-05
7.31216e-05
6.82675e-05
7.08541e-05
7.08856e-05
7.08558e-05
7.0888e-05
5.24105e-05
6.97191e-05
6.97237e-05
6.96921e-05
6.9695e-05
7.08881e-05
7.08848e-05
7.08916e-05
7.08876e-05
7.08785e-05
7.08805e-05
7.08805e-05
7.08819e-05
6.97081e-05
6.97144e-05
5.25702e-05
6.95746e-05
6.95812e-05
7.09418e-05
7.08837e-05
7.09424e-05
7.08849e-05
5.26005e-05
6.95081e-05
6.95124e-05
6.95421e-05
6.95479e-05
6.82604e-05
7.31144e-05
6.82729e-05
7.30947e-05
6.01037e-05
6.44737e-05
4.50472e-05
5.02192e-05
6.00848e-05
6.442e-05
4.51622e-05
6.01013e-05
6.44656e-05
4.50453e-05
5.02116e-05
6.00827e-05
6.44078e-05
4.51595e-05
6.82389e-05
7.3129e-05
7.30963e-05
6.82008e-05
6.8237e-05
7.31253e-05
7.3093e-05
6.81993e-05
6.00977e-05
5.02678e-05
6.43493e-05
4.53362e-05
6.43862e-05
4.52584e-05
6.00904e-05
6.00954e-05
5.02602e-05
6.43428e-05
4.53331e-05
6.43769e-05
4.52553e-05
6.00884e-05
6.96941e-05
6.96982e-05
5.25658e-05
6.95663e-05
6.95729e-05
7.08773e-05
7.08796e-05
7.09412e-05
7.08831e-05
5.25949e-05
6.95061e-05
6.95081e-05
6.95373e-05
6.95421e-05
7.09384e-05
7.08826e-05
6.01055e-05
6.4474e-05
4.50443e-05
5.02163e-05
6.008e-05
6.44225e-05
4.51599e-05
6.8265e-05
7.31236e-05
6.82702e-05
7.3105e-05
6.0105e-05
4.5041e-05
6.44616e-05
5.02154e-05
6.00762e-05
4.5158e-05
6.44383e-05
6.82451e-05
7.31278e-05
7.30975e-05
6.82046e-05
6.01003e-05
5.02651e-05
6.43495e-05
4.53371e-05
6.4388e-05
4.52578e-05
6.0094e-05
6.82459e-05
7.31191e-05
7.31011e-05
6.82042e-05
6.01002e-05
5.02746e-05
4.53406e-05
6.43641e-05
4.52588e-05
6.44086e-05
6.00943e-05
6.82671e-05
7.31195e-05
6.82737e-05
7.3099e-05
6.01084e-05
4.50464e-05
6.44706e-05
5.02234e-05
6.00799e-05
4.51629e-05
6.44444e-05
6.82694e-05
7.31268e-05
6.82739e-05
7.31027e-05
6.01015e-05
5.0265e-05
6.43498e-05
4.53385e-05
6.43859e-05
4.52586e-05
6.00948e-05
6.82476e-05
7.31237e-05
7.30966e-05
6.8206e-05
6.01033e-05
5.02781e-05
4.5343e-05
6.43488e-05
4.52624e-05
6.44087e-05
6.00945e-05
6.82505e-05
7.31058e-05
7.30962e-05
6.82045e-05
6.97083e-05
6.97039e-05
5.25749e-05
6.96131e-05
6.9625e-05
7.08868e-05
7.08888e-05
7.0934e-05
7.08882e-05
5.26128e-05
6.95296e-05
6.9536e-05
6.95797e-05
6.95913e-05
7.09291e-05
7.08888e-05
6.01151e-05
4.50414e-05
6.44711e-05
5.02201e-05
6.0069e-05
4.51592e-05
6.44509e-05
6.82759e-05
7.31314e-05
6.82711e-05
7.31149e-05
6.82756e-05
7.3132e-05
6.82713e-05
7.31095e-05
6.01132e-05
5.02809e-05
4.5349e-05
6.43773e-05
4.52628e-05
6.44258e-05
6.0109e-05
6.01115e-05
5.02769e-05
4.53464e-05
6.43568e-05
4.52621e-05
6.44183e-05
6.01056e-05
6.82656e-05
7.31169e-05
7.31089e-05
6.82234e-05
6.82643e-05
7.31059e-05
7.31015e-05
6.82195e-05
7.08828e-05
7.08804e-05
7.08867e-05
7.08843e-05
5.26071e-05
6.94964e-05
6.95073e-05
6.95655e-05
6.95783e-05
7.09225e-05
7.08799e-05
7.09237e-05
7.08834e-05
7.09569e-05
7.10395e-05
7.09576e-05
7.10413e-05
6.95169e-05
6.95201e-05
5.27329e-05
6.97479e-05
6.97503e-05
7.10712e-05
7.10468e-05
7.10738e-05
7.10488e-05
5.2838e-05
6.99589e-05
6.99645e-05
6.98159e-05
6.98192e-05
6.8247e-05
7.31471e-05
6.81921e-05
7.3252e-05
6.01241e-05
6.43479e-05
4.54064e-05
5.04282e-05
6.00863e-05
6.44711e-05
4.54833e-05
6.01218e-05
6.43419e-05
4.54036e-05
5.04193e-05
6.00843e-05
6.44613e-05
4.54805e-05
6.82927e-05
7.33335e-05
7.32801e-05
6.84723e-05
6.82892e-05
7.33324e-05
7.32749e-05
6.84704e-05
6.01533e-05
5.0537e-05
6.47222e-05
4.56956e-05
6.45324e-05
4.55789e-05
6.03484e-05
6.01509e-05
5.0527e-05
6.47127e-05
4.56922e-05
6.45205e-05
4.55755e-05
6.03454e-05
6.95155e-05
6.95145e-05
5.27238e-05
6.97373e-05
6.97274e-05
7.09532e-05
7.10378e-05
7.10752e-05
7.1047e-05
5.28274e-05
6.99577e-05
6.99532e-05
6.98061e-05
6.97957e-05
7.10773e-05
7.10466e-05
6.01196e-05
6.43476e-05
4.54081e-05
5.04259e-05
6.00893e-05
6.44665e-05
4.54842e-05
6.82287e-05
7.31367e-05
6.8194e-05
7.32414e-05
6.01152e-05
4.54123e-05
6.43577e-05
5.04229e-05
6.00893e-05
4.54861e-05
6.44227e-05
6.82789e-05
7.33369e-05
7.32817e-05
6.84669e-05
6.01465e-05
5.05325e-05
6.47217e-05
4.56931e-05
6.45286e-05
4.55778e-05
6.03387e-05
6.82702e-05
7.3336e-05
7.32673e-05
6.8461e-05
6.01407e-05
5.05186e-05
4.56886e-05
6.46962e-05
4.55762e-05
6.44828e-05
6.03314e-05
6.82227e-05
7.31444e-05
6.81948e-05
7.32509e-05
6.01046e-05
4.54118e-05
6.43379e-05
5.04044e-05
6.00883e-05
4.54813e-05
6.43805e-05
6.82117e-05
7.31219e-05
6.81912e-05
7.32322e-05
6.01353e-05
5.05279e-05
6.47108e-05
4.56866e-05
6.45119e-05
4.5574e-05
6.03224e-05
6.82583e-05
7.33404e-05
7.32758e-05
6.84574e-05
6.01266e-05
5.04997e-05
4.56781e-05
6.46905e-05
4.55676e-05
6.44455e-05
6.03151e-05
6.8247e-05
7.33445e-05
7.32626e-05
6.84535e-05
6.9528e-05
6.95315e-05
5.272e-05
6.969e-05
6.9662e-05
7.09414e-05
7.10279e-05
7.1082e-05
7.10444e-05
5.28081e-05
6.99509e-05
6.99374e-05
6.97669e-05
6.97406e-05
7.10838e-05
7.10402e-05
6.01045e-05
4.5417e-05
6.43442e-05
5.04038e-05
6.00988e-05
4.54855e-05
6.43757e-05
6.82072e-05
7.31302e-05
6.82054e-05
7.32313e-05
6.82021e-05
7.31192e-05
6.82009e-05
7.32265e-05
6.01249e-05
5.05189e-05
4.56805e-05
6.46814e-05
4.55756e-05
6.44601e-05
6.0292e-05
6.01196e-05
5.04963e-05
4.56732e-05
6.46836e-05
4.55674e-05
6.44354e-05
6.02893e-05
6.82298e-05
7.33419e-05
7.32604e-05
6.84346e-05
6.82247e-05
7.33467e-05
7.32586e-05
6.84335e-05
7.09363e-05
7.10315e-05
7.09373e-05
7.10323e-05
5.27779e-05
6.99538e-05
6.99572e-05
6.97316e-05
6.97298e-05
7.10908e-05
7.10451e-05
7.10948e-05
7.10466e-05
7.10688e-05
7.10639e-05
7.10714e-05
7.10663e-05
6.99785e-05
6.99847e-05
5.32168e-05
6.99864e-05
6.99939e-05
7.10493e-05
7.10536e-05
7.1051e-05
7.10559e-05
5.32712e-05
6.98405e-05
6.98485e-05
6.99579e-05
6.99668e-05
6.85529e-05
7.33375e-05
6.84959e-05
7.33384e-05
6.05231e-05
6.47538e-05
4.58268e-05
5.09064e-05
6.03914e-05
6.47947e-05
4.59585e-05
6.05227e-05
6.47488e-05
4.5823e-05
5.09043e-05
6.03889e-05
6.48009e-05
4.59558e-05
6.85519e-05
7.3299e-05
7.33236e-05
6.85337e-05
6.8552e-05
7.32975e-05
7.33276e-05
6.85344e-05
6.05317e-05
5.10024e-05
6.02826e-05
4.61878e-05
6.47914e-05
4.60821e-05
5.61203e-05
6.05317e-05
5.10025e-05
5.72626e-05
4.61874e-05
6.47997e-05
4.60807e-05
5.61207e-05
6.99827e-05
6.99802e-05
5.3226e-05
7.00014e-05
7.00047e-05
7.10756e-05
7.10722e-05
7.10485e-05
7.10581e-05
5.32841e-05
6.98552e-05
6.98676e-05
6.99861e-05
6.99949e-05
7.10484e-05
7.10609e-05
6.05248e-05
6.47541e-05
4.5823e-05
5.0905e-05
6.03838e-05
6.47971e-05
4.59555e-05
6.85591e-05
7.33436e-05