/*--------------------------------*- C++ -*----------------------------------*\
| =========                 |                                                 |
| \\      /  F ield         | OpenFOAM: The Open Source CFD Toolbox           |
|  \\    /   O peration     | Version:  v2006                                 |
|   \\  /    A nd           | Website:  www.openfoam.com                      |
|    \\/     M anipulation  |                                                 |
\*---------------------------------------------------------------------------*/
FoamFile
{
    version     2.0;
    format      ascii;
    class       volScalarField;
    location    "875";
    object      nut;
}
// * * * * * * * * * * * * * * * * * * * * * * * * * * * * * * * * * * * * * //

dimensions      [0 2 -1 0 0 0 0];


internalField   nonuniform List<scalar> 
14404
(
0.000200533
0.000200513
0.00018179
0.000206472
2.3892e-05
0.000103687
5.07375e-05
9.98993e-05
0.000210054
0.000103646
0.000144172
7.79173e-05
7.79553e-05
2.38941e-05
5.07447e-05
7.90584e-05
2.03172e-05
4.10549e-05
9.44857e-05
3.67124e-05
0.000128716
4.86466e-05
0.000105063
0.000105151
0.000128753
4.86601e-05
7.79518e-05
0.000128841
0.000105064
4.86675e-05
2.17106e-05
2.17141e-05
8.12914e-05
2.38965e-05
5.07482e-05
7.91092e-05
0.000138278
0.00016165
0.000161673
0.000181991
0.00016178
0.000138155
0.000161751
0.000203103
0.000160942
0.000147619
0.000103729
0.000147694
0.000122906
0.000147579
0.000122782
0.000160794
0.000176527
0.000137624
0.000171334
9.98875e-05
5.07627e-05
5.07582e-05
2.3904e-05
2.39014e-05
0.000182233
7.79258e-05
7.7928e-05
0.000144315
0.000200848
0.000103629
0.000210525
0.000200856
0.000103633
3.67202e-05
9.98762e-05
4.10658e-05
9.44551e-05
4.10613e-05
9.44362e-05
3.67249e-05
2.03219e-05
7.90342e-05
5.07533e-05
7.89879e-05
2.03255e-05
5.07488e-05
2.38947e-05
2.39e-05
2.38975e-05
8.15546e-05
2.17276e-05
2.17242e-05
2.17244e-05
2.1721e-05
8.16701e-05
0.000105212
4.86873e-05
7.78396e-05
0.000128896
4.86776e-05
0.000105387
0.000128714
0.000105218
4.86747e-05
7.7842e-05
0.000128883
4.86653e-05
0.000105394
0.0001287
2.03196e-05
5.07414e-05
7.90503e-05
3.67157e-05
9.99152e-05
4.10584e-05
9.44907e-05
0.000105144
7.79113e-05
4.86546e-05
0.000128788
8.13793e-05
2.1716e-05
2.17195e-05
0.000138288
0.000182013
0.000161943
0.000161931
0.000138517
0.000161793
0.00016178
0.000171536
0.000144247
0.000137699
0.000176855
0.00013764
0.000176763
0.000171635
0.000160883
0.000122792
0.000103577
0.000147696
0.000122724
0.000147611
0.000160983
0.000103578
0.000147691
0.000147604
0.000160894
0.00010367
0.000122828
0.000147639
0.000171446
0.000144279
0.000176637
0.000137705
0.000172526
0.000186819
0.00018684
0.000172769
0.000187363
0.000183214
5.05618e-05
2.38164e-05
2.38081e-05
2.38134e-05
2.38055e-05
0.000171977
7.72528e-05
7.72415e-05
7.70698e-05
7.70713e-05
9.84064e-05
5.05647e-05
5.05416e-05
9.84565e-05
9.84007e-05
5.05367e-05
9.84532e-05
0.000139531
0.000186381
0.000101865
0.00019243
0.000101717
0.000191896
0.000139689
0.00013952
0.000186308
0.000192409
0.000101667
0.000191872
0.000139682
2.38059e-05
0.000171909
7.70317e-05
7.70703e-05
2.38068e-05
9.84399e-05
5.05576e-05
5.05373e-05
9.84637e-05
0.000139593
0.000186399
0.000101854
0.000192485
0.000101723
0.000191934
0.00013973
9.84391e-05
5.0534e-05
9.84585e-05
0.000139607
0.000186518
0.000192528
0.000191971
0.000101797
0.000139731
0.000139633
0.00018637
0.000101726
0.000191943
9.84691e-05
5.0539e-05
0.000139676
0.000186678
0.000192051
0.000101882
9.84868e-05
5.05355e-05
2.38039e-05
0.000172186
7.7134e-05
7.71752e-05
2.38054e-05
0.000139722
0.000186577
0.000192043
0.000101852
0.000139738
0.000186705
0.000192088
0.000101893
9.85072e-05
5.05387e-05
9.85168e-05
5.05346e-05
0.00017234
7.71924e-05
7.7196e-05
2.38037e-05
2.38028e-05
2.3817e-05
2.3814e-05
7.73022e-05
7.7289e-05
0.000101889
2.02439e-05
7.84859e-05
7.84931e-05
2.02462e-05
2.02556e-05
7.85841e-05
5.05682e-05
2.02537e-05
7.866e-05
2.38132e-05
2.38119e-05
2.38102e-05
2.38089e-05
8.11188e-05
2.16466e-05
2.16441e-05
8.1013e-05
2.16497e-05
2.16472e-05
0.000103926
0.000125879
7.71599e-05
4.84957e-05
4.84891e-05
0.000125669
0.000104071
0.000103904
0.000125855
7.71502e-05
4.84807e-05
4.84742e-05
0.000125646
0.000104056
0.000103836
4.84741e-05
0.000125468
7.71045e-05
0.000103666
4.84842e-05
0.000125597
0.000103811
4.84601e-05
0.000125458
7.70992e-05
0.000103639
4.84697e-05
0.000125577
8.11993e-05
2.16511e-05
2.16484e-05
2.165e-05
2.16473e-05
8.12769e-05
3.65786e-05
4.08933e-05
9.32826e-05
9.84062e-05
3.65744e-05
4.08976e-05
9.32843e-05
2.02511e-05
5.05557e-05
7.85759e-05
2.0254e-05
7.84787e-05
2.02503e-05
7.84374e-05
5.05502e-05
2.02472e-05
7.84641e-05
3.65806e-05
9.84052e-05
4.09047e-05
9.33568e-05
3.65853e-05
4.08998e-05
9.32869e-05
3.65765e-05
4.08933e-05
9.32662e-05
9.84009e-05
3.65722e-05
4.08976e-05
9.32687e-05
2.02489e-05
7.84104e-05
5.05457e-05
2.02456e-05
7.84423e-05
3.65785e-05
9.84008e-05
4.09047e-05
9.33475e-05
4.08998e-05
9.32744e-05
3.65832e-05
2.38098e-05
8.11354e-05
2.16444e-05
2.16474e-05
8.10196e-05
2.16476e-05
2.16505e-05
0.000103825
4.84623e-05
0.000125387
7.70987e-05
0.000125552
0.000103639
4.84726e-05
0.000103836
4.8473e-05
0.000125456
7.71157e-05
0.000103654
4.84828e-05
0.000125601
2.38106e-05
3.65777e-05
9.33101e-05
4.08927e-05
9.84372e-05
3.65738e-05
9.3306e-05
4.08963e-05
2.02505e-05
5.05491e-05
7.85637e-05
2.02534e-05
7.84743e-05
2.02498e-05
7.8458e-05
5.05444e-05
2.02468e-05
7.84706e-05
3.65795e-05
9.84297e-05
9.33558e-05
4.09028e-05
3.65839e-05
9.33032e-05
4.08982e-05
3.65749e-05
4.08922e-05
9.33197e-05
9.84431e-05
3.65713e-05
4.08957e-05
9.33188e-05
2.0248e-05
7.84678e-05
5.05397e-05
2.02453e-05
7.84669e-05
3.65766e-05
9.84258e-05
4.09021e-05
9.33374e-05
4.08976e-05
9.32993e-05
3.65809e-05
3.65779e-05
9.33184e-05
4.08929e-05
9.84681e-05
3.65741e-05
9.33238e-05
4.08964e-05
2.02499e-05
7.84579e-05
5.05466e-05
2.02469e-05
7.8474e-05
3.65755e-05
4.08933e-05
9.33695e-05
9.84883e-05
3.65726e-05
4.08965e-05
9.33695e-05
2.02472e-05
7.85047e-05
5.05389e-05
2.02451e-05
7.84984e-05
2.38068e-05
8.1077e-05
2.16402e-05
2.16437e-05
8.09973e-05
2.16433e-05
2.16467e-05
0.00010381
4.84564e-05
0.000125611
7.71265e-05
0.000125662
0.000103709
4.84637e-05
0.000103818
4.8469e-05
0.000125663
7.71662e-05
0.000103713
4.84758e-05
0.000125721
2.3808e-05
3.65769e-05
9.33714e-05
4.08932e-05
9.85162e-05
3.6574e-05
9.33782e-05
4.08961e-05
2.02485e-05
7.85149e-05
5.05431e-05
2.02463e-05
7.85123e-05
3.65746e-05
9.33905e-05
4.08931e-05
9.85244e-05
3.6572e-05
9.33933e-05
4.08959e-05
2.02466e-05
7.85199e-05
5.05372e-05
2.02449e-05
7.85137e-05
8.09533e-05
2.16384e-05
2.16354e-05
8.09443e-05
2.16416e-05
2.16385e-05
0.000103774
4.8463e-05
0.000125766
7.71787e-05
0.000103778
0.000125772
4.84667e-05
0.000103783
4.84522e-05
0.000125759
7.71815e-05
0.000103787
0.000125766
4.84556e-05
2.38059e-05
2.38048e-05
2.38188e-05
2.38159e-05
0.000104236
0.000125985
4.84978e-05
7.73726e-05
0.000104145
4.85007e-05
0.000126182
0.000104221
0.000125961
4.84829e-05
7.73584e-05
0.000104132
4.84859e-05
0.000126153
8.1373e-05
2.16505e-05
2.16478e-05
8.1331e-05
2.16507e-05
2.1648e-05
0.000134742
0.000172316
0.00015539
0.000155369
0.000155227
0.000155206
0.000134973
0.000135302
0.00015565
0.000155628
0.000173
0.000135117
0.000155816
0.000155793
0.000182464
0.000174589
0.000174604
0.000173676
0.000173672
0.000159184
0.000160144
0.000182425
0.000174579
0.000173664
0.000173664
0.000159181
0.000160145
0.00018254
0.000174635
0.000173685
0.000173684
0.00015917
0.000160148
0.000182638
0.000173716
0.00017371
0.000159172
0.00016016
0.000134618
0.000172148
0.000154911
0.000154891
0.000134404
0.000155036
0.000155016
0.000163065
0.00013356
0.000167443
0.000139581
0.00016298
0.000133605
0.000167528
0.00015414
0.000142554
0.000101743
0.000119943
0.00014244
0.000119802
0.000154262
0.000154064
0.000119762
0.000142274
0.000101749
0.000142344
0.000153981
0.000119817
0.000163196
0.00013959
0.000133723
0.00016776
0.000133618
0.00016766
0.000163291
0.000163033
0.000133532
0.00016743
0.000139572
0.000162947
0.000133579
0.000167515
0.000154012
0.000119722
0.000142205
0.000101713
0.000153924
0.000119783
0.000142285
0.000163167
0.000139581
0.000133705
0.000167749
0.000133595
0.000167648
0.000163264
0.000134611
0.000172092
0.00015483
0.000154871
0.000154969
0.000134384
0.00015501
0.000153881
0.000119825
0.000119801
0.000153958
0.000163106
0.000133604
0.00016751
0.000139646
0.000163019
0.000133648
0.000167597
0.000154166
0.000142555
0.000101743
0.000119947
0.000142446
0.000119821
0.000154283
0.000154092
0.00011979
0.000142286
0.000101753
0.000142354
0.000154008
0.00011984
0.000163239
0.000139649
0.000133746
0.000167824
0.000133655
0.000167732
0.000163332
0.000163157
0.000167531
0.000133647
0.000139658
0.000163071
0.000167617
0.000133686
0.000154188
0.000119858
0.000142415
0.000101804
0.000154111
0.000119886
0.00014246
0.000163281
0.000139659
0.000167839
0.000133752
0.00016775
0.000133683
0.00016337
0.000163123
0.000133624
0.000167549
0.000139693
0.000163032
0.000133675
0.000167639
0.000154095
0.000119794
0.000142282
0.000101766
0.000154004
0.000142359
0.000119852
0.00016325
0.000167604
0.000133738
0.000139731
0.000163164
0.000167691
0.000133773
0.000154315
0.000119962
0.000142572
0.000101885
0.000154242
0.000119983
0.000142597
0.000134689
0.00017234
0.00015509
0.000155122
0.000155176
0.000134569
0.000155209
0.000163249
0.000167651
0.000133739
0.000139787
0.000163157
0.000167744
0.000133787
0.00015427
0.000119935
0.000142487
0.000101859
0.000154191
0.000142534
0.00011996
0.000163293
0.000167672
0.000133782
0.000139801
0.000163204
0.000167763
0.000133818
0.000154342
0.000119989
0.000142584
0.000101896
0.000154267
0.000120013
0.000142609
0.000134721
0.00017248
0.000155266
0.000155261
0.000134708
0.000155313
0.000155308
0.000154577
0.000142727
0.000119968
0.00010204
0.000120154
0.000154426
0.00014286
9.84544e-05
2.38031e-05
0.000186121
0.000101871
0.00013959
0.00019133
9.84546e-05
5.05318e-05
0.000139605
0.000186085
0.00019135
0.000101822
0.000172065
7.7159e-05
7.71961e-05
2.38047e-05
5.0537e-05
3.65693e-05
9.84441e-05
9.33293e-05
4.08912e-05
9.33277e-05
4.08882e-05
3.65723e-05
2.38009e-05
3.65673e-05
9.84414e-05
4.08907e-05
9.33415e-05
4.08878e-05
9.33342e-05
3.65701e-05
2.0243e-05
5.0529e-05
7.84931e-05
7.85003e-05
2.02449e-05
8.0919e-05
2.1639e-05
2.16425e-05
2.16354e-05
2.1639e-05
8.0934e-05
0.000103721
7.71693e-05
4.84535e-05
0.000125629
4.84493e-05
0.000125617
0.000103719
0.000103717
7.72065e-05
4.84663e-05
0.000125681
0.000125654
4.84621e-05
0.000103721
2.38028e-05
5.05349e-05
0.000172695
0.000181702
0.000172688
0.000101859
0.000142449
0.000142402
0.000162787
0.000139509
0.000133613
0.000167347
0.000133561
0.000167244
0.000162882
0.000162829
0.000139521
0.000167364
0.000133656
0.000167258
0.000133599
0.000162927
0.000153968
0.000101812
0.000119889
0.00014239
0.00011986
0.00015405
0.000142349
0.000134535
0.000171908
0.000155023
0.000155049
0.000154977
0.000154953
0.000134582
0.000183985
0.000187376
0.000187449
0.000172772
0.000187428
0.000189686
0.000189579
0.000174216
0.000190166
0.000191002
0.000191103
0.000175358
0.0001934
0.000193395
0.00019329
0.000177079
0.000196022
0.000194287
0.000194424
0.000177309
0.000198808
0.000196453
0.000196326
0.000179204
0.000186764
0.000172504
0.000186929
0.000186833
0.000187036
0.000172631
0.000187001
0.000187071
0.00017269
0.000174303
0.000187344
0.000187317
0.000189215
0.00018921
0.000172769
0.000174311
0.000187386
0.000189199
0.000189074
0.000187397
0.000189216
0.000188938
0.000172793
0.000174182
0.000187428
0.000189068
0.000188926
0.000174025
0.000174401
0.000175012
0.000189705
0.000189683
0.000190567
0.000190533
0.000174396
0.000175003
0.000189689
0.000189589
0.000190569
0.000190658
0.000189495
0.000190578
0.000190708
0.000174321
0.000175158
0.00018948
0.000190714
0.000190732
0.000175209
0.000175157
0.000176962
0.000190957
0.000190954
0.000192809
0.00019281
0.000175175
0.000176976
0.000190965
0.000191042
0.000192805
0.000192708
0.000191105
0.000192841
0.000192777
0.000175295
0.000176858
0.000191133
0.000192725
0.000192773
0.000176938
0.00017709
0.000177385
0.000193388
0.000193373
0.000194151
0.000194111
0.00017709
0.00017736
0.000193388
0.000193285
0.000194157
0.000194239
0.000193354
0.000194164
0.000194253
0.000177004
0.000177505
0.000193346
0.000194309
0.000194283
0.000177446
0.000177294
0.000179046
0.000194264
0.00019424
0.000195763
0.000195698
0.000177269
0.000178984
0.000194276
0.000194353
0.000195759
0.000195603
0.000194303
0.000195709
0.000195477
0.000177414
0.000178822
0.000194339
0.000195595
0.00019547
0.000178709
0.000179451
0.000180678
0.000196508
0.000196462
0.000198247
0.000198271
0.000179406
0.00018075
0.000196509
0.000196359
0.000198257
0.000198336
0.000196278
0.000198328
0.000198455
0.000179257
0.000180839
0.000196261
0.000198383
0.000198468
0.000180975
0.000180628
0.000180838
0.000198548
0.000198678
0.000198949
0.000198913
0.000180803
0.000183186
0.000183324
0.000183415
9.87358e-05
5.05689e-05
9.84777e-05
5.05803e-05
2.38147e-05
2.38173e-05
9.86963e-05
9.84766e-05
5.05743e-05
0.00018397
0.000184084
0.000184133
0.000186564
0.000186578
0.000186512
0.000186414
0.000140143
0.000101913
0.000193074
0.000187992
0.000139792
0.00010223
0.000193692
2.38116e-05
2.38159e-05
0.000140086
0.000193175
0.000101881
0.000187954
0.000139836
0.000193736
0.000102128
7.71367e-05
7.71311e-05
0.000173226
7.732e-05
7.73033e-05
9.88728e-05
5.05799e-05
9.88723e-05
5.05817e-05
2.3818e-05
2.38229e-05
9.88718e-05
5.05752e-05
9.88597e-05
5.05769e-05
0.000187433
0.000187352
0.000187256
0.00018953
0.000189517
0.000189581
0.000189576
0.000140923
0.00010234
0.000195792
0.000190021
0.000140715
0.000102296
0.000196406
2.38181e-05
2.38223e-05
0.000140932
0.000195702
0.000102332
0.000190011
0.000140644
0.000196348
0.000102347
7.74217e-05
7.74128e-05
0.000174692
7.73892e-05
7.73888e-05
9.908e-05
5.06158e-05
9.87915e-05
5.06352e-05
2.38361e-05
2.38404e-05
9.90597e-05
5.06101e-05
9.88061e-05
5.063e-05
0.000190172
0.00019025
0.000190271
0.000192515
0.000192546
0.000192501
0.000192552
0.000141332
0.000102284
0.000197821
0.000191565
0.000140975
0.000102697
0.00019835
2.38334e-05
2.38388e-05
0.000141313
0.000197899
0.000102327
0.000191581
0.00014105
0.000198405
0.000102618
7.73975e-05
7.73939e-05
0.000176026
7.76127e-05
7.75996e-05
9.93324e-05
5.06352e-05
9.93058e-05
5.06275e-05
2.38389e-05
2.38393e-05
9.93318e-05
5.06305e-05
9.92943e-05
5.06223e-05
0.000193415
0.000193346
0.000193403
0.000195511
0.000195496
0.000195564
0.000195585
0.000142206
0.000102931
0.000200418
0.000193807
0.00014202
0.000102879
0.000201084
2.3839e-05
2.38392e-05
0.00014222
0.000200346
0.000102893
0.000193776
0.000141948
0.000201031
0.000102934
7.77379e-05
7.77253e-05
0.000177427
7.76042e-05
7.76057e-05
9.91552e-05
5.06444e-05
9.91441e-05
5.0681e-05
2.38516e-05
2.38657e-05
9.91303e-05
5.06383e-05
9.91509e-05
5.06754e-05
0.000196016
0.000196105
0.000196088
0.000197951
0.000197921
0.000197898
0.00019779
0.000142082
0.0001026
0.000202332
0.000194558
0.000142147
0.000102753
0.000202619
2.38488e-05
2.38634e-05
0.000142113
0.000202425
0.000102688
0.000194618
0.000142209
0.000202701
0.000102657
7.73187e-05
7.73224e-05
0.000177491
7.74424e-05
7.7419e-05
9.98318e-05
5.07098e-05
9.96792e-05
5.07097e-05
2.38718e-05
2.38713e-05
9.98359e-05
5.07053e-05
9.96647e-05
5.07052e-05
0.000198769
0.000198708
0.000198616
0.000201499
0.000196237
0.000184143
0.000184123
0.000143575
0.000103428
0.000204292
0.000197193
0.000142876
0.000103642
0.000205115
2.38718e-05
2.38715e-05
0.000143545
0.000204209
0.000103356
0.000197105
0.00014276
0.000205022
0.000103662
7.80151e-05
7.80031e-05
0.000180268
7.81573e-05
7.81522e-05
9.9686e-05
5.06893e-05
9.97996e-05
5.06911e-05
2.38658e-05
2.38679e-05
5.05598e-05
0.000101858
2.38142e-05
7.72533e-05
7.72612e-05
2.38149e-05
5.05512e-05
0.00010184
0.000101877
0.000192508
0.000139769
5.05599e-05
9.84807e-05
0.000192609
0.000101858
0.000139782
5.05476e-05
9.84778e-05
2.38108e-05
7.7185e-05
7.72028e-05
2.38121e-05
0.000192632
0.000101883
0.000139832
0.000192669
0.000101869
0.000139837
5.0553e-05
9.8502e-05
5.05449e-05
9.85054e-05
7.71443e-05
7.71466e-05
2.38097e-05
2.38084e-05
2.38199e-05
2.38171e-05
0.000173506
7.74433e-05
7.74284e-05
2.38209e-05
2.38197e-05
2.38182e-05
2.38169e-05
0.000173766
7.7471e-05
7.74567e-05
7.74561e-05
7.74401e-05
9.87346e-05
5.0564e-05
9.84753e-05
5.05749e-05
0.000140205
0.000101906
0.000192998
0.000187961
0.000139728
0.000102238
0.000193647
0.000140204
0.000101906
0.000192985
0.000187952
0.000139722
0.000102233
0.000193643
9.87661e-05
5.05808e-05
5.05805e-05
9.88714e-05
9.87647e-05
5.05751e-05
5.05753e-05
9.88683e-05
0.000140289
0.000188607
0.000102372
0.000195142
0.000102278
0.000194379
0.000140747
0.000140288
0.000188612
0.000102352
0.000195145
0.00010227
0.000194382
0.000140745
7.73043e-05
7.73088e-05
0.000173533
7.74367e-05
7.74401e-05
2.38155e-05
2.38184e-05
2.38182e-05
2.3817e-05
0.000173793
7.74356e-05
7.74556e-05
7.74453e-05
7.74511e-05
2.38195e-05
2.38182e-05
0.000140165
0.00019305
0.000187962
0.000139755
0.000102215
0.000193678
9.86832e-05
5.0555e-05
9.84633e-05
5.05692e-05
0.000140147
0.000193078
0.000101846
0.000187914
0.000139756
0.000193684
0.000102142
9.87296e-05
5.05758e-05
5.0575e-05
9.88582e-05
0.000140241
0.0001886
0.000102352
0.000195113
0.000102254
0.000194377
0.000140698
9.87147e-05
5.05735e-05
5.05704e-05
9.88495e-05
0.000140224
0.000188496
0.000195079
0.000102322
0.000194359
0.000102182
0.000140681
9.86742e-05
5.0564e-05
9.84892e-05
5.05759e-05
0.000140103
0.000193128
0.000101833
0.000187834
0.000139795
0.000193682
0.000102044
9.86493e-05
5.05513e-05
9.84798e-05
5.05687e-05
0.000140215
0.00018863
0.000102354
0.000195096
0.000102266
0.000194376
0.000140666
9.87044e-05
5.05772e-05
5.05765e-05
9.88595e-05
0.000140173
0.00018836
0.000195004
0.000102318
0.00019431
0.000102082
0.00014064
9.86811e-05
5.05782e-05
5.05709e-05
9.88576e-05
7.72273e-05
7.72377e-05
0.000173393
7.73779e-05
7.738e-05
2.3813e-05
2.38177e-05
2.3818e-05
2.3816e-05
0.000173612
7.74271e-05
7.74308e-05
7.73971e-05
7.73993e-05
2.38202e-05
2.38178e-05
0.000140064
0.000193187
0.000101841
0.000187851
0.000139837
0.000193716
0.000102018
9.86199e-05
5.05566e-05
9.84907e-05
5.05718e-05
9.86108e-05
5.05483e-05
9.84948e-05
5.05662e-05
0.000140143
0.000188508
0.000195019
0.000102332
0.000194351
0.000102159
0.000140586
0.000140121
0.000188361
0.000194966
0.000102297
0.000194307
0.000102051
0.000140572
9.86466e-05
5.05792e-05
5.05735e-05
9.88332e-05
9.86385e-05
5.05773e-05
5.05686e-05
9.88335e-05
2.38107e-05
2.38171e-05
2.38095e-05
2.3816e-05
0.000173411
7.74223e-05
7.74125e-05
7.73516e-05
7.73348e-05
2.38206e-05
2.38175e-05
2.38198e-05
2.38165e-05
2.38207e-05
2.38251e-05
2.3818e-05
2.38224e-05
7.74144e-05
7.7402e-05
0.000174699
7.73081e-05
7.73004e-05
2.38369e-05
2.38264e-05
2.3834e-05
2.38237e-05
0.000174698
7.73192e-05
7.73067e-05
7.72702e-05
7.72631e-05
9.88687e-05
5.05741e-05
9.8869e-05
5.05765e-05
0.000140922
0.000102357
0.000195859
0.000190051
0.000140786
0.000102304
0.000196468
0.000140915
0.00010233
0.00019586
0.000190006
0.000140782
0.000102263
0.00019646
9.88498e-05
5.06089e-05
5.05844e-05
9.87919e-05
9.88461e-05
5.0605e-05
5.05797e-05
9.87899e-05
0.0001409
0.000190297
0.00010222
0.000197354
0.000102256
0.00019695
0.000140896
0.000140893
0.000190252
0.00010221
0.000197343
0.000102216
0.000196939
0.000140892
7.73761e-05
7.74008e-05
0.000174674
7.72719e-05
7.73019e-05
2.38194e-05
2.38242e-05
2.38349e-05
2.38243e-05
0.000174668
7.73371e-05
7.73506e-05
7.72291e-05
7.72627e-05
2.38359e-05
2.38255e-05
0.000140917
0.000102339
0.000195818
0.000190038
0.00014074
0.000102296
0.000196433
9.88676e-05
5.05734e-05
9.88487e-05
5.05767e-05
0.000140916
0.000195782
0.000102314
0.000190003
0.000140727
0.000196411
0.000102317
9.88563e-05
5.06033e-05
5.05795e-05
9.88102e-05
0.000140905
0.000190295
0.000102215
0.000197361
0.000102249
0.000196934
0.000140927
9.8853e-05
5.05989e-05
5.05789e-05
9.88123e-05
0.000140907
0.00019034
0.000197387
0.000102281
0.000196937
0.00010229
0.000140937
9.88817e-05
5.05767e-05
9.88629e-05
5.05797e-05
0.000140937
0.000195711
0.00010233
0.00018997
0.000140695
0.000196364
0.000102364
9.88898e-05
5.05786e-05
9.88637e-05
5.0582e-05
0.000140919
0.00019028
0.000102246
0.000197367
0.000102251
0.00019692
0.00014097
9.88692e-05
5.06068e-05
5.05826e-05
9.88352e-05
0.000140936
0.000190356
0.000197407
0.000102329
0.000196926
0.000102344
0.000140995
9.88792e-05
5.06012e-05
5.05837e-05
9.88451e-05
7.74057e-05
7.74204e-05
0.000174713
7.73389e-05
7.7369e-05
2.38204e-05
2.38245e-05
2.38321e-05
2.38233e-05
0.000174776
7.73334e-05
7.73593e-05
7.73115e-05
7.73447e-05
2.38337e-05
2.38254e-05
0.000140937
0.000195657
0.000102313
0.000189964
0.000140634
0.000196321
0.000102366
9.8896e-05
5.05794e-05
9.88475e-05
5.05832e-05
9.8901e-05
5.0578e-05
9.88493e-05
5.0582e-05
0.000140942
0.000190371
0.000197426
0.000102334
0.000196922
0.000102325
0.000141047
0.000140948
0.000190367
0.000197428
0.000102344
0.000196913
0.000102349
0.000141053
9.88896e-05
5.0602e-05
5.05851e-05
9.88769e-05
9.88946e-05
5.05985e-05
5.05834e-05
9.88797e-05
2.38207e-05
2.38247e-05
2.382e-05
2.38239e-05
0.000174786
7.73438e-05
7.7346e-05
7.73661e-05
7.73675e-05
2.38336e-05
2.38256e-05
2.38325e-05
2.38248e-05
2.38383e-05
2.38431e-05
2.38355e-05
2.38404e-05
7.74081e-05
7.73941e-05
0.000175957
7.76554e-05
7.76413e-05
2.38429e-05
2.38429e-05
2.38402e-05
2.38402e-05
0.000176287
7.77722e-05
7.77592e-05
7.7692e-05
7.76778e-05
9.90793e-05
5.06117e-05
9.8791e-05
5.06299e-05
0.000141303
0.00010225
0.00019777
0.000191506
0.000140896
0.000102682
0.000198287
0.000141305
0.000102258
0.000197767
0.000191516
0.000140892
0.000102682
0.00019829
9.91271e-05
5.06382e-05
5.06371e-05
9.9298e-05
9.91255e-05
5.06322e-05
5.06315e-05
9.92936e-05
0.000141398
0.000192148
0.00010294
0.000199668
0.000102756
0.000198932
0.000141984
0.000141399
0.000192166
0.000102914
0.000199674
0.000102752
0.00019894
0.00014198
7.74168e-05
7.74315e-05
0.000176003
7.76481e-05
7.76594e-05
2.38372e-05
2.38416e-05
2.384e-05
2.384e-05
0.000176331
7.77495e-05
7.77637e-05
7.76785e-05
7.76913e-05
2.38413e-05
2.38413e-05
0.000141295
0.000102239
0.00019779
0.000191509
0.000140926
0.000102666
0.000198304
9.90481e-05
5.06046e-05
9.88008e-05
5.0624e-05
0.000141288
0.000197824
0.000102279
0.000191527
0.000140937
0.000198331
0.000102618
9.91052e-05
5.06333e-05
5.0632e-05
9.92875e-05
0.000141382
0.000192151
0.000102926
0.000199655
0.000102739
0.000198933
0.000141951
9.90905e-05
5.06295e-05
5.06263e-05
9.92759e-05
0.000141373
0.000192102
0.000199637
0.000102882
0.000198938
0.000102677
0.000141933
9.907e-05
5.06133e-05
9.88341e-05
5.06317e-05
0.000141322
0.000197869
0.000102317
0.000191595
0.000140996
0.000198382
0.000102631
9.90566e-05
5.06068e-05
9.88398e-05
5.06267e-05
0.000141415
0.000192203
0.000102929
0.000199694
0.000102764
0.000198983
0.000141957
9.91132e-05
5.06344e-05
5.06334e-05
9.9288e-05
0.000141402
0.000192171
0.000199681
0.000102906
0.00019899
0.000102692
0.000141945
9.91012e-05
5.06328e-05
5.06292e-05
9.92862e-05
7.73918e-05
7.74074e-05
0.000175953
7.75974e-05
7.75996e-05
2.3835e-05
2.38406e-05
2.38397e-05
2.38388e-05
0.000176214
7.77004e-05
7.77004e-05
7.76307e-05
7.76304e-05
2.38418e-05
2.38406e-05
0.000141311
0.000197908
0.000102329
0.000191616
0.000141055
0.000198415
0.000102612
9.90198e-05
5.06072e-05
9.88715e-05
5.06271e-05
9.90183e-05
5.06039e-05
9.88731e-05
5.06242e-05
0.000141376
0.000192132
0.000199643
0.000102888
0.000198983
0.000102669
0.000141879
0.000141375
0.000192177
0.000199656
0.000102892
0.000198995
0.000102667
0.000141881
9.90562e-05
5.06347e-05
5.06298e-05
9.92688e-05
9.90553e-05
5.06318e-05
5.0627e-05
9.92691e-05
2.3835e-05
2.38405e-05
2.38339e-05
2.38395e-05
0.000176296
7.77261e-05
7.77128e-05
7.76474e-05
7.76338e-05
2.38411e-05
2.38404e-05
2.38402e-05
2.38395e-05
2.38419e-05
2.38421e-05
2.38392e-05
2.38393e-05
7.77572e-05
7.77483e-05
0.000177388
7.75451e-05
7.75382e-05
2.38519e-05
2.38425e-05
2.3849e-05
2.38397e-05
0.000177316
7.73486e-05
7.73392e-05
7.74771e-05
7.74691e-05
9.93271e-05
5.06291e-05
9.93011e-05
5.06219e-05
0.000142207
0.000102945
0.000200421
0.000193813
0.000142043
0.000102889
0.000201095
0.0001422
0.000102916
0.00020042
0.000193775
0.000142037
0.000102843
0.000201085
9.92812e-05
5.06367e-05
5.06266e-05
9.91823e-05
9.92771e-05
5.06312e-05
5.06212e-05
9.91794e-05
0.000142188
0.000194044
0.000102658
0.000202011
0.000102785
0.000201631
0.000142177
0.000142181
0.00019401
0.00010263
0.000201998
0.000102745
0.000201619
0.000142171
7.77094e-05
7.77375e-05
0.00017737
7.75088e-05
7.75389e-05
2.38403e-05
2.38405e-05
2.38492e-05
2.38397e-05
0.000177293
7.73292e-05
7.73548e-05
7.74453e-05
7.74749e-05
2.38499e-05
2.38409e-05
0.000142204
0.000102932
0.000200398
0.000193812
0.000142015
0.000102884
0.000201076
9.93275e-05
5.06284e-05
9.92818e-05
5.06219e-05
0.0001422
0.000200367
0.000102885
0.000193756
0.000142
0.000201051
0.000102905
9.92906e-05
5.06305e-05
5.06213e-05
9.91903e-05
0.00014219
0.000194053
0.000102648
0.00020202
0.000102778
0.000201625
0.00014219
9.92892e-05
5.06257e-05
5.06204e-05
9.91921e-05
0.000142191
0.000194078
0.000202041
0.000102697
0.000201621
0.000102816
0.000142195
9.93323e-05
5.06315e-05
9.92941e-05
5.06241e-05
0.000142212
0.000200402
0.000102912
0.000193827
0.000142013
0.000201084
0.000102942
9.93383e-05
5.06317e-05
9.9293e-05
5.06234e-05
0.000142195
0.000194046
0.000102662
0.000202031
0.000102779
0.00020163
0.000142199
9.92958e-05
5.06314e-05
5.06231e-05
9.91977e-05
0.000142205
0.000194129
0.000202068
0.000102689
0.000201653
0.000102841
0.000142207
9.93056e-05
5.06234e-05
5.06209e-05
9.92e-05
7.77074e-05
7.77089e-05
0.000177381
7.75828e-05
7.76183e-05
2.38412e-05
2.38415e-05
2.38467e-05
2.38393e-05
0.00017737
7.73956e-05
7.74317e-05
7.75176e-05
7.75543e-05
2.38479e-05
2.38415e-05
0.000142218
0.000200362
0.000102898
0.000193825
0.000141951
0.000201049
0.000102941
9.93357e-05
5.06342e-05
9.92791e-05
5.06286e-05
9.93367e-05
5.06312e-05
9.92795e-05
5.06236e-05
0.000142221
0.000194116
0.000202094
0.000102746
0.000201631
0.000102864
0.000142255
0.000142219
0.000194142
0.000202094
0.000102699
0.000201644
0.000102851
0.000142248
9.93267e-05
5.06284e-05
5.06264e-05
9.92422e-05
9.93266e-05
5.06215e-05
5.06207e-05
9.92361e-05
2.38402e-05
2.38397e-05
2.38394e-05
2.3839e-05
0.000177382
7.73746e-05
7.73765e-05
7.75257e-05
7.75287e-05
2.38463e-05
2.38396e-05
2.38451e-05
2.38388e-05
2.38544e-05
2.38685e-05
2.38515e-05
2.38657e-05
7.72967e-05
7.7285e-05
0.000177703
7.76346e-05
7.76186e-05
2.38741e-05
2.38698e-05
2.38716e-05
2.38671e-05
0.000177981
7.79915e-05
7.79799e-05
7.77317e-05
7.77165e-05
9.91507e-05
5.06385e-05
9.91415e-05
5.06748e-05
0.0001421
0.00010259
0.000202297
0.00019456
0.000142119
0.000102786
0.000202602
0.000142095
0.000102565
0.000202288
0.000194515
0.000142113
0.000102757
0.000202592
9.92236e-05
5.07083e-05
5.0689e-05
9.96279e-05
9.92164e-05
5.07036e-05
5.06829e-05
9.96226e-05
0.000142141
0.000195069
0.000103386
0.000203639
0.000102881
0.000203034
0.000142835
0.000142135
0.000195023
0.000103344
0.000203624
0.000102842
0.000203021
0.000142825
7.72752e-05
7.73019e-05
0.00017766
7.76002e-05
7.76016e-05
2.38524e-05
2.38667e-05
2.38721e-05
2.38671e-05
0.00017792
7.79627e-05
7.797e-05
7.76906e-05
7.76942e-05
2.38737e-05
2.38682e-05
0.000142092
0.000102581
0.000202314
0.000194563
0.000142134
0.000102762
0.000202616
9.91137e-05
5.06314e-05
9.91508e-05
5.06673e-05
0.000142084
0.000202347
0.000102637
0.000194558
0.000142142
0.000202638
0.000102673
9.91903e-05
5.07036e-05
5.06837e-05
9.96085e-05
0.000142122
0.000195074
0.00010337
0.000203624
0.000102858
0.000203032
0.00014279
9.9168e-05
5.0701e-05
5.06764e-05
9.95923e-05
0.00014211
0.000194977
0.000203592
0.000103289
0.000203026
0.000102751
0.00014276
9.91065e-05
5.06382e-05
9.91575e-05
5.0675e-05
0.000142065
0.000202358
0.000102622
0.000194449
0.000142153
0.000202612
0.000102579
9.90848e-05
5.06286e-05
9.91555e-05
5.06661e-05
0.000142098
0.000195038
0.000103342
0.000203573
0.000102832
0.00020301
0.000142715
9.91491e-05
5.07069e-05
5.06837e-05
9.9578e-05
0.000142072
0.000194838
0.000203502
0.000103263
0.000202964
0.000102658
0.000142683
9.91247e-05
5.07059e-05
5.06767e-05
9.95669e-05
7.73418e-05
7.73824e-05
0.000177674
7.75201e-05
7.74941e-05
2.38499e-05
2.38644e-05
2.38719e-05
2.38652e-05
0.000177831
7.7938e-05
7.7929e-05
7.76236e-05
7.75979e-05
2.38742e-05
2.38665e-05
0.000142097
0.000202407
0.000102633
0.000194478
0.0001422
0.000202662
0.000102563
9.90938e-05
5.06327e-05
9.91891e-05
5.06669e-05
9.90821e-05
5.06256e-05
9.9181e-05
5.06619e-05
0.000142092
0.000194992
0.00020353
0.000103252
0.000203032
0.000102712
0.00014259
0.000142074
0.000194848
0.000203478
0.000103231
0.000202981
0.000102626
0.000142577
9.90967e-05
5.07061e-05
5.06771e-05
9.95175e-05
9.9085e-05
5.07044e-05
5.06731e-05
9.95135e-05
2.38486e-05
2.38645e-05
2.38474e-05
2.38632e-05
0.000177634
7.79448e-05
7.79296e-05
7.75697e-05
7.75483e-05
2.3875e-05
2.38669e-05
2.38742e-05
2.38657e-05
2.38738e-05
2.38731e-05
2.38712e-05
2.38705e-05
7.80274e-05
7.80169e-05
0.000180208
7.80992e-05
7.809e-05
2.38705e-05
2.38714e-05
2.38678e-05
2.38688e-05
0.000180333
7.78758e-05
7.78699e-05
7.80578e-05
7.80525e-05
9.98306e-05
5.07055e-05
9.96742e-05
5.07063e-05
0.000143567
0.000103461
0.000204391
0.000197214
0.000142981
0.000103623
0.000205193
0.000143564
0.000103425
0.000204371
0.00019718
0.000142971
0.000103614
0.000205177
9.98348e-05
5.06975e-05
5.07058e-05
9.98474e-05
9.98339e-05
5.06923e-05
5.07029e-05
9.98481e-05
0.000143607
0.000197806
0.000147065
0.000206658
0.000103621
0.000205976
0.000170245
0.000143606
0.000197817
0.000160081
0.000206659
0.000103617
0.00020597
0.000170248
7.80033e-05
7.80158e-05
0.000180231
7.80878e-05
7.81048e-05
2.38735e-05
2.3873e-05
2.38678e-05
2.38695e-05
0.000180381
7.78869e-05
7.79286e-05
7.80733e-05
7.81045e-05
2.3869e-05
2.38712e-05
0.000143561
0.000103447
0.000204364
0.000197212
0.000142941
0.000103613
0.000205166
9.98345e-05
5.07038e-05
9.96509e-05