/*--------------------------------*- C++ -*----------------------------------*\
| =========                 |                                                 |
| \\      /  F ield         | OpenFOAM: The Open Source CFD Toolbox           |
|  \\    /   O peration     | Version:  v2006                                 |
|   \\  /    A nd           | Website:  www.openfoam.com                      |
|    \\/     M anipulation  |                                                 |
\*---------------------------------------------------------------------------*/
FoamFile
{
    version     2.0;
    format      ascii;
    class       volScalarField;
    location    "250";
    object      epsilon;
}
// * * * * * * * * * * * * * * * * * * * * * * * * * * * * * * * * * * * * * //

dimensions      [0 2 -3 0 0 0 0];


internalField   nonuniform List<scalar> 
14199
(
2.12978e-06
7.22955e-07
2.12961e-06
7.22864e-07
4.05308e-06
4.0527e-06
1.20635e-05
4.68676e-06
1.07667e-05
4.02832e-06
4.65699e-06
1.07294e-05
1.21114e-05
1.20627e-05
4.68569e-06
1.07665e-05
4.02817e-06
4.65642e-06
1.07291e-05
1.21111e-05
2.17022e-05
6.99243e-06
6.94879e-06
2.18045e-05
2.63823e-07
2.6378e-07
2.37434e-06
1.47985e-06
1.3682e-06
2.11713e-06
1.49404e-06
1.35666e-06
2.35954e-06
2.37385e-06
1.47959e-06
1.36809e-06
2.11699e-06
1.4938e-06
1.35656e-06
2.3591e-06
2.84848e-06
1.66044e-06
1.67614e-06
2.82816e-06
5.38055e-06
1.82321e-05
3.45691e-06
9.12068e-06
9.12164e-06
9.97213e-07
3.45765e-06
1.82352e-05
1.24537e-06
5.38278e-06
9.97738e-07
4.46182e-06
2.80449e-06
5.34113e-06
9.457e-06
4.50334e-06
9.37193e-06
2.78405e-06
1.81546e-05
2.17053e-05
9.05903e-06
6.99522e-06
6.95116e-06
2.18057e-05
9.05653e-06
1.81527e-05
9.54256e-06
2.15355e-05
2.15345e-05
9.63903e-06
2.13781e-05
2.13792e-05
4.46679e-06
2.8065e-06
5.33971e-06
9.46189e-06
2.78289e-06
4.50979e-06
9.37522e-06
2.84926e-06
1.66088e-06
2.06304e-06
3.43243e-06
2.04695e-06
1.67643e-06
2.829e-06
2.06359e-06
3.4313e-06
2.04617e-06
2.64659e-06
1.81033e-06
1.23115e-06
1.81112e-06
1.79393e-06
2.67013e-06
1.79516e-06
4.55935e-07
3.98726e-06
3.9873e-06
2.09593e-06
7.18401e-07
8.957e-06
2.0959e-06
3.39375e-06
9.885e-07
7.18456e-07
1.20181e-05
1.06728e-05
4.60717e-06
4.0051e-06
1.06951e-05
4.62837e-06
1.19887e-05
2.15941e-05
6.87853e-06
6.90969e-06
2.15314e-05
1.20176e-05
4.60726e-06
1.06728e-05
4.00508e-06
4.62835e-06
1.06952e-05
1.19882e-05
2.15957e-05
6.87741e-06
8.99892e-06
6.90859e-06
2.15329e-05
1.80817e-05
4.43659e-06
5.3082e-06
2.76556e-06
9.30598e-06
9.47055e-06
2.12452e-05
2.12465e-05
4.42952e-06
9.30194e-06
1.65459e-06
2.7954e-06
2.80991e-06
1.64326e-06
1.47634e-06
2.33407e-06
1.3447e-06
2.10476e-06
2.34448e-06
1.35296e-06
1.46605e-06
1.47634e-06
2.334e-06
1.34468e-06
2.10476e-06
1.35295e-06
2.34447e-06
1.46604e-06
1.65453e-06
2.7952e-06
2.02433e-06
3.41132e-06
2.80972e-06
2.03642e-06
1.64321e-06
2.62975e-06
1.78636e-06
1.15986e-06
8.74816e-07
1.8441e-05
5.46876e-06
9.1701e-06
7.09011e-06
1.84443e-05
5.46836e-06
2.82054e-06
2.81844e-06
9.51843e-06
4.55289e-06
1.77834e-06
1.77723e-06
2.67737e-06
1.62593e-06
3.48072e-06
2.86597e-06
2.04145e-06
1.18478e-07
1.18509e-07
1.18479e-07
1.18513e-07
8.74708e-07
8.74489e-07
8.74791e-07
1.16001e-06
4.09882e-06
9.1673e-06
4.09467e-06
1.84419e-05
2.04075e-06
2.1179e-06
2.04064e-06
5.68233e-07
1.42552e-06
4.09864e-06
9.16683e-06
4.09482e-06
2.11781e-06
5.6827e-07
1.62606e-06
1.42547e-06
5.46915e-06
5.46742e-06
1.84401e-05
9.16738e-06
1.22142e-05
4.75054e-06
1.084e-05
4.09743e-06
4.74906e-06
1.08367e-05
1.22178e-05
2.20707e-05
9.17142e-06
7.08993e-06
7.09055e-06
2.20634e-05
1.22128e-05
4.09613e-06
4.74638e-06
1.08321e-05
4.74807e-06
1.08354e-05
1.2209e-05
1.84469e-05
1.22142e-05
1.08398e-05
4.75023e-06
4.09758e-06
1.08365e-05
4.74906e-06
1.22179e-05
2.20705e-05
9.17092e-06
7.08829e-06
7.08897e-06
2.2063e-05
1.22128e-05
4.09591e-06
1.08319e-05
4.74636e-06
1.08352e-05
4.74768e-06
1.22089e-05
4.55658e-06
2.81989e-06
5.46978e-06
9.5201e-06
9.52442e-06
2.82162e-06
4.55573e-06
4.5504e-06
2.81879e-06
5.46793e-06
9.51555e-06
2.82035e-06
9.51947e-06
4.54964e-06
9.76176e-06
2.17735e-05
2.17738e-05
2.17827e-05
2.1783e-05
9.76043e-06
1.84441e-05
2.2066e-05
9.17004e-06
7.08892e-06
7.08872e-06
2.20608e-05
1.77803e-06
1.77815e-06
2.67761e-06
2.6783e-06
1.15935e-06
1.77831e-06
1.77843e-06
1.62615e-06
3.47987e-06
2.86489e-06
1.62589e-06
3.48065e-06
2.0414e-06
2.86562e-06
1.43083e-06
2.37628e-06
1.29385e-06
2.11558e-06
2.37411e-06
1.29371e-06
1.4303e-06
1.6261e-06
3.48012e-06
2.86499e-06
1.62586e-06
3.48102e-06
2.86606e-06
2.04147e-06
2.11153e-06
2.37023e-06
1.28824e-06
1.42501e-06
2.11395e-06
2.37252e-06
1.2884e-06
1.43075e-06
1.2938e-06
2.37612e-06
2.11554e-06
1.29367e-06
2.37398e-06
1.43022e-06
2.04097e-06
3.48024e-06
2.86468e-06
1.62583e-06
3.48109e-06
2.8657e-06
2.04165e-06
2.11149e-06
1.2882e-06
2.37009e-06
1.42496e-06
2.11383e-06
1.28837e-06
2.37236e-06
9.12052e-06
3.45689e-06
7.2269e-07
1.01871e-06
1.28929e-06
1.82319e-05
5.38097e-06
1.01874e-06
9.97582e-07
1.28887e-06
1.01893e-06
1.01875e-06
4.05393e-06
7.22675e-07
9.9748e-07
2.13016e-06
4.05389e-06
2.13014e-06
5.42796e-06
1.87384e-05
1.83504e-05
2.63741e-07
2.63781e-07
4.58684e-07
4.58767e-07
2.14701e-06
3.5828e-06
7.32675e-07
1.00849e-06
3.48598e-06
7.28039e-07
2.19936e-06
3.48453e-06
2.14612e-06
2.19945e-06
5.59627e-06
5.59749e-06
1.25087e-06
5.43008e-06
5.43182e-06
1.82306e-05
1.24531e-06
5.38039e-06
9.46698e-06
9.20267e-06
3.583e-06
1.00852e-06
3.4861e-06
4.05267e-06
9.11872e-06
4.0526e-06
2.12959e-06
3.45652e-06
7.22875e-07
2.12952e-06
7.22794e-07
5.59622e-06
5.59445e-06
1.25069e-06
5.43193e-06
5.43043e-06
1.87376e-05
1.83478e-05
4.08482e-06
9.46858e-06
9.20355e-06
4.18262e-06
2.1469e-06
7.32756e-07
3.58351e-06
1.00863e-06
7.2809e-07
3.48572e-06
2.19932e-06
4.08461e-06
9.47045e-06
9.20292e-06
4.18254e-06
2.14602e-06
7.32757e-07
3.58376e-06
1.00847e-06
7.27723e-07
3.48634e-06
2.1994e-06
1.87428e-05
1.8348e-05
1.8744e-05
1.83505e-05
2.17012e-05
9.05868e-06
6.99611e-06
2.1808e-05
6.94896e-06
1.81544e-05
4.46885e-06
2.8045e-06
5.3417e-06
9.45629e-06
2.78419e-06
4.50278e-06
9.37726e-06
1.20623e-05
4.68737e-06
4.02727e-06
1.07677e-05
1.21126e-05
4.65566e-06
1.07289e-05
1.20628e-05
4.02719e-06
1.07675e-05
4.68723e-06
1.21129e-05
1.07288e-05
4.65561e-06
2.17027e-05
6.99479e-06
2.18092e-05
6.94789e-06
4.59675e-06
5.48096e-06
2.83072e-06
9.55767e-06
4.54669e-06
2.85788e-06
9.66629e-06
9.85256e-06
2.17296e-05
2.17288e-05
2.19331e-05
9.73864e-06
2.1934e-05
1.86048e-05
1.84559e-05
9.84727e-06
2.17364e-05
2.17364e-05
2.19272e-05
2.19276e-05
9.74476e-06
4.6499e-06
2.91806e-06
5.53728e-06
9.91421e-06
2.88838e-06
9.79422e-06
4.70347e-06
4.65532e-06
2.91934e-06
5.53878e-06
9.91758e-06
2.88991e-06
9.79821e-06
4.70842e-06
4.59511e-06
9.56241e-06
5.4786e-06
2.83195e-06
2.85686e-06
9.66438e-06
4.55012e-06
4.60059e-06
9.56684e-06
5.48016e-06
2.83343e-06
2.85835e-06
9.66868e-06
4.55563e-06
9.97304e-06
2.24208e-05
2.24203e-05
2.21882e-05
2.21876e-05
1.00934e-05
1.81533e-05
9.55238e-06
2.15283e-05
2.15317e-05
9.63341e-06
2.13883e-05
2.13865e-05
4.46759e-06
2.80551e-06
9.45679e-06
5.34109e-06
4.50513e-06
9.37733e-06
2.7835e-06
2.22925e-05
9.37731e-06
7.22662e-06
7.16345e-06
2.24599e-05
2.21031e-05
7.04662e-06
9.27945e-06
7.10319e-06
2.19612e-05
1.20626e-05
1.0766e-05
4.686e-06
4.02802e-06
1.21106e-05
1.07288e-05
4.65669e-06
2.17033e-05
6.99416e-06
9.05721e-06
2.18041e-05
6.95055e-06
1.2063e-05
1.07659e-05
4.68572e-06
4.02795e-06
1.2111e-05
1.07287e-05
4.65664e-06
2.17045e-05
6.99287e-06
2.18058e-05
6.9497e-06
9.8468e-06
2.17384e-05
2.17389e-05
2.19244e-05
2.19252e-05
9.74689e-06
4.65418e-06
2.91828e-06
5.53751e-06
9.91109e-06
9.79341e-06
2.88893e-06
4.7065e-06
4.64836e-06
2.91702e-06
5.53633e-06
9.9071e-06
2.88796e-06
9.78919e-06
4.70021e-06
4.60048e-06
9.56614e-06
5.48028e-06
2.83332e-06
9.66605e-06
2.85795e-06
4.55635e-06
4.59423e-06
9.56167e-06
5.47826e-06
2.8323e-06
2.85666e-06
9.66179e-06
4.55053e-06
9.96982e-06
2.24044e-05
2.24054e-05
2.21781e-05
2.21788e-05
1.00866e-05
1.8603e-05
1.84545e-05
1.22442e-05
4.72496e-06
1.08193e-05
4.11353e-06
4.75973e-06
1.08691e-05
1.21803e-05
2.22976e-05
9.37942e-06
7.2286e-06
7.16638e-06
2.24591e-05
2.20996e-05
7.05073e-06
9.28097e-06
7.10346e-06
2.19659e-05
1.23297e-05
4.14915e-06
4.8436e-06
1.09936e-05
4.80282e-06
1.09342e-05
1.24066e-05
1.2244e-05
1.08189e-05
4.72454e-06
4.11333e-06
1.08688e-05
4.75899e-06
1.21796e-05
2.22974e-05
9.38044e-06
7.227e-06
7.16527e-06
2.2462e-05
2.20995e-05
7.04878e-06
9.2811e-06
7.10091e-06
2.19634e-05
1.23297e-05
4.14906e-06
1.09935e-05
4.84326e-06
1.0934e-05
4.80278e-06
1.24072e-05
1.86066e-05
1.84561e-05
1.86083e-05
1.84583e-05
1.83459e-05
4.18286e-06
9.20157e-06
4.08301e-06
4.18269e-06
9.47033e-06
4.08299e-06
9.20404e-06
1.84589e-05
1.23277e-05
1.09929e-05
4.84393e-06
4.1478e-06
1.24058e-05
1.09324e-05
4.80136e-06
2.21034e-05
9.28346e-06
7.04808e-06
7.1057e-06
2.19628e-05
1.22454e-05
4.11486e-06
4.72295e-06
1.08177e-05
1.08699e-05
4.76139e-06
1.21785e-05
1.23283e-05
1.09932e-05
4.84359e-06
4.14794e-06
1.24074e-05
1.09325e-05
4.80166e-06
2.2295e-05
7.22779e-06
9.38016e-06
2.24635e-05
7.16416e-06
1.22458e-05
4.11456e-06
4.72274e-06
1.08175e-05
1.08699e-05
4.76061e-06
1.21782e-05
2.21044e-05
9.28162e-06
7.0465e-06
7.10358e-06
2.19612e-05
1.66026e-06
2.06289e-06
3.43239e-06
2.84962e-06
1.67653e-06
2.82795e-06
2.04667e-06
2.74992e-06
1.87852e-06
1.87883e-06
1.27324e-06
1.85767e-06
1.8581e-06
2.77929e-06
2.74916e-06
1.8781e-06
1.87796e-06
1.27286e-06
1.85736e-06
1.85744e-06
2.77806e-06
1.47948e-06
2.37466e-06
1.36836e-06
2.11655e-06
1.49393e-06
2.35876e-06
1.35632e-06
1.47947e-06
1.36835e-06
2.11651e-06
2.37461e-06
1.49391e-06
1.35631e-06
2.35868e-06
1.66019e-06
2.84942e-06
1.6765e-06
2.82768e-06
4.55919e-07
2.63758e-07
2.61394e-07
2.61412e-07
4.57745e-07
2.6272e-07
2.62754e-07
1.17108e-07
1.15677e-07
2.61516e-07
2.61421e-07
4.57785e-07
2.62847e-07
2.62706e-07
1.17142e-07
1.15715e-07
2.63753e-07
1.51671e-06
2.39478e-06
1.37399e-06
2.16221e-06
2.41256e-06
1.38787e-06
1.49953e-06
1.71435e-06
2.13635e-06
3.54821e-06
2.95648e-06
2.11434e-06
2.92813e-06
1.73496e-06
1.704e-06
2.87489e-06
3.51503e-06
2.07801e-06
2.09727e-06
2.89902e-06
1.68547e-06
1.52319e-06
2.18197e-06
2.45659e-06
1.40811e-06
2.43591e-06
1.39427e-06
1.54025e-06
3.51646e-06
2.90003e-06
2.8737e-06
1.70461e-06
2.0772e-06
2.09801e-06
1.68485e-06
2.41331e-06
2.16286e-06
2.3938e-06
1.51677e-06
1.37346e-06
1.3882e-06
1.49919e-06
2.45675e-06
2.43534e-06
2.18139e-06
1.52315e-06
1.408e-06
1.39403e-06
1.54021e-06
2.7203e-06
1.26748e-06
1.82384e-06
1.82424e-06
1.84226e-06
1.84268e-06
2.69524e-06
2.64827e-06
1.80994e-06
1.23103e-06
1.81099e-06
1.79464e-06
2.66894e-06
1.79467e-06
1.71399e-06
2.13654e-06
3.54808e-06
2.95611e-06
2.92704e-06
2.11445e-06
1.73482e-06
1.7043e-06
2.87319e-06
3.51537e-06
2.07819e-06
2.89931e-06
1.68455e-06
2.0975e-06
1.47974e-06
2.37408e-06
1.3681e-06
2.11697e-06
1.49392e-06
2.35936e-06
1.35657e-06
1.66073e-06
2.06323e-06
2.8489e-06
3.43213e-06
2.04677e-06
1.67632e-06
2.82875e-06
1.47961e-06
2.37389e-06
1.36803e-06
2.11692e-06
1.49377e-06
2.35922e-06
1.35651e-06
1.66056e-06
2.84861e-06
1.67618e-06
2.82848e-06
2.71994e-06
1.26716e-06
1.82405e-06
1.82397e-06
1.8421e-06
1.84223e-06
2.69542e-06
1.51665e-06
1.37393e-06
2.3945e-06
2.16212e-06
1.38783e-06
2.41225e-06
1.49941e-06
1.71439e-06
2.13688e-06
3.54854e-06
2.95631e-06
2.1146e-06
2.92791e-06
1.73508e-06
1.70394e-06
2.8743e-06
3.5151e-06
2.0779e-06
2.09741e-06
2.89841e-06
1.68533e-06
1.52318e-06
2.18192e-06
1.4081e-06
2.45649e-06
1.39425e-06
2.43583e-06
1.54027e-06
2.16274e-06
2.413e-06
2.39349e-06
1.51663e-06
1.37338e-06
1.38813e-06
1.49897e-06
2.92746e-06
2.95658e-06
3.54893e-06
1.71417e-06
2.13701e-06
2.1149e-06
1.73502e-06
2.89949e-06
2.87318e-06
3.51563e-06
1.70444e-06
2.07829e-06
2.09778e-06
1.68461e-06
2.18137e-06
2.43529e-06
2.45664e-06
1.52303e-06
1.40796e-06
1.39398e-06
1.54013e-06
8.09719e-08
1.16008e-06
3.42992e-07
8.97553e-07
8.97681e-07
1.17804e-06
3.59581e-07
9.2056e-07
9.20627e-07
1.19836e-06
3.76441e-07
9.4094e-07
9.41086e-07
1.21292e-06
3.93299e-07
9.61372e-07
9.61408e-07
1.23116e-06
4.10846e-07
9.79258e-07
9.7941e-07
1.2458e-06
4.27281e-07
9.939e-07
9.94024e-07
1.25035e-06
4.51663e-07
1.03257e-06
1.03262e-06
1.31541e-06
1.17289e-06
8.92233e-07
8.9213e-07
1.1728e-06
8.92033e-07
8.92239e-07
8.74838e-07
8.92015e-07
8.92214e-07
1.17293e-06
8.74649e-07
8.92131e-07
8.92027e-07
1.17291e-06
1.17801e-06
1.19218e-06
8.97766e-07
8.97646e-07
9.14757e-07
9.14716e-07
1.1779e-06
1.19225e-06
8.97568e-07
8.97769e-07
9.14563e-07
9.14797e-07
8.9777e-07
9.14673e-07
9.14913e-07
1.17803e-06
1.19228e-06
8.97583e-07
9.14751e-07
9.1472e-07
1.19252e-06
1.19809e-06
1.2091e-06
9.20621e-07
9.20607e-07
9.36769e-07
9.36625e-07
1.19823e-06
1.20894e-06
9.20413e-07
9.20677e-07
9.36567e-07
9.3676e-07
9.20732e-07
9.36525e-07
9.36659e-07
1.19823e-06
1.20915e-06
9.20529e-07
9.36673e-07
9.36468e-07
1.20887e-06
1.21308e-06
1.22431e-06
9.41234e-07
9.41049e-07
9.55466e-07
9.55396e-07
1.21287e-06
1.22434e-06
9.41037e-07
9.41193e-07
9.55277e-07
9.55473e-07
9.41159e-07
9.55346e-07
9.55616e-07
1.21307e-06
1.22431e-06
9.40973e-07
9.55417e-07
9.55424e-07
1.22473e-06
1.2307e-06
1.24428e-06
9.61404e-07
9.61394e-07
9.77174e-07
9.77075e-07
1.23086e-06
1.24429e-06
9.61201e-07
9.61449e-07
9.76972e-07
9.77209e-07
9.61596e-07
9.77039e-07
9.77116e-07
1.23077e-06
1.24448e-06
9.61395e-07
9.77164e-07
9.76932e-07
1.24409e-06
1.24603e-06
1.24271e-06
9.79482e-07
9.7931e-07
9.8762e-07
9.87471e-07
1.24593e-06
1.24253e-06
9.79278e-07
9.79481e-07
9.87431e-07
9.87627e-07
9.79383e-07
9.87414e-07
9.87634e-07
1.24616e-06
1.24271e-06
9.79197e-07
9.87566e-07
9.87448e-07
1.24287e-06
1.25016e-06
1.30378e-06
9.94062e-07
9.9395e-07
1.02432e-06
1.02429e-06
1.25011e-06
1.304e-06
9.93855e-07
9.94082e-07
1.0241e-06
1.02435e-06
9.94093e-07
1.02425e-06
1.02439e-06
1.25021e-06
1.30394e-06
9.939e-07
1.0243e-06
1.02419e-06
1.3039e-06
1.31535e-06
1.29339e-06
1.03268e-06
1.03261e-06
1.02903e-06
1.02879e-06
1.31544e-06
1.29324e-06
1.03245e-06
1.03266e-06
1.02869e-06
1.02884e-06
1.03274e-06
1.02877e-06
1.02906e-06
1.31544e-06
5.65446e-06
1.03255e-06
1.54536e-06
1.41261e-06
5.65732e-06
4.09868e-06
9.17565e-06
1.8451e-05
9.17694e-06
3.26856e-07
8.09866e-08
3.26909e-07
3.38948e-07
3.38938e-07
3.39016e-07
3.39004e-07
2.11778e-06
5.68245e-07
8.806e-07
3.48365e-06
5.74187e-07
1.42554e-06
1.84519e-05
2.11771e-06
5.68321e-07
8.80675e-07
5.74265e-07
3.48359e-06
1.28831e-06
5.46797e-06
5.46959e-06
1.16425e-06
5.47008e-06
5.47172e-06
4.10348e-06
9.18557e-06
4.10334e-06
9.18598e-06
1.84527e-05
1.84534e-05
4.10366e-06
9.1869e-06
4.10348e-06
9.18758e-06
3.4298e-07
3.43065e-07
3.43055e-07
3.55358e-07
3.5537e-07
3.55446e-07
3.55456e-07
2.1303e-06
3.48913e-06
5.91773e-07
9.03125e-07
2.12607e-06
3.49027e-06
5.97496e-07
1.84544e-05
1.84553e-05
2.1303e-06
5.91856e-07
3.48941e-06
9.03253e-07
2.1261e-06
5.97587e-07
3.4905e-06
5.47036e-06
5.47205e-06
1.18195e-06
5.47052e-06
5.4723e-06
4.11388e-06
9.18747e-06
4.10566e-06
9.21419e-06
1.84863e-05
1.8521e-05
4.1138e-06
9.18898e-06
4.10576e-06
9.2149e-06
3.59602e-07
3.59676e-07
3.59669e-07
3.72325e-07
3.72305e-07
3.72401e-07
3.72358e-07
2.14435e-06
3.50018e-06
6.14668e-07
9.26298e-07
2.1373e-06
3.50875e-06
6.20569e-07
1.84869e-05
1.85218e-05
2.14426e-06
6.14745e-07
3.50002e-06
9.26388e-07
2.13735e-06
6.20651e-07
3.50873e-06
5.4877e-06
5.48913e-06
1.20222e-06
5.49727e-06
5.49876e-06
4.11665e-06
9.23092e-06
4.12156e-06
9.21125e-06
1.8503e-05
1.8474e-05
4.11685e-06
9.23213e-06
4.12161e-06
9.21349e-06
3.76403e-07
3.765e-07
3.76479e-07
3.88799e-07
3.88798e-07
3.88878e-07
3.88906e-07
2.15395e-06
3.51141e-06
6.37926e-07
9.45272e-07
2.15322e-06
3.50546e-06
6.43173e-07
1.8505e-05
1.84757e-05
2.15393e-06
6.38008e-07
3.51168e-06
9.45407e-07
2.15323e-06
6.43263e-07
3.50562e-06
5.48855e-06
5.49045e-06
1.21513e-06
5.47539e-06
5.47722e-06
4.13331e-06
9.20959e-06
4.11722e-06
9.26916e-06
1.8536e-05
1.8623e-05
4.1333e-06
9.21107e-06
4.11738e-06
9.26992e-06
3.93319e-07
3.93393e-07
3.93411e-07
4.06937e-07
4.06955e-07
4.07048e-07
4.07012e-07
2.16937e-06
3.51694e-06
6.59082e-07
9.67675e-07
2.15951e-06
3.53651e-06
6.65111e-07
1.85365e-05
1.86234e-05
2.16935e-06
6.5916e-07
3.51685e-06
9.67713e-07
2.15957e-06
6.65187e-07
3.53639e-06
5.50534e-06
5.50663e-06
1.23756e-06
5.53869e-06
5.54022e-06
4.12209e-06
9.29189e-06
4.14203e-06
9.19711e-06
1.85697e-05
1.84202e-05
4.12221e-06
9.293e-06
4.14199e-06
9.1991e-06
4.10811e-07
4.10929e-07
4.10859e-07
4.22438e-07
4.22457e-07
4.22539e-07
4.2254e-07
2.17279e-06
3.53718e-06
6.81983e-07
9.80954e-07
2.17826e-06
3.50891e-06
6.86293e-07
1.85716e-05
1.84224e-05
2.17267e-06
6.8206e-07
3.5373e-06
9.81124e-07
2.1782e-06
6.86367e-07
3.50906e-06
5.51191e-06
5.51401e-06
1.2405e-06
5.43912e-06
5.44097e-06
4.17306e-06
9.13932e-06
4.12033e-06
9.30293e-06
1.84535e-05
1.87788e-05
4.17337e-06
9.14146e-06
4.12079e-06
9.30431e-06
4.27219e-07
4.27369e-07
4.27285e-07
4.45466e-07
4.4549e-07
4.45567e-07
4.45574e-07
2.20111e-06
3.5126e-06
7.00605e-07
1.00267e-06
2.17602e-06
3.57308e-06
7.07477e-07
1.84555e-05
1.87796e-05
2.20135e-06
7.00718e-07
3.51313e-06
1.00277e-06
2.17623e-06
7.07587e-07
3.57345e-06
5.45221e-06
5.45332e-06
1.26627e-06
5.58936e-06
5.59089e-06
4.28591e-06
9.65751e-06
4.27486e-06
9.73004e-06
1.92691e-05
1.93062e-05
4.28558e-06
9.65758e-06
4.27451e-06
9.73053e-06
4.51685e-07
4.5175e-07
4.51788e-07
4.58933e-07
2.60008e-07
4.58988e-07
1.14376e-07
2.25689e-06
3.68465e-06
7.31179e-07
1.03575e-06
2.25383e-06
3.6915e-06
7.35595e-07
1.9269e-05
1.9307e-05
2.25658e-06
7.3123e-07
3.6843e-06
1.03579e-06
2.25375e-06
7.35635e-07
3.69112e-06
5.79742e-06
5.79942e-06
1.31787e-06
5.80902e-06
5.81068e-06
1.84485e-05
1.84512e-05
1.16414e-06
5.47003e-06
5.47163e-06
1.84522e-05
1.84484e-05
1.84554e-05
1.84513e-05
1.16949e-06
5.4711e-06
5.47288e-06
5.47102e-06
5.47284e-06
4.09864e-06
9.17587e-06
2.11787e-06
8.80766e-07
3.48379e-06
5.74193e-07
2.11782e-06
8.80716e-07
3.4842e-06
5.74164e-07
4.09982e-06
9.18495e-06
9.17729e-06
4.10277e-06
4.09976e-06
9.18506e-06
9.17755e-06
4.10271e-06
2.11943e-06
8.86588e-07
3.4881e-06
5.86011e-07
3.48586e-06
5.80137e-07
2.12489e-06
2.11938e-06
8.86515e-07
3.48838e-06
5.85968e-07
3.48634e-06
5.80098e-07
2.12482e-06
1.16417e-06
5.47175e-06
5.46981e-06
1.84484e-05
1.84543e-05
1.8451e-05
1.16947e-06
5.4724e-06
5.47075e-06
5.4728e-06
5.4707e-06
1.84526e-05
1.84485e-05
8.80554e-07
3.48433e-06
5.74193e-07
9.17648e-06
8.80786e-07
5.7422e-07
3.48429e-06
4.09995e-06
9.1862e-06
9.17856e-06
4.10285e-06
2.11945e-06
8.86375e-07
3.48868e-06
5.86001e-07
3.48646e-06
5.80142e-07
2.1249e-06
4.10008e-06
9.18588e-06
9.17819e-06
4.10277e-06
2.1194e-06
8.86603e-07
5.86033e-07
3.48861e-06
5.80175e-07
3.48644e-06
2.12485e-06
4.09837e-06
9.17418e-06
4.09465e-06
2.11779e-06
5.68298e-07
2.04077e-06
8.80813e-07
5.74256e-07
3.48388e-06
1.42552e-06
4.09844e-06
9.16707e-06
9.17604e-06
4.09458e-06
2.11925e-06
8.86394e-07
3.48792e-06
5.85978e-07
3.48565e-06
5.80117e-07
2.12481e-06
4.09943e-06
9.1851e-06
9.17595e-06
4.10262e-06
2.11927e-06
8.86595e-07
5.86041e-07
3.48772e-06
5.80185e-07
3.48577e-06
2.12477e-06
4.09947e-06
9.18466e-06
9.17752e-06
4.10249e-06
1.16421e-06
5.4719e-06
5.46967e-06
1.84483e-05
1.84557e-05
1.8452e-05
1.16954e-06
5.47283e-06
5.47124e-06
5.47294e-06
5.47084e-06
1.84537e-05
1.84488e-05
2.11779e-06
5.68287e-07
2.04112e-06
8.8062e-07
5.74243e-07
3.48435e-06
1.42554e-06
4.09818e-06
9.17418e-06
4.09483e-06
4.09845e-06
9.16775e-06
9.1767e-06
4.09461e-06
2.11928e-06
8.86489e-07
5.86065e-07
3.48808e-06
5.80193e-07
3.48564e-06
2.12476e-06
2.11931e-06
8.86403e-07
5.86033e-07
3.48821e-06
5.80162e-07
3.48623e-06
2.12475e-06
4.09958e-06
9.18539e-06
9.17598e-06
4.10252e-06
4.0995e-06
9.18536e-06
9.17817e-06
4.10251e-06
1.84414e-05
1.84498e-05
1.84434e-05
1.8452e-05
1.16954e-06
5.47036e-06
5.47204e-06
5.47057e-06
5.4722e-06
1.84525e-05
1.84495e-05
1.84548e-05
1.84516e-05
1.84511e-05
1.84522e-05
1.84543e-05
1.84556e-05
5.47109e-06
5.47288e-06
1.18178e-06
5.47024e-06
5.47205e-06
1.84738e-05
1.84523e-05
1.8477e-05
1.84557e-05
1.18741e-06
5.48017e-06
5.48189e-06
5.4713e-06
5.47313e-06
4.10341e-06
9.18557e-06
4.10327e-06
9.18583e-06
2.13013e-06
3.48924e-06
5.91795e-07
9.03312e-07
2.12614e-06
3.49012e-06
5.97504e-07
2.13006e-06
3.48938e-06
5.91751e-07
9.03194e-07
2.12608e-06
3.49019e-06
5.97457e-07
4.10346e-06
9.18464e-06
9.18476e-06
4.10442e-06
4.1034e-06
9.18492e-06
9.18469e-06
4.10437e-06
2.13117e-06
9.0897e-07
3.49565e-06
6.08846e-07
3.49142e-06
6.03172e-07
2.1354e-06
2.13111e-06
9.08883e-07
3.49617e-06
6.08806e-07
3.4916e-06
6.03127e-07
2.13534e-06
5.47243e-06
5.47077e-06
1.18169e-06
5.47106e-06
5.47032e-06
1.84515e-05
1.84533e-05
1.8478e-05
1.84536e-05
1.18736e-06
5.48246e-06
5.48138e-06
5.47267e-06
5.47173e-06
1.84772e-05
1.84538e-05
2.13022e-06
3.48981e-06
5.91801e-07
9.03119e-07
2.12619e-06
3.49074e-06
5.97497e-07
4.10359e-06
9.18644e-06
4.1035e-06
9.18681e-06
2.13015e-06
5.91833e-07
3.48966e-06
9.03318e-07
2.12611e-06
5.97529e-07
3.49051e-06
4.10366e-06
9.18639e-06
9.1866e-06
4.10456e-06
2.13125e-06
9.08775e-07
3.49621e-06
6.08834e-07
3.49203e-06
6.03175e-07
2.13545e-06
4.10364e-06
9.18589e-06
9.18568e-06
4.10451e-06
2.13116e-06
9.08988e-07
6.08875e-07
3.49625e-06
6.03211e-07
3.49185e-06
2.1354e-06
4.10386e-06
9.18604e-06
4.10336e-06
9.18711e-06
2.13021e-06
5.91832e-07
3.48886e-06
9.03364e-07
2.126e-06
5.97551e-07
3.49019e-06
4.10367e-06
9.18537e-06
4.10318e-06
9.18643e-06
2.13135e-06
9.08833e-07
3.49624e-06
6.08878e-07
3.49168e-06
6.03186e-07
2.1357e-06
4.10392e-06
9.18664e-06
9.18634e-06
4.10504e-06
2.13126e-06
9.09092e-07
6.08934e-07
3.49646e-06
6.03243e-07
3.49178e-06
2.13563e-06
4.10374e-06
9.18658e-06
9.18587e-06
4.10489e-06
5.47273e-06
5.47131e-06
1.18182e-06
5.47167e-06
5.47084e-06
1.84528e-05
1.84547e-05
1.84787e-05
1.84556e-05
1.18746e-06
5.48243e-06
5.48097e-06
5.47291e-06
5.47199e-06
1.84766e-05
1.84549e-05
2.13025e-06
5.91818e-07
3.48937e-06
9.03181e-07
2.12604e-06
5.97546e-07
3.49074e-06
4.10389e-06
9.18638e-06
4.10349e-06
9.18749e-06
4.10376e-06
9.18612e-06
4.10325e-06
9.18737e-06
2.13139e-06
9.08933e-07
6.08965e-07
3.49616e-06
6.03272e-07
3.49186e-06
2.13567e-06
2.13133e-06
9.08902e-07
6.08926e-07
3.49691e-06
6.03231e-07
3.49231e-06
2.13564e-06
4.10402e-06
9.18681e-06
9.18665e-06
4.105e-06
4.10386e-06
9.18744e-06
9.18686e-06
4.10492e-06
1.84514e-05
1.8454e-05
1.84537e-05
1.84564e-05
1.18765e-06
5.48227e-06
5.48377e-06
5.47248e-06
5.4742e-06
1.84801e-05
1.84551e-05
1.84819e-05
1.84575e-05
1.84817e-05
1.85176e-05
1.84847e-05
1.85202e-05
5.48588e-06
5.48753e-06
1.20221e-06
5.49802e-06
5.49951e-06
1.85154e-05
1.85191e-05
1.85184e-05
1.85217e-05
1.20706e-06
5.49448e-06
5.49616e-06
5.49963e-06
5.50112e-06
4.11384e-06
9.1881e-06
4.1056e-06
9.21478e-06
2.14423e-06
3.49946e-06
6.14625e-07
9.26385e-07
2.13706e-06
3.50835e-06
6.2054e-07
2.14418e-06
3.50026e-06
6.14591e-07
9.26359e-07
2.13702e-06
3.50896e-06
6.20507e-07
4.11714e-06
9.23146e-06
9.22147e-06
4.12161e-06
4.11709e-06
9.23141e-06
9.22187e-06
4.12156e-06
2.14677e-06
9.3184e-07
3.51235e-06
6.32398e-07
3.51138e-06
6.26528e-07
2.15253e-06
2.14674e-06
9.3176e-07
3.51241e-06
6.32353e-07
3.5119e-06
6.26492e-07
2.15246e-06
5.4889e-06
5.48724e-06
1.20232e-06
5.5e-06
5.49857e-06
1.84855e-05
1.85194e-05
1.85164e-05
1.85218e-05
1.20708e-06
5.495e-06
5.49351e-06
5.5015e-06
5.49984e-06
1.85146e-05
1.85204e-05
2.14419e-06
3.49996e-06
6.14619e-07
9.26174e-07
2.1371e-06
3.50874e-06
6.20516e-07
4.11378e-06
9.18901e-06
4.10592e-06
9.21556e-06
2.14418e-06
6.14668e-07
3.50018e-06
9.26442e-07
2.13702e-06
6.20567e-07
3.50893e-06
4.11706e-06
9.23257e-06
9.22219e-06
4.12162e-06
2.14672e-06
9.31624e-07
3.51283e-06
6.32372e-07
3.51177e-06
6.26512e-07
2.15252e-06
4.11719e-06
9.23187e-06
9.22255e-06
4.12153e-06
2.14666e-06
9.3187e-07
6.32412e-07
3.51255e-06
6.26563e-07
3.51185e-06
2.15244e-06
4.11406e-06
9.18977e-06
4.10622e-06
9.21596e-06
2.14427e-06
6.14719e-07
3.5004e-06
9.26394e-07
2.13721e-06
6.20614e-07
3.50822e-06
4.11389e-06
9.18974e-06
4.10605e-06
9.21462e-06
2.14674e-06
9.31679e-07
3.51195e-06
6.32361e-07
3.5115e-06
6.26531e-07
2.15231e-06
4.11714e-06
9.23098e-06
9.22266e-06
4.12119e-06
2.14665e-06
9.31761e-07
6.3241e-07
3.51155e-06
6.26574e-07
3.51092e-06
2.15228e-06
4.11698e-06
9.23041e-06
9.22128e-06
4.12114e-06
5.48835e-06
5.48679e-06
1.20237e-06
5.5e-06
5.49872e-06
1.84847e-05
1.852e-05
1.85181e-05
1.8523e-05
1.20719e-06
5.49556e-06
5.49421e-06
5.50143e-06
5.50019e-06
1.85161e-05
1.85212e-05
2.1442e-06
6.14699e-07
3.50076e-06
9.2619e-07
2.13728e-06
6.20594e-07
3.5086e-06
4.11391e-06
9.18982e-06
4.10641e-06
9.21626e-06
4.11381e-06
9.19037e-06
4.10608e-06
9.21488e-06
2.14675e-06
9.31796e-07
6.32447e-07
3.51217e-06
6.26607e-07
3.51161e-06
2.15225e-06
2.14666e-06
9.31559e-07
6.32394e-07
3.51207e-06
6.26547e-07
3.51132e-06
2.15226e-06
4.11721e-06
9.23129e-06
9.223e-06
4.12112e-06
4.11693e-06
9.23107e-06
9.22161e-06
4.12116e-06
1.84875e-05
1.85175e-05
1.84892e-05
1.85193e-05
1.2069e-06
5.49267e-06
5.49449e-06
5.49836e-06
5.4999e-06
1.85133e-05
1.85181e-05
1.85157e-05
1.852e-05
1.85032e-05
1.84736e-05
1.85066e-05
1.84774e-05
5.49012e-06
5.49191e-06
1.21504e-06
5.47478e-06
5.47679e-06
1.85083e-05
1.84703e-05
1.85116e-05
1.84741e-05
1.21983e-06
5.49044e-06
5.49224e-06
5.47412e-06
5.47614e-06
4.1166e-06
9.23083e-06
4.12151e-06
9.21098e-06
2.15413e-06
3.51196e-06
6.37987e-07
9.45554e-07
2.15351e-06
3.50608e-06
6.43242e-07
2.15406e-06
3.51198e-06
6.37934e-07
9.45375e-07
2.15345e-06
3.50597e-06
6.43181e-07
4.11451e-06
9.202e-06
9.20397e-06
4.11405e-06
4.11445e-06
9.20221e-06
9.20384e-06
4.11399e-06
2.15446e-06
9.502e-07
3.51026e-06
6.53476e-07
3.50554e-06
6.48306e-07
2.157e-06
2.15439e-06
9.50064e-07
3.51073e-06
6.53426e-07
3.50559e-06
6.4825e-07
2.15694e-06
5.49061e-06
5.48874e-06
1.21481e-06
5.47536e-06
5.47365e-06
1.85009e-05
1.84718e-05
1.85126e-05
1.84713e-05
1.21968e-06
5.49278e-06
5.4916e-06
5.47521e-06
5.47332e-06
1.85121e-05
1.84694e-05
2.15421e-06
3.51248e-06
6.37979e-07
9.45371e-07
2.15352e-06
3.50678e-06
6.43227e-07
4.11667e-06
9.23125e-06
4.12157e-06
9.21148e-06
2.1541e-06
6.3801e-07
3.51211e-06
9.45506e-07
2.1534e-06
6.4325e-07
3.50618e-06
4.11476e-06
9.20391e-06
9.20617e-06
4.11425e-06
2.15455e-06
9.5001e-07
3.51085e-06
6.53463e-07
3.50623e-06
6.48308e-07
2.15708e-06
4.1147e-06
9.20322e-06
9.20451e-06
4.11415e-06
2.15442e-06
9.50171e-07
6.53501e-07
3.51081e-06
6.48337e-07
3.50572e-06
2.15703e-06
4.11628e-06
9.23016e-06
4.12108e-06
9.20936e-06
2.15397e-06
6.37989e-07
3.51124e-06
9.45553e-07
2.1532e-06
6.43247e-07
3.5061e-06
4.11634e-06
9.22988e-06
4.12105e-06
9.21141e-06
2.15431e-06
9.49985e-07
3.51077e-06
6.53477e-07
3.50507e-06
6.48269e-07
2.15725e-06
4.11429e-06
9.20288e-06
9.20288e-06
4.1146e-06
2.15432e-06
9.50282e-07
6.53552e-07
3.51121e-06
6.48351e-07
3.50585e-06
2.1572e-06
4.11433e-06
9.20389e-06
9.20482e-06
4.11448e-06
5.49098e-06
5.48953e-06
1.21497e-06
5.47575e-06
5.47401e-06
1.85027e-05
1.84729e-05
1.85131e-05
1.84728e-05
1.21976e-06
5.49258e-06
5.49117e-06
5.47529e-06
5.47353e-06
1.85115e-05
1.84701e-05
2.154e-06
6.3797e-07
3.51177e-06
9.45372e-07
2.15324e-06
6.43239e-07
3.5067e-06
4.11619e-06
9.23042e-06
4.12112e-06
9.20932e-06
4.11642e-06
9.23059e-06
4.1211e-06
9.2126e-06
2.15433e-06
9.50083e-07
6.53562e-07
3.51066e-06
6.48351e-07
3.50521e-06
2.15725e-06
2.15439e-06
9.50094e-07
6.53539e-07
3.51165e-06
6.48334e-07
3.5064e-06
2.15722e-06
4.11436e-06
9.20302e-06
9.20285e-06
4.11454e-06
4.11443e-06
9.20474e-06
9.20593e-06
4.11452e-06
1.85012e-05
1.84761e-05
1.8504e-05
1.84787e-05
1.22007e-06
5.49289e-06
5.49429e-06
5.47531e-06
5.47705e-06
1.85155e-05
1.84741e-05
1.85171e-05
1.84766e-05
1.85312e-05
1.8618e-05
1.85341e-05
1.86206e-05
5.50287e-06
5.50457e-06
1.23722e-06
5.53839e-06
5.5399e-06
1.8612e-05
1.86278e-05
1.86149e-05
1.86303e-05
1.24315e-06
5.52947e-06
5.53116e-06
5.54369e-06
5.54521e-06
4.13327e-06
9.21014e-06
4.11715e-06
9.27e-06
2.16892e-06
3.51619e-06
6.59036e-07
9.67655e-07
2.15923e-06
3.53541e-06
6.65036e-07
2.16888e-06
3.51697e-06
6.58999e-07
9.67679e-07
2.15918e-06
3.53622e-06
6.65003e-07
4.13902e-06
9.2979e-06
9.28433e-06
4.14405e-06
4.13897e-06
9.29836e-06
9.28505e-06
4.14402e-06
2.17267e-06
9.73278e-07
3.54136e-06
6.77006e-07
3.54096e-06
6.71213e-07
2.17834e-06
2.17264e-06
9.73255e-07
3.54159e-06
6.76965e-07
3.54171e-06
6.71183e-07
2.17829e-06
5.50611e-06
5.5047e-06
1.23751e-06
5.54102e-06
5.54018e-06
1.85363e-05
1.86229e-05
1.86141e-05
1.8632e-05
1.2434e-06
5.53047e-06
5.52928e-06
5.54623e-06
5.54511e-06
1.86127e-05
1.86319e-05
2.16891e-06
3.5167e-06
6.59031e-07
9.67453e-07
2.15928e-06
3.53578e-06
6.65009e-07
4.13329e-06
9.21139e-06
4.11745e-06
9.27102e-06
2.16891e-06
6.59084e-07
3.51688e-06
9.67729e-07
2.15922e-06
6.65074e-07
3.5362e-06
4.13897e-06
9.29882e-06
9.28508e-06
4.14399e-06
2.17264e-06
9.73064e-07
3.54183e-06
6.76974e-07
3.54132e-06
6.71192e-07
2.1783e-06
4.13908e-06
9.29875e-06
9.28587e-06
4.14387e-06
2.1726e-06
9.73344e-07
6.77033e-07
3.54175e-06
6.71259e-07
3.54166e-06
2.17823e-06
4.13423e-06
9.21257e-06
4.11794e-06
9.27307e-06
2.16925e-06
6.59142e-07
3.5172e-06
9.67826e-07
2.15943e-06
6.65153e-07
3.53586e-06
4.13396e-06
9.21215e-06
4.11775e-06
9.27095e-06
2.17302e-06
9.73243e-07
3.54144e-06
6.77039e-07
3.54178e-06
6.71279e-07
2.1783e-06
4.13965e-06
9.29919e-06
9.2875e-06
4.14406e-06
2.17289e-06
9.73326e-07
6.77067e-07
3.54079e-06
6.71309e-07
3.54105e-06
2.17825e-06
4.13943e-06
9.29802e-06
9.28549e-06
4.14397e-06
5.50544e-06
5.50416e-06
1.23743e-06
5.54093e-06
5.53996e-06
1.85354e-05
1.86226e-05
1.86155e-05
1.86328e-05
1.24339e-06
5.53105e-06
5.52966e-06
5.5461e-06
5.54507e-06
1.86134e-05
1.86318e-05
2.16922e-06
6.59121e-07
3.51754e-06
9.67627e-07
2.15949e-06
6.65131e-07
3.53625e-06
4.13419e-06
9.21297e-06
4.1181e-06
9.27367e-06
4.13397e-06
9.21268e-06
4.11782e-06
9.27126e-06
2.17305e-06
9.73313e-07
6.77109e-07
3.54148e-06
6.71355e-07
3.54175e-06
2.17823e-06
2.17292e-06
9.7313e-07
6.77042e-07
3.5414e-06
6.71287e-07
3.54148e-06
2.17822e-06
4.13978e-06
9.29937e-06
9.28803e-06
4.14386e-06
4.13946e-06
9.29872e-06
9.2859e-06