/*--------------------------------*- C++ -*----------------------------------*\
| =========                 |                                                 |
| \\      /  F ield         | OpenFOAM: The Open Source CFD Toolbox           |
|  \\    /   O peration     | Version:  v2012                                 |
|   \\  /    A nd           | Website:  www.openfoam.com                      |
|    \\/     M anipulation  |                                                 |
\*---------------------------------------------------------------------------*/
FoamFile
{
    version     2.0;
    format      ascii;
    class       volScalarField;
    location    "0.245";
    object      p;
}
// * * * * * * * * * * * * * * * * * * * * * * * * * * * * * * * * * * * * * //

dimensions      [0 2 -2 0 0 0 0];


internalField   nonuniform List<scalar> 
247104
(
1.87948e-06
1.87955e-06
1.87966e-06
1.87958e-06
1.87944e-06
1.87961e-06
1.87965e-06
1.87947e-06
1.87955e-06
1.8796e-06
1.87966e-06
1.87948e-06
1.87937e-06
1.8795e-06
1.87966e-06
1.87957e-06
1.87967e-06
1.87966e-06
1.87935e-06
1.87897e-06
1.87882e-06
1.87901e-06
1.87939e-06
1.87967e-06
1.87966e-06
1.87959e-06
1.87948e-06
1.87897e-06
1.87848e-06
1.8783e-06
1.87852e-06
1.87904e-06
1.87952e-06
1.87957e-06
1.87948e-06
1.87945e-06
1.87937e-06
1.87882e-06
1.8783e-06
1.87811e-06
1.87835e-06
1.87889e-06
1.87941e-06
1.87942e-06
1.87961e-06
1.87951e-06
1.87901e-06
1.87852e-06
1.87835e-06
1.87857e-06
1.87908e-06
1.87954e-06
1.8796e-06
1.87965e-06
1.87966e-06
1.8794e-06
1.87904e-06
1.87889e-06
1.87908e-06
1.87944e-06
1.87967e-06
1.87965e-06
1.87947e-06
1.87957e-06
1.87967e-06
1.87952e-06
1.87941e-06
1.87954e-06
1.87967e-06
1.87953e-06
1.87966e-06
1.87957e-06
1.87942e-06
1.8796e-06
1.87965e-06
1.84585e-06
1.84382e-06
1.84349e-06
1.84232e-06
1.84228e-06
1.8422e-06
1.8422e-06
1.84352e-06
1.84388e-06
1.84349e-06
1.84144e-06
1.8386e-06
1.83854e-06
1.83854e-06
1.8386e-06
1.84183e-06
1.84204e-06
1.84232e-06
1.8386e-06
1.83854e-06
1.83859e-06
1.83859e-06
1.83854e-06
1.8386e-06
1.84224e-06
1.84326e-06
1.84586e-06
1.84228e-06
1.83854e-06
1.83859e-06
1.83869e-06
1.83869e-06
1.83859e-06
1.83854e-06
1.84216e-06
1.8438e-06
1.84382e-06
1.8422e-06
1.83854e-06
1.83859e-06
1.83869e-06
1.83869e-06
1.83859e-06
1.83853e-06
1.84233e-06
1.8422e-06
1.8422e-06
1.8386e-06
1.83854e-06
1.83859e-06
1.83859e-06
1.83853e-06
1.8386e-06
1.84212e-06
1.84309e-06
1.84352e-06
1.84183e-06
1.8386e-06
1.83853e-06
1.83853e-06
1.8386e-06
1.84198e-06
1.84223e-06
1.84363e-06
1.84387e-06
1.84204e-06
1.84224e-06
1.84216e-06
1.84233e-06
1.84212e-06
1.84222e-06
1.84427e-06
1.84326e-06
1.8438e-06
1.8422e-06
1.84309e-06
1.84363e-06
1.82574e-06
1.82555e-06
1.8254e-06
1.82323e-06
1.82315e-06
1.82313e-06
1.82321e-06
1.82541e-06
1.82563e-06
1.8254e-06
1.82251e-06
1.81952e-06
1.8194e-06
1.8194e-06
1.81955e-06
1.82315e-06
1.82368e-06
1.82322e-06
1.81954e-06
1.81917e-06
1.81918e-06
1.81918e-06
1.81918e-06
1.81955e-06
1.82396e-06
1.82593e-06
1.82574e-06
1.82315e-06
1.8194e-06
1.81918e-06
1.8192e-06
1.8192e-06
1.81918e-06
1.8194e-06
1.824e-06
1.82564e-06
1.82555e-06
1.82313e-06
1.8194e-06
1.81918e-06
1.8192e-06
1.8192e-06
1.81918e-06
1.8194e-06
1.82393e-06
1.82375e-06
1.82321e-06
1.81952e-06
1.81917e-06
1.81918e-06
1.81918e-06
1.81917e-06
1.81952e-06
1.82401e-06
1.826e-06
1.82542e-06
1.82315e-06
1.81955e-06
1.8194e-06
1.8194e-06
1.81954e-06
1.82363e-06
1.82385e-06
1.82589e-06
1.82563e-06
1.82368e-06
1.82396e-06
1.824e-06
1.82393e-06
1.82402e-06
1.82385e-06
1.8259e-06
1.82593e-06
1.82564e-06
1.82374e-06
1.82599e-06
1.82589e-06
1.80646e-06
1.80628e-06
1.80615e-06
1.80391e-06
1.80385e-06
1.80375e-06
1.80394e-06
1.80614e-06
1.80638e-06
1.80615e-06
1.80309e-06
1.80017e-06
1.80012e-06
1.80011e-06
1.80016e-06
1.80376e-06
1.80449e-06
1.80391e-06
1.80017e-06
1.80001e-06
1.80001e-06
1.80001e-06
1.80001e-06
1.80016e-06
1.8047e-06
1.80665e-06
1.80646e-06
1.80385e-06
1.80012e-06
1.80001e-06
1.80001e-06
1.80001e-06
1.80001e-06
1.80012e-06
1.80479e-06
1.80634e-06
1.80628e-06
1.80375e-06
1.80012e-06
1.80001e-06
1.80001e-06
1.80001e-06
1.80001e-06
1.80012e-06
1.80476e-06
1.80455e-06
1.80394e-06
1.80017e-06
1.80001e-06
1.80001e-06
1.80001e-06
1.80001e-06
1.80017e-06
1.80477e-06
1.8067e-06
1.80616e-06
1.80377e-06
1.80017e-06
1.80012e-06
1.80012e-06
1.80017e-06
1.80454e-06
1.80465e-06
1.80666e-06
1.80639e-06
1.80449e-06
1.8047e-06
1.80479e-06
1.80475e-06
1.80477e-06
1.80465e-06
1.80665e-06
1.80665e-06
1.80634e-06
1.80455e-06
1.80669e-06
1.80665e-06
1.78716e-06
1.78699e-06
1.78682e-06
1.78457e-06
1.78449e-06
1.78436e-06
1.78459e-06
1.78683e-06
1.78706e-06
1.78682e-06
1.78373e-06
1.7808e-06
1.78078e-06
1.78078e-06
1.7808e-06
1.78437e-06
1.78518e-06
1.78457e-06
1.7808e-06
1.78075e-06
1.78075e-06
1.78075e-06
1.78075e-06
1.7808e-06
1.7854e-06
1.78735e-06
1.78716e-06
1.78449e-06
1.78078e-06
1.78075e-06
1.78075e-06
1.78075e-06
1.78075e-06
1.78078e-06
1.78554e-06
1.78709e-06
1.78699e-06
1.78436e-06
1.78078e-06
1.78075e-06
1.78075e-06
1.78075e-06
1.78075e-06
1.78078e-06
1.78552e-06
1.78529e-06
1.78459e-06
1.7808e-06
1.78075e-06
1.78075e-06
1.78075e-06
1.78075e-06
1.7808e-06
1.78549e-06
1.78743e-06
1.78683e-06
1.78437e-06
1.7808e-06
1.78078e-06
1.78078e-06
1.7808e-06
1.78531e-06
1.78537e-06
1.78734e-06
1.78705e-06
1.78518e-06
1.78541e-06
1.78554e-06
1.78552e-06
1.78549e-06
1.78537e-06
1.78729e-06
1.78736e-06
1.78709e-06
1.7853e-06
1.78743e-06
1.78735e-06
1.76783e-06
1.76767e-06
1.76749e-06
1.76523e-06
1.76515e-06
1.76501e-06
1.76525e-06
1.76749e-06
1.76772e-06
1.76748e-06
1.76439e-06
1.76146e-06
1.76145e-06
1.76145e-06
1.76146e-06
1.76501e-06
1.76585e-06
1.76523e-06
1.76145e-06
1.76144e-06
1.76144e-06
1.76144e-06
1.76144e-06
1.76146e-06
1.76608e-06
1.76803e-06
1.76784e-06
1.76515e-06
1.76145e-06
1.76144e-06
1.76144e-06
1.76144e-06
1.76144e-06
1.76145e-06
1.76622e-06
1.76778e-06
1.76767e-06
1.76501e-06
1.76145e-06
1.76144e-06
1.76144e-06
1.76144e-06
1.76144e-06
1.76145e-06
1.76621e-06
1.76598e-06
1.76525e-06
1.76145e-06
1.76144e-06
1.76144e-06
1.76144e-06
1.76144e-06
1.76145e-06
1.76616e-06
1.76811e-06
1.76749e-06
1.76501e-06
1.76145e-06
1.76145e-06
1.76145e-06
1.76145e-06
1.76601e-06
1.76605e-06
1.76801e-06
1.76772e-06
1.76585e-06
1.76608e-06
1.76622e-06
1.76621e-06
1.76617e-06
1.76605e-06
1.76798e-06
1.76803e-06
1.76778e-06
1.76599e-06
1.76811e-06
1.76802e-06
1.74851e-06
1.74834e-06
1.74815e-06
1.7459e-06
1.74581e-06
1.74568e-06
1.74591e-06
1.74816e-06
1.74838e-06
1.74815e-06
1.74506e-06
1.74212e-06
1.74212e-06
1.74212e-06
1.74212e-06
1.74567e-06
1.74651e-06
1.7459e-06
1.74212e-06
1.74212e-06
1.74212e-06
1.74212e-06
1.74212e-06
1.74212e-06
1.74674e-06
1.7487e-06
1.74851e-06
1.74581e-06
1.74212e-06
1.74212e-06
1.74212e-06
1.74212e-06
1.74212e-06
1.74212e-06
1.7469e-06
1.74845e-06
1.74834e-06
1.74568e-06
1.74212e-06
1.74212e-06
1.74212e-06
1.74212e-06
1.74212e-06
1.74212e-06
1.74689e-06
1.74666e-06
1.74591e-06
1.74212e-06
1.74212e-06
1.74212e-06
1.74212e-06
1.74212e-06
1.74212e-06
1.74683e-06
1.74879e-06
1.74816e-06
1.74567e-06
1.74212e-06
1.74212e-06
1.74212e-06
1.74212e-06
1.74669e-06
1.74672e-06
1.74868e-06
1.74838e-06
1.74651e-06
1.74674e-06
1.74689e-06
1.74689e-06
1.74683e-06
1.74672e-06
1.74864e-06
1.7487e-06
1.74845e-06
1.74666e-06
1.74878e-06
1.74868e-06
1.72918e-06
1.72901e-06
1.72881e-06
1.72656e-06
1.72648e-06
1.72634e-06
1.72658e-06
1.72883e-06
1.72905e-06
1.72881e-06
1.72573e-06
1.72279e-06
1.72279e-06
1.72279e-06
1.72279e-06
1.72633e-06
1.72717e-06
1.72656e-06
1.72279e-06
1.72279e-06
1.72279e-06
1.72279e-06
1.72279e-06
1.72279e-06
1.72741e-06
1.72937e-06
1.72918e-06
1.72648e-06
1.72279e-06
1.72279e-06
1.72279e-06
1.72279e-06
1.72279e-06
1.72279e-06
1.72756e-06
1.72912e-06
1.72901e-06
1.72635e-06
1.72279e-06
1.72279e-06
1.72279e-06
1.72279e-06
1.72279e-06
1.72279e-06
1.72756e-06
1.72733e-06
1.72658e-06
1.72279e-06
1.72279e-06
1.72279e-06
1.72279e-06
1.72279e-06
1.72279e-06
1.7275e-06
1.72946e-06
1.72883e-06
1.72633e-06
1.72279e-06
1.72279e-06
1.72279e-06
1.72279e-06
1.72736e-06
1.72739e-06
1.72935e-06
1.72905e-06
1.72718e-06
1.72741e-06
1.72756e-06
1.72756e-06
1.7275e-06
1.72739e-06
1.7293e-06
1.72937e-06
1.72912e-06
1.72733e-06
1.72945e-06
1.72935e-06
1.70984e-06
1.70968e-06
1.70948e-06
1.70723e-06
1.70715e-06
1.70701e-06
1.70725e-06
1.7095e-06
1.70972e-06
1.70948e-06
1.7064e-06
1.70345e-06
1.70345e-06
1.70345e-06
1.70345e-06
1.707e-06
1.70784e-06
1.70723e-06
1.70345e-06
1.70345e-06
1.70345e-06
1.70345e-06
1.70345e-06
1.70345e-06
1.70808e-06
1.71003e-06
1.70985e-06
1.70715e-06
1.70345e-06
1.70345e-06
1.70345e-06
1.70345e-06
1.70345e-06
1.70345e-06
1.70823e-06
1.70979e-06
1.70968e-06
1.70701e-06
1.70345e-06
1.70345e-06
1.70345e-06
1.70345e-06
1.70345e-06
1.70345e-06
1.70823e-06
1.708e-06
1.70725e-06
1.70345e-06
1.70345e-06
1.70345e-06
1.70345e-06
1.70345e-06
1.70345e-06
1.70817e-06
1.71012e-06
1.7095e-06
1.707e-06
1.70345e-06
1.70345e-06
1.70345e-06
1.70345e-06
1.70803e-06
1.70806e-06
1.71002e-06
1.70972e-06
1.70785e-06
1.70808e-06
1.70823e-06
1.70823e-06
1.70817e-06
1.70806e-06
1.70997e-06
1.71003e-06
1.70979e-06
1.708e-06
1.71012e-06
1.71002e-06
1.69051e-06
1.69034e-06
1.69015e-06
1.6879e-06
1.68782e-06
1.68768e-06
1.68791e-06
1.69017e-06
1.69039e-06
1.69015e-06
1.68707e-06
1.68412e-06
1.68412e-06
1.68412e-06
1.68412e-06
1.68767e-06
1.68851e-06
1.6879e-06
1.68412e-06
1.68412e-06
1.68412e-06
1.68412e-06
1.68412e-06
1.68412e-06
1.68875e-06
1.6907e-06
1.69051e-06
1.68782e-06
1.68412e-06
1.68412e-06
1.68412e-06
1.68412e-06
1.68412e-06
1.68412e-06
1.6889e-06
1.69046e-06
1.69034e-06
1.68768e-06
1.68412e-06
1.68412e-06
1.68412e-06
1.68412e-06
1.68412e-06
1.68412e-06
1.68889e-06
1.68866e-06
1.68791e-06
1.68412e-06
1.68412e-06
1.68412e-06
1.68412e-06
1.68412e-06
1.68412e-06
1.68884e-06
1.69079e-06
1.69016e-06
1.68767e-06
1.68412e-06
1.68412e-06
1.68412e-06
1.68412e-06
1.6887e-06
1.68873e-06
1.69069e-06
1.69039e-06
1.68852e-06
1.68875e-06
1.6889e-06
1.68889e-06
1.68884e-06
1.68873e-06
1.69064e-06
1.6907e-06
1.69046e-06
1.68866e-06
1.69079e-06
1.69069e-06
1.67118e-06
1.67101e-06
1.67082e-06
1.66857e-06
1.66849e-06
1.66835e-06
1.66858e-06
1.67084e-06
1.67106e-06
1.67082e-06
1.66774e-06
1.66479e-06
1.66479e-06
1.66479e-06
1.66479e-06
1.66833e-06
1.66917e-06
1.66857e-06
1.66479e-06
1.66479e-06
1.66479e-06
1.66479e-06
1.66479e-06
1.66479e-06
1.66941e-06
1.67137e-06
1.67118e-06
1.66848e-06
1.66479e-06
1.66479e-06
1.66479e-06
1.66479e-06
1.66479e-06
1.66479e-06
1.66957e-06
1.67113e-06
1.67101e-06
1.66835e-06
1.66479e-06
1.66479e-06
1.66479e-06
1.66479e-06
1.66479e-06
1.66479e-06
1.66956e-06
1.66933e-06
1.66858e-06
1.66479e-06
1.66479e-06
1.66479e-06
1.66479e-06
1.66479e-06
1.66479e-06
1.66951e-06
1.67146e-06
1.67083e-06
1.66834e-06
1.66479e-06
1.66479e-06
1.66479e-06
1.66479e-06
1.66937e-06
1.6694e-06
1.67135e-06
1.67106e-06
1.66919e-06
1.66941e-06
1.66957e-06
1.66956e-06
1.6695e-06
1.6694e-06
1.67131e-06
1.67137e-06
1.67113e-06
1.66933e-06
1.67146e-06
1.67136e-06
1.65185e-06
1.65168e-06
1.65149e-06
1.64924e-06
1.64915e-06
1.64902e-06
1.64925e-06
1.6515e-06
1.65172e-06
1.65149e-06
1.6484e-06
1.64546e-06
1.64546e-06
1.64546e-06
1.64546e-06
1.649e-06
1.64985e-06
1.64923e-06
1.64546e-06
1.64546e-06
1.64546e-06
1.64546e-06
1.64546e-06
1.64546e-06
1.65008e-06
1.65204e-06
1.65185e-06
1.64915e-06
1.64546e-06
1.64546e-06
1.64546e-06
1.64546e-06
1.64546e-06
1.64546e-06
1.65024e-06
1.6518e-06
1.65168e-06
1.64902e-06
1.64546e-06
1.64546e-06
1.64546e-06
1.64546e-06
1.64546e-06
1.64546e-06
1.65023e-06
1.65e-06
1.64925e-06
1.64546e-06
1.64546e-06
1.64546e-06
1.64546e-06
1.64546e-06
1.64546e-06
1.65017e-06
1.65213e-06
1.6515e-06
1.649e-06
1.64546e-06
1.64546e-06
1.64546e-06
1.64546e-06
1.65004e-06
1.65006e-06
1.65202e-06
1.65172e-06
1.64985e-06
1.65008e-06
1.65023e-06
1.65023e-06
1.65017e-06
1.65007e-06
1.65198e-06
1.65204e-06
1.6518e-06
1.65e-06
1.65213e-06
1.65202e-06
1.63251e-06
1.63235e-06
1.63216e-06
1.6299e-06
1.62982e-06
1.62968e-06
1.62992e-06
1.63217e-06
1.63239e-06
1.63215e-06
1.62907e-06
1.62613e-06
1.62613e-06
1.62613e-06
1.62613e-06
1.62967e-06
1.63051e-06
1.6299e-06
1.62613e-06
1.62613e-06
1.62613e-06
1.62613e-06
1.62613e-06
1.62613e-06
1.63075e-06
1.63271e-06
1.63252e-06
1.62982e-06
1.62613e-06
1.62613e-06
1.62613e-06
1.62613e-06
1.62613e-06
1.62613e-06
1.6309e-06
1.63246e-06
1.63235e-06
1.62968e-06
1.62613e-06
1.62613e-06
1.62613e-06
1.62613e-06
1.62613e-06
1.62613e-06
1.6309e-06
1.63067e-06
1.62992e-06
1.62613e-06
1.62613e-06
1.62613e-06
1.62613e-06
1.62613e-06
1.62613e-06
1.63084e-06
1.6328e-06
1.63217e-06
1.62967e-06
1.62613e-06
1.62613e-06
1.62613e-06
1.62613e-06
1.6307e-06
1.63073e-06
1.63269e-06
1.63239e-06
1.63052e-06
1.63075e-06
1.6309e-06
1.6309e-06
1.63084e-06
1.63073e-06
1.63264e-06
1.63271e-06
1.63246e-06
1.63067e-06
1.6328e-06
1.63269e-06
1.61318e-06
1.61301e-06
1.61282e-06
1.61057e-06
1.61049e-06
1.61035e-06
1.61058e-06
1.61284e-06
1.61306e-06
1.61282e-06
1.60974e-06
1.60679e-06
1.60679e-06
1.60679e-06
1.60679e-06
1.61034e-06
1.61118e-06
1.61057e-06
1.60679e-06
1.60679e-06
1.60679e-06
1.60679e-06
1.60679e-06
1.60679e-06
1.61142e-06
1.61337e-06
1.61318e-06
1.61049e-06
1.60679e-06
1.60679e-06
1.60679e-06
1.60679e-06
1.60679e-06
1.60679e-06
1.61157e-06
1.61313e-06
1.61301e-06
1.61035e-06
1.60679e-06
1.60679e-06
1.60679e-06
1.60679e-06
1.60679e-06
1.60679e-06
1.61156e-06
1.61133e-06
1.61058e-06
1.60679e-06
1.60679e-06
1.60679e-06
1.60679e-06
1.60679e-06
1.60679e-06
1.61151e-06
1.61346e-06
1.61283e-06
1.61034e-06
1.60679e-06
1.60679e-06
1.60679e-06
1.60679e-06
1.61137e-06
1.6114e-06
1.61336e-06
1.61306e-06
1.61119e-06
1.61142e-06
1.61157e-06
1.61156e-06
1.6115e-06
1.6114e-06
1.61331e-06
1.61337e-06
1.61313e-06
1.61133e-06
1.61346e-06
1.61336e-06
1.59385e-06
1.59368e-06
1.59349e-06
1.59123e-06
1.59115e-06
1.59102e-06
1.59125e-06
1.5935e-06
1.59372e-06
1.59349e-06
1.5904e-06
1.58746e-06
1.58746e-06
1.58746e-06
1.58746e-06
1.591e-06
1.59184e-06
1.59123e-06
1.58746e-06
1.58746e-06
1.58746e-06
1.58746e-06
1.58746e-06
1.58746e-06
1.59208e-06
1.59404e-06
1.59385e-06
1.59115e-06
1.58746e-06
1.58746e-06
1.58746e-06
1.58746e-06
1.58746e-06
1.58746e-06
1.59224e-06
1.59379e-06
1.59368e-06
1.59102e-06
1.58746e-06
1.58746e-06
1.58746e-06
1.58746e-06
1.58746e-06
1.58746e-06
1.59223e-06
1.592e-06
1.59125e-06
1.58746e-06
1.58746e-06
1.58746e-06
1.58746e-06
1.58746e-06
1.58746e-06
1.59217e-06
1.59413e-06
1.5935e-06
1.591e-06
1.58746e-06
1.58746e-06
1.58746e-06
1.58746e-06
1.59203e-06
1.59206e-06
1.59402e-06
1.59372e-06
1.59185e-06
1.59208e-06
1.59223e-06
1.59223e-06
1.59217e-06
1.59207e-06
1.59397e-06
1.59404e-06
1.59379e-06
1.592e-06
1.59413e-06
1.59402e-06
1.57451e-06
1.57434e-06
1.57415e-06
1.5719e-06
1.57182e-06
1.57168e-06
1.57191e-06
1.57417e-06
1.57439e-06
1.57415e-06
1.57107e-06
1.56812e-06
1.56812e-06
1.56812e-06
1.56812e-06
1.57167e-06
1.57251e-06
1.5719e-06
1.56812e-06
1.56812e-06
1.56812e-06
1.56812e-06
1.56812e-06
1.56812e-06
1.57275e-06
1.5747e-06
1.57452e-06
1.57182e-06
1.56812e-06
1.56812e-06
1.56812e-06
1.56812e-06
1.56812e-06
1.56812e-06
1.5729e-06
1.57446e-06
1.57434e-06
1.57168e-06
1.56812e-06
1.56812e-06
1.56812e-06
1.56812e-06
1.56812e-06
1.56812e-06
1.57289e-06
1.57266e-06
1.57191e-06
1.56812e-06
1.56812e-06
1.56812e-06
1.56812e-06
1.56812e-06
1.56812e-06
1.57284e-06
1.57479e-06
1.57417e-06
1.57167e-06
1.56812e-06
1.56812e-06
1.56812e-06
1.56812e-06
1.5727e-06
1.57273e-06
1.57469e-06
1.57439e-06
1.57252e-06
1.57275e-06
1.5729e-06
1.57289e-06
1.57283e-06
1.57273e-06
1.57464e-06
1.5747e-06
1.57446e-06
1.57267e-06
1.57479e-06
1.57469e-06
1.55518e-06
1.55501e-06
1.55482e-06
1.55256e-06
1.55248e-06
1.55235e-06
1.55258e-06
1.55483e-06
1.55505e-06
1.55482e-06
1.55173e-06
1.54879e-06
1.54879e-06
1.54879e-06
1.54879e-06
1.55233e-06
1.55318e-06
1.55256e-06
1.54879e-06
1.54879e-06
1.54879e-06
1.54879e-06
1.54879e-06
1.54879e-06
1.55341e-06
1.55537e-06
1.55518e-06
1.55248e-06
1.54879e-06
1.54879e-06
1.54879e-06
1.54879e-06
1.54879e-06
1.54879e-06
1.55357e-06
1.55513e-06
1.55501e-06
1.55235e-06
1.54879e-06
1.54879e-06
1.54879e-06
1.54879e-06
1.54879e-06
1.54879e-06
1.55356e-06
1.55333e-06
1.55258e-06
1.54879e-06
1.54879e-06
1.54879e-06
1.54879e-06
1.54879e-06
1.54879e-06
1.5535e-06
1.55546e-06
1.55483e-06
1.55233e-06
1.54879e-06
1.54879e-06
1.54879e-06
1.54879e-06
1.55337e-06
1.55339e-06
1.55535e-06
1.55505e-06
1.55318e-06
1.55341e-06
1.55356e-06
1.55356e-06
1.5535e-06
1.5534e-06
1.55531e-06
1.55537e-06
1.55513e-06
1.55333e-06
1.55546e-06
1.55535e-06
1.53584e-06
1.53568e-06
1.53548e-06
1.53323e-06
1.53315e-06
1.53301e-06
1.53325e-06
1.53549e-06
1.53572e-06
1.53548e-06
1.5324e-06
1.52945e-06
1.52945e-06
1.52945e-06
1.52945e-06
1.533e-06
1.53384e-06
1.53323e-06
1.52945e-06
1.52945e-06
1.52945e-06
1.52945e-06
1.52945e-06
1.52945e-06
1.53408e-06
1.53603e-06
1.53585e-06
1.53315e-06
1.52945e-06
1.52945e-06
1.52945e-06
1.52945e-06
1.52945e-06
1.52945e-06
1.53423e-06
1.53579e-06
1.53568e-06
1.53301e-06
1.52945e-06
1.52945e-06
1.52945e-06
1.52945e-06
1.52945e-06
1.52945e-06
1.53423e-06
1.534e-06
1.53324e-06
1.52945e-06
1.52945e-06
1.52945e-06
1.52945e-06
1.52945e-06
1.52945e-06
1.53417e-06
1.53612e-06
1.5355e-06
1.533e-06
1.52945e-06
1.52945e-06
1.52945e-06
1.52945e-06
1.53403e-06
1.53406e-06
1.53602e-06
1.53572e-06
1.53385e-06
1.53408e-06
1.53423e-06
1.53423e-06
1.53417e-06
1.53406e-06
1.53597e-06
1.53603e-06
1.53579e-06
1.534e-06
1.53612e-06
1.53602e-06
1.51651e-06
1.51634e-06
1.51615e-06
1.5139e-06
1.51381e-06
1.51368e-06
1.51391e-06
1.51616e-06
1.51639e-06
1.51615e-06
1.51306e-06
1.51012e-06
1.51012e-06
1.51012e-06
1.51012e-06
1.51367e-06
1.51451e-06
1.5139e-06
1.51012e-06
1.51012e-06
1.51012e-06
1.51012e-06
1.51012e-06
1.51012e-06
1.51474e-06
1.5167e-06
1.51651e-06
1.51381e-06
1.51012e-06
1.51012e-06
1.51012e-06
1.51012e-06
1.51012e-06
1.51012e-06
1.5149e-06
1.51646e-06
1.51634e-06
1.51368e-06
1.51012e-06
1.51012e-06
1.51012e-06
1.51012e-06
1.51012e-06
1.51012e-06
1.51489e-06
1.51466e-06
1.51391e-06
1.51012e-06
1.51012e-06
1.51012e-06
1.51012e-06
1.51012e-06
1.51012e-06
1.51484e-06
1.51679e-06
1.51616e-06
1.51367e-06
1.51012e-06
1.51012e-06
1.51012e-06
1.51012e-06
1.5147e-06
1.51473e-06
1.51668e-06
1.51639e-06
1.51452e-06
1.51474e-06
1.5149e-06
1.51489e-06
1.51483e-06
1.51473e-06
1.51664e-06
1.5167e-06
1.51646e-06
1.51466e-06
1.51679e-06
1.51669e-06
1.49718e-06
1.49701e-06
1.49681e-06
1.49456e-06
1.49448e-06
1.49434e-06
1.49458e-06
1.49683e-06
1.49705e-06
1.49681e-06
1.49373e-06
1.49079e-06
1.49079e-06
1.49079e-06
1.49079e-06
1.49433e-06
1.49517e-06
1.49456e-06
1.49079e-06
1.49079e-06
1.49079e-06
1.49079e-06
1.49079e-06
1.49079e-06
1.49541e-06
1.49737e-06
1.49718e-06
1.49448e-06
1.49079e-06
1.49079e-06
1.49079e-06
1.49079e-06
1.49079e-06
1.49079e-06
1.49556e-06
1.49712e-06
1.49701e-06
1.49435e-06
1.49079e-06
1.49079e-06
1.49079e-06
1.49079e-06
1.49079e-06
1.49079e-06
1.49556e-06
1.49533e-06
1.49458e-06
1.49079e-06
1.49079e-06
1.49079e-06
1.49079e-06
1.49079e-06
1.49079e-06
1.4955e-06
1.49746e-06
1.49683e-06
1.49433e-06
1.49079e-06
1.49079e-06
1.49079e-06
1.49079e-06
1.49536e-06
1.49539e-06
1.49735e-06
1.49705e-06
1.49518e-06
1.49541e-06
1.49556e-06
1.49556e-06
1.4955e-06
1.49539e-06
1.4973e-06
1.49737e-06
1.49712e-06
1.49533e-06
1.49746e-06
1.49735e-06
1.47784e-06
1.47767e-06
1.47748e-06
1.47523e-06
1.47515e-06
1.47501e-06
1.47524e-06
1.47749e-06
1.47772e-06
1.47748e-06
1.4744e-06
1.47145e-06
1.47145e-06
1.47145e-06
1.47145e-06
1.475e-06
1.47584e-06
1.47523e-06
1.47145e-06
1.47145e-06
1.47145e-06
1.47145e-06
1.47145e-06
1.47145e-06
1.47608e-06
1.47803e-06
1.47785e-06
1.47515e-06
1.47145e-06
1.47145e-06
1.47145e-06
1.47145e-06
1.47145e-06
1.47145e-06
1.47623e-06
1.47779e-06
1.47767e-06
1.47501e-06
1.47145e-06
1.47145e-06
1.47145e-06
1.47145e-06
1.47145e-06
1.47145e-06
1.47622e-06
1.47599e-06
1.47524e-06
1.47145e-06
1.47145e-06
1.47145e-06
1.47145e-06
1.47145e-06
1.47145e-06
1.47617e-06
1.47812e-06
1.4775e-06
1.475e-06
1.47145e-06
1.47145e-06
1.47145e-06
1.47145e-06
1.47603e-06
1.47606e-06
1.47802e-06
1.47772e-06
1.47585e-06
1.47608e-06
1.47623e-06
1.47622e-06
1.47617e-06
1.47606e-06
1.47797e-06
1.47803e-06
1.47779e-06
1.47599e-06
1.47812e-06
1.47802e-06
1.45851e-06
1.45834e-06
1.45815e-06
1.4559e-06
1.45581e-06
1.45568e-06
1.45591e-06
1.45816e-06
1.45839e-06
1.45815e-06
1.45506e-06
1.45212e-06
1.45212e-06
1.45212e-06
1.45212e-06
1.45567e-06
1.45651e-06
1.4559e-06
1.45212e-06
1.45212e-06
1.45212e-06
1.45212e-06
1.45212e-06
1.45212e-06
1.45674e-06
1.4587e-06
1.45851e-06
1.45581e-06
1.45212e-06
1.45212e-06
1.45212e-06
1.45212e-06
1.45212e-06
1.45212e-06
1.4569e-06
1.45846e-06
1.45834e-06
1.45568e-06
1.45212e-06
1.45212e-06
1.45212e-06
1.45212e-06
1.45212e-06
1.45212e-06
1.45689e-06
1.45666e-06
1.45591e-06
1.45212e-06
1.45212e-06
1.45212e-06
1.45212e-06
1.45212e-06
1.45212e-06
1.45684e-06
1.45879e-06
1.45816e-06
1.45567e-06
1.45212e-06
1.45212e-06
1.45212e-06
1.45212e-06
1.4567e-06
1.45673e-06
1.45868e-06
1.45839e-06
1.45652e-06
1.45674e-06
1.4569e-06
1.45689e-06
1.45683e-06
1.45673e-06
1.45864e-06
1.4587e-06
1.45846e-06
1.45666e-06
1.45879e-06
1.45869e-06
1.43918e-06
1.43901e-06
1.43882e-06
1.43656e-06
1.43648e-06
1.43635e-06
1.43658e-06
1.43883e-06
1.43905e-06
1.43881e-06
1.43573e-06
1.43279e-06
1.43279e-06
1.43279e-06
1.43279e-06
1.43633e-06
1.43717e-06
1.43656e-06
1.43279e-06
1.43279e-06
1.43279e-06
1.43279e-06
1.43279e-06
1.43279e-06
1.43741e-06
1.43937e-06
1.43918e-06
1.43648e-06
1.43279e-06
1.43279e-06
1.43279e-06
1.43279e-06
1.43279e-06
1.43279e-06
1.43757e-06
1.43912e-06
1.43901e-06
1.43635e-06
1.43279e-06
1.43279e-06
1.43279e-06
1.43279e-06
1.43279e-06
1.43279e-06
1.43756e-06
1.43733e-06
1.43658e-06
1.43279e-06
1.43279e-06
1.43279e-06
1.43279e-06
1.43279e-06
1.43279e-06
1.4375e-06
1.43946e-06
1.43883e-06
1.43633e-06
1.43279e-06
1.43279e-06
1.43279e-06
1.43279e-06
1.43736e-06
1.43739e-06
1.43935e-06
1.43905e-06
1.43718e-06
1.43741e-06
1.43756e-06
1.43756e-06
1.4375e-06
1.4374e-06
1.4393e-06
1.43937e-06
1.43912e-06
1.43733e-06
1.43946e-06
1.43935e-06
1.41984e-06
1.41968e-06
1.41948e-06
1.41723e-06
1.41715e-06
1.41701e-06
1.41725e-06
1.4195e-06
1.41972e-06
1.41948e-06
1.4164e-06
1.41345e-06
1.41345e-06
1.41345e-06
1.41346e-06
1.417e-06
1.41784e-06
1.41723e-06
1.41345e-06
1.41345e-06
1.41345e-06
1.41345e-06
1.41345e-06
1.41346e-06
1.41808e-06
1.42004e-06
1.41985e-06
1.41715e-06
1.41345e-06
1.41345e-06
1.41345e-06
1.41345e-06
1.41345e-06
1.41345e-06
1.41823e-06
1.41979e-06
1.41968e-06
1.41701e-06
1.41345e-06
1.41345e-06
1.41345e-06
1.41345e-06
1.41345e-06
1.41345e-06
1.41823e-06
1.418e-06
1.41725e-06
1.41345e-06
1.41345e-06
1.41345e-06
1.41345e-06
1.41345e-06
1.41345e-06
1.41817e-06
1.42013e-06
1.4195e-06
1.417e-06
1.41345e-06
1.41345e-06
1.41345e-06
1.41345e-06
1.41803e-06
1.41806e-06
1.42002e-06
1.41972e-06
1.41785e-06
1.41808e-06
1.41823e-06
1.41823e-06
1.41817e-06
1.41806e-06
1.41997e-06
1.42004e-06
1.41979e-06
1.418e-06
1.42012e-06
1.42002e-06
1.40051e-06
1.40034e-06
1.40015e-06
1.3979e-06
1.39782e-06
1.39768e-06
1.39791e-06
1.40016e-06
1.40039e-06
1.40015e-06
1.39707e-06
1.39412e-06
1.39412e-06
1.39412e-06
1.39412e-06
1.39767e-06
1.39851e-06
1.3979e-06
1.39412e-06
1.39412e-06
1.39412e-06
1.39412e-06
1.39412e-06
1.39412e-06
1.39875e-06
1.4007e-06
1.40051e-06
1.39782e-06
1.39412e-06
1.39412e-06
1.39412e-06
1.39412e-06
1.39412e-06
1.39412e-06
1.3989e-06
1.40046e-06
1.40034e-06
1.39768e-06
1.39412e-06
1.39412e-06
1.39412e-06
1.39412e-06
1.39412e-06
1.39412e-06
1.39889e-06
1.39866e-06
1.39791e-06
1.39412e-06
1.39412e-06
1.39412e-06
1.39412e-06
1.39412e-06
1.39412e-06
1.39884e-06
1.40079e-06
1.40016e-06
1.39767e-06
1.39412e-06
1.39412e-06
1.39412e-06
1.39412e-06
1.3987e-06
1.39873e-06
1.40069e-06
1.40039e-06
1.39852e-06
1.39875e-06
1.3989e-06
1.39889e-06
1.39883e-06
1.39873e-06
1.40064e-06
1.4007e-06
1.40046e-06
1.39866e-06
1.40079e-06
1.40069e-06
1.38118e-06
1.38101e-06
1.38082e-06
1.37857e-06
1.37848e-06
1.37835e-06
1.37858e-06
1.38083e-06
1.38106e-06
1.38082e-06
1.37773e-06
1.37479e-06
1.37479e-06
1.37479e-06
1.37479e-06
1.37833e-06
1.37917e-06
1.37857e-06
1.37479e-06
1.37479e-06
1.37479e-06
1.37479e-06
1.37479e-06
1.37479e-06
1.37941e-06
1.38137e-06
1.38118e-06
1.37848e-06
1.37479e-06
1.37479e-06
1.37479e-06
1.37479e-06
1.37479e-06
1.37479e-06
1.37957e-06
1.38113e-06
1.38101e-06
1.37835e-06
1.37479e-06
1.37479e-06
1.37479e-06
1.37479e-06
1.37479e-06
1.37479e-06
1.37956e-06
1.37933e-06
1.37858e-06
1.37479e-06
1.37479e-06
1.37479e-06
1.37479e-06
1.37479e-06
1.37479e-06
1.37951e-06
1.38146e-06
1.38083e-06
1.37834e-06
1.37479e-06
1.37479e-06
1.37479e-06
1.37479e-06
1.37937e-06
1.3794e-06
1.38135e-06
1.38106e-06
1.37919e-06
1.37941e-06
1.37957e-06
1.37956e-06
1.3795e-06
1.3794e-06
1.38131e-06
1.38137e-06
1.38113e-06
1.37933e-06
1.38146e-06
1.38136e-06
1.36185e-06
1.36168e-06
1.36149e-06
1.35924e-06
1.35915e-06
1.35902e-06
1.35925e-06
1.3615e-06
1.36172e-06
1.36148e-06
1.3584e-06
1.35546e-06
1.35546e-06
1.35546e-06
1.35546e-06
1.359e-06
1.35984e-06
1.35923e-06
1.35546e-06
1.35546e-06
1.35546e-06
1.35546e-06
1.35546e-06
1.35546e-06
1.36008e-06
1.36204e-06
1.36185e-06
1.35915e-06
1.35546e-06
1.35546e-06
1.35546e-06
1.35546e-06
1.35546e-06
1.35546e-06
1.36024e-06
1.3618e-06
1.36168e-06
1.35902e-06
1.35546e-06
1.35546e-06
1.35546e-06
1.35546e-06
1.35546e-06
1.35546e-06
1.36023e-06
1.36e-06
1.35925e-06
1.35546e-06
1.35546e-06
1.35546e-06
1.35546e-06
1.35546e-06
1.35546e-06
1.36017e-06
1.36213e-06
1.3615e-06
1.359e-06
1.35546e-06
1.35546e-06
1.35546e-06
1.35546e-06
1.36004e-06
1.36006e-06
1.36202e-06
1.36172e-06
1.35985e-06
1.36008e-06
1.36023e-06
1.36023e-06
1.36017e-06
1.36007e-06
1.36197e-06
1.36204e-06
1.3618e-06
1.36e-06
1.36213e-06
1.36202e-06
1.34252e-06
1.34235e-06
1.34215e-06
1.3399e-06
1.33982e-06
1.33968e-06
1.33992e-06
1.34217e-06
1.34239e-06
1.34215e-06
1.33907e-06
1.33613e-06
1.33613e-06
1.33613e-06
1.33613e-06
1.33967e-06
1.34051e-06
1.3399e-06
1.33613e-06
1.33613e-06
1.33613e-06
1.33613e-06
1.33613e-06
1.33613e-06
1.34075e-06
1.34271e-06
1.34252e-06
1.33982e-06
1.33613e-06
1.33613e-06
1.33613e-06
1.33613e-06
1.33613e-06
1.33613e-06
1.3409e-06
1.34246e-06
1.34235e-06
1.33969e-06
1.33613e-06
1.33613e-06
1.33613e-06
1.33613e-06
1.33613e-06
1.33613e-06
1.3409e-06
1.34067e-06
1.33992e-06
1.33613e-06
1.33613e-06
1.33613e-06
1.33613e-06
1.33613e-06
1.33613e-06
1.34084e-06
1.3428e-06
1.34217e-06
1.33967e-06
1.33613e-06
1.33613e-06
1.33613e-06
1.33613e-06
1.3407e-06
1.34073e-06
1.34269e-06
1.34239e-06
1.34052e-06
1.34075e-06
1.3409e-06
1.3409e-06
1.34084e-06
1.34073e-06
1.34264e-06
1.34271e-06
1.34246e-06
1.34067e-06
1.3428e-06
1.34269e-06
1.32318e-06
1.32302e-06
1.32282e-06
1.32057e-06
1.32049e-06
1.32035e-06
1.32059e-06
1.32283e-06
1.32306e-06
1.32282e-06
1.31974e-06
1.31679e-06
1.31679e-06
1.31679e-06
1.31679e-06
1.32034e-06
1.32118e-06
1.32057e-06
1.31679e-06
1.31679e-06
1.31679e-06
1.31679e-06
1.31679e-06
1.31679e-06
1.32142e-06
1.32337e-06
1.32319e-06
1.32049e-06
1.31679e-06
1.31679e-06
1.31679e-06
1.31679e-06
1.31679e-06
1.31679e-06
1.32157e-06
1.32313e-06
1.32302e-06
1.32035e-06
1.31679e-06
1.31679e-06
1.31679e-06
1.31679e-06
1.31679e-06
1.31679e-06
1.32157e-06
1.32134e-06
1.32059e-06
1.31679e-06
1.31679e-06
1.31679e-06
1.31679e-06
1.31679e-06
1.31679e-06
1.32151e-06
1.32346e-06
1.32284e-06
1.32034e-06
1.31679e-06
1.31679e-06
1.31679e-06
1.31679e-06
1.32137e-06
1.3214e-06
1.32336e-06
1.32306e-06
1.32119e-06
1.32142e-06
1.32157e-06
1.32157e-06
1.32151e-06
1.3214e-06
1.32331e-06
1.32337e-06
1.32313e-06
1.32134e-06
1.32346e-06
1.32336e-06
1.30385e-06
1.30368e-06
1.30349e-06
1.30124e-06
1.30116e-06
1.30102e-06
1.30125e-06
1.3035e-06
1.30373e-06
1.30349e-06
1.30041e-06
1.29746e-06
1.29746e-06
1.29746e-06
1.29746e-06
1.30101e-06
1.30185e-06
1.30124e-06
1.29746e-06
1.29746e-06
1.29746e-06
1.29746e-06
1.29746e-06
1.29746e-06
1.30209e-06
1.30404e-06
1.30385e-06
1.30116e-06
1.29746e-06
1.29746e-06
1.29746e-06
1.29746e-06
1.29746e-06
1.29746e-06
1.30224e-06
1.3038e-06
1.30368e-06
1.30102e-06
1.29746e-06
1.29746e-06
1.29746e-06
1.29746e-06
1.29746e-06
1.29746e-06
1.30223e-06
1.302e-06
1.30125e-06
1.29746e-06
1.29746e-06
1.29746e-06
1.29746e-06
1.29746e-06
1.29746e-06
1.30218e-06
1.30413e-06
1.3035e-06
1.30101e-06
1.29746e-06
1.29746e-06
1.29746e-06
1.29746e-06
1.30204e-06
1.30207e-06
1.30403e-06
1.30373e-06
1.30186e-06
1.30209e-06
1.30224e-06
1.30223e-06
1.30218e-06
1.30207e-06
1.30398e-06
1.30404e-06
1.3038e-06
1.302e-06
1.30413e-06
1.30403e-06
1.28452e-06
1.28435e-06
1.28416e-06
1.28191e-06
1.28183e-06
1.28169e-06
1.28192e-06
1.28417e-06
1.2844e-06
1.28416e-06
1.28108e-06
1.27813e-06
1.27813e-06
1.27813e-06
1.27813e-06
1.28168e-06
1.28252e-06
1.28191e-06
1.27813e-06
1.27813e-06
1.27813e-06
1.27813e-06
1.27813e-06
1.27813e-06
1.28276e-06
1.28471e-06
1.28452e-06
1.28183e-06
1.27813e-06
1.27813e-06
1.27813e-06
1.27813e-06
1.27813e-06
1.27813e-06
1.28291e-06
1.28447e-06
1.28435e-06
1.28169e-06
1.27813e-06
1.27813e-06
1.27813e-06
1.27813e-06
1.27813e-06
1.27813e-06
1.2829e-06
1.28267e-06
1.28192e-06
1.27813e-06
1.27813e-06
1.27813e-06
1.27813e-06
1.27813e-06
1.27813e-06
1.28285e-06
1.2848e-06
1.28417e-06
1.28168e-06
1.27813e-06
1.27813e-06
1.27813e-06
1.27813e-06
1.28271e-06
1.28274e-06
1.2847e-06
1.2844e-06
1.28253e-06
1.28276e-06
1.28291e-06
1.2829e-06
1.28284e-06
1.28274e-06
1.28465e-06
1.28471e-06
1.28447e-06
1.28267e-06
1.2848e-06
1.2847e-06
1.26519e-06
1.26502e-06
1.26483e-06
1.26258e-06
1.26249e-06
1.26236e-06
1.26259e-06
1.26484e-06
1.26507e-06
1.26483e-06
1.26174e-06
1.2588e-06
1.2588e-06
1.2588e-06
1.2588e-06
1.26235e-06
1.26318e-06
1.26258e-06
1.2588e-06
1.2588e-06
1.2588e-06
1.2588e-06
1.2588e-06
1.2588e-06
1.26342e-06
1.26538e-06
1.26519e-06
1.26249e-06
1.2588e-06
1.2588e-06
1.2588e-06
1.2588e-06
1.2588e-06
1.2588e-06
1.26358e-06
1.26514e-06
1.26502e-06
1.26236e-06
1.2588e-06
1.2588e-06
1.2588e-06
1.2588e-06
1.2588e-06
1.2588e-06
1.26357e-06
1.26334e-06
1.26259e-06
1.2588e-06
1.2588e-06
1.2588e-06
1.2588e-06
1.2588e-06
1.2588e-06
1.26352e-06
1.26547e-06
1.26484e-06
1.26235e-06
1.2588e-06
1.2588e-06
1.2588e-06
1.2588e-06
1.26338e-06
1.26341e-06
1.26536e-06
1.26507e-06