/*--------------------------------*- C++ -*----------------------------------*\
| =========                 |                                                 |
| \\      /  F ield         | OpenFOAM: The Open Source CFD Toolbox           |
|  \\    /   O peration     | Version:  v2006                                 |
|   \\  /    A nd           | Website:  www.openfoam.com                      |
|    \\/     M anipulation  |                                                 |
\*---------------------------------------------------------------------------*/
FoamFile
{
    version     2.0;
    format      ascii;
    class       surfaceScalarField;
    location    "250";
    object      phi;
}
// * * * * * * * * * * * * * * * * * * * * * * * * * * * * * * * * * * * * * //

dimensions      [0 3 -1 0 0 0 0];
oriented        oriented;


internalField   nonuniform List<scalar> 
124908
(
-0.00104223
-1.45853e-05
-1.44545e-05
9.30208e-06
9.17293e-06
0.00105279
-0.00026145
-5.64161e-06
1.44815e-05
6.83424e-06
0.00105937
-4.53257e-06
-1.62224e-06
-2.21533e-06
-2.5781e-06
-6.5915e-06
-7.04684e-06
-3.1663e-06
-0.000263298
-0.000259722
-0.000262822
-0.00026145
-5.64168e-06
1.44963e-05
6.86599e-06
0.00105933
-4.53279e-06
-1.62737e-06
-2.21807e-06
-2.58063e-06
-6.59142e-06
-7.04688e-06
-3.16625e-06
-0.00025972
-0.000263298
-0.000262822
-0.000260559
5.61726e-06
5.65981e-06
-4.88073e-06
-4.8719e-06
0.000259035
-1.62176e-06
-1.62825e-06
-0.00106082
8.98315e-07
8.9409e-07
0.00106228
-0.0010626
-1.60653e-06
1.63332e-06
8.17943e-07
0.00106389
-6.53786e-07
7.84509e-07
-1.48116e-07
3.75337e-07
-8.03462e-07
-1.39759e-06
-2.90635e-07
-0.00106252
-1.60413e-06
1.63376e-06
8.28709e-07
0.0010638
-6.53977e-07
7.81631e-07
-1.48304e-07
3.72751e-07
-8.03396e-07
-1.39491e-06
-2.90559e-07
-0.000261521
1.63672e-06
1.59915e-06
-7.08214e-07
-7.16437e-07
0.000259709
-1.36146e-06
-1.36754e-06
-0.00106647
6.87334e-07
6.83183e-07
0.00106783
-0.00106783
-1.55708e-06
1.3674e-06
6.90445e-07
0.00106918
-6.24506e-07
8.38519e-07
-1.06631e-07
4.2708e-07
-7.80508e-07
-1.35735e-06
-2.4269e-07
-0.00106774
-1.55712e-06
1.36762e-06
6.90474e-07
0.00106909
-6.2454e-07
8.35829e-07
-1.04135e-07
4.24473e-07
-7.80445e-07
-1.35468e-06
-2.4262e-07
-0.00026275
1.58728e-06
1.5495e-06
-6.74965e-07
-6.80578e-07
0.000260969
-1.34139e-06
-1.34213e-06
-0.00107194
6.64331e-07
6.65456e-07
0.00107329
-0.00107319
-1.55544e-06
1.34196e-06
6.67261e-07
0.00107451
-6.17134e-07
8.63699e-07
-8.40355e-08
4.38231e-07
-7.79485e-07
-1.36942e-06
-2.20331e-07
-0.0010731
-1.55285e-06
1.34208e-06
6.67381e-07
0.00107441
-6.19913e-07
8.61063e-07
-8.1504e-08
4.38244e-07
-7.79445e-07
-1.36667e-06
-2.17749e-07
-0.000264031
1.58318e-06
1.54256e-06
-6.59448e-07
-6.7019e-07
0.000262235
-1.29623e-06
-1.29691e-06
-0.00107729
6.42195e-07
6.43323e-07
0.00107859
-0.00107837
-1.54746e-06
1.29688e-06
6.34053e-07
0.00107963
-6.04962e-07
8.91665e-07
-5.85083e-08
4.60209e-07
-7.68169e-07
-1.37186e-06
-1.89056e-07
-0.00107828
-1.54456e-06
1.29691e-06
6.34168e-07
0.00107954
-6.07064e-07
8.88905e-07
-5.61775e-08
4.57495e-07
-7.6828e-07
-1.3693e-06
-1.88988e-07
-0.00026525
1.57505e-06
1.53422e-06
-6.42201e-07
-6.52975e-07
0.000263436
-1.24888e-06
-1.24941e-06
-0.00108244
6.20352e-07
6.2152e-07
0.0010837
-0.00108331
-1.53892e-06
1.24923e-06
6.04336e-07
0.0010845
-5.92334e-07
9.17343e-07
-3.59716e-08
4.84044e-07
-7.54081e-07
-1.36933e-06
-1.58581e-07
-0.00108321
-1.53617e-06
1.24932e-06
6.0455e-07
0.00108441
-5.94805e-07
9.14356e-07
-3.42965e-08
4.81691e-07
-7.5407e-07
-1.36672e-06
-1.58296e-07
-0.000266395
1.56687e-06
1.52585e-06
-6.254e-07
-6.36197e-07
0.000264564
-1.20489e-06
-1.20525e-06
-0.00108739
6.00808e-07
6.02005e-07
0.0010886
-0.00108799
-1.53207e-06
1.20493e-06
5.80485e-07
0.00108913
-5.81963e-07
9.39957e-07
-1.77625e-08
5.08813e-07
-7.40406e-07
-1.36577e-06
-1.30545e-07
-0.0010879
-1.52982e-06
1.20519e-06
5.8087e-07
0.00108903
-5.85846e-07
9.37078e-07
-1.61335e-08
5.06438e-07
-7.40117e-07
-1.36261e-06
-1.30329e-07
-0.000267466
1.56063e-06
1.51945e-06
-6.11335e-07
-6.22166e-07
0.00026562
-1.16606e-06
-1.16691e-06
-0.00109215
5.84355e-07
5.85543e-07
0.00109331
-0.00109244
-1.52802e-06
1.16669e-06
5.62578e-07
0.00109352
-5.76544e-07
9.6016e-07
-3.04112e-09
5.33723e-07
-7.27996e-07
-1.36164e-06
-1.05686e-07
-0.00109235
-1.5253e-06
1.1667e-06
5.62773e-07
0.00109343
-5.79085e-07
9.57349e-07
-1.57154e-09
5.30831e-07
-7.28119e-07
-1.35882e-06
-1.05515e-07
-0.000268469
1.55648e-06
1.51499e-06
-5.99514e-07
-6.1047e-07
0.000266608
-1.132e-06
-1.13313e-06
-0.00109674
5.70332e-07
5.71093e-07
0.00109786
-0.00109669
-1.52642e-06
1.13332e-06
5.48996e-07
0.00109772
-5.7242e-07
9.7632e-07
1.2607e-08
5.56196e-07
-7.17874e-07
-1.35848e-06
-8.386e-08
-0.0010966
-1.52345e-06
1.13258e-06
5.48444e-07
0.00109763
-5.74691e-07
9.74695e-07
1.89803e-08
5.52679e-07
-7.17869e-07
-1.35554e-06
-8.4352e-08
-0.000269409
1.55489e-06
1.51329e-06
-5.90819e-07
-6.01539e-07
0.000267533
-1.10293e-06
-1.10374e-06
-0.00110118
5.58338e-07
5.59059e-07
0.00110227
-0.00110075
-1.52634e-06
1.10381e-06
5.37346e-07
0.00110173
-5.69329e-07
9.92249e-07
3.06553e-08
5.76725e-07
-7.08418e-07
-1.355e-06
-6.56229e-08
-0.00110065
-1.52487e-06
1.10467e-06
5.38685e-07
0.00110164
-5.75959e-07
9.88839e-07
2.95558e-08
5.74977e-07
-7.07932e-07
-1.352e-06
-6.45965e-08
-0.000270291
1.55534e-06
1.51357e-06
-5.8401e-07
-5.94842e-07
0.0002684
-1.07972e-06
-1.08046e-06
-0.0011055
5.49173e-07
5.50056e-07
0.00110656
-0.00110463
-1.52853e-06
1.07925e-06
5.28964e-07
0.00110558
-5.73286e-07
1.00701e-06
4.33324e-08
5.97964e-07
-6.9823e-07
-1.35148e-06
-4.88117e-08
-0.00110454
-1.52499e-06
1.07804e-06
5.27683e-07
0.00110548
-5.73791e-07
1.00522e-06
4.87731e-08
5.94857e-07
-6.98527e-07
-1.34889e-06
-4.9229e-08
-0.000271122
1.5553e-06
1.51339e-06
-5.76554e-07
-5.87491e-07
0.000269217
-1.05628e-06
-1.05713e-06
-0.0011097
5.39918e-07
5.4051e-07
0.00111073
-0.00110836
-1.53036e-06
1.05731e-06
5.19724e-07
0.00110927
-5.72708e-07
1.01979e-06
4.8151e-08
6.1687e-07
-6.89033e-07
-1.34925e-06
-3.40154e-08
-0.00110826
-1.52761e-06
1.05835e-06
5.21997e-07
0.00110918
-5.7164e-07
1.01474e-06
4.79965e-08
6.12758e-07
-6.90534e-07
-1.34794e-06
-3.46867e-08
-0.00027189
1.5595e-06
1.51743e-06
-5.74817e-07
-5.85733e-07
0.000269973
-1.0318e-06
-1.03245e-06
-0.00111379
5.2985e-07
5.30352e-07
0.00111479
-0.00111195
-1.52948e-06
1.03184e-06
5.05916e-07
0.0011128
-5.67323e-07
1.0366e-06
7.30306e-08
6.32593e-07
-6.76423e-07
-1.34249e-06
-2.37801e-08
-0.00111184
-1.52963e-06
1.03559e-06
5.12174e-07
0.00111271
-5.77667e-07
1.03041e-06
6.5397e-08
6.31183e-07
-6.75716e-07
-1.33978e-06
-2.19624e-08
-0.000272612
1.56244e-06
1.52018e-06
-5.74438e-07
-5.85669e-07
0.00027069
-1.01282e-06
-1.01347e-06
-0.00111778
5.21816e-07
5.22481e-07
0.00111876
-0.00111537
-1.53261e-06
1.01454e-06
4.99627e-07
0.0011162
-5.64499e-07
1.04539e-06
6.85809e-08
6.48597e-07
-6.6682e-07
-1.33952e-06
-1.20568e-08
-0.00111526
-1.53002e-06
1.0162e-06
5.02963e-07
0.00111611
-5.67208e-07
1.04045e-06
6.67829e-08
6.45486e-07
-6.671e-07
-1.33742e-06
-1.17092e-08
-0.000273287
1.56225e-06
1.51996e-06
-5.643e-07
-5.74984e-07
0.000271344
-9.92477e-07
-9.9303e-07
-0.00112167
5.13416e-07
5.14346e-07
0.00112263
-0.00111865
-1.53428e-06
9.93803e-07
4.91858e-07
0.00111943
-5.65792e-07
1.05925e-06
8.54019e-08
6.6593e-07
-6.49664e-07
-1.32877e-06
-9.84652e-10
-0.00111855
-1.53074e-06
9.93144e-07
4.91045e-07
0.00111934
-5.66959e-07
1.05666e-06
8.49412e-08
6.60483e-07
-6.50158e-07
-1.32658e-06
-2.73548e-09
-0.000273897
1.56255e-06
1.52024e-06
-5.58402e-07
-5.69312e-07
0.000271942
-9.70001e-07
-9.70399e-07
-0.00112547
5.03217e-07
5.04089e-07
0.0011264
-0.00112176
-1.52957e-06
9.70263e-07
4.75174e-07
0.00112251
-5.50286e-07
1.07165e-06
9.36985e-08
6.74927e-07
-6.38227e-07
-1.32342e-06
8.64114e-09
-0.00112167
-1.52668e-06
9.69859e-07
4.74933e-07
0.00112243
-5.49937e-07
1.06942e-06
9.509e-08
6.69163e-07
-6.38184e-07
-1.32052e-06
4.74903e-09
-0.000274458
1.56385e-06
1.52138e-06
-5.53087e-07
-5.64019e-07
0.000272489
-9.52675e-07
-9.53152e-07
-0.00112917
4.95787e-07
4.96513e-07
0.00113008
-0.00112472
-1.53327e-06
9.53174e-07
4.70159e-07
0.00112544
-5.54663e-07
1.07893e-06
8.91284e-08
6.88039e-07
-6.20813e-07
-1.31237e-06
2.15008e-08
-0.00112463
-1.53041e-06
9.53817e-07
4.71422e-07
0.00112536
-5.54216e-07
1.07542e-06
8.78801e-08
6.8229e-07
-6.20965e-07
-1.30996e-06
1.85361e-08
-0.000274955
1.55875e-06
1.51621e-06
-5.37326e-07
-5.48141e-07
0.000272965
-9.29485e-07
-9.29831e-07
-0.00113278
4.84979e-07
4.8033e-07
0.00113367
-0.00112753
-1.53295e-06
9.3094e-07
4.57519e-07
0.00112821
-5.50668e-07
1.09043e-06
9.76473e-08
6.98857e-07
-6.02241e-07
-1.29881e-06
3.09417e-08
-0.00112744
-1.52956e-06
9.30359e-07
4.5673e-07
0.00112812
-5.49391e-07
1.08807e-06
9.83179e-08
6.9322e-07
-6.0246e-07
-1.29634e-06
2.78657e-08
-0.00027538
1.55872e-06
1.51609e-06
-5.30439e-07
-5.41284e-07
0.000273376
-9.08161e-07
-9.08586e-07
-0.0011363
4.75388e-07
4.76188e-07
0.00113716
-0.00113016
-1.52999e-06
9.08427e-07
4.46128e-07
0.0011308
-5.39536e-07
1.10091e-06
1.0712e-07
7.0715e-07
-5.87474e-07
-1.28742e-06
3.79964e-08
-0.00113007
-1.52714e-06
9.08104e-07
4.45783e-07
0.00113071
-5.39341e-07
1.09844e-06
1.07768e-07
7.01728e-07
-5.84656e-07
-1.28178e-06
3.50304e-08
-0.000275739
1.55725e-06
1.51451e-06
-5.23303e-07
-5.34194e-07
0.000273724
-8.87524e-07
-8.87959e-07
-0.00113972
4.66005e-07
4.66769e-07
0.00114056
-0.00113262
-1.52533e-06
8.87468e-07
4.35878e-07
0.00113321
-5.23681e-07
1.10957e-06
1.10765e-07
7.14167e-07
-5.70737e-07
-1.27312e-06
4.42994e-08
-0.00113253
-1.52257e-06
8.8696e-07
4.35329e-07
0.00113312
-5.26356e-07
1.10715e-06
1.14423e-07
7.08774e-07
-5.67955e-07
-1.26737e-06
4.13623e-08
-0.00027603
1.5543e-06
1.51148e-06
-5.13993e-07
-5.249e-07
0.000274003
-8.67506e-07
-8.67866e-07
-0.00114305
4.57085e-07
4.5773e-07
0.00114387
-0.00113489
-1.51937e-06
8.67339e-07
4.26992e-07
0.00113543
-5.10436e-07
1.11694e-06
1.1555e-07
7.20821e-07
-5.54191e-07
-1.25783e-06
5.04202e-08
-0.0011348
-1.51703e-06
8.67202e-07
4.27262e-07
0.00113534
-5.13683e-07
1.11408e-06
1.18619e-07
7.15374e-07
-5.51382e-07
-1.25208e-06
4.75582e-08
-0.000276251
1.54883e-06
1.50593e-06
-5.01917e-07
-5.12831e-07
0.000274211
5.2165e-06
5.22982e-06
0.000260577
-0.000259171
-5.93213e-06
-5.92035e-06
5.0792e-06
0.000261425
-0.000258697
-5.96238e-06
3.37175e-06
-5.22657e-06
5.07642e-06
0.000261427
-0.000258689
-5.96967e-06
3.38174e-06
5.22193e-06
0.000260567
-0.000259166
-5.90053e-06
-5.94896e-06
5.06716e-06
0.000261481
-0.000258714
-5.96768e-06
3.36396e-06
5.07643e-06
-5.23168e-06
0.000261427
-0.000258686
3.38431e-06
-5.9697e-06
1.06709e-05
1.06176e-05
-0.000252649
-0.000256081
-0.000255118
-0.000255118
-6.415e-06
-4.12538e-06
-6.6599e-06
-6.41778e-06
-4.12093e-06
-6.66524e-06
-5.07456e-06
0.00104219
1.07162e-05
1.06223e-05
-0.000252649
-0.000256074
-0.000255118
-0.000255116
-6.41719e-06
-4.12519e-06
-6.66491e-06
-6.42017e-06
-4.12596e-06
-6.66277e-06
-5.07462e-06
0.00104215
1.07287e-05
1.06429e-05
-0.000252646
-0.000256079
-0.000255113
-0.000255118
-6.4199e-06
-4.12775e-06
-6.66486e-06
-6.41776e-06
-4.12333e-06
-6.66519e-06
-5.08391e-06
-5.07435e-06
0.00104213
1.07311e-05
1.06754e-05
-0.000252646
-0.000256074
-0.000255113
-0.000255118
-6.41974e-06
-4.13031e-06
-6.66751e-06
-6.41742e-06
-4.12575e-06
-6.66766e-06
-0.000258704
-5.95991e-06
3.36138e-06
-5.22384e-06
0.000261404
-0.000258679
3.37909e-06
-5.96448e-06
5.22202e-06
0.000260564
-0.000259168
-5.90055e-06
-5.94905e-06
-0.000258707
3.36654e-06
-5.9625e-06
-5.23465e-06
0.000261458
-0.000258707
3.37654e-06
-5.96724e-06
-0.000259166
-5.9318e-06
-5.92003e-06
5.61239e-06
5.65507e-06
-4.87347e-06
-4.86966e-06
0.000259053
-7.85853e-07
-7.42107e-07
0.000261556
-0.000259472
-2.82104e-07
-2.74703e-07
7.02672e-06
0.00105893
-4.52754e-06
-1.57318e-06
-2.20764e-06
-2.57741e-06
-6.60923e-06
-7.05157e-06
-3.17124e-06
-0.000263277
-0.000259697
-0.000262814
-5.6305e-06
1.45484e-05
7.09957e-06
0.00105906
-4.55432e-06
-1.57834e-06
-2.221e-06
-2.58666e-06
-6.63155e-06
-7.06034e-06
-3.18853e-06
-0.00026332
-0.000259694
-0.000262811
0.00106206
2.03431e-06
-0.00106101
9.68545e-07
-1.7257e-06
-1.66541e-07
-6.92107e-07
-1.4684e-06
-3.07747e-07
-8.2828e-07
3.45979e-07
7.83246e-07
0.00106218
2.02913e-06
-0.00106113
9.73824e-07
-1.72078e-06
-1.64166e-07
-6.95052e-07
-1.47071e-06
-3.07576e-07
-8.28245e-07
3.48612e-07
-4.87875e-06
-4.87165e-06
0.000259045
-7.473e-07
0.000261557
-0.000259469
-2.82144e-07
-2.74663e-07
6.80835e-06
0.00105969
-4.55198e-06
-1.6378e-06
-2.22903e-06
-2.58571e-06
-6.61977e-06
-7.0624e-06
-3.17903e-06
-0.000263364
-0.00025974
-0.00026285
-5.62802e-06
1.45638e-05
7.12315e-06
0.00105901
-4.54922e-06
-1.58093e-06
-2.22103e-06
-2.58693e-06
-6.63414e-06
-7.06063e-06
-3.18593e-06
-0.000259692
-0.000263323
-0.000262809
0.00106299
2.03642e-06
-0.00106192
9.67029e-07
-1.68818e-06
-1.71584e-07
-6.92462e-07
-1.46837e-06
-3.10044e-07
-8.25644e-07
3.43063e-07
7.77889e-07
0.0010621
2.03439e-06
-0.00106104
9.79235e-07
-1.72092e-06
-1.6934e-07
-6.95268e-07
-1.46827e-06
-3.09933e-07
-8.28049e-07
3.43138e-07
1.46119e-05
7.11499e-06
0.00105874
-4.52978e-06
-1.58068e-06
-2.21255e-06
-2.58191e-06
-6.60588e-06
-3.17326e-06
-7.04766e-06
-0.000259676
-0.000263259
-0.00026278
2.02605e-06
-0.00106154
9.67286e-07
-1.68792e-06
-1.71392e-07
-6.86889e-07
-1.46586e-06
-3.05191e-07
3.42924e-07
-8.28285e-07
7.75091e-07
0.00106178
2.0293e-06
-0.00106073
9.84194e-07
-1.71814e-06
-1.69165e-07
-6.92287e-07
-1.46293e-06
-3.07523e-07
-8.28024e-07
3.37815e-07
-4.87872e-06
-4.86923e-06
0.000259043
-7.41794e-07
0.000261536
-0.000259462
-2.79938e-07
-2.74798e-07
1.4486e-05
6.90001e-06
0.00105949
-4.55692e-06
-1.64276e-06
-2.23138e-06
-2.58751e-06
-6.61887e-06
-3.17853e-06
-7.05833e-06
-0.000259722
-0.000263341
-0.000262821
2.03666e-06
-0.00106147
9.67722e-07
-1.68808e-06
-1.69102e-07
-6.92344e-07
-1.46327e-06
-3.07657e-07
3.40353e-07
-8.25753e-07
7.3917e-07
0.0010627
2.03679e-06
-0.00106164
9.72598e-07
-1.68065e-06
-1.71681e-07
-6.89969e-07
-1.46552e-06
-3.07478e-07
-8.28174e-07
3.40249e-07
-0.000259444
-2.85153e-07
-2.77599e-07
1.64439e-06
1.60422e-06
-7.10479e-07
-7.16378e-07
0.000259735
-8.69031e-07
-8.30353e-07
0.000262791
-0.000260674
-2.12602e-07
-2.04992e-07
8.24372e-07
0.00106334
-6.58995e-07
8.25729e-07
-1.40771e-07
3.8096e-07
-8.00835e-07
-1.40012e-06
-2.90659e-07
-1.64206e-06
1.63194e-06
8.24495e-07
0.00106346
-6.59295e-07
8.20502e-07
-1.43386e-07
3.83644e-07
-8.03326e-07
-1.40245e-06
-2.88025e-07
0.00106729
1.3833e-06
-0.00106595
7.02141e-07
-1.59694e-06
-1.05923e-07
-6.28636e-07
-1.35494e-06
-2.49192e-07
-7.77021e-07
4.22475e-07
8.69083e-07
0.00106741
1.37797e-06
-0.00106607
7.02307e-07
-1.59456e-06
-1.06059e-07
-6.26233e-07
-1.36e-06
-2.46625e-07
-7.79588e-07
4.27748e-07
-7.08393e-07
-7.18482e-07
0.000259735
-8.32834e-07
0.000262784
-0.000260664
-2.10051e-07
-2.07515e-07
8.22929e-07
0.00106427
-6.54096e-07
7.84598e-07
-1.48255e-07
3.7804e-07
-8.00889e-07
-1.39493e-06
-2.90559e-07
-1.63698e-06
1.6321e-06
8.30016e-07
0.00106337
-6.56795e-07
8.15172e-07
-1.43516e-07
3.80769e-07
-8.00618e-07
-1.4e-06
-2.90372e-07
0.00106822
1.379e-06
-0.00106689
7.06333e-07
-1.55919e-06
-1.08456e-07
-6.2638e-07
-1.35497e-06
-2.49077e-07
-7.77095e-07
4.25065e-07
8.61161e-07
0.00106731
1.37767e-06
-0.00106597
7.02365e-07
-1.58935e-06
-1.06054e-07
-6.28903e-07
-1.35476e-06
-2.489e-07
-7.76806e-07
4.2247e-07
1.64255e-06
8.2464e-07
0.00106305
-6.56435e-07
8.15015e-07
-1.45846e-07
3.72794e-07
-8.00554e-07
-2.92907e-07
-1.39212e-06
1.37895e-06
-0.0010665
7.01289e-07
-1.56157e-06
-1.08369e-07
-6.26083e-07
-1.35229e-06
-2.46609e-07
4.22269e-07
-7.7703e-07
8.63592e-07
0.00106699
1.37776e-06
-0.00106566
7.07387e-07
-1.58913e-06
-1.05995e-07
-6.28605e-07
-1.35204e-06
-2.51438e-07
-7.76694e-07
4.22376e-07
-7.13779e-07
-7.15999e-07
0.000259725
-8.3011e-07
0.000262771
-0.000260662
-2.10199e-07
-2.07532e-07
1.63368e-06
8.28539e-07
0.00106398
-6.54133e-07
7.71144e-07
-1.50851e-07
3.75323e-07
-8.00711e-07
-2.90421e-07
-1.39463e-06
1.37909e-06
-0.00106641
7.06576e-07
-1.55639e-06
-1.08394e-07
-6.26136e-07
-1.35226e-06
-2.46565e-07
4.22313e-07
-7.76988e-07
8.24854e-07
0.00106792
1.38422e-06
-0.00106659
7.01197e-07
-1.55137e-06
-1.11013e-07
-6.23645e-07
-1.35208e-06
-2.51473e-07
-7.76909e-07
4.22246e-07
-0.000260644
-2.10145e-07
-2.07694e-07
1.59507e-06
1.55468e-06
-6.72206e-07
-6.8048e-07
0.000260994
-8.95797e-07
-8.54308e-07
0.000264078
-0.00026195
-1.94229e-07
-1.83934e-07
6.96457e-07
0.00106863
-6.29652e-07
8.77356e-07
-9.93192e-08
4.24622e-07
-7.7787e-07
-1.35476e-06
-2.45221e-07
-1.59269e-06
1.36663e-06
6.91409e-07
0.00106875
-6.29904e-07
8.74809e-07
-9.93883e-08
4.29904e-07
-7.8048e-07
-1.35979e-06
-2.4267e-07
0.00107264
1.34993e-06
-0.00107131
6.7592e-07
-1.59509e-06
-8.30851e-08
-6.27598e-07
-1.37259e-06
-2.25073e-07
-7.83574e-07
4.39317e-07
8.93162e-07
0.00107276
1.34983e-06
-0.00107143
6.76028e-07
-1.59262e-06
-8.33075e-08
-6.27704e-07
-1.37239e-06
-2.24908e-07
-7.83583e-07
4.39267e-07
-6.75274e-07
-6.80077e-07
0.000260989
-8.56733e-07
0.000264068
-0.000261944
-1.89228e-07
-1.84013e-07
6.90233e-07
0.00106957
-6.2474e-07
8.36004e-07
-1.06759e-07
4.24506e-07
-7.77968e-07
-1.3574e-06
-2.45125e-07
-1.59015e-06
1.36631e-06
6.91447e-07
0.00106866
-6.29972e-07
8.72167e-07
-1.01787e-07
4.24615e-07
-7.77644e-07
-1.35459e-06
-2.45e-07
0.00107358
1.35069e-06
-0.00107225
6.74966e-07
-1.55451e-06
-9.0496e-08
-6.19994e-07
-1.36997e-06
-2.25003e-07
-7.83704e-07
4.3649e-07
8.90563e-07
0.00107266
1.34946e-06
-0.00107133
6.76075e-07
-1.59e-06
-8.56862e-08
-6.25058e-07
-1.36978e-06
-2.24859e-07
-7.83374e-07
4.36656e-07
1.36639e-06
6.91264e-07
0.00106834
-6.27031e-07
8.66686e-07
-1.04205e-07
4.21861e-07
-7.77542e-07
-2.4503e-07
-1.35448e-06
1.35058e-06
-0.00107187
6.75024e-07
-1.55688e-06
-9.05658e-08
-6.19638e-07
-1.36734e-06
-2.27513e-07
4.338e-07
-7.80974e-07
8.85039e-07
0.00107234
1.34959e-06
-0.00107102
6.75911e-07
-1.58453e-06
-8.56126e-08
-6.2476e-07
-1.36704e-06
-2.24885e-07
-7.83275e-07
4.3397e-07
-6.75415e-07
-6.7754e-07
0.000260976
-8.54107e-07
0.000264055
-0.000261932
-1.91794e-07
-1.86535e-07
1.36234e-06
6.95533e-07
0.00106927
-6.22101e-07
8.27908e-07
-1.09184e-07
4.21688e-07
-7.7776e-07
-2.45033e-07
-1.35445e-06
1.35068e-06
-0.00107177
6.75101e-07
-1.55425e-06
-8.80359e-08
-6.22299e-07
-1.36723e-06
-2.27445e-07
4.31131e-07
-7.83545e-07
8.43521e-07
0.00107328
1.35058e-06
-0.00107196
6.74961e-07
-1.54397e-06
-9.30405e-08
-6.1717e-07
-1.36699e-06
-2.2488e-07
-7.83499e-07
4.33721e-07
-0.000261924
-1.94483e-07
-1.84127e-07
1.59367e-06
1.55304e-06
-6.59308e-07
-6.70094e-07
0.000262261
-9.2373e-07
-8.82103e-07
0.000265297
-0.000263168
-1.66739e-07
-1.56354e-07
6.68262e-07
0.00107395
-6.25074e-07
9.02655e-07
-7.68717e-08
4.43783e-07
-7.82081e-07
-1.37471e-06
-2.17862e-07
-1.59122e-06
1.3412e-06
6.68237e-07
0.00107407
-6.252e-07
9.00167e-07
-7.67793e-08
4.43702e-07
-7.82063e-07
-1.37447e-06
-2.17693e-07
0.00107781
1.30838e-06
-0.00107654
6.43356e-07
-1.58795e-06
-5.78562e-08
-6.15989e-07
-1.37732e-06
-1.94383e-07
-7.74243e-07
4.59865e-07
9.21287e-07
0.00107793
1.30814e-06
-0.00107666
6.4325e-07
-1.58541e-06
-5.76335e-08
-6.15884e-07
-1.37708e-06
-1.94361e-07
-7.74233e-07
4.5969e-07
-6.64891e-07
-6.6968e-07
0.000262256
-8.847e-07
0.000265286
-0.000263163
-1.61299e-07
-1.56049e-07
6.67277e-07
0.00107489
-6.17447e-07
8.61125e-07
-8.42624e-08
4.40966e-07
-7.82216e-07
-1.37209e-06
-2.17776e-07
-1.58865e-06
1.3409e-06
6.68332e-07
0.00107397
-6.22669e-07
8.97563e-07
-7.9149e-08
4.41091e-07
-7.81918e-07
-1.37189e-06
-2.17649e-07
0.00107876
1.3091e-06
-0.00107748
6.42365e-07
-1.54715e-06
-6.51641e-08
-6.08309e-07
-1.37473e-06
-1.94342e-07
-7.74432e-07
4.56972e-07
9.18596e-07
0.00107784
1.30794e-06
-0.00107656
6.43427e-07
-1.58291e-06
-6.02356e-08
-6.13609e-07
-1.37442e-06
-1.94246e-07
-7.74078e-07
4.57155e-07
1.34101e-06
6.682e-07
0.00107366
-6.22401e-07
8.92019e-07
-7.90923e-08
4.38414e-07
-7.81804e-07
-2.17685e-07
-1.36913e-06
1.30889e-06
-0.0010771
6.42247e-07
-1.54947e-06
-6.48561e-08
-6.07776e-07
-1.37206e-06
-1.96957e-07
4.54302e-07
-7.71691e-07
9.13047e-07
0.00107752
1.30803e-06
-0.00107625
6.43331e-07
-1.57743e-06
-6.01467e-08
-6.13355e-07
-1.37169e-06
-1.94283e-07
-7.73965e-07
4.54499e-07
-6.62462e-07
-6.67107e-07
0.000262243
-8.81975e-07
0.000265274
-0.00026315
-1.64105e-07
-1.58796e-07
1.34198e-06
6.67218e-07
0.0010746
-6.14795e-07
8.50464e-07
-8.65013e-08
4.38161e-07
-7.82026e-07
-2.1767e-07
-1.36908e-06
1.30901e-06
-0.00107701
6.4247e-07
-1.54697e-06
-6.259e-08
-6.10841e-07
-1.36921e-06
-1.96806e-07
4.51698e-07
-7.7159e-07
8.71379e-07
0.00107846
1.30894e-06
-0.00107719
6.42326e-07
-1.53666e-06
-6.74944e-08
-6.05712e-07
-1.37163e-06
-1.94277e-07
-7.74178e-07
4.54177e-07
-0.000263143
-1.66779e-07
-1.56339e-07
1.58562e-06
1.54477e-06
-6.42151e-07
-6.52963e-07
0.000263462
-9.50563e-07
-9.08794e-07
0.000266442
-0.000264315
-1.39005e-07
-1.28534e-07
6.35019e-07
0.00107907
-6.12295e-07
9.30722e-07
-5.14524e-08
4.65819e-07
-7.70833e-07
-1.37721e-06
-1.86553e-07
-1.58341e-06
1.2961e-06
6.29737e-07
0.00107919
-6.13047e-07
9.28247e-07
-5.13387e-08
4.65948e-07
-7.70692e-07
-1.37695e-06
-1.86367e-07
0.00108274
1.26047e-06
-0.00108153
6.1226e-07
-1.57953e-06
-3.40059e-08
-6.03422e-07
-1.37567e-06
-1.6349e-07
-7.60104e-07
4.83875e-07
9.47589e-07
0.00108286
1.2604e-06
-0.00108166
6.17638e-07
-1.57697e-06
-3.49124e-08
-6.03317e-07
-1.37565e-06
-1.63116e-07
-7.60179e-07
4.83957e-07
-6.4831e-07
-6.53097e-07
0.000263457
-9.10828e-07
0.000266432
-0.00026431
-1.34702e-07
-1.29394e-07
6.33991e-07
0.00108002
-6.04595e-07
8.89052e-07
-5.87411e-08
4.62995e-07
-7.71016e-07
-1.37458e-06
-1.86516e-07
-1.58054e-06
1.29581e-06
6.35086e-07
0.00107909
-6.09818e-07
9.25528e-07
-5.38543e-08
4.63168e-07
-7.70756e-07
-1.37449e-06
-1.86386e-07
0.00108369
1.26106e-06
-0.00108248
6.11266e-07
-1.53853e-06
-4.11799e-08
-5.95678e-07
-1.37312e-06
-1.6346e-07
-7.60331e-07
4.81014e-07
9.4521e-07
0.00108277
1.26007e-06
-0.00108156
6.12398e-07
-1.57445e-06
-3.67158e-08
-6.01095e-07
-1.37274e-06
-1.63268e-07
-7.59969e-07
4.81187e-07
1.29593e-06
6.35011e-07
0.00107877
-6.0954e-07
9.19898e-07
-5.39302e-08
4.6045e-07
-7.70657e-07
-1.86399e-07
-1.37167e-06
1.261e-06
-0.0010821
6.11313e-07
-1.54087e-06
-4.20737e-08
-5.95182e-07
-1.37049e-06
-1.65734e-07
4.78691e-07
-7.57578e-07
9.39649e-07
0.00108245
1.26013e-06
-0.00108124
6.12283e-07
-1.56891e-06
-3.65575e-08
-6.00707e-07
-1.37008e-06
-1.6325e-07
-7.59946e-07
4.78625e-07
-6.45262e-07
-6.49913e-07
0.000263444
-9.08457e-07
0.000266419
-0.000264297
-1.36741e-07
-1.3142e-07
1.29678e-06
6.33977e-07
0.00107972
-6.01869e-07
8.78185e-07
-6.12616e-08
4.60285e-07
-7.70869e-07
-1.86354e-07
-1.37166e-06
1.26103e-06
-0.001082
6.11444e-07
-1.53834e-06
-3.90387e-08
-5.98318e-07
-1.36747e-06
-1.65834e-07
4.75708e-07
-7.57445e-07
8.97855e-07
0.0010834
1.26093e-06
-0.00108219
6.11275e-07
-1.52794e-06
-4.37715e-08
-5.93012e-07
-1.37013e-06
-1.63233e-07
-7.60191e-07
4.78253e-07
-0.000264289
-1.39381e-07
-1.28869e-07
1.57751e-06
1.53648e-06
-6.25363e-07
-6.36158e-07
0.00026459
-9.74283e-07
-9.32297e-07
0.000267514
-0.000265389
-1.14531e-07
-1.03855e-07
6.05509e-07
0.00108394
-6.00281e-07
9.56214e-07
-2.98684e-08
4.90071e-07
-7.56604e-07
-1.3747e-06
-1.55815e-07
-1.57504e-06
1.24854e-06
5.99966e-07
0.00108406
-6.00434e-07
9.54054e-07
-2.89242e-08
4.89835e-07
-7.56561e-07
-1.37431e-06
-1.55898e-07
0.00108742
1.21514e-06
-0.00108628
5.86899e-07
-1.57252e-06
-1.44569e-08
-5.9295e-07
-1.37153e-06
-1.34792e-07
-7.46138e-07
5.08812e-07
9.71459e-07
0.00108754
1.21501e-06
-0.0010864
5.92226e-07
-1.57031e-06
-1.51457e-08
-5.93808e-07
-1.36851e-06
-1.34458e-07
-7.45904e-07
5.09255e-07
-6.3106e-07
-6.35854e-07
0.000264585
-9.34589e-07
0.000267504
-0.000265384
-1.09834e-07
-1.04552e-07
6.04488e-07
0.00108489
-5.92526e-07
9.14391e-07
-3.7014e-08
4.87137e-07
-7.56794e-07
-1.37209e-06
-1.55751e-07
-1.57231e-06
1.24835e-06
6.05452e-07
0.00108396
-5.97562e-07
9.51134e-07
-3.19924e-08
4.87314e-07
-7.56577e-07
-1.37195e-06
-1.5572e-07
0.00108838
1.21542e-06
-0.00108723
5.85841e-07
-1.53137e-06
-2.14232e-08
-5.8517e-07
-1.36882e-06
-1.34733e-07
-7.46274e-07
5.06107e-07
9.69036e-07
0.00108745
1.21455e-06
-0.0010863
5.86878e-07
-1.56729e-06
-1.67918e-08
-5.90265e-07
-1.3688e-06
-1.34615e-07
-7.46065e-07
5.06252e-07
1.24851e-06
6.05432e-07
0.00108364
-5.9747e-07
9.45484e-07
-3.20587e-08
4.84565e-07
-7.56409e-07
-1.55833e-07
-1.36909e-06
1.21551e-06
-0.00108684
5.8592e-07
-1.53408e-06
-2.20692e-08
-5.85688e-07
-1.36598e-06
-1.3719e-07
5.0359e-07
-7.43347e-07
9.63257e-07
0.00108713
1.21467e-06
-0.00108598
5.86815e-07
-1.5618e-06
-1.69859e-08
-5.89978e-07
-1.36578e-06
-1.34648e-07
-7.45822e-07
5.0347e-07
-6.28322e-07
-6.32982e-07
0.000264572
-9.3217e-07
0.00026749
-0.000265371
-1.11838e-07
-1.06518e-07
1.24921e-06
6.04381e-07
0.00108459
-5.89754e-07
9.03629e-07
-3.92614e-08
4.84294e-07
-7.56602e-07
-1.55817e-07
-1.36899e-06
1.21543e-06
-0.00108675
5.85968e-07
-1.53104e-06
-1.90276e-08
-5.8751e-07
-1.3635e-06
-1.37219e-07
5.0051e-07
-7.43543e-07
9.21292e-07
0.00108808
1.21522e-06
-0.00108693
5.85727e-07
-1.52063e-06
-2.40043e-08
-5.82216e-07
-1.36583e-06
-1.34605e-07
-7.46029e-07
5.03367e-07
-0.000265363
-1.14902e-07
-1.04276e-07
1.57122e-06
1.53002e-06
-6.11072e-07
-6.2192e-07
0.000265646
-9.9502e-07
-9.52995e-07
0.000268517
-0.000266393
-9.31771e-08
-8.25211e-08
5.81818e-07
0.00108856
-5.90998e-07
9.79207e-07
-1.15823e-08
5.14719e-07
-7.42761e-07
-1.37078e-06
-1.27857e-07
-1.56837e-06
1.2045e-06
5.76169e-07
0.00108869
-5.90116e-07
9.76849e-07
-1.09572e-08
5.11517e-07
-7.42907e-07
-1.37067e-06
-1.27897e-07
0.00109188
1.17497e-06
-0.00109078
5.67223e-07
-1.56751e-06
6.43589e-10
-5.84942e-07
-1.36739e-06
-1.09055e-07
-7.33585e-07
5.32801e-07
9.92394e-07
0.001092
1.17492e-06
-0.00109091
5.72666e-07
-1.56533e-06
3.3331e-10
-5.85882e-07
-1.36703e-06
-1.08873e-07
-7.33469e-07
5.32964e-07
-6.15872e-07
-6.20762e-07
0.00026564
-9.5542e-07
0.000268507
-0.000266388
-8.81355e-08
-8.28013e-08
5.80794e-07
0.00108952
-5.83229e-07
9.37269e-07
-1.84297e-08
5.11635e-07
-7.43026e-07
-1.36825e-06
-1.27918e-07
-1.56615e-06
1.20439e-06
5.81785e-07
0.00108858
-5.88643e-07
9.73982e-07
-1.39152e-08
5.11896e-07
-7.42648e-07
-1.36778e-06
-1.27786e-07
0.00109284
1.17551e-06
-0.00109174
5.66386e-07
-1.52606e-06
-5.83213e-09
-5.77058e-07
-1.36474e-06
-1.09083e-07
-7.3381e-07
5.2982e-07
9.89969e-07
0.0010919
1.17464e-06
-0.00109081
5.67474e-07
-1.56237e-06
-1.64139e-09
-5.82606e-07
-1.36445e-06
-1.09046e-07
-7.33461e-07
5.29933e-07
1.20453e-06
5.81767e-07
0.00108826
-5.88429e-07
9.68459e-07
-1.36398e-08
5.0929e-07
-7.42702e-07
-1.27814e-07
-1.36523e-06
1.17562e-06
-0.00109135
5.66492e-07
-1.52887e-06
-6.08762e-09
-5.7772e-07
-1.36161e-06
-1.11675e-07
5.27038e-07
-7.30941e-07
9.84133e-07
0.00109158
1.17481e-06
-0.00109049
5.67461e-07
-1.55692e-06
-1.81845e-09
-5.82349e-07
-1.36159e-06
-1.09104e-07
-7.33218e-07
5.27358e-07
-6.14278e-07
-6.19025e-07
0.000265628
-9.52962e-07
0.000268493
-0.000266375
-9.03246e-08
-8.49706e-08
1.20508e-06
5.80699e-07
0.00108922
-5.80695e-07
9.26479e-07
-2.05747e-08
5.08776e-07
-7.42954e-07
-1.27842e-07
-1.36521e-06
1.17544e-06
-0.00109126
5.66535e-07
-1.52594e-06
-3.51958e-09
-5.79826e-07
-1.35904e-06
-1.1164e-07
5.24353e-07
-7.30913e-07
9.42039e-07
0.00109253
1.17524e-06
-0.00109144
5.66371e-07
-1.51553e-06
-8.02271e-09
-5.74549e-07
-1.3616e-06
-1.09115e-07
-7.33448e-07
5.27066e-07
-0.000266367
-9.33796e-08
-8.27254e-08
1.56731e-06
1.52571e-06
-5.99667e-07
-6.10546e-07
0.000266634
-1.01292e-06
-9.70746e-07
0.000269455
-0.000267335
-7.24034e-08
-6.41491e-08
5.63451e-07
0.00109296
-5.85195e-07
9.99369e-07
4.25824e-09
5.39194e-07
-7.30612e-07
-1.36664e-06
-1.03119e-07
-1.56472e-06
1.16565e-06
5.57744e-07
0.00109308
-5.84954e-07
9.97092e-07
5.51825e-09
5.39013e-07
-7.30543e-07
-1.3664e-06
-1.03149e-07
0.00109612
1.13972e-06
-0.00109508
5.52369e-07
-1.56596e-06
1.98012e-08
-5.82708e-07
-1.36092e-06
-8.93793e-08
-7.19708e-07
5.52779e-07
1.01026e-06
0.00109624
1.13964e-06
-0.0010952
5.52392e-07
-1.56331e-06
1.98268e-08
-5.81827e-07
-1.36365e-06
-8.68599e-08
-7.22774e-07
5.55142e-07
-6.05058e-07
-6.09919e-07
0.000266629
-9.73127e-07
0.000269446
-0.000267329
-6.98037e-08
-6.41982e-08
5.6284e-07
0.00109392
-5.77184e-07
9.57323e-07
-3.78456e-09
5.36361e-07
-7.3084e-07
-1.36414e-06
-1.03054e-07
-1.56181e-06
1.16573e-06
5.63535e-07
0.00109298
-5.81908e-07
9.94332e-07
9.51889e-10
5.36522e-07
-7.30637e-07
-1.364e-06
-1.02964e-07
0.00109708
1.14099e-06
-0.00109604
5.51693e-07
-1.52442e-06
1.06406e-08
-5.74554e-07
-1.36078e-06
-8.6673e-08
-7.22388e-07
5.52824e-07
1.00692e-06
0.00109614
1.13996e-06
-0.0010951
5.5296e-07
-1.56092e-06
1.45931e-08
-5.80042e-07
-1.36073e-06
-8.64847e-08
-7.22469e-07
5.53228e-07
1.16592e-06
5.6359e-07
0.00109266
-5.82059e-07
9.88547e-07
7.55147e-10
5.33874e-07
-7.30582e-07
-1.02908e-07
-1.36107e-06
1.14097e-06
-0.00109565
5.51665e-07
-1.52676e-06
1.06491e-08
-5.73422e-07
-1.35815e-06
-8.93561e-08
5.49772e-07
-7.20015e-07
1.00201e-06
0.00109582
1.13954e-06
-0.00109478
5.52292e-07
-1.55479e-06
1.68742e-08
-5.78709e-07
-1.35814e-06
-8.70145e-08
-7.22462e-07
5.49792e-07
-6.0223e-07
-6.06952e-07
0.000266615
-9.69825e-07
0.000269435
-0.000267315
-7.3919e-08
-6.84463e-08
1.1666e-06
5.62715e-07
0.00109362
-5.74216e-07
9.46469e-07
-5.76886e-09
5.33546e-07
-7.30819e-07
-1.02907e-07
-1.36112e-06
1.14105e-06
-0.00109555
5.52083e-07
-1.52435e-06
1.16183e-08
-5.77167e-07
-1.35542e-06
-8.89676e-08
5.47663e-07
-7.19853e-07
9.59753e-07
0.00109678
1.14093e-06
-0.00109574
5.51668e-07
-1.51326e-06
7.4418e-09
-5.70649e-07
-1.35785e-06
-8.68101e-08
-7.22486e-07
5.49607e-07
-0.000267308
-7.52749e-08
-6.41709e-08
1.56526e-06
1.52365e-06
-5.92229e-07
-6.00408e-07
0.000267559
-1.02744e-06
-9.85178e-07
0.000270338
-0.000268216
-5.9111e-08
-5.07942e-08
5.49526e-07
0.00109715
-5.79598e-07
1.01624e-06
2.26824e-08
5.58519e-07
-7.18314e-07
-1.36146e-06
-8.4249e-08
-1.56306e-06
1.13207e-06
5.49719e-07
0.00109727
-5.80851e-07