/*--------------------------------*- C++ -*----------------------------------*\
| =========                 |                                                 |
| \\      /  F ield         | OpenFOAM: The Open Source CFD Toolbox           |
|  \\    /   O peration     | Version:  v2012                                 |
|   \\  /    A nd           | Website:  www.openfoam.com                      |
|    \\/     M anipulation  |                                                 |
\*---------------------------------------------------------------------------*/
FoamFile
{
    version     2.0;
    format      ascii;
    class       volScalarField;
    location    "0.09";
    object      p;
}
// * * * * * * * * * * * * * * * * * * * * * * * * * * * * * * * * * * * * * //

dimensions      [0 2 -2 0 0 0 0];


internalField   nonuniform List<scalar> 
247104
(
2.02306e-06
2.02398e-06
2.02384e-06
2.0236e-06
2.0233e-06
2.02365e-06
2.02386e-06
2.02391e-06
2.02397e-06
2.02407e-06
2.0241e-06
2.02385e-06
2.02367e-06
2.02389e-06
2.02412e-06
2.02404e-06
2.02384e-06
2.0241e-06
2.02384e-06
2.02343e-06
2.02326e-06
2.02348e-06
2.02389e-06
2.0241e-06
2.02379e-06
2.0236e-06
2.02385e-06
2.02343e-06
2.02295e-06
2.02277e-06
2.023e-06
2.0235e-06
2.02387e-06
2.02351e-06
2.02306e-06
2.0233e-06
2.02367e-06
2.02326e-06
2.02277e-06
2.02259e-06
2.02282e-06
2.02333e-06
2.02368e-06
2.0232e-06
2.02365e-06
2.02389e-06
2.02348e-06
2.023e-06
2.02282e-06
2.02305e-06
2.02354e-06
2.02391e-06
2.02356e-06
2.02387e-06
2.02412e-06
2.02389e-06
2.0235e-06
2.02333e-06
2.02354e-06
2.02394e-06
2.02412e-06
2.02382e-06
2.02391e-06
2.02404e-06
2.0241e-06
2.02387e-06
2.02368e-06
2.02391e-06
2.02412e-06
2.02401e-06
2.02379e-06
2.02351e-06
2.0232e-06
2.02357e-06
2.02382e-06
1.98958e-06
1.9873e-06
1.98817e-06
1.98689e-06
1.98612e-06
1.98617e-06
1.98611e-06
1.98879e-06
1.98879e-06
1.98818e-06
1.98576e-06
1.98203e-06
1.98173e-06
1.98173e-06
1.98203e-06
1.98611e-06
1.98644e-06
1.98689e-06
1.98203e-06
1.9819e-06
1.98187e-06
1.98187e-06
1.9819e-06
1.98203e-06
1.98676e-06
1.98848e-06
1.98958e-06
1.98612e-06
1.98173e-06
1.98187e-06
1.982e-06
1.982e-06
1.98187e-06
1.98173e-06
1.98621e-06
1.98893e-06
1.98729e-06
1.98616e-06
1.98173e-06
1.98187e-06
1.982e-06
1.982e-06
1.98187e-06
1.98173e-06
1.98631e-06
1.98588e-06
1.9861e-06
1.98203e-06
1.9819e-06
1.98187e-06
1.98187e-06
1.9819e-06
1.98203e-06
1.98633e-06
1.98762e-06
1.98881e-06
1.98611e-06
1.98203e-06
1.98173e-06
1.98173e-06
1.98203e-06
1.986e-06
1.98674e-06
1.98898e-06
1.98879e-06
1.98645e-06
1.98676e-06
1.98621e-06
1.98632e-06
1.98634e-06
1.98674e-06
1.99031e-06
1.9885e-06
1.98893e-06
1.98589e-06
1.98769e-06
1.98895e-06
1.96929e-06
1.96911e-06
1.96884e-06
1.96659e-06
1.96657e-06
1.96656e-06
1.96659e-06
1.96925e-06
1.96923e-06
1.96884e-06
1.96612e-06
1.96284e-06
1.9626e-06
1.9626e-06
1.96283e-06
1.9673e-06
1.96707e-06
1.96658e-06
1.96283e-06
1.96229e-06
1.96225e-06
1.96225e-06
1.96229e-06
1.96284e-06
1.96799e-06
1.96987e-06
1.9693e-06
1.96657e-06
1.96259e-06
1.96224e-06
1.96222e-06
1.96222e-06
1.96225e-06
1.9626e-06
1.9678e-06
1.96919e-06
1.96911e-06
1.96656e-06
1.96259e-06
1.96224e-06
1.96222e-06
1.96222e-06
1.96225e-06
1.9626e-06
1.96762e-06
1.96684e-06
1.96659e-06
1.96284e-06
1.96228e-06
1.96224e-06
1.96224e-06
1.96229e-06
1.96284e-06
1.96796e-06
1.96967e-06
1.96925e-06
1.9673e-06
1.96284e-06
1.9626e-06
1.96259e-06
1.96283e-06
1.9678e-06
1.9676e-06
1.96965e-06
1.96923e-06
1.96707e-06
1.96799e-06
1.96779e-06
1.96761e-06
1.96796e-06
1.96759e-06
1.96977e-06
1.96987e-06
1.96919e-06
1.96684e-06
1.96968e-06
1.96966e-06
1.94838e-06
1.94822e-06
1.94824e-06
1.94579e-06
1.94581e-06
1.94569e-06
1.94589e-06
1.94863e-06
1.94861e-06
1.94824e-06
1.94493e-06
1.94186e-06
1.94178e-06
1.94177e-06
1.94185e-06
1.94651e-06
1.94658e-06
1.94579e-06
1.94186e-06
1.94167e-06
1.94166e-06
1.94166e-06
1.94167e-06
1.94186e-06
1.94749e-06
1.94914e-06
1.94837e-06
1.94581e-06
1.94177e-06
1.94166e-06
1.94165e-06
1.94165e-06
1.94166e-06
1.94178e-06
1.94753e-06
1.9483e-06
1.94823e-06
1.94568e-06
1.94177e-06
1.94166e-06
1.94165e-06
1.94165e-06
1.94166e-06
1.94178e-06
1.94739e-06
1.94615e-06
1.9459e-06
1.94186e-06
1.94167e-06
1.94166e-06
1.94166e-06
1.94167e-06
1.94185e-06
1.94759e-06
1.94879e-06
1.94864e-06
1.94651e-06
1.94185e-06
1.94177e-06
1.94177e-06
1.94185e-06
1.94759e-06
1.94709e-06
1.94902e-06
1.94861e-06
1.94658e-06
1.94749e-06
1.94753e-06
1.94739e-06
1.94759e-06
1.94709e-06
1.94896e-06
1.94913e-06
1.9483e-06
1.94615e-06
1.94879e-06
1.94902e-06
1.92772e-06
1.9276e-06
1.92747e-06
1.92497e-06
1.92498e-06
1.92477e-06
1.92509e-06
1.92788e-06
1.92786e-06
1.92747e-06
1.92371e-06
1.92081e-06
1.92079e-06
1.92079e-06
1.92081e-06
1.92548e-06
1.92588e-06
1.92495e-06
1.92081e-06
1.92077e-06
1.92076e-06
1.92076e-06
1.92076e-06
1.92081e-06
1.92681e-06
1.92846e-06
1.92773e-06
1.92498e-06
1.92079e-06
1.92076e-06
1.92076e-06
1.92076e-06
1.92076e-06
1.92079e-06
1.92706e-06
1.92771e-06
1.9276e-06
1.92478e-06
1.92079e-06
1.92077e-06
1.92076e-06
1.92076e-06
1.92076e-06
1.92079e-06
1.92694e-06
1.9256e-06
1.9251e-06
1.92081e-06
1.92077e-06
1.92077e-06
1.92076e-06
1.92076e-06
1.92081e-06
1.92703e-06
1.92819e-06
1.92788e-06
1.92549e-06
1.92081e-06
1.92079e-06
1.92079e-06
1.92081e-06
1.927e-06
1.92641e-06
1.92833e-06
1.92786e-06
1.92589e-06
1.92681e-06
1.92706e-06
1.92695e-06
1.92702e-06
1.9264e-06
1.92824e-06
1.92846e-06
1.92771e-06
1.92561e-06
1.92819e-06
1.92833e-06
1.90694e-06
1.90683e-06
1.90662e-06
1.90409e-06
1.90413e-06
1.90386e-06
1.90423e-06
1.90703e-06
1.90701e-06
1.90662e-06
1.90273e-06
1.89987e-06
1.89986e-06
1.89986e-06
1.89987e-06
1.90453e-06
1.90505e-06
1.90409e-06
1.89987e-06
1.89985e-06
1.89985e-06
1.89985e-06
1.89985e-06
1.89987e-06
1.90599e-06
1.90764e-06
1.90694e-06
1.90412e-06
1.89986e-06
1.89985e-06
1.89985e-06
1.89985e-06
1.89985e-06
1.89986e-06
1.90631e-06
1.90693e-06
1.90682e-06
1.90386e-06
1.89986e-06
1.89985e-06
1.89985e-06
1.89985e-06
1.89985e-06
1.89986e-06
1.90619e-06
1.90484e-06
1.90424e-06
1.89987e-06
1.89985e-06
1.89985e-06
1.89985e-06
1.89985e-06
1.89986e-06
1.90623e-06
1.9074e-06
1.90704e-06
1.90453e-06
1.89987e-06
1.89986e-06
1.89986e-06
1.89986e-06
1.90622e-06
1.90559e-06
1.90751e-06
1.90701e-06
1.90506e-06
1.90599e-06
1.90631e-06
1.9062e-06
1.90624e-06
1.90558e-06
1.90741e-06
1.90765e-06
1.90693e-06
1.90485e-06
1.90741e-06
1.90751e-06
1.88606e-06
1.88596e-06
1.88573e-06
1.88319e-06
1.88324e-06
1.88295e-06
1.88334e-06
1.88615e-06
1.88613e-06
1.88573e-06
1.8818e-06
1.87895e-06
1.87895e-06
1.87895e-06
1.87895e-06
1.8836e-06
1.88417e-06
1.88319e-06
1.87895e-06
1.87895e-06
1.87895e-06
1.87895e-06
1.87895e-06
1.87895e-06
1.8851e-06
1.88677e-06
1.88607e-06
1.88323e-06
1.87895e-06
1.87895e-06
1.87895e-06
1.87895e-06
1.87895e-06
1.87895e-06
1.88545e-06
1.88606e-06
1.88595e-06
1.88295e-06
1.87895e-06
1.87895e-06
1.87895e-06
1.87895e-06
1.87895e-06
1.87895e-06
1.88533e-06
1.88399e-06
1.88334e-06
1.87895e-06
1.87894e-06
1.87895e-06
1.87895e-06
1.87895e-06
1.87895e-06
1.88536e-06
1.88654e-06
1.88615e-06
1.88361e-06
1.87895e-06
1.87895e-06
1.87895e-06
1.87895e-06
1.88535e-06
1.88471e-06
1.88662e-06
1.88612e-06
1.88417e-06
1.88511e-06
1.88545e-06
1.88534e-06
1.88536e-06
1.88471e-06
1.88652e-06
1.88677e-06
1.88607e-06
1.88399e-06
1.88654e-06
1.88663e-06
1.86517e-06
1.86506e-06
1.86483e-06
1.86229e-06
1.86233e-06
1.86204e-06
1.86244e-06
1.86525e-06
1.86523e-06
1.86483e-06
1.86088e-06
1.85804e-06
1.85804e-06
1.85804e-06
1.85804e-06
1.86269e-06
1.86327e-06
1.86229e-06
1.85804e-06
1.85804e-06
1.85804e-06
1.85804e-06
1.85804e-06
1.85804e-06
1.86421e-06
1.86587e-06
1.86518e-06
1.86233e-06
1.85804e-06
1.85804e-06
1.85804e-06
1.85804e-06
1.85804e-06
1.85804e-06
1.86456e-06
1.86517e-06
1.86506e-06
1.86204e-06
1.85804e-06
1.85804e-06
1.85804e-06
1.85804e-06
1.85804e-06
1.85804e-06
1.86444e-06
1.86309e-06
1.86244e-06
1.85804e-06
1.85804e-06
1.85804e-06
1.85804e-06
1.85804e-06
1.85804e-06
1.86446e-06
1.86564e-06
1.86525e-06
1.86269e-06
1.85804e-06
1.85804e-06
1.85804e-06
1.85804e-06
1.86445e-06
1.86381e-06
1.86572e-06
1.86522e-06
1.86327e-06
1.8642e-06
1.86456e-06
1.86444e-06
1.86447e-06
1.8638e-06
1.86562e-06
1.86587e-06
1.86517e-06
1.86309e-06
1.86564e-06
1.86573e-06
1.84427e-06
1.84416e-06
1.84393e-06
1.84139e-06
1.84143e-06
1.84114e-06
1.84153e-06
1.84435e-06
1.84432e-06
1.84393e-06
1.83998e-06
1.83713e-06
1.83713e-06
1.83713e-06
1.83713e-06
1.84178e-06
1.84236e-06
1.84138e-06
1.83713e-06
1.83713e-06
1.83713e-06
1.83713e-06
1.83713e-06
1.83713e-06
1.8433e-06
1.84496e-06
1.84428e-06
1.84143e-06
1.83713e-06
1.83713e-06
1.83713e-06
1.83713e-06
1.83713e-06
1.83713e-06
1.84366e-06
1.84427e-06
1.84416e-06
1.84114e-06
1.83713e-06
1.83713e-06
1.83713e-06
1.83713e-06
1.83713e-06
1.83713e-06
1.84354e-06
1.84219e-06
1.84153e-06
1.83713e-06
1.83713e-06
1.83713e-06
1.83713e-06
1.83713e-06
1.83713e-06
1.84356e-06
1.84474e-06
1.84435e-06
1.84179e-06
1.83713e-06
1.83713e-06
1.83713e-06
1.83713e-06
1.84356e-06
1.84291e-06
1.84482e-06
1.84432e-06
1.84237e-06
1.8433e-06
1.84366e-06
1.84355e-06
1.84356e-06
1.84291e-06
1.84472e-06
1.84497e-06
1.84427e-06
1.8422e-06
1.84474e-06
1.84483e-06
1.82336e-06
1.82326e-06
1.82302e-06
1.82048e-06
1.82052e-06
1.82023e-06
1.82063e-06
1.82344e-06
1.82342e-06
1.82302e-06
1.81907e-06
1.81623e-06
1.81623e-06
1.81623e-06
1.81623e-06
1.82087e-06
1.82146e-06
1.82048e-06
1.81623e-06
1.81623e-06
1.81623e-06
1.81623e-06
1.81623e-06
1.81623e-06
1.8224e-06
1.82406e-06
1.82337e-06
1.82052e-06
1.81623e-06
1.81623e-06
1.81623e-06
1.81623e-06
1.81623e-06
1.81623e-06
1.82275e-06
1.82337e-06
1.82325e-06
1.82024e-06
1.81623e-06
1.81623e-06
1.81623e-06
1.81623e-06
1.81623e-06
1.81623e-06
1.82264e-06
1.82129e-06
1.82063e-06
1.81623e-06
1.81623e-06
1.81623e-06
1.81623e-06
1.81623e-06
1.81623e-06
1.82265e-06
1.82384e-06
1.82344e-06
1.82088e-06
1.81623e-06
1.81623e-06
1.81623e-06
1.81623e-06
1.82266e-06
1.82201e-06
1.82392e-06
1.82341e-06
1.82146e-06
1.8224e-06
1.82275e-06
1.82264e-06
1.82266e-06
1.82201e-06
1.82381e-06
1.82406e-06
1.82336e-06
1.82129e-06
1.82384e-06
1.82393e-06
1.80246e-06
1.80235e-06
1.80212e-06
1.79958e-06
1.79962e-06
1.79933e-06
1.79973e-06
1.80254e-06
1.80251e-06
1.80212e-06
1.79817e-06
1.79532e-06
1.79532e-06
1.79532e-06
1.79532e-06
1.79997e-06
1.80055e-06
1.79957e-06
1.79532e-06
1.79532e-06
1.79532e-06
1.79532e-06
1.79532e-06
1.79532e-06
1.80149e-06
1.80315e-06
1.80247e-06
1.79962e-06
1.79532e-06
1.79532e-06
1.79532e-06
1.79532e-06
1.79532e-06
1.79532e-06
1.80185e-06
1.80246e-06
1.80235e-06
1.79933e-06
1.79532e-06
1.79532e-06
1.79532e-06
1.79532e-06
1.79532e-06
1.79532e-06
1.80173e-06
1.80038e-06
1.79972e-06
1.79532e-06
1.79532e-06
1.79532e-06
1.79532e-06
1.79532e-06
1.79532e-06
1.80175e-06
1.80293e-06
1.80253e-06
1.79997e-06
1.79532e-06
1.79532e-06
1.79532e-06
1.79532e-06
1.80175e-06
1.8011e-06
1.80301e-06
1.80251e-06
1.80056e-06
1.80149e-06
1.80185e-06
1.80174e-06
1.80175e-06
1.8011e-06
1.80291e-06
1.80316e-06
1.80246e-06
1.80039e-06
1.80293e-06
1.80302e-06
1.78155e-06
1.78145e-06
1.78121e-06
1.77867e-06
1.77871e-06
1.77842e-06
1.77882e-06
1.78163e-06
1.78161e-06
1.78121e-06
1.77726e-06
1.77442e-06
1.77442e-06
1.77442e-06
1.77442e-06
1.77906e-06
1.77965e-06
1.77867e-06
1.77442e-06
1.77442e-06
1.77442e-06
1.77442e-06
1.77442e-06
1.77442e-06
1.78059e-06
1.78225e-06
1.78156e-06
1.77871e-06
1.77442e-06
1.77442e-06
1.77442e-06
1.77442e-06
1.77442e-06
1.77442e-06
1.78094e-06
1.78155e-06
1.78144e-06
1.77842e-06
1.77442e-06
1.77442e-06
1.77442e-06
1.77442e-06
1.77442e-06
1.77442e-06
1.78083e-06
1.77948e-06
1.77882e-06
1.77442e-06
1.77442e-06
1.77442e-06
1.77442e-06
1.77442e-06
1.77442e-06
1.78084e-06
1.78203e-06
1.78163e-06
1.77907e-06
1.77442e-06
1.77442e-06
1.77442e-06
1.77442e-06
1.78084e-06
1.7802e-06
1.78211e-06
1.7816e-06
1.77965e-06
1.78059e-06
1.78094e-06
1.78083e-06
1.78085e-06
1.7802e-06
1.782e-06
1.78225e-06
1.78155e-06
1.77948e-06
1.78203e-06
1.78212e-06
1.76064e-06
1.76054e-06
1.7603e-06
1.75777e-06
1.75781e-06
1.75752e-06
1.75791e-06
1.76073e-06
1.7607e-06
1.76031e-06
1.75635e-06
1.75351e-06
1.75351e-06
1.75351e-06
1.75351e-06
1.75816e-06
1.75874e-06
1.75776e-06
1.75351e-06
1.75351e-06
1.75351e-06
1.75351e-06
1.75351e-06
1.75351e-06
1.75968e-06
1.76134e-06
1.76066e-06
1.7578e-06
1.75351e-06
1.75351e-06
1.75351e-06
1.75351e-06
1.75351e-06
1.75351e-06
1.76004e-06
1.76065e-06
1.76054e-06
1.75752e-06
1.75351e-06
1.75351e-06
1.75351e-06
1.75351e-06
1.75351e-06
1.75351e-06
1.75992e-06
1.75857e-06
1.75791e-06
1.75351e-06
1.75351e-06
1.75351e-06
1.75351e-06
1.75351e-06
1.75351e-06
1.75994e-06
1.76112e-06
1.76072e-06
1.75816e-06
1.75351e-06
1.75351e-06
1.75351e-06
1.75351e-06
1.75994e-06
1.75929e-06
1.7612e-06
1.76069e-06
1.75874e-06
1.75968e-06
1.76004e-06
1.75992e-06
1.75994e-06
1.75929e-06
1.7611e-06
1.76135e-06
1.76065e-06
1.75857e-06
1.76112e-06
1.76121e-06
1.73974e-06
1.73964e-06
1.73939e-06
1.73686e-06
1.7369e-06
1.73661e-06
1.73701e-06
1.73982e-06
1.73979e-06
1.7394e-06
1.73545e-06
1.7326e-06
1.7326e-06
1.7326e-06
1.7326e-06
1.73725e-06
1.73784e-06
1.73686e-06
1.7326e-06
1.7326e-06
1.7326e-06
1.7326e-06
1.7326e-06
1.7326e-06
1.73877e-06
1.74044e-06
1.73975e-06
1.7369e-06
1.7326e-06
1.7326e-06
1.7326e-06
1.7326e-06
1.7326e-06
1.7326e-06
1.73913e-06
1.73974e-06
1.73963e-06
1.73661e-06
1.7326e-06
1.7326e-06
1.7326e-06
1.7326e-06
1.7326e-06
1.7326e-06
1.73902e-06
1.73767e-06
1.73701e-06
1.7326e-06
1.7326e-06
1.7326e-06
1.7326e-06
1.7326e-06
1.7326e-06
1.73903e-06
1.74022e-06
1.73982e-06
1.73725e-06
1.7326e-06
1.7326e-06
1.7326e-06
1.7326e-06
1.73903e-06
1.73839e-06
1.74029e-06
1.73979e-06
1.73784e-06
1.73877e-06
1.73913e-06
1.73902e-06
1.73904e-06
1.73838e-06
1.74019e-06
1.74044e-06
1.73974e-06
1.73767e-06
1.74021e-06
1.74031e-06
1.71883e-06
1.71873e-06
1.71848e-06
1.71596e-06
1.71599e-06
1.7157e-06
1.7161e-06
1.71892e-06
1.71889e-06
1.71849e-06
1.71454e-06
1.7117e-06
1.7117e-06
1.7117e-06
1.7117e-06
1.71634e-06
1.71693e-06
1.71595e-06
1.7117e-06
1.7117e-06
1.7117e-06
1.7117e-06
1.7117e-06
1.7117e-06
1.71787e-06
1.71953e-06
1.71884e-06
1.71599e-06
1.7117e-06
1.7117e-06
1.7117e-06
1.7117e-06
1.7117e-06
1.7117e-06
1.71822e-06
1.71884e-06
1.71872e-06
1.7157e-06
1.7117e-06
1.7117e-06
1.7117e-06
1.7117e-06
1.7117e-06
1.7117e-06
1.71811e-06
1.71676e-06
1.7161e-06
1.7117e-06
1.7117e-06
1.7117e-06
1.7117e-06
1.7117e-06
1.7117e-06
1.71812e-06
1.71931e-06
1.71891e-06
1.71635e-06
1.7117e-06
1.7117e-06
1.7117e-06
1.7117e-06
1.71813e-06
1.71748e-06
1.71939e-06
1.71888e-06
1.71693e-06
1.71787e-06
1.71822e-06
1.71811e-06
1.71813e-06
1.71748e-06
1.71928e-06
1.71953e-06
1.71883e-06
1.71676e-06
1.71931e-06
1.7194e-06
1.69793e-06
1.69782e-06
1.69757e-06
1.69505e-06
1.69509e-06
1.6948e-06
1.69519e-06
1.69801e-06
1.69798e-06
1.69759e-06
1.69363e-06
1.69079e-06
1.69079e-06
1.69079e-06
1.69079e-06
1.69544e-06
1.69603e-06
1.69504e-06
1.69079e-06
1.69079e-06
1.69079e-06
1.69079e-06
1.69079e-06
1.69079e-06
1.69696e-06
1.69862e-06
1.69794e-06
1.69508e-06
1.69079e-06
1.69079e-06
1.69079e-06
1.69079e-06
1.69079e-06
1.69079e-06
1.69732e-06
1.69793e-06
1.69782e-06
1.6948e-06
1.69079e-06
1.69079e-06
1.69079e-06
1.69079e-06
1.69079e-06
1.69079e-06
1.6972e-06
1.69585e-06
1.69519e-06
1.69079e-06
1.69079e-06
1.69079e-06
1.69079e-06
1.69079e-06
1.69079e-06
1.69722e-06
1.6984e-06
1.698e-06
1.69544e-06
1.69079e-06
1.69079e-06
1.69079e-06
1.69079e-06
1.69722e-06
1.69657e-06
1.69848e-06
1.69798e-06
1.69602e-06
1.69696e-06
1.69732e-06
1.6972e-06
1.69722e-06
1.69657e-06
1.69838e-06
1.69863e-06
1.69793e-06
1.69585e-06
1.6984e-06
1.69849e-06
1.67702e-06
1.67692e-06
1.67667e-06
1.67414e-06
1.67418e-06
1.67389e-06
1.67429e-06
1.6771e-06
1.67707e-06
1.67668e-06
1.67273e-06
1.66988e-06
1.66988e-06
1.66988e-06
1.66988e-06
1.67453e-06
1.67512e-06
1.67414e-06
1.66988e-06
1.66988e-06
1.66988e-06
1.66988e-06
1.66988e-06
1.66988e-06
1.67605e-06
1.67772e-06
1.67703e-06
1.67418e-06
1.66988e-06
1.66988e-06
1.66988e-06
1.66988e-06
1.66988e-06
1.66988e-06
1.67641e-06
1.67702e-06
1.67691e-06
1.67389e-06
1.66988e-06
1.66988e-06
1.66988e-06
1.66988e-06
1.66988e-06
1.66988e-06
1.6763e-06
1.67495e-06
1.67429e-06
1.66988e-06
1.66988e-06
1.66988e-06
1.66988e-06
1.66988e-06
1.66988e-06
1.67631e-06
1.6775e-06
1.6771e-06
1.67454e-06
1.66988e-06
1.66988e-06
1.66988e-06
1.66988e-06
1.67631e-06
1.67567e-06
1.67757e-06
1.67707e-06
1.67512e-06
1.67606e-06
1.67641e-06
1.6763e-06
1.67632e-06
1.67567e-06
1.67747e-06
1.67772e-06
1.67702e-06
1.67495e-06
1.67749e-06
1.67759e-06
1.65611e-06
1.65601e-06
1.65576e-06
1.65323e-06
1.65327e-06
1.65298e-06
1.65338e-06
1.65619e-06
1.65616e-06
1.65577e-06
1.65182e-06
1.64898e-06
1.64898e-06
1.64898e-06
1.64898e-06
1.65363e-06
1.65421e-06
1.65323e-06
1.64898e-06
1.64898e-06
1.64898e-06
1.64898e-06
1.64898e-06
1.64898e-06
1.65515e-06
1.65681e-06
1.65612e-06
1.65327e-06
1.64898e-06
1.64898e-06
1.64898e-06
1.64898e-06
1.64898e-06
1.64898e-06
1.65551e-06
1.65612e-06
1.656e-06
1.65299e-06
1.64898e-06
1.64898e-06
1.64898e-06
1.64898e-06
1.64898e-06
1.64898e-06
1.65539e-06
1.65404e-06
1.65338e-06
1.64898e-06
1.64898e-06
1.64898e-06
1.64898e-06
1.64898e-06
1.64898e-06
1.65541e-06
1.65659e-06
1.65619e-06
1.65363e-06
1.64898e-06
1.64898e-06
1.64898e-06
1.64898e-06
1.65541e-06
1.65476e-06
1.65667e-06
1.65616e-06
1.65421e-06
1.65515e-06
1.65551e-06
1.65539e-06
1.65541e-06
1.65476e-06
1.65656e-06
1.65682e-06
1.65612e-06
1.65404e-06
1.65659e-06
1.65668e-06
1.63521e-06
1.6351e-06
1.63486e-06
1.63233e-06
1.63237e-06
1.63208e-06
1.63248e-06
1.63529e-06
1.63526e-06
1.63487e-06
1.63092e-06
1.62807e-06
1.62807e-06
1.62807e-06
1.62807e-06
1.63272e-06
1.63331e-06
1.63232e-06
1.62807e-06
1.62807e-06
1.62807e-06
1.62807e-06
1.62807e-06
1.62807e-06
1.63424e-06
1.6359e-06
1.63522e-06
1.63237e-06
1.62807e-06
1.62807e-06
1.62807e-06
1.62807e-06
1.62807e-06
1.62807e-06
1.6346e-06
1.63521e-06
1.6351e-06
1.63208e-06
1.62807e-06
1.62807e-06
1.62807e-06
1.62807e-06
1.62807e-06
1.62807e-06
1.63449e-06
1.63313e-06
1.63247e-06
1.62807e-06
1.62807e-06
1.62807e-06
1.62807e-06
1.62807e-06
1.62807e-06
1.6345e-06
1.63568e-06
1.63528e-06
1.63272e-06
1.62807e-06
1.62807e-06
1.62807e-06
1.62807e-06
1.6345e-06
1.63385e-06
1.63576e-06
1.63526e-06
1.63331e-06
1.63424e-06
1.6346e-06
1.63449e-06
1.6345e-06
1.63385e-06
1.63566e-06
1.63591e-06
1.63521e-06
1.63314e-06
1.63568e-06
1.63577e-06
1.6143e-06
1.6142e-06
1.61395e-06
1.61142e-06
1.61146e-06
1.61117e-06
1.61157e-06
1.61438e-06
1.61435e-06
1.61396e-06
1.61001e-06
1.60716e-06
1.60716e-06
1.60716e-06
1.60716e-06
1.61182e-06
1.6124e-06
1.61142e-06
1.60716e-06
1.60716e-06
1.60716e-06
1.60716e-06
1.60716e-06
1.60716e-06
1.61334e-06
1.615e-06
1.61431e-06
1.61146e-06
1.60716e-06
1.60716e-06
1.60716e-06
1.60716e-06
1.60716e-06
1.60716e-06
1.61369e-06
1.6143e-06
1.61419e-06
1.61117e-06
1.60716e-06
1.60716e-06
1.60716e-06
1.60716e-06
1.60716e-06
1.60716e-06
1.61358e-06
1.61223e-06
1.61157e-06
1.60716e-06
1.60716e-06
1.60716e-06
1.60716e-06
1.60716e-06
1.60716e-06
1.61359e-06
1.61478e-06
1.61438e-06
1.61182e-06
1.60716e-06
1.60716e-06
1.60716e-06
1.60716e-06
1.61359e-06
1.61295e-06
1.61486e-06
1.61435e-06
1.6124e-06
1.61334e-06
1.61369e-06
1.61358e-06
1.6136e-06
1.61295e-06
1.61475e-06
1.615e-06
1.6143e-06
1.61223e-06
1.61477e-06
1.61487e-06
1.59339e-06
1.59329e-06
1.59304e-06
1.59051e-06
1.59055e-06
1.59026e-06
1.59066e-06
1.59347e-06
1.59345e-06
1.59305e-06
1.5891e-06
1.58626e-06
1.58626e-06
1.58626e-06
1.58626e-06
1.59091e-06
1.59149e-06
1.59051e-06
1.58626e-06
1.58626e-06
1.58626e-06
1.58626e-06
1.58626e-06
1.58626e-06
1.59243e-06
1.59409e-06
1.5934e-06
1.59055e-06
1.58626e-06
1.58626e-06
1.58626e-06
1.58626e-06
1.58626e-06
1.58626e-06
1.59279e-06
1.5934e-06
1.59328e-06
1.59027e-06
1.58626e-06
1.58626e-06
1.58626e-06
1.58626e-06
1.58626e-06
1.58626e-06
1.59267e-06
1.59132e-06
1.59066e-06
1.58626e-06
1.58626e-06
1.58626e-06
1.58626e-06
1.58626e-06
1.58626e-06
1.59269e-06
1.59387e-06
1.59347e-06
1.59091e-06
1.58626e-06
1.58626e-06
1.58626e-06
1.58626e-06
1.59269e-06
1.59204e-06
1.59395e-06
1.59344e-06
1.59149e-06
1.59243e-06
1.59279e-06
1.59267e-06
1.59269e-06
1.59204e-06
1.59384e-06
1.59409e-06
1.5934e-06
1.59132e-06
1.59387e-06
1.59396e-06
1.57249e-06
1.57238e-06
1.57214e-06
1.56961e-06
1.56965e-06
1.56936e-06
1.56976e-06
1.57257e-06
1.57254e-06
1.57215e-06
1.5682e-06
1.56535e-06
1.56535e-06
1.56535e-06
1.56535e-06
1.57e-06
1.57059e-06
1.5696e-06
1.56535e-06
1.56535e-06
1.56535e-06
1.56535e-06
1.56535e-06
1.56535e-06
1.57152e-06
1.57319e-06
1.5725e-06
1.56965e-06
1.56535e-06
1.56535e-06
1.56535e-06
1.56535e-06
1.56535e-06
1.56535e-06
1.57188e-06
1.57249e-06
1.57238e-06
1.56936e-06
1.56535e-06
1.56535e-06
1.56535e-06
1.56535e-06
1.56535e-06
1.56535e-06
1.57177e-06
1.57041e-06
1.56975e-06
1.56535e-06
1.56535e-06
1.56535e-06
1.56535e-06
1.56535e-06
1.56535e-06
1.57178e-06
1.57296e-06
1.57256e-06
1.57e-06
1.56535e-06
1.56535e-06
1.56535e-06
1.56535e-06
1.57178e-06
1.57113e-06
1.57304e-06
1.57254e-06
1.57058e-06
1.57152e-06
1.57188e-06
1.57177e-06
1.57178e-06
1.57113e-06
1.57294e-06
1.57319e-06
1.57249e-06
1.57042e-06
1.57296e-06
1.57305e-06
1.55158e-06
1.55148e-06
1.55123e-06
1.5487e-06
1.54874e-06
1.54845e-06
1.54885e-06
1.55166e-06
1.55163e-06
1.55124e-06
1.54729e-06
1.54445e-06
1.54445e-06
1.54445e-06
1.54444e-06
1.5491e-06
1.54968e-06
1.5487e-06
1.54445e-06
1.54445e-06
1.54445e-06
1.54445e-06
1.54445e-06
1.54445e-06
1.55062e-06
1.55228e-06
1.55159e-06
1.54874e-06
1.54445e-06
1.54445e-06
1.54445e-06
1.54445e-06
1.54445e-06
1.54445e-06
1.55097e-06
1.55158e-06
1.55147e-06
1.54845e-06
1.54445e-06
1.54445e-06
1.54445e-06
1.54445e-06
1.54445e-06
1.54445e-06
1.55086e-06
1.54951e-06
1.54885e-06
1.54445e-06
1.54445e-06
1.54445e-06
1.54445e-06
1.54445e-06
1.54445e-06
1.55087e-06
1.55206e-06
1.55166e-06
1.54909e-06
1.54445e-06
1.54445e-06
1.54445e-06
1.54445e-06
1.55088e-06
1.55023e-06
1.55214e-06
1.55163e-06
1.54968e-06
1.55062e-06
1.55097e-06
1.55086e-06
1.55088e-06
1.55023e-06
1.55203e-06
1.55228e-06
1.55158e-06
1.54951e-06
1.55206e-06
1.55215e-06
1.53067e-06
1.53057e-06
1.53032e-06
1.52779e-06
1.52783e-06
1.52754e-06
1.52794e-06
1.53075e-06
1.53072e-06
1.53033e-06
1.52638e-06
1.52354e-06
1.52354e-06
1.52354e-06
1.52354e-06
1.52819e-06
1.52877e-06
1.52779e-06
1.52354e-06
1.52354e-06
1.52354e-06
1.52354e-06
1.52354e-06
1.52354e-06
1.52971e-06
1.53137e-06
1.53068e-06
1.52783e-06
1.52354e-06
1.52354e-06
1.52354e-06
1.52354e-06
1.52354e-06
1.52354e-06
1.53007e-06
1.53068e-06
1.53057e-06
1.52755e-06
1.52354e-06
1.52354e-06
1.52354e-06
1.52354e-06
1.52354e-06
1.52354e-06
1.52995e-06
1.5286e-06
1.52794e-06
1.52354e-06
1.52354e-06
1.52354e-06
1.52354e-06
1.52354e-06
1.52354e-06
1.52997e-06
1.53115e-06
1.53075e-06
1.52819e-06
1.52354e-06
1.52354e-06
1.52354e-06
1.52354e-06
1.52997e-06
1.52932e-06
1.53123e-06
1.53072e-06
1.52877e-06
1.52971e-06
1.53007e-06
1.52995e-06
1.52997e-06
1.52932e-06
1.53112e-06
1.53138e-06
1.53068e-06
1.52861e-06
1.53115e-06
1.53124e-06
1.50977e-06
1.50966e-06
1.50942e-06
1.50689e-06
1.50693e-06
1.50664e-06
1.50703e-06
1.50985e-06
1.50982e-06
1.50943e-06
1.50548e-06
1.50263e-06
1.50263e-06
1.50263e-06
1.50263e-06
1.50728e-06
1.50787e-06
1.50688e-06
1.50263e-06
1.50263e-06
1.50263e-06
1.50263e-06
1.50263e-06
1.50263e-06
1.5088e-06
1.51046e-06
1.50978e-06
1.50693e-06
1.50263e-06
1.50263e-06
1.50263e-06
1.50263e-06
1.50263e-06
1.50263e-06
1.50916e-06
1.50977e-06
1.50966e-06
1.50664e-06
1.50263e-06
1.50263e-06
1.50263e-06
1.50263e-06
1.50263e-06
1.50263e-06
1.50905e-06
1.50769e-06
1.50703e-06
1.50263e-06
1.50263e-06
1.50263e-06
1.50263e-06
1.50263e-06
1.50263e-06
1.50906e-06
1.51024e-06
1.50984e-06
1.50728e-06
1.50263e-06
1.50263e-06
1.50263e-06
1.50263e-06
1.50906e-06
1.50841e-06
1.51032e-06
1.50982e-06
1.50786e-06
1.5088e-06
1.50916e-06
1.50905e-06
1.50906e-06
1.50841e-06
1.51022e-06
1.51047e-06
1.50977e-06
1.5077e-06
1.51024e-06
1.51033e-06
1.48886e-06
1.48876e-06
1.48851e-06
1.48599e-06
1.48602e-06
1.48573e-06
1.48613e-06
1.48894e-06
1.48891e-06
1.48852e-06
1.48457e-06
1.48173e-06
1.48173e-06
1.48173e-06
1.48173e-06
1.48638e-06
1.48696e-06
1.48598e-06
1.48173e-06
1.48173e-06
1.48173e-06
1.48173e-06
1.48173e-06
1.48173e-06
1.4879e-06
1.48956e-06
1.48887e-06
1.48602e-06
1.48173e-06
1.48173e-06
1.48173e-06
1.48173e-06
1.48173e-06
1.48173e-06
1.48825e-06
1.48886e-06
1.48875e-06
1.48573e-06
1.48173e-06
1.48173e-06
1.48173e-06
1.48173e-06
1.48173e-06
1.48173e-06
1.48814e-06
1.48679e-06
1.48613e-06
1.48173e-06
1.48173e-06
1.48173e-06
1.48173e-06
1.48173e-06
1.48173e-06
1.48815e-06
1.48934e-06
1.48894e-06
1.48637e-06
1.48173e-06
1.48173e-06
1.48173e-06
1.48173e-06
1.48815e-06
1.48751e-06
1.48942e-06
1.48891e-06
1.48696e-06
1.4879e-06
1.48825e-06
1.48814e-06
1.48816e-06
1.48751e-06
1.48931e-06
1.48956e-06
1.48886e-06
1.48679e-06
1.48933e-06
1.48943e-06
1.46795e-06
1.46785e-06
1.4676e-06
1.46508e-06
1.46511e-06
1.46482e-06
1.46522e-06
1.46803e-06
1.468e-06
1.46761e-06
1.46366e-06
1.46082e-06
1.46082e-06
1.46082e-06
1.46082e-06
1.46547e-06
1.46605e-06
1.46507e-06
1.46082e-06
1.46082e-06
1.46082e-06
1.46082e-06
1.46082e-06
1.46082e-06
1.46699e-06
1.46865e-06
1.46796e-06
1.46511e-06
1.46082e-06
1.46082e-06
1.46082e-06
1.46082e-06
1.46082e-06
1.46082e-06
1.46735e-06
1.46796e-06
1.46785e-06
1.46483e-06
1.46082e-06
1.46082e-06
1.46082e-06
1.46082e-06
1.46082e-06
1.46082e-06
1.46723e-06
1.46588e-06
1.46522e-06
1.46082e-06
1.46082e-06
1.46082e-06
1.46082e-06
1.46082e-06
1.46082e-06
1.46725e-06
1.46843e-06
1.46803e-06
1.46547e-06
1.46082e-06
1.46082e-06
1.46082e-06
1.46082e-06
1.46725e-06
1.4666e-06
1.46851e-06
1.468e-06
1.46605e-06
1.46699e-06
1.46735e-06
1.46723e-06
1.46725e-06
1.4666e-06
1.4684e-06
1.46866e-06
1.46796e-06
1.46589e-06
1.46843e-06
1.46852e-06
1.44705e-06
1.44694e-06
1.4467e-06
1.44417e-06
1.44421e-06
1.44392e-06
1.44431e-06
1.44712e-06
1.4471e-06
1.44671e-06
1.44276e-06
1.43991e-06
1.43991e-06
1.43991e-06
1.43991e-06
1.44456e-06
1.44515e-06
1.44416e-06
1.43991e-06
1.43991e-06
1.43991e-06
1.43991e-06
1.43991e-06
1.43991e-06
1.44608e-06
1.44775e-06
1.44706e-06
1.44421e-06
1.43991e-06
1.43991e-06
1.43991e-06
1.43991e-06
1.43991e-06
1.43991e-06
1.44644e-06
1.44705e-06
1.44694e-06
1.44392e-06
1.43991e-06
1.43991e-06
1.43991e-06
1.43991e-06
1.43991e-06
1.43991e-06
1.44633e-06
1.44497e-06
1.44431e-06
1.43991e-06
1.43991e-06
1.43991e-06
1.43991e-06
1.43991e-06
1.43991e-06
1.44634e-06
1.44752e-06
1.44712e-06
1.44456e-06
1.43991e-06
1.43991e-06
1.43991e-06
1.43991e-06
1.44634e-06
1.44569e-06
1.4476e-06
1.4471e-06
1.44514e-06
1.44608e-06
1.44644e-06
1.44632e-06
1.44634e-06
1.44569e-06
1.4475e-06
1.44775e-06
1.44705e-06
1.44498e-06
1.44752e-06
1.44761e-06
1.42614e-06
1.42604e-06
1.42579e-06
1.42326e-06
1.4233e-06
1.42301e-06
1.42341e-06
1.42622e-06
1.42619e-06
1.4258e-06
1.42185e-06
1.419e-06
1.419e-06
1.419e-06
1.419e-06
1.42366e-06
1.42424e-06
1.42326e-06
1.419e-06
1.419e-06
1.419e-06
1.419e-06
1.419e-06
1.419e-06
1.42518e-06
1.42684e-06
1.42615e-06
1.4233e-06
1.419e-06
1.419e-06
1.419e-06
1.419e-06
1.419e-06
1.419e-06
1.42553e-06
1.42614e-06
1.42603e-06
1.42301e-06
1.419e-06
1.419e-06
1.419e-06
1.419e-06
1.419e-06
1.419e-06
1.42542e-06
1.42407e-06
1.42341e-06
1.419e-06
1.419e-06
1.419e-06
1.419e-06
1.419e-06
1.419e-06
1.42543e-06
1.42662e-06
1.42622e-06
1.42365e-06
1.419e-06
1.419e-06
1.419e-06
1.419e-06
1.42543e-06
1.42479e-06
1.4267e-06
1.42619e-06
1.42424e-06
1.42517e-06
1.42553e-06
1.42542e-06
1.42544e-06
1.42479e-06
1.42659e-06
1.42684e-06
1.42614e-06
1.42407e-06
1.42661e-06
1.42671e-06
1.40523e-06
1.40513e-06
1.40488e-06
1.40236e-06
1.40239e-06
1.4021e-06
1.4025e-06
1.40531e-06
1.40529e-06
1.40489e-06
1.40094e-06
1.3981e-06
1.3981e-06
1.3981e-06
1.3981e-06
1.40275e-06
1.40333e-06
1.40235e-06
1.3981e-06
1.3981e-06
1.3981e-06
1.3981e-06
1.3981e-06
1.3981e-06
1.40427e-06
1.40593e-06
1.40524e-06
1.40239e-06
1.3981e-06
1.3981e-06
1.3981e-06
1.3981e-06
1.3981e-06
1.3981e-06
1.40463e-06
1.40524e-06
1.40512e-06
1.4021e-06
1.3981e-06
1.3981e-06
1.3981e-06
1.3981e-06
1.3981e-06
1.3981e-06
1.40451e-06
1.40316e-06
1.4025e-06
1.3981e-06
1.3981e-06
1.3981e-06
1.3981e-06
1.3981e-06
1.3981e-06
1.40453e-06
1.40571e-06
1.40531e-06
1.40275e-06
1.3981e-06
1.3981e-06
1.3981e-06
1.3981e-06
1.40453e-06
1.40388e-06
1.40579e-06
1.40528e-06
1.40333e-06
1.40427e-06
1.40462e-06
1.40451e-06
1.40453e-06
1.40388e-06
1.40568e-06
1.40594e-06
1.40524e-06
1.40316e-06
1.40571e-06
1.4058e-06
1.38433e-06
1.38422e-06
1.38398e-06
1.38145e-06
1.38149e-06
1.3812e-06
1.38159e-06
1.3844e-06
1.38438e-06
1.38399e-06
1.38003e-06
1.37719e-06
1.37719e-06
1.37719e-06
1.37719e-06
1.38185e-06
1.38243e-06
1.38144e-06
1.37719e-06
1.37719e-06
1.37719e-06
1.37719e-06
1.37719e-06
1.37719e-06
1.38336e-06
1.38502e-06
1.38434e-06
1.38148e-06
1.37719e-06
1.37719e-06
1.37719e-06
1.37719e-06
1.37719e-06
1.37719e-06
1.38372e-06
1.38433e-06
1.38422e-06
1.3812e-06
1.37719e-06
1.37719e-06
1.37719e-06
1.37719e-06
1.37719e-06
1.37719e-06
1.3836e-06
1.38225e-06
1.38159e-06
1.37719e-06
1.37719e-06
1.37719e-06
1.37719e-06
1.37719e-06
1.37719e-06
1.38362e-06
1.3848e-06
1.3844e-06
1.38184e-06
1.37719e-06
1.37719e-06
1.37719e-06
1.37719e-06
1.38362e-06
1.38297e-06
1.38488e-06
1.38437e-06
1.38242e-06
1.38336e-06
1.38372e-06
1.3836e-06
1.38362e-06
1.38297e-06
1.38478e-06
1.38503e-06
1.38433e-06
1.38226e-06
1.3848e-06
1.38489e-06
1.36342e-06
1.36332e-06
1.36307e-06
1.36054e-06
1.36058e-06
1.36029e-06
1.36069e-06
1.3635e-06
1.36347e-06
1.36308e-06
1.35913e-06
1.35628e-06
1.35628e-06
1.35628e-06
1.35628e-06
1.36094e-06
1.36152e-06
1.36053e-06
1.35628e-06
1.35628e-06
1.35628e-06
1.35628e-06
1.35628e-06
1.35628e-06
1.36245e-06
1.36412e-06
1.36343e-06
1.36058e-06
1.35628e-06
1.35628e-06
1.35628e-06
1.35628e-06
1.35628e-06
1.35628e-06
1.36281e-06
1.36342e-06
1.36331e-06
1.36029e-06
1.35628e-06
1.35628e-06
1.35628e-06
1.35628e-06
1.35628e-06
1.35628e-06
1.3627e-06
1.36135e-06
1.36068e-06
1.35628e-06
1.35628e-06
1.35628e-06
1.35628e-06
1.35628e-06
1.35628e-06
1.36271e-06
1.3639e-06
1.36349e-06
1.36093e-06
1.35628e-06
1.35628e-06
1.35628e-06
1.35628e-06
1.36271e-06
1.36207e-06
1.36397e-06
1.36347e-06
1.36151e-06
1.36245e-06
1.36281e-06
1.36269e-06
1.36271e-06
1.36206e-06