/*--------------------------------*- C++ -*----------------------------------*\
| =========                 |                                                 |
| \\      /  F ield         | OpenFOAM: The Open Source CFD Toolbox           |
|  \\    /   O peration     | Version:  v2012                                 |
|   \\  /    A nd           | Website:  www.openfoam.com                      |
|    \\/     M anipulation  |                                                 |
\*---------------------------------------------------------------------------*/
FoamFile
{
    version     2.0;
    format      ascii;
    class       volScalarField;
    location    "1787.5";
    object      p;
}
// * * * * * * * * * * * * * * * * * * * * * * * * * * * * * * * * * * * * * //

dimensions      [0 2 -2 0 0 0 0];


internalField   nonuniform List<scalar> 
171728
(
0.00351952
0.00351841
0.00351847
0.00351913
0.00348415
0.00348263
0.00348267
0.00348553
0.0034457
0.00344375
0.00344379
0.00344612
0.00340163
0.00339994
0.00339992
0.00340219
0.00335361
0.00335217
0.00335217
0.00335448
0.00330478
0.00330351
0.00330347
0.00330582
0.00325652
0.00325536
0.00325534
0.00325771
0.00320921
0.00320815
0.00320819
0.00321051
0.00316289
0.00316197
0.00316197
0.00316436
0.00311758
0.00311673
0.00311676
0.00311908
0.00307312
0.00307249
0.00307246
0.00307479
0.00302946
0.0030289
0.00302886
0.00303127
0.00298642
0.00298607
0.00298599
0.00298822
0.00294367
0.00294324
0.00294312
0.0029456
0.00290153
0.00290088
0.00290099
0.00290332
0.00285893
0.00285904
0.00285876
0.00286132
0.00281752
0.0028172
0.00281712
0.00281947
0.002776
0.00277581
0.00277587
0.00277814
0.0027351
0.00273498
0.00273503
0.00273716
0.00269443
0.00269448
0.00269461
0.00269617
0.0026542
0.00265444
0.00265434
0.00265625
0.00261415
0.00261426
0.00261406
0.00261576
0.0025744
0.00257462
0.00257447
0.00257604
0.00253495
0.00253525
0.00253521
0.00253704
0.00249573
0.00249604
0.00249603
0.00249741
0.00245677
0.00245711
0.00245713
0.00245902
0.00241802
0.00241844
0.00241842
0.00242025
0.00237946
0.00237999
0.00237997
0.00238152
0.00234111
0.00234168
0.00234167
0.00234357
0.00230298
0.00230371
0.00230364
0.00230561
0.00226507
0.0022655
0.00226574
0.00226747
0.00222741
0.00222804
0.00222782
0.00222973
0.0021895
0.00219028
0.00219029
0.00219213
0.00215192
0.00215255
0.00215267
0.00215449
0.00211471
0.00211534
0.00211528
0.00211714
0.0020775
0.00207803
0.00207806
0.00207988
0.00204019
0.00204082
0.00204078
0.0020427
0.00200332
0.00200383
0.00200387
0.00200579
0.00196644
0.00196691
0.0019668
0.0019686
0.00192964
0.00192982
0.00193007
0.00193222
0.00189325
0.00189384
0.00189353
0.00189542
0.00185665
0.00185658
0.00185677
0.00185857
0.00182017
0.00182041
0.00182044
0.00182294
0.00178418
0.00178454
0.00178435
0.00178595
0.00174789
0.00174751
0.0017476
0.0017499
0.00171206
0.00171221
0.0017123
0.00171437
0.00167635
0.00167638
0.00167634
0.00167838
0.00164062
0.00164038
0.00164026
0.00164227
0.0016046
0.0016046
0.00160475
0.0016067
0.00156929
0.00156897
0.00156892
0.00157123
0.00153396
0.00153385
0.00153382
0.00153592
0.00149873
0.00149833
0.00149843
0.00150023
0.00146351
0.00146329
0.0014633
0.00146524
0.00142837
0.00142831
0.00142803
0.00143039
0.00139321
0.00139263
0.00139281
0.00139466
0.00135774
0.00135778
0.00135791
0.00135976
0.00132355
0.00132335
0.00132315
0.00132528
0.00128848
0.00128786
0.0012879
0.00128971
0.00125375
0.00125358
0.00125364
0.00125574
0.00121898
0.00121909
0.0012192
0.00122104
0.00118439
0.00118399
0.00118373
0.00118542
0.00114972
0.00114924
0.00114952
0.00115153
0.00111487
0.00111479
0.00111475
0.00111672
0.00108041
0.00108042
0.00108038
0.00108224
0.00104616
0.00104583
0.00104571
0.00104769
0.00101144
0.0010112
0.00101133
0.00101311
0.000976877
0.000976573
0.000976788
0.000978586
0.000942283
0.000942232
0.000942031
0.000944191
0.000907673
0.000907591
0.000907443
0.000909375
0.000873809
0.000873935
0.000873829
0.00087582
0.000839212
0.000838715
0.000839098
0.000840768
0.000803702
0.00080309
0.000803234
0.00080492
0.000769587
0.000770212
0.000769837
0.000772388
0.000736364
0.00073667
0.000736459
0.000738447
0.000701021
0.000699812
0.000700235
0.000701418
0.000664901
0.000664896
0.00066491
0.000667015
0.000631747
0.00063253
0.000632382
0.000635013
0.000597971
0.000597374
0.000597488
0.000598927
0.000561309
0.00056106
0.000560744
0.000562686
0.000526643
0.000526639
0.000526828
0.000529078
0.000493062
0.000493278
0.000493456
0.000495209
0.000457757
0.000457463
0.000457367
0.00045913
0.000422194
0.000421905
0.00042229
0.000424116
0.000387614
0.00038829
0.000387102
0.000389904
0.000351954
0.000351768
0.000352187
0.00035407
0.000318027
0.000317074
0.000318779
0.000319263
0.000283787
0.000284246
0.0002828
0.000285502
0.000245908
0.000246664
0.000245371
0.000248597
0.000209063
0.000208553
0.000210126
0.000211672
0.000175567
0.000175166
0.00017576
0.000176783
0.000143133
0.000143145
0.000142061
0.000144383
0.000105975
0.000106082
0.000105986
0.000108453
6.75831e-05
6.74131e-05
6.7797e-05
6.93322e-05
3.2739e-05
3.30727e-05
3.31498e-05
3.57998e-05
6.6219e-06
7.56484e-06
7.54674e-06
5.78186e-06
0.00352391
0.0035215
0.00352137
0.00352383
0.00352143
0.00352154
0.00352784
0.00352783
0.00352788
0.00352785
0.00352136
0.00352135
0.00352399
0.00352152
0.0035214
0.00352385
0.00351918
0.00349029
0.00351848
0.00351845
0.00349207
0.00349211
0.0035191
0.00349027
0.00351847
0.00351851
0.00349209
0.00349199
0.00351841
0.00349217
0.00349215
0.00351922
0.00349024
0.00351847
0.00349218
0.00349213
0.00349028
0.00348557
0.00345168
0.00348274
0.00348267
0.00345395
0.0034539
0.00348554
0.00345164
0.00348272
0.00348286
0.00345394
0.00345414
0.00348267
0.00345399
0.00345396
0.00348554
0.00345165
0.00348271
0.00345394
0.00345386
0.00345164
0.00344616
0.00340839
0.00344388
0.00344379
0.00341144
0.00341139
0.00344612
0.00340837
0.00344383
0.00344383
0.00341144
0.00341161
0.00344375
0.00341143
0.0034114
0.00344613
0.00340833
0.00344383
0.00341139
0.00341134
0.00340836
0.00340221
0.00336093
0.00339997
0.00339997
0.00336432
0.00336432
0.0034022
0.00336093
0.00339994
0.0034
0.00336431
0.00336422
0.00339996
0.00336431
0.00336429
0.00340218
0.00336094
0.00340001
0.00336427
0.00336425
0.00336094
0.00335447
0.00331228
0.00335216
0.00335213
0.00331567
0.00331565
0.00335446
0.00331227
0.00335212
0.0033521
0.00331564
0.00331564
0.0033522
0.00331562
0.00331561
0.00335448
0.00331228
0.00335219
0.00331561
0.00331563
0.00331227
0.00330584
0.00326403
0.0033035
0.00330348
0.00326731
0.00326729
0.00330583
0.00326403
0.0033035
0.00330349
0.0032673
0.0032673
0.00330351
0.00326729
0.0032673
0.00330584
0.00326405
0.00330347
0.00326731
0.00326732
0.00326403
0.0032577
0.00321669
0.00325539
0.00325537
0.00321987
0.00321985
0.0032577
0.0032167
0.00325535
0.00325535
0.00321986
0.00321986
0.00325536
0.00321985
0.00321986
0.00325772
0.00321672
0.00325533
0.00321984
0.00321988
0.00321669
0.0032105
0.00317038
0.00320817
0.00320817
0.00317341
0.00317343
0.00321051
0.00317039
0.00320815
0.00320818
0.00317343
0.00317343
0.00320816
0.00317343
0.00317344
0.00321054
0.00317039
0.00320817
0.00317342
0.00317344
0.00317039
0.00316435
0.00312507
0.00316198
0.00316197
0.00312799
0.003128
0.00316435
0.00312501
0.00316199
0.00316198
0.00312799
0.00312797
0.00316199
0.00312799
0.003128
0.00316433
0.00312504
0.00316201
0.00312798
0.003128
0.00312502
0.00311915
0.00308051
0.00311677
0.00311674
0.00308343
0.00308349
0.00311908
0.00308065
0.00311679
0.00311679
0.00308343
0.00308344
0.00311673
0.00308348
0.00308347
0.00311916
0.00308064
0.00311674
0.00308344
0.00308349
0.00308056
0.00307475
0.00303689
0.00307239
0.00307248
0.00303962
0.00303969
0.00307486
0.00303692
0.0030724
0.00307246
0.00303965
0.00303971
0.00307244
0.0030397
0.00303968
0.00307484
0.00303693
0.00307244
0.00303969
0.00303968
0.00303697
0.00303134
0.00299395
0.00302879
0.0030289
0.00299651
0.00299661
0.00303117
0.0029939
0.0030288
0.00302885
0.00299651
0.00299656
0.0030289
0.00299664
0.00299661
0.00303127
0.00299391
0.00302888
0.00299653
0.00299658
0.00299382
0.00298849
0.00295121
0.00298579
0.00298606
0.0029537
0.00295402
0.00298827
0.00295131
0.0029858
0.00298597
0.00295368
0.00295391
0.00298599
0.002954
0.00295403
0.00298833
0.00295108
0.00298603
0.00295396
0.00295408
0.0029511
0.00294575
0.00290862
0.00294305
0.00294326
0.00291164
0.0029114
0.00294575
0.00290872
0.00294304
0.00294317
0.00291172
0.0029115
0.00294317
0.0029114
0.00291156
0.00294558
0.00290891
0.00294311
0.00291147
0.00291164
0.0029087
0.0029033
0.00286596
0.00290077
0.00290089
0.00286961
0.00286952
0.00290327
0.00286672
0.00290079
0.002901
0.00286968
0.00286938
0.00290075
0.00286953
0.00286949
0.00290345
0.00286676
0.00290074
0.00286941
0.00286961
0.00286677
0.00286064
0.00282552
0.00285876
0.00285905
0.00282796
0.00282772
0.00286131
0.00282499
0.00285878
0.00285879
0.00282794
0.00282774
0.00285883
0.0028277
0.00282762
0.00286134
0.00282482
0.00285876
0.00282771
0.00282765
0.00282487
0.00281998
0.00278317
0.00281766
0.00281719
0.00278596
0.00278616
0.00281953
0.00278351
0.0028177
0.00281709
0.00278589
0.00278643
0.00281708
0.00278616
0.00278629
0.00281951
0.00278339
0.00281711
0.0027865
0.00278632
0.00278347
0.00277795
0.00274245
0.00277576
0.00277579
0.00274539
0.00274544
0.00277822
0.00274221
0.00277578
0.00277585
0.00274532
0.00274547
0.00277576
0.00274539
0.00274554
0.00277803
0.00274228
0.00277593
0.00274548
0.00274557
0.0027424
0.00273721
0.00270165
0.00273512
0.002735
0.00270462
0.00270461
0.00273698
0.00270161
0.0027352
0.00273503
0.00270469
0.00270477
0.00273502
0.00270453
0.00270458
0.00273706
0.00270149
0.00273518
0.0027047
0.00270458
0.00270108
0.00269646
0.00266122
0.00269461
0.0026945
0.00266421
0.00266436
0.00269645
0.00266106
0.00269454
0.00269459
0.00266426
0.00266425
0.00269461
0.00266439
0.00266441
0.00269641
0.00266144
0.00269452
0.00266433
0.00266443
0.00266197
0.00265608
0.0026211
0.00265447
0.00265442
0.00262425
0.00262419
0.00265614
0.00262112
0.00265439
0.00265434
0.00262429
0.00262426
0.00265462
0.00262418
0.00262446
0.00265617
0.00262107
0.00265454
0.00262421
0.00262443
0.00262062
0.00261599
0.00258127
0.00261438
0.00261432
0.00258455
0.00258443
0.00261585
0.0025812
0.00261425
0.00261414
0.00258459
0.00258446
0.00261418
0.0025844
0.00258428
0.0026159
0.00258131
0.00261409
0.00258437
0.0025842
0.00258135
0.00257625
0.00254174
0.00257464
0.00257467
0.00254509
0.00254484
0.00257629
0.00254155
0.00257455
0.00257451
0.00254507
0.00254504
0.0025744
0.00254486
0.00254533
0.0025762
0.00254189
0.00257435
0.00254502
0.00254529
0.00254203
0.00253676
0.00250275
0.00253519
0.00253526
0.00250599
0.00250591
0.00253665
0.00250272
0.00253517
0.00253523
0.00250595
0.00250583
0.00253536
0.00250587
0.00250582
0.00253688
0.00250264
0.0025353
0.0025058
0.0025058
0.0025024
0.00249779
0.00246373
0.00249609
0.00249607
0.0024669
0.0024668
0.00249766
0.00246332
0.0024961
0.00249606
0.00246687
0.00246685
0.00249603
0.00246679
0.00246696
0.00249765
0.00246383
0.00249599
0.00246683
0.00246697
0.00246407
0.00245882
0.00242514
0.00245716
0.00245715
0.00242819
0.0024282
0.0024586
0.00242538
0.00245715
0.00245717
0.00242817
0.00242807
0.00245723
0.0024282
0.00242816
0.00245892
0.00242493
0.00245721
0.00242809
0.00242816
0.00242501
0.00242022
0.00238661
0.00241854
0.00241848
0.00238956
0.00238961
0.00242026
0.00238683
0.00241849
0.00241843
0.00238963
0.0023896
0.00241854
0.00238965
0.00238949
0.00242003
0.00238688
0.00241854
0.00238962
0.00238951
0.00238643
0.00238172
0.00234856
0.00238006
0.00237998
0.00235116
0.00235118
0.002382
0.00234828
0.00238003
0.00237995
0.00235122
0.00235127
0.00237991
0.00235122
0.00235123
0.00238184
0.00234852
0.00237992
0.00235126
0.00235124
0.00234861
0.00234354
0.00231025
0.00234162
0.00234164
0.00231296
0.00231317
0.00234339
0.0023104
0.00234167
0.00234163
0.00231302
0.00231303
0.00234169
0.00231317
0.00231312
0.00234365
0.00231014
0.00234172
0.00231306
0.00231313
0.00231043
0.00230545
0.00227249
0.00230346
0.00230369
0.00227508
0.002275
0.00230543
0.00227239
0.00230352
0.00230362
0.00227509
0.00227519
0.00230355
0.00227502
0.00227511
0.00230531
0.00227265
0.00230358
0.00227519
0.00227508
0.00227245
0.00226752
0.00223495
0.00226572
0.00226551
0.00223754
0.00223743
0.00226751
0.00223472
0.00226566
0.00226574
0.00223747
0.00223728
0.00226566
0.00223738
0.00223738
0.0022676
0.00223469
0.00226565
0.00223727
0.00223739
0.0022346
0.00223012
0.00219689
0.00222805
0.00222808
0.00219946
0.00219979
0.00222984
0.00219706
0.00222803
0.00222782
0.00219959
0.00219962
0.00222791
0.00219976
0.00219966
0.00222983
0.00219691
0.00222794
0.00219964
0.00219962
0.00219703
0.00219192
0.0021593
0.00218999
0.00219031
0.0021618
0.00216186
0.00219213
0.00215935
0.00219013
0.00219027
0.00216191
0.00216207
0.00219025
0.00216192
0.00216209
0.00219201
0.00215946
0.00219021
0.00216207
0.00216207
0.00215939
0.00215444
0.00212203
0.0021525
0.00215246
0.00212468
0.0021246
0.00215443
0.00212205
0.00215257
0.00215266
0.00212465
0.00212459
0.00215268
0.00212464
0.00212463
0.00215456
0.00212204
0.00215269
0.00212459
0.00212463
0.00212204
0.00211716
0.00208486
0.0021154
0.00211535
0.00208745
0.00208743
0.00211722
0.00208473
0.00211534
0.00211528
0.00208742
0.00208739
0.0021153
0.00208739
0.00208736
0.00211717
0.00208475
0.00211529
0.00208739
0.00208734
0.00208475
0.00207998
0.00204757
0.0020781
0.00207806
0.00205005
0.0020501
0.00207982
0.00204768
0.00207809
0.00207806
0.00205009
0.00205007
0.00207805
0.00205007
0.00205007
0.00207986
0.00204754
0.00207803
0.00205005
0.00205006
0.00204756
0.00204265
0.00201059
0.00204073
0.00204084
0.00201303
0.00201304
0.00204279
0.0020105
0.00204078
0.00204078
0.00201304
0.0020131
0.00204079
0.00201308
0.00201312
0.00204268
0.00201069
0.00204079
0.00201312
0.00201313
0.00201067
0.00200579
0.00197374
0.00200385
0.0020038
0.00197621
0.00197617
0.00200568
0.00197382
0.00200387
0.00200387
0.00197617
0.00197607
0.00200389
0.00197614
0.001976
0.00200582
0.00197353
0.00200389
0.00197604
0.00197595
0.00197346
0.00196879
0.0019367
0.00196688
0.00196693
0.00193908
0.00193899
0.00196889
0.00193651
0.00196687
0.00196678
0.00193909
0.00193918
0.00196671
0.001939
0.00193922
0.00196866
0.00193692
0.00196669
0.00193921
0.00193926
0.00193699
0.00193191
0.00190051
0.00192995
0.0019298
0.00190275
0.00190282
0.00193172
0.00190068
0.00192995
0.00193007
0.00190277
0.00190269
0.00193019
0.00190282
0.00190281
0.00193211
0.0019003
0.00193021
0.0019027
0.00190285
0.00190041
0.00189568
0.00186359
0.00189367
0.00189385
0.00186598
0.00186602
0.00189591
0.00186348
0.00189367
0.00189351
0.00186596
0.00186597
0.0018935
0.00186601
0.00186563
0.00189545
0.00186371
0.00189353
0.00186596
0.00186555
0.0018633
0.00185872
0.00182729
0.00185672
0.00185659
0.00182943
0.00182922
0.00185848
0.00182714
0.00185673
0.00185681
0.00182944
0.00182942
0.00185657
0.00182922
0.00182975
0.00185883
0.00182722
0.00185649
0.00182944
0.00182977
0.00182772
0.00182252
0.00179114
0.00182044
0.00182039
0.00179339
0.0017937
0.00182251
0.00179157
0.00182044
0.00182037
0.00179337
0.00179345
0.0018208
0.00179373
0.00179326
0.00182249
0.00179131
0.00182084
0.00179348
0.00179327
0.00179086
0.00178627
0.00175475
0.00178427
0.00178451
0.00175686
0.00175664
0.00178663
0.00175432
0.00178423
0.00178436
0.0017569
0.00175672
0.00178396
0.00175665
0.00175669
0.00178641
0.00175442
0.00178396
0.00175667
0.00175659
0.00175461
0.00174999
0.00171897
0.00174786
0.00174753
0.00172113
0.00172104
0.00174956
0.00171906
0.00174792
0.00174764
0.00172106
0.00172108
0.00174785
0.00172101
0.00172128
0.00174966
0.0017191
0.00174774
0.00172108
0.00172133
0.00171915
0.00171417
0.00168303
0.00171215
0.00171227
0.00168506
0.0016853
0.00171433
0.00168319
0.00171209
0.00171227
0.00168516
0.00168534
0.00171228
0.0016854
0.00168527
0.00171438
0.00168317
0.00171241
0.00168546
0.00168538
0.00168317
0.0016783
0.00164735
0.00167618
0.0016762
0.00164952
0.00164932
0.00167834
0.00164725
0.00167621
0.00167624
0.00164948
0.00164916
0.00167626
0.00164925
0.00164923
0.00167829
0.00164711
0.00167634
0.0016491
0.00164913
0.00164708
0.00164251
0.00161139
0.00164048
0.0016405
0.00161342
0.00161366
0.00164252
0.00161154
0.00164051
0.00164035
0.00161338
0.00161375
0.00164027
0.00161361
0.00161345
0.00164241
0.00161165
0.00164014
0.00161369
0.00161335
0.00161142
0.00160666
0.00157594
0.00160457
0.00160459
0.00157798
0.0015777
0.00160669
0.00157574
0.00160445
0.00160476
0.00157807
0.00157772
0.00160459
0.00157776
0.00157801
0.00160684
0.00157574
0.0016045
0.00157785
0.00157806
0.00157597
0.00157117
0.00154046
0.00156909
0.00156893
0.00154255
0.00154265
0.00157105
0.00154063
0.00156922
0.00156885
0.0015425
0.00154265
0.00156913
0.00154269
0.00154272
0.00157102
0.00154054
0.00156927
0.00154256
0.00154277
0.00154064
0.00153575
0.00150524
0.00153373
0.00153381
0.00150725
0.00150729
0.00153587
0.00150512
0.00153361
0.00153385
0.00150729
0.00150717
0.0015339
0.00150723
0.00150704
0.00153581
0.00150519
0.00153393
0.00150728
0.00150715
0.00150501
0.00150048
0.00146994
0.00149844
0.0014984
0.00147203
0.00147203
0.00150039
0.00147
0.0014985
0.00149836
0.00147201
0.00147215
0.00149811
0.00147199
0.00147192
0.00150047
0.00147009
0.00149817
0.00147209
0.00147174
0.00146988
0.00146523
0.00143498
0.00146321
0.0014633
0.00143695
0.00143707
0.0014653
0.00143504
0.00146316
0.00146339
0.00143694
0.00143696
0.00146332
0.00143712
0.00143731
0.00146536
0.00143479
0.00146311
0.0014369
0.00143717
0.00143517
0.00143028
0.00139965
0.00142826
0.00142823
0.00140182
0.00140153
0.00143029
0.00139946
0.00142827
0.00142804
0.0014018
0.00140147
0.00142845
0.00140153
0.0014014
0.00143004
0.00139953
0.00142841
0.00140157
0.00140167
0.00139943
0.00139483
0.0013641
0.00139283
0.00139269
0.00136607
0.0013664
0.00139468
0.00136437
0.00139279
0.00139271
0.00136613
0.00136661
0.00139246
0.00136637
0.00136636
0.00139481
0.00136454
0.00139267
0.00136661
0.00136639
0.0013644
0.00135946
0.00133004
0.00135744
0.00135776
0.00133204
0.00133194
0.00135972
0.00132998
0.00135752
0.00135792
0.00133209
0.00133185
0.00135785
0.00133207
0.0013321
0.00135983
0.00132984
0.00135782
0.00133188
0.00133201
0.00133002
0.00132542
0.00129489
0.00132349
0.00132328
0.00129714
0.00129689
0.0013253
0.00129471
0.0013235
0.00132317
0.00129697
0.00129682
0.0013233
0.00129672
0.00129657
0.00132516
0.00129468
0.00132322
0.00129671
0.00129656
0.00129442
0.00129009
0.00125981
0.00128819
0.00128804
0.00126182
0.00126203
0.00128995
0.00125996
0.00128801
0.00128798
0.00126187
0.00126196
0.00128776
0.00126205
0.00126224
0.0012899
0.00125996
0.00128778
0.00126207
0.00126229
0.00126028
0.00125517
0.00122561
0.00125327
0.00125347
0.00122759
0.00122765
0.00125534
0.0012257
0.00125337
0.00125348
0.00122773
0.0012279
0.00125388
0.00122783
0.00122799
0.0012554
0.00122594
0.00125392
0.00122798
0.00122802
0.00122589
0.00122094
0.0011908
0.00121891
0.00121896
0.00119285
0.00119284
0.00122102
0.00119075
0.00121904
0.00121919
0.00119283
0.00119268
0.00121902
0.00119273
0.00119219
0.00122122
0.00119047
0.00121904
0.00119248
0.00119216
0.0011901
0.00118611
0.00115608
0.00118423
0.00118417
0.00115827
0.0011581
0.00118602
0.00115591
0.00118411
0.00118391
0.00115812
0.00115805
0.00118355
0.00115792
0.00115818
0.00118575
0.001156
0.0011835
0.00115804
0.00115814
0.00115615
0.00115133
0.0011211
0.00114945
0.00114931
0.00112312
0.00112315
0.0011512
0.00112123
0.00114937
0.00114939
0.00112318
0.00112318
0.00114963
0.00112335
0.00112355
0.00115134
0.00112124
0.00114961
0.00112341
0.00112361
0.00112146
0.00111644
0.00108697
0.00111454
0.0011146
0.00108897
0.00108902
0.00111658
0.00108701
0.0011146
0.00111457
0.00108899
0.00108908
0.00111482
0.00108905
0.00108892
0.00111658
0.00108703
0.00111487
0.00108898
0.00108886
0.00108688
0.00108233
0.00105244
0.00108038
0.00108046
0.00105447
0.00105456
0.00108235
0.00105244
0.0010804
0.00108054
0.00105447
0.00105445
0.00108033
0.00105446
0.00105448
0.00108236
0.00105232
0.00108027
0.00105436
0.00105446
0.00105241
0.00104776
0.00101786
0.00104586
0.00104591
0.00101997
0.00101989
0.00104776
0.00101785
0.00104585
0.00104574
0.00101996
0.00101984
0.00104581
0.0010199
0.00101983
0.00104763
0.00101786
0.00104582
0.00101992
0.00101988
0.00101779
0.00101313
0.000983278
0.00101126
0.00101117
0.000985268
0.000985147
0.00101311
0.000983133
0.00101125
0.00101124
0.000985264
0.000985402
0.00101116
0.00098517
0.000985248
0.00101319
0.000983372
0.00101122
0.000985408
0.000985258
0.000983253
0.000978634
0.000948862
0.000976712
0.000976589
0.000950897
0.000950905
0.000978486
0.000948887
0.000976713
0.000976822
0.000950927
0.000950885
0.000976671
0.000950848
0.000950948
0.000978701
0.000948784
0.000976656
0.00095077
0.000950905
0.000948909
0.000944108
0.000914035
0.000942163
0.000942259
0.000916044
0.000916083
0.000944186
0.000914092
0.000942182
0.000942104
0.000916013
0.000915855
0.000942282
0.000916191
0.000916077
0.000944015
0.000913901
0.00094225
0.00091597
0.000916086
0.000914033
0.000909397
0.000880173
0.000907513
0.000907493
0.00088216
0.000882344
0.000909429
0.000880409
0.000907477
0.000907335
0.000882131
0.000882224
0.000907462
0.000882322
0.000882275
0.000909284
0.000880278
0.000907469
0.000882224
0.00088228
0.000880371
0.000875543
0.000845758
0.000873664
0.000873976
0.000847804
0.000847777
0.00087583
0.000845652
0.000873626
0.000873827
0.00084781
0.00084797
0.000873944
0.000847743
0.000847805
0.000875702
0.000845885
0.000873971
0.000847962
0.000847823
0.000845699
0.000841022
0.000810368
0.000839058
0.000838756
0.000812385
0.000811776
0.000840756
0.000809724
0.000839115
0.000839153
0.000812521
0.000812264
0.000838725
0.000811747
0.000811617
0.000841087
0.000810096
0.000838754
0.000812119
0.00081164
0.000809593
0.000805508
0.000775894
0.00080351
0.000803084
0.000777844
0.000778174
0.000805007
0.000776392
0.000803605
0.00080334
0.000777709
0.000777801
0.000803012
0.00077826
0.000778557
0.000805237
0.000776016
0.00080301
0.000777945
0.000778494
0.000776731
0.000771399
0.000742825
0.000769562
0.00077009
0.000744804
0.000745355
0.000772009
0.000743359
0.000769424
0.000769657
0.000744734
0.000744983
0.000770582
0.00074545
0.000745416
0.000771602
0.000743102
0.00077051
0.000745123
0.000745385
0.000743316
0.000738212
0.000707746
0.000736318
0.000736633
0.000709859
0.000709297
0.000738568
0.000706985
0.00073628
0.000736387
0.000709918
0.00070957
0.000736445
0.000709104
0.000708676
0.000738387
0.000707337
0.00073644
0.000709399
0.000708774
0.000706456
0.000702788
0.000671509
0.000700779
0.000700072
0.000673534
0.000673263
0.000701932
0.000671332
0.000700881
0.000700483
0.000673639
0.000673555
0.000699429
0.000673196
0.000673305
0.000702354
0.000671467
0.000699547
0.000673405
0.000673331
0.000671448
0.000666692
0.000637998
0.000664705
0.000664817
0.000639792
0.000640334
0.000666786
0.000638767
0.000664742
0.000664923
0.000639728
0.000640127
0.000665175
0.000640685
0.000641287
0.000666825
0.00063854
0.000665163
0.000640492
0.000641264
0.000639552
0.000633648
0.000604835
0.000631783
0.000632199
0.000606866
0.000606585
0.000634323
0.000604374
0.000631717
0.000631999
0.000606867
0.000606691
0.000633016
0.00060647
0.00060614
0.000634127
0.000604532
0.000632996
0.000606591
0.000606141
0.000603953
0.000599924
0.000568015
0.00059794
0.000597588
0.000570201
0.000570181
0.000599446
0.000567983
0.000597964
0.000597722
0.000570185
0.000570018
0.000596882
0.000570002
0.000569564
0.00059959
0.000567718
0.000596868
0.000569785
0.000569513
0.000567446
0.000563038
0.00053307
0.000561089
0.000561167
0.000534983
0.000534964
0.000563068
0.000533087
0.000561041
0.000560868
0.000534959
0.000534886
0.000560804
0.000535053
0.000535418
0.000562755
0.000533086
0.000560757
0.000535024
0.000535433
0.000533579
0.000528489
0.000499676
0.000526571
0.000526507
0.000501514
0.000501552
0.000528504
0.000499783
0.000526593
0.000526654
0.000501612
0.000501959
0.000527117
0.000501697
0.00050192
0.000528632
0.000500124
0.000527173
0.000502111
0.000502022
0.00049999
0.00049506
0.00046461
0.000493064
0.000493201
0.000466764
0.000466789
0.000495203
0.000464575
0.000493112
0.000493387
0.000466672
0.000466518
0.000493176
0.000466646
0.000466249
0.000495392
0.00046434
0.000493241
0.000466383
0.000466189
0.000464069
0.000459657
0.000428745
0.000457701
0.000457609
0.000430693
0.000430451
0.000459541
0.000428426
0.000457637
0.000457509
0.000430827
0.000430987
0.000457199
0.000430457
0.000430772
0.000459433
0.000429023
0.000457157
0.000430944
0.000430808
0.000428818
0.000424023
0.000394493
0.000422012
0.000421849
0.000396471
0.000396754
0.000423777
0.000394951
0.000422153
0.000422307
0.000396346
0.000395931
0.00042217
0.000396832
0.000396661
0.000424289
0.000393935
0.000422217
0.000395975
0.000396452
0.000394628
0.000389728
0.000358692
0.000387823
0.000388218
0.000360863
0.000360996
0.000390278
0.000358848
0.000387569
0.000387027
0.000360704
0.000360562
0.000388016
0.000361001
0.000361086
0.000389091
0.000358614
0.000387751
0.000360701
0.000361058
0.000359012
0.000353795
0.000324202
0.000351838
0.000351771
0.000325867
0.000325333
0.000353808
0.000323381
0.000351821
0.000352089
0.000326367
0.000327329
0.00035199
0.000325295
0.000325593
0.000353987
0.00032546
0.000352096
0.00032716
0.00032597
0.00032382
0.000319736
0.000290726
0.000317647
0.000317127
0.000292811
0.000292863
0.00031891
0.000290951
0.000318144
0.000319004
0.000292687
0.000292138
0.000317225
0.000292761
0.000292287
0.000320848
0.00029
0.00031756
0.000292089
0.000292167
0.000290258
0.000285807
0.000253234
0.000283974
0.000284331
0.000255699
0.000256304
0.000286273
0.000254143
0.000283583
0.000282787
0.000255175
0.000254342
0.000283671
0.000256353
0.000256056
0.000284926
0.000252228
0.000283365
0.000254556
0.000255679
0.000253718
0.000248032
0.000216124
0.000246117
0.000246571
0.000217934
0.000217519
0.000248822
0.000215482
0.000245671
0.000245142
0.000218224
0.00021875
0.000246615
0.000217704
0.000218495
0.000247255
0.000216873
0.000246333
0.000218858
0.000218722
0.000216624
0.000211254
0.000181719
0.000208971
0.000208407
0.00018343
0.000183242
0.000210549
0.000181392
0.000209404
0.000210075
0.000183779
0.000184421
0.00020937
0.000183177
0.000183159
0.000212098
0.000182466
0.000209712
0.000184218
0.000183409
0.000181358
0.000177297
0.000149478
0.000175336
0.000175306
0.000151544
0.000151743
0.00017703
0.000149717
0.000175596
0.000176035
0.000151306
0.000150761
0.000174847
0.000151478
0.000150741
0.000177851
0.00014865
0.000174961
0.000150563
0.000150501
0.000148779
0.000144804
0.000113191
0.00014313
0.000143278
0.000115496
0.000115586
0.00014508
0.000113388
0.000142793
0.000142101
0.000115316
0.000115112
0.000142678
0.000115718
0.000116004
0.000143969
0.000113035
0.000142414
0.00011535
0.000115939
0.000113761
0.000107974
7.49627e-05
0.000105935
0.000105981
7.70147e-05
7.68603e-05
0.000108122
7.46615e-05
0.000105842
0.000105747
7.7105e-05
7.71807e-05
0.000106339
7.67887e-05
7.66995e-05
0.000107882
7.50782e-05
0.000106347
7.71181e-05
7.68115e-05
7.44985e-05
6.9807e-05
3.87671e-05
6.76261e-05
6.7457e-05
4.0687e-05
4.09665e-05
6.94963e-05
3.92471e-05
6.7754e-05
6.78968e-05
4.07725e-05
4.11776e-05
6.72631e-05
4.12164e-05
4.17944e-05
6.99239e-05
3.939e-05
6.73544e-05
4.13647e-05
4.1822e-05
4.0238e-05
3.39831e-05
8.59832e-06
3.21789e-05
3.26372e-05
1.15746e-05
1.20201e-05
3.46244e-05
9.13162e-06
3.22379e-05
3.28026e-05
1.15873e-05
1.20359e-05
3.4002e-05
1.22509e-05
1.24713e-05
3.47425e-05
9.12375e-06
3.40127e-05
1.22513e-05
1.24608e-05
9.4214e-06
5.63344e-06
7.50942e-06
7.81387e-06
5.87978e-06
7.45823e-06
7.7894e-06
6.59924e-06
6.58612e-06
6.12411e-06
7.56322e-06
5.84359e-06
7.515e-06
0.00353094
0.0035335
0.00353224
0.00353239
0.00355937
0.00353334
0.00356285
0.0035337
0.0035597
0.00353355
0.00353376
0.0035631
0.00354441
0.00356615
0.00356646
0.00350356
0.00351718
0.00352111
0.0034959
0.00349408
0.00349927
0.00350352
0.00351723
0.00352094
0.00349582
0.00351952
0.00351955
0.00351954
0.00349321
0.00349325
0.0034932
0.00349324
0.00350327
0.00351482
0.00352002
0.00351087
0.00352213
0.00350037
0.00351111
0.00349403
0.00349913
0.0035033
0.0035201
0.00351498
0.00351088
0.00352224
0.00351111
0.00350044
0.00352086
0.00352093
0.00350816
0.00350033
0.00350041
0.00347614
0.00349042
0.00349028
0.00347417
0.0034877
0.00347321
0.00347607
0.0034904
0.00349021
0.0034742
0.00348419
0.00348415
0.00348418
0.0034558
0.00345583
0.00345579
0.00345581
0.00347393
0.00348892
0.00348263
0.0034733
0.00348736
0.00347446
0.00347329
0.00348751
0.00347334
0.00347394
0.00348265
0.00348888
0.0034733
0.00348737
0.00347323
0.00347444
0.00349066
0.00349066
0.00347166
0.00347487
0.00347489
0.00343369
0.00344842
0.00344934
0.0034324
0.00344728
0.00343153
0.00343368
0.00344844
0.00344929
0.00343239
0.00344575
0.00344572
0.00344572
0.00341316
0.0034132
0.00341315
0.00341318
0.00343241
0.00344804
0.00344379
0.00343345
0.00344694
0.00343283
0.00343336
0.00344739
0.00343162
0.00343242
0.0034438
0.00344793
0.00343339
0.00344693
0.00343336
0.00343278
0.00344877
0.00344875
0.00343066
0.00343275
0.00343269
0.00338738
0.00340381
0.00340526
0.00338597
0.00340315
0.0033855
0.0033873
0.00340384
0.00340515
0.00338592
0.00340167
0.00340162
0.00340166
0.00336579
0.00336582
0.00336581
0.00336582
0.00338659
0.00340364
0.00339996
0.0033883
0.00340305
0.00338669
0.00338827
0.00340287
0.0033857
0.00338657
0.00339995
0.00340357
0.00338824
0.00340304
0.00338826
0.00338667
0.00340393
0.00340389
0.00338495
0.00338609
0.00338613
0.00333854
0.00335563
0.00335694
0.00333733
0.00335524
0.003337
0.00333853
0.00335561
0.00335693
0.00333733
0.00335364
0.00335364
0.00335364
0.00331696
0.00331698
0.00331697
0.00331697
0.00333814
0.00335562
0.00335219
0.00333999
0.0033553
0.00333808
0.00334006
0.00335529
0.00333698
0.00333812
0.00335221
0.00335564
0.00333995
0.00335528
0.00334
0.00333803
0.00335574
0.00335571
0.00333661
0.00333745
0.00333747
0.00328945
0.00330675
0.00330774
0.00328858
0.00330648
0.00328838
0.00328941
0.00330675
0.00330774
0.00328858
0.0033048
0.00330479
0.00330478
0.0032685
0.00326852
0.00326851
0.00326851
0.00328938
0.0033068
0.00330355
0.00329137