/*--------------------------------*- C++ -*----------------------------------*\
| =========                 |                                                 |
| \\      /  F ield         | OpenFOAM: The Open Source CFD Toolbox           |
|  \\    /   O peration     | Version:  v2006                                 |
|   \\  /    A nd           | Website:  www.openfoam.com                      |
|    \\/     M anipulation  |                                                 |
\*---------------------------------------------------------------------------*/
FoamFile
{
    version     2.0;
    format      ascii;
    class       volScalarField;
    location    "125";
    object      epsilon;
}
// * * * * * * * * * * * * * * * * * * * * * * * * * * * * * * * * * * * * * //

dimensions      [0 2 -3 0 0 0 0];


internalField   nonuniform List<scalar> 
171728
(
2.41558e-07
3.84504e-07
1.30215e-07
2.54206e-07
2.5422e-07
4.13236e-07
1.2962e-07
2.68589e-07
2.68606e-07
4.43848e-07
1.29379e-07
2.83749e-07
2.83765e-07
4.74531e-07
1.29507e-07
2.98308e-07
2.98321e-07
5.01541e-07
1.2909e-07
3.08697e-07
3.08718e-07
5.19728e-07
1.26705e-07
3.11804e-07
3.11829e-07
5.26334e-07
3.84458e-07
4.06531e-07
2.41635e-07
2.50835e-07
2.50926e-07
4.06598e-07
4.1316e-07
4.36798e-07
2.54273e-07
2.54324e-07
2.64969e-07
2.65019e-07
4.13187e-07
4.36818e-07
2.54227e-07
2.54334e-07
2.64912e-07
2.65031e-07
2.54293e-07
2.64892e-07
2.6499e-07
4.132e-07
4.36842e-07
2.54247e-07
2.64911e-07
2.64937e-07
4.36892e-07
4.43756e-07
4.6742e-07
2.68668e-07
2.68717e-07
2.80026e-07
2.80075e-07
4.4379e-07
4.67451e-07
2.68604e-07
2.68728e-07
2.79953e-07
2.80088e-07
2.68688e-07
2.79936e-07
2.80045e-07
4.43803e-07
4.67472e-07
2.68631e-07
2.79953e-07
2.79983e-07
4.67529e-07
4.74426e-07
4.95406e-07
2.83841e-07
2.83889e-07
2.94958e-07
2.95002e-07
4.74471e-07
4.95424e-07
2.83763e-07
2.83902e-07
2.94871e-07
2.9502e-07
2.83859e-07
2.94857e-07
2.94978e-07
4.74481e-07
4.95457e-07
2.83793e-07
2.94872e-07
2.94906e-07
4.95532e-07
5.01413e-07
5.15482e-07
2.98408e-07
2.98453e-07
3.06894e-07
3.06938e-07
5.01448e-07
5.15507e-07
2.98316e-07
2.9847e-07
3.06797e-07
3.06956e-07
2.98431e-07
3.06783e-07
3.0692e-07
5.01469e-07
5.15538e-07
2.98354e-07
3.06803e-07
3.06838e-07
5.15622e-07
5.19589e-07
5.24028e-07
3.08811e-07
3.08854e-07
3.11661e-07
3.117e-07
5.19623e-07
5.24047e-07
3.0871e-07
3.08871e-07
3.11561e-07
3.11723e-07
3.08835e-07
3.11543e-07
3.11682e-07
5.19648e-07
5.24089e-07
3.08752e-07
3.11569e-07
3.11599e-07
5.24151e-07
5.26209e-07
3.11921e-07
3.11959e-07
3.12005e-07
5.26241e-07
5.25463e-07
3.11819e-07
3.11982e-07
3.11942e-07
3.11843e-07
3.11968e-07
5.26273e-07
3.11858e-07
3.11888e-07
5.25526e-07
1.84377e-05
1.84301e-05
1.24234e-06
2.86614e-06
1.59989e-07
2.44514e-07
2.88693e-06
1.60522e-07
1.21523e-06
5.16613e-06
5.16775e-06
3.91452e-07
5.17619e-06
5.17785e-06
3.81656e-06
8.93003e-06
3.79601e-06
8.93235e-06
1.84113e-05
1.84035e-05
3.81693e-06
8.93123e-06
3.79603e-06
8.93357e-06
1.01636e-07
1.09853e-07
1.01637e-07
1.29721e-07
1.29726e-07
1.29731e-07
1.29731e-07
1.32203e-06
2.92785e-06
1.62624e-07
2.57688e-07
1.29638e-06
2.94567e-06
1.63503e-07
1.84125e-05
1.84047e-05
1.32206e-06
1.62627e-07
1.13715e-06
2.57704e-07
5.43723e-07
1.63505e-07
2.94574e-06
5.19452e-06
5.19618e-06
4.21592e-07
5.20195e-06
5.20363e-06
3.85772e-06
8.93415e-06
3.84635e-06
8.9375e-06
1.83868e-05
1.83831e-05
3.85805e-06
8.93537e-06
3.84621e-06
8.9387e-06
1.29624e-07
1.29629e-07
1.2963e-07
1.29413e-07
1.29418e-07
1.29424e-07
1.29424e-07
1.39571e-06
2.9789e-06
1.66578e-07
2.72333e-07
1.37282e-06
2.99346e-06
1.67706e-07
1.8388e-05
1.83843e-05
1.39574e-06
1.66583e-07
2.97899e-06
2.72351e-07
1.37289e-06
1.67711e-07
2.99353e-06
5.21556e-06
5.21721e-06
4.52236e-07
5.22285e-06
5.22452e-06
3.87315e-06
8.94183e-06
3.8705e-06
8.94224e-06
1.83686e-05
1.83617e-05
3.87334e-06
8.94304e-06
3.8705e-06
8.94346e-06
1.29383e-07
1.29389e-07
1.29389e-07
1.29456e-07
1.29461e-07
1.29468e-07
1.29468e-07
1.45506e-06
3.02096e-06
1.71304e-07
2.87527e-07
1.43789e-06
3.03164e-06
1.7257e-07
1.83698e-05
1.83629e-05
1.45508e-06
1.71311e-07
3.02106e-06
2.87544e-07
1.43794e-06
1.72577e-07
3.03171e-06
5.23411e-06
5.23574e-06
4.82284e-07
5.23638e-06
5.23801e-06
3.87315e-06
8.93818e-06
3.87445e-06
8.93493e-06
1.83442e-05
1.83374e-05
3.87323e-06
8.93942e-06
3.87455e-06
8.93618e-06
1.29512e-07
1.29519e-07
1.2952e-07
1.29394e-07
1.294e-07
1.29407e-07
1.29408e-07
1.49286e-06
3.04896e-06
1.76343e-07
3.01505e-07
1.48353e-06
3.05378e-06
1.77463e-07
1.83453e-05
1.83385e-05
1.49289e-06
1.7635e-07
3.04906e-06
3.01521e-07
1.48358e-06
1.77471e-07
3.05387e-06
5.23917e-06
5.24079e-06
5.06817e-07
5.23894e-06
5.24055e-06
3.86646e-06
8.92567e-06
3.86998e-06
8.92023e-06
1.83188e-05
1.83116e-05
3.86656e-06
8.92693e-06
3.87e-06
8.92149e-06
1.29091e-07
1.29102e-07
1.29103e-07
1.2741e-07
1.27424e-07
1.27423e-07
1.27424e-07
1.50901e-06
3.05912e-06
1.79709e-07
3.10087e-07
1.5062e-06
3.05809e-06
1.7999e-07
1.83199e-05
1.83127e-05
1.50901e-06
1.79719e-07
3.05924e-06
3.10111e-07
1.50625e-06
1.80001e-07
3.05819e-06
5.23685e-06
5.2385e-06
5.21301e-07
5.23319e-06
5.23486e-06
3.85807e-06
8.90973e-06
3.86195e-06
8.90561e-06
1.82951e-05
1.82907e-05
3.85816e-06
8.91099e-06
3.86198e-06
8.90687e-06
1.26695e-07
1.26718e-07
1.26718e-07
1.24815e-07
1.248e-07
1.51178e-06
3.05565e-06
1.79757e-07
3.1189e-07
1.51222e-06
3.05246e-06
1.79263e-07
1.82961e-05
1.82918e-05
1.5118e-06
1.79768e-07
3.05576e-06
3.11917e-07
1.51225e-06
1.79277e-07
3.05257e-06
5.22772e-06
5.22936e-06
5.25258e-07
5.22354e-06
5.22515e-06
5.16753e-06
5.16606e-06
3.91402e-07
5.17762e-06
5.17617e-06
1.84362e-05
1.84286e-05
1.84172e-05
1.84243e-05
3.99254e-07
5.19157e-06
5.19012e-06
5.18257e-06
5.18111e-06
1.84157e-05
1.84228e-05
3.75832e-06
8.92004e-06
8.92459e-06
3.73243e-06
1.24232e-06
1.59992e-07
2.86624e-06
2.44597e-07
1.60526e-07
2.887e-06
1.21521e-06
3.75824e-06
8.91979e-06
8.92441e-06
3.73233e-06
1.25639e-06
2.47604e-07
2.91753e-06
1.61831e-07
2.89791e-06
1.61133e-07
1.2827e-06
3.76607e-06
8.93013e-06
8.92538e-06
3.78873e-06
1.25637e-06
2.47687e-07
1.61833e-07
2.9176e-06
1.61136e-07
2.89803e-06
1.28268e-06
3.76597e-06
8.92991e-06
8.9252e-06
3.78865e-06
1.8437e-05
1.84295e-05
1.84388e-05
1.84313e-05
3.99319e-07
5.19014e-06
5.19181e-06
5.18115e-06
5.1828e-06
1.84165e-05
1.84236e-05
1.84184e-05
1.84255e-05
1.84092e-05
1.84015e-05
1.84118e-05
1.8404e-05
5.19445e-06
5.19619e-06
4.21505e-07
5.20193e-06
5.20363e-06
1.83893e-05
1.83955e-05
1.83918e-05
1.8398e-05
4.28365e-07
5.21205e-06
5.21369e-06
5.2055e-06
5.20721e-06
3.81649e-06
8.92997e-06
3.79596e-06
8.9323e-06
1.32198e-06
1.13717e-06
1.62623e-07
2.57758e-07
5.43651e-07
2.94562e-06
1.63509e-07
1.32195e-06
1.13765e-06
1.62634e-07
2.57807e-07
5.4366e-07
2.94607e-06
1.63514e-07
3.82378e-06
8.93388e-06
8.93238e-06
3.8406e-06
3.82373e-06
8.93383e-06
8.93233e-06
3.84053e-06
1.33536e-06
2.6133e-07
2.97052e-06
1.65501e-07
2.95483e-06
1.64467e-07
1.36004e-06
1.33533e-06
2.61381e-07
2.97094e-06
1.65506e-07
2.95529e-06
1.64479e-07
1.36002e-06
5.19592e-06
5.19447e-06
4.21523e-07
5.20339e-06
5.20194e-06
1.84098e-05
1.8402e-05
1.83914e-05
1.83976e-05
4.28396e-07
5.21348e-06
5.21203e-06
5.20698e-06
5.20551e-06
1.83898e-05
1.83961e-05
1.32205e-06
1.1376e-06
1.6263e-07
2.57708e-07
5.43732e-07
2.94614e-06
1.63504e-07
3.81658e-06
8.93085e-06
3.79627e-06
8.93319e-06
1.32205e-06
1.62639e-07
7.51943e-07
2.57819e-07
5.437e-07
1.63513e-07
2.94618e-06
3.82361e-06
8.9351e-06
8.9336e-06
3.84095e-06
1.33543e-06
2.61276e-07
2.97103e-06
1.65496e-07
2.95534e-06
1.64473e-07
1.36012e-06
3.82383e-06
8.93474e-06
8.93323e-06
3.84062e-06
1.3354e-06
2.61391e-07
1.65505e-07
2.97108e-06
1.64483e-07
2.95541e-06
1.36011e-06
3.81693e-06
8.93065e-06
3.79598e-06
8.93299e-06
1.32201e-06
1.62624e-07
2.92796e-06
2.57781e-07
1.29636e-06
1.63504e-07
2.94574e-06
3.81683e-06
8.93041e-06
3.79589e-06
8.93275e-06
1.33538e-06
2.61258e-07
2.97056e-06
1.65495e-07
2.95489e-06
1.64469e-07
1.3601e-06
3.82357e-06
8.93446e-06
8.93301e-06
3.84094e-06
1.33535e-06
2.61351e-07
1.65496e-07
2.97063e-06
1.64469e-07
2.95497e-06
1.36008e-06
3.82347e-06
8.93429e-06
8.93278e-06
3.84085e-06
5.19624e-06
5.19472e-06
4.21546e-07
5.20364e-06
5.20216e-06
1.84105e-05
1.84027e-05
1.83926e-05
1.83988e-05
4.28409e-07
5.21372e-06
5.21223e-06
5.2072e-06
5.20575e-06
1.83905e-05
1.83967e-05
1.32205e-06
1.62631e-07
1.13769e-06
2.57729e-07
5.43699e-07
1.63509e-07
2.9462e-06
3.81694e-06
8.9309e-06
3.79604e-06
8.93325e-06
3.81692e-06
8.93099e-06
3.79597e-06
8.93333e-06
1.33544e-06
2.61272e-07
1.65498e-07
2.97063e-06
1.64472e-07
2.95497e-06
1.36013e-06
1.33543e-06
2.61299e-07
1.65501e-07
2.97108e-06
1.64476e-07
2.9554e-06
1.36011e-06
3.82363e-06
8.93472e-06
8.93326e-06
3.84096e-06
3.82355e-06
8.93487e-06
8.93337e-06
3.84094e-06
1.84106e-05
1.84028e-05
1.84124e-05
1.84047e-05
4.28449e-07
5.21201e-06
5.21369e-06
5.20553e-06
5.2072e-06
1.83906e-05
1.83968e-05
1.83925e-05
1.83987e-05
1.83848e-05
1.8381e-05
1.83872e-05
1.83835e-05
5.21556e-06
5.21722e-06
4.52133e-07
5.22288e-06
5.22453e-06
1.8372e-05
1.83769e-05
1.83744e-05
1.83794e-05
4.59158e-07
5.23205e-06
5.23366e-06
5.22671e-06
5.22839e-06
3.85765e-06
8.9341e-06
3.84629e-06
8.93746e-06
1.39565e-06
2.97885e-06
1.66577e-07
2.72417e-07
1.3728e-06
2.99343e-06
1.67713e-07
1.39562e-06
2.97927e-06
1.6659e-07
2.72466e-07
1.37277e-06
2.99384e-06
1.67718e-07
3.86171e-06
8.94179e-06
8.93812e-06
3.86806e-06
3.86165e-06
8.94176e-06
8.93809e-06
3.86799e-06
1.40731e-06
2.76211e-07
3.01418e-06
1.70075e-07
3.00125e-06
1.6887e-07
1.42758e-06
1.40728e-06
2.7626e-07
3.01458e-06
1.7008e-07
3.00168e-06
1.68882e-07
1.42756e-06
5.217e-06
5.21555e-06
4.52158e-07
5.22431e-06
5.22286e-06
1.83852e-05
1.83815e-05
1.8374e-05
1.8379e-05
4.59199e-07
5.23346e-06
5.23201e-06
5.22817e-06
5.22669e-06
1.83724e-05
1.83774e-05
1.39572e-06
2.97936e-06
1.66583e-07
2.72351e-07
1.37287e-06
2.99393e-06
1.67708e-07
3.85777e-06
8.93501e-06
3.84641e-06
8.93836e-06
1.39572e-06
1.66593e-07
2.97944e-06
2.72479e-07
1.37283e-06
1.67717e-07
2.994e-06
3.86163e-06
8.943e-06
8.93933e-06
3.86835e-06
1.40737e-06
2.76139e-07
3.01467e-06
1.70071e-07
3.00175e-06
1.68876e-07
1.42766e-06
3.86179e-06
8.94265e-06
8.93899e-06
3.86814e-06
1.40734e-06
2.76271e-07
1.7008e-07
3.01471e-06
1.68885e-07
3.00184e-06
1.42766e-06
3.85806e-06
8.93473e-06
3.84618e-06
8.93809e-06
1.39569e-06
1.66579e-07
2.97899e-06
2.72438e-07
1.37279e-06
1.67707e-07
2.99353e-06
3.85797e-06
8.93456e-06
3.84608e-06
8.9379e-06
1.40734e-06
2.76126e-07
3.0142e-06
1.70067e-07
3.00129e-06
1.6887e-07
1.42765e-06
3.86161e-06
8.94235e-06
8.93871e-06
3.86834e-06
1.40731e-06
2.7623e-07
1.70069e-07
3.01427e-06
1.68871e-07
3.00138e-06
1.42763e-06
3.86152e-06
8.9422e-06
8.93852e-06
3.86825e-06
5.2173e-06
5.21578e-06
4.52181e-07
5.22466e-06
5.22308e-06
1.83859e-05
1.83822e-05
1.83752e-05
1.83802e-05
4.59211e-07
5.23369e-06
5.23222e-06
5.2285e-06
5.22695e-06
1.83731e-05
1.8378e-05
1.39572e-06
1.66585e-07
2.97942e-06
2.72379e-07
1.37287e-06
1.67713e-07
2.99398e-06
3.85807e-06
8.93498e-06
3.84623e-06
8.93835e-06
3.85804e-06
8.93514e-06
3.84616e-06
8.93847e-06
1.4074e-06
2.76141e-07
1.70074e-07
3.01428e-06
1.68876e-07
3.00139e-06
1.42768e-06
1.40737e-06
2.76169e-07
1.70074e-07
3.01472e-06
1.68876e-07
3.00181e-06
1.42765e-06
3.86165e-06
8.9426e-06
8.93897e-06
3.86835e-06
3.86159e-06
8.94278e-06
8.9391e-06
3.86833e-06
1.8386e-05
1.83823e-05
1.83879e-05
1.83842e-05
4.59258e-07
5.232e-06
5.23366e-06
5.22672e-06
5.22838e-06
1.83733e-05
1.83782e-05
1.83752e-05
1.83801e-05
1.83666e-05
1.83597e-05
1.8369e-05
1.83622e-05
5.23413e-06
5.23574e-06
4.82173e-07
5.2364e-06
5.23801e-06
1.83476e-05
1.83542e-05
1.83501e-05
1.83567e-05
4.88862e-07
5.23864e-06
5.24024e-06
5.2375e-06
5.23914e-06
3.87309e-06
8.9418e-06
3.87045e-06
8.94222e-06
1.45499e-06
3.02093e-06
1.71305e-07
2.87624e-07
1.43785e-06
3.03162e-06
1.72578e-07
1.45497e-06
3.02134e-06
1.71316e-07
2.8767e-07
1.43782e-06
3.03199e-06
1.72582e-07
3.8741e-06
8.93985e-06
8.94167e-06
3.87431e-06
3.87404e-06
8.93985e-06
8.94166e-06
3.87425e-06
1.46356e-06
2.91345e-07
3.04499e-06
1.75129e-07
3.03721e-06
1.73852e-07
1.47691e-06
1.46354e-06
2.91391e-07
3.04537e-06
1.75133e-07
3.03759e-06
1.73863e-07
1.47689e-06
5.23555e-06
5.23408e-06
4.82201e-07
5.23781e-06
5.23636e-06
1.8367e-05
1.83602e-05
1.83496e-05
1.83562e-05
4.889e-07
5.24006e-06
5.2386e-06
5.23893e-06
5.23747e-06
1.83481e-05
1.83547e-05
1.45509e-06
3.02141e-06
1.71311e-07
2.87544e-07
1.43793e-06
3.0321e-06
1.72574e-07
3.87325e-06
8.94268e-06
3.87059e-06
8.94309e-06
1.45508e-06
1.7132e-07
3.02148e-06
2.87686e-07
1.4379e-06
1.72583e-07
3.03215e-06
3.8742e-06
8.94108e-06
8.94289e-06
3.87449e-06
1.46365e-06
2.91259e-07
3.04547e-06
1.75125e-07
3.03768e-06
1.73858e-07
1.477e-06
3.87418e-06
8.94071e-06
8.94252e-06
3.87437e-06
1.46361e-06
2.91406e-07
1.75135e-07
3.04553e-06
1.73867e-07
3.03778e-06
1.47699e-06
3.87331e-06
8.94238e-06
3.87047e-06
8.94281e-06
1.45505e-06
1.71305e-07
3.02106e-06
2.87642e-07
1.43786e-06
1.72572e-07
3.03172e-06
3.87323e-06
8.94225e-06
3.87038e-06
8.94267e-06
1.46359e-06
2.91248e-07
3.04502e-06
1.75121e-07
3.03725e-06
1.73851e-07
1.47698e-06
3.87417e-06
8.94044e-06
8.94224e-06
3.87445e-06
1.46357e-06
2.91363e-07
1.75123e-07
3.04507e-06
1.73853e-07
3.03734e-06
1.47696e-06
3.87408e-06
8.94031e-06
8.94212e-06
3.87436e-06
5.23577e-06
5.23432e-06
4.82225e-07
5.23806e-06
5.23656e-06
1.83677e-05
1.83608e-05
1.83509e-05
1.83575e-05
4.88917e-07
5.24035e-06
5.2388e-06
5.23922e-06
5.2377e-06
1.83488e-05
1.83553e-05
1.45507e-06
1.71309e-07
3.02147e-06
2.87575e-07
1.43792e-06
1.72575e-07
3.03214e-06
3.87332e-06
8.94263e-06
3.8705e-06
8.94304e-06
3.87329e-06
8.94282e-06
3.87045e-06
8.94324e-06
1.46364e-06
2.91262e-07
1.75128e-07
3.04509e-06
1.73858e-07
3.03734e-06
1.477e-06
1.46362e-06
2.91292e-07
1.75125e-07
3.04551e-06
1.73855e-07
3.03775e-06
1.47697e-06
3.87419e-06
8.94067e-06
8.94247e-06
3.87445e-06
3.87412e-06
8.94087e-06
8.94268e-06
3.87441e-06
1.83679e-05
1.83611e-05
1.83698e-05
1.83629e-05
4.88971e-07
5.23862e-06
5.24025e-06
5.23753e-06
5.23914e-06
1.83489e-05
1.83555e-05
1.83508e-05
1.83574e-05
1.83421e-05
1.83353e-05
1.83446e-05
1.83378e-05
5.23917e-06
5.24078e-06
5.06682e-07
5.23897e-06
5.24056e-06
1.83225e-05
1.83298e-05
1.83251e-05
1.83323e-05
5.11903e-07
5.23724e-06
5.23884e-06
5.2391e-06
5.2407e-06
3.8731e-06
8.93818e-06
3.87439e-06
8.93495e-06
1.49281e-06
3.04893e-06
1.76345e-07
3.01611e-07
1.4835e-06
3.05376e-06
1.77472e-07
1.49279e-06
3.04932e-06
1.76355e-07
3.01655e-07
1.48347e-06
3.05414e-06
1.77477e-07
3.87298e-06
8.92845e-06
8.93287e-06
3.87039e-06
3.87293e-06
8.92846e-06
8.93288e-06
3.87033e-06
1.49746e-06
3.04473e-07
3.05823e-06
1.79197e-07
3.05639e-06
1.78433e-07
1.50318e-06
1.49743e-06
3.04517e-07
3.05861e-06
1.79202e-07
3.05678e-06
1.78442e-07
1.50316e-06
5.24062e-06
5.23913e-06
5.06711e-07
5.24041e-06
5.23891e-06
1.83426e-05
1.83358e-05
1.83246e-05
1.83318e-05
5.11943e-07
5.23867e-06
5.23718e-06
5.24055e-06
5.23904e-06
1.8323e-05
1.83302e-05
1.4929e-06
3.04939e-06
1.7635e-07
3.01518e-07
1.48358e-06
3.05423e-06
1.77468e-07
3.87321e-06
8.93903e-06
3.8745e-06
8.9358e-06
1.49288e-06
1.76359e-07
3.04949e-06
3.01674e-07
1.48354e-06
1.77478e-07
3.05429e-06
3.87298e-06
8.92971e-06
8.93412e-06
3.87047e-06
1.49753e-06
3.04375e-07
3.05871e-06
1.79194e-07
3.05686e-06
1.78436e-07
1.50326e-06
3.87303e-06
8.92931e-06
8.93373e-06
3.87045e-06
1.49748e-06
3.04534e-07
1.79204e-07
3.05875e-06
1.78446e-07
3.05695e-06
1.50324e-06
3.8732e-06
8.93877e-06
3.8745e-06
8.93554e-06
1.49286e-06
1.76346e-07
3.04905e-06
3.01636e-07
1.4835e-06
1.77467e-07
3.05386e-06
3.87313e-06
8.93866e-06
3.87442e-06
8.93544e-06
1.49747e-06
3.04366e-07
3.05825e-06
1.79188e-07
3.05642e-06
1.78429e-07
1.50324e-06
3.87294e-06
8.92904e-06
8.93346e-06
3.87046e-06
1.49746e-06
3.04498e-07
1.79193e-07
3.05833e-06
1.78433e-07
3.05652e-06
1.50323e-06
3.87286e-06
8.92893e-06
8.93337e-06
3.87039e-06
5.24089e-06
5.23937e-06
5.06737e-07
5.24065e-06
5.23916e-06
1.83433e-05
1.83365e-05
1.83257e-05
1.83329e-05
5.11961e-07
5.2389e-06
5.23741e-06
5.24079e-06
5.23931e-06
1.83237e-05
1.83309e-05
1.49287e-06
1.76347e-07
3.04945e-06
3.01557e-07
1.48355e-06
1.77468e-07
3.05428e-06
3.87319e-06
8.93899e-06
3.87451e-06
8.93576e-06
3.87316e-06
8.93921e-06
3.87448e-06
8.93598e-06
1.49753e-06
3.04382e-07
1.79198e-07
3.05836e-06
1.78438e-07
3.05653e-06
1.50327e-06
1.49751e-06
3.04416e-07
1.79194e-07
3.05877e-06
1.78434e-07
3.05693e-06
1.50325e-06
3.87295e-06
8.92926e-06
8.93368e-06
3.87044e-06
3.87291e-06
8.92951e-06
8.93392e-06
3.87041e-06
1.83434e-05
1.83366e-05
1.83453e-05
1.83385e-05
5.12037e-07
5.23719e-06
5.23884e-06
5.23908e-06
5.24069e-06
1.83238e-05
1.83311e-05
1.83258e-05
1.8333e-05
1.83167e-05
1.83095e-05
1.83192e-05
1.83121e-05
5.23687e-06
5.23849e-06
5.21169e-07
5.23324e-06
5.23485e-06
1.82978e-05
1.83041e-05
1.83004e-05
1.83066e-05
5.24151e-07
5.22842e-06
5.23004e-06
5.23273e-06
5.23435e-06
3.8664e-06
8.92566e-06
3.86993e-06
8.92022e-06
1.50893e-06
3.05908e-06
1.79715e-07
3.10205e-07
1.50617e-06
3.05807e-06
1.8e-07
1.50891e-06
3.05947e-06
1.79723e-07
3.10246e-07
1.50614e-06
3.05844e-06
1.80005e-07
3.86599e-06
8.91227e-06
8.9173e-06
3.86248e-06
3.86593e-06
8.91226e-06
8.91729e-06
3.86242e-06
1.51057e-06
3.11126e-07
3.05565e-06
1.80045e-07
3.05823e-06
1.80081e-07
1.51142e-06
1.51055e-06
3.11166e-07
3.056e-06
1.8005e-07
3.05861e-06
1.80088e-07
1.5114e-06
5.23832e-06
5.23681e-06
5.2119e-07
5.23467e-06
5.23319e-06
1.83172e-05
1.831e-05
1.82999e-05
1.83062e-05
5.24182e-07
5.22985e-06
5.22837e-06
5.23418e-06
5.23267e-06
1.82984e-05
1.83046e-05
1.50902e-06
3.05956e-06
1.79717e-07
3.10105e-07
1.50625e-06
3.05855e-06
1.79998e-07
3.86655e-06
8.9265e-06
3.87004e-06
8.92106e-06
1.509e-06
1.79727e-07
3.05962e-06
3.10266e-07
1.5062e-06
1.80008e-07
3.05857e-06
3.86601e-06
8.91353e-06
8.91856e-06
3.86257e-06
1.51065e-06
3.11025e-07
3.05614e-06
1.80043e-07
3.05871e-06
1.80082e-07
1.5115e-06
3.86607e-06
8.9131e-06
8.91812e-06
3.86254e-06
1.51061e-06
3.11186e-07
1.80053e-07
3.05612e-06
1.80092e-07
3.05875e-06
1.51146e-06
3.86655e-06
8.92625e-06
3.86997e-06
8.92083e-06
1.50901e-06
1.79715e-07
3.0592e-06
3.10228e-07
1.50619e-06
1.79997e-07
3.05815e-06
3.86648e-06
8.92612e-06
3.86989e-06
8.92067e-06
1.51062e-06
3.11009e-07
3.05567e-06
1.80035e-07
3.05826e-06
1.80074e-07
1.51149e-06
3.86599e-06
8.91288e-06
8.91789e-06
3.8626e-06
1.51061e-06
3.11148e-07
1.80043e-07
3.05572e-06
1.80081e-07
3.05834e-06
1.51148e-06
3.86591e-06
8.91271e-06
8.91773e-06
3.86252e-06
5.23855e-06
5.23707e-06
5.21227e-07
5.23489e-06
5.2334e-06
1.83179e-05
1.83107e-05
1.8301e-05
1.83072e-05
5.24212e-07
5.23004e-06
5.22859e-06
5.2344e-06
5.23292e-06
1.8299e-05
1.83052e-05
1.509e-06
1.79716e-07
3.05963e-06
3.10145e-07
1.50623e-06
1.79998e-07
3.05861e-06
3.86651e-06
8.92647e-06
3.86996e-06
8.92103e-06
3.86648e-06
8.92672e-06
3.86993e-06
8.92129e-06
1.51064e-06
3.11033e-07
1.80046e-07
3.05575e-06
1.80085e-07
3.05837e-06
1.5115e-06
1.51063e-06
3.11064e-07
1.80043e-07
3.05619e-06
1.80081e-07
3.05878e-06
1.51149e-06
3.86597e-06
8.91309e-06
8.9181e-06
3.86255e-06
3.86593e-06
8.91333e-06
8.91836e-06
3.86253e-06
1.8318e-05
1.83108e-05
1.832e-05
1.83128e-05
5.24275e-07
5.2284e-06
5.23003e-06
5.2327e-06
5.23437e-06
1.82992e-05
1.83054e-05
1.83011e-05
1.83073e-05
1.8293e-05
1.82886e-05
1.82955e-05
1.82911e-05
5.22772e-06
5.22934e-06
5.25143e-07
5.22354e-06
5.22516e-06
1.82847e-05
1.82871e-05
5.26982e-07
5.22301e-06
5.22463e-06
3.858e-06
8.90972e-06
3.86189e-06
8.90561e-06
1.51172e-06
3.05562e-06
1.79766e-07
3.12008e-07
1.51216e-06
3.05243e-06
1.79269e-07
1.5117e-06
3.05599e-06
1.7977e-07
3.12046e-07
1.51214e-06
3.05279e-06
1.79281e-07
3.85725e-06
8.9036e-06
3.85375e-06
3.85722e-06
8.90073e-06
8.9036e-06
3.85362e-06
1.51205e-06
3.1201e-07
1.78479e-07
3.05236e-06
1.7888e-07
1.51098e-06
1.51202e-06
3.12041e-07
3.04989e-06
1.78536e-07
3.05274e-06
1.78859e-07
1.51096e-06
5.22916e-06
5.22766e-06
5.25168e-07
5.22497e-06
5.2235e-06
1.82935e-05
1.82891e-05
1.8284e-05
1.82867e-05
5.27022e-07
5.22118e-06
5.21972e-06
5.22446e-06
5.22295e-06
1.82825e-05
1.82851e-05
1.51182e-06
3.0561e-06
1.79767e-07
3.11907e-07
1.51225e-06
3.05292e-06
1.79265e-07
3.85806e-06
8.91056e-06
3.86202e-06
8.90645e-06
1.51176e-06
1.79776e-07
3.05613e-06
3.12071e-07
1.51219e-06
1.79271e-07
3.05293e-06
3.85727e-06
8.90485e-06
1.51215e-06
3.11907e-07
3.05284e-06
1.7888e-07
3.85744e-06
8.90443e-06
1.51208e-06
3.12072e-07
1.78891e-07
3.0529e-06
3.85816e-06
8.91034e-06
3.86195e-06
8.90624e-06
1.51177e-06
1.79763e-07
3.05571e-06
3.12028e-07
1.51219e-06
1.79274e-07
3.05253e-06
3.85808e-06
8.91017e-06
3.86184e-06
8.90605e-06
1.51208e-06
3.1189e-07
3.04955e-06
1.78506e-07
3.0524e-06
1.78854e-07
1.51105e-06
3.8573e-06
8.90134e-06
8.90422e-06
3.85374e-06
1.51207e-06
3.12031e-07
1.78518e-07
3.04963e-06
1.78857e-07
3.05248e-06
1.51103e-06
3.85719e-06
8.90116e-06
8.90404e-06
3.85365e-06
5.22937e-06
5.22792e-06
5.25206e-07
5.22518e-06
5.22372e-06
1.82941e-05
1.82897e-05
1.82877e-05
5.27049e-07
5.22468e-06
5.22321e-06
1.82858e-05
1.5118e-06
1.79765e-07
3.05617e-06
3.11945e-07
1.51222e-06
1.79272e-07
3.05297e-06
3.85813e-06
8.91055e-06
3.86195e-06
8.90644e-06
3.8581e-06
8.91079e-06
3.8619e-06
8.90667e-06
1.51213e-06
3.11916e-07
1.78532e-07
1.78857e-07
3.05253e-06
1.51108e-06
1.51212e-06
3.11943e-07
1.78518e-07
3.05006e-06
1.78857e-07
3.05291e-06
1.51107e-06
3.8573e-06
8.90443e-06
3.85378e-06
3.85726e-06
8.90178e-06
8.90466e-06
3.85371e-06
1.82943e-05
1.82899e-05
1.82962e-05
1.82918e-05
5.27094e-07
5.21973e-06
5.22136e-06
5.22301e-06
5.22465e-06
1.82832e-05
1.82859e-05
1.82852e-05
1.82879e-05
1.84369e-05
1.84309e-05
9.71982e-06
2.18641e-05
2.18639e-05
2.1865e-05
2.18648e-05
9.71909e-06
4.02057e-06
2.00866e-06
5.1686e-06
9.06231e-06
2.01668e-06
9.0669e-06
4.01604e-06
4.02769e-06
2.01016e-06
5.17026e-06
9.0672e-06
9.0718e-06
4.02289e-06
2.0184e-06
4.02982e-06
9.07326e-06
5.17383e-06
2.03574e-06
2.02791e-06
9.06877e-06
4.03405e-06
4.03668e-06
9.07823e-06
5.17547e-06
2.03747e-06
9.07372e-06
4.04118e-06
2.02941e-06
9.71962e-06
2.18738e-05
2.18736e-05
2.18729e-05
2.18726e-05
9.7202e-06
1.21488e-05
3.81027e-06
1.07114e-05
4.57861e-06
1.0709e-05
4.57379e-06
1.21499e-05
2.23548e-05
7.21341e-06
8.93137e-06
7.21165e-06
2.23557e-05
1.21491e-05
3.80285e-06
1.07053e-05
4.56512e-06
1.07082e-05
4.57034e-06
1.21478e-05
2.23456e-05
7.20788e-06
8.93157e-06
7.20988e-06
2.23451e-05
1.84104e-05
1.84044e-05
1.2149e-05
3.81022e-06
4.57875e-06
1.07118e-05
4.57385e-06
1.07093e-05
1.21502e-05
2.23554e-05
7.21367e-06
8.93258e-06
7.21205e-06
2.23563e-05
1.21493e-05
3.80314e-06
4.56518e-06
1.07056e-05
4.57049e-06
1.07085e-05
1.21481e-05
2.23462e-05
7.20828e-06
8.93278e-06
7.21016e-06
2.23457e-05
1.84116e-05
1.84055e-05
9.71377e-06
2.18261e-05
2.18255e-05
2.18271e-05
2.18267e-05
9.71151e-06
4.07114e-06
2.08284e-06
9.08714e-06
5.19637e-06
4.06766e-06
2.09016e-06
9.09097e-06
4.07814e-06
2.08431e-06
9.09207e-06
5.19804e-06
4.07447e-06
2.09189e-06
9.09591e-06
9.71412e-06
2.1837e-05
2.18367e-05
9.71627e-06
2.18358e-05
2.18352e-05
4.0787e-06
9.09584e-06
5.20033e-06
2.10696e-06
2.09999e-06
9.0924e-06
4.08186e-06
4.08553e-06
9.1008e-06
5.20198e-06
2.10869e-06
2.10145e-06
9.09734e-06
4.08882e-06
1.2156e-05
3.85495e-06
1.07316e-05
4.60234e-06
1.0727e-05
4.59993e-06
1.21587e-05
2.23219e-05
7.19833e-06
8.93536e-06
2.23217e-05
7.19726e-06
1.21554e-05
3.85009e-06
1.0721e-05
4.59491e-06
1.21529e-05
1.07252e-05
4.59802e-06
2.23142e-05
7.19473e-06
8.93585e-06
7.19558e-06
2.23142e-05
1.83869e-05
1.83828e-05
1.21563e-05
3.85484e-06
4.60245e-06
1.07318e-05
4.59998e-06
1.07273e-05
1.2159e-05
2.23225e-05
7.19865e-06
8.93657e-06
2.23223e-05
7.19762e-06
1.21556e-05
3.85043e-06
4.59495e-06
1.07213e-05
1.21532e-05
4.59814e-06
1.07255e-05
2.23147e-05
7.19508e-06
8.93706e-06
7.19589e-06
2.23148e-05
1.83882e-05
1.8384e-05
9.70805e-06
2.18033e-05
2.18028e-05
2.18027e-05
2.18024e-05
9.70638e-06
4.11106e-06
2.14696e-06
9.10719e-06
5.21721e-06
4.10826e-06
2.15324e-06
9.1112e-06
4.11801e-06
2.1484e-06
9.11214e-06
5.21887e-06
4.11512e-06
2.15495e-06
9.11615e-06
9.70793e-06
2.18073e-05
2.18069e-05
9.70879e-06
2.18082e-05
2.18076e-05
4.1174e-06
9.11713e-06
5.22108e-06
2.1678e-06
2.16166e-06
9.11294e-06
4.11992e-06
4.12425e-06
9.12209e-06
5.22273e-06
2.1695e-06
2.1631e-06
9.11789e-06
4.12686e-06
1.21618e-05
3.87289e-06
1.07461e-05
4.6089e-06
1.07453e-05
4.60896e-06
1.21619e-05
2.22839e-05
7.18912e-06
8.94234e-06
2.22857e-05
7.18703e-06
1.21628e-05
3.87118e-06
1.07432e-05
4.60825e-06
1.21621e-05
1.07453e-05
4.60876e-06
2.2272e-05
7.18218e-06
8.94205e-06
7.18501e-06
2.22698e-05
1.8368e-05
1.83624e-05
1.2162e-05
3.87293e-06
4.60897e-06
1.07463e-05
4.60902e-06
1.07456e-05
1.21621e-05
2.22844e-05
7.18936e-06
8.94355e-06
2.22863e-05
7.18746e-06
1.2163e-05
3.87143e-06
4.60831e-06
1.07434e-05
1.21623e-05
4.60884e-06
1.07456e-05
2.22727e-05
7.18263e-06
8.94327e-06
7.18526e-06
2.22704e-05
1.83691e-05
1.83636e-05
9.68796e-06
2.17728e-05
2.17722e-05
2.17731e-05
2.17726e-05
9.68358e-06
4.1391e-06
2.2015e-06
9.12694e-06
5.23462e-06
4.13805e-06
2.20624e-06
9.12888e-06
4.14598e-06
2.20292e-06
9.13188e-06
5.23626e-06
4.14484e-06
2.20789e-06
9.1338e-06
9.68947e-06
2.17811e-05
2.17807e-05
9.69447e-06
2.17804e-05
2.17798e-05
4.14205e-06
9.13087e-06
5.2361e-06
2.2165e-06
2.21238e-06
9.12932e-06
4.14276e-06
4.14883e-06
9.13578e-06
5.23772e-06
2.21813e-06
2.21379e-06
9.13424e-06
4.14962e-06
1.2149e-05
3.87395e-06
1.07406e-05
4.60302e-06
1.07414e-05
4.60408e-06
1.21478e-05
2.22284e-05
7.16839e-06
8.93754e-06
2.22303e-05
7.16491e-06
1.21525e-05
3.87395e-06
1.07439e-05
4.60613e-06
1.21535e-05
1.07434e-05
4.60532e-06
2.22173e-05
7.15895e-06
8.93567e-06
7.16245e-06
2.22156e-05
1.83435e-05
1.8338e-05
1.21492e-05
3.874e-06
4.60314e-06
1.07409e-05
4.60416e-06
1.07416e-05
1.21481e-05
2.22291e-05
7.1687e-06
8.93878e-06
2.22309e-05
7.16544e-06
1.21527e-05
3.87412e-06
4.6062e-06
1.07442e-05
1.21537e-05
4.60543e-06
1.07437e-05
2.2218e-05
7.15949e-06
8.93692e-06
7.16278e-06
2.22163e-05
1.83447e-05
1.83392e-05
9.67488e-06
2.17525e-05
2.17518e-05
2.17519e-05
2.17515e-05
9.67287e-06
4.15066e-06
2.23769e-06
9.13424e-06
5.23899e-06
4.15037e-06
2.24024e-06
9.13509e-06
4.15745e-06
2.23907e-06
9.13917e-06
5.24061e-06
4.15708e-06
2.24181e-06
9.14002e-06
9.67501e-06
2.17566e-05
2.17562e-05
9.67674e-06
2.17573e-05
2.17567e-05
4.15222e-06
9.1356e-06
5.23931e-06
2.24581e-06
2.24378e-06
9.13501e-06
4.15226e-06
4.15893e-06
9.14052e-06
5.24093e-06
2.24736e-06
2.24518e-06
9.13995e-06
4.15905e-06
1.21294e-05
3.86801e-06
1.07257e-05
4.59195e-06
1.07266e-05
4.593e-06
1.21284e-05
2.21795e-05
7.144e-06
8.92444e-06
2.21806e-05
7.14062e-06
1.21329e-05
3.8685e-06
1.07305e-05
4.59578e-06
1.21341e-05
1.07295e-05
4.59467e-06
2.21698e-05
7.135e-06
8.92148e-06
7.13814e-06
2.2169e-05
1.8318e-05
1.83123e-05
1.21297e-05
3.86803e-06
4.59204e-06
1.0726e-05
4.59307e-06
1.0727e-05
1.21286e-05
2.21802e-05
7.14432e-06
8.9257e-06
2.21813e-05
7.14117e-06
1.21332e-05
3.86859e-06
4.59585e-06
1.07308e-05
1.21343e-05
4.59477e-06
1.07298e-05
2.21705e-05
7.13554e-06
8.92274e-06
7.13844e-06
2.21697e-05
1.83191e-05
1.83134e-05
9.66426e-06
2.17295e-05
2.17286e-05
2.17294e-05
2.17287e-05
9.66169e-06
4.15318e-06
2.25507e-06
9.13352e-06
5.23528e-06
4.15381e-06
2.25557e-06
9.13301e-06
4.1599e-06
2.25647e-06
9.13849e-06
5.23695e-06
4.16045e-06
2.25708e-06
9.13798e-06
9.6648e-06
2.17352e-05
2.17346e-05
9.66715e-06
2.17354e-05
2.17345e-05
4.15325e-06
9.13065e-06
5.23484e-06
2.25666e-06
2.25655e-06
9.13128e-06
4.15212e-06
4.15991e-06
9.13564e-06
5.23651e-06
2.25816e-06
2.25799e-06
9.13626e-06
4.15881e-06
1.21133e-05
3.85973e-06
1.07129e-05
4.58065e-06
1.07136e-05
4.5817e-06
1.21127e-05
2.21443e-05
7.12315e-06
8.90876e-06
2.21439e-05
7.12071e-06
1.21161e-05
3.86033e-06
1.07165e-05
4.58465e-06
1.21169e-05
1.07158e-05
4.58356e-06
2.21371e-05
7.11679e-06
8.90645e-06
7.119e-06
2.21379e-05
1.82949e-05
1.82906e-05
1.21136e-05
3.8597e-06
4.58076e-06
1.07133e-05
4.5818e-06
1.07139e-05
1.2113e-05
2.2145e-05
7.12345e-06
8.91002e-06
2.21447e-05
7.12127e-06
1.21164e-05
3.86045e-06
4.58475e-06
1.07168e-05
1.21172e-05
4.58366e-06
1.07161e-05
2.21378e-05
7.11737e-06
8.90771e-06
7.1193e-06
2.21386e-05
1.8296e-05
1.82916e-05
9.64962e-06
2.17081e-05
2.17073e-05
2.17072e-05
2.17066e-05
9.64705e-06
4.14675e-06
2.25661e-06
9.1232e-06
5.22583e-06
4.14839e-06
2.2558e-06
9.12251e-06
4.15343e-06
2.25803e-06
9.12818e-06
5.22745e-06
4.155e-06
2.25725e-06
9.12749e-06
9.6504e-06
2.17122e-05
2.17116e-05
9.65329e-06
2.17127e-05
2.17119e-05
4.14643e-06
9.12003e-06
5.22523e-06
2.25495e-06
2.25578e-06
9.12061e-06
4.1448e-06
4.15304e-06
9.125e-06
5.22686e-06
2.25639e-06
2.25719e-06
9.12559e-06
4.15145e-06
9.71941e-06
2.18635e-05
2.18638e-05
2.18644e-05
2.18648e-05
9.71868e-06
4.0277e-06
2.00992e-06
5.17004e-06
9.06696e-06
9.07158e-06
4.02238e-06
2.01832e-06
4.02111e-06
2.00827e-06
5.16859e-06
9.06245e-06
2.01684e-06
9.06705e-06
4.01524e-06
4.03617e-06
9.078e-06
5.17525e-06
2.03741e-06
9.07348e-06
4.04122e-06
2.02917e-06
4.02904e-06
9.07347e-06
5.17378e-06
2.03592e-06
2.02751e-06
9.06895e-06
4.03463e-06
9.71918e-06
2.18732e-05
2.18735e-05
2.18722e-05
2.18725e-05
9.71978e-06
1.84354e-05
1.84294e-05
1.84179e-05
1.84237e-05
9.71782e-06
2.18557e-05
2.1856e-05
9.71877e-06
2.18545e-05
2.18548e-05
4.06204e-06
2.07421e-06
5.18949e-06
9.09021e-06
9.08602e-06
4.06654e-06
2.06625e-06
4.05492e-06
2.07272e-06
5.18803e-06
9.08568e-06
9.08148e-06
2.0646e-06
4.05993e-06
4.05418e-06
9.07985e-06
2.04792e-06
5.1848e-06
4.04939e-06
9.08425e-06
2.05603e-06
4.04759e-06
9.07532e-06
2.04627e-06
5.18336e-06
4.04226e-06
9.07973e-06
2.05454e-06
9.71766e-06
2.18448e-05
2.18452e-05
2.18462e-05
2.18466e-05
9.71613e-06
1.84164e-05
1.84222e-05
1.21396e-05
4.54136e-06
1.06934e-05
3.74994e-06
4.5355e-06
1.0689e-05
1.21425e-05
2.2395e-05
8.92188e-06
7.21538e-06
7.21524e-06
2.23952e-05
2.23859e-05
7.21548e-06
8.9226e-06
7.21564e-06
2.23856e-05
1.21389e-05
3.74163e-06
4.52385e-06
1.06833e-05
4.53028e-06
1.06873e-05
1.21362e-05
1.21398e-05
1.06931e-05
4.54157e-06
3.74984e-06
1.06887e-05
4.53506e-06
1.21427e-05
2.2396e-05