/*--------------------------------*- C++ -*----------------------------------*\
| =========                 |                                                 |
| \\      /  F ield         | OpenFOAM: The Open Source CFD Toolbox           |
|  \\    /   O peration     | Version:  v2006                                 |
|   \\  /    A nd           | Website:  www.openfoam.com                      |
|    \\/     M anipulation  |                                                 |
\*---------------------------------------------------------------------------*/
FoamFile
{
    version     2.0;
    format      ascii;
    class       volScalarField;
    location    "125";
    object      k;
}
// * * * * * * * * * * * * * * * * * * * * * * * * * * * * * * * * * * * * * //

dimensions      [0 2 -2 0 0 0 0];


internalField   nonuniform List<scalar> 
171728
(
1.62927e-05
1.87285e-05
1.43372e-05
1.65195e-05
1.65199e-05
1.94263e-05
1.41069e-05
1.68311e-05
1.68316e-05
2.02104e-05
1.39209e-05
1.72171e-05
1.72176e-05
2.10539e-05
1.37554e-05
1.76304e-05
1.7631e-05
2.18926e-05
1.36529e-05
1.80576e-05
1.80582e-05
2.2617e-05
1.34887e-05
1.82508e-05
1.82518e-05
2.2969e-05
1.8728e-05
1.92747e-05
1.62929e-05
1.64552e-05
1.64557e-05
1.92756e-05
1.94254e-05
2.00408e-05
1.65196e-05
1.652e-05
1.67448e-05
1.67453e-05
1.94257e-05
2.0041e-05
1.65199e-05
1.65204e-05
1.67449e-05
1.67456e-05
1.652e-05
1.67445e-05
1.67452e-05
1.94259e-05
2.00415e-05
1.65204e-05
1.6745e-05
1.67455e-05
2.00422e-05
2.02091e-05
2.08736e-05
1.68315e-05
1.6832e-05
1.71181e-05
1.71184e-05
2.02095e-05
2.08737e-05
1.68314e-05
1.68323e-05
1.71178e-05
1.7119e-05
1.68319e-05
1.71174e-05
1.71185e-05
2.02098e-05
2.08744e-05
1.68321e-05
1.7118e-05
1.71185e-05
2.08753e-05
2.10523e-05
2.17149e-05
1.72178e-05
1.72182e-05
1.75243e-05
1.75247e-05
2.10527e-05
2.17152e-05
1.72174e-05
1.72186e-05
1.75237e-05
1.75252e-05
1.72182e-05
1.75233e-05
1.75247e-05
2.10531e-05
2.17158e-05
1.72181e-05
1.75239e-05
1.75245e-05
2.17167e-05
2.18909e-05
2.24693e-05
1.76314e-05
1.76317e-05
1.79613e-05
1.79616e-05
2.18914e-05
2.24694e-05
1.76307e-05
1.76322e-05
1.79604e-05
1.79622e-05
1.76318e-05
1.79602e-05
1.79619e-05
2.18918e-05
2.24703e-05
1.76315e-05
1.79608e-05
1.79614e-05
2.2472e-05
2.26142e-05
2.28981e-05
1.80587e-05
1.80591e-05
1.82343e-05
1.82345e-05
2.26144e-05
2.28979e-05
1.80577e-05
1.80596e-05
1.82334e-05
1.82352e-05
1.80595e-05
1.82329e-05
1.8235e-05
2.26151e-05
2.28992e-05
1.80588e-05
1.82338e-05
1.82344e-05
2.29006e-05
2.29666e-05
1.82523e-05
1.82524e-05
1.82398e-05
2.29666e-05
2.29887e-05
1.82513e-05
1.82531e-05
1.82529e-05
1.8238e-05
1.82387e-05
2.29678e-05
1.82523e-05
1.82381e-05
2.29903e-05
6.95553e-05
6.95363e-05
3.10943e-05
4.64293e-05
1.47403e-05
1.63418e-05
4.68281e-05
1.47086e-05
3.05316e-05
5.96693e-05
5.96779e-05
1.88941e-05
5.99259e-05
5.99346e-05
5.59412e-05
7.0149e-05
5.55152e-05
7.01613e-05
6.94889e-05
6.94694e-05
5.59416e-05
7.01506e-05
5.55156e-05
7.0163e-05
1.45196e-05
1.42525e-05
1.45195e-05
1.41588e-05
1.41588e-05
1.41589e-05
1.4159e-05
3.27578e-05
4.75444e-05
1.46368e-05
1.65888e-05
3.22166e-05
4.79115e-05
1.46198e-05
6.94892e-05
6.94697e-05
3.27582e-05
1.4637e-05
3.04412e-05
1.65892e-05
2.11839e-05
1.46199e-05
4.79117e-05
6.02505e-05
6.02592e-05
1.96483e-05
6.04707e-05
6.04794e-05
5.68617e-05
7.01707e-05
5.65013e-05
7.01881e-05
6.94272e-05
6.94178e-05
5.6862e-05
7.01724e-05
5.65014e-05
7.01897e-05
1.41069e-05
1.41071e-05
1.41071e-05
1.39664e-05
1.39664e-05
1.39665e-05
1.39666e-05
3.4356e-05
4.8551e-05
1.46033e-05
1.69231e-05
3.38338e-05
4.88856e-05
1.46062e-05
6.94276e-05
6.94182e-05
3.43552e-05
1.46035e-05
4.85521e-05
1.69236e-05
3.38353e-05
1.46064e-05
4.8886e-05
6.07626e-05
6.07711e-05
2.04531e-05
6.09733e-05
6.09818e-05
5.74681e-05
7.02109e-05
5.72536e-05
7.02132e-05
6.93816e-05
6.93643e-05
5.74688e-05
7.02126e-05
5.72538e-05
7.02149e-05
1.39209e-05
1.39211e-05
1.39211e-05
1.37913e-05
1.37913e-05
1.37915e-05
1.37916e-05
3.57946e-05
4.94488e-05
1.46358e-05
1.73176e-05
3.53457e-05
4.97296e-05
1.46494e-05
6.93818e-05
6.93646e-05
3.57941e-05
1.46361e-05
4.945e-05
1.73181e-05
3.53472e-05
1.46498e-05
4.97301e-05
6.12388e-05
6.12471e-05
2.13001e-05
6.13771e-05
6.13851e-05
5.77947e-05
7.01922e-05
5.76856e-05
7.01753e-05
6.93201e-05
6.9303e-05
5.77954e-05
7.0194e-05
5.76855e-05
7.01771e-05
1.37554e-05
1.37556e-05
1.37557e-05
1.36766e-05
1.36767e-05
1.36769e-05
1.36769e-05
3.69081e-05
5.01684e-05
1.47042e-05
1.77406e-05
3.65869e-05
5.0369e-05
1.47334e-05
6.93203e-05
6.93031e-05
3.69082e-05
1.47046e-05
5.01694e-05
1.77412e-05
3.65879e-05
1.47338e-05
5.03699e-05
6.15491e-05
6.15572e-05
2.21145e-05
6.16455e-05
6.16533e-05
5.79053e-05
7.0127e-05
5.7884e-05
7.00985e-05
6.92563e-05
6.92381e-05
5.79065e-05
7.01289e-05
5.78849e-05
7.01004e-05
1.36527e-05
1.36531e-05
1.36533e-05
1.35424e-05
1.35428e-05
1.35428e-05
1.35429e-05
3.7566e-05
5.06377e-05
1.48283e-05
1.81374e-05
3.74069e-05
5.07032e-05
1.48464e-05
6.92562e-05
6.92381e-05
3.75664e-05
1.48288e-05
5.06391e-05
1.81382e-05
3.74078e-05
1.4847e-05
5.07042e-05
6.1726e-05
6.1734e-05
2.27386e-05
6.17379e-05
6.17465e-05
5.78897e-05
7.00434e-05
5.79029e-05
7.00218e-05
6.91963e-05
6.91851e-05
5.78916e-05
7.00453e-05
5.79042e-05
7.00237e-05
1.34883e-05
1.3489e-05
1.34891e-05
1.3298e-05
1.32979e-05
3.7769e-05
5.07263e-05
1.48438e-05
1.82552e-05
3.77503e-05
5.07131e-05
1.48091e-05
6.91962e-05
6.91852e-05
3.7768e-05
1.48443e-05
5.07275e-05
1.82563e-05
3.77497e-05
1.48102e-05
5.07142e-05
6.1717e-05
6.17255e-05
2.29722e-05
6.16925e-05
6.17006e-05
5.96768e-05
5.96705e-05
1.88935e-05
5.99337e-05
5.99274e-05
6.95539e-05
6.95348e-05
6.95037e-05
6.95217e-05
1.90964e-05
6.02141e-05
6.0208e-05
5.9981e-05
5.99747e-05
6.95022e-05
6.95202e-05
5.48622e-05
7.0094e-05
7.01178e-05
5.4336e-05
3.10938e-05
1.47402e-05
4.64301e-05
1.63421e-05
1.47084e-05
4.68263e-05
3.0531e-05
5.48609e-05
7.00907e-05
7.01148e-05
5.43347e-05
3.1381e-05
1.63961e-05
4.73821e-05
1.46563e-05
4.70005e-05
1.46806e-05
3.19357e-05
5.49597e-05
7.01468e-05
7.01219e-05
5.54289e-05
3.13805e-05
1.63964e-05
1.46561e-05
4.73807e-05
1.46804e-05
4.70012e-05
3.19352e-05
5.49584e-05
7.01437e-05
7.0119e-05
5.54276e-05
6.9554e-05
6.9535e-05
6.95559e-05
6.95369e-05
1.90973e-05
6.02064e-05
6.02152e-05
5.99734e-05
5.9982e-05
6.95024e-05
6.95204e-05
6.95043e-05
6.95223e-05
6.94873e-05
6.94678e-05
6.94893e-05
6.94698e-05
6.02526e-05
6.02607e-05
1.96471e-05
6.0473e-05
6.04809e-05
6.94371e-05
6.94529e-05
6.9439e-05
6.94548e-05
1.98071e-05
6.07258e-05
6.07329e-05
6.05149e-05
6.05229e-05
5.59398e-05
7.01461e-05
5.55139e-05
7.01585e-05
3.27573e-05
3.04413e-05
1.46366e-05
1.6589e-05
2.1183e-05
4.79126e-05
1.46195e-05
3.27564e-05
3.04475e-05
1.46365e-05
1.65894e-05
2.11828e-05
4.79142e-05
1.46195e-05
5.60224e-05
7.01693e-05
7.01615e-05
5.64255e-05
5.6021e-05
7.01664e-05
7.01586e-05
5.64241e-05
3.30323e-05
1.66641e-05
4.84127e-05
1.46026e-05
4.80623e-05
1.46094e-05
3.35633e-05
3.30314e-05
1.66645e-05
4.8414e-05
1.46026e-05
4.80649e-05
1.46094e-05
3.35626e-05
6.02579e-05
6.02517e-05
1.96473e-05
6.04784e-05
6.04719e-05
6.94874e-05
6.94679e-05
6.94387e-05
6.94545e-05
1.98074e-05
6.07308e-05
6.07245e-05
6.05204e-05
6.05138e-05
6.94371e-05
6.94529e-05
3.27579e-05
3.04471e-05
1.46368e-05
1.65892e-05
2.11841e-05
4.79152e-05
1.46197e-05
5.59403e-05
7.01467e-05
5.55143e-05
7.0159e-05
3.27575e-05
1.46367e-05
2.45684e-05
1.65898e-05
2.11832e-05
1.46196e-05
4.79139e-05
5.60227e-05
7.0171e-05
7.01632e-05
5.64258e-05
3.30328e-05
1.66641e-05
4.84151e-05
1.46028e-05
4.80658e-05
1.46096e-05
3.3564e-05
5.60214e-05
7.01671e-05
7.01592e-05
5.64245e-05
3.30321e-05
1.66649e-05
1.46027e-05
4.84139e-05
1.46095e-05
4.80654e-05
3.35636e-05
5.59419e-05
7.01495e-05
5.55156e-05
7.0162e-05
3.27572e-05
1.46367e-05
4.75449e-05
1.65894e-05
3.2216e-05
1.46196e-05
4.79101e-05
5.59405e-05
7.01463e-05
5.55143e-05
7.01587e-05
3.30324e-05
1.66639e-05
4.84116e-05
1.46029e-05
4.80626e-05
1.46097e-05
3.35638e-05
5.60229e-05
7.01696e-05
7.01621e-05
5.64259e-05
3.30318e-05
1.66644e-05
1.46027e-05
4.84103e-05
1.46095e-05
4.80628e-05
3.35635e-05
5.60215e-05
7.01667e-05
7.01589e-05
5.64246e-05
6.02597e-05
6.02541e-05
1.96477e-05
6.04793e-05
6.04743e-05
6.9488e-05
6.94685e-05
6.94391e-05
6.94547e-05
1.98077e-05
6.0731e-05
6.07264e-05
6.05211e-05
6.05163e-05
6.94378e-05
6.94535e-05
3.27576e-05
1.4637e-05
3.04481e-05
1.65897e-05
2.11833e-05
1.462e-05
4.79145e-05
5.59418e-05
7.01499e-05
5.55158e-05
7.01623e-05
5.59406e-05
7.01474e-05
5.55146e-05
7.01598e-05
3.30331e-05
1.66642e-05
1.46031e-05
4.84118e-05
1.46099e-05
4.80638e-05
3.35643e-05
3.30324e-05
1.66647e-05
1.46031e-05
4.84144e-05
1.461e-05
4.80654e-05
3.35636e-05
5.6023e-05
7.017e-05
7.01624e-05
5.64259e-05
5.60218e-05
7.01678e-05
7.01599e-05
5.64248e-05
6.94875e-05
6.9468e-05
6.94895e-05
6.947e-05
1.98082e-05
6.07225e-05
6.07311e-05
6.05127e-05
6.05212e-05
6.94372e-05
6.94529e-05
6.94392e-05
6.9455e-05
6.94256e-05
6.94162e-05
6.94275e-05
6.9418e-05
6.07656e-05
6.07728e-05
2.04516e-05
6.09759e-05
6.09836e-05
6.93936e-05
6.94059e-05
6.93954e-05
6.94077e-05
2.06262e-05
6.12121e-05
6.12187e-05
6.10194e-05
6.10275e-05
5.68603e-05
7.01678e-05
5.64999e-05
7.01853e-05
3.43538e-05
4.85507e-05
1.4603e-05
1.69236e-05
3.38345e-05
4.88865e-05
1.4606e-05
3.43533e-05
4.85528e-05
1.4603e-05
1.6924e-05
3.38337e-05
4.88874e-05
1.46059e-05
5.69234e-05
7.02107e-05
7.01914e-05
5.72067e-05
5.69219e-05
7.02079e-05
7.01886e-05
5.72052e-05
3.46154e-05
1.70197e-05
4.9333e-05
1.46236e-05
4.90171e-05
1.46134e-05
3.51045e-05
3.46141e-05
1.70201e-05
4.93339e-05
1.46234e-05
4.90188e-05
1.46134e-05
3.51041e-05
6.07706e-05
6.07643e-05
2.04518e-05
6.09806e-05
6.09745e-05
6.94255e-05
6.94161e-05
6.93952e-05
6.94075e-05
2.06266e-05
6.12165e-05
6.12102e-05
6.10245e-05
6.1018e-05
6.93934e-05
6.94057e-05
3.4355e-05
4.8554e-05
1.46033e-05
1.69235e-05
3.3835e-05
4.88889e-05
1.46062e-05
5.68608e-05
7.01685e-05
5.65001e-05
7.01859e-05
3.43553e-05
1.46032e-05
4.85537e-05
1.69245e-05
3.38337e-05
1.4606e-05
4.88882e-05
5.69236e-05
7.02123e-05
7.0193e-05
5.7207e-05
3.46154e-05
1.70194e-05
4.93352e-05
1.46237e-05
4.90203e-05
1.46136e-05
3.51057e-05
5.69223e-05
7.02085e-05
7.01892e-05
5.72057e-05
3.46141e-05
1.70205e-05
1.46236e-05
4.93341e-05
1.46135e-05
4.90203e-05
3.51058e-05
5.68625e-05
7.0171e-05
5.65014e-05
7.01885e-05
3.43559e-05
1.46031e-05
4.85511e-05
1.6924e-05
3.38328e-05
1.4606e-05
4.88842e-05
5.68611e-05
7.01681e-05
5.65001e-05
7.01855e-05
3.46145e-05
1.70192e-05
4.93319e-05
1.46237e-05
4.90174e-05
1.46137e-05
3.51066e-05
5.6924e-05
7.02109e-05
7.01917e-05
5.72076e-05
3.46133e-05
1.70201e-05
1.46236e-05
4.93305e-05
1.46135e-05
4.90173e-05
3.51065e-05
5.69226e-05
7.02081e-05
7.01888e-05
5.72063e-05
6.07711e-05
6.07665e-05
2.04523e-05
6.09836e-05
6.09773e-05
6.94262e-05
6.94168e-05
6.93954e-05
6.94078e-05
2.0627e-05
6.12175e-05
6.12126e-05
6.10276e-05
6.10211e-05
6.93941e-05
6.94063e-05
3.43546e-05
1.46036e-05
4.85536e-05
1.69241e-05
3.38346e-05
1.46065e-05
4.88882e-05
5.68624e-05
7.01713e-05
5.65016e-05
7.01888e-05
5.68612e-05
7.01692e-05
5.65004e-05
7.01865e-05
3.4616e-05
1.70197e-05
1.46241e-05
4.93324e-05
1.46139e-05
4.90186e-05
3.51061e-05
3.4615e-05
1.70201e-05
1.4624e-05
4.93346e-05
1.46139e-05
4.90198e-05
3.51055e-05
5.6924e-05
7.02112e-05
7.01921e-05
5.72075e-05
5.69227e-05
7.02091e-05
7.01898e-05
5.72063e-05
6.94257e-05
6.94163e-05
6.94277e-05
6.94183e-05
2.06277e-05
6.12087e-05
6.12171e-05
6.10171e-05
6.10258e-05
6.93937e-05
6.94059e-05
6.93957e-05
6.9408e-05
6.938e-05
6.93626e-05
6.93818e-05
6.93645e-05
6.12419e-05
6.12487e-05
2.12984e-05
6.13798e-05
6.13866e-05
6.93322e-05
6.93488e-05
6.93341e-05
6.93507e-05
2.14773e-05
6.15298e-05
6.15369e-05
6.14043e-05
6.14113e-05
5.74667e-05
7.02082e-05
5.72522e-05
7.02105e-05
3.57927e-05
4.94488e-05
1.46355e-05
1.73183e-05
3.53465e-05
4.97307e-05
1.46492e-05
3.57924e-05
4.94504e-05
1.46355e-05
1.73187e-05
3.53451e-05
4.97314e-05
1.46491e-05
5.75028e-05
7.02009e-05
7.02103e-05
5.76611e-05
5.75014e-05
7.01983e-05
7.02076e-05
5.76597e-05
3.601e-05
1.74203e-05
5.00846e-05
1.46812e-05
4.98336e-05
1.46637e-05
3.64011e-05
3.60088e-05
1.74207e-05
5.00851e-05
1.46811e-05
4.98349e-05
1.46637e-05
3.64006e-05
6.12465e-05
6.12401e-05
2.12986e-05
6.13843e-05
6.13782e-05
6.93798e-05
6.93625e-05
6.93338e-05
6.93504e-05
2.14779e-05
6.15343e-05
6.15285e-05
6.14088e-05
6.14028e-05
6.93321e-05
6.93487e-05
3.57941e-05
4.94517e-05
1.46358e-05
1.7318e-05
3.53465e-05
4.97328e-05
1.46494e-05
5.74674e-05
7.02087e-05
5.72526e-05
7.0211e-05
3.5794e-05
1.46357e-05
4.94511e-05
1.73193e-05
3.53452e-05
1.46493e-05
4.97316e-05
5.75032e-05
7.02026e-05
7.0212e-05
5.76613e-05
3.60103e-05
1.74197e-05
5.00869e-05
1.46814e-05
4.98363e-05
1.4664e-05
3.64023e-05
5.7502e-05
7.01987e-05
7.0208e-05
5.76602e-05
3.60091e-05
1.74212e-05
1.46813e-05
5.00858e-05
1.4664e-05
4.9836e-05
3.64021e-05
5.74689e-05
7.02111e-05
5.72543e-05
7.02135e-05
3.57945e-05
1.46357e-05
4.94486e-05
1.73188e-05
3.53446e-05
1.46493e-05
4.97287e-05
5.74678e-05
7.02084e-05
5.7253e-05
7.02108e-05
3.60093e-05
1.74195e-05
5.00839e-05
1.46814e-05
4.98336e-05
1.4664e-05
3.64025e-05
5.75031e-05
7.02013e-05
7.02105e-05
5.76612e-05
3.60084e-05
1.74207e-05
1.46813e-05
5.00825e-05
1.46639e-05
4.98336e-05
3.64024e-05
5.75019e-05
7.01986e-05
7.02079e-05
5.76601e-05
6.12473e-05
6.12426e-05
2.12992e-05
6.1385e-05
6.13805e-05
6.93805e-05
6.93632e-05
6.93342e-05
6.93508e-05
2.14783e-05
6.15364e-05
6.15307e-05
6.14099e-05
6.14052e-05
6.93328e-05
6.93493e-05
3.57936e-05
1.4636e-05
4.94513e-05
1.73187e-05
3.53461e-05
1.46497e-05
4.97322e-05
5.74687e-05
7.02114e-05
5.72543e-05
7.02137e-05
5.74677e-05
7.02094e-05
5.72531e-05
7.02117e-05
3.60105e-05
1.742e-05
1.46818e-05
5.00843e-05
1.46644e-05
4.98346e-05
3.64021e-05
3.60096e-05
1.74205e-05
1.46817e-05
5.00861e-05
1.46643e-05
4.9836e-05
3.64016e-05
5.7503e-05
7.02015e-05
7.02107e-05
5.76609e-05
5.7502e-05
7.01996e-05
7.02089e-05
5.76599e-05
6.93801e-05
6.93629e-05
6.93821e-05
6.93648e-05
2.1479e-05
6.15274e-05
6.15355e-05
6.14019e-05
6.14098e-05
6.93324e-05
6.9349e-05
6.93344e-05
6.9351e-05
6.93185e-05
6.93013e-05
6.93203e-05
6.93032e-05
6.15516e-05
6.15587e-05
2.21125e-05
6.16486e-05
6.16552e-05
6.92692e-05
6.92874e-05
6.92712e-05
6.92893e-05
2.228e-05
6.1724e-05
6.17309e-05
6.16631e-05
6.16698e-05
5.77933e-05
7.01896e-05
5.76842e-05
7.01727e-05
3.69073e-05
5.01685e-05
1.4704e-05
1.77416e-05
3.65875e-05
5.03699e-05
1.47332e-05
3.69066e-05
5.01695e-05
1.47039e-05
1.77419e-05
3.65863e-05
5.03703e-05
1.47331e-05
5.78099e-05
7.01415e-05
7.01645e-05
5.78773e-05
5.78085e-05
7.01389e-05
7.0162e-05
5.78759e-05
3.70569e-05
1.78532e-05
5.05971e-05
1.48002e-05
5.0438e-05
1.47667e-05
3.72964e-05
3.70557e-05
1.78536e-05
5.05977e-05
1.48e-05
5.0439e-05
1.47666e-05
3.72956e-05
6.15561e-05
6.15501e-05
2.21127e-05
6.1653e-05
6.16468e-05
6.93184e-05
6.93012e-05
6.92709e-05
6.9289e-05
2.22804e-05
6.17286e-05
6.17223e-05
6.16676e-05
6.16613e-05
6.92691e-05
6.92872e-05
3.69083e-05
5.01711e-05
1.47043e-05
1.77409e-05
3.65878e-05
5.03717e-05
1.47334e-05
5.77935e-05
7.019e-05
5.76846e-05
7.01731e-05
3.69076e-05
1.47042e-05
5.01707e-05
1.77426e-05
3.65867e-05
1.47334e-05
5.03712e-05
5.78106e-05
7.01434e-05
7.01664e-05
5.78785e-05
3.70573e-05
1.78524e-05
5.0599e-05
1.48004e-05
5.04401e-05
1.4767e-05
3.72973e-05
5.78085e-05
7.01393e-05
7.01623e-05
5.78757e-05
3.70558e-05
1.78541e-05
1.48003e-05
5.05982e-05
1.47669e-05
5.04404e-05
3.72963e-05
5.77954e-05
7.01926e-05
5.76854e-05
7.01757e-05
3.69079e-05
1.47042e-05
5.0168e-05
1.77421e-05
3.6586e-05
1.47333e-05
5.03681e-05
5.77945e-05
7.019e-05
5.76843e-05
7.01732e-05
3.70565e-05
1.78522e-05
5.05963e-05
1.48003e-05
5.04379e-05
1.47669e-05
3.72973e-05
5.78105e-05
7.01419e-05
7.01649e-05
5.78785e-05
3.70556e-05
1.78538e-05
1.48003e-05
5.05957e-05
1.47668e-05
5.04377e-05
3.72971e-05
5.78095e-05
7.01393e-05
7.01625e-05
5.78777e-05
6.15581e-05
6.15526e-05
2.21134e-05
6.16542e-05
6.16495e-05
6.9319e-05
6.93019e-05
6.92709e-05
6.92891e-05
2.22809e-05
6.17294e-05
6.1725e-05
6.16689e-05
6.16642e-05
6.92697e-05
6.92879e-05
3.69076e-05
1.47046e-05
5.01706e-05
1.77418e-05
3.6587e-05
1.47338e-05
5.0371e-05
5.77954e-05
7.01928e-05
5.76852e-05
7.01759e-05
5.77944e-05
7.01909e-05
5.76842e-05
7.0174e-05
3.70576e-05
1.78528e-05
1.48008e-05
5.05975e-05
1.47674e-05
5.04393e-05
3.72976e-05
3.70567e-05
1.78533e-05
1.48007e-05
5.05982e-05
1.47673e-05
5.04397e-05
3.72969e-05
5.78106e-05
7.01421e-05
7.01651e-05
5.78786e-05
5.78097e-05
7.01403e-05
7.01633e-05
5.78778e-05
6.93186e-05
6.93014e-05
6.93206e-05
6.93034e-05
2.22821e-05
6.17212e-05
6.1729e-05
6.16602e-05
6.1668e-05
6.92692e-05
6.92874e-05
6.92714e-05
6.92895e-05
6.92546e-05
6.92364e-05
6.92565e-05
6.92384e-05
6.17287e-05
6.17357e-05
2.27358e-05
6.1741e-05
6.17479e-05
6.92069e-05
6.92227e-05
6.92089e-05
6.92246e-05
2.28418e-05
6.17321e-05
6.1739e-05
6.17397e-05
6.17465e-05
5.79038e-05
7.01243e-05
5.78825e-05
7.00959e-05
3.75652e-05
5.0638e-05
1.4828e-05
1.81388e-05
3.74067e-05
5.0704e-05
1.48463e-05
3.75642e-05
5.06389e-05
1.4828e-05
1.8139e-05
3.74056e-05
5.07046e-05
1.48461e-05
5.79039e-05
7.00568e-05
7.00831e-05
5.7908e-05
5.79025e-05
7.00541e-05
7.00805e-05
5.79066e-05
3.76362e-05
1.81975e-05
5.07262e-05
1.48534e-05
5.07147e-05
1.48536e-05
3.77161e-05
3.76351e-05
1.81977e-05
5.07268e-05
1.48533e-05
5.07156e-05
1.48535e-05
3.77153e-05
6.17335e-05
6.1727e-05
2.27357e-05
6.17458e-05
6.17393e-05
6.92545e-05
6.92363e-05
6.92086e-05
6.92244e-05
2.28419e-05
6.17367e-05
6.17304e-05
6.17444e-05
6.17379e-05
6.92069e-05
6.92226e-05
3.7566e-05
5.06403e-05
1.48283e-05
1.81378e-05
3.74073e-05
5.07062e-05
1.48465e-05
5.79041e-05
7.01247e-05
5.78823e-05
7.00962e-05
3.75647e-05
1.48283e-05
5.06397e-05
1.81397e-05
3.74058e-05
1.48465e-05
5.07047e-05
5.79051e-05
7.00587e-05
7.00851e-05
5.79093e-05
3.76369e-05
1.81965e-05
5.07285e-05
1.48536e-05
5.07171e-05
1.48539e-05
3.7717e-05
5.79028e-05
7.00544e-05
7.00808e-05
5.79068e-05
3.76353e-05
1.81983e-05
1.48536e-05
5.07269e-05
1.48538e-05
5.0716e-05
3.77159e-05
5.7907e-05
7.01273e-05
5.78849e-05
7.00989e-05
3.75657e-05
1.48283e-05
5.06375e-05
1.81395e-05
3.74062e-05
1.48465e-05
5.07024e-05
5.7906e-05
7.01247e-05
5.7884e-05
7.00961e-05
3.76368e-05
1.81961e-05
5.07255e-05
1.48536e-05
5.07142e-05
1.48538e-05
3.77177e-05
5.79055e-05
7.00572e-05
7.00836e-05
5.79097e-05
3.76363e-05
1.81982e-05
1.48538e-05
5.07246e-05
1.48539e-05
5.07137e-05
3.77175e-05
5.79046e-05
7.00544e-05
7.00807e-05
5.79088e-05
6.17343e-05
6.17298e-05
2.27367e-05
6.17466e-05
6.17417e-05
6.9255e-05
6.92369e-05
6.92086e-05
6.92243e-05
2.28429e-05
6.17373e-05
6.17328e-05
6.17454e-05
6.17403e-05
6.92074e-05
6.92231e-05
3.75656e-05
1.48287e-05
5.06397e-05
1.81389e-05
3.74069e-05
1.48469e-05
5.07056e-05
5.79067e-05
7.01274e-05
5.78851e-05
7.0099e-05
5.79057e-05
7.01258e-05
5.78842e-05
7.00974e-05
3.76373e-05
1.81969e-05
1.48541e-05
5.07265e-05
1.48543e-05
5.07154e-05
3.77174e-05
3.76366e-05
1.81975e-05
1.48541e-05
5.07279e-05
1.48543e-05
5.07167e-05
3.77168e-05
5.79053e-05
7.00573e-05
7.00836e-05
5.79094e-05
5.79043e-05
7.00556e-05
7.0082e-05
5.79084e-05
6.92545e-05
6.92364e-05
6.92568e-05
6.92386e-05
2.28444e-05
6.1729e-05
6.17375e-05
6.17365e-05
6.17453e-05
6.9207e-05
6.92227e-05
6.92091e-05
6.92249e-05
6.91946e-05
6.91834e-05
6.91965e-05
6.91854e-05
6.17199e-05
6.17269e-05
2.297e-05
6.16953e-05
6.17023e-05
6.91735e-05
6.91753e-05
2.3015e-05
6.16822e-05
6.16891e-05
5.78882e-05
7.00408e-05
5.79012e-05
7.00191e-05
3.77665e-05
5.07267e-05
1.48437e-05
1.82567e-05
3.77484e-05
5.07142e-05
1.48081e-05
3.77658e-05
5.07274e-05
1.48434e-05
1.82568e-05
3.77476e-05
5.0714e-05
1.48093e-05
5.78752e-05
7.00112e-05
5.78483e-05
5.78738e-05
6.99935e-05
7.00086e-05
5.78469e-05
3.77786e-05
1.82546e-05
1.47206e-05
5.07053e-05
1.47667e-05
3.77803e-05
3.77777e-05
1.82544e-05
5.06856e-05
1.47238e-05
5.0706e-05
1.4764e-05
3.77794e-05
6.17245e-05
6.17181e-05
2.29698e-05
6.16998e-05
6.16935e-05
6.91945e-05
6.91834e-05
6.91683e-05
6.91751e-05
2.30151e-05
6.16653e-05
6.16591e-05
6.16868e-05
6.16803e-05
6.91666e-05
6.91734e-05
3.77677e-05
5.07291e-05
1.4844e-05
1.82557e-05
3.77495e-05
5.07167e-05
1.48083e-05
5.78888e-05
7.00411e-05
5.79018e-05
7.00195e-05
3.77669e-05
1.4844e-05
5.07278e-05
1.82576e-05
3.77485e-05
1.48082e-05
5.07136e-05
5.78774e-05
7.00131e-05
3.77799e-05
1.82537e-05
5.07077e-05
1.47671e-05
5.78743e-05
7.00089e-05
3.77786e-05
1.82553e-05
1.4767e-05
5.07078e-05
5.78924e-05
7.00439e-05
5.79043e-05
7.00224e-05
3.77688e-05
1.4844e-05
5.07253e-05
1.82574e-05
3.77499e-05
1.48094e-05
5.07121e-05
5.78914e-05
7.0041e-05
5.79033e-05
7.00194e-05
3.77805e-05
1.82528e-05
5.06847e-05
1.47223e-05
5.07053e-05
1.47655e-05
3.77822e-05
5.78777e-05
6.99966e-05
7.00118e-05
5.78507e-05
3.77803e-05
1.82551e-05
1.47223e-05
5.06835e-05
1.47657e-05
5.07043e-05
3.77818e-05
5.78766e-05
6.99937e-05
7.00088e-05
5.78496e-05
6.17252e-05
6.17208e-05
2.29712e-05
6.17006e-05
6.16961e-05
6.91951e-05
6.9184e-05
6.9175e-05
2.30163e-05
6.16877e-05
6.16832e-05
6.91739e-05
3.77676e-05
1.48443e-05
5.07286e-05
1.82567e-05
3.77492e-05
1.48097e-05
5.0715e-05
5.78918e-05
7.0044e-05
5.79039e-05
7.00224e-05
5.7891e-05
7.00423e-05
5.7903e-05
7.00207e-05
3.778e-05
1.82539e-05
1.47248e-05
1.47648e-05
5.07067e-05
3.77818e-05
3.77795e-05
1.82544e-05
1.47227e-05
5.06864e-05
1.4766e-05
5.07079e-05
3.77814e-05
5.78775e-05
7.00118e-05
5.78507e-05
5.78766e-05
6.99949e-05
7.00101e-05
5.78498e-05
6.91947e-05
6.91836e-05
6.91968e-05
6.91857e-05
2.3017e-05
6.16578e-05
6.1666e-05
6.16794e-05
6.16877e-05
6.91667e-05
6.91735e-05
6.91689e-05
6.91757e-05
6.95532e-05
6.95381e-05
8.78448e-05
7.23333e-05
7.23273e-05
7.23352e-05
7.23294e-05
8.79103e-05
5.81508e-05
4.04892e-05
5.97747e-05
6.89349e-05
4.06927e-05
6.89582e-05
5.79948e-05
5.82187e-05
4.05062e-05
5.97834e-05
6.89464e-05
6.89698e-05
5.80587e-05
4.07124e-05
5.82504e-05
6.89906e-05
5.98248e-05
4.10546e-05
4.0855e-05
6.89678e-05
5.84009e-05
5.83139e-05
6.90023e-05
5.98334e-05
4.10742e-05
6.89795e-05
5.8469e-05
4.08715e-05
8.78159e-05
7.23546e-05
7.23488e-05
7.23526e-05
7.23465e-05
8.77487e-05
6.99188e-05
5.57728e-05
6.93363e-05
6.12951e-05
6.93256e-05
6.11731e-05
6.99233e-05
7.08246e-05
7.46957e-05
7.01561e-05
7.47367e-05
7.08264e-05
6.992e-05
5.56894e-05
6.93097e-05
6.09872e-05
6.93223e-05
6.1114e-05
6.99151e-05
7.08051e-05
7.47837e-05
7.01572e-05
7.47485e-05
7.08041e-05
6.94868e-05
6.94715e-05
6.99188e-05
5.57733e-05
6.12948e-05
6.93365e-05
6.11728e-05
6.93258e-05
6.99233e-05
7.08249e-05
7.46963e-05
7.01577e-05
7.47376e-05
7.08268e-05
6.99201e-05
5.56898e-05
6.09869e-05
6.93099e-05
6.11137e-05
6.93225e-05
6.99152e-05
7.08054e-05
7.47847e-05
7.01588e-05
7.47493e-05
7.08044e-05
6.94871e-05
6.94717e-05
8.8165e-05
7.2249e-05
7.22427e-05
7.22511e-05
7.22453e-05
8.82093e-05
5.91075e-05
4.19059e-05
6.90608e-05
6.03402e-05
5.89698e-05
4.20971e-05
6.90803e-05
5.91752e-05
4.19222e-05
6.90725e-05
6.03489e-05
5.90323e-05
4.21166e-05
6.9092e-05
8.81465e-05
7.22731e-05
7.22673e-05
8.80974e-05
7.22703e-05
7.22641e-05
5.91941e-05
6.9105e-05
6.03832e-05
4.24327e-05
4.22455e-05
6.90875e-05
5.93246e-05
5.92572e-05
6.91168e-05
6.03918e-05
4.24522e-05
4.22616e-05
6.90992e-05
5.93926e-05
6.99464e-05
5.67232e-05
6.94226e-05
6.19576e-05
6.9403e-05
6.18557e-05
6.99569e-05
7.0755e-05
7.48898e-05
7.0177e-05
7.07546e-05
7.49272e-05
6.99441e-05
5.66534e-05
6.93773e-05
6.16957e-05
6.99345e-05
6.93953e-05
6.18064e-05
7.07386e-05
7.49748e-05
7.01795e-05
7.49392e-05
7.07387e-05
6.94275e-05
6.94171e-05
6.99465e-05
5.67233e-05
6.19571e-05
6.94227e-05
6.18553e-05
6.94031e-05
6.99569e-05
7.07553e-05
7.48909e-05
7.01786e-05
7.07549e-05
7.49284e-05
6.99441e-05
5.66536e-05
6.16953e-05
6.93774e-05
6.99346e-05
6.1806e-05
6.93955e-05
7.07389e-05
7.49756e-05
7.01812e-05
7.49401e-05
7.07389e-05
6.9428e-05
6.94175e-05
8.84686e-05
7.21984e-05
7.21925e-05
7.21972e-05
7.21916e-05
8.85278e-05
5.99389e-05
4.32081e-05
6.91623e-05
6.0845e-05
5.98162e-05
4.33812e-05
6.91826e-05
6.00057e-05
4.32239e-05
6.91741e-05
6.08533e-05
5.98789e-05
4.34004e-05
6.91943e-05
8.84419e-05
7.22072e-05
7.22015e-05
8.8377e-05
7.22092e-05
7.22031e-05
6.00199e-05
6.92126e-05
6.08862e-05
4.36851e-05
4.35138e-05
6.91914e-05
6.01396e-05
6.00824e-05
6.92244e-05
6.08945e-05
4.3704e-05
4.35294e-05
6.92031e-05
6.02059e-05
6.99687e-05
5.73875e-05
6.94854e-05
6.2413e-05
6.94822e-05
6.2351e-05
6.99693e-05
7.06748e-05
7.50813e-05
7.02137e-05
7.06787e-05
7.5111e-05
6.99725e-05
5.73471e-05
6.9473e-05
6.22484e-05
6.99699e-05
6.94822e-05
6.23217e-05
7.06498e-05
7.51261e-05
7.02122e-05
7.51123e-05
7.0645e-05
6.938e-05
6.93659e-05
6.99687e-05
5.73879e-05
6.24124e-05
6.94856e-05
6.23502e-05
6.94824e-05
6.99693e-05
7.0675e-05
7.50812e-05
7.02153e-05
7.0679e-05
7.51113e-05
6.99725e-05
5.73476e-05
6.22475e-05
6.9473e-05
6.99699e-05
6.23208e-05
6.94822e-05
7.06502e-05
7.5127e-05
7.02138e-05
7.51131e-05
7.06454e-05
6.93801e-05
6.93661e-05
8.86339e-05
7.21313e-05
7.2125e-05
7.21319e-05
7.2126e-05
8.86437e-05
6.06622e-05
4.43946e-05
6.92626e-05
6.12983e-05
6.05697e-05
4.45487e-05
6.92724e-05
6.07272e-05
4.44099e-05
6.92742e-05
6.13065e-05
6.06317e-05
4.45669e-05
6.9284e-05
8.86336e-05
7.21496e-05
7.21438e-05
8.86229e-05
7.2148e-05
7.21418e-05
6.07158e-05
6.92825e-05
6.13243e-05
4.48049e-05
4.46609e-05
6.92747e-05
6.0798e-05
6.07778e-05
6.92941e-05
6.13324e-05
4.48228e-05
4.46759e-05
6.92862e-05
6.08627e-05
6.992e-05
5.77547e-05
6.94621e-05
6.26409e-05
6.94656e-05
6.26117e-05
6.99154e-05
7.05576e-05
7.51274e-05
7.01889e-05
7.05614e-05
7.5133e-05
6.99333e-05
5.77351e-05
6.94764e-05
6.25628e-05
6.99372e-05
6.94744e-05
6.25994e-05
7.0534e-05
7.51264e-05
7.01791e-05
7.51229e-05
7.05304e-05
6.93185e-05
6.93046e-05
6.99201e-05
5.77547e-05
6.26404e-05
6.94624e-05
6.2611e-05
6.94657e-05
6.99156e-05
7.05581e-05
7.51289e-05
7.01906e-05
7.0562e-05
7.51345e-05
6.99334e-05
5.77352e-05
6.25621e-05
6.94765e-05
6.99373e-05
6.25986e-05
6.94745e-05
7.05345e-05
7.5128e-05
7.01809e-05
7.51245e-05
7.05309e-05
6.93187e-05
6.93047e-05
8.87474e-05
7.20862e-05
7.20798e-05
7.20851e-05
7.20793e-05
8.87731e-05
6.11469e-05
4.53511e-05
6.92997e-05
6.1592e-05
6.10784e-05
4.54675e-05
6.93041e-05
6.12099e-05
4.53656e-05
6.93113e-05
6.16001e-05
6.11396e-05
4.54843e-05
6.93157e-05
8.87374e-05
7.20953e-05
7.20896e-05
8.87057e-05
7.2097e-05
7.20908e-05
6.11864e-05
6.93067e-05
6.16098e-05
4.56518e-05
4.55473e-05
6.93037e-05
6.12468e-05
6.12475e-05
6.93182e-05
6.16177e-05
4.56686e-05
4.55616e-05
6.93153e-05
6.13096e-05
6.9845e-05
5.78989e-05
6.93978e-05
6.26839e-05
6.94021e-05
6.2679e-05
6.98409e-05
7.04539e-05
7.50717e-05
7.01205e-05
7.04562e-05
7.50651e-05
6.98584e-05
5.78982e-05
6.94189e-05
6.26752e-05
6.98627e-05
6.94143e-05
6.26825e-05
7.04333e-05
7.50331e-05
7.01051e-05
7.50403e-05
7.04317e-05
6.92542e-05
6.92399e-05
6.98451e-05
5.79e-05
6.26837e-05
6.93983e-05
6.26787e-05
6.94025e-05
6.98411e-05
7.04544e-05
7.50735e-05
7.01225e-05
7.04568e-05
7.5067e-05
6.98585e-05
5.78993e-05
6.26748e-05
6.94192e-05
6.98629e-05
6.26822e-05
6.94148e-05
7.0434e-05
7.5035e-05
7.0107e-05
7.50421e-05
7.04323e-05
6.92542e-05
6.92398e-05
8.8806e-05
7.20357e-05
7.20288e-05
7.20353e-05
7.2029e-05
8.88097e-05
6.14463e-05
4.60024e-05
6.92965e-05
6.17348e-05
6.14158e-05
4.60671e-05
6.92939e-05
6.15084e-05
4.60161e-05
6.93083e-05
6.17433e-05
6.14771e-05
4.60824e-05
6.93057e-05
8.88091e-05
7.20482e-05
7.20419e-05
8.88022e-05
7.20485e-05
7.20417e-05
6.1458e-05
6.9282e-05
6.1735e-05
4.61515e-05
4.61038e-05
6.92852e-05
6.14764e-05
6.15197e-05
6.92939e-05
6.17438e-05
4.61672e-05
4.6118e-05
6.92971e-05
6.15385e-05
6.97831e-05
5.78938e-05
6.93428e-05
6.26319e-05
6.93457e-05
6.26378e-05
6.97805e-05
7.03792e-05
7.49426e-05
7.00383e-05
7.03784e-05
7.49358e-05
6.97938e-05
5.79022e-05
6.93583e-05
6.26598e-05
6.97969e-05
6.93551e-05
6.26552e-05
7.03639e-05
7.49047e-05
7.00262e-05
7.49114e-05
7.03656e-05
6.91958e-05
6.91849e-05
6.97833e-05
5.78956e-05
6.2632e-05
6.93434e-05
6.26378e-05
6.93462e-05
6.97808e-05
7.03798e-05
7.49444e-05
7.00402e-05
7.03791e-05
7.49378e-05
6.9794e-05
5.79036e-05
6.26595e-05
6.93588e-05
6.97971e-05
6.2655e-05
6.93556e-05
7.03646e-05
7.49069e-05
7.00281e-05
7.49133e-05
7.03662e-05
6.91959e-05
6.91849e-05
8.87476e-05
7.19882e-05
7.19815e-05
7.19863e-05
7.19801e-05
8.87425e-05
6.14827e-05
4.62358e-05
6.92444e-05
6.17115e-05
6.14845e-05
4.62393e-05
6.92409e-05
6.15446e-05
4.625e-05
6.92562e-05
6.17197e-05
6.15461e-05
4.62538e-05
6.92527e-05
8.8765e-05
7.19973e-05
7.19911e-05
8.87703e-05
7.19985e-05
7.19918e-05
6.14758e-05
6.92283e-05
6.16977e-05
4.62407e-05
4.62387e-05
6.92312e-05
6.14715e-05
6.15377e-05
6.92401e-05
6.17061e-05
4.62551e-05
4.62528e-05
6.92431e-05
6.15336e-05
8.7842e-05
7.23273e-05
7.23329e-05
7.23293e-05
7.23351e-05
8.79077e-05
5.82173e-05
4.05036e-05
5.97824e-05
6.8946e-05
6.89693e-05
5.80548e-05
4.07103e-05
5.81558e-05
4.04858e-05
5.97761e-05
6.89351e-05
4.0695e-05
6.89585e-05
5.79876e-05
5.83097e-05
6.90019e-05
5.98324e-05
4.10722e-05
6.8979e-05
5.8468e-05
4.08686e-05
5.82424e-05
6.8991e-05
5.9826e-05
4.10567e-05
4.08508e-05
6.89681e-05
5.84065e-05
8.78131e-05
7.23487e-05
7.23545e-05
7.23465e-05
7.23521e-05
8.7746e-05
6.95518e-05
6.95367e-05
6.95056e-05
6.952e-05
8.79958e-05
7.23101e-05
7.23159e-05
8.79348e-05
7.23076e-05
7.23132e-05
5.87955e-05
4.17724e-05
6.01221e-05
6.90638e-05
6.90425e-05
5.89452e-05
4.15757e-05
5.87285e-05
4.17573e-05
6.01158e-05
6.90529e-05
6.90317e-05
4.15581e-05
5.8884e-05
5.87102e-05
6.90113e-05
4.12261e-05
6.0077e-05
5.85565e-05
6.90336e-05
4.14258e-05
5.8649e-05
6.90004e-05
4.12083e-05
6.00708e-05
5.84894e-05
6.90227e-05
4.14105e-05
8.80196e-05
7.22862e-05
7.22919e-05
7.22893e-05
7.22951e-05
8.80735e-05
6.95041e-05
6.95185e-05
6.9883e-05
6.0514e-05
6.9257e-05
5.46558e-05
6.03638e-05
6.9238e-05
6.98942e-05
7.09089e-05
7.01036e-05
7.43878e-05
7.44488e-05
7.09095e-05
7.08898e-05
7.45315e-05
7.01074e-05
7.44723e-05
7.08891e-05
6.98804e-05
5.45525e-05
6.01323e-05
6.92133e-05
6.02898e-05
6.92308e-05
6.98702e-05
6.98818e-05
6.92564e-05
6.05103e-05
5.46545e-05
6.92374e-05
6.03598e-05
6.9893e-05
7.09079e-05
7.01004e-05