/*--------------------------------*- C++ -*----------------------------------*\
| =========                 |                                                 |
| \\      /  F ield         | OpenFOAM: The Open Source CFD Toolbox           |
|  \\    /   O peration     | Version:  v2006                                 |
|   \\  /    A nd           | Website:  www.openfoam.com                      |
|    \\/     M anipulation  |                                                 |
\*---------------------------------------------------------------------------*/
FoamFile
{
    version     2.0;
    format      ascii;
    class       volVectorField;
    location    "625";
    object      U;
}
// * * * * * * * * * * * * * * * * * * * * * * * * * * * * * * * * * * * * * //

dimensions      [0 1 -1 0 0 0 0];


internalField   nonuniform List<vector> 
43024
(
(0.000107945 0.0001079 0.100299)
(-0.000190207 0.000119268 0.100385)
(0.000119318 -0.000190207 0.100385)
(-0.000239584 -0.000239574 0.100397)
(9.42514e-05 9.42323e-05 0.10086)
(-0.000158955 9.67963e-05 0.100942)
(9.68112e-05 -0.000159001 0.100942)
(-0.000201067 -0.000201152 0.100968)
(9.54053e-05 9.54328e-05 0.10137)
(-0.000155799 9.34699e-05 0.101449)
(9.34516e-05 -0.000155826 0.101449)
(-0.000201999 -0.000202063 0.101471)
(9.38634e-05 9.39113e-05 0.101892)
(-0.000152061 9.01015e-05 0.101957)
(9.00902e-05 -0.000152059 0.101957)
(-0.000198907 -0.000198992 0.101964)
(9.11103e-05 9.11624e-05 0.102398)
(-0.000146307 8.5579e-05 0.102446)
(8.55744e-05 -0.000146296 0.102446)
(-0.000193531 -0.000193614 0.102432)
(8.81313e-05 8.81967e-05 0.102885)
(-0.000140644 8.16078e-05 0.102912)
(8.1604e-05 -0.000140627 0.102912)
(-0.000188177 -0.000188264 0.10287)
(8.52956e-05 8.53772e-05 0.103353)
(-0.000135515 7.8411e-05 0.103354)
(7.84077e-05 -0.000135495 0.103354)
(-0.000183675 -0.00018377 0.103281)
(8.28174e-05 8.28841e-05 0.103803)
(-0.000131082 7.59627e-05 0.103774)
(7.59486e-05 -0.000131055 0.103774)
(-0.000180176 -0.000180338 0.103664)
(8.06453e-05 8.06089e-05 0.104237)
(-0.000127337 7.42196e-05 0.104174)
(7.42624e-05 -0.000127319 0.104175)
(-0.000178078 -0.000178096 0.104023)
(7.87319e-05 7.87135e-05 0.104658)
(-0.000124105 7.28831e-05 0.104557)
(7.29219e-05 -0.00012409 0.104557)
(-0.000176901 -0.000176956 0.104359)
(7.70892e-05 7.70811e-05 0.105066)
(-0.000121276 7.17367e-05 0.104924)
(7.17667e-05 -0.000121255 0.104924)
(-0.000176311 -0.000176387 0.104673)
(7.55757e-05 7.55774e-05 0.105464)
(-0.000118721 7.06368e-05 0.105277)
(7.06667e-05 -0.0001187 0.105277)
(-0.000175882 -0.00017598 0.104967)
(7.4131e-05 7.41412e-05 0.105851)
(-0.000116302 6.94947e-05 0.105615)
(6.9518e-05 -0.000116281 0.105615)
(-0.000175494 -0.000175629 0.105239)
(7.27456e-05 7.2759e-05 0.106229)
(-0.000113912 6.82347e-05 0.105938)
(6.82323e-05 -0.000113884 0.105938)
(-0.000175033 -0.000175088 0.105491)
(7.13421e-05 7.13499e-05 0.106598)
(-0.000111614 6.71885e-05 0.106248)
(6.71687e-05 -0.000111575 0.106248)
(-0.000174504 -0.000174482 0.10572)
(6.99132e-05 6.99211e-05 0.106957)
(-0.000109481 6.6169e-05 0.106543)
(6.61355e-05 -0.000109407 0.106543)
(-0.000173381 -0.000173376 0.105926)
(6.83703e-05 6.83794e-05 0.107308)
(-0.000107467 6.50997e-05 0.106822)
(6.50645e-05 -0.000107394 0.106822)
(-0.000172072 -0.000172095 0.106108)
(6.68584e-05 6.6865e-05 0.107649)
(-0.000105452 6.40202e-05 0.107086)
(6.39973e-05 -0.000105376 0.107086)
(-0.000170448 -0.000170467 0.106264)
(6.53773e-05 6.53876e-05 0.107982)
(-0.000103561 6.2969e-05 0.107334)
(6.29383e-05 -0.000103512 0.107334)
(-0.000168316 -0.000168351 0.106394)
(6.38236e-05 6.38227e-05 0.108306)
(-0.000101606 6.18973e-05 0.107565)
(6.1895e-05 -0.000101567 0.107565)
(-0.000165593 -0.000165642 0.106497)
(6.23011e-05 6.23135e-05 0.108622)
(-9.95786e-05 6.08538e-05 0.107779)
(6.08769e-05 -9.95498e-05 0.107779)
(-0.000162403 -0.000162453 0.106573)
(0.000134949 0.000134977 0.100282)
(0.000124244 0.000152885 0.100229)
(-0.000124248 0.000152835 0.100229)
(-0.000134971 0.000134901 0.100282)
(0.000152888 0.00012422 0.100229)
(0.00015286 -0.000124246 0.100229)
(9.08e-05 9.0762e-05 0.100151)
(-9.08032e-05 9.07439e-05 0.100151)
(9.07753e-05 -9.08058e-05 0.100151)
(-9.07737e-05 -9.0787e-05 0.100151)
(-0.000152905 0.000124181 0.100229)
(-0.00015287 -0.000124189 0.100229)
(0.000134935 -0.000134989 0.100282)
(0.000124211 -0.000152915 0.100229)
(-0.000124187 -0.000152862 0.100229)
(-0.000134958 -0.00013492 0.100282)
(0.000239615 0.000239634 0.100397)
(0.000111256 0.000111147 0.100892)
(0.000119381 0.000190143 0.100385)
(-0.000119365 0.00019009 0.100385)
(8.90583e-05 0.00014718 0.100823)
(-8.90789e-05 0.00014718 0.100823)
(-0.000239669 0.000239541 0.100397)
(-0.000111288 0.00011112 0.100892)
(0.000190205 0.000119299 0.100385)
(0.000190145 -0.000119347 0.100385)
(0.000147157 8.90358e-05 0.100823)
(0.000147211 -8.91247e-05 0.100823)
(-0.000190142 -0.000119353 0.100385)
(-0.000147179 8.90516e-05 0.100823)
(-0.000147223 -8.91127e-05 0.100823)
(0.000239563 -0.000239694 0.100397)
(0.000111238 -0.000111316 0.100892)
(-0.000119338 -0.000190167 0.100385)
(8.90855e-05 -0.000147237 0.100823)
(-8.90739e-05 -0.000147205 0.100823)
(-0.00011127 -0.000111334 0.100892)
(0.00020109 0.000200948 0.100967)
(0.0001057 0.00010563 0.101395)
(9.67827e-05 0.00015897 0.100941)
(-9.68083e-05 0.000158955 0.100941)
(9.4171e-05 0.000156659 0.10132)
(-9.42136e-05 0.000156663 0.10132)
(-0.000201136 0.000200911 0.100967)
(-0.000105701 0.000105649 0.101395)
(0.00015895 9.67895e-05 0.100942)
(0.00015899 -9.68515e-05 0.100942)
(0.000156622 9.42125e-05 0.10132)
(0.000156655 -9.42183e-05 0.10132)
(-0.000159002 -9.68287e-05 0.100942)
(-0.000156622 9.42069e-05 0.10132)
(-0.00015667 -9.42013e-05 0.10132)
(0.000201041 -0.000201158 0.100968)
(0.000105693 -0.000105707 0.101395)
(-9.68155e-05 -0.000158969 0.100942)
(9.41927e-05 -0.000156654 0.10132)
(-9.42163e-05 -0.000156636 0.10132)
(-0.000105712 -0.000105745 0.101395)
(0.000202026 0.000201925 0.101471)
(9.66101e-05 9.65405e-05 0.101893)
(9.34262e-05 0.000155839 0.101449)
(-9.3465e-05 0.000155849 0.101449)
(9.111e-05 0.000153324 0.101832)
(-9.11372e-05 0.000153323 0.101832)
(-0.00020205 0.000201933 0.101471)
(-9.66123e-05 9.65707e-05 0.101893)
(0.000155802 9.3478e-05 0.101449)
(0.000155832 -9.34747e-05 0.101449)
(0.00015327 9.11774e-05 0.101832)
(0.000153301 -9.11585e-05 0.101832)
(-0.000155848 -9.34606e-05 0.101449)
(-0.000153287 9.11578e-05 0.101832)
(-0.000153311 -9.11298e-05 0.101832)
(0.000201976 -0.000202054 0.101471)
(9.65789e-05 -9.65878e-05 0.101893)
(-9.34802e-05 -0.00015581 0.101449)
(9.11415e-05 -0.000153286 0.101832)
(-9.1174e-05 -0.000153276 0.101832)
(-9.65995e-05 -9.6649e-05 0.101893)
(0.000198953 0.00019885 0.101964)
(8.60668e-05 8.59964e-05 0.102366)
(9.00628e-05 0.000152103 0.101957)
(-9.00776e-05 0.000152091 0.101957)
(8.66581e-05 0.000147822 0.102326)
(-8.66682e-05 0.000147811 0.102326)
(-0.000198975 0.000198863 0.101964)
(-8.60591e-05 8.60235e-05 0.102366)
(0.000152045 9.01274e-05 0.101957)
(0.000152075 -9.01051e-05 0.101957)
(0.000147769 8.67197e-05 0.102326)
(0.000147799 -8.67005e-05 0.102326)
(-0.000152083 -9.00771e-05 0.101957)
(-0.000147789 8.6693e-05 0.102326)
(-0.000147804 -8.66725e-05 0.102326)
(0.000198875 -0.000198954 0.101964)
(8.60296e-05 -8.60309e-05 0.102366)
(-9.01216e-05 -0.000152049 0.101957)
(8.66879e-05 -0.000147779 0.102326)
(-8.67215e-05 -0.000147775 0.102326)
(-8.60578e-05 -8.61042e-05 0.102366)
(0.000193553 0.000193451 0.102432)
(7.604e-05 7.59631e-05 0.102812)
(8.55444e-05 0.000146341 0.102446)
(-8.55533e-05 0.000146329 0.102446)
(8.24873e-05 0.000142052 0.102797)
(-8.24934e-05 0.000142039 0.102797)
(-0.000193581 0.000193481 0.102432)
(-7.60144e-05 7.59929e-05 0.102812)
(0.000146289 8.56051e-05 0.102446)
(0.000146317 -8.55854e-05 0.102446)
(0.000141998 8.25516e-05 0.102798)
(0.000142027 -8.25292e-05 0.102798)
(-0.000146321 -8.55557e-05 0.102446)
(-0.000142018 8.25247e-05 0.102798)
(-0.000142032 -8.25047e-05 0.102798)
(0.000193479 -0.000193554 0.102432)
(7.59993e-05 -7.60011e-05 0.102812)
(-8.56049e-05 -0.000146291 0.102446)
(8.25193e-05 -0.000142 0.102798)
(-8.25599e-05 -0.000142006 0.102798)
(-7.60632e-05 -7.61085e-05 0.102812)
(0.000188144 0.000188054 0.10287)
(6.70311e-05 6.69445e-05 0.103229)
(8.15751e-05 0.000140684 0.102912)
(-8.15756e-05 0.000140666 0.102912)
(7.90873e-05 0.000136772 0.103245)
(-7.90889e-05 0.000136757 0.103245)
(-0.0001882 0.000188114 0.10287)
(-6.70206e-05 6.70158e-05 0.103229)
(0.000140626 8.1641e-05 0.102912)
(0.000140654 -8.16105e-05 0.102912)
(0.000136711 7.91607e-05 0.103245)
(0.000136739 -7.91262e-05 0.103245)
(-0.000140653 -8.1575e-05 0.102912)
(-0.000136737 7.91338e-05 0.103245)
(-0.000136748 -7.91092e-05 0.103245)
(0.000188068 -0.000188141 0.10287)
(6.69756e-05 -6.69741e-05 0.103229)
(-8.16319e-05 -0.000140624 0.102912)
(7.91214e-05 -0.000136708 0.103245)
(-7.91749e-05 -0.000136724 0.103245)
(-6.7146e-05 -6.71996e-05 0.103229)
(0.000183611 0.000183531 0.10328)
(5.90693e-05 5.89565e-05 0.103621)
(7.83713e-05 0.000135552 0.103354)
(-7.83651e-05 0.000135537 0.103354)
(7.64284e-05 0.000132144 0.103671)
(-7.64444e-05 0.000132148 0.103671)
(-0.00018373 0.000183638 0.10328)
(-5.90702e-05 5.90371e-05 0.10362)
(0.0001355 7.84502e-05 0.103354)
(0.000135525 -7.84093e-05 0.103354)
(0.000132098 7.65245e-05 0.103671)
(0.000132118 -7.64806e-05 0.103671)
(-0.00013552 -7.83654e-05 0.103354)
(-0.00013213 7.65051e-05 0.103671)
(-0.000132132 -7.64717e-05 0.103671)
(0.000183556 -0.000183625 0.103281)
(5.89646e-05 -5.89737e-05 0.103621)
(-7.84363e-05 -0.000135495 0.103354)
(7.64836e-05 -0.000132088 0.103671)
(-7.65594e-05 -0.000132114 0.103671)
(-5.92443e-05 -5.93125e-05 0.10362)
(0.000180148 0.000179977 0.103664)
(5.24529e-05 5.25048e-05 0.103988)
(7.593e-05 0.000131122 0.103774)
(-7.59279e-05 0.000131112 0.103774)
(7.46682e-05 0.000128265 0.104076)
(-7.46857e-05 0.00012827 0.104076)
(-0.000180303 0.000180143 0.103664)
(-5.24946e-05 5.25924e-05 0.103987)
(0.000131068 7.60029e-05 0.103774)
(0.000131087 -7.59485e-05 0.103774)
(0.000128189 7.46144e-05 0.104076)
(0.000128233 -7.46795e-05 0.104076)
(-0.000131077 -7.59035e-05 0.103774)
(-0.000128225 7.45948e-05 0.104076)
(-0.000128234 -7.46575e-05 0.104076)
(0.000180022 -0.000180122 0.103664)
(5.24853e-05 -5.24315e-05 0.103988)
(-7.59883e-05 -0.000131055 0.103774)
(7.46309e-05 -0.000128192 0.104076)
(-7.46058e-05 -0.000128184 0.104076)
(-5.26466e-05 -5.25851e-05 0.103987)
(0.000178057 0.000178031 0.104022)
(4.67337e-05 4.6749e-05 0.104332)
(7.43149e-05 0.000127395 0.104174)
(-7.43103e-05 0.000127387 0.104174)
(7.32685e-05 0.000124923 0.104463)
(-7.32899e-05 0.000124932 0.104463)
(-0.000178208 0.000178141 0.104022)
(-4.67745e-05 4.68462e-05 0.104332)
(0.000127321 7.42474e-05 0.104174)
(0.000127361 -7.43131e-05 0.104174)
(0.000124855 7.32167e-05 0.104463)
(0.000124897 -7.32773e-05 0.104463)
(-0.000127348 -7.42745e-05 0.104174)
(-0.000124886 7.32043e-05 0.104463)
(-0.000124899 -7.32649e-05 0.104463)
(0.00017804 -0.000178097 0.104023)
(4.67394e-05 -4.66918e-05 0.104332)
(-7.42202e-05 -0.000127299 0.104174)
(7.32279e-05 -0.000124853 0.104463)
(-7.32169e-05 -0.000124846 0.104463)
(-4.69068e-05 -4.68896e-05 0.104332)
(0.000176895 0.00017685 0.104358)
(4.14298e-05 4.14334e-05 0.104657)
(7.29764e-05 0.000124167 0.104557)
(-7.29675e-05 0.000124155 0.104557)
(7.20828e-05 0.000122002 0.104834)
(-7.20957e-05 0.000122006 0.104834)
(-0.000177062 0.000176995 0.104358)
(-4.14123e-05 4.14692e-05 0.104657)
(0.000124097 7.29202e-05 0.104557)
(0.000124135 -7.29743e-05 0.104557)
(0.000121932 7.20333e-05 0.104834)
(0.000121978 -7.20909e-05 0.104834)
(-0.000124129 -7.2944e-05 0.104557)
(-0.000121959 7.20155e-05 0.104834)
(-0.000121988 -7.20887e-05 0.104834)
(0.000176876 -0.000176933 0.104358)
(4.14028e-05 -4.13639e-05 0.104657)
(-7.28989e-05 -0.000124076 0.104557)
(7.2039e-05 -0.000121931 0.104834)
(-7.20474e-05 -0.000121933 0.104834)
(-4.1519e-05 -4.15256e-05 0.104657)
(0.000176228 0.000176164 0.104673)
(3.6342e-05 3.63219e-05 0.104962)
(7.18185e-05 0.000121333 0.104924)
(-7.1819e-05 0.000121326 0.104924)
(7.09633e-05 0.000119392 0.10519)
(-7.09793e-05 0.000119402 0.10519)
(-0.000176366 0.000176295 0.104673)
(-3.62706e-05 3.63061e-05 0.104961)
(0.000121262 7.17709e-05 0.104924)
(0.000121303 -7.18188e-05 0.104924)
(0.000119314 7.09217e-05 0.10519)
(0.000119367 -7.09775e-05 0.10519)
(-0.0001213 -7.17926e-05 0.104924)
(-0.000119349 7.09119e-05 0.10519)
(-0.000119374 -7.09687e-05 0.10519)
(0.000176192 -0.000176251 0.104673)
(3.62363e-05 -3.62243e-05 0.104961)
(-7.17538e-05 -0.000121242 0.104924)
(7.09243e-05 -0.000119317 0.10519)
(-7.09362e-05 -0.000119315 0.10519)
(-3.63866e-05 -3.64067e-05 0.104961)
(0.000175758 0.000175682 0.104967)
(3.1475e-05 3.14315e-05 0.105246)
(7.07056e-05 0.000118784 0.105276)
(-7.07018e-05 0.000118771 0.105276)
(6.98276e-05 0.000116959 0.105531)
(-6.98418e-05 0.000116966 0.105531)
(-0.000175938 0.000175861 0.104966)
(-3.13486e-05 3.13693e-05 0.105246)
(0.000118708 7.06667e-05 0.105277)
(0.00011875 -7.07103e-05 0.105276)
(0.00011687 6.97947e-05 0.105531)
(0.000116921 -6.98437e-05 0.105531)
(-0.000118741 -7.06738e-05 0.105277)
(-0.0001169 6.97826e-05 0.105531)
(-0.000116919 -6.98023e-05 0.105531)
(0.000175702 -0.000175777 0.104967)
(3.13387e-05 -3.13308e-05 0.105246)
(-7.06423e-05 -0.000118679 0.105277)
(6.9802e-05 -0.000116872 0.105531)
(-6.97912e-05 -0.000116857 0.105531)
(-3.12493e-05 -3.12964e-05 0.105246)
(0.000175535 0.000175401 0.10524)
(2.65139e-05 2.65584e-05 0.105511)
(6.9532e-05 0.00011637 0.105614)
(-6.95412e-05 0.000116369 0.105614)
(6.86057e-05 0.000114575 0.105859)
(-6.85877e-05 0.000114549 0.105858)
(-0.000175591 0.000175494 0.105239)
(-2.64949e-05 2.66081e-05 0.105511)
(0.000116284 6.95108e-05 0.105615)
(0.000116332 -6.95533e-05 0.105614)
(0.000114479 6.85614e-05 0.105859)
(0.000114526 -6.85862e-05 0.105859)
(-0.00011631 -6.95046e-05 0.105614)
(-0.000114489 6.85105e-05 0.105859)
(-0.000114524 -6.8594e-05 0.105859)
(0.000175368 -0.000175466 0.10524)
(2.65679e-05 -2.65283e-05 0.105511)
(-6.94835e-05 -0.000116248 0.105615)
(6.85465e-05 -0.000114477 0.105859)
(-6.85708e-05 -0.00011445 0.105859)
(-2.63837e-05 -2.63578e-05 0.105511)
(0.000175308 0.000175277 0.105491)
(2.13082e-05 2.13875e-05 0.105756)
(6.83248e-05 0.000113975 0.105938)
(-6.83284e-05 0.000113977 0.105938)
(6.75332e-05 0.000112251 0.106172)
(-6.75505e-05 0.000112242 0.106171)
(-0.000175196 0.000175176 0.105491)
(-2.13073e-05 2.14351e-05 0.105755)
(0.000113882 6.82475e-05 0.105938)
(0.000113942 -6.82926e-05 0.105938)
(0.000112151 6.74482e-05 0.106172)
(0.000112199 -6.75067e-05 0.106172)
(-0.000113948 -6.83178e-05 0.105938)
(-0.000112183 6.7459e-05 0.106172)
(-0.000112209 -6.75125e-05 0.106172)
(0.000175204 -0.00017525 0.105491)
(2.14018e-05 -2.12872e-05 0.105755)
(-6.82594e-05 -0.000113868 0.105938)
(6.74314e-05 -0.000112147 0.106172)
(-6.74095e-05 -0.000112122 0.106172)
(-2.1518e-05 -2.13705e-05 0.105755)
(0.000174369 0.000174359 0.10572)
(1.64264e-05 1.64969e-05 0.105977)
(6.72777e-05 0.000111679 0.106248)
(-6.72801e-05 0.000111657 0.106247)
(6.65213e-05 0.000110031 0.10647)
(-6.65366e-05 0.000110089 0.10647)
(-0.000174457 0.000174455 0.10572)
(-1.64259e-05 1.65126e-05 0.105977)
(0.000111578 6.71961e-05 0.106248)
(0.000111621 -6.72466e-05 0.106248)
(0.000109938 6.64354e-05 0.10647)
(0.000110048 -6.6507e-05 0.10647)
(-0.000111641 -6.72575e-05 0.106248)
(-0.000109995 6.6438e-05 0.10647)
(-0.00011005 -6.64859e-05 0.10647)
(0.000174401 -0.000174416 0.10572)
(1.65295e-05 -1.64423e-05 0.105977)
(-6.71531e-05 -0.000111552 0.106248)
(6.6409e-05 -0.000109928 0.10647)
(-6.63809e-05 -0.00010997 0.10647)
(-1.64674e-05 -1.63677e-05 0.105977)
(0.000173436 0.000173425 0.105926)
(1.17144e-05 1.17827e-05 0.106176)
(6.62525e-05 0.000109513 0.106542)
(-6.6264e-05 0.000109576 0.106542)
(6.54542e-05 0.000108008 0.106753)
(-6.54476e-05 0.000108068 0.106753)
(-0.000173402 0.000173363 0.105926)
(-1.17088e-05 1.1812e-05 0.106176)
(0.000109413 6.61633e-05 0.106543)
(0.000109528 -6.62324e-05 0.106542)
(0.00010791 6.53686e-05 0.106754)
(0.000108004 -6.54226e-05 0.106753)
(-0.000109546 -6.62416e-05 0.106542)
(-0.000107952 6.53614e-05 0.106754)
(-0.000108011 -6.54175e-05 0.106753)
(0.000173399 -0.000173434 0.105926)
(1.17541e-05 -1.17012e-05 0.106176)
(-6.61331e-05 -0.000109463 0.106543)
(6.53234e-05 -0.000107902 0.106754)
(-6.5305e-05 -0.000107925 0.106754)
(-1.18396e-05 -1.17472e-05 0.106176)
(0.000172034 0.000172012 0.106108)
(7.52552e-06 7.57528e-06 0.10635)
(6.51879e-05 0.000107496 0.106822)
(-6.51867e-05 0.000107566 0.106822)
(6.43724e-05 0.000105954 0.107021)
(-6.43831e-05 0.000106035 0.107021)
(-0.000172062 0.000172031 0.106108)
(-7.50839e-06 7.57753e-06 0.10635)
(0.0001074 6.5104e-05 0.106822)
(0.000107498 -6.51619e-05 0.106822)
(0.000105868 6.4272e-05 0.107022)
(0.000105969 -6.43626e-05 0.107021)
(-0.000107508 -6.51486e-05 0.106822)
(-0.000105935 6.42844e-05 0.107022)
(-0.000105992 -6.43622e-05 0.107021)
(0.000172004 -0.000172073 0.106108)
(7.60248e-06 -7.54533e-06 0.10635)
(-6.50387e-05 -0.00010742 0.106822)
(6.4269e-05 -0.000105858 0.107022)
(-6.42509e-05 -0.000105895 0.107022)
(-7.61025e-06 -7.52769e-06 0.10635)
(0.000170356 0.000170323 0.106264)
(3.62072e-06 3.6868e-06 0.106498)
(6.41095e-05 0.000105488 0.107086)
(-6.41174e-05 0.000105531 0.107086)
(6.33249e-05 0.0001041 0.107273)
(-6.33187e-05 0.000104112 0.107273)
(-0.000170383 0.000170323 0.106264)
(-3.61376e-06 3.7205e-06 0.106498)
(0.000105389 6.40119e-05 0.107086)
(0.000105486 -6.40888e-05 0.107086)
(0.000104 6.32382e-05 0.107274)
(0.000104103 -6.33081e-05 0.107273)
(-0.0001055 -6.41146e-05 0.107086)
(-0.000104025 6.32307e-05 0.107274)
(-0.000104087 -6.33019e-05 0.107273)
(0.000170353 -0.000170408 0.106264)
(3.68542e-06 -3.6301e-06 0.106498)
(-6.40031e-05 -0.000105403 0.107086)
(6.32127e-05 -0.000103992 0.107274)
(-6.31906e-05 -0.000103991 0.107274)
(-3.78579e-06 -3.70908e-06 0.106498)
(0.000168244 0.00016822 0.106394)
(1.41056e-07 1.69456e-07 0.106619)
(6.30585e-05 0.000103633 0.107334)
(-6.30557e-05 0.000103642 0.107334)
(6.22491e-05 0.000102136 0.107509)
(-6.22572e-05 0.000102162 0.107508)
(-0.000168295 0.000168265 0.106394)
(-1.21823e-07 2.11754e-07 0.10662)
(0.000103529 6.29688e-05 0.107334)
(0.000103626 -6.3031e-05 0.107334)
(0.000102059 6.21381e-05 0.107509)
(0.000102177 -6.2257e-05 0.107508)
(-0.000103615 -6.30276e-05 0.107334)
(-0.000102091 6.21608e-05 0.107509)
(-0.000102134 -6.22179e-05 0.107508)
(0.000168231 -0.000168298 0.106394)
(2.12704e-07 -1.67553e-07 0.106619)
(-6.29153e-05 -0.000103518 0.107334)
(6.21622e-05 -0.000102063 0.107509)
(-6.20998e-05 -0.000102035 0.107509)
(-2.21487e-07 -1.61057e-07 0.106619)
(0.000165592 0.00016553 0.106497)
(-2.96198e-06 -2.95235e-06 0.106713)
(6.19734e-05 0.000101629 0.107565)
(-6.19968e-05 0.000101668 0.107564)
(6.12494e-05 0.000100169 0.107727)
(-6.1225e-05 0.000100146 0.107726)
(-0.000165627 0.000165571 0.106497)
(3.0075e-06 -2.94301e-06 0.106713)
(0.000101569 6.18699e-05 0.107565)
(0.000101678 -6.1993e-05 0.107564)
(0.000100086 6.11689e-05 0.107727)
(0.000100162 -6.12197e-05 0.107726)
(-0.00010164 -6.19606e-05 0.107565)
(-0.000100093 6.112e-05 0.107727)
(-0.000100136 -6.1214e-05 0.107726)
(0.000165587 -0.000165654 0.106497)
(-2.92962e-06 2.96668e-06 0.106713)
(-6.18437e-05 -0.000101548 0.107565)
(6.11217e-05 -0.000100054 0.107727)
(-6.11064e-05 -0.000100042 0.107727)
(2.91472e-06 2.9642e-06 0.106712)
(0.000162406 0.000162321 0.106573)
(6.09608e-05 9.96358e-05 0.107778)
(-6.09562e-05 9.96297e-05 0.107778)
(-0.000162402 0.00016232 0.106572)
(9.95519e-05 6.08935e-05 0.107779)
(9.96591e-05 -6.09771e-05 0.107778)
(-9.96122e-05 -6.09467e-05 0.107778)
(0.000162346 -0.000162424 0.106573)
(-6.08454e-05 -9.95217e-05 0.107779)
(-3.34699e-07 -3.36852e-07 0.0999988)
(1.68267e-05 1.6824e-05 0.100003)
(-4.50185e-07 1.3933e-05 0.1)
(1.39394e-05 -4.53625e-07 0.1)
(-4.6598e-05 5.73195e-06 0.100009)
(-1.52714e-05 1.5586e-05 0.0999999)
(-0.000127874 6.04438e-05 0.100058)
(-1.31108e-05 -8.63681e-07 0.0999958)
(5.73655e-06 -4.65878e-05 0.100009)
(1.55921e-05 -1.52731e-05 0.0999999)
(-8.60365e-07 -1.31109e-05 0.0999958)
(6.04522e-05 -0.000127939 0.100058)
(-1.87295e-05 -1.87312e-05 0.100003)
(-0.000134951 -8.10881e-05 0.100055)
(-8.10853e-05 -0.000134953 0.100055)
(-3.48936e-05 0.000135796 0.100724)
(0.000176675 0.000389385 0.0994172)
(2.31135e-06 0.000305476 0.100517)
(-8.43552e-05 0.000243769 0.0991474)
(-0.000303302 0.000837517 0.0977722)
(-0.000129139 0.000304566 0.0957184)
(0.000135816 -3.49464e-05 0.100724)
(0.000389003 0.000175824 0.0994173)
(0.000306005 2.29266e-06 0.100517)
(0.000243391 -8.39982e-05 0.0991471)
(-0.000107953 0.000107879 0.100299)
(0.000107918 -0.000107956 0.100299)
(-0.000107922 -0.000107932 0.100299)
(9.17258e-05 9.16776e-05 0.100739)
(-9.17354e-05 9.16869e-05 0.100739)
(9.17155e-05 -9.17618e-05 0.100739)
(-9.17244e-05 -9.17886e-05 0.100739)
(-0.000280742 6.44763e-06 0.100754)
(-0.000399026 0.000229265 0.100526)
(-0.000175285 3.73824e-05 0.100332)
(-0.000153251 9.44842e-05 0.100558)
(-0.00035899 1.56264e-05 0.100479)
(-0.000148752 0.000198747 0.100739)
(-0.000152725 3.32779e-05 0.100497)
(0.000837016 -0.000301666 0.0977707)
(0.000304774 -0.000128567 0.0957186)
(6.39301e-06 -0.000280741 0.100754)
(3.74137e-05 -0.000175281 0.100332)
(0.000229245 -0.000399138 0.100526)
(9.44952e-05 -0.000153256 0.100558)
(1.56597e-05 -0.000358952 0.100479)
(3.32993e-05 -0.000152737 0.100497)
(0.000198708 -0.000149011 0.100739)
(-0.000372834 -0.000141982 0.100361)
(-0.000141891 -0.000372784 0.100361)
(-0.000111967 -0.000112074 0.100655)
(1.09318e-05 -7.89996e-05 0.10059)
(-7.8893e-05 1.09766e-05 0.10059)
(-1.66555e-05 0.000198235 0.100867)
(-5.4972e-05 0.000288444 0.0983206)
(-2.04393e-05 0.00020868 0.100777)
(-4.49315e-05 0.000271321 0.0979449)
(-0.000150285 0.000313393 0.0926212)
(-0.000137151 0.000273051 0.0909993)
(0.000198279 -1.67102e-05 0.100867)
(0.000288269 -5.48621e-05 0.0983207)
(0.000208751 -2.04797e-05 0.100777)
(0.000271154 -4.47767e-05 0.0979444)
(-9.42628e-05 9.424e-05 0.10086)
(9.42645e-05 -9.42945e-05 0.10086)
(-9.42771e-05 -9.43098e-05 0.10086)
(9.61792e-05 9.62013e-05 0.101239)
(-9.61911e-05 9.62036e-05 0.101239)
(9.61957e-05 -9.62047e-05 0.101239)
(-9.62036e-05 -9.62094e-05 0.101239)
(-0.000263626 1.32977e-05 0.101153)
(-0.000219097 0.000214244 0.100819)
(-0.000164533 3.10457e-05 0.100897)
(-0.000160215 9.74206e-05 0.101064)
(-0.000298004 1.41277e-05 0.100977)
(-0.000183252 0.000197867 0.100945)
(-0.000168739 3.24859e-05 0.101019)
(0.000313477 -0.000150014 0.0926206)
(0.000273149 -0.000136899 0.0909996)
(1.33001e-05 -0.000263624 0.101153)
(3.1071e-05 -0.000164554 0.100897)
(0.00021426 -0.000219159 0.100819)
(9.74173e-05 -0.000160245 0.101064)
(1.4128e-05 -0.000297997 0.100977)
(3.25067e-05 -0.000168754 0.101019)
(0.000197816 -0.000183291 0.100945)
(-8.39491e-05 -9.72482e-05 0.100438)
(-9.7189e-05 -8.39161e-05 0.100438)
(-0.00011249 -0.000112526 0.101144)
(-8.67478e-05 -8.27311e-05 0.10043)
(-8.26328e-05 -8.67099e-05 0.10043)
(-9.47156e-06 0.000210688 0.100956)
(-2.20161e-05 0.000281795 0.0971372)
(-1.17182e-05 0.000230455 0.100903)
(-1.2364e-05 0.000257134 0.0967125)
(-0.000117445 0.000226025 0.0883854)
(-9.69263e-05 0.000187316 0.0870646)
(0.00021073 -9.48803e-06 0.100956)
(0.000281678 -2.18738e-05 0.0971373)
(0.000230481 -1.17207e-05 0.100903)
(0.000256995 -1.22263e-05 0.0967118)
(-9.5417e-05 9.54374e-05 0.10137)
(9.54233e-05 -9.5432e-05 0.10137)
(-9.54307e-05 -9.54324e-05 0.10137)
(9.43272e-05 9.43733e-05 0.101763)
(-9.43364e-05 9.4375e-05 0.101763)
(9.43563e-05 -9.43575e-05 0.101763)
(-9.43677e-05 -9.43491e-05 0.101763)
(-0.000251003 1.22231e-05 0.10158)
(-0.000222578 0.000190569 0.101028)
(-0.000167325 3.27894e-05 0.101407)
(-0.000155169 9.28795e-05 0.101577)
(-0.000290194 1.20975e-05 0.101414)
(-0.000182226 0.000169343 0.101123)
(-0.000167161 3.27237e-05 0.101537)
(0.000225933 -0.000117131 0.0883844)
(0.000187299 -9.66961e-05 0.0870642)
(1.2217e-05 -0.000251011 0.10158)
(3.27886e-05 -0.000167329 0.101407)
(0.000190524 -0.000222581 0.101028)
(9.28602e-05 -0.000155185 0.101577)
(1.20916e-05 -0.0002902 0.101414)
(3.27245e-05 -0.000167165 0.101537)
(0.000169308 -0.000182236 0.101123)
(-0.000116191 -9.15953e-05 0.100182)
(-9.15469e-05 -0.000116182 0.100182)
(-0.000101472 -0.000101521 0.101646)
(-0.000112081 -7.24107e-05 0.100086)
(-7.23411e-05 -0.000112041 0.100086)
(-7.01805e-06 0.000210095 0.100952)
(5.48923e-06 0.000258278 0.0958577)
(-7.941e-06 0.000236318 0.100928)
(1.02768e-05 0.000229741 0.0954233)
(-7.73163e-05 0.000149998 0.0849773)
(-5.9128e-05 0.000118885 0.0839654)
(0.000210137 -7.04932e-06 0.100952)
(0.000258245 5.58128e-06 0.0958578)
(0.000236344 -7.94163e-06 0.100928)
(0.000229644 1.02824e-05 0.0954224)
(-9.38678e-05 9.39102e-05 0.101892)
(9.38932e-05 -9.38918e-05 0.101892)
(-9.39056e-05 -9.38819e-05 0.101892)
(9.18537e-05 9.19037e-05 0.102273)
(-9.18523e-05 9.19002e-05 0.102273)
(9.18876e-05 -9.1881e-05 0.102273)
(-9.19014e-05 -9.18664e-05 0.102273)
(-0.000238534 1.11707e-05 0.101978)
(-0.000219908 0.00016286 0.101142)
(-0.000165101 3.20962e-05 0.101923)
(-0.000150712 8.89851e-05 0.102081)
(-0.000282668 1.10205e-05 0.101822)
(-0.000174944 0.000141201 0.101213)
(-0.000163806 3.17583e-05 0.10205)
(0.000150011 -7.71873e-05 0.0849763)
(0.000118886 -5.90228e-05 0.0839648)
(1.1167e-05 -0.000238548 0.101978)
(3.21005e-05 -0.000165098 0.101923)
(0.000162802 -0.000219924 0.101142)
(8.89787e-05 -0.000150705 0.102081)
(1.1017e-05 -0.000282679 0.101822)
(3.17652e-05 -0.000163804 0.10205)
(0.000141165 -0.000174966 0.101214)
(-0.000133106 -7.94375e-05 0.0997187)
(-7.94029e-05 -0.0001331 0.0997187)
(-9.1359e-05 -9.14067e-05 0.102133)
(-0.000123761 -6.02519e-05 0.099571)
(-6.01985e-05 -0.000123733 0.09957)
(-6.46398e-06 0.000202189 0.100851)
(1.89707e-05 0.000226892 0.0945606)
(-6.90058e-06 0.000231292 0.100853)
(1.87291e-05 0.000197461 0.094144)
(-4.53968e-05 9.53638e-05 0.082343)
(-3.11891e-05 7.19308e-05 0.0815912)
(0.000202226 -6.47725e-06 0.100851)
(0.000226876 1.90737e-05 0.0945609)
(0.000231316 -6.8853e-06 0.100853)
(0.000197433 1.87602e-05 0.0941426)
(-9.1111e-05 9.11609e-05 0.102398)
(9.1147e-05 -9.11386e-05 0.102398)
(-9.11628e-05 -9.11242e-05 0.102398)
(8.88751e-05 8.89347e-05 0.102765)
(-8.88719e-05 8.89301e-05 0.102765)
(8.89175e-05 -8.89061e-05 0.102765)
(-8.89347e-05 -8.88849e-05 0.102765)
(-0.000223537 1.02603e-05 0.102335)
(-0.000210989 0.000137628 0.101162)
(-0.000159035 3.06714e-05 0.102424)
(-0.00014485 8.451e-05 0.102565)
(-0.000271038 9.90185e-06 0.102189)
(-0.000164128 0.000117129 0.101212)
(-0.00015734 3.0313e-05 0.102546)
(9.53568e-05 -4.53262e-05 0.0823418)
(7.18939e-05 -3.11301e-05 0.0815905)
(1.02941e-05 -0.000223562 0.102335)
(3.06756e-05 -0.000159032 0.102424)
(0.000137525 -0.000210987 0.101161)
(8.45056e-05 -0.000144836 0.102565)
(9.9169e-06 -0.000271061 0.102189)
(3.03222e-05 -0.000157338 0.102546)
(0.000116964 -0.000164177 0.101213)
(-0.000138112 -6.86884e-05 0.0991144)
(-6.86722e-05 -0.000138114 0.0991142)
(-8.09284e-05 -8.09733e-05 0.102592)
(-0.000125688 -5.08005e-05 0.0989327)
(-5.07434e-05 -0.00012565 0.0989314)
(-6.13504e-06 0.000190507 0.100663)
(2.05248e-05 0.000194471 0.0933109)
(-6.67875e-06 0.000221037 0.100689)
(1.73459e-05 0.000165704 0.0929284)
(-2.41704e-05 6.00096e-05 0.0803365)
(-1.33806e-05 4.22329e-05 0.0797847)
(0.000190536 -6.11852e-06 0.100664)
(0.000194427 2.0642e-05 0.0933115)
(0.000221058 -6.66231e-06 0.100689)
(0.000165576 1.73056e-05 0.0929267)
(-8.8134e-05 8.81932e-05 0.102885)
(8.81759e-05 -8.81611e-05 0.102885)
(-8.81942e-05 -8.81406e-05 0.102885)
(8.59734e-05 8.60488e-05 0.103238)
(-8.59677e-05 8.60407e-05 0.103238)
(8.6023e-05 -8.6005e-05 0.103238)
(-8.60492e-05 -8.59829e-05 0.103238)
(-0.000207803 9.69119e-06 0.102649)
(-0.000199556 0.000116758 0.101097)
(-0.000152214 2.93288e-05 0.102904)
(-0.000139302 8.07323e-05 0.103024)
(-0.000257489 9.16611e-06 0.102514)
(-0.000152126 9.7647e-05 0.101131)
(-0.000150516 2.90166e-05 0.103021)
(6.00101e-05 -2.41116e-05 0.0803355)
(4.22037e-05 -1.33467e-05 0.0797839)
(9.75261e-06 -0.000207844 0.10265)
(2.93302e-05 -0.00015221 0.102904)
(0.000116738 -0.000199519 0.101097)
(8.0724e-05 -0.000139279 0.103024)
(9.16295e-06 -0.000257516 0.102513)
(2.90284e-05 -0.000150512 0.103021)
(9.74126e-05 -0.000152161 0.101132)
(-0.000135486 -6.10554e-05 0.0984171)
(-6.10742e-05 -0.000135505 0.0984167)
(-7.14676e-05 -7.15166e-05 0.103024)
(-0.000121554 -4.43488e-05 0.0982143)
(-4.431e-05 -0.000121538 0.0982128)
(-4.99599e-06 0.000176822 0.100404)
(1.55801e-05 0.000164603 0.0921464)
(-5.86054e-06 0.000208044 0.100449)
(1.09016e-05 0.000137152 0.0918044)
(-1.14037e-05 3.8503e-05 0.0788057)
(-2.96644e-06 2.45044e-05 0.0784011)
(0.000176861 -4.98978e-06 0.100404)
(0.000164634 1.57749e-05 0.092147)
(0.000208083 -5.91858e-06 0.100449)
(0.000136992 1.08883e-05 0.0918029)
(-8.53007e-05 8.53739e-05 0.103353)
(8.53525e-05 -8.53318e-05 0.103353)
(-8.53696e-05 -8.52971e-05 0.103353)
(8.33972e-05 8.34792e-05 0.103692)
(-8.3397e-05 8.34708e-05 0.103692)
(8.34593e-05 -8.34374e-05 0.103692)
(-8.34899e-05 -8.34044e-05 0.103692)
(-0.000192456 9.52924e-06 0.102923)
(-0.000187251 9.98617e-05 0.10096)
(-0.000145575 2.82348e-05 0.103363)
(-0.000134344 7.77313e-05 0.103461)
(-0.000243657 8.80672e-06 0.102796)
(-0.000140148 8.18015e-05 0.100979)
(-0.000144011 2.79931e-05 0.103474)
(3.84947e-05 -1.13798e-05 0.0788049)
(2.44989e-05 -2.98221e-06 0.0784002)
(9.56857e-06 -0.000192496 0.102923)
(2.82411e-05 -0.000145572 0.103363)
(9.99766e-05 -0.000187241 0.100959)
(7.77163e-05 -0.000134309 0.103461)
(8.77055e-06 -0.000243676 0.102795)
(2.80086e-05 -0.000144006 0.103474)
(8.17709e-05 -0.000140186 0.10098)
(-0.000128958 -5.55913e-05 0.0976622)
(-5.56189e-05 -0.000128944 0.0976616)
(-6.30767e-05 -6.31341e-05 0.103428)
(-0.000114039 -3.96496e-05 0.0974495)
(-3.9645e-05 -0.000114036 0.0974476)
(-3.07908e-06 0.00016253 0.100086)
(8.0922e-06 0.000138957 0.0910829)
(-4.26915e-06 0.000193712 0.100147)
(2.98647e-06 0.000112946 0.0907823)