/*--------------------------------*- C++ -*----------------------------------*\
| =========                 |                                                 |
| \\      /  F ield         | OpenFOAM: The Open Source CFD Toolbox           |
|  \\    /   O peration     | Version:  v2006                                 |
|   \\  /    A nd           | Website:  www.openfoam.com                      |
|    \\/     M anipulation  |                                                 |
\*---------------------------------------------------------------------------*/
FoamFile
{
    version     2.0;
    format      ascii;
    class       volScalarField;
    location    "625";
    object      k;
}
// * * * * * * * * * * * * * * * * * * * * * * * * * * * * * * * * * * * * * //

dimensions      [0 2 -2 0 0 0 0];


internalField   nonuniform List<scalar> 
14212
(
6.81029e-05
7.30824e-05
7.05778e-05
7.30584e-05
4.79272e-05
6.348e-05
7.08633e-05
7.08497e-05
5.26883e-05
7.02666e-05
7.02112e-05
6.78921e-05
7.27694e-05
5.96717e-05
4.98493e-05
6.48007e-05
4.40591e-05
5.94468e-05
4.82111e-05
6.34838e-05
4.33248e-05
5.06965e-05
6.86837e-05
6.88235e-05
7.06346e-05
4.98619e-05
6.47414e-05
7.2791e-05
7.13875e-05
6.80618e-05
7.11168e-05
7.13667e-05
7.11045e-05
7.13088e-05
7.1399e-05
7.13254e-05
7.97365e-05
7.30824e-05
7.96908e-05
7.13376e-05
7.05461e-05
7.30619e-05
7.08632e-05
7.08501e-05
9.5699e-05
7.33263e-05
7.33079e-05
7.33268e-05
7.33089e-05
9.57482e-05
7.45734e-05
7.31018e-05
7.02248e-05
6.53355e-05
7.3107e-05
7.4647e-05
6.52434e-05
7.45384e-05
7.01846e-05
7.30765e-05
6.53106e-05
7.30834e-05
7.46135e-05
6.52337e-05
7.12759e-05
6.78716e-05
7.1083e-05
7.07773e-05
7.10687e-05
7.07768e-05
7.12926e-05
7.10861e-05
7.88981e-05
7.27381e-05
7.89024e-05
7.11069e-05
7.2875e-05
7.29049e-05
9.34727e-05
7.26976e-05
7.25246e-05
6.86855e-05
6.35544e-05
7.24856e-05
6.35679e-05
7.2689e-05
7.25753e-05
6.35476e-05
7.26716e-05
3.55715e-05
2.69013e-05
3.38317e-05
2.64154e-05
5.84343e-05
6.5952e-05
5.26585e-05
5.91004e-05
5.90994e-05
6.60432e-05
5.90283e-05
5.90323e-05
5.50066e-05
5.9619e-05
6.16614e-05
5.34262e-05
6.15889e-05
5.34126e-05
5.50178e-05
5.65373e-05
6.38867e-05
6.47355e-05
5.99731e-05
6.38163e-05
5.99091e-05
5.65668e-05
5.43682e-05
5.94236e-05
6.10318e-05
5.3173e-05
6.10288e-05
5.31725e-05
5.43571e-05
5.54637e-05
6.28647e-05
6.34882e-05
5.8543e-05
6.28674e-05
5.5438e-05
5.85612e-05
6.41119e-05
5.07417e-05
5.72451e-05
5.72122e-05
5.72314e-05
5.72694e-05
6.40992e-05
6.46963e-05
5.99362e-05
5.9888e-05
9.34646e-05
7.28413e-05
7.28661e-05
7.26695e-05
6.87895e-05
6.35481e-05
7.25299e-05
7.06019e-05
7.27571e-05
6.34724e-05
5.8438e-05
5.45831e-05
3.63711e-05
6.45815e-05
5.48003e-05
4.28577e-05
3.72382e-05
6.02784e-05
6.47293e-05
7.13837e-05
4.33753e-05
6.087e-05
7.13147e-05
4.63275e-05
6.55812e-05
6.58701e-05
6.94233e-05
6.92905e-05
7.04685e-05
6.75916e-05
7.01454e-05
6.45856e-05
7.03927e-05
6.76293e-05
7.02067e-05
7.04043e-05
7.01286e-05
6.80955e-05
6.47136e-05
7.03507e-05
7.01839e-05
6.80624e-05
7.03356e-05
7.69201e-05
7.1408e-05
7.02775e-05
7.68656e-05
7.13008e-05
8.83736e-05
7.13866e-05
7.1341e-05
8.92389e-05
7.13797e-05
7.13202e-05
6.8275e-05
7.06241e-05
5.98402e-05
6.51808e-05
6.91046e-05
5.90951e-05
7.06196e-05
6.84716e-05
7.05577e-05
6.03268e-05
6.52173e-05
6.93738e-05
5.94745e-05
7.05141e-05
6.94556e-05
6.92899e-05
3.00716e-05
4.82089e-05
5.6253e-05
4.72851e-05
5.44794e-05
4.84369e-05
5.62158e-05
4.69449e-05
4.8786e-05
4.76086e-05
5.68845e-05
5.46362e-05
4.93002e-05
4.71745e-05
5.66675e-05
5.03803e-05
5.92655e-05
5.44886e-05
5.988e-05
5.09555e-05
5.8955e-05
5.38581e-05
5.52537e-05
6.03026e-05
5.45401e-05
5.95786e-05
4.53723e-05
5.3138e-05
5.3373e-05
6.0488e-05
5.22832e-05
5.24865e-05
7.03793e-05
7.60913e-05
7.02608e-05
7.63308e-05
4.92917e-05
5.81154e-05
4.93936e-05
5.81315e-05
7.88932e-05
7.11539e-05
6.27115e-05
5.51669e-05
6.80115e-05
5.95521e-05
5.13326e-05
4.26423e-05
4.69978e-05
6.76764e-05
6.75251e-05
4.96886e-05
7.06258e-05
3.48277e-05
4.79306e-05
4.26491e-05
4.99321e-05
4.26409e-05
4.25587e-05
5.08219e-05
4.79554e-05
4.17244e-05
7.27558e-05
7.00498e-05
4.95632e-05
4.31553e-05
5.08148e-05
6.45453e-05
6.79623e-05
5.95265e-05
4.17994e-05
7.27857e-05
5.12406e-05
4.72784e-05
6.76012e-05
6.74991e-05
7.06456e-05
2.36947e-05
2.50458e-05
2.5244e-05
2.59709e-05
7.30563e-05
6.80367e-05
4.85188e-05
6.44461e-05
5.95823e-05
4.91878e-05
4.35239e-05
4.28924e-05
7.26236e-05
4.86767e-05
4.32951e-05
6.40326e-05
4.86888e-05
4.29963e-05
7.04185e-05
6.92509e-05
6.92072e-05
7.0458e-05
4.85228e-05
5.90589e-05
6.39656e-05
4.85925e-05
4.26027e-05
4.20748e-05
5.88701e-05
6.31531e-05
4.69257e-05
4.18733e-05
6.29176e-05
7.26269e-05
7.27345e-05
7.26129e-05
6.85756e-05
6.8512e-05
4.95182e-05
6.82771e-05
6.82302e-05
7.0508e-05
7.06014e-05
7.04813e-05
6.77522e-05
7.30729e-05
6.79942e-05
7.05126e-05
7.30607e-05
6.804e-05
2.60273e-05
2.52559e-05
2.60866e-05
4.21589e-05
5.89176e-05
6.34984e-05
5.87485e-05
4.22153e-05
7.0394e-05
4.83406e-05
5.90142e-05
6.37868e-05
6.86774e-05
6.86047e-05
5.04713e-05
6.90092e-05
6.89177e-05
7.08567e-05
7.07979e-05
7.0847e-05
5.13264e-05
6.99454e-05
5.20895e-05
6.99423e-05
6.9452e-05
6.78076e-05
5.9113e-05
5.91954e-05
6.77995e-05
7.30647e-05
7.29991e-05
6.79706e-05
6.78213e-05
7.26971e-05
7.26953e-05
6.78554e-05
4.84187e-05
4.91042e-05
4.33102e-05
5.92079e-05
6.44399e-05
6.39626e-05
5.94824e-05
4.29124e-05
4.81955e-05
4.81667e-05
5.92447e-05
6.36289e-05
6.38727e-05
5.93763e-05
7.05077e-05
7.05047e-05
5.10031e-05
6.88373e-05
6.8825e-05
6.9177e-05
6.9021e-05
7.05531e-05
7.05233e-05
4.21488e-05
4.79894e-05
4.2152e-05
5.87006e-05
6.35436e-05
6.37234e-05
5.87288e-05
6.74278e-05
7.27088e-05
7.26984e-05
6.7429e-05
4.6898e-05
6.31436e-05
4.17131e-05
4.68652e-05
6.28558e-05
5.8514e-05
5.86193e-05
7.26204e-05
6.72836e-05
6.7369e-05
7.08592e-05
7.08483e-05
5.23876e-05
7.00603e-05
7.27043e-05
6.78565e-05
4.37607e-05
6.45519e-05
5.95219e-05
4.82018e-05
6.3557e-05
5.93895e-05
6.87576e-05
6.8794e-05
7.05624e-05
5.95941e-05
4.96163e-05
4.3916e-05
7.25989e-05
4.86046e-05
4.34433e-05
6.38416e-05
6.75668e-05
7.27184e-05
6.74408e-05
4.70745e-05
6.32344e-05
5.89278e-05
4.75271e-05
5.86613e-05
4.2058e-05
6.35851e-05
6.75905e-05
6.73991e-05
7.29065e-05
6.90079e-05
6.90027e-05
7.04416e-05
4.22787e-05
5.88661e-05
6.32199e-05
4.76757e-05
6.34963e-05
7.26028e-05
7.27594e-05
7.28686e-05
7.07444e-05
7.06219e-05
7.07253e-05
7.12232e-05
7.10121e-05
7.10883e-05
6.80317e-05
7.10104e-05
7.11441e-05
7.12213e-05
7.11934e-05
7.08716e-05
7.09553e-05
6.77106e-05
7.09369e-05
7.09485e-05
7.11931e-05
7.11942e-05
7.04688e-05
7.09642e-05
6.75345e-05
7.04493e-05
7.09496e-05
7.12163e-05
7.0579e-05
7.10866e-05
7.27039e-05
7.87107e-05
7.86188e-05
7.11279e-05
7.44392e-05
6.49899e-05
7.30785e-05
7.01344e-05
7.42682e-05
7.30862e-05
6.5132e-05
7.12158e-05
7.10121e-05
7.09739e-05
6.79372e-05
7.12153e-05
7.1016e-05
7.09182e-05
7.11821e-05
7.8759e-05
7.28336e-05
7.11428e-05
7.88581e-05
7.1192e-05
7.07531e-05
7.09585e-05
6.75558e-05
7.11898e-05
7.06785e-05
7.09684e-05
7.12496e-05
7.04754e-05
7.09713e-05
6.74847e-05
7.12265e-05
7.04936e-05
7.0988e-05
7.06886e-05
7.12574e-05
7.30415e-05
7.95162e-05
7.94271e-05
7.1282e-05
7.13263e-05
7.11734e-05
7.10505e-05
6.80113e-05
7.1097e-05
7.1043e-05
7.13396e-05
7.10522e-05
7.92958e-05
7.26433e-05
7.9385e-05
7.10436e-05
7.043e-05
7.38259e-05
6.43673e-05
7.23431e-05
6.94548e-05
6.45548e-05
7.23939e-05
7.3579e-05
9.46478e-05
7.27512e-05
7.27584e-05
7.27843e-05
7.27848e-05
9.43148e-05
7.36933e-05
6.42819e-05
7.23467e-05
6.93812e-05
7.23865e-05
6.44486e-05
7.34734e-05
7.04652e-05
7.10621e-05
7.91828e-05
7.26472e-05
7.92897e-05
7.1057e-05
7.10588e-05
7.869e-05
7.26872e-05
7.86382e-05
7.10946e-05
7.10456e-05
7.26618e-05
7.85791e-05
7.10113e-05
7.86154e-05
7.21608e-05
6.3028e-05
7.25563e-05
6.84669e-05
7.2486e-05
7.22996e-05
6.28824e-05
9.31183e-05
7.29206e-05
7.28949e-05
7.28625e-05
7.28393e-05
9.32436e-05
7.21765e-05
6.30465e-05
7.25297e-05
6.84091e-05
6.29083e-05
7.24613e-05
7.23136e-05
7.20487e-05
6.83778e-05
6.26835e-05
7.23667e-05
7.24394e-05
6.27661e-05
7.19335e-05
9.30012e-05
7.27775e-05
7.27584e-05
7.28367e-05
7.28141e-05
9.28858e-05
7.20731e-05
6.83285e-05
6.27335e-05
7.23467e-05
6.27999e-05
7.24167e-05
7.19728e-05
7.05576e-05
7.05533e-05
7.05313e-05
7.12767e-05
7.10377e-05
7.07872e-05
6.7646e-05
7.1018e-05
7.06302e-05
7.13042e-05
7.13236e-05
7.95689e-05
7.30815e-05
7.13029e-05
7.96451e-05
7.13827e-05
6.80423e-05
7.10863e-05
7.11921e-05
7.1368e-05
7.10991e-05
7.12721e-05
7.05343e-05
7.13023e-05
7.95669e-05
7.30642e-05
7.12861e-05
7.96224e-05
7.13537e-05
7.12037e-05
7.10533e-05
6.80456e-05
7.13436e-05
7.12507e-05
7.10612e-05
7.039e-05
7.25713e-05
6.31625e-05
7.26022e-05
6.87892e-05
7.24266e-05
6.33183e-05
7.26671e-05
9.3516e-05
7.2945e-05
7.29197e-05
9.33803e-05
7.29998e-05
7.29736e-05
7.25678e-05
6.31646e-05
7.25747e-05
6.87113e-05
7.24261e-05
6.33055e-05
7.26386e-05
9.36696e-05
7.30707e-05
7.3047e-05
7.30213e-05
7.29971e-05
9.38094e-05
7.27121e-05
6.88984e-05
7.27687e-05
6.36233e-05
6.34665e-05
7.27111e-05
7.28563e-05
7.26956e-05
6.88129e-05
7.27411e-05
6.3574e-05
6.34325e-05
7.2683e-05
7.28406e-05
7.08376e-05
7.08288e-05
7.083e-05
7.38928e-05
6.98069e-05
6.48379e-05
7.30672e-05
6.46379e-05
7.30387e-05
7.41179e-05
7.3919e-05
6.48236e-05
6.97952e-05
7.30826e-05
7.30502e-05
6.46167e-05
7.41435e-05
7.36963e-05
6.41513e-05
7.29644e-05
6.96382e-05
7.34257e-05
7.30174e-05
6.44089e-05
9.50412e-05
7.32905e-05
7.33083e-05
7.32709e-05
7.32559e-05
9.52678e-05
7.12332e-05
7.10158e-05
7.0964e-05
6.77597e-05
7.10032e-05
7.09694e-05
7.12385e-05
7.1336e-05
7.10451e-05
7.08639e-05
6.78785e-05
7.13143e-05
7.10608e-05
7.09883e-05
7.12687e-05
7.30454e-05
7.95024e-05
7.1297e-05
7.93999e-05
7.12587e-05
7.91919e-05
7.30299e-05
7.1224e-05
7.93188e-05
7.13439e-05
6.79101e-05
7.10807e-05
7.11454e-05
7.13617e-05
7.1067e-05
7.10458e-05
7.12441e-05
7.10203e-05
7.09363e-05
6.78445e-05
7.12392e-05
7.10307e-05
7.09153e-05
7.10719e-05
7.26925e-05
7.90119e-05
7.90587e-05
7.10759e-05
7.10823e-05
7.91833e-05
7.26936e-05
7.10825e-05
7.91323e-05
7.12458e-05
6.78476e-05
7.10454e-05
7.08459e-05
7.10349e-05
7.08678e-05
7.12534e-05
7.05008e-05
7.05048e-05
9.38701e-05
7.28379e-05
7.28187e-05
7.28306e-05
7.28173e-05
9.40329e-05
7.30445e-05
6.37888e-05
6.89348e-05
7.24538e-05
6.38922e-05
7.24564e-05
7.29183e-05
7.29192e-05
6.369e-05
6.88723e-05
7.24634e-05
7.24553e-05
6.37654e-05
7.28234e-05
7.31994e-05
6.41347e-05
7.24872e-05
6.90547e-05
6.40264e-05
7.24713e-05
7.33506e-05
7.30548e-05
6.39582e-05
7.24607e-05
6.89435e-05
7.24569e-05
6.38746e-05
7.31755e-05
9.37234e-05
7.28166e-05
7.28201e-05
7.28143e-05
7.2812e-05
9.36103e-05
7.05349e-05
7.05306e-05
7.12081e-05
7.06451e-05
7.09436e-05
6.7425e-05
7.06201e-05
7.09627e-05
7.11959e-05
7.10851e-05
7.26992e-05
7.89115e-05
7.8944e-05
7.10975e-05
7.10877e-05
7.90472e-05
7.26982e-05
7.89977e-05
7.108e-05
7.12144e-05
6.74217e-05
7.05729e-05
7.09952e-05
7.05845e-05
7.09727e-05
7.12318e-05
7.10707e-05
7.2674e-05
7.85033e-05
7.85764e-05
7.10296e-05
7.1203e-05
7.02458e-05
7.0936e-05
6.73039e-05
7.09614e-05
7.02948e-05
7.11717e-05
7.12179e-05
7.04058e-05
6.73222e-05
7.10017e-05
7.09741e-05
7.03285e-05
7.12502e-05
7.08664e-05
7.0854e-05
7.44794e-05
6.4986e-05
7.30973e-05
7.01583e-05
7.43139e-05
7.31081e-05
6.51382e-05
9.56082e-05
7.32982e-05
7.3316e-05
9.54536e-05
7.33303e-05
7.33121e-05
7.10824e-05
7.89559e-05
7.27239e-05
7.1072e-05
7.8928e-05
7.12694e-05
6.78652e-05
7.10504e-05
7.08056e-05
7.10627e-05
7.12572e-05
7.07934e-05
7.27396e-05
6.36824e-05
7.24542e-05
6.87097e-05
7.24686e-05
7.28087e-05
6.36172e-05
7.26926e-05
6.36124e-05
7.24757e-05
6.87858e-05
6.35735e-05
7.27361e-05
7.25065e-05
9.34803e-05
7.28149e-05
7.28259e-05
7.28301e-05
9.35258e-05
7.28521e-05
7.0589e-05
7.10128e-05
7.9147e-05
7.25873e-05
7.10171e-05
7.90524e-05
7.12742e-05
6.75048e-05
7.06161e-05
7.10708e-05
7.05759e-05
7.10445e-05
7.12999e-05
7.11209e-05
7.88846e-05
7.27416e-05
7.8877e-05
7.11002e-05
7.12631e-05
6.74781e-05
7.05621e-05
7.10068e-05
7.05655e-05
7.12408e-05
7.10321e-05
7.11274e-05
7.88763e-05
7.13103e-05
6.75076e-05
7.10839e-05
7.06906e-05
7.10565e-05
7.05914e-05
7.13396e-05
7.12965e-05
7.0449e-05
6.74686e-05
7.1015e-05
7.12649e-05
7.10433e-05
7.05432e-05
7.11955e-05
7.2863e-05
7.90113e-05
7.89115e-05
7.12315e-05
7.3032e-05
6.41055e-05
7.22867e-05
6.88117e-05
7.32716e-05
7.22527e-05
6.39217e-05
9.36347e-05
7.26926e-05
7.27096e-05
9.39531e-05
7.26717e-05
7.26953e-05
7.29636e-05
6.40415e-05
7.23021e-05
6.88338e-05
7.31855e-05
6.38727e-05
7.2277e-05
7.04408e-05
7.10368e-05
7.90435e-05
7.25913e-05
7.10369e-05
7.89382e-05
7.11443e-05
7.87162e-05
7.28034e-05
7.1108e-05
7.87755e-05
7.11577e-05
7.2828e-05
7.88713e-05
7.88061e-05
7.11933e-05
7.07063e-05
7.06667e-05
7.06852e-05
5.46336e-05
5.32309e-05
6.13347e-05
5.95578e-05
5.32374e-05
6.13836e-05
5.45785e-05
6.51542e-05
5.79663e-05
5.79205e-05
5.15613e-05
5.81677e-05
5.81152e-05
6.49485e-05
6.33609e-05
5.64047e-05
5.64387e-05
4.96215e-05
5.63383e-05
6.35041e-05
5.6307e-05
2.60235e-05
2.60933e-05
1.57609e-05
6.38118e-05
5.66314e-05
5.66658e-05
5.00428e-05
6.36619e-05
5.67492e-05
5.67773e-05
6.44244e-05
5.0913e-05
5.74278e-05
5.73702e-05
5.75288e-05
5.746e-05
6.43183e-05
6.41547e-05
5.73688e-05
5.73166e-05
5.07384e-05
5.72541e-05
6.42207e-05
5.72965e-05
5.64066e-05
6.36627e-05
5.96917e-05
6.46387e-05
5.63654e-05
6.3741e-05
5.97813e-05
5.44709e-05
5.32542e-05
6.12301e-05
5.95036e-05
5.45701e-05
5.3227e-05
6.11761e-05
6.44877e-05
5.7782e-05
5.77385e-05
5.10023e-05
6.46855e-05
5.7555e-05
5.7592e-05
3.23582e-05
3.37651e-05
2.49174e-05
2.50045e-05
2.37317e-05
1.50559e-05
1.52244e-05
2.55573e-05
3.37578e-05
2.57808e-05
3.36863e-05
2.57703e-05
1.62892e-05
1.63277e-05
3.2559e-05
2.5225e-05
2.525e-05
3.25512e-05
2.52023e-05
1.63948e-05
1.63904e-05
3.41099e-05
2.57837e-05
3.40632e-05
2.52361e-05
2.58715e-05
1.62212e-05
1.62852e-05
5.61177e-05
6.431e-05
6.35894e-05
5.95269e-05
6.34731e-05
5.93943e-05
5.61964e-05
5.47369e-05
6.14468e-05
5.32858e-05
5.95366e-05
6.13531e-05
5.32616e-05
5.47747e-05
5.60284e-05
6.33361e-05
5.91484e-05
6.41646e-05
6.34232e-05
5.93118e-05
5.58819e-05
5.42096e-05
5.25829e-05
6.10053e-05
5.90773e-05
5.25976e-05
6.10544e-05
5.41305e-05
5.57695e-05
5.90037e-05
6.31662e-05
6.40861e-05
5.91519e-05
6.32534e-05
5.56248e-05
5.35841e-05
5.2356e-05
6.05163e-05
5.88616e-05
5.23526e-05
6.0469e-05
5.3601e-05
5.46631e-05
5.78957e-05
6.24266e-05
6.30509e-05
6.2345e-05
5.78232e-05
5.47064e-05
5.45624e-05
6.29886e-05
5.76817e-05
6.22544e-05
5.45456e-05
6.23049e-05
5.77126e-05
6.3224e-05
4.95129e-05
5.61662e-05
5.61917e-05
5.62123e-05
5.61862e-05
6.31667e-05
3.37998e-05
2.58025e-05
2.58541e-05
1.64657e-05
3.26257e-05
2.53163e-05
3.28748e-05
2.53296e-05
1.64041e-05
3.41146e-05
2.62521e-05
1.64899e-05
5.38223e-05
5.88352e-05
6.06905e-05
5.24122e-05
6.06425e-05
5.23752e-05
5.38291e-05
5.51616e-05
5.84817e-05
6.27132e-05
6.34803e-05
5.51948e-05
5.84457e-05
6.27026e-05
5.3763e-05
5.2261e-05
5.87972e-05
6.06216e-05
5.3775e-05
6.06271e-05
5.22762e-05
5.51718e-05
6.26996e-05
5.40292e-05
5.25966e-05
6.09037e-05
5.89859e-05
5.41229e-05
5.2565e-05
6.08479e-05
5.54132e-05
5.88638e-05
6.30099e-05
6.36601e-05
5.55627e-05
5.87193e-05
6.29142e-05
6.39824e-05
5.03532e-05
5.71224e-05
5.71244e-05
5.70016e-05
5.70142e-05
6.4133e-05
6.50529e-05
5.78611e-05
5.15396e-05
5.78349e-05
5.81027e-05
6.4782e-05
5.80796e-05
6.52828e-05
5.19537e-05
5.85615e-05
5.85475e-05
5.83879e-05
5.83697e-05
6.55002e-05
5.3782e-05
5.25155e-05
6.08867e-05
5.8948e-05
6.06752e-05
5.23832e-05
5.39292e-05
5.40649e-05
5.26216e-05
6.10551e-05
5.90915e-05
6.10146e-05
5.25412e-05
5.40947e-05
5.43639e-05
5.27968e-05
6.10111e-05
5.93309e-05
5.42655e-05
6.11758e-05
5.28835e-05
5.60476e-05
5.94968e-05
6.4292e-05
6.35583e-05
5.93521e-05
6.3422e-05
5.61399e-05
5.57833e-05
5.89166e-05
6.31287e-05
6.4148e-05
5.91117e-05
5.56412e-05
6.33023e-05
5.46148e-05
5.31418e-05
5.9392e-05
6.13888e-05
6.12614e-05
5.30901e-05
5.46737e-05
5.42206e-05
5.2819e-05
6.10582e-05
5.93111e-05
5.42184e-05
6.10636e-05
5.28643e-05
5.5565e-05
5.86967e-05
6.36999e-05
6.29762e-05
6.30169e-05
5.87812e-05
5.55141e-05
5.55639e-05
5.89215e-05
6.31179e-05
6.37959e-05
5.55865e-05
6.30851e-05
5.88371e-05
5.42935e-05
5.30166e-05
5.93362e-05
6.10516e-05
6.10557e-05
5.29969e-05
5.42855e-05
6.45491e-05
5.09222e-05
5.76957e-05
5.76115e-05
5.75927e-05
5.75202e-05
6.4662e-05
5.37391e-05
5.21761e-05
6.06728e-05
5.87051e-05
6.06605e-05
5.21673e-05
5.37617e-05
5.52451e-05
5.85168e-05
6.35909e-05
6.27498e-05
5.51949e-05
5.85814e-05
6.2783e-05
5.52482e-05
5.86968e-05
6.28867e-05
6.36645e-05
5.86263e-05
6.28459e-05
5.52956e-05
5.37618e-05
5.22028e-05
5.87104e-05
6.06289e-05
5.37408e-05
6.06354e-05
5.22059e-05
5.44989e-05
5.78137e-05
6.30246e-05
6.23451e-05
5.77317e-05
6.22249e-05
5.45548e-05
5.4396e-05
6.29485e-05
5.75812e-05
6.20987e-05
5.76147e-05
6.21665e-05
5.43815e-05
5.3229e-05
5.19639e-05
6.01657e-05
5.85372e-05
5.19588e-05
6.02105e-05
5.32312e-05
5.33167e-05
5.20268e-05
6.03458e-05
5.85616e-05
5.20123e-05
6.02522e-05
5.33428e-05
6.58363e-05
5.87734e-05
5.87647e-05
5.24636e-05
6.56759e-05
5.88859e-05
5.88907e-05
5.63955e-05
5.96796e-05
6.3649e-05
6.46617e-05
6.37536e-05
5.6338e-05
5.97838e-05
5.48809e-05
5.3285e-05
5.95903e-05
6.14485e-05
6.15473e-05
5.48508e-05
5.33122e-05
5.54621e-05
5.86449e-05
6.29177e-05
6.35165e-05
5.55106e-05
6.28925e-05
5.85852e-05
5.43242e-05
5.31039e-05
5.94131e-05
6.10386e-05
5.43364e-05
6.10361e-05
5.31091e-05
5.49136e-05
6.14857e-05
5.33703e-05
5.96075e-05
5.4907e-05
6.1544e-05
5.33689e-05
5.56532e-05
6.31732e-05
5.89961e-05
6.37112e-05
5.58169e-05
6.3085e-05
5.88392e-05
5.48103e-05
5.79959e-05
6.24238e-05
6.33593e-05
5.80941e-05
5.47287e-05
6.25626e-05
5.37387e-05
5.88104e-05
5.23865e-05
6.07408e-05
5.23241e-05
6.0601e-05
5.38071e-05
5.35421e-05
5.2128e-05
6.04055e-05
5.87524e-05
5.21698e-05
5.34889e-05
6.053e-05
5.50306e-05
6.3461e-05
6.27907e-05
5.84073e-05
5.83056e-05
6.26528e-05
5.51211e-05
5.37314e-05
5.24198e-05
6.05383e-05
5.8867e-05
5.37155e-05
5.24191e-05
6.05815e-05
5.49026e-05
5.80541e-05
6.24707e-05
6.33217e-05
5.48495e-05
5.81309e-05
6.25564e-05
5.50575e-05
6.33949e-05
6.26865e-05
5.83706e-05
5.82954e-05
6.26015e-05
5.51087e-05
3.05648e-05
4.08384e-05
4.49175e-05
4.34758e-05
2.74852e-05
4.55318e-05
4.39657e-05
4.58562e-05
2.39333e-05
4.60895e-05
4.33432e-05
4.99552e-05
3.18022e-05
4.56395e-05
4.63001e-05
4.93749e-05
3.92515e-05
4.60377e-05
4.77472e-05
5.0225e-05
3.54264e-05
4.71591e-05
4.70587e-05
5.13669e-05
3.34117e-05
4.78512e-05
4.73731e-05
5.05727e-05
4.96643e-05
4.11465e-05
4.31921e-05
4.07723e-05
4.13576e-05
4.18622e-05
4.39292e-05
7.47106e-05
4.67588e-05
4.61604e-05
4.14046e-05
4.44153e-05
4.52695e-05
4.38611e-05
4.94018e-05
6.69902e-05
6.84525e-05
5.91335e-05
4.46005e-05
4.52129e-05
4.05234e-05
4.44381e-05
4.0627e-05
7.02157e-05
4.79479e-05
4.09313e-05
4.42233e-05
4.07665e-05
4.46265e-05
4.50318e-05
3.80618e-05
4.18618e-05
4.56167e-05
3.77999e-05
4.51033e-05
4.97453e-05
4.90507e-05
4.18447e-05
4.44738e-05
3.76014e-05
4.25194e-05
4.19593e-05
4.62027e-05
4.60056e-05
4.77151e-05
4.60157e-05
4.17134e-05
4.33425e-05
4.55347e-05
4.98326e-05
3.81997e-05
5.28092e-05
3.78868e-05
4.47664e-05
4.67363e-05
4.49409e-05
4.89432e-05
4.9074e-05
3.76895e-05
4.24378e-05
4.67661e-05
4.45227e-05
4.62763e-05
4.56228e-05
4.61841e-05
4.60414e-05
4.94989e-05
4.59253e-05
4.52617e-05
4.60772e-05
4.93774e-05
5.47315e-05
5.92658e-05
5.02581e-05
4.55921e-05
5.42935e-05
4.7169e-05
4.93039e-05
4.9537e-05
5.04095e-05
4.64284e-05
5.45327e-05
4.86788e-05
4.61602e-05
4.58695e-05
4.6474e-05
5.03016e-05
5.14732e-05
4.60985e-05
4.77246e-05
4.67715e-05
4.98369e-05
5.91074e-05
5.02045e-05
5.42433e-05
4.72229e-05
4.91224e-05
4.70335e-05
4.95193e-05
4.94155e-05
5.44731e-05
4.86707e-05
4.91584e-05
4.73545e-05
4.7006e-05
4.68778e-05
4.81618e-05
5.13332e-05
4.93798e-05
4.72979e-05
4.72445e-05
4.81561e-05
5.13133e-05
4.9056e-05
4.55579e-05
4.68344e-05
4.69288e-05
4.34571e-05
4.6932e-05
4.95688e-05
5.03869e-05
4.68158e-05
4.68777e-05
4.34075e-05
4.65964e-05
4.82268e-05
4.77442e-05
4.79601e-05
4.93003e-05
4.988e-05
4.81761e-05
4.70665e-05
4.77919e-05
5.06645e-05
4.55647e-05
4.84279e-05
4.32815e-05
4.70888e-05
4.46487e-05
5.53691e-05
5.05707e-05
4.32411e-05
4.6732e-05
4.46973e-05
4.81828e-05
4.76589e-05
4.79991e-05
5.85272e-05
6.73073e-05
5.02381e-05
5.17123e-05
4.75271e-05
4.84326e-05
4.70169e-05
4.9687e-05
7.03586e-05
7.03748e-05
4.80046e-05
5.85141e-05
6.72908e-05
7.25245e-05
6.6805e-05
4.64784e-05
7.00867e-05
7.02718e-05
4.89504e-05
6.88713e-05
7.00528e-05
2.66501e-05
2.83213e-05
6.8387e-05
7.24496e-05
6.8223e-05
7.16876e-05
7.01285e-05
7.01874e-05
7.23481e-05
6.86165e-05
6.82993e-05
7.15584e-05
3.04666e-05
2.64163e-05
2.69335e-05
2.92266e-05
2.73852e-05
2.96084e-05
2.55435e-05
5.60364e-05
6.06854e-05
3.52284e-05
4.12962e-05
5.46741e-05
6.24015e-05
3.52154e-05
6.99982e-05
6.97974e-05
6.27776e-05
5.61468e-05
3.78986e-05
4.46482e-05
5.60896e-05
3.7492e-05
6.27081e-05
6.48657e-05
6.43204e-05
4.29094e-05
6.61501e-05
6.52021e-05
6.33128e-05
7.06121e-05
6.5244e-05
7.07275e-05
7.00641e-05
7.00682e-05
6.27299e-05
7.06267e-05
6.45993e-05
7.08395e-05
2.87175e-05
2.92725e-05
2.56277e-05
2.40826e-05
3.05564e-05
2.83711e-05
2.8861e-05
5.81182e-05
6.38254e-05
3.73171e-05
4.60694e-05
5.78581e-05
6.38004e-05
3.85809e-05
6.96405e-05
6.98182e-05
5.69129e-05
3.71403e-05
6.21061e-05
4.36818e-05
5.68182e-05
3.71442e-05
6.16078e-05
6.84864e-05
6.79924e-05
4.82871e-05
6.9229e-05
6.89453e-05
6.62465e-05
7.25165e-05
6.37395e-05
7.35096e-05
7.03704e-05
7.05395e-05
6.63349e-05
7.26473e-05
6.36865e-05
7.36081e-05
3.05866e-05
2.82107e-05
2.98743e-05
2.74554e-05
3.0411e-05
2.84311e-05
3.11003e-05
5.74135e-05
6.31079e-05
3.98879e-05
4.57994e-05
5.76234e-05
6.30253e-05
3.98831e-05
7.04193e-05
7.07254e-05
5.70792e-05
3.76507e-05
6.15453e-05
4.34778e-05
5.68095e-05
3.80245e-05
6.24442e-05
6.91354e-05
6.91966e-05
4.98247e-05
6.88132e-05
6.90546e-05
7.05449e-05
7.42352e-05
6.96851e-05
7.39928e-05
7.03396e-05
7.0078e-05
7.09945e-05
7.43088e-05
7.0097e-05
7.40399e-05
3.04214e-05
2.9207e-05
3.12216e-05
3.88441e-05
3.09284e-05
3.24109e-05
3.16544e-05
5.83971e-05
6.32632e-05
3.97688e-05
4.57031e-05
5.78006e-05
6.3318e-05
3.97853e-05
7.06462e-05
7.03002e-05
5.90564e-05
3.97619e-05
6.41196e-05
4.70724e-05
5.82929e-05
4.0414e-05
6.45919e-05
6.85729e-05
6.88559e-05
4.93121e-05
6.89266e-05
6.89481e-05
6.80133e-05
7.27632e-05
6.92897e-05
7.21946e-05
6.99107e-05
7.00455e-05
6.79539e-05
7.27461e-05
6.94362e-05
7.21736e-05
3.11749e-05
3.29046e-05
3.20788e-05
3.7723e-05
3.20468e-05
3.31515e-05
3.33089e-05
5.89718e-05
6.31048e-05
4.0301e-05
4.6281e-05
5.89489e-05
6.30223e-05
4.07021e-05
6.99267e-05
6.99749e-05
5.92431e-05
4.17969e-05
6.40272e-05
4.77088e-05
5.94884e-05
4.19506e-05
6.32936e-05
6.95128e-05
6.94036e-05
5.08782e-05
6.97617e-05
6.96059e-05
6.62113e-05
7.1783e-05
6.65265e-05
7.17918e-05
7.03391e-05
7.04893e-05
6.61221e-05
7.18068e-05
6.63585e-05
7.18477e-05
3.23349e-05
3.30815e-05
3.34901e-05
3.01894e-05
3.30025e-05
3.27952e-05
3.35004e-05
5.86356e-05
6.31079e-05
4.17754e-05
4.73993e-05
5.87501e-05
6.3311e-05
4.19904e-05
7.02967e-05
7.04996e-05
5.82906e-05
4.19165e-05
6.26089e-05
4.69877e-05
5.84991e-05
4.18064e-05
6.27201e-05
6.98196e-05
6.96624e-05
5.12582e-05
6.95532e-05
6.94823e-05
6.67534e-05
7.21274e-05
6.6331e-05
7.24452e-05
7.05975e-05
7.06103e-05
6.6861e-05
7.21754e-05
6.63914e-05
7.24697e-05
3.27418e-05
2.93298e-05
3.31537e-05
3.28053e-05
3.33444e-05
2.89397e-05
1.62642e-05
5.86458e-05
6.37118e-05
4.22451e-05
4.79236e-05
5.85918e-05
6.38957e-05
4.22448e-05
7.06696e-05
7.07062e-05
5.87028e-05
4.17454e-05
6.35978e-05
4.78202e-05
5.8402e-05
4.18468e-05
6.41421e-05
6.8958e-05
6.90624e-05
5.00699e-05
6.85787e-05
6.87104e-05
6.8157e-05
6.82026e-05
4.95583e-05
6.82088e-05
6.81837e-05
7.04963e-05
7.04299e-05
7.46772e-05
5.1284e-05
7.45194e-05
7.25504e-05
6.7908e-05
7.21578e-05
6.73857e-05
4.58752e-05
6.65304e-05
3.78272e-05
5.80052e-05
6.15707e-05
3.63405e-05
5.7429e-05
7.00847e-05
6.74262e-05
6.62522e-05
7.0107e-05
6.0065e-05
3.55352e-05
5.44981e-05
7.20608e-05
6.49577e-05
3.59298e-05
5.94662e-05
5.45767e-05
7.15635e-05
6.49306e-05
4.52317e-05
6.27777e-05
3.84957e-05
5.61492e-05
3.73371e-05
5.94774e-05
5.572e-05
7.20732e-05
6.58411e-05
7.135e-05
6.54638e-05
6.48522e-05
6.44282e-05
6.95978e-05
6.93856e-05
7.03023e-05
6.94867e-05
7.01997e-05
6.93832e-05
5.17771e-05
7.4656e-05
5.18536e-05
7.19067e-05
7.12104e-05
6.87204e-05
6.92047e-05
6.8743e-05
6.91308e-05
5.14556e-05
6.36181e-05
6.30287e-05
6.99394e-05
6.92417e-05
6.80223e-05
7.22083e-05
6.77298e-05
7.22325e-05
5.9028e-05
6.68597e-05
3.80466e-05
4.61463e-05
5.85059e-05
6.62588e-05
3.82449e-05
5.86599e-05
6.21359e-05
3.64369e-05
4.25489e-05
5.79597e-05
6.32405e-05
3.69262e-05
6.81244e-05
7.0725e-05
7.13884e-05
6.60385e-05
6.79258e-05
7.19503e-05
7.21809e-05
6.62888e-05
5.89733e-05
4.57947e-05
6.03202e-05
3.81223e-05
6.48322e-05
3.8256e-05
5.72204e-05
5.865e-05
4.42603e-05
6.32177e-05
3.83356e-05
6.33482e-05
3.78755e-05
5.75016e-05
6.79825e-05
6.69179e-05
4.6605e-05
6.89818e-05
6.86257e-05
7.01836e-05
7.03574e-05
7.0101e-05
7.01759e-05
4.7681e-05
6.89157e-05
6.96689e-05
6.90762e-05
6.90315e-05
7.03563e-05
7.03694e-05
5.93099e-05
4.67386e-05
3.94341e-05
5.93532e-05
4.6699e-05
6.57285e-05
3.94762e-05
7.22038e-05
6.82238e-05
7.18667e-05
6.43431e-05
4.55662e-05
3.9212e-05
5.9201e-05
4.55784e-05
3.92889e-05
6.38809e-05
6.76081e-05
7.07101e-05
7.12862e-05
6.54179e-05
5.90088e-05
4.62523e-05
5.9816e-05
3.89529e-05
6.42209e-05
3.9392e-05
5.64175e-05
6.76268e-05
7.14779e-05
7.17438e-05
6.56202e-05
5.89363e-05
4.55126e-05
3.91042e-05
6.17076e-05
3.92701e-05
6.3334e-05
5.66276e-05
6.62737e-05
7.21721e-05
6.52821e-05
7.24029e-05
5.58099e-05
3.5157e-05
5.94357e-05
4.02699e-05
5.46491e-05
3.48822e-05
6.02618e-05
6.61582e-05
7.16559e-05
6.52307e-05
7.19948e-05
5.64705e-05
4.2789e-05
6.37313e-05
3.591e-05
6.28606e-05
3.53481e-05
5.76213e-05
6.65492e-05
7.24284e-05
7.24313e-05
6.71595e-05
5.62268e-05
4.02964e-05
3.5017e-05
6.2134e-05
3.48745e-05
6.07581e-05
5.73597e-05
6.64063e-05
7.22836e-05
7.20815e-05
6.6963e-05
4.89876e-05
6.88567e-05
4.885e-05
6.89554e-05
6.8515e-05
7.00321e-05
6.99769e-05
6.96427e-05
6.97294e-05
4.87724e-05
6.67297e-05
6.7724e-05
6.84221e-05
6.83379e-05
6.99076e-05
6.99465e-05
5.56394e-05
3.64808e-05
5.928e-05
4.05766e-05
5.56172e-05
3.60016e-05
5.94409e-05
7.20699e-05
6.61525e-05
6.58426e-05
7.20319e-05
6.57848e-05
7.14352e-05
6.54508e-05
7.18144e-05
5.62742e-05
4.44334e-05
3.71678e-05
6.22866e-05
3.72662e-05
6.26259e-05
5.67278e-05
5.57915e-05
4.05617e-05
3.58458e-05
6.1546e-05
3.58437e-05
5.99632e-05
5.64842e-05
6.62662e-05
7.19269e-05
7.20034e-05
6.64666e-05
6.59445e-05
7.21996e-05
7.19273e-05
6.63368e-05
6.96684e-05
6.99976e-05
6.94583e-05
6.98409e-05
4.29713e-05
6.81029e-05
6.75425e-05
6.66772e-05
6.58557e-05
7.0269e-05
7.0064e-05
7.02032e-05
6.99324e-05
6.86919e-05
6.91234e-05
6.87351e-05
6.92286e-05
6.16143e-05
6.11381e-05
4.03861e-05
5.81609e-05
5.81199e-05
7.03445e-05
6.93654e-05
7.04538e-05
6.94783e-05
3.92508e-05
6.0907e-05
6.13148e-05
5.79958e-05
5.80371e-05
6.40154e-05
7.1882e-05
6.56014e-05
7.1842e-05
5.3902e-05
5.87191e-05
3.75738e-05
3.96223e-05
5.6326e-05
5.49687e-05
3.64127e-05
5.46324e-05
6.28447e-05
3.83904e-05
4.56324e-05
5.67212e-05
6.17362e-05
3.83188e-05
6.29902e-05
7.21184e-05
7.09967e-05
6.3073e-05
6.37781e-05
7.22751e-05
7.18937e-05
6.39598e-05
5.33243e-05
3.8238e-05
5.48071e-05
3.48559e-05
5.4417e-05
3.54076e-05
5.28279e-05
5.41506e-05
4.55236e-05
6.14849e-05
3.74203e-05
6.15299e-05
3.79932e-05
5.37729e-05
6.85691e-05
6.971e-05
4.98464e-05
6.77825e-05
6.95624e-05
7.03208e-05
7.02566e-05
7.03056e-05
7.00942e-05
4.9798e-05
6.79351e-05
6.92039e-05
6.76901e-05
6.94458e-05
7.02153e-05
7.02326e-05
5.30286e-05
5.82556e-05
3.7657e-05
3.94911e-05
5.54741e-05
5.47539e-05
3.60459e-05
6.32342e-05
7.14319e-05
6.48763e-05
7.15137e-05
5.35643e-05
3.85133e-05
6.11079e-05
4.36353e-05
5.57669e-05
3.74483e-05
5.96861e-05
6.24678e-05
7.22593e-05
7.1119e-05
6.28241e-05
5.24938e-05
3.8054e-05
5.49885e-05
3.40939e-05
5.42974e-05
3.47716e-05
5.21461e-05
6.30231e-05
7.22251e-05
7.16465e-05
6.34449e-05
5.30929e-05
4.29198e-05
3.57818e-05
5.96955e-05
3.64489e-05
5.94758e-05
5.28108e-05
6.72137e-05
7.23866e-05
6.7226e-05
7.22852e-05
5.79532e-05
3.56647e-05
6.25057e-05
4.39281e-05
5.76117e-05
3.72769e-05
6.32324e-05
6.70312e-05
7.23165e-05
6.70264e-05
7.23618e-05
5.8108e-05
4.62117e-05
6.32095e-05
3.97844e-05
6.36359e-05
3.93935e-05
5.77774e-05
6.70902e-05
7.22583e-05
7.22623e-05
6.67059e-05
5.79531e-05
4.52793e-05
3.94615e-05
6.33211e-05
3.86231e-05
6.33161e-05
5.77257e-05
6.69368e-05
7.23612e-05
7.23604e-05
6.65964e-05
6.61897e-05
6.75076e-05
4.66745e-05
6.52823e-05
6.71048e-05
6.99018e-05
6.99655e-05
7.03082e-05
6.99014e-05
4.64536e-05
6.64783e-05
6.74146e-05
6.52569e-05
6.70769e-05
7.01811e-05
6.99933e-05
5.69833e-05
3.59614e-05
6.19643e-05
4.34705e-05
5.66447e-05
3.64463e-05
6.28764e-05
6.63425e-05
7.1904e-05
6.64667e-05
7.18994e-05
6.63761e-05
7.22433e-05
6.63793e-05
7.23322e-05
5.68971e-05
4.34503e-05
3.73619e-05
6.14422e-05
3.71914e-05
6.1491e-05
5.68129e-05
5.70143e-05
4.47587e-05
3.82089e-05
6.32036e-05
3.74197e-05
6.30309e-05
5.70493e-05
6.62373e-05
7.21464e-05
7.1928e-05
6.60789e-05
6.63239e-05
7.23944e-05
7.23412e-05
6.62339e-05
7.02969e-05
7.03578e-05
7.02449e-05
7.03545e-05
4.90266e-05
6.92655e-05
6.92192e-05
6.93118e-05
6.9099e-05
7.03463e-05
7.0355e-05
7.03782e-05
7.03604e-05
7.06234e-05
7.13716e-05
7.07235e-05
7.14483e-05
6.26986e-05
6.30751e-05
4.34714e-05
6.77874e-05
6.8102e-05
7.18953e-05
7.15508e-05
7.19513e-05
7.16219e-05
4.64372e-05
7.39726e-05
7.42496e-05
6.94351e-05
6.97385e-05
6.66981e-05
7.24128e-05
6.4592e-05
7.27638e-05
5.58389e-05
5.63261e-05
3.47464e-05
3.8804e-05
5.29609e-05
6.12737e-05
3.48772e-05
5.63554e-05
6.17315e-05
3.71405e-05
4.47023e-05
5.38997e-05
6.34689e-05
3.71196e-05
6.70002e-05
7.41994e-05
7.37484e-05
6.91452e-05
6.73273e-05
7.2835e-05
7.28229e-05
6.90455e-05
5.69455e-05