/*--------------------------------*- C++ -*----------------------------------*\
| =========                 |                                                 |
| \\      /  F ield         | OpenFOAM: The Open Source CFD Toolbox           |
|  \\    /   O peration     | Version:  v2006                                 |
|   \\  /    A nd           | Website:  www.openfoam.com                      |
|    \\/     M anipulation  |                                                 |
\*---------------------------------------------------------------------------*/
FoamFile
{
    version     2.0;
    format      ascii;
    class       surfaceScalarField;
    location    "625";
    object      phi;
}
// * * * * * * * * * * * * * * * * * * * * * * * * * * * * * * * * * * * * * //

dimensions      [0 3 -1 0 0 0 0];
oriented        oriented;


internalField   nonuniform List<scalar> 
40846
(
-1.20681e-08
-5.41919e-08
-0.000228692
2.47584e-08
5.88071e-09
-1.92864e-08
-4.22051e-08
3.44984e-08
-0.000193009
-2.3236e-08
-3.27667e-09
-9.76057e-05
7.91504e-11
-2.79687e-08
-0.000192996
1.33227e-06
3.10571e-09
2.27652e-07
-1.0862e-06
3.31446e-07
-1.11608e-07
-1.85683e-07
8.80542e-07
-0.00113424
-3.2799e-07
-8.28834e-07
3.65876e-08
3.96227e-08
-1.08897e-07
-0.000244809
-2.64126e-08
-3.71934e-08
-9.77253e-05
-1.42421e-08
-9.77123e-05
-1.32326e-06
-1.19396e-06
-0.000267844
2.17233e-07
2.54841e-07
-1.376e-08
-1.83825e-08
-0.000277505
-4.75185e-08
-3.37765e-08
-0.00027744
1.01431e-08
-1.18429e-08
-6.67333e-08
-0.000228657
2.66241e-08
-7.69697e-09
-4.12422e-08
-2.13065e-08
-0.000192882
-9.41216e-08
-0.000249649
8.0692e-08
-1.83237e-07
-5.70231e-07
2.38858e-07
-1.16055e-06
3.10404e-07
-1.32189e-07
-8.61936e-07
2.08843e-07
-1.96534e-07
8.54975e-07
-0.00113117
-3.64469e-08
-0.000244852
-9.11508e-08
-7.3144e-07
4.74085e-09
-9.35365e-07
7.96693e-07
-7.49015e-07
9.7134e-07
-0.00115295
-0.000249638
-8.51424e-08
-2.12021e-07
6.76762e-07
1.14511e-06
-5.13465e-07
-7.56945e-07
3.01734e-07
9.63997e-07
-1.10045e-07
-1.34672e-06
1.29637e-07
-3.38658e-07
-0.00113318
9.34173e-10
3.18711e-08
-0.000244699
-1.41071e-07
-2.89231e-07
-8.76751e-07
8.42658e-07
-7.01901e-07
1.02802e-06
-0.00115404
-0.00026819
3.1708e-07
1.66091e-07
2.14752e-08
-0.000277196
-5.67094e-08
1.12547e-08
2.02828e-08
-3.17974e-08
-0.00027735
-1.27046e-08
-9.76493e-05
-1.66618e-07
-1.26676e-06
2.41473e-07
-2.25209e-07
1.8886e-07
-2.56485e-07
-0.00113121
-0.000244833
-7.21602e-08
-0.000192931
-5.49203e-09
1.618e-08
-2.45247e-10
0.000142863
-1.2568e-08
-0.000142867
-4.97087e-09
2.32064e-08
-3.14094e-08
2.21006e-08
-0.000228701
-0.00017047
-2.54875e-08
2.2803e-08
-0.000222732
2.74266e-08
-5.90398e-09
-5.52724e-08
1.45538e-08
-0.000170474
6.8914e-09
2.71871e-08
-0.000222743
-1.91684e-08
-5.10819e-09
7.90248e-05
-7.90323e-05
-0.000262467
3.51299e-08
-4.84733e-08
1.84739e-08
-2.19671e-08
1.38629e-08
-0.00019302
2.82363e-08
-0.000262475
-7.42318e-09
1.14578e-08
-9.76098e-05
-3.66358e-09
2.89044e-08
-0.00019301
-1.22385e-08
-9.77351e-05
9.68871e-09
-9.77257e-05
6.92979e-09
-7.31563e-09
0.000213189
-8.87449e-08
-2.42516e-08
-0.000213076
-8.03314e-05
-1.6732e-08
3.17562e-09
-8.03202e-05
-2.11591e-10
-9.9037e-09
6.35104e-09
-8.03308e-05
-9.61729e-10
-8.03266e-05
-2.73841e-08
-3.22885e-08
1.22365e-08
0.000221427
-4.69392e-08
-2.74173e-08
-0.000221454
-0.000182561
-3.85515e-08
-1.76304e-08
-3.33784e-10
-3.50019e-09
-0.000277496
4.89566e-08
-0.000250226
-8.49985e-08
-8.57695e-08
-0.00018256
-5.74986e-08
1.66429e-08
-4.56531e-08
-0.000250244
-3.70894e-08
0.000221383
2.53438e-08
5.4264e-08
-0.00022145
3.43268e-09
7.22664e-08
-1.70734e-08
-0.000277489
-0.000182513
-1.1457e-08
4.20042e-08
-0.000250136
-3.22678e-08
-7.43059e-08
-0.000182548
-3.20698e-08
2.25374e-07
-1.38469e-08
-0.00025025
-1.54493e-08
6.15659e-09
0.000142797
9.56371e-09
-0.000142797
-2.80263e-09
-2.67095e-08
6.36633e-09
-0.000228665
-0.000170443
2.24318e-08
-0.000222613
1.74143e-08
3.60784e-09
-6.74916e-08
-0.000170446
-1.38138e-08
3.11062e-09
-0.000222622
1.56978e-08
1.48672e-08
7.89109e-05
-7.89162e-05
-0.000262218
4.20763e-09
-6.30968e-08
-1.019e-08
5.72876e-09
-0.000192885
-2.10881e-09
-0.000262225
-3.19598e-09
-1.50607e-08
-8.02495e-05
-1.3824e-08
-4.85058e-09
-8.02589e-05
-1.38795e-08
-2.79153e-08
-0.000213062
4.59951e-09
5.5997e-08
0.000221241
-2.47345e-08
-1.46491e-08
-0.000221263
-0.000182363
-3.17427e-08
-7.46128e-09
-1.25486e-08
3.32877e-08
-0.000277197
-0.000250039
-3.47059e-09
3.3188e-08
-1.28465e-07
1.2001e-09
-0.000182367
1.01796e-07
-1.23428e-08
-0.000250085
-8.17537e-08
-1.77804e-08
-0.000182407
6.04405e-08
-8.12289e-08
-4.95683e-08
-0.000250227
-1.82545e-08
-0.000221313
-2.18754e-07
-0.00118439
1.23226e-07
-0.00121827
-8.06371e-08
-0.00118807
-3.77744e-07
-0.00121919
-0.000260058
-5.05356e-08
0.000242423
8.26884e-09
1.42476e-07
-0.000242547
-2.51585e-07
-1.73873e-07
-0.000269846
1.37636e-07
-0.000260435
1.00186e-07
-0.000260776
-0.000260794
-0.000260807
-1.64689e-07
-1.55793e-07
0.000265398
1.34031e-07
-0.000266147
9.94222e-08
1.3925e-07
-1.13911e-07
-0.000249752
-0.000249038
-1.93909e-07
6.26479e-08
-0.00026564
1.44856e-07
-1.63835e-07
7.77273e-08
-0.000249153
-1.75476e-07
-0.00026623
1.25252e-07
-1.61385e-07
9.47925e-08
0.000263621
-0.000264283
-0.000250167
-1.65226e-07
-4.30211e-08
7.89651e-08
-0.000244878
-0.000259925
-9.9246e-08
-0.000250265
-0.000259993
-1.17311e-07
1.66139e-07
0.000265432
-1.55922e-07
-0.000266201
-1.07129e-07
1.07647e-07
-0.000249746
-0.000248965
-2.34782e-07
-6.82367e-08
-0.000265681
-1.52502e-07
-9.22736e-08
-0.000249094
-0.000266285
-1.35725e-07
-8.80186e-08
0.000263667
-1.27083e-07
-0.000264365
-0.000250056
-2.28479e-07
6.56982e-08
2.32228e-08
-0.000244749
9.09076e-08
-0.000259913
-0.000250172
-0.000260025
6.30301e-09
1.5219e-07
0.000242422
-5.20453e-08
-0.000242553
-2.81993e-07
-1.11268e-07
-0.000270229
-0.000260932
4.04888e-08
-0.00026062
1.74297e-07
-7.54518e-08
-0.000260932
-0.000261242
1.13625e-07
-0.000244878
-0.000259913
-0.000259997
-2.47824e-09
1.45994e-09
-1.63118e-08
-0.000213059
-8.02508e-05
2.37317e-09
-8.02598e-05
-3.15823e-08
-1.28165e-08
-0.000221337
1.8814e-08
1.12995e-08
-7.60755e-09
-2.09362e-08
-0.000277351
-3.65829e-08
-0.000250279
-0.000182406
-6.2679e-09
-9.76507e-05
7.96399e-09
-0.000192937
-8.18532e-09
6.15172e-08
-0.000244866
-1.76069e-08
-0.00026018
-3.88893e-08
2.71083e-08
1.35322e-07
-1.09277e-07
1.2177e-07
0.000249987
1.93511e-06
9.82071e-07
-7.55355e-07
-9.31137e-07
8.06788e-07
0.00116075
-5.8021e-07
-1.97875e-06
-5.27923e-08
9.29095e-08
2.98367e-08
0.000228373
1.14003e-08
1.64436e-07
1.1981e-07
0.00024998
-1.44114e-06
-1.02584e-06
-3.11163e-07
8.31009e-07
-2.66427e-07
-9.20931e-07
1.82973e-07
1.51973e-06
-5.2813e-09
4.78088e-07
0.00113968
9.33198e-07
-8.16344e-07
-1.00337e-06
7.55596e-07
0.00116064
-4.76275e-07
3.65334e-09
2.32747e-08
-5.6505e-08
9.9354e-08
0.000244472
2.94244e-08
-2.84138e-08
0.000228317
-2.25381e-08
3.40528e-08
0.00019212
-1.29942e-06
-6.81295e-07
-9.87793e-08
3.50633e-07
1.11888e-06
-3.45857e-07
1.12379e-07
0.0011398
3.52438e-08
-1.90668e-07
-1.63753e-08
0.00024436
-7.40955e-08
0.000192071
0.000269397
-3.12502e-07
-5.03901e-08
2.18147e-08
-7.34326e-09
2.59691e-08
0.000276479
5.90023e-08
-1.17671e-07
-1.00417e-07
0.000276332
9.71089e-05
9.7024e-05
-0.000142396
-2.55772e-08
-1.13743e-07
1.0763e-07
0.000142427
7.07042e-10
0.0002223
-6.5113e-09
1.35883e-07
1.00749e-07
0.000169895
-7.67239e-08
1.4294e-07
5.5566e-08
-9.89231e-08
-1.00414e-07
0.000228373
9.56998e-08
-7.50404e-08
1.80182e-07
0.000222312
-9.05959e-08
0.000169927
-0.000142249
6.44981e-08
-6.2408e-08
-3.32702e-08
0.00014228
-5.12708e-08
0.000169839
2.94923e-08
0.000222162
-1.54128e-08
-3.57235e-09
5.90073e-08
-6.40977e-08
-9.48135e-08
0.000228318
-2.41343e-08
0.000169872
-3.8019e-08
-1.00488e-07
0.000222174
-7.85821e-05
-6.7001e-08
7.86159e-05
3.12594e-08
0.000261421
-5.13727e-09
5.45095e-08
-1.99218e-08
-7.35846e-08
0.000192159
-9.74587e-08
0.000261468
-4.52169e-08
-9.13884e-08
0.000192108
-0.000212404
3.2742e-08
3.89957e-08
-8.52091e-08
1.26351e-08
0.000212405
-1.0787e-08
7.98344e-05
2.17095e-08
-3.71532e-08
7.98103e-05
4.92244e-08
-7.19114e-08
5.07689e-08
1.52718e-08
7.98519e-05
2.20596e-08
7.98272e-05
-0.000220996
-1.05473e-07
1.96563e-08
2.58573e-09
0.000220994
3.25645e-08
0.000181596
7.72225e-08
0.000250316
-1.06469e-07
1.16265e-07
-4.77212e-08
-2.63236e-09
5.26073e-08
-3.68213e-08
0.000276513
8.85415e-08
-1.51144e-07
-2.17695e-08
0.000250336
0.000181629
-0.000220923
1.19026e-07
7.84176e-08
-1.79393e-07
0.000220918
-4.34728e-08
0.000181538
-1.63559e-07
0.00025014
2.2796e-07
-1.01697e-07
-1.57801e-07
-7.6156e-08
6.64976e-08
1.47526e-07
0.000276352
-1.04897e-07
1.83139e-07
-2.47986e-07
0.000250166
0.000181562
9.71416e-05
9.70452e-05
0.0011912
-1.09651e-06
-0.000266403
2.22677e-07
2.8232e-07
-2.2596e-07
0.000267106
1.31906e-07
0.000249204
-4.77101e-08
-3.1683e-07
0.000266734
3.18849e-07
-4.15093e-08
-2.15606e-07
7.66213e-08
0.000250068
-2.95459e-07
2.8581e-08
0.000249281
2.87515e-07
0.00026732
-0.000266402
-2.5213e-07
1.99515e-07
2.1387e-07
0.000267174
2.69055e-07
0.000266747
1.93024e-07
0.000249187
9.30637e-08
-1.84885e-07
7.63283e-08
0.000250071
2.22731e-07
0.000267353
6.28422e-08
0.000249299
-0.000264492
1.84653e-07
1.69024e-07
0.000265183
1.77093e-07
0.000250075
-1.66462e-07
0.000260517
-4.53966e-08
-1.09995e-07
0.000244517
0.00025018
0.000260608
0.000260365
-2.22451e-07
0.000244427
0.000260468
-0.000242684
-2.84245e-07
8.87472e-09
0.000242783
1.2532e-07
4.32402e-07
0.000271478
7.33386e-08
0.000261422
-2.00246e-07
0.000261757
0.00026172
0.000262063
-7.86396e-05
6.76955e-08
7.86795e-05
-8.59584e-08
0.000261614
1.0787e-08
2.24346e-07
-3.86824e-08
0.000261653
2.47999e-07
-0.000264429
2.17337e-07
0.00026502
-9.20649e-07
-1.13284e-07
8.69789e-08
0.000250071
7.30377e-08
7.97479e-07
-1.94441e-07
0.000250125
1.52974e-07
1.80889e-08
-5.64923e-08
-7.17501e-09
-0.00026238
-4.00971e-09
-7.89802e-05
-1.87897e-07
-1.25845e-08
-0.000250178
-3.90358e-08
-0.000263816
-6.36023e-08
0.000228631
1.03733e-07
2.51935e-08
-1.0128e-07
-0.000228595
0.00024974
1.4658e-07
-2.0947e-07
-1.50179e-07
-0.000249591
0.000270341
-1.19863e-06
-1.37144e-06
3.49322e-07
1.79383e-07
-0.000268299
0.00115519
-5.18064e-07
5.88508e-07
-0.00115502
-5.02802e-07
-8.84797e-07
8.38718e-07
-7.03891e-07
1.01784e-06
1.16827e-06
0.00113382
3.58566e-07
-0.00113402
1.96371e-07
-1.24602e-06
-2.64974e-07
-1.9444e-07
-8.08094e-07
2.51255e-07
-1.65597e-07
9.08803e-07
3.78613e-08
0.000228697
-7.15104e-08
-2.75463e-08
3.01839e-08
-0.000228666
0.000228661
-7.05216e-08
4.68798e-08
2.76528e-08
-0.000228627
0.000270116
-1.29455e-06
2.07379e-07
2.69423e-07
-0.00026813
-1.86889e-08
9.76582e-05
-8.90034e-09
-9.76306e-05
-9.24882e-08
3.16506e-07
2.0615e-07
5.98351e-07
-0.00118542
-0.00113438
-1.07433e-06
-3.5865e-07
-9.86251e-08
1.34793e-06
3.47101e-07
-1.55104e-07
8.9058e-07
-1.78839e-07
-8.20043e-07
2.35562e-07
-4.75725e-07
5.95086e-07
-5.00494e-07
1.01719e-06
-7.01728e-07
-8.82264e-07
8.37425e-07
1.23155e-06
1.19562e-06
-2.22094e-07
-1.80921e-07
0.000268092
-1.86746e-08
3.86519e-07
1.97572e-07
0.00115306
9.42441e-07
-7.64136e-07
-9.6297e-07
7.76042e-07
-0.00115362
5.46763e-08
0.00115422
-8.34183e-08
1.02893e-06
-7.13606e-07
-8.76843e-07
8.30549e-07
-0.00115448
-1.35133e-06
0.000270267
-1.16997e-06
-0.000268255
3.43597e-07
1.65424e-07
-3.57835e-07
-0.00113439
-1.07559e-06
3.52057e-07
-9.76005e-08
-3.26177e-07
-8.10807e-07
2.46167e-07
9.00522e-07
-1.71212e-07
0.00115518
-2.39181e-07
1.9402e-07
-1.98663e-09
-0.00115533
-9.05101e-07
8.24775e-07
-7.15583e-07
9.97614e-07
0.000192892
-3.32912e-08
-0.000192852
-2.52974e-08
-3.096e-08
-0.000277457
-1.94274e-08
3.91658e-08
9.88892e-09
0.000277458
-0.00113137
-1.11202e-06
-3.19088e-07
-1.38541e-07
1.3493e-06
3.24649e-07
8.55843e-07
-2.08467e-07
-8.75075e-07
2.35874e-07
-2.25825e-07
-0.00115408
5.17332e-07
-5.59883e-07
1.03405e-06
-7.01602e-07
-8.71677e-07
8.40818e-07
1.34292e-06
-9.78501e-08
-2.79511e-07
0.000268227
-0.000244838
-3.55759e-08
-7.01315e-08
1.07163e-07
0.000244806
7.35893e-09
9.08171e-08
-6.95199e-09
-8.75087e-08
0.000228627
1.43113e-07
1.12967e-07
-1.42256e-07
0.000249634
-1.43758e-07
1.50784e-07
2.72404e-08
0.00115497
9.90957e-07
-7.22983e-07
8.1665e-07
-9.08886e-07
7.19405e-09
1.5138e-08
-2.40691e-08
0.000192894
1.05195e-06
1.31006e-06
-8.9219e-08
-2.69113e-07
0.000268337
3.32361e-07
0.00113358
-2.46552e-07
1.17314e-06
2.0481e-07
-1.47882e-07
8.97553e-07
-1.7605e-07
-8.1569e-07
2.40585e-07
4.22861e-08
-4.21347e-11
-3.02452e-08
2.04179e-09
0.000228682
3.5062e-09
5.06994e-08
3.37011e-09
0.000228646
5.65484e-09
9.76597e-05
1.15267e-06
-8.945e-07
0.00122074
9.08589e-07
-0.00122152
0.00121969
1.00755e-06
5.8512e-07
-0.00122007
0.00122018
-4.55125e-09
1.10709e-07
-0.00122016
-3.57333e-07
0.00121997
2.37716e-08
2.92636e-07
-0.00121989
-9.17035e-07
-1.27325e-08
0.000192995
2.23757e-08
-0.000192965
-3.94687e-08
-4.36886e-08
0.000228673
9.03551e-08
2.02992e-08
-0.000228637
0.00113064
4.08006e-07
-1.22227e-06
3.19906e-07
-2.47574e-07
1.23669e-06
2.1343e-07
-0.00113126
8.38193e-07
-2.32205e-07
-8.812e-07
1.81631e-07
5.95172e-08
-0.000244764
-8.81783e-08
-5.8674e-08
0.00024974
1.32323e-07
-1.75638e-07
-0.000249594
8.17746e-08
1.2287e-06
0.00113067
2.20586e-08
-8.77485e-07
1.89384e-07
-2.24975e-07
8.40255e-07
-1.26561e-06
2.19039e-07
-2.40083e-07
-0.00115302
4.2083e-08
0.00115289
1.14106e-07
-9.43226e-07
7.93055e-07
-7.48682e-07
9.60518e-07
3.64492e-07
3.06109e-07
-0.00115332
9.5347e-07
-7.56589e-07
-9.48956e-07
7.84191e-07
-6.48089e-08
-2.75561e-08
0.000192791
6.26501e-08
-0.000192761
8.41269e-08
-0.00113327
0.00113347
1.65066e-07
-1.28647e-06
-2.96164e-07
-5.5243e-07
-7.39645e-07
3.29043e-07
-8.74493e-08
9.82606e-07
-0.00115405
0.00115404
-8.68261e-07
8.39355e-07
-7.05209e-07
1.03564e-06
-1.72048e-07
-7.96317e-08
0.000244736
1.19604e-07
-1.68264e-07
-0.000244672
-1.83518e-07
-3.8027e-07
-0.00113306
-1.24879e-06
9.70973e-07
-9.61565e-08
-7.53268e-07
3.22575e-07
1.2315e-06
-2.62683e-07
1.93253e-07
5.39359e-08
-0.00115417
1.02233e-06
-7.20312e-07
-8.82146e-07
8.24588e-07
-4.00541e-08
9.75415e-05
-9.7529e-05
0.000277124
-8.96244e-08
-4.64122e-08
-0.000277108
5.54268e-09
-3.27447e-08
0.000277268
-1.9975e-08
2.06481e-08
-0.000277241
-7.79663e-09
9.75791e-05
-9.75658e-05
-0.00113427
0.00113453
3.74094e-07
-1.05293e-06
-7.9956e-08
-4.56068e-07
-8.15197e-07
2.48965e-07
-1.71827e-07
9.08806e-07
-2.89935e-10
0.00024986
-2.11642e-07
6.53459e-09
-0.000249726
3.95904e-08
0.000244871
-1.09008e-07
-2.09874e-08
-0.000244813
-5.05143e-07
-5.81879e-07
-0.00113393
-1.07282e-06
1.35884e-06
-9.08601e-08
3.6209e-07
9.11729e-07
-1.67189e-07
-8.08999e-07
2.52734e-07
-4.29477e-07
-5.17235e-07
-0.00115483
1.01234e-06
-7.09025e-07
-8.87865e-07
8.33949e-07
-0.00115494
0.00115488
-3.45774e-07
-8.89691e-07
8.41811e-07
-7.05122e-07
1.01249e-06
0.000249807
-2.13672e-07
1.30587e-08
-0.000249677
2.56053e-08
4.97512e-08
0.000244735
-1.10777e-07
-4.10414e-08
-0.000244659
1.52101e-07
-1.30617e-06
-3.31099e-07
9.18459e-07
-1.55418e-07
-8.02306e-07
2.59024e-07
1.14074e-06
-2.73551e-07
1.85511e-07
-0.00113381
-3.28203e-07
-0.00115514
1.01683e-06
-7.0733e-07
-8.9174e-07
8.40659e-07
-1.50967e-08
7.4683e-09
0.000244628
5.18738e-08
6.44769e-10
-0.000244673
0.000192857
1.14374e-08
-0.000192836
3.54052e-08
0.000192885
-4.88583e-08
-0.000192846
2.20172e-08
0.000192803
-4.02522e-08
-0.0001928
0.000277335
-4.89529e-08
-3.86041e-08
2.47703e-08
-0.000277281
-7.04734e-09
0.00027723
-3.58485e-08
4.0012e-08
-0.000277178
1.14646e-06
0.000268187
-2.35353e-07
-1.6604e-07
-0.000270238
-1.4033e-08
-3.28504e-08
0.000277217
1.28588e-08
2.10093e-08
-0.000277204
-1.80357e-08
0.000277117
3.42468e-09
1.75543e-08
-0.000277112
-1.8599e-08
9.75981e-05
-9.75935e-05
9.76385e-05
-9.76102e-05
9.75774e-05
-9.75734e-05
-1.51533e-07
-3.97645e-08
0.000228618
1.7968e-08
1.38807e-07
-0.000228584
-0.000192998
-6.78007e-09
2.65861e-08
-1.05372e-08
0.000192989
-0.00022867
-7.0597e-08
2.16026e-08
0.000228665
-6.17418e-09
5.95401e-08
-9.75931e-05
1.13876e-08
-4.16958e-09
9.75859e-05
8.95409e-09
-3.25071e-08
0.000192983
2.6932e-08
7.78191e-08
-7.00977e-09
0.000228666
-7.15804e-07
-0.00121938
4.35486e-07
2.36837e-07
1.08965e-07
2.67409e-08
0.00122018
-2.85822e-07
-3.35059e-07
5.27979e-07
-8.14962e-07
0.00115528
-0.00115538
-3.49249e-07
1.00625e-06
-7.09562e-07
-8.9039e-07
8.27412e-07
6.86582e-08
1.54809e-08
-0.000249696
-3.35919e-09
-2.0573e-07
-0.000244867
2.69945e-08
-7.15545e-09
5.9991e-08
-2.14822e-08
0.000244809
-0.000249834
4.04812e-09
2.10936e-08
1.0937e-07
0.000249703
-3.12222e-09
-1.05963e-07
-2.09393e-07
-9.01897e-07
8.1815e-07
-7.20773e-07
9.96241e-07
2.52073e-08
-9.75081e-09
9.75261e-05
-8.50647e-08
1.3692e-06
3.69279e-07
-3.17517e-07
9.03395e-07
-1.75212e-07
-8.18276e-07
2.46914e-07
1.20215e-08
1.09285e-07
-1.53892e-09
0.00024974
6.48838e-09
-8.27577e-09
6.18491e-08
-6.83327e-09
0.000244818
-2.12505e-08
1.33134e-08
5.90822e-09
0.000277342
-3.60405e-08
-2.51525e-08
2.11387e-08
3.03377e-08
0.00027724
-1.27432e-06
-1.18854e-06
-0.000268058
2.23791e-07
2.51458e-07
-2.71877e-08
1.98541e-08
-0.000277401
3.41046e-09
-4.67971e-08
-6.1576e-08
-3.55322e-09
-0.000277301
4.05853e-08
-2.61442e-08
-9.29632e-09
-9.10175e-09
9.7724e-05
-9.77056e-05
3.20617e-08
-2.62971e-08
9.76875e-05
-9.76933e-05
1.36891e-09
9.77198e-05
-9.76988e-05
1.25099e-06
-2.15654e-07
0.000267677
-2.43209e-07
-0.000269691
-0.000277421
-6.69238e-09
3.1732e-08
-1.26594e-06
0.000269745
-0.000267704
2.47767e-07
2.06298e-07
-6.05479e-08
0.000277395
-1.4854e-08
-0.000277349
1.99776e-08
-7.21839e-08
5.81849e-08
3.3511e-08
0.000277296
-0.000277284
-6.55701e-08
0.000228578
2.36353e-08
-1.45363e-07
-0.000228542
-1.86466e-07
0.000249662
-1.70265e-07
1.76041e-07
-0.000249521
0.000249669
-2.03379e-07
-1.82963e-07
-0.000249535
-1.38961e-07
3.35958e-08
-1.036e-08
1.25681e-07
0.000228608
-1.50648e-08
-0.00019297
-2.19315e-08
5.23403e-08
-6.88057e-08
0.000192946
-0.000192956
-8.99004e-08
-4.52e-08
-0.000228634
2.16741e-08
7.79153e-08
7.52429e-09
-5.22523e-09
-1.32786e-07
0.000228569
-6.38314e-08
-1.39779e-08
0.000192853
-0.000192817
4.2319e-08
-2.44869e-08
-5.31466e-08
8.78254e-08
0.000192792
-0.000192802
-6.74321e-08
0.000228634
-0.000228597
2.46241e-08
-8.34688e-08
0.00113137
1.89908e-07
1.21282e-06
-2.01951e-07
2.54565e-07
8.12556e-07
-2.54903e-07
1.6253e-07
-9.07169e-07
-0.00113119
-2.92863e-07
2.05254e-07
-1.16435e-06
2.88305e-07
-1.71748e-07
-8.98369e-07
1.80234e-07
-2.44194e-07
8.22973e-07
-3.22384e-07
0.00115286
2.10492e-07
-9.54838e-07
7.8535e-07
-7.61275e-07
9.51855e-07
-1.85904e-07
1.55102e-07
1.76808e-07
0.00024955
0.000244813
-6.17497e-08
-0.000244728
-9.86888e-08
1.30675e-07
-1.19531e-07
0.000244686
-0.000244717
-1.66798e-07
0.000249724
-1.71933e-07
-0.000249581
1.50418e-07
-3.65749e-07
-1.09962e-07
-8.74218e-07
8.43476e-07
-7.08137e-07
1.03834e-06
-0.00113335
0.00113328
-1.31792e-06
1.37828e-07
-3.23819e-07
-4.49117e-07
-7.39972e-07
3.27638e-07
-8.71159e-08
9.85258e-07
-1.2835e-06
-3.16154e-07
9.76845e-07
-9.77416e-08
-7.48258e-07
3.22518e-07
1.20283e-06
-2.96155e-07
1.66488e-07
-0.00113336
1.17093e-07
-1.83656e-07
0.000249557
-6.35561e-08
0.000244735
-1.70612e-07
-0.00024467
1.05122e-07
-1.24095e-07
1.44009e-09
1.52808e-07
0.00024466
-0.000244714
0.000249721
-2.12971e-07
-0.000249583
-1.59194e-07
-3.43536e-08
-9.75728e-05
-3.8364e-08
9.75672e-05
-9.7582e-05
1.0885e-06
0.000268267
-1.02883e-07
-2.46844e-07
-0.000270289
0.000277176
-9.10604e-08
-0.000277153
-3.00732e-08
2.35799e-09
-4.84967e-08
0.000277322
-1.98887e-08
-0.000277291
3.51054e-08
-5.27148e-08
-8.2552e-08
0.000277144
-0.000277171
-2.36307e-08
-3.55791e-08
3.24477e-08
3.26814e-08
0.000277268
-0.000277274
-1.90605e-08
9.76301e-05
-9.76087e-05
-1.63884e-08
9.75943e-05
-9.76016e-05
-0.00115534
-4.58288e-07
-8.83929e-07
8.32713e-07
1.01129e-06
-7.02691e-07
-2.91635e-07
-4.88952e-07
1.34085e-06
-1.09424e-07
3.47947e-07
9.16098e-07
-1.54427e-07
2.54754e-07
-7.98224e-07
-0.00113432
-1.87936e-07
-5.32964e-07
1.02092e-06
-6.9932e-07
8.42839e-07
-8.80846e-07
-0.00115519
3.29003e-09
1.89626e-09
1.04081e-07
1.27205e-08
0.000249713
-0.000249835
4.13765e-08
-1.12879e-07
-0.000244811
-3.38841e-08
-9.58289e-09
5.48011e-08
-3.29404e-08
0.000244807
-0.000244855
7.71544e-08
1.46336e-08
-2.15273e-07
-0.00024971
-1.30617e-10
2.00442e-08
-7.84091e-09
6.89234e-09
0.000228642
-0.000228658
0.000192915
-0.000192888
-5.28695e-09
-1.48874e-08
0.000192874
-0.000192885
2.37689e-08
0.000228694
-0.000228661
-1.07136e-08
3.12184e-08
-0.00113324
0.00113292
2.78357e-07
-1.19327e-06
-1.8515e-07
4.65802e-08
-8.3411e-07
2.22925e-07
-1.88335e-07
8.7859e-07
0.00024476
-1.04175e-07
-0.00024469
-4.82503e-08
-1.10634e-07
-3.79205e-07
1.00745e-06
-7.0698e-07
8.34619e-07
-8.90213e-07
-0.00115527
6.9184e-08
1.31674e-06
-1.78823e-07
2.86329e-07
8.91015e-07
-1.77072e-07
2.31082e-07
-8.1921e-07
-0.00113383
-1.3517e-08
0.000244666
5.92839e-08
-3.4234e-08
-0.00024471
1.63608e-09
1.08291e-07
1.39368e-08
0.000249669
-0.00024979
7.30898e-08
0.000249788
-2.09956e-07
3.04946e-08
-0.000249667
0.000192808
-3.58899e-08
-0.000192804
2.96937e-08
6.50451e-09
0.0002286
-0.000228615
0.000228654
3.27235e-08
-0.00022862
3.01749e-08
5.92892e-10
9.77166e-05
9.77093e-05
1.25243e-06
-1.65247e-07
-2.23799e-07
0.00026777
-2.71448e-08
1.622e-08
-3.76465e-09
0.00027741
-5.4939e-09
2.20831e-08
0.000192848
3.37317e-09
0.000228629
-4.06025e-09
-6.47272e-08
3.93462e-08
9.69897e-07
-7.53276e-07
-9.40801e-07
7.8861e-07
9.62279e-08
-7.2034e-08
0.000244788
-1.48647e-07
1.44857e-07
0.000249614
1.35562e-07
-3.38938e-07
1.15141e-06
1.26494e-07
-5.09015e-07
9.78561e-07
-9.47838e-08
-7.44371e-07
3.18118e-07
-6.59795e-08
9.01553e-09
1.02851e-07
0.000244683
1.09545e-07
0.00024961
-1.438e-07
-3.01585e-08
-3.30433e-08
0.000277169
-1.21157e-08
2.51559e-08
1.87526e-08
0.000277317
-9.44442e-09
9.76274e-05
1.26386e-07
1.4536e-07
0.000249638
-1.47648e-07
8.49441e-07
-2.17431e-07
-8.67155e-07
1.84646e-07
-2.3037e-07
1.23629e-06
2.21889e-07
-2.39653e-07
-1.05088e-07
9.71594e-07
-7.40293e-07
-9.33416e-07
7.9971e-07
-7.11657e-09
4.31795e-08
0.00019278
3.07344e-07
-3.13866e-07
1.17954e-06
1.51741e-07
-6.62277e-07
9.84801e-07
-8.82597e-08
-7.38698e-07
3.24775e-07
1.04228e-06
-6.95094e-07
-8.63363e-07
8.46262e-07
-3.48765e-07
-8.89681e-08
1.16856e-07
8.24535e-09
0.000244692
1.01866e-08
-0.000228697
-8.28337e-10
2.82182e-08
-7.99823e-09
0.000192907
2.25383e-08
0.00022868
-1.03308e-08
5.91711e-09
0.00113262
-1.87697e-07
1.28386e-06
2.70746e-07
1.02446e-07
8.74426e-07
-1.96357e-07
2.23306e-07
-8.41154e-07
6.9404e-08
-3.62492e-08
0.000244721
6.55953e-08
-0.00024966
-2.0088e-07
2.70058e-08
-6.27058e-08
1.3982e-07
-1.20248e-06
2.58994e-07
-1.92067e-07
-8.43004e-07
2.23497e-07
-1.96573e-07
8.73127e-07
-1.84869e-10
1.15001e-07
3.24028e-08
0.000249662
-3.42991e-08
-9.1322e-07
8.09773e-07
-7.2924e-07
9.86265e-07
3.69383e-08
-0.000244751
-3.15573e-08
-1.05821e-07
-0.00022866
2.76962e-08
1.63468e-08
2.99882e-08
0.000228641
4.88524e-09
3.97273e-09
-0.000192933
-4.49191e-09
-3.49778e-08
-5.11407e-08
0.000277112
-9.45596e-09
2.50833e-08
5.08574e-09
0.000277254
6.65162e-10
9.7569e-05
-3.08054e-07
1.00829e-06
-7.06212e-07
-8.90027e-07
8.36628e-07
1.09492e-07
2.26823e-08
0.00024969
-2.39419e-08
7.07485e-08
-3.9976e-08
0.000244692
-1.1917e-07
-1.21104e-06
2.21802e-07
-2.26879e-07
-8.25778e-07
2.3126e-07
-1.85636e-07
8.87117e-07
2.46901e-08
-0.000244727
-6.63737e-08
-9.68094e-08
7.84427e-09
0.000192841
2.76145e-08
-5.27797e-08
0.000192886
2.9334e-08
-0.000192924
-4.12672e-08
-9.76851e-05
9.7641e-05
-9.76691e-05
3.53178e-08
8.2186e-10
0.000142727
-3.08458e-08
-0.000142732
-0.000170374
-2.73338e-08
0.000170401
2.55198e-08
-0.000222545
2.81323e-08
0.000222583
-8.2809e-08
-8.46248e-08
-8.74869e-09
-1.14786e-07
1.15687e-07
1.12924e-08
-0.000228598
3.45792e-08
-0.000170382
-9.7974e-08
-6.42932e-09
-0.000222554
0.000142751
-2.34953e-08
6.03948e-10
1.84211e-08
0.000142801
-1.0125e-08
-0.000142809
-0.000222677
3.35348e-08
0.000222707
-1.65566e-08
-7.42526e-08
-0.000170405
-1.89159e-08
2.43532e-08
0.00017043
-2.45045e-08
5.53254e-10
3.24899e-08
3.81304e-09
-0.000228678
-1.73525e-08
7.29119e-09
-0.000222691
2.47941e-08
-0.000170411
0.000142824
-9.17054e-09
5.48733e-09
-3.04039e-08
0.000142752
2.72918e-08
-0.000142754
-0.000222587
2.00599e-08
0.000222625
5.05032e-08
-6.12569e-08
-0.000170376
2.86748e-08
0.000170399
4.01416e-08
2.47215e-09
3.90009e-09
-0.000228641
4.37039e-08
1.2963e-08
-0.000222598
-0.000170379
0.000142774
2.67601e-08
-1.41685e-08
1.09092e-08
-9.76273e-05
1.82883e-08
7.89239e-05
-7.89244e-05
-1.78302e-08
-3.23508e-08
-0.000192849
1.50707e-08
-0.000262209
8.13589e-09
0.00026226
-3.56036e-08
-4.85107e-08
-0.000262206
-3.54792e-08
1.83065e-08
7.89476e-05
-1.55642e-08
-0.000221377
6.28765e-09
-1.31935e-08
-7.32559e-08
7.32249e-09
-3.09143e-10
0.000250169
-0.000250182
-1.765e-08
6.98353e-08
2.00798e-08
0.000182533
-0.000182548
4.53858e-09
1.54656e-08
-5.50003e-09
5.07845e-09
-4.62267e-08
-0.00022138
-1.20265e-08
3.53685e-08
7.00455e-09
-6.91487e-08
-3.05273e-08
-0.000142747
9.15724e-09
-2.6161e-08
-8.02517e-09
-1.67948e-08
0.000170394
1.63762e-08
-2.78024e-09
0.000222574
-7.00236e-08
-5.46396e-09
2.69212e-08
-7.23498e-08
7.66553e-08
-6.68708e-08
-1.52778e-08
7.37109e-09
-5.37454e-08
-8.28916e-08
-7.89462e-05
-1.19784e-08
-1.05137e-08
7.89687e-05
-1.50979e-08
0.000262262
-3.09866e-08
1.94838e-08
-1.54582e-08
1.12101e-08
0.000192932
-3.42545e-08
-1.37087e-08
-2.85769e-08
0.000262312
-4.8431e-08
-0.000142817
-3.49523e-08
1.59654e-08
-6.65469e-09
7.55094e-10
0.000222695
-2.06626e-08
2.06433e-09
-1.63726e-08
0.000170425
2.31332e-08
-3.15809e-08
3.16571e-08
4.5093e-08
-7.46968e-08
-7.89457e-09
-1.48278e-08
-7.86606e-08
2.11435e-08
-0.000142771
-2.14299e-08
-2.49656e-08
2.40302e-08
-4.4795e-09
0.000222613
5.22074e-08
1.49839e-08
2.86573e-08
0.000170397
5.41712e-08
2.85773e-08
-7.05715e-08
2.64071e-08
5.56016e-08
-5.96961e-08
-1.4493e-08
9.76854e-05
3.11385e-08
7.89969e-05
-2.31586e-08
-7.90048e-05
-5.2846e-08
1.97505e-08
4.38958e-08
-0.000192976
-0.000262398
4.03491e-09
-6.73867e-08
0.00026244
-1.80726e-08
-7.32043e-08
5.36403e-08
-0.000262401
-1.70183e-08
7.90179e-05
1.72106e-08
-3.17071e-08
0.000142819
-0.000142828
-0.000222681
1.52628e-08
0.000222717
-2.90139e-08
-0.000170409
2.19383e-08
0.000170432
1.00543e-07
-1.02484e-08
3.26458e-08
-0.000228644
4.9875e-08
-0.000222686
-0.000170416
0.000142839
-1.65484e-08
7.88699e-05
-7.88842e-05
-0.000262117
3.46832e-08
0.00026215
-8.72212e-08
7.46433e-08
-4.5661e-08
-1.53777e-08
-0.000192775
-1.86374e-08
-0.000262139
7.88811e-05
-2.63666e-08
-9.75483e-05
9.88451e-08
2.602e-08
0.000221239
-4.27303e-08
-5.26994e-08
-0.000221268
-0.000250086
-5.20395e-08
0.000250144
-1.71693e-07
7.61096e-08
-0.000182257
-4.86801e-08
-1.49061e-08
0.000182274
-4.67059e-08
-7.67228e-08
1.15832e-07
-0.000277127
-4.60259e-08
1.39536e-07
-0.000250128
-2.95288e-08
-0.000182278
-1.77136e-08
0.000221271
-1.15041e-07
1.69868e-08
-1.44522e-08
0.000212984
-3.82131e-08
-0.000212991
-8.01909e-05
-2.29606e-08
8.0199e-05
-8.02048e-05
5.32541e-11
-8.32534e-09
8.02131e-05
-8.02035e-05
-2.00737e-09
-8.02172e-05
-5.15993e-08
0.000212995
-3.10545e-08
-4.6392e-08
0.000221318
6.69312e-08
-0.000221346
-0.000250282
7.80485e-08
0.000250339
-4.37297e-08
-1.11602e-07
-0.000182307
-4.14508e-10
0.00018232
1.13764e-08
3.32437e-08
-1.43317e-08
-1.19851e-08
-0.00027726
-0.000182329
8.47454e-08
-5.3124e-08
-0.000250327
0.000221345
-9.93135e-10
-1.0418e-09
-9.75791e-05
4.74806e-09
7.89299e-05
-7.89448e-05
-0.000262286
2.41077e-08
0.000262316
-5.91337e-08
7.60133e-09
1.01022e-08
-0.000192855
1.46617e-08
-0.000262305
7.89449e-05
2.8588e-08
7.89094e-05
-7.89107e-05
-0.000262194
-3.19294e-09
0.000262244
-4.54795e-08
-4.99123e-08
-0.000192843
2.68386e-08
2.0555e-08
-0.000262192
2.00752e-08
7.8933e-05
-7.88873e-05
2.27264e-09
-2.57085e-08
-4.2561e-08
3.25625e-08
-3.02708e-08
-2.60533e-08
0.000262142
1.36696e-08
-0.000262141
-2.90653e-08
-7.88889e-05
-2.43917e-08
-5.12591e-08
-3.87916e-08
-6.89995e-09
0.000221271
-1.74682e-08
5.97005e-09
-0.000221278
2.53902e-08
5.12409e-08
-0.000250123
0.000250174
-6.75071e-08
-7.33985e-08
-0.000182406
-2.64703e-08
6.24576e-09
0.000182451
1.25039e-08
1.52251e-08
-0.000277269
-2.88722e-08
-9.7866e-10
-0.000182399
2.21887e-08
0.000221316
-4.20201e-08
-0.000250163
5.27437e-08
-1.43525e-08
3.16471e-09
-7.5523e-09
0.000213056
-4.41168e-09
-0.000213041
-8.02703e-05
-1.40002e-08
8.02905e-05
-8.02529e-05
-6.96738e-10
-1.94629e-08
8.02731e-05
-8.02681e-05
-9.04979e-09
-8.02514e-05
-2.91651e-08
0.000213092
4.11586e-09
-9.33472e-09
0.000221208
-0.000221212
4.17251e-09
-0.000250002
3.66545e-08
0.000250054
-8.95321e-08
-3.49915e-08
-0.000182351
-1.9715e-08
0.000182391
1.29513e-08
2.58523e-08
-0.000277168
-2.32818e-08
-2.47937e-08
-0.000250038
2.72156e-08
2.62619e-08
-0.000182344
0.00022125
-5.429e-08
2.39604e-08
-5.78994e-08
-0.000221236
2.7472e-08
-3.62435e-08
3.26903e-08
-3.54373e-08
4.67127e-09
-5.38853e-08
0.000250112
2.41467e-08
5.21392e-08
-1.80966e-08
-0.000250157
0.000182352
8.33709e-09
2.11787e-09
-0.000182342
9.90673e-09
-6.68467e-08
-7.81543e-08
1.29973e-08
2.72739e-08
-0.000221243
1.16802e-08
4.5904e-09
-0.000213008
-2.19531e-08
8.02465e-05
-1.12498e-09
-8.02433e-05
8.02303e-05
2.90252e-09
-3.67256e-09
-8.02295e-05
-1.65489e-08
-3.04113e-11
-0.000212993
-2.36468e-08
2.50177e-08
-0.000221172
-6.29028e-08
-4.5301e-08
3.34646e-08
-3.35203e-09
-3.64818e-08
0.000249986
-1.40049e-08
4.59253e-08
2.02104e-08
-0.000250035
0.000182302
4.07168e-09
-0.000182292
-1.83315e-08
-1.02697e-07
-1.98713e-09
-0.00022118
-2.45251e-08
-9.76066e-05
-5.98955e-08
2.4301e-08
0.000142807
4.54499e-08
-0.000142817
-0.000170394
4.91924e-08
-5.39429e-08
0.000170416
-0.000222625
7.93532e-09
0.00022266
-1.50566e-08
1.11037e-07
-1.14374e-08
1.48232e-07
-1.60649e-07
3.90787e-08
-0.000228599
-6.31822e-08
-0.000170402
6.37263e-08
1.19942e-07
-0.000222636
0.000142826
3.82007e-08
-7.90123e-05
-2.61166e-08
6.15397e-09
-9.31864e-09
0.000262432
-3.81247e-08
-0.000262436
4.13893e-08
8.1505e-09
-6.96243e-09
-3.18539e-08