/*--------------------------------*- C++ -*----------------------------------*\
| =========                 |                                                 |
| \\      /  F ield         | OpenFOAM: The Open Source CFD Toolbox           |
|  \\    /   O peration     | Version:  v2006                                 |
|   \\  /    A nd           | Website:  www.openfoam.com                      |
|    \\/     M anipulation  |                                                 |
\*---------------------------------------------------------------------------*/
FoamFile
{
    version     2.0;
    format      ascii;
    class       volVectorField;
    location    "625";
    object      U;
}
// * * * * * * * * * * * * * * * * * * * * * * * * * * * * * * * * * * * * * //

dimensions      [0 1 -1 0 0 0 0];


internalField   nonuniform List<vector> 
14212
(
(-4.30156e-06 -1.11685e-05 0.0911506)
(1.0012e-05 -1.41548e-05 0.0819991)
(1.12128e-05 1.0537e-06 0.0712942)
(-1.07515e-05 5.85974e-07 0.0820009)
(1.80129e-06 -4.21738e-05 0.107683)
(1.79903e-05 -1.36784e-05 0.0928046)
(9.54014e-06 -9.19567e-06 0.0713647)
(-5.14275e-06 2.62149e-07 0.0713599)
(-5.7114e-05 -4.51031e-05 0.104224)
(2.51806e-06 -1.15923e-05 0.0873582)
(-4.79064e-06 -7.14723e-06 0.0873514)
(-4.56108e-06 -1.32538e-05 0.0911524)
(9.10685e-06 -3.67072e-06 0.0819733)
(-3.48358e-05 -1.97314e-05 0.0983947)
(-4.03161e-05 7.53066e-07 0.107435)
(-7.03086e-06 -1.39516e-05 0.0928247)
(-6.66113e-05 -1.2637e-05 0.109961)
(-3.58124e-05 -2.6996e-05 0.0983995)
(-5.48347e-05 -4.70121e-05 0.107629)
(-4.96257e-06 -2.42832e-05 0.0928013)
(-7.10497e-05 -3.30855e-05 0.110068)
(7.72733e-06 -8.18306e-05 0.104357)
(6.89774e-06 -7.24685e-06 0.0872946)
(6.18619e-06 -1.22053e-05 0.0873043)
(4.04977e-06 -5.34363e-06 0.0713144)
(-1.21729e-05 -1.84862e-05 0.107434)
(-9.331e-06 -1.80488e-05 0.0928278)
(9.81475e-06 -4.29968e-06 0.0819725)
(7.53449e-06 -2.15936e-06 0.0765923)
(-1.16106e-05 2.2431e-06 0.0911149)
(1.02425e-05 -6.56455e-06 0.0783949)
(-6.25894e-08 -1.18261e-05 0.0896666)
(6.48235e-06 2.37713e-07 0.0783652)
(-6.91229e-06 2.54949e-06 0.0896266)
(1.25768e-05 -9.17736e-06 0.076626)
(7.56774e-06 -9.34514e-07 0.068183)
(6.23618e-06 -1.06054e-05 0.0856041)
(8.47911e-06 -3.5357e-07 0.0819592)
(2.20673e-06 2.02655e-06 0.0855592)
(1.1898e-05 -7.14196e-06 0.0682277)
(4.34328e-06 5.72639e-06 0.0712463)
(3.287e-06 -3.1104e-07 0.0819612)
(1.10676e-05 -2.70438e-06 0.0713275)
(1.43348e-06 1.97115e-06 0.0713226)
(6.9029e-06 -1.52722e-06 0.0833961)
(1.75783e-06 -5.41944e-06 0.0681709)
(-9.87748e-07 -4.57519e-06 0.0681675)
(4.8332e-06 -2.242e-06 0.0681385)
(2.18153e-06 -1.53473e-06 0.0681358)
(1.32162e-06 -8.0583e-06 0.083429)
(-2.35106e-07 3.82408e-06 0.0914614)
(4.27649e-06 -1.39832e-05 0.0813702)
(6.47401e-06 -1.98718e-06 0.0873201)
(-1.77451e-05 -1.7372e-05 0.0961283)
(6.44435e-06 -6.47953e-06 0.0813362)
(-5.83248e-06 -1.43961e-05 0.0915034)
(-8.41322e-06 8.40343e-06 0.096078)
(1.05362e-05 -5.90077e-06 0.0914577)
(4.06485e-06 -1.76205e-06 0.0873131)
(-7.35549e-06 -3.06616e-06 0.0813638)
(-1.0148e-05 -2.3139e-05 0.0961233)
(-5.52948e-08 -4.85568e-07 0.0813318)
(-5.62796e-06 -1.35599e-05 0.0914979)
(1.33489e-05 -1.03295e-05 0.0960737)
(6.55562e-06 4.49847e-06 0.0765944)
(-1.19833e-05 -4.9549e-07 0.0911167)
(1.00066e-05 -5.76851e-06 0.0783979)
(-1.93154e-06 -1.18484e-05 0.0896579)
(6.71405e-06 9.91302e-07 0.0783685)
(-9.4855e-06 -1.17478e-07 0.0896179)
(9.28943e-06 -2.41231e-06 0.0766295)
(6.36215e-06 4.54198e-06 0.0681245)
(5.41898e-06 -8.27855e-06 0.0855639)
(3.45911e-06 8.14927e-06 0.0819275)
(-1.95102e-07 1.50682e-06 0.0855189)
(8.25399e-06 -7.55824e-07 0.068172)
(6.64552e-06 1.18739e-06 0.0681098)
(4.18321e-06 -5.32511e-08 0.0681127)
(6.94986e-06 -5.02388e-06 0.0833726)
(-9.96185e-06 -9.00266e-06 0.0914155)
(6.28214e-06 -2.17956e-06 0.0813075)
(-4.36744e-06 -3.15357e-06 0.0872545)
(-8.3796e-06 -2.92992e-05 0.0961093)
(7.18341e-08 2.63408e-06 0.0812671)
(-2.57713e-05 -1.15023e-05 0.0960708)
(6.25826e-07 -2.06646e-05 0.0914508)
(4.89983e-06 -3.95828e-06 0.0813042)
(1.40724e-05 -2.6953e-05 0.0961176)
(7.7701e-06 -1.50411e-05 0.0914552)
(-2.83006e-05 1.36315e-06 0.112558)
(3.8672e-06 8.29936e-06 0.11528)
(-2.01502e-06 -4.66133e-05 0.11288)
(1.47984e-05 -1.84632e-05 0.115403)
(5.2416e-05 -2.24424e-05 0.0994592)
(2.09349e-06 4.6703e-06 0.0973522)
(1.50848e-05 3.01902e-05 0.104089)
(-5.476e-05 -1.81956e-05 0.101371)
(-2.11721e-05 -4.86456e-05 0.101367)
(-1.86617e-05 -1.90766e-05 0.097413)
(1.62254e-05 8.29531e-06 0.101291)
(2.35216e-06 2.58781e-05 0.101287)
(-5.69741e-05 3.92303e-05 0.102752)
(-4.26272e-05 4.40365e-06 0.0983368)
(-2.82649e-05 -1.89565e-05 0.0974255)
(-6.01899e-05 -4.9416e-05 0.10354)
(-3.54219e-05 6.82902e-06 0.0973587)
(-6.46121e-05 3.4768e-05 0.103433)
(-5.31797e-05 -4.79373e-05 0.102883)
(-4.21136e-05 4.84009e-05 0.101175)
(-1.88845e-05 -1.617e-05 0.0954531)
(-6.43217e-06 8.63134e-06 0.0927711)
(-2.77542e-05 -4.0805e-05 0.0994198)
(-2.34598e-05 9.57963e-06 0.0953851)
(-2.51556e-05 4.56106e-05 0.0993506)
(-4.07419e-05 -4.24391e-05 0.101293)
(-6.21712e-05 1.77138e-05 0.102793)
(-4.38446e-05 -4.12205e-06 0.0983431)
(-3.12488e-05 -2.78412e-05 0.097428)
(-6.21003e-05 -6.26512e-05 0.10356)
(-3.97953e-05 -5.56828e-06 0.0973653)
(-6.59619e-05 2.06034e-05 0.103455)
(-5.74845e-05 -6.65537e-05 0.102918)
(-5.24766e-05 1.08696e-05 0.10123)
(-2.02365e-05 -2.87945e-05 0.0954457)
(-1.80403e-05 -7.53507e-06 0.0927513)
(-2.69944e-05 -7.00629e-05 0.0994464)
(-2.97167e-05 -7.69706e-06 0.0953842)
(-4.46484e-05 -7.56713e-05 0.101336)
(-3.86693e-05 1.14189e-05 0.0993896)
(-2.61388e-05 -1.91429e-05 0.0973659)
(-6.69092e-05 -9.97237e-06 0.104238)
(8.17677e-06 -4.40739e-05 0.101421)
(-2.93105e-06 -7.37395e-05 0.101438)
(-2.71788e-05 -2.73493e-06 0.101379)
(-6.75906e-05 -2.46132e-05 0.10136)
(-3.1389e-06 -3.63654e-05 0.0974098)
(1.23077e-05 -1.44873e-05 0.0927728)
(-3.97873e-05 -2.99226e-05 0.0994232)
(4.50389e-05 -2.32939e-05 0.0993525)
(3.38809e-07 -2.57477e-06 0.0833398)
(1.17396e-06 3.18011e-06 0.0680706)
(5.74346e-07 2.74116e-06 0.0680738)
(-9.49566e-06 -1.0222e-05 0.0914221)
(-1.40607e-06 -6.2154e-06 0.0872669)
(-9.39004e-06 -1.69258e-05 0.0960826)
(-2.67874e-06 -9.4465e-07 0.0812668)
(-2.0018e-06 -2.52904e-06 0.0712709)
(-2.72907e-06 -2.76677e-06 0.0819302)
(-1.03427e-06 -8.27099e-06 0.0927589)
(-3.22167e-05 -1.78296e-05 0.0994079)
(1.15698e-05 5.03501e-05 0.098483)
(4.707e-06 0.000200728 0.110718)
(1.59974e-05 -2.67154e-05 0.0909953)
(5.09881e-07 5.13195e-05 0.0984871)
(-2.45014e-05 0.000112496 0.108255)
(-1.41959e-05 0.000157459 0.110673)
(1.58461e-06 1.40263e-05 0.0926551)
(1.56651e-05 -1.47249e-05 0.0909878)
(2.49855e-06 -1.14989e-05 0.0816056)
(-2.26833e-05 4.49701e-05 0.108178)
(-8.48097e-05 3.18202e-05 0.092623)
(-3.67543e-05 -5.99585e-06 0.0815886)
(-7.75638e-05 2.936e-05 0.104686)
(1.14786e-05 5.14696e-06 0.0870046)
(-4.4178e-05 3.77729e-05 0.0869848)
(2.77775e-06 -7.58304e-06 0.0708815)
(-2.4117e-05 -9.73156e-07 0.0708286)
(5.29712e-06 -6.02795e-05 0.0763822)
(5.13803e-06 -4.64007e-05 0.0894566)
(5.39123e-06 -3.71833e-05 0.0780992)
(2.90329e-05 -4.56051e-05 0.0910188)
(-1.51698e-06 -5.37592e-05 0.0763381)
(1.44892e-05 -6.71076e-05 0.0894897)
(1.22285e-05 -4.25738e-05 0.078134)
(1.35074e-05 -2.40975e-05 0.0763367)
(6.62014e-06 -2.92169e-05 0.0780886)
(1.57253e-05 -7.01313e-06 0.0894391)
(3.16551e-05 -3.09931e-05 0.0910112)
(5.92372e-06 -1.76795e-05 0.0762971)
(1.38636e-05 -3.54451e-05 0.0781227)
(3.37008e-05 -1.92795e-05 0.0894701)
(1.0086e-05 -1.60025e-05 0.0678928)
(1.4635e-05 -6.43469e-06 0.0852545)
(2.06279e-05 -1.29021e-05 0.0816506)
(3.17013e-06 -1.00968e-05 0.0678319)
(3.04437e-05 -1.28658e-05 0.0853024)
(-2.63672e-05 7.79967e-06 0.081633)
(1.54776e-05 3.17978e-05 0.0831132)
(2.35867e-06 -9.57137e-06 0.0677123)
(-1.34937e-05 1.17597e-06 0.0677007)
(5.56652e-06 3.27173e-05 0.0830876)
(8.9755e-06 -7.59221e-06 0.067751)
(-3.90162e-06 2.8853e-06 0.067737)
(6.56176e-06 3.17417e-05 0.0913244)
(-9.64225e-06 -8.10293e-06 0.0809068)
(-2.29084e-05 3.39409e-05 0.0961333)
(2.35624e-05 1.07467e-05 0.0870433)
(-1.83764e-05 2.65831e-05 0.0912989)
(9.57095e-06 4.37293e-05 0.09617)
(3.52758e-06 -4.94925e-06 0.0809441)
(-2.92498e-05 6.07218e-05 0.0913135)
(-2.69657e-05 -6.78972e-07 0.080903)
(-7.41259e-05 4.89857e-05 0.0961055)
(-2.73407e-05 4.21253e-05 0.0870185)
(-4.32949e-05 4.46862e-05 0.0912891)
(-6.18503e-05 7.63254e-05 0.0961439)
(-1.4575e-05 4.93985e-06 0.080936)
(1.15561e-05 -5.63683e-06 0.070931)
(-1.16473e-05 3.83565e-06 0.0708682)
(8.66307e-05 8.57436e-05 0.113108)
(5.51275e-05 0.000105667 0.103275)
(1.09393e-05 3.58851e-05 0.097439)
(-3.75893e-05 0.000123963 0.10386)
(3.66258e-05 2.63867e-05 0.0985222)
(-3.60954e-05 0.000119887 0.103151)
(3.05831e-05 7.15765e-06 0.0974804)
(5.70196e-05 0.000114771 0.103974)
(4.13205e-05 8.96434e-05 0.10331)
(-5.70206e-05 0.000112001 0.103864)
(-3.06998e-06 4.21135e-05 0.0974562)
(3.0038e-05 3.18724e-05 0.0985308)
(-6.17639e-05 9.56137e-05 0.103158)
(4.16991e-05 0.000104207 0.103989)
(3.0097e-05 2.73268e-05 0.0975108)
(4.34987e-05 6.9365e-05 0.101665)
(-1.44921e-06 2.83436e-05 0.0953889)
(-6.34607e-05 5.38342e-05 0.0996033)
(3.11323e-05 1.5121e-05 0.0927019)
(-6.51973e-05 7.27589e-05 0.101532)
(3.2687e-05 1.9929e-05 0.0954469)
(4.06199e-05 5.55225e-05 0.0996736)
(-7.76779e-05 -4.34748e-06 0.0995449)
(-7.22555e-05 5.60025e-05 0.0926757)
(-7.99438e-05 9.88958e-05 0.0996203)
(-2.24728e-05 7.7086e-05 0.0975237)
(-2.5716e-06 0.000126771 0.10487)
(-4.41886e-05 2.58381e-05 0.101696)
(-8.86509e-05 5.59847e-05 0.101667)
(-4.50518e-05 5.25832e-05 0.0974773)
(-2.23264e-05 0.000116394 0.101785)
(-1.33492e-05 8.70099e-05 0.101752)
(-5.62043e-06 -5.54372e-05 0.067909)
(-9.91168e-06 -6.2242e-05 0.0852775)
(-1.08768e-05 -5.21707e-05 0.0678388)
(-3.10508e-06 -7.43237e-05 0.0853252)
(7.26282e-05 7.07373e-05 0.101586)
(1.28803e-05 -5.50341e-07 0.0953626)
(-1.7256e-05 9.44153e-05 0.101502)
(2.65537e-05 -3.07358e-05 0.0953997)
(1.0457e-05 -3.06543e-06 0.0855745)
(3.08121e-06 -1.42289e-06 0.0681941)
(2.13313e-05 -7.09119e-06 0.09545)
(5.7482e-05 -1.51669e-05 0.101357)
(-1.24323e-05 -4.0387e-05 0.0911304)
(-2.6106e-05 -5.82238e-05 0.0983861)
(-9.48144e-05 1.89915e-05 0.104411)
(-5.27624e-05 3.13282e-05 0.1102)
(-2.45558e-05 1.953e-05 0.107654)
(1.27547e-05 1.63962e-05 0.0911419)
(1.62287e-05 1.53647e-05 0.091142)
(3.1061e-05 5.77639e-05 0.104344)
(3.37787e-06 6.78808e-06 0.0713108)
(-1.09053e-05 1.66231e-05 0.112598)
(7.70687e-06 -4.60652e-05 0.107702)
(-5.29533e-05 3.07356e-05 0.110215)
(-4.23083e-05 -1.86384e-05 0.104209)
(-1.20517e-06 2.04926e-07 0.109997)
(4.63542e-06 -2.37092e-05 0.110103)
(1.13411e-05 -9.01328e-05 0.104386)
(1.5094e-05 -4.49514e-05 0.10771)
(1.6173e-05 -1.02595e-05 0.110211)
(8.08713e-06 8.17581e-06 0.0819622)
(7.23784e-06 -5.28207e-06 0.0873008)
(-3.45514e-05 7.6018e-06 0.107411)
(-5.54722e-05 -3.34511e-05 0.110074)
(-6.56381e-05 -1.42562e-05 0.104253)
(1.59067e-05 -1.91912e-05 0.0927552)
(-3.10376e-08 -3.5127e-05 0.091105)
(-3.81822e-06 -5.57876e-05 0.0983426)
(1.08244e-05 -5.4774e-06 0.110193)
(-4.21637e-06 4.87405e-06 0.0819344)
(-1.89493e-05 -5.8426e-05 0.104289)
(-2.12641e-05 1.61775e-05 0.10763)
(1.42218e-05 4.07054e-06 0.0911142)
(1.79803e-05 2.64318e-06 0.0911155)
(-1.74815e-06 1.46372e-06 0.0712855)
(0.00011872 7.11742e-05 0.115568)
(0.000122581 3.47244e-05 0.115493)
(3.24757e-05 4.19932e-06 0.115537)
(-1.57674e-05 6.4939e-05 0.115455)
(-5.36544e-06 -1.0285e-05 0.0819876)
(-7.60747e-06 -3.86368e-05 0.0911309)
(-7.01969e-07 1.79911e-05 0.107398)
(-1.96778e-06 -2.74759e-05 0.0927929)
(-1.60854e-05 -5.49239e-05 0.0983733)
(-4.44908e-06 6.81978e-06 0.107391)
(-1.56138e-05 3.69882e-06 0.109955)
(-6.34549e-06 2.74275e-05 0.109983)
(-8.76593e-06 -1.50902e-05 0.0819247)
(-5.56759e-05 -1.86462e-05 0.107656)
(-3.57152e-05 2.04255e-06 0.110074)
(-3.49927e-05 -3.8631e-05 0.0927926)
(-4.73279e-05 2.79991e-07 0.107636)
(-2.49989e-05 3.15691e-05 0.11008)
(-3.25459e-06 -8.41038e-06 0.0712351)
(-2.13033e-05 -1.72639e-05 0.0872627)
(-1.11602e-05 5.26082e-06 0.0872697)
(-5.36457e-06 1.52626e-06 0.0712516)
(-6.04809e-05 2.18607e-05 0.107714)
(-1.77141e-06 2.76596e-05 0.0984273)
(-1.07374e-05 1.83209e-05 0.0928082)
(-5.21555e-05 2.72333e-05 0.107684)
(-4.46594e-05 3.00551e-05 0.110179)
(-4.65225e-05 2.58695e-05 0.110191)
(1.87221e-06 2.75063e-05 0.0984182)
(1.82805e-05 1.42642e-05 0.0927877)
(-2.26432e-05 2.25349e-05 0.107678)
(-4.18971e-05 2.5155e-05 0.110197)
(2.03625e-06 -3.46226e-07 0.0927247)
(-5.79394e-07 9.47032e-06 0.0819319)
(1.53587e-05 4.27694e-06 0.0819626)
(1.07487e-05 -8.34701e-06 0.0818987)
(6.24909e-06 1.38511e-05 0.0872977)
(1.7376e-05 2.08487e-06 0.0872894)
(-4.30106e-05 -1.76379e-05 0.104244)
(-1.34531e-06 9.79954e-06 0.0872328)
(5.61781e-06 -1.02245e-06 0.0872277)
(-3.90885e-06 6.62994e-06 0.0712391)
(1.43351e-05 -4.90291e-07 0.0713002)
(8.93317e-06 -5.94291e-06 0.0712285)
(-5.71335e-05 -7.05111e-06 0.0911093)
(8.95707e-07 2.37999e-06 0.0819518)
(-2.64265e-05 3.37609e-06 0.0911042)
(-3.17879e-06 3.54351e-06 0.0712329)
(5.98904e-06 -5.83243e-06 0.0819544)
(4.22447e-06 -3.38363e-05 0.0911059)
(5.29886e-05 -5.05884e-06 0.115432)
(1.66203e-05 -4.92143e-06 0.115546)
(-3.83952e-05 6.01291e-05 0.115474)
(1.99759e-05 -2.17504e-05 0.110215)
(2.66547e-05 4.3636e-06 0.0984107)
(-4.56528e-07 -1.02597e-05 0.092759)
(5.80932e-06 4.78258e-06 0.0983643)
(1.37674e-05 -1.81528e-05 0.1102)
(3.94131e-06 -8.00028e-06 0.0711961)
(-6.11188e-05 1.68133e-05 0.107735)
(2.19975e-06 5.0043e-06 0.0983781)
(-3.10361e-06 -6.38064e-07 0.0927621)
(-3.66691e-07 4.9217e-06 0.0872743)
(1.09603e-05 -5.79158e-06 0.0872663)
(3.88981e-05 5.08467e-05 0.104313)
(8.96746e-06 6.46239e-06 0.0873355)
(1.83422e-05 1.09876e-06 0.087328)
(-1.76981e-06 -5.42963e-06 0.0713538)
(-7.41556e-06 4.08515e-06 0.0713005)
(-1.71083e-06 -7.85527e-06 0.0713496)
(2.76902e-05 4.93455e-05 0.10403)
(1.69447e-06 -1.40955e-05 0.0873277)
(-5.12768e-05 -2.85612e-05 0.104165)
(-1.13522e-05 -1.18329e-06 0.0873324)
(-1.40559e-05 1.34217e-05 0.087275)
(-5.82572e-05 -1.3763e-05 0.0911079)
(-7.03865e-05 -1.27251e-05 0.0983444)
(-7.13573e-05 -2.48013e-05 0.0983589)
(-5.23374e-05 5.53387e-06 0.0910833)
(-5.00719e-06 -8.76282e-06 0.0819845)
(-1.53622e-05 8.97451e-06 0.0819348)
(-3.35839e-05 -8.69463e-06 0.0911294)
(-5.34934e-05 -8.13837e-07 0.0910825)
(-8.74895e-06 -8.38622e-06 0.0819449)
(-2.48825e-05 -8.67334e-07 0.0818905)
(-3.45214e-05 -1.33626e-05 0.0911301)
(-1.13377e-05 1.34363e-05 0.107404)
(-2.47965e-05 1.1513e-05 0.107397)
(-3.04599e-05 -5.63846e-06 0.109966)
(-7.07206e-05 9.71649e-06 0.0982989)
(-2.89663e-05 -1.86461e-06 0.0927923)
(-3.55657e-05 2.49679e-05 0.092721)
(-6.22807e-05 -1.56776e-05 0.0983684)
(-3.00441e-05 -3.07887e-05 0.110085)
(-3.75331e-05 -5.16471e-05 0.107651)
(-1.69475e-05 -4.63009e-05 0.107655)
(-7.20237e-05 -2.6467e-06 0.0983122)
(-3.18863e-05 -3.51185e-05 0.0927899)
(-5.30692e-05 -1.99708e-05 0.0927357)
(-6.39734e-05 -2.74372e-05 0.0983792)
(-3.51484e-06 -3.37519e-06 0.0712677)
(-1.95228e-05 -2.6062e-06 0.071222)
(-4.71875e-05 -7.43584e-06 0.104265)
(-1.11419e-05 -1.89994e-05 0.0872795)
(3.751e-06 -1.6906e-05 0.087285)
(-3.15358e-05 -1.94401e-05 0.0872416)
(-5.94184e-06 -1.17622e-05 0.0872434)
(2.13523e-06 -9.36592e-06 0.0712836)
(-5.61229e-06 -8.52076e-06 0.0712327)
(2.57815e-05 -2.21182e-05 0.110218)
(2.36206e-05 -3.72417e-05 0.107705)
(3.00077e-05 -1.76101e-05 0.11021)
(6.88078e-06 -2.329e-06 0.0983653)
(1.92972e-05 -1.7567e-05 0.0928051)
(-1.03237e-06 -1.34872e-05 0.0927586)
(2.97516e-05 3.51789e-06 0.0984163)
(4.90118e-06 5.64409e-06 0.0910992)
(1.0008e-05 -5.59615e-06 0.081953)
(-3.55883e-06 -5.40725e-06 0.0819075)
(1.77927e-05 7.41011e-06 0.0911394)
(2.40878e-06 1.19589e-05 0.107663)
(1.54754e-05 1.90785e-05 0.092786)
(2.13704e-05 -1.20418e-05 0.110219)
(7.76523e-06 1.0232e-05 0.107689)
(-1.84751e-06 1.34279e-05 0.092725)
(6.11781e-06 2.81099e-06 0.0983584)
(2.76691e-05 9.20265e-06 0.0984084)
(-5.5901e-06 9.49486e-06 0.0818972)
(4.3435e-06 9.62132e-06 0.0910966)
(1.67117e-05 1.09359e-05 0.0911379)
(5.20792e-06 -7.49793e-07 0.0713218)
(3.06346e-06 -2.15921e-06 0.0713171)
(1.79692e-05 3.84776e-05 0.104058)
(-6.4134e-07 3.28675e-06 0.087306)
(-5.57218e-06 5.79269e-06 0.0819133)
(-2.71662e-05 -4.41097e-07 0.0911053)
(-5.25495e-05 -9.49599e-06 0.109956)
(-1.75833e-05 1.48135e-05 0.0927544)
(-5.65087e-05 6.41329e-06 0.0983238)
(-4.99622e-05 -5.14481e-05 0.107642)
(-3.16927e-05 -1.30707e-05 0.0927455)
(-5.81164e-05 -4.40061e-06 0.0983329)
(-1.3563e-05 -9.02384e-06 0.0872468)
(-2.59367e-06 -8.59034e-06 0.0872572)
(-2.98565e-06 -4.53599e-06 0.0712554)
(5.77565e-06 -5.28505e-05 0.0983304)
(-8.21108e-06 -5.73161e-06 0.107407)
(-2.12154e-05 -1.71891e-05 0.109952)
(5.78349e-06 -1.21017e-05 0.0818907)
(-5.85615e-05 -3.15553e-05 0.107676)
(-4.12537e-05 -2.20317e-05 0.110079)
(-1.40127e-05 -3.97027e-05 0.0927489)
(1.60936e-05 2.78839e-06 0.0911527)
(-2.63659e-06 -3.38673e-06 0.0819203)
(4.63646e-06 6.91134e-06 0.091113)
(-1.0453e-06 1.23448e-05 0.107635)
(-4.60882e-06 1.14163e-05 0.092746)
(2.49465e-05 8.72954e-06 0.0984065)
(-1.26577e-06 1.1105e-05 0.107608)
(3.61033e-06 1.02618e-05 0.0983574)
(7.18856e-06 -2.00759e-08 0.110168)
(1.57813e-05 1.10726e-05 0.0928103)
(1.54831e-05 5.08494e-06 0.0911532)
(3.58021e-06 1.02066e-05 0.0911122)
(1.00501e-05 1.5864e-06 0.0819959)
(-1.20387e-05 -1.98114e-05 0.0872294)
(-3.3379e-06 -7.23934e-07 0.087238)
(-1.05031e-06 -3.81181e-06 0.0712163)
(-4.30816e-05 2.53696e-05 0.110183)
(6.31988e-06 4.12156e-06 0.0983691)
(1.46237e-05 -6.71087e-06 0.0927482)
(-1.37121e-05 1.27314e-05 0.107608)
(2.51967e-05 1.12176e-05 0.0928136)
(1.34999e-06 -3.47885e-06 0.0818953)
(1.3642e-05 -8.17363e-06 0.0819345)
(1.27226e-05 6.67607e-06 0.0819952)
(5.59122e-06 8.36468e-07 0.0713493)
(1.03906e-05 -5.96031e-06 0.0712758)
(1.13543e-05 1.27332e-06 0.0713424)
(3.30086e-06 -1.83748e-05 0.0765581)
(-4.82142e-06 -1.06734e-05 0.0783693)
(-1.7112e-05 -4.06072e-05 0.0896326)
(8.01591e-07 -4.51104e-05 0.0910921)
(1.84267e-06 -1.43171e-05 0.0783376)
(-4.58474e-06 -4.6225e-05 0.0895904)
(-2.97381e-06 -1.50332e-05 0.0765955)
(7.47222e-06 -6.1284e-07 0.0765588)
(9.09911e-06 1.7207e-05 0.0896459)
(9.66856e-06 6.11963e-06 0.0783663)
(1.08544e-05 2.95937e-06 0.0911071)
(8.3818e-06 3.63263e-06 0.0896052)
(9.53498e-06 -4.61261e-07 0.078336)
(8.17007e-06 5.94013e-06 0.0765967)
(1.60951e-05 -2.39218e-06 0.0765716)
(2.04228e-05 1.16535e-05 0.089648)
(1.10812e-05 6.15615e-06 0.078368)
(1.39783e-05 2.29684e-06 0.0911079)
(1.77173e-05 -1.1091e-06 0.0896084)
(1.16148e-05 -6.33743e-07 0.0783392)
(1.47936e-05 4.89954e-06 0.0766058)
(-2.96864e-06 4.47432e-06 0.0712635)
(-3.05747e-06 9.27753e-06 0.0681317)
(-5.06501e-06 7.81112e-06 0.0819163)
(8.76069e-06 1.20941e-05 0.0855595)
(-2.30644e-06 1.23641e-05 0.0855114)
(2.90299e-06 6.83892e-06 0.0681833)
(-3.90749e-06 -1.25979e-05 0.0914812)
(1.65706e-05 -9.21227e-06 0.0960515)
(1.38493e-06 -2.75918e-06 0.081327)
(-1.5341e-06 -1.07308e-05 0.0873409)
(1.19617e-05 -4.7155e-06 0.0914436)
(-5.8348e-06 -5.35651e-06 0.0813608)
(-6.63662e-06 -2.23063e-05 0.096104)
(-2.349e-06 -5.9015e-06 0.0766063)
(1.55965e-06 -6.51138e-06 0.0783468)
(-3.93324e-06 -3.46706e-05 0.089602)
(-1.32521e-05 -2.95918e-05 0.0911429)
(4.05284e-06 -9.12344e-06 0.0765686)
(-5.09299e-06 -2.96491e-06 0.0783789)
(-1.64765e-05 -2.83841e-05 0.0896442)
(3.50128e-06 4.17456e-06 0.068202)
(-2.17459e-06 1.02221e-05 0.085529)
(9.03736e-06 4.90741e-06 0.0819795)
(-2.54623e-06 7.03346e-06 0.0681515)
(9.06943e-06 9.24467e-06 0.0855767)
(6.58907e-06 5.90145e-06 0.0766055)
(9.62405e-06 4.93555e-06 0.0896116)
(8.99849e-06 -4.30027e-07 0.078345)
(1.52905e-05 1.73592e-05 0.0911484)
(6.15528e-06 -7.69781e-07 0.0765671)
(9.86205e-06 1.82753e-05 0.0896518)
(8.54502e-06 6.28412e-06 0.0783757)
(1.31615e-05 5.84784e-06 0.0766164)
(2.2194e-05 -1.31515e-06 0.0896188)
(1.06758e-05 -3.91109e-07 0.0783486)
(1.90957e-05 1.56694e-05 0.091149)
(1.55482e-05 -1.5382e-06 0.0765821)
(2.34484e-05 1.165e-05 0.0896579)
(9.4176e-06 6.49821e-06 0.0783779)
(4.5949e-06 3.65442e-06 0.0713314)
(2.61066e-06 -1.06155e-05 0.0681585)
(8.64398e-06 -1.12175e-05 0.0819465)
(-2.0443e-06 -1.82627e-05 0.0855804)
(1.03581e-05 -2.10731e-05 0.0855338)
(-3.77206e-06 -6.23428e-06 0.0682055)
(9.67807e-07 -1.47244e-05 0.0765715)
(-3.60711e-06 -3.29601e-05 0.0896463)
(-5.83681e-06 -1.07319e-05 0.0783674)
(6.01921e-06 -4.29943e-05 0.091094)
(1.05603e-05 -3.70721e-05 0.0896054)
(1.26985e-06 -1.48166e-05 0.0783384)
(-6.6953e-06 -9.52515e-06 0.076604)
(1.97558e-06 -1.31612e-05 0.0680917)
(-1.50392e-05 -2.29027e-05 0.0855299)
(2.12665e-06 -2.13581e-05 0.0818832)
(-4.68384e-06 -2.85429e-05 0.0854874)
(-2.81073e-06 -1.06041e-05 0.0681334)
(5.78288e-07 -1.62838e-05 0.0711996)
(-2.17385e-05 -2.60404e-05 0.091416)
(-4.5021e-05 -2.68553e-05 0.0961287)
(-8.41136e-06 -9.39869e-06 0.0812538)
(-1.61651e-05 -2.90768e-05 0.087229)
(-2.50673e-05 -4.16861e-05 0.0960864)
(-4.42304e-06 -1.5807e-05 0.0812239)
(-3.4722e-05 -1.61223e-05 0.0914481)
(-1.48149e-05 -7.13413e-06 0.0833119)
(-2.39268e-06 -3.18009e-06 0.0680567)
(-3.09031e-06 -5.28601e-07 0.0680609)
(-8.18217e-07 -8.6418e-06 0.0680272)
(-8.84195e-07 -4.38043e-06 0.0680311)
(-1.81213e-05 8.78642e-07 0.0833396)
(-1.57004e-05 -1.8384e-05 0.091424)
(-3.40694e-05 6.77537e-06 0.0961442)
(-3.61643e-06 -1.67643e-06 0.0812537)
(-4.51024e-06 -3.0678e-06 0.0872348)
(-9.18866e-07 -8.6144e-06 0.0812245)
(-2.25038e-05 -1.72104e-05 0.0961022)
(-2.10947e-05 -9.59695e-07 0.0914559)
(-2.10997e-06 -4.59653e-06 0.0712152)
(2.54034e-06 -2.85932e-06 0.0681009)
(4.04448e-06 1.25163e-05 0.0855418)
(9.65262e-07 -3.05722e-06 0.081894)
(4.68362e-06 1.04621e-06 0.0854975)
(3.46215e-06 2.69152e-06 0.068148)
(1.45428e-05 -4.62865e-06 0.0681213)
(1.875e-05 6.27163e-06 0.0855568)
(1.31658e-05 -8.61422e-06 0.0819171)
(1.6952e-05 -4.48653e-06 0.0855088)
(1.28835e-05 1.2759e-06 0.0681726)
(1.28253e-05 9.13069e-07 0.0681534)
(1.39215e-05 4.24878e-06 0.0819447)
(1.28781e-05 -3.37475e-06 0.0854919)
(1.35234e-05 -4.82299e-06 0.0681023)
(1.57866e-05 7.06957e-06 0.0855397)
(-3.99747e-06 5.99775e-06 0.0914047)
(1.66972e-05 2.15999e-05 0.096096)
(6.20977e-06 4.21918e-06 0.0813094)
(-1.23014e-06 8.10838e-06 0.0872536)
(-1.01903e-06 1.55561e-06 0.0812651)
(1.21628e-05 1.15906e-05 0.0914458)
(-5.60968e-06 1.03432e-05 0.0960545)
(2.48174e-06 -1.49648e-06 0.0833358)
(3.60383e-06 9.07896e-07 0.0681235)
(6.90047e-06 -8.54397e-07 0.0681153)
(4.0218e-07 -2.10686e-06 0.0680793)
(2.81379e-06 -3.54329e-06 0.0680736)
(8.15338e-06 2.15236e-06 0.083375)
(2.693e-06 -2.06222e-06 0.0913989)
(1.27329e-05 1.81531e-05 0.0960921)
(9.38205e-06 7.80582e-07 0.0813029)
(8.94885e-06 -3.91156e-06 0.0872467)
(-2.37884e-06 -1.53943e-06 0.0960507)
(5.11378e-06 -5.46422e-06 0.0812609)
(1.13115e-05 1.13877e-05 0.091439)
(1.08952e-05 1.44836e-05 0.0914306)
(5.73713e-06 1.64136e-05 0.0872769)
(-5.50647e-06 1.10767e-05 0.0960512)
(-2.22789e-06 3.17185e-06 0.081241)
(4.73612e-06 6.21223e-06 0.081286)
(1.64174e-05 2.36039e-05 0.096091)
(-4.77453e-06 8.32523e-06 0.0913907)
(7.06853e-06 5.17597e-06 0.0833553)
(-3.0166e-07 -1.03102e-06 0.0680588)
(1.51467e-06 -2.83289e-06 0.0680538)
(2.84563e-06 2.0506e-06 0.0681038)
(5.86302e-06 -3.45727e-07 0.0680966)
(1.59054e-06 1.67108e-06 0.0833163)
(8.42289e-06 1.54034e-05 0.0914242)
(1.46804e-05 4.53477e-06 0.08727)
(-6.96848e-06 3.13551e-06 0.0960461)
(3.48357e-06 -4.43156e-06 0.0812385)
(7.76147e-06 2.29828e-05 0.0960859)
(8.18049e-06 1.45475e-06 0.0812813)
(-4.14153e-08 2.00144e-06 0.0913851)
(2.23187e-06 9.45236e-06 0.0712877)
(1.04141e-05 -6.28251e-06 0.0712528)
(1.35906e-05 -4.65269e-07 0.0712767)
(-2.86863e-05 3.22111e-06 0.0765635)
(-2.24959e-05 -4.4462e-06 0.0783592)
(-5.26695e-05 -4.60007e-07 0.0896252)
(-6.0774e-05 5.61033e-06 0.0910737)
(-2.6727e-05 2.52555e-06 0.0783306)
(-5.68734e-05 1.30568e-05 0.0895844)
(-2.28604e-05 -4.50024e-06 0.0765964)
(5.64864e-06 -6.33442e-06 0.0682197)
(-7.49515e-06 5.13321e-06 0.085548)
(3.03452e-06 -1.18066e-05 0.0819922)
(5.00107e-07 -5.59386e-08 0.0681736)
(-3.17478e-06 -7.46961e-06 0.0855936)
(4.69062e-06 -8.7263e-06 0.0766169)
(-1.90366e-05 -9.92598e-06 0.09114)
(-1.44196e-06 4.53729e-07 0.0783548)
(-2.11876e-05 5.86741e-06 0.0896161)
(-8.75506e-07 -1.3117e-06 0.0765833)
(2.84696e-06 -6.32838e-06 0.0783841)
(-1.4136e-05 -8.65525e-06 0.0896562)
(4.33872e-06 -8.53613e-07 0.0712787)
(-5.04363e-06 -3.42533e-07 0.068215)
(7.43425e-06 -1.40779e-05 0.0855473)
(-8.09076e-06 -4.81739e-06 0.0819947)
(1.33451e-06 -4.70908e-06 0.0681697)
(-5.19516e-06 -1.10368e-05 0.085593)
(-8.00228e-06 -1.77917e-06 0.0766111)
(7.76932e-06 -2.83016e-05 0.0896174)
(3.93897e-07 -7.14398e-06 0.0783466)
(-9.58363e-06 -2.86839e-05 0.0911427)
(-5.00561e-07 -6.88822e-06 0.0765783)
(-6.56057e-06 -2.36313e-05 0.0896581)
(-6.57893e-06 -3.11379e-06 0.0783761)
(-2.98941e-07 -2.79669e-07 0.0712343)
(1.43852e-05 8.26612e-06 0.0914616)
(-4.87559e-06 7.25008e-06 0.0960612)
(6.90795e-07 -6.10672e-07 0.0812876)
(7.49059e-06 1.02499e-05 0.0873175)
(-2.17987e-06 2.74131e-06 0.0914202)
(1.80246e-05 1.77244e-05 0.0961039)
(8.01492e-06 2.10812e-06 0.081331)
(9.20641e-06 -2.25124e-07 0.0833933)
(1.1677e-06 -3.20334e-06 0.0680976)
(3.60995e-06 -3.75122e-06 0.0680915)
(3.58474e-06 -4.26445e-06 0.0833547)
(4.26634e-06 -1.17861e-08 0.0681411)
(7.37283e-06 -8.01352e-07 0.0681322)
(1.41788e-05 8.04785e-06 0.0914545)
(2.7909e-06 -6.01654e-06 0.0960585)
(5.95519e-06 -5.66184e-06 0.0812818)
(1.86562e-05 9.54484e-07 0.0873089)
(5.60779e-06 -5.77878e-06 0.0914143)
(1.78109e-05 1.41277e-05 0.096101)
(9.81108e-06 1.09321e-06 0.0813228)
(4.43039e-06 -6.14872e-06 0.0833718)
(4.56485e-06 -3.82371e-07 0.0681562)
(7.07686e-06 -2.36645e-07 0.0681471)
(1.69937e-06 -3.85582e-06 0.0681136)
(3.71035e-06 -3.44603e-06 0.0681074)
(9.75524e-06 -1.51181e-06 0.0834095)
(2.99209e-07 -4.24516e-07 0.0914359)
(1.05746e-06 1.11789e-06 0.0872933)
(9.5963e-06 4.94887e-07 0.0813505)
(2.04436e-05 1.32872e-05 0.0961133)
(-2.93826e-06 2.98332e-06 0.0960701)
(2.42561e-06 -2.54643e-06 0.081308)
(1.68667e-05 5.42648e-06 0.0914771)
(8.18477e-06 -8.59943e-06 0.0914298)
(1.14522e-05 -6.23512e-06 0.0872858)
(9.3527e-06 2.19685e-06 0.0813407)
(2.20111e-05 1.16082e-05 0.0961116)
(7.48771e-06 -9.2652e-06 0.0960685)
(5.92974e-06 -4.95167e-06 0.0813007)
(1.63524e-05 5.82234e-06 0.0914698)
(-1.20565e-06 1.5404e-06 0.071313)
(-8.05209e-06 -2.76574e-06 0.0713433)
(4.58506e-06 -6.06273e-06 0.0713083)
(1.31138e-05 -3.09227e-06 0.0914234)
(1.02582e-05 -8.48907e-06 0.0872867)
(-3.52007e-06 -2.08388e-05 0.0960797)
(-4.38528e-06 -7.51338e-06 0.0813537)
(1.95482e-05 -7.60767e-06 0.0960285)
(3.03627e-06 -4.74239e-06 0.0813181)
(-2.64992e-06 -1.11522e-05 0.0914629)
(-5.20658e-06 1.49892e-05 0.0914183)
(-2.82745e-05 -1.59826e-06 0.0960772)
(-7.6797e-06 8.55235e-06 0.0872915)
(-3.31804e-06 -8.74405e-06 0.0813534)
(-1.57487e-06 -4.53188e-07 0.081317)
(-1.73437e-05 2.33982e-05 0.0960258)
(-1.13726e-05 -2.80118e-06 0.0914581)
(-1.32898e-05 2.01995e-06 0.0914383)
(-1.88986e-05 2.87043e-05 0.0960034)
(-5.34069e-06 3.40315e-06 0.0813036)
(-1.81637e-05 3.94937e-06 0.0873169)
(-6.66661e-06 1.9061e-05 0.0913977)
(-7.22301e-06 -5.11414e-06 0.0813415)
(-3.08971e-05 4.71749e-06 0.0960538)
(7.43145e-06 4.24075e-06 0.083373)
(-1.24111e-07 -6.31621e-06 0.0681593)
(-1.45418e-06 -3.70782e-06 0.0681611)
(1.23683e-06 -2.47335e-07 0.0681269)
(2.81749e-06 -2.8774e-06 0.0681248)
(2.24605e-06 -2.3615e-06 0.0834017)
(-3.04679e-05 1.65675e-06 0.0765501)
(-2.31722e-05 -4.60284e-06 0.0783598)
(-5.69594e-05 -2.0408e-05 0.0896139)
(-6.17627e-05 -1.15796e-06 0.0910718)
(-2.68919e-05 2.02576e-06 0.0783305)
(-6.10439e-05 -8.34159e-06 0.0895748)
(-2.7371e-05 -4.52335e-06 0.0765841)
(-1.34155e-05 -6.24944e-06 0.0766018)
(-1.8566e-05 1.82874e-06 0.0783376)
(-4.72677e-05 1.13074e-05 0.089595)
(-4.67206e-05 -7.52002e-06 0.0911192)
(-1.94272e-05 1.40239e-06 0.0765688)
(-1.40381e-05 -5.20811e-06 0.0783665)
(-4.15024e-05 -2.63126e-06 0.0896356)
(-6.67575e-06 1.40121e-06 0.0681622)
(-7.38061e-06 5.6005e-06 0.0819437)
(-1.31676e-05 -4.16632e-06 0.0855824)
(-1.62875e-06 -5.11302e-06 0.0682101)
(-1.76421e-05 8.55073e-06 0.085536)
(-8.89767e-06 -3.35928e-06 0.0681984)
(-2.7394e-05 1.1674e-05 0.0855224)
(-1.31285e-05 -5.43935e-06 0.0819761)
(-1.40459e-05 3.06902e-06 0.0681489)
(-2.3224e-05 -7.65537e-07 0.0855698)
(-1.0012e-05 -1.48252e-07 0.0765753)
(-4.04115e-05 4.693e-06 0.0910936)
(-5.4246e-06 -5.93252e-06 0.0783748)
(-2.82968e-05 -5.42862e-06 0.0896459)
(-4.1284e-06 -7.65121e-06 0.0766085)
(-9.96081e-06 1.0735e-06 0.0783457)
(-3.49434e-05 8.79005e-06 0.0896056)
(-1.79358e-05 -3.46471e-06 0.0765945)
(-1.86829e-05 2.01122e-06 0.078339)
(-5.1944e-05 -6.55896e-06 0.0895844)
(-4.78724e-05 -1.35102e-05 0.0911188)
(-2.14714e-05 2.91363e-06 0.0765604)
(-1.46202e-05 -4.71402e-06 0.0783682)
(-4.59349e-05 -1.84613e-05 0.0896239)
(-8.70099e-06 2.24479e-06 0.0681079)
(-1.53018e-05 2.82653e-06 0.0819009)
(-1.61231e-05 -1.39415e-05 0.0855439)
(-2.2212e-05 -4.18821e-06 0.0855009)
(-6.23971e-06 -2.78688e-06 0.0681518)
(-1.39035e-05 -4.19344e-06 0.0681476)
(-3.26127e-05 -6.93603e-06 0.0854954)
(-1.85065e-05 -1.17415e-05 0.0819336)
(-1.63212e-05 8.01407e-07 0.0681056)
(-2.70723e-05 -1.67717e-05 0.0855373)
(-1.17779e-05 3.7143e-06 0.076571)
(-4.14516e-05 -6.08026e-07 0.0910938)
(-5.85953e-06 -4.99011e-06 0.0783773)
(-3.21435e-05 -1.64622e-05 0.0896349)
(-9.94911e-06 1.80561e-06 0.0783479)
(-3.93597e-05 -4.58523e-06 0.089595)
(-8.17999e-06 -2.86753e-06 0.0766053)
(-1.1264e-05 7.00474e-07 0.0712247)
(-1.17362e-05 -6.47904e-06 0.0712624)
(-5.07997e-06 -2.14896e-05 0.0833509)
(-1.10821e-05 -4.0762e-06 0.0680437)
(-5.65615e-06 -5.36484e-06 0.0680448)
(-5.21917e-06 -5.5603e-06 0.0680777)
(-1.52007e-06 -7.52012e-06 0.0680786)
(-1.26253e-05 -1.87986e-05 0.0833223)
(-2.35207e-05 -2.24782e-05 0.0914123)
(-2.56688e-05 -4.55832e-05 0.0961135)
(-2.30007e-05 -1.47033e-05 0.0872425)
(-4.96748e-06 -9.19116e-06 0.0812814)
(-4.10044e-05 -2.6582e-05 0.0960745)
(-1.17476e-05 -4.74882e-06 0.0812442)