/*--------------------------------*- C++ -*----------------------------------*\
| =========                 |                                                 |
| \\      /  F ield         | OpenFOAM: The Open Source CFD Toolbox           |
|  \\    /   O peration     | Version:  v2012                                 |
|   \\  /    A nd           | Website:  www.openfoam.com                      |
|    \\/     M anipulation  |                                                 |
\*---------------------------------------------------------------------------*/
FoamFile
{
    version     2.0;
    format      ascii;
    class       volScalarField;
    location    "0.005";
    object      p;
}
// * * * * * * * * * * * * * * * * * * * * * * * * * * * * * * * * * * * * * //

dimensions      [0 2 -2 0 0 0 0];


internalField   nonuniform List<scalar> 
247104
(
0.000301673
0.000300426
0.000300676
0.000301041
0.000301066
0.000301014
0.000300632
0.000300417
0.000300424
0.000300308
0.000300264
0.00030029
0.000300296
0.000300287
0.000300264
0.000300321
0.00030067
0.000300261
0.00029999
0.000299862
0.000299828
0.000299873
0.000300016
0.000300308
0.000300722
0.000301034
0.000300286
0.000299861
0.000299655
0.000299598
0.000299671
0.0002999
0.000300361
0.000301154
0.000301665
0.000301059
0.000300292
0.000299826
0.000299597
0.000299535
0.000299616
0.000299869
0.000300372
0.000301168
0.000301006
0.000300282
0.000299869
0.00029967
0.000299615
0.000299686
0.000299908
0.000300354
0.000301122
0.000300623
0.000300258
0.000300012
0.000299898
0.000299868
0.000299907
0.000300035
0.0003003
0.000300667
0.000300406
0.000300316
0.000300304
0.000300359
0.000300371
0.000300353
0.0003003
0.000300325
0.000300719
0.000301152
0.000301166
0.000301121
0.000300666
0.000290939
0.000291454
0.000293651
0.00029272
0.000292424
0.000292393
0.000292526
0.000293152
0.000293719
0.000293651
0.000293186
0.000292526
0.000292509
0.000292509
0.000292526
0.00029306
0.000293245
0.000292721
0.000292526
0.0002926
0.000292623
0.000292623
0.000292599
0.000292526
0.000292841
0.000292561
0.000290939
0.000292424
0.000292509
0.000292623
0.000292668
0.000292668
0.000292623
0.000292509
0.000292598
0.000291683
0.000291454
0.000292393
0.000292509
0.000292623
0.000292668
0.000292668
0.000292623
0.000292509
0.000292561
0.000292066
0.000292526
0.000292526
0.000292599
0.000292623
0.000292623
0.0002926
0.000292526
0.000292687
0.000291723
0.000293153
0.00029306
0.000292526
0.000292509
0.000292509
0.000292526
0.000292968
0.000293087
0.000292954
0.000293721
0.000293245
0.00029284
0.000292597
0.000292561
0.000292686
0.000293087
0.000293622
0.00029256
0.000291683
0.000292065
0.000291722
0.000292954
0.000290179
0.000290145
0.00029019
0.00028986
0.000289827
0.000289823
0.000289838
0.000290117
0.000290194
0.000290194
0.000289816
0.000289276
0.000289277
0.000289277
0.000289275
0.000289728
0.000289877
0.000289861
0.000289276
0.000289285
0.00028929
0.00028929
0.000289285
0.000289275
0.000289767
0.000290142
0.000290184
0.000289829
0.000289277
0.00028929
0.000289296
0.000289296
0.00028929
0.000289277
0.000289729
0.000290082
0.000290147
0.000289824
0.000289277
0.00028929
0.000289296
0.000289296
0.00028929
0.000289277
0.000289724
0.00028988
0.000289839
0.000289276
0.000289285
0.00028929
0.00028929
0.000289285
0.000289275
0.000289741
0.000290102
0.000290117
0.000289728
0.000289275
0.000289277
0.000289277
0.000289275
0.000289638
0.000289828
0.000290173
0.00029019
0.000289877
0.000289767
0.000289728
0.000289724
0.00028974
0.000289828
0.000290082
0.000290141
0.000290081
0.00028988
0.000290102
0.000290173
0.000287132
0.000287104
0.000287094
0.000286771
0.000286748
0.000286747
0.000286755
0.00028703
0.000287093
0.000287094
0.000286708
0.000286156
0.000286157
0.000286157
0.000286156
0.000286617
0.000286773
0.000286771
0.000286156
0.000286157
0.000286157
0.000286157
0.000286157
0.000286156
0.000286669
0.000287065
0.000287132
0.000286748
0.000286157
0.000286157
0.000286158
0.000286158
0.000286157
0.000286156
0.000286637
0.000287022
0.000287104
0.000286747
0.000286156
0.000286157
0.000286158
0.000286158
0.000286157
0.000286156
0.000286635
0.000286815
0.000286754
0.000286156
0.000286157
0.000286157
0.000286157
0.000286157
0.000286156
0.000286646
0.000287039
0.00028703
0.000286617
0.000286156
0.000286156
0.000286156
0.000286156
0.000286524
0.000286725
0.000287092
0.000287093
0.000286774
0.000286669
0.000286638
0.000286635
0.000286646
0.000286725
0.000286979
0.000287066
0.000287022
0.000286815
0.000287039
0.000287092
0.000284025
0.000283997
0.000283985
0.000283662
0.000283638
0.000283638
0.000283645
0.000283921
0.000283984
0.000283985
0.000283598
0.000283045
0.000283044
0.000283044
0.000283044
0.000283507
0.000283664
0.000283662
0.000283044
0.000283044
0.000283044
0.000283044
0.000283044
0.000283044
0.000283559
0.000283958
0.000284024
0.000283638
0.000283044
0.000283044
0.000283044
0.000283044
0.000283044
0.000283044
0.000283527
0.000283914
0.000283997
0.000283638
0.000283044
0.000283044
0.000283044
0.000283044
0.000283044
0.000283044
0.000283525
0.000283706
0.000283645
0.000283044
0.000283044
0.000283044
0.000283044
0.000283044
0.000283044
0.000283536
0.00028393
0.000283921
0.000283507
0.000283044
0.000283044
0.000283044
0.000283044
0.000283413
0.000283615
0.000283983
0.000283984
0.000283664
0.000283559
0.000283527
0.000283525
0.000283536
0.000283615
0.00028387
0.000283958
0.000283914
0.000283706
0.00028393
0.000283983
0.000280913
0.000280886
0.000280874
0.000280551
0.000280527
0.000280527
0.000280534
0.000280811
0.000280873
0.000280874
0.000280486
0.000279933
0.000279933
0.000279933
0.000279933
0.000280396
0.000280553
0.00028055
0.000279933
0.000279933
0.000279933
0.000279933
0.000279933
0.000279933
0.000280448
0.000280847
0.000280913
0.000280527
0.000279933
0.000279933
0.000279933
0.000279933
0.000279933
0.000279933
0.000280416
0.000280803
0.000280885
0.000280526
0.000279933
0.000279933
0.000279933
0.000279933
0.000279933
0.000279933
0.000280414
0.000280595
0.000280534
0.000279933
0.000279933
0.000279933
0.000279933
0.000279933
0.000279933
0.000280425
0.000280819
0.00028081
0.000280395
0.000279933
0.000279933
0.000279933
0.000279933
0.000280301
0.000280504
0.000280872
0.000280873
0.000280552
0.000280448
0.000280416
0.000280414
0.000280425
0.000280504
0.000280758
0.000280846
0.000280803
0.000280595
0.000280819
0.000280872
0.000277802
0.000277774
0.000277762
0.000277439
0.000277415
0.000277415
0.000277423
0.000277699
0.000277762
0.000277762
0.000277374
0.000276821
0.000276821
0.000276821
0.000276821
0.000277284
0.000277441
0.000277439
0.000276821
0.000276821
0.000276821
0.000276821
0.000276821
0.000276821
0.000277336
0.000277735
0.000277801
0.000277415
0.000276821
0.000276821
0.000276821
0.000276821
0.000276821
0.000276821
0.000277305
0.000277691
0.000277774
0.000277415
0.000276821
0.000276821
0.000276821
0.000276821
0.000276821
0.000276821
0.000277302
0.000277484
0.000277422
0.000276821
0.000276821
0.000276821
0.000276821
0.000276821
0.000276821
0.000277313
0.000277708
0.000277698
0.000277283
0.000276821
0.000276821
0.000276821
0.000276821
0.00027719
0.000277392
0.00027776
0.000277761
0.000277441
0.000277336
0.000277304
0.000277302
0.000277313
0.000277392
0.000277647
0.000277735
0.000277691
0.000277483
0.000277708
0.00027776
0.00027469
0.000274662
0.00027465
0.000274327
0.000274303
0.000274303
0.000274311
0.000274587
0.00027465
0.00027465
0.000274262
0.000273709
0.000273709
0.000273709
0.000273709
0.000274172
0.000274329
0.000274327
0.000273709
0.000273709
0.000273709
0.000273709
0.000273709
0.000273709
0.000274224
0.000274623
0.00027469
0.000274303
0.000273709
0.000273709
0.000273709
0.000273709
0.000273709
0.000273709
0.000274193
0.00027458
0.000274662
0.000274303
0.000273709
0.000273709
0.000273709
0.000273709
0.000273709
0.000273709
0.00027419
0.000274372
0.00027431
0.000273709
0.000273709
0.000273709
0.000273709
0.000273709
0.000273709
0.000274202
0.000274596
0.000274587
0.000274172
0.000273709
0.000273709
0.000273709
0.000273709
0.000274078
0.00027428
0.000274648
0.00027465
0.000274329
0.000274224
0.000274193
0.00027419
0.000274202
0.00027428
0.000274535
0.000274623
0.000274579
0.000274372
0.000274596
0.000274648
0.000271578
0.00027155
0.000271538
0.000271215
0.000271191
0.000271191
0.000271199
0.000271475
0.000271538
0.000271538
0.00027115
0.000270597
0.000270597
0.000270597
0.000270597
0.00027106
0.000271217
0.000271215
0.000270597
0.000270597
0.000270597
0.000270597
0.000270597
0.000270597
0.000271113
0.000271511
0.000271578
0.000271191
0.000270597
0.000270597
0.000270597
0.000270597
0.000270597
0.000270597
0.000271081
0.000271468
0.00027155
0.000271191
0.000270597
0.000270597
0.000270597
0.000270597
0.000270597
0.000270597
0.000271079
0.00027126
0.000271199
0.000270597
0.000270597
0.000270597
0.000270597
0.000270597
0.000270597
0.00027109
0.000271484
0.000271475
0.00027106
0.000270597
0.000270597
0.000270597
0.000270597
0.000270966
0.000271168
0.000271537
0.000271538
0.000271217
0.000271113
0.000271081
0.000271079
0.00027109
0.000271168
0.000271423
0.000271511
0.000271468
0.00027126
0.000271484
0.000271537
0.000268466
0.000268438
0.000268426
0.000268103
0.00026808
0.000268079
0.000268087
0.000268363
0.000268426
0.000268426
0.000268039
0.000267486
0.000267486
0.000267486
0.000267486
0.000267948
0.000268105
0.000268103
0.000267486
0.000267486
0.000267486
0.000267486
0.000267486
0.000267486
0.000268001
0.000268399
0.000268466
0.00026808
0.000267486
0.000267486
0.000267486
0.000267486
0.000267486
0.000267486
0.000267969
0.000268356
0.000268439
0.000268079
0.000267486
0.000267486
0.000267486
0.000267486
0.000267486
0.000267486
0.000267967
0.000268148
0.000268087
0.000267486
0.000267486
0.000267486
0.000267486
0.000267486
0.000267486
0.000267978
0.000268372
0.000268363
0.000267948
0.000267486
0.000267486
0.000267486
0.000267486
0.000267854
0.000268057
0.000268425
0.000268426
0.000268105
0.000268001
0.000267969
0.000267967
0.000267978
0.000268057
0.000268312
0.0002684
0.000268356
0.000268148
0.000268372
0.000268425
0.000265354
0.000265326
0.000265314
0.000264991
0.000264968
0.000264967
0.000264975
0.00026525
0.000265311
0.000265314
0.000264927
0.000264374
0.000264374
0.000264374
0.000264374
0.000264836
0.000264993
0.000264991
0.000264374
0.000264374
0.000264374
0.000264374
0.000264374
0.000264374
0.000264889
0.000265288
0.000265354
0.000264968
0.000264374
0.000264374
0.000264374
0.000264374
0.000264374
0.000264374
0.000264857
0.000265244
0.000265327
0.000264967
0.000264374
0.000264374
0.000264374
0.000264374
0.000264374
0.000264374
0.000264855
0.000265036
0.000264975
0.000264374
0.000264374
0.000264374
0.000264374
0.000264374
0.000264374
0.000264866
0.000265261
0.000265251
0.000264836
0.000264374
0.000264374
0.000264374
0.000264374
0.000264743
0.000264945
0.000265313
0.000265314
0.000264994
0.000264889
0.000264857
0.000264855
0.000264866
0.000264945
0.0002652
0.000265288
0.000265244
0.000265036
0.000265261
0.000265313
0.000262242
0.000262215
0.000262202
0.00026188
0.000261856
0.000261856
0.000261864
0.00026214
0.000262203
0.000262203
0.000261815
0.000261262
0.000261262
0.000261262
0.000261262
0.000261725
0.000261882
0.00026188
0.000261262
0.000261262
0.000261262
0.000261262
0.000261262
0.000261262
0.000261778
0.000262176
0.000262243
0.000261856
0.000261262
0.000261262
0.000261262
0.000261262
0.000261262
0.000261262
0.000261746
0.000262133
0.000262215
0.000261856
0.000261262
0.000261262
0.000261262
0.000261262
0.000261262
0.000261262
0.000261744
0.000261925
0.000261863
0.000261262
0.000261262
0.000261262
0.000261262
0.000261262
0.000261262
0.000261755
0.000262149
0.00026214
0.000261725
0.000261262
0.000261262
0.000261262
0.000261262
0.000261631
0.000261833
0.000262201
0.000262203
0.000261882
0.000261777
0.000261746
0.000261743
0.000261755
0.000261833
0.000262088
0.000262176
0.000262132
0.000261925
0.000262149
0.000262201
0.000259131
0.000259104
0.000259093
0.000258769
0.000258745
0.000258744
0.000258752
0.000259028
0.000259091
0.000259091
0.000258704
0.000258151
0.000258151
0.000258151
0.000258151
0.000258613
0.000258771
0.000258768
0.000258151
0.000258151
0.000258151
0.000258151
0.000258151
0.000258151
0.000258666
0.000259065
0.000259131
0.000258745
0.000258151
0.000258151
0.000258151
0.000258151
0.000258151
0.000258151
0.000258634
0.000259021
0.000259103
0.000258744
0.000258151
0.000258151
0.000258151
0.000258151
0.000258151
0.000258151
0.000258632
0.000258813
0.000258752
0.000258151
0.000258151
0.000258151
0.000258151
0.000258151
0.000258151
0.000258643
0.000259037
0.000259028
0.000258613
0.000258151
0.000258151
0.000258151
0.000258151
0.000258519
0.000258722
0.00025909
0.000259091
0.00025877
0.000258666
0.000258634
0.000258632
0.000258643
0.000258722
0.000258976
0.000259064
0.000259021
0.000258813
0.000259037
0.00025909
0.000256019
0.000255992
0.00025598
0.000255656
0.000255633
0.000255633
0.00025564
0.000255916
0.000255979
0.00025598
0.000255592
0.000255039
0.000255039
0.000255039
0.000255039
0.000255501
0.000255659
0.000255656
0.000255039
0.000255039
0.000255039
0.000255039
0.000255039
0.000255039
0.000255554
0.000255953
0.000256019
0.000255633
0.000255039
0.000255039
0.000255039
0.000255039
0.000255039
0.000255039
0.000255522
0.000255909
0.000255992
0.000255632
0.000255039
0.000255039
0.000255039
0.000255039
0.000255039
0.000255039
0.00025552
0.000255701
0.00025564
0.000255039
0.000255039
0.000255039
0.000255039
0.000255039
0.000255039
0.000255531
0.000255926
0.000255916
0.000255501
0.000255039
0.000255039
0.000255039
0.000255039
0.000255407
0.00025561
0.000255978
0.000255979
0.000255659
0.000255554
0.000255522
0.00025552
0.000255531
0.00025561
0.000255865
0.000255953
0.000255909
0.000255701
0.000255925
0.000255978
0.000252908
0.00025288
0.000252868
0.000252545
0.000252521
0.000252521
0.000252528
0.000252804
0.000252867
0.000252868
0.00025248
0.000251927
0.000251927
0.000251927
0.000251927
0.00025239
0.000252547
0.000252545
0.000251927
0.000251927
0.000251927
0.000251927
0.000251927
0.000251927
0.000252442
0.000252841
0.000252907
0.000252521
0.000251927
0.000251927
0.000251927
0.000251927
0.000251927
0.000251927
0.000252411
0.000252797
0.00025288
0.000252521
0.000251927
0.000251927
0.000251927
0.000251927
0.000251927
0.000251927
0.000252408
0.00025259
0.000252528
0.000251927
0.000251927
0.000251927
0.000251927
0.000251927
0.000251927
0.000252419
0.000252814
0.000252804
0.000252389
0.000251927
0.000251927
0.000251927
0.000251927
0.000252296
0.000252498
0.000252866
0.000252867
0.000252547
0.000252442
0.00025241
0.000252408
0.000252419
0.000252498
0.000252753
0.000252841
0.000252797
0.000252589
0.000252814
0.000252866
0.000249796
0.000249768
0.000249756
0.000249433
0.000249409
0.000249409
0.000249417
0.000249694
0.000249756
0.000249756
0.000249368
0.000248815
0.000248815
0.000248815
0.000248815
0.000249278
0.000249435
0.000249433
0.000248815
0.000248815
0.000248815
0.000248815
0.000248815
0.000248815
0.00024933
0.000249729
0.000249795
0.000249409
0.000248815
0.000248815
0.000248815
0.000248815
0.000248815
0.000248815
0.000249299
0.000249685
0.000249768
0.000249409
0.000248815
0.000248815
0.000248815
0.000248815
0.000248815
0.000248815
0.000249296
0.000249478
0.000249416
0.000248815
0.000248815
0.000248815
0.000248815
0.000248815
0.000248815
0.000249307
0.000249702
0.000249692
0.000249278
0.000248815
0.000248815
0.000248815
0.000248815
0.000249184
0.000249386
0.000249754
0.000249755
0.000249435
0.00024933
0.000249299
0.000249296
0.000249307
0.000249386
0.000249641
0.000249729
0.000249685
0.000249478
0.000249702
0.000249754
0.000246684
0.000246656
0.000246644
0.000246321
0.000246297
0.000246297
0.000246304
0.000246581
0.000246644
0.000246644
0.000246256
0.000245703
0.000245703
0.000245703
0.000245703
0.000246166
0.000246323
0.000246321
0.000245703
0.000245703
0.000245703
0.000245703
0.000245703
0.000245703
0.000246218
0.000246617
0.000246683
0.000246297
0.000245703
0.000245703
0.000245703
0.000245703
0.000245703
0.000245703
0.000246187
0.000246573
0.000246656
0.000246297
0.000245703
0.000245703
0.000245703
0.000245703
0.000245703
0.000245703
0.000246184
0.000246366
0.000246304
0.000245703
0.000245703
0.000245703
0.000245703
0.000245703
0.000245703
0.000246195
0.00024659
0.00024658
0.000246165
0.000245703
0.000245703
0.000245703
0.000245703
0.000246072
0.000246274
0.000246642
0.000246643
0.000246323
0.000246218
0.000246186
0.000246184
0.000246195
0.000246274
0.000246529
0.000246617
0.000246573
0.000246365
0.00024659
0.000246642
0.000243571
0.000243544
0.000243531
0.000243208
0.000243185
0.000243185
0.000243192
0.000243469
0.000243532
0.000243531
0.000243144
0.000242591
0.000242591
0.000242591
0.000242591
0.000243054
0.000243211
0.000243208
0.000242591
0.000242591
0.000242591
0.000242591
0.000242591
0.000242591
0.000243106
0.000243505
0.000243571
0.000243185
0.000242591
0.000242591
0.000242591
0.000242591
0.000242591
0.000242591
0.000243074
0.000243461
0.000243544
0.000243184
0.000242591
0.000242591
0.000242591
0.000242591
0.000242591
0.000242591
0.000243072
0.000243253
0.000243192
0.00024259
0.00024259
0.000242591
0.000242591
0.000242591
0.000242591
0.000243083
0.000243477
0.000243468
0.000243053
0.00024259
0.00024259
0.00024259
0.00024259
0.000242959
0.000243162
0.00024353
0.000243531
0.00024321
0.000243106
0.000243074
0.000243072
0.000243083
0.000243162
0.000243417
0.000243504
0.000243461
0.000243253
0.000243477
0.00024353
0.000240459
0.000240431
0.000240419
0.000240096
0.000240072
0.000240072
0.00024008
0.000240356
0.000240419
0.000240419
0.000240031
0.000239478
0.000239478
0.000239478
0.000239478
0.000239941
0.000240098
0.000240096
0.000239478
0.000239478
0.000239478
0.000239478
0.000239478
0.000239478
0.000239993
0.000240392
0.000240459
0.000240072
0.000239478
0.000239478
0.000239478
0.000239478
0.000239478
0.000239478
0.000239962
0.000240349
0.000240431
0.000240072
0.000239478
0.000239478
0.000239478
0.000239478
0.000239478
0.000239478
0.000239959
0.000240141
0.000240079
0.000239478
0.000239478
0.000239478
0.000239478
0.000239478
0.000239478
0.000239971
0.000240365
0.000240356
0.000239941
0.000239478
0.000239478
0.000239478
0.000239478
0.000239847
0.000240049
0.000240418
0.000240419
0.000240098
0.000239993
0.000239962
0.000239959
0.000239971
0.000240049
0.000240304
0.000240392
0.000240349
0.000240141
0.000240365
0.000240417
0.000237346
0.000237319
0.000237307
0.000236983
0.00023696
0.000236959
0.000236967
0.000237243
0.000237306
0.000237307
0.000236919
0.000236366
0.000236366
0.000236366
0.000236366
0.000236828
0.000236986
0.000236983
0.000236366
0.000236366
0.000236366
0.000236366
0.000236366
0.000236366
0.000236881
0.00023728
0.000237346
0.00023696
0.000236366
0.000236366
0.000236366
0.000236366
0.000236366
0.000236366
0.000236849
0.000237236
0.000237319
0.000236959
0.000236366
0.000236366
0.000236366
0.000236366
0.000236366
0.000236366
0.000236847
0.000237028
0.000236967
0.000236366
0.000236366
0.000236366
0.000236366
0.000236366
0.000236366
0.000236858
0.000237253
0.000237243
0.000236828
0.000236366
0.000236366
0.000236366
0.000236366
0.000236734
0.000236937
0.000237305
0.000237306
0.000236986
0.000236881
0.000236849
0.000236847
0.000236858
0.000236937
0.000237192
0.00023728
0.000237236
0.000237028
0.000237253
0.000237305
0.000234234
0.000234206
0.000234194
0.000233871
0.000233847
0.000233847
0.000233855
0.000234131
0.000234194
0.000234194
0.000233806
0.000233253
0.000233253
0.000233253
0.000233253
0.000233716
0.000233873
0.000233871
0.000233253
0.000233253
0.000233253
0.000233253
0.000233253
0.000233253
0.000233768
0.000234167
0.000234234
0.000233847
0.000233253
0.000233253
0.000233253
0.000233253
0.000233253
0.000233253
0.000233737
0.000234124
0.000234206
0.000233847
0.000233253
0.000233253
0.000233253
0.000233253
0.000233253
0.000233253
0.000233734
0.000233916
0.000233854
0.000233253
0.000233253
0.000233253
0.000233253
0.000233253
0.000233253
0.000233746
0.00023414
0.000234131
0.000233716
0.000233253
0.000233253
0.000233253
0.000233253
0.000233622
0.000233824
0.000234193
0.000234194
0.000233873
0.000233768
0.000233737
0.000233734
0.000233746
0.000233824
0.000234079
0.000234167
0.000234124
0.000233916
0.00023414
0.000234193
0.000231121
0.000231094
0.000231082
0.000230758
0.000230735
0.000230735
0.000230742
0.000231018
0.000231081
0.000231082
0.000230694
0.000230141
0.000230141
0.000230141
0.000230141
0.000230603
0.000230761
0.000230758
0.000230141
0.000230141
0.000230141
0.000230141
0.000230141
0.000230141
0.000230656
0.000231055
0.000231121
0.000230735
0.000230141
0.000230141
0.000230141
0.000230141
0.000230141
0.000230141
0.000230624
0.000231011
0.000231094
0.000230735
0.000230141
0.000230141
0.000230141
0.000230141
0.000230141
0.000230141
0.000230622
0.000230803
0.000230742
0.000230141
0.000230141
0.000230141
0.000230141
0.000230141
0.000230141
0.000230633
0.000231028
0.000231018
0.000230603
0.000230141
0.000230141
0.000230141
0.000230141
0.00023051
0.000230712
0.00023108
0.000231081
0.000230761
0.000230656
0.000230624
0.000230622
0.000230633
0.000230712
0.000230967
0.000231055
0.000231011
0.000230803
0.000231028
0.00023108
0.000228009
0.000227981
0.000227969
0.000227646
0.000227622
0.000227622
0.00022763
0.000227906
0.000227969
0.000227969
0.000227581
0.000227028
0.000227028
0.000227028
0.000227028
0.000227491
0.000227648
0.000227646
0.000227028
0.000227028
0.000227028
0.000227028
0.000227028
0.000227028
0.000227543
0.000227942
0.000228009
0.000227622
0.000227028
0.000227028
0.000227028
0.000227028
0.000227028
0.000227028
0.000227512
0.000227899
0.000227981
0.000227622
0.000227028
0.000227028
0.000227028
0.000227028
0.000227028
0.000227028
0.00022751
0.000227691
0.00022763
0.000227028
0.000227028
0.000227028
0.000227028
0.000227028
0.000227028
0.000227521
0.000227915
0.000227906
0.000227491
0.000227028
0.000227028
0.000227028
0.000227028
0.000227397
0.000227599
0.000227968
0.000227969
0.000227648
0.000227543
0.000227512
0.000227509
0.000227521
0.000227599
0.000227854
0.000227942
0.000227899
0.000227691
0.000227915
0.000227968
0.000224896
0.000224869
0.000224857
0.000224534
0.00022451
0.00022451
0.000224517
0.000224793
0.000224856
0.000224857
0.000224469
0.000223916
0.000223916
0.000223916
0.000223916
0.000224378
0.000224536
0.000224534
0.000223916
0.000223916
0.000223916
0.000223916
0.000223916
0.000223916
0.000224431
0.00022483
0.000224897
0.00022451
0.000223916
0.000223916
0.000223916
0.000223916
0.000223916
0.000223916
0.000224399
0.000224786
0.000224869
0.00022451
0.000223916
0.000223916
0.000223916
0.000223916
0.000223916
0.000223916
0.000224397
0.000224579
0.000224517
0.000223916
0.000223916
0.000223916
0.000223916
0.000223916
0.000223916
0.000224408
0.000224803
0.000224793
0.000224378
0.000223916
0.000223916
0.000223916
0.000223916
0.000224284
0.000224487
0.000224855
0.000224856
0.000224536
0.000224431
0.000224399
0.000224397
0.000224408
0.000224487
0.000224742
0.00022483
0.000224786
0.000224578
0.000224803
0.000224855
0.000221784
0.000221757
0.000221744
0.000221421
0.000221398
0.000221397
0.000221405
0.000221681
0.000221744
0.000221744
0.000221357
0.000220803
0.000220803
0.000220803
0.000220803
0.000221266
0.000221423
0.000221421
0.000220803
0.000220803
0.000220803
0.000220803
0.000220803
0.000220803
0.000221319
0.000221717
0.000221784
0.000221398
0.000220803
0.000220803
0.000220803
0.000220803
0.000220803
0.000220803
0.000221287
0.000221674
0.000221756
0.000221397
0.000220803
0.000220803
0.000220803
0.000220803
0.000220803
0.000220803
0.000221285
0.000221466
0.000221405
0.000220803
0.000220803
0.000220803
0.000220803
0.000220803
0.000220803
0.000221296
0.00022169
0.000221681
0.000221266
0.000220803
0.000220803
0.000220803
0.000220803
0.000221172
0.000221374
0.000221743
0.000221744
0.000221423
0.000221318
0.000221287
0.000221284
0.000221296
0.000221374
0.000221629
0.000221717
0.000221673
0.000221466
0.00022169
0.000221743
0.000218672
0.000218644
0.000218633
0.00021831
0.000218286
0.000218285
0.000218293
0.000218569
0.000218632
0.000218632
0.000218245
0.000217691
0.000217691
0.000217691
0.000217691
0.000218154
0.000218311
0.000218309
0.000217691
0.000217691
0.000217691
0.000217691
0.000217691
0.000217691
0.000218206
0.000218605
0.000218672
0.000218285
0.000217691
0.000217691
0.000217691
0.000217691
0.000217691
0.000217691
0.000218175
0.000218561
0.000218644
0.000218285
0.000217691
0.000217691
0.000217691
0.000217691
0.000217691
0.000217691
0.000218172
0.000218354
0.000218292
0.000217691
0.000217691
0.000217691
0.000217691
0.000217691
0.000217691
0.000218183
0.000218578
0.000218569
0.000218154
0.000217691
0.000217691
0.000217691
0.000217691
0.00021806
0.000218262
0.00021863
0.000218631
0.000218311
0.000218206
0.000218175
0.000218172
0.000218183
0.000218262
0.000218517
0.000218605
0.000218561
0.000218354
0.000218578
0.00021863
0.000215559
0.000215532
0.00021552
0.000215196
0.000215173
0.000215173
0.00021518
0.000215456
0.000215519
0.000215519
0.000215132
0.000214578
0.000214579
0.000214579
0.000214579
0.000215041
0.000215199
0.000215196
0.000214578
0.000214578
0.000214578
0.000214578
0.000214578
0.000214579
0.000215094
0.000215493
0.000215559
0.000215173
0.000214578
0.000214578
0.000214578
0.000214578
0.000214578
0.000214578
0.000215062
0.000215449
0.000215531
0.000215172
0.000214578
0.000214578
0.000214578
0.000214578
0.000214578
0.000214578
0.00021506
0.000215241
0.00021518
0.000214578
0.000214578
0.000214578
0.000214578
0.000214578
0.000214578
0.000215071
0.000215465
0.000215456
0.000215041
0.000214578
0.000214578
0.000214578
0.000214578
0.000214947
0.00021515
0.000215518
0.000215519
0.000215198
0.000215094
0.000215062
0.00021506
0.000215071
0.000215149
0.000215404
0.000215492
0.000215449
0.000215241
0.000215465
0.000215518
0.000212446
0.000212419
0.000212407
0.000212083
0.00021206
0.00021206
0.000212067
0.000212344
0.000212407
0.000212407
0.000212019
0.000211466
0.000211466
0.000211466
0.000211466
0.000211928
0.000212086
0.000212083
0.000211466
0.000211466
0.000211466
0.000211466
0.000211466
0.000211466
0.000211981
0.00021238
0.000212446
0.00021206
0.000211466
0.000211466
0.000211466
0.000211466
0.000211466
0.000211466
0.000211949
0.000212336
0.000212419
0.000212059
0.000211465
0.000211465
0.000211466
0.000211466
0.000211466
0.000211466
0.000211947
0.000212128
0.000212067
0.000211465
0.000211465
0.000211465
0.000211465
0.000211465
0.000211465
0.000211958
0.000212353
0.000212343
0.000211928
0.000211465
0.000211465
0.000211465
0.000211465
0.000211834
0.000212037
0.000212405
0.000212406
0.000212085
0.000211981
0.000211949
0.000211947
0.000211958
0.000212037
0.000212292
0.00021238
0.000212336
0.000212128
0.000212352
0.000212405
0.000209334
0.000209306
0.000209294
0.000208971
0.000208947
0.000208947
0.000208954
0.00020923
0.000209293
0.000209294
0.000208906
0.000208353
0.000208353
0.000208353
0.000208353
0.000208815
0.000208973
0.00020897
0.000208353
0.000208353
0.000208353
0.000208353
0.000208353
0.000208353
0.000208868
0.000209267
0.000209333
0.000208947
0.000208353
0.000208353
0.000208353
0.000208353
0.000208353
0.000208353
0.000208836
0.000209223
0.000209306
0.000208946
0.000208353
0.000208353
0.000208353
0.000208353
0.000208353
0.000208353
0.000208834
0.000209015
0.000208954
0.000208353
0.000208353
0.000208353
0.000208353
0.000208353
0.000208353
0.000208845
0.00020924
0.00020923
0.000208815
0.000208352
0.000208352
0.000208352
0.000208352
0.000208721
0.000208924
0.000209292
0.000209293
0.000208973
0.000208868
0.000208836
0.000208834
0.000208845
0.000208924
0.000209179
0.000209267
0.000209223
0.000209015
0.00020924
0.000209292
0.00020622
0.000206193
0.000206181
0.000205857
0.000205834
0.000205834
0.000205841
0.000206118
0.000206181
0.000206181
0.000205793
0.00020524
0.00020524
0.00020524
0.00020524
0.000205703
0.00020586
0.000205857
0.000205239
0.00020524
0.00020524
0.00020524
0.00020524
0.00020524
0.000205755
0.000206154
0.00020622
0.000205834
0.000205239
0.000205239
0.000205239
0.000205239
0.000205239
0.00020524
0.000205723
0.00020611
0.000206193
0.000205833
0.000205239
0.000205239
0.000205239
0.000205239
0.000205239
0.000205239
0.000205721
0.000205902
0.000205841
0.000205239
0.000205239
0.000205239
0.000205239
0.000205239
0.000205239
0.000205732
0.000206127
0.000206117
0.000205702
0.000205239
0.000205239
0.000205239
0.000205239
0.000205608
0.000205811
0.000206179
0.00020618
0.000205859
0.000205755
0.000205723
0.000205721
0.000205732
0.000205811
0.000206066
0.000206154
0.00020611
0.000205902
0.000206127
0.000206179
0.000203107
0.00020308
0.000203067
0.000202744
0.000202721
0.00020272
0.000202728
0.000203004
0.000203067
0.000203067
0.00020268
0.000202126
0.000202126
0.000202126
0.000202126
0.000202589
0.000202746
0.000202744
0.000202126
0.000202126
0.000202126
0.000202126
0.000202126
0.000202126
0.000202642
0.000203041
0.000203107
0.000202721
0.000202126
0.000202126
0.000202126
0.000202126
0.000202126
0.000202126
0.00020261
0.000202997
0.00020308
0.00020272
0.000202126
0.000202126
0.000202126
0.000202126
0.000202126
0.000202126
0.000202608
0.000202789
0.000202728
0.000202126
0.000202126
0.000202126
0.000202126
0.000202126
0.000202126
0.000202619
0.000203013
0.000203004
0.000202589
0.000202126
0.000202126
0.000202126
0.000202126
0.000202495
0.000202698
0.000203066
0.000203067
0.000202746
0.000202642
0.00020261
0.000202608
0.000202619
0.000202698
0.000202953
0.000203041
0.000202997
0.000202789
0.000203013
0.000203066
0.000199994
0.000199966
0.000199954
0.000199631
0.000199607
0.000199607
0.000199615
0.000199891
0.000199954
0.000199954
0.000199566
0.000199013
0.000199013
0.000199013
0.000199013
0.000199476
0.000199633
0.000199631
0.000199013
0.000199013
0.000199013
0.000199013
0.000199013
0.000199013
0.000199528
0.000199927
0.000199994
0.000199607
0.000199013
0.000199013
0.000199013
0.000199013
0.000199013
0.000199013
0.000199497
0.000199884
0.000199966
0.000199607
0.000199013
0.000199013
0.000199013
0.000199013
0.000199013
0.000199013
0.000199494
0.000199676
0.000199615
0.000199013
0.000199013
0.000199013
0.000199013
0.000199013
0.000199013
0.000199506
0.0001999
0.000199891
0.000199476