/*--------------------------------*- C++ -*----------------------------------*\
| =========                 |                                                 |
| \\      /  F ield         | OpenFOAM: The Open Source CFD Toolbox           |
|  \\    /   O peration     | Version:  v2006                                 |
|   \\  /    A nd           | Website:  www.openfoam.com                      |
|    \\/     M anipulation  |                                                 |
\*---------------------------------------------------------------------------*/
FoamFile
{
    version     2.0;
    format      ascii;
    class       volScalarField;
    location    "750";
    object      nut;
}
// * * * * * * * * * * * * * * * * * * * * * * * * * * * * * * * * * * * * * //

dimensions      [0 2 -1 0 0 0 0];


internalField   nonuniform List<scalar> 
14404
(
0.00019853
0.000196793
0.000179952
0.000202599
2.39001e-05
0.000103155
5.07425e-05
9.83463e-05
0.000203157
0.000102782
0.000140987
7.75557e-05
7.7603e-05
2.38964e-05
5.07294e-05
7.84835e-05
2.03196e-05
4.10643e-05
9.33547e-05
3.67191e-05
0.000127807
4.86645e-05
0.000104746
0.000104718
0.000128066
4.8666e-05
7.75642e-05
0.000127997
0.000104758
4.86798e-05
2.17131e-05
2.17156e-05
8.12024e-05
2.39022e-05
5.07368e-05
7.87226e-05
0.000137394
0.000160232
0.0001605
0.000180033
0.000160482
0.000137438
0.000160242
0.000194781
0.000159539
0.00014665
0.000103091
0.000146524
0.000121982
0.000145913
0.000121269
0.000158317
0.000171905
0.000135266
0.000167715
9.80339e-05
5.08292e-05
5.08438e-05
2.39482e-05
2.39465e-05
0.000172663
7.67831e-05
7.68523e-05
0.000139736
0.000189698
0.000101326
0.000199575
0.000189889
0.000101566
3.67427e-05
9.77952e-05
4.11013e-05
9.29071e-05
4.10803e-05
9.26428e-05
3.67643e-05
2.03346e-05
7.81746e-05
5.07885e-05
7.79685e-05
2.03505e-05
5.08025e-05
2.39072e-05
2.3931e-05
2.39297e-05
8.01666e-05
2.17589e-05
2.1753e-05
2.17404e-05
2.17345e-05
8.0449e-05
0.000102501
4.87679e-05
7.64953e-05
0.000124776
4.87185e-05
0.000102942
0.000124234
0.000102531
4.87531e-05
7.6555e-05
0.000124925
4.87046e-05
0.000102979
0.00012436
2.03277e-05
5.07618e-05
7.85406e-05
3.6735e-05
9.8445e-05
4.10812e-05
9.34016e-05
0.000104737
7.76303e-05
4.86812e-05
0.000127824
8.12112e-05
2.17191e-05
2.17224e-05
0.000133069
0.000172153
0.000154674
0.000154789
0.000133703
0.000154169
0.00015425
0.000164232
0.000139417
0.000133521
0.000169549
0.000133109
0.000169462
0.000164449
0.000153913
0.000119473
0.00010093
0.000141997
0.000119011
0.000141605
0.000154262
0.000101132
0.000142401
0.000141952
0.000158394
0.000102823
0.000121294
0.000145933
0.000167793
0.000141065
0.000171975
0.000135281
0.000172201
0.000186372
0.000186381
0.000172356
0.000186862
0.000182492
5.05572e-05
2.38142e-05
2.38077e-05
2.38113e-05
2.38053e-05
0.000171676
7.7188e-05
7.71816e-05
7.71349e-05
7.71269e-05
9.83822e-05
5.05594e-05
5.05438e-05
9.84911e-05
9.83863e-05
5.05393e-05
9.84904e-05
0.000139346
0.000185962
0.000101856
0.000191907
0.000101713
0.000191384
0.000139696
0.000139357
0.000186182
0.000191996
0.000101746
0.000191482
0.000139702
2.38049e-05
0.000171928
7.71459e-05
7.71752e-05
2.3806e-05
9.83549e-05
5.0554e-05
5.05397e-05
9.84796e-05
0.000139299
0.000185922
0.000101843
0.000191843
0.000101695
0.000191233
0.000139659
9.83394e-05
5.0536e-05
9.84757e-05
0.000139292
0.000185967
0.000191888
0.000191241
0.000101687
0.000139656
0.000139541
0.000186349
0.000101803
0.000191819
9.84802e-05
5.05419e-05
0.000139582
0.000186801
0.000192013
0.00010194
9.84983e-05
5.05411e-05
2.38045e-05
0.000171725
7.71163e-05
7.71432e-05
2.38059e-05
0.000139443
0.00018609
0.000191523
0.000101734
0.000139498
0.000186729
0.000191801
0.000101918
9.84187e-05
5.05403e-05
9.84543e-05
5.05395e-05
0.000172402
7.7267e-05
7.72582e-05
2.38055e-05
2.38046e-05
2.38152e-05
2.38123e-05
7.71867e-05
7.71795e-05
0.000101841
2.02442e-05
7.84971e-05
7.84667e-05
2.02464e-05
2.0255e-05
7.85433e-05
5.05642e-05
2.02524e-05
7.85852e-05
2.38113e-05
2.38104e-05
2.38085e-05
2.38076e-05
8.09955e-05
2.16399e-05
2.16376e-05
8.09861e-05
2.16423e-05
2.16399e-05
0.000103764
0.000125715
7.71572e-05
4.84827e-05
4.84764e-05
0.000125618
0.000103815
0.000103745
0.000125693
7.71505e-05
4.84688e-05
4.84627e-05
0.000125592
0.000103801
0.000103768
4.84678e-05
0.000125498
7.71614e-05
0.000103718
4.84735e-05
0.000125609
0.00010375
4.84546e-05
0.000125472
7.71547e-05
0.000103691
4.84601e-05
0.000125581
8.10008e-05
2.16457e-05
2.1643e-05
2.1643e-05
2.16405e-05
8.10195e-05
3.65789e-05
4.08946e-05
9.32852e-05
9.84362e-05
3.65751e-05
4.08988e-05
9.33305e-05
2.02499e-05
5.0553e-05
7.85469e-05
2.02524e-05
7.85178e-05
2.02494e-05
7.84959e-05
5.05498e-05
2.02471e-05
7.85226e-05
3.65804e-05
9.84484e-05
4.09048e-05
9.33743e-05
3.65843e-05
4.09006e-05
9.33356e-05
3.65765e-05
4.08945e-05
9.32931e-05
9.84388e-05
3.65729e-05
4.08986e-05
9.33329e-05
2.02477e-05
7.84935e-05
5.05443e-05
2.02455e-05
7.85144e-05
3.6578e-05
9.84508e-05
4.09047e-05
9.3368e-05
4.09005e-05
9.33378e-05
3.65818e-05
2.38074e-05
8.10063e-05
2.16368e-05
2.16395e-05
8.1007e-05
2.1639e-05
2.16416e-05
0.000103796
4.84551e-05
0.000125567
7.71612e-05
0.000125661
0.00010376
4.84597e-05
0.000103809
4.84657e-05
0.000125639
7.71848e-05
0.00010378
4.84699e-05
0.00012573
2.38083e-05
3.65784e-05
9.32721e-05
4.08936e-05
9.84113e-05
3.65745e-05
9.33169e-05
4.08978e-05
2.02495e-05
5.05478e-05
7.85474e-05
2.0252e-05
7.85155e-05
2.02491e-05
7.84925e-05
5.05451e-05
2.02468e-05
7.85205e-05
3.658e-05
9.84249e-05
9.33697e-05
4.09041e-05
3.6584e-05
9.33249e-05
4.08997e-05
3.65758e-05
4.0893e-05
9.32466e-05
9.8406e-05
3.65719e-05
4.08971e-05
9.33039e-05
2.02482e-05
7.84675e-05
5.05419e-05
2.02458e-05
7.85002e-05
3.65774e-05
9.84119e-05
4.09035e-05
9.33609e-05
4.0899e-05
9.33042e-05
3.65814e-05
3.65783e-05
9.33525e-05
4.08945e-05
9.85307e-05
3.65752e-05
9.33926e-05
4.08978e-05
2.02489e-05
7.85286e-05
5.05462e-05
2.02469e-05
7.85422e-05
3.65771e-05
4.08952e-05
9.34005e-05
9.8547e-05
3.65746e-05
4.08983e-05
9.3426e-05
2.02481e-05
7.85603e-05
5.05435e-05
2.02465e-05
7.85664e-05
2.38071e-05
8.10123e-05
2.16373e-05
2.16405e-05
8.10022e-05
2.16397e-05
2.16429e-05
0.000103773
4.84552e-05
0.000125479
7.71532e-05
0.000125595
0.000103713
4.84611e-05
0.000103771
4.84669e-05
0.000125528
7.71712e-05
0.000103712
4.84725e-05
0.000125645
2.38085e-05
3.65782e-05
9.32935e-05
4.0894e-05
9.84776e-05
3.65746e-05
9.33459e-05
4.08978e-05
2.02492e-05
7.84947e-05
5.05459e-05
2.02468e-05
7.85224e-05
3.65765e-05
9.33709e-05
4.08943e-05
9.85029e-05
3.65736e-05
9.34024e-05
4.08979e-05
2.02476e-05
7.85515e-05
5.05423e-05
2.0246e-05
7.85583e-05
8.10877e-05
2.16397e-05
2.16369e-05
8.11078e-05
2.1641e-05
2.1638e-05
0.000103951
4.84697e-05
0.000125881
7.72683e-05
0.000103935
0.000125939
4.84709e-05
0.000103955
4.84591e-05
0.000125852
7.72588e-05
0.000103941
0.000125913
4.84605e-05
2.38069e-05
2.3806e-05
2.38183e-05
2.38153e-05
0.000103882
0.000125725
4.84859e-05
7.72397e-05
0.000103811
4.84933e-05
0.000125836
0.000103873
0.000125703
4.8472e-05
7.72303e-05
0.000103798
4.84793e-05
0.000125818
8.10657e-05
2.16465e-05
2.16437e-05
8.10325e-05
2.16495e-05
2.16464e-05
0.000134569
0.000172021
0.000155144
0.000155121
0.00015504
0.000155014
0.000134688
0.000134826
0.000155265
0.000155249
0.000172548
0.000134693
0.000155382
0.000155367
0.000181832
0.000173928
0.000173772
0.000173144
0.000173001
0.000158842
0.000159536
0.000182184
0.000174102
0.00017324
0.000173316
0.000158818
0.0001597
0.000181812
0.000173784
0.000172948
0.000173031
0.000158745
0.00015948
0.000182594
0.000173444
0.000173306
0.000158759
0.000159743
0.00013456
0.000171858
0.000154801
0.000154769
0.00013443
0.00015491
0.000154879
0.000162792
0.000133428
0.000167088
0.00013951
0.000162667
0.000133572
0.000167229
0.000154025
0.00014245
0.000101787
0.000119951
0.000142369
0.000119839
0.000154142
0.000153888
0.000119713
0.000142178
0.000101788
0.000142264
0.000153764
0.000119837
0.000163003
0.000139558
0.000133731
0.000167585
0.000133608
0.000167459
0.000163116
0.000162847
0.000133457
0.000167112
0.000139522
0.000162724
0.000133598
0.000167255
0.000153975
0.000119753
0.000142269
0.00010181
0.000153855
0.000119866
0.000142347
0.000163051
0.000139568
0.000133741
0.000167606
0.00013363
0.000167484
0.000163156
0.00013467
0.000172108
0.000154953
0.000155009
0.000155053
0.000134568
0.00015511
0.000153461
0.000119688
0.00011956
0.000153586
0.000162736
0.000133396
0.000167014
0.000139457
0.000162611
0.000133534
0.000167155
0.000153994
0.000142435
0.000101769
0.000119935
0.000142349
0.000119815
0.000154118
0.000153855
0.000119691
0.000142152
0.000101771
0.00014224
0.00015373
0.000119814
0.00016295
0.000139506
0.000133704
0.000167527
0.000133573
0.000167388
0.000163072
0.00016274
0.000167012
0.000133386
0.000139453
0.000162611
0.000167155
0.000133528
0.000153868
0.000119685
0.000142157
0.000101771
0.000153736
0.000119813
0.000142251
0.000162964
0.000139502
0.000167534
0.000133705
0.000167393
0.000133568
0.000163091
0.000163054
0.000133592
0.000167377
0.000139729
0.000162921
0.000133746
0.000167537
0.000154121
0.000119847
0.000142376
0.000101863
0.000153998
0.000142454
0.000119956
0.000163208
0.000167446
0.000133701
0.000139771
0.00016308
0.000167607
0.000133851
0.000154366
0.000120001
0.000142649
0.000101969
0.000154252
0.000120089
0.000142717
0.000134593
0.000171924
0.000154805
0.000154844
0.000154925
0.000134454
0.000154963
0.00016291
0.000167229
0.000133491
0.000139621
0.000162771
0.000167388
0.000133643
0.000153979
0.000119754
0.000142239
0.000101812
0.000153845
0.000142332
0.00011988
0.000163111
0.000167322
0.000133631
0.000139677
0.000162982
0.000167479
0.000133778
0.000154301
0.000119951
0.000142602
0.00010195
0.000154184
0.000120045
0.000142672
0.000134946
0.000172582
0.000155396
0.000155371
0.00013488
0.000155487
0.000155463
0.000154385
0.000142541
0.000119936
0.000101928
0.000120066
0.000154254
0.000142636
9.83413e-05
2.38037e-05
0.000185519
0.00010173
0.000139247
0.000190645
9.83352e-05
5.05332e-05
0.000139242
0.000185432
0.000190618
0.000101686
0.000171512
7.71188e-05
7.71451e-05
2.38051e-05
5.05378e-05
3.6569e-05
9.82799e-05
9.32621e-05
4.08917e-05
9.32141e-05
4.08873e-05
3.65729e-05
2.38011e-05
3.65664e-05
9.82641e-05
4.08911e-05
9.32464e-05
4.08867e-05
9.31879e-05
3.65703e-05
2.02429e-05
5.05273e-05
7.84708e-05
7.8439e-05
2.02453e-05
8.09857e-05
2.16367e-05
2.164e-05
2.16345e-05
2.16378e-05
8.09929e-05
0.000103645
7.70815e-05
4.84526e-05
0.000125457
4.84471e-05
0.000125334
0.00010371
0.000103646
7.7112e-05
4.84645e-05
0.00012551
0.000125378
4.84591e-05
0.000103711
2.38026e-05
5.05321e-05
0.000172285
0.000181019
0.00017221
0.00010164
0.000142097
0.000141995
0.000162284
0.000139093
0.000133355
0.000166787
0.000133219
0.000166654
0.0001624
0.000162271
0.000139085
0.000166782
0.000133344
0.000166646
0.000133206
0.000162391
0.000153447
0.0001016
0.000119678
0.000142026
0.000119549
0.000153578
0.000141929
0.000134283
0.000171308
0.000154639
0.000154674
0.000154548
0.000154515
0.000134432
0.000183175
0.000187019
0.000187071
0.000172891
0.000186908
0.00018956
0.000189572
0.000173781
0.000192155
0.000192106
0.000192489
0.000176308
0.000193989
0.000193405
0.000192033
0.000176689
0.000192871
0.000192917
0.00019495
0.000176622
0.000200081
0.000197293
0.000198754
0.000180595
0.000186539
0.000172398
0.000186484
0.000186733
0.000187244
0.000172312
0.00018661
0.000187192
0.000172855
0.00017409
0.000186806
0.000186851
0.00018881
0.000188726
0.000172485
0.000173953
0.000186971
0.000188751
0.000188744
0.000187464
0.000188674
0.000188271
0.000172487
0.000174064
0.000187453
0.000188738
0.000188274
0.000173516
0.000174467
0.000176344
0.000189674
0.000189651
0.000192079
0.000191716
0.000174352
0.000176082
0.000189598
0.000189596
0.000192181
0.000192078
0.000188942
0.000191672
0.000191571
0.000174414
0.000176208
0.000188938
0.000192058
0.000191704
0.000176081
0.000176457
0.000176583
0.000192633
0.000192113
0.000193025
0.000193186
0.000176172
0.000176818
0.000192734
0.000192494
0.000192943
0.000192317
0.000192331
0.000193242
0.000193284
0.00017626
0.000175886
0.000192458
0.000192335
0.000193145
0.000176861
0.000176378
0.000175758
0.000192875
0.000193347
0.000191936
0.000193001
0.000176781
0.000176714
0.000192692
0.000192019
0.000191783
0.000193047
0.000193197
0.000193085
0.000192517
0.0001756
0.000177481
0.000193
0.00019318
0.00019235
0.000176349
0.000175939
0.000180275
0.000191909
0.000192769
0.000196807
0.000195605
0.000176563
0.000179079
0.000192187
0.000194746
0.0001973
0.000198371
0.000192755
0.000195747
0.000196904
0.000178344
0.000181494
0.000193121
0.000198434
0.000197447
0.000180202
0.000181078
0.000183987
0.000198627
0.000197319
0.000201397
0.000200317
0.000179815
0.000182232
0.000198851
0.000198735
0.000201078
0.000198378
0.000198106
0.000200063
0.000199471
0.000181487
0.000179295
0.000198369
0.0001979
0.000199026
0.000181182
0.000183919
0.000179159
0.000201521
0.000197385
0.000198021
0.000195666
0.000178884
0.000182909
0.000182636
0.000183535
9.86264e-05
5.05625e-05
9.85001e-05
5.05799e-05
2.38118e-05
2.3819e-05
9.8642e-05
9.84921e-05
5.05749e-05
0.000183472
0.000183426
0.000184224
0.00018576
0.000185697
0.000185813
0.000185635
0.000140024
0.000101875
0.000192886
0.000187365
0.000139897
0.000101988
0.000193262
2.38114e-05
2.3818e-05
0.000140049
0.000192827
0.000101877
0.000187525
0.000139826
0.000193344
0.000102053
7.72173e-05
7.72095e-05
0.000173094
7.71938e-05
7.71883e-05
9.90935e-05
5.06001e-05
9.89187e-05
5.06069e-05
2.38255e-05
2.38283e-05
9.9084e-05
5.05945e-05
9.89123e-05
5.06007e-05
0.000186937
0.000186875
0.000186359
0.000190937
0.000190561
0.00019094
0.000189961
0.000141159
0.000102384
0.000195395
0.00019042
0.00014053
0.000102612
0.000196418
2.3824e-05
2.38263e-05
0.000141202
0.000195402
0.000102417
0.000190487
0.000140608
0.000196434
0.000102636
7.74007e-05
7.73929e-05
0.000174777
7.75327e-05
7.75239e-05
9.91277e-05
5.06086e-05
9.91298e-05
5.06087e-05
2.38306e-05
2.38337e-05
9.9096e-05
5.06013e-05
9.91407e-05
5.06005e-05
0.000191423
0.000192136
0.000191344
0.000194065
0.000193831
0.000193106
0.00019421
0.000141679
0.000102655
0.00019898
0.000192517
0.000141591
0.000102664
0.000199618
2.3827e-05
2.38299e-05
0.00014161
0.000199469
0.000102661
0.000192628
0.000141562
0.000199959
0.000102513
7.75881e-05
7.75769e-05
0.000176747
7.75581e-05
7.75322e-05
9.89663e-05
5.06138e-05
9.90074e-05
5.06295e-05
2.38382e-05
2.38436e-05
9.88919e-05
5.06102e-05
9.88753e-05
5.06329e-05
0.000194499
0.000192736
0.00019435
0.000192787
0.000194467
0.000193674
0.0001935
0.000141608
0.000102622
0.000200882
0.000193399
0.000141644
0.000102601
0.000200868
2.38419e-05
2.38544e-05
0.000141237
0.000199629
0.000102214
0.000191735
0.000141295
0.000199322
0.00010252
7.7382e-05
7.73659e-05
0.000176386
7.73219e-05
7.73425e-05
9.93594e-05
5.06736e-05
9.8988e-05
5.07077e-05
2.38558e-05
2.38665e-05
9.97396e-05
5.06767e-05
9.9356e-05
5.07024e-05
0.000194087
0.000195072
0.000193865
0.000197473
0.000196068
0.000200313
0.000198252
0.000142349
0.000102563
0.000200338
0.000193129
0.000141701
0.000102955
0.000200814
2.3863e-05
2.38626e-05
0.000143389
0.000201602
0.000103416
0.000196552
0.000142406
0.000203334
0.000103867
7.76314e-05
7.76969e-05
0.000178114
7.79265e-05
7.79545e-05
0.000100448
5.07351e-05
0.000100103
5.07269e-05
2.38724e-05
2.38715e-05
0.00010016
5.07185e-05
0.000100064
5.07087e-05
0.000198066
0.000201772
0.000200161
0.000206161
0.00019976
0.000187651
0.00018675
0.000144151
0.000103619
0.000205322
0.000198632
0.000143626
0.000103865
0.000206989
2.38488e-05
2.3845e-05
0.000143867
0.000207231
0.000103804
0.000198944
0.000144126
0.000207554
0.000103243
7.81526e-05
7.81013e-05
0.00018119
7.8055e-05
7.79291e-05
9.91884e-05
5.06436e-05
9.95534e-05
5.06114e-05
2.38496e-05
2.38619e-05
5.05524e-05
0.00010185
2.38109e-05
7.71692e-05
7.71831e-05
2.38116e-05
5.0551e-05
0.000101853
0.00010189
0.000192449
0.000139885
5.05531e-05
9.85514e-05
0.000192686
0.000101967
0.000139919
5.05476e-05
9.85616e-05
2.38105e-05
7.71889e-05
7.71999e-05
2.38122e-05
0.000192231
0.000101881
0.000139799
0.000192507
0.00010195
0.000139839
5.05545e-05
9.85173e-05
5.05469e-05
9.85318e-05
7.72362e-05
7.72277e-05
2.3809e-05
2.38082e-05
2.38223e-05
2.38192e-05
0.000172956
7.73208e-05
7.73061e-05
2.38285e-05
2.38232e-05
2.38253e-05
2.38201e-05
0.000173208
7.74988e-05
7.74758e-05
7.73442e-05
7.7325e-05
9.86195e-05
5.05553e-05
9.84989e-05
5.0573e-05
0.000140041
0.000101852
0.000192407
0.000187342
0.000139733
0.000102051
0.000192985
0.000140029
0.000101837
0.000192449
0.000187269
0.000139736
0.000101992
0.000192974
9.86494e-05
5.05983e-05
5.05831e-05
9.88876e-05
9.86428e-05
5.05922e-05
5.05765e-05
9.88814e-05
0.000140096
0.000188014
0.000102402
0.000194653
0.000102069
0.000193727
0.000140627
0.000140082
0.000187896
0.000102351
0.000194622
0.000102013
0.000193688
0.000140612
7.71639e-05
7.71751e-05
0.000172899
7.72815e-05
7.72798e-05
2.38126e-05
2.382e-05
2.38252e-05
2.38199e-05
0.000173085
7.74611e-05
7.74743e-05
7.73083e-05
7.73055e-05
2.38267e-05
2.38209e-05
0.000140072
0.00019247
0.000187391
0.000139703
0.000102045
0.000193123
9.86388e-05
5.0554e-05
9.84817e-05
5.05708e-05
0.00014007
0.000192524
0.000101853
0.000187464
0.000139703
0.000193165
0.00010205
9.8664e-05
5.05928e-05
5.05783e-05
9.88851e-05
0.000140131
0.000188013
0.00010238
0.000194631
0.00010206
0.000193826
0.00014064
9.86551e-05
5.05885e-05
5.05739e-05
9.88816e-05
0.00014013
0.000188035
0.000194636
0.000102359
0.000193845
0.00010206
0.00014063
9.85785e-05
5.05558e-05
9.85466e-05
5.05727e-05
0.000140025
0.000193115
0.000101948
0.0001876
0.000139927
0.000193419
0.000101936
9.85708e-05
5.05494e-05
9.85549e-05
5.05626e-05
0.000140044
0.00018791
0.00010234
0.000194469
0.000101998
0.000193753
0.000140434
9.85909e-05
5.05927e-05
5.05763e-05
9.88016e-05
0.000140039
0.00018783
0.000194338
0.000102183
0.000193779
0.00010192
0.000140395
9.85809e-05
5.05856e-05
5.05662e-05
9.87818e-05
7.71895e-05
7.71983e-05
0.000173058
7.73084e-05
7.73197e-05
2.38131e-05
2.382e-05
2.38237e-05
2.38188e-05
0.000173272
7.74714e-05
7.74946e-05
7.73278e-05
7.73406e-05
2.3826e-05
2.38208e-05
0.000140037
0.000193036
0.000101931
0.000187621
0.000139859
0.000193441
0.000101932
9.86035e-05
5.05575e-05
9.85156e-05
5.05743e-05
9.85936e-05
5.05489e-05
9.85313e-05
5.05631e-05
0.000140086
0.000188058
0.000194548
0.000102376
0.000193883
0.000102063
0.000140519
0.000140066
0.000187852
0.000194381
0.000102193
0.000193844
0.000101921
0.000140472
9.86217e-05
5.05924e-05
5.05776e-05
9.8843e-05
9.86095e-05
5.0585e-05
5.05667e-05
9.88211e-05
2.38096e-05
2.3816e-05
2.38088e-05
2.38151e-05
0.000173086
7.73727e-05
7.73641e-05
7.72007e-05
7.71968e-05
2.38245e-05
2.38172e-05
2.38232e-05
2.38162e-05
2.38288e-05
2.38314e-05
2.38256e-05
2.38283e-05
7.7521e-05
7.74985e-05
0.000175408
7.75992e-05
7.75849e-05
2.38328e-05
2.38313e-05
2.38297e-05
2.38282e-05
0.000175729
7.7624e-05
7.7618e-05
7.76046e-05
7.75922e-05
9.90857e-05
5.05941e-05
9.89131e-05
5.06008e-05
0.000141296
0.000102439
0.000195712
0.000190546
0.000140723
0.000102655
0.000196801
0.000141286
0.000102394
0.00019571
0.000190518
0.000140709
0.000102593
0.000196806
9.90985e-05
5.06088e-05
5.06073e-05
9.91338e-05
9.90902e-05
5.06042e-05
5.06013e-05
9.91244e-05
0.000141355
0.000191366
0.000102727
0.00019869
0.000102665
0.000197819
0.000141598
0.000141345
0.000191211
0.000102637
0.000198563
0.000102598
0.000197779
0.000141586
7.7484e-05
7.7501e-05
0.000175299
7.75384e-05
7.75722e-05
2.38271e-05
2.38301e-05
2.38306e-05
2.38283e-05
0.000175576
7.75241e-05
7.75692e-05
7.7536e-05
7.75733e-05
2.38324e-05
2.38301e-05
0.000141273
0.000102414
0.000195572
0.000190507
0.000140725
0.000102641
0.000196655
9.90764e-05
5.05902e-05
9.89059e-05
5.0596e-05
0.00014126
0.000195578
0.000102395
0.00019052
0.000140717
0.000196675
0.000102609
9.90913e-05
5.06018e-05
5.06009e-05
9.91393e-05
0.000141336
0.000191402
0.000102728
0.000198868
0.000102655
0.000197798
0.000141592
9.90813e-05
5.05961e-05
5.0596e-05
9.91303e-05
0.000141324
0.00019139
0.000198864
0.000102674
0.000197819
0.000102618
0.000141571
9.90582e-05
5.05947e-05
9.88385e-05
5.0602e-05
0.000141126
0.000195139
0.000102223
0.00018978
0.000140487
0.000196115
0.00010254
9.90477e-05
5.05886e-05
9.88191e-05
5.06001e-05
0.000141242
0.000191132
0.000102666
0.000198253
0.000102621
0.000197399
0.000141584
9.90709e-05
5.06057e-05
5.06026e-05
9.91205e-05
0.000141214
0.000190689
0.000198143
0.000102695
0.000197151
0.00010257
0.000141587
9.90621e-05
5.0605e-05
5.06011e-05
9.91178e-05
7.74956e-05
7.75209e-05
0.000175348
7.75678e-05
7.75978e-05
2.38262e-05
2.38286e-05
2.38273e-05
2.38261e-05
0.000175661
7.75554e-05
7.7589e-05
7.75711e-05
7.76026e-05
2.38295e-05
2.38284e-05
0.000141171
0.000195137
0.000102234
0.000189809
0.000140561
0.000196116
0.000102545
9.90701e-05
5.05941e-05
9.88766e-05
5.05994e-05
9.90581e-05
5.05877e-05
9.88545e-05
5.05977e-05
0.00014128
0.000191361
0.000198628
0.000102702
0.00019756
0.000102647
0.000141559
0.000141256
0.000190777
0.000198389
0.000102688
0.000197246
0.000102574
0.00014157
9.90794e-05
5.05991e-05
5.05993e-05
9.91293e-05
9.90693e-05
5.06011e-05
5.05985e-05
9.91206e-05
2.38252e-05
2.38296e-05
2.38239e-05
2.38282e-05
0.000175198
7.75883e-05
7.75769e-05
7.75485e-05
7.75402e-05
2.3832e-05
2.38298e-05
2.38305e-05
2.38283e-05
2.38325e-05
2.38337e-05
2.38293e-05
2.38307e-05
7.7607e-05
7.75971e-05
0.000176775
7.75443e-05
7.75093e-05
2.38372e-05
2.38335e-05
2.38356e-05
2.38307e-05
0.000176711
7.73762e-05
7.73408e-05
7.7493e-05
7.74534e-05
9.91166e-05
5.06045e-05
9.91187e-05
5.06078e-05
0.000141669
0.000102719
0.000199382
0.000192969
0.000141594
0.00010271
0.000199921
0.000141659
0.000102625
0.000199172
0.000192493
0.000141582
0.000102639
0.000199683
9.90932e-05
5.0612e-05
5.06084e-05
9.90443e-05
9.90863e-05
5.06137e-05
5.06085e-05
9.90506e-05
0.00014165
0.000193076
0.000102506
0.000200546
0.000102636
0.000200324
0.000141632
0.000141638
0.000192874
0.000102631
0.000200546
0.000102622
0.000200155
0.000141649
7.75112e-05
7.75515e-05
0.000176519
7.75058e-05
7.75366e-05
2.38325e-05
2.38356e-05
2.38378e-05
2.3834e-05
0.000176552
7.74973e-05
7.75177e-05
7.74999e-05
7.75272e-05
2.38395e-05
2.38358e-05
0.000141656
0.000102722
0.000199701
0.000193003
0.000141594
0.000102691
0.000200197
9.90698e-05
5.05953e-05
9.91247e-05
5.05956e-05
0.000141623
0.000199635
0.000102638
0.00019262
0.000141575
0.000200044
0.000102506
9.90242e-05
5.06071e-05
5.06003e-05
9.89098e-05
0.000141596
0.000193034
0.000102422
0.000200202
0.000102585
0.000200335
0.000141418
9.89906e-05
5.06122e-05
5.05968e-05
9.8889e-05
0.000141555
0.000192529
0.000199894
0.000102283
0.000200092
0.000102403
0.000141377
9.91212e-05
5.06062e-05
9.91163e-05
5.06104e-05
0.000141688
0.000199027
0.00010269
0.000192892
0.000141598
0.000199784
0.000102717
9.91225e-05
5.06052e-05
9.91146e-05
5.06065e-05
0.000141662
0.000192919
0.000102644
0.000200644
0.000102644
0.000200191
0.000141684
9.90941e-05
5.06184e-05
5.06113e-05
9.90573e-05
0.000141672
0.000193206
0.000200733
0.000102572
0.000200376
0.000102669
0.000141681
9.90951e-05
5.06113e-05
5.06066e-05
9.90505e-05
7.74987e-05
7.75303e-05
0.000176412
7.7362e-05
7.73848e-05
2.38292e-05
2.38321e-05
2.38397e-05
2.38308e-05
0.000176257
7.72339e-05
7.7248e-05
7.73134e-05
7.73335e-05
2.38419e-05
2.38329e-05
0.000141636
0.000199374
0.000102683
0.000192954
0.000141572
0.000200053
0.000102699
9.90635e-05
5.05983e-05
9.91262e-05
5.05993e-05
9.90779e-05
5.06011e-05
9.91212e-05
5.06018e-05
0.000141547
0.000192545
0.000199921
0.00010228
0.000200081
0.000102408
0.000141387
0.000141593
0.000193162
0.000200333
0.000102501
0.000200359
0.000102631
0.000141454
9.89925e-05
5.06186e-05
5.0601e-05
9.88952e-05
9.90158e-05
5.06089e-05
5.06021e-05
9.89197e-05
2.38319e-05
2.38336e-05
2.38305e-05
2.38323e-05
0.000176749
7.74169e-05
7.73941e-05
7.75134e-05
7.74878e-05
2.38371e-05
2.38335e-05
2.38371e-05
2.38325e-05
2.3838e-05
2.38468e-05
2.38367e-05
2.38463e-05
7.73341e-05
7.73106e-05
0.000175972
7.7264e-05
7.72858e-05
2.38618e-05
2.38488e-05
2.38598e-05
2.38482e-05
0.000175683
7.74355e-05
7.75158e-05
7.7239e-05
7.72903e-05
9.89891e-05
5.06149e-05
9.90223e-05
5.0624e-05
0.000141513
0.000102424
0.000200544
0.0001926
0.000141576
0.000102331
0.000200348
0.000141571
0.000102607
0.000200754
0.000193341
0.000141609
0.000102579
0.000200724
9.89445e-05
5.06653e-05
5.06344e-05
9.89727e-05
9.89681e-05
5.0648e-05
5.06267e-05
9.89799e-05
0.000141455
0.000192281
0.00010246
0.000199709
0.000102277
0.000200046
0.000141442
0.000141518
0.000193213
0.000102495
0.00020021
0.000102541
0.000200509
0.000141487
7.74829e-05
7.75045e-05
0.000176891
7.74441e-05
7.74642e-05
2.384e-05
2.38449e-05
2.3854e-05
2.38446e-05
0.000176745
7.74161e-05
7.74369e-05
7.74217e-05
7.74431e-05
2.38541e-05
2.38459e-05
0.000141197
0.000102353
0.000199912
0.000192379
0.000141306
0.000102279
0.000199552
9.89067e-05
5.06177e-05
9.88546e-05
5.06492e-05
0.000141208
0.000199578
0.000102222
0.000191725
0.000141276
0.000199253
0.00010251
9.89288e-05
5.06701e-05
5.0639e-05
9.92981e-05
0.000141216
0.000192034
0.00010263
0.000199252
0.000102253
0.000199218
0.000141885
9.89444e-05
5.068e-05
5.06565e-05
9.93621e-05
0.000141254
0.000191812
0.00019985
0.000103223
0.000199146
0.000102597
0.000142042
9.90008e-05
5.06201e-05
9.90324e-05
5.06316e-05
0.000141575
0.000200811
0.000102501
0.000193009
0.000141635
0.000200665
0.000102422
9.89808e-05
5.06132e-05
9.90215e-05
5.06292e-05
0.000141573
0.000193276
0.000102574
0.000200441
0.000102572
0.000200675
0.000141664
9.89912e-05
5.06554e-05
5.06348e-05
9.91006e-05
0.000141533
0.000192741
0.000200189
0.000102646
0.000200416
0.000102373
0.000141639
9.89719e-05
5.06628e-05
5.06342e-05
9.9101e-05
7.7218e-05
7.72254e-05
0.000175597
7.75185e-05
7.75259e-05
2.3844e-05
2.38564e-05
2.3863e-05
2.3856e-05
0.000175816
7.79748e-05
7.79927e-05
7.76134e-05
7.76137e-05
2.38644e-05
2.3858e-05
0.000141253
0.000200104
0.000102439
0.000192749
0.000141359
0.000199793
0.000102368
9.89278e-05
5.06251e-05
9.8862e-05
5.06584e-05
9.89121e-05
5.06119e-05
9.88855e-05
5.06348e-05
0.000141293
0.00019185
0.000200086
0.000103275
0.000199257
0.000102614
0.000142183
0.00014128
0.000192452
0.000199727
0.000102784
0.000199533
0.000102351
0.00014205
9.89813e-05
5.06893e-05
5.06664e-05
9.94419e-05
9.8956e-05
5.06705e-05
5.06416e-05
9.9392e-05
2.3838e-05
2.38463e-05
2.38381e-05
2.38473e-05
0.000176138
7.75618e-05
7.7632e-05
7.73176e-05
7.73772e-05
2.38591e-05
2.38481e-05
2.38589e-05
2.38491e-05
2.3864e-05
2.38755e-05
2.38615e-05
2.38711e-05
7.74874e-05
7.755e-05
0.000177462
7.78361e-05
7.78492e-05
2.38811e-05
2.38768e-05
2.38759e-05
2.38721e-05
0.000178272
7.83144e-05
7.82399e-05
7.79348e-05
7.79148e-05
9.93414e-05
5.0655e-05
9.89924e-05
5.06878e-05
0.000142101
0.000102501
0.000199528
0.000192995
0.000141455
0.000103093
0.000200099
0.000142038
0.000102473
0.000199945
0.000192837
0.000141485
0.000102873
0.000200092
9.94543e-05
5.0734e-05
5.07153e-05
9.99907e-05
9.9435e-05
5.07154e-05
5.06952e-05
9.9955e-05
0.000142322
0.000194844
0.000103902
0.000203771
0.00010322
0.000201671
0.000143547
0.000142245
0.000193928
0.000103554
0.000203237
0.000102966
0.00020134
0.000143441
7.74375e-05
7.74506e-05
0.000176995
7.76878e-05
7.76808e-05
2.38557e-05
2.38651e-05
2.38727e-05
2.38677e-05
0.000177414
7.80504e-05
7.80018e-05
7.77599e-05
7.77389e-05
2.38714e-05
2.38663e-05
0.000143012
0.000102682
0.000200244
0.000193754
0.000142049
0.000103236
0.000201758
9.97951e-05
5.06833e-05
9.94247e-05
5.06878e-05
0.00014317
0.000201199
0.000103352
0.000196327
0.000142224
0.000202803
0.000103794
9.97922e-05
5.07184e-05
5.07071e-05
0.000100039
0.000143186
0.000195524
0.00010387
0.000205431
0.00010333
0.000203559
0.000143924
9.98468e-05
5.06702e-05
5.06859e-05
0.000100034
0.00014334
0.000197594
0.000206053
0.000104011
0.000204498
0.000103848
0.000143956
9.94814e-05
5.0661e-05
9.91291e-05
5.06863e-05
0.000142419
0.000200262
0.000102705
0.000193996
0.00014169
0.000201092
0.000103246
9.95145e-05
5.06693e-05
9.91357e-05
5.06913e-05
0.000142528
0.000194262
0.000103534
0.000203541
0.000103034
0.000201957
0.00014346
9.95492e-05
5.07046e-05
5.06912e-05
9.98954e-05
0.000142605
0.000195466
0.000204087
0.000103726
0.000202426
0.00010335
0.000143525
9.95851e-05
5.06995e-05
5.06945e-05
9.99209e-05
7.80649e-05
7.80809e-05
0.000180069
7.82598e-05
7.82765e-05
2.38642e-05
2.38628e-05
2.38528e-05
2.38601e-05
0.000180596
7.81743e-05
7.81233e-05
7.82878e-05
7.83062e-05
2.38519e-05
2.38595e-05
0.000143234
0.000200954
0.000102866
0.000194659
0.000142254
0.00020257
0.000103382
9.99053e-05
5.06921e-05
9.95297e-05
5.06928e-05
9.98549e-05
5.06763e-05
9.94759e-05
5.06913e-05
0.000143561
0.00019776
0.000206385
0.000104054
0.000205022
0.00010392
0.000144045
0.000143412
0.000196158
0.00020583
0.00010372
0.000204286
0.000103469
0.00014393
9.9958e-05
5.06617e-05
5.06868e-05
0.00010011
9.99099e-05
5.06902e-05
5.06923e-05
0.000100069
2.38606e-05
2.38675e-05
2.38601e-05
2.3865e-05
0.000178804
7.81375e-05
7.80977e-05
7.79944e-05
7.80029e-05
2.38688e-05
2.38677e-05
2.38651e-05
2.38649e-05
2.38805e-05
2.38754e-05
2.38754e-05
2.38711e-05
7.84074e-05
7.8317e-05
0.000182528
7.86252e-05
7.85256e-05
2.38564e-05
2.38699e-05
2.38534e-05
2.38661e-05
0.000182889
7.83997e-05
7.83556e-05
7.86719e-05
7.8568e-05
0.000100388
5.07172e-05
0.000100061
5.07158e-05
0.000144806
0.000104049
0.000206065
0.000200004
0.000143844
0.000104494
0.000208095
0.00014467
0.000103667
0.000205418
0.000198786
0.000143727
0.000103993
0.000207462
0.0001005
5.06721e-05
5.07135e-05
0.000100475
0.00010044
5.06873e-05
5.07091e-05
0.000100421
0.000144978
0.000200818
0.000149388
0.000210243
0.000104558
0.000209482
0.000172869
0.000144832
0.000199785
0.000161544
0.000209839
0.000104019
0.000208985
0.000172187
7.81064e-05
7.80539e-05
0.000181198
7.8221e-05
7.81634e-05
2.38713e-05
2.38716e-05
2.38642e-05
2.3869e-05
0.000181533
7.80762e-05
7.80727e-05
7.82245e-05
7.8173e-05
2.38679e-05
2.38704e-05
0.000144387
0.000103974
0.000207093
0.000199951
0.000144025
0.000104327
0.00020829
0.000100055
5.06598e-05
0.000100056