/*--------------------------------*- C++ -*----------------------------------*\
| =========                 |                                                 |
| \\      /  F ield         | OpenFOAM: The Open Source CFD Toolbox           |
|  \\    /   O peration     | Version:  v2006                                 |
|   \\  /    A nd           | Website:  www.openfoam.com                      |
|    \\/     M anipulation  |                                                 |
\*---------------------------------------------------------------------------*/
FoamFile
{
    version     2.0;
    format      ascii;
    class       volScalarField;
    location    "750";
    object      p;
}
// * * * * * * * * * * * * * * * * * * * * * * * * * * * * * * * * * * * * * //

dimensions      [0 2 -2 0 0 0 0];


internalField   nonuniform List<scalar> 
14404
(
0.000748982
0.00074911
0.000751056
0.000749117
0.000751325
0.000751198
0.000751333
0.00075139
0.000749214
0.000751284
0.000751322
0.000751316
0.000751269
0.000751292
0.000751287
0.000751359
0.000751367
0.0007514
0.00075137
0.000751384
0.00075128
0.000751302
0.00075128
0.000746961
0.000751226
0.000751304
0.000746926
0.000746908
0.00075127
0.00074697
0.000751311
0.000751304
0.000751302
0.000746961
0.000746965
0.000746936
0.000747008
0.000751212
0.000751124
0.000747078
0.00074696
0.00075115
0.000747054
0.000749208
0.000746928
0.000751194
0.000746935
0.000746918
0.000746918
0.00075126
0.000751288
0.000751232
0.000751289
0.000751299
0.000751258
0.000738379
0.000738312
0.000738238
0.000738261
0.000738213
0.000738759
0.000738269
0.000738233
0.000738482
0.000740727
0.00073839
0.000740655
0.000740704
0.000738329
0.000742708
0.000742717
0.000738345
0.000738364
0.000742708
0.000742712
0.000738341
0.000742675
0.0007383
0.000742691
0.000742678
0.000738307
0.000742624
0.000746973
0.000742648
0.000742605
0.000742661
0.000738224
0.000738213
0.000742622
0.000742613
0.000738257
0.000742729
0.000738256
0.000742662
0.000738438
0.00074265
0.000738364
0.000742787
0.000742718
0.000738234
0.000742632
0.000738415
0.000742629
0.000738355
0.00074277
0.000747
0.000746969
0.000746992
0.000746996
0.000747029
0.000747008
0.000747009
0.000746955
0.000746963
0.000746947
0.000746958
0.000746949
0.000746962
0.000746959
0.000742686
0.000742725
0.00073861
0.000738586
0.000738502
0.000742789
0.00074277
0.000742722
0.000742694
0.00073848
0.000738567
0.000742709
0.000742689
0.000738605
0.000742757
0.000738452
0.000742697
0.000738535
0.000742712
0.000742833
0.000738581
0.000742645
0.000738485
0.000742795
0.000747049
0.000746995
0.000747037
0.000746977
0.000747107
0.000747091
0.00074713
0.000747061
0.00103955
0.0010416
0.00104159
0.00103476
0.00103276
0.00104169
0.00103491
0.00103936
0.00105258
0.00103936
0.00105259
0.00105243
0.00103935
0.00103935
0.00105258
0.00105259
0.00105257
0.00103935
0.00105258
0.00103935
0.00105257
0.00105258
0.00103935
0.00105252
0.00105043
0.00103938
0.00104162
0.00105254
0.00105046
0.00103941
0.00105252
0.00105042
0.00104161
0.00105254
0.00105045
0.00103941
0.00105258
0.00105242
0.00105257
0.00105257
0.00105257
0.00105258
0.00103935
0.00105258
0.00103935
0.00105253
0.00105043
0.00103938
0.00104162
0.00105255
0.00105046
0.00103941
0.00105258
0.00105258
0.00103935
0.00105253
0.00105043
0.00104163
0.00105047
0.00105254
0.00103941
0.0010525
0.00105041
0.00105253
0.00105044
0.00105255
0.00105256
0.0010525
0.00105039
0.00105043
0.00105251
0.00105255
0.00105256
0.00105258
0.00105243
0.00105258
0.00105257
0.00105258
0.00105251
0.00105042
0.00105045
0.00105253
0.00105251
0.00105039
0.00105044
0.00105252
0.00105256
0.00105257
0.00105256
0.00105256
0.0010524
0.00105255
0.00105256
0.00105256
0.00105256
0.00103491
0.00103491
0.00103491
0.00103491
0.00103487
0.00106143
0.00105702
0.00106142
0.00105704
0.00103052
0.00103491
0.00103051
0.00103491
0.00103051
0.00104375
0.00104819
0.00104375
0.0010482
0.00104819
0.00105259
0.00105259
0.00105259
0.0010482
0.0010482
0.00104374
0.00103936
0.00104375
0.00103936
0.00104375
0.00104374
0.00103937
0.00104374
0.00103936
0.00104375
0.00103935
0.00104375
0.00104375
0.00103936
0.0010482
0.00105258
0.00105257
0.00104818
0.00105257
0.00104819
0.00104819
0.00104821
0.00105259
0.00105259
0.00104819
0.00105258
0.00104819
0.00104821
0.00104375
0.00103936
0.00103936
0.00104375
0.00104375
0.00103935
0.00104818
0.00105258
0.00105257
0.00104818
0.00105258
0.00104818
0.00104818
0.00104375
0.00104375
0.00103935
0.00103936
0.00104374
0.0010482
0.00105258
0.00104819
0.00105258
0.00104818
0.00104375
0.00104374
0.00103935
0.00103935
0.00103935
0.00104375
0.00104374
0.00104818
0.00105258
0.00105257
0.00104818
0.00105258
0.00104818
0.00104818
0.00104819
0.00105257
0.00104819
0.00105258
0.00104818
0.00104375
0.00104374
0.00103935
0.00103935
0.00104375
0.00104374
0.00103935
0.00104819
0.00104818
0.00105258
0.00105258
0.00105258
0.00104819
0.00104819
0.00104819
0.00105258
0.00105256
0.00104818
0.00104819
0.00105256
0.00104819
0.00104819
0.00105257
0.00105256
0.00104817
0.00105256
0.00104818
0.00104818
0.00104818
0.00104818
0.00105258
0.00105259
0.00104819
0.00105259
0.00104819
0.00104818
0.00104375
0.00104375
0.00103935
0.00103936
0.00104375
0.0010482
0.00105258
0.00104819
0.00105259
0.00104819
0.00104375
0.00104374
0.00103935
0.00103935
0.00103935
0.00104374
0.00104375
0.00104818
0.00105259
0.00105258
0.00104819
0.00105259
0.00104818
0.00104819
0.00104819
0.00105258
0.00104819
0.00105258
0.00104818
0.00104375
0.00104374
0.00103934
0.00103935
0.00104375
0.00104374
0.00103935
0.00104817
0.00105255
0.00105256
0.00104816
0.00105256
0.00104816
0.00104816
0.00104818
0.00105256
0.00104817
0.00105256
0.00104817
0.00104816
0.00105256
0.00105255
0.00104816
0.00105256
0.00104816
0.00104816
0.00104818
0.00105255
0.00104817
0.00105256
0.00104816
0.00104819
0.00104817
0.00105258
0.00105258
0.00105258
0.00104819
0.00104818
0.00104819
0.00105258
0.00105257
0.00104817
0.00104819
0.00105257
0.00104818
0.00104819
0.00105258
0.00105257
0.00104817
0.00105257
0.00104818
0.00104818
0.00104818
0.00104817
0.00105256
0.00105257
0.00104817
0.00105257
0.00104817
0.00104817
0.00104818
0.00105257
0.00104818
0.00105257
0.00104817
0.00104817
0.00105255
0.00105257
0.00104817
0.00105256
0.00104817
0.00104817
0.00104818
0.00105256
0.00104817
0.00105256
0.00104817
0.00104816
0.00105257
0.00105257
0.00105256
0.00104818
0.00104818
0.00104817
0.00105256
0.00105254
0.00104816
0.00105254
0.00104816
0.00104817
0.00104817
0.00105256
0.00105254
0.00104816
0.00105254
0.00104816
0.00104817
0.00104818
0.00104818
0.00103052
0.00103051
0.00103053
0.00103491
0.00103491
0.00103051
0.00103491
0.00103051
0.00103053
0.00103052
0.00103491
0.00103491
0.00103051
0.0010349
0.00103051
0.00103052
0.00103051
0.00103491
0.00103491
0.00103492
0.00103051
0.00103051
0.00104365
0.0010436
0.00103945
0.00103947
0.00104367
0.0010437
0.00103945
0.00103061
0.00103485
0.00103485
0.00103071
0.00103482
0.00103062
0.00103062
0.00105052
0.00104171
0.00104172
0.00105055
0.00105056
0.00105058
0.00104174
0.00105051
0.0010417
0.00105055
0.00105055
0.00105058
0.00104174
0.00105053
0.00104172
0.00105056
0.00105056
0.00105058
0.00104174
0.0010505
0.00105055
0.00105055
0.00105059
0.00104174
0.00104829
0.00104839
0.0010525
0.00105253
0.00105249
0.00104828
0.00104831
0.0010483
0.00105253
0.00105252
0.00104825
0.00105251
0.00104824
0.0010483
0.00104369
0.00103939
0.00104371
0.0010394
0.00104373
0.0010437
0.00103944
0.00104828
0.00105253
0.00105256
0.00104822
0.00104822
0.00105252
0.00104823
0.00104367
0.00104369
0.00103941
0.00103946
0.00104369
0.00104369
0.00103947
0.0010483
0.00105252
0.00105252
0.00104824
0.00105251
0.00104824
0.0010483
0.00104827
0.00105253
0.00105256
0.00104821
0.00105252
0.00104823
0.00104822
0.00104367
0.00104369
0.00103941
0.00103946
0.00104369
0.00104368
0.00103947
0.00104827
0.00104837
0.0010525
0.0010525
0.00104828
0.00105247
0.00104827
0.00106136
0.00105708
0.00106138
0.00105712
0.00104831
0.00105253
0.00105253
0.00104825
0.00105251
0.00104825
0.0010483
0.00104369
0.00103939
0.00104371
0.0010394
0.00104374
0.0010437
0.00103945
0.00104829
0.00105254
0.00105258
0.00104822
0.00104824
0.00105253
0.00104824
0.00104368
0.00104369
0.00103941
0.00103947
0.00104369
0.00104369
0.00103947
0.0010483
0.00105253
0.00105253
0.00104825
0.00105251
0.0010483
0.00104825
0.00104828
0.00105253
0.00105257
0.00104821
0.00105252
0.00104823
0.00104822
0.00104367
0.00104369
0.00103946
0.00103941
0.00104369
0.00104369
0.00103947
0.00104828
0.0010525
0.00105251
0.00104822
0.00105249
0.00104822
0.00104828
0.00104826
0.00105251
0.00105255
0.0010482
0.00105251
0.0010482
0.00104821
0.00104827
0.0010525
0.0010525
0.00104822
0.00105248
0.00104827
0.00104821
0.00104824
0.0010525
0.00105253
0.00104819
0.00105249
0.0010482
0.00104819
0.00104828
0.00104838
0.00105251
0.00105251
0.00104828
0.00105248
0.00104828
0.00104829
0.00105251
0.00105251
0.00104823
0.0010525
0.00104828
0.00104823
0.00104827
0.00105252
0.00105256
0.0010482
0.00105252
0.00104821
0.00104822
0.00104828
0.00105251
0.0010525
0.00104823
0.00105249
0.00104828
0.00104822
0.00104825
0.00105251
0.00105254
0.00104819
0.00105249
0.00104821
0.00104819
0.00104825
0.00104835
0.00105248
0.00105248
0.00105245
0.00104825
0.00104825
0.00103061
0.0010349
0.00103486
0.00103054
0.00103056
0.00103485
0.00103055
0.00105703
0.00105703
0.00105927
0.00105704
0.00105709
0.0010593
0.00105703
0.00105703
0.00105709
0.00105927
0.00105931
0.00105705
0.00105722
0.00105702
0.00105701
0.00105702
0.00105702
0.00106143
0.00106142
0.00105703
0.00105702
0.00106142
0.00106143
0.00105702
0.00106142
0.00106143
0.00106142
0.00105702
0.00105703
0.00106143
0.00106142
0.00105703
0.00106142
0.00106142
0.00105702
0.00106142
0.00105703
0.00106142
0.00105703
0.00105703
0.00106143
0.00106142
0.00105702
0.00106141
0.00106142
0.00105702
0.00105703
0.00106142
0.00106142
0.00105703
0.00106141
0.00106142
0.00105702
0.00105703
0.00106141
0.00106142
0.00105703
0.00106142
0.00106141
0.00105939
0.00105937
0.00105939
0.00106138
0.00105705
0.00106141
0.00106135
0.00106137
0.00105709
0.00105714
0.00106137
0.00106137
0.00105714
0.00106135
0.00106137
0.00105714
0.00105709
0.00106137
0.00106137
0.00105714
0.00106137
0.00106139
0.00105707
0.00105706
0.00106138
0.00105712
0.00106141
0.00106133
0.00106127
0.00105713
0.00105713
0.00106136
0.00106136
0.00105712
0.00103286
0.00103274
0.00103274
0.00103473
0.000997528
0.000997403
0.000997399
0.000999421
0.000962028
0.000961954
0.000961921
0.000963933
0.000926555
0.000926481
0.000926577
0.000928529
0.000891359
0.000891223
0.000891186
0.00089323
0.000855898
0.000855764
0.000855591
0.000857664
0.00104158
0.00103953
0.00104159
0.00104157
0.00104155
0.00103954
0.00104158
0.00104155
0.00103951
0.00100419
0.00103276
0.00103275
0.00100625
0.00100625
0.00103475
0.00100419
0.00103275
0.00100625
0.00100624
0.00103272
0.00100625
0.00100627
0.00103475
0.00100419
0.00103272
0.00100625
0.00100627
0.00100421
0.000999388
0.000968731
0.000997394
0.000997391
0.00097079
0.000970811
0.000999394
0.00096876
0.000997393
0.000997391
0.000970779
0.000970781
0.000997431
0.000970817
0.000970814
0.00099939
0.000968733
0.00099743
0.000970787
0.000970804
0.000968745
0.000963925
0.000933334
0.000961924
0.000961953
0.000935348
0.000935346
0.000963953
0.000933312
0.000961911
0.000961918
0.000935363
0.000935402
0.000961932
0.00093534
0.000935331
0.000963928
0.00093338
0.000961921
0.000935396
0.000935346
0.000933317
0.000928545
0.000898061
0.000926511
0.000926486
0.000900084
0.000900019
0.000928509
0.000898005
0.00092654
0.00092658
0.000900094
0.000900076
0.000926493
0.000900018
0.000900064
0.000928596
0.000898008
0.000926522
0.000900075
0.000900074
0.000898033
0.000893264
0.000862547
0.000891279
0.000891229
0.000864665
0.000864704
0.000893232
0.000862593
0.000891258
0.000891193
0.000864612
0.000864506
0.000891243
0.000864685
0.000864592
0.000893186
0.000862423
0.000891222
0.000864486
0.000864537
0.000862488
0.000857707
0.000826832
0.000855727
0.000855778
0.000828886
0.00082894
0.000857749
0.000826905
0.000855693
0.000855611
0.000828913
0.000828998
0.000855682
0.000828986
0.00082903
0.00085759
0.000826996
0.000855645
0.000829043
0.000829066
0.000827011
0.000821965
0.000791299
0.000819972
0.00082014
0.000793308
0.00079348
0.000822194
0.00104166
0.00104168
0.00104164
0.00102168
0.00103491
0.00103491
0.00102167
0.00103491
0.00102167
0.00102167
0.0010349
0.00102167
0.00103283
0.00103284
0.0010328
0.00100637
0.00100637
0.00100636
0.00100636
0.00102174
0.00103487
0.00103276
0.00102391
0.00103484
0.00102171
0.00102394
0.0010349
0.00102166
0.00102174
0.00103276
0.00103486
0.00102391
0.00103484
0.00102394
0.00102169
0.00103491
0.00103491
0.00102186
0.00102169
0.00102169
0.000986275
0.000999518
0.000999517
0.000986276
0.00099952
0.000986288
0.000986272
0.000999523
0.000999522
0.000986274
0.000997527
0.000997525
0.00099754
0.000970916
0.000970923
0.000970911
0.000970952
0.000986354
0.000999496
0.000997454
0.000988543
0.000999502
0.000986313
0.000988596
0.000999522
0.000986278
0.000986349
0.000997449
0.000999494
0.000988535
0.000999498
0.000988592
0.000986305
0.000999542
0.000999542
0.0009865
0.000986277
0.000986275
0.000950882
0.000964133
0.000964131
0.000950887
0.000964151
0.000950887
0.000950886
0.000964126
0.000964115
0.000950897
0.000962056
0.000962021
0.000962059
0.000935403
0.000935428
0.000935432
0.000935398
0.000950919
0.000964105
0.000961984
0.000953085
0.000964073
0.000950899
0.000953113
0.000964146
0.000950923
0.000950918
0.000961954
0.000964091
0.000953065
0.000964059
0.000953084
0.000950921
0.000964116
0.000964111
0.000951011
0.000950855
0.000950856
0.000915503
0.000928758
0.000928728
0.00091553
0.000928715
0.00091549
0.000915539
0.000928789
0.000928783
0.000915541
0.000926547
0.000926605
0.000926545
0.000900127
0.000900043
0.000900197
0.000900121
0.000915525
0.000928663
0.000926505
0.000917641
0.000928642
0.000915492
0.000917663
0.000928788
0.000915484
0.000915593
0.000926573
0.00092875
0.000917767
0.000928705
0.000917766
0.000915531
0.000928741
0.000928755
0.000915677
0.000915508
0.00091552
0.000880101
0.000893367
0.000893383
0.000880061
0.000893385
0.000880101
0.000880021
0.000893316
0.000893304
0.000880018
0.000891268
0.000891343
0.000891333
0.000864836
0.000864868
0.00086463
0.000864735
0.000880178
0.000893342
0.000891251
0.000882417
0.000893324
0.000880136
0.000882447
0.000893246
0.000879994
0.000880069
0.000891255
0.000893219
0.000882282
0.00089326
0.00088235
0.000880011
0.000893321
0.000893303
0.000880283
0.000880021
0.000880002
0.000844515
0.000857808
0.000857828
0.0008445
0.000857854
0.000844552
0.000844557
0.000857815
0.000857825
0.00084453
0.000855958
0.000855725
0.000855814
0.00082898
0.000829127
0.000829216
0.000829269
0.000844627
0.00085784
0.000855796
0.000846827
0.000857824
0.000844598
0.000846867
0.000857904
0.000844681
0.000844619
0.000855623
0.000857813
0.000846719
0.000857748
0.000846742
0.000844668
0.000857848
0.000857841
0.000844722
0.000844596
0.000844608
0.0008091
0.000822376
0.000822381
0.000809119
0.000822478
0.000809123
0.00103936
0.00103938
0.00103936
0.00103935
0.00103934
0.00103935
0.00103935
0.00103937
0.00103937
0.00104159
0.00103939
0.00103935
0.00103934
0.00104158
0.00103936
0.00103939
0.00103935
0.00103934
0.00103935
0.00103934
0.00103933
0.00103934
0.0010416
0.00103936
0.00103939
0.00104159
0.00103936
0.00103939
0.00103934
0.00103934
0.00103934
0.00103934
0.00103934
0.00103934
0.00103935
0.00103935
0.00102167
0.00102167
0.00102188
0.00102166
0.00102166
0.00100397
0.00101721
0.00100397
0.00101722
0.00101709
0.00100396
0.00100396
0.00101721
0.00101722
0.00102168
0.00103491
0.00103491
0.00102167
0.00102174
0.00103488
0.00103279
0.00102393
0.00103486
0.0010217
0.00102396
0.00102174
0.00103488
0.00103278
0.00102392
0.00103486
0.0010217
0.00102396
0.00101722
0.00100397
0.00101722
0.00100397
0.00101722
0.00100396
0.00101722
0.00100397
0.00101718
0.00101509
0.001004
0.00100629
0.00101719
0.00101513
0.00100405
0.00101718
0.00101509
0.001004
0.00100629
0.00101719
0.00101513
0.00100405
0.00103491
0.00103491
0.00102187
0.00102166
0.00102167
0.00103491
0.00102167
0.00100397
0.00101722
0.00101708
0.00100396
0.00100396
0.00101722
0.00101722
0.00100397
0.00101722
0.00102174
0.00103279
0.00102392
0.00103485
0.0010217
0.00102396
0.00102167
0.0010349
0.0010349
0.00102166
0.00102174
0.00103279
0.00103487
0.00102391
0.00103485
0.00102396
0.00102169
0.00101722
0.00100397
0.00101722
0.00100398
0.00101718
0.00101509
0.001004
0.00100629
0.00101719
0.00101512
0.00100405
0.00101722
0.00100397
0.00101722
0.00100398
0.00101718
0.00101508
0.00100629
0.001004
0.00101512
0.00101719
0.00100405
0.00102169
0.00103491
0.0010349
0.00102168
0.00102174
0.00103275
0.00103487
0.0010239
0.00103484
0.00102393
0.00102172
0.00102169
0.00103491
0.0010349
0.00102169
0.00101719
0.00101509
0.00100401
0.00100629
0.0010172
0.00101512
0.00100407
0.00101724
0.00100398
0.00101723
0.00100399
0.00101719
0.00101509
0.0010063
0.00100403
0.00101511
0.00101721
0.00100407
0.00101724
0.00100399
0.00101725
0.001004
0.0010349
0.0010349
0.00102187
0.00102166
0.00102166
0.0010349
0.00102166
0.00100397
0.00101722
0.00101708
0.00100396
0.00100396
0.00101721
0.00101721
0.00100397
0.00101722
0.00102174
0.00103275
0.00103487
0.0010239
0.00103484
0.00102393
0.00102171
0.00102168
0.0010349
0.00103489
0.00102167
0.00102168
0.00103491
0.00103489
0.00102169
0.00101718
0.00101508
0.00100629
0.00100401
0.00101511
0.00101719
0.00100406
0.00101719
0.00101508
0.00100629
0.00100403
0.00101511
0.00101721
0.00100407
0.00101723
0.00100398
0.00101722
0.00100399
0.00101723
0.00100399
0.00101724
0.00100399
0.00103492
0.0010217
0.00103492
0.00102169
0.00101708
0.00100399
0.00100399
0.00101725
0.00101725
0.001004
0.00101725
0.001004
0.00101725
0.000999518
0.000986276
0.00099952
0.000986272
0.000999515
0.000999517
0.000986463
0.000986263
0.00098626
0.00096858
0.000981827
0.000968572
0.00098182
0.000981653
0.000968564
0.000968556
0.00098182
0.000981815
0.000986277
0.000999517
0.000999517
0.000986281
0.000986338
0.000999484
0.000997436
0.000988529
0.00099948
0.000986298
0.000988571
0.000986339
0.000999482
0.000997437
0.000988529
0.000999481
0.000986304
0.000988571
0.000981823
0.000968582
0.00098183
0.000968586
0.000981825
0.000968599
0.000981838
0.000968589
0.000981772
0.000979659
0.000968598
0.000970832
0.000981786
0.000979701
0.000968635
0.000981774
0.000979668
0.000968619
0.000970837
0.000981796
0.000979702
0.000968639
0.000999517
0.000999521
0.000986478
0.000986277
0.000986278
0.000999526
0.00098629
0.000968604
0.000981844
0.000981674
0.000968591
0.00096859
0.000981838
0.000981839
0.000968603
0.000981844
0.000986336
0.000999489
0.000997439
0.000988528
0.000999485
0.000986297
0.000988577
0.000986274
0.000999523
0.000999523
0.000986275
0.000986336
0.000997438
0.000999488
0.000988525
0.000999485
0.000988575
0.000986297
0.000981815
0.000968573
0.000981824
0.00096857
0.000981767
0.000979654
0.000968588
0.000970822
0.000981783
0.000979702
0.00096862
0.000981817
0.000968582
0.000981827
0.000968574
0.000981768
0.000979652
0.000970818
0.000968598
0.000979698
0.000981785
0.000968621
0.000986288
0.000999536
0.000999536
0.00098629
0.000986357
0.000997463
0.000999514
0.000988572
0.000999507
0.000988608
0.000986315
0.000986288
0.000999543
0.00099954
0.000986288
0.000981786
0.000979679
0.000968619
0.000970854
0.000981804
0.000979726
0.000968641
0.000981832
0.000968599
0.000981846
0.000968589
0.000981787
0.000979697
0.000970859
0.0009686
0.000979737
0.0009818
0.000968639
0.000981832
0.000968581
0.000981839
0.000968586
0.000999519
0.00099952
0.000986465
0.000986266
0.000986269
0.000999524
0.000986282
0.000968591
0.000981828
0.000981655
0.000968574
0.000968576
0.000981824
0.000981827
0.000968593
0.000981832
0.000986352
0.000997459
0.000999513
0.00098857
0.000999503
0.000988607
0.000986314
0.000986284
0.000999531
0.000999535
0.000986284
0.000986284
0.000999541
0.000999538
0.000986287
0.000981779
0.000979661
0.000970834
0.000968602
0.000979717
0.000981794
0.000968628
0.000981781
0.000979692
0.000970848
0.000968595
0.000979733
0.000981797
0.000968628
0.000981827
0.000968588
0.000981837
0.000968579
0.000981826
0.000968577
0.000981836
0.000968577
0.000999543
0.000986288
0.000999542
0.000986286
0.000981688
0.000968563
0.000968559
0.00098183
0.000981827
0.000968578
0.000981835
0.000968573
0.000981832
0.00096413
0.000950893
0.000964123
0.000950898
0.000964121
0.000964113
0.000951018
0.000950876
0.000950877
0.000933219
0.000946448
0.000933235
0.000946457
0.000946216
0.000933206
0.000933218
0.000946439
0.000946444
0.000950883
0.00096415
0.000964133
0.000950891
0.000950925
0.000964086
0.000961966
0.00095306
0.00096407
0.000950899
0.0009531
0.000950928
0.000964107
0.000961975
0.000953087
0.000964073
0.000950908
0.000953111
0.000946425
0.000933202
0.000946441
0.000933181
0.000946424
0.000933174
0.000946436
0.000933174
0.000946359
0.000944198
0.000933216
0.000935372
0.000946391
0.000944234
0.00093322
0.00094636
0.000944216
0.000933185
0.000935375
0.00094639
0.000944243
0.000933216
0.000964145
0.000964144
0.000951036
0.000950873
0.000950872
0.000964149
0.000950884
0.000933167
0.000946428
0.000946223
0.00093315
0.00093315
0.000946421
0.00094642
0.000933165
0.000946426
0.000950919
0.000964076
0.000961946
0.00095305
0.000964053
0.000950899
0.000953078
0.00095089
0.000964138
0.000964118
0.000950914
0.000950922
0.000961943
0.000964089
0.000953066
0.000964056
0.000953081
0.000950925
0.000946441
0.000933232
0.000946458
0.00093323
0.000946362
0.000944199
0.000933243
0.000935385
0.000946398
0.000944225
0.000933264
0.000946444
0.000933244
0.000946474
0.000933231
0.000946366
0.000944229
0.000935401
0.000933264
0.000944234
0.000946425
0.000933268
0.000950873
0.000964148
0.000964131
0.000950881
0.000950914
0.00096198
0.000964083
0.000953056
0.00096407
0.000953103
0.000950881
0.00095087
0.000964128
0.000964128
0.000950868
0.000946349
0.000944211
0.000933174
0.000935367
0.00094638
0.000944239
0.000933204
0.000946413
0.00093316
0.000946426
0.000933163
0.000946345
0.000944187
0.000935361
0.00093319
0.000944228
0.000946369
0.000933204
0.00094641
0.000933177
0.000946418
0.000933163
0.000964136
0.000964138
0.000951028
0.000950908
0.00095091
0.000964148
0.000950924
0.000933246
0.00094648
0.000946234
0.000933235
0.000933236
0.000946474
0.000946475
0.000933246
0.00094648
0.000950913
0.000961961
0.000964078
0.000953048
0.000964058
0.000953083
0.000950884
0.000950884
0.000964141
0.000964122
0.00095091
0.000950877
0.000964125
0.000964119
0.00095088
0.000946359
0.000944224
0.000935394
0.000933256
0.000944231
0.00094642
0.000933257
0.000946352
0.000944189
0.000935375
0.000933217
0.00094422
0.000946377
0.000933247
0.000946436
0.000933234
0.000946469
0.000933219
0.000946428
0.000933209
0.000946436
0.000933212
0.000964123
0.000950872
0.000964118
0.000950877
0.000946209
0.000933177
0.000933189
0.000946413
0.000946418
0.000933191
0.000946423
0.000933208
0.000946431
0.000928773
0.000915543
0.000928791
0.000915549
0.000928769
0.000928783
0.000915694
0.000915533
0.000915545
0.000897821
0.000911093
0.000897797
0.000911089
0.000910913
0.000897814
0.000897799
0.000911093
0.000911097
0.000915494
0.000928723
0.000928719
0.000915491
0.000915543
0.000928712
0.000926519
0.000917688
0.000928659
0.000915548
0.000917681
0.000915533
0.000928672
0.000926515
0.000917645
0.000928653
0.0009155
0.000917673
0.000911059
0.000897827
0.000911086
0.000897838
0.00091105
0.000897835
0.000911054
0.000897836
0.000910991
0.00090888
0.000897864
0.000900069
0.000911046
0.000908866
0.000897896
0.000910981
0.000908822
0.000897857
0.000900048
0.000911002
0.00090885
0.00089789
0.000928706
0.000928707
0.000915631
0.000915472
0.000915473
0.000928715
0.000915489
0.000897835
0.000911052
0.000910847
0.000897828
0.000897825
0.000911042
0.000911043
0.000897829
0.00091105
0.0009156
0.000928742
0.000926561
0.000917722
0.000928712
0.000915573
0.000917749
0.000915532
0.000928795
0.000928782
0.0009155
0.000915599
0.000926582
0.00092876
0.000917767
0.000928716
0.000917773
0.000915541
0.000911072
0.00089778
0.000911081
0.000897776
0.000911038
0.000908909
0.00089783
0.000900126
0.000911061
0.000908941
0.000897867
0.000911062
0.000897724
0.000911032
0.000897763
0.000911033
0.000908938
0.000900132
0.000897759
0.000908962
0.000911008
0.000897855
0.000915485
0.00092871
0.00092871
0.000915475
0.000915531
0.000926508
0.000928687
0.000917673
0.000928644
0.000917673
0.000915527
0.000915489
0.000928735
0.000928711
0.000915509
0.000910975
0.000908822
0.000897846
0.000900043
0.000910994
0.000908844
0.000897878
0.000911041
0.000897816
0.000911039
0.000897815
0.000910981
0.000908866
0.000900059
0.000897836
0.000908859
0.000911027
0.00089788
0.000911043
0.000897801
0.000911065
0.000897813
0.000928791
0.000928793
0.000915755
0.000915478
0.000915478
0.000928788
0.000915481
0.000897707
0.00091101
0.000910959
0.000897696
0.000897692
0.000911011
0.000911009
0.000897698
0.000911006
0.000915587
0.000926548
0.000928717
0.000917708
0.000928696
0.000917738
0.000915553
0.000915522
0.000928784
0.000928773
0.000915485
0.000915523
0.000928768
0.000928765
0.000915522
0.000911027
0.000908939
0.000900128
0.000897746
0.000908959
0.000910998
0.000897843
0.000911026
0.000908896
0.000900117
0.000897802
0.000908934
0.000911041
0.00089785
0.000911051
0.000897702
0.000911014
0.000897745
0.000911055
0.000897756
0.000911061
0.000897753
0.000928747
0.000915519
0.000928765
0.000915524
0.000910898
0.000897781
0.000897766
0.000911066
0.000911071
0.00089779
0.000911066
0.000897765
0.000911063
0.000893355
0.000880045
0.000893328
0.000880024
0.000893354
0.000893336
0.000880335
0.000880042
0.000880024
0.000862262
0.000875571
0.000862264
0.000875558
0.000875514
0.00086226
0.000862256
0.000875577
0.000875563
0.000880109
0.000893386
0.000893384
0.0008801
0.000880201
0.000893345
0.000891281
0.000882447
0.000893343
0.000880112
0.000882482
0.000880206
0.000893355
0.00089126
0.000882429
0.00089334
0.000880146
0.00088247
0.000875625
0.000862276
0.000875591
0.00086231
0.000875635
0.000862315
0.000875631
0.000862322
0.000875624
0.000873573
0.000862326
0.000864757
0.000875581
0.000873648
0.000862416
0.00087563
0.000873591
0.000862364
0.000864765
0.000875615
0.000873644
0.000862425
0.000893387
0.000893384
0.000880362
0.000880101
0.000880095
0.000893379
0.000880097
0.000862323
0.000875632
0.000875554
0.000862323
0.00086232
0.000875637
0.000875633
0.000862328
0.00087563
0.000880108
0.000893301
0.000891293
0.000882402
0.000893289
0.000880062
0.000882428
0.000880015
0.000893261
0.000893292
0.000879996
0.000880095
0.000891268
0.000893232
0.000882296
0.000893276
0.00088238
0.000880022
0.000875556
0.000862273
0.000875556
0.000862289
0.000875532
0.000873517
0.000862307
0.000864623
0.000875533
0.000873535
0.000862357
0.000875552
0.000862308
0.000875546
0.000862292
0.000875519
0.000873399
0.000864569
0.000862313
0.000873477
0.000875508
0.000862349
0.000880088
0.000893367
0.00089336
0.000880092
0.00088017
0.00089126
0.000893315
0.000882388
0.000893323
0.00088244
0.000880085
0.000880081
0.000893343
0.000893356
0.000880049
0.000875602
0.000873573
0.00086237
0.000864717
0.00087561
0.000873604
0.00086241
0.000875618
0.000862335
0.00087563
0.000862327
0.000875593
0.000873501
0.000864685
0.000862335
0.000873582
0.00087556
0.000862396
0.000875611
0.000862306
0.000875587
0.000862321
0.000893241
0.000893236
0.000880213
0.000879982
0.000879976
0.000893236
0.000879986
0.00086234
0.000875547
0.000875391
0.000862319
0.000862313
0.000875543
0.000875535
0.000862341
0.00087554
0.000880078
0.000891267
0.000893269
0.00088234
0.000893268
0.000882379
0.000880032
0.00087999
0.00089324
0.000893271
0.000879982
0.000879997
0.000893289
0.00089328
0.000879999
0.000875491
0.00087338
0.000864522
0.00086231
0.000873433
0.000875498
0.000862322
0.0008755
0.00087344
0.00086455
0.000862309
0.000873466
0.000875511
0.000862331
0.000875528
0.000862323
0.000875535
0.000862279
0.000875535
0.000862295
0.000875544
0.000862283
0.000893323
0.000880031
0.000893296
0.000880008
0.000875459
0.000862294
0.000862285
0.000875567
0.00087555
0.000862303
0.00087557
0.000862299
0.000875551
0.000857793
0.000844494
0.0008578
0.00084451
0.000857797
0.000857796
0.000844716
0.000844483
0.00084449
0.000826784
0.000840027
0.000826814
0.000840045
0.00083987
0.00082675
0.000826773
0.000840019
0.00084003
0.000844526
0.000857846
0.000857842
0.000844535
0.000844588
0.000857792
0.000855818
0.00084678
0.000857822
0.000844528
0.000846851
0.000844599
0.000857829
0.000855833
0.000846827
0.000857832
0.000844571
0.000846872
0.000840034
0.000826769
0.000840031
0.000826735
0.000840044
0.000826776
0.000840067
0.00082674
0.000839991
0.000837838
0.000826681
0.000828915
0.000839986
0.000837881
0.00082678
0.000840002
0.000837882
0.000826803
0.00082894
0.000840033
0.000837903
0.000826815
0.000857859
0.000857859
0.000844749
0.000844547
0.000844552
0.000857862
0.000844568
0.00082679
0.000840084
0.000839905
0.000826769
0.000826791
0.000840081
0.000840091
0.000826814
0.0008401
0.000844594
0.000857782
0.000855702
0.000846768
0.000857779
0.000844544
0.00084678
0.000844573
0.00085787
0.000857831
0.000844644
0.000844597
0.000855663
0.000857808
0.000846726
0.000857774
0.000846763
0.000844642
0.000840095
0.000826824
0.000840073
0.000826842
0.000840012
0.000837843
0.000826789
0.000828946
0.000840014
0.000837861
0.000826835
0.000840116
0.000826932
0.000840197
0.000826863
0.000840023
0.000837858
0.000828978
0.000826937
0.00083787
0.000840133
0.000826863
0.000844575
0.000857873
0.000857856
0.000844581
0.000844624
0.000855763
0.000857815
0.000846784
0.000857813
0.000846843
0.000844603
0.000844575
0.000857849
0.000857852
0.000844593
0.000840044
0.000837904
0.000826807
0.000829022
0.000840069
0.000837938
0.000826902
0.000840109
0.000826829
0.000840119
0.000826842
0.000840044
0.000837901
0.000829041
0.000826883
0.000837935
0.000840092
0.000826929
0.000840112
0.000826884
0.000840148
0.000826853
0.000857892
0.000857888
0.000844655
0.000844663
0.000844664
0.000857908
0.000844691
0.00082695
0.000840232
0.000839851
0.000826936
0.000826957
0.000840219
0.000840226
0.000826976
0.000840245
0.00084462