/*--------------------------------*- C++ -*----------------------------------*\
| =========                 |                                                 |
| \\      /  F ield         | OpenFOAM: The Open Source CFD Toolbox           |
|  \\    /   O peration     | Version:  v2006                                 |
|   \\  /    A nd           | Website:  www.openfoam.com                      |
|    \\/     M anipulation  |                                                 |
\*---------------------------------------------------------------------------*/
FoamFile
{
    version     2.0;
    format      ascii;
    class       volVectorField;
    location    "750";
    object      U;
}
// * * * * * * * * * * * * * * * * * * * * * * * * * * * * * * * * * * * * * //

dimensions      [0 1 -1 0 0 0 0];


internalField   nonuniform List<vector> 
14404
(
(3.86201e-06 2.59669e-05 0.107458)
(-8.1188e-06 2.40436e-05 0.107452)
(2.91005e-05 -1.25687e-05 0.104165)
(1.25084e-05 3.3175e-05 0.112447)
(-1.33936e-06 -6.68878e-06 0.0715653)
(-1.89157e-06 6.1897e-07 0.0929907)
(-1.11078e-06 -6.85738e-06 0.082232)
(-9.41691e-06 -8.74161e-06 0.0913657)
(-7.35824e-06 3.17339e-05 0.109883)
(-6.59242e-06 -5.77716e-06 0.0929876)
(-8.56067e-06 5.98916e-07 0.0984919)
(-8.33546e-06 -5.44966e-06 0.0875492)
(-6.9787e-07 2.33634e-06 0.0875511)
(5.14559e-07 -8.43107e-07 0.0715609)
(8.80068e-07 -1.87317e-06 0.0822212)
(-5.09923e-06 -5.34708e-06 0.0858302)
(-4.76393e-07 -5.31243e-06 0.0684377)
(-3.96644e-06 -6.81038e-06 0.0786723)
(-8.88633e-06 -8.45737e-06 0.0898865)
(-3.22268e-06 -6.97696e-06 0.0768966)
(-6.24797e-06 -2.1919e-06 0.0962492)
(-5.07403e-06 -3.12714e-06 0.0815591)
(-6.27743e-06 -1.71672e-06 0.0916561)
(-1.42446e-05 1.14658e-05 0.0916975)
(-2.20201e-06 -1.48517e-06 0.0962563)
(1.19482e-07 7.54664e-07 0.081559)
(-8.62385e-06 1.01194e-05 0.0875895)
(-1.69672e-05 2.0128e-05 0.0962956)
(-5.55362e-06 -3.61164e-06 0.0916632)
(-3.65388e-06 8.30672e-06 0.0815957)
(-2.75778e-07 -2.51179e-06 0.0683367)
(-1.36859e-07 4.58301e-07 0.0683407)
(-5.57838e-06 -2.06951e-06 0.0836169)
(-2.85084e-06 5.68492e-06 0.0716057)
(-7.75121e-07 1.19984e-05 0.0822643)
(-3.5588e-07 1.381e-05 0.085866)
(-2.34139e-05 1.91722e-05 0.0975598)
(-8.62451e-08 -1.90876e-05 0.101405)
(2.81138e-05 4.65999e-06 0.10141)
(-4.28203e-05 5.57782e-05 0.104276)
(-4.41022e-05 2.59049e-05 0.101471)
(-8.19287e-07 -6.30546e-08 0.0975143)
(-2.49768e-05 4.89226e-05 0.101464)
(1.98464e-05 2.48061e-05 0.115032)
(-5.01492e-06 6.32288e-05 0.101401)
(-1.70113e-06 -2.52139e-05 0.0995043)
(-9.80768e-06 2.13942e-05 0.0930396)
(-1.0552e-05 5.66422e-05 0.0995608)
(-5.47467e-06 2.64712e-05 0.0956462)
(2.373e-05 3.06451e-06 0.099495)
(-6.35915e-06 -1.4812e-06 0.0955819)
(2.54289e-05 8.55972e-06 0.101291)
(2.08234e-05 1.44286e-05 0.103488)
(-8.38777e-06 -4.58647e-07 0.0975319)
(2.12651e-05 1.26967e-05 0.102832)
(-1.01822e-05 -2.7008e-05 0.0914156)
(-4.98562e-06 -1.55131e-05 0.0823248)
(-1.29752e-05 -9.72301e-06 0.082334)
(-3.82404e-06 -8.04127e-06 0.0716937)
(-5.23981e-06 -9.09466e-06 0.0716915)
(-5.12703e-05 -4.17455e-05 0.104255)
(-1.49304e-05 -1.56287e-05 0.0876317)
(-1.19927e-05 -1.82718e-05 0.0876234)
(-8.98791e-06 -3.88282e-05 0.0985415)
(-5.12271e-06 -1.02155e-05 0.107444)
(-1.95838e-05 -2.90786e-05 0.0930488)
(1.41758e-05 -1.24966e-05 0.109893)
(-1.41111e-05 9.00494e-06 0.107435)
(-2.63531e-05 -2.25438e-05 0.0930505)
(-6.58819e-06 -4.53452e-06 0.0769327)
(-9.33203e-06 -1.36299e-05 0.0913789)
(-3.23199e-06 -1.31484e-05 0.0787396)
(-1.26982e-05 -2.31948e-05 0.0899439)
(-4.33364e-06 -5.91303e-06 0.0786984)
(-1.19334e-05 -1.02463e-05 0.0899012)
(-4.45882e-06 -1.20103e-05 0.0769791)
(-4.25754e-06 -3.63096e-07 0.0684873)
(-1.0128e-05 -1.64989e-05 0.0859073)
(-3.97072e-06 -2.08097e-06 0.0822701)
(-9.61187e-06 -5.66138e-06 0.0858538)
(-2.0008e-06 -6.55666e-06 0.0685499)
(4.01347e-07 -8.39813e-06 0.0822808)
(-6.79855e-06 -2.74163e-06 0.0716125)
(-7.96459e-07 -1.90399e-06 0.0716368)
(8.07315e-07 -5.6663e-06 0.0716351)
(-1.11034e-06 -5.5218e-06 0.0836519)
(-2.41255e-06 -5.52912e-06 0.0684602)
(-3.39315e-06 -5.82045e-06 0.0684505)
(1.30934e-06 -2.88107e-06 0.0684113)
(-4.54714e-07 -2.21401e-06 0.0684018)
(-5.02022e-06 -9.90593e-06 0.0836905)
(-9.15455e-06 -6.72051e-06 0.0916722)
(-6.71946e-06 -1.49039e-05 0.0816652)
(-8.1356e-06 -8.78358e-06 0.0875859)
(-2.23437e-05 -2.95367e-05 0.0962884)
(-2.96372e-06 -7.74596e-06 0.0816142)
(-1.60185e-05 -2.20913e-05 0.0917106)
(-1.00479e-05 -7.79998e-06 0.0962519)
(-4.09247e-06 -1.0687e-05 0.0916637)
(-1.02243e-05 -1.01204e-05 0.0816553)
(-5.55556e-06 -1.10513e-05 0.0875781)
(-2.66136e-05 -2.08165e-05 0.0962827)
(-3.45447e-06 -6.27937e-06 0.0816057)
(-1.83516e-05 -1.83955e-05 0.091702)
(-5.95239e-06 -7.4632e-06 0.096246)
(-6.33797e-06 -6.61463e-06 0.0684917)
(-1.40065e-05 -5.05418e-06 0.0822795)
(-1.64799e-05 -5.06608e-06 0.085877)
(-1.03513e-05 -8.23487e-06 0.0769419)
(-2.28733e-05 -1.0522e-05 0.0914018)
(-1.11206e-05 -6.93949e-06 0.0787123)
(-2.24106e-05 -9.85424e-06 0.0899281)
(-2.28521e-05 5.46392e-06 0.0916906)
(-1.62288e-05 1.8142e-06 0.087588)
(-1.16511e-05 1.32891e-06 0.0815981)
(-3.01124e-05 8.83993e-06 0.0962875)
(-1.0599e-05 3.37909e-06 0.0836492)
(-2.72971e-06 1.81313e-06 0.0683758)
(-3.1758e-06 4.05901e-06 0.0683797)
(-5.84921e-06 -2.73815e-06 0.0975042)
(1.8209e-05 2.81972e-05 0.104156)
(-5.16139e-05 -2.43144e-05 0.101447)
(-2.80134e-05 -4.40376e-05 0.101442)
(-2.5407e-05 -2.33381e-05 0.0975462)
(1.80814e-05 -1.76586e-06 0.101397)
(-6.37603e-06 2.64987e-05 0.101392)
(-3.45051e-06 1.68055e-05 0.102834)
(-6.39468e-06 -1.51235e-05 0.0984958)
(-1.30244e-05 -3.687e-05 0.0975858)
(-1.4476e-06 -6.70894e-05 0.103573)
(-1.03655e-05 -1.28709e-05 0.0975325)
(1.28149e-06 1.34662e-05 0.103492)
(-6.34256e-06 -6.53628e-05 0.102934)
(-8.11306e-06 2.03254e-05 0.101286)
(-1.70099e-05 -3.36132e-05 0.0956398)
(-1.28247e-05 -9.69827e-06 0.0929982)
(-1.76519e-05 -6.11294e-05 0.0995384)
(-1.32778e-05 -1.05471e-05 0.0955821)
(-1.03361e-05 1.99555e-05 0.0994924)
(-1.30993e-05 -6.44347e-05 0.101375)
(-7.40601e-06 -1.50466e-05 0.0930005)
(-5.94357e-05 -1.42326e-05 0.0995361)
(2.09562e-05 -5.94256e-06 0.0994893)
(-6.147e-05 9.10957e-06 0.101389)
(-2.77473e-05 -4.33152e-07 0.0930371)
(-3.09571e-05 -1.19086e-06 0.0956412)
(-5.95582e-05 7.67158e-06 0.0995493)
(-6.17932e-05 1.03784e-05 0.102941)
(-3.2348e-05 -2.57068e-06 0.0985395)
(-5.95137e-05 1.15327e-05 0.103575)
(-3.31247e-05 -2.86335e-06 0.0975889)
(-4.53425e-05 -4.55614e-05 0.104331)
(-3.67347e-06 -9.71142e-06 0.107604)
(-9.35262e-06 -4.18731e-06 0.107604)
(2.82007e-05 2.82501e-05 0.104206)
(-9.68968e-06 -3.79648e-06 0.107597)
(-5.11759e-06 -6.46146e-06 0.112796)
(4.26684e-06 -2.29612e-08 0.0819686)
(-2.28729e-06 -3.72123e-06 0.0713427)
(1.66528e-06 2.11878e-06 0.0712928)
(-3.48029e-06 -2.47296e-06 0.0713417)
(2.06652e-06 1.77248e-06 0.0712921)
(2.85128e-05 2.82299e-05 0.104212)
(-5.29111e-06 -7.31835e-06 0.0873353)
(-7.44369e-06 -5.43873e-06 0.0873341)
(2.08536e-06 -4.38785e-07 0.0872903)
(-4.47857e-07 2.0803e-06 0.0872889)
(-1.64368e-07 3.88104e-07 0.0911267)
(-1.44051e-06 -8.59222e-06 0.0820001)
(6.3324e-07 4.21534e-06 0.0819492)
(-5.06295e-07 -1.26317e-05 0.0911681)
(4.69512e-07 4.40948e-07 0.0911268)
(-7.33306e-07 4.04276e-06 0.0819483)
(1.81895e-07 -1.26441e-05 0.0911682)
(-3.50499e-08 2.09908e-06 0.0983616)
(-3.56391e-06 -9.52469e-06 0.10761)
(-5.41029e-06 -1.63322e-05 0.0928259)
(-6.33913e-07 -9.38394e-06 0.110111)
(1.25219e-06 3.2037e-06 0.09277)
(-1.0254e-06 -8.74821e-06 0.110119)
(-2.10165e-07 -2.15202e-05 0.0984178)
(9.51406e-07 2.23449e-06 0.0983617)
(5.13376e-06 -8.82758e-06 0.107608)
(3.03243e-06 -9.21186e-06 0.11011)
(-8.28949e-07 3.59318e-06 0.0927696)
(2.36739e-06 -8.57926e-06 0.110119)
(7.78763e-07 -2.14771e-05 0.0984181)
(-1.7274e-06 2.01069e-06 0.0712898)
(-2.78039e-05 2.94561e-05 0.104211)
(-1.98454e-06 -3.85642e-07 0.0872877)
(3.5111e-07 2.34257e-06 0.0872906)
(-2.25415e-06 1.64142e-06 0.0712917)
(2.72285e-07 2.75271e-07 0.0911272)
(-8.54872e-06 -1.60479e-06 0.0820002)
(3.96071e-06 6.38464e-07 0.0819494)
(-1.26031e-05 5.78178e-08 0.0911685)
(2.12953e-06 -2.42607e-08 0.0983623)
(-9.15543e-06 -4.58519e-06 0.107611)
(-1.64083e-05 -5.2006e-06 0.0928262)
(-8.9207e-06 -1.49099e-06 0.110111)
(3.50218e-06 1.12421e-06 0.09277)
(-8.68418e-06 -1.94031e-06 0.11012)
(-2.13129e-05 2.51398e-07 0.0984183)
(3.38337e-07 1.03069e-06 0.091127)
(4.18402e-06 -4.53842e-07 0.0819502)
(-1.25101e-05 7.96362e-07 0.0911688)
(2.20207e-06 1.05273e-06 0.0983625)
(-8.65862e-06 4.5923e-06 0.107608)
(-8.67807e-06 2.279e-06 0.11011)
(-8.49854e-06 1.63677e-06 0.110119)
(3.85604e-06 -4.81858e-07 0.0927701)
(-2.11784e-05 1.30831e-06 0.0984182)
(-2.80317e-06 1.49318e-07 0.0983614)
(9.67645e-06 -2.71539e-06 0.10761)
(-3.62405e-06 1.67964e-06 0.0927709)
(8.45473e-06 -3.67594e-07 0.110116)
(-1.0127e-06 -4.94675e-07 0.091127)
(-4.40649e-06 6.7736e-07 0.0819495)
(-3.01084e-06 9e-07 0.0983612)
(9.38843e-06 4.29552e-06 0.107605)
(8.24043e-06 2.82159e-06 0.110114)
(-4.0366e-06 -2.0224e-06 0.0927702)
(-1.08134e-06 -1.15838e-07 0.091127)
(-4.23327e-06 -1.4177e-06 0.081949)
(2.09829e-06 -1.56855e-06 0.0712925)
(2.94072e-05 -2.80539e-05 0.104211)
(-1.13248e-07 -1.76977e-06 0.0872891)
(2.02117e-06 1.32607e-07 0.0872904)
(1.43577e-06 -2.27114e-06 0.0712924)
(5.79754e-08 -2.62973e-06 0.0983618)
(-2.57438e-06 9.47431e-06 0.10761)
(3.07205e-07 8.44345e-06 0.110117)
(1.1603e-06 -3.78207e-06 0.0927708)
(9.62839e-07 -2.87204e-06 0.0983618)
(5.51414e-06 8.82904e-06 0.107607)
(3.95098e-06 8.17914e-06 0.110116)
(-1.91265e-06 -3.92194e-06 0.0927709)
(-1.02782e-06 -8.15581e-07 0.091127)
(3.54921e-07 -4.44328e-06 0.0819501)
(-5.18665e-07 -8.72409e-07 0.0911272)
(-1.49648e-06 -4.15303e-06 0.0819495)
(-2.78413e-05 -2.87184e-05 0.104209)
(1.69729e-07 -3.02375e-06 0.0872896)
(-2.91173e-06 3.07798e-07 0.0872895)
(-2.09482e-06 -2.27053e-06 0.0712906)
(-2.38316e-06 -2.09253e-06 0.0712912)
(1.52641e-06 1.96473e-06 0.0713121)
(2.31359e-06 1.15049e-06 0.0713108)
(1.86803e-06 -1.18124e-07 0.087307)
(-1.00211e-07 1.5852e-06 0.0873055)
(3.31809e-06 8.32306e-07 0.0927834)
(2.3457e-06 -6.41937e-07 0.0681517)
(-9.26173e-06 -1.00514e-06 0.0855797)
(1.82588e-06 -3.90981e-07 0.0855359)
(-3.41944e-06 6.70153e-07 0.0681971)
(-3.22396e-06 -5.38521e-07 0.0682237)
(2.12447e-06 -1.23893e-06 0.0855616)
(-8.39098e-06 -1.94925e-06 0.08201)
(2.55444e-06 -1.77269e-06 0.068178)
(-8.82522e-06 -2.03763e-06 0.0856052)
(1.53303e-06 2.06694e-06 0.0713023)
(-2.21419e-06 -3.63782e-06 0.0713331)
(2.17812e-06 1.50512e-06 0.0713013)
(-3.61113e-06 -2.1409e-06 0.0713324)
(-5.11068e-06 -4.96282e-06 0.0833988)
(1.42599e-06 6.43308e-07 0.0681043)
(9.35513e-07 1.47619e-06 0.0681037)
(5.13474e-09 2.6723e-07 0.0833679)
(-2.17103e-06 -2.33874e-06 0.0681395)
(-1.91649e-06 -2.34031e-06 0.0681387)
(-1.75975e-07 2.90678e-06 0.0914531)
(-1.06515e-05 -1.80479e-05 0.0961354)
(1.94131e-06 -2.48536e-07 0.0872986)
(-2.35257e-06 -5.86062e-06 0.0813441)
(1.39536e-06 6.89707e-07 0.0813089)
(1.93096e-06 3.91746e-06 0.0960952)
(-7.4017e-06 -1.243e-05 0.091488)
(2.40206e-06 2.80514e-07 0.0914481)
(-1.84262e-05 -1.02539e-05 0.0961312)
(-4.1907e-07 1.9071e-06 0.0872972)
(-5.91471e-06 -2.71882e-06 0.0813435)
(4.80404e-07 1.23932e-06 0.081308)
(3.70059e-06 2.29554e-06 0.0960905)
(-1.29355e-05 -7.03117e-06 0.0914831)
(-7.42056e-06 -1.25526e-05 0.0914817)
(1.39098e-06 7.22897e-07 0.0813003)
(1.98417e-06 3.71384e-06 0.0960909)
(-5.17848e-06 -7.48585e-06 0.087327)
(-2.05575e-07 2.7868e-06 0.0914466)
(-2.37164e-06 -5.74074e-06 0.0813355)
(-1.05957e-05 -1.8275e-05 0.0961313)
(-1.29572e-05 -6.90424e-06 0.0914768)
(4.27773e-07 1.50275e-06 0.0812989)
(4.04347e-06 2.23948e-06 0.0960858)
(-7.63634e-06 -5.18076e-06 0.0873258)
(2.45759e-06 3.84772e-07 0.0914417)
(-6.06538e-06 -2.38664e-06 0.0813343)
(-1.82231e-05 -1.02769e-05 0.0961265)
(1.69266e-07 2.31497e-07 0.0833756)
(-1.98252e-06 -2.50034e-06 0.0681478)
(-1.73497e-06 -2.62651e-06 0.0681465)
(1.60371e-06 4.83175e-07 0.0681125)
(1.06319e-06 1.2216e-06 0.0681114)
(-4.86385e-06 -4.95608e-06 0.0834065)
(3.23164e-07 -5.25458e-06 0.0766382)
(-3.89496e-07 1.19558e-06 0.078377)
(-5.26872e-07 9.66004e-07 0.0896312)
(-2.45647e-07 -1.24973e-05 0.0911606)
(-8.31598e-07 1.68729e-06 0.0766043)
(-1.85007e-07 -5.5295e-06 0.0784058)
(-7.86392e-07 -1.19285e-05 0.0896701)
(-1.24162e-06 2.37565e-06 0.06817)
(4.13146e-07 4.19673e-06 0.0819588)
(-1.67733e-06 -9.08022e-06 0.0855979)
(1.4707e-07 -3.45721e-06 0.0682162)
(-9.47801e-07 1.95575e-06 0.0855534)
(2.4887e-07 -3.42293e-06 0.0682069)
(-6.71334e-07 1.90607e-06 0.0855441)
(-1.26173e-06 -8.53728e-06 0.0819903)
(-1.08834e-06 2.39668e-06 0.0681608)
(-1.38966e-06 -9.14867e-06 0.0855887)
(-1.01958e-06 1.63339e-06 0.0766137)
(-3.95705e-07 2.10698e-07 0.0911342)
(-1.92045e-07 -5.5878e-06 0.0784152)
(-1.19776e-06 -1.19523e-05 0.0896782)
(1.88447e-07 -5.31597e-06 0.0766476)
(-4.37228e-07 1.13494e-06 0.0783863)
(-8.96663e-07 8.98767e-07 0.0896393)
(-7.77531e-07 -5.33524e-06 0.0766372)
(9.68528e-08 1.19418e-06 0.0783768)
(7.05762e-07 1.02912e-06 0.0896318)
(3.62382e-07 -1.24664e-05 0.0911607)
(4.69731e-07 1.61607e-06 0.0766037)
(-1.69305e-07 -5.5373e-06 0.0784056)
(7.59941e-07 -1.19461e-05 0.08967)
(-6.0834e-07 -3.45632e-06 0.0682077)
(6.08161e-07 1.94365e-06 0.0855455)
(1.04938e-06 -8.63233e-06 0.0819908)
(7.87173e-07 2.36003e-06 0.0681624)
(1.2e-06 -9.16994e-06 0.0855891)
(5.25023e-07 1.53883e-06 0.076613)
(2.89307e-07 2.2254e-07 0.0911343)
(-1.55086e-07 -5.59747e-06 0.0784151)
(7.55609e-07 -1.21004e-05 0.089678)
(6.07295e-08 1.12568e-06 0.0783862)
(6.58027e-07 8.2079e-07 0.0896398)
(-6.7433e-07 -5.40157e-06 0.0766466)
(1.99584e-06 -3.59447e-06 0.0713337)
(4.97206e-06 -5.11337e-06 0.0833987)
(-1.55809e-06 7.0135e-07 0.0681008)
(-8.77493e-07 1.38224e-06 0.0681052)
(-1.09829e-07 1.86031e-07 0.0833677)
(2.08032e-06 -2.27527e-06 0.0681363)
(2.03034e-06 -2.38835e-06 0.0681401)
(7.27712e-06 -1.23244e-05 0.0914765)
(-1.50942e-06 5.29251e-07 0.0812961)
(-1.5019e-06 4.48928e-06 0.0960863)
(5.16248e-06 -7.52027e-06 0.0873269)
(1.10206e-05 -1.77378e-05 0.0961281)
(8.02695e-08 3.19938e-06 0.0914403)
(2.24565e-06 -5.98015e-06 0.0813327)
(1.2695e-05 -6.94511e-06 0.0914819)
(-7.92294e-07 1.523e-06 0.0813017)
(-3.91158e-06 2.74534e-06 0.0960905)
(7.4801e-06 -5.05848e-06 0.0873264)
(-2.69826e-06 4.46058e-07 0.0914475)
(5.71355e-06 -2.45126e-06 0.0813353)
(1.82204e-05 -9.91704e-06 0.0961306)
(3.4428e-06 -2.3277e-06 0.0713311)
(-5.25606e-06 5.39395e-07 0.0766388)
(7.69277e-07 -7.89142e-08 0.0896317)
(1.16186e-06 -2.24352e-07 0.0783771)
(-1.25553e-05 2.71521e-07 0.0911612)
(1.63782e-06 -5.20128e-07 0.0766048)
(-1.21157e-05 -2.28025e-07 0.0896703)
(-5.52594e-06 -1.47066e-07 0.0784063)
(2.49499e-06 -1.34584e-06 0.068169)
(4.10744e-06 3.51843e-07 0.0819589)
(-9.04187e-06 -1.60002e-06 0.0855965)
(-3.28283e-06 -1.45624e-07 0.0682146)
(1.93977e-06 -7.97982e-07 0.0855529)
(-3.34701e-06 3.03258e-07 0.0682058)
(1.82864e-06 -4.88094e-07 0.0855444)
(-8.71452e-06 -1.25723e-06 0.0819906)
(2.42056e-06 -9.22925e-07 0.0681602)
(-9.20493e-06 -1.20816e-06 0.085588)
(1.6942e-06 -9.41372e-07 0.0766144)
(1.95287e-07 1.74167e-07 0.0911344)
(-1.2062e-05 -5.3522e-07 0.0896782)
(-5.53921e-06 -5.01485e-07 0.0784157)
(-5.19368e-06 8.27261e-08 0.0766484)
(7.57361e-07 -2.56606e-07 0.0896395)
(1.15373e-06 -5.62744e-07 0.0783864)
(-5.24734e-06 -3.79185e-07 0.0766386)
(1.11719e-06 3.99809e-07 0.0783757)
(1.09607e-06 1.45529e-06 0.0896314)
(-1.24355e-05 9.77949e-07 0.0911617)
(1.62806e-06 1.01393e-06 0.0766024)
(-5.50372e-06 1.56479e-08 0.0784066)
(-1.17428e-05 1.52557e-06 0.0896715)
(-3.47572e-06 -2.47848e-07 0.0682097)
(2.07157e-06 1.22427e-06 0.0855457)
(-8.60076e-06 1.26134e-06 0.0819919)
(2.37794e-06 1.27432e-06 0.068163)
(-9.03892e-06 1.78794e-06 0.0855906)
(1.53126e-06 7.798e-07 0.0766113)
(2.53429e-07 9.49209e-07 0.0911343)
(-5.54622e-06 -3.23909e-07 0.0784157)
(-1.18343e-05 1.37292e-06 0.0896793)
(1.0732e-06 9.13758e-08 0.0783847)
(1.008e-06 1.38313e-06 0.0896394)
(-5.34892e-06 -6.47277e-07 0.0766476)
(4.99322e-06 2.41451e-07 0.0766384)
(-1.46375e-06 -5.5875e-07 0.089631)
(-1.45262e-06 -6.62227e-07 0.0783766)
(1.19084e-05 -6.38651e-07 0.0911604)
(-1.87488e-06 -8.85031e-07 0.0766025)
(1.14151e-05 -8.50907e-07 0.0896708)
(5.27759e-06 -4.73367e-07 0.0784051)
(3.23876e-06 2.44837e-07 0.0682074)
(-2.12951e-06 -6.18412e-07 0.0855437)
(8.30492e-06 -1.29974e-06 0.0819905)
(-2.42043e-06 -1.12788e-06 0.0681578)
(8.89065e-06 -1.36851e-06 0.0855897)
(5.11364e-06 -1.32345e-06 0.0766362)
(-1.46477e-06 -2.62521e-07 0.0783768)
(-1.47341e-06 -2.87552e-07 0.0896318)
(1.18691e-05 -2.95542e-07 0.0911601)
(-1.84852e-06 -1.37978e-07 0.0766035)
(5.27037e-06 -5.11989e-07 0.0784048)
(1.1515e-05 -2.69202e-07 0.0896697)
(3.4487e-06 -1.06739e-06 0.0682066)
(-2.15566e-06 -3.37364e-07 0.0855458)
(8.50392e-06 4.59078e-07 0.0819891)
(-2.35941e-06 2.7851e-07 0.0681623)
(8.98501e-06 3.04007e-07 0.0855887)
(-3.63817e-06 2.18605e-06 0.0713333)
(-5.03105e-06 4.77726e-06 0.0833987)
(7.1711e-07 -1.54025e-06 0.0681012)
(1.33042e-06 -9.25378e-07 0.0681069)
(2.44837e-07 -3.26492e-07 0.0833682)
(-2.23039e-06 2.13057e-06 0.0681362)
(-2.40178e-06 1.98693e-06 0.068142)
(-1.23118e-05 7.28431e-06 0.0914751)
(6.60443e-07 -1.46436e-06 0.0812977)
(4.54607e-06 -1.64543e-06 0.0960871)
(-7.31983e-06 5.41345e-06 0.0873261)
(-1.76216e-05 1.09475e-05 0.0961274)
(3.19428e-06 6.44148e-08 0.0914411)
(-5.95731e-06 2.33788e-06 0.0813318)
(-7.04118e-06 1.24675e-05 0.0914823)
(1.38366e-06 -8.28144e-07 0.0813022)
(2.57578e-06 -4.06841e-06 0.0960896)
(-5.33375e-06 7.24382e-06 0.0873277)
(3.09291e-07 -2.84654e-06 0.0914472)
(-2.47506e-06 5.65685e-06 0.0813375)
(-1.01043e-05 1.79501e-05 0.0961307)
(-2.46634e-06 3.47196e-06 0.0713328)
(-1.87592e-07 4.96858e-06 0.076639)
(-1.30842e-06 -1.46163e-06 0.0896309)
(-9.55506e-07 -1.3551e-06 0.0783762)
(-1.24759e-06 1.20092e-05 0.0911613)
(-1.4503e-06 -1.87233e-06 0.076602)
(-1.63896e-06 1.13169e-05 0.0896716)
(-6.55676e-07 5.33593e-06 0.0784056)
(-1.18977e-07 3.27267e-06 0.068209)
(-1.26759e-06 -2.20071e-06 0.085544)
(-1.52115e-06 8.3155e-06 0.0819919)
(-1.61996e-06 -2.43182e-06 0.0681583)
(-1.96996e-06 8.80792e-06 0.0855908)
(-1.55207e-06 5.17096e-06 0.076637)
(-6.7137e-07 -1.22971e-06 0.0896322)
(-4.17005e-07 -1.39152e-06 0.078377)
(-7.84558e-07 1.20273e-05 0.0911608)
(-4.44917e-07 -1.73587e-06 0.0766039)
(-7.627e-07 1.17645e-05 0.0896701)
(-5.65537e-07 5.32117e-06 0.0784054)
(-1.14694e-06 3.4208e-06 0.0682059)
(-5.12384e-07 -2.05641e-06 0.0855459)
(3.99761e-07 8.53647e-06 0.0819896)
(1.00568e-07 -2.34582e-06 0.0681616)
(1.15573e-07 9.05838e-06 0.0855887)
(4.84199e-06 5.12528e-06 0.0833995)
(-7.6526e-07 -1.57564e-06 0.0681012)
(-1.60236e-06 -9.67148e-07 0.0680986)
(-3.94443e-07 -1.07109e-07 0.0833666)
(2.15105e-06 1.96699e-06 0.0681393)
(2.16769e-06 1.94238e-06 0.0681338)
(1.2029e-05 6.74672e-06 0.0914837)
(-8.86924e-07 -1.96611e-06 0.0812991)
(-4.56754e-06 -2.50145e-06 0.0960897)
(7.46755e-06 4.28169e-06 0.0873264)
(-3.36059e-06 -4.94164e-07 0.091447)
(1.76218e-05 1.00554e-05 0.0961314)
(5.61157e-06 1.83213e-06 0.0813349)
(6.51673e-06 1.24664e-05 0.0914772)
(-1.96424e-06 -6.18092e-07 0.0812971)
(-2.23468e-06 -4.52288e-06 0.0960874)
(4.37509e-06 7.60039e-06 0.0873256)
(-6.4872e-07 -3.07705e-06 0.0914415)
(1.01665e-05 1.77402e-05 0.0961284)
(1.92877e-06 5.87058e-06 0.0813316)
(3.63183e-06 1.61643e-06 0.0713298)
(1.54776e-06 3.57761e-06 0.07133)
(-2.20599e-06 -3.80397e-06 0.0713526)
(-3.33449e-06 -2.80397e-06 0.0713512)
(-7.31291e-06 -1.23643e-05 0.0914946)
(1.84603e-06 4.08645e-06 0.0960995)
(1.4568e-06 5.17535e-07 0.0813177)
(-5.31035e-06 -7.20955e-06 0.0873438)
(-1.59842e-07 2.9815e-06 0.0914596)
(-2.22606e-06 -6.06833e-06 0.0813531)
(-1.07074e-05 -1.7894e-05 0.0961398)
(-1.26986e-05 -7.22563e-06 0.0914897)
(3.65832e-06 2.23573e-06 0.0960953)
(6.94973e-07 8.86242e-07 0.0813173)
(-7.05244e-06 -5.76292e-06 0.0873424)
(2.50688e-06 1.2018e-07 0.0914546)
(-5.62873e-06 -3.00713e-06 0.0813529)
(-1.82717e-05 -1.03965e-05 0.096136)
(-4.44556e-06 -5.05595e-06 0.0834142)
(1.81949e-06 3.07937e-07 0.0681209)
(1.2971e-06 9.26134e-07 0.0681192)
(5.03504e-07 1.89785e-07 0.0833834)
(-1.73343e-06 -2.67035e-06 0.0681562)
(-1.46697e-06 -2.89427e-06 0.0681542)
(3.62918e-06 4.08467e-06 0.0973798)
(2.84337e-05 2.80539e-05 0.104208)
(-4.3757e-05 -1.93224e-05 0.101429)
(-1.95037e-05 -4.37103e-05 0.101425)
(2.97429e-05 3.47954e-06 0.101363)
(3.41844e-06 2.95459e-05 0.101359)
(-1.70494e-05 -1.66015e-05 0.0974284)
(-1.69588e-05 -1.63731e-05 0.097432)
(2.95245e-05 3.72219e-06 0.101363)
(3.34511e-06 2.97472e-05 0.10136)
(-4.5472e-05 -4.51153e-05 0.104328)
(3.68705e-06 4.23696e-06 0.0973835)
(-4.38104e-05 -1.89806e-05 0.101429)
(-1.94977e-05 -4.33662e-05 0.101425)
(-5.25915e-06 -6.22202e-06 0.112806)
(5.56972e-07 -3.0343e-06 0.115401)
(-2.1589e-06 -9.54459e-07 0.115402)
(-4.6926e-07 -2.2138e-06 0.115409)
(-2.27397e-06 -9.95849e-07 0.115411)
(5.80077e-07 1.44123e-06 0.118104)
(1.5281e-06 1.0319e-06 0.118105)
(5.70302e-06 -5.41658e-06 0.112804)
(1.04428e-06 -2.86555e-06 0.115399)
(-5.04767e-07 -2.21977e-06 0.115408)
(8.08342e-07 -6.32996e-07 0.115408)
(-4.28258e-06 1.05343e-06 0.118104)
(-2.29545e-06 9.8631e-07 0.118104)
(-5.03871e-06 5.41446e-06 0.112805)
(-1.93051e-06 -1.72544e-07 0.115401)
(-2.24676e-06 -9.04478e-07 0.115409)
(-5.97477e-08 1.13003e-06 0.11541)
(2.98219e-07 -3.24857e-06 0.118104)
(1.55284e-06 -2.63197e-06 0.118105)
(6.10195e-06 5.35867e-06 0.112799)
(6.3075e-07 -2.8223e-07 0.115404)
(8.76686e-08 1.02238e-06 0.115406)
(-4.68388e-06 -3.52537e-06 0.118103)
(-2.29396e-06 -2.55514e-06 0.118102)
(-1.71479e-05 -1.66624e-05 0.097425)
(-4.53208e-05 -4.57609e-05 0.104335)
(2.99807e-05 3.51691e-06 0.101363)
(3.51882e-06 2.95388e-05 0.101359)
(3.51836e-06 4.17149e-06 0.0973762)
(-4.36329e-05 -1.94673e-05 0.101429)
(-1.94247e-05 -4.39764e-05 0.101425)
(-1.25056e-06 -5.46196e-05 0.102936)
(-6.80063e-07 2.71941e-06 0.09738)
(-3.26704e-07 3.09815e-05 0.103491)
(-3.25826e-08 -2.12655e-05 0.0984145)
(-1.15938e-06 3.19416e-05 0.102814)
(-1.06223e-06 -2.12078e-05 0.0974412)
(1.18472e-07 -5.35278e-05 0.10359)
(-1.09045e-06 3.39367e-05 0.101236)
(-6.67016e-06 -5.14808e-05 0.0994567)
(9.67331e-07 3.28679e-06 0.0927768)
(-3.11413e-06 -1.97858e-05 0.0954646)
(-1.03782e-07 3.31166e-05 0.099398)
(-9.90442e-07 3.47808e-06 0.0954023)
(-3.98347e-06 -5.52948e-05 0.101344)
(-3.83578e-06 -5.52059e-05 0.101344)
(-8.20467e-07 3.52676e-06 0.0953969)
(1.50301e-08 3.33088e-05 0.0993957)
(-5.07047e-06 -1.64566e-05 0.0928192)
(-6.53968e-06 -5.1518e-05 0.0994546)
(-9.99551e-07 3.42845e-05 0.101236)
(-2.81513e-06 -1.98252e-05 0.0954593)
(-1.11551e-06 3.13983e-05 0.102813)
(-8.79006e-08 1.73079e-06 0.0983649)
(-1.33717e-06 -2.13335e-05 0.0974453)
(1.2507e-07 -5.39746e-05 0.103589)
(-8.0561e-07 2.47534e-06 0.0973841)
(-1.82006e-07 3.03227e-05 0.103489)
(-1.31806e-06 -5.49249e-05 0.102935)
(2.5959e-06 -5.43071e-05 0.102936)
(1.48562e-06 3.01557e-06 0.0973806)
(1.55204e-06 3.11563e-05 0.103491)
(9.40044e-07 -2.11549e-05 0.0984148)
(2.30438e-06 3.22754e-05 0.102814)
(1.82029e-06 -2.10069e-05 0.0974415)
(1.3347e-06 -5.33269e-05 0.103591)
(4.9707e-06 -5.46914e-05 0.101343)
(1.37191e-06 3.96629e-06 0.0953981)
(8.80335e-07 3.38742e-05 0.0993942)
(5.30479e-06 -1.62156e-05 0.0928196)
(2.07265e-06 3.47971e-05 0.101236)
(3.27269e-06 -1.95041e-05 0.0954597)
(7.38473e-06 -5.1012e-05 0.0994536)
(2.51665e-06 3.16417e-05 0.102813)
(8.82986e-07 1.82288e-06 0.098365)
(1.72722e-06 -2.13399e-05 0.0974456)
(1.36598e-06 -5.38131e-05 0.103589)
(1.42941e-06 2.59099e-06 0.0973848)
(1.73224e-06 3.05094e-05 0.103489)
(2.66196e-06 -5.47701e-05 0.102936)
(1.72597e-05 -1.61469e-05 0.0974254)
(4.63279e-05 -4.43242e-05 0.104334)
(-2.90808e-05 4.29641e-06 0.101359)
(-3.09871e-06 3.07877e-05 0.101362)
(4.4575e-05 -1.86268e-05 0.101425)
(-3.53495e-06 4.61317e-06 0.0973763)
(1.99778e-05 -4.27139e-05 0.101428)
(3.46804e-05 -1.79739e-06 0.101236)
(-1.95255e-05 -2.84447e-06 0.095455)
(3.92965e-06 -1.03818e-06 0.0953928)
(-5.50119e-05 -4.52306e-06 0.101344)
(-5.46958e-05 -1.56712e-06 0.102937)
(2.77358e-06 -6.44139e-07 0.0973806)
(3.07578e-05 -8.53956e-07 0.103491)
(-2.11473e-05 1.27414e-07 0.0984152)
(3.17761e-05 -1.62709e-06 0.102814)
(-2.11296e-05 -8.8005e-07 0.0974419)
(-5.3606e-05 -2.90706e-07 0.103591)
(3.39526e-05 -1.19471e-06 0.101236)
(-5.15686e-05 -6.40794e-06 0.099456)
(3.29409e-06 1.09135e-06 0.0927767)
(-1.97597e-05 -2.74585e-06 0.0954647)
(3.30965e-05 -4.11141e-11 0.0993967)
(3.57936e-06 -7.34898e-07 0.0954026)
(-5.52768e-05 -3.87755e-06 0.101344)
(-5.522e-05 -4.16106e-06 0.101344)
(3.72229e-06 -7.8517e-07 0.0953976)
(3.33932e-05 -2.74953e-07 0.0993946)
(-1.63382e-05 -5.06737e-06 0.0928196)
(-5.14982e-05 -6.63063e-06 0.0994539)
(3.42442e-05 -1.56134e-06 0.101236)
(-1.96954e-05 -2.67671e-06 0.0954597)
(3.14305e-05 -1.24605e-06 0.102814)
(1.91769e-06 2.16957e-07 0.0983655)
(-2.1258e-05 -8.19782e-07 0.0974457)
(-5.37421e-05 8.6459e-08 0.103589)
(2.58146e-06 -4.57686e-07 0.0973845)
(3.04142e-05 -4.37812e-07 0.10349)
(-5.48139e-05 -1.23041e-06 0.102936)
(-5.43523e-05 2.3641e-06 0.102937)
(3.08385e-05 1.10654e-06 0.103491)
(3.05352e-06 1.78561e-06 0.0973807)
(-2.10263e-05 1.19643e-06 0.0984152)
(3.2047e-05 2.01552e-06 0.102814)
(-5.34782e-05 9.89305e-07 0.103591)
(-2.0801e-05 2.25889e-06 0.0974423)
(-5.4572e-05 4.8787e-06 0.101343)
(4.07877e-06 1.77705e-06 0.0953979)
(3.3963e-05 6.80289e-07 0.0993942)
(-1.59268e-05 5.72651e-06 0.0928201)
(3.47722e-05 1.91168e-06 0.101235)
(-1.93102e-05 3.8035e-06 0.0954607)
(-5.08268e-05 7.27761e-06 0.0994536)
(3.18187e-05 2.40468e-06 0.102814)
(2.04033e-06 1.28148e-06 0.0983658)
(-5.3563e-05 1.35168e-06 0.103589)
(-2.09721e-05 2.33174e-06 0.0974461)
(3.05819e-05 1.53643e-06 0.10349)
(2.8873e-06 1.96808e-06 0.0973849)
(-5.44346e-05 2.66805e-06 0.102935)
(5.4098e-05 -6.30997e-07 0.102936)
(-3.3707e-06 -3.34697e-07 0.09738)
(-3.16498e-05 2.31339e-07 0.103489)
(2.06036e-05 -1.0533e-08 0.0984139)
(-3.24797e-05 -4.73204e-07 0.102813)
(2.05701e-05 -8.24108e-07 0.0974414)
(5.29115e-05 5.67696e-07 0.103589)
(5.49597e-05 -3.18503e-06 0.101344)
(-3.9431e-06 -3.72797e-07 0.0953978)
(-3.35558e-05 6.50721e-07 0.0993961)
(1.61446e-05 -4.72386e-06 0.0928198)
(-3.4576e-05 -3.37313e-07 0.101236)
(5.13282e-05 -5.92237e-06 0.0994548)
(1.94523e-05 -2.46178e-06 0.09546)
(5.38792e-05 2.52286e-06 0.102935)
(-3.19235e-05 2.01966e-06 0.103489)
(-3.6352e-06 1.02482e-06 0.0973798)
(2.04389e-05 6.75321e-07 0.0984138)
(-3.2795e-05 2.45031e-06 0.102812)
(5.26661e-05 1.63864e-06 0.103589)
(2.04271e-05 1.12907e-06 0.0974409)
(5.44874e-05 4.50628e-06 0.101343)
(-4.35427e-06 5.63483e-07 0.0953979)
(-3.41847e-05 1.25538e-07 0.0993943)
(1.58477e-05 4.13373e-06 0.09282)
(-3.51405e-05 1.83165e-06 0.101235)
(1.91622e-05 2.30571e-06 0.09546)
(5.0785e-05 6.55291e-06 0.0994546)
(-1.6158e-05 1.70084e-05 0.0974247)
(-4.43243e-05 4.59713e-05 0.104333)
(4.35197e-06 -2.93527e-05 0.101359)
(3.07109e-05 -3.3528e-06 0.101362)
(-1.85418e-05 4.42576e-05 0.101425)
(4.60913e-06 -3.7383e-06 0.0973766)
(-4.27645e-05 1.96135e-05 0.101428)
(-5.64189e-07 5.41405e-05 0.102936)
(5.49237e-07 -3.12899e-05 0.10349)
(-6.49875e-07 -3.32321e-06 0.0973802)
(-2.44372e-07 2.06314e-05 0.0984147)
(-3.47381e-07 -3.22643e-05 0.102814)
(8.18993e-07 5.31038e-05 0.10359)
(-1.27848e-06 2.04877e-05 0.0974421)
(-3.32079e-06 5.48234e-05 0.101344)
(-8.50385e-07 -3.99607e-06 0.0953977)
(5.25243e-07 -3.36075e-05 0.0993956)
(-5.25489e-06 1.59137e-05 0.0928204)
(-4.16332e-07 -3.45314e-05 0.101236)
(-6.07847e-06 5.11206e-05 0.0994551)
(-3.0317e-06 1.93087e-05 0.0954606)
(2.97528e-06 5.39966e-05 0.102936)
(2.48862e-06 -3.16657e-05 0.10349)
(1.14564e-06 -3.49018e-06 0.0973805)
(6.00134e-07 2.04767e-05 0.0984146)
(3.003e-06 -3.26133e-05 0.102813)
(2.03657e-06 5.2791e-05 0.10359)
(1.10424e-06 2.05163e-05 0.0974416)
(4.94229e-06 5.43858e-05 0.101344)
(7.16447e-07 -4.39423e-06 0.0953985)
(5.75428e-07 -3.41742e-05 0.0993942)
(4.12271e-06 1.59913e-05 0.0928203)
(2.37326e-06 -3.51912e-05 0.101235)
(2.33601e-06 1.91283e-05 0.0954606)
(6.88435e-06 5.07886e-05 0.0994542)
(1.66188e-05 1.6582e-05 0.0974262)
(4.60716e-05 4.52579e-05 0.104332)
(-3.48799e-06 -3.00803e-05 0.101361)
(-2.93064e-05 -3.92158e-06 0.101358)
(-4.04564e-06 -4.26205e-06 0.0973766)
(1.94702e-05 4.35171e-05 0.101428)
(4.40964e-05 1.91252e-05 0.101425)
(-5.52441e-05 -3.81113e-06 0.101345)
(3.29653e-05 8.71668e-08 0.0993992)
(3.54613e-06 -9.34206e-07 0.0954078)
(-1.62813e-05 -5.53139e-06 0.0928329)
(-1.97301e-05 -3.04316e-06 0.0954697)
(3.38139e-05 -1.0176e-06 0.101237)
(-5.15286e-05 -6.43548e-06 0.0994583)
(-1.24628e-05 2.58109e-07 0.0911541)
(-3.56106e-06 2.24797e-06 0.0713245)
(-3.03437e-06 8.93445e-06 0.107616)
(-4.89122e-06 1.59178e-05 0.0928138)
(-2.0941e-05 -1.91932e-07 0.0984123)
(-8.31914e-06 -2.15709e-06 0.110128)
(-1.23496e-05 9.5129e-07 0.0911548)
(-8.50809e-06 1.37884e-06 0.0819827)
(-2.08871e-05 8.75659e-07 0.0984124)
(-8.75571e-06 3.95181e-06 0.107614)
(-8.29028e-06 1.02779e-06 0.110127)
(-1.57926e-05 5.69663e-06 0.0928135)
(-4.46407e-05 4.57027e-05 0.104337)
(-7.20658e-06 5.43602e-06 0.0873179)
(-5.08598e-06 7.36384e-06 0.0873195)
(-2.2683e-06 3.4806e-06 0.0713239)
(-1.34851e-06 8.31586e-06 0.0819827)
(1.58187e-06 -2.62214e-07 0.0765953)
(3.80393e-07 1.53335e-07 0.0911199)
(-1.20671e-05 -1.94838e-07 0.0896626)
(-5.52107e-06 1.46333e-07 0.0783971)
(8.76331e-07 -1.78619e-07 0.089624)
(1.15482e-06 2.56518e-09 0.0783676)
(-5.32283e-06 8.95451e-07 0.0766292)
(2.14862e-06 -1.49775e-06 0.0712834)
(1.704e-06 1.15714e-06 0.0765934)
(4.18729e-07 9.00608e-07 0.0911198)
(-5.459e-06 2.69238e-07 0.0783977)
(-1.16759e-05 1.51325e-06 0.0896638)
(1.14864e-06 5.95459e-07 0.0783665)
(1.15546e-06 1.35366e-06 0.0896236)
(-5.16205e-06 -1.88574e-07 0.0766297)
(2.44652e-06 1.38717e-06 0.0681541)
(4.25769e-06 -3.55159e-07 0.0819409)
(-8.99707e-06 1.84854e-06 0.0855816)
(2.11049e-06 1.23964e-06 0.0855366)
(-3.40089e-06 -9.04931e-08 0.0682007)
(3.85874e-07 -1.75313e-07 0.0833607)
(-2.14785e-06 2.18515e-06 0.0681285)