/*--------------------------------*- C++ -*----------------------------------*\
| =========                 |                                                 |
| \\      /  F ield         | OpenFOAM: The Open Source CFD Toolbox           |
|  \\    /   O peration     | Version:  v2012                                 |
|   \\  /    A nd           | Website:  www.openfoam.com                      |
|    \\/     M anipulation  |                                                 |
\*---------------------------------------------------------------------------*/
FoamFile
{
    version     2.0;
    format      ascii;
    class       volScalarField;
    location    "1325";
    object      k;
}
// * * * * * * * * * * * * * * * * * * * * * * * * * * * * * * * * * * * * * //

dimensions      [0 2 -2 0 0 0 0];


internalField   nonuniform List<scalar> 
171728
(
1.63314e-07
2.5621e-07
3.35807e-07
3.3769e-07
1.60077e-07
2.44902e-07
3.30892e-07
3.21046e-07
1.53221e-07
2.33464e-07
3.27828e-07
3.07547e-07
1.47212e-07
2.225e-07
3.27688e-07
2.92187e-07
1.41547e-07
2.12191e-07
3.29774e-07
2.75206e-07
1.34797e-07
2.02942e-07
3.3418e-07
2.60683e-07
1.28004e-07
1.94421e-07
3.36485e-07
2.48161e-07
1.22388e-07
1.85289e-07
3.37323e-07
2.41951e-07
1.17064e-07
1.74614e-07
2.97393e-07
2.47375e-07
1.14646e-07
1.6309e-07
2.24848e-07
2.6542e-07
1.14369e-07
1.488e-07
1.6673e-07
2.81303e-07
1.12084e-07
1.41242e-07
1.40625e-07
2.80935e-07
1.07825e-07
1.41618e-07
1.36277e-07
2.07886e-07
1.04169e-07
1.481e-07
1.42061e-07
1.95005e-07
1.02475e-07
1.57943e-07
1.48798e-07
1.95249e-07
1.00951e-07
1.68942e-07
1.57621e-07
1.9608e-07
9.91055e-08
1.81268e-07
1.66454e-07
2.01196e-07
9.73248e-08
1.9839e-07
1.87746e-07
2.20054e-07
9.54943e-08
2.30417e-07
2.22894e-07
2.52403e-07
9.39883e-08
2.83703e-07
2.78838e-07
3.19449e-07
9.26848e-08
3.44788e-07
3.51781e-07
4.62179e-07
9.18017e-08
4.76675e-07
4.55074e-07
6.45894e-07
9.14959e-08
6.02519e-07
7.36232e-07
1.11658e-06
9.14152e-08
9.30465e-07
8.39303e-07
1.64493e-06
9.45202e-08
1.09477e-06
1.2606e-06
2.40509e-06
9.74527e-08
1.89798e-06
1.58251e-06
4.40047e-06
1.00017e-07
1.80238e-06
2.29746e-06
6.04729e-06
1.17616e-07
2.74773e-06
2.44224e-06
5.68682e-06
1.2793e-07
3.84215e-06
3.70221e-06
1.15877e-05
1.49017e-07
4.05469e-06
4.20541e-06
1.23262e-05
1.90472e-07
5.6678e-06
5.63325e-06
1.49929e-05
2.33673e-07
6.46393e-06
6.45579e-06
1.70016e-05
2.60647e-07
7.26171e-06
7.5791e-06
1.98293e-05
4.39353e-07
9.753e-06
9.4768e-06
2.12599e-05
5.02257e-07
1.03198e-05
1.02754e-05
2.31956e-05
6.19118e-07
1.2015e-05
1.22382e-05
2.56174e-05
8.8476e-07
1.39829e-05
1.3925e-05
2.62578e-05
1.10577e-06
1.51214e-05
1.54218e-05
2.77784e-05
1.3585e-06
1.72519e-05
1.68843e-05
2.94142e-05
1.82231e-06
1.91461e-05
1.98366e-05
3.06034e-05
2.32626e-06
2.07693e-05
2.04351e-05
3.15012e-05
2.519e-06
2.26335e-05
2.24132e-05
3.27067e-05
3.60069e-06
2.41414e-05
2.55958e-05
3.43243e-05
3.9453e-06
2.66376e-05
2.57313e-05
3.51484e-05
4.87395e-06
2.76811e-05
2.70801e-05
3.55161e-05
6.12025e-06
2.92113e-05
3.02972e-05
3.70349e-05
6.74769e-06
3.16182e-05
3.11541e-05
3.91736e-05
8.25042e-06
3.29427e-05
3.30682e-05
3.95248e-05
9.38001e-06
3.33295e-05
3.34179e-05
3.9892e-05
1.03397e-05
3.60553e-05
3.61083e-05
4.10702e-05
1.20559e-05
3.71965e-05
3.71677e-05
4.17339e-05
1.36543e-05
3.72363e-05
3.71087e-05
4.37252e-05
1.45079e-05
3.97597e-05
3.98857e-05
4.48025e-05
1.71444e-05
4.05101e-05
4.09894e-05
4.45914e-05
1.81511e-05
4.08037e-05
4.0919e-05
4.44534e-05
1.9417e-05
4.28749e-05
4.24717e-05
4.68176e-05
2.13583e-05
4.34614e-05
4.41383e-05
4.80086e-05
2.29194e-05
4.42214e-05
4.42059e-05
4.80352e-05
2.50349e-05
4.55883e-05
4.41291e-05
4.76561e-05
2.54835e-05
4.56035e-05
4.61484e-05
4.88836e-05
2.70791e-05
4.7069e-05
4.74538e-05
5.06226e-05
2.84741e-05
4.83394e-05
4.85207e-05
5.14687e-05
3.04123e-05
4.87008e-05
4.8375e-05
5.05321e-05
3.11426e-05
4.837e-05
4.81769e-05
4.97886e-05
3.17982e-05
4.97783e-05
5.00305e-05
5.23799e-05
3.32323e-05
5.15199e-05
5.15096e-05
5.4466e-05
3.48883e-05
5.16689e-05
5.14974e-05
5.38479e-05
3.62931e-05
5.12895e-05
5.1291e-05
5.25426e-05
3.64166e-05
5.17151e-05
5.2221e-05
5.34208e-05
3.6355e-05
5.29125e-05
5.29106e-05
5.49167e-05
3.83263e-05
5.34585e-05
5.37111e-05
5.51966e-05
4.0135e-05
5.42134e-05
5.40266e-05
5.5802e-05
4.06646e-05
5.46241e-05
5.35035e-05
5.56617e-05
4.04522e-05
5.3749e-05
5.4189e-05
5.48468e-05
4.08337e-05
5.3994e-05
5.56509e-05
5.65784e-05
4.28225e-05
5.63069e-05
5.552e-05
5.74007e-05
4.34164e-05
5.58945e-05
5.51485e-05
5.64989e-05
4.339e-05
5.52405e-05
5.58528e-05
5.64256e-05
4.39822e-05
5.62132e-05
5.63748e-05
5.74196e-05
4.45111e-05
5.65851e-05
5.62216e-05
5.74774e-05
4.49687e-05
5.65933e-05
5.64461e-05
5.80046e-05
4.55448e-05
5.67662e-05
5.68517e-05
5.8078e-05
4.58085e-05
5.63409e-05
5.67686e-05
5.69892e-05
4.59275e-05
5.70417e-05
5.72746e-05
5.81341e-05
4.63102e-05
5.80668e-05
5.73696e-05
5.92086e-05
4.64892e-05
5.66805e-05
5.67225e-05
5.73682e-05
4.62218e-05
5.56602e-05
5.62653e-05
5.62771e-05
4.64566e-05
5.80825e-05
5.76596e-05
5.96894e-05
4.76248e-05
5.896e-05
5.87898e-05
6.05826e-05
4.68332e-05
5.6e-05
5.62187e-05
5.61358e-05
4.57788e-05
5.52973e-05
5.50047e-05
5.59107e-05
4.70666e-05
5.75307e-05
5.79243e-05
5.96154e-05
4.78644e-05
5.79659e-05
5.8435e-05
5.95328e-05
4.64513e-05
5.62714e-05
5.57269e-05
5.67567e-05
4.57553e-05
5.46773e-05
5.44184e-05
5.6267e-05
3.57742e-07
4.39518e-07
2.11193e-07
2.74423e-07
3.352e-07
2.78364e-07
1.59791e-07
1.44995e-07
1.54346e-07
1.6804e-07
2.67866e-07
2.78216e-07
3.14559e-07
2.9192e-07
3.0301e-07
3.40368e-07
3.54164e-07
3.42679e-07
5.36215e-07
2.70657e-07
5.25684e-07
2.69561e-07
2.72377e-07
2.59958e-07
4.38958e-07
4.26159e-07
4.40674e-07
4.17561e-07
4.13557e-07
2.47743e-07
4.22511e-07
3.11079e-07
2.98693e-07
3.26038e-07
3.32343e-07
3.17038e-07
3.23807e-07
3.39842e-07
3.33833e-07
5.20161e-07
2.69449e-07
5.01277e-07
2.70142e-07
2.5785e-07
2.49724e-07
4.41295e-07
4.12692e-07
4.43625e-07
4.02434e-07
4.21816e-07
2.36249e-07
3.9135e-07
2.96479e-07
2.89659e-07
3.13227e-07
3.28106e-07
3.02144e-07
3.0975e-07
3.31349e-07
3.27584e-07
4.94069e-07
2.70779e-07
4.70516e-07
2.77692e-07
2.48303e-07
2.43382e-07
4.4488e-07
3.92984e-07
4.49603e-07
3.39097e-07
3.75742e-07
2.25204e-07
3.24441e-07
2.87235e-07
2.78563e-07
2.99029e-07
3.27525e-07
2.89515e-07
2.93687e-07
3.25594e-07
3.23027e-07
4.6418e-07
2.81617e-07
4.3544e-07
2.93014e-07
2.42651e-07
2.40692e-07
4.51535e-07
3.17298e-07
4.57758e-07
2.52914e-07
3.07369e-07
2.14673e-07
2.59756e-07
2.76528e-07
2.67541e-07
2.8643e-07
3.2931e-07
2.80193e-07
2.7636e-07
3.20607e-07
3.09168e-07
4.18893e-07
2.95764e-07
3.50022e-07
2.98914e-07
2.40184e-07
2.36405e-07
4.58871e-07
2.33307e-07
4.58338e-07
1.90247e-07
2.45031e-07
2.05092e-07
2.05635e-07
2.65022e-07
2.53861e-07
2.79136e-07
3.33204e-07
2.78222e-07
2.61507e-07
3.03703e-07
2.81459e-07
3.22849e-07
2.9864e-07
2.43623e-07
2.8212e-07
2.35147e-07
2.25149e-07
4.57461e-07
1.81126e-07
4.50348e-07
1.63838e-07
1.95366e-07
1.9656e-07
1.73395e-07
2.51662e-07
2.42173e-07
2.785e-07
3.3576e-07
2.89069e-07
2.48877e-07
2.75989e-07
2.39053e-07
2.19286e-07
2.71762e-07
1.65993e-07
2.39989e-07
2.24134e-07
2.1165e-07
4.42558e-07
1.60153e-07
3.96375e-07
1.52436e-07
1.68425e-07
1.87714e-07
1.60103e-07
2.40482e-07
2.32932e-07
2.95653e-07
3.37814e-07
3.18468e-07
2.41942e-07
2.35626e-07
2.06654e-07
1.55537e-07
2.32652e-07
1.36591e-07
2.22527e-07
2.10749e-07
2.02781e-07
3.74807e-07
1.50766e-07
3.10407e-07
1.4859e-07
1.5862e-07
1.77329e-07
1.5404e-07
2.31783e-07
2.09154e-07
3.27501e-07
3.12429e-07
3.664e-07
2.46535e-07
2.05689e-07
2.01516e-07
1.32561e-07
2.2187e-07
1.26131e-07
2.23236e-07
2.02227e-07
1.96597e-07
2.93146e-07
1.48546e-07
2.61507e-07
1.50236e-07
1.52533e-07
1.66237e-07
1.4871e-07
2.06763e-07
1.91868e-07
3.86018e-07
2.43246e-07
4.66595e-07
2.6421e-07
2.01779e-07
2.00652e-07
1.257e-07
2.27338e-07
1.26008e-07
2.4567e-07
1.96839e-07
1.97707e-07
2.57265e-07
1.51999e-07
2.5474e-07
1.55894e-07
1.47618e-07
1.52269e-07
1.44549e-07
1.91497e-07
1.79663e-07
4.95706e-07
1.78203e-07
5.60449e-07
2.8131e-07
2.01164e-07
2.01486e-07
1.2653e-07
2.52639e-07
1.28632e-07
2.7672e-07
1.98276e-07
1.99884e-07
2.5525e-07
1.56591e-07
2.62349e-07
1.57139e-07
1.43711e-07
1.41949e-07
1.41704e-07
1.7889e-07
1.71135e-07
5.70364e-07
1.44656e-07
5.73091e-07
2.83675e-07
2.02212e-07
2.0133e-07
1.29629e-07
2.85494e-07
1.33618e-07
3.13834e-07
2.00702e-07
2.05198e-07
2.63416e-07
1.56813e-07
2.62105e-07
1.53353e-07
1.41187e-07
1.41247e-07
1.40816e-07
1.71235e-07
1.67535e-07
5.608e-07
1.36269e-07
4.26038e-07
2.11042e-07
2.01639e-07
1.95825e-07
1.3527e-07
3.2368e-07
1.41306e-07
3.51639e-07
2.06747e-07
2.12555e-07
2.56027e-07
1.52604e-07
2.24146e-07
1.49298e-07
1.40934e-07
1.46249e-07
1.43839e-07
1.67871e-07
1.65318e-07
3.88161e-07
1.39556e-07
3.01666e-07
1.94406e-07
1.95879e-07
1.88411e-07
1.43592e-07
3.59079e-07
1.50362e-07
3.73848e-07
2.14107e-07
2.17988e-07
2.14617e-07
1.48517e-07
1.91188e-07
1.48757e-07
1.45537e-07
1.5581e-07
1.51687e-07
1.65887e-07
1.65794e-07
2.8271e-07
1.47156e-07
2.56208e-07
1.94348e-07
1.88913e-07
1.86451e-07
1.52856e-07
3.76357e-07
1.6021e-07
3.80302e-07
2.19377e-07
2.23299e-07
1.861e-07
1.49104e-07
1.8023e-07
1.55175e-07
1.54283e-07
1.66034e-07
1.61784e-07
1.67004e-07
1.70701e-07
2.54738e-07
1.54107e-07
2.507e-07
1.9467e-07
1.87822e-07
1.90589e-07
1.63157e-07
3.81015e-07
1.71967e-07
3.83812e-07
2.24933e-07
2.29514e-07
1.80259e-07
1.61481e-07
1.82419e-07
1.76038e-07
1.6466e-07
1.76101e-07
1.74359e-07
1.74138e-07
1.82521e-07
2.47679e-07
1.63952e-07
2.37717e-07
1.98357e-07
1.9377e-07
2.02954e-07
1.75154e-07
3.86457e-07
1.89019e-07
4.06814e-07
2.3466e-07
2.52246e-07
1.83657e-07
1.92675e-07
1.92126e-07
2.51018e-07
1.78406e-07
1.95703e-07
1.91916e-07
1.86597e-07
2.19872e-07
2.34926e-07
1.83809e-07
2.35888e-07
2.13557e-07
2.09327e-07
2.34768e-07
1.93881e-07
4.09104e-07
2.18038e-07
4.02229e-07
2.55405e-07
2.66951e-07
1.96331e-07
2.62103e-07
2.19238e-07
3.23633e-07
1.97843e-07
2.20407e-07
2.18239e-07
2.30755e-07
2.53295e-07
2.38055e-07
2.12278e-07
2.5158e-07
2.42478e-07
2.47009e-07
2.85524e-07
2.26942e-07
4.02975e-07
2.59474e-07
4.03797e-07
2.79322e-07
3.29759e-07
2.26126e-07
3.53815e-07
2.54891e-07
4.54691e-07
2.26271e-07
2.63594e-07
2.63898e-07
2.68146e-07
3.40293e-07
2.57024e-07
2.57617e-07
2.88055e-07
3.01255e-07
3.10614e-07
4.02634e-07
2.78733e-07
4.02854e-07
3.26372e-07
4.11868e-07
3.52819e-07
4.01153e-07
2.73956e-07
5.0188e-07
3.30446e-07
6.0574e-07
2.75585e-07
3.22821e-07
3.31721e-07
3.64436e-07
4.71577e-07
2.98752e-07
3.22506e-07
3.51263e-07
4.1787e-07
4.28476e-07
6.22932e-07
3.47054e-07
4.13427e-07
4.35643e-07
5.08345e-07
4.17192e-07
6.64473e-07
3.48202e-07
6.316e-07
4.32468e-07
6.79789e-07
3.58946e-07
4.33733e-07
4.27524e-07
5.1658e-07
6.59256e-07
3.76358e-07
4.4507e-07
4.43779e-07
6.0402e-07
6.88603e-07
9.23688e-07
4.73123e-07
5.64135e-07
5.73056e-07
7.04461e-07
7.65732e-07
9.56224e-07
4.74328e-07
6.88659e-07
5.66563e-07
8.43348e-07
4.43967e-07
5.88055e-07
6.11806e-07
6.74096e-07
1.23982e-06
4.58893e-07
6.13501e-07
6.21518e-07
9.79117e-07
9.90886e-07
1.57745e-06
6.21639e-07
7.61285e-07
8.23772e-07
1.03762e-06
9.8736e-07
1.62793e-06
6.01651e-07
9.23466e-07
8.1033e-07
9.19472e-07
6.61289e-07
8.29317e-07
7.88584e-07
1.54641e-06
1.45707e-06
6.73001e-07
8.40717e-07
7.98279e-07
1.49904e-06
1.78353e-06
2.29582e-06
8.89449e-07
1.0934e-06
1.08151e-06
1.21013e-06
1.91045e-06
2.18341e-06
8.77991e-07
8.89781e-07
1.06963e-06
1.14662e-06
9.00522e-07
1.03439e-06
1.0834e-06
1.40326e-06
2.36336e-06
9.04055e-07
1.06756e-06
1.08913e-06
2.36794e-06
2.41682e-06
3.6456e-06
1.14789e-06
1.36175e-06
1.55214e-06
2.1722e-06
2.25002e-06
5.5792e-06
1.1525e-06
1.4599e-06
1.52195e-06
1.8778e-06
1.10329e-06
1.82026e-06
1.52547e-06
2.99824e-06
3.82375e-06
1.1116e-06
1.45562e-06
1.52708e-06
3.57552e-06
4.06507e-06
5.22915e-06
1.73082e-06
2.18021e-06
1.94731e-06
1.66185e-06
5.73897e-06
3.57906e-06
1.68065e-06
2.12174e-06
1.95646e-06
2.4886e-06
1.80427e-06
1.81112e-06
2.13182e-06
3.916e-06
6.53602e-06
1.79131e-06
2.24945e-06
2.15397e-06
6.08731e-06
5.36723e-06
6.79837e-06
1.97571e-06
1.61669e-06
2.52486e-06
2.5373e-06
3.47268e-06
6.70851e-06
2.0063e-06
2.47765e-06
2.57778e-06
2.31122e-06
2.12987e-06
2.38915e-06
2.17045e-06
6.6311e-06
5.58981e-06
2.15655e-06
2.33175e-06
2.19464e-06
5.29355e-06
7.44295e-06
9.92126e-06
2.84725e-06
3.34309e-06
3.43103e-06
4.45348e-06
8.1122e-06
1.13404e-05
2.81028e-06
2.33642e-06
3.22524e-06
3.4453e-06
2.34987e-06
3.65853e-06
3.6656e-06
5.65977e-06
1.08017e-05
2.35308e-06
3.55845e-06
3.60759e-06
1.08308e-05
1.02529e-05
1.16013e-05
3.57645e-06
4.4888e-06
4.13167e-06
4.36985e-06
1.15175e-05
1.15539e-05
3.43803e-06
3.79304e-06
4.2229e-06
4.37055e-06
3.84445e-06
3.99993e-06
4.07641e-06
1.14206e-05
1.16819e-05
3.77475e-06
3.94132e-06
4.14789e-06
1.21794e-05
1.21008e-05
1.44476e-05
4.27171e-06
4.36384e-06
5.05886e-06
4.94289e-06
1.16866e-05
1.39931e-05
4.34691e-06
4.55748e-06
5.00861e-06
5.42579e-06
4.29255e-06
5.12061e-06
5.12159e-06
1.18133e-05
1.45791e-05
4.36633e-06
5.29568e-06
5.16145e-06
1.43572e-05
1.5041e-05
1.71954e-05
5.53133e-06
5.55384e-06
6.46051e-06
6.47584e-06
1.50215e-05
1.75135e-05
5.4741e-06
5.75968e-06
6.45358e-06
6.33421e-06
5.38012e-06
6.42593e-06
6.19201e-06
1.54225e-05
1.7137e-05
5.40033e-06
6.2986e-06
6.1726e-06
1.65729e-05
1.74624e-05
1.7879e-05
6.52451e-06
6.55454e-06
6.81998e-06
6.8699e-06
1.76353e-05
1.79314e-05
6.52884e-06
6.45899e-06
6.81518e-06
7.13027e-06
6.39512e-06
6.81516e-06
7.38688e-06
1.73546e-05
1.83965e-05
6.43608e-06
7.12308e-06
7.43423e-06
1.92487e-05
1.83129e-05
2.18413e-05
7.25639e-06
7.27134e-06
9.13704e-06
9.20672e-06
1.84746e-05
2.17779e-05
7.22409e-06
7.5087e-06
9.11019e-06
9.04256e-06
7.92606e-06
9.26164e-06
8.91177e-06
1.8989e-05
2.15144e-05
7.95053e-06
9.14405e-06
8.99865e-06
2.10185e-05
2.24822e-05
2.31065e-05
9.72718e-06
9.6828e-06
1.0481e-05
1.02508e-05
2.23429e-05
2.31093e-05
9.6613e-06
9.44373e-06
1.03155e-05
1.02166e-05
8.99269e-06
1.02303e-05
9.57987e-06
2.20098e-05
2.29381e-05
9.07965e-06
1.00044e-05
9.43032e-06
2.25695e-05
2.32707e-05
2.42773e-05
1.05332e-05
1.04425e-05
1.12609e-05
1.15778e-05
2.33498e-05
2.43333e-05
1.0393e-05
1.05241e-05
1.13601e-05
1.16393e-05
1.02753e-05
1.14919e-05
1.24837e-05
2.32341e-05
2.44612e-05
9.99255e-06
1.17589e-05
1.27327e-05
2.53075e-05
2.47815e-05
2.6341e-05
1.19066e-05
1.2034e-05
1.3554e-05
1.34469e-05
2.47747e-05
2.63961e-05
1.19067e-05
1.1987e-05
1.34166e-05
1.32518e-05
1.28548e-05
1.35047e-05
1.31787e-05
2.49024e-05
2.63674e-05
1.33015e-05
1.33812e-05
1.37989e-05
2.60303e-05
2.67129e-05
2.76347e-05
1.39392e-05
1.39509e-05
1.49594e-05
1.49606e-05
2.6761e-05
2.74083e-05
1.38556e-05
1.39728e-05
1.51855e-05
1.57466e-05
1.33326e-05
1.49249e-05
1.47352e-05
2.67983e-05
2.76932e-05
1.38143e-05
1.5249e-05
1.41332e-05
2.73094e-05
2.79175e-05
2.86968e-05
1.54196e-05
1.51696e-05
1.67491e-05
1.65654e-05
2.76521e-05
2.88844e-05
1.56199e-05
1.59234e-05
1.64206e-05
1.61213e-05
1.53252e-05
1.65078e-05
1.69372e-05
2.78804e-05
2.86423e-05
1.47963e-05
1.63354e-05
1.70146e-05
2.91262e-05
2.90022e-05
3.03682e-05
1.70922e-05
1.7309e-05
1.84734e-05
1.8922e-05
2.93301e-05
3.03008e-05
1.66955e-05
1.63433e-05
1.86364e-05
1.89805e-05
1.73098e-05
1.88974e-05
1.88477e-05
2.91225e-05
3.04821e-05
1.74751e-05
1.92243e-05
1.901e-05
3.03078e-05
3.07821e-05
3.14702e-05
1.92048e-05
1.91549e-05
2.07902e-05
2.0143e-05
3.05171e-05
3.1317e-05
1.94819e-05
1.95021e-05
2.072e-05
1.99267e-05
1.92843e-05
2.01803e-05
2.02925e-05
3.06821e-05
3.09438e-05
1.94175e-05
2.04007e-05
2.03186e-05
3.12837e-05
3.15835e-05
3.20957e-05
2.09226e-05
2.07438e-05
2.1615e-05
2.24429e-05
3.16703e-05
3.25974e-05
2.07822e-05
2.01162e-05
2.13414e-05
2.28312e-05
2.06459e-05
2.23857e-05
2.18884e-05
3.11714e-05
3.28691e-05
2.06094e-05
2.12813e-05
2.17987e-05
3.23399e-05
3.25171e-05
3.40629e-05
2.22219e-05
2.27268e-05
2.43581e-05
2.35927e-05
3.27847e-05
3.34325e-05
2.21667e-05
2.38202e-05
2.46233e-05
2.57199e-05
2.24722e-05
2.35291e-05
2.42175e-05
3.33745e-05
3.44368e-05
2.23841e-05
2.51725e-05
2.42505e-05
3.40376e-05
3.42715e-05
3.45009e-05
2.48728e-05
2.42007e-05
2.5476e-05
2.61556e-05
3.37825e-05
3.51474e-05
2.50653e-05
2.58719e-05
2.54106e-05
2.57227e-05
2.47515e-05
2.6198e-05
2.62131e-05
3.4575e-05
3.44637e-05
2.48842e-05
2.57702e-05
2.62146e-05
3.49869e-05
3.46585e-05
3.59231e-05
2.57059e-05
2.65432e-05
2.74564e-05
2.72726e-05
3.53626e-05
3.57041e-05
2.5521e-05
2.55679e-05
2.72729e-05
2.57672e-05
2.65316e-05
2.73531e-05
2.70286e-05
3.45055e-05
3.51084e-05
2.63698e-05
2.61093e-05
2.67898e-05
3.53972e-05
3.63341e-05
3.71431e-05
2.81703e-05
2.76613e-05
2.94142e-05
2.89347e-05
3.58684e-05
3.68062e-05
2.80679e-05
2.66432e-05
2.94941e-05
2.9993e-05
2.72082e-05
2.88182e-05
2.85511e-05
3.56361e-05
3.75908e-05
2.70474e-05
2.98841e-05
2.86292e-05
3.65069e-05
3.72741e-05
3.79025e-05
2.96305e-05
2.93275e-05
3.05596e-05
3.10024e-05
3.71017e-05
3.83266e-05
2.97322e-05
3.04125e-05
3.05677e-05
3.10749e-05
2.92832e-05
3.09364e-05
3.13555e-05
3.77841e-05
3.81448e-05
2.93804e-05
3.07856e-05
3.15466e-05
3.89237e-05
3.82116e-05
3.94561e-05
3.10742e-05
3.16247e-05
3.27641e-05
3.27698e-05
3.86573e-05
3.92893e-05
3.10445e-05
3.1463e-05
3.27728e-05
3.28491e-05
3.19309e-05
3.28629e-05
3.32244e-05
3.83556e-05
3.94172e-05
3.21666e-05
3.27978e-05
3.30334e-05
3.9468e-05
3.96751e-05
3.9968e-05
3.31871e-05
3.28595e-05
3.36916e-05
3.31444e-05
3.93409e-05
3.94794e-05
3.3214e-05
3.31807e-05
3.36904e-05
3.35765e-05
3.34068e-05
3.308e-05
3.35412e-05
3.95679e-05
3.9673e-05
3.30613e-05
3.32715e-05
3.31478e-05
3.97401e-05
4.00696e-05
4.0971e-05
3.38126e-05
3.34989e-05
3.50478e-05
3.53159e-05
3.97248e-05
4.14134e-05
3.38068e-05
3.37378e-05
3.50613e-05
3.49265e-05
3.35948e-05
3.53235e-05
3.47483e-05
3.97889e-05
4.12689e-05
3.3325e-05
3.53194e-05
3.5336e-05
4.08415e-05
4.13136e-05
4.22269e-05
3.55679e-05
3.60266e-05
3.67311e-05
3.71504e-05
4.17837e-05
4.24077e-05
3.55692e-05
3.55799e-05
3.67261e-05
3.72107e-05
3.52613e-05
3.71707e-05
3.61878e-05
4.168e-05
4.24346e-05
3.58233e-05
3.71647e-05
3.62243e-05
4.15485e-05
4.2366e-05
4.28058e-05
3.70463e-05
3.7184e-05
3.7677e-05
3.71715e-05
4.2429e-05
4.22372e-05
3.70699e-05
3.73757e-05
3.77476e-05
3.74102e-05
3.65153e-05
3.71701e-05
3.81667e-05
4.24579e-05
4.21983e-05
3.62797e-05
3.70727e-05
3.74165e-05
4.33022e-05
4.29532e-05
4.36422e-05
3.77851e-05
3.72499e-05
3.86656e-05
3.9053e-05
4.23909e-05
4.41826e-05
3.78254e-05
3.74302e-05
3.85956e-05
3.88777e-05
3.87177e-05
3.91479e-05
3.99471e-05
4.22934e-05
4.42343e-05
3.81133e-05
3.89981e-05
3.97594e-05
4.47142e-05
4.39303e-05
4.51045e-05
3.92365e-05
3.9606e-05
4.06291e-05
4.0488e-05
4.44976e-05
4.48367e-05
3.91778e-05
3.96856e-05
4.06981e-05
4.07229e-05
4.01032e-05
4.04858e-05
4.009e-05
4.47044e-05
4.51737e-05
4.01546e-05
4.09723e-05
4.07351e-05
4.45974e-05
4.52054e-05
4.51534e-05
4.07784e-05
4.05867e-05
4.08847e-05
4.07826e-05
4.48718e-05
4.50766e-05
4.08714e-05
4.07402e-05
4.09461e-05
4.07069e-05
3.99431e-05
4.06071e-05
3.98369e-05
4.51593e-05
4.48036e-05
4.07426e-05
4.09088e-05
4.06397e-05
4.43276e-05
4.52173e-05
4.62012e-05
4.09933e-05
4.09826e-05
4.21574e-05
4.23036e-05
4.52633e-05
4.64597e-05
4.09968e-05
4.07663e-05
4.21044e-05
4.2186e-05
4.00083e-05
4.2388e-05
4.25571e-05
4.4915e-05
4.63605e-05
4.06415e-05
4.18571e-05
4.15138e-05
4.63405e-05
4.64253e-05
4.68445e-05
4.24723e-05
4.27346e-05
4.3023e-05
4.32363e-05
4.67167e-05
4.697e-05
4.24357e-05
4.26235e-05
4.30233e-05
4.34758e-05
4.32516e-05
4.34437e-05
4.42612e-05
4.6699e-05
4.74397e-05
4.22664e-05
4.3894e-05
4.3929e-05
4.79142e-05
4.69854e-05
4.8049e-05
4.3241e-05
4.32663e-05
4.43539e-05
4.38142e-05
4.69918e-05
4.7502e-05
4.32808e-05
4.37069e-05
4.45157e-05
4.41894e-05
4.43398e-05
4.37138e-05
4.43474e-05
4.75415e-05
4.76196e-05
4.43102e-05
4.42662e-05
4.47838e-05
4.80231e-05
4.83132e-05
4.86151e-05
4.48118e-05
4.44081e-05
4.5493e-05
4.56195e-05
4.78528e-05
4.88058e-05
4.48921e-05
4.42384e-05
4.52942e-05
4.45472e-05
4.43389e-05
4.55087e-05
4.43991e-05
4.76326e-05
4.75579e-05
4.47806e-05
4.40685e-05
4.44723e-05
4.76437e-05
4.86182e-05
4.84391e-05
4.54965e-05
4.5681e-05
4.54201e-05
4.56121e-05
4.88335e-05
4.8537e-05
4.52917e-05
4.49217e-05
4.53463e-05
4.6205e-05
4.45094e-05
4.5576e-05
4.55047e-05
4.77152e-05
4.919e-05
4.44096e-05
4.56492e-05
4.47734e-05
4.85031e-05
4.85874e-05
4.99458e-05
4.54605e-05
4.56204e-05
4.68544e-05
4.66589e-05
4.85783e-05
4.98661e-05
4.55838e-05
4.64282e-05
4.69971e-05
4.66327e-05
4.58917e-05
4.67012e-05
4.69698e-05
4.94487e-05
4.98494e-05
4.55098e-05
4.71581e-05
4.75529e-05
5.03306e-05
5.01218e-05
5.02744e-05
4.72124e-05
4.71007e-05
4.75324e-05
4.79391e-05
5.01359e-05
5.07979e-05
4.71921e-05
4.67337e-05
4.74057e-05
4.78438e-05
4.73482e-05
4.7998e-05
4.84398e-05
4.99582e-05
5.08795e-05
4.8075e-05
4.83805e-05
4.87934e-05
5.14234e-05
5.03794e-05
5.13631e-05
4.76906e-05
4.82462e-05
4.88296e-05
4.86641e-05
5.09716e-05
5.1128e-05
4.7598e-05
4.82526e-05
4.88363e-05
4.87304e-05
4.86212e-05
4.87183e-05
4.86187e-05
5.10544e-05
5.0991e-05
4.88048e-05
4.85112e-05
4.83626e-05
5.06556e-05
5.14517e-05
5.12092e-05
4.89816e-05
4.86538e-05
4.89472e-05
4.84351e-05
5.10996e-05
5.05744e-05
4.899e-05
4.87241e-05
4.89653e-05
4.86112e-05
4.84414e-05
4.83805e-05
4.79005e-05
5.09612e-05
5.07078e-05
4.79509e-05
4.81477e-05
4.73375e-05
4.97316e-05
5.12158e-05
5.18132e-05
4.89122e-05
4.84392e-05
4.92561e-05
4.9396e-05
5.06128e-05
5.19405e-05
4.89438e-05
4.86312e-05
4.93866e-05
4.95797e-05
4.78945e-05
4.91544e-05
4.89972e-05
5.08281e-05
5.21267e-05
4.73437e-05
4.94451e-05
4.89848e-05
5.17872e-05
5.20573e-05
5.26182e-05
4.96324e-05
4.9888e-05
5.04525e-05
5.09944e-05
5.22966e-05
5.34114e-05
4.97326e-05
4.998e-05
5.02962e-05
5.08259e-05
4.98735e-05
5.12438e-05
5.18324e-05
5.24342e-05
5.33099e-05
4.99851e-05
5.13293e-05
5.19873e-05
5.43187e-05
5.27636e-05
5.35299e-05
5.07287e-05
5.12527e-05
5.15254e-05
5.14983e-05
5.35546e-05
5.34629e-05
5.05224e-05
5.09931e-05
5.14821e-05
5.12445e-05
5.21168e-05
5.16988e-05
5.22014e-05
5.33826e-05
5.3203e-05
5.22207e-05
5.15641e-05
5.22204e-05
5.39827e-05
5.36715e-05
5.39166e-05
5.16962e-05
5.14879e-05
5.18886e-05
5.13655e-05
5.34312e-05
5.30367e-05
5.17767e-05
5.12934e-05
5.22243e-05
5.14951e-05
5.20505e-05
5.13288e-05
5.10494e-05
5.31964e-05
5.31573e-05
5.19703e-05
5.12883e-05
5.10185e-05
5.25635e-05
5.39518e-05
5.38548e-05
5.18989e-05
5.13688e-05
5.19993e-05
5.18982e-05
5.30591e-05
5.37171e-05
5.22427e-05
5.15975e-05
5.21063e-05
5.20996e-05
5.08786e-05
5.1422e-05
5.08709e-05
5.32578e-05
5.39488e-05
5.09267e-05
5.18528e-05
5.11434e-05
5.30865e-05
5.38349e-05
5.34111e-05
5.20434e-05
5.21764e-05
5.20562e-05
5.27093e-05
5.39215e-05
5.44533e-05
5.19444e-05
5.22806e-05
5.16905e-05
5.25392e-05
5.11106e-05
5.26346e-05
5.27668e-05
5.41105e-05
5.44075e-05
5.16738e-05
5.2803e-05
5.29494e-05
5.47606e-05
5.34287e-05
5.47715e-05
5.20908e-05
5.27979e-05
5.29937e-05
5.29679e-05
5.45509e-05
5.48012e-05
5.17033e-05
5.26232e-05
5.28836e-05
5.34102e-05
5.31286e-05
5.33856e-05
5.37072e-05
5.4475e-05
5.52552e-05
5.31629e-05
5.3468e-05
5.34306e-05
5.51511e-05
5.51824e-05
5.64255e-05
5.3461e-05
5.31173e-05
5.45503e-05
5.40452e-05
5.48666e-05
5.55784e-05
5.35298e-05
5.37567e-05
5.47957e-05
5.42308e-05
5.37794e-05
5.39439e-05
5.40829e-05
5.54755e-05
5.5724e-05
5.34929e-05
5.40375e-05
5.40811e-05
5.56669e-05
5.64884e-05
5.58673e-05
5.46781e-05
5.43762e-05
5.46324e-05
5.47368e-05
5.581e-05
5.62503e-05
5.4902e-05
5.4226e-05
5.47478e-05
5.37483e-05
5.42118e-05
5.46312e-05
5.42978e-05
5.56867e-05
5.46989e-05
5.4236e-05
5.35926e-05
5.42732e-05
5.57296e-05
5.56985e-05
5.47113e-05
5.44187e-05
5.47178e-05
5.37153e-05
5.39214e-05
5.62358e-05
5.49921e-05
5.43722e-05
5.3559e-05
5.35237e-05
5.35042e-05
5.42482e-05
5.4001e-05
5.37409e-05
5.46398e-05
5.5084e-05
5.41687e-05
5.36908e-05
5.37352e-05
5.48425e-05
5.47181e-05
5.6021e-05
5.36764e-05
5.36725e-05
5.41677e-05
5.36653e-05
5.48615e-05
5.5043e-05
5.34915e-05
5.37056e-05
5.41706e-05
5.52919e-05
5.37043e-05
5.3702e-05
5.42294e-05
5.5466e-05
5.71415e-05
5.37339e-05
5.54838e-05
5.4645e-05
5.61861e-05
5.64216e-05
5.72935e-05
5.48225e-05
5.40296e-05
5.5949e-05
5.60917e-05
5.54795e-05
5.76855e-05
5.48743e-05
5.55896e-05
5.59148e-05
5.5734e-05
5.49054e-05
5.60616e-05
5.602e-05
5.72449e-05
5.6784e-05
5.52061e-05
5.56635e-05
5.59168e-05
5.74061e-05
5.72973e-05
5.67444e-05
5.60106e-05
5.63152e-05
5.5834e-05
5.62218e-05
5.78023e-05
5.717e-05
5.59557e-05
5.56483e-05
5.57587e-05
5.5271e-05
5.60644e-05
5.62337e-05
5.57658e-05
5.66727e-05
5.61363e-05
5.59223e-05
5.51564e-05
5.555e-05
5.65778e-05
5.67051e-05
5.66372e-05
5.56524e-05
5.58807e-05
5.54482e-05
5.52812e-05
5.69814e-05
5.61977e-05
5.56276e-05
5.52613e-05
5.55389e-05
5.5647e-05
5.552e-05
5.52491e-05
5.52348e-05
5.61643e-05
5.70409e-05
5.53776e-05
5.55531e-05
5.52448e-05
5.63231e-05
5.67168e-05
5.72116e-05
5.54571e-05
5.52742e-05
5.59193e-05
5.58438e-05
5.62115e-05
5.72293e-05
5.55752e-05
5.59435e-05
5.61158e-05
5.63858e-05
5.52471e-05
5.58404e-05
5.59559e-05
5.72358e-05
5.75367e-05
5.52892e-05
5.63504e-05
5.61092e-05
5.73034e-05
5.72709e-05
5.7289e-05
5.60935e-05
5.61849e-05
5.63741e-05
5.65231e-05
5.74349e-05
5.76339e-05
5.62045e-05
5.63968e-05
5.62163e-05
5.62299e-05
5.62342e-05
5.65866e-05
5.65318e-05
5.753e-05
5.71735e-05
5.62941e-05
5.62705e-05
5.64127e-05
5.74721e-05
5.73029e-05
5.74878e-05
5.64173e-05
5.65196e-05
5.64872e-05
5.64776e-05
5.76184e-05
5.74891e-05
5.61982e-05
5.61508e-05
5.62695e-05
5.61437e-05
5.65496e-05
5.65689e-05
5.67947e-05
5.7165e-05
5.7361e-05
5.64134e-05
5.62673e-05
5.66452e-05
5.7856e-05
5.75742e-05
5.78762e-05
5.65248e-05
5.64872e-05
5.67446e-05
5.6713e-05
5.75292e-05
5.78043e-05
5.64356e-05
5.62598e-05
5.69049e-05
5.6821e-05
5.6915e-05
5.67711e-05
5.69937e-05
5.7502e-05
5.78542e-05
5.68675e-05
5.68486e-05
5.70461e-05
5.81528e-05
5.79063e-05
5.78473e-05
5.68059e-05
5.67258e-05
5.68327e-05
5.65551e-05
5.78167e-05
5.732e-05
5.69645e-05
5.68757e-05
5.69616e-05
5.68872e-05
5.6944e-05
5.64221e-05
5.62616e-05
5.78532e-05
5.76898e-05
5.7003e-05
5.67681e-05
5.63761e-05
5.7025e-05
5.78528e-05
5.80203e-05
5.68297e-05
5.6507e-05
5.69568e-05
5.67194e-05
5.72879e-05
5.78595e-05
5.69326e-05
5.68924e-05
5.69302e-05
5.71216e-05
5.61684e-05
5.65401e-05
5.64004e-05
5.7718e-05
5.83022e-05
5.63023e-05
5.70996e-05
5.65629e-05
5.77761e-05
5.80836e-05
5.80874e-05
5.70754e-05
5.71511e-05
5.72546e-05
5.79122e-05
5.81787e-05
5.9214e-05
5.69697e-05
5.71874e-05
5.7045e-05
5.71959e-05
5.6953e-05
5.80413e-05
5.80111e-05
5.83896e-05
5.82551e-05
5.70775e-05
5.7398e-05
5.78772e-05
5.91995e-05
5.80805e-05
5.7958e-05
5.72584e-05
5.79276e-05
5.71833e-05
5.72984e-05
5.92317e-05
5.78905e-05
5.70421e-05
5.71426e-05
5.70228e-05
5.69263e-05
5.80338e-05
5.7362e-05
5.72679e-05
5.82145e-05
5.77102e-05
5.78792e-05
5.69267e-05
5.70418e-05
5.77037e-05
5.79536e-05
5.75735e-05
5.70489e-05
5.67172e-05
5.65059e-05
5.57686e-05
5.75584e-05
5.62813e-05
5.70104e-05
5.68559e-05
5.68203e-05
5.6583e-05
5.6587e-05
5.56594e-05
5.56502e-05
5.76801e-05
5.73057e-05
5.64796e-05
5.62763e-05
5.57295e-05
5.62325e-05
5.75627e-05
5.81425e-05
5.64547e-05
5.5761e-05
5.67841e-05
5.70415e-05
5.63009e-05
5.87355e-05
5.67769e-05
5.65601e-05
5.6938e-05
5.69113e-05
5.56639e-05
5.71924e-05
5.74531e-05
5.73085e-05
5.82349e-05
5.57489e-05
5.69825e-05
5.74941e-05
5.91342e-05
5.84625e-05
5.94906e-05
5.738e-05
5.78969e-05
5.83694e-05
5.89107e-05
5.92567e-05
6.03728e-05
5.73269e-05
5.74349e-05
5.8086e-05
5.84338e-05
5.8372e-05
5.9015e-05
5.92385e-05
5.85898e-05
5.99324e-05
5.83677e-05
5.87822e-05
5.9243e-05
6.07623e-05
5.94928e-05
5.73512e-05
5.83733e-05
5.88807e-05
5.70942e-05
5.70105e-05
6.0285e-05
5.7181e-05
5.80845e-05
5.84499e-05
5.68758e-05
5.72286e-05
5.91453e-05
5.67907e-05
5.6454e-05
5.99483e-05
5.76022e-05
5.91635e-05
5.72499e-05
5.65036e-05
5.66138e-05
5.69558e-05
5.6128e-05
5.63036e-05
5.6192e-05
5.54087e-05
5.52814e-05
5.67779e-05
5.60375e-05
5.61787e-05
5.63021e-05
5.54814e-05
5.51838e-05
5.55964e-05
5.52419e-05
5.49048e-05
5.70831e-05
5.56741e-05
5.55795e-05
5.4972e-05
5.47858e-05
5.5496e-05
5.6349e-05
5.91466e-05
5.545e-05
5.53129e-05
5.72207e-05
5.68344e-05
5.62579e-05
5.85272e-05
5.55535e-05
5.5219e-05
5.75521e-05
5.72314e-05
5.50302e-05
5.69732e-05
5.7421e-05
5.57728e-05
5.8913e-05
5.49019e-05
5.70919e-05
5.74584e-05
5.92417e-05
5.94829e-05
5.94213e-05
5.78434e-05
5.74398e-05
5.82258e-05
5.79827e-05
5.88289e-05
5.91587e-05
5.81152e-05
5.79909e-05
5.83529e-05
5.84896e-05
5.80613e-05
5.80087e-05
5.84953e-05
5.93626e-05
5.98259e-05
5.81718e-05
5.85496e-05
5.86466e-05
5.98139e-05
5.90935e-05
5.65865e-05
5.80726e-05
5.79432e-05
5.61515e-05
5.66632e-05
5.90292e-05
5.74265e-05
5.80891e-05
5.83285e-05
5.58878e-05
5.60605e-05
5.83746e-05
5.66985e-05
5.64398e-05
5.95268e-05
5.67579e-05
5.85058e-05
5.62681e-05
5.63444e-05
5.70064e-05
5.64347e-05
5.67905e-05
5.5785e-05
5.62544e-05
5.55846e-05
5.57177e-05
5.72559e-05
5.68476e-05
5.55472e-05
5.55861e-05
5.54321e-05
5.52461e-05
5.59198e-05
5.56276e-05
5.52151e-05
5.65201e-05
5.63636e-05
5.57936e-05
5.5231e-05
5.51303e-05
5.62563e-05
5.70006e-05
5.48471e-05
5.47792e-05
5.68312e-05
5.4796e-05
5.44881e-05
4.56757e-05
4.54247e-05
4.52445e-05
5.42812e-05
5.65215e-05
5.42323e-05
5.27641e-08
2.52261e-07
4.15251e-08
5.2968e-08
2.70526e-07
2.67994e-07
1.27733e-07
1.15006e-07
2.69665e-07
3.068e-07
1.31237e-07
5.12039e-07
3.47121e-07
3.92346e-07
6.7787e-06
3.03792e-07
5.37207e-06
2.64671e-07
7.17339e-06
1.35657e-05
2.09701e-05
3.56855e-07
5.41432e-06
3.18679e-07
7.21633e-06
1.47028e-07
1.57059e-07
1.70246e-07
1.61928e-07
1.47582e-07
1.5662e-07
1.70401e-07
2.50975e-07
5.13986e-07
2.18091e-07
2.53553e-07
2.58491e-07
5.03016e-07
2.17505e-07
1.4069e-05
2.1765e-05
2.53531e-07
2.74973e-07
7.34923e-07
3.35262e-07
2.58417e-07
2.74667e-07
7.0918e-07
1.7579e-06
4.48465e-06
3.31958e-07
1.73498e-06
3.90241e-06
4.9207e-07
1.06512e-05
4.10206e-07
1.36324e-05
3.60359e-05
4.63922e-05
5.49845e-07
1.05504e-05
4.65616e-07
1.3411e-05
1.46911e-07
1.55434e-07
1.69502e-07
1.54838e-07
1.44638e-07
1.52144e-07
1.66415e-07
2.36536e-07
4.98716e-07
2.11299e-07