/*--------------------------------*- C++ -*----------------------------------*\
| =========                 |                                                 |
| \\      /  F ield         | OpenFOAM: The Open Source CFD Toolbox           |
|  \\    /   O peration     | Version:  v2012                                 |
|   \\  /    A nd           | Website:  www.openfoam.com                      |
|    \\/     M anipulation  |                                                 |
\*---------------------------------------------------------------------------*/
FoamFile
{
    version     2.0;
    format      ascii;
    class       volScalarField;
    location    "162.5";
    object      epsilon;
}
// * * * * * * * * * * * * * * * * * * * * * * * * * * * * * * * * * * * * * //

dimensions      [0 2 -3 0 0 0 0];


internalField   nonuniform List<scalar> 
171728
(
1.77719e-08
3.84173e-09
5.33994e-09
5.23105e-09
1.77262e-08
3.73197e-09
5.05011e-09
4.7417e-09
1.8134e-08
3.66889e-09
4.82431e-09
4.35168e-09
1.85554e-08
3.66636e-09
4.66182e-09
4.04243e-09
1.89845e-08
3.70807e-09
4.55621e-09
3.79584e-09
1.94418e-08
3.78088e-09
4.51436e-09
3.59551e-09
1.9924e-08
3.8966e-09
4.53035e-09
3.41802e-09
2.04227e-08
4.07032e-09
4.60614e-09
3.26586e-09
2.09278e-08
4.29821e-09
4.7454e-09
3.15218e-09
2.14451e-08
4.58256e-09
4.94338e-09
3.06534e-09
2.19663e-08
4.93625e-09
5.21209e-09
3.01496e-09
2.24822e-08
5.36119e-09
5.56716e-09
3.02083e-09
2.29961e-08
5.86948e-09
6.01573e-09
3.09889e-09
2.35107e-08
6.49472e-09
6.58178e-09
3.30454e-09
2.40244e-08
7.26365e-09
7.27869e-09
3.64596e-09
2.45314e-08
8.2258e-09
8.14011e-09
4.17677e-09
2.50471e-08
9.43735e-09
9.25459e-09
4.98087e-09
2.55801e-08
1.09496e-08
1.07235e-08
6.25643e-09
2.61335e-08
1.29422e-08
1.2708e-08
8.29431e-09
2.67063e-08
1.5509e-08
1.54211e-08
1.168e-08
2.73474e-08
1.92148e-08
1.92033e-08
1.73188e-08
2.80501e-08
2.38343e-08
2.44345e-08
2.6536e-08
2.88806e-08
3.03522e-08
3.15913e-08
4.16033e-08
2.98774e-08
3.89676e-08
4.16091e-08
6.42451e-08
3.10565e-08
5.02348e-08
5.43266e-08
9.63712e-08
3.25662e-08
6.50326e-08
6.89673e-08
1.39729e-07
3.44444e-08
8.34832e-08
8.66396e-08
1.95823e-07
3.68627e-08
1.05973e-07
1.07612e-07
2.63498e-07
3.98827e-08
1.32541e-07
1.33097e-07
3.41048e-07
4.3749e-08
1.6278e-07
1.63313e-07
4.21167e-07
4.83873e-08
1.95569e-07
1.97146e-07
4.93607e-07
5.41311e-08
2.3146e-07
2.33306e-07
5.55461e-07
6.16728e-08
2.68962e-07
2.7011e-07
6.10985e-07
7.2197e-08
3.0892e-07
3.09581e-07
6.5604e-07
8.72841e-08
3.5714e-07
3.57409e-07
6.94895e-07
1.08721e-07
4.18998e-07
4.19071e-07
7.40582e-07
1.37265e-07
4.90704e-07
4.90745e-07
7.96005e-07
1.70157e-07
5.58208e-07
5.58265e-07
8.50158e-07
2.02258e-07
6.11124e-07
6.11194e-07
8.94064e-07
2.26879e-07
6.44032e-07
6.44099e-07
9.22849e-07
2.40521e-07
6.58509e-07
6.58576e-07
9.35495e-07
2.46301e-07
6.63632e-07
6.63701e-07
9.40052e-07
2.4827e-07
6.65217e-07
6.65285e-07
9.41728e-07
2.4883e-07
6.6566e-07
6.65728e-07
9.42228e-07
2.48941e-07
6.65705e-07
6.65773e-07
9.42275e-07
2.48956e-07
6.65679e-07
6.65748e-07
9.42066e-07
2.48965e-07
6.65714e-07
6.65783e-07
9.42266e-07
2.48963e-07
6.65698e-07
6.65764e-07
9.42195e-07
2.48964e-07
6.65699e-07
6.65766e-07
9.42197e-07
2.48965e-07
6.65697e-07
6.65767e-07
9.42145e-07
2.48966e-07
6.65697e-07
6.65765e-07
9.4226e-07
2.48967e-07
6.65701e-07
6.6577e-07
9.42138e-07
2.48967e-07
6.65698e-07
6.65765e-07
9.42187e-07
2.48968e-07
6.65701e-07
6.65768e-07
9.42244e-07
2.48968e-07
6.65701e-07
6.65773e-07
9.4222e-07
2.48968e-07
6.65701e-07
6.6577e-07
9.42125e-07
2.48969e-07
6.65705e-07
6.6577e-07
9.42195e-07
2.48969e-07
6.65704e-07
6.6577e-07
9.4226e-07
2.48969e-07
6.65702e-07
6.65767e-07
9.42198e-07
2.48969e-07
6.65703e-07
6.65769e-07
9.42137e-07
2.48969e-07
6.65707e-07
6.65773e-07
9.42186e-07
2.48969e-07
6.65703e-07
6.65766e-07
9.42265e-07
2.48969e-07
6.65699e-07
6.6577e-07
9.42131e-07
2.4897e-07
6.65706e-07
6.65771e-07
9.42188e-07
2.4897e-07
6.65702e-07
6.65769e-07
9.42281e-07
2.4897e-07
6.65703e-07
6.6577e-07
9.42263e-07
2.48969e-07
6.65703e-07
6.65771e-07
9.42164e-07
2.48969e-07
6.657e-07
6.65771e-07
9.42152e-07
2.48969e-07
6.65705e-07
6.6577e-07
9.42175e-07
2.48968e-07
6.657e-07
6.65765e-07
9.42178e-07
2.48968e-07
6.65699e-07
6.65771e-07
9.42165e-07
2.48967e-07
6.65701e-07
6.6577e-07
9.42137e-07
2.48966e-07
6.65702e-07
6.65767e-07
9.42101e-07
2.48966e-07
6.65699e-07
6.65766e-07
9.42091e-07
2.48965e-07
6.65696e-07
6.65765e-07
9.42106e-07
2.48965e-07
6.65693e-07
6.65764e-07
9.42119e-07
2.48965e-07
6.65693e-07
6.65765e-07
9.42123e-07
2.48964e-07
6.65692e-07
6.65763e-07
9.42113e-07
2.48964e-07
6.65691e-07
6.65762e-07
9.42101e-07
2.48964e-07
6.65693e-07
6.65762e-07
9.4209e-07
2.48964e-07
6.65693e-07
6.65763e-07
9.42107e-07
2.48963e-07
6.65694e-07
6.65764e-07
9.4211e-07
2.48963e-07
6.65693e-07
6.65766e-07
9.42101e-07
2.48963e-07
6.65699e-07
6.65768e-07
9.42105e-07
2.48963e-07
6.657e-07
6.65771e-07
9.42093e-07
2.48963e-07
6.65701e-07
6.65775e-07
9.42084e-07
2.48963e-07
6.65708e-07
6.6578e-07
9.42103e-07
2.48963e-07
6.65716e-07
6.65786e-07
9.42096e-07
2.48963e-07
6.65723e-07
6.65795e-07
9.4209e-07
2.48963e-07
6.65733e-07
6.65807e-07
9.42102e-07
2.48964e-07
6.65749e-07
6.6582e-07
9.42087e-07
2.48965e-07
6.65772e-07
6.65844e-07
9.42074e-07
2.48964e-07
6.65797e-07
6.65869e-07
9.42076e-07
2.48564e-07
6.65567e-07
6.65636e-07
9.41756e-07
2.36164e-07
6.20022e-07
6.20057e-07
8.977e-07
4.89912e-09
3.89693e-09
4.56116e-09
4.9635e-09
4.50896e-09
4.71997e-09
1.82432e-08
1.82594e-08
1.84681e-08
1.83846e-08
3.47093e-09
4.5051e-09
5.40916e-09
4.59151e-09
4.47852e-09
5.28399e-09
4.84718e-09
4.45516e-09
4.63173e-09
5.35558e-09
4.44233e-09
5.13221e-09
4.93748e-09
4.50909e-09
5.24953e-09
5.56925e-09
5.03138e-09
5.33834e-09
5.25234e-09
3.75894e-09
5.04266e-09
5.35797e-09
4.93071e-09
5.58304e-09
5.11994e-09
5.39895e-09
4.81766e-09
4.38187e-09
4.08165e-09
4.38576e-09
5.06233e-09
4.24817e-09
4.87738e-09
4.46016e-09
4.11859e-09
4.96302e-09
5.26619e-09
4.7877e-09
5.07679e-09
4.97607e-09
3.68e-09
4.80146e-09
4.85116e-09
4.50781e-09
5.33932e-09
4.87485e-09
5.18199e-09
4.4151e-09
4.02833e-09
3.807e-09
4.20937e-09
4.82466e-09
4.111e-09
4.68591e-09
4.06371e-09
3.82919e-09
4.7356e-09
5.02219e-09
4.60496e-09
4.88279e-09
4.75221e-09
3.66398e-09
4.62578e-09
4.44411e-09
4.17931e-09
5.13584e-09
4.69965e-09
5.01925e-09
4.09462e-09
3.76116e-09
3.58001e-09
4.0828e-09
4.64762e-09
4.01919e-09
4.55579e-09
3.78617e-09
3.60901e-09
4.56719e-09
4.84306e-09
4.48146e-09
4.74873e-09
4.59117e-09
3.69785e-09
4.50724e-09
4.12655e-09
3.9195e-09
4.98444e-09
4.5784e-09
4.90714e-09
3.83989e-09
3.54219e-09
3.38941e-09
4.00584e-09
4.53148e-09
3.98475e-09
4.4833e-09
3.57331e-09
3.42444e-09
4.45731e-09
4.72368e-09
4.41378e-09
4.67799e-09
4.48446e-09
3.76289e-09
4.44143e-09
3.8761e-09
3.71907e-09
4.88779e-09
4.51949e-09
4.84829e-09
3.6324e-09
3.35623e-09
3.22435e-09
3.98556e-09
4.47159e-09
4.00432e-09
4.47086e-09
3.39104e-09
3.25777e-09
4.40711e-09
4.66758e-09
4.4131e-09
4.66819e-09
4.43389e-09
3.8664e-09
4.43876e-09
3.68394e-09
3.54442e-09
4.83903e-09
4.52284e-09
4.83629e-09
3.45146e-09
3.19459e-09
3.07996e-09
4.01853e-09
4.47726e-09
4.07589e-09
4.52324e-09
3.22817e-09
3.11475e-09
4.42213e-09
4.67366e-09
4.47631e-09
4.72035e-09
4.44744e-09
4.02714e-09
4.49937e-09
3.51202e-09
3.38388e-09
4.84119e-09
4.5859e-09
4.87677e-09
3.29351e-09
3.05636e-09
2.96492e-09
4.10069e-09
4.54757e-09
4.19472e-09
4.64137e-09
3.0914e-09
3.00691e-09
4.50104e-09
4.74453e-09
4.60253e-09
4.84138e-09
4.52431e-09
4.24207e-09
4.61903e-09
3.35574e-09
3.25044e-09
4.89635e-09
4.70844e-09
4.97593e-09
3.16759e-09
2.95339e-09
2.8854e-09
4.23161e-09
4.6794e-09
4.37062e-09
4.81802e-09
2.99663e-09
2.94017e-09
4.6419e-09
4.88053e-09
4.78718e-09
5.02205e-09
4.65581e-09
4.5117e-09
4.78806e-09
3.23635e-09
3.16121e-09
5.00804e-09
4.8934e-09
5.13366e-09
3.07536e-09
2.87795e-09
2.85482e-09
4.42421e-09
4.87097e-09
4.6165e-09
5.06311e-09
2.93312e-09
2.91813e-09
4.84282e-09
5.07731e-09
5.04069e-09
5.27613e-09
4.83881e-09
4.84909e-09
5.02056e-09
3.15243e-09
3.12508e-09
5.18017e-09
5.14523e-09
5.34358e-09
3.01608e-09
2.85849e-09
2.88755e-09
4.69013e-09
5.13507e-09
4.94427e-09
5.37472e-09
2.9222e-09
2.95804e-09
5.11522e-09
5.34985e-09
5.36726e-09
5.60783e-09
5.09073e-09
5.25539e-09
5.32627e-09
3.12797e-09
3.15099e-09
5.40788e-09
5.47462e-09
5.63046e-09
3.0131e-09
2.89854e-09
3.00086e-09
5.04079e-09
5.46556e-09
5.36727e-09
5.76189e-09
2.96981e-09
3.08604e-09
5.46042e-09
5.70545e-09
5.77366e-09
6.02728e-09
5.41446e-09
5.7405e-09
5.71399e-09
3.16066e-09
3.24981e-09
5.71743e-09
5.89907e-09
6.01326e-09
3.07837e-09
3.03175e-09
3.21298e-09
5.48914e-09
5.87299e-09
5.89354e-09
6.2441e-09
3.11881e-09
3.31191e-09
5.88947e-09
6.14855e-09
6.27222e-09
6.54681e-09
5.82768e-09
6.3374e-09
6.20081e-09
3.27645e-09
3.44742e-09
6.12565e-09
6.43736e-09
6.51076e-09
3.25665e-09
3.26552e-09
3.53745e-09
6.04075e-09
6.37962e-09
6.53559e-09
6.83567e-09
3.36618e-09
3.64467e-09
6.40953e-09
6.69274e-09
6.87258e-09
7.18908e-09
6.33929e-09
7.06511e-09
6.80934e-09
3.49816e-09
3.76889e-09
6.65661e-09
7.09791e-09
7.14759e-09
3.56415e-09
3.62266e-09
4.01736e-09
6.71612e-09
7.00809e-09
7.32452e-09
7.57975e-09
3.73024e-09
4.13605e-09
7.03957e-09
7.36886e-09
7.60502e-09
7.98114e-09
6.98002e-09
7.9759e-09
7.5574e-09
3.85458e-09
4.26569e-09
7.32605e-09
7.91034e-09
7.92832e-09
4.04352e-09
4.15212e-09
4.73057e-09
7.55065e-09
7.79908e-09
8.32191e-09
8.54458e-09
4.27405e-09
4.8876e-09
7.81408e-09
8.21212e-09
8.53484e-09
8.9779e-09
7.77367e-09
9.12561e-09
8.51359e-09
4.40319e-09
5.04164e-09
8.15443e-09
8.95842e-09
8.92544e-09
4.76703e-09
4.94349e-09
5.82789e-09
8.60799e-09
8.8261e-09
9.6138e-09
9.81138e-09
5.1079e-09
6.04964e-09
8.80612e-09
9.26382e-09
9.75933e-09
1.02629e-08
8.79022e-09
1.05453e-08
9.768e-09
5.26244e-09
6.22262e-09
9.21463e-09
1.03232e-08
1.02242e-08
5.90685e-09
6.17397e-09
7.60041e-09
9.9979e-09
1.01909e-08
1.13446e-08
1.15311e-08
6.40784e-09
7.90498e-09
1.01312e-08
1.06487e-08
1.14356e-08
1.20208e-08
1.01396e-08
1.2394e-08
1.14488e-08
6.58603e-09
8.12305e-09
1.06164e-08
1.21556e-08
1.19399e-08
7.73058e-09
8.16245e-09
1.05481e-08
1.18705e-08
1.20583e-08
1.37142e-08
1.39273e-08
8.48732e-09
1.09274e-08
1.19534e-08
1.25648e-08
1.37678e-08
1.4441e-08
1.19726e-08
1.47947e-08
1.37934e-08
8.70973e-09
1.12394e-08
1.24471e-08
1.46632e-08
1.42552e-08
1.07323e-08
1.14743e-08
1.55556e-08
1.44431e-08
1.46626e-08
1.70341e-08
1.72422e-08
1.18553e-08
1.60488e-08
1.4484e-08
1.51855e-08
1.70488e-08
1.78526e-08
1.45084e-08
1.82193e-08
1.707e-08
1.21898e-08
1.64554e-08
1.49793e-08
1.81636e-08
1.75137e-08
1.58075e-08
1.70644e-08
2.39137e-08
1.80415e-08
1.82537e-08
2.16452e-08
2.18198e-08
1.75845e-08
2.42812e-08
1.80391e-08
1.88476e-08
2.15924e-08
2.24847e-08
1.80658e-08
2.25474e-08
2.16123e-08
1.80152e-08
2.50638e-08
1.84856e-08
2.29637e-08
2.20272e-08
2.41396e-08
2.63098e-08
3.74607e-08
2.30549e-08
2.32016e-08
2.79805e-08
2.81558e-08
2.65725e-08
3.74937e-08
2.2988e-08
2.39458e-08
2.78626e-08
2.87074e-08
2.30103e-08
2.85454e-08
2.79413e-08
2.75175e-08
3.89519e-08
2.345e-08
2.96055e-08
2.84758e-08
3.78803e-08
4.11072e-08
5.82206e-08
2.98743e-08
3.01151e-08
3.6451e-08
3.69101e-08
4.12268e-08
5.90148e-08
2.9745e-08
3.05102e-08
3.63383e-08
3.70493e-08
2.98424e-08
3.66154e-08
3.64069e-08
4.25817e-08
5.98453e-08
3.04066e-08
3.87947e-08
3.70316e-08
5.89083e-08
6.35534e-08
8.85545e-08
3.89842e-08
3.94806e-08
4.76741e-08
4.82333e-08
6.44752e-08
8.95798e-08
3.88653e-08
3.95216e-08
4.75461e-08
4.78007e-08
3.89083e-08
4.7122e-08
4.74999e-08
6.53508e-08
9.04442e-08
3.95383e-08
5.10042e-08
4.79966e-08
8.90871e-08
9.59126e-08
1.30401e-07
5.09581e-08
5.15472e-08
6.20957e-08
6.27659e-08
9.69341e-08
1.31408e-07
5.08442e-08
5.09181e-08
6.20337e-08
6.17223e-08
5.07573e-08
6.10161e-08
6.18372e-08
9.754e-08
1.29048e-07
5.11562e-08
6.50737e-08
6.18396e-08
1.30171e-07
1.40069e-07
1.84429e-07
6.62266e-08
6.68777e-08
7.99931e-08
8.04093e-08
1.41173e-07
1.85426e-07
6.61862e-08
6.59119e-08
8.01164e-08
8.0259e-08
6.59879e-08
7.85087e-08
7.99089e-08
1.37998e-07
1.81705e-07
6.58083e-08
8.19158e-08
7.90075e-08
1.83872e-07
1.96435e-07
2.50309e-07
8.51136e-08
8.53875e-08
1.01996e-07
1.01633e-07
1.97354e-07
2.50847e-07
8.52754e-08
8.54835e-08
1.02186e-07
1.01962e-07
8.50619e-08
1.00001e-07
1.02024e-07
1.94127e-07
2.49469e-07
8.3892e-08
1.0206e-07
1.00124e-07
2.4944e-07
2.64375e-07
3.25837e-07
1.08086e-07
1.07471e-07
1.27939e-07
1.26572e-07
2.64857e-07
3.25507e-07
1.08276e-07
1.07778e-07
1.28052e-07
1.2698e-07
1.0816e-07
1.25513e-07
1.28154e-07
2.63331e-07
3.22731e-07
1.06057e-07
1.26216e-07
1.2557e-07
3.25279e-07
3.41451e-07
4.05854e-07
1.35134e-07
1.3351e-07
1.5834e-07
1.55695e-07
3.41067e-07
4.04797e-07
1.35154e-07
1.34025e-07
1.5796e-07
1.56653e-07
1.35341e-07
1.54987e-07
1.58251e-07
3.38119e-07
4.02203e-07
1.32611e-07
1.55422e-07
1.54948e-07
4.05433e-07
4.21816e-07
4.8076e-07
1.66541e-07
1.6344e-07
1.91728e-07
1.8761e-07
4.20397e-07
4.77643e-07
1.65979e-07
1.64553e-07
1.90667e-07
1.88896e-07
1.66303e-07
1.87108e-07
1.91168e-07
4.18028e-07
4.77336e-07
1.62736e-07
1.88399e-07
1.86923e-07
4.7935e-07
4.94949e-07
5.42508e-07
2.00181e-07
1.96062e-07
2.25708e-07
2.22757e-07
4.92042e-07
5.42795e-07
1.99056e-07
1.97262e-07
2.24851e-07
2.2353e-07
1.99583e-07
2.22256e-07
2.25223e-07
4.92051e-07
5.43763e-07
1.95295e-07
2.24193e-07
2.21632e-07
5.42454e-07
5.55193e-07
5.98074e-07
2.34377e-07
2.32011e-07
2.61131e-07
2.60151e-07
5.562e-07
5.99855e-07
2.33669e-07
2.32645e-07
2.60731e-07
2.60506e-07
2.33959e-07
2.59525e-07
2.60834e-07
5.57232e-07
6.01017e-07
2.30799e-07
2.60834e-07
2.58992e-07
5.99e-07
6.10091e-07
6.45582e-07
2.7036e-07
2.6961e-07
2.99517e-07
2.98986e-07
6.11688e-07
6.4567e-07
2.69989e-07
2.69901e-07
2.99177e-07
2.99109e-07
2.70061e-07
2.98417e-07
2.99195e-07
6.12804e-07
6.4643e-07
2.6857e-07
2.99192e-07
2.98389e-07
6.46009e-07
6.55709e-07
6.85073e-07
3.09994e-07
3.0947e-07
3.44873e-07
3.4441e-07
6.55606e-07
6.84587e-07
3.09649e-07
3.09532e-07
3.44553e-07
3.44365e-07
3.0966e-07
3.43965e-07
3.44538e-07
6.56249e-07
6.84856e-07
3.08984e-07
3.44317e-07
3.4408e-07
6.85137e-07
6.94861e-07
7.29119e-07
3.57989e-07
3.57572e-07
4.02789e-07
4.02566e-07
6.94412e-07
7.28879e-07
3.57676e-07
3.5751e-07
4.02526e-07
4.0251e-07
3.57664e-07
4.0222e-07
4.02575e-07
6.94614e-07
7.28934e-07
3.57249e-07
4.02322e-07
4.02257e-07
7.29168e-07
7.40526e-07
7.83579e-07
4.19496e-07
4.19329e-07
4.72891e-07
4.72836e-07
7.40349e-07
7.83532e-07
4.19239e-07
4.19279e-07
4.72655e-07
4.72828e-07
4.19322e-07
4.72574e-07
4.72822e-07
7.40372e-07
7.83543e-07
4.19029e-07
4.72615e-07
4.72577e-07
7.83684e-07
7.9591e-07
8.38884e-07
4.90998e-07
4.90958e-07
5.42685e-07
5.42665e-07
7.95895e-07
8.38875e-07
4.9076e-07
4.9096e-07
5.42458e-07
5.42703e-07
4.90951e-07
5.42451e-07
5.42687e-07
7.95896e-07
8.38916e-07
4.90714e-07
5.42504e-07
5.42466e-07
8.38989e-07
8.50064e-07
8.84903e-07
5.58433e-07
5.58411e-07
5.99769e-07
5.9975e-07
8.50074e-07
8.84905e-07
5.58205e-07
5.58456e-07
5.99557e-07
5.99814e-07
5.58442e-07
5.99575e-07
5.99799e-07
8.50106e-07
8.84962e-07
5.58227e-07
5.99643e-07
5.99598e-07
8.85026e-07
8.9395e-07
9.16728e-07
6.1131e-07
6.11289e-07
6.37997e-07
6.37977e-07
8.93968e-07
9.16736e-07
6.11098e-07
6.11353e-07
6.37801e-07
6.38043e-07
6.11342e-07
6.37821e-07
6.38032e-07
8.94014e-07
9.16791e-07
6.11145e-07
6.37889e-07
6.37844e-07
9.16844e-07
9.22739e-07
9.31961e-07
6.44202e-07
6.44176e-07
6.56268e-07
6.56244e-07
9.22756e-07
9.31962e-07
6.44006e-07
6.44244e-07
6.56085e-07
6.56312e-07
6.44237e-07
6.56098e-07
6.56307e-07
9.22803e-07
9.32024e-07
6.44055e-07
6.56165e-07
6.56132e-07
9.32088e-07
9.35378e-07
9.37443e-07
6.58672e-07
6.58644e-07
6.62992e-07
6.62967e-07
9.35377e-07
9.3744e-07
6.58486e-07
6.58713e-07
6.62814e-07
6.63038e-07
6.5871e-07
6.6283e-07
6.63032e-07
9.35435e-07
9.37506e-07
6.58538e-07
6.629e-07
6.62863e-07
9.37564e-07
9.39941e-07
9.3947e-07
6.63786e-07
6.63762e-07
6.65134e-07
6.65113e-07
9.39938e-07
9.39468e-07
6.63608e-07
6.63831e-07
6.6496e-07
6.65183e-07
6.63826e-07
6.64979e-07
6.65173e-07
9.39997e-07
9.39532e-07
6.63658e-07
6.65048e-07
6.65007e-07
9.39585e-07
9.41625e-07
9.40016e-07
6.65367e-07
6.65346e-07
6.65753e-07
6.65734e-07
9.41623e-07
9.40021e-07
6.65193e-07
6.65415e-07
6.65582e-07
6.65804e-07
6.65406e-07
6.65601e-07
6.65792e-07
9.4168e-07
9.40083e-07
6.6524e-07
6.65669e-07
6.65626e-07
9.4013e-07
9.42126e-07
9.4012e-07
6.65809e-07
6.6579e-07
6.65862e-07
6.65843e-07
9.4213e-07
9.40122e-07
6.65637e-07
6.65858e-07
6.65692e-07
6.65912e-07
6.65848e-07
6.6571e-07
6.65903e-07
9.42184e-07
9.40188e-07
6.65683e-07
6.65778e-07
6.65737e-07
9.40243e-07
9.42161e-07
9.39936e-07
6.65853e-07
6.65835e-07
6.65831e-07
6.65811e-07
9.42163e-07
9.39932e-07
6.65684e-07
6.65904e-07
6.65663e-07
6.65883e-07
6.65896e-07
6.6568e-07
6.65873e-07
9.42222e-07
9.4e-07
6.6573e-07
6.65748e-07
6.65707e-07
9.40046e-07
9.41968e-07
9.40077e-07
6.65829e-07
6.65808e-07
6.6585e-07
6.65829e-07
9.41963e-07
9.40074e-07
6.6566e-07
6.6588e-07
6.65684e-07
6.65904e-07
6.6587e-07
6.65701e-07
6.65893e-07
9.42024e-07
9.40147e-07
6.65704e-07
6.65771e-07
6.65729e-07
9.402e-07
9.42151e-07
9.40088e-07
6.65861e-07
6.6584e-07
6.65858e-07
6.65835e-07
9.4215e-07
9.40086e-07
6.65694e-07
6.65914e-07
6.6569e-07
6.6591e-07
6.65904e-07
6.65708e-07
6.65899e-07
9.42215e-07
9.40152e-07
6.6574e-07
6.65775e-07
6.65734e-07
9.40199e-07
9.42105e-07
9.39963e-07
6.65845e-07
6.65822e-07
6.65838e-07
6.65814e-07
9.42102e-07
9.3996e-07
6.65677e-07
6.65897e-07
6.6567e-07
6.6589e-07
6.65887e-07
6.65689e-07
6.65883e-07
9.42156e-07
9.40044e-07
6.65721e-07
6.65757e-07
6.65717e-07
9.40114e-07
9.42055e-07
9.4006e-07
6.65841e-07
6.65818e-07
6.6585e-07
6.65825e-07
9.42056e-07
9.40052e-07
6.65674e-07
6.65894e-07
6.65682e-07
6.65902e-07
6.65888e-07
6.65703e-07
6.65893e-07
9.42128e-07
9.4012e-07
6.65723e-07
6.65769e-07
6.65728e-07
9.40153e-07
9.42061e-07
9.40056e-07
6.65845e-07
6.65818e-07
6.65847e-07
6.65818e-07
9.42052e-07
9.40046e-07
6.65676e-07
6.65897e-07
6.65679e-07
6.659e-07
6.65887e-07
6.65695e-07
6.65891e-07
9.42115e-07
9.40134e-07
6.65722e-07
6.65764e-07
6.65726e-07
9.40199e-07
9.42139e-07
9.39972e-07
6.65844e-07
6.65816e-07
6.65847e-07
6.65817e-07
9.42127e-07
9.39966e-07
6.65676e-07
6.65897e-07
6.65677e-07
6.659e-07
6.6589e-07
6.65698e-07
6.65891e-07
9.42206e-07
9.40041e-07
6.65723e-07
6.65767e-07
6.65726e-07
9.40102e-07
9.42013e-07
9.4007e-07
6.65847e-07
6.65816e-07
6.6585e-07
6.65817e-07
9.42003e-07
9.4008e-07
6.65677e-07
6.659e-07
6.6568e-07
6.65902e-07
6.65891e-07
6.65698e-07
6.65891e-07
9.42078e-07
9.40141e-07
6.65726e-07
6.65766e-07
6.65726e-07
9.40182e-07
9.42082e-07
9.40092e-07
6.65845e-07
6.65813e-07
6.65854e-07
6.65819e-07
9.42098e-07
9.4006e-07
6.65675e-07
6.65899e-07
6.65684e-07
6.65907e-07
6.65887e-07
6.65703e-07
6.65898e-07
9.42144e-07
9.40161e-07
6.65722e-07
6.65771e-07
6.65732e-07
9.40223e-07
9.42133e-07
9.40041e-07
6.65851e-07
6.65817e-07
6.6585e-07
6.65813e-07
9.42122e-07
9.40007e-07
6.65679e-07
6.65901e-07
6.65679e-07
6.65904e-07
6.65892e-07
6.65699e-07
6.65889e-07
9.42192e-07
9.40134e-07
6.65725e-07
6.65769e-07
6.65725e-07
9.40146e-07
9.4212e-07
9.39984e-07
6.6585e-07
6.65813e-07
6.65851e-07
6.65815e-07
9.42078e-07
9.39995e-07
6.65679e-07
6.65903e-07
6.65678e-07
6.65904e-07
6.65891e-07
6.657e-07
6.65893e-07
9.42198e-07
9.40078e-07
6.65728e-07
6.65766e-07
6.65725e-07
9.40113e-07
9.42047e-07
9.4001e-07
6.65851e-07
6.65813e-07
6.65852e-07
6.65814e-07
9.42042e-07
9.40017e-07
6.65678e-07
6.65903e-07
6.6568e-07
6.65903e-07
6.65891e-07
6.65702e-07
6.65893e-07
9.42149e-07
9.40064e-07
6.65724e-07
6.65768e-07
6.65727e-07
9.40196e-07
9.42041e-07
9.40031e-07
6.65852e-07
6.65814e-07
6.65852e-07
6.65812e-07
9.42054e-07
9.40015e-07
6.65679e-07
6.65903e-07
6.65678e-07
6.65901e-07
6.65892e-07
6.65701e-07
6.65895e-07
9.42117e-07
9.40078e-07
6.65726e-07
6.65768e-07
6.6573e-07
9.40232e-07
9.42055e-07
9.40037e-07
6.6585e-07
6.65811e-07
6.65856e-07
6.65814e-07
9.42072e-07
9.40001e-07
6.65676e-07
6.659e-07
6.65682e-07
6.65906e-07
6.65894e-07
6.65702e-07
6.65893e-07
9.42113e-07
9.40086e-07
6.65729e-07
6.65768e-07
6.65728e-07
9.40133e-07
9.42061e-07
9.40049e-07
6.65852e-07
6.65812e-07
6.65857e-07
6.65815e-07
9.42057e-07
9.40019e-07
6.65677e-07
6.65902e-07
6.65682e-07
6.65907e-07
6.65892e-07
6.65706e-07
6.65896e-07
9.42111e-07
9.40134e-07
6.65727e-07
6.65773e-07
6.65731e-07
9.40112e-07
9.42068e-07
9.40084e-07
6.65853e-07
6.65812e-07
6.65855e-07
6.65813e-07
9.42056e-07
9.40028e-07
6.65678e-07
6.65904e-07
6.65681e-07
6.65904e-07
6.65893e-07
6.65704e-07
6.65896e-07
9.42146e-07
9.40121e-07
6.65728e-07
6.65769e-07
6.65732e-07
9.40196e-07
9.42136e-07
9.39998e-07
6.65855e-07
6.65813e-07
6.65851e-07
6.6581e-07
9.42077e-07
9.39971e-07
6.6568e-07
6.65904e-07
6.65676e-07
6.65902e-07
6.65894e-07
6.65699e-07
6.65894e-07
9.42164e-07
9.40098e-07
6.65729e-07
6.65766e-07
6.65727e-07
9.40201e-07
9.42045e-07
9.4011e-07
6.65851e-07
6.6581e-07
6.65856e-07
6.65811e-07
9.4204e-07
9.40006e-07
6.65675e-07
6.65899e-07
6.6568e-07
6.65905e-07
6.65894e-07
6.65702e-07
6.65896e-07
9.42087e-07
9.40208e-07
6.65727e-07
6.6577e-07
6.65726e-07
9.40098e-07
9.42105e-07
9.40116e-07
6.65853e-07
6.65807e-07
6.65857e-07
6.65813e-07
9.42011e-07
9.40113e-07
6.65676e-07
6.65901e-07
6.65679e-07
6.65904e-07
6.65892e-07
6.65704e-07
6.65894e-07
9.42232e-07
9.40097e-07
6.65724e-07
6.65768e-07
6.65731e-07
9.40195e-07
9.42185e-07
9.40008e-07
6.65855e-07
6.6581e-07
6.65856e-07
6.65811e-07
9.42146e-07
9.39998e-07
6.65676e-07
6.65903e-07
6.65678e-07
6.65904e-07
6.65894e-07
6.657e-07
6.65895e-07
9.42176e-07
9.40047e-07
6.65725e-07
6.65768e-07
6.65732e-07
9.40251e-07
9.42112e-07
9.39951e-07
6.65856e-07
6.6581e-07
6.65855e-07
6.65814e-07
9.42056e-07
9.4001e-07
6.65677e-07
6.65902e-07
6.65677e-07
6.65906e-07
6.65893e-07
6.65701e-07
6.65897e-07
9.42096e-07
9.40107e-07
6.65729e-07
6.65769e-07
6.65727e-07
9.4017e-07
9.42016e-07
9.40003e-07
6.65855e-07
6.65811e-07
6.65854e-07
6.6581e-07
9.42033e-07
9.40049e-07
6.65676e-07
6.65903e-07
6.65679e-07
6.65907e-07
6.65896e-07
6.657e-07
6.65892e-07
9.42111e-07
9.40169e-07
6.65728e-07
6.65768e-07
6.65725e-07
9.40087e-07
9.42011e-07
9.40083e-07
6.65854e-07
6.6581e-07
6.65857e-07
6.6581e-07
9.42081e-07
9.40066e-07
6.65676e-07
6.65906e-07
6.65676e-07
6.65903e-07
6.65892e-07
6.65702e-07
6.65893e-07
9.42187e-07
9.40137e-07
6.65725e-07
6.65768e-07
6.65727e-07
9.40115e-07
9.4208e-07
9.40104e-07
6.65852e-07
6.65808e-07
6.65859e-07
6.65811e-07
9.42094e-07
9.40042e-07
6.65676e-07
6.65903e-07
6.65676e-07
6.65903e-07
6.65892e-07
6.65701e-07
6.65894e-07
9.42189e-07
9.40104e-07
6.65726e-07
6.65767e-07
6.65728e-07
9.40146e-07
9.42138e-07
9.40056e-07
6.65858e-07
6.65811e-07
6.65852e-07
6.65808e-07
9.42115e-07
9.39961e-07
6.65676e-07
6.65903e-07
6.65676e-07
6.65902e-07
6.65894e-07
6.65696e-07
6.65893e-07
9.42173e-07
9.40041e-07
6.65727e-07
6.65765e-07
6.65728e-07
9.40142e-07
9.4212e-07
9.40019e-07
6.65853e-07
6.65808e-07
6.65856e-07
6.65812e-07
9.41986e-07
9.40088e-07
6.65676e-07
6.65899e-07
6.65678e-07
6.65907e-07
6.65893e-07
6.65699e-07
6.65894e-07
9.42067e-07
9.40179e-07
6.65728e-07
6.6577e-07
6.65729e-07
9.40129e-07
9.42074e-07
9.40035e-07
6.65854e-07
6.65808e-07
6.65857e-07
6.65812e-07
9.42073e-07
9.4012e-07
6.65678e-07
6.65904e-07
6.65679e-07
6.65903e-07
6.65894e-07
6.65699e-07
6.65894e-07
9.42166e-07
9.40174e-07
6.65729e-07
6.65765e-07
6.65727e-07
9.40109e-07
9.42063e-07
9.40073e-07
6.65857e-07
6.65812e-07
6.65855e-07
6.65808e-07
9.42147e-07
9.40084e-07
6.65679e-07
6.65904e-07
6.65679e-07
6.65901e-07
6.65894e-07
6.65697e-07
6.65893e-07
9.42221e-07
9.40111e-07
6.65728e-07
6.65762e-07
6.65727e-07
9.40096e-07
9.4209e-07
9.40085e-07
6.65856e-07
6.65811e-07
6.65853e-07
6.65805e-07
9.42157e-07
9.40022e-07
6.65679e-07
6.65903e-07
6.65678e-07
6.65901e-07
6.65894e-07
6.65693e-07
6.65892e-07
9.42176e-07
9.4009e-07
6.65728e-07
6.65762e-07
6.65727e-07
9.40114e-07
9.4211e-07
9.40075e-07
6.65852e-07
6.65806e-07
6.65857e-07
6.65808e-07
9.42111e-07
9.39995e-07
6.65679e-07
6.65903e-07
6.65677e-07
6.65901e-07
6.65893e-07
6.6569e-07
6.65891e-07
9.42147e-07
9.40089e-07
6.65728e-07
6.6576e-07
6.65725e-07
9.40139e-07
9.42109e-07
9.40049e-07
6.65856e-07
6.65808e-07
6.65854e-07
6.65805e-07
9.42066e-07
9.40005e-07
6.65678e-07
6.65903e-07
6.65675e-07
6.659e-07
6.65892e-07
6.6569e-07
6.6589e-07
9.42136e-07
9.40094e-07
6.65727e-07
6.65759e-07
6.65724e-07
9.40145e-07
9.42086e-07
9.40032e-07
6.65856e-07
6.65808e-07
6.6585e-07
6.65802e-07
9.42051e-07
9.40028e-07
6.65676e-07
6.65903e-07
6.65672e-07
6.65897e-07
6.65893e-07
6.65689e-07
6.65888e-07
9.42133e-07
9.40096e-07
6.65725e-07
6.65758e-07
6.65723e-07
9.40131e-07
9.4206e-07
9.40046e-07
6.65853e-07
6.65805e-07
6.65849e-07
6.65801e-07
9.42065e-07
9.40024e-07
6.65675e-07
6.65898e-07
6.65671e-07
6.65897e-07
6.65891e-07
6.65686e-07
6.65885e-07
9.42128e-07
9.40108e-07
6.65726e-07
6.65756e-07
6.65719e-07
9.4012e-07
9.42061e-07
9.40085e-07
6.6585e-07
6.65802e-07
6.65848e-07
6.658e-07
9.4206e-07
9.40027e-07
6.65673e-07
6.65899e-07
6.65669e-07
6.65895e-07
6.65887e-07
6.65683e-07
6.65883e-07
9.42128e-07
9.40134e-07
6.65723e-07
6.65754e-07
6.65717e-07
9.40121e-07
9.421e-07
9.40099e-07
6.65852e-07
6.65803e-07
6.65842e-07
6.65794e-07
9.42059e-07
9.40041e-07
6.65673e-07
6.65898e-07
6.65666e-07
6.65891e-07
6.65886e-07
6.65682e-07
6.65881e-07
9.4215e-07
9.40138e-07
6.65721e-07
6.65752e-07
6.65714e-07
9.40125e-07
9.42135e-07
9.40084e-07
6.65849e-07
6.65801e-07
6.65839e-07
6.65792e-07
9.4207e-07
9.40049e-07
6.65671e-07
6.65896e-07
6.65664e-07
6.65889e-07
6.65886e-07
6.65679e-07
6.65877e-07
9.42156e-07
9.40147e-07
6.65719e-07
6.6575e-07
6.65712e-07
9.40146e-07
9.42133e-07
9.4008e-07
6.65847e-07
6.65799e-07
6.65837e-07
6.6579e-07
9.42073e-07
9.40069e-07
6.65671e-07
6.65896e-07
6.6566e-07
6.65885e-07
6.65886e-07
6.65677e-07
6.65873e-07
9.42162e-07
9.40159e-07
6.6572e-07
6.65747e-07
6.65708e-07
9.40132e-07
9.42127e-07
9.40068e-07
6.65848e-07
6.658e-07
6.65833e-07
6.65786e-07
9.42096e-07
9.40067e-07
6.65672e-07
6.65897e-07
6.65656e-07
6.65881e-07
6.65886e-07
6.65674e-07
6.65871e-07
9.42183e-07
9.40152e-07
6.65721e-07
6.65745e-07
6.65705e-07
9.40108e-07
9.4211e-07
9.40057e-07
6.6585e-07
6.65803e-07
6.65828e-07
6.6578e-07
9.42111e-07
9.40047e-07
6.65671e-07
6.65895e-07
6.65654e-07
6.65879e-07
6.65887e-07
6.65672e-07
6.65868e-07
9.42183e-07
9.40141e-07
6.65722e-07
6.65742e-07
6.65703e-07
9.40107e-07
9.42086e-07
9.40073e-07
6.65849e-07
6.65802e-07
6.65826e-07
6.65778e-07
9.421e-07
9.40028e-07
6.65673e-07
6.65899e-07
6.65648e-07
6.65872e-07
6.65891e-07
6.65665e-07
6.65863e-07
9.42174e-07
9.40131e-07
6.65725e-07
6.65739e-07
6.657e-07
9.40097e-07
9.421e-07
9.40077e-07
6.65853e-07
6.65804e-07
6.65821e-07
6.65773e-07
9.42078e-07
9.40017e-07
6.65677e-07
6.65901e-07
6.65643e-07
6.65868e-07
6.65892e-07
6.65661e-07
6.6586e-07
9.42161e-07
9.40133e-07
6.65728e-07
6.65735e-07
6.65697e-07
9.40106e-07
9.42118e-07
9.40071e-07
6.65857e-07
6.65808e-07
6.65816e-07
6.65768e-07
9.42052e-07
9.40025e-07
6.65678e-07
6.65902e-07
6.65639e-07
6.65865e-07
6.65894e-07
6.65659e-07
6.65857e-07
9.42153e-07
9.40153e-07
6.65732e-07
6.6573e-07
6.65691e-07
9.4012e-07
9.42115e-07
9.40077e-07
6.65861e-07
6.65812e-07
6.6581e-07
6.65763e-07
9.42058e-07
9.40033e-07
6.65684e-07
6.65909e-07
6.65633e-07
6.65858e-07
6.65903e-07
6.65651e-07
6.65848e-07
9.42176e-07
9.40152e-07
6.65737e-07
6.65723e-07
6.65685e-07
9.40096e-07
9.42119e-07
9.40076e-07
6.65868e-07
6.6582e-07
6.65803e-07
6.65755e-07
9.42075e-07
9.40024e-07
6.6569e-07
6.65916e-07
6.65625e-07
6.6585e-07
6.65908e-07
6.65643e-07
6.65841e-07
9.42194e-07
9.40136e-07
6.65742e-07
6.65716e-07
6.65678e-07
9.40091e-07
9.42121e-07
9.4006e-07
6.65876e-07
6.65828e-07
6.65794e-07
6.65746e-07
9.42073e-07
9.40015e-07
6.65698e-07
6.65925e-07
6.65616e-07
6.6584e-07
6.65915e-07
6.65635e-07
6.65834e-07
9.42186e-07
9.40129e-07
6.65753e-07
6.65707e-07
6.65667e-07
9.40098e-07
9.42107e-07
9.40042e-07
6.65887e-07
6.6584e-07
6.65783e-07
6.65736e-07
9.42066e-07
9.40001e-07
6.65709e-07
6.65935e-07
6.65605e-07
6.6583e-07
6.65927e-07
6.65626e-07
6.65823e-07
9.42176e-07
9.40121e-07
6.65762e-07
6.65697e-07
6.65658e-07
9.40081e-07
9.42085e-07
9.4003e-07
6.65902e-07
6.65855e-07
6.65772e-07
6.65725e-07
9.42047e-07
9.40002e-07
6.65724e-07
6.65949e-07
6.65595e-07
6.65819e-07
6.65943e-07
6.65614e-07
6.65812e-07
9.42161e-07
9.40114e-07
6.65776e-07
6.65687e-07
6.65648e-07
9.40086e-07
9.42069e-07
9.40024e-07
6.65923e-07
6.65876e-07
6.65758e-07
6.65711e-07
9.42028e-07
9.40028e-07
6.65747e-07
6.65971e-07
6.65577e-07
6.65804e-07
6.65964e-07
6.65602e-07
6.65797e-07
9.42149e-07
9.401e-07
6.65801e-07
6.65673e-07
6.65631e-07
9.40092e-07
9.42047e-07
9.39835e-07
6.65945e-07
6.65899e-07
6.6538e-07
6.65332e-07
9.42037e-07
9.3983e-07
6.6577e-07
6.65991e-07
6.65204e-07
6.65423e-07
6.65984e-07
6.65225e-07
6.65412e-07
9.42122e-07
9.39906e-07
6.65817e-07
6.65292e-07
6.65247e-07
9.39877e-07
9.41729e-07
9.20382e-07
6.65719e-07
6.65675e-07
6.45339e-07
6.45244e-07
9.41742e-07
9.20358e-07
6.6554e-07
6.65758e-07
6.45221e-07
6.45289e-07
6.65754e-07
6.45254e-07
6.45299e-07
9.41807e-07
9.20412e-07
6.6559e-07
6.45287e-07
6.45196e-07
9.20405e-07
8.97693e-07
6.20082e-07
6.1999e-07
8.97671e-07
6.19995e-07
6.20036e-07
2.36139e-07
2.36153e-07
2.36135e-07
6.20037e-07
8.97719e-07
6.19967e-07
4.66086e-08
7.30799e-09
3.12351e-08
3.12634e-08
1.31103e-09
3.4577e-09
4.46815e-09
1.84509e-08
1.51176e-09
4.64184e-09
1.84527e-08
1.0959e-08
5.45486e-09
7.9274e-09
7.57359e-09
6.94133e-09
1.66178e-07
5.48184e-09
2.5335e-07
1.63433e-06
3.21742e-06
7.20418e-09
1.63009e-07
5.5595e-09
2.57344e-07
1.77781e-08
1.80048e-08
1.79216e-08
1.76375e-08
1.76406e-08
1.78691e-08
1.77869e-08
1.31724e-09
7.54701e-08
8.15828e-09
3.8071e-09
1.31631e-09
5.48155e-08
8.09189e-09
1.64179e-06
3.24922e-06
1.47256e-09
8.24621e-09
8.57689e-08
5.26981e-09
1.49236e-09
8.16897e-09
6.39902e-08
2.18707e-07
2.14602e-07
5.0524e-09
1.88122e-07
1.8417e-07
1.79247e-08
4.73558e-07
1.09261e-08
6.72354e-07
7.18447e-06
1.01419e-05
1.7829e-08
4.55874e-07
1.13347e-08
6.68507e-07
1.77335e-08
1.79589e-08
1.78774e-08
1.80343e-08
1.80488e-08
1.82586e-08
1.81762e-08