/*--------------------------------*- C++ -*----------------------------------*\
| =========                 |                                                 |
| \\      /  F ield         | OpenFOAM: The Open Source CFD Toolbox           |
|  \\    /   O peration     | Version:  v2012                                 |
|   \\  /    A nd           | Website:  www.openfoam.com                      |
|    \\/     M anipulation  |                                                 |
\*---------------------------------------------------------------------------*/
FoamFile
{
    version     2.0;
    format      ascii;
    class       volScalarField;
    location    "162.5";
    object      k;
}
// * * * * * * * * * * * * * * * * * * * * * * * * * * * * * * * * * * * * * //

dimensions      [0 2 -2 0 0 0 0];


internalField   nonuniform List<scalar> 
171728
(
2.22031e-06
3.17893e-07
4.16885e-07
3.69715e-07
2.22389e-06
3.2177e-07
4.13778e-07
3.52492e-07
2.2881e-06
3.31613e-07
4.16535e-07
3.39854e-07
2.35373e-06
3.4537e-07
4.20961e-07
3.31412e-07
2.42041e-06
3.63752e-07
4.28103e-07
3.24862e-07
2.48806e-06
3.84764e-07
4.39584e-07
3.18624e-07
2.55629e-06
4.08056e-07
4.55017e-07
3.14021e-07
2.62452e-06
4.35781e-07
4.75844e-07
3.09484e-07
2.69095e-06
4.66427e-07
4.99145e-07
3.05973e-07
2.75701e-06
5.0021e-07
5.25775e-07
3.03935e-07
2.82153e-06
5.35262e-07
5.59641e-07
3.01472e-07
2.88419e-06
5.75776e-07
5.94876e-07
2.99313e-07
2.94656e-06
6.16323e-07
6.3557e-07
2.99583e-07
3.00744e-06
6.68282e-07
6.84568e-07
3.08867e-07
3.06776e-06
7.2951e-07
7.42597e-07
3.26794e-07
3.12558e-06
8.01422e-07
8.07565e-07
3.56229e-07
3.18477e-06
8.84305e-07
8.82406e-07
3.99042e-07
3.24292e-06
9.88027e-07
9.72912e-07
4.58298e-07
3.29965e-06
1.11424e-06
1.08584e-06
5.44979e-07
3.36035e-06
1.27083e-06
1.21743e-06
6.76077e-07
3.42646e-06
1.45394e-06
1.39237e-06
8.98312e-07
3.49028e-06
1.65759e-06
1.61131e-06
1.23696e-06
3.56067e-06
1.90838e-06
1.89941e-06
1.76943e-06
3.64012e-06
2.24242e-06
2.28737e-06
2.56883e-06
3.72813e-06
2.66433e-06
2.82069e-06
3.69614e-06
3.83459e-06
3.21295e-06
3.46006e-06
5.18548e-06
3.95143e-06
3.89668e-06
4.11336e-06
7.07454e-06
4.11473e-06
4.75508e-06
4.94184e-06
9.34815e-06
4.29268e-06
5.78022e-06
5.85088e-06
1.19064e-05
4.52693e-06
7.01789e-06
7.03524e-06
1.4626e-05
4.79725e-06
8.38456e-06
8.39301e-06
1.72462e-05
5.15344e-06
9.90642e-06
9.99687e-06
1.955e-05
5.57117e-06
1.15561e-05
1.16402e-05
2.15825e-05
6.04542e-06
1.30644e-05
1.31241e-05
2.32825e-05
6.62205e-06
1.46013e-05
1.46342e-05
2.46e-05
7.38915e-06
1.65936e-05
1.66038e-05
2.59821e-05
8.70242e-06
1.94877e-05
1.94893e-05
2.8039e-05
1.06247e-05
2.28866e-05
2.28878e-05
3.05395e-05
1.2963e-05
2.61425e-05
2.61448e-05
3.2944e-05
1.54223e-05
2.88633e-05
2.88661e-05
3.49677e-05
1.72549e-05
3.04561e-05
3.04588e-05
3.60869e-05
1.82249e-05
3.11466e-05
3.11494e-05
3.65242e-05
1.86164e-05
3.13908e-05
3.13937e-05
3.66868e-05
1.87449e-05
3.14669e-05
3.14696e-05
3.67395e-05
1.87784e-05
3.14847e-05
3.14874e-05
3.67612e-05
1.87835e-05
3.14833e-05
3.14861e-05
3.67492e-05
1.87853e-05
3.14845e-05
3.14874e-05
3.67482e-05
1.87856e-05
3.14865e-05
3.1489e-05
3.6763e-05
1.87852e-05
3.14839e-05
3.14869e-05
3.67403e-05
1.87855e-05
3.14854e-05
3.1488e-05
3.6764e-05
1.87855e-05
3.14849e-05
3.14878e-05
3.67471e-05
1.87856e-05
3.14849e-05
3.14877e-05
3.67503e-05
1.87856e-05
3.14849e-05
3.14875e-05
3.67615e-05
1.87857e-05
3.14854e-05
3.14882e-05
3.67569e-05
1.87858e-05
3.14851e-05
3.14882e-05
3.67431e-05
1.87858e-05
3.1485e-05
3.14876e-05
3.67537e-05
1.87858e-05
3.14852e-05
3.14878e-05
3.67611e-05
1.87858e-05
3.1485e-05
3.14876e-05
3.6756e-05
1.87858e-05
3.14848e-05
3.14875e-05
3.67433e-05
1.87858e-05
3.14854e-05
3.14884e-05
3.67538e-05
1.87859e-05
3.14854e-05
3.1488e-05
3.67626e-05
1.87858e-05
3.14846e-05
3.14875e-05
3.67477e-05
1.87859e-05
3.14848e-05
3.1488e-05
3.67486e-05
1.8786e-05
3.14853e-05
3.14878e-05
3.67617e-05
1.8786e-05
3.14848e-05
3.14877e-05
3.67569e-05
1.87859e-05
3.14851e-05
3.1488e-05
3.6744e-05
1.87859e-05
3.14848e-05
3.1488e-05
3.67508e-05
1.87859e-05
3.14852e-05
3.14879e-05
3.67608e-05
1.8786e-05
3.14852e-05
3.14877e-05
3.67592e-05
1.87859e-05
3.14846e-05
3.14875e-05
3.6755e-05
1.87859e-05
3.14849e-05
3.14884e-05
3.67494e-05
1.87859e-05
3.14851e-05
3.1488e-05
3.67456e-05
1.87858e-05
3.14853e-05
3.14875e-05
3.67473e-05
1.87858e-05
3.14849e-05
3.14875e-05
3.67517e-05
1.87858e-05
3.14846e-05
3.14875e-05
3.67552e-05
1.87858e-05
3.14846e-05
3.14875e-05
3.67542e-05
1.87857e-05
3.14846e-05
3.14876e-05
3.67486e-05
1.87857e-05
3.14845e-05
3.14876e-05
3.6748e-05
1.87857e-05
3.14845e-05
3.14876e-05
3.67505e-05
1.87857e-05
3.14846e-05
3.14876e-05
3.67539e-05
1.87857e-05
3.14846e-05
3.14877e-05
3.67556e-05
1.87857e-05
3.14846e-05
3.14877e-05
3.67525e-05
1.87857e-05
3.14846e-05
3.14877e-05
3.67497e-05
1.87856e-05
3.1485e-05
3.14878e-05
3.67476e-05
1.87856e-05
3.14847e-05
3.1488e-05
3.67475e-05
1.87856e-05
3.14847e-05
3.14881e-05
3.67509e-05
1.87856e-05
3.14852e-05
3.14883e-05
3.67513e-05
1.87857e-05
3.14854e-05
3.14886e-05
3.67491e-05
1.87857e-05
3.14856e-05
3.1489e-05
3.67486e-05
1.87857e-05
3.14862e-05
3.14895e-05
3.67476e-05
1.87858e-05
3.14871e-05
3.14903e-05
3.67482e-05
1.87859e-05
3.14885e-05
3.14918e-05
3.67518e-05
1.8786e-05
3.14906e-05
3.14939e-05
3.67513e-05
1.8766e-05
3.14824e-05
3.14855e-05
3.67415e-05
1.83181e-05
3.0291e-05
3.02933e-05
3.59322e-05
3.50446e-07
3.23088e-07
3.57844e-07
3.4798e-07
3.58865e-07
3.74636e-07
2.28477e-06
2.28512e-06
2.29935e-06
2.29294e-06
2.87019e-07
3.67444e-07
3.72877e-07
3.71353e-07
3.57295e-07
3.72708e-07
3.46953e-07
3.31843e-07
3.67781e-07
4.17174e-07
3.66099e-07
4.13335e-07
3.44397e-07
3.2767e-07
4.12741e-07
4.25192e-07
4.0991e-07
4.22029e-07
4.11848e-07
3.20248e-07
4.09058e-07
3.70162e-07
3.58461e-07
3.98818e-07
4.13841e-07
4.00553e-07
3.55473e-07
3.2853e-07
3.17196e-07
3.6638e-07
4.13262e-07
3.69757e-07
4.14176e-07
3.24276e-07
3.11664e-07
4.09909e-07
4.22073e-07
4.11166e-07
4.23494e-07
4.09145e-07
3.28989e-07
4.10899e-07
3.55949e-07
3.47867e-07
4.01762e-07
4.15806e-07
4.06584e-07
3.42306e-07
3.1447e-07
3.071e-07
3.71226e-07
4.15064e-07
3.76939e-07
4.19044e-07
3.08707e-07
3.01025e-07
4.11815e-07
4.24384e-07
4.15369e-07
4.28338e-07
4.11889e-07
3.41895e-07
4.16107e-07
3.45476e-07
3.38266e-07
4.08205e-07
4.20103e-07
4.15558e-07
3.33365e-07
3.05008e-07
3.00975e-07
3.79405e-07
4.20508e-07
3.87276e-07
4.26561e-07
2.9888e-07
2.94825e-07
4.16871e-07
4.29848e-07
4.23235e-07
4.36845e-07
4.17963e-07
3.58639e-07
4.24239e-07
3.35919e-07
3.3055e-07
4.17874e-07
4.25917e-07
4.2716e-07
3.26792e-07
2.99432e-07
2.96569e-07
3.89878e-07
4.29208e-07
3.98476e-07
4.37952e-07
2.93463e-07
2.92168e-07
4.25801e-07
4.39186e-07
4.33623e-07
4.47874e-07
4.26818e-07
3.78949e-07
4.35562e-07
3.28578e-07
3.2499e-07
4.30348e-07
4.37056e-07
4.40335e-07
3.20517e-07
2.94822e-07
2.90979e-07
4.0191e-07
4.41088e-07
4.13643e-07
4.51729e-07
2.91034e-07
2.90697e-07
4.36919e-07
4.51007e-07
4.48707e-07
4.63646e-07
4.38732e-07
4.02331e-07
4.49551e-07
3.2332e-07
3.21201e-07
4.44281e-07
4.51252e-07
4.55081e-07
3.15659e-07
2.89127e-07
2.85993e-07
4.18475e-07
4.56019e-07
4.35283e-07
4.71144e-07
2.89496e-07
2.88197e-07
4.52983e-07
4.67353e-07
4.68649e-07
4.81807e-07
4.53737e-07
4.29306e-07
4.69447e-07
3.1964e-07
3.17115e-07
4.59687e-07
4.70775e-07
4.73665e-07
3.11311e-07
2.84378e-07
2.82962e-07
4.40989e-07
4.76381e-07
4.60118e-07
4.94393e-07
2.86766e-07
2.85609e-07
4.73758e-07
4.87074e-07
4.92637e-07
5.04868e-07
4.74935e-07
4.59035e-07
4.9483e-07
3.15225e-07
3.11427e-07
4.78162e-07
4.92795e-07
4.96745e-07
3.07408e-07
2.81687e-07
2.81718e-07
4.65791e-07
5.00446e-07
4.8573e-07
5.21694e-07
2.84312e-07
2.84239e-07
4.99103e-07
5.11699e-07
5.20552e-07
5.32675e-07
5.01562e-07
4.91919e-07
5.22771e-07
3.09374e-07
3.06175e-07
5.02062e-07
5.19309e-07
5.23084e-07
3.05265e-07
2.80592e-07
2.81696e-07
4.92599e-07
5.28722e-07
5.13737e-07
5.53598e-07
2.83043e-07
2.84086e-07
5.2848e-07
5.39672e-07
5.53012e-07
5.64077e-07
5.30094e-07
5.26822e-07
5.51769e-07
3.04457e-07
3.03423e-07
5.30808e-07
5.52394e-07
5.51842e-07
3.02981e-07
2.80588e-07
2.83618e-07
5.21927e-07
5.62756e-07
5.47481e-07
5.89891e-07
2.83023e-07
2.8721e-07
5.61984e-07
5.72051e-07
5.90894e-07
5.99015e-07
5.60002e-07
5.64915e-07
5.85995e-07
3.02061e-07
3.03096e-07
5.60085e-07
5.84523e-07
5.84349e-07
3.00752e-07
2.82827e-07
2.91838e-07
5.56849e-07
6.00191e-07
5.8827e-07
6.3131e-07
2.86452e-07
2.96018e-07
6.00928e-07
6.09879e-07
6.34542e-07
6.41096e-07
5.94813e-07
6.06265e-07
6.24943e-07
3.02208e-07
3.10862e-07
5.92233e-07
6.25583e-07
6.19011e-07
3.00594e-07
2.91434e-07
3.07894e-07
5.99455e-07
6.41959e-07
6.36499e-07
6.78409e-07
2.95631e-07
3.12773e-07
6.46514e-07
6.52616e-07
6.8463e-07
6.922e-07
6.35912e-07
6.55617e-07
6.69383e-07
3.10317e-07
3.24135e-07
6.28993e-07
6.72801e-07
6.62392e-07
3.09218e-07
3.08032e-07
3.31608e-07
6.50445e-07
6.9079e-07
6.95378e-07
7.2994e-07
3.1297e-07
3.36745e-07
6.98214e-07
7.05198e-07
7.42297e-07
7.47875e-07
6.81355e-07
7.13125e-07
7.24372e-07
3.23988e-07
3.43825e-07
6.73531e-07
7.27008e-07
7.13826e-07
3.26414e-07
3.32511e-07
3.61797e-07
7.11063e-07
7.44285e-07
7.61579e-07
7.89639e-07
3.3753e-07
3.64917e-07
7.5758e-07
7.63385e-07
8.04478e-07
8.1461e-07
7.38917e-07
7.8427e-07
7.84847e-07
3.4431e-07
3.70788e-07
7.3006e-07
7.91549e-07
7.80307e-07
3.51883e-07
3.66667e-07
4.01462e-07
7.79779e-07
8.05319e-07
8.37992e-07
8.60385e-07
3.69298e-07
4.03946e-07
8.20947e-07
8.33459e-07
8.74955e-07
8.91831e-07
8.02459e-07
8.61278e-07
8.58288e-07
3.75402e-07
4.12737e-07
7.99007e-07
8.62813e-07
8.58426e-07
3.91686e-07
4.08584e-07
4.53143e-07
8.58213e-07
8.80151e-07
9.25862e-07
9.42209e-07
4.11136e-07
4.58952e-07
8.93255e-07
9.13153e-07
9.51586e-07
9.84133e-07
8.77506e-07
9.58861e-07
9.41559e-07
4.20784e-07
4.71699e-07
8.78579e-07
9.48941e-07
9.49432e-07
4.46536e-07
4.63742e-07
5.26771e-07
9.51638e-07
9.66524e-07
1.02754e-06
1.0424e-06
4.70889e-07
5.43809e-07
9.74482e-07
1.0081e-06
1.04372e-06
1.08622e-06
9.66429e-07
1.08141e-06
1.03793e-06
4.83961e-07
5.55978e-07
9.77475e-07
1.05449e-06
1.06268e-06
5.26779e-07
5.43966e-07
6.3977e-07
1.05688e-06
1.07096e-06
1.15422e-06
1.16592e-06
5.63192e-07
6.70051e-07
1.0695e-06
1.11682e-06
1.15971e-06
1.21426e-06
1.06482e-06
1.23093e-06
1.15722e-06
5.75186e-07
6.82992e-07
1.0952e-06
1.18437e-06
1.19667e-06
6.46725e-07
6.68797e-07
8.37499e-07
1.18766e-06
1.19954e-06
1.31045e-06
1.31969e-06
7.01236e-07
8.71112e-07
1.192e-06
1.24873e-06
1.31152e-06
1.3786e-06
1.18891e-06
1.4062e-06
1.30761e-06
7.13943e-07
8.90951e-07
1.22815e-06
1.34569e-06
1.34388e-06
8.47409e-07
8.86417e-07
1.14663e-06
1.35481e-06
1.36535e-06
1.50141e-06
1.52123e-06
9.19502e-07
1.19101e-06
1.3559e-06
1.42809e-06
1.49996e-06
1.57889e-06
1.35299e-06
1.60392e-06
1.49853e-06
9.41755e-07
1.2167e-06
1.38762e-06
1.55131e-06
1.52754e-06
1.161e-06
1.22416e-06
1.63417e-06
1.56221e-06
1.58138e-06
1.76643e-06
1.77834e-06
1.26759e-06
1.64078e-06
1.5588e-06
1.6354e-06
1.76376e-06
1.8493e-06
1.55721e-06
1.8406e-06
1.76066e-06
1.29541e-06
1.7114e-06
1.58497e-06
1.81823e-06
1.7881e-06
1.64771e-06
1.75293e-06
2.36167e-06
1.84158e-06
1.85362e-06
2.1017e-06
2.12953e-06
1.75485e-06
2.38486e-06
1.83845e-06
1.92655e-06
2.09683e-06
2.15871e-06
1.8365e-06
2.15006e-06
2.09919e-06
1.83699e-06
2.44339e-06
1.86602e-06
2.1792e-06
2.14015e-06
2.39407e-06
2.5347e-06
3.42025e-06
2.20136e-06
2.23571e-06
2.53271e-06
2.57536e-06
2.56632e-06
3.47213e-06
2.19794e-06
2.25416e-06
2.53234e-06
2.60824e-06
2.19913e-06
2.55119e-06
2.52897e-06
2.61202e-06
3.54362e-06
2.24347e-06
2.67637e-06
2.57316e-06
3.45536e-06
3.66016e-06
4.86281e-06
2.65605e-06
2.70021e-06
3.08372e-06
3.13644e-06
3.71319e-06
4.90391e-06
2.65496e-06
2.72555e-06
3.08126e-06
3.07425e-06
2.65156e-06
3.06186e-06
3.07134e-06
3.79864e-06
4.94509e-06
2.69306e-06
3.29597e-06
3.10886e-06
4.87586e-06
5.18213e-06
6.71177e-06
3.24376e-06
3.29824e-06
3.75671e-06
3.80944e-06
5.22267e-06
6.7608e-06
3.24139e-06
3.21477e-06
3.75947e-06
3.74903e-06
3.22952e-06
3.71277e-06
3.74615e-06
5.22359e-06
6.5724e-06
3.2647e-06
3.93889e-06
3.75225e-06
6.68893e-06
7.09957e-06
8.93426e-06
3.94859e-06
3.99718e-06
4.5994e-06
4.62816e-06
7.1479e-06
8.96128e-06
3.95397e-06
3.96254e-06
4.61113e-06
4.65216e-06
3.93998e-06
4.52367e-06
4.59721e-06
6.95378e-06
8.92678e-06
3.92987e-06
4.72774e-06
4.5447e-06
8.89582e-06
9.38648e-06
1.14407e-05
4.83532e-06
4.85773e-06
5.60234e-06
5.58795e-06
9.4139e-06
1.1441e-05
4.84839e-06
4.88288e-06
5.61556e-06
5.59563e-06
4.83463e-06
5.50897e-06
5.60609e-06
9.40253e-06
1.13911e-05
4.77118e-06
5.60165e-06
5.51285e-06
1.13982e-05
1.19474e-05
1.41058e-05
5.88222e-06
5.84999e-06
6.78646e-06
6.73249e-06
1.1937e-05
1.40973e-05
5.89159e-06
5.85639e-06
6.79201e-06
6.74543e-06
5.88819e-06
6.68893e-06
6.79886e-06
1.18691e-05
1.39898e-05
5.78685e-06
6.72149e-06
6.6894e-06
1.41031e-05
1.46263e-05
1.67806e-05
7.11254e-06
7.05696e-06
8.17598e-06
8.06522e-06
1.46258e-05
1.67032e-05
7.11976e-06
7.07633e-06
8.16372e-06
8.11914e-06
7.1247e-06
8.03703e-06
8.17317e-06
1.45126e-05
1.66329e-05
7.01466e-06
8.03377e-06
8.0351e-06
1.67425e-05
1.72938e-05
1.9167e-05
8.55635e-06
8.4106e-06
9.74316e-06
9.52096e-06
1.71892e-05
1.9029e-05
8.52904e-06
8.47371e-06
9.68748e-06
9.58584e-06
8.54435e-06
9.50307e-06
9.70992e-06
1.71367e-05
1.90515e-05
8.3869e-06
9.57777e-06
9.50128e-06
1.91002e-05
1.96114e-05
2.11752e-05
1.01438e-05
9.92389e-06
1.13151e-05
1.11731e-05
1.94948e-05
2.11925e-05
1.00903e-05
9.98227e-06
1.12879e-05
1.12105e-05
1.01099e-05
1.11537e-05
1.12929e-05
1.95249e-05
2.12414e-05
9.89742e-06
1.12452e-05
1.11171e-05
2.11687e-05
2.15801e-05
2.29294e-05
1.1689e-05
1.1578e-05
1.27719e-05
1.27183e-05
2.16152e-05
2.29497e-05
1.16695e-05
1.16114e-05
1.27639e-05
1.27442e-05
1.16705e-05
1.2695e-05
1.27577e-05
2.1665e-05
2.29994e-05
1.15174e-05
1.27605e-05
1.26717e-05
2.29408e-05
2.3273e-05
2.43103e-05
1.31338e-05
1.30879e-05
1.42593e-05
1.42198e-05
2.32836e-05
2.42826e-05
1.31258e-05
1.31098e-05
1.42484e-05
1.42282e-05
1.3119e-05
1.42e-05
1.42397e-05
2.33302e-05
2.4308e-05
1.30507e-05
1.42399e-05
1.42043e-05
2.43057e-05
2.46067e-05
2.56454e-05
1.4659e-05
1.4621e-05
1.60596e-05
1.60333e-05
2.45769e-05
2.56227e-05
1.46473e-05
1.46254e-05
1.60494e-05
1.60303e-05
1.46376e-05
1.60171e-05
1.60393e-05
2.45977e-05
2.56284e-05
1.46082e-05
1.60317e-05
1.60212e-05
2.56356e-05
2.5991e-05
2.75798e-05
1.66302e-05
1.66091e-05
1.87061e-05
1.86979e-05
2.59717e-05
2.75733e-05
1.66209e-05
1.66049e-05
1.86991e-05
1.86937e-05
1.66122e-05
1.86871e-05
1.8696e-05
2.59751e-05
2.75719e-05
1.65968e-05
1.86898e-05
1.86859e-05
2.75774e-05
2.8041e-05
3.00542e-05
1.95033e-05
1.94978e-05
2.20435e-05
2.20418e-05
2.80365e-05
3.00527e-05
1.94965e-05
1.9494e-05
2.20375e-05
2.20402e-05
1.94953e-05
2.20348e-05
2.20403e-05
2.80347e-05
3.00524e-05
1.94863e-05
2.20357e-05
2.2033e-05
3.00541e-05
3.05399e-05
3.25003e-05
2.28948e-05
2.28932e-05
2.5362e-05
2.53605e-05
3.05388e-05
3.24994e-05
2.28887e-05
2.28923e-05
2.53566e-05
2.53619e-05
2.28924e-05
2.53565e-05
2.53619e-05
3.05387e-05
3.25009e-05
2.28856e-05
2.53585e-05
2.53561e-05
3.25014e-05
3.2943e-05
3.46248e-05
2.61476e-05
2.6146e-05
2.82788e-05
2.82772e-05
3.29426e-05
3.46246e-05
2.61422e-05
2.61478e-05
2.82743e-05
2.82794e-05
2.61478e-05
2.8275e-05
2.82796e-05
3.29439e-05
3.46262e-05
2.61424e-05
2.82779e-05
2.82748e-05
3.46263e-05
3.49667e-05
3.59142e-05
2.88669e-05
2.8865e-05
3.01662e-05
3.0164e-05
3.49667e-05
3.5913e-05
2.88625e-05
2.88674e-05
3.01628e-05
3.01666e-05
2.88676e-05
3.01631e-05
3.01673e-05
3.49681e-05
3.59153e-05
2.88632e-05
3.01659e-05
3.01637e-05
3.59158e-05
3.60854e-05
3.64324e-05
3.0459e-05
3.04566e-05
3.10332e-05
3.10308e-05
3.6084e-05
3.64312e-05
3.04557e-05
3.04592e-05
3.10305e-05
3.10335e-05
3.04601e-05
3.10307e-05
3.10344e-05
3.60864e-05
3.64336e-05
3.04567e-05
3.10335e-05
3.10314e-05
3.6434e-05
3.65227e-05
3.66319e-05
3.11489e-05
3.11464e-05
3.13553e-05
3.13528e-05
3.65215e-05
3.6631e-05
3.11461e-05
3.11491e-05
3.13527e-05
3.13556e-05
3.115e-05
3.1353e-05
3.13564e-05
3.65238e-05
3.66333e-05
3.11471e-05
3.13559e-05
3.13536e-05
3.66335e-05
3.66854e-05
3.66976e-05
3.13929e-05
3.13904e-05
3.14572e-05
3.14548e-05
3.66845e-05
3.66968e-05
3.13903e-05
3.13931e-05
3.14546e-05
3.14575e-05
3.13939e-05
3.14553e-05
3.14581e-05
3.66866e-05
3.66989e-05
3.13912e-05
3.1458e-05
3.14555e-05
3.66988e-05
3.67383e-05
3.67224e-05
3.14687e-05
3.14663e-05
3.14855e-05
3.1483e-05
3.67376e-05
3.67218e-05
3.14661e-05
3.1469e-05
3.14829e-05
3.14857e-05
3.14695e-05
3.14835e-05
3.14863e-05
3.67395e-05
3.67237e-05
3.14669e-05
3.14862e-05
3.14837e-05
3.67236e-05
3.67602e-05
3.6714e-05
3.14867e-05
3.14842e-05
3.14861e-05
3.14835e-05
3.67596e-05
3.6713e-05
3.1484e-05
3.14869e-05
3.14834e-05
3.14862e-05
3.14875e-05
3.1484e-05
3.14869e-05
3.67614e-05
3.67154e-05
3.14849e-05
3.14867e-05
3.14842e-05
3.67157e-05
3.67479e-05
3.67091e-05
3.14855e-05
3.14828e-05
3.14856e-05
3.14829e-05
3.67468e-05
3.67082e-05
3.14828e-05
3.14856e-05
3.14828e-05
3.14857e-05
3.14862e-05
3.14834e-05
3.14862e-05
3.67491e-05
3.67102e-05
3.14836e-05
3.14862e-05
3.14836e-05
3.67099e-05
3.67475e-05
3.67239e-05
3.14866e-05
3.14838e-05
3.14888e-05
3.14861e-05
3.67466e-05
3.6723e-05
3.14839e-05
3.14868e-05
3.14861e-05
3.1489e-05
3.14872e-05
3.14867e-05
3.14895e-05
3.67485e-05
3.67264e-05
3.14847e-05
3.14895e-05
3.1487e-05
3.67268e-05
3.67605e-05
3.67048e-05
3.14884e-05
3.14857e-05
3.14861e-05
3.14831e-05
3.67598e-05
3.67036e-05
3.14856e-05
3.14885e-05
3.14832e-05
3.14861e-05
3.1489e-05
3.14837e-05
3.14866e-05
3.67625e-05
3.67056e-05
3.14864e-05
3.14865e-05
3.1484e-05
3.6705e-05
3.67391e-05
3.67263e-05
3.14862e-05
3.14833e-05
3.14878e-05
3.14851e-05
3.6738e-05
3.67254e-05
3.14833e-05
3.14863e-05
3.1485e-05
3.14878e-05
3.14868e-05
3.1486e-05
3.14887e-05
3.67403e-05
3.67278e-05
3.14843e-05
3.14884e-05
3.1486e-05
3.6728e-05
3.67634e-05
3.6704e-05
3.14873e-05
3.14844e-05
3.14872e-05
3.1484e-05
3.67626e-05
3.67025e-05
3.14844e-05
3.14872e-05
3.14842e-05
3.14871e-05
3.14879e-05
3.14848e-05
3.14877e-05
3.67644e-05
3.67057e-05
3.14853e-05
3.14877e-05
3.14851e-05
3.67062e-05
3.67435e-05
3.67189e-05
3.14871e-05
3.14839e-05
3.14871e-05
3.1484e-05
3.67413e-05
3.67199e-05
3.14841e-05
3.1487e-05
3.14841e-05
3.1487e-05
3.14879e-05
3.14849e-05
3.14877e-05
3.67458e-05
3.67193e-05
3.14852e-05
3.14876e-05
3.14851e-05
3.67186e-05
3.67504e-05
3.67224e-05
3.14871e-05
3.14839e-05
3.14878e-05
3.14842e-05
3.67512e-05
3.67192e-05
3.14841e-05
3.14871e-05
3.14847e-05
3.14875e-05
3.14877e-05
3.14851e-05
3.14882e-05
3.67508e-05
3.67239e-05
3.14851e-05
3.14879e-05
3.14856e-05
3.6724e-05
3.67604e-05
3.67123e-05
3.14872e-05
3.14839e-05
3.14878e-05
3.1484e-05
3.67585e-05
3.67062e-05
3.14841e-05
3.14871e-05
3.14847e-05
3.14878e-05
3.14875e-05
3.14852e-05
3.14885e-05
3.67615e-05
3.67151e-05
3.1485e-05
3.14882e-05
3.14859e-05
3.67141e-05
3.67553e-05
3.67065e-05
3.14879e-05
3.14844e-05
3.14872e-05
3.14837e-05
3.67478e-05
3.67079e-05
3.14848e-05
3.14877e-05
3.14839e-05
3.14872e-05
3.14886e-05
3.14848e-05
3.14874e-05
3.67572e-05
3.67089e-05
3.1486e-05
3.14875e-05
3.14848e-05
3.67076e-05
3.67437e-05
3.67137e-05
3.14875e-05
3.14837e-05
3.14875e-05
3.14841e-05
3.67424e-05
3.67149e-05
3.14844e-05
3.14876e-05
3.14841e-05
3.14873e-05
3.14877e-05
3.1485e-05
3.14882e-05
3.6749e-05
3.67109e-05
3.14852e-05
3.14875e-05
3.14854e-05
3.67223e-05
3.67462e-05
3.67214e-05
3.14875e-05
3.1484e-05
3.14875e-05
3.14839e-05
3.67472e-05
3.67169e-05
3.14841e-05
3.14874e-05
3.14843e-05
3.14871e-05
3.14878e-05
3.1485e-05
3.1488e-05
3.67453e-05
3.67154e-05
3.14851e-05
3.14877e-05
3.14854e-05
3.67232e-05
3.67537e-05
3.67212e-05
3.14875e-05
3.1484e-05
3.14876e-05
3.14838e-05
3.67494e-05
3.67108e-05
3.14841e-05
3.14872e-05
3.14844e-05
3.14873e-05
3.14879e-05
3.14849e-05
3.1488e-05
3.67479e-05
3.67189e-05
3.14853e-05
3.14877e-05
3.14854e-05
3.67128e-05
3.67546e-05
3.67224e-05
3.14873e-05
3.14837e-05
3.14881e-05
3.14842e-05
3.67443e-05
3.67119e-05
3.14839e-05
3.1487e-05
3.14847e-05
3.14878e-05
3.14881e-05
3.14851e-05
3.14879e-05
3.67504e-05
3.67232e-05
3.14855e-05
3.14881e-05
3.14852e-05
3.67088e-05
3.67558e-05
3.67234e-05
3.14875e-05
3.14839e-05
3.14881e-05
3.14842e-05
3.67445e-05
3.67197e-05
3.14842e-05
3.14873e-05
3.14846e-05
3.14877e-05
3.14878e-05
3.14855e-05
3.14883e-05
3.67551e-05
3.67242e-05
3.14851e-05
3.14885e-05
3.14857e-05
3.67226e-05
3.67605e-05
3.67136e-05
3.1488e-05
3.14842e-05
3.14875e-05
3.14839e-05
3.67519e-05
3.67172e-05
3.14845e-05
3.14877e-05
3.14841e-05
3.14872e-05
3.14881e-05
3.1485e-05
3.14882e-05
3.6761e-05
3.6718e-05
3.14854e-05
3.14875e-05
3.14857e-05
3.6724e-05
3.67552e-05
3.6713e-05
3.1488e-05
3.14841e-05
3.14875e-05
3.14837e-05
3.67508e-05
3.67113e-05
3.14846e-05
3.14873e-05
3.14841e-05
3.14875e-05
3.14882e-05
3.14845e-05
3.14877e-05
3.67567e-05
3.67242e-05
3.14858e-05
3.14879e-05
3.1485e-05
3.67067e-05
3.67514e-05
3.67192e-05
3.14874e-05
3.14837e-05
3.1488e-05
3.14844e-05
3.67436e-05
3.6723e-05
3.14839e-05
3.14871e-05
3.14846e-05
3.14875e-05
3.14878e-05
3.14856e-05
3.14886e-05
3.67606e-05
3.67178e-05
3.14853e-05
3.1488e-05
3.14854e-05
3.67166e-05
3.67599e-05
3.67068e-05
3.14878e-05
3.14837e-05
3.14877e-05
3.14841e-05
3.6756e-05
3.67143e-05
3.14843e-05
3.14874e-05
3.14842e-05
3.14873e-05
3.1488e-05
3.14851e-05
3.14879e-05
3.67589e-05
3.6708e-05
3.1485e-05
3.14877e-05
3.14859e-05
3.6725e-05
3.67483e-05
3.67102e-05
3.14878e-05
3.1484e-05
3.14876e-05
3.14841e-05
3.67535e-05
3.67177e-05
3.14842e-05
3.14873e-05
3.14842e-05
3.14875e-05
3.14879e-05
3.1485e-05
3.14881e-05
3.67442e-05
3.67179e-05
3.14854e-05
3.1488e-05
3.14857e-05
3.67146e-05
3.67437e-05
3.67211e-05
3.14877e-05
3.14837e-05
3.14877e-05
3.14844e-05
3.67502e-05
3.6723e-05
3.14841e-05
3.14872e-05
3.14843e-05
3.14878e-05
3.14879e-05
3.1485e-05
3.14879e-05
3.67495e-05
3.67257e-05
3.14859e-05
3.1488e-05
3.1485e-05
3.67084e-05
3.67524e-05
3.67233e-05
3.14876e-05
3.14844e-05
3.14878e-05
3.14837e-05
3.67594e-05
3.67144e-05
3.14841e-05
3.14876e-05
3.14844e-05
3.14874e-05
3.14882e-05
3.14847e-05
3.14878e-05
3.67612e-05
3.67183e-05
3.14854e-05
3.14878e-05
3.14851e-05
3.67194e-05
3.67601e-05
3.67168e-05
3.14876e-05
3.14839e-05
3.14883e-05
3.14841e-05
3.67556e-05
3.67096e-05
3.14844e-05
3.14878e-05
3.14842e-05
3.14871e-05
3.14878e-05
3.14853e-05
3.14882e-05
3.67593e-05
3.67092e-05
3.1485e-05
3.14877e-05
3.14855e-05
3.67249e-05
3.6758e-05
3.67085e-05
3.14879e-05
3.1484e-05
3.14879e-05
3.14838e-05
3.67529e-05
3.67043e-05
3.14842e-05
3.14873e-05
3.14842e-05
3.14872e-05
3.14879e-05
3.14846e-05
3.14881e-05
3.67508e-05
3.67092e-05
3.14852e-05
3.14876e-05
3.14855e-05
3.67191e-05
3.6751e-05
3.67077e-05
3.14885e-05
3.14841e-05
3.14873e-05
3.14839e-05
3.67406e-05
3.67181e-05
3.14842e-05
3.14872e-05
3.14842e-05
3.14877e-05
3.1488e-05
3.14846e-05
3.1488e-05
3.67436e-05
3.67221e-05
3.14853e-05
3.14882e-05
3.14855e-05
3.67126e-05
3.67433e-05
3.67141e-05
3.14875e-05
3.14837e-05
3.1488e-05
3.14843e-05
3.67496e-05
3.67208e-05
3.14842e-05
3.1487e-05
3.14843e-05
3.14878e-05
3.1488e-05
3.14851e-05
3.1488e-05
3.67531e-05
3.67231e-05
3.14854e-05
3.14883e-05
3.14854e-05
3.67096e-05
3.67464e-05
3.67222e-05
3.14875e-05
3.14842e-05
3.14879e-05
3.14841e-05
3.67589e-05
3.67113e-05
3.14841e-05
3.14878e-05
3.14843e-05
3.14871e-05
3.1488e-05
3.1485e-05
3.14878e-05
3.67619e-05
3.67092e-05
3.14855e-05
3.14874e-05
3.14851e-05
3.67103e-05
3.67544e-05
3.67222e-05
3.1488e-05
3.14844e-05
3.14877e-05
3.14836e-05
3.67537e-05
3.67063e-05
3.14842e-05
3.14875e-05
3.14842e-05
3.14871e-05
3.1488e-05
3.14848e-05
3.14878e-05
3.6751e-05
3.67103e-05
3.14854e-05
3.14874e-05
3.14852e-05
3.67144e-05
3.67583e-05
3.67199e-05
3.14878e-05
3.14841e-05
3.14878e-05
3.14836e-05
3.67465e-05
3.67074e-05
3.14843e-05
3.14873e-05
3.14842e-05
3.14871e-05
3.14878e-05
3.14844e-05
3.14878e-05
3.67452e-05
3.67143e-05
3.14852e-05
3.14875e-05
3.14852e-05
3.67199e-05
3.67576e-05
3.67202e-05
3.14875e-05
3.14835e-05
3.14883e-05
3.14841e-05
3.67422e-05
3.6713e-05
3.14842e-05
3.14872e-05
3.14841e-05
3.14872e-05
3.14878e-05
3.14845e-05
3.14879e-05
3.67471e-05
3.67187e-05
3.14853e-05
3.14874e-05
3.14852e-05
3.67221e-05
3.67575e-05
3.67206e-05
3.14881e-05
3.14841e-05
3.14878e-05
3.14838e-05
3.67453e-05
3.67196e-05
3.14842e-05
3.14873e-05
3.1484e-05
3.14872e-05
3.1488e-05
3.14847e-05
3.14878e-05
3.67504e-05
3.67212e-05
3.14852e-05
3.14874e-05
3.14852e-05
3.67206e-05
3.67572e-05
3.67214e-05
3.14881e-05
3.14839e-05
3.14876e-05
3.14837e-05
3.67514e-05
3.67202e-05
3.14841e-05
3.14872e-05
3.1484e-05
3.14873e-05
3.1488e-05
3.14846e-05
3.14878e-05
3.67529e-05
3.67222e-05
3.14852e-05
3.14874e-05
3.14852e-05
3.67161e-05
3.67568e-05
3.67223e-05
3.14876e-05
3.14837e-05
3.14881e-05
3.1484e-05
3.67542e-05
3.67202e-05
3.1484e-05
3.14871e-05
3.14841e-05
3.14874e-05
3.14879e-05
3.14844e-05
3.14878e-05
3.67543e-05
3.67236e-05
3.14854e-05
3.14875e-05
3.1485e-05
3.67154e-05
3.67584e-05
3.67201e-05
3.14877e-05
3.14838e-05
3.14878e-05
3.14837e-05
3.67544e-05
3.67207e-05
3.14841e-05
3.14874e-05
3.1484e-05
3.14871e-05
3.14878e-05
3.14844e-05
3.14877e-05
3.67572e-05
3.6723e-05
3.14852e-05
3.14874e-05
3.1485e-05
3.67187e-05
3.67589e-05
3.67147e-05
3.1488e-05
3.14838e-05
3.14873e-05
3.14834e-05
3.67562e-05
3.67192e-05
3.14842e-05
3.14872e-05
3.14839e-05
3.14871e-05
3.14877e-05
3.14843e-05
3.14876e-05
3.67589e-05
3.67221e-05
3.14851e-05
3.14874e-05
3.1485e-05
3.67217e-05
3.6756e-05
3.67122e-05
3.14876e-05
3.14836e-05
3.14873e-05
3.14834e-05
3.67565e-05
3.67185e-05
3.14841e-05
3.14872e-05
3.14838e-05
3.14871e-05
3.14878e-05
3.14841e-05
3.14874e-05
3.67591e-05
3.67212e-05
3.14851e-05
3.14873e-05
3.14849e-05
3.67219e-05
3.67536e-05
3.67135e-05
3.14875e-05
3.14836e-05
3.14873e-05
3.14834e-05
3.67564e-05
3.67176e-05
3.14841e-05
3.14873e-05
3.14837e-05
3.14868e-05
3.14878e-05
3.14841e-05
3.14873e-05
3.67594e-05
3.67188e-05
3.14852e-05
3.14872e-05
3.14847e-05
3.67199e-05
3.67544e-05
3.67163e-05
3.14877e-05
3.14838e-05
3.1487e-05
3.14831e-05
3.67564e-05
3.67158e-05
3.14841e-05
3.14872e-05
3.14836e-05
3.14867e-05
3.14877e-05
3.14841e-05
3.14873e-05
3.67582e-05
3.67184e-05
3.14852e-05
3.14871e-05
3.14846e-05
3.67173e-05
3.67559e-05
3.67201e-05
3.14877e-05
3.14838e-05
3.14869e-05
3.14829e-05
3.67555e-05
3.67147e-05
3.1484e-05
3.14871e-05
3.14836e-05
3.14867e-05
3.14878e-05
3.14839e-05
3.1487e-05
3.67578e-05
3.67191e-05
3.14852e-05
3.1487e-05
3.14845e-05
3.67145e-05
3.67581e-05
3.6719e-05
3.14875e-05
3.14836e-05
3.14869e-05
3.14829e-05
3.67548e-05
3.67148e-05
3.14842e-05
3.14874e-05
3.14832e-05
3.14862e-05
3.14879e-05
3.14835e-05
3.14869e-05
3.67583e-05
3.67192e-05
3.14852e-05
3.14869e-05
3.14844e-05
3.67147e-05
3.67583e-05
3.67147e-05
3.14878e-05
3.14837e-05
3.14867e-05
3.14828e-05
3.67542e-05
3.67185e-05
3.14843e-05
3.14873e-05
3.14831e-05
3.14863e-05
3.14878e-05
3.14836e-05
3.1487e-05
3.67581e-05
3.67202e-05
3.14853e-05
3.14868e-05
3.14843e-05
3.67187e-05
3.67559e-05
3.6713e-05
3.14879e-05
3.14838e-05
3.14865e-05
3.14827e-05
3.67554e-05
3.67195e-05
3.14843e-05
3.14873e-05
3.1483e-05
3.14862e-05
3.1488e-05
3.14836e-05
3.14868e-05
3.67589e-05
3.67189e-05
3.14855e-05
3.14867e-05
3.14841e-05
3.67189e-05
3.67544e-05
3.67138e-05
3.14881e-05
3.14841e-05
3.14864e-05
3.14825e-05
3.67566e-05
3.67178e-05
3.14845e-05
3.14877e-05
3.14829e-05
3.1486e-05
3.14884e-05
3.14832e-05
3.14864e-05
3.67587e-05
3.67153e-05
3.14856e-05
3.14865e-05
3.1484e-05
3.67163e-05
3.67551e-05
3.67146e-05
3.14883e-05
3.14844e-05
3.14862e-05
3.14823e-05
3.67564e-05
3.67165e-05
3.14848e-05
3.1488e-05
3.14827e-05
3.14857e-05
3.14884e-05
3.1483e-05
3.14864e-05
3.67566e-05
3.67139e-05
3.14858e-05
3.14864e-05
3.14838e-05
3.67154e-05
3.67555e-05
3.67159e-05
3.14887e-05
3.14848e-05
3.14861e-05
3.14821e-05
3.6756e-05
3.67153e-05
3.14852e-05
3.14883e-05
3.14825e-05
3.14856e-05
3.14887e-05
3.14831e-05
3.14863e-05
3.67553e-05
3.67148e-05
3.14863e-05
3.14862e-05
3.14834e-05
3.6714e-05
3.67559e-05
3.67186e-05
3.14892e-05
3.14853e-05
3.14861e-05
3.14821e-05
3.67554e-05
3.67151e-05
3.14856e-05
3.14888e-05
3.14825e-05
3.14856e-05
3.14894e-05
3.14831e-05
3.14863e-05
3.67557e-05
3.67172e-05
3.14866e-05
3.14863e-05
3.14837e-05
3.6715e-05
3.67572e-05
3.67195e-05
3.149e-05
3.1486e-05
3.14864e-05
3.14825e-05
3.6755e-05
3.67174e-05
3.14865e-05
3.14896e-05
3.14828e-05
3.14858e-05
3.14902e-05
3.14833e-05
3.14866e-05
3.67572e-05
3.67189e-05
3.14875e-05
3.14866e-05
3.14838e-05
3.67188e-05
3.67579e-05
3.67186e-05
3.14913e-05
3.14875e-05
3.1487e-05
3.14832e-05
3.67565e-05
3.67162e-05
3.14879e-05
3.1491e-05
3.14833e-05
3.14866e-05
3.14916e-05
3.1484e-05
3.14873e-05
3.67582e-05
3.67198e-05
3.1489e-05
3.14872e-05
3.14844e-05
3.67181e-05
3.67575e-05
3.67142e-05
3.14935e-05
3.14897e-05
3.14798e-05
3.1476e-05
3.67565e-05
3.67074e-05
3.14899e-05
3.1493e-05
3.14763e-05
3.14794e-05
3.14937e-05
3.14769e-05
3.14799e-05
3.67586e-05
3.67152e-05
3.14908e-05
3.148e-05
3.14772e-05
3.67099e-05
3.67502e-05
3.63424e-05
3.14852e-05
3.14814e-05
3.10644e-05
3.10593e-05
3.67447e-05
3.6339e-05
3.14817e-05
3.14847e-05
3.10622e-05
3.10615e-05
3.14854e-05
3.10631e-05
3.10626e-05
3.67519e-05
3.63421e-05
3.14826e-05
3.10653e-05
3.10613e-05
3.63403e-05
3.59348e-05
3.02917e-05
3.02869e-05
3.59322e-05
3.02904e-05
3.02891e-05
1.83164e-05
1.83175e-05
1.83166e-05
3.02898e-05
3.59351e-05
3.02893e-05
5.81059e-06
8.85201e-07
3.90436e-06
3.90817e-06
1.00307e-07
2.87268e-07
2.6662e-07
2.34298e-06
9.75984e-08
3.71493e-07
2.34652e-06
4.6864e-07
3.80128e-07
4.06682e-07
3.93486e-07
2.88088e-07
5.00161e-06
2.43451e-07
6.52873e-06
1.41268e-05
2.173e-05
3.01496e-07
4.93831e-06
2.51861e-07
6.59999e-06
2.22065e-06
2.23593e-06
2.22934e-06
2.20947e-06
2.21131e-06
2.22478e-06
2.21762e-06
9.1842e-08
5.49235e-07
1.01596e-06
3.17916e-07
9.59209e-08
5.31425e-07
1.00699e-06
1.41687e-05
2.18753e-05
9.44373e-08
1.0299e-06
7.13965e-07
4.14436e-07
9.65864e-08
1.0214e-06
6.82813e-07
1.9249e-06
1.88989e-06
3.63506e-07
1.90165e-06
1.86645e-06
4.99859e-07
9.89483e-06
3.89851e-07
1.25061e-05
3.71072e-05
4.66949e-05
5.08448e-07
9.65031e-06
3.95854e-07
1.24667e-05
2.22644e-06
2.23911e-06
2.23187e-06
2.27217e-06
2.27434e-06