/*--------------------------------*- C++ -*----------------------------------*\
| =========                 |                                                 |
| \\      /  F ield         | OpenFOAM: The Open Source CFD Toolbox           |
|  \\    /   O peration     | Version:  v2006                                 |
|   \\  /    A nd           | Website:  www.openfoam.com                      |
|    \\/     M anipulation  |                                                 |
\*---------------------------------------------------------------------------*/
FoamFile
{
    version     2.0;
    format      ascii;
    class       volScalarField;
    location    "375";
    object      nut;
}
// * * * * * * * * * * * * * * * * * * * * * * * * * * * * * * * * * * * * * //

dimensions      [0 2 -1 0 0 0 0];


internalField   nonuniform List<scalar> 
14361
(
0.000191729
0.000204586
0.000101761
0.000138369
7.78139e-05
2.41048e-05
5.12841e-05
9.89469e-05
0.000104938
4.91553e-05
4.92405e-05
0.00010333
0.000104937
0.00012438
4.91691e-05
7.88362e-05
0.000126815
0.000103337
4.92529e-05
8.22951e-05
2.18945e-05
2.18979e-05
2.19157e-05
8.14404e-05
2.1919e-05
2.41237e-05
2.05222e-05
7.94326e-05
5.13636e-05
8.03634e-05
2.05035e-05
3.70787e-05
0.000100592
9.39871e-05
4.14166e-05
9.54278e-05
3.70462e-05
4.14511e-05
0.000135361
0.000152571
0.000155603
0.000132676
0.000155316
0.000140992
0.000119442
0.000103537
0.000152116
0.000143677
0.000121909
0.00016482
0.000141586
0.000165637
0.000132766
0.000161392
0.000169153
0.000135718
0.000194612
0.000169786
0.00019457
0.000194625
0.000169734
0.000212778
0.000212735
7.66726e-05
2.40836e-05
9.98538e-05
0.000134895
5.11859e-05
9.7165e-05
9.98124e-05
0.000134883
5.1182e-05
9.71588e-05
2.40813e-05
7.66566e-05
7.66765e-05
2.40836e-05
0.000208323
9.9856e-05
0.000134917
0.000208415
9.98193e-05
0.000134908
5.11884e-05
9.71877e-05
5.11808e-05
9.71682e-05
7.66445e-05
7.66436e-05
2.40825e-05
2.40814e-05
0.000121726
4.9065e-05
0.000101633
2.18717e-05
2.18749e-05
8.05108e-05
7.84403e-05
2.04847e-05
9.24413e-05
4.13728e-05
3.70065e-05
7.84119e-05
2.04834e-05
4.13731e-05
9.24222e-05
3.7005e-05
0.000121683
4.90568e-05
0.000101628
0.000121723
4.90698e-05
0.000101625
2.1872e-05
2.18754e-05
8.05056e-05
2.04569e-05
5.10828e-05
7.84572e-05
7.75303e-05
2.04852e-05
3.6959e-05
9.5567e-05
9.24603e-05
4.13741e-05
9.10462e-05
4.13225e-05
3.70075e-05
2.04563e-05
5.10816e-05
7.84171e-05
7.75361e-05
2.04831e-05
3.6958e-05
9.55988e-05
9.24323e-05
4.13727e-05
9.10677e-05
4.13234e-05
3.70042e-05
0.000121657
4.90638e-05
0.000101601
0.000100108
0.00012165
7.56717e-05
4.90545e-05
0.000101599
0.000119571
4.89559e-05
2.1874e-05
2.18717e-05
8.04802e-05
2.40537e-05
0.000149942
0.000149921
0.000129841
0.000127849
0.000170302
0.000149901
0.000149892
0.000129785
0.000149591
0.00014962
0.000218569
0.000218554
0.000137861
0.000116784
0.000149159
0.000129588
0.000163934
0.00015926
0.000137788
0.000116741
0.000149113
0.000163927
0.000129556
0.000159237
0.000148602
0.000137833
9.81415e-05
0.000116802
0.000149122
0.000136568
0.000114512
0.000159218
0.000132782
0.000163888
0.000129615
0.000159222
0.00016428
0.000127204
0.000148549
0.0001378
9.81082e-05
0.000116758
0.000114475
0.000136487
0.000149135
0.000159159
0.000132749
0.000163958
0.000129581
0.000164237
0.000127172
0.000159264
0.000102917
0.000150559
0.000102914
0.000150557
3.68286e-05
0.000102572
9.72906e-05
4.11681e-05
9.69854e-05
4.11848e-05
3.68123e-05
3.68267e-05
0.00010257
4.1168e-05
9.72813e-05
4.11846e-05
9.69768e-05
3.68104e-05
0.000225957
0.000221792
0.000206782
0.00018455
7.85467e-05
7.76459e-05
0.000213615
0.000227143
0.00021738
0.000229208
0.000196365
2.38702e-05
7.7632e-05
2.38718e-05
7.47383e-05
0.000169795
0.00020675
0.000206706
0.000194656
0.000194608
0.000184514
2.38866e-05
0.000169764
0.000140933
0.000140928
0.000194683
0.000194647
9.59696e-05
0.00020673
9.59689e-05
0.000194633
0.00018455
2.38861e-05
0.000221786
5.05777e-05
9.59697e-05
2.38857e-05
0.000225545
0.000106743
0.000169873
0.000105251
0.000105232
0.000217424
0.000214124
9.69985e-05
0.000214143
0.000228371
5.06262e-05
9.69954e-05
0.00018842
2.3874e-05
0.0001021
5.08627e-05
5.06782e-05
0.000103303
2.39287e-05
2.38806e-05
9.41298e-05
5.05801e-05
9.59773e-05
5.07709e-05
2.38854e-05
2.39616e-05
9.59858e-05
5.0579e-05
9.41397e-05
5.07673e-05
0.000230212
0.000230203
0.000230213
0.000212783
0.000212741
0.000206751
0.000140909
9.99132e-05
0.00013576
0.000201356
9.76527e-05
0.000215692
2.38845e-05
2.39602e-05
0.000221791
9.99258e-05
0.000140911
0.000135764
0.00020139
0.000215704
9.76582e-05
7.47192e-05
7.47169e-05
0.00017654
7.36345e-05
7.36407e-05
2.39297e-05
2.38822e-05
2.38829e-05
2.39299e-05
8.05769e-05
0.000193418
0.000197176
8.0565e-05
7.85374e-05
2.38745e-05
2.38721e-05
2.38727e-05
2.3875e-05
0.000196361
7.52943e-05
0.000188434
7.52852e-05
7.76436e-05
0.000102096
0.000103303
0.000215914
0.000227138
0.000225088
0.000153017
0.000107835
0.000106742
0.000151499
0.000225089
0.000153015
0.0001515
0.000100729
5.05731e-05
5.06285e-05
9.70053e-05
0.000100724
5.05699e-05
5.06251e-05
9.70002e-05
0.000229201
0.00021413
0.000228379
0.000150847
0.000101133
0.000105249
0.00014339
0.000217383
0.000214104
0.000228373
0.000150841
0.000101105
0.000105227
0.000143383
2.38738e-05
2.38711e-05
0.000188379
7.52751e-05
7.5268e-05
7.76243e-05
2.38746e-05
8.05793e-05
7.85265e-05
7.8541e-05
0.000197182
2.38819e-05
2.38728e-05
0.000188412
7.76436e-05
0.000196353
7.52839e-05
7.52799e-05
2.38743e-05
2.38866e-05
2.39629e-05
2.38869e-05
2.39613e-05
0.000184565
7.47239e-05
0.000176577
7.36532e-05
7.36543e-05
2.40847e-05
2.39925e-05
2.40819e-05
2.39904e-05
0.000174061
7.66663e-05
7.66556e-05
7.37516e-05
7.37514e-05
9.41247e-05
5.05766e-05
9.59712e-05
5.0767e-05
0.000221812
0.000135781
9.99266e-05
0.000201392
0.000140917
9.76733e-05
0.000215707
0.000221795
0.000135773
9.99025e-05
0.000201348
0.000140909
9.76479e-05
0.000215691
9.35815e-05
5.11887e-05
5.08691e-05
9.71808e-05
9.35773e-05
5.11843e-05
5.08653e-05
9.7179e-05
0.000134266
0.000198124
9.98494e-05
0.00020844
9.69209e-05
0.000211912
0.000134929
0.000134259
0.000198076
9.98453e-05
0.000208424
9.68945e-05
0.000211896
0.000134928
7.47184e-05
7.47117e-05
0.000176525
7.36412e-05
7.36439e-05
2.39624e-05
2.40826e-05
2.39907e-05
0.00017401
7.66636e-05
7.37472e-05
7.37576e-05
2.39919e-05
9.99361e-05
0.000206797
0.000221819
0.0001358
0.000201395
9.76696e-05
0.00021573
9.59824e-05
5.05738e-05
9.41398e-05
5.07635e-05
0.000221812
0.000206733
9.99174e-05
0.000135798
0.000201378
0.000215716
9.76601e-05
9.35908e-05
5.11833e-05
5.08649e-05
9.71793e-05
0.000134285
0.000198141
9.98401e-05
0.000208458
9.69206e-05
0.000211934
0.000134934
9.3584e-05
5.11803e-05
5.08616e-05
9.71768e-05
0.000134278
0.000198114
0.000208455
9.98411e-05
0.000211927
9.69082e-05
0.00013493
5.05778e-05
9.41174e-05
5.07682e-05
0.0002218
0.00014091
9.99123e-05
0.00013576
0.000201364
0.000215685
9.76475e-05
5.05723e-05
9.41157e-05
5.07634e-05
0.000134242
0.000198101
0.000208406
9.69042e-05
0.000211886
9.35668e-05
5.08666e-05
0.000134241
0.000198082
0.000208401
0.000211885
9.68945e-05
9.35649e-05
5.08619e-05
7.47281e-05
7.47207e-05
0.000176565
7.36465e-05
7.36499e-05
2.3962e-05
2.39895e-05
0.000174051
7.37455e-05
7.37386e-05
2.39909e-05
0.000206772
0.000140907
9.99147e-05
0.00013577
0.000201361
0.000215696
9.76491e-05
9.59727e-05
9.41195e-05
5.07685e-05
5.05751e-05
9.41228e-05
5.07639e-05
0.000134287
0.00019815
0.00021192
9.69369e-05
0.000134252
0.000198104
0.000211899
9.68942e-05
9.35894e-05
5.08647e-05
9.35726e-05
5.08617e-05
2.3884e-05
2.39607e-05
2.39609e-05
0.000174019
7.37308e-05
7.37292e-05
2.39905e-05
2.39899e-05
5.06775e-05
5.08609e-05
0.000102094
0.000103293
0.00022972
0.000230867
0.000230842
0.000229712
0.000225543
0.000106737
0.000215946
0.000153013
0.000227141
0.000128601
0.000213635
0.000215944
0.000152999
0.000225073
0.000151482
0.000227134
5.0857e-05
5.06725e-05
0.000102089
0.000103289
0.000106723
0.000213608
0.000215913
0.000152995
0.000225071
0.000151478
0.000227127
5.06278e-05
9.70117e-05
5.05725e-05
0.000100726
0.000217391
0.000143397
0.000101137
0.000214166
0.000228377
0.000150835
0.000229199
5.06224e-05
9.70079e-05
5.05672e-05
0.000100722
0.000143392
0.000228367
0.000214114
0.00021736
0.000101119
0.00015083
0.000229189
0.000228386
0.000214131
0.000143383
0.000101116
0.000229228
9.69986e-05
5.05711e-05
0.000228387
0.000143385
0.000101119
0.000217402
0.000229218
0.000105245
5.05658e-05
5.06232e-05
0.00015301
0.000227143
5.06758e-05
0.00010209
0.000102087
0.000228369
0.000105248
0.000217403
0.000101127
0.000143379
0.000150829
0.000229206
0.000214159
0.000143376
0.000101119
0.000150826
0.000217407
0.000229213
0.000105239
5.05711e-05
9.69981e-05
0.000100721
5.05685e-05
0.000100718
5.06223e-05
7.52761e-05
7.52788e-05
0.000196368
7.76397e-05
7.76372e-05
2.38721e-05
2.38709e-05
2.38706e-05
0.000109128
7.9403e-05
0.000135017
4.85705e-05
4.86337e-05
0.000107855
0.000136315
0.000105115
0.000132997
7.67948e-05
4.85162e-05
0.000106448
4.84799e-05
0.000131029
2.38672e-05
0.000105082
0.000132938
7.6783e-05
4.85022e-05
0.000106406
4.84658e-05
0.000130976
2.38687e-05
0.000100572
0.000125017
4.84584e-05
7.43648e-05
0.000101399
4.84911e-05
0.000123488
2.391e-05
3.67312e-05
9.07281e-05
4.10473e-05
9.52204e-05
9.01351e-05
4.1081e-05
3.66982e-05
3.67296e-05
4.10477e-05
9.07221e-05
9.52193e-05
4.10814e-05
9.01278e-05
3.66969e-05
2.39096e-05
2.03265e-05
7.622e-05
5.06147e-05
7.594e-05
2.03055e-05
3.67292e-05
9.0722e-05
4.10476e-05
9.5223e-05
9.013e-05
4.10813e-05
3.66964e-05
2.39092e-05
3.66798e-05
4.10344e-05
9.15818e-05
9.81433e-05
3.6683e-05
4.1032e-05
9.25536e-05
2.02929e-05
5.05929e-05
7.85886e-05
2.02957e-05
7.78887e-05
3.66792e-05
9.15781e-05
4.10342e-05
9.81382e-05
3.66824e-05
9.25485e-05
4.10317e-05
2.3868e-05
3.67345e-05
4.1067e-05
9.60067e-05
0.000103328
4.10913e-05
9.71111e-05
3.67122e-05
2.03349e-05
5.08028e-05
8.12308e-05
8.08358e-05
2.03489e-05
2.03162e-05
7.93577e-05
5.07364e-05
8.00592e-05
2.03061e-05
3.67639e-05
0.000103689
4.11448e-05
9.76575e-05
4.11208e-05
9.78526e-05
3.6788e-05
2.3912e-05
2.38924e-05
3.67634e-05
9.46735e-05
4.11626e-05
8.91844e-05
4.11167e-05
8.96852e-05
3.68084e-05
2.03262e-05
7.62212e-05
5.0617e-05
2.03052e-05
7.5941e-05
3.67314e-05
9.52315e-05
4.10484e-05
9.07379e-05
3.66986e-05
4.1082e-05
9.0147e-05
2.03432e-05
7.54057e-05
5.06858e-05
7.56389e-05
2.03741e-05
2.39092e-05
2.39296e-05
3.6731e-05
4.1048e-05
9.07438e-05
9.52408e-05
9.01533e-05
4.10816e-05
3.66985e-05
2.03263e-05
7.62254e-05
5.06153e-05
7.59448e-05
2.03056e-05
3.67629e-05
9.46826e-05
8.91906e-05
4.1162e-05
8.96925e-05
4.11161e-05
3.68079e-05
2.03433e-05
5.06832e-05
7.54084e-05
7.56427e-05
2.03741e-05
2.3908e-05
2.39285e-05
0.000100565
0.000124997
4.84578e-05
7.43487e-05
0.000123468
4.84907e-05
0.000101394
7.80386e-05
2.1677e-05
2.1676e-05
2.16993e-05
2.16999e-05
7.83264e-05
0.000100511
0.000124963
4.84433e-05
7.4328e-05
0.000123417
4.84792e-05
0.000101366
7.77583e-05
2.17526e-05
2.17509e-05
2.17195e-05
2.17193e-05
7.75477e-05
9.98866e-05
7.39846e-05
4.86386e-05
0.000121132
0.000122186
4.85504e-05
9.92752e-05
9.98852e-05
7.39878e-05
4.86317e-05
0.00012115
0.000122195
4.85523e-05
9.93063e-05
2.39134e-05
2.3894e-05
2.38947e-05
2.39139e-05
0.000109958
8.02973e-05
0.000135435
4.8771e-05
4.87066e-05
0.000136185
0.000109679
8.24674e-05
2.16813e-05
2.16796e-05
2.16933e-05
2.16948e-05
8.16662e-05
0.000109886
0.000135386
8.02821e-05
4.87596e-05
4.86922e-05
0.00013614
0.000109593
0.000109082
0.000134956
4.85555e-05
7.93888e-05
4.86188e-05
0.000107802
0.000136259
8.32678e-05
2.17356e-05
2.17353e-05
2.17154e-05
2.17164e-05
8.39563e-05
2.38685e-05
2.3869e-05
2.38696e-05
2.38691e-05
0.000103734
7.59866e-05
0.000126916
4.84539e-05
4.84585e-05
0.00010251
0.000128886
8.00883e-05
2.1669e-05
2.16673e-05
8.0863e-05
2.16627e-05
2.16648e-05
0.000103714
0.00012688
7.59852e-05
4.84405e-05
4.84446e-05
0.000128848
0.00010249
0.00010508
0.000132943
4.85018e-05
7.67946e-05
0.000106407
4.84656e-05
0.000130988
7.93846e-05
2.16681e-05
2.1666e-05
2.16612e-05
2.16633e-05
7.87841e-05
3.67324e-05
4.10669e-05
9.59941e-05
0.000103325
4.10912e-05
9.71027e-05
3.67101e-05
3.67618e-05
0.000103687
4.11448e-05
9.76573e-05
4.11207e-05
9.78437e-05
3.6786e-05
3.66847e-05
4.10469e-05
9.48038e-05
9.94518e-05
3.66937e-05
4.10364e-05
9.36961e-05
2.02916e-05
5.05766e-05
7.66618e-05
2.02967e-05
7.72205e-05
2.02927e-05
7.85919e-05
5.05951e-05
2.02956e-05
7.78954e-05
3.66815e-05
9.81471e-05
4.1035e-05
9.15958e-05
3.66847e-05
4.10326e-05
9.25649e-05
3.66826e-05
4.10468e-05
9.47916e-05
9.94473e-05
3.66915e-05
4.10363e-05
9.36808e-05
2.02902e-05
5.05733e-05
7.66374e-05
7.71961e-05
2.02953e-05
2.02913e-05
7.85719e-05
5.05917e-05
2.02942e-05
7.78717e-05
3.66794e-05
9.81418e-05
4.10349e-05
9.15798e-05
4.10325e-05
9.25495e-05
3.66826e-05
2.38676e-05
2.38681e-05
0.000103693
7.59712e-05
0.000126872
4.84497e-05
4.84543e-05
0.000102469
0.000128843
0.000103697
0.000126844
7.59649e-05
4.84406e-05
0.000128816
4.84452e-05
0.000102472
0.00010507
0.000132929
4.85022e-05
7.67725e-05
0.000130963
0.000106401
4.84662e-05
7.93704e-05
2.16678e-05
2.16652e-05
2.16604e-05
2.16633e-05
7.87706e-05
2.38685e-05
0.00010993
8.02803e-05
4.86993e-05
0.000136165
0.00010909
7.93848e-05
0.000134964
4.85565e-05
4.86209e-05
0.000107815
0.000136272
0.000109106
7.9392e-05
0.000134988
4.85684e-05
4.86297e-05
0.000107836
0.000136297
8.246e-05
2.1679e-05
2.16815e-05
2.16928e-05
2.16949e-05
8.16591e-05
2.38937e-05
2.38667e-05
0.000105099
0.000132977
7.67886e-05
4.85148e-05
0.000106432
4.84786e-05
0.000131013
0.000103721
0.000126896
7.59798e-05
4.8453e-05
4.84575e-05
0.000102493
0.000128867
0.000103713
7.59771e-05
0.000126872
4.84403e-05
4.84448e-05
0.000102491
0.000128838
8.00824e-05
2.16665e-05
2.16693e-05
8.08562e-05
2.1662e-05
2.1665e-05
7.93804e-05
2.16686e-05
2.16652e-05
2.16605e-05
2.16635e-05
7.87802e-05
2.38682e-05
2.391e-05
2.39309e-05
2.391e-05
2.39302e-05
7.77671e-05
2.17531e-05
2.17512e-05
2.17201e-05
2.17197e-05
7.75559e-05
0.000100528
0.000124969
4.84464e-05
7.43405e-05
0.000101374
4.84825e-05
0.000123436
7.80451e-05
2.16777e-05
2.16764e-05
7.83319e-05
2.16996e-05
2.17003e-05
9.99011e-05
4.86421e-05
7.40022e-05
0.000121177
4.85538e-05
9.93197e-05
0.000122205
9.99041e-05
7.40007e-05
4.86314e-05
0.00012115
4.85528e-05
9.92824e-05
0.000122223
2.40567e-05
2.40275e-05
2.40538e-05
2.40249e-05
7.88046e-05
2.17825e-05
2.17801e-05
7.80256e-05
2.1817e-05
2.18145e-05
0.000100135
0.000121709
7.56917e-05
4.90675e-05
4.89654e-05
0.000119624
0.000101631
0.000100127
0.000121681
7.5685e-05
4.90519e-05
4.89501e-05
0.000119602
0.000101614
9.87562e-05
4.8741e-05
0.000120007
7.46328e-05
9.86434e-05
4.88495e-05
0.000119303
9.8742e-05
4.87273e-05
0.000119987
7.46319e-05
9.8617e-05
4.88349e-05
0.000119287
7.96804e-05
2.18743e-05
2.18716e-05
2.18456e-05
2.1843e-05
8.04932e-05
3.67614e-05
9.46689e-05
4.11626e-05
8.91685e-05
4.11166e-05
8.96717e-05
3.68065e-05
2.0325e-05
7.61979e-05
5.06136e-05
2.0304e-05
7.59174e-05
3.67294e-05
9.52273e-05
4.10483e-05
9.0722e-05
4.10819e-05
3.66966e-05
9.01323e-05
2.03421e-05
7.53825e-05
5.06822e-05
7.56155e-05
2.03729e-05
3.69096e-05
4.12122e-05
8.88557e-05
9.39548e-05
3.68554e-05
4.12686e-05
8.96297e-05
2.04576e-05
5.10891e-05
7.84428e-05
2.04844e-05
7.75595e-05
2.04327e-05
7.58048e-05
5.09756e-05
2.03998e-05
7.66495e-05
3.69604e-05
9.56046e-05
4.13735e-05
9.24509e-05
3.70065e-05
4.13243e-05
9.10833e-05
3.69075e-05
4.12121e-05
8.88437e-05
9.39528e-05
3.68533e-05
4.12686e-05
8.96216e-05
2.04562e-05
5.1085e-05
7.84265e-05
7.7545e-05
2.04829e-05
2.04313e-05
7.57884e-05
5.09717e-05
2.03984e-05
7.66335e-05
3.69583e-05
9.56029e-05
4.13735e-05
9.24429e-05
4.13242e-05
9.10768e-05
3.70043e-05
0.000100526
0.000124966
4.84554e-05
7.43416e-05
0.000123439
0.00010136
4.84907e-05
7.77583e-05
2.1751e-05
2.17539e-05
2.17186e-05
2.17212e-05
7.75555e-05
0.000100531
0.000124942
4.84465e-05
7.43363e-05
4.84818e-05
0.000101365
0.000123414
7.8037e-05
2.16781e-05
2.16755e-05
2.16987e-05
7.83219e-05
2.17014e-05
9.98851e-05
4.86321e-05
7.39815e-05
0.000121124
4.8548e-05
0.00012217
9.92864e-05
9.98801e-05
7.39899e-05
4.86414e-05
0.000121144
0.000122195
4.85574e-05
9.9277e-05
2.39308e-05
2.40544e-05
2.40257e-05
7.88215e-05
2.17801e-05
2.17834e-05
7.804e-05
2.18146e-05
2.18178e-05
0.000100154
0.000121702
7.56882e-05
4.90551e-05
0.000119612
4.89534e-05
0.000101642
0.000100148
7.57e-05
4.89634e-05
0.000119637
9.87606e-05
4.87298e-05
0.000119953
7.46335e-05
0.000119267
9.86152e-05
4.88379e-05
9.875e-05
4.87397e-05
0.000119982
7.46415e-05
9.86117e-05
4.88477e-05
0.000119285
7.96952e-05
2.18431e-05
2.18464e-05
2.40556e-05
2.40266e-05
3.6729e-05
4.10476e-05
9.07327e-05
9.52372e-05
4.10813e-05
9.01424e-05
3.66961e-05
2.03252e-05
7.62045e-05
5.06105e-05
7.59236e-05
2.03043e-05
3.67607e-05
9.4678e-05
4.11617e-05
8.91837e-05
4.11158e-05
8.96797e-05
3.68059e-05
2.03422e-05
5.0679e-05
7.53888e-05
7.56212e-05
2.0373e-05
3.69088e-05
8.88616e-05
4.12114e-05
9.39595e-05
3.68546e-05
8.96319e-05
4.12676e-05
2.04573e-05
5.1084e-05
7.84394e-05
2.0484e-05
7.75586e-05
2.04324e-05
7.58063e-05
5.09709e-05
2.03995e-05
7.66498e-05
3.69595e-05
9.5603e-05
9.24486e-05
4.13722e-05
3.70055e-05
9.10815e-05
4.13229e-05
3.69067e-05
4.12111e-05
8.88482e-05
9.39595e-05
3.68524e-05
4.12674e-05
8.96264e-05
2.04562e-05
5.1081e-05
7.84227e-05
7.75414e-05
2.04829e-05
2.04314e-05
7.57883e-05
5.09678e-05
2.03984e-05
7.66325e-05
3.69573e-05
9.55998e-05
4.13718e-05
9.24411e-05
4.13226e-05
9.10723e-05
3.70034e-05
2.03264e-05
7.62139e-05
5.06147e-05
7.5933e-05
2.03053e-05
3.6763e-05
9.46622e-05
8.91743e-05
4.11617e-05
8.96716e-05
4.11157e-05
3.68083e-05
2.03431e-05
5.06834e-05
7.54003e-05
7.56265e-05
2.03745e-05
2.03253e-05
7.6197e-05
5.06094e-05
7.59138e-05
2.03043e-05
3.67617e-05
9.46607e-05
4.11621e-05
8.91636e-05
4.11161e-05
8.96658e-05
3.68067e-05
2.03424e-05
5.06785e-05
7.53759e-05
7.56126e-05
2.03731e-05
3.69095e-05
8.88384e-05
4.12113e-05
9.39357e-05
3.6855e-05
8.96177e-05
4.12679e-05
2.04576e-05
5.10865e-05
7.75562e-05
2.0433e-05
7.5797e-05
5.0973e-05
2.03996e-05
7.66447e-05
3.69602e-05
9.55876e-05
9.10719e-05
4.13234e-05
3.69079e-05
4.12117e-05
8.88304e-05
9.39302e-05
3.68536e-05
4.12682e-05
8.95978e-05
2.04567e-05
5.10821e-05
7.75286e-05
2.04316e-05
7.577e-05
5.09684e-05
2.03987e-05
7.66162e-05
3.69588e-05
9.5581e-05
4.13238e-05
9.10544e-05
0.000100545
0.000124993
4.84583e-05
7.43523e-05
0.000123464
0.000101382
4.84932e-05
0.000100545
0.000124968
4.8446e-05
7.43437e-05
4.84809e-05
0.000101382
0.000123437
7.7768e-05
2.17508e-05
2.17538e-05
2.17181e-05
2.17211e-05
7.75592e-05
7.80441e-05
2.16783e-05
2.16754e-05
2.16985e-05
7.83302e-05
2.17016e-05
9.98988e-05
7.39892e-05
4.8631e-05
0.000121141
4.85467e-05
0.000122192
9.92847e-05
9.99013e-05
7.40026e-05
4.8644e-05
0.000121156
0.000122223
4.8559e-05
9.92887e-05
2.39301e-05
2.40532e-05
2.40244e-05
7.88462e-05
2.17792e-05
2.17825e-05
7.80136e-05
2.18147e-05
2.1818e-05
0.000100129
7.56816e-05
0.000119611
4.89491e-05
0.000100127
7.56726e-05
4.89616e-05
0.000119642
9.87526e-05
4.87272e-05
0.000119981
7.46293e-05
0.000119276
9.86416e-05
4.88377e-05
9.87529e-05
4.87394e-05
0.000120032
7.46809e-05
9.86439e-05
4.88513e-05
0.000119266
7.96644e-05
2.1842e-05
2.18453e-05
2.40543e-05
2.40264e-05
3.67314e-05
9.0734e-05
4.10477e-05
9.52267e-05
9.01433e-05
4.10815e-05
3.66983e-05
3.6763e-05
9.46711e-05
8.9178e-05
4.11623e-05
8.96819e-05
4.11159e-05
3.68087e-05
2.03431e-05
5.06828e-05
7.54085e-05
7.56344e-05
2.03748e-05
2.03252e-05
7.61989e-05
5.06115e-05
7.59173e-05
2.03042e-05
3.67611e-05
9.46661e-05
8.91692e-05
4.1162e-05
8.96685e-05
4.11159e-05
3.68063e-05
2.03422e-05
5.06799e-05
7.53811e-05
7.56153e-05
2.0373e-05
3.69101e-05
8.88549e-05
4.12111e-05
9.39748e-05
3.68544e-05
8.96604e-05
4.12688e-05
2.04334e-05
7.57857e-05
5.09743e-05
2.03993e-05
7.66894e-05
3.69073e-05
8.88374e-05
4.12114e-05
9.39475e-05
3.6853e-05
8.96115e-05
4.1268e-05
2.04314e-05
7.57801e-05
5.0968e-05
2.03985e-05
7.66244e-05
2.39078e-05
2.39288e-05
2.39295e-05
7.87969e-05
2.17816e-05
2.178e-05
7.8009e-05
2.18162e-05
2.18149e-05
0.000100101
7.56674e-05
0.00011957
4.8958e-05
9.87013e-05
4.87364e-05
0.000119997
7.46063e-05
9.86332e-05
0.000119242
4.88419e-05
9.8751e-05
4.8729e-05
0.000119938
7.46161e-05
9.85843e-05
0.000119288
4.884e-05
7.96678e-05
2.18446e-05
2.18434e-05
2.40544e-05
2.40253e-05
2.40247e-05
2.03167e-05
5.07356e-05
7.93579e-05
8.00588e-05
2.03065e-05
2.03352e-05
5.08016e-05
8.12286e-05
8.08339e-05
2.0349e-05
3.67344e-05
9.60031e-05
4.10666e-05
0.000103318
9.71055e-05
4.10909e-05
3.67122e-05
3.67637e-05
9.76513e-05
4.11443e-05
0.000103677
9.78442e-05
4.11203e-05
3.67876e-05
2.03337e-05
5.0797e-05
8.12112e-05
8.08094e-05
2.03479e-05
2.03152e-05
5.07307e-05
7.93354e-05
8.00388e-05
2.03049e-05
3.67322e-05
4.10665e-05
9.59892e-05
0.000103314
4.10907e-05
9.70944e-05
3.671e-05
3.67616e-05
9.76427e-05
4.11441e-05
0.000103675
4.11202e-05
9.78316e-05
3.67856e-05
2.02932e-05
5.05945e-05
7.85921e-05
2.0296e-05
7.78957e-05
3.66815e-05
4.10347e-05
9.16001e-05
9.81511e-05
3.66846e-05
9.25669e-05
4.10323e-05
2.0292e-05
5.0576e-05
7.66649e-05
2.02971e-05
7.72215e-05
3.66847e-05
9.48014e-05
4.10466e-05
9.94538e-05
3.66936e-05
9.36972e-05
4.10361e-05
2.02917e-05
5.05891e-05
7.85725e-05
2.02946e-05
7.7874e-05
3.66793e-05
4.10346e-05
9.1588e-05
9.81482e-05
3.66825e-05
4.10321e-05
9.2557e-05
2.02906e-05
5.05706e-05
7.66431e-05
2.02957e-05
7.72012e-05
3.66825e-05
4.10464e-05
9.47915e-05
9.94497e-05
3.66914e-05
4.1036e-05
9.36843e-05
3.66811e-05
9.15861e-05
4.10339e-05
9.81432e-05
3.66843e-05
9.25574e-05
4.10315e-05
2.02916e-05
5.05745e-05
7.66528e-05
2.02969e-05
7.72133e-05
2.02907e-05
7.66388e-05
5.057e-05
2.02957e-05
7.71991e-05
2.02918e-05
5.05892e-05
7.85756e-05
2.02947e-05
7.78756e-05
2.03163e-05
5.07336e-05
7.93511e-05
8.00537e-05
2.03062e-05
3.6734e-05
9.59958e-05
0.000103322
4.10661e-05
9.70989e-05
4.10904e-05
3.67118e-05
3.67321e-05
0.000103319
9.59881e-05
4.10661e-05
9.70937e-05
4.10904e-05
3.67098e-05
2.02918e-05
5.05745e-05
7.66573e-05
2.0297e-05
7.72163e-05
3.66812e-05
9.15888e-05
4.10343e-05
9.81408e-05
3.66844e-05
9.25582e-05
4.10318e-05
3.66844e-05
9.47948e-05
9.9444e-05
4.10461e-05
3.66932e-05
9.36881e-05
4.10356e-05
2.02904e-05
7.66376e-05
5.05718e-05
2.02955e-05
7.71969e-05
3.66824e-05
9.94417e-05
9.47865e-05
4.1046e-05
3.66913e-05
9.3679e-05
4.10356e-05
2.02916e-05
5.05897e-05
7.85718e-05
2.02945e-05
7.78728e-05
0.000103748
0.000126903
4.84526e-05
7.59734e-05
0.000102514
0.000128882
4.84559e-05
7.93824e-05
2.1667e-05
2.1666e-05
7.87803e-05
2.16615e-05
2.1662e-05
0.000103696
0.000126869
4.84379e-05
7.59805e-05
0.000102476
0.000128834
4.84438e-05
8.00864e-05
2.16691e-05
2.16666e-05
8.08694e-05
2.16639e-05
2.1663e-05
0.000105065
7.67843e-05
4.8511e-05
0.000132987
0.000106431
0.000130984
4.84696e-05
0.000105125
7.67882e-05
4.85041e-05
0.000132944
0.000106415
0.000131019
4.84726e-05
2.38666e-05
2.38675e-05
2.38682e-05
0.000143669
0.000180266
0.000185698
0.00017899
0.000149595
0.000142778
0.000184381
0.000185696
0.000180262
0.000143663
0.000178986
0.000149593
0.000184378
0.000142772
0.000230233
0.00023023
0.000220186
0.000226092
0.000226103
0.000227727
0.000228086
0.000133132
0.000160997
0.000160946
0.000181624
0.000158455
0.000158484
0.00013491
0.0001416
0.000171971
0.000194861
0.000171948
0.000169699
0.000143726
0.000169725
0.000127893
0.000170354
0.000149965
0.000149937
0.000149663
0.000149637
0.000129832
0.00013311
0.000160949
0.000160923
0.00018159
0.000158452
0.000134879
0.000158426
0.000127897
0.000170306
0.000149939
0.000149957
0.000149609
0.00014963
0.000129857
0.000169212
0.000133943
0.000178176
0.000138914
0.000132174
0.000175089
0.000172113
0.0001692
0.00017817
0.000133931
0.000138909
0.000175084
0.000132161
0.000172099
0.000133139
0.000160987
0.000160957
0.000181631
0.000158491
0.000134911
0.000158462
0.000127913
0.000170346
0.000149629
0.000149698
0.000171845
0.00010798
0.000157185
0.000128228
0.00015724
0.000129423
0.000172685
0.000128594
0.000107836
0.000171189
0.000108308
0.000155533
0.00015666
0.000129317
0.000168653
0.000155027
0.000103882
0.000126235
0.000152923
0.000170916
0.000124385
0.000168628
0.000154987
0.000103864
0.000126219
0.000152883
0.000170893
0.000124367
0.000139257
0.000163991
0.000163938
0.000191224
0.000137064
0.000166685
0.000166758
0.000225933
0.000230211
0.000220179
0.000226091
0.000226072
0.000227711
0.000228072
0.000225914
0.000230196
0.000220155
0.000226056
0.000226059
0.000227694
0.000228055
0.000225917
0.000230215
0.000220148
0.000226071
0.000226063
0.000227709
0.000228072
0.000216136
0.000218575
0.000218595
0.000221925
0.000221931
0.000225913
0.000222633
0.000216103
0.000218559
0.000218548
0.000221913
0.000221889
0.000225892
0.000222611
0.000216136
0.000218598
0.000221925
0.000221922
0.000225908
0.000222635
0.000216106
0.000218552
0.000221887
0.000221914
0.000225885
0.000222609
0.000169178
0.000178155
0.000133917
0.000138885
0.000132143
0.000175058
0.000172085
0.000157291
0.000145343
0.00011869
9.90063e-05
0.000143281
0.000117324
0.000159795
0.0001667
0.000137177
0.000129369
0.000170189
0.000130632
0.000172403
0.000164651
0.000155093
9.82838e-05
0.000115259
0.00014015
0.000141527
0.000116194
0.000153396
0.000157312
0.000145366
0.000118703
9.90196e-05
0.000143305
0.000117339
0.000159812
0.000169191
0.000178154
0.000133925
0.000138892
0.000175064
0.000132154
0.000172093
0.000166719
0.000137191
0.000170207
0.000129376
0.000172416
0.00013065
0.000164675
0.000155118
9.82994e-05
0.000115267
0.000140176
0.000141556
0.000116214
0.000153424
0.000131652
0.000178682
0.000154546
0.000154506
0.000156274
0.000156267
0.000130445
0.000146659
0.000171387
0.000194981
0.00017133
0.000172688
0.000172741
0.000145754
0.000146969
0.00017397
0.000195648
0.000173911
0.000145937
0.000173424
0.000173483
0.000141636
0.000172013
0.000194888
0.000171955
0.000143755
0.000169722
0.000169775
0.000139261
0.000191228
0.000163998
0.000163959
0.000166702
0.000137072
0.000166753
0.000183443
0.00019051
0.000145294
0.000153173
0.000145931
0.000189113
0.000184688
0.000171203
0.000155524
0.000108314
0.000128607
0.000129333
0.000156658
0.000169887
0.000171853
0.000157169
0.000128236
0.000107977
0.00012943
0.000157226
0.000172692
0.000182765
0.000186905
0.000152441
0.000144531
0.000145394
0.000188328
0.000181359
0.00018345
0.000190512
0.000145282
0.000153174
0.000145933
0.000189116
0.000184693
0.000182772
0.000186906
0.000152443
0.000144535
0.000145395
0.000188331
0.000181363
0.000181424
0.000189992
0.00014306
0.000148504
0.000183667
0.00014089
0.000187855
0.000165594
0.000147869
0.000102422
0.000120493
0.000150263
0.000122321
0.000162811
0.000168653
0.000155004
0.000126238
0.000103884
0.00015291
0.000170921
0.00012439
0.000178351
0.000181562
0.000145851
0.000136178
0.000138416
0.000184706
0.000175316
0.000181407
0.00018999
0.000143044
0.000148498
0.000183655
0.000140871
0.00018785
0.000165562
0.000147825
0.000102395
0.000120464
0.000122292
0.000150226
0.000162775
0.000168626
0.000154982
0.000126217
0.000103857
0.000170901
0.000124364
0.000152877
0.00017833
0.000181554
0.000145843
0.000136157
0.000138394
0.000184699
0.000175293
0.000139218
0.000191192
0.000163939
0.000163913
0.000166674
0.000137029
0.000166696
0.000146972
0.000173928
0.000195656
0.000173958
0.000145932
0.00017348
0.000173441
0.000139252
0.000191214
0.000163974
0.000163944
0.00013706
0.000166697
0.000166729
0.000141625
0.000171958
0.000194877
0.000171981
0.000143748
0.000169718
0.000169754
0.00013315
0.000161008
0.000160962
0.000181649
0.000134923
0.000158476
0.000158508
0.000131674
0.000178713
0.000154571
0.000154547
0.000130467
0.000156295
0.000156299
0.000128236
0.00017281
0.000152575
0.000152543
0.00012909
0.000151467
0.000151437
0.000166732
0.000137196
0.000129393
0.000170212
0.000130654
0.000172423
0.000164681
0.000157314
0.000145357
0.000118707
9.90176e-05
0.000117342
0.000159817
0.000143298
0.000169204
0.000178161
0.0001389
0.000133932
0.000132163
0.000172107
0.000175077
0.000155118
0.000115281
9.82983e-05
0.000140173
0.000116215
0.000141544
0.000153423
0.000166705
0.000137188
0.000129369
0.000170202
0.000130633
0.000172413
0.000164656
0.000157276
0.000145316
0.000118678
9.89975e-05
0.000159778
0.000117316
0.000143255
0.000169178
0.000178152
0.000138893
0.000133909
0.000172082
0.000132143
0.000175067
0.000155079
0.00011525
9.82742e-05
0.000140128
0.000116188
0.000153385
0.000141504
0.000161319
0.000128042
0.000167845
0.000133196
0.000162459
0.000127142
0.000166534
0.000148585
0.000137849
9.81379e-05
0.000116788
0.00013653
0.000114504
0.000149173
0.00015041
0.000114166
0.000138547
9.68583e-05
0.000137593
0.000151433
0.000113671
0.000159187
0.000132759
0.000129608
0.000163978
0.000127197
0.000164251
0.000159294
0.000161294
0.000128023
0.000167835
0.000133189
0.000162433
0.00012712
0.000166525
0.000148551
0.000137841
9.81356e-05
0.000116782
0.000114497
0.000136496
0.000149154
0.000150371
0.000114139
0.000138496
9.68455e-05
0.000151394
0.000113646
0.000137548
0.000159163
0.000132754
0.000129602
0.00016397
0.000127187
0.000164242
0.000159278
0.000131637
0.000178656
0.000154503
0.000154525
0.00015626
0.000156236
0.000130434
0.00012821
0.000172762
0.000152505
0.000152527
0.000151402
0.000129057
0.000151422
0.000157327
0.000118715
0.000145383
9.90314e-05
0.000117354
0.000143318
0.000159827
0.000166741
0.000137213
0.000129405
0.000170235
0.000130666
0.000172442
0.000164696
0.00015513
9.83036e-05
0.000115285
0.000140179
0.000116223
0.000141562
0.000153434
0.000157302
0.000118699
0.000145345
9.90113e-05
0.000117335
0.000143284
0.000159801
0.000166729
0.000137208
0.00017023
0.000129397
0.000172438
0.000130654
0.000164684
0.000155108
9.82873e-05
0.000115273
0.000140154
0.000116207
0.000153413
0.000141532
0.000161336
0.000128057
0.00016787
0.000133215
0.000162475
0.000127154
0.000166559
0.000148595
0.000137841
9.81341e-05
0.000116786
0.000136525
0.000114507
0.000149182
0.00015042
0.000114174
0.000138541
9.68562e-05
0.000137588
0.000151442
0.000113676
0.000159204
0.000132773
0.000129611
0.000163997
0.000127204