/*--------------------------------*- C++ -*----------------------------------*\
| =========                 |                                                 |
| \\      /  F ield         | OpenFOAM: The Open Source CFD Toolbox           |
|  \\    /   O peration     | Version:  v2006                                 |
|   \\  /    A nd           | Website:  www.openfoam.com                      |
|    \\/     M anipulation  |                                                 |
\*---------------------------------------------------------------------------*/
FoamFile
{
    version     2.0;
    format      ascii;
    class       volScalarField;
    location    "375";
    object      p;
}
// * * * * * * * * * * * * * * * * * * * * * * * * * * * * * * * * * * * * * //

dimensions      [0 2 -2 0 0 0 0];


internalField   nonuniform List<scalar> 
14361
(
0.000427649
0.000427649
0.000428688
0.000429131
0.000428505
0.00042836
0.000428352
0.000428574
0.000424344
0.00042843
0.000423919
0.000428834
0.000424347
0.000429146
0.000428426
0.000424
0.000424661
0.000428834
0.00042392
0.000424035
0.000428402
0.0004284
0.000423894
0.000428549
0.000423894
0.00042386
0.000423739
0.000428379
0.000423846
0.000423866
0.00042825
0.000423766
0.000424071
0.000428514
0.000428286
0.000424011
0.000428286
0.00042377
0.000424743
0.000429503
0.000425177
0.000429019
0.000425146
0.000429333
0.000428929
0.000424241
0.000429468
0.000424895
0.00042453
0.000425273
0.00042473
0.000429586
0.000429044
0.000429528
0.000425344
0.000424642
0.000435817
0.000434117
0.000435792
0.000435811
0.000434131
0.000435404
0.000435463
0.000432994
0.00043287
0.000433245
0.000433728
0.000432855
0.0004331
0.000433254
0.00043373
0.000432862
0.000433101
0.000432883
0.000433007
0.000433003
0.000432875
0.000435754
0.000433253
0.000433741
0.000435763
0.000433257
0.00043374
0.000432863
0.000433109
0.000432868
0.00043311
0.000433004
0.000433005
0.000432878
0.000432883
0.000433612
0.000432927
0.000433326
0.000432907
0.000432906
0.000433034
0.000432884
0.000432781
0.000433037
0.000432795
0.000432801
0.00043289
0.000432787
0.000432796
0.000433041
0.000432804
0.000433626
0.000432939
0.000433339
0.000433623
0.000432937
0.000433339
0.000432913
0.000432912
0.000433044
0.000437228
0.000437306
0.000432893
0.000437345
0.000432783
0.000437261
0.000437575
0.000433046
0.000432802
0.000437508
0.000437253
0.000432807
0.00043723
0.000437311
0.000432896
0.000437352
0.000432794
0.000437262
0.000437577
0.000433048
0.000432804
0.000437513
0.000437253
0.000432812
0.00043363
0.000432938
0.000433336
0.000437746
0.00043362
0.000437446
0.000432941
0.000433332
0.000437963
0.000437366
0.000432915
0.000432917
0.000433042
0.000437303
0.000433979
0.000433968
0.000433687
0.000437871
0.000437812
0.000434003
0.000433959
0.00043368
0.000437946
0.000437917
0.000435361
0.00043537
0.00043378
0.000433523
0.000433933
0.000433651
0.000434004
0.000433992
0.000433795
0.000433529
0.000433943
0.000434005
0.000433654
0.000433994
0.000437944
0.000433787
0.00043764
0.000433533
0.000433941
0.000437969
0.000437849
0.000437902
0.000437961
0.00043402
0.000433663
0.000434006
0.000437887
0.000437926
0.00043795
0.000433789
0.000437645
0.000433535
0.000437856
0.000437974
0.000433947
0.000437905
0.000437962
0.000434022
0.000433663
0.000437889
0.000437931
0.000434008
0.000502395
0.000502571
0.000502394
0.00050257
0.000506923
0.000506962
0.000502379
0.000502373
0.000506946
0.000506935
0.000502357
0.000506922
0.000506961
0.000502372
0.000502376
0.000506934
0.000506945
0.000502355
0.000459939
0.000459927
0.000460063
0.000462054
0.00048462
0.000480266
0.000495713
0.000486418
0.000477099
0.000477147
0.000479107
0.00048038
0.000480263
0.000480377
0.000463125
0.000434119
0.000460054
0.000460057
0.000435803
0.0004358
0.000462058
0.000463189
0.000434111
0.000462648
0.000462647
0.000435814
0.00043582
0.000463091
0.000460046
0.000463092
0.000435799
0.000462057
0.000463178
0.000459929
0.000463192
0.00046309
0.000463185
0.000495803
0.00048441
0.000497824
0.000480022
0.000480021
0.000477099
0.000468384
0.000467345
0.000468376
0.000468296
0.000480347
0.000467342
0.000466576
0.000467497
0.000484438
0.000497821
0.000484706
0.000497772
0.000497848
0.000484734
0.000450485
0.0004632
0.000463092
0.000450469
0.000463188
0.00045045
0.000463091
0.000463201
0.000450489
0.000450474
0.000459929
0.000459933
0.00045993
0.000435487
0.000435514
0.00046006
0.000462646
0.000462981
0.000450352
0.000451905
0.000450464
0.000451816
0.000463181
0.000450449
0.00045993
0.000462977
0.000462645
0.000450354
0.000451906
0.000451821
0.000450457
0.000463119
0.000463121
0.000450155
0.000450455
0.000450454
0.000497853
0.000484731
0.000484728
0.000497852
0.000497817
0.000497773
0.000484105
0.000497818
0.000484623
0.000467505
0.000480385
0.000480382
0.000467507
0.000479109
0.000467415
0.00046658
0.000467411
0.000480268
0.000484438
0.000497772
0.000486336
0.000486416
0.000495744
0.000484066
0.000497756
0.000484407
0.000497789
0.000495746
0.000484066
0.000497788
0.000480112
0.000467496
0.000480355
0.000467346
0.000480115
0.000467494
0.000480352
0.000467345
0.000477145
0.000468371
0.000468297
0.000479561
0.000467288
0.00048002
0.000466953
0.000477101
0.000468392
0.000468295
0.000479565
0.000467294
0.00048002
0.000466955
0.000467499
0.000480382
0.000466576
0.000467409
0.000467404
0.000480265
0.000467502
0.00049781
0.000484619
0.000484618
0.000484105
0.000484735
0.000467493
0.000466575
0.00048026
0.000479108
0.000467396
0.000467398
0.00046749
0.00046319
0.000450454
0.000463192
0.000450459
0.000462062
0.000463122
0.000450164
0.000450453
0.000450457
0.000432876
0.000446096
0.000432887
0.000446103
0.000445781
0.000433003
0.00043301
0.00044619
0.000446199
0.000450485
0.000463196
0.000463092
0.000450465
0.000459928
0.000450353
0.00046298
0.000451885
0.000462647
0.000450465
0.000451821
0.000459929
0.000450353
0.000462981
0.000451891
0.000462647
0.000450462
0.00045182
0.000446254
0.000432859
0.000446149
0.000433103
0.000446254
0.000432859
0.000446145
0.000433103
0.000446147
0.000443792
0.000433252
0.000435724
0.000446219
0.000443762
0.000433731
0.000446148
0.000443786
0.000433248
0.000435721
0.000446219
0.000443761
0.000433731
0.000463122
0.00046312
0.000450161
0.000450448
0.000450448
0.00045045
0.000432873
0.000446092
0.000445774
0.000432997
0.000446186
0.000446185
0.000446092
0.000462987
0.000460067
0.000459932
0.000450358
0.000451916
0.000450475
0.000451822
0.00046309
0.000463191
0.000450488
0.000450463
0.000459929
0.000460052
0.000462976
0.000450357
0.000451887
0.000451823
0.000450457
0.000446261
0.000432873
0.000446157
0.000433116
0.000446156
0.000443807
0.000433262
0.000435785
0.000446233
0.000443771
0.000433747
0.00044626
0.000432868
0.000446149
0.000433116
0.000446155
0.000443794
0.000435779
0.000433258
0.000443773
0.000446222
0.000433746
0.000463195
0.000450485
0.000450467
0.000459925
0.000462645
0.00046298
0.000450352
0.000451878
0.000451816
0.000450466
0.000463201
0.000450485
0.000450472
0.000446146
0.000443793
0.000435713
0.00044622
0.000443757
0.000446253
0.000446146
0.000446147
0.000443789
0.000435717
0.000443755
0.000446221
0.000446254
0.000446151
0.000463114
0.000463116
0.000450161
0.000450448
0.000450444
0.000450447
0.000446096
0.000445771
0.00044619
0.000446189
0.000446094
0.000460066
0.000462646
0.000462981
0.000450356
0.000451912
0.00045182
0.000450472
0.00046309
0.000450484
0.000450461
0.000463196
0.000450486
0.00045047
0.000446152
0.000443779
0.000443773
0.000446221
0.000446153
0.000443801
0.00044377
0.00044623
0.000446257
0.000446148
0.000446257
0.000446151
0.000463189
0.000450457
0.000450457
0.000445771
0.000446191
0.000446197
0.000446098
0.000446102
0.000484701
0.000497824
0.000484437
0.000497776
0.000477472
0.000468527
0.000468531
0.000477471
0.000495801
0.000484414
0.000486324
0.000484064
0.000486419
0.000497732
0.00049571
0.000486346
0.000484068
0.000495752
0.000497792
0.000486427
0.000497819
0.000484688
0.000484437
0.000497775
0.000484418
0.000495715
0.00048635
0.000484068
0.000495752
0.000497791
0.000486422
0.000480351
0.000467343
0.000467496
0.000480109
0.000477109
0.000466954
0.000467292
0.000468396
0.000468299
0.000479565
0.00047715
0.000480348
0.000467343
0.000467489
0.000480108
0.000466955
0.000468294
0.000468389
0.000477112
0.000467285
0.000479564
0.000477144
0.0004683
0.000468376
0.000466954
0.00046729
0.000477147
0.000467341
0.000467492
0.000468294
0.000466954
0.000467283
0.000477119
0.000477142
0.000480018
0.00046749
0.000480344
0.000484065
0.000486419
0.000484691
0.000484441
0.000484441
0.000468298
0.000480017
0.000477093
0.000467287
0.000466951
0.000479564
0.000477146
0.00046838
0.000466952
0.000467284
0.000479565
0.000477084
0.000477145
0.00048001
0.000467487
0.000467343
0.000480111
0.00046749
0.000480113
0.000480338
0.000467404
0.000467393
0.000479103
0.000480255
0.000480255
0.000467492
0.000480372
0.000480372
0.000488681
0.000488928
0.000484089
0.000484695
0.000489017
0.000484384
0.000488514
0.000475753
0.000479733
0.000475983
0.000480345
0.000480011
0.000476072
0.000475456
0.000476088
0.000475746
0.000479734
0.000475975
0.000480341
0.00048001
0.000476062
0.000475451
0.000476081
0.000458823
0.000462763
0.000463182
0.000458888
0.000462998
0.000458936
0.000458623
0.000458948
0.000458985
0.000463129
0.00046322
0.000458886
0.000458916
0.00045897
0.000463228
0.000458988
0.000463222
0.000463134
0.000458886
0.000458971
0.000458918
0.000463234
0.000458942
0.000458995
0.000463172
0.000458943
0.000458934
0.000463227
0.000458985
0.00046313
0.000463219
0.000458885
0.000458916
0.000458969
0.000463229
0.000458948
0.000471796
0.000467513
0.000467395
0.000471591
0.000467526
0.000471784
0.00047166
0.000476136
0.00047606
0.000480319
0.000480419
0.000476031
0.000471784
0.000467388
0.00046751
0.000471586
0.00046752
0.000471636
0.00047178
0.000471764
0.000489012
0.000484705
0.000484502
0.000488747
0.000489001
0.000488789
0.000484702
0.000493474
0.000493384
0.000497803
0.000493348
0.00049785
0.000489072
0.000484663
0.000488995
0.000488954
0.000484774
0.000493383
0.000493246
0.000497807
0.000497754
0.000493369
0.000493244
0.000497797
0.000493452
0.000489052
0.000454737
0.000454645
0.000450488
0.000450512
0.000454716
0.000454675
0.000450504
0.000459
0.000463178
0.000458955
0.000463233
0.00045894
0.000458987
0.000458887
0.000463222
0.000463133
0.000463233
0.000458971
0.000458917
0.000454723
0.000450472
0.000454683
0.000454685
0.000450458
0.000458947
0.000454683
0.000458988
0.000463221
0.000463131
0.000458887
0.000458919
0.000458972
0.000463231
0.000459002
0.000463178
0.000458957
0.000458943
0.000463233
0.00045474
0.000454647
0.000450516
0.000450492
0.000454678
0.000454718
0.000450508
0.000454728
0.000454688
0.000450478
0.00045469
0.000450464
0.000458941
0.000454677
0.000458821
0.000462745
0.000463175
0.000458883
0.000458616
0.00045893
0.00046299
0.00045892
0.000463192
0.000463191
0.000458951
0.000458953
0.000463152
0.000458806
0.000462779
0.000463178
0.000458889
0.000458636
0.000458932
0.000462981
0.000454689
0.000450452
0.000450455
0.000454689
0.000454693
0.000450506
0.000454577
0.000454645
0.000450468
0.000450337
0.000454433
0.000454675
0.000450478
0.000454583
0.000454641
0.000450471
0.000450334
0.000454411
0.000454675
0.000450483
0.000493455
0.000489054
0.000489053
0.000493455
0.000493163
0.000493345
0.000497784
0.00049783
0.000493411
0.000493138
0.00049771
0.000488959
0.000484752
0.000484753
0.00048908
0.000489079
0.000484631
0.00049318
0.00049778
0.000493347
0.000497842
0.000493421
0.000493148
0.000497723
0.00048869
0.000484101
0.000484696
0.000488931
0.000489022
0.000484378
0.000488533
0.000493347
0.000497879
0.000497889
0.00049349
0.000493484
0.000497783
0.000471778
0.000476096
0.000476095
0.000471783
0.00047144
0.000471716
0.000467003
0.000467481
0.000471751
0.000467257
0.000471162
0.000475985
0.000480395
0.000480395
0.000480286
0.000476101
0.000476101
0.000471437
0.000467
0.000471707
0.000467475
0.000471746
0.000471157
0.000467249
0.000475748
0.000479735
0.000480344
0.000475983
0.000480009
0.00047607
0.000475449
0.000471682
0.000467511
0.000467508
0.000471778
0.000471781
0.00046743
0.000489011
0.000484704
0.000484498
0.000488746
0.000489001
0.000488788
0.000484697
0.000493383
0.000493246
0.000497807
0.000497754
0.000493369
0.000493243
0.000497797
0.000476097
0.000480377
0.000480165
0.000475868
0.000480379
0.000476092
0.000475923
0.000471798
0.000471756
0.000467457
0.000467547
0.000471729
0.000476142
0.000480325
0.00047607
0.000480424
0.000476039
0.000471795
0.000471593
0.000467514
0.000467395
0.000467526
0.000471786
0.000471664
0.000476092
0.000480377
0.000480154
0.000475867
0.000480373
0.000476091
0.000475915
0.000471801
0.000471754
0.000467455
0.000471722
0.000467545
0.000476141
0.000480324
0.000476066
0.000480423
0.000476035
0.000471788
0.000471589
0.000467513
0.00046739
0.000471784
0.000471639
0.000467522
0.000471764
0.00047609
0.000471439
0.000471698
0.000467004
0.000467474
0.000471742
0.00046725
0.000471167
0.000471436
0.000467003
0.00047168
0.000467471
0.000471161
0.000471735
0.00046725
0.000475749
0.000479733
0.00048034
0.000475978
0.000475451
0.000480008
0.000476061
0.000471678
0.000467505
0.000467503
0.000471772
0.000471774
0.000467425
0.000471772
0.000493183
0.000493336
0.00049342
0.000493151
0.000488688
0.000488927
0.000484088
0.000484698
0.000489026
0.000484389
0.000488522
0.000488672
0.000488931
0.000484087
0.000484695
0.000489013
0.000484351
0.00048852
0.000488956
0.000484749
0.000484746
0.000489083
0.000489073
0.000484623
0.000489056
0.000471757
0.000475743
0.000479722
0.000475966
0.000480336
0.000479998
0.000476056
0.000475446
0.000471435
0.000467004
0.000471656
0.000467464
0.000471723
0.000467246
0.00047118
0.000471433
0.000471671
0.000466999
0.000467466
0.000471729
0.000467245
0.000471161
0.000475978
0.000480389
0.000480388
0.000480278
0.000476092
0.00047609
0.000471672
0.000467498
0.000467499
0.000471766
0.000471763
0.000467421
0.00047175
0.000458951
0.000454689
0.000458955
0.000454694
0.000454691
0.000450449
0.000450458
0.000454689
0.000454696
0.000450507
0.000458809
0.000462751
0.000463178
0.000458886
0.000462983
0.000458929
0.000458632
0.000458921
0.000463201
0.000463194
0.000463156
0.000458952
0.000458958
0.000454578
0.000450465
0.000454642
0.00045034
0.000454673
0.000450477
0.000454433
0.000454585
0.000454646
0.000450475
0.000450335
0.00045468
0.000450483
0.000454414
0.000437298
0.000441742
0.000437308
0.000441751
0.0004419
0.00044611
0.000446118
0.000446236
0.000441774
0.000441779
0.000437743
0.000433623
0.000437446
0.000432936
0.000437362
0.000437957
0.000433338
0.000437748
0.000433629
0.000437453
0.000432943
0.000437371
0.000437963
0.000433341
0.000442122
0.000446153
0.000446231
0.000441882
0.000446303
0.000441807
0.000442182
0.000442125
0.000446167
0.000446232
0.000441891
0.000446303
0.00044182
0.000442187
0.000437468
0.000432917
0.00043292
0.000437338
0.000437341
0.000433046
0.000454736
0.000454644
0.000450487
0.000450511
0.000454715
0.000454674
0.000450502
0.000458997
0.000463175
0.000458949
0.000463231
0.000458937
0.000458985
0.000458886
0.000463221
0.000463131
0.00045897
0.000463231
0.000458916
0.00045472
0.000450469
0.000454675
0.000454681
0.000450455
0.000441727
0.000446137
0.000446263
0.000442007
0.00044613
0.000441727
0.00044197
0.000437222
0.000437304
0.000432888
0.000432785
0.000437344
0.000441691
0.000446165
0.000441778
0.000446059
0.000441815
0.000437255
0.00043757
0.000432798
0.000433041
0.000432804
0.000437246
0.000437505
0.000441726
0.000446136
0.000446262
0.000442006
0.000446129
0.000441727
0.000441968
0.000437221
0.000437301
0.000432888
0.000437342
0.000432786
0.00044169
0.000446162
0.000441774
0.000446057
0.000441813
0.000437255
0.00043757
0.000432798
0.00043304
0.000437246
0.000437505
0.000432805
0.000458814
0.000462768
0.000463177
0.000458884
0.000458632
0.000462988
0.00045893
0.000454689
0.000450445
0.000450446
0.000454687
0.000454687
0.000450504
0.000458815
0.000462772
0.000463176
0.000458883
0.000458929
0.000462987
0.000458638
0.00045892
0.000463193
0.000463191
0.000458951
0.000463153
0.000458952
0.000454585
0.000450461
0.000454635
0.000450338
0.000454671
0.000454433
0.000450479
0.000454585
0.000454637
0.000450462
0.000450338
0.000454429
0.000454673
0.000450481
0.000454685
0.000437294
0.000441738
0.000441889
0.000446105
0.000446105
0.000446229
0.000441768
0.000441767
0.000437734
0.000433617
0.000437439
0.000432929
0.00043795
0.000437358
0.000433329
0.000437735
0.000437438
0.000437357
0.000437949
0.000442116
0.00044615
0.000446225
0.000441878
0.000442176
0.0004463
0.000441805
0.000442119
0.00044615
0.00044623
0.000441876
0.000446304
0.000441805
0.000442179
0.000437456
0.00043733
0.000437329
0.000437293
0.000441737
0.000458984
0.00046322
0.000463129
0.000458886
0.000458971
0.000458915
0.000463229
0.000458995
0.000463173
0.000458942
0.000458933
0.000463229
0.000454736
0.000454645
0.000450491
0.000450513
0.000454717
0.000454673
0.000450505
0.000454718
0.000454664
0.000450469
0.000454677
0.000450457
0.000441738
0.000446269
0.000446144
0.000442017
0.000446138
0.00044198
0.000441738
0.000437235
0.000437316
0.000432901
0.000432799
0.000437356
0.000441703
0.000446173
0.000441788
0.000446068
0.000441826
0.000437268
0.000437583
0.000433054
0.000432811
0.000432818
0.000437518
0.000437259
0.000441735
0.000446143
0.000446267
0.000442016
0.000446135
0.000441737
0.000441978
0.000437231
0.000437311
0.000432898
0.000437353
0.000432795
0.000441698
0.000446167
0.000441782
0.000446063
0.000441821
0.000437266
0.000437582
0.00043281
0.000433052
0.000437258
0.000437516
0.000432816
0.000458997
0.000463174
0.00045895
0.000458937
0.000463229
0.000454736
0.000454645
0.000450511
0.000450487
0.000454674
0.000454716
0.000450503
0.00045472
0.000454678
0.00045047
0.000454682
0.000450456
0.000459002
0.00046318
0.000458957
0.000458942
0.000463235
0.000454738
0.000454646
0.000450488
0.000450513
0.000454717
0.000454676
0.000450505
0.000454725
0.000454685
0.000450474
0.000454687
0.00045046
0.000441726
0.000446261
0.000446137
0.000442006
0.000446129
0.000441968
0.000441727
0.000437219
0.0004373
0.00043734
0.000441689
0.000446162
0.000441774
0.000446057
0.000441812
0.000437253
0.00043757
0.000437503
0.000437245
0.000441728
0.000446138
0.000446264
0.000442007
0.000446131
0.000441728
0.000441971
0.000437224
0.000437307
0.000437346
0.000441693
0.000446167
0.000441781
0.000446061
0.000441817
0.000437256
0.000437571
0.000437246
0.000437507
0.000458813
0.000462769
0.000463172
0.000458878
0.000458633
0.000462986
0.000458927
0.000458813
0.000462771
0.000463174
0.000458878
0.000458927
0.000462985
0.000458637
0.00045469
0.000450447
0.000450447
0.000454686
0.000454686
0.000450503
0.000458919
0.000463192
0.000463188
0.000458951
0.00046315
0.000458951
0.000454586
0.000454629
0.000450461
0.000450341
0.00045467
0.000454439
0.000450479
0.000454587
0.000454631
0.00045046
0.000450338
0.000454434
0.000454671
0.00045048
0.000454678
0.000437303
0.000441745
0.000441894
0.00044611
0.000446109
0.000446236
0.000441771
0.00044177
0.000437741
0.000437448
0.000437957
0.000437367
0.000437739
0.000437442
0.000437365
0.00043795
0.000442123
0.000446154
0.000446229
0.000441884
0.000442182
0.000446304
0.000441811
0.000442123
0.000446154
0.00044623
0.00044188
0.000446307
0.000441809
0.00044218
0.000437463
0.000437341
0.000437339
0.000437301
0.000441738
0.000458984
0.000463129
0.000463219
0.000458884
0.000458914
0.000458969
0.000463228
0.000454735
0.000454645
0.000450509
0.000450486
0.000454673
0.000454716
0.000450501
0.000454717
0.000454669
0.000450466
0.000454679
0.000450455
0.000458999
0.000463176
0.000458953
0.000458939
0.00046323
0.000454737
0.000454645
0.000450513
0.000450489
0.000454675
0.000454716
0.000450505
0.000454724
0.000454685
0.000450474
0.000454687
0.000450461
0.000441728
0.000446264
0.00044614
0.000442011
0.000446132
0.000441972
0.00044173
0.00044169
0.000446165
0.000441776
0.000446059
0.000441814
0.000441732
0.000446265
0.00044614
0.000442012
0.000446133
0.000441975
0.000441733
0.000441698
0.000446168
0.000441783
0.000446064
0.000441822
0.000458953
0.000454691
0.00045469
0.000441895
0.000446111
0.000446116
0.000446236
0.000441772
0.000441775
0.000437744
0.000437448
0.000437952
0.000437369
0.000442133
0.000446155
0.000446242
0.000441884
0.000446314
0.000442191
0.000441811
0.000442125
0.000446164
0.000446219
0.000441887
0.000446294
0.000442184
0.000441814
0.000437465
0.000437338
0.000437338
0.000437301
0.000441745
0.000441746
0.000489072
0.000488994
0.000484661
0.000488954
0.000484772
0.000493475
0.000493386
0.000497805
0.000493349
0.000497851
0.000489012
0.0004845
0.000484702
0.000488748
0.000488791
0.000489001
0.000484699
0.000493385
0.000497759
0.00049781
0.000493249
0.000493248
0.00049337
0.000497801
0.000493474
0.000493381
0.000497803
0.000493346
0.00049785
0.000489071
0.00048899
0.000484661
0.000488952
0.000484775
0.000489011
0.000484701
0.000484499
0.000488747
0.000489001
0.000488788
0.000484697
0.000493384
0.000497757
0.000497809
0.000493248
0.00049337
0.000493245
0.000497799
0.000476137
0.000476067
0.000480322
0.00048042
0.000476035
0.000471782
0.00046751
0.000467389
0.000471585
0.000467521
0.000471637
0.000471779
0.000471788
0.000471753
0.000467455
0.000467544
0.000471723
0.000476088
0.000480157
0.000480373
0.000475862
0.000480372
0.000475912
0.000476086
0.000476138
0.000476065
0.000480322
0.000480421
0.000476032
0.000471785
0.000467511
0.000467389
0.000471586
0.000467521
0.00047178
0.000471638
0.0004718
0.000471746
0.000467454
0.000467543
0.000471722
0.000476089
0.000480373
0.000480158
0.000475863
0.000480373
0.000476086
0.000475913
0.000471769
0.000467383
0.000467509
0.000471587
0.000467515
0.000471608
0.000471777
0.000471781
0.000471751
0.00046745
0.000467538
0.000471715
0.000471808
0.000467457
0.000471744
0.000467549
0.000471725
0.000476142
0.000476059
0.00048032
0.000480421
0.000476034
0.000489071
0.000488994
0.00048466
0.000488953
0.00048477
0.000489013
0.000484504
0.000488749
0.000484702
0.000488791
0.000489001
0.000484703
0.00048901
0.000488748
0.000484501
0.000484702
0.000488789
0.000489001
0.0004847
0.000471793
0.000471747
0.000467452
0.000467542
0.000471721
0.000471789
0.000467391
0.000467511
0.000471588
0.000467522
0.000471656
0.000471782
0.000476093
0.000480162
0.000475865
0.000480375
0.000480376
0.000475919
0.000476089
0.000471795
0.000467452
0.000471742
0.000467542
0.000471716
0.000476088
0.000475864
0.000480169
0.000480376
0.000480375
0.000475914
0.000476088
0.000476133
0.000476057
0.000480306
0.000480411
0.000476025
0.000471426
0.000466978
0.000467472
0.000471679
0.000467244
0.000471128
0.000471743
0.000471674
0.000467504
0.000467501
0.000467425
0.000471767
0.000471769
0.000471451
0.000467015
0.000467466
0.000471647
0.00046725
0.000471191
0.000471724
0.000475979
0.000480387
0.000480382
0.000480277
0.00047609
0.000476089
0.000475743
0.000475956
0.000480336
0.000479718
0.00048
0.000475451
0.000476041
0.000475745
0.000475965
0.000480326
0.000479742
0.000480004
0.000475476
0.000476044
0.000471749
0.000476073
0.000476083
0.000502547
0.000502715
0.00050273
0.000507107
0.000507051
0.000507024
0.00050714
0.000502728
0.000502709
0.000502541
0.000507102
0.00050705
0.000507138
0.000507022
0.00045993
0.000459932
0.000451777
0.000451685
0.00045168
0.000451677
0.000460034
0.000458663
0.000462409
0.000462477
0.000458301
0.000458499
0.000458439
0.000462646
0.000475554
0.000479401
0.0004751
0.000479402
0.000475258
0.000479665
0.000475269
0.000437836
0.000437808
0.000433971
0.000433983
0.00043794
0.00043796
0.000433686
0.000458652
0.000462446
0.000462454
0.000458307
0.00045847
0.000462644
0.000458487
0.000437828
0.000437803
0.000433966
0.000433965
0.000437933
0.000437946
0.000433672
0.000458454
0.000462722
0.00046232
0.000458628
0.000458686
0.000458377
0.000462389
0.000458458
0.00046232
0.000462719
0.000458627
0.000458378
0.000458682
0.000462389
0.000458651
0.000462445
0.000462453
0.000458306
0.000458469
0.000462642
0.000458485
0.000437836
0.000437803
0.000437954
0.000437934
0.000488474
0.000488697
0.000484048
0.000484196
0.000488517
0.000488521
0.00048404
0.000497735
0.000497757
0.000493345
0.000493267
0.000497818
0.000493234
0.000493209
0.000475223
0.000479583
0.000475806
0.000479765
0.000475339
0.000479383
0.000475583
0.000475228
0.000479587
0.000475819
0.000479765
0.000475346
0.000479397
0.000475571
0.000471088
0.000466772
0.000466813
0.000470412
0.000467037
0.000470812
0.000470831
0.000459938
0.000459933
0.000451777
0.000451682
0.000451684
0.000451676
0.000460032
0.000459936
0.000459927
0.00045178
0.000451681
0.000451685
0.000451677
0.000460033
0.000459938
0.00045993
0.000451777
0.000451686
0.000451682
0.000451679
0.000460034
0.000443671
0.000435429
0.000435343
0.000443579
0.000443564
0.000443482
0.000435289
0.000443681
0.000435422
0.000435416
0.000443582
0.00044358
0.000443486
0.000435286
0.000443661
0.000435414
0.000443575
0.000443566
0.000443479
0.000435273
0.000443677
0.000435407
0.000443576
0.00044357
0.00044348
0.000435273
0.000458456
0.000462323
0.000462718
0.000458626
0.000458682
0.000458379
0.000462388
0.000458468
0.000462675
0.000462808
0.000458829
0.000458564
0.000458729
0.00046244
0.000454138
0.00045435
0.000450395
0.000450161
0.000454399
0.000454087
0.000450218
0.000454174
0.000454533
0.00045044
0.000450261
0.000454361
0.000454451
0.000450215
0.000458469
0.000462675
0.000462806
0.000458819
0.000458571
0.000458725
0.00046244
0.000458455
0.000462319
0.000462716
0.000458625
0.000458376
0.00045868
0.000462387
0.000454139
0.000454351
0.000450164
0.000450396
0.000454086
0.000454399
0.000450221
0.000454178
0.000454499
0.000450438
0.000450266
0.000454399
0.000454445
0.000450217
0.000454297
0.000453858
0.000450212
0.000450222
0.000454186
0.000454129
0.000450334
0.000493309
0.000497843
0.000493488
0.000497814
0.000493378
0.000493349
0.000497749
0.000488478
0.000484046
0.000488373
0.000484077
0.000484241
0.000488498
0.00048845
0.000475555
0.000479401
0.000475103
0.000479405
0.000479665
0.000475264
0.000475265
0.000471091
0.000470413
0.000466789
0.000466805
0.000470827
0.000467047
0.000470813
0.000488506
0.000484074
0.000484111
0.000488471
0.000488474
0.000488538
0.000484077
0.000493354
0.000497842
0.000493264
0.000497733
0.000493206
0.000493267
0.000497837
0.000488484
0.000484063
0.000484196
0.000488695
0.00048852
0.000488539
0.000484046
0.000493405
0.000497862
0.000493265
0.000497763
0.000493236
0.000493422
0.00049783
0.000488505
0.000484073
0.000484108
0.00048847
0.000488471
0.000488537
0.000484076
0.000493404
0.000497863
0.000493265
0.000497762
0.000493234
0.000493421
0.000497833
0.000475182
0.000479324
0.000479642
0.000475403
0.000479341
0.000475479
0.000475122
0.000470781
0.000466902
0.000471458
0.000467115
0.000471035
0.0004712
0.000466765
0.000475222
0.000479588
0.000479764
0.000475806
0.000475339
0.000479385
0.000475579
0.000470713
0.000466642
0.000471003
0.000467027
0.000471066
0.000470651
0.000466726
0.000475181
0.000479322
0.000479637
0.000475405
0.000479341
0.000475486
0.000475121
0.000470792
0.000466902
0.000471481
0.000467119
0.000471204
0.000471039
0.000466767
0.000475225
0.000479585
0.000479763
0.000475807
0.000479381
0.00047558
0.00047534
0.000470709
0.000466643
0.000471006
0.00046703
0.000471087
0.000470652
0.000466725
0.000471091
0.00047041
0.000466799
0.000466791
0.000470811
0.000467043
0.000470827
0.00048847
0.000484069
0.00048837
0.00048405
0.000484233
0.000488479
0.000488449
0.00047109
0.000470409
0.000466797
0.00046679
0.000467041
0.000470815
0.000470824
0.00047555
0.00047941
0.000475101
0.000479391
0.00047966
0.000475265
0.00047526
0.00045867
0.000462438
0.000462479
0.000458308
0.000462657
0.000458495
0.000458458
0.000454301
0.000453865
0.000450238
0.000450208
0.000450335
0.000454191
0.000454132
0.000442176
0.000442129
0.000445962
0.000445964
0.000446022
0.000442128
0.000442144
0.000454142
0.000454351
0.000450397
0.000450163
0.0004544
0.000454089
0.000450221
0.00045847
0.000462672
0.000462809
0.000458834
0.00045873
0.000462442
0.000458564
0.000458457
0.000462323
0.000458627
0.000462718
0.000458682
0.000462388
0.00045838
0.000454172
0.000450439
0.000454548
0.00045026
0.000454452
0.000454351
0.000450212
0.000454143
0.00045435
0.000450396
0.000450163
0.0004544
0.000454088
0.000450221
0.000458466
0.000462676
0.00046281
0.000458828
0.000462436
0.000458729
0.000458564
0.000458458
0.000462322
0.000458627
0.00046272
0.000462392
0.000458683
0.000458379
0.000454169
0.000450439
0.000454523
0.000450259
0.000454449
0.000450213
0.000454367
0.00044211
0.000446192
0.000445894
0.000442223
0.000445926
0.000442235
0.000442067
0.000437937
0.000433781
0.00043764
0.000433529
0.000437964
0.000437848
0.000433936
0.000442124
0.000446234
0.000446083
0.000442069
0.000442132
0.000445961
0.000442207
0.000437888
0.000437953
0.000433655
0.000434005
0.000437922
0.000437871
0.000433993
0.000442112
0.000446191
0.000445894
0.000442223
0.000445927
0.000442234
0.000442068
0.000437943
0.000433784
0.000437637
0.000433526
0.000437846
0.00043797
0.000433937
0.000442129
0.000446235
0.000446085
0.000442069
0.000445966
0.000442206
0.000442136
0.00043789
0.000437952
0.000433653
0.000434006
0.00043792
0.000437872
0.000433994
0.000454274
0.000453862
0.000450229
0.000450218
0.000454155
0.000454176
0.00045033
0.000442181
0.000442122
0.000445951
0.000445958
0.000442119
0.000446033
0.000442132
0.000458459
0.000462813
0.000462666
0.00045884
0.000458736
0.000458544
0.000462433
0.000454136
0.000454354
0.000450402
0.000450165
0.000454405
0.000454088
0.000450221
0.000454166
0.000454565
0.00045045
0.000450258
0.000454463
0.000454321
0.00045022
0.000458468
0.000462808
0.000462672
0.000458817
0.000458724
0.000458571
0.000462436
0.000454145
0.000454352
0.000450165
0.000450399
0.000454088
0.0004544
0.000450224
0.000454177
0.000454487
0.000450439
0.000450267
0.000454442
0.000450218
0.000454408
0.000442123
0.000446199
0.000445902
0.000442234
0.000445934
0.000442246
0.000442081
0.000437956
0.000433795
0.000437653
0.000433539
0.000437981
0.000437859
0.000433951
0.000442141
0.000446246
0.000446096
0.000442085
0.000442148
0.000445976
0.000442218
0.000437912
0.000437968
0.000433669
0.000434032
0.000437936