/*--------------------------------*- C++ -*----------------------------------*\
| =========                 |                                                 |
| \\      /  F ield         | OpenFOAM: The Open Source CFD Toolbox           |
|  \\    /   O peration     | Version:  v2006                                 |
|   \\  /    A nd           | Website:  www.openfoam.com                      |
|    \\/     M anipulation  |                                                 |
\*---------------------------------------------------------------------------*/
FoamFile
{
    version     2.0;
    format      ascii;
    class       volVectorField;
    location    "375";
    object      U;
}
// * * * * * * * * * * * * * * * * * * * * * * * * * * * * * * * * * * * * * //

dimensions      [0 1 -1 0 0 0 0];


internalField   nonuniform List<vector> 
14361
(
(-8.14641e-06 6.0786e-06 0.107393)
(-3.5182e-06 -1.02008e-05 0.109715)
(-1.21154e-05 3.15078e-05 0.0933101)
(-2.12317e-06 3.16069e-05 0.0986757)
(-6.18901e-06 1.3517e-05 0.087949)
(2.1063e-06 3.61425e-06 0.072042)
(2.71932e-06 1.06084e-05 0.0827215)
(-5.96203e-07 2.15456e-05 0.0917063)
(-2.79943e-05 1.92785e-05 0.0920047)
(-1.29848e-05 6.12153e-06 0.0820208)
(-1.47607e-05 8.84749e-06 0.0820782)
(-1.86744e-05 1.72795e-05 0.0919587)
(-1.91469e-05 2.81617e-05 0.0920115)
(-1.30813e-05 2.90607e-05 0.096481)
(-5.97005e-06 1.30415e-05 0.0820252)
(-1.00694e-05 1.29798e-05 0.0880004)
(-2.02365e-05 4.41658e-05 0.0965182)
(-1.71571e-05 1.88081e-05 0.0919648)
(-8.75132e-06 1.48439e-05 0.0820835)
(5.51677e-08 9.70404e-08 0.0840267)
(-2.69116e-06 -1.13574e-06 0.0687508)
(1.29014e-06 2.78583e-06 0.0687561)
(-3.32892e-06 2.63846e-06 0.0687938)
(7.22584e-07 -5.0435e-07 0.0839845)
(-2.55911e-06 3.40866e-06 0.0687993)
(-2.85581e-06 6.51192e-06 0.0720954)
(1.73361e-06 5.58151e-06 0.0689777)
(-2.16479e-06 5.89303e-06 0.0862531)
(7.34967e-07 1.92996e-05 0.0827858)
(-6.79769e-07 1.03173e-05 0.0863136)
(7.47915e-07 2.0559e-06 0.0689156)
(1.81054e-07 7.998e-06 0.0774266)
(-6.37738e-08 2.55109e-05 0.0917523)
(-6.08027e-07 1.60548e-05 0.0902466)
(-7.96259e-07 7.69795e-06 0.0791526)
(9.95882e-07 2.05852e-05 0.0902995)
(-1.12216e-06 5.1109e-06 0.0773773)
(-5.91065e-07 9.87002e-06 0.0791961)
(-3.57559e-05 3.59112e-05 0.0977524)
(1.04406e-05 1.99236e-05 0.101533)
(-5.77586e-05 3.86199e-05 0.101571)
(-2.06477e-05 2.0758e-05 0.0977104)
(-9.65011e-06 7.4445e-05 0.101496)
(-1.11259e-05 -1.41985e-08 0.0996744)
(-1.16359e-05 3.19029e-05 0.0958303)
(-1.4622e-05 4.25722e-05 0.0933663)
(-9.36084e-06 -8.4695e-06 0.101425)
(-1.36272e-05 7.89926e-05 0.0997096)
(-1.02745e-05 4.72822e-05 0.095889)
(-4.18497e-06 6.48599e-05 0.103004)
(-1.52496e-06 4.79115e-05 0.0987147)
(-2.54367e-06 -1.631e-05 0.103565)
(-4.43793e-06 3.09414e-05 0.097735)
(-5.48042e-06 -1.47949e-05 0.102928)
(-1.83689e-06 6.07939e-05 0.10362)
(-2.6484e-06 4.74793e-05 0.0977851)
(1.19139e-05 1.23473e-05 0.107438)
(-5.75693e-05 5.74198e-05 0.104352)
(-1.24946e-05 1.18074e-05 0.107438)
(1.20436e-05 1.21828e-05 0.107438)
(5.75215e-05 5.76318e-05 0.104353)
(1.66032e-06 -2.18664e-06 0.112128)
(-2.19905e-06 -1.93364e-06 0.112129)
(2.72449e-05 -1.6437e-05 0.0879588)
(1.17314e-05 -5.0727e-07 0.0720532)
(5.6863e-05 -2.18735e-05 0.0933406)
(5.74794e-05 -2.82744e-06 0.0987297)
(2.66999e-05 1.1149e-06 0.0827252)
(4.17938e-05 -1.16263e-06 0.0917166)
(5.69755e-05 2.17824e-05 0.0933407)
(5.75203e-05 2.39937e-06 0.0987297)
(2.67214e-05 -9.95493e-07 0.0827253)
(4.18139e-05 1.0906e-06 0.0917165)
(-1.1616e-05 6.64801e-07 0.0720535)
(-2.71678e-05 1.64773e-05 0.0879571)
(-1.63877e-05 2.70511e-05 0.0879588)
(-5.39511e-07 1.1641e-05 0.0720527)
(-5.43004e-06 2.05884e-06 0.10975)
(-2.17548e-05 5.67697e-05 0.0933406)
(-2.66466e-06 5.73855e-05 0.0987296)
(4.54708e-06 2.25778e-06 0.10975)
(2.19518e-05 5.69618e-05 0.0933409)
(2.51707e-06 5.75544e-05 0.0987299)
(1.06669e-06 2.66461e-05 0.0827248)
(-1.04009e-06 4.16e-05 0.0917166)
(-8.63276e-07 2.66558e-05 0.0827258)
(1.19621e-06 4.18141e-05 0.0917172)
(2.71943e-05 1.643e-05 0.0879591)
(1.65389e-05 2.72007e-05 0.0879579)
(1.17391e-05 6.47812e-07 0.0720537)
(7.59456e-07 1.16285e-05 0.0720538)
(5.47833e-05 -2.91944e-05 0.0965162)
(2.31058e-05 -1.04784e-05 0.0820226)
(3.88934e-05 -2.87546e-05 0.0919787)
(2.39942e-06 -7.19235e-06 0.0687635)
(7.2265e-06 -2.37911e-06 0.0687692)
(8.76906e-06 -8.72535e-06 0.0839922)
(2.29191e-05 -4.7524e-06 0.0862697)
(9.15527e-06 2.81276e-06 0.0689372)
(3.61674e-05 -2.6577e-06 0.0902607)
(1.83963e-05 -3.27558e-07 0.0791509)
(1.53652e-05 2.23581e-07 0.0773844)
(2.296e-05 4.82323e-06 0.0862694)
(9.21329e-06 -2.65995e-06 0.0689371)
(1.84003e-05 4.45301e-07 0.0791508)
(3.62163e-05 2.65405e-06 0.0902601)
(1.53934e-05 -7.07209e-08 0.0773829)
(-5.48234e-05 2.89889e-05 0.0965128)
(-2.30214e-05 1.05493e-05 0.082017)
(-3.8692e-05 2.85995e-05 0.0919716)
(-2.90159e-05 5.46032e-05 0.0965164)
(-1.04559e-05 2.30108e-05 0.0820222)
(-2.85794e-05 3.87702e-05 0.0919783)
(-7.10039e-06 2.40866e-06 0.0687629)
(-2.28793e-06 7.19407e-06 0.0687682)
(-8.46648e-06 8.62533e-06 0.0839913)
(1.47324e-06 5.21401e-06 0.0688573)
(2.37399e-06 1.71856e-05 0.0826487)
(-4.72676e-06 2.27098e-05 0.0862694)
(-6.52874e-06 1.73459e-05 0.0862022)
(2.75762e-06 9.05519e-06 0.0689367)
(-1.21488e-06 1.21501e-05 0.0773202)
(-1.69955e-06 3.49075e-05 0.0916727)
(-2.50731e-06 3.5966e-05 0.0902607)
(-3.22905e-07 1.8324e-05 0.0791508)
(-4.67815e-06 2.94628e-05 0.0902079)
(-4.04691e-07 1.57549e-05 0.0790932)
(1.90586e-07 1.52809e-05 0.077384)
(-1.36046e-06 5.0741e-06 0.0688623)
(-2.18114e-06 1.70958e-05 0.0826502)
(4.94468e-06 2.29566e-05 0.08627)
(6.63782e-06 1.71409e-05 0.0862048)
(-2.58894e-06 9.16488e-06 0.0689374)
(1.40481e-06 1.20086e-05 0.077321)
(1.74284e-06 3.46939e-05 0.0916726)
(2.74868e-06 3.62064e-05 0.090261)
(4.56385e-07 1.83359e-05 0.0791518)
(4.67154e-06 2.91869e-05 0.0902089)
(5.84947e-07 1.57082e-05 0.0790929)
(-2.70461e-08 1.53231e-05 0.0773841)
(5.46053e-05 2.89586e-05 0.096517)
(2.29572e-05 1.03872e-05 0.082023)
(3.93076e-05 2.86079e-05 0.0919788)
(2.45875e-05 2.71512e-05 0.0919281)
(2.90116e-05 5.45949e-05 0.0965138)
(1.23266e-05 2.50993e-05 0.0879019)
(1.05741e-05 2.30816e-05 0.0820192)
(2.87923e-05 3.93212e-05 0.0919735)
(1.8516e-05 3.45551e-05 0.0964845)
(7.66368e-06 1.99002e-05 0.081949)
(7.09602e-06 2.49032e-06 0.068769)
(2.53421e-06 7.08929e-06 0.0687651)
(8.907e-06 8.73092e-06 0.0839928)
(-3.745e-06 8.36205e-06 0.0719843)
(-4.41369e-05 6.06061e-05 0.101603)
(-6.07192e-05 4.39329e-05 0.101606)
(-4.38535e-05 4.39357e-05 0.0977547)
(2.45545e-05 2.42928e-05 0.0977208)
(-1.11522e-05 -1.12696e-05 0.104267)
(4.40252e-05 6.00748e-05 0.101606)
(6.0108e-05 4.40494e-05 0.101604)
(4.36346e-05 4.36935e-05 0.0977557)
(2.21707e-05 -9.57804e-06 0.101571)
(-9.48791e-06 2.21656e-05 0.10157)
(-1.94817e-06 -1.82306e-06 0.114458)
(1.17546e-06 -1.69789e-06 0.114459)
(8.24059e-05 -2.06824e-05 0.0997384)
(5.94478e-05 -1.67438e-05 0.0958826)
(7.79802e-05 -1.45272e-05 0.101535)
(5.79367e-05 -7.0506e-06 0.0977936)
(6.52018e-05 -2.69023e-06 0.103673)
(6.8437e-05 -7.16249e-06 0.103055)
(8.23e-05 2.04295e-05 0.0997383)
(5.9575e-05 1.64715e-05 0.0958828)
(7.79756e-05 1.40393e-05 0.101535)
(6.52554e-05 2.13901e-06 0.103673)
(5.80039e-05 6.70139e-06 0.0977936)
(6.8511e-05 6.61676e-06 0.103055)
(-1.29565e-05 -5.72815e-06 0.101464)
(-2.04844e-05 8.23329e-05 0.0997384)
(-1.8905e-05 4.03647e-05 0.093287)
(-1.65871e-05 5.93315e-05 0.0958825)
(-1.43474e-05 7.79302e-05 0.101535)
(-1.56704e-05 1.23292e-06 0.0997072)
(-1.73608e-05 3.86698e-05 0.0958306)
(-7.67647e-06 -9.29366e-06 0.102977)
(-3.17443e-06 3.6804e-05 0.0986992)
(-2.64851e-06 6.52078e-05 0.103672)
(-6.86041e-06 5.7863e-05 0.0977936)
(-7.0514e-06 6.84617e-05 0.103055)
(-3.12829e-06 -9.61335e-06 0.103613)
(-8.41889e-06 3.66135e-05 0.0977523)
(1.24936e-05 -5.77412e-06 0.101465)
(2.03345e-05 8.25868e-05 0.0997381)
(1.88741e-05 4.01795e-05 0.093288)
(1.65976e-05 5.95587e-05 0.0958835)
(1.71971e-05 3.84226e-05 0.0958323)
(1.52251e-05 1.22691e-06 0.0997076)
(1.3995e-05 7.81745e-05 0.101535)
(7.10355e-06 -9.44559e-06 0.102977)
(2.76183e-06 3.66317e-05 0.0986994)
(2.08491e-06 6.53623e-05 0.103673)
(6.75867e-06 5.80248e-05 0.0977941)
(2.51612e-06 -9.74308e-06 0.103614)
(8.08697e-06 3.63601e-05 0.0977532)
(6.54133e-06 6.86051e-05 0.103055)
(7.73151e-06 6.60858e-07 0.0916288)
(-4.88159e-06 -3.7689e-07 0.0987053)
(7.72891e-06 -7.92089e-07 0.091629)
(-4.87105e-06 3.19634e-07 0.0987054)
(9.17702e-06 1.80752e-06 0.0771135)
(1.72502e-05 3.35989e-07 0.0915957)
(5.47775e-06 4.34405e-06 0.0901599)
(4.97696e-06 4.75403e-07 0.0789088)
(1.61328e-05 3.27014e-06 0.0901227)
(9.58018e-06 -7.42787e-08 0.0788934)
(4.26624e-06 3.71286e-06 0.0771322)
(9.16875e-06 -1.86529e-06 0.0771129)
(1.72452e-05 -4.59623e-07 0.0915957)
(5.00315e-06 -5.12171e-07 0.0789092)
(5.45205e-06 -4.45476e-06 0.0901601)
(9.5643e-06 3.33911e-08 0.0788929)
(1.61099e-05 -3.39547e-06 0.0901228)
(4.25522e-06 -3.75228e-06 0.0771319)
(-4.75425e-05 -4.74981e-05 0.112169)
(5.38635e-05 -9.3317e-06 0.109788)
(-2.07941e-05 3.70266e-05 0.107485)
(-1.27278e-05 -1.2723e-05 0.104295)
(-1.14379e-06 2.32712e-06 0.0878098)
(1.53563e-06 5.77116e-06 0.0877745)
(-6.64767e-06 -9.33819e-06 0.107431)
(5.98062e-06 -2.70725e-05 0.109786)
(-1.7373e-05 -3.37476e-05 0.107454)
(7.87998e-06 -4.53126e-05 0.109784)
(-1.85996e-05 1.88872e-05 0.104254)
(4.85806e-06 -8.67466e-07 0.0716694)
(1.49205e-06 -5.75087e-06 0.0877721)
(8.53443e-07 -4.97608e-06 0.0716706)
(-1.84199e-05 -8.57298e-06 0.0877916)
(-5.76253e-05 -5.74855e-05 0.104353)
(-2.105e-05 -3.69933e-05 0.107484)
(2.06239e-05 -3.70348e-05 0.107485)
(-1.23401e-05 -1.17331e-05 0.107437)
(1.19451e-05 -1.19931e-05 0.107437)
(-1.30035e-05 1.2921e-05 0.104294)
(3.74522e-06 1.9191e-06 0.0717329)
(5.72932e-05 -5.77921e-05 0.104353)
(-1.68706e-05 -1.36886e-06 0.098756)
(-1.68598e-05 1.37997e-06 0.0987558)
(-1.19908e-05 -1.22223e-05 0.107438)
(-1.21881e-05 1.20455e-05 0.107436)
(2.27295e-05 -1.69023e-06 0.0916316)
(3.72888e-05 2.12242e-05 0.107485)
(2.2738e-05 1.4741e-06 0.0916318)
(1.16859e-05 -1.2522e-05 0.107439)
(1.28073e-05 -1.29468e-05 0.104293)
(2.02375e-06 3.78191e-06 0.0717318)
(9.82234e-06 5.37508e-05 0.109788)
(-1.977e-06 1.54942e-06 0.0824322)
(1.39382e-06 2.2691e-05 0.0916315)
(-2.08692e-06 3.79964e-06 0.0717327)
(-5.77005e-06 -5.70162e-06 0.112255)
(-4.83946e-07 7.85522e-06 0.0932786)
(4.19786e-05 4.8101e-08 0.101411)
(1.41867e-05 1.02547e-05 0.0932396)
(1.42632e-05 -1.01588e-05 0.0932379)
(3.39923e-05 -1.71138e-05 0.107456)
(3.95926e-05 2.09852e-05 0.107471)
(2.77796e-05 1.11094e-06 0.0916574)
(-2.04671e-05 3.92755e-05 0.107473)
(9.50239e-06 5.57337e-05 0.109785)
(-3.69767e-07 -1.27821e-05 0.0824052)
(9.77636e-07 2.77344e-05 0.0916576)
(5.43934e-05 5.40107e-05 0.104396)
(2.18121e-06 7.09177e-06 0.0717432)
(5.19296e-07 -1.88562e-07 0.0916473)
(4.83454e-06 1.47263e-05 0.082457)
(-9.10127e-07 2.86255e-06 0.08245)
(8.48145e-07 2.09087e-05 0.0916031)
(9.26932e-06 -3.19405e-06 0.0717231)
(1.16265e-06 2.46906e-06 0.0717122)
(-2.1348e-06 -5.03681e-05 0.0916721)
(-1.94733e-06 -1.66136e-06 0.0824321)
(-1.5946e-06 -2.26918e-05 0.0916307)
(-2.65495e-06 -2.68318e-05 0.0825577)
(-1.93845e-06 -3.84377e-06 0.0717311)
(4.32889e-07 -1.61556e-05 0.0718882)
(-2.26694e-05 -1.52684e-06 0.0916309)
(-1.61586e-06 -1.96676e-06 0.0824332)
(-5.03554e-05 -2.17809e-06 0.0916725)
(-2.67268e-05 -2.77927e-06 0.0825583)
(-6.2936e-05 1.79645e-05 0.114538)
(1.8261e-05 6.32356e-05 0.114539)
(6.34295e-05 -1.77272e-05 0.114539)
(1.954e-06 2.22401e-06 0.112129)
(-2.50899e-06 1.88719e-06 0.112129)
(3.71146e-05 -2.06416e-05 0.107486)
(1.69488e-05 -1.36108e-06 0.0987569)
(1.34608e-05 -8.23346e-06 0.0932565)
(5.43887e-05 -2.5395e-06 0.0987878)
(2.93359e-05 -1.84031e-05 0.107488)
(5.3158e-05 -2.60999e-05 0.0933118)
(4.02672e-05 -8.6999e-06 0.109786)
(-3.79871e-06 -2.00249e-06 0.0717312)
(-1.61388e-05 4.8023e-07 0.0718863)
(-9.63762e-06 5.36567e-05 0.109788)
(-8.09613e-06 1.34218e-05 0.0932557)
(-1.56322e-06 1.68555e-05 0.0987563)
(-2.65357e-06 5.43554e-05 0.0987874)
(-1.86293e-05 2.93187e-05 0.107487)
(-9.04703e-06 4.01815e-05 0.109785)
(-2.59083e-05 5.32498e-05 0.0933118)
(8.56865e-06 1.8472e-05 0.0877916)
(1.85079e-05 8.5551e-06 0.0877909)
(5.90858e-05 5.95296e-05 0.104408)
(3.32985e-05 2.13916e-05 0.0878666)
(2.13823e-05 3.32466e-05 0.0878676)
(3.09865e-06 9.4049e-06 0.0717232)
(-2.54136e-06 1.20621e-06 0.0717115)
(1.19993e-06 -2.44092e-06 0.0717121)
(9.32116e-06 3.1443e-06 0.0717229)
(1.11687e-05 1.36747e-05 0.0877852)
(2.93832e-05 2.84032e-05 0.104221)
(-4.6683e-05 -4.68224e-05 0.10435)
(1.35995e-05 1.12685e-05 0.0877839)
(2.30109e-06 -1.03172e-06 0.0878068)
(-2.21823e-06 -7.03922e-06 0.0717417)
(8.50019e-07 4.95982e-06 0.0716707)
(4.88648e-06 9.2696e-07 0.0716704)
(-7.0887e-06 -2.2592e-06 0.0717424)
(1.87405e-05 1.87338e-05 0.104253)
(-2.04794e-05 -1.22074e-05 0.0878159)
(-5.41355e-05 -5.4007e-05 0.104396)
(-1.22137e-05 -2.05963e-05 0.0878128)
(5.68113e-06 1.6259e-06 0.0877729)
(-8.5234e-07 -2.04501e-07 0.0916475)
(-1.08867e-06 2.09085e-05 0.0916034)
(-1.21242e-05 -2.21673e-05 0.107437)
(-5.24679e-06 -2.70815e-05 0.109785)
(-2.38249e-06 -8.45023e-06 0.109791)
(5.16601e-07 -1.20585e-05 0.0987516)
(1.52671e-05 2.25989e-05 0.093214)
(7.57728e-06 -3.21147e-07 0.0932761)
(-9.96632e-08 1.79327e-05 0.0986661)
(3.33196e-06 -8.39796e-06 0.109791)
(-7.73329e-07 -1.20958e-05 0.0987521)
(2.29272e-07 1.79355e-05 0.0986664)
(-2.01559e-08 6.23328e-06 0.0916212)
(-3.78565e-06 -1.01746e-05 0.0824513)
(-4.21544e-07 1.25898e-05 0.0824048)
(-1.21248e-06 -2.77237e-05 0.0916571)
(-2.78143e-07 6.2181e-06 0.0916215)
(3.81786e-06 -1.01252e-05 0.082453)
(3.87772e-07 1.26513e-05 0.0824049)
(1.10152e-06 -2.7745e-05 0.0916572)
(-7.47479e-06 -4.53055e-05 0.109784)
(-2.08188e-05 -3.92681e-05 0.10747)
(-9.1891e-06 -5.56704e-05 0.109785)
(2.83835e-07 5.76151e-06 0.0987206)
(-9.47213e-06 -2.51191e-05 0.0932937)
(9.97682e-06 1.43343e-05 0.0932374)
(-1.13718e-06 -3.32464e-05 0.0987985)
(1.73952e-05 -3.37237e-05 0.107454)
(2.06303e-05 -3.92873e-05 0.107472)
(9.00769e-06 -5.57175e-05 0.109785)
(-6.23768e-07 5.73619e-06 0.0987209)
(9.32226e-06 -2.52035e-05 0.0932954)
(-1.02324e-05 1.41548e-05 0.0932385)
(7.16484e-07 -3.32884e-05 0.0987989)
(2.26306e-06 -6.9963e-06 0.0717443)
(-7.9839e-07 4.89006e-06 0.0716692)
(5.39508e-05 -5.39464e-05 0.104397)
(2.04897e-05 -1.24301e-05 0.0878146)
(1.22637e-05 -2.0481e-05 0.0878148)
(-5.68818e-06 1.49033e-06 0.0877722)
(7.03815e-06 -2.40946e-06 0.0717417)
(1.1341e-05 -1.36751e-05 0.0877857)
(-1.13323e-06 -2.37849e-06 0.0878076)
(2.2909e-06 1.16861e-06 0.0878089)
(-4.68878e-05 4.67307e-05 0.10435)
(-2.59486e-06 -1.20105e-06 0.0717108)
(-6.96667e-06 2.24636e-06 0.0717429)
(-5.40642e-05 5.40292e-05 0.104396)
(5.67231e-06 -1.56406e-06 0.0877742)
(1.87497e-05 -1.87601e-05 0.104253)
(-1.23087e-05 2.05215e-05 0.0878151)
(-2.05401e-05 1.22227e-05 0.0878135)
(-2.24126e-06 7.06778e-06 0.071742)
(2.13036e-06 -3.74766e-06 0.0717326)
(-4.19737e-07 -1.62653e-05 0.0718856)
(-3.75869e-06 2.01575e-06 0.0717324)
(-1.6097e-05 -5.74291e-07 0.0718853)
(1.27229e-05 1.29419e-05 0.104294)
(-8.52743e-06 -1.84097e-05 0.0877906)
(-5.96204e-05 -5.89939e-05 0.104407)
(-2.13494e-05 -3.31527e-05 0.0878671)
(-3.31555e-05 -2.13838e-05 0.0878657)
(-6.01169e-07 -1.17021e-05 0.0720531)
(3.63303e-06 -1.14962e-05 0.0718978)
(-1.16593e-05 -7.23484e-07 0.0720525)
(-1.13012e-05 3.52218e-06 0.0718973)
(9.73826e-06 1.03192e-05 0.104292)
(-1.64482e-05 -2.72295e-05 0.0879588)
(-2.71815e-05 -1.65146e-05 0.0879568)
(-1.49061e-05 -2.72156e-05 0.0878552)
(-2.7248e-05 -1.49377e-05 0.0878533)
(2.2571e-06 -5.0369e-05 0.0916722)
(2.05927e-06 -1.70775e-06 0.0824321)
(1.54163e-06 -2.27082e-05 0.091631)
(2.73715e-06 -2.67732e-05 0.0825592)
(-9.88763e-06 -5.35796e-05 0.109788)
(-2.4939e-06 -5.43593e-05 0.0987871)
(-8.12883e-06 -1.34904e-05 0.0932547)
(-1.86426e-05 -2.93374e-05 0.107486)
(-1.59017e-06 -1.68721e-05 0.0987558)
(-2.57714e-05 -5.32929e-05 0.0933112)
(-9.32878e-06 -4.00893e-05 0.109785)
(9.39312e-06 -5.36201e-05 0.109788)
(2.32333e-06 -5.43587e-05 0.0987873)
(8.10987e-06 -1.36012e-05 0.0932552)
(1.8049e-05 -2.93849e-05 0.107486)
(1.20093e-06 -1.69005e-05 0.0987561)
(2.58623e-05 -5.31742e-05 0.0933114)
(8.58215e-06 -4.01382e-05 0.109785)
(-2.24876e-06 -3.88576e-05 0.0916507)
(1.07296e-06 -2.66166e-05 0.0827242)
(4.751e-08 -1.77147e-05 0.0825623)
(-1.04068e-06 -4.17451e-05 0.0917163)
(2.408e-06 -3.88562e-05 0.0916508)
(-1.02761e-06 -2.66086e-05 0.0827257)
(3.31716e-08 -1.77127e-05 0.0825625)
(1.21655e-06 -4.17437e-05 0.0917164)
(-2.80449e-06 -3.54167e-05 0.098729)
(-1.54259e-05 -1.98603e-05 0.107471)
(-2.16674e-05 -5.68913e-05 0.0933399)
(-5.21027e-06 -1.99675e-06 0.10975)
(-2.12898e-05 -3.81512e-05 0.093273)
(-7.48652e-06 -2.06026e-05 0.109774)
(-2.50149e-06 -5.75095e-05 0.0987294)
(2.73213e-06 -3.54126e-05 0.0987292)
(1.49512e-05 -2.00345e-05 0.10747)
(2.17761e-05 -5.67871e-05 0.0933403)
(4.74401e-06 -2.08603e-06 0.10975)
(2.14544e-05 -3.80517e-05 0.0932726)
(6.68624e-06 -2.06832e-05 0.109774)
(2.69168e-06 -5.75144e-05 0.0987296)
(1.83437e-05 -8.78065e-06 0.0877922)
(8.68763e-06 -1.84512e-05 0.0877894)
(5.90358e-05 -5.91559e-05 0.104408)
(2.13736e-05 -3.31428e-05 0.0878672)
(3.31143e-05 -2.15521e-05 0.087867)
(1.6257e-05 -5.27559e-07 0.0718858)
(5.33418e-07 -1.16152e-05 0.0720556)
(-3.56876e-06 -1.14931e-05 0.0718965)
(-1.03544e-05 1.01045e-05 0.104292)
(1.63813e-05 -2.71182e-05 0.087959)
(1.5039e-05 -2.73231e-05 0.0878528)
(2.72343e-05 -1.5098e-05 0.0878558)
(1.14538e-05 3.59318e-06 0.0718984)
(-1.34896e-05 -7.95325e-06 0.0932566)
(-3.72129e-05 -2.0734e-05 0.107486)
(-5.36668e-05 -9.65049e-06 0.109788)
(-5.43446e-05 -2.34312e-06 0.0987873)
(-2.97331e-05 -1.84844e-05 0.107487)
(-5.31091e-05 -2.58562e-05 0.0933115)
(-4.03121e-05 -8.84909e-06 0.109785)
(-2.26896e-05 1.59562e-06 0.0916304)
(-1.7025e-06 1.98845e-06 0.0824322)
(-5.03056e-05 2.2144e-06 0.091673)
(-2.67502e-05 2.73748e-06 0.0825589)
(-5.35797e-05 9.579e-06 0.109788)
(-3.7053e-05 2.0729e-05 0.107485)
(-1.35563e-05 8.02244e-06 0.0932549)
(-5.43122e-05 2.4207e-06 0.0987874)
(-2.95332e-05 1.81777e-05 0.107485)
(-4.02351e-05 8.84949e-06 0.109784)
(-5.31965e-05 2.57879e-05 0.0933112)
(-3.88727e-05 -2.32013e-06 0.0916509)
(-2.67326e-05 8.92889e-07 0.0827245)
(-1.7565e-05 -7.04551e-08 0.082563)
(-4.17957e-05 -1.16412e-06 0.0917166)
(-3.54316e-05 -2.72653e-06 0.0987293)
(-2.02691e-05 -1.52772e-05 0.107472)
(-5.68387e-05 -2.19404e-05 0.0933398)
(-2.38142e-06 -4.84566e-06 0.10975)
(-3.80056e-05 -2.14589e-05 0.0932731)
(-2.09251e-05 -6.9723e-06 0.109774)
(-5.75326e-05 -2.60059e-06 0.0987298)
(-3.88889e-05 2.35336e-06 0.0916504)
(-2.66269e-05 -9.39282e-07 0.0827252)
(-1.7655e-05 5.12787e-08 0.0825625)
(-4.17646e-05 1.12006e-06 0.091717)
(-3.54218e-05 2.78632e-06 0.0987291)
(-2.0196e-05 1.50901e-05 0.10747)
(-2.38227e-06 4.95189e-06 0.10975)
(-5.68519e-05 2.18261e-05 0.0933402)
(-2.08843e-05 7.03816e-06 0.109773)
(-3.80617e-05 2.13876e-05 0.0932724)
(-5.75381e-05 2.60816e-06 0.0987297)
(1.65509e-06 -2.12046e-06 0.0824329)
(5.04365e-05 -2.36188e-06 0.0916725)
(2.68234e-05 -2.80261e-06 0.0825587)
(5.38981e-05 9.90963e-06 0.109789)
(1.6941e-05 1.45245e-06 0.0987569)
(1.35981e-05 8.17371e-06 0.0932556)
(5.44183e-05 2.3115e-06 0.0987879)
(2.94814e-05 1.85986e-05 0.107487)
(4.03303e-05 9.11814e-06 0.109785)
(5.33433e-05 2.57997e-05 0.0933118)
(1.77683e-06 1.99397e-06 0.0824325)
(5.04592e-05 2.04451e-06 0.0916724)
(2.68518e-05 2.6641e-06 0.0825585)
(3.54572e-05 -2.96875e-06 0.0987301)
(1.97685e-05 -1.54674e-05 0.107473)
(1.97821e-06 -5.18395e-06 0.109751)
(3.8013e-05 -2.16383e-05 0.0932738)
(2.06745e-05 -7.08581e-06 0.109775)
(3.89385e-05 -2.50786e-06 0.0916514)
(1.77214e-05 -2.4123e-08 0.0825633)
(3.54941e-05 2.61778e-06 0.0987302)
(2.00329e-05 1.5526e-05 0.107472)
(2.01654e-06 4.99682e-06 0.109751)
(2.07471e-05 7.2251e-06 0.109775)
(3.81682e-05 2.13732e-05 0.093274)
(3.89622e-05 2.17561e-06 0.0916516)
(1.77482e-05 -9.68496e-09 0.0825633)
(-8.60575e-06 1.84072e-05 0.0877914)
(-1.84477e-05 8.5214e-06 0.0877894)
(-5.92917e-05 5.90202e-05 0.104407)
(-3.3168e-05 2.13602e-05 0.0878656)
(-2.14804e-05 3.3237e-05 0.0878674)
(-5.61547e-07 1.63644e-05 0.0718858)
(-1.14035e-05 -3.51783e-06 0.0718965)
(1.00013e-05 -1.02601e-05 0.104291)
(-2.72914e-05 1.49999e-05 0.0878528)
(-1.50327e-05 2.72169e-05 0.0878548)
(3.67748e-06 1.13525e-05 0.0718972)
(2.07302e-05 3.72715e-05 0.107487)
(1.23923e-06 1.69296e-05 0.0987567)
(7.86823e-06 1.3628e-05 0.0932573)
(2.15058e-06 5.43604e-05 0.0987879)
(1.85505e-05 2.97287e-05 0.107487)
(8.84253e-06 4.03491e-05 0.109785)
(2.57655e-05 5.32376e-05 0.0933129)
(-1.72592e-06 2.26364e-05 0.0916312)
(-2.30358e-06 5.04331e-05 0.0916725)
(-2.74998e-06 2.67824e-05 0.0825586)
(1.87976e-06 1.60928e-06 0.0824338)
(2.09128e-06 5.03829e-05 0.0916729)
(2.74131e-06 2.67469e-05 0.0825596)
(-2.96854e-06 3.54982e-05 0.0987295)
(-1.5592e-05 1.99432e-05 0.107472)
(-7.42741e-06 2.07732e-05 0.109774)
(-2.15283e-05 3.81045e-05 0.0932733)
(2.57251e-06 3.54939e-05 0.0987297)
(1.50656e-05 2.02888e-05 0.107473)
(6.76566e-06 2.09163e-05 0.109774)
(2.13723e-05 3.81718e-05 0.0932739)
(-2.40079e-06 3.89266e-05 0.0916512)
(1.92638e-08 1.77522e-05 0.0825626)
(2.25402e-06 3.8965e-05 0.0916513)
(3.50542e-08 1.76387e-05 0.0825639)
(3.74603e-06 -2.06358e-06 0.071732)
(1.62568e-05 4.28381e-07 0.0718856)
(5.32204e-07 1.61332e-05 0.0718868)
(-1.00728e-05 -9.90263e-06 0.104293)
(2.72719e-05 1.4942e-05 0.0878557)
(1.49408e-05 2.73317e-05 0.0878533)
(1.14944e-05 -3.6287e-06 0.0718979)
(-3.5477e-06 1.13834e-05 0.0718979)
(3.07902e-06 -7.0291e-07 0.0824513)
(1.49594e-05 4.95378e-06 0.0824578)
(-1.67811e-07 6.95561e-07 0.0916476)
(2.09044e-05 9.19588e-07 0.0916034)
(-1.2085e-05 -4.30277e-05 0.114642)
(-5.84964e-05 1.67763e-05 0.11459)
(1.71972e-05 5.87578e-05 0.114592)
(1.28012e-05 -4.29726e-05 0.114641)
(-5.68572e-06 5.97215e-06 0.112254)
(7.79946e-06 5.86641e-07 0.093278)
(-1.1964e-05 2.21046e-05 0.10744)
(7.68559e-07 1.2122e-05 0.0987524)
(-5.35526e-06 2.71537e-05 0.109785)
(2.12177e-05 7.29935e-06 0.0957909)
(-8.81027e-06 -6.45846e-06 0.107432)
(-2.17815e-05 -1.22566e-05 0.107441)
(-1.20496e-05 5.66942e-07 0.0987519)
(-8.15492e-06 -3.14255e-06 0.109791)
(1.78871e-05 -2.18166e-07 0.0986666)
(-2.68346e-05 -5.80019e-06 0.109786)
(1.48803e-05 -4.99194e-06 0.0824577)
(2.90508e-06 7.98342e-07 0.0824512)
(-1.61956e-07 -7.13587e-07 0.0916478)
(2.08872e-05 -1.02066e-06 0.0916032)
(-2.79365e-07 -7.77401e-06 0.0932775)
(-9.05543e-06 6.88188e-06 0.107431)
(-2.19837e-05 1.24483e-05 0.107438)
(-1.20256e-05 -7.14392e-07 0.098752)
(-8.23591e-06 3.05922e-06 0.10979)
(1.78979e-05 1.20808e-07 0.0986665)
(-2.68857e-05 5.66643e-06 0.109785)
(1.27548e-05 -2.48066e-07 0.0824059)
(-2.76953e-05 -1.12564e-06 0.0916574)
(-1.01804e-05 -3.74959e-06 0.0824527)
(6.24717e-06 1.57826e-07 0.0916214)
(-3.35244e-05 -1.72214e-05 0.107455)
(-3.32472e-05 -9.14643e-07 0.0987987)
(-2.51614e-05 -9.22686e-06 0.0932963)
(-3.92782e-05 -2.05879e-05 0.107473)
(-5.55958e-05 -9.15725e-06 0.109785)
(5.77855e-06 3.9019e-07 0.0987208)
(-4.51047e-05 -7.87179e-06 0.109784)
(1.25721e-05 3.65384e-07 0.082405)
(-2.76713e-05 1.16712e-06 0.0916578)
(-1.01744e-05 3.77754e-06 0.0824529)
(6.2384e-06 -1.29792e-07 0.0916211)
(-3.32269e-05 8.93181e-07 0.0987987)
(-5.55448e-05 8.96816e-06 0.109785)
(-3.92548e-05 2.06441e-05 0.10747)
(-3.35829e-05 1.73686e-05 0.107454)
(-2.5204e-05 9.31995e-06 0.0932951)
(5.78691e-06 -5.05163e-07 0.0987207)
(-4.51039e-05 7.66572e-06 0.109784)
(5.59693e-05 -8.81316e-06 0.109786)
(3.94488e-05 -2.03854e-05 0.107474)
(3.33013e-05 -8.17645e-07 0.0987995)
(2.51408e-05 -9.4765e-06 0.0932957)
(4.55964e-05 -7.42321e-06 0.109785)
(2.77542e-05 -1.21506e-06 0.0916574)
(1.01264e-05 -3.93395e-06 0.0824525)
(5.59861e-05 9.23574e-06 0.109785)
(3.32984e-05 1.02697e-06 0.0987995)
(2.50921e-05 9.47179e-06 0.0932948)
(3.40337e-05 1.76585e-05 0.107454)
(4.5548e-05 7.66504e-06 0.109784)
(-1.43931e-05 -9.99738e-06 0.0932392)
(1.03001e-05 3.79393e-06 0.0824523)
(-1.26233e-05 3.93011e-07 0.0824057)
(-5.1452e-07 1.20859e-05 0.0987526)
(6.02159e-06 2.70377e-05 0.109785)
(-8.31049e-07 -3.08035e-06 0.0824507)
(6.66064e-07 1.88904e-07 0.0916475)
(-6.89485e-07 1.7594e-07 0.0916478)
(-8.95757e-06 5.5697e-05 0.109785)
(1.01671e-05 -1.42468e-05 0.0932388)
(-1.70003e-05 3.36657e-05 0.107456)
(-9.42865e-06 2.51165e-05 0.0932957)
(-1.00625e-06 3.32388e-05 0.0987991)
(5.42746e-07 -5.76258e-06 0.0987211)
(-7.37393e-06 4.5249e-05 0.109784)
(2.06703e-05 3.93159e-05 0.107473)
(8.40641e-07 3.32848e-05 0.0987995)
(9.17861e-06 2.5354e-05 0.0932974)
(-3.29485e-07 -5.75127e-06 0.0987215)
(1.72976e-05 3.35336e-05 0.107456)
(8.16021e-06 4.52321e-05 0.109784)
(-1.02137e-05 -1.41154e-05 0.0932394)
(-3.80465e-06 1.01955e-05 0.0824526)
(-1.31835e-06 2.77198e-05 0.0916572)
(9.8346e-08 -6.27387e-06 0.0916218)
(3.65176e-06 1.01109e-05 0.0824536)
(-1.534e-07 -6.25801e-06 0.0916221)
(2.81358e-07 -1.27159e-05 0.0824064)
(1.21592e-05 2.0667e-05 0.0878169)
(2.05698e-05 1.22347e-05 0.0878125)
(-1.85319e-05 -1.89021e-05 0.104254)
(-1.60195e-06 -5.6683e-06 0.0877754)
(-5.80371e-06 -1.58175e-06 0.0877726)
(7.06835e-06 2.24389e-06 0.0717417)
(-4.99065e-06 -8.23277e-07 0.0716706)
(-9.60671e-07 -4.86027e-06 0.0716708)
(1.46934e-05 1.28766e-05 0.09191)
(8.71971e-06 1.20094e-05 0.0877801)
(-6.08332e-06 -4.00951e-06 0.0965284)
(5.06231e-06 4.28396e-06 0.0817481)
(1.33739e-05 9.63021e-06 0.0817316)
(-2.34994e-06 4.39869e-06 0.0919422)
(1.70562e-05 8.76234e-06 0.0964791)
(-9.6379e-06 -2.16113e-06 0.0919413)
(1.21106e-05 5.9033e-06 0.0965018)
(-1.02934e-05 -4.94793e-06 0.0878076)
(8.2326e-06 6.14095e-06 0.0817062)
(9.10104e-06 8.49083e-06 0.0919105)
(-1.63566e-06 5.31327e-07 0.0817336)
(-1.34041e-05 -9.21117e-06 0.0965479)
(-2.61636e-06 2.78742e-06 0.0717122)
(-9.5582e-06 2.01886e-06 0.0919345)
(1.23873e-05 -6.11656e-06 0.096497)
(-1.02909e-05 4.92767e-06 0.0878052)
(8.00179e-06 -6.2244e-06 0.0817041)
(9.23139e-06 -8.66931e-06 0.0919055)
(-1.8849e-06 -5.97696e-07 0.0817303)
(-1.31361e-05 9.12068e-06 0.0965418)
(-2.86332e-06 2.60549e-06 0.0717109)
(-2.98862e-05 -1.94155e-05 0.0919378)
(-8.27119e-06 -6.98169e-06 0.0965228)
(-7.2506e-06 -1.72342e-06 0.08173)
(-2.91744e-05 -1.82623e-05 0.0878359)
(-9.57622e-06 -7.97477e-06 0.0919055)
(-1.69597e-05 -7.36482e-06 0.0817848)
(-3.52713e-05 -2.16921e-05 0.0965599)
(1.18212e-05 -1.31794e-06 0.0718016)
(1.78684e-05 -2.2424e-06 0.0771582)
(2.09092e-05 -7.71543e-06 0.0901515)
(9.6339e-06 1.78932e-07 0.0788757)
(4.15501e-05 -1.94818e-06 0.0916629)
(3.86223e-05 -8.7166e-06 0.09019)
(1.92935e-05 3.03373e-07 0.078927)
(8.52088e-06 -3.24841e-06 0.077098)
(1.79025e-05 2.0774e-06 0.0771565)
(9.62717e-06 -3.34582e-07 0.078876)
(2.09333e-05 7.44468e-06 0.0901524)
(4.15684e-05 1.69648e-06 0.0916629)
(1.92961e-05 -4.37396e-07 0.0789269)
(3.87162e-05 8.421e-06 0.0901894)
(8.45929e-06 3.06245e-06 0.0770992)
(-1.20274e-06 1.19154e-05 0.0718019)
(3.82025e-08 9.57346e-06 0.0686766)
(-9.20156e-06 1.54472e-05 0.086072)
(-3.53453e-06 1.80134e-05 0.0824926)
(-1.08727e-05 2.92436e-05 0.0861274)
(-2.01173e-06 2.29336e-06 0.0685939)
(2.06688e-06 1.79091e-05 0.0771576)
(7.32544e-06 2.08971e-05 0.0901524)
(-2.64279e-07 9.63862e-06 0.0788755)
(1.64152e-06 4.1527e-05 0.0916632)
(8.36238e-06 3.86631e-05 0.09019)
(-4.67856e-07 1.93167e-05 0.0789278)
(3.05563e-06 8.48664e-06 0.0770988)
(1.16912e-06 1.18463e-05 0.071803)
(2.54009e-06 2.40942e-06 0.0770603)
(1.26252e-05 -6.45474e-07 0.0788786)
(2.71534e-05 6.17359e-06 0.0901818)
(7.99403e-06 7.67303e-07 0.091627)
(1.22347e-05 1.5737e-06 0.0771053)
(2.58805e-06 -4.35673e-07 0.07884)
(8.22816e-06 4.55451e-06 0.0901466)
(-1.41919e-06 2.93043e-06 0.0685782)
(-2.86048e-06 2.87113e-06 0.0824393)
(-5.83285e-07 -2.44636e-06 0.0860502)
(-2.72034e-06 -4.01485e-06 0.0685268)
(-3.6172e-06 1.28737e-05 0.0860919)
(2.35715e-06 2.55688e-06 0.07706)
(6.03426e-06 2.71277e-05 0.0901823)
(-7.0608e-07 1.26268e-05 0.0788794)
(6.70795e-07 7.96328e-06 0.0916267)
(1.49891e-06 1.22441e-05 0.0771063)
(4.39548e-06 8.22641e-06 0.0901467)
(-4.25516e-07 2.62449e-06 0.0788396)
(-1.13789e-06 -8.65537e-07 0.0716865)
(4.33405e-07 1.02459e-05 0.0770593)
(5.01515e-07 2.3397e-06 0.0788595)
(1.52924e-06 -2.5041e-06 0.0901748)
(8.68429e-07 1.63525e-05 0.0916137)
(3.69184e-07 1.17411e-05 0.0788432)
(3.43076e-06 1.37692e-05 0.0901384)
(7.22792e-07 7.16524e-07 0.0770813)
(2.20432e-07 2.81338e-06 0.0686023)
(2.20671e-06 4.32398e-06 0.0824784)
(6.6239e-06 1.21663e-05 0.0860628)
(5.53773e-06 7.58366e-07 0.0861003)
(-4.21621e-07 8.45712e-06 0.0685794)
(-1.9427e-06 7.07424e-06 0.068541)
(1.54534e-06 -3.99413e-06 0.0860925)
(2.31208e-06 1.68286e-05 0.0824258)
(4.43411e-06 9.84053e-06 0.0860563)
(-9.22372e-07 1.30871e-07 0.068575)
(2.82886e-06 5.48822e-06 0.0771036)
(1.02025e-06 7.19176e-06 0.0916375)
(4.20788e-07 1.28279e-05 0.0788698)
(4.90023e-06 1.79394e-05 0.0901298)
(7.3475e-07 6.83622e-06 0.0788821)
(4.5878e-06 4.01442e-06 0.0901685)
(2.35758e-06 1.21293e-05 0.0770872)
(3.96728e-06 1.02325e-06 0.0717398)
(8.39291e-06 -1.77643e-06 0.0716842)
(-3.45696e-06 -1.40123e-05 0.0771618)
(-2.05584e-06 -3.49423e-05 0.0916384)
(-4.73054e-08 -2.4906e-05 0.078997)
(-8.88422e-06 -4.51926e-05 0.0902025)
(-6.80072e-08 -1.60665e-05 0.0789355)
(-9.01611e-06 -3.07316e-05 0.0901621)
(-1.96357e-06 -2.25934e-05 0.0772294)
(5.46272e-08 -9.62228e-06 0.0686738)
(-9.12698e-06 -1.54558e-05 0.0860724)
(-3.45242e-06 -1.7905e-05 0.0824914)
(-1.93658e-06 -2.1769e-06 0.0685957)
(-1.07489e-05 -2.92595e-05 0.0861257)
(-2.10366e-06 -1.78789e-05 0.0771568)
(-1.8105e-06 -4.14966e-05 0.0916626)
(2.79779e-07 -9.62876e-06 0.0788753)
(-7.53658e-06 -2.08658e-05 0.0901512)
(-3.10751e-06 -8.45499e-06 0.0770987)
(3.95864e-07 -1.92712e-05 0.0789271)
(-8.50525e-06 -3.86207e-05 0.0901889)
(-7.08938e-07 -5.99704e-06 0.0686738)
(-1.12465e-05 -3.13656e-05 0.0861637)
(-1.4908e-06 -1.01953e-05 0.0824853)
(-1.07987e-05 -2.02998e-05 0.0861047)
(1.58015e-06 -1.30748e-05 0.0687632)
(1.19662e-06 -1.17539e-05 0.0718041)
(-2.79156e-06 -8.81557e-06 0.0718041)