/*--------------------------------*- C++ -*----------------------------------*\
| =========                 |                                                 |
| \\      /  F ield         | OpenFOAM: The Open Source CFD Toolbox           |
|  \\    /   O peration     | Version:  v2012                                 |
|   \\  /    A nd           | Website:  www.openfoam.com                      |
|    \\/     M anipulation  |                                                 |
\*---------------------------------------------------------------------------*/
FoamFile
{
    version     2.0;
    format      ascii;
    class       volScalarField;
    location    "0.355";
    object      p;
}
// * * * * * * * * * * * * * * * * * * * * * * * * * * * * * * * * * * * * * //

dimensions      [0 2 -2 0 0 0 0];


internalField   nonuniform List<scalar> 
247104
(
1.84869e-06
1.8486e-06
1.84874e-06
1.84871e-06
1.84863e-06
1.84873e-06
1.84873e-06
1.84853e-06
1.8486e-06
1.84866e-06
1.84871e-06
1.84856e-06
1.84847e-06
1.84858e-06
1.84872e-06
1.84863e-06
1.84874e-06
1.84872e-06
1.84841e-06
1.84805e-06
1.8479e-06
1.84808e-06
1.84846e-06
1.84873e-06
1.84875e-06
1.84872e-06
1.84856e-06
1.84805e-06
1.84756e-06
1.84739e-06
1.84761e-06
1.84812e-06
1.84861e-06
1.84872e-06
1.8487e-06
1.84863e-06
1.84847e-06
1.8479e-06
1.84739e-06
1.84721e-06
1.84744e-06
1.84798e-06
1.84852e-06
1.84861e-06
1.84874e-06
1.84858e-06
1.84808e-06
1.84761e-06
1.84744e-06
1.84766e-06
1.84815e-06
1.84863e-06
1.84874e-06
1.84873e-06
1.84873e-06
1.84846e-06
1.84812e-06
1.84798e-06
1.84815e-06
1.8485e-06
1.84874e-06
1.84873e-06
1.84853e-06
1.84863e-06
1.84873e-06
1.84861e-06
1.84852e-06
1.84863e-06
1.84874e-06
1.84859e-06
1.84875e-06
1.84872e-06
1.84861e-06
1.84874e-06
1.84873e-06
1.81563e-06
1.81364e-06
1.81307e-06
1.81185e-06
1.81186e-06
1.8118e-06
1.8118e-06
1.81311e-06
1.81337e-06
1.81307e-06
1.81101e-06
1.80836e-06
1.80833e-06
1.80833e-06
1.80836e-06
1.81139e-06
1.81165e-06
1.81185e-06
1.80836e-06
1.8083e-06
1.80837e-06
1.80837e-06
1.8083e-06
1.80836e-06
1.81177e-06
1.81303e-06
1.81564e-06
1.81186e-06
1.80833e-06
1.80837e-06
1.80846e-06
1.80846e-06
1.80837e-06
1.80833e-06
1.81176e-06
1.8134e-06
1.81364e-06
1.8118e-06
1.80833e-06
1.80837e-06
1.80846e-06
1.80846e-06
1.80837e-06
1.80833e-06
1.81194e-06
1.81198e-06
1.8118e-06
1.80836e-06
1.8083e-06
1.80837e-06
1.80837e-06
1.8083e-06
1.80836e-06
1.81171e-06
1.81293e-06
1.81312e-06
1.8114e-06
1.80836e-06
1.80833e-06
1.80833e-06
1.80836e-06
1.81162e-06
1.8118e-06
1.81326e-06
1.81337e-06
1.81164e-06
1.81177e-06
1.81176e-06
1.81194e-06
1.81171e-06
1.8118e-06
1.81344e-06
1.81303e-06
1.8134e-06
1.81198e-06
1.81293e-06
1.81326e-06
1.79551e-06
1.79534e-06
1.79517e-06
1.79305e-06
1.79296e-06
1.79292e-06
1.79304e-06
1.79513e-06
1.79539e-06
1.79517e-06
1.79234e-06
1.7894e-06
1.78934e-06
1.78934e-06
1.7894e-06
1.79285e-06
1.7935e-06
1.79306e-06
1.7894e-06
1.78914e-06
1.78918e-06
1.78918e-06
1.78914e-06
1.7894e-06
1.79365e-06
1.79561e-06
1.79552e-06
1.79296e-06
1.78934e-06
1.78918e-06
1.78921e-06
1.78921e-06
1.78918e-06
1.78934e-06
1.7937e-06
1.79536e-06
1.79535e-06
1.79292e-06
1.78935e-06
1.78918e-06
1.78921e-06
1.78921e-06
1.78918e-06
1.78934e-06
1.79365e-06
1.79363e-06
1.79304e-06
1.78941e-06
1.78914e-06
1.78918e-06
1.78918e-06
1.78914e-06
1.78941e-06
1.7937e-06
1.7957e-06
1.79513e-06
1.79285e-06
1.78941e-06
1.78934e-06
1.78934e-06
1.7894e-06
1.79332e-06
1.79362e-06
1.79561e-06
1.79539e-06
1.7935e-06
1.79365e-06
1.7937e-06
1.79365e-06
1.7937e-06
1.79361e-06
1.7955e-06
1.79561e-06
1.79537e-06
1.79363e-06
1.7957e-06
1.79561e-06
1.77654e-06
1.77637e-06
1.77623e-06
1.77406e-06
1.77396e-06
1.77387e-06
1.77406e-06
1.77617e-06
1.77644e-06
1.77623e-06
1.77333e-06
1.77037e-06
1.77034e-06
1.77034e-06
1.77037e-06
1.7738e-06
1.77457e-06
1.77406e-06
1.77037e-06
1.77025e-06
1.77026e-06
1.77026e-06
1.77025e-06
1.77037e-06
1.77468e-06
1.77663e-06
1.77654e-06
1.77396e-06
1.77034e-06
1.77026e-06
1.77027e-06
1.77027e-06
1.77026e-06
1.77034e-06
1.77474e-06
1.77638e-06
1.77637e-06
1.77388e-06
1.77034e-06
1.77026e-06
1.77027e-06
1.77027e-06
1.77026e-06
1.77034e-06
1.77471e-06
1.77469e-06
1.77406e-06
1.77037e-06
1.77025e-06
1.77026e-06
1.77026e-06
1.77025e-06
1.77037e-06
1.77472e-06
1.7767e-06
1.77617e-06
1.7738e-06
1.77037e-06
1.77034e-06
1.77034e-06
1.77037e-06
1.77447e-06
1.77469e-06
1.77666e-06
1.77644e-06
1.77457e-06
1.77468e-06
1.77474e-06
1.77471e-06
1.77472e-06
1.77469e-06
1.77667e-06
1.77664e-06
1.77638e-06
1.77469e-06
1.7767e-06
1.77666e-06
1.75754e-06
1.75737e-06
1.75721e-06
1.75504e-06
1.75493e-06
1.75484e-06
1.75503e-06
1.75716e-06
1.75742e-06
1.75721e-06
1.75431e-06
1.75133e-06
1.75132e-06
1.75132e-06
1.75133e-06
1.75475e-06
1.75556e-06
1.75504e-06
1.75133e-06
1.7513e-06
1.7513e-06
1.7513e-06
1.7513e-06
1.75133e-06
1.75568e-06
1.75763e-06
1.75754e-06
1.75493e-06
1.75132e-06
1.7513e-06
1.7513e-06
1.7513e-06
1.7513e-06
1.75132e-06
1.75576e-06
1.75741e-06
1.75737e-06
1.75484e-06
1.75132e-06
1.7513e-06
1.7513e-06
1.7513e-06
1.7513e-06
1.75132e-06
1.75574e-06
1.75571e-06
1.75503e-06
1.75133e-06
1.7513e-06
1.7513e-06
1.7513e-06
1.7513e-06
1.75133e-06
1.75573e-06
1.75773e-06
1.75716e-06
1.75474e-06
1.75133e-06
1.75132e-06
1.75132e-06
1.75133e-06
1.7555e-06
1.7557e-06
1.75766e-06
1.75742e-06
1.75556e-06
1.75568e-06
1.75576e-06
1.75574e-06
1.75573e-06
1.7557e-06
1.75764e-06
1.75763e-06
1.75741e-06
1.75571e-06
1.75773e-06
1.75766e-06
1.73853e-06
1.73836e-06
1.73818e-06
1.73601e-06
1.7359e-06
1.73581e-06
1.736e-06
1.73814e-06
1.7384e-06
1.73818e-06
1.73529e-06
1.73231e-06
1.7323e-06
1.7323e-06
1.73231e-06
1.73571e-06
1.73654e-06
1.73601e-06
1.73231e-06
1.7323e-06
1.7323e-06
1.7323e-06
1.7323e-06
1.73231e-06
1.73665e-06
1.73861e-06
1.73853e-06
1.73591e-06
1.7323e-06
1.7323e-06
1.7323e-06
1.7323e-06
1.7323e-06
1.7323e-06
1.73675e-06
1.7384e-06
1.73836e-06
1.73581e-06
1.7323e-06
1.7323e-06
1.7323e-06
1.7323e-06
1.7323e-06
1.7323e-06
1.73673e-06
1.7367e-06
1.73601e-06
1.73231e-06
1.7323e-06
1.7323e-06
1.7323e-06
1.7323e-06
1.73231e-06
1.73671e-06
1.73872e-06
1.73814e-06
1.73571e-06
1.73231e-06
1.7323e-06
1.7323e-06
1.73231e-06
1.7365e-06
1.73669e-06
1.73863e-06
1.7384e-06
1.73654e-06
1.73665e-06
1.73675e-06
1.73673e-06
1.73672e-06
1.73669e-06
1.73863e-06
1.73861e-06
1.7384e-06
1.7367e-06
1.73872e-06
1.73863e-06
1.71951e-06
1.71934e-06
1.71916e-06
1.71699e-06
1.71688e-06
1.71679e-06
1.71698e-06
1.71912e-06
1.71938e-06
1.71916e-06
1.71627e-06
1.71329e-06
1.71328e-06
1.71328e-06
1.71329e-06
1.71668e-06
1.71751e-06
1.71699e-06
1.71329e-06
1.71328e-06
1.71328e-06
1.71328e-06
1.71328e-06
1.71329e-06
1.71763e-06
1.71959e-06
1.71951e-06
1.71688e-06
1.71328e-06
1.71328e-06
1.71328e-06
1.71328e-06
1.71328e-06
1.71328e-06
1.71773e-06
1.71938e-06
1.71934e-06
1.71679e-06
1.71328e-06
1.71328e-06
1.71328e-06
1.71328e-06
1.71328e-06
1.71328e-06
1.71771e-06
1.71768e-06
1.71698e-06
1.71329e-06
1.71328e-06
1.71328e-06
1.71328e-06
1.71328e-06
1.71329e-06
1.7177e-06
1.7197e-06
1.71912e-06
1.71668e-06
1.71329e-06
1.71328e-06
1.71328e-06
1.71329e-06
1.71748e-06
1.71767e-06
1.71961e-06
1.71938e-06
1.71751e-06
1.71763e-06
1.71773e-06
1.71771e-06
1.71769e-06
1.71767e-06
1.7196e-06
1.71959e-06
1.71938e-06
1.71768e-06
1.7197e-06
1.71961e-06
1.70049e-06
1.70032e-06
1.70014e-06
1.69798e-06
1.69787e-06
1.69777e-06
1.69796e-06
1.7001e-06
1.70036e-06
1.70014e-06
1.69725e-06
1.69427e-06
1.69427e-06
1.69427e-06
1.69427e-06
1.69766e-06
1.69849e-06
1.69797e-06
1.69427e-06
1.69427e-06
1.69427e-06
1.69427e-06
1.69427e-06
1.69427e-06
1.69861e-06
1.70057e-06
1.70049e-06
1.69786e-06
1.69427e-06
1.69427e-06
1.69427e-06
1.69427e-06
1.69427e-06
1.69427e-06
1.69871e-06
1.70036e-06
1.70032e-06
1.69777e-06
1.69427e-06
1.69427e-06
1.69427e-06
1.69427e-06
1.69427e-06
1.69427e-06
1.69869e-06
1.69867e-06
1.69796e-06
1.69427e-06
1.69427e-06
1.69427e-06
1.69427e-06
1.69427e-06
1.69427e-06
1.69868e-06
1.70068e-06
1.7001e-06
1.69766e-06
1.69427e-06
1.69427e-06
1.69427e-06
1.69427e-06
1.69846e-06
1.69865e-06
1.70059e-06
1.70036e-06
1.6985e-06
1.69861e-06
1.69871e-06
1.69869e-06
1.69868e-06
1.69865e-06
1.70058e-06
1.70057e-06
1.70036e-06
1.69867e-06
1.70068e-06
1.70059e-06
1.68147e-06
1.6813e-06
1.68112e-06
1.67896e-06
1.67885e-06
1.67876e-06
1.67894e-06
1.68108e-06
1.68134e-06
1.68112e-06
1.67823e-06
1.67525e-06
1.67525e-06
1.67525e-06
1.67525e-06
1.67864e-06
1.67948e-06
1.67896e-06
1.67525e-06
1.67525e-06
1.67525e-06
1.67525e-06
1.67525e-06
1.67525e-06
1.67959e-06
1.68156e-06
1.68147e-06
1.67885e-06
1.67525e-06
1.67525e-06
1.67525e-06
1.67525e-06
1.67525e-06
1.67525e-06
1.67969e-06
1.68135e-06
1.6813e-06
1.67876e-06
1.67525e-06
1.67525e-06
1.67525e-06
1.67525e-06
1.67525e-06
1.67525e-06
1.67968e-06
1.67965e-06
1.67895e-06
1.67525e-06
1.67525e-06
1.67525e-06
1.67525e-06
1.67525e-06
1.67525e-06
1.67966e-06
1.68166e-06
1.68108e-06
1.67864e-06
1.67525e-06
1.67525e-06
1.67525e-06
1.67525e-06
1.67945e-06
1.67963e-06
1.68157e-06
1.68134e-06
1.67948e-06
1.67959e-06
1.67969e-06
1.67967e-06
1.67966e-06
1.67963e-06
1.68156e-06
1.68155e-06
1.68135e-06
1.67965e-06
1.68166e-06
1.68158e-06
1.66245e-06
1.66228e-06
1.66211e-06
1.65994e-06
1.65983e-06
1.65974e-06
1.65993e-06
1.66206e-06
1.66232e-06
1.6621e-06
1.65922e-06
1.65623e-06
1.65623e-06
1.65623e-06
1.65623e-06
1.65962e-06
1.66046e-06
1.65994e-06
1.65623e-06
1.65623e-06
1.65623e-06
1.65623e-06
1.65623e-06
1.65623e-06
1.66057e-06
1.66254e-06
1.66245e-06
1.65983e-06
1.65623e-06
1.65623e-06
1.65623e-06
1.65623e-06
1.65623e-06
1.65623e-06
1.66067e-06
1.66233e-06
1.66228e-06
1.65974e-06
1.65623e-06
1.65623e-06
1.65623e-06
1.65623e-06
1.65623e-06
1.65623e-06
1.66066e-06
1.66063e-06
1.65993e-06
1.65623e-06
1.65623e-06
1.65623e-06
1.65623e-06
1.65623e-06
1.65623e-06
1.66064e-06
1.66265e-06
1.66206e-06
1.65962e-06
1.65623e-06
1.65623e-06
1.65623e-06
1.65623e-06
1.66043e-06
1.66062e-06
1.66256e-06
1.66232e-06
1.66046e-06
1.66057e-06
1.66067e-06
1.66065e-06
1.66064e-06
1.66062e-06
1.66254e-06
1.66254e-06
1.66233e-06
1.66063e-06
1.66265e-06
1.66256e-06
1.64343e-06
1.64326e-06
1.64309e-06
1.64092e-06
1.64081e-06
1.64072e-06
1.64091e-06
1.64304e-06
1.6433e-06
1.64309e-06
1.6402e-06
1.63721e-06
1.63721e-06
1.63721e-06
1.63721e-06
1.6406e-06
1.64144e-06
1.64092e-06
1.63721e-06
1.63721e-06
1.63721e-06
1.63721e-06
1.63721e-06
1.63721e-06
1.64155e-06
1.64352e-06
1.64343e-06
1.64081e-06
1.63721e-06
1.63721e-06
1.63721e-06
1.63721e-06
1.63721e-06
1.63721e-06
1.64166e-06
1.64331e-06
1.64326e-06
1.64072e-06
1.63721e-06
1.63721e-06
1.63721e-06
1.63721e-06
1.63721e-06
1.63721e-06
1.64164e-06
1.64161e-06
1.64091e-06
1.63721e-06
1.63721e-06
1.63721e-06
1.63721e-06
1.63721e-06
1.63721e-06
1.64162e-06
1.64363e-06
1.64304e-06
1.6406e-06
1.63721e-06
1.63721e-06
1.63721e-06
1.63721e-06
1.64141e-06
1.6416e-06
1.64354e-06
1.6433e-06
1.64144e-06
1.64155e-06
1.64165e-06
1.64164e-06
1.64162e-06
1.6416e-06
1.64352e-06
1.64352e-06
1.64331e-06
1.64161e-06
1.64363e-06
1.64354e-06
1.62442e-06
1.62425e-06
1.62407e-06
1.6219e-06
1.62179e-06
1.6217e-06
1.62189e-06
1.62402e-06
1.62428e-06
1.62407e-06
1.62118e-06
1.61819e-06
1.61819e-06
1.61819e-06
1.61819e-06
1.62159e-06
1.62242e-06
1.6219e-06
1.61819e-06
1.61819e-06
1.61819e-06
1.61819e-06
1.61819e-06
1.61819e-06
1.62254e-06
1.6245e-06
1.62442e-06
1.62179e-06
1.61819e-06
1.61819e-06
1.61819e-06
1.61819e-06
1.61819e-06
1.61819e-06
1.62264e-06
1.62429e-06
1.62425e-06
1.6217e-06
1.61819e-06
1.61819e-06
1.61819e-06
1.61819e-06
1.61819e-06
1.61819e-06
1.62262e-06
1.62259e-06
1.62189e-06
1.61819e-06
1.61819e-06
1.61819e-06
1.61819e-06
1.61819e-06
1.61819e-06
1.62261e-06
1.62461e-06
1.62402e-06
1.62159e-06
1.61819e-06
1.61819e-06
1.61819e-06
1.61819e-06
1.62239e-06
1.62258e-06
1.62452e-06
1.62428e-06
1.62242e-06
1.62254e-06
1.62264e-06
1.62262e-06
1.62261e-06
1.62258e-06
1.62451e-06
1.6245e-06
1.62429e-06
1.62259e-06
1.62461e-06
1.62452e-06
1.6054e-06
1.60523e-06
1.60505e-06
1.60288e-06
1.60277e-06
1.60268e-06
1.60287e-06
1.60501e-06
1.60527e-06
1.60505e-06
1.60216e-06
1.59918e-06
1.59918e-06
1.59918e-06
1.59918e-06
1.60257e-06
1.6034e-06
1.60288e-06
1.59918e-06
1.59918e-06
1.59918e-06
1.59918e-06
1.59918e-06
1.59918e-06
1.60352e-06
1.60548e-06
1.6054e-06
1.60277e-06
1.59918e-06
1.59918e-06
1.59918e-06
1.59918e-06
1.59918e-06
1.59918e-06
1.60362e-06
1.60527e-06
1.60523e-06
1.60268e-06
1.59918e-06
1.59918e-06
1.59918e-06
1.59918e-06
1.59918e-06
1.59918e-06
1.6036e-06
1.60358e-06
1.60287e-06
1.59918e-06
1.59918e-06
1.59918e-06
1.59918e-06
1.59918e-06
1.59918e-06
1.60359e-06
1.60559e-06
1.60501e-06
1.60257e-06
1.59918e-06
1.59918e-06
1.59918e-06
1.59918e-06
1.60337e-06
1.60356e-06
1.6055e-06
1.60527e-06
1.60341e-06
1.60352e-06
1.60362e-06
1.6036e-06
1.60359e-06
1.60356e-06
1.60549e-06
1.60548e-06
1.60527e-06
1.60358e-06
1.60559e-06
1.6055e-06
1.58638e-06
1.58621e-06
1.58603e-06
1.58387e-06
1.58376e-06
1.58367e-06
1.58386e-06
1.58599e-06
1.58625e-06
1.58603e-06
1.58315e-06
1.58016e-06
1.58016e-06
1.58016e-06
1.58016e-06
1.58355e-06
1.58439e-06
1.58387e-06
1.58016e-06
1.58016e-06
1.58016e-06
1.58016e-06
1.58016e-06
1.58016e-06
1.5845e-06
1.58647e-06
1.58638e-06
1.58376e-06
1.58016e-06
1.58016e-06
1.58016e-06
1.58016e-06
1.58016e-06
1.58016e-06
1.5846e-06
1.58626e-06
1.58621e-06
1.58367e-06
1.58016e-06
1.58016e-06
1.58016e-06
1.58016e-06
1.58016e-06
1.58016e-06
1.58459e-06
1.58456e-06
1.58386e-06
1.58016e-06
1.58016e-06
1.58016e-06
1.58016e-06
1.58016e-06
1.58016e-06
1.58457e-06
1.58658e-06
1.58599e-06
1.58355e-06
1.58016e-06
1.58016e-06
1.58016e-06
1.58016e-06
1.58436e-06
1.58455e-06
1.58649e-06
1.58625e-06
1.58439e-06
1.5845e-06
1.5846e-06
1.58459e-06
1.58457e-06
1.58455e-06
1.58647e-06
1.58647e-06
1.58626e-06
1.58456e-06
1.58658e-06
1.58649e-06
1.56737e-06
1.5672e-06
1.56702e-06
1.56485e-06
1.56474e-06
1.56465e-06
1.56484e-06
1.56697e-06
1.56723e-06
1.56702e-06
1.56413e-06
1.56114e-06
1.56114e-06
1.56114e-06
1.56114e-06
1.56454e-06
1.56537e-06
1.56485e-06
1.56114e-06
1.56114e-06
1.56114e-06
1.56114e-06
1.56114e-06
1.56114e-06
1.56549e-06
1.56745e-06
1.56737e-06
1.56474e-06
1.56114e-06
1.56114e-06
1.56114e-06
1.56114e-06
1.56114e-06
1.56114e-06
1.56559e-06
1.56724e-06
1.5672e-06
1.56465e-06
1.56114e-06
1.56114e-06
1.56114e-06
1.56114e-06
1.56114e-06
1.56114e-06
1.56557e-06
1.56554e-06
1.56484e-06
1.56114e-06
1.56114e-06
1.56114e-06
1.56114e-06
1.56114e-06
1.56114e-06
1.56556e-06
1.56756e-06
1.56697e-06
1.56454e-06
1.56114e-06
1.56114e-06
1.56114e-06
1.56114e-06
1.56534e-06
1.56553e-06
1.56747e-06
1.56723e-06
1.56537e-06
1.56549e-06
1.56559e-06
1.56557e-06
1.56555e-06
1.56553e-06
1.56746e-06
1.56745e-06
1.56724e-06
1.56554e-06
1.56756e-06
1.56747e-06
1.54835e-06
1.54818e-06
1.548e-06
1.54583e-06
1.54572e-06
1.54563e-06
1.54582e-06
1.54796e-06
1.54822e-06
1.548e-06
1.54511e-06
1.54213e-06
1.54213e-06
1.54213e-06
1.54213e-06
1.54552e-06
1.54635e-06
1.54583e-06
1.54213e-06
1.54213e-06
1.54213e-06
1.54213e-06
1.54213e-06
1.54213e-06
1.54647e-06
1.54843e-06
1.54835e-06
1.54572e-06
1.54213e-06
1.54213e-06
1.54213e-06
1.54213e-06
1.54213e-06
1.54213e-06
1.54657e-06
1.54822e-06
1.54818e-06
1.54563e-06
1.54213e-06
1.54213e-06
1.54213e-06
1.54213e-06
1.54213e-06
1.54213e-06
1.54655e-06
1.54652e-06
1.54582e-06
1.54213e-06
1.54213e-06
1.54213e-06
1.54213e-06
1.54213e-06
1.54213e-06
1.54654e-06
1.54854e-06
1.54796e-06
1.54552e-06
1.54213e-06
1.54213e-06
1.54213e-06
1.54213e-06
1.54632e-06
1.54651e-06
1.54845e-06
1.54822e-06
1.54635e-06
1.54647e-06
1.54657e-06
1.54655e-06
1.54654e-06
1.54651e-06
1.54844e-06
1.54843e-06
1.54822e-06
1.54653e-06
1.54854e-06
1.54845e-06
1.52933e-06
1.52916e-06
1.52898e-06
1.52682e-06
1.52671e-06
1.52662e-06
1.5268e-06
1.52894e-06
1.5292e-06
1.52898e-06
1.52609e-06
1.52311e-06
1.52311e-06
1.52311e-06
1.52311e-06
1.5265e-06
1.52734e-06
1.52681e-06
1.52311e-06
1.52311e-06
1.52311e-06
1.52311e-06
1.52311e-06
1.52311e-06
1.52745e-06
1.52942e-06
1.52933e-06
1.5267e-06
1.52311e-06
1.52311e-06
1.52311e-06
1.52311e-06
1.52311e-06
1.52311e-06
1.52755e-06
1.52921e-06
1.52916e-06
1.52662e-06
1.52311e-06
1.52311e-06
1.52311e-06
1.52311e-06
1.52311e-06
1.52311e-06
1.52754e-06
1.52751e-06
1.5268e-06
1.52311e-06
1.52311e-06
1.52311e-06
1.52311e-06
1.52311e-06
1.52311e-06
1.52752e-06
1.52952e-06
1.52894e-06
1.5265e-06
1.52311e-06
1.52311e-06
1.52311e-06
1.52311e-06
1.52731e-06
1.52749e-06
1.52943e-06
1.5292e-06
1.52734e-06
1.52745e-06
1.52755e-06
1.52753e-06
1.52752e-06
1.52749e-06
1.52942e-06
1.52942e-06
1.52921e-06
1.52751e-06
1.52952e-06
1.52943e-06
1.51031e-06
1.51014e-06
1.50996e-06
1.5078e-06
1.50769e-06
1.5076e-06
1.50779e-06
1.50992e-06
1.51018e-06
1.50996e-06
1.50708e-06
1.50409e-06
1.50409e-06
1.50409e-06
1.50409e-06
1.50748e-06
1.50832e-06
1.5078e-06
1.50409e-06
1.50409e-06
1.50409e-06
1.50409e-06
1.50409e-06
1.50409e-06
1.50843e-06
1.5104e-06
1.51031e-06
1.50769e-06
1.50409e-06
1.50409e-06
1.50409e-06
1.50409e-06
1.50409e-06
1.50409e-06
1.50853e-06
1.51019e-06
1.51014e-06
1.5076e-06
1.50409e-06
1.50409e-06
1.50409e-06
1.50409e-06
1.50409e-06
1.50409e-06
1.50852e-06
1.50849e-06
1.50779e-06
1.50409e-06
1.50409e-06
1.50409e-06
1.50409e-06
1.50409e-06
1.50409e-06
1.5085e-06
1.51051e-06
1.50992e-06
1.50748e-06
1.50409e-06
1.50409e-06
1.50409e-06
1.50409e-06
1.50829e-06
1.50848e-06
1.51042e-06
1.51018e-06
1.50832e-06
1.50843e-06
1.50853e-06
1.50852e-06
1.5085e-06
1.50848e-06
1.5104e-06
1.5104e-06
1.51019e-06
1.50849e-06
1.51051e-06
1.51042e-06
1.49129e-06
1.49112e-06
1.49095e-06
1.48878e-06
1.48867e-06
1.48858e-06
1.48877e-06
1.4909e-06
1.49116e-06
1.49095e-06
1.48806e-06
1.48507e-06
1.48507e-06
1.48507e-06
1.48507e-06
1.48846e-06
1.4893e-06
1.48878e-06
1.48507e-06
1.48507e-06
1.48507e-06
1.48507e-06
1.48507e-06
1.48507e-06
1.48941e-06
1.49138e-06
1.49129e-06
1.48867e-06
1.48507e-06
1.48507e-06
1.48507e-06
1.48507e-06
1.48507e-06
1.48507e-06
1.48952e-06
1.49117e-06
1.49112e-06
1.48858e-06
1.48507e-06
1.48507e-06
1.48507e-06
1.48507e-06
1.48507e-06
1.48507e-06
1.4895e-06
1.48947e-06
1.48877e-06
1.48507e-06
1.48507e-06
1.48507e-06
1.48507e-06
1.48507e-06
1.48507e-06
1.48948e-06
1.49149e-06
1.4909e-06
1.48846e-06
1.48507e-06
1.48507e-06
1.48507e-06
1.48507e-06
1.48927e-06
1.48946e-06
1.4914e-06
1.49116e-06
1.4893e-06
1.48941e-06
1.48951e-06
1.4895e-06
1.48948e-06
1.48946e-06
1.49138e-06
1.49138e-06
1.49117e-06
1.48947e-06
1.49149e-06
1.4914e-06
1.47228e-06
1.47211e-06
1.47193e-06
1.46976e-06
1.46965e-06
1.46956e-06
1.46975e-06
1.47188e-06
1.47214e-06
1.47193e-06
1.46904e-06
1.46605e-06
1.46605e-06
1.46605e-06
1.46605e-06
1.46945e-06
1.47028e-06
1.46976e-06
1.46605e-06
1.46605e-06
1.46605e-06
1.46605e-06
1.46605e-06
1.46605e-06
1.47039e-06
1.47236e-06
1.47228e-06
1.46965e-06
1.46605e-06
1.46605e-06
1.46605e-06
1.46605e-06
1.46605e-06
1.46605e-06
1.4705e-06
1.47215e-06
1.47211e-06
1.46956e-06
1.46605e-06
1.46605e-06
1.46605e-06
1.46605e-06
1.46605e-06
1.46605e-06
1.47048e-06
1.47045e-06
1.46975e-06
1.46605e-06
1.46605e-06
1.46605e-06
1.46605e-06
1.46605e-06
1.46605e-06
1.47046e-06
1.47247e-06
1.47188e-06
1.46945e-06
1.46605e-06
1.46605e-06
1.46605e-06
1.46605e-06
1.47025e-06
1.47044e-06
1.47238e-06
1.47214e-06
1.47028e-06
1.47039e-06
1.47049e-06
1.47048e-06
1.47046e-06
1.47044e-06
1.47236e-06
1.47236e-06
1.47215e-06
1.47045e-06
1.47247e-06
1.47238e-06
1.45326e-06
1.45309e-06
1.45291e-06
1.45074e-06
1.45063e-06
1.45054e-06
1.45073e-06
1.45286e-06
1.45312e-06
1.45291e-06
1.45002e-06
1.44703e-06
1.44703e-06
1.44703e-06
1.44703e-06
1.45043e-06
1.45126e-06
1.45074e-06
1.44703e-06
1.44703e-06
1.44703e-06
1.44703e-06
1.44703e-06
1.44703e-06
1.45138e-06
1.45334e-06
1.45326e-06
1.45063e-06
1.44703e-06
1.44703e-06
1.44703e-06
1.44703e-06
1.44703e-06
1.44703e-06
1.45148e-06
1.45313e-06
1.45309e-06
1.45054e-06
1.44703e-06
1.44703e-06
1.44703e-06
1.44703e-06
1.44703e-06
1.44703e-06
1.45146e-06
1.45143e-06
1.45073e-06
1.44703e-06
1.44703e-06
1.44703e-06
1.44703e-06
1.44703e-06
1.44703e-06
1.45145e-06
1.45345e-06
1.45286e-06
1.45043e-06
1.44703e-06
1.44703e-06
1.44703e-06
1.44703e-06
1.45123e-06
1.45142e-06
1.45336e-06
1.45312e-06
1.45126e-06
1.45138e-06
1.45148e-06
1.45146e-06
1.45144e-06
1.45142e-06
1.45335e-06
1.45334e-06
1.45313e-06
1.45143e-06
1.45345e-06
1.45336e-06
1.43424e-06
1.43407e-06
1.43389e-06
1.43172e-06
1.43161e-06
1.43152e-06
1.43171e-06
1.43384e-06
1.4341e-06
1.43389e-06
1.431e-06
1.42801e-06
1.42801e-06
1.42801e-06
1.42801e-06
1.43141e-06
1.43224e-06
1.43172e-06
1.42801e-06
1.42801e-06
1.42801e-06
1.42801e-06
1.42801e-06
1.42801e-06
1.43236e-06
1.43432e-06
1.43424e-06
1.43161e-06
1.42801e-06
1.42801e-06
1.42801e-06
1.42801e-06
1.42801e-06
1.42801e-06
1.43246e-06
1.43411e-06
1.43407e-06
1.43152e-06
1.42801e-06
1.42801e-06
1.42801e-06
1.42801e-06
1.42801e-06
1.42801e-06
1.43244e-06
1.43241e-06
1.43171e-06
1.42801e-06
1.42801e-06
1.42801e-06
1.42801e-06
1.42801e-06
1.42801e-06
1.43243e-06
1.43443e-06
1.43384e-06
1.43141e-06
1.42801e-06
1.42801e-06
1.42801e-06
1.42801e-06
1.43221e-06
1.4324e-06
1.43434e-06
1.4341e-06
1.43224e-06
1.43236e-06
1.43246e-06
1.43244e-06
1.43242e-06
1.4324e-06
1.43433e-06
1.43432e-06
1.43411e-06
1.43241e-06
1.43443e-06
1.43434e-06
1.41522e-06
1.41505e-06
1.41487e-06
1.4127e-06
1.41259e-06
1.4125e-06
1.41269e-06
1.41482e-06
1.41509e-06
1.41487e-06
1.41198e-06
1.40899e-06
1.40899e-06
1.40899e-06
1.40899e-06
1.41239e-06
1.41322e-06
1.4127e-06
1.40899e-06
1.40899e-06
1.40899e-06
1.40899e-06
1.40899e-06
1.40899e-06
1.41334e-06
1.4153e-06
1.41522e-06
1.41259e-06
1.40899e-06
1.40899e-06
1.40899e-06
1.40899e-06
1.40899e-06
1.40899e-06
1.41344e-06
1.41509e-06
1.41505e-06
1.4125e-06
1.40899e-06
1.40899e-06
1.40899e-06
1.40899e-06
1.40899e-06
1.40899e-06
1.41342e-06
1.41339e-06
1.41269e-06
1.40899e-06
1.40899e-06
1.40899e-06
1.40899e-06
1.40899e-06
1.40899e-06
1.41341e-06
1.41541e-06
1.41483e-06
1.41239e-06
1.40899e-06
1.40899e-06
1.40899e-06
1.40899e-06
1.41319e-06
1.41338e-06
1.41532e-06
1.41509e-06
1.41322e-06
1.41334e-06
1.41344e-06
1.41342e-06
1.41341e-06
1.41338e-06
1.41531e-06
1.4153e-06
1.41509e-06
1.41339e-06
1.41541e-06
1.41532e-06
1.3962e-06
1.39603e-06
1.39585e-06
1.39368e-06
1.39357e-06
1.39348e-06
1.39367e-06
1.39581e-06
1.39607e-06
1.39585e-06
1.39296e-06
1.38998e-06
1.38998e-06
1.38998e-06
1.38998e-06
1.39337e-06
1.3942e-06
1.39368e-06
1.38998e-06
1.38998e-06
1.38998e-06
1.38998e-06
1.38998e-06
1.38998e-06
1.39432e-06
1.39628e-06
1.3962e-06
1.39357e-06
1.38998e-06
1.38998e-06
1.38998e-06
1.38998e-06
1.38998e-06
1.38998e-06
1.39442e-06
1.39607e-06
1.39603e-06
1.39348e-06
1.38998e-06
1.38998e-06
1.38998e-06
1.38998e-06
1.38998e-06
1.38998e-06
1.3944e-06
1.39437e-06
1.39367e-06
1.38998e-06
1.38998e-06
1.38998e-06
1.38998e-06
1.38998e-06
1.38998e-06
1.39439e-06
1.39639e-06
1.39581e-06
1.39337e-06
1.38998e-06
1.38998e-06
1.38998e-06
1.38998e-06
1.39417e-06
1.39436e-06
1.3963e-06
1.39607e-06
1.3942e-06
1.39432e-06
1.39442e-06
1.3944e-06
1.39439e-06
1.39436e-06
1.39629e-06
1.39628e-06
1.39607e-06
1.39437e-06
1.39639e-06
1.3963e-06
1.37718e-06
1.37701e-06
1.37683e-06
1.37467e-06
1.37456e-06
1.37446e-06
1.37466e-06
1.37679e-06
1.37705e-06
1.37683e-06
1.37394e-06
1.37096e-06
1.37096e-06
1.37096e-06
1.37096e-06
1.37435e-06
1.37519e-06
1.37466e-06
1.37096e-06
1.37096e-06
1.37096e-06
1.37096e-06
1.37096e-06
1.37096e-06
1.3753e-06
1.37727e-06
1.37718e-06
1.37456e-06
1.37096e-06
1.37096e-06
1.37096e-06
1.37096e-06
1.37096e-06
1.37096e-06
1.3754e-06
1.37706e-06
1.37701e-06
1.37447e-06
1.37096e-06
1.37096e-06
1.37096e-06
1.37096e-06
1.37096e-06
1.37096e-06
1.37539e-06
1.37536e-06
1.37465e-06
1.37096e-06
1.37096e-06
1.37096e-06
1.37096e-06
1.37096e-06
1.37096e-06
1.37537e-06
1.37737e-06
1.37679e-06
1.37435e-06
1.37096e-06
1.37096e-06
1.37096e-06
1.37096e-06
1.37516e-06
1.37534e-06
1.37728e-06
1.37705e-06
1.37519e-06
1.3753e-06
1.3754e-06
1.37538e-06
1.37537e-06
1.37534e-06
1.37727e-06
1.37727e-06
1.37706e-06
1.37536e-06
1.37737e-06
1.37728e-06
1.35816e-06
1.35799e-06
1.35781e-06
1.35565e-06
1.35554e-06
1.35545e-06
1.35564e-06
1.35777e-06
1.35803e-06
1.35781e-06
1.35493e-06
1.35194e-06
1.35194e-06
1.35194e-06
1.35194e-06
1.35533e-06
1.35617e-06
1.35565e-06
1.35194e-06
1.35194e-06
1.35194e-06
1.35194e-06
1.35194e-06
1.35194e-06
1.35628e-06
1.35825e-06
1.35816e-06
1.35554e-06
1.35194e-06
1.35194e-06
1.35194e-06
1.35194e-06
1.35194e-06
1.35194e-06
1.35638e-06
1.35804e-06
1.35799e-06
1.35545e-06
1.35194e-06
1.35194e-06
1.35194e-06
1.35194e-06
1.35194e-06
1.35194e-06
1.35637e-06
1.35634e-06
1.35564e-06
1.35194e-06
1.35194e-06
1.35194e-06
1.35194e-06
1.35194e-06
1.35194e-06
1.35635e-06
1.35836e-06
1.35777e-06
1.35533e-06
1.35194e-06
1.35194e-06
1.35194e-06
1.35194e-06
1.35614e-06
1.35633e-06
1.35827e-06
1.35803e-06
1.35617e-06
1.35628e-06
1.35638e-06
1.35636e-06
1.35635e-06
1.35633e-06
1.35825e-06
1.35825e-06
1.35804e-06
1.35634e-06
1.35835e-06
1.35827e-06
1.33914e-06
1.33897e-06
1.33879e-06
1.33663e-06
1.33652e-06
1.33643e-06
1.33662e-06
1.33875e-06
1.33901e-06
1.33879e-06
1.33591e-06
1.33292e-06
1.33292e-06
1.33292e-06
1.33292e-06
1.33631e-06
1.33715e-06
1.33663e-06
1.33292e-06
1.33292e-06
1.33292e-06
1.33292e-06
1.33292e-06
1.33292e-06
1.33726e-06
1.33923e-06
1.33914e-06
1.33652e-06
1.33292e-06
1.33292e-06
1.33292e-06
1.33292e-06
1.33292e-06
1.33292e-06
1.33736e-06
1.33902e-06
1.33897e-06
1.33643e-06
1.33292e-06
1.33292e-06
1.33292e-06
1.33292e-06
1.33292e-06
1.33292e-06
1.33735e-06
1.33732e-06
1.33662e-06
1.33292e-06
1.33292e-06
1.33292e-06
1.33292e-06
1.33292e-06
1.33292e-06
1.33733e-06
1.33934e-06
1.33875e-06
1.33631e-06
1.33292e-06
1.33292e-06
1.33292e-06
1.33292e-06
1.33712e-06
1.33731e-06
1.33925e-06
1.33901e-06
1.33715e-06
1.33726e-06
1.33736e-06
1.33735e-06
1.33733e-06
1.33731e-06
1.33923e-06
1.33923e-06
1.33902e-06
1.33732e-06
1.33934e-06
1.33925e-06
1.32012e-06
1.31995e-06
1.31977e-06
1.31761e-06
1.3175e-06
1.31741e-06
1.3176e-06
1.31973e-06
1.31999e-06
1.31978e-06
1.31689e-06
1.3139e-06
1.3139e-06
1.3139e-06
1.3139e-06
1.31729e-06
1.31813e-06
1.31761e-06
1.3139e-06
1.3139e-06
1.3139e-06
1.3139e-06
1.3139e-06
1.3139e-06
1.31824e-06
1.32021e-06
1.32012e-06
1.3175e-06
1.3139e-06
1.3139e-06
1.3139e-06
1.3139e-06
1.3139e-06
1.3139e-06
1.31834e-06
1.32e-06
1.31995e-06
1.31741e-06
1.3139e-06
1.3139e-06
1.3139e-06
1.3139e-06
1.3139e-06
1.3139e-06
1.31833e-06
1.3183e-06
1.3176e-06
1.3139e-06
1.3139e-06
1.3139e-06
1.3139e-06
1.3139e-06
1.3139e-06
1.31831e-06
1.32032e-06
1.31973e-06
1.31729e-06
1.3139e-06
1.3139e-06
1.3139e-06
1.3139e-06
1.3181e-06
1.31829e-06
1.32023e-06
1.31999e-06
1.31813e-06
1.31824e-06
1.31834e-06
1.31833e-06
1.31831e-06
1.31829e-06
1.32021e-06
1.32021e-06
1.32e-06
1.3183e-06
1.32032e-06
1.32023e-06
1.3011e-06
1.30093e-06
1.30076e-06
1.29859e-06
1.29848e-06
1.29839e-06
1.29858e-06
1.30071e-06
1.30097e-06
1.30076e-06
1.29787e-06
1.29488e-06
1.29488e-06
1.29488e-06
1.29488e-06
1.29827e-06
1.29911e-06
1.29859e-06
1.29488e-06
1.29488e-06
1.29488e-06
1.29488e-06
1.29488e-06
1.29488e-06
1.29922e-06
1.30119e-06
1.3011e-06
1.29848e-06
1.29488e-06
1.29488e-06
1.29488e-06
1.29488e-06
1.29488e-06
1.29488e-06
1.29932e-06
1.30098e-06
1.30093e-06
1.29839e-06
1.29488e-06
1.29488e-06
1.29488e-06
1.29488e-06
1.29488e-06
1.29488e-06
1.29931e-06
1.29928e-06
1.29858e-06
1.29488e-06
1.29488e-06
1.29488e-06
1.29488e-06
1.29488e-06
1.29488e-06
1.29929e-06
1.3013e-06
1.30071e-06
1.29827e-06
1.29488e-06
1.29488e-06
1.29488e-06
1.29488e-06
1.29908e-06
1.29927e-06
1.30121e-06
1.30097e-06
1.29911e-06
1.29922e-06
1.29932e-06
1.29931e-06
1.29929e-06
1.29927e-06
1.30119e-06
1.30119e-06
1.30098e-06
1.29928e-06
1.3013e-06
1.30121e-06
1.28209e-06
1.28191e-06
1.28174e-06
1.27957e-06
1.27946e-06
1.27937e-06
1.27956e-06
1.28169e-06
1.28195e-06
1.28174e-06
1.27885e-06
1.27586e-06
1.27586e-06
1.27586e-06
1.27586e-06
1.27925e-06
1.28009e-06
1.27957e-06
1.27586e-06
1.27586e-06
1.27586e-06
1.27586e-06
1.27586e-06
1.27586e-06
1.2802e-06
1.28217e-06
1.28208e-06
1.27946e-06
1.27586e-06
1.27586e-06
1.27586e-06
1.27586e-06
1.27586e-06
1.27586e-06
1.28031e-06
1.28196e-06
1.28192e-06
1.27937e-06
1.27586e-06
1.27586e-06
1.27586e-06
1.27586e-06
1.27586e-06
1.27586e-06
1.28029e-06
1.28026e-06
1.27956e-06
1.27586e-06
1.27586e-06
1.27586e-06
1.27586e-06
1.27586e-06
1.27586e-06
1.28027e-06
1.28228e-06
1.28169e-06
1.27925e-06
1.27586e-06
1.27586e-06
1.27586e-06
1.27586e-06
1.28006e-06
1.28025e-06
1.28219e-06
1.28195e-06
1.28009e-06
1.2802e-06
1.2803e-06
1.28029e-06
1.28027e-06
1.28025e-06
1.28217e-06
1.28217e-06
1.28196e-06
1.28026e-06
1.28228e-06
1.28219e-06
1.26307e-06
1.2629e-06
1.26272e-06
1.26055e-06
1.26044e-06
1.26035e-06
1.26054e-06
1.26267e-06
1.26293e-06
1.26272e-06
1.25983e-06
1.25684e-06
1.25684e-06
1.25684e-06
1.25684e-06
1.26023e-06
1.26107e-06
1.26055e-06
1.25684e-06
1.25684e-06
1.25684e-06
1.25684e-06
1.25684e-06
1.25684e-06
1.26118e-06
1.26315e-06
1.26307e-06
1.26044e-06
1.25684e-06
1.25684e-06
1.25684e-06
1.25684e-06
1.25684e-06
1.25684e-06
1.26129e-06
1.26294e-06
1.2629e-06
1.26035e-06
1.25684e-06
1.25684e-06
1.25684e-06
1.25684e-06
1.25684e-06
1.25684e-06
1.26127e-06
1.26124e-06
1.26054e-06
1.25684e-06
1.25684e-06
1.25684e-06
1.25684e-06
1.25684e-06
1.25684e-06
1.26125e-06
1.26326e-06
1.26267e-06
1.26024e-06
1.25684e-06
1.25684e-06
1.25684e-06
1.25684e-06
1.26104e-06
1.26123e-06
1.26317e-06
1.26293e-06
1.26107e-06
1.26118e-06
1.26129e-06
1.26127e-06
1.26125e-06
1.26123e-06
1.26316e-06
1.26315e-06
1.26294e-06
1.26124e-06
1.26326e-06
1.26317e-06
1.24405e-06
1.24388e-06
1.2437e-06
1.24153e-06
1.24142e-06
1.24133e-06
1.24152e-06
1.24365e-06
1.24391e-06
1.2437e-06
1.24081e-06
1.23782e-06
1.23782e-06
1.23782e-06
1.23782e-06
1.24122e-06
1.24205e-06
1.24153e-06
1.23782e-06
1.23782e-06
1.23782e-06
1.23782e-06
1.23782e-06
1.23782e-06
1.24217e-06
1.24413e-06
1.24405e-06
1.24142e-06
1.23782e-06
1.23782e-06
1.23782e-06
1.23782e-06
1.23782e-06
1.23782e-06
1.24227e-06
1.24392e-06
1.24388e-06
1.24133e-06
1.23782e-06
1.23782e-06
1.23782e-06
1.23782e-06
1.23782e-06
1.23782e-06
1.24225e-06
1.24222e-06
1.24152e-06
1.23782e-06
1.23782e-06
1.23782e-06
1.23782e-06
1.23782e-06
1.23782e-06
1.24223e-06
1.24424e-06
1.24365e-06
1.24122e-06
1.23782e-06
1.23782e-06
1.23782e-06
1.23782e-06
1.24202e-06