/*--------------------------------*- C++ -*----------------------------------*\
| =========                 |                                                 |
| \\      /  F ield         | OpenFOAM: The Open Source CFD Toolbox           |
|  \\    /   O peration     | Version:  v2012                                 |
|   \\  /    A nd           | Website:  www.openfoam.com                      |
|    \\/     M anipulation  |                                                 |
\*---------------------------------------------------------------------------*/
FoamFile
{
    version     2.0;
    format      ascii;
    class       volScalarField;
    location    "800";
    object      p;
}
// * * * * * * * * * * * * * * * * * * * * * * * * * * * * * * * * * * * * * //

dimensions      [0 2 -2 0 0 0 0];


internalField   nonuniform List<scalar> 
171728
(
0.0035191
0.00351797
0.00351799
0.00351869
0.00348348
0.00348214
0.00348215
0.00348497
0.00344512
0.00344329
0.00344327
0.00344559
0.00340108
0.0033994
0.00339937
0.00340166
0.00335301
0.00335159
0.00335152
0.00335388
0.00330416
0.00330286
0.00330286
0.00330521
0.00325593
0.00325473
0.00325475
0.0032571
0.00320865
0.0032076
0.00320758
0.00320996
0.00316235
0.00316143
0.00316143
0.0031638
0.00311699
0.00311619
0.00311621
0.00311858
0.00307255
0.00307184
0.00307186
0.00307422
0.00302888
0.00302829
0.00302834
0.00303061
0.00298578
0.0029853
0.00298536
0.00298758
0.00294307
0.00294269
0.00294276
0.00294501
0.00290069
0.00290041
0.00290045
0.00290278
0.00285865
0.00285843
0.00285846
0.00286065
0.00281695
0.00281678
0.00281671
0.00281907
0.00277554
0.00277541
0.00277542
0.00277763
0.00273458
0.00273458
0.0027346
0.00273661
0.00269391
0.00269397
0.0026939
0.00269593
0.00265367
0.00265366
0.00265373
0.00265549
0.00261361
0.00261376
0.00261373
0.00261539
0.00257388
0.00257414
0.00257404
0.00257568
0.0025344
0.00253463
0.00253471
0.00253629
0.0024952
0.00249552
0.00249558
0.00249712
0.00245621
0.00245664
0.00245661
0.00245837
0.00241749
0.0024179
0.00241788
0.00241951
0.00237894
0.00237945
0.00237948
0.00238139
0.0023407
0.00234118
0.00234116
0.00234305
0.00230244
0.00230305
0.00230303
0.00230471
0.00226453
0.00226513
0.00226513
0.00226723
0.00222669
0.00222728
0.00222731
0.00222898
0.00218904
0.00218976
0.00218968
0.00219166
0.00215146
0.00215204
0.00215212
0.00215395
0.00211408
0.00211471
0.00211469
0.0021165
0.00207687
0.00207752
0.00207745
0.00207936
0.00203972
0.00204023
0.00204029
0.00204215
0.00200273
0.00200321
0.00200313
0.00200507
0.00196585
0.00196628
0.00196633
0.00196824
0.00192916
0.0019295
0.00192948
0.00193144
0.0018925
0.0018928
0.00189269
0.00189479
0.00185605
0.00185628
0.00185645
0.00185818
0.00181975
0.0018198
0.00181965
0.00182206
0.00178351
0.00178369
0.00178369
0.00178554
0.00174746
0.00174742
0.00174748
0.0017495
0.00171142
0.00171139
0.00171137
0.00171355
0.00167559
0.00167552
0.00167548
0.00167758
0.00163988
0.00163972
0.00163987
0.00164177
0.00160424
0.00160413
0.00160389
0.00160608
0.00156863
0.00156843
0.00156863
0.00157075
0.00153355
0.0015333
0.00153321
0.00153516
0.00149808
0.00149772
0.0014977
0.00149972
0.00146264
0.00146258
0.00146258
0.00146464
0.00142766
0.00142738
0.00142737
0.00142956
0.00139291
0.00139235
0.00139238
0.0013942
0.00135758
0.00135736
0.00135752
0.00135916
0.00132247
0.00132243
0.00132215
0.00132455
0.00128796
0.00128759
0.0012877
0.00128973
0.00125321
0.0012529
0.00125297
0.00125447
0.00121839
0.00121803
0.00121805
0.00121993
0.00118391
0.0011837
0.00118383
0.00118604
0.00114916
0.00114918
0.00114893
0.00115095
0.00111458
0.00111427
0.00111434
0.0011159
0.00107996
0.00107955
0.00107969
0.00108173
0.00104541
0.00104527
0.00104512
0.00104715
0.00101087
0.0010108
0.00101088
0.00101262
0.000976495
0.000976167
0.000976166
0.000978041
0.000941596
0.000941489
0.000941413
0.000943359
0.000907371
0.000907099
0.000907227
0.000909247
0.000873228
0.00087322
0.000873267
0.000875066
0.000838277
0.000838123
0.000838052
0.000839879
0.000803524
0.0008031
0.000803143
0.000805174
0.00076942
0.000769573
0.000769553
0.000771626
0.000735301
0.000735403
0.000735337
0.000737148
0.000700277
0.000699811
0.000699868
0.000701867
0.00066515
0.000664946
0.000665065
0.000666957
0.000630795
0.000630963
0.000630945
0.000632755
0.000596675
0.000596776
0.000596543
0.000598733
0.000561742
0.000561496
0.000561426
0.000563529
0.000526321
0.000526107
0.00052627
0.000527942
0.000491464
0.000491289
0.000491545
0.000493354
0.000457098
0.000457388
0.000457359
0.000459638
0.000423032
0.000423309
0.000422818
0.000424877
0.000387415
0.000386559
0.000386701
0.000388252
0.000350844
0.000350578
0.000350796
0.000352901
0.000316588
0.000317508
0.000317376
0.000319869
0.000283133
0.000282969
0.000283194
0.000284838
0.000246758
0.000245796
0.000245955
0.000247514
0.000209417
0.00020958
0.00020903
0.000211457
0.000174937
0.000175738
0.000175524
0.000177843
0.00014148
0.000141218
0.00014184
0.000143462
0.000105287
0.000104551
0.000104779
0.000106471
6.7918e-05
6.79414e-05
6.76204e-05
6.97833e-05
3.33234e-05
3.335e-05
3.3036e-05
3.51041e-05
6.0667e-06
7.17201e-06
7.08983e-06
5.22889e-06
0.00352354
0.0035211
0.0035209
0.00352337
0.00352129
0.00352095
0.00352756
0.00352739
0.00352739
0.00352738
0.00352089
0.00352098
0.00352341
0.003521
0.00352097
0.00352341
0.0035186
0.00348968
0.00351803
0.00351801
0.00349144
0.00349151
0.00351866
0.00348973
0.003518
0.00351791
0.00349153
0.00349153
0.00351799
0.00349157
0.00349153
0.00351866
0.00348968
0.003518
0.00349147
0.00349154
0.00348968
0.00348491
0.00345107
0.00348214
0.00348218
0.00345334
0.0034533
0.00348499
0.00345109
0.0034822
0.00348206
0.00345337
0.00345335
0.00348215
0.00345334
0.00345333
0.00348494
0.00345109
0.00348212
0.00345333
0.00345332
0.00345112
0.00344557
0.00340782
0.00344329
0.00344326
0.00341084
0.00341086
0.00344559
0.00340783
0.00344331
0.00344325
0.00341085
0.00341085
0.00344333
0.00341087
0.00341085
0.00344558
0.00340781
0.00344327
0.00341085
0.00341082
0.00340783
0.00340165
0.00336035
0.00339941
0.00339939
0.00336371
0.00336369
0.00340164
0.00336033
0.00339944
0.00339942
0.00336368
0.00336365
0.00339944
0.00336368
0.00336369
0.00340164
0.00336034
0.00339942
0.00336371
0.00336366
0.00336035
0.00335389
0.00331166
0.00335155
0.00335155
0.00331503
0.00331502
0.00335387
0.00331166
0.0033516
0.00335159
0.00331505
0.00331502
0.00335156
0.00331501
0.00331504
0.00335388
0.00331166
0.00335155
0.00331501
0.00331503
0.00331167
0.00330522
0.00326342
0.00330286
0.00330285
0.00326669
0.0032667
0.0033052
0.0032634
0.00330285
0.00330286
0.00326669
0.0032667
0.00330285
0.00326669
0.00326669
0.00330522
0.00326342
0.00330284
0.0032667
0.00326669
0.00326342
0.0032571
0.00321614
0.00325476
0.00325474
0.00321928
0.00321929
0.00325708
0.00321613
0.00325476
0.00325475
0.00321928
0.00321929
0.00325475
0.00321927
0.0032193
0.0032571
0.00321613
0.00325475
0.00321932
0.00321928
0.00321614
0.00320997
0.00316985
0.00320762
0.00320759
0.00317289
0.0031729
0.00320995
0.00316983
0.00320762
0.0032076
0.00317289
0.00317287
0.00320759
0.00317287
0.00317287
0.00320995
0.00316984
0.0032076
0.0031729
0.00317288
0.00316983
0.00316382
0.00312448
0.00316145
0.00316142
0.00312743
0.00312743
0.00316379
0.00312446
0.00316145
0.00316145
0.00312743
0.00312743
0.00316144
0.00312742
0.00312739
0.0031638
0.00312448
0.00316143
0.00312744
0.00312739
0.00312448
0.00311858
0.00308001
0.00311622
0.00311619
0.00308291
0.00308288
0.00311855
0.00308
0.00311621
0.00311621
0.0030829
0.00308288
0.00311623
0.00308287
0.00308285
0.00311858
0.00308001
0.00311622
0.00308288
0.00308284
0.00308
0.00307421
0.00303634
0.00307184
0.00307185
0.00303915
0.00303912
0.00307421
0.0030363
0.00307185
0.00307187
0.00303914
0.00303913
0.00307186
0.00303913
0.00303913
0.00307424
0.00303637
0.00307187
0.0030391
0.00303911
0.0030363
0.00303067
0.00299326
0.0030283
0.0030283
0.00299599
0.00299601
0.00303063
0.00299321
0.00302829
0.00302831
0.00299597
0.002996
0.00302827
0.002996
0.00299604
0.0030307
0.00299329
0.00302829
0.002996
0.00299603
0.00299318
0.00298766
0.00295054
0.00298537
0.00298529
0.00295336
0.00295334
0.00298763
0.00295056
0.00298537
0.00298536
0.00295338
0.00295333
0.00298532
0.00295333
0.00295338
0.00298766
0.00295055
0.0029853
0.00295334
0.00295338
0.00295057
0.00294502
0.00290819
0.00294277
0.00294268
0.00291105
0.00291097
0.00294502
0.00290814
0.00294276
0.00294279
0.00291104
0.002911
0.00294277
0.00291097
0.00291097
0.002945
0.00290818
0.00294278
0.00291097
0.00291095
0.00290829
0.00290274
0.00286614
0.00290047
0.0029004
0.00286898
0.00286889
0.00290267
0.00286609
0.00290045
0.00290049
0.00286899
0.00286882
0.00290046
0.0028689
0.00286887
0.00290268
0.00286616
0.00290045
0.00286879
0.00286885
0.00286605
0.00286072
0.00282435
0.00285846
0.00285845
0.00282727
0.00282714
0.00286066
0.00282447
0.00285842
0.0028585
0.0028273
0.00282707
0.00285839
0.00282714
0.00282717
0.00286073
0.00282439
0.00285841
0.0028271
0.00282716
0.00282446
0.00281902
0.00278292
0.00281686
0.00281679
0.00278578
0.00278575
0.00281908
0.00278285
0.00281684
0.00281674
0.00278584
0.00278583
0.00281683
0.00278574
0.00278577
0.00281901
0.00278288
0.0028168
0.00278582
0.00278576
0.00278292
0.00277767
0.00274195
0.00277561
0.00277542
0.00274461
0.00274475
0.00277757
0.00274189
0.00277561
0.00277542
0.00274459
0.0027448
0.00277548
0.00274474
0.0027448
0.00277757
0.00274194
0.00277545
0.00274481
0.00274481
0.00274186
0.00273663
0.00270091
0.00273454
0.00273457
0.00270405
0.00270402
0.00273667
0.00270113
0.00273454
0.00273459
0.00270403
0.00270402
0.00273457
0.00270403
0.00270409
0.00273669
0.00270105
0.00273455
0.00270406
0.00270409
0.0027011
0.00269582
0.00266075
0.00269387
0.00269396
0.00266385
0.0026637
0.00269594
0.00266065
0.00269395
0.00269388
0.00266376
0.0026637
0.00269395
0.00266369
0.00266375
0.00269589
0.00266063
0.00269399
0.00266372
0.00266374
0.00266065
0.0026556
0.00262054
0.00265389
0.00265367
0.00262373
0.00262376
0.00265548
0.00262045
0.00265387
0.00265374
0.0026237
0.0026237
0.00265372
0.00262374
0.00262371
0.00265553
0.00262047
0.00265372
0.00262371
0.00262372
0.00262045
0.00261547
0.00258072
0.00261369
0.00261375
0.00258406
0.00258395
0.0026154
0.00258075
0.0026137
0.00261372
0.002584
0.00258397
0.00261373
0.00258393
0.00258398
0.00261542
0.00258068
0.00261373
0.00258396
0.00258397
0.00258071
0.00257569
0.00254127
0.00257405
0.00257413
0.00254465
0.00254446
0.00257572
0.00254127
0.00257403
0.00257405
0.00254461
0.00254457
0.00257411
0.00254444
0.00254451
0.00257565
0.00254125
0.0025741
0.00254455
0.00254452
0.00254127
0.00253633
0.00250212
0.00253484
0.00253463
0.00250525
0.00250536
0.00253623
0.00250217
0.00253479
0.00253472
0.00250525
0.00250531
0.0025347
0.00250535
0.00250529
0.00253628
0.00250211
0.00253471
0.00250531
0.00250529
0.0025021
0.00249731
0.00246301
0.00249565
0.00249551
0.00246619
0.00246636
0.00249716
0.00246324
0.00249561
0.00249558
0.00246621
0.00246627
0.00249554
0.00246636
0.00246631
0.00249717
0.0024632
0.00249554
0.00246628
0.00246632
0.0024633
0.00245811
0.00242463
0.00245655
0.00245664
0.00242753
0.00242752
0.00245834
0.00242448
0.00245655
0.00245661
0.00242752
0.00242751
0.00245663
0.00242753
0.00242751
0.00245828
0.00242456
0.00245663
0.00242753
0.00242751
0.00242443
0.00241964
0.00238622
0.00241786
0.00241789
0.00238903
0.00238904
0.00241959
0.0023862
0.00241787
0.00241786
0.00238903
0.00238904
0.00241787
0.00238906
0.0023891
0.00241959
0.00238623
0.00241787
0.00238906
0.0023891
0.00238633
0.00238125
0.00234819
0.00237941
0.00237944
0.00235076
0.00235074
0.00238123
0.00234801
0.00237939
0.00237946
0.00235077
0.00235072
0.00237946
0.00235074
0.00235072
0.00238137
0.00234793
0.00237946
0.00235071
0.00235072
0.00234792
0.00234339
0.00230968
0.00234123
0.00234119
0.00231247
0.00231251
0.00234316
0.00230972
0.00234125
0.00234118
0.00231245
0.00231253
0.00234119
0.00231252
0.00231255
0.00234297
0.00230985
0.0023412
0.00231257
0.00231255
0.00230965
0.00230465
0.00227196
0.00230295
0.00230303
0.00227461
0.0022746
0.00230477
0.00227204
0.00230293
0.00230299
0.00227456
0.00227455
0.00230309
0.00227462
0.00227461
0.00230495
0.00227187
0.0023031
0.00227458
0.0022746
0.00227212
0.00226715
0.00223412
0.00226515
0.00226512
0.00223676
0.00223673
0.00226716
0.00223401
0.00226514
0.00226512
0.00223678
0.00223676
0.00226512
0.0022367
0.00223668
0.00226699
0.00223413
0.00226511
0.00223675
0.0022367
0.00223391
0.00222917
0.00219642
0.00222733
0.0022273
0.00219911
0.0021991
0.00222909
0.00219648
0.00222732
0.0022273
0.00219907
0.00219906
0.00222728
0.00219915
0.00219917
0.0022292
0.00219643
0.00222731
0.00219908
0.00219915
0.00219652
0.00219154
0.00215886
0.00218971
0.00218971
0.00216152
0.0021615
0.0021916
0.00215885
0.00218968
0.00218968
0.0021615
0.00216149
0.00218978
0.00216146
0.00216147
0.00219155
0.00215886
0.00218975
0.00216151
0.00216149
0.00215887
0.00215396
0.00212141
0.00215212
0.00215209
0.00212403
0.002124
0.00215394
0.00212139
0.00215211
0.00215208
0.00212404
0.00212402
0.00215205
0.002124
0.00212399
0.00215395
0.00212142
0.00215209
0.00212402
0.00212401
0.00212138
0.00211653
0.00208419
0.0021147
0.00211468
0.00208677
0.00208679
0.00211652
0.00208424
0.00211471
0.00211468
0.00208677
0.00208675
0.00211469
0.00208684
0.0020868
0.00211655
0.00208419
0.00211469
0.00208676
0.00208677
0.00208423
0.00207932
0.00204703
0.00207747
0.00207749
0.00204958
0.00204956
0.00207936
0.002047
0.00207748
0.00207747
0.00204956
0.00204956
0.0020775
0.00204955
0.00204956
0.00207931
0.00204704
0.00207748
0.00204957
0.00204955
0.00204702
0.00204215
0.00200998
0.00204028
0.00204025
0.00201244
0.00201244
0.00204213
0.00200999
0.00204025
0.00204024
0.00201246
0.00201244
0.00204025
0.00201244
0.00201242
0.00204216
0.00200993
0.00204026
0.00201243
0.00201245
0.00200995
0.00200511
0.00197304
0.0020032
0.00200321
0.00197549
0.00197551
0.00200511
0.00197306
0.00200322
0.00200319
0.00197547
0.00197545
0.00200316
0.00197552
0.00197549
0.00200505
0.00197309
0.00200318
0.00197547
0.00197548
0.00197308
0.00196819
0.00193633
0.00196626
0.00196628
0.00193867
0.00193867
0.0019682
0.0019363
0.00196625
0.00196627
0.00193871
0.00193877
0.00196629
0.00193867
0.00193865
0.00196828
0.00193634
0.00196628
0.00193877
0.00193867
0.00193628
0.00193147
0.00189961
0.00192949
0.00192949
0.00190197
0.00190197
0.00193145
0.00189964
0.00192953
0.00192952
0.00190193
0.00190177
0.00192947
0.00190196
0.00190201
0.00193142
0.00189949
0.00192948
0.00190178
0.00190199
0.00189967
0.00189477
0.00186311
0.0018928
0.0018928
0.00186534
0.00186539
0.0018948
0.00186311
0.00189275
0.00189264
0.00186538
0.00186548
0.00189283
0.00186539
0.00186526
0.0018947
0.00186331
0.00189281
0.00186556
0.00186527
0.00186298
0.00185828
0.00182671
0.00185622
0.00185628
0.00182899
0.0018289
0.00185827
0.00182667
0.00185628
0.00185641
0.00182895
0.00182891
0.00185612
0.00182889
0.00182904
0.00185848
0.00182654
0.00185615
0.00182882
0.00182905
0.00182687
0.00182189
0.00179044
0.0018199
0.0018198
0.00179261
0.0017927
0.00182187
0.00179051
0.00181986
0.00181973
0.00179264
0.00179259
0.00182003
0.00179272
0.00179267
0.00182171
0.0017905
0.00182002
0.00179266
0.00179267
0.00179037
0.00178563
0.00175435
0.00178357
0.00178366
0.00175653
0.00175649
0.0017857
0.0017543
0.00178356
0.00178365
0.00175652
0.00175654
0.0017835
0.00175648
0.00175638
0.00178574
0.00175437
0.00178349
0.00175654
0.00175638
0.00175427
0.00174954
0.00171822
0.00174748
0.00174744
0.00172035
0.00172036
0.00174949
0.00171826
0.00174752
0.00174748
0.00172035
0.00172038
0.00174739
0.00172037
0.00172046
0.00174956
0.00171822
0.00174745
0.0017204
0.00172052
0.00171837
0.00171342
0.00168239
0.00171136
0.00171139
0.0016845
0.00168446
0.00171347
0.00168237
0.00171132
0.00171135
0.00168447
0.0016844
0.00171149
0.00168447
0.00168447
0.0017134
0.00168233
0.00171148
0.00168439
0.00168441
0.00168233
0.00167762
0.00164658
0.00167554
0.00167551
0.00164867
0.00164867
0.00167759
0.00164658
0.00167556
0.0016755
0.00164873
0.00164882
0.00167548
0.00164866
0.00164866
0.0016776
0.0016467
0.00167547
0.00164883
0.00164872
0.00164657
0.00164179
0.00161083
0.00163972
0.00163973
0.00161293
0.00161306
0.00164181
0.00161093
0.00163975
0.00163985
0.00161285
0.00161281
0.0016397
0.00161305
0.00161289
0.00164188
0.00161074
0.00163973
0.0016128
0.00161284
0.00161081
0.00160608
0.00157544
0.00160403
0.00160414
0.00157748
0.00157728
0.00160615
0.00157529
0.00160397
0.00160391
0.00157749
0.00157743
0.00160401
0.0015773
0.00157755
0.001606
0.00157542
0.00160398
0.00157743
0.00157751
0.00157548
0.0015707
0.00153987
0.00156864
0.00156841
0.00154189
0.00154211
0.00157056
0.00154002
0.00156869
0.00156864
0.00154202
0.00154208
0.00156871
0.0015421
0.00154201
0.00157069
0.00153999
0.00156871
0.00154213
0.00154212
0.00153993
0.00153513
0.00150453
0.00153303
0.00153332
0.00150659
0.00150662
0.00153527
0.00150454
0.00153303
0.00153316
0.00150653
0.00150657
0.00153305
0.0015066
0.00150654
0.00153523
0.00150449
0.00153313
0.00150654
0.00150642
0.00150446
0.00149979
0.0014694
0.00149783
0.00149772
0.00147144
0.00147134
0.00149979
0.00146935
0.00149778
0.00149776
0.00147138
0.00147138
0.00149778
0.00147133
0.00147138
0.00149975
0.00146935
0.00149765
0.00147134
0.00147132
0.00146934
0.00146467
0.00143407
0.00146264
0.0014626
0.00143602
0.00143613
0.00146463
0.00143408
0.00146258
0.00146258
0.0014362
0.00143613
0.00146257
0.00143617
0.0014363
0.00146463
0.0014341
0.00146256
0.00143623
0.00143645
0.00143429
0.00142935
0.00139918
0.0014272
0.00142731
0.00140131
0.00140113
0.00142935
0.00139907
0.00142742
0.00142729
0.00140119
0.0014011
0.00142753
0.00140111
0.0014011
0.00142938
0.00139903
0.00142767
0.00140104
0.00140099
0.00139895
0.00139447
0.00136401
0.00139261
0.00139241
0.00136606
0.00136619
0.00139438
0.00136408
0.00139242
0.00139244
0.00136606
0.00136635
0.00139227
0.00136608
0.00136582
0.00139435
0.00136423
0.00139212
0.00136631
0.00136589
0.00136385
0.00135927
0.00132897
0.0013572
0.00135743
0.00133096
0.00133108
0.00135934
0.00132905
0.00135732
0.00135754
0.00133106
0.00133087
0.0013571
0.00133118
0.00133127
0.00135948
0.00132887
0.00135721
0.0013309
0.00133125
0.00132922
0.00132426
0.00129426
0.00132231
0.00132229
0.00129642
0.00129617
0.00132435
0.00129421
0.00132232
0.00132207
0.00129624
0.00129611
0.00132267
0.00129626
0.00129669
0.00132415
0.00129415
0.00132257
0.00129629
0.00129659
0.00129448
0.0012896
0.00125973
0.00128775
0.00128755
0.00126171
0.00126176
0.00128953
0.00125963
0.0012876
0.00128754
0.00126177
0.0012618
0.00128782
0.00126157
0.0012611
0.0012895
0.00125976
0.00128782
0.0012617
0.00126128
0.00125919
0.00125503
0.00122464
0.00125295
0.00125313
0.00122665
0.00122682
0.00125495
0.00122464
0.00125309
0.0012532
0.00122682
0.00122704
0.00125239
0.00122674
0.00122668
0.00125508
0.00122477
0.00125252
0.00122674
0.00122659
0.00122454
0.0012199
0.00119006
0.00121795
0.00121801
0.00119219
0.00119201
0.00121992
0.00119009
0.00121807
0.00121822
0.00119219
0.00119211
0.0012182
0.00119225
0.00119267
0.00122004
0.00119017
0.00121807
0.00119239
0.00119262
0.00119066
0.00118542
0.0011558
0.00118365
0.00118346
0.00115788
0.0011578
0.00118547
0.00115587
0.00118359
0.00118347
0.0011577
0.00115747
0.00118406
0.00115785
0.0011578
0.00118552
0.00115556
0.00118404
0.00115767
0.00115789
0.00115573
0.00115111
0.00112091
0.00114921
0.00114924
0.00112293
0.00112329
0.00115121
0.00112095
0.00114902
0.00114884
0.00112293
0.00112313
0.00114893
0.00112304
0.00112267
0.00115087
0.00112098
0.001149
0.00112295
0.00112264
0.00112059
0.00111622
0.00108627
0.00111421
0.00111447
0.00108826
0.00108809
0.0011162
0.0010861
0.00111427
0.00111457
0.00108844
0.00108843
0.00111406
0.00108817
0.00108842
0.00111631
0.00108631
0.00111402
0.00108838
0.00108841
0.00108637
0.00108157
0.00105179
0.00107966
0.00107941
0.00105389
0.00105375
0.00108142
0.00105183
0.0010798
0.00107968
0.0010538
0.00105368
0.00107986
0.00105385
0.00105398
0.00108161
0.00105168
0.00107985
0.00105372
0.00105391
0.00105185
0.00104712
0.00101741
0.00104529
0.00104524
0.00101938
0.00101961
0.00104718
0.00101744
0.00104514
0.00104511
0.00101938
0.00101949
0.00104527
0.00101947
0.00101929
0.00104701
0.00101749
0.0010452
0.00101942
0.00101929
0.0010173
0.00101275
0.000982783
0.00101075
0.00101091
0.00098486
0.000984768
0.00101271
0.000982751
0.00101084
0.00101094
0.00098493
0.000984787
0.00101065
0.000984791
0.000984734
0.00101286
0.000982756
0.00101072
0.000984908
0.000984899
0.000982764
0.000978029
0.000947978
0.00097618
0.000976131
0.000950081
0.000950171
0.000978065
0.000948111
0.000976158
0.000976031
0.000949949
0.000950042
0.000976074
0.000950206
0.000950166
0.000978015
0.000947976
0.000976172
0.00095006
0.000950049
0.000948044
0.0009433
0.00091387
0.000941435
0.00094147
0.000915769
0.000915623
0.000943381
0.000913622
0.000941334
0.000941456
0.000915876
0.000915815
0.000941563
0.000915613
0.000915876
0.000943284
0.000913815
0.000941434
0.000915707
0.000915865
0.000913872
0.000909243
0.000879769
0.000907267
0.000907103
0.000881732
0.000881688
0.000909006
0.000879779
0.000907406
0.000907306
0.000881788
0.00088177
0.000907346
0.000881725
0.000881723
0.000909212
0.000879846
0.000907382
0.000881808
0.000881777
0.000879781
0.000875066
0.000844745
0.000873133
0.000873188
0.000846893
0.000847122
0.000875154
0.000844915
0.000873098
0.000873188
0.000846746
0.000846898
0.000873051
0.000847073
0.000846759
0.000875178
0.000844765
0.000873103
0.000846942
0.000846724
0.000844674
0.000839963
0.00080991
0.000838078
0.000838187
0.000811897
0.000811733
0.00084005
0.00080967
0.000837974
0.000838042
0.000811973
0.000811799
0.000837965
0.000811684
0.000811831
0.000839935
0.000809759
0.000837924
0.00081173
0.000811827
0.000809808
0.000805231
0.000775979
0.00080331
0.000803121
0.000777843
0.000777854
0.000804998
0.000776043
0.000803411
0.00080321
0.000777921
0.000777903
0.000803301
0.00077794
0.000778045
0.000805103
0.000776064
0.000803317
0.000777938
0.000778062
0.000776183
0.000771392
0.000741899
0.000769408
0.000769469
0.000743907
0.000744082
0.000771478
0.00074212
0.000769444
0.00076949
0.000743838
0.000743988
0.00076965
0.000744127
0.000743957
0.000771482
0.000741991
0.00076964
0.000744046
0.000743929
0.000741902
0.000737181
0.000706773
0.000735273
0.00073542
0.000708896
0.000708782
0.000737345
0.000706633
0.000735194
0.000735308
0.000708857
0.000708781
0.000735219
0.000708692
0.000708811
0.000737224
0.000706641
0.000735196
0.000708723
0.000708796
0.000706687
0.000701945
0.000671728
0.000700038
0.000699886
0.000673693
0.000673568
0.000701803
0.000671548
0.000700034
0.000699941
0.000673764
0.000673715
0.000699994
0.000673551
0.000673647
0.000701828
0.00067171
0.000699986
0.000673666
0.000673675
0.000671672
0.000667011
0.00063744
0.000665021
0.000664942
0.000639317
0.000639425
0.000666875
0.000637559
0.000665095
0.000665086
0.000639332
0.000639444
0.000664948
0.000639454
0.000639186
0.000667034
0.000637569
0.000664991
0.00063948
0.00063922
0.00063737
0.000632808
0.000603337
0.000630831
0.000630941
0.000605301
0.000605363
0.000632915
0.000603443
0.000630822
0.000630914
0.000605237
0.000605204
0.000630736
0.000605391
0.000605334
0.000632903
0.000603223
0.000630748
0.000605229
0.000605279
0.000603383
0.000598655
0.000568217
0.000596741
0.000596751
0.000570356
0.000570381
0.000598732
0.000568252
0.000596661
0.000596519
0.000570333
0.000570212
0.000596834
0.000570387
0.00057062
0.000598478
0.000568161
0.000596757
0.000570227
0.0005706
0.000568407
0.000563376
0.000532906
0.000561439
0.000561508
0.000534911
0.000534953
0.000563408
0.000532858
0.000561463
0.000561428
0.000534989
0.00053507
0.000561632
0.000534918
0.000534796
0.000563373
0.000533007
0.000561662
0.000535029
0.000534865
0.000532771
0.000528131
0.000498267
0.000526156
0.000526158
0.000500144
0.000499973
0.00052805
0.000498049
0.000526231
0.000526331
0.000500186
0.000500254
0.000525933
0.000499891
0.000499821
0.000528229
0.000498269
0.000525994
0.000500187
0.000499844
0.000497988
0.00049356
0.000463782
0.000491532
0.000491342
0.000465718
0.000465714
0.000493354
0.000463887
0.000491558
0.000491591
0.000465687
0.000465733
0.000491339
0.000465804
0.000466093
0.000493558
0.000463899
0.000491358
0.000465853
0.000466117
0.00046423
0.00045909
0.000429549
0.000457137
0.000457251
0.000431562
0.000431896
0.000459279
0.000429975
0.000457091
0.000457171
0.000431483
0.000431543
0.000457696
0.000432033
0.000432009
0.000459254
0.000429541
0.000457711
0.000431622
0.000431889
0.000429791
0.000424872
0.000394104
0.000423005
0.000423291
0.000396275
0.000396023
0.000425201
0.000393697
0.000422933
0.000422876
0.000396325
0.000396055
0.000423003
0.00039581
0.000395433
0.000424756
0.000393765
0.000422867
0.000395805
0.000395442
0.000393261
0.00038911
0.000357592
0.00038711
0.000386773
0.000359683
0.000359358
0.000388667
0.000357287
0.000387182
0.000386933
0.000359718
0.000359552
0.000386264
0.000359265
0.000359275
0.000388788
0.000357536
0.00038628
0.000359536
0.00035937
0.000357501
0.000352666
0.000323274
0.00035065
0.000350529
0.000325036
0.000325498
0.000352557
0.000323882
0.000350663
0.000350682
0.000324994
0.000325355
0.000350844
0.000325809
0.000326161
0.000352765
0.00032374
0.000350936
0.000325684
0.00032615
0.00032437
0.000318778
0.000289924
0.000316814
0.000317238
0.000291821
0.000291976
0.00031935
0.000289902
0.00031677
0.00031709
0.000291836
0.000292083
0.000317901
0.000291996
0.000292118
0.000319222
0.000290046
0.000317881
0.000292076
0.000292132
0.000289872
0.000285217
0.000253527
0.000283241
0.000283121
0.000255808
0.000255313
0.000284971
0.000252942
0.000283294
0.000283366
0.000255854
0.00025557
0.000282893
0.000255067
0.000254821
0.000285183
0.000253159
0.000282914
0.000255307
0.000254846
0.000252593
0.000248385
0.000216204
0.000246384
0.000246012
0.000218351
0.000218307
0.000247876
0.000216394
0.000246396
0.000246152
0.000218298
0.000218054
0.000245526
0.000218304
0.000218047
0.000248046
0.000215964
0.000245549
0.000217973
0.000217914
0.000216152
0.000211277
0.000181729
0.000209258
0.000209488
0.000183515
0.000183953
0.000211628
0.000182263
0.000209162
0.000208997
0.000183423
0.000183544
0.00020943
0.000184156
0.000184247
0.000211118
0.000181929
0.000209266
0.000183769
0.000184181
0.000182434
0.000177175
0.000148216
0.000175187
0.00017554
0.000150086
0.000150161
0.000177673
0.000148039
0.00017514
0.000175292
0.000150166
0.000150381
0.000175811
0.000150174
0.000150413
0.000177403
0.000148504
0.000175822
0.000150495
0.000150582
0.000148384
0.00014348
0.000112028
0.000141507
0.000141297
0.000114248
0.000113877
0.000143142
0.000111586
0.000141624
0.000141824
0.000114335
0.000114317
0.000141483
0.000113733
0.000113752
0.000143735
0.000111944
0.000141703
0.000114158
0.000113833
0.000111544
0.000106923
7.48255e-05
0.000104964
0.000104684
7.69525e-05
7.68597e-05
0.000106531
7.48939e-05
0.000105
0.000104919
7.69123e-05
7.67997e-05
0.000104522
7.68156e-05
7.6756e-05
0.000106807
7.4647e-05
0.000104534
7.67562e-05
7.66965e-05
7.46978e-05
6.98252e-05
3.96649e-05
6.78288e-05
6.79317e-05
4.15376e-05
4.17946e-05
7.00036e-05
3.99941e-05
6.77482e-05
6.76336e-05
4.1439e-05
4.13996e-05
6.77912e-05
4.1874e-05
4.1759e-05
6.96428e-05
3.96269e-05
6.7685e-05
4.1445e-05
4.16452e-05
3.98844e-05
3.48924e-05
8.52023e-06
3.30601e-05
3.3259e-05
1.15708e-05
1.16756e-05
3.51931e-05
8.60004e-06
3.29857e-05
3.29774e-05
1.15455e-05
1.15243e-05
3.32813e-05
1.1721e-05
1.16122e-05
3.4872e-05
8.50347e-06
3.31946e-05
1.1539e-05
1.1557e-05
8.52058e-06
5.2672e-06
7.06195e-06
7.17787e-06
5.26539e-06
7.15452e-06
7.09096e-06
6.14605e-06
6.04642e-06
6.02913e-06
7.02395e-06
5.26353e-06
7.12437e-06
0.00353055
0.00353339
0.00353186
0.00353214
0.00355893
0.00353287
0.00356242
0.00353327
0.0035594
0.00353298
0.00353321
0.00356254
0.00354398
0.00356578
0.00356588
0.0035031
0.00351673
0.0035207
0.0034954
0.00349357
0.00349881
0.0035029
0.00351574
0.00351981
0.00349539
0.00351908
0.00351902
0.00351905
0.00349255
0.0034927
0.00349263
0.00349264
0.00350278
0.00351439
0.00351961
0.00351037
0.00352173
0.00349996
0.00351058
0.00349365
0.00349884
0.00350283
0.00351961
0.00351443
0.00351025
0.00352177
0.00351061
0.00349989
0.00352061
0.00352053
0.00350761
0.00349981
0.00349971
0.00347557
0.00348978
0.00348967
0.00347361
0.00348715
0.00347265
0.00347552
0.00348973
0.00348967
0.00347357
0.00348365
0.00348354
0.0034836
0.0034552
0.00345528
0.00345521
0.00345523
0.00347338
0.00348839
0.00348212
0.00347266
0.00348683
0.00347393
0.00347264
0.00348702
0.0034726
0.00347337
0.00348204
0.00348836
0.00347261
0.00348677
0.00347264
0.00347385
0.00349
0.00348991
0.00347105
0.00347423
0.00347434
0.00343313
0.00344783
0.00344874
0.00343182
0.00344666
0.00343099
0.00343315
0.00344783
0.00344873
0.00343183
0.00344521
0.00344513
0.00344515
0.00341262
0.00341267
0.00341262
0.00341263
0.00343185
0.0034474
0.00344329
0.00343279
0.0034464
0.00343238
0.0034328
0.00344669
0.00343085
0.00343187
0.00344321
0.00344744
0.00343281
0.00344634
0.00343278
0.00343224
0.00344808
0.00344836
0.0034301
0.00343216
0.00343207
0.00338679
0.00340325
0.0034047
0.00338539
0.00340254
0.0033849
0.00338682
0.00340322
0.00340465
0.00338539
0.00340113
0.00340109
0.00340109
0.00336521
0.00336523
0.00336521
0.0033652
0.00338598
0.00340309
0.0033994
0.00338767
0.00340249
0.00338618
0.00338769
0.00340246
0.00338488
0.00338599
0.00339938
0.00340308
0.00338769
0.00340247
0.00338767
0.00338599
0.00340328
0.00340336
0.0033844
0.00338556
0.0033856
0.00333795
0.00335504
0.00335636
0.00333674
0.00335467
0.0033364
0.00333792
0.00335504
0.00335633
0.0033367
0.00335304
0.00335302
0.00335301
0.00331635
0.00331638
0.00331635
0.00331635
0.00333751
0.00335504
0.0033516
0.00333936
0.00335469
0.00333741
0.00333942
0.00335459
0.00333643
0.00333754
0.00335157
0.003355
0.0033394
0.00335467
0.0033394
0.00333742
0.00335507
0.0033551
0.00333601
0.00333682
0.00333682
0.00328879
0.00330612
0.00330717
0.00328796
0.00330587
0.00328772
0.00328885
0.00330612
0.00330711
0.00328797
0.00330419
0.00330416
0.00330416
0.0032679
0.00326792
0.0032679
0.0032679
0.00328878
0.00330616
0.00330291
0.00329076
0.00330594
0.00328863