/*--------------------------------*- C++ -*----------------------------------*\
| =========                 |                                                 |
| \\      /  F ield         | OpenFOAM: The Open Source CFD Toolbox           |
|  \\    /   O peration     | Version:  v2006                                 |
|   \\  /    A nd           | Website:  www.openfoam.com                      |
|    \\/     M anipulation  |                                                 |
\*---------------------------------------------------------------------------*/
FoamFile
{
    version     2.0;
    format      ascii;
    class       volScalarField;
    location    "375";
    object      nut;
}
// * * * * * * * * * * * * * * * * * * * * * * * * * * * * * * * * * * * * * //

dimensions      [0 2 -1 0 0 0 0];


internalField   nonuniform List<scalar> 
14404
(
0.000200679
0.00020061
0.000182039
0.00020599
2.38925e-05
0.000103822
5.07455e-05
9.99559e-05
0.000209814
0.000103798
0.000144175
7.80584e-05
7.80758e-05
2.3894e-05
5.07493e-05
7.91606e-05
2.03175e-05
4.10569e-05
9.45633e-05
3.6714e-05
0.000129046
4.86533e-05
0.000105474
0.000105519
0.00012908
4.86653e-05
7.80919e-05
0.000129212
0.000105471
4.86658e-05
2.1708e-05
2.17114e-05
8.16627e-05
2.3895e-05
5.0751e-05
7.91967e-05
0.000138799
0.000162023
0.000162051
0.000182355
0.000162252
0.000138646
0.000162224
0.000202064
0.000161133
0.000147856
0.000103896
0.000148002
0.000123079
0.000147812
0.000122915
0.000160909
0.000176477
0.000137662
0.000171351
0.000100093
5.07568e-05
5.07515e-05
2.38978e-05
2.38951e-05
0.000182921
7.81109e-05
7.81005e-05
0.000144697
0.000201525
0.000103946
0.000210926
0.000201528
0.000103933
3.67197e-05
0.00010006
4.10639e-05
9.46637e-05
4.10619e-05
9.46434e-05
3.67214e-05
2.03201e-05
7.92085e-05
5.07564e-05
7.92024e-05
2.03212e-05
5.07508e-05
2.38935e-05
2.38969e-05
2.38943e-05
8.16664e-05
2.17122e-05
2.17088e-05
2.17117e-05
2.17083e-05
8.16401e-05
0.00010553
4.86667e-05
7.80994e-05
0.000129331
4.86668e-05
0.000105563
0.000129254
0.000105532
4.86537e-05
7.8089e-05
0.000129307
4.86541e-05
0.000105565
0.00012923
2.03189e-05
5.07474e-05
7.91809e-05
3.67162e-05
0.000100035
4.10596e-05
9.46222e-05
0.000105523
7.80759e-05
4.86542e-05
0.000129181
8.16725e-05
2.17087e-05
2.17121e-05
0.00013886
0.000182675
0.000162601
0.000162585
0.000138952
0.000162447
0.00016243
0.000171851
0.000144527
0.000138103
0.000177228
0.000137966
0.00017706
0.000171994
0.000161332
0.000123187
0.000103913
0.000148256
0.000123103
0.000148153
0.000161459
0.0001039
0.000148236
0.000148132
0.000161091
0.000103875
0.000123059
0.000147961
0.000171537
0.000144428
0.000176684
0.000137885
0.00017261
0.000186897
0.000186894
0.00017275
0.00018733
0.000183274
5.05538e-05
2.38128e-05
2.38079e-05
2.381e-05
2.38054e-05
0.000172131
7.72511e-05
7.72408e-05
7.72011e-05
7.71916e-05
9.84523e-05
5.05576e-05
5.05458e-05
9.85438e-05
9.84491e-05
5.05408e-05
9.85403e-05
0.000139548
0.000186485
0.00010195
0.000192453
0.000101828
0.000191921
0.000139834
0.000139542
0.000186438
0.00019244
0.000101803
0.000191906
0.000139829
2.38053e-05
0.000172108
7.71808e-05
7.71969e-05
2.38065e-05
9.84454e-05
5.05516e-05
5.05413e-05
9.85358e-05
0.000139544
0.000186482
0.000101935
0.00019245
0.000101814
0.000191925
0.000139824
9.84334e-05
5.05374e-05
9.85312e-05
0.000139539
0.00018646
0.000192446
0.00019192
0.000101803
0.000139817
0.000139543
0.000186454
0.00010182
0.000191884
9.8451e-05
5.05426e-05
0.00013954
0.000186411
0.000191872
0.000101809
9.84493e-05
5.05394e-05
2.38043e-05
0.000172131
7.71804e-05
7.72009e-05
2.38059e-05
0.000139545
0.00018648
0.000191909
0.000101825
0.000139541
0.000186423
0.000191884
0.000101804
9.84418e-05
5.05414e-05
9.84478e-05
5.05379e-05
0.000172088
7.71891e-05
7.71836e-05
2.38055e-05
2.38045e-05
2.38133e-05
2.38106e-05
7.72502e-05
7.72397e-05
0.000101934
2.02448e-05
7.85425e-05
7.85188e-05
2.02468e-05
2.02535e-05
7.8576e-05
5.05586e-05
2.02514e-05
7.86027e-05
2.38106e-05
2.381e-05
2.38078e-05
2.38072e-05
8.10575e-05
2.16405e-05
2.16381e-05
8.10508e-05
2.16424e-05
2.16398e-05
0.000103878
0.000125888
7.72255e-05
4.84817e-05
4.84774e-05
0.000125797
0.00010392
0.000103852
0.000125854
7.72151e-05
4.8467e-05
4.84627e-05
0.000125768
0.000103901
0.000103877
4.84709e-05
0.00012569
7.72264e-05
0.000103835
4.84753e-05
0.000125787
0.000103854
4.8457e-05
0.000125665
7.72164e-05
0.000103804
4.84611e-05
0.000125755
8.10659e-05
2.16446e-05
2.1642e-05
2.16427e-05
2.16401e-05
8.10738e-05
3.65783e-05
4.08945e-05
9.3351e-05
9.84942e-05
3.65752e-05
4.08981e-05
9.3388e-05
2.02494e-05
5.05528e-05
7.85826e-05
2.02514e-05
7.85593e-05
2.02492e-05
7.85406e-05
5.05504e-05
2.02472e-05
7.85631e-05
3.65795e-05
9.85039e-05
4.09032e-05
9.3427e-05
3.65827e-05
4.08996e-05
9.33912e-05
3.65761e-05
4.08945e-05
9.3341e-05
9.84903e-05
3.6573e-05
4.0898e-05
9.33759e-05
2.02476e-05
7.85212e-05
5.05453e-05
2.02457e-05
7.8544e-05
3.65773e-05
9.85008e-05
4.09031e-05
9.34156e-05
4.08995e-05
9.33813e-05
3.65805e-05
2.38075e-05
8.10592e-05
2.16377e-05
2.16406e-05
8.10521e-05
2.16395e-05
2.16425e-05
0.000103857
4.84576e-05
0.000125649
7.72084e-05
0.000125742
0.000103808
4.8462e-05
0.000103861
4.84683e-05
0.000125684
7.72222e-05
0.000103816
4.84726e-05
0.000125774
2.38086e-05
3.65776e-05
9.33483e-05
4.08936e-05
9.84871e-05
3.65745e-05
9.33821e-05
4.08969e-05
2.02492e-05
5.05472e-05
7.85796e-05
2.02512e-05
7.85562e-05
2.02489e-05
7.85384e-05
5.05453e-05
2.0247e-05
7.85602e-05
3.65788e-05
9.84952e-05
9.34208e-05
4.0902e-05
3.6582e-05
9.33868e-05
4.08984e-05
3.65752e-05
4.0893e-05
9.33299e-05
9.84821e-05
3.65721e-05
4.08964e-05
9.33705e-05
2.02478e-05
7.8518e-05
5.05418e-05
2.02458e-05
7.854e-05
3.65764e-05
9.84835e-05
4.09015e-05
9.34093e-05
4.08979e-05
9.33685e-05
3.65797e-05
3.65779e-05
9.3341e-05
4.08936e-05
9.84906e-05
3.65747e-05
9.33818e-05
4.08971e-05
2.02491e-05
7.85323e-05
5.05471e-05
2.0247e-05
7.85568e-05
3.65768e-05
4.0894e-05
9.33397e-05
9.8488e-05
3.65736e-05
4.08976e-05
9.33736e-05
2.02482e-05
7.85193e-05
5.0544e-05
2.02462e-05
7.8542e-05
2.38065e-05
8.10638e-05
2.16375e-05
2.16409e-05
8.10578e-05
2.16393e-05
2.16428e-05
0.000103863
4.84571e-05
0.000125662
7.72056e-05
0.00012575
0.000103821
4.84614e-05
0.000103858
4.84692e-05
0.00012569
7.72245e-05
0.000103814
4.84735e-05
0.000125778
2.38081e-05
3.65777e-05
9.33361e-05
4.08935e-05
9.8488e-05
3.65745e-05
9.33772e-05
4.0897e-05
2.02489e-05
7.85321e-05
5.05459e-05
2.02469e-05
7.85559e-05
3.65759e-05
9.33384e-05
4.08934e-05
9.84868e-05
3.65728e-05
9.33712e-05
4.0897e-05
2.02479e-05
7.85189e-05
5.05425e-05
2.02459e-05
7.85411e-05
8.1055e-05
2.16401e-05
2.16371e-05
8.1046e-05
2.16422e-05
2.16391e-05
0.000103849
4.84681e-05
0.000125666
7.7215e-05
0.000103801
0.000125758
4.84726e-05
0.000103851
4.84569e-05
0.000125647
7.72088e-05
0.000103804
0.000125737
4.84614e-05
2.38077e-05
2.38067e-05
2.38156e-05
2.38129e-05
0.000103972
0.000125897
4.84836e-05
7.72803e-05
0.000103922
4.84882e-05
0.000125992
0.000103955
0.000125866
4.8469e-05
7.72696e-05
0.000103901
4.84737e-05
0.00012596
8.10972e-05
2.1645e-05
2.16423e-05
8.10854e-05
2.1647e-05
2.16442e-05
0.000134779
0.000172446
0.000155444
0.000155416
0.00015535
0.000155321
0.000134883
0.000135008
0.00015556
0.000155533
0.000172923
0.000134896
0.00015566
0.000155633
0.000182584
0.000174706
0.00017471
0.000173818
0.000173822
0.000159324
0.000160381
0.000182551
0.000174692
0.000173808
0.000173802
0.00015933
0.000160372
0.000182585
0.000174714
0.000173831
0.000173827
0.000159341
0.000160389
0.000182527
0.000173807
0.000173811
0.000159348
0.00016037
0.000134765
0.000172299
0.000155132
0.000155104
0.000134656
0.00015523
0.000155201
0.000163106
0.000133619
0.000167435
0.000139677
0.000162997
0.000133735
0.000167553
0.000154297
0.000142677
0.000101891
0.000120068
0.000142604
0.000119974
0.000154403
0.00015418
0.000119874
0.000142433
0.00010189
0.000142508
0.000154071
0.000119971
0.000163287
0.000139714
0.000133871
0.00016786
0.000133761
0.000167749
0.000163392
0.000163087
0.000133603
0.000167427
0.000139671
0.000162979
0.000133718
0.000167545
0.000154151
0.000119852
0.000142396
0.000101866
0.000154043
0.000119949
0.000142471
0.000163269
0.000139708
0.000133855
0.000167853
0.000133746
0.000167741
0.000163374
0.000134755
0.000172275
0.000155089
0.000155114
0.000155186
0.000134647
0.000155211
0.000153818
0.000119863
0.000119757
0.000153933
0.000163099
0.000133613
0.000167433
0.00013967
0.000162992
0.000133727
0.00016755
0.000154286
0.000142658
0.000101875
0.000120058
0.000142586
0.000119964
0.000154391
0.000154171
0.000119866
0.000142418
0.000101876
0.000142493
0.000154063
0.000119963
0.000163278
0.000139706
0.00013386
0.000167851
0.000133753
0.000167742
0.000163381
0.000163091
0.000167431
0.000133602
0.000139665
0.000162985
0.000167546
0.000133715
0.000154157
0.000119854
0.000142405
0.000101864
0.000154051
0.000119948
0.000142478
0.000163268
0.0001397
0.000167847
0.000133847
0.000167737
0.00013374
0.000163371
0.000163093
0.000133611
0.000167425
0.000139668
0.000162986
0.000133723
0.00016754
0.000154167
0.000119864
0.000142423
0.000101881
0.00015406
0.000142497
0.00011996
0.000163084
0.000167421
0.000133603
0.000139665
0.000162978
0.000167536
0.000133715
0.00015415
0.000119853
0.000142403
0.00010187
0.000154044
0.000119948
0.000142477
0.00013476
0.000172295
0.000155109
0.000155127
0.000155202
0.000134657
0.00015522
0.000163102
0.000167435
0.000133614
0.000139668
0.000162996
0.000167548
0.000133724
0.000154177
0.000119869
0.000142434
0.000101883
0.000154072
0.000142506
0.000119962
0.000163083
0.000167426
0.000133601
0.000139664
0.000162977
0.00016754
0.000133712
0.000154145
0.00011985
0.000142392
0.000101864
0.000154039
0.000119944
0.000142465
0.00013474
0.000172252
0.000155092
0.00015508
0.000134634
0.000155187
0.000155174
0.000154613
0.00014275
0.00012006
0.000102
0.00012016
0.000154502
0.000142829
9.84382e-05
2.38038e-05
0.000186042
0.000101825
0.000139504
0.000191322
9.84326e-05
5.05354e-05
0.000139501
0.000186015
0.000191324
0.000101805
0.00017197
7.71835e-05
7.72023e-05
2.38054e-05
5.05394e-05
3.65701e-05
9.83896e-05
9.33424e-05
4.08921e-05
9.33051e-05
4.08885e-05
3.65733e-05
2.38017e-05
3.65677e-05
9.83783e-05
4.08916e-05
9.33314e-05
4.0888e-05
9.32878e-05
3.65709e-05
2.02436e-05
5.0531e-05
7.85221e-05
7.84996e-05
2.02456e-05
8.10456e-05
2.16372e-05
2.16406e-05
2.16354e-05
2.16388e-05
8.10512e-05
0.000103773
7.71573e-05
4.84554e-05
0.000125649
4.84514e-05
0.000125551
0.000103819
0.000103767
7.71777e-05
4.84674e-05
0.000125678
0.000125579
4.84633e-05
0.000103814
2.38032e-05
5.0535e-05
0.000172784
0.000181785
0.000172802
0.000101762
0.000142334
0.000142256
0.000162685
0.000139366
0.000133584
0.000167221
0.00013346
0.000167094
0.000162798
0.000162681
0.00013936
0.000167219
0.000133574
0.000167093
0.000133451
0.000162792
0.000153812
0.000101739
0.00011985
0.000142304
0.000119748
0.000153925
0.000142225
0.000134528
0.000171793
0.00015498
0.000154999
0.000154897
0.000154878
0.000134641
0.000183921
0.000187325
0.000187329
0.000172709
0.000187436
0.000189576
0.000189567
0.000174304
0.000190014
0.00019113
0.000191148
0.000175321
0.000193559
0.000193132
0.000193139
0.000176861
0.00019603
0.000194905
0.00019489
0.000177903
0.000199167
0.00019618
0.000196219
0.000179006
0.000186855
0.000172586
0.000186866
0.000186867
0.000186822
0.000172594
0.000186883
0.000186833
0.000172559
0.000174078
0.000187333
0.000187305
0.000189034
0.000189032
0.000172731
0.000174098
0.000187306
0.000189031
0.000189027
0.000187294
0.000189085
0.000189105
0.000172732
0.000174091
0.000187303
0.00018907
0.000189106
0.000174131
0.000174271
0.000175274
0.000189548
0.000189528
0.000190643
0.0001906
0.00017428
0.00017524
0.000189546
0.000189529
0.000190642
0.000190614
0.00018958
0.000190616
0.000190559
0.000174279
0.000175255
0.000189583
0.000190636
0.000190572
0.000175197
0.000175394
0.000176736
0.000191137
0.000191111
0.000192827
0.000192802
0.000175366
0.00017674
0.000191137
0.000191124
0.00019283
0.000192819
0.00019108
0.000192838
0.000192844
0.000175382
0.000176746
0.000191094
0.000192849
0.000192854
0.000176765
0.000176836
0.000177711
0.000193123
0.000193093
0.000194177
0.00019418
0.000176836
0.000177719
0.000193129
0.000193106
0.00019417
0.000194156
0.000193138
0.00019422
0.000194191
0.00017684
0.000177706
0.000193146
0.0001942
0.000194197
0.000177704
0.00017791
0.000179081
0.000194863
0.000194868
0.000196185
0.000196116
0.000177924
0.000179043
0.000194865
0.00019485
0.000196198
0.000196167
0.00019487
0.000196141
0.000196117
0.000177911
0.000179073
0.000194877
0.000196181
0.000196135
0.000179037
0.000179048
0.000179941
0.000196217
0.000196159
0.000197376
0.000197389
0.000179008
0.000179979
0.000196239
0.000196205
0.000197368
0.000197361
0.000196164
0.000197438
0.000197423
0.000179039
0.000179955
0.000196181
0.000197419
0.000197428
0.000179982
0.000180257
0.000181322
0.00019816
0.000198158
0.000199545
0.000199503
0.000180269
0.000183235
0.000183263
0.000183189
9.86538e-05
5.05598e-05
9.85531e-05
5.05713e-05
2.38108e-05
2.38159e-05
9.86479e-05
9.85437e-05
5.05658e-05
0.000183892
0.000183909
0.000183852
0.000186492
0.000186542
0.000186533
0.000186608
0.00014016
0.000101943
0.000192956
0.000187873
0.000139859
0.000102095
0.000193617
2.38096e-05
2.38147e-05
0.000140147
0.000192967
0.000101941
0.000187866
0.000139852
0.000193616
0.000102091
7.72434e-05
7.72372e-05
0.000173283
7.73202e-05
7.73145e-05
9.88844e-05
5.05862e-05
9.87973e-05
5.0596e-05
2.38216e-05
2.38262e-05
9.888e-05
5.0581e-05
9.87937e-05
5.05908e-05
0.000187471
0.000187462
0.000187528
0.000189335
0.000189304
0.000189324
0.000189265
0.000140876
0.000102267
0.000195825
0.000189939
0.000140608
0.000102361
0.000196329
2.38205e-05
2.3825e-05
0.000140872
0.000195809
0.000102265
0.000189942
0.000140597
0.000196324
0.000102365
7.7384e-05
7.73779e-05
0.000174731
7.74048e-05
7.73984e-05
9.90744e-05
5.06111e-05
9.89613e-05
5.0623e-05
2.38326e-05
2.38375e-05
9.90698e-05
5.06059e-05
9.89557e-05
5.06178e-05
0.00019
0.00019002
0.000189961
0.000192885
0.000192875
0.000192902
0.0001929
0.000141431
0.00010245
0.000197756
0.000191756
0.000141119
0.000102628
0.000198509
2.38313e-05
2.38363e-05
0.000141431
0.000197775
0.000102455
0.000191772
0.000141123
0.000198525
0.00010263
7.74532e-05
7.74484e-05
0.00017596
7.75472e-05
7.75406e-05
9.92506e-05
5.06359e-05
9.92066e-05
5.06452e-05
2.38425e-05
2.38474e-05
9.92448e-05
5.06306e-05
9.92012e-05
5.06399e-05
0.000193537
0.000193563
0.000193569
0.00019507
0.000195109
0.000195087
0.000195122
0.000142068
0.000102767
0.000200427
0.000193356
0.000141881
0.000102812
0.000200748
2.38414e-05
2.38462e-05
0.000142059
0.000200433
0.000102764
0.000193355
0.000141872
0.000200749
0.000102809
7.75843e-05
7.7577e-05
0.000177202
7.75833e-05
7.7577e-05
9.94711e-05
5.06616e-05
9.93329e-05
5.06707e-05
2.38536e-05
2.38574e-05
9.9468e-05
5.06563e-05
9.9327e-05
5.06655e-05
0.000196085
0.000196055
0.000196089
0.000198846
0.000198777
0.000198826
0.00019877
0.000142657
0.000102961
0.000202484
0.00019555
0.000142294
0.000103127
0.000203329
2.38526e-05
2.38564e-05
0.000142657
0.000202464
0.000102962
0.000195554
0.00014229
0.000203324
0.000103131
7.76894e-05
7.76834e-05
0.000178577
7.77337e-05
7.77282e-05
9.95091e-05
5.06805e-05
9.9513e-05
5.06929e-05
2.38626e-05
2.38687e-05
9.95036e-05
5.06751e-05
9.95119e-05
5.06874e-05
0.000199089
0.000199146
0.000199086
0.000200397
0.000195248
0.00018376
0.000183743
0.000142977
0.000103114
0.000204491
0.000196327
0.000142922
0.000103149
0.000204617
2.38613e-05
2.38674e-05
0.000142977
0.000204524
0.000103119
0.000196348
0.000142925
0.000204644
0.000103148
7.76944e-05
7.76886e-05
0.000179234
7.77528e-05
7.77444e-05
9.97983e-05
5.07035e-05
9.96907e-05
5.07083e-05
2.38726e-05
2.38753e-05
5.0552e-05
0.000101927
2.38103e-05
7.72339e-05
7.72489e-05
2.38114e-05
5.05484e-05
0.000101922
0.000101942
0.000192402
0.000139822
5.0554e-05
9.85397e-05
0.000192388
0.000101933
0.000139819
5.0551e-05
9.85373e-05
2.3809e-05
7.72292e-05
7.72495e-05
2.38109e-05
0.000192423
0.000101942
0.000139818
0.0001924
0.000101926
0.000139815
5.05527e-05
9.85344e-05
5.05494e-05
9.85344e-05
7.72434e-05
7.72371e-05
2.38105e-05
2.38096e-05
2.38184e-05
2.38157e-05
0.000173271
7.73152e-05
7.73048e-05
2.38238e-05
2.3819e-05
2.38211e-05
2.38163e-05
0.000173463
7.73876e-05
7.73768e-05
7.73166e-05
7.73064e-05
9.86512e-05
5.05542e-05
9.85505e-05
5.05659e-05
0.000140154
0.00010195
0.00019299
0.00018785
0.000139869
0.000102089
0.00019361
0.000140151
0.000101926
0.000192982
0.000187839
0.000139864
0.000102074
0.000193612
9.86668e-05
5.05844e-05
5.05732e-05
9.87854e-05
9.8665e-05
5.05789e-05
5.05681e-05
9.87822e-05
0.000140197
0.000188438
0.000102257
0.000195091
0.000102093
0.000194334
0.000140537
0.000140194
0.000188441
0.000102238
0.000195097
0.000102078
0.000194341
0.000140534
7.7231e-05
7.72487e-05
0.000173277
7.73014e-05
7.73193e-05
2.38121e-05
2.38171e-05
2.38212e-05
2.38165e-05
0.00017348
7.73672e-05
7.7387e-05
7.73035e-05
7.7322e-05
2.38223e-05
2.38177e-05
0.000140143
0.000192983
0.000187843
0.000139856
0.000102076
0.000193605
9.8644e-05
5.05506e-05
9.85324e-05
5.05625e-05
0.000140137
0.000192979
0.000101921
0.000187834
0.000139851
0.000193606
0.00010207
9.86609e-05
5.05792e-05
5.05681e-05
9.87824e-05
0.000140186
0.000188434
0.000102246
0.000195088
0.000102082
0.000194328
0.000140532
9.86495e-05
5.05755e-05
5.05646e-05
9.87765e-05
0.000140183
0.000188433
0.000195092
0.000102239
0.000194332
0.000102076
0.000140527
9.86604e-05
5.05562e-05
9.855e-05
5.05681e-05
0.000140159
0.000192946
0.000101933
0.000187868
0.000139856
0.000193619
0.000102094
9.86594e-05
5.05532e-05
9.85486e-05
5.05652e-05
0.000140209
0.000188488
0.000102263
0.000195158
0.000102102
0.000194383
0.000140563
9.86756e-05
5.05808e-05
5.05702e-05
9.87964e-05
0.000140209
0.000188504
0.000195174
0.000102263
0.000194394
0.000102101
0.000140564
9.86755e-05
5.05775e-05
5.05672e-05
9.87958e-05
7.72293e-05
7.72487e-05
0.000173268
7.72994e-05
7.7319e-05
2.38115e-05
2.38166e-05
2.382e-05
2.38153e-05
0.000173469
7.73709e-05
7.73888e-05
7.73022e-05
7.73212e-05
2.38219e-05
2.38172e-05
0.000140147
0.000192952
0.000101927
0.000187873
0.00013985
0.000193616
0.000102087
9.86492e-05
5.05549e-05
9.85386e-05
5.05669e-05
9.86535e-05
5.05516e-05
9.85442e-05
5.05636e-05
0.000140196
0.000188474
0.00019514
0.000102262
0.00019437
0.000102097
0.000140551
0.000140197
0.000188506
0.000195157
0.000102256
0.000194383
0.000102094
0.000140553
9.86645e-05
5.05798e-05
5.05691e-05
9.8788e-05
9.86694e-05
5.05761e-05
5.05657e-05
9.87908e-05
2.38111e-05
2.38162e-05
2.38102e-05
2.38153e-05
0.000173502
7.73851e-05
7.73789e-05
7.73243e-05
7.73188e-05
2.38212e-05
2.38167e-05
2.38203e-05
2.38158e-05
2.38243e-05
2.38288e-05
2.38216e-05
2.38261e-05
7.73887e-05
7.73775e-05
0.000174754
7.74277e-05
7.74159e-05
2.38343e-05
2.38294e-05
2.38316e-05
2.38266e-05
0.00017486
7.7462e-05
7.74507e-05
7.74242e-05
7.74122e-05
9.888e-05
5.05807e-05
9.87946e-05
5.05905e-05
0.000140875
0.000102261
0.000195773
0.000189945
0.000140582
0.000102374
0.000196317
0.000140869
0.00010224
0.000195772
0.000189905
0.000140579
0.000102342
0.000196307
9.88886e-05
5.06089e-05
5.05979e-05
9.89545e-05
9.88848e-05
5.06038e-05
5.05925e-05
9.89506e-05
0.000140902
0.000190274
0.000102462
0.000197206
0.000102369
0.000196755
0.000141118
0.000140895
0.000190224
0.000102436
0.000197193
0.000102336
0.00019674
0.000141112
7.73658e-05
7.73868e-05
0.000174736
7.73993e-05
7.74167e-05
2.38228e-05
2.38273e-05
2.3832e-05
2.38267e-05
0.000174833
7.7443e-05
7.74563e-05
7.73927e-05
7.74124e-05
2.38331e-05
2.38279e-05
0.000140871
0.000102251
0.000195771
0.000189944
0.000140579
0.000102362
0.000196316
9.88731e-05
5.05773e-05
9.87815e-05
5.05871e-05
0.000140864
0.000195769
0.000102243
0.000189912
0.000140575
0.00019631
0.000102347
9.88834e-05
5.06037e-05
5.05926e-05
9.89491e-05
0.000140897
0.000190273
0.000102449
0.000197206
0.000102357
0.000196754
0.000141111
9.88718e-05
5.06003e-05
5.0589e-05
9.89454e-05
0.000140891
0.000190237
0.0001972
0.000102439
0.000196745
0.000102342
0.000141106
9.88784e-05
5.05825e-05
9.88074e-05
5.05921e-05
0.000140874
0.000195836
0.000102265
0.000189916
0.000140609
0.000196329
0.000102346
9.88761e-05
5.05792e-05
9.88072e-05
5.05886e-05
0.000140897
0.000190247
0.000102449
0.000197166
0.000102355
0.000196731
0.000141092
9.88806e-05
5.06056e-05
5.0594e-05
9.89407e-05
0.000140894
0.000190199
0.000197148
0.000102431
0.000196719
0.000102338
0.000141086
9.88786e-05
5.06025e-05
5.05906e-05
9.89375e-05
7.73712e-05
7.73886e-05
0.000174744
7.74061e-05
7.74215e-05
2.38224e-05
2.38269e-05
2.38307e-05
2.38256e-05
0.000174844
7.74457e-05
7.74606e-05
7.74022e-05
7.74173e-05
2.38326e-05
2.38275e-05
0.00014087
0.00019582
0.000102258
0.000189923
0.000140599
0.00019632
0.000102341
9.88758e-05
5.05816e-05
9.87998e-05
5.05913e-05
9.88746e-05
5.05778e-05
9.88028e-05
5.05872e-05
0.000140895
0.00019026
0.000197183
0.000102455
0.000196737
0.000102359
0.000141095
0.000140891
0.000190209
0.000197157
0.000102427
0.000196719
0.000102333
0.000141088
9.88787e-05
5.06046e-05
5.05932e-05
9.89409e-05
9.8878e-05
5.06011e-05
5.05892e-05
9.89377e-05
2.38217e-05
2.38262e-05
2.38208e-05
2.38253e-05
0.000174811
7.74465e-05
7.74414e-05
7.7399e-05
7.73928e-05
2.38322e-05
2.38268e-05
2.38313e-05
2.38259e-05
2.3835e-05
2.384e-05
2.38322e-05
2.38373e-05
7.74623e-05
7.74505e-05
0.000175974
7.75442e-05
7.75326e-05
2.38448e-05
2.38405e-05
2.3842e-05
2.38378e-05
0.000176185
7.75928e-05
7.75816e-05
7.75504e-05
7.75382e-05
9.90717e-05
5.06061e-05
9.89584e-05
5.06179e-05
0.000141437
0.00010246
0.000197789
0.000191746
0.000141143
0.000102623
0.000198523
0.000141434
0.000102436
0.000197781
0.000191731
0.000141137
0.000102608
0.00019852
9.90887e-05
5.06343e-05
5.06249e-05
9.92022e-05
9.90867e-05
5.06289e-05
5.06198e-05
9.91987e-05
0.000141484
0.000192352
0.00010277
0.000199962
0.000102632
0.0001993
0.000141828
0.000141481
0.000192338
0.000102744
0.000199955
0.000102617
0.000199297
0.000141825
7.74477e-05
7.74599e-05
0.000175973
7.75275e-05
7.75469e-05
2.38338e-05
2.38387e-05
2.38421e-05
2.38379e-05
0.000176193
7.7564e-05
7.75899e-05
7.75336e-05
7.75534e-05
2.38433e-05
2.38392e-05
0.00014143
0.000102448
0.000197786
0.000191746
0.000141136
0.000102611
0.000198521
9.90648e-05
5.06026e-05
9.89451e-05
5.06143e-05
0.000141426
0.000197787
0.00010244
0.000191745
0.000141133
0.000198527
0.000102611
9.90838e-05
5.06291e-05
5.06197e-05
9.9197e-05
0.000141477
0.000192356
0.000102758
0.000199965
0.00010262
0.0001993
0.000141822
9.90729e-05
5.06253e-05
5.06162e-05
9.91881e-05
0.000141475
0.000192353
0.000199968
0.000102749
0.000199306
0.00010262
0.000141816
9.90767e-05
5.0608e-05
9.89495e-05
5.06201e-05
0.000141429
0.00019774
0.000102432
0.000191727
0.000141115
0.0001985
0.000102626
9.90757e-05
5.06049e-05
9.89469e-05
5.06173e-05
0.000141486
0.000192371
0.000102772
0.000199969
0.000102639
0.000199303
0.000141849
9.90939e-05
5.06309e-05
5.06219e-05
9.92107e-05
0.000141485
0.000192363
0.000199976
0.000102773
0.000199303
0.000102639
0.00014185
9.90936e-05
5.06279e-05
5.06192e-05
9.92111e-05
7.74491e-05
7.74628e-05
0.000175986
7.75323e-05
7.75481e-05
2.38332e-05
2.38382e-05
2.38409e-05
2.38367e-05
0.000176203
7.75743e-05
7.75903e-05
7.75386e-05
7.75539e-05
2.38428e-05
2.38386e-05
0.000141427
0.00019775
0.000102428
0.00019174
0.000141116
0.000198508
0.000102619
9.90739e-05
5.06069e-05
9.89496e-05
5.06188e-05
9.90729e-05
5.06035e-05
9.89475e-05
5.06157e-05
0.000141485
0.000192383
0.000199979
0.00010277
0.000199314
0.00010264
0.00014184
0.000141482
0.000192374
0.000199978
0.000102765
0.000199307
0.000102632
0.000141841
9.90905e-05
5.06296e-05
5.06207e-05
9.92052e-05
9.90908e-05
5.06263e-05
5.06176e-05
9.92053e-05
2.38329e-05
2.38379e-05
2.38319e-05
2.38369e-05
0.000176199
7.75897e-05
7.75823e-05
7.75554e-05
7.75488e-05
2.38423e-05
2.38383e-05
2.38414e-05
2.38374e-05
2.38452e-05
2.38499e-05
2.38425e-05
2.38471e-05
7.75888e-05
7.75775e-05
0.000177195
7.75965e-05
7.7585e-05
2.38558e-05
2.38506e-05
2.38531e-05
2.38478e-05
0.000177253
7.76825e-05
7.76716e-05
7.75942e-05
7.75821e-05
9.92466e-05
5.06304e-05
9.92037e-05
5.06399e-05
0.000142058
0.000102765
0.000200419
0.000193345
0.00014186
0.000102817
0.000200734
0.000142053
0.000102738
0.000200408
0.000193317
0.000141856
0.00010279
0.000200725
9.92481e-05
5.06594e-05
5.06473e-05
9.93208e-05
9.92449e-05
5.06541e-05
5.0642e-05
9.93177e-05
0.000142066
0.000193652
0.00010294
0.000201653
0.000102808
0.000201089
0.00014226
0.000142061
0.000193645
0.000102926
0.000201657
0.000102782
0.000201087
0.000142256
7.75569e-05
7.75851e-05
0.00017719
7.75763e-05
7.75907e-05
2.38438e-05
2.38485e-05
2.38532e-05
2.38481e-05
0.000177249
7.76674e-05
7.76812e-05
7.75794e-05
7.759e-05
2.38544e-05
2.38492e-05
0.00014205
0.000102754
0.000200422
0.000193344
0.000141853
0.000102804
0.000200732
9.92392e-05
5.06269e-05
9.9189e-05
5.06364e-05
0.000142044
0.00020042
0.000102743
0.000193318
0.000141848
0.000200729
0.000102791
9.92422e-05
5.06542e-05
5.0642e-05
9.93145e-05
0.000142058
0.000193654
0.000102927
0.000201633
0.000102795
0.000201078
0.000142249
9.92329e-05
5.06508e-05
5.06385e-05
9.93089e-05
0.000142053
0.00019363
0.000201634
0.000102922
0.000201075
0.000102782
0.000142243
9.925e-05
5.06323e-05
9.92151e-05
5.06417e-05
0.000142067
0.000200437
0.000102767
0.000193354
0.000141882
0.000200756
0.000102802
9.92481e-05
5.06293e-05
9.92157e-05
5.06383e-05
0.000142075
0.000193686
0.00010294
0.00020169
0.000102803
0.000201118
0.000142257
9.92474e-05
5.0656e-05
5.06438e-05
9.93166e-05
0.000142074
0.000193669
0.000201687
0.000102926
0.000201119
0.000102793
0.000142253
9.92457e-05
5.06527e-05
5.06404e-05
9.93137e-05
7.75694e-05
7.75852e-05
0.000177188
7.75767e-05
7.75907e-05
2.38432e-05
2.3848e-05
2.38521e-05
2.38468e-05
0.000177243
7.76691e-05
7.76831e-05
7.75768e-05
7.75892e-05
2.38539e-05
2.38487e-05
0.000142058
0.000200436
0.000102759
0.000193361
0.000141873
0.000200752
0.000102796
9.92465e-05
5.06312e-05
9.92095e-05
5.06407e-05
9.92441e-05
5.06277e-05
9.92103e-05
5.06368e-05
0.000142067
0.000193672
0.000201674
0.00010294
0.000201107
0.0001028
0.000142252
0.000142065
0.000193674
0.000201674
0.00010292
0.00020111
0.000102786
0.000142247
9.92442e-05
5.06551e-05
5.06428e-05
9.93159e-05
9.92422e-05
5.06512e-05
5.06389e-05
9.93121e-05
2.38427e-05
2.38474e-05
2.38418e-05
2.38465e-05
0.000177253
7.76739e-05
7.76675e-05
7.7581e-05
7.75753e-05
2.38534e-05
2.38481e-05
2.38524e-05
2.38472e-05
2.38563e-05
2.38601e-05
2.38536e-05
2.38574e-05
7.76983e-05
7.76873e-05
0.0001786
7.77461e-05
7.77362e-05
2.38644e-05
2.38604e-05
2.38617e-05
2.38577e-05
0.000178744
7.77225e-05
7.77123e-05
7.77429e-05
7.7733e-05
9.94675e-05
5.06562e-05
9.93305e-05
5.06651e-05
0.000142662
0.000102959
0.000202451
0.000195538
0.000142295
0.000103134
0.000203321
0.000142658
0.000102947
0.000202455
0.000195516
0.000142291
0.000103104
0.000203318
9.94815e-05
5.06788e-05
5.06718e-05
9.95226e-05
9.94779e-05
5.06734e-05
5.06662e-05
9.95185e-05
0.000142708
0.000195996
0.000103146
0.000204411
0.000103133
0.000204025
0.000142935
0.000142704
0.00019595
0.00010311
0.000204386
0.000103101
0.00020401
0.000142928
7.7682e-05
7.76969e-05
0.000178594
7.77159e-05
7.77391e-05
2.38548e-05
2.38586e-05
2.38619e-05
2.38577e-05
0.000178722
7.76908e-05
7.77125e-05
7.77103e-05
7.77354e-05
2.38631e-05
2.38589e-05
0.000142657
0.000102946
0.00020243
0.000195541
0.000142285
0.000103123
0.00020331
9.94602e-05
5.06529e-05
9.93162e-05
5.06619e-05
0.00014265
0.000202431
0.000102942
0.000195524
0.000142281
0.00020331
0.000103115
9.94791e-05
5.06734e-05
5.06666e-05
9.95211e-05
0.000142705
0.000196011
0.000103136
0.000204433
0.000103123
0.00020403
0.000142938
9.94685e-05
5.06699e-05
5.0663e-05
9.95115e-05
0.000142699
0.000195982
0.000204426
0.000103126
0.000204026
0.000103114
0.000142932
9.94677e-05
5.06581e-05
9.93298e-05
5.06669e-05
0.000142655
0.000202476
0.000102946
0.000195516
0.00014229
0.000203321
0.000103118
9.94666e-05
5.06548e-05
9.93275e-05
5.0664e-05
0.000142704
0.000195974
0.000103134
0.000204363
0.000103125
0.000204001
0.000142927
9.94782e-05
5.06752e-05
5.0668e-05
9.95179e-05
0.000142702
0.000195945
0.000204361
0.000103129
0.000203994
0.000103117
0.000142926
9.94775e-05
5.06722e-05
5.06652e-05
9.95173e-05
7.76859e-05
7.76988e-05
0.000178602
7.77309e-05
7.77434e-05
2.38544e-05
2.38582e-05
2.38607e-05
2.38567e-05
0.000178742
7.77055e-05
7.77182e-05
7.77275e-05
7.77398e-05
2.38625e-05
2.38585e-05
0.000142653
0.000202461
0.00010294
0.000195527
0.000142285
0.000203314
0.000103113
9.94678e-05
5.06572e-05
9.93292e-05
5.0666e-05
9.94658e-05
5.06534e-05
9.93262e-05
5.06625e-05
0.000142704
0.000196
0.000204395
0.000103139
0.000204012
0.000103128
0.00014293
0.000142701
0.000195961
0.000204376
0.000103124
0.000203998
0.000103111
0.000142926
9.94784e-05
5.06741e-05
5.0667e-05
9.95185e-05
9.94767e-05
5.06707e-05
5.06637e-05
9.95164e-05
2.38539e-05
2.38577e-05
2.38529e-05
2.38567e-05
0.000178712
7.77095e-05
7.77036e-05
7.77299e-05
7.77245e-05
2.38621e-05
2.3858e-05
2.38612e-05
2.38571e-05
2.3865e-05
2.38711e-05
2.38623e-05
2.38683e-05
7.77079e-05
7.76978e-05
0.000179256
7.77481e-05
7.77349e-05
2.38762e-05
2.38718e-05
2.38735e-05
2.38691e-05
0.000179275
7.78969e-05
7.78858e-05
7.77779e-05
7.77647e-05
9.95054e-05
5.06752e-05
9.95088e-05
5.0688e-05
0.000142978
0.000103126
0.000204538
0.000196325
0.00014293
0.000103148
0.00020464
0.000142973
0.000103089
0.000204514
0.000196295
0.000142922
0.000103133
0.000204625
9.95089e-05
5.07084e-05
5.06957e-05
9.9673e-05
9.95067e-05
5.07025e-05
5.06908e-05
9.96694e-05
0.000142975
0.000196704
0.000146666
0.000205679
0.000103156
0.000204981
0.00016962
0.000142971
0.000196709
0.000159479
0.000205688
0.00010315
0.000204979
0.000169614
7.76738e-05
7.76975e-05
0.000179232
7.77433e-05
7.77544e-05
2.38637e-05
2.38698e-05
2.38735e-05
2.38693e-05
0.000179272
7.78784e-05
7.7897e-05
7.77689e-05
7.77853e-05
2.38747e-05
2.38705e-05
0.000142976
0.000103116
0.000204563
0.000196333
0.000142932
0.000103135
0.000204653
9.94992e-05
5.06716e-05
9.95017e-05
5.0684e-05
0.000142971
0.000204557