/*--------------------------------*- C++ -*----------------------------------*\
| =========                 |                                                 |
| \\      /  F ield         | OpenFOAM: The Open Source CFD Toolbox           |
|  \\    /   O peration     | Version:  v2006                                 |
|   \\  /    A nd           | Website:  www.openfoam.com                      |
|    \\/     M anipulation  |                                                 |
\*---------------------------------------------------------------------------*/
FoamFile
{
    version     2.0;
    format      ascii;
    class       surfaceScalarField;
    location    "375";
    object      phi;
}
// * * * * * * * * * * * * * * * * * * * * * * * * * * * * * * * * * * * * * //

dimensions      [0 3 -1 0 0 0 0];
oriented        oriented;


internalField   nonuniform List<scalar> 
41407
(
-1.15233e-06
6.69792e-08
-1.97657e-07
1.29636e-06
2.54546e-07
8.85575e-07
-1.82632e-07
2.34611e-07
-0.001132
1.01159e-07
-8.24931e-07
-1.25674e-06
-2.83888e-07
-2.19106e-07
-2.21501e-07
1.1838e-06
2.36059e-07
-1.80509e-07
-8.2833e-07
8.87435e-07
2.36864e-07
-0.00113165
-1.85909e-07
-2.07914e-07
0.000268064
-0.000270079
-6.35052e-08
-0.00118381
-9.5369e-08
3.2694e-09
7.536e-09
9.80248e-05
-9.80356e-05
-7.18235e-09
-1.42473e-08
6.99217e-08
0.000245463
-0.000245511
-5.99544e-10
1.635e-08
-9.27745e-10
0.0001936
-0.000193612
1.7036e-08
-5.55327e-09
5.8077e-10
0.00022931
-4.58786e-11
-0.000229322
-1.17021e-07
-7.33447e-07
-9.13516e-07
9.83632e-07
8.03912e-07
-0.00115231
-2.81152e-09
-7.38072e-09
6.53184e-08
-6.01852e-10
0.00024537
-0.000245411
1.2926e-07
3.13363e-09
0.000250063
-0.000250177
-1.45288e-09
1.19296e-08
-5.80946e-09
0.000278159
-0.000278164
-5.57672e-09
1.65099e-08
-4.79192e-09
0.000278273
-0.000278286
2.90797e-09
9.80396e-05
-9.80481e-05
0.000193653
-0.000193663
-1.30472e-09
-9.09619e-09
-2.89343e-10
2.2418e-08
0.000263177
-0.000263191
-5.61419e-10
7.92602e-05
-7.92688e-05
5.09921e-10
0.000171089
7.68353e-11
-0.000171095
-6.71661e-09
2.10001e-08
0.000223304
-0.000223318
0.000143347
-0.000143353
-1.02258e-08
4.18945e-08
1.82063e-08
0.000250572
-0.00025061
6.43384e-09
-4.0365e-09
0.000183026
-0.000183034
-4.64913e-09
1.92515e-08
0.000221862
-0.00022188
-2.96488e-08
-0.000221939
2.00513e-08
-4.29349e-08
1.77913e-08
0.000250725
-7.58389e-09
4.60581e-08
1.59423e-08
-0.000250763
8.58294e-09
0.000183087
-3.71949e-09
-0.000183097
-3.53359e-08
6.80991e-09
1.13819e-08
-1.52328e-08
-7.95861e-08
-4.14325e-08
-4.34444e-09
2.14453e-08
-0.000221955
5.15604e-09
2.73629e-09
8.05522e-05
-8.0559e-05
3.05176e-09
8.05686e-05
-8.05754e-05
0.00021378
-0.000213784
-4.63265e-09
2.12735e-09
-3.33692e-08
-4.9423e-08
1.70265e-08
-0.000263308
-1.87212e-09
-1.17827e-07
-0.000242848
-1.01028e-07
4.76842e-08
-8.11834e-08
0.000261124
-0.000261408
0.000260762
-7.16479e-08
-0.00026105
2.24352e-07
2.49288e-07
-0.00024296
8.39854e-08
6.74618e-10
-0.00121505
-2.76881e-07
1.80017e-08
1.82685e-07
-0.000263972
-9.13586e-09
0.000260361
-2.09621e-09
-0.000260456
-1.04789e-07
-9.48068e-09
-0.000250725
-6.07877e-09
-2.48144e-09
0.00026027
-0.000260364
1.36605e-07
-3.50544e-09
0.000250625
-0.000250737
-7.76417e-09
0.000263899
-0.000264586
5.84073e-09
0.000265816
-0.000266423
-3.38087e-09
1.49077e-07
0.000249442
-0.000249571
0.000265591
-0.000266357
-5.59777e-08
-0.000229373
2.05047e-08
8.76669e-10
4.61138e-09
-3.30584e-08
2.01116e-09
-0.000193689
4.59087e-09
-3.31006e-08
-0.000193664
-1.14685e-08
-9.80569e-05
-1.14714e-08
-9.80436e-05
-1.27257e-06
-1.22521e-06
-0.000268084
2.34789e-07
2.42342e-07
-1.4657e-08
5.98397e-09
-0.000278294
-3.79499e-08
-1.22732e-08
5.93075e-09
-0.00027822
-3.78206e-08
-0.00025011
1.29463e-09
-1.8767e-07
-3.32494e-08
-1.22095e-06
2.52199e-07
-2.10714e-07
-8.29416e-07
2.32732e-07
-1.81698e-07
8.89002e-07
-0.00113154
-8.59295e-09
-0.000245489
-1.04874e-07
-9.14422e-07
8.03328e-07
-7.3141e-07
9.85665e-07
-0.00115237
-1.18377e-06
2.41727e-07
-2.07624e-07
2.32771e-07
-1.7643e-07
-0.00113243
-0.000245446
-1.04998e-07
-8.93295e-10
4.95754e-09
0.000143437
8.68687e-10
-0.000143442
-3.76872e-09
3.42761e-10
1.72301e-08
-0.000229387
-0.000171147
-3.37749e-10
-0.000223427
1.96045e-08
2.02564e-09
-5.76948e-08
-0.000171152
-1.8421e-09
2.12494e-08
-0.000223441
6.02508e-10
9.5276e-09
7.93122e-05
-7.93208e-05
-0.000263323
1.46729e-08
-4.92552e-08
-1.17419e-09
-3.03607e-09
1.47028e-08
-0.0001937
2.25899e-08
-0.000263339
-3.03589e-09
1.46289e-08
-0.000193675
-4.31851e-09
-1.38888e-08
5.59814e-09
-9.80655e-05
5.59144e-09
-9.80522e-05
-2.60181e-09
-2.60184e-09
0.000213803
2.22152e-09
4.31501e-09
-0.000213805
-8.05759e-05
-7.34495e-09
-4.98661e-09
-8.0558e-05
-7.32312e-09
-5.00664e-09
4.08658e-09
-8.05826e-05
4.08214e-09
-8.05647e-05
-1.56307e-08
-1.77935e-08
-8.85271e-09
0.000221961
8.12903e-09
1.90632e-08
-0.000221977
-0.000183103
-2.20694e-08
-5.34007e-09
1.42487e-08
8.02126e-09
-0.000278306
2.67643e-08
-0.000250734
-7.97247e-08
-4.12612e-08
-0.000183113
-4.51222e-08
4.37813e-08
1.86882e-08
-0.000250774
-9.06536e-09
0.00022189
1.29067e-08
1.70502e-08
-0.000221906
-0.000183039
-2.21178e-08
-7.97433e-09
1.43409e-08
5.53536e-09
-0.000278227
2.67897e-08
-0.000250628
-8.18764e-08
-3.63941e-08
-0.000183052
-4.53457e-08
4.16347e-08
1.58663e-08
-0.000250658
-1.50509e-08
-1.50367e-10
2.62057e-09
-3.57389e-08
-1.55658e-09
-4.94595e-08
7.31958e-10
-2.16312e-08
2.24897e-08
5.38001e-10
-5.57095e-08
3.27499e-10
1.06288e-10
-5.76962e-08
2.23406e-08
-2.67998e-08
1.53207e-08
5.70069e-09
-3.75707e-08
-1.23399e-08
4.8221e-09
-3.61839e-08
7.10753e-09
6.77488e-09
0.000242874
7.14752e-08
7.87239e-08
-0.000242988
-1.9751e-07
-1.92702e-07
-0.000270098
1.08025e-07
-0.00026076
1.05904e-07
-0.000261179
-0.000261053
-0.000261459
-1.4602e-07
-2.40869e-09
0.000265663
4.28409e-09
-0.000266433
1.14218e-09
1.28549e-07
-0.000250222
-0.000249549
-2.01079e-07
5.57937e-09
-0.000265842
1.55521e-09
1.25106e-10
-0.000249673
-0.000266447
8.79083e-09
-1.38824e-07
1.78111e-09
0.000263981
-0.000264669
-0.000250745
-1.82599e-07
4.86324e-10
6.75685e-08
-0.000245534
-0.00026037
-1.51692e-08
-0.000250861
-0.000260463
6.75134e-08
-0.000245497
-0.000260353
-0.000260447
1.82347e-07
2.07589e-08
-2.23921e-08
-9.26669e-09
-1.0239e-07
-8.40046e-09
-7.33877e-09
2.02867e-07
-1.84043e-07
3.2072e-09
3.24773e-10
6.15062e-10
-1.21029e-06
-1.30538e-06
0.000270167
-0.000268134
2.55351e-07
2.27556e-07
-2.61676e-07
-0.00113281
-1.55031e-07
-1.25879e-06
2.37991e-07
-2.27128e-07
-8.32346e-07
2.35515e-07
-1.80687e-07
8.86314e-07
0.00113315
0.00113315
4.19378e-08
-0.00113367
1.83457e-07
-1.15381e-06
2.59867e-07
-1.99841e-07
-8.40004e-07
2.30254e-07
-1.91434e-07
8.89372e-07
1.22863e-06
-1.99084e-07
-1.96909e-07
0.000268135
1.19944e-06
-2.1305e-07
1.26729e-06
2.46272e-07
8.89364e-07
-1.85727e-07
-8.37029e-07
2.32991e-07
-8.65754e-08
-3.83727e-08
0.0011331
-0.00118735
2.96428e-08
-5.46753e-09
0.0011871
-0.000193013
-2.96506e-09
1.4144e-08
-2.279e-09
0.000193004
-1.32468e-08
-4.69877e-09
9.77106e-05
-9.76926e-05
3.86297e-09
3.18364e-09
9.76818e-05
-1.3302e-08
-4.66466e-09
9.76977e-05
-9.76797e-05
6.38481e-09
3.18184e-09
9.76687e-05
1.23445e-06
1.19542e-06
0.000268132
-2.00193e-07
-2.07582e-07
-1.38858e-08
0.000277471
-3.71568e-08
-0.000277443
9.82459e-09
-1.63957e-08
0.000277391
-3.48584e-08
-0.000277361
7.24432e-09
4.81096e-09
-4.82473e-09
1.09009e-08
0.000277416
6.83352e-09
-4.98701e-09
1.83109e-08
0.000277339
-7.93457e-12
1.79659e-08
-3.08137e-09
1.43721e-09
0.000228719
-3.4481e-08
-0.000193011
1.06942e-09
0.000193039
1.42567e-08
-1.98895e-09
0.000192987
-2.04469e-10
-5.67159e-08
-0.000228736
2.18525e-08
1.94542e-09
0.00022877
1.79339e-08
-3.06514e-09
1.28987e-09
0.00022868
1.64181e-08
-3.0976e-09
-2.16331e-09
0.000192928
-5.67292e-08
-0.000228697
2.18593e-08
1.66014e-09
0.00022873
5.0186e-10
3.35939e-09
1.37538e-07
0.00024971
-5.88376e-08
-8.09064e-08
1.26655e-06
-2.14005e-07
2.48494e-07
8.8593e-07
-1.83901e-07
2.32479e-07
-8.32999e-07
-1.05921e-07
-0.000244861
-1.02644e-08
0.000244928
-0.00115453
-5.3042e-08
-5.0536e-08
-9.23952e-07
8.00755e-07
-7.43976e-07
9.8045e-07
0.00115437
-9.83915e-11
6.55533e-08
0.000244844
-1.21668e-08
-6.40408e-08
9.79928e-07
-7.42192e-07
-9.22161e-07
8.00105e-07
-1.79757e-09
-0.00024972
2.60376e-09
-1.86706e-07
0.00024985
1.51371e-09
1.37482e-07
0.000249686
-2.38799e-08
-1.22704e-06
-8.1634e-08
8.88727e-07
-1.86541e-07
-8.35298e-07
2.32535e-07
1.26363e-06
-2.16969e-07
2.4833e-07
0.00113287
-0.00115449
-6.85569e-08
-9.26528e-07
8.00789e-07
-7.43917e-07
9.83108e-07
1.93482e-08
0.00115437
-4.60957e-09
2.20869e-09
6.78999e-08
0.00024475
-6.41827e-08
9.82557e-07
-7.44868e-07
-9.24654e-07
8.00149e-07
-0.000249694
2.37952e-09
-1.89284e-07
0.000249822
6.116e-09
9.76622e-05
1.19204e-06
0.000268127
-1.97272e-07
-2.02502e-07
-7.50838e-09
1.3308e-08
0.0002773
-3.93394e-09
4.51873e-09
-5.32932e-09
1.111e-08
0.000277424
3.08008e-09
9.76752e-05
1.79448e-08
1.55341e-10
1.29844e-09
-5.16663e-09
0.000228715
-0.00022873
-3.45052e-08
-0.000192984
1.12257e-09
1.88952e-08
-2.56983e-09
0.000192967
-5.67373e-08
7.93909e-11
-0.000228733
1.58936e-09
2.18728e-08
0.000228766
1.56144e-09
2.53193e-09
1.37562e-07
0.000249704
-0.000249828
-3.61118e-08
-5.86864e-08
1.22953e-06
-2.16911e-07
2.43219e-07
8.83589e-07
-1.94697e-07
2.27253e-07
-8.43231e-07
0.000244883
-1.03475e-07
-0.00024482
-1.0403e-08
-0.0011544
6.05138e-08
-8.74784e-08
-9.2653e-07
8.00799e-07
-7.43893e-07
9.83276e-07
0.00115449
-3.21415e-10
7.76761e-08
0.000244811
8.48824e-09
-4.74168e-08
9.771e-07
-7.47526e-07
-9.30091e-07
7.97458e-07
-0.00115449
-4.44453e-10
-0.000249713
9.33048e-10
-1.84142e-07
0.00024984
2.03584e-08
-7.19399e-09
1.19287e-09
0.000228678
-0.000228692
1.64875e-08
-3.23275e-09
-2.02228e-09
0.000192916
-0.000192928
-5.66673e-08
-0.000228695
2.38846e-08
2.02734e-09
0.000228726
1.37556e-07
2.03554e-09
0.000249681
-0.000249798
-3.6197e-08
-1.22689e-06
-8.19795e-08
8.83361e-07
-1.83834e-07
-8.32649e-07
2.2994e-07
1.26375e-06
-2.16854e-07
2.48448e-07
-0.00113285
0.0011328
-0.00115438
-6.29743e-08
-9.23764e-07
8.00778e-07
-7.43938e-07
9.80383e-07
4.26775e-08
0.00115435
-5.88378e-08
9.77129e-07
-7.4759e-07
-9.24626e-07
7.97452e-07
-0.00115445
-7.13897e-09
-9.59791e-11
7.02744e-08
0.000244745
-0.000244792
-0.00024969
-1.84126e-07
3.54306e-09
0.000249813
-1.53208e-08
1.5239e-09
2.71471e-09
1.34748e-07
0.000249706
-3.17111e-08
-8.15884e-08
1.22973e-06
-2.08197e-07
2.40771e-07
8.80727e-07
-1.83815e-07
-8.29975e-07
2.29898e-07
0.00113337
-1.41971e-08
-3.35603e-10
6.78614e-08
0.000244848
2.14244e-09
-6.02735e-08
9.77288e-07
-7.41783e-07
-9.21676e-07
7.9764e-07
0.0011543
1.42439e-10
1.36367e-09
-2.96655e-09
0.00022872
-2.10808e-09
0.000192975
-1.53203e-08
1.34746e-07
2.02214e-09
0.000249682
-3.0407e-08
-1.22101e-06
-8.18842e-08
8.8339e-07
-1.86379e-07
-8.32479e-07
2.3261e-07
1.25839e-06
-2.11057e-07
2.43099e-07
0.00113244
-6.05034e-08
9.77366e-07
-7.41788e-07
-9.21624e-07
7.97705e-07
0.00115425
-1.42121e-08
-6.98662e-09
-2.63776e-10
7.01586e-08
0.000244782
-2.98108e-09
1.32385e-09
0.000228682
-3.04932e-09
-2.19663e-09
0.000192925
6.2232e-09
9.76574e-05
-9.76669e-05
1.18933e-06
0.000268117
-1.94759e-07
-2.024e-07
-0.000270136
-5.53533e-09
1.10849e-08
0.000277302
-0.000277308
-3.9274e-09
7.00179e-09
-4.89121e-09
1.34165e-08
0.000277418
-0.00027743
3.11438e-09
9.76725e-05
-9.76795e-05
7.36549e-10
-1.78175e-08
1.34816e-07
2.95508e-09
0.000249703
-0.000249823
-3.22285e-08
-8.22603e-08
1.22701e-06
-2.10956e-07
2.43496e-07
8.83421e-07
-1.86509e-07
-8.32575e-07
2.32651e-07
-0.00113333
0.00113328
3.50671e-09
-6.62182e-08
9.77309e-07
-7.41855e-07
-9.21746e-07
7.97632e-07
0.00115419
-0.00115427
-1.4228e-08
-2.76346e-10
6.79045e-08
0.000244845
-0.000244891
-1.78006e-08
1.34743e-07
1.48276e-09
0.000249677
-0.000249794
-2.96659e-08
-1.1816e-06
-8.31598e-08
8.83467e-07
-1.86261e-07
-8.32141e-07
2.32819e-07
1.21855e-06
-2.08531e-07
2.40432e-07
0.00113346
-6.66794e-08
9.77166e-07
-7.41743e-07
-9.2138e-07
7.97689e-07
0.00115411
-0.00115419
-1.41949e-08
-4.53576e-09
-2.59756e-10
7.01115e-08
0.00024475
8.09331e-11
1.52718e-09
-5.06675e-09
0.000228717
-0.000228731
-2.07003e-09
0.00019297
-0.000192979
1.31545e-09
-2.99982e-09
0.000228678
-0.000228694
-2.99881e-09
-2.2278e-09
0.000192919
0.000268102
-1.92165e-07
-2.02301e-07
-3.95787e-09
-4.83619e-09
1.33407e-08
0.000277383
-3.98683e-09
-4.76227e-09
1.33054e-08
0.000277303
9.76642e-05
9.76589e-05
4.01872e-09
9.77036e-05
2.94309e-09
4.00818e-09
9.76907e-05
8.78386e-09
-7.76044e-09
0.00027747
4.43082e-09
6.73894e-09
1.10538e-08
-5.16725e-09
0.000277383
6.99252e-08
-6.35101e-10
0.000244835
8.56954e-09
7.89888e-05
-8.25139e-10
-0.000262399
1.6182e-08
0.000262435
-4.83588e-08
-3.15669e-09
2.47418e-08
-1.40508e-09
7.90054e-05
-4.38973e-10
-7.90161e-05
-1.61604e-08
-5.40118e-10
7.90328e-05
-8.50787e-09
0.000262471
-0.000262483
1.96361e-08
-1.73146e-09
1.04619e-09
4.74072e-09
-3.44472e-08
0.000193032
-7.90236e-05
-9.6184e-10
-4.84239e-08
-3.43485e-09
0.000262508
-9.76997e-05
3.99149e-09
3.0454e-09
-1.32857e-08
-4.59818e-09
-9.76866e-05
3.92301e-09
3.0286e-09
-1.33304e-08
-4.58744e-09
-0.000213133
8.21543e-09
7.65378e-09
-1.65948e-08
-1.87806e-08
0.000213152
1.71039e-09
8.02951e-05
3.58265e-09
2.21408e-09
8.02826e-05
3.55273e-09
1.4137e-09
3.68119e-09
-5.51734e-09
8.03088e-05
-5.66156e-09
8.02959e-05
-5.24932e-09
1.28568e-08
0.000221397
-0.000221417
-3.59571e-09
1.64217e-08
-0.00025026
2.98803e-08
0.000250315
-8.46575e-08
-3.76391e-08
-7.8594e-09
1.09977e-08
-0.000277447
4.57523e-09
-0.000182503
-2.28059e-08
5.55598e-09
0.00018253
-0.000182512
-3.60624e-09
-0.000250297
4.05569e-08
1.98955e-08
1.86748e-08
0.000221432
-4.70113e-08
-7.02257e-09
5.76056e-09
0.000221329
-0.00022135
-1.40374e-09
2.30225e-08
-0.000250132
2.73565e-08
0.000250193
-8.02162e-08
-4.26432e-08
-4.8249e-09
1.33193e-08
-0.000277372
6.85639e-09
-0.000182448
-2.24737e-08
5.69665e-09
0.000182472
-0.000182457
-3.49007e-09
-0.00025018
4.93568e-08
1.75509e-08
1.67279e-08
0.000221367
-4.9247e-08
-0.00022138
2.47476e-08
-2.9956e-08
-4.9016e-08
6.98551e-09
0.000182484
-5.42281e-09
0.000250246
4.27354e-08
1.4995e-08
9.24373e-09
-3.94419e-08
-1.36952e-08
1.87253e-08
-8.20128e-08
-3.76515e-08
-0.000221319
2.25156e-08
-2.71511e-08
-4.48177e-08
7.07598e-09
0.000182433
-1.10074e-08
0.00025013
5.49952e-08
2.02069e-08
7.0749e-09
-3.69627e-08
-1.62875e-08
2.33184e-08
-7.7373e-08
-3.73341e-08
-1.692e-09
-2.1963e-09
0.000213151
-8.03035e-05
-8.14343e-09
8.03172e-05
-8.02902e-05
-7.69207e-09
8.03036e-05
0.00021317
-0.000142884
3.52626e-10
-2.06591e-08
4.72344e-10
0.000142904
9.38319e-10
0.000170496
1.01365e-11
-4.4281e-09
0.000222744
1.38829e-09
2.2093e-08
2.17721e-08
1.86725e-09
0.000228752
-7.19258e-11
-5.64981e-08
8.42095e-10
0.000170518
6.36667e-12
5.3196e-09
0.000222778
-5.81071e-08
7.90073e-05
8.52813e-09
-7.90149e-05
-9.31944e-10
-1.74791e-09
-0.000193018
1.1965e-08
1.6161e-08
-0.000262448
-3.37603e-09
-5.08588e-08
0.000262487
-5.53157e-10
7.9024e-05
-0.000262459
-1.53555e-09
1.96628e-08
-7.89982e-05
-1.621e-08
-8.49301e-09
0.000262421
2.21576e-08
-1.24611e-09
-3.44511e-08
-5.05095e-08
0.0001429
-9.83055e-10
4.31571e-09
-2.94781e-09
1.27993e-09
-1.76168e-10
1.76409e-08
-3.03133e-10
-0.000170514
-4.01288e-12
0.000170536
2.07241e-08
-0.00022276
-5.83395e-08
0.000222797
0.00014292
2.38308e-13
2.18156e-08
-0.000142812
4.50166e-10
-2.0644e-08
5.17041e-10
0.000142832
9.99754e-10
0.000170462
-4.42545e-09
0.000222647
1.52123e-09
1.96596e-08
2.17834e-08
1.5382e-09
0.000228713
-5.65321e-08
8.92973e-10
0.000170484
3.27099e-09
0.00022268
-5.57244e-08
-7.89531e-05
-1.6172e-08
7.89698e-05
-8.52066e-09
0.000262298
1.97297e-08
1.15731e-09
4.6564e-09
-3.66364e-08
0.000192959
-4.84656e-08
0.000262334
-1.05075e-09
4.3248e-09
0.000142828
9.77301e-10
-2.93474e-09
1.19868e-09
1.76197e-08
-0.00017048
-2.52233e-10
0.000170502
-0.000222665
2.06914e-08
-5.58604e-08
3.45892e-09
0.000222698
1.94064e-08
1.71002e-09
5.82887e-10
0.000142848
-1.54599e-08
9.76823e-05
-0.000213131
7.90948e-09
8.09658e-09
-1.87555e-08
-1.67172e-08
0.00021315
1.96255e-09
8.02825e-05
3.57653e-09
1.82767e-09
8.02936e-05
3.64231e-09
3.63551e-09
1.35738e-09
-5.52747e-09
8.0296e-05
-5.54799e-09
8.03072e-05
-2.96705e-08
-0.000221304
2.46789e-08
-4.71058e-08
0.000221337
7.20659e-09
0.000182425
0.000250086
-1.06923e-08
1.773e-08
4.49561e-08
-3.93022e-08
9.1198e-09
-1.36556e-08
0.000277329
-3.73058e-08
-8.23257e-08
0.000250136
1.86176e-08
0.000182454
-0.000221377
2.25343e-08
-2.76658e-08
-4.67446e-08
0.000221412
5.18402e-09
0.000182482
-7.85618e-09
0.000250257
4.26474e-08
1.48261e-08
7.21373e-09
-3.70803e-08
1.33304e-08
-1.39374e-08
0.000277454
1.87845e-08
0.000182506
-7.97112e-08
-3.51728e-08
0.000250307
-4.61083e-09
9.76932e-05
-0.00014288
-2.06618e-08
3.27193e-10
4.94611e-10
0.0001429
-4.43685e-09
0.000222738
1.48623e-09
2.21552e-08
-0.000222756
9.80861e-10
0.000170491
2.70681e-11
-0.000170497
1.76811e-09
2.17725e-08
0.000228748
7.6508e-11
-5.65261e-08
8.76495e-10
-0.000142885
3.26219e-09
0.000222771
-5.57135e-08
0.000170513
3.42822e-11
7.90069e-05
8.50502e-09
-7.90145e-05
-9.33235e-10
2.28017e-10
-0.000192995
1.41079e-08
1.61916e-08
-0.000262446
-3.37559e-09
-4.85129e-08
-5.37871e-10
-0.000262455
-1.6371e-09
1.94766e-08
-7.89978e-05
-1.62035e-08
-8.52552e-09
0.000262418
2.45702e-08
1.18497e-09
-3.44208e-08
-4.84679e-08
0.000142896
4.32068e-09
-8.44207e-10
6.90237e-10
-2.91856e-09
2.59559e-10
1.76122e-08
2.07289e-08
-0.000222755
-5.58869e-08
0.000222789
-3.05944e-10
-0.000170509
4.86498e-11
0.000170531
0.000142916
1.94207e-08
6.12365e-11
-0.000142807
2.81602e-10
-2.26559e-08
4.97019e-10
0.000142829
9.74382e-10
0.000170454
-0.000170462
-6.40171e-09
0.000222641
1.4092e-09
2.44801e-08
-0.00022266
2.37918e-08
1.91273e-09
0.000228711
-5.89168e-08
9.09904e-10
-0.000142813
0.000170478
3.25635e-09
0.000222678
-6.0548e-08
-7.89533e-05
-1.61905e-08
7.897e-05
-8.51692e-09
0.000262297
2.21718e-08
-0.000262311
1.20665e-09
4.67184e-09
-3.67451e-08
0.000192947
-7.89609e-05
-5.08281e-08
0.000262336
-1.03672e-09
6.29309e-09
0.000142823
1.00781e-09
-4.93735e-09
1.32347e-09
2.00379e-08
-0.000170472
-2.30246e-10
0.000170496
-0.00022266
2.27155e-08
-5.8257e-08
3.45369e-09
0.000222694
2.42175e-08
1.604e-09
5.72962e-10
0.000142845
-0.000142881
-2.26957e-08
3.6485e-10
6.51373e-10
0.000142903
-6.33332e-09
0.000222744
1.52586e-09
2.19391e-08
9.63986e-10
0.000170491
5.50638e-11
1.92794e-09
2.18302e-08
5.70118e-12
-5.41873e-08
0.00022875
7.12091e-10
3.31983e-09
-5.81894e-08
0.000222778
6.15517e-11
0.000170514
-7.89971e-05
-1.8367e-08
7.90161e-05
-1.06067e-08
0.000262428
2.20471e-08
1.19646e-09
-3.45238e-08
0.000193004
-5.0806e-08
0.000262465
-0.000142815
2.43099e-10
-2.06971e-08
5.79709e-10
0.000142834
1.0423e-09
0.00017046
-4.34402e-09
0.000222653
1.59849e-09
1.95001e-08
2.18315e-08
1.79575e-09
-5.41954e-08
0.000228712
9.62086e-10
0.000170482
3.37461e-09
-5.58363e-08
0.000222686
-7.89558e-05
-1.61459e-08
7.89725e-05
-8.54196e-09
0.000262308
1.97249e-08
1.07674e-09
4.68919e-09
-3.45103e-08
0.000192954
-4.84437e-08
0.000262345
-1.5664e-08
9.76778e-05
-0.00021313
8.02066e-09
7.99989e-09
-1.65651e-08
-1.66208e-08
0.000213147
1.85787e-09
8.02799e-05
3.685e-09
-8.02855e-05
1.89658e-09
8.02962e-05
3.62253e-09
-8.03018e-05
1.42526e-09
1.27331e-09
-0.000213129
-5.54723e-09
8.02935e-05
-5.55072e-09
8.03098e-05
-2.73561e-08
-0.000221303
2.25662e-08
-4.46402e-08
0.000221336
5.10608e-09
0.000182426
-0.000182433
0.000250088
-8.27233e-09
2.02734e-08
4.25536e-08
-0.000250131
-3.71451e-08
7.10439e-09
-1.60971e-08
0.000277332
-3.98857e-08
-7.98964e-08
0.000250143
1.62022e-08
-0.000221321
0.00018245
-0.000221381
2.44585e-08
-2.75553e-08
-4.67247e-08
0.000221414
7.11011e-09
0.000182486
-0.000182494
-7.93793e-09
0.000250253
4.51296e-08
1.98933e-08
-0.000250296
6.67298e-09
-3.93858e-08
1.33599e-08
-1.62908e-08
0.000277454
1.87336e-08
-0.000221399
0.000182512
-8.22544e-08
-4.01657e-08
0.000250308
-4.59988e-09
9.76904e-05
-0.000142879
-2.47332e-08
3.35014e-10
6.32532e-10
0.000142903
-8.41428e-09
0.000222744
1.46611e-09
2.19728e-08
-0.000222758
9.36959e-10
0.000170491
4.81001e-11
-0.000170497
1.67896e-09
2.3888e-08
1.50602e-10
-5.65785e-08
0.000228747
7.07052e-10
-0.000142887
3.27036e-09
-5.81479e-08
0.000222776
5.92905e-11
0.000170515
-7.89966e-05
-1.83821e-08
7.90156e-05
-1.05975e-08
0.000262428
2.20303e-08
-0.00026244
1.20159e-09
-3.45177e-08
0.000192999
-7.90065e-05
-5.08312e-08
0.000262465
-0.000142811
-2.06662e-08
2.54217e-10
5.46393e-10
0.000142831
-4.38935e-09
0.000222648
1.57146e-09
1.95673e-08
-0.000222663
1.03607e-09
0.000170458
-0.000170462
1.81545e-09
2.18234e-08
-5.66359e-08
0.000228711
9.22354e-10
-0.000142815
3.36699e-09
-5.578e-08
0.000222681
0.00017048
-7.8954e-05
-1.61868e-08
7.89707e-05
-8.50547e-09
0.000262302
1.96324e-08
1.02158e-09
4.75924e-09
-3.45287e-08
0.000192948
-4.85437e-08
0.000262339
-0.000213128
9.85721e-09
7.88095e-09
-1.88418e-08
-1.88985e-08
0.000213148
3.58748e-09
8.02933e-05
3.58534e-09
2.01699e-09
8.028e-05
3.50553e-09
3.72121e-09
3.52158e-09
-5.49653e-09
8.03086e-05
-5.66808e-09
8.02936e-05
-0.00022137
-2.74147e-08
2.64413e-08
-4.92456e-08
0.000221401
8.90592e-09
0.000182478
-7.97607e-09
0.000250211
1.75344e-08
4.50062e-08
-3.94114e-08
6.68251e-09
1.32998e-08
-1.6313e-08
0.000277419
2.10089e-08
-3.75151e-08
-8.22076e-08
0.000250264
0.000182506
-0.000221305
-2.74499e-08
2.44471e-08
-4.7014e-08
0.000221336
7.04926e-09
0.000182425
-8.04825e-09
0.000250098
1.50869e-08
4.23546e-08
-3.93062e-08
6.82892e-09
1.32218e-08
-1.39984e-08
0.000277337
1.87072e-08
-3.49802e-08
-7.97469e-08
0.000250146
0.00018245
9.76822e-05
9.76769e-05
-1.32038e-08
-4.74719e-09
9.77216e-05
-1.31671e-08
9.77086e-05
-0.000221414
2.27002e-08
-2.99295e-08
1.86312e-08
-4.4554e-08
0.000221448
-1.03927e-08
0.000250277
3.99233e-08
1.74617e-08
5.25714e-09
0.00018252
-3.54006e-09
9.91535e-09
-3.4725e-08
0.000277495
-1.40472e-08
-3.60105e-09
1.62149e-08
5.59336e-09
0.000182547
-7.74526e-08
0.000250327
-3.73578e-08
-0.000221344
2.23486e-08
-2.7262e-08
1.66227e-08
-4.6762e-08
0.000221379
-8.14456e-09
0.000250148
4.46986e-08
1.9899e-08
5.10103e-09
0.000182465
-3.42932e-09
7.29332e-09
-3.69237e-08
-1.64598e-08
0.000277416
-1.44968e-09
2.08913e-08
5.69056e-09
0.000182489
-7.96561e-08
-4.03583e-08
0.000250203
-0.000213169
8.03334e-09
7.66285e-09
0.000213189
1.78115e-09
8.03119e-05
2.17851e-09
8.0298e-05
8.03255e-05
8.03113e-05
8.36409e-08
6.92449e-08
0.000242476
-0.000242589
-1.81633e-07
-2.12292e-07
-0.000270153
-0.000260581
1.07153e-07
0.000260883
-0.000260982
1.1478e-07
0.000261275
-0.000260866
-0.000261276
0.000242601
-0.000242486
-1.094e-07
-1.09513e-07
0.000242614
-7.62905e-08
0.000260586
2.13351e-07
-7.63181e-08
0.000260986
2.39828e-07
2.37613e-07
-1.2376e-06
0.000270162
-2.46019e-07
0.000260885
0.000261281
-3.79114e-08
-6.69059e-08
-0.00121916
-2.01149e-07
-1.71803e-07
0.00121951
-0.00121949
2.00975e-07
1.86252e-07
0.00121901
-4.72493e-08
-3.25732e-08
1.22297e-08
1.7823e-08
-0.00121964
0.00125562
-2.54594e-08
1.83836e-08
-0.00125565
-1.51831e-07
1.5735e-07
0.00125562
-2.10596e-08
-3.15972e-08
0.0011872
-0.00121901
-3.92054e-08
-1.538e-09
0.00121881
-1.7032e-08
3.27483e-09
7.71865e-10
0.00121951
0.00125555
4.36194e-09
-0.0012556
2.41566e-08
-1.93188e-08
0.00125536
-3.91452e-08
-2.64077e-08
-0.00118715
0.00118705
-0.00121874
2.60502e-08
6.87581e-08
0.00121877
6.37163e-09
-0.00121883
-1.4667e-08
2.93607e-09
0.00121925
-0.00121933
0.00125504
-2.63339e-09
-0.00125503
-2.18437e-08
4.13325e-08
0.00125521
-3.359e-08
-3.2797e-08
0.00118705
-2.869e-09
0.00121867
-8.92799e-09
0.00121918
-0.00121927
0.00125496
-0.00125497
4.86003e-09
1.74699e-08
0.00125494
-0.000242464
-1.09556e-07
-1.09575e-07
2.37351e-07
2.37448e-07
-7.64756e-08
0.000260571
-8.22341e-08
0.000260982
-0.000265549
2.04959e-07
-5.62395e-09
9.53258e-09
0.00026632
1.52249e-07
0.00024909
4.97692e-09
6.13704e-09
0.000265785
-2.10258e-10
3.79196e-09
-1.88874e-07
0.000249839
-2.43558e-10
9.9084e-09
8.4613e-09
0.000249232
0.00026639
5.26673e-10
2.66125e-09
-1.42058e-07
0.000263773
-0.000264461
-5.04306e-09
-0.000260041
-1.62669e-08
0.000260149
7.00108e-08
-2.63468e-10
-0.000244914
-0.00025021
-1.86194e-07
-6.16059e-09
0.000250341
-0.000260129
-0.00025033
-2.65474e-09
-1.48349e-08
0.000264472
1.61511e-08
-0.000263767
1.85982e-07
1.37604e-07
0.000250199
0.000260024
-4.69808e-11
-1.0579e-07
-1.25134e-08
-1.51619e-07
-4.2361e-09
0.000265547
2.41845e-09
1.34353e-07
-1.02736e-09
-0.000249102
-2.02754e-07
0.000249243
-0.000265779
3.90941e-09
-4.57312e-09
0.000266394
-3.4338e-09
0.000266313
-0.000265485
2.02409e-07
-3.88962e-09
9.29472e-09
0.00026626
1.52163e-07
0.000249008
2.46013e-09
1.43056e-09
0.000265771
2.69821e-09
-1.88921e-07
0.000249815
2.20316e-09
5.93557e-09
0.000249152
0.000266379
-0.000263687
1.81122e-07
1.86008e-08
0.000264386
1.37207e-07
0.000250099
2.75677e-09
0.000259932
-1.25542e-08
-1.03356e-07
0.000244816
0.000250225
0.000260042
-1.51611e-07
-7.24426e-10
0.000265483
2.38069e-09
1.16708e-09
1.36847e-07
-0.000249018
-2.02692e-07
6.19347e-09
0.000249161
-0.000265768
2.98554e-09
0.000266372
2.67218e-09
9.49583e-09
0.000266257
-1.09409e-07
-0.000242457
-1.0966e-07
0.000242583
2.37703e-07
2.42195e-07
0.00027014
0.000260938
-7.70783e-08
-7.64071e-08
0.000260589
0.000261232
0.000260883
-1.50246e-07
0.000263767
-4.89264e-09
-0.000250178
-1.7584e-07
0.000250303
-8.20608e-09
-2.37166e-09
0.000264472
-2.24696e-08
-0.000265543
2.02316e-07
-5.38065e-09
1.99621e-08
0.000266304
1.54846e-07
0.000249082
6.39313e-11
-0.000249212
3.20072e-09
0.000265777
5.30752e-09
-0.000266395
3.01294e-09
-1.8631e-07
0.00024983
2.33279e-10
-1.03863e-08
-0.000266305
5.92173e-09
0.000249226
0.000266384
-1.79479e-09
-2.3866e-09
-1.41718e-07
0.000263763
-0.000264471
1.2923e-08
-0.000260005
-1.63184e-08
0.000260106
7.00391e-08
4.34935e-09
-0.000244874
-0.000250194
-1.86385e-07
-6.1602e-09
0.000250327
-0.000260111
-0.000250311
-2.36791e-10
-7.05326e-09
0.000264456
1.62931e-08
-0.000263765
1.81264e-07
1.44771e-07
0.000250183
0.000260008
2.29861e-09
-1.03317e-07
-1.02515e-08
-1.54163e-07
2.93405e-09
0.000265541
-6.2372e-11
1.3435e-07
1.03895e-09
-0.000249091
-2.0272e-07
0.000249232
-0.000265773
-6.90526e-10
-6.61948e-10
0.000266391
4.73824e-09
0.000266314
-0.000265482
-4.14903e-09
2.04897e-07
9.34656e-09
0.000266249
3.27388e-09
0.000265764
-0.000266372
1.54715e-07
0.000249
2.45025e-09
-0.000249131
-1.86294e-07
3.20242e-09
0.000249805
4.7887e-09
-0.000266253
0.000266369
5.95802e-09
0.000249142
-0.000263689
1.86065e-07
1.598e-08
0.00026438
1.42377e-07
0.000250093
-0.000250211
-7.4791e-13
0.000259936
-0.000260029
-1.01146e-08
-1.0581e-07
0.000244808
-0.000264374
0.000250224
0.000260036
-3.59448e-09
-1.54144e-07
0.000265481
2.39357e-09
1.34355e-07
2.12528e-09
-0.000265761
4.98709e-09
0.000266372
-0.000249011
-2.02649e-07
6.19262e-09
0.000249153
2.63094e-09
9.49777e-09
0.000266254
-0.000265541
2.0251e-07
-7.05728e-09
1.74781e-08
0.000266305
1.52057e-07
0.000249088
2.69143e-09
3.02511e-09
0.000265777
6.2054e-09
3.85978e-09
-1.86536e-07
-4.01192e-10
0.000249835
-5.16897e-09
6.17534e-09
0.00024923
-3.88469e-09
0.000266385
-0.000263778
1.63677e-08
1.81172e-07
0.000264478
1.37329e-07
0.000250203
-2.84417e-10
0.000260041
-1.03484e-07
-1.03618e-08
0.000244913
0.000260149
0.00025033
-0.000265482
-3.14358e-09
2.02583e-07
6.83885e-09
0.000266253
3.51031e-09
0.000265762
1.51946e-07
0.000249009
2.534e-09
-1.86557e-07
2.73364e-09
0.000249811
4.86384e-09
0.000266366
6.05497e-09
0.000249152
-0.000263694
1.83649e-07
1.60705e-08
0.000264384
1.39756e-07
0.000250109
-1.42496e-10
0.000259965
-1.02559e-08
-1.05862e-07
0.000244848
0.00025024
0.00026007
-1.09388e-07
-0.000242454
-1.07196e-07
0.000242579
2.35143e-07
2.42222e-07
0.000270131
0.000260934
-7.68896e-08
-0.000261226
-7.41064e-08
0.000260585
-0.000260879
0.000261228
-0.00024257
0.000260881
-0.000265538
-5.31164e-09
2.04967e-07
1.74922e-08
0.000266298
4.38073e-09
0.000265767
-7.74128e-10
-0.000266378
1.54583e-07
0.000249086
2.71394e-10
-0.000249216
-1.86499e-07
3.35411e-09
4.94162e-10
0.000249829
-5.18369e-09
-0.000266296
3.24748e-09
0.00026637
8.50906e-09
0.000249228
-0.000263769
1.89742e-08
1.83604e-07
0.000264467
1.39702e-07
0.000250198
-0.000250316
2.4045e-09
0.000260035
-0.000260136
-1.03446e-07
-1.03168e-08
0.000244908
-0.000264465
0.000260143
0.000250329
-0.000265479
-6.58598e-09
2.02476e-07
2.47851e-08
0.000266235
-2.22654e-11
0.000265761
-0.000266369
1.5194e-07
0.000249002
9.85514e-11
-0.000249133
-1.86556e-07
3.19158e-09
0.000249804
-1.33312e-08
-0.000266235
0.000266369
8.39521e-09
0.000249143
-0.000263699
1.83772e-07
1.866e-08
0.000264405
1.39501e-07
0.000250098
2.70262e-09
0.000259949
-1.03123e-08
-1.05932e-07
0.000244818
0.000250231
0.000260059
-0.000242445
-1.09446e-07
-1.07065e-07
0.000242565
2.32082e-07
2.42611e-07
0.000270104
-7.65928e-08
0.000260539
-7.42606e-08
0.000260947
0.000260823
0.000261243
1.86251e-07
-0.000263766
1.90059e-08
-9.7615e-09
0.00026446
2.28607e-09
0.000260007
0.000250207
1.417e-07
-2.82107e-09
-1.05807e-08
-1.05719e-07
0.0002449
-6.34545e-09
0.000250341
-2.65507e-09
0.000260113
-5.62018e-08
-2.99669e-10
-0.000228698
1.70959e-09
2.37317e-08
-4.53802e-09
-1.5673e-08
-9.76467e-05
1.22388e-06
-7.45191e-08
2.32346e-07
-1.87022e-07
-1.19001e-06
2.4311e-07
-2.11557e-07
-2.41144e-08
-8.33159e-07
8.83101e-07
1.6187e-08
3.44064e-08
-0.000244828
-1.03234e-07
-1.01993e-08
-1.89365e-09
-0.000249701
2.44188e-09
-1.833e-07
-5.5732e-08
1.69325e-08
-9.39191e-07
7.96922e-07
-7.51128e-07
9.73929e-07
-5.61267e-08
-0.000228663
2.57509e-08
1.36699e-09
-3.66188e-08
-0.000192897
1.37043e-09
-0.000249672
-1.85842e-07
1.94481e-09
-1.2477e-08
1.26358e-06
-6.74183e-08
-8.35964e-07
2.29524e-07
8.82987e-07
-1.84444e-07
-1.23009e-06
2.48223e-07
-2.17256e-07
-4.2017e-08
-9.28146e-07
7.99645e-07
-7.48427e-07
9.79378e-07
1.59233e-08
-0.000244729
-9.96162e-09
-1.0555e-07
-0.000268126
2.34857e-07
2.42072e-07
-0.000277278
6.92402e-09
-3.69989e-08
1.33336e-08
-0.000277395
6.59317e-09
-3.92154e-08
-4.54129e-09
-9.76616e-05
-0.000192951
1.30142e-09
4.57293e-09
-9.56215e-10