/*--------------------------------*- C++ -*----------------------------------*\
| =========                 |                                                 |
| \\      /  F ield         | OpenFOAM: The Open Source CFD Toolbox           |
|  \\    /   O peration     | Version:  v2012                                 |
|   \\  /    A nd           | Website:  www.openfoam.com                      |
|    \\/     M anipulation  |                                                 |
\*---------------------------------------------------------------------------*/
FoamFile
{
    version     2.0;
    format      ascii;
    class       volScalarField;
    location    "30.5";
    object      p;
}
// * * * * * * * * * * * * * * * * * * * * * * * * * * * * * * * * * * * * * //

dimensions      [0 2 -2 0 0 0 0];


internalField   nonuniform List<scalar> 
247104
(
1.26402e-06
1.26403e-06
1.26399e-06
1.26392e-06
1.26388e-06
1.26393e-06
1.26399e-06
1.26402e-06
1.26403e-06
1.26401e-06
1.2638e-06
1.26358e-06
1.26351e-06
1.26361e-06
1.26383e-06
1.26402e-06
1.26399e-06
1.2638e-06
1.26343e-06
1.26314e-06
1.26305e-06
1.26317e-06
1.26348e-06
1.26384e-06
1.26399e-06
1.26392e-06
1.26358e-06
1.26314e-06
1.26282e-06
1.26271e-06
1.26285e-06
1.2632e-06
1.26364e-06
1.26393e-06
1.26402e-06
1.26388e-06
1.26351e-06
1.26305e-06
1.26271e-06
1.2626e-06
1.26274e-06
1.2631e-06
1.26356e-06
1.2639e-06
1.26393e-06
1.26361e-06
1.26317e-06
1.26285e-06
1.26274e-06
1.26288e-06
1.26322e-06
1.26366e-06
1.26394e-06
1.264e-06
1.26383e-06
1.26348e-06
1.2632e-06
1.2631e-06
1.26322e-06
1.26352e-06
1.26387e-06
1.26399e-06
1.26402e-06
1.26402e-06
1.26384e-06
1.26364e-06
1.26356e-06
1.26366e-06
1.26387e-06
1.26403e-06
1.26399e-06
1.26393e-06
1.2639e-06
1.26394e-06
1.26399e-06
1.24594e-06
1.24571e-06
1.24554e-06
1.2443e-06
1.24423e-06
1.24419e-06
1.24427e-06
1.24549e-06
1.24562e-06
1.24554e-06
1.24386e-06
1.24188e-06
1.24189e-06
1.24189e-06
1.24188e-06
1.24402e-06
1.2445e-06
1.2443e-06
1.24188e-06
1.24189e-06
1.24192e-06
1.24192e-06
1.24189e-06
1.24188e-06
1.24452e-06
1.24577e-06
1.24594e-06
1.24423e-06
1.24189e-06
1.24192e-06
1.24195e-06
1.24195e-06
1.24192e-06
1.24189e-06
1.24452e-06
1.2456e-06
1.24571e-06
1.24419e-06
1.24189e-06
1.24192e-06
1.24195e-06
1.24195e-06
1.24192e-06
1.24189e-06
1.24449e-06
1.24465e-06
1.24427e-06
1.24188e-06
1.24189e-06
1.24192e-06
1.24192e-06
1.24189e-06
1.24188e-06
1.24452e-06
1.24576e-06
1.2455e-06
1.24402e-06
1.24188e-06
1.24189e-06
1.24189e-06
1.24188e-06
1.24419e-06
1.24453e-06
1.24576e-06
1.24562e-06
1.2445e-06
1.24452e-06
1.24452e-06
1.24449e-06
1.24452e-06
1.24453e-06
1.24559e-06
1.24577e-06
1.2456e-06
1.24465e-06
1.24576e-06
1.24576e-06
1.23258e-06
1.23249e-06
1.23237e-06
1.23111e-06
1.23103e-06
1.23099e-06
1.23108e-06
1.23235e-06
1.23247e-06
1.23237e-06
1.23067e-06
1.22859e-06
1.22859e-06
1.22859e-06
1.22859e-06
1.23081e-06
1.23133e-06
1.23111e-06
1.22859e-06
1.22858e-06
1.22859e-06
1.22859e-06
1.22858e-06
1.22859e-06
1.23131e-06
1.23259e-06
1.23258e-06
1.23103e-06
1.22859e-06
1.22859e-06
1.2286e-06
1.2286e-06
1.22859e-06
1.22859e-06
1.2313e-06
1.23241e-06
1.23249e-06
1.23099e-06
1.22859e-06
1.22859e-06
1.2286e-06
1.2286e-06
1.22859e-06
1.22859e-06
1.23127e-06
1.23145e-06
1.23108e-06
1.22859e-06
1.22858e-06
1.22859e-06
1.22859e-06
1.22858e-06
1.22859e-06
1.2313e-06
1.23259e-06
1.23235e-06
1.23081e-06
1.22859e-06
1.22859e-06
1.22859e-06
1.22859e-06
1.23099e-06
1.23135e-06
1.23261e-06
1.23247e-06
1.23133e-06
1.23131e-06
1.2313e-06
1.23127e-06
1.2313e-06
1.23135e-06
1.23246e-06
1.23259e-06
1.23241e-06
1.23145e-06
1.23259e-06
1.23261e-06
1.21932e-06
1.21922e-06
1.2191e-06
1.21784e-06
1.21776e-06
1.21772e-06
1.21781e-06
1.21909e-06
1.2192e-06
1.2191e-06
1.2174e-06
1.21531e-06
1.21531e-06
1.21531e-06
1.21531e-06
1.21753e-06
1.21805e-06
1.21784e-06
1.21531e-06
1.21531e-06
1.21531e-06
1.21531e-06
1.21531e-06
1.21531e-06
1.21803e-06
1.21932e-06
1.21932e-06
1.21776e-06
1.21531e-06
1.21531e-06
1.21531e-06
1.21531e-06
1.21531e-06
1.21531e-06
1.21802e-06
1.21915e-06
1.21922e-06
1.21772e-06
1.21531e-06
1.21531e-06
1.21531e-06
1.21531e-06
1.21531e-06
1.21531e-06
1.21799e-06
1.21818e-06
1.21781e-06
1.21531e-06
1.21531e-06
1.21531e-06
1.21531e-06
1.21531e-06
1.21531e-06
1.21803e-06
1.21932e-06
1.21909e-06
1.21753e-06
1.21531e-06
1.21531e-06
1.21531e-06
1.21531e-06
1.21772e-06
1.21808e-06
1.21934e-06
1.2192e-06
1.21805e-06
1.21803e-06
1.21802e-06
1.21799e-06
1.21803e-06
1.21809e-06
1.21919e-06
1.21932e-06
1.21915e-06
1.21818e-06
1.21932e-06
1.21934e-06
1.20604e-06
1.20595e-06
1.20583e-06
1.20456e-06
1.20448e-06
1.20444e-06
1.20453e-06
1.20581e-06
1.20593e-06
1.20583e-06
1.20412e-06
1.20203e-06
1.20203e-06
1.20203e-06
1.20203e-06
1.20425e-06
1.20478e-06
1.20456e-06
1.20203e-06
1.20203e-06
1.20203e-06
1.20203e-06
1.20203e-06
1.20203e-06
1.20475e-06
1.20605e-06
1.20604e-06
1.20448e-06
1.20203e-06
1.20203e-06
1.20203e-06
1.20203e-06
1.20203e-06
1.20203e-06
1.20474e-06
1.20587e-06
1.20595e-06
1.20444e-06
1.20203e-06
1.20203e-06
1.20203e-06
1.20203e-06
1.20203e-06
1.20203e-06
1.20472e-06
1.2049e-06
1.20453e-06
1.20203e-06
1.20203e-06
1.20203e-06
1.20203e-06
1.20203e-06
1.20203e-06
1.20475e-06
1.20604e-06
1.20581e-06
1.20425e-06
1.20203e-06
1.20203e-06
1.20203e-06
1.20203e-06
1.20444e-06
1.20481e-06
1.20606e-06
1.20593e-06
1.20478e-06
1.20475e-06
1.20474e-06
1.20472e-06
1.20475e-06
1.20481e-06
1.20591e-06
1.20605e-06
1.20587e-06
1.2049e-06
1.20604e-06
1.20606e-06
1.19277e-06
1.19267e-06
1.19255e-06
1.19128e-06
1.19121e-06
1.19117e-06
1.19126e-06
1.19253e-06
1.19265e-06
1.19255e-06
1.19085e-06
1.18875e-06
1.18875e-06
1.18875e-06
1.18875e-06
1.19098e-06
1.1915e-06
1.19128e-06
1.18875e-06
1.18875e-06
1.18875e-06
1.18875e-06
1.18875e-06
1.18875e-06
1.19147e-06
1.19277e-06
1.19277e-06
1.19121e-06
1.18875e-06
1.18875e-06
1.18876e-06
1.18876e-06
1.18875e-06
1.18875e-06
1.19146e-06
1.19259e-06
1.19267e-06
1.19117e-06
1.18875e-06
1.18875e-06
1.18876e-06
1.18876e-06
1.18875e-06
1.18875e-06
1.19144e-06
1.19163e-06
1.19126e-06
1.18875e-06
1.18875e-06
1.18875e-06
1.18875e-06
1.18875e-06
1.18875e-06
1.19148e-06
1.19277e-06
1.19253e-06
1.19098e-06
1.18875e-06
1.18875e-06
1.18875e-06
1.18875e-06
1.19117e-06
1.19153e-06
1.19279e-06
1.19265e-06
1.1915e-06
1.19147e-06
1.19146e-06
1.19144e-06
1.19148e-06
1.19153e-06
1.19264e-06
1.19277e-06
1.1926e-06
1.19163e-06
1.19277e-06
1.19279e-06
1.17949e-06
1.1794e-06
1.17927e-06
1.17801e-06
1.17793e-06
1.17789e-06
1.17798e-06
1.17926e-06
1.17937e-06
1.17927e-06
1.17757e-06
1.17548e-06
1.17548e-06
1.17548e-06
1.17548e-06
1.1777e-06
1.17823e-06
1.17801e-06
1.17548e-06
1.17548e-06
1.17548e-06
1.17548e-06
1.17548e-06
1.17548e-06
1.1782e-06
1.1795e-06
1.17949e-06
1.17793e-06
1.17548e-06
1.17548e-06
1.17548e-06
1.17548e-06
1.17548e-06
1.17548e-06
1.17819e-06
1.17932e-06
1.1794e-06
1.17789e-06
1.17548e-06
1.17548e-06
1.17548e-06
1.17548e-06
1.17548e-06
1.17548e-06
1.17816e-06
1.17835e-06
1.17798e-06
1.17548e-06
1.17548e-06
1.17548e-06
1.17548e-06
1.17548e-06
1.17548e-06
1.1782e-06
1.17949e-06
1.17926e-06
1.1777e-06
1.17548e-06
1.17548e-06
1.17548e-06
1.17548e-06
1.17789e-06
1.17826e-06
1.17951e-06
1.17937e-06
1.17823e-06
1.1782e-06
1.17819e-06
1.17816e-06
1.1782e-06
1.17826e-06
1.17936e-06
1.1795e-06
1.17932e-06
1.17835e-06
1.17949e-06
1.17951e-06
1.16622e-06
1.16612e-06
1.166e-06
1.16473e-06
1.16466e-06
1.16462e-06
1.16471e-06
1.16598e-06
1.1661e-06
1.166e-06
1.1643e-06
1.1622e-06
1.1622e-06
1.1622e-06
1.1622e-06
1.16442e-06
1.16495e-06
1.16473e-06
1.1622e-06
1.1622e-06
1.1622e-06
1.1622e-06
1.1622e-06
1.1622e-06
1.16492e-06
1.16622e-06
1.16622e-06
1.16466e-06
1.1622e-06
1.1622e-06
1.1622e-06
1.1622e-06
1.1622e-06
1.1622e-06
1.16491e-06
1.16604e-06
1.16612e-06
1.16462e-06
1.1622e-06
1.1622e-06
1.1622e-06
1.1622e-06
1.1622e-06
1.1622e-06
1.16489e-06
1.16508e-06
1.16471e-06
1.1622e-06
1.1622e-06
1.1622e-06
1.1622e-06
1.1622e-06
1.1622e-06
1.16492e-06
1.16622e-06
1.16598e-06
1.16442e-06
1.1622e-06
1.1622e-06
1.1622e-06
1.1622e-06
1.16461e-06
1.16498e-06
1.16624e-06
1.1661e-06
1.16495e-06
1.16492e-06
1.16491e-06
1.16489e-06
1.16492e-06
1.16498e-06
1.16609e-06
1.16622e-06
1.16604e-06
1.16508e-06
1.16622e-06
1.16624e-06
1.15294e-06
1.15285e-06
1.15272e-06
1.15146e-06
1.15138e-06
1.15134e-06
1.15143e-06
1.15271e-06
1.15282e-06
1.15272e-06
1.15102e-06
1.14893e-06
1.14893e-06
1.14893e-06
1.14893e-06
1.15115e-06
1.15168e-06
1.15146e-06
1.14893e-06
1.14893e-06
1.14893e-06
1.14893e-06
1.14893e-06
1.14893e-06
1.15165e-06
1.15294e-06
1.15294e-06
1.15138e-06
1.14893e-06
1.14893e-06
1.14893e-06
1.14893e-06
1.14893e-06
1.14893e-06
1.15164e-06
1.15277e-06
1.15285e-06
1.15134e-06
1.14893e-06
1.14893e-06
1.14893e-06
1.14893e-06
1.14893e-06
1.14893e-06
1.15161e-06
1.1518e-06
1.15143e-06
1.14893e-06
1.14893e-06
1.14893e-06
1.14893e-06
1.14893e-06
1.14893e-06
1.15165e-06
1.15294e-06
1.15271e-06
1.15115e-06
1.14893e-06
1.14893e-06
1.14893e-06
1.14893e-06
1.15134e-06
1.15171e-06
1.15296e-06
1.15282e-06
1.15168e-06
1.15165e-06
1.15164e-06
1.15161e-06
1.15165e-06
1.15171e-06
1.15281e-06
1.15294e-06
1.15277e-06
1.1518e-06
1.15294e-06
1.15296e-06
1.13966e-06
1.13957e-06
1.13945e-06
1.13818e-06
1.1381e-06
1.13806e-06
1.13816e-06
1.13943e-06
1.13955e-06
1.13945e-06
1.13774e-06
1.13565e-06
1.13565e-06
1.13565e-06
1.13565e-06
1.13787e-06
1.1384e-06
1.13818e-06
1.13565e-06
1.13565e-06
1.13565e-06
1.13565e-06
1.13565e-06
1.13565e-06
1.13837e-06
1.13967e-06
1.13966e-06
1.1381e-06
1.13565e-06
1.13565e-06
1.13565e-06
1.13565e-06
1.13565e-06
1.13565e-06
1.13836e-06
1.13949e-06
1.13957e-06
1.13806e-06
1.13565e-06
1.13565e-06
1.13565e-06
1.13565e-06
1.13565e-06
1.13565e-06
1.13834e-06
1.13853e-06
1.13816e-06
1.13565e-06
1.13565e-06
1.13565e-06
1.13565e-06
1.13565e-06
1.13565e-06
1.13837e-06
1.13967e-06
1.13943e-06
1.13787e-06
1.13565e-06
1.13565e-06
1.13565e-06
1.13565e-06
1.13806e-06
1.13843e-06
1.13969e-06
1.13955e-06
1.1384e-06
1.13837e-06
1.13836e-06
1.13834e-06
1.13837e-06
1.13843e-06
1.13954e-06
1.13967e-06
1.13949e-06
1.13853e-06
1.13967e-06
1.13969e-06
1.12639e-06
1.12629e-06
1.12617e-06
1.12491e-06
1.12483e-06
1.12479e-06
1.12488e-06
1.12616e-06
1.12627e-06
1.12617e-06
1.12447e-06
1.12237e-06
1.12237e-06
1.12237e-06
1.12237e-06
1.1246e-06
1.12512e-06
1.12491e-06
1.12237e-06
1.12238e-06
1.12238e-06
1.12238e-06
1.12238e-06
1.12237e-06
1.1251e-06
1.12639e-06
1.12639e-06
1.12483e-06
1.12237e-06
1.12238e-06
1.12237e-06
1.12237e-06
1.12238e-06
1.12237e-06
1.12508e-06
1.12622e-06
1.12629e-06
1.12479e-06
1.12237e-06
1.12238e-06
1.12237e-06
1.12237e-06
1.12238e-06
1.12237e-06
1.12506e-06
1.12525e-06
1.12488e-06
1.12237e-06
1.12238e-06
1.12238e-06
1.12238e-06
1.12238e-06
1.12237e-06
1.1251e-06
1.12639e-06
1.12616e-06
1.1246e-06
1.12237e-06
1.12237e-06
1.12237e-06
1.12237e-06
1.12479e-06
1.12516e-06
1.12641e-06
1.12627e-06
1.12512e-06
1.1251e-06
1.12508e-06
1.12506e-06
1.1251e-06
1.12516e-06
1.12626e-06
1.12639e-06
1.12622e-06
1.12525e-06
1.12639e-06
1.12641e-06
1.11311e-06
1.11302e-06
1.1129e-06
1.11163e-06
1.11155e-06
1.11151e-06
1.1116e-06
1.11288e-06
1.113e-06
1.1129e-06
1.11119e-06
1.1091e-06
1.1091e-06
1.1091e-06
1.1091e-06
1.11132e-06
1.11185e-06
1.11163e-06
1.1091e-06
1.1091e-06
1.1091e-06
1.1091e-06
1.1091e-06
1.1091e-06
1.11182e-06
1.11312e-06
1.11311e-06
1.11155e-06
1.1091e-06
1.1091e-06
1.1091e-06
1.1091e-06
1.1091e-06
1.1091e-06
1.11181e-06
1.11294e-06
1.11302e-06
1.11151e-06
1.1091e-06
1.1091e-06
1.1091e-06
1.1091e-06
1.1091e-06
1.1091e-06
1.11179e-06
1.11198e-06
1.1116e-06
1.1091e-06
1.1091e-06
1.1091e-06
1.1091e-06
1.1091e-06
1.1091e-06
1.11182e-06
1.11312e-06
1.11288e-06
1.11132e-06
1.1091e-06
1.1091e-06
1.1091e-06
1.1091e-06
1.11151e-06
1.11188e-06
1.11314e-06
1.113e-06
1.11185e-06
1.11182e-06
1.11181e-06
1.11179e-06
1.11182e-06
1.11188e-06
1.11298e-06
1.11312e-06
1.11294e-06
1.11198e-06
1.11312e-06
1.11314e-06
1.09984e-06
1.09974e-06
1.09962e-06
1.09836e-06
1.09828e-06
1.09824e-06
1.09833e-06
1.09961e-06
1.09972e-06
1.09962e-06
1.09792e-06
1.09582e-06
1.09582e-06
1.09582e-06
1.09582e-06
1.09805e-06
1.09857e-06
1.09836e-06
1.09582e-06
1.09582e-06
1.09582e-06
1.09582e-06
1.09582e-06
1.09582e-06
1.09855e-06
1.09984e-06
1.09984e-06
1.09828e-06
1.09582e-06
1.09582e-06
1.09582e-06
1.09582e-06
1.09582e-06
1.09582e-06
1.09853e-06
1.09967e-06
1.09974e-06
1.09824e-06
1.09582e-06
1.09582e-06
1.09582e-06
1.09582e-06
1.09582e-06
1.09582e-06
1.09851e-06
1.0987e-06
1.09833e-06
1.09582e-06
1.09582e-06
1.09582e-06
1.09582e-06
1.09582e-06
1.09582e-06
1.09855e-06
1.09984e-06
1.09961e-06
1.09805e-06
1.09582e-06
1.09582e-06
1.09582e-06
1.09582e-06
1.09824e-06
1.09861e-06
1.09986e-06
1.09972e-06
1.09857e-06
1.09855e-06
1.09853e-06
1.09851e-06
1.09855e-06
1.09861e-06
1.09971e-06
1.09984e-06
1.09967e-06
1.0987e-06
1.09984e-06
1.09986e-06
1.08656e-06
1.08647e-06
1.08635e-06
1.08508e-06
1.085e-06
1.08496e-06
1.08505e-06
1.08633e-06
1.08645e-06
1.08635e-06
1.08464e-06
1.08255e-06
1.08255e-06
1.08255e-06
1.08255e-06
1.08477e-06
1.0853e-06
1.08508e-06
1.08255e-06
1.08255e-06
1.08255e-06
1.08255e-06
1.08255e-06
1.08255e-06
1.08527e-06
1.08657e-06
1.08656e-06
1.085e-06
1.08255e-06
1.08255e-06
1.08255e-06
1.08255e-06
1.08255e-06
1.08255e-06
1.08526e-06
1.08639e-06
1.08647e-06
1.08496e-06
1.08255e-06
1.08255e-06
1.08255e-06
1.08255e-06
1.08255e-06
1.08255e-06
1.08524e-06
1.08543e-06
1.08505e-06
1.08255e-06
1.08255e-06
1.08255e-06
1.08255e-06
1.08255e-06
1.08255e-06
1.08527e-06
1.08656e-06
1.08633e-06
1.08477e-06
1.08255e-06
1.08255e-06
1.08255e-06
1.08255e-06
1.08496e-06
1.08533e-06
1.08659e-06
1.08645e-06
1.0853e-06
1.08527e-06
1.08526e-06
1.08524e-06
1.08527e-06
1.08533e-06
1.08643e-06
1.08657e-06
1.08639e-06
1.08543e-06
1.08656e-06
1.08659e-06
1.07329e-06
1.07319e-06
1.07307e-06
1.07181e-06
1.07173e-06
1.07169e-06
1.07178e-06
1.07306e-06
1.07317e-06
1.07307e-06
1.07137e-06
1.06927e-06
1.06927e-06
1.06927e-06
1.06927e-06
1.0715e-06
1.07202e-06
1.07181e-06
1.06927e-06
1.06927e-06
1.06927e-06
1.06927e-06
1.06927e-06
1.06927e-06
1.072e-06
1.07329e-06
1.07329e-06
1.07173e-06
1.06927e-06
1.06927e-06
1.06927e-06
1.06927e-06
1.06927e-06
1.06927e-06
1.07198e-06
1.07312e-06
1.07319e-06
1.07169e-06
1.06927e-06
1.06927e-06
1.06927e-06
1.06927e-06
1.06927e-06
1.06927e-06
1.07196e-06
1.07215e-06
1.07178e-06
1.06927e-06
1.06927e-06
1.06927e-06
1.06927e-06
1.06927e-06
1.06927e-06
1.072e-06
1.07329e-06
1.07306e-06
1.0715e-06
1.06927e-06
1.06927e-06
1.06927e-06
1.06927e-06
1.07169e-06
1.07206e-06
1.07331e-06
1.07317e-06
1.07202e-06
1.072e-06
1.07198e-06
1.07196e-06
1.072e-06
1.07206e-06
1.07316e-06
1.07329e-06
1.07312e-06
1.07215e-06
1.07329e-06
1.07331e-06
1.06001e-06
1.05992e-06
1.0598e-06
1.05853e-06
1.05845e-06
1.05841e-06
1.0585e-06
1.05978e-06
1.0599e-06
1.0598e-06
1.05809e-06
1.056e-06
1.056e-06
1.056e-06
1.056e-06
1.05822e-06
1.05875e-06
1.05853e-06
1.056e-06
1.056e-06
1.056e-06
1.056e-06
1.056e-06
1.056e-06
1.05872e-06
1.06002e-06
1.06001e-06
1.05845e-06
1.056e-06
1.056e-06
1.056e-06
1.056e-06
1.056e-06
1.056e-06
1.05871e-06
1.05984e-06
1.05992e-06
1.05841e-06
1.056e-06
1.056e-06
1.056e-06
1.056e-06
1.056e-06
1.056e-06
1.05869e-06
1.05888e-06
1.0585e-06
1.056e-06
1.056e-06
1.056e-06
1.056e-06
1.056e-06
1.056e-06
1.05872e-06
1.06001e-06
1.05978e-06
1.05822e-06
1.056e-06
1.056e-06
1.056e-06
1.056e-06
1.05841e-06
1.05878e-06
1.06003e-06
1.0599e-06
1.05875e-06
1.05872e-06
1.05871e-06
1.05869e-06
1.05872e-06
1.05878e-06
1.05988e-06
1.06002e-06
1.05984e-06
1.05888e-06
1.06001e-06
1.06003e-06
1.04674e-06
1.04664e-06
1.04652e-06
1.04525e-06
1.04518e-06
1.04514e-06
1.04523e-06
1.0465e-06
1.04662e-06
1.04652e-06
1.04482e-06
1.04272e-06
1.04272e-06
1.04272e-06
1.04272e-06
1.04495e-06
1.04547e-06
1.04525e-06
1.04272e-06
1.04272e-06
1.04272e-06
1.04272e-06
1.04272e-06
1.04272e-06
1.04544e-06
1.04674e-06
1.04674e-06
1.04518e-06
1.04272e-06
1.04272e-06
1.04272e-06
1.04272e-06
1.04272e-06
1.04272e-06
1.04543e-06
1.04657e-06
1.04664e-06
1.04514e-06
1.04272e-06
1.04272e-06
1.04272e-06
1.04272e-06
1.04272e-06
1.04272e-06
1.04541e-06
1.0456e-06
1.04523e-06
1.04272e-06
1.04272e-06
1.04272e-06
1.04272e-06
1.04272e-06
1.04272e-06
1.04545e-06
1.04674e-06
1.0465e-06
1.04495e-06
1.04272e-06
1.04272e-06
1.04272e-06
1.04272e-06
1.04514e-06
1.0455e-06
1.04676e-06
1.04662e-06
1.04547e-06
1.04544e-06
1.04543e-06
1.04541e-06
1.04545e-06
1.04551e-06
1.04661e-06
1.04674e-06
1.04657e-06
1.0456e-06
1.04674e-06
1.04676e-06
1.03346e-06
1.03337e-06
1.03324e-06
1.03198e-06
1.0319e-06
1.03186e-06
1.03195e-06
1.03323e-06
1.03334e-06
1.03324e-06
1.03154e-06
1.02945e-06
1.02945e-06
1.02945e-06
1.02945e-06
1.03167e-06
1.0322e-06
1.03198e-06
1.02945e-06
1.02945e-06
1.02945e-06
1.02945e-06
1.02945e-06
1.02945e-06
1.03217e-06
1.03347e-06
1.03346e-06
1.0319e-06
1.02945e-06
1.02945e-06
1.02945e-06
1.02945e-06
1.02945e-06
1.02945e-06
1.03216e-06
1.03329e-06
1.03337e-06
1.03186e-06
1.02945e-06
1.02945e-06
1.02945e-06
1.02945e-06
1.02945e-06
1.02945e-06
1.03214e-06
1.03232e-06
1.03195e-06
1.02945e-06
1.02945e-06
1.02945e-06
1.02945e-06
1.02945e-06
1.02945e-06
1.03217e-06
1.03346e-06
1.03323e-06
1.03167e-06
1.02945e-06
1.02945e-06
1.02945e-06
1.02945e-06
1.03186e-06
1.03223e-06
1.03348e-06
1.03334e-06
1.0322e-06
1.03217e-06
1.03216e-06
1.03214e-06
1.03217e-06
1.03223e-06
1.03333e-06
1.03347e-06
1.03329e-06
1.03232e-06
1.03346e-06
1.03348e-06
1.02019e-06
1.02009e-06
1.01997e-06
1.0187e-06
1.01863e-06
1.01859e-06
1.01868e-06
1.01995e-06
1.02007e-06
1.01997e-06
1.01827e-06
1.01617e-06
1.01617e-06
1.01617e-06
1.01617e-06
1.01839e-06
1.01892e-06
1.0187e-06
1.01617e-06
1.01617e-06
1.01617e-06
1.01617e-06
1.01617e-06
1.01617e-06
1.01889e-06
1.02019e-06
1.02019e-06
1.01863e-06
1.01617e-06
1.01617e-06
1.01617e-06
1.01617e-06
1.01617e-06
1.01617e-06
1.01888e-06
1.02001e-06
1.02009e-06
1.01859e-06
1.01617e-06
1.01617e-06
1.01617e-06
1.01617e-06
1.01617e-06
1.01617e-06
1.01886e-06
1.01905e-06
1.01868e-06
1.01617e-06
1.01617e-06
1.01617e-06
1.01617e-06
1.01617e-06
1.01617e-06
1.0189e-06
1.02019e-06
1.01995e-06
1.01839e-06
1.01617e-06
1.01617e-06
1.01617e-06
1.01617e-06
1.01859e-06
1.01895e-06
1.02021e-06
1.02007e-06
1.01892e-06
1.01889e-06
1.01888e-06
1.01886e-06
1.0189e-06
1.01895e-06
1.02006e-06
1.02019e-06
1.02001e-06
1.01905e-06
1.02019e-06
1.02021e-06
1.00691e-06
1.00682e-06
1.00669e-06
1.00543e-06
1.00535e-06
1.00531e-06
1.0054e-06
1.00668e-06
1.00679e-06
1.00669e-06
1.00499e-06
1.0029e-06
1.0029e-06
1.0029e-06
1.0029e-06
1.00512e-06
1.00565e-06
1.00543e-06
1.0029e-06
1.0029e-06
1.0029e-06
1.0029e-06
1.0029e-06
1.0029e-06
1.00562e-06
1.00692e-06
1.00691e-06
1.00535e-06
1.0029e-06
1.0029e-06
1.0029e-06
1.0029e-06
1.0029e-06
1.0029e-06
1.00561e-06
1.00674e-06
1.00682e-06
1.00531e-06
1.0029e-06
1.0029e-06
1.0029e-06
1.0029e-06
1.0029e-06
1.0029e-06
1.00558e-06
1.00577e-06
1.0054e-06
1.0029e-06
1.0029e-06
1.0029e-06
1.0029e-06
1.0029e-06
1.0029e-06
1.00562e-06
1.00691e-06
1.00668e-06
1.00512e-06
1.0029e-06
1.0029e-06
1.0029e-06
1.0029e-06
1.00531e-06
1.00568e-06
1.00693e-06
1.00679e-06
1.00565e-06
1.00562e-06
1.00561e-06
1.00558e-06
1.00562e-06
1.00568e-06
1.00678e-06
1.00692e-06
1.00674e-06
1.00577e-06
1.00691e-06
1.00693e-06
9.93636e-07
9.93542e-07
9.93419e-07
9.92153e-07
9.92076e-07
9.92036e-07
9.92127e-07
9.93403e-07
9.93519e-07
9.93419e-07
9.91717e-07
9.89622e-07
9.89622e-07
9.89622e-07
9.89622e-07
9.91844e-07
9.92372e-07
9.92153e-07
9.89622e-07
9.89622e-07
9.89622e-07
9.89622e-07
9.89623e-07
9.89622e-07
9.92344e-07
9.9364e-07
9.93636e-07
9.92076e-07
9.89622e-07
9.89622e-07
9.89622e-07
9.89622e-07
9.89622e-07
9.89622e-07
9.92331e-07
9.93464e-07
9.93542e-07
9.92036e-07
9.89622e-07
9.89622e-07
9.89622e-07
9.89622e-07
9.89622e-07
9.89622e-07
9.9231e-07
9.92498e-07
9.92127e-07
9.89622e-07
9.89622e-07
9.89622e-07
9.89622e-07
9.89623e-07
9.89622e-07
9.92345e-07
9.93638e-07
9.93403e-07
9.91844e-07
9.89622e-07
9.89622e-07
9.89622e-07
9.89622e-07
9.92035e-07
9.92404e-07
9.93658e-07
9.93519e-07
9.92372e-07
9.92344e-07
9.92331e-07
9.9231e-07
9.92345e-07
9.92404e-07
9.93507e-07
9.9364e-07
9.93464e-07
9.92498e-07
9.93638e-07
9.93658e-07
9.8036e-07
9.80267e-07
9.80144e-07
9.78878e-07
9.788e-07
9.78761e-07
9.78852e-07
9.80128e-07
9.80244e-07
9.80144e-07
9.78441e-07
9.76347e-07
9.76347e-07
9.76347e-07
9.76347e-07
9.78569e-07
9.79097e-07
9.78878e-07
9.76347e-07
9.76347e-07
9.76347e-07
9.76347e-07
9.76347e-07
9.76347e-07
9.79069e-07
9.80365e-07
9.8036e-07
9.788e-07
9.76347e-07
9.76347e-07
9.76347e-07
9.76347e-07
9.76347e-07
9.76347e-07
9.79056e-07
9.80189e-07
9.80266e-07
9.78761e-07
9.76347e-07
9.76347e-07
9.76347e-07
9.76347e-07
9.76347e-07
9.76347e-07
9.79034e-07
9.79223e-07
9.78852e-07
9.76347e-07
9.76347e-07
9.76347e-07
9.76347e-07
9.76347e-07
9.76347e-07
9.7907e-07
9.80363e-07
9.80128e-07
9.78569e-07
9.76347e-07
9.76347e-07
9.76347e-07
9.76347e-07
9.7876e-07
9.79129e-07
9.80383e-07
9.80244e-07
9.79096e-07
9.79068e-07
9.79056e-07
9.79034e-07
9.7907e-07
9.79129e-07
9.80232e-07
9.80365e-07
9.80189e-07
9.79223e-07
9.80363e-07
9.80383e-07
9.67085e-07
9.66991e-07
9.66869e-07
9.65603e-07
9.65525e-07
9.65485e-07
9.65577e-07
9.66853e-07
9.66969e-07
9.66869e-07
9.65166e-07
9.63072e-07
9.63072e-07
9.63072e-07
9.63072e-07
9.65294e-07
9.65821e-07
9.65603e-07
9.63072e-07
9.63072e-07
9.63072e-07
9.63072e-07
9.63072e-07
9.63072e-07
9.65793e-07
9.6709e-07
9.67085e-07
9.65525e-07
9.63072e-07
9.63072e-07
9.63072e-07
9.63072e-07
9.63072e-07
9.63072e-07
9.65781e-07
9.66914e-07
9.66991e-07
9.65485e-07
9.63072e-07
9.63072e-07
9.63072e-07
9.63072e-07
9.63072e-07
9.63072e-07
9.65759e-07
9.65948e-07
9.65577e-07
9.63072e-07
9.63072e-07
9.63072e-07
9.63072e-07
9.63072e-07
9.63072e-07
9.65795e-07
9.67088e-07
9.66853e-07
9.65294e-07
9.63072e-07
9.63072e-07
9.63072e-07
9.63072e-07
9.65484e-07
9.65853e-07
9.67108e-07
9.66968e-07
9.65821e-07
9.65793e-07
9.65781e-07
9.65759e-07
9.65795e-07
9.65854e-07
9.66956e-07
9.6709e-07
9.66913e-07
9.65948e-07
9.67087e-07
9.67108e-07
9.5381e-07
9.53716e-07
9.53593e-07
9.52328e-07
9.5225e-07
9.5221e-07
9.52302e-07
9.53578e-07
9.53694e-07
9.53593e-07
9.51891e-07
9.49797e-07
9.49797e-07
9.49797e-07
9.49797e-07
9.52019e-07
9.52546e-07
9.52328e-07
9.49797e-07
9.49797e-07
9.49797e-07
9.49797e-07
9.49797e-07
9.49797e-07
9.52518e-07
9.53815e-07
9.5381e-07
9.5225e-07
9.49797e-07
9.49797e-07
9.49797e-07
9.49797e-07
9.49797e-07
9.49797e-07
9.52506e-07
9.53638e-07
9.53716e-07
9.5221e-07
9.49797e-07
9.49797e-07
9.49797e-07
9.49797e-07
9.49797e-07
9.49797e-07
9.52484e-07
9.52673e-07
9.52302e-07
9.49797e-07
9.49797e-07
9.49797e-07
9.49797e-07
9.49797e-07
9.49797e-07
9.52519e-07
9.53812e-07
9.53578e-07
9.52019e-07
9.49797e-07
9.49797e-07
9.49797e-07
9.49797e-07
9.52209e-07
9.52578e-07
9.53833e-07
9.53693e-07
9.52546e-07
9.52518e-07
9.52506e-07
9.52484e-07
9.52519e-07
9.52578e-07
9.53681e-07
9.53815e-07
9.53638e-07
9.52673e-07
9.53812e-07
9.53833e-07
9.40535e-07
9.40441e-07
9.40318e-07
9.39053e-07
9.38975e-07
9.38935e-07
9.39027e-07
9.40303e-07
9.40419e-07
9.40318e-07
9.38616e-07
9.36522e-07
9.36522e-07
9.36522e-07
9.36522e-07
9.38744e-07
9.39271e-07
9.39053e-07
9.36522e-07
9.36522e-07
9.36522e-07
9.36522e-07
9.36522e-07
9.36522e-07
9.39243e-07
9.4054e-07
9.40535e-07
9.38975e-07
9.36522e-07
9.36522e-07
9.36522e-07
9.36522e-07
9.36522e-07
9.36522e-07
9.39231e-07
9.40363e-07
9.40441e-07
9.38935e-07
9.36522e-07
9.36522e-07
9.36522e-07
9.36522e-07
9.36522e-07
9.36522e-07
9.39209e-07
9.39398e-07
9.39027e-07
9.36522e-07
9.36522e-07
9.36522e-07
9.36522e-07
9.36522e-07
9.36522e-07
9.39245e-07
9.40537e-07
9.40303e-07
9.38744e-07
9.36522e-07
9.36522e-07
9.36522e-07
9.36522e-07
9.38934e-07
9.39303e-07
9.40558e-07
9.40418e-07
9.39271e-07
9.39243e-07
9.39231e-07
9.39209e-07
9.39244e-07
9.39303e-07
9.40406e-07
9.4054e-07
9.40363e-07
9.39398e-07
9.40537e-07
9.40558e-07
9.2726e-07
9.27166e-07
9.27043e-07
9.25778e-07
9.257e-07
9.2566e-07
9.25752e-07
9.27028e-07
9.27144e-07
9.27043e-07
9.25341e-07
9.23246e-07
9.23247e-07
9.23247e-07
9.23246e-07
9.25469e-07
9.25996e-07
9.25778e-07
9.23246e-07
9.23247e-07
9.23247e-07
9.23247e-07
9.23247e-07
9.23246e-07
9.25968e-07
9.27265e-07
9.2726e-07
9.257e-07
9.23247e-07
9.23247e-07
9.23247e-07
9.23247e-07
9.23247e-07
9.23247e-07
9.25956e-07
9.27088e-07
9.27166e-07
9.2566e-07
9.23247e-07
9.23247e-07
9.23247e-07
9.23247e-07
9.23247e-07
9.23247e-07
9.25934e-07
9.26123e-07
9.25752e-07
9.23246e-07
9.23247e-07
9.23247e-07
9.23247e-07
9.23247e-07
9.23247e-07
9.25969e-07
9.27262e-07
9.27028e-07
9.25468e-07
9.23246e-07
9.23247e-07
9.23247e-07
9.23246e-07
9.25659e-07
9.26028e-07
9.27283e-07
9.27143e-07
9.25996e-07
9.25968e-07
9.25956e-07
9.25934e-07
9.25969e-07
9.26028e-07
9.27131e-07
9.27265e-07
9.27088e-07
9.26123e-07
9.27262e-07
9.27283e-07
9.13985e-07
9.13891e-07
9.13768e-07
9.12503e-07
9.12425e-07
9.12385e-07
9.12477e-07
9.13753e-07
9.13868e-07
9.13768e-07
9.12066e-07
9.09971e-07
9.09971e-07
9.09971e-07
9.09971e-07
9.12193e-07
9.12721e-07
9.12503e-07
9.09971e-07
9.09972e-07
9.09972e-07
9.09972e-07
9.09972e-07
9.09971e-07
9.12693e-07
9.13989e-07
9.13985e-07
9.12425e-07
9.09971e-07
9.09972e-07
9.09972e-07
9.09972e-07
9.09972e-07
9.09971e-07
9.1268e-07
9.13813e-07
9.13891e-07
9.12385e-07
9.09971e-07
9.09972e-07
9.09972e-07
9.09972e-07
9.09972e-07
9.09971e-07
9.12659e-07
9.12848e-07
9.12477e-07
9.09971e-07
9.09972e-07
9.09972e-07
9.09972e-07
9.09972e-07
9.09971e-07
9.12694e-07
9.13987e-07
9.13753e-07
9.12193e-07
9.09971e-07
9.09971e-07
9.09971e-07
9.09971e-07
9.12384e-07
9.12753e-07
9.14007e-07
9.13868e-07
9.12721e-07
9.12693e-07
9.1268e-07
9.12659e-07
9.12694e-07
9.12753e-07
9.13856e-07
9.13989e-07
9.13813e-07
9.12848e-07
9.13987e-07
9.14008e-07
9.0071e-07
9.00616e-07
9.00493e-07
8.99227e-07
8.9915e-07
8.9911e-07
8.99201e-07
9.00478e-07
9.00593e-07
9.00493e-07
8.98791e-07
8.96696e-07
8.96696e-07
8.96696e-07
8.96696e-07
8.98918e-07
8.99446e-07
8.99227e-07
8.96696e-07
8.96697e-07
8.96696e-07
8.96696e-07
8.96697e-07
8.96696e-07
8.99418e-07
9.00714e-07
9.0071e-07
8.9915e-07
8.96696e-07
8.96696e-07
8.96696e-07
8.96696e-07
8.96696e-07
8.96696e-07
8.99405e-07
9.00538e-07
9.00616e-07
8.9911e-07
8.96696e-07
8.96696e-07
8.96696e-07
8.96696e-07
8.96696e-07
8.96696e-07
8.99384e-07
8.99573e-07
8.99201e-07
8.96696e-07
8.96697e-07
8.96696e-07
8.96696e-07
8.96697e-07
8.96696e-07
8.99419e-07
9.00712e-07
9.00478e-07
8.98918e-07
8.96696e-07
8.96696e-07
8.96696e-07
8.96696e-07
8.99109e-07
8.99478e-07
9.00732e-07
9.00593e-07
8.99446e-07
8.99418e-07
8.99405e-07
8.99384e-07
8.99419e-07
8.99478e-07
9.00581e-07
9.00714e-07
9.00538e-07
8.99572e-07
9.00712e-07
9.00732e-07
8.87435e-07
8.87341e-07
8.87218e-07
8.85952e-07
8.85875e-07
8.85835e-07
8.85926e-07
8.87203e-07
8.87318e-07
8.87218e-07
8.85516e-07
8.83421e-07
8.83421e-07
8.83421e-07
8.83421e-07
8.85643e-07
8.86171e-07
8.85952e-07
8.83421e-07
8.83421e-07
8.83421e-07
8.83421e-07
8.83421e-07
8.83421e-07
8.86143e-07
8.87439e-07
8.87435e-07
8.85875e-07
8.83421e-07
8.83421e-07
8.83421e-07
8.83421e-07
8.83421e-07
8.83421e-07
8.8613e-07
8.87263e-07
8.87341e-07
8.85835e-07
8.83421e-07
8.83421e-07
8.83421e-07
8.83421e-07
8.83421e-07
8.83421e-07
8.86109e-07
8.86297e-07
8.85926e-07
8.83421e-07
8.83421e-07
8.83421e-07
8.83421e-07
8.83421e-07
8.83421e-07
8.86144e-07
8.87437e-07
8.87202e-07
8.85643e-07
8.83421e-07
8.83421e-07
8.83421e-07
8.83421e-07
8.85834e-07
8.86203e-07
8.87457e-07
8.87318e-07
8.86171e-07
8.86143e-07
8.8613e-07
8.86109e-07
8.86144e-07
8.86203e-07
8.87306e-07
8.87439e-07
8.87263e-07
8.86297e-07
8.87437e-07
8.87457e-07
8.74159e-07
8.74065e-07
8.73943e-07
8.72677e-07
8.72599e-07
8.72559e-07
8.72651e-07
8.73927e-07
8.74043e-07
8.73943e-07
8.7224e-07
8.70146e-07
8.70146e-07
8.70146e-07
8.70146e-07
8.72368e-07
8.72895e-07
8.72677e-07
8.70146e-07
8.70146e-07
8.70146e-07
8.70146e-07
8.70146e-07
8.70146e-07
8.72867e-07
8.74164e-07
8.74159e-07
8.72599e-07
8.70146e-07
8.70146e-07
8.70146e-07
8.70146e-07
8.70146e-07
8.70146e-07
8.72855e-07
8.73988e-07
8.74065e-07
8.72559e-07
8.70146e-07
8.70146e-07
8.70146e-07
8.70146e-07
8.70146e-07
8.70146e-07
8.72833e-07
8.73022e-07
8.72651e-07
8.70146e-07
8.70146e-07
8.70146e-07
8.70146e-07
8.70146e-07
8.70146e-07
8.72869e-07
8.74161e-07
8.73927e-07
8.72368e-07
8.70146e-07
8.70146e-07
8.70146e-07
8.70146e-07
8.72558e-07
8.72927e-07
8.74182e-07
8.74042e-07
8.72895e-07
8.72867e-07
8.72855e-07
8.72833e-07
8.72868e-07
8.72927e-07
8.7403e-07
8.74164e-07
8.73987e-07
8.73022e-07
8.74161e-07
8.74182e-07
8.60884e-07
8.6079e-07
8.60667e-07
8.59401e-07
8.59324e-07
8.59284e-07
8.59375e-07
8.60651e-07
8.60767e-07
8.60667e-07
8.58965e-07
8.5687e-07
8.5687e-07
8.5687e-07
8.5687e-07
8.59092e-07
8.5962e-07
8.59401e-07
8.5687e-07
8.5687e-07
8.5687e-07
8.5687e-07
8.5687e-07
8.5687e-07
8.59592e-07
8.60888e-07
8.60884e-07
8.59324e-07
8.5687e-07
8.5687e-07
8.5687e-07
8.5687e-07
8.5687e-07
8.5687e-07
8.59579e-07
8.60712e-07
8.6079e-07
8.59284e-07
8.5687e-07
8.5687e-07
8.5687e-07
8.5687e-07
8.5687e-07
8.5687e-07
8.59558e-07
8.59746e-07
8.59375e-07
8.5687e-07
8.5687e-07
8.5687e-07
8.5687e-07
8.5687e-07
8.5687e-07
8.59593e-07
8.60886e-07
8.60651e-07
8.59092e-07
8.5687e-07
8.5687e-07
8.5687e-07
8.5687e-07
8.59283e-07
8.59652e-07
8.60906e-07
8.60767e-07
8.5962e-07
8.59592e-07
8.59579e-07
8.59558e-07
8.59593e-07
8.59652e-07
8.60755e-07
8.60888e-07
8.60712e-07
8.59746e-07
8.60886e-07
8.60906e-07
8.47608e-07
8.47514e-07
8.47391e-07
8.46126e-07
8.46048e-07
8.46008e-07
8.461e-07
8.47376e-07
8.47491e-07
8.47391e-07
8.45689e-07
8.43594e-07
8.43594e-07
8.43594e-07
8.43594e-07
8.45816e-07
8.46344e-07
8.46126e-07
8.43594e-07
8.43595e-07
8.43594e-07
8.43594e-07
8.43595e-07
8.43594e-07
8.46316e-07
8.47612e-07
8.47608e-07
8.46048e-07
8.43594e-07
8.43594e-07
8.43594e-07
8.43594e-07
8.43594e-07
8.43594e-07
8.46303e-07
8.47436e-07
8.47514e-07
8.46008e-07
8.43594e-07
8.43594e-07
8.43594e-07
8.43594e-07
8.43594e-07
8.43594e-07
8.46282e-07
8.46471e-07
8.461e-07
8.43594e-07
8.43595e-07
8.43594e-07
8.43594e-07
8.43595e-07
8.43594e-07
8.46317e-07
8.4761e-07
8.47376e-07
8.45816e-07
8.43594e-07
8.43594e-07
8.43594e-07
8.43594e-07
8.46007e-07
8.46376e-07
8.47631e-07
8.47491e-07
8.46344e-07
8.46316e-07
8.46303e-07
8.46282e-07
8.46317e-07
8.46376e-07
8.47479e-07
8.47612e-07