/*--------------------------------*- C++ -*----------------------------------*\
| =========                 |                                                 |
| \\      /  F ield         | OpenFOAM: The Open Source CFD Toolbox           |
|  \\    /   O peration     | Version:  v2012                                 |
|   \\  /    A nd           | Website:  www.openfoam.com                      |
|    \\/     M anipulation  |                                                 |
\*---------------------------------------------------------------------------*/
FoamFile
{
    version     2.0;
    format      ascii;
    class       volScalarField;
    location    "1775";
    object      k;
}
// * * * * * * * * * * * * * * * * * * * * * * * * * * * * * * * * * * * * * //

dimensions      [0 2 -2 0 0 0 0];


internalField   nonuniform List<scalar> 
171728
(
1.59562e-07
2.57127e-07
3.42437e-07
3.65644e-07
1.58604e-07
2.44112e-07
3.2404e-07
3.41888e-07
1.54398e-07
2.31615e-07
3.06482e-07
3.19335e-07
1.49884e-07
2.2081e-07
2.91246e-07
2.9992e-07
1.45449e-07
2.11371e-07
2.77914e-07
2.82938e-07
1.41025e-07
2.03067e-07
2.66129e-07
2.67319e-07
1.3861e-07
1.95431e-07
2.55619e-07
2.52743e-07
1.35614e-07
1.88205e-07
2.45825e-07
2.39773e-07
1.32225e-07
1.81959e-07
2.36816e-07
2.28535e-07
1.28823e-07
1.7691e-07
2.28869e-07
2.17855e-07
1.25515e-07
1.72662e-07
2.21027e-07
2.07735e-07
1.22473e-07
1.69324e-07
2.13822e-07
1.99403e-07
1.19342e-07
1.67358e-07
2.0994e-07
1.93271e-07
1.16947e-07
1.66793e-07
2.08387e-07
1.8916e-07
1.13873e-07
1.67932e-07
2.08073e-07
1.87478e-07
1.12391e-07
1.72514e-07
2.10628e-07
1.89453e-07
1.11876e-07
1.80821e-07
2.18512e-07
1.96354e-07
1.1121e-07
1.98174e-07
2.30917e-07
2.07052e-07
1.10944e-07
2.21617e-07
2.59678e-07
3.23218e-07
1.11381e-07
2.90902e-07
3.06102e-07
2.71479e-07
1.12067e-07
3.26133e-07
3.84201e-07
5.22604e-07
1.13506e-07
4.90474e-07
4.97141e-07
6.37263e-07
1.15343e-07
5.84657e-07
6.72458e-07
1.17032e-06
1.18236e-07
8.78835e-07
8.73516e-07
1.49597e-06
1.22866e-07
1.20577e-06
1.19486e-06
2.59189e-06
1.28482e-07
1.67443e-06
1.68486e-06
4.02347e-06
1.39623e-07
2.01036e-06
2.19968e-06
5.28986e-06
1.6599e-07
2.88708e-06
2.65364e-06
8.10667e-06
2.22297e-07
3.37264e-06
3.77572e-06
9.50783e-06
2.48545e-07
4.43291e-06
4.19367e-06
1.27721e-05
2.46282e-07
5.4041e-06
5.4561e-06
1.46319e-05
2.66811e-07
6.41652e-06
6.55789e-06
1.7416e-05
3.33335e-07
7.83789e-06
7.72943e-06
1.95063e-05
4.16615e-07
9.01337e-06
9.15222e-06
2.15555e-05
5.21512e-07
1.05772e-05
1.05173e-05
2.32113e-05
6.2974e-07
1.20702e-05
1.22089e-05
2.53044e-05
9.35225e-07
1.39586e-05
1.38201e-05
2.63701e-05
1.08001e-06
1.52963e-05
1.54144e-05
2.79989e-05
1.43535e-06
1.70371e-05
1.72551e-05
2.97525e-05
1.88022e-06
1.97625e-05
1.91916e-05
2.99294e-05
2.07033e-06
1.99625e-05
2.01908e-05
3.20233e-05
2.96166e-06
2.3463e-05
2.33098e-05
3.2827e-05
3.23562e-06
2.47949e-05
2.44914e-05
3.34511e-05
4.24682e-06
2.51747e-05
2.57241e-05
3.53215e-05
4.8434e-06
2.85384e-05
2.88242e-05
3.70749e-05
6.13865e-06
2.90157e-05
2.89517e-05
3.71376e-05
6.68308e-06
3.16232e-05
3.15054e-05
3.75093e-05
7.92218e-06
3.21143e-05
3.22971e-05
3.91606e-05
9.50468e-06
3.46449e-05
3.46361e-05
4.10887e-05
1.04928e-05
3.56455e-05
3.52472e-05
4.15832e-05
1.22565e-05
3.65823e-05
3.73117e-05
4.16876e-05
1.30274e-05
3.82819e-05
3.81148e-05
4.35867e-05
1.55351e-05
3.9257e-05
3.92174e-05
4.40203e-05
1.6627e-05
3.96402e-05
4.0232e-05
4.4082e-05
1.70528e-05
4.20002e-05
4.17053e-05
4.61707e-05
2.09647e-05
4.27916e-05
4.24654e-05
4.60964e-05
2.19405e-05
4.28972e-05
4.27044e-05
4.72004e-05
2.24937e-05
4.45642e-05
4.50069e-05
4.87083e-05
2.39783e-05
4.53076e-05
4.52775e-05
4.77409e-05
2.61746e-05
4.6178e-05
4.62135e-05
4.91727e-05
2.72062e-05
4.63848e-05
4.68662e-05
5.01903e-05
2.85273e-05
4.81986e-05
4.79701e-05
5.04531e-05
2.99556e-05
4.86299e-05
4.83756e-05
5.11824e-05
3.11885e-05
4.94247e-05
4.94197e-05
5.15651e-05
3.22876e-05
4.96996e-05
5.00481e-05
5.16497e-05
3.33231e-05
5.02536e-05
5.05314e-05
5.29467e-05
3.44321e-05
5.12886e-05
5.08271e-05
5.32261e-05
3.5653e-05
5.24093e-05
5.19467e-05
5.4247e-05
3.66369e-05
5.25996e-05
5.2789e-05
5.43318e-05
3.77132e-05
5.19349e-05
5.23913e-05
5.30831e-05
3.79283e-05
5.30463e-05
5.26629e-05
5.56961e-05
3.93079e-05
5.49558e-05
5.46477e-05
5.69463e-05
4.07101e-05
5.40792e-05
5.4532e-05
5.43917e-05
4.09413e-05
5.34758e-05
5.39047e-05
5.45881e-05
4.09726e-05
5.54012e-05
5.52754e-05
5.80419e-05
4.24442e-05
5.59052e-05
5.58466e-05
5.67357e-05
4.32837e-05
5.53475e-05
5.49032e-05
5.53596e-05
4.34966e-05
5.53507e-05
5.51795e-05
5.72414e-05
4.4057e-05
5.65729e-05
5.69369e-05
5.82077e-05
4.47597e-05
5.63894e-05
5.66103e-05
5.68201e-05
4.49044e-05
5.60242e-05
5.63404e-05
5.71325e-05
4.53896e-05
5.72987e-05
5.61335e-05
5.84967e-05
4.55676e-05
5.65669e-05
5.62372e-05
5.8003e-05
4.58256e-05
5.63524e-05
5.84613e-05
5.7439e-05
4.70839e-05
5.85075e-05
5.82642e-05
5.87576e-05
4.66833e-05
5.77623e-05
5.55701e-05
5.82394e-05
4.54134e-05
5.51373e-05
5.56284e-05
5.72399e-05
4.56712e-05
5.58135e-05
5.77961e-05
5.69686e-05
4.83254e-05
5.92912e-05
5.88945e-05
5.94737e-05
4.84403e-05
5.86177e-05
5.76425e-05
5.97607e-05
4.59998e-05
5.54153e-05
5.53757e-05
5.63531e-05
4.52317e-05
5.56991e-05
5.5917e-05
5.85592e-05
4.70936e-05
5.74304e-05
5.75035e-05
5.86022e-05
4.77528e-05
5.64574e-05
5.63346e-05
5.46747e-05
4.6228e-05
5.54803e-05
5.53535e-05
5.98409e-05
3.62932e-07
3.16215e-07
3.01603e-07
3.5356e-07
2.92956e-07
3.41857e-07
1.56424e-07
1.45501e-07
1.63948e-07
1.46595e-07
2.86659e-07
2.91753e-07
3.60863e-07
3.4328e-07
3.00039e-07
3.66595e-07
3.61701e-07
3.43297e-07
4.01482e-07
2.52582e-07
4.04595e-07
2.45428e-07
3.52692e-07
3.31706e-07
2.58861e-07
3.40036e-07
2.49565e-07
3.27037e-07
2.57884e-07
2.47464e-07
2.49651e-07
3.5976e-07
3.41726e-07
2.49865e-07
3.28832e-07
2.39434e-07
3.43089e-07
3.41948e-07
3.25936e-07
4.05024e-07
2.42492e-07
4.02077e-07
2.3424e-07
3.30512e-07
3.10327e-07
2.46233e-07
3.22518e-07
2.36917e-07
3.09188e-07
2.46754e-07
2.34566e-07
2.38291e-07
3.40338e-07
3.2346e-07
2.3563e-07
3.10617e-07
2.25377e-07
3.20361e-07
3.24569e-07
3.08257e-07
3.95914e-07
2.31214e-07
3.71424e-07
2.21613e-07
3.09246e-07
2.91429e-07
2.34071e-07
3.04852e-07
2.2605e-07
2.92373e-07
2.35592e-07
2.23375e-07
2.27613e-07
3.22188e-07
3.07067e-07
2.22394e-07
2.94832e-07
2.14356e-07
3.00797e-07
3.06831e-07
2.90176e-07
3.61907e-07
2.18454e-07
3.28224e-07
2.10032e-07
2.90471e-07
2.74699e-07
2.23439e-07
2.88288e-07
2.15884e-07
2.7641e-07
2.25007e-07
2.13564e-07
2.17603e-07
3.05899e-07
2.92089e-07
2.11826e-07
2.81124e-07
2.04243e-07
2.83735e-07
2.889e-07
2.72584e-07
3.15766e-07
2.07534e-07
2.79476e-07
2.00967e-07
2.73859e-07
2.59704e-07
2.13531e-07
2.72651e-07
2.06829e-07
2.62133e-07
2.15253e-07
2.04951e-07
2.08398e-07
2.91008e-07
2.78493e-07
2.01765e-07
2.68943e-07
1.94527e-07
2.68069e-07
2.71528e-07
2.57466e-07
2.69562e-07
1.9892e-07
2.4695e-07
1.93225e-07
2.58975e-07
2.46136e-07
2.04704e-07
2.58917e-07
1.98681e-07
2.50126e-07
2.06134e-07
1.97247e-07
1.99657e-07
2.77544e-07
2.66453e-07
1.92206e-07
2.58209e-07
1.85753e-07
2.53388e-07
2.5673e-07
2.44768e-07
2.41363e-07
1.91456e-07
2.28884e-07
1.86241e-07
2.45531e-07
2.34166e-07
1.96796e-07
2.47473e-07
1.91247e-07
2.40136e-07
1.9757e-07
1.89872e-07
1.91813e-07
2.65653e-07
2.55583e-07
1.83666e-07
2.48294e-07
1.77808e-07
2.40243e-07
2.44227e-07
2.33644e-07
2.25591e-07
1.84557e-07
2.17113e-07
1.79816e-07
2.3373e-07
2.23872e-07
1.89471e-07
2.37933e-07
1.8459e-07
2.31831e-07
1.90012e-07
1.83373e-07
1.85048e-07
2.54874e-07
2.4562e-07
1.76001e-07
2.38904e-07
1.71092e-07
2.28815e-07
2.33228e-07
2.23687e-07
2.1467e-07
1.78382e-07
2.07982e-07
1.74407e-07
2.23602e-07
2.14775e-07
1.83083e-07
2.29984e-07
1.78942e-07
2.24273e-07
1.835e-07
1.78049e-07
1.79258e-07
2.4502e-07
2.37075e-07
1.69459e-07
2.30807e-07
1.64757e-07
2.1806e-07
2.23344e-07
2.14368e-07
2.05912e-07
1.73233e-07
2.0018e-07
1.69805e-07
2.14608e-07
2.06029e-07
1.77672e-07
2.22303e-07
1.74617e-07
2.16455e-07
1.77947e-07
1.73669e-07
1.74155e-07
2.36595e-07
2.29197e-07
1.63401e-07
2.22985e-07
1.59819e-07
2.0782e-07
2.1413e-07
2.06561e-07
1.98303e-07
1.68677e-07
1.93162e-07
1.65713e-07
2.05956e-07
1.98385e-07
1.73774e-07
2.14495e-07
1.71928e-07
2.08907e-07
1.72976e-07
1.70099e-07
1.6988e-07
2.28791e-07
2.21243e-07
1.59123e-07
2.15476e-07
1.57515e-07
1.99346e-07
2.06475e-07
2.00185e-07
1.91681e-07
1.64894e-07
1.87555e-07
1.63187e-07
1.98406e-07
1.92014e-07
1.71431e-07
2.07246e-07
1.70387e-07
2.02865e-07
1.69008e-07
1.67649e-07
1.66924e-07
2.20903e-07
2.138e-07
1.57208e-07
2.10513e-07
1.56961e-07
1.93029e-07
2.00307e-07
1.94122e-07
1.86106e-07
1.6282e-07
1.81984e-07
1.62095e-07
1.92168e-07
1.87091e-07
1.70077e-07
2.01843e-07
1.69314e-07
1.99183e-07
1.66569e-07
1.6676e-07
1.65662e-07
2.13649e-07
2.08351e-07
1.57069e-07
2.08705e-07
1.5815e-07
1.88702e-07
1.94401e-07
1.90386e-07
1.81053e-07
1.62123e-07
1.77971e-07
1.62873e-07
1.87453e-07
1.84104e-07
1.69318e-07
1.98428e-07
1.69647e-07
1.96512e-07
1.65665e-07
1.67484e-07
1.66797e-07
2.0849e-07
2.04798e-07
1.58668e-07
2.07916e-07
1.61931e-07
1.86501e-07
1.90838e-07
1.89253e-07
1.7739e-07
1.6338e-07
1.77681e-07
1.66629e-07
1.84772e-07
1.85031e-07
1.69843e-07
1.96163e-07
1.72291e-07
1.96282e-07
1.67445e-07
1.70786e-07
1.70312e-07
2.05431e-07
2.04124e-07
1.62964e-07
2.09405e-07
1.68139e-07
1.87134e-07
1.90816e-07
1.93308e-07
1.78538e-07
1.68793e-07
1.817e-07
1.7507e-07
1.87214e-07
1.88516e-07
1.73735e-07
1.96979e-07
1.79661e-07
2.01347e-07
1.72735e-07
1.77384e-07
1.77264e-07
2.05553e-07
2.08285e-07
1.71673e-07
2.1478e-07
1.77316e-07
1.91863e-07
1.96618e-07
2.04572e-07
1.83914e-07
1.79173e-07
1.91445e-07
1.8958e-07
1.92019e-07
2.02818e-07
1.82657e-07
2.05049e-07
1.92691e-07
2.12963e-07
1.82508e-07
1.91432e-07
1.92312e-07
2.12464e-07
2.1995e-07
1.82417e-07
2.26953e-07
1.98207e-07
2.04076e-07
2.10267e-07
2.35084e-07
1.95919e-07
1.96643e-07
2.15364e-07
2.14363e-07
2.10832e-07
2.28889e-07
1.97709e-07
2.16337e-07
2.18747e-07
2.39657e-07
1.94258e-07
2.16678e-07
2.44428e-07
2.23865e-07
2.587e-07
2.01026e-07
2.53698e-07
2.44472e-07
3.08078e-07
2.43892e-07
2.98911e-07
2.21613e-07
2.18964e-07
2.61306e-07
2.73126e-07
2.39463e-07
3.19467e-07
2.24661e-07
2.45763e-07
2.63933e-07
2.81393e-07
2.54171e-07
2.72954e-07
2.52189e-07
2.66769e-07
3.14338e-07
2.5234e-07
2.96473e-07
2.59875e-07
2.65228e-07
3.23177e-07
4.00231e-07
2.73757e-07
2.9233e-07
3.29766e-07
3.07918e-07
3.47958e-07
3.45768e-07
2.75047e-07
2.91869e-07
3.35105e-07
3.54579e-07
2.54326e-07
3.07682e-07
3.37592e-07
3.33041e-07
4.2651e-07
2.69492e-07
3.63655e-07
3.53801e-07
4.46894e-07
4.36592e-07
5.72608e-07
3.42811e-07
3.23698e-07
4.39754e-07
4.71561e-07
3.59364e-07
8.02712e-07
3.50363e-07
3.77746e-07
4.26549e-07
4.66032e-07
3.71775e-07
4.64222e-07
4.27828e-07
4.70634e-07
6.42154e-07
3.84985e-07
4.6937e-07
4.39124e-07
6.09301e-07
6.56038e-07
9.29363e-07
4.7122e-07
4.98483e-07
5.79633e-07
5.40949e-07
8.27747e-07
8.34618e-07
4.65083e-07
4.99063e-07
5.85369e-07
6.19478e-07
4.45411e-07
5.45718e-07
6.15263e-07
6.99476e-07
9.63989e-07
4.56715e-07
6.1326e-07
6.26926e-07
1.00567e-06
1.02864e-06
1.52117e-06
6.17884e-07
5.7447e-07
8.31892e-07
8.64313e-07
8.98611e-07
1.76229e-06
6.27864e-07
6.86328e-07
8.15173e-07
8.32594e-07
6.6597e-07
8.48017e-07
7.72625e-07
1.07362e-06
1.53233e-06
6.79607e-07
8.07242e-07
7.90685e-07
1.38459e-06
1.66147e-06
2.36199e-06
8.90625e-07
8.94525e-07
1.11063e-06
1.09081e-06
1.89421e-06
2.10011e-06
8.84628e-07
8.80504e-07
1.07197e-06
1.2266e-06
8.88048e-07
1.087e-06
1.07534e-06
1.62999e-06
2.5387e-06
9.03186e-07
1.1531e-06
1.0769e-06
2.5251e-06
2.53219e-06
3.77352e-06
1.20654e-06
1.22243e-06
1.54789e-06
1.51716e-06
2.49704e-06
3.75138e-06
1.18947e-06
1.27488e-06
1.53865e-06
1.61778e-06
1.18309e-06
1.5188e-06
1.50947e-06
2.81264e-06
3.33189e-06
1.17888e-06
1.55892e-06
1.54679e-06
3.85391e-06
4.01981e-06
4.96939e-06
1.68268e-06
1.65639e-06
1.99302e-06
1.92072e-06
3.88449e-06
5.25457e-06
1.59376e-06
1.81533e-06
1.91667e-06
2.03642e-06
1.54664e-06
1.91234e-06
1.94089e-06
3.76358e-06
5.28652e-06
1.57578e-06
1.98414e-06
1.92045e-06
4.62931e-06
5.42693e-06
7.35602e-06
2.24119e-06
2.04005e-06
2.85523e-06
2.62611e-06
5.38668e-06
7.3381e-06
2.18105e-06
2.22225e-06
2.65467e-06
2.7282e-06
2.19327e-06
2.64349e-06
2.66865e-06
5.36464e-06
7.51676e-06
2.19259e-06
2.58862e-06
2.72494e-06
7.97207e-06
7.61077e-06
9.21882e-06
2.92143e-06
2.86242e-06
3.77293e-06
3.36208e-06
8.14742e-06
9.54361e-06
2.68623e-06
2.78315e-06
3.33428e-06
3.60058e-06
2.72399e-06
3.32569e-06
3.24885e-06
7.78517e-06
9.70042e-06
2.76809e-06
3.51456e-06
3.20972e-06
8.93345e-06
1.01817e-05
1.31102e-05
4.34176e-06
3.4184e-06
4.9386e-06
3.89391e-06
9.66446e-06
1.11734e-05
3.67935e-06
3.88819e-06
4.14124e-06
4.12387e-06
3.51946e-06
3.90729e-06
4.20872e-06
1.08552e-05
1.19868e-05
3.46307e-06
4.06448e-06
4.27168e-06
1.22799e-05
1.32501e-05
1.4296e-05
5.06789e-06
4.42389e-06
5.61478e-06
5.34951e-06
1.18595e-05
1.54285e-05
4.43496e-06
4.19929e-06
5.21057e-06
5.06739e-06
4.40967e-06
5.3233e-06
5.00669e-06
1.20256e-05
1.40637e-05
4.49815e-06
5.07624e-06
4.96868e-06
1.41647e-05
1.4795e-05
1.62314e-05
5.67974e-06
5.4575e-06
6.38128e-06
6.10953e-06
1.58237e-05
1.60983e-05
5.31898e-06
5.47539e-06
6.0316e-06
6.38842e-06
5.29167e-06
6.17205e-06
6.31842e-06
1.49801e-05
1.71742e-05
5.25134e-06
6.37173e-06
6.32817e-06
1.68685e-05
1.67657e-05
1.95198e-05
6.84015e-06
6.36816e-06
7.98646e-06
7.39828e-06
1.65125e-05
1.94754e-05
6.41812e-06
6.5603e-06
7.36307e-06
7.35279e-06
6.56442e-06
7.34748e-06
7.36476e-06
1.75696e-05
1.87913e-05
6.52762e-06
7.34574e-06
7.45087e-06
1.90914e-05
2.00401e-05
2.11162e-05
8.41692e-06
7.91625e-06
9.31592e-06
8.9721e-06
1.98486e-05
2.12123e-05
7.78097e-06
7.74035e-06
8.88336e-06
8.80971e-06
7.83718e-06
8.9023e-06
8.72462e-06
1.91924e-05
2.13257e-05
7.88869e-06
8.823e-06
8.72343e-06
2.11236e-05
2.15495e-05
2.29847e-05
9.47506e-06
9.06929e-06
1.03021e-05
9.98728e-06
2.1681e-05
2.26787e-05
9.09141e-06
9.12609e-06
1.01412e-05
1.01721e-05
8.93658e-06
9.98315e-06
1.02383e-05
2.17606e-05
2.26865e-05
8.99061e-06
1.01662e-05
1.02627e-05
2.28362e-05
2.33253e-05
2.44489e-05
1.07413e-05
1.06382e-05
1.15779e-05
1.19115e-05
2.31212e-05
2.48027e-05
1.06716e-05
1.05181e-05
1.14829e-05
1.16226e-05
1.07031e-05
1.18963e-05
1.15437e-05
2.30954e-05
2.47695e-05
1.06599e-05
1.1679e-05
1.15493e-05
2.47773e-05
2.49252e-05
2.64352e-05
1.18231e-05
1.20507e-05
1.37416e-05
1.3249e-05
2.51123e-05
2.63116e-05
1.17349e-05
1.22079e-05
1.36961e-05
1.36859e-05
1.19868e-05
1.32514e-05
1.37592e-05
2.51982e-05
2.62302e-05
1.20802e-05
1.36434e-05
1.36883e-05
2.61611e-05
2.6705e-05
2.73098e-05
1.4291e-05
1.3984e-05
1.48904e-05
1.52792e-05
2.67075e-05
2.7336e-05
1.40971e-05
1.38468e-05
1.48093e-05
1.45202e-05
1.40904e-05
1.51933e-05
1.45693e-05
2.64853e-05
2.73687e-05
1.39031e-05
1.45956e-05
1.44439e-05
2.74699e-05
2.7607e-05
2.91263e-05
1.52463e-05
1.53856e-05
1.67393e-05
1.60358e-05
2.75411e-05
2.89725e-05
1.5134e-05
1.53405e-05
1.68636e-05
1.7208e-05
1.5001e-05
1.60355e-05
1.76521e-05
2.77813e-05
2.91877e-05
1.51143e-05
1.71067e-05
1.79119e-05
2.95451e-05
2.95468e-05
3.0288e-05
1.74622e-05
1.69754e-05
1.90864e-05
1.95123e-05
2.95528e-05
3.05373e-05
1.75259e-05
1.73656e-05
1.88264e-05
1.85744e-05
1.81088e-05
1.95353e-05
1.83982e-05
2.94515e-05
3.00938e-05
1.84508e-05
1.86147e-05
1.87846e-05
2.9774e-05
3.04636e-05
3.10922e-05
1.92383e-05
1.97589e-05
1.97853e-05
1.99212e-05
3.05957e-05
3.06813e-05
1.90346e-05
1.92199e-05
1.99219e-05
2.00816e-05
1.84956e-05
1.98838e-05
1.99467e-05
3.03603e-05
3.1119e-05
1.87993e-05
1.99586e-05
1.96053e-05
3.1503e-05
3.14359e-05
3.28441e-05
2.03973e-05
2.00269e-05
2.27219e-05
2.2513e-05
3.1046e-05
3.32642e-05
2.04203e-05
2.02784e-05
2.26204e-05
2.24686e-05
2.06308e-05
2.22692e-05
2.28196e-05
3.14023e-05
3.29207e-05
2.04716e-05
2.24078e-05
2.27893e-05
3.27373e-05
3.3076e-05
3.34212e-05
2.31869e-05
2.35682e-05
2.36006e-05
2.45775e-05
3.36729e-05
3.36996e-05
2.30661e-05
2.33364e-05
2.35688e-05
2.43659e-05
2.3244e-05
2.47671e-05
2.36316e-05
3.33011e-05
3.36543e-05
2.32665e-05
2.44475e-05
2.36772e-05
3.31283e-05
3.36259e-05
3.49776e-05
2.38096e-05
2.45904e-05
2.61016e-05
2.48023e-05
3.3735e-05
3.43307e-05
2.39826e-05
2.44084e-05
2.58586e-05
2.49609e-05
2.37316e-05
2.48897e-05
2.53906e-05
3.37256e-05
3.45384e-05
2.37363e-05
2.48913e-05
2.47976e-05
3.48969e-05
3.53135e-05
3.59115e-05
2.6675e-05
2.54411e-05
2.72716e-05
2.80997e-05
3.47823e-05
3.63226e-05
2.63589e-05
2.60124e-05
2.7498e-05
2.84681e-05
2.64067e-05
2.81191e-05
2.86891e-05
3.50669e-05
3.65553e-05
2.60483e-05
2.85453e-05
2.90341e-05
3.68068e-05
3.61015e-05
3.71824e-05
2.76261e-05
2.83199e-05
2.96378e-05
2.856e-05
3.64325e-05
3.66154e-05
2.78817e-05
2.86526e-05
2.93764e-05
2.87319e-05
2.89654e-05
2.88492e-05
2.90854e-05
3.66345e-05
3.65031e-05
2.95603e-05
2.89201e-05
3.00007e-05
3.71173e-05
3.74213e-05
3.77296e-05
2.99558e-05
2.88573e-05
3.04021e-05
3.13475e-05
3.68687e-05
3.84262e-05
2.98491e-05
2.88519e-05
3.04217e-05
3.11792e-05
2.91543e-05
3.11578e-05
3.03121e-05
3.66427e-05
3.83155e-05
2.99658e-05
3.08129e-05
2.99007e-05
3.72618e-05
3.7892e-05
3.92033e-05
3.09139e-05
3.17509e-05
3.23154e-05
3.20567e-05
3.86027e-05
3.87355e-05
3.05986e-05
3.16526e-05
3.24317e-05
3.20239e-05
3.0788e-05
3.20143e-05
3.20112e-05
3.86496e-05
3.89099e-05
3.00684e-05
3.21378e-05
3.15295e-05
3.88672e-05
3.94855e-05
4.01974e-05
3.26548e-05
3.21364e-05
3.4038e-05
3.38212e-05
3.88638e-05
4.03151e-05
3.3052e-05
3.21888e-05
3.37979e-05
3.42248e-05
3.24671e-05
3.38825e-05
3.44684e-05
3.90156e-05
4.03812e-05
3.21003e-05
3.41187e-05
3.43688e-05
4.06753e-05
4.04026e-05
4.11239e-05
3.44104e-05
3.46022e-05
3.51913e-05
3.55947e-05
4.07073e-05
4.12241e-05
3.39632e-05
3.4744e-05
3.53853e-05
3.52282e-05
3.50141e-05
3.5607e-05
3.54003e-05
4.07044e-05
4.10033e-05
3.51925e-05
3.51719e-05
3.64729e-05
4.15877e-05
4.13287e-05
4.19871e-05
3.55745e-05
3.56381e-05
3.65897e-05
3.5966e-05
4.12719e-05
4.17024e-05
3.58857e-05
3.52831e-05
3.64823e-05
3.65295e-05
3.53758e-05
3.59366e-05
3.5627e-05
4.1065e-05
4.21477e-05
3.64944e-05
3.6646e-05
3.64038e-05
4.14228e-05
4.21113e-05
4.27964e-05
3.6753e-05
3.66415e-05
3.75094e-05
3.81782e-05
4.2101e-05
4.33571e-05
3.65508e-05
3.72569e-05
3.75505e-05
3.81964e-05
3.62907e-05
3.81551e-05
3.84094e-05
4.25823e-05
4.32369e-05
3.64142e-05
3.80934e-05
3.73103e-05
4.32633e-05
4.31519e-05
4.42911e-05
3.7989e-05
3.82649e-05
3.94898e-05
3.8999e-05
4.34214e-05
4.37209e-05
3.81972e-05
3.82311e-05
3.95189e-05
3.86099e-05
3.88582e-05
3.90671e-05
3.9311e-05
4.32587e-05
4.34825e-05
3.80601e-05
3.85419e-05
3.93184e-05
4.40024e-05
4.43433e-05
4.38902e-05
3.97031e-05
3.93182e-05
3.97803e-05
3.96699e-05
4.38963e-05
4.41116e-05
3.96104e-05
3.92479e-05
3.96178e-05
4.02295e-05
3.93128e-05
3.94821e-05
3.93371e-05
4.38512e-05
4.4713e-05
3.94385e-05
4.01205e-05
3.95644e-05
4.39085e-05
4.3909e-05
4.5535e-05
3.97863e-05
3.97776e-05
4.0516e-05
4.11695e-05
4.42266e-05
4.5832e-05
3.96352e-05
4.0297e-05
4.09687e-05
4.10534e-05
3.94448e-05
4.13995e-05
4.14248e-05
4.47926e-05
4.5609e-05
3.96719e-05
4.12431e-05
4.13821e-05
4.59273e-05
4.61265e-05
4.70364e-05
4.14609e-05
4.17815e-05
4.31761e-05
4.28088e-05
4.62175e-05
4.66304e-05
4.18526e-05
4.16002e-05
4.30116e-05
4.25868e-05
4.19651e-05
4.27715e-05
4.24511e-05
4.59144e-05
4.63351e-05
4.18978e-05
4.243e-05
4.23848e-05
4.60864e-05
4.70429e-05
4.66922e-05
4.33105e-05
4.28753e-05
4.33028e-05
4.29113e-05
4.66332e-05
4.64826e-05
4.30359e-05
4.26377e-05
4.29551e-05
4.26346e-05
4.24738e-05
4.28031e-05
4.273e-05
4.63537e-05
4.62613e-05
4.2407e-05
4.25318e-05
4.2672e-05
4.6739e-05
4.67502e-05
4.77423e-05
4.33054e-05
4.30092e-05
4.39486e-05
4.42184e-05
4.66644e-05
4.78793e-05
4.2969e-05
4.26891e-05
4.41023e-05
4.44042e-05
4.32037e-05
4.43176e-05
4.49566e-05
4.6417e-05
4.82411e-05
4.31799e-05
4.46053e-05
4.49466e-05
4.86904e-05
4.78696e-05
4.80482e-05
4.41234e-05
4.44e-05
4.45481e-05
4.48001e-05
4.7981e-05
4.83299e-05
4.44939e-05
4.49261e-05
4.4855e-05
4.53671e-05
4.50732e-05
4.50249e-05
4.49173e-05
4.84809e-05
4.84596e-05
4.50669e-05
4.52787e-05
4.49063e-05
4.7747e-05
4.82845e-05
4.94357e-05
4.50364e-05
4.52253e-05
4.63816e-05
4.62649e-05
4.85983e-05
4.92838e-05
4.50589e-05
4.53954e-05
4.62518e-05
4.6117e-05
4.48734e-05
4.60852e-05
4.51897e-05
4.84768e-05
4.92645e-05
4.48562e-05
4.57021e-05
4.51447e-05
4.86807e-05
4.94897e-05
4.93271e-05
4.65447e-05
4.63571e-05
4.66229e-05
4.64073e-05
4.92922e-05
4.90761e-05
4.64296e-05
4.63751e-05
4.65295e-05
4.65358e-05
4.58936e-05
4.62761e-05
4.71911e-05
4.94743e-05
4.94237e-05
4.58296e-05
4.68258e-05
4.72908e-05
5.01608e-05
4.94136e-05
5.06128e-05
4.6655e-05
4.64591e-05
4.76367e-05
4.766e-05
4.921e-05
5.06817e-05
4.65818e-05
4.65567e-05
4.76707e-05
4.74598e-05
4.7265e-05
4.78265e-05
4.75497e-05
4.94434e-05
5.05086e-05
4.73826e-05
4.75904e-05
4.75079e-05
5.03073e-05
5.0763e-05
5.08413e-05
4.80068e-05
4.80896e-05
4.83824e-05
4.85778e-05
5.08973e-05
5.11108e-05
4.79804e-05
4.80164e-05
4.82808e-05
4.86241e-05
4.78055e-05
4.85928e-05
4.84218e-05
5.07997e-05
5.09695e-05
4.76805e-05
4.83511e-05
4.83441e-05
5.10432e-05
5.09384e-05
5.1735e-05
4.84666e-05
4.86333e-05
4.92364e-05
4.92325e-05
5.11796e-05
5.17153e-05
4.84149e-05
4.86518e-05
4.93121e-05
4.91174e-05
4.86007e-05
4.9168e-05
4.91221e-05
5.09852e-05
5.15639e-05
4.85742e-05
4.89805e-05
4.92067e-05
5.15393e-05
5.18025e-05
5.18125e-05
4.94263e-05
4.94208e-05
4.96228e-05
4.95965e-05
5.18074e-05
5.17412e-05
4.94697e-05
4.94181e-05
4.96192e-05
4.97714e-05
4.92189e-05
4.96906e-05
4.93759e-05
5.17987e-05
5.21814e-05
4.93048e-05
5.00088e-05
4.94034e-05
5.15438e-05
5.1928e-05
5.27906e-05
4.9711e-05
4.96205e-05
5.05168e-05
5.01535e-05
5.17629e-05
5.23567e-05
4.96991e-05
4.98997e-05
5.05326e-05
5.05919e-05
4.95132e-05
4.98909e-05
5.04096e-05
5.2275e-05
5.27554e-05
4.94623e-05
5.03603e-05
5.02865e-05
5.27294e-05
5.28625e-05
5.28077e-05
5.07042e-05
5.05101e-05
5.08793e-05
5.10569e-05
5.25815e-05
5.30606e-05
5.07311e-05
5.06944e-05
5.09122e-05
5.0725e-05
5.07445e-05
5.11737e-05
5.12742e-05
5.27875e-05
5.25148e-05
5.06527e-05
5.0772e-05
5.13029e-05
5.31908e-05
5.28747e-05
5.38558e-05
5.09543e-05
5.11291e-05
5.17802e-05
5.19649e-05
5.31251e-05
5.42169e-05
5.09785e-05
5.07455e-05
5.1711e-05
5.14284e-05
5.13384e-05
5.20459e-05
5.17413e-05
5.25344e-05
5.36505e-05
5.13891e-05
5.15569e-05
5.1875e-05
5.39251e-05
5.40231e-05
5.42241e-05
5.20275e-05
5.24258e-05
5.25381e-05
5.275e-05
5.45426e-05
5.45928e-05
5.19312e-05
5.18963e-05
5.23827e-05
5.2797e-05
5.2128e-05
5.26705e-05
5.2539e-05
5.39904e-05
5.4672e-05
5.22428e-05
5.27659e-05
5.25615e-05
5.44527e-05
5.42805e-05
5.42578e-05
5.26243e-05
5.26744e-05
5.25997e-05
5.19525e-05
5.44615e-05
5.31147e-05
5.25777e-05
5.28506e-05
5.27791e-05
5.27169e-05
5.24899e-05
5.19683e-05
5.19877e-05
5.46868e-05
5.40452e-05
5.24964e-05
5.25367e-05
5.19225e-05
5.30728e-05
5.42425e-05
5.42863e-05
5.25159e-05
5.1902e-05
5.25375e-05
5.22589e-05
5.31117e-05
5.43504e-05
5.27557e-05
5.25679e-05
5.26976e-05
5.25393e-05
5.19851e-05
5.23193e-05
5.27475e-05
5.39567e-05
5.40486e-05
5.19137e-05
5.24259e-05
5.26085e-05
5.50561e-05
5.45103e-05
5.56849e-05
5.27463e-05
5.29646e-05
5.40038e-05
5.47312e-05
5.49195e-05
5.67394e-05
5.27736e-05
5.26977e-05
5.38829e-05
5.419e-05
5.36889e-05
5.48665e-05
5.50033e-05
5.43845e-05
5.61626e-05
5.35234e-05
5.44118e-05
5.48945e-05
5.70209e-05
5.58194e-05
5.60428e-05
5.42683e-05
5.48463e-05
5.46365e-05
5.46259e-05
5.67765e-05
5.56053e-05
5.41726e-05
5.44467e-05
5.45727e-05
5.45514e-05
5.49878e-05
5.45876e-05
5.39686e-05
5.62533e-05
5.59201e-05
5.48879e-05
5.46631e-05
5.4001e-05
5.46746e-05
5.60529e-05
5.53854e-05
5.46328e-05
5.42591e-05
5.4231e-05
5.36701e-05
5.53501e-05
5.4525e-05
5.45724e-05
5.45128e-05
5.4271e-05
5.40984e-05
5.34723e-05
5.34495e-05
5.31647e-05
5.58665e-05
5.51364e-05
5.3553e-05
5.39107e-05
5.33105e-05
5.42018e-05
5.52786e-05
5.53903e-05
5.40399e-05
5.3674e-05
5.40347e-05
5.44621e-05
5.46154e-05
5.65133e-05
5.41067e-05
5.40663e-05
5.41085e-05
5.43736e-05
5.32987e-05
5.48097e-05
5.55643e-05
5.51405e-05
5.62404e-05
5.34626e-05
5.46495e-05
5.57378e-05
5.7815e-05
5.57458e-05
5.73053e-05
5.42847e-05
5.50264e-05
5.57638e-05
5.58407e-05
5.68443e-05
5.71953e-05
5.43496e-05
5.48881e-05
5.57646e-05
5.57885e-05
5.60398e-05
5.59222e-05
5.60904e-05
5.66021e-05
5.72293e-05
5.61504e-05
5.58728e-05
5.609e-05
5.70731e-05
5.73246e-05
5.64755e-05
5.58467e-05
5.58507e-05
5.562e-05
5.56469e-05
5.71593e-05
5.65876e-05
5.58381e-05
5.57993e-05
5.55803e-05
5.54258e-05
5.57679e-05
5.54765e-05
5.47937e-05
5.72009e-05
5.61587e-05
5.5657e-05
5.51036e-05
5.45476e-05
5.53457e-05
5.64167e-05
5.66549e-05
5.55067e-05
5.55275e-05
5.5506e-05
5.54295e-05
5.65643e-05
5.6479e-05
5.54447e-05
5.51994e-05
5.54289e-05
5.51006e-05
5.47656e-05
5.52928e-05
5.52506e-05
5.60352e-05
5.60688e-05
5.45173e-05
5.49167e-05
5.50948e-05
5.68279e-05
5.68407e-05
5.76082e-05
5.56034e-05
5.54513e-05
5.63046e-05
5.62093e-05
5.65374e-05
5.75643e-05
5.55264e-05
5.52171e-05
5.63286e-05
5.65615e-05
5.5847e-05
5.63501e-05
5.67335e-05
5.63635e-05
5.81162e-05
5.57925e-05
5.67877e-05
5.68848e-05
5.82205e-05
5.76731e-05
5.74589e-05
5.64675e-05
5.65121e-05
5.6526e-05
5.66477e-05
5.77547e-05
5.76873e-05
5.64757e-05
5.67711e-05
5.64939e-05
5.67649e-05
5.6734e-05
5.65916e-05
5.61889e-05
5.81915e-05
5.76551e-05
5.68966e-05
5.68134e-05
5.63846e-05
5.6944e-05
5.7381e-05
5.70454e-05
5.64496e-05
5.65278e-05
5.61925e-05
5.60581e-05
5.75157e-05
5.67486e-05
5.63927e-05
5.66326e-05
5.62379e-05
5.64505e-05
5.59699e-05
5.59915e-05
5.59071e-05
5.75776e-05
5.74618e-05
5.61305e-05
5.63599e-05
5.5988e-05
5.69093e-05
5.71153e-05
5.81809e-05
5.62081e-05
5.60724e-05
5.68824e-05
5.69537e-05
5.67896e-05
5.84648e-05
5.62685e-05
5.64221e-05
5.68315e-05
5.62258e-05
5.60368e-05
5.71204e-05
5.72588e-05
5.74913e-05
5.71171e-05
5.60581e-05
5.62462e-05
5.69555e-05
5.84015e-05
5.8221e-05
5.74673e-05
5.70071e-05
5.71387e-05
5.68309e-05
5.69198e-05
5.857e-05
5.75889e-05
5.68659e-05
5.60422e-05
5.65769e-05
5.59738e-05
5.74271e-05
5.70313e-05
5.73396e-05
5.69642e-05
5.66182e-05
5.71189e-05
5.60995e-05
5.71157e-05
5.81527e-05
5.73466e-05
5.75288e-05
5.65899e-05
5.65092e-05
5.65049e-05
5.62511e-05
5.72964e-05
5.68536e-05
5.65024e-05
5.61296e-05
5.67312e-05
5.82848e-05
5.70268e-05
5.62299e-05
5.6472e-05
5.68267e-05
5.98996e-05
5.69581e-05
5.80279e-05
5.67549e-05
5.73994e-05
5.7885e-05
5.95141e-05
5.66619e-05
5.63928e-05
5.8103e-05
5.83657e-05
5.71451e-05
5.9954e-05
5.72509e-05
5.87762e-05
5.82456e-05
5.88211e-05
5.64914e-05
5.82004e-05
5.74096e-05
6.02655e-05
5.99363e-05
5.67968e-05
5.85555e-05
5.75568e-05
5.86502e-05
5.954e-05
5.79645e-05
5.82246e-05
5.86765e-05
5.78151e-05
5.84433e-05
6.01571e-05
5.91854e-05
5.82319e-05
5.84178e-05
5.70321e-05
5.56091e-05
5.76747e-05
5.83211e-05
5.76887e-05
5.94195e-05
5.58242e-05
5.76483e-05
5.59819e-05
5.74204e-05
5.83634e-05
5.76336e-05
5.6299e-05
5.72075e-05
5.77907e-05
5.56833e-05
5.52197e-05
5.87001e-05
5.55162e-05
5.64128e-05
5.51166e-05
5.55134e-05
5.49705e-05
5.74964e-05
5.54774e-05
5.64833e-05
5.55983e-05
5.60099e-05
5.71093e-05
5.54265e-05
5.64032e-05
5.7328e-05
5.62676e-05
5.70149e-05
5.5473e-05
5.48775e-05
5.55893e-05
5.50716e-05
5.53098e-05
5.62544e-05
5.55018e-05
5.5243e-05
5.62187e-05
5.75721e-05
5.61804e-05
5.52485e-05
5.59411e-05
5.64333e-05
5.89332e-05
5.62443e-05
5.72727e-05
5.61672e-05
5.68948e-05
5.75116e-05
6.04138e-05
5.60606e-05
5.58108e-05
5.88148e-05
5.91246e-05
5.69828e-05
6.08442e-05
5.7018e-05
5.83026e-05
5.90707e-05
5.9422e-05
5.60184e-05
5.88549e-05
5.78174e-05
5.93462e-05
6.0652e-05
5.62692e-05
5.88371e-05
5.78161e-05
5.90928e-05
6.06518e-05
5.98626e-05
5.92407e-05
5.95441e-05
5.91929e-05
5.93606e-05
6.10813e-05
6.00019e-05
5.92908e-05
5.94291e-05
5.89369e-05
5.81945e-05
5.84301e-05
5.91904e-05
5.87424e-05
6.06661e-05
5.87489e-05
5.83182e-05
5.83674e-05
5.85763e-05
5.99814e-05
5.93952e-05
5.66333e-05
5.86853e-05
5.86646e-05
5.61321e-05
5.58193e-05
5.94774e-05
5.62495e-05
5.81402e-05
5.73177e-05
5.58152e-05
5.52998e-05
5.85496e-05
5.58526e-05
5.61374e-05
5.83062e-05
5.6029e-05
5.8402e-05
5.56468e-05
5.61463e-05
5.6506e-05
5.63943e-05
5.5817e-05
5.55401e-05
5.52868e-05
5.50126e-05
5.5049e-05
5.60239e-05
5.61762e-05
5.53362e-05
5.50213e-05
5.4991e-05
5.50625e-05
5.58106e-05
5.53427e-05
5.61595e-05
5.5908e-05
5.64055e-05
5.58417e-05
5.54466e-05
5.62056e-05
5.79226e-05
5.59211e-05
5.85087e-05
5.50765e-05
5.52549e-05
5.69946e-05
5.73805e-05
5.65926e-05
5.89175e-05
5.50936e-05
5.54723e-05
5.71455e-05
5.76342e-05
5.69372e-05
5.73419e-05
5.74122e-05
5.68696e-05
5.9073e-05
5.69746e-05
5.74519e-05
5.74232e-05
5.91648e-05
5.88849e-05
5.92271e-05
5.76119e-05
5.77057e-05
5.78907e-05
5.7587e-05
5.90345e-05
5.81118e-05
5.77107e-05
5.78629e-05
5.79333e-05
5.75916e-05
5.71485e-05
5.68536e-05
5.4973e-05
5.91521e-05
5.79696e-05
5.71503e-05
5.67602e-05
5.49623e-05
5.46914e-05
5.89667e-05
5.70607e-05
5.76978e-05
5.70896e-05
5.61853e-05
5.61429e-05
5.78058e-05
5.71627e-05
5.77145e-05
5.69645e-05
5.6144e-05
5.60043e-05
5.49299e-05
5.62716e-05
5.66567e-05
5.76347e-05
5.69795e-05
5.49186e-05
5.61323e-05
5.66292e-05
5.89511e-05
5.70276e-05
5.51472e-05
5.5241e-05
5.72233e-05
5.51132e-05
5.51187e-05
4.63593e-05
4.62883e-05
4.70397e-05
5.68041e-05
5.70541e-05
5.67715e-05
2.49582e-08
2.28817e-07
5.11338e-08
4.12416e-08
2.85782e-07
2.77157e-07
1.32289e-07
1.14229e-07
2.77074e-07
3.44403e-07
1.2302e-07
4.57978e-07
3.73857e-07
2.06293e-07
2.16518e-07
3.10986e-07
5.36613e-06
2.69265e-07
7.18395e-06
1.30788e-05
2.03624e-05
3.6122e-07
4.85862e-06
3.1928e-07
6.48083e-06
1.4851e-07
1.67373e-07
1.49503e-07
1.59582e-07
1.48454e-07
1.67276e-07
1.4951e-07
2.67947e-07
5.1544e-07
2.19169e-07
2.54143e-07
2.73295e-07
4.99347e-07
2.18432e-07
1.38244e-05
2.19409e-05
2.57623e-07
2.41048e-07
7.36727e-07
3.38654e-07
2.65534e-07
2.40068e-07
6.97517e-07
1.81449e-06
1.84963e-06
3.55175e-07
1.81475e-06
1.82155e-06
4.9865e-07
1.05696e-05
4.09933e-07
1.34074e-05
3.53633e-05
4.52567e-05
5.50027e-07
9.5229e-06
4.57179e-07
1.22881e-05
1.47478e-07
1.66128e-07
1.48564e-07