/*--------------------------------*- C++ -*----------------------------------*\
| =========                 |                                                 |
| \\      /  F ield         | OpenFOAM: The Open Source CFD Toolbox           |
|  \\    /   O peration     | Version:  v2012                                 |
|   \\  /    A nd           | Website:  www.openfoam.com                      |
|    \\/     M anipulation  |                                                 |
\*---------------------------------------------------------------------------*/
FoamFile
{
    version     2.0;
    format      ascii;
    class       volScalarField;
    location    "1775";
    object      nut;
}
// * * * * * * * * * * * * * * * * * * * * * * * * * * * * * * * * * * * * * //

dimensions      [0 2 -1 0 0 0 0];


internalField   nonuniform List<scalar> 
171728
(
1.57187e-06
1.75769e-06
2.1735e-06
2.29088e-06
1.59652e-06
1.71785e-06
2.13235e-06
2.24515e-06
1.59219e-06
1.69071e-06
2.10658e-06
2.19478e-06
1.57053e-06
1.67333e-06
2.08745e-06
2.14997e-06
1.54333e-06
1.66124e-06
2.07489e-06
2.10671e-06
1.51205e-06
1.6474e-06
2.06423e-06
2.05811e-06
1.51825e-06
1.62231e-06
2.04643e-06
2.00464e-06
1.50905e-06
1.58033e-06
2.01314e-06
1.94799e-06
1.48539e-06
1.52956e-06
1.96358e-06
1.88778e-06
1.45996e-06
1.47457e-06
1.89732e-06
1.80566e-06
1.43117e-06
1.40743e-06
1.80092e-06
1.70431e-06
1.40346e-06
1.33383e-06
1.68871e-06
1.60419e-06
1.36909e-06
1.25636e-06
1.6011e-06
1.51187e-06
1.34535e-06
1.17607e-06
1.51619e-06
1.41948e-06
1.30843e-06
1.08892e-06
1.41137e-06
1.32644e-06
1.30362e-06
1.01306e-06
1.30527e-06
1.2182e-06
1.31869e-06
9.40467e-07
1.21583e-06
1.1452e-06
1.32726e-06
9.16542e-07
1.12334e-06
1.01336e-06
1.34135e-06
8.85682e-07
1.12461e-06
1.8203e-06
1.38518e-06
1.15059e-06
1.19484e-06
9.19651e-07
1.44063e-06
1.05774e-06
1.39763e-06
2.16473e-06
1.48127e-06
1.72261e-06
1.70723e-06
2.06477e-06
1.48616e-06
1.74973e-06
2.25425e-06
4.23671e-06
1.455e-06
2.8924e-06
2.77614e-06
4.40405e-06
1.3964e-06
3.95748e-06
3.85132e-06
8.17391e-06
1.27924e-06
5.64224e-06
5.62387e-06
1.34506e-05
1.25618e-06
6.33126e-06
7.36515e-06
1.5784e-05
1.54979e-06
9.86215e-06
8.42125e-06
2.71216e-05
2.33237e-06
1.07765e-05
1.32872e-05
2.82523e-05
2.33637e-06
1.49847e-05
1.34088e-05
4.00529e-05
1.78998e-06
1.8176e-05
1.84833e-05
4.35188e-05
1.63983e-06
2.15436e-05
2.22763e-05
5.26854e-05
1.91708e-06
2.67365e-05
2.60872e-05
5.84011e-05
2.25247e-06
3.05077e-05
3.10595e-05
6.40785e-05
2.68169e-06
3.58861e-05
3.582e-05
6.87245e-05
2.97356e-06
4.14255e-05
4.15814e-05
7.57672e-05
4.91977e-06
4.75323e-05
4.74197e-05
7.82141e-05
5.29515e-06
5.2129e-05
5.23699e-05
8.39726e-05
7.14351e-06
5.72525e-05
5.88404e-05
9.03658e-05
9.74855e-06
6.9081e-05
6.53323e-05
8.86955e-05
9.4896e-06
6.58401e-05
6.68974e-05
9.73034e-05
1.54712e-05
8.19305e-05
8.04337e-05
9.88876e-05
1.51194e-05
8.57798e-05
8.36946e-05
9.99059e-05
2.15379e-05
8.18565e-05
8.55603e-05
0.00010898
2.33592e-05
9.92407e-05
0.000100906
0.000116442
3.10995e-05
9.65387e-05
9.59481e-05
0.000113587
3.15696e-05
0.000108461
0.000107962
0.000112972
3.76262e-05
0.000107501
0.000108261
0.000121003
4.73463e-05
0.000119094
0.000119091
0.000129791
4.97491e-05
0.000121902
0.000119398
0.000130457
5.93207e-05
0.00012461
0.000128917
0.000129125
6.101e-05
0.000131738
0.000130762
0.000137973
7.45389e-05
0.000134502
0.000134541
0.000138508
7.73725e-05
0.000134757
0.00013895
0.000136944
7.54856e-05
0.000147235
0.000145013
0.000147096
0.000104201
0.000150079
0.000147722
0.000145728
0.000105321
0.000147988
0.000146733
0.000150771
0.00010271
0.000157529
0.000160117
0.00015782
0.000109934
0.000159475
0.000159592
0.000150537
0.0001226
0.000163387
0.000163859
0.000157752
0.000126336
0.000162787
0.000166306
0.000162968
0.000131997
0.000173702
0.000171719
0.000163468
0.000140133
0.000175085
0.000173039
0.000166399
0.000145629
0.000178238
0.000178749
0.000167317
0.000151043
0.000178536
0.000181371
0.000166661
0.000155868
0.000180815
0.000182674
0.000173582
0.000161595
0.000188061
0.000184106
0.000175619
0.000169832
0.000194529
0.000191455
0.000180265
0.000174536
0.000193129
0.000194804
0.000178557
0.000180234
0.000188238
0.000191237
0.000171463
0.000179274
0.000196783
0.000193402
0.000188557
0.000190314
0.000208619
0.000206574
0.00019377
0.000199398
0.000200854
0.000204293
0.00017664
0.000198275
0.000196862
0.000200264
0.000179137
0.00019664
0.000210955
0.000210251
0.000200473
0.00020856
0.000213422
0.000212353
0.000190356
0.000214109
0.000208846
0.000205443
0.000181816
0.000214912
0.000209548
0.000208048
0.000194137
0.000218663
0.000217475
0.00022124
0.000199348
0.000224082
0.000216261
0.000218784
0.000189984
0.000224897
0.000214561
0.000214974
0.000192754
0.000227565
0.000222393
0.00021336
0.000201199
0.00022943
0.000217341
0.000217441
0.000197916
0.000234003
0.000219124
0.000235219
0.000195198
0.000246666
0.000236071
0.00023149
0.000204449
0.000238973
0.000226625
0.000210184
0.000199599
0.00022619
0.000207362
0.000212248
0.000191934
0.000233554
0.000216673
0.000232298
0.000192983
0.000263938
0.000245375
0.000241903
0.0002103
0.000262729
0.000238097
0.000230226
0.000210938
0.000235848
0.000214371
0.000214235
0.000191911
0.00023223
0.000217943
0.000219767
0.000203754
0.000252977
0.00023135
0.000231849
0.000201242
0.000260692
0.000226774
0.000225154
0.000182161
0.000254989
0.000233563
0.000232784
0.000229148
2.24646e-06
2.12047e-06
2.16565e-06
2.27402e-06
2.05768e-06
2.43587e-06
1.54019e-06
1.5734e-06
1.63953e-06
1.48594e-06
2.02846e-06
2.02464e-06
2.23469e-06
2.47697e-06
2.06513e-06
2.29281e-06
2.23992e-06
2.22661e-06
2.47254e-06
1.74536e-06
2.91872e-06
1.74457e-06
2.27349e-06
2.23906e-06
1.781e-06
2.19761e-06
1.75617e-06
2.17423e-06
1.73685e-06
1.72564e-06
1.72665e-06
2.23241e-06
2.2162e-06
1.67399e-06
2.14032e-06
1.61553e-06
2.24692e-06
2.22419e-06
2.24711e-06
3.0916e-06
1.74377e-06
3.50622e-06
1.74208e-06
2.2371e-06
2.19028e-06
1.74911e-06
2.16918e-06
1.73114e-06
2.14727e-06
1.7265e-06
1.6966e-06
1.72415e-06
2.21463e-06
2.20047e-06
1.59797e-06
2.11202e-06
1.55587e-06
2.19682e-06
2.24188e-06
2.22799e-06
3.53537e-06
1.73469e-06
3.43613e-06
1.6987e-06
2.18708e-06
2.13834e-06
1.72693e-06
2.13799e-06
1.7156e-06
2.10762e-06
1.72354e-06
1.677e-06
1.7172e-06
2.19843e-06
2.18284e-06
1.54596e-06
2.0913e-06
1.52279e-06
2.15243e-06
2.21958e-06
2.17647e-06
3.35653e-06
1.68498e-06
2.98421e-06
1.6541e-06
2.13417e-06
2.08752e-06
1.71045e-06
2.09541e-06
1.69228e-06
2.05252e-06
1.71404e-06
1.66325e-06
1.70417e-06
2.18029e-06
2.16008e-06
1.51535e-06
2.07816e-06
1.48713e-06
2.11022e-06
2.16796e-06
2.10466e-06
2.82844e-06
1.64635e-06
2.36439e-06
1.63152e-06
2.08305e-06
2.03844e-06
1.68609e-06
2.0377e-06
1.66658e-06
1.99392e-06
1.70055e-06
1.64966e-06
1.68478e-06
2.15684e-06
2.13383e-06
1.4765e-06
2.06731e-06
1.4383e-06
2.06272e-06
2.09721e-06
2.04242e-06
2.24302e-06
1.626e-06
1.98489e-06
1.60816e-06
2.03367e-06
1.99416e-06
1.65913e-06
1.97992e-06
1.63468e-06
1.9387e-06
1.67759e-06
1.62923e-06
1.65127e-06
2.13035e-06
2.10599e-06
1.42442e-06
2.05279e-06
1.38347e-06
2.00997e-06
2.03746e-06
1.98999e-06
1.92578e-06
1.60092e-06
1.80326e-06
1.57282e-06
1.98909e-06
1.94812e-06
1.62616e-06
1.92546e-06
1.59199e-06
1.88852e-06
1.64072e-06
1.59055e-06
1.60743e-06
2.10228e-06
2.0731e-06
1.36825e-06
2.02466e-06
1.32209e-06
1.95307e-06
1.98553e-06
1.93279e-06
1.77181e-06
1.56064e-06
1.68939e-06
1.52099e-06
1.94313e-06
1.90119e-06
1.57945e-06
1.87835e-06
1.53752e-06
1.84918e-06
1.59534e-06
1.54191e-06
1.55486e-06
2.06832e-06
2.0332e-06
1.30633e-06
1.97607e-06
1.25978e-06
1.89246e-06
1.92747e-06
1.86453e-06
1.66456e-06
1.50642e-06
1.59233e-06
1.46044e-06
1.89627e-06
1.84357e-06
1.5231e-06
1.83961e-06
1.47539e-06
1.79589e-06
1.53998e-06
1.4884e-06
1.49271e-06
2.02752e-06
1.99527e-06
1.24231e-06
1.91639e-06
1.18596e-06
1.81129e-06
1.85767e-06
1.77859e-06
1.56751e-06
1.44384e-06
1.49584e-06
1.38826e-06
1.83806e-06
1.7642e-06
1.45895e-06
1.77696e-06
1.41381e-06
1.7065e-06
1.47534e-06
1.42525e-06
1.41685e-06
1.98844e-06
1.94179e-06
1.16813e-06
1.82698e-06
1.11501e-06
1.71034e-06
1.77094e-06
1.69089e-06
1.47028e-06
1.36752e-06
1.39224e-06
1.30384e-06
1.75771e-06
1.67565e-06
1.39898e-06
1.6797e-06
1.35755e-06
1.59371e-06
1.39627e-06
1.35191e-06
1.33332e-06
1.93302e-06
1.85806e-06
1.10239e-06
1.71665e-06
1.06485e-06
1.61194e-06
1.68172e-06
1.60032e-06
1.36762e-06
1.28231e-06
1.28859e-06
1.22125e-06
1.66623e-06
1.57884e-06
1.34308e-06
1.56559e-06
1.29603e-06
1.47989e-06
1.31235e-06
1.27225e-06
1.24652e-06
1.84621e-06
1.75187e-06
1.05321e-06
1.61981e-06
1.02294e-06
1.52186e-06
1.58843e-06
1.48504e-06
1.25846e-06
1.20109e-06
1.16523e-06
1.13819e-06
1.56575e-06
1.47378e-06
1.27778e-06
1.4551e-06
1.21321e-06
1.37696e-06
1.2297e-06
1.19353e-06
1.16178e-06
1.73658e-06
1.64487e-06
1.01301e-06
1.53905e-06
9.80447e-07
1.43336e-06
1.46783e-06
1.37156e-06
1.13878e-06
1.11699e-06
1.04709e-06
1.05345e-06
1.45668e-06
1.36212e-06
1.19263e-06
1.34905e-06
1.12462e-06
1.25909e-06
1.14089e-06
1.10794e-06
1.09069e-06
1.62627e-06
1.52903e-06
9.71358e-07
1.43745e-06
9.52021e-07
1.34205e-06
1.34788e-06
1.25272e-06
1.01909e-06
1.03264e-06
9.50128e-07
9.82589e-07
1.33862e-06
1.26295e-06
1.09923e-06
1.23041e-06
1.03587e-06
1.14454e-06
1.07193e-06
1.02782e-06
1.0023e-06
1.50677e-06
1.40998e-06
9.37246e-07
1.32828e-06
9.09385e-07
1.23565e-06
1.23055e-06
1.14826e-06
9.30902e-07
9.71193e-07
8.67381e-07
9.22215e-07
1.24607e-06
1.13688e-06
1.01692e-06
1.11819e-06
9.64373e-07
1.05207e-06
9.9566e-07
9.45799e-07
9.38808e-07
1.383e-06
1.29324e-06
9.20606e-07
1.2223e-06
8.83141e-07
1.147e-06
1.12952e-06
1.05933e-06
8.54273e-07
9.21611e-07
8.05892e-07
8.87207e-07
1.11753e-06
1.08047e-06
9.53444e-07
1.04941e-06
9.08346e-07
9.8581e-07
9.55366e-07
9.06978e-07
9.11759e-07
1.28136e-06
1.19265e-06
8.93912e-07
1.14295e-06
9.1042e-07
1.06216e-06
1.04553e-06
1.07368e-06
8.02966e-07
9.00699e-07
8.17659e-07
8.83099e-07
1.08841e-06
1.02705e-06
9.05223e-07
9.65257e-07
9.22567e-07
9.94882e-07
8.76345e-07
9.07601e-07
1.13624e-06
1.15415e-06
1.25726e-06
8.87561e-07
1.14053e-06
1.09056e-06
1.78224e-06
1.06098e-06
1.21917e-06
8.12339e-07
8.57562e-07
9.24818e-07
1.08359e-06
1.0223e-06
1.38655e-06
9.12085e-07
9.83868e-07
1.01497e-06
1.05304e-06
1.15499e-06
1.08593e-06
9.28149e-07
1.23115e-06
1.31856e-06
1.09323e-06
1.20149e-06
9.51621e-07
9.73293e-07
1.28929e-06
1.44308e-06
9.49388e-07
1.15735e-06
1.09491e-06
1.0163e-06
1.4996e-06
1.0967e-06
1.0231e-06
1.05373e-06
1.20384e-06
1.23608e-06
8.75546e-07
1.02098e-06
1.2149e-06
1.34321e-06
1.60143e-06
9.50702e-07
1.34984e-06
1.29991e-06
1.7617e-06
1.54178e-06
1.8473e-06
1.09497e-06
1.03513e-06
1.41e-06
1.70652e-06
1.048e-06
3.59431e-06
1.21637e-06
1.30091e-06
1.41292e-06
1.54821e-06
1.35768e-06
1.67038e-06
1.42367e-06
1.75192e-06
2.30371e-06
1.42102e-06
1.64074e-06
1.47399e-06
2.11347e-06
2.16542e-06
2.97414e-06
1.48305e-06
1.76331e-06
1.76517e-06
1.62896e-06
3.46268e-06
2.4096e-06
1.54486e-06
1.64366e-06
1.9049e-06
1.97698e-06
1.41762e-06
1.66727e-06
2.09996e-06
2.45301e-06
3.18194e-06
1.46675e-06
2.03601e-06
2.14466e-06
3.47477e-06
3.26296e-06
4.90277e-06
1.8291e-06
1.68076e-06
2.55554e-06
2.99459e-06
2.49381e-06
6.52822e-06
2.01542e-06
2.22988e-06
2.6979e-06
2.61124e-06
2.27919e-06
2.89544e-06
2.42399e-06
3.55813e-06
4.94984e-06
2.33974e-06
2.57889e-06
2.51438e-06
4.17002e-06
5.29905e-06
7.41134e-06
2.69898e-06
2.98164e-06
3.2135e-06
3.49324e-06
6.88834e-06
6.01481e-06
2.92288e-06
2.69137e-06
3.34464e-06
4.15573e-06
2.93924e-06
3.48486e-06
3.36562e-06
5.07396e-06
8.60457e-06
3.01431e-06
3.83337e-06
3.34195e-06
8.50744e-06
7.75822e-06
1.24625e-05
3.50454e-06
4.05117e-06
4.60074e-06
4.93747e-06
7.71051e-06
1.23215e-05
3.84007e-06
4.2156e-06
5.17896e-06
5.43783e-06
3.77363e-06
4.97087e-06
4.98879e-06
9.67012e-06
9.87103e-06
3.71031e-06
5.2042e-06
5.21365e-06
1.32229e-05
1.31017e-05
1.42424e-05
4.9909e-06
5.49045e-06
5.55661e-06
6.17134e-06
1.22364e-05
1.71666e-05
5.14001e-06
6.35019e-06
5.98424e-06
6.6057e-06
4.8829e-06
6.1607e-06
6.15985e-06
1.15788e-05
1.6623e-05
5.06029e-06
6.37482e-06
6.00275e-06
1.30723e-05
1.58036e-05
2.32403e-05
6.60873e-06
6.478e-06
9.15755e-06
8.60181e-06
1.68992e-05
2.32774e-05
7.24854e-06
7.41339e-06
8.88862e-06
9.45118e-06
7.34794e-06
8.76441e-06
9.0537e-06
1.60652e-05
2.51072e-05
7.29601e-06
8.5437e-06
9.37579e-06
2.77111e-05
2.35846e-05
2.78677e-05
9.14705e-06
9.63513e-06
1.31077e-05
1.12632e-05
2.67637e-05
2.99146e-05
8.59937e-06
9.23705e-06
1.12241e-05
1.27123e-05
8.89675e-06
1.10813e-05
1.05433e-05
2.53242e-05
3.04539e-05
9.14349e-06
1.21507e-05
1.02757e-05
2.63511e-05
3.23132e-05
4.41477e-05
1.64226e-05
1.10264e-05
1.82192e-05
1.21853e-05
2.93896e-05
3.20503e-05
1.29156e-05
1.40584e-05
1.38373e-05
1.36646e-05
1.16499e-05
1.2315e-05
1.42281e-05
3.61388e-05
3.70617e-05
1.1246e-05
1.32671e-05
1.46011e-05
3.86446e-05
4.30592e-05
4.28828e-05
1.82934e-05
1.48424e-05
1.95943e-05
1.85202e-05
3.44076e-05
4.98361e-05
1.50383e-05
1.3458e-05
1.77492e-05
1.67527e-05
1.48405e-05
1.84614e-05
1.63521e-05
3.58629e-05
4.17032e-05
1.53905e-05
1.68067e-05
1.6047e-05
4.23322e-05
4.43602e-05
4.71932e-05
1.92303e-05
1.84221e-05
2.16186e-05
2.03724e-05
5.05287e-05
4.6601e-05
1.7614e-05
1.86195e-05
1.98476e-05
2.2094e-05
1.74177e-05
2.0846e-05
2.1724e-05
4.54569e-05
5.28865e-05
1.7105e-05
2.19596e-05
2.16869e-05
5.09602e-05
4.88196e-05
5.99836e-05
2.38344e-05
2.11586e-05
2.86332e-05
2.47331e-05
4.76292e-05
5.94301e-05
2.14774e-05
2.23084e-05
2.46741e-05
2.46512e-05
2.23695e-05
2.45157e-05
2.46262e-05
5.37675e-05
5.56502e-05
2.20285e-05
2.4589e-05
2.51937e-05
5.7456e-05
6.17045e-05
6.29341e-05
3.06273e-05
2.71576e-05
3.34917e-05
3.13478e-05
6.01259e-05
6.36672e-05
2.64971e-05
2.61794e-05
3.0671e-05
2.98757e-05
2.68065e-05
3.09208e-05
2.93603e-05
5.65137e-05
6.41737e-05
2.71223e-05
3.00002e-05
2.92409e-05
6.27929e-05
6.40772e-05
6.86441e-05
3.32038e-05
3.08191e-05
3.51458e-05
3.29958e-05
6.50508e-05
6.67633e-05
3.07877e-05
3.08351e-05
3.4284e-05
3.4655e-05
2.95505e-05
3.30934e-05
3.49388e-05
6.5426e-05
6.69521e-05
2.98301e-05
3.46243e-05
3.5084e-05
6.78041e-05
6.94208e-05
7.23024e-05
3.70197e-05
3.61671e-05
3.88377e-05
4.1607e-05
6.81759e-05
7.46483e-05
3.67305e-05
3.5826e-05
3.84085e-05
3.8965e-05
3.69881e-05
4.16035e-05
3.84125e-05
6.81088e-05
7.41044e-05
3.66208e-05
3.94138e-05
3.81946e-05
7.38783e-05
7.38847e-05
7.93493e-05
3.91282e-05
4.12049e-05
4.76902e-05
4.42838e-05
7.52244e-05
7.85201e-05
3.87391e-05
4.14814e-05
4.75903e-05
4.78144e-05
3.9841e-05
4.43872e-05
4.80017e-05
7.5419e-05
7.83357e-05
4.00946e-05
4.76122e-05
4.70926e-05
7.78994e-05
7.98966e-05
8.08971e-05
5.00167e-05
4.76126e-05
5.03828e-05
5.29177e-05
7.98135e-05
8.125e-05
4.8975e-05
4.75153e-05
4.99683e-05
4.75978e-05
4.91215e-05
5.24473e-05
4.84382e-05
7.88005e-05
8.12323e-05
4.75715e-05
4.82395e-05
4.75524e-05
8.19825e-05
8.16706e-05
8.77715e-05
5.14536e-05
5.25783e-05
5.66889e-05
5.23545e-05
8.15747e-05
8.67974e-05
5.07802e-05
5.1698e-05
5.77398e-05
6.01509e-05
4.98173e-05
5.25673e-05
6.28821e-05
8.26755e-05
8.81428e-05
5.04546e-05
5.9608e-05
6.45349e-05
9.00258e-05
8.92948e-05
9.13389e-05
5.99008e-05
5.66335e-05
6.65313e-05
6.87274e-05
8.90773e-05
9.24874e-05
6.06039e-05
5.94627e-05
6.49513e-05
6.24575e-05
6.4296e-05
6.8811e-05
6.19382e-05
8.86804e-05
8.99589e-05
6.65487e-05
6.27812e-05
6.43003e-05
8.86075e-05
9.15491e-05
9.29411e-05
6.62643e-05
6.92164e-05
6.54367e-05
6.69061e-05
9.21266e-05
9.08986e-05
6.50406e-05
6.5495e-05
6.64552e-05
6.76046e-05
6.14263e-05
6.66975e-05
6.67693e-05
9.07411e-05
9.32345e-05
6.32407e-05
6.6877e-05
6.4562e-05
9.51662e-05
9.4066e-05
0.00010014
6.77212e-05
6.60926e-05
7.86346e-05
7.70639e-05
9.21501e-05
0.000102586
6.80932e-05
6.7315e-05
7.82154e-05
7.6333e-05
6.95096e-05
7.56025e-05
7.85768e-05
9.4012e-05
0.000100342
6.85054e-05
7.60734e-05
7.79665e-05
9.91589e-05
0.000100739
0.000100694
8.04831e-05
8.26443e-05
7.86824e-05
8.57936e-05
0.000104211
0.000102578
7.97899e-05
8.05495e-05
7.8657e-05
8.38992e-05
7.98525e-05
8.68492e-05
7.88647e-05
0.000101793
0.000102226
7.93986e-05
8.44683e-05
7.80681e-05
9.86713e-05
0.000101126
0.000107211
7.84267e-05
8.45299e-05
8.96488e-05
8.08921e-05
0.00010207
0.000103191
7.98756e-05
8.30357e-05
8.8051e-05
8.1987e-05
7.83032e-05
8.16905e-05
8.50459e-05
0.000101988
0.000104577
7.73418e-05
8.18712e-05
8.11255e-05
0.000107076
0.000108523
0.000110023
9.22086e-05
8.33456e-05
9.16015e-05
9.73105e-05
0.000105048
0.000112521
9.01158e-05
8.71622e-05
9.36596e-05
9.96425e-05
9.04418e-05
9.74757e-05
0.000101666
0.000106871
0.000113767
8.82614e-05
0.00010021
0.000104515
0.000115698
0.000110363
0.000114692
9.2525e-05
9.77268e-05
0.0001019
9.51399e-05
0.000112543
0.000111472
9.46093e-05
9.97217e-05
0.000100021
9.58958e-05
0.000102045
9.71163e-05
9.81894e-05
0.000113561
0.00011074
0.000106527
9.73086e-05
0.0001043
0.000114244
0.000115448
0.000115381
0.00010262
9.5426e-05
0.000101745
0.000107638
0.000112154
0.000119446
0.000102004
9.50654e-05
0.000102247
0.000106609
9.70874e-05
0.000106372
0.000100764
0.000110799
0.000118805
0.000102295
0.000104313
9.72426e-05
0.000112144
0.000115653
0.000121683
0.000103973
0.000109313
0.000109538
0.000108341
0.00011989
0.000118973
0.000102011
0.000108831
0.000110252
0.000107807
0.000102921
0.000108116
0.000108164
0.000120209
0.00011992
9.71723e-05
0.00010866
0.000104313
0.000119778
0.000122767
0.000125265
0.000110579
0.000107583
0.000116743
0.000114635
0.000119052
0.000125609
0.000113419
0.000107446
0.000115379
0.00011708
0.000110012
0.000115083
0.000119252
0.000119821
0.00012594
0.000107354
0.00011651
0.000119332
0.000128035
0.000125836
0.000128153
0.000118171
0.000118796
0.000119603
0.000122625
0.000127348
0.000128923
0.000115214
0.000119654
0.000120748
0.000120246
0.000121562
0.000122657
0.000120767
0.000127309
0.00012766
0.000123576
0.000120049
0.000128403
0.000131022
0.000128761
0.000131428
0.000120943
0.000121858
0.000125217
0.000121116
0.000128646
0.000129583
0.000123027
0.00011948
0.000124873
0.000124387
0.000119795
0.000121133
0.000119379
0.000127431
0.000131996
0.000127489
0.000125309
0.000124502
0.000128097
0.000131722
0.00013411
0.000125724
0.000124807
0.000128094
0.000132398
0.000131419
0.000137371
0.000124675
0.000128423
0.000128212
0.000132364
0.00012292
0.000132139
0.00013374
0.000134048
0.000136545
0.00012373
0.000131612
0.000126335
0.000136708
0.000135465
0.00014013
0.000130025
0.000131795
0.000136473
0.000133477
0.000137038
0.000136901
0.000131236
0.000131621
0.000136787
0.000131066
0.000135538
0.000133885
0.000135709
0.000136085
0.000135676
0.00013016
0.000130747
0.000135868
0.000138858
0.000139914
0.000136262
0.00013705
0.000134892
0.000136008
0.000135579
0.000137464
0.000137769
0.00013669
0.000134548
0.000135323
0.000139579
0.000135135
0.00013442
0.000133438
0.000137406
0.000141634
0.000136085
0.000138886
0.000135023
0.000136542
0.000135943
0.000144326
0.000135527
0.00013561
0.000138085
0.000142421
0.000137979
0.000146182
0.000134854
0.00013943
0.00014118
0.000141663
0.0001332
0.00014394
0.000143409
0.000141622
0.000144823
0.000134806
0.0001429
0.000143271
0.000146126
0.000147436
0.000151957
0.000143737
0.000145836
0.000153794
0.000151024
0.000148
0.000149277
0.000146334
0.000144299
0.000152369
0.000148814
0.000146297
0.000150585
0.00014829
0.00014602
0.000147153
0.000145965
0.000147878
0.000147872
0.000145908
0.000151524
0.000147808
0.000154028
0.000150781
0.000151296
0.000148605
0.000148801
0.00014644
0.000151926
0.000148687
0.000149051
0.000146831
0.000148204
0.000148
0.000148171
0.000146856
0.000145179
0.000147773
0.000146416
0.000147867
0.000148605
0.000147586
0.00015273
0.000150509
0.000148568
0.000153421
0.000155556
0.000147054
0.00015382
0.000148382
0.000146441
0.000154557
0.000156589
0.000150396
0.000156346
0.000159776
0.000145556
0.000155711
0.000150322
0.000157739
0.000159698
0.000158193
0.000153141
0.000152903
0.000154192
0.000156359
0.000155033
0.00015687
0.000154053
0.000154682
0.000156818
0.000159888
0.00015725
0.000161006
0.000159986
0.000158362
0.00015764
0.000156856
0.000155661
0.000159885
0.000160358
0.000157576
0.000151006
0.000153788
0.00015998
0.000157618
0.000158958
0.000165359
0.000164397
0.000155736
0.000158868
0.0001579
0.000160287
0.000164602
0.000163179
0.000156816
0.000163123
0.000157124
0.000155158
0.000158734
0.000156752
0.00016065
0.000156904
0.000155119
0.000159936
0.000157823
0.000166084
0.000164639
0.000164945
0.00016352
0.000158532
0.000156235
0.000165392
0.000164622
0.000164263
0.000164442
0.000161407
0.000162651
0.000169014
0.000159688
0.000158563
0.000161026
0.000166741
0.000169693
0.000163184
0.000157851
0.00016459
0.000164544
0.000163278
0.00017007
0.000170301
0.000156594
0.000165104
0.000163996
0.000163962
0.000170364
0.000168644
0.000169067
0.000171362
0.000169781
0.000158168
0.000163656
0.000169858
0.000169443
0.000169515
0.00016294
0.000165187
0.000164628
0.000172318
0.000173042
0.000173403
0.000175171
0.000166157
0.000166701
0.000172196
0.000172176
0.000172673
0.000175098
0.000171156
0.000175417
0.00017379
0.000165108
0.00016543
0.000170346
0.000173325
0.000173399
0.000166064
0.000164741
0.000169054
0.000173399
0.000174916
0.000177618
0.000177416
0.000166617
0.000168801
0.000173008
0.000174769
0.000178144
0.000176958
0.000174376
0.000176912
0.00017637
0.000165117
0.000168169
0.000174335
0.000175967
0.000177009
0.000167527
0.000169148
0.000168246
0.000178669
0.000178391
0.000178668
0.000178455
0.000168959
0.000167602
0.000178983
0.000178865
0.000178715
0.000180018
0.000176721
0.000178957
0.000176946
0.000169366
0.000170868
0.000177329
0.000181691
0.000177077
0.000166469
0.000168476
0.00017316
0.000178733
0.000178035
0.000183203
0.000180276
0.000167239
0.000169985
0.000178715
0.000180234
0.000183445
0.000183399
0.000177428
0.000178493
0.000182231
0.000170877
0.000172647
0.000177015
0.000181857
0.000181405
0.000172486
0.000173292
0.000172427
0.000184221
0.000182591
0.000184656
0.000186455
0.000171146
0.000174754
0.000184553
0.000183752
0.000184759
0.000183341
0.000184321
0.000187255
0.000187842
0.000172468
0.000170463
0.000183758
0.000183801
0.000188227
0.00017556
0.000172515
0.000178467
0.000185009
0.000186967
0.000190441
0.000192237
0.00017501
0.000181237
0.000184943
0.00018338
0.000189778
0.000187936
0.000188261
0.000192736
0.000190193
0.000170368
0.000177331
0.000188813
0.000189034
0.000191365
0.000179001
0.0001792
0.000179412
0.00019182
0.00019472
0.000193865
0.000194776
0.000182644
0.000181017
0.000191191
0.000190996
0.00019294
0.000195576
0.000192021
0.000194107
0.000192814
0.000179108
0.000181921
0.00019308
0.000195191
0.000193176
0.000179674
0.000179302
0.000178543
0.000194037
0.000193776
0.000192986
0.000188209
0.000179706
0.000171131
0.000193855
0.000195441
0.000194382
0.000193753
0.000192168
0.000188262
0.000188863
0.000181491
0.000176962
0.00019238
0.000192289
0.000188396
0.000171472
0.000178167
0.0001783
0.000192197
0.000187971
0.000192073
0.000190831
0.000170995
0.000179616
0.000194028
0.000192619
0.000193304
0.000192358
0.000189268
0.000191524
0.000195103
0.000176222
0.000177046
0.000188688
0.000191712
0.000193924
0.000184771
0.000179562
0.000187459
0.000193579
0.000195915
0.000202858
0.000207892
0.0001831
0.000193872
0.000193817
0.000193444
0.000201913
0.000203867
0.000201893
0.00020872
0.000209177
0.000178998
0.000190141
0.000200479
0.000205519
0.000208201
0.000194975
0.000187955
0.000187986
0.000204667
0.000208121
0.000205522
0.000205177
0.000193472
0.000184811
0.0002039
0.000205281
0.000205086
0.00020475
0.000208274
0.000204663
0.000199946
0.000190224
0.000186991
0.000207416
0.000205355
0.00020024
0.000178544
0.000187588
0.000183335
0.000205083
0.000202276
0.000201896
0.000197926
0.000182904
0.000177855
0.000204692
0.000204239
0.000202265
0.00020112
0.000196422
0.00019657
0.000195228
0.00018634
0.00018199
0.000197149
0.000200096
0.000196644
0.000176806
0.000182497
0.000183313
0.000200623
0.000198042
0.000200631
0.000203808
0.000178254
0.000190638
0.000201196
0.000201037
0.000201298
0.00020343
0.000196224
0.000206635
0.000212351
0.000181871
0.000189287
0.000197782
0.000205785
0.00021393
0.000199573
0.000185229
0.000194867
0.000202294
0.00020795
0.000212455
0.000213318
0.000192557
0.000194464
0.000202924
0.000207162
0.000212529
0.000212518
0.000215334
0.000213877
0.000214501
0.000191303
0.000194176
0.000216333
0.000212923
0.000214409
0.000192892
0.000194686
0.000189095
0.000212913
0.000213066
0.000211001
0.00021099
0.000193837
0.000189613
0.000212889
0.000212213
0.000210767
0.000209155
0.00021196
0.000209778
0.000205013
0.000193518
0.000186661
0.00021098
0.000206681
0.000203014
0.000181851
0.000188528
0.000190426
0.000210153
0.000210104
0.000210417
0.00020999
0.000189256
0.000189497
0.000209766
0.000207584
0.000209879
0.000207338
0.000205072
0.000209106
0.000208849
0.000185722
0.000186491
0.000203105
0.000206105
0.000207655
0.000191761
0.000191455
0.000196022
0.000211158
0.000210226
0.000215999
0.000215359
0.000189714
0.000195771
0.000210598
0.0002082
0.000216085
0.000218311
0.000213216
0.000216233
0.000218722
0.0001882
0.000199917
0.000212821
0.000220081
0.000220192
0.000199815
0.000196064
0.000194792
0.000216921
0.000217213
0.000217219
0.000218046
0.000196531
0.000196132
0.000216984
0.00021996
0.000217156
0.000220099
0.000218438
0.000217472
0.000214197
0.000200249
0.000197174
0.000220034
0.000220389
0.000215984
0.000190944
0.000194145
0.000192509
0.000216809
0.000217379
0.000215488
0.000214762
0.000194891
0.000190958
0.00021662
0.000219044
0.000215689
0.000216058
0.000212758
0.000214338
0.000213406
0.000196351
0.000193867
0.000214155
0.00021557
0.000213718
0.000191433
0.000192605
0.000198653
0.000215578
0.000214842
0.000219653
0.000220079
0.000190948
0.000200454
0.000215778
0.000215301
0.000218915
0.00021351
0.000214491
0.000221515
0.000223373
0.00019339
0.000190621
0.000214281
0.000213956
0.000220723
0.000200949
0.000198543
0.000194574
0.000220317
0.000220989
0.000219237
0.000219324
0.000200578
0.000194401
0.000219154
0.00021249
0.000218113
0.000215231
0.000224268
0.000220344
0.000223433
0.000189568
0.000190836
0.000221772
0.000215753
0.000221918
0.000199044
0.00019374
0.000196793
0.000218087
0.000216808
0.000219499
0.000218019
0.000192442
0.0001927
0.000218407
0.000217162
0.00022167
0.000234643
0.000221242
0.000217602
0.000218479
0.000192203
0.000213902
0.000221145
0.000231977
0.000220831
0.000195084
0.000199051
0.000209996
0.000221064
0.000219749
0.000232606
0.000235624
0.000194598
0.000214355
0.000225795
0.000238268
0.000232954
0.000235975
0.000218985
0.000234032
0.000226738
0.000215817
0.000211353
0.000221372
0.00023417
0.000227611
0.000203941
0.000209662
0.00019719
0.000233269
0.000237519
0.000227725
0.000232179
0.000215007
0.000205035
0.000232247
0.000232172
0.000221303
0.00020972
0.000228852
0.000231565
0.000227846
0.000207164
0.000182244
0.000228332
0.000213305
0.000225747
0.000201007
0.000194388
0.000185685
0.000222466
0.000226473
0.000210735
0.000207027
0.000201063
0.000180492
0.000216253
0.000206047
0.000209828
0.000206723
0.000225778
0.000209174
0.000217348
0.000180534
0.000184678
0.000222918
0.000210027
0.000216997
0.000192685
0.000185465
0.000193577
0.000209777
0.000205396
0.000214
0.000210318
0.000179198
0.000188638
0.000210757
0.000209712
0.000219333
0.000230472
0.000215192
0.000211587
0.000216415
0.000187468
0.000207272
0.000215909
0.000227482
0.000218141
0.000192496
0.000196891
0.000218597
0.000218391
0.000216747
0.000241783
0.000244424
0.000193477
0.0002216
0.000226277
0.000236941
0.000243992
0.000246833
0.000217893
0.00024189
0.000232816
0.000210087
0.000220233
0.000219785
0.000241552
0.000232754
0.000208351
0.000220094
0.000213562
0.000245393
0.000247856
0.0002438
0.000244531
0.000222892
0.000213739
0.000245832
0.000246731
0.000241592
0.000234825
0.000237436
0.000242927
0.000238848
0.000219865
0.000204911
0.000236494
0.000236149
0.000237518
0.000212598
0.000209601
0.000189886
0.000238988
0.000238384
0.000218186
0.000215966
0.000209555
0.000188012
0.000234531
0.000227431
0.000215735
0.000211964
0.000237527
0.00021698
0.000221715
0.000201378
0.000186623
0.000236355
0.000215518
0.000221826
0.000192977
0.000188139
0.000186584
0.000213826
0.000212416
0.000212542
0.000213024
0.000186452
0.000189141
0.000212278
0.000210571
0.000212444
0.000213282
0.000219798
0.000215203
0.000221777
0.000185776
0.000190788
0.000220076
0.00021614
0.00022216
0.000200897
0.000187179
0.000205302
0.000213572
0.000214863
0.000229105
0.000231635
0.000191749
0.000207287
0.000213773
0.000216675
0.000230388
0.000233668
0.000226272
0.000230616
0.000228218
0.000193724
0.000208284
0.000226601
0.000231439
0.000228375
0.000205189
0.000207541
0.000210549
0.000233937
0.000234165
0.000236596
0.000234329
0.000207773
0.000203175
0.000234786
0.00023528
0.000236911
0.000233918
0.000226413
0.000229016
0.000215498
0.000208442
0.000201631
0.000226491
0.000227624
0.000215263
0.000181853
0.000208674
0.000201494
0.00023555
0.000231098
0.000230757
0.000230876
0.000201165
0.000202845
0.000235645
0.000229615
0.000230509
0.000229938
0.000216785
0.000232627
0.000238581
0.000199416
0.000201654
0.000216453
0.000231513
0.000238222
0.000219371
0.000204479
0.000229787
0.000230937
0.000206399
0.000229629
0.000230326
0.000257293
0.000256967
0.000268275
0.000247735
0.000205456
0.000247392
1.68699e-06
1.96445e-06
1.13681e-06
1.00329e-06
1.30738e-06
1.93862e-06
5.63174e-07
1.23485e-06
1.25038e-06
2.37106e-06
1.36189e-06
1.689e-06
2.30688e-06
1.9119e-06
2.08712e-06
1.16534e-06
1.40322e-05
1.08449e-06
1.58851e-05
1.05709e-05
1.27876e-05
1.35003e-06
1.33574e-05
1.25351e-06
1.50875e-05
1.61454e-06
1.66756e-06
1.5266e-06
1.59513e-06
1.64095e-06
1.68803e-06
1.55302e-06
1.36202e-06
3.25173e-07
1.59284e-06
1.74304e-06
1.3383e-06
4.24882e-07
1.59852e-06
1.08536e-05
1.3294e-05
1.24935e-06
1.73424e-06
5.61766e-07
2.16065e-06
1.25566e-06
1.74135e-06
6.78624e-07
1.41511e-06
1.46496e-06
2.26801e-06
1.6556e-06
1.67078e-06
1.32772e-06
1.92375e-05
1.24131e-06
2.16861e-05
1.68363e-05
1.90501e-05
1.5118e-06
1.82765e-05
1.41388e-06
2.07597e-05
1.64094e-06
1.68814e-06
1.553e-06
1.59434e-06
1.64068e-06
1.687e-06