/*--------------------------------*- C++ -*----------------------------------*\
| =========                 |                                                 |
| \\      /  F ield         | OpenFOAM: The Open Source CFD Toolbox           |
|  \\    /   O peration     | Version:  v2006                                 |
|   \\  /    A nd           | Website:  www.openfoam.com                      |
|    \\/     M anipulation  |                                                 |
\*---------------------------------------------------------------------------*/
FoamFile
{
    version     2.0;
    format      ascii;
    class       volScalarField;
    location    "625";
    object      nut;
}
// * * * * * * * * * * * * * * * * * * * * * * * * * * * * * * * * * * * * * //

dimensions      [0 2 -1 0 0 0 0];


internalField   nonuniform List<scalar> 
14231
(
0.000145082
0.000114429
0.000145137
0.000189829
4.92681e-05
4.13459e-05
4.64338e-05
0.00016943
5.80453e-05
2.38389e-05
4.65801e-05
4.65802e-05
2.38401e-05
4.64328e-05
4.92702e-05
0.000169433
5.80424e-05
4.13297e-05
2.02712e-05
4.92612e-05
5.60594e-05
5.5538e-05
2.02741e-05
3.66226e-05
4.07988e-05
4.13206e-05
4.59827e-05
4.13524e-05
4.53713e-05
3.66057e-05
2.38429e-05
5.07962e-05
5.23429e-05
4.61598e-05
4.6502e-05
5.23079e-05
4.65014e-05
5.10308e-05
5.07103e-05
5.24069e-05
4.6174e-05
4.65129e-05
4.65123e-05
5.22795e-05
5.10895e-05
5.706e-05
2.16062e-05
2.16096e-05
2.16038e-05
2.16072e-05
5.74213e-05
2.38442e-05
4.92635e-05
3.66243e-05
4.07993e-05
4.59696e-05
4.13196e-05
4.53659e-05
4.13513e-05
3.66074e-05
5.78827e-05
0.000114549
8.242e-05
8.24401e-05
8.28867e-05
8.29062e-05
5.7844e-05
0.000205607
8.02274e-05
6.56957e-05
4.62904e-05
4.871e-05
4.86401e-05
6.58512e-05
7.974e-05
9.58793e-05
5.81755e-05
5.47178e-05
0.000101903
5.47923e-05
0.000102395
9.51902e-05
6.57089e-05
4.629e-05
6.58636e-05
9.58796e-05
5.81736e-05
0.000101897
5.47181e-05
9.5189e-05
0.000102391
5.47933e-05
0.000114428
0.000145096
0.000145126
0.000113177
0.000143631
0.00014366
0.00018983
4.92759e-05
4.92708e-05
4.14149e-05
2.38414e-05
2.38385e-05
4.65768e-05
4.65713e-05
4.92732e-05
4.13482e-05
4.64354e-05
0.000169433
5.80457e-05
4.92679e-05
4.64322e-05
2.38315e-05
2.38287e-05
4.6758e-05
4.67542e-05
4.66984e-05
4.66948e-05
0.000168092
5.77183e-05
4.92828e-05
2.02778e-05
5.61973e-05
4.92778e-05
2.0275e-05
5.67029e-05
3.65575e-05
4.19651e-05
4.61924e-05
4.12664e-05
3.65731e-05
4.67951e-05
4.12364e-05
2.38456e-05
2.38427e-05
5.07435e-05
5.23554e-05
4.61792e-05
4.65143e-05
4.65137e-05
5.23189e-05
5.11273e-05
5.07719e-05
5.23467e-05
4.61759e-05
4.6502e-05
4.65015e-05
5.23094e-05
5.1142e-05
5.71243e-05
2.16099e-05
2.16065e-05
2.16076e-05
2.16043e-05
5.74393e-05
2.02727e-05
4.92666e-05
5.60672e-05
2.02755e-05
5.55569e-05
3.66247e-05
4.0803e-05
4.13208e-05
4.59891e-05
3.66079e-05
4.13524e-05
4.53791e-05
4.92614e-05
2.38278e-05
2.3825e-05
5.18732e-05
5.2398e-05
4.65148e-05
4.71768e-05
5.13149e-05
4.65172e-05
5.24506e-05
5.18987e-05
5.23881e-05
4.65025e-05
4.71742e-05
5.13426e-05
4.65048e-05
5.24417e-05
5.83526e-05
2.16104e-05
2.1607e-05
5.76891e-05
2.16147e-05
2.16113e-05
5.78836e-05
0.00011455
8.24388e-05
8.24218e-05
8.29051e-05
8.28883e-05
5.78495e-05
5.7706e-05
8.1826e-05
8.18095e-05
0.000112993
5.77214e-05
8.14105e-05
8.13937e-05
0.000205607
0.000216981
0.00020561
0.000216979
8.02333e-05
6.57079e-05
4.62924e-05
4.87137e-05
6.58627e-05
4.8644e-05
7.97461e-05
9.58839e-05
5.81758e-05
5.47207e-05
0.000101903
5.47948e-05
0.000102395
9.51948e-05
6.56985e-05
4.62892e-05
6.58525e-05
7.97423e-05
6.52871e-05
4.68474e-05
6.51436e-05
7.87013e-05
6.52775e-05
4.88287e-05
4.68437e-05
4.89109e-05
7.91369e-05
6.51344e-05
9.39269e-05
5.76006e-05
5.45131e-05
0.000101165
5.44543e-05
9.46154e-05
0.000100646
0.000193278
0.000149638
0.000149637
0.000118811
0.000120365
0.000151158
0.000151146
0.000120365
0.000151186
0.000151146
0.000151194
0.000151152
0.000120359
0.000151188
0.000151184
0.000120349
0.000118825
0.000149613
0.000149611
0.000118824
0.000149642
0.000149605
0.00014961
0.00011882
0.000149637
0.000194422
0.000194421
0.000194418
0.000194417
4.01292e-05
4.92418e-05
3.91132e-05
4.92551e-05
2.38932e-05
2.38698e-05
4.0109e-05
4.92371e-05
3.91171e-05
4.92502e-05
0.000193275
0.00019327
0.000193271
5.90065e-05
4.51935e-05
0.000173548
0.000148125
5.98529e-05
4.56672e-05
0.000172163
2.38921e-05
2.3869e-05
5.90044e-05
0.000173542
4.51941e-05
0.000148118
5.98496e-05
0.000172161
4.56659e-05
4.43676e-05
4.43687e-05
0.000117339
4.53964e-05
4.53899e-05
2.39094e-05
2.39068e-05
4.41726e-05
4.41654e-05
4.92399e-05
3.90297e-05
4.92349e-05
4.92253e-05
3.9029e-05
4.4991e-05
0.000174947
6.01652e-05
0.000152721
4.49882e-05
0.000174944
4.45785e-05
6.01648e-05
2.3907e-05
2.39351e-05
0.000121833
4.41729e-05
4.4169e-05
4.31285e-05
4.31351e-05
2.39083e-05
2.39365e-05
4.92352e-05
3.90149e-05
4.49869e-05
0.000174947
6.01608e-05
4.92317e-05
3.90088e-05
0.000174939
4.49857e-05
6.01605e-05
6.12019e-05
0.00015275
4.49879e-05
0.00017495
4.45784e-05
0.000176367
6.01641e-05
3.81554e-05
4.92373e-05
4.92274e-05
3.90336e-05
6.12012e-05
0.000174945
4.49871e-05
0.000176362
6.01632e-05
3.81593e-05
4.92339e-05
3.90212e-05
2.39059e-05
4.41774e-05
4.418e-05
2.39078e-05
0.000174948
4.49868e-05
6.0162e-05
0.000174946
4.49858e-05
6.01608e-05
4.92364e-05
3.9027e-05
4.92319e-05
3.90215e-05
4.41779e-05
4.41715e-05
2.39075e-05
2.39061e-05
2.38957e-05
2.38722e-05
2.3893e-05
2.38696e-05
4.43655e-05
4.43719e-05
0.000117355
4.53914e-05
4.5382e-05
2.38606e-05
2.3858e-05
0.000115947
4.55801e-05
4.55803e-05
4.01269e-05
4.92367e-05
3.91121e-05
4.92501e-05
5.90088e-05
4.51952e-05
0.000173547
0.000148087
5.98526e-05
4.56698e-05
0.00017216
5.90086e-05
4.51939e-05
0.000173543
0.000148074
5.98523e-05
4.56678e-05
0.000172156
4.01991e-05
4.92575e-05
4.02023e-05
4.92524e-05
5.86916e-05
0.000146582
4.59052e-05
0.000170789
5.86911e-05
0.000146582
4.59037e-05
0.000170787
4.43668e-05
4.43728e-05
0.000117356
4.53911e-05
4.53884e-05
2.38946e-05
2.38712e-05
2.38582e-05
0.000115946
4.55771e-05
4.55816e-05
2.38595e-05
5.90048e-05
4.5192e-05
0.000173544
0.000148116
5.98487e-05
4.56663e-05
0.00017216
4.01064e-05
4.92337e-05
3.91185e-05
4.92469e-05
5.90046e-05
0.000173539
4.51921e-05
0.000148074
5.98493e-05
0.000172151
4.56654e-05
4.0199e-05
4.92525e-05
5.86867e-05
0.000146611
4.59017e-05
0.000170788
4.01952e-05
4.92494e-05
5.86873e-05
0.000146575
0.000170785
4.59013e-05
4.01232e-05
4.9239e-05
3.91092e-05
4.92523e-05
5.90058e-05
0.000173543
4.51935e-05
0.00014808
5.9852e-05
0.000172157
4.56661e-05
4.01108e-05
4.92358e-05
3.91097e-05
4.92489e-05
5.86907e-05
0.000146605
4.5903e-05
0.000170792
4.02018e-05
4.92547e-05
5.86893e-05
0.00014658
0.000170787
4.59021e-05
4.01977e-05
4.92513e-05
4.43529e-05
4.43624e-05
0.000117349
4.54013e-05
4.54032e-05
2.3894e-05
2.38707e-05
2.38574e-05
0.000115941
4.55701e-05
4.55814e-05
2.3859e-05
5.90039e-05
0.000173543
4.51922e-05
0.000148114
5.98487e-05
0.000172158
4.56652e-05
4.01189e-05
4.92381e-05
3.91139e-05
4.92515e-05
4.01118e-05
4.92338e-05
3.91158e-05
4.92468e-05
5.86876e-05
0.000146605
0.000170785
4.59026e-05
5.86863e-05
0.000146606
0.000170787
4.59011e-05
4.02043e-05
4.92539e-05
4.01995e-05
4.92492e-05
2.38937e-05
2.38703e-05
2.38923e-05
2.38689e-05
0.000115934
4.55856e-05
4.55846e-05
2.38586e-05
2.38573e-05
3.67378e-05
3.96545e-05
4.14978e-05
4.43502e-05
4.15327e-05
4.3763e-05
3.67183e-05
2.02676e-05
5.33904e-05
4.92472e-05
2.02647e-05
5.39929e-05
3.67794e-05
3.9546e-05
4.16277e-05
4.29635e-05
3.68002e-05
4.15913e-05
4.3544e-05
2.02673e-05
5.4698e-05
4.92494e-05
5.41483e-05
2.02702e-05
2.38876e-05
2.38749e-05
3.6737e-05
3.96467e-05
4.43307e-05
4.14967e-05
4.37563e-05
4.15317e-05
3.67175e-05
2.02673e-05
5.34063e-05
4.92424e-05
2.02645e-05
5.39721e-05
3.67785e-05
3.95637e-05
4.29738e-05
4.16267e-05
3.67994e-05
4.35532e-05
4.15901e-05
2.0267e-05
5.47066e-05
4.92444e-05
5.41291e-05
2.02699e-05
2.38867e-05
2.38741e-05
5.53079e-05
2.16022e-05
2.15987e-05
2.15983e-05
2.1595e-05
5.59536e-05
4.88527e-05
5.23223e-05
4.65299e-05
4.47824e-05
4.85786e-05
5.23143e-05
4.65269e-05
4.89652e-05
5.23124e-05
4.65181e-05
4.47825e-05
4.85628e-05
5.23068e-05
4.65151e-05
5.5155e-05
2.15958e-05
2.15925e-05
5.47398e-05
2.15983e-05
2.15949e-05
4.91787e-05
4.65185e-05
4.49684e-05
5.22746e-05
5.22677e-05
4.65203e-05
4.95494e-05
4.91168e-05
4.65068e-05
4.49663e-05
5.22649e-05
5.22592e-05
4.65087e-05
4.95983e-05
2.39157e-05
2.3913e-05
4.77438e-05
5.23932e-05
4.37422e-05
4.65394e-05
4.65441e-05
5.24228e-05
4.80815e-05
4.77625e-05
5.23799e-05
4.37382e-05
4.6527e-05
4.65316e-05
5.24077e-05
4.80936e-05
5.3584e-05
2.15944e-05
2.15911e-05
2.15917e-05
2.15885e-05
5.40954e-05
2.02625e-05
4.92357e-05
5.31832e-05
2.02652e-05
5.25997e-05
3.68666e-05
3.86299e-05
4.16878e-05
4.27681e-05
3.68442e-05
4.17257e-05
4.22092e-05
2.02612e-05
4.92306e-05
5.31691e-05
5.25853e-05
2.02638e-05
2.0262e-05
5.17706e-05
4.92292e-05
2.02597e-05
5.23994e-05
3.68644e-05
3.86297e-05
4.16875e-05
4.27648e-05
4.17256e-05
4.2208e-05
3.68421e-05
2.39132e-05
2.39283e-05
5.33914e-05
2.15862e-05
2.15895e-05
5.28934e-05
2.15883e-05
2.15916e-05
4.78146e-05
5.23786e-05
4.37322e-05
4.65267e-05
5.24057e-05
4.65312e-05
4.80619e-05
4.7681e-05
5.239e-05
4.37414e-05
4.65379e-05
4.65425e-05
5.2419e-05
4.80931e-05
4.74483e-05
4.65488e-05
5.25553e-05
4.3553e-05
5.25144e-05
4.71906e-05
4.65431e-05
4.75648e-05
4.65604e-05
5.25681e-05
4.35529e-05
4.71341e-05
4.65546e-05
5.25298e-05
5.35225e-05
2.1591e-05
2.15943e-05
2.1588e-05
2.15913e-05
5.41281e-05
2.39146e-05
2.39296e-05
2.02623e-05
4.92306e-05
5.32086e-05
2.02649e-05
5.25865e-05
3.68659e-05
3.86235e-05
4.27558e-05
4.16866e-05
3.68434e-05
4.2196e-05
4.17246e-05
2.02614e-05
4.92273e-05
5.31764e-05
5.25629e-05
2.02641e-05
3.68638e-05
3.86349e-05
4.16865e-05
4.2759e-05
4.1724e-05
4.21967e-05
3.68415e-05
3.69126e-05
4.14423e-05
4.18254e-05
3.85206e-05
3.69366e-05
4.19984e-05
4.1786e-05
2.02625e-05
4.92327e-05
5.32078e-05
5.26158e-05
2.02651e-05
2.02633e-05
5.17489e-05
4.92312e-05
2.02608e-05
5.24072e-05
3.68662e-05
3.86354e-05
4.27883e-05
4.16866e-05
4.22022e-05
4.17246e-05
3.68438e-05
3.69107e-05
4.18258e-05
4.14572e-05
3.85321e-05
3.6935e-05
4.17863e-05
4.20139e-05
2.02614e-05
4.92293e-05
5.31961e-05
5.25698e-05
2.0264e-05
2.02621e-05
4.9228e-05
5.23688e-05
3.68645e-05
3.86341e-05
4.16869e-05
4.27603e-05
4.1725e-05
4.22032e-05
3.6842e-05
2.39121e-05
4.77686e-05
5.23797e-05
4.37453e-05
4.65272e-05
5.23988e-05
4.65314e-05
4.82707e-05
4.7753e-05
5.23941e-05
4.37568e-05
4.65396e-05
4.65439e-05
5.24125e-05
4.82569e-05
5.37228e-05
2.15926e-05
2.15959e-05
2.15887e-05
2.1592e-05
5.44541e-05
2.39141e-05
2.02624e-05
4.92319e-05
5.32085e-05
5.26071e-05
2.02651e-05
3.68661e-05
3.86284e-05
4.27835e-05
4.16866e-05
4.2215e-05
4.17246e-05
3.68438e-05
2.02613e-05
4.92273e-05
5.31892e-05
5.25677e-05
2.0264e-05
3.68638e-05
3.86237e-05
4.2759e-05
4.16859e-05
4.21978e-05
4.1724e-05
3.68413e-05
5.32221e-05
2.15908e-05
2.15876e-05
4.77636e-05
5.23895e-05
4.37458e-05
4.65385e-05
4.81346e-05
5.24118e-05
4.6543e-05
4.76941e-05
5.23771e-05
4.37421e-05
4.65268e-05
4.82025e-05
5.23992e-05
4.65313e-05
4.73788e-05
4.35483e-05
5.25226e-05
4.65547e-05
5.35674e-05
2.15951e-05
2.15919e-05
5.43627e-05
2.15911e-05
2.1588e-05
2.39137e-05
2.39287e-05
2.39123e-05
2.389e-05
2.38774e-05
2.38874e-05
2.38747e-05
5.54975e-05
2.1602e-05
2.15987e-05
2.15998e-05
2.15965e-05
5.58756e-05
4.89845e-05
5.23151e-05
4.65303e-05
4.47974e-05
4.84354e-05
4.65274e-05
5.23119e-05
4.89908e-05
5.23035e-05
4.6518e-05
4.47934e-05
4.84731e-05
4.6515e-05
5.23015e-05
5.53228e-05
2.15955e-05
2.15922e-05
5.462e-05
2.15999e-05
2.15966e-05
4.92402e-05
4.65195e-05
4.49746e-05
5.22848e-05
4.65213e-05
4.95958e-05
5.22794e-05
4.9258e-05
4.6507e-05
4.49698e-05
5.22729e-05
4.65089e-05
4.96033e-05
5.22676e-05
2.3856e-05
2.16028e-05
2.15995e-05
5.62343e-05
5.04071e-05
4.65154e-05
5.2267e-05
4.60022e-05
4.98566e-05
4.65149e-05
5.22913e-05
4.65031e-05
5.22553e-05
4.98893e-05
3.67356e-05
3.9652e-05
4.14976e-05
4.43468e-05
4.15326e-05
4.37624e-05
3.67162e-05
2.02663e-05
5.3367e-05
4.92422e-05
2.02634e-05
5.39768e-05
3.67772e-05
3.95513e-05
4.16276e-05
4.2959e-05
4.1591e-05
3.6798e-05
4.35429e-05
2.02659e-05
5.46872e-05
4.92443e-05
5.4141e-05
2.02688e-05
3.66612e-05
4.14409e-05
4.45513e-05
4.0689e-05
3.66793e-05
4.14077e-05
4.51365e-05
2.02729e-05
5.48589e-05
4.92638e-05
2.027e-05
5.54142e-05
3.6659e-05
4.14408e-05
4.45506e-05
4.06928e-05
3.66772e-05
4.14074e-05
4.5134e-05
2.02715e-05
5.48329e-05
4.92586e-05
2.02685e-05
5.53907e-05
5.54572e-05
2.15985e-05
2.16019e-05
2.15961e-05
2.15994e-05
5.58893e-05
4.88944e-05
5.23078e-05
4.65176e-05
4.47936e-05
4.65148e-05
4.85609e-05
5.23027e-05
4.90109e-05
5.23127e-05
4.6529e-05
4.47912e-05
5.23179e-05
4.84618e-05
4.65262e-05
5.53165e-05
2.15922e-05
2.15956e-05
2.15963e-05
5.46796e-05
2.15996e-05
4.9304e-05
4.65068e-05
4.49617e-05
5.22706e-05
4.65086e-05
5.22662e-05
4.95377e-05
4.92081e-05
4.65181e-05
4.49729e-05
5.22952e-05
5.22662e-05
4.652e-05
4.95854e-05
2.38889e-05
2.38762e-05
2.38536e-05
5.68939e-05
2.15994e-05
2.16027e-05
5.62772e-05
2.16036e-05
2.1607e-05
5.03544e-05
4.65028e-05
5.22586e-05
4.60038e-05
5.22835e-05
5.0004e-05
4.65026e-05
5.04466e-05
4.6514e-05
5.22224e-05
4.59978e-05
4.98635e-05
4.65135e-05
5.23408e-05
2.38549e-05
3.6735e-05
3.96596e-05
4.14965e-05
4.43376e-05
4.15311e-05
4.37596e-05
3.67155e-05
2.02665e-05
5.33903e-05
4.92392e-05
2.02637e-05
5.39733e-05
3.67766e-05
3.95538e-05
4.16261e-05
4.29584e-05
4.15899e-05
3.67974e-05
4.35565e-05
2.02661e-05
5.46797e-05
4.92414e-05
5.41181e-05
2.0269e-05
4.45578e-05
4.14399e-05
3.66785e-05
5.48744e-05
2.02697e-05
4.14393e-05
4.45386e-05
3.66766e-05
5.48455e-05
2.02688e-05
3.67374e-05
3.96504e-05
4.43538e-05
4.14966e-05
4.37521e-05
4.15317e-05
3.67179e-05
2.02676e-05
5.33662e-05
4.92442e-05
5.39823e-05
2.02646e-05
3.67789e-05
3.95464e-05
4.29664e-05
4.16267e-05
4.35378e-05
3.67998e-05
4.15901e-05
2.02672e-05
5.47165e-05
4.92464e-05
5.41527e-05
2.02702e-05
3.67356e-05
3.96524e-05
4.1497e-05
4.43273e-05
4.15321e-05
4.37595e-05
3.67161e-05
2.02663e-05
5.33935e-05
4.92411e-05
2.02636e-05
5.3957e-05
3.67771e-05
3.95607e-05
4.16271e-05
4.2967e-05
3.67981e-05
4.15904e-05
4.35489e-05
2.0266e-05
5.46921e-05
4.92431e-05
5.41133e-05
2.02689e-05
3.66607e-05
4.45561e-05
4.14399e-05
4.06979e-05
3.66789e-05
4.51416e-05
4.14064e-05
2.02729e-05
5.48466e-05
4.92609e-05
2.02698e-05
5.54106e-05
3.6659e-05
4.14403e-05
4.45525e-05
4.07108e-05
3.66772e-05
4.14068e-05
4.51538e-05
2.02716e-05
5.48587e-05
4.92576e-05
2.02687e-05
5.53938e-05
5.53857e-05
2.15999e-05
2.16032e-05
2.15954e-05
2.15987e-05
5.6106e-05
4.88596e-05
5.23139e-05
4.65184e-05
4.47866e-05
4.65153e-05
4.85337e-05
5.23032e-05
4.88411e-05
5.23268e-05
4.65309e-05
4.47808e-05
5.23161e-05
4.85119e-05
4.65277e-05
5.5023e-05
2.15924e-05
2.15957e-05
2.15946e-05
5.46367e-05
2.15979e-05
4.91473e-05
4.6507e-05
4.49733e-05
5.22653e-05
4.65087e-05
5.22551e-05
4.96823e-05
4.91248e-05
4.65194e-05
4.4981e-05
5.22774e-05
5.2266e-05
4.65212e-05
4.96672e-05
2.38884e-05
2.38757e-05
2.16004e-05
2.16037e-05
5.63507e-05
4.65033e-05
5.2263e-05
5.00242e-05
5.03702e-05
4.65157e-05
5.22749e-05
4.59861e-05
5.00017e-05
4.65149e-05
5.22975e-05
2.38544e-05
3.67374e-05
3.96454e-05
4.43549e-05
4.14966e-05
4.37484e-05
4.15316e-05
3.67179e-05
2.02675e-05
5.33714e-05
4.92432e-05
5.39748e-05
2.02646e-05
3.67789e-05
3.95509e-05
4.29571e-05
4.16266e-05
4.35339e-05
3.67997e-05
4.159e-05
2.02672e-05
5.47271e-05
4.92454e-05
5.41395e-05
2.02702e-05
3.67349e-05
3.96473e-05
4.43281e-05
4.1496e-05
4.37567e-05
4.15311e-05
3.67155e-05
2.02663e-05
5.33925e-05
4.92391e-05
2.02636e-05
5.39627e-05
3.67765e-05
3.95593e-05
4.29701e-05
4.16261e-05
3.67974e-05
4.35502e-05
4.15894e-05
2.0266e-05
5.46871e-05
4.92411e-05
5.41147e-05
2.02689e-05
3.66607e-05
4.45643e-05
4.14398e-05
4.07037e-05
3.66789e-05
4.51511e-05
4.14064e-05
2.02728e-05
5.48603e-05
4.926e-05
2.02698e-05
5.54106e-05
3.66583e-05
4.45515e-05
4.14393e-05
4.07083e-05
3.66765e-05
4.51497e-05
4.14058e-05
2.02716e-05
5.48533e-05
4.92556e-05
2.02687e-05
5.53933e-05
2.3888e-05
2.38753e-05
2.38867e-05
2.3874e-05
5.68899e-05
2.16033e-05
2.15999e-05
5.63924e-05
2.1607e-05
2.16036e-05
5.0384e-05
4.65148e-05
5.22695e-05
4.59922e-05
5.0023e-05
5.22956e-05
4.65143e-05
5.04996e-05
4.6503e-05
5.22588e-05
4.59922e-05
5.00006e-05
5.22877e-05
4.65026e-05
2.3854e-05
2.38527e-05
0.00020823
0.000208235
0.000192128
0.000207358
0.000207363
0.000218124
0.000218683
5.85641e-05
8.63855e-05
8.63709e-05
0.000118834
5.86519e-05
8.57641e-05
8.57493e-05
5.90247e-05
0.000120313
8.69635e-05
8.69449e-05
8.76399e-05
8.76215e-05
5.89063e-05
5.90193e-05
0.000120312
8.6944e-05
8.69625e-05
8.76199e-05
8.76398e-05
5.89022e-05
5.90065e-05
0.000120308
8.69415e-05
8.69619e-05
8.76168e-05
8.76369e-05
5.8908e-05
5.90072e-05
0.000120298
8.69552e-05
8.69398e-05
5.89008e-05
8.76312e-05
8.76167e-05
5.85541e-05
8.63913e-05
8.63734e-05
0.00011885
5.86324e-05
8.57699e-05
8.57518e-05
5.85573e-05
8.63727e-05
8.63917e-05
0.000118851
8.57702e-05
5.86375e-05
8.57517e-05
5.85629e-05
8.6372e-05
8.63919e-05
0.000118845
8.57704e-05
5.86591e-05
8.57505e-05
0.000209096
0.000209101
0.00021923
0.000209095
0.000209101
0.00021923
0.000209092
0.000209099
0.000219228
0.000209093
0.000209098
0.000219228
0.000208229
0.000208234
0.000192127
0.000207357
0.000207363
0.000218124
0.000218682
0.000208226
0.000208231
0.000192124
0.000207354
0.000207361
0.000218122
0.00021868
0.000208226
0.000208232
0.000192123
0.000207355
0.000207361
0.000218122
0.00021868
0.000190984
0.000206485
0.000206491
0.000217558
0.000190982
0.000206484
0.000206491
0.000217558
0.000190977
0.000206483
0.000206487
0.000217556
0.000190978
0.000206481
0.000206488
0.000217555
9.84967e-05
5.92474e-05
5.53939e-05
0.000104498
5.55014e-05
0.000104942
9.78356e-05
8.31607e-05
6.78841e-05
4.83439e-05
4.53156e-05
8.38052e-05
6.75929e-05
4.837e-05
9.92154e-05
5.95608e-05
5.59348e-05
0.000106264
9.98528e-05
5.58088e-05
0.000105842
8.25663e-05
4.84389e-05
4.55382e-05
6.69137e-05
6.7157e-05
4.83963e-05
8.1975e-05
9.84938e-05
5.92453e-05
0.000104493
5.53928e-05
0.000104939
5.54988e-05
9.78305e-05
8.31573e-05
6.78822e-05
4.8343e-05
4.5316e-05
8.38015e-05
6.75923e-05
4.83696e-05
9.92101e-05
5.95595e-05
0.000106261
5.5932e-05
9.98501e-05
0.000105838
5.58066e-05
8.25626e-05
4.84374e-05
4.55367e-05
6.69131e-05
6.71539e-05
4.83938e-05
8.19714e-05
5.83269e-05
0.000117358
8.46106e-05
8.45956e-05
8.51805e-05
8.51662e-05
5.82518e-05
8.50903e-05
6.83193e-05
4.48765e-05
4.83587e-05
6.86564e-05
4.83504e-05
8.43915e-05
0.000101239
6.05036e-05
5.6277e-05
0.000107221
5.64184e-05
0.00010762
0.000100634
8.50832e-05
6.83055e-05
4.48745e-05
4.83553e-05
4.83479e-05
6.86424e-05
8.43843e-05
8.56664e-05
4.84081e-05
6.94613e-05
4.46847e-05
8.64202e-05
4.84001e-05
6.90778e-05
0.000101233
6.05033e-05
5.62737e-05
0.00010722
5.64161e-05
0.000107619
0.000100629
5.93296e-05
0.000121902
8.89197e-05
8.89371e-05
8.81853e-05
5.94556e-05
8.82042e-05
8.50849e-05
6.83085e-05
4.48733e-05
4.83551e-05
6.8645e-05
4.83453e-05
8.43873e-05
0.000101233
6.05009e-05
5.62724e-05
0.000107217
5.64141e-05
0.000107617
0.000100626
8.50797e-05
6.83032e-05
4.48715e-05
4.83526e-05
4.83434e-05
6.86389e-05
8.43814e-05
0.000101229
6.05016e-05
0.000107215
5.62715e-05
0.000107614
5.64135e-05
0.000100624
0.000102077
5.69542e-05
0.00010901
6.08105e-05
0.000102655
5.6794e-05
0.000108629
8.5093e-05
6.83204e-05
4.48745e-05
4.83591e-05
8.43938e-05
6.86583e-05
4.83499e-05
8.56772e-05
4.8409e-05
6.94771e-05
4.46845e-05
8.64304e-05
6.90935e-05
4.84001e-05
0.000101237
6.05023e-05
5.62754e-05
0.000107219
0.000100632
5.64161e-05
0.000107618
0.000102071
0.000109007
5.69512e-05
6.0811e-05
0.000102649
0.000108626
5.67921e-05
8.50871e-05
6.83151e-05
4.48731e-05
4.83546e-05
4.8345e-05
6.8652e-05
8.43871e-05
8.56698e-05
4.46836e-05
4.84005e-05
6.90875e-05
0.000101232
6.05032e-05
0.000107216
5.62727e-05
0.000107616
5.64152e-05
0.000100628
8.50893e-05
6.83192e-05
4.48724e-05
4.83588e-05
8.43912e-05
6.86551e-05
4.83491e-05
0.000101234
6.05004e-05
0.000107214
5.62763e-05
0.000100628
0.000107616
5.64167e-05
8.50833e-05
6.83066e-05
4.48722e-05
4.83534e-05
4.83441e-05
6.86427e-05
8.43851e-05
0.000101227
6.05e-05
0.000107213
5.62704e-05
0.000107614
5.64127e-05
0.000100622
5.83468e-05
0.000117372
8.46196e-05
8.46016e-05
5.82701e-05
8.51885e-05
8.5171e-05
5.80172e-05
0.000115885
8.40243e-05
8.40071e-05
5.80665e-05
8.35065e-05
8.34893e-05
9.84995e-05
5.92485e-05
5.53964e-05
0.0001045
5.55033e-05
0.000104943
9.78376e-05
8.31575e-05
6.78824e-05
4.83434e-05
4.53178e-05
4.83715e-05
8.38024e-05
6.75911e-05
9.92169e-05
5.95624e-05
5.59333e-05
0.000106265
5.58089e-05
9.98549e-05
0.000105844
8.25635e-05
4.84394e-05
4.55396e-05
6.69129e-05
4.83975e-05
6.71538e-05
8.19725e-05
9.84933e-05
5.92484e-05
5.53942e-05
0.000104499
5.55018e-05
0.000104942
9.78326e-05
8.31508e-05
6.78692e-05
4.83404e-05
4.53162e-05
8.37955e-05
4.83682e-05
6.75784e-05
9.92114e-05
5.95625e-05
5.59309e-05
0.000106264
9.98488e-05
5.5806e-05
0.000105843
8.25571e-05
4.84374e-05
4.55386e-05
6.68996e-05
4.83962e-05
8.19658e-05
6.7142e-05
9.64965e-05
5.51245e-05
0.000103654
5.8497e-05
9.71767e-05
5.50324e-05
0.000103187
8.08349e-05
4.84962e-05
6.64738e-05
4.60418e-05
6.629e-05
8.13737e-05
4.85532e-05
9.64922e-05
5.51228e-05
0.000103653
5.84972e-05
9.71708e-05
5.50298e-05
0.000103187
8.08285e-05
4.84933e-05
6.6462e-05
4.60402e-05
8.13677e-05
4.8549e-05
6.62776e-05
5.83449e-05
0.00011737
8.46002e-05
8.46191e-05
8.51888e-05
8.51695e-05
5.82667e-05
5.80203e-05
0.000115885
8.40058e-05
8.40244e-05
8.34887e-05
5.8069e-05
8.3508e-05
9.84927e-05
5.92461e-05
5.53928e-05
0.000104496
5.55008e-05
0.000104941
9.78303e-05
8.31537e-05
6.78714e-05
4.83444e-05
4.53141e-05
4.83707e-05
8.37972e-05
6.7581e-05
9.92092e-05
5.95603e-05
5.59299e-05
0.000106262
5.58067e-05
9.9848e-05
0.00010584
8.25584e-05
4.84356e-05
4.55371e-05
6.6903e-05
4.83936e-05
6.71444e-05
8.19682e-05
9.84896e-05
5.92466e-05
0.000104494
5.53924e-05
0.000104938
5.55001e-05
9.78281e-05
8.3148e-05
6.78663e-05
4.8341e-05
4.53148e-05
8.37919e-05
4.83695e-05
6.7576e-05
9.92064e-05
5.95592e-05
0.000106259
5.59279e-05
9.9845e-05
0.000105838
5.58047e-05
8.25539e-05
4.84343e-05
4.55356e-05
6.68972e-05
4.83933e-05
8.1963e-05
6.71389e-05
5.51201e-05
0.000103652
9.71695e-05
4.84954e-05
6.64639e-05
8.13687e-05
0.000103649
5.51186e-05
9.7167e-05
4.84909e-05
6.64591e-05
8.13645e-05
9.84929e-05
5.92487e-05
0.000104495
5.53927e-05
0.00010494
5.55018e-05
9.78313e-05
8.31542e-05
6.78789e-05
4.83446e-05
4.53157e-05
6.75876e-05
8.37994e-05
4.83709e-05
9.92105e-05
5.95613e-05
0.000106261
5.59315e-05
0.000105839
9.98484e-05
5.58069e-05
8.25608e-05
4.84345e-05
4.55372e-05
6.69083e-05
6.71512e-05
4.83932e-05
8.19687e-05
9.64956e-05
5.51241e-05
0.000103653
5.84956e-05
9.71743e-05
5.50319e-05
0.000103185
8.08387e-05
4.84966e-05
6.64757e-05
4.60392e-05
8.13771e-05
6.62917e-05
4.85523e-05
9.64901e-05
0.000103651
5.51207e-05
5.84953e-05
9.71697e-05
0.000103182
5.50293e-05
8.0832e-05
4.8494e-05
6.64708e-05
4.60388e-05
8.13711e-05
4.85506e-05
6.62866e-05
5.83193e-05
0.000117367
8.45969e-05
8.46168e-05
8.51847e-05
8.51657e-05
5.82541e-05
5.8033e-05
0.000115877
8.40047e-05
8.40235e-05
8.34875e-05
5.8085e-05
8.3507e-05
9.8487e-05
5.9246e-05
0.000104492
5.53908e-05
0.000104937
5.54999e-05
9.78255e-05
8.31517e-05
6.78697e-05
4.83429e-05
4.53145e-05
6.75799e-05
8.37957e-05
4.83698e-05
9.92045e-05
5.95599e-05
0.000106259
5.59291e-05
0.000105836
9.98426e-05
5.58049e-05
8.25574e-05
4.8434e-05
4.55365e-05
6.69008e-05
6.71428e-05
4.8393e-05
8.19665e-05
9.64905e-05
0.00010365
5.51237e-05
5.84948e-05
9.71712e-05
0.00010318
5.50326e-05
8.08347e-05
4.84969e-05
6.64734e-05
4.60392e-05
8.13728e-05
6.62904e-05
4.85534e-05
9.64846e-05
0.000103648
5.51184e-05
5.8494e-05
9.71638e-05
0.000103179
5.5027e-05
8.08297e-05
4.84922e-05
6.64624e-05
4.60378e-05
8.1368e-05
4.8549e-05
6.62793e-05
5.80306e-05
0.000115869
8.40181e-05
8.40039e-05
5.80736e-05
8.3502e-05
8.34875e-05
0.000145089
0.000114422
0.000145122
0.000189826
4.13268e-05
0.000169433
5.80434e-05
4.92648e-05
4.13286e-05
0.000169428
4.64317e-05
5.80431e-05
2.38379e-05
4.65925e-05
4.65935e-05
2.38396e-05
4.64322e-05
4.92692e-05
2.38534e-05
5.69002e-05
2.16072e-05
2.16039e-05
5.04275e-05
4.60027e-05
4.65026e-05
5.22814e-05
3.66604e-05
4.07098e-05
4.51516e-05
4.14065e-05
2.02724e-05
5.60581e-05
2.02753e-05
5.55441e-05
2.02726e-05
4.92589e-05
5.54112e-05
3.66239e-05
4.08061e-05
4.59625e-05
4.13197e-05
3.66071e-05
4.53801e-05
4.13514e-05
3.66584e-05
4.0705e-05
4.14063e-05
4.51481e-05
2.02714e-05
4.92583e-05
5.60469e-05
5.55308e-05
2.02743e-05
2.02717e-05
4.92556e-05
5.53953e-05
3.6622e-05
4.08124e-05
4.13195e-05
4.5974e-05
4.13508e-05
4.53797e-05
3.66051e-05
2.38421e-05
2.38527e-05
5.67179e-05
2.16028e-05
2.16062e-05
5.06205e-05
5.23403e-05
4.61711e-05
4.65021e-05
5.23014e-05
4.65016e-05
5.11646e-05
5.05899e-05
5.235e-05
4.61757e-05
4.65145e-05
4.65136e-05
5.23108e-05
5.11455e-05
5.03897e-05
4.59873e-05
5.22867e-05
4.65029e-05
5.69942e-05
2.16073e-05
2.16107e-05
2.16032e-05
2.16066e-05
5.76469e-05
2.38437e-05
2.02725e-05
4.92625e-05
5.6075e-05
5.55365e-05
2.02755e-05
5.78702e-05
0.000114543
8.24175e-05
8.24358e-05
8.28821e-05
8.2903e-05
5.78366e-05
0.000205614
0.000205605
9.64897e-05
5.84946e-05
5.50295e-05
0.000103183
8.02283e-05
4.87102e-05
4.86415e-05
8.08312e-05
4.6038e-05
6.62806e-05
4.85522e-05
9.58775e-05
5.81739e-05
5.47176e-05
0.000101899
5.47926e-05
0.000102392
9.51884e-05
9.64874e-05
5.84932e-05
0.000103181
5.50275e-05
8.0224e-05
6.56938e-05
4.6288e-05
4.87084e-05
4.86389e-05
6.58471e-05
7.97378e-05
8.08267e-05
4.60383e-05
4.85484e-05
6.62761e-05
9.5875e-05
5.81743e-05
0.000101898
5.4717e-05
0.00010239
5.47913e-05
9.51857e-05
8.02327e-05
6.5708e-05
4.62894e-05
4.87114e-05
7.97463e-05
6.58613e-05
4.86417e-05
2.34526e-05
2.34503e-05
5.72235e-05
0.000185231
0.000221563
0.000202642
0.00020264
0.000179707
0.000220552
0.000193748
0.000193748
0.000167337
0.00018288
0.000204885
0.000204878
0.000182879
0.000204905
0.000204876
0.000204908
0.000204885
0.000182875
0.000204905
0.000204895
0.000182868
0.000179716
0.000202641
0.000202633
9.59099e-05
9.59093e-05
0.000179714
0.000202637
0.00020263
4.81328e-05
3.95683e-05
9.59037e-05
0.00020263
0.000195946
0.000195936
0.000179711
3.0891e-05
0.000202639
0.000195943
0.000195952
0.000170261
0.000193751
0.000193762
9.44606e-05
9.44598e-05
4.77332e-05
3.92409e-05
9.4457e-05
3.09697e-05
4.69677e-05
4.80063e-05
2.59382e-05
4.69645e-05
4.8002e-05
0.000225329
0.000225328
0.000225328
0.000225326
0.000117548
0.000209422
5.54851e-05
0.00022231
2.59371e-05
0.000117545
0.000209419
0.000222308
5.54842e-05
0.000189774
3.03032e-05
3.02976e-05
4.14299e-05
4.85837e-05
4.32468e-05
4.88418e-05
2.56742e-05
2.55192e-05
4.14273e-05
4.85797e-05
4.3244e-05
4.88371e-05
0.000227039
0.000227039
0.000224433
0.000224433
0.000224431
0.000224432
0.000221559
0.000102112
5.18777e-05
0.00021777
0.000200408
0.000107378
5.00773e-05
0.000216181
2.56733e-05
2.55181e-05
0.00010211
0.000217769
5.18765e-05
0.000200405
0.000107375
0.000216177
5.00763e-05
3.018e-05
3.01747e-05
0.000176364
3.03977e-05
3.03926e-05
0.000226477
0.000225892
0.000220552
4.77334e-05
0.000211265
9.44546e-05
0.000191598
4.6609e-05
4.77326e-05
0.000211266
9.4453e-05
3.0964e-05
3.09594e-05
2.59409e-05
2.5938e-05
0.000189786
3.03062e-05
3.02981e-05
2.57411e-05
2.58843e-05
2.57381e-05
2.58817e-05
0.000186553
3.01736e-05
3.01642e-05
3.02075e-05
3.01995e-05
4.69661e-05
4.8003e-05
0.000117552
0.000209404
5.54873e-05
0.000222308
0.000117549
0.000209397
5.54783e-05
0.000222306
4.61587e-05
4.84998e-05
4.81313e-05
4.38458e-05
4.61571e-05
4.84963e-05
4.81283e-05
4.38444e-05
0.000115371
0.000207155
5.24982e-05
0.000219325
5.4724e-05
0.000220842
0.000109274
0.000115368
0.000207148
5.24897e-05
0.000219323
5.47156e-05
0.00022084
0.000109272
0.000189785
3.02996e-05
3.03042e-05
2.59397e-05
2.57383e-05
2.58819e-05
0.000186551
3.01653e-05
3.017e-05
3.02011e-05
3.02056e-05
2.57398e-05
2.58835e-05
0.000117544
0.000209419
5.54783e-05
0.000222307
4.69629e-05
4.80002e-05
0.000117539
0.000209395
0.000222305
5.54765e-05
4.61555e-05
4.84954e-05
4.81273e-05
4.38429e-05
0.000115365
0.000207153
5.24897e-05
0.000219324
5.47155e-05
0.00022084
0.000109269
4.61526e-05
4.84936e-05
4.81252e-05
4.38415e-05
0.000115364
0.000207145
0.000219322
5.24876e-05
0.000220837
5.47131e-05
0.000109265
4.69653e-05
4.80037e-05
0.000117546
0.000209402
0.000222306
5.54829e-05
4.69643e-05
4.80017e-05
0.000115368
0.000207158
5.2496e-05
0.000219327
5.47224e-05
0.000220841
0.00010927
4.61565e-05
4.8497e-05
4.81291e-05
4.38435e-05
0.000115365
0.000207147
0.000219323
5.24939e-05
0.00022084
5.47193e-05
0.000109269
4.61556e-05
4.8495e-05
4.8127e-05
4.38428e-05
0.000189781
3.02968e-05
3.03035e-05
2.59392e-05
2.57374e-05
2.58807e-05
0.000186549
3.01638e-05
3.01687e-05
3.01982e-05
3.02046e-05
2.57393e-05
2.5883e-05
0.000117543
0.000209411
0.000222306
5.54764e-05
4.69645e-05
4.8003e-05
4.69629e-05
4.80002e-05
0.000115365
0.000207156
0.000219324
5.24949e-05
0.000220841
5.47208e-05
0.000109268
0.000115361
0.000207154
0.000219324
5.2488e-05
0.000220837
5.47134e-05
0.000109266
4.61555e-05
4.84963e-05
4.81281e-05
4.38428e-05
4.6154e-05
4.84934e-05
4.81254e-05
4.38415e-05
2.59387e-05
2.59371e-05
0.000186545
3.01711e-05
3.01657e-05
3.02043e-05
3.01989e-05
2.57388e-05
2.58825e-05
2.57372e-05
2.5881e-05
2.56766e-05
2.55218e-05
2.5674e-05
2.55187e-05
3.01803e-05
3.01798e-05
0.000176376
3.04031e-05
3.03858e-05
2.53032e-05
2.54557e-05
2.53003e-05
2.54532e-05
3.08861e-05
3.087e-05
0.000170271
0.000173317
3.04496e-05
3.04495e-05
4.14287e-05
4.85806e-05
4.32454e-05
4.88384e-05
0.000102117
5.18795e-05
0.000217771
0.00020038
0.000107381
5.00782e-05
0.000216179
0.000102116
5.18723e-05
0.000217768
0.000200374
0.000107378
5.00685e-05
0.000216176
3.957e-05
4.90656e-05
4.09862e-05
4.8894e-05
3.95693e-05
4.90639e-05
4.09863e-05
4.88914e-05
4.81426e-05
0.000195932
0.000212923
0.000100458
0.000198166
4.95797e-05
0.000214563
4.81422e-05
0.000212921
0.000195947