/*--------------------------------*- C++ -*----------------------------------*\
| =========                 |                                                 |
| \\      /  F ield         | OpenFOAM: The Open Source CFD Toolbox           |
|  \\    /   O peration     | Version:  v2006                                 |
|   \\  /    A nd           | Website:  www.openfoam.com                      |
|    \\/     M anipulation  |                                                 |
\*---------------------------------------------------------------------------*/
FoamFile
{
    version     2.0;
    format      ascii;
    class       surfaceScalarField;
    location    "625";
    object      phi;
}
// * * * * * * * * * * * * * * * * * * * * * * * * * * * * * * * * * * * * * //

dimensions      [0 3 -1 0 0 0 0];
oriented        oriented;


internalField   nonuniform List<scalar> 
40902
(
1.06734e-06
1.02865e-06
5.13758e-07
-1.56792e-06
6.56088e-08
-5.74648e-07
-1.34816e-06
-2.56754e-08
-6.8069e-07
6.31671e-07
-0.0011106
-1.03253e-06
-0.000270538
-1.28267e-08
-6.51623e-09
1.0404e-06
-1.5308e-06
6.29663e-08
-5.7189e-07
-2.56125e-08
-6.83481e-07
-0.00111105
5.33115e-07
-0.0011126
1.68028e-07
2.11763e-08
-0.000205424
-4.27465e-08
2.97871e-07
-0.000246318
-1.70542e-07
-2.29363e-08
-1.78298e-10
-6.64948e-08
1.3573e-07
-0.000261747
1.05767e-07
1.0522e-06
-1.42985e-06
4.80044e-07
-1.24223e-06
6.78779e-07
-4.22156e-09
-0.00110758
-0.000263203
-5.98883e-08
1.62961e-07
-2.11335e-09
6.72803e-08
-0.000102096
2.0013e-07
-0.000296575
1.37551e-08
-7.16041e-08
6.89856e-08
2.02224e-07
-0.000296708
1.47177e-08
-2.14512e-08
-0.000102109
-1.70283e-07
1.35696e-07
-0.000261847
-0.000205473
-1.42461e-06
4.77343e-07
6.7319e-07
-1.23945e-06
1.06867e-06
-0.00110741
-3.56877e-07
-2.97798e-07
-0.000263225
1.65648e-07
-5.95496e-08
-0.000246355
-2.30598e-08
-1.70446e-07
7.4599e-08
8.23715e-05
-1.34406e-08
-8.24327e-05
-4.9769e-08
1.00836e-08
2.54911e-07
-0.000205639
-0.000281346
-3.69999e-08
2.63698e-08
2.06514e-07
2.76194e-08
3.26397e-07
-0.000281675
-1.22464e-08
-9.33479e-09
1.58227e-07
0.000150349
-0.000150511
-2.15882e-07
-2.24466e-08
4.33296e-07
5.84797e-11
-0.000246513
-0.000180279
7.56856e-09
-3.58662e-11
-0.000239719
-1.15851e-07
2.65888e-07
1.24044e-11
-0.000180504
3.99323e-07
-0.000239955
9.87897e-08
-0.000102185
2.62337e-07
-1.91662e-07
0.000237038
-1.83804e-07
3.27475e-07
-0.000237252
-0.000265572
-2.02611e-07
2.16201e-07
1.89051e-07
2.95669e-07
-8.75534e-09
1.10069e-07
-0.000296873
-0.000193325
1.35687e-07
-2.87371e-09
4.15201e-07
2.68349e-07
-0.000265698
-1.88903e-08
-0.000193506
-1.49919e-07
2.02686e-07
-1.90174e-07
2.62964e-07
0.000237118
-1.81609e-07
3.27091e-07
-0.000237336
-0.00026575
-2.01756e-07
2.17985e-07
1.88428e-07
-9.3639e-09
2.93898e-07
-9.88355e-08
1.07477e-07
-0.000297001
-0.000193391
1.36978e-07
-2.92146e-09
-1.90313e-08
-0.000193571
4.1323e-07
2.68802e-07
-0.000265875
-1.515e-07
2.01181e-07
-4.92915e-08
-4.92657e-08
0.000228209
-0.000228476
-8.43503e-05
3.55729e-08
-8.43663e-05
3.54441e-08
-8.44185e-05
-8.44346e-05
-1.01724e-08
-0.000102197
2.54946e-07
-0.000205688
1.60321e-07
-9.41502e-09
0.000150421
-0.000150585
1.33614e-08
-2.23586e-08
-2.15885e-07
4.33038e-07
-0.00024655
-0.000239823
-1.13652e-07
2.63501e-07
-2.64085e-08
-0.00018031
7.6441e-09
4.01637e-07
-0.000240058
-2.78121e-08
-0.000180535
1.2559e-08
4.51039e-07
4.50028e-07
0.000256071
-0.000256318
-5.76168e-07
-5.8128e-07
-0.000272479
-0.00026899
-1.1416e-07
-0.00026862
-1.14117e-07
-0.000269275
-0.00026891
4.70873e-10
-0.00111699
-6.16565e-07
-1.83333e-07
0.000272216
1.25844e-07
-0.00027289
-0.00027138
1.64594e-07
1.22908e-07
4.96396e-07
-0.000262001
-0.000266653
9.58569e-08
9.93068e-08
1.04856e-07
-0.000266926
-0.000271479
1.10537e-07
-6.58207e-07
6.08934e-08
0.000270879
-0.000271586
-5.60973e-08
6.50404e-07
5.01872e-10
-0.000263364
-0.000263758
1.27417e-07
-0.000269806
-6.13304e-08
-6.44128e-09
-0.000263969
3.30653e-09
-0.000270341
-0.000271486
4.96537e-07
-0.000262105
-0.00027159
0.000270928
5.7797e-08
-6.60961e-07
-0.000271631
-1.18088e-07
6.47647e-07
-5.54699e-08
-0.000263383
-5.97509e-08
-0.000269809
1.24731e-07
-0.00026384
-9.94568e-08
-1.05472e-07
-0.000270336
-0.000264052
-1.02552e-07
-1.07003e-06
-1.02745e-06
0.000272662
-0.00027054
-1.8206e-08
-6.29734e-09
0.00111135
1.03423e-06
5.13866e-07
-1.57038e-06
6.90209e-08
-5.77699e-07
-1.34837e-06
-2.33403e-08
-6.83404e-07
6.34518e-07
-0.00111047
0.00111232
1.04018e-06
-1.5283e-06
6.04684e-08
-5.69633e-07
-2.54894e-08
-6.80681e-07
6.28963e-07
-0.00111144
5.07513e-07
-1.34546e-06
1.57103e-06
1.52611e-06
-5.696e-07
-5.80672e-07
0.000270715
-5.77283e-07
1.07284e-06
6.92088e-08
-6.78211e-07
-2.27082e-08
4.94744e-07
-5.69174e-07
1.03027e-06
6.06732e-08
6.33076e-07
-6.78178e-07
-1.34467e-06
-2.25322e-08
5.38383e-07
-0.00111274
5.06852e-07
-0.00020534
1.02794e-08
2.48635e-07
0.000205129
-0.000205315
1.0262e-08
2.4852e-07
-4.83541e-08
0.000205105
4.28067e-07
0.000246054
-2.30775e-08
-2.06881e-07
-0.000246253
7.15225e-08
-2.14807e-08
0.000102068
-0.000102118
7.14143e-08
-2.14381e-08
0.000102051
-0.000102101
6.62677e-08
0.000296486
2.04997e-07
-0.0002967
1.37857e-08
6.61983e-08
0.000296405
1.99861e-07
-0.000296613
1.33449e-08
1.70523e-07
-0.000205489
-4.3097e-08
2.97825e-07
-0.000246362
-1.70608e-07
-2.28308e-08
0.000261845
1.35988e-07
-0.00026185
1.05601e-07
1.05221e-06
-1.42734e-06
4.80177e-07
-1.24234e-06
6.79003e-07
-0.00110764
-0.000263239
-5.90849e-08
1.62916e-07
1.70389e-07
-0.000205461
-4.57682e-08
0.000261806
1.3314e-07
-0.000261803
1.00303e-07
9.64575e-08
0.000101982
9.64303e-08
0.000101965
1.07333e-07
2.84961e-07
-6.06495e-09
0.000296197
1.04639e-07
2.89748e-07
-5.34228e-09
0.000296113
4.91796e-07
0.000261589
4.94245e-07
1.20075e-07
0.000261545
6.80246e-07
-1.24116e-06
-1.42646e-06
4.81583e-07
-0.00110844
0.000263255
-5.48334e-08
6.44253e-07
-0.000263418
2.17955e-08
1.64503e-07
-8.23332e-05
3.61351e-08
-1.2031e-08
-7.40557e-08
0.000280917
2.77493e-08
3.19758e-07
-0.000281239
-4.17029e-08
2.17896e-08
1.64428e-07
-1.34065e-08
-8.23938e-05
2.62715e-08
2.00418e-07
-0.000150144
1.10385e-07
-8.09119e-09
-2.28734e-08
-1.61851e-07
2.91132e-07
-1.52792e-07
0.000239435
3.94887e-07
-0.000239673
1.0169e-08
0.000179915
-0.000180132
-0.0001503
2.57206e-07
9.90526e-08
-1.02994e-08
-0.000102207
9.89638e-08
-1.02143e-08
-0.00010219
-1.90666e-07
2.62887e-07
0.000237116
-1.81115e-07
3.27655e-07
-0.000237335
-0.000265732
-2.01108e-07
0.000265737
2.15883e-07
1.85482e-07
-9.30842e-09
2.91566e-07
1.09955e-07
-0.000296993
-0.000193393
1.3754e-07
-4.07409e-09
0.000193273
-1.93758e-08
-0.000193573
4.15831e-07
2.71749e-07
-0.000265865
-1.50251e-07
0.000237004
1.98413e-07
-1.92625e-07
2.62408e-07
0.00023705
-1.81294e-07
3.28195e-07
-0.000237266
-0.00026562
-2.00761e-07
0.000265617
2.15598e-07
1.8807e-07
-8.8297e-09
2.96264e-07
1.09908e-07
-0.000296912
-0.000193329
1.35375e-07
-3.9806e-09
0.000193211
-1.93786e-08
-0.000193511
4.15251e-07
2.68886e-07
-0.000265745
-1.48073e-07
0.000236931
2.01289e-07
-4.95088e-08
-4.94789e-08
0.000228212
-0.000228475
-8.43681e-05
3.45338e-08
8.43295e-05
-8.43504e-05
3.46208e-08
8.43118e-05
-8.4437e-05
-8.44193e-05
0.000227983
8.24193e-05
7.4724e-08
-1.34532e-08
-8.24806e-05
-4.99584e-08
2.55123e-07
-0.000205704
-3.70516e-08
-0.000281482
2.62545e-08
2.04272e-07
-1.24459e-08
2.77098e-08
3.28823e-07
-0.000281814
0.000150425
-9.35761e-09
1.58302e-07
-0.000150588
-2.15927e-07
-2.24892e-08
4.33418e-07
-0.000246557
7.64214e-09
-0.000180316
-1.15886e-07
-0.000239826
2.63275e-07
-0.000180541
4.01976e-07
-0.000240064
2.55085e-07
-4.71763e-08
-0.000205679
6.96207e-08
6.9616e-08
-0.000236783
-1.32431e-07
2.00681e-07
-1.49386e-07
1.97772e-07
-2.6117e-07
0.000265601
4.11945e-07
2.70158e-07
1.83685e-07
0.000193098
-1.45109e-08
1.69482e-08
1.97525e-07
6.3042e-08
-1.81883e-07
3.25461e-07
-7.34619e-10
2.1246e-07
1.86194e-07
-0.000236716
-1.32625e-07
2.00434e-07
-1.47374e-07
2.00809e-07
-2.60822e-07
0.000265491
4.11429e-07
2.64807e-07
1.85928e-07
0.000193034
-1.44622e-08
1.70793e-08
1.95088e-07
6.54778e-08
-1.84273e-07
3.24069e-07
-7.71761e-10
2.12359e-07
1.91596e-07
-0.000227719
-3.79618e-08
-3.79268e-08
5.13536e-08
8.42636e-05
5.14067e-08
8.4246e-05
4.50865e-07
4.48852e-07
0.000256079
-0.000256323
-5.7052e-07
-5.81498e-07
-0.000272487
-0.000268602
-1.13268e-07
0.000268982
-0.000269035
-1.15975e-07
0.000269421
-0.000268884
-0.000269322
0.00025625
-0.000256003
1.13785e-07
1.16398e-07
-4.49345e-07
0.000268697
-4.4718e-07
0.000269129
-1.28781e-08
-3.80695e-09
5.09583e-07
-0.00111701
-1.13282e-07
-0.00112408
-5.69612e-07
3.90082e-07
-0.0011168
-5.3378e-07
-0.00112368
-6.99832e-07
-1.83597e-07
-6.19339e-07
0.000272286
1.18035e-07
-0.000272949
-0.000271467
1.64247e-07
0.000271601
4.96505e-07
1.22981e-07
-0.000262104
-0.000266761
9.31794e-08
1.01889e-07
-0.000271566
1.02312e-07
-0.00026703
1.18275e-07
-6.58363e-07
5.93933e-08
0.000270932
-0.000271643
-5.58642e-08
6.50498e-07
-0.0002634
-0.000263846
1.27335e-07
-0.000269835
-6.01535e-08
-0.000264056
-0.000270364
-0.000271456
1.58949e-07
0.000271593
4.98986e-07
1.28224e-07
-0.000262065
1.88951e-07
-0.000271558
0.000273075
-0.000272299
-9.05854e-08
1.02506e-07
0.000271502
1.30631e-07
-8.4968e-08
-0.000272406
-1.61787e-07
1.05178e-07
1.85511e-07
0.000271488
0.000266582
6.18422e-07
1.00915e-07
-0.000266862
1.02681e-07
1.27826e-07
9.99886e-08
1.28222e-07
-1.19546e-07
-0.000271077
5.53056e-08
-5.71671e-08
1.6045e-07
0.000263796
6.57818e-07
-0.000264013
-5.88171e-08
0.000269987
-0.00027053
-0.000271776
-1.06161e-06
-1.05686e-06
-0.0011097
5.39743e-07
5.5132e-07
0.00111072
-0.00110836
-1.53005e-06
1.05677e-06
5.20191e-07
0.00110926
-5.71394e-07
1.0199e-06
5.17111e-08
6.19045e-07
-6.88802e-07
-1.3488e-06
-3.20954e-08
-0.00110827
-1.5268e-06
1.05627e-06
5.25238e-07
0.00110917
-5.7237e-07
1.01714e-06
5.53412e-08
6.13045e-07
-6.88963e-07
-1.34624e-06
-3.49952e-08
-0.000271897
1.55838e-06
1.51895e-06
-5.74019e-07
-5.85216e-07
0.000269979
-1.05618e-06
-1.01372e-06
0.000271942
-0.000269819
-3.21726e-08
-2.09708e-08
0.00110778
1.06143e-06
5.23168e-07
-1.5687e-06
5.75554e-08
-5.77869e-07
-1.35278e-06
-3.83902e-08
-6.91763e-07
6.14079e-07
-0.00110686
1.05356e-06
0.00110791
1.0614e-06
-0.00110699
5.23227e-07
-1.56629e-06
5.42121e-08
-5.75473e-07
-1.35518e-06
-3.58154e-08
-6.94285e-07
6.16937e-07
-1.01616e-06
0.000271931
-0.000269813
-2.69433e-08
-2.10672e-08
0.00110876
1.06222e-06
5.22176e-07
-1.52669e-06
4.8993e-08
-5.69789e-07
-1.35007e-06
-3.81472e-08
-6.91689e-07
6.11251e-07
-0.00110784
1.05116e-06
0.00110781
1.06161e-06
5.23739e-07
-1.56392e-06
5.43525e-08
-5.77304e-07
-1.35244e-06
-3.54405e-08
-6.94094e-07
6.14477e-07
-0.00110689
1.06232e-06
-0.00110744
5.2233e-07
-1.52925e-06
4.86508e-08
-5.69825e-07
-1.35273e-06
-3.81633e-08
6.11574e-07
-6.94409e-07
1.04531e-06
0.00110749
1.05618e-06
5.23527e-07
-1.5581e-06
5.38382e-08
-5.76282e-07
-1.34988e-06
-3.56496e-08
-6.94212e-07
6.11602e-07
-0.00110656
-1.01374e-06
0.000271919
-0.000269801
-2.92583e-08
-2.36366e-08
1.06214e-06
5.22635e-07
-1.52693e-06
5.15864e-08
-5.7438e-07
-1.34707e-06
-3.78978e-08
6.09144e-07
-6.91466e-07
-0.00110735
1.00543e-06
0.00110845
1.06235e-06
5.17186e-07
-1.5161e-06
4.51988e-08
-5.68215e-07
-1.34959e-06
-3.53778e-08
-6.94161e-07
6.11541e-07
-0.00110753
-0.000269792
-3.25053e-08
-2.12135e-08
1.56966e-06
1.52757e-06
-5.74741e-07
-5.85782e-07
0.000270005
5.21227e-07
0.00110868
-5.79654e-07
1.05978e-06
5.98414e-08
6.19045e-07
-6.88983e-07
-1.35191e-06
-3.46617e-08
-1.56708e-06
1.05604e-06
5.21101e-07
0.00110882
-5.76978e-07
1.05736e-06
5.73496e-08
6.21741e-07
-6.91535e-07
-1.35421e-06
-3.21824e-08
-5.80431e-07
-5.85501e-07
0.00027
5.25558e-07
0.00110966
-5.71583e-07
1.01456e-06
5.12813e-08
6.16429e-07
-6.88992e-07
-1.34897e-06
-3.4486e-08
-1.56372e-06
1.05021e-06
5.10003e-07
0.00110873
-5.75209e-07
1.05467e-06
5.81787e-08
6.18704e-07
-6.91564e-07
-1.35167e-06
-3.25082e-08
1.05564e-06
5.20856e-07
0.00110839
-5.7597e-07
1.04915e-06
5.82977e-08
6.16248e-07
-6.91412e-07
-3.24103e-08
-1.34865e-06
-5.76842e-07
-5.8151e-07
0.000269986
1.05631e-06
5.1964e-07
0.00110936
-5.67897e-07
1.01206e-06
5.26925e-08
6.16174e-07
-6.91378e-07
-3.22189e-08
-1.34843e-06
5.41878e-07
5.42593e-07
-0.00110866
0.00110952
5.4196e-07
5.42648e-07
-0.00110848
0.00110933
5.41997e-07
5.42659e-07
-0.0011083
0.00110936
5.41966e-07
5.31983e-07
-0.00110831
-1.49403e-10
3.11782e-07
0.000246854
-0.000246955
-1.8871e-07
-2.17504e-08
-0.000206853
9.62639e-09
2.75679e-07
-5.33842e-08
0.000206621
-0.000247438
7.92523e-11
4.55239e-07
0.000247248
-2.44314e-07
-2.04218e-08
2.12412e-08
1.79907e-07
0.000206077
-4.55881e-08
-0.000206233
-0.000102635
-9.75634e-09
1.06853e-07
0.000102538
-2.12429e-08
7.6821e-08
0.00010233
-0.000102385
3.09354e-07
1.92157e-10
0.000246848
-0.000246948
-2.17576e-08
-1.88621e-07
-0.000206828
9.72985e-09
2.73364e-07
-5.32744e-08
0.000206598
-0.000247431
4.55903e-07
2.96679e-10
0.00024724
-2.03762e-08
-2.44701e-07
2.11753e-08
1.82011e-07
0.000206052
-4.55068e-08
-0.00020621
5.39756e-07
5.40457e-07
0.00111056
5.34216e-07
5.45665e-07
0.00111036
5.39568e-07
5.40301e-07
0.00111039
-3.14485e-07
-1.64774e-09
0.000263354
-0.000263154
-6.02629e-08
1.76498e-07
-0.000262863
-1.17888e-07
-2.7357e-07
5.09741e-07
1.32203e-07
0.000262613
0.00110547
-0.00110449
3.75473e-09
1.08088e-06
6.62202e-07
-1.24249e-06
-1.42943e-06
4.63632e-07
5.17554e-07
1.02312e-06
0.00111016
1.05113e-06
-1.35066e-06
-2.93406e-08
-6.89041e-07
6.23184e-07
-1.52996e-06
5.48384e-08
-5.69442e-07
-0.000263258
-4.5266e-07
1.59619e-09
0.000263107
-5.5839e-08
6.57503e-07
-7.55181e-08
-1.82062e-07
0.000262361
1.12069e-07
-0.000262361
1.45477e-07
-2.93574e-09
0.00110645
1.07479e-06
-1.42879e-06
4.68361e-07
-1.24153e-06
6.66837e-07
-0.000102627
-9.63815e-09
1.06526e-07
0.00010253
-2.15465e-08
7.45875e-08
0.000102325
-0.000102378
1.3826e-11
-3.12021e-07
0.000263347
-0.00026315
1.76535e-07
-6.13983e-08
0.00110533
-0.00110435
1.02063e-08
1.08619e-06
6.59366e-07
-1.24258e-06
-1.42673e-06
4.63648e-07
-0.000262858
-1.20262e-07
-2.74033e-07
5.12936e-07
1.31978e-07
0.000262607
5.45051e-07
1.02576e-06
0.00111001
1.06737e-06
-1.34539e-06
-3.14391e-08
-6.89153e-07
6.17843e-07
-1.52218e-06
5.93202e-08
-5.70653e-07
-0.000263251
8.49385e-10
-4.55499e-07
0.000263104
6.57678e-07
-5.55307e-08
1.57393e-08
0.00110631
1.08007e-06
-1.42614e-06
4.68426e-07
-1.24151e-06
6.64144e-07
-7.25321e-08
-1.82046e-07
0.000262356
1.12099e-07
-0.000262356
1.42492e-07
-0.000298546
1.20558e-07
-1.06938e-07
3.13982e-07
-1.286e-08
0.000298231
-0.000298455
1.17726e-07
-1.07072e-07
3.14347e-07
-1.2599e-08
0.000298142
-1.052e-06
-1.01481e-06
0.000272262
-0.000270161
-2.01797e-08
-1.42339e-08
7.27119e-08
-7.68818e-08
0.000297481
1.28789e-08
-0.0002977
2.10535e-07
7.50757e-08
-7.68037e-08
0.00029739
1.33523e-08
-0.000297611
2.10251e-07
7.94778e-08
-2.0483e-08
0.000102656
-0.000102715
8.18578e-08
-2.05038e-08
0.000102639
-0.000102701
7.94363e-08
0.000298579
2.25703e-07
-0.000298814
9.72482e-09
8.1727e-08
0.000298498
2.20916e-07
-0.000298728
9.4875e-09
1.92209e-07
-0.000207018
-4.77796e-08
-9.30466e-11
3.26666e-07
-0.000247536
-2.08372e-07
-2.00419e-08
1.94419e-07
2.05961e-08
0.000206787
-0.000206954
-4.78185e-08
2.87086e-07
8.49918e-09
-5.53642e-08
0.000207362
-0.000207602
3.26599e-07
0.000247394
-0.000247493
-2.08299e-07
-2.00515e-08
0.000262863
1.55752e-07
-0.000262865
1.18198e-07
-3.31874e-09
0.0011047
1.08743e-06
-1.43319e-06
4.59014e-07
-1.24654e-06
6.57683e-07
-0.0011037
-9.25922e-10
0.000263262
-0.000263059
-6.06858e-08
1.85141e-07
-1.56604e-06
6.12539e-07
-6.9659e-07
-1.35608e-06
-3.90344e-08
1.0507e-06
-5.76707e-07
5.26771e-08
-0.00110606
5.25351e-07
1.06692e-06
-7.95419e-08
0.00026276
1.55546e-07
-0.00026276
1.18428e-07
0.00110466
1.08737e-06
-1.4329e-06
4.61778e-07
-1.24653e-06
6.60292e-07
-0.00110367
-1.27854e-07
1.38297e-07
5.19041e-07
0.000263004
-0.000263246
0.000263234
-0.000263034
-5.96407e-08
1.85093e-07
8.22132e-08
-0.000102696
1.12491e-07
0.000102862
-0.000102966
1.52909e-06
0.000269625
-5.8242e-07
-5.87535e-07
-0.00027155
0.000298455
2.23741e-07
-0.000298686
1.02461e-08
-8.20428e-08
8.21147e-08
0.000298586
2.23238e-07
-0.00029882
1.04562e-08
-1.68353e-08
3.23384e-07
0.000299235
-0.000299557
-1.12627e-07
1.25119e-07
-1.64483e-08
3.23942e-07
0.000299368
-0.000299688
-2.05767e-08
0.000102647
-0.000102708
-8.51515e-09
0.000102873
-0.000102978
1.94273e-07
-0.000206995
-4.76833e-08
3.26874e-07
-9.62714e-11
-0.000247529
-2.00321e-08
-2.08323e-07
0.000262823
1.52823e-07
-0.000262818
1.18125e-07
-1.41071e-09
0.00110456
1.08716e-06
-1.43031e-06
4.64436e-07
-1.24645e-06
6.57296e-07
-0.00110357
-1.679e-09
0.000263254
-0.00026305
-6.02216e-08
1.85239e-07
1.9468e-07
2.07333e-08
0.000206773
-0.00020694
-4.80605e-08
3.29328e-07
0.000247386
-0.00024749
-2.06077e-07
-2.00397e-08
0.00110452
1.08728e-06
-1.43018e-06
4.64567e-07
-1.24646e-06
6.57603e-07
-0.00110353
-7.92449e-08
0.000262753
1.52876e-07
-0.00026275
1.18347e-07
0.000263224
-0.000263024
1.87877e-07
-5.98268e-08
-4.68196e-07
1.6382e-09
-5.58215e-08
6.64631e-07
0.000262996
-0.000263138
5.2443e-07
1.01329e-06
-5.71152e-07
4.70262e-08
6.09629e-07
-6.93866e-07
-1.35069e-06
-3.8998e-08
-0.00110651
1.06779e-06
-1.94361e-07
1.55342e-07
-0.00026286
1.18529e-07
-0.00110349
-3.60634e-09
1.08183e-06
-1.43045e-06
4.59051e-07
6.57446e-07
-1.24385e-06
-2.87179e-07
1.38404e-07
5.1902e-07
0.000263104
-0.00026335
3.26216e-09
6.52484e-07
-1.24497e-06
-1.43105e-06
4.53963e-07
-0.00110249
1.09364e-06
-3.29116e-07
-1.78559e-09
-0.000263055
-6.02079e-08
1.87785e-07
3.87014e-11
-1.8036e-08
-2.65406e-07
0.000247821
-0.000248006
0.000206837
-0.000207004
-4.76385e-08
-5.54438e-08
0.000207412
-0.000207652
-4.09164e-10
0.000247435
-0.000247535
-2.00524e-08
-2.08329e-07
-4.68568e-07
6.62118e-07
-5.58322e-08
0.000262973
-0.000263109
-0.00110344
0.00110444
1.08184e-06
-1.42747e-06
4.59091e-07
-1.24377e-06
6.54845e-07
-1.94332e-07
-7.95797e-08
0.000262792
1.55381e-07
-0.000262792
1.18479e-07
6.49959e-07
-1.24503e-06
-1.42833e-06
4.54068e-07
-0.00110244
-5.25423e-07
1.09369e-06
-3.29079e-07
0.000263229
-0.000263031
1.90503e-07
-6.04183e-08
-2.65647e-07
-1.79647e-08
0.00024778
-0.000247964
2.07053e-08
0.000206782
-0.000206949
-4.78012e-08
0.000247393
-0.000247494
-2.08199e-07
-2.04888e-08
8.24433e-08
-0.000102689
0.000298455
2.24591e-07
-0.000298684
8.17934e-09
-8.24154e-08
7.94155e-08
0.000298586
2.22027e-07
-0.000298812
7.5902e-09
-2.08098e-08
0.000102644
-0.000102705
-1.36022e-09
1.08166e-06
-1.42765e-06
4.59069e-07
6.54848e-07
-1.24373e-06
-0.00110335
-1.94779e-07
1.52923e-07
-0.000262856
1.18719e-07
-7.86321e-10
-3.26761e-07
-0.000263051
1.8787e-07
-6.04077e-08
0.00110429
1.08158e-06
-1.42458e-06
4.58955e-07
-1.24099e-06
6.54505e-07
-0.00110331
-1.94181e-07
-8.1826e-08
0.000262758
1.52435e-07
-0.000262753
1.18398e-07
-3.26818e-07
0.00026322
-0.000263023
1.87929e-07
-5.92656e-08
0.000206832
-0.000207
-4.79475e-08
-2.71098e-10
0.000247431
-0.00024753
-1.98953e-08
-2.08421e-07
2.07315e-08
0.000206773
-0.00020694
-4.77697e-08
0.000247391
-0.000247489
-2.02014e-08
-2.08353e-07
-8.22932e-08
2.21686e-07
-0.000298774
8.9761e-09
-8.22697e-08
2.21681e-07
-0.000298685
9.60732e-09
0.000102635
-0.000102697
0.000102628
-0.000102689
1.09244e-07
0.000102556
7.40908e-08
0.000102351
-0.000102404
1.07007e-07
0.000102542
7.64037e-08
0.000102334
-0.000102389
1.20487e-07
3.08682e-07
-1.08807e-08
0.00029827
1.18047e-07
3.13696e-07
-1.0329e-08
0.000298183
0.000272307
-1.06321e-06
-1.01798e-06
-0.000270188
-2.50345e-08
-1.35578e-08
0.000297513
7.28296e-08
1.16524e-08
-0.000297736
2.12831e-07
0.000297432
7.50889e-08
1.13969e-08
-0.000297652
2.10315e-07
1.039e-07
-1.00769e-08
0.000102257
1.01555e-07
-1.02189e-08
0.000102243
1.57031e-06
1.52819e-06
0.000270367
-5.74675e-07
-5.83162e-07
1.13764e-07
-8.53843e-09
2.9933e-07
0.000297212
1.13743e-07
-7.78228e-09
3.01874e-07
0.000297126
3.11817e-07
0.00024681
-0.000246912
-1.8867e-07
-2.17206e-08
2.73461e-07
-5.34985e-08
0.000206557
4.55302e-07
0.000247204
-2.44361e-07
-2.04362e-08
1.82116e-07
0.000206012
-4.55254e-08
-0.00020617
-1.08092e-09
0.000263359
-0.000263159
-6.04942e-08
1.73718e-07
5.09742e-07
1.31975e-07
0.000262617
0.00110568
3.78801e-09
1.08115e-06
6.65184e-07
-1.24535e-06
-1.42969e-06
4.69241e-07
5.18465e-07
0.00110958
1.05577e-06
-1.5695e-06
6.36512e-08
-5.77746e-07
-1.35068e-06
-3.18954e-08
-6.86372e-07
6.231e-07
9.28398e-10
0.000263112
-5.55227e-08
6.60235e-07
0.00026236
1.11903e-07
-0.000262363
1.43117e-07
-3.77669e-09
0.00110666
1.08586e-06
-1.43161e-06
4.71212e-07
-1.24706e-06
6.67154e-07
0.00026333
-0.000263133
-5.93827e-08
1.73708e-07
-1.20504e-07
5.09806e-07
1.32027e-07
0.000262512
0.00110565
1.0811e-06
6.65006e-07
-1.24808e-06
-1.43213e-06
4.69217e-07
5.18405e-07
0.00110971
1.06059e-06
1.0502e-06
-1.35311e-06
-2.93593e-08
6.25921e-07
-6.88945e-07
-1.56703e-06
6.03868e-08
-5.7501e-07
0.000263086
-5.6548e-08
6.60243e-07
0.000262257
-7.28717e-08
1.12123e-07
-0.00026226
1.45516e-07
0.00110662
1.08033e-06
-1.43134e-06
4.7395e-07
-1.24703e-06
6.69734e-07
-5.16052e-11
4.3982e-07
-2.24699e-07
-2.19308e-08
0.000246661
2.63042e-07
-5.1063e-08
0.000205855
4.39907e-07
-2.24804e-07
-2.19604e-08
0.000246617
2.60749e-07
1.02808e-08
-5.11376e-08
0.000205792
3.01556e-10
-5.53289e-08
6.53308e-07
0.0002632
5.16672e-07
1.04537e-06
1.06638e-06
-5.78471e-07
6.47343e-08
6.2763e-07
-6.86526e-07
-2.60995e-08
-1.35259e-06
1.26053e-07
5.03503e-07
0.000262108
-5.09785e-09
1.069e-06
6.71641e-07
-1.24585e-06
-1.4308e-06
4.78389e-07
-5.60589e-08
6.53304e-07
0.000263173
5.16604e-07
-1.56788e-06
1.04526e-06
6.30384e-07
-6.86356e-07
-1.35213e-06
-2.60484e-08
1.06393e-06
-5.76091e-07
6.21537e-08
-1.13665e-07
1.26174e-07
5.00829e-07
0.000262005
1.06894e-06
6.76994e-07
-1.24584e-06
-1.43051e-06
4.81155e-07
3.11271e-07
-1.15282e-08
0.000298141
-1.06982e-07
3.11533e-07
-1.11847e-08
0.000298275
0.000272299
-0.000270182
-1.9745e-08
-1.36171e-08
0.000297389
1.23595e-08
-0.000297611
2.13068e-07
-7.66169e-08
0.00029752
1.21881e-08
-0.000297744
2.12677e-07
-9.7532e-09
0.000102549
0.000102342
-2.1239e-08
-0.000102397
1.01482e-07
0.000102238
1.53076e-06
0.000270362
-5.78038e-07
-5.82953e-07
-8.5301e-09
2.99557e-07
0.000297086
-1.01561e-07
1.11194e-07
-8.622e-09
2.99511e-07
0.00029722
-1.02527e-08
0.00010225
-9.49434e-10
0.000263347
-0.000263152
-6.05933e-08
1.76494e-07
5.12328e-07
1.32191e-07
0.00026257
0.00110554
1.07723e-08
1.08084e-06
6.62223e-07
-1.2482e-06
-1.42965e-06
4.66519e-07
5.28309e-07
0.00111055
1.05097e-06
-1.52474e-06
5.51075e-08
-5.69687e-07
-1.34788e-06
-3.16401e-08
-6.86326e-07
6.20293e-07
2.12496e-09
0.000263106
-5.60928e-08
6.57875e-07
0.000262321
1.11715e-07
-0.000262319
1.42842e-07
1.75585e-08
0.00110651
1.07465e-06
-1.42867e-06
4.71124e-07
-1.24138e-06
6.66824e-07
3.11717e-07
0.000246805
-0.000246908
-1.86361e-07
-2.16144e-08
2.73743e-07
-5.34793e-08
0.000206543
4.53126e-07
0.0002472
-2.46694e-07
-2.00615e-08
1.79751e-07
0.000206
-4.57386e-08
-0.000206155
0.000263317
-0.000263126
1.79093e-07
-5.92414e-08
0.00110552
1.07556e-06
6.62254e-07
-1.24823e-06
-1.42953e-06
4.66464e-07
-1.20174e-07
5.12804e-07
1.31813e-07
0.000262502
4.86976e-07
0.00110968
1.04965e-06
1.03992e-06
-1.34783e-06
-2.89456e-08
6.20563e-07
-6.86416e-07
-1.5673e-06
5.63133e-08
-5.7897e-07
0.00026308
6.55186e-07
-5.58633e-08
0.00110648
1.0749e-06
-1.4286e-06
4.71248e-07
-1.24145e-06
6.6703e-07
0.000262251
-7.50502e-08
1.12061e-07
-0.00026225
1.42422e-07
4.43184e-07
4.32643e-10
-2.2176e-08
-2.25083e-07
0.000246652
2.60573e-07
-4.82177e-08
0.00020583
2.5573e-09
-5.622e-08
6.50977e-07
0.000263192
5.20976e-07
1.04594e-06
1.02387e-06
-5.70342e-07
5.61751e-08
-6.83817e-07
-1.34701e-06
6.24958e-07
-2.83209e-08
1.31261e-07
5.03381e-07
0.000262061
5.17717e-08
1.06858e-06
-1.24321e-06
-1.42808e-06
0.00110744
6.71416e-07
4.72871e-07
4.40389e-07
-2.27056e-07
-2.16162e-08
0.000246613
2.63315e-07
1.01166e-08
-5.11804e-08
0.000205778
6.48246e-07
-5.48834e-08
0.000263167
3.37486e-07
-1.60005e-06
8.975e-07
-6.83385e-07
-1.34667e-06
9.83191e-07
-5.89134e-07
5.49558e-08
0.00111103
6.27418e-07
-2.37557e-08
1.09087e-06
-1.24325e-06
-1.42787e-06
0.00110731
6.71318e-07
4.72747e-07
-1.10701e-07
1.25885e-07
5.0347e-07
0.000261995
-2.82506e-10
0.00024685
-0.000246954
-2.17468e-08
-1.88673e-07
-5.35145e-08
0.000206607
-6.89646e-11
0.000247247
-2.01308e-08
-2.44401e-07
0.000206062
-4.54634e-08
-0.00020622
-3.14308e-07
0.000263325
-0.000263131
1.7916e-07
-6.00415e-08
0.00110543
1.08098e-06
6.59598e-07
-1.24261e-06
4.6369e-07
-1.42666e-06
-2.73795e-07
5.10004e-07
1.32255e-07
0.000262544
5.18859e-07
0.0011093
1.04507e-06
-1.55878e-06
5.92712e-08
-5.75192e-07
-1.3452e-06
-3.16923e-08
-6.86398e-07
6.17626e-07
-4.5315e-07
0.000263084
6.55049e-07
-5.59491e-08
0.00110641
1.0694e-06
-1.42309e-06
4.65644e-07
-1.2387e-06
6.61495e-07
-1.81813e-07
0.00026229
1.11949e-07
-0.000262292
1.45149e-07
0.000246809
-0.000246913
-1.88487e-07
-2.20258e-08
9.69273e-09
-5.34391e-08
0.000206552
0.000247205
-2.44671e-07
-2.01356e-08
0.000206007
2.14627e-08
-4.56237e-08
-0.000206165
-4.37504e-07
1.61922e-09
-5.5394e-08
6.50739e-07
0.000263195
5.15588e-07
1.04589e-06
1.02649e-06
-5.70465e-07
5.95298e-08
6.27709e-07
-6.86345e-07
-1.34954e-06
-2.58441e-08
-2.60864e-07
1.26199e-07
5.00849e-07
0.000262106
5.29112e-09
1.06871e-06
6.71471e-07
-1.24033e-06
-1.4279e-06
4.72855e-07
-1.53131e-10
-2.16954e-08
-2.24864e-07
0.000246659
-5.11636e-08
0.000205842
-4.37936e-07
6.48238e-07
-5.58001e-08
0.000263172
5.16339e-07
-1.55933e-06
1.04489e-06
6.22284e-07
-6.83332e-07
-1.34385e-06
-2.84036e-08
1.05583e-06
-5.76099e-07
6.31087e-08
1.0688e-06
6.66085e-07
-1.23767e-06
-1.42237e-06
4.70102e-07
-2.60874e-07
-1.13575e-07
1.26159e-07
5.00705e-07
0.000262037
-2.25079e-07
-2.18343e-08
0.000246618
1.02933e-08
-5.1098e-08
0.000205787
3.1141e-07
-1.41383e-08
0.000298144
-1.06668e-07
3.13811e-07
-1.3616e-08
0.000298272
0.000272289
-0.000270174
-1.7113e-08
-2.27634e-08
0.000297384
1.26155e-08
-0.00029761
2.13244e-07
-7.69578e-08
0.00029752
1.21136e-08
-0.000297738
2.10795e-07
-9.54732e-09
0.000102547
0.000102339
-2.14757e-08
-0.000102394
1.03783e-07
0.000102231
1.50027e-06
0.000270352
-5.67294e-07
-5.95114e-07
-1.05328e-08
2.9969e-07
0.000297088
-1.01514e-07
1.13374e-07
-1.00135e-08
3.04731e-07
0.000297213
-1.01592e-08
0.000102247
-3.11869e-07
0.000263316
-0.000263123
1.76509e-07
-5.83532e-08
0.00110529
1.08616e-06
6.56521e-07
-1.24261e-06
4.60868e-07
-1.42654e-06
-2.73741e-07
5.12512e-07
1.32191e-07
0.000262505
5.12552e-07
0.00111026
1.05122e-06
-1.52212e-06
5.35931e-08
-5.69843e-07
-1.34775e-06
-2.90483e-08
-6.89098e-07
6.20438e-07
-4.55713e-07
0.000263076
6.57765e-07
-5.67523e-08
0.00110628
1.07459e-06
-1.42299e-06
4.65549e-07
-1.23871e-06
6.61218e-07
-1.81742e-07
0.000262256
1.11947e-07
-0.000262253
1.42256e-07
1.74591e-10
0.000246847
-0.000246948
-2.20925e-08
-1.88694e-07
-5.35736e-08
0.000206602
-6.01261e-11
0.000247241
-2.0154e-08
-2.44536e-07
0.000206057
-4.55627e-08
-0.000206215
0.000246806
-0.000246908
-2.1432e-08
-1.88539e-07
9.78658e-09
-5.34634e-08
0.000206543
0.0002472
-2.04734e-08
-2.44664e-07
0.000205998
2.14541e-08
-4.55896e-08
-0.000206155
1.28793e-09
-4.40294e-07
6.5082e-07
-5.56691e-08
0.000263191
6.72184e-07
1.21997e-06
1.09413e-06
-5.64306e-07
6.93728e-08
6.24864e-07
-6.88807e-07
-1.3466e-06
-2.8626e-08
0.00111046
4.68759e-08
1.05198e-06
6.68895e-07
-1.24032e-06
-1.42511e-06
4.72927e-07
-2.61102e-07
1.26149e-07
5.06114e-07
0.000262098
-4.40455e-07
6.50906e-07
-5.65259e-08
0.000263164
4.98926e-07
-1.52261e-06
1.04554e-06
6.25089e-07
-6.85949e-07
-1.34638e-06
-2.58312e-08
1.01868e-06
-5.70725e-07
5.74639e-08
1.06861e-06
6.6575e-07
-1.23766e-06
-1.42224e-06
4.70019e-07
-2.60841e-07
-1.10725e-07
1.26086e-07
5.03158e-07
0.000261998
1.05579e-11
-2.17182e-08
-2.25007e-07
0.000246653
-5.11328e-08
0.000205837
-2.20761e-08
-2.25052e-07
0.000246613
1.03437e-08
-5.11264e-08
0.000205778
0.000102538
0.00010233
-0.000102385
0.000102531
0.000102323
-0.000102378
0.000270341
-5.77385e-07
-5.83385e-07
-1.01703e-07
-8.70545e-09
3.02161e-07
0.000297175
-1.01755e-07
-8.36921e-09
3.02369e-07
0.000297087
0.000102239
0.000102232
-7.3707e-09
1.70044e-07
0.000151017
-0.000151193
1.32737e-08
-2.3476e-07
-2.11863e-08
-0.000247147
-2.46416e-11
4.48242e-07
-0.000181155
5.92273e-09
-4.41121e-12
0.000180961
-0.000240592
-1.27148e-07
-2.60827e-08
0.000240448
2.75969e-07
-0.000181397
-3.50344e-11
-0.000240832
-2.73743e-08
4.15594e-07
1.25087e-08
0.000150884
-8.26824e-05
3.87479e-08
-1.19339e-08
8.26556e-05
-7.63375e-08
0.00028325
2.71622e-08
-0.000283604
3.49801e-07
-4.69139e-08
0.00020646
2.13588e-08
1.86091e-07
-1.31663e-08
-8.27456e-05
2.57685e-08
0.000282994
2.22874e-07
-0.000151334
-4.55248e-09
1.33315e-07
-1.98421e-07
-2.09077e-08
1.10951e-10
3.19606e-07
6.18045e-09
0.0001816
-0.000181851
5.17165e-11
-1.76105e-07
0.000240976
-0.000241216
4.22315e-07
-0.000151517
6.06503e-12
2.82829e-07
7.5792e-08
8.25931e-05
-0.000282647
-3.82156e-08
0.000282397
2.16831e-07
-5.2374e-08
9.83729e-09
2.6992e-07
3.42411e-07
8.25674e-05
0.000102479
-2.10556e-08
7.96302e-08
-9.89971e-09
1.03753e-07
1.6997e-07
-7.52221e-09
0.000151013
-0.000151189
1.3515e-08
-2.16081e-08
-2.34541e-07
-0.000247139
3.50122e-10
4.47662e-07
-0.000240583
-1.271e-07
-2.60971e-08
0.000240438
2.76266e-07
-0.00018115
5.93744e-09
-9.83948e-11
0.000180955
-0.000240823
-2.74399e-08
4.15359e-07
-0.000181392
-2.29648e-11
1.24238e-08
0.000150879
-8.26812e-05
3.86222e-08
-1.19768e-08
8.26546e-05
-7.62134e-08
0.000283246
2.70927e-08
-0.000283597
3.46515e-07
-4.68583e-08
0.000206435
2.12056e-08
1.8848e-07
-1.27374e-08
-8.27447e-05
2.59337e-08
0.000282987
2.25131e-07
-0.000151329
1.33218e-07
-4.52374e-09
-2.09022e-08
-1.98461e-07
-6.83871e-12
3.19414e-07
-1.76394e-07
0.000240967
-0.000241207
4.22631e-07
5.93544e-09
0.000181595
-0.000181845
6.71606e-11
-0.000151513
2.82464e-07
9.07435e-11
7.57881e-08
8.25923e-05
-0.000282643
-3.8176e-08
0.00028239
2.19553e-07
-5.24026e-08
9.80945e-09
2.67543e-07
3.40381e-07
8.25666e-05
0.000102475
-2.09983e-08
7.68694e-08
-9.87415e-09
1.06384e-07