/*--------------------------------*- C++ -*----------------------------------*\
| =========                 |                                                 |
| \\      /  F ield         | OpenFOAM: The Open Source CFD Toolbox           |
|  \\    /   O peration     | Version:  v2006                                 |
|   \\  /    A nd           | Website:  www.openfoam.com                      |
|    \\/     M anipulation  |                                                 |
\*---------------------------------------------------------------------------*/
FoamFile
{
    version     2.0;
    format      ascii;
    class       volVectorField;
    location    "625";
    object      U;
}
// * * * * * * * * * * * * * * * * * * * * * * * * * * * * * * * * * * * * * //

dimensions      [0 1 -1 0 0 0 0];


internalField   nonuniform List<vector> 
14231
(
(-6.98405e-05 0.000116966 0.105531)
(-3.13436e-05 3.13847e-05 0.105246)
(-0.000116923 6.98064e-05 0.105531)
(-7.45044e-05 7.44978e-05 0.105755)
(1.41022e-05 4.74952e-05 0.0872792)
(-5.08108e-06 0.000103391 0.0981854)
(-3.37562e-05 8.69929e-05 0.0992891)
(-2.50456e-05 0.000120122 0.105687)
(-1.19937e-05 0.000130178 0.103768)
(6.57612e-06 2.73543e-06 0.074565)
(-1.88442e-05 6.26139e-05 0.0933806)
(-6.24879e-05 1.89456e-05 0.0933791)
(-2.54934e-06 -6.72295e-06 0.0745629)
(-8.69742e-05 3.37107e-05 0.0992889)
(-4.74365e-05 -1.42021e-05 0.0872793)
(2.50502e-05 -0.000120092 0.105687)
(1.20126e-05 -0.000130126 0.103768)
(5.08632e-06 -0.000103365 0.0981854)
(5.87206e-06 -1.07374e-06 0.0711121)
(1.19487e-05 6.79417e-05 0.0872822)
(-8.37273e-06 5.65045e-05 0.0917796)
(-8.93541e-06 7.4741e-05 0.0917889)
(3.35727e-06 -9.17317e-06 0.0711662)
(1.16371e-05 2.00789e-05 0.0806711)
(-4.68445e-06 0.000129137 0.0981722)
(-2.09163e-06 3.17753e-05 0.0828884)
(-1.07707e-05 8.72051e-05 0.0965308)
(-1.94212e-06 4.18312e-05 0.0829265)
(-1.03233e-05 0.000111286 0.0965286)
(9.74454e-06 1.03086e-05 0.0806594)
(1.13036e-06 1.15769e-05 0.0745352)
(-8.34003e-05 9.88508e-05 0.0979565)
(-7.93005e-05 9.01204e-05 0.102095)
(-3.21147e-05 7.41284e-05 0.0933763)
(5.12677e-06 3.85737e-05 0.0861791)
(-0.000104801 0.000138989 0.102029)
(-1.37317e-06 4.87894e-05 0.0861758)
(-7.09452e-05 6.8166e-05 0.0979782)
(-9.90485e-05 8.35537e-05 0.0979726)
(-8.9834e-05 7.90179e-05 0.102088)
(-7.42392e-05 3.21125e-05 0.0933825)
(-3.86376e-05 -5.11773e-06 0.0861813)
(-4.91014e-05 1.52351e-06 0.0861849)
(-0.000139154 0.000104995 0.10204)
(-6.7488e-05 7.05267e-05 0.097974)
(-4.63536e-05 4.63959e-05 0.0893018)
(-5.78715e-06 -1.7625e-06 0.0715839)
(1.79681e-06 5.8192e-06 0.07159)
(-1.24071e-05 2.40751e-06 0.0715617)
(-2.40961e-06 1.23718e-05 0.0715693)
(-3.93712e-05 3.94651e-05 0.0892649)
(-1.15665e-05 -1.13689e-06 0.0745381)
(-6.79314e-05 -1.1982e-05 0.0872837)
(-1.1704e-05 -2.00625e-05 0.0806706)
(4.71319e-06 -0.000128992 0.0981724)
(1.08007e-05 -8.72849e-05 0.0965325)
(2.03796e-06 -3.17177e-05 0.0828882)
(1.03466e-05 -0.000111112 0.0965285)
(1.90883e-06 -4.19117e-05 0.0829262)
(-9.7756e-06 -1.0236e-05 0.0806611)
(-0.000132143 0.00013193 0.102849)
(-0.000175592 0.000175478 0.105173)
(-1.59091e-05 9.92197e-05 0.104571)
(-9.89725e-05 1.58066e-05 0.104567)
(-0.000183181 0.000142781 0.104486)
(-0.000142974 0.000183152 0.10449)
(-8.70075e-05 8.71739e-05 0.10293)
(-2.48134e-05 7.51888e-05 0.105791)
(-5.7622e-05 0.000246255 0.104511)
(-7.01023e-05 2.58226e-05 0.103856)
(-4.73032e-05 0.000126606 0.0992118)
(-4.57126e-05 0.00010575 0.101806)
(-4.75083e-05 0.00015485 0.101713)
(-8.04185e-05 0.000239816 0.103753)
(-5.62595e-05 3.30094e-05 0.104623)
(-3.19669e-05 0.000240805 0.104918)
(-1.09194e-05 0.00018145 0.103688)
(-3.21769e-05 0.000122492 0.103236)
(-1.35913e-05 5.81663e-05 0.105155)
(-3.0391e-05 0.000173986 0.103149)
(-1.24825e-05 0.00023739 0.105079)
(-3.28374e-05 5.08243e-05 0.105009)
(-2.57897e-05 6.99356e-05 0.103855)
(-0.000126623 4.73086e-05 0.0992148)
(-0.0002398 8.0561e-05 0.103756)
(3.19643e-05 -0.000240822 0.104918)
(1.09293e-05 -0.000181375 0.103688)
(1.35732e-05 -5.81484e-05 0.105155)
(3.22435e-05 -0.00012249 0.103237)
(3.28414e-05 -5.08682e-05 0.105009)
(1.2461e-05 -0.000237358 0.105079)
(3.04148e-05 -0.000173898 0.103149)
(3.12841e-05 3.12437e-05 0.105246)
(6.98423e-05 0.000116958 0.105531)
(0.000116891 6.98294e-05 0.105531)
(0.000175635 0.000175508 0.105239)
(6.95365e-05 0.000116344 0.105614)
(0.000116271 6.95083e-05 0.105615)
(7.44807e-05 7.44944e-05 0.105755)
(-1.19379e-05 6.55122e-05 0.0871301)
(6.54751e-05 -1.19166e-05 0.0871302)
(0.000125875 4.94689e-06 0.0980532)
(-6.71133e-06 2.49787e-06 0.0745636)
(2.4761e-06 -6.70368e-06 0.0745619)
(1.88647e-05 6.2501e-05 0.0933811)
(6.24402e-05 1.8853e-05 0.093378)
(-1.42392e-05 4.74693e-05 0.087279)
(4.96568e-06 0.000103339 0.0981861)
(3.36338e-05 8.71253e-05 0.0992897)
(2.50277e-05 0.000120111 0.105687)
(1.19224e-05 0.000130172 0.103768)
(4.73978e-05 -1.4212e-05 0.0872784)
(8.70622e-05 3.35579e-05 0.0992885)
(-1.13117e-06 1.14317e-05 0.0744382)
(1.14223e-05 -1.13893e-06 0.074437)
(3.14908e-05 7.21631e-05 0.0932226)
(7.21403e-05 3.14059e-05 0.0932201)
(4.5961e-05 0.000124182 0.0991149)
(0.000124137 4.59369e-05 0.0991149)
(0.000119331 2.49281e-05 0.105779)
(0.000179157 1.10397e-05 0.103699)
(-1.42571e-05 4.51146e-05 0.0871273)
(-8.42967e-06 -3.01447e-06 0.0710892)
(7.24797e-05 8.91256e-06 0.0916059)
(4.51051e-05 -1.42517e-05 0.0871267)
(-2.34825e-07 -5.57267e-06 0.0710385)
(5.41821e-05 8.31415e-06 0.0915969)
(8.52984e-06 -9.7418e-06 0.0805126)
(0.000100592 5.16227e-06 0.0980655)
(0.000108615 1.0522e-05 0.0963758)
(3.82355e-05 1.4581e-06 0.0827428)
(1.84454e-05 -1.18302e-05 0.0805225)
(8.47502e-05 1.08391e-05 0.0963777)
(2.80544e-05 1.71108e-06 0.0827085)
(-1.17344e-06 1.1622e-05 0.0745384)
(1.16054e-05 -1.13328e-06 0.0745371)
(8.34928e-05 9.93791e-05 0.0979678)
(7.88413e-05 9.00849e-05 0.102093)
(3.19822e-05 7.42935e-05 0.0933813)
(-4.48736e-06 3.8934e-05 0.0861836)
(1.60527e-06 4.91247e-05 0.0861833)
(0.00010512 0.000139176 0.102036)
(7.03602e-05 6.75705e-05 0.0979789)
(9.92432e-05 8.33899e-05 0.0979613)
(8.99791e-05 7.87602e-05 0.102091)
(7.42467e-05 3.19997e-05 0.0933786)
(3.88901e-05 -4.56317e-06 0.0861774)
(4.91028e-05 1.58937e-06 0.0861771)
(0.000139045 0.000104992 0.102034)
(6.75691e-05 7.0261e-05 0.0979732)
(4.61642e-05 4.61851e-05 0.0893015)
(6.14124e-06 -1.81229e-06 0.0715898)
(-1.78348e-06 6.12285e-06 0.0715827)
(1.25247e-05 2.6218e-06 0.0715698)
(2.62612e-06 1.25304e-05 0.0715627)
(3.85407e-05 3.84868e-05 0.0892657)
(-5.89174e-06 -1.00566e-06 0.0711114)
(-1.20579e-05 6.80703e-05 0.0872837)
(8.29991e-06 5.65871e-05 0.0917797)
(-3.46932e-06 -9.23816e-06 0.0711632)
(8.93905e-06 7.46586e-05 0.0917896)
(-1.16557e-05 2.00888e-05 0.0806717)
(4.65244e-06 0.000129174 0.0981719)
(2.09462e-06 3.18413e-05 0.0828893)
(1.07506e-05 8.71233e-05 0.0965321)
(-9.83059e-06 1.03501e-05 0.0806605)
(1.92417e-06 4.18031e-05 0.0829261)
(1.03225e-05 0.000111273 0.096529)
(6.80509e-05 -1.2037e-05 0.0872836)
(-6.81407e-06 2.41973e-06 0.0744649)
(2.4055e-06 -6.81915e-06 0.0744633)
(6.95258e-05 6.73886e-05 0.0978407)
(0.000104471 0.000136932 0.101985)
(-7.34259e-07 4.62882e-05 0.0860509)
(1.77041e-05 6.06512e-05 0.0932229)
(8.25328e-05 9.70446e-05 0.0978305)
(-6.33404e-06 3.67898e-05 0.0860532)
(7.92928e-05 8.82012e-05 0.102042)
(6.74735e-05 6.94739e-05 0.0978346)
(0.000136834 0.000104404 0.101983)
(4.63067e-05 -7.97939e-07 0.0860447)
(6.06537e-05 1.76201e-05 0.0932197)
(9.7114e-05 8.24846e-05 0.0978239)
(3.68308e-05 -6.34169e-06 0.0860469)
(8.81706e-05 7.92521e-05 0.10204)
(3.92974e-05 3.92944e-05 0.0890737)
(1.09989e-05 2.65274e-06 0.0714807)
(2.66214e-06 1.1001e-05 0.0714736)
(4.81511e-05 4.8096e-05 0.089108)
(5.17118e-06 -3.47564e-07 0.071502)
(-3.62837e-07 5.20235e-06 0.0714949)
(0.000132301 0.000132243 0.102849)
(0.00017555 0.000175446 0.105173)
(1.56201e-05 9.89402e-05 0.104569)
(9.89553e-05 1.55987e-05 0.104569)
(0.000183437 0.000142839 0.104488)
(0.000142836 0.000183312 0.104487)
(8.67872e-05 8.66565e-05 0.10293)
(8.69722e-05 8.67811e-05 0.1029)
(0.000183365 0.000142024 0.104524)
(0.000142068 0.000183225 0.104524)
(3.03719e-05 3.03058e-05 0.105315)
(0.000131207 0.000131048 0.102818)
(1.57483e-05 9.83342e-05 0.104607)
(9.84059e-05 1.57095e-05 0.104607)
(2.47979e-05 7.51913e-05 0.105791)
(2.52053e-05 2.5204e-05 0.105796)
(2.48132e-05 -7.51966e-05 0.105791)
(2.5208e-05 -2.52266e-05 0.105796)
(5.7691e-05 0.000246254 0.104511)
(6.98874e-05 2.58286e-05 0.103857)
(4.73629e-05 0.00012661 0.0992137)
(4.57125e-05 0.000105828 0.101807)
(8.06212e-05 0.000239796 0.103754)
(4.75263e-05 0.000154804 0.101713)
(5.61826e-05 3.30284e-05 0.104623)
(3.1952e-05 0.000240791 0.104919)
(1.09166e-05 0.000181467 0.103688)
(3.21755e-05 0.000122483 0.103237)
(1.35413e-05 5.81451e-05 0.105155)
(3.03274e-05 0.000173971 0.103149)
(1.24676e-05 0.000237387 0.105079)
(3.27802e-05 5.07835e-05 0.105009)
(2.57581e-05 6.98897e-05 0.103856)
(0.00012663 4.73232e-05 0.0992135)
(0.000239739 8.05809e-05 0.103754)
(3.30367e-05 5.61972e-05 0.104623)
(8.01615e-05 0.000238697 0.103766)
(3.2368e-05 8.48463e-05 0.099191)
(6.99396e-05 2.42562e-05 0.10387)
(3.13357e-05 5.61887e-05 0.104665)
(0.000238641 8.01626e-05 0.103765)
(0.00015251 4.67268e-05 0.101652)
(8.48002e-05 3.23837e-05 0.0991897)
(0.000103635 4.47516e-05 0.101746)
(0.000245821 5.74824e-05 0.10455)
(2.42209e-05 6.99902e-05 0.103869)
(4.92141e-05 3.28162e-05 0.105068)
(0.000128046 1.19843e-05 0.103779)
(0.000171781 3.02225e-05 0.103135)
(0.000236936 1.24798e-05 0.105144)
(0.000120468 3.1854e-05 0.103223)
(0.000240508 3.19395e-05 0.104975)
(5.64919e-05 1.35891e-05 0.105221)
(7.56013e-05 7.55952e-05 0.105464)
(-0.000118696 7.06179e-05 0.105277)
(7.06554e-05 -0.000118717 0.105277)
(-0.000175771 -0.000175877 0.104967)
(3.64468e-05 3.64034e-05 0.104961)
(7.10038e-05 0.000119415 0.10519)
(-7.09945e-05 0.000119398 0.10519)
(-3.64726e-05 3.65138e-05 0.104961)
(0.000119343 7.0961e-05 0.10519)
(0.000119363 -7.09793e-05 0.10519)
(-0.000119365 7.09354e-05 0.10519)
(-0.000119371 -7.09569e-05 0.10519)
(3.63656e-05 -3.63391e-05 0.104962)
(7.09406e-05 -0.000119304 0.10519)
(-7.09485e-05 -0.000119316 0.10519)
(-3.64699e-05 -3.64658e-05 0.104961)
(0.000176067 0.000175961 0.104966)
(7.06857e-05 0.000118761 0.105277)
(-7.06869e-05 0.000118766 0.105277)
(-0.000176072 0.00017598 0.104966)
(0.000118686 7.06433e-05 0.105277)
(0.000118751 -7.06878e-05 0.105276)
(-0.000118759 -7.06847e-05 0.105277)
(0.000175655 -0.000175693 0.104967)
(-7.06327e-05 -0.000118682 0.105277)
(7.59542e-05 7.59443e-05 0.105365)
(-7.59665e-05 7.59522e-05 0.105365)
(7.59792e-05 -7.59679e-05 0.105365)
(-7.59888e-05 -7.59824e-05 0.105365)
(4.50229e-06 0.000109163 0.098423)
(-1.16152e-05 7.55671e-05 0.0877681)
(3.83449e-06 0.000138145 0.0985243)
(-1.41224e-05 5.25247e-05 0.0875944)
(1.48677e-06 1.21653e-05 0.0748604)
(6.87581e-06 2.95917e-06 0.0747733)
(0.000109282 4.57644e-06 0.0984225)
(7.55659e-05 -1.16194e-05 0.0877684)
(0.000138463 3.80542e-06 0.0985243)
(5.2434e-05 -1.41083e-05 0.0875938)
(-7.5605e-05 7.55892e-05 0.105464)
(7.55766e-05 -7.55768e-05 0.105464)
(-7.5585e-05 -7.55817e-05 0.105464)
(-0.000134431 1.18827e-05 0.103737)
(-0.000133099 5.17791e-05 0.0995046)
(-0.000122507 2.54002e-05 0.105408)
(-0.000118114 7.03559e-05 0.105363)
(-0.00018788 1.06054e-05 0.103641)
(-9.09193e-05 3.65782e-05 0.0994832)
(-0.000121699 2.52652e-05 0.105502)
(1.20891e-05 1.41491e-06 0.0748604)
(2.98432e-06 6.96035e-06 0.0747717)
(1.18987e-05 -0.000134452 0.103737)
(2.53703e-05 -0.000122491 0.105408)
(5.16978e-05 -0.000133497 0.0995037)
(7.03698e-05 -0.000118063 0.105362)
(1.05901e-05 -0.000187956 0.103641)
(2.52706e-05 -0.000121675 0.105502)
(3.65631e-05 -9.08276e-05 0.0994842)
(-8.08792e-05 -3.51806e-05 0.0938752)
(-3.49922e-05 -8.09963e-05 0.0938743)
(-3.39943e-05 -3.39852e-05 0.105106)
(-6.67948e-05 -2.07653e-05 0.0937056)
(-2.06304e-05 -6.67087e-05 0.0937021)
(-6.94092e-06 3.40744e-06 0.0749981)
(3.34676e-06 -7.02538e-06 0.0749956)
(2.275e-05 7.09092e-05 0.0940435)
(7.09134e-05 2.26271e-05 0.0940404)
(-1.3645e-05 5.79851e-05 0.0879259)
(3.87346e-06 0.000115298 0.0986551)
(1.37276e-05 5.79785e-05 0.0879254)
(1.08632e-05 8.11816e-05 0.0881112)
(-3.91118e-06 0.000115292 0.0986546)
(3.94348e-05 9.49922e-05 0.0996732)
(2.5499e-05 0.000123334 0.105314)
(1.16253e-05 0.000138929 0.103697)
(-7.12531e-05 0.000120026 0.105102)
(-3.95344e-05 9.49289e-05 0.0996721)
(-2.55193e-05 0.000123338 0.105314)
(-5.49338e-05 0.000137985 0.0996884)
(-1.16436e-05 0.000138912 0.103697)
(7.02551e-06 3.40922e-06 0.0749981)
(1.51432e-06 1.26627e-05 0.0750995)
(-0.000176152 0.000176082 0.104822)
(-2.27403e-05 7.11387e-05 0.0940417)
(-7.09683e-05 2.27062e-05 0.0940414)
(-3.72949e-05 8.54726e-05 0.0942183)
(-8.55692e-05 3.70991e-05 0.0942232)
(-3.4053e-06 -7.06681e-06 0.0749964)
(-1.26608e-05 -1.51169e-06 0.0751016)
(5.78709e-05 -1.36439e-05 0.0879252)
(0.000115411 3.90835e-06 0.0986548)
(9.48935e-05 3.93945e-05 0.0996721)
(0.000123338 2.54913e-05 0.105314)
(0.000138948 1.16462e-05 0.103697)
(5.80387e-05 1.3832e-05 0.0879254)
(0.000115371 -3.90529e-06 0.0986553)
(0.000123335 -2.55515e-05 0.105314)
(9.50882e-05 -3.94602e-05 0.0996722)
(0.000138916 -1.16468e-05 0.103696)
(-0.000192438 1.03821e-05 0.103597)
(-0.00011996 7.11745e-05 0.105102)
(-9.48342e-05 3.96084e-05 0.0996722)
(-0.000123348 2.55033e-05 0.105314)
(-0.000137935 5.49694e-05 0.099691)
(-0.000124195 2.56009e-05 0.105219)
(-0.000138907 1.16697e-05 0.103696)
(-0.000144619 2.98958e-06 0.0987536)
(-5.79903e-05 -1.36636e-05 0.0879258)
(-8.1256e-05 -1.08853e-05 0.0881124)
(-0.000115214 3.8292e-06 0.0986543)
(-0.000192526 -1.05346e-05 0.103597)
(-0.000123344 -2.55546e-05 0.105314)
(-9.49071e-05 -3.95275e-05 0.0996725)
(-0.000124194 -2.56361e-05 0.105219)
(-0.000138882 -1.17059e-05 0.103696)
(-0.000144836 -3.14754e-06 0.0987534)
(-5.79425e-05 1.37515e-05 0.0879253)
(-0.000115234 -4.02667e-06 0.0986541)
(3.37627e-06 7.04721e-06 0.0749968)
(7.14241e-05 -2.25269e-05 0.0940392)
(2.24844e-05 -7.13871e-05 0.0940421)
(-7.09657e-06 -3.36644e-06 0.0749964)
(2.54996e-05 -0.000123325 0.105314)
(3.96398e-05 -9.50687e-05 0.0996733)
(1.15916e-05 -0.000138936 0.103697)
(-2.55333e-05 -0.000123328 0.105314)
(-3.94985e-05 -9.48173e-05 0.0996717)
(-1.16743e-05 -0.000138949 0.103696)
(-1.38399e-05 -5.80973e-05 0.0879259)
(3.78359e-06 -0.000115356 0.0986546)
(1.37433e-05 -5.79169e-05 0.0879248)
(-3.99526e-06 -0.000115406 0.0986543)
(-7.12962e-05 -2.27519e-05 0.0940424)
(-2.25455e-05 -7.12807e-05 0.0940389)
(-3.37592e-06 7.08735e-06 0.0749971)
(7.11707e-06 -3.34534e-06 0.074996)
(-1.51059e-06 1.21826e-05 0.0748622)
(-6.81844e-06 2.8944e-06 0.0747725)
(1.22498e-05 -1.51325e-06 0.0748617)
(2.83708e-06 -6.85397e-06 0.0747705)
(3.52635e-05 8.0765e-05 0.0938768)
(8.08269e-05 3.52239e-05 0.0938745)
(3.38091e-05 3.37661e-05 0.105106)
(2.0853e-05 6.66617e-05 0.093706)
(6.66254e-05 2.07695e-05 0.0937031)
(-1.30729e-06 1.17956e-05 0.0746423)
(1.18069e-05 -1.33061e-06 0.0746414)
(0.000175818 0.000175696 0.105105)
(3.33964e-05 7.63433e-05 0.0935435)
(7.63935e-05 3.32941e-05 0.093541)
(-4.54711e-06 0.000109217 0.0984223)
(1.16739e-05 7.55864e-05 0.0877671)
(-3.88751e-06 0.00013821 0.0985243)
(1.41469e-05 5.25499e-05 0.0875942)
(1.18278e-05 0.000134425 0.103737)
(5.17099e-05 0.000133023 0.0995033)
(2.54068e-05 0.0001225 0.105408)
(7.04206e-05 0.000118168 0.105362)
(1.06951e-05 0.000187896 0.10364)
(3.64526e-05 9.10534e-05 0.0994841)
(2.52663e-05 0.000121687 0.105502)
(-1.18536e-05 0.000134422 0.103737)
(-5.16796e-05 0.000133163 0.0995018)
(-2.54097e-05 0.000122504 0.105408)
(-7.04066e-05 0.000118153 0.105362)
(-1.07531e-05 0.000187916 0.10364)
(-3.65986e-05 9.09467e-05 0.0994832)
(-2.5283e-05 0.000121691 0.105502)
(4.42659e-06 0.000131743 0.0982907)
(-1.19355e-05 7.03645e-05 0.0874412)
(-4.4758e-06 0.000131819 0.0982908)
(1.20029e-05 7.03968e-05 0.0874398)
(1.08784e-05 0.000183402 0.103675)
(7.01146e-05 0.000117531 0.105447)
(4.87634e-05 0.000128577 0.0993114)
(2.51778e-05 0.000120887 0.105595)
(-1.09334e-05 0.000183424 0.103675)
(-7.01287e-05 0.000117557 0.105447)
(-4.87954e-05 0.000128621 0.0993096)
(-2.51796e-05 0.000120899 0.105595)
(-3.5326e-05 8.08841e-05 0.0938725)
(-8.08678e-05 3.51335e-05 0.0938779)
(-3.38368e-05 3.38815e-05 0.105106)
(-2.07332e-05 6.67604e-05 0.0937049)
(-6.66857e-05 2.08921e-05 0.093704)
(-1.22169e-05 -1.49283e-06 0.0748627)
(-2.91347e-06 -6.89693e-06 0.0747714)
(1.3386e-06 1.17375e-05 0.0746397)
(-0.000175887 0.000175769 0.105105)
(-3.32351e-05 7.6446e-05 0.0935385)
(-7.639e-05 3.32471e-05 0.0935445)
(-1.18076e-05 -1.33192e-06 0.0746423)
(0.000134399 1.18825e-05 0.103737)
(0.000133058 5.18386e-05 0.0995032)
(0.000122495 2.53985e-05 0.105408)
(0.000118096 7.03929e-05 0.105362)
(0.000188047 1.06861e-05 0.103641)
(9.09595e-05 3.63641e-05 0.0994831)
(0.000121692 2.52522e-05 0.105502)
(0.000109198 -4.48024e-06 0.098423)
(7.55339e-05 1.16467e-05 0.0877671)
(0.000138383 -3.82559e-06 0.0985236)
(5.26085e-05 1.4246e-05 0.087594)
(0.000134346 -1.18067e-05 0.103737)
(0.000122504 -2.53961e-05 0.105408)
(0.000133452 -5.16455e-05 0.0995022)
(0.00011813 -7.04209e-05 0.105362)
(0.000188032 -1.06848e-05 0.103641)
(0.00012169 -2.53385e-05 0.105502)
(9.08657e-05 -3.65096e-05 0.099483)
(0.000132125 4.41999e-06 0.0982909)
(7.03299e-05 -1.19483e-05 0.0874412)
(0.000183558 1.08813e-05 0.103675)
(0.000117464 7.00804e-05 0.105447)
(0.000128549 4.88185e-05 0.0993112)
(0.000120881 2.51651e-05 0.105595)
(0.000132049 -4.42562e-06 0.0982902)
(7.03834e-05 1.20161e-05 0.0874402)
(0.000183521 -1.08511e-05 0.103675)
(0.000117517 -7.00936e-05 0.105447)
(0.0001209 -2.51746e-05 0.105595)
(0.000128816 -4.86862e-05 0.0993102)
(-0.000109236 4.48817e-06 0.0984221)
(-7.5681e-05 -1.16717e-05 0.0877684)
(-0.000138172 3.67827e-06 0.0985251)
(-5.25147e-05 -1.41169e-05 0.0875945)
(-0.000134376 -1.18359e-05 0.103736)
(-0.000122511 -2.54085e-05 0.105408)
(-0.000133343 -5.185e-05 0.0995033)
(-0.000118149 -7.03998e-05 0.105362)
(-0.000187982 -1.07909e-05 0.103641)
(-0.000121695 -2.53214e-05 0.105502)
(-9.07676e-05 -3.64748e-05 0.0994835)
(-0.000109186 -4.5941e-06 0.0984219)
(-7.5666e-05 1.16576e-05 0.0877682)
(-0.000138459 -3.91335e-06 0.0985249)
(-5.24915e-05 1.42017e-05 0.0875939)
(-0.000183462 1.0804e-05 0.103675)
(-0.000117474 7.00569e-05 0.105447)
(-0.000128594 4.88326e-05 0.0993126)
(-0.000120891 2.51656e-05 0.105595)
(-0.000131873 4.26941e-06 0.0982914)
(-7.04651e-05 -1.19864e-05 0.0874413)
(-0.000183538 -1.09825e-05 0.103675)
(-0.000117531 -7.00903e-05 0.105447)
(-0.000120888 -2.51826e-05 0.105595)
(-0.00012866 -4.88185e-05 0.0993112)
(-0.00013214 -4.57037e-06 0.0982913)
(-7.04549e-05 1.20105e-05 0.0874411)
(8.07459e-05 -3.512e-05 0.0938738)
(3.51233e-05 -8.0766e-05 0.0938767)
(3.39462e-05 -3.38899e-05 0.105106)
(6.68518e-05 -2.05313e-05 0.0937022)
(2.05066e-05 -6.68443e-05 0.0937052)
(-1.34396e-06 -1.21522e-05 0.0748619)
(-7.00437e-06 -2.9475e-06 0.0747714)
(1.16969e-05 1.27015e-06 0.0746405)
(0.000175575 -0.000175573 0.105106)
(7.64039e-05 -3.30728e-05 0.0935402)
(3.30821e-05 -7.64323e-05 0.0935429)
(-1.24572e-06 -1.17752e-05 0.0746416)
(-1.17953e-05 -0.000134415 0.103737)
(-2.53781e-05 -0.000122497 0.105408)
(-5.18119e-05 -0.000133336 0.0995031)
(-7.03957e-05 -0.00011809 0.105362)
(-1.07654e-05 -0.000188012 0.103641)
(-2.52859e-05 -0.000121675 0.105502)
(-3.64722e-05 -9.07081e-05 0.0994825)
(4.54334e-06 -0.000109299 0.0984223)
(-1.16555e-05 -7.5663e-05 0.087768)
(3.71487e-06 -0.000138273 0.0985245)
(-1.42071e-05 -5.25899e-05 0.0875946)
(-4.52529e-06 -0.000109249 0.0984221)
(1.16998e-05 -7.56379e-05 0.0877679)
(-3.91399e-06 -0.000138413 0.0985243)
(1.41872e-05 -5.24928e-05 0.0875934)
(1.08253e-05 -0.000183512 0.103675)
(7.0044e-05 -0.000117493 0.105447)
(2.51316e-05 -0.000120871 0.105595)
(4.88072e-05 -0.000128823 0.0993117)
(-1.09309e-05 -0.000183547 0.103675)
(-7.00278e-05 -0.000117443 0.105447)
(-2.51501e-05 -0.000120879 0.105595)
(-4.87825e-05 -0.000128638 0.0993111)
(4.31191e-06 -0.000131968 0.0982909)
(-1.19948e-05 -7.04464e-05 0.0874409)
(-4.53573e-06 -0.000132085 0.0982908)
(1.20364e-05 -7.04542e-05 0.0874408)
(-1.2219e-05 1.45425e-06 0.0748622)
(-2.95357e-06 6.99654e-06 0.0747721)
(1.48821e-06 -1.2199e-05 0.0748619)
(7.00812e-06 -2.94129e-06 0.074771)
(-0.000175737 -0.000175824 0.105106)
(-7.64771e-05 -3.31923e-05 0.0935415)
(-3.29587e-05 -7.65179e-05 0.0935407)
(-1.18365e-05 1.33843e-06 0.0746419)
(1.3569e-06 -1.18138e-05 0.0746415)
(-1.10586e-05 2.39883e-05 0.0809928)
(4.11333e-06 0.000135281 0.0984078)
(3.01233e-06 3.96268e-05 0.0832712)
(1.0281e-05 9.21453e-05 0.0968405)
(2.89847e-06 4.9849e-05 0.0833162)
(9.75956e-06 0.000116379 0.0968377)
(-9.40752e-06 1.40145e-05 0.0809742)
(-4.2259e-06 -1.19801e-05 0.0713909)
(9.11687e-06 8.24515e-05 0.0923692)
(-1.4104e-05 5.53343e-05 0.0877583)
(-6.8063e-06 -4.03013e-06 0.071338)
(8.53189e-06 6.38904e-05 0.0923533)
(-8.79154e-06 1.60487e-05 0.0811421)
(4.225e-06 0.000112471 0.0985398)
(3.46675e-06 5.41395e-05 0.0835229)
(9.39647e-06 0.000118938 0.0969923)
(-1.06658e-05 2.60729e-05 0.0811645)
(3.53432e-06 4.36871e-05 0.0834737)
(9.86474e-06 9.48924e-05 0.0969951)
(-6.48475e-06 -2.86597e-06 0.0712609)
(8.45009e-06 6.15674e-05 0.0921576)
(-1.18738e-05 7.30299e-05 0.0876025)
(9.01941e-06 7.94837e-05 0.0921715)
(-4.09577e-06 -1.11354e-05 0.0713137)
(6.96334e-06 3.18856e-06 0.0748833)
(1.33349e-06 1.19063e-05 0.0747478)
(2.40189e-05 -1.11958e-05 0.0809933)
(0.000134992 4.17834e-06 0.0984082)
(9.23131e-05 1.02312e-05 0.0968398)
(3.9484e-05 2.95238e-06 0.0832704)
(0.000116258 9.82017e-06 0.0968381)
(4.99256e-05 2.88875e-06 0.0833162)
(1.38674e-05 -9.36181e-06 0.0809732)
(-1.19956e-05 -4.26423e-06 0.0713902)
(8.19506e-05 9.09633e-06 0.0923696)
(5.53429e-05 -1.40899e-05 0.0877575)
(-3.82975e-06 -6.65414e-06 0.0713381)
(6.37651e-05 8.53834e-06 0.0923527)
(1.61377e-05 -8.81541e-06 0.0811411)
(0.000112335 4.1564e-06 0.0985391)
(0.00011907 9.3818e-06 0.0969924)
(5.41509e-05 3.46897e-06 0.083523)
(2.61716e-05 -1.04404e-05 0.081165)
(9.46712e-05 9.94857e-06 0.0969943)
(4.38084e-05 3.58435e-06 0.0834729)
(-3.03573e-06 -6.55916e-06 0.0712613)
(6.16914e-05 8.49602e-06 0.0921566)
(7.29924e-05 -1.18517e-05 0.0876026)
(7.98257e-05 9.04353e-06 0.0921718)
(-1.11787e-05 -4.01378e-06 0.0713136)
(3.17779e-06 6.92376e-06 0.0748823)
(1.19731e-05 1.40586e-06 0.0747484)
(-5.08111e-05 -5.09783e-05 0.0897069)
(2.87724e-06 -6.43132e-06 0.0717798)
(-6.5257e-06 2.96756e-06 0.0717713)
(-3.69766e-07 -1.27168e-05 0.071756)
(-1.27125e-05 -3.9355e-07 0.0717504)
(-4.34965e-05 -4.35896e-05 0.0896639)
(-7.36545e-05 -7.56571e-05 0.0983951)
(-0.000144915 -0.000108638 0.102167)
(-5.49623e-05 -3.53059e-06 0.0866063)
(-6.8875e-05 -2.1503e-05 0.0938727)
(-0.00010538 -8.88601e-05 0.0983779)
(-9.55783e-05 -8.19258e-05 0.102229)
(-4.48774e-05 1.90568e-06 0.0866021)
(-7.53473e-05 -7.31164e-05 0.0983853)
(-0.000108768 -0.000145042 0.102169)
(-3.57003e-06 -5.50448e-05 0.0866017)
(-2.15628e-05 -6.88806e-05 0.0938691)
(-8.91015e-05 -0.000105661 0.0983761)
(-8.17044e-05 -9.54653e-05 0.102224)
(1.85923e-06 -4.49696e-05 0.0865947)
(-4.13776e-05 -4.13165e-05 0.089876)
(-4.66445e-07 -1.39042e-05 0.0718542)
(-1.39853e-05 -5.36143e-07 0.0718484)
(-5.06992e-05 -5.05382e-05 0.0899192)
(3.63506e-06 -8.13079e-06 0.0718744)
(-7.94795e-06 3.58657e-06 0.0718661)
(-0.000102845 -8.79763e-05 0.0982409)
(-4.20633e-05 4.58576e-06 0.0864593)
(-7.83621e-05 -3.41479e-05 0.0937077)
(-9.35314e-05 -8.23563e-05 0.102187)
(-0.00014286 -0.000107484 0.102125)
(-5.18293e-05 -1.72521e-06 0.0864607)
(-7.24385e-05 -7.49482e-05 0.0982578)
(-8.7624e-05 -0.000102481 0.0982399)
(4.7888e-06 -4.18056e-05 0.0864516)
(-3.43763e-05 -7.82933e-05 0.0937069)
(-8.23323e-05 -9.34259e-05 0.102182)
(-0.00010733 -0.00014269 0.102127)
(-1.76837e-06 -5.19163e-05 0.0864562)
(-7.4968e-05 -7.27444e-05 0.0982474)
(-1.40562e-06 1.24017e-05 0.0749787)
(1.23892e-05 -1.35786e-06 0.0749784)
(9.09015e-05 0.000106241 0.0985183)
(8.37677e-05 9.7026e-05 0.102266)
(3.61423e-05 8.27914e-05 0.0940485)
(-2.72762e-06 4.61706e-05 0.0867504)
(4.74767e-06 5.69791e-05 0.0867586)
(0.000108881 0.000146864 0.102208)
(7.84734e-05 7.54508e-05 0.0985291)
(0.000106348 9.0895e-05 0.0985123)
(9.71097e-05 8.37956e-05 0.102265)
(8.28162e-05 3.61386e-05 0.0940464)
(4.6172e-05 -2.80307e-06 0.0867445)
(5.6873e-05 4.61081e-06 0.0867522)
(0.000146831 0.00010884 0.102205)
(7.56437e-05 7.85147e-05 0.0985242)
(5.16967e-05 5.16578e-05 0.0901434)
(7.39065e-06 -5.01403e-06 0.0719743)
(-4.98705e-06 7.40011e-06 0.0719673)
(1.42448e-05 -1.09618e-06 0.0719555)
(-1.09451e-06 1.42976e-05 0.0719485)
(4.5959e-05 4.59251e-05 0.090092)
(-6.96043e-06 -4.83519e-06 0.071416)
(-1.12541e-05 7.83917e-05 0.0879376)
(8.47255e-06 6.66541e-05 0.0925538)
(-4.59675e-06 -1.31564e-05 0.0714691)
(8.92953e-06 8.44476e-05 0.0925716)
(-9.82748e-06 2.86282e-05 0.0813441)
(3.42701e-06 0.000141512 0.0986391)
(4.14149e-06 4.82696e-05 0.083684)
(9.50903e-06 9.72083e-05 0.0971496)
(-8.37222e-06 1.8408e-05 0.0813176)
(4.10797e-06 5.87609e-05 0.0837377)
(8.8903e-06 0.000121503 0.0971467)
(6.94532e-06 -4.83517e-06 0.0714175)
(1.12461e-05 7.83329e-05 0.0879368)
(-8.51364e-06 6.65494e-05 0.0925533)
(-8.92251e-06 8.44411e-05 0.0925712)
(4.55626e-06 -1.30929e-05 0.0714716)
(4.64675e-06 -1.38302e-05 0.071552)
(-8.95808e-06 8.74285e-05 0.0927776)
(1.33287e-05 6.09478e-05 0.0880974)
(7.14648e-06 -5.91332e-06 0.0714988)
(-8.37771e-06 6.88123e-05 0.0927576)
(9.81173e-06 2.86419e-05 0.0813434)
(-3.45253e-06 0.00014151 0.0986392)
(-4.152e-06 4.82471e-05 0.0836833)
(-9.53598e-06 9.71701e-05 0.0971483)
(-4.12865e-06 5.87841e-05 0.0837378)
(-8.88611e-06 0.000121509 0.0971463)
(8.32841e-06 1.84153e-05 0.0813166)
(1.45216e-06 1.24029e-05 0.0749774)
(7.0222e-06 3.67502e-06 0.0751173)
(-4.32555e-05 4.34613e-05 0.0903167)
(-1.4904e-05 -1.04724e-06 0.0720533)
(1.03023e-06 1.49754e-05 0.0720606)
(-5.39327e-05 5.39855e-05 0.0903685)
(-9.42192e-06 -4.95346e-06 0.0720681)
(4.83337e-06 9.27236e-06 0.0720742)
(-9.14184e-05 0.000106528 0.0985088)
(-8.42598e-05 9.71575e-05 0.102267)
(-3.60277e-05 8.27307e-05 0.094045)
(2.97326e-06 4.62999e-05 0.0867449)
(-0.000109195 0.000146774 0.102203)
(-4.1376e-06 5.65577e-05 0.0867524)
(-7.86827e-05 7.58727e-05 0.098527)
(-0.00010612 9.10858e-05 0.0985214)
(-9.6955e-05 8.40744e-05 0.102263)
(-8.27375e-05 3.63045e-05 0.0940501)
(-4.6066e-05 -3.10677e-06 0.0867487)
(-5.67071e-05 4.24047e-06 0.0867597)
(-0.000146833 0.000109075 0.10221)
(-7.59073e-05 7.86314e-05 0.0985261)
(-7.90935e-05 7.76367e-05 0.0986626)
(-5.45999e-06 5.98751e-05 0.0869082)
(-0.000110932 0.000148773 0.102239)
(-2.33787e-05 7.33537e-05 0.0942141)
(-8.38272e-05 9.93062e-05 0.102303)
(-9.27987e-05 0.000109456 0.0986444)
(-3.75926e-07 4.98627e-05 0.0868972)
(-7.714e-05 7.88131e-05 0.0986617)
(-5.98909e-05 5.43743e-06 0.0869155)
(-0.000149057 0.000111211 0.102246)
(-7.34832e-05 2.34113e-05 0.0942137)
(-0.000110156 9.31502e-05 0.0986554)
(-5.00588e-05 4.5686e-07 0.0869013)
(-9.92769e-05 8.3647e-05 0.102299)
(-5.26258e-05 5.25205e-05 0.0901436)
(-7.20571e-06 -4.90574e-06 0.071968)
(4.97412e-06 7.26854e-06 0.0719742)
(-1.39909e-05 -1.32759e-06 0.0719481)
(1.29473e-06 1.38675e-05 0.0719556)
(-4.66446e-05 4.64791e-05 0.0900907)
(-1.24445e-05 -1.40569e-06 0.0749796)
(-3.60714e-06 -7.02061e-06 0.0751158)
(-5.04276e-06 -7.03189e-06 0.0714166)
(7.83404e-05 -1.12523e-05 0.0879379)
(6.66244e-05 8.50505e-06 0.0925527)
(-1.30915e-05 -4.47481e-06 0.071469)
(8.49404e-05 8.97626e-06 0.0925719)
(2.85793e-05 -9.98244e-06 0.0813445)
(0.000141315 3.5055e-06 0.0986394)
(9.74234e-05 9.48214e-06 0.0971489)
(4.81567e-05 4.08714e-06 0.0836833)
(1.82957e-05 -8.26863e-06 0.0813168)
(0.000121492 8.947e-06 0.097147)
(5.8786e-05 4.0773e-06 0.0837376)
(-4.98726e-06 7.02225e-06 0.0714181)
(7.83091e-05 1.12804e-05 0.0879369)
(6.68082e-05 -8.53815e-06 0.0925535)
(8.4698e-05 -9.07762e-06 0.0925711)
(-1.31684e-05 4.55893e-06 0.0714719)
(2.85302e-05 9.90528e-06 0.0813418)
(0.000141307 -3.45646e-06 0.0986384)
(4.82412e-05 -4.14863e-06 0.0836843)
(9.73275e-05 -9.53709e-06 0.0971497)
(5.87072e-05 -4.14121e-06 0.0837362)
(0.000121302 -8.97912e-06 0.0971451)
(1.83803e-05 8.32791e-06 0.0813179)
(-2.08708e-05 -7.48481e-06 0.0815022)
(-0.000123878 8.33076e-06 0.0973005)
(-6.35087e-05 4.84854e-06 0.0839606)
(-0.000118673 3.63625e-06 0.0987685)
(-3.10966e-05 -9.0375e-06 0.0815307)
(-0.000100061 9.03727e-06 0.097304)
(-5.28446e-05 4.74524e-06 0.0839016)
(4.89784e-06 -6.89745e-06 0.0714135)
(-7.8283e-05 -1.11773e-05 0.0879382)
(-6.62572e-05 8.5146e-06 0.0925548)
(-8.44618e-05 8.93944e-06 0.0925706)
(1.28673e-05 -4.46326e-06 0.0714717)
(1.39803e-05 -4.6503e-06 0.0715526)
(-8.74411e-05 8.96958e-06 0.0927775)
(-6.09272e-05 -1.338e-05 0.0880978)
(6.15503e-06 -7.26217e-06 0.0714942)
(-6.93078e-05 8.4587e-06 0.0927592)
(-2.84739e-05 -9.78027e-06 0.081343)
(-0.000141621 3.57502e-06 0.0986396)
(-9.72527e-05 9.5691e-06 0.0971494)
(-4.8303e-05 4.15124e-06 0.0836832)
(-0.000121781 8.95878e-06 0.0971462)
(-5.87699e-05 4.0177e-06 0.0837378)
(-1.85569e-05 -8.21935e-06 0.0813184)
(-2.09492e-05 7.39117e-06 0.0814996)
(-6.35235e-05 -4.76607e-06 0.0839607)
(-0.000124295 -8.36889e-06 0.0973007)
(-0.000118633 -3.3974e-06 0.098768)
(-3.11985e-05 8.83981e-06 0.0815318)
(-5.28944e-05 -4.85426e-06 0.0839012)
(-9.97627e-05 -8.98414e-06 0.0973021)
(5.04214e-06 7.03554e-06 0.0714187)
(-7.82764e-05 1.12363e-05 0.0879379)
(-6.66653e-05 -8.56939e-06 0.092553)
(-8.49507e-05 -9.03549e-06 0.092572)
(1.30622e-05 4.52256e-06 0.0714712)
(1.39819e-05 4.68266e-06 0.0715511)
(-6.08821e-05 1.33286e-05 0.088097)
(-6.88034e-05 -8.37796e-06 0.0927579)
(-2.85694e-05 9.94664e-06 0.081344)
(-0.000141385 -3.42292e-06 0.0986397)
(-4.82288e-05 -4.08579e-06 0.0836827)
(-9.73081e-05 -9.57023e-06 0.097148)
(-5.87907e-05 -4.13555e-06 0.0837378)
(-0.000121473 -8.98755e-06 0.0971469)
(-1.83611e-05 8.29625e-06 0.0813158)
(1.23985e-05 1.52111e-06 0.0749775)
(0.000107955 -9.20075e-05 0.0985122)
(9.73662e-05 -8.38469e-05 0.102264)
(8.30229e-05 -3.62547e-05 0.0940451)
(4.73941e-05 1.47653e-06 0.086743)