/*--------------------------------*- C++ -*----------------------------------*\
| =========                 |                                                 |
| \\      /  F ield         | OpenFOAM: The Open Source CFD Toolbox           |
|  \\    /   O peration     | Version:  v2006                                 |
|   \\  /    A nd           | Website:  www.openfoam.com                      |
|    \\/     M anipulation  |                                                 |
\*---------------------------------------------------------------------------*/
FoamFile
{
    version     2.0;
    format      ascii;
    class       surfaceScalarField;
    location    "125";
    object      phi;
}
// * * * * * * * * * * * * * * * * * * * * * * * * * * * * * * * * * * * * * //

dimensions      [0 3 -1 0 0 0 0];
oriented        oriented;


internalField   nonuniform List<scalar> 
41142
(
1.32737e-06
1.28694e-06
-2.6608e-07
-2.76611e-07
0.000273631
1.48493e-09
-2.88711e-07
1.33732e-06
2.86615e-07
9.4327e-07
-2.69548e-07
-9.42963e-07
2.59675e-07
0.00114406
1.14615e-08
-2.83033e-07
1.29435e-06
2.78596e-07
9.46123e-07
-2.69442e-07
-9.42665e-07
2.60005e-07
0.00114508
-4.35705e-09
3.69461e-08
-5.56059e-09
0.000194373
-6.99243e-11
5.4275e-08
0.000232536
-1.82092e-08
5.50199e-10
-4.38151e-09
3.69006e-08
-5.47155e-09
0.000194353
5.17778e-08
3.05776e-10
0.000232533
2.28546e-10
-1.82163e-08
1.3333e-08
9.79014e-05
1.33369e-08
9.78902e-05
1.60913e-08
3.65095e-08
-8.94114e-09
0.000280378
1.36014e-08
3.8706e-08
-8.30825e-09
0.000280301
5.17543e-08
-1.00888e-10
0.000232499
-1.82124e-08
1.3719e-07
6.13893e-09
0.000248779
-4.61309e-08
1.04443e-06
-8.57701e-07
-1.03733e-06
8.62011e-07
0.0011526
1.69573e-10
0.000255994
9.35811e-10
2.25397e-07
1.04425e-06
-8.57613e-07
-1.03687e-06
8.59195e-07
0.00115257
-1.42937e-09
0.00025597
2.22743e-07
1.34675e-07
6.16149e-09
0.000248742
3.30755e-09
1.04415e-06
-8.57671e-07
-1.03721e-06
8.59153e-07
0.00115249
1.82121e-09
0.000255985
-2.57918e-10
2.20191e-07
5.42334e-08
0.000232494
-2.0258e-08
4.07799e-10
1.04705e-06
-8.57765e-07
-1.03998e-06
8.59139e-07
0.00115249
0.00025596
2.22838e-07
-2.6054e-10
-7.92084e-05
-1.66482e-08
-8.64311e-10
7.9226e-05
-1.89615e-08
0.00026491
-6.21676e-10
4.91239e-08
-1.15523e-09
6.44235e-09
-3.22579e-08
0.0001944
-1.41855e-09
-3.26548e-09
-4.96699e-08
0.000264945
-0.000143652
4.12413e-10
-1.92567e-08
0.00014367
1.92825e-08
1.39463e-09
-1.30147e-10
-5.68694e-08
0.000232573
1.45525e-09
0.000171567
2.17877e-11
-1.80512e-08
0.000225856
5.59063e-08
8.86803e-12
0.000171587
-5.95764e-08
0.000225894
-7.9208e-05
-1.67358e-08
-7.73579e-10
7.92255e-05
-1.88755e-08
0.000264906
-5.67721e-10
4.66485e-08
-1.02005e-09
6.43416e-09
-3.23739e-08
0.00019438
-1.32919e-09
-3.12955e-09
-4.73369e-08
0.000264939
-0.00014365
-1.92575e-08
3.43982e-10
0.000143668
1.50809e-09
1.92755e-08
5.2652e-11
-5.43436e-08
0.000232566
-1.80576e-08
0.000225854
5.09443e-08
1.36478e-09
0.000171563
1.37431e-10
-5.45939e-08
0.000225888
1.1572e-10
0.000171583
-1.12081e-08
9.7919e-05
-1.12313e-08
9.79079e-05
-0.00022459
2.09852e-08
-2.27116e-08
1.5009e-08
-4.95986e-08
0.000224626
-2.63493e-08
0.000254938
8.39385e-08
3.68474e-08
2.10427e-08
0.000183975
-6.34784e-09
9.37684e-09
-3.35421e-08
-1.72775e-08
0.000280408
-1.57151e-08
4.67198e-08
6.78449e-09
0.000183998
-8.38985e-08
-3.28893e-08
0.000254999
-0.000224518
2.28886e-08
-2.28412e-08
1.30478e-08
-5.17814e-08
0.000224556
-2.61656e-08
0.000254826
8.37121e-08
3.41517e-08
2.30244e-08
0.000183913
-6.2444e-09
8.98085e-09
-3.58416e-08
-1.49381e-08
0.000280332
-1.35169e-08
4.90809e-08
6.8523e-09
0.000183938
-8.37516e-08
-2.78817e-08
0.000254879
-0.000215322
6.84423e-09
6.73766e-09
0.000215337
7.29645e-09
8.07939e-05
7.37084e-09
8.0776e-05
8.08075e-05
8.07896e-05
-7.9162e-05
-1.65756e-08
-9.35949e-10
7.91795e-05
-1.83986e-08
0.000264789
1.38079e-09
4.66471e-08
-2.02164e-10
-3.32258e-09
-4.72404e-08
0.000264822
3.47043e-10
-0.000143581
-1.92341e-08
0.000143599
-1.8026e-08
0.000225767
5.08697e-08
1.92856e-08
1.19833e-09
-5.43697e-08
0.000232533
0.000171533
1.35911e-09
0.000171552
-5.46246e-08
0.0002258
-7.91629e-05
-1.65494e-08
-9.36215e-10
7.91803e-05
-1.55584e-09
-3.39063e-09
-4.96477e-08
0.000264815
2.56643e-10
-0.000143575
-2.11946e-08
0.000143595
2.12729e-08
1.28306e-09
-5.67701e-08
0.000232528
0.000171526
1.58815e-09
-2.00684e-08
0.000225756
5.58445e-08
0.000171547
-5.94833e-08
0.000225793
-0.000247087
-1.4232e-07
-1.37716e-07
0.000247265
-1.39725e-07
0.000265948
-1.34809e-07
0.000266368
2.73402e-07
2.83975e-07
0.000275706
0.000266282
0.000266709
-0.000269914
2.21521e-07
-8.55289e-10
0.000270636
2.19592e-07
0.000255051
3.9218e-09
2.0336e-08
-4.89763e-09
0.00025522
2.24028e-07
-0.000269972
3.6461e-09
-9.59256e-10
0.000270688
8.54994e-09
0.000265521
0.000255137
2.22226e-07
1.53741e-09
-1.08543e-08
-1.28971e-07
0.000248869
-7.30202e-09
0.000255307
1.73499e-09
0.000265623
2.45622e-07
-0.000271672
3.82203e-11
0.00027247
2.09742e-09
-2.28727e-07
-1.77896e-10
0.000256164
0.000254776
2.39676e-07
3.17439e-09
0.000272043
-4.44453e-09
0.000254957
1.95498e-09
0.000272675
-0.000271613
2.43107e-07
2.17079e-09
0.000272411
2.36858e-07
0.000254697
8.63088e-10
-2.26129e-07
0.000256141
-4.91639e-09
0.000272037
0.000254882
0.000272674
2.21706e-07
-0.000269981
9.11385e-09
-1.1525e-08
0.000270708
1.3872e-08
0.000265503
0.000255121
2.1963e-07
1.55534e-09
-1.08951e-08
-1.2674e-07
0.000248833
-4.83535e-09
0.000255289
1.49882e-08
0.000265617
2.43044e-07
-0.000271664
-3.15872e-09
0.000272457
2.55944e-09
-2.23479e-07
-3.99374e-10
0.000256152
0.000254764
2.37091e-07
-1.68603e-09
0.000272041
7.45186e-09
0.00025495
-4.65071e-09
0.000272678
2.21532e-07
1.73897e-09
0.000270615
-4.90484e-09
0.000255193
-0.000271603
1.13536e-09
2.43019e-07
0.000272408
-2.26039e-07
1.60378e-09
0.000256128
1.21781e-10
0.000272028
2.37005e-07
0.000254688
0.000272658
0.000254868
7.9163e-05
-1.41336e-09
-7.91805e-05
1.89311e-08
-8.41797e-10
-1.66735e-08
-1.46751e-09
0.000143579
-0.000143597
1.80638e-08
-0.000171528
-4.16554e-10
-6.73875e-12
-1.92378e-08
-4.56853e-12
-0.000171548
1.82404e-08
-1.92244e-08
0.000171584
1.55237e-11
-4.03719e-10
-0.000171562
-2.12754e-08
7.92066e-05
-1.26427e-09
2.10349e-08
-7.92263e-05
-9.9662e-10
-1.87644e-08
-1.44318e-09
0.000143648
-0.00014367
2.2027e-08
-0.000171562
-3.90301e-10
-2.12575e-08
2.02633e-08
-2.31984e-08
3.93795e-10
8.49069e-10
-0.000143579
-1.92179e-08
-0.000171528
-1.92528e-08
-7.9163e-05
-1.66686e-08
1.33477e-06
-5.0687e-09
-0.00114419
2.62413e-07
2.86634e-07
-1.32745e-06
-2.91502e-07
9.48653e-07
-9.48245e-07
-2.7231e-07
1.19977e-08
-1.297e-06
2.78538e-07
2.76232e-07
-0.000273626
-5.65507e-09
-0.00114469
9.43347e-07
1.14124e-08
2.78473e-07
-1.28948e-06
-2.83017e-07
2.62582e-07
-9.42684e-07
-2.72162e-07
1.32634e-06
-4.93453e-09
-0.0011438
1.22565e-08
2.6237e-07
2.83858e-07
-1.3189e-06
-2.88562e-07
9.45821e-07
-9.45458e-07
-2.72315e-07
1.2859e-06
-5.33515e-09
1.14549e-08
2.6261e-07
2.78491e-07
-1.27859e-06
-2.83054e-07
9.43189e-07
-9.42504e-07
-2.72186e-07
-0.00114479
2.81407e-07
2.73231e-07
-0.000273606
-5.40117e-09
-5.65283e-09
-0.0011643
-1.12967e-08
-6.42215e-09
-0.00116427
6.47074e-09
-0.000194313
-1.18224e-09
-3.43937e-08
3.91891e-08
-4.32294e-09
-5.72122e-09
0.000194313
-0.000194342
-1.32193e-06
-5.14631e-09
9.48668e-07
-2.72285e-07
-9.48218e-07
2.6243e-07
1.33477e-06
-2.88692e-07
2.8665e-07
-0.00114419
6.58455e-09
3.02543e-08
-6.26428e-09
1.26464e-07
-0.000265428
-1.35035e-08
6.08278e-09
1.34776e-07
0.000248682
-0.000248771
-1.33441e-08
-9.78833e-05
1.55263e-08
9.78833e-05
-9.79032e-05
1.28947e-06
0.000273626
-2.68765e-07
-2.7124e-07
-0.000275697
-3.56841e-08
-0.000280258
8.85855e-09
-1.47789e-08
1.11967e-08
-3.35309e-08
-0.000280386
9.4754e-09
-1.49362e-08
-8.30215e-09
3.86714e-08
0.000280258
-0.000280287
-1.33726e-08
1.35867e-08
-8.81449e-09
3.64447e-08
0.000280386
-0.000280414
-6.48237e-09
-9.78964e-05
4.30864e-09
9.78964e-05
-9.79141e-05
5.42909e-08
0.000256133
-0.00025596
-2.26089e-07
1.76008e-10
-1.3211e-09
0.000232532
-0.000232498
1.92671e-08
1.19393e-09
-2.23853e-10
-5.18247e-08
2.40075e-09
2.43768e-10
2.20184e-07
0.00025599
-0.000256161
1.14713e-08
-1.75259e-08
1.29702e-06
-2.8298e-07
2.78512e-07
9.43377e-07
-2.72129e-07
-9.42657e-07
2.62615e-07
-0.00114468
-8.87194e-09
6.36852e-09
2.24189e-07
-0.000269992
-0.00115243
1.03582e-06
-3.04678e-09
6.0228e-09
8.56332e-07
-1.03437e-06
-8.5765e-07
-3.69103e-08
6.1245e-09
1.3712e-07
0.00024878
-0.000248873
7.11879e-09
-1.12451e-08
1.0414e-06
-8.57641e-07
-1.03438e-06
8.61963e-07
-0.00115242
1.10499e-09
2.43033e-07
-0.000271669
3.19517e-10
3.40951e-10
-1.82061e-08
0.000232537
-0.000232571
-0.000194361
-1.14977e-09
-3.22961e-08
-5.60176e-09
0.000194361
-0.000194388
-1.58988e-10
-0.000232537
1.11112e-09
1.92491e-08
-5.42872e-08
-5.18448e-08
2.22833e-07
-2.2683e-10
0.000255964
1.2267e-08
-3.41738e-08
9.45863e-07
-2.66837e-07
-9.39934e-07
2.62397e-07
-0.00114378
-1.31891e-06
1.32632e-06
-2.88508e-07
2.83892e-07
-0.0011524
1.04148e-06
6.04515e-09
8.59157e-07
-1.03711e-06
-8.57699e-07
3.28528e-08
-6.28694e-09
1.24091e-07
-0.000265464
-2.85341e-08
1.04149e-06
-8.57685e-07
-1.03431e-06
8.59166e-07
-0.00115236
-3.70148e-08
6.07298e-09
1.34776e-07
0.000248715
-0.000248803
-1.59697e-08
-1.74166e-09
1.84886e-09
2.45639e-07
-0.000271609
-1.82219e-08
3.48763e-10
0.000232498
6.50375e-09
-0.00019431
-1.24012e-09
-3.22351e-08
-5.73156e-09
0.00019431
-0.000194337
-4.2702e-09
-0.000232498
1.92498e-08
1.17301e-09
-5.67914e-08
1.03837e-06
1.16272e-10
8.563e-07
-1.03413e-06
-8.54803e-07
-1.45416e-09
-0.00115216
3.03917e-08
-6.32887e-09
1.29103e-07
-0.000265445
1.68031e-08
-2.89201e-09
2.42935e-07
-0.000271599
6.54509e-09
-0.000194303
-1.21712e-09
-3.23114e-08
-0.000232493
1.1511e-09
-5.42526e-08
-1.67489e-10
1.11987e-08
-3.35107e-08
-0.000280347
8.92595e-09
-1.74203e-08
1.11514e-08
-3.58498e-08
-0.000280263
9.04905e-09
-1.50031e-08
-9.78854e-05
-9.78795e-05
1.89652e-08
7.91628e-05
-7.91803e-05
-1.45488e-09
-5.70278e-09
-0.000194342
-4.32382e-09
3.91841e-08
-0.000264784
1.66123e-08
-4.72212e-08
-3.2663e-09
-0.000264816
4.67054e-08
-7.31228e-10
-8.89112e-10
-7.91628e-05
-1.66189e-08
-9.00088e-10
-1.89647e-08
0.000264784
4.67137e-08
-0.000264816
-7.46478e-10
-1.21659e-09
6.47779e-09
-3.43984e-08
-7.91803e-05
-1.46008e-09
-4.72329e-08
-3.31082e-09
-9.79032e-05
1.55307e-08
-1.33504e-08
-0.000215319
6.8036e-09
6.79159e-09
-1.50885e-08
-1.30167e-08
0.000215334
7.32321e-09
8.07775e-05
6.24947e-09
-8.07911e-05
7.35968e-09
8.07904e-05
6.27248e-09
-8.0804e-05
1.57192e-08
1.34996e-08
-0.000215334
-6.76362e-09
8.07911e-05
-6.84832e-09
8.0804e-05
2.6345e-08
-2.29723e-08
0.000224511
-0.000224545
-1.57286e-08
4.67184e-08
-0.000254775
2.26785e-08
-8.37575e-08
3.86813e-08
-8.28132e-09
-0.000280287
1.34954e-08
-0.000183914
-2.28445e-08
6.76467e-09
-0.000254831
8.37846e-08
3.68816e-08
-0.000183939
-6.24032e-09
1.50732e-08
-4.95851e-08
-2.11069e-08
2.62563e-08
0.000224586
-0.000224627
-1.35231e-08
4.90437e-08
-0.000254953
2.28341e-08
-8.38827e-08
-2.78593e-08
-8.81313e-09
3.64616e-08
-0.000280414
-1.33787e-08
1.35907e-08
-0.00018397
-2.0976e-08
6.84609e-09
-0.000183993
-6.27686e-09
-0.000255008
8.38951e-08
3.4218e-08
1.29866e-08
-5.18055e-08
-2.26566e-08
-0.000224511
2.28859e-08
-4.96466e-08
2.29498e-08
0.000183914
-0.000183939
0.000254775
-2.63493e-08
3.689e-08
8.37695e-08
-0.000254831
-3.57223e-08
8.85801e-09
-1.47793e-08
-3.02229e-08
-8.3788e-08
4.66951e-08
-0.000224545
-0.000224586
2.10024e-08
-2.28281e-08
-5.18546e-08
2.10869e-08
0.00018397
-0.000183993
-2.62465e-08
0.000254953
8.38985e-08
3.41999e-08
-0.000255008
9.47562e-09
-3.35618e-08
1.12063e-08
-1.49394e-08
4.9029e-08
-0.000224627
-8.38939e-08
-2.7858e-08
-7.33635e-09
-7.36194e-09
0.000215319
-8.07775e-05
-6.79015e-09
-8.07904e-05
-6.78685e-09
-9.79141e-05
4.31205e-09
-6.48279e-09
-1.50397e-09
1.80493e-08
0.000143583
-0.000143601
1.45349e-09
-1.82227e-08
3.83595e-10
5.18286e-08
-6.72309e-11
-0.000232531
-0.000171531
-3.78157e-10
0.00017155
-4.12115e-11
-0.000225766
1.92384e-08
0.0002258
-5.45645e-08
3.29167e-09
-3.97701e-11
-0.00017155
5.09563e-08
-0.0002258
7.21476e-10
0.000143601
8.80735e-10
-0.00014365
-2.12245e-08
4.22753e-10
1.00071e-09
0.000143669
-2.00275e-08
0.000225862
6.55344e-10
5.09025e-08
-0.000225893
1.45259e-09
0.000171563
4.45376e-11
-0.000171582
1.32781e-09
1.92616e-08
0.00023257
4.3017e-11
-5.43025e-08
1.22208e-09
-0.000143669
3.22122e-09
0.000225893
-5.45054e-08
0.000171582
1.81523e-11
2.10119e-08
7.92069e-05
-7.92267e-05
-1.22474e-09
-5.59229e-09
-0.000194388
3.69181e-08
-0.000264918
1.87811e-08
-3.20322e-09
-4.72052e-08
-0.000264948
-6.50356e-10
4.6566e-08
-1.00222e-09
-7.92069e-05
-1.87926e-08
-2.10069e-08
0.000264918
4.65639e-08
-0.000264948
-1.16552e-09
-3.23107e-08
-7.92267e-05
-4.7235e-08
2.00358e-08
-1.45708e-09
0.00014365
1.09136e-10
-1.8216e-08
3.22473e-11
5.18199e-08
-0.000225862
2.12008e-08
-5.44696e-08
-0.000171563
-4.16681e-10
-1.87261e-12
5.08736e-08
1.69383e-11
-0.000143583
3.9226e-10
-1.92454e-08
8.76044e-10
0.000143601
1.48477e-09
0.000171531
-1.80366e-08
0.000225766
7.17139e-10
5.09635e-08
1.92621e-08
1.18141e-09
0.000232534
-5.67964e-08
1.44586e-09
0.00017155
3.29102e-09
0.000225802
-5.70603e-08
1.89553e-08
7.91652e-05
-7.91827e-05
-1.44303e-09
-5.70525e-09
-0.000194337
-4.2909e-09
3.70202e-08
-0.000264793
1.66323e-08
-3.28114e-09
-4.72319e-08
-0.000264826
-7.14865e-10
4.66858e-08
-8.76185e-10
-7.91652e-05
-1.66421e-08
-1.89532e-08
0.000264794
4.6672e-08
-0.000264826
-1.27133e-09
-3.22414e-08
6.52261e-09
-7.91827e-05
-4.72682e-08
-1.47654e-09
1.80394e-08
0.000143583
-1.82361e-08
3.15323e-10
5.43521e-08
-0.000171531
-3.96424e-10
-0.000225766
1.92354e-08
-5.70291e-08
5.34458e-08
-5.63482e-09
-4.28027e-09
3.6942e-08
-0.00019433
-0.000264787
-3.24069e-09
-4.73025e-08
-6.55562e-10
4.66613e-08
-0.000264819
3.10347e-10
5.1838e-08
2.52564e-11
-0.000232527
-0.00022576
-5.4526e-08
5.09669e-08
-0.000225794
2.62782e-08
-2.29707e-08
0.000224579
-1.57206e-08
4.66032e-08
-0.000224613
-0.000254907
2.26675e-08
-8.13246e-08
3.65205e-08
-8.28346e-09
-1.34169e-08
1.60164e-08
-0.000280378
-0.000183968
-2.28779e-08
6.76356e-09
8.14138e-08
3.94219e-08
-0.000254965
-6.2084e-09
-0.000183993
1.51023e-08
-4.95336e-08
2.62062e-08
-2.30222e-08
0.000224509
-1.56916e-08
4.67526e-08
-0.000224544
-0.00025479
2.2791e-08
-8.13378e-08
3.86913e-08
-8.23129e-09
-1.34088e-08
1.35601e-08
-0.000280293
-0.00018391
-2.29004e-08
6.86261e-09
8.11714e-08
3.68049e-08
-0.000254843
-6.21837e-09
-0.000183935
1.5196e-08
-4.95939e-08
-7.26932e-09
-7.36166e-09
0.000215314
-0.000215331
-8.07914e-05
-6.75189e-09
-8.0775e-05
-6.76033e-09
-8.08048e-05
-8.07886e-05
-9.79031e-05
-9.78972e-05
1.3997e-07
-0.000265966
1.40089e-07
-0.000266324
-0.000247079
1.37403e-07
1.37067e-07
-0.000247258
-2.68818e-07
-2.7126e-07
-0.000275703
-0.000266663
-0.0002663
1.40081e-07
-0.000266336
-1.39886e-07
-0.000247064
-0.000265909
1.37092e-07
1.37158e-07
-0.000247245
-2.66065e-07
-2.73964e-07
-0.000275664
-0.000266245
-0.000266675
-5.34557e-10
-0.00117433
3.40664e-09
3.53108e-10
-0.00118466
1.29169e-08
-1.47496e-08
-0.00117382
5.27483e-09
-1.35549e-08
-1.67015e-08
-5.48555e-09
-0.0011643
-3.2076e-10
-5.90315e-09
-0.00117382
-7.45917e-09
-3.42443e-08
8.36358e-09
-0.00117432
1.23895e-08
-0.0011847
-7.47508e-09
-6.79529e-10
-0.00117366
1.11593e-08
-0.00118392
-4.2665e-09
-0.00117373
-1.03387e-09
-5.95391e-09
-1.63441e-07
5.40726e-09
-0.00116414
-1.65403e-07
-0.00117352
-5.54406e-09
-5.51559e-09
-0.00117389
-5.9184e-10
-0.00118407
-3.26241e-09
2.19015e-07
-0.000269899
-8.55105e-10
-1.08737e-08
-0.000248682
-0.000255035
-4.85397e-09
-2.17129e-07
-1.12877e-08
-0.000270623
4.38963e-09
6.07416e-09
1.34784e-07
-0.000248771
-0.000255201
1.46615e-09
-0.00026554
-0.000269899
2.19031e-07
6.22517e-09
-8.1344e-10
2.1712e-07
0.000255035
-0.000255201
1.47146e-09
1.13067e-08
0.000265428
-0.00026554
-1.08766e-08
-1.26481e-07
-0.000270623
4.4113e-09
-4.86134e-09
-1.40135e-07
-0.000247079
-1.40027e-07
2.76263e-07
2.78562e-07
0.000266324
-1.37388e-07
-0.00026666
-1.3705e-07
0.000265967
-0.0002663
-0.000247258
3.99382e-10
-2.39563e-07
0.000271609
1.03709e-06
-0.000272405
-1.65468e-09
2.22801e-07
-4.59841e-10
-2.71083e-10
-0.00025613
-0.000272017
-4.23106e-09
0.000272654
-8.59159e-07
2.60668e-10
-0.000254695
-2.45722e-07
0.000254881
4.91582e-09
8.54815e-07
-3.38179e-09
-0.000272645
-0.000254883
-1.43533e-09
0.000272402
-1.04153e-06
-1.71425e-09
-0.000271667
2.43076e-07
-2.34983e-09
8.85767e-09
0.000272458
2.3705e-07
0.000254773
-1.53765e-09
-0.000254957
-6.48976e-10
0.00027204
7.99849e-09
-0.000272685
2.30464e-09
-2.26107e-07
0.000256159
-1.02708e-10
-1.23488e-08
-0.000272452
4.84678e-09
0.000254959
0.000272677
-3.44489e-09
1.29078e-07
-0.000265538
1.08951e-08
-0.00025514
-4.84007e-09
-0.00024878
-1.12322e-08
-2.22124e-07
-0.000270714
1.23443e-08
1.37144e-07
6.12597e-09
-0.000248873
-0.00026565
-0.000255311
1.5429e-09
-0.000269992
6.35964e-09
2.24231e-07
2.22096e-07
0.00025514
-0.000255311
1.12312e-08
0.000265538
-0.000265651
-1.29106e-07
-1.08975e-08
-0.000270714
2.26054e-07
-0.000272043
-6.52616e-09
5.84268e-10
-0.00025599
-1.64206e-09
-0.000254773
-2.37029e-07
4.1088e-09
-1.47374e-09
2.22815e-07
3.82958e-10
3.93491e-09
-0.000271609
1.07999e-09
2.45695e-07
-1.73795e-09
0.000272405
-1.04203e-10
0.000272027
2.39575e-07
0.000254694
-1.44857e-09
-2.28693e-07
1.38181e-09
0.000256135
-1.67803e-09
0.000272655
4.89267e-09
0.000254879
2.21554e-07
-0.000269906
-1.09518e-08
-0.000248717
-0.000255049
-4.87882e-09
-2.19631e-07
-1.12622e-08
-0.000270622
1.68735e-09
6.0771e-09
1.3239e-07
-0.000248803
-0.000255217
1.46359e-09
-0.000265575
-0.000269906
2.21617e-07
6.27987e-09
2.19585e-07
0.000255049
-0.000255217
1.12638e-08
0.000265466
-3.93653e-08
-0.00026557
-1.09662e-08
-1.26545e-07
1.7399e-08
-0.000270617
3.28591e-08
2.28656e-07
-0.000272027
1.12652e-09
-0.000255964
-0.000254694
6.33204e-10
-2.39577e-07
2.25443e-07
-4.83233e-10
2.21621e-07
-0.000269907
-1.09162e-08
-0.000248678
-0.000255033
-7.2768e-09
-2.19471e-07
-1.11652e-08
2.01745e-08
-0.000270639
6.10651e-09
1.37096e-07
-0.000248771
3.98507e-09
-0.000255204
-0.000265554
2.26015e-07
-0.000272022
-4.1454e-09
2.08304e-09
-0.000255954
-7.64857e-10
-0.000254682
4.31038e-09
-2.36971e-07
-0.00027238
2.22831e-07
-1.22996e-09
3.33094e-10
-0.000256124
3.38971e-09
-0.000272653
-0.000254866
-1.33735e-06
-1.29429e-06
-0.000273626
2.70702e-07
2.78727e-07
0.000275708
1.19745e-09
-0.00114407
1.20709e-08
-1.33013e-06
2.86534e-07
-2.91522e-07
-9.43024e-07
2.59596e-07
-2.69704e-07
9.43123e-07
0.00114407
-5.48521e-09
-0.00114508
1.16218e-08
-1.287e-06
2.78477e-07
-2.83082e-07
-9.45463e-07
2.5991e-07
-2.6953e-07
9.43301e-07
0.00114508
1.33199e-06
6.38e-09
-0.0011441
1.21743e-08
-1.32469e-06
2.83893e-07
-2.8866e-07
-9.4568e-07
2.62282e-07
-2.72435e-07
9.45758e-07
0.00114409
-1.29133e-06
-0.000273612
2.73537e-07
2.78533e-07
0.000275683
-5.20535e-09
-0.00114457
-1.28955e-06
2.81244e-07
-2.88622e-07
-9.4269e-07
2.59846e-07
-2.72262e-07
9.40468e-07
0.00114458
2.26181e-08
-1.11184e-08
-6.49365e-09
-9.78907e-05
9.79084e-05
-1.7447e-08
-0.000280294
-3.1257e-08
1.21824e-08
0.00028032
-1.33762e-06
-0.000273611
2.65769e-07
2.75984e-07
-1.29156e-06
0.000275698
-1.81675e-10
-5.68391e-08
0.000232573
-0.000232537
1.92709e-08
1.1203e-09
6.44899e-09
-3.22211e-08
0.0001944
-1.18072e-09
-0.000194373
-5.42995e-08
0.000232567
-0.000232533
1.02304e-09
1.92559e-08
-7.77446e-11
6.44045e-09
-3.23451e-08
0.00019438
-1.04104e-09
-0.000194353
-0.00116447
-5.35608e-09
-5.23688e-09
0.00116448
-0.0011641
-5.47417e-09
5.86171e-09
0.0011641
-1.11856e-08
9.7919e-05
-9.79013e-05
-1.12183e-08
9.79078e-05
-9.78902e-05
0.000275706
-1.3373e-06
-1.29432e-06
-0.000273631
2.73363e-07
2.83943e-07
0.000280408
-1.4859e-08
9.39188e-09
-0.00028038
-3.34867e-08
0.000280332
-1.49273e-08
8.99235e-09
-0.000280301
-3.58179e-08
-1.11869e-08
-6.43416e-09
-9.79012e-05
9.79188e-05
1.33561e-08
4.34295e-09
9.79013e-05
-1.11969e-08
-6.46215e-09
-9.789e-05
9.79077e-05
1.33586e-08
4.37536e-09
9.78901e-05
1.33015e-06
1.28699e-06
0.000273626
-2.66106e-07
-2.71458e-07
-1.48543e-08
-3.34774e-08
-0.00028038
9.40538e-09
0.000280408
-1.49332e-08
-3.58052e-08
-0.000280301
9.00077e-09
0.000280332
1.3657e-08
-8.91798e-09
3.6507e-08
0.00028038
1.3631e-08
-8.29426e-09
3.87526e-08
0.000280301
-3.21287e-08
-0.000194322
-1.23617e-09
0.000194349
-5.43209e-08
0.000232532
1.23572e-09
-0.000232499
1.92682e-08
-1.43526e-09
0.000256167
-0.000255995
6.47018e-10
-2.28692e-07
6.73485e-09
0.00114407
-4.87643e-09
-1.33015e-06
2.86582e-07
-2.91515e-07
-9.42982e-07
2.59632e-07
-2.69617e-07
9.43167e-07
0.000248867
-1.08669e-08
-0.000248776
-1.26496e-07
-2.71098e-08
0.00115262
1.1723e-08
-1.0401e-06
8.59206e-07
-8.60499e-07
1.04166e-06
-0.000248701
-1.24012e-07
-1.09383e-08
0.000248786
5.64279e-08
-1.32725e-06
2.92225e-07
-3.02918e-07
-9.59028e-07
2.56935e-07
-3.13121e-07
9.45841e-07
0.00114411
1.8916e-09
0.000256139
1.1023e-09
-0.000255968
-2.28674e-07
-1.0426e-06
8.59171e-07
-8.57642e-07
1.04422e-06
0.00115257
2.27378e-08
4.25443e-11
5.43248e-08
-1.82274e-08
4.55449e-10
0.000232537
-3.2209e-08
-0.000194373
-1.17783e-09
0.0001944
3.70142e-08
-5.60447e-09
0.000194373
-1.66537e-10
-5.42949e-08
-0.000232536
1.9274e-08
8.88234e-10
0.000232571
5.18242e-08
1.84201e-10
-1.82345e-08
0.000232499
-5.42865e-08
7.58204e-10
-0.000232499
1.92639e-08
0.000232533
5.29862e-10
9.60506e-10
2.25453e-07
0.000255995
6.67912e-09
-4.77476e-09
1.33734e-06
-2.91544e-07
2.86532e-07
9.4314e-07
-2.69695e-07
2.59593e-07
-9.43037e-07
-1.26438e-07
-0.000248776
-1.33391e-08
0.000248869
-0.00115262
1.76158e-08
-1.03734e-06
8.59155e-07
-8.60536e-07
1.04159e-06
0.00115262
-8.66361e-09
6.18485e-09
1.34899e-07
0.000248776
6.34695e-09
1.0416e-06
-8.57723e-07
-1.03737e-06
8.59166e-07
-5.15631e-09
-1.29602e-09
-0.000255995
1.34382e-10
-2.23429e-07
0.000256165
-9.68435e-10
2.25475e-07
0.000255967
6.11682e-10
-0.000255968
-2.23396e-07
0.000256135
0.000256155
-0.000255985
1.06165e-09
-2.23432e-07
-1.77269e-09
1.15135e-08
0.00114508
-5.62541e-09
-1.28699e-06
2.78564e-07
-2.83044e-07
-9.45415e-07
2.59953e-07
-2.69472e-07
9.46094e-07
0.000248832
-1.0866e-08
-0.000248742
-1.26686e-07
0.00115249
1.72615e-08
-1.03999e-06
8.59127e-07
-8.57693e-07
1.04415e-06
-5.84431e-09
5.18355e-08
3.50294e-10
1.50098e-10
-1.82354e-08
0.000232533
-3.23166e-08
-0.000194353
-1.0865e-09
0.000194379
3.69483e-08
-5.5029e-09
0.000194353
-5.67636e-08
-7.63048e-11
-0.00023253
1.0395e-09
1.92553e-08
0.000232567
1.88002e-09
-8.95381e-11
2.22873e-07
0.000255982
1.15191e-08
-5.54326e-09
1.2943e-06
-2.83048e-07
2.78502e-07
9.46062e-07
-2.69513e-07
2.59918e-07
-9.45444e-07
-1.26635e-07
-0.000248742
-1.08545e-08
0.000248832
-0.00115248
-4.51643e-09
6.28037e-09
-1.04003e-06
8.59077e-07
-8.57738e-07
1.04131e-06
0.00115249
6.21041e-09
1.34759e-07
0.000248742
2.13321e-09
1.17296e-08
1.04411e-06
-8.57724e-07
-1.04002e-06
8.59091e-07
-1.73465e-09
-0.000255985
7.91072e-10
-2.26014e-07
0.000256155
5.43236e-08
-2.02934e-08
4.27647e-10
0.000232494
-0.000232528
-3.44414e-08
6.59626e-09
-0.000194301
-1.28423e-09
0.00019433
3.93242e-08
-4.32641e-09
-5.7333e-09
0.000194301
-0.000194331
-5.41516e-08
-0.000232494
2.12623e-08
1.24862e-09
0.000232526
2.22922e-07
-1.8553e-10
0.00025596
-0.000256126
1.22259e-08
-1.32469e-06
6.38379e-09
9.43044e-07
-2.69684e-07
-9.45644e-07
2.59581e-07
1.33202e-06
-2.88668e-07
2.83921e-07
-0.00114411
-0.00115246
1.18807e-08
-1.03725e-06
8.59064e-07
-8.57828e-07
1.04138e-06
0.00115245
1.73751e-08
-1.28829e-07
-0.000248674
-1.09866e-08
0.000248762
1.73847e-08
1.04141e-06
-8.60617e-07
-1.0428e-06
8.5908e-07
-0.00115246
-1.59414e-08
6.0611e-09
1.3731e-07
0.000248674
-0.000248762
-0.00025596
-2.23359e-07
1.1939e-09
0.000256126
-1.34736e-08
-9.78787e-05
9.78988e-05
1.57625e-08
9.78788e-05
-9.78989e-05
1.28957e-06
0.000273614
-2.71569e-07
-2.71197e-07
-0.000275686
-3.3432e-08
-0.000280262
9.48794e-09
0.00028029
1.12553e-08
-1.73033e-08
-3.59084e-08
-0.000280382
8.92678e-09
0.000280415
-8.79912e-09
3.65771e-08
0.000280262
-0.00028029
-1.33411e-08
1.61281e-08
-8.37992e-09
3.87434e-08
0.000280382
-0.000280415
-6.4143e-09
-9.78939e-05
9.79115e-05
4.4002e-09
9.7894e-05
-9.79117e-05
-5.17836e-08
2.25528e-07
-8.93022e-11
0.000255983
1.32717e-09
2.25934e-08
-5.0179e-09
1.29411e-06
-2.8583e-07
2.81248e-07
9.43207e-07
-2.72248e-07
-9.42739e-07
2.62543e-07
-0.00114458
3.22869e-08
-1.29022e-07
-0.000248774
-1.08025e-08
0.000248865
1.13629e-08
1.03577e-06
-8.54886e-07
-1.03164e-06
8.53473e-07
0.00115227
2.03753e-08
-3.69304e-08
6.26561e-09
1.34746e-07
0.000248777
-0.000248865
2.75802e-10
-1.81329e-08
0.000232531
1.91059e-10
-0.000194356
-1.07444e-09
0.000194383
-5.46203e-09
0.000194356
-0.000194383
1.57526e-08
4.35378e-09
-4.16698e-08
0.00022454
5.99382e-08
6.06635e-09
7.33703e-08
-7.8891e-09
7.36885e-08
1.57047e-08
3.01713e-08
-0.000254817
-8.17392e-08
-3.53817e-08
0.000254873
-0.000183929
-2.14748e-08
8.38253e-09
0.000183954
-6.23936e-09
2.86155e-08
-5.55515e-08
0.000224575
2.43193e-07
4.7338e-08
-3.47434e-09
-5.61946e-09
0.000215303
-8.35965e-08
-8.07803e-05
-6.90052e-09
8.07956e-05
-8.07835e-05
-8.60182e-09
-6.80355e-09
8.0799e-05
-5.29897e-10
-1.81056e-08
0.000215334
-1.37544e-08
2.97255e-09
-6.1192e-10
0.000224581
7.33246e-09
0.000183958
-1.43786e-09
1.80508e-08
0.000143652
1.41026e-09
-1.82215e-08
2.57629e-10
-2.36367e-10
5.42943e-08
-0.000171567
-4.21282e-10
4.13913e-12
0.000171587
-0.000225856
1.92538e-08
3.25157e-09
0.000225894
-5.9567e-08
9.38205e-12
5.9854e-10
5.59165e-08
8.59215e-10
0.00014367
1.89585e-08
7.92084e-05
-0.00026491
1.66556e-08
0.000264945
-4.96589e-08
-5.59337e-09
-4.34366e-09
3.69865e-08
4.91253e-08
7.92259e-05
1.80601e-08
-1.19974e-09
0.00014365
1.32197e-09
-2.62966e-10
-1.82317e-08
5.18023e-08
1.81482e-10
-0.000225854
1.92548e-08
3.10393e-09
0.000225888
-5.45786e-08
-0.000171563
-5.04706e-10
0.000171583
9.66201e-11
5.22349e-10
5.09501e-08
1.2382e-10
7.71985e-10
0.000143668
1.88684e-08
7.92079e-05
-0.000264906
1.67363e-08
0.000264939
-4.73269e-08
-5.46962e-09
-4.38142e-09
3.69172e-08
4.66485e-08
7.92255e-05
1.33563e-08
1.33501e-08
-7.3134e-09
-7.38563e-09
0.000215322
1.57475e-08
1.35436e-08
-8.07939e-05
-6.83349e-09
-6.78811e-09
8.08075e-05
-8.0776e-05
-6.72444e-09
-6.85826e-09
8.07896e-05
6.34945e-09
6.24349e-09
-1.49966e-08
-1.30418e-08
0.000215337
-2.10772e-08
0.00022459
2.63936e-08
4.67435e-08
-0.000183975
-2.09674e-08
0.000183998
-8.93136e-09
3.65026e-08
1.36602e-08
2.2677e-08
-0.000254941
0.000254999
-8.38597e-08
-3.02716e-08
0.000224626
-4.9589e-08
8.40361e-08
3.68883e-08
-2.30572e-08
0.000224518
2.62072e-08
4.91067e-08
-0.000183913
-2.28766e-08
0.000183938
-8.30169e-09
3.87366e-08
1.36202e-08
2.28075e-08
-0.000254826
0.000254879
-8.37114e-08
-2.78383e-08
0.000224556
-5.17758e-08
8.37613e-08
3.41785e-08
-9.79189e-05
1.33441e-08
4.34801e-09
-1.11852e-08
-6.44228e-09
-9.79078e-05
1.33677e-08
4.36239e-09
-1.12079e-08
-6.45098e-09
-0.000215322
6.8236e-09
6.72275e-09
-1.49981e-08
-1.30378e-08
0.000215337
7.32491e-09
8.07938e-05
6.34187e-09
7.39231e-09
8.07759e-05
6.23838e-09
1.57519e-08
1.35481e-08
-6.79944e-09
8.08075e-05
-6.85867e-09
8.07895e-05
-2.10927e-08
2.64264e-08
0.00022459
-0.000224626
-1.57456e-08
4.67628e-08
-0.000254941
2.26647e-08
-8.38486e-08
-3.02543e-08
0.000254999
-8.90935e-09
3.65106e-08
-0.000280408
1.36584e-08
-0.000183974
-2.09482e-08
6.80381e-09
0.000183998
-0.000183998
-6.33285e-09
-0.000254999
8.40671e-08
3.69145e-08
1.50078e-08
-4.95738e-08
0.000224626
-2.30664e-08
2.62501e-08
0.000224517
-0.000224556
-1.35555e-08
4.91147e-08
-0.000254826
2.27955e-08
-8.37121e-08
-2.78032e-08
0.000254879
-8.29298e-09
3.87563e-08
-0.000280332
1.36305e-08
-0.000183912
-2.28716e-08
6.86138e-09
0.000183937
-0.000183938
-6.24025e-09
-0.000254879
8.37827e-08
3.42287e-08
1.30403e-08
-5.17748e-08
0.000224556
-0.00022459
2.09559e-08
-2.26599e-08
-4.95804e-08
2.10864e-08
0.000183974
-2.64204e-08
0.000254941
8.40508e-08
3.69143e-08
9.40412e-09
-3.34835e-08
-1.48578e-08
4.67589e-08
-8.38518e-08
-3.025e-08
-0.000224517
2.28712e-08
-2.27877e-08
-5.1779e-08
2.30651e-08
0.000183913
-2.62382e-08
0.000254826
8.37857e-08
3.42122e-08
8.99442e-09
-3.58113e-08
-1.49189e-08
4.91144e-08
-8.37182e-08
-2.78034e-08
-7.33749e-09
-7.3887e-09
0.000215322
-8.07938e-05
-6.82401e-09
8.08074e-05
-8.07759e-05
-6.72215e-09
8.07895e-05
0.000215336
1.90053e-08
7.9162e-05
-1.50706e-09
-5.71791e-09
3.92662e-08
-0.000264789
1.65632e-08
-3.32102e-09
-4.71784e-08
0.000264822
-7.54038e-10
4.67086e-08
-9.15492e-10
7.91795e-05
-1.53097e-09
1.80526e-08
0.000143581
-0.000225766
1.92363e-08
0.000225799
-5.45769e-08
-1.82218e-08
-5.68317e-11
5.17821e-08
-0.000171533
-3.57835e-10
0.000171552
5.0905e-08
0.000143599
-0.000143652
2.5307e-10
-1.92554e-08
8.62403e-10
0.00014367
1.43923e-09
0.000171567
2.08208e-11
-1.80544e-08
0.000225856
5.91857e-10
5.59469e-08
1.92738e-08
1.33194e-09
0.000232573
9.71084e-12
-5.68214e-08
1.40585e-09
0.000171587
9.44575e-13
3.25452e-09
0.000225895
-5.95475e-08
1.89663e-08
7.92083e-05
-7.92259e-05
-1.41382e-09
-5.59677e-09
-0.0001944
3.70124e-08
-0.00026491
1.66452e-08
-3.26981e-09
-4.96257e-08
0.000264945
-0.000264945
-5.99075e-10
4.91729e-08
-8.77951e-10
7.92259e-05
-7.92084e-05
-1.66556e-08
-1.89558e-08
0.00026491
4.91509e-08
-1.18097e-09
-3.22057e-08
-4.96372e-08
-1.45497e-09
1.80543e-08
0.000143652
-1.82241e-08
4.64808e-10
-1.25019e-10
5.43437e-08
-0.000171567
-3.88908e-10
-3.68068e-11
0.000171587
-0.000225857
1.92641e-08
-5.70659e-08
0.000225892
-1.31885e-11
5.59594e-08
0.00014367
-0.000143581
3.85478e-10
-1.92361e-08
0.000143599
8.88453e-10
-1.80497e-08
0.000225766
5.09504e-08
7.54266e-10
1.5114e-09
0.000171532
1.92629e-08
1.23021e-09
0.000232533
-5.42933e-08
1.48505e-09
0.000171552
0.000225799
-5.45557e-08
3.30618e-09
-1.48149e-09
1.80469e-08
0.000143581
1.4581e-09
-0.000225763
1.92496e-08
-5.45627e-08
0.000225796
3.28383e-09
-1.82294e-08
1.65412e-10
5.18422e-08
-0.000171532
-5.79505e-10
0.000171552
5.34403e-08
7.02085e-10
0.000143599
8.58595e-10
-0.00014365
-1.92453e-08
3.3507e-10
7.77156e-10
0.000143668