/*--------------------------------*- C++ -*----------------------------------*\
| =========                 |                                                 |
| \\      /  F ield         | OpenFOAM: The Open Source CFD Toolbox           |
|  \\    /   O peration     | Version:  v2012                                 |
|   \\  /    A nd           | Website:  www.openfoam.com                      |
|    \\/     M anipulation  |                                                 |
\*---------------------------------------------------------------------------*/
FoamFile
{
    version     2.0;
    format      ascii;
    class       volScalarField;
    location    "287.5";
    object      epsilon;
}
// * * * * * * * * * * * * * * * * * * * * * * * * * * * * * * * * * * * * * //

dimensions      [0 2 -3 0 0 0 0];


internalField   nonuniform List<scalar> 
171728
(
4.35807e-09
3.64064e-09
4.54832e-09
4.86646e-09
4.33735e-09
3.37616e-09
4.167e-09
4.42769e-09
4.31358e-09
3.13071e-09
3.81909e-09
4.06089e-09
4.2877e-09
2.91477e-09
3.51338e-09
3.74241e-09
4.26844e-09
2.7264e-09
3.2486e-09
3.47061e-09
4.25678e-09
2.56863e-09
3.02128e-09
3.23507e-09
4.25478e-09
2.4391e-09
2.83548e-09
3.01246e-09
4.25902e-09
2.3405e-09
2.69361e-09
2.82016e-09
4.27077e-09
2.27328e-09
2.59389e-09
2.66069e-09
4.28864e-09
2.23169e-09
2.53286e-09
2.54006e-09
4.31475e-09
2.21289e-09
2.5099e-09
2.4624e-09
4.34653e-09
2.22849e-09
2.52787e-09
2.41974e-09
4.38425e-09
2.28171e-09
2.59132e-09
2.4153e-09
4.4282e-09
2.39002e-09
2.71525e-09
2.45936e-09
4.47749e-09
2.5779e-09
2.91907e-09
2.57243e-09
4.53255e-09
2.88718e-09
3.24769e-09
2.79993e-09
4.59375e-09
3.39533e-09
3.73976e-09
3.24884e-09
4.66225e-09
4.12825e-09
4.4918e-09
3.98725e-09
4.73998e-09
5.3948e-09
5.64232e-09
5.23016e-09
4.82849e-09
7.06459e-09
7.3632e-09
7.92831e-09
4.93041e-09
9.19392e-09
9.84729e-09
1.12616e-08
5.05112e-09
1.35085e-08
1.37395e-08
1.8551e-08
5.19859e-09
1.74056e-08
1.80766e-08
3.17769e-08
5.38619e-09
2.55856e-08
2.53399e-08
4.76145e-08
5.61577e-09
3.21228e-08
3.36609e-08
7.35374e-08
5.93501e-09
4.57324e-08
4.55785e-08
1.18013e-07
6.36458e-09
5.87858e-08
5.93526e-08
1.63413e-07
6.85985e-09
7.80218e-08
7.70264e-08
2.22241e-07
7.54244e-09
9.38327e-08
9.8526e-08
2.97196e-07
8.52687e-09
1.21621e-07
1.18265e-07
3.74916e-07
9.72001e-09
1.46847e-07
1.46709e-07
4.51578e-07
1.11639e-08
1.73865e-07
1.77757e-07
5.33604e-07
1.29302e-08
2.01622e-07
2.03122e-07
5.95179e-07
1.58922e-08
2.67303e-07
2.44757e-07
6.63279e-07
1.84216e-08
2.84034e-07
2.82525e-07
7.22383e-07
2.26517e-08
3.17777e-07
3.25829e-07
7.68492e-07
2.67017e-08
3.69096e-07
3.64781e-07
8.16541e-07
3.29776e-08
4.16721e-07
4.13982e-07
8.58235e-07
4.00448e-08
4.55638e-07
4.60496e-07
8.9338e-07
4.68873e-08
5.17006e-07
5.15761e-07
9.29834e-07
5.98659e-08
5.55747e-07
5.57818e-07
9.69848e-07
6.68381e-08
5.99794e-07
5.97993e-07
9.84804e-07
8.227e-08
6.66039e-07
6.68217e-07
1.03171e-06
9.64845e-08
6.98279e-07
7.00409e-07
1.05493e-06
1.12159e-07
7.52929e-07
7.52262e-07
1.08121e-06
1.30352e-07
7.86783e-07
7.85183e-07
1.11096e-06
1.51097e-07
8.35858e-07
8.33894e-07
1.13611e-06
1.75047e-07
8.68486e-07
8.73964e-07
1.16085e-06
1.98023e-07
9.18759e-07
9.14207e-07
1.19004e-06
2.26613e-07
9.38922e-07
9.44508e-07
1.20828e-06
2.51693e-07
9.73314e-07
9.76374e-07
1.23616e-06
2.81318e-07
1.01261e-06
1.00919e-06
1.25814e-06
3.10546e-07
1.0267e-06
1.03337e-06
1.27156e-06
3.40419e-07
1.05269e-06
1.04739e-06
1.29403e-06
3.67813e-07
1.07848e-06
1.08128e-06
1.31124e-06
4.01495e-07
1.0995e-06
1.10103e-06
1.32599e-06
4.28694e-07
1.11499e-06
1.11071e-06
1.34285e-06
4.55833e-07
1.13414e-06
1.13004e-06
1.35528e-06
4.80934e-07
1.13907e-06
1.13922e-06
1.35771e-06
5.02753e-07
1.15965e-06
1.1631e-06
1.37787e-06
5.3716e-07
1.17785e-06
1.17878e-06
1.40275e-06
5.4235e-07
1.15495e-06
1.15497e-06
1.37044e-06
5.34716e-07
1.1282e-06
1.12787e-06
1.33134e-06
5.47947e-07
1.14369e-06
1.14324e-06
1.35201e-06
6.0675e-07
1.21181e-06
1.21161e-06
1.43777e-06
6.52271e-07
1.25441e-06
1.25447e-06
1.49422e-06
6.66063e-07
1.26691e-06
1.2671e-06
1.51018e-06
6.5059e-07
1.23553e-06
1.23569e-06
1.46925e-06
5.98944e-07
1.15487e-06
1.15497e-06
1.36366e-06
5.57584e-07
1.09436e-06
1.09445e-06
1.2841e-06
5.49294e-07
1.08157e-06
1.08166e-06
1.27375e-06
5.82588e-07
1.11178e-06
1.11186e-06
1.31858e-06
6.26088e-07
1.1421e-06
1.14218e-06
1.36353e-06
6.4779e-07
1.16047e-06
1.16057e-06
1.39373e-06
6.55273e-07
1.16891e-06
1.16901e-06
1.41031e-06
6.57338e-07
1.1722e-06
1.17231e-06
1.41813e-06
6.57805e-07
1.17328e-06
1.17338e-06
1.42126e-06
6.5772e-07
1.17341e-06
1.17351e-06
1.42221e-06
6.57523e-07
1.17332e-06
1.17343e-06
1.42235e-06
6.57543e-07
1.17342e-06
1.17352e-06
1.42248e-06
6.57535e-07
1.17343e-06
1.17353e-06
1.42259e-06
6.57491e-07
1.17335e-06
1.17345e-06
1.4223e-06
6.5752e-07
1.17343e-06
1.17353e-06
1.42261e-06
6.57497e-07
1.17337e-06
1.17347e-06
1.4224e-06
6.575e-07
1.17339e-06
1.17349e-06
1.42246e-06
6.575e-07
1.17339e-06
1.17349e-06
1.42254e-06
6.57497e-07
1.17339e-06
1.17349e-06
1.4224e-06
6.57498e-07
1.1734e-06
1.1735e-06
1.42255e-06
6.57497e-07
1.1734e-06
1.1735e-06
1.42242e-06
6.57499e-07
1.17341e-06
1.17351e-06
1.42248e-06
6.57503e-07
1.17342e-06
1.17352e-06
1.4225e-06
6.57511e-07
1.17344e-06
1.17355e-06
1.42241e-06
6.5751e-07
1.17348e-06
1.17358e-06
1.42255e-06
6.57259e-07
1.17319e-06
1.17329e-06
1.42208e-06
6.38494e-07
1.11632e-06
1.11638e-06
1.38023e-06
5.01506e-09
4.27082e-09
3.81264e-09
4.83886e-09
4.29365e-09
4.29823e-09
4.35927e-09
4.22225e-09
4.36095e-09
4.40201e-09
4.28898e-09
4.23942e-09
5.02642e-09
4.26516e-09
4.3382e-09
4.91228e-09
4.98897e-09
4.55984e-09
4.68834e-09
3.89897e-09
4.37743e-09
3.54094e-09
4.81882e-09
4.36424e-09
4.75606e-09
4.76824e-09
4.4368e-09
4.44653e-09
4.72757e-09
3.44366e-09
4.40882e-09
5.00174e-09
4.57284e-09
5.56908e-09
4.26254e-09
5.26196e-09
4.49632e-09
4.52675e-09
4.14322e-09
4.27307e-09
3.46915e-09
3.98582e-09
3.2996e-09
4.33855e-09
3.95252e-09
4.33016e-09
4.33892e-09
4.03521e-09
4.04028e-09
4.30281e-09
3.18921e-09
4.00847e-09
4.54013e-09
4.15322e-09
5.15664e-09
3.90184e-09
4.85764e-09
4.11989e-09
4.11488e-09
3.78478e-09
3.89719e-09
3.25032e-09
3.65116e-09
3.11993e-09
3.92949e-09
3.5954e-09
3.94475e-09
3.94823e-09
3.69337e-09
3.693e-09
3.91787e-09
2.96601e-09
3.66659e-09
4.12511e-09
3.79297e-09
4.76242e-09
3.58623e-09
4.48279e-09
3.7942e-09
3.76029e-09
3.47497e-09
3.57517e-09
3.08123e-09
3.36299e-09
2.9698e-09
3.57507e-09
3.29591e-09
3.61496e-09
3.61377e-09
3.39865e-09
3.39558e-09
3.58806e-09
2.77057e-09
3.36986e-09
3.76877e-09
3.48221e-09
4.3926e-09
3.3109e-09
4.13662e-09
3.50627e-09
3.45399e-09
3.20777e-09
3.29774e-09
2.93415e-09
3.11717e-09
2.8343e-09
3.27924e-09
3.04367e-09
3.33201e-09
3.32876e-09
3.14744e-09
3.14471e-09
3.30257e-09
2.60555e-09
3.11854e-09
3.46154e-09
3.21428e-09
4.05762e-09
3.07394e-09
3.83837e-09
3.25397e-09
3.19062e-09
2.9799e-09
3.06323e-09
2.80384e-09
2.91699e-09
2.72439e-09
3.03009e-09
2.82686e-09
3.09156e-09
3.08952e-09
2.93847e-09
2.93913e-09
3.06322e-09
2.46829e-09
2.91271e-09
3.19729e-09
2.98427e-09
3.76957e-09
2.87728e-09
3.5767e-09
3.02796e-09
2.96659e-09
2.78909e-09
2.87439e-09
2.70141e-09
2.76022e-09
2.646e-09
2.81668e-09
2.65136e-09
2.89316e-09
2.8955e-09
2.7723e-09
2.77767e-09
2.86866e-09
2.36214e-09
2.75127e-09
2.97094e-09
2.79224e-09
3.51703e-09
2.72473e-09
3.34942e-09
2.83171e-09
2.77967e-09
2.63442e-09
2.72774e-09
2.63109e-09
2.64351e-09
2.59473e-09
2.64516e-09
2.51692e-09
2.73769e-09
2.74424e-09
2.64933e-09
2.65778e-09
2.71856e-09
2.2874e-09
2.63369e-09
2.78294e-09
2.63637e-09
3.29485e-09
2.61495e-09
3.13474e-09
2.66809e-09
2.62892e-09
2.51127e-09
2.62058e-09
2.58562e-09
2.56586e-09
2.5663e-09
2.51435e-09
2.41258e-09
2.62459e-09
2.63388e-09
2.56729e-09
2.57637e-09
2.61041e-09
2.2402e-09
2.55558e-09
2.63096e-09
2.51322e-09
3.08436e-09
2.54411e-09
2.95128e-09
2.54203e-09
2.51016e-09
2.42332e-09
2.55172e-09
2.56202e-09
2.52674e-09
2.56112e-09
2.41323e-09
2.33677e-09
2.55201e-09
2.56162e-09
2.52471e-09
2.53472e-09
2.54154e-09
2.21418e-09
2.51503e-09
2.51199e-09
2.42389e-09
2.9139e-09
2.51142e-09
2.8269e-09
2.45954e-09
2.42621e-09
2.37087e-09
2.52212e-09
2.5635e-09
2.52753e-09
2.58324e-09
2.34074e-09
2.2909e-09
2.51875e-09
2.52896e-09
2.52272e-09
2.5336e-09
2.51011e-09
2.22232e-09
2.51528e-09
2.42664e-09
2.3718e-09
2.8032e-09
2.519e-09
2.76646e-09
2.41085e-09
2.38011e-09
2.35907e-09
2.53517e-09
2.59556e-09
2.57485e-09
2.64584e-09
2.30114e-09
2.28298e-09
2.52928e-09
2.54077e-09
2.56788e-09
2.57973e-09
2.52257e-09
2.2687e-09
2.56322e-09
2.38105e-09
2.35977e-09
2.76031e-09
2.57041e-09
2.76253e-09
2.39705e-09
2.37797e-09
2.39844e-09
2.59431e-09
2.66962e-09
2.6779e-09
2.76176e-09
2.30202e-09
2.32052e-09
2.5867e-09
2.59978e-09
2.66972e-09
2.68485e-09
2.58333e-09
2.36181e-09
2.66798e-09
2.37836e-09
2.39811e-09
2.7674e-09
2.67787e-09
2.80344e-09
2.42766e-09
2.43164e-09
2.50631e-09
2.71549e-09
2.80111e-09
2.85808e-09
2.94807e-09
2.35315e-09
2.4186e-09
2.70604e-09
2.72205e-09
2.84906e-09
2.86505e-09
2.70501e-09
2.52732e-09
2.84675e-09
2.43014e-09
2.50566e-09
2.82291e-09
2.86002e-09
2.90702e-09
2.51815e-09
2.56391e-09
2.71544e-09
2.92066e-09
3.01086e-09
3.14874e-09
3.24013e-09
2.47603e-09
2.62006e-09
2.90881e-09
2.9254e-09
3.12881e-09
3.15421e-09
2.9059e-09
2.8039e-09
3.13756e-09
2.55977e-09
2.71875e-09
2.94715e-09
3.15145e-09
3.11163e-09
2.70932e-09
2.81017e-09
3.09737e-09
3.24351e-09
3.3296e-09
3.59359e-09
3.70597e-09
2.71388e-09
3.03479e-09
3.22222e-09
3.24769e-09
3.5796e-09
3.60334e-09
3.23269e-09
3.26888e-09
3.58092e-09
2.81304e-09
3.08999e-09
3.18198e-09
3.58891e-09
3.46506e-09
3.0934e-09
3.25659e-09
3.75889e-09
3.74337e-09
3.84494e-09
4.28423e-09
4.35802e-09
3.17294e-09
3.67894e-09
3.72407e-09
3.75358e-09
4.26198e-09
4.27678e-09
3.72404e-09
3.90481e-09
4.27368e-09
3.25195e-09
3.7451e-09
3.58047e-09
4.27931e-09
4.03797e-09
3.71228e-09
4.02719e-09
4.89653e-09
4.51716e-09
4.58511e-09
5.31553e-09
5.53298e-09
3.95322e-09
5.12532e-09
4.4985e-09
4.4988e-09
5.28112e-09
5.34852e-09
4.49818e-09
5.0983e-09
5.3036e-09
3.98793e-09
4.98633e-09
4.2567e-09
5.3482e-09
4.98061e-09
4.84537e-09
5.30399e-09
7.08406e-09
5.63591e-09
5.83237e-09
6.92615e-09
6.86972e-09
5.58521e-09
6.63791e-09
5.60311e-09
5.64349e-09
6.89096e-09
6.93905e-09
5.62663e-09
6.41291e-09
6.96303e-09
5.36305e-09
7.12131e-09
5.28786e-09
6.91887e-09
6.62381e-09
7.16084e-09
7.78764e-09
1.04646e-08
7.39721e-09
7.52184e-09
9.14717e-09
9.22792e-09
7.49635e-09
1.06914e-08
7.35352e-09
7.37276e-09
9.08522e-09
9.29374e-09
7.45371e-09
8.73926e-09
8.97117e-09
7.83009e-09
1.08046e-08
7.07036e-09
9.22162e-09
8.49722e-09
9.80076e-09
1.15962e-08
1.70301e-08
9.85371e-09
9.72868e-09
1.24264e-08
1.29223e-08
1.13128e-08
1.76118e-08
9.77189e-09
9.9028e-09
1.23773e-08
1.26272e-08
1.00131e-08
1.22814e-08
1.24507e-08
1.21244e-08
1.66994e-08
9.45789e-09
1.2552e-08
1.20305e-08
1.74323e-08
1.87585e-08
2.81485e-08
1.33999e-08
1.40657e-08
1.72405e-08
1.67657e-08
2.0741e-08
2.58997e-08
1.33072e-08
1.38807e-08
1.72009e-08
1.66558e-08
1.31897e-08
1.63439e-08
1.74038e-08
1.96178e-08
2.62114e-08
1.28334e-08
1.66905e-08
1.68172e-08
2.85469e-08
3.18737e-08
4.28607e-08
1.86891e-08
1.79003e-08
2.30826e-08
2.4269e-08
2.76721e-08
4.53995e-08
1.86042e-08
1.80108e-08
2.29903e-08
2.39097e-08
1.84422e-08
2.29293e-08
2.30512e-08
2.83349e-08
4.69657e-08
1.78312e-08
2.35598e-08
2.24954e-08
4.08437e-08
4.73053e-08
6.9354e-08
2.52021e-08
2.63974e-08
3.15368e-08
3.10717e-08
5.18633e-08
6.66822e-08
2.51342e-08
2.55196e-08
3.12087e-08
3.07541e-08
2.58658e-08
3.0535e-08
3.1281e-08
5.12803e-08
6.60637e-08
2.51368e-08
3.08268e-08
3.06351e-08
7.0438e-08
7.50844e-08
1.06574e-07
3.33653e-08
3.27623e-08
4.39005e-08
4.49971e-08
6.94341e-08
1.11156e-07
3.3204e-08
3.37865e-08
4.34859e-08
4.37931e-08
3.32315e-08
4.24942e-08
4.25428e-08
7.20258e-08
1.13348e-07
3.26534e-08
4.37142e-08
4.19072e-08
1.0711e-07
1.1935e-07
1.48854e-07
4.73705e-08
4.86527e-08
5.45777e-08
5.49609e-08
1.26367e-07
1.48352e-07
4.69846e-08
4.56632e-08
5.41933e-08
5.44071e-08
4.52982e-08
5.54276e-08
5.59415e-08
1.21101e-07
1.40473e-07
4.47011e-08
5.37621e-08
5.52694e-08
1.5007e-07
1.5588e-07
2.32379e-07
5.91991e-08
5.95122e-08
7.50713e-08
7.56237e-08
1.55391e-07
2.23689e-07
5.87168e-08
6.01988e-08
7.52165e-08
7.34739e-08
5.97843e-08
7.21498e-08
7.22649e-08
1.52356e-07
2.28222e-07
5.9361e-08
7.40764e-08
7.05421e-08
2.11484e-07
2.42423e-07
2.62427e-07
7.78001e-08
7.8486e-08
8.9541e-08
8.83078e-08
2.37478e-07
2.78149e-07
7.78573e-08
7.6448e-08
8.85457e-08
9.28499e-08
7.68701e-08
9.02198e-08
9.02615e-08
2.38958e-07
2.76883e-07
7.53577e-08
9.24096e-08
9.1444e-08
2.81915e-07
2.75926e-07
3.7432e-07
9.59555e-08
9.44864e-08
1.13578e-07
1.18287e-07
2.8764e-07
3.63453e-07
9.47429e-08
9.87214e-08
1.13706e-07
1.12555e-07
9.54511e-08
1.14779e-07
1.14452e-07
2.96315e-07
3.59691e-07
9.55736e-08
1.11534e-07
1.1292e-07
3.56944e-07
3.88729e-07
4.45889e-07
1.20891e-07
1.24615e-07
1.42936e-07
1.40915e-07
3.87525e-07
4.43197e-07
1.2095e-07
1.1925e-07
1.42681e-07
1.40526e-07
1.2059e-07
1.38231e-07
1.3898e-07
3.70124e-07
4.47102e-07
1.20306e-07
1.41148e-07
1.38134e-07
4.39808e-07
4.64279e-07
5.1142e-07
1.48166e-07
1.48961e-07
1.67856e-07
1.7206e-07
4.58969e-07
5.19161e-07
1.47989e-07
1.46457e-07
1.67248e-07
1.69462e-07
1.46563e-07
1.70697e-07
1.66803e-07
4.65944e-07
5.14151e-07
1.45716e-07
1.69113e-07
1.68176e-07
5.15345e-07
5.25178e-07
5.85061e-07
1.77303e-07
1.754e-07
1.98235e-07
1.89777e-07
5.29072e-07
5.45653e-07
1.76916e-07
1.7829e-07
1.99471e-07
1.97385e-07
1.73747e-07
1.88538e-07
2.01714e-07
5.31514e-07
5.82295e-07
1.73841e-07
1.96211e-07
1.99678e-07
5.79246e-07
5.9847e-07
6.46354e-07
2.04224e-07
2.02626e-07
2.36963e-07
2.59428e-07
5.60406e-07
6.98359e-07
2.05195e-07
2.03474e-07
2.35684e-07
2.35674e-07
2.10133e-07
2.56659e-07
2.32069e-07
5.93445e-07
6.4515e-07
2.09836e-07
2.33725e-07
2.31927e-07
6.50737e-07
6.63536e-07
7.09494e-07
2.50196e-07
2.70721e-07
2.74396e-07
2.82733e-07
7.10565e-07
7.13271e-07
2.49157e-07
2.48458e-07
2.74681e-07
2.741e-07
2.42926e-07
2.80184e-07
2.77773e-07
6.63462e-07
7.09346e-07
2.41042e-07
2.74553e-07
2.76199e-07
7.08399e-07
7.19814e-07
7.59546e-07
2.80412e-07
2.86172e-07
3.12919e-07
3.07636e-07
7.20327e-07
7.47031e-07
2.81152e-07
2.80254e-07
3.14885e-07
3.1228e-07
2.85301e-07
3.0521e-07
3.10407e-07
7.20295e-07
7.57803e-07
2.84578e-07
3.12511e-07
3.0957e-07
7.55845e-07
7.73282e-07
8.02893e-07
3.28102e-07
3.20184e-07
3.59518e-07
3.57074e-07
7.59568e-07
8.09873e-07
3.28449e-07
3.27451e-07
3.54328e-07
3.61402e-07
3.2414e-07
3.59476e-07
3.60728e-07
7.71344e-07
8.04484e-07
3.22655e-07
3.57768e-07
3.59904e-07
8.06663e-07
8.12978e-07
8.51257e-07
3.6657e-07
3.67257e-07
4.00601e-07
4.07005e-07
8.22144e-07
8.46943e-07
3.61785e-07
3.6803e-07
4.02782e-07
3.94937e-07
3.68072e-07
4.04119e-07
3.96138e-07
8.14259e-07
8.42039e-07
3.67929e-07
3.97131e-07
3.9733e-07
8.45009e-07
8.62619e-07
8.80622e-07
4.16942e-07
4.19649e-07
4.5276e-07
4.4719e-07
8.55397e-07
8.81505e-07
4.20193e-07
4.10765e-07
4.53009e-07
4.56113e-07
4.11798e-07
4.45543e-07
4.56067e-07
8.54366e-07
8.88928e-07
4.12773e-07
4.51917e-07
4.55328e-07
8.86327e-07
8.88576e-07
9.23795e-07
4.60502e-07
4.56672e-07
4.92293e-07
5.01215e-07
8.93053e-07
9.27131e-07
4.60045e-07
4.65088e-07
4.90536e-07
4.97524e-07
4.64978e-07
5.01191e-07
4.90463e-07
8.98157e-07
9.2396e-07
4.64072e-07
4.99539e-07
4.89349e-07
9.16483e-07
9.36545e-07
9.57753e-07
5.08956e-07
5.17681e-07
5.56654e-07
5.50544e-07
9.35757e-07
9.49425e-07
5.06716e-07
5.13607e-07
5.56306e-07
5.52433e-07
5.04578e-07
5.48743e-07
5.5793e-07
9.33903e-07
9.52136e-07
5.03455e-07
5.5088e-07
5.57411e-07
9.64303e-07
9.62723e-07
9.77156e-07
5.66163e-07
5.57516e-07
5.87706e-07
5.84395e-07
9.5618e-07
9.82159e-07
5.66428e-07
5.60007e-07
5.88623e-07
5.84823e-07
5.7019e-07
5.83833e-07
5.92541e-07
9.58269e-07
9.79703e-07
5.69921e-07
5.83274e-07
5.92576e-07
9.76993e-07
9.86808e-07
1.02254e-06
5.97204e-07
5.99667e-07
6.45797e-07
6.54742e-07
9.93754e-07
1.02497e-06
5.97914e-07
5.98873e-07
6.45001e-07
6.54769e-07
6.0067e-07
6.5419e-07
6.42075e-07
9.91724e-07
1.02644e-06
6.00702e-07
6.54897e-07
6.41645e-07
1.02111e-06
1.0323e-06
1.04746e-06
6.62936e-07
6.67241e-07
6.92532e-07
6.90652e-07
1.03178e-06
1.04424e-06
6.62477e-07
6.68231e-07
6.92405e-07
6.92519e-07
6.60209e-07
6.89405e-07
6.95637e-07
1.0334e-06
1.04475e-06
6.59419e-07
6.92356e-07
6.95701e-07
1.04961e-06
1.05302e-06
1.07377e-06
7.019e-07
6.99088e-07
7.36494e-07
7.38777e-07
1.05128e-06
1.07828e-06
7.00388e-07
7.00464e-07
7.35788e-07
7.38751e-07
7.03595e-07
7.39566e-07
7.35781e-07
1.05159e-06
1.07876e-06
7.04041e-07
7.38584e-07
7.33589e-07
1.07281e-06
1.08222e-06
1.10094e-06
7.47447e-07
7.52171e-07
7.79568e-07
7.7863e-07
1.08647e-06
1.09994e-06
7.47847e-07
7.53235e-07
7.79052e-07
7.79726e-07
7.48479e-07
7.7798e-07
7.81293e-07
1.0872e-06
1.10022e-06
7.45857e-07
7.77021e-07
7.83447e-07
1.10409e-06
1.10772e-06
1.12958e-06
7.90689e-07
7.87371e-07
8.23021e-07
8.22588e-07
1.10562e-06
1.12996e-06
7.89449e-07
7.88104e-07
8.22563e-07
8.20823e-07
7.91229e-07
8.25199e-07
8.25515e-07
1.10537e-06
1.12793e-06
7.94109e-07
8.21564e-07
8.21991e-07
1.12933e-06
1.13676e-06
1.15552e-06
8.3328e-07
8.34868e-07
8.63494e-07
8.63155e-07
1.13812e-06
1.15394e-06
8.33401e-07
8.31787e-07
8.64057e-07
8.64469e-07
8.36362e-07
8.58336e-07
8.61151e-07
1.13654e-06
1.15659e-06
8.31255e-07
8.64116e-07
8.62173e-07
1.15419e-06
1.16218e-06
1.1803e-06
8.72821e-07
8.7139e-07
9.00282e-07
9.03862e-07
1.15991e-06
1.18523e-06
8.73198e-07
8.75007e-07
8.99468e-07
9.03683e-07
8.6961e-07
9.08344e-07
9.03263e-07
1.16322e-06
1.18436e-06
8.73346e-07
9.05287e-07
9.04827e-07
1.18315e-06
1.18688e-06
1.20775e-06
9.10232e-07
9.15119e-07
9.39018e-07
9.36782e-07
1.19285e-06
1.20423e-06
9.09068e-07
9.12763e-07
9.38543e-07
9.3937e-07
9.14143e-07
9.35003e-07
9.36039e-07
1.19093e-06
1.20627e-06
9.1291e-07
9.36492e-07
9.3256e-07
1.20341e-06
1.21397e-06
1.22718e-06
9.46728e-07
9.41311e-07
9.66773e-07
9.62636e-07
1.20747e-06
1.22038e-06
9.46808e-07
9.47185e-07
9.67063e-07
9.66873e-07
9.4207e-07
9.60867e-07
9.67305e-07
1.2118e-06
1.22736e-06
9.40524e-07
9.69152e-07
9.70208e-07
1.22832e-06
1.23262e-06
1.25091e-06
9.74668e-07
9.74447e-07
1.00013e-06
1.00453e-06
1.22961e-06
1.25828e-06
9.74392e-07
9.73737e-07
9.98515e-07
9.9868e-07
9.77648e-07
1.00738e-06
1.0033e-06
1.23296e-06
1.24998e-06
9.79647e-07
1e-06
1.00038e-06
1.25385e-06
1.25685e-06
1.27055e-06
1.00734e-06
1.00927e-06
1.02589e-06
1.0234e-06
1.26277e-06
1.26739e-06
1.00593e-06
1.00779e-06
1.02655e-06
1.03016e-06
1.00882e-06
1.02243e-06
1.02233e-06
1.25663e-06
1.27324e-06
1.00588e-06
1.03001e-06
1.02358e-06
1.26683e-06
1.27564e-06
1.28921e-06
1.03209e-06
1.03001e-06
1.05126e-06
1.04948e-06
1.27139e-06
1.28626e-06
1.03326e-06
1.0345e-06
1.05161e-06
1.04369e-06
1.02779e-06
1.04557e-06
1.05033e-06
1.27696e-06
1.27997e-06
1.02959e-06
1.04206e-06
1.04894e-06
1.28781e-06
1.294e-06
1.3046e-06
1.05708e-06
1.05523e-06
1.07135e-06
1.07223e-06
1.29161e-06
1.30502e-06
1.05663e-06
1.04817e-06
1.06972e-06
1.06994e-06
1.05831e-06
1.07268e-06
1.07351e-06
1.28357e-06
1.30408e-06
1.056e-06
1.07331e-06
1.07302e-06
1.3077e-06
1.30934e-06
1.32618e-06
1.07671e-06
1.07771e-06
1.09761e-06
1.09383e-06
1.3103e-06
1.32329e-06
1.07538e-06
1.07804e-06
1.09799e-06
1.09962e-06
1.07659e-06
1.09463e-06
1.09276e-06
1.31163e-06
1.32823e-06
1.07688e-06
1.09727e-06
1.09238e-06
1.32026e-06
1.33181e-06
1.3379e-06
1.10349e-06
1.09861e-06
1.11246e-06
1.10958e-06
1.32768e-06
1.33558e-06
1.10427e-06
1.10482e-06
1.1131e-06
1.11258e-06
1.10014e-06
1.11096e-06
1.1144e-06
1.33253e-06
1.33676e-06
1.09897e-06
1.10828e-06
1.11263e-06
1.33948e-06
1.34026e-06
1.3494e-06
1.11499e-06
1.1136e-06
1.12998e-06
1.12923e-06
1.33943e-06
1.35164e-06
1.11509e-06
1.11428e-06
1.12798e-06
1.12497e-06
1.11741e-06
1.13019e-06
1.13054e-06
1.33913e-06
1.34586e-06
1.11579e-06
1.12466e-06
1.12889e-06
1.35106e-06
1.35464e-06
1.35759e-06
1.13527e-06
1.13334e-06
1.14072e-06
1.13776e-06
1.35595e-06
1.35605e-06
1.13316e-06
1.12978e-06
1.13909e-06
1.13695e-06
1.13462e-06
1.13822e-06
1.13887e-06
1.35058e-06
1.35518e-06
1.13295e-06
1.13766e-06
1.13777e-06
1.3564e-06
1.35882e-06
1.36702e-06
1.14107e-06
1.13871e-06
1.14986e-06
1.15135e-06
1.35742e-06
1.36998e-06
1.13967e-06
1.13845e-06
1.14974e-06
1.15323e-06
1.13945e-06
1.15124e-06
1.15013e-06
1.35734e-06
1.37306e-06
1.13871e-06
1.15428e-06
1.1512e-06
1.36846e-06
1.3758e-06
1.3986e-06
1.15735e-06
1.15994e-06
1.17545e-06
1.17787e-06
1.37978e-06
1.40241e-06
1.15758e-06
1.16202e-06
1.17547e-06
1.17784e-06
1.15821e-06
1.17754e-06
1.17669e-06
1.38282e-06
1.40289e-06
1.15973e-06
1.17869e-06
1.17738e-06
1.40081e-06
1.40058e-06
1.37148e-06
1.17594e-06
1.17817e-06
1.1625e-06
1.16363e-06
1.4042e-06
1.37248e-06
1.17591e-06
1.17796e-06
1.16248e-06
1.16315e-06
1.17715e-06
1.16346e-06
1.16339e-06
1.40449e-06
1.37241e-06
1.17769e-06
1.1636e-06
1.16357e-06
1.3728e-06
1.36929e-06
1.33109e-06
1.15433e-06
1.15509e-06
1.13155e-06
1.13182e-06
1.36999e-06
1.33034e-06
1.15431e-06
1.15463e-06
1.1314e-06
1.13135e-06
1.15504e-06
1.13169e-06
1.13178e-06
1.36991e-06
1.33009e-06
1.15517e-06
1.13142e-06
1.13183e-06
1.33109e-06
1.33138e-06
1.34045e-06
1.12804e-06
1.12833e-06
1.13187e-06
1.13238e-06
1.33062e-06
1.34043e-06
1.12783e-06
1.12784e-06
1.13149e-06
1.13185e-06
1.1282e-06
1.13227e-06
1.13201e-06
1.33035e-06
1.33995e-06
1.12825e-06
1.13185e-06
1.13206e-06
1.34052e-06
1.35188e-06
1.42092e-06
1.14312e-06
1.14377e-06
1.19461e-06
1.19524e-06
1.35208e-06
1.42161e-06
1.14267e-06
1.14325e-06
1.1942e-06
1.19497e-06
1.1433e-06
1.19527e-06
1.19501e-06
1.35158e-06
1.42137e-06
1.14335e-06
1.19499e-06
1.19492e-06
1.42138e-06
1.43732e-06
1.48527e-06
1.21123e-06
1.21177e-06
1.24673e-06
1.24699e-06
1.43801e-06
1.48582e-06
1.21087e-06
1.2116e-06
1.24645e-06
1.24707e-06
1.21168e-06
1.24706e-06
1.24718e-06
1.43782e-06
1.48591e-06
1.21152e-06
1.24706e-06
1.24691e-06
1.48582e-06
1.49371e-06
1.50785e-06
1.25417e-06
1.25434e-06
1.26637e-06
1.26628e-06
1.49419e-06
1.50792e-06
1.2539e-06
1.25448e-06
1.26617e-06
1.26656e-06
1.25458e-06
1.26636e-06
1.26662e-06
1.49432e-06
1.50824e-06
1.2543e-06
1.26655e-06
1.26633e-06
1.50811e-06
1.50999e-06
1.47471e-06
1.26697e-06
1.26683e-06
1.25021e-06
1.24986e-06
1.50998e-06
1.47427e-06
1.26678e-06
1.26712e-06
1.25008e-06
1.25015e-06
1.26717e-06
1.24993e-06
1.25023e-06
1.51031e-06
1.4746e-06
1.26688e-06
1.25012e-06
1.24996e-06
1.4746e-06
1.46938e-06
1.37106e-06
1.2358e-06
1.23545e-06
1.17564e-06
1.17539e-06
1.46893e-06
1.37073e-06
1.23567e-06
1.23571e-06
1.17551e-06
1.17554e-06
1.23581e-06
1.17543e-06
1.17567e-06
1.46923e-06
1.37088e-06
1.23555e-06
1.17553e-06
1.17544e-06
1.37102e-06
1.36371e-06
1.28622e-06
1.15505e-06
1.15483e-06
1.10525e-06
1.1051e-06
1.3634e-06
1.28607e-06
1.1549e-06
1.15495e-06
1.10507e-06
1.10518e-06
1.15507e-06
1.10511e-06
1.10528e-06
1.36353e-06
1.28614e-06
1.15486e-06
1.10519e-06
1.10507e-06
1.28625e-06
1.28408e-06
1.26902e-06
1.0945e-06
1.09436e-06
1.08135e-06
1.08123e-06
1.28395e-06
1.26897e-06
1.09431e-06
1.09443e-06
1.08113e-06
1.0813e-06
1.09452e-06
1.0812e-06
1.08135e-06
1.284e-06
1.26903e-06
1.09432e-06
1.08129e-06
1.08115e-06
1.26909e-06
1.2737e-06
1.30798e-06
1.08171e-06
1.08159e-06
1.10267e-06
1.10256e-06
1.27366e-06
1.30796e-06
1.08149e-06
1.08166e-06
1.10245e-06
1.10264e-06
1.08172e-06
1.10253e-06
1.10267e-06
1.27371e-06
1.30802e-06
1.08151e-06
1.10261e-06
1.10247e-06
1.30808e-06
1.3185e-06
1.35466e-06
1.11193e-06
1.11182e-06
1.13571e-06
1.1356e-06
1.31849e-06
1.35464e-06
1.11171e-06
1.1119e-06
1.13552e-06
1.13569e-06
1.11194e-06
1.13557e-06
1.13573e-06
1.31854e-06
1.35471e-06
1.11174e-06
1.13566e-06
1.13554e-06
1.35477e-06
1.36345e-06
1.38753e-06
1.14224e-06
1.14212e-06
1.15712e-06
1.157e-06
1.36343e-06
1.38749e-06
1.14205e-06
1.14222e-06
1.15694e-06
1.15711e-06
1.14225e-06
1.15698e-06
1.15713e-06
1.36349e-06
1.38758e-06
1.14207e-06
1.15708e-06
1.15695e-06
1.38761e-06
1.39368e-06
1.40626e-06
1.16061e-06
1.16049e-06
1.16757e-06
1.16746e-06
1.39364e-06
1.40623e-06
1.16043e-06
1.1606e-06
1.1674e-06
1.16758e-06
1.16062e-06
1.16745e-06
1.16759e-06
1.39372e-06
1.40633e-06
1.16045e-06
1.16755e-06
1.16742e-06
1.40635e-06
1.41024e-06
1.41531e-06
1.16903e-06
1.16892e-06
1.17177e-06
1.17167e-06
1.41021e-06
1.41529e-06
1.16886e-06
1.16904e-06
1.1716e-06
1.17178e-06
1.16905e-06
1.17165e-06
1.1718e-06
1.4103e-06
1.41538e-06
1.16889e-06
1.17176e-06
1.17163e-06
1.41541e-06
1.41805e-06
1.41907e-06
1.17232e-06
1.17222e-06
1.17325e-06
1.17314e-06
1.41803e-06
1.41905e-06
1.17215e-06
1.17233e-06
1.17308e-06
1.17326e-06
1.17235e-06
1.17313e-06
1.17328e-06
1.41811e-06
1.41914e-06
1.17218e-06
1.17323e-06
1.17311e-06
1.41916e-06
1.42118e-06
1.42027e-06
1.1734e-06
1.17329e-06
1.17353e-06
1.17342e-06
1.42116e-06
1.42025e-06
1.17322e-06
1.17341e-06
1.17336e-06
1.17354e-06
1.17342e-06
1.17341e-06
1.17356e-06
1.42124e-06
1.42034e-06
1.17326e-06
1.17351e-06
1.17339e-06
1.42037e-06
1.42213e-06
1.42047e-06
1.17353e-06
1.17342e-06
1.17346e-06
1.17335e-06
1.42211e-06
1.42044e-06
1.17336e-06
1.17354e-06
1.17329e-06
1.17347e-06
1.17356e-06
1.17334e-06
1.17348e-06
1.42219e-06
1.42053e-06
1.17339e-06
1.17344e-06
1.17332e-06
1.42055e-06
1.42228e-06
1.42046e-06
1.17345e-06
1.17334e-06
1.17348e-06
1.17338e-06
1.42225e-06
1.42045e-06
1.17327e-06
1.17346e-06
1.1733e-06
1.17349e-06
1.17347e-06
1.17336e-06
1.17351e-06
1.42234e-06
1.42053e-06
1.17331e-06
1.17346e-06
1.17334e-06
1.42057e-06
1.42238e-06
1.42071e-06
1.17354e-06
1.17344e-06
1.17357e-06
1.17346e-06
1.42237e-06
1.42068e-06
1.17337e-06
1.17355e-06
1.1734e-06
1.17358e-06
1.17357e-06
1.17345e-06
1.17359e-06
1.42244e-06
1.42078e-06
1.1734e-06
1.17355e-06
1.17343e-06
1.42079e-06
1.42252e-06
1.42038e-06
1.17355e-06
1.17344e-06
1.17346e-06
1.17335e-06
1.42249e-06
1.42035e-06
1.17337e-06
1.17356e-06
1.17329e-06
1.17347e-06
1.17357e-06
1.17334e-06
1.17348e-06
1.42258e-06
1.42045e-06
1.1734e-06
1.17344e-06
1.17332e-06
1.42047e-06
1.42222e-06
1.42064e-06
1.17347e-06
1.17336e-06
1.17353e-06
1.17342e-06
1.4222e-06
1.42063e-06
1.17329e-06
1.17348e-06
1.17335e-06
1.17354e-06
1.17349e-06
1.17341e-06
1.17355e-06
1.42228e-06
1.42072e-06
1.17333e-06
1.17351e-06
1.17339e-06
1.42075e-06
1.42252e-06
1.42055e-06
1.17355e-06
1.17344e-06
1.1735e-06
1.17339e-06
1.4225e-06
1.42052e-06
1.17337e-06
1.17356e-06
1.17332e-06
1.1735e-06
1.17357e-06
1.17337e-06
1.17351e-06
1.42258e-06
1.42061e-06
1.17341e-06
1.17348e-06
1.17335e-06
1.42062e-06
1.42235e-06
1.42048e-06
1.17349e-06
1.17338e-06
1.17349e-06
1.17338e-06
1.42232e-06
1.42047e-06
1.17332e-06
1.1735e-06
1.17331e-06
1.1735e-06
1.17351e-06
1.17337e-06
1.17352e-06
1.4224e-06
1.42056e-06
1.17335e-06
1.17347e-06
1.17335e-06
1.4206e-06
1.42236e-06
1.42067e-06
1.17351e-06
1.17341e-06
1.1735e-06
1.1734e-06
1.42234e-06
1.42064e-06
1.17334e-06
1.17352e-06
1.17333e-06
1.17351e-06
1.17354e-06
1.17338e-06
1.17353e-06
1.42243e-06
1.42073e-06
1.17337e-06
1.17348e-06
1.17336e-06
1.42074e-06
1.42248e-06
1.42044e-06
1.17351e-06
1.17341e-06
1.17348e-06
1.17338e-06
1.42246e-06
1.42042e-06
1.17334e-06
1.17352e-06
1.17331e-06
1.17349e-06
1.17354e-06
1.17336e-06
1.17351e-06
1.42254e-06
1.42051e-06
1.17337e-06
1.17346e-06
1.17334e-06
1.42054e-06
1.4223e-06
1.42067e-06
1.17351e-06
1.1734e-06
1.17349e-06
1.17338e-06
1.42229e-06
1.42065e-06
1.17333e-06
1.17352e-06
1.17332e-06
1.1735e-06
1.17353e-06
1.17337e-06
1.17352e-06
1.42237e-06
1.42074e-06
1.17337e-06
1.17347e-06
1.17335e-06
1.42075e-06
1.4225e-06
1.42043e-06
1.17352e-06
1.17341e-06
1.17347e-06
1.17336e-06
1.42248e-06
1.42041e-06
1.17335e-06
1.17353e-06
1.17329e-06
1.17348e-06
1.17355e-06
1.17335e-06
1.1735e-06
1.42256e-06
1.4205e-06
1.17338e-06
1.17345e-06
1.17333e-06
1.42055e-06
1.4223e-06
1.42065e-06
1.17352e-06
1.17341e-06
1.17347e-06
1.17336e-06
1.42229e-06
1.42063e-06
1.17334e-06
1.17353e-06
1.1733e-06
1.17348e-06
1.17355e-06
1.17335e-06
1.1735e-06
1.42237e-06
1.42071e-06
1.17338e-06
1.17345e-06
1.17333e-06
1.4207e-06
1.42246e-06
1.42047e-06
1.17353e-06
1.17342e-06
1.17345e-06
1.17334e-06
1.42243e-06
1.42046e-06
1.17336e-06
1.17354e-06
1.17328e-06
1.17346e-06
1.17356e-06
1.17333e-06
1.17348e-06
1.42251e-06
1.42055e-06
1.17339e-06
1.17343e-06
1.17331e-06
1.42062e-06
1.42235e-06
1.42059e-06
1.17354e-06
1.17344e-06
1.17344e-06
1.17333e-06
1.42234e-06
1.42056e-06
1.17337e-06
1.17355e-06
1.17326e-06
1.17345e-06
1.17357e-06
1.17332e-06
1.17346e-06
1.42243e-06
1.42064e-06
1.17341e-06
1.17342e-06
1.17329e-06
1.42062e-06
1.42239e-06
1.42058e-06
1.17357e-06
1.17346e-06
1.17342e-06
1.17331e-06
1.42236e-06
1.42055e-06
1.17339e-06
1.17358e-06
1.17324e-06
1.17343e-06
1.17359e-06
1.1733e-06
1.17345e-06
1.42243e-06
1.42065e-06
1.17342e-06
1.1734e-06
1.17328e-06
1.42069e-06
1.42245e-06
1.42028e-06
1.1736e-06
1.17349e-06
1.17303e-06
1.17292e-06
1.42243e-06
1.42025e-06
1.17343e-06
1.17361e-06
1.17285e-06
1.17303e-06
1.17363e-06
1.17291e-06
1.17305e-06
1.42252e-06
1.42034e-06
1.17346e-06
1.173e-06
1.17288e-06
1.42036e-06
1.42201e-06
1.40154e-06
1.17331e-06
1.17321e-06
1.15249e-06
1.15234e-06
1.42199e-06
1.40152e-06
1.17313e-06
1.17331e-06
1.15237e-06
1.1524e-06
1.17333e-06
1.15245e-06
1.15244e-06
1.42207e-06
1.40157e-06
1.17316e-06
1.1525e-06
1.15233e-06
1.40155e-06
1.38025e-06
1.11635e-06
1.1162e-06
1.38022e-06
1.11626e-06
1.11626e-06
6.38445e-07
6.38491e-07
6.38442e-07
1.11629e-06
1.38027e-06
1.11622e-06
1.14994e-08
2.85047e-09
7.15923e-09
7.15869e-09
1.57404e-09
4.15958e-09
3.2615e-09
3.70058e-09
1.51069e-09
4.33348e-09
3.81505e-09
9.69966e-09
5.07857e-09
7.6094e-09
6.97377e-09
7.38423e-09
1.64316e-07
5.88921e-09
2.60238e-07
1.76249e-06
3.27803e-06
7.48446e-09
1.65182e-07
6.11426e-09
2.61549e-07
4.19824e-09
4.35896e-09
4.40499e-09
4.3433e-09
4.16236e-09
4.3449e-09
4.39193e-09
1.56235e-09
7.69589e-08
2.16092e-09
3.5818e-09
1.58287e-09
5.58239e-08
2.13713e-09
1.63858e-06
3.20288e-06
1.53519e-09
2.46035e-09
8.33092e-08
4.46008e-09
1.53388e-09
2.42646e-09
6.15555e-08
2.19655e-07
2.1705e-07
4.70726e-09
1.86892e-07
1.85588e-07
1.63187e-08
4.64121e-07
1.26846e-08
6.76389e-07
7.31248e-06
1.06583e-05
1.57269e-08
4.64813e-07
1.30549e-08
6.78416e-07
4.1588e-09
4.33909e-09
4.3851e-09
4.31978e-09