/*--------------------------------*- C++ -*----------------------------------*\
| =========                 |                                                 |
| \\      /  F ield         | OpenFOAM: The Open Source CFD Toolbox           |
|  \\    /   O peration     | Version:  v2012                                 |
|   \\  /    A nd           | Website:  www.openfoam.com                      |
|    \\/     M anipulation  |                                                 |
\*---------------------------------------------------------------------------*/
FoamFile
{
    version     2.0;
    format      ascii;
    class       volScalarField;
    location    "287.5";
    object      k;
}
// * * * * * * * * * * * * * * * * * * * * * * * * * * * * * * * * * * * * * //

dimensions      [0 2 -2 0 0 0 0];


internalField   nonuniform List<scalar> 
171728
(
6.29637e-07
2.9833e-07
3.37963e-07
3.50814e-07
6.22586e-07
2.85315e-07
3.21833e-07
3.3374e-07
6.273e-07
2.73839e-07
3.07216e-07
3.18831e-07
6.32314e-07
2.6389e-07
2.93828e-07
3.05555e-07
6.37821e-07
2.54416e-07
2.82027e-07
2.93484e-07
6.4402e-07
2.46882e-07
2.71346e-07
2.83134e-07
6.50714e-07
2.40742e-07
2.61007e-07
2.742e-07
6.57898e-07
2.34557e-07
2.52406e-07
2.66164e-07
6.65438e-07
2.29605e-07
2.45507e-07
2.59336e-07
6.73583e-07
2.28148e-07
2.39984e-07
2.53781e-07
6.82126e-07
2.23619e-07
2.3567e-07
2.49136e-07
6.91301e-07
2.20682e-07
2.3275e-07
2.4337e-07
7.01048e-07
2.18372e-07
2.31747e-07
2.38073e-07
7.11143e-07
2.13553e-07
2.32532e-07
2.32709e-07
7.214e-07
2.09142e-07
2.35531e-07
2.2607e-07
7.32133e-07
2.09913e-07
2.41973e-07
2.23032e-07
7.42845e-07
2.19317e-07
2.52765e-07
2.27046e-07
7.53846e-07
2.3376e-07
2.71054e-07
2.39093e-07
7.64718e-07
2.78705e-07
3.02277e-07
2.73447e-07
7.77238e-07
3.07545e-07
3.50687e-07
3.64464e-07
7.88234e-07
3.96043e-07
4.33696e-07
4.19584e-07
8.00993e-07
5.2819e-07
5.59168e-07
7.63549e-07
8.16128e-07
6.72887e-07
6.85339e-07
1.21614e-06
8.3138e-07
9.33165e-07
9.79554e-07
1.51901e-06
8.45299e-07
1.22813e-06
1.19013e-06
2.84388e-06
8.72958e-07
1.67468e-06
1.79966e-06
4.1762e-06
8.87825e-07
2.21303e-06
2.01528e-06
5.52177e-06
9.27409e-07
2.84909e-06
2.98621e-06
7.8195e-06
9.56724e-07
3.57189e-06
3.7019e-06
1.01969e-05
9.98826e-07
4.62226e-06
4.29051e-06
1.25078e-05
1.08265e-06
5.30132e-06
5.5804e-06
1.544e-05
1.13268e-06
7.02564e-06
6.74019e-06
1.77323e-05
1.24407e-06
7.10303e-06
7.65088e-06
1.95645e-05
1.35073e-06
1.0483e-05
9.14428e-06
2.1961e-05
1.55451e-06
1.14608e-05
1.0855e-05
2.38649e-05
1.66699e-06
1.15969e-05
1.21816e-05
2.51602e-05
2.0146e-06
1.41037e-05
1.41547e-05
2.71314e-05
2.12462e-06
1.58558e-05
1.51709e-05
2.80111e-05
2.79637e-06
1.72427e-05
1.76175e-05
2.99225e-05
2.9088e-06
1.94318e-05
1.92998e-05
3.0364e-05
3.7797e-06
2.15629e-05
2.17049e-05
3.28488e-05
4.26141e-06
2.19286e-05
2.19956e-05
3.2919e-05
4.49212e-06
2.5502e-05
2.54742e-05
3.43969e-05
5.81455e-06
2.65086e-05
2.67475e-05
3.58476e-05
6.48681e-06
2.83989e-05
2.82698e-05
3.64914e-05
7.35597e-06
2.97682e-05
2.9734e-05
3.78187e-05
8.44015e-06
3.16612e-05
3.13294e-05
3.88061e-05
9.76813e-06
3.26031e-05
3.29969e-05
3.97231e-05
1.08559e-05
3.49235e-05
3.47705e-05
4.09858e-05
1.23915e-05
3.61961e-05
3.58949e-05
4.17614e-05
1.37589e-05
3.63234e-05
3.72553e-05
4.26877e-05
1.51586e-05
3.9154e-05
3.84114e-05
4.39812e-05
1.66851e-05
3.96603e-05
4.01297e-05
4.43799e-05
1.81851e-05
4.04059e-05
4.03693e-05
4.52356e-05
1.96972e-05
4.17313e-05
4.16577e-05
4.62812e-05
2.10189e-05
4.29269e-05
4.32082e-05
4.66617e-05
2.3112e-05
4.36853e-05
4.37675e-05
4.77144e-05
2.39323e-05
4.48573e-05
4.44547e-05
4.84017e-05
2.59338e-05
4.5508e-05
4.53029e-05
4.88216e-05
2.63967e-05
4.56752e-05
4.58852e-05
4.89729e-05
2.88502e-05
4.82051e-05
4.83082e-05
5.1372e-05
3.04748e-05
4.83599e-05
4.84171e-05
5.10981e-05
2.97315e-05
4.60617e-05
4.60773e-05
4.86435e-05
2.84414e-05
4.53195e-05
4.53178e-05
4.80264e-05
3.08271e-05
4.88612e-05
4.88426e-05
5.16268e-05
3.64658e-05
5.27535e-05
5.27465e-05
5.52596e-05
3.96386e-05
5.48124e-05
5.48183e-05
5.70365e-05
4.06011e-05
5.51502e-05
5.51609e-05
5.69869e-05
3.7531e-05
5.08464e-05
5.08529e-05
5.26896e-05
3.18572e-05
4.60159e-05
4.6019e-05
4.81314e-05
2.85509e-05
4.42129e-05
4.42158e-05
4.65837e-05
2.86368e-05
4.566e-05
4.56626e-05
4.83234e-05
3.38359e-05
4.85466e-05
4.85488e-05
5.08649e-05
3.75889e-05
5.05654e-05
5.0568e-05
5.27089e-05
3.95702e-05
5.16118e-05
5.16152e-05
5.36952e-05
4.04378e-05
5.20582e-05
5.20616e-05
5.4143e-05
4.08006e-05
5.22352e-05
5.22384e-05
5.43204e-05
4.09232e-05
5.22819e-05
5.22851e-05
5.43747e-05
4.09369e-05
5.22797e-05
5.22829e-05
5.43834e-05
4.09423e-05
5.22797e-05
5.22828e-05
5.43734e-05
4.09503e-05
5.22894e-05
5.22926e-05
5.43981e-05
4.09451e-05
5.228e-05
5.22833e-05
5.43774e-05
4.09473e-05
5.2286e-05
5.22891e-05
5.43884e-05
4.09464e-05
5.22833e-05
5.22865e-05
5.43889e-05
4.09459e-05
5.22829e-05
5.22862e-05
5.43782e-05
4.09463e-05
5.22843e-05
5.22875e-05
5.43933e-05
4.09459e-05
5.22831e-05
5.22864e-05
5.4377e-05
4.0946e-05
5.22844e-05
5.22875e-05
5.43934e-05
4.09458e-05
5.22832e-05
5.22865e-05
5.43769e-05
4.09459e-05
5.22845e-05
5.22876e-05
5.43929e-05
4.0946e-05
5.22843e-05
5.22875e-05
5.43787e-05
4.09463e-05
5.22854e-05
5.22886e-05
5.43885e-05
4.09464e-05
5.22868e-05
5.229e-05
5.43855e-05
4.09357e-05
5.227e-05
5.2273e-05
5.4376e-05
4.05091e-05
5.11338e-05
5.11362e-05
5.40508e-05
3.59955e-07
3.44283e-07
2.95816e-07
3.53108e-07
3.50247e-07
3.50782e-07
6.42936e-07
6.2636e-07
6.39844e-07
6.46132e-07
3.245e-07
3.47471e-07
3.59853e-07
3.38414e-07
3.45992e-07
3.53406e-07
3.58814e-07
3.42212e-07
3.47882e-07
3.30886e-07
3.3472e-07
2.70077e-07
3.51801e-07
3.32113e-07
3.52197e-07
3.53764e-07
3.39533e-07
3.40853e-07
3.52085e-07
2.88469e-07
3.38751e-07
3.5875e-07
3.42209e-07
3.65041e-07
3.2576e-07
3.56708e-07
3.36403e-07
3.40221e-07
3.25314e-07
3.30595e-07
2.5926e-07
3.19009e-07
2.42752e-07
3.30723e-07
3.12575e-07
3.35496e-07
3.3664e-07
3.24088e-07
3.24456e-07
3.3446e-07
2.76495e-07
3.2248e-07
3.40877e-07
3.25495e-07
3.54377e-07
3.10708e-07
3.47727e-07
3.21302e-07
3.22926e-07
3.10197e-07
3.15254e-07
2.40191e-07
3.04995e-07
2.3605e-07
3.11304e-07
2.95117e-07
3.20503e-07
3.20582e-07
3.10302e-07
3.09575e-07
3.18738e-07
2.66322e-07
3.08255e-07
3.23712e-07
3.10239e-07
3.45627e-07
2.97078e-07
3.39278e-07
3.07972e-07
3.07862e-07
2.96694e-07
3.01797e-07
2.35177e-07
2.92803e-07
2.3269e-07
2.94031e-07
2.79911e-07
3.0694e-07
3.06001e-07
2.97615e-07
2.96137e-07
3.04842e-07
2.56761e-07
2.95067e-07
3.08074e-07
2.96244e-07
3.36985e-07
2.8486e-07
3.30392e-07
2.95676e-07
2.94501e-07
2.84225e-07
2.89868e-07
2.31836e-07
2.81819e-07
2.29039e-07
2.79007e-07
2.67127e-07
2.94632e-07
2.9302e-07
2.86471e-07
2.84661e-07
2.91928e-07
2.48452e-07
2.83475e-07
2.94112e-07
2.83597e-07
3.28504e-07
2.7397e-07
3.2432e-07
2.84956e-07
2.82176e-07
2.72635e-07
2.7914e-07
2.28153e-07
2.71669e-07
2.2602e-07
2.66333e-07
2.55913e-07
2.83795e-07
2.81956e-07
2.7616e-07
2.74401e-07
2.80762e-07
2.42229e-07
2.73e-07
2.81604e-07
2.71983e-07
3.23258e-07
2.63437e-07
3.20352e-07
2.75825e-07
2.70765e-07
2.62181e-07
2.694e-07
2.25384e-07
2.63239e-07
2.24691e-07
2.55176e-07
2.46098e-07
2.73764e-07
2.72053e-07
2.66986e-07
2.6548e-07
2.70639e-07
2.36199e-07
2.64041e-07
2.70097e-07
2.61349e-07
3.19512e-07
2.54301e-07
3.16815e-07
2.67719e-07
2.60554e-07
2.53043e-07
2.61342e-07
2.24734e-07
2.55881e-07
2.25574e-07
2.4545e-07
2.37748e-07
2.6478e-07
2.63435e-07
2.58843e-07
2.57794e-07
2.61902e-07
2.30327e-07
2.56112e-07
2.59687e-07
2.51714e-07
3.16021e-07
2.47128e-07
3.15044e-07
2.60705e-07
2.51595e-07
2.44484e-07
2.54081e-07
2.26026e-07
2.49188e-07
2.27495e-07
2.37212e-07
2.30958e-07
2.57011e-07
2.56013e-07
2.51844e-07
2.50756e-07
2.54363e-07
2.28695e-07
2.49844e-07
2.50584e-07
2.42696e-07
3.14969e-07
2.41278e-07
3.15402e-07
2.54872e-07
2.43681e-07
2.36423e-07
2.47544e-07
2.2788e-07
2.43275e-07
2.28683e-07
2.30523e-07
2.24978e-07
2.50288e-07
2.49081e-07
2.45954e-07
2.44547e-07
2.4851e-07
2.24789e-07
2.44758e-07
2.42e-07
2.34303e-07
3.15963e-07
2.36635e-07
3.16959e-07
2.49802e-07
2.35836e-07
2.29194e-07
2.41909e-07
2.28817e-07
2.38657e-07
2.28864e-07
2.24605e-07
2.19156e-07
2.44596e-07
2.43119e-07
2.41282e-07
2.3953e-07
2.43556e-07
2.21043e-07
2.4028e-07
2.33702e-07
2.26902e-07
3.16902e-07
2.33297e-07
3.14542e-07
2.43905e-07
2.28762e-07
2.23199e-07
2.37735e-07
2.28941e-07
2.35699e-07
2.29559e-07
2.18855e-07
2.14627e-07
2.40293e-07
2.38585e-07
2.38168e-07
2.36341e-07
2.39178e-07
2.19269e-07
2.37063e-07
2.26482e-07
2.21091e-07
3.14085e-07
2.31802e-07
3.12879e-07
2.38407e-07
2.22976e-07
2.18611e-07
2.35181e-07
2.29891e-07
2.34431e-07
2.31424e-07
2.1454e-07
2.10884e-07
2.37517e-07
2.35791e-07
2.36539e-07
2.35073e-07
2.36596e-07
2.14944e-07
2.35917e-07
2.20892e-07
2.16829e-07
3.11854e-07
2.32154e-07
3.04689e-07
2.33017e-07
2.18685e-07
2.16356e-07
2.34476e-07
2.32227e-07
2.35473e-07
2.34651e-07
2.1097e-07
2.07105e-07
2.36557e-07
2.35145e-07
2.37312e-07
2.363e-07
2.35974e-07
2.10097e-07
2.36909e-07
2.16917e-07
2.14642e-07
3.00796e-07
2.34585e-07
2.88034e-07
2.26094e-07
2.16953e-07
2.17449e-07
2.36286e-07
2.36099e-07
2.40322e-07
2.40538e-07
2.07353e-07
2.0575e-07
2.38025e-07
2.37043e-07
2.41329e-07
2.40652e-07
2.37351e-07
2.09505e-07
2.40832e-07
2.1525e-07
2.15631e-07
2.83615e-07
2.39793e-07
2.72458e-07
2.22443e-07
2.18855e-07
2.23367e-07
2.4216e-07
2.42134e-07
2.49809e-07
2.51943e-07
2.06613e-07
2.12596e-07
2.42945e-07
2.42562e-07
2.50056e-07
2.49302e-07
2.41942e-07
2.1662e-07
2.49862e-07
2.17206e-07
2.21217e-07
2.67834e-07
2.49164e-07
2.58619e-07
2.24181e-07
2.26479e-07
2.37326e-07
2.53371e-07
2.55228e-07
2.65458e-07
2.68941e-07
2.16132e-07
2.23796e-07
2.53471e-07
2.53044e-07
2.64819e-07
2.65554e-07
2.53289e-07
2.3038e-07
2.64241e-07
2.243e-07
2.37177e-07
2.55781e-07
2.66634e-07
2.5202e-07
2.33825e-07
2.43427e-07
2.69072e-07
2.71494e-07
2.72402e-07
2.93001e-07
3.01942e-07
2.31185e-07
2.68638e-07
2.71074e-07
2.69988e-07
2.91552e-07
2.95017e-07
2.70745e-07
2.65652e-07
2.92551e-07
2.41974e-07
2.72293e-07
2.52789e-07
2.95527e-07
2.66199e-07
2.64858e-07
2.78796e-07
3.35425e-07
3.00361e-07
3.14572e-07
3.3965e-07
3.30349e-07
2.88876e-07
3.06482e-07
2.98737e-07
3.01068e-07
3.37842e-07
3.39604e-07
2.97933e-07
2.9502e-07
3.43693e-07
2.83638e-07
3.33806e-07
2.69666e-07
3.40299e-07
3.1132e-07
3.31102e-07
3.59173e-07
4.4529e-07
3.53334e-07
3.4205e-07
4.0585e-07
4.22151e-07
3.1659e-07
4.86042e-07
3.51304e-07
3.49279e-07
4.02827e-07
4.17287e-07
3.63666e-07
3.88573e-07
3.86557e-07
3.61926e-07
4.44557e-07
3.31024e-07
4.14338e-07
3.54096e-07
4.01951e-07
4.80807e-07
6.73566e-07
4.26995e-07
4.29125e-07
5.12383e-07
5.1624e-07
4.99059e-07
6.13105e-07
4.22037e-07
4.38178e-07
5.10351e-07
4.98692e-07
4.11929e-07
4.68673e-07
5.26816e-07
5.02475e-07
6.09741e-07
3.72933e-07
5.06116e-07
4.85906e-07
7.36293e-07
7.4425e-07
1.00879e-06
5.40436e-07
5.74602e-07
6.71513e-07
6.69699e-07
7.57722e-07
1.0434e-06
5.34554e-07
5.62259e-07
6.71681e-07
6.52763e-07
5.35982e-07
6.46753e-07
6.92456e-07
6.98056e-07
1.03616e-06
4.99449e-07
6.50058e-07
6.56372e-07
1.03472e-06
1.16936e-06
1.57517e-06
7.31716e-07
6.84985e-07
8.59623e-07
9.02039e-07
1.0675e-06
1.54498e-06
7.30268e-07
6.7409e-07
8.52205e-07
9.20068e-07
7.44159e-07
8.09139e-07
8.18064e-07
1.05962e-06
1.73583e-06
7.03647e-07
8.97706e-07
7.8521e-07
1.39078e-06
1.69067e-06
2.53029e-06
9.32406e-07
1.01002e-06
1.22469e-06
1.22381e-06
1.79955e-06
2.63661e-06
9.32806e-07
9.96613e-07
1.1986e-06
1.1121e-06
9.31866e-07
1.20971e-06
1.21699e-06
1.94017e-06
2.39216e-06
9.03106e-07
1.12612e-06
1.15796e-06
2.7759e-06
2.74318e-06
3.55098e-06
1.26323e-06
1.24514e-06
1.59218e-06
1.59944e-06
2.67238e-06
3.50698e-06
1.23798e-06
1.18559e-06
1.58543e-06
1.69587e-06
1.24247e-06
1.5254e-06
1.57914e-06
2.51569e-06
4.09717e-06
1.19214e-06
1.69408e-06
1.54977e-06
3.60319e-06
4.00553e-06
5.51003e-06
1.81444e-06
1.86865e-06
2.04833e-06
2.10373e-06
4.33159e-06
5.5368e-06
1.79568e-06
1.79733e-06
2.03688e-06
1.91528e-06
1.67483e-06
2.08666e-06
2.05814e-06
4.54359e-06
4.9087e-06
1.65159e-06
1.908e-06
2.01517e-06
5.14924e-06
5.56022e-06
8.38857e-06
2.09573e-06
2.13624e-06
2.91406e-06
2.90631e-06
5.56817e-06
7.73447e-06
2.08002e-06
2.05326e-06
2.91306e-06
2.85764e-06
2.21375e-06
2.55506e-06
2.66629e-06
5.01471e-06
8.18756e-06
2.20198e-06
2.87576e-06
2.56925e-06
7.56037e-06
9.01122e-06
9.14551e-06
3.0849e-06
3.09563e-06
3.24606e-06
3.25686e-06
8.4309e-06
9.92707e-06
3.10085e-06
2.93581e-06
3.23885e-06
3.34921e-06
2.8594e-06
3.52315e-06
3.3519e-06
8.74687e-06
9.26882e-06
2.71303e-06
3.31903e-06
3.47818e-06
9.66292e-06
9.17588e-06
1.27717e-05
3.45459e-06
3.32885e-06
4.1239e-06
4.4343e-06
1.01371e-05
1.17043e-05
3.38146e-06
3.7241e-06
4.1165e-06
4.18287e-06
3.50025e-06
4.13571e-06
4.27483e-06
9.68308e-06
1.26155e-05
3.63422e-06
4.19338e-06
4.09204e-06
1.20351e-05
1.34318e-05
1.4966e-05
4.36681e-06
4.84799e-06
5.54405e-06
5.32677e-06
1.28052e-05
1.51284e-05
4.3851e-06
4.33212e-06
5.53558e-06
5.333e-06
4.55206e-06
5.15641e-06
5.1556e-06
1.27997e-05
1.48097e-05
4.48842e-06
5.38581e-06
5.11361e-06
1.51012e-05
1.56621e-05
1.71777e-05
5.79088e-06
5.44682e-06
6.15106e-06
6.81191e-06
1.54099e-05
1.79551e-05
5.78462e-06
5.5459e-06
6.13004e-06
6.29588e-06
5.48164e-06
6.76788e-06
6.32782e-06
1.57109e-05
1.7089e-05
5.36096e-06
6.30164e-06
6.50465e-06
1.70076e-05
1.74595e-05
1.96434e-05
6.54623e-06
7.09621e-06
7.75956e-06
7.17673e-06
1.85696e-05
1.77172e-05
6.48632e-06
6.73276e-06
7.82536e-06
7.64881e-06
6.47313e-06
7.08353e-06
7.62465e-06
1.75373e-05
1.96861e-05
6.68315e-06
7.5526e-06
7.34186e-06
1.91771e-05
2.00554e-05
2.10277e-05
7.86595e-06
7.1889e-06
8.49141e-06
9.47441e-06
1.76738e-05
2.31724e-05
7.9596e-06
7.74085e-06
8.44927e-06
8.5879e-06
8.09788e-06
9.45621e-06
8.71042e-06
1.99374e-05
2.09159e-05
7.92272e-06
8.67765e-06
8.8388e-06
2.16115e-05
2.15692e-05
2.37394e-05
9.2868e-06
1.06123e-05
1.08073e-05
1.16187e-05
2.43477e-05
2.45295e-05
9.18894e-06
9.26082e-06
1.0797e-05
1.07105e-05
8.9044e-06
1.14422e-05
1.07208e-05
2.15337e-05
2.36385e-05
8.97297e-06
1.05404e-05
1.05622e-05
2.33395e-05
2.39613e-05
2.47554e-05
1.0923e-05
1.16168e-05
1.13471e-05
1.16041e-05
2.45531e-05
2.44916e-05
1.09167e-05
1.08499e-05
1.15157e-05
1.13891e-05
1.11369e-05
1.14967e-05
1.1564e-05
2.39367e-05
2.48092e-05
1.10436e-05
1.16363e-05
1.15583e-05
2.48585e-05
2.53023e-05
2.67404e-05
1.20533e-05
1.17198e-05
1.40744e-05
1.35857e-05
2.47792e-05
2.66073e-05
1.23329e-05
1.20853e-05
1.38464e-05
1.41162e-05
1.18646e-05
1.37217e-05
1.39806e-05
2.52684e-05
2.67517e-05
1.18809e-05
1.39143e-05
1.38674e-05
2.67978e-05
2.69105e-05
2.7894e-05
1.42759e-05
1.38522e-05
1.46886e-05
1.5308e-05
2.70613e-05
2.82211e-05
1.39469e-05
1.44135e-05
1.45355e-05
1.46979e-05
1.43345e-05
1.52081e-05
1.47123e-05
2.70308e-05
2.75815e-05
1.42473e-05
1.45745e-05
1.47442e-05
2.76543e-05
2.84922e-05
2.95107e-05
1.5301e-05
1.60167e-05
1.76192e-05
1.72521e-05
2.85025e-05
2.90609e-05
1.54996e-05
1.49375e-05
1.77611e-05
1.74872e-05
1.50347e-05
1.71132e-05
1.75088e-05
2.79044e-05
2.95791e-05
1.52016e-05
1.73854e-05
1.7516e-05
2.96875e-05
2.96112e-05
3.02339e-05
1.79259e-05
1.73695e-05
1.82767e-05
1.84347e-05
2.93079e-05
3.08449e-05
1.80008e-05
1.7955e-05
1.82591e-05
1.85102e-05
1.80662e-05
1.85425e-05
1.85598e-05
2.98677e-05
3.06175e-05
1.80483e-05
1.85591e-05
1.85158e-05
3.0112e-05
3.07426e-05
3.24008e-05
1.85593e-05
1.93725e-05
2.12852e-05
2.14007e-05
3.128e-05
3.19824e-05
1.84747e-05
1.90405e-05
2.12007e-05
2.13531e-05
1.86834e-05
2.13321e-05
2.09448e-05
3.10086e-05
3.21131e-05
1.86327e-05
2.13939e-05
2.08923e-05
3.25038e-05
3.25869e-05
3.26327e-05
2.19396e-05
2.16541e-05
2.26122e-05
2.18625e-05
3.2093e-05
3.24326e-05
2.19204e-05
2.17495e-05
2.26805e-05
2.20382e-05
2.18568e-05
2.17679e-05
2.29736e-05
3.22601e-05
3.23742e-05
2.18297e-05
2.19101e-05
2.29986e-05
3.28639e-05
3.27874e-05
3.40797e-05
2.26546e-05
2.19948e-05
2.354e-05
2.46007e-05
3.27442e-05
3.46935e-05
2.2726e-05
2.2125e-05
2.35032e-05
2.44413e-05
2.30313e-05
2.46652e-05
2.34615e-05
3.26302e-05
3.47044e-05
2.30583e-05
2.44769e-05
2.34705e-05
3.38913e-05
3.46188e-05
3.56058e-05
2.47318e-05
2.54879e-05
2.64157e-05
2.65401e-05
3.5042e-05
3.5355e-05
2.4662e-05
2.54385e-05
2.65577e-05
2.66859e-05
2.42834e-05
2.6454e-05
2.66072e-05
3.51083e-05
3.54298e-05
2.42694e-05
2.66848e-05
2.65709e-05
3.57048e-05
3.57149e-05
3.62948e-05
2.66199e-05
2.65963e-05
2.78253e-05
2.74328e-05
3.54428e-05
3.63974e-05
2.66807e-05
2.6752e-05
2.76611e-05
2.7313e-05
2.68614e-05
2.74606e-05
2.76614e-05
3.55046e-05
3.63568e-05
2.68935e-05
2.73736e-05
2.76352e-05
3.62369e-05
3.66294e-05
3.74336e-05
2.82532e-05
2.8293e-05
2.93655e-05
2.96225e-05
3.68435e-05
3.75593e-05
2.82031e-05
2.82271e-05
2.9422e-05
2.97127e-05
2.81431e-05
2.96867e-05
2.95345e-05
3.68051e-05
3.76221e-05
2.79909e-05
2.96344e-05
2.95279e-05
3.7569e-05
3.76223e-05
3.85411e-05
2.97863e-05
2.97978e-05
3.10843e-05
3.08372e-05
3.76471e-05
3.84016e-05
2.9775e-05
2.98437e-05
3.10031e-05
3.08834e-05
2.98552e-05
3.0945e-05
3.11206e-05
3.7697e-05
3.82755e-05
3.00371e-05
3.07566e-05
3.11634e-05
3.85745e-05
3.8806e-05
3.96215e-05
3.14719e-05
3.1392e-05
3.26853e-05
3.2787e-05
3.8792e-05
3.95863e-05
3.14303e-05
3.12958e-05
3.27359e-05
3.25503e-05
3.16608e-05
3.2481e-05
3.2712e-05
3.86234e-05
3.96246e-05
3.14585e-05
3.26572e-05
3.24535e-05
3.95359e-05
3.98486e-05
4.05721e-05
3.30793e-05
3.30271e-05
3.40452e-05
3.4033e-05
3.97111e-05
4.06864e-05
3.31403e-05
3.30202e-05
3.40629e-05
3.42534e-05
3.28903e-05
3.42009e-05
3.40213e-05
3.98259e-05
4.07564e-05
3.28759e-05
3.43131e-05
3.43717e-05
4.0685e-05
4.07629e-05
4.17261e-05
3.44005e-05
3.46144e-05
3.57108e-05
3.60494e-05
4.10694e-05
4.19337e-05
3.43787e-05
3.46041e-05
3.5653e-05
3.57541e-05
3.46058e-05
3.61253e-05
3.58e-05
4.10148e-05
4.17354e-05
3.48189e-05
3.56433e-05
3.55017e-05
4.16566e-05
4.1987e-05
4.25656e-05
3.6107e-05
3.6223e-05
3.68561e-05
3.63743e-05
4.19929e-05
4.1898e-05
3.60836e-05
3.61434e-05
3.69236e-05
3.69497e-05
3.5957e-05
3.62111e-05
3.65989e-05
4.19064e-05
4.25635e-05
3.56637e-05
3.69442e-05
3.67407e-05
4.23819e-05
4.27015e-05
4.34894e-05
3.70973e-05
3.65485e-05
3.81883e-05
3.8524e-05
4.20837e-05
4.3984e-05
3.71529e-05
3.71467e-05
3.81314e-05
3.79849e-05
3.70274e-05
3.86065e-05
3.852e-05
4.27433e-05
4.33849e-05
3.72444e-05
3.80216e-05
3.84485e-05
4.38148e-05
4.37199e-05
4.43732e-05
3.85537e-05
3.89136e-05
3.93862e-05
3.9354e-05
4.42461e-05
4.44036e-05
3.84685e-05
3.83762e-05
3.93579e-05
3.97275e-05
3.88748e-05
3.96419e-05
3.94004e-05
4.36162e-05
4.47168e-05
3.86878e-05
3.98231e-05
3.93567e-05
4.42745e-05
4.4536e-05
4.52088e-05
3.96318e-05
3.95586e-05
4.04859e-05
4.04189e-05
4.44482e-05
4.50154e-05
3.966e-05
4.00772e-05
4.05903e-05
4.04593e-05
3.95031e-05
4.00719e-05
4.01954e-05
4.49002e-05
4.4963e-05
3.95856e-05
4.03635e-05
4.02668e-05
4.49926e-05
4.53933e-05
4.58692e-05
4.08084e-05
4.06807e-05
4.14927e-05
4.14694e-05
4.52271e-05
4.585e-05
4.08759e-05
4.04856e-05
4.13983e-05
4.1011e-05
4.06319e-05
4.14244e-05
4.17833e-05
4.4981e-05
4.55439e-05
4.05916e-05
4.10624e-05
4.16946e-05
4.61661e-05
4.59791e-05
4.67653e-05
4.16269e-05
4.17318e-05
4.25458e-05
4.25812e-05
4.60367e-05
4.68013e-05
4.15165e-05
4.13939e-05
4.25122e-05
4.27354e-05
4.19219e-05
4.26101e-05
4.22581e-05
4.58863e-05
4.70615e-05
4.19057e-05
4.28933e-05
4.23929e-05
4.64885e-05
4.70523e-05
4.76432e-05
4.29952e-05
4.28973e-05
4.37751e-05
4.35064e-05
4.69841e-05
4.74103e-05
4.30041e-05
4.31919e-05
4.38793e-05
4.39898e-05
4.26531e-05
4.35669e-05
4.3708e-05
4.72716e-05
4.76536e-05
4.27279e-05
4.37325e-05
4.36491e-05
4.75925e-05
4.76833e-05
4.79724e-05
4.38251e-05
4.36159e-05
4.42201e-05
4.44139e-05
4.75023e-05
4.81987e-05
4.39351e-05
4.4045e-05
4.4185e-05
4.41875e-05
4.384e-05
4.44766e-05
4.44686e-05
4.76978e-05
4.78714e-05
4.37813e-05
4.40496e-05
4.44174e-05
4.81748e-05
4.82563e-05
4.88987e-05
4.46947e-05
4.48021e-05
4.5599e-05
4.54542e-05
4.84493e-05
4.87956e-05
4.4603e-05
4.44775e-05
4.5504e-05
4.5244e-05
4.48352e-05
4.54941e-05
4.55235e-05
4.80851e-05
4.86197e-05
4.47732e-05
4.52552e-05
4.54336e-05
4.88135e-05
4.89128e-05
4.87533e-05
4.56415e-05
4.54696e-05
4.56315e-05
4.54796e-05
4.87984e-05
4.87164e-05
4.55523e-05
4.52857e-05
4.55609e-05
4.54354e-05
4.55444e-05
4.55105e-05
4.55344e-05
4.86414e-05
4.8831e-05
4.54565e-05
4.54763e-05
4.54792e-05
4.87118e-05
4.89571e-05
5.10277e-05
4.57235e-05
4.566e-05
4.76461e-05
4.77961e-05
4.901e-05
5.11859e-05
4.5689e-05
4.58192e-05
4.76814e-05
4.7886e-05
4.56596e-05
4.77804e-05
4.77032e-05
4.92037e-05
5.12543e-05
4.56747e-05
4.79316e-05
4.77844e-05
5.11079e-05
5.1294e-05
5.11557e-05
4.80967e-05
4.82196e-05
4.83925e-05
4.84788e-05
5.14419e-05
5.12367e-05
4.81138e-05
4.82666e-05
4.83976e-05
4.84946e-05
4.81505e-05
4.8466e-05
4.84435e-05
5.14926e-05
5.12621e-05
4.82009e-05
4.85317e-05
4.8466e-05
5.12274e-05
5.10336e-05
4.88255e-05
4.83036e-05
4.83711e-05
4.66394e-05
4.66092e-05
5.10959e-05
4.87704e-05
4.83088e-05
4.83826e-05
4.66434e-05
4.66104e-05
4.8352e-05
4.66038e-05
4.6648e-05
5.11189e-05
4.87809e-05
4.83678e-05
4.66258e-05
4.66399e-05
4.88198e-05
4.86565e-05
4.79301e-05
4.61048e-05
4.60677e-05
4.53506e-05
4.53204e-05
4.85957e-05
4.78867e-05
4.61054e-05
4.60657e-05
4.53416e-05
4.53063e-05
4.61013e-05
4.53115e-05
4.53308e-05
4.86031e-05
4.78753e-05
4.60944e-05
4.53118e-05
4.53299e-05
4.79086e-05
4.80442e-05
5.08244e-05
4.53553e-05
4.53285e-05
4.75657e-05
4.75952e-05
4.80167e-05
5.08555e-05
4.53451e-05
4.53127e-05
4.75425e-05
4.75644e-05
4.5335e-05
4.75918e-05
4.75563e-05
4.79989e-05
5.08332e-05
4.53352e-05
4.75685e-05
4.75675e-05
5.08327e-05
5.16165e-05
5.4756e-05
4.88322e-05
4.88621e-05
5.19538e-05
5.19828e-05
5.16498e-05
5.47934e-05
4.88125e-05
4.88376e-05
5.19406e-05
5.1972e-05
4.88325e-05
5.1987e-05
5.19715e-05
5.16306e-05
5.47859e-05
4.8838e-05
5.1977e-05
5.19665e-05
5.47775e-05
5.52372e-05
5.67857e-05
5.27219e-05
5.27487e-05
5.44123e-05
5.44254e-05
5.52734e-05
5.68038e-05
5.27103e-05
5.2742e-05
5.44055e-05
5.44314e-05
5.27422e-05
5.44327e-05
5.44307e-05
5.52683e-05
5.68119e-05
5.27355e-05
5.44358e-05
5.44222e-05
5.68029e-05
5.70227e-05
5.72379e-05
5.47976e-05
5.48047e-05
5.52358e-05
5.52293e-05
5.70356e-05
5.7223e-05
5.47923e-05
5.48142e-05
5.52337e-05
5.52447e-05
5.48129e-05
5.52381e-05
5.5243e-05
5.70461e-05
5.72405e-05
5.48044e-05
5.52479e-05
5.52349e-05
5.7232e-05
5.69979e-05
5.33637e-05
5.51523e-05
5.51412e-05
5.22351e-05
5.22092e-05
5.69757e-05
5.33413e-05
5.51513e-05
5.51579e-05
5.22375e-05
5.22236e-05
5.51565e-05
5.2216e-05
5.22271e-05
5.69933e-05
5.3351e-05
5.51486e-05
5.22248e-05
5.22209e-05
5.33528e-05
5.26988e-05
4.85232e-05
5.08615e-05
5.08398e-05
4.70174e-05
4.70042e-05
5.26787e-05
4.85122e-05
5.08628e-05
5.08505e-05
4.70164e-05
4.70086e-05
5.08551e-05
4.70081e-05
4.70136e-05
5.26861e-05
4.85154e-05
5.08494e-05
4.70115e-05
4.70089e-05
4.85186e-05
4.81351e-05
4.65779e-05
4.60233e-05
4.60122e-05
4.4355e-05
4.43478e-05
4.81257e-05
4.65747e-05
4.60213e-05
4.60154e-05
4.43506e-05
4.43496e-05
4.602e-05
4.43496e-05
4.43523e-05
4.81279e-05
4.65761e-05
4.60155e-05
4.43525e-05
4.43477e-05
4.6577e-05
4.65846e-05
4.7835e-05
4.42178e-05
4.42113e-05
4.4826e-05
4.48221e-05
4.65816e-05
4.78342e-05
4.42129e-05
4.42131e-05
4.48193e-05
4.48239e-05
4.42152e-05
4.48226e-05
4.48234e-05
4.65829e-05
4.7836e-05
4.42106e-05
4.48255e-05
4.48186e-05
4.78348e-05
4.83238e-05
5.0448e-05
4.56634e-05
4.56598e-05
4.78942e-05
4.789e-05
4.83232e-05
5.04469e-05
4.56572e-05
4.56614e-05
4.78897e-05
4.7892e-05
4.56614e-05
4.78917e-05
4.78933e-05
4.83246e-05
5.04483e-05
4.56566e-05
4.78939e-05
4.78892e-05
5.04489e-05
5.08645e-05
5.2443e-05
4.85493e-05
4.85449e-05
5.01605e-05
5.01553e-05
5.08632e-05
5.24409e-05
4.85451e-05
4.8547e-05
5.01575e-05
5.01583e-05
4.85485e-05
5.01585e-05
5.01593e-05
5.08646e-05
5.24431e-05
4.85447e-05
5.0161e-05
5.01564e-05
5.24422e-05
5.27102e-05
5.35576e-05
5.05673e-05
5.0562e-05
5.1425e-05
5.14195e-05
5.2708e-05
5.35555e-05
5.05645e-05
5.05652e-05
5.14227e-05
5.14234e-05
5.0566e-05
5.14237e-05
5.14239e-05
5.27103e-05
5.35584e-05
5.05634e-05
5.1427e-05
5.14219e-05
5.35566e-05
5.36963e-05
5.4073e-05
5.16129e-05
5.16075e-05
5.1981e-05
5.19759e-05
5.36943e-05
5.40716e-05
5.16106e-05
5.16114e-05
5.19789e-05
5.19798e-05
5.1612e-05
5.19804e-05
5.19804e-05
5.36971e-05
5.40745e-05
5.16101e-05
5.1984e-05
5.19789e-05
5.4073e-05
5.41431e-05
5.42854e-05
5.20586e-05
5.20537e-05
5.22067e-05
5.22019e-05
5.41418e-05
5.42841e-05
5.20566e-05
5.20574e-05
5.22048e-05
5.22054e-05
5.20581e-05
5.22066e-05
5.22063e-05
5.41445e-05
5.42867e-05
5.20567e-05
5.22098e-05
5.2205e-05
5.42853e-05
5.43206e-05
5.43556e-05
5.22354e-05
5.22306e-05
5.22779e-05
5.2273e-05
5.43194e-05
5.43543e-05
5.22335e-05
5.2234e-05
5.22761e-05
5.22765e-05
5.2235e-05
5.22776e-05
5.22774e-05
5.43218e-05
5.43567e-05
5.22337e-05
5.22808e-05
5.22761e-05
5.43555e-05
5.4375e-05
5.43693e-05
5.22823e-05
5.22773e-05
5.2283e-05
5.22779e-05
5.43736e-05
5.43677e-05
5.22804e-05
5.22808e-05
5.22811e-05
5.22815e-05
5.22817e-05
5.22825e-05
5.22823e-05
5.4376e-05
5.43702e-05
5.22804e-05
5.22857e-05
5.2281e-05
5.43688e-05
5.43841e-05
5.43566e-05
5.22802e-05
5.22751e-05
5.22773e-05
5.22724e-05
5.43825e-05
5.43551e-05
5.22783e-05
5.22787e-05
5.22755e-05
5.22759e-05
5.22795e-05
5.2277e-05
5.22768e-05
5.4385e-05
5.43578e-05
5.22781e-05
5.22802e-05
5.22755e-05
5.43563e-05
5.43732e-05
5.43817e-05
5.22798e-05
5.22751e-05
5.22896e-05
5.22847e-05
5.43721e-05
5.43805e-05
5.2278e-05
5.22785e-05
5.22879e-05
5.22883e-05
5.22796e-05
5.22893e-05
5.2289e-05
5.43745e-05
5.43828e-05
5.22783e-05
5.22925e-05
5.22877e-05
5.43816e-05
5.43986e-05
5.43651e-05
5.22897e-05
5.22847e-05
5.22814e-05
5.22763e-05
5.43972e-05
5.43632e-05
5.2288e-05
5.22883e-05
5.22796e-05
5.22799e-05
5.2289e-05
5.22809e-05
5.22807e-05
5.43995e-05
5.4366e-05
5.22877e-05
5.22842e-05
5.22794e-05
5.43641e-05
5.43784e-05
5.43687e-05
5.22804e-05
5.22754e-05
5.22835e-05
5.22788e-05
5.43766e-05
5.4368e-05
5.22786e-05
5.2279e-05
5.22817e-05
5.22822e-05
5.22798e-05
5.22834e-05
5.22833e-05
5.43793e-05
5.43701e-05
5.22785e-05
5.22865e-05
5.2282e-05
5.43697e-05
5.43878e-05
5.43772e-05
5.22861e-05
5.22813e-05
5.22853e-05
5.22803e-05
5.4387e-05
5.43756e-05
5.22843e-05
5.22848e-05
5.22835e-05
5.22838e-05
5.22857e-05
5.22849e-05
5.22843e-05
5.43891e-05
5.43781e-05
5.22844e-05
5.22881e-05
5.2283e-05
5.4376e-05
5.43907e-05
5.43613e-05
5.22837e-05
5.22786e-05
5.22818e-05
5.22769e-05
5.43889e-05
5.436e-05
5.22819e-05
5.22822e-05
5.228e-05
5.22804e-05
5.22827e-05
5.22815e-05
5.22813e-05
5.43914e-05
5.43625e-05
5.22814e-05
5.22848e-05
5.228e-05
5.43612e-05
5.43779e-05
5.43774e-05
5.22832e-05
5.22783e-05
5.22843e-05
5.22794e-05
5.43767e-05
5.43762e-05
5.22814e-05
5.22819e-05
5.22825e-05
5.2283e-05
5.22829e-05
5.22841e-05
5.22838e-05
5.43791e-05
5.43788e-05
5.22816e-05
5.22873e-05
5.22825e-05
5.43778e-05
5.43937e-05
5.43641e-05
5.22845e-05
5.22795e-05
5.22827e-05
5.22778e-05
5.43924e-05
5.43623e-05
5.22827e-05
5.22832e-05
5.22809e-05
5.22814e-05
5.22839e-05
5.22825e-05
5.22821e-05
5.43948e-05
5.4365e-05
5.22826e-05
5.22857e-05
5.22809e-05
5.43625e-05
5.43779e-05
5.43755e-05
5.22833e-05
5.22784e-05
5.22834e-05
5.22785e-05
5.43763e-05
5.43747e-05
5.22815e-05
5.2282e-05
5.22816e-05
5.2282e-05
5.22828e-05
5.22832e-05
5.22829e-05
5.43789e-05
5.4377e-05
5.22816e-05
5.22863e-05
5.22816e-05
5.43766e-05
5.43932e-05
5.43638e-05
5.22845e-05
5.22796e-05
5.22822e-05
5.22772e-05
5.43921e-05
5.43617e-05
5.22827e-05
5.22832e-05
5.22804e-05
5.22808e-05
5.2284e-05
5.22819e-05
5.22817e-05
5.43944e-05
5.43644e-05
5.22827e-05
5.22851e-05
5.22804e-05
5.4362e-05
5.43777e-05
5.4376e-05
5.22835e-05
5.22786e-05
5.22827e-05
5.22779e-05
5.43759e-05
5.43752e-05
5.22817e-05
5.22822e-05
5.2281e-05
5.22814e-05
5.22831e-05
5.22826e-05
5.22824e-05
5.43785e-05
5.43776e-05
5.22819e-05
5.22857e-05
5.2281e-05
5.43773e-05
5.43932e-05
5.43622e-05
5.22846e-05
5.22797e-05
5.22816e-05
5.22767e-05
5.43921e-05
5.43604e-05
5.22828e-05
5.22832e-05
5.22798e-05
5.22803e-05
5.22842e-05
5.22812e-05
5.22811e-05
5.43944e-05
5.4363e-05
5.22827e-05
5.22845e-05
5.22798e-05
5.43615e-05
5.43775e-05
5.43769e-05
5.22846e-05
5.22797e-05
5.22818e-05
5.22769e-05
5.43761e-05
5.43755e-05
5.22828e-05
5.22833e-05
5.228e-05
5.22804e-05
5.22842e-05
5.22816e-05
5.22813e-05
5.43787e-05
5.43779e-05
5.2283e-05
5.22847e-05
5.22799e-05
5.43754e-05
5.43921e-05
5.4364e-05
5.22857e-05
5.22807e-05
5.22813e-05
5.22764e-05
5.43905e-05
5.43625e-05
5.22839e-05
5.22843e-05
5.22795e-05
5.228e-05
5.2285e-05
5.22811e-05
5.22809e-05
5.43926e-05
5.43655e-05
5.22837e-05
5.22843e-05
5.22796e-05
5.43661e-05
5.43827e-05
5.43661e-05
5.2287e-05
5.22821e-05
5.22789e-05
5.22741e-05
5.43811e-05
5.43653e-05
5.22852e-05
5.22857e-05
5.22771e-05
5.22776e-05
5.22867e-05
5.22787e-05
5.22784e-05
5.43844e-05
5.43669e-05
5.22852e-05
5.22818e-05
5.2277e-05
5.43645e-05
5.43772e-05
5.4202e-05
5.22703e-05
5.22654e-05
5.21239e-05
5.21185e-05
5.43763e-05
5.42004e-05
5.22685e-05
5.22687e-05
5.21232e-05
5.21211e-05
5.22696e-05
5.21247e-05
5.21221e-05
5.4378e-05
5.42027e-05
5.22681e-05
5.21272e-05
5.21217e-05
5.42012e-05
5.4052e-05
5.11326e-05
5.11275e-05
5.40508e-05
5.11325e-05
5.11301e-05
4.05073e-05
4.05098e-05
4.05077e-05
5.11308e-05
5.40527e-05
5.1131e-05
1.90697e-06
3.2808e-07
1.18077e-06
1.18031e-06
1.10449e-07
3.18097e-07
2.3768e-07
6.08728e-07
1.09573e-07
3.40421e-07
6.17482e-07
4.12005e-07
3.59973e-07
3.98984e-07
3.65508e-07
3.00044e-07
4.96534e-06
2.58356e-07
6.64761e-06
1.48517e-05
2.20123e-05
3.03095e-07
4.98238e-06
2.64214e-07
6.66955e-06
6.13283e-07
6.2646e-07
6.3315e-07
6.2182e-07
6.04352e-07
6.18499e-07
6.2554e-07
1.14638e-07
5.66027e-07
3.01103e-07
2.94954e-07
1.1274e-07
5.47343e-07
2.97632e-07
1.41474e-05
2.16654e-05
1.04922e-07
3.09922e-07
6.65861e-07
3.33864e-07
1.07599e-07
3.05934e-07
6.38347e-07
1.93065e-06
1.90681e-06
3.44695e-07
1.89313e-06
1.87904e-06
4.88357e-07
9.77025e-06
4.21017e-07
1.25571e-05
3.75449e-05
4.82665e-05
4.8038e-07
9.77963e-06
4.24382e-07
1.25828e-05
6.05456e-07
6.19419e-07
6.26546e-07
6.26218e-07
6.11231e-07
6.22975e-07
6.3031e-07
1.09636e-07
5.34868e-07
2.95567e-07