/*--------------------------------*- C++ -*----------------------------------*\
| =========                 |                                                 |
| \\      /  F ield         | OpenFOAM: The Open Source CFD Toolbox           |
|  \\    /   O peration     | Version:  v2012                                 |
|   \\  /    A nd           | Website:  www.openfoam.com                      |
|    \\/     M anipulation  |                                                 |
\*---------------------------------------------------------------------------*/
FoamFile
{
    version     2.0;
    format      ascii;
    class       volScalarField;
    location    "287.5";
    object      nut;
}
// * * * * * * * * * * * * * * * * * * * * * * * * * * * * * * * * * * * * * //

dimensions      [0 2 -1 0 0 0 0];


internalField   nonuniform List<scalar> 
171728
(
8.18709e-06
2.20018e-06
2.26011e-06
2.27606e-06
8.04298e-06
2.17004e-06
2.23707e-06
2.26403e-06
8.21023e-06
2.15572e-06
2.22418e-06
2.2529e-06
8.39235e-06
2.15022e-06
2.21158e-06
2.24528e-06
8.5777e-06
2.1367e-06
2.20357e-06
2.2336e-06
8.76919e-06
2.13559e-06
2.1933e-06
2.23019e-06
8.95666e-06
2.13853e-06
2.16232e-06
2.24624e-06
9.14639e-06
2.11559e-06
2.12867e-06
2.26084e-06
9.33149e-06
2.08714e-06
2.09131e-06
2.27496e-06
9.52148e-06
2.09914e-06
2.04643e-06
2.28201e-06
9.70548e-06
2.03376e-06
1.99157e-06
2.2686e-06
9.89542e-06
1.96683e-06
1.92871e-06
2.20297e-06
1.00889e-05
1.88094e-06
1.8653e-06
2.11198e-06
1.02785e-05
1.71732e-06
1.79225e-06
1.98173e-06
1.04607e-05
1.52706e-06
1.71039e-06
1.78807e-06
1.06434e-05
1.37356e-06
1.62256e-06
1.59894e-06
1.08111e-05
1.27498e-06
1.53756e-06
1.42804e-06
1.09701e-05
1.19129e-06
1.47209e-06
1.29033e-06
1.11037e-05
1.29586e-06
1.45745e-06
1.28669e-06
1.126e-05
1.20496e-06
1.50319e-06
1.50789e-06
1.13415e-05
1.53542e-06
1.71908e-06
1.40695e-06
1.14317e-05
1.85873e-06
2.04812e-06
2.82845e-06
1.15312e-05
2.3412e-06
2.3385e-06
4.18888e-06
1.15494e-05
3.06312e-06
3.40795e-06
4.36136e-06
1.14513e-05
4.2259e-06
3.7871e-06
9.8982e-06
1.1556e-05
5.51926e-06
6.39536e-06
1.33007e-05
1.11462e-05
7.49797e-06
6.15847e-06
1.67924e-05
1.12842e-05
9.3635e-06
1.04194e-05
2.47615e-05
1.0922e-05
1.22372e-05
1.25182e-05
3.14875e-05
1.05301e-05
1.58104e-05
1.40089e-05
3.75553e-05
1.0853e-05
1.72244e-05
1.91036e-05
4.75122e-05
1.03428e-05
2.55506e-05
2.30017e-05
5.30341e-05
1.07728e-05
2.25212e-05
2.59363e-05
5.78804e-05
1.03322e-05
3.7001e-05
3.07473e-05
6.54412e-05
1.1806e-05
4.16204e-05
3.75354e-05
7.09566e-05
1.10411e-05
3.80896e-05
4.09888e-05
7.41366e-05
1.36799e-05
4.85033e-05
4.94328e-05
8.11354e-05
1.23193e-05
5.42966e-05
5.00358e-05
8.22805e-05
1.75746e-05
5.87266e-05
6.06603e-05
9.01991e-05
1.62411e-05
6.57312e-05
6.49981e-05
8.92392e-05
2.14772e-05
7.52976e-05
7.60094e-05
0.000100133
2.44527e-05
7.2154e-05
7.28143e-05
9.90347e-05
2.20751e-05
8.78806e-05
8.7403e-05
0.00010321
3.15368e-05
9.05705e-05
9.19297e-05
0.000109632
3.37655e-05
9.64034e-05
9.56134e-05
0.000110845
3.73597e-05
0.000101366
0.000101339
0.000115867
4.24313e-05
0.000107935
0.000105934
0.000119294
4.90581e-05
0.000110153
0.000112124
0.000122336
5.35621e-05
0.000119475
0.00011902
0.000127042
6.09826e-05
0.000125585
0.000122773
0.000129905
6.76923e-05
0.000122001
0.000127939
0.00013267
7.35129e-05
0.000136256
0.00013158
0.000138372
8.06816e-05
0.000137884
0.000140255
0.000139404
8.74297e-05
0.000139583
0.000140034
0.000142318
9.49343e-05
0.00014533
0.000144443
0.000147018
9.90337e-05
0.000150836
0.000152607
0.000147782
0.000112143
0.000154043
0.000155219
0.000152586
0.000113085
0.000159677
0.000157392
0.000155573
0.000125861
0.000163631
0.00016214
0.000158001
0.000124734
0.000161911
0.000162919
0.000156656
0.000139456
0.000177557
0.000178177
0.000169322
0.000154115
0.000182243
0.000182672
0.000171471
0.000148783
0.000169253
0.000169417
0.000159957
0.000132863
0.000161623
0.000161675
0.00015354
0.00014096
0.000177311
0.000177206
0.000166841
0.000183478
0.000199667
0.000199605
0.000183927
0.000212307
0.00021343
0.000213443
0.000193874
0.00022804
0.000221557
0.000221612
0.000198929
0.000211659
0.000201478
0.000201514
0.000183225
0.000163812
0.000174139
0.000174148
0.000162368
0.00013356
0.000162662
0.00016267
0.000153329
0.000126687
0.000168771
0.000168777
0.000159386
0.000164574
0.00018572
0.000185722
0.000170771
0.000196303
0.000198296
0.0001983
0.000179404
0.000215058
0.000205097
0.000205106
0.000183992
0.000223887
0.000208074
0.000208083
0.000186042
0.000227761
0.0002093
0.000209307
0.000186851
0.000229161
0.00020965
0.000209658
0.0001871
0.000229383
0.000209648
0.000209656
0.000187141
0.000229437
0.00020963
0.000209637
0.000187056
0.00022953
0.000209707
0.000209715
0.000187211
0.000229486
0.000209646
0.000209655
0.000187106
0.000229501
0.00020968
0.000209687
0.000187142
0.000229498
0.000209669
0.000209676
0.000187172
0.000229492
0.000209662
0.00020967
0.000187091
0.000229497
0.000209672
0.00020968
0.000187185
0.000229493
0.000209664
0.000209672
0.00018709
0.000229494
0.000209672
0.000209679
0.000187184
0.000229492
0.000209664
0.000209671
0.000187087
0.000229492
0.000209671
0.000209678
0.000187189
0.000229492
0.000209667
0.000209675
0.000187089
0.000229493
0.000209672
0.000209679
0.000187169
0.000229495
0.000209676
0.000209684
0.00018713
0.000229462
0.000209594
0.000209601
0.000187125
0.000231308
0.000210799
0.000210808
0.0001905
2.32521e-06
2.49783e-06
2.06566e-06
2.31907e-06
2.57137e-06
2.57649e-06
8.53423e-06
8.36269e-06
8.4491e-06
8.53559e-06
2.20962e-06
2.56315e-06
2.31865e-06
2.4166e-06
2.4835e-06
2.28827e-06
2.32258e-06
2.31145e-06
2.32321e-06
2.52726e-06
2.30349e-06
1.85395e-06
2.3115e-06
2.2746e-06
2.34729e-06
2.36218e-06
2.3385e-06
2.35156e-06
2.35994e-06
2.17481e-06
2.34252e-06
2.31582e-06
2.30484e-06
2.15349e-06
2.24063e-06
2.17631e-06
2.26519e-06
2.30133e-06
2.29885e-06
2.30194e-06
1.74377e-06
2.2979e-06
1.60734e-06
2.26896e-06
2.22472e-06
2.33945e-06
2.35067e-06
2.34262e-06
2.345e-06
2.33981e-06
2.15741e-06
2.3349e-06
2.30341e-06
2.29587e-06
2.19183e-06
2.22679e-06
2.24023e-06
2.25519e-06
2.28082e-06
2.28811e-06
2.29516e-06
1.59746e-06
2.29296e-06
1.60733e-06
2.21961e-06
2.18014e-06
2.34363e-06
2.3427e-06
2.34632e-06
2.33559e-06
2.33379e-06
2.15221e-06
2.33238e-06
2.28625e-06
2.28379e-06
2.25751e-06
2.21486e-06
2.31102e-06
2.24981e-06
2.26847e-06
2.27987e-06
2.29286e-06
1.6155e-06
2.29439e-06
1.64086e-06
2.17643e-06
2.13947e-06
2.34556e-06
2.33199e-06
2.34555e-06
2.32441e-06
2.33096e-06
2.14156e-06
2.32525e-06
2.26648e-06
2.26822e-06
2.32671e-06
2.20576e-06
2.37496e-06
2.24403e-06
2.25993e-06
2.26654e-06
2.29311e-06
1.64863e-06
2.29309e-06
1.66578e-06
2.13648e-06
2.11e-06
2.34475e-06
2.32143e-06
2.34665e-06
2.31909e-06
2.32242e-06
2.1322e-06
2.31911e-06
2.24905e-06
2.25197e-06
2.3936e-06
2.19763e-06
2.46628e-06
2.24587e-06
2.24598e-06
2.24494e-06
2.28933e-06
1.67086e-06
2.27712e-06
1.68758e-06
2.10687e-06
2.08509e-06
2.34463e-06
2.31588e-06
2.33584e-06
2.30566e-06
2.31601e-06
2.13942e-06
2.30288e-06
2.23222e-06
2.23093e-06
2.49487e-06
2.17076e-06
2.58235e-06
2.26131e-06
2.22417e-06
2.2181e-06
2.27245e-06
1.69238e-06
2.25943e-06
1.71721e-06
2.08058e-06
2.05584e-06
2.33144e-06
2.30052e-06
2.31409e-06
2.28363e-06
2.29797e-06
2.12565e-06
2.28062e-06
2.20998e-06
2.20157e-06
2.6124e-06
2.13607e-06
2.69702e-06
2.278e-06
2.19809e-06
2.18748e-06
2.25351e-06
1.7276e-06
2.22913e-06
1.76493e-06
2.04983e-06
2.02119e-06
2.30478e-06
2.27598e-06
2.27603e-06
2.25044e-06
2.27082e-06
2.08733e-06
2.24149e-06
2.18092e-06
2.16297e-06
2.72797e-06
2.10195e-06
2.8496e-06
2.29267e-06
2.16706e-06
2.14215e-06
2.21713e-06
1.77825e-06
2.17804e-06
1.81501e-06
2.01414e-06
1.98987e-06
2.26509e-06
2.2396e-06
2.22346e-06
2.19654e-06
2.2307e-06
2.1012e-06
2.19832e-06
2.148e-06
2.10931e-06
2.89476e-06
2.0594e-06
3.03361e-06
2.29988e-06
2.12904e-06
2.07592e-06
2.16129e-06
1.82421e-06
2.10802e-06
1.83772e-06
1.98187e-06
1.94943e-06
2.20923e-06
2.17976e-06
2.15644e-06
2.12342e-06
2.18692e-06
2.05391e-06
2.14374e-06
2.09824e-06
2.03838e-06
3.08347e-06
2.00669e-06
3.19844e-06
2.28339e-06
2.06316e-06
1.99407e-06
2.08823e-06
1.83816e-06
2.02813e-06
1.82487e-06
1.93968e-06
1.88688e-06
2.13773e-06
2.10348e-06
2.07694e-06
2.03809e-06
2.12689e-06
1.97873e-06
2.06582e-06
2.02564e-06
1.95363e-06
3.22432e-06
1.94461e-06
3.21866e-06
2.22083e-06
1.97885e-06
1.90057e-06
2.00642e-06
1.81744e-06
1.94181e-06
1.79254e-06
1.87333e-06
1.81598e-06
2.05461e-06
2.01633e-06
1.98807e-06
1.94871e-06
2.04099e-06
1.9073e-06
1.97326e-06
1.93884e-06
1.8643e-06
3.21647e-06
1.88137e-06
3.18925e-06
2.13404e-06
1.88171e-06
1.79332e-06
1.91878e-06
1.78171e-06
1.84705e-06
1.74532e-06
1.79949e-06
1.72483e-06
1.96285e-06
1.92468e-06
1.88618e-06
1.85237e-06
1.9502e-06
1.76055e-06
1.87749e-06
1.84639e-06
1.76445e-06
3.16281e-06
1.81136e-06
2.98033e-06
2.01293e-06
1.77003e-06
1.68092e-06
1.82218e-06
1.73277e-06
1.74602e-06
1.68093e-06
1.70229e-06
1.5961e-06
1.86114e-06
1.82818e-06
1.77902e-06
1.75403e-06
1.85269e-06
1.57188e-06
1.77443e-06
1.7426e-06
1.65482e-06
2.88462e-06
1.73171e-06
2.56852e-06
1.827e-06
1.65223e-06
1.56717e-06
1.72043e-06
1.66624e-06
1.65079e-06
1.60712e-06
1.56281e-06
1.45415e-06
1.75296e-06
1.72866e-06
1.67526e-06
1.65246e-06
1.74479e-06
1.40886e-06
1.66372e-06
1.62902e-06
1.5392e-06
2.45639e-06
1.64213e-06
2.1471e-06
1.64368e-06
1.534e-06
1.44972e-06
1.62717e-06
1.58476e-06
1.5629e-06
1.54151e-06
1.41569e-06
1.34037e-06
1.64856e-06
1.63047e-06
1.57211e-06
1.55234e-06
1.62967e-06
1.29193e-06
1.56909e-06
1.50942e-06
1.42535e-06
2.02898e-06
1.55686e-06
1.73721e-06
1.46219e-06
1.41754e-06
1.34857e-06
1.54346e-06
1.52479e-06
1.48034e-06
1.49371e-06
1.32501e-06
1.22525e-06
1.55268e-06
1.53529e-06
1.48092e-06
1.48398e-06
1.55046e-06
1.2233e-06
1.47041e-06
1.39238e-06
1.35184e-06
1.64451e-06
1.49521e-06
1.41563e-06
1.32551e-06
1.32427e-06
1.33073e-06
1.46858e-06
1.45651e-06
1.45356e-06
1.48296e-06
1.21678e-06
1.26723e-06
1.47011e-06
1.45826e-06
1.4486e-06
1.46454e-06
1.46665e-06
1.24578e-06
1.45236e-06
1.32139e-06
1.33824e-06
1.3511e-06
1.4697e-06
1.28048e-06
1.30299e-06
1.31891e-06
1.4294e-06
1.44068e-06
1.527e-06
1.49905e-06
1.42971e-06
1.3447e-06
1.27356e-06
1.43348e-06
1.44552e-06
1.4907e-06
1.49585e-06
1.41982e-06
1.22149e-06
1.52681e-06
1.35008e-06
1.40822e-06
1.2377e-06
1.50635e-06
1.31689e-06
1.37785e-06
1.49088e-06
1.70532e-06
1.51895e-06
1.3999e-06
1.62064e-06
1.7381e-06
1.20334e-06
1.98863e-06
1.51048e-06
1.48921e-06
1.60748e-06
1.68625e-06
1.59689e-06
1.55494e-06
1.49907e-06
1.50562e-06
1.64622e-06
1.39483e-06
1.6755e-06
1.32803e-06
1.48364e-06
1.79419e-06
2.39765e-06
1.66529e-06
1.70356e-06
1.90146e-06
1.85611e-06
1.98141e-06
1.92092e-06
1.64046e-06
1.74496e-06
1.89389e-06
1.77256e-06
1.52517e-06
1.60966e-06
2.00617e-06
1.87419e-06
2.0037e-06
1.32346e-06
1.83667e-06
1.76629e-06
2.7989e-06
2.65755e-06
3.25377e-06
1.96168e-06
2.11259e-06
2.35397e-06
2.40757e-06
2.49133e-06
3.78314e-06
1.93258e-06
2.04977e-06
2.36057e-06
2.30244e-06
1.96023e-06
2.30338e-06
2.47962e-06
2.23549e-06
3.68641e-06
1.74937e-06
2.27865e-06
2.30562e-06
3.37545e-06
3.86108e-06
5.21e-06
2.57834e-06
2.3591e-06
2.88121e-06
3.01746e-06
3.70626e-06
4.73194e-06
2.57986e-06
2.27063e-06
2.84307e-06
3.18646e-06
2.70247e-06
2.56979e-06
2.61291e-06
3.56631e-06
5.77398e-06
2.49903e-06
3.07849e-06
2.46672e-06
4.26222e-06
5.43812e-06
8.30827e-06
3.10467e-06
3.47812e-06
4.28035e-06
4.33819e-06
5.61965e-06
9.38266e-06
3.11574e-06
3.50285e-06
4.14298e-06
3.61936e-06
3.02151e-06
4.31326e-06
4.26121e-06
6.6065e-06
7.79578e-06
2.92018e-06
3.70238e-06
3.93923e-06
9.84561e-06
9.0199e-06
1.06485e-05
4.30439e-06
4.25897e-06
5.19706e-06
5.11674e-06
9.25689e-06
9.95806e-06
4.15412e-06
3.74425e-06
5.20221e-06
5.91045e-06
4.18087e-06
4.92812e-06
5.2754e-06
7.90805e-06
1.3329e-05
3.91712e-06
5.90865e-06
5.15806e-06
1.09091e-05
1.20988e-05
1.83566e-05
6.25487e-06
6.45937e-06
6.91874e-06
7.24719e-06
1.3363e-05
1.85981e-05
6.17654e-06
6.36698e-06
6.89011e-06
6.06811e-06
5.57316e-06
7.06999e-06
6.81488e-06
1.53425e-05
1.54377e-05
5.49198e-06
6.09426e-06
6.61273e-06
1.59014e-05
1.78499e-05
2.72535e-05
6.67729e-06
6.90142e-06
1.01804e-05
1.00524e-05
1.79573e-05
2.4069e-05
6.63158e-06
6.30296e-06
1.01538e-05
1.00029e-05
7.37754e-06
8.14347e-06
8.85379e-06
1.48551e-05
2.64359e-05
7.35134e-06
1.00477e-05
8.42182e-06
2.43249e-05
3.01464e-05
2.86846e-05
1.10089e-05
1.09887e-05
1.05909e-05
1.08104e-05
2.69381e-05
3.18865e-05
1.11149e-05
1.01469e-05
1.06625e-05
1.08729e-05
9.57273e-06
1.23824e-05
1.12027e-05
2.88155e-05
2.79251e-05
8.79074e-06
1.07287e-05
1.19067e-05
2.98086e-05
2.74628e-05
3.92188e-05
1.11935e-05
1.05551e-05
1.34762e-05
1.49607e-05
3.2153e-05
3.3922e-05
1.08619e-05
1.26437e-05
1.34126e-05
1.39902e-05
1.15521e-05
1.34115e-05
1.43701e-05
2.84784e-05
3.98218e-05
1.24373e-05
1.41893e-05
1.3346e-05
3.65211e-05
4.17701e-05
4.52092e-05
1.41964e-05
1.69744e-05
1.93532e-05
1.81222e-05
3.80815e-05
4.64765e-05
1.43086e-05
1.41639e-05
1.93287e-05
1.8215e-05
1.54649e-05
1.73114e-05
1.72127e-05
3.98378e-05
4.41499e-05
1.5071e-05
1.84956e-05
1.70372e-05
4.66661e-05
4.75516e-05
5.19271e-05
2.03697e-05
1.79249e-05
2.02864e-05
2.42716e-05
4.65646e-05
5.58878e-05
2.03499e-05
1.89007e-05
2.02213e-05
2.10515e-05
1.84518e-05
2.41503e-05
2.16046e-05
4.7677e-05
5.11191e-05
1.77509e-05
2.11335e-05
2.26427e-05
5.05161e-05
5.22397e-05
5.93574e-05
2.17525e-05
2.58384e-05
2.7336e-05
2.4426e-05
5.86588e-05
5.17748e-05
2.14028e-05
2.28824e-05
2.76294e-05
2.66757e-05
2.17046e-05
2.39521e-05
2.59385e-05
5.20776e-05
5.98987e-05
2.31234e-05
2.61645e-05
2.42955e-05
5.71404e-05
6.04871e-05
6.1568e-05
2.7267e-05
2.29547e-05
2.73855e-05
3.11408e-05
5.0165e-05
6.92002e-05
2.7788e-05
2.6504e-05
2.72615e-05
2.81647e-05
2.8086e-05
3.13559e-05
2.94241e-05
6.02833e-05
6.10288e-05
2.69222e-05
2.89963e-05
3.03164e-05
6.45962e-05
6.31024e-05
7.14878e-05
3.10237e-05
3.74401e-05
3.8309e-05
4.29713e-05
7.50855e-05
7.59217e-05
3.05001e-05
3.10662e-05
3.8196e-05
3.76666e-05
2.9375e-05
4.20553e-05
3.72401e-05
6.29018e-05
7.08966e-05
3.00623e-05
3.64192e-05
3.63518e-05
6.92068e-05
7.17864e-05
7.26155e-05
3.82942e-05
4.24411e-05
3.70323e-05
3.93941e-05
7.53229e-05
7.22666e-05
3.8149e-05
3.78043e-05
3.79025e-05
3.73835e-05
3.91261e-05
3.89753e-05
3.8773e-05
7.15912e-05
7.30992e-05
3.8571e-05
3.89948e-05
3.88393e-05
7.358e-05
7.45119e-05
8.0153e-05
3.98518e-05
3.86085e-05
4.95884e-05
4.65212e-05
7.27527e-05
7.86734e-05
4.16776e-05
4.01434e-05
4.86978e-05
4.96235e-05
3.90856e-05
4.71397e-05
4.8766e-05
7.4499e-05
8.00621e-05
3.93736e-05
4.87038e-05
4.8089e-05
8.01214e-05
8.01694e-05
8.22626e-05
5.00372e-05
4.70227e-05
4.84722e-05
5.18181e-05
8.01662e-05
8.46321e-05
4.83889e-05
5.08041e-05
4.72096e-05
4.92293e-05
5.02432e-05
5.15087e-05
4.91764e-05
8.076e-05
8.13102e-05
4.96526e-05
4.81391e-05
4.9242e-05
8.1453e-05
8.46982e-05
8.90046e-05
5.0537e-05
5.50175e-05
6.17086e-05
5.99008e-05
8.54752e-05
8.62255e-05
5.14555e-05
4.88884e-05
6.26721e-05
6.03407e-05
4.94022e-05
5.9158e-05
6.04958e-05
8.20247e-05
8.85818e-05
5.03856e-05
6.01938e-05
6.06439e-05
8.94943e-05
8.88098e-05
8.90542e-05
6.28017e-05
5.94584e-05
6.10681e-05
6.10228e-05
8.65633e-05
9.23567e-05
6.3391e-05
6.23848e-05
6.1169e-05
6.19799e-05
6.31749e-05
6.17412e-05
6.32094e-05
8.9391e-05
9.13124e-05
6.31725e-05
6.20562e-05
6.30533e-05
8.90425e-05
9.08228e-05
9.86507e-05
6.09099e-05
6.52459e-05
7.32505e-05
7.487e-05
9.41049e-05
9.69623e-05
6.06221e-05
6.35285e-05
7.27161e-05
7.4282e-05
6.22626e-05
7.46347e-05
7.07641e-05
9.26626e-05
9.74781e-05
6.20628e-05
7.47762e-05
7.04756e-05
9.86046e-05
9.92723e-05
9.80809e-05
7.65173e-05
7.56947e-05
7.83012e-05
7.36095e-05
9.69448e-05
9.63885e-05
7.63471e-05
7.60238e-05
7.86524e-05
7.4743e-05
7.5404e-05
7.30444e-05
8.01643e-05
9.7743e-05
9.6282e-05
7.52531e-05
7.40729e-05
8.03346e-05
9.94921e-05
9.80446e-05
0.000102225
7.73453e-05
7.26058e-05
7.72252e-05
8.31891e-05
9.71027e-05
0.000105688
7.77412e-05
7.35656e-05
7.70793e-05
8.21116e-05
7.94771e-05
8.36963e-05
7.71559e-05
9.66254e-05
0.000105603
7.96593e-05
8.23343e-05
7.72666e-05
0.000101239
0.000104486
0.00010893
8.30393e-05
8.76249e-05
9.06834e-05
9.17885e-05
0.000107111
0.000107732
8.26282e-05
8.71563e-05
9.16774e-05
9.25494e-05
8.03858e-05
9.13589e-05
9.15925e-05
0.000107348
0.000108135
8.03896e-05
9.2564e-05
9.13338e-05
0.000109311
0.000109019
0.000110413
9.08616e-05
9.10651e-05
9.46135e-05
9.16789e-05
0.000107543
0.000110574
9.14745e-05
9.19534e-05
9.35897e-05
9.0883e-05
9.22946e-05
9.17665e-05
9.35925e-05
0.000107886
0.000110278
9.24569e-05
9.13073e-05
9.36946e-05
0.000110159
0.00011158
0.000114552
9.61167e-05
9.57819e-05
9.95548e-05
0.000101427
0.000112446
0.000115428
9.57243e-05
9.52014e-05
0.000100005
0.000101902
9.52373e-05
0.000101953
0.000100482
0.000112137
0.000115785
9.45412e-05
0.000101719
0.000100161
0.000115053
0.000115001
0.000118352
0.000100988
0.000101492
0.000105661
0.000104042
0.000115372
0.000117457
0.00010107
0.00010171
0.000105168
0.000104579
0.000101387
0.000104439
0.000105588
0.000115703
0.000116897
0.000102254
0.000103628
0.000106332
0.000118583
0.000119226
0.000122272
0.000106979
0.000106234
0.000111349
0.000112088
0.000118998
0.000122221
0.000106681
0.000105975
0.000111622
0.000110307
0.000107868
0.000110623
0.000111835
0.000118129
0.000122178
0.000107148
0.000111078
0.000109944
0.000121884
0.00012297
0.000125518
0.000112831
0.00011266
0.000115871
0.000115329
0.00012236
0.000125701
0.000113199
0.000112148
0.000116097
0.000116852
0.000111958
0.000115895
0.000115327
0.000122719
0.000126227
0.000111381
0.000117051
0.000117511
0.000125913
0.000125999
0.000129742
0.000117009
0.000117836
0.000122227
0.000124853
0.00012726
0.00013142
0.000117011
0.00011807
0.000121893
0.000122478
0.000117903
0.000125618
0.00012323
0.000127126
0.00012996
0.000119521
0.000122094
0.000121636
0.000129776
0.000130696
0.000132877
0.000123937
0.000125452
0.000126455
0.0001237
0.000131437
0.00012946
0.000123766
0.000124127
0.000126881
0.000127085
0.000123517
0.000122818
0.000124628
0.000130429
0.000132846
0.00012171
0.000126749
0.00012522
0.000131611
0.000133137
0.000136077
0.000127078
0.000123374
0.000131234
0.000132967
0.000129629
0.000138374
0.000127495
0.000127539
0.000131055
0.000130028
0.000126214
0.000133159
0.000133102
0.000133361
0.000135524
0.000127437
0.000130107
0.000132996
0.000137796
0.000136873
0.000139473
0.0001328
0.000135032
0.000136091
0.000136199
0.00013953
0.000140013
0.0001324
0.000131522
0.000135808
0.000137887
0.000134824
0.000138331
0.000136664
0.000136248
0.000141343
0.000133919
0.000138571
0.000136194
0.000139262
0.000139938
0.000142681
0.000136966
0.000136736
0.000140327
0.000140099
0.000139853
0.000141787
0.000137005
0.000139735
0.000141004
0.000141158
0.000136647
0.000138219
0.000138443
0.00014209
0.000142152
0.000136979
0.000140711
0.000139119
0.000141473
0.000143314
0.000145147
0.000141786
0.000141148
0.000144628
0.000144347
0.00014253
0.000144979
0.000142316
0.000140737
0.000144192
0.000141476
0.000140398
0.000143974
0.000146367
0.000141866
0.000143152
0.000140428
0.000141386
0.000145812
0.000146683
0.000145315
0.000148418
0.000144842
0.000145437
0.000148424
0.000149186
0.000145573
0.000148972
0.000144253
0.000143047
0.000148139
0.000149478
0.000146918
0.000149279
0.000147074
0.000144477
0.000150072
0.000146765
0.000150907
0.000148067
0.000147324
0.00014961
0.000152694
0.00015077
0.00015075
0.000155028
0.000153528
0.000149642
0.000151466
0.000150725
0.00015197
0.000155679
0.000156536
0.000148831
0.000153765
0.000154285
0.000150927
0.00015289
0.000149514
0.000155311
0.000154114
0.00015219
0.000152681
0.000153491
0.00015503
0.000153746
0.000155743
0.000157217
0.000151619
0.000154686
0.000155796
0.00015669
0.000155773
0.000156207
0.0001548
0.000157527
0.000157421
0.000152903
0.000153248
0.00015461
0.000155276
0.000157289
0.0001546
0.000154714
0.000158515
0.000158364
0.000159396
0.000164049
0.000163432
0.000155803
0.000158025
0.000158008
0.000157591
0.0001636
0.00016204
0.000159452
0.000163654
0.000163773
0.000154079
0.000156989
0.000159246
0.000162019
0.000163283
0.000158101
0.000158462
0.000156486
0.000164304
0.000163407
0.000162977
0.000161684
0.000157885
0.000155911
0.000163864
0.000162125
0.00016249
0.000161107
0.000163838
0.000161919
0.000162247
0.000156879
0.000156295
0.000163313
0.000161251
0.000161703
0.000156055
0.00015679
0.000167557
0.000162576
0.000161763
0.000173818
0.000174554
0.000156676
0.000168139
0.000162299
0.000162601
0.000174072
0.000175217
0.000162002
0.000174489
0.00017405
0.00015757
0.000168531
0.000161896
0.000175423
0.000174541
0.000167818
0.00016907
0.000171728
0.000177047
0.000177616
0.000181303
0.000181773
0.000169609
0.000172147
0.000177177
0.000177994
0.000181344
0.000181967
0.000177261
0.000181705
0.000181546
0.000169908
0.000172326
0.00017755
0.000182175
0.000181687
0.000172044
0.000171182
0.000161186
0.000181916
0.000182306
0.000173011
0.000172747
0.000171513
0.000160913
0.000181958
0.000182464
0.000173063
0.000172828
0.000182169
0.000172726
0.00017304
0.000171678
0.000161013
0.000182268
0.000172931
0.000172973
0.000161149
0.000160038
0.000154244
0.000169594
0.000169278
0.000163535
0.000163244
0.000159729
0.000153968
0.00016963
0.000169337
0.000163525
0.00016322
0.000169544
0.000163195
0.000163373
0.000159809
0.000153949
0.000169486
0.000163259
0.000163359
0.000154098
0.00015367
0.000163613
0.00016196
0.000161676
0.000170453
0.000170574
0.00015347
0.000163734
0.000161951
0.000161638
0.000170344
0.000170392
0.000161789
0.000170545
0.000170329
0.000153413
0.000163618
0.000161784
0.000170419
0.000170421
0.000163614
0.000166827
0.000181677
0.000177185
0.000177323
0.000194852
0.000195028
0.000166962
0.000181858
0.000177096
0.00017717
0.000194797
0.000194935
0.000177122
0.000195049
0.000194914
0.00016686
0.000181798
0.000177185
0.000194974
0.000194919
0.000181753
0.00018384
0.00019247
0.000199466
0.000199642
0.000210414
0.00021053
0.000184022
0.000192584
0.00019942
0.000199569
0.000210396
0.000210531
0.000199554
0.000210574
0.000210516
0.000183971
0.000192598
0.000199548
0.000210567
0.000210498
0.000192553
0.000193805
0.000199942
0.000213304
0.000213383
0.000219635
0.000219644
0.000193893
0.000199897
0.000213295
0.000213409
0.000219641
0.000219716
0.00021339
0.000219702
0.000219689
0.000193922
0.000199975
0.000213372
0.000219748
0.000219671
0.000199915
0.000198988
0.00018693
0.000221524
0.000221498
0.000208877
0.000208715
0.000198894
0.000186817
0.000221539
0.000221586
0.000208921
0.000208805
0.000221557
0.000208762
0.000208809
0.000198975
0.000186865
0.00022154
0.000208814
0.0002088
0.000186859
0.000183283
0.000164751
0.000201568
0.000201433
0.000180012
0.000179935
0.000183184
0.000164695
0.000201604
0.000201498
0.000180032
0.000179956
0.000201512
0.000179964
0.000179977
0.000183219
0.000164708
0.000201505
0.000179975
0.000179975
0.000164715
0.000162396
0.000153863
0.000174174
0.000174111
0.000163743
0.000163708
0.000162349
0.000153848
0.000174189
0.000174125
0.000163743
0.000163711
0.000174145
0.000163725
0.000163722
0.000162357
0.00015385
0.000174143
0.000163733
0.000163719
0.000153848
0.000153342
0.000157447
0.000162677
0.000162646
0.000164005
0.000163993
0.000153327
0.000157444
0.000162673
0.000162649
0.000163989
0.000163994
0.000162657
0.000164001
0.000163986
0.00015333
0.000157448
0.000162654
0.000164011
0.000163981
0.000157434
0.000159399
0.000169083
0.000168773
0.000168762
0.000181778
0.000181764
0.000159396
0.000169078
0.00016876
0.000168763
0.000181774
0.000181764
0.000168756
0.000181781
0.000181768
0.000159399
0.000169079
0.000168752
0.000181784
0.000181767
0.000169075
0.000170778
0.000178392
0.000185717
0.000185702
0.000195698
0.000195678
0.000170773
0.000178382
0.000185716
0.000185702
0.000195706
0.000195683
0.000185709
0.000195706
0.000195688
0.000170774
0.000178386
0.00018571
0.00019571
0.000195695
0.000178376
0.00017942
0.000183577
0.000198288
0.000198267
0.000203848
0.000203825
0.00017941
0.000183567
0.000198297
0.000198272
0.000203861
0.000203834
0.000198276
0.00020386
0.000203837
0.000179414
0.000183574
0.000198285
0.000203868
0.00020385
0.000183559
0.000184008
0.000185932
0.000205084
0.000205061
0.000207533
0.000207512
0.000183999
0.000185924
0.000205097
0.000205071
0.000207549
0.000207522
0.000205073
0.00020755
0.000207525
0.000184006
0.000185932
0.000205088
0.00020756
0.000207542
0.000185918
0.000186054
0.000186898
0.000208056
0.000208036
0.000209076
0.000209057
0.000186047
0.000186892
0.000208071
0.000208045
0.000209092
0.000209064
0.000208048
0.000209096
0.000209068
0.000186055
0.000186898
0.000208065
0.000209104
0.000209087
0.000186885
0.000186863
0.000187223
0.000209279
0.00020926
0.000209596
0.000209576
0.000186857
0.000187217
0.000209295
0.000209267
0.000209613
0.000209583
0.000209272
0.000209616
0.000209588
0.000186863
0.000187222
0.000209291
0.000209623
0.000209607
0.00018721
0.000187112
0.000187292
0.000209631
0.000209611
0.000209649
0.000209628
0.000187105
0.000187284
0.000209648
0.000209618
0.000209666
0.000209636
0.000209623
0.000209668
0.00020964
0.000187111
0.000187289
0.000209642
0.000209675
0.000209659
0.000187277
0.000187155
0.000187205
0.000209629
0.000209608
0.000209601
0.00020958
0.000187147
0.000187196
0.000209646
0.000209616
0.000209617
0.000209588
0.00020962
0.00020962
0.000209593
0.000187153
0.000187204
0.000209639
0.000209628
0.000209611
0.000187189
0.000187068
0.000187345
0.00020961
0.000209591
0.000209683
0.000209663
0.000187061
0.000187341
0.000209627
0.000209598
0.0002097
0.000209671
0.000209604
0.000209703
0.000209675
0.000187068
0.000187344
0.000209623
0.00020971
0.000209694
0.000187334
0.000187223
0.000187275
0.000209688
0.000209667
0.000209637
0.000209615
0.000187217
0.000187265
0.000209705
0.000209675
0.000209654
0.000209624
0.000209679
0.000209655
0.000209627
0.000187222
0.000187272
0.000209698
0.000209663
0.000209646
0.000187256
0.000187124
0.000187265
0.000209628
0.000209607
0.000209642
0.000209623
0.000187114
0.000187262
0.000209645
0.000209615
0.000209658
0.000209629
0.000209619
0.000209662
0.000209636
0.000187122
0.000187265
0.000209638
0.000209669
0.000209655
0.000187257
0.00018715
0.000187335
0.000209659
0.00020964
0.000209662
0.000209641
0.000187145
0.000187328
0.000209676
0.000209647
0.000209679
0.000209649
0.000209652
0.000209681
0.000209651
0.00018715
0.000187333
0.000209671
0.000209688
0.00020967
0.000187318
0.000187192
0.000187235
0.00020965
0.000209629
0.000209635
0.000209615
0.000187183
0.000187227
0.000209667
0.000209637
0.000209652
0.000209622
0.000209639
0.000209655
0.000209626
0.000187189
0.000187233
0.000209658
0.000209662
0.000209646
0.000187219
0.000187102
0.000187322
0.000209642
0.000209622
0.000209653
0.000209633
0.000187096
0.000187316
0.000209659
0.00020963
0.00020967
0.000209641
0.000209635
0.000209672
0.000209645
0.000187102
0.000187322
0.000209655
0.00020968
0.000209664
0.000187314
0.000187195
0.000187259
0.000209653
0.000209632
0.000209644
0.000209623
0.000187188
0.00018725
0.00020967
0.00020964
0.000209661
0.000209631
0.000209644
0.000209663
0.000209635
0.000187195
0.000187256
0.000209663
0.000209671
0.000209654
0.000187235
0.00018711
0.000187307
0.000209644
0.000209624
0.000209647
0.000209628
0.0001871
0.000187305
0.000209661
0.000209632
0.000209664
0.000209635
0.000209635
0.000209668
0.000209639
0.000187108
0.000187309
0.000209655
0.000209675
0.000209659
0.000187305
0.000187188
0.000187259
0.000209651
0.000209631
0.000209642
0.000209622
0.000187184
0.000187247
0.000209668
0.000209639
0.000209659
0.00020963
0.000209643
0.000209662
0.000209634
0.000187189
0.000187253
0.000209662
0.000209669
0.000209653
0.000187231
0.000187109
0.000187314
0.000209644
0.000209624
0.000209646
0.000209626
0.000187098
0.000187312
0.000209661
0.000209632
0.000209663
0.000209634
0.000209636
0.000209667
0.000209639
0.000187105
0.000187317
0.000209655
0.000209674
0.000209658
0.000187316
0.000187193
0.000187243
0.000209651
0.000209631
0.000209641
0.00020962
0.00018719
0.000187232
0.000209667
0.000209638
0.000209658
0.000209628
0.000209642
0.00020966
0.000209632
0.000187195
0.000187238
0.000209661
0.000209668
0.000209652
0.000187218
0.0001871
0.000187328
0.000209648
0.000209628
0.000209644
0.000209624
0.000187091
0.000187323
0.000209665
0.000209636
0.000209661
0.000209632
0.00020964
0.000209665
0.000209636
0.000187098
0.000187328
0.00020966
0.000209672
0.000209655
0.000187314
0.000187196
0.000187241
0.000209652
0.000209632
0.000209644
0.000209624
0.000187188
0.000187234
0.000209669
0.00020964
0.000209661
0.000209631
0.000209643
0.000209663
0.000209636
0.000187193
0.000187241
0.000209662
0.000209671
0.000209655
0.00018724
0.000187123
0.000187294
0.000209657
0.000209637
0.000209695
0.000209675
0.000187115
0.000187292
0.000209674
0.000209645
0.000209712
0.000209683
0.00020965
0.000209714
0.000209688
0.000187126
0.000187292
0.000209668
0.000209723
0.000209706
0.000187273
0.000187142
0.000188655
0.000209575
0.000209555
0.000212167
0.000212152
0.00018714
0.000188647
0.000209592
0.000209562
0.000212183
0.000212161
0.000209566
0.000212182
0.000212162
0.00018714
0.000188656
0.000209584
0.000212192
0.000212179
0.000188647
0.000190506
0.000210785
0.000210771
0.000190502
0.0002108
0.00021078
0.000231305
0.000231317
0.00023131
0.000210781
0.000190508
0.000210796
2.84614e-05
3.39849e-06
1.7527e-05
1.75147e-05
6.97516e-07
2.18933e-06
1.55887e-06
9.01197e-06
7.15281e-07
2.40679e-06
8.99479e-06
1.57504e-06
2.29636e-06
1.8828e-06
1.72413e-06
1.09725e-06
1.35039e-05
1.02005e-06
1.52828e-05
1.12634e-05
1.33034e-05
1.10469e-06
1.35255e-05
1.02757e-06
1.53067e-05
8.06299e-06
8.103e-06
8.19049e-06
8.0122e-06
7.89739e-06
7.92393e-06
8.01858e-06
7.57041e-07
3.74678e-07
3.77602e-06
2.186e-06
7.22687e-07
4.82993e-07
3.73052e-06
1.09932e-05
1.31897e-05
6.45377e-07
3.51359e-06
4.78979e-07
2.24926e-06
6.79315e-07
3.47155e-06
5.95785e-07
1.52725e-06
1.50764e-06
2.27167e-06
1.72589e-06
1.71225e-06
1.31532e-06
1.85107e-05
1.25766e-06
2.09808e-05
1.73492e-05
1.9672e-05
1.3206e-06
1.85186e-05
1.2416e-06
2.1004e-05
7.93305e-06
7.95817e-06
8.05693e-06
8.17019e-06
8.0953e-06
8.08299e-06
8.19283e-06