/*--------------------------------*- C++ -*----------------------------------*\
| =========                 |                                                 |
| \\      /  F ield         | OpenFOAM: The Open Source CFD Toolbox           |
|  \\    /   O peration     | Version:  v2012                                 |
|   \\  /    A nd           | Website:  www.openfoam.com                      |
|    \\/     M anipulation  |                                                 |
\*---------------------------------------------------------------------------*/
FoamFile
{
    version     2.0;
    format      ascii;
    class       volScalarField;
    location    "287.5";
    object      p;
}
// * * * * * * * * * * * * * * * * * * * * * * * * * * * * * * * * * * * * * //

dimensions      [0 2 -2 0 0 0 0];


internalField   nonuniform List<scalar> 
171728
(
0.00352477
0.00352368
0.0035237
0.00352442
0.00348919
0.00348768
0.00348774
0.00349059
0.00345104
0.00344904
0.00344909
0.00345137
0.00340685
0.00340515
0.00340521
0.0034074
0.00335852
0.00335705
0.00335703
0.0033594
0.00330977
0.00330836
0.00330832
0.00331075
0.0032618
0.00326054
0.00326051
0.00326289
0.0032145
0.00321337
0.00321335
0.00321574
0.0031681
0.00316709
0.00316708
0.00316949
0.00312281
0.0031219
0.00312193
0.00312431
0.00307839
0.00307762
0.00307757
0.00308002
0.00303472
0.00303405
0.00303401
0.00303643
0.00299161
0.00299104
0.00299105
0.00299345
0.0029489
0.0029485
0.00294839
0.00295078
0.00290651
0.00290619
0.00290608
0.00290848
0.00286445
0.00286399
0.00286413
0.00286642
0.00282273
0.00282234
0.0028225
0.0028248
0.00278138
0.00278098
0.00278105
0.00278342
0.00274037
0.00274027
0.00274012
0.0027422
0.00269972
0.00269961
0.00269958
0.00270158
0.00265938
0.00265916
0.00265937
0.00266114
0.0026194
0.00261935
0.00261946
0.00262098
0.00257963
0.00257938
0.00257952
0.00258136
0.00254018
0.00254022
0.00254027
0.00254204
0.00250091
0.00250085
0.002501
0.00250248
0.00246201
0.00246228
0.00246205
0.00246409
0.0024232
0.00242335
0.0024234
0.00242538
0.00238463
0.00238493
0.00238476
0.00238664
0.00234633
0.00234648
0.00234661
0.00234863
0.0023082
0.00230858
0.00230848
0.00231056
0.00227022
0.0022706
0.00227051
0.00227236
0.00223235
0.00223245
0.00223269
0.00223482
0.00219472
0.00219542
0.00219507
0.00219701
0.00215734
0.00215757
0.0021577
0.00215959
0.00211972
0.00211997
0.00212014
0.00212209
0.00208265
0.00208301
0.00208296
0.00208484
0.00204544
0.00204586
0.00204577
0.00204777
0.00200865
0.00200875
0.00200894
0.00201091
0.00197178
0.00197219
0.00197199
0.00197383
0.00193517
0.00193524
0.00193536
0.00193769
0.00189866
0.00189874
0.00189867
0.00190044
0.00186218
0.00186251
0.00186258
0.0018645
0.00182636
0.00182598
0.00182597
0.00182822
0.0017899
0.0017901
0.00179009
0.00179193
0.00175407
0.00175387
0.00175392
0.0017561
0.00171823
0.0017182
0.00171812
0.00172015
0.00168259
0.00168235
0.00168247
0.00168448
0.00164709
0.00164699
0.0016469
0.00164898
0.00161172
0.00161138
0.00161143
0.00161348
0.00157641
0.00157605
0.00157615
0.00157818
0.00154111
0.00154124
0.00154092
0.001543
0.0015062
0.00150556
0.00150595
0.00150779
0.00147111
0.00147084
0.00147061
0.00147282
0.00143615
0.00143599
0.00143601
0.00143794
0.00140142
0.00140115
0.00140122
0.00140311
0.00136709
0.0013666
0.0013665
0.00136859
0.00133227
0.00133219
0.00133212
0.00133405
0.00129809
0.00129763
0.00129776
0.0012996
0.00126357
0.00126339
0.00126345
0.00126526
0.00123005
0.00122998
0.00122989
0.00123186
0.00119582
0.00119528
0.00119526
0.00119714
0.00116052
0.0011603
0.0011603
0.00116219
0.00112572
0.0011261
0.00112611
0.00112815
0.00109308
0.00109331
0.00109331
0.00109524
0.00106215
0.00106117
0.00106117
0.00106273
0.00102888
0.00102817
0.00102817
0.00102982
0.00099334
0.000992988
0.00099299
0.000994921
0.000954476
0.000954335
0.000954333
0.000956583
0.00091368
0.000914573
0.000914572
0.000917137
0.000875631
0.000876347
0.000876349
0.00087879
0.000841671
0.000841955
0.000841952
0.000843962
0.000811805
0.000811227
0.000811227
0.000812648
0.000782694
0.000782132
0.000782132
0.000783494
0.000753314
0.000753003
0.000753002
0.000754569
0.000721653
0.000721491
0.000721491
0.000723275
0.000687654
0.000687568
0.000687568
0.000689512
0.000652283
0.000652235
0.000652235
0.000654261
0.000616266
0.00061624
0.00061624
0.000618305
0.000579987
0.000579963
0.000579963
0.000582044
0.000543625
0.000543599
0.000543598
0.000545683
0.000507228
0.000507201
0.000507201
0.000509287
0.000470823
0.000470795
0.000470795
0.00047288
0.000434419
0.000434392
0.000434392
0.000436478
0.000398011
0.000397983
0.000397983
0.000400069
0.00036161
0.000361583
0.000361583
0.000363668
0.000325207
0.000325179
0.000325179
0.000327264
0.000288805
0.000288777
0.000288778
0.000290862
0.000252403
0.000252377
0.000252377
0.00025446
0.000216001
0.000215974
0.000215975
0.000218056
0.0001796
0.000179574
0.000179573
0.000181651
0.000143196
0.000143172
0.000143172
0.000145243
0.000106787
0.000106764
0.000106764
0.000108818
7.03795e-05
7.03523e-05
7.03501e-05
7.23708e-05
3.47326e-05
3.41594e-05
3.41556e-05
3.60275e-05
6.13183e-06
7.02276e-06
7.0197e-06
5.27432e-06
0.00352922
0.00352677
0.00352673
0.00352919
0.00352678
0.00352675
0.00353316
0.00353316
0.00353315
0.00353314
0.00352671
0.00352674
0.0035292
0.00352675
0.00352677
0.00352919
0.00352445
0.00349534
0.00352371
0.00352371
0.00349722
0.00349726
0.00352443
0.00349537
0.00352371
0.00352369
0.00349722
0.00349721
0.00352368
0.00349724
0.00349725
0.00352443
0.00349534
0.0035237
0.00349722
0.00349724
0.00349535
0.00349059
0.00345684
0.00348774
0.00348771
0.00345906
0.00345902
0.00349059
0.00345682
0.00348772
0.00348771
0.00345907
0.00345908
0.00348771
0.00345905
0.00345911
0.00349059
0.00345683
0.00348773
0.00345907
0.00345913
0.00345686
0.00345136
0.0034136
0.00344907
0.0034491
0.00341666
0.00341658
0.00345133
0.00341362
0.00344907
0.00344907
0.00341667
0.00341667
0.00344908
0.00341665
0.00341669
0.00345136
0.00341359
0.00344908
0.00341666
0.00341671
0.00341359
0.00340741
0.00336586
0.00340517
0.00340514
0.0033692
0.00336919
0.00340743
0.00336587
0.00340517
0.0034052
0.00336919
0.00336919
0.00340519
0.00336922
0.00336922
0.00340741
0.00336588
0.00340518
0.00336921
0.00336923
0.00336587
0.00335939
0.00331717
0.00335704
0.00335707
0.00332046
0.00332049
0.00335939
0.00331715
0.00335704
0.00335703
0.00332045
0.00332044
0.00335706
0.00332046
0.00332046
0.0033594
0.00331718
0.00335705
0.00332046
0.00332046
0.00331717
0.00331075
0.00326919
0.00330836
0.00330836
0.00327242
0.00327243
0.00331073
0.00326916
0.00330836
0.00330834
0.00327242
0.00327244
0.00330837
0.00327244
0.00327244
0.00331075
0.0032692
0.00330836
0.00327244
0.00327242
0.00326919
0.00326289
0.00322195
0.00326053
0.00326053
0.0032251
0.0032251
0.00326287
0.00322194
0.00326053
0.00326052
0.00322509
0.00322511
0.00326054
0.0032251
0.00322513
0.0032629
0.00322194
0.00326053
0.00322512
0.00322512
0.00322194
0.00321576
0.00317554
0.00321337
0.00321338
0.00317855
0.00317853
0.00321575
0.00317553
0.00321338
0.00321336
0.00317854
0.00317855
0.00321337
0.00317854
0.00317856
0.00321575
0.00317554
0.00321336
0.00317855
0.00317856
0.00317554
0.0031695
0.0031302
0.0031671
0.00316711
0.00313312
0.00313313
0.0031695
0.00313021
0.0031671
0.0031671
0.00313312
0.00313311
0.00316709
0.00313313
0.00313312
0.0031695
0.0031302
0.00316709
0.00313311
0.00313312
0.00313021
0.00312431
0.00308578
0.00312192
0.00312192
0.00308863
0.00308859
0.0031243
0.00308579
0.00312192
0.00312193
0.00308863
0.00308862
0.00312191
0.00308859
0.00308859
0.00312431
0.00308577
0.0031219
0.00308861
0.00308858
0.00308578
0.00307998
0.00304209
0.00307759
0.00307763
0.00304486
0.00304486
0.00308
0.00304211
0.00307759
0.0030776
0.00304487
0.00304488
0.0030776
0.00304485
0.00304478
0.00307998
0.0030421
0.00307761
0.00304488
0.00304482
0.0030421
0.00303642
0.002999
0.00303402
0.00303405
0.00300169
0.00300173
0.00303645
0.00299902
0.00303403
0.00303402
0.00300169
0.00300173
0.00303407
0.00300173
0.00300173
0.00303642
0.00299898
0.00303405
0.00300173
0.0030017
0.00299904
0.0029934
0.00295633
0.00299105
0.00299105
0.00295904
0.00295897
0.00299339
0.00295629
0.00299105
0.00299105
0.00295901
0.00295914
0.00299107
0.00295897
0.00295899
0.00299338
0.00295635
0.00299108
0.00295914
0.00295899
0.00295633
0.00295082
0.00291398
0.00294848
0.0029485
0.00291665
0.00291649
0.00295079
0.00291387
0.00294849
0.0029484
0.00291669
0.00291672
0.0029484
0.00291649
0.00291647
0.00295077
0.00291397
0.00294841
0.00291672
0.0029165
0.00291391
0.00290849
0.00287183
0.00290612
0.00290619
0.00287448
0.00287446
0.00290845
0.00287179
0.00290612
0.00290608
0.00287448
0.00287455
0.00290615
0.00287447
0.00287446
0.00290845
0.00287187
0.00290613
0.00287457
0.00287449
0.00287183
0.00286645
0.0028301
0.00286413
0.00286397
0.00283278
0.00283284
0.0028663
0.00283005
0.00286414
0.00286413
0.00283278
0.00283273
0.00286414
0.00283283
0.00283284
0.00286645
0.00283009
0.00286408
0.00283272
0.00283284
0.00283015
0.00282478
0.00278867
0.00282246
0.00282233
0.00279132
0.00279149
0.00282463
0.00278863
0.00282247
0.00282253
0.00279137
0.00279136
0.00282257
0.00279142
0.00279125
0.00282478
0.00278859
0.00282252
0.00279129
0.00279128
0.00278868
0.00278339
0.00274756
0.00278117
0.00278093
0.00275032
0.00275053
0.00278325
0.00274756
0.00278118
0.00278102
0.00275034
0.00275037
0.00278123
0.00275049
0.00275021
0.0027833
0.00274746
0.00278119
0.00275036
0.00275028
0.00274748
0.00274233
0.00270685
0.00274016
0.00274022
0.00270973
0.00270954
0.00274234
0.00270685
0.00274011
0.00274007
0.00270975
0.0027097
0.00274
0.00270961
0.00270978
0.00274226
0.00270669
0.00273999
0.00270972
0.00270985
0.00270675
0.00270164
0.00266637
0.0026995
0.00269967
0.00266934
0.00266931
0.00270161
0.00266633
0.00269949
0.00269954
0.00266933
0.00266934
0.00269945
0.00266939
0.00266929
0.00270156
0.00266616
0.00269959
0.00266935
0.00266928
0.00266641
0.00266117
0.00262623
0.00265916
0.00265921
0.0026294
0.00262939
0.00266119
0.00262624
0.00265915
0.00265931
0.00262938
0.00262925
0.00265929
0.00262937
0.00262928
0.00266117
0.00262606
0.00265931
0.00262921
0.00262925
0.00262612
0.00262111
0.00258647
0.00261926
0.00261946
0.00258959
0.00258934
0.00262128
0.00258626
0.00261921
0.00261945
0.00258962
0.0025893
0.00261919
0.00258937
0.00258957
0.00262116
0.00258619
0.00261911
0.0025893
0.00258956
0.0025864
0.00258144
0.00254692
0.00257959
0.0025795
0.00254998
0.00254999
0.00258113
0.00254708
0.00257955
0.00257953
0.00255001
0.00254999
0.00257961
0.00255007
0.00254996
0.00258107
0.00254696
0.00257957
0.00254999
0.00254992
0.00254679
0.00254193
0.00250775
0.00254013
0.00254023
0.00251073
0.00251061
0.00254214
0.00250757
0.00254009
0.00254025
0.00251078
0.00251065
0.00254031
0.00251072
0.00251069
0.00254198
0.00250757
0.00254025
0.00251064
0.00251066
0.00250763
0.00250271
0.00246917
0.00250091
0.00250076
0.00247187
0.00247198
0.00250243
0.00246957
0.00250092
0.00250099
0.00247189
0.0024718
0.0025008
0.00247196
0.00247192
0.00250261
0.00246908
0.00250075
0.00247178
0.00247188
0.0024692
0.0024643
0.0024296
0.00246219
0.00246214
0.00243291
0.00243294
0.00246456
0.00242966
0.00246219
0.002462
0.00243291
0.00243301
0.00246206
0.00243289
0.002433
0.00246397
0.00242977
0.002462
0.00243293
0.00243303
0.00243017
0.00242475
0.00239216
0.00242332
0.0024233
0.00239452
0.00239448
0.00242478
0.00239207
0.0024233
0.00242342
0.00239455
0.00239451
0.00242337
0.00239446
0.00239445
0.00242511
0.00239207
0.00242337
0.00239447
0.00239443
0.00239158
0.00238699
0.0023528
0.00238481
0.00238486
0.00235613
0.00235595
0.00238708
0.00235317
0.00238481
0.00238478
0.00235611
0.00235618
0.00238483
0.00235601
0.0023561
0.00238692
0.00235345
0.00238481
0.00235618
0.00235613
0.00235356
0.00234815
0.00231568
0.0023466
0.00234655
0.00231798
0.00231802
0.00234815
0.00231583
0.00234663
0.00234665
0.00231795
0.00231787
0.00234652
0.00231802
0.00231802
0.00234871
0.00231514
0.0023465
0.00231789
0.00231802
0.00231537
0.00231061
0.00227762
0.00230847
0.00230852
0.00228005
0.00228012
0.00231106
0.00227735
0.00230847
0.00230848
0.00228004
0.00228003
0.00230855
0.00228011
0.00227998
0.00231018
0.00227781
0.00230856
0.00228004
0.00228
0.00227735
0.00227271
0.00223933
0.00227053
0.00227061
0.00224209
0.00224198
0.00227245
0.00223959
0.00227051
0.0022705
0.00224211
0.00224215
0.00227054
0.00224199
0.00224211
0.00227282
0.00223948
0.00227052
0.00224213
0.00224211
0.00223976
0.00223446
0.00220203
0.00223267
0.00223246
0.0022044
0.00220459
0.00223471
0.00220125
0.0022327
0.00223271
0.00220442
0.0022044
0.00223265
0.00220459
0.00220447
0.00223464
0.00220187
0.00223266
0.00220442
0.0022045
0.00220181
0.0021971
0.00216446
0.00219507
0.00219542
0.00216719
0.00216714
0.0021967
0.0021647
0.00219506
0.00219505
0.00216711
0.0021671
0.00219511
0.00216714
0.00216707
0.00219695
0.00216451
0.00219513
0.00216706
0.00216698
0.00216453
0.00215957
0.00212697
0.00215774
0.00215758
0.0021294
0.0021293
0.00215977
0.00212683
0.00215772
0.00215774
0.00212946
0.00212946
0.00215773
0.0021293
0.00212947
0.00215964
0.00212697
0.00215765
0.00212951
0.00212953
0.00212696
0.00212202
0.00208971
0.00212008
0.00211996
0.00209224
0.00209223
0.00212189
0.00208982
0.00212012
0.00212009
0.00209222
0.00209229
0.00212007
0.00209224
0.00209224
0.00212207
0.00208973
0.00212013
0.00209224
0.00209226
0.00208973
0.00208482
0.0020526
0.00208294
0.002083
0.00205503
0.00205513
0.00208496
0.00205268
0.00208289
0.00208302
0.00205505
0.00205499
0.00208302
0.00205514
0.00205503
0.00208483
0.00205259
0.00208301
0.00205504
0.00205504
0.0020526
0.00204772
0.0020157
0.00204579
0.00204588
0.00201819
0.00201799
0.00204784
0.00201547
0.00204583
0.00204571
0.00201817
0.00201818
0.00204574
0.00201799
0.0020182
0.00204774
0.00201575
0.00204575
0.00201816
0.0020182
0.00201579
0.00201075
0.00197872
0.00200886
0.00200874
0.00198107
0.00198126
0.00201063
0.00197898
0.00200882
0.00200899
0.00198107
0.00198116
0.002009
0.00198126
0.00198107
0.00201087
0.00197877
0.00200899
0.00198117
0.00198106
0.00197863
0.00197393
0.00194251
0.00197197
0.00197218
0.00194477
0.00194453
0.0019742
0.00194203
0.00197199
0.00197195
0.00194478
0.00194458
0.00197186
0.00194451
0.00194469
0.00197395
0.00194221
0.00197186
0.00194458
0.00194468
0.00194247
0.00193758
0.00190526
0.00193554
0.00193526
0.00190765
0.00190778
0.00193714
0.00190553
0.00193554
0.00193539
0.00190764
0.00190774
0.00193565
0.0019078
0.00190776
0.00193732
0.00190546
0.00193565
0.00190774
0.00190776
0.00190528
0.00190047
0.0018694
0.00189851
0.00189872
0.0018715
0.0018716
0.00190075
0.00186945
0.0018985
0.00189866
0.0018715
0.00187161
0.00189847
0.0018716
0.00187137
0.00190068
0.0018695
0.00189847
0.00187162
0.00187137
0.00186924
0.00186464
0.00183293
0.00186253
0.00186252
0.00183534
0.00183506
0.0018646
0.00183273
0.00186253
0.00186257
0.00183535
0.00183512
0.00186246
0.00183505
0.00183545
0.00186469
0.00183272
0.00186245
0.00183507
0.00183546
0.00183313
0.00182806
0.00179679
0.00182616
0.00182598
0.0017989
0.00179903
0.00182797
0.00179694
0.00182615
0.00182597
0.00179889
0.00179902
0.00182627
0.00179906
0.00179882
0.00182795
0.00179692
0.00182628
0.00179904
0.00179883
0.0017967
0.001792
0.00176085
0.00178991
0.00179007
0.001763
0.00176302
0.00179216
0.00176073
0.00178991
0.00179008
0.00176303
0.00176304
0.00178983
0.00176297
0.00176304
0.00179214
0.00176078
0.00178982
0.00176303
0.00176303
0.00176088
0.00175608
0.00172493
0.00175403
0.00175393
0.00172707
0.00172699
0.00175591
0.00172497
0.00175403
0.00175393
0.00172704
0.00172699
0.00175406
0.00172707
0.00172704
0.00175593
0.00172493
0.00175409
0.00172698
0.00172705
0.00172492
0.00172015
0.00168924
0.0017181
0.00171812
0.00169135
0.00169143
0.00172022
0.00168922
0.00171809
0.0017181
0.00169136
0.00169141
0.0017181
0.00169136
0.00169135
0.00172018
0.00168928
0.00171806
0.00169143
0.00169132
0.00168923
0.00168449
0.00165366
0.00168244
0.00168245
0.00165574
0.00165569
0.00168444
0.0016537
0.00168245
0.00168249
0.00165573
0.00165575
0.00168241
0.00165577
0.00165573
0.00168452
0.00165366
0.00168244
0.00165574
0.00165582
0.00165371
0.00164892
0.00161829
0.00164687
0.00164688
0.00162037
0.0016204
0.00164898
0.00161824
0.00164686
0.00164686
0.00162035
0.00162032
0.00164692
0.00162036
0.00162041
0.00164892
0.00161824
0.00164694
0.00162031
0.00162028
0.00161823
0.00161355
0.00158288
0.00161153
0.00161148
0.00158494
0.0015848
0.00161347
0.0015828
0.00161153
0.00161148
0.00158498
0.00158495
0.00161149
0.00158478
0.00158485
0.0016135
0.00158289
0.0016114
0.00158496
0.00158498
0.00158289
0.00157814
0.00154765
0.00157608
0.00157603
0.00154968
0.00154987
0.0015781
0.00154792
0.00157611
0.00157609
0.00154963
0.00154966
0.00157607
0.00154998
0.00154983
0.00157816
0.00154765
0.0015762
0.0015497
0.00154974
0.00154772
0.00154295
0.00151261
0.00154095
0.00154116
0.00151466
0.00151451
0.00154322
0.00151241
0.00154089
0.00154091
0.00151468
0.00151472
0.00154105
0.00151442
0.00151454
0.00154295
0.00151264
0.0015409
0.00151471
0.00151456
0.0015125
0.00150789
0.00147754
0.00150586
0.00150568
0.00147957
0.00147957
0.00150768
0.00147752
0.00150592
0.00150597
0.00147961
0.0014795
0.00150571
0.0014795
0.00147951
0.00150794
0.00147743
0.00150583
0.00147942
0.00147958
0.00147752
0.00147283
0.00144252
0.00147083
0.00147086
0.0014446
0.00144463
0.00147284
0.00144264
0.00147082
0.00147067
0.00144452
0.00144452
0.00147084
0.00144473
0.00144473
0.0014727
0.00144257
0.00147081
0.00144462
0.00144464
0.00144263
0.00143783
0.00140785
0.00143585
0.0014359
0.0014098
0.00140984
0.00143794
0.00140779
0.00143579
0.00143589
0.00140987
0.00141001
0.00143596
0.00140982
0.00140971
0.00143792
0.00140793
0.00143592
0.00140999
0.0014098
0.00140777
0.00140322
0.00137327
0.00140122
0.00140117
0.00137534
0.00137525
0.00140312
0.0013732
0.00140129
0.00140134
0.00137535
0.00137527
0.0014011
0.00137523
0.00137537
0.00140325
0.00137316
0.00140114
0.00137515
0.0013753
0.00137325
0.00136857
0.00133863
0.00136663
0.0013666
0.00134068
0.00134075
0.00136855
0.00133874
0.00136662
0.00136655
0.00134061
0.0013406
0.00136674
0.00134077
0.00134073
0.00136848
0.00133862
0.00136666
0.00134068
0.00134071
0.00133869
0.001334
0.00130433
0.00133213
0.00133217
0.00130639
0.00130633
0.0013341
0.00130425
0.00133206
0.00133204
0.0013064
0.00130639
0.00133212
0.00130631
0.00130631
0.001334
0.00130436
0.00133211
0.00130641
0.00130633
0.00130427
0.00129965
0.00126982
0.0012977
0.00129764
0.0012718
0.00127183
0.00129957
0.00126982
0.00129774
0.00129776
0.00127185
0.00127193
0.00129764
0.00127183
0.00127182
0.00129969
0.00126992
0.00129768
0.00127192
0.00127187
0.00126984
0.00126524
0.00123639
0.00126334
0.00126339
0.00123832
0.00123836
0.00126524
0.00123643
0.00126338
0.00126346
0.00123831
0.00123833
0.00126337
0.00123836
0.00123836
0.00126533
0.00123634
0.00126342
0.00123833
0.00123835
0.00123641
0.00123186
0.00120187
0.00122998
0.00122998
0.00120404
0.00120402
0.00123187
0.00120188
0.00122994
0.00122989
0.00120402
0.00120399
0.00122999
0.00120403
0.00120404
0.00123175
0.00120185
0.00122995
0.00120399
0.00120401
0.00120187
0.00119714
0.00116691
0.00119529
0.00119528
0.00116903
0.00116902
0.00119715
0.00116689
0.00119528
0.00119526
0.00116904
0.00116903
0.00119528
0.00116903
0.00116902
0.00119713
0.0011669
0.00119527
0.00116902
0.00116903
0.00116689
0.0011622
0.00113272
0.00116031
0.0011603
0.00113453
0.00113455
0.00116219
0.00113274
0.00116031
0.0011603
0.00113453
0.00113455
0.00116029
0.00113455
0.00113452
0.0011622
0.00113274
0.0011603
0.00113455
0.00113453
0.00113273
0.00112815
0.00109956
0.00112609
0.0011261
0.00110128
0.00110129
0.00112816
0.00109957
0.00112608
0.0011261
0.00110128
0.00110129
0.00112609
0.0011013
0.00110129
0.00112816
0.00109957
0.0011261
0.0011013
0.00110129
0.00109957
0.00109523
0.00106714
0.0010933
0.0010933
0.00106931
0.00106929
0.00109524
0.00106713
0.0010933
0.00109331
0.00106932
0.00106931
0.00109331
0.00106929
0.00106932
0.00109525
0.00106714
0.00109331
0.0010693
0.00106931
0.00106714
0.00106273
0.00103437
0.00106118
0.00106117
0.00103657
0.00103656
0.00106272
0.00103436
0.00106119
0.00106118
0.00103657
0.00103656
0.00106118
0.00103656
0.00103656
0.00106273
0.00103436
0.00106118
0.00103656
0.00103656
0.00103436
0.00102982
0.000999864
0.00102818
0.00102817
0.00100209
0.00100208
0.00102981
0.000999857
0.00102818
0.00102818
0.00100209
0.00100208
0.00102817
0.00100208
0.00100208
0.00102982
0.000999857
0.00102817
0.00100209
0.00100208
0.000999855
0.000994928
0.000961985
0.000992997
0.000992977
0.00096432
0.000964318
0.000994919
0.000961986
0.000992996
0.000992984
0.000964319
0.000964316
0.000992987
0.000964317
0.000964316
0.000994921
0.000961982
0.000992985
0.000964316
0.000964316
0.000961983
0.00095658
0.000922499
0.000954333
0.000954336
0.000924449
0.000924454
0.000956585
0.000922504
0.000954332
0.000954331
0.000924448
0.000924451
0.000954333
0.000924455
0.000924452
0.000956581
0.000922501
0.000954332
0.000924454
0.000924453
0.000922501
0.000917135
0.000883807
0.00091457
0.000914572
0.000885603
0.000885602
0.000917138
0.000883806
0.000914568
0.00091457
0.000885602
0.000885603
0.000914571
0.000885602
0.000885602
0.000917137
0.000883808
0.000914571
0.000885603
0.000885602
0.000883806
0.00087879
0.00084841
0.000876348
0.000876347
0.000850135
0.000850136
0.000878789
0.000848412
0.000876349
0.000876349
0.000850134
0.000850135
0.000876347
0.000850136
0.000850133
0.000878791
0.00084841
0.000876347
0.000850134
0.000850133
0.000848408
0.000843962
0.000816765
0.000841951
0.000841956
0.000818768
0.000818766
0.000843966
0.000816763
0.000841952
0.000841953
0.000818768
0.000818766
0.00084195
0.000818766
0.000818767
0.000843963
0.000816764
0.00084195
0.000818767
0.000818767
0.000816763
0.000812648
0.000787358
0.000811228
0.000811226
0.000789272
0.000789271
0.000812647
0.000787357
0.000811228
0.000811227
0.000789272
0.000789271
0.000811227
0.000789271
0.000789271
0.000812648
0.000787358
0.000811227
0.000789272
0.000789271
0.000787356
0.000783494
0.000758613
0.000782132
0.000782132
0.000760461
0.000760462
0.000783494
0.000758613
0.000782132
0.000782131
0.00076046
0.000760461
0.000782131
0.000760462
0.000760461
0.000783494
0.000758612
0.000782131
0.000760461
0.000760461
0.000758612
0.000754568
0.000727706
0.000753002
0.000753003
0.000729629
0.000729629
0.000754569
0.000727707
0.000753001
0.000753003
0.000729628
0.000729629
0.000753003
0.000729629
0.000729629
0.000754569
0.000727706
0.000753003
0.000729628
0.000729628
0.000727705
0.000723274
0.000694218
0.000721492
0.000721491
0.000696221
0.000696221
0.000723274
0.000694217
0.000721491
0.000721492
0.000696221
0.000696221
0.000721492
0.000696221
0.000696221
0.000723275
0.000694217
0.000721492
0.00069622
0.00069622
0.000694217
0.000689511
0.000659106
0.000687568
0.000687568
0.000661152
0.000661152
0.00068951
0.000659106
0.000687568
0.000687569
0.000661152
0.000661152
0.000687569
0.000661152
0.000661152
0.000689511
0.000659106
0.000687568
0.000661152
0.000661152
0.000659106
0.00065426
0.000623213
0.000652235
0.000652235
0.000625276
0.000625276
0.00065426
0.000623213
0.000652235
0.000652235
0.000625275
0.000625276
0.000652235
0.000625276
0.000625276
0.00065426
0.000623213
0.000652235
0.000625276
0.000625276
0.000623212
0.000618304
0.000586977
0.00061624
0.00061624
0.000589046
0.000589046
0.000618304
0.000586977
0.000616239
0.00061624
0.000589046
0.000589046
0.00061624
0.000589046
0.000589046
0.000618304
0.000586976
0.00061624
0.000589046
0.000589046
0.000586976
0.000582043
0.00055062
0.000579963
0.000579963
0.000552692
0.000552692
0.000582043
0.000550621
0.000579963
0.000579963
0.000552692
0.000552692
0.000579963
0.000552693
0.000552692
0.000582044
0.00055062
0.000579963
0.000552692
0.000552693
0.00055062
0.000545682
0.00051423
0.000543599
0.000543598
0.000516303
0.000516303
0.000545682
0.00051423
0.000543598
0.000543598
0.000516303
0.000516303
0.000543599
0.000516303
0.000516303
0.000545682
0.000514229
0.000543599
0.000516303
0.000516303
0.000514229
0.000509286
0.000477822
0.000507201
0.000507201
0.000479895
0.000479895
0.000509286
0.000477822
0.000507201
0.000507201
0.000479895
0.000479896
0.000507201
0.000479895
0.000479895
0.000509287
0.000477822
0.000507201
0.000479896
0.000479895
0.000477821
0.00047288
0.00044142
0.000470795
0.000470795
0.000443494
0.000443494
0.00047288
0.00044142
0.000470795
0.000470795
0.000443494
0.000443494
0.000470795
0.000443494
0.000443494
0.00047288
0.00044142
0.000470795
0.000443494
0.000443494
0.000441419
0.000436478
0.000405011
0.000434393
0.000434392
0.000407084
0.000407084
0.000436477
0.000405011
0.000434393
0.000434393
0.000407084
0.000407084
0.000434392
0.000407084
0.000407084
0.000436478
0.000405011
0.000434392
0.000407084
0.000407084
0.00040501
0.000400068
0.000368609
0.000397983
0.000397983
0.000370682
0.000370682
0.000400068
0.000368609
0.000397983
0.000397983
0.000370682
0.000370682
0.000397983
0.000370682
0.000370683
0.000400068
0.000368609
0.000397983
0.000370682
0.000370682
0.000368609
0.000363667
0.000332207
0.000361583
0.000361583
0.000334279
0.000334279
0.000363667
0.000332207
0.000361583
0.000361583
0.000334279
0.000334279
0.000361583
0.000334279
0.000334279
0.000363668
0.000332207
0.000361583
0.000334279
0.000334279
0.000332206
0.000327264
0.000295804
0.000325179
0.000325179
0.000297877
0.000297877
0.000327264
0.000295804
0.000325179
0.000325179
0.000297877
0.000297877
0.000325179
0.000297877
0.000297877
0.000327264
0.000295804
0.000325179
0.000297877
0.000297877
0.000295804
0.000290861
0.000259403
0.000288778
0.000288778
0.000261475
0.000261475
0.000290861
0.000259403
0.000288778
0.000288778
0.000261475
0.000261475
0.000288778
0.000261475
0.000261476
0.000290862
0.000259403
0.000288778
0.000261475
0.000261475
0.000259402
0.000254459
0.000223
0.000252377
0.000252377
0.000225071
0.000225071
0.000254459
0.000223
0.000252377
0.000252377
0.000225071
0.000225071
0.000252377
0.000225071
0.000225071
0.000254459
0.000223
0.000252376
0.000225071
0.000225071
0.000223
0.000218055
0.000186601
0.000215974
0.000215974
0.000188671
0.000188671
0.000218055
0.000186601
0.000215974
0.000215975
0.000188671
0.000188671
0.000215975
0.000188671
0.000188671
0.000218055
0.000186601
0.000215975
0.000188671
0.000188671
0.0001866
0.000181651
0.0001502
0.000179573
0.000179573
0.000152267
0.000152267
0.000181651
0.0001502
0.000179573
0.000179573
0.000152267
0.000152267
0.000179574
0.000152266
0.000152267
0.000181651
0.000150199
0.000179573
0.000152267
0.000152267
0.0001502
0.000145242
0.000113796
0.000143172
0.000143172
0.000115859
0.000115859
0.000145242
0.000113796
0.000143172
0.000143172
0.000115859
0.000115858
0.000143173
0.000115858
0.000115858
0.000145242
0.000113795
0.000143172
0.000115858
0.000115858
0.000113794
0.000108818
7.73877e-05
0.000106765
0.000106765
7.94448e-05
7.94444e-05
0.000108818
7.73878e-05
0.000106765
0.000106764
7.9444e-05
7.94426e-05
0.000106763
7.94445e-05
7.94434e-05
0.000108817
7.73857e-05
0.000106764
7.94424e-05
7.94427e-05
7.73853e-05
7.2373e-05
4.10185e-05
7.03532e-05
7.03528e-05
4.3072e-05
4.30716e-05
7.23729e-05
4.10173e-05
7.03524e-05
7.03506e-05
4.30704e-05
4.30671e-05
7.03509e-05
4.30698e-05
4.3067e-05
7.23709e-05
4.10132e-05
7.035e-05
4.30664e-05
4.30663e-05
4.10127e-05
3.60324e-05
8.50628e-06
3.41611e-05
3.41612e-05
1.15352e-05
1.15366e-05
3.60306e-05
8.50788e-06
3.41596e-05
3.41557e-05
1.15385e-05
1.15324e-05
3.41556e-05
1.15379e-05
1.15322e-05
3.60272e-05
8.50305e-06
3.41554e-05
1.15348e-05
1.15362e-05
8.5045e-06
5.27595e-06
7.02045e-06
7.0206e-06
5.27678e-06
7.02256e-06
7.0171e-06
6.13241e-06
6.13082e-06
6.13156e-06
7.01868e-06
5.27207e-06
7.02077e-06
0.00353627
0.00353882
0.00353761
0.00353762
0.00356501
0.00353872
0.00356826
0.00353902
0.003565
0.00353877
0.00353904
0.00356831
0.00354978
0.00357158
0.00357153
0.00350899
0.00352243
0.00352636
0.00350121
0.00349905
0.00350475
0.00350899
0.00352244
0.00352633
0.00350121
0.00352478
0.00352476
0.00352476
0.00349823
0.00349825
0.00349823
0.00349822
0.00350848
0.00352003
0.00352534
0.0035161
0.00352743
0.00350568
0.00351631
0.00349928
0.0035047
0.00350851
0.00352535
0.0035201
0.00351605
0.00352745
0.00351629
0.00350568
0.00352619
0.00352626
0.0035133
0.00350557
0.00350555
0.00348142
0.00349551
0.00349545
0.00347935
0.00349293
0.00347823
0.0034813
0.00349551
0.00349545
0.00347933
0.0034892
0.00348919
0.00348919
0.00346106
0.00346109
0.00346107
0.00346107
0.00347912
0.003494
0.00348766
0.00347834
0.00349243
0.00347959
0.00347826
0.00349271
0.00347831
0.00347913
0.00348767
0.003494
0.00347831
0.00349242
0.00347826
0.00347961
0.00349573
0.00349575
0.00347678
0.00347994
0.00347997
0.00343894
0.00345364
0.00345456
0.00343749
0.00345232
0.00343649
0.00343887
0.00345356
0.00345457
0.00343758
0.00345106
0.00345105
0.00345104
0.00341844
0.00341847
0.00341844
0.00341843
0.00343768
0.00345317
0.00344907
0.00343864
0.00345216
0.00343809
0.0034386
0.00345246
0.00343667
0.00343767
0.00344911
0.00345316
0.00343861
0.00345216
0.0034386
0.00343815
0.00345393
0.00345395
0.00343596
0.00343789
0.00343788
0.00339256
0.00340903
0.00341046
0.00339108
0.00340836
0.00339065
0.00339255
0.00340893
0.0034104
0.00339109
0.00340688
0.00340685
0.00340684
0.00337075
0.00337077
0.00337075
0.00337074
0.00339167
0.0034088
0.00340515
0.00339336
0.00340823
0.00339182
0.00339335
0.00340822
0.00339054
0.00339168
0.00340515
0.00340881
0.00339331
0.00340823
0.00339333
0.00339181
0.00340904
0.00340904
0.00339007
0.00339119
0.00339121
0.00334345
0.00336057
0.00336197
0.00334223
0.00336016
0.00334197
0.00334345
0.00336059
0.00336191
0.00334222
0.00335855
0.00335853
0.00335852
0.0033219
0.00332191
0.0033219
0.00332189
0.00334302
0.00336061
0.00335707
0.00334478
0.00336025
0.00334295
0.00334479
0.00336014
0.00334192
0.00334301
0.00335704
0.00336058
0.00334478
0.0033602
0.00334479
0.00334293
0.0033606
0.00336059
0.00334149
0.00334236
0.00334236
0.00329449
0.00331168
0.00331272
0.00329361
0.0033114
0.00329338
0.00329443
0.00331169
0.00331269
0.00329359
0.00330978
0.00330977
0.00330976
0.00327372
0.00327373
0.00327373
0.00327372
0.0032944
0.00331171
0.00330839
0.0032963
0.00331149