/*--------------------------------*- C++ -*----------------------------------*\
| =========                 |                                                 |
| \\      /  F ield         | OpenFOAM: The Open Source CFD Toolbox           |
|  \\    /   O peration     | Version:  v2006                                 |
|   \\  /    A nd           | Website:  www.openfoam.com                      |
|    \\/     M anipulation  |                                                 |
\*---------------------------------------------------------------------------*/
FoamFile
{
    version     2.0;
    format      ascii;
    class       volScalarField;
    location    "1000";
    object      k;
}
// * * * * * * * * * * * * * * * * * * * * * * * * * * * * * * * * * * * * * //

dimensions      [0 2 -2 0 0 0 0];


internalField   nonuniform List<scalar> 
14374
(
5.28509e-05
5.28395e-05
5.48034e-05
5.2899e-05
5.2873e-05
5.4746e-05
4.22417e-05
4.22587e-05
7.41776e-05
6.52583e-05
6.52178e-05
7.41494e-05
7.19681e-05
7.05279e-05
7.05579e-05
7.19609e-05
4.86686e-05
6.53115e-05
6.1166e-05
4.86702e-05
6.52497e-05
6.11606e-05
7.41736e-05
6.90017e-05
7.41535e-05
6.90004e-05
7.04535e-05
7.04837e-05
7.19389e-05
7.19405e-05
7.41505e-05
7.41311e-05
7.19311e-05
7.4693e-05
6.57755e-05
7.04808e-05
7.4023e-05
6.57263e-05
7.39827e-05
7.47523e-05
7.46731e-05
6.58211e-05
7.05374e-05
7.40087e-05
7.39825e-05
6.57856e-05
7.47213e-05
9.57611e-05
7.42905e-05
7.42849e-05
7.42484e-05
7.4246e-05
9.59155e-05
7.19301e-05
7.23958e-05
7.41562e-05
8.03527e-05
8.04131e-05
7.24655e-05
7.25798e-05
6.89464e-05
7.20485e-05
7.23583e-05
7.20308e-05
7.23531e-05
7.25904e-05
7.24005e-05
7.41392e-05
8.03297e-05
8.03968e-05
7.24672e-05
7.25781e-05
6.89477e-05
7.20498e-05
7.23573e-05
7.20357e-05
7.23525e-05
7.25879e-05
7.45765e-05
6.56907e-05
7.04454e-05
7.39563e-05
7.4589e-05
6.56786e-05
7.39391e-05
7.46309e-05
6.57311e-05
7.04903e-05
7.39649e-05
7.46382e-05
6.57264e-05
7.39516e-05
9.5624e-05
7.42185e-05
7.4209e-05
9.56955e-05
7.41969e-05
7.41908e-05
7.19102e-05
7.19148e-05
6.64776e-05
5.47771e-05
6.02832e-05
6.03095e-05
6.02463e-05
6.02768e-05
6.65231e-05
6.64081e-05
5.47467e-05
6.02083e-05
6.02259e-05
6.64164e-05
6.02028e-05
6.0223e-05
3.66017e-05
3.6616e-05
6.09392e-05
6.52243e-05
6.08988e-05
6.0896e-05
6.5212e-05
6.08832e-05
5.81726e-05
6.10136e-05
6.53003e-05
6.47405e-05
5.81917e-05
6.0987e-05
6.47221e-05
5.7101e-05
6.11253e-05
5.59173e-05
6.28326e-05
5.7111e-05
5.59026e-05
6.27959e-05
5.81478e-05
6.09505e-05
6.52581e-05
6.46977e-05
6.46925e-05
6.09464e-05
5.81506e-05
5.70892e-05
6.1123e-05
5.59122e-05
6.28136e-05
5.59007e-05
6.27848e-05
5.70906e-05
4.17675e-05
5.30653e-05
5.48397e-05
4.16053e-05
5.26024e-05
5.43962e-05
5.48666e-05
5.4391e-05
5.30553e-05
5.30606e-05
5.26956e-05
5.26792e-05
5.48835e-05
5.30463e-05
5.30204e-05
5.26916e-05
5.26745e-05
5.30355e-05
5.2688e-05
5.48337e-05
5.43722e-05
5.30239e-05
5.26737e-05
5.26848e-05
5.43951e-05
5.43844e-05
5.26149e-05
5.26125e-05
5.25997e-05
5.26245e-05
5.43678e-05
5.26235e-05
6.8746e-05
7.38175e-05
6.89462e-05
7.37923e-05
7.15708e-05
7.15608e-05
6.87461e-05
7.37959e-05
4.17676e-05
4.17563e-05
4.17641e-05
4.16621e-05
4.16576e-05
4.16428e-05
4.16586e-05
6.10718e-05
6.52002e-05
4.87628e-05
5.29309e-05
6.12982e-05
6.50008e-05
4.8707e-05
7.15734e-05
7.15713e-05
6.10621e-05
5.28963e-05
4.86798e-05
6.50106e-05
7.01276e-05
7.01269e-05
5.45745e-05
6.9987e-05
7e-05
7.37789e-05
7.37829e-05
6.85036e-05
4.16e-05
4.15896e-05
4.16108e-05
7.15527e-05
4.84064e-05
6.47995e-05
6.08147e-05
6.99226e-05
6.99409e-05
7.15717e-05
7.15654e-05
7.15688e-05
7.02094e-05
5.46144e-05
7.00789e-05
7.00864e-05
7.15542e-05
7.15587e-05
7.15575e-05
7.15625e-05
5.4585e-05
6.98864e-05
6.99021e-05
7.00335e-05
7.0046e-05
6.87433e-05
7.38135e-05
6.89448e-05
7.37854e-05
6.11009e-05
6.52054e-05
4.87583e-05
5.29303e-05
6.13121e-05
6.50331e-05
4.87091e-05
6.10983e-05
6.52127e-05
4.87561e-05
5.29322e-05
6.13115e-05
6.50164e-05
4.87089e-05
6.86671e-05
7.37787e-05
7.3784e-05
6.85287e-05
6.8664e-05
7.37734e-05
7.37768e-05
6.85259e-05
6.10124e-05
5.28072e-05
6.48263e-05
4.85024e-05
6.49698e-05
4.86064e-05
6.08556e-05
6.10092e-05
5.27976e-05
6.47956e-05
4.84982e-05
6.49474e-05
4.86048e-05
6.08514e-05
7.02237e-05
7.01974e-05
5.4611e-05
7.00534e-05
7.00283e-05
7.15653e-05
7.15573e-05
7.15533e-05
5.4575e-05
7.00002e-05
6.9979e-05
7.15515e-05
6.10902e-05
4.87511e-05
5.29211e-05
6.50343e-05
4.86919e-05
6.87402e-05
7.38113e-05
6.89212e-05
7.37922e-05
6.10861e-05
4.87439e-05
6.51746e-05
5.28977e-05
6.12745e-05
4.86824e-05
6.50236e-05
6.86722e-05
7.37832e-05
7.37885e-05
6.85417e-05
6.10079e-05
5.28005e-05
6.48365e-05
4.84922e-05
6.49745e-05
4.85909e-05
6.08661e-05
6.86687e-05
7.37816e-05
7.37863e-05
6.85401e-05
6.10045e-05
5.27802e-05
4.84856e-05
6.48364e-05
4.85827e-05
6.4968e-05
6.08644e-05
6.87186e-05
7.38112e-05
6.89261e-05
7.37832e-05
6.10677e-05
4.87618e-05
6.51545e-05
5.29012e-05
6.12942e-05
4.86977e-05
6.497e-05
6.87147e-05
7.38034e-05
6.89241e-05
7.37801e-05
6.09836e-05
5.27943e-05
4.84908e-05
6.49326e-05
4.85965e-05
6.08399e-05
6.86441e-05
7.3776e-05
6.85241e-05
6.09803e-05
5.27837e-05
4.84903e-05
6.48364e-05
4.85896e-05
6.49176e-05
6.08414e-05
6.86405e-05
7.37843e-05
7.37763e-05
6.85239e-05
7.01848e-05
5.45855e-05
7.00859e-05
7.00638e-05
7.1568e-05
7.15576e-05
7.15651e-05
5.45577e-05
6.99083e-05
6.99123e-05
7.00512e-05
7.00322e-05
7.1559e-05
7.15627e-05
6.10585e-05
4.8753e-05
6.51458e-05
5.28913e-05
6.12614e-05
4.86792e-05
6.49757e-05
6.8719e-05
7.37909e-05
6.87156e-05
7.38047e-05
6.89035e-05
7.37847e-05
6.09824e-05
5.27778e-05
4.84806e-05
6.48386e-05
4.85758e-05
6.49567e-05
6.08578e-05
6.09792e-05
5.27772e-05
4.84823e-05
6.48502e-05
4.85751e-05
6.49261e-05
6.08557e-05
6.86509e-05
7.37856e-05
7.37862e-05
6.8544e-05
6.86478e-05
7.37898e-05
7.37815e-05
6.85399e-05
7.15563e-05
7.15608e-05
7.15596e-05
7.15657e-05
5.45492e-05
6.99315e-05
6.99501e-05
6.99649e-05
6.99803e-05
7.15727e-05
7.15603e-05
7.15777e-05
7.15656e-05
7.15511e-05
7.15538e-05
6.98438e-05
6.98568e-05
6.47825e-05
6.4791e-05
4.84108e-05
6.08124e-05
7.37809e-05
6.85032e-05
4.84059e-05
6.47906e-05
6.08111e-05
4.84139e-05
6.48168e-05
6.0799e-05
7.37884e-05
6.84987e-05
6.98607e-05
6.98715e-05
7.15548e-05
4.84112e-05
6.48299e-05
6.08145e-05
7.37865e-05
6.85157e-05
7.37934e-05
6.85134e-05
7.15724e-05
7.15771e-05
7.22522e-05
6.87987e-05
7.20381e-05
7.17353e-05
7.20377e-05
7.1784e-05
7.22517e-05
7.2059e-05
8.00727e-05
7.38102e-05
7.20614e-05
8.00165e-05
7.22591e-05
6.88906e-05
7.20435e-05
7.19305e-05
7.22615e-05
7.20418e-05
7.18785e-05
7.20449e-05
7.98952e-05
7.37965e-05
7.99401e-05
7.20447e-05
7.15697e-05
7.15613e-05
7.22541e-05
6.87924e-05
7.174e-05
7.20394e-05
7.17821e-05
7.20383e-05
7.22542e-05
7.20617e-05
7.38121e-05
8.00171e-05
7.22593e-05
6.88784e-05
7.18717e-05
7.2041e-05
7.20482e-05
7.99037e-05
7.37995e-05
7.99437e-05
7.20481e-05
7.15751e-05
7.15701e-05
9.50607e-05
7.38073e-05
7.38047e-05
7.38024e-05
7.38e-05
9.50431e-05
7.43498e-05
6.56884e-05
7.35913e-05
7.00664e-05
7.44223e-05
6.56129e-05
7.35853e-05
7.43742e-05
6.56875e-05
7.35958e-05
7.00709e-05
7.44412e-05
6.56158e-05
7.35909e-05
9.50811e-05
7.38051e-05
7.38026e-05
9.51291e-05
7.38075e-05
7.3805e-05
7.42808e-05
7.35771e-05
7.00191e-05
6.54747e-05
6.55269e-05
7.35772e-05
7.42366e-05
7.43099e-05
7.3585e-05
7.00288e-05
6.54832e-05
6.55319e-05
7.35845e-05
7.42704e-05
7.20374e-05
7.9711e-05
7.37835e-05
7.20291e-05
7.96974e-05
7.20373e-05
7.97203e-05
7.37862e-05
7.20299e-05
7.9704e-05
7.22599e-05
6.84898e-05
7.1495e-05
7.20527e-05
7.22552e-05
7.14804e-05
7.20591e-05
7.1556e-05
7.40771e-05
6.53066e-05
7.35859e-05
6.99138e-05
7.4094e-05
6.53e-05
7.35914e-05
7.41184e-05
6.53195e-05
7.35956e-05
6.99305e-05
7.41353e-05
6.53132e-05
7.36006e-05
9.47909e-05
7.37964e-05
7.37919e-05
9.48697e-05
7.38004e-05
7.37947e-05
7.15718e-05
7.15654e-05
7.15738e-05
7.15681e-05
9.53013e-05
7.38178e-05
7.38162e-05
7.38268e-05
7.38254e-05
9.52152e-05
7.44761e-05
6.57523e-05
7.36226e-05
7.01626e-05
7.45312e-05
7.3616e-05
6.56907e-05
7.44961e-05
6.57486e-05
7.01596e-05
7.36182e-05
6.56882e-05
9.53505e-05
7.3845e-05
7.38435e-05
7.43995e-05
7.35954e-05
7.01191e-05
6.55504e-05
7.36017e-05
7.434e-05
6.56054e-05
7.44237e-05
7.36004e-05
7.01207e-05
6.5553e-05
7.36057e-05
7.43684e-05
6.56048e-05
7.15527e-05
7.15587e-05
7.15564e-05
7.15626e-05
9.49844e-05
7.37906e-05
7.37886e-05
9.5114e-05
7.37806e-05
7.37782e-05
7.41106e-05
6.53062e-05
6.99347e-05
7.35544e-05
7.3559e-05
6.53506e-05
7.40476e-05
7.41485e-05
6.53167e-05
6.99515e-05
7.35623e-05
7.35672e-05
6.53608e-05
7.40862e-05
7.41911e-05
7.35805e-05
6.54723e-05
6.99855e-05
7.42583e-05
7.35732e-05
6.54199e-05
7.42269e-05
7.35873e-05
6.54781e-05
7.00017e-05
7.42909e-05
7.3581e-05
6.54287e-05
9.48537e-05
7.37506e-05
7.37472e-05
7.37554e-05
7.37523e-05
9.47138e-05
7.22509e-05
6.87965e-05
7.20376e-05
7.17267e-05
7.20372e-05
7.17761e-05
7.22505e-05
7.2058e-05
8.00526e-05
7.38051e-05
7.20603e-05
7.99943e-05
7.22577e-05
6.88888e-05
7.20431e-05
7.19246e-05
7.20414e-05
7.22601e-05
7.18715e-05
7.2044e-05
7.98706e-05
7.37903e-05
7.99166e-05
7.20441e-05
7.22497e-05
7.20371e-05
7.16556e-05
6.86216e-05
7.22485e-05
7.20398e-05
7.16145e-05
7.20283e-05
7.37784e-05
7.97387e-05
7.20332e-05
7.9762e-05
7.20361e-05
7.98372e-05
7.37821e-05
7.20342e-05
7.98042e-05
7.22486e-05
6.85605e-05
7.20473e-05
7.15239e-05
7.22518e-05
7.20412e-05
7.15532e-05
7.22488e-05
7.20367e-05
7.16468e-05
6.86185e-05
7.22474e-05
7.20394e-05
7.16057e-05
7.20295e-05
7.37723e-05
7.97222e-05
7.97425e-05
7.20349e-05
7.20365e-05
7.98132e-05
7.37751e-05
7.20341e-05
7.97817e-05
7.22479e-05
6.85574e-05
7.2047e-05
7.15168e-05
7.20409e-05
7.15451e-05
7.22514e-05
9.52187e-05
7.37931e-05
7.38001e-05
7.38022e-05
7.38087e-05
9.51126e-05
7.44968e-05
6.57721e-05
7.36251e-05
7.01634e-05
7.36155e-05
7.45749e-05
6.5696e-05
7.44452e-05
6.57591e-05
7.36123e-05
7.01363e-05
6.56821e-05
7.4522e-05
7.36025e-05
9.53012e-05
7.3834e-05
7.38395e-05
7.38263e-05
9.53825e-05
7.38321e-05
7.44033e-05
7.35877e-05
7.01097e-05
6.55289e-05
7.35959e-05
6.55998e-05
7.43252e-05
7.43491e-05
7.35756e-05
7.0079e-05
6.55119e-05
6.55814e-05
7.3583e-05
7.42735e-05
7.15644e-05
7.15571e-05
7.15539e-05
9.48863e-05
7.37679e-05
7.37757e-05
9.50069e-05
7.37609e-05
7.37691e-05
7.41646e-05
7.35705e-05
6.5442e-05
6.99446e-05
6.53798e-05
7.42365e-05
7.35637e-05
7.41166e-05
7.35606e-05
6.54242e-05
6.99335e-05
7.41847e-05
7.35554e-05
6.53663e-05
7.1553e-05
7.22521e-05
6.87873e-05
7.20387e-05
7.17257e-05
7.20375e-05
7.17673e-05
7.22527e-05
7.20599e-05
8.0031e-05
7.38057e-05
7.20606e-05
7.99834e-05
7.22568e-05
6.88711e-05
7.20407e-05
7.18993e-05
7.204e-05
7.2258e-05
7.18532e-05
7.2048e-05
7.98782e-05
7.37951e-05
7.99145e-05
7.20487e-05
7.22531e-05
7.16637e-05
7.20393e-05
6.86319e-05
7.22515e-05
7.16272e-05
7.20431e-05
7.20308e-05
7.37831e-05
7.97515e-05
7.20349e-05
7.97755e-05
7.20392e-05
7.98481e-05
7.37868e-05
7.20376e-05
7.98182e-05
7.2252e-05
6.85728e-05
7.15365e-05
7.20507e-05
7.22549e-05
7.15658e-05
7.20448e-05
7.22524e-05
7.20386e-05
7.16546e-05
6.86282e-05
7.22503e-05
7.20426e-05
7.16199e-05
7.20327e-05
7.37817e-05
7.97416e-05
7.97634e-05
7.20367e-05
7.2041e-05
7.9828e-05
7.3785e-05
7.20388e-05
7.98023e-05
7.22515e-05
6.85713e-05
7.20503e-05
7.15347e-05
7.20444e-05
7.1563e-05
7.22547e-05
7.22462e-05
6.87724e-05
7.17023e-05
7.20338e-05
7.17529e-05
7.20331e-05
7.22464e-05
7.2052e-05
8.00436e-05
7.38022e-05
7.99772e-05
7.20534e-05
7.22526e-05
6.88643e-05
7.19041e-05
7.20393e-05
7.18446e-05
7.2255e-05
7.20374e-05
7.20389e-05
7.98561e-05
7.37879e-05
7.99061e-05
7.20403e-05
7.22452e-05
6.87687e-05
7.20332e-05
7.16936e-05
7.20325e-05
7.17447e-05
7.22454e-05
7.20501e-05
8.00309e-05
7.37949e-05
7.20522e-05
7.9965e-05
7.22519e-05
6.88612e-05
7.20388e-05
7.19015e-05
7.22545e-05
7.20368e-05
7.18401e-05
7.20376e-05
7.9837e-05
7.37832e-05
7.98864e-05
7.20388e-05
7.22468e-05
7.16299e-05
7.20335e-05
6.86023e-05
7.22442e-05
7.15917e-05
7.20377e-05
7.20353e-05
7.98073e-05
7.37752e-05
7.20309e-05
7.9776e-05
7.22473e-05
6.85494e-05
7.15168e-05
7.20489e-05
7.15405e-05
7.20404e-05
7.22534e-05
7.22461e-05
7.2033e-05
7.16196e-05
6.85994e-05
7.22434e-05
7.20372e-05
7.15831e-05
7.20315e-05
7.37782e-05
7.97183e-05
7.97285e-05
7.20396e-05
7.20357e-05
7.97839e-05
7.37771e-05
7.20309e-05
7.97558e-05
7.22471e-05
6.85477e-05
7.20488e-05
7.15151e-05
7.20402e-05
7.15342e-05
7.22541e-05
9.52954e-05
7.38185e-05
7.38246e-05
7.38261e-05
7.38317e-05
9.52409e-05
6.57206e-05
7.01461e-05
6.56635e-05
7.44106e-05
7.36028e-05
7.01144e-05
6.55356e-05
7.36075e-05
6.55838e-05
7.43608e-05
7.43624e-05
7.35922e-05
7.00922e-05
6.55205e-05
6.5571e-05
7.35967e-05
7.43126e-05
7.15661e-05
7.15574e-05
7.15647e-05
9.50278e-05
7.37916e-05
7.37987e-05
9.5151e-05
7.37805e-05
7.3788e-05
7.41524e-05
6.5308e-05
6.99598e-05
7.35627e-05
6.53501e-05
7.35688e-05
7.40927e-05
7.41085e-05
6.53023e-05
6.99551e-05
7.35585e-05
7.3563e-05
6.53409e-05
7.40517e-05
7.42272e-05
7.35907e-05
6.54636e-05
7.00091e-05
6.54165e-05
7.42889e-05
7.35839e-05
7.41812e-05
7.35808e-05
6.54494e-05
6.99967e-05
7.42408e-05
7.35755e-05
6.54032e-05
9.49024e-05
7.37465e-05
7.37547e-05
7.37528e-05
7.37608e-05
9.4763e-05
7.15577e-05
7.15636e-05
7.22483e-05
6.87642e-05
7.17069e-05
7.20353e-05
7.17472e-05
7.20338e-05
7.22495e-05
7.20445e-05
7.98696e-05
7.37932e-05
7.99085e-05
7.2047e-05
7.22477e-05
6.87633e-05
7.16994e-05
7.20349e-05
7.17447e-05
7.20334e-05
7.22486e-05
7.2054e-05
8.00259e-05
7.37974e-05
7.20553e-05
7.99669e-05
7.22526e-05
6.88479e-05
7.18871e-05
7.20372e-05
7.22542e-05
7.18328e-05
7.20362e-05
7.20423e-05
7.98495e-05
7.3787e-05
7.98938e-05
7.20438e-05
7.22518e-05
7.16415e-05
7.2036e-05
6.86161e-05
7.22482e-05
7.16114e-05
7.20418e-05
7.20351e-05
7.37845e-05
7.97587e-05
7.97753e-05
7.20412e-05
7.20423e-05
7.98281e-05
7.37859e-05
7.2038e-05
7.9803e-05
7.22526e-05
6.85669e-05
7.1543e-05
7.20532e-05
7.15637e-05
7.20448e-05
7.22586e-05
7.22504e-05
7.16304e-05
7.20354e-05
6.86113e-05
7.2247e-05
7.15972e-05
7.20412e-05
7.20356e-05
7.37839e-05
7.97357e-05
7.97463e-05
7.2043e-05
7.20405e-05
7.97994e-05
7.37827e-05
7.20358e-05
7.97738e-05
7.22514e-05
6.85629e-05
7.15304e-05
7.20529e-05
7.15497e-05
7.20442e-05
7.22581e-05
7.15584e-05
7.15555e-05
7.15621e-05
7.15599e-05
9.5018e-05
7.38029e-05
7.38005e-05
9.5035e-05
7.38077e-05
7.38043e-05
7.41382e-05
6.53278e-05
6.99407e-05
7.35846e-05
7.41179e-05
6.53447e-05
7.35797e-05
7.4179e-05
6.53413e-05
6.99592e-05
7.35944e-05
7.41593e-05
6.53571e-05
7.35895e-05
7.41679e-05
7.35759e-05
6.54147e-05
6.99511e-05
7.4194e-05
6.5383e-05
7.35787e-05
7.42075e-05
7.35845e-05
6.54245e-05
6.99679e-05
7.42312e-05
6.53952e-05
7.35881e-05
9.49911e-05
7.38036e-05
7.37991e-05
9.49302e-05
7.38012e-05
7.37978e-05
7.15666e-05
7.15669e-05
7.15718e-05
7.15722e-05
7.15562e-05
7.15583e-05
7.394e-05
6.52547e-05
7.3549e-05
6.98099e-05
7.39832e-05
7.35496e-05
6.52275e-05
7.39778e-05
6.52644e-05
7.35562e-05
6.982e-05
7.40216e-05
7.35565e-05
6.5236e-05
9.44862e-05
7.37392e-05
7.37351e-05
9.45925e-05
7.3743e-05
7.37386e-05
7.2038e-05
7.97119e-05
7.37834e-05
7.2031e-05
7.96962e-05
7.22595e-05
6.8489e-05
7.20523e-05
7.14956e-05
7.20586e-05
7.22549e-05
7.1481e-05
7.2049e-05
7.97098e-05
7.37987e-05
7.20383e-05
7.97094e-05
7.22659e-05
6.84931e-05
7.20527e-05
7.14925e-05
7.22569e-05
7.20625e-05
7.14891e-05
7.3988e-05
6.52575e-05
7.35549e-05
6.98205e-05
7.35545e-05
7.40313e-05
6.52312e-05
7.39509e-05
6.52569e-05
7.35522e-05
6.98366e-05
6.52339e-05
7.39923e-05
7.35524e-05
9.45192e-05
7.3732e-05
7.374e-05
7.3734e-05
9.4638e-05
7.37419e-05
7.15587e-05
7.20448e-05
7.97404e-05
7.37916e-05
7.97295e-05
7.20364e-05
7.22667e-05
6.85076e-05
7.15131e-05
7.20565e-05
7.15036e-05
7.22601e-05
7.2065e-05
7.20503e-05
7.9724e-05
7.38025e-05
7.20408e-05
7.97215e-05
7.22679e-05
6.85061e-05
7.15052e-05
7.20563e-05
7.22602e-05
7.14997e-05
7.20652e-05
7.1579e-05
7.15831e-05
3.55728e-05
3.55713e-05
4.17584e-05
3.56072e-05
3.56017e-05
2.77027e-05
2.75735e-05
6.63475e-05
6.03356e-05
6.03352e-05
5.47208e-05
6.64351e-05
6.02294e-05
6.02294e-05
3.5587e-05
3.5579e-05
2.78974e-05
6.6022e-05
5.98988e-05
5.99026e-05
5.43627e-05
6.60316e-05
5.98792e-05
5.98829e-05
6.64256e-05
6.03791e-05
6.03793e-05
5.47579e-05
6.65011e-05
6.02804e-05
6.028e-05
6.60704e-05
5.44682e-05
5.98968e-05
5.99002e-05
5.99598e-05
5.99632e-05
6.60197e-05
6.64259e-05
6.0397e-05
6.03977e-05
5.47706e-05
6.02892e-05
6.65178e-05
6.02893e-05
6.03459e-05
5.47254e-05
6.02491e-05
6.60528e-05
5.44455e-05
5.9881e-05
5.98815e-05
5.99408e-05
5.994e-05
6.60062e-05
6.60717e-05
5.44522e-05
5.99069e-05
5.99108e-05
6.60489e-05
5.99479e-05
5.99515e-05
6.59438e-05
5.98714e-05
5.98746e-05
5.43361e-05
6.59737e-05
5.98335e-05
5.9836e-05
6.59395e-05
5.98578e-05
5.98603e-05
5.4324e-05
5.98277e-05
6.59651e-05
5.98235e-05
3.55698e-05
3.55705e-05
4.17586e-05
3.56056e-05
3.56047e-05
2.76995e-05
2.75675e-05
3.55714e-05
3.55711e-05
4.17447e-05
3.55988e-05
3.55975e-05
2.77066e-05
2.75802e-05
3.55757e-05
3.55729e-05
4.17528e-05
3.56077e-05
3.56016e-05
2.77059e-05
2.75759e-05
4.17268e-05
3.56064e-05
3.55993e-05
3.56111e-05
3.56045e-05
2.7802e-05
2.78664e-05
4.17255e-05
3.56052e-05
3.56038e-05
3.56098e-05
3.56085e-05
2.78017e-05
2.78687e-05
4.17072e-05
3.55949e-05
3.55938e-05
3.56005e-05
3.55992e-05
2.7803e-05
2.78645e-05
4.17163e-05
3.56068e-05
3.55997e-05
3.56111e-05
3.56041e-05
2.78061e-05
2.78711e-05
5.72214e-05
6.11276e-05
6.26944e-05
5.59238e-05
6.27471e-05
5.60355e-05
5.71024e-05
5.82319e-05
6.11205e-05
6.47149e-05
6.51364e-05
5.83543e-05
6.10185e-05
6.46435e-05
5.72541e-05
6.1233e-05
6.29192e-05
5.61876e-05
5.73774e-05
6.28578e-05
5.60732e-05
5.81881e-05
6.4483e-05
6.50569e-05
6.08591e-05
6.09531e-05
6.45449e-05
5.80723e-05
5.71939e-05
6.11086e-05
5.59042e-05
6.2688e-05
5.60078e-05
6.27314e-05
5.70857e-05
5.816e-05
6.44842e-05
6.50505e-05
6.08518e-05
6.09324e-05
6.45329e-05
5.80587e-05
6.62673e-05
5.46844e-05
6.00811e-05
6.00829e-05
6.01695e-05
6.01702e-05
6.62034e-05
3.55858e-05
3.55849e-05
2.79014e-05
3.55734e-05
3.55733e-05
2.78937e-05
3.55895e-05
3.5582e-05
2.79025e-05
5.77973e-05
6.06205e-05
6.42467e-05
6.47765e-05
5.78454e-05
6.05832e-05
6.42274e-05
5.68256e-05
6.08002e-05
5.56958e-05
6.24366e-05
5.68813e-05
5.56471e-05
6.24216e-05
6.63437e-05
5.47236e-05
6.01324e-05
6.01332e-05
6.62747e-05
6.02239e-05
6.02241e-05
6.61358e-05
5.44882e-05
6.00815e-05
6.00835e-05
6.61992e-05
6.00013e-05
6.0004e-05
5.72338e-05
6.11531e-05
6.27255e-05
5.59446e-05
6.2774e-05
5.60494e-05
5.71227e-05
5.82364e-05
6.1113e-05
6.47259e-05
6.51513e-05
6.4664e-05
5.83493e-05
6.10201e-05
5.72621e-05
6.12544e-05
6.29332e-05
5.61882e-05
6.28785e-05
5.73765e-05
5.60829e-05
5.81979e-05
6.45163e-05
6.50804e-05
6.08814e-05
6.45711e-05
6.0966e-05
5.80921e-05
5.72317e-05
6.11512e-05
6.27176e-05
5.59428e-05
6.27674e-05
5.60484e-05
5.71178e-05
5.82372e-05
6.11238e-05
6.47233e-05
6.51504e-05
5.83533e-05
6.46583e-05
6.10246e-05
5.72613e-05
6.12534e-05
6.29309e-05
5.61879e-05
5.73772e-05
6.28749e-05
5.60822e-05
5.81957e-05
6.45013e-05
6.50742e-05
6.08701e-05
6.45601e-05
5.80838e-05
6.09635e-05
5.69961e-05
6.26336e-05
5.59143e-05
6.09668e-05
5.70981e-05
6.25921e-05
5.58177e-05
5.79407e-05
6.06506e-05
6.4867e-05
6.42816e-05
6.07143e-05
6.43216e-05
5.78613e-05
5.79661e-05
6.44364e-05
6.08327e-05
6.49245e-05
6.07572e-05
5.80596e-05
6.43886e-05
5.69781e-05
6.0893e-05
6.24798e-05
5.57112e-05
6.25149e-05
5.5794e-05
5.68898e-05
5.69867e-05
6.26231e-05
5.5912e-05
6.09631e-05
5.70917e-05
6.25806e-05
5.58145e-05
5.79208e-05
6.06193e-05
6.48367e-05
6.42586e-05
6.42976e-05
6.06839e-05
5.78388e-05
5.79482e-05
6.44166e-05
6.08133e-05
6.48947e-05
5.80478e-05
6.43663e-05
6.0731e-05
5.69676e-05
6.0889e-05
6.24672e-05
5.57069e-05
6.2502e-05
5.57904e-05
5.68778e-05
6.63279e-05
5.47312e-05
6.01192e-05
6.01171e-05
6.02206e-05
6.02228e-05
6.62417e-05
6.60826e-05
5.44666e-05
6.00577e-05
6.00546e-05
5.99686e-05
6.61547e-05
5.99668e-05
5.72136e-05
6.11352e-05
6.27172e-05
5.59259e-05
6.27617e-05
5.60241e-05
5.7108e-05
5.82199e-05
6.11018e-05
6.51454e-05
6.46538e-05
5.833e-05
6.1011e-05
5.72392e-05
6.12296e-05
5.6157e-05
6.28582e-05
5.73509e-05
5.60546e-05
5.81837e-05
6.45143e-05
6.50774e-05
6.0878e-05
6.45631e-05
6.09595e-05
5.80827e-05
5.7202e-05
6.11308e-05
5.59218e-05
6.27068e-05
5.60193e-05
6.27502e-05
5.70987e-05
5.81992e-05
6.10769e-05
6.46857e-05
6.51269e-05
5.83057e-05
6.46311e-05
6.09884e-05
5.72264e-05
6.12244e-05
5.61511e-05
6.28938e-05
5.73353e-05
5.60494e-05
6.28442e-05
5.81649e-05
6.44978e-05
6.50631e-05
6.08609e-05
6.45451e-05
5.80674e-05
6.09401e-05
5.69909e-05
6.26326e-05
5.58995e-05
6.09689e-05
5.70868e-05
6.25941e-05
5.58107e-05
5.79409e-05
6.06579e-05
6.48767e-05
6.42913e-05
6.07203e-05
6.43288e-05
5.78646e-05
5.79643e-05
6.44369e-05
6.08328e-05
6.49328e-05
6.07606e-05
5.80529e-05
6.43946e-05
5.69758e-05
6.08996e-05
6.24898e-05
5.57136e-05
6.25215e-05
5.57904e-05
5.68921e-05
5.69845e-05
5.58956e-05
6.26246e-05
6.0966e-05
5.70785e-05
5.58076e-05
6.25874e-05
5.79312e-05
6.06481e-05
6.48757e-05
6.4286e-05
6.43226e-05
6.07095e-05
5.78568e-05
5.79534e-05
6.44251e-05
6.08185e-05
6.49295e-05
5.80392e-05
6.43847e-05
6.07479e-05
5.697e-05
6.08974e-05
5.57113e-05
6.24864e-05
5.57875e-05
6.25172e-05
5.68876e-05
5.72061e-05
6.11231e-05
5.59186e-05
6.26837e-05
5.60304e-05
6.27344e-05
5.70886e-05
5.82001e-05
6.10726e-05
6.46868e-05
6.50899e-05
6.09701e-05
5.83262e-05
6.46162e-05
5.72389e-05
6.12286e-05
5.61841e-05
6.29068e-05
5.60685e-05
5.73649e-05
6.28444e-05
5.81578e-05
6.44632e-05
6.50162e-05
6.08266e-05
6.09106e-05
6.45193e-05
5.80474e-05
5.69699e-05
6.26021e-05
5.58916e-05
6.09391e-05
5.70754e-05
6.256e-05
5.57933e-05
5.79364e-05
6.44012e-05
6.08009e-05
6.4885e-05
5.80359e-05
6.07211e-05
6.43517e-05
5.69529e-05
6.08711e-05
6.24582e-05
5.56938e-05
5.68688e-05
6.24884e-05
5.57713e-05
5.69649e-05
5.5887e-05
6.25943e-05
6.09371e-05
5.7064e-05
5.57905e-05
6.25564e-05
5.79132e-05
6.06521e-05
6.48536e-05
6.42716e-05
6.4296e-05
6.06947e-05
5.78516e-05
5.79307e-05
6.43881e-05
6.07837e-05
6.48879e-05
5.8017e-05
6.43484e-05
6.07213e-05
5.69519e-05
6.08709e-05
5.56951e-05
6.2465e-05
5.57698e-05
6.24899e-05
5.68764e-05
6.63131e-05
5.46921e-05
6.01065e-05
6.01042e-05
6.01936e-05
6.01948e-05
6.62472e-05
6.61144e-05
5.44638e-05
6.00577e-05
6.00557e-05
5.99805e-05
6.6175e-05
5.99784e-05
5.71857e-05
6.11066e-05
5.59011e-05
6.26779e-05
5.60049e-05
6.27231e-05
5.70752e-05
5.81829e-05
6.10597e-05
6.46699e-05
6.50869e-05
6.09612e-05
5.83049e-05
6.46056e-05
5.72149e-05
6.12034e-05
5.61508e-05
6.28806e-05
5.6039e-05
5.73369e-05
6.28245e-05
5.81437e-05
6.44639e-05
6.50173e-05
6.08257e-05
6.09053e-05
6.4514e-05
5.80396e-05
5.69723e-05
5.58776e-05
6.26072e-05
6.0946e-05
5.70653e-05
5.57901e-05
6.25725e-05
5.79254e-05
6.06462e-05
6.48723e-05
6.42878e-05
5.78559e-05
6.07036e-05
6.43188e-05
5.79457e-05
6.4414e-05
6.08091e-05
6.49208e-05
5.80305e-05
6.07396e-05
6.43751e-05
5.69602e-05
6.08843e-05
5.57032e-05
6.2483e-05
5.6884e-05
5.57728e-05
6.25086e-05
5.69633e-05
5.58744e-05
6.2596e-05
6.09423e-05
5.70547e-05
5.5787e-05
6.25622e-05
5.79168e-05
6.06621e-05
6.48661e-05
6.42851e-05
6.43073e-05
6.07029e-05
5.78586e-05
5.7932e-05
6.4393e-05
6.07863e-05
6.48992e-05
5.80124e-05
6.43578e-05
6.07274e-05
5.69535e-05
6.08817e-05
5.57022e-05
6.24777e-05
5.57703e-05
6.25006e-05
5.68832e-05
6.61061e-05
5.44633e-05
6.00377e-05
6.00402e-05
6.61475e-05
5.99726e-05
5.9976e-05
5.77896e-05
6.06188e-05
6.42326e-05
6.47571e-05
6.42086e-05
5.78461e-05
6.05765e-05
5.77939e-05
6.06265e-05
6.42405e-05
6.47639e-05
6.42158e-05
5.78502e-05
6.05834e-05
5.68216e-05
6.07902e-05
6.24317e-05
5.57014e-05
6.24104e-05
5.68854e-05
5.56426e-05
5.77879e-05
6.06179e-05
6.42366e-05
6.47626e-05
5.7843e-05
6.42115e-05
6.05757e-05
5.68181e-05
6.07892e-05
5.56993e-05
6.24298e-05
5.68812e-05
5.56408e-05
6.24085e-05
5.78094e-05
6.06393e-05
6.42418e-05
6.48096e-05
6.0616e-05
5.78465e-05
6.42324e-05
5.68235e-05
6.07859e-05
5.56867e-05
6.24234e-05
5.56378e-05
5.68752e-05
6.24133e-05
5.78175e-05
6.06499e-05
6.42543e-05
6.48221e-05
6.06267e-05
5.78541e-05
6.42445e-05
5.6832e-05
6.08011e-05
5.56958e-05
6.2437e-05
5.56489e-05
5.68829e-05
6.24259e-05
7.38186e-05
6.89267e-05
7.15732e-05
7.02029e-05
6.51956e-05
6.12801e-05
8.00676e-05
7.20635e-05
7.19164e-05
7.20418e-05
7.22609e-05
7.36239e-05
7.45473e-05
7.38485e-05
7.3847e-05
9.53903e-05
6.47095e-05
6.29088e-05
7.18979e-05
5.46124e-05
7.0304e-05
7.04215e-05
7.19093e-05
6.10076e-05
5.27631e-05
4.85425e-05
6.51856e-05
6.88447e-05
7.41388e-05
7.19355e-05
9.55342e-05
7.41789e-05
7.4183e-05
9.53915e-05
7.42313e-05
7.42307e-05
7.45407e-05
7.39289e-05
6.55574e-05
7.03441e-05
6.56074e-05
7.44838e-05
7.39704e-05
7.45383e-05
7.39458e-05
6.56391e-05
7.04432e-05
7.44892e-05
7.39771e-05
6.56831e-05
7.19409e-05
7.25795e-05
7.19333e-05
7.23433e-05
6.89182e-05
7.25664e-05
7.19607e-05
7.23505e-05
7.24467e-05
8.03294e-05
7.41586e-05
7.23831e-05
8.02942e-05
7.25784e-05
6.89207e-05
7.197e-05
7.23501e-05
7.24524e-05
7.41451e-05
8.02846e-05
7.19319e-05
6.63646e-05
5.46533e-05
6.00871e-05
6.01226e-05
6.01339e-05
6.63128e-05
6.01682e-05
5.6995e-05
5.57698e-05
6.2675e-05
6.10738e-05
5.69665e-05
5.58041e-05
6.27332e-05
5.80695e-05
6.46022e-05
6.085e-05
6.52071e-05
5.80336e-05
6.08904e-05
6.46338e-05
6.10749e-05
6.27345e-05
4.21608e-05
4.85639e-05
5.24884e-05
5.41359e-05
4.20269e-05
5.24248e-05
5.24267e-05
5.43744e-05
7.1654e-05
6.97754e-05
4.88355e-05
4.88204e-05
7.38162e-05
5.4154e-05
6.46373e-05
6.06419e-05
5.24592e-05
5.24265e-05
6.97833e-05
5.41115e-05
6.04844e-05
6.04653e-05
5.24411e-05
5.23918e-05
5.25092e-05
6.81765e-05
5.24193e-05
5.24508e-05
5.4152e-05
5.4111e-05
4.8461e-05
7.37884e-05
5.23756e-05
5.24276e-05
7.16488e-05
5.42407e-05
5.41981e-05
5.24638e-05
5.24278e-05
5.41413e-05
5.24494e-05
5.24269e-05
5.25211e-05
5.42317e-05
5.25145e-05
6.46661e-05
6.07437e-05
6.97969e-05
6.05935e-05
7.38509e-05
6.48511e-05
4.87185e-05
5.26498e-05
6.82511e-05
5.41835e-05
7.16155e-05
7.38818e-05
6.83579e-05
6.8249e-05
7.39079e-05
7.17152e-05
7.17387e-05
6.82067e-05
7.38573e-05
6.81537e-05
7.3902e-05
3.65071e-05
3.64814e-05
3.65239e-05
4.20283e-05
4.20165e-05
4.1986e-05
4.20165e-05
5.2653e-05
6.04767e-05
6.45624e-05
6.03591e-05
5.25092e-05
6.44838e-05
4.84327e-05
7.16687e-05
7.17517e-05
4.84707e-05
6.01996e-05
6.42798e-05
5.2387e-05
6.02967e-05
4.83448e-05
6.42782e-05
6.92751e-05
6.93838e-05
5.40506e-05
6.95913e-05
6.95291e-05
6.85001e-05
7.39833e-05
6.83097e-05
7.4069e-05
7.17727e-05
7.18589e-05
6.86067e-05
7.40048e-05
6.83859e-05
7.40883e-05
4.20108e-05
4.19919e-05
4.20274e-05
6.07692e-05
6.46691e-05
4.83415e-05
5.24521e-05
6.05472e-05
6.48288e-05
4.83572e-05
7.18333e-05
7.18994e-05
6.09374e-05
4.83143e-05
6.48761e-05
5.25643e-05
6.06249e-05
4.83771e-05
6.50824e-05
7.02065e-05
7.02989e-05
5.4573e-05
7.03132e-05
7.0406e-05
7.16666e-05
5.47145e-05
5.42227e-05
6.94523e-05
6.93264e-05
6.96966e-05
7.16428e-05
7.16305e-05
5.29508e-05
5.2678e-05
4.86606e-05
6.10069e-05
6.43202e-05
6.48038e-05
6.04202e-05
4.86407e-05
5.26359e-05
6.47429e-05
5.28858e-05
6.42873e-05
6.10004e-05
6.04142e-05
6.85738e-05
7.37862e-05
7.3825e-05
6.80956e-05
7.37824e-05
6.85707e-05
6.80898e-05
7.17134e-05
7.17454e-05
7.17007e-05
7.17466e-05
6.97419e-05
6.96506e-05
5.43556e-05
5.41732e-05
6.97311e-05
6.96672e-05
7.1787e-05
7.17414e-05
7.18052e-05
7.17479e-05
5.41751e-05
6.97873e-05
6.98517e-05
6.97531e-05
6.97272e-05
6.83609e-05
7.38813e-05
6.82497e-05
7.39005e-05
6.06386e-05
5.26486e-05
4.85991e-05
6.04805e-05
5.25348e-05
6.45515e-05
4.84827e-05
6.46679e-05
5.26784e-05
4.86129e-05
6.04798e-05
5.25378e-05
6.45389e-05
4.84879e-05
6.82378e-05
7.39731e-05
7.3914e-05
6.82793e-05
6.82375e-05
7.39608e-05
7.39056e-05
6.82753e-05
6.04526e-05
5.24794e-05
6.45796e-05
4.83666e-05
6.45609e-05
4.84102e-05
6.04517e-05
6.04503e-05
5.24602e-05
6.45401e-05
4.83565e-05
6.45425e-05
4.84068e-05
6.04466e-05
5.44044e-05
6.96698e-05
5.41619e-05
6.9732e-05
6.96575e-05
7.16981e-05
7.17372e-05
7.17741e-05
7.17322e-05
5.41568e-05
6.97318e-05
6.98092e-05
6.97397e-05
6.96962e-05
7.17954e-05
7.17374e-05
6.45443e-05
5.26187e-05
4.85481e-05
6.03622e-05
5.25031e-05
6.44894e-05
4.84254e-05
6.81938e-05
7.38234e-05
6.81393e-05
7.3899e-05
4.85195e-05
5.25137e-05
6.43879e-05
6.03444e-05
5.24122e-05
4.8395e-05
6.43649e-05
6.81625e-05
7.39935e-05
7.39136e-05
6.8342e-05
6.03588e-05
5.2454e-05
6.46083e-05
4.83394e-05
6.45097e-05
4.83635e-05
6.04567e-05
6.81488e-05
7.40178e-05
7.39177e-05
6.83362e-05
6.03424e-05
5.23887e-05
4.83222e-05
6.46491e-05
4.8339e-05
6.44279e-05
6.04565e-05
6.81984e-05
7.38535e-05
6.81526e-05
7.38972e-05
4.85109e-05
6.04496e-05
6.43547e-05
6.03416e-05
5.24445e-05
4.84001e-05
6.43779e-05
7.38184e-05
6.81318e-05
7.39136e-05
6.03581e-05
5.24409e-05
6.45837e-05
4.83395e-05
6.44993e-05
4.83655e-05
6.04847e-05
6.81674e-05
7.39933e-05
7.39098e-05
6.83808e-05
6.03428e-05
5.24387e-05
4.83465e-05
6.47716e-05
4.83563e-05
6.44896e-05
6.04998e-05
6.81494e-05
7.40439e-05
7.39363e-05
6.83813e-05
6.94477e-05
6.93201e-05
5.40041e-05
6.95477e-05
6.94699e-05
7.16478e-05
7.1754e-05
7.18332e-05
7.17597e-05
5.40162e-05
6.99345e-05
7.00275e-05
6.96924e-05
6.9676e-05
7.18575e-05
7.17679e-05
5.24839e-05
6.42576e-05
6.01981e-05
5.24152e-05
6.02922e-05
4.83475e-05
6.42974e-05
6.80004e-05
7.37897e-05
6.80207e-05
7.38952e-05
6.79947e-05
6.80149e-05
7.39064e-05
6.02104e-05
5.23682e-05
4.8297e-05
6.47143e-05
4.83016e-05
6.4382e-05
6.05135e-05
6.02099e-05
5.24111e-05
4.83104e-05
6.48121e-05
4.83123e-05
6.44426e-05
6.05209e-05
6.80557e-05
7.40564e-05
7.39234e-05
6.8452e-05
6.80514e-05
7.40709e-05
7.39367e-05
6.84526e-05
7.16649e-05
7.1776e-05
7.17796e-05
5.408e-05
7.00952e-05
7.01613e-05
6.98e-05
6.97864e-05
7.18612e-05
7.17874e-05
7.18808e-05
7.17954e-05
7.17857e-05
7.1865e-05
7.18053e-05
7.18802e-05
6.98313e-05
6.9926e-05
5.4318e-05
6.99606e-05
7.00579e-05
7.18719e-05
7.18846e-05
5.4431e-05
7.00925e-05
7.01741e-05
6.84935e-05
7.39708e-05
6.83047e-05
7.40581e-05
6.06196e-05
6.46297e-05
4.83616e-05
5.24868e-05
6.047e-05
6.47694e-05
4.83661e-05
6.06111e-05
6.45748e-05
4.83489e-05
5.24447e-05
6.04636e-05
6.47183e-05
4.83523e-05