/*--------------------------------*- C++ -*----------------------------------*\
| =========                 |                                                 |
| \\      /  F ield         | OpenFOAM: The Open Source CFD Toolbox           |
|  \\    /   O peration     | Version:  v2006                                 |
|   \\  /    A nd           | Website:  www.openfoam.com                      |
|    \\/     M anipulation  |                                                 |
\*---------------------------------------------------------------------------*/
FoamFile
{
    version     2.0;
    format      ascii;
    class       volScalarField;
    location    "1000";
    object      p;
}
// * * * * * * * * * * * * * * * * * * * * * * * * * * * * * * * * * * * * * //

dimensions      [0 2 -2 0 0 0 0];


internalField   nonuniform List<scalar> 
14374
(
0.000115645
0.000115603
0.000113545
0.000115614
0.000115581
0.000113511
0.000115762
0.000115703
0.000113267
0.000113337
0.000113359
0.000113302
0.000113184
0.000113235
0.000113244
0.000113207
0.000115647
0.000113317
0.000113348
0.00011563
0.000113339
0.00011335
0.000113263
0.00011326
0.000113292
0.000113267
0.000113297
0.000113299
0.000113253
0.000113259
0.000117718
0.00011776
0.000117709
0.00011774
0.000113327
0.000117671
0.000113237
0.000117769
0.000117705
0.000113312
0.000117729
0.000113311
0.000117676
0.000113235
0.000117696
0.000117755
0.000113308
0.000117687
0.00011318
0.000113192
0.000117671
0.000117682
0.000113212
0.000117722
0.000117732
0.000117707
0.000113259
0.000117683
0.000113222
0.000117721
0.00011772
0.000113284
0.000113249
0.000117696
0.000117718
0.000113253
0.000117751
0.000117739
0.000113289
0.000117711
0.000113245
0.000117728
0.000117727
0.000113294
0.000113254
0.000117708
0.000117722
0.000113259
0.000117766
0.000113337
0.000117731
0.000113301
0.000113348
0.000117773
0.000117768
0.000117758
0.000113324
0.000117734
0.000113294
0.000113343
0.00011776
0.000117756
0.000117759
0.000113263
0.000113267
0.000113284
0.000117763
0.000117766
0.000117773
0.000117775
0.000117683
0.000117663
0.000113438
0.000113429
0.000117736
0.000117723
0.000113424
0.00011768
0.000117626
0.000113431
0.000113422
0.000113433
0.000117723
0.000117709
0.000115775
0.000115755
0.000113394
0.000117698
0.000117796
0.000113379
0.000117721
0.00011778
0.000117707
0.000113353
0.000117674
0.000113333
0.000113396
0.000117759
0.000117685
0.000117696
0.000117702
0.000113403
0.000113353
0.000113418
0.000117703
0.000117694
0.000117697
0.000113352
0.000117693
0.000113347
0.000117697
0.000117753
0.000113392
0.000117688
0.000117702
0.000113401
0.000113359
0.000117699
0.000117699
0.000113412
0.000429664
0.000429631
0.000431698
0.000393866
0.000393878
0.000395942
0.00043171
0.00040077
0.000429656
0.000429636
0.000402792
0.000402794
0.00043168
0.000429654
0.000429664
0.000402794
0.0004028
0.000429643
0.000402823
0.000431717
0.000400779
0.000429653
0.000402805
0.000402822
0.000400799
0.000395915
0.000393869
0.000393868
0.000393873
0.000393892
0.000395924
0.000393889
0.000418644
0.000432114
0.000432071
0.00041867
0.000432109
0.000418677
0.000418655
0.000418675
0.000429653
0.000429667
0.000429655
0.000402774
0.000402778
0.000402786
0.000402804
0.000418626
0.000432024
0.000429622
0.00042067
0.000431923
0.000418655
0.000420661
0.000432115
0.000418678
0.000418641
0.0004207
0.000420685
0.000418667
0.000432099
0.0004321
0.000418683
0.000418649
0.000418651
0.000396172
0.000396171
0.000396162
0.000393879
0.000393876
0.000393888
0.000396197
0.000393883
0.000396118
0.000396084
0.000396178
0.000396178
0.000432113
0.000418677
0.000418678
0.000432096
0.000418671
0.000418659
0.00041866
0.000400717
0.000414162
0.000400719
0.000414163
0.000413803
0.000400699
0.000400701
0.000414151
0.000414154
0.000418644
0.000432111
0.00043207
0.000418667
0.000418624
0.000432033
0.000429639
0.000420689
0.000431932
0.000418658
0.000420668
0.000418622
0.000432026
0.000429632
0.000420671
0.00043193
0.000418652
0.000420662
0.000414125
0.000400688
0.00041415
0.000400683
0.000414126
0.000400689
0.000414149
0.000400683
0.000414002
0.000411735
0.000400692
0.000402779
0.000414081
0.000411714
0.00040069
0.000414001
0.000411725
0.000400695
0.00040278
0.000414077
0.000411711
0.00040069
0.00043209
0.000432089
0.000418653
0.000418658
0.000418656
0.000432111
0.000418676
0.000414164
0.000413793
0.000414151
0.000414151
0.000414162
0.000418638
0.000429649
0.00042069
0.000418663
0.000420682
0.000418655
0.000432123
0.000432082
0.000418676
0.000418638
0.000429655
0.000432041
0.000420702
0.00043195
0.000420687
0.000418666
0.000414134
0.000400689
0.000414154
0.000400684
0.000414014
0.000411738
0.000400692
0.000402787
0.000414085
0.000411727
0.00040069
0.000414134
0.000400686
0.000414155
0.000400685
0.000414015
0.000411747
0.00040279
0.000400691
0.000411731
0.000414087
0.000400691
0.000418648
0.000432114
0.000432068
0.000418672
0.000418628
0.000429629
0.000432025
0.000420697
0.000431925
0.000420671
0.000418659
0.000418648
0.000432113
0.000432071
0.000418672
0.000414009
0.000411728
0.000402793
0.000414082
0.000411718
0.000400706
0.000414132
0.000414155
0.000400693
0.000414011
0.00041176
0.000402801
0.0004007
0.00041173
0.000414086
0.000400706
0.00041413
0.000400691
0.000414154
0.00040069
0.000432098
0.000418681
0.000418661
0.00041866
0.000418677
0.000400721
0.000414163
0.000413815
0.000400703
0.000400706
0.000414155
0.000414154
0.000400728
0.000414163
0.000418642
0.00042964
0.000432035
0.000420702
0.000431942
0.000420684
0.000418664
0.000418656
0.000418679
0.000418656
0.000432121
0.000432081
0.000418677
0.000414021
0.000411749
0.000402803
0.000400694
0.000411737
0.000414091
0.000400704
0.000414022
0.000411761
0.000402808
0.000400699
0.000411741
0.000414089
0.000400704
0.000414137
0.000400679
0.000414159
0.000400691
0.000414136
0.000400689
0.000414158
0.000400689
0.000432121
0.000418669
0.000432121
0.000418671
0.000413822
0.000400686
0.000400686
0.000414138
0.00041414
0.0004007
0.000414149
0.0004007
0.000414151
0.000396194
0.000396196
0.000396186
0.000396188
0.000396117
0.000396116
0.000393867
0.000396072
0.000396169
0.000396164
0.000393869
0.000396115
0.000396072
0.000393886
0.000396125
0.000396089
0.000396174
0.00039617
0.000396189
0.00039619
0.000396198
0.000393887
0.000396123
0.000396084
0.000396167
0.000396169
0.00039617
0.000396166
0.000396184
0.000396183
0.000423151
0.000423102
0.000418676
0.000418651
0.00042315
0.000423111
0.000418678
0.000427671
0.000432106
0.000427653
0.000432126
0.000427641
0.000427658
0.000427617
0.000432122
0.000432082
0.000432126
0.000427654
0.000427627
0.000423151
0.000418666
0.00042314
0.000423133
0.000418692
0.000427649
0.000423138
0.000423158
0.000423113
0.000418661
0.000418683
0.000423122
0.000423158
0.000418683
0.000427676
0.000427661
0.000427646
0.000427665
0.00042763
0.000427638
0.000427662
0.000423155
0.000418671
0.000423147
0.000423138
0.000418696
0.000427654
0.000423141
0.000423119
0.000418657
0.000418656
0.000423127
0.000423126
0.000418641
0.000427611
0.000432004
0.000432107
0.00042763
0.000432052
0.000427559
0.000427641
0.00042762
0.000432008
0.000432115
0.000427631
0.000432058
0.000427575
0.000427646
0.000427627
0.000432112
0.000432116
0.000432103
0.000427645
0.000427646
0.000423083
0.000418656
0.00042312
0.000418604
0.000423044
0.000423126
0.000418638
0.000423089
0.000418656
0.000423122
0.000418612
0.000423059
0.000423128
0.00041864
0.000391735
0.000396188
0.000391707
0.000396193
0.000391716
0.000391734
0.00039619
0.000391705
0.000396196
0.000391715
0.000391711
0.000391703
0.000396159
0.00039619
0.000396185
0.000391701
0.000391715
0.00039173
0.000391695
0.000396143
0.000396171
0.000391709
0.000396137
0.000391696
0.000391707
0.000391693
0.000396142
0.000396168
0.000391709
0.000396136
0.000391694
0.000391704
0.00039171
0.000396191
0.000396191
0.000396182
0.00039173
0.00039173
0.000427653
0.00042314
0.000427654
0.000423141
0.000423124
0.000418683
0.000418682
0.000423141
0.000423141
0.000418655
0.000427612
0.000432012
0.000432108
0.000427631
0.000432058
0.000427645
0.000427567
0.000427613
0.000432016
0.000427632
0.000427646
0.000427571
0.000427625
0.000427648
0.000427648
0.000423078
0.000418665
0.000423126
0.000418594
0.000423132
0.000418627
0.000423045
0.000423079
0.000418664
0.000423128
0.000418598
0.000423133
0.000418627
0.000423049
0.000405182
0.000409701
0.000405183
0.0004097
0.000409684
0.000414175
0.000414174
0.000414155
0.000409714
0.000409713
0.000405107
0.000400644
0.000405171
0.000400695
0.000405166
0.000405095
0.000400661
0.000405106
0.000400644
0.000405173
0.000400692
0.000405164
0.000405096
0.00040066
0.000409642
0.00041415
0.000414069
0.000409682
0.000414092
0.000409679
0.000409616
0.000409641
0.000414147
0.000414073
0.000409686
0.000414091
0.000409673
0.000409618
0.000405181
0.00040073
0.00040073
0.000405198
0.000405197
0.000400703
0.00042315
0.000423101
0.000418676
0.000418651
0.000423149
0.000423111
0.000418676
0.000427668
0.000432101
0.000427649
0.000432122
0.000427638
0.000427656
0.000427617
0.000432121
0.000432081
0.000427653
0.000432125
0.000427625
0.000423148
0.000418665
0.000423135
0.000423131
0.000418689
0.000409687
0.000414168
0.000414131
0.000409665
0.000414166
0.00040969
0.000409667
0.000405179
0.00040516
0.0004007
0.000400718
0.000405172
0.000409706
0.000414156
0.000409676
0.000414168
0.000409686
0.000405173
0.000405144
0.000400699
0.000400681
0.000400695
0.000405178
0.000405145
0.000409686
0.000414168
0.000414131
0.000409665
0.000414164
0.00040969
0.000409667
0.000405181
0.000405161
0.000400703
0.000405175
0.00040072
0.000409706
0.000414157
0.000409679
0.000414167
0.000409688
0.000405172
0.000405144
0.000400699
0.000400679
0.000405178
0.000405145
0.000400693
0.000423125
0.000418688
0.000418686
0.000423145
0.000423146
0.000418658
0.000427595
0.000431994
0.000432104
0.000427627
0.000427641
0.00043204
0.000427549
0.000427597
0.00043199
0.000432108
0.000427625
0.000427546
0.00043204
0.000427645
0.000427623
0.00043211
0.000432111
0.000427651
0.000432092
0.000427653
0.000423066
0.000418662
0.000423122
0.000418583
0.000423129
0.00042303
0.000418621
0.000423069
0.000418668
0.000423122
0.000418586
0.000423031
0.000423134
0.000418623
0.00042765
0.000423139
0.000409699
0.000409687
0.000414176
0.000414176
0.000414158
0.000409713
0.000409712
0.000409646
0.00041415
0.000414064
0.000409684
0.000409617
0.000414091
0.00040968
0.000409647
0.000414153
0.000414068
0.000409683
0.000414093
0.000409682
0.00040962
0.000409699
0.000423159
0.000423112
0.000418682
0.000418662
0.000423157
0.000423122
0.000418684
0.000427675
0.00043211
0.000427661
0.000432131
0.000427645
0.000427666
0.000427629
0.000432131
0.000432094
0.000427661
0.000432135
0.000427639
0.000423154
0.00041867
0.000423147
0.000423137
0.000418694
0.00040969
0.000414138
0.000414173
0.000409671
0.00041417
0.000409672
0.000409694
0.000405183
0.000405161
0.000400704
0.000400722
0.000405177
0.000409709
0.000414161
0.000409682
0.000414172
0.00040969
0.000405176
0.000405147
0.000400681
0.0004007
0.000400696
0.000405148
0.000405181
0.00040969
0.000414173
0.000414139
0.000409672
0.000414171
0.000409693
0.000409673
0.000405182
0.00040516
0.000400703
0.000405176
0.000400719
0.000409708
0.00041416
0.000409681
0.00041417
0.000409689
0.000405175
0.000405148
0.000400701
0.000400682
0.000405181
0.000405148
0.000400696
0.000423153
0.000423103
0.000418655
0.000418678
0.000423113
0.000423151
0.000418679
0.000427668
0.000432099
0.000427653
0.000427636
0.000432123
0.000427659
0.000427616
0.000432081
0.000432122
0.000427627
0.000432127
0.000427655
0.000423148
0.000418666
0.000423143
0.000423128
0.00041869
0.000423155
0.000423104
0.000418679
0.000418655
0.000423153
0.000423113
0.000418682
0.000427677
0.00043211
0.000427652
0.000432132
0.000427644
0.000427659
0.000427618
0.000432126
0.000432081
0.000432126
0.000427658
0.000427627
0.000423155
0.000418664
0.00042314
0.000423135
0.000418694
0.00040969
0.000414136
0.000414171
0.000409673
0.000414168
0.000409674
0.000409694
0.000409707
0.000414158
0.000409683
0.000414168
0.00040969
0.000405176
0.000405153
0.000400689
0.000400705
0.000405152
0.000405183
0.000400698
0.000409694
0.000414171
0.000414137
0.000409671
0.000414171
0.000409693
0.000409675
0.000405175
0.000405162
0.000400694
0.000405167
0.000400712
0.000409703
0.000414153
0.000409683
0.000414168
0.00040968
0.00040518
0.000405151
0.000400702
0.00040069
0.000405181
0.000405155
0.0004007
0.000423123
0.000418681
0.000418681
0.000423136
0.000423136
0.000418656
0.00043202
0.000427633
0.000427577
0.000423087
0.000418665
0.000423128
0.000418604
0.000423132
0.000423055
0.000418634
0.000423089
0.000418669
0.000423126
0.000418606
0.000423056
0.000423137
0.000418636
0.000423142
0.000405185
0.0004097
0.000409687
0.000414176
0.000414176
0.000414157
0.000409716
0.000409713
0.000405112
0.000400647
0.000405174
0.000400694
0.0004051
0.000405167
0.000400663
0.000405112
0.000400651
0.000405176
0.000400692
0.000405167
0.000405103
0.000400663
0.000409647
0.000414151
0.000414078
0.000409684
0.000409623
0.000414098
0.000409681
0.000409649
0.000414154
0.00041408
0.000409684
0.000414099
0.000409685
0.000409626
0.000405183
0.000400732
0.000400731
0.0004052
0.000405199
0.000400706
0.000405184
0.0004097
0.00042316
0.000423112
0.000418664
0.000418683
0.000423123
0.000423157
0.000418686
0.00042315
0.000418669
0.000423153
0.000423131
0.000418692
0.00042316
0.000423112
0.000418662
0.000418683
0.000423121
0.000423158
0.000418686
0.00042768
0.000432114
0.000427658
0.000432136
0.000427648
0.000427666
0.000427628
0.00043209
0.000432132
0.000432133
0.000427636
0.000427663
0.000423158
0.000418668
0.000423145
0.000423139
0.000418696
0.000409691
0.000414142
0.000414174
0.000409678
0.000414172
0.000409676
0.000409695
0.000405181
0.00040516
0.000400706
0.000405177
0.000400719
0.000409706
0.00041416
0.000409685
0.000414169
0.00040969
0.000405174
0.000405154
0.000400685
0.000400702
0.000405153
0.000405183
0.000400692
0.000409695
0.000414142
0.000414174
0.000409675
0.000414174
0.000409679
0.000409694
0.000405177
0.000405162
0.000400695
0.000405169
0.000400713
0.000409705
0.000414156
0.000409684
0.00041417
0.000409683
0.00040518
0.000405152
0.000400689
0.0004007
0.000405155
0.000405181
0.000400699
0.000427656
0.000423137
0.000427656
0.000423137
0.000409662
0.000414141
0.00041414
0.000414134
0.000409676
0.000409676
0.00040512
0.000400664
0.000405156
0.000400683
0.000400671
0.000405114
0.000405152
0.000405119
0.000400663
0.000405157
0.00040068
0.000400669
0.000405114
0.00040515
0.000409656
0.000414139
0.000414085
0.000409666
0.000414106
0.000409637
0.000409668
0.000409655
0.000414138
0.000414088
0.000409668
0.000414106
0.000409637
0.000409666
0.000405158
0.000400703
0.000400703
0.000400685
0.000405165
0.000405164
0.000405164
0.000409682
0.000405164
0.000409683
0.000391727
0.000391728
0.000391692
0.000396127
0.00039618
0.000391711
0.000396131
0.000391712
0.000391684
0.000391691
0.000396126
0.000396178
0.000391711
0.000396129
0.000391711
0.000391682
0.000391717
0.000396209
0.000396209
0.000396196
0.000391736
0.000391737
0.000391736
0.00039619
0.000391701
0.000396195
0.000391719
0.000391707
0.000391705
0.000396192
0.00039616
0.000391716
0.000396182
0.000391699
0.000391729
0.000396182
0.000391706
0.000396187
0.000391714
0.000391715
0.000391712
0.000396192
0.00039617
0.000396189
0.000391719
0.00039171
0.000391688
0.000396128
0.00039618
0.000391713
0.000391711
0.00039613
0.000391682
0.000391687
0.000396131
0.000396178
0.000391714
0.000391684
0.000396129
0.000391707
0.000391717
0.000396211
0.000396209
0.000391738
0.000396198
0.000391738
0.00039173
0.000391735
0.000396195
0.000391694
0.000391724
0.0003962
0.000391695
0.000391711
0.00039616
0.000396192
0.000391698
0.000396173
0.000391724
0.000391728
0.000396182
0.000391702
0.000396187
0.000391712
0.000391712
0.000391708
0.000396166
0.000396189
0.000396186
0.000391705
0.000391716
0.000391723
0.000391722
0.000429683
0.000429684
0.000420677
0.000420682
0.000420687
0.000420735
0.000429747
0.00042765
0.000431876
0.000431874
0.000427621
0.000431916
0.00042759
0.000427607
0.000393852
0.000393853
0.000393852
0.000391767
0.000396058
0.000396061
0.00039186
0.000396036
0.000391776
0.000391777
0.000427648
0.000431881
0.000431886
0.000427628
0.000431922
0.000427599
0.000427601
0.000404985
0.000404853
0.000400706
0.000400707
0.000404989
0.000404994
0.000400712
0.000427626
0.00043186
0.000431851
0.000427597
0.000427569
0.000431899
0.000427578
0.000431893
0.000427637
0.000427609
0.000404991
0.000404864
0.000400712
0.000400715
0.000404998
0.000405002
0.000400717
0.000405008
0.000404882
0.00040073
0.000400732
0.000400733
0.000405014
0.000405019
0.000391756
0.000396038
0.000396041
0.000391838
0.00039602
0.000391761
0.000391762
0.000391756
0.000396042
0.000396048
0.000391844
0.000391767
0.000396022
0.000391763
0.000429679
0.000429675
0.000420663
0.000420678
0.000420678
0.000420732
0.000429744
0.000429686
0.000429681
0.000420685
0.000420691
0.000420688
0.000420737
0.000429746
0.000429677
0.000429678
0.000420685
0.000420687
0.000420688
0.000420737
0.000429745
0.000411714
0.000402765
0.000402769
0.000411708
0.000411715
0.000411747
0.000402785
0.000411705
0.000402766
0.000402775
0.000411706
0.000411711
0.000411747
0.000402788
0.000411725
0.000402773
0.000402782
0.000411719
0.000411723
0.000411751
0.00040279
0.000411738
0.000402784
0.000402787
0.000411723
0.000411726
0.000411753
0.000402794
0.000422882
0.000422968
0.000418636
0.000418606
0.000422983
0.000422873
0.000418628
0.000427558
0.000431952
0.000431966
0.000427626
0.000431851
0.00042755
0.000427602
0.000427574
0.000427583
0.000431942
0.00043182
0.000431829
0.000427596
0.000427549
0.000422898
0.000418641
0.000423059
0.00041859
0.000422998
0.000423005
0.000418607
0.00042291
0.000422985
0.000418627
0.000418652
0.000422895
0.000423002
0.000418653
0.000422927
0.000418655
0.000423073
0.000418614
0.000423026
0.000423021
0.000418629
0.000422955
0.00042276
0.000418644
0.000418653
0.00042292
0.000422939
0.000418683
0.000393856
0.000393864
0.000393856
0.000393856
0.000393865
0.000393855
0.000393868
0.000393869
0.000393859
0.000391751
0.0003961
0.000396109
0.000391715
0.000396045
0.000391697
0.000391739
0.000391776
0.000391741
0.000396036
0.000396082
0.00039603
0.00039177
0.000391733
0.000422946
0.000422759
0.000418632
0.000418635
0.000418665
0.00042292
0.000422926
0.000409684
0.000409715
0.000413952
0.000413958
0.000413962
0.000409664
0.000409667
0.000422887
0.000422969
0.000418634
0.000418605
0.000422986
0.000422874
0.00041863
0.000427573
0.000431972
0.000431978
0.000427634
0.000427612
0.000431869
0.000427567
0.000427588
0.000427588
0.000431951
0.00043183
0.000427602
0.000431845
0.000427558
0.000422912
0.000418645
0.000423063
0.000418596
0.000423014
0.000423009
0.000418613
0.00042288
0.000422968
0.000418631
0.000418603
0.000422982
0.000422872
0.000418624
0.00042756
0.000431958
0.000431969
0.000427626
0.000431852
0.000427604
0.00042755
0.000427579
0.000427586
0.000431947
0.000431827
0.000431837
0.000427597
0.000427555
0.000422899
0.000418639
0.000423055
0.000418586
0.000423006
0.000418605
0.000422995
0.00040967
0.000414014
0.000413922
0.000409655
0.000413929
0.000409661
0.00040965
0.000404988
0.00040065
0.000405096
0.0004007
0.000405058
0.000405071
0.000400691
0.00040965
0.000414043
0.000414034
0.000409673
0.00040962
0.000413948
0.000409672
0.000404969
0.000405035
0.00040069
0.000400698
0.000405041
0.000404967
0.000400712
0.000409668
0.000414013
0.00041392
0.000409655
0.000413925
0.00040966
0.00040965
0.00040499
0.000400657
0.000405098
0.000400704
0.000405073
0.000405063
0.000400697
0.000409648
0.000414041
0.000414027
0.000409673
0.000413944
0.000409672
0.000409619
0.000404969
0.000405035
0.000400691
0.000400699
0.000405042
0.000404967
0.000400714
0.000422929
0.000422736
0.000418617
0.000418618
0.0004229
0.000422903
0.000418655
0.000409686
0.00040971
0.000413945
0.000413949
0.000409663
0.000413959
0.000409665
0.000422905
0.000422985
0.000418646
0.000418624
0.000423
0.000422895
0.000418647
0.000427585
0.000431983
0.00042764
0.000427619
0.000431879
0.000427578
0.000427604
0.000427605
0.000431851
0.000427616
0.00043186
0.00042758
0.000422922
0.000418652
0.000423069
0.000418606
0.000423021
0.000423018
0.000418623
0.00042291
0.000422985
0.000418625
0.000418649
0.000422896
0.000423002
0.000418652
0.000427589
0.000431986
0.000431989
0.000427643
0.000431884
0.000427622
0.000427584
0.00042761
0.000427605
0.000431851
0.000431967
0.000431865
0.000427579
0.000427619
0.000422926
0.000418654
0.000423071
0.000418612
0.000423023
0.000418627
0.000423025
0.00040968
0.000414025
0.000413937
0.000409664
0.000413942
0.000409668
0.000409662
0.000404991
0.00040065
0.000405098
0.000400701
0.000405061
0.000405074
0.000400693
0.000409657
0.00041405
0.000414041
0.000409677
0.000409625
0.000413957
0.000409677
0.000404975
0.000405039
0.000400691
0.000400701
0.000405045
0.000404974
0.000400714
0.000409682
0.000413938
0.000414027
0.000409665
0.000413945
0.000409662
0.000409669
0.000404994
0.000400652
0.000405098
0.000400701
0.000405075
0.000405064
0.000400695
0.00040966
0.000414052
0.000414046
0.000409678
0.000413961
0.000409679
0.00040963
0.000404977
0.000405041
0.000400702
0.000400692
0.000404975
0.000405047
0.000400715
0.00042289
0.00042297
0.00041861
0.00041864
0.000422877
0.000422987
0.000418638
0.000427568
0.000431962
0.000431972
0.000427629
0.000427559
0.000431861
0.000427608
0.000427581
0.000427585
0.000431823
0.000431942
0.000427553
0.000431835
0.000427598
0.000422915
0.000418648
0.00042306
0.000418609
0.00042301
0.000423014
0.000418622
0.000409678
0.000414021
0.00041393
0.000409666
0.000413933
0.00040967
0.000409662
0.000409655
0.000414045
0.000414032
0.000409678
0.000413949
0.000409626
0.000409677
0.000404983
0.000405049
0.000400703
0.000400717
0.000400728
0.000405054
0.000404984
0.000409691
0.000413933
0.000414024
0.000409668
0.000413945
0.000409665
0.000409676
0.00040501
0.00040068
0.000405106
0.00040071
0.000405081
0.000405088
0.000400712
0.000409668
0.000414052
0.000414055
0.000409681
0.000413965
0.000409681
0.000409648
0.000404993
0.00040505
0.000400719
0.000400708
0.000404987
0.000405059
0.000400737
0.000422955
0.00042277
0.000418641
0.000418642
0.000422932
0.000422932
0.000418673
0.000409691
0.000409725
0.000413963
0.000413965
0.000409673
0.000413969
0.000409674
0.000422907
0.000422985
0.000418629
0.000418651
0.000422897
0.000422999
0.000418654
0.000427584
0.000431972
0.000431983
0.000427638
0.00042758
0.000431873
0.000427618
0.000427598
0.000427601
0.000431842
0.000431957
0.000427575
0.000431848
0.000427611
0.000422927
0.000418655
0.000423067
0.000418623
0.00042303
0.000423021
0.000418633
0.00040969
0.000413946
0.000414033
0.000409674
0.000413951
0.000409674
0.000409678
0.000405002
0.000400659
0.000405102
0.000400708
0.000400703
0.000405069
0.000405081
0.000409666
0.000414054
0.000414051
0.000409683
0.000413964
0.000409636
0.000409683
0.000404988
0.000405052
0.000400717
0.000400701
0.000400727
0.000404989
0.000405057
0.000409698
0.000413947
0.000414034
0.000409675
0.000413956
0.000409676
0.000409681
0.000405011
0.000400678
0.000405106
0.00040071
0.000405083
0.000405088
0.000400714
0.000409674
0.000414055
0.000414062
0.000409683
0.000413971
0.000409684
0.000409651
0.000404997
0.000405053
0.000400719
0.000400707
0.000404991
0.000405062
0.000400737
0.000409708
0.000409741
0.000413972
0.000413979
0.000413984
0.000409689
0.000409692
0.000391746
0.000396096
0.000396101
0.000391718
0.000391733
0.000396037
0.000391697
0.000391743
0.000396095
0.000396101
0.000391715
0.00039173
0.000396036
0.000391694
0.000391766
0.000391729
0.000396075
0.000396021
0.000391729
0.000396018
0.000391757
0.000391744
0.000396095
0.000396101
0.000391713
0.000396038
0.000391733
0.000391693
0.000391766
0.00039173
0.000396022
0.000396074
0.000396019
0.000391757
0.000391726
0.000391762
0.000396123
0.000396112
0.000391725
0.000391716
0.000396053
0.000391743
0.00039179
0.000391747
0.000396043
0.000396094
0.000391778
0.000396042
0.000391746
0.000391759
0.000396118
0.00039611
0.00039172
0.000391712
0.000396054
0.00039174
0.000391784
0.000391741
0.000396038
0.00039609
0.000391771
0.000396039
0.000391741
0.000432124
0.000432083
0.000432117
0.000432097
0.00043204
0.000431949
0.000432111
0.000432131
0.000432094
0.000432131
0.000432135
0.000432111
0.00043206
0.000432108
0.000432108
0.000432097
0.000431984
0.000431965
0.000126699
0.000126646
0.000126663
0.000126667
0.0001267
0.000126691
0.000124642
0.000124688
0.000126655
0.000126696
0.000126677
0.000122184
0.000122205
0.000126675
0.000126676
0.000126687
0.000122176
0.000122181
0.000122298
0.000126703
0.000126751
0.000122219
0.000122312
0.000126725
0.000122231
0.000122288
0.000126676
0.000126741
0.000122225
0.000126712
0.000122212
0.000122299
0.000122194
0.000122221
0.000126672
0.000126689
0.000122237
0.000126688
0.000122248
0.00012222
0.000122203
0.000126668
0.000122228
0.000126702
0.000122233
0.000122228
0.000122241
0.000122263
0.000122222
0.000122217
0.00012226
0.000122253
0.000122241
0.000122409
0.000122551
0.000126712
0.000126709
0.00012243
0.000126664
0.000122429
0.000122432
0.000126723
0.000126679
0.000122339
0.000126708
0.000122422
0.000122337
0.000122398
0.000126673
0.000126738
0.00012229
0.000126704
0.00012234
0.00012232
0.000122338
0.000122343
0.00017823
0.000178219
0.000178293
0.000180342
0.000142636
0.000142612
0.000142667
0.000144654
0.000198776
0.000198735
0.000196033
0.000196041
0.000198761
0.000149457
0.000180581
0.000180508
0.000151481
0.000151491
0.000180647
0.000149469
0.000180534
0.000180538
0.000151504
0.000151591
0.0001783
0.000180661
0.000151514
0.000151589
0.000180325
0.000149565
0.000178274
0.000180683
0.000151628
0.000151616
0.000180658
0.000149551
0.000144601
0.000142582
0.000142591
0.000144611
0.000142596
0.000142646
0.000142622
0.000144676
0.000142628
0.00018518
0.000185135
0.000185176
0.000185151
0.000198746
0.000198614
0.000187121
0.000187178
0.000185194
0.000185177
0.000198797
0.000180656
0.000180636
0.000167173
0.000167163
0.000180665
0.000167192
0.000180655
0.000180679
0.000167196
0.000167183
0.000178237
0.000178269
0.000178226
0.000151522
0.000151523
0.000151619
0.000151617
0.000178224
0.000180537
0.000180604
0.00016725
0.00016931
0.000167224
0.000169331
0.000180678
0.000167166
0.00017826
0.000167309
0.00018062
0.000169421
0.000180559
0.000169412
0.000167266
0.000180626
0.000180633
0.000167416
0.000167144
0.000167139
0.000131281
0.000144686
0.000144705
0.000131262
0.000144736
0.000131217
0.000131249
0.000144663
0.000144691
0.000131233
0.000142639
0.000142701
0.000142681
0.000131374
0.000144663
0.000142639
0.000133677
0.000144707
0.00013131
0.000133692
0.000144685
0.000131186
0.000131336
0.0001427
0.000144652
0.000133659
0.000144721
0.000133703
0.000131271
0.000144658
0.000144651
0.000131526
0.000131245
0.000131241
0.000185211
0.00019813
0.000185154
0.000185195
0.000185189
0.000198744
0.000185216
0.000198801
0.000196056
0.000187146
0.000187099
0.000198407
0.00018521
0.000198604
0.000185158
0.000187113
0.000187184
0.000198605
0.000196087
0.0001852
0.000198411
0.00018516
0.000198673
0.000185241
0.000198772
0.000185206
0.000185222
0.000198676
0.000185206
0.000180655
0.000167168
0.00018066
0.000167159
0.000180637
0.000180634
0.000180298
0.000167295
0.000167171
0.00016717
0.000149205
0.000162661
0.000149183
0.000162653
0.000162445
0.000149217
0.000149208
0.000162649
0.000162649
0.000180638
0.00018066
0.000167176
0.000167174
0.000180509
0.000178238
0.000178207
0.000167196
0.000169304
0.000167186
0.000169285
0.000180587
0.000178223
0.000178203
0.000167199
0.000169304
0.000167203
0.000169282
0.000162648
0.000149203
0.000162637
0.000149221
0.000162653
0.000149224
0.000162649
0.000149225
0.000162574
0.000160395
0.00014925
0.000151488
0.000162591
0.000160392
0.000149293
0.00016258
0.000160405
0.00014927
0.000151489
0.000162608
0.000160392
0.000149297
0.000180289
0.000180646
0.000167298
0.000167201
0.000167198
0.000180672
0.000167189
0.000149237
0.00016269
0.000162454
0.000149247
0.000149236
0.00016268
0.00016268
0.000149202
0.000162682
0.000180599
0.000178247
0.000178224
0.000167239
0.000169325
0.000167211
0.00016933
0.00018066
0.00018067
0.0001672
0.000167183
0.000178236
0.00017828
0.000180601
0.000167247
0.000169392
0.000169355
0.000167233
0.000162672
0.000149188
0.00016265
0.000149216
0.000162622
0.000160419
0.000149255
0.000151541
0.000162621
0.000160448
0.000149322
0.000162676
0.000149193
0.000162652
0.000149215
0.000162631
0.000160508
0.000151569
0.000149262
0.000160478
0.00016264
0.000149328
0.000180658
0.000180692
0.000167204
0.0001672
0.000178251
0.000180542
0.000180588
0.000167258
0.000169409
0.000169371
0.000167225
0.000180659
0.000167204
0.000167173
0.000162638
0.000160419
0.000149262
0.00015155
0.000162634
0.000160456
0.000149338
0.000162685
0.00014919
0.000162669
0.000149226
0.000162646
0.000160524
0.000151577
0.000149257
0.000160495
0.000162631
0.000149337
0.000162681
0.000149189
0.000162638
0.000149217
0.000180654
0.000180647
0.000167396
0.000167183
0.000167181
0.000180684
0.000167152
0.00014918
0.000162654
0.000162559
0.000149197
0.000149192
0.000162654
0.000162646
0.000149156
0.000162633
0.000178328
0.000180611
0.000167308
0.000169448
0.00018056
0.000169422
0.00016726
0.000167231
0.0001807
0.000180677
0.0001672
0.000167229
0.000180676
0.000167188
0.000162709
0.000160546
0.000151642
0.000149266
0.000160554
0.000162672
0.000149372
0.00016271
0.000160563
0.000151638
0.000149261
0.000160556
0.000162662
0.000149369
0.000162707
0.00014917
0.000162656
0.000149216
0.000162703
0.000149178
0.000162645
0.000149212
0.000180657
0.000167125
0.000167113
0.00016258
0.000149183
0.000149175
0.000162607
0.000162605
0.000149163
0.000162612
0.000149142
0.000162598
0.000144707
0.000131215
0.000144691
0.000131207
0.000144685
0.000144681
0.000131598
0.000131237
0.000131232
0.000126725
0.000126719
0.000126707
0.000126686
0.000126686
0.000131281
0.000144706
0.000144709
0.000131272
0.000131404
0.000144657
0.000142599
0.000133664
0.000144683
0.000131328
0.000133689
0.000131405
0.000144676
0.000142601
0.000133674
0.000144687
0.000131338
0.000133691
0.000126764