/*--------------------------------*- C++ -*----------------------------------*\
| =========                 |                                                 |
| \\      /  F ield         | OpenFOAM: The Open Source CFD Toolbox           |
|  \\    /   O peration     | Version:  v2006                                 |
|   \\  /    A nd           | Website:  www.openfoam.com                      |
|    \\/     M anipulation  |                                                 |
\*---------------------------------------------------------------------------*/
FoamFile
{
    version     2.0;
    format      ascii;
    class       surfaceScalarField;
    location    "1000";
    object      phi;
}
// * * * * * * * * * * * * * * * * * * * * * * * * * * * * * * * * * * * * * //

dimensions      [0 3 -1 0 0 0 0];
oriented        oriented;


internalField   nonuniform List<scalar> 
41332
(
1.26823e-06
-4.56913e-08
-1.21005e-06
2.53839e-07
-1.99377e-07
2.08837e-07
-1.83302e-07
-0.00113094
1.27734e-06
9.66677e-08
-1.2009e-06
2.5635e-07
-1.88096e-07
2.13258e-07
-1.80051e-07
-0.00113081
-1.20763e-06
-0.000268379
2.13905e-07
2.38771e-07
-1.12568e-07
2.59405e-08
-1.19869e-06
2.25102e-07
-2.21473e-07
-8.19897e-07
2.26484e-07
8.79718e-07
-1.71314e-07
-0.00113137
1.18463e-06
-8.5325e-08
-2.71414e-07
-1.24611e-06
2.29895e-07
-2.13327e-07
-8.24866e-07
2.26242e-07
-1.70254e-07
8.78391e-07
-0.00113124
-0.000268402
2.13372e-07
2.42322e-07
1.2665e-08
-0.00117802
-2.86475e-07
-0.00117736
-1.26647e-08
-4.37627e-09
-0.00019481
1.12758e-08
-7.98902e-08
-0.000246599
1.28907e-08
3.189e-09
-7.9726e-08
-0.000246653
-9.58821e-09
-0.000194816
9.05435e-09
-9.86772e-05
-1.62237e-08
-0.000279741
-5.03186e-09
-2.3257e-08
-6.88333e-09
-2.24711e-08
-0.000279852
5.89086e-09
-5.35882e-09
-9.86884e-05
7.95332e-08
-1.00511e-07
-9.08573e-07
7.95048e-07
9.70375e-07
-7.3237e-07
-0.00114951
6.0765e-09
-8.55445e-08
-0.000246693
-1.83021e-09
3.11035e-10
4.84886e-08
-0.000251045
-1.79336e-07
-3.85154e-09
-4.83486e-08
-9.17185e-07
7.97594e-07
-7.35664e-07
9.73355e-07
-0.00114966
1.21859e-08
-7.20351e-09
-9.11675e-08
-0.000246608
3.99807e-09
4.89983e-08
-0.000251023
-1.76623e-07
-1.37969e-09
-0.000194871
-2.91172e-09
-7.32488e-09
-0.000230613
2.04206e-09
2.37814e-08
-7.26914e-09
-0.000194812
1.69471e-08
-0.000230576
-1.23423e-08
2.67332e-08
-9.05753e-09
-1.98437e-08
-0.000279837
-7.45342e-09
-1.25028e-08
-2.71806e-08
-0.000279748
-9.12753e-09
-9.86746e-05
-9.86681e-05
4.41995e-09
-3.07873e-09
-0.000194802
-2.49454e-09
-7.26528e-09
-0.000194808
-2.26249e-08
-9.86501e-05
-4.47753e-09
1.08357e-08
0.000222961
-2.10389e-09
2.2374e-08
-0.000222987
-0.000251606
2.88809e-08
-5.66664e-08
-4.78851e-08
6.65976e-09
3.32928e-09
-1.63019e-08
-0.000279758
-0.000184125
-1.6544e-09
-3.69288e-09
4.92117e-08
2.88207e-09
-0.000251656
-9.91422e-10
-0.00018411
1.1478e-08
-2.30763e-08
1.12116e-08
1.031e-08
0.000223041
-4.83545e-09
7.4757e-09
-0.000223065
-0.000251765
1.72658e-08
-7.50689e-08
-2.65952e-08
9.88914e-09
2.88752e-09
1.59621e-08
-6.80143e-09
-0.000279874
-0.0001842
-2.43263e-09
7.93753e-09
8.13332e-09
-0.000184187
3.37362e-08
2.50635e-08
-0.000251811
1.27733e-08
-3.71869e-08
4.82038e-09
-4.56317e-09
0.000214986
-0.000214993
-8.10513e-05
-7.38822e-09
-8.1069e-05
4.28683e-09
-8.10475e-05
-8.10654e-05
-1.08714e-08
-9.86616e-05
-1.31675e-08
7.98454e-05
-2.34547e-08
-7.98088e-05
-1.69434e-08
-3.29146e-09
-0.000194862
-0.000264892
-2.35149e-08
1.80126e-09
-2.76905e-08
-1.78508e-08
1.07167e-08
-0.000264915
1.22811e-08
-1.13473e-08
-8.64579e-09
0.000144346
-0.00014435
1.14699e-08
-1.01928e-08
-5.4093e-09
1.60701e-08
-0.000230625
-0.000224661
-5.81365e-09
-3.97906e-08
-0.000172222
7.76946e-09
-8.12385e-09
1.31208e-08
-0.000224692
-8.05417e-09
-0.000172232
-2.64055e-08
7.98037e-05
-1.16964e-08
-7.97656e-05
2.34731e-09
-2.25302e-09
-7.95509e-09
-0.000194804
-0.000264775
-1.4635e-08
1.69415e-08
-3.02813e-08
-4.45655e-09
4.41455e-09
-0.000264799
2.44612e-08
-1.44256e-08
6.74074e-09
0.000144269
-0.000144273
7.11771e-11
-1.16669e-08
1.59875e-08
-0.000230586
-0.000224569
-2.31418e-09
-4.02399e-08
-0.000172184
-7.48601e-09
9.18158e-09
-0.000224597
-0.000172197
0.000223045
-2.15661e-09
8.66621e-09
-1.03658e-09
1.78748e-08
-0.000223069
2.85011e-08
-0.000251761
-6.09768e-08
-4.29705e-08
5.39272e-09
-5.68286e-09
2.81894e-08
-7.48547e-09
-0.000279857
-3.5265e-09
-0.000184168
-4.14759e-09
1.48983e-08
-2.63831e-08
4.23591e-08
1.23175e-09
-0.000251801
-2.81561e-09
-0.000184162
0.000222979
1.14305e-08
1.29972e-08
-6.3906e-09
3.36762e-09
-0.000223
1.42526e-08
-0.000251636
-7.58832e-08
-2.5012e-08
-9.66216e-10
-5.04921e-09
2.64954e-08
1.00615e-09
-0.00027977
-5.23311e-09
-0.000184124
-2.01373e-10
9.71227e-09
-3.93107e-08
2.83567e-08
1.88584e-08
-0.000251672
-4.92226e-10
-0.000184116
0.000214992
3.11484e-09
3.92066e-10
-0.000215002
-5.06173e-09
-8.10534e-05
-8.87693e-10
-8.10402e-05
-8.10531e-05
-8.10403e-05
-9.86489e-05
-9.86438e-05
6.32478e-08
8.33475e-08
0.000243761
-0.000243877
-2.03791e-07
-1.89198e-07
-0.000270395
-0.000261754
1.07075e-07
-0.000261397
8.64268e-08
-0.000262045
-0.000261691
0.000243778
5.33305e-08
7.78758e-08
-0.000243888
-2.06391e-07
-1.83124e-07
-0.00027046
1.09147e-07
-0.000261392
9.08327e-08
-0.000261794
-0.000261691
-0.000262084
5.89523e-08
-0.00120599
-0.00120599
-0.000261115
6.37279e-08
-0.000246657
-0.000261214
-0.000261165
5.81988e-08
-0.000246708
-0.000261265
0.00026466
-7.63364e-09
-1.26263e-07
1.13687e-08
-0.000265357
-2.15084e-09
-0.000261205
5.25626e-08
-7.49331e-09
-0.000246748
-1.68879e-07
-0.000251864
1.6797e-09
-1.7352e-09
-0.000261307
-4.5313e-09
-0.000251982
0.000266167
8.95623e-09
-1.42417e-07
-0.000266931
1.25989e-07
-9.26948e-10
3.04658e-09
-0.000251157
-9.36249e-09
-0.000266271
8.69375e-09
-1.93639e-07
-0.000250538
8.39206e-09
-0.000266877
-0.000250673
-1.28392e-07
-8.90177e-10
0.0002646
-7.62293e-09
-0.000265288
-0.000261138
-1.07905e-08
-4.06546e-12
5.34828e-08
-0.000246669
-0.00025177
-1.73151e-07
2.54893e-09
-5.33679e-09
-0.000251889
-0.000261236
-2.27336e-08
-1.04109e-08
-1.42956e-07
0.000266116
-0.000266888
1.2665e-07
4.83459e-09
-0.000251135
-0.000266261
1.09459e-08
-0.000250466
-1.91807e-07
-0.000266872
-0.0002506
1.4046e-07
1.25993e-07
-1.03985e-07
-1.32993e-07
0.00118081
-1.25065e-06
-8.5389e-08
-2.27623e-07
0.00113166
-2.19687e-07
1.2024e-06
2.35211e-07
8.78686e-07
-1.88758e-07
-8.36453e-07
2.25264e-07
1.21563e-06
1.18242e-06
-1.97179e-07
-2.01194e-07
0.000268221
1.18629e-07
1.0954e-07
-0.00118064
-7.15454e-08
-8.44864e-08
0.00118056
-0.00113169
-1.18072e-06
-1.02289e-07
-5.91836e-08
-2.04811e-07
1.22641e-06
2.43186e-07
8.79617e-07
-1.80436e-07
-8.2689e-07
2.29945e-07
0.00113166
-0.000270251
1.21823e-06
1.17427e-06
-1.9005e-07
-2.01301e-07
0.00026825
1.23255e-06
1.18321e-06
-1.95462e-07
-2.07173e-07
0.000268247
-1.26435e-06
-1.22552e-06
0.000270303
-0.000268283
2.31758e-07
2.37407e-07
-4.02597e-08
0.00113112
-2.16533e-07
1.26167e-06
2.37476e-07
8.84859e-07
-1.87649e-07
-8.33334e-07
2.26153e-07
-1.22293e-06
3.76907e-08
-7.00227e-08
0.00113123
-2.14502e-07
1.26438e-06
2.45419e-07
8.79523e-07
-1.9305e-07
-8.38262e-07
2.21163e-07
0.00113117
-1.20505e-07
-0.00113117
-3.87307e-08
-1.2285e-06
2.44909e-07
-2.1489e-07
-8.33387e-07
2.27617e-07
-1.82523e-07
8.83833e-07
-1.24305e-07
-0.0011313
-4.8446e-08
-8.35066e-07
2.31799e-07
-1.83961e-07
8.87465e-07
1.26218e-06
0.0011313
-1.22455e-06
2.4475e-07
-2.14341e-07
-2.08513e-07
-2.00967e-07
0.000268252
-7.28524e-08
0.00113213
-2.05981e-07
1.2244e-06
2.37609e-07
8.79641e-07
-1.90295e-07
-8.37962e-07
2.2094e-07
-1.21387e-06
-1.14949e-07
-1.76942e-08
0.00113118
-2.13755e-07
1.25937e-06
2.43252e-07
8.77299e-07
-1.92444e-07
-8.3752e-07
2.21492e-07
0.00113218
-1.06063e-07
-0.00113218
-5.6892e-08
-1.18202e-06
2.39576e-07
-2.03264e-07
-8.3263e-07
2.26439e-07
-1.84238e-07
8.79306e-07
1.25912e-06
0.00113119
-1.09785e-07
-0.0011312
-4.0598e-08
-1.22243e-06
2.42035e-07
-2.11692e-07
-8.34053e-07
2.30469e-07
-1.85443e-07
8.83255e-07
-1.35547e-07
-5.2403e-09
0.00113086
-2.10926e-07
1.25892e-06
2.3965e-07
8.82178e-07
-1.79461e-07
2.29028e-07
-8.25111e-07
1.25026e-06
0.00113086
-1.10025e-07
-0.00113087
-1.89874e-08
-1.22085e-06
2.397e-07
-2.1494e-07
-8.3116e-07
2.28195e-07
-1.86671e-07
8.7945e-07
-2.06663e-07
0.000268241
-1.22659e-06
0.000270281
-0.000268263
2.33277e-07
2.3428e-07
-1.53169e-07
-8.95546e-08
0.00113184
-2.13848e-07
1.21376e-06
2.37387e-07
8.76925e-07
-1.90439e-07
2.2091e-07
-8.3265e-07
-1.0538e-07
-0.00113169
-6.08835e-08
-1.18123e-06
2.43907e-07
-2.04674e-07
-8.30587e-07
2.25617e-07
8.75586e-07
-1.84901e-07
1.21151e-06
0.00113186
-9.43046e-08
-0.00113188
-3.76599e-08
-1.17425e-06
2.34335e-07
-2.03309e-07
-8.33192e-07
2.26876e-07
-1.88441e-07
8.77507e-07
-0.000268251
2.2703e-07
2.35185e-07
1.22705e-06
1.18304e-06
-1.91075e-07
-1.99782e-07
0.000268284
-2.13582e-07
1.26553e-06
2.45996e-07
8.87283e-07
-1.78761e-07
-8.30025e-07
2.31127e-07
-4.12407e-08
0.00113115
-4.91546e-08
-2.04434e-07
1.22416e-06
2.40985e-07
8.84103e-07
-1.79176e-07
-8.27932e-07
2.31148e-07
0.00113215
-1.22298e-06
-1.19709e-07
-3.58831e-08
-2.12293e-07
1.2585e-06
2.41498e-07
8.87955e-07
-1.80491e-07
-8.29412e-07
2.34961e-07
0.00113117
-1.03484e-07
-2.66423e-08
-2.12014e-07
1.25286e-06
2.42433e-07
8.81256e-07
-1.8432e-07
2.30745e-07
-8.29673e-07
0.00113082
-1.89351e-07
-1.98189e-07
0.000268265
-8.8102e-08
-3.45412e-08
-2.03075e-07
1.21135e-06
2.34426e-07
8.80768e-07
-1.84697e-07
2.30753e-07
-8.30326e-07
0.00113182
3.77341e-11
-4.94965e-08
0.000230093
-0.000230061
1.7008e-08
6.88053e-10
-4.47278e-09
2.15537e-08
-1.92442e-09
0.000194318
1.63102e-09
2.55511e-08
0.000230048
-9.29009e-09
-2.29814e-10
-3.70417e-10
-2.94196e-08
0.000194353
4.82579e-09
-0.000194328
5.6463e-09
8.291e-09
9.83595e-05
1.66741e-09
-1.63535e-08
9.83749e-05
-9.83602e-05
-4.93756e-08
-1.19293e-10
0.000230088
-0.000230056
9.42255e-10
1.725e-08
-1.04045e-09
-2.98349e-08
0.000194331
5.73265e-09
-0.000194306
-1.81649e-07
-2.93636e-07
0.00118051
-1.07924e-07
-8.80821e-08
0.00118044
-9.8326e-08
-1.16748e-07
0.00118046
-0.0011807
-7.54732e-08
-9.12423e-08
0.00118045
-0.00118049
-9.46165e-08
-1.02409e-07
1.15107e-07
0.00118026
-0.00118032
-7.66114e-08
-7.93834e-08
0.00118026
-0.00118033
-5.68002e-08
-7.92988e-08
4.78958e-08
-6.98522e-09
0.000250777
-0.000250647
7.18196e-09
-1.78453e-07
-6.74364e-09
-2.3495e-08
7.94449e-08
9.76336e-10
0.000246146
0.00115071
-5.21529e-08
-1.2373e-07
9.76295e-07
-7.30895e-07
-9.16077e-07
7.98409e-07
-9.67545e-08
1.22668e-06
0.00113174
-1.27132e-07
-8.32453e-07
2.25251e-07
-1.89501e-07
8.7788e-07
-1.19222e-06
2.38511e-07
-2.11174e-07
-2.54728e-08
-3.42698e-09
0.000250627
5.88216e-09
1.31575e-07
9.38033e-09
2.95507e-08
0.000246232
-9.39364e-09
-0.000246166
-9.55597e-08
-4.14291e-08
0.0011507
-1.78715e-07
-9.12242e-07
7.99553e-07
-7.29754e-07
9.77604e-07
4.39493e-09
7.88045e-09
9.83576e-05
2.13474e-09
-1.72523e-08
9.83759e-05
-9.83608e-05
-2.76691e-09
4.79355e-08
0.000250772
-0.000250641
-1.80517e-07
4.23015e-09
-4.20123e-08
1.21923e-06
0.00113168
-1.29201e-07
-8.30505e-07
2.21554e-07
-1.8759e-07
8.74136e-07
-1.18896e-06
2.39457e-07
-2.13246e-07
6.05585e-09
0.00115058
-1.86505e-07
-9.13135e-07
7.98473e-07
-7.30629e-07
9.76505e-07
1.1925e-08
3.0097e-08
0.000246221
-9.55993e-09
-0.000246158
-9.5326e-08
9.50403e-09
-8.49423e-09
1.48325e-08
-6.68515e-09
0.000279101
7.87692e-09
-8.69348e-09
2.48498e-08
-7.68784e-09
0.000279021
-1.24864e-06
-1.21283e-06
0.000270245
-0.00026824
2.25808e-07
2.30725e-07
-1.38078e-08
1.05345e-08
0.000279144
5.5288e-09
-0.000279113
-3.3677e-08
-1.2584e-08
1.16724e-08
0.000279062
4.53488e-09
-0.000279033
-3.26324e-08
-0.000194387
-5.05811e-10
1.48015e-08
-5.42298e-09
0.000194378
-0.000194365
-9.37097e-10
1.46582e-08
-4.7071e-09
0.000194356
-0.000230126
1.95442e-08
-3.12835e-10
0.00023011
-4.42982e-10
-3.52888e-09
-7.43606e-08
-9.71486e-08
1.07421e-07
1.24443e-07
0.00118039
-6.56711e-08
-8.31792e-08
0.00118019
-5.40052e-08
-6.75823e-08
0.00118019
-9.83727e-05
2.25057e-09
8.31596e-09
9.83622e-05
-0.00115054
-1.07443e-08
-1.26973e-07
9.77416e-07
-7.3401e-07
-9.14084e-07
7.96772e-07
0.00115049
-0.000246257
-1.18789e-08
-1.28529e-08
6.61558e-08
4.33974e-09
0.000246211
-0.000250793
2.26254e-10
-1.7192e-08
0.000250676
1.31005e-07
2.40345e-09
-0.000279184
6.60432e-09
-6.52904e-09
1.40461e-08
-2.50012e-09
0.000279172
-0.000279101
6.13523e-09
-6.18986e-09
1.31428e-08
-3.80035e-09
0.000279092
6.4795e-09
9.83804e-05
-1.30472e-08
9.83949e-05
-9.83823e-05
-1.38507e-08
9.83828e-05
-9.837e-05
1.20486e-08
1.83638e-08
-9.42112e-09
0.000279132
0.000270292
-1.26166e-06
-1.22547e-06
-0.000268264
2.26978e-07
2.32167e-07
0.000279174
-9.59913e-09
-6.67274e-10
-0.000279146
-3.12662e-08
0.0002791
-8.55872e-09
-1.22628e-09
-0.000279072
-3.23278e-08
-9.91868e-09
-3.83312e-09
9.83978e-05
-9.8384e-05
3.70196e-09
8.37012e-09
9.83829e-05
-1.02196e-08
-3.21288e-09
9.83848e-05
-9.83713e-05
2.88797e-09
9.22219e-09
9.83707e-05
1.23004e-06
1.18189e-06
0.000268276
-1.90306e-07
-2.05274e-07
-1.16653e-08
0.000279209
-3.51164e-08
-0.000279179
6.92269e-09
-7.93961e-09
0.000279134
-3.78158e-08
-0.000279104
5.91919e-09
1.31805e-08
-1.1651e-08
1.50633e-08
0.000279162
1.02226e-08
-1.25099e-08
1.80434e-08
0.000279087
-4.93344e-08
0.000230053
-0.000230022
1.71035e-08
5.74762e-10
2.46875e-08
-1.42148e-09
0.000194256
2.60021e-08
0.000230008
-9.36022e-09
2.52619e-09
-3.20582e-08
0.000194292
6.52238e-09
-0.000194265
1.14716e-09
0.000250775
-0.000250642
-7.96396e-10
-1.82522e-07
7.22906e-08
5.36316e-09
0.000246149
0.00115088
1.41511e-08
-1.89963e-07
9.86914e-07
-7.34979e-07
-9.13858e-07
8.08138e-07
-3.61959e-08
0.00113116
-1.4414e-07
-1.23085e-06
2.38769e-07
-2.15979e-07
-8.34669e-07
2.23187e-07
-1.85865e-07
8.81244e-07
3.59625e-09
0.000250625
-8.21464e-10
1.37245e-07
0.000246222
-5.25455e-09
-0.000246162
-9.41274e-08
1.16587e-08
0.0011509
-1.86177e-07
-9.18497e-07
8.00894e-07
-7.36761e-07
9.79785e-07
0.000250748
-0.000250619
4.30265e-09
-1.82099e-07
-8.41847e-09
7.94676e-08
2.15517e-09
0.000246054
0.00115085
-1.70518e-07
9.82733e-07
-7.35705e-07
-9.17715e-07
8.0455e-07
-6.23282e-08
0.00113127
1.26457e-06
-1.22448e-07
-8.38927e-07
2.24959e-07
8.82266e-07
-1.92805e-07
-1.22255e-06
2.46533e-07
-2.13437e-07
0.000250601
3.17102e-09
1.37881e-07
0.000246131
6.79542e-09
-6.46177e-09
-0.000246069
-9.38551e-08
0.00115085
-1.78819e-07
-9.19313e-07
8.03027e-07
-7.37411e-07
9.81534e-07
-3.03041e-10
2.21929e-08
-6.32752e-09
3.29134e-10
0.000230077
-3.27938e-08
-0.000194359
1.32633e-09
1.74783e-08
1.81817e-09
0.000194342
-1.36487e-09
-5.44903e-08
-0.000230096
2.02502e-08
8.01517e-10
0.000230131
2.21924e-08
-6.1977e-09
-6.54712e-10
0.000230038
-3.61617e-08
-0.000194297
1.94374e-09
4.07822e-09
0.000194327
1.87635e-08
-9.2698e-09
3.33407e-09
0.000194279
-5.4854e-08
-0.000230057
2.04109e-08
-1.55333e-09
0.000230091
2.32805e-09
1.43741e-09
1.36676e-07
0.000250657
-3.1264e-08
-1.2622e-07
1.26298e-06
-2.16689e-07
2.43567e-07
8.81654e-07
-1.85166e-07
2.24703e-07
-8.34948e-07
0.000246258
-1.01055e-07
-0.000246195
-6.13979e-09
-0.00115089
3.36355e-09
-1.52206e-07
-9.19632e-07
7.9738e-07
-7.35854e-07
9.79929e-07
0.00115088
4.03323e-09
7.17143e-08
0.000246177
1.70064e-08
-1.72522e-07
9.81699e-07
-7.35648e-07
-9.17165e-07
8.02449e-07
-1.80762e-09
-0.00025067
1.16739e-09
-1.85763e-07
0.000250802
2.6253e-09
1.36902e-07
0.000250633
-6.45712e-08
-1.22312e-06
-1.2588e-07
8.84075e-07
-1.87813e-07
-8.37939e-07
2.2794e-07
1.26392e-06
-2.13191e-07
2.46302e-07
-1.02826e-07
-0.000246104
-4.39389e-09
8.23089e-09
0.000246167
-0.00115085
-1.53176e-07
-9.19087e-07
8.0036e-07
-7.35709e-07
9.83043e-07
0.00115083
-1.1187e-08
3.63533e-09
7.11297e-08
0.000246086
-1.72166e-07
9.81448e-07
-7.38692e-07
-9.20054e-07
8.02249e-07
-0.000250647
4.53611e-10
-1.8608e-07
0.000250776
2.26608e-08
-1.3607e-08
0.000279018
-7.73854e-09
2.10039e-08
-9.18908e-09
0.000279142
0.00027028
-0.000268253
2.31107e-07
2.33422e-07
0.000279057
7.5473e-10
-0.000279033
-3.40023e-08
1.4042e-08
0.000279184
-1.34662e-10
-0.000279158
-3.04723e-08
3.86576e-09
9.83708e-05
9.83853e-05
9.94903e-10
-9.83723e-05
4.81523e-09
9.83608e-05
1.18457e-06
0.000268268
-1.95955e-07
-1.99556e-07
-1.47911e-08
1.61498e-08
0.000279049
-2.14015e-09
8.98555e-09
-1.23153e-08
1.5192e-08
0.000279174
9.1928e-09
9.8374e-05
-2.91895e-09
0.000250765
-0.000250636
3.59608e-09
-1.79019e-07
0.00115077
-2.69214e-08
-1.89687e-07
9.8296e-07
-7.32479e-07
-9.1727e-07
8.01993e-07
-6.59504e-08
0.00113217
-1.20876e-07
-1.17988e-06
2.394e-07
-2.04522e-07
-8.37522e-07
2.20314e-07
-1.89074e-07
8.75385e-07
0.00024619
-7.948e-09
-0.000246127
-9.27781e-08
-2.11045e-08
0.00115078
-1.71592e-07
-9.20192e-07
7.99156e-07
-7.35508e-07
9.77692e-07
-4.93689e-08
0.000230047
-0.000230018
1.93176e-08
5.68517e-10
2.36304e-08
-2.54649e-09
0.000194243
2.73441e-08
0.000230005
-1.06426e-08
1.51629e-09
3.30754e-10
-3.2555e-08
0.000194283
6.81365e-09
-0.000194255
0.000250736
-0.000250614
-1.76626e-07
1.43124e-09
0.00115076
-1.88111e-07
9.80422e-07
-7.35084e-07
-9.19792e-07
8.02223e-07
-9.38471e-09
7.82053e-08
1.94562e-09
0.000246047
-3.4253e-08
0.00113119
1.25961e-06
-1.14923e-07
-8.34118e-07
2.21242e-07
8.76122e-07
-1.88077e-07
-1.22233e-06
2.41788e-07
-2.12944e-07
0.000250599
1.34453e-07
-7.39134e-10
1.05607e-09
0.00115075
-1.70834e-07
-9.17266e-07
7.99426e-07
-7.35315e-07
9.77925e-07
0.00024612
9.59699e-09
-6.6727e-09
-0.000246059
-9.58885e-08
2.50029e-08
2.50007e-10
-2.85955e-10
-6.29303e-09
0.000230069
-3.31169e-08
-0.000194337
2.30884e-09
1.69833e-08
2.9789e-09
0.00019432
-5.62316e-08
-5.93563e-10
-0.000230088
-5.78774e-10
1.97102e-08
9.69934e-10
3.07521e-09
1.35305e-07
0.000250651
-6.13509e-08
-1.10518e-07
1.22616e-06
-2.03165e-07
2.40358e-07
8.76081e-07
-1.87979e-07
2.22394e-07
-8.35081e-07
0.000246224
-1.03537e-07
-0.000246156
-4.84159e-09
-0.00115077
-1.37638e-08
0.00115074
-1.41256e-07
-9.18649e-07
7.98158e-07
-7.35184e-07
9.78094e-07
2.49522e-09
7.27645e-08
0.000246142
-8.96676e-09
-1.57968e-07
9.76642e-07
-7.37814e-07
-9.19261e-07
7.94682e-07
-2.07635e-09
0.000250789
-0.000250662
1.16724e-09
-1.82031e-07
2.24477e-08
-8.29157e-09
-1.13036e-10
0.000230033
-3.36006e-08
1.72822e-09
0.000194315
-0.000194288
4.31096e-09
1.87687e-08
-1.07169e-08
4.471e-09
0.00019427
-5.37268e-08
0.000230085
-0.000230052
2.17805e-08
-1.41181e-09
1.32622e-07
1.68871e-09
0.000250626
-4.46371e-08
-1.22214e-06
-1.15948e-07
8.79873e-07
-1.89334e-07
-8.36707e-07
2.26315e-07
1.25984e-06
-2.11734e-07
2.42682e-07
-0.00115074
0.0011507
-1.37332e-07
-9.18343e-07
7.98523e-07
-7.34899e-07
9.78513e-07
8.87371e-09
0.000246158
-1.04265e-07
-0.000246093
-3.73406e-09
-1.58515e-07
9.76952e-07
-7.37579e-07
-9.19047e-07
7.94999e-07
-1.40244e-08
3.60433e-09
7.44044e-08
0.000246074
0.00025076
-0.000250637
-1.79588e-07
8.96973e-10
-1.58203e-09
0.000230093
-0.000230064
2.67461e-09
1.777e-08
-3.68464e-09
0.0001943
-3.99742e-09
0.000230051
5.12059e-09
-9.22093e-09
0.000194336
5.72302e-09
-0.000194311
4.87601e-08
0.00025075
-0.000250624
-1.79723e-07
-2.39987e-09
0.00115065
-1.84896e-07
9.8145e-07
-7.299e-07
8.02411e-07
-9.08289e-07
-2.13108e-08
7.00831e-08
6.92264e-09
0.000246089
-1.80095e-08
0.00113088
-1.33964e-07
-1.22396e-06
2.33434e-07
-2.15224e-07
-8.29045e-07
2.27929e-07
-1.8611e-07
8.80859e-07
-2.46027e-08
0.000250605
1.30637e-07
-4.303e-09
0.00115064
-1.92452e-07
-9.07065e-07
7.9816e-07
-7.25707e-07
9.77055e-07
2.92536e-08
0.000246163
-6.35655e-09
-0.000246102
-9.81118e-08
0.000230055
-0.000230027
1.77747e-08
9.53724e-10
-1.59695e-09
-4.25657e-09
0.000194252
0.000230013
-9.02773e-09
-2.39451e-09
0.000194287
4.75726e-09
-7.24086e-10
-0.000194262
-1.87334e-08
-3.07926e-09
6.86774e-09
1.33162e-07
0.000250659
-7.87839e-08
-1.27201e-07
1.22901e-06
-2.02846e-07
2.40914e-07
8.80761e-07
-1.88643e-07
-8.35576e-07
2.26779e-07
0.00113178
-0.00115069
-3.68721e-08
-1.51778e-07
-9.16974e-07
7.96876e-07
9.79411e-07
-7.33136e-07
7.36124e-08
0.00115068
-1.66076e-08
5.47103e-10
7.45473e-08
0.000246183
-3.03254e-08
-1.67301e-07
9.79187e-07
-7.31797e-07
-9.16562e-07
7.97706e-07
5.26557e-08
-3.25754e-09
-0.000250671
2.23902e-09
-1.8317e-07
0.000250802
-7.78076e-13
8.73005e-10
-5.3841e-09
0.000230079
3.34722e-09
0.000194325
2.71825e-09
-0.000230096
-2.71777e-09
2.0973e-08
0.000230128
-1.8093e-08
1.29539e-07
-2.14307e-09
0.000250638
-8.97674e-09
-1.2221e-06
-1.24294e-07
8.79625e-07
-1.87025e-07
-8.30513e-07
2.27366e-07
1.24867e-06
-2.14493e-07
2.34748e-07
-0.00115064
0.00115061
-1.50532e-07
-9.14005e-07
7.97135e-07
-7.32705e-07
9.76278e-07
3.25366e-08
1.51507e-08
0.000246192
-9.94593e-08
-0.000246131
-9.69124e-09
-1.67764e-07
9.77589e-07
-7.30751e-07
-9.12134e-07
7.98667e-07
-1.77284e-08
-8.45862e-09
1.98031e-09
7.091e-08
0.000246116
5.23911e-08
0.000250772
-0.000250648
-1.80721e-07
1.84111e-09
-5.50127e-09
1.32987e-09
0.000230041
3.63354e-09
0.000194324
-0.000194295
1.93e-10
-3.56763e-09
-3.62549e-09
0.000194277
0.000230089
-0.000230058
2.06827e-08
3.65358e-09
1.89216e-08
0.00027902
0.000270266
-0.000268246
2.27328e-07
2.3208e-07
0.000279061
-2.02813e-09
-0.000279035
-3.14916e-08
1.51558e-08
0.000279185
-1.89852e-09
-0.000279153
-3.28119e-08
9.8388e-05
1.93274e-09
-9.83748e-05
-1.08123e-08
-9.83602e-05
4.19491e-09
9.8361e-05
1.18347e-06
0.000268255
-1.94411e-07
-2.00479e-07
0.000279097
-3.63019e-08
-0.000279068
5.58618e-09
1.29209e-08
-9.16935e-09
0.000279218
-3.81537e-08
-0.000279187
2.94791e-09
-1.44577e-08
1.4447e-08
0.000279051
-1.03317e-09
1.20128e-08
-1.3936e-08
1.77689e-08
0.00027917
7.62859e-12
9.83891e-05
-9.83761e-05
1.08995e-08
9.83761e-05
4.85148e-08
0.000250744
-0.000250616
-1.81161e-07
1.88547e-09
0.00115051
-2.00808e-07
9.80057e-07
-7.27524e-07
8.01644e-07
-9.1184e-07
-2.16347e-08
7.94719e-08
3.97538e-09
0.000246059
-5.43478e-08
0.00113187
-1.19829e-07
-1.17819e-06
2.34378e-07
-2.0897e-07
-8.32159e-07
2.24927e-07
-1.89537e-07
8.77622e-07
-2.41096e-08
0.0002506
1.33266e-07
1.77979e-09
0.00115052
-1.87939e-07
-9.11688e-07
7.96192e-07
-7.30158e-07
9.74758e-07
2.97876e-08
0.000246133
-8.93774e-09
-0.00024607
-9.68547e-08
-1.44587e-09
0.000230089
-0.00023006
2.92212e-09
1.79676e-08
0.000194333
6.50758e-09
-0.000194308
0.00023005
-0.000230024
8.88685e-10
2.0044e-08
-1.16401e-09
-4.94281e-09
0.000194245
0.000230009
1.61271e-10
-8.26134e-09
0.000194281
3.77301e-09
5.69214e-10
-0.000194255
-1.57335e-09
-1.90698e-08
1.34092e-07
5.79488e-09
0.000250653
-5.42288e-08
-1.16029e-07
1.22502e-06
-2.06796e-07
2.42837e-07
8.73716e-07
-1.87469e-07
-8.31669e-07
2.22564e-07
-0.00115056
-1.59071e-08
-1.34544e-07
-9.1641e-07
7.948e-07
9.74638e-07
-7.35301e-07
3.47064e-08
-1.03309e-07
-0.000246192
-5.57791e-09
7.65304e-10
-1.63486e-07
9.74474e-07
-7.33676e-07
-9.15726e-07
7.95718e-07
-1.63341e-08
5.61706e-10
7.51916e-08
0.000246174
-2.31215e-09
5.39881e-08
-0.000250665
-1.81638e-07
2.60189e-09
-1.84451e-08
1.33384e-07
-1.33665e-10
0.000250628
-4.54664e-08
-1.17372e-06
-1.06718e-07
8.76616e-07
-1.89916e-07
-8.33509e-07
2.24949e-07
1.21207e-06
-2.03505e-07
2.34452e-07
-0.00115051
0.00115047
-1.32374e-07
-9.13177e-07
7.92131e-07
-7.32262e-07
9.71432e-07
3.30407e-08
1.10103e-08
0.000246159
-9.958e-08
-0.000246095
-8.12884e-09
-1.63122e-07
9.72279e-07
-7.30387e-07
-9.11677e-07
7.93392e-07
-1.70053e-08
-5.76625e-09
5.31075e-10
7.41732e-08
0.000246081
5.403e-08
0.000250764
-0.00025064
-1.81918e-07
1.76707e-09
-4.64394e-10
1.17546e-09
-5.43358e-09
0.000230074
0.000194369
-0.000194341
6.79469e-09
4.9045e-09
0.000194323
2.11745e-09
0.000230123
-0.000230089
-2.72577e-09
2.03169e-08
8.30022e-10
-7.51909e-09
0.000230038
2.8004e-09
0.000194318
-0.00019429
1.46411e-09
-4.74481e-09
-2.05015e-09
0.00019427
0.000230084
-0.000230052
2.19011e-09
2.21946e-08
9.83564e-05
9.83776e-05
-9.83623e-05
9.83517e-05
9.83734e-05
-9.8358e-05
0.000268248
-1.92039e-07
-2.07204e-07
1.11873e-08
-3.69948e-08
-0.00027915
7.21446e-09
1.17732e-08
-3.75401e-08
-0.00027907
5.73941e-09
-5.62923e-09
-5.98501e-09
1.73936e-08
0.00027913
-4.38576e-09
-7.39908e-09
1.78097e-08
0.00027905
9.83887e-05
-9.83739e-05
9.83684e-05
9.83841e-05
-9.83696e-05
9.83643e-05
8.73669e-09
9.83885e-05
8.66082e-09
9.83752e-05
8.64336e-09
1.1613e-08
-1.11409e-09
0.000279198
7.70707e-09
1.32042e-08
-1.95015e-09
0.000279124
6.41704e-08
2.3895e-09
0.000246215
6.62343e-08
4.15523e-09
0.000246176
-3.90376e-09
-1.3581e-07
9.81887e-07
-7.3499e-07
-9.15158e-07
7.98903e-07
0.0011507
1.56124e-09
0.000250676
9.0795e-10
1.30009e-07
1.41857e-08
-2.81942e-09
0.000194306
1.70272e-08
0.000230075
-5.55512e-09
-1.49425e-09
-1.38364e-07
9.82417e-07
-7.34704e-07
-9.1473e-07
7.99256e-07
0.00115066
-1.14233e-08
6.5517e-08
5.19922e-09
0.000246113
0.000250651
1.27376e-07
2.45251e-10
-1.34355e-07
9.77184e-07
-7.29807e-07
7.97705e-07
-9.10841e-07
2.5455e-08
0.00115055
-1.47231e-08
6.60077e-08
-7.58079e-10
0.000246148
-1.41229e-08
0.000250654
1.27358e-07
3.75157e-09
6.59378e-10
-2.70736e-09
-4.41768e-09
0.000194316
0.000230077
-2.67373e-09
3.66331e-09
-3.29761e-09
1.05714e-08
-2.93694e-09
0.000279086
-6.05855e-09
1.28511e-08
-4.75954e-09
0.000279204
4.45656e-09
9.83785e-05
-1.18193e-07
9.73295e-07
-7.31358e-07
7.9366e-07
-9.1183e-07
0.00115042
-1.4388e-08
6.56024e-08
1.4041e-09
0.000246112
-1.73057e-08
0.00025065
1.30946e-07
4.82964e-10
2.59744e-10
0.00019436
2.88618e-09
0.00023011
-3.54117e-09
-3.10781e-09
-3.32756e-09
-3.4026e-09
0.000194311
0.000230072
2.25145e-09
-5.31619e-09
9.83795e-05
9.83746e-05
7.32572e-10
8.40037e-09
0.000143938
-0.000143946
-1.37284e-09
-7.83847e-09
2.76343e-10
-0.000230078
5.94629e-10
2.39885e-08
-0.000171747
-2.36151e-09
-5.12887e-10
0.000171767
-0.000224121
1.66561e-08
1.27043e-09
0.000224155
-5.1584e-08
-0.000171753
-4.5651e-10
-0.00022414
2.3847e-10
2.77854e-08
-2.32709e-09
0.000143955
-7.95785e-05
-1.27513e-08
1.31117e-09
7.95899e-05
-1.24616e-08
0.000264173
-4.50227e-10
2.98313e-08
2.74317e-09
0.000194341
1.79958e-09
-2.7374e-08
1.18938e-10
-1.85166e-09
0.000264207
-4.2662e-08
-0.000143931
1.67041e-09
-1.52785e-08
1.54973e-08
4.247e-10
1.19894e-09
-4.77757e-08
9.59983e-11
0.000171736
-1.86084e-10
-9.74823e-09
0.000224107
2.92165e-08
-3.49653e-10
-4.99118e-08
1.05597e-08
7.9578e-05
-0.00026419
1.43219e-08
0.000264226
-4.40355e-08
4.32631e-10
-7.11555e-09
1.95049e-08
2.84473e-08
7.959e-05
9.83743e-05
-3.243e-10
-1.45335e-08
8.62238e-09
5.53834e-09
7.86218e-09
1.53198e-09
0.000143935
-0.000143942
-2.13127e-09
1.05264e-09
-7.39016e-09
-0.000230074
5.46027e-11
2.38595e-08
-0.000224115
1.70724e-08
1.04591e-09
0.000224147
-4.89358e-08
-0.000171742
-2.97296e-09
-1.60257e-10
0.000171763
-0.000224132
6.88148e-10
2.55505e-08
-0.000171748
8.83848e-11
-3.12613e-09
0.000143952
-1.34893e-08
1.93982e-09
7.95905e-05
-7.95789e-05
2.65184e-09
0.000194319
1.8559e-09
-2.73805e-08
-0.000194296
-3.00779e-09
0.000264206
-3.9871e-08
-0.000264174
-1.5871e-08
2.3851e-09
-0.000143926
2.24489e-09
1.60739e-08
-2.43028e-10
-4.81059e-08
-0.000230044
-4.71625e-08
-0.000224102
2.73836e-10
-0.00017173
9.77849e-09
7.95785e-05
-0.000264191
1.50351e-08
0.000264224
-4.14142e-08
8.93374e-10
-7.42059e-09
1.9254e-08
2.63831e-08
7.95905e-05
9.83741e-05
-1.28642e-09
-1.52531e-08
8.37063e-09
4.99019e-09
-3.05555e-09
-2.32396e-09
0.000214435
-0.000214443
7.2945e-09
6.64145e-09
-8.08164e-05
-6.87868e-09
-4.1864e-09
8.08274e-05
-8.08026e-05
-7.95305e-09
-3.17269e-09
8.08137e-05
-8.08238e-05
4.43458e-09
-8.08104e-05
5.48487e-09
-1.56399e-08
-1.56696e-08
0.000214451
-0.000222529
-2.5386e-08
1.87654e-08
1.37374e-08
0.000222564
-4.20526e-08
-1.32012e-08
0.000251281
4.46938e-08
2.19567e-08
1.11328e-08
0.000183641
-4.68842e-09
-3.28435e-08
8.15062e-09
0.000279129
9.10191e-09
-1.21302e-08
-7.13329e-09
2.71527e-08
0.000251332
-7.58066e-08
-3.3637e-08
4.44823e-09
0.000183664
-0.00022247
-2.41744e-08
1.57575e-08
1.5061e-08
0.000222499
-3.64141e-08
-1.89572e-08
0.000251163
5.93033e-08
2.34241e-08
1.51254e-08
0.00018359
-6.6363e-09
-2.80833e-08
6.36008e-09
0.000279046
9.40401e-09
-1.28925e-08
-1.14458e-08
3.14468e-08
0.000251215
-6.64323e-08
-3.7049e-08
3.84413e-09
0.000183608
-0.000214427
6.07651e-09
6.64898e-09
3.75995e-09
8.08133e-05
3.75556e-09
8.07999e-05
1.29731e-08
-1.12241e-08
0.000222543
2.63916e-08
-0.000183651
-2.02996e-08
0.000183673
1.8634e-08
-5.61136e-09
-7.00101e-09
9.62988e-09
-0.000251291
2.31638e-08
0.000251343
-7.59955e-08
-3.28922e-08
4.95566e-08
2.27584e-08
0.000222573
-4.30301e-08
9.98054e-09
-1.14904e-08
0.000222481
2.6913e-08
-0.000183596
-2.0649e-08
0.000183618
2.01741e-08
-6.07655e-09
-6.13738e-09
5.02347e-09
-0.000251176
2.5408e-08
0.000251223
-7.0011e-08
-3.4848e-08
5.09466e-08
1.75522e-08
0.000222508
-3.86781e-08
-7.95857e-05
-1.1374e-08
-4.46143e-09
7.96015e-05
-1.18669e-08
0.000264254
-0.000264269
2.2684e-08
-1.32025e-09
-5.45688e-09
1.0177e-08
-3.2947e-08
0.000194406
-7.95946e-05
-2.95465e-09
-5.02145e-08
-4.46317e-09
0.000264291
-7.95846e-05
-1.08775e-08
-4.63733e-09
7.96001e-05
-1.21929e-08
0.000264253
-2.22175e-10
-0.000264266
2.02716e-08
-5.01423e-09
9.94082e-09
-3.28905e-08
0.000194384
-2.94229e-09
-7.95939e-05
-3.44516e-09
-4.78777e-08
0.000264289
-0.000143971
-1.99177e-08
-2.32201e-09
0.000143988
9.39683e-10
2.13791e-08
-6.56527e-10
-5.76313e-08
0.000230146
-4.85277e-09
0.000224169
-0.000224184
2.00411e-08
2.11611e-09
0.000171793
-0.000171798
-7.78364e-10
-0.000143976
-6.02198e-08
0.000224206
-6.16609e-10
0.000171813
-9.09426e-09
-6.22384e-09
9.83775e-05
-0.00022258
-2.81371e-08
2.39397e-08
1.99406e-08
-4.7756e-08
0.000222612
-7.72516e-09
0.000251319
-0.000251362
4.54274e-08
2.00475e-08
1.04001e-08
0.000183692
-3.37016e-09
-0.000183702
-3.82084e-08
1.14224e-08
9.01731e-09
-1.72874e-08
0.000279207
-2.75692e-09
-0.000222596
2.16605e-08
-8.08477e-08
-4.02876e-08
0.000251373
6.6581e-09
0.000183721
-0.000222515
-2.60948e-08
2.29595e-08
1.86487e-08
-4.71999e-08
0.000222547
-9.43768e-09
0.000251206
-0.000251242
4.23583e-08
1.62842e-08
7.29945e-09
0.000183641
-3.65412e-09
-0.000183649
-3.91039e-08
1.05255e-08
9.05101e-09
-1.28683e-08
0.000279124
-4.06196e-09
-0.000222531
1.79546e-08
-7.93603e-08
-3.31357e-08
0.000251253
6.79045e-09
0.000183668
-0.000214473
9.48648e-09
7.42594e-09
0.000214495