/*--------------------------------*- C++ -*----------------------------------*\
| =========                 |                                                 |
| \\      /  F ield         | OpenFOAM: The Open Source CFD Toolbox           |
|  \\    /   O peration     | Version:  v2006                                 |
|   \\  /    A nd           | Website:  www.openfoam.com                      |
|    \\/     M anipulation  |                                                 |
\*---------------------------------------------------------------------------*/
FoamFile
{
    version     2.0;
    format      ascii;
    class       volScalarField;
    location    "625";
    object      epsilon;
}
// * * * * * * * * * * * * * * * * * * * * * * * * * * * * * * * * * * * * * //

dimensions      [0 2 -3 0 0 0 0];


internalField   nonuniform List<scalar> 
14374
(
1.16094e-06
1.17121e-06
1.3916e-06
1.16089e-06
1.16653e-06
1.40421e-06
6.80771e-07
6.8576e-07
9.60979e-06
3.61046e-06
3.64065e-06
9.66489e-06
1.92237e-05
5.6113e-06
5.61127e-06
1.9223e-05
9.22123e-07
3.61211e-06
2.257e-06
9.23608e-07
3.63075e-06
2.25867e-06
9.60455e-06
4.2149e-06
9.63501e-06
4.21692e-06
5.66916e-06
5.64956e-06
1.9323e-05
1.92923e-05
9.62296e-06
9.66628e-06
1.92317e-05
4.66083e-06
2.92435e-06
5.62197e-06
9.9308e-06
2.92627e-06
9.95412e-06
4.65366e-06
4.65703e-06
2.92401e-06
5.62226e-06
9.92726e-06
9.95021e-06
2.92618e-06
4.64821e-06
9.90113e-06
2.23958e-05
2.24123e-05
2.24375e-05
2.24549e-05
9.88165e-06
1.92323e-05
2.29565e-05
9.61884e-06
7.23157e-06
7.24975e-06
2.29587e-05
1.27914e-05
4.21959e-06
4.85838e-06
1.1369e-05
4.8664e-06
1.13758e-05
1.27839e-05
2.2983e-05
9.64231e-06
7.25045e-06
7.26616e-06
2.29919e-05
1.27994e-05
4.22132e-06
4.86598e-06
1.13718e-05
4.8728e-06
1.13782e-05
1.27936e-05
4.69688e-06
2.9522e-06
5.67384e-06
1.00196e-05
4.69325e-06
2.95296e-06
1.00252e-05
4.70124e-06
2.94818e-06
5.65636e-06
9.9964e-06
4.69617e-06
2.94931e-06
1.00054e-05
1.00027e-05
2.25996e-05
2.25822e-05
9.99251e-06
2.26135e-05
2.25981e-05
1.93213e-05
1.9294e-05
2.77642e-06
1.39336e-06
1.92178e-06
1.92187e-06
1.92226e-06
1.92231e-06
2.77566e-06
2.80033e-06
1.40573e-06
1.93967e-06
1.93788e-06
2.79999e-06
1.94007e-06
1.93829e-06
4.98326e-07
4.9976e-07
2.17423e-06
3.61712e-06
2.17584e-06
2.19578e-06
3.64467e-06
2.19684e-06
1.80516e-06
2.17511e-06
3.6185e-06
2.98249e-06
1.80385e-06
2.17615e-06
2.98543e-06
1.62191e-06
2.25724e-06
1.50549e-06
2.49874e-06
1.62069e-06
1.50612e-06
2.49942e-06
1.8128e-06
2.18838e-06
3.63519e-06
2.99442e-06
2.99593e-06
2.18896e-06
1.81199e-06
1.62588e-06
2.25873e-06
1.50664e-06
2.50466e-06
1.50716e-06
2.50477e-06
1.62493e-06
6.9171e-07
1.19677e-06
1.43301e-06
6.9326e-07
1.19288e-06
1.43006e-06
1.42985e-06
1.42831e-06
1.19586e-06
1.19637e-06
1.1957e-06
1.19716e-06
1.43028e-06
1.1957e-06
1.19431e-06
1.19494e-06
1.19288e-06
1.19794e-06
1.19575e-06
1.4288e-06
1.42458e-06
1.19778e-06
1.19292e-06
1.19498e-06
1.42864e-06
1.43019e-06
1.19567e-06
1.19485e-06
1.19293e-06
1.19487e-06
1.42654e-06
1.19419e-06
4.24994e-06
9.64737e-06
4.24974e-06
9.65038e-06
1.92508e-05
1.92631e-05
4.24964e-06
9.65129e-06
6.92084e-07
6.90957e-07
6.93471e-07
6.92806e-07
6.94186e-07
6.90728e-07
6.93293e-07
2.29773e-06
3.65771e-06
9.51525e-07
1.19714e-06
2.29791e-06
3.65898e-06
9.51649e-07
1.92638e-05
1.92631e-05
2.29568e-06
1.19377e-06
9.49876e-07
3.65642e-06
5.68274e-06
5.6839e-06
1.43024e-06
5.6845e-06
5.68509e-06
9.65489e-06
9.65378e-06
4.24932e-06
6.94419e-07
6.9097e-07
6.92974e-07
1.92615e-05
9.48613e-07
3.65427e-06
2.29431e-06
5.68558e-06
5.68557e-06
1.92584e-05
1.92652e-05
1.9266e-05
5.67722e-06
1.42789e-06
5.67775e-06
5.67823e-06
1.9272e-05
1.92654e-05
1.92714e-05
1.92658e-05
1.42968e-06
5.6798e-06
5.67956e-06
5.67846e-06
5.67867e-06
4.24996e-06
9.64322e-06
4.24954e-06
9.64774e-06
2.29677e-06
3.65847e-06
9.50629e-07
1.19576e-06
2.29686e-06
3.65838e-06
9.50774e-07
2.29682e-06
3.65743e-06
9.50644e-07
1.19683e-06
2.29675e-06
3.65873e-06
9.50988e-07
4.25026e-06
9.65427e-06
9.6509e-06
4.25072e-06
4.25038e-06
9.65731e-06
9.64907e-06
4.25101e-06
2.29707e-06
1.19574e-06
3.65899e-06
9.50865e-07
3.65883e-06
9.50858e-07
2.29674e-06
2.29716e-06
1.1971e-06
3.6617e-06
9.513e-07
3.66013e-06
9.51221e-07
2.29698e-06
5.67476e-06
5.67391e-06
1.4296e-06
5.67824e-06
5.67767e-06
1.92509e-05
1.92636e-05
1.92653e-05
1.43178e-06
5.6811e-06
5.68023e-06
1.92659e-05
2.29513e-06
9.50335e-07
1.19533e-06
3.65817e-06
9.49872e-07
4.24931e-06
9.65147e-06
4.2505e-06
9.64977e-06
2.29484e-06
9.498e-07
3.6593e-06
1.19354e-06
2.29618e-06
9.4924e-07
3.65642e-06
4.24967e-06
9.65342e-06
9.65154e-06
4.24923e-06
2.29519e-06
1.19511e-06
3.65859e-06
9.49371e-07
3.65853e-06
9.49564e-07
2.29461e-06
4.24926e-06
9.64751e-06
9.64849e-06
4.24811e-06
2.29484e-06
1.19307e-06
9.4868e-07
3.6545e-06
9.48872e-07
3.65633e-06
2.29402e-06
4.25122e-06
9.64507e-06
4.2506e-06
9.65058e-06
2.29786e-06
9.51925e-07
3.66172e-06
1.1975e-06
2.29828e-06
9.51878e-07
3.66197e-06
4.25164e-06
9.6525e-06
4.25121e-06
9.65752e-06
2.29788e-06
1.19732e-06
9.51607e-07
3.66021e-06
9.51674e-07
2.2969e-06
4.25164e-06
9.65197e-06
4.252e-06
2.29793e-06
1.19671e-06
9.51153e-07
3.66149e-06
9.51698e-07
3.66234e-06
2.2968e-06
4.25192e-06
9.6609e-06
9.65814e-06
4.25203e-06
5.68061e-06
1.42548e-06
5.67562e-06
5.67489e-06
1.92625e-05
1.92622e-05
1.9261e-05
1.42693e-06
5.67248e-06
5.67118e-06
5.67517e-06
5.67428e-06
1.92604e-05
1.92604e-05
2.29621e-06
9.51739e-07
3.66176e-06
1.19683e-06
2.29751e-06
9.50909e-07
3.66168e-06
4.25035e-06
9.65165e-06
4.2512e-06
9.65387e-06
4.25142e-06
9.65746e-06
2.29562e-06
1.19323e-06
9.48842e-07
3.65415e-06
9.49291e-07
3.65625e-06
2.29432e-06
2.29624e-06
1.19595e-06
9.49526e-07
3.66125e-06
9.5021e-07
3.66201e-06
2.29508e-06
4.25025e-06
9.64877e-06
9.65033e-06
4.24917e-06
4.2513e-06
9.65969e-06
9.65789e-06
4.2507e-06
1.92669e-05
1.92766e-05
1.92685e-05
1.92769e-05
1.4317e-06
5.68553e-06
5.68549e-06
5.68539e-06
5.68576e-06
1.92845e-05
1.92774e-05
1.92835e-05
1.92774e-05
1.92726e-05
1.92719e-05
5.68092e-06
5.68079e-06
3.65958e-06
3.65923e-06
9.49334e-07
2.29486e-06
9.64733e-06
4.24815e-06
9.48674e-07
3.65469e-06
2.29417e-06
9.50451e-07
3.66158e-06
2.2968e-06
9.66108e-06
4.25212e-06
5.67265e-06
5.67117e-06
1.92592e-05
9.49052e-07
3.66137e-06
2.29512e-06
9.64838e-06
4.2491e-06
9.65968e-06
4.25075e-06
1.92842e-05
1.92832e-05
1.27734e-05
4.24995e-06
1.13544e-05
4.89873e-06
1.13523e-05
4.89874e-06
1.27757e-05
2.29647e-05
7.27843e-06
9.64865e-06
2.29595e-05
7.27833e-06
1.27727e-05
4.24971e-06
1.13494e-05
4.89839e-06
1.27703e-05
1.13515e-05
4.89836e-06
2.29646e-05
7.27926e-06
9.64913e-06
7.27931e-06
2.29696e-05
1.92554e-05
1.92569e-05
1.27729e-05
4.24989e-06
4.89862e-06
1.13534e-05
4.89869e-06
1.13519e-05
1.27748e-05
2.29662e-05
9.6502e-06
7.27825e-06
1.27723e-05
4.24987e-06
4.8985e-06
1.13513e-05
2.29658e-05
7.27876e-06
9.65047e-06
7.2789e-06
2.29703e-05
1.92647e-05
1.92626e-05
1.0026e-05
2.25959e-05
2.25938e-05
2.25878e-05
2.25864e-05
1.00269e-05
4.72331e-06
2.98158e-06
1.00185e-05
5.68305e-06
4.72336e-06
2.98147e-06
1.00215e-05
4.72768e-06
2.98299e-06
1.00223e-05
5.68409e-06
4.72761e-06
2.98282e-06
1.00248e-05
1.00225e-05
2.25778e-05
2.25769e-05
1.00214e-05
2.25857e-05
2.25845e-05
4.72406e-06
1.00254e-05
5.68429e-06
2.98142e-06
2.98175e-06
1.00227e-05
4.72388e-06
4.72857e-06
1.00279e-05
5.68503e-06
2.98252e-06
2.98298e-06
1.00257e-05
4.72853e-06
2.29837e-05
7.28296e-06
9.65644e-06
2.29787e-05
7.28309e-06
2.2981e-05
7.2812e-06
9.65494e-06
2.29763e-05
7.28135e-06
1.27804e-05
4.24927e-06
4.89939e-06
1.13574e-05
1.27789e-05
4.89941e-06
1.13587e-05
1.92641e-05
4.72214e-06
2.98002e-06
1.00307e-05
5.68473e-06
4.72345e-06
2.97897e-06
1.00308e-05
4.72727e-06
2.98077e-06
1.00316e-05
5.68481e-06
4.72847e-06
2.97976e-06
1.00318e-05
1.00302e-05
2.2607e-05
2.26054e-05
1.00319e-05
2.26091e-05
2.26076e-05
1.92618e-05
1.92621e-05
1.92635e-05
1.92635e-05
1.00122e-05
2.25758e-05
2.25743e-05
2.25725e-05
2.25715e-05
1.00121e-05
4.71727e-06
2.97762e-06
1.00121e-05
5.67717e-06
4.71756e-06
1.00133e-05
2.97742e-06
4.72114e-06
2.97902e-06
5.67812e-06
1.00167e-05
2.9786e-06
1.00115e-05
2.25732e-05
2.25727e-05
4.71759e-06
1.00147e-05
5.67773e-06
2.97758e-06
1.00136e-05
4.71736e-06
2.9777e-06
4.72166e-06
1.00171e-05
5.67845e-06
2.97844e-06
1.00167e-05
4.72155e-06
2.97873e-06
1.92687e-05
1.92684e-05
1.92684e-05
1.92683e-05
1.00135e-05
2.25752e-05
2.25735e-05
1.00131e-05
2.25789e-05
2.25768e-05
4.7183e-06
2.97815e-06
5.67954e-06
1.00181e-05
1.00166e-05
2.97824e-06
4.7183e-06
4.72298e-06
2.97873e-06
5.67938e-06
1.0019e-05
1.00178e-05
2.97884e-06
4.72303e-06
4.71765e-06
1.0015e-05
2.97794e-06
5.67861e-06
4.71778e-06
1.00161e-05
2.97783e-06
4.72215e-06
1.00171e-05
2.97863e-06
5.67861e-06
4.7222e-06
1.00176e-05
2.97847e-06
1.00153e-05
2.25834e-05
2.25817e-05
2.25789e-05
2.25769e-05
1.00161e-05
1.27725e-05
4.2499e-06
1.13539e-05
4.89855e-06
1.13519e-05
4.89838e-06
1.27747e-05
2.29619e-05
7.27516e-06
9.64456e-06
2.29574e-05
7.27532e-06
1.27718e-05
4.24956e-06
1.13491e-05
4.89774e-06
1.13511e-05
1.27698e-05
4.89781e-06
2.29614e-05
7.27724e-06
9.64545e-06
7.27684e-06
2.29666e-05
1.27786e-05
1.13552e-05
4.8992e-06
4.25029e-06
1.27764e-05
1.13572e-05
4.89925e-06
2.29741e-05
9.65281e-06
7.28169e-06
2.2979e-05
7.28161e-06
2.29744e-05
7.28036e-06
9.65224e-06
2.29694e-05
7.2804e-06
1.27792e-05
4.25067e-06
1.13598e-05
4.89991e-06
1.27811e-05
1.1358e-05
4.89982e-06
1.2778e-05
1.13547e-05
4.89928e-06
4.25046e-06
1.27755e-05
1.13568e-05
4.8995e-06
2.29747e-05
9.6538e-06
7.28256e-06
7.28196e-06
2.29821e-05
2.29736e-05
7.27919e-06
9.65217e-06
2.2967e-05
7.27978e-06
1.2779e-05
4.25093e-06
1.13597e-05
4.90051e-06
1.13576e-05
4.90029e-06
1.27817e-05
1.00068e-05
2.25663e-05
2.25673e-05
2.25575e-05
2.25589e-05
1.00091e-05
4.7197e-06
2.97813e-06
1.00057e-05
5.67518e-06
1.00074e-05
4.71935e-06
2.97821e-06
4.7139e-06
2.97731e-06
1.0003e-05
5.6746e-06
2.97747e-06
4.71341e-06
1.00048e-05
1.00025e-05
2.25509e-05
2.25527e-05
2.25556e-05
1.0001e-05
2.25572e-05
4.72163e-06
1.00126e-05
5.67749e-06
2.97952e-06
1.00088e-05
2.9793e-06
4.72224e-06
4.71573e-06
1.00101e-05
5.67669e-06
2.97878e-06
2.9785e-06
1.00063e-05
4.71646e-06
1.92557e-05
1.92573e-05
1.92728e-05
1.00176e-05
2.25698e-05
2.25706e-05
1.00149e-05
2.25807e-05
2.25811e-05
4.72536e-06
1.00149e-05
2.98075e-06
5.68202e-06
2.98099e-06
4.72461e-06
1.00202e-05
4.71958e-06
1.00123e-05
2.97985e-06
5.68124e-06
4.71871e-06
1.00174e-05
2.98016e-06
1.92729e-05
1.27736e-05
4.24993e-06
1.13532e-05
4.89776e-06
1.13519e-05
4.89874e-06
1.27748e-05
2.29686e-05
7.27977e-06
9.65127e-06
2.29657e-05
7.27861e-06
1.27735e-05
4.24995e-06
1.135e-05
4.89971e-06
1.13514e-05
1.27721e-05
4.89886e-06
2.29658e-05
7.27723e-06
9.65029e-06
7.27847e-06
2.29682e-05
1.27769e-05
4.89889e-06
1.13539e-05
4.2494e-06
1.27752e-05
4.89882e-06
1.13553e-05
2.29729e-05
9.65258e-06
7.28012e-06
2.29772e-05
7.28016e-06
2.29739e-05
7.27946e-06
9.65233e-06
2.29696e-05
7.27934e-06
1.27772e-05
4.24942e-06
4.89903e-06
1.1357e-05
1.27786e-05
4.89909e-06
1.13557e-05
1.27758e-05
1.13536e-05
4.89759e-06
4.24863e-06
1.27748e-05
1.13547e-05
4.89666e-06
2.29654e-05
9.64749e-06
7.27562e-06
7.27626e-06
2.29686e-05
2.29679e-05
7.27715e-06
9.64822e-06
2.29652e-05
7.27617e-06
1.27759e-05
4.24859e-06
1.13563e-05
4.89588e-06
1.13551e-05
4.89656e-06
1.27771e-05
1.2774e-05
4.25112e-06
4.89958e-06
1.13567e-05
4.8995e-06
1.13547e-05
1.27763e-05
2.29617e-05
7.27764e-06
9.64689e-06
7.27763e-06
2.29563e-05
1.27733e-05
4.25067e-06
4.89867e-06
1.13519e-05
4.8987e-06
1.27711e-05
1.1354e-05
2.29616e-05
7.27971e-06
9.64795e-06
7.27951e-06
2.29678e-05
1.2777e-05
4.25161e-06
1.13572e-05
4.90127e-06
1.13553e-05
4.90122e-06
1.27791e-05
2.29722e-05
7.28078e-06
9.65476e-06
2.29665e-05
7.28108e-06
1.27763e-05
4.25125e-06
1.13524e-05
4.90052e-06
1.27738e-05
1.13546e-05
4.90065e-06
2.29724e-05
7.28265e-06
9.65563e-06
7.28253e-06
2.29777e-05
1.27793e-05
4.90045e-06
1.13573e-05
4.2517e-06
1.2777e-05
4.90054e-06
1.13591e-05
2.29754e-05
7.28186e-06
9.65515e-06
2.29684e-05
7.28214e-06
1.278e-05
4.25201e-06
4.90131e-06
1.1361e-05
4.90132e-06
1.13596e-05
1.27822e-05
1.27812e-05
1.13578e-05
4.9017e-06
4.25191e-06
1.27796e-05
1.13593e-05
4.9017e-06
2.29825e-05
9.65993e-06
7.2844e-06
7.2845e-06
2.29875e-05
2.29827e-05
7.28373e-06
9.65954e-06
2.29776e-05
7.28371e-06
1.27816e-05
4.2521e-06
1.1361e-05
4.90194e-06
1.13597e-05
4.902e-06
1.27831e-05
1.00137e-05
2.25794e-05
2.25797e-05
2.25805e-05
2.25809e-05
1.00089e-05
2.97892e-06
5.67836e-06
2.97748e-06
4.72129e-06
1.00173e-05
5.67771e-06
2.97574e-06
1.00187e-05
2.97695e-06
4.71898e-06
4.71575e-06
1.00142e-05
5.67702e-06
2.9748e-06
2.97614e-06
1.00156e-05
4.71336e-06
1.9262e-05
1.92606e-05
1.92621e-05
1.00031e-05
2.25739e-05
2.25738e-05
1.00071e-05
2.25732e-05
2.25729e-05
4.71621e-06
2.97377e-06
5.67333e-06
1.00103e-05
2.97424e-06
1.00109e-05
4.71508e-06
4.71061e-06
2.97269e-06
5.67228e-06
1.00064e-05
1.00072e-05
2.97328e-06
4.70944e-06
4.71656e-06
1.00143e-05
2.97529e-06
5.67362e-06
2.97442e-06
4.71832e-06
1.00132e-05
4.71093e-06
1.0011e-05
2.97443e-06
5.67266e-06
4.71273e-06
1.00098e-05
2.97343e-06
1.00018e-05
2.25688e-05
2.25677e-05
2.25686e-05
2.25678e-05
9.99893e-06
1.92593e-05
1.92611e-05
1.27749e-05
4.25082e-06
4.89863e-06
1.13553e-05
4.89958e-06
1.13542e-05
1.2776e-05
2.29662e-05
7.27954e-06
9.65211e-06
7.28114e-06
2.2969e-05
1.27764e-05
4.25143e-06
4.90103e-06
1.13557e-05
4.90112e-06
1.13544e-05
1.27781e-05
2.29739e-05
7.28085e-06
9.65549e-06
2.29687e-05
7.28099e-06
1.27758e-05
4.25131e-06
4.90069e-06
1.13525e-05
1.27739e-05
4.90069e-06
1.13539e-05
2.29737e-05
7.28209e-06
9.65608e-06
7.2821e-06
2.29785e-05
1.27768e-05
4.89852e-06
1.13556e-05
4.24975e-06
1.27759e-05
4.89758e-06
1.13566e-05
2.29657e-05
9.6489e-06
7.27743e-06
7.27838e-06
2.29689e-05
2.29686e-05
7.27958e-06
9.6499e-06
2.29658e-05
7.27821e-06
1.27767e-05
4.24964e-06
4.89676e-06
1.13577e-05
4.89748e-06
1.13568e-05
1.27776e-05
1.27798e-05
4.90137e-06
1.13561e-05
4.251e-06
1.27784e-05
4.90122e-06
1.13572e-05
2.2982e-05
9.65911e-06
7.28302e-06
7.28332e-06
2.29865e-05
2.29827e-05
7.28291e-06
9.65891e-06
2.29781e-05
7.28274e-06
1.27801e-05
4.25108e-06
4.90119e-06
1.13585e-05
4.90144e-06
1.13575e-05
1.27815e-05
1.92715e-05
1.92724e-05
1.92725e-05
1.92731e-05
1.00302e-05
2.25976e-05
2.25955e-05
1.00299e-05
2.26045e-05
2.2602e-05
4.72427e-06
2.98012e-06
5.68585e-06
1.00307e-05
4.72341e-06
2.98095e-06
1.00294e-05
4.72918e-06
2.98092e-06
5.68596e-06
1.00317e-05
4.72844e-06
2.98182e-06
1.00308e-05
4.72398e-06
1.00265e-05
2.98151e-06
5.6854e-06
4.72441e-06
2.98092e-06
1.00288e-05
4.72888e-06
1.00286e-05
2.98257e-06
5.68559e-06
4.72919e-06
2.98189e-06
1.00304e-05
1.0032e-05
2.26086e-05
2.26064e-05
1.00314e-05
2.26046e-05
2.26025e-05
1.92816e-05
1.92812e-05
1.92809e-05
1.92808e-05
1.92764e-05
1.9276e-05
4.71931e-06
2.9786e-06
1.00188e-05
5.68127e-06
4.71921e-06
1.00207e-05
2.97851e-06
4.72419e-06
2.97916e-06
1.00196e-05
5.68116e-06
4.72407e-06
1.00217e-05
2.97907e-06
1.002e-05
2.25841e-05
2.25828e-05
1.00188e-05
2.25901e-05
2.25894e-05
2.29708e-05
7.27601e-06
9.64778e-06
2.29668e-05
7.27567e-06
1.27789e-05
4.24793e-06
1.13567e-05
4.89593e-06
1.13581e-05
1.27773e-05
4.8956e-06
2.29918e-05
7.28496e-06
9.66164e-06
2.2987e-05
7.28475e-06
1.2785e-05
4.25197e-06
1.13613e-05
4.90212e-06
1.27835e-05
1.13625e-05
4.90194e-06
4.71468e-06
2.97386e-06
1.00092e-05
5.67249e-06
1.00092e-05
4.71509e-06
2.9737e-06
4.70902e-06
2.97277e-06
1.00047e-05
5.67077e-06
2.97253e-06
4.70947e-06
1.00044e-05
9.9977e-06
2.25657e-05
2.25643e-05
2.25675e-05
9.99859e-06
2.25657e-05
1.92612e-05
2.29703e-05
7.27779e-06
9.64854e-06
7.27707e-06
2.29665e-05
1.27789e-05
4.24879e-06
4.89679e-06
1.13579e-05
4.89633e-06
1.27777e-05
1.1359e-05
2.299e-05
7.2835e-06
9.65998e-06
2.29856e-05
7.28316e-06
1.27831e-05
4.25034e-06
4.9013e-06
1.13588e-05
1.27817e-05
4.90089e-06
1.13599e-05
1.92862e-05
1.92853e-05
4.94497e-07
4.94399e-07
6.92002e-07
4.95303e-07
4.94882e-07
3.00314e-07
2.991e-07
2.83338e-06
1.97338e-06
1.97406e-06
1.43102e-06
2.83373e-06
1.97239e-06
1.97288e-06
4.97553e-07
4.96528e-07
3.03625e-07
2.83e-06
1.97027e-06
1.97044e-06
1.42775e-06
2.83126e-06
1.96869e-06
1.96888e-06
2.82914e-06
1.97013e-06
1.97086e-06
1.42798e-06
2.82956e-06
1.96923e-06
1.96985e-06
2.82976e-06
1.42991e-06
1.96941e-06
1.96953e-06
1.97012e-06
1.97024e-06
2.82952e-06
2.82921e-06
1.97089e-06
1.97092e-06
1.42882e-06
1.97037e-06
2.82925e-06
1.97033e-06
1.96968e-06
1.42637e-06
1.96782e-06
2.82468e-06
1.4264e-06
1.96539e-06
1.96523e-06
1.96629e-06
1.96615e-06
2.82402e-06
2.83238e-06
1.43093e-06
1.96983e-06
1.97001e-06
2.83123e-06
1.97136e-06
1.97156e-06
2.82981e-06
1.97024e-06
1.97037e-06
1.42854e-06
2.83004e-06
1.96951e-06
1.96964e-06
2.82406e-06
1.96628e-06
1.96609e-06
1.42509e-06
1.96547e-06
2.82433e-06
1.96568e-06
4.94408e-07
4.94955e-07
6.92977e-07
4.95393e-07
4.95905e-07
3.00487e-07
2.99164e-07
4.94217e-07
4.94701e-07
6.90774e-07
4.94524e-07
4.94983e-07
3.00369e-07
2.99283e-07
4.95758e-07
4.95587e-07
6.93545e-07
4.96488e-07
4.96017e-07
3.00954e-07
2.99699e-07
6.92386e-07
4.96846e-07
4.9589e-07
4.96105e-07
4.95378e-07
3.01468e-07
3.0255e-07
6.9371e-07
4.97234e-07
4.97453e-07
4.96363e-07
4.96777e-07
3.01768e-07
3.02964e-07
6.90707e-07
4.9527e-07
4.95516e-07
4.94851e-07
4.95239e-07
3.01379e-07
3.02325e-07
6.93515e-07
4.97443e-07
4.96513e-07
4.97071e-07
4.96319e-07
3.02094e-07
3.03106e-07
1.66832e-06
2.29801e-06
2.5426e-06
1.54796e-06
2.54282e-06
1.5491e-06
1.66676e-06
1.848e-06
2.2243e-06
3.0278e-06
3.65775e-06
1.8492e-06
2.2239e-06
3.02751e-06
1.66666e-06
2.29774e-06
2.54255e-06
1.54899e-06
1.66812e-06
2.5424e-06
1.548e-06
1.8496e-06
3.02813e-06
3.65886e-06
2.22443e-06
2.22482e-06
3.02839e-06
1.8484e-06
1.6659e-06
2.29642e-06
1.54553e-06
2.54014e-06
1.54716e-06
2.54106e-06
1.66369e-06
1.84707e-06
3.02585e-06
3.65786e-06
2.22071e-06
2.22221e-06
3.02723e-06
1.84502e-06
2.83367e-06
1.43245e-06
1.97175e-06
1.97206e-06
1.97298e-06
1.97341e-06
2.83302e-06
4.97984e-07
4.97981e-07
3.04111e-07
4.95895e-07
4.95956e-07
3.03287e-07
4.97733e-07
4.96773e-07
3.04065e-07
1.84311e-06
2.21956e-06
3.02412e-06
3.65382e-06
1.8446e-06
2.21894e-06
3.02344e-06
1.66153e-06
2.29385e-06
1.54493e-06
2.53853e-06
1.66335e-06
1.54357e-06
2.53806e-06
2.82944e-06
1.42965e-06
1.96911e-06
1.96958e-06
2.82913e-06
1.96992e-06
1.97049e-06
2.82928e-06
1.42803e-06
1.96992e-06
1.97027e-06
2.82955e-06
1.96923e-06
1.96945e-06
1.66708e-06
2.29698e-06
2.54161e-06
1.54691e-06
2.54192e-06
1.54791e-06
1.66554e-06
1.84697e-06
2.22384e-06
3.02772e-06
3.65821e-06
3.02726e-06
1.84832e-06
2.22323e-06
1.66542e-06
2.29667e-06
2.54184e-06
1.54764e-06
2.54154e-06
1.66695e-06
1.54669e-06
1.84839e-06
3.02735e-06
3.65862e-06
2.22315e-06
3.0278e-06
2.22373e-06
1.84707e-06
1.66737e-06
2.29696e-06
2.54177e-06
1.54699e-06
2.54186e-06
1.54799e-06
1.66591e-06
1.84716e-06
2.22397e-06
3.02666e-06
3.6574e-06
1.8483e-06
3.0264e-06
2.22359e-06
1.6656e-06
2.29662e-06
2.54149e-06
1.54771e-06
1.66697e-06
2.5414e-06
1.54677e-06
1.84879e-06
3.02714e-06
3.65862e-06
2.22424e-06
3.02733e-06
1.84766e-06
2.22459e-06
1.66556e-06
2.54199e-06
1.54804e-06
2.29682e-06
1.66716e-06
2.54165e-06
1.54696e-06
1.84856e-06
2.22305e-06
3.65915e-06
3.02759e-06
2.22363e-06
3.02802e-06
1.84717e-06
1.84716e-06
3.02789e-06
2.22367e-06
3.65863e-06
2.22311e-06
1.8485e-06
3.02745e-06
1.66711e-06
2.29708e-06
2.54163e-06
1.54682e-06
2.54201e-06
1.54801e-06
1.66543e-06
1.66615e-06
2.54225e-06
1.54816e-06
2.29699e-06
1.66763e-06
2.54216e-06
1.54714e-06
1.8498e-06
2.22527e-06
3.66165e-06
3.02894e-06
3.02912e-06
2.22573e-06
1.84859e-06
1.84818e-06
3.02822e-06
2.22524e-06
3.66027e-06
1.84931e-06
3.02807e-06
2.22488e-06
1.66784e-06
2.29728e-06
2.54233e-06
1.54709e-06
2.54258e-06
1.54825e-06
1.66622e-06
2.83043e-06
1.43106e-06
1.97113e-06
1.97114e-06
1.97168e-06
1.97167e-06
2.83044e-06
2.83173e-06
1.43029e-06
1.97242e-06
1.9724e-06
1.97185e-06
2.83173e-06
1.97183e-06
1.66589e-06
2.29562e-06
2.54023e-06
1.54503e-06
2.5407e-06
1.54647e-06
1.66397e-06
1.84635e-06
2.22402e-06
3.65818e-06
3.02641e-06
1.84801e-06
2.22317e-06
1.66458e-06
2.2956e-06
1.54714e-06
2.54065e-06
1.66656e-06
1.54564e-06
1.84748e-06
3.02611e-06
3.65848e-06
2.22281e-06
3.02672e-06
2.22356e-06
1.84586e-06
1.6651e-06
2.29545e-06
1.54472e-06
2.53941e-06
1.54621e-06
2.54019e-06
1.66301e-06
1.84536e-06
2.22344e-06
3.02735e-06
3.65789e-06
1.84739e-06
3.02608e-06
2.2219e-06
1.66388e-06
2.29547e-06
1.54697e-06
2.54113e-06
1.66606e-06
1.5454e-06
2.54026e-06
1.84637e-06
3.02503e-06
3.65778e-06
2.2207e-06
3.02623e-06
1.84443e-06
2.22208e-06
1.66345e-06
2.54043e-06
1.54589e-06
2.29479e-06
1.6653e-06
2.54003e-06
1.54455e-06
1.84682e-06
2.22257e-06
3.65877e-06
3.02622e-06
2.22314e-06
3.02654e-06
1.84544e-06
1.84549e-06
3.02647e-06
2.22325e-06
3.65829e-06
2.22263e-06
1.84703e-06
3.02597e-06
1.66485e-06
2.29492e-06
2.54001e-06
1.54421e-06
2.54036e-06
1.54545e-06
1.66311e-06
1.6623e-06
1.54556e-06
2.53937e-06
2.29435e-06
1.66427e-06
1.54418e-06
2.53874e-06
1.84486e-06
2.21944e-06
3.65524e-06
3.02365e-06
3.02441e-06
2.22022e-06
1.84331e-06
1.84371e-06
3.0252e-06
2.22096e-06
3.65523e-06
1.84549e-06
3.02416e-06
2.21985e-06
1.66362e-06
2.29438e-06
1.5438e-06
2.5383e-06
1.54506e-06
2.53877e-06
1.66182e-06
1.66862e-06
2.29826e-06
1.54785e-06
2.5431e-06
1.54914e-06
2.54356e-06
1.66674e-06
1.84922e-06
2.22642e-06
3.0298e-06
3.66162e-06
2.22578e-06
1.8506e-06
3.02951e-06
1.66715e-06
2.29805e-06
1.54912e-06
2.54354e-06
1.5481e-06
1.66874e-06
2.54328e-06
1.8505e-06
3.02968e-06
3.66221e-06
2.22536e-06
2.22624e-06
3.03013e-06
1.84881e-06
1.66655e-06
2.54297e-06
1.54886e-06
2.29741e-06
1.66832e-06
2.54261e-06
1.54737e-06
1.84872e-06
3.02903e-06
2.22529e-06
3.66036e-06
1.84998e-06
2.22487e-06
3.02879e-06
1.66783e-06
2.29749e-06
2.54227e-06
1.5466e-06
1.66568e-06
2.54284e-06
1.54817e-06
1.66584e-06
1.54865e-06
2.54322e-06
2.29739e-06
1.66796e-06
1.54711e-06
2.5426e-06
1.84902e-06
2.22365e-06
3.66215e-06
3.02859e-06
3.02948e-06
2.22492e-06
1.8471e-06
1.84797e-06
3.02999e-06
2.22572e-06
3.66193e-06
1.84984e-06
3.02921e-06
2.22463e-06
1.66707e-06
2.29744e-06
1.54631e-06
2.54193e-06
1.5479e-06
2.54271e-06
1.66491e-06
2.82749e-06
1.42777e-06
1.96655e-06
1.96643e-06
1.9681e-06
1.96819e-06
2.82587e-06
2.8246e-06
1.42485e-06
1.967e-06
1.96689e-06
1.96569e-06
2.82575e-06
1.96556e-06
1.66723e-06
2.29688e-06
1.54596e-06
2.54179e-06
1.54755e-06
2.54235e-06
1.66517e-06
1.84827e-06
2.22652e-06
3.02914e-06
3.66156e-06
2.22568e-06
1.84993e-06
3.02862e-06
1.66598e-06
2.29685e-06
1.54834e-06
2.54281e-06
1.54677e-06
1.668e-06
2.54228e-06
1.84938e-06
3.02842e-06
3.66196e-06
2.22504e-06
2.22606e-06
3.02902e-06
1.84762e-06
1.66279e-06
1.54632e-06
2.54004e-06
2.29493e-06
1.66491e-06
1.54476e-06
2.53922e-06
1.84517e-06
2.21908e-06
3.655e-06
3.02386e-06
1.84343e-06
2.22001e-06
3.02484e-06
1.8441e-06
3.02596e-06
2.22093e-06
3.65504e-06
1.84603e-06
2.21968e-06
3.02469e-06
1.66404e-06
2.29491e-06
1.54409e-06
2.53851e-06
1.66204e-06
1.54557e-06
2.53913e-06
1.66437e-06
1.54676e-06
2.54187e-06
2.29562e-06
1.66642e-06
1.54522e-06
2.54128e-06
1.84799e-06
2.22337e-06
3.66182e-06
3.02757e-06
3.02833e-06
2.22456e-06
1.84617e-06
1.84692e-06
3.02874e-06
2.22537e-06
3.6616e-06
1.84871e-06
3.02804e-06
2.22427e-06
1.66564e-06
2.29567e-06
1.54453e-06
2.54073e-06
1.54602e-06
2.54136e-06
1.6636e-06
2.83229e-06
1.4295e-06
1.97228e-06
1.97256e-06
2.8332e-06
1.97088e-06
1.97111e-06
1.84704e-06
2.22356e-06
3.02817e-06
3.65944e-06
3.02773e-06
1.84851e-06
2.22296e-06
1.84574e-06
2.22315e-06
3.02689e-06
3.65912e-06
3.02656e-06
1.84696e-06
2.22262e-06
1.66316e-06
2.29461e-06
2.5404e-06
1.5452e-06
2.54011e-06
1.66469e-06
1.54416e-06
1.84358e-06
2.21999e-06
3.02404e-06
3.65432e-06
1.84476e-06
3.02352e-06
2.21944e-06
1.66189e-06
2.29392e-06
1.54479e-06
2.53853e-06
1.66335e-06
1.54375e-06
2.53818e-06
1.84611e-06
2.2239e-06
3.02881e-06
3.66065e-06
2.22251e-06
1.84812e-06
3.02773e-06
1.66387e-06
2.29601e-06
1.54708e-06
2.54198e-06
1.5454e-06
1.66611e-06
2.54108e-06
1.84543e-06
2.22364e-06
3.02783e-06
3.66057e-06
2.22242e-06
1.84724e-06
3.02698e-06
1.66287e-06
2.29458e-06
1.54536e-06
2.54079e-06
1.54394e-06
1.66487e-06
2.54011e-06
9.64938e-06
4.25012e-06
1.92606e-05
5.67832e-06
3.65854e-06
2.29618e-06
7.27842e-06
2.29613e-05
4.89857e-06
1.13498e-05
1.27704e-05
1.00162e-05
4.72127e-06
2.25698e-05
2.25699e-05
1.00117e-05
3.02714e-06
2.54118e-06
1.93021e-05
1.39615e-06
5.64998e-06
5.65063e-06
1.93047e-05
2.26066e-06
1.16149e-06
9.22928e-07
3.63208e-06
4.23497e-06
9.6724e-06
1.92805e-05
9.92786e-06
2.25946e-05
2.26073e-05
9.96985e-06
2.25205e-05
2.25366e-05
4.66556e-06
1.00343e-05
2.93524e-06
5.62705e-06
2.92772e-06
4.68278e-06
9.99832e-06
4.66257e-06
1.00283e-05
2.93551e-06
5.62765e-06
4.68114e-06
9.99355e-06
2.92776e-06
1.92827e-05
1.28109e-05
4.88494e-06
1.1396e-05
4.22662e-06
1.28225e-05
4.87144e-06
1.13858e-05
2.30265e-05
7.27285e-06
9.6508e-06
2.3041e-05
7.2473e-06
1.28171e-05
4.22781e-06
4.8768e-06
1.13877e-05
2.30412e-05
9.66531e-06
7.26235e-06
1.93227e-05
2.77733e-06
1.39204e-06
1.92564e-06
1.92563e-06
1.92177e-06
2.78326e-06
1.92179e-06
1.62057e-06
1.50808e-06
2.50432e-06
2.2579e-06
1.62442e-06
1.50519e-06
2.50035e-06
1.80417e-06
2.99421e-06
2.18071e-06
3.62016e-06
1.80839e-06
2.17604e-06
2.98612e-06
2.25913e-06
2.50492e-06
6.9464e-07
9.36588e-07
1.18994e-06
1.42493e-06
6.93421e-07
1.18022e-06
1.17005e-06
1.41499e-06
1.92937e-05
5.67394e-06
9.41806e-07
9.40596e-07
9.64252e-06
1.41732e-06
3.65161e-06
2.28277e-06
1.18325e-06
1.1799e-06
5.69411e-06
1.41449e-06
2.29181e-06
2.2936e-06
1.18363e-06
1.17898e-06
1.18491e-06
4.2499e-06
1.17882e-06
1.17983e-06
1.43228e-06
1.41241e-06
9.44407e-07
9.67289e-06
1.17818e-06
1.18027e-06
1.93279e-05
1.41468e-06
1.41747e-06
1.17839e-06
1.18124e-06
1.41688e-06
1.17607e-06
1.17087e-06
1.17609e-06
1.41116e-06
1.17392e-06
3.64634e-06
2.28131e-06
5.69192e-06
2.28911e-06
9.63894e-06
3.65034e-06
9.36772e-07
1.18436e-06
4.24652e-06
1.42186e-06
1.92896e-05
9.65707e-06
4.2471e-06
4.25663e-06
9.69348e-06
1.93519e-05
1.93692e-05
4.24711e-06
9.66187e-06
4.26316e-06
9.70739e-06
5.05925e-07
5.05529e-07
5.01455e-07
6.95517e-07
6.8994e-07
6.91367e-07
6.93632e-07
1.17823e-06
2.28311e-06
3.65507e-06
2.28379e-06
1.17801e-06
3.65171e-06
9.36299e-07
1.9337e-05
1.94167e-05
9.44752e-07
2.29561e-06
3.66994e-06
1.18963e-06
2.29427e-06
9.44677e-07
3.67746e-06
5.69259e-06
5.69014e-06
1.42327e-06
5.70332e-06
5.71001e-06
4.24688e-06
9.71022e-06
4.25691e-06
9.69743e-06
1.93279e-05
1.93151e-05
4.24708e-06
9.73762e-06
4.26665e-06
9.70745e-06
6.92151e-07
6.86653e-07
6.9089e-07
2.27844e-06
3.64689e-06
9.36514e-07
1.18067e-06
2.28186e-06
3.64373e-06
9.36537e-07
1.94433e-05
1.93642e-05
2.26345e-06
9.30793e-07
3.66513e-06
1.1641e-06
2.27767e-06
9.25514e-07
3.63613e-06
5.70356e-06
5.70865e-06
1.40602e-06
5.68332e-06
5.67746e-06
1.93255e-05
1.42466e-06
1.42834e-06
5.69723e-06
5.69865e-06
5.67489e-06
1.93275e-05
1.92945e-05
1.18677e-06
1.18905e-06
9.43842e-07
2.28505e-06
3.66313e-06
3.65133e-06
2.29194e-06
9.43102e-07
1.1865e-06
3.64632e-06
1.18418e-06
3.65342e-06
2.28397e-06
2.29047e-06
4.23681e-06
9.66689e-06
9.64145e-06
4.24746e-06
9.6648e-06
4.23365e-06
4.24396e-06
1.93026e-05
1.93691e-05
1.93072e-05
1.93813e-05
5.67827e-06
5.68347e-06
1.42536e-06
1.42508e-06
5.70123e-06
5.70865e-06
1.93961e-05
1.93752e-05
1.94175e-05
1.93899e-05
1.42645e-06
5.71253e-06
5.7219e-06
5.71025e-06
5.71907e-06
4.24543e-06
9.68414e-06
4.25236e-06
9.69789e-06
2.28341e-06
1.18581e-06
9.39166e-07
2.28655e-06
1.18618e-06
3.66053e-06
9.3978e-07
3.65495e-06
1.17779e-06
9.3615e-07
2.28487e-06
1.17795e-06
3.65289e-06
9.36564e-07
4.25884e-06
9.71244e-06
9.69971e-06
4.25847e-06
4.25394e-06
9.68939e-06
9.6971e-06
4.25309e-06
2.28753e-06
1.18588e-06
3.66519e-06
9.39796e-07
3.66512e-06
9.40042e-07
2.28648e-06
2.2856e-06
1.17874e-06
3.6473e-06
9.37788e-07
3.65318e-06
9.37406e-07
2.2844e-06
1.4173e-06
5.69455e-06
1.41464e-06
5.68687e-06
5.68394e-06
1.9351e-05
1.93603e-05
1.93466e-05
1.93629e-05
1.41628e-06
5.66841e-06
5.6665e-06
5.68528e-06
5.68207e-06
1.93351e-05
1.93524e-05
3.65475e-06
1.18855e-06
9.44285e-07
2.29462e-06
1.18892e-06
3.66423e-06
9.44768e-07
4.25148e-06
9.67328e-06
4.26466e-06
9.72928e-06
9.44202e-07
1.18956e-06
3.66944e-06
2.29585e-06
1.18937e-06
9.44325e-07
3.67766e-06
4.26776e-06
9.73981e-06
9.71823e-06
4.2698e-06
2.29443e-06
1.18821e-06
3.66683e-06
9.41445e-07
3.66868e-06
9.44412e-07
2.28417e-06
4.26799e-06
9.76642e-06
9.74257e-06
4.26638e-06
2.29524e-06
1.18711e-06
9.39321e-07
3.66839e-06
9.4358e-07
3.6799e-06
2.28332e-06
4.24695e-06
9.68911e-06
4.25307e-06
9.69797e-06
9.39042e-07
2.28428e-06
3.65639e-06
2.28554e-06
1.18472e-06
9.39026e-07
3.66136e-06
9.6712e-06
4.25701e-06
9.70004e-06
2.28409e-06
1.17821e-06
3.64644e-06
9.36341e-07
3.65178e-06
9.36348e-07
2.28222e-06
4.25453e-06
9.68575e-06
9.6962e-06
4.25399e-06
2.28584e-06
1.18373e-06
9.37505e-07
3.66055e-06
9.38797e-07
3.6637e-06
2.28312e-06
4.25819e-06
9.71209e-06
9.7036e-06
4.25539e-06
5.71275e-06
5.71367e-06
1.43027e-06
5.73671e-06
5.73581e-06
1.93386e-05
1.94134e-05
1.94578e-05
1.9427e-05
1.43062e-06
5.72883e-06
5.72711e-06
5.74388e-06
5.74228e-06
1.94527e-05
1.94231e-05
1.18769e-06
3.65856e-06
2.29422e-06
1.18768e-06
2.29277e-06
9.44475e-07
3.66481e-06
4.26591e-06
9.67897e-06
4.25258e-06
9.73214e-06
4.26374e-06
4.24934e-06
9.71476e-06
2.29425e-06
1.18695e-06
9.37772e-07
3.66846e-06
9.43397e-07
3.67948e-06
2.28171e-06
2.2931e-06
1.18624e-06
9.39003e-07
3.66148e-06
9.43625e-07
3.66717e-06
2.2812e-06
4.26918e-06
9.76553e-06
9.74436e-06
4.26827e-06
4.26765e-06
9.74037e-06
9.72345e-06
4.2677e-06
1.93281e-05
1.93745e-05
1.9387e-05
1.42432e-06
5.70509e-06
5.71169e-06
5.70835e-06
5.7165e-06
1.93906e-05
1.93764e-05
1.94116e-05
1.93924e-05
1.93871e-05
1.93628e-05
1.9408e-05
1.93691e-05
5.71257e-06
5.72085e-06
1.40704e-06
5.69669e-06
5.69344e-06
1.9338e-05
1.93325e-05
1.40772e-06
5.69498e-06
5.68855e-06
4.24421e-06
9.68092e-06
4.25178e-06
9.66932e-06
2.28027e-06
3.66588e-06
9.38811e-07
1.17365e-06
2.28601e-06
3.65574e-06
9.36181e-07
2.27939e-06
3.64763e-06
9.3821e-07
1.1816e-06
2.28406e-06
3.64373e-06