/*--------------------------------*- C++ -*----------------------------------*\
| =========                 |                                                 |
| \\      /  F ield         | OpenFOAM: The Open Source CFD Toolbox           |
|  \\    /   O peration     | Version:  v2006                                 |
|   \\  /    A nd           | Website:  www.openfoam.com                      |
|    \\/     M anipulation  |                                                 |
\*---------------------------------------------------------------------------*/
FoamFile
{
    version     2.0;
    format      ascii;
    class       volScalarField;
    location    "625";
    object      k;
}
// * * * * * * * * * * * * * * * * * * * * * * * * * * * * * * * * * * * * * //

dimensions      [0 2 -2 0 0 0 0];


internalField   nonuniform List<scalar> 
14374
(
5.36643e-05
5.3202e-05
5.5596e-05
5.36775e-05
5.34357e-05
5.51331e-05
4.28212e-05
4.26609e-05
7.36628e-05
6.5e-05
6.49849e-05
7.39425e-05
7.15183e-05
6.94793e-05
6.95071e-05
7.152e-05
4.9349e-05
6.50305e-05
6.14907e-05
4.92965e-05
6.5004e-05
6.14449e-05
7.36392e-05
6.89305e-05
7.379e-05
6.89021e-05
7.00281e-05
6.98079e-05
7.17656e-05
7.1687e-05
7.37313e-05
7.39501e-05
7.1539e-05
7.49515e-05
6.57408e-05
7.02571e-05
7.3264e-05
6.65341e-05
7.33806e-05
7.39959e-05
7.49846e-05
6.57815e-05
7.03152e-05
7.32614e-05
7.33763e-05
6.65788e-05
7.40293e-05
9.48943e-05
7.34999e-05
7.35416e-05
7.35934e-05
7.3637e-05
9.38191e-05
7.15441e-05
7.20925e-05
7.37135e-05
7.94657e-05
8.0255e-05
7.20962e-05
7.23651e-05
6.93654e-05
7.17427e-05
7.21458e-05
7.23053e-05
7.21752e-05
7.23365e-05
7.21441e-05
7.38281e-05
7.95256e-05
8.01687e-05
7.21619e-05
7.23923e-05
6.93282e-05
7.16927e-05
7.21572e-05
7.22112e-05
7.2185e-05
7.23697e-05
7.47323e-05
6.55735e-05
7.03106e-05
7.37102e-05
7.42924e-05
6.59025e-05
7.37381e-05
7.48807e-05
6.57009e-05
7.03508e-05
7.35832e-05
7.43916e-05
6.61482e-05
7.36283e-05
9.55036e-05
7.39487e-05
7.39051e-05
9.50654e-05
7.39794e-05
7.39403e-05
7.17616e-05
7.16919e-05
6.7398e-05
5.59941e-05
6.08313e-05
6.08462e-05
6.14454e-05
6.14619e-05
6.66063e-05
6.68083e-05
5.5343e-05
6.03946e-05
6.04859e-05
6.64459e-05
6.0674e-05
6.08056e-05
3.70884e-05
3.70567e-05
6.135e-05
6.57668e-05
6.19742e-05
6.09012e-05
6.52756e-05
6.11662e-05
5.92291e-05
6.13599e-05
6.58109e-05
6.4699e-05
5.86999e-05
6.19893e-05
6.53798e-05
5.81312e-05
6.19658e-05
5.65639e-05
6.30409e-05
5.77e-05
5.68984e-05
6.35702e-05
5.88777e-05
6.11404e-05
6.55558e-05
6.45413e-05
6.5078e-05
6.15565e-05
5.84715e-05
5.79479e-05
6.19033e-05
5.65118e-05
6.29223e-05
5.68328e-05
6.33865e-05
5.75721e-05
4.1464e-05
5.27149e-05
5.4659e-05
4.16928e-05
5.28819e-05
5.48511e-05
5.46188e-05
5.46667e-05
5.27648e-05
5.27135e-05
5.28171e-05
5.27211e-05
5.45648e-05
5.27793e-05
5.28963e-05
5.28629e-05
5.28924e-05
5.27944e-05
5.2973e-05
5.47861e-05
5.46999e-05
5.28173e-05
5.29134e-05
5.29911e-05
5.48175e-05
5.46821e-05
5.28347e-05
5.28634e-05
5.28504e-05
5.30063e-05
5.46921e-05
5.30063e-05
6.88329e-05
7.38577e-05
6.88356e-05
7.38731e-05
7.15852e-05
7.16155e-05
6.88972e-05
7.38722e-05
4.14322e-05
4.15762e-05
4.14694e-05
4.16454e-05
4.15517e-05
4.17091e-05
4.17821e-05
6.11243e-05
6.50508e-05
4.84209e-05
5.27119e-05
6.11084e-05
6.50312e-05
4.84431e-05
7.16159e-05
7.16141e-05
6.12302e-05
5.2921e-05
4.85994e-05
6.52888e-05
7.02309e-05
7.02651e-05
5.47303e-05
7.02981e-05
7.03183e-05
7.3896e-05
7.38848e-05
6.88414e-05
4.16488e-05
4.17151e-05
4.18523e-05
7.16094e-05
4.86394e-05
6.51198e-05
6.11947e-05
7.04203e-05
7.03903e-05
7.16096e-05
7.16264e-05
7.16223e-05
7.02353e-05
5.46444e-05
7.02333e-05
7.02558e-05
7.16433e-05
7.16268e-05
7.16357e-05
7.16219e-05
5.46702e-05
7.02161e-05
7.01966e-05
7.02275e-05
7.02409e-05
6.88198e-05
7.38324e-05
6.88292e-05
7.38551e-05
6.11083e-05
6.51384e-05
4.84389e-05
5.27912e-05
6.11052e-05
6.51404e-05
4.84593e-05
6.10946e-05
6.50507e-05
4.84198e-05
5.27038e-05
6.10997e-05
6.50124e-05
4.8424e-05
6.88295e-05
7.38929e-05
7.38757e-05
6.8834e-05
6.88156e-05
7.39038e-05
7.38619e-05
6.88234e-05
6.11059e-05
5.28081e-05
6.51322e-05
4.85035e-05
6.51378e-05
4.84805e-05
6.11162e-05
6.10906e-05
5.27047e-05
6.50824e-05
4.84635e-05
6.50114e-05
4.84348e-05
6.11016e-05
7.00894e-05
7.00914e-05
5.45057e-05
7.00608e-05
7.00768e-05
7.15881e-05
7.16192e-05
7.1621e-05
5.45169e-05
7.00692e-05
7.00952e-05
7.16248e-05
6.11836e-05
4.84774e-05
5.28262e-05
6.5168e-05
4.85352e-05
6.89165e-05
7.38715e-05
6.8914e-05
7.3863e-05
6.12019e-05
4.85278e-05
6.5298e-05
5.29069e-05
6.11953e-05
4.8569e-05
6.52734e-05
6.88934e-05
7.3883e-05
7.38735e-05
6.8865e-05
6.11802e-05
5.28541e-05
6.51358e-05
4.85878e-05
6.51627e-05
4.85729e-05
6.11599e-05
6.89083e-05
7.3851e-05
7.38564e-05
6.88618e-05
6.1197e-05
5.29054e-05
4.85871e-05
6.51292e-05
4.85859e-05
6.52342e-05
6.11609e-05
6.88436e-05
7.3842e-05
6.88326e-05
7.38702e-05
6.11477e-05
4.84531e-05
6.5139e-05
5.28645e-05
6.11159e-05
4.85067e-05
6.51993e-05
6.8866e-05
7.3878e-05
6.88425e-05
7.39038e-05
6.11305e-05
5.27178e-05
4.85437e-05
6.50355e-05
4.84864e-05
6.11764e-05
6.88481e-05
7.38773e-05
6.88831e-05
6.11552e-05
5.29257e-05
4.86193e-05
6.52664e-05
4.85632e-05
6.52111e-05
6.11974e-05
6.88703e-05
7.39212e-05
7.3907e-05
6.8897e-05
7.04357e-05
5.47875e-05
7.03559e-05
7.03767e-05
7.16162e-05
7.16111e-05
7.1609e-05
5.47946e-05
7.01812e-05
7.0212e-05
7.03135e-05
7.03374e-05
7.16108e-05
7.16109e-05
6.12189e-05
4.84983e-05
6.51761e-05
5.2899e-05
6.11927e-05
4.85864e-05
6.52215e-05
6.89319e-05
7.38755e-05
6.89191e-05
7.38831e-05
6.89012e-05
7.39015e-05
6.12281e-05
5.29217e-05
4.86405e-05
6.51649e-05
4.86323e-05
6.52614e-05
6.12146e-05
6.12181e-05
5.29572e-05
4.86779e-05
6.526e-05
4.86466e-05
6.52285e-05
6.12168e-05
6.89296e-05
7.38606e-05
7.38687e-05
6.89077e-05
6.89181e-05
7.3913e-05
7.39037e-05
6.8914e-05
7.16258e-05
7.16499e-05
7.16269e-05
7.16478e-05
5.47803e-05
7.04004e-05
7.03819e-05
7.03227e-05
7.03364e-05
7.16695e-05
7.16517e-05
7.16644e-05
7.16491e-05
7.16446e-05
7.1637e-05
7.02162e-05
7.01866e-05
6.51305e-05
6.51175e-05
4.85897e-05
6.11383e-05
7.385e-05
6.8832e-05
4.85833e-05
6.50841e-05
6.11318e-05
4.86738e-05
6.52765e-05
6.1204e-05
7.39222e-05
6.89004e-05
7.01386e-05
7.0166e-05
7.16078e-05
4.86884e-05
6.52629e-05
6.12086e-05
7.38585e-05
6.88848e-05
7.3913e-05
6.89032e-05
7.16688e-05
7.16636e-05
7.22954e-05
6.88324e-05
7.20838e-05
7.18496e-05
7.2075e-05
7.18471e-05
7.23041e-05
7.21065e-05
8.00607e-05
7.38642e-05
7.20958e-05
8.00638e-05
7.22925e-05
6.88363e-05
7.20627e-05
7.18469e-05
7.22836e-05
7.20715e-05
7.18497e-05
7.21064e-05
8.00672e-05
7.38667e-05
8.00644e-05
7.21169e-05
7.15964e-05
7.16002e-05
7.22925e-05
6.88958e-05
7.18912e-05
7.20783e-05
7.1889e-05
7.20718e-05
7.22996e-05
7.21091e-05
7.38666e-05
8.00979e-05
7.22904e-05
6.8897e-05
7.18907e-05
7.20696e-05
7.21082e-05
8.0097e-05
7.3868e-05
8.0097e-05
7.21178e-05
7.16181e-05
7.16128e-05
9.53688e-05
7.3938e-05
7.39281e-05
7.39205e-05
7.39118e-05
9.5408e-05
7.45079e-05
6.56625e-05
7.37014e-05
7.02531e-05
7.44771e-05
6.56941e-05
7.37167e-05
7.4542e-05
6.56966e-05
7.37071e-05
7.02828e-05
7.45102e-05
6.57289e-05
7.37189e-05
9.53219e-05
7.38985e-05
7.38916e-05
9.52948e-05
7.39159e-05
7.39076e-05
7.45297e-05
7.37363e-05
7.02742e-05
6.57428e-05
6.57104e-05
7.37227e-05
7.45637e-05
7.45637e-05
7.37339e-05
7.02997e-05
6.57714e-05
6.57433e-05
7.37233e-05
7.45985e-05
7.21464e-05
8.00798e-05
7.39039e-05
7.21359e-05
8.00863e-05
7.21401e-05
8.00579e-05
7.38907e-05
7.21303e-05
8.00528e-05
7.23208e-05
6.88317e-05
7.18514e-05
7.20951e-05
7.23152e-05
7.18448e-05
7.21008e-05
7.16157e-05
7.47159e-05
6.58571e-05
7.37623e-05
7.04334e-05
7.47037e-05
6.58757e-05
7.37632e-05
7.47393e-05
6.5853e-05
7.37529e-05
7.03937e-05
7.47292e-05
6.58623e-05
7.37538e-05
9.56241e-05
7.39623e-05
7.39538e-05
9.56168e-05
7.39671e-05
7.39586e-05
7.1618e-05
7.16188e-05
7.16162e-05
7.16161e-05
9.53289e-05
7.38955e-05
7.38868e-05
7.38884e-05
7.38808e-05
9.53073e-05
7.44995e-05
6.56727e-05
7.36731e-05
7.02357e-05
7.45003e-05
7.3679e-05
6.56753e-05
7.45285e-05
6.56996e-05
7.02681e-05
7.36797e-05
6.57027e-05
9.5338e-05
7.38899e-05
7.38834e-05
7.44938e-05
7.36859e-05
7.02354e-05
6.56722e-05
7.36806e-05
7.44887e-05
6.5673e-05
7.45253e-05
7.36816e-05
7.02652e-05
6.56994e-05
7.36795e-05
7.45209e-05
6.57007e-05
7.1635e-05
7.16343e-05
7.16282e-05
7.16281e-05
9.52773e-05
7.38942e-05
7.3885e-05
9.5294e-05
7.39023e-05
7.38923e-05
7.44566e-05
6.56565e-05
7.02179e-05
7.37022e-05
7.3695e-05
6.56582e-05
7.44524e-05
7.44871e-05
6.56654e-05
7.021e-05
7.36906e-05
7.3685e-05
6.56731e-05
7.44806e-05
7.44696e-05
7.36873e-05
6.56676e-05
7.02218e-05
7.44762e-05
7.36928e-05
6.5665e-05
7.45021e-05
7.36814e-05
6.5693e-05
7.02261e-05
7.45091e-05
7.3684e-05
6.56874e-05
9.52692e-05
7.3912e-05
7.39026e-05
7.39022e-05
7.38924e-05
9.52634e-05
7.22891e-05
6.88207e-05
7.20817e-05
7.18086e-05
7.20731e-05
7.18105e-05
7.22974e-05
7.2097e-05
8.00073e-05
7.38391e-05
7.20878e-05
7.9997e-05
7.22866e-05
6.88276e-05
7.20613e-05
7.18277e-05
7.20698e-05
7.2279e-05
7.18231e-05
7.20961e-05
7.99813e-05
7.38436e-05
7.99839e-05
7.21069e-05
7.23148e-05
7.20872e-05
7.18472e-05
6.88311e-05
7.23067e-05
7.20957e-05
7.18502e-05
7.21262e-05
7.38855e-05
8.00773e-05
7.21366e-05
8.00728e-05
7.21269e-05
8.0068e-05
7.38826e-05
7.21165e-05
8.00713e-05
7.2317e-05
6.88299e-05
7.21068e-05
7.18529e-05
7.23242e-05
7.20988e-05
7.18488e-05
7.23099e-05
7.20852e-05
7.18034e-05
6.88169e-05
7.23005e-05
7.2094e-05
7.18055e-05
7.21237e-05
7.38859e-05
8.00283e-05
7.9998e-05
7.21392e-05
7.21215e-05
7.99802e-05
7.38776e-05
7.21077e-05
7.99869e-05
7.23135e-05
6.88165e-05
7.21063e-05
7.18211e-05
7.20974e-05
7.18072e-05
7.23238e-05
9.50441e-05
7.38686e-05
7.38759e-05
7.38496e-05
7.38576e-05
9.50473e-05
7.43312e-05
6.55558e-05
7.36267e-05
7.00701e-05
7.36344e-05
7.43577e-05
6.55308e-05
7.42885e-05
6.55504e-05
7.3626e-05
7.00781e-05
6.55285e-05
7.43142e-05
7.36343e-05
9.5051e-05
7.38354e-05
7.38444e-05
7.38456e-05
9.50758e-05
7.3854e-05
7.43124e-05
7.36599e-05
7.00615e-05
6.54987e-05
7.36414e-05
6.55058e-05
7.43091e-05
7.42703e-05
7.36599e-05
7.00739e-05
6.55036e-05
6.55071e-05
7.36414e-05
7.42678e-05
7.15997e-05
7.16038e-05
7.16394e-05
9.51339e-05
7.38762e-05
7.38831e-05
9.5077e-05
7.38999e-05
7.39058e-05
7.43344e-05
7.36709e-05
6.54966e-05
7.01016e-05
6.5504e-05
7.43117e-05
7.36968e-05
7.42979e-05
7.36708e-05
6.55041e-05
7.01403e-05
7.42711e-05
7.36956e-05
6.55194e-05
7.16422e-05
7.2293e-05
6.8917e-05
7.20773e-05
7.19437e-05
7.20716e-05
7.1948e-05
7.22972e-05
7.21121e-05
8.01763e-05
7.38705e-05
7.21061e-05
8.0174e-05
7.22923e-05
6.89183e-05
7.20639e-05
7.19483e-05
7.20698e-05
7.2287e-05
7.19512e-05
7.21062e-05
8.01462e-05
7.38656e-05
8.01602e-05
7.21112e-05
7.23076e-05
7.18876e-05
7.20804e-05
6.88896e-05
7.23013e-05
7.18862e-05
7.20864e-05
7.21232e-05
7.38788e-05
8.00722e-05
7.21321e-05
8.00787e-05
7.21252e-05
8.00933e-05
7.38775e-05
7.21162e-05
8.00896e-05
7.23088e-05
6.88748e-05
7.18698e-05
7.20934e-05
7.23141e-05
7.18762e-05
7.2088e-05
7.2301e-05
7.20788e-05
7.19249e-05
6.88996e-05
7.22973e-05
7.20838e-05
7.19109e-05
7.21052e-05
7.38509e-05
8.00466e-05
8.00638e-05
7.21119e-05
7.21105e-05
8.01138e-05
7.38548e-05
7.2105e-05
8.0097e-05
7.23013e-05
6.88754e-05
7.20903e-05
7.18613e-05
7.20851e-05
7.18775e-05
7.23059e-05
7.22969e-05
6.88365e-05
7.18284e-05
7.2092e-05
7.18252e-05
7.20839e-05
7.23055e-05
7.21002e-05
8.00177e-05
7.38514e-05
8.00146e-05
7.20889e-05
7.22943e-05
6.88357e-05
7.18275e-05
7.2072e-05
7.18278e-05
7.22859e-05
7.20807e-05
7.21e-05
8.00156e-05
7.38569e-05
8.0013e-05
7.21129e-05
7.23072e-05
6.8855e-05
7.20949e-05
7.18882e-05
7.20871e-05
7.1873e-05
7.23149e-05
7.21202e-05
8.00486e-05
7.38896e-05
7.21082e-05
8.00712e-05
7.23045e-05
6.88514e-05
7.20748e-05
7.18511e-05
7.22951e-05
7.20839e-05
7.18671e-05
7.21205e-05
8.0103e-05
7.38941e-05
8.00815e-05
7.21316e-05
7.23172e-05
7.18315e-05
7.20949e-05
6.8862e-05
7.23083e-05
7.18461e-05
7.21022e-05
7.21287e-05
8.00227e-05
7.38934e-05
7.2114e-05
8.00435e-05
7.23198e-05
6.88681e-05
7.18766e-05
7.21106e-05
7.18551e-05
7.21044e-05
7.2328e-05
7.23232e-05
7.20974e-05
7.18931e-05
6.88822e-05
7.23168e-05
7.21038e-05
7.19059e-05
7.21417e-05
7.39162e-05
8.01535e-05
8.01375e-05
7.21522e-05
7.21422e-05
8.01118e-05
7.39142e-05
7.21315e-05
8.01298e-05
7.23246e-05
6.88862e-05
7.2111e-05
7.19217e-05
7.21056e-05
7.19099e-05
7.23303e-05
9.56012e-05
7.38981e-05
7.39042e-05
7.39005e-05
7.39069e-05
9.55371e-05
6.58942e-05
7.04269e-05
6.58953e-05
7.47657e-05
7.36833e-05
7.0395e-05
6.58687e-05
7.36901e-05
6.58868e-05
7.47316e-05
7.4724e-05
7.3683e-05
7.04112e-05
6.58708e-05
6.58861e-05
7.369e-05
7.46906e-05
7.1615e-05
7.16073e-05
7.16111e-05
9.54089e-05
7.38859e-05
7.38913e-05
9.54832e-05
7.38845e-05
7.38894e-05
7.45592e-05
6.56826e-05
7.02259e-05
7.36489e-05
6.57226e-05
7.36519e-05
7.45078e-05
7.45211e-05
6.57006e-05
7.02557e-05
7.36446e-05
7.36487e-05
6.57383e-05
7.44711e-05
7.46241e-05
7.36685e-05
6.58221e-05
7.02709e-05
6.57863e-05
7.46702e-05
7.36632e-05
7.45855e-05
7.36673e-05
6.58303e-05
7.02992e-05
7.46298e-05
7.36615e-05
6.57986e-05
9.5344e-05
7.38747e-05
7.38779e-05
7.38743e-05
7.38781e-05
9.52652e-05
7.1608e-05
7.16125e-05
7.23004e-05
6.8929e-05
7.19581e-05
7.20865e-05
7.19579e-05
7.20816e-05
7.23044e-05
7.21099e-05
8.01846e-05
7.38778e-05
8.01946e-05
7.21158e-05
7.23032e-05
6.89143e-05
7.192e-05
7.2088e-05
7.19111e-05
7.20825e-05
7.23095e-05
7.21226e-05
8.00869e-05
7.38914e-05
7.21118e-05
8.01036e-05
7.23015e-05
6.89126e-05
7.18938e-05
7.20744e-05
7.22942e-05
7.19078e-05
7.20807e-05
7.21222e-05
8.01243e-05
7.38944e-05
8.01103e-05
7.21323e-05
7.23076e-05
7.19502e-05
7.20877e-05
6.89279e-05
7.23043e-05
7.19414e-05
7.20919e-05
7.21088e-05
7.38613e-05
8.00925e-05
8.01116e-05
7.21155e-05
7.21149e-05
8.01585e-05
7.38665e-05
7.21091e-05
8.01398e-05
7.23073e-05
6.89165e-05
7.19022e-05
7.20965e-05
7.19163e-05
7.20927e-05
7.23107e-05
7.23163e-05
7.19207e-05
7.20895e-05
6.89197e-05
7.23108e-05
7.19252e-05
7.20943e-05
7.21397e-05
7.39101e-05
8.01444e-05
8.01404e-05
7.2149e-05
7.2141e-05
8.0129e-05
7.3909e-05
7.21314e-05
8.01383e-05
7.23173e-05
6.89164e-05
7.19268e-05
7.20999e-05
7.19242e-05
7.20955e-05
7.23224e-05
7.16371e-05
7.16393e-05
7.16367e-05
7.16384e-05
9.55088e-05
7.39414e-05
7.39319e-05
9.54636e-05
7.39565e-05
7.3946e-05
7.46559e-05
6.58424e-05
7.03759e-05
7.37623e-05
7.46854e-05
6.58109e-05
7.37557e-05
7.46873e-05
6.58457e-05
7.03696e-05
7.37533e-05
7.47146e-05
6.58232e-05
7.37486e-05
7.46272e-05
7.37413e-05
6.57599e-05
7.03494e-05
7.45911e-05
6.5793e-05
7.37526e-05
7.46615e-05
7.37377e-05
6.57848e-05
7.03539e-05
7.46256e-05
6.58113e-05
7.37466e-05
9.5559e-05
7.39658e-05
7.39558e-05
9.55911e-05
7.39569e-05
7.39473e-05
7.16622e-05
7.16613e-05
7.16578e-05
7.16575e-05
7.16541e-05
7.16469e-05
7.44486e-05
6.56527e-05
7.37056e-05
7.02189e-05
7.4448e-05
7.3715e-05
6.56534e-05
7.4472e-05
6.56493e-05
7.36937e-05
7.01823e-05
7.44724e-05
7.37034e-05
6.56441e-05
9.52701e-05
7.39135e-05
7.39051e-05
9.52641e-05
7.39264e-05
7.39193e-05
7.21165e-05
8.00166e-05
7.38522e-05
7.21081e-05
8.00013e-05
7.23126e-05
6.88195e-05
7.2092e-05
7.18269e-05
7.2098e-05
7.23068e-05
7.18128e-05
7.21613e-05
8.01607e-05
7.39251e-05
7.21513e-05
8.01752e-05
7.23373e-05
6.89102e-05
7.21126e-05
7.19259e-05
7.23316e-05
7.21175e-05
7.19383e-05
7.43938e-05
6.56198e-05
7.36429e-05
7.01006e-05
7.36431e-05
7.44436e-05
6.55792e-05
7.43561e-05
6.56393e-05
7.36359e-05
7.01225e-05
6.55984e-05
7.44061e-05
7.36346e-05
9.51335e-05
7.38677e-05
7.38703e-05
7.38715e-05
9.52008e-05
7.38732e-05
7.16126e-05
7.21184e-05
8.00659e-05
7.38593e-05
8.0046e-05
7.21105e-05
7.23153e-05
6.88744e-05
7.1871e-05
7.20975e-05
7.18573e-05
7.23109e-05
7.2102e-05
7.21564e-05
8.01444e-05
7.39146e-05
7.21473e-05
8.01462e-05
7.23286e-05
6.88973e-05
7.1924e-05
7.2101e-05
7.23234e-05
7.19245e-05
7.21055e-05
7.16738e-05
7.16688e-05
3.52487e-05
3.52613e-05
4.15304e-05
3.53139e-05
3.53476e-05
2.74236e-05
2.73231e-05
6.64398e-05
6.02258e-05
6.02409e-05
5.46668e-05
6.6411e-05
6.02384e-05
6.02543e-05
3.55367e-05
3.55831e-05
2.77602e-05
6.66175e-05
6.04068e-05
6.04051e-05
5.48442e-05
6.66065e-05
6.04082e-05
6.04047e-05
6.64165e-05
6.02052e-05
6.02191e-05
5.46156e-05
6.64138e-05
6.02041e-05
6.02185e-05
6.63971e-05
5.46787e-05
6.02151e-05
6.02246e-05
6.02233e-05
6.02376e-05
6.63907e-05
6.62489e-05
6.01231e-05
6.01236e-05
5.45269e-05
6.0086e-05
6.62784e-05
6.0084e-05
6.03979e-05
5.47795e-05
6.03967e-05
6.64698e-05
5.47534e-05
6.02411e-05
6.02527e-05
6.0303e-05
6.03124e-05
6.64212e-05
6.65672e-05
5.48213e-05
6.03788e-05
6.03827e-05
6.65904e-05
6.03734e-05
6.03799e-05
6.63795e-05
6.02189e-05
6.02263e-05
5.46687e-05
6.63828e-05
6.02105e-05
6.02124e-05
6.63143e-05
6.02137e-05
6.02277e-05
5.46282e-05
6.01639e-05
6.6364e-05
6.01503e-05
3.52496e-05
3.5236e-05
4.14461e-05
3.52914e-05
3.52964e-05
2.74108e-05
2.73195e-05
3.53081e-05
3.52983e-05
4.16372e-05
3.53918e-05
3.5402e-05
2.74458e-05
2.73302e-05
3.52281e-05
3.52429e-05
4.15903e-05
3.53337e-05
3.53716e-05
2.74099e-05
2.72829e-05
4.15929e-05
3.54569e-05
3.55122e-05
3.53837e-05
3.54337e-05
2.75301e-05
2.76425e-05
4.14795e-05
3.54184e-05
3.54615e-05
3.53467e-05
3.53719e-05
2.75103e-05
2.76209e-05
4.16832e-05
3.55403e-05
3.55752e-05
3.54698e-05
3.5495e-05
2.75653e-05
2.76866e-05
4.16953e-05
3.5549e-05
3.55945e-05
3.54419e-05
3.54909e-05
2.75426e-05
2.76783e-05
5.70856e-05
6.11161e-05
6.27419e-05
5.58982e-05
6.27374e-05
5.59049e-05
5.70714e-05
5.80585e-05
6.0877e-05
6.45524e-05
6.50398e-05
5.80808e-05
6.08495e-05
6.45466e-05
5.70679e-05
6.11137e-05
6.27388e-05
5.58908e-05
5.70857e-05
6.2741e-05
5.58828e-05
5.80647e-05
6.45404e-05
6.50309e-05
6.08353e-05
6.08447e-05
6.45399e-05
5.80504e-05
5.72334e-05
6.12252e-05
5.60119e-05
6.28871e-05
5.60176e-05
6.28833e-05
5.72217e-05
5.82675e-05
6.47449e-05
6.52983e-05
6.11107e-05
6.11198e-05
6.47484e-05
5.82583e-05
6.64637e-05
5.47282e-05
6.02915e-05
6.0307e-05
6.02815e-05
6.02979e-05
6.64914e-05
3.55087e-05
3.55643e-05
2.77439e-05
3.55997e-05
3.56417e-05
2.7807e-05
3.56536e-05
3.56847e-05
2.78155e-05
5.81364e-05
6.09717e-05
6.46225e-05
6.50886e-05
5.81876e-05
6.0917e-05
6.46001e-05
5.71572e-05
6.11819e-05
5.60206e-05
6.2814e-05
5.7203e-05
5.59882e-05
6.27968e-05
6.64162e-05
5.46513e-05
6.02148e-05
6.02304e-05
6.64137e-05
6.02183e-05
6.02338e-05
6.6405e-05
5.46603e-05
6.02231e-05
6.02389e-05
6.64101e-05
6.02178e-05
6.02333e-05
5.71027e-05
6.11052e-05
6.27602e-05
5.5881e-05
6.27551e-05
5.5891e-05
5.70888e-05
5.81021e-05
6.09411e-05
6.4596e-05
6.51415e-05
6.46007e-05
5.81078e-05
6.09403e-05
5.70806e-05
6.11083e-05
6.27517e-05
5.58857e-05
6.27574e-05
5.70939e-05
5.58757e-05
5.81205e-05
6.46037e-05
6.51402e-05
6.09448e-05
6.46004e-05
6.09472e-05
5.81132e-05
5.70676e-05
6.10939e-05
6.27166e-05
5.58649e-05
6.27174e-05
5.58789e-05
5.70438e-05
5.80475e-05
6.0877e-05
6.45485e-05
6.50337e-05
5.80771e-05
6.4537e-05
6.08434e-05
5.70555e-05
6.10998e-05
6.27339e-05
5.58826e-05
5.70822e-05
6.27289e-05
5.58686e-05
5.80506e-05
6.45123e-05
6.5017e-05
6.08181e-05
6.45174e-05
5.8028e-05
6.08346e-05
5.70959e-05
6.27578e-05
5.58972e-05
6.11096e-05
5.71098e-05
6.2763e-05
5.5888e-05
5.81324e-05
6.09417e-05
6.51329e-05
6.46056e-05
6.09462e-05
6.46032e-05
5.81242e-05
5.81196e-05
6.46024e-05
6.0948e-05
6.51367e-05
6.09441e-05
5.81277e-05
6.46049e-05
5.71179e-05
6.11102e-05
6.27675e-05
5.59001e-05
6.27617e-05
5.59076e-05
5.71048e-05
5.70405e-05
6.27101e-05
5.58773e-05
6.10931e-05
5.70581e-05
6.27127e-05
5.58678e-05
5.80447e-05
6.08548e-05
6.50373e-05
6.45415e-05
6.4518e-05
6.0836e-05
5.80468e-05
5.80235e-05
6.45076e-05
6.08189e-05
6.50178e-05
5.80349e-05
6.45101e-05
6.08174e-05
5.70681e-05
6.10941e-05
6.27256e-05
5.5884e-05
6.27142e-05
5.589e-05
5.70606e-05
6.62264e-05
5.45323e-05
6.00565e-05
6.00616e-05
6.00787e-05
6.00757e-05
6.62175e-05
6.62234e-05
5.45049e-05
6.00585e-05
6.00647e-05
6.00553e-05
6.6217e-05
6.00634e-05
5.71624e-05
6.11805e-05
6.2814e-05
5.59613e-05
6.28098e-05
5.59686e-05
5.71505e-05
5.81412e-05
6.0976e-05
6.51702e-05
6.46428e-05
5.81446e-05
6.09764e-05
5.71303e-05
6.11816e-05
5.59443e-05
6.28117e-05
5.7139e-05
5.59405e-05
5.81645e-05
6.46427e-05
6.51689e-05
6.09822e-05
6.46412e-05
6.09848e-05
5.81581e-05
5.72118e-05
6.12001e-05
5.59798e-05
6.28636e-05
5.5988e-05
6.28647e-05
5.71975e-05
5.82355e-05
6.11109e-05
6.47313e-05
6.5298e-05
5.82407e-05
6.47333e-05
6.11099e-05
5.71844e-05
6.12015e-05
5.59665e-05
6.28614e-05
5.71941e-05
5.59622e-05
6.28673e-05
5.8251e-05
6.47215e-05
6.52893e-05
6.10971e-05
6.47299e-05
5.82375e-05
6.11118e-05
5.71597e-05
6.28096e-05
5.59801e-05
6.11779e-05
5.71742e-05
6.28089e-05
5.59696e-05
5.81742e-05
6.09603e-05
6.51444e-05
6.46182e-05
6.09757e-05
6.46269e-05
5.81563e-05
5.81644e-05
6.46392e-05
6.09844e-05
6.51576e-05
6.09769e-05
5.81733e-05
6.46357e-05
5.71779e-05
6.11687e-05
6.27948e-05
5.59596e-05
6.2801e-05
5.5981e-05
5.71565e-05
5.71853e-05
5.59952e-05
6.28537e-05
6.11915e-05
5.72146e-05
5.5981e-05
6.28423e-05
5.82008e-05
6.09612e-05
6.51596e-05
6.46157e-05
6.46388e-05
6.10161e-05
5.81517e-05
5.82061e-05
6.46989e-05
6.10831e-05
6.52063e-05
5.82407e-05
6.46789e-05
6.10389e-05
5.71915e-05
6.11742e-05
5.59567e-05
6.27951e-05
5.59872e-05
6.28132e-05
5.71459e-05
5.71419e-05
6.11335e-05
5.59209e-05
6.28048e-05
5.59251e-05
6.27863e-05
5.71344e-05
5.81288e-05
6.09545e-05
6.45972e-05
6.51629e-05
6.09649e-05
5.81277e-05
6.46181e-05
5.71027e-05
6.11276e-05
5.58989e-05
6.27609e-05
5.58944e-05
5.71099e-05
6.27782e-05
5.81668e-05
6.46516e-05
6.51748e-05
6.1006e-05
6.0996e-05
6.46298e-05
5.81673e-05
5.70911e-05
6.27453e-05
5.59262e-05
6.11466e-05
5.71002e-05
6.27583e-05
5.59221e-05
5.80607e-05
6.45442e-05
6.08393e-05
6.50596e-05
5.80641e-05
6.08442e-05
6.45578e-05
5.71313e-05
6.11559e-05
6.27956e-05
5.59547e-05
5.7126e-05
6.27695e-05
5.59568e-05
5.71665e-05
5.59535e-05
6.28135e-05
6.11724e-05
5.71737e-05
5.59504e-05
6.28323e-05
5.82387e-05
6.10823e-05
6.52454e-05
6.47132e-05
6.46952e-05
6.10748e-05
5.82375e-05
5.82043e-05
6.46634e-05
6.10365e-05
6.52347e-05
5.82042e-05
6.46848e-05
6.10461e-05
5.72052e-05
6.11804e-05
5.59819e-05
6.28565e-05
5.59848e-05
6.28401e-05
5.71974e-05
6.66356e-05
5.48025e-05
6.03861e-05
6.03905e-05
6.04056e-05
6.04026e-05
6.66163e-05
6.65248e-05
5.47547e-05
6.03744e-05
6.03802e-05
6.0325e-05
6.65694e-05
6.03331e-05
5.72042e-05
6.12126e-05
5.60016e-05
6.28541e-05
5.60059e-05
6.28452e-05
5.71963e-05
5.8177e-05
6.09956e-05
6.46499e-05
6.5197e-05
6.10068e-05
5.81746e-05
6.4668e-05
5.71598e-05
6.12097e-05
5.59692e-05
6.28228e-05
5.59688e-05
5.71635e-05
6.28412e-05
5.82141e-05
6.4687e-05
6.52052e-05
6.10437e-05
6.10368e-05
6.46751e-05
5.82125e-05
5.72259e-05
5.60338e-05
6.28824e-05
6.12284e-05
5.72437e-05
5.60242e-05
6.28776e-05
5.82376e-05
6.09946e-05
6.51937e-05
6.4664e-05
5.81949e-05
6.10453e-05
6.46856e-05
5.82391e-05
6.47334e-05
6.11013e-05
6.52385e-05
5.8266e-05
6.10652e-05
6.47183e-05
5.72364e-05
6.12218e-05
5.60161e-05
6.28465e-05
5.71976e-05
5.60366e-05
6.28608e-05
5.72186e-05
5.60283e-05
6.28542e-05
6.12216e-05
5.72297e-05
5.60208e-05
6.28607e-05
5.82591e-05
6.10896e-05
6.52487e-05
6.47071e-05
6.47022e-05
6.10883e-05
5.82528e-05
5.82374e-05
6.46921e-05
6.10666e-05
6.5243e-05
5.82414e-05
6.47004e-05
6.10708e-05
5.72433e-05
6.12185e-05
5.60266e-05
6.28622e-05
5.6038e-05
6.28585e-05
5.72295e-05
6.65434e-05
5.47792e-05
6.03301e-05
6.03431e-05
6.65156e-05
6.03384e-05
6.03493e-05
5.81313e-05
6.0945e-05
6.46055e-05
6.51316e-05
6.46087e-05
5.81385e-05
6.09427e-05
5.81341e-05
6.09562e-05
6.46002e-05
6.51097e-05
6.45904e-05
5.81603e-05
6.09375e-05
5.71321e-05
6.11263e-05
6.27774e-05
5.59644e-05
6.27675e-05
5.71666e-05
5.59332e-05
5.80889e-05
6.09352e-05
6.45732e-05
6.5054e-05
5.81426e-05
6.45516e-05
6.08797e-05
5.71016e-05
6.11173e-05
5.59594e-05
6.2758e-05
5.715e-05
5.59233e-05
6.27408e-05
5.8264e-05
6.11064e-05
6.47212e-05
6.52916e-05
6.11099e-05
5.82672e-05
6.47345e-05
5.72243e-05
6.12175e-05
5.60156e-05
6.28624e-05
5.6012e-05
5.72334e-05
6.28749e-05
5.8259e-05
6.11003e-05
6.47064e-05
6.52675e-05
6.10989e-05
5.82679e-05
6.47082e-05
5.72287e-05
6.12012e-05
5.60363e-05
6.28575e-05
5.60127e-05
5.72484e-05
6.2856e-05
7.38624e-05
6.88924e-05
7.16091e-05
7.02683e-05
6.51677e-05
6.11749e-05
8.00959e-05
7.20989e-05
7.18862e-05
7.20631e-05
7.22831e-05
7.36769e-05
7.45281e-05
7.38826e-05
7.38772e-05
9.53414e-05
6.46386e-05
6.28047e-05
7.17162e-05
5.61848e-05
7.16848e-05
7.17378e-05
7.17261e-05
6.24148e-05
5.37895e-05
4.93895e-05
6.67848e-05
7.01759e-05
7.39888e-05
7.16618e-05
9.60487e-05
7.39407e-05
7.39735e-05
9.72265e-05
7.37775e-05
7.38179e-05
7.57907e-05
7.37774e-05
6.77572e-05
7.08303e-05
6.72808e-05
7.67456e-05
7.36e-05
7.58139e-05
7.37629e-05
6.77728e-05
7.08981e-05
7.67392e-05
7.35915e-05
6.73209e-05
7.16708e-05
7.24396e-05
7.3258e-05
7.22613e-05
6.99048e-05
7.24837e-05
7.2788e-05
7.22181e-05
7.22405e-05
8.13231e-05
7.38783e-05
7.22715e-05
8.05796e-05
7.246e-05
6.98559e-05
7.26543e-05
7.2226e-05
7.22671e-05
7.39468e-05
8.04193e-05
7.17638e-05
6.81864e-05
5.61348e-05
6.20089e-05
6.20176e-05
6.18714e-05
6.8595e-05
6.18828e-05
5.82765e-05
5.7033e-05
6.42024e-05
6.23181e-05
5.83327e-05
5.69986e-05
6.40415e-05
5.94926e-05
6.62548e-05
6.26098e-05
6.6286e-05
5.95797e-05
6.24458e-05
6.59163e-05
6.22423e-05
6.37999e-05
4.19331e-05
4.85791e-05
5.24718e-05
5.405e-05
4.22585e-05
5.27574e-05
5.36047e-05
5.51559e-05
7.16889e-05
6.92999e-05
4.84706e-05
4.84571e-05
7.38268e-05
5.47625e-05
6.42574e-05
6.0563e-05
5.26589e-05
5.27119e-05
7.03701e-05
5.47073e-05
6.00827e-05
6.00963e-05
5.27101e-05
5.30975e-05
5.24875e-05
6.83357e-05
5.27528e-05
5.28472e-05
5.40353e-05
5.53183e-05
4.82954e-05
7.39785e-05
5.31637e-05
5.28919e-05
7.17747e-05
5.49148e-05
5.50848e-05
5.30521e-05
5.27206e-05
5.47243e-05
5.32289e-05
5.35571e-05
5.31197e-05
5.56997e-05
5.32967e-05
6.42709e-05
6.05916e-05
7.01647e-05
6.01369e-05
7.38067e-05
6.44106e-05
4.86413e-05
5.2516e-05
6.83274e-05
5.40553e-05
7.16813e-05
7.39047e-05
6.82447e-05
6.84814e-05
7.40904e-05
7.18378e-05
7.18797e-05
6.78005e-05
7.39226e-05
6.81512e-05
7.41544e-05
3.63716e-05
3.63533e-05
3.65916e-05
4.2004e-05
4.2097e-05
4.24074e-05
4.20991e-05
5.27589e-05
6.06585e-05
6.4987e-05
6.07941e-05
5.27411e-05
6.52632e-05
4.85464e-05
7.17938e-05
7.19919e-05
4.83503e-05
6.04407e-05
6.41493e-05
5.25009e-05
6.01538e-05
4.83609e-05
6.47792e-05
6.93782e-05
6.96247e-05
5.41202e-05
7.01849e-05
7.01399e-05
6.92175e-05
7.41789e-05
6.91518e-05
7.41151e-05
7.17776e-05
7.1745e-05
7.01431e-05
7.43134e-05
6.98399e-05
7.41632e-05
4.20785e-05
4.26833e-05
4.23653e-05
6.12668e-05
6.52852e-05
4.85993e-05
5.27478e-05
6.12228e-05
6.48766e-05
4.86394e-05
7.20626e-05
7.187e-05
6.24277e-05
4.91582e-05
6.67266e-05
5.37805e-05
6.20444e-05
4.93515e-05
6.69044e-05
7.09713e-05
7.14428e-05
5.54041e-05
7.08412e-05
7.13206e-05
7.17658e-05
5.44125e-05
5.40522e-05
6.91305e-05
6.91643e-05
6.92874e-05
7.17741e-05
7.16944e-05
5.26029e-05
5.24908e-05
4.83742e-05
6.04991e-05
6.41307e-05
6.4388e-05
6.01711e-05
4.83318e-05
5.24103e-05
6.44452e-05
5.25553e-05
6.41883e-05
6.05148e-05
6.0166e-05
6.81466e-05
7.39489e-05
7.38223e-05
6.7888e-05
7.3938e-05
6.81651e-05
6.78636e-05
7.17169e-05
7.18819e-05
7.1722e-05
7.19056e-05
6.92372e-05
6.90559e-05
5.39175e-05
5.38891e-05
6.98202e-05
6.9785e-05
7.1951e-05
7.18974e-05
7.1998e-05
7.19274e-05
5.40127e-05
7.08474e-05
7.12141e-05
7.02113e-05
7.02681e-05
6.83373e-05
7.40417e-05
6.85568e-05
7.41119e-05
6.04831e-05
5.23957e-05
4.84315e-05
6.05294e-05
5.23874e-05
6.44899e-05
4.83939e-05
6.48984e-05
5.27378e-05
4.85552e-05
6.06255e-05
5.27079e-05
6.52117e-05
4.84912e-05
6.86412e-05
7.41898e-05
7.41227e-05
6.90751e-05
6.8683e-05
7.40694e-05
7.41077e-05
6.90213e-05
6.06466e-05
5.24365e-05
6.54452e-05
4.84426e-05
6.48292e-05
4.83989e-05
6.10931e-05
6.07291e-05
5.27089e-05
6.53171e-05
4.84822e-05
6.53153e-05
4.84789e-05
6.10825e-05
5.45189e-05
7.04603e-05
5.45774e-05
7.06914e-05
7.07118e-05
7.18328e-05
7.18592e-05
7.18244e-05
7.18636e-05
5.46564e-05
7.04908e-05
7.04231e-05
7.07393e-05
7.07347e-05
7.17981e-05
7.18404e-05
6.40355e-05
5.23055e-05
4.82736e-05
6.02083e-05
5.23041e-05
6.43664e-05
4.82667e-05
6.78442e-05
7.39777e-05
6.82866e-05
7.42635e-05
4.83468e-05
5.2472e-05
6.4106e-05
6.02732e-05
5.24931e-05
4.83479e-05
6.46958e-05
6.84693e-05
7.43235e-05
7.42102e-05
6.95608e-05
6.04863e-05
5.23812e-05
6.57701e-05
4.85119e-05
6.48001e-05
4.83101e-05
6.15644e-05
6.85873e-05
7.44574e-05
7.43319e-05
6.96478e-05
6.05714e-05
5.26386e-05
4.86523e-05
6.63574e-05
4.84063e-05
6.51663e-05
6.16495e-05
6.84126e-05
7.40637e-05
6.86776e-05
7.41117e-05
4.84798e-05
6.05894e-05
6.44751e-05
6.07413e-05
5.24977e-05
4.84706e-05
6.48414e-05
7.39693e-05
6.86666e-05
7.41184e-05
6.08819e-05
5.27463e-05
6.53215e-05
4.8554e-05
6.53429e-05
4.85457e-05
6.11671e-05
6.87827e-05
7.40516e-05
7.41035e-05
6.90875e-05
6.085e-05
5.2582e-05
4.85567e-05
6.5532e-05
4.84863e-05
6.51035e-05
6.12091e-05
6.87975e-05
7.41826e-05
7.41373e-05
6.91689e-05
6.92269e-05
6.92995e-05
5.41091e-05
7.02903e-05
7.03502e-05
7.18016e-05
7.19873e-05
7.20971e-05
7.20178e-05
5.43587e-05
7.21253e-05
7.21229e-05
7.08469e-05
7.08886e-05
7.2088e-05
7.20117e-05
5.23765e-05
6.42007e-05
6.03972e-05
5.23914e-05
6.01435e-05
4.83014e-05
6.46938e-05
6.83899e-05
7.40101e-05
6.78903e-05
7.42813e-05
6.83178e-05
6.78599e-05
7.41907e-05
6.07292e-05
5.26738e-05
4.87648e-05
6.63859e-05
4.845e-05
6.52282e-05
6.17493e-05
6.06852e-05
5.25095e-05
4.86569e-05
6.5874e-05
4.83753e-05
6.50653e-05
6.16914e-05
6.86735e-05
7.4456e-05
7.43442e-05
6.97293e-05
6.86091e-05
7.43245e-05
7.42353e-05
6.96684e-05
7.17727e-05
7.18906e-05
7.19199e-05
5.43151e-05
7.08782e-05
7.12818e-05
7.04687e-05
7.05353e-05
7.19326e-05
7.18964e-05
7.1982e-05
7.19328e-05
7.19291e-05
7.18701e-05
7.19752e-05
7.18808e-05
7.09976e-05
7.14416e-05
5.5496e-05
7.09601e-05
7.14553e-05
7.18088e-05
7.17904e-05
5.55484e-05
7.08803e-05
7.12961e-05
6.90921e-05
7.40264e-05
6.90708e-05
7.39663e-05
6.13634e-05
6.56424e-05
4.86081e-05
5.32783e-05
6.1203e-05
6.57293e-05
4.8805e-05
6.12543e-05
6.52827e-05
4.85108e-05
5.27154e-05
6.11603e-05
6.48571e-05
4.8586e-05