/*--------------------------------*- C++ -*----------------------------------*\
| =========                 |                                                 |
| \\      /  F ield         | OpenFOAM: The Open Source CFD Toolbox           |
|  \\    /   O peration     | Version:  v2006                                 |
|   \\  /    A nd           | Website:  www.openfoam.com                      |
|    \\/     M anipulation  |                                                 |
\*---------------------------------------------------------------------------*/
FoamFile
{
    version     2.0;
    format      ascii;
    class       volScalarField;
    location    "625";
    object      p;
}
// * * * * * * * * * * * * * * * * * * * * * * * * * * * * * * * * * * * * * //

dimensions      [0 2 -2 0 0 0 0];


internalField   nonuniform List<scalar> 
14374
(
0.000113434
0.000114
0.000111335
0.000113417
0.000113687
0.000111797
0.000113559
0.000113932
0.000112623
0.000112341
0.000112336
0.000112361
0.000112733
0.000112677
0.000112724
0.000112818
0.000113463
0.000112372
0.000111866
0.000113563
0.000112258
0.000111886
0.000112712
0.000112391
0.000112518
0.000112382
0.000112344
0.000112434
0.000112308
0.000112538
0.000116951
0.000116852
0.000117136
0.000116596
0.000111868
0.000116986
0.000112813
0.000116153
0.000117161
0.000112352
0.000116601
0.000111887
0.000117013
0.000112794
0.000117145
0.000116172
0.000112342
0.000117147
0.00011295
0.000112948
0.000117353
0.000117335
0.00011281
0.000117195
0.000117129
0.000117025
0.000112689
0.000116959
0.000112768
0.000116991
0.000116689
0.00011248
0.000112632
0.000116743
0.000116958
0.000112669
0.000117055
0.000116864
0.000112574
0.000116893
0.000112648
0.000116923
0.000116691
0.000112422
0.000112617
0.000116699
0.000116951
0.000112587
0.000116589
0.000111989
0.000116755
0.000112416
0.000112196
0.000116436
0.000116866
0.000116541
0.000111976
0.000116826
0.000112422
0.000112186
0.00011635
0.000116763
0.000116779
0.00011244
0.000112465
0.000112364
0.000116892
0.000116876
0.000116841
0.000116989
0.000116071
0.000115452
0.000111585
0.000111573
0.000115771
0.000115766
0.000111975
0.000116292
0.000115937
0.000111947
0.000111788
0.000112062
0.000116235
0.000116046
0.000113719
0.000113856
0.000111668
0.00011657
0.000115956
0.000111977
0.000116682
0.000116376
0.000115832
0.000111696
0.000116598
0.000112081
0.000111602
0.000115988
0.00011628
0.000115788
0.000116106
0.000111538
0.000111946
0.000111557
0.00011582
0.000116159
0.000116055
0.000111837
0.000116528
0.000112102
0.000116335
0.000116199
0.00011177
0.000115896
0.000116129
0.000111583
0.000111956
0.000115871
0.000116183
0.000111642
0.000428956
0.00042892
0.000430902
0.000393199
0.000393099
0.000395136
0.000430908
0.000400035
0.000428896
0.000428922
0.000402097
0.000402146
0.000430929
0.00042887
0.000428867
0.000402068
0.000402035
0.000428891
0.000402059
0.000430893
0.000399985
0.00042887
0.000402024
0.00040203
0.000399998
0.000395177
0.000393157
0.000393138
0.000393113
0.000393104
0.000395138
0.000393088
0.000417797
0.000431149
0.000431156
0.000417787
0.000431227
0.000417833
0.000417734
0.000417744
0.000428952
0.000428941
0.000428995
0.000402134
0.000402211
0.000402072
0.000402124
0.000417815
0.000431148
0.000428925
0.000420003
0.000431078
0.000417826
0.000420005
0.0004311
0.000417774
0.000417747
0.000419908
0.000419935
0.000417744
0.000431083
0.000431062
0.000417881
0.000417689
0.000417678
0.000395402
0.000395425
0.000395414
0.000393267
0.00039313
0.000393161
0.000395474
0.000393102
0.000395373
0.000395293
0.000395311
0.000395323
0.000431138
0.000417781
0.000417758
0.000431126
0.000417896
0.000417761
0.000417743
0.000399908
0.000413291
0.000399917
0.000413274
0.000413044
0.000399896
0.000399897
0.000413281
0.000413265
0.000417804
0.00043121
0.000431164
0.00041783
0.000417834
0.000431097
0.000428917
0.000419962
0.000431085
0.000417797
0.00041999
0.000417842
0.000431157
0.000428921
0.00042001
0.000431092
0.000417846
0.000420005
0.000413298
0.000399904
0.000413296
0.000399902
0.000413305
0.000399883
0.000413328
0.000399902
0.000413231
0.000411031
0.000399925
0.000402131
0.000413247
0.000411064
0.00039995
0.000413238
0.000411084
0.000399914
0.000402153
0.000413284
0.000411084
0.000399954
0.000431219
0.000431214
0.000417955
0.00041782
0.000417806
0.000431217
0.00041781
0.000413321
0.000413098
0.000413318
0.0004133
0.000413294
0.000417769
0.0004289
0.000419929
0.000417755
0.000419952
0.000417737
0.0004311
0.000431088
0.000417761
0.000417769
0.000428895
0.000431055
0.000419917
0.000431028
0.00041994
0.000417762
0.000413245
0.000399911
0.000413262
0.000399904
0.000413171
0.000410997
0.000399914
0.000402071
0.00041321
0.000411008
0.000399926
0.00041325
0.000399944
0.000413286
0.000399911
0.000413171
0.000410969
0.000402053
0.000399943
0.000410992
0.000413224
0.000399927
0.000417766
0.000431194
0.000431143
0.000417799
0.000417804
0.000428928
0.000431063
0.000419954
0.000431069
0.000419995
0.000417742
0.000417754
0.000431108
0.000431131
0.000417721
0.000413206
0.000411075
0.000402135
0.000413262
0.000411077
0.000399908
0.00041326
0.000413291
0.000399849
0.000413195
0.000411012
0.000402106
0.000399851
0.000411056
0.000413187
0.000399899
0.00041325
0.000399826
0.000413225
0.000399844
0.000431093
0.000417857
0.000417752
0.000417739
0.000417755
0.00039996
0.000413297
0.000412994
0.00039994
0.000399926
0.000413282
0.000413268
0.000399941
0.000413276
0.000417744
0.000428908
0.000431029
0.000419915
0.000431012
0.000419954
0.000417708
0.000417706
0.000417734
0.0004177
0.000431064
0.000431064
0.000417687
0.000413145
0.00041096
0.000402037
0.000399917
0.000410983
0.000413202
0.000399891
0.000413142
0.000410974
0.000402045
0.000399847
0.000410997
0.000413157
0.000399885
0.000413214
0.000399911
0.000413256
0.000399865
0.000413206
0.000399837
0.000413199
0.000399852
0.000431093
0.000417705
0.000431063
0.000417688
0.000413023
0.000399801
0.000399806
0.000413198
0.000413191
0.000399812
0.000413204
0.000399826
0.000413196
0.000395405
0.000395423
0.000395402
0.000395409
0.000395364
0.000395367
0.000393138
0.000395329
0.000395459
0.00039542
0.000393125
0.0003954
0.00039533
0.000393147
0.00039529
0.000395282
0.000395327
0.000395332
0.000395463
0.00039545
0.000395457
0.000393103
0.000395297
0.000395285
0.000395428
0.000395375
0.000395352
0.00039536
0.000395314
0.000395336
0.000422245
0.000422232
0.000417801
0.000417793
0.00042225
0.000422228
0.000417798
0.000426723
0.000431145
0.000426712
0.000431153
0.000426704
0.000426726
0.000426725
0.000431175
0.000431151
0.000431169
0.00042673
0.000426719
0.000422228
0.000417778
0.000422227
0.000422221
0.000417796
0.000426785
0.000422286
0.000422183
0.000422162
0.000417735
0.00041774
0.000422165
0.000422182
0.000417742
0.000426671
0.000426665
0.000426656
0.000426661
0.000426654
0.000426656
0.000426658
0.000422179
0.000417736
0.000422179
0.000422174
0.000417753
0.000426674
0.000422197
0.000422131
0.000417682
0.000417675
0.000422128
0.000422122
0.000417676
0.000426641
0.000431084
0.000431078
0.000426632
0.000431067
0.000426647
0.000426631
0.000426638
0.000431063
0.000431063
0.000426613
0.000431064
0.000426637
0.000426614
0.000426616
0.000431069
0.000431065
0.000431072
0.000426623
0.000426617
0.00042213
0.000417692
0.000422142
0.000417711
0.000422142
0.000422139
0.000417706
0.000422127
0.000417675
0.000422127
0.000417702
0.000422136
0.00042212
0.0004177
0.000390947
0.000395396
0.000390944
0.000395398
0.000390935
0.000390993
0.000395419
0.000390981
0.00039543
0.000390972
0.00039099
0.00039098
0.000395414
0.000395438
0.000395437
0.000390979
0.00039099
0.000391036
0.000390876
0.000395312
0.000395315
0.000390859
0.000395302
0.000390874
0.000390875
0.000390882
0.000395317
0.000395327
0.000390876
0.000395308
0.000390881
0.000390888
0.000390862
0.000395315
0.000395318
0.000395311
0.000390877
0.000390882
0.000426704
0.000422215
0.000426675
0.000422189
0.000422198
0.000417774
0.000417767
0.000422209
0.000422201
0.000417754
0.000426684
0.000431104
0.000431133
0.000426684
0.000431105
0.000426695
0.000426677
0.000426673
0.000431087
0.000426663
0.000426671
0.000426658
0.000426673
0.000426693
0.000426684
0.00042218
0.000417773
0.000422204
0.000417751
0.000422211
0.00041776
0.000422177
0.000422169
0.000417752
0.000422184
0.000417734
0.000422187
0.00041775
0.000422159
0.000404355
0.000408851
0.000404355
0.000408841
0.000408832
0.000413288
0.000413282
0.00041328
0.000408848
0.000408844
0.000404329
0.000399893
0.000404349
0.000399904
0.000404353
0.000404324
0.000399905
0.000404327
0.000399887
0.000404343
0.000399907
0.000404348
0.000404314
0.000399905
0.000408836
0.000413287
0.000413252
0.000408834
0.000413255
0.000408845
0.000408825
0.00040883
0.000413269
0.000413236
0.000408824
0.000413249
0.000408833
0.000408811
0.000404353
0.00039991
0.000399911
0.000404357
0.000404355
0.000399899
0.000422266
0.00042224
0.000417808
0.000417811
0.000422259
0.00042225
0.000417815
0.000426775
0.000431199
0.00042677
0.000431206
0.000426757
0.000426749
0.000426733
0.000431184
0.000431175
0.00042674
0.000431192
0.000426743
0.000422276
0.000417818
0.000422278
0.00042227
0.000417836
0.000408859
0.000413315
0.000413297
0.000408857
0.000413312
0.000408859
0.000408856
0.000404355
0.000404355
0.000399897
0.00039991
0.000404351
0.000408859
0.000413291
0.000408852
0.000413297
0.000408843
0.000404367
0.000404352
0.000399902
0.000399905
0.000399906
0.000404365
0.000404353
0.000408866
0.000413321
0.000413311
0.000408861
0.000413325
0.000408862
0.000408865
0.000404354
0.000404352
0.000399882
0.000404352
0.000399894
0.000408875
0.000413321
0.000408867
0.000413327
0.00040886
0.000404366
0.000404354
0.000399899
0.0003999
0.000404366
0.000404355
0.000399897
0.000422291
0.000417829
0.000417824
0.00042229
0.000422286
0.000417823
0.000426779
0.000431171
0.000431229
0.000426772
0.000426782
0.0004312
0.00042675
0.000426775
0.000431168
0.000431224
0.000426763
0.000426746
0.000431197
0.000426775
0.000426782
0.000431241
0.000431241
0.000426793
0.000431238
0.000426791
0.000422268
0.000417827
0.000422279
0.00041782
0.000422284
0.00042225
0.000417837
0.000422264
0.000417815
0.000422269
0.000417814
0.000422246
0.000422275
0.000417832
0.000426771
0.000422268
0.000408853
0.000408836
0.000413312
0.000413305
0.000413319
0.000408838
0.00040883
0.000408872
0.000413317
0.000413312
0.000408846
0.000408873
0.000413316
0.000408846
0.000408863
0.000413301
0.000413305
0.000408826
0.00041331
0.000408829
0.000408861
0.000408825
0.000422182
0.000422165
0.000417744
0.000417738
0.000422184
0.000422165
0.000417745
0.000426675
0.000431098
0.000426666
0.0004311
0.00042666
0.000426658
0.000426656
0.000431104
0.000431088
0.000426659
0.000431101
0.000426655
0.000422188
0.00041775
0.000422189
0.000422183
0.000417767
0.000408829
0.000413247
0.000413268
0.000408819
0.000413267
0.000408819
0.000408829
0.000404351
0.000404347
0.000399903
0.000399924
0.000404342
0.00040884
0.000413257
0.000408829
0.000413264
0.00040882
0.000404355
0.000404332
0.000399903
0.000399916
0.000399915
0.000404333
0.000404357
0.000408839
0.000413273
0.000413254
0.000408825
0.000413274
0.000408835
0.00040883
0.000404376
0.000404378
0.000399934
0.00040437
0.000399951
0.000408863
0.000413276
0.000408856
0.000413283
0.000408845
0.000404367
0.000404338
0.000399923
0.000399918
0.000404364
0.000404345
0.000399926
0.000422233
0.000422208
0.000417777
0.000417765
0.000422222
0.000422222
0.000417777
0.00042675
0.000431184
0.00042675
0.000426737
0.000431186
0.000426721
0.000426707
0.000431157
0.000431159
0.00042672
0.000431169
0.000426709
0.000422245
0.000417787
0.000422253
0.000422243
0.000417799
0.000422199
0.000422196
0.000417753
0.000417744
0.000422209
0.000422186
0.000417745
0.000426679
0.00043111
0.000426663
0.000431115
0.000426663
0.000426686
0.000426695
0.000431146
0.000431122
0.000431135
0.000426695
0.000426684
0.000422176
0.000417721
0.000422169
0.000422172
0.000417736
0.000408816
0.00041327
0.000413271
0.000408811
0.00041328
0.00040882
0.000408808
0.000408829
0.000413284
0.000408827
0.000413283
0.000408819
0.000404313
0.0004043
0.00039985
0.000399845
0.000404305
0.000404311
0.000399847
0.000408797
0.000413262
0.000413241
0.000408803
0.000413254
0.000408801
0.000408796
0.000404277
0.000404277
0.000399817
0.000404274
0.00039983
0.000408786
0.000413226
0.000408775
0.00041323
0.000408771
0.000404301
0.000404293
0.000399841
0.000399841
0.000404305
0.00040429
0.000399842
0.000422185
0.000417779
0.000417774
0.000422201
0.000422197
0.000417753
0.000431076
0.000426655
0.000426644
0.000422153
0.000417768
0.000422183
0.000417715
0.000422193
0.000422142
0.000417742
0.000422149
0.000417758
0.000422173
0.00041771
0.000422138
0.000422185
0.000417737
0.00042218
0.000404391
0.000408871
0.000408852
0.000413305
0.0004133
0.000413289
0.000408879
0.000408874
0.000404338
0.000399888
0.000404377
0.000399958
0.000404308
0.000404391
0.000399925
0.00040433
0.000399877
0.000404362
0.000399942
0.000404375
0.000404298
0.000399918
0.000408835
0.000413296
0.000413221
0.000408849
0.0004088
0.000413247
0.000408868
0.000408828
0.000413283
0.000413214
0.000408835
0.00041324
0.000408853
0.000408791
0.000404384
0.000399971
0.000399966
0.000404402
0.000404396
0.000399946
0.00040437
0.00040885
0.000422155
0.000422139
0.00041771
0.00041771
0.000422142
0.000422155
0.000417712
0.000422161
0.000417723
0.000422166
0.00042216
0.000417738
0.000422144
0.000422133
0.000417695
0.000417702
0.00042213
0.000422149
0.000417699
0.000426632
0.000431064
0.000426619
0.000431067
0.000426618
0.000426627
0.000426628
0.000431064
0.000431079
0.000431077
0.000426625
0.000426629
0.000422135
0.000417688
0.000422128
0.000422133
0.000417703
0.000408797
0.00041322
0.000413233
0.000408783
0.000413236
0.000408792
0.000408791
0.000404339
0.000404345
0.000399901
0.000404336
0.000399914
0.000408827
0.000413246
0.000408825
0.00041325
0.000408812
0.000404322
0.000404293
0.000399876
0.000399878
0.000404304
0.000404318
0.00039988
0.000408775
0.000413202
0.000413223
0.000408774
0.000413219
0.000408769
0.000408778
0.000404281
0.000404275
0.000399829
0.000404273
0.000399849
0.000408776
0.000413203
0.000408761
0.000413207
0.000408759
0.000404296
0.000404282
0.000399845
0.000399859
0.000404277
0.000404302
0.000399853
0.000426649
0.000422152
0.000426621
0.000422129
0.000408732
0.000413186
0.000413182
0.000413188
0.00040874
0.000408737
0.000404248
0.000399824
0.000404254
0.000399807
0.000399818
0.000404263
0.000404254
0.000404248
0.000399823
0.000404254
0.000399813
0.00039982
0.000404258
0.000404254
0.000408765
0.000413198
0.000413207
0.000408746
0.000413193
0.000408773
0.000408749
0.000408761
0.000413184
0.000413197
0.000408741
0.000413188
0.000408763
0.000408741
0.000404246
0.000399804
0.000399807
0.000399792
0.000404246
0.000404246
0.000404257
0.000408758
0.000404264
0.000408756
0.000390949
0.000390977
0.000390959
0.000395385
0.000395405
0.000390942
0.000395391
0.000390948
0.000390948
0.000390966
0.000395386
0.000395415
0.000390955
0.000395395
0.000390965
0.000390953
0.000390949
0.000395411
0.000395414
0.000395411
0.000390955
0.000390961
0.000391026
0.000395453
0.000391018
0.000395458
0.00039101
0.000391002
0.000390988
0.000395446
0.000395429
0.000390998
0.000395449
0.000390995
0.000390877
0.000395318
0.000390875
0.000395316
0.000390866
0.000390882
0.000390883
0.000395344
0.000395337
0.000395349
0.00039088
0.000390886
0.000391011
0.000395396
0.000395476
0.00039102
0.000391035
0.000395427
0.000390975
0.000391005
0.000395385
0.000395461
0.00039101
0.000390965
0.00039542
0.000391023
0.00039103
0.000395489
0.000395484
0.000391049
0.000395475
0.000391046
0.000391024
0.000390995
0.000395422
0.000390991
0.000390982
0.000395425
0.000390961
0.000390944
0.000395388
0.0003954
0.000390956
0.000395405
0.000390955
0.000390922
0.000395344
0.000390913
0.000395353
0.000390902
0.000390931
0.00039093
0.000395355
0.000395382
0.000395374
0.000390923
0.000390936
0.000390869
0.000390899
0.000428969
0.00042898
0.000420011
0.000420041
0.000420033
0.000420075
0.000429006
0.000426724
0.000431007
0.000430999
0.000426819
0.000430981
0.000426723
0.000426732
0.000393242
0.000393194
0.000393261
0.000390958
0.00039525
0.000395235
0.000391049
0.000395219
0.000390968
0.000390954
0.000426749
0.000431016
0.000431019
0.000426827
0.000431002
0.000426744
0.000426743
0.000404225
0.000404113
0.000399972
0.000399957
0.000404246
0.000404228
0.000399972
0.000426836
0.00043108
0.000431081
0.000426864
0.000426819
0.000431081
0.000426819
0.000431005
0.000426809
0.000426726
0.000404211
0.000404059
0.000399938
0.000399936
0.000404202
0.000404203
0.000399966
0.000404167
0.000404082
0.000399915
0.000399903
0.000399905
0.000404196
0.000404182
0.000391034
0.000395312
0.000395295
0.000391099
0.000395293
0.000391035
0.000391022
0.000391052
0.000395291
0.000395286
0.000391068
0.000391022
0.000395297
0.000391028
0.00042896
0.000428978
0.000420047
0.000420047
0.000420065
0.000420083
0.000429003
0.000428977
0.000428993
0.000419977
0.00042002
0.000420031
0.00042008
0.000429022
0.00042901
0.000429019
0.000420043
0.000420074
0.000420063
0.000420104
0.000429037
0.000411071
0.000402182
0.000402139
0.000411113
0.000411086
0.000411142
0.000402204
0.000411134
0.00040221
0.000402211
0.000411133
0.000411145
0.00041116
0.00040223
0.000411021
0.000402116
0.000402112
0.000411065
0.00041107
0.000411136
0.000402187
0.000411086
0.000402185
0.000402138
0.000411134
0.000411101
0.000411166
0.000402219
0.000422126
0.000422148
0.000417826
0.000417858
0.000422164
0.000422121
0.000417876
0.000426789
0.000431141
0.000431116
0.000426769
0.000431068
0.000426757
0.000426769
0.000426811
0.00042675
0.000431093
0.000431048
0.000431052
0.000426763
0.000426781
0.000422146
0.00041783
0.000422214
0.000417831
0.000422223
0.000422187
0.00041786
0.000422044
0.000422077
0.000417784
0.000417748
0.000422048
0.000422083
0.000417795
0.000422057
0.000417746
0.00042212
0.000417727
0.000422121
0.000422097
0.000417768
0.000422045
0.00042196
0.000417791
0.000417792
0.000422064
0.000422069
0.000417789
0.000393272
0.000393262
0.000393289
0.00039317
0.00039316
0.000393233
0.000393227
0.000393179
0.000393265
0.000390993
0.000395348
0.000395334
0.000390999
0.000395272
0.000390964
0.00039099
0.000391007
0.000390967
0.000395253
0.000395305
0.000395252
0.000390991
0.000390976
0.000422075
0.000421974
0.00041782
0.000417814
0.000417823
0.000422091
0.000422085
0.000408899
0.000408967
0.00041317
0.000413156
0.00041315
0.000408899
0.000408887
0.00042212
0.000422162
0.000417828
0.000417864
0.00042216
0.000422124
0.000417874
0.000426756
0.000431103
0.000431085
0.000426722
0.000426737
0.000431039
0.000426714
0.0004268
0.000426761
0.000431084
0.000431047
0.000426754
0.000431043
0.000426789
0.000422112
0.000417811
0.000422175
0.000417786
0.00042216
0.000422177
0.000417827
0.00042214
0.00042217
0.000417849
0.000417877
0.000422182
0.000422137
0.000417894
0.000426793
0.000431151
0.000431124
0.000426781
0.000431072
0.000426779
0.000426766
0.000426815
0.000426768
0.000431104
0.000431058
0.000431058
0.000426776
0.0004268
0.000422155
0.000417851
0.000422229
0.000417847
0.000422202
0.000417871
0.000422236
0.000408942
0.000413231
0.000413195
0.000408898
0.000413191
0.000408894
0.000408931
0.000404246
0.000399919
0.000404312
0.000399936
0.000404314
0.000404294
0.000399956
0.000408895
0.000413231
0.000413248
0.000408866
0.000408856
0.000413182
0.000408878
0.000404253
0.000404289
0.000399949
0.000399988
0.000404292
0.000404256
0.0004
0.000408962
0.000413249
0.000413208
0.000408905
0.000413211
0.000408909
0.000408943
0.00040428
0.000399947
0.000404319
0.000399941
0.000404312
0.000404358
0.000399979
0.000408934
0.000413265
0.000413306
0.000408892
0.000413225
0.000408905
0.00040891
0.000404271
0.000404295
0.000399953
0.000399997
0.000404301
0.000404267
0.000400015
0.000422161
0.00042202
0.000417896
0.0004179
0.000422167
0.000422163
0.000417906
0.000408956
0.000409027
0.00041323
0.000413235
0.000408956
0.000413221
0.000408957
0.000422062
0.000422095
0.000417771
0.000417802
0.000422102
0.000422063
0.000417817
0.000426716
0.000431069
0.000426679
0.000426689
0.000431003
0.000426674
0.000426746
0.000426696
0.000430998
0.000426697
0.000430996
0.000426732
0.000422073
0.000417764
0.000422132
0.000417749
0.000422112
0.000422138
0.000417789
0.000422059
0.000422096
0.000417803
0.000417768
0.000422065
0.000422099
0.000417811
0.000426716
0.00043107
0.00043104
0.000426678
0.000431003
0.000426689
0.000426675
0.000426745
0.000426697
0.000431
0.000431031
0.000430995
0.000426735
0.000426696
0.000422068
0.000417764
0.000422133
0.00041774
0.000422111
0.00041778
0.000422135
0.000408892
0.000413178
0.000413137
0.000408846
0.000413138
0.000408848
0.000408877
0.000404227
0.000399907
0.00040429
0.000399923
0.000404297
0.000404269
0.000399941
0.000408866
0.000413189
0.000413217
0.000408835
0.000408828
0.00041315
0.000408843
0.000404213
0.000404249
0.000399928
0.000399952
0.000404255
0.000404213
0.000399967
0.000408882
0.000413136
0.000413175
0.000408846
0.000413129
0.000408874
0.000408848
0.000404209
0.000399901
0.000404315
0.000399936
0.000404278
0.000404284
0.000399931
0.00040885
0.00041319
0.000413203
0.000408854
0.000413133
0.000408849
0.000408816
0.000404203
0.00040425
0.000399946
0.000399932
0.000404208
0.000404258
0.000399959
0.000422101
0.000422138
0.000417844
0.000417792
0.000422109
0.000422131
0.000417851
0.000426737
0.000431088
0.000431061
0.000426681
0.00042669
0.000431026
0.000426709
0.000426785
0.00042674
0.000431039
0.000431064
0.000426776
0.000431034
0.00042673
0.000422088
0.00041777
0.000422127
0.000417754
0.000422146
0.000422126
0.0004178
0.000408936
0.00041322
0.000413185
0.000408867
0.000413188
0.000408875
0.000408917
0.000408917
0.000413241
0.000413287
0.000408861
0.000413209
0.000408888
0.000408875
0.00040424
0.000404252
0.00039991
0.000399962
0.000399979
0.000404262
0.000404236
0.000408907
0.000413169
0.000413189
0.000408856
0.000413161
0.0004089
0.000408846
0.000404199
0.000399861
0.00040424
0.000399871
0.000404233
0.00040426
0.000399904
0.000408857
0.000413183
0.000413209
0.000408799
0.000413148
0.000408824
0.000408812
0.000404212
0.000404242
0.000399944
0.000399893
0.000404218
0.000404239
0.000399954
0.000422052
0.000421943
0.000417783
0.000417789
0.000422068
0.000422062
0.000417797
0.00040888
0.000408913
0.000413123
0.000413129
0.000408854
0.000413125
0.000408856
0.000422044
0.000422074
0.000417783
0.000417741
0.000422048
0.000422076
0.000417795
0.000426702
0.00043105
0.000431018
0.000426644
0.00042666
0.00043099
0.000426664
0.00042673
0.000426678
0.000430988
0.000431014
0.00042672
0.000430984
0.000426675
0.000422054
0.000417731
0.00042209
0.000417725
0.00042212
0.000422084
0.000417767
0.000408862
0.000413115
0.000413151
0.000408817
0.00041311
0.000408852
0.00040882
0.000404191
0.000399879
0.000404289
0.000399907
0.000399911
0.000404264
0.000404251
0.000408835
0.000413169
0.000413188
0.00040883
0.00041312
0.000408798
0.000408824
0.000404179
0.000404217
0.00039992
0.000399898
0.000399932
0.000404183
0.000404228
0.000408863
0.000413113
0.000413143
0.000408813
0.00041311
0.000408849
0.00040881
0.000404186
0.000399859
0.000404227
0.000399866
0.000404218
0.000404251
0.000399895
0.000408832
0.000413151
0.000413184
0.000408777
0.000413121
0.000408798
0.000408791
0.000404179
0.000404212
0.000399917
0.000399881
0.000404181
0.000404214
0.000399931
0.00040885
0.000408943
0.000413134
0.000413126
0.000413109
0.000408858
0.00040885
0.000391007
0.00039537
0.000395345
0.00039097
0.00039098
0.000395302
0.000390971
0.000391011
0.000395373
0.000395347
0.000390986
0.000390998
0.000395299
0.000390983
0.000391041
0.000391004
0.000395335
0.000395287
0.000391006
0.000395287
0.000391025
0.000391013
0.000395371
0.000395363
0.000391024
0.000395292
0.000391019
0.000390987
0.00039104
0.000391006
0.000395283
0.000395341
0.000395282
0.000391023
0.000391013
0.000390949
0.000395307
0.000395279
0.0003909
0.000390906
0.000395246
0.000390917
0.000390995
0.000390938
0.000395258
0.000395284
0.000390983
0.000395254
0.000390937
0.00039096
0.000395324
0.000395285
0.000390918
0.000390921
0.000395244
0.000390935
0.000390999
0.000390959
0.000395249
0.000395286
0.000390986
0.000395247
0.000390955
0.000431104
0.000431087
0.00043111
0.000431107
0.000431059
0.000431026
0.000431098
0.000431101
0.00043109
0.000431104
0.000431106
0.00043111
0.000431094
0.000431128
0.00043112
0.00043112
0.00043104
0.000431031
0.000125789
0.000124816
0.000125618
0.000125618
0.000125789
0.000125124
0.000122724
0.000122798
0.000125319
0.000125393
0.000125639
0.000121467
0.000121473
0.000125965
0.000125942
0.00012572
0.00012169
0.000121669
0.000120984
0.000125774
0.000125023
0.000121375
0.000120569
0.000125255
0.000121525
0.000120989
0.000125774
0.000125041
0.000121388
0.000125263
0.000121516
0.000120586
0.000121495
0.000121331
0.000125404
0.000125552
0.000121058
0.0001256
0.00012114
0.000121287
0.000121427
0.000125548
0.00012138
0.000125717
0.000121325
0.000121272
0.000121064
0.000121106
0.000121284
0.000121391
0.000121261
0.000121314
0.000121341
0.000120687
0.000120492
0.000124947
0.000124931
0.000120491
0.000124955
0.00012048
0.000120597
0.000125066
0.000125108
0.000120705
0.00012501
0.000120627
0.000120733
0.000120561
0.000125116
0.000125036
0.00012107
0.000124993
0.000120544
0.000120788
0.00012073
0.000120768
0.0001778
0.000177634
0.000177858
0.000179789
0.000141888
0.000141667
0.000141629
0.000143651
0.000198068
0.000197996
0.000195385
0.000195404
0.000198075
0.000148757
0.000179963
0.000179868
0.000150945
0.000150731
0.000179785
0.000148609
0.000180007
0.000180007
0.000151028
0.000151056
0.000177738
0.000179852
0.000150689
0.000150814
0.000179854
0.000148892
0.000177835
0.000179935
0.000151017
0.000150889
0.000179906
0.000148682
0.000143677
0.000141687
0.000141689
0.000143662
0.000141637
0.000141651
0.00014163
0.000143748
0.000141592
0.000184562
0.000184464
0.000184316
0.000184591
0.000198075
0.000197883
0.000186535
0.000186606
0.00018439
0.000184619
0.000198163
0.000179981
0.000179941
0.000166445
0.000166346
0.00017978
0.000166375
0.000180065
0.000180053
0.000166372
0.000166286
0.000177844
0.000177813
0.000177624
0.000151105
0.000150674
0.000151165
0.000150994
0.000177621
0.00017982
0.000179776
0.0001665
0.000168674
0.000166403
0.000168706
0.000179913
0.000166027
0.000177864
0.000166652
0.000179936
0.000169111
0.00017997
0.000169104
0.000166325
0.000179916
0.000179876
0.000166872
0.000166216
0.000166156
0.00013028
0.000143696
0.000143799
0.000130212
0.000144137
0.000130595
0.000129817
0.00014332
0.000143325
0.000129888
0.000141675
0.000141755
0.000141772
0.000130365
0.000143922
0.000141681
0.000132592
0.000143812
0.000130542
0.000132571
0.000143216
0.000130063
0.000129857
0.000141692
0.000143315
0.00013214
0.000143518
0.000132174
0.000129906
0.000143613
0.000143441
0.000130199
0.000130194
0.000130077
0.000184516
0.000197353
0.00018459
0.000184506
0.000184486
0.00019799
0.00018447
0.00019806
0.000195343
0.000186571
0.000186609
0.000197753
0.000184538
0.000197902
0.000184565
0.00018661
0.00018665
0.000197933
0.000195466
0.000184566
0.000197779
0.000184573
0.000198021
0.000184485
0.00019808
0.000184554
0.000184525
0.000198053
0.000184562
0.000180018
0.000166261
0.000180073
0.000166175
0.00018003
0.000180067
0.00017979
0.000166967
0.000166311
0.000166263
0.000148095
0.000161681
0.000147813
0.000161536
0.000162104
0.000148072
0.000147901
0.000161685
0.000161603
0.000179928
0.000179813
0.000166446
0.000166378
0.00017988
0.000177773
0.000177691
0.000166626
0.000168941
0.000166483
0.000168844
0.000179826
0.000177633
0.000177629
0.000166602
0.000168723
0.00016646
0.000168745
0.000161886
0.000148239
0.000161769
0.00014835
0.000161897
0.000148517
0.000161882
0.000148387
0.000161979
0.000160041
0.000148258
0.000150917
0.000161808
0.00015993
0.000148502
0.000161955
0.00015975
0.00014853
0.000150808
0.000161879
0.000159808
0.000148511
0.000179752
0.00017975
0.000166705
0.000166394
0.000166375
0.000179741
0.000166359
0.000148598
0.000161914
0.000161818
0.000148593
0.000148586
0.000161913
0.000161901
0.000148591
0.000161909
0.000180045
0.000177843
0.00017783
0.000166734
0.000169062
0.000166515
0.000169073
0.000180059
0.000179951
0.000166387
0.000166108
0.000177849
0.000177851
0.000179971
0.000166758
0.000169118
0.000169108
0.000166392
0.000161703
0.000147901
0.000161634
0.000147909
0.00016204
0.000160178
0.000148113
0.000151163
0.000161799
0.000160235
0.000148331
0.000161727
0.000147756
0.000161448
0.000147937
0.000162063
0.000160225
0.000151146
0.000147995
0.000160265
0.000161679
0.000148346
0.000179849
0.000179746
0.000166344
0.000166333
0.000177693
0.000179829
0.000179857
0.000166517
0.000168858
0.000168793
0.000166348
0.000179851
0.000166339
0.000166243
0.000161855
0.0001597
0.000148514
0.000150731
0.000161829
0.000159753
0.000148471
0.000161809
0.000148511
0.000161847
0.000148361
0.000161868
0.000159912
0.000150813
0.000148272
0.000159857
0.000161707
0.000148466
0.000161801
0.000148234
0.000161701
0.000148338
0.000179936
0.000179913
0.000167132
0.000166128
0.000166102
0.000179863
0.000165993
0.00014769
0.000161376
0.000162263
0.000147771
0.000147768
0.000161465
0.000161442
0.000147684
0.00016135
0.000177834
0.000179957
0.000166635
0.000169005
0.000179968
0.000169051
0.000166379
0.000166274
0.000179879
0.000179992
0.00016604
0.00016626
0.000179989
0.000166156
0.000161953
0.0001602
0.000151079
0.000147983
0.000160232
0.000161625
0.000148302
0.000161935
0.000160061
0.000151044
0.000148082
0.000160173
0.000161691
0.000148292
0.00016163
0.000147753
0.000161394
0.000147898
0.000161616
0.000147885
0.000161529
0.000147899
0.000179851
0.000166191
0.000166076
0.000161983
0.000148143
0.000147977
0.000161639
0.000161554
0.000148156
0.000161652
0.000147877
0.000161485
0.000143581
0.000130086
0.000143299
0.00012992
0.000143508
0.000143339
0.000130172
0.000130041
0.00012992
0.000125611
0.00012555
0.000125134
0.000125509
0.000125433
0.000130319
0.000144014
0.000143842
0.000130527
0.000130305
0.000143615
0.000141775
0.000132406
0.000143805
0.000130169
0.00013257
0.000130346
0.000143925
0.000141738
0.000132613
0.000143826
0.000130525
0.000132629
0.000125716
0.000125658