/*--------------------------------*- C++ -*----------------------------------*\
| =========                 |                                                 |
| \\      /  F ield         | OpenFOAM: The Open Source CFD Toolbox           |
|  \\    /   O peration     | Version:  v2006                                 |
|   \\  /    A nd           | Website:  www.openfoam.com                      |
|    \\/     M anipulation  |                                                 |
\*---------------------------------------------------------------------------*/
FoamFile
{
    version     2.0;
    format      ascii;
    class       surfaceScalarField;
    location    "625";
    object      phi;
}
// * * * * * * * * * * * * * * * * * * * * * * * * * * * * * * * * * * * * * //

dimensions      [0 3 -1 0 0 0 0];
oriented        oriented;


internalField   nonuniform List<scalar> 
41332
(
1.32491e-06
-4.57294e-07
-1.15402e-06
2.92004e-07
-1.58622e-07
2.60034e-07
-1.39901e-07
-0.00113105
1.4203e-06
4.17136e-07
-1.06778e-06
3.82665e-07
-6.29492e-08
1.52728e-07
-2.46508e-07
-0.00113086
-1.28991e-06
-0.000268465
2.72906e-07
2.71927e-07
-5.25549e-07
-3.68163e-07
-1.12202e-06
2.91768e-07
-1.55407e-07
-7.7481e-07
2.67469e-07
9.33947e-07
-1.39372e-07
-0.00113156
1.07819e-06
-6.11617e-07
2.0558e-07
-1.35293e-06
1.31067e-07
-3.17305e-07
-7.4824e-07
2.90677e-07
-1.07224e-07
9.59916e-07
-0.00113105
-0.000268406
1.3221e-07
3.44293e-07
-4.35122e-07
-0.00117816
7.86371e-08
-0.00117734
1.04574e-08
-2.02681e-08
-0.000194672
-2.88522e-08
-8.82985e-08
-0.000246628
-1.1589e-09
-9.87336e-10
-4.12342e-08
-0.000246625
-3.66654e-08
-0.000194703
1.32631e-08
-9.85233e-05
-2.17712e-08
-0.000279694
-3.53857e-08
-1.55277e-08
2.16685e-08
-2.46932e-08
-0.000279792
-3.93049e-08
2.27368e-08
-9.85365e-05
-3.69661e-07
-5.21486e-07
-8.52974e-07
8.64807e-07
1.03688e-06
-6.74135e-07
-0.00114946
-9.83018e-09
-8.84353e-08
-0.000246727
1.82714e-08
-2.82113e-08
5.0982e-08
-0.000251115
-2.12221e-07
1.56741e-08
-4.80995e-07
-8.46938e-07
8.76512e-07
-6.67531e-07
1.05167e-06
-0.00114945
-1.25718e-08
-7.09872e-09
-1.05449e-07
-0.000246612
2.71631e-08
5.44459e-08
-0.000251088
-2.16093e-07
-3.42999e-08
-0.000194702
2.22078e-08
-3.73735e-09
-0.000230623
-4.76332e-09
1.86922e-08
1.70625e-08
-0.000194701
-2.18148e-08
-0.000230591
-9.64177e-09
2.28019e-08
1.01261e-08
-6.69419e-09
-0.000279804
-3.95352e-08
-4.49166e-08
-2.59822e-08
-0.000279651
1.17777e-08
-9.86014e-05
-9.85673e-05
-1.06909e-08
3.0806e-08
-0.000194689
-1.83941e-08
1.64055e-08
-0.000194703
-8.22943e-09
-9.85258e-05
2.64404e-08
-2.44884e-08
0.00022304
2.92495e-10
1.51626e-08
-0.000223058
-0.000251719
3.71224e-10
-8.99687e-08
-3.15076e-08
9.36912e-09
-3.1313e-08
2.83641e-08
-0.000279708
-0.000183964
2.60057e-08
-1.89783e-08
2.24593e-08
1.56168e-08
-0.000251722
-2.00838e-08
-0.000184
1.74606e-08
-3.08292e-08
-1.36595e-08
2.5804e-08
0.000223099
-1.63056e-08
1.57022e-08
-0.000223111
-0.000251874
2.6363e-09
-8.71856e-08
-4.41131e-08
-4.55433e-08
1.10143e-08
1.78002e-08
2.77333e-08
-0.000279803
-0.000183972
9.76638e-09
-3.26268e-08
-4.07745e-08
-0.00018399
2.81235e-08
7.22339e-09
-0.000251873
2.57537e-09
-3.53436e-08
-6.74745e-09
1.98972e-08
0.000214953
-0.000214982
-8.0886e-05
-3.30274e-09
-8.09061e-05
-2.28579e-08
-8.09128e-05
-8.0927e-05
1.85643e-08
-9.85372e-05
-1.68105e-08
7.97327e-05
-2.80911e-10
-7.97156e-05
9.6792e-09
2.2996e-08
-0.000194716
-0.000264822
-1.49105e-08
1.55823e-08
-3.03934e-08
-5.46228e-09
1.72778e-08
-0.000264841
3.65594e-08
-2.86044e-09
1.58119e-08
0.000144241
-0.000144254
1.01262e-08
-2.19805e-08
-1.14067e-08
2.19402e-08
-0.000230622
-0.000224666
-6.66433e-09
-4.3137e-08
-0.000172125
-1.88808e-08
1.03423e-08
2.08221e-08
-0.000224685
4.3684e-09
-0.000172136
-1.07593e-08
7.97013e-05
-1.17841e-08
-7.96787e-05
-2.08309e-08
1.43813e-08
1.52064e-08
-0.000194709
-0.000264721
-3.43205e-08
8.43782e-09
-2.85968e-08
1.59006e-09
4.6799e-09
-0.000264759
1.40412e-08
-8.76256e-09
6.35187e-09
0.000144187
-0.000144196
-1.06947e-08
-2.14281e-08
1.69692e-08
-0.000230587
-0.000224586
-4.93243e-09
-4.77519e-08
-0.000172098
3.59527e-09
4.04467e-09
-0.000224608
-0.000172108
0.00022306
-3.71642e-08
-1.11193e-08
7.28647e-09
5.98992e-08
-0.000223079
5.24039e-08
-0.000251798
-1.38445e-08
-1.08334e-07
3.43728e-08
-1.98278e-08
3.41068e-08
-2.0903e-08
-0.000279832
4.66452e-09
-0.000184108
-2.90411e-08
1.60498e-08
2.11758e-09
9.981e-08
-7.29397e-08
-0.000251828
-1.86907e-08
-0.00018412
0.00022296
5.68146e-08
-2.71389e-09
-1.70749e-08
-2.08434e-08
-0.000222976
-1.11522e-08
-0.000251655
-1.18522e-07
2.18441e-08
-2.55253e-09
-6.53997e-10
-3.64985e-09
2.34697e-08
-0.000279668
1.18036e-08
-0.000183968
4.54615e-09
1.56421e-08
-6.16792e-08
-1.41044e-08
8.35866e-08
-0.00025167
-1.76764e-09
-0.00018397
0.000214946
5.742e-09
-5.59889e-09
-0.000214956
-1.90702e-08
-8.09874e-05
8.17146e-09
-8.09643e-05
-8.10004e-05
-8.09716e-05
-9.85857e-05
-9.85566e-05
5.30252e-08
4.95654e-08
0.000243892
-0.000243963
-1.50476e-07
-1.57182e-07
-0.000270433
-0.000261865
1.16329e-07
-0.000261513
1.20477e-07
-0.000262099
-0.000261747
0.000243807
-2.03205e-08
1.54792e-07
-0.000243903
-2.92786e-07
-9.12716e-08
-0.000270443
1.85059e-07
-0.000261429
2.67231e-08
-0.000261806
-0.000261705
-0.000262074
-3.59212e-07
-0.00120606
-0.001206
-0.000261191
6.75324e-08
-0.000246658
-0.000261229
-0.000261188
1.08246e-07
-0.000246683
-0.00026128
0.000264747
2.76875e-08
-1.22303e-07
-3.81037e-08
-0.000265389
-3.67052e-08
-0.0002613
6.39305e-08
1.42997e-08
-0.000246754
-1.85173e-07
-0.000251948
-1.61118e-09
-5.05865e-08
-0.00026134
-1.09234e-08
-0.000252028
0.00026623
-5.22994e-08
-1.29136e-07
-0.00026694
1.06791e-07
2.49896e-08
-3.47597e-08
-0.00025119
4.97545e-08
-0.000266316
-5.85211e-08
-2.20942e-07
-0.000250623
-6.22521e-08
-0.000266873
-0.000250717
-9.861e-08
-7.98154e-08
0.000264637
7.64978e-08
-0.000265283
-0.000261168
5.30728e-08
4.55469e-08
4.07204e-08
-0.00024666
-0.000251836
-2.06347e-07
3.67346e-08
4.61541e-08
-0.00025193
-0.000261231
5.16228e-08
6.57302e-08
-1.11255e-07
0.000266151
-0.000266876
9.94622e-08
-4.03637e-08
-0.000251165
-0.000266289
-5.99898e-08
-0.00025054
-2.31618e-07
-0.000266854
-0.000250642
1.41596e-07
1.09827e-07
-4.93655e-08
-1.4008e-07
0.00118085
-1.24093e-06
-1.03624e-07
-2.58604e-07
0.00113168
-2.11267e-07
1.21037e-06
2.41164e-07
8.93236e-07
-1.71219e-07
-8.21577e-07
2.41925e-07
1.21005e-06
1.18739e-06
-1.98572e-07
-1.92395e-07
0.000268169
8.31732e-08
1.93796e-07
-0.00118059
-1.71993e-07
-2.68777e-08
0.00118051
-0.00113162
-1.18046e-06
-1.86427e-07
-6.79806e-08
-2.0642e-07
1.22531e-06
2.40687e-07
8.88699e-07
-1.7144e-07
-8.16531e-07
2.3762e-07
0.00113166
-0.000270196
1.20077e-06
1.1807e-06
-1.9681e-07
-1.92497e-07
0.000268204
1.22307e-06
1.1837e-06
-1.93415e-07
-1.95361e-07
0.00026822
-1.28288e-06
-1.21308e-06
0.000270272
-0.000268248
2.22909e-07
2.49818e-07
-6.08802e-08
0.00113104
-2.03007e-07
1.27326e-06
2.52148e-07
8.87506e-07
-1.82894e-07
-8.30011e-07
2.30321e-07
-1.21699e-06
-2.33942e-08
-6.81832e-08
0.00113127
-2.08163e-07
1.269e-06
2.50028e-07
8.97576e-07
-1.73551e-07
-8.20214e-07
2.39909e-07
0.00113105
-9.37619e-08
-0.00113105
-1.32618e-07
-1.20815e-06
2.60899e-07
-1.96653e-07
-8.34133e-07
2.25423e-07
-1.83066e-07
8.81263e-07
-1.09666e-07
-0.00113122
4.40955e-09
-8.33044e-07
2.27803e-07
-1.84229e-07
8.8547e-07
1.25922e-06
0.00113117
-1.22715e-06
2.43004e-07
-2.16211e-07
-1.96857e-07
-1.90688e-07
0.000268258
-6.27602e-08
0.00113202
-2.05721e-07
1.22191e-06
2.35543e-07
8.87635e-07
-1.79891e-07
-8.30722e-07
2.31817e-07
-1.20754e-06
-1.3973e-07
-3.65318e-08
0.00113107
-2.05453e-07
1.26537e-06
2.50794e-07
8.85096e-07
-1.8209e-07
-8.29706e-07
2.31418e-07
0.00113204
-1.94333e-07
-0.00113203
5.06907e-09
-1.19346e-06
2.28669e-07
-2.14258e-07
-8.1726e-07
2.37638e-07
-1.70222e-07
8.92497e-07
1.27191e-06
0.00113116
-1.72817e-07
-0.00113112
-1.03326e-07
-1.20975e-06
2.53718e-07
-2.00248e-07
-8.25268e-07
2.35754e-07
-1.77933e-07
8.89956e-07
-9.72746e-08
4.35272e-09
0.00113065
-2.01191e-07
1.26572e-06
2.50031e-07
8.78747e-07
-1.79611e-07
2.27416e-07
-8.26743e-07
1.26789e-06
0.00113061
-6.8237e-08
-0.0011306
-1.28342e-07
-1.20149e-06
2.55771e-07
-1.97032e-07
-8.3715e-07
2.22048e-07
-1.91496e-07
8.71981e-07
-1.97768e-07
0.000268212
-1.22909e-06
0.000270269
-0.000268244
2.3325e-07
2.43464e-07
-1.0339e-07
-4.75608e-08
0.0011316
-2.17471e-07
1.20611e-06
2.31262e-07
8.79623e-07
-1.84292e-07
2.26581e-07
-8.29511e-07
-1.7604e-07
-0.00113158
-8.98133e-08
-1.17707e-06
2.4447e-07
-2.02958e-07
-8.18294e-07
2.35822e-07
8.86578e-07
-1.731e-07
1.19929e-06
0.00113159
-1.64941e-07
-0.00113158
8.13813e-09
-1.18547e-06
2.24347e-07
-2.13423e-07
-8.23904e-07
2.32943e-07
-1.79665e-07
8.84658e-07
-0.000268192
2.17551e-07
2.45589e-07
1.21205e-06
1.19276e-06
-1.9889e-07
-1.90933e-07
0.000268257
-2.01607e-07
1.27776e-06
2.55075e-07
8.81355e-07
-1.82877e-07
-8.34308e-07
2.2574e-07
-1.18801e-07
0.00113105
5.19136e-09
-2.12574e-07
1.21483e-06
2.34065e-07
8.90438e-07
-1.72309e-07
-8.18621e-07
2.34926e-07
0.00113205
-1.20872e-06
-1.69918e-07
-1.0665e-07
-1.99506e-07
1.27301e-06
2.54329e-07
8.89287e-07
-1.78872e-07
-8.26098e-07
2.34964e-07
0.0011312
-7.59519e-08
-1.41156e-07
-1.96836e-07
1.26819e-06
2.55442e-07
8.7417e-07
-1.89526e-07
2.24805e-07
-8.35758e-07
0.00113063
-1.9145e-07
-1.89236e-07
0.00026826
-1.74319e-07
-1.85123e-08
-2.0762e-07
1.20576e-06
2.31531e-07
8.84364e-07
-1.80561e-07
2.32303e-07
-8.24297e-07
0.00113163
-4.63258e-09
-5.73926e-08
0.0002301
-0.000230066
2.14088e-08
6.86197e-09
1.31301e-09
1.78717e-08
-9.56589e-09
0.000194335
-7.52226e-09
1.51456e-08
0.000230047
-2.5346e-09
9.3457e-09
5.57729e-09
-3.15742e-08
0.000194382
-2.02518e-09
-0.000194354
1.91683e-09
7.58998e-09
9.83693e-05
-8.95662e-09
-1.15553e-08
9.84009e-05
-9.83804e-05
-5.60513e-08
-1.66689e-09
0.000230094
-0.00023006
2.5015e-09
2.0498e-08
4.89268e-09
-3.3426e-08
0.000194361
8.90918e-10
-0.000194333
-1.92656e-07
-3.79301e-07
0.00118062
-6.92219e-08
-1.20942e-07
0.00118042
1.95189e-08
-5.65536e-08
0.0011804
-0.00118067
-1.60806e-07
-4.69612e-08
0.00118044
-0.00118055
-4.36278e-08
-6.68812e-08
1.07655e-07
0.00118024
-0.00118028
-1.43861e-07
-1.60868e-07
0.00118003
-0.00118013
-1.21939e-07
-1.26053e-08
5.52643e-08
1.21667e-08
0.000250755
-0.000250626
-9.53164e-09
-1.86858e-07
-9.41563e-09
-1.1407e-08
6.04895e-08
8.01645e-09
0.000246152
0.00115072
-8.60351e-08
-1.09542e-07
9.85691e-07
-7.23905e-07
-9.06401e-07
8.05099e-07
-7.64617e-08
1.22594e-06
0.00113169
-1.35391e-07
-8.18648e-07
2.38282e-07
-1.74207e-07
8.90077e-07
-1.19004e-06
2.35515e-07
-2.11219e-07
-1.33847e-08
1.3322e-08
0.000250611
-8.30107e-09
1.20093e-07
1.19785e-08
3.47545e-08
0.00024624
-4.28819e-09
-0.000246175
-1.08037e-07
-1.50092e-08
0.00115065
-1.63611e-07
-9.02668e-07
8.05781e-07
-7.22657e-07
9.85982e-07
3.34198e-09
8.71239e-09
9.83677e-05
-4.72353e-09
-1.24005e-08
9.83896e-05
-9.83725e-05
-7.40172e-11
5.16305e-08
0.000250747
-0.000250613
-1.85131e-07
-2.29631e-10
-9.16013e-08
1.22724e-06
0.00113154
-1.45619e-07
-8.21752e-07
2.3206e-07
-1.76201e-07
8.82469e-07
-1.17958e-06
2.46012e-07
-2.04767e-07
-5.3502e-08
0.00115044
-1.53167e-07
-9.08414e-07
8.01221e-07
-7.27824e-07
9.81038e-07
1.06555e-08
3.24839e-08
0.000246223
-4.76437e-09
-0.000246158
-1.03848e-07
-4.89718e-09
-8.09073e-09
1.41321e-08
1.70543e-09
0.000279126
8.9093e-09
-4.98609e-09
1.62766e-08
-7.76926e-09
0.000279042
-1.26207e-06
-1.20082e-06
0.000270179
-0.000268178
2.17634e-07
2.43658e-07
-2.412e-08
9.4199e-09
0.000279181
1.26342e-08
-0.000279147
-3.20978e-08
-1.19538e-08
9.32638e-09
0.000279089
9.44246e-09
-0.000279059
-3.69875e-08
-0.00019442
-5.5008e-09
1.34547e-08
1.6228e-09
0.000194411
-0.000194396
1.22804e-09
1.57615e-08
-6.62726e-09
0.000194386
-0.000230136
1.78977e-08
-1.78976e-09
0.000230119
4.04988e-09
-2.97716e-09
-2.84892e-08
-3.01927e-08
1.02486e-07
8.21676e-08
0.00118032
-1.59884e-07
-1.58086e-07
0.0011802
-1.63814e-07
-1.9495e-08
0.00117996
-9.83998e-05
2.64474e-09
5.26919e-09
9.83919e-05
-0.00115041
-2.4523e-08
-2.12458e-07
9.87104e-07
-7.22577e-07
-9.02972e-07
8.06943e-07
0.00115041
-0.000246266
-1.24596e-08
-1.39328e-08
6.43246e-08
6.99651e-09
0.000246221
-0.000250785
7.03085e-09
-1.6836e-08
0.000250673
1.26034e-07
-3.74571e-09
-0.000279223
8.45557e-09
-2.81476e-09
1.56548e-08
-8.78814e-09
0.000279211
-0.000279131
-1.11382e-09
-9.67195e-09
1.89066e-08
5.95005e-10
0.000279122
8.89253e-09
9.83949e-05
-1.09043e-08
9.84204e-05
-9.84039e-05
-1.10094e-08
9.84038e-05
-9.83879e-05
-2.31135e-09
1.62787e-08
1.55574e-09
0.00027914
0.000270256
-1.27998e-06
-1.21771e-06
-0.00026823
2.22511e-07
2.49705e-07
0.000279204
-2.3041e-08
9.64981e-09
-0.000279169
-3.23022e-08
0.000279121
-9.80641e-09
5.31832e-09
-0.000279087
-4.01489e-08
-1.39378e-08
-2.30108e-09
9.84367e-05
-9.84205e-05
4.91984e-09
3.15252e-09
9.84123e-05
-8.30306e-09
-8.1428e-09
9.84193e-05
-9.84029e-05
6.50884e-09
2.09279e-09
9.83952e-05
1.20865e-06
1.19142e-06
0.000268239
-1.96111e-07
-1.87444e-07
-1.53182e-08
0.000279253
-3.56703e-08
-0.000279221
4.78413e-09
-1.5435e-08
0.00027917
-3.72239e-08
-0.000279138
1.16362e-08
1.33924e-09
-2.98631e-09
1.41473e-08
0.000279196
7.3211e-09
-4.71783e-09
1.184e-08
0.000279113
-5.94635e-08
0.000230063
-0.00023003
2.20942e-08
-5.59087e-10
1.42859e-08
-1.18864e-09
0.000194277
1.29142e-08
0.00023001
-1.92527e-09
-4.47508e-09
-3.61255e-08
0.000194326
-2.77621e-09
-0.000194296
-1.21185e-08
0.000250763
-0.000250631
1.37607e-08
-1.91381e-07
6.68621e-08
-1.14174e-08
0.000246143
0.00115089
7.73259e-09
-1.98611e-07
9.92537e-07
-7.2807e-07
-9.08113e-07
8.15002e-07
-9.9855e-08
0.00113106
-1.39653e-07
-1.21321e-06
2.57878e-07
-1.96519e-07
-8.31643e-07
2.26669e-07
-1.81469e-07
8.8343e-07
-9.19592e-09
0.000250615
1.38272e-08
1.27108e-07
0.000246228
-1.99965e-08
-0.000246165
-9.80046e-08
-4.0368e-08
0.00115088
-1.982e-07
-9.11752e-07
8.08376e-07
-7.28894e-07
9.86147e-07
0.000250739
-0.00025061
-5.57111e-09
-1.9482e-07
-5.6683e-09
6.13501e-08
4.24308e-09
0.000246063
0.00115091
-2.07159e-07
9.96769e-07
-7.24021e-07
-9.04079e-07
8.16689e-07
-2.56641e-08
0.00113125
1.2641e-06
-1.67753e-07
-8.22203e-07
2.39267e-07
8.97332e-07
-1.76045e-07
-1.22115e-06
2.46026e-07
-2.12221e-07
0.000250595
-6.85524e-09
1.24091e-07
0.000246142
1.70415e-08
-9.08469e-09
-0.000246081
-1.05237e-07
0.00115088
-2.16836e-07
-9.04642e-07
8.15738e-07
-7.24333e-07
9.95345e-07
-2.66379e-09
1.57451e-08
-2.90139e-09
4.80734e-09
0.000230085
-3.41285e-08
-0.000194392
4.0715e-09
1.55731e-08
-3.68641e-09
0.000194373
3.01121e-09
-5.55566e-08
-0.000230103
2.03922e-08
-7.28802e-10
0.000230136
1.40695e-08
-2.30523e-09
8.6457e-10
0.000230048
-3.25812e-08
-0.000194333
-5.86261e-09
9.19183e-09
0.000194362
1.69861e-08
1.9731e-09
-7.72385e-09
0.000194315
-5.54972e-08
-0.000230064
2.04199e-08
6.14689e-09
0.000230096
-8.94466e-09
1.41169e-08
1.28631e-07
0.000250645
-1.21182e-07
-1.11729e-07
1.2837e-06
-1.95763e-07
2.63048e-07
8.82266e-07
-1.82407e-07
2.26008e-07
-8.33008e-07
0.000246267
-1.00093e-07
-0.000246206
-1.12503e-08
-0.00115085
-8.28957e-08
-1.55979e-07
-9.15407e-07
8.00303e-07
-7.30945e-07
9.82358e-07
0.00115082
-9.15487e-09
6.84642e-08
0.000246186
-6.43941e-08
-1.84138e-07
9.87349e-07
-7.28065e-07
-9.10517e-07
8.08964e-07
-3.67915e-09
-0.000250658
5.37869e-09
-1.87887e-07
0.000250788
-5.01199e-09
1.25698e-07
0.000250624
-8.23122e-09
-1.22531e-06
-1.43096e-07
8.91838e-07
-1.78187e-07
-8.26906e-07
2.33763e-07
1.26022e-06
-2.15339e-07
2.43217e-07
-9.68755e-08
-0.00024611
-1.6989e-08
2.15389e-08
0.00024617
-0.00115084
-1.67694e-07
-9.12912e-07
8.04956e-07
-7.28522e-07
9.85991e-07
0.00115078
1.04089e-09
-1.95884e-09
6.37668e-08
0.000246097
-2.02633e-07
9.91384e-07
-7.26973e-07
-9.07881e-07
8.12512e-07
-0.000250635
2.78495e-09
-1.88714e-07
0.000250761
1.14321e-08
-6.33326e-09
0.000279031
-3.16364e-09
6.64965e-09
-7.19286e-09
0.000279159
0.000270265
-0.000268245
2.33183e-07
2.37358e-07
0.000279084
1.45666e-08
-0.000279056
-3.7261e-08
1.1769e-08
0.000279212
8.16051e-09
-0.000279182
-3.74209e-08
4.06316e-09
9.83838e-05
9.8413e-05
-6.37429e-09
-9.83949e-05
1.0275e-08
9.83926e-05
1.19063e-06
0.000268244
-1.97673e-07
-1.97376e-07
-7.32559e-10
1.58998e-08
0.00027908
-5.65272e-09
4.86499e-09
-3.46484e-09
1.10446e-08
0.000279205
7.31513e-10
9.84067e-05
-1.9171e-10
0.000250748
-0.000250615
1.02408e-10
-1.88136e-07
0.00115072
-1.34603e-08
-1.46152e-07
9.86917e-07
-7.30541e-07
-9.14121e-07
8.04703e-07
-3.26054e-08
0.00113202
-1.50135e-07
-1.18504e-06
2.31662e-07
-2.09732e-07
-8.24299e-07
2.35178e-07
-1.73607e-07
8.88682e-07
0.000246194
-5.84048e-09
-0.000246127
-1.04352e-07
1.20596e-08
0.00115069
-1.67291e-07
-9.11075e-07
8.07594e-07
-7.27623e-07
9.87114e-07
-5.56654e-08
0.000230053
-0.000230021
2.24036e-08
-9.47001e-10
1.72918e-08
3.18416e-10
0.000194262
2.04738e-08
0.000230001
-6.0197e-09
-2.05558e-09
2.15909e-09
-3.39443e-08
0.000194301
2.12747e-09
-0.000194274
0.000250721
-0.000250594
-1.85108e-07
3.08221e-09
0.0011507
-1.66166e-07
9.84742e-07
-7.32469e-07
-9.15928e-07
8.05412e-07
-8.72438e-09
6.83171e-08
1.42719e-09
0.000246041
-6.74935e-08
0.00113108
1.26777e-06
-1.62697e-07
-8.23193e-07
2.32575e-07
8.86537e-07
-1.75645e-07
-1.21352e-06
2.50179e-07
-2.03503e-07
0.000250576
1.28309e-07
7.61513e-10
-8.56486e-10
0.00115067
-1.83672e-07
-9.08353e-07
8.07677e-07
-7.27486e-07
9.8701e-07
0.000246125
1.47548e-08
-8.7599e-09
-0.000246061
-1.03274e-07
1.87437e-08
-1.12959e-09
2.04065e-09
-3.52585e-09
0.000230078
-3.2448e-08
-0.000194369
-2.39974e-09
1.44096e-08
-3.0782e-09
0.000194351
-5.97086e-08
-1.87085e-09
-0.000230099
3.7536e-09
2.09623e-08
3.92098e-09
-3.7578e-10
1.2512e-07
0.000250638
-8.00774e-09
-1.78268e-07
1.21442e-06
-2.13017e-07
2.29016e-07
8.91585e-07
-1.7086e-07
2.37549e-07
-8.18522e-07
0.000246239
-1.06496e-07
-0.00024617
-9.70483e-09
-0.00115066
5.15417e-08
0.00115066
-2.1558e-07
-9.03988e-07
8.12007e-07
-7.20196e-07
9.91157e-07
3.23006e-09
6.21579e-08
0.00024615
4.32601e-08
-1.97531e-07
9.89722e-07
-7.24777e-07
-9.05602e-07
8.07649e-07
2.75355e-10
0.000250787
-0.000250657
4.22284e-10
-1.90372e-07
1.65983e-08
-5.72692e-09
-5.37471e-10
0.000230042
-3.20164e-08
4.74188e-09
0.00019433
-0.000194303
2.32491e-10
1.86108e-08
-2.91231e-09
-1.86153e-09
0.000194288
-5.66096e-08
0.000230094
-0.000230062
2.26705e-08
2.39659e-10
1.23238e-07
3.83253e-09
0.000250614
-9.31125e-08
-1.21136e-06
-1.77791e-07
8.90018e-07
-1.77668e-07
-8.25067e-07
2.35935e-07
1.27004e-06
-2.01666e-07
2.52144e-07
-0.00115066
0.00115065
-2.11704e-07
-9.05727e-07
8.10532e-07
-7.21636e-07
9.8942e-07
1.64707e-08
0.000246169
-1.03674e-07
-0.000246103
-1.03269e-08
-2.07201e-07
9.88883e-07
-7.25422e-07
-9.06389e-07
8.06944e-07
-7.36467e-09
2.39178e-12
6.83529e-08
0.000246082
0.00025076
-0.000250634
-1.8663e-07
4.24541e-09
6.02342e-09
0.0002301
-0.000230069
-2.76925e-09
2.10009e-08
8.67006e-10
0.000194324
9.83615e-09
0.000230049
-7.15199e-09
-2.22832e-09
0.000194375
-1.25242e-10
-0.000194347
5.29656e-08
0.000250724
-0.000250599
-1.83096e-07
1.66768e-08
0.00115057
-1.45808e-07
9.81065e-07
-7.27652e-07
8.037e-07
-9.07647e-07
-1.69829e-08
6.72133e-08
-1.27547e-08
0.000246084
-5.99816e-08
0.00113062
-8.88665e-08
-1.21053e-06
2.4849e-07
-1.99519e-07
-8.3292e-07
2.24253e-07
-1.88229e-07
8.75104e-07
-1.58048e-08
0.000250584
1.23191e-07
1.44701e-08
0.0011505
-1.51987e-07
-9.07163e-07
7.98241e-07
-7.24416e-07
9.75751e-07
3.05719e-08
0.000246167
-2.12446e-08
-0.000246103
-9.73067e-08
0.00023006
-0.000230029
2.05143e-08
7.84184e-09
5.79352e-10
-8.74321e-09
0.000194281
0.00023001
-2.64923e-09
1.06827e-08
0.000194326
7.50586e-09
-3.7179e-09
-0.0001943
-1.36084e-08
1.49066e-08
-8.6161e-09
1.25962e-07
0.000250637
-1.49096e-08
-1.24906e-07
1.21977e-06
-2.10924e-07
2.30392e-07
8.8875e-07
-1.78294e-07
-8.25148e-07
2.34024e-07
0.00113166
-0.00115059
7.48419e-08
-1.44423e-07
-9.11907e-07
7.99873e-07
9.82018e-07
-7.28365e-07
-1.53191e-08
0.00115053
-1.38843e-08
3.64937e-09
6.5429e-08
0.00024619
4.83015e-08
-1.54624e-07
9.85333e-07
-7.25388e-07
-9.08511e-07
8.02819e-07
5.15185e-08
6.90627e-09
-0.000250649
-5.46381e-09
-1.84526e-07
0.00025078
4.93033e-09
-1.57623e-09
-3.5681e-09
0.000230086
-4.51808e-09
0.000194366
1.28684e-10
-0.000230103
2.01487e-09
1.92335e-08
0.000230133
-1.56807e-08
1.26965e-07
1.53733e-08
0.000250613
-9.27827e-08
-1.204e-06
-7.71403e-08
8.72586e-07
-1.90719e-07
-8.35899e-07
2.22146e-07
1.26568e-06
-1.96234e-07
2.51442e-07
-0.00115046
0.00115041
-1.25444e-07
-9.14959e-07
7.95386e-07
-7.32905e-07
9.73824e-07
3.1413e-08
1.69978e-08
0.000246199
-9.48856e-08
-0.000246139
-1.42007e-08
-1.32624e-07
9.7588e-07
-7.30189e-07
-9.12633e-07
7.97961e-07
-1.73215e-08
2.35569e-10
-1.07636e-08
7.21297e-08
0.000246123
5.02232e-08
0.00025075
-0.000250625
-1.79034e-07
1.13731e-08
-4.04021e-09
5.94228e-09
0.000230047
3.21929e-09
0.000194356
-0.000194331
2.86072e-09
-7.97093e-10
-6.0195e-09
0.000194316
0.000230093
-0.000230064
1.89025e-08
1.95285e-09
1.33436e-08
0.000279022
0.000270235
-0.000268215
2.34543e-07
2.40823e-07
0.000279072
6.96208e-09
-0.000279043
-3.38243e-08
1.20195e-08
0.000279197
3.16087e-09
-0.000279163
-3.82315e-08
9.84032e-05
-2.61158e-09
-9.83885e-05
-1.1097e-08
-9.83839e-05
9.00283e-09
9.83777e-05
1.17586e-06
0.000268228
-1.884e-07
-1.91299e-07
0.000279121
-3.45143e-08
-0.000279089
7.66751e-09
1.22082e-08
-1.01619e-08
0.00027924
-4.01291e-08
-0.000279206
3.81313e-09
-5.18037e-09
1.34232e-08
0.000279066
-4.63394e-09
1.22051e-08
-8.31873e-09
1.34507e-08
0.000279184
-3.05546e-09
9.84141e-05
-9.83989e-05
5.08563e-09
9.83935e-05
5.17561e-08
0.000250716
-0.000250585
-1.85269e-07
2.71403e-09
0.00115037
-1.13947e-07
9.78598e-07
-7.29488e-07
7.99511e-07
-9.13128e-07
-1.47688e-08
7.06681e-08
2.94401e-09
0.000246049
9.50884e-10
0.00113158
-1.14481e-07
-1.18725e-06
2.23828e-07
-2.16993e-07
-8.25229e-07
2.32968e-07
-1.80168e-07
8.83581e-07
-1.87169e-08
0.000250567
1.29345e-07
3.56032e-09
0.00115031
-1.3828e-07
-9.08749e-07
7.98179e-07
-7.27972e-07
9.77262e-07
3.25004e-08
0.000246135
-7.71895e-09
-0.000246068
-1.03583e-07
2.84675e-09
0.000230093
-0.000230061
-2.45208e-09
1.93812e-08
0.000194357
4.38186e-09
-0.000194331
0.000230055
-0.000230026
3.27842e-09
2.1857e-08
-3.24123e-09
-1.98708e-09
0.000194277
0.000230004
3.86491e-09
-4.34974e-09
0.000194321
7.17403e-09
-1.04522e-09
-0.000194294
1.63111e-09
-1.58798e-08
1.28274e-07
8.48702e-10
0.000250632
-9.74305e-08
-1.62264e-07
1.23063e-06
-2.01463e-07
2.46238e-07
8.84488e-07
-1.74768e-07
-8.20146e-07
2.33894e-07
-0.00115042
-5.65037e-08
-1.89951e-07
-9.04505e-07
8.05272e-07
9.85407e-07
-7.24201e-07
3.36374e-08
-1.06707e-07
-0.0002462
-2.97449e-09
-5.52472e-08
-1.75597e-07
9.83312e-07
-7.26114e-07
-9.06562e-07
8.03207e-07
-1.52033e-08
4.77287e-09
6.71827e-08
0.000246179
3.52205e-09
5.55275e-08
-0.000250654
-1.87532e-07
-3.35307e-09
-1.58674e-08
1.28259e-07
1.11125e-09
0.000250604
1.24913e-08
-1.18539e-06
-1.4433e-07
8.84513e-07
-1.79415e-07
-8.24157e-07
2.33369e-07
1.19796e-06
-2.14422e-07
2.21902e-07
-0.00115028
0.00115026
-1.80225e-07
-9.03647e-07
8.01229e-07
-7.22296e-07
9.79476e-07
2.95379e-08
1.7922e-08
0.000246169
-9.82365e-08
-0.000246105
-1.36398e-08
-1.62695e-07
9.78559e-07
-7.23677e-07
-9.04589e-07
7.99763e-07
-1.58939e-08
-4.73884e-09
8.582e-10
6.82286e-08
0.000246087
5.4681e-08
0.000250754
-0.000250626
-1.86398e-07
6.81475e-09
3.39684e-09
-2.93919e-09
-4.6479e-09
0.000230082
0.000194389
-0.000194362
3.48929e-09
9.82815e-10
0.000194346
5.26836e-09
0.000230133
-0.000230099
-3.70183e-09
1.97992e-08
3.44963e-09
-6.30098e-09
0.000230046
9.37389e-09
0.000194347
-0.000194323
-4.19422e-09
6.15481e-10
-5.65982e-09
0.00019431
0.000230094
-0.000230062
6.53624e-09
2.21191e-08
9.8382e-05
9.84083e-05
-9.83914e-05
9.83751e-05
9.83999e-05
-9.83834e-05
0.000268184
-2.00487e-07
-1.93336e-07
1.26663e-08
-3.4598e-08
-0.000279189
5.15363e-09
6.64035e-09
-3.32493e-08
-0.000279099
1.24548e-08
-6.94419e-09
2.48547e-10
1.95904e-08
0.000279169
-8.75732e-09
-5.51493e-10
1.5615e-08
0.000279078
9.8425e-05
-9.84091e-05
9.84006e-05
9.84157e-05
-9.83996e-05
9.83917e-05
2.52699e-09
9.84287e-05
9.02671e-09
9.84115e-05
9.53837e-09
1.09215e-08
-7.44592e-09
0.000279242
2.50389e-10
1.58611e-08
1.83786e-09
0.000279161
6.63412e-08
7.58881e-10
0.000246223
6.64058e-08
-2.52138e-09
0.000246191
6.30149e-08
-2.23803e-07
9.90719e-07
-7.22807e-07
-9.04002e-07
8.09095e-07
0.00115065
3.06611e-09
0.000250677
1.68319e-09
1.23999e-07
1.55012e-08
-3.5896e-09
0.000194321
1.58657e-08
0.000230082
-5.36787e-09
-1.55603e-10
-2.20286e-07
9.89313e-07
-7.24504e-07
-9.05979e-07
8.07643e-07
0.00115066
-6.07196e-09
6.80357e-08
-1.06034e-09
0.000246123
0.000250653
1.22574e-07
3.45349e-09
-1.21199e-07
9.73463e-07
-7.31559e-07
7.94267e-07
-9.13092e-07
-9.57035e-08
0.00115036
-1.58011e-08
7.07202e-08
-2.23217e-09
0.000246155
-1.81192e-08
0.000250634
1.30297e-07
9.82051e-09
-5.96869e-09
-6.09123e-09
1.83821e-09
0.000194344
0.00023008
-5.36626e-09
-1.67813e-10
1.20743e-09
1.24795e-08
-4.57655e-09
0.000279113
-4.84958e-09
1.13114e-08
-6.64412e-09
0.000279228
3.7884e-09
9.84055e-05
-2.00381e-07
9.80094e-07
-7.21311e-07
8.02172e-07
-9.0315e-07
0.00115026
-1.85329e-08
6.92858e-08
-6.29562e-09
0.000246124
-1.79221e-08
0.000250644
1.27443e-07
7.20906e-09
-8.01896e-10
0.000194379
5.9031e-09
0.000230119
-4.17377e-09
-4.09e-09
8.77352e-10
-7.00869e-09
0.000194335
0.000230081
6.85953e-09
-5.99921e-09
9.84161e-05
9.84069e-05
-3.90559e-09
4.36543e-09
0.000143959
-0.000143963
3.67018e-09
-2.63121e-09
7.94141e-09
-0.000230081
-6.1002e-09
1.5249e-08
-0.000171768
1.67961e-09
-2.24656e-09
0.00017179
-0.000224127
2.00334e-08
7.91113e-09
0.000224163
-5.74234e-08
-0.000171772
-3.15274e-09
-0.000224143
7.57957e-09
2.15054e-08
2.43319e-09
0.000143979
-7.95907e-05
-1.23415e-08
-3.60962e-09
7.96067e-05
-1.23091e-08
0.000264179
-8.99607e-09
2.61419e-08
-5.08085e-09
0.000194363
7.97053e-09
-3.03737e-08
-4.56833e-09
-1.00827e-08
0.000264218
-4.59652e-08
-0.000143944
-3.22638e-09
-1.99922e-08
2.15918e-08
9.24359e-09
-7.0374e-09
-5.7649e-08
4.94445e-09
0.000171749
-4.05048e-09
-4.43045e-09
0.000224107
2.16364e-08
-3.76712e-09
-5.71538e-08
1.14362e-08
7.95989e-05
-0.000264204
1.33796e-08
0.000264243
-4.66844e-08
-6.95764e-09
-8.59938e-10
1.69774e-08
2.57342e-08
7.96147e-05
9.83892e-05
-6.81431e-09
-1.29946e-08
-2.78074e-10
9.00589e-09
5.28642e-09
-2.39547e-09
0.000143951
-0.000143956
2.36113e-09
1.98069e-09
-3.74871e-09
-0.000230073
-1.65004e-09
1.71146e-08
-0.00022412
1.92393e-08
3.54878e-09
0.000224155
-5.54831e-08
-0.000171757
7.83142e-10
-9.71216e-10
0.000171778
-0.000224133
1.90929e-09
1.87465e-08
-0.000171762
-1.47543e-09
1.5679e-09
0.000143969
-1.37605e-08
-2.04384e-09
7.96068e-05
-7.9591e-05
1.27653e-09
0.000194342
4.42197e-09
-3.32062e-08
-0.000194315
-3.56367e-09
0.000264216
-4.66826e-08
-0.000264178
-1.89316e-08
-1.53149e-09
-0.000143937
2.74036e-09
2.02278e-08
-2.07487e-09
-5.51729e-08
-0.000230039
-5.46018e-08
-0.000224098
-1.96097e-09
-0.000171741
1.03782e-08
7.95988e-05
-0.000264206
1.39452e-08
0.000264244
-4.75721e-08
-2.15906e-09
-3.0307e-09
1.43974e-08
1.99345e-08
7.96143e-05
9.83847e-05
-4.41755e-09
-1.25774e-08
3.1322e-09
9.11872e-09
-3.35315e-09
-3.40146e-09
0.000214457
-0.000214461
3.05216e-09
7.86522e-09
-8.08467e-05
-6.2758e-09
-7.50164e-09
8.08605e-05
-8.08305e-05
-5.5185e-09
-8.02668e-09
8.08441e-05
-8.08512e-05
1.08955e-09
-8.08356e-05
1.71687e-09
-1.83067e-08
-1.45732e-08
0.000214478
-0.000222523
-3.83015e-08
2.08017e-08
1.94664e-08
0.000222561
-4.04602e-08
6.25848e-10
0.000251253
4.56483e-08
5.58101e-09
8.1228e-09
0.000183678
-1.20809e-09
-3.2614e-08
1.60998e-08
0.000279159
8.98868e-09
-2.53033e-08
-2.0653e-10
2.74138e-08
0.000251306
-7.28715e-08
-5.04435e-08
7.87283e-09
0.000183707
-0.000222464
-2.11663e-08
2.13469e-08
1.3985e-08
0.000222497
-4.6489e-08
-2.02789e-08
0.000251133
4.90834e-08
2.6148e-08
7.85117e-09
0.000183629
-4.62975e-09
-3.55881e-08
7.34004e-09
0.00027907
1.13447e-08
-1.0998e-08
-1.2195e-08
2.0564e-08
0.000251185
-7.68993e-08
-3.1876e-08
6.61794e-09
0.000183651
-0.00021444
6.15233e-09
6.89003e-09
3.38925e-09
8.08372e-05
2.41067e-09
8.08221e-05
1.53083e-09
-1.00396e-08
0.000222544
2.88907e-08
-0.0001837
-2.07325e-08
0.000183726
1.95721e-08
2.04838e-09
-7.77445e-09
-2.12576e-09
-0.000251267
3.29999e-08
0.000251321
-7.09871e-08
-4.85254e-08
5.31223e-08
6.58715e-09
0.000222578
-3.95904e-08
1.38427e-08
-7.80377e-09
0.000222481
1.77601e-08
-0.000183641
-2.23083e-08
0.000183665
1.41489e-08
-3.30232e-09
-6.46583e-09
6.7575e-09
-0.000251148
2.12106e-08
0.000251198
-7.93329e-08
-2.8015e-08
4.07104e-08
2.36279e-08
0.000222511
-4.59348e-08
-7.96209e-05
-1.64025e-08
1.37605e-09
7.96359e-05
-8.17942e-09
0.00026428
-0.000264295
2.28027e-08
1.3348e-09
5.89392e-09
1.92681e-09
-3.44901e-08
0.000194437
-7.96293e-05
2.92108e-10
-4.94283e-08
1.23453e-09
0.000264318
-7.96195e-05
-1.45209e-08
-7.83816e-10
7.96348e-05
-9.9702e-09
0.000264287
-5.05819e-09
-0.000264299
2.00966e-08
-3.80603e-09
9.40185e-09
-3.15561e-08
0.000194411
-1.57381e-09
-7.96279e-05
-7.24621e-09
-4.65205e-08
0.000264322
-0.000143987
-2.0208e-08
1.99549e-09
0.000144004
5.10649e-09
2.12799e-08
-2.4414e-09
-5.73542e-08
0.000230152
-4.3602e-09
0.00022418
-0.000224197
2.04895e-08
-2.03696e-10
0.000171804
-0.000171809
2.35168e-09
-0.000143993
-5.79849e-08
0.000224216
2.8436e-09
0.000171825
-5.18588e-09
-1.1676e-08
9.84087e-05
-0.0002226
-2.54715e-08
2.65421e-08
1.34569e-08
-4.80838e-08
0.000222634
-7.39734e-09
0.000251313
-0.000251353
4.92274e-08
1.40393e-08
9.05019e-09
0.000183748
-6.17724e-09
-0.000183759
-3.79273e-08
-2.36205e-11
1.5224e-08
-1.14393e-08
0.000279245
-8.11692e-09
-0.000222613
2.30607e-08
-7.87475e-08
-4.35095e-08
0.000251372
1.97979e-09
0.000183772
-0.000222532
-3.18743e-08
1.80898e-08
2.15386e-08
-4.12405e-08
0.000222565
-5.13652e-09
0.000251201
-0.000251232
4.31563e-08
1.21154e-08
1.24975e-08
0.000183681
-1.41741e-09
-0.000183692
-3.2405e-08
1.0876e-08
8.18093e-09
-1.98497e-08
0.000279155
-1.64577e-09
-0.000222545
2.21613e-08
-7.60748e-08
-4.0964e-08
0.000251254
6.72822e-09
0.000183704
-0.000214516
1.06247e-08
4.42257e-09