/*--------------------------------*- C++ -*----------------------------------*\
| =========                 |                                                 |
| \\      /  F ield         | OpenFOAM: The Open Source CFD Toolbox           |
|  \\    /   O peration     | Version:  v2006                                 |
|   \\  /    A nd           | Website:  www.openfoam.com                      |
|    \\/     M anipulation  |                                                 |
\*---------------------------------------------------------------------------*/
FoamFile
{
    version     2.0;
    format      ascii;
    class       volVectorField;
    location    "625";
    object      U;
}
// * * * * * * * * * * * * * * * * * * * * * * * * * * * * * * * * * * * * * //

dimensions      [0 1 -1 0 0 0 0];


internalField   nonuniform List<vector> 
14374
(
(-3.90534e-05 3.50581e-05 0.107442)
(-1.79597e-05 7.4281e-05 0.10743)
(-6.20292e-05 6.14606e-05 0.104467)
(-3.31712e-05 4.35551e-05 0.107449)
(-3.7323e-05 5.67167e-05 0.107407)
(2.30312e-06 9.44023e-05 0.104438)
(-4.55975e-05 5.23708e-05 0.111931)
(-2.15696e-05 6.41369e-05 0.111909)
(1.38617e-05 -7.32509e-06 0.0828871)
(-2.27569e-06 -1.22213e-05 0.0935806)
(-2.06314e-06 5.47436e-06 0.0935585)
(-7.77101e-07 -1.16311e-05 0.0829002)
(1.10224e-05 -8.21554e-06 0.0720494)
(-1.62916e-06 -9.4203e-06 0.088144)
(7.62699e-06 4.33287e-06 0.0881415)
(1.06286e-05 -1.26832e-05 0.0720475)
(-3.6837e-05 4.62516e-05 0.109654)
(8.70625e-06 3.82709e-06 0.0935815)
(-8.29999e-06 2.18076e-05 0.0989784)
(-3.73805e-05 4.94975e-05 0.109636)
(-6.77291e-06 5.98417e-06 0.0935727)
(-1.28401e-05 2.35751e-05 0.098977)
(6.44504e-06 -1.29447e-05 0.0828773)
(1.24904e-06 8.97127e-06 0.0919313)
(1.1223e-05 -1.62463e-05 0.0829)
(-4.10859e-06 9.72214e-06 0.0919336)
(4.36822e-06 -9.10775e-06 0.0881516)
(2.55967e-06 -3.07509e-06 0.0881312)
(-2.00436e-06 -1.92975e-05 0.0721074)
(6.03381e-06 -1.90646e-05 0.0720845)
(1.03606e-05 -6.17466e-06 0.0825486)
(3.36633e-06 -6.42118e-06 0.082555)
(-3.52094e-06 -2.14867e-06 0.0718185)
(5.25319e-06 -1.07388e-05 0.0921429)
(-1.29076e-05 2.60359e-06 0.0967757)
(-7.97832e-07 -5.53675e-06 0.0879845)
(2.17957e-05 -1.55853e-05 0.0821278)
(2.78492e-06 -4.33351e-06 0.0966968)
(1.07172e-05 -1.42832e-05 0.0818731)
(-3.63986e-06 -5.47569e-06 0.0922144)
(1.30133e-05 -4.02989e-06 0.0921399)
(-6.49753e-06 1.09803e-05 0.0967756)
(7.0979e-06 4.2864e-06 0.0879783)
(1.73684e-05 -1.28962e-05 0.0821151)
(1.91888e-05 -7.13849e-07 0.0818489)
(1.56757e-06 -5.32521e-06 0.0966948)
(7.3455e-06 6.54632e-06 0.0922142)
(-1.23655e-06 1.19723e-05 0.0840926)
(3.71937e-06 -1.04959e-06 0.0686541)
(9.63708e-06 1.29752e-06 0.0686654)
(4.92044e-06 -2.85105e-06 0.0686007)
(1.44622e-05 4.01155e-06 0.0686081)
(-8.93593e-06 1.92502e-05 0.0841001)
(6.73041e-06 4.2704e-06 0.0718178)
(-9.13978e-06 9.81035e-06 0.0685283)
(8.21807e-06 -7.38031e-06 0.0825378)
(9.94509e-06 3.22269e-06 0.0864543)
(-2.30628e-06 2.73577e-06 0.0862485)
(2.56087e-05 -1.72448e-05 0.0690883)
(1.23526e-05 4.04047e-06 0.0772996)
(-5.03298e-06 -5.09117e-06 0.0918773)
(2.42298e-06 5.73685e-06 0.0904655)
(1.01898e-05 5.31631e-06 0.0791478)
(-2.77241e-06 -1.2234e-06 0.0903935)
(1.997e-06 -1.11556e-05 0.0791366)
(7.31135e-06 -1.05837e-05 0.0774008)
(1.71745e-05 9.40741e-06 0.0685416)
(5.99484e-06 -8.43708e-06 0.08256)
(-1.99321e-06 -1.20898e-06 0.08646)
(5.10579e-06 8.30746e-07 0.0862637)
(-1.23039e-05 -1.8581e-05 0.0691022)
(-7.6874e-06 5.78673e-06 0.0773076)
(-3.5119e-06 -3.89023e-06 0.091879)
(-4.17297e-06 6.40546e-06 0.0904701)
(-1.1746e-06 6.02431e-06 0.0791529)
(-5.34242e-06 1.61858e-06 0.0904013)
(1.98603e-06 -1.0232e-05 0.0791397)
(3.7916e-06 -9.82924e-06 0.0774114)
(-1.24598e-05 7.22627e-06 0.0921292)
(-1.70363e-06 2.68159e-05 0.096752)
(2.18539e-06 1.49256e-06 0.0879955)
(-5.87288e-06 -1.57239e-05 0.0821807)
(1.41144e-06 7.30267e-06 0.0922012)
(-2.07085e-05 2.3477e-05 0.0966855)
(6.07048e-06 -8.36187e-06 0.0819127)
(-1.43654e-05 2.08109e-06 0.0921089)
(-8.95097e-06 1.77993e-05 0.0967428)
(-3.49878e-07 1.48948e-06 0.0879711)
(7.21161e-07 -1.73561e-05 0.0821396)
(-2.624e-06 6.57231e-06 0.0921824)
(-2.40646e-05 6.20995e-06 0.0966704)
(-3.24496e-07 -5.55984e-07 0.0818673)
(1.84529e-06 -1.34703e-06 0.0840856)
(2.45458e-06 -8.92353e-06 0.0687369)
(3.32693e-06 -6.19537e-06 0.068727)
(1.41385e-05 2.55992e-06 0.0841034)
(2.15344e-06 -7.62261e-06 0.0686749)
(-8.45787e-07 -2.31824e-06 0.0686609)
(1.33781e-05 -9.94639e-06 0.0718661)
(7.73478e-06 -1.14261e-06 0.071848)
(-7.75591e-08 -1.49405e-06 0.0979437)
(6.54467e-06 -6.08273e-06 0.104346)
(-2.89413e-05 5.08113e-05 0.101797)
(-5.30073e-05 2.68401e-05 0.101799)
(-9.7936e-06 -1.49546e-05 0.101713)
(1.3798e-05 7.8708e-06 0.101715)
(-1.48877e-05 1.37053e-05 0.0980162)
(-3.0427e-05 2.1388e-05 0.0979181)
(-6.37365e-05 2.20006e-05 0.104327)
(-1.25357e-05 8.2876e-05 0.101774)
(5.8499e-06 4.97624e-05 0.101761)
(-9.78612e-06 3.56518e-05 0.097982)
(-3.32143e-05 1.41314e-05 0.101703)
(-6.32377e-05 2.96875e-05 0.101689)
(-4.01437e-05 4.97038e-05 0.114129)
(-2.89102e-05 4.94904e-05 0.11412)
(-5.11143e-05 6.92125e-06 0.0999518)
(8.96225e-06 -1.20838e-05 0.0934447)
(2.61741e-05 5.002e-06 0.0998603)
(2.24045e-05 4.08886e-05 0.099931)
(-1.40529e-05 1.41957e-05 0.0934344)
(-5.44056e-05 4.02501e-05 0.0998583)
(-1.40456e-05 -2.04282e-05 0.101607)
(-1.21608e-05 5.14622e-05 0.099957)
(1.00721e-05 -7.66371e-06 0.0934441)
(3.75896e-06 1.08091e-05 0.0961505)
(-1.44513e-05 6.37063e-05 0.101727)
(-8.63427e-06 -2.66241e-05 0.0998637)
(1.14842e-07 -4.86916e-06 0.0960445)
(-1.98099e-05 -1.38486e-05 0.103083)
(-1.19847e-05 -6.72499e-07 0.0989151)
(-2.11923e-05 7.10332e-05 0.103803)
(-4.80884e-06 1.73789e-05 0.0980549)
(-1.84069e-05 6.92575e-05 0.103206)
(-2.26549e-05 -1.18151e-05 0.103703)
(-8.49154e-06 -1.80754e-06 0.0979774)
(-2.86757e-05 -1.02155e-05 0.101594)
(-1.81032e-05 5.98628e-05 0.0999347)
(-1.48773e-05 -3.86973e-07 0.0934408)
(-1.45141e-05 1.47644e-05 0.0961459)
(-1.72402e-05 2.46413e-06 0.0960456)
(-2.70284e-05 -1.50015e-05 0.0998498)
(-2.48558e-05 7.21924e-05 0.10171)
(-2.66867e-05 -8.13351e-06 0.103076)
(-1.43886e-05 1.56248e-06 0.098914)
(-2.4032e-05 7.37669e-05 0.103797)
(-1.49384e-05 2.13251e-05 0.0980526)
(-2.386e-05 -8.90359e-06 0.103698)
(-1.7162e-05 4.30031e-06 0.0979779)
(-2.61501e-05 7.38529e-05 0.103196)
(-9.99643e-06 -1.3963e-05 0.112179)
(1.51704e-05 -8.08875e-06 0.107454)
(-2.79549e-05 -2.57906e-05 0.104246)
(-1.95077e-05 -6.85936e-06 0.112146)
(-7.1467e-06 1.56502e-05 0.107454)
(-3.00776e-05 -2.27024e-05 0.104257)
(2.5027e-05 2.68182e-05 0.104252)
(-4.80421e-05 -3.88377e-05 0.104371)
(-8.05196e-06 -1.17921e-05 0.107443)
(7.25335e-06 -1.63551e-05 0.107454)
(-1.33953e-05 -8.60986e-06 0.107443)
(2.98532e-06 -1.00601e-05 0.107445)
(-2.41431e-05 2.41826e-05 0.104264)
(-1.18377e-05 -5.67384e-06 0.107443)
(-1.31409e-05 7.72868e-06 0.107441)
(-1.64849e-05 -1.2864e-06 0.107442)
(-1.43583e-05 1.07786e-05 0.107449)
(1.02918e-05 5.96254e-06 0.107434)
(6.47244e-06 1.26026e-05 0.10743)
(2.55449e-05 -2.51877e-05 0.104252)
(-4.38789e-05 4.60497e-05 0.104378)
(3.64782e-06 1.08173e-05 0.107433)
(-8.91806e-06 1.48828e-05 0.107449)
(7.11691e-07 1.3738e-05 0.107429)
(3.77447e-05 4.63933e-05 0.104359)
(2.21592e-05 2.99583e-05 0.104266)
(-1.17346e-05 -8.1919e-06 0.107444)
(-1.57717e-05 -1.65794e-06 0.107445)
(-1.37009e-05 1.11461e-05 0.107454)
(7.35322e-06 1.33139e-05 0.107432)
(2.60428e-05 -2.31308e-05 0.104274)
(3.25857e-06 1.41197e-05 0.107432)
(-2.18955e-06 -1.17252e-05 0.0916976)
(-1.51195e-06 5.42356e-06 0.0825213)
(-3.34825e-06 6.95808e-07 0.0916576)
(-1.7377e-06 -7.58936e-06 0.0825692)
(-4.85254e-07 2.75552e-06 0.0718059)
(4.15141e-06 -2.69114e-06 0.071858)
(-1.11467e-05 -6.2216e-07 0.091697)
(-7.38285e-06 -9.56103e-07 0.0825704)
(1.50207e-05 -1.92592e-05 0.112184)
(-1.54249e-05 1.14387e-05 0.112172)
(1.03206e-05 6.60127e-06 0.112172)
(-1.88574e-05 -8.41063e-06 0.112152)
(8.67919e-06 -9.79299e-06 0.112157)
(-1.82427e-05 1.71846e-05 0.112153)
(5.82649e-06 1.61502e-05 0.112134)
(2.14825e-05 4.91359e-06 0.0987754)
(-1.74999e-06 3.75188e-06 0.0932686)
(1.7445e-05 -5.84063e-06 0.109771)
(1.37181e-05 -5.18093e-06 0.107452)
(-2.30364e-07 4.49606e-06 0.0987209)
(1.64631e-05 -3.6784e-06 0.0933219)
(1.65087e-05 -1.68515e-06 0.109766)
(2.83804e-06 -1.26176e-06 0.0718102)
(-2.48133e-06 2.50068e-06 0.0718524)
(5.88863e-08 2.00029e-05 0.098773)
(-9.17067e-06 1.30482e-05 0.107442)
(-7.61867e-06 1.50615e-05 0.109758)
(-2.78087e-06 1.50561e-05 0.0933181)
(-2.08844e-06 3.98782e-07 0.0878381)
(-2.83163e-06 -8.25967e-07 0.0878366)
(3.82719e-05 4.51075e-05 0.104353)
(4.91861e-06 6.94855e-06 0.0878819)
(4.8486e-06 5.58463e-06 0.0878776)
(2.00625e-06 4.26061e-06 0.0825528)
(5.3475e-06 -8.14055e-07 0.0825524)
(8.42892e-07 -1.11731e-06 0.0916889)
(8.1632e-06 -6.91493e-06 0.112147)
(-1.7413e-05 1.83913e-05 0.112151)
(6.37333e-06 1.86537e-05 0.112128)
(2.79322e-06 -1.41508e-06 0.0718269)
(-5.33715e-06 1.82818e-05 0.109756)
(3.871e-06 -2.92146e-06 0.0932941)
(2.02455e-06 -1.63339e-06 0.0987461)
(-6.88412e-07 -3.27574e-06 0.0878657)
(-5.12364e-07 -2.78788e-06 0.087862)
(-8.05544e-08 3.03008e-06 0.0718127)
(-2.37987e-06 -3.10346e-06 0.0718584)
(-2.55158e-06 -2.7702e-06 0.0718555)
(-4.87398e-07 2.0173e-06 0.0878345)
(-4.74597e-05 -4.02492e-05 0.104364)
(-6.65885e-06 -5.9783e-06 0.0878794)
(-6.78832e-06 -4.1818e-06 0.0878752)
(-1.38445e-06 -3.58058e-06 0.0718707)
(1.80571e-06 2.31263e-06 0.0718253)
(-2.2885e-06 -4.13555e-06 0.0718668)
(3.13442e-06 7.22686e-07 0.071822)
(2.11505e-05 2.94677e-05 0.104259)
(-4.54135e-06 -7.09685e-06 0.0878955)
(-5.6129e-06 -6.18953e-06 0.0878911)
(9.05164e-07 6.97531e-07 0.0878521)
(4.30667e-07 2.53787e-06 0.0878473)
(-1.28744e-06 -1.21776e-05 0.0916988)
(-6.32083e-07 4.83532e-06 0.0825222)
(-2.46194e-06 1.44406e-07 0.0916588)
(2.70753e-06 -7.38112e-06 0.0825721)
(-5.05175e-06 -2.12723e-05 0.0987771)
(-2.78109e-06 5.64618e-06 0.0932633)
(-3.12153e-06 -1.71116e-05 0.109771)
(-1.13325e-05 -1.08718e-05 0.107443)
(-4.52495e-06 1.02194e-06 0.0987214)
(-8.18701e-06 -1.42616e-05 0.0933188)
(-7.04183e-06 -1.66826e-05 0.109767)
(-3.5457e-06 -2.23387e-05 0.0987785)
(-2.29953e-06 2.03363e-06 0.0932682)
(3.32058e-06 -1.92276e-05 0.109774)
(5.0231e-06 -1.49388e-05 0.107452)
(-3.21419e-06 -3.61674e-08 0.098723)
(5.62831e-06 -1.62372e-05 0.0933225)
(-2.77848e-07 -1.87169e-05 0.109771)
(-1.54438e-06 7.46644e-07 0.091673)
(6.79849e-08 -8.17096e-06 0.0825859)
(5.43708e-07 4.66071e-06 0.0825368)
(8.46231e-07 -1.13079e-05 0.0917121)
(-5.58494e-07 4.12354e-07 0.091674)
(3.29083e-06 -7.41314e-06 0.0825879)
(1.46525e-06 5.01364e-06 0.082538)
(1.57631e-06 -1.11798e-05 0.0917122)
(-4.58399e-06 1.41211e-06 0.0987336)
(-1.33762e-05 -9.80116e-06 0.107444)
(-4.88815e-06 -1.54024e-05 0.0933341)
(-1.09983e-05 -1.41113e-05 0.109761)
(-1.52485e-06 4.8142e-06 0.0932793)
(-9.95521e-06 -1.57348e-05 0.109765)
(-1.81382e-06 -2.02596e-05 0.0987873)
(-2.98219e-06 5.35881e-07 0.0987348)
(3.41205e-06 -1.26833e-05 0.10745)
(8.11536e-06 -1.35815e-05 0.0933331)
(-3.83884e-06 -1.49698e-05 0.109762)
(4.5781e-07 3.75123e-06 0.0932813)
(-2.95024e-06 -1.72317e-05 0.109769)
(-2.9024e-07 -2.03326e-05 0.0987876)
(-1.63452e-06 -1.51061e-07 0.0878332)
(7.59831e-07 2.77438e-06 0.0878375)
(4.31106e-05 -4.25336e-05 0.104373)
(6.84877e-06 -5.73379e-06 0.0878793)
(6.50877e-06 -5.20288e-06 0.0878798)
(-2.45633e-06 1.57709e-06 0.071809)
(3.17143e-06 -3.10958e-06 0.071857)
(6.57938e-07 2.65033e-06 0.0718223)
(-2.69016e-05 2.7834e-05 0.104266)
(2.46787e-07 1.70622e-06 0.0878487)
(-9.2413e-07 1.63645e-06 0.0878521)
(-2.3914e-06 4.73307e-07 0.0718253)
(-2.09364e-05 4.00339e-07 0.0987747)
(-1.45355e-05 -2.63478e-06 0.109767)
(-1.39028e-05 -3.8437e-06 0.107441)
(-1.58774e-05 -3.20938e-06 0.093318)
(-1.6184e-05 -1.00316e-06 0.109762)
(-1.10834e-05 -4.11663e-07 0.0916969)
(4.63398e-06 -1.0871e-06 0.0825217)
(1.57976e-06 -6.64935e-07 0.0916556)
(-7.15573e-06 1.02752e-06 0.0825666)
(-2.07672e-05 1.00678e-06 0.0987748)
(-1.54702e-05 4.06052e-06 0.109766)
(4.47182e-06 -1.91575e-06 0.0932625)
(-1.39092e-05 8.85211e-06 0.107442)
(2.26139e-06 3.86581e-07 0.0987181)
(-1.67845e-05 5.58405e-06 0.109762)
(-1.47632e-05 4.40455e-06 0.0933179)
(1.17806e-06 -6.52215e-07 0.0916724)
(-7.07717e-06 -2.18768e-06 0.0825858)
(5.2028e-06 5.53207e-07 0.0825379)
(-1.14836e-05 -9.05643e-07 0.0917136)
(1.33427e-06 5.61748e-07 0.0987321)
(-1.57786e-05 -2.25054e-06 0.107442)
(-1.55779e-05 -5.16565e-06 0.0933354)
(-1.89633e-05 2.29392e-06 0.109758)
(3.42222e-06 2.59316e-06 0.0932789)
(-1.7965e-05 8.28959e-07 0.10976)
(-2.15244e-05 4.16225e-07 0.0987903)
(1.19254e-06 -2.81058e-07 0.0916719)
(-7.04454e-06 1.36031e-06 0.0825793)
(5.41428e-06 -5.71357e-07 0.0825325)
(-1.13915e-05 -3.34984e-07 0.0917133)
(1.55315e-06 1.22788e-06 0.0987327)
(-1.44735e-05 9.99269e-06 0.107446)
(-1.84707e-05 8.22847e-06 0.10976)
(-1.50417e-05 5.04716e-06 0.0933338)
(-1.80135e-05 7.12513e-06 0.109762)
(4.64442e-06 -1.412e-06 0.0932778)
(-2.11683e-05 1.20641e-06 0.0987904)
(1.16745e-05 2.09911e-06 0.0916985)
(-4.76195e-06 1.39412e-06 0.0825234)
(-2.33483e-07 3.49302e-06 0.0916589)
(7.65051e-06 -1.67171e-06 0.0825731)
(2.0292e-05 6.13067e-06 0.0987738)
(1.55224e-05 4.19391e-07 0.109763)
(-5.60154e-06 3.06649e-06 0.0932653)
(8.48259e-06 8.60525e-06 0.107431)
(-1.36198e-06 5.61834e-06 0.0987193)
(1.44707e-05 4.38307e-06 0.109757)
(1.33822e-05 8.60523e-06 0.0933198)
(1.12013e-05 2.79439e-06 0.0916977)
(-4.81551e-06 1.24162e-06 0.0825263)
(-8.41244e-07 4.19429e-06 0.0916583)
(7.73689e-06 2.47695e-06 0.0825742)
(-1.45242e-06 4.59632e-06 0.0987324)
(1.20677e-05 -2.64394e-06 0.107449)
(1.39618e-05 4.70512e-06 0.109756)
(-3.46721e-06 1.82592e-06 0.0932817)
(1.52976e-05 1.99403e-06 0.109763)
(1.98138e-05 3.00916e-06 0.0987849)
(-1.01151e-06 1.47409e-06 0.0916742)
(-4.81332e-06 -2.3032e-07 0.0825406)
(1.05762e-05 -6.6397e-08 0.0917118)
(-2.5351e-06 5.871e-06 0.0987313)
(7.06065e-06 1.09638e-05 0.107431)
(1.20372e-05 1.09655e-05 0.109749)
(1.35975e-05 5.85336e-06 0.0933323)
(1.3238e-05 8.09291e-06 0.109754)
(-6.05357e-06 2.12471e-06 0.0932794)
(1.90601e-05 4.08929e-06 0.0987844)
(-1.41854e-06 2.26224e-06 0.0916737)
(8.0079e-06 4.17546e-07 0.0825873)
(-4.68584e-06 4.36199e-07 0.0825411)
(1.03701e-05 4.22778e-07 0.0917113)
(1.00895e-06 -2.62353e-06 0.0878306)
(-4.43799e-05 4.48327e-05 0.104365)
(-6.04865e-06 4.74194e-06 0.087873)
(-3.46809e-06 6.72586e-06 0.0878757)
(-1.63621e-06 2.80066e-06 0.071853)
(-2.69209e-06 2.31899e-06 0.0718612)
(3.07841e-06 -1.28674e-06 0.0718176)
(2.46948e-05 -2.40226e-05 0.104262)
(-6.57892e-06 5.34248e-06 0.0878875)
(-3.7821e-06 7.45198e-06 0.0878893)
(9.28242e-07 -2.14222e-06 0.0878444)
(3.58913e-06 -1.71451e-07 0.0878465)
(-1.92552e-06 2.54137e-06 0.071861)
(2.14473e-06 -2.81919e-06 0.0718183)
(5.06933e-07 2.00391e-05 0.0987727)
(-2.01068e-07 1.32936e-05 0.10976)
(-1.85729e-06 -4.47242e-06 0.0932647)
(1.51792e-06 1.19399e-05 0.107429)
(1.36432e-06 -2.61217e-06 0.098716)
(-1.75179e-06 1.44467e-05 0.109753)
(3.99838e-06 1.50037e-05 0.093319)
(1.04534e-06 1.05753e-05 0.0916969)
(-1.28191e-07 7.33434e-06 0.0825679)
(1.1647e-06 1.06132e-05 0.091698)
(-9.4497e-07 -4.49892e-06 0.0825281)
(1.58012e-06 -1.78041e-06 0.091657)
(1.81795e-06 7.60464e-06 0.0825751)
(5.83713e-08 -2.32667e-06 0.0987307)
(-9.60581e-06 1.40396e-05 0.107446)
(-7.57629e-06 1.74249e-05 0.109754)
(-2.28094e-06 1.61319e-05 0.0933343)
(-8.26772e-06 1.64048e-05 0.109757)
(3.31484e-06 -4.11524e-06 0.0932781)
(1.37886e-06 2.0702e-05 0.0987883)
(5.50111e-07 -2.33504e-06 0.0987303)
(2.96071e-07 1.30315e-05 0.107429)
(-2.28957e-06 1.68336e-05 0.109746)
(6.48035e-06 1.36342e-05 0.0933328)
(-2.75369e-06 1.57995e-05 0.10975)
(-1.60762e-06 -4.58577e-06 0.0932792)
(1.91531e-06 2.0306e-05 0.0987878)
(1.12689e-06 -1.74915e-06 0.0916724)
(-2.94435e-07 7.06629e-06 0.0825813)
(1.61537e-06 -5.19136e-06 0.0825339)
(1.82328e-06 1.10073e-05 0.091713)
(1.37082e-06 -1.73803e-06 0.0916727)
(2.84624e-06 6.92677e-06 0.0825872)
(5.5273e-07 -5.10616e-06 0.0825421)
(2.20425e-06 1.07653e-05 0.0917135)
(-2.65533e-06 -3.05465e-07 0.0718159)
(3.12084e-06 3.18347e-06 0.0718625)
(-1.4301e-06 -2.35881e-06 0.0718156)
(3.66554e-06 2.59899e-06 0.0718605)
(-3.11813e-05 -2.34311e-05 0.104249)
(5.86339e-06 4.62469e-06 0.0878952)
(6.44799e-06 4.23818e-06 0.0878905)
(-2.03137e-06 -5.26336e-07 0.0878526)
(-1.772e-06 -1.83618e-06 0.0878487)
(3.69584e-06 1.5507e-06 0.0718754)
(-2.3314e-06 -7.71897e-07 0.0718294)
(4.42326e-06 2.31115e-06 0.0718726)
(3.89521e-07 -3.17353e-06 0.0718274)
(2.39314e-06 1.93297e-06 0.0718369)
(3.156e-06 -6.441e-07 0.0718332)
(3.0168e-06 -1.17052e-07 0.087867)
(1.81241e-06 3.10161e-07 0.0878626)
(2.05431e-06 3.78541e-06 0.0932938)
(4.1622e-06 -1.44202e-08 0.0932955)
(-1.90834e-05 2.65562e-06 0.109758)
(1.0285e-06 3.61087e-08 0.0987479)
(5.33667e-06 -2.61837e-07 0.0825457)
(8.69603e-07 -3.50539e-07 0.0916881)
(-1.84125e-05 8.50949e-06 0.109762)
(4.12979e-06 -9.32555e-07 0.0932934)
(1.33035e-06 9.73771e-07 0.0987484)
(1.16966e-05 1.26356e-05 0.109746)
(-5.45207e-06 -1.1924e-06 0.0932915)
(-3.58167e-06 3.26897e-06 0.0987416)
(-4.31184e-06 -2.08396e-06 0.0825531)
(-2.18394e-06 -1.87841e-07 0.0916869)
(2.79745e-07 -1.65152e-06 0.087859)
(3.0858e-06 4.98567e-07 0.0878601)
(1.46784e-06 -3.14428e-06 0.0718263)
(5.41115e-08 1.76227e-05 0.109747)
(1.14442e-06 -6.07177e-06 0.0932931)
(2.70882e-06 -2.156e-06 0.0987453)
(1.14366e-06 -5.45353e-06 0.0825476)
(1.91631e-06 -1.29706e-06 0.0916883)
(9.11589e-07 -5.45893e-06 0.0825529)
(2.47108e-06 -1.56601e-06 0.0916878)
(-1.71309e-06 -2.90912e-06 0.0718409)
(2.55529e-07 -2.9989e-06 0.0718384)
(-2.21128e-06 1.6823e-06 0.0771804)
(-2.79395e-06 6.68444e-07 0.0916654)
(-8.07374e-07 -5.0857e-06 0.0789897)
(-3.04777e-06 -1.09583e-05 0.0902265)
(-1.4507e-06 1.42072e-06 0.0789619)
(-3.55039e-06 1.62425e-06 0.0901894)
(-5.23532e-07 -5.00607e-06 0.0772132)
(-1.22431e-06 -2.92508e-06 0.068716)
(-3.12809e-06 3.55483e-06 0.0861192)
(-2.80692e-06 -7.20449e-06 0.0825612)
(-2.88696e-06 2.80033e-06 0.0686713)
(-3.41214e-06 -7.38696e-06 0.0861621)
(-1.26404e-06 -5.11824e-06 0.0772049)
(-3.1401e-06 -1.17492e-05 0.0916899)
(-1.85813e-06 1.33578e-06 0.0789533)
(-4.0975e-06 1.76435e-06 0.0901815)
(-2.74137e-06 1.60221e-06 0.0771721)
(-1.46589e-06 -5.18102e-06 0.0789811)
(-3.97707e-06 -1.08062e-05 0.0902186)
(-2.44586e-06 2.71807e-06 0.0686783)
(-2.63179e-06 -7.68867e-06 0.0861704)
(-5.69017e-07 5.07739e-06 0.0825288)
(-2.53087e-06 3.29985e-06 0.0861271)
(-6.73329e-07 -3.01484e-06 0.0687231)
(3.53002e-06 -2.64515e-06 0.0718495)
(2.44401e-07 2.7686e-06 0.0718136)
(2.08274e-06 -1.48174e-06 0.0771783)
(1.3814e-06 -7.07928e-07 0.091664)
(-1.06602e-05 -9.84176e-07 0.0902263)
(-4.98833e-06 -3.00432e-07 0.0789866)
(1.91851e-06 -9.11948e-07 0.0901888)
(1.55125e-06 -7.84758e-07 0.078959)
(-4.7068e-06 -3.31878e-08 0.0772104)
(-2.91248e-06 -5.23249e-07 0.0687167)
(-7.5603e-06 -8.13045e-07 0.0825624)
(-7.86194e-06 -1.38864e-06 0.086162)
(-4.62658e-06 -4.1233e-07 0.0772033)
(-1.09311e-05 -7.68277e-07 0.0916887)
(-1.0504e-05 -1.0277e-06 0.0902176)
(-4.9823e-06 -7.44447e-07 0.0789792)
(2.76126e-06 -1.89672e-06 0.0686792)
(-7.91312e-06 -1.43471e-06 0.0861712)
(4.99975e-06 8.91079e-07 0.0825302)
(2.93954e-06 -8.45371e-07 0.0861283)
(-2.93642e-06 -3.49414e-07 0.0687234)
(-2.56282e-06 2.47262e-06 0.071849)
(3.0687e-06 -1.24309e-06 0.0718138)
(-1.6868e-06 -1.32917e-06 0.0838874)
(1.76135e-06 2.36868e-06 0.0686098)
(3.09434e-06 1.36465e-06 0.0686024)
(-9.90073e-07 -9.85203e-07 0.0685711)
(-7.07789e-07 -1.28232e-06 0.0685664)
(3.47132e-06 3.32964e-06 0.0839196)
(9.06609e-06 8.19345e-06 0.0919619)
(-7.0742e-06 9.75086e-07 0.0964905)
(-1.33029e-06 8.47938e-09 0.081836)
(4.91262e-06 7.38818e-06 0.0878746)
(-5.72022e-06 1.11754e-06 0.0919266)
(1.40304e-05 1.34043e-05 0.09653)
(5.06852e-06 3.82185e-06 0.0818724)
(4.65498e-06 1.16866e-05 0.0919557)
(-3.9119e-06 -4.5557e-06 0.0964867)
(-1.33809e-06 -1.08921e-06 0.0818337)
(4.25624e-06 6.11974e-06 0.0878715)
(-2.30747e-06 -3.14973e-06 0.0919218)
(7.83835e-06 1.69795e-05 0.096525)
(2.70321e-06 5.19056e-06 0.0818675)
(3.28804e-06 4.05269e-06 0.083913)
(-9.81745e-07 -9.27041e-07 0.0685633)
(-1.04124e-06 -1.00839e-06 0.0685595)
(-1.79048e-06 -8.02435e-07 0.0838813)
(1.79033e-06 2.60328e-06 0.0686015)
(2.71746e-06 1.74245e-06 0.0685951)
(-5.83932e-06 1.08298e-06 0.0919335)
(5.22259e-06 3.74249e-06 0.081881)
(-2.14539e-06 1.5868e-07 0.0878458)
(1.3674e-05 1.33487e-05 0.0965362)
(-7.6435e-06 1.20461e-06 0.096497)
(-1.17589e-06 1.73877e-07 0.0818445)
(9.08787e-06 7.9627e-06 0.0919687)
(-2.3126e-06 -3.39846e-06 0.0919277)
(3.49561e-06 4.73857e-06 0.0818739)
(-2.60101e-06 -1.12449e-06 0.0878427)
(7.56205e-06 1.67575e-05 0.096531)
(-4.61151e-06 -4.50358e-06 0.0964926)
(-6.05762e-07 -1.32681e-06 0.0818398)
(4.95765e-06 1.1167e-05 0.0919616)
(1.04916e-06 -3.34323e-06 0.0687422)
(2.15133e-07 2.54332e-06 0.086152)
(4.34628e-07 -8.12897e-06 0.0825936)
(-7.59699e-07 2.3799e-06 0.068697)
(1.4216e-07 -8.23603e-06 0.0861953)
(-3.30343e-06 8.03074e-08 0.0687416)
(2.98377e-06 -1.96685e-06 0.0861547)
(-7.21894e-06 -2.7647e-06 0.0825927)
(2.46929e-06 -1.62261e-06 0.0686967)
(-7.79275e-06 -2.62121e-06 0.0861973)
(-5.27172e-06 6.38985e-07 0.0772296)
(-1.16311e-05 -1.26878e-06 0.0917212)
(1.72366e-06 -2.18852e-06 0.0902141)
(1.46319e-06 8.74195e-07 0.0789808)
(1.61488e-06 -7.23659e-07 0.0771976)
(-1.07663e-05 -2.59544e-06 0.0902511)
(-5.11634e-06 1.3632e-06 0.0790084)
(-2.82613e-06 2.47927e-06 0.0718675)
(1.20747e-05 5.22531e-06 0.0919914)
(-5.88768e-06 -9.59128e-07 0.0965152)
(-3.02758e-07 -2.76486e-06 0.0818669)
(6.9017e-06 2.91396e-06 0.087902)
(-3.57762e-06 -1.1604e-06 0.0919551)
(1.64804e-05 1.0478e-05 0.0965551)
(6.19076e-06 2.90294e-07 0.0819026)
(8.26481e-06 8.37481e-06 0.0919834)
(-1.08922e-06 -6.55647e-06 0.0965122)
(-4.66691e-07 -2.67962e-06 0.0818577)
(6.53248e-06 4.39217e-06 0.0878981)
(6.80219e-07 -6.21884e-06 0.0919481)
(1.21857e-05 1.4519e-05 0.0965519)
(2.79791e-06 3.88869e-06 0.0818918)
(5.58207e-06 2.13372e-06 0.0839425)
(-7.90229e-07 -2.3082e-06 0.0685887)
(-6.99592e-07 -1.61373e-06 0.0685836)
(1.96551e-07 -3.03454e-06 0.0839095)
(1.98345e-06 1.11716e-06 0.0686254)
(2.56379e-06 1.484e-06 0.068618)
(-3.35877e-06 -2.73365e-06 0.0718519)
(8.95506e-07 2.66284e-06 0.0718193)
(-2.82287e-06 -2.46989e-06 0.0718498)
(2.89597e-06 1.19688e-06 0.0718168)
(3.25194e-07 1.02366e-06 0.0838892)
(-1.77529e-06 -1.89821e-06 0.068602)
(-1.52643e-06 -2.39731e-06 0.0685965)
(1.68474e-06 1.08537e-06 0.0685682)
(1.25425e-06 1.40206e-06 0.0685631)
(-4.51333e-06 -4.42691e-06 0.0839186)
(-8.73014e-06 -9.13986e-06 0.0919605)
(-1.48489e-06 6.92585e-06 0.0964914)
(4.87811e-07 2.12938e-06 0.081833)
(-7.37315e-06 -5.28616e-06 0.0878705)
(-1.57579e-06 5.84926e-06 0.0919263)
(-2.98692e-06 -4.45302e-06 0.0818674)
(-1.4174e-05 -1.44955e-05 0.0965308)
(-1.23739e-05 -4.57498e-06 0.0919547)
(3.87587e-06 3.73783e-06 0.0964858)
(-6.83923e-06 -3.84967e-06 0.087867)
(-4.93105e-06 -1.49808e-06 0.0818635)
(-1.79468e-05 -8.09824e-06 0.0965254)
(-4.91513e-06 -3.74987e-06 0.0839113)
(-2.10978e-06 -1.61685e-06 0.0685964)
(-1.61839e-06 -2.08619e-06 0.0685919)
(-1.54781e-06 5.62974e-06 0.0919348)
(-2.45141e-06 -5.02567e-06 0.0818754)
(8.70158e-09 1.44766e-06 0.0878434)
(-1.43331e-05 -1.47527e-05 0.0965387)
(1.00154e-06 1.63246e-06 0.081841)
(-8.38783e-06 -9.62243e-06 0.091969)
(-2.13345e-06 6.9209e-06 0.0964992)
(2.57209e-06 2.52595e-06 0.0919286)
(-4.57912e-06 -1.91443e-06 0.0818694)
(1.8887e-07 3.14131e-06 0.0878392)
(-1.82584e-05 -7.77216e-06 0.0965334)
(1.56658e-06 2.07646e-06 0.0818359)
(-1.21961e-05 -4.72023e-06 0.0919625)
(3.32779e-06 4.36435e-06 0.0964936)
(2.30193e-06 2.06805e-06 0.0718311)
(-1.65091e-06 -3.41504e-06 0.0718646)
(3.26536e-06 -1.2187e-08 0.0718273)
(-2.33823e-06 -3.39465e-06 0.071861)
(-3.7957e-06 -5.18486e-06 0.0839255)
(1.99614e-06 7.9886e-07 0.0685738)
(1.35202e-06 1.03519e-06 0.0685679)
(9.15144e-07 2.82383e-07 0.0838962)
(-1.52951e-06 -2.11007e-06 0.068608)
(-1.40096e-06 -2.76047e-06 0.0686019)
(2.77691e-07 3.82233e-06 0.0919504)
(-1.14609e-05 -1.62903e-05 0.0965528)
(1.99425e-06 1.00641e-07 0.08786)
(-1.66619e-06 -5.83829e-06 0.0818912)
(1.91912e-06 5.61979e-07 0.0818565)
(-2.47397e-07 5.68652e-06 0.096514)
(-6.13289e-06 -1.16821e-05 0.091984)
(4.02505e-06 1.08203e-06 0.0919432)
(-1.70179e-05 -9.31527e-06 0.0965492)
(1.01449e-06 1.50391e-06 0.0878551)
(-3.73415e-06 -3.55045e-06 0.0818817)
(2.40241e-06 5.71295e-07 0.0818476)
(3.90014e-06 3.58178e-06 0.0965097)
(-1.02602e-05 -6.66933e-06 0.0919767)
(-7.44137e-06 -1.05588e-05 0.0919769)
(1.52484e-06 1.0081e-06 0.0818488)
(-1.73239e-06 6.46072e-06 0.0965069)
(-5.6251e-06 -6.68846e-06 0.0878879)
(-8.96025e-07 4.89967e-06 0.091943)
(-1.9803e-06 -5.5877e-06 0.0818833)
(-1.33704e-05 -1.54128e-05 0.0965462)
(-1.14508e-05 -5.45341e-06 0.0919699)
(1.96302e-06 1.43938e-06 0.0818416)
(3.29515e-06 4.34712e-06 0.0965017)
(-6.34893e-06 -5.02559e-06 0.0878833)
(3.04242e-06 2.08066e-06 0.0919362)
(-4.14499e-06 -2.70505e-06 0.0818754)
(-1.79782e-05 -8.17626e-06 0.0965416)
(1.67971e-06 -4.17459e-07 0.0839028)
(-1.49212e-06 -2.12488e-06 0.0686143)
(-1.32314e-06 -3.0115e-06 0.0686082)
(2.14792e-06 6.8418e-07 0.0685798)
(1.46765e-06 7.00327e-07 0.0685736)
(-3.01273e-06 -5.72643e-06 0.0839321)
(2.16105e-07 1.59576e-06 0.0771797)
(-1.82928e-06 1.45035e-07 0.0916667)
(-1.10017e-06 -5.25251e-06 0.0789895)
(6.21516e-07 -1.16523e-05 0.0902288)
(-1.2325e-06 1.27283e-06 0.0789619)
(-1.00975e-07 6.47574e-07 0.0901925)
(-6.11662e-07 -5.16625e-06 0.0772118)
(-3.61717e-07 -3.08238e-06 0.068718)
(3.17368e-08 1.9095e-06 0.0861242)
(1.59006e-06 -7.49777e-06 0.082564)
(8.85633e-07 2.60366e-06 0.068674)
(9.69625e-07 -8.77534e-06 0.0861668)
(-1.4026e-06 -5.09701e-06 0.0772044)
(-2.28392e-06 -1.23151e-05 0.0916911)
(-1.59912e-06 1.25767e-06 0.0789538)
(-1.05776e-06 4.95668e-07 0.0901844)
(-1.74153e-06 -5.29492e-06 0.0789814)
(-3.33286e-07 1.69838e-06 0.0771724)
(-6.17492e-07 -1.19938e-05 0.090221)
(1.42226e-06 2.56575e-06 0.06868)
(2.01443e-06 -8.284e-06 0.086175)
(4.76558e-07 4.97274e-06 0.0825301)
(9.66307e-07 2.2734e-06 0.0861326)
(2.59722e-07 -3.12509e-06 0.0687245)
(4.3795e-07 -4.84905e-06 0.0772209)
(-5.89867e-07 1.52294e-06 0.0789703)
(-2.32749e-06 1.4764e-06 0.0901972)
(-7.4301e-07 -1.15944e-05 0.091705)
(-1.32183e-06 1.81352e-06 0.0771884)
(1.94536e-07 -4.96832e-06 0.078998)
(-1.62636e-06 -1.10819e-05 0.0902343)
(-1.30285e-06 2.50401e-06 0.0686913)
(1.47726e-06 4.33702e-06 0.082545)
(-7.46172e-07 -8.23052e-06 0.0861874)
(4.79239e-07 -3.21543e-06 0.0687363)
(-6.91604e-07 2.66837e-06 0.0861439)
(-7.11479e-08 -3.11617e-06 0.0687299)
(-1.6439e-06 2.96727e-06 0.0861355)
(-6.78723e-07 -7.97818e-06 0.0825775)
(-1.85882e-06 2.61273e-06 0.068685)
(-1.68578e-06 -8.01168e-06 0.0861789)
(-3.78577e-07 1.97868e-06 0.0771955)
(8.08694e-09 9.34874e-07 0.0916802)
(1.26367e-06 -4.79319e-06 0.0790056)
(-1.00125e-07 -1.10798e-05 0.0902417)
(1.30066e-06 -4.66641e-06 0.0772276)
(4.81359e-07 1.66446e-06 0.0789782)
(-8.21496e-07 1.39215e-06 0.0902048)
(3.73887e-07 -5.14229e-06 0.0772191)
(-3.58964e-07 1.34811e-06 0.0789699)
(1.30786e-06 1.13868e-06 0.0901998)
(1.38847e-07 -1.17902e-05 0.0917058)
(1.15739e-06 1.5582e-06 0.0771869)
(-7.56496e-08 -5.12767e-06 0.0789973)
(2.06054e-06 -1.10378e-05 0.0902357)
(2.456e-06 2.53037e-06 0.0686934)
(1.75584e-06 4.98032e-06 0.0825457)
(3.34282e-06 -7.02629e-06 0.0861888)
(2.74938e-06 3.51916e-06 0.0861469)
(1.01578e-06 -3.08604e-06 0.0687387)
(7.9816e-07 -3.14451e-06 0.0687315)
(2.02608e-06 2.87604e-06 0.0861402)
(3.39215e-06 -7.37131e-06 0.0825801)
(2.04924e-06 2.52783e-06 0.0686865)
(2.96918e-06 -7.60774e-06 0.0861822)
(2.07353e-06 1.64859e-06 0.077194)
(9.18762e-07 9.09267e-07 0.0916806)
(1.00475e-06 -4.8659e-06 0.0790048)
(3.13179e-06 -1.02854e-05 0.0902418)
(7.37195e-07 1.54089e-06 0.0789774)
(2.6241e-06 1.83438e-06 0.0902062)
(1.1343e-06 -4.95777e-06 0.0772263)
(6.57223e-08 8.0339e-07 0.0838895)
(2.42394e-06 -1.8224e-06 0.0685966)
(2.00887e-06 -2.10747e-06 0.0686028)
(-1.34599e-06 9.78272e-07 0.0685609)
(-8.6343e-07 1.6319e-06 0.068568)
(4.82745e-06 -3.85345e-06 0.0839194)
(6.84272e-06 -1.13317e-05 0.0919584)
(-1.95788e-06 3.46867e-06 0.096496)
(-1.45597e-06 1.79046e-06 0.0818246)
(5.85058e-06 -6.73954e-06 0.0878714)
(2.6129e-06 -4.47298e-06 0.0818607)
(-3.67696e-07 3.41552e-06 0.0919244)
(1.02622e-05 -1.77732e-05 0.0965353)
(1.27801e-05 -5.65888e-06 0.0919652)
(-2.15387e-06 3.40541e-06 0.0964992)
(-1.35751e-06 2.0551e-06 0.0818344)
(7.43995e-06 -4.61542e-06 0.0878724)
(1.89902e-05 -8.68849e-06 0.0965372)
(-1.96731e-06 1.47847e-06 0.0919324)
(5.00147e-06 -1.97375e-06 0.0818677)
(5.40933e-06 -4.60243e-06 0.0839132)
(-1.68847e-06 8.89599e-07 0.0685539)
(-9.47478e-07 1.85546e-06 0.0685614)
(2.0704e-06 -1.90231e-06 0.068589)
(5.58261e-07 2.27407e-07 0.0838834)
(1.93716e-06 -1.88292e-06 0.0685957)
(-5.99e-08 3.85935e-06 0.0919301)
(3.37819e-06 -4.46061e-06 0.0818694)
(-6.23625e-07 6.55147e-07 0.087841)
(1.06095e-05 -1.68173e-05 0.0965399)
(-6.40887e-07 1.80876e-06 0.0818327)
(-1.86263e-06 4.13201e-06 0.0965014)
(7.26701e-06 -1.06784e-05 0.091964)
(-2.45607e-06 1.38886e-06 0.0919381)
(5.04826e-06 -2.47232e-06 0.081876)
(-5.12412e-08 2.13008e-06 0.087845)
(1.80148e-05 -8.50511e-06 0.0965417)
(-2.99841e-06 3.68143e-06 0.0965045)
(-1.37626e-06 1.5003e-06 0.0818423)
(1.22199e-05 -5.72521e-06 0.0919707)
(3.13535e-06 -2.53271e-06 0.0718485)
(-2.42299e-06 8.93315e-07 0.0718168)
(4.24078e-06 -2.81206e-06 0.0718672)
(4.26462e-06 -3.22282e-06 0.0839259)
(-1.04902e-06 1.03676e-06 0.0685687)
(-8.56009e-07 1.40625e-06 0.0685753)
(-5.54198e-07 1.57816e-06 0.0838958)
(2.58358e-06 -1.77317e-06 0.0686045)
(1.91344e-06 -2.31706e-06 0.0686102)
(7.56585e-06 -9.73122e-06 0.0919694)
(-5.44028e-08 1.75812e-06 0.0818416)
(-1.30932e-06 5.32379e-06 0.0965054)
(7.4699e-06 -4.82898e-06 0.0878869)
(1.12842e-05 -1.54039e-05 0.0965435)
(3.65906e-07 4.68353e-06 0.0919354)
(3.68432e-06 -4.54635e-06 0.0818787)
(1.15173e-05 -5.58435e-06 0.091976)
(-1.27435e-06 1.098e-06 0.0818507)