/*--------------------------------*- C++ -*----------------------------------*\
| =========                 |                                                 |
| \\      /  F ield         | OpenFOAM: The Open Source CFD Toolbox           |
|  \\    /   O peration     | Version:  v2006                                 |
|   \\  /    A nd           | Website:  www.openfoam.com                      |
|    \\/     M anipulation  |                                                 |
\*---------------------------------------------------------------------------*/
FoamFile
{
    version     2.0;
    format      ascii;
    class       volScalarField;
    location    "375";
    object      nut;
}
// * * * * * * * * * * * * * * * * * * * * * * * * * * * * * * * * * * * * * //

dimensions      [0 2 -1 0 0 0 0];


internalField   nonuniform List<scalar> 
14199
(
0.000131676
0.000165253
0.000131675
0.000165247
9.57711e-05
9.57787e-05
3.64149e-05
9.11922e-05
4.07045e-05
9.58455e-05
9.12587e-05
4.07081e-05
3.64117e-05
3.64132e-05
9.1198e-05
4.07045e-05
9.58445e-05
9.12524e-05
4.07081e-05
3.641e-05
2.01686e-05
7.74792e-05
7.75131e-05
2.01666e-05
0.000141019
0.000141013
0.000126734
0.000149722
0.000152844
0.00013186
0.000149587
0.000153002
0.0001269
0.000126727
0.000149712
0.00015284
0.000131859
0.000149576
0.000152998
0.000126893
0.000114718
0.000143122
0.000142979
0.000114871
7.57988e-05
2.37042e-05
9.85014e-05
5.02806e-05
5.02767e-05
0.000165129
9.84842e-05
2.3703e-05
0.00015665
7.57857e-05
0.000165159
0.000101232
0.00012022
7.58443e-05
4.82173e-05
0.00010116
4.82221e-05
0.000120345
2.37065e-05
2.01697e-05
5.02858e-05
7.74913e-05
7.75274e-05
2.01676e-05
5.02822e-05
2.37052e-05
8.01922e-05
2.15618e-05
2.15586e-05
8.01712e-05
2.15607e-05
2.15634e-05
0.000101239
0.000120186
7.58267e-05
4.82065e-05
0.000120335
0.000101169
4.82121e-05
0.00011473
0.00014314
0.000133746
9.8605e-05
0.000133859
0.000142997
0.000114884
0.00013372
9.85858e-05
0.000133832
0.000128472
0.000144211
0.000156843
0.000144195
0.000144338
0.000128293
0.000144353
0.000151362
9.59315e-05
9.59346e-05
0.000132114
0.000166066
5.02904e-05
0.00013211
9.86974e-05
0.000165804
0.000166065
3.64141e-05
4.07132e-05
9.13221e-05
9.58533e-05
4.07095e-05
9.12611e-05
3.64173e-05
2.01702e-05
7.75649e-05
7.75313e-05
2.01718e-05
3.64164e-05
9.13313e-05
4.07135e-05
9.58632e-05
9.12777e-05
4.07098e-05
3.64194e-05
2.01686e-05
7.75454e-05
5.02848e-05
7.75115e-05
2.01706e-05
2.37058e-05
0.000101256
7.58332e-05
0.000120367
4.82158e-05
8.02019e-05
2.15614e-05
2.15637e-05
0.000101256
4.82234e-05
0.000143347
0.00011505
0.000114898
0.000143488
0.000150007
0.000127123
0.000153459
0.000131932
0.000126959
0.000153302
0.000150142
0.000150001
0.000127113
0.000153456
0.000131927
0.0001533
0.000126948
0.000150135
0.000143336
0.000115037
0.00013412
9.85964e-05
0.000114886
0.000134006
0.000143476
0.000128503
0.000144562
0.000137693
0.000140089
2.36146e-05
7.38306e-05
5.00305e-05
7.61505e-05
2.36173e-05
7.38923e-05
0.000113131
0.000112975
4.79473e-05
9.75233e-05
0.000130478
0.000130518
0.000119972
0.000129341
9.4118e-05
0.000108126
0.000122782
0.000134548
0.000134554
0.000134552
0.000134555
0.000140128
0.000140095
0.000140105
0.000137723
9.2387e-05
5.0022e-05
9.21748e-05
2.36126e-05
0.000122662
0.000122144
0.000122642
0.000135546
0.000133415
9.23841e-05
5.00174e-05
9.21616e-05
0.000122139
0.000135556
0.00012917
0.000133414
7.38218e-05
7.38385e-05
2.36142e-05
5.00214e-05
3.62771e-05
8.84813e-05
4.055e-05
9.2297e-05
8.84081e-05
4.05472e-05
3.62798e-05
2.01067e-05
5.0027e-05
7.61071e-05
7.6149e-05
2.01051e-05
3.62762e-05
9.22665e-05
8.83099e-05
4.05431e-05
8.83825e-05
4.0546e-05
3.62735e-05
2.36147e-05
3.62747e-05
4.05494e-05
8.84697e-05
9.22835e-05
4.05467e-05
8.8389e-05
3.62774e-05
2.01055e-05
5.00226e-05
7.60864e-05
7.61275e-05
2.01039e-05
3.62738e-05
9.2264e-05
4.05425e-05
8.82914e-05
4.05455e-05
8.83712e-05
3.62712e-05
9.76093e-05
0.000112955
7.38819e-05
4.79386e-05
4.79444e-05
0.000113122
9.75027e-05
9.75949e-05
0.000112974
7.38973e-05
4.79501e-05
0.000113147
4.79559e-05
9.74869e-05
7.89595e-05
2.1491e-05
2.14944e-05
2.14927e-05
2.14961e-05
7.89206e-05
2.36162e-05
2.01067e-05
5.00266e-05
7.61015e-05
7.61441e-05
2.0105e-05
0.000130515
0.000130506
0.000119982
0.000120213
0.000137911
0.000130679
0.000130669
0.00012919
9.39842e-05
0.000107927
0.000129351
9.41195e-05
0.000122795
0.000108125
0.000133925
0.000118332
0.000136175
0.00012191
0.000118122
0.000135991
0.000134082
0.00012917
9.39745e-05
0.00010792
0.000129332
9.41135e-05
0.000108118
0.000122775
0.000121576
0.000117826
0.000135444
0.00013357
0.000121809
0.000118035
0.000135626
0.000133922
0.000136173
0.000118322
0.000121905
0.00013599
0.000118111
0.000134077
0.000122637
9.39655e-05
0.000107911
0.00012933
9.41019e-05
0.000108109
0.00012277
0.000121572
0.000135444
0.000117818
0.000133568
0.000121805
0.000135626
0.000118026
5.02819e-05
9.84977e-05
0.000165241
0.000163793
0.000155637
2.37051e-05
7.57972e-05
0.000163767
0.00016513
0.000155637
0.00016378
0.000163783
9.57743e-05
0.000165239
0.000165154
0.000131676
9.57644e-05
0.000131671
7.57965e-05
2.36979e-05
2.3703e-05
0.000141002
0.000141007
0.000149585
0.00014958
0.00013161
9.8275e-05
0.000163577
0.000164471
9.84928e-05
0.000164413
0.000131162
9.84932e-05
0.000131603
0.000131157
7.56944e-05
7.5691e-05
0.000156336
7.57884e-05
7.57841e-05
2.37048e-05
0.000156652
7.57927e-05
5.02645e-05
5.02773e-05
9.82535e-05
0.000164444
9.84722e-05
9.57774e-05
5.02834e-05
9.57747e-05
0.000131681
9.8498e-05
0.000165239
0.000131677
0.000165231
7.56819e-05
7.57021e-05
0.000156337
7.5777e-05
7.57948e-05
2.36991e-05
2.37041e-05
9.57601e-05
5.02664e-05
5.02793e-05
9.56021e-05
0.000131608
0.000163576
9.82656e-05
0.00016446
0.000164414
9.84842e-05
0.000131161
9.57585e-05
5.0263e-05
5.02761e-05
9.56011e-05
0.000131602
0.000163572
9.82607e-05
0.000164465
0.000164414
9.84787e-05
0.000131155
2.36981e-05
2.37032e-05
2.36976e-05
2.37022e-05
2.017e-05
5.02871e-05
7.74967e-05
2.0168e-05
7.75324e-05
2.37074e-05
0.000101252
0.000120219
7.58418e-05
4.82188e-05
0.000120365
0.000101191
4.82232e-05
3.64151e-05
9.12062e-05
9.58473e-05
4.07047e-05
3.64119e-05
9.12621e-05
4.07083e-05
3.64129e-05
9.58427e-05
4.07044e-05
9.119e-05
3.64096e-05
4.0708e-05
9.12497e-05
2.01685e-05
7.74769e-05
2.01665e-05
7.75106e-05
0.000101065
7.57516e-05
0.000120168
4.82152e-05
0.000101147
0.000120034
4.82102e-05
8.01405e-05
2.15615e-05
2.15583e-05
2.15565e-05
8.01635e-05
2.15599e-05
2.37002e-05
2.37007e-05
8.01356e-05
2.15612e-05
2.1558e-05
2.15593e-05
2.15561e-05
8.01527e-05
0.000101056
0.000119829
7.57391e-05
4.81996e-05
0.00011998
4.82063e-05
0.000100976
0.000101061
0.00011982
7.57364e-05
4.81922e-05
0.000119965
4.81962e-05
0.000100977
0.000101068
4.82145e-05
7.57436e-05
0.000120167
0.000120017
4.8209e-05
0.000101148
0.000101069
4.82035e-05
7.574e-05
0.000120149
0.000120004
4.81982e-05
0.000101152
8.01211e-05
2.15567e-05
2.15546e-05
2.15588e-05
2.15561e-05
8.01015e-05
2.3707e-05
8.018e-05
2.15605e-05
2.15595e-05
8.01752e-05
2.15607e-05
2.15611e-05
0.000101236
0.000120178
4.82065e-05
7.58379e-05
0.000101148
4.82147e-05
0.000120345
2.01641e-05
5.02697e-05
7.7409e-05
7.74436e-05
2.01622e-05
2.01643e-05
7.74787e-05
5.02721e-05
7.74446e-05
2.01662e-05
3.64154e-05
4.07053e-05
9.12054e-05
9.58498e-05
3.64122e-05
4.0709e-05
9.12634e-05
2.01696e-05
7.74956e-05
5.02887e-05
2.01677e-05
7.75313e-05
3.64134e-05
4.07053e-05
9.11989e-05
9.58465e-05
3.64102e-05
4.07089e-05
9.12531e-05
2.01683e-05
7.74795e-05
2.01664e-05
7.75132e-05
8.01393e-05
2.15585e-05
2.15617e-05
2.15567e-05
2.15599e-05
8.01672e-05
0.000101063
0.000119809
7.57289e-05
4.81916e-05
4.81969e-05
0.000119963
0.000100979
0.000101057
0.000119846
7.57467e-05
4.82013e-05
0.000119986
4.82066e-05
0.000100975
0.000101072
4.82044e-05
7.5731e-05
0.000120148
4.81991e-05
0.000119996
0.000101154
0.000101068
4.82141e-05
7.57512e-05
0.000120171
0.000120033
4.82089e-05
0.000101148
8.0137e-05
2.15545e-05
2.15577e-05
2.15564e-05
2.15596e-05
8.01082e-05
2.37013e-05
2.37019e-05
3.64075e-05
9.11925e-05
4.07031e-05
9.56939e-05
9.1127e-05
4.06994e-05
3.64108e-05
2.01656e-05
5.02717e-05
7.74215e-05
7.7458e-05
2.01636e-05
2.01656e-05
7.7493e-05
5.02741e-05
7.7457e-05
2.01676e-05
3.64063e-05
9.56696e-05
9.10534e-05
4.06943e-05
9.11198e-05
4.06979e-05
3.64031e-05
3.64064e-05
4.07035e-05
9.11836e-05
9.56926e-05
4.06999e-05
9.11286e-05
3.64096e-05
2.01647e-05
5.02685e-05
7.74094e-05
7.7444e-05
2.01628e-05
2.01649e-05
7.74795e-05
5.02709e-05
7.74453e-05
2.01668e-05
3.64052e-05
9.5668e-05
4.06947e-05
9.10547e-05
4.06984e-05
9.11108e-05
3.64019e-05
2.37004e-05
2.37009e-05
2.36994e-05
2.37e-05
2.37037e-05
9.55891e-05
5.02782e-05
9.57565e-05
9.55974e-05
5.02621e-05
9.57551e-05
5.02746e-05
2.37014e-05
3.6406e-05
4.06942e-05
9.10461e-05
9.56664e-05
3.64028e-05
4.06978e-05
9.11142e-05
2.01655e-05
5.0273e-05
7.74924e-05
7.74563e-05
2.01675e-05
3.64072e-05
9.56805e-05
9.11869e-05
4.0703e-05
4.06993e-05
9.11196e-05
3.64105e-05
3.64044e-05
4.06942e-05
9.10525e-05
9.56648e-05
3.64012e-05
4.06978e-05
9.11076e-05
2.01644e-05
7.74085e-05
5.0267e-05
2.01624e-05
7.7443e-05
3.64056e-05
9.56885e-05
9.11805e-05
4.0703e-05
4.06993e-05
9.11254e-05
3.64088e-05
2.01645e-05
5.02694e-05
7.74783e-05
7.74441e-05
2.01665e-05
0.000143132
0.00013374
9.86007e-05
0.000114728
0.000142989
0.000114881
0.000133853
0.000128045
0.00014348
0.000143472
0.000155832
0.000143626
0.000143616
0.000127863
0.000128047
0.000143472
0.000143487
0.000155832
0.000143632
0.000143617
0.000127863
0.000149716
0.000126735
0.000152839
0.00013186
0.000149581
0.0001269
0.000152996
0.00014971
0.000152837
0.000131855
0.000126723
0.000149574
0.000152994
0.000126889
0.000143119
0.000114716
0.000142977
0.000114868
0.000151354
0.000140997
0.000139393
0.000139396
0.000150467
0.000140188
0.000140191
0.000134156
0.000133811
0.0001394
0.000139393
0.000150466
0.000140196
0.000140193
0.000134157
0.000133808
0.000140998
0.000149157
0.000126679
0.000152539
0.000131424
0.000126511
0.00015238
0.000149294
0.000142414
0.000133169
9.83797e-05
0.000114384
0.000133284
0.000114541
0.00014227
0.000142636
0.000114714
9.83899e-05
0.000133573
0.00013346
0.000114559
0.000142779
0.00014886
0.00013135
0.00012628
0.000151909
0.00012645
0.000152069
0.000148722
9.83891e-05
0.000114558
0.000114713
0.000142635
0.000133574
0.00013346
0.000142778
0.000126506
0.000131418
0.000126674
0.000149155
0.000152535
0.000152377
0.000149292
0.000126277
0.000126446
0.000131344
0.000148859
0.000151907
0.000152066
0.000148721
0.000128078
0.000156141
0.000143986
0.000143977
0.000143842
0.000143833
0.000128258
0.00012847
0.000144219
0.000156845
0.000144198
0.00014436
0.000128294
0.000144352
0.000142391
0.000133139
9.83591e-05
0.000114368
0.000114524
0.000133254
0.000142247
0.000142613
0.000114697
9.83679e-05
0.000133542
0.000114542
0.000142756
0.000133429
0.000149722
0.000126739
0.000152844
0.000131865
0.000149587
0.000126905
0.000153001
0.000143134
0.000133733
0.000114732
9.86005e-05
0.000133848
0.000142993
0.000114884
0.000149709
0.000126727
0.000152839
0.00013186
0.000149574
0.000126892
0.000152996
0.000143115
0.000114714
0.000142974
0.000114867
0.000128079
0.000156143
0.000143977
0.000143992
0.000143849
0.000143833
0.000128259
0.000149152
0.000152537
0.000126673
0.000131423
0.000152379
0.000126505
0.000149289
0.000142405
0.000133156
9.83704e-05
0.000114377
0.000133272
0.000114533
0.000142261
0.000142627
0.000114706
9.83806e-05
0.000133562
0.000133447
0.000114552
0.00014277
0.000148855
0.000131348
0.000151908
0.000126275
0.000152067
0.000126444
0.000148718
0.000131416
0.0001265
0.000126667
0.000149146
0.000152532
0.000152373
0.000149282
0.000114528
0.000114371
9.83659e-05
0.000142397
0.000133148
0.000133262
0.000142253
0.000114545
0.0001147
9.83749e-05
0.000142618
0.00013355
0.000133436
0.000142762
0.000131342
0.000126439
0.00012627
0.000148849
0.000151903
0.000152063
0.000148712
0.000131995
0.00013772
0.000126496
0.000143263
0.000143249
0.000140156
0.000129604
0.000146364
0.000146395
0.000142539
0.000132659
0.000149402
0.00014941
0.000144857
0.000135877
0.000152393
0.000152401
0.000147117
0.000139219
0.000155337
0.00015535
0.000149334
0.000142622
0.000158218
0.000158225
0.000151491
0.000146077
0.00016103
0.000161042
0.000153596
0.000139722
0.000142433
0.000142456
0.000139741
0.000142433
0.000142427
0.000140125
0.000142481
0.000142479
0.000139722
0.000140126
0.000142454
0.000142479
0.000139752
0.000140145
0.000142191
0.000143245
0.000143239
0.000145635
0.000145576
0.000140148
0.000142145
0.000143243
0.000143226
0.00014564
0.000145607
0.000143259
0.000145594
0.000145588
0.000140139
0.000142171
0.00014326
0.000145626
0.000145593
0.000142145
0.00014258
0.000144459
0.000146398
0.000146345
0.00014863
0.000148625
0.000142536
0.00014447
0.0001464
0.000146378
0.000148634
0.000148636
0.00014636
0.000148649
0.000148649
0.000142566
0.000144475
0.000146366
0.000148661
0.000148652
0.000144479
0.000144834
0.000146757
0.000149383
0.000149377
0.000151638
0.000151621
0.000144848
0.000146748
0.000149382
0.000149387
0.000151642
0.000151631
0.000149402
0.000151645
0.000151643
0.00014485
0.000146757
0.000149407
0.000151656
0.000151646
0.000146752
0.000147125
0.000148992
0.000152391
0.00015237
0.000154603
0.000154589
0.000147115
0.000148985
0.00015239
0.000152379
0.000154609
0.0001546
0.000152385
0.000154612
0.0001546
0.000147124
0.000148994
0.00015239
0.000154622
0.000154601
0.000148982
0.000149343
0.000151158
0.000155335
0.000155314
0.000157493
0.000157474
0.000149337
0.000151149
0.000155334
0.000155328
0.000157499
0.000157486
0.000155326
0.000157498
0.000157491
0.000149347
0.000151158
0.000155334
0.000157508
0.000157491
0.000151152
0.000151498
0.000153274
0.000158215
0.000158194
0.000160325
0.000160312
0.00015149
0.000153271
0.000158212
0.000158198
0.000160331
0.000160322
0.000158202
0.000160337
0.000160333
0.000151497
0.000153275
0.000158212
0.00016034
0.000160327
0.00015327
0.000153598
0.000155333
0.000161028
0.000161006
0.000163093
0.00016308
0.000153594
0.000155324
0.000161027
0.00016101
0.000163101
0.000163089
0.000161017
0.000163105
0.000163089
0.000153599
7.56986e-05
0.000161035
0.000148423
0.00015159
7.56933e-05
9.2394e-05
5.00383e-05
2.3618e-05
5.0034e-05
0.000123755
0.000131992
0.000123738
0.000125747
0.000125828
0.000125775
0.000125833
0.000122162
0.000135578
0.000140924
9.42798e-05
0.000136442
0.000133442
2.36171e-05
0.00012215
0.000135576
0.000140891
0.000136428
9.42738e-05
0.000135453
7.38396e-05
7.38339e-05
0.000138533
7.39668e-05
7.39615e-05
9.28783e-05
5.00565e-05
9.26718e-05
5.00691e-05
2.36232e-05
2.36278e-05
9.28738e-05
5.00514e-05
9.26654e-05
5.0064e-05
0.000126551
0.000126508
0.000126561
0.000128834
0.00012878
0.000128807
0.000128794
0.000123488
9.4601e-05
0.000139076
0.000144044
0.000122929
9.4884e-05
0.000139962
2.36222e-05
2.36267e-05
0.000123486
0.000139062
9.46011e-05
0.000144048
0.000122924
0.000139961
9.48867e-05
7.41052e-05
7.41001e-05
0.000140951
7.42279e-05
7.42226e-05
9.33336e-05
5.00861e-05
9.31412e-05
5.00987e-05
2.36331e-05
2.36378e-05
9.3329e-05
5.0081e-05
9.31363e-05
5.00936e-05
0.000129543
0.000129581
0.000129558
0.000131885
0.000131873
0.000131901
0.000131896
0.000124768
9.51883e-05
0.000142631
0.000147129
0.000124232
9.54568e-05
0.000143521
2.3632e-05
2.36366e-05
0.000124766
0.000142659
9.51937e-05
0.000147156
0.00012423
0.000143549
9.54585e-05
7.43629e-05
7.43577e-05
0.000143321
7.44785e-05
7.44728e-05
9.37775e-05
5.01165e-05
9.35868e-05
5.01295e-05
2.36434e-05
2.36482e-05
9.37733e-05
5.01114e-05
9.35808e-05
5.01244e-05
0.00013266
0.000132681
0.000132685
0.000135054
0.000135051
0.000135071
0.000135078
0.000126002
9.5751e-05
0.000146185
0.00015015
0.000125482
9.60111e-05
0.000147066
2.36423e-05
2.3647e-05
0.000125997
0.000146197
9.57491e-05
0.000150161
0.000125475
0.000147079
9.60129e-05
7.46077e-05
7.46022e-05
0.000145623
7.47191e-05
7.47136e-05
9.42061e-05
5.01472e-05
9.40227e-05
5.01601e-05
2.36539e-05
2.36588e-05
9.42016e-05
5.01421e-05
9.40175e-05
5.0155e-05
0.000135872
0.000135888
0.000135893
0.00013838
0.000138379
0.00013839
0.000138381
0.000127199
9.62943e-05
0.000149721
0.000153139
0.000126693
9.65478e-05
0.000150608
2.36528e-05
2.36577e-05
0.000127194
0.00014973
9.62953e-05
0.000153145
0.000126688
0.000150615
9.65484e-05
7.48427e-05
7.48373e-05
0.000147873
7.49514e-05
7.49459e-05
9.46167e-05
5.01778e-05
9.4441e-05
5.01907e-05
2.36646e-05
2.36696e-05
9.46128e-05
5.01727e-05
9.44362e-05
5.01857e-05
0.000139215
0.000139229
0.000139221
0.000141762
0.000141747
0.000141769
0.000141762
0.000128356
9.68197e-05
0.000153255
0.000156058
0.000127869
9.706e-05
0.000154125
2.36636e-05
2.36685e-05
0.000128352
0.000153265
9.68211e-05
0.000156073
0.000127864
0.000154142
9.70618e-05
7.50697e-05
7.50645e-05
0.000150075
7.51739e-05
7.51685e-05
9.50145e-05
5.02085e-05
9.48426e-05
5.02214e-05
2.36756e-05
2.36806e-05
9.50103e-05
5.02034e-05
9.48372e-05
5.02164e-05
0.000142614
0.000142623
0.00014262
0.000145213
0.000145213
0.000145221
0.000145222
0.000129477
9.73227e-05
0.000156745
0.000158931
0.000129002
9.75579e-05
0.000157612
2.36745e-05
2.36795e-05
0.000129471
0.00015675
9.73231e-05
0.000158934
0.000128996
0.000157617
9.75576e-05
7.52871e-05
7.52817e-05
0.000152218
7.53878e-05
7.53824e-05
9.53984e-05
5.02392e-05
9.52281e-05
5.02518e-05
2.36867e-05
2.36917e-05
9.53935e-05
5.02341e-05
9.5224e-05
5.02471e-05
0.000146071
0.000146086
0.000146087
0.000148701
0.000138595
0.000148693
0.000133459
0.000130558
9.78078e-05
0.000160186
0.000161722
0.000130101
9.80312e-05
0.000161033
2.36859e-05
2.36909e-05
0.000130554
0.000160195
9.78075e-05
0.000161724
0.000130095
0.000161042
9.8033e-05
7.54959e-05
7.54913e-05
0.000154304
7.55935e-05
7.55855e-05
2.36203e-05
2.36182e-05
0.000138484
7.39664e-05
7.39601e-05
2.36255e-05
2.3621e-05
2.36229e-05
2.36187e-05
0.000138895
7.41067e-05
7.40972e-05
7.39758e-05
7.39666e-05
9.23914e-05
5.00335e-05
0.000122154
0.000140853
9.42753e-05
0.000136397
0.000122153
0.000140899
9.4261e-05
0.000136417
9.2428e-05
5.00541e-05
5.00409e-05
9.26381e-05
9.24256e-05
5.00485e-05
5.00358e-05
9.26346e-05
0.000122256
0.000141635
9.45889e-05
0.000138144
9.42923e-05
0.000137261
0.000122827
0.000122254
0.000141675
9.45661e-05
0.000138159
9.42762e-05
0.000137282
0.000122823
0.00013854
7.39512e-05
7.39677e-05
2.36191e-05
2.36229e-05
2.36183e-05
0.000138943
7.40861e-05
7.41023e-05
7.39584e-05
7.39768e-05
2.3624e-05
2.36195e-05
0.000140853
9.4266e-05
0.00013639
5.00303e-05
0.000140865
0.000136401
9.4256e-05
9.24201e-05
5.00491e-05
5.00364e-05
9.26333e-05
0.000122246
0.000141633
9.45784e-05
0.000138131
9.42816e-05
0.000137247
0.00012282
9.24068e-05
5.00453e-05
5.00326e-05
9.26295e-05
0.000122241
0.000141639
0.000138135
9.45665e-05
0.000137256
9.42714e-05
0.000122815
9.23951e-05
5.00353e-05
9.21853e-05
0.000122161
0.000135572
0.000122661
0.000140911
0.000136441
9.42778e-05
0.000133429
9.2394e-05
5.00198e-05
5.00323e-05
9.2184e-05
0.000122264
0.000141701
9.45843e-05
0.000138192
9.42958e-05
0.000137314
0.000122828
9.24285e-05
5.00504e-05
5.00376e-05
9.26359e-05
0.000122263
0.000141697
0.000138197
9.45779e-05
0.000137317
9.42942e-05
0.000122827
9.2428e-05
5.00472e-05
5.00346e-05
9.26345e-05
0.000138501
7.39509e-05
7.39668e-05
2.36187e-05
2.36218e-05
2.36175e-05
0.000138906
7.40867e-05
7.41042e-05
7.39585e-05
7.39761e-05
2.36236e-05
2.36191e-05
0.000122151
0.000135573
0.000122649
0.000140912
0.000136437
9.4272e-05
0.000133419
9.23915e-05
5.00343e-05
9.21692e-05
9.23903e-05
5.00182e-05
5.00308e-05
9.21785e-05
0.000122252
0.000141665
0.000138171
9.45847e-05
0.000137291
9.42905e-05
0.000122822
0.000122254
0.000141696
0.000138188
9.4573e-05
0.000137307
9.42886e-05
0.000122823
9.24133e-05
5.00495e-05
5.00366e-05
9.26347e-05
9.24231e-05
5.00457e-05
5.00331e-05
9.26326e-05
2.36138e-05
2.36182e-05
2.36129e-05
2.36172e-05
0.000138947
7.40968e-05
7.40917e-05
7.39754e-05
7.39704e-05
2.3623e-05
2.36186e-05
2.36221e-05
2.36176e-05
2.36259e-05
2.36304e-05
2.36233e-05
2.36278e-05
7.41161e-05
7.41069e-05
0.000140978
7.42413e-05
7.4232e-05
2.36352e-05
2.36308e-05
2.36326e-05
2.36282e-05
0.000141392
7.43641e-05
7.43548e-05
7.425e-05
7.42407e-05
9.28741e-05
5.00509e-05
9.26686e-05
5.00635e-05
0.000123495
9.46059e-05
0.000139045
0.000144054
0.000122929
9.48948e-05
0.000139953
0.000123489
9.45818e-05
0.000139048
0.000144022
0.000122924
9.4866e-05
0.000139943
9.29109e-05
5.00838e-05
5.00714e-05
9.31099e-05
9.2907e-05
5.00785e-05
5.00658e-05
9.31058e-05
0.000123594
0.000144856
9.51836e-05
0.000141766
9.49109e-05
0.000140865
0.000124144
0.000123588
0.000144802
9.51548e-05
0.000141738
9.48807e-05
0.000140842
0.000124137
7.40929e-05
7.41113e-05
0.000140952
7.42162e-05
7.42327e-05
2.36244e-05
2.36289e-05
2.36327e-05
2.36281e-05
0.000141354
7.43412e-05
7.43582e-05
7.42223e-05
7.4241e-05
2.36339e-05
2.36293e-05
0.00012349
9.45959e-05
0.000139033
0.000144056
0.000122922
9.48847e-05
0.000139948
9.28695e-05
5.00476e-05
9.26521e-05
5.00603e-05
0.000123483
0.000139032
9.45833e-05
0.000144025
0.000122917
0.000139941
9.48696e-05
9.29055e-05
5.00787e-05
5.00663e-05
9.31061e-05
0.000123589
0.000144857
9.51736e-05
0.000141773
9.49011e-05
0.000140863
0.00012414
9.2892e-05
5.00752e-05
5.00626e-05
9.31021e-05
0.000123583
0.000144823
0.000141762
9.51621e-05
0.000140853
9.48855e-05
0.000124134
9.2874e-05
5.00527e-05
9.26692e-05
5.00654e-05
0.000123486
0.000139081
9.45932e-05
0.000144037
0.000122928
0.000139967
9.48748e-05
9.28722e-05
5.00496e-05
9.26682e-05
5.00623e-05
0.000123587
0.000144821
9.51734e-05
0.000141739
9.48997e-05
0.000140851
0.000124136
9.29066e-05
5.00804e-05
5.00677e-05
9.31063e-05
0.000123585
0.000144814
0.000141744
9.51681e-05
0.000140855
9.48903e-05
0.000124134
9.29054e-05
5.00774e-05
5.00647e-05
9.31049e-05
7.40963e-05
7.4113e-05
0.00014096
7.42207e-05
7.42369e-05
2.3624e-05
2.36285e-05
2.36316e-05
2.36271e-05
0.000141369
7.43478e-05
7.43635e-05
7.42296e-05
7.42454e-05
2.36334e-05
2.36289e-05
0.000123483
0.000139074
9.45885e-05
0.000144039
0.000122923
0.000139964
9.48697e-05
9.28731e-05
5.00518e-05
9.26559e-05
5.00645e-05
9.28704e-05
5.00481e-05
9.26647e-05
5.00608e-05
0.000123584
0.000144841
0.000141764
9.51792e-05
0.000140863
9.49024e-05
0.000124135
0.000123582
0.000144818
0.000141753
9.5163e-05
0.000140859
9.48855e-05
0.000124132
9.28937e-05
5.00794e-05
5.00668e-05
9.31062e-05
9.29021e-05
5.00758e-05
5.00631e-05
9.31035e-05
2.36234e-05
2.3628e-05
2.36225e-05
2.3627e-05
0.000141351
7.43553e-05
7.43499e-05
7.42363e-05
7.42311e-05
2.3633e-05
2.36284e-05
2.3632e-05
2.36275e-05
2.36356e-05
2.36402e-05
2.3633e-05
2.36376e-05
7.43714e-05
7.4362e-05
0.000143336
7.44809e-05
7.44717e-05
2.36455e-05
2.36407e-05
2.36429e-05
2.36381e-05
0.000143706
7.46043e-05
7.45951e-05
7.44882e-05
7.44788e-05
9.33305e-05
5.00808e-05
9.31373e-05
5.00936e-05
0.00012477
9.51976e-05
0.000142659
0.000147143
0.000124239
9.54569e-05
0.000143538
0.000124765
9.51686e-05
0.000142631
0.000147109
0.000124232
9.54373e-05
0.000143518
9.33643e-05
5.01141e-05
5.01011e-05
9.35562e-05
9.33614e-05
5.01088e-05
5.0096e-05
9.35533e-05
0.000124862
0.000147888
9.57344e-05
0.000145289
9.54701e-05
0.000144416
0.000125386
0.000124857
0.000147869
9.57169e-05
0.000145284
9.54507e-05
0.000144403
0.000125383
7.43468e-05
7.43661e-05
0.000143314
7.44641e-05
7.44815e-05
2.36343e-05
2.36389e-05
2.3643e-05
2.36382e-05
0.000143698
7.45864e-05
7.46037e-05
7.44697e-05
7.44892e-05
2.36441e-05
2.36394e-05
0.000124765
9.51877e-05
0.000142664
0.000147148
0.000124235
9.54467e-05
0.000143546
9.33255e-05
5.00775e-05
9.31232e-05
5.00901e-05
0.00012476
0.000142657
9.51766e-05
0.000147135
0.00012423
0.000143544
9.54407e-05
9.33585e-05
5.0109e-05
5.0096e-05
9.35511e-05
0.000124856
0.000147888
9.57242e-05
0.000145293
9.546e-05
0.000144418
0.000125378
9.33457e-05
5.01054e-05
5.00925e-05
9.35475e-05
0.000124852
0.000147887
0.000145298
9.57177e-05
0.000144421
9.5454e-05
0.000125374
9.33329e-05
5.00827e-05
9.3138e-05
5.00955e-05
0.000124767
0.000142637
9.51827e-05
0.000147127
0.000124231
0.000143528
9.54515e-05
9.33317e-05
5.00797e-05
9.3137e-05
5.00925e-05
0.000124862
0.000147891
9.57367e-05
0.000145299
9.54713e-05
0.000144412
0.00012539
9.33641e-05
5.01107e-05
5.00978e-05
9.35564e-05
0.000124861
0.00014789
0.000145307
9.57312e-05
0.000144419
9.54655e-05
0.000125389
9.33631e-05
5.01076e-05
5.00948e-05
9.35551e-05
7.43556e-05
7.4371e-05
0.000143338
7.44679e-05
7.44831e-05
2.36339e-05
2.36385e-05
2.36418e-05
2.3637e-05
0.000143716
7.45905e-05
7.46047e-05
7.44752e-05
7.44901e-05
2.36436e-05
2.36389e-05
0.000124765
0.000142648
9.51779e-05
0.000147132
0.000124228
0.000143539
9.54462e-05
9.33318e-05
5.00817e-05
9.31258e-05
5.00944e-05
9.33295e-05
5.00782e-05
9.31342e-05
5.00909e-05
0.000124859
0.000147908
0.000145316
9.57353e-05
0.000144432
9.54719e-05
0.000125384
0.000124857
0.000147895
0.000145313
9.57254e-05
0.000144427
9.54604e-05
0.000125383
9.33506e-05
5.01096e-05
5.00967e-05
9.3554e-05
9.33595e-05
5.01061e-05
5.00933e-05
9.3552e-05
2.36334e-05
2.3638e-05
2.36324e-05
2.36371e-05
0.000143706
7.46006e-05
7.45949e-05
7.4486e-05
7.44804e-05
2.36432e-05
2.36385e-05
2.36422e-05
2.36375e-05
2.3646e-05
2.36507e-05
2.36433e-05
2.36481e-05
7.4612e-05
7.46028e-05
0.000145608
7.47269e-05
7.4718e-05
2.3656e-05
2.36512e-05
2.36534e-05
2.36486e-05
0.000145986
7.48441e-05
7.48353e-05
7.4734e-05
7.4725e-05
9.3774e-05
5.01112e-05
9.35842e-05
5.01241e-05
0.000126001
9.57488e-05
0.00014617
0.000150132
0.000125477
9.60148e-05
0.000147049
0.000125997
9.57302e-05
0.000146166
0.000150126
0.000125474
9.59919e-05
0.000147046
9.38074e-05
5.01448e-05
5.01319e-05
9.39937e-05
9.38041e-05
5.01394e-05
5.01265e-05
9.399e-05
0.000126092
0.000150889
9.62855e-05
0.000148823
9.60287e-05
0.000147937
0.000126607
0.000126087
0.000150874
9.62616e-05
0.000148816
9.60046e-05
0.00014793
0.000126602
7.45917e-05
7.46111e-05
0.000145614
7.47057e-05
7.47228e-05
2.36446e-05
2.36493e-05
2.36535e-05
2.36486e-05
0.000145986
7.48231e-05
7.48404e-05
7.47105e-05
7.47298e-05
2.36546e-05
2.36498e-05
0.000125994
9.57387e-05
0.000146168
0.000150136
0.00012547
9.60049e-05
0.000147051
9.37695e-05
5.01078e-05
9.35679e-05
5.01207e-05
0.000125989
0.000146176
9.57317e-05
0.000150136
0.000125466
0.000147057
9.59964e-05
9.38022e-05
5.01397e-05
5.01268e-05
9.39895e-05
0.000126085
0.000150888
9.62757e-05
0.000148824
9.60189e-05
0.000147935
0.000126601
9.37891e-05
5.0136e-05
5.01231e-05
9.39855e-05
0.000126081
0.000150886
0.000148826
9.62664e-05
0.000147941
9.601e-05
0.000126596
9.37755e-05
5.01131e-05
9.3587e-05
5.0126e-05
0.000126001
0.000146193
9.5745e-05
0.000150152
0.000125481
0.000147075
9.60051e-05
9.37743e-05
5.011e-05
9.3586e-05
5.01229e-05
0.000126093
0.000150898
9.62808e-05
0.000148832
9.60248e-05
0.000147949
0.000126604
9.38055e-05
5.01413e-05
5.01284e-05
9.39909e-05
0.000126091
0.000150898
0.00014884
9.62738e-05
0.000147957
9.60182e-05
0.000126603
9.38044e-05
5.01382e-05
5.01252e-05
9.39896e-05
7.45981e-05
7.46121e-05
0.000145619
7.47124e-05
7.47259e-05
2.36441e-05
2.36489e-05
2.36523e-05
2.36475e-05
0.000145993
7.48294e-05
7.48426e-05
7.47195e-05
7.47327e-05
2.36542e-05
2.36494e-05
0.000125996
0.000146197
9.57396e-05
0.000150155
0.000125475
0.000147079
9.59998e-05
9.37742e-05
5.0112e-05
9.35727e-05
5.0125e-05
9.3772e-05
5.01085e-05
9.35817e-05
5.01213e-05
0.000126087
0.000150908
0.000148845
9.62825e-05
0.000147962
9.60264e-05
0.0001266
0.000126086
0.000150903
0.000148844
9.62687e-05
0.000147962
9.60133e-05
0.000126599
9.37923e-05
5.01403e-05
5.01273e-05
9.39898e-05
9.3801e-05
5.01366e-05
5.01237e-05
9.39874e-05
2.36436e-05
2.36484e-05
2.36427e-05
2.36474e-05
0.000145993
7.48361e-05
7.48306e-05
7.47258e-05
7.47205e-05
2.36536e-05
2.36488e-05
2.36527e-05
2.36479e-05
2.36565e-05
2.36614e-05
2.36539e-05
2.36587e-05
7.48509e-05
7.4842e-05
0.000147883
7.49595e-05
7.49508e-05
2.36667e-05
2.36619e-05
2.36641e-05
2.36592e-05
0.000148243
7.50712e-05
7.50627e-05
7.49661e-05
7.49573e-05
9.42025e-05
5.01418e-05
9.40195e-05
5.01548e-05
0.000127201
9.62985e-05
0.000149716
0.000153132
0.000126695
9.65507e-05
0.000150603
0.000127196
9.62741e-05
0.000149706
0.000153116
0.00012669
9.65282e-05
0.000150596
9.42344e-05
5.01754e-05
5.01625e-05
9.44138e-05
9.42314e-05
5.017e-05
5.01572e-05
9.44103e-05
0.000127288
0.000153875
9.68101e-05
0.000152373
9.65634e-05
0.000151493
0.000127786
0.000127283
0.000153856
9.67877e-05
0.000152367
9.65403e-05
0.000151485
0.000127781
7.48279e-05
7.48473e-05
0.000147874
7.49391e-05
7.49565e-05
2.36551e-05
2.366e-05
2.36642e-05
2.36593e-05
0.000148236
7.50508e-05
7.50683e-05
7.49435e-05
7.49631e-05
2.36653e-05
2.36605e-05
0.000127195
9.62888e-05
0.000149712
0.000153136
0.000126689
9.65408e-05
0.000150601
9.41977e-05
5.01384e-05
9.40043e-05
5.01514e-05
0.000127189
0.000149713
9.62791e-05
0.000153122
0.000126685
0.000150601
9.65321e-05
9.4229e-05
5.01703e-05
5.01574e-05
9.44098e-05
0.000127281
0.000153874
9.68003e-05
0.000152373
9.65537e-05
0.000151488
0.000127779
9.42159e-05
5.01667e-05
5.01538e-05
9.4406e-05
0.000127277
0.000153864
0.000152374
9.67931e-05
0.000151489
9.65448e-05
0.000127774
9.42039e-05
5.01437e-05
9.40205e-05
5.01567e-05
0.000127197
0.000149725
9.62867e-05
0.000153127
0.000126692
0.00015061
9.65396e-05
9.42023e-05
5.01406e-05
9.40194e-05
5.01535e-05
0.000127287
0.000153879
9.68074e-05
0.000152377
9.6561e-05
0.000151496
0.000127784
9.42329e-05
5.0172e-05
5.01591e-05
9.44116e-05
0.000127285
0.000153863
0.000152378
9.67995e-05
0.000151495
9.65521e-05
0.000127783
9.42314e-05
5.01689e-05
5.01559e-05
9.44102e-05
7.48362e-05
7.48492e-05
0.000147881
7.49457e-05
7.49588e-05
2.36547e-05
2.36595e-05
2.3663e-05
2.36582e-05
0.000148242
7.50583e-05
7.50712e-05
7.49524e-05
7.49652e-05
2.36649e-05
2.366e-05
0.000127192
0.000149728
9.62818e-05
0.000153128
0.000126687
0.000150611
9.65341e-05
9.4202e-05
5.01427e-05
9.40072e-05
5.01556e-05
9.41996e-05
5.0139e-05
9.40159e-05
5.0152e-05
0.000127281
0.000153886
0.000152386
9.68092e-05
0.000151501
9.65611e-05
0.000127779
0.000127279
0.000153869
0.000152379
9.67942e-05
0.000151495
9.6547e-05
0.000127778
9.42191e-05
5.01709e-05
5.0158e-05
9.44102e-05