/*--------------------------------*- C++ -*----------------------------------*\
| =========                 |                                                 |
| \\      /  F ield         | OpenFOAM: The Open Source CFD Toolbox           |
|  \\    /   O peration     | Version:  v2006                                 |
|   \\  /    A nd           | Website:  www.openfoam.com                      |
|    \\/     M anipulation  |                                                 |
\*---------------------------------------------------------------------------*/
FoamFile
{
    version     2.0;
    format      ascii;
    class       volScalarField;
    location    "125";
    object      k;
}
// * * * * * * * * * * * * * * * * * * * * * * * * * * * * * * * * * * * * * //

dimensions      [0 2 -2 0 0 0 0];


internalField   nonuniform List<scalar> 
14298
(
6.96653e-05
6.9667e-05
1.78801e-05
5.86491e-05
5.86582e-05
5.2112e-05
7.00042e-05
5.21109e-05
2.7979e-05
1.61186e-05
4.45636e-05
1.50232e-05
2.79786e-05
1.50232e-05
5.21125e-05
7.00056e-05
2.79795e-05
1.61189e-05
4.45667e-05
1.50232e-05
5.21115e-05
7.00015e-05
2.7979e-05
1.61189e-05
1.50231e-05
4.45687e-05
1.61188e-05
4.45639e-05
7.00012e-05
6.96669e-05
1.78804e-05
5.86572e-05
5.86513e-05
6.96659e-05
2.79796e-05
1.61188e-05
1.50234e-05
4.45639e-05
2.79792e-05
1.61192e-05
1.50235e-05
4.45665e-05
5.21128e-05
7.00053e-05
5.21117e-05
7.00021e-05
1.78806e-05
5.8648e-05
5.86564e-05
6.96654e-05
6.96671e-05
6.96625e-05
6.96642e-05
8.719e-05
7.24861e-05
7.24797e-05
8.71071e-05
7.24829e-05
7.24765e-05
5.64936e-05
6.87125e-05
3.81722e-05
5.87741e-05
5.63062e-05
6.87408e-05
3.83948e-05
5.6562e-05
6.87241e-05
3.81917e-05
5.87831e-05
5.63735e-05
6.87523e-05
3.84131e-05
6.98076e-05
6.90802e-05
5.85206e-05
5.23894e-05
6.97966e-05
6.9095e-05
5.87238e-05
7.10311e-05
7.37963e-05
7.00157e-05
7.10322e-05
7.38785e-05
6.98064e-05
6.90797e-05
5.85157e-05
5.23882e-05
6.97953e-05
6.90945e-05
5.87191e-05
6.98076e-05
5.85205e-05
6.90802e-05
5.23901e-05
6.97966e-05
5.87237e-05
6.90952e-05
7.10314e-05
7.37968e-05
7.00171e-05
7.10325e-05
7.38792e-05
6.98064e-05
6.90799e-05
5.85162e-05
5.23891e-05
6.97954e-05
6.90948e-05
5.87193e-05
7.10297e-05
7.37773e-05
7.0013e-05
7.10307e-05
7.38596e-05
7.00127e-05
6.96642e-05
8.71933e-05
7.24802e-05
7.24864e-05
8.71104e-05
7.2477e-05
7.24832e-05
5.65637e-05
6.87239e-05
3.81926e-05
5.87821e-05
3.8415e-05
5.6376e-05
6.87522e-05
5.64968e-05
6.87132e-05
3.81745e-05
5.87761e-05
5.63073e-05
6.87414e-05
3.83951e-05
6.96631e-05
6.98075e-05
5.85207e-05
6.90802e-05
5.23903e-05
6.97964e-05
5.87238e-05
6.90951e-05
7.10314e-05
7.37962e-05
7.00167e-05
7.1032e-05
7.38779e-05
6.98063e-05
5.85162e-05
6.90798e-05
5.23892e-05
6.97953e-05
5.87195e-05
6.90947e-05
7.10301e-05
7.3779e-05
7.00136e-05
7.10312e-05
7.38614e-05
8.71952e-05
7.24861e-05
7.24802e-05
8.71123e-05
7.24833e-05
7.24771e-05
5.64941e-05
6.87125e-05
3.81766e-05
5.87728e-05
5.63126e-05
3.83948e-05
6.87407e-05
5.65623e-05
6.87239e-05
3.81934e-05
5.87813e-05
5.63777e-05
3.84148e-05
6.87521e-05
6.96626e-05
6.96643e-05
1.51167e-05
1.52737e-05
1.52739e-05
1.56569e-05
1.52736e-05
1.56569e-05
1.51166e-05
1.52736e-05
1.52739e-05
1.56568e-05
1.51167e-05
1.52739e-05
1.56568e-05
3.70708e-05
1.79007e-05
2.43248e-05
2.43298e-05
3.69355e-05
2.44123e-05
2.44175e-05
1.91268e-05
3.21699e-05
1.75673e-05
2.81157e-05
1.90879e-05
3.2306e-05
1.7601e-05
2.19251e-05
3.88252e-05
2.69564e-05
4.46767e-05
2.70606e-05
2.18658e-05
3.89459e-05
1.91268e-05
3.2168e-05
1.75672e-05
2.81154e-05
1.90879e-05
3.23044e-05
1.7601e-05
1.91273e-05
3.21703e-05
1.75675e-05
2.81163e-05
1.90886e-05
3.23062e-05
1.76013e-05
2.19263e-05
3.88255e-05
2.69618e-05
4.46797e-05
2.70662e-05
2.18671e-05
3.89466e-05
1.91268e-05
1.75673e-05
3.21686e-05
2.81161e-05
1.90879e-05
1.76013e-05
3.23046e-05
2.19258e-05
3.88208e-05
2.6963e-05
4.46775e-05
2.18668e-05
3.89412e-05
2.70671e-05
2.6957e-05
4.46749e-05
2.7061e-05
3.70723e-05
1.79009e-05
2.43301e-05
2.4326e-05
2.44178e-05
3.69369e-05
2.44136e-05
1.9127e-05
1.75676e-05
3.217e-05
2.81164e-05
1.90883e-05
1.76015e-05
3.23059e-05
2.1925e-05
3.88243e-05
2.69566e-05
4.46765e-05
2.1866e-05
2.70604e-05
3.89446e-05
1.9127e-05
1.75676e-05
3.21683e-05
2.8116e-05
1.90882e-05
1.76014e-05
3.23046e-05
2.19255e-05
3.88204e-05
2.69627e-05
4.46795e-05
2.18665e-05
3.89413e-05
2.70669e-05
3.70734e-05
1.79013e-05
2.43265e-05
2.43314e-05
3.69383e-05
2.4414e-05
2.44192e-05
1.90945e-05
1.84893e-05
1.92855e-05
1.92865e-05
1.85899e-05
1.84898e-05
1.90934e-05
2.03339e-05
7.08196e-05
3.11131e-05
1.95433e-05
1.9266e-05
4.68778e-05
4.68859e-05
1.97551e-05
1.92601e-05
3.23427e-05
1.97549e-05
3.08741e-05
1.92602e-05
6.92391e-05
3.23429e-05
1.9755e-05
3.08767e-05
1.92601e-05
6.92393e-05
3.23433e-05
4.66503e-05
4.66566e-05
7.08781e-05
7.08785e-05
4.68822e-05
4.68804e-05
7.08189e-05
6.92504e-05
3.25328e-05
1.9543e-05
3.1114e-05
1.92661e-05
6.92467e-05
3.25329e-05
7.08194e-05
7.08198e-05
7.07973e-05
2.42699e-05
6.6964e-05
3.89595e-05
2.42741e-05
6.69696e-05
3.89704e-05
7.28276e-05
7.28212e-05
7.57181e-05
7.13724e-05
6.30858e-05
6.26201e-05
7.13931e-05
7.15065e-05
3.20647e-05
3.93114e-05
7.2554e-05
3.89003e-05
7.26675e-05
7.14404e-05
7.13731e-05
6.92205e-05
6.30691e-05
6.26033e-05
7.13932e-05
7.15059e-05
3.20649e-05
7.25532e-05
3.93107e-05
7.2667e-05
3.88989e-05
7.144e-05
7.13731e-05
6.92207e-05
6.30693e-05
6.26036e-05
7.13931e-05
7.15058e-05
3.2065e-05
3.93118e-05
7.25533e-05
3.8899e-05
7.26669e-05
7.14399e-05
3.82611e-05
2.40857e-05
4.63265e-05
6.69623e-05
3.85419e-05
2.39976e-05
6.69605e-05
3.8274e-05
2.40922e-05
4.63351e-05
6.69679e-05
3.86118e-05
2.40035e-05
6.6966e-05
7.48579e-05
7.28255e-05
7.28188e-05
7.54432e-05
7.28022e-05
7.27959e-05
7.09028e-05
7.09032e-05
3.92593e-05
2.42766e-05
6.69693e-05
4.72059e-05
6.69756e-05
3.9021e-05
2.43703e-05
3.92826e-05
2.42532e-05
6.69639e-05
4.71939e-05
2.43803e-05
3.89207e-05
6.69701e-05
7.62648e-05
7.28213e-05
7.28277e-05
7.28432e-05
7.57159e-05
7.28495e-05
7.07966e-05
7.14105e-05
6.33078e-05
6.92697e-05
6.37489e-05
7.13906e-05
7.1247e-05
3.2824e-05
3.96106e-05
7.23689e-05
4.00263e-05
7.1308e-05
7.22619e-05
7.14104e-05
6.32906e-05
6.9266e-05
7.13912e-05
6.37317e-05
7.12466e-05
3.28241e-05
7.23684e-05
3.9609e-05
7.13075e-05
7.22611e-05
4.00254e-05
1.91584e-05
1.91579e-05
2.30865e-05
2.28552e-05
1.86494e-05
1.91708e-05
1.91703e-05
2.29272e-05
1.92123e-05
1.92117e-05
2.3165e-05
1.91581e-05
1.91586e-05
1.84302e-05
1.91257e-05
2.30864e-05
1.91249e-05
2.07947e-05
2.11648e-05
2.07944e-05
2.07946e-05
2.11647e-05
1.85849e-05
1.98681e-05
2.53163e-05
3.12293e-05
1.86385e-05
1.98711e-05
2.5413e-05
1.81602e-05
1.92707e-05
2.08474e-05
1.80824e-05
1.82472e-05
2.08891e-05
1.79913e-05
1.87212e-05
2.51098e-05
1.86609e-05
2.50166e-05
1.8385e-05
1.92607e-05
2.07643e-05
1.81561e-05
1.82935e-05
2.07281e-05
1.8249e-05
1.87208e-05
1.98556e-05
3.07616e-05
2.51077e-05
2.50145e-05
1.98568e-05
1.86604e-05
1.83848e-05
1.92608e-05
1.8156e-05
2.07644e-05
1.82489e-05
2.07282e-05
1.82933e-05
1.87211e-05
1.98567e-05
3.0764e-05
2.51085e-05
2.50153e-05
1.98578e-05
1.86607e-05
1.83847e-05
1.92609e-05
1.81559e-05
2.07646e-05
1.82488e-05
2.07283e-05
1.82932e-05
1.85845e-05
1.98687e-05
2.53137e-05
3.12302e-05
1.98714e-05
1.86381e-05
2.54107e-05
1.816e-05
1.92707e-05
1.80823e-05
2.08473e-05
1.79912e-05
1.8247e-05
2.08892e-05
1.83885e-05
4.89717e-05
4.99447e-05
1.87438e-05
3.46117e-05
1.8072e-05
1.83724e-05
6.94135e-05
1.9518e-05
1.90943e-05
1.91334e-05
1.83882e-05
1.79329e-05
1.79979e-05
1.90933e-05
1.85545e-05
3.23565e-05
4.8772e-05
1.90932e-05
1.85554e-05
1.85542e-05
1.85556e-05
1.89365e-05
3.43899e-05
1.84896e-05
1.79977e-05
1.90943e-05
1.85553e-05
1.85553e-05
1.79974e-05
7.0593e-05
1.79333e-05
1.83874e-05
3.2621e-05
3.34213e-05
1.83883e-05
1.83871e-05
1.7933e-05
1.83883e-05
7.04828e-05
1.77041e-05
7.04457e-05
7.05504e-05
7.0483e-05
1.8744e-05
1.94494e-05
3.26223e-05
1.82269e-05
1.85559e-05
1.95665e-05
3.31489e-05
1.79333e-05
4.89753e-05
4.97592e-05
1.77518e-05
4.97597e-05
7.05502e-05
7.04829e-05
7.04457e-05
1.77045e-05
4.99467e-05
7.04458e-05
3.46117e-05
6.9362e-05
3.55246e-05
6.94096e-05
1.94493e-05
1.85557e-05
1.83873e-05
1.82259e-05
3.31474e-05
3.26205e-05
1.95666e-05
6.94055e-05
6.93579e-05
3.55244e-05
1.83726e-05
1.96374e-05
3.34219e-05
3.57588e-05
6.94177e-05
1.80708e-05
3.34205e-05
1.96374e-05
3.57587e-05
3.33249e-05
3.25327e-05
6.92968e-05
7.07235e-05
3.33266e-05
6.92978e-05
1.99895e-05
2.01241e-05
2.0124e-05
2.01239e-05
2.01239e-05
1.95179e-05
1.95178e-05
1.92976e-05
1.89087e-05
3.15955e-05
1.93363e-05
7.08199e-05
7.07235e-05
1.92974e-05
1.95431e-05
3.11133e-05
1.89085e-05
1.9266e-05
1.93362e-05
3.15957e-05
1.82772e-05
4.77318e-05
4.77399e-05
3.55239e-05
6.93611e-05
3.46111e-05
6.94087e-05
3.55253e-05
6.93622e-05
3.46109e-05
6.94098e-05
1.97962e-05
1.9324e-05
1.93238e-05
7.05509e-05
7.04834e-05
1.95664e-05
1.87439e-05
3.26197e-05
1.82268e-05
1.94491e-05
1.85558e-05
3.31468e-05
1.77512e-05
4.97547e-05
4.89708e-05
4.89777e-05
4.97627e-05
7.07228e-05
7.07232e-05
1.82778e-05
4.77322e-05
4.77403e-05
7.05927e-05
7.06729e-05
7.05932e-05
7.06734e-05
1.81947e-05
4.87684e-05
4.87769e-05
4.79483e-05
4.79555e-05
3.33263e-05
6.92463e-05
3.25329e-05
6.9293e-05
1.92975e-05
1.95431e-05
1.89077e-05
1.92662e-05
3.1596e-05
1.93362e-05
1.92977e-05
3.11173e-05
1.9543e-05
1.89075e-05
1.92664e-05
3.15992e-05
1.93362e-05
3.35328e-05
6.93529e-05
6.9305e-05
3.43885e-05
6.9349e-05
3.35326e-05
6.93012e-05
3.43897e-05
1.93254e-05
1.87281e-05
3.23558e-05
1.89366e-05
3.18493e-05
1.91341e-05
1.93996e-05
1.85543e-05
1.93254e-05
1.87278e-05
1.89366e-05
3.1852e-05
1.9134e-05
1.93998e-05
1.8278e-05
4.77408e-05
4.77305e-05
7.07226e-05
7.05931e-05
7.06736e-05
1.79981e-05
4.87729e-05
1.81947e-05
4.79527e-05
4.79494e-05
7.05929e-05
7.0673e-05
1.92975e-05
1.89086e-05
3.15984e-05
1.93362e-05
3.33265e-05
6.92469e-05
3.25328e-05
6.92937e-05
1.92976e-05
1.95428e-05
3.11169e-05
1.89074e-05
1.9266e-05
1.9336e-05
3.15993e-05
3.35325e-05
6.9354e-05
6.93059e-05
3.43905e-05
1.93253e-05
1.8729e-05
3.23586e-05
1.89365e-05
3.18514e-05
1.91341e-05
1.93998e-05
3.35327e-05
6.93498e-05
6.93018e-05
3.43907e-05
1.93253e-05
1.87278e-05
1.89363e-05
3.23594e-05
1.91338e-05
3.18524e-05
1.93999e-05
3.3326e-05
6.92972e-05
1.92976e-05
1.89076e-05
1.93361e-05
3.15964e-05
3.33261e-05
6.92937e-05
1.89367e-05
1.93998e-05
3.23583e-05
1.93254e-05
1.87291e-05
3.18497e-05
1.91342e-05
3.43899e-05
6.93538e-05
3.35329e-05
6.93058e-05
1.93999e-05
1.85544e-05
3.23574e-05
1.93254e-05
1.87279e-05
1.9134e-05
3.18494e-05
6.93499e-05
3.35331e-05
6.93017e-05
4.68865e-05
4.68804e-05
1.82775e-05
4.77401e-05
4.77338e-05
7.08192e-05
7.0723e-05
7.05936e-05
7.06738e-05
1.81945e-05
4.87766e-05
4.87701e-05
4.79561e-05
4.79499e-05
7.05929e-05
7.06732e-05
1.92976e-05
1.9543e-05
3.11165e-05
1.89086e-05
1.92661e-05
1.93362e-05
3.15991e-05
3.33265e-05
6.92508e-05
3.25327e-05
6.92978e-05
3.33265e-05
6.92469e-05
3.2533e-05
6.92938e-05
1.93252e-05
1.87289e-05
1.89366e-05
3.23557e-05
1.91341e-05
3.18487e-05
1.93997e-05
1.93254e-05
1.87289e-05
1.89365e-05
3.23582e-05
1.9134e-05
3.18522e-05
1.93998e-05
3.35327e-05
6.9354e-05
6.93059e-05
3.43904e-05
3.35331e-05
6.93499e-05
6.9302e-05
3.43904e-05
7.07231e-05
7.07236e-05
4.87696e-05
1.81942e-05
4.87742e-05
4.79486e-05
4.79547e-05
7.06733e-05
7.05934e-05
7.06739e-05
7.05499e-05
7.04825e-05
7.05506e-05
7.04832e-05
4.89708e-05
4.89783e-05
1.77516e-05
4.97553e-05
4.9764e-05
6.93573e-05
6.94047e-05
3.55245e-05
3.46109e-05
1.95664e-05
3.26201e-05
1.8744e-05
1.82259e-05
1.9449e-05
3.31471e-05
1.85558e-05
1.83871e-05
3.31486e-05
1.82259e-05
1.95664e-05
1.87439e-05
1.94493e-05
1.85558e-05
6.94127e-05
3.57582e-05
1.80706e-05
1.96374e-05
1.83725e-05
1.95665e-05
3.26227e-05
1.87439e-05
1.82268e-05
1.94492e-05
3.31499e-05
1.85558e-05
3.55254e-05
6.9358e-05
3.46112e-05
6.94055e-05
1.95666e-05
1.87436e-05
3.26237e-05
1.82257e-05
1.94492e-05
1.85555e-05
3.31507e-05
3.57585e-05
1.96374e-05
1.83725e-05
3.57585e-05
6.94135e-05
1.96374e-05
1.80706e-05
1.83722e-05
3.34238e-05
4.89788e-05
4.89724e-05
1.77514e-05
4.97634e-05
4.9757e-05
7.05502e-05
7.04828e-05
7.04464e-05
1.77042e-05
4.99512e-05
4.99449e-05
7.04457e-05
1.82268e-05
1.95665e-05
1.87439e-05
3.26232e-05
1.94493e-05
1.85558e-05
3.31505e-05
3.5525e-05
6.93622e-05
3.46113e-05
6.94098e-05
3.55252e-05
6.93583e-05
3.46115e-05
6.94057e-05
1.80717e-05
3.34198e-05
6.94178e-05
7.05503e-05
7.05509e-05
7.04835e-05
4.99425e-05
4.99506e-05
7.04464e-05
4.19997e-05
6.70568e-05
2.55187e-05
4.92708e-05
6.70812e-05
4.17632e-05
2.56311e-05
4.33567e-05
2.62242e-05
5.02315e-05
6.71393e-05
4.30935e-05
6.71709e-05
2.63564e-05
7.06127e-05
7.13069e-05
4.24887e-05
3.4949e-05
7.12255e-05
4.29128e-05
7.06553e-05
7.14662e-05
6.94327e-05
6.66947e-05
7.1455e-05
6.70108e-05
4.10772e-05
6.70454e-05
2.52913e-05
4.84664e-05
4.13199e-05
2.51829e-05
6.70245e-05
7.07981e-05
7.14642e-05
4.21909e-05
3.40634e-05
7.07512e-05
7.15519e-05
4.17674e-05
7.06094e-05
7.0496e-05
7.04338e-05
7.05359e-05
7.0496e-05
7.90478e-05
7.29e-05
7.29067e-05
7.29149e-05
7.29209e-05
7.86302e-05
4.21018e-05
6.70561e-05
2.54996e-05
4.92741e-05
2.56706e-05
6.70834e-05
4.17055e-05
4.24515e-05
4.94668e-05
2.59891e-05
6.71249e-05
6.70965e-05
4.26996e-05
2.5875e-05
7.92407e-05
7.29257e-05
7.29312e-05
7.29126e-05
7.29182e-05
7.96302e-05
4.23677e-05
4.94652e-05
2.60179e-05
6.71255e-05
2.58407e-05
6.70949e-05
4.2757e-05
7.05357e-05
7.0496e-05
7.0434e-05
8.01733e-05
7.29219e-05
7.29272e-05
7.98099e-05
7.29337e-05
7.29384e-05
4.34354e-05
2.6208e-05
6.71411e-05
5.02354e-05
4.30604e-05
6.71749e-05
2.63882e-05
7.0434e-05
7.06134e-05
4.24901e-05
7.13074e-05
3.4949e-05
4.2916e-05
7.12263e-05
7.06558e-05
7.14589e-05
6.57038e-05
6.93819e-05
6.60569e-05
7.14442e-05
7.05256e-05
3.51771e-05
4.36344e-05
7.10012e-05
4.3209e-05
7.10762e-05
7.04874e-05
7.14512e-05
6.939e-05
6.65568e-05
6.62227e-05
7.14645e-05
7.14508e-05
6.93859e-05
6.65382e-05
6.62043e-05
7.14634e-05
7.1458e-05
6.56855e-05
6.93778e-05
6.60385e-05
7.14439e-05
7.05251e-05
3.51772e-05
4.36312e-05
7.10005e-05
7.10757e-05
4.32076e-05
7.04867e-05
7.03732e-05
4.3924e-05
7.08587e-05
3.61161e-05
7.04075e-05
4.43479e-05
7.07895e-05
7.14674e-05
6.67133e-05
6.94371e-05
7.14555e-05
6.70297e-05
7.03725e-05
4.39222e-05
7.08582e-05
3.61158e-05
7.0407e-05
7.07888e-05
4.43449e-05
7.11245e-05
3.30226e-05
7.1983e-05
4.07466e-05
7.20831e-05
4.03265e-05
7.10682e-05
7.14103e-05
6.33084e-05
7.13909e-05
6.37496e-05
7.12473e-05
3.28237e-05
7.23686e-05
3.96098e-05
7.13081e-05
7.22621e-05
4.0027e-05
7.14076e-05
6.43762e-05
6.92771e-05
6.3959e-05
7.1426e-05
7.07435e-05
7.11242e-05
3.30223e-05
4.07474e-05
7.1983e-05
4.03262e-05
7.20832e-05
7.10682e-05
7.14078e-05
6.43766e-05
6.92781e-05
6.39591e-05
7.1426e-05
7.07973e-05
7.07435e-05
7.65233e-05
7.2872e-05
7.28652e-05
7.28513e-05
7.28449e-05
7.70364e-05
3.92409e-05
4.71966e-05
2.43635e-05
6.697e-05
3.93166e-05
4.72037e-05
2.43732e-05
6.6976e-05
7.62667e-05
7.28498e-05
7.2843e-05
3.96581e-05
6.69864e-05
4.74187e-05
2.46579e-05
2.4559e-05
6.69749e-05
3.9939e-05
3.96659e-05
6.69926e-05
4.74261e-05
2.46717e-05
2.45601e-05
6.69806e-05
4.00214e-05
7.05259e-05
3.51775e-05
7.10012e-05
4.36335e-05
7.10762e-05
4.32089e-05
7.04874e-05
7.14586e-05
6.57037e-05
6.93809e-05
7.14444e-05
6.6057e-05
7.06134e-05
3.49477e-05
7.13074e-05
4.24895e-05
7.06561e-05
7.12263e-05
4.29148e-05
7.14514e-05
6.65568e-05
6.93891e-05
6.62226e-05
7.14641e-05
7.05257e-05
3.51766e-05
4.36342e-05
7.10013e-05
4.32087e-05
7.10761e-05
7.04874e-05
7.14587e-05
6.57042e-05
6.93821e-05
7.14445e-05
6.60574e-05
7.06134e-05
3.49495e-05
4.24897e-05
7.13073e-05
7.06559e-05
4.29155e-05
7.12264e-05
7.14516e-05
6.65572e-05
6.93902e-05
6.6223e-05
7.14643e-05
7.05363e-05
7.04966e-05
4.23879e-05
2.59944e-05
4.94629e-05
6.71221e-05
2.58566e-05
6.70929e-05
4.27041e-05
4.20291e-05
2.5512e-05
4.9268e-05
6.70538e-05
2.56385e-05
4.17112e-05
6.70794e-05
7.92437e-05
7.29319e-05
7.29255e-05
7.29183e-05
7.29123e-05
7.96329e-05
4.20767e-05
2.55182e-05
6.70592e-05
4.92755e-05
4.17539e-05
2.56523e-05
6.70849e-05
7.90504e-05
7.29062e-05
7.29001e-05
7.86327e-05
7.29213e-05
7.29149e-05
4.24351e-05
2.60087e-05
6.71281e-05
4.94707e-05
2.58645e-05
6.70985e-05
4.27539e-05
7.07428e-05
7.07432e-05
7.65186e-05
7.28715e-05
7.28649e-05
7.28512e-05
7.28446e-05
7.70316e-05
3.96339e-05
6.69865e-05
4.74192e-05
2.46576e-05
6.69746e-05
3.99618e-05
2.45583e-05
3.96789e-05
6.69928e-05
4.74262e-05
2.46646e-05
6.69808e-05
4.00023e-05
2.4565e-05
7.06089e-05
7.06549e-05
7.06094e-05
7.06554e-05
7.775e-05
7.28726e-05
7.28659e-05
7.72709e-05
7.28911e-05
7.28844e-05
4.10191e-05
2.52995e-05
4.84656e-05
6.70417e-05
6.70201e-05
2.5177e-05
4.13476e-05
4.10679e-05
2.53073e-05
4.8473e-05
6.70484e-05
6.70267e-05
2.51852e-05
4.13918e-05
4.06573e-05
6.69936e-05
2.48603e-05
4.82563e-05
4.03286e-05
6.70106e-05
2.4971e-05
4.06995e-05
6.7e-05
2.48678e-05
4.82647e-05
4.03755e-05
6.70171e-05
2.49782e-05
7.7973e-05
7.29076e-05
7.29008e-05
7.28913e-05
7.28846e-05
7.84203e-05
7.11238e-05
3.30226e-05
7.19822e-05
4.07461e-05
7.20827e-05
4.03252e-05
7.10678e-05
7.14108e-05
6.32917e-05
6.92653e-05
7.13912e-05
6.37329e-05
7.12468e-05
3.28244e-05
7.23682e-05
3.96088e-05
7.22613e-05
7.13076e-05
4.00266e-05
7.14077e-05
6.43592e-05
6.92736e-05
6.39421e-05
7.14262e-05
7.09033e-05
7.18109e-05
4.10464e-05
3.38476e-05
7.09548e-05
7.17173e-05
4.14697e-05
7.14346e-05
6.9333e-05
6.55281e-05
7.14503e-05
6.51547e-05
7.14394e-05
6.45739e-05
6.93248e-05
7.14223e-05
6.49685e-05
7.07989e-05
3.4063e-05
7.1465e-05
4.21929e-05
7.07519e-05
7.15523e-05
4.17681e-05
7.14343e-05
6.93292e-05
6.55105e-05
6.51372e-05
7.14502e-05
7.09027e-05
7.18105e-05
4.10453e-05
3.38487e-05
7.09543e-05
7.17166e-05
4.1468e-05
7.14395e-05
6.9321e-05
6.45566e-05
7.14222e-05
6.49512e-05
7.07983e-05
4.21908e-05
3.4063e-05
7.14644e-05
7.15519e-05
4.17671e-05
7.07513e-05
7.65211e-05
7.28653e-05
7.28717e-05
7.28449e-05
7.28513e-05
7.70343e-05
3.97227e-05
6.69916e-05
4.74232e-05
2.46652e-05
6.69802e-05
2.45656e-05
3.99565e-05
3.96135e-05
6.69869e-05
4.74204e-05
2.46794e-05
2.45382e-05
6.69749e-05
3.9988e-05
7.07427e-05
7.06094e-05
7.06556e-05
7.79755e-05
7.2901e-05
7.29078e-05
7.84226e-05
7.28846e-05
7.28917e-05
4.10252e-05
6.70441e-05
2.53284e-05
4.84707e-05
4.14076e-05
6.70219e-05
2.51685e-05
7.77523e-05
7.28662e-05
7.28727e-05
7.72734e-05
7.28845e-05
7.28914e-05
4.06401e-05
4.82623e-05
6.69995e-05
2.48722e-05
2.49698e-05
4.04216e-05
6.70156e-05
4.06999e-05
4.82576e-05
6.69939e-05
2.48401e-05
4.03028e-05
6.70114e-05
2.49971e-05
7.06091e-05
7.06549e-05
7.11238e-05
3.30223e-05
7.1983e-05
4.07459e-05
7.20822e-05
4.0326e-05
7.10677e-05
7.14104e-05
6.329e-05
6.92659e-05
7.1391e-05
6.3731e-05
7.12466e-05
3.28245e-05
7.23677e-05
3.96097e-05
7.22621e-05
7.13076e-05
4.0026e-05
7.14075e-05
6.43575e-05
6.9274e-05
6.39404e-05
7.14258e-05
7.09033e-05
4.10463e-05
7.1811e-05
3.38492e-05
7.09546e-05
4.14702e-05
7.17173e-05
7.14348e-05
6.93341e-05
6.55286e-05
7.14504e-05
6.51551e-05
7.14395e-05
6.45741e-05
6.93259e-05
7.14225e-05
6.49689e-05
7.07987e-05
3.40628e-05
4.21936e-05
7.14651e-05
7.07519e-05
4.17683e-05
7.15523e-05
7.09027e-05
7.181e-05
4.1046e-05
3.38493e-05
7.09542e-05
7.17173e-05
4.14685e-05
7.14342e-05
6.93299e-05
6.5509e-05
6.51359e-05
7.14499e-05
7.14391e-05
6.45551e-05
6.93217e-05
7.1422e-05
6.49496e-05
7.07982e-05
3.4063e-05
7.1465e-05
4.21916e-05
7.15514e-05
4.17677e-05
7.07513e-05
7.11242e-05
3.30227e-05
4.07467e-05
7.19828e-05
4.03267e-05
7.20834e-05
7.1068e-05
7.14074e-05
6.43757e-05
6.92776e-05
6.39584e-05
7.14261e-05
7.11237e-05
3.3023e-05
7.19821e-05
4.07453e-05
7.20828e-05
4.03257e-05
7.10676e-05
7.14077e-05
6.43583e-05
6.92739e-05
6.39411e-05
7.14259e-05
7.07985e-05
4.21941e-05
7.14649e-05
3.40634e-05
7.07518e-05
4.17688e-05
7.15524e-05
7.14344e-05
6.5528e-05
6.9334e-05
7.14505e-05
6.51548e-05
7.09031e-05
3.38485e-05
4.10468e-05
7.18111e-05
7.09546e-05
4.14698e-05
7.17172e-05
7.14395e-05
6.93254e-05
6.45735e-05
7.14221e-05
6.49679e-05
7.14343e-05
6.55099e-05
6.933e-05
7.14499e-05
6.51367e-05
7.09027e-05
3.38485e-05
7.18106e-05
4.10457e-05
7.0954e-05
7.17164e-05
4.14678e-05
7.14391e-05
6.93215e-05
6.45558e-05
7.14222e-05
6.49504e-05
7.65211e-05
7.28651e-05
7.28716e-05
7.28449e-05
7.28513e-05
7.70341e-05
3.93037e-05
2.42763e-05
6.69695e-05
4.72042e-05
6.6976e-05
3.89808e-05
2.43706e-05
3.92634e-05
2.42695e-05
6.69642e-05
4.7198e-05
2.43634e-05
3.89378e-05
6.69705e-05
7.62645e-05
7.28213e-05
7.28277e-05
7.2843e-05
7.5716e-05
7.28494e-05
3.96797e-05
6.69925e-05
4.74269e-05
2.46677e-05
6.69805e-05
2.45639e-05
4.00044e-05
3.9635e-05
6.69869e-05
4.74208e-05
2.46577e-05
2.45584e-05
6.6975e-05
3.99619e-05
7.0797e-05
7.0743e-05
7.06097e-05
7.06558e-05
7.77526e-05
7.28662e-05
7.28727e-05
7.72734e-05
7.28846e-05
7.28912e-05
4.10689e-05
2.53107e-05
4.84736e-05
6.70482e-05
2.51836e-05
6.70264e-05
4.13938e-05
4.10206e-05
2.52984e-05
4.84673e-05
6.70421e-05
6.70206e-05
2.51784e-05
4.13479e-05
4.07017e-05
6.69997e-05
2.48661e-05
4.82644e-05
2.49817e-05
4.03764e-05
6.70169e-05
4.06574e-05
6.69941e-05
2.48616e-05
4.8258e-05
4.03299e-05
6.7011e-05
2.49699e-05
7.79756e-05
7.29011e-05
7.29077e-05
7.28848e-05
7.28914e-05
7.84229e-05
7.06091e-05
7.06552e-05
7.11242e-05
3.30226e-05
4.07472e-05
7.19828e-05
4.03266e-05
7.20831e-05
7.1068e-05
7.14106e-05
6.33082e-05
6.92701e-05
6.37493e-05
7.13906e-05
7.12469e-05
3.28246e-05
3.96101e-05
7.23686e-05
4.0027e-05
7.1308e-05
7.22619e-05
7.14073e-05
6.43761e-05
6.92781e-05
6.39589e-05
7.14262e-05
7.11236e-05
3.3023e-05
4.07461e-05
7.19822e-05
4.03256e-05
7.20827e-05
7.10675e-05
7.14104e-05
6.32909e-05
6.92662e-05
7.13911e-05
6.37321e-05
7.12465e-05
3.28246e-05
3.96091e-05
7.23683e-05
7.13074e-05
4.00264e-05
7.22612e-05
7.14077e-05
6.43586e-05
6.92742e-05
6.39413e-05
7.14258e-05
7.09031e-05
4.10465e-05
7.18109e-05
3.3849e-05
7.09545e-05
4.14702e-05
7.17172e-05
7.14343e-05
6.93341e-05
6.5528e-05
6.51548e-05
7.14506e-05
7.14396e-05
6.45738e-05
6.93259e-05
7.1422e-05
6.49683e-05
7.07985e-05
3.40631e-05
4.21935e-05
7.14649e-05
4.1768e-05
7.15522e-05
7.07518e-05
7.09026e-05
4.10459e-05
7.18105e-05
3.38489e-05
7.09539e-05
4.14684e-05
7.17165e-05
7.14343e-05
6.93301e-05
6.55098e-05
6.51368e-05
7.14499e-05
7.14391e-05
6.45561e-05
6.93219e-05
7.14222e-05
6.49505e-05
7.0798e-05
3.40633e-05
4.21918e-05
7.14643e-05
4.17671e-05
7.15518e-05
7.07511e-05
7.07971e-05
7.07431e-05
7.07976e-05
7.07436e-05
4.10547e-05
2.52982e-05
4.84685e-05
6.70424e-05
4.13521e-05
2.51899e-05
6.70216e-05
7.77547e-05
7.28726e-05
7.28661e-05
7.72755e-05
7.28915e-05
7.28848e-05
4.10383e-05
2.53065e-05
4.84698e-05
6.70471e-05
4.13866e-05
2.51767e-05
6.70249e-05
4.06338e-05
4.82555e-05
6.69937e-05
2.48648e-05
4.03543e-05
2.49676e-05
6.70098e-05
4.07218e-05
6.69998e-05
2.48621e-05
4.82644e-05
4.03576e-05
2.49853e-05
6.70176e-05
7.7978e-05
7.29078e-05
7.29012e-05
7.84256e-05
7.28914e-05
7.28846e-05
7.06552e-05
7.06097e-05
7.06557e-05
7.05354e-05
7.04956e-05
7.0536e-05
7.04963e-05
7.92387e-05
7.29317e-05
7.29249e-05
7.29187e-05
7.29119e-05
7.96279e-05
4.20312e-05
2.55084e-05
6.70533e-05
4.92683e-05
4.17038e-05
6.7079e-05
2.56421e-05
4.20771e-05
2.55171e-05
6.70601e-05
4.92768e-05
4.17543e-05
6.70859e-05
2.56505e-05
7.90454e-05
7.29065e-05
7.28998e-05
7.86281e-05
7.29211e-05
7.29143e-05
4.23808e-05
6.71218e-05
4.94634e-05
2.59979e-05
6.70925e-05
4.27064e-05
2.58537e-05
4.24329e-05
6.71289e-05
4.94711e-05
2.6007e-05
6.70994e-05
4.2754e-05
2.58628e-05
7.14583e-05
6.9377e-05
6.5686e-05
7.14439e-05
6.60391e-05
7.14508e-05
6.93851e-05
6.65387e-05
6.62046e-05
7.14637e-05
7.05253e-05
4.3631e-05
3.51766e-05
7.10006e-05
7.10757e-05
4.32072e-05
7.04868e-05
7.06128e-05
4.24883e-05
3.49487e-05
7.13069e-05
7.12257e-05
7.06555e-05
4.29125e-05
7.14663e-05
6.9432e-05
6.66949e-05
7.1455e-05
6.70113e-05
7.03726e-05
4.39219e-05
3.61159e-05
7.08582e-05
7.04072e-05
7.0789e-05
4.43446e-05
7.05253e-05
3.51768e-05
7.10011e-05
4.3632e-05
7.10753e-05
4.32078e-05
7.04868e-05
7.1458e-05
6.56848e-05
6.93778e-05
7.14438e-05
6.60378e-05
7.06128e-05
3.49498e-05
7.13064e-05
4.2489e-05
7.12263e-05
7.06554e-05
4.29135e-05
7.14507e-05
6.65375e-05
6.93859e-05
6.62036e-05
7.14634e-05
7.03732e-05
3.61169e-05
4.39237e-05
7.08586e-05
7.04076e-05
4.43482e-05
7.07896e-05
7.03726e-05
3.6117e-05
7.08579e-05
4.39225e-05
7.04072e-05
7.07893e-05
4.43457e-05
7.14662e-05
6.6694e-05
6.94328e-05
7.14549e-05
6.70101e-05
7.92414e-05
7.29251e-05
7.29318e-05
7.29122e-05
7.29188e-05
7.96306e-05
4.20791e-05
2.55158e-05
6.70598e-05
4.92764e-05
6.70857e-05
4.17553e-05
2.56539e-05
4.20316e-05
2.55098e-05
6.70538e-05
4.92699e-05
2.56412e-05
4.17053e-05
6.70795e-05
7.9048e-05
7.29e-05
7.29066e-05
7.29146e-05
7.86307e-05
7.29212e-05
4.2434e-05
6.71287e-05
4.94715e-05
2.60102e-05
6.70991e-05
2.58616e-05
4.2756e-05
4.23824e-05
6.71223e-05
4.94651e-05
2.59972e-05
2.58549e-05
6.7093e-05
4.27069e-05
7.05357e-05
7.0496e-05
7.04345e-05
8.01736e-05
7.29213e-05
7.29279e-05
7.98105e-05
7.29327e-05
7.29394e-05
4.34232e-05
6.71438e-05
2.62204e-05
5.02374e-05
2.63791e-05
4.31037e-05
6.71765e-05
4.33726e-05
6.71374e-05
2.6213e-05
5.0231e-05
4.30505e-05
6.71699e-05
2.63655e-05
7.04339e-05
7.05256e-05
3.5177e-05
4.36339e-05
7.10011e-05
4.32094e-05
7.1076e-05
7.04872e-05
7.14589e-05
6.57039e-05
6.93821e-05
6.6057e-05
7.1444e-05
7.06133e-05
3.49494e-05
4.24898e-05
7.13072e-05
4.29153e-05
7.06557e-05
7.12263e-05
7.1451e-05
6.65568e-05
6.93902e-05
6.62229e-05
7.14645e-05
7.0525e-05
3.5177e-05
4.36329e-05
7.10006e-05
4.32071e-05
7.10756e-05
7.04866e-05
7.1458e-05
6.56856e-05
6.9378e-05
7.14439e-05
6.60387e-05
7.06127e-05
3.49497e-05
4.24881e-05
7.13068e-05
7.06552e-05
4.29144e-05
7.12257e-05
7.14508e-05
6.65385e-05
6.93862e-05
6.62044e-05
7.14634e-05
7.14673e-05
6.67133e-05
6.94371e-05
7.14554e-05
6.70294e-05
7.05357e-05
7.05363e-05
7.04966e-05
4.337e-05
2.62147e-05
5.02285e-05
6.71373e-05
2.6363e-05
4.30561e-05
6.71696e-05
8.01759e-05
7.29275e-05
7.29215e-05
7.98127e-05
7.29395e-05
7.29331e-05
4.34213e-05
2.62229e-05
6.71433e-05
5.02367e-05
4.31047e-05
2.63776e-05
6.7176e-05
7.04345e-05
1.99898e-05
1.97161e-05
1.99896e-05
2.01861e-05
2.01863e-05
2.05814e-05
2.03924e-05
2.31651e-05
1.84295e-05
1.91252e-05
1.91249e-05
2.43024e-05
1.78701e-05
1.9077e-05
1.90777e-05
1.90762e-05
2.42002e-05
1.90771e-05
2.38945e-05
1.80598e-05
1.90701e-05
1.90698e-05
1.90759e-05
1.90755e-05
2.39912e-05
1.84552e-05
1.99976e-05
3.22316e-05
2.63909e-05
2.62835e-05
1.99823e-05
1.84212e-05
2.3165e-05
1.91579e-05
1.91586e-05
1.84298e-05
1.91254e-05
2.30863e-05
1.91247e-05
2.38948e-05
1.80596e-05
1.90699e-05
1.90702e-05
1.90755e-05
1.90759e-05
2.39916e-05
2.38949e-05
1.907e-05
1.80593e-05
1.90697e-05
2.39917e-05
1.90795e-05
1.90723e-05
2.43019e-05
1.90775e-05
1.90773e-05
1.78705e-05
2.41997e-05
1.90768e-05
1.90765e-05
1.83881e-05
2.00466e-05
3.27489e-05
2.66283e-05
2.00663e-05
1.84154e-05
2.67386e-05
1.83575e-05
2.02147e-05
3.35533e-05
2.73458e-05
2.02426e-05
1.83689e-05
2.74613e-05
2.43023e-05
1.90772e-05
1.90776e-05
1.78703e-05
1.90769e-05
2.42001e-05
1.90766e-05
2.49711e-05
1.91166e-05
1.76408e-05
1.91175e-05
1.91234e-05
2.48594e-05
1.91244e-05
1.77246e-05
1.75022e-05
2.14956e-05
1.94752e-05
2.15592e-05
1.74205e-05
1.77883e-05
1.8389e-05
2.00481e-05
2.66329e-05
3.27504e-05
2.00683e-05
2.67433e-05
1.84163e-05
1.76972e-05
1.95353e-05
1.73e-05
2.17672e-05
2.16984e-05
1.7378e-05
1.76394e-05
1.83872e-05
3.30184e-05
2.01494e-05
2.71003e-05
2.01247e-05
2.69871e-05
1.83678e-05
2.4302e-05
1.90747e-05
1.90803e-05
1.78708e-05
1.90797e-05
2.42002e-05
1.90739e-05
2.45215e-05
1.78149e-05
1.90924e-05
1.90957e-05
1.9089e-05
2.46287e-05
1.9093e-05
2.49706e-05
1.91152e-05
1.76414e-05
1.91191e-05
2.48587e-05
1.91263e-05
1.91217e-05
1.77243e-05
1.7502e-05
2.1495e-05
1.94752e-05
1.74204e-05
2.15586e-05
1.7788e-05
1.83863e-05
2.0148e-05
3.30172e-05
2.70956e-05
2.69829e-05
1.83669e-05
2.01241e-05
1.8388e-05
2.66287e-05
2.00469e-05
3.27484e-05
2.67387e-05
2.00665e-05
1.84154e-05
1.76969e-05
1.95354e-05
1.73e-05
2.17666e-05
1.73779e-05
2.16979e-05
1.76392e-05
1.75637e-05
1.72621e-05
2.1917e-05
1.96739e-05
1.76156e-05
2.19908e-05
1.71887e-05
1.83582e-05
2.02158e-05
2.73504e-05
3.35544e-05
1.83697e-05
2.02442e-05
2.7466e-05
1.83573e-05
2.02144e-05
3.35526e-05
2.7346e-05
1.83687e-05
2.74612e-05
2.02424e-05
1.75635e-05
1.72619e-05
2.19164e-05
1.9674e-05
1.76153e-05
1.71886e-05
2.19901e-05
1.95178e-05
1.9716e-05
1.99897e-05
2.0186e-05
2.01863e-05
2.05814e-05
2.03923e-05
2.05885e-05
2.05887e-05
1.99181e-05
2.03857e-05
2.03859e-05
2.07731e-05
2.09676e-05
2.05884e-05
2.05887e-05
1.99182e-05
2.03857e-05
2.03859e-05
2.07731e-05
2.09676e-05
2.05883e-05
2.05885e-05
1.9918e-05
2.03856e-05
2.03858e-05
2.0773e-05
2.09675e-05
2.05884e-05
2.05886e-05
1.9918e-05
2.03856e-05
2.03858e-05
2.07731e-05
2.09675e-05
1.97162e-05
1.99896e-05
1.99898e-05
2.01862e-05
2.01864e-05
2.05815e-05
2.03923e-05
1.9716e-05
1.99894e-05
1.99897e-05
2.0186e-05
2.01863e-05
2.05814e-05
2.03923e-05
1.81184e-05
1.92877e-05
2.10315e-05
1.78353e-05
2.0984e-05
1.79246e-05
1.8037e-05
1.85667e-05
2.57289e-05
3.14762e-05
1.99e-05
1.98927e-05
2.56282e-05
1.85199e-05
1.81182e-05
1.92875e-05
1.7835e-05
2.10312e-05
1.79244e-05
2.09838e-05
1.80367e-05
1.85846e-05
1.98685e-05
2.53161e-05
3.12294e-05
1.86383e-05
1.98712e-05
2.54128e-05
1.816e-05
1.92706e-05
1.80823e-05
2.08472e-05
1.8247e-05
1.7991e-05
2.0889e-05
1.85665e-05
2.57285e-05
3.14762e-05
1.99e-05
1.9893e-05
2.56281e-05
1.85196e-05
2.33375e-05
1.83376e-05
1.90928e-05
1.90924e-05
1.91177e-05
1.91172e-05
2.34223e-05
1.96058e-05
1.93238e-05
1.91332e-05
1.97965e-05
1.9606e-05
2.00221e-05
2.0206e-05
1.97964e-05
1.97966e-05
1.91333e-05
1.96059e-05
1.96061e-05
2.00222e-05
2.02061e-05
1.97962e-05
1.97965e-05
1.91332e-05
1.96058e-05
1.9606e-05
2.00221e-05
2.0206e-05
1.76969e-05
1.95352e-05
1.72999e-05
2.17667e-05
1.73779e-05
2.16981e-05
1.76391e-05
1.83882e-05
2.00464e-05
2.66316e-05
3.27478e-05
1.84156e-05
2.00662e-05
2.67415e-05
1.77242e-05
1.9475e-05
1.7502e-05
2.14951e-05
1.77879e-05
1.74202e-05
2.15586e-05
1.83866e-05
2.70986e-05
3.30166e-05
2.01478e-05
2.01238e-05
2.6986e-05
1.83672e-05