/*--------------------------------*- C++ -*----------------------------------*\
| =========                 |                                                 |
| \\      /  F ield         | OpenFOAM: The Open Source CFD Toolbox           |
|  \\    /   O peration     | Version:  v2006                                 |
|   \\  /    A nd           | Website:  www.openfoam.com                      |
|    \\/     M anipulation  |                                                 |
\*---------------------------------------------------------------------------*/
FoamFile
{
    version     2.0;
    format      ascii;
    class       volScalarField;
    location    "125";
    object      nut;
}
// * * * * * * * * * * * * * * * * * * * * * * * * * * * * * * * * * * * * * //

dimensions      [0 2 -1 0 0 0 0];


internalField   nonuniform List<scalar> 
14298
(
2.3636e-05
2.3634e-05
8.30551e-05
6.05669e-05
6.05651e-05
6.78955e-05
4.95432e-05
6.78935e-05
6.47503e-05
0.000103272
6.4804e-05
0.000128202
6.4749e-05
0.000128194
6.78978e-05
4.95387e-05
6.4749e-05
0.000103301
6.48015e-05
0.0001282
6.78897e-05
4.95351e-05
6.47479e-05
0.00010326
0.000128193
6.4804e-05
0.000103271
6.48015e-05
4.95371e-05
2.3633e-05
8.30509e-05
6.05608e-05
6.0568e-05
2.36348e-05
6.47492e-05
0.000103302
0.000128204
6.48024e-05
6.47478e-05
0.000103295
0.000128208
6.47989e-05
6.78985e-05
4.95396e-05
6.78969e-05
4.95353e-05
8.30442e-05
6.05633e-05
6.05615e-05
2.36343e-05
2.36332e-05
2.36355e-05
2.36335e-05
7.04061e-05
2.156e-05
2.15569e-05
7.02733e-05
2.15595e-05
2.15564e-05
7.31596e-05
4.71186e-05
6.96732e-05
6.07795e-05
7.28117e-05
4.71283e-05
7.01391e-05
7.32074e-05
4.71077e-05
6.96793e-05
6.07778e-05
7.2851e-05
4.71174e-05
7.01497e-05
3.6187e-05
4.03189e-05
6.95412e-05
6.83736e-05
3.61841e-05
4.03233e-05
6.98591e-05
2.02242e-05
6.80084e-05
4.95472e-05
2.02244e-05
6.81445e-05
3.61847e-05
4.03188e-05
6.95326e-05
6.83714e-05
3.61819e-05
4.03231e-05
6.98493e-05
3.61863e-05
6.95398e-05
4.03181e-05
6.83698e-05
3.61834e-05
6.98562e-05
4.03225e-05
2.02239e-05
6.80075e-05
4.95428e-05
2.0224e-05
6.81427e-05
3.61841e-05
4.03178e-05
6.95257e-05
6.83744e-05
3.61813e-05
4.03221e-05
6.98545e-05
2.02226e-05
6.7987e-05
4.95392e-05
2.02228e-05
6.8123e-05
4.95412e-05
2.36326e-05
7.04081e-05
2.15567e-05
2.15601e-05
7.02753e-05
2.15563e-05
2.15596e-05
7.32039e-05
4.71078e-05
6.9681e-05
6.0776e-05
7.01465e-05
7.28568e-05
4.71175e-05
7.31662e-05
4.71185e-05
6.9673e-05
6.07811e-05
7.28089e-05
4.71282e-05
7.0143e-05
2.36344e-05
3.61866e-05
6.95343e-05
4.03181e-05
6.83699e-05
3.61838e-05
6.9864e-05
4.03224e-05
2.02241e-05
6.80017e-05
4.95437e-05
2.02241e-05
6.81465e-05
3.61841e-05
6.95319e-05
4.03175e-05
6.83672e-05
3.61812e-05
6.98486e-05
4.03219e-05
2.02226e-05
6.7989e-05
4.95394e-05
2.02227e-05
6.81244e-05
7.04098e-05
2.15596e-05
2.15565e-05
7.02755e-05
2.15592e-05
2.15561e-05
7.31635e-05
4.71173e-05
6.96736e-05
6.07766e-05
7.28117e-05
7.01402e-05
4.7127e-05
7.32061e-05
4.71076e-05
6.96809e-05
6.07742e-05
7.28545e-05
7.01487e-05
4.71173e-05
2.36339e-05
2.36328e-05
0.000152214
0.000174948
0.00017496
0.000193708
0.000174944
0.000193706
0.000152206
0.000174943
0.000174955
0.000193703
0.000152208
0.000174955
0.000193703
7.29774e-05
8.31086e-05
7.21808e-05
7.2181e-05
7.27482e-05
7.23174e-05
7.23177e-05
7.28032e-05
6.64465e-05
7.5711e-05
6.49877e-05
7.27272e-05
6.66845e-05
7.57261e-05
6.83406e-05
6.68081e-05
6.75976e-05
6.4995e-05
6.77841e-05
6.82035e-05
6.70143e-05
7.28012e-05
6.64413e-05
7.57108e-05
6.49865e-05
7.27251e-05
6.66789e-05
7.57252e-05
7.28e-05
6.64447e-05
7.57097e-05
6.49864e-05
7.27233e-05
6.66825e-05
7.57239e-05
6.83391e-05
6.68061e-05
6.7598e-05
6.49919e-05
6.77846e-05
6.82016e-05
6.70121e-05
7.2798e-05
7.57084e-05
6.644e-05
6.49851e-05
7.27222e-05
7.57219e-05
6.66779e-05
6.83352e-05
6.67988e-05
6.75956e-05
6.49835e-05
6.81975e-05
6.70046e-05
6.77824e-05
6.75957e-05
6.49874e-05
6.77826e-05
7.29782e-05
8.31047e-05
7.21778e-05
7.21824e-05
7.23143e-05
7.27492e-05
7.23189e-05
7.27996e-05
7.57086e-05
6.64452e-05
6.49866e-05
7.27232e-05
7.57228e-05
6.66831e-05
6.83396e-05
6.68062e-05
6.75977e-05
6.49925e-05
6.82019e-05
6.77847e-05
6.70121e-05
7.27965e-05
7.57075e-05
6.64399e-05
6.49852e-05
7.27203e-05
7.57217e-05
6.66776e-05
6.83387e-05
6.67987e-05
6.75977e-05
6.49898e-05
6.82012e-05
6.70047e-05
6.77845e-05
7.29787e-05
8.30973e-05
7.2179e-05
7.21795e-05
7.27496e-05
7.23156e-05
7.23159e-05
0.000143651
0.000113163
0.000145091
0.000145126
0.000114415
0.000113175
0.000143629
0.000189826
2.3829e-05
4.66965e-05
0.000168096
5.77206e-05
4.67607e-05
4.67592e-05
0.000169437
5.80432e-05
4.13224e-05
0.000169432
4.64324e-05
5.80431e-05
4.92667e-05
4.13227e-05
0.000169434
4.64315e-05
5.80416e-05
4.92647e-05
4.13227e-05
4.65832e-05
4.65809e-05
2.38392e-05
2.38378e-05
4.67557e-05
4.6762e-05
2.38302e-05
4.92729e-05
4.1428e-05
0.000168091
4.66959e-05
5.77204e-05
4.92695e-05
4.14286e-05
2.38293e-05
2.3828e-05
2.38252e-05
5.24028e-05
4.65141e-05
5.14685e-05
5.23871e-05
4.65025e-05
5.14432e-05
2.16106e-05
2.16072e-05
5.77879e-05
2.02726e-05
5.60753e-05
5.55417e-05
2.02755e-05
3.66244e-05
4.08007e-05
4.59704e-05
4.13194e-05
4.53731e-05
4.13517e-05
3.66074e-05
2.02714e-05
4.92601e-05
5.60525e-05
5.55311e-05
2.02742e-05
3.66226e-05
4.08012e-05
4.13197e-05
4.59625e-05
4.13521e-05
4.53751e-05
3.66057e-05
2.02713e-05
4.92581e-05
5.60515e-05
5.55305e-05
2.02742e-05
3.66219e-05
4.08002e-05
4.59625e-05
4.13187e-05
4.53742e-05
4.13511e-05
3.6605e-05
5.07119e-05
5.23521e-05
4.6174e-05
4.65135e-05
5.10968e-05
5.23138e-05
4.65129e-05
5.06862e-05
5.2345e-05
4.61729e-05
4.65019e-05
5.11734e-05
5.2306e-05
4.65012e-05
5.70373e-05
2.16102e-05
2.16068e-05
5.75994e-05
2.16068e-05
2.16034e-05
2.38433e-05
2.3842e-05
5.18226e-05
5.23973e-05
4.65026e-05
4.71691e-05
4.65048e-05
5.15484e-05
5.24488e-05
5.19173e-05
5.23392e-05
4.65134e-05
4.71666e-05
5.25314e-05
5.14098e-05
4.65156e-05
5.83221e-05
2.16073e-05
2.16107e-05
2.16106e-05
5.7788e-05
2.1614e-05
2.38264e-05
2.0278e-05
5.61964e-05
4.92797e-05
5.67046e-05
2.02751e-05
3.65578e-05
4.19678e-05
4.61998e-05
4.12666e-05
4.67994e-05
3.65735e-05
4.12361e-05
2.02766e-05
5.61852e-05
4.92763e-05
2.02739e-05
5.6682e-05
3.65561e-05
4.19677e-05
4.12671e-05
4.62009e-05
3.65717e-05
4.12365e-05
4.67918e-05
8.18224e-05
8.18093e-05
5.77347e-05
5.78772e-05
0.000114537
8.24331e-05
8.24187e-05
5.78444e-05
8.28991e-05
8.2885e-05
5.77204e-05
8.18121e-05
8.18301e-05
0.000112995
8.14154e-05
5.77372e-05
8.13963e-05
0.000205613
0.000216981
0.000205605
0.000205611
0.000216979
7.87083e-05
6.52875e-05
4.88311e-05
4.68457e-05
7.91448e-05
6.51449e-05
4.89133e-05
9.39312e-05
5.76025e-05
5.45159e-05
0.000101165
9.46202e-05
5.44571e-05
0.000100649
8.02364e-05
4.87123e-05
7.97493e-05
4.86427e-05
9.58819e-05
5.81755e-05
5.47193e-05
0.000101902
9.51935e-05
5.47947e-05
0.000102393
8.02306e-05
6.57048e-05
4.62893e-05
4.87093e-05
4.864e-05
6.58595e-05
7.97428e-05
9.58776e-05
5.81754e-05
0.0001019
5.47174e-05
0.000102391
5.47932e-05
9.51879e-05
8.02278e-05
6.56972e-05
4.62886e-05
4.87085e-05
4.86392e-05
6.58516e-05
7.97411e-05
9.58713e-05
5.81732e-05
0.000101896
5.47154e-05
0.000102388
5.47912e-05
9.51837e-05
7.87022e-05
6.52835e-05
4.88282e-05
4.68451e-05
6.51407e-05
7.91387e-05
4.89097e-05
9.39259e-05
5.76022e-05
0.000101162
5.45149e-05
0.000100646
9.46148e-05
5.4455e-05
0.00013792
4.90071e-05
5.00656e-05
0.000162854
4.42155e-05
0.000135153
0.000160309
4.93287e-05
0.000185275
0.000143655
0.000183034
0.000137943
0.000107928
0.00010884
0.000143632
0.000139319
4.81915e-05
4.88546e-05
0.000143622
0.000139351
0.000139311
0.000139342
0.000164144
4.40589e-05
0.000113171
0.000108834
0.000143653
0.000139347
0.000139355
0.000108824
2.37909e-05
0.000107942
0.000137917
4.84995e-05
4.94877e-05
0.000137947
0.000137907
0.000107936
0.000137945
2.37726e-05
0.000105462
2.37663e-05
2.3785e-05
2.37734e-05
0.000162858
5.63268e-05
4.8496e-05
0.000136551
0.000161578
5.60332e-05
4.91583e-05
0.000107938
4.90096e-05
4.99258e-05
0.000106204
4.9924e-05
2.37835e-05
2.37722e-05
2.37671e-05
0.00010547
5.00679e-05
2.37659e-05
4.42147e-05
4.93105e-05
4.55708e-05
4.93274e-05
5.63279e-05
0.000161574
0.000137906
0.000136516
4.91588e-05
4.84966e-05
5.60334e-05
4.93259e-05
4.93087e-05
4.55706e-05
0.000160312
5.58811e-05
4.94845e-05
4.57476e-05
4.93302e-05
0.000135138
4.94848e-05
5.58814e-05
4.57483e-05
4.26455e-05
4.14263e-05
4.92926e-05
2.38128e-05
4.26386e-05
4.92876e-05
0.000202078
0.000188686
0.000188683
0.000188678
0.000188678
0.000185274
0.000185268
5.72042e-05
0.000142221
4.7277e-05
0.000166768
2.38281e-05
2.38116e-05
5.72036e-05
0.000168092
4.6696e-05
0.000142205
5.77187e-05
0.000166765
4.72762e-05
0.000111569
4.77376e-05
4.77365e-05
4.55771e-05
4.9316e-05
4.42099e-05
4.93329e-05
4.55712e-05
4.93105e-05
4.42136e-05
4.93274e-05
0.000201196
0.000184154
0.000184146
2.37825e-05
2.37711e-05
5.6033e-05
0.000162857
4.84966e-05
0.000136551
5.63272e-05
0.00016158
4.9159e-05
0.000106192
4.99215e-05
4.90096e-05
4.90081e-05
4.99209e-05
2.38153e-05
2.38125e-05
0.000111584
4.774e-05
4.77371e-05
2.37934e-05
2.38069e-05
2.37906e-05
2.38041e-05
0.000110505
4.88547e-05
4.88519e-05
4.79096e-05
4.79065e-05
4.26398e-05
4.92708e-05
4.14287e-05
4.92877e-05
5.72072e-05
0.000168093
0.000142177
5.77217e-05
4.72792e-05
0.000166766
5.72068e-05
4.66972e-05
0.00016809
0.000142164
5.77213e-05
4.7278e-05
0.000166763
4.2765e-05
4.93131e-05
4.92955e-05
4.40647e-05
4.93094e-05
4.27701e-05
4.9291e-05
4.406e-05
5.69414e-05
0.000140742
4.81916e-05
0.000164148
4.75666e-05
0.000165451
5.65389e-05
0.000139319
5.6942e-05
0.000140748
0.000164147
4.75661e-05
0.000165448
5.65393e-05
0.000111585
4.774e-05
4.77398e-05
2.3814e-05
2.37922e-05
2.38047e-05
0.000108838
4.88532e-05
0.000110504
4.79027e-05
4.79056e-05
2.37907e-05
2.38053e-05
5.72038e-05
0.000142209
4.72759e-05
0.000166765
4.26463e-05
4.92676e-05
4.1424e-05
4.9284e-05
5.7203e-05
0.000168084
4.66949e-05
0.00014217
5.77192e-05
0.000166759
4.72755e-05
4.27688e-05
4.93076e-05
4.92905e-05
4.40592e-05
5.69385e-05
0.000140772
4.8188e-05
0.000164147
4.75636e-05
0.000165451
5.65352e-05
4.27627e-05
4.9304e-05
4.92869e-05
4.40669e-05
5.69387e-05
0.000140733
0.00016414
4.81876e-05
0.000165442
4.75631e-05
5.65347e-05
4.26383e-05
4.92894e-05
5.72045e-05
0.000142171
0.000166763
4.72762e-05
4.26384e-05
4.92862e-05
0.000164148
5.65356e-05
4.81872e-05
5.6939e-05
0.000140757
4.75627e-05
0.000165453
4.40591e-05
4.93075e-05
4.27695e-05
4.92918e-05
5.65358e-05
0.000139307
4.81873e-05
5.69392e-05
0.000140738
0.000165448
4.75637e-05
4.93054e-05
4.27703e-05
4.9289e-05
4.67587e-05
4.67647e-05
0.000111578
4.77354e-05
4.77396e-05
2.38297e-05
2.38135e-05
2.37897e-05
2.38032e-05
0.0001105
4.88502e-05
4.88544e-05
4.79048e-05
4.79096e-05
2.37916e-05
2.38051e-05
5.72033e-05
0.000168091
4.66953e-05
0.000142208
5.77186e-05
0.000166765
4.72755e-05
4.26387e-05
4.92719e-05
4.14275e-05
4.92887e-05
4.26382e-05
4.92674e-05
4.14278e-05
4.92841e-05
5.69385e-05
0.000140768
0.000164148
4.81882e-05
0.000165451
4.75638e-05
5.65352e-05
5.69378e-05
0.000140766
0.000164148
4.81884e-05
0.000165449
4.75632e-05
5.65354e-05
4.27691e-05
4.93087e-05
4.92916e-05
4.40593e-05
4.27695e-05
4.93045e-05
4.9287e-05
4.40586e-05
2.38131e-05
2.38118e-05
4.88511e-05
0.000110492
4.8851e-05
4.79055e-05
4.79031e-05
2.38047e-05
2.37904e-05
2.38034e-05
2.37862e-05
2.37748e-05
2.37834e-05
2.3772e-05
4.9013e-05
4.90101e-05
0.000106206
4.99263e-05
4.99234e-05
4.93124e-05
4.9329e-05
4.55719e-05
4.4215e-05
5.60367e-05
4.85e-05
0.000162858
0.000136522
5.63308e-05
4.91623e-05
0.00016158
0.000137936
4.91617e-05
0.000136516
5.6037e-05
0.000162857
5.63306e-05
0.000161579
4.93319e-05
4.57489e-05
0.00013516
5.58848e-05
0.00016031
5.60328e-05
4.84966e-05
0.000162857
0.000136554
5.63271e-05
4.91589e-05
0.000161579
4.55786e-05
4.93069e-05
4.42073e-05
4.93238e-05
5.60324e-05
0.000162848
4.84961e-05
0.000136514
5.63275e-05
0.000161572
4.91584e-05
4.57474e-05
5.58807e-05
0.00016031
4.57403e-05
4.93267e-05
5.58809e-05
0.000135136
0.000160301
4.94845e-05
4.90084e-05
4.9013e-05
0.0001062
4.99214e-05
4.99259e-05
2.37844e-05
2.3773e-05
2.37649e-05
0.000105469
5.00676e-05
5.00724e-05
2.37668e-05
0.000136551
5.60328e-05
0.000162856
4.84959e-05
5.63269e-05
0.000161578
4.91584e-05
4.55711e-05
4.93116e-05
4.42142e-05
4.93285e-05
4.55705e-05
4.93072e-05
4.42145e-05
4.93239e-05
0.000135172
4.9485e-05
4.93313e-05
2.3784e-05
2.37829e-05
2.37713e-05
5.00685e-05
5.00675e-05
2.37651e-05
5.48838e-05
4.65459e-05
5.31779e-05
4.93944e-05
4.65533e-05
5.45829e-05
5.32844e-05
5.64424e-05
5.37568e-05
5.04451e-05
4.65733e-05
5.60593e-05
4.65842e-05
5.39341e-05
3.63931e-05
4.09633e-05
4.95622e-05
4.48043e-05
4.09399e-05
5.01546e-05
3.64041e-05
2.02846e-05
4.93356e-05
5.95171e-05
2.0283e-05
5.98878e-05
5.38198e-05
4.65418e-05
5.3022e-05
4.84592e-05
5.41203e-05
5.29299e-05
4.65332e-05
3.64408e-05
4.10085e-05
4.93118e-05
4.34814e-05
3.64288e-05
4.10336e-05
4.87185e-05
2.37937e-05
2.37748e-05
2.37643e-05
2.37823e-05
2.37756e-05
6.08685e-05
2.1621e-05
2.162e-05
2.1623e-05
2.16223e-05
6.04368e-05
5.50005e-05
4.65322e-05
5.30543e-05
4.93945e-05
5.33644e-05
4.65426e-05
5.4475e-05
5.53297e-05
4.95434e-05
5.35757e-05
4.65652e-05
4.65553e-05
5.56799e-05
5.34514e-05
6.1016e-05
2.16242e-05
2.16242e-05
2.16223e-05
2.16223e-05
6.14263e-05
5.52291e-05
4.95433e-05
5.36682e-05
4.65606e-05
5.33498e-05
4.655e-05
5.57489e-05
2.37811e-05
2.37744e-05
2.37651e-05
6.19574e-05
2.16241e-05
2.16235e-05
6.15674e-05
2.16258e-05
2.16251e-05
5.65105e-05
5.36622e-05
4.65629e-05
5.04429e-05
5.59998e-05
4.65746e-05
5.39904e-05
2.37639e-05
3.63947e-05
4.95622e-05
4.09629e-05
4.48044e-05
5.01625e-05
4.09396e-05
3.64056e-05
2.02845e-05
5.8523e-05
4.93175e-05
5.89377e-05
2.02824e-05
3.63721e-05
4.49708e-05
5.10036e-05
4.08748e-05
5.04038e-05
4.08964e-05
3.63622e-05
2.02834e-05
4.93204e-05
5.94351e-05
5.9038e-05
2.02853e-05
2.02824e-05
4.93189e-05
5.94132e-05
5.90245e-05
2.02842e-05
2.02834e-05
5.85089e-05
4.93161e-05
5.89168e-05
2.02814e-05
3.63705e-05
4.49717e-05
5.09948e-05
4.08752e-05
4.08968e-05
5.04047e-05
3.63606e-05
3.63327e-05
5.12423e-05
4.08338e-05
4.63585e-05
3.63416e-05
5.18414e-05
4.08139e-05
2.02857e-05
5.95297e-05
4.93371e-05
2.0284e-05
5.99114e-05
3.63312e-05
5.12435e-05
4.08342e-05
4.63579e-05
3.63401e-05
4.08142e-05
5.18313e-05
3.65267e-05
4.20807e-05
4.11578e-05
4.76376e-05
4.11862e-05
4.70343e-05
3.65125e-05
2.0278e-05
5.62029e-05
2.02753e-05
5.66997e-05
3.65583e-05
4.19723e-05
4.12677e-05
4.62003e-05
3.65739e-05
4.12373e-05
4.68003e-05
2.02776e-05
5.72992e-05
4.92856e-05
5.68269e-05
2.02802e-05
2.38161e-05
3.65259e-05
4.20848e-05
4.7631e-05
4.11565e-05
4.70374e-05
4.11851e-05
3.65115e-05
2.02774e-05
5.72974e-05
4.92806e-05
5.68256e-05
2.028e-05
2.38243e-05
2.38152e-05
5.85016e-05
2.16169e-05
2.16137e-05
2.16138e-05
2.16107e-05
5.90115e-05
5.18569e-05
4.71652e-05
5.24554e-05
4.65162e-05
5.19362e-05
4.71634e-05
5.24603e-05
4.65047e-05
5.83241e-05
2.16139e-05
2.16104e-05
5.22301e-05
4.65213e-05
4.73381e-05
5.26003e-05
5.25342e-05
4.65175e-05
5.26203e-05
5.22049e-05
4.65105e-05
4.73362e-05
5.26213e-05
5.25059e-05
4.65063e-05
5.2704e-05
3.6373e-05
4.4968e-05
4.08762e-05
5.1004e-05
4.08977e-05
5.04051e-05
3.6363e-05
2.02849e-05
5.85286e-05
4.9323e-05
2.02829e-05
5.89349e-05
3.63955e-05
4.48096e-05
4.09642e-05
4.95618e-05
3.64065e-05
4.09409e-05
5.01637e-05
2.02838e-05
5.94314e-05
4.93259e-05
5.90444e-05
2.02857e-05
3.63719e-05
4.49699e-05
5.09985e-05
4.08749e-05
5.04071e-05
4.08964e-05
3.6362e-05
2.02846e-05
5.85267e-05
4.93176e-05
2.02826e-05
5.89331e-05
3.63945e-05
4.48042e-05
4.95646e-05
4.09629e-05
3.64055e-05
5.0158e-05
4.09396e-05
2.02836e-05
5.94296e-05
4.93205e-05
5.90424e-05
2.02854e-05
2.378e-05
2.37733e-05
5.52408e-05
5.36095e-05
4.95445e-05
4.65688e-05
5.34149e-05
4.65585e-05
5.57248e-05
5.49648e-05
5.31415e-05
4.93916e-05
4.65434e-05
5.32983e-05
5.44803e-05
4.65534e-05
6.10152e-05
2.16258e-05
2.16226e-05
2.16238e-05
2.16207e-05
6.14309e-05
5.49917e-05
5.31269e-05
4.65349e-05
4.93908e-05
5.45103e-05
5.331e-05
4.65427e-05
6.08728e-05
2.16218e-05
2.16193e-05
6.0435e-05
2.16242e-05
2.16213e-05
5.52735e-05
5.36194e-05
4.65575e-05
4.95435e-05
5.33995e-05
4.65472e-05
5.57527e-05
2.38187e-05
2.38159e-05
5.85021e-05
2.16175e-05
2.16141e-05
2.16145e-05
2.16111e-05
5.90073e-05
5.2184e-05
4.65229e-05
4.73423e-05
5.26032e-05
4.65188e-05
5.26681e-05
5.25367e-05
5.22133e-05
4.65105e-05
4.7339e-05
5.25953e-05
4.65064e-05
5.26927e-05
5.25287e-05
2.37961e-05
2.38039e-05
2.37933e-05
2.38011e-05
5.96598e-05
2.16176e-05
2.16143e-05
5.91808e-05
2.16204e-05
2.1617e-05
5.37134e-05
5.30411e-05
4.84667e-05
4.65421e-05
4.65346e-05
5.28955e-05
5.4199e-05
5.37459e-05
5.30341e-05
4.84637e-05
4.65298e-05
4.65223e-05
5.28901e-05
5.42267e-05
5.34335e-05
4.65254e-05
5.26973e-05
4.83026e-05
5.29483e-05
4.65313e-05
5.28027e-05
5.34597e-05
4.6513e-05
5.26912e-05
4.82998e-05
5.29793e-05
4.6519e-05
5.27947e-05
5.98249e-05
2.16228e-05
2.16194e-05
2.16204e-05
2.1617e-05
6.02792e-05
3.65246e-05
4.20864e-05
4.11574e-05
4.76329e-05
4.11861e-05
4.70317e-05
3.65102e-05
2.02765e-05
5.61828e-05
4.92776e-05
2.02738e-05
5.66849e-05
3.65561e-05
4.19694e-05
4.12676e-05
4.61978e-05
4.12371e-05
3.65717e-05
4.67961e-05
2.02761e-05
5.72853e-05
4.92805e-05
5.68056e-05
2.02787e-05
3.64702e-05
4.11086e-05
4.78742e-05
4.33433e-05
3.64834e-05
4.10818e-05
4.84786e-05
2.02815e-05
4.9306e-05
5.8415e-05
2.02837e-05
5.79883e-05
2.02821e-05
5.74215e-05
4.93028e-05
2.02797e-05
5.78703e-05
3.64433e-05
4.34763e-05
4.10095e-05
4.93212e-05
3.64312e-05
4.10345e-05
4.87177e-05
2.02802e-05
4.9302e-05
5.8402e-05
5.79656e-05
2.02824e-05
3.6468e-05
4.11083e-05
4.78705e-05
4.33376e-05
3.6481e-05
4.10814e-05
4.84744e-05
2.02809e-05
4.92985e-05
5.73989e-05
2.02782e-05
5.7858e-05
3.64411e-05
4.9317e-05
4.34815e-05
4.10091e-05
4.10342e-05
4.87141e-05
3.6429e-05
5.85013e-05
2.16141e-05
2.16168e-05
2.16108e-05
2.1614e-05
5.901e-05
5.23195e-05
4.65112e-05
4.73339e-05
5.25943e-05
4.65067e-05
5.25313e-05
5.25804e-05
5.21687e-05
4.65204e-05
4.73387e-05
5.26961e-05
5.24513e-05
4.65167e-05
5.26834e-05
2.38174e-05
2.37947e-05
2.38021e-05
5.98261e-05
2.16212e-05
2.16202e-05
6.02797e-05
2.16185e-05
2.16182e-05
5.3713e-05
4.65281e-05
5.31018e-05
4.84641e-05
5.42298e-05
4.65217e-05
5.28054e-05
5.96603e-05
2.16144e-05
2.16166e-05
5.91807e-05
2.16177e-05
2.16187e-05
5.33494e-05
4.83023e-05
4.65153e-05
5.27025e-05
5.27895e-05
5.30815e-05
4.65255e-05
5.34554e-05
4.83019e-05
4.65215e-05
5.26185e-05
5.29308e-05
4.65227e-05
5.28783e-05
2.37939e-05
2.3802e-05
3.6524e-05
4.20784e-05
4.11563e-05
4.76338e-05
4.11846e-05
4.70289e-05
3.65096e-05
2.02768e-05
5.61832e-05
4.92744e-05
2.0274e-05
5.66803e-05
3.65555e-05
4.1973e-05
4.12661e-05
4.61943e-05
4.1236e-05
3.65711e-05
4.67974e-05
2.02764e-05
5.72798e-05
4.92773e-05
5.68069e-05
2.0279e-05
3.64692e-05
4.78773e-05
4.11073e-05
4.33366e-05
3.64823e-05
4.84721e-05
4.10805e-05
2.02812e-05
4.93005e-05
5.84134e-05
2.02834e-05
5.79865e-05
2.02819e-05
5.742e-05
4.92976e-05
2.02795e-05
5.78686e-05
3.64422e-05
4.34799e-05
4.93153e-05
4.10082e-05
3.64302e-05
4.87208e-05
4.10332e-05
3.64672e-05
4.11068e-05
4.78687e-05
4.33445e-05
3.64804e-05
4.10802e-05
4.84746e-05
2.02801e-05
4.92969e-05
5.83953e-05
5.79672e-05
2.02824e-05
2.02808e-05
5.7401e-05
4.9294e-05
2.02784e-05
5.78508e-05
3.64403e-05
4.34735e-05
4.10079e-05
4.93173e-05
4.10327e-05
4.87117e-05
3.64282e-05
3.65263e-05
4.20857e-05
4.76355e-05
4.11564e-05
4.70344e-05
4.11852e-05
3.65119e-05
2.02775e-05
5.73038e-05
4.92826e-05
5.68208e-05
2.02802e-05
3.65245e-05
4.20865e-05
4.11568e-05
4.76284e-05
4.11856e-05
4.70357e-05
3.65102e-05
2.02763e-05
5.72814e-05
4.92791e-05
5.68089e-05
2.02788e-05
3.64426e-05
4.9319e-05
4.10081e-05
4.34808e-05
3.64303e-05
4.8719e-05
4.10332e-05
2.02814e-05
5.84173e-05
4.93009e-05
2.02833e-05
5.79834e-05
3.64695e-05
4.33362e-05
4.78749e-05
4.11073e-05
3.64828e-05
4.84764e-05
4.10804e-05
2.02821e-05
4.92983e-05
5.74158e-05
2.02796e-05
5.7874e-05
2.028e-05
5.83969e-05
4.92984e-05
2.02823e-05
5.7969e-05
3.64678e-05
4.33361e-05
4.11077e-05
4.78756e-05
3.6481e-05
4.10808e-05
4.84691e-05
2.02807e-05
4.92958e-05
5.7403e-05
2.02783e-05
5.78524e-05
5.85028e-05
2.16139e-05
2.16173e-05
2.16109e-05
2.16143e-05
5.90087e-05
5.19245e-05
5.23955e-05
4.65026e-05
4.71645e-05
4.65048e-05
5.14539e-05
5.24481e-05
5.1905e-05
5.24044e-05
4.6515e-05
4.7167e-05
5.24574e-05
5.14228e-05
4.65172e-05
5.83212e-05
2.16074e-05
2.16108e-05
2.16106e-05
5.77883e-05
2.1614e-05
5.22173e-05
4.65106e-05
4.73374e-05
5.26034e-05
4.65064e-05
5.25205e-05
5.26898e-05
5.21848e-05
4.65229e-05
4.73422e-05
5.26024e-05
5.25359e-05
4.65187e-05
5.26683e-05
2.38259e-05
2.38168e-05
2.37924e-05
2.38002e-05
5.96613e-05
2.16141e-05
2.16175e-05
5.91815e-05
2.16168e-05
2.16202e-05
5.37503e-05
5.30429e-05
4.84621e-05
4.65299e-05
5.28799e-05
4.65223e-05
5.42241e-05
5.37144e-05
5.30354e-05
4.84667e-05
4.6542e-05
4.65346e-05
5.28992e-05
5.4199e-05
5.34571e-05
4.65131e-05
5.26804e-05
4.82981e-05
5.28041e-05
5.29835e-05
4.6519e-05
5.34337e-05
4.65254e-05
5.27012e-05
4.83023e-05
5.29493e-05
4.65312e-05
5.27969e-05
5.98257e-05
2.16193e-05
2.16227e-05
2.16168e-05
2.16203e-05
6.02807e-05
2.37943e-05
2.38021e-05
3.65263e-05
4.20854e-05
4.76366e-05
4.11564e-05
4.70337e-05
4.11851e-05
3.65119e-05
2.0278e-05
5.61964e-05
4.92788e-05
5.67049e-05
2.02751e-05
3.65578e-05
4.1968e-05
4.61984e-05
4.12666e-05
4.68001e-05
3.65734e-05
4.12361e-05
2.02775e-05
5.73041e-05
4.92816e-05
5.68208e-05
2.02802e-05
3.65239e-05
4.20857e-05
4.76282e-05
4.11558e-05
4.70346e-05
4.11845e-05
3.65095e-05
2.02766e-05
5.61846e-05
4.92743e-05
2.02739e-05
5.6681e-05
3.65554e-05
4.19675e-05
4.62e-05
4.1266e-05
3.6571e-05
4.67918e-05
4.12355e-05
2.02763e-05
5.72806e-05
4.92771e-05
5.68082e-05
2.02788e-05
3.64695e-05
4.78738e-05
4.11072e-05
4.33364e-05
3.64827e-05
4.84773e-05
4.10804e-05
2.02816e-05
4.93016e-05
5.84203e-05
5.79831e-05
2.02839e-05
2.02821e-05
5.74157e-05
4.92986e-05
2.02796e-05
5.78746e-05
3.64428e-05
4.34802e-05
4.93212e-05
4.10081e-05
4.87173e-05
4.10331e-05
3.64308e-05
3.64671e-05
4.78745e-05
4.11067e-05
4.33358e-05
3.64803e-05
4.84689e-05
4.10798e-05
2.028e-05
4.92974e-05
5.83958e-05
5.79685e-05
2.02822e-05
2.02807e-05
5.74023e-05
4.92943e-05
2.02783e-05
5.78516e-05
3.64402e-05
4.34805e-05
4.93118e-05
4.10075e-05
4.87175e-05
4.10326e-05
3.64281e-05
2.38255e-05
2.38164e-05
2.38242e-05
2.38151e-05
5.3736e-05
5.30117e-05
4.84633e-05
4.65363e-05
5.4202e-05
5.28978e-05
4.65291e-05
5.96636e-05
2.1617e-05
2.1614e-05
5.91805e-05
2.16196e-05
2.1617e-05
5.37295e-05
5.30458e-05
4.84607e-05
4.65342e-05
5.42252e-05
5.28973e-05
4.65265e-05
5.33923e-05
4.83002e-05
4.65236e-05
5.27035e-05
5.29889e-05
5.27868e-05
4.65281e-05
5.34731e-05
4.65132e-05
5.26718e-05
4.82996e-05
5.29684e-05
5.28169e-05
4.65204e-05
5.98249e-05
2.16217e-05
2.16198e-05
6.02842e-05
2.16192e-05
2.16174e-05
2.38017e-05
2.37931e-05
2.38006e-05
2.37837e-05
2.3777e-05
2.3781e-05
2.37743e-05
6.10167e-05
2.16264e-05
2.1623e-05
2.16245e-05
2.16211e-05
6.14251e-05
5.49621e-05
5.31319e-05
4.65461e-05
4.93961e-05
5.44773e-05
4.6555e-05
5.33159e-05
5.49916e-05
5.31271e-05
4.65339e-05
4.93932e-05
5.45114e-05
4.65428e-05
5.33098e-05
6.08671e-05
2.16227e-05
2.16193e-05
6.04364e-05
2.16248e-05
2.16214e-05
5.52379e-05
4.65699e-05
4.95483e-05
5.3625e-05
4.65597e-05
5.57216e-05
5.34046e-05
5.52734e-05
4.65577e-05
4.95455e-05
5.362e-05
4.65475e-05
5.57524e-05
5.34005e-05
2.02836e-05
4.93192e-05
5.8506e-05
2.02816e-05
5.89213e-05
2.02825e-05
4.93221e-05
5.94172e-05
5.90218e-05
2.02844e-05
3.63708e-05
5.09988e-05
4.49717e-05
4.08758e-05
4.08974e-05
5.0401e-05
3.63609e-05
3.63934e-05
4.95583e-05
4.48049e-05
4.09639e-05
4.09406e-05
3.64044e-05
5.01591e-05
2.02847e-05
4.93387e-05
5.95148e-05
2.02831e-05
5.98915e-05
3.63314e-05
5.12407e-05
4.63595e-05
4.08348e-05
3.63403e-05
4.08148e-05
5.18348e-05
3.637e-05
4.49635e-05
4.08746e-05
5.10003e-05
4.08959e-05
5.03979e-05
3.63601e-05
2.02835e-05
5.85073e-05
4.9314e-05
2.02815e-05
5.8915e-05
3.63925e-05
4.48122e-05
4.09624e-05
4.95554e-05
4.09394e-05
3.64035e-05
5.01601e-05
2.02825e-05
5.94114e-05
4.93169e-05
5.90229e-05
2.02843e-05
3.63326e-05
4.63594e-05
5.12466e-05
4.08338e-05
3.63415e-05
5.18357e-05
4.08139e-05
3.63306e-05
4.63664e-05
4.08333e-05
5.12368e-05
3.63395e-05
4.08136e-05
5.18369e-05
2.02847e-05
5.95155e-05
4.93335e-05
2.02831e-05
5.98861e-05
6.10176e-05
2.16228e-05
2.16263e-05
2.16209e-05
2.16243e-05
6.14267e-05
5.49889e-05
5.31178e-05
4.65339e-05
4.93914e-05
4.65429e-05
5.45158e-05
5.33182e-05
5.49625e-05
5.31355e-05
4.65461e-05
4.93957e-05
5.33108e-05
5.44784e-05
4.6555e-05
6.08687e-05
2.16191e-05
2.16225e-05
2.16213e-05
6.04372e-05
2.16247e-05
5.52779e-05
4.65578e-05
4.95437e-05
5.36277e-05
4.65476e-05
5.33917e-05
5.57498e-05
5.52391e-05
4.65699e-05
4.95484e-05
5.36203e-05
5.3408e-05
4.65597e-05
5.57219e-05
2.37819e-05
2.37752e-05
2.37629e-05
6.19568e-05
2.16223e-05
2.16257e-05
6.15684e-05
2.16239e-05
2.16274e-05
5.65054e-05
4.65631e-05
5.36999e-05
5.044e-05
5.39698e-05
5.60353e-05
4.65744e-05
5.64762e-05
4.65751e-05
5.37148e-05
5.04445e-05
5.5995e-05
4.65864e-05
5.39622e-05
2.37648e-05
3.63723e-05
4.49706e-05
5.10056e-05
4.08748e-05
5.04021e-05
4.08963e-05
3.63624e-05
2.02851e-05
5.85222e-05
4.93186e-05
5.89417e-05
2.0283e-05
3.63951e-05
4.48046e-05
4.95604e-05
4.09628e-05
5.01652e-05
3.6406e-05
4.09396e-05
2.02837e-05
5.94382e-05
4.93215e-05
5.90363e-05
2.02856e-05
3.63699e-05
4.4971e-05
5.0995e-05
4.08742e-05
5.04036e-05
4.08958e-05
3.636e-05
2.02834e-05
5.85089e-05
4.9314e-05
2.02814e-05
5.89155e-05
3.63925e-05
4.48042e-05
4.9561e-05
4.09623e-05
3.64034e-05
5.01547e-05
4.09389e-05
2.02824e-05
5.9412e-05
4.93169e-05
5.90243e-05
2.02842e-05
2.0286e-05
5.9529e-05
4.93382e-05
2.02843e-05
5.9913e-05
2.37815e-05
2.37802e-05
2.37735e-05
5.6479e-05
5.37215e-05
5.04402e-05
4.65741e-05
5.3952e-05
5.59965e-05
4.65853e-05
6.1961e-05
2.16251e-05
2.1622e-05
6.15661e-05
2.16269e-05
2.16238e-05
5.65084e-05
5.3707e-05
4.65627e-05
5.04395e-05
5.60308e-05
5.39626e-05
4.65741e-05
2.3763e-05
0.000202089
0.000186403
0.000202083
0.000202965
0.000202972
0.000215206
0.000214599
5.77194e-05
0.000112979
8.14072e-05
8.13934e-05
5.77406e-05
0.000107494
7.79925e-05
7.79807e-05
7.7772e-05
5.76897e-05
7.7755e-05
5.76266e-05
0.00010921
7.86248e-05
7.86099e-05
7.88699e-05
7.88534e-05
5.76619e-05
7.6165e-05
6.37144e-05
4.80256e-05
4.97303e-05
4.96176e-05
6.38151e-05
7.58673e-05
5.77209e-05
8.18088e-05
8.18273e-05
0.000112988
8.1413e-05
5.77355e-05
8.13953e-05
5.76261e-05
0.000109204
7.86062e-05
7.86237e-05
7.88513e-05
7.88687e-05
5.76613e-05
5.76245e-05
7.86009e-05
0.000109197
7.86225e-05
5.76598e-05
7.88095e-05
7.89092e-05
5.77425e-05
7.80004e-05
7.79837e-05
0.000107509
5.76916e-05
7.77768e-05
7.77618e-05
7.50116e-05
6.34103e-05
4.86702e-05
4.99462e-05
6.33209e-05
7.52694e-05
5.00683e-05
7.34672e-05
6.27231e-05
4.96666e-05
5.06886e-05
6.2661e-05
7.36185e-05
5.08269e-05
5.77419e-05
7.79814e-05
7.79984e-05
0.000107502
7.77755e-05
5.76912e-05
7.77582e-05
5.80408e-05
7.63739e-05
0.000104919
7.63557e-05
7.6178e-05
5.79604e-05
7.61594e-05
8.92737e-05
9.65049e-05
5.38842e-05
5.62637e-05
5.38852e-05
9.59007e-05
8.98251e-05
7.49995e-05
6.3389e-05
4.99499e-05
4.86656e-05
6.33008e-05
5.00716e-05
7.52567e-05
8.87073e-05
5.60839e-05
9.47827e-05
5.38577e-05
5.38428e-05
9.53959e-05
8.82037e-05
7.44088e-05
4.89833e-05
6.29542e-05
5.0438e-05
6.30316e-05
5.03077e-05
7.42027e-05
5.77413e-05
7.80329e-05
7.79479e-05
0.000107508
7.77251e-05
5.76912e-05
7.78113e-05
5.78038e-05
0.000106695
7.69738e-05
7.69225e-05
7.71666e-05
5.78687e-05
7.71479e-05
5.80409e-05
7.64024e-05
0.000104931
7.63355e-05
5.79615e-05
7.61371e-05
7.62096e-05
8.92738e-05
9.65039e-05
5.38837e-05
5.62642e-05
9.59003e-05
5.38848e-05
8.9826e-05
7.441e-05
6.29608e-05
4.89843e-05
5.04334e-05
5.03031e-05
7.42048e-05
6.3036e-05
7.50027e-05
4.99455e-05
6.33993e-05
4.86667e-05
5.00674e-05
6.33112e-05
7.52603e-05
8.87074e-05
5.60843e-05
9.47815e-05
5.38569e-05
9.53941e-05
5.38418e-05
8.82027e-05
8.71677e-05
9.43085e-05
5.38449e-05
5.58437e-05
8.7623e-05
5.38737e-05
9.3696e-05
7.3456e-05
6.27057e-05
5.06925e-05
4.96623e-05
7.36082e-05
6.26435e-05
5.08305e-05
7.34588e-05
6.27138e-05
4.96632e-05
5.06877e-05
7.36112e-05
5.08259e-05
6.26517e-05
8.71666e-05
9.43072e-05
5.38437e-05
5.58438e-05
8.76232e-05
9.36945e-05
5.38729e-05
0.00018527
0.0001864
0.000202085
0.000202963
0.00020297
0.000215204
0.000214595
0.000204731
0.000204737
0.000187542
0.000203848
0.000203854
0.000215805
0.0002164
0.00020473
0.000204737
0.000187543
0.000203849
0.000203855
0.000215806
0.0002164
0.000204727
0.000204733
0.000187536
0.000203845
0.000203851
0.000215803
0.000216397
0.000204727
0.000204733
0.000187537
0.000203845
0.000203852
0.000215803
0.000216397
0.000186408
0.000202081
0.000202088
0.000202968
0.000202974
0.000215207
0.000214597
0.000186401
0.000202078
0.000202085
0.000202963
0.00020297
0.000215204
0.000214595
9.33851e-05
5.7308e-05
5.42426e-05
9.94241e-05
5.42868e-05
9.99644e-05
9.27059e-05
7.80999e-05
4.91522e-05
4.71213e-05
6.46221e-05
6.47499e-05
4.9059e-05
7.77134e-05
9.33819e-05
5.73073e-05
9.94212e-05
5.42427e-05
9.99611e-05
5.42861e-05
9.27039e-05
7.87052e-05
6.52874e-05
4.88304e-05
4.68452e-05
7.91414e-05
6.51447e-05
4.89125e-05
9.39278e-05
5.76012e-05
0.000101162
5.45151e-05
9.46165e-05
0.000100645
5.44561e-05
7.80981e-05
4.91515e-05
4.71212e-05
6.46223e-05
6.47512e-05
4.90583e-05
7.77109e-05
5.76461e-05
0.000111815
8.04248e-05
8.04113e-05
8.07899e-05
8.07772e-05
5.76481e-05
0.00020031
0.000184146
0.000183027
0.000201203
0.000200318
0.000213362
0.000213982
0.000201201
0.000201207
0.000183032
0.000200314
0.00020032
0.000213364
0.000213986
0.000201195
0.000201203
0.000183026
0.00020031
0.000200318
0.000213362
0.000213982
8.87083e-05
5.60835e-05
9.47816e-05
5.38583e-05
9.53952e-05
5.38427e-05
8.82045e-05
7.50066e-05
6.34032e-05
4.99491e-05
4.86668e-05
7.5264e-05
6.33142e-05
5.00714e-05
8.92753e-05
5.62636e-05
9.65049e-05
5.38847e-05
8.98275e-05
9.58998e-05
5.38861e-05
7.44127e-05
5.04376e-05
4.89845e-05
6.29633e-05
6.3039e-05
5.0307e-05