/*--------------------------------*- C++ -*----------------------------------*\
| =========                 |                                                 |
| \\      /  F ield         | OpenFOAM: The Open Source CFD Toolbox           |
|  \\    /   O peration     | Version:  v2006                                 |
|   \\  /    A nd           | Website:  www.openfoam.com                      |
|    \\/     M anipulation  |                                                 |
\*---------------------------------------------------------------------------*/
FoamFile
{
    version     2.0;
    format      ascii;
    class       surfaceScalarField;
    location    "125";
    object      phi;
}
// * * * * * * * * * * * * * * * * * * * * * * * * * * * * * * * * * * * * * //

dimensions      [0 3 -1 0 0 0 0];
oriented        oriented;


internalField   nonuniform List<scalar> 
41099
(
4.42256e-08
2.49544e-09
9.89991e-05
-9.90458e-05
4.42218e-08
2.45844e-09
9.89878e-05
-9.90344e-05
1.55126e-06
1.51107e-06
0.000274318
-4.92657e-07
-5.00917e-07
-0.000276386
4.07943e-08
-6.44574e-09
1.51621e-07
0.000284538
-0.000284679
4.07236e-08
-5.81479e-09
1.53847e-07
0.000284457
-0.000284601
1.36167e-10
2.19545e-07
-6.89127e-08
-8.7775e-09
0.000236513
-0.000236655
1.12269e-07
-8.87751e-09
0.00019712
-0.00019722
2.19525e-07
-6.88987e-08
-8.69564e-09
0.000236471
-0.000236613
1.01727e-09
-2.18222e-08
5.216e-07
0.000260419
-0.0002607
4.21989e-07
8.56071e-07
1.15902e-06
-5.08133e-07
1.28913e-07
7.2551e-07
-5.46476e-07
5.24395e-08
-1.25277e-06
-0.00113537
4.56167e-08
3.2608e-07
0.00025303
-0.000253249
3.47877e-09
8.99707e-07
7.86008e-07
-1.19175e-06
-1.36192e-06
5.86985e-07
-0.00113712
-2.27281e-08
5.18867e-07
0.000260393
-0.000260669
8.99636e-07
7.85912e-07
-1.19451e-06
-1.36441e-06
5.87002e-07
-0.00113708
-4.21525e-07
2.22101e-07
2.76339e-10
-8.80017e-09
-6.67958e-08
0.000236504
-0.000236651
1.12251e-07
-8.92747e-09
0.000197098
-0.000197199
1.94029e-09
-2.25659e-08
5.18838e-07
0.000260414
-0.00026069
4.20572e-07
8.56352e-07
1.11861e-06
-4.99812e-07
1.20554e-07
7.20132e-07
-5.43622e-07
4.98499e-08
-1.24699e-06
-0.00113637
4.31111e-08
3.25972e-07
0.000252995
-0.000253211
3.99011e-09
8.9926e-07
7.82952e-07
-1.19168e-06
-1.36178e-06
5.81367e-07
-0.00113698
2.19545e-07
-6.88615e-08
-8.68972e-09
0.000236467
-0.000236608
1.12173e-07
-2.41631e-09
-8.93039e-09
0.000197046
-0.000197147
5.1616e-07
-2.25013e-08
0.000260388
-0.00026066
4.21813e-07
-1.54866e-06
8.50347e-07
7.2276e-07
-5.4634e-07
-1.24979e-06
5.24782e-08
1.15639e-06
-5.05378e-07
1.26116e-07
-0.00113539
8.93846e-07
7.8312e-07
-1.19171e-06
-1.36169e-06
5.8143e-07
-0.00113694
-4.31583e-08
4.30964e-08
3.2846e-07
0.000252927
-0.000253143
-1.54291e-06
8.55816e-07
-5.46317e-07
5.24637e-08
1.1506e-06
-5.05264e-07
1.26116e-07
-0.00113506
-1.24697e-06
-1.1222e-07
-4.31096e-08
3.28526e-07
0.000252966
-0.000253182
4.30502e-08
-2.44882e-09
0.000197055
-0.000197156
-8.93806e-09
4.41569e-08
9.89765e-05
-9.90231e-05
1.51087e-06
0.000274298
-4.95677e-07
-5.00518e-07
-0.000276362
-6.42644e-09
1.51518e-07
0.000284418
-0.000284562
-4.42319e-08
4.31626e-08
-5.7977e-09
1.53897e-07
0.00028454
-0.000284687
2.46753e-09
9.89919e-05
-9.90386e-05
8.19252e-10
-2.19657e-07
5.18949e-07
-2.17885e-08
0.000260411
-0.00026069
4.20826e-07
8.56185e-07
1.11839e-06
-5.02451e-07
1.23505e-07
7.20031e-07
-5.43656e-07
-1.24423e-06
5.25834e-08
-0.00113587
2.74328e-09
8.99191e-07
7.80166e-07
-1.18894e-06
-1.35905e-06
5.81322e-07
-0.00113677
-1.12215e-07
4.31549e-08
3.28513e-07
0.000253029
-0.000253245
-2.19645e-07
5.18941e-07
-2.32859e-08
0.000260383
-0.000260659
4.20514e-07
-1.50004e-06
8.56166e-07
7.20064e-07
-5.46168e-07
-1.24659e-06
5.27949e-08
1.10735e-06
-4.96968e-07
1.17768e-07
-0.00113606
8.99139e-07
7.77155e-07
-1.18612e-06
-1.35597e-06
5.78479e-07
-0.00113671
-1.12151e-07
-4.06434e-08
4.30803e-08
3.28355e-07
0.00025293
-0.000253149
7.38005e-11
-8.50187e-09
-6.68267e-08
0.000236504
-0.000236649
-8.89071e-09
0.000197102
-0.000197203
-8.73663e-09
-6.68281e-08
0.000236466
-0.00023661
-2.43996e-09
-8.89049e-09
0.000197047
-0.000197148
0.00027429
-4.92667e-07
-5.03547e-07
-0.000276336
-4.4237e-08
-5.80966e-09
1.53961e-07
0.000284503
-0.00028465
-4.42426e-08
-5.74855e-09
1.53863e-07
0.000284418
-0.000284562
9.89832e-05
-9.90299e-05
9.89769e-05
-9.90236e-05
1.8747e-08
-8.36862e-09
1.87421e-08
-8.40572e-09
-0.000218116
-1.43836e-08
-1.44322e-08
4.54685e-08
4.75852e-08
2.91946e-08
8.16965e-05
9.99162e-09
-8.17357e-05
2.92284e-08
8.1678e-05
9.95275e-09
-8.17172e-05
7.82426e-08
7.61438e-08
-0.000218212
-3.32204e-09
-3.32121e-09
-0.000227917
-4.95473e-08
7.13497e-08
7.1239e-08
9.47646e-08
0.000186387
-0.000186479
-1.24116e-07
0.000259037
2.77327e-07
1.57899e-07
-0.000259197
1.33889e-08
7.48997e-08
8.66121e-09
1.79976e-07
-0.000228048
9.39556e-08
8.55293e-08
-0.000227843
-4.7612e-08
7.10881e-08
6.9317e-08
9.67554e-08
0.000186324
-0.000186417
-1.2379e-07
0.00025892
2.76896e-07
1.55052e-07
-0.000259074
1.28945e-08
7.25077e-08
8.63366e-09
1.82495e-07
-0.000227976
9.39552e-08
8.79889e-08
-0.000145156
4.81575e-09
2.17079e-08
-6.37806e-09
-2.18354e-09
0.000173224
3.44436e-11
-0.000173291
-6.05071e-08
0.000229459
-1.19705e-08
1.99004e-07
-0.000229594
-2.58485e-08
-7.75241e-09
7.44033e-11
1.06444e-07
-4.83647e-09
-0.000145213
1.00853e-11
-9.73159e-09
8.21257e-08
-8.00963e-05
-2.35624e-09
-3.53262e-08
0.000268844
1.57039e-07
-0.000268986
-2.67218e-09
3.8697e-08
-8.01364e-05
5.21933e-08
-0.000145083
4.81041e-09
2.16816e-08
-6.37964e-09
-2.13403e-09
0.000173189
-0.000173256
-6.04781e-08
0.000229362
1.96465e-07
-0.000229495
-1.18801e-08
-2.58465e-08
-7.93872e-09
1.06418e-07
-0.000145141
-4.80168e-09
8.4498e-08
-9.73686e-09
-0.000145153
2.1725e-08
4.68094e-09
-6.44308e-09
-6.05349e-08
0.000229454
-1.1947e-08
1.99041e-07
-0.000229589
-2.21163e-09
0.000173221
3.70994e-11
-0.000173286
-7.51567e-09
-2.80173e-08
-2.31568e-12
1.06426e-07
-4.89358e-09
-0.00014521
-9.79501e-09
8.2143e-08
1.26184e-11
-8.00958e-05
-2.40688e-09
-3.53009e-08
0.00026884
1.54558e-07
-0.00026898
-2.68392e-09
3.86495e-08
-8.0136e-05
5.44808e-08
-0.000145078
4.80718e-09
1.9653e-08
-6.41482e-09
-2.19181e-09
0.000173184
-0.000173251
-6.25067e-08
0.000229357
-1.19254e-08
1.98869e-07
-0.00022949
-2.59461e-08
-7.92738e-09
1.08974e-07
-4.81101e-09
-0.000145138
-9.71146e-09
8.21447e-08
-8.00504e-05
-2.35053e-09
-3.53242e-08
0.000268712
1.56954e-07
-0.000268855
-2.71e-09
8.39076e-09
3.86713e-08
-8.00906e-05
5.21173e-08
8.41067e-09
3.86373e-08
1.88364e-08
-0.000218111
-1.43548e-08
-1.44651e-08
4.55148e-08
4.75358e-08
2.9162e-08
8.16777e-05
1.00434e-08
-8.17169e-05
2.92705e-08
8.16947e-05
9.91313e-09
-8.17339e-05
7.83908e-08
7.60074e-08
-0.000218207
-3.29461e-09
-3.36593e-09
7.12107e-08
-0.000227833
-4.95702e-08
7.37367e-08
9.47601e-08
0.000186325
-0.000186416
0.000258875
-1.24035e-07
1.57831e-07
2.74391e-07
-0.000259032
7.48487e-08
1.3366e-08
6.30283e-09
8.54563e-08
9.65719e-08
1.7782e-07
-0.000227962
-0.000227916
-4.75867e-08
7.12502e-08
6.91302e-08
9.67742e-08
0.000186387
-0.00018648
-1.23958e-07
0.000259047
2.77196e-07
1.60404e-07
-0.000259207
1.29209e-08
7.24327e-08
-1.87334e-08
6.2616e-09
1.82206e-07
-0.000228049
9.38779e-08
8.27843e-08
-8.40748e-09
-0.000145153
1.97138e-08
4.86251e-09
-6.28337e-09
-6.25677e-08
0.000229459
-1.19832e-08
1.98988e-07
-0.000229592
-2.21448e-09
0.000173221
7.36865e-12
-0.000173286
-8.02172e-09
-2.8043e-08
8.46495e-11
1.06478e-07
-5.08021e-09
-0.000145212
-9.77969e-09
8.22639e-08
-9.83537e-13
-8.00954e-05
-4.51803e-09
-3.74307e-08
0.000268851
1.56877e-07
-0.000268991
-2.65854e-09
3.8648e-08
-8.01379e-05
5.22182e-08
-0.000145079
2.17029e-08
4.86038e-09
-6.46222e-09
-6.05239e-08
0.00022936
-1.19458e-08
1.96544e-07
-0.000229493
-2.20861e-09
0.000173184
-0.000173249
-7.96571e-09
-2.8015e-08
1.06442e-07
-4.89968e-09
-0.000145137
-9.80581e-09
8.45726e-08
-8.00502e-05
-2.44108e-09
-3.52748e-08
0.000268718
1.54483e-07
-0.000268858
-2.64704e-09
8.4309e-09
3.85581e-08
-8.00904e-05
5.44156e-08
-0.00021811
-1.25648e-08
-1.4452e-08
4.53722e-08
4.54198e-08
3.10696e-08
8.16923e-05
9.92566e-09
-8.17333e-05
2.9233e-08
8.16775e-05
9.92821e-09
-8.17166e-05
7.84054e-08
7.83454e-08
-0.000218207
-3.28937e-09
-3.34962e-09
-0.000227906
7.1446e-08
-4.55836e-08
6.90128e-08
9.87402e-08
0.000186379
-0.000186473
-1.2403e-07
0.000259
1.60448e-07
2.77282e-07
-0.000259159
7.25142e-08
1.2798e-08
-1.87424e-08
6.27959e-09
1.82253e-07
-0.000228035
8.2895e-08
9.40302e-08
-0.000227834
7.11345e-08
-4.76364e-08
7.15677e-08
9.68054e-08
0.000186322
-0.000186415
-1.23807e-07
0.000258883
1.55066e-07
2.74342e-07
-0.000259034
7.25018e-08
1.29695e-08
-1.87505e-08
8.53693e-09
1.80282e-07
-0.000227963
8.80102e-08
9.65234e-08
4.52063e-07
4.52718e-07
-0.00114469
4.6778e-07
-2.08545e-10
-0.00115092
4.6797e-07
1.70819e-09
-0.00115137
-1.1568e-09
1.94899e-09
-0.00115955
4.67741e-07
-0.00115086
-4.51879e-07
2.04723e-09
-0.00115952
-4.67915e-07
4.52051e-07
4.52608e-07
-0.00114432
4.67554e-07
-0.00115057
4.67811e-07
-1.10908e-09
-0.00115102
-1.51731e-09
-0.00115896
4.52636e-07
-0.00114433
4.51946e-07
4.67841e-07
-0.00115097
-0.00115893
-4.67492e-07
-0.000250721
5.33747e-09
8.29423e-09
8.31162e-08
9.08645e-08
-3.31256e-07
0.000268649
-0.000269041
-3.29091e-07
0.000269083
-0.000269477
-0.000251019
-0.000273534
2.34909e-08
4.67104e-08
-8.77762e-08
5.12801e-07
0.000259196
-3.72716e-08
-0.000259494
-4.38803e-08
0.000273361
4.72063e-11
-0.000273987
-2.04701e-08
1.41979e-08
5.12737e-10
-8.71599e-08
-0.00027434
-3.05445e-08
2.67133e-09
-9.99054e-08
-0.000272906
4.15132e-08
4.53049e-07
0.000259592
-0.00025988
0.000269291
1.23702e-07
-0.000269477
1.39803e-08
2.17741e-08
-0.000273669
-0.000273468
2.35785e-08
4.56427e-08
-8.5144e-08
5.12626e-07
0.000259108
-0.000259409
-3.72206e-08
-4.68867e-08
0.000273347
-0.000273976
-2.07198e-08
1.71128e-08
-0.000274277
-8.96853e-08
-3.05356e-08
-0.000273529
2.59619e-08
4.26866e-08
-7.44186e-08
5.15431e-07
0.000259186
-3.73093e-08
-0.000259487
-4.74232e-08
0.000273357
7.63389e-09
-0.00027399
-1.97145e-08
1.70697e-08
-3.64195e-10
-1.00257e-07
-0.000274322
-3.06029e-08
-4.73184e-09
-9.97193e-08
-0.000272916
4.42822e-08
4.55528e-07
0.000259574
-0.000259869
0.000269277
1.23521e-07
-0.000269463
1.38236e-08
2.43179e-08
-0.000273684
-0.000273465
4.71259e-08
2.35396e-08
-8.7713e-08
-4.54921e-08
0.000273339
-0.000273961
5.1261e-07
0.000259105
-3.72507e-08
-0.000259404
2.00066e-08
-2.10919e-08
-8.69553e-08
-0.000274272
-3.05785e-08
-0.000272827
4.66649e-08
-1.02396e-07
4.5807e-07
0.000259476
-0.000259772
1.20834e-07
0.000269199
-0.00026938
2.44627e-08
1.117e-08
-0.000273585
0.000269237
-0.000269413
1.18194e-07
1.11774e-08
5.4048e-09
-0.000250708
8.17567e-09
8.57965e-08
9.07602e-08
0.000269027
-3.31669e-07
-0.000269422
-3.28609e-07
0.000268664
-0.000269061
-0.000251009
-0.000273525
4.50762e-08
2.58361e-08
-7.70573e-08
-4.5095e-08
0.000273347
-7.81259e-10
-0.000273971
5.15403e-07
0.000259192
-3.97976e-08
-0.000259491
1.7166e-08
-2.05193e-08
5.48749e-10
-9.7649e-08
-0.000274316
3.51921e-09
-2.817e-08
-0.000272917
-9.97225e-08
4.65946e-08
4.58025e-07
0.000259588
-0.000259886
1.23473e-07
0.00026931
-0.000269489
1.11607e-08
2.44626e-08
-0.000273678
-0.000273464
4.37265e-08
2.33731e-08
-6.91317e-08
-4.92049e-08
0.000273339
-0.000273958
5.12722e-07
0.000259103
-3.97843e-08
-0.000259402
1.7158e-08
-2.05014e-08
-1.05549e-07
-0.00027425
-2.81756e-08
-0.000272841
4.42778e-08
-9.97372e-08
4.55287e-07
0.000259485
-0.000259782
1.23419e-07
0.000269216
-0.000269402
2.43938e-08
1.09356e-08
-0.000273614
-0.000250697
5.37008e-09
8.37819e-09
8.29817e-08
9.3368e-08
-3.31309e-07
0.000268613
-0.000269002
-3.29005e-07
0.000269042
-0.000269439
-0.000250995
-1.53125e-06
4.9988e-07
-5.71891e-07
1.03574e-06
6.1848e-08
6.30265e-07
-6.77836e-07
-1.34416e-06
-2.50308e-08
1.03516e-06
0.00111282
-0.000272617
1.56004e-06
-5.74681e-07
-5.77944e-07
1.52323e-06
0.000270686
1.05885e-06
0.00111107
1.03965e-06
5.08585e-07
-1.55959e-06
6.21629e-08
-5.72204e-07
-1.34259e-06
-2.56654e-08
-6.80559e-07
6.26128e-07
1.02163e-06
1.04036e-06
5.29364e-07
-1.52291e-06
5.93835e-08
-5.6963e-07
-1.34516e-06
-2.30956e-08
-6.83252e-07
6.28981e-07
0.00111203
-0.000270516
-1.30145e-08
-6.87204e-09
-5.75408e-07
-5.80317e-07
0.000270713
1.56853e-06
5.0616e-07
-5.71785e-07
6.32961e-07
-6.80335e-07
-2.04018e-08
-1.34401e-06
1.03979e-06
0.00111193
1.06759e-06
6.74793e-08
5.16871e-07
5.60854e-07
0.00111347
9.90539e-08
0.000101961
-9.95389e-09
-1.04388e-07
-2.48734e-07
4.91606e-07
1.20154e-07
0.000261587
-0.00110838
1.65325e-08
6.7749e-07
-1.23823e-06
-1.42619e-06
4.81537e-07
0.0011093
1.06233e-06
-0.000263425
-4.22676e-07
1.8878e-09
0.000263257
-5.52374e-08
6.44018e-07
-0.000296454
1.0685e-07
-9.64174e-08
2.9018e-07
-6.48642e-09
0.00029616
-0.000296363
-9.64138e-08
2.90096e-07
-6.53752e-09
1.04316e-07
0.000296072
1.29692e-09
1.06281e-06
-1.42701e-06
4.77182e-07
6.75827e-07
-1.23922e-06
-3.00668e-07
-1.5776e-09
-0.000263229
-5.97176e-08
1.6587e-07
-9.06031e-11
0.000246254
-0.000246361
-2.28944e-08
-1.70615e-07
0.00110834
1.06288e-06
-1.42141e-06
4.74448e-07
-1.23649e-06
6.70452e-07
-1.70382e-07
-6.6313e-08
0.000261775
1.35712e-07
-0.000261779
1.05759e-07
-3.00634e-07
0.000263396
-0.000263206
1.68609e-07
-5.8886e-08
2.16132e-08
0.00020527
-0.000205419
-4.30843e-08
0.000246213
-0.00024632
-1.7058e-07
-2.27724e-08
1.05701e-06
-1.42125e-06
4.7717e-07
-1.23647e-06
6.72934e-07
0.00110821
-1.70341e-07
-6.87116e-08
1.32942e-07
-0.00026174
1.05772e-07
0.00026174
-2.98059e-07
-0.000263198
1.65885e-07
-5.86204e-08
0.000263387
2.15788e-08
-0.000205409
-4.30329e-08
0.00020526
-0.000246315
-2.2784e-08
-1.70575e-07
0.000246211
-7.19094e-08
2.00434e-07
-0.000296663
1.40115e-08
-7.1841e-08
2.00274e-07
-0.000296574
1.42706e-08
0.000102047
-0.000102097
0.00010204
-0.00010209
2.9017e-07
-6.4271e-09
0.000296069
1.069e-07
-9.63809e-08
2.87731e-07
-7.18086e-09
0.000296204
-1.03108e-08
0.000101972
-4.85168e-08
0.000205114
2.43812e-10
0.000246061
-2.29556e-08
-2.06762e-07
6.77614e-07
-1.23825e-06
4.81563e-07
-1.42331e-06
0.0011093
1.06799e-06
-2.48679e-07
4.94054e-07
1.20085e-07
0.000261516
-4.22661e-07
0.000263232
6.44016e-07
-5.53959e-08
1.03452e-08
-4.85688e-08
0.000205059
0.00024602
-2.06758e-07
-2.2907e-08
0.000101961
-1.03307e-08
0.000101954
6.7371e-08
0.000101915
-2.14455e-08
-2.596e-07
-0.0002657
4.11827e-07
2.67016e-07
0.000265571
1.87045e-07
-1.628e-08
-0.00019327
0.000193093
-1.81463e-07
-0.00023699
3.25501e-07
0.000236774
-2.59547e-07
-0.000265577
4.08975e-07
0.000265454
2.64399e-07
1.87335e-07
-1.64754e-08
-0.000193209
0.000193031
-1.81795e-07
-0.000236922
3.23949e-07
0.000236707
5.04745e-08
-8.43287e-05
8.42619e-05
5.05577e-08
-8.4311e-05
8.4244e-05
-0.000227976
0.000227713
7.67758e-08
8.24182e-05
-1.33714e-08
-0.000281491
-3.48362e-08
2.63472e-08
0.00028125
2.06927e-07
2.77108e-08
3.26178e-07
-1.24923e-08
8.23959e-05
1.60181e-07
-9.41079e-09
0.000150422
-2.27482e-08
-2.15621e-07
8.57146e-11
4.30052e-07
-0.000239828
-1.13791e-07
0.000239679
2.66228e-07
-0.00018031
7.55448e-09
1.55162e-11
0.000180132
3.9882e-07
2.2194e-11
0.000150303
7.46018e-08
8.23718e-05
-1.35676e-08
-4.98833e-08
1.0335e-08
2.54665e-07
-0.000281357
-3.70484e-08
2.62712e-08
0.000281118
2.06731e-07
2.76409e-08
3.26151e-07
-1.23047e-08
8.23471e-05
-9.42333e-09
1.58051e-07
0.000150348
-2.15612e-07
-2.2451e-08
4.3004e-07
-0.000180276
7.58464e-09
0.000180098
-0.000239725
-1.15817e-07
0.000239579
2.66033e-07
3.98791e-07
0.000150228
7.45751e-08
8.23718e-05
-1.35388e-08
-4.98463e-08
1.03249e-08
2.54628e-07
-0.000281349
-3.7009e-08
2.62999e-08
2.06679e-07
0.00028111
2.99004e-08
3.25955e-07
-1.22737e-08
8.2347e-05
1.58068e-07
-9.41344e-09
0.000150345
-2.24751e-08
-2.15609e-07
4.32618e-07
-0.000239719
-1.15821e-07
2.66034e-07
0.000239573
-0.000180271
7.56657e-09
0.000180093
3.98746e-07
0.000150224
0.000237108
2.63942e-07
-1.91565e-07
-1.85894e-07
3.30423e-07
-2.02744e-07
-0.000265703
2.16277e-07
1.89543e-07
2.95976e-07
-7.60703e-09
-9.88651e-08
1.10119e-07
1.36625e-07
-0.000193389
-3.64353e-09
-1.49258e-07
2.00421e-07
4.15438e-07
2.69392e-07
-1.74487e-08
0.000237042
2.63909e-07
-1.91832e-07
-1.86226e-07
3.28869e-07
-2.02278e-07
-0.000265585
2.18563e-07
1.92103e-07
2.95938e-07
-7.65941e-09
-9.88635e-08
1.07568e-07
1.36414e-07
-0.000193327
-3.44351e-09
-1.49327e-07
2.03285e-07
4.12644e-07
2.66842e-07
-1.76177e-08
0.000228202
-5.05248e-08
-5.0602e-08
3.62892e-08
-8.43686e-05
3.62057e-08
-8.43507e-05
-1.32401e-07
-0.000236706
1.98415e-07
-1.45168e-07
2.01156e-07
0.000236584
-2.5937e-07
0.000265446
4.06328e-07
2.67084e-07
0.000193027
1.87184e-07
-1.62251e-08
1.50916e-08
1.95626e-07
0.000295862
6.34096e-08
-2.48269e-09
0.000192913
-1.81629e-07
3.21273e-07
2.15059e-07
0.00026544
1.84739e-07
1.98126e-07
-0.000236784
-1.34099e-07
-1.47037e-07
1.98059e-07
0.000236669
0.000265619
-2.59954e-07
4.09456e-07
2.67153e-07
1.8533e-07
0.000193095
-1.64877e-08
1.97714e-07
1.58395e-08
-6.9452e-08
6.56738e-08
0.000295994
2.17547e-07
1.89648e-07
0.000265607
-1.79337e-07
3.2329e-07
-2.38269e-09
0.000192979
-3.61436e-08
-0.000227718
-3.61701e-08
0.000227498
8.42444e-05
5.06137e-08
5.05234e-08
8.42603e-05
8.42057e-05
8.42217e-05
-2.14978e-08
0.000101925
3.41125e-08
-8.23329e-05
-1.22692e-08
8.23111e-05
0.000280928
-7.61584e-08
2.77575e-08
3.2193e-07
-4.16471e-08
1.64757e-07
0.000204969
2.62467e-08
1.98321e-07
0.000280696
-1.32183e-08
1.08487e-07
-0.000150145
-8.14879e-09
0.000150033
-2.32634e-08
-1.6202e-07
7.41054e-11
2.93742e-07
0.000245952
0.000239444
-1.54718e-07
3.9447e-07
1.01012e-08
0.000179915
4.56737e-11
2.57355e-07
0.000239298
3.43215e-11
0.000179745
-8.22865e-05
3.63454e-08
-1.20858e-08
8.22622e-05
-7.39761e-08
0.000280797
2.76438e-08
3.1935e-07
-4.17171e-08
1.64709e-07
0.000204915
2.1582e-08
-1.34238e-08
2.62076e-08
2.00646e-07
0.000280564
-0.000150072
-8.19171e-09
1.10527e-07
0.000149957
-1.61986e-07
-2.31427e-08
2.93709e-07
0.000245911
1.01303e-08
0.000179881
-1.5259e-07
0.000239344
3.91858e-07
0.000179711
2.59743e-07
0.000239198
-4.4921e-07
-0.000268951
0.000268665
-4.49587e-07
-0.000269386
5.69127e-07
0.000269098
-0.000256234
0.000255985
0.000256061
4.51297e-07
4.5172e-07
-5.75945e-07
-5.81778e-07
-1.15123e-07
-0.00026857
-1.15254e-07
-0.000269
1.116e-07
-0.000255993
1.11845e-07
0.000256169
-4.49825e-07
0.00026908
5.74724e-07
0.000268715
-4.48998e-07
-6.41996e-09
-6.47973e-09
-1.07051e-06
0.000272832
0.0002691
-7.02665e-08
0.000269471
5.4796e-07
1.90392e-08
0.00111845
5.9739e-09
0.00112526
5.63768e-07
0.00111774
5.09852e-07
0.00111819
0.0011248
-0.000272409
-1.61099e-07
-9.0717e-08
1.07693e-07
0.000273184
1.85452e-07
0.000271519
6.12681e-07
0.000266607
1.00909e-07
-0.000266878
1.30891e-07
1.02692e-07
0.000261583
1.2822e-07
-0.000273083
0.000271653
1.0012e-07
0.000266717
-0.000271077
-1.22414e-07
5.65838e-08
0.000271928
-5.77908e-08
1.60564e-07
-8.98988e-11
0.000263448
6.5478e-07
0.000263805
-0.000264019
-5.9606e-08
0.000269986
-0.000270527
6.62628e-09
-0.00027178
0.000263982
-2.695e-09
0.000270687
0.000272305
-6.19147e-07
1.28567e-07
9.59703e-08
-0.000266763
1.01995e-07
1.08046e-07
1.02552e-07
0.000270928
-6.60676e-07
6.27663e-08
-5.70612e-08
6.47295e-07
4.45824e-10
1.27614e-07
-0.000263839
-5.97374e-08
-0.000269818
-6.14788e-09
3.87191e-09
-6.19031e-07
-1.83782e-07
0.000272219
1.18074e-07
-0.000271408
1.64791e-07
0.000271543
1.23027e-07
4.96113e-07
-0.000266667
9.59155e-08
1.01928e-07
0.000266782
1.02459e-07
1.18524e-07
0.000272988
5.90965e-08
-6.57828e-07
0.000270869
6.44621e-07
-5.59411e-08
-0.000269804
-6.00144e-08
0.000270501
-0.00026376
1.30268e-07
0.000263939
0.000271728
-6.18879e-07
-1.83682e-07
0.000272224
1.36425e-07
-0.000271394
1.64746e-07
0.000271531
1.22997e-07
4.98646e-07
-0.000266651
9.31334e-08
9.94564e-08
0.000266771
1.07613e-07
1.02733e-07
0.000273008
6.40373e-08
-6.57865e-07
0.000270865
6.47299e-07
-5.69868e-08
-0.000269805
-5.74021e-08
0.000270505
-0.00026375
1.27647e-07
0.000263929
0.000271711
-1.6373e-07
-0.000272324
-8.79219e-08
1.15502e-07
0.000273093
0.000271441
1.82691e-07
6.15225e-07
0.000266505
1.00786e-07
1.2833e-07
1.02706e-07
-6.32225e-08
0.000261513
-1.87309e-07
0.000271572
1.17693e-07
1.00042e-07
0.000266621
5.97033e-08
-0.000271018
-1.22276e-07
0.000271874
1.60561e-07
-5.84883e-08
0.000263423
0.000269972
-5.8558e-08
6.54599e-07
0.000263721
0.000270671
0.0002639
-0.0011157
4.89205e-07
0.00111651
-1.53224e-06
6.54074e-07
-6.67737e-07
1.42779e-09
-1.34072e-06
-5.66759e-07
1.05446e-06
8.28817e-08
1.01981e-06
-0.000294517
9.45661e-08
-8.97969e-08
-6.08029e-09
2.68581e-07
0.000294249
8.65443e-08
-0.000293604
-8.33205e-08
2.51566e-07
0.00029335
-1.18929e-09
-0.00111212
-4.75679e-09
0.00111304
-4.90794e-07
1.0346e-06
6.94565e-07
-1.23446e-06
4.98055e-07
-1.41692e-06
-0.000244996
-8.81382e-11
3.96187e-07
-1.74741e-07
-2.33049e-08
0.000244798
-0.00111732
-1.53547e-06
4.94917e-07
1.05554e-06
-5.7332e-07
8.42206e-08
6.61059e-07
-6.72034e-07
-1.33988e-06
5.4995e-09
0.00111813
1.0032e-06
-0.00111397
-2.48463e-09
-4.9665e-07
7.05287e-07
-1.23271e-06
-1.42036e-06
5.05815e-07
0.00111489
1.02375e-06
8.87457e-09
-0.000203268
2.15589e-07
0.000203083
-3.99772e-08
-1.01472e-06
-9.91135e-07
3.94458e-07
-0.00111671
5.24581e-07
0.0011178
-1.5339e-06
1.02443e-06
4.84093e-07
0.00111271
-5.74583e-07
1.02498e-06
6.19599e-08
6.30279e-07
-6.77722e-07
-1.34144e-06
-2.03244e-08
-1.00847e-06
-1.00269e-06
0.00111977
5.20352e-07
5.20102e-07
-0.0011188
-0.00111527
-1.52978e-06
1.014e-06
5.00779e-07
0.00111611
-5.69202e-07
1.04314e-06
7.41813e-08
6.48569e-07
-6.67752e-07
-1.33794e-06
-9.74079e-09
-0.000273291
1.52685e-06
1.56421e-06
0.00027134
-5.6832e-07
-5.71945e-07
-1.08289e-06
-1.04285e-06
0.000273332
-0.000271213
1.25568e-09
5.7269e-09
1.01273e-06
5.11599e-07
0.00111237
6.41197e-07
-6.75072e-07
-1.34678e-06
-2.04457e-08
0.00111479
1.01337e-06
-0.00111394
5.04275e-07
-1.57202e-06
7.74758e-08
-5.75655e-07
-1.34536e-06
-1.23967e-08
-6.71193e-07
6.50291e-07
-5.45667e-08
0.000260725
-1.46298e-07
1.09505e-07
-0.000260728
9.38264e-08
-6.05573e-08
1.96395e-08
1.76039e-07
-0.000294706
-1.55734e-06
1.05029e-06
5.4396e-07
0.00111226
-5.71956e-07
1.07064e-06
7.03596e-08
6.32971e-07
-6.80472e-07
-1.34403e-06
-2.26958e-08
0.00111576
1.01939e-06
-0.00111492
5.03136e-07
-1.52974e-06
7.47214e-08
-5.7018e-07
-1.34249e-06
-1.21737e-08
-6.71161e-07
6.4758e-07
1.07761e-06
0.00111481
1.01863e-06
-0.00111397
5.04274e-07
-1.56669e-06
7.45973e-08
-5.72984e-07
-1.3424e-06
-1.22524e-08
-6.71057e-07
6.47608e-07
1.04334e-06
4.82002e-07
-0.00111476
6.8721e-08
-1.53746e-06
-5.87134e-07
-1.3561e-06
-1.6821e-08
6.44865e-07
-6.9572e-07
1.0401e-06
-1.96164e-08
-4.98577e-07
-0.00111117
-1.42339e-06
4.94043e-07
6.90494e-07
-1.23537e-06
-2.33079e-10
2.71088e-07
-1.38229e-07
-2.35142e-08
-0.000245105
-5.77675e-07
-5.72198e-07
0.000270703
-1.04005e-06
0.000273311
-0.000271195
-1.32745e-09
3.34693e-09
1.02398e-06
5.15765e-07
0.00111291
1.02496e-06
6.18778e-08
6.33125e-07
-6.77617e-07
-2.25486e-08
-1.34115e-06
1.01373e-06
-0.00111442
5.03359e-07
-1.52935e-06
7.19177e-08
-5.69967e-07
-1.33966e-06
-1.22301e-08
6.448e-07
-6.71084e-07
1.02623e-06
0.00111542
-0.00111457
5.02617e-07
-1.51636e-06
5.40333e-08
-5.5338e-07
1.01311e-06
-1.33129e-06
-3.84148e-08
-6.38533e-07
6.39264e-07
-1.08515e-06
-3.81243e-08
-0.000271179
3.71005e-08
-2.11859e-08
6.04253e-08
0.000101537
-0.000101576
1.57239e-06
1.53017e-06
-5.697e-07
-5.75277e-07
0.000271375
1.00256e-06
5.01745e-07
0.00111563
-5.7482e-07
1.08611e-06
7.9727e-08
6.54049e-07
-6.65164e-07
-1.34365e-06
-1.2174e-08
-2.28505e-07
4.75142e-07
0.000260464
1.08864e-07
-0.000260183
-2.15516e-07
4.60305e-07
0.000259921
1.03471e-07
1.01423e-06
5.00567e-07
0.00111659
-5.72187e-07
1.04596e-06
7.69895e-08
6.51369e-07
-6.67816e-07
-1.34075e-06
-9.67387e-09
-1.56432e-06
1.01343e-06
4.96242e-07
0.00111564
-5.69422e-07
1.07809e-06
7.68929e-08
6.51375e-07
-6.67711e-07
-1.34067e-06
-9.74497e-09
-5.67523e-07
-5.72227e-07
0.000271356
0.00111629
5.06312e-07
1.03551e-06
-5.74978e-07
7.10201e-08
1.00823e-06
6.45796e-07
-6.81397e-07
-1.66089e-08
-1.3459e-06
0.000101304
-2.04131e-08
5.86268e-08
-0.000101343
1.56698e-06
-0.000273606
-5.6102e-07
0.00027165
-5.71631e-07
1.52208e-06
8.33785e-08
0.00010123
-0.000101545
-9.57332e-09
0.000101465
5.88925e-08
0.000101311
-2.04079e-08
-0.000101349
0.00111304
-0.00111212
6.97116e-07
-1.23453e-06
4.98052e-07
-1.42245e-06
1.03425e-06
-3.98766e-07
-4.06948e-10
-0.000263485
6.33832e-07
-5.47804e-08
0.000263305
-9.22917e-08
-2.26114e-07
-0.000260745
4.72694e-07
1.11666e-07
0.000260479
4.97349e-07
1.04091e-06
-1.32814e-06
-3.08841e-08
-6.32011e-07
6.49316e-07
-1.52492e-06
6.14234e-08
-5.51873e-07
7.20386e-09
0.00111395
-1.41873e-06
5.01929e-07
-1.23359e-06
7.01098e-07
1.02876e-06
-2.58304e-07
-9.04366e-10
0.000263478
-0.000263296
1.32684e-07
-5.58927e-08
-5.15891e-08
-1.38396e-07
0.000260211
-0.000260228
1.19193e-07
8.79271e-08
-0.000273324
1.56947e-06
-5.64108e-07
-5.7512e-07
0.000271361
-8.7549e-08
-0.000294473
-4.32465e-09
2.66406e-07
0.000294206
4.93023e-08
-0.000293758
1.42247e-07
2.17779e-08
0.000273638
-1.09191e-06
-0.000271518
-2.82905e-08
4.11294e-08
-5.85892e-08
0.000293582
-0.000293796
2.05413e-07
1.59523e-08
-9.62265e-09
-0.000101542
0.000101464
0.000101309
-2.03505e-08
-0.000101348
-9.00879e-09
0.000101236
1.56757e-06
-5.70258e-07
0.000271671
-5.66177e-07
-8.33565e-08
8.91439e-08
2.63436e-07
-4.92044e-09
0.000293317
-8.83014e-09
0.000101235
-0.000245035
-2.38822e-08
-1.74739e-07
0.000244835
-0.000203946
-4.2883e-08
0.000203754
7.58439e-11
0.000244417
-0.000244528
-2.33102e-08
-1.24047e-07
0.000203312
-0.000203437
-3.44401e-08
-0.000263454
6.31155e-07
-5.237e-08
0.000263271
-4.99293e-07
-1.41863e-06
5.01989e-07
-1.23357e-06
7.01358e-07
1.02911e-06
0.00111533
-0.00111453
1.08355e-06
-5.6691e-07
8.2181e-08
6.48475e-07
-6.54081e-07
-7.60364e-09
-1.3297e-06
1.01905e-06
0.00111614
1.0841e-06
-1.33332e-06
-7.49695e-09
6.54921e-07
-6.58892e-07
1.00822e-06
-1.564e-06
8.16168e-08
-5.7159e-07
-1.38376e-07
0.000260175
-4.92086e-08
1.06054e-07
-0.000260182
8.79992e-08
-2.23804e-07
-9.22341e-08
-0.000260707
1.09091e-07
4.65019e-07
0.000260449
-2.58268e-07
0.000263448
-0.000263271
1.35438e-07
-5.58183e-08
-0.000203392
-3.45174e-08
-0.0002039
9.65223e-09
-4.2528e-08
0.000203709
0.000244379
-0.00024449
-2.31358e-08
-1.24012e-07
7.0497e-07
-1.22997e-06
-1.41773e-06
5.0571e-07
0.00111485
1.02344e-06
-3.81801e-07
1.9034e-09
6.2483e-07
-5.23605e-08
0.000263285
-2.15565e-07
4.65313e-07
1.03557e-07
0.000259947
2.83731e-10
-2.31853e-08
-1.60701e-07
0.000244219
-3.98697e-08
0.000203128
-5.7322e-07
1.08448e-06
8.3897e-08
6.58457e-07
-6.60821e-07
-1.33689e-06
-5.25839e-09
0.00111696
1.00294e-06
-8.91458e-08
4.65406e-07
0.000259911
1.03481e-07
-3.81804e-07
6.22162e-07
-5.25129e-08
0.000263262
-2.30899e-08
-1.60705e-07
0.000244181
5.51165e-11
2.81834e-07
0.000245653
-0.00024576
-1.5161e-07
-2.3634e-08
2.47475e-10
4.25189e-07
0.000246062
-2.06643e-07
-2.29335e-08
2.14457e-08
1.5931e-07
0.000204638
-4.03287e-08
-0.000204779
-2.15546e-08
6.48538e-08
0.000101786
-0.000101829
2.84354e-07
-2.59891e-10
0.000245645
-0.000245752
-2.34168e-08
-1.5376e-07
2.14187e-08
1.59208e-07
0.000204613
-4.02548e-08
-0.000204754
0.00112199
-1.32777e-07
-4.91881e-07
-0.00112086
5.32365e-07
5.30908e-07
5.10027e-07
0.00111479
5.36435e-07
4.28553e-07
0.00111471
5.41699e-07
5.26369e-07
0.00111444
5.14661e-07
5.47943e-07
0.00111447
0.00111778
-0.0011168
5.24511e-07
5.19835e-07
0.00111742
-0.00111643
5.1919e-07
5.25182e-07
-2.84366e-07
-1.81775e-09
0.000263471
-0.000263284
-5.94036e-08
1.58133e-07
5.08108e-07
1.03342e-06
0.00111371
1.03546e-06
-1.34555e-06
-2.70341e-08
-6.77599e-07
6.31588e-07
-1.53445e-06
6.12976e-08
-5.71359e-07
-6.26296e-08
-1.59182e-07
0.000261309
1.04842e-07
-0.000261323
1.31508e-07
-1.95023e-08
0.00111028
1.05674e-06
-1.42807e-06
4.85791e-07
-1.24276e-06
6.81845e-07
-1.02251e-08
9.8799e-08
0.000101954
-2.14444e-08
6.71303e-08
0.000101776
-0.000101822
-8.72124e-10
-2.84364e-07
0.000263466
-0.000263275
1.52646e-07
-5.88877e-08
0.00110921
-1.52913e-08
1.05697e-06
6.77459e-07
-1.23827e-06
-1.4235e-06
4.81528e-07
-1.0689e-07
-2.48703e-07
4.94155e-07
1.20116e-07
0.000261582
5.03085e-07
1.03367e-06
0.00111357
1.02988e-06
-1.34008e-06
-1.75361e-08
-6.74706e-07
6.37084e-07
-1.52869e-06
6.72629e-08
-5.71301e-07
2.40188e-10
-4.25283e-07
0.000263253
6.44058e-07
-5.39505e-08
-9.48968e-09
0.00111016
1.04568e-06
-1.42262e-06
4.85797e-07
-1.23726e-06
6.81854e-07
-6.01583e-08
-1.5924e-07
0.000261314
9.96365e-08
-0.000261318
1.23738e-07
-1.06819e-06
-1.02553e-06
0.000272964
-0.000270856
-1.18772e-08
-2.53217e-09
6.02269e-08
-6.72286e-08
0.000295465
1.93206e-08
-0.00029567
1.92826e-07
6.01524e-08
-6.71323e-08
0.000295379
1.62712e-08
-0.000295579
1.90191e-07
-2.05656e-10
2.58325e-07
-0.000244539
-1.21875e-07
-2.32047e-08
0.000244426
-0.000203973
9.59064e-09
2.26236e-07
-4.29705e-08
0.00020378
-0.000245043
1.66929e-10
3.96147e-07
0.000244847
-1.7687e-07
-2.36105e-08
2.03745e-08
1.38521e-07
-3.45171e-08
-0.000203463
0.000203339
2.58302e-07
-1.79557e-10
0.000244416
-0.000244527
-2.31795e-08
-1.24043e-07
-0.000203946
9.57853e-09
2.26227e-07
-4.29491e-08
0.000203753
-0.000245033
3.96178e-07
2.69646e-10
0.000244835
-2.36495e-08
-1.74739e-07
2.03946e-08
1.38443e-07
-3.45164e-08
-0.000203437
0.000203312
0.00112303
-5.11408e-07
5.30006e-07
-2.55907e-08
5.22342e-07
5.17626e-07
0.00111876
5.11483e-07
5.23109e-07
0.00111841
-0.000101529
-9.56023e-09
8.74425e-08
0.000101452
-2.03923e-08
5.8625e-08
0.000101297
-0.000101335
-8.80307e-10
-2.58318e-07
-0.000263295
1.32717e-07
-5.66533e-08
0.000263479
0.00111298
-0.00111205
2.63014e-09
1.02881e-06
6.9166e-07
-1.2345e-06
-1.41706e-06
4.98038e-07
-0.00026078
-9.47274e-08
-2.26197e-07
4.72624e-07
1.09016e-07
0.00026052
4.98189e-07
1.0463e-06
0.00111693
1.00882e-06
-1.3361e-06
-7.37062e-09
-6.6433e-07
6.52226e-07
-1.53014e-06
7.63966e-08
-5.68361e-07
-0.000263486
7.2944e-10
-3.96205e-07
0.0002633
6.33884e-07
-5.32175e-08
-4.02606e-09
1.02883e-06
-1.41603e-06
5.01974e-07
-1.23358e-06
6.95694e-07
0.0011139
-4.91666e-08
-1.38475e-07
0.000260241