/*--------------------------------*- C++ -*----------------------------------*\
| =========                 |                                                 |
| \\      /  F ield         | OpenFOAM: The Open Source CFD Toolbox           |
|  \\    /   O peration     | Version:  v2006                                 |
|   \\  /    A nd           | Website:  www.openfoam.com                      |
|    \\/     M anipulation  |                                                 |
\*---------------------------------------------------------------------------*/
FoamFile
{
    version     2.0;
    format      ascii;
    class       volScalarField;
    location    "500";
    object      k;
}
// * * * * * * * * * * * * * * * * * * * * * * * * * * * * * * * * * * * * * //

dimensions      [0 2 -2 0 0 0 0];


internalField   nonuniform List<scalar> 
14404
(
5.15307e-05
5.15404e-05
5.31973e-05
3.91723e-05
7.09384e-05
6.45979e-05
7.30839e-05
6.85774e-05
4.71435e-05
6.4596e-05
6.08162e-05
6.93703e-05
6.93599e-05
7.09539e-05
7.3138e-05
7.9436e-05
7.14757e-05
7.14453e-05
7.15102e-05
7.16611e-05
6.4343e-05
7.26912e-05
7.23861e-05
7.20915e-05
6.43193e-05
7.26919e-05
6.91069e-05
6.40696e-05
7.23357e-05
7.271e-05
7.29062e-05
7.2931e-05
9.18439e-05
7.09643e-05
7.31209e-05
7.93208e-05
6.42857e-05
5.87401e-05
5.87341e-05
5.29589e-05
5.84892e-05
6.45457e-05
5.8488e-05
3.21864e-05
5.72827e-05
6.01345e-05
6.44106e-05
5.99212e-05
6.39837e-05
6.01543e-05
6.41575e-05
5.75177e-05
5.54413e-05
6.24301e-05
5.66528e-05
6.81912e-05
7.30804e-05
7.304e-05
7.10441e-05
7.10337e-05
5.22327e-05
6.83503e-05
6.82633e-05
6.03753e-05
5.10354e-05
6.36921e-05
4.69116e-05
5.10283e-05
6.3588e-05
7.17043e-05
6.83237e-05
7.15229e-05
7.09167e-05
7.15042e-05
7.10731e-05
7.17329e-05
7.15009e-05
7.86401e-05
7.30465e-05
7.87892e-05
7.15212e-05
7.29985e-05
7.09483e-05
7.09706e-05
7.09585e-05
9.0671e-05
7.32809e-05
7.32637e-05
7.31201e-05
7.31036e-05
9.13137e-05
7.12323e-05
7.2938e-05
6.84111e-05
6.3256e-05
7.27937e-05
7.13605e-05
6.32701e-05
7.12647e-05
7.29256e-05
6.83425e-05
6.32275e-05
7.27834e-05
7.13761e-05
6.32503e-05
7.14689e-05
7.30618e-05
7.91234e-05
7.16613e-05
6.83853e-05
7.14452e-05
7.12758e-05
7.21251e-05
6.90821e-05
7.27034e-05
6.40748e-05
9.1602e-05
7.29776e-05
7.30095e-05
6.34154e-05
5.2322e-05
5.76872e-05
5.76762e-05
6.34337e-05
5.77217e-05
5.77143e-05
5.61379e-05
6.04949e-05
6.17736e-05
5.49396e-05
6.19179e-05
5.5095e-05
5.59532e-05
5.68388e-05
6.32835e-05
6.38298e-05
5.91946e-05
6.34536e-05
5.93069e-05
5.66685e-05
6.37484e-05
5.91351e-05
5.92703e-05
5.72645e-05
6.43739e-05
6.39166e-05
5.99162e-05
5.6382e-05
6.06213e-05
5.5202e-05
6.22179e-05
5.07914e-05
4.86464e-05
4.87245e-05
5.11096e-05
4.87562e-05
3.47882e-05
7.27236e-05
7.06587e-05
7.04347e-05
7.05843e-05
7.04152e-05
5.07563e-05
6.76742e-05
6.77517e-05
6.74734e-05
6.78294e-05
6.70784e-05
7.27551e-05
7.24194e-05
6.64701e-05
6.70081e-05
7.2422e-05
6.64383e-05
5.90766e-05
4.86761e-05
6.25516e-05
4.34199e-05
6.28606e-05
4.34797e-05
5.82643e-05
5.8923e-05
4.78831e-05
4.31819e-05
6.20356e-05
4.32198e-05
5.8206e-05
7.06169e-05
4.91933e-05
6.66416e-05
6.65988e-05
7.06375e-05
6.83036e-05
7.25902e-05
7.24226e-05
6.6526e-05
6.03706e-05
4.87538e-05
6.27402e-05
4.3637e-05
6.33056e-05
4.36609e-05
5.87021e-05
6.85057e-05
7.20092e-05
6.63386e-05
6.06055e-05
4.88251e-05
4.36403e-05
4.37284e-05
6.40633e-05
5.85837e-05
5.87456e-05
4.78778e-05
6.19919e-05
4.31833e-05
6.70587e-05
7.25331e-05
5.89743e-05
4.88306e-05
4.34142e-05
6.379e-05
6.72712e-05
7.27567e-05
7.01067e-05
5.06146e-05
6.75599e-05
6.75606e-05
7.01157e-05
6.04067e-05
4.88145e-05
4.37098e-05
6.40009e-05
6.02099e-05
4.89347e-05
4.36525e-05
6.42781e-05
6.86172e-05
7.20795e-05
6.86006e-05
7.27879e-05
5.15154e-05
6.90641e-05
6.95574e-05
7.05919e-05
7.0599e-05
7.07358e-05
7.06529e-05
6.84089e-05
6.81289e-05
6.27632e-05
7.09893e-05
7.88188e-05
7.96239e-05
7.08879e-05
7.10317e-05
7.6962e-05
7.28742e-05
7.08837e-05
7.7142e-05
7.05616e-05
7.05031e-05
7.0501e-05
7.04569e-05
9.17195e-05
7.25793e-05
7.25798e-05
8.91533e-05
7.2992e-05
7.29787e-05
7.25522e-05
6.33035e-05
6.74243e-05
7.29034e-05
7.26793e-05
6.26777e-05
7.41831e-05
7.27625e-05
6.35168e-05
6.76662e-05
7.28612e-05
7.26801e-05
6.29408e-05
7.42771e-05
7.10349e-05
7.22573e-05
6.24478e-05
6.73918e-05
7.03631e-05
7.24645e-05
6.24822e-05
7.13324e-05
7.23277e-05
6.27177e-05
6.76781e-05
7.06405e-05
7.25036e-05
6.27535e-05
9.46579e-05
7.37872e-05
7.37373e-05
7.33999e-05
7.33715e-05
9.75736e-05
7.11626e-05
7.09336e-05
6.97716e-05
6.67412e-05
7.11361e-05
7.096e-05
6.94487e-05
7.09185e-05
7.25862e-05
7.71788e-05
7.10368e-05
7.70779e-05
7.08711e-05
7.73157e-05
7.24577e-05
7.08502e-05
7.71054e-05
7.12038e-05
6.65301e-05
7.1049e-05
6.9291e-05
7.12661e-05
7.09982e-05
6.93001e-05
7.12193e-05
7.09423e-05
6.95826e-05
6.66886e-05
7.11692e-05
7.098e-05
6.93073e-05
7.09207e-05
7.69719e-05
7.25911e-05
7.08972e-05
7.68522e-05
7.12593e-05
6.64905e-05
7.1069e-05
6.91955e-05
7.10181e-05
6.91921e-05
7.13225e-05
7.07319e-05
9.0313e-05
7.27271e-05
7.27408e-05
8.83653e-05
7.30546e-05
7.30682e-05
7.09669e-05
7.27411e-05
6.0939e-05
6.6802e-05
6.14596e-05
6.94441e-05
7.30135e-05
7.09565e-05
7.27617e-05
6.08576e-05
6.69056e-05
6.9379e-05
7.30489e-05
6.14342e-05
7.07527e-05
7.11013e-05
7.08042e-05
7.08913e-05
6.76441e-05
7.11115e-05
7.0159e-05
7.08738e-05
7.07685e-05
7.24623e-05
7.69565e-05
7.08131e-05
7.70884e-05
7.07726e-05
7.8053e-05
7.2423e-05
7.07988e-05
7.74646e-05
7.11036e-05
6.70177e-05
6.92507e-05
7.08891e-05
7.11398e-05
6.96058e-05
7.08704e-05
7.09749e-05
7.08593e-05
7.12313e-05
6.77122e-05
7.10118e-05
7.08333e-05
7.01954e-05
7.06948e-05
7.82201e-05
7.18755e-05
7.07882e-05
7.68757e-05
7.0966e-05
6.69554e-05
7.0842e-05
6.85311e-05
7.08259e-05
6.92451e-05
7.09935e-05
7.12785e-05
6.96975e-05
7.09892e-05
6.69731e-05
7.12196e-05
6.96409e-05
7.10334e-05
7.10301e-05
7.72909e-05
7.27141e-05
7.0979e-05
7.7317e-05
7.12619e-05
7.09893e-05
7.03838e-05
6.72087e-05
7.12286e-05
7.1026e-05
7.0363e-05
7.11535e-05
7.86661e-05
7.27772e-05
7.10915e-05
7.86881e-05
7.00943e-05
7.73119e-05
7.05835e-05
7.06015e-05
7.78445e-05
7.09286e-05
7.09453e-05
6.40685e-05
7.08728e-05
6.09632e-05
6.61205e-05
5.95528e-05
6.51346e-05
7.09118e-05
6.40609e-05
7.0882e-05
6.09103e-05
6.62102e-05
6.50969e-05
7.09291e-05
5.9547e-05
7.01048e-05
7.1022e-05
7.1383e-05
7.08965e-05
6.80647e-05
7.10506e-05
7.05817e-05
7.08755e-05
7.07835e-05
7.85646e-05
7.19578e-05
7.08716e-05
7.74308e-05
7.12073e-05
7.1556e-05
7.09498e-05
6.82207e-05
7.12212e-05
7.1244e-05
7.09332e-05
7.10869e-05
7.96377e-05
7.2762e-05
7.10971e-05
7.93489e-05
9.54989e-05
7.31114e-05
7.31215e-05
9.55643e-05
7.30953e-05
7.30764e-05
7.37712e-05
7.25864e-05
6.42836e-05
6.91168e-05
7.3793e-05
6.42792e-05
7.25891e-05
7.40297e-05
7.2673e-05
6.45725e-05
6.95476e-05
7.40617e-05
6.45686e-05
7.26603e-05
7.06274e-05
7.06182e-05
7.08209e-05
7.07435e-05
7.66862e-05
6.42293e-05
7.30826e-05
6.9245e-05
7.56261e-05
7.31934e-05
6.50974e-05
7.65867e-05
6.43071e-05
7.30045e-05
6.88186e-05
7.56124e-05
7.30934e-05
6.50447e-05
0.000101611
7.40343e-05
7.39612e-05
0.000100018
7.41415e-05
7.40437e-05
6.35956e-05
5.07248e-05
5.71086e-05
5.71985e-05
5.67646e-05
5.68556e-05
6.47618e-05
6.67571e-05
5.78514e-05
5.7909e-05
5.14918e-05
6.58721e-05
5.85293e-05
5.85468e-05
3.46899e-05
2.70827e-05
2.70906e-05
2.69266e-05
2.69081e-05
1.76188e-05
1.77829e-05
3.42746e-05
2.69319e-05
2.68341e-05
2.68453e-05
1.76302e-05
1.7773e-05
3.46913e-05
2.70857e-05
2.69308e-05
2.6949e-05
1.76283e-05
1.77862e-05
3.47465e-05
2.69426e-05
2.69346e-05
1.76474e-05
1.78037e-05
6.29185e-05
5.06951e-05
5.66441e-05
5.67335e-05
6.27191e-05
5.66516e-05
5.67422e-05
5.41401e-05
6.06483e-05
5.31995e-05
5.8712e-05
5.4526e-05
6.02569e-05
5.28706e-05
5.49756e-05
5.80111e-05
6.25374e-05
6.17067e-05
5.79854e-05
6.17335e-05
5.48818e-05
5.51523e-05
6.22865e-05
5.81877e-05
6.2614e-05
5.80119e-05
5.55043e-05
6.19178e-05
5.39414e-05
5.84163e-05
5.98833e-05
5.24624e-05
5.9983e-05
5.26742e-05
5.37449e-05
5.3679e-05
6.021e-05
5.299e-05
5.85946e-05
5.39454e-05
5.99238e-05
5.26989e-05
5.44328e-05
6.15573e-05
5.71139e-05
6.19856e-05
5.45773e-05
6.13608e-05
5.71291e-05
5.35782e-05
5.83316e-05
5.97057e-05
5.23597e-05
5.97443e-05
5.25343e-05
5.34907e-05
6.21184e-05
4.92652e-05
5.4914e-05
5.48912e-05
5.5232e-05
6.08264e-05
5.52179e-05
5.66203e-05
6.35994e-05
6.42015e-05
5.62954e-05
5.47757e-05
6.16302e-05
5.39865e-05
5.98215e-05
5.51786e-05
6.10933e-05
5.37812e-05
5.53264e-05
5.82725e-05
6.27794e-05
6.18916e-05
5.82628e-05
6.20925e-05
5.51303e-05
5.55703e-05
6.29836e-05
5.84988e-05
6.29645e-05
5.83086e-05
5.59526e-05
6.24793e-05
5.4491e-05
5.92207e-05
6.01858e-05
5.30136e-05
6.05706e-05
5.34593e-05
5.41242e-05
5.52381e-05
5.41619e-05
6.23836e-05
5.99773e-05
5.5741e-05
5.39477e-05
6.14474e-05
5.59341e-05
6.39563e-05
5.88556e-05
6.2838e-05
5.68621e-05
6.27395e-05
5.77188e-05
5.46248e-05
5.9239e-05
5.29847e-05
5.96758e-05
5.35395e-05
6.0491e-05
5.39068e-05
5.36085e-05
6.00793e-05
5.27609e-05
5.86183e-05
5.37738e-05
5.99664e-05
5.25933e-05
5.43906e-05
6.15036e-05
5.70249e-05
6.19889e-05
5.44708e-05
5.70541e-05
6.14434e-05
5.43055e-05
5.29687e-05
6.08446e-05
5.88721e-05
5.44344e-05
5.28178e-05
6.07876e-05
5.56683e-05
6.29544e-05
5.90134e-05
6.37981e-05
5.57381e-05
6.29354e-05
5.89924e-05
5.80434e-05
4.9623e-05
5.55807e-05
5.55671e-05
5.43116e-05
5.93765e-05
5.43114e-05
5.51346e-05
5.39539e-05
6.22407e-05
6.00301e-05
5.55827e-05
5.38154e-05
6.1492e-05
5.58719e-05
6.38793e-05
5.87592e-05
6.28824e-05
5.67231e-05
5.76795e-05
6.28246e-05
5.49359e-05
5.37352e-05
6.18336e-05
6.00534e-05
5.49787e-05
5.36837e-05
6.17335e-05
5.6121e-05
6.37093e-05
5.93369e-05
6.42669e-05
5.61431e-05
6.36458e-05
5.9334e-05
6.50985e-05
5.14987e-05
5.80152e-05
5.81124e-05
6.51132e-05
5.80061e-05
5.81053e-05
5.5074e-05
5.83525e-05
6.18342e-05
6.29047e-05
6.18536e-05
5.50851e-05
5.85756e-05
6.89911e-05
7.01829e-05
4.93537e-05
6.51855e-05
6.0635e-05
4.36261e-05
6.92395e-05
7.22335e-05
6.08581e-05
4.93591e-05
4.37277e-05
6.53562e-05
5.1669e-05
6.91649e-05
6.9067e-05
7.01874e-05
7.22798e-05
7.11964e-05
6.93e-05
7.15375e-05
7.09315e-05
7.22283e-05
7.09739e-05
7.11491e-05
7.02971e-05
7.11746e-05
6.95067e-05
7.09109e-05
7.23315e-05
7.09624e-05
7.30074e-05
7.10895e-05
7.11175e-05
7.25139e-05
7.97071e-05
8.12214e-05
7.09566e-05
8.37935e-05
7.05056e-05
7.05227e-05
7.05791e-05
7.05936e-05
7.99049e-05
6.997e-05
7.08128e-05
7.09458e-05
6.27298e-05
7.11724e-05
6.46274e-05
6.71648e-05
6.98765e-05
7.06113e-05
7.09451e-05
6.26383e-05
6.45135e-05
7.11576e-05
6.70955e-05
7.02939e-05
7.25283e-05
2.67123e-05
3.47208e-05
2.67568e-05
6.60946e-05
5.98608e-05
6.08588e-05
5.53916e-05
6.07043e-05
6.21911e-05
5.40174e-05
6.24426e-05
5.40327e-05
5.53158e-05
5.59237e-05
6.0917e-05
5.41934e-05
6.29714e-05
5.42047e-05
6.31461e-05
5.58707e-05
5.76107e-05
6.62819e-05
6.51432e-05
6.00043e-05
6.56686e-05
5.74105e-05
6.0978e-05
6.37007e-05
5.27617e-05
5.70889e-05
5.70646e-05
5.8673e-05
5.87045e-05
6.13491e-05
3.49019e-05
4.83723e-05
4.76914e-05
5.14487e-05
3.54875e-05
5.04864e-05
5.02963e-05
5.12254e-05
3.57641e-05
4.85128e-05
4.98698e-05
5.34125e-05
3.69937e-05
5.06848e-05
4.9233e-05
5.08903e-05
3.73518e-05
5.0973e-05
5.11279e-05
5.42695e-05
3.72437e-05
5.01041e-05
5.02735e-05
5.25346e-05
4.79606e-05
5.0318e-05
4.80067e-05
4.79641e-05
4.88193e-05
4.83187e-05
4.80157e-05
4.89325e-05
5.14682e-05
5.25414e-05
4.86883e-05
4.83343e-05
4.94854e-05
5.05228e-05
5.13924e-05
5.47814e-05
4.76724e-05
4.93545e-05
4.90575e-05
4.87862e-05
5.05036e-05
4.87963e-05
4.81152e-05
5.3932e-05
4.89008e-05
4.90262e-05
4.8764e-05
5.10696e-05
5.23104e-05
5.0326e-05
4.94858e-05
5.05166e-05
4.90336e-05
4.87845e-05
5.4567e-05
4.90021e-05
4.93527e-05
5.03641e-05
4.90695e-05
5.06401e-05
4.90003e-05
4.87858e-05
5.02477e-05
5.48798e-05
5.20414e-05
4.88767e-05
5.06312e-05
5.03098e-05
5.34335e-05
5.04546e-05
5.46952e-05
4.90514e-05
4.8467e-05
5.06575e-05
4.95116e-05
4.88706e-05
5.37905e-05
4.91037e-05
4.97985e-05
5.07098e-05
4.89257e-05
5.02443e-05
4.95851e-05
4.94685e-05
5.10586e-05
5.05998e-05
5.03348e-05
4.89772e-05
4.95109e-05
5.08968e-05
5.48585e-05
5.2108e-05
5.11001e-05
5.07197e-05
5.0905e-05
5.14201e-05
5.46508e-05
5.34236e-05
5.10632e-05
4.92386e-05
5.08013e-05
5.12159e-05
4.9423e-05
5.12976e-05
5.06121e-05
5.16847e-05
5.45324e-05
4.94265e-05
5.11022e-05
5.04906e-05
5.39274e-05
5.17015e-05
5.13309e-05
5.03797e-05
5.1059e-05
4.97577e-05
4.99715e-05
5.27424e-05
5.13197e-05
5.03251e-05
5.12165e-05
4.98044e-05
5.03252e-05
5.11334e-05
5.00769e-05
5.11011e-05
5.43155e-05
5.1694e-05
5.10811e-05
5.04364e-05
5.11418e-05
5.28306e-05
5.16633e-05
5.33751e-05
4.97694e-05
4.99956e-05
5.06775e-05
5.09233e-05
5.17671e-05
5.36786e-05
4.98153e-05
5.01629e-05
5.06482e-05
5.0304e-05
5.07354e-05
5.09392e-05
5.04587e-05
5.16731e-05
5.28473e-05
5.0788e-05
5.03534e-05
5.04572e-05
5.24754e-05
5.37761e-05
5.5036e-05
5.11463e-05
5.07198e-05
5.21925e-05
5.19211e-05
5.32397e-05
3.43381e-05
3.46017e-05
3.48523e-05
6.76247e-05
7.29135e-05
6.64806e-05
7.32879e-05
7.0947e-05
7.10725e-05
6.61534e-05
6.61935e-05
7.3138e-05
3.45061e-05
3.45712e-05
3.49062e-05
3.53391e-05
3.58305e-05
3.49469e-05
3.50575e-05
5.93086e-05
6.31678e-05
4.31877e-05
4.94161e-05
5.85605e-05
6.53451e-05
4.33135e-05
7.04055e-05
7.09509e-05
5.78252e-05
4.3426e-05
6.05916e-05
4.76979e-05
5.85438e-05
4.32978e-05
6.07444e-05
6.90723e-05
6.91869e-05
5.11216e-05
6.86278e-05
6.82338e-05
6.91857e-05
7.29868e-05
6.96188e-05
7.25565e-05
7.05979e-05
7.02676e-05
6.95784e-05
7.30955e-05
6.90879e-05
7.27362e-05
3.60074e-05
3.55838e-05
3.52721e-05
3.56885e-05
3.58785e-05
3.63846e-05
3.61696e-05
6.06352e-05
6.65917e-05
4.45938e-05
5.02565e-05
6.05785e-05
6.45388e-05
4.47113e-05
7.13018e-05
7.08257e-05
6.11732e-05
4.36882e-05
6.66147e-05
5.08175e-05
5.9424e-05
4.44149e-05
6.75518e-05
6.90819e-05
6.88067e-05
5.25665e-05
7.05929e-05
7.09303e-05
6.618e-05
7.27748e-05
6.63364e-05
7.33865e-05
7.05808e-05
7.10972e-05
6.66861e-05
7.2773e-05
6.75025e-05
7.32497e-05
3.58167e-05
3.63529e-05
3.63227e-05
3.66539e-05
3.60101e-05
3.62137e-05
3.64095e-05
5.88275e-05
6.14213e-05
4.44763e-05
4.85199e-05
5.9393e-05
6.17264e-05
4.43688e-05
7.02338e-05
7.05765e-05
5.94968e-05
4.50966e-05
6.35041e-05
4.91685e-05
6.1254e-05
4.49983e-05
6.15906e-05
7.07271e-05
7.13096e-05
5.22186e-05
6.8402e-05
6.85328e-05
7.00615e-05
7.37448e-05
6.90637e-05
7.32991e-05
7.139e-05
7.1064e-05
6.93063e-05
7.36105e-05
6.80882e-05
7.33189e-05
3.64842e-05
3.62697e-05
3.64271e-05
3.73694e-05
3.75101e-05
3.72534e-05
3.69544e-05
6.05487e-05
6.58824e-05
4.45775e-05
5.1253e-05
5.94067e-05
6.67238e-05
4.5057e-05
7.12537e-05
7.12987e-05
5.92267e-05
4.46047e-05
6.32566e-05
5.00472e-05
5.82808e-05
4.46544e-05
6.55523e-05
6.72728e-05
6.69093e-05
5.15136e-05
6.96134e-05
6.92917e-05
6.74756e-05
7.26224e-05
6.87038e-05
7.26625e-05
7.05139e-05
7.06224e-05
6.81309e-05
7.27356e-05
6.92054e-05
7.27196e-05
3.75445e-05
3.74713e-05
3.72983e-05
3.7246e-05
3.74897e-05
3.76142e-05
3.78338e-05
6.07793e-05
6.46552e-05
4.5939e-05
5.04329e-05
6.1271e-05
6.33831e-05
4.59387e-05
7.07569e-05
7.06386e-05
6.15653e-05
4.57878e-05
6.62663e-05
5.1051e-05
6.14848e-05
4.59972e-05
6.47829e-05
7.19513e-05
7.20915e-05
5.43129e-05
7.09647e-05
7.12896e-05
6.79841e-05
7.32009e-05
6.71323e-05
7.34359e-05
7.10992e-05
7.12313e-05
6.76489e-05
7.31497e-05
6.73793e-05
7.33818e-05
3.74916e-05
3.76048e-05
3.78616e-05
3.75918e-05
3.05742e-05
2.15284e-05
2.15877e-05
5.9592e-05
6.3522e-05
4.57351e-05
5.02496e-05
5.96537e-05
6.45275e-05
4.57206e-05
7.09083e-05
7.1155e-05
5.94086e-05
4.59351e-05
6.33878e-05
5.02372e-05
5.9933e-05
4.58261e-05
6.34452e-05
6.83372e-05
6.83718e-05
5.20862e-05
6.82377e-05
6.81564e-05
6.87351e-05
7.36219e-05
6.83603e-05
7.37084e-05
7.12903e-05
7.12951e-05
7.29762e-05
6.22075e-05
7.08948e-05
6.81892e-05
6.84337e-05
7.0901e-05
7.18534e-05
6.08688e-05
6.24636e-05
4.31659e-05
5.85393e-05
7.30798e-05
6.69633e-05
4.34075e-05
6.38308e-05
5.87859e-05
7.27919e-05
6.71965e-05
7.02565e-05
6.44234e-05
6.46088e-05
7.02595e-05
4.36382e-05
6.10648e-05
5.90111e-05
4.36685e-05
6.41403e-05
5.93629e-05
7.19286e-05
6.70099e-05
7.26959e-05
6.74396e-05
6.91092e-05
6.94189e-05
7.06663e-05
7.06468e-05
7.08987e-05
7.08452e-05
5.23038e-05
7.06181e-05
7.00355e-05
7.07453e-05
7.08976e-05
7.07668e-05
7.08543e-05
5.25765e-05
7.11515e-05
7.06505e-05
7.10407e-05
7.04424e-05
6.7647e-05
7.31604e-05
6.64529e-05
7.35673e-05
5.86863e-05
6.26739e-05
4.33941e-05
4.89126e-05
5.82196e-05
6.44687e-05
4.3413e-05
5.87612e-05
6.27958e-05
4.31923e-05
4.93498e-05
5.81774e-05
6.5201e-05
4.32848e-05
6.82005e-05
7.31557e-05
7.33276e-05
6.95068e-05
6.82395e-05
7.33831e-05
7.36166e-05
6.96412e-05
5.92711e-05
4.93135e-05
6.55895e-05
4.39084e-05
6.50006e-05
4.35277e-05
6.08126e-05
5.93792e-05
5.01996e-05
6.69395e-05
4.42596e-05
6.59313e-05
4.36385e-05
6.09986e-05
6.90076e-05
6.92287e-05
5.39212e-05
7.18554e-05
7.18948e-05
7.09463e-05
7.10484e-05
7.07742e-05
7.10614e-05
5.45373e-05
7.30157e-05
7.27043e-05
7.25826e-05
7.25049e-05
7.07334e-05
7.10312e-05
5.79025e-05
4.35517e-05
4.89238e-05
5.82665e-05
6.3897e-05
4.35184e-05
6.57734e-05
7.2008e-05
6.59055e-05
7.30949e-05
5.74986e-05
4.33922e-05
6.03741e-05
4.7679e-05
5.80229e-05
4.32661e-05
6.05955e-05
6.65374e-05
7.32121e-05
7.32144e-05
6.85962e-05
5.79761e-05
4.92278e-05
6.5107e-05
4.36082e-05
6.43844e-05
4.35302e-05
5.95956e-05
6.61447e-05
7.39647e-05
7.34113e-05
6.85985e-05
5.75636e-05
4.79542e-05
4.338e-05
6.60149e-05
4.32685e-05
6.1697e-05
5.94972e-05
6.79097e-05
7.32254e-05
6.70585e-05
7.35146e-05
5.91919e-05
4.34058e-05
6.38217e-05
4.87514e-05
5.87899e-05
4.34278e-05
6.36198e-05
6.77871e-05
7.27926e-05
6.72525e-05
7.28082e-05
5.96227e-05
5.02214e-05
6.66598e-05
4.42531e-05
6.59577e-05
4.37261e-05
6.04369e-05
6.8167e-05
7.32463e-05
7.35356e-05
6.88508e-05
5.93676e-05
4.87517e-05
4.37577e-05
6.35233e-05
4.35262e-05
6.35213e-05
5.99497e-05
6.7935e-05
7.30599e-05
7.28402e-05
6.8438e-05
6.42716e-05
6.44615e-05
4.86182e-05
6.67495e-05
6.67345e-05
7.04008e-05
7.09241e-05
7.13253e-05
7.10907e-05
4.98911e-05
7.3048e-05
7.26596e-05
6.84891e-05
6.83427e-05
7.12996e-05
7.10592e-05
5.82297e-05
4.36503e-05
6.39568e-05
4.88029e-05
5.90005e-05
4.35855e-05
6.32011e-05
6.60536e-05
7.20521e-05
6.6559e-05
7.30226e-05
6.63902e-05
7.26608e-05
6.70556e-05
7.26462e-05
5.78177e-05
4.79644e-05
4.33675e-05
6.56613e-05
4.32916e-05
6.16995e-05
5.87384e-05
5.81508e-05
4.87523e-05
4.35485e-05
6.29664e-05
4.35437e-05
6.30006e-05
5.84275e-05
6.60998e-05
7.38692e-05
7.33138e-05
6.76531e-05
6.63775e-05
7.31172e-05
7.27052e-05
6.72866e-05
7.06739e-05
7.07011e-05
7.06487e-05
7.0677e-05
5.10892e-05
6.86896e-05
6.8238e-05
6.85358e-05
6.80629e-05
7.07758e-05
7.07078e-05
7.0816e-05
7.06918e-05
7.06501e-05
7.05079e-05
7.06885e-05
7.0564e-05
7.0683e-05
7.03809e-05
5.08637e-05
6.81397e-05
6.83587e-05
7.07521e-05
7.05092e-05
7.07703e-05
7.05637e-05
5.05666e-05
6.67864e-05
6.73188e-05
6.7443e-05
6.78083e-05
6.93355e-05
7.31265e-05
6.97716e-05
7.23645e-05
6.10461e-05
6.55458e-05
4.4333e-05
4.93944e-05
6.10507e-05
6.40768e-05
4.45388e-05
6.12368e-05
6.6905e-05
4.46627e-05
5.03069e-05
6.12507e-05
6.4838e-05
4.47845e-05
6.84979e-05
7.25909e-05
7.24851e-05
6.67149e-05
6.85929e-05
7.21112e-05
7.21983e-05
6.66334e-05
6.07295e-05
4.91418e-05
6.22684e-05
4.45312e-05
6.34227e-05
4.4565e-05
5.90178e-05
6.08807e-05
4.95662e-05
6.13755e-05
4.46491e-05
6.38145e-05
4.47688e-05
5.89608e-05
7.24741e-05
7.19827e-05
5.18088e-05
6.86797e-05
6.8475e-05
7.05699e-05
7.02798e-05
7.0445e-05
7.0231e-05
5.08592e-05
6.51406e-05
6.54999e-05
6.74391e-05
6.73781e-05
7.04602e-05
7.02499e-05
6.11065e-05
6.51053e-05
4.3892e-05
4.92854e-05
6.01946e-05
6.42736e-05
4.43005e-05
6.9983e-05
7.39768e-05
6.9241e-05
7.33384e-05
6.15857e-05
4.38393e-05
6.69986e-05
5.08761e-05
6.02895e-05
4.45754e-05
6.78084e-05
6.95145e-05
7.26505e-05
7.26548e-05
6.80413e-05
6.11121e-05
4.91211e-05
6.28067e-05
4.46129e-05
6.376e-05
4.45464e-05
6.03439e-05
6.99365e-05
7.2206e-05
7.29837e-05
6.82535e-05
6.16139e-05
5.08841e-05
4.50391e-05
6.41653e-05
4.4968e-05
6.75976e-05
6.07605e-05
6.88972e-05
7.30261e-05
6.8949e-05
7.24179e-05
6.0446e-05
4.40532e-05
6.36731e-05
4.95764e-05
6.01073e-05
4.4379e-05
6.48779e-05
6.87713e-05
7.31287e-05
6.85654e-05
7.32729e-05
6.05095e-05
4.95038e-05
6.16919e-05
4.4645e-05
6.36781e-05
4.47078e-05
5.96911e-05
6.86544e-05
7.22383e-05
7.22925e-05
6.77639e-05
6.04548e-05
5.00671e-05
4.48147e-05
6.55059e-05
4.46583e-05
6.52148e-05
6.02382e-05
6.87619e-05
7.30277e-05
7.32731e-05
6.82873e-05
7.38727e-05
7.34837e-05
5.53562e-05
7.38589e-05
7.36131e-05
7.12831e-05
7.08479e-05
7.02425e-05
7.05938e-05
5.51114e-05
6.77199e-05
6.80944e-05
7.25452e-05
7.25191e-05
7.02585e-05
7.06223e-05
6.06853e-05
4.36189e-05
6.31932e-05
4.93442e-05
5.89494e-05
4.39132e-05
6.5083e-05
6.97486e-05
7.39004e-05
6.82803e-05
7.34279e-05
6.93836e-05
7.32427e-05
6.78454e-05
7.34854e-05
6.1468e-05
5.08378e-05
4.5103e-05
6.45566e-05
4.49294e-05
6.74309e-05
6.15288e-05
6.10973e-05
5.00085e-05
4.49313e-05
6.61166e-05
4.45156e-05
6.56048e-05
6.14681e-05
6.99185e-05
7.23271e-05
7.31117e-05
6.9644e-05
6.96802e-05
7.31137e-05
7.34873e-05
6.97662e-05
7.07952e-05
7.08772e-05
7.08565e-05
7.09657e-05
5.30592e-05
7.10809e-05
7.16725e-05
7.09526e-05
7.14233e-05
7.07867e-05
7.08773e-05
7.08185e-05
7.09629e-05
7.085e-05
7.11589e-05
7.08498e-05
7.11075e-05
6.6961e-05
6.75006e-05
5.23621e-05
6.94797e-05
6.95749e-05
7.12182e-05
7.1211e-05
7.1165e-05
7.11527e-05
5.32507e-05
7.22734e-05
7.19171e-05
7.03707e-05
7.03167e-05
6.5971e-05
7.22663e-05
6.61977e-05
7.31694e-05
5.81106e-05
6.22307e-05
4.44166e-05
4.92233e-05
5.85582e-05
6.32929e-05
4.43692e-05
5.78758e-05
6.10126e-05
4.43653e-05
4.84645e-05
5.84353e-05
6.1261e-05
4.42105e-05
6.64605e-05
7.37596e-05
7.35438e-05
6.84946e-05
6.62289e-05
7.39393e-05
7.3438e-05
6.83929e-05
5.81627e-05
4.98513e-05
6.60632e-05
4.45033e-05
6.40831e-05
4.43872e-05
5.97577e-05
5.79165e-05
4.86694e-05
6.55228e-05
4.42737e-05
6.221e-05
4.41979e-05
5.95698e-05
6.50628e-05
6.54679e-05
4.94398e-05
6.73236e-05
6.7653e-05
7.05904e-05
7.10529e-05
7.14033e-05
7.12109e-05
5.06035e-05
7.2079e-05
7.16698e-05
6.86248e-05
6.87303e-05
7.1325e-05
7.11494e-05
5.87648e-05
6.27665e-05
4.46055e-05
4.93167e-05
5.98062e-05
6.3526e-05
4.45899e-05
6.63895e-05
7.21141e-05
6.75658e-05
7.23545e-05
5.85228e-05
4.49919e-05
6.30386e-05
4.90878e-05
6.00451e-05
4.47803e-05
6.12343e-05
6.66738e-05
7.36102e-05
7.3384e-05
6.75736e-05
5.86757e-05
5.00007e-05
6.56853e-05
4.46847e-05
6.41179e-05
4.46038e-05
5.8974e-05
6.63376e-05
7.34462e-05
7.26441e-05
6.7175e-05
5.83284e-05
4.88838e-05
4.45237e-05
6.27316e-05
4.45687e-05
6.11852e-05
5.8469e-05
6.69749e-05
7.23715e-05
6.74671e-05
7.3113e-05
5.92643e-05
4.48465e-05
6.54286e-05
5.01235e-05
5.9993e-05
4.48305e-05
6.3946e-05
6.72669e-05
7.28965e-05
6.80008e-05
7.26187e-05
5.87813e-05
4.87383e-05
6.52175e-05
4.43966e-05
6.25779e-05
4.43548e-05
5.9074e-05
6.6958e-05
7.37529e-05
7.33301e-05
6.74805e-05
5.90618e-05
4.974e-05
4.46693e-05
6.25474e-05
4.47522e-05
6.33897e-05
5.89163e-05
6.71042e-05
7.28374e-05
7.25952e-05
6.70841e-05
6.65397e-05
6.69687e-05
4.94952e-05
6.53529e-05
6.56622e-05
7.02409e-05
7.05295e-05
7.11791e-05
7.07319e-05
4.94702e-05
6.89957e-05
6.85108e-05
6.55405e-05
6.57559e-05
7.10992e-05
7.06671e-05
5.99587e-05
4.50883e-05
6.60429e-05
5.02402e-05
6.1399e-05
4.5091e-05
6.41718e-05
6.71846e-05
7.2202e-05
6.89975e-05
7.22642e-05
6.75659e-05
7.29142e-05
6.94507e-05
7.24867e-05
5.89841e-05
4.89489e-05
4.46177e-05
6.23256e-05
4.47539e-05
6.14628e-05
5.82801e-05
5.93835e-05
4.9863e-05
4.48332e-05
6.22124e-05
4.50244e-05
6.34392e-05
5.83557e-05
6.67342e-05
7.3255e-05
7.24985e-05
6.63139e-05
6.70276e-05
7.26969e-05
7.24434e-05
6.6312e-05
7.07139e-05
7.06015e-05
7.07217e-05
7.05598e-05
5.17516e-05
6.71407e-05
6.68297e-05
6.77655e-05
6.77438e-05
7.08025e-05
7.06008e-05
7.07647e-05
7.05546e-05
7.11237e-05
7.07714e-05
7.10838e-05
7.07829e-05
7.24473e-05
7.20548e-05
5.44267e-05
7.1597e-05
7.12632e-05
7.05224e-05
7.06561e-05
7.05644e-05
7.06824e-05
5.38618e-05
6.88369e-05
6.8941e-05
7.07902e-05
7.05862e-05
7.01585e-05
7.39742e-05
6.90181e-05
7.3642e-05
6.17798e-05
6.64295e-05
4.49129e-05
5.11955e-05
6.04225e-05
6.65758e-05
4.54965e-05
6.18721e-05
6.63482e-05
4.4611e-05
5.13629e-05
6.03132e-05
6.73325e-05
4.53466e-05
7.009e-05
7.26823e-05
7.30957e-05
6.92638e-05
7.0204e-05
7.27374e-05
7.3389e-05
6.94009e-05
6.1904e-05
5.115e-05
6.44743e-05
4.59336e-05
6.62789e-05
4.58403e-05
6.16581e-05
6.20331e-05
5.14898e-05
6.53402e-05
4.60546e-05
6.72891e-05
4.5862e-05
6.18341e-05
7.28169e-05
7.23033e-05
5.5319e-05
7.32218e-05
7.26479e-05
7.13165e-05
7.10447e-05
7.05559e-05
7.08817e-05
5.52635e-05
6.95472e-05
6.95557e-05
7.26894e-05
7.21782e-05
7.06093e-05
7.08908e-05
6.089e-05
6.59883e-05
4.4952e-05
5.1122e-05
5.94684e-05
6.61328e-05
4.53524e-05
6.92925e-05
7.36238e-05
6.77892e-05
7.38118e-05
6.07626e-05
4.45607e-05
6.37938e-05
5.01744e-05
5.89414e-05
4.47574e-05
6.61773e-05
6.94893e-05
7.27997e-05
7.31616e-05
6.94899e-05
6.11674e-05
5.10672e-05
6.45293e-05
4.578e-05
6.59211e-05
4.56517e-05
6.13642e-05
6.95634e-05
7.32441e-05
7.37714e-05
6.96901e-05
6.11642e-05
5.09421e-05
4.57475e-05
6.66141e-05
4.52956e-05
6.65507e-05
6.15664e-05
6.88987e-05
7.37957e-05
6.78343e-05
7.36076e-05
5.99756e-05
4.46604e-05
6.25461e-05
4.94871e-05
5.89724e-05
4.4699e-05
6.3785e-05
6.85001e-05
7.30207e-05
6.72804e-05
7.35137e-05
6.08493e-05
5.1361e-05
6.52779e-05
4.58402e-05
6.66988e-05
4.55389e-05
6.12774e-05
6.91423e-05
7.29113e-05
7.34234e-05
6.93979e-05
6.03722e-05
4.98197e-05
4.53619e-05
6.60504e-05
4.48754e-05
6.44921e-05
6.1253e-05
6.88364e-05
7.36649e-05
7.36119e-05
6.94578e-05
7.01017e-05
6.95041e-05
5.3964e-05
7.23412e-05
7.1751e-05
7.11804e-05
7.12691e-05
7.08706e-05
7.1216e-05
5.44273e-05
7.17236e-05
7.17479e-05
7.25477e-05
7.20511e-05
7.09288e-05
7.12217e-05
5.88011e-05
4.47254e-05
6.21784e-05
4.94712e-05
5.82936e-05
4.47191e-05
6.33231e-05
6.79356e-05
7.34504e-05
6.63872e-05
7.37616e-05
6.76245e-05
7.29188e-05
6.63247e-05
7.35314e-05
5.98138e-05
5.07917e-05
4.53584e-05
6.63824e-05
4.48577e-05
6.60205e-05
6.1251e-05
5.94317e-05
4.97363e-05
4.50277e-05
6.60919e-05
4.47769e-05
6.41673e-05
6.11157e-05
6.84632e-05
7.34379e-05
7.37649e-05
6.96033e-05
6.82014e-05
7.37699e-05
7.36632e-05
6.95623e-05
7.08865e-05
7.115e-05
7.08552e-05
7.11603e-05
5.22828e-05
7.18692e-05
7.19486e-05
7.03868e-05
7.01686e-05
7.11837e-05
7.11875e-05
7.12272e-05
7.12098e-05
7.05205e-05
7.07074e-05
7.05616e-05
7.07239e-05
6.83413e-05
6.85225e-05
5.10581e-05
6.77148e-05
6.79854e-05
7.10547e-05
7.07742e-05
7.10426e-05
7.07822e-05
5.10499e-05
6.85622e-05
6.86668e-05
6.77282e-05
6.79954e-05
6.74566e-05
7.26156e-05
6.87906e-05
7.25654e-05
5.97022e-05
6.39732e-05
4.59208e-05
4.99976e-05
6.1128e-05
6.30727e-05
4.58334e-05
5.97275e-05
6.4536e-05
4.60587e-05
5.04235e-05
6.12987e-05
6.29461e-05
4.59856e-05
6.72237e-05
7.31067e-05
7.27571e-05
6.70511e-05
6.71874e-05
7.31309e-05
7.26645e-05
6.70127e-05
5.93586e-05
4.98053e-05
6.31388e-05
4.5457e-05
6.29731e-05
4.56201e-05
5.89609e-05
5.93529e-05
5.00608e-05
6.28571e-05
4.55466e-05
6.27419e-05
4.57516e-05
5.8929e-05
6.86982e-05
6.88568e-05
5.13147e-05
6.73311e-05
6.77422e-05
7.05702e-05
7.0657e-05
7.1034e-05
7.07004e-05
5.11811e-05
6.8432e-05
6.86698e-05
6.7289e-05
6.77092e-05
7.10183e-05
7.07246e-05
6.03108e-05
6.41214e-05
4.57919e-05
4.99992e-05
6.12859e-05
6.33569e-05
4.57681e-05
6.82492e-05
7.30594e-05
6.94838e-05
7.27537e-05
6.05436e-05
4.59439e-05
6.61934e-05
5.10836e-05
6.15304e-05
4.59646e-05
6.43136e-05
6.78467e-05
7.30685e-05
7.27802e-05
6.74077e-05
5.99773e-05
4.98417e-05
6.33214e-05
4.55573e-05
6.32553e-05
4.56757e-05
5.93924e-05
6.7917e-05
7.28791e-05
7.27309e-05
6.73783e-05
6.01427e-05
5.06752e-05
4.57923e-05
6.31992e-05
4.59283e-05
6.38587e-05
5.94072e-05
6.85988e-05
7.27986e-05
6.93628e-05
7.27033e-05
6.12269e-05
4.58133e-05
6.62361e-05
5.12824e-05
6.13422e-05
4.60507e-05
6.6072e-05
6.89873e-05
7.35717e-05
6.94769e-05
7.31206e-05
6.04694e-05
5.01401e-05
6.32336e-05
4.58012e-05
6.31987e-05
4.59013e-05
5.97887e-05
6.83015e-05
7.30745e-05
7.27351e-05
6.7719e-05
6.09227e-05
5.1261e-05
4.60902e-05
6.40518e-05
4.61048e-05
6.55436e-05
5.99965e-05
6.86169e-05
7.28184e-05
7.29896e-05
6.7806e-05
7.0818e-05
7.09999e-05
5.27447e-05
6.87906e-05
6.91927e-05
7.08143e-05
7.06722e-05
7.08427e-05
7.0642e-05
5.2364e-05
6.79277e-05
6.81691e-05
6.83517e-05
6.87528e-05
7.08167e-05
7.06664e-05
6.16806e-05
4.55821e-05
6.63738e-05
5.12778e-05
6.14451e-05
4.59782e-05
6.63494e-05
6.95351e-05
7.32609e-05
6.97259e-05
7.28634e-05
6.97176e-05
7.36982e-05
6.97587e-05
7.31818e-05
6.13951e-05
5.07545e-05
4.60144e-05
6.34972e-05
4.60324e-05
6.43282e-05
6.02628e-05
6.15923e-05
5.12698e-05
4.61401e-05
6.41944e-05
4.61325e-05
6.59036e-05
6.04302e-05
6.90934e-05
7.27949e-05
7.27979e-05
6.79917e-05
6.93393e-05
7.27811e-05
7.30201e-05
6.80779e-05
7.11067e-05
7.08574e-05
7.11519e-05
7.0879e-05
5.41271e-05
6.86285e-05
6.87246e-05
7.02433e-05
7.05011e-05
7.07319e-05
7.07829e-05
7.07201e-05
7.07917e-05
7.11008e-05
7.12477e-05
7.10855e-05
7.12363e-05
6.882e-05
6.88657e-05
5.22678e-05
6.94537e-05
6.93766e-05
7.13037e-05
7.12636e-05
7.13073e-05
7.12532e-05
5.26045e-05
7.00918e-05
6.99701e-05
6.96228e-05
6.95113e-05
6.80332e-05
7.32609e-05
6.71088e-05
7.35006e-05
5.95504e-05
6.3413e-05
4.53848e-05
4.98521e-05
5.89643e-05
6.41625e-05
4.53788e-05
5.95894e-05
6.33011e-05
4.54621e-05
5.0139e-05
5.89351e-05
6.46151e-05
4.5458e-05
6.81814e-05
7.35961e-05
7.34813e-05
6.86174e-05
6.8244e-05
7.34955e-05
7.35214e-05
6.86597e-05
5.98192e-05
5.01395e-05
6.03917e-05
4.55429e-05
6.43432e-05
4.54101e-05
5.58685e-05
5.98836e-05
5.05413e-05
5.74618e-05
4.5637e-05
6.48844e-05
4.54947e-05
5.60556e-05
6.90048e-05
6.91304e-05
5.2895e-05
7.02135e-05
7.01243e-05
7.1075e-05
7.11997e-05
7.1203e-05
7.12336e-05
5.328e-05
7.05073e-05
7.03952e-05
7.04114e-05
7.02959e-05
7.11877e-05
7.12041e-05
5.93713e-05
6.3501e-05
4.54876e-05
4.98901e-05
5.93158e-05
6.40528e-05
4.54695e-05
6.75856e-05
7.29725e-05
6.73358e-05
7.32833e-05