/*--------------------------------*- C++ -*----------------------------------*\
| =========                 |                                                 |
| \\      /  F ield         | OpenFOAM: The Open Source CFD Toolbox           |
|  \\    /   O peration     | Version:  v2012                                 |
|   \\  /    A nd           | Website:  www.openfoam.com                      |
|    \\/     M anipulation  |                                                 |
\*---------------------------------------------------------------------------*/
FoamFile
{
    version     2.0;
    format      ascii;
    class       volScalarField;
    location    "0.17";
    object      p;
}
// * * * * * * * * * * * * * * * * * * * * * * * * * * * * * * * * * * * * * //

dimensions      [0 2 -2 0 0 0 0];


internalField   nonuniform List<scalar> 
247104
(
1.92155e-06
1.92195e-06
1.92198e-06
1.92182e-06
1.92162e-06
1.92185e-06
1.92198e-06
1.92187e-06
1.92195e-06
1.92201e-06
1.92205e-06
1.92184e-06
1.9217e-06
1.92187e-06
1.92206e-06
1.92198e-06
1.92198e-06
1.92205e-06
1.92175e-06
1.92136e-06
1.9212e-06
1.9214e-06
1.9218e-06
1.92206e-06
1.92197e-06
1.92182e-06
1.92184e-06
1.92136e-06
1.92087e-06
1.92069e-06
1.92092e-06
1.92143e-06
1.92187e-06
1.92178e-06
1.92156e-06
1.92162e-06
1.9217e-06
1.9212e-06
1.92069e-06
1.92051e-06
1.92074e-06
1.92127e-06
1.92173e-06
1.92156e-06
1.92186e-06
1.92187e-06
1.9214e-06
1.92092e-06
1.92074e-06
1.92096e-06
1.92147e-06
1.9219e-06
1.92182e-06
1.92198e-06
1.92206e-06
1.9218e-06
1.92143e-06
1.92127e-06
1.92147e-06
1.92184e-06
1.92207e-06
1.92196e-06
1.92187e-06
1.92198e-06
1.92206e-06
1.92187e-06
1.92173e-06
1.9219e-06
1.92207e-06
1.92194e-06
1.92196e-06
1.92178e-06
1.92156e-06
1.92182e-06
1.92196e-06
1.88768e-06
1.8856e-06
1.88563e-06
1.88449e-06
1.88425e-06
1.88419e-06
1.88419e-06
1.88577e-06
1.88613e-06
1.88563e-06
1.88355e-06
1.88048e-06
1.88035e-06
1.88035e-06
1.88048e-06
1.88396e-06
1.88416e-06
1.88449e-06
1.88048e-06
1.8804e-06
1.88043e-06
1.88043e-06
1.8804e-06
1.88048e-06
1.88443e-06
1.8853e-06
1.88769e-06
1.88425e-06
1.88035e-06
1.88043e-06
1.88054e-06
1.88054e-06
1.88043e-06
1.88035e-06
1.88424e-06
1.88596e-06
1.88559e-06
1.88419e-06
1.88035e-06
1.88043e-06
1.88054e-06
1.88054e-06
1.88043e-06
1.88035e-06
1.88437e-06
1.88405e-06
1.88419e-06
1.88048e-06
1.8804e-06
1.88043e-06
1.88043e-06
1.8804e-06
1.88048e-06
1.88426e-06
1.88506e-06
1.88577e-06
1.88396e-06
1.88048e-06
1.88035e-06
1.88034e-06
1.88048e-06
1.88403e-06
1.88439e-06
1.88581e-06
1.88613e-06
1.88415e-06
1.88443e-06
1.88424e-06
1.88437e-06
1.88426e-06
1.88439e-06
1.8868e-06
1.8853e-06
1.88596e-06
1.88404e-06
1.88505e-06
1.88581e-06
1.8676e-06
1.8674e-06
1.86725e-06
1.86503e-06
1.86499e-06
1.86499e-06
1.86502e-06
1.86738e-06
1.86752e-06
1.86726e-06
1.86436e-06
1.86128e-06
1.86109e-06
1.86109e-06
1.86127e-06
1.86516e-06
1.8655e-06
1.86504e-06
1.86127e-06
1.86083e-06
1.86082e-06
1.86082e-06
1.86083e-06
1.86128e-06
1.86596e-06
1.86793e-06
1.86761e-06
1.86499e-06
1.86109e-06
1.86082e-06
1.86083e-06
1.86083e-06
1.86082e-06
1.86109e-06
1.86596e-06
1.86754e-06
1.8674e-06
1.865e-06
1.86109e-06
1.86082e-06
1.86083e-06
1.86083e-06
1.86082e-06
1.86109e-06
1.86587e-06
1.86546e-06
1.86503e-06
1.86128e-06
1.86083e-06
1.86082e-06
1.86082e-06
1.86083e-06
1.86128e-06
1.86601e-06
1.86793e-06
1.86738e-06
1.86517e-06
1.86128e-06
1.86109e-06
1.86109e-06
1.86127e-06
1.86565e-06
1.86577e-06
1.86784e-06
1.86752e-06
1.8655e-06
1.86596e-06
1.86596e-06
1.86587e-06
1.86601e-06
1.86577e-06
1.86794e-06
1.86793e-06
1.86754e-06
1.86546e-06
1.86794e-06
1.86785e-06
1.84792e-06
1.84774e-06
1.84765e-06
1.84532e-06
1.8453e-06
1.84519e-06
1.84538e-06
1.84775e-06
1.84791e-06
1.84765e-06
1.84442e-06
1.84149e-06
1.84142e-06
1.84142e-06
1.84149e-06
1.84536e-06
1.84598e-06
1.84532e-06
1.84149e-06
1.84131e-06
1.8413e-06
1.8413e-06
1.84131e-06
1.84149e-06
1.84635e-06
1.84827e-06
1.84791e-06
1.8453e-06
1.84142e-06
1.8413e-06
1.8413e-06
1.8413e-06
1.8413e-06
1.84142e-06
1.84646e-06
1.84783e-06
1.84774e-06
1.84519e-06
1.84142e-06
1.8413e-06
1.8413e-06
1.8413e-06
1.8413e-06
1.84142e-06
1.84641e-06
1.84592e-06
1.84538e-06
1.84149e-06
1.84131e-06
1.8413e-06
1.8413e-06
1.84131e-06
1.84149e-06
1.84645e-06
1.84822e-06
1.84775e-06
1.84536e-06
1.84149e-06
1.84142e-06
1.84142e-06
1.84149e-06
1.84626e-06
1.84622e-06
1.84824e-06
1.84791e-06
1.84599e-06
1.84636e-06
1.84646e-06
1.84641e-06
1.84645e-06
1.84622e-06
1.8482e-06
1.84827e-06
1.84783e-06
1.84592e-06
1.84822e-06
1.84824e-06
1.82821e-06
1.82805e-06
1.82787e-06
1.82553e-06
1.82549e-06
1.82532e-06
1.82559e-06
1.82798e-06
1.82816e-06
1.82788e-06
1.82453e-06
1.82165e-06
1.82163e-06
1.82163e-06
1.82165e-06
1.82548e-06
1.82626e-06
1.82553e-06
1.82165e-06
1.8216e-06
1.8216e-06
1.8216e-06
1.8216e-06
1.82165e-06
1.82664e-06
1.82855e-06
1.82822e-06
1.82549e-06
1.82163e-06
1.8216e-06
1.8216e-06
1.8216e-06
1.8216e-06
1.82163e-06
1.82684e-06
1.82819e-06
1.82805e-06
1.82532e-06
1.82163e-06
1.8216e-06
1.8216e-06
1.8216e-06
1.8216e-06
1.82163e-06
1.8268e-06
1.82628e-06
1.82559e-06
1.82165e-06
1.8216e-06
1.8216e-06
1.8216e-06
1.8216e-06
1.82165e-06
1.82677e-06
1.82856e-06
1.82799e-06
1.82549e-06
1.82165e-06
1.82163e-06
1.82163e-06
1.82165e-06
1.82664e-06
1.82651e-06
1.82851e-06
1.82816e-06
1.82624e-06
1.82664e-06
1.82684e-06
1.8268e-06
1.82677e-06
1.82651e-06
1.82848e-06
1.82856e-06
1.82819e-06
1.82629e-06
1.82856e-06
1.82851e-06
1.80845e-06
1.80829e-06
1.8081e-06
1.80574e-06
1.8057e-06
1.80551e-06
1.8058e-06
1.8082e-06
1.80838e-06
1.8081e-06
1.80473e-06
1.80185e-06
1.80185e-06
1.80185e-06
1.80185e-06
1.80566e-06
1.80646e-06
1.80574e-06
1.80185e-06
1.80184e-06
1.80184e-06
1.80184e-06
1.80184e-06
1.80185e-06
1.80687e-06
1.80879e-06
1.80845e-06
1.8057e-06
1.80185e-06
1.80184e-06
1.80184e-06
1.80184e-06
1.80184e-06
1.80184e-06
1.80709e-06
1.80844e-06
1.80829e-06
1.80551e-06
1.80185e-06
1.80184e-06
1.80184e-06
1.80184e-06
1.80184e-06
1.80184e-06
1.80707e-06
1.80655e-06
1.8058e-06
1.80185e-06
1.80184e-06
1.80184e-06
1.80184e-06
1.80184e-06
1.80185e-06
1.80701e-06
1.80881e-06
1.80821e-06
1.80566e-06
1.80185e-06
1.80185e-06
1.80185e-06
1.80185e-06
1.80692e-06
1.80676e-06
1.80874e-06
1.80838e-06
1.80646e-06
1.80687e-06
1.80709e-06
1.80707e-06
1.80702e-06
1.80676e-06
1.80867e-06
1.80879e-06
1.80844e-06
1.80655e-06
1.80881e-06
1.80874e-06
1.78867e-06
1.78852e-06
1.78831e-06
1.78595e-06
1.78592e-06
1.78572e-06
1.78601e-06
1.78842e-06
1.7886e-06
1.78831e-06
1.78494e-06
1.78206e-06
1.78206e-06
1.78206e-06
1.78206e-06
1.78586e-06
1.78668e-06
1.78595e-06
1.78206e-06
1.78206e-06
1.78206e-06
1.78206e-06
1.78206e-06
1.78206e-06
1.78709e-06
1.78901e-06
1.78868e-06
1.78592e-06
1.78206e-06
1.78206e-06
1.78206e-06
1.78206e-06
1.78206e-06
1.78206e-06
1.78732e-06
1.78867e-06
1.78851e-06
1.78572e-06
1.78206e-06
1.78206e-06
1.78206e-06
1.78206e-06
1.78206e-06
1.78206e-06
1.78731e-06
1.78678e-06
1.78601e-06
1.78206e-06
1.78206e-06
1.78206e-06
1.78206e-06
1.78206e-06
1.78206e-06
1.78723e-06
1.78904e-06
1.78842e-06
1.78586e-06
1.78206e-06
1.78206e-06
1.78206e-06
1.78206e-06
1.78715e-06
1.78698e-06
1.78896e-06
1.78861e-06
1.78668e-06
1.78709e-06
1.78732e-06
1.78731e-06
1.78723e-06
1.78698e-06
1.78891e-06
1.78901e-06
1.78867e-06
1.78678e-06
1.78904e-06
1.78896e-06
1.76889e-06
1.76873e-06
1.76854e-06
1.76617e-06
1.76613e-06
1.76593e-06
1.76622e-06
1.76864e-06
1.76881e-06
1.76853e-06
1.76515e-06
1.76227e-06
1.76227e-06
1.76227e-06
1.76227e-06
1.76607e-06
1.76689e-06
1.76617e-06
1.76227e-06
1.76227e-06
1.76227e-06
1.76227e-06
1.76227e-06
1.76227e-06
1.7673e-06
1.76922e-06
1.7689e-06
1.76613e-06
1.76227e-06
1.76227e-06
1.76227e-06
1.76227e-06
1.76227e-06
1.76227e-06
1.76754e-06
1.76889e-06
1.76873e-06
1.76593e-06
1.76227e-06
1.76227e-06
1.76227e-06
1.76227e-06
1.76227e-06
1.76227e-06
1.76752e-06
1.76699e-06
1.76622e-06
1.76227e-06
1.76227e-06
1.76227e-06
1.76227e-06
1.76227e-06
1.76227e-06
1.76745e-06
1.76926e-06
1.76864e-06
1.76607e-06
1.76227e-06
1.76227e-06
1.76227e-06
1.76227e-06
1.76736e-06
1.7672e-06
1.76917e-06
1.76882e-06
1.76689e-06
1.7673e-06
1.76754e-06
1.76752e-06
1.76745e-06
1.76719e-06
1.76912e-06
1.76922e-06
1.76889e-06
1.76699e-06
1.76925e-06
1.76917e-06
1.7491e-06
1.74895e-06
1.74875e-06
1.74638e-06
1.74634e-06
1.74614e-06
1.74644e-06
1.74885e-06
1.74903e-06
1.74875e-06
1.74536e-06
1.74249e-06
1.74249e-06
1.74249e-06
1.74249e-06
1.74628e-06
1.74711e-06
1.74638e-06
1.74249e-06
1.74249e-06
1.74249e-06
1.74249e-06
1.74249e-06
1.74249e-06
1.74752e-06
1.74944e-06
1.74911e-06
1.74634e-06
1.74249e-06
1.74249e-06
1.74249e-06
1.74249e-06
1.74249e-06
1.74249e-06
1.74775e-06
1.7491e-06
1.74894e-06
1.74615e-06
1.74249e-06
1.74249e-06
1.74249e-06
1.74249e-06
1.74249e-06
1.74249e-06
1.74774e-06
1.74721e-06
1.74644e-06
1.74249e-06
1.74249e-06
1.74249e-06
1.74249e-06
1.74249e-06
1.74249e-06
1.74766e-06
1.74947e-06
1.74885e-06
1.74628e-06
1.74249e-06
1.74249e-06
1.74249e-06
1.74249e-06
1.74758e-06
1.74741e-06
1.74938e-06
1.74903e-06
1.7471e-06
1.74752e-06
1.74775e-06
1.74774e-06
1.74766e-06
1.74741e-06
1.74934e-06
1.74944e-06
1.7491e-06
1.74721e-06
1.74947e-06
1.74939e-06
1.72932e-06
1.72916e-06
1.72896e-06
1.72659e-06
1.72656e-06
1.72636e-06
1.72665e-06
1.72906e-06
1.72924e-06
1.72896e-06
1.72557e-06
1.7227e-06
1.7227e-06
1.7227e-06
1.7227e-06
1.7265e-06
1.72732e-06
1.72659e-06
1.7227e-06
1.7227e-06
1.7227e-06
1.7227e-06
1.7227e-06
1.7227e-06
1.72773e-06
1.72965e-06
1.72932e-06
1.72655e-06
1.7227e-06
1.7227e-06
1.7227e-06
1.7227e-06
1.7227e-06
1.7227e-06
1.72797e-06
1.72932e-06
1.72916e-06
1.72636e-06
1.7227e-06
1.7227e-06
1.7227e-06
1.7227e-06
1.7227e-06
1.7227e-06
1.72795e-06
1.72742e-06
1.72665e-06
1.7227e-06
1.7227e-06
1.7227e-06
1.7227e-06
1.7227e-06
1.7227e-06
1.72788e-06
1.72968e-06
1.72906e-06
1.7265e-06
1.7227e-06
1.7227e-06
1.7227e-06
1.7227e-06
1.7278e-06
1.72763e-06
1.7296e-06
1.72925e-06
1.72732e-06
1.72773e-06
1.72796e-06
1.72795e-06
1.72788e-06
1.72762e-06
1.72955e-06
1.72965e-06
1.72932e-06
1.72742e-06
1.72968e-06
1.7296e-06
1.70953e-06
1.70937e-06
1.70918e-06
1.70681e-06
1.70677e-06
1.70657e-06
1.70686e-06
1.70928e-06
1.70945e-06
1.70917e-06
1.70578e-06
1.70291e-06
1.70291e-06
1.70291e-06
1.70291e-06
1.70671e-06
1.70753e-06
1.7068e-06
1.70291e-06
1.70291e-06
1.70291e-06
1.70291e-06
1.70291e-06
1.70291e-06
1.70794e-06
1.70986e-06
1.70953e-06
1.70677e-06
1.70291e-06
1.70291e-06
1.70291e-06
1.70291e-06
1.70291e-06
1.70291e-06
1.70818e-06
1.70953e-06
1.70937e-06
1.70657e-06
1.70291e-06
1.70291e-06
1.70291e-06
1.70291e-06
1.70291e-06
1.70291e-06
1.70817e-06
1.70764e-06
1.70686e-06
1.70291e-06
1.70291e-06
1.70291e-06
1.70291e-06
1.70291e-06
1.70291e-06
1.70809e-06
1.7099e-06
1.70928e-06
1.70671e-06
1.70291e-06
1.70291e-06
1.70291e-06
1.70291e-06
1.70801e-06
1.70784e-06
1.70981e-06
1.70946e-06
1.70753e-06
1.70794e-06
1.70818e-06
1.70817e-06
1.70809e-06
1.70784e-06
1.70976e-06
1.70987e-06
1.70953e-06
1.70764e-06
1.7099e-06
1.70981e-06
1.68974e-06
1.68959e-06
1.68938e-06
1.68702e-06
1.68698e-06
1.68679e-06
1.68708e-06
1.68949e-06
1.68967e-06
1.68938e-06
1.686e-06
1.68313e-06
1.68313e-06
1.68313e-06
1.68313e-06
1.68692e-06
1.68775e-06
1.68702e-06
1.68313e-06
1.68313e-06
1.68313e-06
1.68313e-06
1.68313e-06
1.68313e-06
1.68816e-06
1.69008e-06
1.68975e-06
1.68698e-06
1.68313e-06
1.68313e-06
1.68313e-06
1.68313e-06
1.68313e-06
1.68313e-06
1.68839e-06
1.68974e-06
1.68959e-06
1.68679e-06
1.68313e-06
1.68313e-06
1.68313e-06
1.68313e-06
1.68313e-06
1.68313e-06
1.68838e-06
1.68785e-06
1.68708e-06
1.68313e-06
1.68313e-06
1.68313e-06
1.68313e-06
1.68313e-06
1.68313e-06
1.6883e-06
1.69011e-06
1.68949e-06
1.68692e-06
1.68313e-06
1.68313e-06
1.68313e-06
1.68313e-06
1.68823e-06
1.68806e-06
1.69002e-06
1.68967e-06
1.68774e-06
1.68816e-06
1.68839e-06
1.68838e-06
1.6883e-06
1.68805e-06
1.68998e-06
1.69008e-06
1.68974e-06
1.68785e-06
1.69011e-06
1.69003e-06
1.66996e-06
1.6698e-06
1.6696e-06
1.66723e-06
1.6672e-06
1.667e-06
1.66729e-06
1.66971e-06
1.66988e-06
1.6696e-06
1.66622e-06
1.66334e-06
1.66334e-06
1.66334e-06
1.66334e-06
1.66714e-06
1.66796e-06
1.66723e-06
1.66334e-06
1.66334e-06
1.66334e-06
1.66334e-06
1.66334e-06
1.66334e-06
1.66837e-06
1.67029e-06
1.66996e-06
1.6672e-06
1.66334e-06
1.66334e-06
1.66334e-06
1.66334e-06
1.66334e-06
1.66334e-06
1.66861e-06
1.66996e-06
1.6698e-06
1.667e-06
1.66334e-06
1.66334e-06
1.66334e-06
1.66334e-06
1.66334e-06
1.66334e-06
1.66859e-06
1.66806e-06
1.66729e-06
1.66334e-06
1.66334e-06
1.66334e-06
1.66334e-06
1.66334e-06
1.66334e-06
1.66852e-06
1.67033e-06
1.6697e-06
1.66714e-06
1.66334e-06
1.66334e-06
1.66334e-06
1.66334e-06
1.66844e-06
1.66827e-06
1.67024e-06
1.66989e-06
1.66796e-06
1.66837e-06
1.66861e-06
1.66859e-06
1.66852e-06
1.66827e-06
1.67019e-06
1.67029e-06
1.66996e-06
1.66806e-06
1.67033e-06
1.67024e-06
1.65017e-06
1.65002e-06
1.64981e-06
1.64745e-06
1.64741e-06
1.64721e-06
1.64751e-06
1.64992e-06
1.6501e-06
1.64981e-06
1.64643e-06
1.64356e-06
1.64356e-06
1.64356e-06
1.64356e-06
1.64735e-06
1.64818e-06
1.64745e-06
1.64356e-06
1.64356e-06
1.64356e-06
1.64356e-06
1.64356e-06
1.64356e-06
1.64859e-06
1.65051e-06
1.65018e-06
1.64741e-06
1.64356e-06
1.64356e-06
1.64356e-06
1.64356e-06
1.64356e-06
1.64356e-06
1.64882e-06
1.65017e-06
1.65001e-06
1.64721e-06
1.64356e-06
1.64356e-06
1.64356e-06
1.64356e-06
1.64356e-06
1.64356e-06
1.64881e-06
1.64828e-06
1.64751e-06
1.64356e-06
1.64356e-06
1.64356e-06
1.64356e-06
1.64356e-06
1.64356e-06
1.64873e-06
1.65054e-06
1.64992e-06
1.64735e-06
1.64356e-06
1.64356e-06
1.64356e-06
1.64356e-06
1.64866e-06
1.64848e-06
1.65045e-06
1.6501e-06
1.64817e-06
1.64859e-06
1.64882e-06
1.64881e-06
1.64873e-06
1.64848e-06
1.65041e-06
1.65051e-06
1.65017e-06
1.64828e-06
1.65054e-06
1.65046e-06
1.63039e-06
1.63023e-06
1.63002e-06
1.62766e-06
1.62763e-06
1.62743e-06
1.62772e-06
1.63014e-06
1.63031e-06
1.63003e-06
1.62664e-06
1.62377e-06
1.62377e-06
1.62377e-06
1.62377e-06
1.62757e-06
1.62839e-06
1.62766e-06
1.62377e-06
1.62377e-06
1.62377e-06
1.62377e-06
1.62377e-06
1.62377e-06
1.6288e-06
1.63072e-06
1.63039e-06
1.62763e-06
1.62377e-06
1.62377e-06
1.62377e-06
1.62377e-06
1.62377e-06
1.62377e-06
1.62904e-06
1.63039e-06
1.63023e-06
1.62743e-06
1.62377e-06
1.62377e-06
1.62377e-06
1.62377e-06
1.62377e-06
1.62377e-06
1.62902e-06
1.62849e-06
1.62772e-06
1.62377e-06
1.62377e-06
1.62377e-06
1.62377e-06
1.62377e-06
1.62377e-06
1.62895e-06
1.63075e-06
1.63013e-06
1.62757e-06
1.62377e-06
1.62377e-06
1.62377e-06
1.62377e-06
1.62887e-06
1.6287e-06
1.63067e-06
1.63032e-06
1.62839e-06
1.6288e-06
1.62903e-06
1.62902e-06
1.62895e-06
1.62869e-06
1.63062e-06
1.63072e-06
1.63039e-06
1.62849e-06
1.63075e-06
1.63067e-06
1.6106e-06
1.61045e-06
1.61024e-06
1.60788e-06
1.60784e-06
1.60764e-06
1.60794e-06
1.61035e-06
1.61052e-06
1.61024e-06
1.60686e-06
1.60399e-06
1.60398e-06
1.60398e-06
1.60398e-06
1.60778e-06
1.60861e-06
1.60788e-06
1.60399e-06
1.60398e-06
1.60398e-06
1.60398e-06
1.60398e-06
1.60398e-06
1.60902e-06
1.61094e-06
1.61061e-06
1.60784e-06
1.60398e-06
1.60398e-06
1.60398e-06
1.60398e-06
1.60398e-06
1.60398e-06
1.60925e-06
1.6106e-06
1.61044e-06
1.60764e-06
1.60398e-06
1.60398e-06
1.60398e-06
1.60398e-06
1.60398e-06
1.60398e-06
1.60924e-06
1.60871e-06
1.60793e-06
1.60398e-06
1.60398e-06
1.60398e-06
1.60398e-06
1.60398e-06
1.60398e-06
1.60916e-06
1.61097e-06
1.61035e-06
1.60778e-06
1.60398e-06
1.60398e-06
1.60398e-06
1.60398e-06
1.60908e-06
1.60891e-06
1.61088e-06
1.61053e-06
1.6086e-06
1.60902e-06
1.60925e-06
1.60924e-06
1.60916e-06
1.60891e-06
1.61083e-06
1.61094e-06
1.6106e-06
1.60871e-06
1.61097e-06
1.61089e-06
1.59082e-06
1.59066e-06
1.59045e-06
1.58809e-06
1.58806e-06
1.58786e-06
1.58815e-06
1.59056e-06
1.59074e-06
1.59046e-06
1.58707e-06
1.5842e-06
1.5842e-06
1.5842e-06
1.5842e-06
1.588e-06
1.58882e-06
1.58809e-06
1.5842e-06
1.5842e-06
1.5842e-06
1.5842e-06
1.5842e-06
1.5842e-06
1.58923e-06
1.59115e-06
1.59082e-06
1.58806e-06
1.5842e-06
1.5842e-06
1.5842e-06
1.5842e-06
1.5842e-06
1.5842e-06
1.58947e-06
1.59082e-06
1.59066e-06
1.58786e-06
1.5842e-06
1.5842e-06
1.5842e-06
1.5842e-06
1.5842e-06
1.5842e-06
1.58945e-06
1.58892e-06
1.58815e-06
1.5842e-06
1.5842e-06
1.5842e-06
1.5842e-06
1.5842e-06
1.5842e-06
1.58938e-06
1.59118e-06
1.59056e-06
1.588e-06
1.5842e-06
1.5842e-06
1.5842e-06
1.5842e-06
1.5893e-06
1.58913e-06
1.5911e-06
1.59075e-06
1.58882e-06
1.58923e-06
1.58946e-06
1.58945e-06
1.58938e-06
1.58912e-06
1.59105e-06
1.59115e-06
1.59082e-06
1.58892e-06
1.59118e-06
1.5911e-06
1.57103e-06
1.57088e-06
1.57067e-06
1.56831e-06
1.56827e-06
1.56807e-06
1.56837e-06
1.57078e-06
1.57095e-06
1.57067e-06
1.56729e-06
1.56441e-06
1.56442e-06
1.56442e-06
1.56442e-06
1.56821e-06
1.56904e-06
1.56831e-06
1.56441e-06
1.56441e-06
1.56441e-06
1.56441e-06
1.56441e-06
1.56442e-06
1.56945e-06
1.57137e-06
1.57104e-06
1.56827e-06
1.56441e-06
1.56441e-06
1.56441e-06
1.56441e-06
1.56441e-06
1.56441e-06
1.56968e-06
1.57103e-06
1.57087e-06
1.56807e-06
1.56441e-06
1.56441e-06
1.56441e-06
1.56441e-06
1.56441e-06
1.56441e-06
1.56967e-06
1.56914e-06
1.56836e-06
1.56441e-06
1.56441e-06
1.56441e-06
1.56441e-06
1.56441e-06
1.56441e-06
1.56959e-06
1.5714e-06
1.57078e-06
1.56821e-06
1.56441e-06
1.56441e-06
1.56441e-06
1.56441e-06
1.56951e-06
1.56934e-06
1.57131e-06
1.57096e-06
1.56903e-06
1.56945e-06
1.56968e-06
1.56967e-06
1.56959e-06
1.56934e-06
1.57126e-06
1.57137e-06
1.57103e-06
1.56914e-06
1.5714e-06
1.57132e-06
1.55125e-06
1.55109e-06
1.55088e-06
1.54852e-06
1.54849e-06
1.54829e-06
1.54858e-06
1.55099e-06
1.55117e-06
1.55089e-06
1.5475e-06
1.54463e-06
1.54463e-06
1.54463e-06
1.54463e-06
1.54843e-06
1.54925e-06
1.54852e-06
1.54463e-06
1.54463e-06
1.54463e-06
1.54463e-06
1.54463e-06
1.54463e-06
1.54966e-06
1.55158e-06
1.55125e-06
1.54848e-06
1.54463e-06
1.54463e-06
1.54463e-06
1.54463e-06
1.54463e-06
1.54463e-06
1.5499e-06
1.55125e-06
1.55109e-06
1.54829e-06
1.54463e-06
1.54463e-06
1.54463e-06
1.54463e-06
1.54463e-06
1.54463e-06
1.54988e-06
1.54935e-06
1.54858e-06
1.54463e-06
1.54463e-06
1.54463e-06
1.54463e-06
1.54463e-06
1.54463e-06
1.54981e-06
1.55161e-06
1.55099e-06
1.54843e-06
1.54463e-06
1.54463e-06
1.54463e-06
1.54463e-06
1.54973e-06
1.54956e-06
1.55153e-06
1.55118e-06
1.54925e-06
1.54966e-06
1.54989e-06
1.54988e-06
1.54981e-06
1.54955e-06
1.55148e-06
1.55158e-06
1.55125e-06
1.54935e-06
1.55161e-06
1.55153e-06
1.53146e-06
1.53131e-06
1.5311e-06
1.52874e-06
1.5287e-06
1.5285e-06
1.5288e-06
1.53121e-06
1.53138e-06
1.5311e-06
1.52772e-06
1.52484e-06
1.52484e-06
1.52484e-06
1.52484e-06
1.52864e-06
1.52947e-06
1.52874e-06
1.52484e-06
1.52484e-06
1.52484e-06
1.52484e-06
1.52484e-06
1.52484e-06
1.52988e-06
1.53179e-06
1.53147e-06
1.5287e-06
1.52484e-06
1.52484e-06
1.52484e-06
1.52484e-06
1.52484e-06
1.52484e-06
1.53011e-06
1.53146e-06
1.5313e-06
1.5285e-06
1.52484e-06
1.52484e-06
1.52484e-06
1.52484e-06
1.52484e-06
1.52484e-06
1.5301e-06
1.52957e-06
1.52879e-06
1.52484e-06
1.52484e-06
1.52484e-06
1.52484e-06
1.52484e-06
1.52484e-06
1.53002e-06
1.53183e-06
1.53121e-06
1.52864e-06
1.52484e-06
1.52484e-06
1.52484e-06
1.52484e-06
1.52994e-06
1.52977e-06
1.53174e-06
1.53139e-06
1.52946e-06
1.52987e-06
1.53011e-06
1.5301e-06
1.53002e-06
1.52977e-06
1.53169e-06
1.5318e-06
1.53146e-06
1.52957e-06
1.53183e-06
1.53174e-06
1.51168e-06
1.51152e-06
1.51131e-06
1.50895e-06
1.50891e-06
1.50872e-06
1.50901e-06
1.51142e-06
1.5116e-06
1.51132e-06
1.50793e-06
1.50506e-06
1.50506e-06
1.50506e-06
1.50506e-06
1.50886e-06
1.50968e-06
1.50895e-06
1.50506e-06
1.50506e-06
1.50506e-06
1.50506e-06
1.50506e-06
1.50506e-06
1.51009e-06
1.51201e-06
1.51168e-06
1.50891e-06
1.50506e-06
1.50506e-06
1.50506e-06
1.50506e-06
1.50506e-06
1.50506e-06
1.51033e-06
1.51168e-06
1.51152e-06
1.50872e-06
1.50506e-06
1.50506e-06
1.50506e-06
1.50506e-06
1.50506e-06
1.50506e-06
1.51031e-06
1.50978e-06
1.50901e-06
1.50506e-06
1.50506e-06
1.50506e-06
1.50506e-06
1.50506e-06
1.50506e-06
1.51024e-06
1.51204e-06
1.51142e-06
1.50885e-06
1.50506e-06
1.50506e-06
1.50506e-06
1.50506e-06
1.51016e-06
1.50999e-06
1.51196e-06
1.5116e-06
1.50968e-06
1.51009e-06
1.51032e-06
1.51031e-06
1.51024e-06
1.50998e-06
1.51191e-06
1.51201e-06
1.51167e-06
1.50978e-06
1.51204e-06
1.51196e-06
1.49189e-06
1.49173e-06
1.49153e-06
1.48917e-06
1.48913e-06
1.48893e-06
1.48923e-06
1.49164e-06
1.49181e-06
1.49153e-06
1.48815e-06
1.48527e-06
1.48527e-06
1.48527e-06
1.48527e-06
1.48907e-06
1.48989e-06
1.48916e-06
1.48527e-06
1.48527e-06
1.48527e-06
1.48527e-06
1.48527e-06
1.48527e-06
1.4903e-06
1.49222e-06
1.4919e-06
1.48913e-06
1.48527e-06
1.48527e-06
1.48527e-06
1.48527e-06
1.48527e-06
1.48527e-06
1.49054e-06
1.49189e-06
1.49173e-06
1.48893e-06
1.48527e-06
1.48527e-06
1.48527e-06
1.48527e-06
1.48527e-06
1.48527e-06
1.49053e-06
1.49e-06
1.48922e-06
1.48527e-06
1.48527e-06
1.48527e-06
1.48527e-06
1.48527e-06
1.48527e-06
1.49045e-06
1.49226e-06
1.49164e-06
1.48907e-06
1.48527e-06
1.48527e-06
1.48527e-06
1.48527e-06
1.49037e-06
1.4902e-06
1.49217e-06
1.49182e-06
1.48989e-06
1.4903e-06
1.49054e-06
1.49053e-06
1.49045e-06
1.4902e-06
1.49212e-06
1.49223e-06
1.49189e-06
1.49e-06
1.49226e-06
1.49217e-06
1.4721e-06
1.47195e-06
1.47174e-06
1.46938e-06
1.46934e-06
1.46914e-06
1.46944e-06
1.47185e-06
1.47203e-06
1.47174e-06
1.46836e-06
1.46549e-06
1.46549e-06
1.46549e-06
1.46549e-06
1.46929e-06
1.47011e-06
1.46938e-06
1.46549e-06
1.46549e-06
1.46549e-06
1.46549e-06
1.46549e-06
1.46549e-06
1.47052e-06
1.47244e-06
1.47211e-06
1.46934e-06
1.46549e-06
1.46549e-06
1.46549e-06
1.46549e-06
1.46549e-06
1.46549e-06
1.47075e-06
1.4721e-06
1.47194e-06
1.46915e-06
1.46549e-06
1.46549e-06
1.46549e-06
1.46549e-06
1.46549e-06
1.46549e-06
1.47074e-06
1.47021e-06
1.46944e-06
1.46549e-06
1.46549e-06
1.46549e-06
1.46549e-06
1.46549e-06
1.46549e-06
1.47066e-06
1.47247e-06
1.47185e-06
1.46928e-06
1.46549e-06
1.46549e-06
1.46549e-06
1.46549e-06
1.47059e-06
1.47041e-06
1.47238e-06
1.47203e-06
1.4701e-06
1.47052e-06
1.47075e-06
1.47074e-06
1.47066e-06
1.47041e-06
1.47234e-06
1.47244e-06
1.4721e-06
1.47021e-06
1.47247e-06
1.47239e-06
1.45232e-06
1.45216e-06
1.45195e-06
1.44959e-06
1.44956e-06
1.44936e-06
1.44965e-06
1.45206e-06
1.45224e-06
1.45196e-06
1.44857e-06
1.4457e-06
1.4457e-06
1.4457e-06
1.4457e-06
1.4495e-06
1.45032e-06
1.44959e-06
1.4457e-06
1.4457e-06
1.4457e-06
1.4457e-06
1.4457e-06
1.4457e-06
1.45073e-06
1.45265e-06
1.45232e-06
1.44955e-06
1.4457e-06
1.4457e-06
1.4457e-06
1.4457e-06
1.4457e-06
1.4457e-06
1.45097e-06
1.45232e-06
1.45216e-06
1.44936e-06
1.4457e-06
1.4457e-06
1.4457e-06
1.4457e-06
1.4457e-06
1.4457e-06
1.45095e-06
1.45042e-06
1.44965e-06
1.4457e-06
1.4457e-06
1.4457e-06
1.4457e-06
1.4457e-06
1.4457e-06
1.45088e-06
1.45268e-06
1.45206e-06
1.44949e-06
1.4457e-06
1.4457e-06
1.4457e-06
1.4457e-06
1.4508e-06
1.45063e-06
1.4526e-06
1.45224e-06
1.45032e-06
1.45073e-06
1.45096e-06
1.45095e-06
1.45088e-06
1.45062e-06
1.45255e-06
1.45265e-06
1.45232e-06
1.45042e-06
1.45268e-06
1.4526e-06
1.43253e-06
1.43237e-06
1.43216e-06
1.4298e-06
1.42977e-06
1.42957e-06
1.42986e-06
1.43227e-06
1.43245e-06
1.43217e-06
1.42879e-06
1.42591e-06
1.42591e-06
1.42591e-06
1.42591e-06
1.42971e-06
1.43053e-06
1.4298e-06
1.42591e-06
1.42591e-06
1.42591e-06
1.42591e-06
1.42591e-06
1.42591e-06
1.43094e-06
1.43286e-06
1.43253e-06
1.42977e-06
1.42591e-06
1.42591e-06
1.42591e-06
1.42591e-06
1.42591e-06
1.42591e-06
1.43118e-06
1.43253e-06
1.43237e-06
1.42957e-06
1.42591e-06
1.42591e-06
1.42591e-06
1.42591e-06
1.42591e-06
1.42591e-06
1.43116e-06
1.43063e-06
1.42986e-06
1.42591e-06
1.42591e-06
1.42591e-06
1.42591e-06
1.42591e-06
1.42591e-06
1.43109e-06
1.4329e-06
1.43227e-06
1.42971e-06
1.42591e-06
1.42591e-06
1.42591e-06
1.42591e-06
1.43101e-06
1.43084e-06
1.43281e-06
1.43246e-06
1.43053e-06
1.43094e-06
1.43118e-06
1.43116e-06
1.43109e-06
1.43084e-06
1.43276e-06
1.43286e-06
1.43253e-06
1.43063e-06
1.43289e-06
1.43281e-06
1.41274e-06
1.41259e-06
1.41238e-06
1.41002e-06
1.40998e-06
1.40978e-06
1.41008e-06
1.41249e-06
1.41266e-06
1.41238e-06
1.409e-06
1.40613e-06
1.40613e-06
1.40613e-06
1.40613e-06
1.40992e-06
1.41075e-06
1.41002e-06
1.40613e-06
1.40613e-06
1.40613e-06
1.40613e-06
1.40613e-06
1.40613e-06
1.41116e-06
1.41308e-06
1.41275e-06
1.40998e-06
1.40613e-06
1.40613e-06
1.40613e-06
1.40613e-06
1.40613e-06
1.40613e-06
1.41139e-06
1.41274e-06
1.41258e-06
1.40978e-06
1.40613e-06
1.40613e-06
1.40613e-06
1.40613e-06
1.40613e-06
1.40613e-06
1.41138e-06
1.41085e-06
1.41008e-06
1.40613e-06
1.40613e-06
1.40613e-06
1.40613e-06
1.40613e-06
1.40613e-06
1.4113e-06
1.41311e-06
1.41249e-06
1.40992e-06
1.40613e-06
1.40613e-06
1.40613e-06
1.40613e-06
1.41123e-06
1.41105e-06
1.41302e-06
1.41267e-06
1.41074e-06
1.41116e-06
1.41139e-06
1.41138e-06
1.4113e-06
1.41105e-06
1.41298e-06
1.41308e-06
1.41274e-06
1.41085e-06
1.41311e-06
1.41303e-06
1.39296e-06
1.3928e-06
1.39259e-06
1.39023e-06
1.3902e-06
1.39e-06
1.39029e-06
1.3927e-06
1.39288e-06
1.3926e-06
1.38921e-06
1.38634e-06
1.38634e-06
1.38634e-06
1.38634e-06
1.39014e-06
1.39096e-06
1.39023e-06
1.38634e-06
1.38634e-06
1.38634e-06
1.38634e-06
1.38634e-06
1.38634e-06
1.39137e-06
1.39329e-06
1.39296e-06
1.39019e-06
1.38634e-06
1.38634e-06
1.38634e-06
1.38634e-06
1.38634e-06
1.38634e-06
1.39161e-06
1.39296e-06
1.3928e-06
1.39e-06
1.38634e-06
1.38634e-06
1.38634e-06
1.38634e-06
1.38634e-06
1.38634e-06
1.39159e-06
1.39106e-06
1.39029e-06
1.38634e-06
1.38634e-06
1.38634e-06
1.38634e-06
1.38634e-06
1.38634e-06
1.39152e-06
1.39332e-06
1.3927e-06
1.39013e-06
1.38634e-06
1.38634e-06
1.38634e-06
1.38634e-06
1.39144e-06
1.39127e-06
1.39324e-06
1.39289e-06
1.39096e-06
1.39137e-06
1.3916e-06
1.39159e-06
1.39152e-06
1.39126e-06
1.39319e-06
1.39329e-06
1.39296e-06
1.39106e-06
1.39332e-06
1.39324e-06
1.37317e-06
1.37301e-06
1.37281e-06
1.37045e-06
1.37041e-06
1.37021e-06
1.3705e-06
1.37292e-06
1.37309e-06
1.37281e-06
1.36943e-06
1.36655e-06
1.36655e-06
1.36655e-06
1.36655e-06
1.37035e-06
1.37117e-06
1.37044e-06
1.36655e-06
1.36655e-06
1.36655e-06
1.36655e-06
1.36655e-06
1.36655e-06
1.37159e-06
1.3735e-06
1.37318e-06
1.37041e-06
1.36655e-06
1.36655e-06
1.36655e-06
1.36655e-06
1.36655e-06
1.36655e-06
1.37182e-06
1.37317e-06
1.37301e-06
1.37021e-06
1.36655e-06
1.36655e-06
1.36655e-06
1.36655e-06
1.36655e-06
1.36655e-06
1.37181e-06
1.37128e-06
1.3705e-06
1.36655e-06
1.36655e-06
1.36655e-06
1.36655e-06
1.36655e-06
1.36655e-06
1.37173e-06
1.37354e-06
1.37292e-06
1.37035e-06
1.36655e-06
1.36655e-06
1.36655e-06
1.36655e-06
1.37165e-06
1.37148e-06
1.37345e-06
1.3731e-06
1.37117e-06
1.37158e-06
1.37182e-06
1.37181e-06
1.37173e-06
1.37148e-06
1.3734e-06
1.37351e-06
1.37317e-06
1.37128e-06
1.37354e-06
1.37345e-06
1.35338e-06
1.35323e-06
1.35302e-06
1.35066e-06
1.35062e-06
1.35043e-06
1.35072e-06
1.35313e-06
1.35331e-06
1.35302e-06
1.34964e-06
1.34677e-06
1.34677e-06
1.34677e-06
1.34677e-06
1.35057e-06
1.35139e-06
1.35066e-06
1.34677e-06
1.34677e-06
1.34677e-06
1.34677e-06
1.34677e-06
1.34677e-06
1.3518e-06
1.35372e-06
1.35339e-06
1.35062e-06
1.34677e-06
1.34677e-06
1.34677e-06
1.34677e-06
1.34677e-06
1.34677e-06
1.35203e-06
1.35338e-06
1.35323e-06
1.35043e-06
1.34677e-06
1.34677e-06
1.34677e-06
1.34677e-06
1.34677e-06
1.34677e-06
1.35202e-06
1.35149e-06
1.35072e-06
1.34677e-06
1.34677e-06
1.34677e-06
1.34677e-06
1.34677e-06
1.34677e-06
1.35195e-06
1.35375e-06
1.35313e-06
1.35056e-06
1.34677e-06
1.34677e-06
1.34677e-06
1.34677e-06
1.35187e-06
1.3517e-06
1.35366e-06
1.35331e-06
1.35138e-06
1.3518e-06
1.35203e-06
1.35202e-06
1.35194e-06
1.35169e-06
1.35362e-06
1.35372e-06
1.35338e-06
1.35149e-06
1.35375e-06
1.35367e-06
1.3336e-06
1.33344e-06
1.33323e-06
1.33088e-06
1.33084e-06
1.33064e-06
1.33093e-06
1.33334e-06
1.33352e-06
1.33324e-06
1.32986e-06
1.32698e-06
1.32698e-06
1.32698e-06
1.32698e-06
1.33078e-06
1.3316e-06
1.33087e-06
1.32698e-06
1.32698e-06
1.32698e-06
1.32698e-06
1.32698e-06
1.32698e-06
1.33201e-06
1.33393e-06
1.3336e-06
1.33084e-06
1.32698e-06
1.32698e-06
1.32698e-06
1.32698e-06
1.32698e-06
1.32698e-06
1.33225e-06
1.3336e-06
1.33344e-06
1.33064e-06
1.32698e-06
1.32698e-06
1.32698e-06
1.32698e-06
1.32698e-06
1.32698e-06
1.33224e-06
1.3317e-06
1.33093e-06
1.32698e-06
1.32698e-06
1.32698e-06
1.32698e-06
1.32698e-06
1.32698e-06
1.33216e-06
1.33397e-06
1.33334e-06
1.33078e-06
1.32698e-06
1.32698e-06
1.32698e-06
1.32698e-06
1.33208e-06
1.33191e-06
1.33388e-06
1.33353e-06
1.3316e-06
1.33201e-06
1.33225e-06
1.33223e-06
1.33216e-06
1.33191e-06
1.33383e-06
1.33393e-06
1.3336e-06
1.3317e-06
1.33397e-06
1.33388e-06
1.31381e-06
1.31366e-06
1.31345e-06
1.31109e-06
1.31105e-06
1.31085e-06
1.31115e-06
1.31356e-06
1.31373e-06
1.31345e-06
1.31007e-06
1.3072e-06
1.3072e-06
1.3072e-06
1.3072e-06
1.311e-06
1.31182e-06
1.31109e-06
1.3072e-06
1.3072e-06
1.3072e-06
1.3072e-06
1.3072e-06
1.3072e-06
1.31223e-06
1.31415e-06
1.31382e-06
1.31105e-06
1.3072e-06
1.3072e-06
1.3072e-06
1.3072e-06
1.3072e-06
1.3072e-06
1.31246e-06
1.31381e-06
1.31365e-06
1.31085e-06
1.3072e-06
1.3072e-06
1.3072e-06
1.3072e-06
1.3072e-06
1.3072e-06
1.31245e-06
1.31192e-06
1.31115e-06
1.3072e-06
1.3072e-06
1.3072e-06
1.3072e-06
1.3072e-06
1.3072e-06
1.31237e-06
1.31418e-06
1.31356e-06
1.31099e-06
1.3072e-06
1.3072e-06
1.3072e-06
1.3072e-06
1.3123e-06
1.31212e-06
1.31409e-06
1.31374e-06
1.31181e-06
1.31223e-06
1.31246e-06
1.31245e-06
1.31237e-06
1.31212e-06
1.31405e-06
1.31415e-06
1.31381e-06
1.31192e-06
1.31418e-06
1.3141e-06
1.29403e-06
1.29387e-06
1.29366e-06
1.2913e-06
1.29127e-06
1.29107e-06
1.29136e-06
1.29377e-06
1.29395e-06
1.29367e-06
1.29028e-06
1.28741e-06
1.28741e-06
1.28741e-06
1.28741e-06
1.29121e-06
1.29203e-06
1.2913e-06
1.28741e-06
1.28741e-06
1.28741e-06
1.28741e-06
1.28741e-06
1.28741e-06
1.29244e-06
1.29436e-06
1.29403e-06
1.29127e-06
1.28741e-06
1.28741e-06
1.28741e-06
1.28741e-06
1.28741e-06
1.28741e-06
1.29268e-06
1.29403e-06
1.29387e-06
1.29107e-06
1.28741e-06
1.28741e-06
1.28741e-06
1.28741e-06
1.28741e-06
1.28741e-06
1.29266e-06
1.29213e-06
1.29136e-06
1.28741e-06
1.28741e-06
1.28741e-06
1.28741e-06
1.28741e-06
1.28741e-06
1.29259e-06
1.2944e-06
1.29377e-06
1.29121e-06
1.28741e-06
1.28741e-06
1.28741e-06
1.28741e-06
1.29251e-06
1.29234e-06
1.29431e-06
1.29396e-06
1.29203e-06
1.29244e-06
1.29268e-06
1.29266e-06
1.29259e-06