/*--------------------------------*- C++ -*----------------------------------*\
| =========                 |                                                 |
| \\      /  F ield         | OpenFOAM: The Open Source CFD Toolbox           |
|  \\    /   O peration     | Version:  v2006                                 |
|   \\  /    A nd           | Website:  www.openfoam.com                      |
|    \\/     M anipulation  |                                                 |
\*---------------------------------------------------------------------------*/
FoamFile
{
    version     2.0;
    format      ascii;
    class       volScalarField;
    location    "750";
    object      epsilon;
}
// * * * * * * * * * * * * * * * * * * * * * * * * * * * * * * * * * * * * * //

dimensions      [0 2 -3 0 0 0 0];


internalField   nonuniform List<scalar> 
42616
(
7.22429e-07
1.27871e-06
1.26539e-06
1.52568e-06
7.104e-07
1.29605e-06
1.27618e-06
1.53248e-06
6.51126e-07
1.1724e-06
1.19281e-06
1.43779e-06
6.28467e-07
1.07991e-06
1.08519e-06
1.28419e-06
6.40599e-07
1.09786e-06
1.11424e-06
1.27766e-06
6.56833e-07
1.15365e-06
1.21591e-06
1.43235e-06
6.96156e-07
1.25808e-06
1.19828e-06
1.51639e-06
7.44954e-07
1.28836e-06
1.17821e-06
1.51127e-06
7.19648e-07
1.19519e-06
1.21759e-06
1.42801e-06
6.7529e-07
1.16706e-06
1.24827e-06
1.3834e-06
6.79432e-07
1.20392e-06
1.22642e-06
1.42774e-06
6.83876e-07
1.17753e-06
1.15264e-06
1.45892e-06
6.81702e-07
1.15337e-06
1.13253e-06
1.44403e-06
6.89959e-07
1.17865e-06
1.17689e-06
1.38504e-06
6.90743e-07
1.1967e-06
1.20496e-06
1.37066e-06
6.89885e-07
1.184e-06
1.19319e-06
1.417e-06
6.926e-07
1.17187e-06
1.17203e-06
1.44384e-06
6.89749e-07
1.1655e-06
1.15575e-06
1.42319e-06
6.78372e-07
1.1542e-06
1.15018e-06
1.3858e-06
6.74946e-07
1.15452e-06
1.1636e-06
1.38523e-06
6.65969e-07
1.11763e-06
1.12166e-06
1.37232e-06
1.55473e-06
1.27906e-06
1.25947e-06
1.51204e-06
1.27869e-06
1.25483e-06
1.25821e-06
1.25692e-06
1.50214e-06
1.25302e-06
1.25725e-06
1.51425e-06
1.56525e-06
1.52588e-06
1.28729e-06
1.27919e-06
1.2774e-06
1.29838e-06
1.53586e-06
1.58299e-06
1.28547e-06
1.26678e-06
1.27205e-06
1.27735e-06
1.26858e-06
1.30042e-06
1.27903e-06
1.51621e-06
1.53763e-06
1.26679e-06
1.27806e-06
1.27385e-06
1.5332e-06
1.5153e-06
1.35803e-06
1.25359e-06
1.29268e-06
1.16432e-06
1.20344e-06
1.58244e-06
1.43945e-06
1.24918e-06
1.27423e-06
1.16693e-06
1.21684e-06
1.27546e-06
1.21088e-06
1.21754e-06
1.53843e-06
1.45565e-06
1.26998e-06
1.22408e-06
1.21981e-06
1.44924e-06
1.34653e-06
1.30902e-06
1.13997e-06
1.16618e-06
1.11297e-06
1.09488e-06
1.4178e-06
1.27251e-06
1.14442e-06
1.18575e-06
1.11684e-06
1.10416e-06
1.18633e-06
1.08958e-06
1.09659e-06
1.44152e-06
1.29334e-06
1.19107e-06
1.10042e-06
1.10063e-06
1.29308e-06
1.31821e-06
1.37792e-06
1.11401e-06
1.08824e-06
1.14234e-06
1.09764e-06
1.26892e-06
1.28873e-06
1.11718e-06
1.09224e-06
1.1424e-06
1.09789e-06
1.07981e-06
1.08522e-06
1.07271e-06
1.28605e-06
1.29687e-06
1.08221e-06
1.08827e-06
1.07401e-06
1.26257e-06
1.3863e-06
1.37393e-06
1.14875e-06
1.10713e-06
1.14997e-06
1.12813e-06
1.303e-06
1.34432e-06
1.15088e-06
1.12173e-06
1.15769e-06
1.19625e-06
1.08558e-06
1.13688e-06
1.16899e-06
1.32163e-06
1.45414e-06
1.08857e-06
1.20316e-06
1.17972e-06
1.4048e-06
1.37339e-06
1.38742e-06
1.14983e-06
1.14011e-06
1.17614e-06
1.22203e-06
1.35591e-06
1.47278e-06
1.15779e-06
1.20687e-06
1.17171e-06
1.20501e-06
1.19653e-06
1.23183e-06
1.24659e-06
1.46877e-06
1.45058e-06
1.20472e-06
1.21103e-06
1.23538e-06
1.50764e-06
1.40719e-06
1.53882e-06
1.20129e-06
1.25365e-06
1.27554e-06
1.2973e-06
1.50674e-06
1.58981e-06
1.18938e-06
1.19598e-06
1.25836e-06
1.18336e-06
1.25389e-06
1.29073e-06
1.25723e-06
1.445e-06
1.37971e-06
1.23729e-06
1.17798e-06
1.23751e-06
1.51296e-06
1.55627e-06
1.53353e-06
1.28355e-06
1.29593e-06
1.25924e-06
1.22719e-06
1.59211e-06
1.4701e-06
1.27098e-06
1.18415e-06
1.26536e-06
1.20963e-06
1.25167e-06
1.22088e-06
1.20622e-06
1.38035e-06
1.42668e-06
1.2354e-06
1.20414e-06
1.21153e-06
1.43376e-06
1.52414e-06
1.40302e-06
1.23338e-06
1.19946e-06
1.17663e-06
1.16547e-06
1.45385e-06
1.37166e-06
1.24346e-06
1.22151e-06
1.1852e-06
1.24385e-06
1.19036e-06
1.1651e-06
1.16698e-06
1.4486e-06
1.52419e-06
1.20095e-06
1.24557e-06
1.17954e-06
1.38194e-06
1.40051e-06
1.39025e-06
1.17218e-06
1.16764e-06
1.17893e-06
1.19941e-06
1.37481e-06
1.43033e-06
1.17736e-06
1.24623e-06
1.17672e-06
1.23939e-06
1.16683e-06
1.19886e-06
1.18904e-06
1.53469e-06
1.51941e-06
1.17827e-06
1.24025e-06
1.18997e-06
1.41567e-06
1.39364e-06
1.38985e-06
1.1806e-06
1.20331e-06
1.17427e-06
1.18494e-06
1.43876e-06
1.41239e-06
1.17761e-06
1.22482e-06
1.17035e-06
1.16241e-06
1.19879e-06
1.19048e-06
1.20857e-06
1.51237e-06
1.36987e-06
1.19746e-06
1.16864e-06
1.20595e-06
1.45485e-06
1.39099e-06
1.39883e-06
1.16949e-06
1.17129e-06
1.16676e-06
1.15003e-06
1.4085e-06
1.36844e-06
1.16668e-06
1.14562e-06
1.16498e-06
1.12687e-06
1.2078e-06
1.15412e-06
1.1935e-06
1.35914e-06
1.31217e-06
1.20567e-06
1.13224e-06
1.19248e-06
1.44583e-06
1.4057e-06
1.42192e-06
1.16974e-06
1.15016e-06
1.18323e-06
1.17293e-06
1.37064e-06
1.40532e-06
1.16826e-06
1.12819e-06
1.18148e-06
1.16746e-06
1.1863e-06
1.16945e-06
1.1645e-06
1.31778e-06
1.39233e-06
1.1846e-06
1.1623e-06
1.16094e-06
1.38699e-06
1.42447e-06
1.41305e-06
1.18464e-06
1.18312e-06
1.18101e-06
1.19855e-06
1.41789e-06
1.44498e-06
1.18278e-06
1.18275e-06
1.18021e-06
1.206e-06
1.16034e-06
1.19587e-06
1.15696e-06
1.41162e-06
1.46058e-06
1.15676e-06
1.20275e-06
1.15477e-06
1.36649e-06
1.41394e-06
1.41016e-06
1.1788e-06
1.19886e-06
1.17645e-06
1.18877e-06
1.44784e-06
1.42776e-06
1.17882e-06
1.20737e-06
1.17768e-06
1.19896e-06
1.15814e-06
1.18823e-06
1.17451e-06
1.46583e-06
1.449e-06
1.15757e-06
1.19868e-06
1.17618e-06
1.4064e-06
1.41375e-06
1.42268e-06
1.1771e-06
1.18435e-06
1.18234e-06
1.17305e-06
1.42723e-06
1.4063e-06
1.17852e-06
1.19338e-06
1.18283e-06
1.17611e-06
1.18071e-06
1.17307e-06
1.18992e-06
1.44748e-06
1.41075e-06
1.1821e-06
1.17589e-06
1.19008e-06
1.44043e-06
1.42588e-06
1.4186e-06
1.18332e-06
1.17175e-06
1.18003e-06
1.16692e-06
1.40741e-06
1.40087e-06
1.1834e-06
1.1724e-06
1.17884e-06
1.15954e-06
1.19035e-06
1.16711e-06
1.18152e-06
1.41057e-06
1.38615e-06
1.19028e-06
1.15885e-06
1.17999e-06
1.42487e-06
1.41905e-06
1.39504e-06
1.17649e-06
1.16568e-06
1.16081e-06
1.15714e-06
1.40215e-06
1.39023e-06
1.17506e-06
1.15648e-06
1.15959e-06
1.15071e-06
1.17561e-06
1.15588e-06
1.15583e-06
1.3865e-06
1.37682e-06
1.17393e-06
1.15004e-06
1.15507e-06
1.38559e-06
1.39547e-06
1.38758e-06
1.15747e-06
1.15531e-06
1.15336e-06
1.15364e-06
1.39108e-06
1.38651e-06
1.15673e-06
1.15083e-06
1.15362e-06
1.1576e-06
1.15276e-06
1.15304e-06
1.15056e-06
1.37975e-06
1.39484e-06
1.15236e-06
1.15744e-06
1.15082e-06
1.38083e-06
1.39038e-06
1.38408e-06
1.15406e-06
1.15486e-06
1.14314e-06
1.14687e-06
1.38987e-06
1.38882e-06
1.15452e-06
1.16349e-06
1.14387e-06
1.1534e-06
1.15223e-06
1.14774e-06
1.1467e-06
1.40169e-06
1.4013e-06
1.1529e-06
1.15405e-06
1.14734e-06
1.38899e-06
1.36646e-06
1.11224e-06
1.11674e-06
1.37252e-06
1.11264e-06
1.12105e-06
6.70537e-07
6.73088e-07
6.70081e-07
1.11636e-06
1.38202e-06
1.11654e-06
7.15945e-07
7.07813e-07
7.02353e-07
7.03979e-07
4.51546e-06
9.99945e-06
4.48133e-06
9.95494e-06
1.96813e-05
1.97229e-05
4.46644e-06
9.96482e-06
4.45729e-06
9.89857e-06
7.22443e-07
7.13908e-07
7.13477e-07
7.21014e-07
7.37614e-07
7.27668e-07
7.24433e-07
2.48171e-06
3.85647e-06
1.00855e-06
1.29293e-06
2.44604e-06
3.92288e-06
1.01746e-06
1.94815e-05
1.94793e-05
2.43635e-06
1.00212e-06
3.80537e-06
1.27347e-06
2.42374e-06
1.00739e-06
3.83034e-06
5.89296e-06
5.8861e-06
1.53402e-06
5.9087e-06
5.89474e-06
4.3134e-06
9.65897e-06
4.44503e-06
9.4498e-06
1.94705e-05
1.9155e-05
4.29489e-06
9.6363e-06
4.38429e-06
9.46873e-06
7.35111e-07
7.27226e-07
7.23784e-07
6.65613e-07
6.83693e-07
6.975e-07
6.94478e-07
2.42367e-06
3.94286e-06
1.01637e-06
1.27765e-06
2.4814e-06
3.85104e-06
1.00049e-06
1.93491e-05
1.92093e-05
2.39519e-06
1.0061e-06
3.83488e-06
1.2675e-06
2.42518e-06
9.96553e-07
3.79868e-06
5.85859e-06
5.84958e-06
1.50567e-06
5.79694e-06
5.80393e-06
4.02072e-06
9.24141e-06
4.0927e-06
9.23165e-06
1.86799e-05
1.85701e-05
4.06522e-06
9.28989e-06
4.13461e-06
9.27458e-06
6.60775e-07
6.79135e-07
6.76463e-07
6.29457e-07
6.07436e-07
6.21397e-07
6.1639e-07
2.17375e-06
3.60128e-06
9.2263e-07
1.13646e-06
2.26713e-06
3.46499e-06
8.94939e-07
1.88424e-05
1.86805e-05
2.21317e-06
9.40081e-07
3.65808e-06
1.15796e-06
2.29631e-06
9.13516e-07
3.53811e-06
5.61764e-06
5.65151e-06
1.36803e-06
5.48159e-06
5.51271e-06
4.08689e-06
9.38372e-06
4.02659e-06
9.49278e-06
1.8639e-05
1.87744e-05
4.08285e-06
9.39531e-06
4.03839e-06
9.49834e-06
6.00426e-07
6.10549e-07
6.03172e-07
6.36045e-07
6.00766e-07
6.07216e-07
5.94356e-07
2.08435e-06
3.37162e-06
8.51418e-07
1.07717e-06
2.08757e-06
3.38783e-06
8.50071e-07
1.86467e-05
1.87953e-05
2.08961e-06
8.56181e-07
3.40165e-06
1.07964e-06
2.10568e-06
8.51749e-07
3.38845e-06
5.34373e-06
5.34072e-06
1.25654e-06
5.33031e-06
5.31484e-06
4.16375e-06
9.56354e-06
4.15725e-06
9.5342e-06
1.89081e-05
1.89703e-05
4.23114e-06
9.59626e-06
4.18529e-06
9.60158e-06
6.08864e-07
6.17336e-07
6.00662e-07
6.52794e-07
6.42178e-07
6.68798e-07
6.61666e-07
2.18519e-06
3.47496e-06
8.76587e-07
1.11049e-06
2.14541e-06
3.50575e-06
8.91978e-07
1.91471e-05
1.93485e-05
2.25593e-06
8.79382e-07
3.53282e-06
1.14724e-06
2.1695e-06
9.05707e-07
3.65126e-06
5.40826e-06
5.42919e-06
1.32019e-06
5.50308e-06
5.54839e-06
4.13885e-06
9.46138e-06
4.13284e-06
9.49643e-06
1.91426e-05
1.94033e-05
4.24316e-06
9.54889e-06
4.25474e-06
9.54072e-06
6.58719e-07
6.81242e-07
6.84522e-07
6.81426e-07
7.18238e-07
6.89316e-07
7.21187e-07
2.3143e-06
3.55425e-06
9.4205e-07
1.1758e-06
2.257e-06
3.6225e-06
9.58424e-07
1.94808e-05
1.94207e-05
2.37317e-06
9.67503e-07
3.77167e-06
1.21935e-06
2.35676e-06
9.71783e-07
3.77485e-06
5.71361e-06
5.75578e-06
1.47102e-06
5.84168e-06
5.84078e-06
4.44647e-06
9.8014e-06
4.31946e-06
1.00047e-05
1.98976e-05
2.00638e-05
4.26547e-06
9.66325e-06
4.23348e-06
9.8165e-06
7.35395e-07
6.87832e-07
7.23623e-07
7.39504e-07
7.54605e-07
6.88288e-07
7.20803e-07
2.47294e-06
3.81432e-06
1.00164e-06
1.27755e-06
2.42598e-06
3.91482e-06
1.00899e-06
1.91618e-05
1.90797e-05
2.31368e-06
9.58298e-07
3.65922e-06
1.18772e-06
2.34253e-06
9.52642e-07
3.59165e-06
5.97308e-06
5.89026e-06
1.52024e-06
5.97251e-06
5.88004e-06
4.53678e-06
1.01422e-05
4.56491e-06
1.00536e-05
1.98765e-05
1.95061e-05
4.38102e-06
9.99388e-06
4.35316e-06
1.0004e-05
7.52706e-07
6.93608e-07
7.17473e-07
7.34216e-07
7.10724e-07
7.16081e-07
7.011e-07
2.42035e-06
3.96801e-06
1.00676e-06
1.27501e-06
2.48191e-06
3.87926e-06
9.93255e-07
1.91006e-05
1.9239e-05
2.29372e-06
9.50316e-07
3.55477e-06
1.1816e-06
2.29335e-06
9.55335e-07
3.57677e-06
5.83001e-06
5.82651e-06
1.48064e-06
5.71629e-06
5.76577e-06
4.20754e-06
9.69231e-06
4.31016e-06
9.54201e-06
1.90054e-05
1.89529e-05
4.33191e-06
9.79054e-06
4.36545e-06
9.64046e-06
6.94812e-07
7.23096e-07
6.94709e-07
6.81698e-07
6.69631e-07
7.30311e-07
6.8469e-07
2.23573e-06
3.65612e-06
9.40777e-07
1.17634e-06
2.28717e-06
3.57255e-06
9.28585e-07
1.95444e-05
1.9706e-05
2.33306e-06
9.72762e-07
3.6972e-06
1.23016e-06
2.31707e-06
9.7607e-07
3.7716e-06
5.57551e-06
5.63388e-06
1.39543e-06
5.53172e-06
5.56913e-06
4.19909e-06
9.4896e-06
4.16468e-06
9.53554e-06
1.9129e-05
1.92696e-05
4.31026e-06
9.54556e-06
4.31087e-06
9.55313e-06
6.69883e-07
7.28146e-07
6.84493e-07
6.74921e-07
6.90715e-07
7.07522e-07
6.94316e-07
2.25734e-06
3.55563e-06
9.26245e-07
1.17662e-06
2.22297e-06
3.60976e-06
9.37302e-07
1.97967e-05
1.97159e-05
2.37139e-06
9.75605e-07
3.86851e-06
1.24861e-06
2.361e-06
9.71859e-07
3.88551e-06
5.55466e-06
5.55253e-06
1.3884e-06
5.61123e-06
5.59524e-06
4.23596e-06
9.58257e-06
4.2402e-06
9.5816e-06
1.93184e-05
1.92457e-05
4.22026e-06
9.56832e-06
4.2766e-06
9.5529e-06
6.96102e-07
6.98721e-07
6.99837e-07
6.84047e-07
6.97472e-07
6.67576e-07
7.06898e-07
2.31451e-06
3.68044e-06
9.65219e-07
1.20441e-06
2.30752e-06
3.68419e-06
9.67149e-07
1.92774e-05
1.90028e-05
2.32588e-06
9.58254e-07
3.79702e-06
1.20858e-06
2.35919e-06
9.51122e-07
3.68259e-06
5.71126e-06
5.70133e-06
1.44148e-06
5.7504e-06
5.74357e-06
4.16971e-06
9.56354e-06
4.18374e-06
9.58085e-06
1.90763e-05
1.9062e-05
4.1223e-06
9.52697e-06
4.13904e-06
9.54456e-06
6.91633e-07
6.60563e-07
7.06162e-07
6.81583e-07
6.76049e-07
6.55106e-07
6.9041e-07
2.27538e-06
3.62704e-06
9.49524e-07
1.1665e-06
2.29367e-06
3.5909e-06
9.39809e-07
1.8789e-05
1.88283e-05
2.23676e-06
9.28374e-07
3.52419e-06
1.14116e-06
2.26354e-06
9.23472e-07
3.47739e-06
5.78459e-06
5.78453e-06
1.45715e-06
5.78801e-06
5.79409e-06
4.22958e-06
9.65371e-06
4.19442e-06
9.69249e-06
1.91715e-05
1.93e-05
4.1966e-06
9.61811e-06
4.15561e-06
9.66005e-06
6.74679e-07
6.57018e-07
6.83795e-07
6.87989e-07
6.80567e-07
6.80079e-07
6.68958e-07
2.26249e-06
3.57992e-06
9.21877e-07
1.15456e-06
2.26281e-06
3.59804e-06
9.20982e-07
1.90681e-05
1.92629e-05
2.22601e-06
9.18742e-07
3.49119e-06
1.13628e-06
2.22093e-06
9.19464e-07
3.53953e-06
5.74123e-06
5.74216e-06
1.41717e-06
5.67367e-06
5.66864e-06
4.27638e-06
9.70837e-06
4.26951e-06
9.694e-06
1.9424e-05
1.94567e-05
4.27853e-06
9.68969e-06
4.25707e-06
9.69095e-06
6.85854e-07
6.89943e-07
6.67809e-07
6.9115e-07
6.9741e-07
7.06738e-07
6.7243e-07
2.27556e-06
3.65628e-06
9.30191e-07
1.18677e-06
2.27028e-06
3.68089e-06
9.35031e-07
1.94873e-05
1.95648e-05
2.27543e-06
9.34949e-07
3.64585e-06
1.18882e-06
2.2557e-06
9.40976e-07
3.6941e-06
5.5826e-06
5.56754e-06
1.36938e-06
5.55444e-06
5.53984e-06
4.25478e-06
9.66072e-06
4.26599e-06
9.65693e-06
1.94304e-05
1.93959e-05
4.28262e-06
9.68232e-06
4.28971e-06
9.68275e-06
6.98558e-07
7.07574e-07
6.76309e-07
6.89735e-07
6.96085e-07
7.01621e-07
6.90282e-07
2.28239e-06
3.69741e-06
9.44338e-07
1.19618e-06
2.28167e-06
3.68777e-06
9.44735e-07
1.95556e-05
1.95045e-05
2.30328e-06
9.49925e-07
3.73701e-06
1.20506e-06
2.2985e-06
9.49995e-07
3.73391e-06
5.57107e-06
5.57051e-06
1.38008e-06
5.60928e-06
5.61642e-06
4.2444e-06
9.67247e-06
4.24513e-06
9.69445e-06
1.93321e-05
1.93229e-05
4.25924e-06
9.6937e-06
4.2672e-06
9.70671e-06
6.93797e-07
6.97947e-07
6.94298e-07
6.92085e-07
6.87287e-07
6.86292e-07
6.98157e-07
2.28727e-06
3.66078e-06
9.41068e-07
1.17901e-06
2.28476e-06
3.64737e-06
9.38336e-07
1.93818e-05
1.93414e-05
2.30127e-06
9.43575e-07
3.69839e-06
1.18653e-06
2.30386e-06
9.40009e-07
3.67144e-06
5.70484e-06
5.71493e-06
1.42867e-06
5.74373e-06
5.74992e-06
4.24983e-06
9.71275e-06
4.24853e-06
9.71355e-06
1.93145e-05
1.93235e-05
4.24608e-06
9.71142e-06
4.2526e-06
9.70666e-06
6.86293e-07
6.83581e-07
6.97909e-07
6.91661e-07
6.83214e-07
6.77106e-07
6.9078e-07
2.28883e-06
3.64435e-06
9.33763e-07
1.16998e-06
2.2909e-06
3.6421e-06
9.31679e-07
1.92782e-05
1.92618e-05
2.28188e-06
9.31883e-07
3.6453e-06
1.16713e-06
2.29408e-06
9.28518e-07
3.6266e-06
5.77588e-06
5.77503e-06
1.43978e-06
5.75993e-06
5.75667e-06
4.23268e-06
9.68586e-06
4.24411e-06
9.66669e-06
1.93103e-05
1.93117e-05
4.21221e-06
9.66883e-06
4.22452e-06
9.65305e-06
6.82319e-07
6.75933e-07
6.87493e-07
6.8079e-07
6.77372e-07
6.74421e-07
6.76593e-07
2.25848e-06
3.63917e-06
9.2511e-07
1.16193e-06
2.27437e-06
3.62613e-06
9.21385e-07
1.92328e-05
1.92521e-05
2.24235e-06
9.19707e-07
3.60477e-06
1.1525e-06
2.25754e-06
9.16805e-07
3.59292e-06
5.6996e-06
5.69707e-06
1.40217e-06
5.65213e-06
5.65178e-06
4.20795e-06
9.64213e-06
4.2119e-06
9.64754e-06
1.92885e-05
1.93168e-05
4.20559e-06
9.63863e-06
4.20181e-06
9.65027e-06
6.76265e-07
6.74751e-07
6.74865e-07
6.74822e-07
6.75431e-07
6.79302e-07
6.73984e-07
2.23644e-06
3.61447e-06
9.14384e-07
1.15277e-06
2.24134e-06
3.60566e-06
9.1333e-07
1.92885e-05
1.93524e-05
2.23485e-06
9.1403e-07
3.59856e-06
1.15092e-06
2.23307e-06
9.14151e-07
3.60432e-06
5.62306e-06
5.62647e-06
1.37868e-06
5.61903e-06
5.62276e-06
4.2256e-06
9.65934e-06
4.21306e-06
9.68528e-06
1.93423e-05
1.93992e-05
4.24209e-06
9.66947e-06
4.22603e-06
9.69589e-06
6.76254e-07
6.82584e-07
6.75146e-07
6.7118e-07
6.75165e-07
6.79615e-07
6.74939e-07
2.25431e-06
3.62484e-06
9.15183e-07
1.15746e-06
2.24555e-06
3.62296e-06
9.17571e-07
1.94085e-05
1.94567e-05
2.26758e-06
9.20848e-07
3.64738e-06
1.16611e-06
2.25714e-06
9.22965e-07
3.64924e-06
5.65239e-06
5.65565e-06
1.39052e-06
5.68008e-06
5.68234e-06
3.48083e-06
8.91649e-06
4.19663e-06
5.85927e-06
1.72154e-05
8.57815e-06
3.48414e-06
8.92326e-06
4.20745e-06
5.86066e-06
3.22788e-07
4.86353e-07
4.87117e-07
7.16375e-07
3.26821e-07
5.10993e-07
5.11287e-07
2.20014e-06
3.56109e-06
9.06175e-07
1.07027e-06
2.24637e-06
3.67646e-06
8.47871e-07
1.72385e-05
8.58326e-06
2.20289e-06
9.07461e-07
3.5794e-06
1.07057e-06
2.2546e-06
8.45992e-07
3.68717e-06
5.62946e-06
5.62904e-06
1.32714e-06
5.2774e-06
5.27512e-06
1.96758e-05
1.96545e-05
1.96682e-05
1.96514e-05
1.5285e-06
6.00147e-06
5.99241e-06
5.92889e-06
5.92838e-06
4.38886e-06
9.99556e-06
9.93546e-06
4.46114e-06
4.37603e-06
9.95029e-06
9.82547e-06
4.45192e-06
2.40467e-06
1.26393e-06
3.89729e-06
1.00321e-06
3.83869e-06
9.89729e-07
2.45622e-06
2.39365e-06
1.23589e-06
3.83244e-06
9.98286e-07
3.74635e-06
9.82044e-07
2.44859e-06
1.96507e-05
1.94941e-05
1.46953e-06
5.89743e-06
5.89102e-06
5.7759e-06
5.76648e-06
1.96611e-05
1.94891e-05
4.39705e-06
9.96575e-06
9.92961e-06
4.4464e-06
2.41107e-06
1.26494e-06
3.89178e-06
1.00265e-06
3.84173e-06
9.91512e-07
2.44653e-06
4.38044e-06
9.85935e-06
9.80053e-06
4.42629e-06
2.39975e-06
1.23852e-06
9.96868e-07
3.79862e-06
9.8419e-07
3.75099e-06
2.43481e-06
2.37619e-06
1.23418e-06
3.82614e-06
9.94774e-07
3.73863e-06
9.77721e-07
2.42931e-06
4.34845e-06
9.93123e-06
9.80554e-06
4.42157e-06
2.3799e-06
1.24164e-06
9.93733e-07
3.82097e-06
9.79246e-07
3.77149e-06
2.42861e-06
4.35355e-06
9.88961e-06
9.82279e-06
4.41934e-06
1.94753e-05
1.94098e-05
1.47573e-06
5.83648e-06
5.8277e-06
5.77586e-06
5.76697e-06
1.94881e-05
1.94075e-05
2.38442e-06
1.23661e-06
9.92953e-07
3.79026e-06
9.79768e-07
3.74406e-06
2.41581e-06
2.38904e-06
1.24367e-06
9.93383e-07
3.81871e-06
9.81606e-07
3.77947e-06
2.41982e-06
4.35661e-06
9.83919e-06
9.78179e-06
4.39663e-06
4.36582e-06
9.86563e-06
9.82729e-06
4.40569e-06
1.49239e-06
5.87863e-06
5.87612e-06
5.82417e-06
5.8302e-06
1.95192e-05
1.94768e-05
1.95196e-05
1.94854e-05
1.9651e-05
1.94918e-05
1.96426e-05
1.94941e-05
6.01344e-06
6.00119e-06
1.56605e-06
6.00022e-06
5.98241e-06
1.91146e-05
1.93996e-05
1.91467e-05
1.94068e-05
1.56502e-06
5.824e-06
5.8173e-06
5.97053e-06
5.95261e-06
4.51684e-06
9.98139e-06
4.47425e-06
1.00311e-05
2.49221e-06
3.91016e-06
1.01171e-06
1.28941e-06
2.47019e-06
3.91667e-06
1.01506e-06
2.49313e-06
3.86268e-06
1.01035e-06
1.29241e-06
2.46449e-06
3.92521e-06
1.017e-06
4.51752e-06
9.73361e-06
9.91145e-06
4.47744e-06
4.52168e-06
9.9502e-06
1.00313e-05
4.49634e-06
2.49339e-06
1.28766e-06
3.82492e-06
1.01057e-06
3.90833e-06
1.01492e-06
2.46697e-06
2.49624e-06
1.2982e-06
3.94439e-06
1.01706e-06
3.9395e-06
1.01864e-06
2.48002e-06
5.93899e-06
5.93207e-06
1.56655e-06
6.02842e-06
6.02632e-06
1.96976e-05
1.97532e-05
1.95638e-05
1.97107e-05
1.57934e-06
6.05073e-06
6.05678e-06
6.04719e-06
6.04618e-06
1.96116e-05
1.97462e-05
2.46085e-06
3.90101e-06
1.00858e-06
1.2867e-06
2.45418e-06
3.89961e-06
1.0102e-06
4.44774e-06
9.86904e-06
4.43723e-06
9.87452e-06
2.45183e-06
1.00486e-06
3.8137e-06
1.27416e-06
2.44288e-06
1.00851e-06
3.83598e-06
4.46239e-06
9.6975e-06
9.85512e-06
4.40884e-06
2.45889e-06
1.28416e-06
3.80323e-06
1.00376e-06
3.88688e-06
1.00935e-06
2.42542e-06
4.44584e-06
9.80756e-06
9.86393e-06
4.405e-06
2.45125e-06
1.27727e-06
1.00726e-06
3.83396e-06
1.00901e-06
3.83991e-06
2.42628e-06
4.49668e-06
9.96478e-06
4.44476e-06
1.00276e-05
2.47434e-06
1.00499e-06
3.8359e-06
1.27595e-06
2.44357e-06
1.01208e-06
3.85936e-06
4.48272e-06
9.90242e-06
4.43951e-06
9.91351e-06
2.48849e-06
1.29967e-06
3.9499e-06
1.02095e-06
3.9387e-06
1.02107e-06
2.48987e-06
4.50723e-06
9.98082e-06
1.00315e-05
4.5105e-06
2.47972e-06
1.27903e-06
1.01472e-06
3.85018e-06
1.01487e-06
3.86252e-06
2.47851e-06
4.49082e-06
9.83338e-06
9.9053e-06
4.4894e-06
5.85404e-06
5.84651e-06
1.52994e-06
5.88298e-06
5.88065e-06
1.94991e-05
1.95126e-05
1.93942e-05
1.94604e-05
1.53688e-06
5.88572e-06
5.89245e-06
5.88798e-06
5.88833e-06
1.94439e-05
1.95026e-05
2.43865e-06
1.00135e-06
3.82875e-06
1.27228e-06
2.42737e-06
1.00571e-06
3.84121e-06
4.42195e-06
9.85031e-06
4.40674e-06
9.86449e-06
4.42793e-06
9.86963e-06
4.41508e-06
9.86165e-06
2.43765e-06
1.2774e-06
1.00911e-06
3.83785e-06
1.0093e-06
3.8364e-06
2.43087e-06
2.43951e-06
1.27421e-06
1.00666e-06
3.82507e-06
1.00709e-06
3.84168e-06
2.4305e-06
4.42335e-06
9.83011e-06
9.86254e-06
4.41317e-06
4.4284e-06
9.79079e-06
9.84493e-06
4.41305e-06
1.95188e-05
1.94818e-05
1.95183e-05
1.94849e-05
1.53849e-06
5.87318e-06
5.85983e-06
5.90788e-06
5.8921e-06
1.93321e-05
1.94436e-05
1.93638e-05
1.94527e-05
1.90108e-05
1.87781e-05
1.90504e-05
1.88305e-05
5.76855e-06
5.7666e-06
1.44288e-06
5.59265e-06
5.60736e-06
1.8637e-05
1.87174e-05
1.86735e-05
1.87682e-05
1.42664e-06
5.41971e-06
5.44438e-06
5.54137e-06
5.56028e-06
4.33951e-06
9.89219e-06
4.46709e-06
9.66829e-06
2.36065e-06
3.78921e-06
9.95943e-07
1.22559e-06
2.44712e-06
3.65757e-06
9.75291e-07
2.38014e-06
3.93193e-06
1.00808e-06
1.2715e-06
2.46207e-06
3.82493e-06
9.875e-07
4.26552e-06
9.26309e-06
9.38794e-06
4.12933e-06
4.29127e-06
9.36372e-06
9.58337e-06
4.14931e-06
2.32766e-06
1.19454e-06
3.50459e-06
9.27874e-07
3.61656e-06
9.52286e-07
2.23104e-06
2.34723e-06
1.23931e-06
3.62622e-06
9.37367e-07
3.77917e-06
9.63707e-07
2.24754e-06
6.02725e-06
6.04e-06
1.5397e-06
5.8655e-06
5.89369e-06
1.95216e-05
1.92043e-05
1.87547e-05
1.90335e-05
1.52649e-06
5.59793e-06
5.61246e-06
5.7997e-06
5.82935e-06
1.87563e-05
1.90751e-05
2.34647e-06
3.77105e-06
9.90158e-07
1.22317e-06
2.40893e-06
3.65544e-06
9.73931e-07
4.31197e-06
9.7782e-06
4.38591e-06
9.67138e-06
2.35907e-06
9.99696e-07
3.82811e-06
1.26265e-06
2.41301e-06
9.86092e-07
3.78105e-06
4.26264e-06
9.31077e-06
9.41773e-06
4.16382e-06
2.32346e-06
1.19451e-06
3.52274e-06
9.35085e-07
3.62052e-06
9.5527e-07
2.25213e-06
4.28444e-06
9.46704e-06
9.62254e-06
4.1916e-06
2.3382e-06
1.24258e-06
9.49795e-07
3.66608e-06
9.6967e-07
3.76055e-06
2.26896e-06
4.40933e-06
9.93319e-06
4.49809e-06
9.7372e-06
2.41454e-06
1.01085e-06
3.84092e-06
1.26297e-06
2.46892e-06
9.97731e-07
3.78391e-06
4.39396e-06
9.79563e-06
4.47523e-06
9.67163e-06
2.39638e-06
1.24644e-06
3.65121e-06
9.51267e-07
3.80804e-06
9.77418e-07
2.30083e-06
4.36992e-06
9.41573e-06
9.65368e-06
4.23223e-06
2.38923e-06
1.24301e-06
9.55277e-07
3.6688e-06
9.78291e-07
3.76261e-06
2.30037e-06
4.35872e-06
9.46066e-06
9.62041e-06
4.23407e-06
5.87997e-06
5.88905e-06
1.51624e-06
5.82907e-06
5.84497e-06
1.93995e-05
1.92567e-05
1.89209e-05
1.91348e-05
1.51043e-06
5.67551e-06
5.69877e-06
5.80055e-06
5.82048e-06
1.89515e-05
1.91796e-05
2.39289e-06
1.00313e-06
3.81801e-06
1.25873e-06
2.42419e-06
9.93404e-07
3.77672e-06
4.36928e-06
9.8087e-06
4.40572e-06
9.72724e-06
4.36343e-06
9.76333e-06
4.40371e-06
9.68125e-06
2.38106e-06
1.24884e-06
9.63535e-07
3.6925e-06
9.82162e-07
3.78186e-06
2.32133e-06
2.37868e-06
1.24219e-06
9.62014e-07
3.68655e-06
9.79846e-07
3.76214e-06
2.31992e-06
4.35208e-06
9.53525e-06
9.68505e-06
4.27353e-06
4.34551e-06
9.51859e-06
9.644e-06
4.26726e-06
1.92742e-05
1.91331e-05
1.93137e-05
1.91923e-05
1.49975e-06
5.66097e-06
5.69072e-06
5.77178e-06
5.78538e-06
1.88867e-05
1.90671e-05
1.89492e-05
1.91292e-05
1.8633e-05
1.8705e-05
1.86636e-05
1.87115e-05
5.39615e-06
5.42109e-06
1.31146e-06
5.37209e-06
5.39225e-06
1.89099e-05
1.87398e-05
1.89028e-05
1.87418e-05
1.31001e-06
5.45812e-06
5.4631e-06
5.37851e-06
5.3954e-06
4.02556e-06
9.30575e-06
4.10922e-06
9.20174e-06
2.14441e-06
3.47976e-06
9.05771e-07
1.12361e-06
2.20338e-06
3.43669e-06
8.89687e-07
2.1503e-06
3.57999e-06
9.11023e-07
1.13356e-06
2.21771e-06
3.46483e-06
8.89496e-07
4.01035e-06
9.3453e-06
9.24742e-06
4.01148e-06
4.01122e-06
9.20419e-06
9.18911e-06
4.00283e-06
2.13393e-06
1.11519e-06
3.46282e-06
8.7724e-07
3.43519e-06
8.80515e-07
2.1259e-06
2.13667e-06
1.1096e-06
3.40088e-06
8.69045e-07
3.4395e-06
8.75575e-07
2.12143e-06
5.53877e-06
5.54531e-06
1.33393e-06
5.39934e-06
5.38038e-06
1.86667e-05
1.85231e-05
1.86124e-05
1.85599e-05
1.31833e-06
5.33675e-06
5.30139e-06
5.37099e-06
5.3464e-06
1.85513e-05
1.85067e-05
2.17499e-06
3.5005e-06
9.16166e-07
1.12865e-06
2.22991e-06
3.45747e-06
9.00874e-07
4.0848e-06
9.41369e-06
4.16193e-06
9.28778e-06
2.18435e-06
9.27729e-07
3.63162e-06
1.15336e-06
2.2458e-06
9.06722e-07
3.52505e-06
4.05096e-06
9.36218e-06
9.28249e-06
4.03599e-06
2.16247e-06
1.11982e-06
3.47132e-06
8.84244e-07
3.45463e-06
8.90192e-07
2.14445e-06
4.06666e-06
9.23188e-06
9.26012e-06
4.03942e-06
2.16881e-06
1.12504e-06
8.78082e-07
3.43506e-06
8.89684e-07
3.49622e-06
2.14192e-06
4.05637e-06
9.34447e-06
4.18477e-06
9.19685e-06
2.17858e-06
9.2878e-07
3.63482e-06
1.15271e-06
2.26855e-06
9.01653e-07
3.52091e-06
4.06893e-06
9.40389e-06
4.19037e-06
9.26104e-06
2.14796e-06
1.1083e-06
3.37592e-06
8.58375e-07
3.4334e-06
8.7286e-07
2.09593e-06
4.02347e-06
9.15337e-06
9.17014e-06
3.96401e-06
2.15313e-06
1.12161e-06
8.61321e-07
3.41122e-06
8.78305e-07
3.48817e-06
2.10001e-06
4.03657e-06
9.17455e-06
9.22547e-06
3.97488e-06
5.62866e-06
5.65046e-06
1.36661e-06
5.49042e-06
5.49386e-06
1.88641e-05
1.86711e-05
1.86294e-05
1.86457e-05
1.35104e-06
5.3749e-06
5.34591e-06
5.45248e-06
5.44895e-06
1.85836e-05
1.86244e-05
2.21362e-06
9.39332e-07
3.65714e-06
1.15862e-06
2.29538e-06
9.13459e-07
3.54721e-06
4.12686e-06
9.47617e-06
4.23991e-06
9.31526e-06
4.12399e-06
9.46806e-06
4.23439e-06
9.32342e-06
2.186e-06
1.12555e-06
8.68348e-07
3.41767e-06
8.88215e-07
3.50311e-06
2.12001e-06
2.18664e-06
1.12711e-06
8.68106e-07
3.42247e-06
8.88419e-07
3.51275e-06
2.12008e-06
4.0907e-06
9.19662e-06
9.27114e-06
4.00499e-06
4.08854e-06
9.19598e-06
9.28006e-06
4.00358e-06
1.88153e-05
1.86569e-05
1.88738e-05
1.86947e-05
1.35377e-06
5.35863e-06
5.36302e-06
5.44307e-06
5.46929e-06
1.85772e-05
1.8616e-05
1.85744e-05
1.8643e-05
1.8958e-05
1.90918e-05
1.89504e-05
1.90903e-05
5.49218e-06
5.49737e-06
1.34175e-06
5.58431e-06
5.58758e-06
1.9141e-05
1.91142e-05
1.9157e-05
1.91162e-05
1.35805e-06
5.64852e-06
5.65923e-06
5.60937e-06
5.61413e-06
4.06791e-06
9.2306e-06
4.01169e-06
9.32794e-06
2.16575e-06
3.48505e-06
8.77349e-07
1.12065e-06
2.13038e-06
3.54835e-06
8.80789e-07
2.15107e-06
3.39992e-06
8.67832e-07
1.08713e-06
2.12274e-06
3.42613e-06
8.69561e-07
4.10593e-06
9.56189e-06
9.51933e-06
4.14898e-06
4.08634e-06
9.42853e-06
9.3582e-06
4.12905e-06
2.17908e-06
1.13231e-06
3.60181e-06
8.98515e-07
3.56769e-06
8.8984e-07
2.20871e-06
2.16376e-06
1.08928e-06
3.48206e-06
8.87385e-07
3.44434e-06
8.77323e-07
2.19323e-06
5.33909e-06
5.30252e-06
1.26279e-06
5.391e-06
5.35958e-06
1.85818e-05
1.87428e-05
1.88949e-05
1.88022e-05
1.26909e-06
5.45972e-06
5.45298e-06
5.41378e-06
5.38735e-06
1.89142e-05
1.8782e-05
2.16433e-06
3.49088e-06
8.82324e-07
1.1214e-06
2.1444e-06
3.54925e-06
8.82688e-07
4.0673e-06
9.23594e-06
4.03883e-06
9.32033e-06
2.15154e-06
8.72303e-07
3.42596e-06
1.08844e-06
2.1398e-06
8.7114e-07
3.4253e-06
4.10329e-06
9.58667e-06
9.52616e-06
4.16586e-06
2.17743e-06
1.1319e-06
3.61113e-06
8.95721e-07
3.56934e-06
8.86266e-07
2.21994e-06
4.08641e-06
9.50223e-06
9.3588e-06
4.14961e-06
2.16382e-06
1.0894e-06
8.81057e-07
3.51623e-06
8.72764e-07
3.44072e-06
2.20922e-06
3.96806e-06
9.16539e-06
3.95726e-06
9.25673e-06
2.08517e-06
8.51569e-07
3.39685e-06
1.07162e-06
2.09083e-06
8.48299e-07
3.38042e-06
3.97006e-06
9.17318e-06
3.96647e-06
9.2209e-06
2.09231e-06
1.07819e-06
3.45797e-06
8.61489e-07
3.40726e-06
8.52016e-07
2.13034e-06
3.98499e-06
9.38236e-06
9.28814e-06
4.04392e-06
2.09106e-06
1.07008e-06
8.5472e-07
3.41991e-06
8.48848e-07
3.38257e-06
2.12738e-06
3.98429e-06
9.34873e-06
9.24638e-06
4.03915e-06
5.3639e-06
5.3285e-06
1.26926e-06
5.36926e-06
5.32546e-06
1.8593e-05
1.87505e-05
1.90809e-05
1.88502e-05
1.2717e-06
5.50098e-06
5.49502e-06
5.39328e-06
5.35102e-06
1.91074e-05
1.88186e-05
2.08709e-06
8.54957e-07
3.40285e-06
1.07296e-06
2.10517e-06
8.49495e-07
3.37548e-06
3.97037e-06
9.19096e-06
3.98723e-06
9.23924e-06
3.96761e-06
9.18473e-06
3.98568e-06
9.20038e-06
2.09172e-06
1.08014e-06
8.5864e-07
3.48968e-06
8.52156e-07
3.398e-06
2.1419e-06
2.08841e-06
1.07113e-06
8.54134e-07
3.42294e-06
8.4934e-07
3.37624e-06
2.13334e-06
3.97604e-06
9.4643e-06
9.28187e-06
4.05883e-06
3.97217e-06
9.37378e-06
9.23184e-06
4.04993e-06
1.85808e-05
1.86747e-05
1.8572e-05
1.86592e-05
1.25637e-06
5.38261e-06
5.39078e-06
5.33485e-06
5.31833e-06
1.888e-05
1.87064e-05
1.89182e-05
1.87006e-05
1.91327e-05
1.9068e-05
1.91543e-05
1.91036e-05
5.65051e-06
5.66389e-06
1.38719e-06
5.61558e-06
5.64236e-06
1.90056e-05
1.90378e-05
1.90208e-05
1.90716e-05
1.38792e-06
5.52363e-06
5.55384e-06
5.59134e-06
5.62195e-06
4.14594e-06
9.44124e-06
4.13768e-06
9.46176e-06
2.22036e-06
3.60635e-06
9.05899e-07
1.15087e-06
2.21484e-06
3.59853e-06
9.10909e-07
2.20751e-06
3.49269e-06
8.95939e-07
1.11495e-06
2.19982e-06
3.50474e-06
9.02578e-07
4.16156e-06
9.46615e-06
9.51312e-06
4.13783e-06
4.14519e-06
9.48533e-06
9.46404e-06
4.12969e-06
2.22006e-06
1.15082e-06
3.54772e-06
9.14995e-07
3.58767e-06
9.13399e-07
2.21156e-06
2.20785e-06
1.12115e-06
3.51063e-06
9.10317e-07
3.50699e-06
9.06827e-07
2.2054e-06
5.47116e-06
5.47017e-06
1.32157e-06
5.47983e-06
5.49641e-06
1.89359e-05
1.90218e-05
1.90967e-05
1.89853e-05
1.33147e-06
5.47547e-06
5.51305e-06
5.47999e-06
5.50143e-06
1.91498e-05
1.90386e-05
2.26761e-06
3.61967e-06
9.06212e-07
1.15572e-06
2.23423e-06
3.62402e-06
9.16345e-07
4.22886e-06
9.55027e-06
4.17141e-06
9.68491e-06
2.2692e-06
8.96934e-07
3.54914e-06
1.14973e-06
2.22597e-06
9.13329e-07
3.63903e-06
4.24133e-06
9.5591e-06
9.59456e-06
4.25457e-06
2.27585e-06
1.15747e-06
3.58862e-06
9.29943e-07
3.61995e-06
9.24632e-07
2.28846e-06
4.24428e-06
9.78226e-06
9.71935e-06
4.27233e-06
2.28124e-06
1.17637e-06
9.40817e-07
3.72798e-06
9.2897e-07
3.66857e-06
2.30385e-06
4.11291e-06
9.40524e-06
4.06228e-06
9.46948e-06
2.18662e-06
8.70799e-07
3.44224e-06
1.11031e-06
2.14293e-06
8.89707e-07
3.51191e-06
4.11324e-06
9.38572e-06
4.05753e-06