/*--------------------------------*- C++ -*----------------------------------*\
| =========                 |                                                 |
| \\      /  F ield         | OpenFOAM: The Open Source CFD Toolbox           |
|  \\    /   O peration     | Version:  v2006                                 |
|   \\  /    A nd           | Website:  www.openfoam.com                      |
|    \\/     M anipulation  |                                                 |
\*---------------------------------------------------------------------------*/
FoamFile
{
    version     2.0;
    format      ascii;
    class       volScalarField;
    location    "750";
    object      p;
}
// * * * * * * * * * * * * * * * * * * * * * * * * * * * * * * * * * * * * * //

dimensions      [0 2 -2 0 0 0 0];


internalField   nonuniform List<scalar> 
42616
(
0.000717789
0.000717425
0.000716974
0.000718689
0.00068065
0.000680482
0.000680726
0.000682733
0.000640344
0.000640132
0.000640395
0.000642931
0.000602967
0.000603745
0.000602621
0.00060519
0.00056762
0.000568324
0.000569435
0.000571077
0.000535115
0.000535017
0.000535231
0.000537288
0.000505018
0.000504174
0.000502624
0.000504579
0.000470161
0.000468558
0.000470015
0.000471037
0.000430735
0.000430684
0.000432154
0.000434008
0.000393061
0.000395008
0.000392612
0.000395936
0.000356427
0.000356306
0.000355456
0.000358115
0.000318647
0.000317702
0.000319485
0.000320728
0.000283325
0.000283091
0.000283848
0.000285328
0.000248688
0.000249055
0.000248513
0.000250671
0.000213469
0.000213715
0.00021322
0.000215804
0.000178254
0.000177998
0.000177934
0.000180015
0.000142134
0.000141896
0.000142013
0.000143824
0.000105126
0.000105081
0.000105193
0.000107063
6.84118e-05
6.85844e-05
6.86894e-05
7.07792e-05
3.36354e-05
3.3192e-05
3.31391e-05
3.50348e-05
6.09679e-06
6.92086e-06
6.67373e-06
5.01554e-06
0.000723267
0.000725605
0.00072595
0.000723661
0.000725514
0.000725612
0.000725981
0.000725657
0.000723292
0.000725651
0.000725561
0.000723324
0.000718578
0.00068724
0.00071697
0.000717382
0.000689796
0.000690011
0.000718998
0.000687709
0.000716847
0.000716929
0.000689776
0.000690016
0.000717133
0.000690112
0.000690294
0.000718595
0.000687725
0.000717002
0.000690117
0.000690282
0.000687888
0.000681921
0.000649028
0.0006801
0.00068036
0.000650763
0.000650078
0.000682476
0.00064796
0.000680148
0.0006806
0.000650978
0.000650728
0.000680822
0.000649989
0.000650609
0.000682607
0.000648457
0.00068089
0.000650691
0.00065083
0.000648429
0.000643828
0.000611233
0.000641316
0.000640403
0.000613128
0.000613048
0.000642781
0.000611225
0.000641402
0.000640614
0.000612815
0.000611944
0.000640358
0.000612667
0.000611701
0.000643002
0.00061016
0.000640489
0.000611534
0.000611336
0.000610038
0.000606193
0.0005745
0.000603808
0.000603953
0.000576369
0.000576707
0.000606257
0.000575071
0.000603492
0.000602895
0.000576422
0.000577075
0.000602774
0.000577047
0.000577176
0.000605248
0.000575552
0.000602383
0.000577388
0.000577262
0.000575517
0.000569663
0.000540404
0.000567383
0.000567766
0.000542355
0.000542699
0.000570287
0.00054077
0.000567578
0.000568894
0.000542585
0.000543615
0.000568932
0.000542921
0.000544321
0.000571204
0.000541518
0.000569224
0.000544009
0.000544561
0.00054197
0.000536177
0.000510406
0.000534726
0.000535065
0.000512523
0.000512755
0.000536605
0.000510359
0.000534744
0.000535117
0.000512207
0.000511092
0.000535812
0.000512208
0.000511082
0.000536896
0.000508735
0.000535831
0.000510597
0.000510713
0.000508893
0.000506234
0.00047657
0.000504855
0.000504734
0.00047875
0.000478049
0.000505952
0.000475723
0.000504436
0.000503145
0.000479049
0.000478745
0.000502996
0.000477874
0.000477812
0.000504362
0.000476475
0.00050267
0.00047857
0.000478162
0.000475898
0.000471482
0.000437893
0.000469198
0.000468572
0.000439978
0.000439348
0.000470659
0.000437463
0.000469715
0.000469917
0.000440478
0.000441635
0.000468944
0.000439837
0.000441105
0.000471717
0.000439711
0.000469561
0.00044208
0.000441618
0.000439177
0.000432541
0.000401164
0.000430146
0.00043014
0.000403322
0.000404184
0.00043257
0.000402345
0.000430554
0.000431698
0.000402435
0.000402168
0.000431738
0.00040423
0.000403443
0.0004343
0.000400234
0.00043191
0.000402238
0.0004027
0.000401077
0.000396265
0.00036408
0.000394593
0.000395165
0.000366528
0.000366637
0.00039731
0.000364153
0.000393575
0.000392709
0.000366027
0.00036505
0.000394029
0.000366316
0.000365704
0.000395131
0.000362774
0.000393143
0.000364706
0.000365227
0.000363275
0.000358852
0.000325697
0.000356729
0.000356567
0.000327469
0.000327069
0.000358711
0.000324812
0.000356538
0.000355772
0.000327979
0.000328399
0.000356044
0.000327015
0.000327385
0.000357639
0.000326346
0.000355854
0.000328378
0.00032797
0.000325685
0.000320713
0.000290188
0.000318144
0.000317697
0.000291841
0.000291557
0.000319749
0.000289715
0.000318801
0.000319453
0.00029222
0.000292763
0.000318227
0.000291533
0.000291657
0.000321425
0.000290743
0.000318885
0.000292762
0.000292066
0.000290036
0.000285523
0.000255163
0.000283286
0.000283107
0.000257379
0.000257603
0.000285104
0.00025573
0.000283512
0.000283866
0.000257194
0.000257325
0.000283033
0.000257658
0.000257499
0.000285936
0.000255326
0.000283176
0.00025742
0.000257324
0.000255391
0.000250352
0.000219945
0.000248583
0.000248923
0.000222143
0.000222395
0.000250997
0.000220406
0.000248333
0.000248318
0.000221964
0.000221807
0.000248935
0.000222601
0.000222849
0.000250485
0.000219881
0.000248719
0.000222003
0.000222646
0.000220601
0.000215203
0.000185041
0.000213376
0.000213566
0.000187081
0.000187012
0.000215597
0.000184854
0.00021325
0.000213099
0.000187046
0.000186871
0.000213987
0.000186955
0.000187017
0.000215135
0.00018472
0.000213818
0.000186825
0.000186975
0.000184903
0.000180235
0.000149212
0.000178239
0.000178112
0.00015126
0.000151157
0.000179996
0.000148998
0.000178231
0.000178031
0.000151296
0.000151259
0.000177939
0.000150992
0.000150781
0.000179876
0.000149106
0.00017794
0.000151102
0.000150823
0.000148773
0.000144214
0.000112249
0.000142102
0.000142025
0.000114337
0.000114336
0.000144024
0.000112244
0.000142148
0.000142151
0.000114376
0.000114427
0.00014169
0.000114303
0.000114194
0.000144127
0.000112342
0.000141732
0.000114408
0.000114235
0.000112097
0.000107162
7.55171e-05
0.000105057
0.000105078
7.74743e-05
7.75209e-05
0.000107196
7.55672e-05
0.000105088
0.000105176
7.75176e-05
7.76581e-05
0.000104999
7.7601e-05
7.77455e-05
0.000107295
7.56942e-05
0.000105053
7.77393e-05
7.77839e-05
7.57622e-05
7.05502e-05
3.97809e-05
6.84755e-05
6.84998e-05
4.17913e-05
4.18052e-05
7.05989e-05
3.98364e-05
6.85075e-05
6.8601e-05
4.17569e-05
4.17754e-05
6.87421e-05
4.18451e-05
4.18878e-05
7.0713e-05
3.98116e-05
6.87655e-05
4.1819e-05
4.1862e-05
3.9885e-05
3.49321e-05
8.27865e-06
3.31427e-05
3.3166e-05
1.13056e-05
1.13625e-05
3.49899e-05
8.33373e-06
3.31052e-05
3.31111e-05
1.12317e-05
1.10501e-05
3.32231e-05
1.13473e-05
1.12468e-05
3.49303e-05
8.04274e-06
3.31894e-05
1.10328e-05
1.11703e-05
8.16495e-06
5.1463e-06
6.95922e-06
7.01402e-06
5.16929e-06
6.87411e-06
6.76118e-06
6.166e-06
5.87441e-06
6.02258e-06
6.84482e-06
4.95408e-06
6.76317e-06
0.000726565
0.000726974
0.000726639
0.00072653
0.000705232
0.000718012
0.000718262
0.000705109
0.000718138
0.000704932
0.000705246
0.000718034
0.000718158
0.000705177
0.000718412
0.000717905
0.000717954
0.000690237
0.000690652
0.000690606
0.000690785
0.000705737
0.000718491
0.000717701
0.000708603
0.00071873
0.000705325
0.000708936
0.00071819
0.000705195
0.00070564
0.000717262
0.000718366
0.000708194
0.000718505
0.000708496
0.000705421
0.000718405
0.00071835
0.000706015
0.000705492
0.000705485
0.000668566
0.000682762
0.000682382
0.000669079
0.000682036
0.000668176
0.000668798
0.000682961
0.000682765
0.000669102
0.00068089
0.000681105
0.000681258
0.00065029
0.000650363
0.000650957
0.000651027
0.000668059
0.000682217
0.000680791
0.000670577
0.000682595
0.000667859
0.000670866
0.000682519
0.000668257
0.000668544
0.000680962
0.000682664
0.000671027
0.000682828
0.000671242
0.000668308
0.000682823
0.000682916
0.000668578
0.000668436
0.000668521
0.000630905
0.000645568
0.000645227
0.000630899
0.000645187
0.000631209
0.000630218
0.000645155
0.00064477
0.000630416
0.000639754
0.000640367
0.000640345
0.00061212
0.000611228
0.00061053
0.000610286
0.000629743
0.000644323
0.000639913
0.000630759
0.000643672
0.000630597
0.00063006
0.000644282
0.0006301
0.000628997
0.000640452
0.000643639
0.00063038
0.000643461
0.000630099
0.000629481
0.000643848
0.000643787
0.000628734
0.00062966
0.000629473
0.000592221
0.000606217
0.000606596
0.000591823
0.000607055
0.000592666
0.000592208
0.000605978
0.000606099
0.000591834
0.000602404
0.000601654
0.000601347
0.000576129
0.000576268
0.000576698
0.000576525
0.000592869
0.000607003
0.000602986
0.000594793
0.000606456
0.00059303
0.00059429
0.000606549
0.000592811
0.000592571
0.000602034
0.000606288
0.000594018
0.000605697
0.00059353
0.000592907
0.000606586
0.000606436
0.000592402
0.000593019
0.000592991
0.000556503
0.000569149
0.000569247
0.000556631
0.000569694
0.000556876
0.000557065
0.000569496
0.000569857
0.000556901
0.000567665
0.000568566
0.000568456
0.000542817
0.000543443
0.000544563
0.000545243
0.000557619
0.000570124
0.000568426
0.000559691
0.000570512
0.000557226
0.000559984
0.000570498
0.000557398
0.000558623
0.000569196
0.000571207
0.000561348
0.000571505
0.000561314
0.000558082
0.00057115
0.000571338
0.000559171
0.000558196
0.000558324
0.000525955
0.000537376
0.000537033
0.000526133
0.000537251
0.000525681
0.000525238
0.00053713
0.00053677
0.00052576
0.000535832
0.000536094
0.000537187
0.000512693
0.000513309
0.000511242
0.000511822
0.000525131
0.000536911
0.000535507
0.000527379
0.000536893
0.000525227
0.000527627
0.000536329
0.000524596
0.000524431
0.000535887
0.000536353
0.00052667
0.000536776
0.00052703
0.00052427
0.00053665
0.000536613
0.000525101
0.000524238
0.000524174
0.000492831
0.000505943
0.00050594
0.00049267
0.000504845
0.000491972
0.000493843
0.000506495
0.000506047
0.000493668
0.000505333
0.000503272
0.000503479
0.000479693
0.000478581
0.000478733
0.000478112
0.000492699
0.000504923
0.000504155
0.000495756
0.000505041
0.000492322
0.000495786
0.000505767
0.000493974
0.000493105
0.000502604
0.000505056
0.0004947
0.000504557
0.000494648
0.000493621
0.000504358
0.000504429
0.000492726
0.000492462
0.000492628
0.000456256
0.000469967
0.000470108
0.000456297
0.000469862
0.000456603
0.000457287
0.000470799
0.000471428
0.000456662
0.000469004
0.000470102
0.000469196
0.000440569
0.000439953
0.000441972
0.000441028
0.000457028
0.000470309
0.000468776
0.000459107
0.000470711
0.000456761
0.000459362
0.000472328
0.000458221
0.000458631
0.000469876
0.000472478
0.000461037
0.000472142
0.000460958
0.000458731
0.000471475
0.000471732
0.000457899
0.000458163
0.000458279
0.000420966
0.000434105
0.000434092
0.000420839
0.000435091
0.000421634
0.000419034
0.000433032
0.000433169
0.00041937
0.000430168
0.000432266
0.000431346
0.000401989
0.000403135
0.000402582
0.000402799
0.000420887
0.000434896
0.000430639
0.000421927
0.000434459
0.000421397
0.00042159
0.000433161
0.000418295
0.000419386
0.000432375
0.000433808
0.000422073
0.000434173
0.000422423
0.000418743
0.000434943
0.000434707
0.000420203
0.000420522
0.000420175
0.000383177
0.000397604
0.000397733
0.00038307
0.000397677
0.000382771
0.000381931
0.000396464
0.000395818
0.000382492
0.000394232
0.000392872
0.000393412
0.00036586
0.000366261
0.000364744
0.000365474
0.000382817
0.000397412
0.000394701
0.0003856
0.000397055
0.000382767
0.000385373
0.000394489
0.000380856
0.000381022
0.000392863
0.000394439
0.000383173
0.000394963
0.00038333
0.00038061
0.000396254
0.000395949
0.000382197
0.000381821
0.000381581
0.00034379
0.000358444
0.000358354
0.00034394
0.000357957
0.000343519
0.000344859
0.000358822
0.000358613
0.000344757
0.00035664
0.000355523
0.000356217
0.000327884
0.00032748
0.000327636
0.000327957
0.00034362
0.000357844
0.000356505
0.000346328
0.000358016
0.000343458
0.000346549
0.000358595
0.000345616
0.00034444
0.000355394
0.000357945
0.000346232
0.000357866
0.000346116
0.000344978
0.00035777
0.000357767
0.000344286
0.000343593
0.000343759
0.000307319
0.000320704
0.00032062
0.000307337
0.000320669
0.000307442
0.000308361
0.000321619
0.00032198
0.000308005
0.000318105
0.000318727
0.000318667
0.000291988
0.000291428
0.000292477
0.000291778
0.000307076
0.000320327
0.000317823
0.000308714
0.000320188
0.000307259
0.000308736
0.00032312
0.000309213
0.000308498
0.000319076
0.000322708
0.000310585
0.000321871
0.000310209
0.000309141
0.000320655
0.000320922
0.000307643
0.000307306
0.000307557
0.000272492
0.000285464
0.000285556
0.000272435
0.000285652
0.000272556
0.0002724
0.000285579
0.00028586
0.000272293
0.000282937
0.000283705
0.000282961
0.000257448
0.000257431
0.000257596
0.000257094
0.00027279
0.000285628
0.000282845
0.00027463
0.000285473
0.000272819
0.000274456
0.000286059
0.000272334
0.000272753
0.000283697
0.000286176
0.000275011
0.000285913
0.000274863
0.000272701
0.000285671
0.000285762
0.000272626
0.000273001
0.000273016
0.000237502
0.000250608
0.000250593
0.000237548
0.000250635
0.000237506
0.000236959
0.000250234
0.000250079
0.000237164
0.00024891
0.000248946
0.000248604
0.000222255
0.000222742
0.000222324
0.000222811
0.000238134
0.000250965
0.000249005
0.000240322
0.000251103
0.00023786
0.000240389
0.000249745
0.000236591
0.000237534
0.000248755
0.000250179
0.000239613
0.000250603
0.000239968
0.000237002
0.000251534
0.000251449
0.000238082
0.000238401
0.000238289
0.000202627
0.000215766
0.000215684
0.000202663
0.000215687
0.000202607
0.000202383
0.000215516
0.000215313
0.000202518
0.00021385
0.000213485
0.000214014
0.000187102
0.000187149
0.000186999
0.000187363
0.000202647
0.000215735
0.000213965
0.000204816
0.000215882
0.000202562
0.000205014
0.000215109
0.000202272
0.000202359
0.000213524
0.000215153
0.000204452
0.000215431
0.000204667
0.000202219
0.000216105
0.00021598
0.000202919
0.000202539
0.000202427
0.000167107
0.000180513
0.000180525
0.000167049
0.000180557
0.000167126
0.000167231
0.000180534
0.000180539
0.000167151
0.000178181
0.000178097
0.000178338
0.00015126
0.000151028
0.000151014
0.000150956
0.000166785
0.000180281
0.000178059
0.000169028
0.000180127
0.000166937
0.000169025
0.000180592
0.000167316
0.000166864
0.000177986
0.00018026
0.00016903
0.000180092
0.000169016
0.00016707
0.000179781
0.000179757
0.000166862
0.000166296
0.00016631
0.000130508
0.000144226
0.000144295
0.000130467
0.000144317
0.000130488
0.000130643
0.000144364
0.00014446
0.00013058
0.000141933
0.000141917
0.000141803
0.000114388
0.000114325
0.00011431
0.000114237
0.000130438
0.000144133
0.000141814
0.000132734
0.000143995
0.000130501
0.000132659
0.000144587
0.000130757
0.000130576
0.000141865
0.00014437
0.000132846
0.000144146
0.000132715
0.00013074
0.00014381
0.000143848
0.000130517
0.000130295
0.00013033
9.3625e-05
0.000107368
0.000107364
9.36838e-05
0.000107415
9.3603e-05
9.3751e-05
0.00010747
0.000107497
9.3758e-05
0.00010509
0.000105096
0.000105005
7.74327e-05
7.75184e-05
7.76432e-05
7.7545e-05
9.38134e-05
0.000107372
0.000105027
9.58676e-05
0.000107357
9.38042e-05
9.58171e-05
0.000107695
9.38021e-05
9.39482e-05
0.00010511
0.000107626
9.59985e-05
0.000107524
9.5933e-05
9.39927e-05
0.000107609
0.000107655
9.38825e-05
9.41033e-05
9.4134e-05
5.74695e-05
7.09746e-05
7.09391e-05
5.75381e-05
7.1078e-05
5.73807e-05
5.73971e-05
7.09301e-05
7.09335e-05
5.74417e-05
6.84762e-05
6.86413e-05
6.8589e-05
4.19585e-05
4.2025e-05
4.2072e-05
4.20896e-05
5.7586e-05
7.09565e-05
6.85862e-05
5.95962e-05
7.09875e-05
5.76282e-05
5.96209e-05
7.10389e-05
5.72316e-05
5.75468e-05
6.87227e-05
7.09384e-05
5.96548e-05
7.10038e-05
5.97007e-05
5.75474e-05
7.12363e-05
7.12362e-05
5.77305e-05
5.77215e-05
5.77213e-05
2.12116e-05
3.48076e-05
3.49347e-05
2.06189e-05
3.51806e-05
2.00857e-05
2.10012e-05
3.46734e-05
3.47735e-05
2.04912e-05
3.36838e-05
3.37593e-05
3.37175e-05
1.15508e-05
1.16307e-05
1.14545e-05
1.1582e-05
2.16875e-05
3.47631e-05
3.3437e-05
2.48894e-05
3.50288e-05
2.11425e-05
2.5233e-05
3.48565e-05
1.97391e-05
2.1467e-05
3.34349e-05
3.45018e-05
2.46866e-05
3.48933e-05
2.51495e-05
2.0815e-05
3.46637e-05
3.46388e-05
2.26811e-05
2.08104e-05
2.07681e-05
3.12555e-06
4.15557e-06
3.55642e-06
-5.77997e-08
1.55374e-06
-3.75635e-06
3.1306e-06
4.069e-06
3.45788e-06
-1.03165e-07
8.02274e-07
7.231e-06
7.17553e-06
7.71666e-06
7.64884e-06
3.80945e-06
3.8882e-06
1.7837e-06
3.07699e-06
6.4854e-06
1.28122e-06
4.61014e-06
5.48427e-06
-2.25607e-06
1.43029e-06
-3.78339e-06
1.77514e-06
6.29373e-06
2.93818e-06
1.26454e-06
4.50266e-06
-2.30707e-06
5.4838e-06
2.47048e-07
2.20832e-07
6.61981e-07
3.5147e-06
3.50672e-06
0.000722254
0.000734957
0.00072219
0.000734877
0.000735746
0.000722272
0.000722216
0.000734958
0.000734934
0.000735329
0.000722287
0.000735009
0.000722588
0.0007354
0.000722546
0.000735418
0.000722634
0.000735569
0.000734115
0.000722488
0.000726002
0.000735148
0.000734487
0.000722981
0.000735648
0.000734334
0.000722803
0.00072615
0.000735591
0.000734555
0.000723048
0.00072253
0.000735466
0.000735892
0.000722604
0.000722629
0.000735553
0.00073557
0.000722551
0.000735491
0.000735188
0.000722302
0.000734991
0.000722458
0.000735464
0.000734084
0.000722477
0.000725824
0.000735115
0.000734456
0.000722771
0.000735328
0.000722495
0.000735318
0.000722517
0.000735542
0.000734254
0.000725869
0.000722663
0.000734516
0.000735461
0.000722826
0.00073569
0.000734362
0.000722926
0.000726205
0.000735676
0.000734549
0.000723158
0.000735497
0.000722684
0.000735523
0.000722782
0.000735646
0.000734077
0.000726034
0.0007228
0.000734423
0.000735371
0.000723137
0.000735479
0.000722622
0.000735288
0.000722805
0.000722519
0.000735372
0.000735839
0.00072256
0.00072257
0.000735437
0.000735434
0.000722536
0.000735381
0.000735561
0.000734282
0.000725924
0.000722753
0.000734512
0.000735487
0.000722922
0.000735517
0.000734049
0.000725864
0.000722721
0.000734421
0.000735296
0.000722909
0.000735367
0.000722605
0.000735395
0.000722656
0.000735326
0.000722602
0.000735213
0.000722653
0.000735718
0.000722669
0.000722597
0.000735278
0.000735213
0.000722644
0.000735262
0.000722574
0.000735177
0.000717986
0.000705113
0.000717927
0.000705088
0.000718013
0.000717956
0.000705769
0.000705136
0.000705087
0.000687447
0.000700699
0.000687541
0.000700702
0.000700877
0.000687383
0.000687455
0.000700718
0.000700679
0.000705224
0.000718184
0.000718297
0.000705037
0.000705582
0.00071814
0.000717397
0.000708146
0.000718551
0.000705265
0.000708542
0.000705609
0.000718363
0.000717591
0.000708546
0.000718606
0.000705265
0.000708758
0.000700755
0.00068729
0.000700667
0.000687075
0.000700736
0.000686912
0.000700551
0.000687036
0.00070096
0.00069912
0.000687198
0.00069005
0.000700748
0.000699422
0.000687276
0.000700976
0.000699424
0.000687021
0.000690174
0.000700698
0.000699606
0.000687282
0.000718201
0.000718235
0.000706211
0.000704986
0.000704984
0.000718159
0.000704923
0.000686744
0.000700425
0.000701273
0.000686758
0.000686781
0.000700482
0.000700463
0.00068676
0.000700409
0.000705462
0.000718103
0.000717124
0.000708034
0.000718322
0.000705233
0.000708273
0.000705263
0.00071818
0.000718202
0.000705202
0.000705485
0.000717162
0.000718271
0.000708139
0.000718383
0.000708335
0.000705324
0.000700816
0.000687515
0.000700772
0.00068736
0.000700893
0.00069905
0.000687329
0.000689997
0.00070073
0.000699247
0.000687353
0.000700827
0.000687279
0.000700779
0.000687322
0.000700915
0.000699183
0.000690113
0.000687342
0.000699329
0.000700829
0.000687396
0.000705337
0.000718305
0.000718443
0.000705124
0.000705765
0.000717532
0.000718459
0.000708427
0.000718723
0.000708804
0.000705563
0.000705403
0.00071832
0.000718482
0.000705367
0.00070112
0.00069949
0.000687016
0.000690439
0.000700748
0.000699839
0.000687475
0.000700846
0.000686898
0.000700615
0.000687183
0.000701158
0.000699487
0.00069048
0.000687525
0.000699783
0.000701057
0.000687546
0.00070092
0.00068738
0.000700931
0.000687254
0.000718229
0.000718243
0.000705827
0.000705209
0.000705216
0.000718206
0.000705203
0.000687205
0.000700759
0.000700987
0.000687208
0.00068724
0.000700776
0.000700783
0.000687228
0.000700768
0.000705669
0.000717252
0.000718387
0.0007083
0.000718506
0.000708507
0.000705586
0.000705432
0.000718293
0.000718359
0.000705307
0.000705478
0.00071835
0.000718372
0.000705508
0.000701086
0.000699255
0.000690376
0.000687422
0.000699541
0.00070093
0.000687645
0.000701119
0.000699406
0.000690418
0.000687646
0.000699577
0.000701102
0.000687686
0.000701011
0.000687334
0.000700875
0.000687498
0.000701058
0.000687618
0.000701107
0.000687564
0.000718365
0.000705453
0.000718317
0.000705471
0.000701175
0.000687515
0.000687587
0.000701077
0.000701086
0.000687484
0.000701023
0.000687597
0.000701063
0.000682919
0.000669194
0.000683016
0.000669261
0.000682861
0.000682953
0.000667907
0.000669115
0.000669211
0.000650352
0.000664526
0.000650247
0.00066455
0.000662659
0.000650271
0.000650255
0.000664445
0.000664528
0.000668441
0.000682214
0.00068232
0.000668371
0.000668155
0.00068255
0.000680389
0.000670229
0.000682334
0.000668826
0.000670398
0.000668033
0.000682193
0.00068048
0.00067044
0.000682348
0.000667983
0.000670514
0.000663891
0.000650395
0.000664437
0.000649955
0.000663752
0.000649867
0.000663731
0.00064986
0.000663284
0.0006604
0.000650142
0.000650215
0.000664096
0.000660256
0.000649382
0.000663153
0.000660201
0.000649459
0.000650122
0.000663259
0.000660288
0.000649247
0.00068204
0.000682071
0.000668028
0.000667941
0.000667915
0.000682048
0.000668062
0.000649812
0.000663565
0.000662445
0.00064963
0.000649486
0.000663343
0.000663279
0.000649588
0.000663408
0.000668564
0.000682723
0.000680454
0.000670382
0.000682544
0.000668956
0.000670644
0.000668657
0.000682633
0.000682696
0.000668517
0.000668518
0.000680647
0.000682612
0.00067089
0.000682576
0.000670889
0.000668426
0.000664002
0.00065004
0.000664376
0.000649641
0.00066362
0.000660619
0.000649984
0.000650671
0.000664173
0.000660668
0.000649332
0.000663839
0.000649314
0.0006637
0.000649458
0.000663539
0.00066089
0.00065078
0.000649001
0.000660907
0.00066349
0.000649164
0.000668166
0.000682179
0.000682451
0.000668053
0.000668159
0.00068091
0.000682759
0.000671025
0.000682672
0.000671042
0.000668499
0.000668221
0.000682701
0.000682521
0.000668477
0.000663005
0.000660312
0.000649014
0.000650205
0.000663027
0.000660626
0.000648613
0.000663383
0.000649332
0.000663359
0.000649091
0.0006631
0.000660875
0.000650422
0.000648808
0.000660831
0.000663475
0.000648618
0.000663408
0.000649077
0.0006636
0.000649018
0.000682521
0.000682561
0.000668571
0.000668181
0.000668178
0.000682539
0.000668201
0.000649057
0.000663413
0.000663116
0.000648874
0.000648757
0.000663312
0.000663285
0.000648819
0.000663316
0.000668598
0.000681005
0.000682909
0.000671157
0.000682873
0.000671259
0.00066861
0.000668491
0.000682642
0.00068281
0.000668278
0.000668557
0.000682937
0.000682876
0.000668547
0.000663465
0.00066099
0.000650919
0.000648597
0.000661211
0.000663295
0.000648615
0.000663521
0.000661114
0.000650928
0.00064868
0.000661227
0.000663564
0.000648633
0.000663549
0.000648733
0.000663372
0.000648723
0.000663604
0.000648732
0.000663587
0.000648737
0.000682792
0.00066843
0.000682913
0.000668505
0.000663057
0.000648718
0.000648703
0.00066349
0.000663564
0.000648853
0.000663505
0.00064874
0.000663548
0.000645485
0.000630729
0.000645344
0.000630507
0.000645412
0.00064536
0.000630074
0.000630659
0.000630517
0.000610962
0.000625753
0.0006108
0.00062553
0.000624939
0.000610991
0.000610859
0.000625692
0.000625548
0.000630935
0.000645215
0.000645156
0.000631128
0.000630542
0.000645272
0.000640524
0.000631906
0.00064456
0.000630752
0.000631244
0.00063052
0.000644794
0.000640219
0.000631178
0.000644426
0.000630957
0.000630833
0.00062602
0.000611175
0.00062592
0.000611437
0.000626076
0.000611744
0.000626295
0.000611536
0.000625634
0.000622509
0.000611261
0.000612931
0.000625764
0.000622063
0.000611433
0.000625636
0.000622108
0.000611821
0.000612742
0.000626127
0.000621727
0.000611499
0.000645042
0.000644898
0.000629472
0.000631166
0.000631071
0.000644985
0.000631127
0.00061192
0.000626411
0.000624458
0.000611987
0.000611993
0.000626408
0.000626327
0.000612018
0.000626384
0.000629961
0.000645034
0.000640849
0.000631833
0.000644339
0.000630403
0.00063124
0.000630155
0.000644481
0.00064461
0.000630159
0.000629827
0.000640648
0.000644095
0.000630804
0.000644164
0.000630807
0.00062986
0.000625318
0.000610824
0.000625453
0.000610874
0.000624984
0.000622285
0.000610886
0.000612383
0.000625381
0.000621747
0.000610792
0.000625283
0.000611079
0.000625363
0.000610926
0.000624863
0.000621248
0.000611924
0.000611
0.000621251
0.000625044
0.000610751
0.000630327
0.000644692
0.000644329
0.00063081
0.000629586
0.000640052
0.00064388
0.000630426
0.000643631
0.000630033
0.000629664
0.000630179
0.00064426
0.000644228
0.000630125
0.000624946
0.000621649
0.000611862
0.000611805
0.000625856
0.000620766
0.000611201
0.000625616
0.000611926
0.00062613
0.000611546
0.000624785
0.000620893
0.000611474
0.000611104
0.000620553
0.000624917
0.000611051
0.000625469
0.000611323
0.000625375
0.000611447
0.000644107
0.000643949
0.000628901
0.000629973
0.00062986
0.00064402
0.000629981
0.000611254
0.000625354
0.000623724
0.000611257
0.000611228
0.000625261
0.000625165
0.000611335
0.00062528
0.000628935
0.000640457
0.000643642
0.000630396
0.000643473
0.000630123
0.000629225
0.000629426
0.000643887
0.000643778
0.000629745
0.000629368
0.000643807
0.000643776
0.000629472
0.00062409
0.000620796
0.000610923
0.000610937
0.000620254
0.000624713
0.00061034
0.000624042
0.000620679
0.0006109
0.000610681
0.000620263
0.000624441
0.000610271
0.0006247
0.000611223
0.000625073
0.000610884
0.000624635
0.00061096
0.000624769
0.000610778
0.000644019
0.000629877
0.000643839
0.000629573
0.000623554
0.000611181
0.000610998
0.00062499
0.000624784
0.000611289
0.000625189
0.000611101
0.000624887
0.000606065
0.000591779
0.000605924
0.000591751
0.000606089
0.00060597
0.000592837
0.000591827
0.000591742
0.000573618
0.000587107
0.000573788
0.000587136
0.000587929
0.000573637
0.000573736
0.000587159
0.000587117
0.000592363
0.000606861
0.000606689
0.000592464
0.00059258
0.000606327
0.000603807
0.000594607
0.00060653
0.000591991
0.000594634
0.000592682
0.000606918
0.000603755
0.00059483
0.000606599
0.000592704
0.000594692
0.000587459
0.000573538
0.000587122
0.000573718
0.000587581
0.000573935
0.00058766
0.000573806
0.000587716
0.000585455
0.000573611
0.000576453
0.000587222
0.000585527
0.000573936
0.000587853
0.000585723
0.000574025
0.000576573
0.000587888
0.000585612
0.00057404
0.00060714
0.000607154
0.000593024
0.000592817
0.000592903
0.000607174
0.000592873
0.000574174
0.000587894
0.000588106
0.000574223
0.00057442
0.000588047
0.000588187
0.000574451
0.000588151
0.000592309
0.000606
0.000603178
0.000594311
0.000605942
0.00059191
0.000594115
0.000592328
0.000606339
0.000606168
0.00059251
0.000592348
0.000602844
0.000606242
0.000594102
0.000605936
0.00059398
0.000592587
0.000587613
0.000573857
0.000587233
0.000574245
0.000587689
0.000585305
0.000573885
0.000576509
0.000587242
0.000585217
0.000574473
0.000587774
0.000574646
0.000587999
0.000574407
0.000587774
0.000585481
0.000576746
0.000574966
0.000585272
0.000588053
0.000574689
0.00059291
0.00060713
0.000606827
0.000593001
0.000592809
0.000602647
0.000606398
0.000594096
0.00060632
0.000594034
0.000592869
0.000592894
0.000606632
0.000606748
0.000592855
0.000588244
0.000585872
0.000574677
0.000576962
0.00058833
0.000585625
0.000575074
0.000588326
0.000574603
0.000588301
0.000574806
0.000588208
0.000585583
0.000577034
0.000575311
0.000585523
0.000588301
0.00057515
0.000588331
0.000575137
0.000588328
0.000574905
0.000606587
0.000606588
0.00059238
0.000592876
0.000592962
0.000606685
0.000593042
0.000574956
0.000588304
0.000587707
0.000575096
0.000575345
0.000588403
0.000588513
0.000575259
0.000588575
0.000592542
0.000601971
0.000606065
0.000593787
0.000605639
0.000593471
0.000592795
0.000592843
0.000606604
0.000606262
0.000593044
0.000592823
0.000606388
0.000606203
0.000592938
0.000588134
0.000585631
0.000577174
0.000575675
0.000585263
0.000588454
0.000575756
0.000588115
0.00058545
0.000577124
0.000575685
0.00058523
0.000588339
0.000575734
0.000588436
0.000575396
0.000588604
0.000575586
0.000588424
0.000575562
0.000588514
0.000575608
0.000606651
0.000593013
0.000606524
0.000593057
0.000587804
0.000575488
0.000575667
0.000588546
0.000588577
0.000575393
0.000588522
0.000575615
0.000588624
0.000569252
0.000556776
0.00056945
0.000556962
0.000569269
0.0005694
0.00055686
0.000556724
0.000556903
0.000541246
0.000552781
0.000541257
0.000552935
0.000552326
0.000541139
0.000541185
0.000552692
0.000552877
0.000556529
0.000569499
0.000569319
0.000556769
0.000556485
0.000569125
0.000567467
0.000558682
0.000569312
0.000556553
0.00055872
0.000556523
0.000569473
0.000567597
0.000559037
0.000569407
0.000556685
0.000558839
0.000552412
0.00054116
0.00055262
0.000540792
0.000552433
0.000541098
0.000552693
0.000540784
0.000552235
0.000550368
0.00054091
0.000542247
0.000552417
0.000550281
0.000540531
0.000552259
0.000550681
0.000540903
0.000542324
0.000552517
0.000550385
0.000540559
0.000569732
0.000569949
0.000557328
0.000556842
0.000557094
0.00056997
0.000557154
0.000541077
0.000552768
0.000552781
0.000540963
0.000541043
0.000552725
0.000552949
0.000541054
0.000553
0.000557205
0.000569447
0.000567911
0.000559059
0.000569975
0.000556876
0.00055947
0.00055716
0.000570264
0.000570018
0.000557342
0.000557409
0.000568399
0.000570498
0.00056065
0.000570208
0.00056004
0.000557538
0.00055286
0.000541016
0.000552795
0.000540727
0.000552881
0.00055071
0.000540906
0.000542804
0.000552665
0.00055106
0.000540745
0.000552916
0.000540613
0.00055305
0.000540672
0.000553035
0.00055221
0.000543327
0.000540639
0.000551696
0.00055318
0.000540776
0.000557472
0.000570151
0.000570362
0.000557221
0.000557823
0.000568656
0.000570946
0.000560844
0.000570601
0.00056038
0.000558159
0.000557607
0.00057078
0.000570467
0.000557997
0.000553246