/*--------------------------------*- C++ -*----------------------------------*\
| =========                 |                                                 |
| \\      /  F ield         | OpenFOAM: The Open Source CFD Toolbox           |
|  \\    /   O peration     | Version:  v2012                                 |
|   \\  /    A nd           | Website:  www.openfoam.com                      |
|    \\/     M anipulation  |                                                 |
\*---------------------------------------------------------------------------*/
FoamFile
{
    version     2.0;
    format      ascii;
    class       volScalarField;
    location    "337.5";
    object      epsilon;
}
// * * * * * * * * * * * * * * * * * * * * * * * * * * * * * * * * * * * * * //

dimensions      [0 2 -3 0 0 0 0];


internalField   nonuniform List<scalar> 
171728
(
3.04267e-09
3.56259e-09
4.46816e-09
4.92675e-09
3.01009e-09
3.28134e-09
4.08765e-09
4.47309e-09
2.96216e-09
3.01586e-09
3.73098e-09
4.06344e-09
2.91928e-09
2.78537e-09
3.41923e-09
3.71237e-09
2.88086e-09
2.58591e-09
3.14748e-09
3.41127e-09
2.84774e-09
2.42178e-09
2.91614e-09
3.15399e-09
2.81901e-09
2.29481e-09
2.72879e-09
2.93314e-09
2.79393e-09
2.20286e-09
2.58436e-09
2.7505e-09
2.77173e-09
2.1379e-09
2.48199e-09
2.60529e-09
2.75359e-09
2.10448e-09
2.41447e-09
2.49116e-09
2.74002e-09
2.10493e-09
2.38833e-09
2.41024e-09
2.73154e-09
2.13861e-09
2.3949e-09
2.36784e-09
2.72682e-09
2.21544e-09
2.45315e-09
2.36966e-09
2.72583e-09
2.34667e-09
2.56943e-09
2.42561e-09
2.72901e-09
2.5627e-09
2.76411e-09
2.55796e-09
2.73738e-09
2.89411e-09
3.07784e-09
2.80883e-09
2.75143e-09
3.39368e-09
3.55337e-09
3.25567e-09
2.77158e-09
4.14732e-09
4.3125e-09
4.02369e-09
2.79877e-09
5.30713e-09
5.47677e-09
5.3387e-09
2.83508e-09
7.00494e-09
7.07583e-09
7.62762e-09
2.88286e-09
9.41863e-09
9.56324e-09
1.17111e-08
2.94817e-09
1.30553e-08
1.32181e-08
1.84081e-08
3.03641e-09
1.78108e-08
1.80575e-08
3.02213e-08
3.15769e-09
2.46431e-08
2.46697e-08
4.81926e-08
3.32554e-09
3.35918e-08
3.35565e-08
7.53993e-08
3.55085e-09
4.50015e-08
4.52496e-08
1.11075e-07
3.86683e-09
5.93998e-08
5.87757e-08
1.59449e-07
4.29613e-09
7.44442e-08
7.61958e-08
2.28104e-07
4.84875e-09
9.8745e-08
9.59115e-08
2.90679e-07
5.62626e-09
1.14795e-07
1.19071e-07
3.7254e-07
6.58267e-09
1.4728e-07
1.44785e-07
4.51117e-07
7.92892e-09
1.74169e-07
1.75083e-07
5.22565e-07
9.56373e-09
2.07573e-07
2.04768e-07
5.94151e-07
1.17746e-08
2.4138e-07
2.4484e-07
6.60256e-07
1.42959e-08
2.80228e-07
2.79372e-07
7.14385e-07
1.83115e-08
3.20418e-07
3.24182e-07
7.628e-07
2.16052e-08
3.656e-07
3.60764e-07
8.12909e-07
2.79513e-08
4.10729e-07
4.16403e-07
8.49924e-07
3.31311e-08
4.51184e-07
4.53412e-07
8.88246e-07
4.26868e-08
5.07226e-07
5.0519e-07
9.23212e-07
5.00374e-08
5.5975e-07
5.57757e-07
9.55753e-07
5.85543e-08
5.90993e-07
6.03166e-07
9.84693e-07
7.38508e-08
6.5779e-07
6.46354e-07
1.01862e-06
8.87239e-08
7.08703e-07
7.07308e-07
1.04674e-06
1.05093e-07
7.36536e-07
7.42493e-07
1.07499e-06
1.18223e-07
7.80241e-07
7.8559e-07
1.09903e-06
1.44507e-07
8.45985e-07
8.29764e-07
1.13433e-06
1.62927e-07
8.71148e-07
8.7178e-07
1.15392e-06
1.90501e-07
9.01182e-07
9.12692e-07
1.18366e-06
2.10329e-07
9.46629e-07
9.41509e-07
1.20261e-06
2.43516e-07
9.70167e-07
9.6886e-07
1.23035e-06
2.69585e-07
1.00485e-06
1.0056e-06
1.24694e-06
2.98078e-07
1.03988e-06
1.04024e-06
1.27596e-06
3.38233e-07
1.05348e-06
1.05508e-06
1.29532e-06
3.58317e-07
1.07994e-06
1.07923e-06
1.30723e-06
3.90183e-07
1.10405e-06
1.1044e-06
1.32859e-06
4.22387e-07
1.12821e-06
1.12803e-06
1.34481e-06
4.5239e-07
1.14132e-06
1.1422e-06
1.35985e-06
4.76829e-07
1.16296e-06
1.15903e-06
1.37728e-06
5.07814e-07
1.17231e-06
1.1746e-06
1.38405e-06
5.28239e-07
1.19219e-06
1.19385e-06
1.40409e-06
5.58254e-07
1.21016e-06
1.20811e-06
1.41203e-06
5.79887e-07
1.21357e-06
1.21643e-06
1.41994e-06
5.99453e-07
1.22963e-06
1.22719e-06
1.43811e-06
6.19556e-07
1.24275e-06
1.24714e-06
1.44588e-06
6.42349e-07
1.2469e-06
1.24787e-06
1.45192e-06
6.5428e-07
1.25317e-06
1.24884e-06
1.45903e-06
6.67853e-07
1.26226e-06
1.26333e-06
1.46469e-06
6.86396e-07
1.26508e-06
1.27043e-06
1.46968e-06
6.98517e-07
1.27623e-06
1.27404e-06
1.48218e-06
7.08394e-07
1.27196e-06
1.26895e-06
1.47825e-06
7.10094e-07
1.26305e-06
1.26135e-06
1.46306e-06
7.24349e-07
1.28309e-06
1.28394e-06
1.49357e-06
7.49435e-07
1.30533e-06
1.30582e-06
1.52721e-06
7.46015e-07
1.28097e-06
1.28102e-06
1.50362e-06
7.07953e-07
1.21853e-06
1.2185e-06
1.42156e-06
6.87775e-07
1.19543e-06
1.19538e-06
1.38876e-06
7.02625e-07
1.21755e-06
1.21747e-06
1.42242e-06
7.53282e-07
1.28179e-06
1.28185e-06
1.50343e-06
8.02889e-07
1.35056e-06
1.35069e-06
1.59767e-06
8.17637e-07
1.3734e-06
1.37353e-06
1.63707e-06
7.87297e-07
1.32557e-06
1.32569e-06
1.57972e-06
7.29644e-07
1.23996e-06
1.24007e-06
1.46233e-06
6.91053e-07
1.18023e-06
1.18033e-06
1.38106e-06
6.78499e-07
1.15465e-06
1.15474e-06
1.35429e-06
6.7841e-07
1.15153e-06
1.15162e-06
1.36372e-06
6.80752e-07
1.15531e-06
1.15541e-06
1.38075e-06
6.75014e-07
1.15423e-06
1.15433e-06
1.39018e-06
6.69812e-07
1.15161e-06
1.1517e-06
1.39357e-06
6.67198e-07
1.14999e-06
1.15008e-06
1.39478e-06
6.65983e-07
1.1492e-06
1.1493e-06
1.39495e-06
6.65404e-07
1.14881e-06
1.1489e-06
1.39469e-06
6.6524e-07
1.14872e-06
1.14882e-06
1.39469e-06
6.64975e-07
1.14846e-06
1.14855e-06
1.39456e-06
6.47473e-07
1.09468e-06
1.09473e-06
1.35301e-06
5.03285e-09
4.25004e-09
4.82103e-09
4.87332e-09
4.23062e-09
4.26077e-09
3.03388e-09
3.07022e-09
3.01207e-09
3.01624e-09
4.26797e-09
4.24101e-09
5.02395e-09
4.26554e-09
3.99802e-09
4.94808e-09
5.00573e-09
4.57794e-09
4.74596e-09
5.59115e-09
4.43127e-09
5.37062e-09
4.85304e-09
4.47907e-09
4.87713e-09
4.76362e-09
4.56238e-09
4.45205e-09
4.76733e-09
3.35449e-09
4.45532e-09
5.00049e-09
4.57546e-09
3.95023e-09
4.18525e-09
3.79268e-09
4.50411e-09
4.54425e-09
4.16084e-09
4.32263e-09
5.28862e-09
4.02188e-09
5.0686e-09
4.43406e-09
4.12373e-09
4.44743e-09
4.34366e-09
4.12636e-09
4.04185e-09
4.34723e-09
3.07807e-09
4.04754e-09
4.54346e-09
4.15953e-09
3.73262e-09
3.81568e-09
3.55926e-09
4.0903e-09
4.13184e-09
3.8006e-09
3.92888e-09
5.00693e-09
3.66962e-09
4.85407e-09
4.07578e-09
3.82476e-09
4.027e-09
3.94844e-09
3.75066e-09
3.68779e-09
3.954e-09
2.84015e-09
3.69297e-09
4.1322e-09
3.80103e-09
3.50283e-09
3.4932e-09
3.33868e-09
3.7355e-09
3.7758e-09
3.49002e-09
3.58941e-09
4.81324e-09
3.36585e-09
4.70302e-09
3.78009e-09
3.57778e-09
3.66567e-09
3.60702e-09
3.42932e-09
3.38144e-09
3.61177e-09
2.63302e-09
3.38561e-09
3.77741e-09
3.48945e-09
3.28529e-09
3.21197e-09
3.13444e-09
3.43113e-09
3.46913e-09
3.22303e-09
3.29637e-09
4.6717e-09
3.10629e-09
4.5863e-09
3.54208e-09
3.36936e-09
3.3569e-09
3.31177e-09
3.15769e-09
3.12087e-09
3.31602e-09
2.45916e-09
3.1257e-09
3.46931e-09
3.21865e-09
3.08712e-09
2.97045e-09
2.95695e-09
3.17029e-09
3.2063e-09
2.99365e-09
3.04778e-09
4.55609e-09
2.89079e-09
4.47165e-09
3.35433e-09
3.18761e-09
3.09667e-09
3.06274e-09
2.93087e-09
2.90645e-09
3.06782e-09
2.32337e-09
2.9116e-09
3.20216e-09
2.98478e-09
2.91652e-09
2.7716e-09
2.80815e-09
2.94579e-09
2.98061e-09
2.79965e-09
2.84378e-09
4.4489e-09
2.72172e-09
4.37834e-09
3.17572e-09
3.01391e-09
2.88107e-09
2.86043e-09
2.75098e-09
2.73756e-09
2.86505e-09
2.22232e-09
2.74064e-09
2.97223e-09
2.7881e-09
2.77556e-09
2.6169e-09
2.6878e-09
2.75932e-09
2.7907e-09
2.64266e-09
2.68611e-09
4.34103e-09
2.59558e-09
4.14654e-09
3.00458e-09
2.81765e-09
2.71283e-09
2.70264e-09
2.61622e-09
2.61237e-09
2.70453e-09
2.15136e-09
2.61195e-09
2.77953e-09
2.63008e-09
2.66291e-09
2.505e-09
2.60109e-09
2.61031e-09
2.63762e-09
2.51902e-09
2.57022e-09
4.05003e-09
2.50877e-09
3.69587e-09
2.80305e-09
2.59123e-09
2.58947e-09
2.58805e-09
2.52602e-09
2.52697e-09
2.58592e-09
2.10855e-09
2.52384e-09
2.6256e-09
2.50761e-09
2.58484e-09
2.42653e-09
2.54944e-09
2.49199e-09
2.51821e-09
2.43096e-09
2.49333e-09
3.57213e-09
2.4609e-09
3.22043e-09
2.58639e-09
2.46938e-09
2.50996e-09
2.51169e-09
2.47647e-09
2.48311e-09
2.5085e-09
2.10223e-09
2.47578e-09
2.50712e-09
2.42035e-09
2.54163e-09
2.39464e-09
2.53351e-09
2.4072e-09
2.43416e-09
2.37747e-09
2.45534e-09
3.11741e-09
2.45305e-09
2.84609e-09
2.4704e-09
2.35579e-09
2.4711e-09
2.47777e-09
2.46998e-09
2.47497e-09
2.47006e-09
2.12925e-09
2.46855e-09
2.42394e-09
2.37085e-09
2.53499e-09
2.3891e-09
2.55441e-09
2.35831e-09
2.38654e-09
2.3616e-09
2.45703e-09
2.76276e-09
2.48994e-09
2.55054e-09
2.35853e-09
2.25577e-09
2.47446e-09
2.47904e-09
2.50738e-09
2.5153e-09
2.47318e-09
2.19703e-09
2.50595e-09
2.37999e-09
2.35492e-09
2.56653e-09
2.43401e-09
2.62181e-09
2.35043e-09
2.38022e-09
2.3947e-09
2.50748e-09
2.49658e-09
2.58356e-09
2.40657e-09
2.26765e-09
2.24695e-09
2.52493e-09
2.53428e-09
2.60486e-09
2.61347e-09
2.52407e-09
2.31255e-09
2.60122e-09
2.37378e-09
2.38844e-09
2.64698e-09
2.5349e-09
2.74329e-09
2.39268e-09
2.42698e-09
2.4962e-09
2.61738e-09
2.40215e-09
2.7564e-09
2.42425e-09
2.27611e-09
2.33712e-09
2.63886e-09
2.64764e-09
2.77593e-09
2.78158e-09
2.63627e-09
2.50679e-09
2.77269e-09
2.42107e-09
2.48801e-09
2.78436e-09
2.70766e-09
2.93791e-09
2.50202e-09
2.55185e-09
2.69883e-09
2.81434e-09
2.46633e-09
3.03294e-09
2.68703e-09
2.39052e-09
2.53984e-09
2.83431e-09
2.83908e-09
3.05218e-09
3.05743e-09
2.83004e-09
2.8038e-09
3.04956e-09
2.54357e-09
2.69099e-09
3.00045e-09
2.98495e-09
3.236e-09
2.71306e-09
2.79267e-09
3.07226e-09
3.12529e-09
2.77789e-09
3.47282e-09
3.13523e-09
2.63093e-09
2.91929e-09
3.14237e-09
3.14589e-09
3.49022e-09
3.49358e-09
3.14331e-09
3.25034e-09
3.48941e-09
2.78326e-09
3.06078e-09
3.33715e-09
3.41581e-09
3.69574e-09
3.09387e-09
3.22793e-09
3.72972e-09
3.61588e-09
3.29678e-09
4.14837e-09
3.81351e-09
3.08387e-09
3.55677e-09
3.63223e-09
3.63297e-09
4.16201e-09
4.17899e-09
3.63543e-09
3.92101e-09
4.16676e-09
3.20886e-09
3.73174e-09
3.84953e-09
4.10165e-09
4.40712e-09
3.75964e-09
3.98264e-09
4.88148e-09
4.36652e-09
4.04141e-09
5.18974e-09
4.90427e-09
3.82178e-09
4.73367e-09
4.37663e-09
4.39212e-09
5.19185e-09
5.2057e-09
4.39188e-09
4.98378e-09
5.19773e-09
3.98273e-09
4.8454e-09
4.63951e-09
5.11568e-09
5.47641e-09
4.90985e-09
5.32386e-09
6.85835e-09
5.52205e-09
5.23844e-09
6.70595e-09
6.40534e-09
5.15664e-09
6.63337e-09
5.52534e-09
5.57324e-09
6.71705e-09
6.70413e-09
5.52498e-09
6.46488e-09
6.72867e-09
5.34334e-09
6.79391e-09
5.81345e-09
6.59788e-09
7.07052e-09
6.94279e-09
7.58361e-09
1.04418e-08
7.20925e-09
6.95744e-09
8.99875e-09
8.70166e-09
7.42567e-09
1.03003e-08
7.21299e-09
7.19738e-09
8.98281e-09
9.04524e-09
7.19711e-09
8.73649e-09
9.02417e-09
7.4255e-09
1.05532e-08
7.55373e-09
8.9118e-09
9.43351e-09
1.0542e-08
1.15745e-08
1.63724e-08
9.67742e-09
9.38035e-09
1.22277e-08
1.20439e-08
1.13328e-08
1.65029e-08
9.66498e-09
9.6975e-09
1.22201e-08
1.23259e-08
9.7115e-09
1.20294e-08
1.22264e-08
1.16842e-08
1.65039e-08
1.01353e-08
1.21834e-08
1.2755e-08
1.6537e-08
1.83466e-08
2.65105e-08
1.32654e-08
1.30964e-08
1.67337e-08
1.65343e-08
1.84302e-08
2.65229e-08
1.32457e-08
1.33546e-08
1.67105e-08
1.67689e-08
1.32419e-08
1.64408e-08
1.68506e-08
1.86694e-08
2.61469e-08
1.37918e-08
1.6578e-08
1.75247e-08
2.73569e-08
2.93972e-08
4.31137e-08
1.81382e-08
1.79333e-08
2.29722e-08
2.30548e-08
2.91143e-08
4.48789e-08
1.8122e-08
1.82637e-08
2.29084e-08
2.29178e-08
1.81683e-08
2.29337e-08
2.3048e-08
2.92043e-08
4.28274e-08
1.88595e-08
2.27469e-08
2.37714e-08
4.33826e-08
4.73107e-08
6.8158e-08
2.4812e-08
2.47897e-08
3.13815e-08
3.15492e-08
4.92534e-08
6.84114e-08
2.47446e-08
2.48619e-08
3.13409e-08
3.1455e-08
2.48605e-08
3.12321e-08
3.14251e-08
4.68171e-08
6.88472e-08
2.56491e-08
3.12721e-08
3.23232e-08
6.80711e-08
7.47352e-08
1.03054e-07
3.38455e-08
3.39193e-08
4.20811e-08
4.1945e-08
7.65187e-08
9.99026e-08
3.37909e-08
3.37415e-08
4.19352e-08
4.22123e-08
3.38052e-08
4.16705e-08
4.23082e-08
7.48357e-08
1.02979e-07
3.46694e-08
4.19988e-08
4.32356e-08
1.02211e-07
1.11382e-07
1.50269e-07
4.50643e-08
4.53054e-08
5.56025e-08
5.5797e-08
1.09313e-07
1.52887e-07
4.49037e-08
4.54272e-08
5.55733e-08
5.51559e-08
4.55355e-08
5.51647e-08
5.50146e-08
1.12086e-07
1.49858e-07
4.64732e-08
5.48921e-08
5.57999e-08
1.51024e-07
1.61325e-07
2.0989e-07
5.95007e-08
5.9984e-08
7.14933e-08
7.14961e-08
1.61315e-07
2.14591e-07
5.93454e-08
5.90568e-08
7.13679e-08
7.2387e-08
5.94675e-08
7.0971e-08
7.18599e-08
1.60084e-07
2.11333e-07
6.01597e-08
7.21798e-08
7.24525e-08
2.15513e-07
2.22159e-07
2.78685e-07
7.60694e-08
7.52058e-08
9.07873e-08
9.32623e-08
2.27071e-07
2.79061e-07
7.60853e-08
7.63731e-08
9.03263e-08
9.03783e-08
7.51727e-08
9.21884e-08
9.16446e-08
2.2553e-07
2.74922e-07
7.58804e-08
8.99474e-08
9.14167e-08
2.72007e-07
2.93803e-07
3.54889e-07
9.58858e-08
9.96766e-08
1.13315e-07
1.11581e-07
2.99772e-07
3.57352e-07
9.52055e-08
9.63669e-08
1.13385e-07
1.13305e-07
9.69585e-08
1.10986e-07
1.13447e-07
2.87993e-07
3.62424e-07
9.66401e-08
1.13338e-07
1.13542e-07
3.60072e-07
3.70765e-07
4.35176e-07
1.19457e-07
1.15543e-07
1.37991e-07
1.39327e-07
3.6555e-07
4.21991e-07
1.19792e-07
1.19173e-07
1.37518e-07
1.39114e-07
1.20569e-07
1.37896e-07
1.37312e-07
3.78374e-07
4.31118e-07
1.20332e-07
1.38203e-07
1.36971e-07
4.35845e-07
4.5019e-07
5.06083e-07
1.44546e-07
1.48582e-07
1.66657e-07
1.67903e-07
4.4665e-07
5.21188e-07
1.43804e-07
1.45168e-07
1.66468e-07
1.66638e-07
1.42711e-07
1.66709e-07
1.6882e-07
4.48876e-07
5.08994e-07
1.42251e-07
1.66823e-07
1.67247e-07
5.02881e-07
5.23133e-07
5.8139e-07
1.74879e-07
1.7564e-07
1.99257e-07
2.01291e-07
5.32266e-07
5.80198e-07
1.7471e-07
1.75458e-07
1.98758e-07
1.9812e-07
1.76504e-07
2.0078e-07
1.9928e-07
5.24006e-07
5.78265e-07
1.76173e-07
1.97361e-07
1.9777e-07
5.83199e-07
5.95472e-07
6.41807e-07
2.06837e-07
2.0766e-07
2.32576e-07
2.32345e-07
5.97976e-07
6.41023e-07
2.06412e-07
2.05085e-07
2.3211e-07
2.35298e-07
2.07163e-07
2.29793e-07
2.32475e-07
5.93362e-07
6.44116e-07
2.04173e-07
2.34422e-07
2.31787e-07
6.43032e-07
6.56501e-07
7.01655e-07
2.42961e-07
2.44678e-07
2.70941e-07
2.74445e-07
6.53662e-07
7.04564e-07
2.42195e-07
2.46379e-07
2.70319e-07
2.70545e-07
2.43241e-07
2.73318e-07
2.73649e-07
6.57984e-07
7.05447e-07
2.42611e-07
2.70007e-07
2.72385e-07
7.02301e-07
7.14651e-07
7.53797e-07
2.79352e-07
2.80801e-07
3.1356e-07
3.08693e-07
7.17037e-07
7.48333e-07
2.79087e-07
2.79276e-07
3.13193e-07
3.14863e-07
2.81329e-07
3.06289e-07
3.09907e-07
7.17885e-07
7.50716e-07
2.81055e-07
3.14382e-07
3.07188e-07
7.50709e-07
7.6582e-07
7.981e-07
3.25948e-07
3.23519e-07
3.52513e-07
3.58597e-07
7.60703e-07
8.01909e-07
3.25289e-07
3.25189e-07
3.5156e-07
3.50179e-07
3.22129e-07
3.57902e-07
3.55222e-07
7.63366e-07
7.98388e-07
3.19498e-07
3.48634e-07
3.56484e-07
8.01685e-07
8.08917e-07
8.38866e-07
3.61469e-07
3.66072e-07
4.02408e-07
3.99931e-07
8.1221e-07
8.3778e-07
3.60246e-07
3.62558e-07
4.01364e-07
4.04253e-07
3.66169e-07
3.96492e-07
4.01024e-07
8.0933e-07
8.42305e-07
3.65305e-07
4.0567e-07
3.97636e-07
8.3968e-07
8.4981e-07
8.78116e-07
4.14678e-07
4.1427e-07
4.43608e-07
4.43552e-07
8.48581e-07
8.7691e-07
4.14894e-07
4.14599e-07
4.43166e-07
4.4424e-07
4.11131e-07
4.41688e-07
4.43571e-07
8.53093e-07
8.75648e-07
4.10883e-07
4.44009e-07
4.43905e-07
8.78546e-07
8.87946e-07
9.16882e-07
4.54899e-07
4.52948e-07
4.99157e-07
4.99434e-07
8.85936e-07
9.13506e-07
4.53808e-07
4.54956e-07
4.99077e-07
4.93055e-07
4.56787e-07
4.93379e-07
4.94783e-07
8.84705e-07
9.13636e-07
4.55045e-07
4.9063e-07
4.93004e-07
9.13877e-07
9.26485e-07
9.45253e-07
5.13887e-07
5.1343e-07
5.44527e-07
5.45871e-07
9.24201e-07
9.4876e-07
5.13764e-07
5.0758e-07
5.43282e-07
5.45454e-07
5.06787e-07
5.47532e-07
5.45243e-07
9.23893e-07
9.49233e-07
5.0433e-07
5.45785e-07
5.42969e-07
9.47166e-07
9.52265e-07
9.72552e-07
5.51999e-07
5.56413e-07
5.83774e-07
5.80287e-07
9.55783e-07
9.67478e-07
5.50309e-07
5.56076e-07
5.81564e-07
5.92243e-07
5.56292e-07
5.83317e-07
5.85604e-07
9.57631e-07
9.77193e-07
5.57199e-07
5.92121e-07
5.87791e-07
9.7673e-07
9.81523e-07
1.00976e-06
5.98579e-07
5.89308e-07
6.40228e-07
6.40887e-07
9.74404e-07
1.01537e-06
5.973e-07
6.04636e-07
6.41164e-07
6.35545e-07
5.9901e-07
6.3688e-07
6.44158e-07
9.8469e-07
1.00583e-06
5.96662e-07
6.34299e-07
6.40164e-07
1.00949e-06
1.01895e-06
1.04164e-06
6.5288e-07
6.62203e-07
6.93469e-07
7.04012e-07
1.03027e-06
1.04981e-06
6.52856e-07
6.46694e-07
6.90323e-07
6.9201e-07
6.55316e-07
7.00856e-07
6.85159e-07
1.01445e-06
1.04249e-06
6.55907e-07
6.9247e-07
6.87227e-07
1.03966e-06
1.04896e-06
1.06628e-06
7.06584e-07
7.11094e-07
7.35259e-07
7.2972e-07
1.05229e-06
1.05592e-06
7.03915e-07
7.0746e-07
7.36291e-07
7.38716e-07
6.98543e-07
7.29132e-07
7.37627e-07
1.05143e-06
1.06845e-06
6.98183e-07
7.36151e-07
7.36427e-07
1.06802e-06
1.0725e-06
1.091e-06
7.42225e-07
7.36928e-07
7.70785e-07
7.65872e-07
1.06247e-06
1.08686e-06
7.43785e-07
7.45206e-07
7.72412e-07
7.70712e-07
7.46336e-07
7.65271e-07
7.71656e-07
1.07349e-06
1.08924e-06
7.45659e-07
7.70801e-07
7.71449e-07
1.09148e-06
1.09944e-06
1.12661e-06
7.85788e-07
7.81093e-07
8.27804e-07
8.34384e-07
1.09609e-06
1.13247e-06
7.86692e-07
7.84442e-07
8.22756e-07
8.26607e-07
7.84622e-07
8.33251e-07
8.28033e-07
1.09814e-06
1.12622e-06
7.84598e-07
8.22513e-07
8.26114e-07
1.12773e-06
1.13302e-06
1.14831e-06
8.36192e-07
8.46876e-07
8.59793e-07
8.67884e-07
1.14123e-06
1.15476e-06
8.3153e-07
8.35246e-07
8.6235e-07
8.57382e-07
8.37463e-07
8.66719e-07
8.59474e-07
1.13192e-06
1.14588e-06
8.3472e-07
8.57789e-07
8.58006e-07
1.14752e-06
1.15481e-06
1.17398e-06
8.70402e-07
8.72506e-07
8.98743e-07
8.91883e-07
1.15834e-06
1.16902e-06
8.73587e-07
8.67939e-07
9.00294e-07
9.05247e-07
8.6954e-07
8.90872e-07
9.03608e-07
1.15348e-06
1.18118e-06
8.69372e-07
9.06246e-07
9.03152e-07
1.17774e-06
1.17998e-06
1.19748e-06
9.06417e-07
9.01645e-07
9.32657e-07
9.36445e-07
1.17588e-06
1.20005e-06
9.06813e-07
9.13879e-07
9.29534e-07
9.33635e-07
9.11687e-07
9.36946e-07
9.31395e-07
1.18704e-06
1.19761e-06
9.10213e-07
9.32368e-07
9.29508e-07
1.19659e-06
1.20399e-06
1.22372e-06
9.42829e-07
9.46905e-07
9.70266e-07
9.67774e-07
1.20695e-06
1.2216e-06
9.39661e-07
9.41801e-07
9.69988e-07
9.64344e-07
9.39997e-07
9.65232e-07
9.70166e-07
1.20295e-06
1.21912e-06
9.38708e-07
9.63443e-07
9.70982e-07
1.22451e-06
1.22967e-06
1.24322e-06
9.7686e-07
9.72712e-07
9.93152e-07
9.94027e-07
1.22613e-06
1.24195e-06
9.77703e-07
9.7031e-07
9.94541e-07
9.95282e-07
9.77587e-07
9.93745e-07
9.93403e-07
1.22375e-06
1.24168e-06
9.78833e-07
9.94514e-07
9.94628e-07
1.24199e-06
1.24825e-06
1.26995e-06
1.00013e-06
1.00447e-06
1.03022e-06
1.03338e-06
1.24997e-06
1.2749e-06
1.00069e-06
1.00565e-06
1.02817e-06
1.03288e-06
9.99415e-07
1.03372e-06
1.02777e-06
1.25033e-06
1.27501e-06
1.00007e-06
1.0339e-06
1.02609e-06
1.26803e-06
1.27744e-06
1.29038e-06
1.03962e-06
1.0397e-06
1.05584e-06
1.05081e-06
1.28009e-06
1.28445e-06
1.0376e-06
1.03926e-06
1.05525e-06
1.05118e-06
1.03835e-06
1.05043e-06
1.05717e-06
1.28023e-06
1.2858e-06
1.03676e-06
1.05192e-06
1.05696e-06
1.2919e-06
1.29346e-06
1.30104e-06
1.05878e-06
1.05406e-06
1.07065e-06
1.07122e-06
1.28687e-06
1.30009e-06
1.05865e-06
1.0545e-06
1.07176e-06
1.07169e-06
1.06027e-06
1.07072e-06
1.07246e-06
1.28836e-06
1.29971e-06
1.06022e-06
1.07091e-06
1.07197e-06
1.30202e-06
1.3066e-06
1.32244e-06
1.07706e-06
1.08005e-06
1.09771e-06
1.09965e-06
1.30841e-06
1.32688e-06
1.07831e-06
1.08032e-06
1.09725e-06
1.1005e-06
1.07913e-06
1.10038e-06
1.09762e-06
1.3075e-06
1.32695e-06
1.07854e-06
1.09938e-06
1.09912e-06
1.3243e-06
1.32731e-06
1.34127e-06
1.10345e-06
1.10359e-06
1.11968e-06
1.12146e-06
1.33046e-06
1.34262e-06
1.10278e-06
1.10512e-06
1.11916e-06
1.12143e-06
1.10223e-06
1.12187e-06
1.1205e-06
1.33101e-06
1.34383e-06
1.10366e-06
1.12306e-06
1.11784e-06
1.33965e-06
1.34619e-06
1.3562e-06
1.12499e-06
1.12718e-06
1.13908e-06
1.13711e-06
1.34846e-06
1.35636e-06
1.12439e-06
1.12662e-06
1.139e-06
1.13996e-06
1.12607e-06
1.13832e-06
1.13682e-06
1.3492e-06
1.35791e-06
1.12313e-06
1.13813e-06
1.13888e-06
1.35558e-06
1.36001e-06
1.36842e-06
1.14259e-06
1.14036e-06
1.15485e-06
1.15638e-06
1.35921e-06
1.37063e-06
1.14278e-06
1.14399e-06
1.15359e-06
1.15451e-06
1.14114e-06
1.1575e-06
1.15933e-06
1.36127e-06
1.36916e-06
1.14455e-06
1.15569e-06
1.15857e-06
1.37321e-06
1.37308e-06
1.3859e-06
1.16073e-06
1.1615e-06
1.17466e-06
1.16967e-06
1.37591e-06
1.38035e-06
1.15889e-06
1.15813e-06
1.17421e-06
1.17157e-06
1.16412e-06
1.17053e-06
1.17104e-06
1.37282e-06
1.38043e-06
1.16107e-06
1.16944e-06
1.16803e-06
1.38088e-06
1.38925e-06
1.39314e-06
1.17661e-06
1.17172e-06
1.18359e-06
1.18526e-06
1.3824e-06
1.39377e-06
1.17693e-06
1.17595e-06
1.18373e-06
1.18647e-06
1.17317e-06
1.18506e-06
1.18669e-06
1.38489e-06
1.39721e-06
1.17249e-06
1.19016e-06
1.1911e-06
1.3985e-06
1.39733e-06
1.41286e-06
1.1886e-06
1.19256e-06
1.20633e-06
1.20859e-06
1.40152e-06
1.41789e-06
1.188e-06
1.19024e-06
1.20455e-06
1.20493e-06
1.19288e-06
1.20854e-06
1.20438e-06
1.40147e-06
1.41151e-06
1.19549e-06
1.20425e-06
1.20124e-06
1.41012e-06
1.41713e-06
1.42087e-06
1.2097e-06
1.21042e-06
1.21455e-06
1.21285e-06
1.42026e-06
1.41657e-06
1.20879e-06
1.20948e-06
1.21619e-06
1.21607e-06
1.20591e-06
1.21205e-06
1.21097e-06
1.41586e-06
1.42119e-06
1.20305e-06
1.21552e-06
1.21287e-06
1.41576e-06
1.42356e-06
1.43075e-06
1.21677e-06
1.21451e-06
1.22732e-06
1.2251e-06
1.41884e-06
1.42898e-06
1.21815e-06
1.21663e-06
1.22519e-06
1.2217e-06
1.21403e-06
1.22407e-06
1.22833e-06
1.42297e-06
1.42497e-06
1.21654e-06
1.22249e-06
1.22755e-06
1.4333e-06
1.43456e-06
1.44123e-06
1.23044e-06
1.23e-06
1.23769e-06
1.2392e-06
1.43451e-06
1.44446e-06
1.22772e-06
1.2258e-06
1.23746e-06
1.24256e-06
1.23308e-06
1.24159e-06
1.2404e-06
1.42955e-06
1.448e-06
1.23133e-06
1.2442e-06
1.23908e-06
1.44402e-06
1.44494e-06
1.45419e-06
1.24086e-06
1.24088e-06
1.25126e-06
1.2472e-06
1.44697e-06
1.44865e-06
1.24176e-06
1.24651e-06
1.25257e-06
1.25014e-06
1.24141e-06
1.24524e-06
1.24695e-06
1.45252e-06
1.45253e-06
1.24051e-06
1.24842e-06
1.24689e-06
1.44816e-06
1.45712e-06
1.45467e-06
1.25318e-06
1.2492e-06
1.2542e-06
1.25251e-06
1.45115e-06
1.45324e-06
1.25389e-06
1.24998e-06
1.25366e-06
1.24901e-06
1.24992e-06
1.25151e-06
1.25542e-06
1.45366e-06
1.44748e-06
1.24967e-06
1.24776e-06
1.25309e-06
1.45729e-06
1.45604e-06
1.46117e-06
1.25432e-06
1.25378e-06
1.26009e-06
1.26084e-06
1.4557e-06
1.46236e-06
1.25356e-06
1.2492e-06
1.25837e-06
1.257e-06
1.25577e-06
1.26043e-06
1.25948e-06
1.4493e-06
1.45934e-06
1.25349e-06
1.25886e-06
1.25935e-06
1.46119e-06
1.4657e-06
1.47154e-06
1.26341e-06
1.26284e-06
1.26876e-06
1.26484e-06
1.46564e-06
1.46604e-06
1.26189e-06
1.26142e-06
1.2693e-06
1.27053e-06
1.26179e-06
1.26419e-06
1.26526e-06
1.46491e-06
1.47401e-06
1.26236e-06
1.27004e-06
1.26631e-06
1.46767e-06
1.47328e-06
1.47595e-06
1.26907e-06
1.2655e-06
1.27277e-06
1.27289e-06
1.46804e-06
1.47729e-06
1.26984e-06
1.27119e-06
1.27306e-06
1.27399e-06
1.26626e-06
1.2735e-06
1.27446e-06
1.4762e-06
1.47849e-06
1.26703e-06
1.27292e-06
1.27362e-06
1.47772e-06
1.47962e-06
1.47713e-06
1.27485e-06
1.27555e-06
1.2753e-06
1.2754e-06
1.48201e-06
1.47809e-06
1.27468e-06
1.27493e-06
1.27428e-06
1.27294e-06
1.27701e-06
1.27584e-06
1.2763e-06
1.48133e-06
1.47438e-06
1.27578e-06
1.27255e-06
1.27486e-06
1.47801e-06
1.47755e-06
1.46191e-06
1.27211e-06
1.27167e-06
1.26341e-06
1.26318e-06
1.47834e-06
1.46183e-06
1.27084e-06
1.26924e-06
1.26244e-06
1.26147e-06
1.27222e-06
1.26334e-06
1.26302e-06
1.47457e-06
1.45869e-06
1.2709e-06
1.26142e-06
1.26225e-06
1.46143e-06
1.46349e-06
1.48281e-06
1.26298e-06
1.2629e-06
1.27377e-06
1.27489e-06
1.46355e-06
1.48461e-06
1.26208e-06
1.26136e-06
1.27347e-06
1.27494e-06
1.26262e-06
1.27499e-06
1.27413e-06
1.46075e-06
1.48485e-06
1.26198e-06
1.27528e-06
1.27441e-06
1.48367e-06
1.49246e-06
1.52118e-06
1.28162e-06
1.283e-06
1.302e-06
1.30338e-06
1.49453e-06
1.52344e-06
1.28148e-06
1.28354e-06
1.30196e-06
1.3038e-06
1.28224e-06
1.30348e-06
1.30292e-06
1.49521e-06
1.52418e-06
1.28273e-06
1.30413e-06
1.30332e-06
1.52274e-06
1.5257e-06
1.50624e-06
1.30395e-06
1.30522e-06
1.29279e-06
1.2934e-06
1.52784e-06
1.50704e-06
1.30392e-06
1.30553e-06
1.29281e-06
1.29342e-06
1.30485e-06
1.29351e-06
1.29338e-06
1.52851e-06
1.50746e-06
1.30518e-06
1.29355e-06
1.29348e-06
1.50715e-06
1.5028e-06
1.42558e-06
1.28041e-06
1.28087e-06
1.2327e-06
1.23268e-06
1.50343e-06
1.42518e-06
1.28042e-06
1.28089e-06
1.23266e-06
1.23263e-06
1.28091e-06
1.23275e-06
1.23292e-06
1.50382e-06
1.42534e-06
1.28098e-06
1.2327e-06
1.23287e-06
1.42579e-06
1.4214e-06
1.38733e-06
1.21852e-06
1.21847e-06
1.19668e-06
1.19662e-06
1.42097e-06
1.38696e-06
1.21845e-06
1.21842e-06
1.19652e-06
1.19654e-06
1.2187e-06
1.19665e-06
1.19679e-06
1.42111e-06
1.38693e-06
1.21865e-06
1.19661e-06
1.19673e-06
1.38736e-06
1.38874e-06
1.41088e-06
1.19544e-06
1.1954e-06
1.20713e-06
1.20721e-06
1.38841e-06
1.41106e-06
1.19526e-06
1.1953e-06
1.20687e-06
1.20707e-06
1.19556e-06
1.20724e-06
1.20733e-06
1.38835e-06
1.41087e-06
1.19549e-06
1.20716e-06
1.20722e-06
1.41114e-06
1.42213e-06
1.48527e-06
1.21739e-06
1.21753e-06
1.26336e-06
1.26352e-06
1.42239e-06
1.48569e-06
1.21713e-06
1.2174e-06
1.26313e-06
1.26351e-06
1.21763e-06
1.26355e-06
1.26364e-06
1.42219e-06
1.48563e-06
1.21751e-06
1.26358e-06
1.2635e-06
1.4857e-06
1.50304e-06
1.5812e-06
1.28163e-06
1.28176e-06
1.33581e-06
1.33585e-06
1.50345e-06
1.58145e-06
1.2814e-06
1.2818e-06
1.33561e-06
1.33597e-06
1.2819e-06
1.33587e-06
1.336e-06
1.50341e-06
1.58155e-06
1.28174e-06
1.33599e-06
1.33583e-06
1.58152e-06
1.5974e-06
1.63378e-06
1.35054e-06
1.35054e-06
1.37315e-06
1.37306e-06
1.59761e-06
1.6338e-06
1.35034e-06
1.35068e-06
1.37298e-06
1.37323e-06
1.3507e-06
1.37309e-06
1.37326e-06
1.59772e-06
1.63397e-06
1.35052e-06
1.37322e-06
1.37308e-06
1.63397e-06
1.63692e-06
1.58694e-06
1.37347e-06
1.37337e-06
1.34419e-06
1.34402e-06
1.63691e-06
1.58678e-06
1.3733e-06
1.37354e-06
1.34405e-06
1.34418e-06
1.37357e-06
1.34406e-06
1.34425e-06
1.63707e-06
1.58693e-06
1.37339e-06
1.34419e-06
1.34409e-06
1.58703e-06
1.57965e-06
1.4697e-06
1.32569e-06
1.32551e-06
1.26012e-06
1.25996e-06
1.57949e-06
1.46958e-06
1.32555e-06
1.32566e-06
1.25998e-06
1.26008e-06
1.32575e-06
1.26002e-06
1.26018e-06
1.57963e-06
1.46968e-06
1.32559e-06
1.26013e-06
1.26002e-06
1.46979e-06
1.46226e-06
1.38369e-06
1.24005e-06
1.23989e-06
1.1918e-06
1.19165e-06
1.46214e-06
1.38362e-06
1.23991e-06
1.24001e-06
1.19163e-06
1.19175e-06
1.24011e-06
1.1917e-06
1.19184e-06
1.46224e-06
1.3837e-06
1.23995e-06
1.19179e-06
1.19167e-06
1.38378e-06
1.38098e-06
1.35327e-06
1.18033e-06
1.18019e-06
1.15849e-06
1.15836e-06
1.38092e-06
1.35323e-06
1.18016e-06
1.18029e-06
1.1583e-06
1.15845e-06
1.18037e-06
1.15837e-06
1.15852e-06
1.38098e-06
1.3533e-06
1.1802e-06
1.15846e-06
1.15834e-06
1.35337e-06
1.35419e-06
1.35878e-06
1.15477e-06
1.15465e-06
1.15097e-06
1.15086e-06
1.35416e-06
1.35876e-06
1.15458e-06
1.15474e-06
1.15079e-06
1.15096e-06
1.1548e-06
1.15085e-06
1.151e-06
1.35422e-06
1.35883e-06
1.15462e-06
1.15093e-06
1.15082e-06
1.35889e-06
1.36363e-06
1.37636e-06
1.15166e-06
1.15155e-06
1.1551e-06
1.15499e-06
1.36361e-06
1.37633e-06
1.15148e-06
1.15165e-06
1.15493e-06
1.1551e-06
1.15169e-06
1.15497e-06
1.15512e-06
1.36368e-06
1.37641e-06
1.15151e-06
1.15507e-06
1.15495e-06
1.37645e-06
1.38068e-06
1.38727e-06
1.15543e-06
1.15532e-06
1.15481e-06
1.1547e-06
1.38064e-06
1.38724e-06
1.15526e-06
1.15543e-06
1.15465e-06
1.15482e-06
1.15545e-06
1.15469e-06
1.15483e-06
1.38073e-06
1.38733e-06
1.15529e-06
1.15479e-06
1.15467e-06
1.38735e-06
1.39011e-06
1.39139e-06
1.15435e-06
1.15424e-06
1.15207e-06
1.15197e-06
1.39009e-06
1.39137e-06
1.15418e-06
1.15436e-06
1.1519e-06
1.15208e-06
1.15436e-06
1.15195e-06
1.15209e-06
1.39017e-06
1.39146e-06
1.15421e-06
1.15205e-06
1.15193e-06
1.39148e-06
1.3935e-06
1.39282e-06
1.15172e-06
1.15162e-06
1.15026e-06
1.15016e-06
1.39348e-06
1.3928e-06
1.15156e-06
1.15173e-06
1.15009e-06
1.15027e-06
1.15174e-06
1.15014e-06
1.15028e-06
1.39356e-06
1.39289e-06
1.15159e-06
1.15023e-06
1.15012e-06
1.39291e-06
1.3947e-06
1.39305e-06
1.15011e-06
1.15001e-06
1.14936e-06
1.14926e-06
1.39468e-06
1.39303e-06
1.14994e-06
1.15012e-06
1.14919e-06
1.14937e-06
1.15013e-06
1.14924e-06
1.14938e-06
1.39476e-06
1.39312e-06
1.14997e-06
1.14934e-06
1.14922e-06
1.39313e-06
1.39488e-06
1.39287e-06
1.14932e-06
1.14922e-06
1.14888e-06
1.14878e-06
1.39486e-06
1.39285e-06
1.14915e-06
1.14933e-06
1.14872e-06
1.14889e-06
1.14934e-06
1.14876e-06
1.1489e-06
1.39494e-06
1.39293e-06
1.14918e-06
1.14886e-06
1.14874e-06
1.39295e-06
1.39463e-06
1.39277e-06
1.14893e-06
1.14883e-06
1.14869e-06
1.14859e-06
1.39461e-06
1.39276e-06
1.14876e-06
1.14894e-06
1.14852e-06
1.1487e-06
1.14894e-06
1.14857e-06
1.14871e-06
1.39469e-06
1.39284e-06
1.14878e-06
1.14866e-06
1.14855e-06
1.39286e-06
1.3946e-06
1.39279e-06
1.14884e-06
1.14874e-06
1.14831e-06
1.14821e-06
1.39459e-06
1.39276e-06
1.14867e-06
1.14885e-06
1.14814e-06
1.14831e-06
1.14886e-06
1.14819e-06
1.14832e-06
1.39467e-06
1.39285e-06
1.1487e-06
1.14827e-06
1.14815e-06
1.39286e-06
1.3945e-06
1.37414e-06
1.14858e-06
1.14848e-06
1.12843e-06
1.12829e-06
1.39448e-06
1.37411e-06
1.1484e-06
1.14858e-06
1.12832e-06
1.12835e-06
1.14859e-06
1.12838e-06
1.12838e-06
1.39456e-06
1.37416e-06
1.14843e-06
1.12843e-06
1.12827e-06
1.37414e-06
1.35303e-06
1.09471e-06
1.09457e-06
1.353e-06
1.09463e-06
1.09463e-06
6.47424e-07
6.47466e-07
6.47415e-07
1.09464e-06
1.35305e-06
1.09457e-06
7.05629e-09
2.56102e-09
4.29174e-09
4.28412e-09
1.69859e-09
4.16827e-09
3.1322e-09
2.27203e-09
1.53723e-09
4.3896e-09
2.39007e-09
9.15687e-09
5.11474e-09
7.58223e-09
5.55268e-09
7.62951e-09
1.64651e-07
6.0466e-09
2.607e-07
1.56555e-06
3.08805e-06
8.32431e-09
1.64581e-07
6.91732e-09
2.61118e-07
3.07656e-09
3.01941e-09
3.02182e-09
3.02273e-09
3.0554e-09
2.99877e-09
3.00248e-09
1.69335e-09
7.65941e-08
1.66511e-09
3.5015e-09
1.70215e-09
5.54639e-08
1.64872e-09
1.63238e-06
3.22141e-06
1.50003e-09
1.95372e-09
8.20002e-08
4.38383e-09
1.52051e-09
1.92728e-09
6.05885e-08
2.19163e-07
2.17988e-07
4.73329e-09
1.88103e-07
1.78458e-07
1.6977e-08
4.69077e-07
1.26652e-08
6.8022e-07
6.95052e-06
1.00134e-05
1.74472e-08
4.67536e-07
1.33516e-08
6.78367e-07
3.0432e-09
2.98662e-09
2.99177e-09
2.97381e-09
3.00815e-09