/*--------------------------------*- C++ -*----------------------------------*\
| =========                 |                                                 |
| \\      /  F ield         | OpenFOAM: The Open Source CFD Toolbox           |
|  \\    /   O peration     | Version:  v2012                                 |
|   \\  /    A nd           | Website:  www.openfoam.com                      |
|    \\/     M anipulation  |                                                 |
\*---------------------------------------------------------------------------*/
FoamFile
{
    version     2.0;
    format      ascii;
    class       volScalarField;
    location    "337.5";
    object      k;
}
// * * * * * * * * * * * * * * * * * * * * * * * * * * * * * * * * * * * * * //

dimensions      [0 2 -2 0 0 0 0];


internalField   nonuniform List<scalar> 
171728
(
4.52336e-07
2.90822e-07
3.31446e-07
3.50471e-07
4.47621e-07
2.77429e-07
3.14563e-07
3.32447e-07
4.4752e-07
2.65647e-07
2.995e-07
3.15776e-07
4.47644e-07
2.54615e-07
2.85975e-07
3.01407e-07
4.48205e-07
2.44209e-07
2.73509e-07
2.88383e-07
4.49106e-07
2.34786e-07
2.62332e-07
2.76348e-07
4.50598e-07
2.26752e-07
2.52091e-07
2.65192e-07
4.52601e-07
2.19561e-07
2.43095e-07
2.54758e-07
4.55176e-07
2.13484e-07
2.35202e-07
2.44908e-07
4.58241e-07
2.08593e-07
2.2858e-07
2.35707e-07
4.61749e-07
2.04781e-07
2.232e-07
2.27448e-07
4.65744e-07
2.01874e-07
2.18759e-07
2.20528e-07
4.7021e-07
1.99222e-07
2.15467e-07
2.15336e-07
4.75139e-07
1.97875e-07
2.13704e-07
2.12185e-07
4.80287e-07
1.99224e-07
2.14356e-07
2.11831e-07
4.85559e-07
2.04352e-07
2.18199e-07
2.14899e-07
4.91013e-07
2.13978e-07
2.27285e-07
2.23401e-07
4.96618e-07
2.30975e-07
2.46221e-07
2.42222e-07
5.0259e-07
2.64861e-07
2.75161e-07
2.79343e-07
5.08711e-07
3.10281e-07
3.1734e-07
3.52279e-07
5.15112e-07
3.85164e-07
3.97403e-07
4.8838e-07
5.22252e-07
5.05336e-07
5.16464e-07
7.15481e-07
5.30261e-07
6.59117e-07
6.76406e-07
1.14612e-06
5.39462e-07
9.084e-07
9.01094e-07
1.73848e-06
5.51306e-07
1.23897e-06
1.23493e-06
2.63443e-06
5.64704e-07
1.65335e-06
1.65837e-06
3.85431e-06
5.83043e-07
2.14721e-06
2.12016e-06
5.74202e-06
6.04943e-07
2.76572e-06
2.85632e-06
8.12112e-06
6.31413e-07
3.64603e-06
3.50022e-06
9.57217e-06
6.73509e-07
4.40822e-06
4.43536e-06
1.2893e-05
7.19075e-07
5.40102e-06
5.43989e-06
1.53617e-05
7.80854e-07
6.44745e-06
6.55693e-06
1.70177e-05
8.74981e-07
8.05733e-06
7.71851e-06
2.0005e-05
9.65475e-07
8.81111e-06
9.25921e-06
2.15459e-05
1.11333e-06
1.09307e-05
1.04871e-05
2.37107e-05
1.30502e-06
1.16644e-05
1.25014e-05
2.50849e-05
1.51739e-06
1.4209e-05
1.33596e-05
2.69256e-05
1.79679e-06
1.53367e-05
1.59983e-05
2.81145e-05
2.10307e-06
1.71422e-05
1.7287e-05
2.94482e-05
2.53199e-06
1.90582e-05
1.88515e-05
3.07402e-05
3.19512e-06
2.13133e-05
2.1139e-05
3.19357e-05
3.31517e-06
2.25904e-05
2.29083e-05
3.29759e-05
4.29883e-06
2.39152e-05
2.42125e-05
3.42552e-05
4.91956e-06
2.73837e-05
2.65172e-05
3.53483e-05
6.22361e-06
2.82274e-05
2.8561e-05
3.66296e-05
6.5318e-06
2.84738e-05
2.90317e-05
3.72076e-05
8.037e-06
3.20601e-05
3.16444e-05
3.89636e-05
8.91862e-06
3.36348e-05
3.2336e-05
3.94455e-05
1.04967e-05
3.38046e-05
3.49871e-05
4.09562e-05
1.15335e-05
3.58615e-05
3.55527e-05
4.13866e-05
1.2867e-05
3.71588e-05
3.69646e-05
4.2826e-05
1.48551e-05
3.77832e-05
3.78648e-05
4.32881e-05
1.53527e-05
4.00397e-05
4.00013e-05
4.43118e-05
1.81802e-05
4.08765e-05
4.09777e-05
4.56113e-05
1.9231e-05
4.10459e-05
4.11354e-05
4.57183e-05
2.03165e-05
4.28682e-05
4.26793e-05
4.68752e-05
2.21472e-05
4.38422e-05
4.39756e-05
4.74915e-05
2.38334e-05
4.4735e-05
4.46865e-05
4.81494e-05
2.48909e-05
4.55719e-05
4.55948e-05
4.91158e-05
2.66083e-05
4.6459e-05
4.6062e-05
4.9395e-05
2.76323e-05
4.65945e-05
4.72494e-05
5.01676e-05
2.90289e-05
4.84984e-05
4.80452e-05
5.09305e-05
3.05641e-05
4.87668e-05
4.89105e-05
5.10135e-05
3.15743e-05
4.88656e-05
4.89733e-05
5.19195e-05
3.25865e-05
5.03888e-05
5.03732e-05
5.26449e-05
3.392e-05
5.0664e-05
5.10475e-05
5.27124e-05
3.52398e-05
5.09733e-05
5.0919e-05
5.33907e-05
3.54553e-05
5.16811e-05
5.12335e-05
5.35654e-05
3.68601e-05
5.20977e-05
5.24971e-05
5.40296e-05
3.77025e-05
5.26799e-05
5.28326e-05
5.45699e-05
3.87685e-05
5.33791e-05
5.3202e-05
5.52059e-05
3.92418e-05
5.28158e-05
5.26076e-05
5.42528e-05
3.91782e-05
5.28031e-05
5.27107e-05
5.45944e-05
4.11828e-05
5.55432e-05
5.56263e-05
5.72825e-05
4.34316e-05
5.65449e-05
5.6596e-05
5.82114e-05
4.27392e-05
5.37648e-05
5.37742e-05
5.48841e-05
3.89773e-05
5.04692e-05
5.04722e-05
5.17893e-05
3.75023e-05
4.99626e-05
4.99579e-05
5.18045e-05
3.95672e-05
5.29214e-05
5.29151e-05
5.47046e-05
4.50582e-05
5.7584e-05
5.75864e-05
5.9188e-05
4.93083e-05
6.12936e-05
6.12991e-05
6.291e-05
5.0585e-05
6.18465e-05
6.18522e-05
6.30059e-05
4.72562e-05
5.69356e-05
5.694e-05
5.78669e-05
4.16824e-05
5.22441e-05
5.22477e-05
5.33921e-05
3.86263e-05
5.01756e-05
5.01785e-05
5.15791e-05
3.81903e-05
5.01853e-05
5.01876e-05
5.19556e-05
4.01658e-05
5.15509e-05
5.15539e-05
5.32323e-05
4.13251e-05
5.20346e-05
5.20379e-05
5.38067e-05
4.16281e-05
5.2059e-05
5.20622e-05
5.39357e-05
4.1688e-05
5.20126e-05
5.20158e-05
5.39593e-05
4.16933e-05
5.19784e-05
5.19814e-05
5.39563e-05
4.16776e-05
5.1949e-05
5.1952e-05
5.39382e-05
4.16637e-05
5.19374e-05
5.19404e-05
5.39225e-05
4.16527e-05
5.19216e-05
5.19244e-05
5.393e-05
4.1276e-05
5.08555e-05
5.08578e-05
5.36103e-05
3.60194e-07
3.46288e-07
3.36478e-07
3.50813e-07
3.46664e-07
3.4725e-07
4.57767e-07
4.52966e-07
4.53992e-07
4.53568e-07
3.34979e-07
3.44486e-07
3.58453e-07
3.43959e-07
3.12581e-07
3.51308e-07
3.5903e-07
3.42241e-07
3.45491e-07
3.44888e-07
3.31462e-07
3.33571e-07
3.49866e-07
3.33098e-07
3.5116e-07
3.45948e-07
3.37375e-07
3.3258e-07
3.46271e-07
2.80606e-07
3.32567e-07
3.57467e-07
3.4072e-07
2.64316e-07
3.18636e-07
2.59498e-07
3.33586e-07
3.40823e-07
3.25125e-07
3.26789e-07
3.30297e-07
3.14051e-07
3.19963e-07
3.31917e-07
3.17235e-07
3.32983e-07
3.28301e-07
3.20771e-07
3.16136e-07
3.28156e-07
2.6848e-07
3.15772e-07
3.39386e-07
3.23716e-07
2.58435e-07
3.03051e-07
2.54911e-07
3.16812e-07
3.23852e-07
3.0959e-07
3.10184e-07
3.16872e-07
2.99066e-07
3.10654e-07
3.15589e-07
3.03163e-07
3.16891e-07
3.12154e-07
3.05308e-07
3.00593e-07
3.1186e-07
2.57268e-07
3.00705e-07
3.22454e-07
3.08451e-07
2.53576e-07
2.89197e-07
2.49543e-07
3.0243e-07
3.08437e-07
2.95197e-07
2.956e-07
3.09204e-07
2.85871e-07
3.06839e-07
3.01055e-07
2.89771e-07
3.01472e-07
2.96864e-07
2.90669e-07
2.86553e-07
2.97165e-07
2.46732e-07
2.87128e-07
3.07301e-07
2.94526e-07
2.4816e-07
2.76477e-07
2.43728e-07
2.89344e-07
2.9414e-07
2.82092e-07
2.82744e-07
3.06768e-07
2.73846e-07
3.07058e-07
2.87649e-07
2.78509e-07
2.87245e-07
2.83262e-07
2.77689e-07
2.7411e-07
2.83873e-07
2.36967e-07
2.74979e-07
2.93501e-07
2.81628e-07
2.4221e-07
2.65085e-07
2.37864e-07
2.77183e-07
2.81133e-07
2.70397e-07
2.70903e-07
3.07502e-07
2.62773e-07
3.12045e-07
2.76743e-07
2.69891e-07
2.74623e-07
2.71197e-07
2.66118e-07
2.62969e-07
2.72175e-07
2.28656e-07
2.64353e-07
2.80701e-07
2.69648e-07
2.36572e-07
2.54576e-07
2.33152e-07
2.65965e-07
2.69539e-07
2.59785e-07
2.60254e-07
3.1392e-07
2.53119e-07
3.20115e-07
2.68618e-07
2.64505e-07
2.63362e-07
2.60364e-07
2.55705e-07
2.53246e-07
2.61946e-07
2.21236e-07
2.54921e-07
2.68797e-07
2.58612e-07
2.32176e-07
2.45158e-07
2.29055e-07
2.5548e-07
2.58991e-07
2.4997e-07
2.5094e-07
3.2318e-07
2.44812e-07
3.31279e-07
2.6367e-07
2.61793e-07
2.53209e-07
2.51114e-07
2.46344e-07
2.45095e-07
2.52674e-07
2.1488e-07
2.46342e-07
2.57827e-07
2.48633e-07
2.27945e-07
2.3707e-07
2.24724e-07
2.45582e-07
2.49253e-07
2.40963e-07
2.43022e-07
3.34083e-07
2.37934e-07
3.5195e-07
2.61438e-07
2.62174e-07
2.44163e-07
2.43259e-07
2.38309e-07
2.38151e-07
2.44298e-07
2.09655e-07
2.38803e-07
2.47941e-07
2.39859e-07
2.23776e-07
2.3017e-07
2.21075e-07
2.36297e-07
2.40336e-07
2.32964e-07
2.36273e-07
3.60884e-07
2.31715e-07
3.84427e-07
2.62156e-07
2.64519e-07
2.3654e-07
2.36541e-07
2.31918e-07
2.32381e-07
2.37096e-07
2.05652e-07
2.32725e-07
2.3929e-07
2.31985e-07
2.20365e-07
2.24434e-07
2.18594e-07
2.27954e-07
2.32474e-07
2.2621e-07
2.30347e-07
3.88419e-07
2.26483e-07
3.89129e-07
2.64431e-07
2.63663e-07
2.30594e-07
2.31068e-07
2.27044e-07
2.27761e-07
2.31318e-07
2.02585e-07
2.27845e-07
2.31497e-07
2.24879e-07
2.18148e-07
2.19735e-07
2.17244e-07
2.20855e-07
2.25879e-07
2.20483e-07
2.25351e-07
3.82295e-07
2.22412e-07
3.04987e-07
2.62314e-07
2.28897e-07
2.26061e-07
2.26771e-07
2.2359e-07
2.24489e-07
2.26744e-07
1.99789e-07
2.2411e-07
2.24566e-07
2.19205e-07
2.17018e-07
2.16264e-07
2.17049e-07
2.15436e-07
2.20333e-07
2.15789e-07
2.21555e-07
2.80284e-07
2.19959e-07
2.21869e-07
2.26636e-07
2.05444e-07
2.22943e-07
2.24008e-07
2.21694e-07
2.22921e-07
2.23346e-07
1.97993e-07
2.21815e-07
2.19089e-07
2.14789e-07
2.1724e-07
2.14035e-07
2.18727e-07
2.12008e-07
2.15886e-07
2.12989e-07
2.19585e-07
2.08287e-07
2.19597e-07
1.83659e-07
2.04686e-07
1.95722e-07
2.21626e-07
2.22733e-07
2.22186e-07
2.23001e-07
2.21517e-07
1.98561e-07
2.21824e-07
2.14911e-07
2.12274e-07
2.19621e-07
2.14002e-07
2.23665e-07
2.11089e-07
2.13543e-07
2.13539e-07
2.19913e-07
1.80162e-07
2.22401e-07
1.78703e-07
1.9615e-07
1.94908e-07
2.2262e-07
2.23269e-07
2.25348e-07
2.25592e-07
2.2219e-07
2.02711e-07
2.24794e-07
2.12781e-07
2.12789e-07
2.25373e-07
2.16963e-07
2.31293e-07
2.13242e-07
2.14993e-07
2.19196e-07
2.23881e-07
1.79543e-07
2.30321e-07
1.86399e-07
1.96537e-07
1.99447e-07
2.26898e-07
2.26642e-07
2.33198e-07
2.32926e-07
2.26248e-07
2.1052e-07
2.32502e-07
2.14154e-07
2.18268e-07
2.33821e-07
2.24915e-07
2.42931e-07
2.19884e-07
2.2238e-07
2.34232e-07
2.33164e-07
1.91054e-07
2.45698e-07
2.05288e-07
2.03343e-07
2.14582e-07
2.36012e-07
2.35228e-07
2.48621e-07
2.48131e-07
2.35688e-07
2.25946e-07
2.4716e-07
2.21406e-07
2.32642e-07
2.47073e-07
2.40759e-07
2.62657e-07
2.35464e-07
2.40408e-07
2.64454e-07
2.50685e-07
2.11083e-07
2.71501e-07
2.3591e-07
2.20735e-07
2.48129e-07
2.53625e-07
2.53623e-07
2.74026e-07
2.71073e-07
2.52839e-07
2.54839e-07
2.72506e-07
2.39851e-07
2.59297e-07
2.69546e-07
2.63372e-07
2.93773e-07
2.67505e-07
2.76741e-07
3.23367e-07
2.81003e-07
2.4682e-07
3.12889e-07
2.78429e-07
2.60741e-07
3.02086e-07
2.83478e-07
2.83379e-07
3.15475e-07
3.13894e-07
2.81243e-07
2.9342e-07
3.16093e-07
2.72007e-07
3.26265e-07
3.0384e-07
3.06575e-07
3.43435e-07
3.31836e-07
3.42966e-07
4.42805e-07
3.27097e-07
2.96337e-07
3.83866e-07
3.5601e-07
3.21601e-07
4.37218e-07
3.29722e-07
3.25594e-07
3.85115e-07
3.87692e-07
3.2856e-07
3.65912e-07
3.83908e-07
3.39864e-07
4.45591e-07
3.57352e-07
3.78463e-07
4.17855e-07
4.48e-07
4.78713e-07
6.38744e-07
4.04525e-07
3.75681e-07
4.8278e-07
4.60827e-07
4.65195e-07
6.39266e-07
4.05621e-07
4.06689e-07
4.84715e-07
4.87779e-07
4.05256e-07
4.68684e-07
4.83966e-07
4.8785e-07
6.29087e-07
4.40919e-07
4.78093e-07
5.24911e-07
6.51767e-07
7.00992e-07
1.00266e-06
5.18333e-07
4.99064e-07
6.33478e-07
6.16505e-07
7.05622e-07
1.0114e-06
5.19708e-07
5.25173e-07
6.33232e-07
6.31554e-07
5.15361e-07
6.18513e-07
6.43159e-07
7.01742e-07
9.82275e-07
5.57517e-07
6.22673e-07
6.9324e-07
1.02997e-06
1.09133e-06
1.58946e-06
6.80255e-07
6.58896e-07
8.51594e-07
8.52647e-07
1.09708e-06
1.62074e-06
6.81146e-07
6.87736e-07
8.51593e-07
8.44866e-07
6.84793e-07
8.51346e-07
8.56378e-07
1.0571e-06
1.60258e-06
7.37941e-07
8.36764e-07
9.06484e-07
1.55562e-06
1.73633e-06
2.42978e-06
9.13725e-07
9.08655e-07
1.15024e-06
1.16259e-06
1.8293e-06
2.35613e-06
9.12968e-07
9.09829e-07
1.14901e-06
1.16355e-06
9.1819e-07
1.15195e-06
1.16033e-06
1.71356e-06
2.49781e-06
9.69124e-07
1.15578e-06
1.22422e-06
2.39655e-06
2.66502e-06
3.6803e-06
1.23826e-06
1.25241e-06
1.54781e-06
1.52372e-06
2.65545e-06
3.54168e-06
1.23791e-06
1.24192e-06
1.5437e-06
1.53418e-06
1.24434e-06
1.51621e-06
1.54655e-06
2.72617e-06
3.6258e-06
1.30529e-06
1.52326e-06
1.6057e-06
3.65262e-06
3.94864e-06
5.28061e-06
1.65318e-06
1.65714e-06
2.02659e-06
2.00755e-06
3.70379e-06
5.5726e-06
1.64382e-06
1.66692e-06
2.03476e-06
2.01178e-06
1.69332e-06
1.97944e-06
1.9631e-06
3.93707e-06
5.31534e-06
1.75922e-06
2.00301e-06
2.02049e-06
5.50081e-06
5.63537e-06
7.37723e-06
2.18503e-06
2.17955e-06
2.62005e-06
2.69679e-06
5.82092e-06
7.49423e-06
2.18905e-06
2.13097e-06
2.60637e-06
2.69973e-06
2.11883e-06
2.69368e-06
2.74853e-06
5.63772e-06
7.2768e-06
2.17007e-06
2.68939e-06
2.78284e-06
7.49096e-06
7.7841e-06
9.56668e-06
2.78011e-06
2.76751e-06
3.36858e-06
3.33595e-06
8.05797e-06
9.21836e-06
2.78213e-06
2.86016e-06
3.36658e-06
3.28244e-06
2.82688e-06
3.26645e-06
3.35756e-06
7.7754e-06
9.62128e-06
2.86234e-06
3.26921e-06
3.37741e-06
9.14108e-06
1.00799e-05
1.20681e-05
3.54663e-06
3.70613e-06
4.19367e-06
4.38009e-06
9.83299e-06
1.28277e-05
3.51917e-06
3.52265e-06
4.1747e-06
4.22077e-06
3.6343e-06
4.35865e-06
4.11894e-06
9.89237e-06
1.2294e-05
3.61162e-06
4.22951e-06
4.14965e-06
1.2518e-05
1.25408e-05
1.47387e-05
4.45172e-06
4.4248e-06
5.17294e-06
4.88687e-06
1.30239e-05
1.34581e-05
4.46663e-06
4.40343e-06
5.17933e-06
5.26154e-06
4.44658e-06
4.82068e-06
5.30427e-06
1.2974e-05
1.44224e-05
4.46502e-06
5.18518e-06
5.2887e-06
1.47457e-05
1.5259e-05
1.67763e-05
5.40989e-06
5.47442e-06
6.20773e-06
6.32268e-06
1.41499e-05
1.77895e-05
5.38236e-06
5.51007e-06
6.19412e-06
6.14643e-06
5.38905e-06
6.28796e-06
6.28131e-06
1.49156e-05
1.70754e-05
5.37732e-06
6.20217e-06
6.14005e-06
1.64923e-05
1.72819e-05
1.9402e-05
6.52274e-06
6.50648e-06
7.57321e-06
7.77032e-06
1.81482e-05
1.91397e-05
6.52494e-06
6.52389e-06
7.5502e-06
7.58994e-06
6.68276e-06
7.70772e-06
7.53191e-06
1.74949e-05
1.92489e-05
6.57655e-06
7.52571e-06
7.61193e-06
1.96843e-05
1.98595e-05
2.1185e-05
7.87504e-06
8.05721e-06
8.67997e-06
8.49341e-06
1.97373e-05
2.12968e-05
7.84941e-06
7.75737e-06
8.68535e-06
8.71314e-06
7.87251e-06
8.49289e-06
8.65148e-06
1.96807e-05
2.12825e-05
7.79805e-06
8.73617e-06
8.5783e-06
2.09694e-05
2.16157e-05
2.31951e-05
9.0916e-06
8.95621e-06
1.0361e-05
1.07041e-05
2.15923e-05
2.33671e-05
9.08147e-06
9.29516e-06
1.03083e-05
1.03545e-05
9.03128e-06
1.05978e-05
1.05284e-05
2.17277e-05
2.33297e-05
9.04592e-06
1.02654e-05
1.04003e-05
2.33814e-05
2.35795e-05
2.48849e-05
1.05971e-05
1.09615e-05
1.17039e-05
1.13383e-05
2.38489e-05
2.46313e-05
1.05672e-05
1.05084e-05
1.17177e-05
1.19134e-05
1.08421e-05
1.13255e-05
1.15896e-05
2.37735e-05
2.48081e-05
1.0795e-05
1.19521e-05
1.15135e-05
2.47452e-05
2.53202e-05
2.64323e-05
1.23368e-05
1.17932e-05
1.35998e-05
1.39308e-05
2.49382e-05
2.66624e-05
1.23368e-05
1.24973e-05
1.35694e-05
1.32533e-05
1.20745e-05
1.38528e-05
1.34738e-05
2.51747e-05
2.63584e-05
1.18583e-05
1.32004e-05
1.3652e-05
2.64896e-05
2.67354e-05
2.77178e-05
1.37232e-05
1.41979e-05
1.5093e-05
1.48045e-05
2.70178e-05
2.76799e-05
1.36909e-05
1.34401e-05
1.49624e-05
1.53883e-05
1.38315e-05
1.47381e-05
1.52864e-05
2.66634e-05
2.79276e-05
1.404e-05
1.54257e-05
1.49051e-05
2.78152e-05
2.81108e-05
2.91108e-05
1.57902e-05
1.55476e-05
1.68574e-05
1.70635e-05
2.7994e-05
2.91662e-05
1.57533e-05
1.58877e-05
1.6926e-05
1.69152e-05
1.5725e-05
1.69916e-05
1.66685e-05
2.83652e-05
2.914e-05
1.54619e-05
1.70295e-05
1.68775e-05
2.91348e-05
2.93776e-05
3.05348e-05
1.71067e-05
1.71892e-05
1.86248e-05
1.85919e-05
2.94123e-05
3.02857e-05
1.70612e-05
1.72572e-05
1.86211e-05
1.84152e-05
1.71257e-05
1.83998e-05
1.87127e-05
2.93626e-05
3.0252e-05
1.71927e-05
1.8297e-05
1.86681e-05
3.0418e-05
3.09484e-05
3.18137e-05
1.93685e-05
1.94553e-05
2.10739e-05
2.08206e-05
3.07066e-05
3.18735e-05
1.94038e-05
1.89819e-05
2.10644e-05
2.07369e-05
1.91401e-05
2.06905e-05
2.06751e-05
3.06214e-05
3.17866e-05
1.91098e-05
2.06329e-05
2.03252e-05
3.16409e-05
3.19836e-05
3.24276e-05
2.12879e-05
2.12754e-05
2.1709e-05
2.2215e-05
3.21439e-05
3.25847e-05
2.12603e-05
2.11192e-05
2.15938e-05
2.23182e-05
2.12137e-05
2.25086e-05
2.20113e-05
3.20775e-05
3.2838e-05
2.09811e-05
2.2464e-05
2.2505e-05
3.27489e-05
3.26863e-05
3.39418e-05
2.22242e-05
2.22885e-05
2.41037e-05
2.31523e-05
3.26664e-05
3.33473e-05
2.20225e-05
2.28742e-05
2.41931e-05
2.40849e-05
2.23077e-05
2.30584e-05
2.43282e-05
3.30846e-05
3.38027e-05
2.26541e-05
2.39473e-05
2.37076e-05
3.38852e-05
3.42608e-05
3.52271e-05
2.45474e-05
2.41963e-05
2.5971e-05
2.70375e-05
3.40325e-05
3.62037e-05
2.46696e-05
2.42976e-05
2.58439e-05
2.56651e-05
2.49411e-05
2.68109e-05
2.56983e-05
3.40244e-05
3.50621e-05
2.45988e-05
2.57409e-05
2.60533e-05
3.5155e-05
3.55168e-05
3.63947e-05
2.66198e-05
2.75685e-05
2.82494e-05
2.81942e-05
3.63441e-05
3.60069e-05
2.64236e-05
2.644e-05
2.82014e-05
2.83992e-05
2.60579e-05
2.81488e-05
2.80265e-05
3.54694e-05
3.65895e-05
2.62322e-05
2.83344e-05
2.78973e-05
3.63293e-05
3.65595e-05
3.69418e-05
2.84838e-05
2.82538e-05
2.87423e-05
2.83446e-05
3.60434e-05
3.65372e-05
2.85106e-05
2.86849e-05
2.88562e-05
2.89161e-05
2.85353e-05
2.83352e-05
2.90315e-05
3.67218e-05
3.68602e-05
2.84454e-05
2.87842e-05
2.90106e-05
3.70624e-05
3.71505e-05
3.86225e-05
2.89828e-05
2.84747e-05
3.1378e-05
3.12029e-05
3.68037e-05
3.87217e-05
2.91641e-05
2.90579e-05
3.11751e-05
3.12764e-05
2.91753e-05
3.1135e-05
3.1221e-05
3.7041e-05
3.86734e-05
2.91797e-05
3.12892e-05
3.12502e-05
3.86332e-05
3.88567e-05
3.93667e-05
3.18894e-05
3.21151e-05
3.23999e-05
3.35185e-05
3.91748e-05
4.00892e-05
3.14952e-05
3.18622e-05
3.23978e-05
3.24088e-05
3.18662e-05
3.35183e-05
3.25285e-05
3.89082e-05
3.91434e-05
3.18203e-05
3.20056e-05
3.2359e-05
3.93264e-05
3.95845e-05
4.05544e-05
3.27012e-05
3.3644e-05
3.41853e-05
3.37987e-05
4.01652e-05
4.01419e-05
3.29114e-05
3.25095e-05
3.44102e-05
3.41958e-05
3.26566e-05
3.3714e-05
3.42462e-05
3.92908e-05
4.082e-05
3.25259e-05
3.45581e-05
3.43223e-05
4.06847e-05
4.07081e-05
4.12374e-05
3.44722e-05
3.39443e-05
3.514e-05
3.516e-05
4.02725e-05
4.13825e-05
3.46601e-05
3.48345e-05
3.50164e-05
3.55304e-05
3.4774e-05
3.52625e-05
3.53621e-05
4.11215e-05
4.14314e-05
3.47915e-05
3.53691e-05
3.52393e-05
4.12721e-05
4.14685e-05
4.25421e-05
3.55103e-05
3.57482e-05
3.70144e-05
3.7128e-05
4.17018e-05
4.2515e-05
3.53234e-05
3.56688e-05
3.6871e-05
3.67556e-05
3.54611e-05
3.70369e-05
3.68257e-05
4.15294e-05
4.23728e-05
3.53362e-05
3.67919e-05
3.68027e-05
4.25386e-05
4.27621e-05
4.31903e-05
3.74313e-05
3.73172e-05
3.79395e-05
3.75624e-05
4.26119e-05
4.28674e-05
3.73682e-05
3.69871e-05
3.80839e-05
3.75811e-05
3.73597e-05
3.7423e-05
3.80735e-05
4.25005e-05
4.28078e-05
3.73792e-05
3.74693e-05
3.81954e-05
4.32141e-05
4.32893e-05
4.4124e-05
3.79952e-05
3.78077e-05
3.897e-05
3.94611e-05
4.30962e-05
4.4631e-05
3.81433e-05
3.79427e-05
3.89038e-05
3.94348e-05
3.81187e-05
3.9523e-05
3.86758e-05
4.30767e-05
4.46266e-05
3.82487e-05
3.94877e-05
3.86385e-05
4.39433e-05
4.44944e-05
4.54545e-05
3.96069e-05
3.99894e-05
4.09782e-05
4.08376e-05
4.49183e-05
4.52531e-05
3.94915e-05
3.99342e-05
4.08998e-05
4.08416e-05
3.93609e-05
4.0833e-05
4.09782e-05
4.49122e-05
4.53092e-05
3.9243e-05
4.08993e-05
4.09226e-05
4.5501e-05
4.55336e-05
4.55713e-05
4.11422e-05
4.08936e-05
4.12443e-05
4.09387e-05
4.52698e-05
4.52776e-05
4.10873e-05
4.09239e-05
4.12408e-05
4.09963e-05
4.12e-05
4.09008e-05
4.13391e-05
4.53369e-05
4.53134e-05
4.11826e-05
4.10269e-05
4.13591e-05
4.5647e-05
4.56929e-05
4.65742e-05
4.13109e-05
4.10906e-05
4.2319e-05
4.26171e-05
4.55228e-05
4.68572e-05
4.13655e-05
4.1139e-05
4.2372e-05
4.25503e-05
4.14003e-05
4.26727e-05
4.24287e-05
4.55117e-05
4.6801e-05
4.1406e-05
4.24719e-05
4.24603e-05
4.66963e-05
4.67334e-05
4.73882e-05
4.26471e-05
4.27866e-05
4.34796e-05
4.34586e-05
4.69611e-05
4.7343e-05
4.26466e-05
4.27909e-05
4.34529e-05
4.35434e-05
4.26361e-05
4.33839e-05
4.34546e-05
4.69253e-05
4.74388e-05
4.27809e-05
4.35923e-05
4.34304e-05
4.73074e-05
4.75771e-05
4.81535e-05
4.37342e-05
4.38594e-05
4.45467e-05
4.46e-05
4.76126e-05
4.82504e-05
4.37086e-05
4.38338e-05
4.4523e-05
4.45748e-05
4.38437e-05
4.46824e-05
4.44368e-05
4.76816e-05
4.82756e-05
4.36654e-05
4.45635e-05
4.4314e-05
4.80429e-05
4.82866e-05
4.86071e-05
4.47608e-05
4.4659e-05
4.51275e-05
4.5173e-05
4.8294e-05
4.86601e-05
4.4772e-05
4.48084e-05
4.51469e-05
4.53573e-05
4.45028e-05
4.5107e-05
4.5308e-05
4.83688e-05
4.87559e-05
4.45749e-05
4.53823e-05
4.5571e-05
4.89057e-05
4.87245e-05
4.95569e-05
4.5358e-05
4.55556e-05
4.63953e-05
4.63174e-05
4.89359e-05
4.94605e-05
4.53128e-05
4.54787e-05
4.62972e-05
4.60203e-05
4.57194e-05
4.641e-05
4.64029e-05
4.88857e-05
4.91808e-05
4.58138e-05
4.58996e-05
4.60396e-05
4.9368e-05
4.97201e-05
4.98401e-05
4.66133e-05
4.6374e-05
4.6776e-05
4.64546e-05
4.94768e-05
4.94786e-05
4.65648e-05
4.62715e-05
4.68229e-05
4.68758e-05
4.64405e-05
4.64806e-05
4.65849e-05
4.93001e-05
4.99787e-05
4.60766e-05
4.69772e-05
4.69095e-05
4.98928e-05
4.98863e-05
5.07187e-05
4.68258e-05
4.66436e-05
4.7836e-05
4.81517e-05
4.97115e-05
5.1168e-05
4.68906e-05
4.7024e-05
4.77242e-05
4.77308e-05
4.68822e-05
4.81605e-05
4.80823e-05
5.01368e-05
5.06758e-05
4.73434e-05
4.78065e-05
4.80064e-05
5.08815e-05
5.09435e-05
5.13071e-05
4.82016e-05
4.84722e-05
4.86365e-05
4.87623e-05
5.1326e-05
5.12668e-05
4.8065e-05
4.8072e-05
4.86984e-05
4.88779e-05
4.82788e-05
4.8773e-05
4.84312e-05
5.08576e-05
5.1455e-05
4.80492e-05
4.87929e-05
4.83292e-05
5.09394e-05
5.13611e-05
5.1708e-05
4.86764e-05
4.87609e-05
4.91532e-05
4.88119e-05
5.12698e-05
5.1389e-05
4.88077e-05
4.89739e-05
4.91817e-05
4.89893e-05
4.84471e-05
4.87566e-05
4.88922e-05
5.15091e-05
5.13897e-05
4.85105e-05
4.89576e-05
4.90722e-05
5.16895e-05
5.18528e-05
5.22151e-05
4.93995e-05
4.90271e-05
4.98372e-05
4.99997e-05
5.15895e-05
5.25188e-05
4.93159e-05
4.89941e-05
4.96833e-05
4.97557e-05
4.93038e-05
5.01404e-05
5.02632e-05
5.14141e-05
5.24323e-05
4.93428e-05
4.99407e-05
5.01571e-05
5.25895e-05
5.23056e-05
5.29838e-05
4.9948e-05
5.01527e-05
5.06414e-05
5.05725e-05
5.26353e-05
5.28328e-05
4.98746e-05
5.01911e-05
5.07591e-05
5.10286e-05
5.03907e-05
5.06046e-05
5.04761e-05
5.272e-05
5.32534e-05
5.02899e-05
5.10093e-05
5.04535e-05
5.2631e-05
5.31541e-05
5.33208e-05
5.09102e-05
5.07518e-05
5.12809e-05
5.10484e-05
5.29004e-05
5.30825e-05
5.10242e-05
5.11253e-05
5.13125e-05
5.11308e-05
5.05295e-05
5.09264e-05
5.12027e-05
5.32766e-05
5.29747e-05
5.06228e-05
5.09812e-05
5.11469e-05
5.33369e-05
5.33242e-05
5.33004e-05
5.12852e-05
5.1075e-05
5.12854e-05
5.1446e-05
5.31237e-05
5.35467e-05
5.13091e-05
5.10541e-05
5.12572e-05
5.09815e-05
5.13033e-05
5.14403e-05
5.14023e-05
5.29656e-05
5.30885e-05
5.1188e-05
5.09626e-05
5.1302e-05
5.34501e-05
5.34474e-05
5.42162e-05
5.13807e-05
5.16918e-05
5.22617e-05
5.21256e-05
5.37182e-05
5.39798e-05
5.12983e-05
5.10715e-05
5.22108e-05
5.22531e-05
5.15398e-05
5.20776e-05
5.20565e-05
5.33064e-05
5.42967e-05
5.15287e-05
5.23391e-05
5.21532e-05
5.40047e-05
5.42777e-05
5.43631e-05
5.23787e-05
5.21503e-05
5.24951e-05
5.23181e-05
5.39904e-05
5.4273e-05
5.23925e-05
5.24583e-05
5.25787e-05
5.27561e-05
5.20942e-05
5.23151e-05
5.23797e-05
5.43956e-05
5.45827e-05
5.22037e-05
5.26767e-05
5.24324e-05
5.4324e-05
5.44965e-05
5.50992e-05
5.26269e-05
5.26347e-05
5.32767e-05
5.33235e-05
5.45323e-05
5.5197e-05
5.27452e-05
5.29245e-05
5.32647e-05
5.32455e-05
5.27371e-05
5.33588e-05
5.33821e-05
5.47074e-05
5.50555e-05
5.27359e-05
5.31994e-05
5.33153e-05
5.51972e-05
5.51179e-05
5.43791e-05
5.3314e-05
5.33465e-05
5.30544e-05
5.30015e-05
5.52038e-05
5.43309e-05
5.3287e-05
5.32454e-05
5.29915e-05
5.28102e-05
5.34021e-05
5.30194e-05
5.30361e-05
5.50497e-05
5.41238e-05
5.33308e-05
5.27933e-05
5.2956e-05
5.43357e-05
5.43028e-05
5.43314e-05
5.28569e-05
5.28007e-05
5.27131e-05
5.26679e-05
5.42507e-05
5.43329e-05
5.27963e-05
5.26203e-05
5.26603e-05
5.25238e-05
5.28235e-05
5.26796e-05
5.26719e-05
5.40499e-05
5.42662e-05
5.27524e-05
5.25189e-05
5.26201e-05
5.43035e-05
5.46051e-05
5.68412e-05
5.28165e-05
5.27936e-05
5.48089e-05
5.48834e-05
5.46295e-05
5.69412e-05
5.27758e-05
5.27052e-05
5.48184e-05
5.49563e-05
5.27839e-05
5.48891e-05
5.48414e-05
5.46096e-05
5.70058e-05
5.27539e-05
5.49832e-05
5.48819e-05
5.6899e-05
5.72231e-05
5.81546e-05
5.54608e-05
5.55365e-05
5.64553e-05
5.6518e-05
5.73226e-05
5.82301e-05
5.54702e-05
5.56007e-05
5.64653e-05
5.65595e-05
5.55014e-05
5.65271e-05
5.65005e-05
5.73814e-05
5.82723e-05
5.55373e-05
5.65814e-05
5.6526e-05
5.82116e-05
5.81563e-05
5.5477e-05
5.64769e-05
5.65355e-05
5.49971e-05
5.49875e-05
5.82267e-05
5.54617e-05
5.6487e-05
5.65748e-05
5.50061e-05
5.49987e-05
5.6521e-05
5.49976e-05
5.50146e-05
5.82676e-05
5.54757e-05
5.6545e-05
5.50068e-05
5.50154e-05
5.54875e-05
5.48769e-05
5.19802e-05
5.37702e-05
5.37564e-05
5.10089e-05
5.09895e-05
5.48565e-05
5.19523e-05
5.37774e-05
5.3766e-05
5.10102e-05
5.09915e-05
5.37807e-05
5.09927e-05
5.10045e-05
5.48688e-05
5.19554e-05
5.37825e-05
5.0998e-05
5.10077e-05
5.19726e-05
5.17976e-05
5.15848e-05
5.04849e-05
5.04667e-05
4.99301e-05
4.99201e-05
5.17711e-05
5.15798e-05
5.0484e-05
5.04656e-05
4.99247e-05
4.99117e-05
5.04782e-05
4.99213e-05
4.99238e-05
5.17722e-05
5.157e-05
5.04815e-05
4.99181e-05
4.99262e-05
5.15815e-05
5.18044e-05
5.40619e-05
4.99685e-05
4.99614e-05
5.19032e-05
5.1918e-05
5.1806e-05
5.40829e-05
4.9962e-05
4.99515e-05
5.18937e-05
5.19044e-05
4.99635e-05
5.19221e-05
5.19138e-05
5.17942e-05
5.40726e-05
4.99654e-05
5.19129e-05
5.19121e-05
5.4076e-05
5.46901e-05
5.84405e-05
5.29025e-05
5.29172e-05
5.63632e-05
5.63736e-05
5.47118e-05
5.84573e-05
5.28945e-05
5.29071e-05
5.6358e-05
5.63725e-05
5.29147e-05
5.63795e-05
5.6375e-05
5.4703e-05
5.84575e-05
5.2913e-05
5.63802e-05
5.63731e-05
5.84539e-05
5.91769e-05
6.25266e-05
5.75704e-05
5.75785e-05
6.06248e-05
6.06252e-05
5.91923e-05
6.25309e-05
5.75659e-05
5.75797e-05
6.06225e-05
6.06312e-05
5.7581e-05
6.06317e-05
6.06309e-05
5.9193e-05
6.25365e-05
5.7579e-05
6.06368e-05
6.06287e-05
6.25323e-05
6.29063e-05
6.33665e-05
6.12892e-05
6.12872e-05
6.19574e-05
6.19511e-05
6.29089e-05
6.33606e-05
6.12874e-05
6.12941e-05
6.1957e-05
6.19592e-05
6.12939e-05
6.19582e-05
6.19594e-05
6.29146e-05
6.33673e-05
6.12917e-05
6.19639e-05
6.19575e-05
6.33659e-05
6.30082e-05
5.86339e-05
6.18468e-05
6.18393e-05
5.83935e-05
5.83818e-05
6.29997e-05
5.86257e-05
6.18468e-05
6.18474e-05
5.83951e-05
5.83884e-05
6.1848e-05
5.83896e-05
5.83917e-05
6.30063e-05
5.86303e-05
6.18463e-05
5.83943e-05
5.83913e-05
5.86315e-05
5.78681e-05
5.38163e-05
5.69377e-05
5.6927e-05
5.31913e-05
5.31827e-05
5.78607e-05
5.38116e-05
5.69388e-05
5.69328e-05
5.31907e-05
5.31868e-05
5.69364e-05
5.31899e-05
5.31901e-05
5.78644e-05
5.38145e-05
5.69359e-05
5.31936e-05
5.31892e-05
5.38147e-05
5.33931e-05
5.16404e-05
5.2245e-05
5.2237e-05
5.04501e-05
5.04437e-05
5.33889e-05
5.16381e-05
5.22438e-05
5.22406e-05
5.04474e-05
5.04464e-05
5.22438e-05
5.04485e-05
5.04491e-05
5.33912e-05
5.164e-05
5.22426e-05
5.04515e-05
5.04468e-05
5.16403e-05
5.1579e-05
5.17434e-05
5.01771e-05
5.01711e-05
5.00241e-05
5.00189e-05
5.1577e-05
5.1742e-05
5.01741e-05
5.01737e-05
5.00209e-05
5.00215e-05
5.01762e-05
5.00226e-05
5.00234e-05
5.15787e-05
5.17438e-05
5.01737e-05
5.00251e-05
5.00207e-05
5.17437e-05
5.19555e-05
5.30449e-05
5.01867e-05
5.01822e-05
5.12851e-05
5.12806e-05
5.19541e-05
5.30432e-05
5.01835e-05
5.01847e-05
5.12829e-05
5.12834e-05
5.01862e-05
5.12841e-05
5.12846e-05
5.19558e-05
5.30453e-05
5.01834e-05
5.12868e-05
5.12825e-05
5.30451e-05
5.32325e-05
5.37374e-05
5.1552e-05
5.15473e-05
5.1977e-05
5.19718e-05
5.32307e-05
5.37354e-05
5.155e-05
5.15503e-05
5.19753e-05
5.19755e-05
5.15514e-05
5.19763e-05
5.1976e-05
5.32328e-05
5.37381e-05
5.15495e-05
5.19795e-05
5.19746e-05
5.37366e-05
5.38076e-05
5.39115e-05
5.20352e-05
5.203e-05
5.20639e-05
5.20591e-05
5.38057e-05
5.391e-05
5.20335e-05
5.20337e-05
5.20623e-05
5.20626e-05
5.20342e-05
5.20636e-05
5.20631e-05
5.38084e-05
5.39126e-05
5.20328e-05
5.20668e-05
5.20619e-05
5.3911e-05
5.39362e-05
5.39439e-05
5.20592e-05
5.20544e-05
5.2019e-05
5.20142e-05
5.39348e-05
5.39425e-05
5.20576e-05
5.20579e-05
5.20174e-05
5.20177e-05
5.20585e-05
5.20189e-05
5.20184e-05
5.39373e-05
5.3945e-05
5.20573e-05
5.2022e-05
5.20173e-05
5.39436e-05
5.39596e-05
5.39431e-05
5.20127e-05
5.2008e-05
5.19817e-05
5.19768e-05
5.39583e-05
5.39417e-05
5.20111e-05
5.20114e-05
5.198e-05
5.19802e-05
5.20121e-05
5.19816e-05
5.1981e-05
5.39607e-05
5.39441e-05
5.20111e-05
5.19846e-05
5.19799e-05
5.39426e-05
5.39569e-05
5.39267e-05
5.19785e-05
5.19735e-05
5.19515e-05
5.19465e-05
5.39555e-05
5.39252e-05
5.19768e-05
5.1977e-05
5.19498e-05
5.19499e-05
5.19778e-05
5.19512e-05
5.19506e-05
5.39578e-05
5.39274e-05
5.19766e-05
5.19542e-05
5.19494e-05
5.39259e-05
5.39391e-05
5.39091e-05
5.19493e-05
5.19443e-05
5.19337e-05
5.19288e-05
5.39376e-05
5.39076e-05
5.19477e-05
5.19477e-05
5.1932e-05
5.19322e-05
5.19484e-05
5.19335e-05
5.1933e-05
5.39398e-05
5.39099e-05
5.19472e-05
5.19366e-05
5.19317e-05
5.39082e-05
5.39233e-05
5.39155e-05
5.19376e-05
5.19327e-05
5.19301e-05
5.19253e-05
5.39219e-05
5.39143e-05
5.19359e-05
5.1936e-05
5.19284e-05
5.19286e-05
5.19368e-05
5.193e-05
5.19295e-05
5.39242e-05
5.39165e-05
5.19355e-05
5.19329e-05
5.19281e-05
5.39157e-05
5.39301e-05
5.3757e-05
5.19218e-05
5.19169e-05
5.17735e-05
5.17681e-05
5.39289e-05
5.37553e-05
5.19201e-05
5.192e-05
5.17729e-05
5.17706e-05
5.19208e-05
5.17742e-05
5.17714e-05
5.3931e-05
5.37573e-05
5.19195e-05
5.17766e-05
5.1771e-05
5.37554e-05
5.36122e-05
5.08546e-05
5.08494e-05
5.36103e-05
5.08545e-05
5.08519e-05
4.12738e-05
4.12761e-05
4.1274e-05
5.08523e-05
5.36124e-05
5.08525e-05
1.35881e-06
2.81333e-07
8.20281e-07
8.19846e-07
1.08153e-07
3.23414e-07
2.33712e-07
4.16734e-07
1.15111e-07
3.41619e-07
4.26154e-07
3.93454e-07
3.57244e-07
3.96493e-07
3.58123e-07
3.12708e-07
4.97179e-06
2.69935e-07
6.65539e-06
1.36915e-05
2.11463e-05
3.46314e-07
4.97006e-06
3.04873e-07
6.66192e-06
4.46904e-07
4.48223e-07
4.47135e-07
4.47796e-07
4.42592e-07
4.43504e-07
4.42497e-07
1.15375e-07
5.61654e-07
2.37987e-07
2.87292e-07
1.12779e-07
5.421e-07
2.35537e-07
1.4121e-05
2.17502e-05
1.05926e-07
2.45849e-07
6.4808e-07
3.2718e-07
1.10288e-07
2.42726e-07
6.22036e-07
1.92264e-06
1.86639e-06
3.42608e-07
1.90333e-06
1.80971e-06
5.04525e-07
9.84116e-06
4.29071e-07
1.26026e-05
3.63003e-05
4.62979e-05
5.28712e-07
9.819e-06
4.53546e-07
1.25787e-05
4.42723e-07
4.43361e-07
4.42514e-07
4.4751e-07
4.43581e-07
4.43352e-07
4.42977e-07