/*--------------------------------*- C++ -*----------------------------------*\
| =========                 |                                                 |
| \\      /  F ield         | OpenFOAM: The Open Source CFD Toolbox           |
|  \\    /   O peration     | Version:  v2012                                 |
|   \\  /    A nd           | Website:  www.openfoam.com                      |
|    \\/     M anipulation  |                                                 |
\*---------------------------------------------------------------------------*/
FoamFile
{
    version     2.0;
    format      ascii;
    class       volScalarField;
    location    "337.5";
    object      p;
}
// * * * * * * * * * * * * * * * * * * * * * * * * * * * * * * * * * * * * * //

dimensions      [0 2 -2 0 0 0 0];


internalField   nonuniform List<scalar> 
171728
(
0.00351852
0.00351729
0.00351764
0.00351746
0.00348297
0.00348155
0.00348163
0.00348435
0.00344475
0.00344292
0.00344281
0.0034451
0.00340059
0.00339892
0.00339895
0.00340115
0.00335235
0.0033509
0.00335085
0.00335323
0.00330353
0.00330213
0.00330219
0.00330453
0.00325549
0.00325423
0.00325422
0.00325659
0.00320825
0.00320716
0.00320712
0.00320951
0.00316184
0.00316087
0.00316083
0.00316325
0.00311652
0.00311564
0.00311566
0.00311804
0.00307214
0.00307137
0.00307138
0.00307374
0.00302845
0.00302781
0.00302779
0.00303017
0.00298534
0.00298481
0.00298475
0.00298713
0.00294265
0.00294216
0.00294219
0.0029445
0.00290027
0.00289986
0.00289993
0.00290224
0.00285821
0.00285792
0.00285784
0.00286028
0.0028165
0.00281637
0.00281617
0.00281857
0.00277515
0.00277501
0.00277498
0.00277716
0.00273415
0.00273403
0.00273409
0.00273611
0.00269351
0.00269344
0.00269329
0.00269542
0.0026532
0.00265303
0.0026531
0.002655
0.0026132
0.0026131
0.00261326
0.0026149
0.00257347
0.00257338
0.00257353
0.0025752
0.00253402
0.00253409
0.00253405
0.00253585
0.00249479
0.00249507
0.00249489
0.00249676
0.00245581
0.00245612
0.00245598
0.00245777
0.00241706
0.00241732
0.00241729
0.00241891
0.00237853
0.00237877
0.00237886
0.00238082
0.0023402
0.00234056
0.00234059
0.00234261
0.00230206
0.00230234
0.00230243
0.00230425
0.00226409
0.00226459
0.0022645
0.0022665
0.00222627
0.00222667
0.00222671
0.0022287
0.00218859
0.00218903
0.00218904
0.00219085
0.00215106
0.00215153
0.00215154
0.00215348
0.00211361
0.00211408
0.00211409
0.00211597
0.00207647
0.00207689
0.00207681
0.00207869
0.00203921
0.00203964
0.00203973
0.00204162
0.00200239
0.00200268
0.00200265
0.00200456
0.00196541
0.00196576
0.00196574
0.0019677
0.0019289
0.00192903
0.00192906
0.00193102
0.00189209
0.00189231
0.00189235
0.00189432
0.00185574
0.00185586
0.00185579
0.00185792
0.00181959
0.0018198
0.0018197
0.00182159
0.00178337
0.00178295
0.00178328
0.00178539
0.00174729
0.00174758
0.00174717
0.00174923
0.00171128
0.00171127
0.00171142
0.00171348
0.00167584
0.00167537
0.00167553
0.00167752
0.00163992
0.00163979
0.00163992
0.00164199
0.00160449
0.00160444
0.0016041
0.00160622
0.00156884
0.00156861
0.00156884
0.0015709
0.00153387
0.00153343
0.00153337
0.00153535
0.00149834
0.00149838
0.00149836
0.00150033
0.00146357
0.00146298
0.00146301
0.00146518
0.00142849
0.00142807
0.0014281
0.00143
0.00139322
0.00139338
0.00139334
0.00139532
0.00135858
0.0013581
0.00135818
0.00136014
0.00132375
0.00132344
0.00132335
0.00132537
0.00128889
0.00128867
0.00128869
0.00129065
0.00125423
0.00125395
0.00125388
0.00125582
0.00121951
0.00121921
0.00121942
0.00122123
0.00118493
0.001185
0.00118472
0.00118675
0.00115065
0.00115008
0.00115027
0.00115205
0.001116
0.00111581
0.00111577
0.00111783
0.0010815
0.00108163
0.00108151
0.00108338
0.00104722
0.00104674
0.00104687
0.00104867
0.0010128
0.00101256
0.00101241
0.00101451
0.00097808
0.000978146
0.000978157
0.000980025
0.000943914
0.000943639
0.000943841
0.000945645
0.000909552
0.000909374
0.000909274
0.000911218
0.000875402
0.000875321
0.000875241
0.000877196
0.000840658
0.000840415
0.000840451
0.000842342
0.000806468
0.000806479
0.000806565
0.000808432
0.000773057
0.000773077
0.000773095
0.000775004
0.000738839
0.000738256
0.000738186
0.000740027
0.000703033
0.000702754
0.000702741
0.000704655
0.000666582
0.000667169
0.000667179
0.000669415
0.000631942
0.000632426
0.000632429
0.000634611
0.000598167
0.000598259
0.000598263
0.000600166
0.000566581
0.000565894
0.000565898
0.000567462
0.000535224
0.000534592
0.000534595
0.000536155
0.000500281
0.000499842
0.000499841
0.000501701
0.000461004
0.000460733
0.000460733
0.000462925
0.000419691
0.00042059
0.000420591
0.000423212
0.000380646
0.000381338
0.000381338
0.000383828
0.000344213
0.000344293
0.000344293
0.000346373
0.000310013
0.00030977
0.000309769
0.000311513
0.00027936
0.00027916
0.00027916
0.000280759
0.000248761
0.000248732
0.000248731
0.000250494
0.000215385
0.000215369
0.000215369
0.00021731
0.00018006
0.000180045
0.000180046
0.000182079
0.000143913
0.000143896
0.000143896
0.000145961
0.000107446
0.000107429
0.000107429
0.000109493
7.08839e-05
7.08557e-05
7.08534e-05
7.28867e-05
3.50421e-05
3.44697e-05
3.44659e-05
3.6353e-05
6.24394e-06
7.16367e-06
7.16054e-06
5.44999e-06
0.00352295
0.00352049
0.0035204
0.0035228
0.00352051
0.00352062
0.00352687
0.00352674
0.00352701
0.00352677
0.00352029
0.00351996
0.00352308
0.00352066
0.00352051
0.00352241
0.0035182
0.00348911
0.00351748
0.00351733
0.00349086
0.00349076
0.00351804
0.00348911
0.0035175
0.00351755
0.0034909
0.003491
0.00351701
0.00349077
0.00349085
0.00351832
0.00348916
0.00351783
0.00349099
0.00349095
0.00348906
0.00348442
0.0034506
0.00348163
0.00348163
0.00345282
0.00345288
0.00348451
0.00345042
0.00348163
0.00348159
0.00345281
0.00345285
0.00348153
0.00345282
0.00345282
0.00348444
0.00345058
0.00348155
0.00345281
0.00345283
0.00345057
0.0034451
0.00340732
0.00344281
0.00344297
0.00341041
0.00341039
0.00344499
0.00340725
0.00344281
0.00344279
0.00341043
0.00341038
0.00344286
0.00341035
0.00341038
0.00344509
0.00340733
0.00344283
0.00341036
0.00341038
0.00340732
0.00340113
0.00335969
0.00339896
0.00339896
0.00336305
0.00336305
0.0034011
0.0033597
0.00339896
0.00339894
0.00336304
0.00336306
0.00339893
0.00336302
0.00336303
0.00340115
0.0033597
0.00339893
0.00336306
0.00336304
0.0033597
0.00335322
0.00331096
0.0033509
0.00335089
0.00331431
0.00331431
0.00335323
0.00331096
0.0033509
0.00335087
0.00331431
0.00331425
0.0033509
0.00331428
0.00331428
0.00335321
0.00331095
0.00335091
0.00331427
0.00331428
0.00331097
0.00330452
0.00326289
0.00330215
0.00330214
0.00326613
0.00326615
0.00330453
0.00326289
0.00330216
0.00330219
0.00326613
0.00326619
0.00330213
0.00326614
0.00326614
0.00330452
0.00326288
0.00330213
0.00326618
0.00326613
0.00326289
0.0032566
0.0032157
0.00325425
0.00325424
0.00321886
0.00321886
0.00325659
0.00321569
0.00325424
0.00325426
0.00321885
0.0032189
0.00325424
0.00321884
0.00321887
0.00325659
0.00321572
0.00325422
0.00321887
0.00321886
0.00321569
0.00320951
0.0031693
0.00320714
0.00320717
0.00317232
0.00317232
0.00320952
0.0031693
0.00320715
0.00320714
0.00317232
0.00317236
0.00320716
0.00317231
0.00317233
0.00320953
0.00316931
0.00320715
0.00317233
0.00317234
0.0031693
0.00316326
0.00312392
0.00316084
0.00316085
0.00312686
0.00312682
0.00316327
0.00312392
0.00316086
0.00316086
0.00312686
0.00312686
0.00316087
0.00312685
0.00312685
0.00316325
0.00312394
0.00316085
0.00312686
0.00312685
0.00312393
0.00311803
0.00307952
0.00311565
0.00311566
0.00308235
0.00308233
0.00311803
0.00307954
0.00311563
0.00311566
0.00308236
0.00308239
0.00311566
0.00308237
0.00308237
0.00311805
0.00307952
0.00311566
0.00308238
0.00308236
0.00307952
0.00307375
0.00303585
0.00307139
0.00307137
0.00303863
0.00303861
0.00307375
0.00303587
0.00307136
0.00307138
0.00303862
0.00303863
0.00307137
0.00303863
0.00303862
0.00307373
0.00303584
0.00307136
0.00303862
0.00303863
0.00303586
0.00303017
0.00299273
0.00302779
0.00302778
0.00299549
0.00299554
0.00303018
0.00299272
0.0030278
0.00302778
0.00299547
0.00299547
0.00302782
0.00299553
0.00299552
0.00303017
0.00299275
0.00302778
0.00299549
0.00299551
0.00299273
0.00298713
0.00295008
0.00298476
0.0029848
0.00295278
0.00295284
0.00298713
0.00295004
0.00298475
0.00298477
0.00295278
0.00295276
0.00298478
0.00295284
0.00295284
0.00298715
0.00295007
0.0029848
0.00295275
0.00295282
0.00295007
0.00294458
0.00290774
0.00294228
0.00294217
0.00291047
0.00291054
0.0029445
0.00290773
0.00294228
0.00294216
0.00291046
0.00291036
0.00294212
0.00291053
0.00291035
0.00294454
0.00290768
0.00294213
0.00291037
0.00291037
0.00290769
0.00290226
0.00286566
0.00289994
0.00289985
0.00286837
0.00286851
0.00290221
0.00286568
0.00289994
0.00289994
0.00286838
0.00286837
0.00289993
0.0028685
0.00286836
0.00290223
0.00286564
0.00289991
0.00286835
0.00286835
0.00286568
0.00286023
0.00282386
0.00285786
0.00285795
0.00282654
0.00282672
0.00286021
0.00282395
0.00285787
0.00285783
0.00282654
0.00282667
0.00285799
0.00282669
0.00282664
0.0028602
0.00282386
0.002858
0.00282665
0.00282666
0.00282393
0.0028185
0.00278242
0.00281625
0.00281634
0.00278518
0.00278523
0.00281858
0.0027825
0.00281625
0.00281617
0.0027852
0.00278537
0.00281631
0.00278526
0.00278526
0.00281846
0.00278247
0.0028163
0.00278536
0.00278527
0.00278248
0.00277716
0.00274143
0.00277497
0.002775
0.00274423
0.00274429
0.0027772
0.00274136
0.00277496
0.00277497
0.00274424
0.00274427
0.00277498
0.00274426
0.00274419
0.00277715
0.00274148
0.00277494
0.00274425
0.00274416
0.00274133
0.00273615
0.0027006
0.00273403
0.00273403
0.00270349
0.0027035
0.00273612
0.0027007
0.00273403
0.00273409
0.0027035
0.00270344
0.00273402
0.00270349
0.00270356
0.00273624
0.00270061
0.00273401
0.00270342
0.00270349
0.0027006
0.0026954
0.0026601
0.00269341
0.00269343
0.00266317
0.00266311
0.00269548
0.00266018
0.00269342
0.00269329
0.0026632
0.00266317
0.00269334
0.00266311
0.00266321
0.00269536
0.00266006
0.00269335
0.00266315
0.00266319
0.00266014
0.00265498
0.00262002
0.0026531
0.00265302
0.00262313
0.00262312
0.00265496
0.00262007
0.00265308
0.00265309
0.00262311
0.00262312
0.00265304
0.00262312
0.00262316
0.00265494
0.00261993
0.00265308
0.00262312
0.00262316
0.00262001
0.00261492
0.00258025
0.00261315
0.0026131
0.00258335
0.00258339
0.00261492
0.00258027
0.00261312
0.00261327
0.00258333
0.00258329
0.00261307
0.00258339
0.00258348
0.0026149
0.00258018
0.00261309
0.00258329
0.00258348
0.00258024
0.00257518
0.00254083
0.00257344
0.00257337
0.00254393
0.00254405
0.00257514
0.00254087
0.00257343
0.00257354
0.00254391
0.00254382
0.00257343
0.00254406
0.00254403
0.00257515
0.00254077
0.00257343
0.00254381
0.00254403
0.00254082
0.00253578
0.00250168
0.00253402
0.00253408
0.00250473
0.00250482
0.00253584
0.00250176
0.00253402
0.00253406
0.00250472
0.00250466
0.00253413
0.00250482
0.00250479
0.00253571
0.00250168
0.0025341
0.00250466
0.00250477
0.00250164
0.00249669
0.0024627
0.00249489
0.00249506
0.00246572
0.00246566
0.00249686
0.00246248
0.00249488
0.0024949
0.0024657
0.00246569
0.00249504
0.00246568
0.00246572
0.00249665
0.00246276
0.002495
0.0024657
0.00246569
0.00246257
0.00245774
0.00242406
0.00245599
0.0024561
0.00242696
0.0024269
0.00245776
0.00242393
0.00245598
0.00245599
0.00242695
0.00242696
0.0024561
0.00242689
0.00242691
0.00245781
0.002424
0.00245607
0.00242697
0.00242689
0.00242388
0.00241915
0.00238562
0.00241731
0.0024173
0.00238842
0.0023884
0.00241898
0.00238581
0.00241731
0.00241729
0.00238842
0.00238848
0.00241729
0.00238838
0.00238846
0.00241905
0.00238577
0.00241726
0.00238848
0.00238846
0.00238587
0.00238067
0.00234743
0.0023788
0.00237877
0.00235011
0.00235012
0.00238075
0.00234751
0.0023788
0.00237887
0.0023501
0.00235007
0.00237879
0.0023501
0.00235015
0.00238087
0.0023472
0.00237875
0.00235007
0.00235018
0.00234738
0.00234251
0.00230927
0.00234054
0.00234056
0.00231195
0.00231188
0.00234272
0.0023092
0.00234053
0.00234059
0.00231196
0.00231192
0.00234063
0.00231188
0.00231186
0.00234232
0.0023095
0.00234062
0.00231193
0.0023119
0.00230922
0.00230437
0.00227137
0.00230243
0.00230235
0.00227396
0.00227406
0.00230413
0.00227145
0.00230245
0.00230242
0.00227394
0.00227395
0.00230241
0.00227406
0.00227397
0.00230451
0.00227131
0.00230245
0.00227395
0.00227392
0.00227148
0.00226642
0.00223352
0.00226449
0.00226457
0.00223618
0.00223609
0.00226666
0.00223357
0.00226447
0.00226449
0.00223618
0.00223614
0.00226445
0.00223608
0.00223623
0.00226648
0.0022335
0.00226443
0.00223614
0.00223624
0.00223351
0.00222864
0.00219587
0.00222673
0.00222668
0.00219845
0.00219846
0.00222855
0.00219591
0.00222674
0.00222671
0.00219845
0.00219847
0.00222676
0.00219847
0.00219841
0.00222859
0.00219586
0.00222677
0.00219846
0.0021984
0.0021958
0.00219097
0.00215829
0.00218905
0.00218904
0.00216087
0.00216089
0.00219105
0.00215819
0.00218905
0.00218905
0.00216088
0.00216091
0.00218904
0.00216089
0.00216086
0.00219097
0.00215822
0.00218902
0.0021609
0.00216089
0.00215837
0.00215341
0.00212089
0.00215152
0.00215155
0.00212347
0.00212343
0.00215329
0.00212092
0.00215152
0.00215155
0.00212346
0.00212343
0.0021515
0.00212345
0.00212346
0.00215333
0.00212097
0.00215153
0.00212345
0.00212345
0.00212083
0.00211599
0.00208354
0.0021141
0.00211404
0.00208613
0.00208616
0.00211602
0.0020836
0.0021141
0.00211407
0.00208614
0.00208614
0.00211408
0.00208617
0.00208615
0.00211605
0.0020835
0.00211407
0.00208612
0.00208616
0.0020836
0.00207865
0.00204655
0.00207684
0.0020769
0.00204895
0.00204893
0.0020787
0.00204647
0.00207683
0.00207683
0.00204895
0.00204896
0.00207687
0.00204893
0.002049
0.00207865
0.00204656
0.0020769
0.00204898
0.00204895
0.00204649
0.00204169
0.00200936
0.00203968
0.00203962
0.00201193
0.00201195
0.00204162
0.00200943
0.00203969
0.0020397
0.00201192
0.00201192
0.0020397
0.00201196
0.00201187
0.00204166
0.00200939
0.00203965
0.00201191
0.00201194
0.00200942
0.00200451
0.00197264
0.00200266
0.0020027
0.00197495
0.00197492
0.00200452
0.00197259
0.00200265
0.00200266
0.00197498
0.00197493
0.00200263
0.00197492
0.00197499
0.00200456
0.00197256
0.00200269
0.00197491
0.00197494
0.00197257
0.00196777
0.00193577
0.00196579
0.00196575
0.00193824
0.00193823
0.00196778
0.00193577
0.00196581
0.00196575
0.00193821
0.00193827
0.00196577
0.00193822
0.0019382
0.00196772
0.00193589
0.00196573
0.00193827
0.00193821
0.00193584
0.00193092
0.00189918
0.00192901
0.00192904
0.00190144
0.0019015
0.00193094
0.00189918
0.00192898
0.00192907
0.00190144
0.00190148
0.00192903
0.00190155
0.00190151
0.00193101
0.00189917
0.00192906
0.00190151
0.00190155
0.00189918
0.00189438
0.00186274
0.00189234
0.00189228
0.00186499
0.00186488
0.00189429
0.0018627
0.00189234
0.00189234
0.00186502
0.00186493
0.00189234
0.00186483
0.00186498
0.00189434
0.00186264
0.00189235
0.00186491
0.00186492
0.00186273
0.00185786
0.00182646
0.00185586
0.00185592
0.00182871
0.00182903
0.00185795
0.0018267
0.00185589
0.00185579
0.00182865
0.00182868
0.00185589
0.00182904
0.00182863
0.00185781
0.0018265
0.00185586
0.00182868
0.00182869
0.00182637
0.0018217
0.0017901
0.0018197
0.00181978
0.00179233
0.00179196
0.00182175
0.0017898
0.00181963
0.0018197
0.00179237
0.00179244
0.00181957
0.00179197
0.00179243
0.00182173
0.00179015
0.00181959
0.00179245
0.00179241
0.00179024
0.00178526
0.00175407
0.0017832
0.00178294
0.0017562
0.00175647
0.00178503
0.00175431
0.00178327
0.00178328
0.0017562
0.0017561
0.00178336
0.00175648
0.00175617
0.00178529
0.00175398
0.00178338
0.00175609
0.00175618
0.00175399
0.00174932
0.00171827
0.00174728
0.00174758
0.00172036
0.00172033
0.00174955
0.00171829
0.00174724
0.00174715
0.00172029
0.0017204
0.00174716
0.00172031
0.00172034
0.00174924
0.00171832
0.00174715
0.00172039
0.00172032
0.00171827
0.00171346
0.00168234
0.00171137
0.00171128
0.00168444
0.00168432
0.00171346
0.00168214
0.00171134
0.00171145
0.00168452
0.0016844
0.0017114
0.00168435
0.00168445
0.00171352
0.00168229
0.00171139
0.00168443
0.00168442
0.00168227
0.00167759
0.00164665
0.00167554
0.00167535
0.00164874
0.00164866
0.00167739
0.00164664
0.00167561
0.00167547
0.00164874
0.00164883
0.00167548
0.00164863
0.00164879
0.00167755
0.00164679
0.00167549
0.00164886
0.00164888
0.00164677
0.00164186
0.00161105
0.00163978
0.0016398
0.0016131
0.0016133
0.0016419
0.00161124
0.00163975
0.00163994
0.0016131
0.00161304
0.00163989
0.00161334
0.00161308
0.00164201
0.00161091
0.00163995
0.00161298
0.001613
0.00161095
0.00160632
0.00157557
0.00160427
0.00160444
0.00157765
0.00157761
0.00160648
0.00157548
0.00160428
0.0016041
0.00157762
0.00157762
0.00160418
0.00157755
0.00157768
0.00160616
0.00157562
0.0016041
0.00157767
0.00157767
0.00157565
0.0015708
0.00154012
0.00156875
0.00156865
0.00154215
0.00154213
0.00157072
0.00154013
0.00156873
0.0015688
0.00154221
0.0015422
0.00156881
0.00154216
0.00154214
0.00157087
0.00154015
0.00156884
0.00154216
0.00154218
0.00154007
0.0015354
0.00150504
0.00153335
0.00153339
0.00150708
0.00150716
0.00153542
0.00150513
0.00153339
0.0015334
0.00150703
0.00150715
0.00153329
0.00150719
0.00150707
0.00153543
0.00150508
0.0015333
0.00150718
0.00150701
0.00150504
0.00150032
0.00146988
0.00149831
0.00149839
0.001472
0.00147184
0.00150041
0.00146977
0.00149825
0.00149834
0.00147201
0.00147182
0.00149834
0.0014718
0.001472
0.00150035
0.00146978
0.00149827
0.00147179
0.00147204
0.0014699
0.00146516
0.00143472
0.00146315
0.00146302
0.00143673
0.00143678
0.00146502
0.00143472
0.0014632
0.00146303
0.00143675
0.0014368
0.00146317
0.00143679
0.00143672
0.00146506
0.00143474
0.00146325
0.00143681
0.00143674
0.0014347
0.00143002
0.00139999
0.00142804
0.00142807
0.00140199
0.00140206
0.00143004
0.00140011
0.00142804
0.0014281
0.00140196
0.00140206
0.00142802
0.00140208
0.001402
0.00143004
0.00140008
0.00142801
0.00140203
0.00140198
0.0014
0.00139529
0.00136486
0.00139328
0.00139336
0.00136691
0.00136685
0.0013954
0.0013648
0.00139323
0.00139335
0.00136693
0.0013669
0.0013933
0.00136681
0.00136688
0.00139538
0.00136487
0.0013933
0.00136694
0.0013669
0.00136485
0.00136015
0.00133009
0.00135816
0.0013581
0.00133214
0.00133217
0.00136009
0.00133009
0.00135819
0.00135814
0.00133213
0.00133212
0.00135816
0.00133219
0.00133215
0.00136014
0.00133004
0.00135813
0.00133208
0.00133212
0.00133006
0.00132541
0.00129527
0.00132346
0.00132345
0.00129731
0.00129729
0.00132539
0.00129526
0.00132346
0.00132343
0.00129734
0.00129733
0.00132342
0.00129727
0.00129733
0.00132536
0.0012953
0.00132346
0.00129735
0.00129741
0.00129532
0.00129056
0.0012606
0.00128861
0.00128864
0.00126268
0.00126269
0.00129059
0.00126064
0.00128862
0.00128862
0.00126262
0.0012626
0.00128872
0.00126274
0.00126269
0.0012906
0.00126054
0.00128871
0.00126258
0.00126254
0.00126055
0.00125593
0.00122586
0.00125403
0.00125396
0.00122787
0.00122784
0.00125592
0.00122577
0.00125399
0.00125395
0.00122796
0.00122802
0.00125391
0.00122779
0.00122779
0.00125585
0.00122597
0.00125383
0.00122803
0.00122797
0.00122587
0.00122116
0.00119139
0.00121918
0.00121923
0.00119343
0.00119356
0.0012211
0.0011916
0.00121925
0.00121934
0.00119335
0.00119337
0.00121922
0.00119361
0.00119359
0.0012213
0.00119135
0.00121941
0.00119342
0.00119345
0.00119146
0.00118675
0.00115686
0.00118488
0.00118496
0.00115892
0.00115882
0.00118694
0.0011567
0.00118478
0.00118477
0.00115899
0.00115895
0.00118492
0.00115878
0.00115874
0.00118666
0.00115685
0.0011847
0.00115886
0.00115879
0.00115671
0.00115216
0.00112236
0.00115023
0.00115013
0.0011244
0.00112433
0.00115199
0.00112233
0.00115033
0.0011503
0.00112439
0.00112433
0.0011501
0.00112432
0.00112445
0.00115218
0.00112234
0.00115024
0.0011244
0.00112453
0.00112247
0.00111771
0.00108798
0.00111583
0.0011158
0.00109004
0.00109017
0.00111772
0.0010882
0.00111577
0.00111572
0.00108996
0.00109002
0.00111595
0.00109025
0.00109016
0.00111766
0.00108804
0.00111592
0.00109006
0.00109002
0.00108806
0.00108331
0.00105355
0.00108138
0.00108154
0.00105553
0.00105549
0.0010835
0.00105338
0.00108137
0.00108149
0.00105563
0.00105566
0.00108146
0.0010554
0.00105535
0.00108341
0.00105352
0.0010814
0.00105556
0.00105545
0.00105335
0.00104889
0.00101908
0.00104697
0.00104687
0.00102119
0.00102111
0.0010487
0.0010191
0.00104705
0.00104698
0.00102112
0.00102099
0.00104676
0.0010211
0.00102122
0.00104882
0.00101897
0.00104684
0.00102099
0.00102115
0.00101915
0.00101438
0.000984578
0.00101253
0.00101251
0.000986589
0.000986699
0.00101444
0.000984715
0.00101245
0.00101236
0.000986554
0.000986616
0.00101265
0.00098676
0.000986662
0.00101429
0.00098468
0.00101256
0.000986712
0.00098667
0.000984685
0.00097993
0.000950467
0.000978017
0.000978113
0.000952386
0.000952337
0.000980042
0.000950286
0.000978
0.00097808
0.00095246
0.000952535
0.000978056
0.000952283
0.000952312
0.000980042
0.000950513
0.000978091
0.000952483
0.000952386
0.000950344
0.000945788
0.000915815
0.000943794
0.000943685
0.00091786
0.000917844
0.000945588
0.000915862
0.000943889
0.000943946
0.000917856
0.000917857
0.000943709
0.000917875
0.000917907
0.000945816
0.000915798
0.000943755
0.000917831
0.000917841
0.000915851
0.000911161
0.000881859
0.000909323
0.000909335
0.000883878
0.00088393
0.000911237
0.000881912
0.000909273
0.000909256
0.000883809
0.000883756
0.000909385
0.000883933
0.000883911
0.000911138
0.00088179
0.000909309
0.000883797
0.000883881
0.000881873
0.000877201
0.000847134
0.000875318
0.000875339
0.000849161
0.000849168
0.000877224
0.000847099
0.000875268
0.000875207
0.000849183
0.000849167
0.000875299
0.000849147
0.000849127
0.000877136
0.000847122
0.0008753
0.000849165
0.000849168
0.000847104
0.000842373
0.000812959
0.000840429
0.000840431
0.000814822
0.000814828
0.00084233
0.000812948
0.000840457
0.000840455
0.000814852
0.00081491
0.000840399
0.000814832
0.000814827
0.000842362
0.000813024
0.000840439
0.000814913
0.000814858
0.000812971
0.000808417
0.000779617
0.00080647
0.000806472
0.000781517
0.000781506
0.000808405
0.000779618
0.000806495
0.000806559
0.000781513
0.000781565
0.000806483
0.000781511
0.000781536
0.000808484
0.000779638
0.000806508
0.000781568
0.000781529
0.000779628
0.000774996
0.00074484
0.000773094
0.000773074
0.000747059
0.000747039
0.000774996
0.000744836
0.000773079
0.0007731
0.000747043
0.000746981
0.000773108
0.000747039
0.000747039
0.000774995
0.000744776
0.000773084
0.000746955
0.000746997
0.000744808
0.000740056
0.00070958
0.000738262
0.000738257
0.000711759
0.000711762
0.000740052
0.000709569
0.000738259
0.000738204
0.000711768
0.000711742
0.00073824
0.000711759
0.000711742
0.000740002
0.000709559
0.00073822
0.000711737
0.000711749
0.000709561
0.000704671
0.000674167
0.000702756
0.000702756
0.00067588
0.000675888
0.000704658
0.000674173
0.000702764
0.000702744
0.000675882
0.000675895
0.000702742
0.000675888
0.000675879
0.00070465
0.00067418
0.000702748
0.000675897
0.000675884
0.000674169
0.00066941
0.000639341
0.000667159
0.000667168
0.000641097
0.000641099
0.000669415
0.000639345
0.000667161
0.000667176
0.000641096
0.000641102
0.000667162
0.0006411
0.000641102
0.000669423
0.000639346
0.000667166
0.000641105
0.000641101
0.000639346
0.000634604
0.000604764
0.000632423
0.000632424
0.00060666
0.000606662
0.000634608
0.000604766
0.000632422
0.000632427
0.000606661
0.000606665
0.000632429
0.000606662
0.000606666
0.00063461
0.000604768
0.000632427
0.000606665
0.000606666
0.000604767
0.000600162
0.000571728
0.00059826
0.00059826
0.000573754
0.000573756
0.000600162
0.000571726
0.00059826
0.000598264
0.000573758
0.000573761
0.000598264
0.000573755
0.000573761
0.000600166
0.000571728
0.000598264
0.000573755
0.000573761
0.000571727
0.000567465
0.000540518
0.000565901
0.000565896
0.000542608
0.000542605
0.000567461
0.000540516
0.000565901
0.000565899
0.000542607
0.000542606
0.000565897
0.000542603
0.000542604
0.000567464
0.000540516
0.000565897
0.000542606
0.000542604
0.000540515
0.000536156
0.00050669
0.000534595
0.000534593
0.000508972
0.000508972
0.000536154
0.000506691
0.000534596
0.000534595
0.000508971
0.000508971
0.000534594
0.000508972
0.000508971
0.000536155
0.000506689
0.000534591
0.000508971
0.000508971
0.000506689
0.0005017
0.0004684
0.00049984
0.00049984
0.000470813
0.000470813
0.000501701
0.0004684
0.000499838
0.00049984
0.000470814
0.000470813
0.000499839
0.000470814
0.000470814
0.0005017
0.0004684
0.000499839
0.000470815
0.000470814
0.000468399
0.000462923
0.000428671
0.000460732
0.000460733
0.000430597
0.000430598
0.000462925
0.000428673
0.000460732
0.000460732
0.000430596
0.000430598
0.000460733
0.000430598
0.000430598
0.000462925
0.000428672
0.000460733
0.000430598
0.000430597
0.000428671
0.000423211
0.000389075
0.00042059
0.00042059
0.000390959
0.000390959
0.000423211
0.000389074
0.00042059
0.00042059
0.000390959
0.000390959
0.00042059
0.000390958
0.000390959
0.000423212
0.000389074
0.00042059
0.000390958
0.000390959
0.000389074
0.000383828
0.000351327
0.000381339
0.000381338
0.000353358
0.000353357
0.000383827
0.000351326
0.000381338
0.000381338
0.000353358
0.000353357
0.000381338
0.000353357
0.000353356
0.000383828
0.000351326
0.000381338
0.000353357
0.000353357
0.000351324
0.000346375
0.000316044
0.000344293
0.000344292
0.000318098
0.000318094
0.000346374
0.000316041
0.000344294
0.000344292
0.0003181
0.000318093
0.000344291
0.000318097
0.000318093
0.000346375
0.000316041
0.000344292
0.000318097
0.000318094
0.000316038
0.000311516
0.000284747
0.000309771
0.00030977
0.000286537
0.000286537
0.000311514
0.000284747
0.000309771
0.000309769
0.000286537
0.000286536
0.000309768
0.000286537
0.000286536
0.000311514
0.000284746
0.000309768
0.000286537
0.000286537
0.000284746
0.000280759
0.000254785
0.00027916
0.00027916
0.000256599
0.000256599
0.000280758
0.000254783
0.00027916
0.00027916
0.000256599
0.0002566
0.00027916
0.000256599
0.0002566
0.000280759
0.000254785
0.00027916
0.0002566
0.000256599
0.000254784
0.000250493
0.00022199
0.000248732
0.000248732
0.000223952
0.000223952
0.000250492
0.00022199
0.000248731
0.000248731
0.000223952
0.000223952
0.000248732
0.000223952
0.000223952
0.000250494
0.000221988
0.000248731
0.000223952
0.000223951
0.000221989
0.000217309
0.000186945
0.00021537
0.00021537
0.000188982
0.000188981
0.000217309
0.000186945
0.00021537
0.00021537
0.000188981
0.000188982
0.00021537
0.000188981
0.000188982
0.000217309
0.000186945
0.000215369
0.000188981
0.000188981
0.000186945
0.000182078
0.000150908
0.000180046
0.000180046
0.000152971
0.000152971
0.000182078
0.000150908
0.000180045
0.000180046
0.000152971
0.000152971
0.000180046
0.000152971
0.000152971
0.000182078
0.000150907
0.000180045
0.000152971
0.000152971
0.000150907
0.000145961
0.000114484
0.000143897
0.000143896
0.000116554
0.000116554
0.000145961
0.000114484
0.000143896
0.000143897
0.000116554
0.000116554
0.000143897
0.000116554
0.000116554
0.000145961
0.000114484
0.000143896
0.000116554
0.000116554
0.000114483
0.000109492
7.79232e-05
0.00010743
0.000107429
7.99929e-05
7.99926e-05
0.000109492
7.79233e-05
0.000107429
0.000107429
7.99923e-05
7.99912e-05
0.000107429
7.99925e-05
7.99914e-05
0.000109492
7.79214e-05
0.000107429
7.99907e-05
7.99909e-05
7.79211e-05
7.28885e-05
4.1368e-05
7.08564e-05
7.08562e-05
4.34356e-05
4.34352e-05
7.28886e-05
4.13668e-05
7.08555e-05
7.08542e-05
4.3434e-05
4.34308e-05
7.08541e-05
4.34335e-05
4.3431e-05
7.28868e-05
4.13627e-05
7.08535e-05
4.34301e-05
4.34301e-05
4.13624e-05
3.63578e-05
8.68219e-06
3.44714e-05
3.44714e-05
1.16808e-05
1.16822e-05
3.6356e-05
8.68375e-06
3.44699e-05
3.4466e-05
1.1684e-05
1.16779e-05
3.4466e-05
1.16834e-05
1.16779e-05
3.63525e-05
8.67877e-06
3.44659e-05
1.16802e-05
1.16818e-05
8.68052e-06
5.45156e-06
7.16155e-06
7.16164e-06
5.45234e-06
7.16356e-06
7.15815e-06
6.24452e-06
6.24296e-06
6.24371e-06
7.15976e-06
5.44754e-06
7.16177e-06
0.00352996
0.00353252
0.00353124
0.0035314
0.00355849
0.00353228
0.00356177
0.00353247
0.00355945
0.00353268
0.00353294
0.00356242
0.00354298
0.00356451
0.00356353
0.00350263
0.00351624
0.0035201
0.00349486
0.00349287
0.00349827
0.00350262
0.00351623
0.00352014
0.00349489
0.00351841
0.00351862
0.00351848
0.00349199
0.00349193
0.00349204
0.00349198
0.00350208
0.00351368
0.00351891
0.00350959
0.00352096
0.00349937
0.0035099
0.00349313
0.00349849
0.00350248
0.00351928
0.00351415
0.00350989
0.00352174
0.00351017
0.00349956
0.00351936
0.00351027
0.00350682
0.00349898
0.00349911
0.00347509
0.00348927
0.00348915
0.00347301
0.00348661
0.00347198
0.00347511
0.0034893
0.00348922
0.00347305
0.00348295
0.003483
0.00348298
0.0034548
0.00345486
0.00345481
0.00345481
0.00347284
0.00348776
0.00348142
0.00347197
0.00348611
0.00347318
0.00347202
0.00348649
0.00347207
0.0034729
0.00348147
0.00348786
0.00347206
0.00348624
0.00347204
0.00347338
0.00348946
0.00348955
0.00347051
0.00347369
0.00347372
0.00343282
0.00344736
0.00344831
0.0034313
0.00344633
0.00343045
0.00343278
0.00344726
0.00344827
0.00343137
0.00344481
0.00344476
0.00344478
0.00341217
0.00341216
0.00341217
0.00341218
0.00343144
0.00344715
0.00344282
0.00343234
0.00344591
0.00343187
0.00343234
0.00344616
0.00343041
0.00343144
0.00344277
0.00344693
0.00343231
0.00344588
0.00343234
0.00343189
0.00344764
0.00344767
0.00342967
0.00343163
0.00343167
0.00338633
0.00340268
0.00340422
0.00338483
0.00340193
0.00338434
0.0033863
0.00340269
0.00340427
0.00338484
0.00340059
0.0034006
0.0034006
0.00336457
0.00336457
0.00336457
0.00336457
0.00338547
0.00340255
0.00339887
0.0033871
0.00340195
0.00338554
0.00338709
0.00340201
0.00338436
0.00338548
0.00339891
0.00340262
0.00338712
0.00340198
0.00338709
0.00338553
0.00340277
0.0034028
0.00338384
0.003385
0.00338502
0.00333725
0.00335438
0.00335578
0.00333608
0.00335399
0.00333573
0.00333726
0.00335438
0.00335574
0.00333604
0.00335235
0.00335235
0.00335236
0.00331569
0.00331569
0.00331568
0.00331569
0.00333688
0.00335441
0.00335091
0.00333867
0.00335406
0.00333676
0.00333866
0.00335396
0.00333573
0.00333687
0.00335088
0.00335441
0.00333871
0.00335403
0.00333866
0.00333674
0.00335444
0.00335443
0.00333532
0.00333619
0.00333618
0.00328822
0.00330545
0.00330651
0.00328733
0.00330519
0.00328712
0.00328823
0.00330543
0.00330645
0.00328735
0.00330353
0.00330353
0.00330353
0.00326741
0.00326742
0.00326741
0.00326742
0.00328817
0.00330549
0.00330215
0.00329008
0.00330524
0.00328799