/*--------------------------------*- C++ -*----------------------------------*\
| =========                 |                                                 |
| \\      /  F ield         | OpenFOAM: The Open Source CFD Toolbox           |
|  \\    /   O peration     | Version:  v2012                                 |
|   \\  /    A nd           | Website:  www.openfoam.com                      |
|    \\/     M anipulation  |                                                 |
\*---------------------------------------------------------------------------*/
FoamFile
{
    version     2.0;
    format      ascii;
    class       volScalarField;
    location    "0.29";
    object      p;
}
// * * * * * * * * * * * * * * * * * * * * * * * * * * * * * * * * * * * * * //

dimensions      [0 2 -2 0 0 0 0];


internalField   nonuniform List<scalar> 
247104
(
1.86416e-06
1.86413e-06
1.86427e-06
1.86422e-06
1.86411e-06
1.86424e-06
1.86425e-06
1.86407e-06
1.86414e-06
1.86419e-06
1.86425e-06
1.86408e-06
1.86398e-06
1.86411e-06
1.86426e-06
1.86416e-06
1.86427e-06
1.86425e-06
1.86394e-06
1.86357e-06
1.86342e-06
1.86361e-06
1.86399e-06
1.86427e-06
1.86427e-06
1.86422e-06
1.86408e-06
1.86357e-06
1.86308e-06
1.8629e-06
1.86313e-06
1.86364e-06
1.86413e-06
1.86421e-06
1.86417e-06
1.86411e-06
1.86398e-06
1.86342e-06
1.8629e-06
1.86272e-06
1.86295e-06
1.8635e-06
1.86403e-06
1.86409e-06
1.86424e-06
1.86411e-06
1.86361e-06
1.86313e-06
1.86295e-06
1.86317e-06
1.86368e-06
1.86415e-06
1.86424e-06
1.86425e-06
1.86426e-06
1.86399e-06
1.86364e-06
1.8635e-06
1.86368e-06
1.86403e-06
1.86427e-06
1.86426e-06
1.86406e-06
1.86416e-06
1.86427e-06
1.86413e-06
1.86403e-06
1.86415e-06
1.86427e-06
1.86413e-06
1.86427e-06
1.86421e-06
1.86409e-06
1.86424e-06
1.86426e-06
1.83075e-06
1.82875e-06
1.82828e-06
1.82709e-06
1.8271e-06
1.82702e-06
1.82703e-06
1.82831e-06
1.82863e-06
1.82828e-06
1.82623e-06
1.82349e-06
1.82345e-06
1.82344e-06
1.82349e-06
1.82662e-06
1.82685e-06
1.82709e-06
1.82349e-06
1.82343e-06
1.82349e-06
1.82349e-06
1.82343e-06
1.82349e-06
1.82701e-06
1.82814e-06
1.83076e-06
1.82709e-06
1.82344e-06
1.82349e-06
1.82359e-06
1.82359e-06
1.82349e-06
1.82345e-06
1.82697e-06
1.8286e-06
1.82874e-06
1.82702e-06
1.82344e-06
1.82349e-06
1.82359e-06
1.82359e-06
1.82349e-06
1.82345e-06
1.82715e-06
1.82711e-06
1.82703e-06
1.82349e-06
1.82343e-06
1.82349e-06
1.82349e-06
1.82343e-06
1.82349e-06
1.82692e-06
1.82801e-06
1.82831e-06
1.82662e-06
1.82349e-06
1.82344e-06
1.82344e-06
1.82349e-06
1.82681e-06
1.82702e-06
1.82845e-06
1.82863e-06
1.82685e-06
1.82701e-06
1.82697e-06
1.82715e-06
1.82692e-06
1.82702e-06
1.82887e-06
1.82814e-06
1.8286e-06
1.82711e-06
1.828e-06
1.82845e-06
1.81065e-06
1.81046e-06
1.8103e-06
1.80816e-06
1.80807e-06
1.80804e-06
1.80813e-06
1.81028e-06
1.81052e-06
1.81029e-06
1.80743e-06
1.80446e-06
1.80436e-06
1.80436e-06
1.80445e-06
1.80799e-06
1.8086e-06
1.80815e-06
1.80444e-06
1.80414e-06
1.80417e-06
1.80416e-06
1.80414e-06
1.80445e-06
1.80881e-06
1.81079e-06
1.81065e-06
1.80807e-06
1.80436e-06
1.80416e-06
1.80419e-06
1.80419e-06
1.80416e-06
1.80436e-06
1.80886e-06
1.81052e-06
1.81046e-06
1.80804e-06
1.80436e-06
1.80416e-06
1.80419e-06
1.80419e-06
1.80416e-06
1.80436e-06
1.8088e-06
1.80871e-06
1.80813e-06
1.80445e-06
1.80414e-06
1.80416e-06
1.80416e-06
1.80413e-06
1.80445e-06
1.80887e-06
1.81087e-06
1.81028e-06
1.808e-06
1.80445e-06
1.80436e-06
1.80436e-06
1.80444e-06
1.80847e-06
1.80875e-06
1.81077e-06
1.81052e-06
1.8086e-06
1.80881e-06
1.80886e-06
1.8088e-06
1.80886e-06
1.80874e-06
1.8107e-06
1.81079e-06
1.81053e-06
1.80871e-06
1.81087e-06
1.81077e-06
1.79154e-06
1.79137e-06
1.79124e-06
1.78903e-06
1.78894e-06
1.78885e-06
1.78904e-06
1.79121e-06
1.79147e-06
1.79124e-06
1.78825e-06
1.7853e-06
1.78526e-06
1.78526e-06
1.7853e-06
1.78882e-06
1.78958e-06
1.78903e-06
1.7853e-06
1.78516e-06
1.78516e-06
1.78516e-06
1.78516e-06
1.7853e-06
1.78973e-06
1.79169e-06
1.79154e-06
1.78894e-06
1.78526e-06
1.78516e-06
1.78517e-06
1.78517e-06
1.78516e-06
1.78526e-06
1.7898e-06
1.79141e-06
1.79137e-06
1.78885e-06
1.78526e-06
1.78516e-06
1.78517e-06
1.78517e-06
1.78516e-06
1.78526e-06
1.78977e-06
1.78966e-06
1.78904e-06
1.7853e-06
1.78516e-06
1.78516e-06
1.78516e-06
1.78516e-06
1.7853e-06
1.78978e-06
1.79175e-06
1.7912e-06
1.78882e-06
1.7853e-06
1.78526e-06
1.78526e-06
1.7853e-06
1.78954e-06
1.78971e-06
1.79171e-06
1.79146e-06
1.78958e-06
1.78973e-06
1.7898e-06
1.78977e-06
1.78979e-06
1.78971e-06
1.79172e-06
1.7917e-06
1.79141e-06
1.78967e-06
1.79175e-06
1.79171e-06
1.77239e-06
1.77221e-06
1.77205e-06
1.76984e-06
1.76974e-06
1.76963e-06
1.76984e-06
1.77202e-06
1.77228e-06
1.77205e-06
1.76906e-06
1.7661e-06
1.76609e-06
1.76609e-06
1.7661e-06
1.76959e-06
1.77041e-06
1.76984e-06
1.7661e-06
1.76606e-06
1.76606e-06
1.76606e-06
1.76606e-06
1.7661e-06
1.77057e-06
1.77253e-06
1.77239e-06
1.76974e-06
1.76609e-06
1.76606e-06
1.76606e-06
1.76606e-06
1.76606e-06
1.76609e-06
1.77068e-06
1.77229e-06
1.77221e-06
1.76963e-06
1.76609e-06
1.76606e-06
1.76606e-06
1.76606e-06
1.76606e-06
1.76609e-06
1.77067e-06
1.77054e-06
1.76984e-06
1.7661e-06
1.76606e-06
1.76606e-06
1.76606e-06
1.76606e-06
1.7661e-06
1.77064e-06
1.77262e-06
1.77202e-06
1.76959e-06
1.7661e-06
1.76609e-06
1.76609e-06
1.7661e-06
1.77044e-06
1.77057e-06
1.77254e-06
1.77228e-06
1.77041e-06
1.77057e-06
1.77068e-06
1.77067e-06
1.77064e-06
1.77057e-06
1.77251e-06
1.77253e-06
1.77229e-06
1.77054e-06
1.77262e-06
1.77254e-06
1.75322e-06
1.75305e-06
1.75287e-06
1.75065e-06
1.75056e-06
1.75044e-06
1.75066e-06
1.75285e-06
1.75309e-06
1.75287e-06
1.74988e-06
1.74691e-06
1.74691e-06
1.74691e-06
1.74691e-06
1.75039e-06
1.75122e-06
1.75065e-06
1.74691e-06
1.7469e-06
1.7469e-06
1.7469e-06
1.7469e-06
1.74691e-06
1.7514e-06
1.75336e-06
1.75322e-06
1.75056e-06
1.74691e-06
1.7469e-06
1.7469e-06
1.7469e-06
1.7469e-06
1.74691e-06
1.75152e-06
1.75313e-06
1.75305e-06
1.75044e-06
1.74691e-06
1.7469e-06
1.7469e-06
1.7469e-06
1.7469e-06
1.74691e-06
1.7515e-06
1.75138e-06
1.75066e-06
1.74691e-06
1.7469e-06
1.7469e-06
1.7469e-06
1.7469e-06
1.74691e-06
1.75147e-06
1.75345e-06
1.75285e-06
1.75039e-06
1.74691e-06
1.74691e-06
1.74691e-06
1.74691e-06
1.75129e-06
1.7514e-06
1.75336e-06
1.75309e-06
1.75122e-06
1.7514e-06
1.75152e-06
1.7515e-06
1.75147e-06
1.7514e-06
1.75334e-06
1.75336e-06
1.75313e-06
1.75138e-06
1.75345e-06
1.75336e-06
1.73404e-06
1.73387e-06
1.73369e-06
1.73148e-06
1.73138e-06
1.73127e-06
1.73148e-06
1.73367e-06
1.73392e-06
1.73369e-06
1.7307e-06
1.72774e-06
1.72773e-06
1.72773e-06
1.72774e-06
1.7312e-06
1.73204e-06
1.73148e-06
1.72774e-06
1.72773e-06
1.72773e-06
1.72773e-06
1.72773e-06
1.72774e-06
1.73222e-06
1.73418e-06
1.73404e-06
1.73138e-06
1.72773e-06
1.72773e-06
1.72773e-06
1.72773e-06
1.72773e-06
1.72773e-06
1.73234e-06
1.73396e-06
1.73387e-06
1.73127e-06
1.72773e-06
1.72773e-06
1.72773e-06
1.72773e-06
1.72773e-06
1.72773e-06
1.73233e-06
1.73221e-06
1.73148e-06
1.72774e-06
1.72773e-06
1.72773e-06
1.72773e-06
1.72773e-06
1.72774e-06
1.73229e-06
1.73428e-06
1.73367e-06
1.7312e-06
1.72774e-06
1.72773e-06
1.72773e-06
1.72774e-06
1.73212e-06
1.73223e-06
1.73418e-06
1.73392e-06
1.73205e-06
1.73222e-06
1.73234e-06
1.73233e-06
1.73229e-06
1.73223e-06
1.73415e-06
1.73418e-06
1.73396e-06
1.73221e-06
1.73428e-06
1.73418e-06
1.71486e-06
1.7147e-06
1.71451e-06
1.7123e-06
1.7122e-06
1.71209e-06
1.7123e-06
1.71449e-06
1.71474e-06
1.71451e-06
1.71153e-06
1.70856e-06
1.70856e-06
1.70856e-06
1.70856e-06
1.71202e-06
1.71287e-06
1.7123e-06
1.70856e-06
1.70856e-06
1.70856e-06
1.70856e-06
1.70856e-06
1.70856e-06
1.71304e-06
1.715e-06
1.71487e-06
1.7122e-06
1.70856e-06
1.70856e-06
1.70856e-06
1.70856e-06
1.70856e-06
1.70856e-06
1.71317e-06
1.71478e-06
1.7147e-06
1.71209e-06
1.70856e-06
1.70856e-06
1.70856e-06
1.70856e-06
1.70856e-06
1.70856e-06
1.71316e-06
1.71303e-06
1.7123e-06
1.70856e-06
1.70856e-06
1.70856e-06
1.70856e-06
1.70856e-06
1.70856e-06
1.71312e-06
1.7151e-06
1.71449e-06
1.71202e-06
1.70856e-06
1.70856e-06
1.70856e-06
1.70856e-06
1.71294e-06
1.71305e-06
1.715e-06
1.71474e-06
1.71287e-06
1.71304e-06
1.71317e-06
1.71316e-06
1.71312e-06
1.71305e-06
1.71498e-06
1.715e-06
1.71478e-06
1.71303e-06
1.7151e-06
1.715e-06
1.69569e-06
1.69552e-06
1.69534e-06
1.69313e-06
1.69303e-06
1.69291e-06
1.69312e-06
1.69532e-06
1.69556e-06
1.69534e-06
1.69235e-06
1.68938e-06
1.68938e-06
1.68938e-06
1.68938e-06
1.69285e-06
1.69369e-06
1.69312e-06
1.68938e-06
1.68938e-06
1.68938e-06
1.68938e-06
1.68938e-06
1.68938e-06
1.69386e-06
1.69583e-06
1.69569e-06
1.69303e-06
1.68938e-06
1.68938e-06
1.68938e-06
1.68938e-06
1.68938e-06
1.68938e-06
1.69399e-06
1.69561e-06
1.69552e-06
1.69292e-06
1.68938e-06
1.68938e-06
1.68938e-06
1.68938e-06
1.68938e-06
1.68938e-06
1.69398e-06
1.69386e-06
1.69313e-06
1.68938e-06
1.68938e-06
1.68938e-06
1.68938e-06
1.68938e-06
1.68938e-06
1.69394e-06
1.69593e-06
1.69532e-06
1.69285e-06
1.68938e-06
1.68938e-06
1.68938e-06
1.68938e-06
1.69377e-06
1.69388e-06
1.69583e-06
1.69556e-06
1.6937e-06
1.69386e-06
1.69399e-06
1.69398e-06
1.69394e-06
1.69388e-06
1.6958e-06
1.69583e-06
1.69561e-06
1.69386e-06
1.69593e-06
1.69583e-06
1.67651e-06
1.67635e-06
1.67616e-06
1.67395e-06
1.67385e-06
1.67374e-06
1.67395e-06
1.67614e-06
1.67639e-06
1.67616e-06
1.67318e-06
1.67021e-06
1.67021e-06
1.67021e-06
1.67021e-06
1.67367e-06
1.67452e-06
1.67395e-06
1.67021e-06
1.67021e-06
1.67021e-06
1.67021e-06
1.67021e-06
1.67021e-06
1.67469e-06
1.67665e-06
1.67652e-06
1.67385e-06
1.67021e-06
1.67021e-06
1.67021e-06
1.67021e-06
1.67021e-06
1.67021e-06
1.67482e-06
1.67643e-06
1.67635e-06
1.67374e-06
1.67021e-06
1.67021e-06
1.67021e-06
1.67021e-06
1.67021e-06
1.67021e-06
1.67481e-06
1.67468e-06
1.67395e-06
1.67021e-06
1.67021e-06
1.67021e-06
1.67021e-06
1.67021e-06
1.67021e-06
1.67477e-06
1.67675e-06
1.67614e-06
1.67367e-06
1.67021e-06
1.67021e-06
1.67021e-06
1.67021e-06
1.67459e-06
1.6747e-06
1.67665e-06
1.67639e-06
1.67452e-06
1.67469e-06
1.67482e-06
1.67481e-06
1.67476e-06
1.6747e-06
1.67663e-06
1.67665e-06
1.67643e-06
1.67468e-06
1.67675e-06
1.67665e-06
1.65734e-06
1.65717e-06
1.65699e-06
1.65477e-06
1.65468e-06
1.65456e-06
1.65477e-06
1.65697e-06
1.65721e-06
1.65698e-06
1.654e-06
1.65103e-06
1.65103e-06
1.65103e-06
1.65103e-06
1.6545e-06
1.65534e-06
1.65477e-06
1.65103e-06
1.65103e-06
1.65103e-06
1.65103e-06
1.65103e-06
1.65103e-06
1.65551e-06
1.65748e-06
1.65734e-06
1.65468e-06
1.65103e-06
1.65103e-06
1.65103e-06
1.65103e-06
1.65103e-06
1.65103e-06
1.65564e-06
1.65726e-06
1.65717e-06
1.65456e-06
1.65103e-06
1.65103e-06
1.65103e-06
1.65103e-06
1.65103e-06
1.65103e-06
1.65563e-06
1.6555e-06
1.65477e-06
1.65103e-06
1.65103e-06
1.65103e-06
1.65103e-06
1.65103e-06
1.65103e-06
1.65559e-06
1.65758e-06
1.65697e-06
1.6545e-06
1.65103e-06
1.65103e-06
1.65103e-06
1.65103e-06
1.65542e-06
1.65553e-06
1.65748e-06
1.65721e-06
1.65534e-06
1.65551e-06
1.65564e-06
1.65563e-06
1.65559e-06
1.65553e-06
1.65745e-06
1.65748e-06
1.65726e-06
1.65551e-06
1.65758e-06
1.65748e-06
1.63816e-06
1.63799e-06
1.63781e-06
1.6356e-06
1.6355e-06
1.63539e-06
1.6356e-06
1.63779e-06
1.63804e-06
1.63781e-06
1.63482e-06
1.63186e-06
1.63186e-06
1.63186e-06
1.63186e-06
1.63532e-06
1.63617e-06
1.6356e-06
1.63186e-06
1.63186e-06
1.63186e-06
1.63186e-06
1.63186e-06
1.63186e-06
1.63634e-06
1.6383e-06
1.63817e-06
1.6355e-06
1.63186e-06
1.63186e-06
1.63186e-06
1.63186e-06
1.63186e-06
1.63186e-06
1.63647e-06
1.63808e-06
1.63799e-06
1.63539e-06
1.63186e-06
1.63186e-06
1.63186e-06
1.63186e-06
1.63186e-06
1.63186e-06
1.63646e-06
1.63633e-06
1.6356e-06
1.63186e-06
1.63186e-06
1.63186e-06
1.63186e-06
1.63186e-06
1.63186e-06
1.63642e-06
1.6384e-06
1.63779e-06
1.63532e-06
1.63186e-06
1.63186e-06
1.63186e-06
1.63186e-06
1.63624e-06
1.63635e-06
1.6383e-06
1.63804e-06
1.63617e-06
1.63634e-06
1.63646e-06
1.63645e-06
1.63641e-06
1.63635e-06
1.63827e-06
1.6383e-06
1.63808e-06
1.63633e-06
1.6384e-06
1.6383e-06
1.61899e-06
1.61882e-06
1.61864e-06
1.61642e-06
1.61632e-06
1.61621e-06
1.61642e-06
1.61862e-06
1.61886e-06
1.61863e-06
1.61565e-06
1.61268e-06
1.61268e-06
1.61268e-06
1.61268e-06
1.61615e-06
1.61699e-06
1.61642e-06
1.61268e-06
1.61268e-06
1.61268e-06
1.61268e-06
1.61268e-06
1.61268e-06
1.61716e-06
1.61913e-06
1.61899e-06
1.61632e-06
1.61268e-06
1.61268e-06
1.61268e-06
1.61268e-06
1.61268e-06
1.61268e-06
1.61729e-06
1.6189e-06
1.61882e-06
1.61621e-06
1.61268e-06
1.61268e-06
1.61268e-06
1.61268e-06
1.61268e-06
1.61268e-06
1.61728e-06
1.61715e-06
1.61642e-06
1.61268e-06
1.61268e-06
1.61268e-06
1.61268e-06
1.61268e-06
1.61268e-06
1.61724e-06
1.61923e-06
1.61862e-06
1.61615e-06
1.61268e-06
1.61268e-06
1.61268e-06
1.61268e-06
1.61707e-06
1.61718e-06
1.61913e-06
1.61886e-06
1.61699e-06
1.61716e-06
1.61729e-06
1.61728e-06
1.61724e-06
1.61718e-06
1.6191e-06
1.61913e-06
1.6189e-06
1.61715e-06
1.61923e-06
1.61913e-06
1.59981e-06
1.59964e-06
1.59946e-06
1.59725e-06
1.59715e-06
1.59704e-06
1.59725e-06
1.59944e-06
1.59968e-06
1.59946e-06
1.59647e-06
1.59351e-06
1.59351e-06
1.59351e-06
1.59351e-06
1.59697e-06
1.59781e-06
1.59725e-06
1.59351e-06
1.59351e-06
1.59351e-06
1.59351e-06
1.59351e-06
1.59351e-06
1.59799e-06
1.59995e-06
1.59981e-06
1.59715e-06
1.59351e-06
1.59351e-06
1.59351e-06
1.59351e-06
1.59351e-06
1.59351e-06
1.59811e-06
1.59973e-06
1.59964e-06
1.59704e-06
1.59351e-06
1.59351e-06
1.59351e-06
1.59351e-06
1.59351e-06
1.59351e-06
1.5981e-06
1.59798e-06
1.59725e-06
1.5935e-06
1.59351e-06
1.59351e-06
1.59351e-06
1.59351e-06
1.59351e-06
1.59807e-06
1.60005e-06
1.59944e-06
1.59697e-06
1.59351e-06
1.59351e-06
1.59351e-06
1.59351e-06
1.59789e-06
1.598e-06
1.59995e-06
1.59969e-06
1.59782e-06
1.59799e-06
1.59811e-06
1.5981e-06
1.59806e-06
1.598e-06
1.59992e-06
1.59995e-06
1.59973e-06
1.59798e-06
1.60005e-06
1.59995e-06
1.58064e-06
1.58047e-06
1.58028e-06
1.57807e-06
1.57797e-06
1.57786e-06
1.57807e-06
1.58026e-06
1.58051e-06
1.58028e-06
1.5773e-06
1.57433e-06
1.57433e-06
1.57433e-06
1.57433e-06
1.57779e-06
1.57864e-06
1.57807e-06
1.57433e-06
1.57433e-06
1.57433e-06
1.57433e-06
1.57433e-06
1.57433e-06
1.57881e-06
1.58077e-06
1.58064e-06
1.57797e-06
1.57433e-06
1.57433e-06
1.57433e-06
1.57433e-06
1.57433e-06
1.57433e-06
1.57894e-06
1.58055e-06
1.58047e-06
1.57786e-06
1.57433e-06
1.57433e-06
1.57433e-06
1.57433e-06
1.57433e-06
1.57433e-06
1.57893e-06
1.5788e-06
1.57807e-06
1.57433e-06
1.57433e-06
1.57433e-06
1.57433e-06
1.57433e-06
1.57433e-06
1.57889e-06
1.58088e-06
1.58026e-06
1.5778e-06
1.57433e-06
1.57433e-06
1.57433e-06
1.57433e-06
1.57872e-06
1.57882e-06
1.58077e-06
1.58051e-06
1.57864e-06
1.57881e-06
1.57894e-06
1.57893e-06
1.57889e-06
1.57882e-06
1.58075e-06
1.58077e-06
1.58055e-06
1.5788e-06
1.58088e-06
1.58078e-06
1.56146e-06
1.56129e-06
1.56111e-06
1.5589e-06
1.5588e-06
1.55869e-06
1.5589e-06
1.56109e-06
1.56134e-06
1.56111e-06
1.55812e-06
1.55516e-06
1.55516e-06
1.55516e-06
1.55516e-06
1.55862e-06
1.55947e-06
1.5589e-06
1.55516e-06
1.55516e-06
1.55516e-06
1.55516e-06
1.55516e-06
1.55516e-06
1.55964e-06
1.5616e-06
1.56147e-06
1.5588e-06
1.55516e-06
1.55516e-06
1.55516e-06
1.55516e-06
1.55516e-06
1.55516e-06
1.55977e-06
1.56138e-06
1.56129e-06
1.55869e-06
1.55516e-06
1.55516e-06
1.55516e-06
1.55516e-06
1.55516e-06
1.55516e-06
1.55976e-06
1.55963e-06
1.5589e-06
1.55516e-06
1.55516e-06
1.55516e-06
1.55516e-06
1.55516e-06
1.55516e-06
1.55972e-06
1.5617e-06
1.56109e-06
1.55862e-06
1.55516e-06
1.55516e-06
1.55516e-06
1.55516e-06
1.55954e-06
1.55965e-06
1.5616e-06
1.56134e-06
1.55947e-06
1.55964e-06
1.55976e-06
1.55975e-06
1.55971e-06
1.55965e-06
1.56157e-06
1.5616e-06
1.56138e-06
1.55963e-06
1.5617e-06
1.5616e-06
1.54229e-06
1.54212e-06
1.54194e-06
1.53972e-06
1.53963e-06
1.53951e-06
1.53973e-06
1.54192e-06
1.54216e-06
1.54194e-06
1.53895e-06
1.53598e-06
1.53598e-06
1.53598e-06
1.53598e-06
1.53945e-06
1.54029e-06
1.53972e-06
1.53598e-06
1.53598e-06
1.53598e-06
1.53598e-06
1.53598e-06
1.53598e-06
1.54046e-06
1.54243e-06
1.54229e-06
1.53963e-06
1.53598e-06
1.53598e-06
1.53598e-06
1.53598e-06
1.53598e-06
1.53598e-06
1.54059e-06
1.54221e-06
1.54212e-06
1.53952e-06
1.53598e-06
1.53598e-06
1.53598e-06
1.53598e-06
1.53598e-06
1.53598e-06
1.54058e-06
1.54046e-06
1.53973e-06
1.53598e-06
1.53598e-06
1.53598e-06
1.53598e-06
1.53598e-06
1.53598e-06
1.54054e-06
1.54253e-06
1.54192e-06
1.53945e-06
1.53598e-06
1.53598e-06
1.53598e-06
1.53598e-06
1.54037e-06
1.54048e-06
1.54243e-06
1.54216e-06
1.5403e-06
1.54046e-06
1.54059e-06
1.54058e-06
1.54054e-06
1.54048e-06
1.5424e-06
1.54243e-06
1.54221e-06
1.54046e-06
1.54253e-06
1.54243e-06
1.52312e-06
1.52295e-06
1.52276e-06
1.52055e-06
1.52045e-06
1.52034e-06
1.52055e-06
1.52274e-06
1.52299e-06
1.52276e-06
1.51978e-06
1.51681e-06
1.51681e-06
1.51681e-06
1.51681e-06
1.52028e-06
1.52112e-06
1.52055e-06
1.51681e-06
1.51681e-06
1.51681e-06
1.51681e-06
1.51681e-06
1.51681e-06
1.52129e-06
1.52326e-06
1.52312e-06
1.52045e-06
1.51681e-06
1.51681e-06
1.51681e-06
1.51681e-06
1.51681e-06
1.51681e-06
1.52142e-06
1.52303e-06
1.52295e-06
1.52034e-06
1.51681e-06
1.51681e-06
1.51681e-06
1.51681e-06
1.51681e-06
1.51681e-06
1.52141e-06
1.52128e-06
1.52055e-06
1.51681e-06
1.51681e-06
1.51681e-06
1.51681e-06
1.51681e-06
1.51681e-06
1.52137e-06
1.52336e-06
1.52274e-06
1.52028e-06
1.51681e-06
1.51681e-06
1.51681e-06
1.51681e-06
1.5212e-06
1.52131e-06
1.52326e-06
1.52299e-06
1.52112e-06
1.52129e-06
1.52142e-06
1.52141e-06
1.52137e-06
1.52131e-06
1.52323e-06
1.52325e-06
1.52303e-06
1.52128e-06
1.52336e-06
1.52326e-06
1.50394e-06
1.50377e-06
1.50359e-06
1.50138e-06
1.50128e-06
1.50117e-06
1.50138e-06
1.50357e-06
1.50382e-06
1.50359e-06
1.5006e-06
1.49764e-06
1.49764e-06
1.49764e-06
1.49764e-06
1.5011e-06
1.50195e-06
1.50138e-06
1.49764e-06
1.49764e-06
1.49764e-06
1.49764e-06
1.49764e-06
1.49764e-06
1.50212e-06
1.50408e-06
1.50395e-06
1.50128e-06
1.49764e-06
1.49764e-06
1.49764e-06
1.49764e-06
1.49764e-06
1.49764e-06
1.50225e-06
1.50386e-06
1.50377e-06
1.50117e-06
1.49764e-06
1.49764e-06
1.49764e-06
1.49764e-06
1.49764e-06
1.49764e-06
1.50224e-06
1.50211e-06
1.50138e-06
1.49764e-06
1.49764e-06
1.49764e-06
1.49764e-06
1.49764e-06
1.49764e-06
1.5022e-06
1.50418e-06
1.50357e-06
1.5011e-06
1.49764e-06
1.49764e-06
1.49764e-06
1.49764e-06
1.50202e-06
1.50213e-06
1.50408e-06
1.50382e-06
1.50195e-06
1.50212e-06
1.50224e-06
1.50224e-06
1.50219e-06
1.50213e-06
1.50405e-06
1.50408e-06
1.50386e-06
1.50211e-06
1.50418e-06
1.50408e-06
1.48477e-06
1.4846e-06
1.48442e-06
1.48221e-06
1.48211e-06
1.482e-06
1.48221e-06
1.4844e-06
1.48464e-06
1.48442e-06
1.48143e-06
1.47846e-06
1.47846e-06
1.47846e-06
1.47846e-06
1.48193e-06
1.48277e-06
1.4822e-06
1.47846e-06
1.47846e-06
1.47846e-06
1.47846e-06
1.47846e-06
1.47846e-06
1.48295e-06
1.48491e-06
1.48477e-06
1.48211e-06
1.47846e-06
1.47846e-06
1.47846e-06
1.47846e-06
1.47846e-06
1.47846e-06
1.48307e-06
1.48469e-06
1.4846e-06
1.482e-06
1.47846e-06
1.47846e-06
1.47846e-06
1.47846e-06
1.47846e-06
1.47846e-06
1.48306e-06
1.48294e-06
1.48221e-06
1.47846e-06
1.47846e-06
1.47846e-06
1.47846e-06
1.47846e-06
1.47846e-06
1.48302e-06
1.48501e-06
1.4844e-06
1.48193e-06
1.47846e-06
1.47846e-06
1.47846e-06
1.47846e-06
1.48285e-06
1.48296e-06
1.48491e-06
1.48464e-06
1.48278e-06
1.48294e-06
1.48307e-06
1.48306e-06
1.48302e-06
1.48296e-06
1.48488e-06
1.48491e-06
1.48469e-06
1.48294e-06
1.48501e-06
1.48491e-06
1.4656e-06
1.46543e-06
1.46524e-06
1.46303e-06
1.46294e-06
1.46282e-06
1.46303e-06
1.46522e-06
1.46547e-06
1.46524e-06
1.46226e-06
1.45929e-06
1.45929e-06
1.45929e-06
1.45929e-06
1.46276e-06
1.4636e-06
1.46303e-06
1.45929e-06
1.45929e-06
1.45929e-06
1.45929e-06
1.45929e-06
1.45929e-06
1.46377e-06
1.46574e-06
1.4656e-06
1.46293e-06
1.45929e-06
1.45929e-06
1.45929e-06
1.45929e-06
1.45929e-06
1.45929e-06
1.4639e-06
1.46551e-06
1.46543e-06
1.46282e-06
1.45929e-06
1.45929e-06
1.45929e-06
1.45929e-06
1.45929e-06
1.45929e-06
1.46389e-06
1.46376e-06
1.46303e-06
1.45929e-06
1.45929e-06
1.45929e-06
1.45929e-06
1.45929e-06
1.45929e-06
1.46385e-06
1.46584e-06
1.46523e-06
1.46276e-06
1.45929e-06
1.45929e-06
1.45929e-06
1.45929e-06
1.46368e-06
1.46379e-06
1.46574e-06
1.46547e-06
1.4636e-06
1.46377e-06
1.4639e-06
1.46389e-06
1.46385e-06
1.46379e-06
1.46571e-06
1.46574e-06
1.46551e-06
1.46376e-06
1.46584e-06
1.46574e-06
1.44642e-06
1.44626e-06
1.44607e-06
1.44386e-06
1.44376e-06
1.44365e-06
1.44386e-06
1.44605e-06
1.4463e-06
1.44607e-06
1.44309e-06
1.44012e-06
1.44012e-06
1.44012e-06
1.44012e-06
1.44358e-06
1.44443e-06
1.44386e-06
1.44012e-06
1.44012e-06
1.44012e-06
1.44012e-06
1.44012e-06
1.44012e-06
1.4446e-06
1.44656e-06
1.44643e-06
1.44376e-06
1.44012e-06
1.44012e-06
1.44012e-06
1.44012e-06
1.44012e-06
1.44012e-06
1.44473e-06
1.44634e-06
1.44626e-06
1.44365e-06
1.44012e-06
1.44012e-06
1.44012e-06
1.44012e-06
1.44012e-06
1.44012e-06
1.44472e-06
1.44459e-06
1.44386e-06
1.44012e-06
1.44012e-06
1.44012e-06
1.44012e-06
1.44012e-06
1.44012e-06
1.44468e-06
1.44666e-06
1.44605e-06
1.44358e-06
1.44012e-06
1.44012e-06
1.44012e-06
1.44012e-06
1.44451e-06
1.44461e-06
1.44656e-06
1.4463e-06
1.44443e-06
1.4446e-06
1.44473e-06
1.44472e-06
1.44468e-06
1.44461e-06
1.44654e-06
1.44656e-06
1.44634e-06
1.44459e-06
1.44666e-06
1.44656e-06
1.42725e-06
1.42708e-06
1.4269e-06
1.42469e-06
1.42459e-06
1.42448e-06
1.42469e-06
1.42688e-06
1.42712e-06
1.4269e-06
1.42391e-06
1.42095e-06
1.42095e-06
1.42095e-06
1.42095e-06
1.42441e-06
1.42526e-06
1.42469e-06
1.42095e-06
1.42095e-06
1.42095e-06
1.42095e-06
1.42095e-06
1.42095e-06
1.42543e-06
1.42739e-06
1.42725e-06
1.42459e-06
1.42095e-06
1.42095e-06
1.42095e-06
1.42095e-06
1.42095e-06
1.42095e-06
1.42555e-06
1.42717e-06
1.42708e-06
1.42448e-06
1.42095e-06
1.42095e-06
1.42095e-06
1.42095e-06
1.42095e-06
1.42095e-06
1.42554e-06
1.42542e-06
1.42469e-06
1.42095e-06
1.42095e-06
1.42095e-06
1.42095e-06
1.42095e-06
1.42095e-06
1.42551e-06
1.42749e-06
1.42688e-06
1.42441e-06
1.42095e-06
1.42095e-06
1.42095e-06
1.42095e-06
1.42533e-06
1.42544e-06
1.42739e-06
1.42713e-06
1.42526e-06
1.42543e-06
1.42555e-06
1.42554e-06
1.4255e-06
1.42544e-06
1.42736e-06
1.42739e-06
1.42717e-06
1.42542e-06
1.42749e-06
1.42739e-06
1.40808e-06
1.40791e-06
1.40772e-06
1.40551e-06
1.40542e-06
1.4053e-06
1.40551e-06
1.4077e-06
1.40795e-06
1.40772e-06
1.40474e-06
1.40177e-06
1.40177e-06
1.40177e-06
1.40177e-06
1.40524e-06
1.40608e-06
1.40551e-06
1.40177e-06
1.40177e-06
1.40177e-06
1.40177e-06
1.40177e-06
1.40177e-06
1.40625e-06
1.40822e-06
1.40808e-06
1.40542e-06
1.40177e-06
1.40177e-06
1.40177e-06
1.40177e-06
1.40177e-06
1.40177e-06
1.40638e-06
1.40799e-06
1.40791e-06
1.4053e-06
1.40177e-06
1.40177e-06
1.40177e-06
1.40177e-06
1.40177e-06
1.40177e-06
1.40637e-06
1.40624e-06
1.40551e-06
1.40177e-06
1.40177e-06
1.40177e-06
1.40177e-06
1.40177e-06
1.40177e-06
1.40633e-06
1.40832e-06
1.40771e-06
1.40524e-06
1.40177e-06
1.40177e-06
1.40177e-06
1.40177e-06
1.40616e-06
1.40627e-06
1.40822e-06
1.40795e-06
1.40608e-06
1.40625e-06
1.40638e-06
1.40637e-06
1.40633e-06
1.40627e-06
1.40819e-06
1.40822e-06
1.40799e-06
1.40624e-06
1.40832e-06
1.40822e-06
1.38891e-06
1.38874e-06
1.38855e-06
1.38634e-06
1.38624e-06
1.38613e-06
1.38634e-06
1.38853e-06
1.38878e-06
1.38855e-06
1.38557e-06
1.3826e-06
1.3826e-06
1.3826e-06
1.3826e-06
1.38606e-06
1.38691e-06
1.38634e-06
1.3826e-06
1.3826e-06
1.3826e-06
1.3826e-06
1.3826e-06
1.3826e-06
1.38708e-06
1.38904e-06
1.38891e-06
1.38624e-06
1.3826e-06
1.3826e-06
1.3826e-06
1.3826e-06
1.3826e-06
1.3826e-06
1.38721e-06
1.38882e-06
1.38874e-06
1.38613e-06
1.3826e-06
1.3826e-06
1.3826e-06
1.3826e-06
1.3826e-06
1.3826e-06
1.3872e-06
1.38707e-06
1.38634e-06
1.3826e-06
1.3826e-06
1.3826e-06
1.3826e-06
1.3826e-06
1.3826e-06
1.38716e-06
1.38915e-06
1.38853e-06
1.38607e-06
1.3826e-06
1.3826e-06
1.3826e-06
1.3826e-06
1.38699e-06
1.38709e-06
1.38904e-06
1.38878e-06
1.38691e-06
1.38708e-06
1.38721e-06
1.3872e-06
1.38716e-06
1.38709e-06
1.38902e-06
1.38904e-06
1.38882e-06
1.38707e-06
1.38914e-06
1.38904e-06
1.36973e-06
1.36956e-06
1.36938e-06
1.36717e-06
1.36707e-06
1.36696e-06
1.36717e-06
1.36936e-06
1.36961e-06
1.36938e-06
1.36639e-06
1.36343e-06
1.36343e-06
1.36343e-06
1.36343e-06
1.36689e-06
1.36774e-06
1.36717e-06
1.36343e-06
1.36343e-06
1.36343e-06
1.36343e-06
1.36343e-06
1.36343e-06
1.36791e-06
1.36987e-06
1.36973e-06
1.36707e-06
1.36343e-06
1.36343e-06
1.36343e-06
1.36343e-06
1.36343e-06
1.36343e-06
1.36804e-06
1.36965e-06
1.36956e-06
1.36696e-06
1.36343e-06
1.36343e-06
1.36343e-06
1.36343e-06
1.36343e-06
1.36343e-06
1.36803e-06
1.3679e-06
1.36717e-06
1.36343e-06
1.36343e-06
1.36343e-06
1.36343e-06
1.36343e-06
1.36343e-06
1.36799e-06
1.36997e-06
1.36936e-06
1.36689e-06
1.36343e-06
1.36343e-06
1.36343e-06
1.36343e-06
1.36781e-06
1.36792e-06
1.36987e-06
1.36961e-06
1.36774e-06
1.36791e-06
1.36803e-06
1.36803e-06
1.36798e-06
1.36792e-06
1.36984e-06
1.36987e-06
1.36965e-06
1.3679e-06
1.36997e-06
1.36987e-06
1.35056e-06
1.35039e-06
1.35021e-06
1.348e-06
1.3479e-06
1.34779e-06
1.348e-06
1.35019e-06
1.35043e-06
1.35021e-06
1.34722e-06
1.34425e-06
1.34425e-06
1.34425e-06
1.34426e-06
1.34772e-06
1.34856e-06
1.34799e-06
1.34425e-06
1.34425e-06
1.34425e-06
1.34425e-06
1.34425e-06
1.34426e-06
1.34874e-06
1.3507e-06
1.35056e-06
1.3479e-06
1.34425e-06
1.34425e-06
1.34425e-06
1.34425e-06
1.34425e-06
1.34425e-06
1.34886e-06
1.35048e-06
1.35039e-06
1.34779e-06
1.34425e-06
1.34425e-06
1.34425e-06
1.34425e-06
1.34425e-06
1.34425e-06
1.34885e-06
1.34873e-06
1.348e-06
1.34425e-06
1.34425e-06
1.34425e-06
1.34425e-06
1.34425e-06
1.34425e-06
1.34881e-06
1.3508e-06
1.35019e-06
1.34772e-06
1.34425e-06
1.34425e-06
1.34425e-06
1.34425e-06
1.34864e-06
1.34875e-06
1.3507e-06
1.35043e-06
1.34857e-06
1.34874e-06
1.34886e-06
1.34885e-06
1.34881e-06
1.34875e-06
1.35067e-06
1.3507e-06
1.35048e-06
1.34873e-06
1.3508e-06
1.3507e-06
1.33139e-06
1.33122e-06
1.33103e-06
1.32882e-06
1.32873e-06
1.32861e-06
1.32882e-06
1.33101e-06
1.33126e-06
1.33103e-06
1.32805e-06
1.32508e-06
1.32508e-06
1.32508e-06
1.32508e-06
1.32855e-06
1.32939e-06
1.32882e-06
1.32508e-06
1.32508e-06
1.32508e-06
1.32508e-06
1.32508e-06
1.32508e-06
1.32956e-06
1.33153e-06
1.33139e-06
1.32873e-06
1.32508e-06
1.32508e-06
1.32508e-06
1.32508e-06
1.32508e-06
1.32508e-06
1.32969e-06
1.3313e-06
1.33122e-06
1.32861e-06
1.32508e-06
1.32508e-06
1.32508e-06
1.32508e-06
1.32508e-06
1.32508e-06
1.32968e-06
1.32955e-06
1.32882e-06
1.32508e-06
1.32508e-06
1.32508e-06
1.32508e-06
1.32508e-06
1.32508e-06
1.32964e-06
1.33163e-06
1.33102e-06
1.32855e-06
1.32508e-06
1.32508e-06
1.32508e-06
1.32508e-06
1.32947e-06
1.32958e-06
1.33153e-06
1.33126e-06
1.32939e-06
1.32956e-06
1.32969e-06
1.32968e-06
1.32964e-06
1.32958e-06
1.3315e-06
1.33153e-06
1.3313e-06
1.32955e-06
1.33163e-06
1.33153e-06
1.31221e-06
1.31205e-06
1.31186e-06
1.30965e-06
1.30955e-06
1.30944e-06
1.30965e-06
1.31184e-06
1.31209e-06
1.31186e-06
1.30887e-06
1.30591e-06
1.30591e-06
1.30591e-06
1.30591e-06
1.30937e-06
1.31022e-06
1.30965e-06
1.30591e-06
1.30591e-06
1.30591e-06
1.30591e-06
1.30591e-06
1.30591e-06
1.31039e-06
1.31235e-06
1.31222e-06
1.30955e-06
1.30591e-06
1.30591e-06
1.30591e-06
1.30591e-06
1.30591e-06
1.30591e-06
1.31052e-06
1.31213e-06
1.31205e-06
1.30944e-06
1.30591e-06
1.30591e-06
1.30591e-06
1.30591e-06
1.30591e-06
1.30591e-06
1.31051e-06
1.31038e-06
1.30965e-06
1.30591e-06
1.30591e-06
1.30591e-06
1.30591e-06
1.30591e-06
1.30591e-06
1.31047e-06
1.31246e-06
1.31184e-06
1.30937e-06
1.30591e-06
1.30591e-06
1.30591e-06
1.30591e-06
1.3103e-06
1.3104e-06
1.31235e-06
1.31209e-06
1.31022e-06
1.31039e-06
1.31052e-06
1.31051e-06
1.31047e-06
1.3104e-06
1.31233e-06
1.31235e-06
1.31213e-06
1.31038e-06
1.31245e-06
1.31235e-06
1.29304e-06
1.29287e-06
1.29269e-06
1.29048e-06
1.29038e-06
1.29027e-06
1.29048e-06
1.29267e-06
1.29291e-06
1.29269e-06
1.2897e-06
1.28674e-06
1.28674e-06
1.28674e-06
1.28674e-06
1.2902e-06
1.29105e-06
1.29048e-06
1.28674e-06
1.28674e-06
1.28674e-06
1.28674e-06
1.28674e-06
1.28674e-06
1.29122e-06
1.29318e-06
1.29304e-06
1.29038e-06
1.28674e-06
1.28674e-06
1.28674e-06
1.28674e-06
1.28674e-06
1.28674e-06
1.29134e-06
1.29296e-06
1.29287e-06
1.29027e-06
1.28674e-06
1.28674e-06
1.28674e-06
1.28674e-06
1.28674e-06
1.28674e-06
1.29133e-06
1.29121e-06
1.29048e-06
1.28674e-06
1.28674e-06
1.28674e-06
1.28674e-06
1.28674e-06
1.28674e-06
1.2913e-06
1.29328e-06
1.29267e-06
1.2902e-06
1.28674e-06
1.28674e-06
1.28674e-06
1.28674e-06
1.29112e-06
1.29123e-06
1.29318e-06
1.29291e-06
1.29105e-06
1.29122e-06
1.29134e-06
1.29133e-06
1.29129e-06
1.29123e-06
1.29315e-06
1.29318e-06
1.29296e-06
1.29121e-06
1.29328e-06
1.29318e-06
1.27387e-06
1.2737e-06
1.27351e-06
1.2713e-06
1.2712e-06
1.27109e-06
1.2713e-06
1.27349e-06
1.27374e-06
1.27351e-06
1.27053e-06
1.26756e-06
1.26756e-06
1.26756e-06
1.26756e-06
1.27103e-06
1.27187e-06
1.2713e-06
1.26756e-06
1.26756e-06
1.26756e-06
1.26756e-06
1.26756e-06
1.26756e-06
1.27204e-06
1.27401e-06
1.27387e-06
1.2712e-06
1.26756e-06
1.26756e-06
1.26756e-06
1.26756e-06
1.26756e-06
1.26756e-06
1.27217e-06
1.27378e-06
1.2737e-06
1.27109e-06
1.26756e-06
1.26756e-06
1.26756e-06
1.26756e-06
1.26756e-06
1.26756e-06
1.27216e-06
1.27203e-06
1.2713e-06
1.26756e-06
1.26756e-06
1.26756e-06
1.26756e-06
1.26756e-06
1.26756e-06
1.27212e-06
1.27411e-06
1.2735e-06
1.27103e-06
1.26756e-06
1.26756e-06
1.26756e-06
1.26756e-06
1.27195e-06
1.27206e-06
1.27401e-06
1.27374e-06
1.27187e-06
1.27204e-06
1.27217e-06
1.27216e-06
1.27212e-06
1.27206e-06
1.27398e-06
1.27401e-06
1.27378e-06
1.27203e-06
1.27411e-06
1.27401e-06
1.25469e-06
1.25452e-06
1.25434e-06
1.25213e-06
1.25203e-06
1.25192e-06
1.25213e-06
1.25432e-06
1.25457e-06
1.25434e-06
1.25135e-06
1.24839e-06
1.24839e-06
1.24839e-06
1.24839e-06
1.25185e-06
1.2527e-06
1.25213e-06
1.24839e-06
1.24839e-06
1.24839e-06
1.24839e-06
1.24839e-06
1.24839e-06
1.25287e-06
1.25483e-06
1.2547e-06
1.25203e-06
1.24839e-06
1.24839e-06
1.24839e-06
1.24839e-06
1.24839e-06
1.24839e-06
1.253e-06
1.25461e-06
1.25452e-06
1.25192e-06
1.24839e-06
1.24839e-06
1.24839e-06
1.24839e-06
1.24839e-06
1.24839e-06
1.25299e-06
1.25286e-06
1.25213e-06
1.24839e-06
1.24839e-06
1.24839e-06
1.24839e-06
1.24839e-06
1.24839e-06
1.25295e-06
1.25493e-06
1.25432e-06
1.25185e-06
1.24839e-06
1.24839e-06
1.24839e-06
1.24839e-06
1.25277e-06