/*--------------------------------*- C++ -*----------------------------------*\
| =========                 |                                                 |
| \\      /  F ield         | OpenFOAM: The Open Source CFD Toolbox           |
|  \\    /   O peration     | Version:  v2012                                 |
|   \\  /    A nd           | Website:  www.openfoam.com                      |
|    \\/     M anipulation  |                                                 |
\*---------------------------------------------------------------------------*/
FoamFile
{
    version     2.0;
    format      ascii;
    class       volScalarField;
    location    "0.165";
    object      p;
}
// * * * * * * * * * * * * * * * * * * * * * * * * * * * * * * * * * * * * * //

dimensions      [0 2 -2 0 0 0 0];


internalField   nonuniform List<scalar> 
247104
(
1.92564e-06
1.92606e-06
1.92609e-06
1.92592e-06
1.92571e-06
1.92595e-06
1.92609e-06
1.92599e-06
1.92606e-06
1.92612e-06
1.92616e-06
1.92595e-06
1.92581e-06
1.92598e-06
1.92617e-06
1.92609e-06
1.92609e-06
1.92616e-06
1.92587e-06
1.92548e-06
1.92531e-06
1.92552e-06
1.92592e-06
1.92617e-06
1.92607e-06
1.92592e-06
1.92595e-06
1.92548e-06
1.92499e-06
1.92481e-06
1.92503e-06
1.92554e-06
1.92598e-06
1.92588e-06
1.92565e-06
1.92572e-06
1.92581e-06
1.92531e-06
1.92481e-06
1.92462e-06
1.92486e-06
1.92539e-06
1.92584e-06
1.92565e-06
1.92596e-06
1.92598e-06
1.92552e-06
1.92503e-06
1.92486e-06
1.92508e-06
1.92558e-06
1.92601e-06
1.92592e-06
1.92609e-06
1.92617e-06
1.92592e-06
1.92554e-06
1.92539e-06
1.92558e-06
1.92596e-06
1.92618e-06
1.92607e-06
1.92598e-06
1.92609e-06
1.92617e-06
1.92598e-06
1.92584e-06
1.92601e-06
1.92618e-06
1.92605e-06
1.92607e-06
1.92588e-06
1.92565e-06
1.92592e-06
1.92607e-06
1.89177e-06
1.88968e-06
1.88973e-06
1.8886e-06
1.88833e-06
1.88829e-06
1.88828e-06
1.8899e-06
1.89025e-06
1.88974e-06
1.88765e-06
1.88456e-06
1.88442e-06
1.88442e-06
1.88456e-06
1.88806e-06
1.88826e-06
1.8886e-06
1.88456e-06
1.88448e-06
1.88451e-06
1.88451e-06
1.88448e-06
1.88456e-06
1.88854e-06
1.88941e-06
1.89177e-06
1.88833e-06
1.88442e-06
1.88451e-06
1.88462e-06
1.88462e-06
1.88451e-06
1.88442e-06
1.88834e-06
1.89007e-06
1.88968e-06
1.88829e-06
1.88442e-06
1.88451e-06
1.88462e-06
1.88462e-06
1.88451e-06
1.88442e-06
1.88846e-06
1.88813e-06
1.88828e-06
1.88456e-06
1.88448e-06
1.88451e-06
1.88451e-06
1.88448e-06
1.88456e-06
1.88836e-06
1.88916e-06
1.8899e-06
1.88806e-06
1.88456e-06
1.88442e-06
1.88442e-06
1.88456e-06
1.88813e-06
1.8885e-06
1.88993e-06
1.89025e-06
1.88826e-06
1.88854e-06
1.88834e-06
1.88846e-06
1.88836e-06
1.8885e-06
1.89095e-06
1.88942e-06
1.89008e-06
1.88813e-06
1.88915e-06
1.88993e-06
1.87169e-06
1.87148e-06
1.87133e-06
1.86911e-06
1.86907e-06
1.86907e-06
1.8691e-06
1.87147e-06
1.87161e-06
1.87134e-06
1.86844e-06
1.86535e-06
1.86516e-06
1.86516e-06
1.86535e-06
1.86926e-06
1.86958e-06
1.86912e-06
1.86535e-06
1.86489e-06
1.86488e-06
1.86488e-06
1.86489e-06
1.86535e-06
1.87006e-06
1.87202e-06
1.8717e-06
1.86907e-06
1.86516e-06
1.86488e-06
1.86489e-06
1.86489e-06
1.86488e-06
1.86516e-06
1.87005e-06
1.87163e-06
1.87149e-06
1.86908e-06
1.86516e-06
1.86488e-06
1.86489e-06
1.86489e-06
1.86488e-06
1.86516e-06
1.86996e-06
1.86953e-06
1.86911e-06
1.86535e-06
1.86489e-06
1.86488e-06
1.86488e-06
1.86489e-06
1.86535e-06
1.8701e-06
1.87202e-06
1.87147e-06
1.86926e-06
1.86535e-06
1.86516e-06
1.86516e-06
1.86535e-06
1.86975e-06
1.86986e-06
1.87193e-06
1.8716e-06
1.86958e-06
1.87006e-06
1.87005e-06
1.86996e-06
1.8701e-06
1.86986e-06
1.87203e-06
1.87203e-06
1.87163e-06
1.86953e-06
1.87202e-06
1.87194e-06
1.85196e-06
1.85178e-06
1.8517e-06
1.84936e-06
1.84934e-06
1.84923e-06
1.84942e-06
1.85181e-06
1.85196e-06
1.8517e-06
1.84845e-06
1.84552e-06
1.84545e-06
1.84545e-06
1.84552e-06
1.84942e-06
1.85003e-06
1.84936e-06
1.84552e-06
1.84534e-06
1.84533e-06
1.84533e-06
1.84534e-06
1.84552e-06
1.85042e-06
1.85233e-06
1.85196e-06
1.84934e-06
1.84545e-06
1.84533e-06
1.84533e-06
1.84533e-06
1.84533e-06
1.84545e-06
1.85053e-06
1.85188e-06
1.85178e-06
1.84923e-06
1.84545e-06
1.84533e-06
1.84533e-06
1.84533e-06
1.84533e-06
1.84545e-06
1.85047e-06
1.84995e-06
1.84942e-06
1.84553e-06
1.84534e-06
1.84533e-06
1.84533e-06
1.84534e-06
1.84552e-06
1.85052e-06
1.85227e-06
1.85181e-06
1.84942e-06
1.84553e-06
1.84546e-06
1.84545e-06
1.84552e-06
1.85033e-06
1.85027e-06
1.85229e-06
1.85196e-06
1.85003e-06
1.85042e-06
1.85053e-06
1.85047e-06
1.85052e-06
1.85027e-06
1.85225e-06
1.85233e-06
1.85188e-06
1.84995e-06
1.85227e-06
1.85229e-06
1.83221e-06
1.83205e-06
1.83188e-06
1.82953e-06
1.82949e-06
1.82931e-06
1.82959e-06
1.832e-06
1.83217e-06
1.83189e-06
1.82851e-06
1.82564e-06
1.82562e-06
1.82562e-06
1.82564e-06
1.8295e-06
1.83026e-06
1.82952e-06
1.82564e-06
1.82559e-06
1.82559e-06
1.82559e-06
1.82559e-06
1.82564e-06
1.83067e-06
1.83257e-06
1.83222e-06
1.82949e-06
1.82562e-06
1.82559e-06
1.82558e-06
1.82558e-06
1.82559e-06
1.82562e-06
1.83087e-06
1.83219e-06
1.83206e-06
1.82932e-06
1.82562e-06
1.82559e-06
1.82558e-06
1.82558e-06
1.82558e-06
1.82562e-06
1.83083e-06
1.83028e-06
1.8296e-06
1.82564e-06
1.82559e-06
1.82559e-06
1.82559e-06
1.82559e-06
1.82564e-06
1.8308e-06
1.83257e-06
1.832e-06
1.8295e-06
1.82564e-06
1.82562e-06
1.82562e-06
1.82564e-06
1.83067e-06
1.83053e-06
1.83252e-06
1.83218e-06
1.83024e-06
1.83067e-06
1.83087e-06
1.83083e-06
1.8308e-06
1.83053e-06
1.83249e-06
1.83258e-06
1.83219e-06
1.83028e-06
1.83257e-06
1.83253e-06
1.81241e-06
1.81226e-06
1.81207e-06
1.80969e-06
1.80966e-06
1.80946e-06
1.80976e-06
1.81218e-06
1.81236e-06
1.81207e-06
1.80866e-06
1.80579e-06
1.80579e-06
1.80579e-06
1.80579e-06
1.80963e-06
1.81042e-06
1.80969e-06
1.80579e-06
1.80578e-06
1.80578e-06
1.80578e-06
1.80578e-06
1.80579e-06
1.81085e-06
1.81276e-06
1.81242e-06
1.80966e-06
1.80579e-06
1.80578e-06
1.80578e-06
1.80578e-06
1.80578e-06
1.80579e-06
1.81108e-06
1.81241e-06
1.81225e-06
1.80946e-06
1.80579e-06
1.80578e-06
1.80578e-06
1.80578e-06
1.80578e-06
1.80579e-06
1.81106e-06
1.8105e-06
1.80976e-06
1.80579e-06
1.80578e-06
1.80578e-06
1.80578e-06
1.80578e-06
1.80579e-06
1.811e-06
1.81278e-06
1.81218e-06
1.80963e-06
1.80579e-06
1.80579e-06
1.80579e-06
1.80579e-06
1.81091e-06
1.81074e-06
1.81271e-06
1.81236e-06
1.81043e-06
1.81085e-06
1.81108e-06
1.81106e-06
1.811e-06
1.81073e-06
1.81265e-06
1.81277e-06
1.81241e-06
1.81051e-06
1.81278e-06
1.81271e-06
1.79259e-06
1.79244e-06
1.79224e-06
1.78986e-06
1.78983e-06
1.78962e-06
1.78992e-06
1.79235e-06
1.79253e-06
1.79224e-06
1.78882e-06
1.78596e-06
1.78595e-06
1.78595e-06
1.78596e-06
1.78978e-06
1.7906e-06
1.78986e-06
1.78596e-06
1.78595e-06
1.78595e-06
1.78595e-06
1.78595e-06
1.78596e-06
1.79103e-06
1.79294e-06
1.79259e-06
1.78983e-06
1.78595e-06
1.78595e-06
1.78595e-06
1.78595e-06
1.78595e-06
1.78595e-06
1.79126e-06
1.79259e-06
1.79243e-06
1.78962e-06
1.78595e-06
1.78595e-06
1.78595e-06
1.78595e-06
1.78595e-06
1.78595e-06
1.79125e-06
1.79069e-06
1.78992e-06
1.78596e-06
1.78595e-06
1.78595e-06
1.78595e-06
1.78595e-06
1.78596e-06
1.79117e-06
1.79296e-06
1.79235e-06
1.78978e-06
1.78596e-06
1.78595e-06
1.78595e-06
1.78596e-06
1.79109e-06
1.7909e-06
1.79288e-06
1.79252e-06
1.7906e-06
1.79102e-06
1.79126e-06
1.79125e-06
1.79118e-06
1.7909e-06
1.79285e-06
1.79294e-06
1.79259e-06
1.79069e-06
1.79296e-06
1.79289e-06
1.77276e-06
1.77261e-06
1.7724e-06
1.77003e-06
1.77e-06
1.76979e-06
1.77009e-06
1.77252e-06
1.7727e-06
1.7724e-06
1.76899e-06
1.76612e-06
1.76612e-06
1.76612e-06
1.76612e-06
1.76995e-06
1.77077e-06
1.77003e-06
1.76612e-06
1.76612e-06
1.76612e-06
1.76612e-06
1.76612e-06
1.76612e-06
1.77119e-06
1.77311e-06
1.77277e-06
1.76999e-06
1.76612e-06
1.76612e-06
1.76612e-06
1.76612e-06
1.76612e-06
1.76612e-06
1.77143e-06
1.77276e-06
1.7726e-06
1.76979e-06
1.76612e-06
1.76612e-06
1.76612e-06
1.76612e-06
1.76612e-06
1.76612e-06
1.77142e-06
1.77086e-06
1.77009e-06
1.76612e-06
1.76612e-06
1.76612e-06
1.76612e-06
1.76612e-06
1.76612e-06
1.77135e-06
1.77313e-06
1.77252e-06
1.76995e-06
1.76612e-06
1.76612e-06
1.76612e-06
1.76612e-06
1.77126e-06
1.77107e-06
1.77305e-06
1.77269e-06
1.77076e-06
1.77119e-06
1.77144e-06
1.77142e-06
1.77135e-06
1.77107e-06
1.77302e-06
1.77311e-06
1.77276e-06
1.77086e-06
1.77313e-06
1.77306e-06
1.75293e-06
1.75278e-06
1.75258e-06
1.7502e-06
1.75017e-06
1.74996e-06
1.75026e-06
1.75269e-06
1.75287e-06
1.75257e-06
1.74916e-06
1.74629e-06
1.74629e-06
1.74629e-06
1.74629e-06
1.75011e-06
1.75094e-06
1.7502e-06
1.74629e-06
1.74629e-06
1.74629e-06
1.74629e-06
1.74629e-06
1.74629e-06
1.75137e-06
1.75328e-06
1.75294e-06
1.75016e-06
1.74629e-06
1.74629e-06
1.74629e-06
1.74629e-06
1.74629e-06
1.74629e-06
1.75161e-06
1.75293e-06
1.75277e-06
1.74996e-06
1.74629e-06
1.74629e-06
1.74629e-06
1.74629e-06
1.74629e-06
1.74629e-06
1.75159e-06
1.75103e-06
1.75026e-06
1.74629e-06
1.74629e-06
1.74629e-06
1.74629e-06
1.74629e-06
1.74629e-06
1.75152e-06
1.7533e-06
1.75269e-06
1.75012e-06
1.74629e-06
1.74629e-06
1.74629e-06
1.74629e-06
1.75144e-06
1.75125e-06
1.75322e-06
1.75286e-06
1.75093e-06
1.75136e-06
1.75161e-06
1.75159e-06
1.75152e-06
1.75125e-06
1.75319e-06
1.75328e-06
1.75293e-06
1.75103e-06
1.7533e-06
1.75323e-06
1.7331e-06
1.73295e-06
1.73275e-06
1.73037e-06
1.73034e-06
1.73013e-06
1.73043e-06
1.73286e-06
1.73304e-06
1.73274e-06
1.72933e-06
1.72646e-06
1.72646e-06
1.72646e-06
1.72646e-06
1.73028e-06
1.73111e-06
1.73037e-06
1.72646e-06
1.72646e-06
1.72646e-06
1.72646e-06
1.72646e-06
1.72646e-06
1.73153e-06
1.73345e-06
1.73311e-06
1.73033e-06
1.72646e-06
1.72646e-06
1.72646e-06
1.72646e-06
1.72646e-06
1.72646e-06
1.73178e-06
1.7331e-06
1.73294e-06
1.73013e-06
1.72646e-06
1.72646e-06
1.72646e-06
1.72646e-06
1.72646e-06
1.72646e-06
1.73176e-06
1.7312e-06
1.73043e-06
1.72646e-06
1.72646e-06
1.72646e-06
1.72646e-06
1.72646e-06
1.72646e-06
1.73168e-06
1.73347e-06
1.73286e-06
1.73029e-06
1.72646e-06
1.72646e-06
1.72646e-06
1.72646e-06
1.73161e-06
1.73142e-06
1.73339e-06
1.73303e-06
1.7311e-06
1.73153e-06
1.73177e-06
1.73176e-06
1.73169e-06
1.73142e-06
1.73336e-06
1.73345e-06
1.7331e-06
1.7312e-06
1.73347e-06
1.7334e-06
1.71327e-06
1.71312e-06
1.71292e-06
1.71054e-06
1.7105e-06
1.7103e-06
1.7106e-06
1.71303e-06
1.71321e-06
1.71291e-06
1.7095e-06
1.70663e-06
1.70663e-06
1.70663e-06
1.70663e-06
1.71045e-06
1.71128e-06
1.71053e-06
1.70663e-06
1.70663e-06
1.70663e-06
1.70663e-06
1.70663e-06
1.70663e-06
1.7117e-06
1.71362e-06
1.71327e-06
1.7105e-06
1.70663e-06
1.70663e-06
1.70663e-06
1.70663e-06
1.70663e-06
1.70663e-06
1.71194e-06
1.71327e-06
1.71311e-06
1.7103e-06
1.70663e-06
1.70663e-06
1.70663e-06
1.70663e-06
1.70663e-06
1.70663e-06
1.71193e-06
1.71137e-06
1.7106e-06
1.70663e-06
1.70663e-06
1.70663e-06
1.70663e-06
1.70663e-06
1.70663e-06
1.71185e-06
1.71364e-06
1.71303e-06
1.71045e-06
1.70663e-06
1.70663e-06
1.70663e-06
1.70663e-06
1.71178e-06
1.71158e-06
1.71356e-06
1.7132e-06
1.71127e-06
1.7117e-06
1.71194e-06
1.71193e-06
1.71185e-06
1.71159e-06
1.71353e-06
1.71362e-06
1.71327e-06
1.71137e-06
1.71364e-06
1.71357e-06
1.69344e-06
1.69328e-06
1.69308e-06
1.6907e-06
1.69067e-06
1.69047e-06
1.69077e-06
1.6932e-06
1.69337e-06
1.69308e-06
1.68966e-06
1.6868e-06
1.6868e-06
1.6868e-06
1.6868e-06
1.69062e-06
1.69144e-06
1.6907e-06
1.6868e-06
1.6868e-06
1.6868e-06
1.6868e-06
1.6868e-06
1.6868e-06
1.69187e-06
1.69378e-06
1.69344e-06
1.69067e-06
1.6868e-06
1.6868e-06
1.6868e-06
1.6868e-06
1.6868e-06
1.6868e-06
1.69211e-06
1.69344e-06
1.69328e-06
1.69047e-06
1.6868e-06
1.6868e-06
1.6868e-06
1.6868e-06
1.6868e-06
1.6868e-06
1.6921e-06
1.69154e-06
1.69077e-06
1.6868e-06
1.6868e-06
1.6868e-06
1.6868e-06
1.6868e-06
1.6868e-06
1.69202e-06
1.69381e-06
1.69319e-06
1.69062e-06
1.6868e-06
1.6868e-06
1.6868e-06
1.6868e-06
1.69195e-06
1.69175e-06
1.69373e-06
1.69337e-06
1.69144e-06
1.69187e-06
1.69211e-06
1.6921e-06
1.69202e-06
1.69175e-06
1.6937e-06
1.69379e-06
1.69344e-06
1.69154e-06
1.69381e-06
1.69373e-06
1.67361e-06
1.67345e-06
1.67325e-06
1.67087e-06
1.67084e-06
1.67064e-06
1.67094e-06
1.67337e-06
1.67354e-06
1.67325e-06
1.66983e-06
1.66697e-06
1.66697e-06
1.66697e-06
1.66697e-06
1.67079e-06
1.67161e-06
1.67087e-06
1.66697e-06
1.66697e-06
1.66697e-06
1.66697e-06
1.66697e-06
1.66697e-06
1.67204e-06
1.67395e-06
1.67361e-06
1.67084e-06
1.66697e-06
1.66697e-06
1.66697e-06
1.66697e-06
1.66697e-06
1.66697e-06
1.67228e-06
1.67361e-06
1.67345e-06
1.67064e-06
1.66697e-06
1.66697e-06
1.66697e-06
1.66697e-06
1.66697e-06
1.66697e-06
1.67227e-06
1.67171e-06
1.67093e-06
1.66697e-06
1.66697e-06
1.66697e-06
1.66697e-06
1.66697e-06
1.66697e-06
1.67219e-06
1.67398e-06
1.67336e-06
1.67079e-06
1.66697e-06
1.66697e-06
1.66697e-06
1.66697e-06
1.67212e-06
1.67192e-06
1.6739e-06
1.67354e-06
1.67161e-06
1.67204e-06
1.67228e-06
1.67227e-06
1.67219e-06
1.67192e-06
1.67387e-06
1.67396e-06
1.67361e-06
1.67171e-06
1.67398e-06
1.6739e-06
1.65378e-06
1.65362e-06
1.65342e-06
1.65104e-06
1.65101e-06
1.65081e-06
1.65111e-06
1.65354e-06
1.65371e-06
1.65342e-06
1.65e-06
1.64714e-06
1.64714e-06
1.64714e-06
1.64714e-06
1.65096e-06
1.65178e-06
1.65104e-06
1.64714e-06
1.64714e-06
1.64714e-06
1.64714e-06
1.64714e-06
1.64714e-06
1.65221e-06
1.65412e-06
1.65378e-06
1.65101e-06
1.64714e-06
1.64714e-06
1.64714e-06
1.64714e-06
1.64714e-06
1.64714e-06
1.65245e-06
1.65378e-06
1.65362e-06
1.65081e-06
1.64714e-06
1.64714e-06
1.64714e-06
1.64714e-06
1.64714e-06
1.64714e-06
1.65244e-06
1.65188e-06
1.6511e-06
1.64714e-06
1.64714e-06
1.64714e-06
1.64714e-06
1.64714e-06
1.64714e-06
1.65236e-06
1.65415e-06
1.65353e-06
1.65096e-06
1.64714e-06
1.64714e-06
1.64714e-06
1.64714e-06
1.65229e-06
1.65209e-06
1.65407e-06
1.65371e-06
1.65178e-06
1.65221e-06
1.65245e-06
1.65244e-06
1.65236e-06
1.65209e-06
1.65404e-06
1.65413e-06
1.65378e-06
1.65188e-06
1.65415e-06
1.65407e-06
1.63395e-06
1.63379e-06
1.63359e-06
1.63121e-06
1.63118e-06
1.63098e-06
1.63127e-06
1.63371e-06
1.63388e-06
1.63359e-06
1.63017e-06
1.62731e-06
1.62731e-06
1.62731e-06
1.62731e-06
1.63113e-06
1.63195e-06
1.63121e-06
1.62731e-06
1.62731e-06
1.62731e-06
1.62731e-06
1.62731e-06
1.62731e-06
1.63238e-06
1.63429e-06
1.63395e-06
1.63118e-06
1.62731e-06
1.62731e-06
1.62731e-06
1.62731e-06
1.62731e-06
1.62731e-06
1.63262e-06
1.63395e-06
1.63379e-06
1.63098e-06
1.62731e-06
1.62731e-06
1.62731e-06
1.62731e-06
1.62731e-06
1.62731e-06
1.63261e-06
1.63205e-06
1.63127e-06
1.62731e-06
1.62731e-06
1.62731e-06
1.62731e-06
1.62731e-06
1.62731e-06
1.63253e-06
1.63432e-06
1.6337e-06
1.63113e-06
1.62731e-06
1.62731e-06
1.62731e-06
1.62731e-06
1.63246e-06
1.63226e-06
1.63424e-06
1.63388e-06
1.63195e-06
1.63238e-06
1.63262e-06
1.63261e-06
1.63253e-06
1.63226e-06
1.63421e-06
1.6343e-06
1.63395e-06
1.63205e-06
1.63432e-06
1.63424e-06
1.61412e-06
1.61396e-06
1.61376e-06
1.61138e-06
1.61135e-06
1.61115e-06
1.61145e-06
1.61388e-06
1.61405e-06
1.61376e-06
1.61034e-06
1.60748e-06
1.60748e-06
1.60748e-06
1.60748e-06
1.6113e-06
1.61212e-06
1.61138e-06
1.60748e-06
1.60748e-06
1.60748e-06
1.60748e-06
1.60748e-06
1.60748e-06
1.61255e-06
1.61446e-06
1.61412e-06
1.61135e-06
1.60748e-06
1.60748e-06
1.60748e-06
1.60748e-06
1.60748e-06
1.60748e-06
1.61279e-06
1.61412e-06
1.61396e-06
1.61115e-06
1.60748e-06
1.60748e-06
1.60748e-06
1.60748e-06
1.60748e-06
1.60748e-06
1.61278e-06
1.61222e-06
1.61144e-06
1.60748e-06
1.60748e-06
1.60748e-06
1.60748e-06
1.60748e-06
1.60748e-06
1.6127e-06
1.61449e-06
1.61387e-06
1.6113e-06
1.60748e-06
1.60748e-06
1.60748e-06
1.60748e-06
1.61263e-06
1.61243e-06
1.61441e-06
1.61405e-06
1.61212e-06
1.61255e-06
1.61279e-06
1.61278e-06
1.6127e-06
1.61243e-06
1.61438e-06
1.61447e-06
1.61412e-06
1.61222e-06
1.61449e-06
1.61441e-06
1.59429e-06
1.59413e-06
1.59393e-06
1.59155e-06
1.59152e-06
1.59132e-06
1.59162e-06
1.59404e-06
1.59422e-06
1.59393e-06
1.59051e-06
1.58765e-06
1.58765e-06
1.58765e-06
1.58765e-06
1.59147e-06
1.59229e-06
1.59155e-06
1.58765e-06
1.58765e-06
1.58765e-06
1.58765e-06
1.58765e-06
1.58765e-06
1.59272e-06
1.59463e-06
1.59429e-06
1.59152e-06
1.58765e-06
1.58765e-06
1.58765e-06
1.58765e-06
1.58765e-06
1.58765e-06
1.59296e-06
1.59429e-06
1.59413e-06
1.59132e-06
1.58765e-06
1.58765e-06
1.58765e-06
1.58765e-06
1.58765e-06
1.58765e-06
1.59295e-06
1.59239e-06
1.59161e-06
1.58765e-06
1.58765e-06
1.58765e-06
1.58765e-06
1.58765e-06
1.58765e-06
1.59287e-06
1.59466e-06
1.59404e-06
1.59147e-06
1.58765e-06
1.58765e-06
1.58765e-06
1.58765e-06
1.5928e-06
1.5926e-06
1.59458e-06
1.59422e-06
1.59229e-06
1.59272e-06
1.59296e-06
1.59295e-06
1.59287e-06
1.5926e-06
1.59455e-06
1.59464e-06
1.59429e-06
1.59239e-06
1.59466e-06
1.59458e-06
1.57446e-06
1.5743e-06
1.5741e-06
1.57172e-06
1.57169e-06
1.57149e-06
1.57179e-06
1.57421e-06
1.57439e-06
1.5741e-06
1.57068e-06
1.56782e-06
1.56782e-06
1.56782e-06
1.56782e-06
1.57164e-06
1.57246e-06
1.57172e-06
1.56782e-06
1.56782e-06
1.56782e-06
1.56782e-06
1.56782e-06
1.56782e-06
1.57289e-06
1.5748e-06
1.57446e-06
1.57169e-06
1.56782e-06
1.56782e-06
1.56782e-06
1.56782e-06
1.56782e-06
1.56782e-06
1.57313e-06
1.57446e-06
1.5743e-06
1.57149e-06
1.56782e-06
1.56782e-06
1.56782e-06
1.56782e-06
1.56782e-06
1.56782e-06
1.57312e-06
1.57256e-06
1.57178e-06
1.56782e-06
1.56782e-06
1.56782e-06
1.56782e-06
1.56782e-06
1.56782e-06
1.57304e-06
1.57483e-06
1.57421e-06
1.57164e-06
1.56782e-06
1.56782e-06
1.56782e-06
1.56782e-06
1.57297e-06
1.57277e-06
1.57475e-06
1.57439e-06
1.57246e-06
1.57289e-06
1.57313e-06
1.57312e-06
1.57304e-06
1.57277e-06
1.57472e-06
1.57481e-06
1.57446e-06
1.57256e-06
1.57483e-06
1.57475e-06
1.55463e-06
1.55447e-06
1.55427e-06
1.55189e-06
1.55186e-06
1.55166e-06
1.55196e-06
1.55438e-06
1.55456e-06
1.55427e-06
1.55085e-06
1.54799e-06
1.54799e-06
1.54799e-06
1.54799e-06
1.55181e-06
1.55264e-06
1.55189e-06
1.54799e-06
1.54799e-06
1.54799e-06
1.54799e-06
1.54799e-06
1.54799e-06
1.55306e-06
1.55498e-06
1.55463e-06
1.55186e-06
1.54799e-06
1.54799e-06
1.54799e-06
1.54799e-06
1.54799e-06
1.54799e-06
1.5533e-06
1.55463e-06
1.55447e-06
1.55166e-06
1.54799e-06
1.54799e-06
1.54799e-06
1.54799e-06
1.54799e-06
1.54799e-06
1.55329e-06
1.55273e-06
1.55196e-06
1.54799e-06
1.54799e-06
1.54799e-06
1.54799e-06
1.54799e-06
1.54799e-06
1.55321e-06
1.555e-06
1.55438e-06
1.55181e-06
1.54799e-06
1.54799e-06
1.54799e-06
1.54799e-06
1.55314e-06
1.55294e-06
1.55492e-06
1.55456e-06
1.55263e-06
1.55306e-06
1.5533e-06
1.55329e-06
1.55321e-06
1.55294e-06
1.55489e-06
1.55498e-06
1.55463e-06
1.55273e-06
1.555e-06
1.55492e-06
1.5348e-06
1.53464e-06
1.53444e-06
1.53206e-06
1.53203e-06
1.53183e-06
1.53213e-06
1.53455e-06
1.53473e-06
1.53444e-06
1.53102e-06
1.52816e-06
1.52816e-06
1.52816e-06
1.52816e-06
1.53198e-06
1.53281e-06
1.53206e-06
1.52816e-06
1.52816e-06
1.52816e-06
1.52816e-06
1.52816e-06
1.52816e-06
1.53323e-06
1.53515e-06
1.5348e-06
1.53203e-06
1.52816e-06
1.52816e-06
1.52816e-06
1.52816e-06
1.52816e-06
1.52816e-06
1.53347e-06
1.5348e-06
1.53464e-06
1.53183e-06
1.52816e-06
1.52816e-06
1.52816e-06
1.52816e-06
1.52816e-06
1.52816e-06
1.53346e-06
1.5329e-06
1.53213e-06
1.52816e-06
1.52816e-06
1.52816e-06
1.52816e-06
1.52816e-06
1.52816e-06
1.53338e-06
1.53517e-06
1.53455e-06
1.53198e-06
1.52816e-06
1.52816e-06
1.52816e-06
1.52816e-06
1.53331e-06
1.53311e-06
1.53509e-06
1.53473e-06
1.5328e-06
1.53323e-06
1.53347e-06
1.53346e-06
1.53338e-06
1.53312e-06
1.53506e-06
1.53515e-06
1.5348e-06
1.5329e-06
1.53517e-06
1.53509e-06
1.51497e-06
1.51481e-06
1.51461e-06
1.51223e-06
1.5122e-06
1.512e-06
1.5123e-06
1.51472e-06
1.5149e-06
1.51461e-06
1.51119e-06
1.50833e-06
1.50833e-06
1.50833e-06
1.50833e-06
1.51215e-06
1.51297e-06
1.51223e-06
1.50833e-06
1.50833e-06
1.50833e-06
1.50833e-06
1.50833e-06
1.50833e-06
1.5134e-06
1.51531e-06
1.51497e-06
1.5122e-06
1.50833e-06
1.50833e-06
1.50833e-06
1.50833e-06
1.50833e-06
1.50833e-06
1.51364e-06
1.51497e-06
1.51481e-06
1.512e-06
1.50833e-06
1.50833e-06
1.50833e-06
1.50833e-06
1.50833e-06
1.50833e-06
1.51363e-06
1.51307e-06
1.51229e-06
1.50833e-06
1.50833e-06
1.50833e-06
1.50833e-06
1.50833e-06
1.50833e-06
1.51355e-06
1.51534e-06
1.51472e-06
1.51215e-06
1.50833e-06
1.50833e-06
1.50833e-06
1.50833e-06
1.51348e-06
1.51328e-06
1.51526e-06
1.5149e-06
1.51297e-06
1.5134e-06
1.51364e-06
1.51363e-06
1.51355e-06
1.51328e-06
1.51523e-06
1.51532e-06
1.51497e-06
1.51307e-06
1.51534e-06
1.51526e-06
1.49514e-06
1.49498e-06
1.49478e-06
1.4924e-06
1.49237e-06
1.49217e-06
1.49246e-06
1.49489e-06
1.49507e-06
1.49478e-06
1.49136e-06
1.4885e-06
1.4885e-06
1.4885e-06
1.4885e-06
1.49232e-06
1.49314e-06
1.4924e-06
1.4885e-06
1.4885e-06
1.4885e-06
1.4885e-06
1.4885e-06
1.4885e-06
1.49357e-06
1.49548e-06
1.49514e-06
1.49237e-06
1.4885e-06
1.4885e-06
1.4885e-06
1.4885e-06
1.4885e-06
1.4885e-06
1.49381e-06
1.49514e-06
1.49498e-06
1.49217e-06
1.4885e-06
1.4885e-06
1.4885e-06
1.4885e-06
1.4885e-06
1.4885e-06
1.4938e-06
1.49324e-06
1.49246e-06
1.4885e-06
1.4885e-06
1.4885e-06
1.4885e-06
1.4885e-06
1.4885e-06
1.49372e-06
1.49551e-06
1.49489e-06
1.49232e-06
1.4885e-06
1.4885e-06
1.4885e-06
1.4885e-06
1.49364e-06
1.49345e-06
1.49543e-06
1.49507e-06
1.49314e-06
1.49357e-06
1.49381e-06
1.4938e-06
1.49372e-06
1.49345e-06
1.4954e-06
1.49548e-06
1.49514e-06
1.49324e-06
1.49551e-06
1.49543e-06
1.47531e-06
1.47515e-06
1.47495e-06
1.47257e-06
1.47254e-06
1.47234e-06
1.47263e-06
1.47506e-06
1.47524e-06
1.47495e-06
1.47153e-06
1.46867e-06
1.46867e-06
1.46867e-06
1.46867e-06
1.47249e-06
1.47331e-06
1.47257e-06
1.46867e-06
1.46867e-06
1.46867e-06
1.46867e-06
1.46867e-06
1.46867e-06
1.47374e-06
1.47565e-06
1.47531e-06
1.47254e-06
1.46867e-06
1.46867e-06
1.46867e-06
1.46867e-06
1.46867e-06
1.46867e-06
1.47398e-06
1.47531e-06
1.47515e-06
1.47234e-06
1.46867e-06
1.46867e-06
1.46867e-06
1.46867e-06
1.46867e-06
1.46867e-06
1.47397e-06
1.4734e-06
1.47263e-06
1.46867e-06
1.46867e-06
1.46867e-06
1.46867e-06
1.46867e-06
1.46867e-06
1.47389e-06
1.47568e-06
1.47506e-06
1.47249e-06
1.46867e-06
1.46867e-06
1.46867e-06
1.46867e-06
1.47381e-06
1.47362e-06
1.4756e-06
1.47524e-06
1.47331e-06
1.47374e-06
1.47398e-06
1.47397e-06
1.47389e-06
1.47362e-06
1.47556e-06
1.47565e-06
1.47531e-06
1.4734e-06
1.47568e-06
1.4756e-06
1.45548e-06
1.45532e-06
1.45512e-06
1.45274e-06
1.45271e-06
1.4525e-06
1.4528e-06
1.45523e-06
1.45541e-06
1.45512e-06
1.4517e-06
1.44884e-06
1.44884e-06
1.44884e-06
1.44884e-06
1.45266e-06
1.45348e-06
1.45274e-06
1.44884e-06
1.44884e-06
1.44884e-06
1.44884e-06
1.44884e-06
1.44884e-06
1.45391e-06
1.45582e-06
1.45548e-06
1.45271e-06
1.44884e-06
1.44884e-06
1.44884e-06
1.44884e-06
1.44884e-06
1.44884e-06
1.45415e-06
1.45548e-06
1.45532e-06
1.45251e-06
1.44884e-06
1.44884e-06
1.44884e-06
1.44884e-06
1.44884e-06
1.44884e-06
1.45414e-06
1.45357e-06
1.4528e-06
1.44884e-06
1.44884e-06
1.44884e-06
1.44884e-06
1.44884e-06
1.44884e-06
1.45406e-06
1.45585e-06
1.45523e-06
1.45266e-06
1.44884e-06
1.44884e-06
1.44884e-06
1.44884e-06
1.45398e-06
1.45379e-06
1.45576e-06
1.45541e-06
1.45348e-06
1.45391e-06
1.45415e-06
1.45414e-06
1.45406e-06
1.45379e-06
1.45573e-06
1.45582e-06
1.45548e-06
1.45358e-06
1.45585e-06
1.45577e-06
1.43565e-06
1.43549e-06
1.43529e-06
1.43291e-06
1.43288e-06
1.43267e-06
1.43297e-06
1.4354e-06
1.43558e-06
1.43529e-06
1.43187e-06
1.429e-06
1.429e-06
1.429e-06
1.429e-06
1.43283e-06
1.43365e-06
1.43291e-06
1.429e-06
1.429e-06
1.429e-06
1.429e-06
1.429e-06
1.429e-06
1.43408e-06
1.43599e-06
1.43565e-06
1.43288e-06
1.429e-06
1.429e-06
1.429e-06
1.429e-06
1.429e-06
1.429e-06
1.43432e-06
1.43565e-06
1.43549e-06
1.43268e-06
1.429e-06
1.429e-06
1.429e-06
1.429e-06
1.429e-06
1.429e-06
1.4343e-06
1.43374e-06
1.43297e-06
1.429e-06
1.429e-06
1.429e-06
1.429e-06
1.429e-06
1.429e-06
1.43423e-06
1.43602e-06
1.4354e-06
1.43283e-06
1.429e-06
1.429e-06
1.429e-06
1.429e-06
1.43415e-06
1.43396e-06
1.43593e-06
1.43558e-06
1.43365e-06
1.43408e-06
1.43432e-06
1.4343e-06
1.43423e-06
1.43396e-06
1.4359e-06
1.43599e-06
1.43565e-06
1.43374e-06
1.43602e-06
1.43594e-06
1.41581e-06
1.41566e-06
1.41545e-06
1.41308e-06
1.41305e-06
1.41284e-06
1.41314e-06
1.41557e-06
1.41575e-06
1.41546e-06
1.41204e-06
1.40917e-06
1.40917e-06
1.40917e-06
1.40917e-06
1.413e-06
1.41382e-06
1.41308e-06
1.40917e-06
1.40917e-06
1.40917e-06
1.40917e-06
1.40917e-06
1.40917e-06
1.41424e-06
1.41616e-06
1.41582e-06
1.41304e-06
1.40917e-06
1.40917e-06
1.40917e-06
1.40917e-06
1.40917e-06
1.40917e-06
1.41449e-06
1.41581e-06
1.41565e-06
1.41284e-06
1.40917e-06
1.40917e-06
1.40917e-06
1.40917e-06
1.40917e-06
1.40917e-06
1.41447e-06
1.41391e-06
1.41314e-06
1.40917e-06
1.40917e-06
1.40917e-06
1.40917e-06
1.40917e-06
1.40917e-06
1.4144e-06
1.41619e-06
1.41557e-06
1.41299e-06
1.40917e-06
1.40917e-06
1.40917e-06
1.40917e-06
1.41432e-06
1.41413e-06
1.4161e-06
1.41574e-06
1.41381e-06
1.41424e-06
1.41449e-06
1.41447e-06
1.4144e-06
1.41413e-06
1.41607e-06
1.41616e-06
1.41581e-06
1.41391e-06
1.41618e-06
1.41611e-06
1.39598e-06
1.39583e-06
1.39562e-06
1.39325e-06
1.39321e-06
1.39301e-06
1.39331e-06
1.39574e-06
1.39592e-06
1.39562e-06
1.39221e-06
1.38934e-06
1.38934e-06
1.38934e-06
1.38934e-06
1.39316e-06
1.39399e-06
1.39324e-06
1.38934e-06
1.38934e-06
1.38934e-06
1.38934e-06
1.38934e-06
1.38934e-06
1.39441e-06
1.39633e-06
1.39598e-06
1.39321e-06
1.38934e-06
1.38934e-06
1.38934e-06
1.38934e-06
1.38934e-06
1.38934e-06
1.39466e-06
1.39598e-06
1.39582e-06
1.39301e-06
1.38934e-06
1.38934e-06
1.38934e-06
1.38934e-06
1.38934e-06
1.38934e-06
1.39464e-06
1.39408e-06
1.39331e-06
1.38934e-06
1.38934e-06
1.38934e-06
1.38934e-06
1.38934e-06
1.38934e-06
1.39456e-06
1.39635e-06
1.39574e-06
1.39316e-06
1.38934e-06
1.38934e-06
1.38934e-06
1.38934e-06
1.39449e-06
1.39429e-06
1.39627e-06
1.39591e-06
1.39398e-06
1.39441e-06
1.39465e-06
1.39464e-06
1.39456e-06
1.3943e-06
1.39624e-06
1.39633e-06
1.39598e-06
1.39408e-06
1.39635e-06
1.39628e-06
1.37615e-06
1.37599e-06
1.37579e-06
1.37341e-06
1.37338e-06
1.37318e-06
1.37348e-06
1.3759e-06
1.37608e-06
1.37579e-06
1.37237e-06
1.36951e-06
1.36951e-06
1.36951e-06
1.36951e-06
1.37333e-06
1.37416e-06
1.37341e-06
1.36951e-06
1.36951e-06
1.36951e-06
1.36951e-06
1.36951e-06
1.36951e-06
1.37458e-06
1.3765e-06
1.37615e-06
1.37338e-06
1.36951e-06
1.36951e-06
1.36951e-06
1.36951e-06
1.36951e-06
1.36951e-06
1.37482e-06
1.37615e-06
1.37599e-06
1.37318e-06
1.36951e-06
1.36951e-06
1.36951e-06
1.36951e-06
1.36951e-06
1.36951e-06
1.37481e-06
1.37425e-06
1.37348e-06
1.36951e-06
1.36951e-06
1.36951e-06
1.36951e-06
1.36951e-06
1.36951e-06
1.37473e-06
1.37652e-06
1.3759e-06
1.37333e-06
1.36951e-06
1.36951e-06
1.36951e-06
1.36951e-06
1.37466e-06
1.37446e-06
1.37644e-06
1.37608e-06
1.37415e-06
1.37458e-06
1.37482e-06
1.37481e-06
1.37473e-06
1.37447e-06
1.37641e-06
1.3765e-06
1.37615e-06
1.37425e-06
1.37652e-06
1.37644e-06
1.35632e-06
1.35616e-06
1.35596e-06
1.35358e-06
1.35355e-06
1.35335e-06
1.35365e-06
1.35607e-06
1.35625e-06
1.35596e-06
1.35254e-06
1.34968e-06
1.34968e-06
1.34968e-06
1.34968e-06
1.3535e-06
1.35432e-06
1.35358e-06
1.34968e-06
1.34968e-06
1.34968e-06
1.34968e-06
1.34968e-06
1.34968e-06
1.35475e-06
1.35666e-06
1.35632e-06
1.35355e-06
1.34968e-06
1.34968e-06
1.34968e-06
1.34968e-06
1.34968e-06
1.34968e-06
1.35499e-06
1.35632e-06
1.35616e-06
1.35335e-06
1.34968e-06
1.34968e-06
1.34968e-06
1.34968e-06
1.34968e-06
1.34968e-06
1.35498e-06
1.35442e-06
1.35364e-06
1.34968e-06
1.34968e-06
1.34968e-06
1.34968e-06
1.34968e-06
1.34968e-06
1.3549e-06
1.35669e-06
1.35607e-06
1.3535e-06
1.34968e-06
1.34968e-06
1.34968e-06
1.34968e-06
1.35483e-06
1.35463e-06
1.35661e-06
1.35625e-06
1.35432e-06
1.35475e-06
1.35499e-06
1.35498e-06
1.3549e-06
1.35463e-06
1.35658e-06
1.35667e-06
1.35632e-06
1.35442e-06
1.35669e-06
1.35661e-06
1.33649e-06
1.33633e-06
1.33613e-06
1.33375e-06
1.33372e-06
1.33352e-06
1.33382e-06
1.33624e-06
1.33642e-06
1.33613e-06
1.33271e-06
1.32985e-06
1.32985e-06
1.32985e-06
1.32985e-06
1.33367e-06
1.33449e-06
1.33375e-06
1.32985e-06
1.32985e-06
1.32985e-06
1.32985e-06
1.32985e-06
1.32985e-06
1.33492e-06
1.33683e-06
1.33649e-06
1.33372e-06
1.32985e-06
1.32985e-06
1.32985e-06
1.32985e-06
1.32985e-06
1.32985e-06
1.33516e-06
1.33649e-06
1.33633e-06
1.33352e-06
1.32985e-06
1.32985e-06
1.32985e-06
1.32985e-06
1.32985e-06
1.32985e-06
1.33515e-06
1.33459e-06
1.33381e-06
1.32985e-06
1.32985e-06
1.32985e-06
1.32985e-06
1.32985e-06
1.32985e-06
1.33507e-06
1.33686e-06
1.33624e-06
1.33367e-06
1.32985e-06
1.32985e-06
1.32985e-06
1.32985e-06
1.335e-06
1.3348e-06
1.33678e-06
1.33642e-06
1.33449e-06
1.33492e-06
1.33516e-06
1.33515e-06
1.33507e-06
1.3348e-06
1.33675e-06
1.33684e-06
1.33649e-06
1.33459e-06
1.33686e-06
1.33678e-06
1.31666e-06
1.3165e-06
1.3163e-06
1.31392e-06
1.31389e-06
1.31369e-06
1.31398e-06
1.31641e-06
1.31659e-06
1.3163e-06
1.31288e-06
1.31002e-06
1.31002e-06
1.31002e-06
1.31002e-06
1.31384e-06
1.31466e-06
1.31392e-06
1.31002e-06
1.31002e-06
1.31002e-06
1.31002e-06
1.31002e-06
1.31002e-06
1.31509e-06
1.317e-06
1.31666e-06
1.31389e-06
1.31002e-06
1.31002e-06
1.31002e-06
1.31002e-06
1.31002e-06
1.31002e-06
1.31533e-06
1.31666e-06
1.3165e-06
1.31369e-06
1.31002e-06
1.31002e-06
1.31002e-06
1.31002e-06
1.31002e-06
1.31002e-06
1.31532e-06
1.31476e-06
1.31398e-06
1.31002e-06
1.31002e-06
1.31002e-06
1.31002e-06
1.31002e-06
1.31002e-06
1.31524e-06
1.31703e-06
1.31641e-06
1.31384e-06
1.31002e-06
1.31002e-06
1.31002e-06
1.31002e-06
1.31517e-06
1.31497e-06
1.31695e-06
1.31659e-06
1.31466e-06
1.31509e-06
1.31533e-06
1.31532e-06
1.31524e-06
1.31497e-06
1.31692e-06
1.31701e-06
1.31666e-06
1.31476e-06
1.31703e-06
1.31695e-06
1.29683e-06
1.29667e-06
1.29647e-06
1.29409e-06
1.29406e-06
1.29385e-06
1.29415e-06
1.29658e-06
1.29676e-06
1.29647e-06
1.29305e-06
1.29019e-06
1.29019e-06
1.29019e-06
1.29019e-06
1.29401e-06
1.29483e-06
1.29409e-06
1.29019e-06
1.29019e-06
1.29019e-06
1.29019e-06
1.29019e-06
1.29019e-06
1.29526e-06
1.29717e-06
1.29683e-06
1.29406e-06
1.29019e-06
1.29019e-06
1.29019e-06
1.29019e-06
1.29019e-06
1.29019e-06
1.2955e-06
1.29683e-06
1.29667e-06
1.29386e-06
1.29019e-06
1.29019e-06
1.29019e-06
1.29019e-06
1.29019e-06
1.29019e-06
1.29549e-06
1.29493e-06
1.29415e-06
1.29019e-06
1.29019e-06
1.29019e-06
1.29019e-06
1.29019e-06
1.29019e-06
1.29541e-06
1.2972e-06
1.29658e-06
1.29401e-06
1.29019e-06
1.29019e-06
1.29019e-06
1.29019e-06
1.29533e-06
1.29514e-06
1.29712e-06
1.29676e-06
1.29483e-06