/*--------------------------------*- C++ -*----------------------------------*\
| =========                 |                                                 |
| \\      /  F ield         | OpenFOAM: The Open Source CFD Toolbox           |
|  \\    /   O peration     | Version:  v2012                                 |
|   \\  /    A nd           | Website:  www.openfoam.com                      |
|    \\/     M anipulation  |                                                 |
\*---------------------------------------------------------------------------*/
FoamFile
{
    version     2.0;
    format      ascii;
    class       volScalarField;
    location    "1550";
    object      k;
}
// * * * * * * * * * * * * * * * * * * * * * * * * * * * * * * * * * * * * * //

dimensions      [0 2 -2 0 0 0 0];


internalField   nonuniform List<scalar> 
171728
(
1.59745e-07
2.58228e-07
3.40642e-07
3.63707e-07
1.58765e-07
2.45768e-07
3.23285e-07
3.43218e-07
1.54798e-07
2.33947e-07
3.06021e-07
3.22533e-07
1.51126e-07
2.22997e-07
2.91206e-07
3.03122e-07
1.47638e-07
2.12574e-07
2.77628e-07
2.86327e-07
1.44195e-07
2.03299e-07
2.64818e-07
2.7185e-07
1.4068e-07
1.95332e-07
2.53064e-07
2.5909e-07
1.37236e-07
1.88236e-07
2.42787e-07
2.4858e-07
1.33907e-07
1.81496e-07
2.34166e-07
2.41308e-07
1.30644e-07
1.75645e-07
2.27141e-07
2.37373e-07
1.27356e-07
1.71147e-07
2.21835e-07
2.36588e-07
1.24045e-07
1.67911e-07
2.17516e-07
2.41487e-07
1.20802e-07
1.65163e-07
2.1373e-07
2.4919e-07
1.17815e-07
1.63201e-07
2.11266e-07
2.5052e-07
1.14943e-07
1.63318e-07
2.10573e-07
2.36899e-07
1.12361e-07
1.67109e-07
2.12587e-07
2.31329e-07
1.10177e-07
1.77088e-07
2.20853e-07
2.4089e-07
1.08195e-07
1.93527e-07
2.36585e-07
2.64286e-07
1.06526e-07
2.24089e-07
2.64794e-07
2.96191e-07
1.04916e-07
2.81884e-07
3.13475e-07
3.77265e-07
1.03421e-07
3.65491e-07
3.87792e-07
4.85611e-07
1.02599e-07
4.43957e-07
5.01368e-07
6.6713e-07
1.02338e-07
6.66578e-07
6.61693e-07
1.12613e-06
1.03176e-07
8.76684e-07
9.04499e-07
1.7399e-06
1.05733e-07
1.22866e-06
1.21896e-06
2.48446e-06
1.09565e-07
1.54721e-06
1.63763e-06
3.95353e-06
1.12171e-07
2.18318e-06
2.14775e-06
5.48373e-06
1.20275e-07
2.81589e-06
2.79866e-06
7.707e-06
1.31244e-07
3.41598e-06
3.51562e-06
9.98125e-06
1.50441e-07
4.4784e-06
4.41033e-06
1.21413e-05
1.90837e-07
5.3034e-06
5.42202e-06
1.50151e-05
2.33815e-07
6.59166e-06
6.47962e-06
1.73115e-05
2.99308e-07
7.66664e-06
7.76874e-06
1.94719e-05
3.76155e-07
8.99519e-06
9.39194e-06
2.15894e-05
5.2468e-07
1.09484e-05
1.04952e-05
2.33494e-05
6.41361e-07
1.18534e-05
1.20726e-05
2.50835e-05
8.55889e-07
1.3719e-05
1.37646e-05
2.65499e-05
1.14064e-06
1.54099e-05
1.55384e-05
2.79406e-05
1.35532e-06
1.74924e-05
1.72493e-05
2.92878e-05
1.91778e-06
1.89643e-05
1.90065e-05
3.05369e-05
2.08515e-06
2.05641e-05
2.08551e-05
3.16022e-05
2.94962e-06
2.29718e-05
2.27557e-05
3.29762e-05
3.27e-06
2.38404e-05
2.40667e-05
3.38458e-05
4.21613e-06
2.6859e-05
2.67775e-05
3.48686e-05
4.99002e-06
2.75199e-05
2.7282e-05
3.6206e-05
5.82893e-06
2.9827e-05
3.01492e-05
3.92972e-05
6.85916e-06
3.1648e-05
3.15605e-05
3.62164e-05
8.17877e-06
3.17287e-05
3.1656e-05
3.84096e-05
8.82759e-06
3.47883e-05
3.47563e-05
4.17181e-05
1.129e-05
3.59322e-05
3.58688e-05
4.27178e-05
1.19415e-05
3.62742e-05
3.62126e-05
4.2647e-05
1.33927e-05
3.85172e-05
3.85946e-05
4.2242e-05
1.53755e-05
3.87612e-05
3.87875e-05
4.25485e-05
1.57756e-05
4.0293e-05
3.98889e-05
4.53174e-05
1.87877e-05
4.21434e-05
4.24437e-05
4.71095e-05
1.98205e-05
4.23442e-05
4.26397e-05
4.66657e-05
2.14342e-05
4.3237e-05
4.30909e-05
4.61638e-05
2.30668e-05
4.3697e-05
4.44205e-05
4.81289e-05
2.36224e-05
4.5753e-05
4.4754e-05
4.8607e-05
2.62745e-05
4.65642e-05
4.65716e-05
4.8928e-05
2.82259e-05
4.66632e-05
4.72677e-05
5.05134e-05
2.84085e-05
4.74761e-05
4.73806e-05
5.05915e-05
2.86673e-05
4.88806e-05
4.89323e-05
5.02413e-05
3.16125e-05
4.9287e-05
4.9191e-05
5.14403e-05
3.28598e-05
4.94866e-05
4.93274e-05
5.31276e-05
3.31398e-05
5.08958e-05
5.10837e-05
5.31271e-05
3.48031e-05
5.107e-05
5.13696e-05
5.23244e-05
3.58244e-05
5.1878e-05
5.13494e-05
5.32127e-05
3.63587e-05
5.26152e-05
5.25878e-05
5.45776e-05
3.73529e-05
5.2831e-05
5.29828e-05
5.48923e-05
3.79228e-05
5.28771e-05
5.29136e-05
5.481e-05
3.96205e-05
5.42691e-05
5.45823e-05
5.55948e-05
4.08645e-05
5.40465e-05
5.48702e-05
5.60176e-05
4.03403e-05
5.34556e-05
5.29475e-05
5.46302e-05
4.06916e-05
5.6234e-05
5.443e-05
5.64767e-05
4.36762e-05
5.67474e-05
5.7528e-05
5.81798e-05
4.38244e-05
5.4247e-05
5.64919e-05
5.65807e-05
4.22603e-05
5.37654e-05
5.35904e-05
5.50377e-05
4.22409e-05
5.68319e-05
5.39732e-05
5.69617e-05
4.59578e-05
5.865e-05
5.85614e-05
5.94428e-05
4.71516e-05
5.74251e-05
5.90247e-05
5.85871e-05
4.49889e-05
5.49607e-05
5.55569e-05
5.6617e-05
4.37581e-05
5.50702e-05
5.48074e-05
5.64607e-05
4.55239e-05
5.76636e-05
5.69931e-05
5.77338e-05
4.73959e-05
5.81156e-05
5.7918e-05
5.90064e-05
4.71368e-05
5.76123e-05
5.79304e-05
5.95624e-05
4.64347e-05
5.66523e-05
5.74225e-05
5.78648e-05
4.60003e-05
5.60042e-05
5.63669e-05
5.66186e-05
4.6026e-05
5.69579e-05
5.6215e-05
5.7974e-05
4.69767e-05
5.78235e-05
5.70447e-05
5.88763e-05
4.73184e-05
5.6949e-05
5.74532e-05
5.78397e-05
4.7195e-05
5.64446e-05
5.77583e-05
5.77561e-05
4.70744e-05
5.73823e-05
5.75192e-05
5.89434e-05
4.65598e-05
5.70423e-05
5.51932e-05
5.73982e-05
4.50781e-05
5.40933e-05
5.34432e-05
5.54098e-05
3.62267e-07
3.11674e-07
3.23847e-07
3.52215e-07
2.9559e-07
3.40616e-07
1.57036e-07
1.4986e-07
1.60591e-07
1.6644e-07
2.88939e-07
2.94707e-07
3.55294e-07
3.39949e-07
3.3833e-07
3.64712e-07
3.61435e-07
3.40445e-07
2.60682e-07
3.1357e-07
2.49641e-07
3.03682e-07
3.51184e-07
3.31273e-07
2.62284e-07
5.7732e-07
2.52644e-07
5.30224e-07
2.62183e-07
2.48956e-07
2.54128e-07
3.52481e-07
3.38829e-07
3.21395e-07
3.27954e-07
3.11374e-07
3.44498e-07
3.39342e-07
3.20135e-07
2.46868e-07
2.99769e-07
2.39432e-07
2.88315e-07
3.30032e-07
3.11375e-07
2.49583e-07
5.08544e-07
2.41029e-07
4.49707e-07
2.51201e-07
2.36783e-07
2.42687e-07
3.35189e-07
3.20543e-07
3.07434e-07
3.1017e-07
2.95445e-07
3.23737e-07
3.19079e-07
3.01849e-07
2.37034e-07
2.84616e-07
2.30444e-07
2.73574e-07
3.10251e-07
2.93779e-07
2.38384e-07
4.31636e-07
2.3085e-07
3.95339e-07
2.39956e-07
2.25725e-07
2.32407e-07
3.17453e-07
3.07431e-07
2.91419e-07
2.94652e-07
2.80006e-07
3.04193e-07
3.00855e-07
2.85213e-07
2.28534e-07
2.69909e-07
2.23936e-07
2.5932e-07
2.92759e-07
2.77844e-07
2.28392e-07
3.89858e-07
2.21023e-07
3.62847e-07
2.3009e-07
2.1507e-07
2.23949e-07
3.05779e-07
2.98467e-07
2.7668e-07
2.81022e-07
2.67342e-07
2.87239e-07
2.84333e-07
2.69973e-07
2.22489e-07
2.5605e-07
2.18155e-07
2.47014e-07
2.76935e-07
2.6344e-07
2.18579e-07
3.46901e-07
2.11485e-07
2.91346e-07
2.22151e-07
2.05485e-07
2.17179e-07
2.95432e-07
2.781e-07
2.64683e-07
2.6795e-07
2.58213e-07
2.72659e-07
2.69209e-07
2.561e-07
2.16725e-07
2.44243e-07
2.12665e-07
2.36392e-07
2.62647e-07
2.50277e-07
2.0914e-07
2.74529e-07
2.0269e-07
2.38932e-07
2.15747e-07
1.97216e-07
2.12176e-07
2.76656e-07
2.60921e-07
2.55989e-07
2.55872e-07
2.48249e-07
2.59784e-07
2.55499e-07
2.44108e-07
2.11571e-07
2.33856e-07
2.08266e-07
2.26496e-07
2.4961e-07
2.38459e-07
2.00704e-07
2.3155e-07
1.95273e-07
2.19202e-07
2.11161e-07
1.89942e-07
2.08554e-07
2.59931e-07
2.49367e-07
2.45776e-07
2.45234e-07
2.41024e-07
2.49036e-07
2.43668e-07
2.34034e-07
2.07238e-07
2.24304e-07
2.04232e-07
2.18961e-07
2.37932e-07
2.28206e-07
1.93612e-07
2.17265e-07
1.88761e-07
2.13307e-07
2.07871e-07
1.83093e-07
2.06129e-07
2.48882e-07
2.40345e-07
2.40448e-07
2.36073e-07
2.40313e-07
2.41524e-07
2.3373e-07
2.25053e-07
2.03466e-07
2.17633e-07
2.01082e-07
2.1439e-07
2.27787e-07
2.19096e-07
1.87252e-07
2.12154e-07
1.82922e-07
2.08264e-07
2.05654e-07
1.77005e-07
2.04316e-07
2.39838e-07
2.31774e-07
2.40783e-07
2.28756e-07
2.48241e-07
2.37368e-07
2.24816e-07
2.16562e-07
2.00209e-07
2.13327e-07
1.97978e-07
2.09832e-07
2.18774e-07
2.11048e-07
1.81572e-07
2.06765e-07
1.77865e-07
2.01982e-07
2.03911e-07
1.72135e-07
2.0306e-07
2.31316e-07
2.23451e-07
2.51294e-07
2.23059e-07
2.63609e-07
2.36162e-07
2.16426e-07
2.09472e-07
1.97498e-07
2.0873e-07
1.96945e-07
2.04743e-07
2.10821e-07
2.03875e-07
1.76673e-07
2.0026e-07
1.73691e-07
1.94788e-07
2.0287e-07
1.68599e-07
2.02339e-07
2.23055e-07
2.15634e-07
2.69804e-07
2.18514e-07
2.99041e-07
2.39947e-07
2.09467e-07
2.03625e-07
1.96921e-07
2.03429e-07
1.97141e-07
2.01294e-07
2.03765e-07
1.97854e-07
1.72886e-07
1.93078e-07
1.70827e-07
1.89065e-07
2.02167e-07
1.65965e-07
2.00976e-07
2.15344e-07
2.08804e-07
3.12063e-07
2.14607e-07
3.55526e-07
2.48119e-07
2.03729e-07
1.99151e-07
1.97227e-07
2.00928e-07
1.97823e-07
2.00841e-07
1.97913e-07
1.93061e-07
1.70373e-07
1.88023e-07
1.6958e-07
1.86239e-07
2.00379e-07
1.6367e-07
1.98916e-07
2.08739e-07
2.03875e-07
3.68629e-07
2.11812e-07
3.93078e-07
2.50174e-07
1.99438e-07
1.96413e-07
1.98269e-07
2.0087e-07
2.00641e-07
2.00647e-07
1.93291e-07
1.89993e-07
1.69489e-07
1.86093e-07
1.69881e-07
1.86328e-07
1.98253e-07
1.62946e-07
1.95949e-07
2.04063e-07
2.00986e-07
3.95768e-07
2.10543e-07
3.9014e-07
2.38055e-07
1.971e-07
1.96338e-07
2.01432e-07
2.00791e-07
2.05564e-07
2.0246e-07
1.90605e-07
1.90246e-07
1.7032e-07
1.86568e-07
1.72773e-07
1.88458e-07
1.95841e-07
1.65813e-07
1.969e-07
2.01588e-07
2.00771e-07
3.75977e-07
2.11771e-07
3.4759e-07
2.29668e-07
1.97866e-07
2.01161e-07
2.07384e-07
2.03743e-07
2.1472e-07
2.0777e-07
1.91958e-07
1.93892e-07
1.73606e-07
1.89387e-07
1.79217e-07
1.94547e-07
1.98325e-07
1.73208e-07
2.02555e-07
2.02125e-07
2.05513e-07
3.44848e-07
2.18385e-07
3.45149e-07
2.35809e-07
2.04365e-07
2.15671e-07
2.17768e-07
2.10492e-07
2.32544e-07
2.19829e-07
1.97778e-07
2.08553e-07
1.81821e-07
1.9667e-07
1.93747e-07
2.08074e-07
2.07119e-07
1.88961e-07
2.21337e-07
2.08555e-07
2.19034e-07
3.48059e-07
2.32087e-07
3.66769e-07
2.60372e-07
2.22142e-07
2.45033e-07
2.38438e-07
2.21974e-07
2.61584e-07
2.44208e-07
2.1318e-07
2.41724e-07
1.98369e-07
2.12703e-07
2.18405e-07
2.3499e-07
2.25576e-07
2.17596e-07
2.40199e-07
2.25094e-07
2.49472e-07
3.75654e-07
2.5682e-07
4.05245e-07
2.84196e-07
2.5789e-07
3.07194e-07
2.7191e-07
2.50463e-07
3.10958e-07
2.78897e-07
2.54269e-07
2.90057e-07
2.27587e-07
2.43194e-07
2.61803e-07
2.77533e-07
2.47534e-07
2.65049e-07
2.92498e-07
2.60633e-07
3.06318e-07
4.13834e-07
2.98587e-07
4.53534e-07
3.58834e-07
3.282e-07
4.17176e-07
3.26051e-07
2.96654e-07
3.89133e-07
3.41018e-07
3.24012e-07
4.03075e-07
2.74627e-07
2.91254e-07
3.2946e-07
3.46506e-07
3.02945e-07
3.30567e-07
3.44596e-07
3.29066e-07
4.18241e-07
4.60625e-07
3.67531e-07
4.70254e-07
4.29177e-07
4.55996e-07
6.15621e-07
4.12036e-07
3.75614e-07
5.01964e-07
4.33173e-07
4.3876e-07
5.99749e-07
3.50617e-07
3.66188e-07
4.28092e-07
4.45965e-07
3.84622e-07
4.24317e-07
4.49333e-07
4.50769e-07
6.08367e-07
4.91044e-07
4.64564e-07
5.4222e-07
6.50483e-07
6.77469e-07
9.75113e-07
5.42368e-07
4.51224e-07
6.63979e-07
6.38671e-07
6.23083e-07
1.11579e-06
4.65805e-07
4.81616e-07
5.74138e-07
6.01916e-07
4.73966e-07
6.34752e-07
6.03569e-07
6.71296e-07
9.84291e-07
5.48301e-07
6.16325e-07
6.83223e-07
9.99502e-07
1.05734e-06
1.57236e-06
7.15143e-07
6.70316e-07
9.05874e-07
7.62394e-07
1.2129e-06
1.32534e-06
6.18774e-07
6.42642e-07
8.07537e-07
8.26838e-07
6.43775e-07
7.67837e-07
8.49505e-07
1.06928e-06
1.53687e-06
7.34338e-07
8.43326e-07
9.45013e-07
1.54798e-06
1.72882e-06
2.34258e-06
9.75504e-07
8.71584e-07
1.20043e-06
1.14187e-06
1.50949e-06
2.65492e-06
8.66657e-07
8.89655e-07
1.07926e-06
1.11188e-06
9.11206e-07
1.14191e-06
1.12698e-06
1.69647e-06
2.35115e-06
1.00763e-06
1.12804e-06
1.12965e-06
2.3208e-06
2.54691e-06
3.67664e-06
1.29434e-06
1.22611e-06
1.64176e-06
1.4559e-06
2.79145e-06
3.41123e-06
1.17008e-06
1.20481e-06
1.49775e-06
1.49885e-06
1.23052e-06
1.46045e-06
1.53193e-06
2.55679e-06
3.62751e-06
1.23835e-06
1.51932e-06
1.49736e-06
3.73463e-06
3.95921e-06
5.18752e-06
1.74467e-06
1.54973e-06
2.09427e-06
2.00411e-06
3.62947e-06
5.13199e-06
1.61459e-06
1.62683e-06
1.95517e-06
1.97808e-06
1.65903e-06
2.01526e-06
1.98131e-06
3.91204e-06
5.17334e-06
1.594e-06
2.01584e-06
1.98677e-06
5.08776e-06
5.50101e-06
7.1765e-06
2.24476e-06
2.17671e-06
2.69459e-06
2.65908e-06
5.66628e-06
7.47014e-06
2.07939e-06
2.10569e-06
2.56472e-06
2.61716e-06
2.09898e-06
2.66107e-06
2.72367e-06
5.52094e-06
7.16611e-06
2.11479e-06
2.60756e-06
2.64709e-06
7.21172e-06
7.66757e-06
9.64266e-06
2.86763e-06
2.79456e-06
3.42717e-06
3.2076e-06
7.77655e-06
9.15666e-06
2.76637e-06
2.78423e-06
3.32174e-06
3.32223e-06
2.9302e-06
3.17078e-06
3.31869e-06
7.61906e-06
9.51702e-06
2.85103e-06
3.32782e-06
3.30635e-06
9.68684e-06
1.00301e-05
1.15422e-05
3.58542e-06
3.45147e-06
4.10064e-06
4.30294e-06
9.61508e-06
1.21693e-05
3.47656e-06
3.52499e-06
4.03487e-06
4.21957e-06
3.47779e-06
4.29721e-06
4.12487e-06
9.98282e-06
1.19169e-05
3.46277e-06
4.22097e-06
4.10968e-06
1.15436e-05
1.20514e-05
1.45575e-05
4.32704e-06
4.47166e-06
5.19694e-06
5.06682e-06
1.27922e-05
1.43534e-05
4.27962e-06
4.40172e-06
5.14023e-06
4.99811e-06
4.36865e-06
5.03007e-06
5.15715e-06
1.23795e-05
1.43437e-05
4.35167e-06
5.06161e-06
5.10324e-06
1.45152e-05
1.51219e-05
1.68173e-05
5.47263e-06
5.37713e-06
6.27391e-06
6.29514e-06
1.47157e-05
1.68384e-05
5.41979e-06
5.37536e-06
6.15565e-06
6.49258e-06
5.44087e-06
6.2632e-06
6.30105e-06
1.48858e-05
1.68213e-05
5.35886e-06
6.35748e-06
6.22246e-06
1.68275e-05
1.7241e-05
1.89503e-05
6.54103e-06
6.57743e-06
7.44478e-06
7.59035e-06
1.74819e-05
1.9034e-05
6.41286e-06
6.65941e-06
7.39326e-06
7.18793e-06
6.57174e-06
7.42727e-06
7.43895e-06
1.72233e-05
1.88201e-05
6.51197e-06
7.15993e-06
7.42393e-06
1.90199e-05
1.94405e-05
2.10361e-05
7.78345e-06
7.88013e-06
8.62434e-06
8.59654e-06
1.93268e-05
2.10534e-05
7.71327e-06
7.83638e-06
8.67899e-06
9.93681e-06
7.73295e-06
8.54694e-06
8.78359e-06
1.93541e-05
2.18018e-05
7.7211e-06
9.22815e-06
8.7756e-06
2.11266e-05
2.14854e-05
2.30837e-05
8.98746e-06
9.05265e-06
1.04214e-05
1.09696e-05
2.1611e-05
2.33934e-05
9.07777e-06
1.03164e-05
1.03195e-05
1.06522e-05
9.20574e-06
1.06081e-05
1.0145e-05
2.22239e-05
2.28588e-05
9.18162e-06
9.98444e-06
1.01134e-05
2.29575e-05
2.34874e-05
2.4562e-05
1.07412e-05
1.1428e-05
1.16147e-05
1.18992e-05
2.38489e-05
2.45675e-05
1.06369e-05
1.06849e-05
1.15155e-05
1.13109e-05
1.05102e-05
1.15205e-05
1.18748e-05
2.31307e-05
2.44501e-05
1.04914e-05
1.17838e-05
1.18289e-05
2.47052e-05
2.4929e-05
2.6188e-05
1.20787e-05
1.19838e-05
1.33976e-05
1.31524e-05
2.4809e-05
2.59997e-05
1.19624e-05
1.18225e-05
1.34376e-05
1.37487e-05
1.22276e-05
1.32408e-05
1.32551e-05
2.4898e-05
2.62149e-05
1.2185e-05
1.31997e-05
1.3292e-05
2.61774e-05
2.65581e-05
2.75659e-05
1.37099e-05
1.37071e-05
1.50669e-05
1.51876e-05
2.64615e-05
2.76148e-05
1.37932e-05
1.43984e-05
1.50399e-05
1.56856e-05
1.37741e-05
1.50267e-05
1.52183e-05
2.6624e-05
2.77273e-05
1.37976e-05
1.52346e-05
1.51298e-05
2.76372e-05
2.79078e-05
2.8983e-05
1.56217e-05
1.56182e-05
1.6703e-05
1.71692e-05
2.79563e-05
2.91415e-05
1.55771e-05
1.58297e-05
1.66323e-05
1.67289e-05
1.55349e-05
1.68611e-05
1.66298e-05
2.79982e-05
2.8862e-05
1.54804e-05
1.66e-05
1.66106e-05
2.89211e-05
2.9296e-05
3.03421e-05
1.71451e-05
1.77229e-05
1.90213e-05
1.87981e-05
2.94814e-05
3.01941e-05
1.70726e-05
1.74005e-05
1.89829e-05
1.88813e-05
1.72678e-05
1.88142e-05
1.89881e-05
2.92266e-05
3.02505e-05
1.72085e-05
1.88386e-05
1.89795e-05
3.03143e-05
3.06174e-05
3.11671e-05
1.94315e-05
1.89583e-05
1.9922e-05
1.99786e-05
3.03912e-05
3.11398e-05
1.94131e-05
1.90302e-05
1.9907e-05
2.00832e-05
1.92109e-05
1.98841e-05
1.98873e-05
3.04706e-05
3.12403e-05
1.92398e-05
2.00972e-05
1.98395e-05
3.12242e-05
3.14104e-05
3.28044e-05
2.02855e-05
2.06652e-05
2.26842e-05
2.26033e-05
3.152e-05
3.27393e-05
2.02349e-05
2.09157e-05
2.25832e-05
2.2523e-05
2.06795e-05
2.26191e-05
2.28612e-05
3.16293e-05
3.2678e-05
2.05494e-05
2.2549e-05
2.27532e-05
3.27935e-05
3.30658e-05
3.34657e-05
2.31094e-05
2.2879e-05
2.36118e-05
2.35271e-05
3.29371e-05
3.33972e-05
2.29583e-05
2.26627e-05
2.37247e-05
2.36669e-05
2.31816e-05
2.34369e-05
2.35533e-05
3.28474e-05
3.34232e-05
2.30972e-05
2.34293e-05
2.35442e-05
3.34921e-05
3.36797e-05
3.50527e-05
2.40473e-05
2.41035e-05
2.6021e-05
2.62179e-05
3.36798e-05
3.51992e-05
2.41197e-05
2.43173e-05
2.59264e-05
2.61496e-05
2.38684e-05
2.62606e-05
2.61166e-05
3.37813e-05
3.51363e-05
2.40043e-05
2.63305e-05
2.60203e-05
3.48041e-05
3.53773e-05
3.59712e-05
2.66039e-05
2.67726e-05
2.77275e-05
2.74788e-05
3.54696e-05
3.57506e-05
2.65434e-05
2.6644e-05
2.74935e-05
2.72977e-05
2.6451e-05
2.74598e-05
2.70218e-05
3.53407e-05
3.5634e-05
2.62605e-05
2.7174e-05
2.6803e-05
3.53812e-05
3.61443e-05
3.68845e-05
2.80359e-05
2.7567e-05
2.90664e-05
2.89576e-05
3.58515e-05
3.69534e-05
2.78501e-05
2.74282e-05
2.90799e-05
2.92569e-05
2.784e-05
2.8782e-05
3.09617e-05
3.57836e-05
3.71828e-05
2.77231e-05
2.92079e-05
3.09898e-05
3.92999e-05
3.71352e-05
3.81259e-05
2.94444e-05
2.98277e-05
3.08002e-05
3.13996e-05
3.74426e-05
3.84019e-05
2.94247e-05
3.01025e-05
3.09576e-05
3.14111e-05
3.10864e-05
3.15466e-05
3.04974e-05
3.76487e-05
3.83592e-05
3.10986e-05
3.15059e-05
3.04256e-05
3.62975e-05
3.83934e-05
3.90007e-05
3.13229e-05
3.15206e-05
3.23193e-05
3.16075e-05
3.84499e-05
3.83317e-05
3.14607e-05
3.14883e-05
3.22205e-05
3.16084e-05
3.02491e-05
3.16782e-05
3.02994e-05
3.83859e-05
3.82884e-05
3.0175e-05
3.15771e-05
3.02455e-05
3.76332e-05
3.9135e-05
3.99955e-05
3.24348e-05
3.1736e-05
3.36161e-05
3.42335e-05
3.85288e-05
4.06464e-05
3.23786e-05
3.18968e-05
3.35155e-05
3.38233e-05
3.07209e-05
3.38659e-05
3.46045e-05
3.85659e-05
4.05088e-05
3.0699e-05
3.39341e-05
3.45953e-05
4.14153e-05
4.03749e-05
4.15919e-05
3.43534e-05
3.49314e-05
3.59027e-05
3.56512e-05
4.10343e-05
4.13116e-05
3.41922e-05
3.4397e-05
3.58886e-05
3.57831e-05
3.54403e-05
3.58755e-05
3.68988e-05
4.0826e-05
4.13864e-05
3.5423e-05
3.58073e-05
3.70403e-05
4.25345e-05
4.16902e-05
4.16675e-05
3.60552e-05
3.56722e-05
3.61555e-05
3.5851e-05
4.13281e-05
4.15917e-05
3.61169e-05
3.59888e-05
3.62766e-05
3.61945e-05
3.71219e-05
3.60625e-05
3.72669e-05
4.14668e-05
4.16153e-05
3.73288e-05
3.59987e-05
3.75168e-05
4.26743e-05
4.17591e-05
4.32832e-05
3.6248e-05
3.63353e-05
3.81253e-05
3.83958e-05
4.19298e-05
4.34207e-05
3.63556e-05
3.63505e-05
3.8011e-05
3.8128e-05
3.72216e-05
3.81881e-05
3.72104e-05
4.1799e-05
4.33209e-05
3.7452e-05
3.82487e-05
3.72403e-05
4.21965e-05
4.35562e-05
4.3661e-05
3.86214e-05
3.8629e-05
3.90415e-05
3.87282e-05
4.35216e-05
4.33205e-05
3.85046e-05
3.85596e-05
3.89376e-05
3.89194e-05
3.74412e-05
3.87482e-05
3.78688e-05
4.3508e-05
4.34612e-05
3.72503e-05
3.879e-05
3.73471e-05
4.23926e-05
4.36822e-05
4.45625e-05
3.90539e-05
3.87289e-05
3.95508e-05
3.9449e-05
4.33445e-05
4.45408e-05
3.89603e-05
3.89253e-05
3.97299e-05
3.93383e-05
3.80544e-05
3.94083e-05
3.98184e-05
4.34792e-05
4.43392e-05
3.74676e-05
3.90955e-05
3.96296e-05
4.47308e-05
4.49858e-05
4.56758e-05
4.02665e-05
4.03523e-05
4.15301e-05
4.1867e-05
4.50735e-05
4.60605e-05
4.04349e-05
4.0163e-05
4.15714e-05
4.19891e-05
4.06114e-05
4.19539e-05
4.24824e-05
4.4848e-05
4.62696e-05
4.06073e-05
4.21509e-05
4.28323e-05
4.69962e-05
4.57232e-05
4.62741e-05
4.1646e-05
4.20228e-05
4.22762e-05
4.21884e-05
4.6111e-05
4.61055e-05
4.16703e-05
4.21929e-05
4.20967e-05
4.23044e-05
4.27434e-05
4.22849e-05
4.28277e-05
4.63367e-05
4.61149e-05
4.31615e-05
4.26371e-05
4.33203e-05
4.67183e-05
4.65984e-05
4.72854e-05
4.26773e-05
4.23168e-05
4.35098e-05
4.34168e-05
4.62341e-05
4.70398e-05
4.25156e-05
4.23119e-05
4.35545e-05
4.28619e-05
4.26963e-05
4.30759e-05
4.24157e-05
4.61356e-05
4.67878e-05
4.32275e-05
4.277e-05
4.27048e-05
4.61034e-05
4.73041e-05
4.70314e-05
4.35899e-05
4.35907e-05
4.36293e-05
4.36869e-05
4.71168e-05
4.70842e-05
4.37153e-05
4.34688e-05
4.38403e-05
4.4432e-05
4.24453e-05
4.34806e-05
4.40568e-05
4.71145e-05
4.78642e-05
4.26906e-05
4.42217e-05
4.35974e-05
4.77347e-05
4.70627e-05
4.82073e-05
4.36498e-05
4.3707e-05
4.46484e-05
4.46424e-05
4.71635e-05
4.85609e-05
4.38527e-05
4.45178e-05
4.43456e-05
4.46043e-05
4.46026e-05
4.52355e-05
4.52768e-05
4.79163e-05
4.79037e-05
4.43476e-05
4.46327e-05
4.53136e-05
4.85939e-05
4.86705e-05
5.014e-05
4.54125e-05
4.53824e-05
4.70031e-05
4.66419e-05
4.89553e-05
4.95927e-05
4.49676e-05
4.46842e-05
4.66986e-05
4.60283e-05
4.53283e-05
4.65167e-05
4.55959e-05
4.80334e-05
4.94036e-05
4.53664e-05
4.61196e-05
4.55289e-05
4.86675e-05
5.02507e-05
4.98018e-05
4.71927e-05
4.68285e-05
4.72219e-05
4.70688e-05
4.96239e-05
4.96161e-05
4.70269e-05
4.64915e-05
4.72457e-05
4.71883e-05
4.59619e-05
4.66006e-05
4.71163e-05
4.96561e-05
4.99153e-05
4.5848e-05
4.72244e-05
4.74841e-05
5.03292e-05
4.9742e-05
4.93134e-05
4.7084e-05
4.70764e-05
4.67368e-05
4.70293e-05
4.96798e-05
4.98665e-05
4.72118e-05
4.725e-05
4.70637e-05
4.73583e-05
4.74245e-05
4.7221e-05
4.79063e-05
4.99281e-05
5.0009e-05
4.77311e-05
4.73131e-05
4.78733e-05
5.05953e-05
4.94256e-05
5.10124e-05
4.67393e-05
4.70338e-05
4.77111e-05
4.79687e-05
4.99682e-05
5.11405e-05
4.70777e-05
4.7478e-05
4.81149e-05
4.86423e-05
4.79222e-05
4.85646e-05
4.78646e-05
5.02053e-05
5.1489e-05
4.78344e-05
4.85976e-05
4.76941e-05
5.02279e-05
5.13882e-05
5.19676e-05
4.84259e-05
4.86103e-05
4.9695e-05
4.96975e-05
5.14373e-05
5.18228e-05
4.86771e-05
4.89787e-05
4.95465e-05
4.9327e-05
4.78674e-05
4.92717e-05
4.86892e-05
5.16454e-05
5.14877e-05
4.77065e-05
4.9194e-05
4.84378e-05
5.10771e-05
5.1991e-05
5.19513e-05
4.98567e-05
4.98034e-05
5.00045e-05
4.98692e-05
5.18314e-05
5.17581e-05
4.96249e-05
4.93293e-05
4.96661e-05
4.9322e-05
4.9202e-05
4.93418e-05
5.03705e-05
5.14744e-05
5.14374e-05
4.89103e-05
4.92161e-05
5.04251e-05
5.29204e-05
5.20106e-05
5.26411e-05
5.00215e-05
4.98835e-05
5.03472e-05
5.03053e-05
5.18742e-05
5.27433e-05
4.96704e-05
4.93502e-05
5.00778e-05
5.03068e-05
5.06146e-05
5.06891e-05
5.08341e-05
5.1611e-05
5.29328e-05
5.08018e-05
5.07586e-05
5.11802e-05
5.31707e-05
5.28492e-05
5.3284e-05
5.06322e-05
5.06124e-05
5.11577e-05
5.10273e-05
5.28803e-05
5.29596e-05
5.05368e-05
5.0766e-05
5.14754e-05
5.15455e-05
5.0819e-05
5.10535e-05
5.05728e-05
5.31526e-05
5.33433e-05
5.11704e-05
5.13711e-05
5.07459e-05
5.23302e-05
5.33423e-05
5.364e-05
5.12179e-05
5.10631e-05
5.1473e-05
5.1485e-05
5.29851e-05
5.36344e-05
5.16218e-05
5.16363e-05
5.18629e-05
5.17389e-05
5.0559e-05
5.14901e-05
5.10173e-05
5.33523e-05
5.33848e-05
5.06265e-05
5.13307e-05
5.05997e-05
5.29071e-05
5.3767e-05
5.40727e-05
5.16806e-05
5.1764e-05
5.23657e-05
5.2539e-05
5.38701e-05
5.43585e-05
5.1939e-05
5.17954e-05
5.21827e-05
5.24217e-05
5.15571e-05
5.25132e-05
5.26089e-05
5.35027e-05
5.4361e-05
5.0728e-05
5.22093e-05
5.2222e-05
5.44183e-05
5.41019e-05
5.39802e-05
5.25129e-05
5.27309e-05
5.26454e-05
5.29609e-05
5.44179e-05
5.45182e-05
5.22244e-05
5.25535e-05
5.22248e-05
5.25574e-05
5.27864e-05
5.28166e-05
5.30424e-05
5.44887e-05
5.43026e-05
5.26557e-05
5.29841e-05
5.34054e-05
5.48631e-05
5.39855e-05
5.42669e-05
5.26437e-05
5.29565e-05
5.26694e-05
5.28321e-05
5.45316e-05
5.43671e-05
5.22083e-05
5.24419e-05
5.23026e-05
5.23162e-05
5.30631e-05
5.2832e-05
5.30676e-05
5.42621e-05
5.40137e-05
5.34725e-05
5.29e-05
5.3405e-05
5.48015e-05
5.45209e-05
5.62739e-05
5.27911e-05
5.28424e-05
5.42861e-05
5.38117e-05
5.43917e-05
5.56859e-05
5.26048e-05
5.23981e-05
5.45955e-05
5.45536e-05
5.30837e-05
5.40034e-05
5.38206e-05
5.41433e-05
5.63246e-05
5.3352e-05
5.40209e-05
5.34735e-05
5.53333e-05
5.647e-05
5.61199e-05
5.45632e-05
5.40931e-05
5.45815e-05
5.40656e-05
5.58622e-05
5.53065e-05
5.50028e-05
5.51599e-05
5.5183e-05
5.55011e-05
5.41746e-05
5.43095e-05
5.45383e-05
5.66776e-05
5.68079e-05
5.38501e-05
5.49938e-05
5.44917e-05
5.60596e-05
5.58546e-05
5.42906e-05
5.42656e-05
5.3733e-05
5.33806e-05
5.33672e-05
5.50543e-05
5.43371e-05
5.49676e-05
5.52791e-05
5.321e-05
5.28433e-05
5.45027e-05
5.34251e-05
5.36692e-05
5.64626e-05
5.36668e-05
5.44706e-05
5.31685e-05
5.3638e-05
5.46684e-05
5.42881e-05
5.63396e-05
5.33812e-05
5.34837e-05
5.48977e-05
5.62037e-05
5.45367e-05
5.80422e-05
5.30636e-05
5.25478e-05
5.36657e-05
5.29694e-05
5.357e-05
5.54417e-05
5.40055e-05
5.35547e-05
5.52392e-05
5.35059e-05
5.3327e-05
5.38593e-05
5.59009e-05
5.69264e-05
5.82887e-05
5.57543e-05
5.68461e-05
5.67655e-05
5.71082e-05
5.84408e-05
5.82629e-05
5.48332e-05
5.42546e-05
5.69227e-05
5.75525e-05
5.48962e-05
5.68425e-05
5.65808e-05
5.60941e-05
5.9245e-05
5.47399e-05
5.72702e-05
5.6679e-05
5.81476e-05
5.82896e-05
5.67012e-05
5.67616e-05
5.67947e-05
5.557e-05
5.41041e-05
5.78723e-05
5.479e-05
5.70344e-05
5.78497e-05
5.6595e-05
5.75834e-05
5.66757e-05
5.48124e-05
5.62443e-05
5.9368e-05
5.80235e-05
5.68067e-05
5.72729e-05
5.64489e-05
5.69125e-05
5.63961e-05
5.49779e-05
5.49485e-05
5.35567e-05
5.38798e-05
5.31801e-05
5.45231e-05
5.43503e-05
5.58997e-05
5.67293e-05
5.42372e-05
5.38786e-05
5.55799e-05
5.37147e-05
5.42729e-05
5.75054e-05
5.44231e-05
5.5774e-05
5.39807e-05
5.42639e-05
5.50592e-05
5.49469e-05
5.59606e-05
5.38232e-05
5.3334e-05
5.45948e-05
5.62071e-05
5.47211e-05
5.80174e-05
5.40049e-05
5.34097e-05
5.40486e-05
5.3254e-05
5.41755e-05
5.58782e-05
5.46573e-05
5.42192e-05
5.46289e-05
5.41162e-05
5.35168e-05
5.44032e-05
5.63751e-05
5.65089e-05
5.95158e-05
5.56183e-05
5.72453e-05
5.83409e-05
5.90656e-05
5.85908e-05
6.02656e-05
5.45091e-05
5.36635e-05
5.77515e-05
5.77491e-05
5.56128e-05
5.85301e-05
5.78749e-05
5.52558e-05
5.95323e-05
5.5221e-05
5.77534e-05
5.78169e-05
5.92976e-05
5.98251e-05
5.9845e-05
5.87963e-05
5.91792e-05
5.89214e-05
5.85142e-05
6.0298e-05
5.86312e-05
5.8434e-05
5.8688e-05
5.8912e-05
5.9449e-05
5.81676e-05
5.82226e-05
5.8164e-05
6.00167e-05
6.0576e-05
5.82039e-05
5.91595e-05
5.83206e-05
5.88622e-05
5.94616e-05
5.61295e-05
5.85318e-05
5.74735e-05
5.55036e-05
5.49438e-05
5.8147e-05
5.55701e-05
5.87734e-05
5.93371e-05
5.60968e-05
5.64622e-05
5.77885e-05
5.53151e-05
5.60551e-05
6.02513e-05
5.66374e-05
5.80695e-05
5.63376e-05
5.62014e-05
5.67496e-05
5.58072e-05
5.54228e-05
5.48844e-05
5.4556e-05
5.44739e-05
5.44591e-05
5.54193e-05
5.58178e-05
5.53156e-05
5.55316e-05
5.45944e-05
5.45227e-05
5.56926e-05
5.48224e-05
5.53442e-05
5.62326e-05
5.54219e-05
5.57601e-05
5.47755e-05
5.52779e-05
5.63704e-05
5.57432e-05
5.84815e-05
5.4637e-05
5.48274e-05
5.71196e-05
5.73527e-05
5.62676e-05
5.87196e-05
5.46476e-05
5.45407e-05
5.67052e-05
5.61978e-05
5.53668e-05
5.72005e-05
5.63538e-05
5.55878e-05
5.78169e-05
5.52867e-05
5.64033e-05
5.62202e-05
5.74902e-05
5.88242e-05
5.93692e-05
5.77477e-05
5.78626e-05
5.83686e-05
5.83195e-05
5.89725e-05
5.92619e-05
5.74251e-05
5.69165e-05
5.82379e-05
5.79344e-05
5.67656e-05
5.81213e-05
5.78045e-05
5.81538e-05
5.8879e-05
5.66737e-05
5.78442e-05
5.77734e-05
5.88005e-05
5.93263e-05
5.83677e-05
5.83548e-05
5.82999e-05
5.75912e-05
5.76218e-05
5.92155e-05
5.84723e-05
5.82408e-05
5.79989e-05
5.77025e-05
5.78956e-05
5.80573e-05
5.77441e-05
5.83323e-05
5.89007e-05
5.8784e-05
5.80526e-05
5.79419e-05
5.84032e-05
5.9551e-05
5.82919e-05
5.78844e-05
5.73209e-05
5.73982e-05
5.68345e-05
5.67207e-05
5.84225e-05
5.76851e-05
5.74592e-05
5.77879e-05
5.70458e-05
5.75175e-05
5.83215e-05
5.69602e-05
5.73918e-05
5.87844e-05
5.85712e-05
5.84013e-05
5.76823e-05
5.76014e-05
5.81616e-05
5.78701e-05
5.74512e-05
5.67157e-05
5.64786e-05
5.63706e-05
5.60338e-05
5.75615e-05
5.69019e-05
5.69726e-05
5.74016e-05
5.66415e-05
5.688e-05
5.68463e-05
5.60343e-05
5.59087e-05
5.85e-05
5.76277e-05
5.7007e-05
5.65583e-05
5.58978e-05
5.66265e-05
5.74215e-05
5.74076e-05
5.63212e-05
5.60196e-05
5.64003e-05
5.65128e-05
5.69038e-05
5.77863e-05
5.65203e-05
5.6682e-05
5.63674e-05
5.62439e-05
5.58647e-05
5.6423e-05
5.63456e-05
5.75531e-05
5.72028e-05
5.58181e-05
5.61937e-05
5.60984e-05
5.76426e-05
5.75328e-05
5.82861e-05
5.66517e-05
5.69911e-05
5.73629e-05
5.77745e-05
5.80847e-05
5.89812e-05
5.63809e-05
5.62049e-05
5.69371e-05
5.63344e-05
5.69017e-05
5.77888e-05
5.76805e-05
5.72116e-05
5.76509e-05
5.66403e-05
5.68231e-05
5.75985e-05
5.88603e-05
5.83909e-05
5.84416e-05
5.74597e-05
5.78174e-05
5.74453e-05
5.74758e-05
5.90148e-05
5.81845e-05
5.71667e-05
5.66349e-05
5.74465e-05
5.73874e-05
5.76979e-05
5.73724e-05
5.71382e-05
5.78055e-05
5.84046e-05
5.76513e-05
5.7365e-05
5.73391e-05
5.79727e-05
5.84229e-05
5.82531e-05
5.7313e-05
5.70683e-05
5.69911e-05
5.6497e-05
5.79895e-05
5.73533e-05
5.7459e-05
5.76164e-05
5.74309e-05
5.8038e-05
5.68298e-05
5.64325e-05
5.65803e-05
5.85408e-05
5.91857e-05
5.70583e-05
5.76962e-05
5.67955e-05
5.76048e-05
5.82753e-05
5.83454e-05
5.6989e-05
5.64994e-05
5.70859e-05
5.70626e-05
5.73775e-05
5.84561e-05
5.74206e-05
5.80797e-05
5.72824e-05
5.78333e-05
5.66445e-05
5.71742e-05
5.74976e-05
5.92652e-05
5.88179e-05
5.68385e-05
5.77141e-05
5.7416e-05
5.88791e-05
5.83429e-05
5.75466e-05
5.71024e-05
5.72599e-05
5.68931e-05
5.72639e-05
5.86025e-05
5.84157e-05
5.71893e-05
5.73711e-05
5.6306e-05
5.54887e-05
5.75945e-05
5.73619e-05
5.72585e-05
5.85813e-05
5.62807e-05
5.74629e-05
5.57356e-05
5.69434e-05
5.7828e-05
5.73217e-05
5.59639e-05
5.64826e-05
5.70146e-05
5.51687e-05
5.52867e-05
5.81285e-05
5.60842e-05
5.589e-05
5.49661e-05
5.483e-05
5.41194e-05
5.6536e-05
5.51966e-05
5.47456e-05
5.5959e-05
5.50812e-05
5.61946e-05
5.43031e-05
5.46641e-05
5.54591e-05
5.58812e-05
5.41087e-05
5.41661e-05
5.59514e-05
5.38716e-05
5.32971e-05
4.53725e-05
4.45494e-05
4.49721e-05
5.37185e-05
5.51047e-05
5.36864e-05
3.51298e-08
2.36059e-07
4.08272e-08
4.54255e-08
2.88856e-07
2.78958e-07
1.16549e-07
1.1625e-07
2.70753e-07
3.41523e-07
1.25854e-07
4.67672e-07
3.7113e-07
2.14533e-07
4.24119e-07
2.92105e-07
6.09689e-06
2.52912e-07
7.87719e-06
1.34142e-05
2.08032e-05
3.58681e-07
4.8335e-06
3.18364e-07
6.46281e-06
1.52657e-07
1.64095e-07
1.69834e-07
1.59738e-07
1.52503e-07
1.63797e-07
1.7026e-07
2.71107e-07
5.07844e-07
2.18699e-07
2.55374e-07
2.77481e-07
4.94929e-07
2.17941e-07
1.38625e-05
2.16037e-05
2.54821e-07
2.43407e-07
7.1807e-07
3.37337e-07
2.59884e-07
2.42245e-07
6.85813e-07
1.84423e-06
1.91328e-06
3.55032e-07
1.82106e-06
1.88704e-06
4.87518e-07
1.11076e-05
4.03856e-07
1.42554e-05
3.59171e-05
4.58357e-05
5.50398e-07
9.50421e-06
4.61822e-07
1.21886e-05
1.51417e-07
1.62277e-07
1.69263e-07
1.55756e-07
1.48083e-07
1.57778e-07
1.66139e-07