/*--------------------------------*- C++ -*----------------------------------*\
| =========                 |                                                 |
| \\      /  F ield         | OpenFOAM: The Open Source CFD Toolbox           |
|  \\    /   O peration     | Version:  v2012                                 |
|   \\  /    A nd           | Website:  www.openfoam.com                      |
|    \\/     M anipulation  |                                                 |
\*---------------------------------------------------------------------------*/
FoamFile
{
    version     2.0;
    format      ascii;
    class       volScalarField;
    location    "1550";
    object      nut;
}
// * * * * * * * * * * * * * * * * * * * * * * * * * * * * * * * * * * * * * //

dimensions      [0 2 -1 0 0 0 0];


internalField   nonuniform List<scalar> 
171728
(
1.70013e-06
1.79237e-06
2.16176e-06
2.31168e-06
1.73335e-06
1.7577e-06
2.13079e-06
2.27979e-06
1.74117e-06
1.73856e-06
2.10553e-06
2.2292e-06
1.74806e-06
1.72096e-06
2.09256e-06
2.16156e-06
1.75122e-06
1.69404e-06
2.07662e-06
2.09787e-06
1.74944e-06
1.66148e-06
2.04724e-06
2.03461e-06
1.7424e-06
1.62632e-06
2.00786e-06
1.96479e-06
1.73389e-06
1.58102e-06
1.96273e-06
1.89644e-06
1.72576e-06
1.51649e-06
1.91215e-06
1.85085e-06
1.71571e-06
1.44418e-06
1.85659e-06
1.84403e-06
1.70164e-06
1.37184e-06
1.80105e-06
1.90311e-06
1.68314e-06
1.30046e-06
1.73413e-06
2.02753e-06
1.66267e-06
1.21446e-06
1.64592e-06
2.16099e-06
1.64331e-06
1.11693e-06
1.54539e-06
2.16107e-06
1.62286e-06
1.02215e-06
1.43528e-06
1.8741e-06
1.60688e-06
9.47022e-07
1.32045e-06
1.65102e-06
1.59626e-06
8.93576e-07
1.23491e-06
1.51733e-06
1.58684e-06
8.72044e-07
1.1727e-06
1.53278e-06
1.57763e-06
9.08147e-07
1.16707e-06
1.4655e-06
1.55803e-06
1.05814e-06
1.24286e-06
1.6435e-06
1.52088e-06
1.2868e-06
1.41911e-06
1.75413e-06
1.47526e-06
1.43605e-06
1.72446e-06
2.3957e-06
1.41052e-06
2.26024e-06
2.19202e-06
3.82963e-06
1.34098e-06
2.80714e-06
2.98007e-06
5.65358e-06
1.27264e-06
4.05248e-06
3.98378e-06
7.82833e-06
1.18915e-06
4.95407e-06
5.34721e-06
1.28932e-05
1.05741e-06
7.17132e-06
7.04564e-06
1.72175e-05
9.73293e-07
9.44427e-06
9.22572e-06
2.40209e-05
9.34037e-07
1.10442e-05
1.16016e-05
3.1455e-05
9.38279e-07
1.51953e-05
1.48103e-05
3.66423e-05
1.12697e-06
1.76456e-05
1.81165e-05
4.55823e-05
1.28969e-06
2.23657e-05
2.21034e-05
5.20424e-05
1.57755e-06
2.59711e-05
2.59264e-05
5.81421e-05
1.87134e-06
3.01003e-05
3.27146e-05
6.4336e-05
2.72102e-06
3.8113e-05
3.54527e-05
6.9388e-05
3.10979e-06
3.99984e-05
4.11709e-05
7.47161e-05
4.26715e-06
4.66058e-05
4.66603e-05
7.90295e-05
5.68396e-06
5.2345e-05
5.31982e-05
8.33884e-05
6.47443e-06
5.98068e-05
5.84515e-05
8.75819e-05
9.8594e-06
6.48897e-05
6.50176e-05
9.18972e-05
9.90788e-06
6.90676e-05
7.05655e-05
9.48718e-05
1.50277e-05
7.89394e-05
7.79118e-05
0.000100232
1.57558e-05
7.94273e-05
8.04983e-05
0.000102309
2.06002e-05
9.23656e-05
9.21394e-05
0.000106671
2.47264e-05
9.32282e-05
9.16487e-05
0.000108446
2.84491e-05
0.000100781
0.000102635
0.000125624
3.29454e-05
0.000109455
0.000109044
0.000110027
4.06027e-05
0.000106104
0.000105484
0.000115432
4.08087e-05
0.00011895
0.000118823
0.000131488
5.58712e-05
0.000123954
0.000123668
0.000135143
5.78396e-05
0.000122273
0.00012192
0.000134913
6.26904e-05
0.000133346
0.000133677
0.000132025
7.45195e-05
0.000132739
0.000133054
0.000131587
7.18819e-05
0.000137841
0.000135158
0.000142589
8.94454e-05
0.000147777
0.000149309
0.000151299
9.27961e-05
0.000147239
0.000149227
0.000149357
0.000100313
0.000151156
0.000149562
0.000145594
0.000108791
0.000151542
0.000156342
0.000153939
0.0001066
0.00016158
0.000156351
0.000156163
0.000122032
0.000166328
0.000165455
0.000156319
0.000135684
0.000165271
0.000169095
0.000163874
0.000132782
0.000168508
0.00016803
0.000164392
0.000128562
0.000175967
0.000176388
0.000162057
0.000148434
0.000178051
0.000177674
0.000166246
0.000156448
0.000177289
0.000176221
0.000174519
0.000154499
0.000185409
0.000186273
0.000175265
0.000164727
0.000186082
0.000188286
0.000170771
0.00017109
0.000189591
0.000186881
0.000173622
0.00017259
0.000194218
0.000193557
0.000180519
0.00017833
0.000195254
0.000196314
0.000182132
0.000179473
0.00019466
0.000194987
0.000181594
0.000190076
0.000202851
0.000204103
0.000184735
0.000201536
0.000202974
0.000208522
0.000188179
0.000195931
0.000197829
0.000196221
0.00018102
0.000192731
0.00021337
0.000200408
0.000187371
0.000217693
0.000219732
0.000221964
0.000197829
0.000221981
0.000204723
0.000220315
0.000192008
0.000207459
0.000199491
0.000200882
0.000183046
0.000201468
0.000216621
0.000198531
0.000189806
0.000230454
0.000229879
0.000227648
0.000203625
0.000246092
0.000225978
0.000235862
0.000201887
0.000230674
0.000210079
0.000214998
0.000192059
0.00021592
0.000208166
0.000207558
0.000190038
0.000226635
0.000224926
0.000220131
0.000195737
0.000245712
0.000229815
0.00022774
0.000202471
0.000247096
0.000227832
0.000229127
0.000206734
0.000241515
0.000222859
0.000227609
0.000199709
0.00023753
0.000218529
0.000221317
0.000192588
0.000236765
0.000223819
0.000219911
0.000198549
0.000245806
0.000231155
0.000225664
0.000204529
0.000251414
0.000227667
0.000229492
0.000200137
0.00025226
0.000223878
0.000232735
0.000198802
0.000252608
0.000230621
0.000233801
0.000206024
0.000250503
0.000232287
0.000220108
0.000200966
0.000242571
0.000221256
0.000215544
0.000194332
2.28553e-06
2.18582e-06
2.38384e-06
2.24645e-06
2.08157e-06
2.5915e-06
1.66474e-06
1.55174e-06
1.6146e-06
1.64159e-06
2.06974e-06
2.0272e-06
2.22006e-06
2.42784e-06
2.47985e-06
2.31451e-06
2.28443e-06
2.24981e-06
1.67504e-06
1.88975e-06
1.59089e-06
1.89332e-06
2.2421e-06
2.19733e-06
1.81136e-06
4.79436e-06
1.78027e-06
4.74512e-06
1.65201e-06
1.76398e-06
1.63307e-06
2.19909e-06
2.22174e-06
1.82869e-06
2.13838e-06
1.78996e-06
2.28105e-06
2.24887e-06
2.22121e-06
1.58154e-06
1.89451e-06
1.56125e-06
1.89412e-06
2.19502e-06
2.15958e-06
1.77751e-06
4.57497e-06
1.77619e-06
4.01932e-06
1.62768e-06
1.74259e-06
1.60985e-06
2.19164e-06
2.1907e-06
1.77797e-06
2.11164e-06
1.73716e-06
2.23128e-06
2.21863e-06
2.18624e-06
1.55479e-06
1.89225e-06
1.54031e-06
1.87698e-06
2.15708e-06
2.12532e-06
1.77738e-06
3.8371e-06
1.78249e-06
3.55654e-06
1.60366e-06
1.7264e-06
1.5877e-06
2.16421e-06
2.20314e-06
1.72132e-06
2.09395e-06
1.67766e-06
2.16381e-06
2.18248e-06
2.14452e-06
1.53732e-06
1.87047e-06
1.5389e-06
1.85262e-06
2.12246e-06
2.09096e-06
1.78269e-06
3.57334e-06
1.77754e-06
3.4346e-06
1.58304e-06
1.7014e-06
1.5751e-06
2.19362e-06
2.26612e-06
1.66822e-06
2.08267e-06
1.63943e-06
2.10043e-06
2.14053e-06
2.09728e-06
1.5398e-06
1.84748e-06
1.53972e-06
1.83088e-06
2.08808e-06
2.05415e-06
1.77321e-06
3.25535e-06
1.75615e-06
2.54656e-06
1.57418e-06
1.66949e-06
1.57225e-06
2.23522e-06
2.15104e-06
1.63098e-06
2.05579e-06
1.60845e-06
2.03812e-06
2.09325e-06
2.04758e-06
1.53897e-06
1.82482e-06
1.53557e-06
1.80158e-06
2.05061e-06
2.00986e-06
1.74755e-06
2.32985e-06
1.72247e-06
1.9027e-06
1.57322e-06
1.63609e-06
1.58219e-06
2.14061e-06
2.05217e-06
1.59487e-06
2.01816e-06
1.52486e-06
1.96954e-06
2.04397e-06
2.00064e-06
1.53605e-06
1.79159e-06
1.53305e-06
1.75203e-06
2.00611e-06
1.96044e-06
1.71324e-06
1.82242e-06
1.68465e-06
1.71005e-06
1.58573e-06
1.59382e-06
1.59759e-06
2.04505e-06
2.00712e-06
1.49687e-06
1.97509e-06
1.43817e-06
1.90046e-06
1.99704e-06
1.95562e-06
1.53117e-06
1.73882e-06
1.52119e-06
1.7068e-06
1.95612e-06
1.90766e-06
1.67401e-06
1.70147e-06
1.63543e-06
1.69403e-06
1.60212e-06
1.53341e-06
1.6114e-06
2.00512e-06
1.97892e-06
1.4271e-06
1.92382e-06
1.39874e-06
1.85331e-06
1.95154e-06
1.89972e-06
1.51882e-06
1.70147e-06
1.5029e-06
1.68824e-06
1.90223e-06
1.84773e-06
1.62082e-06
1.69106e-06
1.57087e-06
1.66323e-06
1.61381e-06
1.46275e-06
1.61452e-06
1.97378e-06
1.93283e-06
1.39265e-06
1.87049e-06
1.44366e-06
1.84369e-06
1.89428e-06
1.82533e-06
1.4934e-06
1.68246e-06
1.46341e-06
1.65242e-06
1.84115e-06
1.78031e-06
1.55257e-06
1.64856e-06
1.4942e-06
1.58963e-06
1.61334e-06
1.38939e-06
1.6085e-06
1.9254e-06
1.86679e-06
1.4687e-06
1.81595e-06
1.59242e-06
1.89609e-06
1.81885e-06
1.74688e-06
1.45477e-06
1.64078e-06
1.43298e-06
1.58523e-06
1.77274e-06
1.70248e-06
1.47277e-06
1.56614e-06
1.40866e-06
1.48138e-06
1.60591e-06
1.31677e-06
1.59078e-06
1.85776e-06
1.78352e-06
1.66398e-06
1.75192e-06
2.03005e-06
2.00888e-06
1.73798e-06
1.66122e-06
1.42532e-06
1.56384e-06
1.39764e-06
1.51454e-06
1.69229e-06
1.61474e-06
1.38802e-06
1.45246e-06
1.32005e-06
1.37229e-06
1.58293e-06
1.23601e-06
1.53841e-06
1.77255e-06
1.68833e-06
2.2064e-06
1.66974e-06
2.855e-06
2.15683e-06
1.64792e-06
1.56562e-06
1.38566e-06
1.49952e-06
1.34593e-06
1.45364e-06
1.60094e-06
1.51559e-06
1.29809e-06
1.3468e-06
1.23017e-06
1.28066e-06
1.51752e-06
1.13937e-06
1.44838e-06
1.67474e-06
1.59197e-06
3.06891e-06
1.57267e-06
3.50744e-06
2.17778e-06
1.54784e-06
1.45989e-06
1.33193e-06
1.43582e-06
1.29268e-06
1.36478e-06
1.49709e-06
1.40651e-06
1.20799e-06
1.26034e-06
1.13692e-06
1.19761e-06
1.41869e-06
1.04343e-06
1.32285e-06
1.57476e-06
1.48943e-06
3.55719e-06
1.46287e-06
3.47612e-06
1.92486e-06
1.43707e-06
1.34667e-06
1.27551e-06
1.33752e-06
1.22953e-06
1.25992e-06
1.38447e-06
1.29076e-06
1.11432e-06
1.17698e-06
1.04724e-06
1.11102e-06
1.29181e-06
9.63709e-07
1.21033e-06
1.46726e-06
1.38263e-06
3.217e-06
1.34973e-06
2.69786e-06
1.67482e-06
1.32019e-06
1.24112e-06
1.21392e-06
1.24041e-06
1.16995e-06
1.15806e-06
1.27043e-06
1.17761e-06
1.02232e-06
1.08801e-06
9.66376e-07
1.03311e-06
1.19491e-06
8.95185e-07
1.11479e-06
1.35551e-06
1.2751e-06
2.62051e-06
1.25291e-06
2.41548e-06
1.54923e-06
1.21749e-06
1.16861e-06
1.15604e-06
1.13978e-06
1.14433e-06
1.09572e-06
1.15587e-06
1.12591e-06
9.49969e-07
1.01504e-06
9.23751e-07
9.86593e-07
1.10388e-06
8.77318e-07
1.10366e-06
1.25213e-06
1.19747e-06
2.374e-06
1.18661e-06
2.36487e-06
1.56095e-06
1.1613e-06
1.15161e-06
1.14431e-06
1.06228e-06
1.15885e-06
1.0703e-06
1.10433e-06
1.11884e-06
9.17918e-07
9.79738e-07
9.21279e-07
1.00412e-06
1.10012e-06
9.09369e-07
1.05522e-06
1.18436e-06
1.18883e-06
2.3625e-06
1.16762e-06
2.4338e-06
1.47412e-06
1.16767e-06
1.2744e-06
1.17678e-06
1.0687e-06
1.26091e-06
1.08191e-06
1.14804e-06
1.14064e-06
9.3601e-07
1.01078e-06
1.00309e-06
1.07454e-06
1.04328e-06
1.01042e-06
1.17714e-06
1.19691e-06
1.26842e-06
2.38358e-06
1.21146e-06
2.32706e-06
1.60153e-06
1.31925e-06
1.55369e-06
1.29182e-06
1.13247e-06
1.46968e-06
1.19728e-06
1.24845e-06
1.471e-06
1.02783e-06
1.09876e-06
1.17026e-06
1.24395e-06
1.19598e-06
1.15825e-06
1.22268e-06
1.31673e-06
1.57302e-06
2.31643e-06
1.37186e-06
1.99673e-06
1.601e-06
1.66157e-06
2.14436e-06
1.52735e-06
1.32607e-06
1.78653e-06
1.47872e-06
1.53661e-06
2.1389e-06
1.22578e-06
1.29092e-06
1.43257e-06
1.50507e-06
1.37221e-06
1.44388e-06
1.54546e-06
1.64829e-06
2.1056e-06
1.98031e-06
1.60977e-06
2.08423e-06
2.43423e-06
2.30879e-06
3.31082e-06
1.91857e-06
1.46129e-06
2.2812e-06
2.15625e-06
2.12013e-06
3.89378e-06
1.55573e-06
1.61327e-06
1.86792e-06
1.9897e-06
1.59636e-06
2.14994e-06
1.99881e-06
2.28006e-06
3.34909e-06
2.01268e-06
2.05941e-06
2.3645e-06
3.34496e-06
3.5204e-06
5.1923e-06
2.4381e-06
2.2676e-06
3.06974e-06
2.36097e-06
4.31111e-06
4.06628e-06
1.9957e-06
2.09987e-06
2.62972e-06
2.70123e-06
2.10679e-06
2.40162e-06
2.80074e-06
3.59544e-06
5.02633e-06
2.53614e-06
2.78849e-06
3.28128e-06
5.00853e-06
5.70928e-06
7.54076e-06
3.30039e-06
2.76441e-06
4.00289e-06
3.73676e-06
4.50121e-06
9.05784e-06
2.8151e-06
2.90273e-06
3.46815e-06
3.59796e-06
3.00183e-06
3.75346e-06
3.66303e-06
5.55271e-06
7.57651e-06
3.50751e-06
3.68282e-06
3.68621e-06
7.51136e-06
8.11502e-06
1.18572e-05
4.30845e-06
4.02595e-06
5.53082e-06
4.68797e-06
9.42655e-06
1.09246e-05
3.75796e-06
3.91371e-06
4.87845e-06
4.83937e-06
4.02006e-06
4.73369e-06
5.00567e-06
8.18204e-06
1.1642e-05
4.07262e-06
4.95002e-06
4.87706e-06
1.22709e-05
1.27268e-05
1.65546e-05
5.85864e-06
4.94819e-06
6.95868e-06
6.47495e-06
1.14859e-05
1.58024e-05
5.28168e-06
5.29299e-06
6.37287e-06
6.42032e-06
5.45748e-06
6.56006e-06
6.44429e-06
1.25333e-05
1.63974e-05
5.16148e-06
6.62055e-06
6.47959e-06
1.59802e-05
1.74178e-05
2.24122e-05
7.47056e-06
7.1056e-06
8.95452e-06
8.84697e-06
1.76378e-05
2.40238e-05
6.75416e-06
6.80664e-06
8.35804e-06
8.57327e-06
6.75244e-06
8.88622e-06
9.0704e-06
1.74343e-05
2.24008e-05
6.87148e-06
8.53835e-06
8.73001e-06
2.24911e-05
2.39591e-05
3.04493e-05
9.54678e-06
9.29063e-06
1.15475e-05
1.03388e-05
2.4838e-05
2.81011e-05
9.09812e-06
9.14178e-06
1.10925e-05
1.09172e-05
9.90384e-06
1.02164e-05
1.10435e-05
2.3783e-05
2.96057e-05
9.51864e-06
1.10057e-05
1.09975e-05
3.08243e-05
3.15272e-05
3.50169e-05
1.20318e-05
1.11745e-05
1.35329e-05
1.45517e-05
2.92933e-05
3.73594e-05
1.15634e-05
1.15856e-05
1.32673e-05
1.41324e-05
1.1494e-05
1.45932e-05
1.363e-05
3.09276e-05
3.66668e-05
1.14445e-05
1.41999e-05
1.36069e-05
3.48672e-05
3.63572e-05
4.42621e-05
1.42617e-05
1.5074e-05
1.74661e-05
1.67602e-05
3.94364e-05
4.37217e-05
1.40983e-05
1.4699e-05
1.72615e-05
1.62401e-05
1.44834e-05
1.67256e-05
1.72673e-05
3.78988e-05
4.33032e-05
1.44596e-05
1.67288e-05
1.70826e-05
4.41476e-05
4.6027e-05
5.08003e-05
1.8466e-05
1.78691e-05
2.12358e-05
2.11628e-05
4.44225e-05
5.04419e-05
1.82927e-05
1.76461e-05
2.07301e-05
2.2231e-05
1.82849e-05
2.11262e-05
2.13604e-05
4.48733e-05
5.09058e-05
1.79432e-05
2.19128e-05
2.09718e-05
5.06951e-05
5.18754e-05
5.66101e-05
2.2129e-05
2.21029e-05
2.51912e-05
2.58237e-05
5.25332e-05
5.7298e-05
2.15302e-05
2.267e-05
2.49845e-05
2.30415e-05
2.22788e-05
2.52852e-05
2.51766e-05
5.18791e-05
5.5769e-05
2.19788e-05
2.34081e-05
2.51201e-05
5.69193e-05
5.80165e-05
6.25991e-05
2.64211e-05
2.68247e-05
2.89767e-05
2.84841e-05
5.78165e-05
6.23873e-05
2.61014e-05
2.56169e-05
2.92606e-05
3.53739e-05
2.61472e-05
2.85093e-05
2.97126e-05
5.73284e-05
6.62325e-05
2.61085e-05
3.23249e-05
2.97153e-05
6.29776e-05
6.38386e-05
6.89433e-05
3.01429e-05
3.00267e-05
3.57744e-05
3.82692e-05
6.41618e-05
7.02887e-05
3.0694e-05
3.71158e-05
3.53757e-05
3.75038e-05
3.1338e-05
3.67768e-05
3.43649e-05
6.75475e-05
6.83351e-05
3.12665e-05
3.34756e-05
3.42335e-05
6.8341e-05
7.01094e-05
7.30184e-05
3.68991e-05
4.03249e-05
3.92578e-05
4.12569e-05
7.17988e-05
7.33569e-05
3.64603e-05
3.69482e-05
3.88372e-05
3.7467e-05
3.55166e-05
3.90722e-05
4.06257e-05
6.88327e-05
7.254e-05
3.54607e-05
4.0355e-05
4.04333e-05
7.36316e-05
7.40215e-05
7.80495e-05
4.09131e-05
4.08455e-05
4.57405e-05
4.41818e-05
7.37493e-05
7.71266e-05
4.03691e-05
3.92739e-05
4.59492e-05
4.68809e-05
4.18317e-05
4.4866e-05
4.47965e-05
7.39203e-05
7.81813e-05
4.16328e-05
4.45186e-05
4.50502e-05
7.79296e-05
7.91375e-05
8.22056e-05
4.66008e-05
4.62791e-05
5.111e-05
5.17204e-05
7.86553e-05
8.24323e-05
4.71078e-05
4.96286e-05
5.10944e-05
5.4697e-05
4.66865e-05
5.11572e-05
5.21263e-05
7.94618e-05
8.31416e-05
4.69174e-05
5.23226e-05
5.17234e-05
8.25748e-05
8.32006e-05
8.67496e-05
5.32863e-05
5.31543e-05
5.65818e-05
5.88135e-05
8.34012e-05
8.75587e-05
5.31778e-05
5.47554e-05
5.63158e-05
5.65204e-05
5.30473e-05
5.72686e-05
5.59846e-05
8.38064e-05
8.62506e-05
5.27907e-05
5.59684e-05
5.60074e-05
8.64009e-05
8.76588e-05
9.14678e-05
5.79283e-05
6.10222e-05
6.53976e-05
6.46935e-05
8.86705e-05
9.09519e-05
5.76399e-05
5.91669e-05
6.52917e-05
6.50714e-05
5.83918e-05
6.48748e-05
6.5447e-05
8.74135e-05
9.11129e-05
5.8208e-05
6.48858e-05
6.54445e-05
9.13642e-05
9.22907e-05
9.3577e-05
6.69992e-05
6.47125e-05
6.69723e-05
6.6929e-05
9.13376e-05
9.33114e-05
6.70025e-05
6.51074e-05
6.70546e-05
6.72425e-05
6.59674e-05
6.65472e-05
6.61853e-05
9.16202e-05
9.37978e-05
6.61835e-05
6.74858e-05
6.61638e-05
9.35898e-05
9.412e-05
9.971e-05
6.74728e-05
6.95123e-05
7.77547e-05
7.75874e-05
9.45728e-05
9.95131e-05
6.73267e-05
7.07382e-05
7.73789e-05
7.73843e-05
6.93203e-05
7.76678e-05
7.88629e-05
9.5146e-05
9.9254e-05
6.88068e-05
7.75091e-05
7.83454e-05
9.98252e-05
0.00010054
0.000101304
7.94664e-05
7.83951e-05
7.93718e-05
7.88007e-05
0.000100023
0.000100827
7.8732e-05
7.73197e-05
8.01454e-05
7.93725e-05
8.00133e-05
7.86179e-05
7.90363e-05
9.95983e-05
0.000100887
7.96174e-05
7.82909e-05
7.89306e-05
0.00010109
0.000101743
0.000107103
8.05634e-05
8.07369e-05
8.82563e-05
8.94408e-05
0.000101589
0.000107986
8.12154e-05
8.18595e-05
8.78697e-05
8.92052e-05
7.92563e-05
8.9643e-05
8.93455e-05
0.00010205
0.000107772
8.00811e-05
9.02456e-05
8.90834e-05
0.000106762
0.000108297
0.000110385
9.06704e-05
9.17958e-05
9.46095e-05
9.36928e-05
0.000108968
0.000109513
9.05106e-05
9.1178e-05
9.34219e-05
9.26184e-05
9.06438e-05
9.387e-05
8.94461e-05
0.000108413
0.000108853
8.97904e-05
9.22356e-05
8.8041e-05
0.000105643
0.000110774
0.000113128
9.54433e-05
9.32298e-05
9.83788e-05
9.70283e-05
0.000109468
0.000112992
9.439e-05
9.22522e-05
9.84822e-05
9.85046e-05
9.19365e-05
9.5836e-05
0.000108718
0.000109005
0.000114107
9.10708e-05
9.81368e-05
0.000109015
0.000125374
0.000113855
0.000117669
9.95233e-05
0.000100957
0.000104278
0.000108298
0.000114996
0.000119619
9.94173e-05
0.000102449
0.000105158
0.000108462
0.000109614
0.00010929
0.000105354
0.000116061
0.000119464
0.000109846
0.000109196
0.000105011
0.000111047
0.00011864
0.000120833
0.000106438
0.000108508
0.000110225
0.000106472
0.000119598
0.00011756
0.000107363
0.000108348
0.000109744
0.000106057
0.000102703
0.000107239
9.7957e-05
0.000119346
0.000117247
0.00010224
0.000106534
9.74988e-05
0.0001124
0.00012102
0.00012361
0.00011004
0.000105648
0.000113215
0.000116455
0.000117757
0.000126657
0.000109745
0.000106316
0.000112824
0.000114458
9.82773e-05
0.00011414
0.000117857
0.000117805
0.000126044
9.80306e-05
0.000114658
0.000117775
0.000130247
0.000124981
0.000130531
0.000116434
0.000120012
0.000123839
0.00012297
0.000128392
0.000129508
0.000115639
0.000116949
0.000123623
0.00012317
0.000122374
0.000124166
0.000129457
0.000127358
0.000129742
0.000122184
0.000123812
0.000129932
0.000134562
0.000130765
0.00012986
0.000124372
0.000122527
0.000123142
0.000120608
0.000129269
0.000129038
0.000124602
0.000123905
0.000123912
0.000123128
0.000130206
0.000122233
0.000129726
0.000129817
0.000129407
0.000131096
0.00012195
0.000131271
0.000135171
0.000129789
0.000136145
0.000122509
0.000122224
0.000130754
0.0001329
0.00013016
0.00013718
0.000123315
0.000122926
0.000130189
0.000131025
0.000129076
0.000131713
0.000127024
0.000129768
0.000136655
0.000130671
0.000131889
0.000127914
0.000132198
0.000137288
0.000137432
0.000133317
0.000133995
0.000134842
0.000133262
0.000137457
0.000135875
0.000132697
0.000133225
0.000134262
0.000134259
0.000127713
0.00013334
0.000128087
0.000137376
0.000136604
0.000127328
0.000133676
0.000125521
0.000131453
0.000137173
0.000140037
0.00013438
0.000132575
0.00013451
0.000133501
0.000135554
0.000139603
0.000133815
0.000133727
0.000135512
0.000132972
0.000128116
0.000133309
0.00013541
0.000136284
0.000138555
0.000124986
0.000131548
0.000133954
0.000140148
0.000141836
0.000144971
0.000138112
0.000138215
0.000144517
0.000146434
0.000141927
0.000146841
0.000139101
0.000136996
0.000144825
0.000147027
0.000139404
0.000146859
0.000149804
0.000140637
0.000147833
0.000138936
0.000147634
0.000151475
0.00015087
0.000144894
0.000146659
0.000144765
0.000147101
0.00014662
0.000146628
0.000146879
0.000146185
0.000145023
0.000148112
0.000145652
0.000147734
0.000151316
0.000147467
0.00015142
0.000148011
0.000146528
0.000153472
0.00014966
0.000154138
0.000149795
0.000147994
0.000151511
0.000148572
0.000146663
0.000153055
0.000152248
0.000146438
0.000150256
0.000147652
0.000147212
0.00015318
0.000148202
0.000150348
0.000150437
0.000147014
0.000146271
0.000148469
0.000153392
0.000148208
0.000148876
0.000145812
0.000151434
0.000149583
0.000153361
0.000153177
0.000152414
0.000152758
0.000150439
0.00014961
0.00015397
0.000151477
0.000153717
0.00015677
0.000146219
0.000151105
0.000153448
0.000149817
0.00015342
0.000148121
0.000155396
0.000150767
0.000152144
0.00014931
0.000153372
0.00015186
0.000152181
0.000155036
0.000154982
0.000149508
0.000155218
0.000153267
0.000157054
0.000153764
0.000156221
0.000156487
0.000158695
0.000160277
0.000153444
0.000152689
0.000154958
0.000156351
0.000160528
0.000156301
0.000155248
0.000162713
0.000159053
0.000159069
0.000168394
0.000166533
0.000157007
0.000160469
0.000156817
0.00015594
0.000166376
0.000162323
0.000160366
0.00016617
0.000160316
0.000152879
0.000159144
0.000160637
0.000162937
0.000159765
0.000155506
0.000163202
0.000161725
0.000169706
0.000167565
0.000170015
0.000168241
0.000160452
0.000160034
0.000168424
0.000164921
0.000169763
0.000168738
0.000161906
0.000165405
0.00016776
0.000160226
0.000161523
0.000160789
0.000169037
0.000169837
0.000163096
0.000161241
0.000158158
0.000169001
0.000167991
0.00016555
0.000166858
0.000160071
0.00016053
0.000169354
0.000168871
0.000167135
0.000168282
0.000169464
0.000167414
0.000172165
0.000161366
0.00016092
0.000171351
0.000168266
0.000172216
0.000164552
0.000158148
0.000165068
0.000164937
0.000166409
0.000168539
0.000170084
0.000160639
0.000165878
0.000166595
0.000168401
0.00017108
0.000174473
0.000172163
0.000174141
0.000171098
0.00016145
0.000167814
0.000171887
0.000174312
0.000170157
0.000162356
0.000166828
0.000170059
0.000172612
0.000173706
0.000180228
0.000180173
0.000167199
0.000169372
0.000174372
0.000176522
0.000179725
0.000178628
0.000170573
0.000178146
0.000173364
0.000168519
0.000168084
0.000169712
0.000177938
0.000172029
0.000164871
0.000169992
0.000169384
0.000181141
0.000180735
0.000181444
0.000180467
0.000169255
0.000168306
0.000180104
0.000178441
0.000179632
0.000177234
0.00017607
0.000177084
0.000182851
0.000167825
0.000166587
0.000174284
0.000176312
0.00018274
0.000173568
0.000169335
0.000172121
0.000181277
0.000180232
0.0001823
0.000181862
0.000168498
0.000172813
0.00017932
0.000176835
0.000180367
0.000181269
0.00018444
0.000184066
0.000186052
0.000166966
0.00017342
0.000185181
0.000184151
0.000188037
0.000175621
0.000172983
0.000175188
0.000183895
0.000183703
0.000186806
0.000186049
0.000173389
0.000173728
0.000182928
0.000183994
0.000188339
0.000188853
0.000185959
0.00018627
0.000183693
0.000174442
0.000175731
0.000188111
0.000188334
0.000185119
0.000171144
0.000175241
0.000176518
0.000186999
0.000186
0.000187677
0.000187498
0.000173491
0.000176128
0.000189159
0.000189367
0.000190343
0.000189439
0.000183119
0.000187308
0.000183969
0.000175587
0.000175128
0.000184052
0.000187218
0.000182429
0.000172441
0.000176974
0.000178808
0.0001887
0.000189028
0.000192667
0.000193629
0.00017714
0.000179927
0.000190726
0.000189474
0.000192086
0.000192991
0.000187074
0.000193627
0.000193758
0.000175357
0.000179811
0.000182581
0.000191163
0.000191044
0.000179867
0.000178807
0.000178197
0.000193576
0.000194782
0.000194266
0.000196151
0.000180065
0.000180681
0.000192296
0.000193928
0.000191997
0.000194213
0.000194968
0.000195219
0.000196585
0.000180393
0.000180036
0.000193695
0.000196306
0.000198489
0.000182147
0.000177975
0.000178481
0.000194171
0.000196132
0.000193536
0.000195106
0.000180591
0.000179687
0.000191749
0.000193411
0.000191057
0.000191644
0.000196665
0.00019487
0.000196401
0.000179643
0.000177542
0.000198983
0.000195395
0.000198628
0.000181828
0.000179238
0.000188074
0.000193631
0.000194763
0.000202482
0.000199915
0.00017934
0.000185608
0.000192148
0.000191129
0.000203859
0.000203105
0.000196207
0.000200974
0.000199699
0.000177566
0.000187874
0.000198207
0.000200364
0.000197668
0.000183615
0.000189025
0.000189563
0.000204487
0.000201936
0.00020616
0.000202954
0.000186438
0.000185437
0.000206723
0.000207314
0.000209716
0.000211729
0.000201909
0.000204293
0.000204852
0.000189626
0.000193327
0.00019983
0.000208099
0.000204533
0.000188396
0.000188009
0.000179665
0.00020463
0.000200919
0.000198483
0.000197639
0.00018383
0.000178747
0.000209423
0.000211841
0.00019801
0.000196388
0.000205323
0.000198481
0.000200367
0.000191477
0.000177364
0.000205055
0.00019798
0.000200346
0.000181636
0.00017901
0.000186908
0.00019781
0.000196949
0.000204429
0.000212736
0.000178622
0.000195657
0.000196706
0.000194061
0.000196441
0.000191788
0.000199511
0.000207969
0.000199225
0.000176306
0.000180657
0.000199277
0.00019441
0.000198272
0.000184876
0.000189606
0.000198718
0.000209959
0.000217411
0.000217834
0.000221988
0.000197774
0.000200706
0.000203397
0.000198769
0.000218025
0.0002211
0.000204457
0.000219082
0.000216069
0.000184237
0.000202314
0.000203229
0.000219622
0.00021649
0.000197623
0.000198803
0.000192974
0.000218841
0.000221351
0.000213367
0.000204501
0.000198544
0.000183565
0.000219503
0.000223815
0.000219834
0.000226847
0.000217192
0.000208559
0.000217339
0.000203118
0.000200607
0.000217862
0.000224566
0.000218743
0.000194086
0.000191028
0.000183335
0.000209507
0.000200643
0.00020208
0.000196441
0.000181733
0.00017864
0.000215696
0.000222197
0.000204697
0.000203468
0.000213358
0.000200197
0.000204499
0.000197547
0.000181652
0.000214781
0.000203812
0.000204649
0.000183674
0.000182711
0.000185487
0.000201317
0.00019611
0.000202977
0.000212108
0.000179644
0.000195034
0.000202924
0.000199984
0.00020058
0.000195838
0.000203561
0.000210632
0.000203477
0.000180168
0.000178938
0.000203402
0.000197306
0.000202084
0.000187366
0.000187599
0.000203322
0.000208775
0.000218683
0.000226307
0.000231743
0.000197637
0.000208087
0.000202127
0.000196589
0.000222148
0.000221294
0.000209005
0.000228628
0.000224023
0.000181101
0.000202621
0.000206423
0.000221739
0.000223329
0.000202823
0.000204956
0.000209035
0.000229824
0.00023312
0.000234357
0.000233086
0.000208301
0.000203466
0.000227158
0.00022808
0.000233376
0.000236509
0.00022635
0.000230562
0.000229116
0.000205173
0.000212365
0.00022633
0.000234849
0.00022991
0.000203544
0.000206934
0.000191026
0.000233559
0.000226933
0.000214845
0.000210692
0.000200568
0.000187575
0.00023432
0.000237886
0.000218888
0.00022169
0.000227579
0.000212622
0.000217112
0.000210708
0.000193927
0.000229413
0.000220363
0.000218311
0.000193051
0.000188816
0.000184659
0.000210453
0.000207866
0.000205804
0.00020516
0.000186428
0.000186327
0.000213492
0.000215349
0.000207188
0.000207282
0.000214677
0.00020759
0.00021175
0.00019122
0.000185323
0.000215368
0.000208492
0.000211536
0.000190061
0.000185422
0.000199189
0.000205474
0.000206397
0.000220441
0.00022241
0.000187948
0.000200791
0.000206195
0.000206192
0.000217655
0.00021467
0.000211224
0.000221544
0.000216328
0.000185321
0.000196061
0.000210906
0.00021613
0.000215351
0.000194748
0.000200906
0.000205715
0.000224967
0.000226168
0.000230848
0.000230783
0.000202024
0.00020517
0.000222691
0.000219491
0.000229694
0.000227336
0.000218916
0.000229304
0.000226194
0.000197668
0.000202573
0.00021819
0.000226774
0.000225845
0.000201544
0.000205396
0.000201291
0.000231579
0.000231337
0.000227863
0.000228017
0.000204797
0.000201841
0.000230505
0.000228316
0.000228377
0.000228872
0.000228176
0.000228431
0.000231446
0.000202579
0.000202736
0.000228016
0.000228923
0.000231791
0.000206714
0.000200659
0.000198988
0.000226164
0.000226753
0.000223282
0.000223052
0.000201405
0.000198593
0.00022687
0.000228363
0.000224466
0.000227445
0.000232063
0.000224639
0.000227987
0.000202577
0.000202579
0.000232451
0.000228891
0.00022949
0.000201643
0.00019876
0.000197272
0.000222676
0.000221627
0.000220893
0.000218738
0.000197706
0.000194352
0.000224174
0.000227008
0.000222791
0.000224542
0.000224575
0.000218817
0.000218079
0.000202044
0.000198381
0.000225802
0.000222592
0.000218221
0.00019307
0.000196923
0.000196691
0.0002206
0.000218571
0.00022085
0.000220867
0.000193959
0.000197896
0.00022215
0.000223426
0.000221216
0.000220671
0.000217629
0.000220175
0.000219519
0.000197768
0.000196059
0.000217537
0.000219985
0.000218026
0.000197043
0.000197037
0.00020128
0.000222384
0.000224102
0.000227637
0.000230192
0.000199198
0.000204966
0.000221215
0.000220364
0.000224775
0.000220742
0.000223373
0.000230335
0.000229677
0.000195797
0.000198015
0.000221642
0.000223969
0.000228997
0.000204502
0.000201718
0.000202993
0.000228532
0.00023099
0.000229987
0.00023094
0.000205094
0.000202533
0.000226526
0.000222739
0.000229458
0.000228321
0.000230451
0.000230378
0.000228544
0.00019862
0.000202054
0.000229845
0.000228649
0.000229684
0.000201141
0.000202722
0.000202285
0.000229368
0.000228389
0.000227723
0.00022447
0.000201163
0.000197657
0.000229822
0.000230138
0.000230647
0.000234212
0.000226526
0.00022402
0.000224619
0.000202569
0.000206688
0.000227927
0.000232044
0.000226139
0.000198446
0.000202221
0.000203471
0.000227749
0.00022436
0.000228933
0.000228194
0.000197293
0.000203232
0.000230734
0.000234884
0.00023086
0.000235744
0.000224696
0.000228863
0.000231044
0.00020707
0.000207189
0.000226275
0.000234337
0.000230793
0.000205669
0.000203349
0.00020118
0.000229329
0.000229849
0.000230416
0.000232881
0.000203974
0.000205913
0.000230585
0.000233182
0.00022678
0.000222135
0.000232193
0.00023377
0.000233938
0.000205765
0.000195491
0.000231646
0.000223698
0.000231883
0.000203671
0.000199706
0.000195027
0.000227872
0.000231844
0.00022312
0.000224297
0.00020416
0.000195929
0.00022415
0.000218661
0.000220683
0.000215502
0.000229415
0.000223754
0.000220562
0.000193315
0.00018982
0.000227054
0.000216728
0.000219805
0.000192529
0.000196897
0.000221022
0.000221731
0.000197539
0.000219195
0.000214519
0.000246269
0.000236212
0.000241609
0.000218436
0.000191674
0.000218004
2.17144e-06
2.08458e-06
1.03224e-06
1.07987e-06
1.34165e-06
1.97646e-06
5.10668e-07
1.24211e-06
1.19657e-06
2.33463e-06
1.39356e-06
1.74555e-06
2.31835e-06
2.03832e-06
1.8251e-06
1.03341e-06
1.49631e-05
9.55956e-07
1.6638e-05
1.07093e-05
1.29278e-05
1.31856e-06
1.33213e-05
1.25371e-06
1.50666e-05
1.57751e-06
1.63712e-06
1.67818e-06
1.73095e-06
1.59922e-06
1.65912e-06
1.7053e-06
1.36264e-06
3.18427e-07
1.58819e-06
1.77953e-06
1.35757e-06
4.23834e-07
1.59414e-06
1.09077e-05
1.31507e-05
1.22105e-06
1.76611e-06
5.39405e-07
2.15496e-06
1.20535e-06
1.7709e-06
6.59079e-07
1.45893e-06
1.51831e-06
2.2975e-06
1.6702e-06
1.71594e-06
1.28314e-06
1.97297e-05
1.20178e-06
2.2373e-05
1.697e-05
1.91716e-05
1.51186e-06
1.82573e-05
1.45122e-06
2.0671e-05
1.59763e-06
1.65383e-06
1.70462e-06
1.73915e-06