/*--------------------------------*- C++ -*----------------------------------*\
| =========                 |                                                 |
| \\      /  F ield         | OpenFOAM: The Open Source CFD Toolbox           |
|  \\    /   O peration     | Version:  v2012                                 |
|   \\  /    A nd           | Website:  www.openfoam.com                      |
|    \\/     M anipulation  |                                                 |
\*---------------------------------------------------------------------------*/
FoamFile
{
    version     2.0;
    format      ascii;
    class       volScalarField;
    location    "1550";
    object      p;
}
// * * * * * * * * * * * * * * * * * * * * * * * * * * * * * * * * * * * * * //

dimensions      [0 2 -2 0 0 0 0];


internalField   nonuniform List<scalar> 
171728
(
0.00351892
0.00351782
0.00351783
0.00351854
0.00348344
0.00348202
0.00348189
0.0034848
0.00344493
0.00344306
0.00344297
0.00344538
0.00340087
0.00339919
0.00339911
0.00340142
0.00335284
0.00335138
0.00335137
0.00335372
0.003304
0.00330268
0.0033027
0.00330506
0.00325574
0.00325456
0.00325455
0.00325694
0.00320842
0.00320736
0.00320734
0.00320974
0.00316209
0.00316117
0.00316116
0.00316357
0.00311675
0.00311596
0.00311595
0.00311834
0.00307231
0.00307165
0.00307164
0.00307402
0.00302864
0.00302807
0.00302808
0.00303043
0.00298554
0.00298508
0.00298505
0.00298738
0.00294284
0.00294243
0.00294249
0.0029448
0.00290049
0.00290005
0.0029002
0.00290254
0.00285848
0.00285819
0.0028582
0.00286056
0.00281678
0.00281666
0.00281661
0.00281915
0.00277538
0.00277512
0.00277527
0.0027773
0.00273438
0.00273428
0.00273439
0.00273651
0.00269376
0.00269388
0.00269378
0.0026956
0.00265346
0.00265365
0.00265364
0.00265558
0.00261344
0.00261351
0.00261357
0.00261515
0.00257373
0.00257393
0.00257395
0.00257555
0.0025343
0.00253472
0.00253456
0.00253628
0.0024951
0.00249541
0.00249541
0.00249708
0.00245612
0.00245645
0.00245649
0.00245816
0.00241739
0.00241785
0.00241784
0.00241958
0.00237885
0.00237935
0.00237941
0.00238131
0.00234055
0.00234115
0.00234112
0.00234278
0.00230238
0.00230299
0.002303
0.00230492
0.00226443
0.0022651
0.00226503
0.00226696
0.00222665
0.00222727
0.0022273
0.00222919
0.00218901
0.00218967
0.00218971
0.00219152
0.0021515
0.00215224
0.00215209
0.002154
0.00211403
0.00211465
0.00211473
0.00211658
0.00207685
0.00207744
0.00207742
0.00207928
0.00203971
0.00204032
0.00204033
0.00204217
0.00200276
0.00200329
0.00200325
0.0020052
0.00196593
0.00196629
0.00196634
0.00196821
0.00192907
0.00192948
0.0019295
0.00193152
0.00189263
0.00189291
0.00189285
0.00189478
0.00185604
0.00185625
0.0018563
0.00185837
0.00181979
0.00182005
0.00182001
0.0018219
0.00178363
0.00178349
0.00178349
0.00178577
0.0017475
0.00174783
0.00174791
0.00175008
0.00171151
0.00171126
0.00171117
0.00171272
0.00167555
0.00167535
0.00167541
0.00167818
0.00163995
0.0016404
0.0016404
0.00164232
0.00160489
0.00160406
0.00160411
0.00160594
0.00156893
0.00156889
0.00156891
0.00157104
0.00153328
0.00153338
0.00153337
0.00153526
0.00149812
0.00149745
0.00149735
0.00149972
0.00146266
0.00146272
0.00146282
0.00146485
0.001428
0.00142779
0.00142792
0.00142974
0.00139327
0.00139263
0.00139239
0.00139437
0.00135779
0.00135772
0.00135767
0.00135958
0.00132253
0.00132235
0.00132268
0.00132483
0.00128801
0.00128794
0.00128765
0.00128964
0.0012535
0.00125284
0.00125304
0.00125476
0.0012185
0.00121821
0.00121836
0.00122038
0.0011839
0.00118401
0.00118377
0.00118571
0.00114927
0.00114907
0.0011492
0.0011509
0.00111481
0.00111411
0.00111411
0.00111618
0.00107999
0.00108003
0.00108001
0.00108205
0.00104553
0.00104574
0.00104579
0.00104747
0.0010113
0.00101063
0.0010107
0.00101244
0.000976634
0.000976487
0.000976298
0.000978401
0.000941902
0.000941989
0.000942106
0.000944146
0.000907379
0.00090711
0.000907202
0.000909057
0.00087289
0.000872705
0.000872603
0.000874512
0.00083916
0.000838952
0.000838931
0.000840649
0.000804109
0.000803809
0.000804033
0.000806032
0.000768315
0.000768492
0.000768124
0.000770329
0.000735322
0.000735645
0.000735196
0.000737141
0.000701612
0.000700669
0.000701704
0.000703165
0.000665358
0.000664953
0.00066506
0.000667019
0.000629868
0.000630575
0.000629722
0.00063214
0.000596282
0.000596719
0.000596461
0.000598513
0.0005634
0.000562447
0.00056327
0.000564644
0.000527731
0.000527091
0.000527272
0.000529044
0.000490867
0.000491342
0.000490868
0.00049334
0.00045645
0.000456977
0.00045675
0.000458892
0.000422974
0.000422858
0.000422956
0.000424687
0.000387835
0.000387251
0.000387485
0.000389376
0.000351936
0.000351897
0.000351916
0.000353953
0.000317009
0.00031704
0.000316995
0.00031887
0.000281765
0.000281736
0.000281664
0.000283727
0.000246127
0.000246396
0.000246266
0.000248504
0.000210876
0.00021075
0.00021079
0.000212741
0.000175474
0.000175057
0.000175288
0.000176998
0.000140139
0.000140103
0.000140157
0.000142115
0.000104818
0.000105152
0.000104782
0.000107125
6.85058e-05
6.84143e-05
6.83116e-05
7.03704e-05
3.24884e-05
3.17196e-05
3.2171e-05
3.3748e-05
5.18322e-06
6.17855e-06
6.34914e-06
4.47208e-06
0.00352331
0.00352087
0.00352077
0.00352321
0.00352083
0.00352095
0.00352726
0.0035272
0.00352725
0.00352722
0.00352073
0.00352085
0.00352336
0.00352087
0.00352093
0.0035233
0.00351856
0.00348958
0.00351785
0.0035178
0.00349142
0.00349145
0.00351848
0.0034896
0.00351786
0.00351788
0.00349134
0.00349142
0.00351782
0.00349139
0.00349138
0.00351854
0.00348957
0.00351781
0.00349148
0.00349147
0.00348957
0.00348483
0.00345089
0.00348199
0.00348192
0.00345303
0.00345313
0.00348482
0.00345088
0.00348204
0.00348204
0.00345306
0.00345318
0.003482
0.00345315
0.00345319
0.0034848
0.00345088
0.00348186
0.00345323
0.00345332
0.00345092
0.00344538
0.00340758
0.003443
0.00344306
0.00341064
0.00341059
0.00344536
0.0034076
0.00344305
0.00344306
0.00341064
0.00341058
0.00344307
0.00341062
0.00341063
0.00344535
0.00340756
0.00344302
0.00341067
0.00341066
0.00340759
0.00340141
0.00336014
0.00339915
0.0033992
0.00336348
0.00336347
0.00340142
0.00336016
0.00339917
0.00339923
0.00336352
0.00336346
0.00339919
0.00336353
0.00336354
0.00340139
0.00336015
0.00339917
0.00336349
0.00336352
0.00336017
0.00335368
0.00331148
0.00335141
0.00335142
0.00331483
0.00331486
0.0033537
0.00331149
0.00335135
0.00335139
0.00331487
0.00331483
0.00335135
0.00331486
0.00331486
0.00335369
0.00331148
0.00335141
0.00331481
0.00331482
0.0033115
0.00330503
0.00326323
0.0033027
0.00330267
0.00326652
0.00326652
0.00330503
0.00326322
0.00330269
0.00330268
0.0032665
0.00326645
0.00330267
0.0032665
0.00326652
0.00330504
0.00326325
0.0033027
0.00326649
0.00326654
0.00326326
0.00325691
0.00321591
0.00325457
0.00325455
0.00321907
0.00321906
0.0032569
0.00321591
0.00325457
0.00325453
0.00321906
0.00321904
0.0032546
0.00321908
0.00321909
0.00325692
0.00321591
0.00325457
0.00321908
0.00321909
0.00321592
0.00320973
0.00316958
0.00320739
0.00320736
0.00317264
0.00317265
0.00320972
0.00316958
0.00320739
0.00320734
0.00317263
0.00317261
0.00320737
0.00317265
0.00317267
0.00320972
0.00316961
0.00320737
0.00317263
0.00317266
0.00316961
0.00316354
0.00312423
0.00316119
0.00316116
0.00312719
0.0031272
0.00316353
0.00312423
0.00316119
0.00316115
0.00312718
0.00312717
0.00316121
0.00312719
0.00312721
0.00316356
0.00312424
0.00316122
0.00312717
0.00312722
0.00312427
0.00311831
0.00307978
0.00311596
0.00311594
0.00308264
0.00308265
0.0031183
0.00307976
0.00311596
0.00311596
0.00308265
0.00308265
0.00311597
0.00308263
0.00308265
0.00311833
0.00307978
0.00311596
0.00308264
0.00308265
0.0030798
0.00307399
0.0030361
0.00307165
0.00307164
0.00303891
0.00303887
0.00307399
0.0030361
0.00307164
0.00307164
0.00303891
0.00303891
0.00307165
0.00303887
0.00303892
0.00307399
0.00303611
0.00307166
0.00303891
0.00303891
0.00303609
0.00303042
0.00299302
0.00302807
0.00302806
0.00299579
0.00299577
0.00303044
0.00299301
0.00302808
0.00302809
0.00299579
0.00299583
0.00302807
0.00299579
0.00299582
0.00303041
0.002993
0.0030281
0.00299584
0.00299583
0.00299298
0.00298743
0.00295036
0.00298511
0.00298508
0.00295313
0.00295309
0.00298744
0.00295032
0.0029851
0.00298506
0.00295313
0.00295314
0.00298504
0.00295309
0.00295315
0.00298739
0.00295033
0.00298503
0.00295314
0.00295309
0.00295033
0.00294482
0.00290805
0.00294248
0.00294242
0.00291073
0.00291083
0.00294479
0.00290798
0.00294251
0.00294249
0.00291073
0.00291075
0.00294242
0.00291083
0.00291088
0.00294479
0.00290802
0.00294244
0.00291072
0.00291079
0.00290803
0.00290258
0.002866
0.00290028
0.00290006
0.0028687
0.00286883
0.00290247
0.00286599
0.00290027
0.00290019
0.00286872
0.0028687
0.00290018
0.00286885
0.00286887
0.00290254
0.00286597
0.00290019
0.00286869
0.0028688
0.00286595
0.00286059
0.00282423
0.00285834
0.00285821
0.00282702
0.00282696
0.00286054
0.00282425
0.00285834
0.00285819
0.00282704
0.00282691
0.00285835
0.00282698
0.00282711
0.00286054
0.00282419
0.00285838
0.00282692
0.00282704
0.00282443
0.00281886
0.00278274
0.00281662
0.00281666
0.00278568
0.00278545
0.0028189
0.00278265
0.00281663
0.00281657
0.0027857
0.0027855
0.00281694
0.00278546
0.00278549
0.00281884
0.00278276
0.00281696
0.00278548
0.00278543
0.00278259
0.0027774
0.00274167
0.00277523
0.00277513
0.00274462
0.00274461
0.00277732
0.00274151
0.00277523
0.00277529
0.00274462
0.00274457
0.00277526
0.00274463
0.00274454
0.00277747
0.00274168
0.00277524
0.00274452
0.00274443
0.00274171
0.00273643
0.00270091
0.00273434
0.00273426
0.00270394
0.00270406
0.00273629
0.00270091
0.00273436
0.00273439
0.00270393
0.00270394
0.0027344
0.00270405
0.00270397
0.00273646
0.00270098
0.0027344
0.00270397
0.00270392
0.00270082
0.00269574
0.00266045
0.00269375
0.00269388
0.00266361
0.00266359
0.00269578
0.00266049
0.00269378
0.0026938
0.00266363
0.00266355
0.00269373
0.0026636
0.00266374
0.00269576
0.00266049
0.00269364
0.0026636
0.00266379
0.00266063
0.00265533
0.00262033
0.00265352
0.00265364
0.00262356
0.00262343
0.00265538
0.00262041
0.00265355
0.0026536
0.00262356
0.00262356
0.00265376
0.00262342
0.00262345
0.00265537
0.00262029
0.00265384
0.00262354
0.00262335
0.00262038
0.00261526
0.00258057
0.00261364
0.00261351
0.00258382
0.00258392
0.00261516
0.00258055
0.00261366
0.00261365
0.00258381
0.00258385
0.00261344
0.00258394
0.00258391
0.00261523
0.00258059
0.00261338
0.00258385
0.00258386
0.00258056
0.00257552
0.00254118
0.00257394
0.00257391
0.00254446
0.00254442
0.00257551
0.00254118
0.00257398
0.00257395
0.00254444
0.00254449
0.00257397
0.00254445
0.0025445
0.00257558
0.00254121
0.00257393
0.00254449
0.00254452
0.00254122
0.00253619
0.00250201
0.00253461
0.00253472
0.00250522
0.00250517
0.00253636
0.00250203
0.0025346
0.00253457
0.00250523
0.00250523
0.00253471
0.00250518
0.00250515
0.00253623
0.00250203
0.00253468
0.00250525
0.0025052
0.00250193
0.00249709
0.00246316
0.00249547
0.00249541
0.00246622
0.00246618
0.00249701
0.00246308
0.00249547
0.00249541
0.00246625
0.00246627
0.0024955
0.00246618
0.00246618
0.00249708
0.00246317
0.00249554
0.00246629
0.00246619
0.00246313
0.00245822
0.00242444
0.00245651
0.00245644
0.00242749
0.00242758
0.0024581
0.00242471
0.00245654
0.00245649
0.00242749
0.00242753
0.0024565
0.00242758
0.0024275
0.00245819
0.00242446
0.00245651
0.00242755
0.0024275
0.00242452
0.00241951
0.00238616
0.00241786
0.00241785
0.00238897
0.00238898
0.00241975
0.00238597
0.00241785
0.00241783
0.00238898
0.00238902
0.00241784
0.00238899
0.002389
0.00241953
0.00238612
0.00241785
0.00238903
0.00238899
0.00238619
0.00238125
0.0023478
0.00237935
0.00237935
0.00235065
0.00235069
0.00238103
0.00234782
0.00237938
0.00237938
0.00235068
0.00235065
0.00237939
0.00235071
0.00235062
0.0023812
0.00234786
0.00237938
0.00235065
0.00235064
0.00234772
0.00234286
0.00230975
0.0023411
0.00234113
0.00231252
0.00231248
0.00234294
0.00230991
0.00234111
0.00234112
0.00231252
0.00231244
0.0023411
0.00231249
0.00231253
0.00234294
0.00230978
0.0023411
0.00231247
0.00231251
0.00230981
0.00230488
0.0022719
0.00230301
0.00230298
0.00227452
0.00227453
0.002305
0.00227172
0.00230301
0.00230299
0.00227453
0.00227451
0.00230299
0.00227454
0.00227454
0.00230491
0.00227183
0.00230298
0.00227451
0.00227453
0.00227186
0.00226699
0.00223402
0.00226506
0.0022651
0.00223674
0.00223673
0.00226684
0.00223418
0.00226506
0.002265
0.00223675
0.00223667
0.00226508
0.00223674
0.00223673
0.0022669
0.00223407
0.00226508
0.0022367
0.00223674
0.00223407
0.00222912
0.00219645
0.0022273
0.00222726
0.00219908
0.00219904
0.00222926
0.00219628
0.00222732
0.00222729
0.0021991
0.0021992
0.0022273
0.00219904
0.00219907
0.00222921
0.00219644
0.00222731
0.00219913
0.00219908
0.00219641
0.00219156
0.00215893
0.00218969
0.00218966
0.00216157
0.00216162
0.00219143
0.00215901
0.00218972
0.00218977
0.00216159
0.00216143
0.00218967
0.00216161
0.00216156
0.00219154
0.00215896
0.00218968
0.00216148
0.00216155
0.0021589
0.00215403
0.00212144
0.00215221
0.00215227
0.00212407
0.00212402
0.00215407
0.00212145
0.0021522
0.002152
0.00212401
0.00212393
0.00215217
0.00212403
0.00212407
0.00215405
0.00212139
0.00215215
0.00212408
0.00212406
0.00212147
0.00211655
0.00208414
0.0021147
0.00211461
0.00208671
0.00208664
0.00211658
0.00208415
0.00211464
0.00211463
0.00208674
0.00208681
0.00211474
0.00208672
0.0020867
0.00211651
0.00208423
0.00211473
0.00208671
0.00208672
0.00208415
0.00207926
0.00204709
0.00207741
0.0020774
0.00204958
0.00204964
0.00207927
0.00204707
0.00207746
0.00207752
0.00204962
0.00204959
0.0020774
0.0020496
0.00204961
0.00207935
0.00204704
0.00207742
0.00204962
0.00204959
0.00204706
0.00204223
0.00201001
0.00204032
0.00204035
0.00201253
0.00201254
0.0020422
0.00201008
0.00204034
0.00204028
0.00201251
0.00201245
0.00204032
0.00201253
0.00201249
0.00204217
0.00201005
0.0020403
0.00201248
0.0020125
0.00201005
0.00200516
0.00197314
0.00200328
0.00200329
0.00197557
0.00197552
0.00200522
0.00197307
0.00200325
0.00200323
0.00197558
0.00197558
0.00200325
0.00197555
0.00197558
0.0020052
0.0019731
0.00200327
0.00197558
0.00197556
0.0019731
0.00196825
0.00193626
0.00196634
0.00196626
0.00193863
0.00193866
0.00196819
0.00193636
0.00196635
0.00196633
0.00193862
0.00193866
0.00196633
0.00193864
0.00193863
0.00196822
0.00193636
0.00196632
0.00193866
0.00193865
0.00193633
0.00193144
0.00189977
0.00192943
0.0019295
0.00190208
0.00190206
0.00193153
0.00189969
0.00192943
0.0019295
0.00190208
0.00190204
0.00192948
0.00190208
0.00190207
0.00193152
0.00189963
0.00192948
0.00190203
0.00190205
0.00189967
0.0018949
0.0018631
0.00189296
0.00189289
0.00186537
0.00186538
0.00189483
0.00186313
0.00189295
0.00189285
0.00186538
0.0018654
0.00189285
0.00186537
0.00186534
0.00189478
0.0018632
0.00189286
0.00186541
0.00186539
0.00186315
0.0018583
0.00182684
0.00185624
0.00185627
0.00182906
0.0018291
0.00185834
0.00182687
0.00185624
0.00185633
0.00182904
0.00182907
0.00185631
0.00182911
0.00182911
0.00185839
0.00182682
0.00185634
0.00182912
0.00182906
0.00182684
0.00182204
0.00179047
0.00182002
0.00182001
0.00179272
0.00179262
0.00182202
0.00179037
0.00182002
0.00181995
0.00179271
0.00179263
0.00181987
0.00179258
0.00179246
0.00182198
0.00179037
0.00181981
0.00179254
0.0017925
0.00179038
0.00178564
0.00175441
0.0017836
0.00178354
0.00175652
0.00175663
0.00178558
0.00175461
0.00178357
0.00178356
0.00175656
0.00175668
0.00178369
0.00175671
0.00175734
0.00178559
0.00175467
0.00178377
0.00175679
0.00175741
0.00175514
0.00174963
0.00171845
0.00174755
0.00174773
0.00172059
0.00172058
0.00174987
0.00171824
0.00174757
0.00174778
0.00172058
0.00172051
0.00174808
0.00172056
0.00171957
0.00174992
0.00171819
0.00174806
0.00172046
0.00171948
0.00171752
0.00171364
0.00168223
0.00171158
0.00171131
0.00168442
0.00168419
0.00171332
0.00168217
0.0017116
0.00171128
0.00168435
0.00168426
0.00171046
0.0016841
0.00168511
0.00171329
0.0016822
0.00171039
0.00168416
0.00168502
0.0016829
0.00167743
0.00164678
0.00167536
0.00167538
0.00164873
0.00164909
0.00167749
0.00164716
0.00167532
0.00167544
0.00164878
0.00164906
0.00167638
0.00164923
0.00164941
0.00167752
0.00164717
0.00167643
0.00164927
0.00164938
0.0016473
0.00164211
0.00161135
0.00164002
0.00164024
0.00161357
0.00161319
0.00164242
0.00161097
0.00164003
0.00164017
0.00161355
0.00161329
0.00164012
0.00161317
0.00161258
0.00164241
0.00161103
0.00164006
0.00161316
0.00161256
0.00161059
0.00160653
0.00157555
0.00160453
0.00160418
0.00157753
0.00157773
0.00160618
0.00157565
0.00160457
0.00160438
0.00157755
0.0015777
0.00160379
0.00157762
0.00157782
0.00160624
0.00157566
0.00160378
0.00157764
0.00157792
0.00157581
0.00157081
0.00154022
0.00156869
0.00156896
0.00154229
0.00154232
0.00157095
0.00154029
0.00156867
0.00156883
0.0015422
0.00154226
0.00156901
0.00154235
0.00154213
0.00157096
0.00154026
0.00156908
0.00154236
0.00154202
0.00154005
0.00153546
0.00150437
0.00153343
0.0015333
0.00150645
0.00150624
0.00153545
0.00150427
0.00153338
0.00153335
0.00150653
0.00150633
0.00153318
0.00150629
0.00150657
0.00153542
0.00150423
0.00153303
0.00150621
0.00150655
0.00150446
0.0014996
0.00146933
0.0014975
0.00149743
0.00147131
0.00147138
0.00149952
0.0014694
0.00149757
0.00149743
0.00147131
0.00147134
0.00149774
0.00147138
0.00147144
0.0014995
0.00146942
0.00149779
0.00147141
0.00147156
0.0014695
0.00146465
0.00143434
0.00146262
0.00146272
0.00143648
0.00143659
0.00146475
0.00143443
0.00146261
0.00146269
0.00143644
0.00143664
0.00146277
0.00143663
0.00143651
0.00146478
0.00143455
0.00146287
0.00143678
0.00143654
0.00143448
0.00142963
0.00139944
0.00142767
0.00142772
0.0014015
0.00140134
0.00142967
0.00139928
0.00142764
0.00142779
0.0014015
0.00140126
0.00142767
0.00140129
0.00140125
0.00142978
0.00139915
0.00142766
0.00140114
0.00140115
0.0013991
0.00139475
0.00136451
0.00139287
0.00139274
0.00136659
0.00136668
0.00139462
0.00136457
0.00139284
0.00139259
0.00136658
0.00136667
0.00139253
0.00136653
0.0013664
0.00139445
0.00136443
0.0013924
0.00136637
0.00136628
0.00136426
0.00135974
0.00132893
0.00135765
0.00135781
0.00133094
0.00133088
0.0013598
0.00132901
0.00135765
0.00135788
0.00133102
0.00133126
0.00135767
0.00133114
0.00133144
0.00135972
0.0013293
0.00135756
0.00133143
0.00133148
0.00132951
0.00132418
0.00129439
0.00132221
0.00132208
0.00129646
0.00129645
0.00132428
0.00129446
0.00132229
0.00132237
0.00129637
0.0012961
0.00132271
0.00129651
0.00129649
0.00132456
0.00129422
0.00132282
0.00129635
0.00129659
0.00129438
0.0012898
0.00125991
0.00128796
0.00128801
0.001262
0.001262
0.00128986
0.00125971
0.00128779
0.00128754
0.00126197
0.00126189
0.00128769
0.00126172
0.0012615
0.00128952
0.00125975
0.00128763
0.00126165
0.0012614
0.00125943
0.00125518
0.00122469
0.00125316
0.0012531
0.0012267
0.00122666
0.00125494
0.00122465
0.00125325
0.00125327
0.0012269
0.00122705
0.00125285
0.00122675
0.00122708
0.00125511
0.00122495
0.00125287
0.00122706
0.00122732
0.00122506
0.00121995
0.00119014
0.001218
0.00121803
0.00119227
0.00119237
0.00121998
0.00119045
0.00121815
0.00121828
0.00119221
0.0011923
0.0012185
0.00119262
0.00119255
0.00122024
0.00119023
0.00121864
0.0011924
0.00119232
0.00119039
0.00118554
0.00115611
0.00118377
0.00118381
0.00115806
0.001158
0.00118581
0.00115593
0.00118368
0.00118371
0.00115799
0.00115792
0.00118385
0.00115785
0.00115762
0.00118556
0.00115592
0.00118361
0.00115789
0.00115763
0.00115562
0.00115145
0.00112099
0.00114941
0.00114934
0.00112319
0.00112307
0.00115122
0.00112084
0.00114933
0.00114924
0.00112308
0.00112291
0.00114887
0.00112276
0.00112288
0.00115123
0.00112081
0.00114897
0.00112282
0.00112295
0.00112085
0.00111622
0.00108616
0.00111435
0.00111424
0.00108821
0.00108822
0.0011161
0.00108629
0.00111428
0.00111416
0.0010883
0.00108832
0.00111431
0.0010885
0.00108874
0.00111608
0.00108636
0.00111433
0.00108846
0.00108876
0.00108666
0.00108151
0.00105216
0.00107965
0.0010797
0.00105408
0.00105429
0.00108167
0.0010523
0.00107976
0.00107982
0.00105419
0.00105439
0.00108015
0.00105441
0.00105423
0.00108176
0.00105242
0.00108021
0.00105446
0.00105425
0.0010522
0.00104753
0.00101757
0.00104552
0.00104573
0.00101963
0.00101955
0.00104762
0.0010174
0.00104562
0.00104584
0.00101968
0.00101968
0.0010455
0.00101936
0.00101925
0.00104774
0.00101743
0.00104549
0.00101945
0.00101921
0.00101716
0.00101286
0.000982961
0.00101096
0.00101078
0.000985075
0.000984921
0.00101267
0.000982983
0.00101097
0.0010109
0.00098496
0.000984806
0.00101058
0.000984958
0.000985018
0.00101269
0.0009828
0.00101053
0.000984821
0.000984923
0.000982992
0.000978268
0.000948509
0.000976458
0.000976393
0.000950584
0.000950688
0.000978363
0.000948653
0.000976316
0.000976186
0.000950453
0.000950514
0.000976568
0.00095073
0.000950902
0.000978152
0.00094868
0.000976475
0.000950711
0.000950959
0.000948873
0.00094382
0.000913845
0.000941907
0.000942036
0.000915833
0.000915928
0.000943927
0.000913778
0.000941843
0.000941938
0.00091591
0.000915935
0.000942128
0.000915793
0.000915787
0.000944006
0.000913863
0.000942303
0.000915962
0.000916
0.000913803
0.00090912
0.000879301
0.000907155
0.000907204
0.000881281
0.000881165
0.000909037
0.000879236
0.000907236
0.000907234
0.000881307
0.000881282
0.000907105
0.000881235
0.000881251
0.00090913
0.000879198
0.000907237
0.000881171
0.000881073
0.000879175
0.000874662
0.000845597
0.000872762
0.000872615
0.000847482
0.000847411
0.0008746
0.000845475
0.000872763
0.000872742
0.000847537
0.000847509
0.00087268
0.000847373
0.000847187
0.000874546
0.00084552
0.000872463
0.000847295
0.00084707
0.00084523
0.000841005
0.000810633
0.000839039
0.000838994
0.000812774
0.000812697
0.000840886
0.000810611
0.00083911
0.000839131
0.000812854
0.000812849
0.000838729
0.000812793
0.000812931
0.000840982
0.000810796
0.000838684
0.000813028
0.000813088
0.000810889
0.000805695
0.00077482
0.000803767
0.000803706
0.000776952
0.000777079
0.000805724
0.000775065
0.000803783
0.000803776
0.000776719
0.000776712
0.000804032
0.000777046
0.000777189
0.000805882
0.000774704
0.000804193
0.000776944
0.000777184
0.000775105
0.000770183
0.000741901
0.000768375
0.000768617
0.000743716
0.000744007
0.000770452
0.00074216
0.000768088
0.000768
0.000743546
0.000743437
0.000768443
0.000743789
0.000743418
0.000769977
0.000741625
0.00076836
0.000743288
0.000743321
0.000741576
0.000737495
0.000707932
0.000735568
0.000735819
0.000709914
0.000709519
0.000737729
0.000707425
0.0007355
0.000735393
0.000710415
0.00071069
0.000735242
0.000709672
0.000710118
0.000737229
0.000708448
0.000735201
0.000710536
0.000710331
0.000708035
0.000703005
0.000671722
0.000700941
0.00070049
0.000673931
0.00067362
0.000702519
0.00067157
0.000701414
0.000701791
0.000673891
0.000674019
0.000701259
0.00067379
0.000674104
0.000703555
0.000671854
0.000701467
0.000674146
0.000673983
0.000671923
0.000666845
0.000636946
0.00066508
0.000664876
0.0006389
0.000639244
0.000666807
0.000637339
0.000664887
0.000664907
0.000638544
0.000638252
0.000665112
0.0006391
0.000638689
0.000666914
0.000636454
0.000664975
0.000638318
0.000638509
0.000636776
0.000632297
0.000603051
0.00063032
0.000630746
0.00060489
0.000605265
0.000632681
0.000603382
0.000629996
0.000629695
0.000604757
0.000604756
0.000630129
0.00060513
0.000604885
0.00063183
0.000602978
0.000629974
0.000604737
0.000604874
0.000603069
0.000598482
0.000569422
0.000596498
0.000596794
0.000571368
0.000571071
0.000598775
0.000568966
0.000596443
0.00059648
0.00057166
0.000571751
0.00059652
0.000571132
0.000571362
0.000598439
0.00056978
0.000596549
0.000571707
0.00057157
0.000569374
0.000564738
0.000534056
0.00056281
0.000562379
0.000536265
0.00053594
0.000564229
0.000533809
0.000563199
0.000563345
0.000536423
0.000536487
0.00056273
0.000536013
0.000536146
0.000565134
0.00053415
0.000562978
0.00053645
0.00053618
0.000533942
0.0005291
0.000497762
0.000527229
0.000527019
0.000499912
0.000500059
0.000528922
0.000498204
0.00052725
0.000527278
0.000499744
0.000499795
0.000527205
0.000500143
0.00050027
0.000529146
0.000497673
0.000527143
0.000499874
0.000500093
0.000498146
0.000492923
0.00046353
0.000490967
0.000491287
0.000465333
0.000465561
0.000493428
0.000463731
0.000490731
0.000490755
0.000465112
0.000465046
0.000491389
0.000465497
0.000465353
0.000492794
0.000463393
0.000491205
0.000465106
0.000465254
0.000463544
0.00045896
0.000429848
0.000456956
0.000457076
0.000431693
0.000431609
0.000459085
0.000429612
0.000456806
0.000456741
0.000431698
0.000431575
0.000456796
0.000431479
0.000431204
0.00045882
0.000429703
0.000456739
0.000431482
0.000431271
0.000429362
0.000425155
0.000394135
0.000423109
0.000422947
0.000396279
0.000396133
0.000424863
0.000393998
0.000423197
0.000423066
0.000396483
0.000396534
0.000422641
0.000396209
0.000396413
0.000425056
0.000394294
0.000422737
0.000396514
0.00039652
0.000394257
0.000389179
0.000358361
0.000387211
0.000387148
0.00036048
0.000360561
0.000389101
0.000358522
0.000387358
0.000387466
0.000360463
0.000360606
0.000387504
0.000360654
0.000360861
0.00038936
0.000358546
0.000387579
0.000360702
0.000360844
0.000358752
0.000353585
0.000323875
0.000351718
0.000351819
0.000325817
0.000325822
0.000353756
0.000323861
0.000351674
0.000351826
0.000325747
0.000325763
0.000352038
0.000325783
0.000325663
0.00035376
0.000323779
0.000352007
0.00032575
0.000325624
0.000323662
0.000319159
0.000288813
0.000317181
0.000317121
0.000290793
0.00029068
0.000319095
0.000288668
0.000317121
0.000317061
0.000290784
0.000290647
0.000316855
0.00029057
0.00029045
0.000319023
0.000288622
0.000316828
0.000290516
0.000290409
0.00028852
0.000283939
0.000253032
0.000281869
0.000281798
0.000255052
0.000255167
0.000283835
0.000253225
0.000281866
0.000281757
0.000255002
0.000255019
0.000281696
0.000255249
0.000255312
0.000283784
0.000253108
0.00028166
0.00025512
0.000255307
0.000253332
0.000248173
0.000217548
0.000246158
0.000246314
0.00021959
0.000219689
0.000248391
0.000217602
0.000246098
0.000246129
0.000219583
0.000219581
0.000246481
0.000219751
0.000219759
0.000248255
0.000217586
0.000246468
0.000219665
0.00021981
0.000217667
0.000212715
0.000182081
0.00021072
0.000210747
0.000184102
0.000183969
0.000212698
0.00018188
0.000210767
0.000210772
0.000184211
0.000184266
0.000210732
0.000183913
0.000183886
0.000212749
0.000182097
0.000210796
0.000184139
0.000183929
0.000181833
0.000177245
0.000146856
0.000175263
0.000175114
0.000148847
0.000148734
0.000177043
0.000146797
0.000175346
0.000175402
0.000148872
0.000148941
0.000175039
0.000148734
0.000148812
0.00017726
0.00014692
0.000175087
0.000148909
0.000148805
0.000146853
0.000142065
0.000111701
0.000140102
0.00014008
0.000113757
0.000113924
0.000142062
0.000111957
0.000140088
0.000140148
0.000113644
0.0001136
0.000140183
0.000113984
0.000114016
0.000142123
0.000111654
0.000140152
0.00011371
0.000113923
0.000111997
0.000106825
7.55906e-05
0.000104891
0.000105085
7.76941e-05
7.77533e-05
0.000107104
7.56179e-05
0.000104761
0.00010468
7.76418e-05
7.74604e-05
0.000105159
7.77183e-05
7.75944e-05
0.000106754
7.54011e-05
0.000105058
7.74699e-05
7.75759e-05
7.54914e-05
7.05136e-05
3.89027e-05
6.85131e-05
6.84772e-05
4.08394e-05
4.06492e-05
7.04871e-05
3.85764e-05
6.84967e-05
6.83631e-05
4.09826e-05
4.10255e-05
6.83187e-05
4.05832e-05
4.05503e-05
7.03503e-05
3.90027e-05
6.8331e-05
4.09518e-05
4.06828e-05
3.86412e-05
3.39237e-05
7.33258e-06
3.19376e-05
3.17519e-05
1.02584e-05
1.0258e-05
3.36121e-05
7.33934e-06
3.20975e-05
3.22206e-05
1.03664e-05
1.06039e-05
3.17955e-05
1.03092e-05
1.04723e-05
3.40647e-05
7.59781e-06
3.19381e-05
1.06317e-05
1.05593e-05
7.51794e-06
4.30699e-06
6.14017e-06
6.10928e-06
4.33396e-06
6.12053e-06
6.32066e-06
5.18333e-06
5.33602e-06
5.32582e-06
6.31363e-06
4.54541e-06
6.25703e-06
0.00353034
0.00353289
0.00353161
0.00353181
0.00355878
0.00353272
0.00356228
0.0035331
0.00355905
0.00353296
0.00353318
0.0035625
0.00354392
0.00356547
0.00356576
0.00350306
0.00351633
0.00352051
0.00349543
0.0034933
0.00349878
0.00350289
0.00351662
0.00352053
0.00349527
0.00351888
0.00351889
0.00351887
0.00349252
0.00349252
0.00349247
0.00349249
0.00350265
0.00351419
0.00351941
0.00351017
0.00352155
0.00349975
0.00351044
0.00349388
0.0034984
0.00350259
0.00351944
0.00351424
0.00351019
0.00352158
0.00351048
0.00349974
0.00352032
0.00352031
0.00350745
0.00349958
0.00349974
0.0034754
0.0034899
0.00348951
0.00347324
0.00348698
0.00347242
0.00347534
0.00348974
0.00348954
0.00347343
0.00348345
0.00348339
0.00348339
0.00345503
0.00345505
0.00345498
0.003455
0.00347318
0.00348822
0.00348193
0.00347249
0.00348666
0.00347374
0.00347253
0.00348691
0.00347242
0.00347319
0.00348188
0.00348815
0.00347258
0.00348661
0.00347253
0.00347368
0.00348986
0.00348988
0.00347095
0.00347406
0.00347417
0.00343293
0.00344763
0.00344852
0.00343157
0.00344648
0.00343067
0.0034329
0.00344763
0.00344847
0.00343159
0.00344497
0.00344488
0.00344491
0.0034124
0.00341242
0.00341237
0.00341236
0.00343163
0.00344723
0.00344303
0.00343259
0.00344617
0.00343215
0.00343259
0.00344645
0.00343069
0.00343161
0.00344304
0.00344716
0.00343264
0.00344616
0.0034326
0.00343201
0.0034479
0.00344795
0.00342993
0.00343199
0.00343196
0.00338658
0.003403
0.00340449
0.00338519
0.00340225
0.0033847
0.0033866
0.00340303
0.0034044
0.00338517
0.00340089
0.00340083
0.00340083
0.00336502
0.00336504
0.003365
0.003365
0.00338577
0.00340288
0.00339919
0.00338749
0.00340227
0.00338583
0.00338748
0.00340213
0.00338468
0.00338577
0.00339915
0.00340278
0.00338748
0.00340226
0.00338749
0.00338586
0.00340314
0.00340312
0.00338419
0.00338541
0.00338537
0.00333773
0.00335487
0.00335624
0.00333655
0.00335446
0.00333627
0.00333777
0.00335482
0.00335609
0.00333653
0.00335286
0.00335284
0.00335282
0.00331619
0.0033162
0.00331618
0.00331615
0.00333734
0.00335486
0.00335142
0.00333922
0.00335452
0.0033373
0.00333925
0.00335448
0.00333631
0.00333733
0.00335142
0.00335485
0.00333918
0.00335451
0.00333925
0.00333726
0.00335492
0.00335488
0.00333584
0.00333663
0.00333665
0.00328859
0.00330596
0.00330696
0.00328777
0.00330568
0.00328757
0.00328867
0.00330594
0.00330693
0.00328779
0.003304
0.00330399
0.00330396
0.00326772
0.00326772
0.00326772
0.0032677
0.00328859
0.00330598
0.00330274
0.00329059
0.00330576
0.00328845