/*--------------------------------*- C++ -*----------------------------------*\
| =========                 |                                                 |
| \\      /  F ield         | OpenFOAM: The Open Source CFD Toolbox           |
|  \\    /   O peration     | Version:  v2012                                 |
|   \\  /    A nd           | Website:  www.openfoam.com                      |
|    \\/     M anipulation  |                                                 |
\*---------------------------------------------------------------------------*/
FoamFile
{
    version     2.0;
    format      ascii;
    class       volScalarField;
    location    "0.42";
    object      p;
}
// * * * * * * * * * * * * * * * * * * * * * * * * * * * * * * * * * * * * * //

dimensions      [0 2 -2 0 0 0 0];


internalField   nonuniform List<scalar> 
247104
(
1.8386e-06
1.83848e-06
1.83863e-06
1.83861e-06
1.83853e-06
1.83863e-06
1.83861e-06
1.83841e-06
1.83848e-06
1.83854e-06
1.8386e-06
1.83845e-06
1.83836e-06
1.83847e-06
1.83861e-06
1.83851e-06
1.83863e-06
1.8386e-06
1.8383e-06
1.83794e-06
1.83779e-06
1.83797e-06
1.83834e-06
1.83862e-06
1.83863e-06
1.83861e-06
1.83845e-06
1.83794e-06
1.83746e-06
1.83728e-06
1.8375e-06
1.83801e-06
1.8385e-06
1.83861e-06
1.8386e-06
1.83853e-06
1.83836e-06
1.8378e-06
1.83728e-06
1.8371e-06
1.83733e-06
1.83787e-06
1.83841e-06
1.83852e-06
1.83863e-06
1.83847e-06
1.83797e-06
1.8375e-06
1.83733e-06
1.83755e-06
1.83804e-06
1.83851e-06
1.83864e-06
1.83861e-06
1.83861e-06
1.83834e-06
1.83801e-06
1.83787e-06
1.83804e-06
1.83839e-06
1.83862e-06
1.83861e-06
1.83841e-06
1.83851e-06
1.83862e-06
1.8385e-06
1.83841e-06
1.83851e-06
1.83862e-06
1.83848e-06
1.83863e-06
1.83861e-06
1.83852e-06
1.83864e-06
1.83861e-06
1.80585e-06
1.80386e-06
1.80321e-06
1.80199e-06
1.802e-06
1.80194e-06
1.80194e-06
1.80327e-06
1.80348e-06
1.80322e-06
1.80116e-06
1.79857e-06
1.79856e-06
1.79856e-06
1.79857e-06
1.80154e-06
1.80181e-06
1.80199e-06
1.79858e-06
1.79852e-06
1.79859e-06
1.79859e-06
1.79852e-06
1.79857e-06
1.80192e-06
1.80327e-06
1.80585e-06
1.802e-06
1.79856e-06
1.79859e-06
1.79868e-06
1.79868e-06
1.79858e-06
1.79856e-06
1.80193e-06
1.80358e-06
1.80386e-06
1.80194e-06
1.79856e-06
1.79859e-06
1.79868e-06
1.79868e-06
1.79858e-06
1.79856e-06
1.8021e-06
1.80219e-06
1.80194e-06
1.79858e-06
1.79852e-06
1.79859e-06
1.79859e-06
1.79852e-06
1.79857e-06
1.80189e-06
1.8032e-06
1.80327e-06
1.80154e-06
1.79858e-06
1.79856e-06
1.79856e-06
1.79858e-06
1.80179e-06
1.80195e-06
1.80342e-06
1.80348e-06
1.80181e-06
1.80192e-06
1.80194e-06
1.8021e-06
1.80189e-06
1.80195e-06
1.80349e-06
1.80327e-06
1.80358e-06
1.80219e-06
1.8032e-06
1.80342e-06
1.78573e-06
1.78556e-06
1.78539e-06
1.78329e-06
1.78318e-06
1.78314e-06
1.78327e-06
1.78533e-06
1.78559e-06
1.78539e-06
1.7826e-06
1.77965e-06
1.77961e-06
1.77961e-06
1.77967e-06
1.78304e-06
1.78373e-06
1.7833e-06
1.77967e-06
1.77943e-06
1.77947e-06
1.77947e-06
1.77943e-06
1.77966e-06
1.78384e-06
1.78579e-06
1.78573e-06
1.78319e-06
1.77962e-06
1.77948e-06
1.77951e-06
1.77951e-06
1.77947e-06
1.77961e-06
1.78389e-06
1.78555e-06
1.78557e-06
1.78314e-06
1.77962e-06
1.77948e-06
1.77951e-06
1.77951e-06
1.77947e-06
1.7796e-06
1.78384e-06
1.78387e-06
1.78328e-06
1.77967e-06
1.77943e-06
1.77947e-06
1.77947e-06
1.77942e-06
1.77962e-06
1.78387e-06
1.78588e-06
1.78534e-06
1.78305e-06
1.77965e-06
1.77961e-06
1.77962e-06
1.77967e-06
1.78351e-06
1.78383e-06
1.78581e-06
1.7856e-06
1.78373e-06
1.78384e-06
1.78389e-06
1.78385e-06
1.78389e-06
1.78384e-06
1.78568e-06
1.7858e-06
1.78556e-06
1.78388e-06
1.78589e-06
1.78581e-06
1.76685e-06
1.76668e-06
1.76654e-06
1.7644e-06
1.76429e-06
1.76421e-06
1.76439e-06
1.76646e-06
1.76673e-06
1.76653e-06
1.76369e-06
1.76072e-06
1.7607e-06
1.7607e-06
1.76072e-06
1.7641e-06
1.76487e-06
1.7644e-06
1.76073e-06
1.76062e-06
1.76064e-06
1.76063e-06
1.76062e-06
1.76072e-06
1.76496e-06
1.76691e-06
1.76685e-06
1.76429e-06
1.7607e-06
1.76064e-06
1.76065e-06
1.76065e-06
1.76064e-06
1.7607e-06
1.76501e-06
1.76667e-06
1.76668e-06
1.76421e-06
1.7607e-06
1.76064e-06
1.76065e-06
1.76065e-06
1.76064e-06
1.7607e-06
1.76498e-06
1.76502e-06
1.76439e-06
1.76073e-06
1.76062e-06
1.76064e-06
1.76064e-06
1.76063e-06
1.76073e-06
1.765e-06
1.76699e-06
1.76647e-06
1.76411e-06
1.76073e-06
1.76071e-06
1.76071e-06
1.76073e-06
1.76473e-06
1.765e-06
1.76696e-06
1.76675e-06
1.76489e-06
1.76497e-06
1.76502e-06
1.76499e-06
1.76501e-06
1.765e-06
1.76699e-06
1.76692e-06
1.76667e-06
1.76502e-06
1.767e-06
1.76696e-06
1.74795e-06
1.74778e-06
1.74762e-06
1.74548e-06
1.74536e-06
1.74528e-06
1.74546e-06
1.74755e-06
1.74783e-06
1.74762e-06
1.74478e-06
1.74179e-06
1.74178e-06
1.74178e-06
1.74179e-06
1.74516e-06
1.74597e-06
1.74548e-06
1.74179e-06
1.74176e-06
1.74177e-06
1.74177e-06
1.74176e-06
1.74179e-06
1.74605e-06
1.748e-06
1.74795e-06
1.74536e-06
1.74178e-06
1.74177e-06
1.74177e-06
1.74177e-06
1.74177e-06
1.74178e-06
1.74612e-06
1.74779e-06
1.74778e-06
1.74528e-06
1.74178e-06
1.74177e-06
1.74177e-06
1.74177e-06
1.74177e-06
1.74178e-06
1.7461e-06
1.74613e-06
1.74547e-06
1.74179e-06
1.74176e-06
1.74177e-06
1.74177e-06
1.74176e-06
1.74179e-06
1.7461e-06
1.74811e-06
1.74756e-06
1.74516e-06
1.74179e-06
1.74179e-06
1.74179e-06
1.74179e-06
1.74585e-06
1.7461e-06
1.74804e-06
1.74783e-06
1.74597e-06
1.74605e-06
1.74613e-06
1.7461e-06
1.7461e-06
1.7461e-06
1.74804e-06
1.74801e-06
1.74779e-06
1.74613e-06
1.74811e-06
1.74804e-06
1.72903e-06
1.72887e-06
1.7287e-06
1.72656e-06
1.72644e-06
1.72636e-06
1.72654e-06
1.72863e-06
1.7289e-06
1.72869e-06
1.72586e-06
1.72287e-06
1.72287e-06
1.72287e-06
1.72287e-06
1.72622e-06
1.72704e-06
1.72656e-06
1.72287e-06
1.72286e-06
1.72286e-06
1.72286e-06
1.72286e-06
1.72287e-06
1.72713e-06
1.72909e-06
1.72903e-06
1.72644e-06
1.72287e-06
1.72286e-06
1.72286e-06
1.72286e-06
1.72286e-06
1.72287e-06
1.72721e-06
1.72887e-06
1.72887e-06
1.72636e-06
1.72287e-06
1.72286e-06
1.72286e-06
1.72286e-06
1.72286e-06
1.72287e-06
1.72718e-06
1.72722e-06
1.72654e-06
1.72287e-06
1.72286e-06
1.72286e-06
1.72286e-06
1.72286e-06
1.72287e-06
1.72718e-06
1.72919e-06
1.72863e-06
1.72622e-06
1.72287e-06
1.72287e-06
1.72287e-06
1.72287e-06
1.72694e-06
1.72718e-06
1.72912e-06
1.7289e-06
1.72705e-06
1.72713e-06
1.72721e-06
1.72718e-06
1.72718e-06
1.72718e-06
1.72912e-06
1.72909e-06
1.72888e-06
1.72722e-06
1.72919e-06
1.72912e-06
1.71012e-06
1.70995e-06
1.70978e-06
1.70764e-06
1.70752e-06
1.70745e-06
1.70762e-06
1.70972e-06
1.70998e-06
1.70978e-06
1.70695e-06
1.70395e-06
1.70395e-06
1.70395e-06
1.70395e-06
1.7073e-06
1.70813e-06
1.70764e-06
1.70395e-06
1.70395e-06
1.70395e-06
1.70395e-06
1.70395e-06
1.70395e-06
1.70821e-06
1.71017e-06
1.71012e-06
1.70752e-06
1.70395e-06
1.70395e-06
1.70395e-06
1.70395e-06
1.70395e-06
1.70395e-06
1.70829e-06
1.70996e-06
1.70995e-06
1.70745e-06
1.70395e-06
1.70395e-06
1.70395e-06
1.70395e-06
1.70395e-06
1.70395e-06
1.70827e-06
1.7083e-06
1.70762e-06
1.70395e-06
1.70395e-06
1.70395e-06
1.70395e-06
1.70395e-06
1.70395e-06
1.70827e-06
1.71028e-06
1.70972e-06
1.7073e-06
1.70395e-06
1.70395e-06
1.70395e-06
1.70395e-06
1.70802e-06
1.70827e-06
1.7102e-06
1.70998e-06
1.70813e-06
1.70821e-06
1.70829e-06
1.70827e-06
1.70827e-06
1.70827e-06
1.7102e-06
1.71017e-06
1.70996e-06
1.7083e-06
1.71028e-06
1.7102e-06
1.6912e-06
1.69103e-06
1.69086e-06
1.68873e-06
1.68861e-06
1.68853e-06
1.68871e-06
1.6908e-06
1.69107e-06
1.69086e-06
1.68804e-06
1.68504e-06
1.68504e-06
1.68504e-06
1.68504e-06
1.68839e-06
1.68921e-06
1.68873e-06
1.68504e-06
1.68504e-06
1.68504e-06
1.68504e-06
1.68504e-06
1.68504e-06
1.68929e-06
1.69125e-06
1.6912e-06
1.68861e-06
1.68504e-06
1.68504e-06
1.68504e-06
1.68504e-06
1.68504e-06
1.68504e-06
1.68937e-06
1.69105e-06
1.69103e-06
1.68853e-06
1.68504e-06
1.68504e-06
1.68504e-06
1.68504e-06
1.68504e-06
1.68504e-06
1.68935e-06
1.68939e-06
1.68871e-06
1.68504e-06
1.68504e-06
1.68504e-06
1.68504e-06
1.68504e-06
1.68504e-06
1.68935e-06
1.69136e-06
1.6908e-06
1.68839e-06
1.68504e-06
1.68504e-06
1.68504e-06
1.68504e-06
1.68911e-06
1.68935e-06
1.69129e-06
1.69107e-06
1.68921e-06
1.68929e-06
1.68937e-06
1.68935e-06
1.68936e-06
1.68935e-06
1.69128e-06
1.69125e-06
1.69105e-06
1.68939e-06
1.69136e-06
1.69129e-06
1.67229e-06
1.67212e-06
1.67195e-06
1.66981e-06
1.66969e-06
1.66962e-06
1.66979e-06
1.67189e-06
1.67216e-06
1.67195e-06
1.66912e-06
1.66612e-06
1.66612e-06
1.66612e-06
1.66612e-06
1.66947e-06
1.6703e-06
1.66981e-06
1.66612e-06
1.66612e-06
1.66612e-06
1.66612e-06
1.66612e-06
1.66612e-06
1.67038e-06
1.67234e-06
1.67229e-06
1.66969e-06
1.66612e-06
1.66612e-06
1.66612e-06
1.66612e-06
1.66612e-06
1.66612e-06
1.67046e-06
1.67213e-06
1.67212e-06
1.66962e-06
1.66612e-06
1.66612e-06
1.66612e-06
1.66612e-06
1.66612e-06
1.66612e-06
1.67044e-06
1.67047e-06
1.66979e-06
1.66612e-06
1.66612e-06
1.66612e-06
1.66612e-06
1.66612e-06
1.66612e-06
1.67044e-06
1.67245e-06
1.67189e-06
1.66947e-06
1.66612e-06
1.66612e-06
1.66612e-06
1.66612e-06
1.6702e-06
1.67044e-06
1.67237e-06
1.67216e-06
1.6703e-06
1.67038e-06
1.67046e-06
1.67044e-06
1.67044e-06
1.67044e-06
1.67237e-06
1.67234e-06
1.67213e-06
1.67047e-06
1.67245e-06
1.67237e-06
1.65338e-06
1.65321e-06
1.65303e-06
1.6509e-06
1.65078e-06
1.6507e-06
1.65088e-06
1.65297e-06
1.65324e-06
1.65303e-06
1.65021e-06
1.64721e-06
1.64721e-06
1.64721e-06
1.64721e-06
1.65056e-06
1.65138e-06
1.6509e-06
1.64721e-06
1.64721e-06
1.64721e-06
1.64721e-06
1.64721e-06
1.64721e-06
1.65146e-06
1.65343e-06
1.65338e-06
1.65078e-06
1.64721e-06
1.64721e-06
1.64721e-06
1.64721e-06
1.64721e-06
1.64721e-06
1.65155e-06
1.65322e-06
1.65321e-06
1.6507e-06
1.64721e-06
1.64721e-06
1.64721e-06
1.64721e-06
1.64721e-06
1.64721e-06
1.65152e-06
1.65156e-06
1.65088e-06
1.64721e-06
1.64721e-06
1.64721e-06
1.64721e-06
1.64721e-06
1.64721e-06
1.65153e-06
1.65354e-06
1.65298e-06
1.65056e-06
1.64721e-06
1.64721e-06
1.64721e-06
1.64721e-06
1.65128e-06
1.65153e-06
1.65346e-06
1.65324e-06
1.65138e-06
1.65146e-06
1.65155e-06
1.65152e-06
1.65153e-06
1.65153e-06
1.65345e-06
1.65343e-06
1.65322e-06
1.65156e-06
1.65353e-06
1.65346e-06
1.63446e-06
1.63429e-06
1.63412e-06
1.63198e-06
1.63187e-06
1.63179e-06
1.63197e-06
1.63406e-06
1.63433e-06
1.63412e-06
1.63129e-06
1.6283e-06
1.6283e-06
1.6283e-06
1.6283e-06
1.63165e-06
1.63247e-06
1.63198e-06
1.6283e-06
1.6283e-06
1.6283e-06
1.6283e-06
1.6283e-06
1.6283e-06
1.63255e-06
1.63451e-06
1.63446e-06
1.63187e-06
1.6283e-06
1.6283e-06
1.6283e-06
1.6283e-06
1.6283e-06
1.6283e-06
1.63263e-06
1.6343e-06
1.63429e-06
1.63179e-06
1.6283e-06
1.6283e-06
1.6283e-06
1.6283e-06
1.6283e-06
1.6283e-06
1.63261e-06
1.63265e-06
1.63197e-06
1.6283e-06
1.6283e-06
1.6283e-06
1.6283e-06
1.6283e-06
1.6283e-06
1.63261e-06
1.63462e-06
1.63406e-06
1.63165e-06
1.6283e-06
1.6283e-06
1.6283e-06
1.6283e-06
1.63237e-06
1.63261e-06
1.63455e-06
1.63433e-06
1.63247e-06
1.63255e-06
1.63263e-06
1.63261e-06
1.63261e-06
1.63261e-06
1.63454e-06
1.63451e-06
1.6343e-06
1.63265e-06
1.63462e-06
1.63455e-06
1.61555e-06
1.61538e-06
1.61521e-06
1.61307e-06
1.61295e-06
1.61288e-06
1.61305e-06
1.61515e-06
1.61541e-06
1.61521e-06
1.61238e-06
1.60938e-06
1.60938e-06
1.60938e-06
1.60938e-06
1.61273e-06
1.61356e-06
1.61307e-06
1.60938e-06
1.60938e-06
1.60938e-06
1.60938e-06
1.60938e-06
1.60938e-06
1.61364e-06
1.6156e-06
1.61555e-06
1.61295e-06
1.60938e-06
1.60938e-06
1.60938e-06
1.60938e-06
1.60938e-06
1.60938e-06
1.61372e-06
1.61539e-06
1.61538e-06
1.61288e-06
1.60938e-06
1.60938e-06
1.60938e-06
1.60938e-06
1.60938e-06
1.60938e-06
1.6137e-06
1.61373e-06
1.61305e-06
1.60938e-06
1.60938e-06
1.60938e-06
1.60938e-06
1.60938e-06
1.60938e-06
1.6137e-06
1.61571e-06
1.61515e-06
1.61273e-06
1.60938e-06
1.60938e-06
1.60938e-06
1.60938e-06
1.61345e-06
1.6137e-06
1.61563e-06
1.61541e-06
1.61356e-06
1.61364e-06
1.61372e-06
1.6137e-06
1.6137e-06
1.6137e-06
1.61563e-06
1.6156e-06
1.61539e-06
1.61373e-06
1.61571e-06
1.61563e-06
1.59664e-06
1.59647e-06
1.59629e-06
1.59416e-06
1.59404e-06
1.59396e-06
1.59414e-06
1.59623e-06
1.5965e-06
1.59629e-06
1.59347e-06
1.59047e-06
1.59047e-06
1.59047e-06
1.59047e-06
1.59382e-06
1.59464e-06
1.59416e-06
1.59047e-06
1.59047e-06
1.59047e-06
1.59047e-06
1.59047e-06
1.59047e-06
1.59472e-06
1.59669e-06
1.59663e-06
1.59404e-06
1.59047e-06
1.59047e-06
1.59047e-06
1.59047e-06
1.59047e-06
1.59047e-06
1.59481e-06
1.59648e-06
1.59647e-06
1.59396e-06
1.59047e-06
1.59047e-06
1.59047e-06
1.59047e-06
1.59047e-06
1.59047e-06
1.59478e-06
1.59482e-06
1.59414e-06
1.59047e-06
1.59047e-06
1.59047e-06
1.59047e-06
1.59047e-06
1.59047e-06
1.59479e-06
1.5968e-06
1.59623e-06
1.59382e-06
1.59047e-06
1.59047e-06
1.59047e-06
1.59047e-06
1.59454e-06
1.59479e-06
1.59672e-06
1.5965e-06
1.59464e-06
1.59472e-06
1.59481e-06
1.59478e-06
1.59479e-06
1.59479e-06
1.59671e-06
1.59669e-06
1.59648e-06
1.59482e-06
1.59679e-06
1.59672e-06
1.57772e-06
1.57755e-06
1.57738e-06
1.57524e-06
1.57513e-06
1.57505e-06
1.57523e-06
1.57732e-06
1.57759e-06
1.57738e-06
1.57455e-06
1.57156e-06
1.57156e-06
1.57156e-06
1.57156e-06
1.57491e-06
1.57573e-06
1.57524e-06
1.57156e-06
1.57156e-06
1.57156e-06
1.57156e-06
1.57156e-06
1.57156e-06
1.57581e-06
1.57777e-06
1.57772e-06
1.57513e-06
1.57156e-06
1.57156e-06
1.57156e-06
1.57156e-06
1.57156e-06
1.57156e-06
1.57589e-06
1.57756e-06
1.57755e-06
1.57505e-06
1.57156e-06
1.57156e-06
1.57156e-06
1.57156e-06
1.57156e-06
1.57156e-06
1.57587e-06
1.5759e-06
1.57523e-06
1.57156e-06
1.57156e-06
1.57156e-06
1.57156e-06
1.57156e-06
1.57156e-06
1.57587e-06
1.57788e-06
1.57732e-06
1.57491e-06
1.57156e-06
1.57156e-06
1.57156e-06
1.57156e-06
1.57563e-06
1.57587e-06
1.57781e-06
1.57759e-06
1.57573e-06
1.57581e-06
1.57589e-06
1.57587e-06
1.57587e-06
1.57587e-06
1.5778e-06
1.57777e-06
1.57756e-06
1.5759e-06
1.57788e-06
1.57781e-06
1.55881e-06
1.55864e-06
1.55847e-06
1.55633e-06
1.55621e-06
1.55614e-06
1.55631e-06
1.55841e-06
1.55867e-06
1.55847e-06
1.55564e-06
1.55264e-06
1.55264e-06
1.55264e-06
1.55264e-06
1.55599e-06
1.55682e-06
1.55633e-06
1.55264e-06
1.55264e-06
1.55264e-06
1.55264e-06
1.55264e-06
1.55264e-06
1.5569e-06
1.55886e-06
1.55881e-06
1.55621e-06
1.55264e-06
1.55264e-06
1.55264e-06
1.55264e-06
1.55264e-06
1.55264e-06
1.55698e-06
1.55865e-06
1.55864e-06
1.55614e-06
1.55264e-06
1.55264e-06
1.55264e-06
1.55264e-06
1.55264e-06
1.55264e-06
1.55696e-06
1.55699e-06
1.55631e-06
1.55264e-06
1.55264e-06
1.55264e-06
1.55264e-06
1.55264e-06
1.55264e-06
1.55696e-06
1.55897e-06
1.55841e-06
1.55599e-06
1.55264e-06
1.55264e-06
1.55264e-06
1.55264e-06
1.55671e-06
1.55696e-06
1.55889e-06
1.55867e-06
1.55682e-06
1.55689e-06
1.55698e-06
1.55696e-06
1.55696e-06
1.55696e-06
1.55888e-06
1.55886e-06
1.55865e-06
1.55699e-06
1.55897e-06
1.55889e-06
1.53989e-06
1.53972e-06
1.53955e-06
1.53742e-06
1.5373e-06
1.53722e-06
1.5374e-06
1.53949e-06
1.53976e-06
1.53955e-06
1.53672e-06
1.53373e-06
1.53373e-06
1.53373e-06
1.53373e-06
1.53708e-06
1.5379e-06
1.53741e-06
1.53373e-06
1.53373e-06
1.53373e-06
1.53373e-06
1.53373e-06
1.53373e-06
1.53798e-06
1.53994e-06
1.53989e-06
1.5373e-06
1.53373e-06
1.53373e-06
1.53373e-06
1.53373e-06
1.53373e-06
1.53373e-06
1.53806e-06
1.53974e-06
1.53972e-06
1.53722e-06
1.53373e-06
1.53373e-06
1.53373e-06
1.53373e-06
1.53373e-06
1.53373e-06
1.53804e-06
1.53808e-06
1.5374e-06
1.53373e-06
1.53373e-06
1.53373e-06
1.53373e-06
1.53373e-06
1.53373e-06
1.53804e-06
1.54005e-06
1.53949e-06
1.53708e-06
1.53373e-06
1.53373e-06
1.53373e-06
1.53373e-06
1.5378e-06
1.53805e-06
1.53998e-06
1.53976e-06
1.5379e-06
1.53798e-06
1.53806e-06
1.53804e-06
1.53804e-06
1.53804e-06
1.53997e-06
1.53994e-06
1.53974e-06
1.53808e-06
1.54005e-06
1.53998e-06
1.52098e-06
1.52081e-06
1.52064e-06
1.5185e-06
1.51838e-06
1.51831e-06
1.51848e-06
1.52058e-06
1.52084e-06
1.52064e-06
1.51781e-06
1.51481e-06
1.51481e-06
1.51481e-06
1.51481e-06
1.51816e-06
1.51899e-06
1.5185e-06
1.51481e-06
1.51481e-06
1.51481e-06
1.51481e-06
1.51481e-06
1.51481e-06
1.51907e-06
1.52103e-06
1.52098e-06
1.51838e-06
1.51481e-06
1.51481e-06
1.51481e-06
1.51481e-06
1.51481e-06
1.51481e-06
1.51915e-06
1.52082e-06
1.52081e-06
1.51831e-06
1.51481e-06
1.51481e-06
1.51481e-06
1.51481e-06
1.51481e-06
1.51481e-06
1.51913e-06
1.51916e-06
1.51848e-06
1.51481e-06
1.51481e-06
1.51481e-06
1.51481e-06
1.51481e-06
1.51481e-06
1.51913e-06
1.52114e-06
1.52058e-06
1.51816e-06
1.51481e-06
1.51481e-06
1.51481e-06
1.51481e-06
1.51888e-06
1.51913e-06
1.52106e-06
1.52084e-06
1.51899e-06
1.51907e-06
1.51915e-06
1.51913e-06
1.51913e-06
1.51913e-06
1.52105e-06
1.52103e-06
1.52082e-06
1.51916e-06
1.52114e-06
1.52106e-06
1.50206e-06
1.5019e-06
1.50172e-06
1.49959e-06
1.49947e-06
1.49939e-06
1.49957e-06
1.50166e-06
1.50193e-06
1.50172e-06
1.4989e-06
1.4959e-06
1.4959e-06
1.4959e-06
1.4959e-06
1.49925e-06
1.50007e-06
1.49959e-06
1.4959e-06
1.4959e-06
1.4959e-06
1.4959e-06
1.4959e-06
1.4959e-06
1.50015e-06
1.50212e-06
1.50206e-06
1.49947e-06
1.4959e-06
1.4959e-06
1.4959e-06
1.4959e-06
1.4959e-06
1.4959e-06
1.50024e-06
1.50191e-06
1.5019e-06
1.49939e-06
1.4959e-06
1.4959e-06
1.4959e-06
1.4959e-06
1.4959e-06
1.4959e-06
1.50021e-06
1.50025e-06
1.49957e-06
1.4959e-06
1.4959e-06
1.4959e-06
1.4959e-06
1.4959e-06
1.4959e-06
1.50021e-06
1.50222e-06
1.50166e-06
1.49925e-06
1.4959e-06
1.4959e-06
1.4959e-06
1.4959e-06
1.49997e-06
1.50022e-06
1.50215e-06
1.50193e-06
1.50007e-06
1.50015e-06
1.50023e-06
1.50021e-06
1.50021e-06
1.50021e-06
1.50214e-06
1.50211e-06
1.50191e-06
1.50025e-06
1.50222e-06
1.50215e-06
1.48315e-06
1.48298e-06
1.48281e-06
1.48067e-06
1.48055e-06
1.48048e-06
1.48065e-06
1.48275e-06
1.48302e-06
1.48281e-06
1.47998e-06
1.47698e-06
1.47698e-06
1.47698e-06
1.47698e-06
1.48033e-06
1.48116e-06
1.48067e-06
1.47698e-06
1.47698e-06
1.47698e-06
1.47698e-06
1.47698e-06
1.47698e-06
1.48124e-06
1.4832e-06
1.48315e-06
1.48055e-06
1.47698e-06
1.47698e-06
1.47698e-06
1.47698e-06
1.47698e-06
1.47698e-06
1.48132e-06
1.48299e-06
1.48298e-06
1.48048e-06
1.47698e-06
1.47698e-06
1.47698e-06
1.47698e-06
1.47698e-06
1.47698e-06
1.4813e-06
1.48133e-06
1.48065e-06
1.47698e-06
1.47698e-06
1.47698e-06
1.47698e-06
1.47698e-06
1.47698e-06
1.4813e-06
1.48331e-06
1.48275e-06
1.48033e-06
1.47698e-06
1.47698e-06
1.47698e-06
1.47698e-06
1.48106e-06
1.4813e-06
1.48323e-06
1.48302e-06
1.48116e-06
1.48124e-06
1.48132e-06
1.4813e-06
1.4813e-06
1.4813e-06
1.48323e-06
1.4832e-06
1.48299e-06
1.48133e-06
1.48331e-06
1.48323e-06
1.46424e-06
1.46407e-06
1.46389e-06
1.46176e-06
1.46164e-06
1.46156e-06
1.46174e-06
1.46383e-06
1.4641e-06
1.46389e-06
1.46107e-06
1.45807e-06
1.45807e-06
1.45807e-06
1.45807e-06
1.46142e-06
1.46224e-06
1.46176e-06
1.45807e-06
1.45807e-06
1.45807e-06
1.45807e-06
1.45807e-06
1.45807e-06
1.46232e-06
1.46429e-06
1.46424e-06
1.46164e-06
1.45807e-06
1.45807e-06
1.45807e-06
1.45807e-06
1.45807e-06
1.45807e-06
1.46241e-06
1.46408e-06
1.46407e-06
1.46156e-06
1.45807e-06
1.45807e-06
1.45807e-06
1.45807e-06
1.45807e-06
1.45807e-06
1.46239e-06
1.46242e-06
1.46174e-06
1.45807e-06
1.45807e-06
1.45807e-06
1.45807e-06
1.45807e-06
1.45807e-06
1.46239e-06
1.4644e-06
1.46384e-06
1.46142e-06
1.45807e-06
1.45807e-06
1.45807e-06
1.45807e-06
1.46214e-06
1.46239e-06
1.46432e-06
1.4641e-06
1.46224e-06
1.46232e-06
1.46241e-06
1.46238e-06
1.46239e-06
1.46239e-06
1.46431e-06
1.46429e-06
1.46408e-06
1.46242e-06
1.4644e-06
1.46432e-06
1.44532e-06
1.44515e-06
1.44498e-06
1.44284e-06
1.44273e-06
1.44265e-06
1.44283e-06
1.44492e-06
1.44519e-06
1.44498e-06
1.44215e-06
1.43916e-06
1.43916e-06
1.43916e-06
1.43916e-06
1.44251e-06
1.44333e-06
1.44284e-06
1.43916e-06
1.43916e-06
1.43916e-06
1.43916e-06
1.43916e-06
1.43916e-06
1.44341e-06
1.44537e-06
1.44532e-06
1.44273e-06
1.43916e-06
1.43916e-06
1.43916e-06
1.43916e-06
1.43916e-06
1.43916e-06
1.44349e-06
1.44516e-06
1.44515e-06
1.44265e-06
1.43916e-06
1.43916e-06
1.43916e-06
1.43916e-06
1.43916e-06
1.43916e-06
1.44347e-06
1.4435e-06
1.44283e-06
1.43916e-06
1.43916e-06
1.43916e-06
1.43916e-06
1.43916e-06
1.43916e-06
1.44347e-06
1.44548e-06
1.44492e-06
1.44251e-06
1.43916e-06
1.43916e-06
1.43916e-06
1.43916e-06
1.44323e-06
1.44347e-06
1.44541e-06
1.44519e-06
1.44333e-06
1.44341e-06
1.44349e-06
1.44347e-06
1.44347e-06
1.44347e-06
1.4454e-06
1.44537e-06
1.44516e-06
1.4435e-06
1.44548e-06
1.44541e-06
1.42641e-06
1.42624e-06
1.42606e-06
1.42393e-06
1.42381e-06
1.42373e-06
1.42391e-06
1.426e-06
1.42627e-06
1.42606e-06
1.42324e-06
1.42024e-06
1.42024e-06
1.42024e-06
1.42024e-06
1.42359e-06
1.42441e-06
1.42393e-06
1.42024e-06
1.42024e-06
1.42024e-06
1.42024e-06
1.42024e-06
1.42024e-06
1.42449e-06
1.42646e-06
1.42641e-06
1.42381e-06
1.42024e-06
1.42024e-06
1.42024e-06
1.42024e-06
1.42024e-06
1.42024e-06
1.42458e-06
1.42625e-06
1.42624e-06
1.42373e-06
1.42024e-06
1.42024e-06
1.42024e-06
1.42024e-06
1.42024e-06
1.42024e-06
1.42456e-06
1.42459e-06
1.42391e-06
1.42024e-06
1.42024e-06
1.42024e-06
1.42024e-06
1.42024e-06
1.42024e-06
1.42456e-06
1.42657e-06
1.42601e-06
1.42359e-06
1.42024e-06
1.42024e-06
1.42024e-06
1.42024e-06
1.42431e-06
1.42456e-06
1.42649e-06
1.42627e-06
1.42442e-06
1.42449e-06
1.42458e-06
1.42455e-06
1.42456e-06
1.42456e-06
1.42648e-06
1.42646e-06
1.42625e-06
1.42459e-06
1.42657e-06
1.42649e-06
1.40749e-06
1.40732e-06
1.40715e-06
1.40501e-06
1.4049e-06
1.40482e-06
1.405e-06
1.40709e-06
1.40736e-06
1.40715e-06
1.40432e-06
1.40133e-06
1.40133e-06
1.40133e-06
1.40133e-06
1.40468e-06
1.4055e-06
1.40501e-06
1.40133e-06
1.40133e-06
1.40133e-06
1.40133e-06
1.40133e-06
1.40133e-06
1.40558e-06
1.40754e-06
1.40749e-06
1.4049e-06
1.40133e-06
1.40133e-06
1.40133e-06
1.40133e-06
1.40133e-06
1.40133e-06
1.40566e-06
1.40733e-06
1.40732e-06
1.40482e-06
1.40133e-06
1.40133e-06
1.40133e-06
1.40133e-06
1.40133e-06
1.40133e-06
1.40564e-06
1.40567e-06
1.405e-06
1.40133e-06
1.40133e-06
1.40133e-06
1.40133e-06
1.40133e-06
1.40133e-06
1.40564e-06
1.40765e-06
1.40709e-06
1.40468e-06
1.40133e-06
1.40133e-06
1.40133e-06
1.40133e-06
1.4054e-06
1.40564e-06
1.40758e-06
1.40736e-06
1.4055e-06
1.40558e-06
1.40566e-06
1.40564e-06
1.40564e-06
1.40564e-06
1.40757e-06
1.40754e-06
1.40733e-06
1.40567e-06
1.40765e-06
1.40758e-06
1.38858e-06
1.38841e-06
1.38823e-06
1.3861e-06
1.38598e-06
1.3859e-06
1.38608e-06
1.38817e-06
1.38844e-06
1.38823e-06
1.38541e-06
1.38241e-06
1.38241e-06
1.38241e-06
1.38241e-06
1.38576e-06
1.38658e-06
1.3861e-06
1.38241e-06
1.38241e-06
1.38241e-06
1.38241e-06
1.38241e-06
1.38241e-06
1.38666e-06
1.38863e-06
1.38858e-06
1.38598e-06
1.38241e-06
1.38241e-06
1.38241e-06
1.38241e-06
1.38241e-06
1.38241e-06
1.38675e-06
1.38842e-06
1.38841e-06
1.3859e-06
1.38241e-06
1.38241e-06
1.38241e-06
1.38241e-06
1.38241e-06
1.38241e-06
1.38673e-06
1.38676e-06
1.38608e-06
1.38241e-06
1.38241e-06
1.38241e-06
1.38241e-06
1.38241e-06
1.38241e-06
1.38673e-06
1.38874e-06
1.38818e-06
1.38576e-06
1.38241e-06
1.38241e-06
1.38241e-06
1.38241e-06
1.38648e-06
1.38673e-06
1.38866e-06
1.38844e-06
1.38659e-06
1.38666e-06
1.38675e-06
1.38672e-06
1.38673e-06
1.38673e-06
1.38865e-06
1.38863e-06
1.38842e-06
1.38676e-06
1.38874e-06
1.38866e-06
1.36966e-06
1.36949e-06
1.36932e-06
1.36718e-06
1.36707e-06
1.36699e-06
1.36717e-06
1.36926e-06
1.36953e-06
1.36932e-06
1.36649e-06
1.3635e-06
1.3635e-06
1.3635e-06
1.3635e-06
1.36685e-06
1.36767e-06
1.36718e-06
1.3635e-06
1.3635e-06
1.3635e-06
1.3635e-06
1.3635e-06
1.3635e-06
1.36775e-06
1.36971e-06
1.36966e-06
1.36707e-06
1.3635e-06
1.3635e-06
1.3635e-06
1.3635e-06
1.3635e-06
1.3635e-06
1.36783e-06
1.3695e-06
1.36949e-06
1.36699e-06
1.3635e-06
1.3635e-06
1.3635e-06
1.3635e-06
1.3635e-06
1.3635e-06
1.36781e-06
1.36784e-06
1.36717e-06
1.3635e-06
1.3635e-06
1.3635e-06
1.3635e-06
1.3635e-06
1.3635e-06
1.36781e-06
1.36982e-06
1.36926e-06
1.36685e-06
1.3635e-06
1.3635e-06
1.3635e-06
1.3635e-06
1.36757e-06
1.36781e-06
1.36975e-06
1.36953e-06
1.36767e-06
1.36775e-06
1.36783e-06
1.36781e-06
1.36781e-06
1.36781e-06
1.36974e-06
1.36971e-06
1.3695e-06
1.36784e-06
1.36982e-06
1.36975e-06
1.35075e-06
1.35058e-06
1.3504e-06
1.34827e-06
1.34815e-06
1.34807e-06
1.34825e-06
1.35035e-06
1.35061e-06
1.3504e-06
1.34758e-06
1.34458e-06
1.34458e-06
1.34458e-06
1.34458e-06
1.34793e-06
1.34875e-06
1.34827e-06
1.34458e-06
1.34458e-06
1.34458e-06
1.34458e-06
1.34458e-06
1.34458e-06
1.34883e-06
1.3508e-06
1.35075e-06
1.34815e-06
1.34458e-06
1.34458e-06
1.34458e-06
1.34458e-06
1.34458e-06
1.34458e-06
1.34892e-06
1.35059e-06
1.35058e-06
1.34807e-06
1.34458e-06
1.34458e-06
1.34458e-06
1.34458e-06
1.34458e-06
1.34458e-06
1.3489e-06
1.34893e-06
1.34825e-06
1.34458e-06
1.34458e-06
1.34458e-06
1.34458e-06
1.34458e-06
1.34458e-06
1.3489e-06
1.35091e-06
1.35035e-06
1.34793e-06
1.34458e-06
1.34458e-06
1.34458e-06
1.34458e-06
1.34865e-06
1.3489e-06
1.35083e-06
1.35061e-06
1.34876e-06
1.34883e-06
1.34892e-06
1.34889e-06
1.3489e-06
1.3489e-06
1.35082e-06
1.3508e-06
1.35059e-06
1.34893e-06
1.35091e-06
1.35083e-06
1.33183e-06
1.33166e-06
1.33149e-06
1.32935e-06
1.32923e-06
1.32916e-06
1.32934e-06
1.33143e-06
1.3317e-06
1.33149e-06
1.32866e-06
1.32566e-06
1.32566e-06
1.32566e-06
1.32566e-06
1.32901e-06
1.32984e-06
1.32935e-06
1.32566e-06
1.32566e-06
1.32566e-06
1.32566e-06
1.32566e-06
1.32566e-06
1.32992e-06
1.33188e-06
1.33183e-06
1.32923e-06
1.32566e-06
1.32566e-06
1.32566e-06
1.32566e-06
1.32566e-06
1.32566e-06
1.33e-06
1.33167e-06
1.33166e-06
1.32916e-06
1.32566e-06
1.32566e-06
1.32566e-06
1.32566e-06
1.32566e-06
1.32566e-06
1.32998e-06
1.33001e-06
1.32934e-06
1.32566e-06
1.32566e-06
1.32566e-06
1.32566e-06
1.32566e-06
1.32566e-06
1.32998e-06
1.33199e-06
1.33143e-06
1.32901e-06
1.32566e-06
1.32566e-06
1.32566e-06
1.32566e-06
1.32974e-06
1.32998e-06
1.33191e-06
1.3317e-06
1.32984e-06
1.32992e-06
1.33e-06
1.32998e-06
1.32998e-06
1.32998e-06
1.33191e-06
1.33188e-06
1.33167e-06
1.33001e-06
1.33199e-06
1.33191e-06
1.31291e-06
1.31275e-06
1.31257e-06
1.31044e-06
1.31032e-06
1.31024e-06
1.31042e-06
1.31251e-06
1.31278e-06
1.31257e-06
1.30975e-06
1.30675e-06
1.30675e-06
1.30675e-06
1.30675e-06
1.3101e-06
1.31092e-06
1.31044e-06
1.30675e-06
1.30675e-06
1.30675e-06
1.30675e-06
1.30675e-06
1.30675e-06
1.311e-06
1.31297e-06
1.31291e-06
1.31032e-06
1.30675e-06
1.30675e-06
1.30675e-06
1.30675e-06
1.30675e-06
1.30675e-06
1.31109e-06
1.31276e-06
1.31275e-06
1.31024e-06
1.30675e-06
1.30675e-06
1.30675e-06
1.30675e-06
1.30675e-06
1.30675e-06
1.31106e-06
1.3111e-06
1.31042e-06
1.30675e-06
1.30675e-06
1.30675e-06
1.30675e-06
1.30675e-06
1.30675e-06
1.31107e-06
1.31307e-06
1.31251e-06
1.3101e-06
1.30675e-06
1.30675e-06
1.30675e-06
1.30675e-06
1.31082e-06
1.31107e-06
1.313e-06
1.31278e-06
1.31092e-06
1.311e-06
1.31109e-06
1.31106e-06
1.31107e-06
1.31107e-06
1.31299e-06
1.31297e-06
1.31276e-06
1.3111e-06
1.31307e-06
1.313e-06
1.294e-06
1.29383e-06
1.29366e-06
1.29152e-06
1.2914e-06
1.29133e-06
1.2915e-06
1.2936e-06
1.29387e-06
1.29366e-06
1.29083e-06
1.28783e-06
1.28783e-06
1.28783e-06
1.28783e-06
1.29118e-06
1.29201e-06
1.29152e-06
1.28783e-06
1.28783e-06
1.28783e-06
1.28783e-06
1.28783e-06
1.28783e-06
1.29209e-06
1.29405e-06
1.294e-06
1.2914e-06
1.28783e-06
1.28783e-06
1.28783e-06
1.28783e-06
1.28783e-06
1.28783e-06
1.29217e-06
1.29384e-06
1.29383e-06
1.29133e-06
1.28783e-06
1.28783e-06
1.28783e-06
1.28783e-06
1.28783e-06
1.28783e-06
1.29215e-06
1.29218e-06
1.2915e-06
1.28783e-06
1.28783e-06
1.28783e-06
1.28783e-06
1.28783e-06
1.28783e-06
1.29215e-06
1.29416e-06
1.2936e-06
1.29118e-06
1.28783e-06
1.28783e-06
1.28783e-06
1.28783e-06
1.29191e-06
1.29215e-06
1.29408e-06
1.29387e-06
1.29201e-06
1.29209e-06
1.29217e-06
1.29215e-06
1.29215e-06
1.29215e-06
1.29408e-06
1.29405e-06
1.29384e-06
1.29218e-06
1.29416e-06
1.29408e-06
1.27508e-06
1.27492e-06
1.27474e-06
1.27261e-06
1.27249e-06
1.27241e-06
1.27259e-06
1.27468e-06
1.27495e-06
1.27474e-06
1.27192e-06
1.26892e-06
1.26892e-06
1.26892e-06
1.26892e-06
1.27227e-06
1.27309e-06
1.27261e-06
1.26892e-06
1.26892e-06
1.26892e-06
1.26892e-06
1.26892e-06
1.26892e-06
1.27317e-06
1.27514e-06
1.27508e-06
1.27249e-06
1.26892e-06
1.26892e-06
1.26892e-06
1.26892e-06
1.26892e-06
1.26892e-06
1.27326e-06
1.27493e-06
1.27492e-06
1.27241e-06
1.26892e-06
1.26892e-06
1.26892e-06
1.26892e-06
1.26892e-06
1.26892e-06
1.27323e-06
1.27327e-06
1.27259e-06
1.26892e-06
1.26892e-06
1.26892e-06
1.26892e-06
1.26892e-06
1.26892e-06
1.27324e-06
1.27524e-06
1.27468e-06
1.27227e-06
1.26892e-06
1.26892e-06
1.26892e-06
1.26892e-06
1.27299e-06
1.27324e-06
1.27517e-06
1.27495e-06
1.27309e-06
1.27317e-06
1.27325e-06
1.27323e-06
1.27324e-06
1.27324e-06
1.27516e-06
1.27514e-06
1.27493e-06
1.27327e-06
1.27524e-06
1.27517e-06
1.25617e-06
1.256e-06
1.25583e-06
1.25369e-06
1.25357e-06
1.2535e-06
1.25367e-06
1.25577e-06
1.25604e-06
1.25583e-06
1.253e-06
1.25e-06
1.25e-06
1.25e-06
1.25e-06
1.25335e-06
1.25418e-06
1.25369e-06
1.25e-06
1.25e-06
1.25e-06
1.25e-06
1.25e-06
1.25e-06
1.25426e-06
1.25622e-06
1.25617e-06
1.25357e-06
1.25e-06
1.25e-06
1.25e-06
1.25e-06
1.25e-06
1.25e-06
1.25434e-06
1.25601e-06
1.256e-06
1.2535e-06
1.25e-06
1.25e-06
1.25e-06
1.25e-06
1.25e-06
1.25e-06
1.25432e-06
1.25435e-06
1.25367e-06
1.25e-06
1.25e-06
1.25e-06
1.25e-06
1.25e-06
1.25e-06
1.25432e-06
1.25633e-06
1.25577e-06
1.25335e-06
1.25e-06
1.25e-06
1.25e-06
1.25e-06
1.25408e-06
1.25432e-06
1.25625e-06
1.25604e-06
1.25418e-06
1.25426e-06
1.25434e-06
1.25432e-06
1.25432e-06
1.25432e-06
1.25625e-06
1.25622e-06
1.25601e-06
1.25435e-06
1.25633e-06
1.25625e-06
1.23725e-06
1.23709e-06
1.23691e-06
1.23478e-06
1.23466e-06
1.23458e-06
1.23476e-06
1.23685e-06
1.23712e-06
1.23691e-06
1.23409e-06
1.23109e-06
1.23109e-06
1.23109e-06
1.23109e-06
1.23444e-06
1.23526e-06
1.23478e-06
1.23109e-06
1.23109e-06
1.23109e-06
1.23109e-06
1.23109e-06
1.23109e-06
1.23534e-06
1.23731e-06
1.23725e-06
1.23466e-06
1.23109e-06
1.23109e-06
1.23109e-06
1.23109e-06
1.23109e-06
1.23109e-06
1.23543e-06
1.2371e-06
1.23709e-06
1.23458e-06
1.23109e-06
1.23109e-06
1.23109e-06
1.23109e-06
1.23109e-06
1.23109e-06
1.2354e-06
1.23544e-06
1.23476e-06
1.23109e-06
1.23109e-06
1.23109e-06
1.23109e-06
1.23109e-06
1.23109e-06
1.23541e-06
1.23741e-06
1.23685e-06
1.23444e-06
1.23109e-06
1.23109e-06
1.23109e-06
1.23109e-06
1.23516e-06
1.23541e-06
1.23734e-06
1.23712e-06
1.23526e-06
1.23534e-06
1.23542e-06
1.2354e-06
1.23541e-06
1.23541e-06
1.23733e-06
1.2373e-06
1.2371e-06