/*--------------------------------*- C++ -*----------------------------------*\
| =========                 |                                                 |
| \\      /  F ield         | OpenFOAM: The Open Source CFD Toolbox           |
|  \\    /   O peration     | Version:  v2006                                 |
|   \\  /    A nd           | Website:  www.openfoam.com                      |
|    \\/     M anipulation  |                                                 |
\*---------------------------------------------------------------------------*/
FoamFile
{
    version     2.0;
    format      ascii;
    class       volScalarField;
    location    "625";
    object      nut;
}
// * * * * * * * * * * * * * * * * * * * * * * * * * * * * * * * * * * * * * //

dimensions      [0 2 -1 0 0 0 0];


internalField   nonuniform List<scalar> 
14258
(
8.10063e-05
4.96738e-05
8.1e-05
4.96695e-05
2.35572e-05
2.35553e-05
9.15219e-05
6.72058e-05
6.72008e-05
8.97252e-05
9.34002e-05
7.88598e-05
0.000103386
8.97139e-05
9.34195e-05
7.88556e-05
0.000103385
8.0999e-05
8.97128e-05
0.000103387
3.62146e-05
8.0827e-05
4.04497e-05
7.94071e-05
4.04491e-05
7.92787e-05
3.62147e-05
2.0126e-05
7.21545e-05
4.96717e-05
7.20959e-05
2.01259e-05
3.62139e-05
8.08205e-05
7.94006e-05
4.04486e-05
7.92706e-05
4.0448e-05
3.6214e-05
2.01257e-05
7.2153e-05
4.96673e-05
7.20903e-05
2.01256e-05
2.3557e-05
2.35551e-05
7.46323e-05
2.14711e-05
2.1468e-05
2.1471e-05
2.14679e-05
7.46882e-05
8.46851e-05
4.74407e-05
6.71003e-05
8.93934e-05
4.7436e-05
8.48852e-05
8.90732e-05
8.47118e-05
4.74295e-05
6.70943e-05
8.94056e-05
4.74247e-05
8.49171e-05
8.90592e-05
3.62118e-05
8.08185e-05
4.04482e-05
7.93978e-05
4.04477e-05
7.92619e-05
3.62119e-05
2.01245e-05
7.21325e-05
7.20746e-05
2.01244e-05
9.34009e-05
9.13311e-05
9.22542e-05
9.22619e-05
9.36806e-05
9.20425e-05
9.20501e-05
8.77521e-05
8.9239e-05
8.94925e-05
8.78601e-05
8.90657e-05
8.76389e-05
8.79663e-05
8.79342e-05
8.57783e-05
7.85912e-05
8.91325e-05
8.5499e-05
8.89267e-05
8.81522e-05
8.77387e-05
8.92246e-05
8.9484e-05
8.78513e-05
8.90513e-05
8.76289e-05
8.79548e-05
8.79233e-05
8.57792e-05
7.85845e-05
8.91259e-05
8.54838e-05
8.89195e-05
8.8143e-05
8.77435e-05
8.92263e-05
8.78545e-05
8.94825e-05
8.76318e-05
8.90528e-05
8.79601e-05
8.79245e-05
8.57669e-05
8.54942e-05
8.81454e-05
0.000111887
0.00010887
0.000113788
0.000108374
8.71613e-05
0.000110736
0.000113364
2.35503e-05
0.00011152
0.000108992
8.74657e-05
0.000114315
7.10047e-05
2.35528e-05
4.9795e-05
0.00011144
0.000109213
0.000107519
7.0929e-05
7.09727e-05
2.35529e-05
0.000107214
8.74183e-05
8.71606e-05
4.97934e-05
0.000107208
0.000110714
8.73239e-05
4.97892e-05
8.73579e-05
4.97917e-05
7.08852e-05
7.08993e-05
2.35519e-05
0.000109001
8.74059e-05
0.000107494
8.7293e-05
4.97933e-05
8.7284e-05
2.35519e-05
9.24249e-05
7.11207e-05
4.76794e-05
0.000103117
3.61949e-05
4.04508e-05
8.42897e-05
8.70099e-05
3.6196e-05
4.04496e-05
8.41615e-05
2.3549e-05
2.3555e-05
7.72383e-05
2.14527e-05
2.14527e-05
9.23823e-05
4.76667e-05
0.000102775
7.11062e-05
0.00010308
4.76729e-05
9.21912e-05
2.35543e-05
2.00813e-05
7.43009e-05
4.9799e-05
7.43674e-05
2.00805e-05
9.2285e-05
0.000102576
4.76716e-05
7.10553e-05
9.20668e-05
0.000102901
4.76764e-05
8.42904e-05
4.04503e-05
3.61969e-05
7.42791e-05
2.00816e-05
2.00798e-05
7.42601e-05
4.9785e-05
2.00806e-05
7.41883e-05
2.00798e-05
4.97872e-05
7.42707e-05
7.42053e-05
2.00806e-05
9.17532e-05
0.000102412
7.07788e-05
4.7654e-05
9.19421e-05
0.000102169
4.76477e-05
9.18192e-05
0.000102461
7.07961e-05
4.76691e-05
9.19913e-05
0.000102214
4.76608e-05
7.69498e-05
2.14508e-05
2.14519e-05
7.70641e-05
2.14495e-05
2.14498e-05
2.35505e-05
3.61981e-05
8.74417e-05
8.44007e-05
4.04512e-05
8.45147e-05
3.61974e-05
4.0452e-05
2.00803e-05
7.42926e-05
4.9797e-05
2.00796e-05
7.43541e-05
3.6196e-05
8.74379e-05
8.43787e-05
4.04508e-05
3.61952e-05
8.45027e-05
4.04516e-05
2.35533e-05
0.000108627
0.000113992
0.000112365
0.000112415
0.000112617
0.000108297
0.000112647
0.000107858
0.000112009
0.000113227
0.000112054
0.000108152
0.000111829
0.000111872
0.000110759
0.000107654
9.82417e-05
8.76896e-05
0.000107854
9.8553e-05
0.000110526
0.000108907
0.000112818
0.000112775
0.000114542
0.000113019
0.000108579
0.000113049
0.000112543
0.000107902
0.000112882
0.000105397
0.000112313
0.000113128
0.00010571
0.000112193
0.000105106
0.000111648
0.00010731
9.81641e-05
0.00011011
0.000111395
0.000112178
0.000105076
0.000106874
0.000111591
0.000111968
0.000104786
0.000109767
9.8096e-05
0.000107091
8.71132e-05
0.000109962
9.78152e-05
0.000106922
0.000109821
0.000107144
8.7149e-05
9.81513e-05
9.78697e-05
0.00010697
0.000110028
0.00011068
0.000107482
9.82334e-05
8.76463e-05
0.000107694
0.000110441
9.8541e-05
0.00011241
0.000107877
0.000112834
0.000105323
0.000113081
0.000112177
0.000105649
8.72285e-05
0.000107368
8.7226e-05
0.000107361
8.7381e-05
4.97914e-05
7.09254e-05
2.35507e-05
3.61969e-05
4.0451e-05
8.43493e-05
8.74106e-05
4.04522e-05
8.44926e-05
3.61959e-05
3.61978e-05
8.43435e-05
4.04505e-05
8.74041e-05
8.44842e-05
4.04517e-05
3.61968e-05
2.00804e-05
7.42842e-05
4.97959e-05
7.43527e-05
2.00797e-05
9.22363e-05
0.000102538
7.10465e-05
4.76582e-05
0.000102864
9.20233e-05
4.76693e-05
7.71749e-05
2.14504e-05
2.14514e-05
7.71052e-05
2.14511e-05
2.14512e-05
2.35525e-05
0.000112348
0.00011268
0.000105258
0.000107771
0.000105593
0.000112921
0.00011212
0.000112281
0.000112663
0.000105233
0.000107772
0.000112905
0.00010558
0.000112051
0.000110599
9.81837e-05
0.000107426
8.76304e-05
9.85088e-05
0.000107643
0.000110359
2.35559e-05
2.3554e-05
9.19122e-05
6.7235e-05
6.723e-05
8.10566e-05
4.96744e-05
8.10533e-05
4.96706e-05
8.98487e-05
9.36639e-05
7.88984e-05
0.000103166
8.98464e-05
9.36568e-05
7.88993e-05
0.000103154
2.35546e-05
9.19417e-05
6.72328e-05
6.72347e-05
2.35551e-05
8.10511e-05
4.96702e-05
8.98432e-05
9.36762e-05
7.88954e-05
0.000103165
8.10483e-05
4.96668e-05
8.98426e-05
9.36587e-05
0.000103157
7.88967e-05
9.36858e-05
7.891e-05
4.96713e-05
2.35532e-05
9.19257e-05
6.72297e-05
6.72388e-05
2.35547e-05
8.98393e-05
9.36834e-05
0.000103163
7.89001e-05
8.105e-05
4.96708e-05
2.35561e-05
2.35542e-05
7.47965e-05
2.14697e-05
2.14666e-05
7.47154e-05
2.14699e-05
2.14669e-05
8.51387e-05
6.73412e-05
4.74427e-05
8.95302e-05
8.49327e-05
4.74476e-05
8.98467e-05
8.51737e-05
6.73369e-05
4.74314e-05
8.95124e-05
8.49571e-05
4.74364e-05
8.98658e-05
3.62137e-05
8.12332e-05
4.04492e-05
7.94583e-05
3.62136e-05
4.04497e-05
7.95853e-05
2.01237e-05
4.96765e-05
7.21707e-05
2.01238e-05
7.22293e-05
3.62115e-05
8.12301e-05
4.04491e-05
7.94473e-05
3.62114e-05
4.04496e-05
7.9575e-05
2.0122e-05
4.96731e-05
7.2151e-05
2.01221e-05
7.22097e-05
2.35551e-05
7.48183e-05
2.14669e-05
2.14694e-05
7.47508e-05
2.14671e-05
2.1469e-05
8.51852e-05
6.73329e-05
4.74327e-05
8.95409e-05
8.98679e-05
8.49934e-05
4.74391e-05
8.51686e-05
6.73446e-05
4.74399e-05
8.95379e-05
8.49405e-05
4.74432e-05
8.98706e-05
2.35551e-05
3.6213e-05
8.1231e-05
7.9454e-05
4.04481e-05
3.62129e-05
7.9586e-05
4.04486e-05
2.01235e-05
4.96723e-05
7.21716e-05
2.01235e-05
7.22347e-05
3.62108e-05
8.12283e-05
4.04477e-05
7.94417e-05
3.62107e-05
4.04483e-05
7.9578e-05
2.01222e-05
4.96689e-05
7.21487e-05
2.01223e-05
7.22084e-05
2.01234e-05
4.96729e-05
7.2171e-05
2.01235e-05
7.2229e-05
2.35535e-05
7.47961e-05
2.14664e-05
2.14698e-05
7.47552e-05
2.14663e-05
2.14697e-05
8.51962e-05
6.73364e-05
4.74317e-05
8.95426e-05
8.98722e-05
8.49951e-05
4.74363e-05
8.51686e-05
4.74428e-05
8.95446e-05
6.73431e-05
8.49666e-05
4.74473e-05
8.98805e-05
2.35549e-05
7.94478e-05
4.04485e-05
3.62134e-05
7.21633e-05
2.01234e-05
0.000119508
0.000144627
0.000144642
0.000168852
0.000119491
0.00014462
0.000144631
0.000168847
0.00011951
0.000144624
0.000144637
0.000168844
0.000119496
0.000144624
0.000144635
0.000168847
9.4185e-05
9.21055e-05
9.26725e-05
9.26804e-05
9.38937e-05
9.28858e-05
9.28939e-05
8.86592e-05
9.03333e-05
8.96089e-05
8.83192e-05
8.84433e-05
9.0035e-05
8.85423e-05
8.88365e-05
7.91661e-05
8.59285e-05
8.95257e-05
8.97316e-05
8.86176e-05
8.62153e-05
8.86573e-05
9.03312e-05
8.96031e-05
8.83182e-05
8.84419e-05
9.003e-05
8.85413e-05
8.88356e-05
7.91619e-05
8.59179e-05
8.95293e-05
8.8618e-05
8.62154e-05
8.97345e-05
9.42143e-05
9.21313e-05
9.26963e-05
9.26966e-05
9.29107e-05
9.3918e-05
9.29068e-05
8.86548e-05
9.03369e-05
8.96061e-05
8.83139e-05
8.84353e-05
9.0042e-05
8.85408e-05
8.88327e-05
7.91641e-05
8.59249e-05
8.95203e-05
8.97273e-05
8.86113e-05
8.62258e-05
8.86604e-05
9.0334e-05
8.83177e-05
8.96025e-05
8.84415e-05
8.85442e-05
9.00342e-05
8.88366e-05
7.91608e-05
8.59284e-05
8.95297e-05
8.86154e-05
8.62084e-05
8.9737e-05
8.88544e-05
7.91727e-05
8.59444e-05
8.95415e-05
8.86349e-05
8.97476e-05
8.62308e-05
9.42169e-05
9.21197e-05
9.26994e-05
9.26971e-05
9.29127e-05
9.39322e-05
9.29104e-05
8.83094e-05
8.96024e-05
8.84306e-05
8.59337e-05
8.95329e-05
8.86108e-05
2.35519e-05
2.35505e-05
9.43654e-05
6.77636e-05
6.77589e-05
8.19333e-05
4.96813e-05
9.12674e-05
9.49101e-05
8.00905e-05
0.000102424
8.19313e-05
9.1126e-05
0.000102401
2.35522e-05
2.35508e-05
7.51145e-05
2.14636e-05
2.1462e-05
2.14641e-05
2.14615e-05
7.50588e-05
8.61408e-05
4.74647e-05
9.13539e-05
6.7859e-05
4.74727e-05
8.59587e-05
9.16529e-05
8.61743e-05
4.74628e-05
9.13466e-05
6.78573e-05
4.74639e-05
9.16575e-05
8.59739e-05
3.62085e-05
8.01432e-05
4.04476e-05
8.20918e-05
8.02605e-05
4.0448e-05
3.62084e-05
2.01148e-05
7.24567e-05
4.96831e-05
7.25107e-05
2.01148e-05
3.62063e-05
4.04472e-05
8.20904e-05
8.01327e-05
4.04476e-05
8.02528e-05
3.62063e-05
0.000118825
9.09355e-05
9.09319e-05
7.94666e-05
8.14576e-05
9.09476e-05
9.39741e-05
0.000102927
8.14569e-05
9.27135e-05
0.000102918
9.39491e-05
9.27216e-05
2.35528e-05
9.31182e-05
0.000142258
9.42085e-05
9.10512e-05
9.10468e-05
7.95048e-05
8.15071e-05
9.10653e-05
8.15029e-05
0.000143825
0.000143823
0.000143834
2.35511e-05
9.42315e-05
7.95043e-05
2.3555e-05
2.35532e-05
6.74775e-05
6.74728e-05
9.27047e-05
8.14553e-05
4.96793e-05
8.14521e-05
4.96767e-05
7.947e-05
9.39039e-05
0.000102891
7.94594e-05
0.000102906
9.3937e-05
2.35545e-05
6.74701e-05
9.2716e-05
6.7467e-05
2.35531e-05
4.96749e-05
8.14613e-05
9.09514e-05
9.39291e-05
0.000102908
4.96716e-05
9.39292e-05
0.000102921
7.94589e-05
0.000102957
7.94595e-05
9.09484e-05
4.96744e-05
8.14603e-05
9.39279e-05
9.09426e-05
7.94519e-05
4.96716e-05
2.35524e-05
6.74659e-05
6.74729e-05
2.35539e-05
9.3941e-05
7.94668e-05
0.000102921
4.96756e-05
6.7463e-05
6.74915e-05
6.75005e-05
2.35526e-05
4.96762e-05
8.15041e-05
4.96798e-05
8.18868e-05
4.96845e-05
2.35535e-05
2.35521e-05
4.96755e-05
8.15119e-05
8.18879e-05
4.96807e-05
0.000143017
0.000142239
0.000102728
7.94936e-05
9.10555e-05
9.45342e-05
8.0042e-05
2.35538e-05
2.35531e-05
2.35519e-05
2.35517e-05
6.75061e-05
6.7502e-05
9.3121e-05
9.39421e-05
6.77367e-05
6.77337e-05
8.15005e-05
4.96777e-05
8.18817e-05
4.96813e-05
7.95079e-05
9.42408e-05
0.000102742
9.21187e-05
9.45222e-05
8.0057e-05
0.000102527
7.94951e-05
0.000102719
9.41997e-05
9.21112e-05
9.45113e-05
8.00416e-05
0.000102532
8.19346e-05
4.96851e-05
8.19296e-05
9.22268e-05
9.48913e-05
8.00926e-05
0.000102412
9.22203e-05
0.000102371
6.74948e-05
9.31167e-05
6.74949e-05
9.38975e-05
6.77218e-05
6.77201e-05
2.35516e-05
2.35521e-05
9.10684e-05
9.42554e-05
0.000102749
9.07798e-05
9.45455e-05
8.00551e-05
0.000102547
4.96722e-05
4.96768e-05
8.18872e-05
9.4206e-05
0.000102733
7.94946e-05
9.0889e-05
9.45233e-05
9.06507e-05
0.000102555
4.96747e-05
8.15059e-05
4.96808e-05
9.10507e-05
7.48283e-05
2.14687e-05
2.14656e-05
2.14686e-05
2.14655e-05
7.49091e-05
7.48312e-05
2.14669e-05
2.14663e-05
2.14661e-05
2.1467e-05
7.48726e-05
3.62097e-05
4.04482e-05
7.97585e-05
8.12787e-05
4.04477e-05
7.96223e-05
3.62098e-05
3.62108e-05
4.04489e-05
7.97516e-05
8.12877e-05
4.04485e-05
7.96311e-05
3.62108e-05
2.35528e-05
7.49892e-05
2.14672e-05
2.14641e-05
7.49317e-05
2.14672e-05
2.14641e-05
7.49333e-05
2.14658e-05
2.14645e-05
7.48842e-05
2.14658e-05
2.14648e-05
3.62086e-05
4.04476e-05
7.98014e-05
8.16789e-05
3.62086e-05
4.04481e-05
7.99318e-05
3.62097e-05
4.04483e-05
7.97979e-05
8.16644e-05
3.62097e-05
4.04488e-05
7.99162e-05
2.35514e-05
2.35548e-05
2.35529e-05
8.52017e-05
4.74546e-05
9.03106e-05
6.7371e-05
4.74496e-05
8.99926e-05
8.54067e-05
8.52216e-05
4.74433e-05
9.03317e-05
6.73667e-05
4.74383e-05
8.9969e-05
8.54461e-05
3.62125e-05
4.04497e-05
7.97609e-05
8.12828e-05
4.04492e-05
7.96354e-05
3.62126e-05
2.01216e-05
7.2304e-05
4.96771e-05
7.22455e-05
2.01215e-05
3.62104e-05
4.04496e-05
7.97486e-05
8.12799e-05
4.04491e-05
7.96249e-05
3.62104e-05
2.01199e-05
7.22813e-05
4.96742e-05
7.22247e-05
2.01198e-05
2.3554e-05
8.52561e-05
4.74548e-05
9.03379e-05
6.73665e-05
8.99946e-05
4.74456e-05
8.5446e-05
8.52099e-05
4.74405e-05
9.0308e-05
6.73655e-05
4.74407e-05
9.0005e-05
8.53958e-05
2.35532e-05
2.01213e-05
7.23086e-05
4.96729e-05
7.22512e-05
2.01212e-05
3.62119e-05
7.97668e-05
4.04486e-05
8.12834e-05
7.96385e-05
4.04481e-05
3.62119e-05
2.01201e-05
7.22862e-05
4.96695e-05
7.22256e-05
2.012e-05
2.01212e-05
7.22974e-05
4.96728e-05
7.22422e-05
2.01211e-05
3.62121e-05
7.97653e-05
4.04486e-05
8.12908e-05
7.96374e-05
4.04481e-05
3.62121e-05
2.01203e-05
7.22801e-05
4.96702e-05
7.22254e-05
2.01203e-05
2.35521e-05
8.52312e-05
9.03144e-05
6.73623e-05
4.74427e-05
8.99963e-05
4.74381e-05
8.54256e-05
8.52027e-05
9.03229e-05
6.73709e-05
4.74537e-05
4.74491e-05
8.9998e-05
8.53983e-05
7.48089e-05
2.14649e-05
2.14682e-05
2.14648e-05
2.14681e-05
7.48601e-05
2.35536e-05
3.62136e-05
8.12304e-05
7.95867e-05
4.04491e-05
2.01212e-05
4.96735e-05
7.23024e-05
7.22414e-05
2.01212e-05
2.01234e-05
4.96729e-05
7.22261e-05
8.51948e-05
9.03141e-05
6.73646e-05
4.74414e-05
8.53854e-05
8.99864e-05
4.74411e-05
8.56683e-05
9.04379e-05
6.75946e-05
4.74445e-05
4.74493e-05
8.5464e-05
9.0754e-05
8.56418e-05
9.04403e-05
4.74555e-05
6.76022e-05
9.07637e-05
8.5436e-05
4.74603e-05
7.49527e-05
2.14635e-05
2.14668e-05
2.14637e-05
7.48828e-05
2.14671e-05
2.35529e-05
2.0119e-05
7.23161e-05
4.96782e-05
7.23735e-05
2.0119e-05
3.62115e-05
4.04491e-05
7.98095e-05
8.16727e-05
3.62114e-05
4.04495e-05
7.99341e-05
2.01193e-05
7.23199e-05
4.96819e-05
2.01194e-05
7.23783e-05
3.62101e-05
8.1721e-05
4.04494e-05
8.01021e-05
4.04489e-05
7.99799e-05
3.62101e-05
2.01169e-05
4.96825e-05
7.24467e-05
7.2391e-05
2.01169e-05
2.35538e-05
2.35523e-05
2.0119e-05
7.23219e-05
4.96776e-05
2.0119e-05
7.23753e-05
3.62108e-05
7.98153e-05
4.0448e-05
8.16812e-05
3.62107e-05
7.99358e-05
4.04485e-05
3.62096e-05
8.17278e-05
8.00976e-05
4.04482e-05
7.99814e-05
4.04478e-05
3.62096e-05
2.01169e-05
4.96784e-05
7.24422e-05
7.23882e-05
2.01168e-05
2.3554e-05
2.35528e-05
2.35524e-05
2.35514e-05
8.56612e-05
4.74564e-05
9.04642e-05
6.76109e-05
8.54823e-05
4.74609e-05
9.07733e-05
8.56986e-05
4.74453e-05
9.04409e-05
6.76057e-05
8.54969e-05
4.74504e-05
9.07954e-05
7.50022e-05
2.14651e-05
2.14634e-05
2.14654e-05
2.14628e-05
7.50438e-05
8.57417e-05
6.76387e-05
4.7463e-05
9.12162e-05
4.74617e-05
9.09246e-05
8.59003e-05
8.57529e-05
6.76332e-05
4.7461e-05
9.12399e-05
4.74533e-05
9.09023e-05
8.59457e-05
3.62093e-05
4.0449e-05
7.97969e-05
8.16682e-05
3.62092e-05
4.04494e-05
7.99181e-05
2.01176e-05
7.22967e-05
4.96796e-05
2.01177e-05
7.23527e-05
3.62081e-05
8.17161e-05
4.04493e-05
8.0086e-05
4.04488e-05
7.99657e-05
3.62082e-05
2.01156e-05
4.96798e-05
7.24226e-05
7.23678e-05
2.01155e-05
3.6209e-05
4.04487e-05
8.01465e-05
8.20966e-05
3.6209e-05
4.04491e-05
8.02635e-05
2.01148e-05
7.24572e-05
4.96871e-05
2.01148e-05
7.2509e-05
3.62071e-05
4.04486e-05
8.01329e-05
8.20923e-05
3.6207e-05
4.0449e-05
8.02509e-05
8.56749e-05
4.74574e-05
9.04423e-05
6.76017e-05
8.54752e-05
4.74606e-05
9.07726e-05
8.56246e-05
4.74413e-05
9.0448e-05
6.75881e-05
8.54562e-05
9.07397e-05
4.74472e-05
7.49554e-05
2.14632e-05
2.14649e-05
2.14637e-05
2.1464e-05
7.503e-05
8.56921e-05
6.76216e-05
4.74574e-05
9.1188e-05
4.74576e-05
9.08779e-05
8.59036e-05
8.56918e-05
6.76201e-05
4.74636e-05
9.1184e-05
9.08792e-05
4.74537e-05
8.58859e-05
2.35523e-05
2.35515e-05
2.01178e-05
7.23021e-05
4.96742e-05
2.01179e-05
7.23589e-05
2.01157e-05
4.96748e-05
7.24242e-05
7.23723e-05
2.01156e-05
3.62074e-05
8.17249e-05
8.00946e-05
4.04479e-05
4.04475e-05
7.99716e-05
3.62075e-05
2.0119e-05
7.23084e-05
4.96772e-05
2.01189e-05
7.23642e-05
3.6211e-05
7.98036e-05
4.0448e-05
8.16666e-05
3.62109e-05
7.99255e-05
4.04484e-05
2.01168e-05
4.96783e-05
7.24341e-05
7.23766e-05
2.01169e-05
9.52255e-05
9.58979e-05
9.52382e-05
9.45581e-05
9.54331e-05
9.61751e-05
9.54415e-05
9.11275e-05
9.22252e-05
9.17297e-05
9.14811e-05
9.2695e-05
9.21452e-05
9.13504e-05
9.13652e-05
9.19118e-05
8.76024e-05
9.15804e-05
8.03402e-05
9.21092e-05
8.79157e-05
9.22237e-05
9.12599e-05
9.17208e-05
9.14726e-05
9.26901e-05
9.13483e-05
9.21337e-05
0.00014382
0.000143835
0.000168178
8.91417e-05
9.05741e-05
8.92328e-05
9.0453e-05
9.01488e-05
8.90085e-05
8.93585e-05
8.91386e-05
9.05638e-05
8.92311e-05
9.04512e-05
9.0142e-05
8.90071e-05
8.93539e-05
8.93045e-05
8.66602e-05
9.03311e-05
7.92033e-05
9.01233e-05
8.63613e-05
8.95258e-05
8.91483e-05
8.92458e-05
9.05791e-05
9.04612e-05
8.90178e-05
9.01516e-05
8.93674e-05
9.44154e-05
9.35407e-05
9.2521e-05
9.35383e-05
9.33317e-05
9.33292e-05
9.46972e-05
9.44292e-05
9.35251e-05
9.25328e-05
9.3553e-05
9.46844e-05
9.33221e-05
9.33453e-05
9.51836e-05
9.39529e-05
9.331e-05
9.39505e-05
9.41598e-05
9.48938e-05
9.41619e-05
0.000117565
0.000118213
0.000143027
0.00014305
0.000142238
0.000166841
0.000167508
9.00637e-05
9.06846e-05
8.97053e-05
9.15303e-05
8.98464e-05
9.11075e-05
8.99307e-05
9.00523e-05
9.06707e-05
8.97021e-05
9.15241e-05
8.98374e-05
9.10891e-05
8.99266e-05
9.02173e-05
8.67823e-05
9.0728e-05
7.97626e-05
8.99975e-05
8.70815e-05
9.09345e-05
9.00739e-05
8.97242e-05
9.06884e-05
9.15409e-05
8.98572e-05
8.99503e-05
9.11074e-05
0.000118863
0.00014385
0.000168179
0.000118835
0.000143836
0.000168173
0.000118835
0.000143822
0.000168174
9.0216e-05
9.07266e-05
8.6795e-05
7.97617e-05
8.99966e-05
9.0929e-05
8.70741e-05
9.4406e-05
9.35269e-05
9.35354e-05
9.25081e-05
9.33095e-05
9.3318e-05
9.47075e-05
8.93042e-05
8.66504e-05
9.03333e-05
7.92057e-05
9.01261e-05
8.63576e-05
8.9524e-05
8.93005e-05
8.66416e-05
9.03312e-05
7.91999e-05
8.63419e-05
9.01271e-05
8.95177e-05
9.4423e-05
9.35499e-05
9.35289e-05
9.25252e-05
9.33368e-05
9.33207e-05
9.47116e-05
8.91444e-05
9.05887e-05
8.92436e-05
9.04641e-05
9.016e-05
8.90151e-05
8.93644e-05
8.93071e-05
8.66429e-05
9.03338e-05
7.91987e-05
8.63596e-05
9.01303e-05
8.95268e-05
8.93202e-05
9.03403e-05
8.66504e-05
7.9206e-05
9.01386e-05
8.63676e-05
8.95365e-05
8.9164e-05
8.92568e-05
9.05839e-05
9.04751e-05
9.01677e-05
8.90341e-05
8.93784e-05
8.91572e-05
8.92531e-05
9.05696e-05
9.04699e-05
8.90312e-05
9.01549e-05
8.93703e-05
8.93144e-05
9.03341e-05
8.66373e-05
7.91972e-05
8.63505e-05
9.01347e-05
8.95294e-05
8.86499e-05
9.03287e-05
8.85355e-05
9.00335e-05
8.93045e-05
9.03384e-05
7.92048e-05
8.66468e-05
8.95256e-05
9.01343e-05
8.6368e-05
8.88323e-05
7.91663e-05
8.97401e-05
8.62081e-05
0.000118163
0.000143032
0.000117578
0.000142243
0.00014226
0.000166842
0.000167505
0.000143038
0.00011818
0.000143023
0.000142254
0.000117573
0.000166838
0.000167502
9.02089e-05
9.07236e-05
8.6772e-05
7.97459e-05
8.99965e-05
9.09219e-05
8.70596e-05
9.00671e-05
8.97221e-05
9.06823e-05
9.15178e-05
8.98571e-05
9.10908e-05
8.99405e-05
9.06641e-05
7.97854e-05
8.74771e-05
9.14982e-05
9.12999e-05
8.71774e-05
9.08766e-05
9.5222e-05
9.39582e-05
9.39668e-05
9.33206e-05
9.49272e-05
9.41753e-05
9.41844e-05
9.48065e-05
9.57088e-05
9.48306e-05
9.54257e-05
9.37454e-05
9.46073e-05
9.46067e-05
9.02142e-05
8.67831e-05
9.07294e-05
7.97676e-05
8.9994e-05
8.70803e-05
9.09359e-05
9.05544e-05
9.1643e-05
9.16324e-05
9.06336e-05
9.12139e-05
9.04083e-05
9.07709e-05
9.15284e-05
9.06827e-05
7.98044e-05
8.74993e-05
8.72016e-05
9.13274e-05
9.09007e-05
9.01964e-05
8.67573e-05
9.07174e-05
7.9752e-05
8.99798e-05
8.70622e-05
9.09187e-05
9.05376e-05
9.16362e-05
9.16117e-05
9.0627e-05
9.11947e-05
9.04022e-05
9.07527e-05
9.06566e-05
7.97864e-05
8.74828e-05
9.14972e-05
8.71704e-05
9.0873e-05
9.12979e-05
9.14754e-05
9.17325e-05
9.11138e-05
9.26959e-05
9.12609e-05
9.21441e-05
9.13386e-05
9.19095e-05
9.21074e-05
8.03395e-05
9.15787e-05
8.7608e-05
9.1364e-05
8.79053e-05
9.14559e-05
9.17164e-05
9.11062e-05
9.26897e-05
9.1241e-05
9.21282e-05
9.13312e-05
9.51844e-05
9.39643e-05
9.39428e-05
9.33054e-05
9.49036e-05
9.41512e-05
9.41692e-05
9.53686e-05
9.37088e-05
9.4772e-05
9.47718e-05
9.45637e-05
9.45685e-05
9.56584e-05
9.00744e-05
9.06954e-05
8.97229e-05
9.1544e-05
8.98564e-05
9.11146e-05
8.99496e-05
9.06513e-05
9.212e-05
9.16299e-05
9.05645e-05
9.16507e-05
9.12137e-05
9.04276e-05
9.09029e-05
9.15291e-05
8.75005e-05
9.06855e-05
7.98002e-05
8.71932e-05
9.1326e-05
9.02111e-05
8.67811e-05
9.07196e-05
7.9752e-05
8.99938e-05
9.09211e-05
8.70656e-05
8.74801e-05
8.00438e-05
9.06735e-05
7.9788e-05
9.15051e-05
9.13037e-05
8.7192e-05
9.21172e-05
9.0775e-05
9.16222e-05
9.05611e-05
9.16493e-05
9.04274e-05
9.12085e-05
9.00593e-05
8.97182e-05
9.06718e-05
9.15141e-05
8.98485e-05
8.9937e-05
9.1082e-05
7.10193e-05
0.000115805
9.5572e-05
9.56018e-05
9.55801e-05
0.000113712
9.72669e-05
9.7201e-05
9.80823e-05
0.000112016
9.91489e-05
9.91522e-05
0.000100705
0.000110843
0.000101487
0.00010156
0.000103547
0.00010976
0.000103771
0.000103813
0.000105916
0.000108813
0.000106101
0.000106085
0.000108731
0.000108773
0.000109
0.000108898
0.000111868
0.000108841
0.000112046
9.51655e-05
9.52265e-05
9.52104e-05
9.55834e-05
9.76452e-05
9.55636e-05
9.55627e-05
9.67977e-05
9.6778e-05
9.55551e-05
9.76653e-05
9.55786e-05
9.55677e-05
9.67932e-05
9.67779e-05
9.55773e-05
9.67936e-05
9.68242e-05
9.55887e-05
9.7655e-05
9.56088e-05
9.68041e-05
9.68263e-05
9.76652e-05
9.80902e-05
0.000100237
9.71894e-05
9.72483e-05
9.86306e-05
9.85856e-05
9.81104e-05
0.000100224
9.71936e-05
9.71746e-05
9.86451e-05
9.86243e-05
9.71892e-05
9.86141e-05
9.85387e-05
9.809e-05
0.000100227
9.71852e-05
9.86229e-05
9.85574e-05
0.000100184
0.000100708
0.000103047
9.91389e-05
9.91365e-05
0.000100889
0.000100854
0.000100688
0.000103036
9.91429e-05
9.91555e-05
0.000100925
0.000100835
9.91454e-05
0.000100899
0.000100968
0.0001007
0.000103026
9.91717e-05
0.00010086
0.000100966
0.000103101
0.000103557
0.000105709
0.000101539
0.000101467
0.000103274
0.000103232
0.000103534
0.000105681
0.000101578
0.000101518
0.000103233
0.000103314
0.000101461
0.000103255
0.000103114
0.000103533
0.000105747
0.000101471
0.000103341
0.000103131
0.000105475
0.000106125
0.000108086
0.000103803
0.000103755
0.000105447
0.000105471
0.000106108
0.000108116
0.000103765
0.000103805
0.000105482
0.000105457
0.00010371
0.000105485
0.000105431
0.000106169
0.000108079
0.000103719
0.000105467
0.000105454
0.000108191
0.000108548
0.000110811
0.000106043
0.000106132
0.000108087
0.000108116
0.000108588
0.000110854
0.000106091
0.000106083
0.000108122
0.000108067
0.000106173
0.000108194
0.000108743
0.00010855
0.000110868
0.000106202
0.000108112
0.000108714
0.000111383
0.000111331
0.000113899
0.000108825
0.00010894
0.000111251
8.74588e-05
0.000111365
7.09916e-05
0.000108853
0.00010883
0.000111262
0.00011122
0.00010946
0.000111096
0.000111372
0.000113818
0.000109429
0.000111226
8.75033e-05
0.000112048
0.000114368
2.35539e-05
8.27053e-05
4.96905e-05
8.23457e-05
4.9696e-05
2.35487e-05
2.35485e-05
8.26949e-05
4.96861e-05
8.23448e-05
4.96914e-05
0.000164839
0.000115797
0.000115824
0.000114243
0.000114207
0.000114244
0.000114248
9.43717e-05
9.26849e-05
0.000102159
9.59566e-05
9.26425e-05
8.11782e-05
0.000102079
2.35474e-05
2.35471e-05
9.43953e-05
0.000102195
9.3065e-05
9.60103e-05
0.000102134
8.11825e-05
9.26755e-05
6.8011e-05
6.80119e-05
9.64228e-05
6.824e-05
6.82341e-05
8.34765e-05
4.97025e-05
8.3151e-05
4.97078e-05
2.35463e-05
2.35463e-05
8.34831e-05
4.96984e-05
8.31488e-05
4.97035e-05
0.000113775
0.000113703
0.000113722
0.000112401
0.00011237
0.000112377
0.000112298
9.65443e-05
8.17661e-05
0.000102084
9.77023e-05
9.56338e-05
8.22401e-05
0.0001021
2.35449e-05
2.3545e-05
9.65516e-05
0.000102042
8.17499e-05
9.76668e-05
9.55839e-05
0.00010205
8.22434e-05
6.84676e-05
6.84675e-05
9.88508e-05
6.86576e-05
6.86561e-05
8.42354e-05
4.97156e-05
8.38959e-05
4.97215e-05
2.35449e-05
2.35453e-05
8.42515e-05
4.97115e-05
8.38929e-05
4.97171e-05
0.000112002
0.000112028
0.000111992
0.000111069
0.000111054
0.000110998
0.000111126
9.87153e-05
8.28109e-05
0.000102313
9.97267e-05
9.77478e-05
8.32964e-05
0.00010249
2.35435e-05
2.3544e-05
9.86758e-05
0.000102285
8.28036e-05
9.96666e-05
9.77211e-05
0.000102439
8.32841e-05
6.89672e-05
6.8962e-05
0.0001017
6.91833e-05
6.91825e-05
8.49291e-05
4.97285e-05
8.46263e-05
4.97345e-05
2.35442e-05
2.35448e-05
8.49337e-05
4.97244e-05
8.46305e-05
4.97296e-05
0.000110757
0.000110824
0.000110778
0.000110043
0.000110038
0.000110115
0.000109904
0.000100759
8.38509e-05
0.000103083
0.000102104
9.98145e-05
8.43071e-05
0.000103326
2.3543e-05
2.35435e-05
0.000100795
0.000103133
8.38653e-05
0.000102178
9.987e-05
0.000103441
8.43279e-05
6.94138e-05
6.94108e-05
0.000104304
6.95666e-05
6.95641e-05
8.55719e-05
4.97421e-05
8.53009e-05
4.97486e-05
2.35441e-05
2.35453e-05
8.55662e-05
4.97375e-05
8.52811e-05
4.97453e-05
0.000109736
0.000109781
0.000109673
0.000109004
0.000109025
0.000109012
0.000108985
0.000102611
8.47682e-05
0.000104129
0.000104307
0.000101791
8.51868e-05
0.000104357
2.35426e-05
2.35437e-05
0.000102606
0.000104179
8.47782e-05
0.00010433
0.000101781
0.00010438
8.51764e-05
6.9777e-05
6.97622e-05
0.000106773
6.99456e-05
6.99486e-05
8.6211e-05
4.97586e-05
8.59208e-05
4.9767e-05
2.35459e-05
2.35476e-05
8.6208e-05
4.97548e-05
8.59585e-05
4.97623e-05
0.000108877
0.000108827
0.000108936
0.000108556
0.000108554
0.000108514
0.000109089
0.000104447
8.56597e-05
0.000105203
0.000106785
0.000103641
8.60918e-05
0.000105577
2.35444e-05
2.35461e-05
0.000104453
0.000105213
8.5658e-05
0.000106756
0.000103642
0.000105552
8.60866e-05
7.01935e-05
7.01865e-05
0.000109784
7.04897e-05
7.04644e-05
8.68418e-05
4.97782e-05
8.65754e-05
4.97874e-05
2.35487e-05
2.3551e-05
8.68716e-05
4.97742e-05
8.65554e-05
4.97829e-05
0.00012324
0.000108573
0.000108671
0.000108554
0.000109217
0.000108872
0.000108868
0.00010638
8.65937e-05
0.00010709
0.000109738
0.000105628
8.6974e-05
0.000107617
2.35473e-05
2.35497e-05
0.000106377
0.000106891
8.65568e-05
0.000109691
0.000105511
0.000107497
8.69939e-05
7.06567e-05
7.06593e-05
0.000112516
7.06922e-05
7.07047e-05
0.00012274
0.000109091
0.000108998
2.35514e-05
8.75335e-05
2.35514e-05
2.35495e-05
6.79831e-05
6.79768e-05
4.96854e-05
8.22985e-05
8.06163e-05
0.000102286
9.32658e-05
4.9682e-05
8.22955e-05
4.96773e-05
9.48431e-05
0.000102275
9.24715e-05
9.32599e-05
9.20895e-05
2.35502e-05
2.355e-05
2.35483e-05
2.35481e-05
6.80098e-05
6.80024e-05
9.63866e-05
6.82307e-05
6.82231e-05
2.35488e-05
2.35489e-05
2.35469e-05
2.3547e-05
9.682e-05
6.84658e-05
6.84599e-05
6.82564e-05
6.82493e-05
8.27042e-05
4.96871e-05
8.23433e-05
4.96925e-05
9.43868e-05
9.30484e-05
0.000102156
9.59615e-05
9.26634e-05
8.11793e-05
0.000102104
9.43855e-05
9.30458e-05
0.000102155
9.59417e-05
9.26554e-05
8.11738e-05
0.0001021
8.27518e-05
4.97018e-05
4.96967e-05
8.3109e-05
8.27508e-05
4.96982e-05
4.96932e-05
8.31082e-05
9.4492e-05
9.63367e-05
8.17245e-05
0.000102062
8.12159e-05
0.000102036
9.55095e-05
9.44927e-05
9.63677e-05
8.17253e-05
0.000102059
8.12115e-05
0.000102054
9.55095e-05
6.80054e-05
6.801e-05
9.63947e-05
6.82233e-05
6.82302e-05
2.35496e-05
2.35493e-05
2.35473e-05
2.35474e-05
9.68371e-05
6.8462e-05
6.84675e-05
6.82486e-05
6.82558e-05
2.35481e-05
2.35483e-05
9.43602e-05
8.06503e-05
0.000102162
9.5969e-05
9.33631e-05
8.11672e-05
0.0001021
8.26951e-05
4.96827e-05
8.23407e-05
4.9688e-05
9.4359e-05
0.000102165
9.30495e-05
9.59726e-05
9.33615e-05
0.000102094
8.11653e-05
8.27394e-05
4.96978e-05
4.96922e-05
8.31006e-05
9.44568e-05
9.63326e-05
8.17203e-05
0.00010203
8.12047e-05
0.000102013
9.54962e-05
8.27386e-05
4.96941e-05
4.96887e-05
8.30977e-05
9.44595e-05
9.63433e-05
0.000102024
8.17135e-05
0.000102031
8.12011e-05
9.54902e-05
8.27041e-05
4.96878e-05
8.23464e-05
4.96934e-05
9.43749e-05
0.000102154
9.30494e-05
9.59806e-05
9.26438e-05
0.000102096
8.11973e-05
8.27041e-05
4.9685e-05
8.23445e-05
4.96902e-05
9.44876e-05
9.63684e-05
8.17341e-05
0.00010204
8.12175e-05
0.000102047
9.55348e-05
8.27518e-05
4.96992e-05
4.96941e-05
8.31184e-05
9.4493e-05
9.63795e-05
0.000102072
8.17154e-05
0.000102044
8.12341e-05
9.5532e-05
8.27523e-05
4.96955e-05
4.96908e-05
8.31166e-05
6.80049e-05
6.8015e-05
9.64117e-05
6.82207e-05
6.82327e-05
2.35491e-05
2.35488e-05
2.35459e-05
2.3546e-05
9.6846e-05
6.84552e-05
6.84619e-05
6.82455e-05
6.82569e-05
2.35476e-05
2.35477e-05
9.43929e-05
0.000102185
9.30555e-05
9.60055e-05
0.00010213
8.11895e-05
9.26603e-05
8.27112e-05
4.96869e-05
4.9692e-05
8.23429e-05
8.27083e-05
4.96835e-05
4.96881e-05
8.23396e-05
9.44952e-05
9.63679e-05
0.000102041
8.17167e-05
0.000102063
8.1217e-05
9.54937e-05
9.44933e-05
9.63935e-05
0.000102058
8.17042e-05
0.000102053
8.12234e-05
9.54867e-05
8.27582e-05
4.96978e-05
4.96926e-05
8.31015e-05
8.27548e-05
4.96937e-05
4.96887e-05
8.30962e-05
2.35487e-05
2.35484e-05
2.35476e-05
2.35473e-05
9.68631e-05
6.84515e-05
6.84501e-05
6.82653e-05
6.82587e-05
2.35469e-05
2.35473e-05
2.3546e-05
2.35462e-05
2.35478e-05
2.35479e-05
2.35459e-05
2.3546e-05
6.84896e-05
6.84833e-05
9.8925e-05
6.86959e-05
6.86888e-05
2.35473e-05
2.3547e-05
2.35454e-05
2.35451e-05
9.93797e-05
6.89252e-05
6.89215e-05
6.87194e-05
6.87129e-05
8.34735e-05
4.96987e-05
8.31501e-05
4.97039e-05
9.65678e-05
8.17586e-05
0.00010203
9.76666e-05
9.56015e-05
8.22502e-05
0.000102075
9.65621e-05
8.17586e-05
0.000102053
9.76683e-05
9.56021e-05
8.22382e-05
0.000102085
8.35171e-05
4.97148e-05
4.97086e-05
8.38514e-05
8.35137e-05
4.97111e-05
4.97047e-05
8.38483e-05
9.66536e-05
9.81292e-05
8.27702e-05
0.000102201
8.22837e-05
0.00010211
9.76216e-05
9.66482e-05
9.81276e-05
8.27577e-05
0.000102183
8.22696e-05
0.00010211
9.76157e-05
6.84864e-05
6.84912e-05
9.89441e-05
6.86864e-05
6.86911e-05
2.35471e-05
2.35472e-05
2.35457e-05
2.35454e-05
9.93907e-05
6.89136e-05
6.89233e-05
6.87079e-05