/*--------------------------------*- C++ -*----------------------------------*\
| =========                 |                                                 |
| \\      /  F ield         | OpenFOAM: The Open Source CFD Toolbox           |
|  \\    /   O peration     | Version:  v2006                                 |
|   \\  /    A nd           | Website:  www.openfoam.com                      |
|    \\/     M anipulation  |                                                 |
\*---------------------------------------------------------------------------*/
FoamFile
{
    version     2.0;
    format      ascii;
    class       volScalarField;
    location    "625";
    object      p;
}
// * * * * * * * * * * * * * * * * * * * * * * * * * * * * * * * * * * * * * //

dimensions      [0 2 -2 0 0 0 0];


internalField   nonuniform List<scalar> 
14258
(
0.0023276
0.00232755
0.0023276
0.00232754
0.00232754
0.00232754
0.00232792
0.00232757
0.00232757
0.00232777
0.00233013
0.00232765
0.00233014
0.00232777
0.00233013
0.00232765
0.00233014
0.0023276
0.00232777
0.00233014
0.00233231
0.00233235
0.00232755
0.00232759
0.00233232
0.00233234
0.00232755
0.0023323
0.00232757
0.0023323
0.00233233
0.00232756
0.00233231
0.00233235
0.00232759
0.00232755
0.00233234
0.00233232
0.00232755
0.0023323
0.00232757
0.0023323
0.00233233
0.00232755
0.00233229
0.00233229
0.00233233
0.00232753
0.00232753
0.00233228
0.00233229
0.00232756
0.00233234
0.00232755
0.00233233
0.00232767
0.0023323
0.00232761
0.00233242
0.00233234
0.00232755
0.00233233
0.00232767
0.0023323
0.00232761
0.00233242
0.00233231
0.00233235
0.00232755
0.00232759
0.00233232
0.00233234
0.00232755
0.0023323
0.00232757
0.00233233
0.00232755
0.00233229
0.00233245
0.00232778
0.00232778
0.00232779
0.00233237
0.00233237
0.00233244
0.00233237
0.00232775
0.00232782
0.00233236
0.00233248
0.0023278
0.00233247
0.00232772
0.00233232
0.00232766
0.00233234
0.00233239
0.00232781
0.00233244
0.00233238
0.00232775
0.00232782
0.00233236
0.00233248
0.0023278
0.00233247
0.00232772
0.00233232
0.00232766
0.00233235
0.00233239
0.00232781
0.00233244
0.00233237
0.00232782
0.00232775
0.00233248
0.00233235
0.0023278
0.00233247
0.00232772
0.00233234
0.00232781
0.00200141
0.00200145
0.00200357
0.00201068
0.00200815
0.00201065
0.00200848
0.00200811
0.00200142
0.00200145
0.00200347
0.00200357
0.00200349
0.00200346
0.00200346
0.00200141
0.00200145
0.0020035
0.00200348
0.00200813
0.00200811
0.0020083
0.0020082
0.00200815
0.00200811
0.0020083
0.00201065
0.0020082
0.00200811
0.0020082
0.00200811
0.00200814
0.00200813
0.00200811
0.00200146
0.00200347
0.0020035
0.00200348
0.00200346
0.00200348
0.00200345
0.00199891
0.00199889
0.00199888
0.00199896
0.00201271
0.00200811
0.00200813
0.00201274
0.00200811
0.00201272
0.00201273
0.00201271
0.00199887
0.00199887
0.00199887
0.00199886
0.00199891
0.00200346
0.00200354
0.00199889
0.00199896
0.00199887
0.00200349
0.00199887
0.00199888
0.00200347
0.00199887
0.00199888
0.00200346
0.0019989
0.00200353
0.00200346
0.00199888
0.00200348
0.00199894
0.00199887
0.00200813
0.00200811
0.00200811
0.00200812
0.00200812
0.00201271
0.00200812
0.00201271
0.00200812
0.00201273
0.0020127
0.00201271
0.00200812
0.00201272
0.00200812
0.00201276
0.00200823
0.00201274
0.00200812
0.00200817
0.0020128
0.00201273
0.00201275
0.0020082
0.00201274
0.00200812
0.00200816
0.0020128
0.00201272
0.00201274
0.00200811
0.00200811
0.00200812
0.00201271
0.0020127
0.00201271
0.00199887
0.0019989
0.00200347
0.00200347
0.00199889
0.00200346
0.00199887
0.00199887
0.00200347
0.00199886
0.00200346
0.00199887
0.00199887
0.0019989
0.00200347
0.00200347
0.00200346
0.00199889
0.00199887
0.00199886
0.00199909
0.00199924
0.00200354
0.00200348
0.00199912
0.00200346
0.00199906
0.00201271
0.00200836
0.00201281
0.00200832
0.00200834
0.00201276
0.00201276
0.00199908
0.00200351
0.00200349
0.00199895
0.00199894
0.00199901
0.00200356
0.00199908
0.0020035
0.00200352
0.00199924
0.0019991
0.00200344
0.00199909
0.00199905
0.00199905
0.00200354
0.00200348
0.0020035
0.00199908
0.00199903
0.00200833
0.00200828
0.0020083
0.0020082
0.00200825
0.00200832
0.00201276
0.00200833
0.00200828
0.00201275
0.00200831
0.0020128
0.00201274
0.0020128
0.00200826
0.00200821
0.00201273
0.00200833
0.00201274
0.00201276
0.00201279
0.00200817
0.00201272
0.00200825
0.00201273
0.00201275
0.0020083
0.00199906
0.00200348
0.00200349
0.00199896
0.00199891
0.00200353
0.00199901
0.00199905
0.00199905
0.00200354
0.00200349
0.00199907
0.00200351
0.00199903
0.00200349
0.00200351
0.00200349
0.00200351
0.00200347
0.00200346
0.00200349
0.00200346
0.00199887
0.00200347
0.00200348
0.0019989
0.00199887
0.00199889
0.00200346
0.00199887
0.00200348
0.00200347
0.0019989
0.00199889
0.00199887
0.00200346
0.00199888
0.00200348
0.00199887
0.00199888
0.00200346
0.00199892
0.00200357
0.00199888
0.00200346
0.00199898
0.0020035
0.00199886
0.00199887
0.00200345
0.00200345
0.00200348
0.00199885
0.00199886
0.00199886
0.00199906
0.00200356
0.00200349
0.00199906
0.00199903
0.00199909
0.00200352
0.00199907
0.00200356
0.0020035
0.00199906
0.00199909
0.00199903
0.00200352
0.00199909
0.00200349
0.00200353
0.00199895
0.00199901
0.00199896
0.00200357
0.00232272
0.00232272
0.00232288
0.00232276
0.00232276
0.00232278
0.00232273
0.00232278
0.00232273
0.0023228
0.00232057
0.00232275
0.00232058
0.0023228
0.00232057
0.00232275
0.00232057
0.00232272
0.00232288
0.00232276
0.00232276
0.00232272
0.00232278
0.00232273
0.00232281
0.00232057
0.00232275
0.00232058
0.00232278
0.00232273
0.0023228
0.00232057
0.00232058
0.00232275
0.00232057
0.00232275
0.00232273
0.00232272
0.00232288
0.00232276
0.00232276
0.00232272
0.00232281
0.00232057
0.00232058
0.00232275
0.00232278
0.00232273
0.00231798
0.00231798
0.002318
0.00232271
0.00232271
0.00232276
0.00231796
0.00231796
0.00231804
0.00231801
0.00232273
0.00232285
0.00232277
0.00231798
0.00231811
0.00231804
0.00231801
0.00232273
0.00232285
0.00232277
0.00231798
0.00231811
0.00231799
0.00231804
0.00232275
0.00232277
0.00232274
0.00231799
0.00231802
0.00231799
0.00231798
0.00232276
0.00232273
0.00231801
0.00231799
0.00231804
0.00232275
0.00232277
0.00232274
0.00231799
0.00231802
0.00231799
0.00231798
0.00232276
0.00232273
0.00231801
0.00231798
0.002318
0.00232271
0.00232272
0.00232276
0.00231797
0.00231797
0.00231803
0.00231801
0.00232273
0.00232286
0.00231813
0.00232276
0.00231798
0.00231805
0.00231801
0.00232273
0.00232284
0.00232277
0.00231799
0.0023181
0.00231798
0.00231799
0.00231804
0.00232277
0.00232275
0.00232274
0.00231802
0.00231799
0.00231799
0.00231798
0.00232276
0.00232273
0.002318
0.00231799
0.00231804
0.00232275
0.00232277
0.00232274
0.00231799
0.00231802
0.00231799
0.00231798
0.00232276
0.00232273
0.00231801
0.00231799
0.00231798
0.00232276
0.00232273
0.00231801
0.00231798
0.002318
0.00232272
0.00232272
0.00232276
0.00231797
0.00231797
0.00231804
0.00231801
0.00232273
0.00232285
0.00231811
0.00232277
0.00231798
0.00231804
0.00232273
0.00232285
0.00231801
0.00232277
0.00231798
0.00231811
0.00231798
0.00232277
0.00232275
0.00232274
0.00232276
0.00232273
0.00232061
0.00232059
0.00232059
0.00232057
0.00232061
0.00232059
0.00232059
0.00232057
0.00232061
0.00232059
0.00232059
0.00232057
0.00232061
0.00232059
0.00232059
0.00232057
0.00231823
0.00231836
0.0023228
0.0023228
0.00232272
0.00231822
0.00231822
0.00231823
0.00231821
0.00232279
0.00232291
0.00232287
0.00231818
0.00231826
0.00231824
0.00231809
0.00232278
0.00232282
0.0023181
0.0023229
0.00231815
0.00231823
0.00231821
0.00232278
0.00232291
0.00232287
0.00231818
0.00231826
0.00231825
0.00231809
0.00232277
0.00232283
0.0023229
0.00231815
0.0023181
0.00231823
0.00231836
0.00232281
0.00232278
0.00231824
0.00232272
0.0023182
0.00231823
0.00231821
0.00232279
0.00232291
0.00232287
0.00231818
0.00231826
0.00231824
0.00231809
0.00232278
0.00232282
0.0023181
0.0023229
0.00231815
0.00231823
0.00231821
0.00232291
0.00232278
0.00232287
0.00231826
0.00231818
0.00231824
0.00231809
0.00232277
0.00232282
0.0023229
0.00231815
0.0023181
0.00231823
0.00231809
0.00232278
0.00232281
0.00232289
0.00231808
0.00231816
0.00231823
0.00231835
0.0023228
0.0023228
0.00231822
0.00232272
0.00231822
0.00232291
0.00232279
0.00232287
0.00232278
0.00232282
0.0023229
0.00228456
0.00228456
0.00228471
0.0022846
0.0022846
0.00228462
0.00228457
0.00228469
0.00228242
0.00228458
0.00228243
0.00228462
0.00228473
0.00228243
0.00227984
0.00227984
0.00227986
0.00228456
0.00228456
0.00227983
0.00227983
0.0022846
0.00227989
0.00228457
0.0022847
0.00227987
0.00227984
0.0022846
0.00227998
0.0022799
0.00228457
0.00228467
0.00227987
0.00227984
0.00227995
0.00228461
0.00227985
0.0022846
0.00228459
0.0022799
0.00227988
0.00227985
0.00228458
0.00227985
0.0022846
0.00227984
0.00227986
0.00228457
0.00227985
0.00228459
0.0022799
0.0022846
0.00227985
0.00227988
0.00228458
0.00231105
0.00230865
0.00230865
0.00230854
0.00230849
0.00230865
0.00231102
0.00231102
0.00230849
0.0023088
0.00231102
0.00231101
0.0023088
0.00230843
0.00230378
0.00229196
0.00230147
0.0023037
0.0023037
0.00230364
0.00230368
0.0023037
0.00230368
0.00231104
0.00231103
0.00231104
0.00230362
0.00230147
0.00230364
0.00230842
0.00230842
0.00230845
0.00230846
0.0023088
0.00230849
0.00230843
0.00230849
0.00230843
0.00230854
0.00231102
0.00231102
0.00230853
0.00231102
0.00231101
0.00230843
0.00230846
0.00230881
0.00230846
0.00230843
0.00230843
0.00230849
0.00230865
0.00231102
0.00231102
0.00230843
0.00231102
0.00231102
0.00230854
0.00231102
0.00230854
0.00230865
0.00230843
0.00230849
0.00231102
0.00230865
0.00230854
0.00230843
0.00230842
0.00230846
0.00230846
0.00230842
0.00231102
0.00230854
0.00231102
0.00230843
0.00230846
0.00230366
0.00230366
0.00230362
0.00230363
0.00230368
0.00230363
0.00228942
0.00228936
0.00230362
0.00228935
0.00230363
0.00230368
0.00228942
0.00228936
0.0023015
0.00229196
0.00230148
0.00230365
0.0023037
0.00229194
0.00228946
0.00230362
0.00228935
0.00230362
0.00228935
0.00230366
0.00230366
0.00230378
0.00228973
0.00228939
0.00228939
0.00230368
0.00230363
0.00228941
0.00228936
0.00230364
0.00230147
0.00230148
0.00228958
0.00229194
0.00228947
0.00229195
0.00230364
0.00230148
0.00230147
0.00228958
0.00229194
0.00228947
0.00229195
0.00228462
0.00228457
0.00228462
0.00228464
0.00228242
0.00228458
0.00228243
0.00228464
0.00228243
0.00230366
0.00230378
0.00230366
0.00228973
0.00228938
0.00228939
0.00230362
0.00228936
0.0023037
0.00230147
0.00230148
0.0022896
0.00229194
0.00228946
0.00229195
0.00230363
0.00228936
0.00228942
0.00230147
0.00230148
0.00230364
0.00228961
0.00229194
0.00228963
0.00229195
0.00230363
0.00230368
0.00228937
0.0023037
0.0023132
0.00230841
0.00230841
0.00231315
0.00231315
0.00230844
0.0023132
0.00230842
0.00230842
0.00231316
0.00231316
0.00230845
0.00231318
0.00230844
0.00230847
0.00231322
0.00231319
0.00231321
0.00230843
0.00231319
0.00230844
0.00230847
0.00231323
0.00231319
0.00231321
0.00230844
0.00231317
0.0022989
0.00230361
0.00230361
0.00230365
0.00229888
0.00229887
0.00229891
0.00230362
0.00230362
0.00230366
0.00229888
0.00229888
0.0022989
0.00230365
0.00230366
0.00229895
0.00230364
0.0022989
0.00229893
0.0022989
0.00230365
0.00230367
0.00229895
0.00230364
0.0022989
0.00229893
0.00229888
0.00231317
0.00231317
0.00231321
0.00230843
0.00230855
0.00231321
0.00231317
0.00231329
0.00230849
0.00231321
0.00230843
0.00230856
0.00231321
0.00231317
0.00231329
0.00230849
0.00231319
0.00230844
0.00230847
0.00231322
0.00231319
0.00231321
0.00230844
0.00231317
0.00230845
0.00231317
0.0023132
0.00230844
0.00231319
0.00230844
0.00230847
0.00231323
0.00231319
0.00231321
0.00230844
0.00231318
0.00230846
0.00231318
0.0023132
0.00230844
0.00231317
0.0023132
0.00230843
0.00230856
0.00231321
0.00231331
0.00231317
0.00230848
0.00231322
0.00230844
0.00230856
0.00231321
0.00231318
0.00231328
0.00230849
0.00231317
0.00231317
0.00230845
0.00231317
0.0023132
0.00230844
0.00231319
0.00230847
0.00230844
0.00231322
0.00231321
0.00231319
0.00230843
0.00231317
0.00230845
0.00231317
0.0023132
0.00230844
0.00231318
0.00230846
0.00231318
0.0023132
0.00230844
0.00231319
0.00230847
0.00230844
0.00231323
0.00231321
0.00231319
0.00230844
0.00231318
0.00230846
0.00231318
0.0023132
0.00230844
0.00231317
0.00231321
0.00230856
0.00231321
0.00230843
0.00231329
0.00231317
0.00230849
0.00231321
0.00230856
0.00231321
0.00230843
0.00231318
0.00231329
0.00230849
0.0023132
0.00230842
0.00230842
0.00231316
0.00231316
0.00230845
0.00231317
0.00231799
0.00231804
0.00231802
0.00231799
0.00231317
0.00231317
0.00230845
0.0023132
0.00230844
0.00231799
0.00231798
0.00231801
0.00231322
0.00230856
0.00231321
0.00230844
0.0023085
0.00231328
0.00231318
0.00229895
0.00230374
0.00229892
0.00230363
0.00229889
0.00230367
0.00229901
0.00229895
0.00230374
0.00230363
0.00229891
0.00229902
0.00230367
0.00229889
0.0022989
0.00230361
0.00230361
0.00229887
0.00230366
0.00229887
0.00229888
0.0022989
0.00230366
0.00229889
0.00229891
0.00230363
0.0022989
0.00230365
0.00230366
0.00229895
0.00230364
0.0022989
0.00229893
0.0022989
0.00230366
0.00229889
0.00230363
0.00229891
0.00229411
0.00229414
0.00228937
0.0022894
0.00229411
0.00229413
0.00228937
0.00229409
0.00229409
0.00228938
0.00229412
0.00228937
0.00229888
0.00229408
0.0022989
0.00230366
0.00229889
0.00230363
0.00229891
0.0022989
0.00230366
0.00230365
0.00229895
0.00230364
0.00229893
0.0022989
0.00229411
0.00229414
0.0022894
0.00228937
0.00229413
0.00229411
0.00228937
0.00229409
0.00229409
0.00228938
0.00229412
0.00228937
0.00229888
0.00229409
0.00229888
0.00229409
0.00229895
0.00230363
0.00230374
0.00229891
0.00230366
0.00229889
0.00229901
0.00229895
0.00230363
0.00230375
0.00229891
0.00230366
0.00229889
0.00229902
0.00229412
0.00228935
0.00228935
0.00229408
0.00229408
0.00228937
0.00229413
0.00229412
0.00228936
0.00228948
0.00229409
0.0022942
0.00228942
0.00229413
0.00229412
0.00228936
0.00228948
0.00229409
0.00229421
0.00228942
0.0022989
0.00230365
0.00230366
0.00229895
0.00230364
0.0022989
0.00229893
0.0022989
0.00230366
0.00229889
0.00230363
0.00229891
0.00229411
0.00229414
0.00228937
0.0022894
0.00229411
0.00229413
0.00228937
0.00229409
0.00229409
0.00228938
0.00229412
0.00228937
0.00227985
0.00228459
0.0022846
0.0022799
0.00228458
0.00227985
0.00227988
0.00227985
0.0022846
0.00227984
0.00228457
0.00227987
0.00227985
0.00228459
0.0022846
0.0022799
0.00228458
0.00227985
0.00227988
0.00229896
0.00230363
0.00230372
0.00229891
0.00230367
0.00229889
0.00229899
0.00229894
0.00230363
0.00230377
0.00229892
0.00230367
0.00229905
0.00229889
0.00229412
0.00228935
0.00228934
0.00229408
0.00229408
0.00228938
0.00229414
0.00229412
0.00228937
0.00228948
0.0022941
0.00229418
0.00228943
0.00229413
0.00229413
0.00228936
0.00228949
0.00229424
0.00229409
0.00228941
0.00229889
0.00229409
0.0022989
0.00230366
0.00229889
0.00230363
0.00229891
0.0022941
0.00229409
0.00228938
0.00229412
0.00228937
0.00229411
0.00229414
0.0022894
0.00228937
0.00229411
0.00229413
0.00228937
0.00229891
0.00230366
0.00229889
0.00230363
0.00229892
0.0022989
0.00230367
0.00230365
0.00229895
0.00230364
0.00229893
0.0022989
0.0022941
0.0022941
0.00228939
0.00229413
0.00228937
0.00228464
0.00228456
0.00228461
0.00228021
0.00228009
0.00228009
0.00228005
0.00228473
0.00228463
0.00228462
0.00228008
0.00228006
0.00228004
0.00228011
0.00228472
0.00228464
0.00228461
0.00228009
0.00227995
0.00227993
0.00228001
0.00228463
0.00228469
0.00228462
0.00228008
0.00228006
0.00228011
0.00228004
0.00231104
0.00231104
0.00231102
0.00231331
0.00230863
0.0023087
0.00231325
0.00231323
0.00231335
0.00230868
0.00231331
0.00230863
0.0023087
0.00231325
0.00231323
0.00231335
0.00230867
0.00231334
0.0023086
0.00230854
0.00231319
0.00231326
0.00231322
0.00230869
0.00231331
0.0023087
0.00230863
0.00231325
0.00231335
0.00231323
0.00230868
0.00231316
0.00230867
0.00231332
0.00230867
0.00231324
0.00231324
0.00230868
0.00231316
0.00230867
0.00231333
0.00230866
0.00230867
0.00231322
0.00231325
0.00229914
0.00230369
0.00229926
0.00230369
0.00229912
0.00230362
0.00229912
0.00229198
0.00230151
0.0023015
0.00230149
0.00229196
0.00229194
0.00230147
0.00229913
0.00230368
0.0023038
0.00229911
0.00230376
0.00229909
0.00229916
0.00229913
0.00230368
0.0023038
0.00229911
0.00230376
0.00229909
0.00229916
0.00229915
0.00230367
0.00230372
0.00229899
0.00230379
0.00229906
0.002299
0.00229913
0.0023038
0.00230368
0.00229911
0.00230376
0.00229916
0.00229909
0.00231105
0.00231103
0.00231102
0.00231105
0.00231104
0.00231102
0.00231105
0.00231104
0.00231102
0.00229914
0.00230371
0.00230367
0.00229899
0.00230379
0.002299
0.00229906
0.00231317
0.00230867
0.00230867
0.00231333
0.00231324
0.00231324
0.00230868
0.00231334
0.0023086
0.00230854
0.00231319
0.00231326
0.00231322
0.00230869
0.00231334
0.0023086
0.00230853
0.00231319
0.00231322
0.00231327
0.00230868
0.00231316
0.00230866
0.00230867
0.00231333
0.00231325
0.00231322
0.00230868
0.00231331
0.00230863
0.0023087
0.00231325
0.00231323
0.00231335
0.00230868
0.00231334
0.0023086
0.00230854
0.00231319
0.00231322
0.00231326
0.00230869
0.00231333
0.00230855
0.0023086
0.0023132
0.00231326
0.00231322
0.00230869
0.00231331
0.0023087
0.00230863
0.00231325
0.00231323
0.00231335
0.00230868
0.00231331
0.0023087
0.00230863
0.00231325
0.00231335
0.00231323
0.00230868
0.00231334
0.00230855
0.0023086
0.0023132
0.00231322
0.00231326
0.00230869
0.00231823
0.00231821
0.00231826
0.00231818
0.00231334
0.00230854
0.00231319
0.0023086
0.00230869
0.00231326
0.00231322
0.00231824
0.00231809
0.00231809
0.00231815
0.00230151
0.00230149
0.00229198
0.00229196
0.00229196
0.00229194
0.00230147
0.00230149
0.00230151
0.00230149
0.00229196
0.00229198
0.00229194
0.00230147
0.00229916
0.00230373
0.00230367
0.00229899
0.0023038
0.00229902
0.00229906
0.00229914
0.0023038
0.00230368
0.00229911
0.00230377
0.00229909
0.00229917
0.00229426
0.00229411
0.00228953
0.00228947
0.0022942
0.00229413
0.00228962
0.00229913
0.00230369
0.00230369
0.00229926
0.00230362
0.00229912
0.00229913
0.00228959
0.00228959
0.0022896
0.00229407
0.00229424
0.00229415
0.00229416
0.00229914
0.00230367
0.00230371
0.00229899
0.00230379
0.00229906
0.00229899
0.00229422
0.00229416
0.00228955
0.00228963
0.00229414
0.00229426
0.0022896
0.00228947
0.00229425
0.00229411
0.00228953
0.00229413
0.00229417
0.00228961
0.00229913
0.00230367
0.00230369
0.002299
0.00230378
0.00229906
0.00229897
0.00229422
0.00229416
0.00228956
0.00228963
0.00229414
0.00229426
0.0022896
0.00229424
0.00229411
0.00228953
0.00228946
0.00229414
0.00228961
0.00229416
0.00228008
0.00228462
0.00228473
0.00228006
0.0022847
0.00228003
0.00228011
0.00228466
0.00227995
0.00227994
0.0022801
0.00228461
0.00228473
0.00228001
0.00228008
0.00228462
0.00228473
0.00228006
0.0022847
0.00228004
0.00228011
0.00229913
0.00230367
0.00230371
0.00229926
0.00230362
0.00229916
0.00229909
0.00229408
0.00229424
0.00228958
0.0022896
0.00229418
0.00229412
0.0022896
0.00229913
0.00230368
0.0023038
0.00229911
0.00230376
0.00229909
0.00229916
0.00228963
0.00228958
0.00228955
0.00229422
0.00229416
0.00229414
0.00229426
0.00228961
0.00228946
0.00228953
0.00229425
0.00229411
0.00229413
0.00229418
0.00229914
0.00230367
0.00230371
0.00229899
0.00230379
0.002299
0.00229906
0.00228953
0.00228946
0.00229425
0.00229411
0.00228947
0.00229418
0.00229413
0.00228958
0.0022896
0.00228956
0.00229422
0.00229416
0.00229426
0.00229414
0.00229914
0.0023038
0.00230368
0.00229911
0.00230377
0.00229917
0.00229909
0.00200348
0.00226345
0.00226341
0.00226341
0.0022657
0.00222555
0.00222552
0.00222552
0.00222778
0.00218782
0.0021878
0.0021878
0.00219004
0.00215023
0.00215022
0.00215022
0.00215244
0.00211279
0.00211279
0.00211278
0.00211499
0.00207553
0.00207552
0.00207552
0.00207771
0.00201067
0.0020384
0.0020384
0.00204056
0.00200144
0.00200141
0.0022707
0.00227291
0.00227291
0.00226569
0.00223278
0.00226341
0.00226341
0.00223498
0.00223498
0.0022657
0.00223278
0.00226341
0.00226341
0.00223498
0.00223498
0.00226341
0.00223498
0.00223498
0.0022657
0.00223278
0.00226341
0.00223498
0.00223498
0.00223277
0.00222779
0.00219502
0.00222552
0.00222552
0.00219722
0.00219722
0.00222778
0.00219502
0.00222552
0.00222552
0.00219722
0.00219722
0.00222552
0.00219722
0.00219722
0.00222779
0.00219502
0.00222552
0.00219722
0.00219722
0.00219502
0.00219004
0.00215741
0.0021878
0.0021878
0.0021596
0.0021596
0.00219004
0.00215741
0.0021878
0.0021878
0.0021596
0.0021596
0.0021878
0.0021596
0.0021596
0.00219004
0.00215741
0.0021878
0.0021596
0.0021596
0.0021574
0.00215244
0.00211994
0.00215022
0.00215022
0.00212213
0.00212213
0.00215244
0.00211994
0.00215022
0.00215022
0.00212213
0.00212213
0.00215022
0.00212213
0.00212212
0.00215244
0.00211994
0.00215022
0.00212213
0.00212213
0.00211994
0.00211499
0.00208264
0.00211278
0.00211279
0.00208482
0.00208482
0.00211499
0.00208264
0.00211278
0.00211278
0.00208482
0.00208482
0.00211279
0.00208482
0.00208483
0.00211499
0.00208264
0.00211279
0.00208482
0.00208483
0.00208265
0.00207771
0.00204549
0.00207552
0.00207552
0.00204767
0.00204767
0.00207771
0.00204549
0.00207552
0.00207552
0.00204767
0.00204767
0.00207553
0.00204767
0.00204766
0.00207771
0.00204549
0.00207553
0.00204767
0.00204766
0.00204548
0.00204057
0.00200847
0.0020384
0.0020384
0.00201065
0.00200819
0.00204057
0.00200812
0.0020384
0.0020384
0.00201065
0.00201065
0.00203839
0.00201065
0.00204057
0.00200847
0.00203838
0.00201065
0.00200347
0.00200141
0.00200356
0.00200346
0.0022514
0.00226556
0.0022656
0.00225135
0.00226555
0.00225135
0.0022514
0.00226556
0.0022656
0.00225135
0.00226341
0.00226345
0.00226345
0.00223501
0.00223501
0.00223501
0.00223501
0.00225156
0.0022657
0.00226342
0.00225392
0.00226567
0.00225145
0.00225393
0.00226555
0.00225135
0.00225156
0.00226342
0.00226563
0.00225392
0.00225393
0.00225145
0.00226567
0.00226558
0.00226558
0.00225172
0.00225137
0.00225137
0.00221356
0.00222765
0.00222769
0.00221351
0.00222765
0.00221351
0.00221356
0.00222765
0.00222769
0.00221351
0.00222555
0.00222555
0.00222555
0.00219724
0.00219724
0.00219724
0.00219724
0.00221371
0.00222766
0.00222554
0.00221608
0.00222771
0.00221361
0.00221609
0.00222765
0.00221351
0.00221371
0.00222553
0.00222766
0.00221608
0.00222771
0.00221609
0.00221361
0.00222769
0.00222769
0.00221388
0.00221353
0.00221353
0.00217587
0.00218991
0.00218995
0.00217582
0.0021899
0.00217582
0.00217587
0.00218991
0.00218995
0.00217582
0.00218782
0.00218782
0.00218782
0.00215962
0.00215962
0.00215962
0.00215961
0.00217602
0.00218992
0.00218782
0.00217839
0.00218997
0.00217592
0.00217841
0.0021899
0.00217582
0.00217603
0.00218782
0.00218992
0.0021784
0.00218996
0.00217841
0.00217592
0.00218993
0.00218993
0.00217619
0.00217584
0.00217584
0.00213833
0.00215232
0.00215236
0.00213829
0.00215231
0.00213829
0.00213833
0.00215232
0.00215236
0.00213829
0.00215024
0.00215024
0.00215023
0.00212214
0.00212214
0.00212214
0.00212214
0.00213848
0.00215233
0.00215024
0.00214085
0.00215237
0.00213838
0.00214087
0.00215231
0.00213829
0.00213848
0.00215024
0.00215232
0.00214085
0.00215237
0.00214087
0.00213838
0.00215236
0.00215236
0.00213865
0.00213832
0.00213832
0.00210096
0.00211489
0.00211492
0.00210092
0.00211489
0.00210092
0.00210095
0.00211489
0.00211492
0.00210091
0.00211279
0.00211279
0.0021128
0.00208483
0.00208483
0.00208483
0.00208484
0.0021011
0.00211489
0.00211281
0.00210346
0.00211493
0.00210101
0.00210348
0.00211489
0.00210092
0.0021011
0.00211281
0.0021149
0.00210345
0.00211493
0.00210348
0.00210101
0.00211491
0.00211491
0.00210128
0.00210094
0.00210094
0.00206373
0.0020776
0.00207764
0.00206369
0.0020776
0.00206369
0.00206373
0.00207761
0.00207763
0.00206369
0.00207553
0.00207553
0.00207555
0.00204769
0.00204769
0.00204768
0.00204768
0.00206387
0.00207761
0.00207555
0.00206623
0.00207765
0.00206378
0.00206626
0.0020776
0.00206369
0.00206387
0.00207555
0.00207761
0.00206623
0.00207765
0.00206626
0.00206378
0.00207762
0.00207762
0.00206405
0.00206369
0.00206369
0.00202664
0.00204047
0.0020405
0.0020266
0.00204047
0.0020266
0.00202663
0.00204046
0.0020405
0.0020266
0.00201065
0.00203842
0.00203842
0.00203842
0.00203841
0.00201067
0.00201067
0.00202678
0.00204047
0.00203844
0.00202914
0.0020405
0.00202669
0.00202917
0.00204046
0.0020266
0.00202678
0.00203844
0.00204047
0.00202914
0.00204051
0.00202918
0.00202669
0.00204051
0.00204051
0.00202696
0.00202666
0.00202665
0.00200142
0.00200143
0.00200143
0.00200346
0.00200347
0.00227033
0.00227033
0.00227036
0.00227036
0.00227033
0.00227039
0.00227044
0.00227292
0.00227055
0.00227033
0.00227039
0.00228457
0.00228242
0.00227292
0.00227513
0.00227055
0.00227995
0.00226555
0.00225135
0.00226555
0.00225135
0.00226559
0.00226559
0.00225172
0.00225138
0.00225138
0.00223241
0.00224658
0.00223241
0.00224658
0.00224672
0.00223243
0.00223243
0.00224661
0.00224661
0.0022514
0.00226556
0.0022656
0.00225135
0.00225156
0.00226562
0.00226342
0.00225392
0.00226567
0.00225145
0.00225393
0.00225156
0.00226563
0.00226342
0.00225392
0.00226567
0.00225145
0.00225393
0.00224662
0.00223241
0.00224658
0.00223246
0.00224662
0.00223241
0.00224658
0.00223246
0.00224664
0.00224445
0.00223251
0.00223499
0.0022466
0.00224446
0.00223262
0.00224664
0.00224445
0.00223251
0.00223499
0.00224659
0.00224446
0.00223262
0.00226559
0.00226558
0.00225172
0.00225137
0.00225137
0.00226554
0.00225134
0.00223241
0.00224657
0.00224672
0.00223243
0.00223243
0.00224661
0.00224661
0.00223241
0.00224657
0.00225156
0.00226557
0.00226342
0.00225393
0.00226562
0.00225145
0.00225393
0.0022514
0.00226556
0.0022656
0.00225135
0.00225156
0.00226342
0.00226563
0.00225392
0.00226562
0.00225393
0.00225145
0.00224663
0.00223241
0.00224658
0.00223246
0.00224664
0.00224445
0.00223251
0.00223499
0.0022466
0.00224446
0.00223262
0.00224663
0.00223241
0.00224658
0.00223246
0.00224664
0.00224445
0.00223499
0.00223251
0.00224446
0.0022466
0.00223262
0.0022514
0.00226555
0.0022656
0.00225135
0.00225156
0.00226342
0.00226563
0.00225392
0.00226567
0.00225393
0.00225145
0.0022514
0.00226555
0.0022656
0.00225135
0.00224664
0.00224445
0.00223251
0.00223499
0.00224659
0.00224446
0.00223261
0.00224662
0.00223241
0.00224658
0.00223246
0.00224664
0.00224445
0.00223499
0.00223251
0.00224446
0.00224659
0.00223261
0.00224662
0.00223241
0.00224658
0.00223246
0.00226558
0.00226558
0.00225172
0.00225138
0.00225138
0.00226555
0.00225135
0.00223241
0.00224658
0.00224672
0.00223243
0.00223243
0.00224661
0.00224661
0.00223241
0.00224658
0.00225156
0.00226342
0.00226563
0.00225392
0.00225393
0.00225145
0.00226567
0.0022514
0.00226555
0.00225135
0.0022656
0.0022514
0.00226555
0.00225135
0.0022656
0.00224664
0.00224445
0.00223499
0.00223251
0.00224446
0.0022466
0.00223262
0.00224664
0.00224444
0.00223499
0.00223251
0.00224446
0.00224659
0.00223262
0.00224663
0.00223241
0.00224658
0.00223246
0.00224662
0.00223241
0.00224658
0.00223246
0.00226554
0.00225134
0.00226555
0.00225135
0.00224672
0.00223244
0.00223244
0.00224661
0.00224661
0.00223241
0.00224657
0.00223241
0.00224658
0.00222765
0.00221351
0.00222765
0.00221351
0.00222768
0.00222768
0.00221388
0.00221353
0.00221353
0.00219465
0.00220876
0.00219465
0.00220876
0.00220889
0.00219467
0.00219467
0.00220879
0.00220879
0.00221356
0.00222765
0.00222769
0.00221351
0.00221371
0.00222766
0.00222554
0.00221608
0.00222771
0.00221361
0.00221609
0.00221371
0.00222766
0.00222554
0.00221608
0.00222771
0.00221361
0.00221609
0.0022088
0.00219465
0.00220876
0.00219469
0.0022088
0.00219465
0.00220876
0.00219469
0.00220882
0.00220664
0.00219474
0.00219723
0.00220877
0.00220666
0.00219485
0.00220882
0.00220664
0.00219475
0.00219723
0.00220877
0.00220666
0.00219485
0.00222768
0.00222768
0.00221388
0.00221353
0.00221353
0.00222765
0.00221351
0.00219465
0.00220876
0.00220889
0.00219467
0.00219467
0.00220879
0.00220879
0.00219465
0.00220876
0.00221371
0.00222766
0.00222554
0.00221608
0.00222771
0.00221361
0.00221609
0.00221356
0.00222765
0.00222769
0.00221351
0.00221371
0.00222554
0.00222766
0.00221608
0.00222771
0.00221609
0.00221361
0.0022088
0.00219465
0.00220876
0.00219469
0.00220882
0.00220664
0.00219474
0.00219723
0.00220877
0.00220666
0.00219485
0.0022088
0.00219464
0.00220876
0.00219469
0.00220881
0.00220664
0.00219723
0.00219474
0.00220666
0.00220877
0.00219485
0.00221356
0.00222765
0.00222769
0.00221351
0.00221371
0.00222553
0.00222767
0.00221608
0.00222771
0.00221609
0.00221361
0.00221356
0.00222766
0.00222769
0.00221351
0.00220882
0.00220664
0.00219475
0.00219723
0.00220877
0.00220666
0.00219485
0.0022088
0.00219465
0.00220876
0.00219469
0.00220882
0.00220665
0.00219723
0.00219474
0.00220666
0.00220877
0.00219485
0.0022088
0.00219464
0.00220876
0.00219469
0.00222768
0.00222768
0.00221388
0.00221353
0.00221353
0.00222765
0.00221351
0.00219464
0.00220876
0.00220889
0.00219467
0.00219467
0.00220879
0.00220879
0.00219465
0.00220876
0.00221372
0.00222553
0.00222767
0.00221608
0.00222771
0.00221609
0.00221361
0.00221356
0.00222765
0.00222769
0.00221351
0.00221356
0.00222765
0.00222769
0.00221351
0.00220882
0.00220664
0.00219723
0.00219474
0.00220666
0.00220877
0.00219485
0.00220882
0.00220665
0.00219723
0.00219474
0.00220666
0.00220877
0.00219485
0.0022088
0.00219465
0.00220876
0.00219469
0.0022088
0.00219465
0.00220876
0.00219469
0.00222765
0.00221351
0.00222765
0.00221351
0.0022089
0.00219466
0.00219466
0.00220879
0.00220879
0.00219464
0.00220875
0.00219464
0.00220875
0.0021899
0.00217582
0.0021899
0.00217582
0.00218994
0.00218994
0.0021762
0.00217584
0.00217584
0.00215703
0.00217109
0.00215703
0.00217109
0.00217123
0.00215706
0.00215706
0.00217112
0.00217112
0.00217587
0.00218991
0.00218995
0.00217582
0.00217603
0.00218992
0.00218782
0.00217839
0.00218997
0.00217592
0.00217841
0.00217603
0.00218992
0.00218782
0.00217839
0.00218997
0.00217592
0.00217841
0.00217113
0.00215704
0.0021711
0.00215708
0.00217113
0.00215704
0.00217109
0.00215708
0.00217115
0.00216899
0.00215713
0.00215962
0.00217111
0.00216901
0.00215723
0.00217115
0.00216899
0.00215713
0.00215962
0.00217111
0.00216901
0.00215723
0.00218994
0.00218994
0.0021762
0.00217584
0.00217584
0.0021899
0.00217582
0.00215703
0.00217109
0.00217122
0.00215706
0.00215706
0.00217112
0.00217112
0.00215703
0.00217109
0.00217603