/*--------------------------------*- C++ -*----------------------------------*\
| =========                 |                                                 |
| \\      /  F ield         | OpenFOAM: The Open Source CFD Toolbox           |
|  \\    /   O peration     | Version:  v2012                                 |
|   \\  /    A nd           | Website:  www.openfoam.com                      |
|    \\/     M anipulation  |                                                 |
\*---------------------------------------------------------------------------*/
FoamFile
{
    version     2.0;
    format      ascii;
    class       volScalarField;
    location    "50000";
    object      p;
}
// * * * * * * * * * * * * * * * * * * * * * * * * * * * * * * * * * * * * * //

dimensions      [0 2 -2 0 0 0 0];


internalField   nonuniform List<scalar> 
171728
(
1.27264e-07
1.27198e-07
1.27198e-07
1.27345e-07
1.24353e-07
1.24276e-07
1.24276e-07
1.24407e-07
1.22194e-07
1.22168e-07
1.22168e-07
1.22277e-07
1.20365e-07
1.20358e-07
1.20358e-07
1.20453e-07
1.1871e-07
1.18709e-07
1.18709e-07
1.18799e-07
1.17157e-07
1.1716e-07
1.1716e-07
1.17244e-07
1.15673e-07
1.15676e-07
1.15676e-07
1.15757e-07
1.14235e-07
1.14237e-07
1.14237e-07
1.14317e-07
1.12831e-07
1.12833e-07
1.12833e-07
1.12911e-07
1.11453e-07
1.11454e-07
1.11454e-07
1.11531e-07
1.10093e-07
1.10093e-07
1.10093e-07
1.10169e-07
1.08747e-07
1.08747e-07
1.08747e-07
1.08823e-07
1.07412e-07
1.07412e-07
1.07412e-07
1.07487e-07
1.06086e-07
1.06086e-07
1.06086e-07
1.06161e-07
1.04766e-07
1.04766e-07
1.04766e-07
1.04841e-07
1.03452e-07
1.03452e-07
1.03452e-07
1.03526e-07
1.02142e-07
1.02142e-07
1.02142e-07
1.02216e-07
1.00836e-07
1.00836e-07
1.00836e-07
1.0091e-07
9.95331e-08
9.9533e-08
9.9533e-08
9.96066e-08
9.82314e-08
9.82313e-08
9.82313e-08
9.83048e-08
9.69303e-08
9.69301e-08
9.69301e-08
9.70036e-08
9.56293e-08
9.56291e-08
9.56291e-08
9.57026e-08
9.43282e-08
9.4328e-08
9.4328e-08
9.44015e-08
9.30272e-08
9.3027e-08
9.3027e-08
9.31005e-08
9.17261e-08
9.17259e-08
9.17259e-08
9.17995e-08
9.04251e-08
9.04249e-08
9.04249e-08
9.04985e-08
8.91241e-08
8.91239e-08
8.91239e-08
8.91974e-08
8.78231e-08
8.78229e-08
8.78229e-08
8.78964e-08
8.65221e-08
8.65218e-08
8.65218e-08
8.65954e-08
8.52211e-08
8.52208e-08
8.52208e-08
8.52944e-08
8.39201e-08
8.39199e-08
8.39199e-08
8.39934e-08
8.26191e-08
8.26189e-08
8.26189e-08
8.26924e-08
8.13181e-08
8.13179e-08
8.13179e-08
8.13915e-08
8.00172e-08
8.0017e-08
8.0017e-08
8.00905e-08
7.87162e-08
7.8716e-08
7.8716e-08
7.87895e-08
7.74153e-08
7.74151e-08
7.74151e-08
7.74886e-08
7.61144e-08
7.61142e-08
7.61142e-08
7.61877e-08
7.48134e-08
7.48132e-08
7.48132e-08
7.48868e-08
7.35125e-08
7.35123e-08
7.35123e-08
7.35858e-08
7.22115e-08
7.22113e-08
7.22113e-08
7.22848e-08
7.09105e-08
7.09103e-08
7.09103e-08
7.09838e-08
6.96095e-08
6.96093e-08
6.96093e-08
6.96828e-08
6.83085e-08
6.83083e-08
6.83083e-08
6.83818e-08
6.70075e-08
6.70073e-08
6.70073e-08
6.70808e-08
6.57065e-08
6.57063e-08
6.57063e-08
6.57798e-08
6.44054e-08
6.44052e-08
6.44052e-08
6.44788e-08
6.31044e-08
6.31042e-08
6.31042e-08
6.31777e-08
6.18034e-08
6.18032e-08
6.18032e-08
6.18767e-08
6.05024e-08
6.05021e-08
6.05021e-08
6.05757e-08
5.92013e-08
5.92011e-08
5.92011e-08
5.92747e-08
5.79003e-08
5.79001e-08
5.79001e-08
5.79736e-08
5.65992e-08
5.6599e-08
5.6599e-08
5.66725e-08
5.52982e-08
5.5298e-08
5.5298e-08
5.53715e-08
5.39972e-08
5.39969e-08
5.39969e-08
5.40705e-08
5.26962e-08
5.26959e-08
5.26959e-08
5.27695e-08
5.13951e-08
5.13949e-08
5.13949e-08
5.14684e-08
5.00941e-08
5.00939e-08
5.00939e-08
5.01674e-08
4.8793e-08
4.87928e-08
4.87928e-08
4.88664e-08
4.7492e-08
4.74918e-08
4.74918e-08
4.75653e-08
4.6191e-08
4.61908e-08
4.61908e-08
4.62643e-08
4.48899e-08
4.48897e-08
4.48897e-08
4.49633e-08
4.35889e-08
4.35887e-08
4.35887e-08
4.36622e-08
4.22878e-08
4.22876e-08
4.22876e-08
4.23612e-08
4.09868e-08
4.09866e-08
4.09866e-08
4.10602e-08
3.96859e-08
3.96856e-08
3.96856e-08
3.97592e-08
3.83848e-08
3.83846e-08
3.83846e-08
3.84582e-08
3.70838e-08
3.70836e-08
3.70836e-08
3.71571e-08
3.57828e-08
3.57826e-08
3.57826e-08
3.58561e-08
3.44818e-08
3.44816e-08
3.44816e-08
3.45551e-08
3.31809e-08
3.31807e-08
3.31807e-08
3.32542e-08
3.18799e-08
3.18797e-08
3.18797e-08
3.19532e-08
3.05789e-08
3.05787e-08
3.05787e-08
3.06522e-08
2.92779e-08
2.92776e-08
2.92776e-08
2.93512e-08
2.79768e-08
2.79766e-08
2.79766e-08
2.80502e-08
2.66758e-08
2.66756e-08
2.66756e-08
2.67492e-08
2.53748e-08
2.53746e-08
2.53746e-08
2.54481e-08
2.40737e-08
2.40735e-08
2.40735e-08
2.41471e-08
2.27726e-08
2.27724e-08
2.27724e-08
2.2846e-08
2.14716e-08
2.14713e-08
2.14713e-08
2.15449e-08
2.01705e-08
2.01703e-08
2.01703e-08
2.02438e-08
1.88694e-08
1.88692e-08
1.88692e-08
1.89428e-08
1.75683e-08
1.75681e-08
1.75681e-08
1.76417e-08
1.62672e-08
1.6267e-08
1.6267e-08
1.63405e-08
1.49661e-08
1.49659e-08
1.49659e-08
1.50394e-08
1.36651e-08
1.36649e-08
1.36649e-08
1.37384e-08
1.23641e-08
1.23639e-08
1.23639e-08
1.24374e-08
1.10631e-08
1.10628e-08
1.10628e-08
1.11364e-08
9.76198e-09
9.76175e-09
9.76175e-09
9.83529e-09
8.46091e-09
8.46068e-09
8.46068e-09
8.53421e-09
7.1599e-09
7.15969e-09
7.15969e-09
7.23322e-09
5.85893e-09
5.85874e-09
5.85875e-09
5.93226e-09
4.55798e-09
4.55778e-09
4.5578e-09
4.63125e-09
3.25703e-09
3.25674e-09
3.25674e-09
3.33023e-09
1.95977e-09
1.9556e-09
1.95554e-09
2.0305e-09
6.67153e-10
7.34105e-10
7.34021e-10
6.65667e-10
1.27855e-07
1.2793e-07
1.2793e-07
1.27855e-07
1.2793e-07
1.2793e-07
1.28098e-07
1.28098e-07
1.28098e-07
1.28098e-07
1.2793e-07
1.2793e-07
1.27855e-07
1.2793e-07
1.2793e-07
1.27855e-07
1.27345e-07
1.24748e-07
1.27198e-07
1.27198e-07
1.2489e-07
1.2489e-07
1.27345e-07
1.24748e-07
1.27198e-07
1.27198e-07
1.2489e-07
1.2489e-07
1.27198e-07
1.2489e-07
1.2489e-07
1.27345e-07
1.24748e-07
1.27198e-07
1.2489e-07
1.2489e-07
1.24748e-07
1.24407e-07
1.22547e-07
1.24276e-07
1.24276e-07
1.22659e-07
1.22659e-07
1.24407e-07
1.22547e-07
1.24276e-07
1.24276e-07
1.22659e-07
1.22659e-07
1.24276e-07
1.22659e-07
1.22659e-07
1.24407e-07
1.22547e-07
1.24276e-07
1.22659e-07
1.22659e-07
1.22547e-07
1.22277e-07
1.20689e-07
1.22168e-07
1.22168e-07
1.20792e-07
1.20792e-07
1.22277e-07
1.20689e-07
1.22168e-07
1.22168e-07
1.20792e-07
1.20792e-07
1.22168e-07
1.20792e-07
1.20792e-07
1.22277e-07
1.20689e-07
1.22168e-07
1.20792e-07
1.20792e-07
1.20689e-07
1.20453e-07
1.19017e-07
1.20358e-07
1.20358e-07
1.1911e-07
1.1911e-07
1.20453e-07
1.19017e-07
1.20358e-07
1.20358e-07
1.1911e-07
1.1911e-07
1.20358e-07
1.1911e-07
1.1911e-07
1.20453e-07
1.19017e-07
1.20358e-07
1.1911e-07
1.1911e-07
1.19017e-07
1.18799e-07
1.17451e-07
1.18709e-07
1.18709e-07
1.1754e-07
1.1754e-07
1.18799e-07
1.17451e-07
1.18709e-07
1.18709e-07
1.1754e-07
1.1754e-07
1.18709e-07
1.1754e-07
1.1754e-07
1.18799e-07
1.17451e-07
1.18709e-07
1.1754e-07
1.1754e-07
1.17451e-07
1.17244e-07
1.15956e-07
1.1716e-07
1.1716e-07
1.16042e-07
1.16042e-07
1.17244e-07
1.15956e-07
1.1716e-07
1.1716e-07
1.16042e-07
1.16042e-07
1.1716e-07
1.16042e-07
1.16042e-07
1.17244e-07
1.15956e-07
1.1716e-07
1.16042e-07
1.16042e-07
1.15956e-07
1.15757e-07
1.14511e-07
1.15676e-07
1.15676e-07
1.14593e-07
1.14593e-07
1.15757e-07
1.14511e-07
1.15676e-07
1.15676e-07
1.14593e-07
1.14593e-07
1.15676e-07
1.14593e-07
1.14593e-07
1.15757e-07
1.14511e-07
1.15676e-07
1.14593e-07
1.14593e-07
1.14511e-07
1.14317e-07
1.13101e-07
1.14237e-07
1.14237e-07
1.13181e-07
1.13181e-07
1.14317e-07
1.13101e-07
1.14237e-07
1.14237e-07
1.13181e-07
1.13181e-07
1.14237e-07
1.13181e-07
1.13181e-07
1.14317e-07
1.13101e-07
1.14237e-07
1.13181e-07
1.13181e-07
1.13101e-07
1.12911e-07
1.11718e-07
1.12833e-07
1.12833e-07
1.11796e-07
1.11796e-07
1.12911e-07
1.11718e-07
1.12833e-07
1.12833e-07
1.11796e-07
1.11796e-07
1.12833e-07
1.11796e-07
1.11796e-07
1.12911e-07
1.11718e-07
1.12833e-07
1.11796e-07
1.11796e-07
1.11718e-07
1.11531e-07
1.10355e-07
1.11454e-07
1.11454e-07
1.10432e-07
1.10432e-07
1.11531e-07
1.10355e-07
1.11454e-07
1.11454e-07
1.10432e-07
1.10432e-07
1.11454e-07
1.10432e-07
1.10432e-07
1.11531e-07
1.10355e-07
1.11454e-07
1.10432e-07
1.10432e-07
1.10355e-07
1.10169e-07
1.09006e-07
1.10093e-07
1.10093e-07
1.09083e-07
1.09083e-07
1.10169e-07
1.09006e-07
1.10093e-07
1.10093e-07
1.09083e-07
1.09083e-07
1.10093e-07
1.09083e-07
1.09083e-07
1.10169e-07
1.09006e-07
1.10093e-07
1.09083e-07
1.09083e-07
1.09006e-07
1.08823e-07
1.0767e-07
1.08747e-07
1.08747e-07
1.07745e-07
1.07745e-07
1.08823e-07
1.0767e-07
1.08747e-07
1.08747e-07
1.07745e-07
1.07745e-07
1.08747e-07
1.07745e-07
1.07745e-07
1.08823e-07
1.0767e-07
1.08747e-07
1.07745e-07
1.07745e-07
1.0767e-07
1.07487e-07
1.06342e-07
1.07412e-07
1.07412e-07
1.06417e-07
1.06417e-07
1.07487e-07
1.06342e-07
1.07412e-07
1.07412e-07
1.06417e-07
1.06417e-07
1.07412e-07
1.06417e-07
1.06417e-07
1.07487e-07
1.06342e-07
1.07412e-07
1.06417e-07
1.06417e-07
1.06342e-07
1.06161e-07
1.05021e-07
1.06086e-07
1.06086e-07
1.05096e-07
1.05096e-07
1.06161e-07
1.05021e-07
1.06086e-07
1.06086e-07
1.05096e-07
1.05096e-07
1.06086e-07
1.05096e-07
1.05096e-07
1.06161e-07
1.05021e-07
1.06086e-07
1.05096e-07
1.05096e-07
1.05021e-07
1.04841e-07
1.03706e-07
1.04766e-07
1.04766e-07
1.0378e-07
1.0378e-07
1.04841e-07
1.03706e-07
1.04766e-07
1.04766e-07
1.0378e-07
1.0378e-07
1.04766e-07
1.0378e-07
1.0378e-07
1.04841e-07
1.03706e-07
1.04766e-07
1.0378e-07
1.0378e-07
1.03706e-07
1.03526e-07
1.02395e-07
1.03452e-07
1.03452e-07
1.02469e-07
1.02469e-07
1.03526e-07
1.02395e-07
1.03452e-07
1.03452e-07
1.02469e-07
1.02469e-07
1.03452e-07
1.02469e-07
1.02469e-07
1.03526e-07
1.02395e-07
1.03452e-07
1.02469e-07
1.02469e-07
1.02395e-07
1.02216e-07
1.01089e-07
1.02142e-07
1.02142e-07
1.01162e-07
1.01162e-07
1.02216e-07
1.01089e-07
1.02142e-07
1.02142e-07
1.01162e-07
1.01162e-07
1.02142e-07
1.01162e-07
1.01162e-07
1.02216e-07
1.01089e-07
1.02142e-07
1.01162e-07
1.01162e-07
1.01089e-07
1.0091e-07
9.97851e-08
1.00836e-07
1.00836e-07
9.98586e-08
9.98586e-08
1.0091e-07
9.97851e-08
1.00836e-07
1.00836e-07
9.98586e-08
9.98586e-08
1.00836e-07
9.98586e-08
9.98586e-08
1.0091e-07
9.97851e-08
1.00836e-07
9.98586e-08
9.98586e-08
9.97851e-08
9.96066e-08
9.84831e-08
9.9533e-08
9.9533e-08
9.85566e-08
9.85566e-08
9.96066e-08
9.84832e-08
9.9533e-08
9.9533e-08
9.85566e-08
9.85566e-08
9.9533e-08
9.85566e-08
9.85566e-08
9.96066e-08
9.84831e-08
9.9533e-08
9.85566e-08
9.85566e-08
9.84831e-08
9.83048e-08
9.71819e-08
9.82313e-08
9.82313e-08
9.72554e-08
9.72554e-08
9.83048e-08
9.71819e-08
9.82313e-08
9.82313e-08
9.72554e-08
9.72554e-08
9.82313e-08
9.72554e-08
9.72554e-08
9.83048e-08
9.71819e-08
9.82313e-08
9.72554e-08
9.72554e-08
9.71819e-08
9.70036e-08
9.58809e-08
9.69301e-08
9.69301e-08
9.59543e-08
9.59543e-08
9.70036e-08
9.58809e-08
9.69301e-08
9.69301e-08
9.59543e-08
9.59543e-08
9.69301e-08
9.59543e-08
9.59543e-08
9.70036e-08
9.58809e-08
9.69301e-08
9.59543e-08
9.59543e-08
9.58809e-08
9.57026e-08
9.45798e-08
9.56291e-08
9.56291e-08
9.46533e-08
9.46533e-08
9.57026e-08
9.45798e-08
9.56291e-08
9.56291e-08
9.46533e-08
9.46533e-08
9.56291e-08
9.46533e-08
9.46533e-08
9.57026e-08
9.45798e-08
9.56291e-08
9.46533e-08
9.46533e-08
9.45798e-08
9.44015e-08
9.32788e-08
9.4328e-08
9.4328e-08
9.33522e-08
9.33522e-08
9.44015e-08
9.32788e-08
9.4328e-08
9.4328e-08
9.33522e-08
9.33522e-08
9.4328e-08
9.33522e-08
9.33522e-08
9.44015e-08
9.32788e-08
9.4328e-08
9.33522e-08
9.33522e-08
9.32788e-08
9.31005e-08
9.19777e-08
9.3027e-08
9.3027e-08
9.20512e-08
9.20512e-08
9.31005e-08
9.19777e-08
9.3027e-08
9.3027e-08
9.20512e-08
9.20512e-08
9.3027e-08
9.20512e-08
9.20512e-08
9.31005e-08
9.19777e-08
9.3027e-08
9.20512e-08
9.20512e-08
9.19777e-08
9.17994e-08
9.06767e-08
9.17259e-08
9.17259e-08
9.07502e-08
9.07502e-08
9.17994e-08
9.06767e-08
9.17259e-08
9.17259e-08
9.07502e-08
9.07502e-08
9.17259e-08
9.07502e-08
9.07502e-08
9.17994e-08
9.06767e-08
9.17259e-08
9.07502e-08
9.07502e-08
9.06767e-08
9.04984e-08
8.93757e-08
9.04249e-08
9.04249e-08
8.94492e-08
8.94492e-08
9.04984e-08
8.93757e-08
9.04249e-08
9.04249e-08
8.94492e-08
8.94492e-08
9.04249e-08
8.94492e-08
8.94492e-08
9.04984e-08
8.93757e-08
9.04249e-08
8.94492e-08
8.94492e-08
8.93757e-08
8.91974e-08
8.80747e-08
8.91239e-08
8.91239e-08
8.81481e-08
8.81481e-08
8.91974e-08
8.80747e-08
8.91239e-08
8.91239e-08
8.81481e-08
8.81481e-08
8.91239e-08
8.81481e-08
8.81481e-08
8.91974e-08
8.80747e-08
8.91239e-08
8.81481e-08
8.81481e-08
8.80747e-08
8.78964e-08
8.67737e-08
8.78229e-08
8.78229e-08
8.68471e-08
8.68471e-08
8.78964e-08
8.67737e-08
8.78229e-08
8.78229e-08
8.68471e-08
8.68471e-08
8.78229e-08
8.68471e-08
8.68471e-08
8.78964e-08
8.67737e-08
8.78229e-08
8.68471e-08
8.68471e-08
8.67736e-08
8.65954e-08
8.54727e-08
8.65218e-08
8.65218e-08
8.55461e-08
8.55461e-08
8.65954e-08
8.54727e-08
8.65218e-08
8.65218e-08
8.55461e-08
8.55461e-08
8.65218e-08
8.55461e-08
8.55461e-08
8.65954e-08
8.54727e-08
8.65218e-08
8.55461e-08
8.55461e-08
8.54726e-08
8.52944e-08
8.41717e-08
8.52208e-08
8.52208e-08
8.42451e-08
8.42451e-08
8.52944e-08
8.41717e-08
8.52208e-08
8.52208e-08
8.42451e-08
8.42451e-08
8.52208e-08
8.42451e-08
8.42451e-08
8.52944e-08
8.41717e-08
8.52208e-08
8.42451e-08
8.42451e-08
8.41717e-08
8.39934e-08
8.28707e-08
8.39199e-08
8.39199e-08
8.29441e-08
8.29441e-08
8.39934e-08
8.28707e-08
8.39199e-08
8.39199e-08
8.29441e-08
8.29441e-08
8.39199e-08
8.29441e-08
8.29441e-08
8.39934e-08
8.28707e-08
8.39199e-08
8.29441e-08
8.29441e-08
8.28707e-08
8.26924e-08
8.15697e-08
8.26189e-08
8.26189e-08
8.16432e-08
8.16432e-08
8.26924e-08
8.15697e-08
8.26189e-08
8.26189e-08
8.16432e-08
8.16432e-08
8.26189e-08
8.16432e-08
8.16432e-08
8.26924e-08
8.15697e-08
8.26189e-08
8.16432e-08
8.16432e-08
8.15697e-08
8.13914e-08
8.02687e-08
8.13179e-08
8.13179e-08
8.03422e-08
8.03422e-08
8.13914e-08
8.02688e-08
8.13179e-08
8.13179e-08
8.03422e-08
8.03422e-08
8.13179e-08
8.03422e-08
8.03422e-08
8.13914e-08
8.02687e-08
8.13179e-08
8.03422e-08
8.03422e-08
8.02687e-08
8.00905e-08
7.89678e-08
8.0017e-08
8.0017e-08
7.90412e-08
7.90412e-08
8.00905e-08
7.89678e-08
8.0017e-08
8.0017e-08
7.90412e-08
7.90412e-08
8.0017e-08
7.90412e-08
7.90412e-08
8.00905e-08
7.89678e-08
8.0017e-08
7.90412e-08
7.90412e-08
7.89678e-08
7.87895e-08
7.76669e-08
7.8716e-08
7.8716e-08
7.77403e-08
7.77403e-08
7.87895e-08
7.76669e-08
7.8716e-08
7.8716e-08
7.77403e-08
7.77403e-08
7.8716e-08
7.77403e-08
7.77403e-08
7.87895e-08
7.76669e-08
7.8716e-08
7.77403e-08
7.77403e-08
7.76669e-08
7.74886e-08
7.63659e-08
7.74151e-08
7.74151e-08
7.64394e-08
7.64394e-08
7.74886e-08
7.6366e-08
7.74151e-08
7.74151e-08
7.64394e-08
7.64394e-08
7.74151e-08
7.64394e-08
7.64394e-08
7.74886e-08
7.6366e-08
7.74151e-08
7.64394e-08
7.64394e-08
7.63659e-08
7.61877e-08
7.5065e-08
7.61142e-08
7.61142e-08
7.51385e-08
7.51385e-08
7.61877e-08
7.5065e-08
7.61142e-08
7.61142e-08
7.51385e-08
7.51385e-08
7.61142e-08
7.51385e-08
7.51385e-08
7.61877e-08
7.5065e-08
7.61142e-08
7.51385e-08
7.51385e-08
7.5065e-08
7.48867e-08
7.37641e-08
7.48132e-08
7.48132e-08
7.38375e-08
7.38375e-08
7.48867e-08
7.37641e-08
7.48132e-08
7.48132e-08
7.38375e-08
7.38375e-08
7.48132e-08
7.38375e-08
7.38375e-08
7.48867e-08
7.37641e-08
7.48132e-08
7.38375e-08
7.38375e-08
7.3764e-08
7.35858e-08
7.24631e-08
7.35123e-08
7.35123e-08
7.25365e-08
7.25365e-08
7.35858e-08
7.24631e-08
7.35123e-08
7.35123e-08
7.25365e-08
7.25365e-08
7.35123e-08
7.25365e-08
7.25365e-08
7.35858e-08
7.24631e-08
7.35123e-08
7.25365e-08
7.25365e-08
7.24631e-08
7.22848e-08
7.11621e-08
7.22113e-08
7.22113e-08
7.12355e-08
7.12355e-08
7.22848e-08
7.11621e-08
7.22113e-08
7.22113e-08
7.12355e-08
7.12355e-08
7.22113e-08
7.12355e-08
7.12355e-08
7.22848e-08
7.11621e-08
7.22113e-08
7.12355e-08
7.12355e-08
7.11621e-08
7.09838e-08
6.98611e-08
7.09103e-08
7.09103e-08
6.99345e-08
6.99345e-08
7.09838e-08
6.98611e-08
7.09103e-08
7.09103e-08
6.99345e-08
6.99345e-08
7.09103e-08
6.99345e-08
6.99345e-08
7.09838e-08
6.98611e-08
7.09103e-08
6.99345e-08
6.99345e-08
6.98611e-08
6.96828e-08
6.85601e-08
6.96093e-08
6.96093e-08
6.86335e-08
6.86335e-08
6.96828e-08
6.85601e-08
6.96093e-08
6.96093e-08
6.86335e-08
6.86335e-08
6.96093e-08
6.86335e-08
6.86335e-08
6.96828e-08
6.85601e-08
6.96093e-08
6.86335e-08
6.86335e-08
6.85601e-08
6.83818e-08
6.72591e-08
6.83083e-08
6.83083e-08
6.73325e-08
6.73325e-08
6.83818e-08
6.72591e-08
6.83083e-08
6.83083e-08
6.73325e-08
6.73325e-08
6.83083e-08
6.73325e-08
6.73325e-08
6.83818e-08
6.72591e-08
6.83083e-08
6.73325e-08
6.73325e-08
6.72591e-08
6.70808e-08
6.59581e-08
6.70073e-08
6.70073e-08
6.60315e-08
6.60315e-08
6.70808e-08
6.59581e-08
6.70073e-08
6.70073e-08
6.60315e-08
6.60315e-08
6.70073e-08
6.60315e-08
6.60315e-08
6.70808e-08
6.59581e-08
6.70073e-08
6.60315e-08
6.60315e-08
6.59581e-08
6.57798e-08
6.4657e-08
6.57063e-08
6.57063e-08
6.47305e-08
6.47305e-08
6.57798e-08
6.4657e-08
6.57063e-08
6.57063e-08
6.47305e-08
6.47305e-08
6.57063e-08
6.47305e-08
6.47305e-08
6.57798e-08
6.4657e-08
6.57063e-08
6.47305e-08
6.47305e-08
6.4657e-08
6.44787e-08
6.3356e-08
6.44052e-08
6.44052e-08
6.34294e-08
6.34294e-08
6.44787e-08
6.3356e-08
6.44052e-08
6.44052e-08
6.34294e-08
6.34294e-08
6.44052e-08
6.34294e-08
6.34294e-08
6.44787e-08
6.3356e-08
6.44052e-08
6.34294e-08
6.34294e-08
6.3356e-08
6.31777e-08
6.2055e-08
6.31042e-08
6.31042e-08
6.21284e-08
6.21284e-08
6.31777e-08
6.2055e-08
6.31042e-08
6.31042e-08
6.21284e-08
6.21284e-08
6.31042e-08
6.21284e-08
6.21284e-08
6.31777e-08
6.2055e-08
6.31042e-08
6.21284e-08
6.21284e-08
6.2055e-08
6.18767e-08
6.0754e-08
6.18032e-08
6.18032e-08
6.08274e-08
6.08274e-08
6.18767e-08
6.0754e-08
6.18032e-08
6.18032e-08
6.08274e-08
6.08274e-08
6.18032e-08
6.08274e-08
6.08274e-08
6.18767e-08
6.0754e-08
6.18032e-08
6.08274e-08
6.08274e-08
6.07539e-08
6.05757e-08
5.94529e-08
6.05021e-08
6.05021e-08
5.95264e-08
5.95264e-08
6.05757e-08
5.94529e-08
6.05021e-08
6.05021e-08
5.95264e-08
5.95264e-08
6.05021e-08
5.95264e-08
5.95264e-08
6.05757e-08
5.94529e-08
6.05021e-08
5.95264e-08
5.95264e-08
5.94529e-08
5.92746e-08
5.81519e-08
5.92011e-08
5.92011e-08
5.82253e-08
5.82253e-08
5.92746e-08
5.81519e-08
5.92011e-08
5.92011e-08
5.82253e-08
5.82253e-08
5.92011e-08
5.82253e-08
5.82253e-08
5.92746e-08
5.81519e-08
5.92011e-08
5.82253e-08
5.82253e-08
5.81519e-08
5.79736e-08
5.68508e-08
5.79001e-08
5.79001e-08
5.69243e-08
5.69243e-08
5.79736e-08
5.68508e-08
5.79001e-08
5.79001e-08
5.69243e-08
5.69243e-08
5.79001e-08
5.69243e-08
5.69243e-08
5.79736e-08
5.68508e-08
5.79001e-08
5.69243e-08
5.69243e-08
5.68508e-08
5.66725e-08
5.55498e-08
5.6599e-08
5.6599e-08
5.56232e-08
5.56232e-08
5.66725e-08
5.55498e-08
5.6599e-08
5.6599e-08
5.56232e-08
5.56232e-08
5.6599e-08
5.56232e-08
5.56232e-08
5.66725e-08
5.55498e-08
5.6599e-08
5.56232e-08
5.56232e-08
5.55498e-08
5.53715e-08
5.42488e-08
5.5298e-08
5.5298e-08
5.43222e-08
5.43222e-08
5.53715e-08
5.42488e-08
5.5298e-08
5.5298e-08
5.43222e-08
5.43222e-08
5.5298e-08
5.43222e-08
5.43222e-08
5.53715e-08
5.42488e-08
5.5298e-08
5.43222e-08
5.43222e-08
5.42487e-08
5.40705e-08
5.29478e-08
5.39969e-08
5.39969e-08
5.30212e-08
5.30212e-08
5.40705e-08
5.29478e-08
5.39969e-08
5.39969e-08
5.30212e-08
5.30212e-08
5.39969e-08
5.30212e-08
5.30212e-08
5.40705e-08
5.29477e-08
5.39969e-08
5.30212e-08
5.30212e-08
5.29477e-08
5.27695e-08
5.16467e-08
5.26959e-08
5.26959e-08
5.17202e-08
5.17202e-08
5.27694e-08
5.16467e-08
5.26959e-08
5.26959e-08
5.17202e-08
5.17202e-08
5.26959e-08
5.17202e-08
5.17202e-08
5.27695e-08
5.16467e-08
5.26959e-08
5.17202e-08
5.17202e-08
5.16467e-08
5.14684e-08
5.03457e-08
5.13949e-08
5.13949e-08
5.04191e-08
5.04191e-08
5.14684e-08
5.03457e-08
5.13949e-08
5.13949e-08
5.04191e-08
5.04191e-08
5.13949e-08
5.04191e-08
5.04191e-08
5.14684e-08
5.03457e-08
5.13949e-08
5.04191e-08
5.04191e-08
5.03457e-08
5.01674e-08
4.90446e-08
5.00939e-08
5.00939e-08
4.91181e-08
4.91181e-08
5.01674e-08
4.90446e-08
5.00939e-08
5.00939e-08
4.91181e-08
4.91181e-08
5.00939e-08
4.91181e-08
4.91181e-08
5.01674e-08
4.90446e-08
5.00939e-08
4.91181e-08
4.91181e-08
4.90446e-08
4.88663e-08
4.77436e-08
4.87928e-08
4.87928e-08
4.7817e-08
4.7817e-08
4.88663e-08
4.77436e-08
4.87928e-08
4.87928e-08
4.7817e-08
4.7817e-08
4.87928e-08
4.7817e-08
4.7817e-08
4.88663e-08
4.77436e-08
4.87928e-08
4.7817e-08
4.7817e-08
4.77436e-08
4.75653e-08
4.64426e-08
4.74918e-08
4.74918e-08
4.6516e-08
4.6516e-08
4.75653e-08
4.64426e-08
4.74918e-08
4.74918e-08
4.6516e-08
4.6516e-08
4.74918e-08
4.6516e-08
4.6516e-08
4.75653e-08
4.64426e-08
4.74918e-08
4.6516e-08
4.6516e-08
4.64426e-08
4.62643e-08
4.51416e-08
4.61908e-08
4.61908e-08
4.5215e-08
4.5215e-08
4.62643e-08
4.51416e-08
4.61908e-08
4.61908e-08
4.5215e-08
4.5215e-08
4.61908e-08
4.5215e-08
4.5215e-08
4.62643e-08
4.51415e-08
4.61908e-08
4.5215e-08
4.5215e-08
4.51415e-08
4.49632e-08
4.38405e-08
4.48897e-08
4.48897e-08
4.39139e-08
4.39139e-08
4.49632e-08
4.38405e-08
4.48897e-08
4.48897e-08
4.39139e-08
4.39139e-08
4.48897e-08
4.39139e-08
4.39139e-08
4.49632e-08
4.38405e-08
4.48897e-08
4.39139e-08
4.39139e-08
4.38405e-08
4.36622e-08
4.25394e-08
4.35887e-08
4.35887e-08
4.26129e-08
4.26129e-08
4.36622e-08
4.25394e-08
4.35887e-08
4.35887e-08
4.26129e-08
4.26129e-08
4.35887e-08
4.26129e-08
4.26129e-08
4.36622e-08
4.25394e-08
4.35887e-08
4.26129e-08
4.26129e-08
4.25394e-08
4.23611e-08
4.12384e-08
4.22876e-08
4.22876e-08
4.13119e-08
4.13119e-08
4.23611e-08
4.12384e-08
4.22876e-08
4.22876e-08
4.13119e-08
4.13119e-08
4.22876e-08
4.13119e-08
4.13119e-08
4.23611e-08
4.12384e-08
4.22876e-08
4.13119e-08
4.13119e-08
4.12384e-08
4.10601e-08
3.99374e-08
4.09866e-08
4.09866e-08
4.00109e-08
4.00109e-08
4.10601e-08
3.99374e-08
4.09866e-08
4.09866e-08
4.00109e-08
4.00109e-08
4.09866e-08
4.00109e-08
4.00109e-08
4.10601e-08
3.99374e-08
4.09866e-08
4.00109e-08
4.00109e-08
3.99374e-08
3.97591e-08
3.86364e-08
3.96856e-08
3.96856e-08
3.87099e-08
3.87099e-08
3.97591e-08
3.86364e-08
3.96856e-08
3.96856e-08
3.87099e-08
3.87099e-08
3.96856e-08
3.87099e-08
3.87099e-08
3.97592e-08
3.86364e-08
3.96856e-08
3.87099e-08
3.87099e-08
3.86364e-08
3.84581e-08
3.73354e-08
3.83846e-08
3.83846e-08
3.74088e-08
3.74088e-08
3.84581e-08
3.73354e-08
3.83846e-08
3.83846e-08
3.74088e-08
3.74088e-08
3.83846e-08
3.74088e-08
3.74088e-08
3.84581e-08
3.73354e-08
3.83846e-08
3.74088e-08
3.74088e-08
3.73354e-08
3.71571e-08
3.60344e-08
3.70836e-08
3.70836e-08
3.61078e-08
3.61078e-08
3.71571e-08
3.60344e-08
3.70836e-08
3.70836e-08
3.61078e-08
3.61078e-08
3.70836e-08
3.61078e-08
3.61078e-08
3.71571e-08
3.60344e-08
3.70836e-08
3.61078e-08
3.61078e-08
3.60344e-08
3.58561e-08
3.47334e-08
3.57826e-08
3.57826e-08
3.48068e-08
3.48068e-08
3.58561e-08
3.47334e-08
3.57826e-08
3.57826e-08
3.48068e-08
3.48068e-08
3.57826e-08
3.48068e-08
3.48068e-08
3.58561e-08
3.47334e-08
3.57826e-08
3.48068e-08
3.48068e-08
3.47334e-08
3.45551e-08
3.34325e-08
3.44816e-08
3.44816e-08
3.35059e-08
3.35059e-08
3.45551e-08
3.34325e-08
3.44816e-08
3.44816e-08
3.35059e-08
3.35059e-08
3.44816e-08
3.35059e-08
3.35059e-08
3.45551e-08
3.34325e-08
3.44816e-08
3.35059e-08
3.35059e-08
3.34324e-08
3.32542e-08
3.21315e-08
3.31807e-08
3.31807e-08
3.22049e-08
3.22049e-08
3.32542e-08
3.21315e-08
3.31807e-08
3.31807e-08
3.22049e-08
3.22049e-08
3.31807e-08
3.22049e-08
3.22049e-08
3.32542e-08
3.21315e-08
3.31807e-08
3.22049e-08
3.22049e-08
3.21315e-08
3.19532e-08
3.08305e-08
3.18797e-08
3.18797e-08
3.09039e-08
3.09039e-08
3.19532e-08
3.08305e-08
3.18797e-08
3.18797e-08
3.09039e-08
3.09039e-08
3.18797e-08
3.09039e-08
3.09039e-08
3.19532e-08
3.08305e-08
3.18797e-08
3.09039e-08
3.09039e-08
3.08305e-08
3.06522e-08
2.95295e-08
3.05787e-08
3.05787e-08
2.96029e-08
2.96029e-08
3.06522e-08
2.95295e-08
3.05787e-08
3.05787e-08
2.96029e-08
2.96029e-08
3.05787e-08
2.96029e-08
2.96029e-08
3.06522e-08
2.95295e-08
3.05787e-08
2.96029e-08
2.96029e-08
2.95294e-08
2.93512e-08
2.82284e-08
2.92776e-08
2.92776e-08
2.83019e-08
2.83019e-08
2.93512e-08
2.82284e-08
2.92776e-08
2.92776e-08
2.83019e-08
2.83019e-08
2.92776e-08
2.83019e-08
2.83019e-08
2.93512e-08
2.82284e-08
2.92776e-08
2.83019e-08
2.83019e-08
2.82284e-08
2.80501e-08
2.69274e-08
2.79766e-08
2.79766e-08
2.70009e-08
2.70009e-08
2.80501e-08
2.69274e-08
2.79766e-08
2.79766e-08
2.70009e-08
2.70009e-08
2.79766e-08
2.70009e-08
2.70009e-08
2.80501e-08
2.69274e-08
2.79766e-08
2.70009e-08
2.70009e-08
2.69274e-08
2.67491e-08
2.56264e-08
2.66756e-08
2.66756e-08
2.56999e-08
2.56999e-08
2.67491e-08
2.56264e-08
2.66756e-08
2.66756e-08
2.56999e-08
2.56999e-08
2.66756e-08
2.56999e-08
2.56999e-08
2.67491e-08
2.56264e-08
2.66756e-08
2.56999e-08
2.56999e-08
2.56264e-08
2.54481e-08
2.43254e-08
2.53746e-08
2.53746e-08
2.43988e-08
2.43988e-08
2.54481e-08
2.43254e-08
2.53746e-08
2.53746e-08
2.43988e-08
2.43988e-08
2.53746e-08
2.43988e-08
2.43988e-08
2.54481e-08
2.43253e-08
2.53746e-08
2.43988e-08
2.43988e-08
2.43253e-08
2.4147e-08
2.30242e-08
2.40735e-08
2.40735e-08
2.30977e-08
2.30977e-08
2.4147e-08
2.30242e-08
2.40735e-08
2.40735e-08
2.30977e-08
2.30977e-08
2.40735e-08
2.30977e-08
2.30977e-08
2.4147e-08
2.30242e-08
2.40735e-08
2.30977e-08
2.30977e-08
2.30242e-08
2.28459e-08
2.17232e-08
2.27724e-08
2.27724e-08
2.17966e-08
2.17966e-08
2.28459e-08
2.17232e-08
2.27724e-08
2.27724e-08
2.17966e-08
2.17966e-08
2.27724e-08
2.17966e-08
2.17966e-08
2.28459e-08
2.17232e-08
2.27724e-08
2.17966e-08
2.17966e-08
2.17231e-08
2.15449e-08
2.04221e-08
2.14713e-08
2.14713e-08
2.04955e-08
2.04955e-08
2.15449e-08
2.04221e-08
2.14713e-08
2.14713e-08
2.04955e-08
2.04955e-08
2.14713e-08
2.04955e-08
2.04955e-08
2.15449e-08
2.04221e-08
2.14713e-08
2.04955e-08
2.04955e-08
2.04221e-08
2.02438e-08
1.91211e-08
2.01703e-08
2.01703e-08
1.91945e-08
1.91945e-08
2.02438e-08
1.91211e-08
2.01703e-08
2.01703e-08
1.91945e-08
1.91945e-08
2.01703e-08
1.91945e-08
1.91945e-08
2.02438e-08
1.9121e-08
2.01703e-08
1.91945e-08
1.91945e-08
1.9121e-08
1.89427e-08
1.782e-08
1.88692e-08
1.88692e-08
1.78934e-08
1.78934e-08
1.89427e-08
1.782e-08
1.88692e-08
1.88692e-08
1.78934e-08
1.78934e-08
1.88692e-08
1.78934e-08
1.78934e-08
1.89428e-08
1.78199e-08
1.88692e-08
1.78934e-08
1.78934e-08
1.78199e-08
1.76416e-08
1.65188e-08
1.75681e-08
1.75681e-08
1.65923e-08
1.65923e-08
1.76416e-08
1.65188e-08
1.75681e-08
1.75681e-08
1.65923e-08
1.65923e-08
1.75681e-08
1.65923e-08
1.65923e-08
1.76416e-08
1.65188e-08
1.75681e-08
1.65923e-08
1.65923e-08
1.65188e-08
1.63405e-08
1.52177e-08
1.6267e-08
1.6267e-08
1.52912e-08
1.52912e-08
1.63405e-08
1.52177e-08
1.6267e-08
1.6267e-08
1.52912e-08
1.52912e-08
1.6267e-08
1.52912e-08
1.52912e-08
1.63405e-08
1.52177e-08
1.6267e-08
1.52912e-08
1.52912e-08
1.52177e-08
1.50394e-08
1.39167e-08
1.49659e-08
1.49659e-08
1.39901e-08
1.39901e-08
1.50394e-08
1.39167e-08
1.49659e-08
1.49659e-08
1.39901e-08
1.39901e-08
1.49659e-08
1.39901e-08
1.39901e-08
1.50394e-08
1.39167e-08
1.49659e-08
1.39901e-08
1.39901e-08
1.39167e-08
1.37384e-08
1.26157e-08
1.36649e-08
1.36649e-08
1.26891e-08
1.26891e-08
1.37384e-08
1.26157e-08
1.36649e-08
1.36649e-08
1.26891e-08
1.26891e-08
1.36649e-08
1.26891e-08
1.26891e-08
1.37384e-08
1.26157e-08
1.36649e-08
1.26891e-08
1.26891e-08
1.26157e-08
1.24374e-08
1.13147e-08
1.23639e-08
1.23639e-08
1.13881e-08
1.13881e-08
1.24374e-08
1.13147e-08
1.23639e-08
1.23639e-08
1.13881e-08
1.13881e-08
1.23639e-08
1.13881e-08
1.13881e-08
1.24374e-08
1.13147e-08
1.23639e-08
1.13881e-08
1.13881e-08
1.13147e-08
1.11364e-08
1.00136e-08
1.10628e-08
1.10628e-08
1.0087e-08
1.0087e-08
1.11364e-08
1.00136e-08
1.10628e-08
1.10628e-08
1.0087e-08
1.0087e-08
1.10628e-08
1.0087e-08
1.0087e-08
1.11364e-08
1.00136e-08
1.10628e-08
1.0087e-08
1.0087e-08
1.00136e-08
9.83527e-09
8.7125e-09
9.76175e-09
9.76175e-09
8.78594e-09
8.78594e-09
9.83527e-09
8.7125e-09
9.76175e-09
9.76175e-09
8.78594e-09
8.78594e-09
9.76175e-09
8.78594e-09
8.78594e-09
9.83528e-09
8.71249e-09
9.76175e-09
8.78593e-09
8.78593e-09
8.71247e-09
8.5342e-09
7.41147e-09
8.46068e-09
8.46068e-09
7.48491e-09
7.48491e-09
8.53419e-09
7.41148e-09
8.46068e-09
8.46068e-09
7.48491e-09
7.48491e-09
8.46068e-09
7.48492e-09
7.48492e-09
8.5342e-09
7.41147e-09
8.46068e-09
7.48491e-09
7.48492e-09
7.41147e-09
7.23318e-09
6.1105e-09
7.15968e-09
7.15969e-09
6.18393e-09
6.18394e-09
7.23319e-09
6.11051e-09
7.15968e-09
7.15968e-09
6.18393e-09
6.18394e-09
7.1597e-09
6.18395e-09
6.18395e-09
7.23319e-09
6.1105e-09
7.15969e-09
6.18395e-09
6.18395e-09
6.1105e-09
5.93222e-09
4.80953e-09
5.85874e-09
5.85874e-09
4.88296e-09
4.88295e-09
5.93222e-09
4.80951e-09
5.85874e-09
5.85874e-09
4.88296e-09
4.88296e-09
5.85875e-09
4.88294e-09
4.88294e-09
5.93224e-09
4.80952e-09
5.85875e-09
4.88296e-09
4.88295e-09
4.80948e-09
4.63126e-09
3.5085e-09
4.55781e-09
4.55779e-09
3.5819e-09
3.58188e-09
4.63124e-09
3.50846e-09
4.55781e-09
4.5578e-09
3.58191e-09
3.58188e-09
4.55778e-09
3.58186e-09
3.58184e-09
4.63126e-09
3.50846e-09
4.55778e-09
3.58187e-09
3.58184e-09
3.50841e-09
3.3303e-09
2.20841e-09
3.25678e-09
3.25676e-09
2.28055e-09
2.28055e-09
3.33026e-09
2.20843e-09
3.25678e-09
3.25676e-09
2.28055e-09
2.28052e-09
3.25672e-09
2.28055e-09
2.28054e-09
3.33028e-09
2.20839e-09
3.25672e-09
2.28052e-09
2.28054e-09
2.20839e-09
2.03047e-09
8.70348e-10
1.95559e-09
1.95558e-09
1.02712e-09
1.02709e-09
2.03048e-09
8.70365e-10
1.95558e-09
1.95553e-09
1.02727e-09
1.02701e-09
1.95557e-09
1.02727e-09
1.0271e-09
2.03044e-09
8.70272e-10
1.95558e-09
1.02713e-09
1.02729e-09
8.70396e-10
6.6561e-10
7.33969e-10
7.33897e-10
6.65646e-10
7.34037e-10
7.3382e-10
6.67161e-10
6.67119e-10
6.67165e-10
7.3396e-10
6.6557e-10
7.34028e-10
1.28596e-07
1.29207e-07
1.2888e-07
1.2888e-07
1.30608e-07
1.29465e-07
1.31993e-07
1.29101e-07
1.30608e-07
1.29465e-07
1.29101e-07
1.31993e-07
1.29761e-07
1.32428e-07
1.32428e-07
1.25961e-07
1.27213e-07
1.27228e-07
1.25924e-07
1.27152e-07
1.25908e-07
1.25961e-07
1.27213e-07
1.27228e-07
1.25924e-07
1.27264e-07
1.27264e-07
1.27264e-07
1.24985e-07
1.24985e-07
1.24985e-07
1.24985e-07
1.26022e-07
1.27268e-07
1.27241e-07
1.26338e-07
1.27303e-07
1.25972e-07
1.26389e-07
1.27152e-07
1.25908e-07
1.26022e-07
1.27241e-07
1.27268e-07
1.26338e-07
1.27303e-07
1.26389e-07
1.25972e-07
1.27285e-07
1.27285e-07
1.26142e-07
1.25957e-07
1.25957e-07
1.23526e-07
1.24333e-07
1.24353e-07
1.23512e-07
1.24327e-07
1.23507e-07
1.23526e-07
1.24333e-07
1.24353e-07
1.23512e-07