/*--------------------------------*- C++ -*----------------------------------*\
| =========                 |                                                 |
| \\      /  F ield         | OpenFOAM: The Open Source CFD Toolbox           |
|  \\    /   O peration     | Version:  v2006                                 |
|   \\  /    A nd           | Website:  www.openfoam.com                      |
|    \\/     M anipulation  |                                                 |
\*---------------------------------------------------------------------------*/
FoamFile
{
    version     2.0;
    format      ascii;
    class       volScalarField;
    location    "125";
    object      epsilon;
}
// * * * * * * * * * * * * * * * * * * * * * * * * * * * * * * * * * * * * * //

dimensions      [0 2 -3 0 0 0 0];


internalField   nonuniform List<scalar> 
14199
(
1.50832e-06
1.78782e-07
1.50834e-06
1.78777e-07
3.8445e-06
3.84439e-06
1.20979e-05
4.56593e-06
1.06999e-05
3.84443e-06
4.56588e-06
1.07003e-05
1.20972e-05
1.20988e-05
4.56572e-06
1.07001e-05
3.84439e-06
4.56583e-06
1.07005e-05
1.20982e-05
2.21143e-05
7.0997e-06
7.0997e-06
2.21105e-05
9.1234e-08
9.12305e-08
1.80563e-06
6.95709e-07
5.79305e-07
1.50799e-06
6.97311e-07
5.78323e-07
1.8052e-06
1.80561e-06
6.95727e-07
5.79316e-07
1.50801e-06
6.97331e-07
5.78337e-07
1.80517e-06
2.37832e-06
9.25808e-07
9.27419e-07
2.37779e-06
5.21475e-06
1.8272e-05
3.0449e-06
8.8942e-06
8.89409e-06
3.13357e-07
3.0452e-06
1.82735e-05
5.28331e-07
5.216e-06
3.13361e-07
4.13539e-06
2.24966e-06
5.21449e-06
9.1106e-06
4.13553e-06
9.11099e-06
2.24965e-06
1.82741e-05
2.21124e-05
8.89445e-06
7.101e-06
7.10069e-06
2.21082e-05
8.89427e-06
1.82756e-05
9.63332e-06
2.16883e-05
2.16877e-05
9.63362e-06
2.16904e-05
2.16913e-05
4.14189e-06
2.25109e-06
5.21577e-06
9.11531e-06
2.25081e-06
4.14224e-06
9.11552e-06
2.37857e-06
9.25833e-07
1.34459e-06
3.04445e-06
1.34365e-06
9.27411e-07
2.37806e-06
1.34492e-06
3.04469e-06
1.34387e-06
2.06823e-06
1.07881e-06
5.26644e-07
1.07913e-06
1.078e-06
2.06868e-06
1.07777e-06
1.23477e-07
3.84444e-06
3.84444e-06
1.50805e-06
1.78785e-07
8.89418e-06
1.50797e-06
3.04454e-06
3.1333e-07
1.78803e-07
1.20979e-05
1.07002e-05
4.56574e-06
3.84447e-06
1.06998e-05
4.56568e-06
1.20986e-05
2.21093e-05
7.10103e-06
7.10108e-06
2.21135e-05
1.20979e-05
4.56598e-06
1.07005e-05
3.84454e-06
4.56587e-06
1.07001e-05
1.20986e-05
2.21097e-05
7.09938e-06
8.894e-06
7.09943e-06
2.21136e-05
1.82735e-05
4.14276e-06
5.21625e-06
2.25126e-06
9.11495e-06
9.63352e-06
2.16871e-05
2.16885e-05
4.13527e-06
9.11089e-06
9.27358e-07
2.37803e-06
2.37856e-06
9.25748e-07
6.97297e-07
1.80529e-06
5.78327e-07
1.50837e-06
1.80569e-06
5.79304e-07
6.95679e-07
6.9727e-07
1.80513e-06
5.78301e-07
1.50831e-06
5.79276e-07
1.80559e-06
6.95641e-07
9.27429e-07
2.37782e-06
1.34359e-06
3.04512e-06
2.37836e-06
1.34481e-06
9.25801e-07
2.06866e-06
1.07909e-06
5.27896e-07
3.13264e-07
1.82726e-05
5.21545e-06
8.89364e-06
7.10073e-06
1.82732e-05
5.21417e-06
2.24955e-06
2.24948e-06
9.11347e-06
4.13914e-06
1.07909e-06
1.07801e-06
2.06835e-06
9.25609e-07
3.04405e-06
2.37802e-06
1.34323e-06
7.726e-08
7.72622e-08
7.72584e-08
7.72607e-08
3.13148e-07
3.13118e-07
3.13302e-07
5.28134e-07
3.84424e-06
8.89438e-06
3.84433e-06
1.82738e-05
1.34413e-06
1.50798e-06
1.34416e-06
1.78724e-07
6.97117e-07
3.84428e-06
8.89409e-06
3.84456e-06
1.50789e-06
1.78722e-07
9.27323e-07
6.97099e-07
5.21609e-06
5.21448e-06
1.82721e-05
8.89412e-06
1.2098e-05
4.56581e-06
1.07006e-05
3.84432e-06
4.56571e-06
1.07001e-05
1.20986e-05
2.21137e-05
8.89466e-06
7.10105e-06
7.101e-06
2.21098e-05
1.20986e-05
3.84419e-06
4.56569e-06
1.07001e-05
4.56581e-06
1.07005e-05
1.2098e-05
1.82759e-05
1.2098e-05
1.07003e-05
4.56564e-06
3.84448e-06
1.06999e-05
4.56562e-06
1.20986e-05
2.21137e-05
8.89432e-06
7.09949e-06
7.09941e-06
2.21098e-05
1.20986e-05
3.84429e-06
1.06999e-05
4.5656e-06
1.07003e-05
4.56563e-06
1.2098e-05
4.1419e-06
2.25075e-06
5.21576e-06
9.11532e-06
9.11562e-06
2.25053e-06
4.14216e-06
4.13497e-06
2.24929e-06
5.21427e-06
9.11034e-06
2.24904e-06
9.11065e-06
4.13527e-06
9.63323e-06
2.16879e-05
2.16881e-05
2.16907e-05
2.1691e-05
9.63346e-06
1.82741e-05
2.21125e-05
8.89436e-06
7.10099e-06
7.10063e-06
2.21083e-05
1.07854e-06
1.07884e-06
2.06846e-06
2.0679e-06
5.26386e-07
1.07739e-06
1.07769e-06
9.27276e-07
3.04458e-06
2.37859e-06
9.25559e-07
3.04412e-06
1.34316e-06
2.37788e-06
6.97079e-07
1.80531e-06
5.78109e-07
1.50841e-06
1.80586e-06
5.79081e-07
6.95483e-07
9.27272e-07
3.04475e-06
2.37867e-06
9.25582e-07
3.04439e-06
2.37802e-06
1.3434e-06
1.50842e-06
1.8058e-06
5.79172e-07
6.95424e-07
1.50798e-06
1.80528e-06
5.78087e-07
6.9704e-07
5.78088e-07
1.80515e-06
1.50834e-06
5.79061e-07
1.80569e-06
6.95442e-07
1.3446e-06
3.04504e-06
2.37842e-06
9.2563e-07
3.04453e-06
2.37775e-06
1.34363e-06
1.50835e-06
5.79155e-07
1.80567e-06
6.95401e-07
1.50789e-06
5.78067e-07
1.8051e-06
8.89418e-06
3.04489e-06
1.78788e-07
3.13255e-07
5.28032e-07
1.82717e-05
5.21525e-06
3.1341e-07
3.13378e-07
5.27938e-07
3.13364e-07
3.13289e-07
3.84453e-06
1.78781e-07
3.13242e-07
1.50833e-06
3.84449e-06
1.50829e-06
5.21446e-06
1.82722e-05
1.82744e-05
9.1231e-08
9.12353e-08
1.23457e-07
1.23474e-07
1.508e-06
3.0447e-06
1.78761e-07
3.13264e-07
3.04426e-06
1.78764e-07
1.50837e-06
3.0444e-06
1.50788e-06
1.50836e-06
5.21454e-06
5.21598e-06
5.2656e-07
5.21431e-06
5.21583e-06
1.82716e-05
5.2825e-07
5.21524e-06
8.89334e-06
8.8936e-06
3.04505e-06
3.13421e-07
3.04456e-06
3.84451e-06
8.89362e-06
3.84445e-06
1.50844e-06
3.04498e-06
1.78791e-07
1.50836e-06
1.78785e-07
5.21579e-06
5.21433e-06
5.26485e-07
5.21554e-06
5.21417e-06
1.82713e-05
1.82734e-05
3.8444e-06
8.89396e-06
8.89421e-06
3.84441e-06
1.50801e-06
1.78782e-07
3.0448e-06
3.13369e-07
1.78783e-07
3.04432e-06
1.50836e-06
3.84432e-06
8.89386e-06
8.89408e-06
3.84433e-06
1.50792e-06
1.78774e-07
3.0452e-06
3.13296e-07
1.78775e-07
3.04477e-06
1.5084e-06
1.82722e-05
1.82743e-05
1.82737e-05
1.82762e-05
2.21132e-05
8.89441e-06
7.10109e-06
2.21093e-05
7.10091e-06
1.82738e-05
4.13991e-06
2.24974e-06
5.215e-06
9.11219e-06
2.24981e-06
4.13802e-06
9.11264e-06
1.20986e-05
4.56584e-06
3.84439e-06
1.07001e-05
1.20979e-05
4.56592e-06
1.07005e-05
1.20985e-05
3.84434e-06
1.06998e-05
4.56568e-06
1.20979e-05
1.07002e-05
4.56576e-06
2.21136e-05
7.09945e-06
2.21097e-05
7.09939e-06
4.13546e-06
5.21468e-06
2.24941e-06
9.11083e-06
4.13519e-06
2.24963e-06
9.1105e-06
9.63367e-06
2.16911e-05
2.16906e-05
2.16877e-05
9.63336e-06
2.1688e-05
1.82744e-05
1.82723e-05
9.6332e-06
2.16901e-05
2.16902e-05
2.16871e-05
2.16873e-05
9.6329e-06
4.13596e-06
2.24969e-06
5.21431e-06
9.11098e-06
2.24939e-06
9.11103e-06
4.1364e-06
4.14167e-06
2.2511e-06
5.21583e-06
9.11488e-06
2.25099e-06
9.11548e-06
4.14175e-06
4.1361e-06
9.11093e-06
5.21449e-06
2.24944e-06
2.24959e-06
9.11066e-06
4.1358e-06
4.14192e-06
9.11556e-06
5.21602e-06
2.25108e-06
2.25125e-06
9.11524e-06
4.14179e-06
9.63297e-06
2.16875e-05
2.16867e-05
2.16904e-05
2.169e-05
9.63323e-06
1.82737e-05
9.63526e-06
2.16862e-05
2.16896e-05
9.63224e-06
2.16926e-05
2.16904e-05
4.13889e-06
2.25089e-06
9.11327e-06
5.21463e-06
4.13918e-06
9.11307e-06
2.2497e-06
2.21144e-05
8.89358e-06
7.09967e-06
7.09968e-06
2.21106e-05
2.21106e-05
7.09971e-06
8.89336e-06
7.0997e-06
2.21144e-05
1.20985e-05
1.07e-05
4.56589e-06
3.84442e-06
1.20978e-05
1.07004e-05
4.56595e-06
2.21134e-05
7.10112e-06
8.89386e-06
2.21094e-05
7.10085e-06
1.20988e-05
1.06999e-05
4.56571e-06
3.84437e-06
1.20982e-05
1.07003e-05
4.56582e-06
2.21145e-05
7.09972e-06
2.21106e-05
7.09972e-06
9.63345e-06
2.16904e-05
2.16909e-05
2.16875e-05
2.1688e-05
9.63322e-06
4.14195e-06
2.25097e-06
5.2155e-06
9.11487e-06
9.11519e-06
2.25073e-06
4.14216e-06
4.13525e-06
2.24953e-06
5.21415e-06
9.11069e-06
2.24934e-06
9.11099e-06
4.13537e-06
4.14218e-06
9.11521e-06
5.21581e-06
2.25083e-06
9.11489e-06
2.251e-06
4.14203e-06
4.13538e-06
9.11101e-06
5.21434e-06
2.24945e-06
2.24954e-06
9.1107e-06
4.13527e-06
9.63322e-06
2.16875e-05
2.1688e-05
2.16904e-05
2.16909e-05
9.63345e-06
1.82734e-05
1.82714e-05
1.20975e-05
4.56584e-06
1.07006e-05
3.84442e-06
4.56583e-06
1.07002e-05
1.20982e-05
2.21126e-05
8.8942e-06
7.10102e-06
7.10068e-06
2.21085e-05
2.21085e-05
7.10069e-06
8.89397e-06
7.10102e-06
2.21126e-05
1.20982e-05
3.84435e-06
4.56581e-06
1.07002e-05
4.56583e-06
1.07006e-05
1.20975e-05
1.20978e-05
1.07004e-05
4.56568e-06
3.84433e-06
1.07e-05
4.56558e-06
1.20985e-05
2.21134e-05
8.89406e-06
7.09933e-06
7.09927e-06
2.21096e-05
2.21096e-05
7.09931e-06
8.89383e-06
7.09931e-06
2.21134e-05
1.20985e-05
3.84427e-06
1.07e-05
4.56557e-06
1.07004e-05
4.56566e-06
1.20978e-05
1.82743e-05
1.82723e-05
1.82761e-05
1.82741e-05
1.82741e-05
3.84446e-06
8.89444e-06
3.84435e-06
3.84435e-06
8.89436e-06
3.84432e-06
8.89468e-06
1.8272e-05
1.20979e-05
1.06998e-05
4.56594e-06
3.84432e-06
1.20972e-05
1.07002e-05
4.56573e-06
2.21082e-05
8.89418e-06
7.10068e-06
7.10096e-06
2.21124e-05
1.20972e-05
3.84449e-06
4.56582e-06
1.07002e-05
1.06998e-05
4.56594e-06
1.20979e-05
1.20988e-05
1.07001e-05
4.56567e-06
3.84428e-06
1.20982e-05
1.07004e-05
4.56578e-06
2.21143e-05
7.09964e-06
8.89466e-06
2.21104e-05
7.09965e-06
1.20982e-05
3.84438e-06
4.56581e-06
1.07005e-05
1.07001e-05
4.56569e-06
1.20988e-05
2.21104e-05
8.89444e-06
7.09968e-06
7.09966e-06
2.21143e-05
9.25737e-07
1.3444e-06
3.0444e-06
2.37854e-06
9.27351e-07
2.37793e-06
1.34341e-06
2.06825e-06
1.07873e-06
1.07915e-06
5.26354e-07
1.07763e-06
1.07813e-06
2.06868e-06
2.06819e-06
1.07901e-06
1.07874e-06
5.26269e-07
1.07768e-06
1.07794e-06
2.06862e-06
6.95675e-07
1.80565e-06
5.79286e-07
1.50792e-06
6.97277e-07
1.80513e-06
5.78313e-07
6.9565e-07
5.79269e-07
1.50787e-06
1.80558e-06
6.97265e-07
5.78288e-07
1.80504e-06
9.25813e-07
2.37834e-06
9.27432e-07
2.37771e-06
1.23461e-07
9.12346e-08
9.1237e-08
9.12282e-08
1.23462e-07
9.12386e-08
9.12269e-08
7.7259e-08
7.72589e-08
9.12383e-08
9.12313e-08
1.23474e-07
9.12395e-08
9.12314e-08
7.72609e-08
7.72613e-08
9.12363e-08
6.97271e-07
1.80515e-06
5.78317e-07
1.50835e-06
1.80564e-06
5.79287e-07
6.95656e-07
9.25708e-07
1.34441e-06
3.04424e-06
2.37858e-06
1.34344e-06
2.3779e-06
9.27307e-07
9.27291e-07
2.3779e-06
3.0447e-06
1.34346e-06
1.34442e-06
2.3785e-06
9.25699e-07
6.95658e-07
1.50794e-06
1.80572e-06
5.79281e-07
1.80513e-06
5.78299e-07
6.97262e-07
3.04485e-06
2.37854e-06
2.37793e-06
9.27407e-07
1.34358e-06
1.34454e-06
9.25804e-07
1.80564e-06
1.50832e-06
1.80509e-06
6.97312e-07
5.78312e-07
5.79286e-07
6.957e-07
1.80573e-06
1.80512e-06
1.5079e-06
6.95698e-07
5.79281e-07
5.7829e-07
6.9731e-07
2.0687e-06
5.28138e-07
1.07765e-06
1.07815e-06
1.07871e-06
1.07921e-06
2.06825e-06
2.06814e-06
1.07835e-06
5.26452e-07
1.07937e-06
1.07732e-06
2.0685e-06
1.07773e-06
9.25817e-07
1.34485e-06
3.04454e-06
2.37841e-06
2.37776e-06
1.34386e-06
9.27426e-07
9.2742e-07
2.37772e-06
3.04506e-06
1.34388e-06
2.37834e-06
9.25807e-07
1.34486e-06
6.95737e-07
1.80585e-06
5.7934e-07
1.50804e-06
6.97355e-07
1.80533e-06
5.78351e-07
9.25924e-07
1.34492e-06
2.3788e-06
3.04445e-06
1.34377e-06
9.2756e-07
2.37816e-06
6.9567e-07
1.80561e-06
5.79316e-07
1.50798e-06
6.97286e-07
1.80515e-06
5.7833e-07
9.25809e-07
2.37833e-06
9.27419e-07
2.37781e-06
2.06862e-06
5.28063e-07
1.07799e-06
1.07773e-06
1.07877e-06
1.07903e-06
2.0682e-06
6.973e-07
5.78328e-07
1.80517e-06
1.50836e-06
5.79302e-07
1.80566e-06
6.95683e-07
9.25767e-07
1.34459e-06
3.04431e-06
2.37834e-06
1.34355e-06
2.37765e-06
9.27394e-07
9.27352e-07
2.37763e-06
3.04478e-06
1.34355e-06
1.34454e-06
2.37821e-06
9.25751e-07
6.95691e-07
1.50795e-06
5.79293e-07
1.80571e-06
5.78314e-07
1.80516e-06
6.97294e-07
1.50836e-06
1.80567e-06
1.80511e-06
6.97339e-07
5.78333e-07
5.79307e-07
6.95713e-07
2.37779e-06
2.37843e-06
3.04476e-06
9.25812e-07
1.34488e-06
1.34394e-06
9.27418e-07
2.37838e-06
2.37772e-06
3.04523e-06
9.27433e-07
1.34397e-06
1.34495e-06
9.25796e-07
1.50795e-06
1.80518e-06
1.80574e-06
6.95717e-07
5.79298e-07
5.7831e-07
6.97317e-07
7.72736e-08
5.28063e-07
1.2346e-07
3.13168e-07
3.13206e-07
5.27985e-07
1.2346e-07
3.13207e-07
3.13242e-07
5.28177e-07
1.23456e-07
3.13218e-07
3.13247e-07
5.28254e-07
1.23447e-07
3.13216e-07
3.13243e-07
5.28248e-07
1.23445e-07
3.13217e-07
3.13242e-07
5.28188e-07
1.23446e-07
3.13223e-07
3.13246e-07
5.28084e-07
1.23448e-07
3.13235e-07
3.13257e-07
5.28032e-07
5.26328e-07
3.13286e-07
3.13315e-07
5.26233e-07
3.13196e-07
3.13342e-07
3.13252e-07
3.13153e-07
3.1329e-07
5.2628e-07
3.13171e-07
3.13189e-07
3.13212e-07
5.26323e-07
5.2802e-07
5.26394e-07
3.13295e-07
3.13327e-07
3.13326e-07
3.1336e-07
5.27927e-07
5.26368e-07
3.13205e-07
3.13356e-07
3.13236e-07
3.13388e-07
3.13302e-07
3.13201e-07
3.13338e-07
5.28034e-07
5.26297e-07
3.13224e-07
3.13234e-07
3.13264e-07
5.26512e-07
5.28132e-07
5.26378e-07
3.13334e-07
3.13366e-07
3.13345e-07
3.13375e-07
5.28038e-07
5.26371e-07
3.13243e-07
3.13396e-07
3.1325e-07
3.13405e-07
3.13346e-07
3.13216e-07
3.13358e-07
5.28023e-07
5.2632e-07
3.13271e-07
3.13246e-07
3.13281e-07
5.26517e-07
5.28159e-07
5.26295e-07
3.13344e-07
3.13374e-07
3.13344e-07
3.13375e-07
5.28105e-07
5.26306e-07
3.13248e-07
3.13403e-07
3.13246e-07
3.13404e-07
3.13357e-07
3.13216e-07
3.13358e-07
5.28017e-07
5.26324e-07
3.13279e-07
3.13244e-07
3.13279e-07
5.26454e-07
5.2811e-07
5.26243e-07
3.13342e-07
3.13373e-07
3.13341e-07
3.13372e-07
5.28079e-07
5.26238e-07
3.13244e-07
3.13401e-07
3.13245e-07
3.13401e-07
3.13356e-07
3.13216e-07
3.13357e-07
5.28023e-07
5.26309e-07
3.13277e-07
3.13242e-07
3.13276e-07
5.2637e-07
5.28063e-07
5.26212e-07
3.13341e-07
3.13371e-07
3.13345e-07
3.13373e-07
5.28034e-07
5.26209e-07
3.13245e-07
3.13401e-07
3.13252e-07
3.13406e-07
3.13357e-07
3.1322e-07
3.13362e-07
5.28023e-07
5.26294e-07
3.13274e-07
3.13244e-07
3.13276e-07
5.26302e-07
5.27998e-07
5.26227e-07
3.13345e-07
3.13373e-07
3.13351e-07
3.13381e-07
5.27996e-07
5.26197e-07
3.13252e-07
3.13406e-07
3.13258e-07
3.13414e-07
3.13362e-07
3.13229e-07
3.13372e-07
5.28017e-07
5.26276e-07
3.13276e-07
3.13253e-07
3.13284e-07
5.26315e-07
5.27953e-07
5.26268e-07
3.13351e-07
3.13383e-07
3.13409e-07
3.13401e-07
5.27959e-07
5.26262e-07
3.13258e-07
3.13414e-07
3.13226e-07
3.13397e-07
3.13372e-07
3.13252e-07
3.1338e-07
5.28e-07
5.21441e-06
3.13282e-07
6.95693e-07
5.78299e-07
5.21527e-06
3.84412e-06
8.89358e-06
1.82745e-05
8.89477e-06
1.2344e-07
7.72762e-08
1.23445e-07
1.23461e-07
1.23446e-07
1.23456e-07
1.23454e-07
1.50793e-06
1.78702e-07
3.13126e-07
3.04403e-06
1.78707e-07
6.97077e-07
1.82758e-05
1.50789e-06
1.78716e-07
3.13156e-07
1.78721e-07
3.04415e-06
5.79189e-07
5.21429e-06
5.21587e-06
5.26389e-07
5.21408e-06
5.21567e-06
3.84414e-06
8.89324e-06
3.84421e-06
8.89347e-06
1.82722e-05
1.82743e-05
3.84419e-06
8.89456e-06
3.8443e-06
8.89478e-06
1.23448e-07
1.23459e-07
1.23456e-07
1.2346e-07
1.23453e-07
1.23464e-07
1.23463e-07
1.50798e-06
3.04456e-06
1.78726e-07
3.13178e-07
1.50836e-06
3.04413e-06
1.78731e-07
1.82738e-05
1.82757e-05
1.50792e-06
1.7874e-07
3.04467e-06
3.13215e-07
1.50834e-06
1.78744e-07
3.04424e-06
5.21426e-06
5.21586e-06
5.26369e-07
5.21409e-06
5.21569e-06
3.84412e-06
8.89321e-06
3.84421e-06
8.89345e-06
1.8272e-05
1.82742e-05
3.84414e-06
8.89452e-06
3.84423e-06
8.89475e-06
1.23454e-07
1.23465e-07
1.23464e-07
1.23458e-07
1.23454e-07
1.23465e-07
1.23465e-07
1.508e-06
3.04462e-06
1.78747e-07
3.13212e-07
1.50839e-06
3.04419e-06
1.7875e-07
1.82736e-05
1.82756e-05
1.50794e-06
1.7876e-07
3.04474e-06
3.13245e-07
1.5084e-06
1.78763e-07
3.04428e-06
5.21427e-06
5.21588e-06
5.26359e-07
5.21409e-06
5.2157e-06
3.84412e-06
8.89325e-06
3.8442e-06
8.89352e-06
1.8272e-05
1.82742e-05
3.84412e-06
8.8945e-06
3.8442e-06
8.89473e-06
1.23453e-07
1.23464e-07
1.23463e-07
1.23448e-07
1.23447e-07
1.23458e-07
1.23457e-07
1.50801e-06
3.04465e-06
1.78752e-07
3.13216e-07
1.50842e-06
3.0442e-06
1.7875e-07
1.82735e-05
1.82757e-05
1.50795e-06
1.78764e-07
3.04477e-06
3.13244e-07
1.50842e-06
1.78761e-07
3.0443e-06
5.21427e-06
5.21588e-06
5.26407e-07
5.21409e-06
5.2157e-06
3.8441e-06
8.89329e-06
3.84419e-06
8.89351e-06
1.82721e-05
1.82742e-05
3.84414e-06
8.8945e-06
3.8442e-06
8.89476e-06
1.23446e-07
1.23457e-07
1.23456e-07
1.23445e-07
1.23445e-07
1.23455e-07
1.23454e-07
1.50787e-06
3.04471e-06
1.78748e-07
3.13215e-07
1.50834e-06
3.04429e-06
1.78747e-07
1.82736e-05
1.82757e-05
1.5078e-06
1.78757e-07
3.04481e-06
3.13242e-07
1.50829e-06
1.78755e-07
3.04438e-06
5.21429e-06
5.21591e-06
5.26456e-07
5.21412e-06
5.21574e-06
3.84411e-06
8.89326e-06
3.84419e-06
8.89348e-06
1.82721e-05
1.82743e-05
3.84417e-06
8.89458e-06
3.84425e-06
8.89483e-06
1.23445e-07
1.23455e-07
1.23454e-07
1.23446e-07
1.23446e-07
1.23457e-07
1.23456e-07
1.50787e-06
3.04472e-06
1.78747e-07
3.13217e-07
1.50825e-06
3.04424e-06
1.78746e-07
1.82737e-05
1.82758e-05
1.50786e-06
1.78754e-07
3.04486e-06
3.13241e-07
1.50824e-06
1.78754e-07
3.04435e-06
5.21431e-06
5.21593e-06
5.26553e-07
5.21414e-06
5.21575e-06
3.84412e-06
8.89323e-06
3.84419e-06
8.89346e-06
1.82721e-05
1.82743e-05
3.8442e-06
8.89457e-06
3.84427e-06
8.89481e-06
1.23446e-07
1.23457e-07
1.23456e-07
1.23448e-07
1.23449e-07
1.2346e-07
1.23459e-07
1.50783e-06
3.04472e-06
1.78748e-07
3.13223e-07
1.50831e-06
3.04424e-06
1.78748e-07
1.82737e-05
1.82759e-05
1.50778e-06
1.78755e-07
3.04484e-06
3.13246e-07
1.50827e-06
1.78755e-07
3.04435e-06
5.21433e-06
5.21595e-06
5.26614e-07
5.21415e-06
5.21577e-06
3.84417e-06
8.8932e-06
3.84424e-06
8.8935e-06
1.82722e-05
1.82744e-05
3.84429e-06
8.89459e-06
3.84434e-06
8.89483e-06
1.2345e-07
1.2346e-07
1.23459e-07
1.23448e-07
9.12364e-08
1.23466e-07
7.72614e-08
1.50789e-06
3.04469e-06
1.78752e-07
3.13238e-07
1.50826e-06
3.04424e-06
1.78753e-07
1.82736e-05
1.82758e-05
1.50783e-06
1.78757e-07
3.04482e-06
3.13243e-07
1.50827e-06
1.78758e-07
3.04436e-06
5.21436e-06
5.21597e-06
5.26604e-07
5.21412e-06
5.21576e-06
1.82727e-05
1.82752e-05
5.26242e-07
5.21404e-06
5.21563e-06
1.82723e-05
1.82704e-05
1.82753e-05
1.82731e-05
5.27984e-07
5.21392e-06
5.21572e-06
5.21417e-06
5.21596e-06
3.84406e-06
8.89358e-06
1.50794e-06
3.13252e-07
3.044e-06
1.78714e-07
1.50792e-06
3.13289e-07
3.04434e-06
1.78723e-07
3.8442e-06
8.89348e-06
8.8933e-06
3.84413e-06
3.84414e-06
8.89356e-06
8.89334e-06
3.84408e-06
1.50836e-06
3.13271e-07
3.04402e-06
1.78729e-07
3.04445e-06
1.78722e-07
1.50793e-06
1.50834e-06
3.13302e-07
3.04438e-06
1.78738e-07
3.04484e-06
1.78728e-07
1.50787e-06
5.26278e-07
5.21531e-06
5.21402e-06
1.82733e-05
1.82744e-05
1.82723e-05
5.27982e-07
5.21533e-06
5.21402e-06
5.21558e-06
5.21418e-06
1.82733e-05
1.82713e-05
3.13161e-07
3.04454e-06
1.78731e-07
8.89431e-06
3.13312e-07
1.78726e-07
3.04457e-06
3.84431e-06
8.8948e-06
8.89453e-06
3.8442e-06
1.50838e-06
3.13175e-07
3.04459e-06
1.78746e-07
3.04503e-06
1.78739e-07
1.50793e-06
3.8444e-06
8.89433e-06
8.89407e-06
3.84418e-06
1.50834e-06
3.13328e-07
1.78743e-07
3.04462e-06
1.78737e-07
3.04507e-06
1.50791e-06
3.84415e-06
8.89414e-06
3.84423e-06
1.5079e-06
1.78714e-07
1.34416e-06
3.13262e-07
1.78721e-07
3.04412e-06
6.97093e-07
3.84406e-06
8.89377e-06
8.894e-06
3.84413e-06
1.50833e-06
3.1314e-07
3.04409e-06
1.78719e-07
3.04449e-06
1.78713e-07
1.50793e-06
3.84422e-06
8.89412e-06
8.8939e-06
3.84418e-06
1.50832e-06
3.13275e-07
1.78731e-07
3.04418e-06
1.78725e-07
3.04459e-06
1.50795e-06
3.84413e-06
8.89399e-06
8.89376e-06
3.8441e-06
5.26303e-07
5.21575e-06
5.21426e-06
1.82741e-05
1.82759e-05
1.82737e-05
5.27955e-07
5.21573e-06
5.21426e-06
5.21598e-06
5.21444e-06
1.8274e-05
1.8272e-05
1.50789e-06
1.78715e-07
1.34455e-06
3.13181e-07
1.78721e-07
3.04454e-06
6.97197e-07
3.84422e-06
8.89435e-06
3.84448e-06
3.8441e-06
8.89439e-06
8.89462e-06
3.84417e-06
1.50833e-06
3.13177e-07
1.78733e-07
3.04419e-06
1.78727e-07
3.04461e-06
1.50792e-06
1.50832e-06
3.13197e-07
1.78736e-07
3.0446e-06
1.78726e-07
3.045e-06
1.50794e-06
3.84435e-06
8.89434e-06
8.8941e-06
3.84415e-06
3.84419e-06
8.89461e-06
8.89438e-06
3.84412e-06
1.82723e-05
1.82742e-05
1.82742e-05
1.82761e-05
5.28098e-07
5.21408e-06
5.21568e-06
5.21425e-06
5.21585e-06
1.82742e-05
1.82722e-05
1.82761e-05
1.82741e-05
1.82703e-05
1.82723e-05
1.82732e-05
1.82752e-05
5.21409e-06
5.21586e-06
5.26256e-07
5.2139e-06
5.21565e-06
1.82722e-05
1.82702e-05
1.82752e-05
1.82732e-05
5.27962e-07
5.2139e-06
5.21563e-06
5.21407e-06
5.21581e-06
3.84408e-06
8.89331e-06
3.84416e-06
8.89354e-06
1.50795e-06
3.04449e-06
1.78734e-07
3.13305e-07
1.50835e-06
3.04407e-06
1.7874e-07
1.50792e-06
3.04489e-06
1.78743e-07
3.1334e-07
1.5083e-06
3.04444e-06
1.78749e-07
3.84422e-06
8.89345e-06
8.89322e-06
3.84413e-06
3.84416e-06
8.89352e-06
8.89329e-06
3.84407e-06
1.50838e-06
3.13317e-07
3.0441e-06
1.78752e-07
3.04453e-06
1.78746e-07
1.508e-06
1.50838e-06
3.13352e-07
3.04446e-06
1.7876e-07
3.04494e-06
1.78755e-07
1.50796e-06
5.21561e-06
5.21418e-06
5.26312e-07
5.21536e-06
5.21402e-06
1.82712e-05
1.82732e-05
1.82742e-05
1.82721e-05
5.28058e-07
5.21536e-06
5.21403e-06
5.21563e-06
5.21419e-06
1.82732e-05
1.82712e-05
1.50801e-06
3.04503e-06
1.78752e-07
3.13215e-07
1.50838e-06
3.0446e-06
1.78755e-07
3.84413e-06
8.89409e-06
3.84431e-06
8.89433e-06
1.50795e-06
1.78751e-07
3.04508e-06
3.13368e-07
1.50832e-06
1.78755e-07
3.04463e-06
3.84426e-06
8.89476e-06
8.89454e-06
3.84415e-06
1.50845e-06
3.13226e-07
3.04461e-06
1.78763e-07
3.04505e-06
1.78761e-07
1.50802e-06
3.84426e-06
8.89432e-06
8.89408e-06
3.8441e-06
1.50836e-06
3.13378e-07
1.78766e-07
3.04462e-06
1.78762e-07
3.04508e-06
1.50798e-06
3.84419e-06
8.89388e-06
3.84425e-06
8.89411e-06
1.50796e-06
1.78738e-07
3.04464e-06
3.13316e-07
1.50836e-06
1.78743e-07
3.04421e-06
3.84411e-06
8.89374e-06
3.84416e-06
8.89397e-06
1.50839e-06
3.13192e-07
3.04416e-06
1.78742e-07
3.04458e-06
1.78737e-07
1.50797e-06
3.84426e-06
8.8941e-06
8.89387e-06
3.8442e-06
1.50836e-06
3.13328e-07
1.78754e-07
3.04424e-06
1.78749e-07
3.04467e-06
1.50797e-06
3.84418e-06
8.89396e-06
8.89373e-06
3.84412e-06
5.21587e-06
5.21444e-06
5.26434e-07
5.21562e-06
5.21427e-06
1.82719e-05
1.82739e-05
1.82757e-05
1.82737e-05
5.28096e-07
5.21559e-06
5.21428e-06
5.21579e-06
5.21444e-06
1.82739e-05
1.82718e-05
1.50798e-06
1.78741e-07
3.04506e-06
3.13239e-07
1.50838e-06
1.78747e-07
3.04464e-06
3.84412e-06
8.89409e-06
3.84429e-06
8.89432e-06
3.84412e-06
8.89437e-06
3.8442e-06
8.8946e-06
1.50837e-06
3.13226e-07
1.78755e-07
3.04427e-06
1.78751e-07
3.04471e-06
1.50797e-06
1.50841e-06
3.13251e-07
1.78757e-07
3.04467e-06
1.78752e-07
3.0451e-06
1.508e-06
3.84426e-06
8.89431e-06
8.89407e-06
3.8441e-06
3.8442e-06
8.89458e-06
8.89435e-06
3.84411e-06
1.82721e-05
1.82741e-05
1.8274e-05
1.8276e-05
5.2812e-07
5.21409e-06
5.21569e-06
5.21426e-06
5.21586e-06
1.8274e-05
1.8272e-05
1.82759e-05
1.82739e-05
1.82702e-05
1.82722e-05
1.82731e-05
1.82751e-05
5.21407e-06
5.2158e-06
5.26328e-07
5.2139e-06
5.21563e-06
1.82722e-05
1.82702e-05
1.82751e-05
1.82731e-05
5.27976e-07
5.21392e-06
5.21564e-06
5.21408e-06
5.2158e-06
3.84407e-06
8.89327e-06
3.84415e-06
8.89351e-06
1.50798e-06
3.04455e-06
1.78756e-07
3.13341e-07
1.50842e-06
3.04411e-06
1.7876e-07
1.50793e-06
3.04495e-06
1.78764e-07
3.13371e-07
1.50838e-06
3.04448e-06
1.78767e-07
3.8442e-06
8.89348e-06
8.89321e-06
3.84412e-06
3.84415e-06
8.89352e-06
8.89327e-06
3.84407e-06
1.5084e-06
3.13344e-07
3.04416e-06
1.78761e-07
3.04457e-06
1.78761e-07
1.508e-06
1.50837e-06
3.13373e-07
3.0445e-06
1.78769e-07
3.04498e-06
1.78769e-07
1.50797e-06
5.21563e-06
5.21419e-06
5.26279e-07
5.21537e-06
5.21403e-06
1.82711e-05
1.82731e-05
1.82742e-05
1.8272e-05
5.27988e-07
5.21538e-06
5.21403e-06
5.21564e-06
5.2142e-06
1.82731e-05
1.82711e-05
1.50801e-06
3.04505e-06
1.78767e-07
3.13247e-07
1.50843e-06
3.04461e-06
1.78768e-07
3.84409e-06
8.89407e-06
3.84423e-06
8.89431e-06
1.50795e-06
1.78771e-07
3.04507e-06
3.13402e-07
1.50837e-06
1.78774e-07
3.04462e-06
3.84421e-06
8.89474e-06
8.89451e-06
3.84412e-06
1.50844e-06
3.13248e-07
3.04462e-06
1.7877e-07
3.04506e-06
1.78771e-07
1.50803e-06
3.84422e-06
8.89431e-06
8.89406e-06
3.84408e-06
1.50836e-06
3.13404e-07
1.78775e-07
3.04463e-06
1.78777e-07
3.04508e-06
1.50798e-06
3.84421e-06
8.89386e-06
3.84427e-06
8.8941e-06
1.508e-06
1.78758e-07
3.0447e-06
3.13353e-07
1.50838e-06
1.78761e-07
3.04426e-06
3.84413e-06
8.89372e-06
3.84419e-06
8.89395e-06
1.5084e-06
3.13215e-07
3.0442e-06
1.78751e-07
3.04463e-06
1.78751e-07
1.50801e-06
3.84427e-06
8.8941e-06
8.89386e-06
3.84422e-06
1.50839e-06
3.13357e-07
1.78762e-07
3.04427e-06
1.78761e-07
3.04472e-06
1.50799e-06
3.84419e-06
8.89396e-06
8.89371e-06
3.84414e-06
5.21576e-06
5.21445e-06
5.26476e-07
5.21558e-06
5.21428e-06
1.82718e-05
1.82738e-05
1.82756e-05
1.82735e-05
5.2816e-07
5.21559e-06
5.21428e-06
5.21576e-06
5.21445e-06
1.82738e-05
1.82717e-05
1.50799e-06
1.78761e-07
3.04512e-06
3.13277e-07
1.50842e-06
1.78765e-07
3.04469e-06
3.8441e-06
8.89406e-06
3.84424e-06
8.89429e-06
3.84412e-06
8.89434e-06
3.8442e-06
8.89457e-06
1.50837e-06
3.13246e-07
1.78764e-07
3.0443e-06
1.78764e-07
3.04474e-06
1.50798e-06
1.50842e-06
3.1328e-07
1.78767e-07
3.04471e-06
1.78766e-07
3.04514e-06
1.50803e-06
3.84425e-06
8.89429e-06
8.89405e-06
3.84411e-06
3.8442e-06
8.89456e-06
8.89433e-06
3.84412e-06
1.8272e-05
1.8274e-05
1.82739e-05
1.82759e-05
5.28044e-07
5.21409e-06
5.2157e-06
5.21426e-06
5.21587e-06
1.8274e-05
1.82719e-05
1.82759e-05
1.82738e-05
1.82702e-05
1.82723e-05
1.8273e-05
1.82751e-05
5.2141e-06
5.21581e-06
5.26382e-07
5.21394e-06
5.21564e-06
1.82723e-05
1.82702e-05
1.82751e-05
1.8273e-05
5.2798e-07
5.21395e-06
5.21565e-06
5.21412e-06
5.21581e-06
3.84407e-06
8.89329e-06
3.84415e-06
8.89355e-06
1.50801e-06
3.04463e-06
1.78761e-07
3.13344e-07
1.50843e-06
3.04424e-06
1.7876e-07
1.50796e-06
3.04499e-06
1.78769e-07
3.13375e-07
1.5084e-06
3.04454e-06
1.78768e-07
3.8442e-06
8.89353e-06
8.89329e-06
3.84411e-06
3.84415e-06
8.89358e-06
8.89332e-06
3.84406e-06
1.50842e-06
3.13344e-07
3.04426e-06
1.78758e-07
3.0447e-06
1.7876e-07
1.50795e-06
1.50838e-06
3.13375e-07
3.04461e-06
1.78766e-07
3.04505e-06
1.78767e-07
1.50792e-06
5.21566e-06
5.2142e-06
5.26348e-07
5.2154e-06
5.21404e-06
1.82711e-05
1.82731e-05
1.82742e-05
1.8272e-05
5.27993e-07
5.21542e-06
5.21406e-06
5.21567e-06
5.21421e-06
1.82732e-05
1.82711e-05
1.50798e-06
3.04506e-06
1.7877e-07
3.13248e-07
1.50845e-06
3.04461e-06
1.78768e-07
3.84408e-06
8.89407e-06
3.84421e-06
8.89433e-06
1.50793e-06
1.78775e-07
3.04508e-06
3.13403e-07
1.50838e-06
1.78773e-07
3.04464e-06
3.8442e-06
8.89473e-06
8.89449e-06
3.84411e-06
1.50838e-06
3.13247e-07
3.04459e-06
1.78765e-07
3.04505e-06
1.78768e-07
1.50788e-06
3.84421e-06
8.89438e-06
8.8941e-06
3.84408e-06
1.5083e-06
3.13403e-07
1.78771e-07
3.0447e-06
1.78774e-07
3.0451e-06
1.50784e-06
3.84422e-06
8.89387e-06
3.84428e-06
8.89412e-06
1.50801e-06
1.78762e-07
3.04473e-06
3.13357e-07
1.5084e-06
1.78761e-07
3.04428e-06
3.84414e-06
8.89372e-06
3.84421e-06
8.89397e-06
1.5084e-06
3.13216e-07
3.04424e-06
1.78749e-07
3.04465e-06
1.7875e-07
1.50796e-06
3.84427e-06
8.89415e-06
8.89388e-06
3.8442e-06
1.5084e-06
3.13357e-07
1.7876e-07
3.04432e-06
1.78761e-07
3.04474e-06
1.50796e-06
3.8442e-06
8.894e-06
8.89374e-06
3.84413e-06
5.21578e-06
5.21445e-06
5.26447e-07
5.21562e-06
5.21428e-06
1.82717e-05
1.82738e-05
1.82757e-05
1.82736e-05
5.28139e-07
5.21566e-06
5.2143e-06
5.21581e-06
5.21446e-06
1.82738e-05
1.82718e-05
1.508e-06
1.78766e-07
3.04515e-06
3.13279e-07
1.50846e-06
1.78765e-07
3.0447e-06
3.84411e-06
8.89405e-06
3.84426e-06
8.89429e-06
3.84412e-06
8.89433e-06
3.8442e-06
8.89457e-06
1.50836e-06
3.13245e-07
1.78759e-07
3.04433e-06
1.78761e-07
3.04476e-06
1.50788e-06
1.50841e-06
3.13279e-07
1.78761e-07
3.04474e-06
1.78763e-07
3.04515e-06
1.50794e-06
3.84426e-06
8.89432e-06
8.89405e-06
3.84411e-06
3.8442e-06
8.8946e-06
8.89434e-06
3.84411e-06
1.82719e-05
1.8274e-05
1.82738e-05
1.82759e-05
5.28015e-07
5.21411e-06
5.21572e-06
5.21427e-06
5.21588e-06
1.8274e-05
1.82719e-05
1.82759e-05
1.82738e-05
1.82703e-05
1.82723e-05
1.82731e-05
1.82752e-05
5.21412e-06
5.21583e-06
5.26421e-07
5.21395e-06
5.21567e-06
1.82723e-05
1.82703e-05
1.82752e-05
1.82731e-05
5.28004e-07
5.21395e-06
5.21571e-06
5.21412e-06
5.21585e-06
3.84405e-06
8.89334e-06
3.84413e-06
8.89357e-06
1.50786e-06
3.0447e-06
1.78756e-07
3.13341e-07
1.50836e-06
3.04421e-06
1.78756e-07
1.50781e-06
3.0451e-06
1.78764e-07
3.13373e-07
1.50833e-06
3.0446e-06
1.78763e-07
3.84418e-06
8.8935e-06
8.89326e-06
3.84411e-06
3.84413e-06
8.89354e-06
8.89332e-06
3.84405e-06
1.50826e-06
3.13341e-07
3.04422e-06
1.78755e-07
3.04466e-06
1.78755e-07
1.50782e-06
1.50822e-06
3.13373e-07
3.04454e-06
1.78762e-07
3.04507e-06
1.78762e-07
1.50778e-06
5.21569e-06
5.21423e-06
5.26384e-07
5.21542e-06
5.21407e-06
1.82712e-05
1.82732e-05
1.82742e-05
1.8272e-05
5.27998e-07
5.21542e-06
5.21408e-06
5.21569e-06
5.21424e-06
1.82732e-05
1.82712e-05
1.50782e-06
3.04503e-06
1.78764e-07
3.13244e-07
1.50827e-06
3.04461e-06
1.78763e-07
3.8441e-06
8.89414e-06
3.84421e-06
8.89439e-06
1.50778e-06
1.7877e-07
3.04517e-06
3.13401e-07
1.50822e-06
1.78769e-07
3.04474e-06
3.84422e-06
8.89481e-06
8.89453e-06
3.84416e-06
1.50824e-06
3.13244e-07
3.04469e-06
1.78763e-07
3.04507e-06
1.78764e-07
1.50786e-06
3.84423e-06
8.89438e-06
8.89415e-06
3.84412e-06
1.50818e-06
3.13401e-07
1.78769e-07
3.0447e-06
1.7877e-07
3.04519e-06
1.50781e-06
3.8442e-06
8.89392e-06
3.84426e-06
8.89418e-06
1.50788e-06
1.78758e-07
3.04479e-06
3.13356e-07
1.50834e-06
1.78758e-07
3.04437e-06
3.84412e-06
8.89377e-06
3.84419e-06
8.89403e-06
1.50826e-06
3.13215e-07
3.04428e-06
1.78747e-07
3.04474e-06
1.78747e-07
1.50784e-06
3.84426e-06
8.89417e-06
8.89394e-06
3.8442e-06
1.50825e-06
3.13356e-07
1.78757e-07
3.04436e-06
1.78757e-07
3.04484e-06
1.50783e-06
3.84418e-06
8.89403e-06
8.89379e-06
3.84412e-06
5.21585e-06
5.21448e-06
5.26436e-07
5.21569e-06
5.21431e-06
1.82718e-05
1.82739e-05
1.82758e-05
1.82737e-05
5.2812e-07
5.21571e-06
5.21433e-06
5.21588e-06
5.21449e-06
1.82739e-05
1.82718e-05
1.50784e-06
1.78759e-07
3.0452e-06
3.13277e-07
1.50834e-06
1.78758e-07
3.04479e-06
3.84412e-06
8.89408e-06
3.84426e-06
8.89435e-06
3.84412e-06
8.89437e-06
3.84419e-06
8.89463e-06
1.50821e-06
3.13242e-07
1.78754e-07
3.0444e-06
1.78755e-07
3.04485e-06
1.5078e-06
1.50826e-06
3.13276e-07
1.78757e-07
3.04479e-06
1.78758e-07
3.04525e-06
1.50785e-06
3.84428e-06
8.89437e-06
8.89412e-06
3.84414e-06
3.8442e-06