/*--------------------------------*- C++ -*----------------------------------*\
| =========                 |                                                 |
| \\      /  F ield         | OpenFOAM: The Open Source CFD Toolbox           |
|  \\    /   O peration     | Version:  v2012                                 |
|   \\  /    A nd           | Website:  www.openfoam.com                      |
|    \\/     M anipulation  |                                                 |
\*---------------------------------------------------------------------------*/
FoamFile
{
    version     2.0;
    format      ascii;
    class       volScalarField;
    location    "1675";
    object      epsilon;
}
// * * * * * * * * * * * * * * * * * * * * * * * * * * * * * * * * * * * * * //

dimensions      [0 2 -3 0 0 0 0];


internalField   nonuniform List<scalar> 
171728
(
1.84603e-09
3.32719e-09
4.90239e-09
5.23287e-09
1.77099e-09
3.07148e-09
4.4995e-09
4.70611e-09
1.52726e-09
2.81765e-09
4.09314e-09
4.24782e-09
1.30632e-09
2.59704e-09
3.72223e-09
3.87545e-09
1.16679e-09
2.40675e-09
3.37194e-09
3.56944e-09
1.08592e-09
2.24694e-09
3.08396e-09
3.31471e-09
1.02821e-09
2.11842e-09
2.86025e-09
3.08868e-09
9.81604e-10
2.02219e-09
2.68967e-09
2.90564e-09
9.39821e-10
1.95638e-09
2.56416e-09
2.75218e-09
9.01102e-10
1.92209e-09
2.47953e-09
2.63739e-09
8.64746e-10
1.91964e-09
2.43203e-09
2.56698e-09
8.30807e-10
1.94726e-09
2.42578e-09
2.52484e-09
7.99383e-10
2.01665e-09
2.46593e-09
2.50752e-09
7.70011e-10
2.1426e-09
2.56773e-09
2.54032e-09
7.43343e-10
2.34489e-09
2.75142e-09
2.68208e-09
7.18583e-10
2.65381e-09
3.05394e-09
3.02652e-09
6.9719e-10
3.14851e-09
3.51897e-09
3.55855e-09
6.78728e-10
3.88663e-09
4.29779e-09
4.40429e-09
6.63482e-10
5.01058e-09
5.37418e-09
5.56316e-09
6.53018e-10
6.63782e-09
7.03887e-09
7.85971e-09
6.48167e-10
8.9723e-09
9.55279e-09
1.17343e-08
6.51755e-10
1.28594e-08
1.30488e-08
1.89521e-08
6.71886e-10
1.74405e-08
1.7787e-08
2.74617e-08
7.15061e-10
2.40334e-08
2.49511e-08
5.36062e-08
7.89118e-10
3.31056e-08
3.33547e-08
6.37446e-08
9.16016e-10
4.42558e-08
4.48248e-08
1.20875e-07
1.11417e-09
5.85724e-08
5.95346e-08
1.53722e-07
1.38377e-09
7.4424e-08
7.57112e-08
2.1839e-07
1.77737e-09
9.68051e-08
9.69107e-08
2.88236e-07
2.29357e-09
1.16275e-07
1.17655e-07
3.74206e-07
2.8921e-09
1.43962e-07
1.46771e-07
4.40942e-07
3.84249e-09
1.73039e-07
1.73442e-07
5.17391e-07
5.18823e-09
2.071e-07
2.09172e-07
5.91685e-07
6.79474e-09
2.38078e-07
2.39869e-07
6.43391e-07
9.06584e-09
2.81934e-07
2.79982e-07
7.13467e-07
1.18987e-08
3.17856e-07
3.20747e-07
7.55665e-07
1.55936e-08
3.64243e-07
3.62552e-07
7.98998e-07
2.01511e-08
4.06007e-07
4.10513e-07
8.4514e-07
2.57228e-08
4.56664e-07
4.54338e-07
8.77552e-07
3.27152e-08
5.02129e-07
5.0408e-07
9.15349e-07
4.08644e-08
5.53454e-07
5.50348e-07
9.46792e-07
5.06021e-08
5.99337e-07
6.01565e-07
9.74898e-07
6.21781e-08
6.46074e-07
6.49538e-07
1.00922e-06
7.5737e-08
6.95146e-07
6.95473e-07
1.03416e-06
8.98638e-08
7.38944e-07
7.3776e-07
1.06548e-06
1.10014e-07
7.91045e-07
7.91989e-07
1.09517e-06
1.26363e-07
8.21088e-07
8.2449e-07
1.11321e-06
1.49182e-07
8.63748e-07
8.64327e-07
1.14045e-06
1.73227e-07
9.10406e-07
9.0605e-07
1.1784e-06
1.99123e-07
9.39481e-07
9.40864e-07
1.1939e-06
2.26567e-07
9.64381e-07
9.67474e-07
1.20676e-06
2.54449e-07
9.98942e-07
1.00042e-06
1.24292e-06
2.83632e-07
1.03433e-06
1.0321e-06
1.26824e-06
3.21538e-07
1.05006e-06
1.05187e-06
1.27129e-06
3.44131e-07
1.07581e-06
1.07332e-06
1.29064e-06
3.80002e-07
1.10117e-06
1.10203e-06
1.32595e-06
4.15773e-07
1.11889e-06
1.12318e-06
1.33083e-06
4.40033e-07
1.13671e-06
1.13534e-06
1.3414e-06
4.69247e-07
1.15376e-06
1.15801e-06
1.36616e-06
5.0586e-07
1.17838e-06
1.16932e-06
1.38129e-06
5.27384e-07
1.18352e-06
1.19055e-06
1.39154e-06
5.51555e-07
1.20603e-06
1.21366e-06
1.40278e-06
5.83302e-07
1.22776e-06
1.21305e-06
1.42315e-06
5.98632e-07
1.22572e-06
1.22153e-06
1.42677e-06
6.14751e-07
1.23338e-06
1.24613e-06
1.43666e-06
6.40023e-07
1.25928e-06
1.25891e-06
1.44788e-06
6.64901e-07
1.27196e-06
1.2665e-06
1.46491e-06
6.80008e-07
1.26931e-06
1.27201e-06
1.47098e-06
6.88485e-07
1.27491e-06
1.27675e-06
1.47086e-06
7.02057e-07
1.28984e-06
1.28775e-06
1.49236e-06
7.24915e-07
1.29865e-06
1.29687e-06
1.48272e-06
7.39562e-07
1.29737e-06
1.29591e-06
1.48193e-06
7.46916e-07
1.31108e-06
1.31145e-06
1.54713e-06
7.61311e-07
1.31666e-06
1.31881e-06
1.5156e-06
7.67817e-07
1.30081e-06
1.30346e-06
1.46345e-06
7.71011e-07
1.30143e-06
1.29865e-06
1.48922e-06
7.85102e-07
1.32426e-06
1.32451e-06
1.55801e-06
8.00163e-07
1.33762e-06
1.3402e-06
1.57822e-06
8.04914e-07
1.32714e-06
1.32734e-06
1.52573e-06
8.01655e-07
1.30495e-06
1.30289e-06
1.4643e-06
7.96774e-07
1.30319e-06
1.30064e-06
1.4833e-06
8.02357e-07
1.32595e-06
1.32854e-06
1.56263e-06
8.2342e-07
1.33959e-06
1.34198e-06
1.58235e-06
8.2821e-07
1.32304e-06
1.32579e-06
1.53156e-06
8.05818e-07
1.29623e-06
1.29907e-06
1.4956e-06
7.97706e-07
1.30027e-06
1.29192e-06
1.5033e-06
8.14597e-07
1.31904e-06
1.30981e-06
1.52099e-06
8.21062e-07
1.31426e-06
1.31833e-06
1.53818e-06
8.03366e-07
1.29412e-06
1.30372e-06
1.5366e-06
7.94137e-07
1.28756e-06
1.29054e-06
1.50618e-06
7.97623e-07
1.28584e-06
1.27884e-06
1.48356e-06
7.97818e-07
1.28183e-06
1.27488e-06
1.50459e-06
7.92484e-07
1.27982e-06
1.28263e-06
1.52585e-06
7.86057e-07
1.26689e-06
1.27378e-06
1.49854e-06
7.60105e-07
1.19968e-06
1.1989e-06
1.42821e-06
5.35694e-09
7.17772e-09
3.79926e-09
4.93053e-09
3.73144e-09
3.77651e-09
1.72324e-09
1.21962e-09
1.44299e-09
1.48795e-09
3.62463e-09
3.72342e-09
5.18226e-09
4.35436e-09
4.18153e-09
5.2538e-09
5.30416e-09
5.41876e-09
2.47173e-08
3.25546e-09
2.39752e-08
3.07478e-09
4.90795e-09
4.41893e-09
3.45826e-09
6.16157e-09
3.25879e-09
4.83289e-09
3.43646e-09
3.1413e-09
3.23738e-09
5.15142e-09
4.72291e-09
5.43931e-09
4.60949e-09
5.1543e-09
4.73828e-09
5.3476e-09
5.06035e-09
2.3525e-08
3.00291e-09
1.9097e-08
2.80418e-09
4.39201e-09
3.95589e-09
3.18645e-09
4.45892e-09
2.98326e-09
3.61879e-09
3.16354e-09
2.87788e-09
2.95706e-09
4.68689e-09
4.2389e-09
5.05823e-09
4.1904e-09
4.81097e-09
4.27406e-09
4.8607e-09
4.23821e-09
1.6861e-08
2.74277e-09
1.03143e-08
2.57149e-09
3.93379e-09
3.5692e-09
2.91937e-09
3.42667e-09
2.74048e-09
3.03143e-09
2.89284e-09
2.64948e-09
2.71371e-09
4.20923e-09
3.8206e-09
4.73879e-09
3.81364e-09
4.54889e-09
3.89723e-09
4.18276e-09
3.63922e-09
8.65876e-09
2.51872e-09
5.54594e-09
2.37211e-09
3.55315e-09
3.25451e-09
2.685e-09
2.93906e-09
2.52925e-09
2.73188e-09
2.65808e-09
2.45132e-09
2.50336e-09
3.79668e-09
3.46649e-09
4.49285e-09
3.45553e-09
4.33481e-09
3.58716e-09
3.60275e-09
3.2277e-09
4.94089e-09
2.32717e-09
3.80798e-09
2.20374e-09
3.24235e-09
2.98579e-09
2.48047e-09
2.68149e-09
2.34626e-09
2.56537e-09
2.45577e-09
2.28402e-09
2.32627e-09
3.44726e-09
3.17134e-09
4.28615e-09
3.14932e-09
4.15514e-09
3.32904e-09
3.2078e-09
2.93232e-09
3.56279e-09
2.16728e-09
3.06316e-09
2.07134e-09
2.97658e-09
2.74322e-09
2.30489e-09
2.53267e-09
2.19235e-09
2.44876e-09
2.28701e-09
2.14741e-09
2.1824e-09
3.15636e-09
2.93123e-09
4.11478e-09
2.91097e-09
4.0042e-09
3.09881e-09
2.9182e-09
2.70828e-09
2.94928e-09
2.0445e-09
2.69373e-09
1.97608e-09
2.73685e-09
2.54112e-09
2.15933e-09
2.42432e-09
2.07437e-09
2.36473e-09
2.15192e-09
2.04348e-09
2.07323e-09
2.92045e-09
2.73874e-09
3.97066e-09
2.72782e-09
3.87835e-09
2.91226e-09
2.70162e-09
2.53633e-09
2.63397e-09
1.95827e-09
2.50813e-09
1.91452e-09
2.53855e-09
2.38281e-09
2.05029e-09
2.34791e-09
1.99093e-09
2.30955e-09
2.05059e-09
1.97036e-09
1.99689e-09
2.7317e-09
2.58449e-09
3.85102e-09
2.59144e-09
3.78454e-09
2.75596e-09
2.53387e-09
2.40232e-09
2.47759e-09
1.90433e-09
2.41081e-09
1.88121e-09
2.38325e-09
2.26228e-09
1.97529e-09
2.29919e-09
1.94219e-09
2.27892e-09
1.98378e-09
1.92834e-09
1.95474e-09
2.58116e-09
2.46551e-09
3.76677e-09
2.4971e-09
3.73394e-09
2.63636e-09
2.40344e-09
2.3053e-09
2.39367e-09
1.87776e-09
2.36027e-09
1.8769e-09
2.26557e-09
2.17612e-09
1.93525e-09
2.27576e-09
1.92885e-09
2.27555e-09
1.95031e-09
1.91763e-09
1.94733e-09
2.46587e-09
2.38024e-09
3.72786e-09
2.44064e-09
3.71175e-09
2.56194e-09
2.30976e-09
2.24444e-09
2.35445e-09
1.87995e-09
2.35216e-09
1.90272e-09
2.18248e-09
2.12375e-09
1.93062e-09
2.27894e-09
1.94966e-09
2.30219e-09
1.95008e-09
1.93933e-09
1.97242e-09
2.38393e-09
2.32865e-09
3.70777e-09
2.42363e-09
3.68895e-09
2.51398e-09
2.25445e-09
2.22404e-09
2.35614e-09
1.91463e-09
2.39041e-09
1.96705e-09
2.13616e-09
2.10907e-09
1.96035e-09
2.31433e-09
2.012e-09
2.36572e-09
1.9845e-09
1.9986e-09
2.03594e-09
2.33775e-09
2.31402e-09
3.68386e-09
2.45025e-09
3.6749e-09
2.49109e-09
2.24334e-09
2.25421e-09
2.4091e-09
1.99072e-09
2.48029e-09
2.08018e-09
2.13035e-09
2.14322e-09
2.03381e-09
2.38918e-09
2.12079e-09
2.47824e-09
2.05832e-09
2.10948e-09
2.14292e-09
2.33195e-09
2.34561e-09
3.67783e-09
2.53558e-09
3.72564e-09
2.50821e-09
2.28728e-09
2.34771e-09
2.5128e-09
2.1175e-09
2.64494e-09
2.25738e-09
2.17745e-09
2.24348e-09
2.15784e-09
2.51696e-09
2.30388e-09
2.66031e-09
2.1787e-09
2.29118e-09
2.3201e-09
2.37627e-09
2.44255e-09
3.75711e-09
2.69532e-09
3.97404e-09
2.6173e-09
2.40233e-09
2.54419e-09
2.70025e-09
2.31723e-09
2.90983e-09
2.5369e-09
2.29926e-09
2.44723e-09
2.3635e-09
2.72102e-09
2.58476e-09
2.94213e-09
2.38058e-09
2.57199e-09
2.61319e-09
2.49452e-09
2.64183e-09
4.10982e-09
2.96194e-09
4.58918e-09
2.9164e-09
2.63222e-09
2.89539e-09
2.99422e-09
2.62426e-09
3.32958e-09
2.98019e-09
2.53745e-09
2.83119e-09
2.67182e-09
3.03813e-09
3.00805e-09
3.39308e-09
2.70663e-09
3.01649e-09
3.0595e-09
2.72881e-09
3.01037e-09
4.73891e-09
3.39106e-09
5.19149e-09
3.37556e-09
3.04141e-09
3.52907e-09
3.4653e-09
3.11976e-09
3.98457e-09
3.63391e-09
2.98198e-09
3.42961e-09
3.14673e-09
3.52158e-09
3.66782e-09
4.07665e-09
3.20045e-09
3.66401e-09
3.72279e-09
3.15394e-09
3.67095e-09
5.36835e-09
4.07416e-09
5.99992e-09
4.10619e-09
3.77961e-09
4.60241e-09
4.19543e-09
3.86178e-09
4.9594e-09
4.62763e-09
3.71338e-09
4.54241e-09
3.88145e-09
4.30575e-09
4.65596e-09
5.0484e-09
3.97807e-09
4.65391e-09
4.69304e-09
3.94577e-09
4.69953e-09
6.26783e-09
5.0234e-09
7.11913e-09
5.19722e-09
5.03638e-09
6.57195e-09
5.29383e-09
4.9852e-09
6.47971e-09
6.15304e-09
5.00268e-09
6.63073e-09
4.98724e-09
5.40319e-09
6.1783e-09
6.66101e-09
4.99278e-09
6.19316e-09
6.31655e-09
5.16005e-09
6.90262e-09
7.49441e-09
6.62399e-09
8.62672e-09
7.342e-09
7.23563e-09
9.86621e-09
6.9384e-09
6.60941e-09
8.67327e-09
8.37845e-09
7.22905e-09
1.004e-08
6.63468e-09
7.0814e-09
8.36926e-09
8.84309e-09
6.71099e-09
8.39678e-09
8.43391e-09
7.46324e-09
1.00644e-08
8.98225e-09
8.78226e-09
1.06106e-08
1.00999e-08
1.11851e-08
1.57711e-08
9.46612e-09
8.98312e-09
1.19307e-08
1.17564e-08
1.09792e-08
1.65751e-08
9.13464e-09
9.61643e-09
1.15174e-08
1.20608e-08
9.40304e-09
1.17969e-08
1.16819e-08
1.14033e-08
1.58238e-08
1.14382e-08
1.19912e-08
1.4306e-08
1.74488e-08
1.73049e-08
2.61971e-08
1.28573e-08
1.27785e-08
1.66747e-08
1.58999e-08
1.90939e-08
2.47808e-08
1.24446e-08
1.3132e-08
1.61887e-08
1.68046e-08
1.26916e-08
1.58714e-08
1.59369e-08
1.76518e-08
2.6696e-08
1.53557e-08
1.66029e-08
1.8198e-08
2.5362e-08
2.93236e-08
4.09679e-08
1.81138e-08
1.75524e-08
2.28397e-08
2.25494e-08
2.77264e-08
4.33227e-08
1.75563e-08
1.80264e-08
2.20726e-08
2.33589e-08
1.70733e-08
2.2356e-08
2.33349e-08
2.88635e-08
4.34288e-08
1.92496e-08
2.30614e-08
2.46331e-08
4.88768e-08
4.56379e-08
6.60168e-08
2.49037e-08
2.42294e-08
3.13174e-08
3.08861e-08
4.67007e-08
6.723e-08
2.41198e-08
2.5281e-08
3.01885e-08
3.14929e-08
2.5064e-08
3.07188e-08
2.93898e-08
4.85699e-08
6.56681e-08
2.60413e-08
3.08466e-08
2.98031e-08
5.86075e-08
7.09193e-08
1.03189e-07
3.36055e-08
3.3203e-08
4.30617e-08
4.10398e-08
7.40105e-08
9.79474e-08
3.24195e-08
3.39488e-08
4.18756e-08
4.2557e-08
3.20527e-08
4.07727e-08
4.24948e-08
7.15852e-08
1.01899e-07
3.23646e-08
4.18989e-08
4.33446e-08
1.12268e-07
1.13359e-07
1.43801e-07
4.61679e-08
4.46662e-08
5.61663e-08
5.56252e-08
1.0622e-07
1.53185e-07
4.47523e-08
4.56387e-08
5.4297e-08
5.6625e-08
4.52398e-08
5.50988e-08
5.39427e-08
1.10205e-07
1.48142e-07
4.67347e-08
5.58287e-08
5.68639e-08
1.44486e-07
1.54655e-07
2.10335e-07
6.09908e-08
5.89754e-08
7.33781e-08
7.02049e-08
1.62903e-07
2.01815e-07
5.87899e-08
6.03679e-08
7.05538e-08
7.23145e-08
5.79331e-08
6.97911e-08
7.10719e-08
1.597e-07
2.03454e-07
6.05512e-08
7.07207e-08
7.20396e-08
2.05467e-07
2.19911e-07
2.78054e-07
7.73599e-08
7.50028e-08
9.43285e-08
9.25197e-08
2.14481e-07
2.80903e-07
7.48562e-08
7.72538e-08
9.05806e-08
9.36646e-08
7.50787e-08
9.17097e-08
9.00834e-08
2.1423e-07
2.84977e-07
7.56985e-08
9.21942e-08
8.96039e-08
2.72878e-07
2.95661e-07
3.46905e-07
9.93132e-08
9.75712e-08
1.14567e-07
1.11222e-07
2.99327e-07
3.46516e-07
9.5182e-08
9.88018e-08
1.12033e-07
1.14095e-07
9.63705e-08
1.10416e-07
1.13084e-07
3.0183e-07
3.45726e-07
9.6039e-08
1.11505e-07
1.13388e-07
3.57945e-07
3.63512e-07
4.33792e-07
1.21759e-07
1.17265e-07
1.40806e-07
1.38853e-07
3.58397e-07
4.28462e-07
1.19182e-07
1.20215e-07
1.36863e-07
1.42411e-07
1.1861e-07
1.37875e-07
1.38098e-07
3.60633e-07
4.31662e-07
1.18655e-07
1.39822e-07
1.38034e-07
4.24712e-07
4.45993e-07
4.93785e-07
1.45538e-07
1.44945e-07
1.64786e-07
1.64954e-07
4.4678e-07
4.9993e-07
1.42346e-07
1.49345e-07
1.64277e-07
1.68709e-07
1.44378e-07
1.639e-07
1.65254e-07
4.46853e-07
5.04319e-07
1.44415e-07
1.65738e-07
1.6503e-07
5.02121e-07
5.10958e-07
5.75545e-07
1.73347e-07
1.7406e-07
1.9933e-07
2.01451e-07
5.15064e-07
5.77906e-07
1.72681e-07
1.76687e-07
1.97727e-07
2.04706e-07
1.74506e-07
2.00319e-07
2.00035e-07
5.18936e-07
5.76004e-07
1.74088e-07
2.01583e-07
2.00138e-07
5.78084e-07
5.90254e-07
6.35291e-07
2.07916e-07
2.08452e-07
2.3353e-07
2.29815e-07
5.92296e-07
6.31243e-07
2.05952e-07
2.12223e-07
2.31371e-07
2.33762e-07
2.06287e-07
2.28151e-07
2.28862e-07
5.92043e-07
6.32262e-07
2.06565e-07
2.30381e-07
2.29074e-07
6.291e-07
6.48917e-07
6.92797e-07
2.41795e-07
2.39621e-07
2.69347e-07
2.73819e-07
6.45332e-07
6.97381e-07
2.3997e-07
2.43364e-07
2.68877e-07
2.74147e-07
2.39174e-07
2.72838e-07
2.71504e-07
6.45152e-07
6.95961e-07
2.39389e-07
2.70887e-07
2.71084e-07
6.99643e-07
7.06275e-07
7.44985e-07
2.7951e-07
2.83348e-07
3.10292e-07
3.08787e-07
7.10611e-07
7.41863e-07
2.79188e-07
2.83005e-07
3.09536e-07
3.13026e-07
2.82339e-07
3.07549e-07
3.11921e-07
7.10104e-07
7.43743e-07
2.81419e-07
3.09885e-07
3.1201e-07
7.45041e-07
7.56757e-07
7.89978e-07
3.20358e-07
3.18618e-07
3.53039e-07
3.54043e-07
7.53245e-07
7.91429e-07
3.19449e-07
3.24289e-07
3.51884e-07
3.55507e-07
3.20686e-07
3.52535e-07
3.49112e-07
7.55355e-07
7.89847e-07
3.21292e-07
3.517e-07
3.48522e-07
7.87131e-07
8.01333e-07
8.31575e-07
3.64236e-07
3.66033e-07
3.97891e-07
3.97942e-07
8.03216e-07
8.30018e-07
3.62941e-07
3.6565e-07
3.97005e-07
3.99402e-07
3.60767e-07
3.96098e-07
4.00929e-07
8.01067e-07
8.31142e-07
3.60041e-07
3.99093e-07
4.01629e-07
8.34429e-07
8.41735e-07
8.69283e-07
4.09082e-07
4.07785e-07
4.4327e-07
4.43428e-07
8.39594e-07
8.6865e-07
4.08181e-07
4.10523e-07
4.42642e-07
4.42699e-07
4.13199e-07
4.42495e-07
4.4259e-07
8.41584e-07
8.68572e-07
4.13823e-07
4.41963e-07
4.42547e-07
8.68618e-07
8.79117e-07
9.04571e-07
4.55806e-07
4.57652e-07
4.93302e-07
4.94116e-07
8.79357e-07
9.05219e-07
4.54727e-07
4.55718e-07
4.91578e-07
4.95462e-07
4.53396e-07
4.92468e-07
4.93297e-07
8.78221e-07
9.05111e-07
4.53068e-07
4.92792e-07
4.92795e-07
9.05086e-07
9.13449e-07
9.36835e-07
5.0422e-07
5.03835e-07
5.39018e-07
5.40175e-07
9.13534e-07
9.37262e-07
5.02724e-07
5.06235e-07
5.38464e-07
5.39295e-07
5.05588e-07
5.3855e-07
5.41377e-07
9.14057e-07
9.35176e-07
5.05229e-07
5.37732e-07
5.41452e-07
9.39096e-07
9.45669e-07
9.68833e-07
5.52546e-07
5.54949e-07
5.9005e-07
5.90514e-07
9.4662e-07
9.68471e-07
5.51807e-07
5.5171e-07
5.88025e-07
5.90438e-07
5.54673e-07
5.90104e-07
5.88039e-07
9.43877e-07
9.69813e-07
5.54633e-07
5.89986e-07
5.88142e-07
9.6677e-07
9.76551e-07
9.97628e-07
6.00494e-07
5.99709e-07
6.35933e-07
6.33922e-07
9.7536e-07
9.95203e-07
5.9839e-07
6.0286e-07
6.3508e-07
6.37879e-07
5.97811e-07
6.31937e-07
6.37146e-07
9.78191e-07
9.98893e-07
5.97849e-07
6.36035e-07
6.35673e-07
1.00047e-06
1.00613e-06
1.02834e-06
6.4976e-07
6.48102e-07
6.85907e-07
6.85442e-07
1.00412e-06
1.02901e-06
6.49228e-07
6.50576e-07
6.84319e-07
6.86638e-07
6.52248e-07
6.85023e-07
6.8839e-07
1.00691e-06
1.02782e-06
6.50972e-07
6.86496e-07
6.88521e-07
1.02766e-06
1.0349e-06
1.05398e-06
6.95159e-07
6.96224e-07
7.27852e-07
7.28368e-07
1.03565e-06
1.05355e-06
6.93572e-07
6.95662e-07
7.26916e-07
7.25161e-07
6.97351e-07
7.26359e-07
7.27261e-07
1.03426e-06
1.05169e-06
6.97805e-07
7.24625e-07
7.28055e-07
1.05655e-06
1.06237e-06
1.08663e-06
7.41856e-07
7.40158e-07
7.79076e-07
7.79099e-07
1.06167e-06
1.08759e-06
7.41012e-07
7.38675e-07
7.77164e-07
7.82174e-07
7.39789e-07
7.79565e-07
7.81419e-07
1.05986e-06
1.08955e-06
7.40699e-07
7.814e-07
7.82327e-07
1.08884e-06
1.09276e-06
1.10744e-06
7.87901e-07
7.91074e-07
8.1471e-07
8.16291e-07
1.09451e-06
1.10782e-06
7.85555e-07
7.92502e-07
8.12839e-07
8.16248e-07
7.92837e-07
8.14191e-07
8.16745e-07
1.0966e-06
1.10866e-06
7.93503e-07
8.16044e-07
8.17079e-07
1.10801e-06
1.11422e-06
1.13804e-06
8.25625e-07
8.23041e-07
8.57442e-07
8.50851e-07
1.11297e-06
1.13104e-06
8.24521e-07
8.24987e-07
8.57599e-07
8.57047e-07
8.23536e-07
8.5079e-07
8.50833e-07
1.11407e-06
1.13647e-06
8.23936e-07
8.54737e-07
8.50727e-07
1.13192e-06
1.14467e-06
1.16145e-06
8.67078e-07
8.63129e-07
8.96076e-07
9.02344e-07
1.13917e-06
1.16952e-06
8.66239e-07
8.67081e-07
8.94028e-07
8.94976e-07
8.63175e-07
9.01902e-07
9.04049e-07
1.1441e-06
1.16117e-06
8.63127e-07
8.94235e-07
9.03687e-07
1.17098e-06
1.16804e-06
1.18762e-06
9.0548e-07
9.11552e-07
9.30499e-07
9.32678e-07
1.1765e-06
1.18944e-06
9.04427e-07
9.05969e-07
9.30649e-07
9.33157e-07
9.15116e-07
9.31811e-07
9.3439e-07
1.16768e-06
1.19013e-06
9.14441e-07
9.34649e-07
9.33996e-07
1.19066e-06
1.19324e-06
1.20965e-06
9.3876e-07
9.40103e-07
9.65424e-07
9.60005e-07
1.19389e-06
1.20575e-06
9.37638e-07
9.39545e-07
9.62491e-07
9.61993e-07
9.38951e-07
9.58687e-07
9.57298e-07
1.19538e-06
1.20653e-06
9.37994e-07
9.59499e-07
9.54005e-07
1.20135e-06
1.21597e-06
1.23045e-06
9.72684e-07
9.65679e-07
9.8923e-07
9.88281e-07
1.21057e-06
1.22779e-06
9.71445e-07
9.7134e-07
9.91144e-07
9.94096e-07
9.64826e-07
9.88494e-07
9.92349e-07
1.21241e-06
1.23442e-06
9.62111e-07
9.9244e-07
9.94133e-07
1.23421e-06
1.23514e-06
1.25366e-06
9.95838e-07
9.98193e-07
1.02323e-06
1.02787e-06
1.23536e-06
1.26014e-06
9.967e-07
1.00031e-06
1.02029e-06
1.02346e-06
1.00188e-06
1.02852e-06
1.02668e-06
1.23993e-06
1.25484e-06
1.00674e-06
1.02519e-06
1.03296e-06
1.26378e-06
1.26109e-06
1.27633e-06
1.03261e-06
1.03413e-06
1.04936e-06
1.04646e-06
1.26539e-06
1.27327e-06
1.03012e-06
1.03098e-06
1.05076e-06
1.04866e-06
1.03295e-06
1.04567e-06
1.04332e-06
1.26111e-06
1.27444e-06
1.03667e-06
1.04716e-06
1.04125e-06
1.26968e-06
1.27952e-06
1.28687e-06
1.05204e-06
1.05108e-06
1.06479e-06
1.06957e-06
1.27711e-06
1.29139e-06
1.05386e-06
1.05439e-06
1.06474e-06
1.07092e-06
1.04672e-06
1.06837e-06
1.06632e-06
1.27824e-06
1.29029e-06
1.04395e-06
1.06759e-06
1.06243e-06
1.28273e-06
1.29209e-06
1.31399e-06
1.07205e-06
1.07688e-06
1.09788e-06
1.09618e-06
1.29804e-06
1.31508e-06
1.07102e-06
1.07549e-06
1.09576e-06
1.0933e-06
1.07528e-06
1.09676e-06
1.10224e-06
1.29599e-06
1.3113e-06
1.07159e-06
1.09419e-06
1.10074e-06
1.32101e-06
1.32037e-06
1.32907e-06
1.10411e-06
1.10045e-06
1.11367e-06
1.11395e-06
1.31903e-06
1.32734e-06
1.10356e-06
1.10148e-06
1.11533e-06
1.12169e-06
1.10698e-06
1.11381e-06
1.11313e-06
1.31702e-06
1.33361e-06
1.10664e-06
1.12e-06
1.11436e-06
1.32842e-06
1.3316e-06
1.33928e-06
1.11682e-06
1.11952e-06
1.13127e-06
1.13436e-06
1.33196e-06
1.34413e-06
1.11791e-06
1.12501e-06
1.12967e-06
1.13266e-06
1.11542e-06
1.13353e-06
1.12699e-06
1.33768e-06
1.34203e-06
1.11666e-06
1.13123e-06
1.12701e-06
1.33715e-06
1.34482e-06
1.35943e-06
1.13707e-06
1.13719e-06
1.15062e-06
1.1475e-06
1.34741e-06
1.35355e-06
1.13505e-06
1.13654e-06
1.15193e-06
1.15218e-06
1.13254e-06
1.14804e-06
1.15362e-06
1.34535e-06
1.35885e-06
1.13227e-06
1.15218e-06
1.15316e-06
1.35911e-06
1.36374e-06
1.37803e-06
1.1555e-06
1.15307e-06
1.17372e-06
1.17374e-06
1.3585e-06
1.37885e-06
1.15747e-06
1.15754e-06
1.17175e-06
1.16646e-06
1.16037e-06
1.1738e-06
1.17331e-06
1.36448e-06
1.37002e-06
1.15995e-06
1.16703e-06
1.17152e-06
1.37851e-06
1.38228e-06
1.38417e-06
1.17832e-06
1.17896e-06
1.18475e-06
1.18283e-06
1.38381e-06
1.38252e-06
1.17425e-06
1.16892e-06
1.18125e-06
1.18455e-06
1.17667e-06
1.18207e-06
1.18641e-06
1.37213e-06
1.38377e-06
1.17434e-06
1.18363e-06
1.18503e-06
1.38731e-06
1.38701e-06
1.40192e-06
1.18683e-06
1.18378e-06
1.19878e-06
1.19907e-06
1.38414e-06
1.39718e-06
1.18554e-06
1.19237e-06
1.20434e-06
1.21567e-06
1.18886e-06
1.19907e-06
1.19757e-06
1.39162e-06
1.41894e-06
1.1893e-06
1.21083e-06
1.20034e-06
1.39907e-06
1.40862e-06
1.42142e-06
1.20447e-06
1.20613e-06
1.22224e-06
1.22617e-06
1.40497e-06
1.42911e-06
1.21127e-06
1.2185e-06
1.22185e-06
1.21399e-06
1.20236e-06
1.22543e-06
1.22111e-06
1.42293e-06
1.41207e-06
1.20417e-06
1.21363e-06
1.21888e-06
1.41794e-06
1.42406e-06
1.41982e-06
1.22584e-06
1.22881e-06
1.22812e-06
1.22616e-06
1.43241e-06
1.42146e-06
1.22231e-06
1.2114e-06
1.22155e-06
1.2098e-06
1.22603e-06
1.22636e-06
1.23012e-06
1.41234e-06
1.40292e-06
1.22291e-06
1.21645e-06
1.22753e-06
1.4251e-06
1.42106e-06
1.42667e-06
1.22802e-06
1.2245e-06
1.23281e-06
1.22463e-06
1.42206e-06
1.41852e-06
1.2218e-06
1.21364e-06
1.23302e-06
1.23521e-06
1.23078e-06
1.22862e-06
1.23701e-06
1.40718e-06
1.43301e-06
1.22908e-06
1.23981e-06
1.23738e-06
1.43263e-06
1.43204e-06
1.44861e-06
1.23601e-06
1.22928e-06
1.24853e-06
1.25174e-06
1.42303e-06
1.44742e-06
1.23847e-06
1.24314e-06
1.25506e-06
1.26231e-06
1.23945e-06
1.25217e-06
1.2484e-06
1.44123e-06
1.45809e-06
1.24067e-06
1.25722e-06
1.24985e-06
1.44447e-06
1.45343e-06
1.46646e-06
1.25375e-06
1.26006e-06
1.27135e-06
1.27458e-06
1.45582e-06
1.4731e-06
1.25906e-06
1.26566e-06
1.27073e-06
1.27047e-06
1.25186e-06
1.27142e-06
1.26632e-06
1.4617e-06
1.466e-06
1.25255e-06
1.26444e-06
1.26438e-06
1.4596e-06
1.47112e-06
1.46933e-06
1.27542e-06
1.27483e-06
1.27705e-06
1.27016e-06
1.47507e-06
1.46301e-06
1.27358e-06
1.27065e-06
1.27433e-06
1.26907e-06
1.27099e-06
1.26966e-06
1.27556e-06
1.46812e-06
1.46356e-06
1.26893e-06
1.27098e-06
1.27538e-06
1.46985e-06
1.47017e-06
1.46486e-06
1.27512e-06
1.26928e-06
1.27313e-06
1.27139e-06
1.46377e-06
1.46275e-06
1.27271e-06
1.26883e-06
1.27173e-06
1.2723e-06
1.27505e-06
1.27227e-06
1.27434e-06
1.46475e-06
1.46532e-06
1.27533e-06
1.2753e-06
1.27501e-06
1.46755e-06
1.4676e-06
1.47468e-06
1.27397e-06
1.27392e-06
1.28116e-06
1.28303e-06
1.46623e-06
1.47767e-06
1.27341e-06
1.27434e-06
1.2813e-06
1.28271e-06
1.27675e-06
1.28545e-06
1.29025e-06
1.46845e-06
1.47742e-06
1.27732e-06
1.28424e-06
1.29011e-06
1.48654e-06
1.47871e-06
1.49056e-06
1.28431e-06
1.28723e-06
1.29656e-06
1.29915e-06
1.48271e-06
1.49491e-06
1.28454e-06
1.28637e-06
1.2958e-06
1.29793e-06
1.29353e-06
1.29816e-06
1.2905e-06
1.48168e-06
1.4928e-06
1.29315e-06
1.29612e-06
1.28982e-06
1.48344e-06
1.49574e-06
1.50385e-06
1.30063e-06
1.30137e-06
1.30597e-06
1.30161e-06
1.49829e-06
1.49616e-06
1.29969e-06
1.30014e-06
1.30508e-06
1.29993e-06
1.2862e-06
1.2973e-06
1.28594e-06
1.49625e-06
1.49337e-06
1.28567e-06
1.29576e-06
1.28588e-06
1.47218e-06
1.50529e-06
1.49963e-06
1.30569e-06
1.30066e-06
1.30368e-06
1.30298e-06
1.49742e-06
1.50059e-06
1.30486e-06
1.29916e-06
1.30313e-06
1.30331e-06
1.29542e-06
1.30669e-06
1.32752e-06
1.49461e-06
1.50033e-06
1.29555e-06
1.30657e-06
1.32676e-06
1.53873e-06
1.5017e-06
1.5084e-06
1.30431e-06
1.30679e-06
1.31178e-06
1.31524e-06
1.50509e-06
1.51528e-06
1.30395e-06
1.30768e-06
1.31233e-06
1.31772e-06
1.33303e-06
1.31772e-06
1.31965e-06
1.50566e-06
1.51838e-06
1.33205e-06
1.31935e-06
1.3193e-06
1.51956e-06
1.51201e-06
1.50786e-06
1.31352e-06
1.31559e-06
1.31194e-06
1.30782e-06
1.51674e-06
1.5004e-06
1.31435e-06
1.31824e-06
1.31276e-06
1.30994e-06
1.30817e-06
1.30424e-06
1.28237e-06
1.52003e-06
1.50394e-06
1.30862e-06
1.30744e-06
1.2844e-06
1.46326e-06
1.5084e-06
1.49885e-06
1.30881e-06
1.30489e-06
1.30487e-06
1.30249e-06
1.50067e-06
1.49664e-06
1.30928e-06
1.30623e-06
1.30432e-06
1.30106e-06
1.27965e-06
1.29853e-06
1.29115e-06
1.50403e-06
1.4939e-06
1.28157e-06
1.2977e-06
1.29019e-06
1.47862e-06
1.50189e-06
1.51742e-06
1.30575e-06
1.3047e-06
1.31743e-06
1.31695e-06
1.50094e-06
1.51865e-06
1.30487e-06
1.30205e-06
1.31647e-06
1.3166e-06
1.30101e-06
1.31784e-06
1.33654e-06
1.49735e-06
1.51745e-06
1.2995e-06
1.31687e-06
1.33512e-06
1.54563e-06
1.52343e-06
1.53272e-06
1.32158e-06
1.3215e-06
1.32879e-06
1.3308e-06
1.52459e-06
1.5361e-06
1.32085e-06
1.32224e-06
1.32913e-06
1.33317e-06
1.34686e-06
1.33653e-06
1.35772e-06
1.52492e-06
1.53953e-06
1.34664e-06
1.33944e-06
1.36005e-06
1.57746e-06
1.53476e-06
1.53043e-06
1.32929e-06
1.33213e-06
1.328e-06
1.33163e-06
1.53915e-06
1.53557e-06
1.32979e-06
1.334e-06
1.32839e-06
1.3315e-06
1.35581e-06
1.33225e-06
1.32627e-06
1.54203e-06
1.53547e-06
1.35846e-06
1.33258e-06
1.32686e-06
1.53054e-06
1.53149e-06
1.51939e-06
1.32671e-06
1.32873e-06
1.32031e-06
1.31633e-06
1.53619e-06
1.51219e-06
1.32673e-06
1.32851e-06
1.31903e-06
1.31533e-06
1.31414e-06
1.30965e-06
1.28361e-06
1.53606e-06
1.51165e-06
1.31374e-06
1.30825e-06
1.28044e-06
1.46498e-06
1.51998e-06
1.50942e-06
1.31746e-06
1.31195e-06
1.30924e-06
1.30466e-06
1.51203e-06
1.50155e-06
1.31583e-06
1.3104e-06
1.30819e-06
1.30304e-06
1.27953e-06
1.3011e-06
1.28653e-06
1.51121e-06
1.49845e-06
1.27591e-06
1.29818e-06
1.2832e-06
1.47204e-06
1.51056e-06
1.51094e-06
1.30733e-06
1.30453e-06
1.30698e-06
1.31358e-06
1.50473e-06
1.52098e-06
1.30689e-06
1.30339e-06
1.30807e-06
1.3163e-06
1.29741e-06
1.31949e-06
1.33507e-06
1.50193e-06
1.5237e-06
1.29489e-06
1.32094e-06
1.33558e-06
1.54889e-06
1.51529e-06
1.53982e-06
1.31104e-06
1.31901e-06
1.33157e-06
1.33566e-06
1.52798e-06
1.54791e-06
1.31241e-06
1.322e-06
1.33086e-06
1.33495e-06
1.34583e-06
1.33868e-06
1.35512e-06
1.53175e-06
1.54958e-06
1.34748e-06
1.34154e-06
1.3587e-06
1.58204e-06
1.54777e-06
1.55506e-06
1.33775e-06
1.33843e-06
1.34132e-06
1.33477e-06
1.55222e-06
1.54434e-06
1.33642e-06
1.33617e-06
1.34016e-06
1.33167e-06
1.35155e-06
1.33012e-06
1.32338e-06
1.55255e-06
1.54273e-06
1.35573e-06
1.33183e-06
1.32591e-06
1.53493e-06
1.5552e-06
1.51447e-06
1.33579e-06
1.32748e-06
1.30786e-06
1.30413e-06
1.54369e-06
1.50637e-06
1.33586e-06
1.32731e-06
1.30982e-06
1.31028e-06
1.31384e-06
1.30075e-06
1.29524e-06
1.54288e-06
1.51507e-06
1.31547e-06
1.30474e-06
1.29355e-06
1.49489e-06
1.51237e-06
1.49228e-06
1.29939e-06
1.29797e-06
1.28984e-06
1.29322e-06
1.50598e-06
1.49966e-06
1.30148e-06
1.30442e-06
1.29012e-06
1.29426e-06
1.29366e-06
1.29552e-06
1.29653e-06
1.51469e-06
1.49829e-06
1.29111e-06
1.29155e-06
1.2918e-06
1.49893e-06
1.49621e-06
1.52549e-06
1.29179e-06
1.29623e-06
1.31287e-06
1.31386e-06
1.50487e-06
1.52993e-06
1.29097e-06
1.29397e-06
1.30902e-06
1.30376e-06
1.29904e-06
1.31537e-06
1.30771e-06
1.50005e-06
1.51435e-06
1.29402e-06
1.30442e-06
1.3033e-06
1.51612e-06
1.53475e-06
1.54495e-06
1.31952e-06
1.3192e-06
1.32518e-06
1.32274e-06
1.53664e-06
1.53971e-06
1.31543e-06
1.30877e-06
1.32277e-06
1.31766e-06
1.31061e-06
1.31895e-06
1.31635e-06
1.52158e-06
1.53601e-06
1.30749e-06
1.31858e-06
1.31795e-06
1.5341e-06
1.54532e-06
1.51167e-06
1.32107e-06
1.31866e-06
1.29693e-06
1.29776e-06
1.54016e-06
1.51187e-06
1.32054e-06
1.31745e-06
1.30001e-06
1.30595e-06
1.31691e-06
1.29843e-06
1.31198e-06
1.53786e-06
1.5242e-06
1.31956e-06
1.30729e-06
1.31596e-06
1.53602e-06
1.5107e-06
1.4943e-06
1.28984e-06
1.29166e-06
1.27998e-06
1.28332e-06
1.5116e-06
1.49975e-06
1.29378e-06
1.30225e-06
1.28342e-06
1.29235e-06
1.30755e-06
1.28781e-06
1.28941e-06
1.52463e-06
1.51211e-06
1.31052e-06
1.29293e-06
1.28943e-06
1.50743e-06
1.49682e-06
1.50563e-06
1.28036e-06
1.2836e-06
1.28733e-06
1.28765e-06
1.50239e-06
1.50725e-06
1.28327e-06
1.29084e-06
1.28619e-06
1.28452e-06
1.28344e-06
1.28657e-06
1.2724e-06
1.51326e-06
1.50308e-06
1.28241e-06
1.28142e-06
1.26939e-06
1.48233e-06
1.50948e-06
1.5098e-06
1.2894e-06
1.28856e-06
1.28941e-06
1.28673e-06
1.50958e-06
1.50621e-06
1.28699e-06
1.28251e-06
1.28472e-06
1.27553e-06
1.272e-06
1.2821e-06
1.27974e-06
1.5038e-06
1.49184e-06
1.26894e-06
1.27442e-06
1.27851e-06
1.49682e-06
1.51105e-06
1.50367e-06
1.28805e-06
1.28566e-06
1.28079e-06
1.28039e-06
1.50767e-06
1.50416e-06
1.28324e-06
1.27489e-06
1.27749e-06
1.2758e-06
1.28445e-06
1.28075e-06
1.2916e-06
1.49337e-06
1.49948e-06
1.2842e-06
1.28087e-06
1.29396e-06
1.52377e-06
1.50485e-06
1.49524e-06
1.27945e-06
1.27906e-06
1.26998e-06
1.26826e-06
1.5055e-06
1.49345e-06
1.27681e-06
1.2773e-06
1.27173e-06
1.276e-06
1.29101e-06
1.26919e-06
1.27072e-06
1.50369e-06
1.50343e-06
1.29378e-06
1.27712e-06
1.2731e-06
1.50005e-06
1.49616e-06
1.46827e-06
1.26798e-06
1.26589e-06
1.23877e-06
1.23653e-06
1.49396e-06
1.46249e-06
1.27058e-06
1.2742e-06
1.24301e-06
1.24316e-06
1.26623e-06
1.23696e-06
1.22886e-06
1.50424e-06
1.46911e-06
1.26798e-06
1.2378e-06
1.22648e-06
1.44925e-06
1.44719e-06
1.20116e-06
1.19932e-06
1.442e-06
1.2044e-06
1.204e-06
7.57649e-07
7.59111e-07
7.50783e-07
1.19134e-06
1.44634e-06
1.18853e-06
3.95973e-11
3.01151e-09
1.46841e-10
1.57066e-10
5.73662e-09
3.52827e-09
2.68454e-09
9.51892e-10
5.51923e-09
4.56634e-09
1.02772e-09
1.13072e-08
5.43583e-09
1.9969e-09
3.28862e-09
7.77423e-09
2.13095e-07
6.2018e-09
3.37824e-07
1.44813e-06
2.94779e-06
8.77762e-09
1.59218e-07
7.36497e-09
2.52758e-07
1.24082e-09
1.48198e-09
1.51578e-09
1.81813e-09
1.22305e-09
1.45637e-09
1.50182e-09
4.97788e-09
7.36178e-08
2.70577e-09
3.27857e-09
5.24305e-09
5.29562e-08
2.67815e-09
1.61893e-06
3.18179e-06
4.77967e-09
3.03732e-09
8.64026e-08
4.82879e-09
5.04584e-09
3.0011e-09
6.42819e-08
2.10806e-07
2.13987e-07
5.00923e-09
1.79687e-07
1.83044e-07
1.7172e-08
6.19497e-07
1.24269e-08
8.76946e-07
6.7215e-06
9.71174e-06
1.81291e-08
4.50264e-07
1.32819e-08
6.53508e-07
1.20841e-09
1.43368e-09
1.48555e-09