/*--------------------------------*- C++ -*----------------------------------*\
| =========                 |                                                 |
| \\      /  F ield         | OpenFOAM: The Open Source CFD Toolbox           |
|  \\    /   O peration     | Version:  v2012                                 |
|   \\  /    A nd           | Website:  www.openfoam.com                      |
|    \\/     M anipulation  |                                                 |
\*---------------------------------------------------------------------------*/
FoamFile
{
    version     2.0;
    format      ascii;
    class       volScalarField;
    location    "1675";
    object      nut;
}
// * * * * * * * * * * * * * * * * * * * * * * * * * * * * * * * * * * * * * //

dimensions      [0 2 -1 0 0 0 0];


internalField   nonuniform List<scalar> 
171728
(
1.92998e-06
1.7749e-06
2.19462e-06
2.26179e-06
1.91811e-06
1.76393e-06
2.19683e-06
2.20919e-06
1.97772e-06
1.75252e-06
2.19523e-06
2.15372e-06
2.25036e-06
1.73399e-06
2.16516e-06
2.10478e-06
2.08642e-06
1.70266e-06
2.12824e-06
2.06148e-06
1.81895e-06
1.66196e-06
2.10691e-06
2.01848e-06
1.69868e-06
1.61624e-06
2.0601e-06
1.97513e-06
1.68876e-06
1.56781e-06
1.99293e-06
1.91951e-06
1.69092e-06
1.52175e-06
1.93139e-06
1.86751e-06
1.6834e-06
1.4797e-06
1.87091e-06
1.8388e-06
1.66829e-06
1.43288e-06
1.79957e-06
1.80233e-06
1.65226e-06
1.36536e-06
1.70828e-06
1.72193e-06
1.63457e-06
1.27449e-06
1.60505e-06
1.54582e-06
1.62144e-06
1.17868e-06
1.49613e-06
1.47002e-06
1.60131e-06
1.09165e-06
1.39181e-06
1.45014e-06
1.58477e-06
1.0207e-06
1.2925e-06
1.58504e-06
1.56684e-06
9.7146e-07
1.2208e-06
1.75652e-06
1.54768e-06
9.39437e-07
1.1709e-06
1.87571e-06
1.53347e-06
9.24688e-07
1.09445e-06
1.84597e-06
1.51337e-06
1.02482e-06
1.24647e-06
1.96434e-06
1.49525e-06
1.23286e-06
1.38903e-06
1.33095e-06
1.47066e-06
1.7197e-06
1.65647e-06
2.97012e-06
1.42884e-06
1.92619e-06
2.15004e-06
3.61073e-06
1.36126e-06
2.77001e-06
3.12444e-06
8.37647e-06
1.27899e-06
4.083e-06
3.81613e-06
6.50556e-06
1.20747e-06
4.91208e-06
5.17729e-06
1.57605e-05
1.12589e-06
7.33021e-06
7.63124e-06
1.73461e-05
1.05877e-06
8.23891e-06
8.47523e-06
2.39531e-05
1.18396e-06
1.28802e-05
1.26558e-05
2.96883e-05
1.07259e-06
1.36858e-05
1.37522e-05
4.01675e-05
1.29361e-06
1.93871e-05
1.94891e-05
4.40604e-05
1.24871e-06
1.95482e-05
2.08952e-05
5.09335e-05
1.60348e-06
2.92249e-05
2.90318e-05
6.18255e-05
2.09271e-06
2.85155e-05
2.93174e-05
6.22691e-05
2.49757e-06
3.78902e-05
3.68261e-05
6.99378e-05
3.35767e-06
4.06294e-05
4.11542e-05
7.57621e-05
4.29613e-06
4.62838e-05
4.62064e-05
7.7772e-05
5.56709e-06
5.36884e-05
5.39737e-05
8.37379e-05
6.59163e-06
5.6452e-05
5.70683e-05
8.77618e-05
9.60354e-06
6.71403e-05
6.5913e-05
9.10048e-05
9.92194e-06
6.78886e-05
6.95022e-05
9.59468e-05
1.50768e-05
8.08193e-05
7.82249e-05
9.94376e-05
1.49094e-05
7.88604e-05
8.07604e-05
0.00010216
2.24608e-05
9.05956e-05
9.27569e-05
0.000108664
2.203e-05
9.27228e-05
9.11395e-05
0.00010846
3.07187e-05
0.000100905
0.000103051
0.000116703
3.3537e-05
0.000109566
0.000107291
0.000119281
3.94533e-05
0.000105246
0.000111071
0.000118461
4.3474e-05
0.000119199
0.000113191
0.000125917
5.28552e-05
0.00012166
0.000124899
0.000133038
5.53362e-05
0.00012841
0.00012474
0.000130294
6.78395e-05
0.000125467
0.000129051
0.000132439
6.73744e-05
0.000136996
0.000136249
0.000141941
7.92769e-05
0.000142593
0.000140634
0.000144724
9.07547e-05
0.000139715
0.00014263
0.000138369
8.50132e-05
0.000150262
0.000145174
0.00014987
0.000104289
0.00015135
0.000155023
0.000152737
0.000108185
0.00015771
0.000156693
0.000151235
0.000110497
0.000157591
0.00015683
0.000152934
0.000117909
0.000163376
0.00016591
0.000160336
0.000132567
0.000169974
0.000162738
0.00016049
0.000129837
0.00016569
0.000173305
0.000162709
0.000137487
0.000177084
0.00017937
0.000165656
0.000152461
0.000182723
0.000174711
0.000170097
0.000151181
0.000177527
0.000173531
0.000168738
0.000148126
0.000176534
0.000186147
0.000172139
0.000162154
0.000191096
0.000188968
0.000172775
0.000173626
0.000194148
0.000191715
0.000179768
0.000178962
0.000190249
0.000191301
0.000177618
0.000175904
0.000189652
0.000191692
0.000177206
0.000175754
0.000199534
0.000198954
0.000190228
0.000192461
0.000201906
0.000201122
0.000172797
0.000197739
0.000199126
0.000198144
0.000184069
0.000198722
0.000209494
0.000209313
0.000206842
0.000205938
0.000211417
0.0002127
0.000186435
0.000207715
0.000202879
0.000204196
0.000172223
0.000204136
0.000202582
0.000199943
0.00018336
0.000212993
0.000216412
0.000217085
0.000206078
0.000224954
0.000224276
0.000225413
0.000215255
0.000229719
0.000220459
0.000220994
0.000192385
0.000227334
0.000209547
0.000208354
0.00017389
0.000219667
0.000207798
0.000206174
0.00018514
0.000217727
0.00022432
0.000225942
0.000211784
0.0002433
0.000234229
0.000234656
0.000216188
0.000253284
0.00022576
0.000227783
0.000194923
0.000235192
0.000213601
0.00021622
0.000189691
0.000225747
0.000218482
0.000212612
0.000194536
0.00024509
0.000232519
0.000227886
0.000199935
0.000257061
0.000232757
0.000233594
0.000206509
0.000245198
0.000223393
0.000229058
0.000208441
0.000239203
0.000223992
0.000226689
0.000196538
0.000246399
0.000225574
0.000221743
0.000189332
0.000251379
0.000228222
0.000222887
0.00020355
0.000252868
0.000231294
0.000232452
0.000212054
0.000254804
0.000227222
0.000232196
0.000202813
2.19935e-06
2.75631e-06
2.14011e-06
2.24324e-06
2.13562e-06
2.79412e-06
1.875e-06
1.59429e-06
1.64476e-06
1.5555e-06
2.02566e-06
2.04845e-06
2.19368e-06
2.45792e-06
2.33871e-06
2.26732e-06
2.19888e-06
2.24314e-06
3.48862e-06
1.8094e-06
4.15029e-06
1.79869e-06
2.24079e-06
2.20249e-06
1.80445e-06
3.42529e-06
1.79522e-06
3.98686e-06
1.74871e-06
1.76497e-06
1.73644e-06
2.18102e-06
2.27993e-06
1.84811e-06
2.19496e-06
1.80129e-06
2.21195e-06
2.25467e-06
2.66215e-06
4.40222e-06
1.79449e-06
6.09949e-06
1.77976e-06
2.19977e-06
2.16531e-06
1.79503e-06
4.08631e-06
1.79274e-06
3.61357e-06
1.73505e-06
1.75558e-06
1.72704e-06
2.27873e-06
2.31686e-06
1.78094e-06
2.19721e-06
1.72509e-06
2.15594e-06
2.75243e-06
3.46758e-06
7.21733e-06
1.77362e-06
1.27051e-05
1.74972e-06
2.16338e-06
2.13792e-06
1.79083e-06
3.29732e-06
1.78671e-06
2.39753e-06
1.72504e-06
1.73923e-06
1.71644e-06
2.3116e-06
2.26908e-06
1.714e-06
2.17576e-06
1.68441e-06
2.10621e-06
3.44441e-06
3.18712e-06
1.50884e-05
1.73977e-06
1.64608e-05
1.70906e-06
2.13496e-06
2.10081e-06
1.78435e-06
2.16394e-06
1.75974e-06
1.7014e-06
1.71253e-06
1.71081e-06
1.69828e-06
2.2604e-06
2.17236e-06
1.68155e-06
2.13663e-06
1.66729e-06
2.06274e-06
2.91465e-06
2.42982e-06
1.48316e-05
1.6968e-06
8.49276e-06
1.6593e-06
2.09671e-06
2.05369e-06
1.74829e-06
1.61284e-06
1.72213e-06
1.47334e-06
1.69386e-06
1.67151e-06
1.67771e-06
2.16551e-06
2.10038e-06
1.66684e-06
2.11236e-06
1.6576e-06
2.02032e-06
2.39086e-06
2.16524e-06
6.66021e-06
1.64555e-06
3.33648e-06
1.5993e-06
2.04879e-06
2.00577e-06
1.7166e-06
1.45622e-06
1.7044e-06
1.43229e-06
1.67031e-06
1.62663e-06
1.64754e-06
2.09796e-06
2.04911e-06
1.65095e-06
2.07624e-06
1.6297e-06
1.97882e-06
2.15139e-06
2.04168e-06
2.84239e-06
1.58277e-06
2.17593e-06
1.53315e-06
2.00079e-06
1.95835e-06
1.69956e-06
1.42815e-06
1.67272e-06
1.41328e-06
1.63972e-06
1.57952e-06
1.61329e-06
2.04601e-06
1.9947e-06
1.61857e-06
2.00872e-06
1.56664e-06
1.92439e-06
2.03207e-06
1.97105e-06
2.07402e-06
1.51478e-06
1.89888e-06
1.46653e-06
1.95356e-06
1.91111e-06
1.66019e-06
1.40879e-06
1.61588e-06
1.39128e-06
1.60443e-06
1.53139e-06
1.57351e-06
1.99096e-06
1.93521e-06
1.54599e-06
1.94624e-06
1.51901e-06
1.8706e-06
1.9643e-06
1.90664e-06
1.86456e-06
1.45186e-06
1.77846e-06
1.41671e-06
1.90712e-06
1.86086e-06
1.60028e-06
1.38552e-06
1.54958e-06
1.36681e-06
1.56192e-06
1.48835e-06
1.52812e-06
1.92985e-06
1.87277e-06
1.52433e-06
1.88724e-06
1.54405e-06
1.84235e-06
1.89917e-06
1.82971e-06
1.75119e-06
1.40407e-06
1.66713e-06
1.36378e-06
1.85659e-06
1.7911e-06
1.53361e-06
1.36023e-06
1.48162e-06
1.34199e-06
1.51457e-06
1.44469e-06
1.4712e-06
1.86634e-06
1.8077e-06
1.55889e-06
1.81925e-06
1.63623e-06
1.80779e-06
1.82134e-06
1.74133e-06
1.6393e-06
1.34818e-06
1.55985e-06
1.29328e-06
1.7853e-06
1.70221e-06
1.46205e-06
1.33492e-06
1.40657e-06
1.31081e-06
1.45719e-06
1.38212e-06
1.40435e-06
1.80045e-06
1.73266e-06
1.65556e-06
1.73332e-06
1.6757e-06
1.73721e-06
1.73101e-06
1.64333e-06
1.53282e-06
1.2728e-06
1.44172e-06
1.20888e-06
1.69223e-06
1.59093e-06
1.38658e-06
1.30277e-06
1.32095e-06
1.27032e-06
1.38242e-06
1.29572e-06
1.31594e-06
1.72335e-06
1.64953e-06
1.66278e-06
1.63176e-06
1.44011e-06
1.56239e-06
1.62982e-06
1.53382e-06
1.4139e-06
1.18743e-06
1.33689e-06
1.11372e-06
1.57644e-06
1.46904e-06
1.30052e-06
1.25879e-06
1.23471e-06
1.21634e-06
1.2932e-06
1.19751e-06
1.22484e-06
1.63732e-06
1.56474e-06
1.39004e-06
1.52041e-06
1.33521e-06
1.47732e-06
1.51546e-06
1.42035e-06
1.30977e-06
1.09096e-06
1.21863e-06
1.01567e-06
1.45023e-06
1.35279e-06
1.2085e-06
1.20029e-06
1.13141e-06
1.15042e-06
1.20212e-06
1.11177e-06
1.13255e-06
1.54852e-06
1.47364e-06
1.32602e-06
1.41773e-06
1.29297e-06
1.45835e-06
1.39592e-06
1.30966e-06
1.1939e-06
9.91265e-07
1.1277e-06
9.33282e-07
1.33e-06
1.2413e-06
1.10677e-06
1.13177e-06
1.04579e-06
1.09216e-06
1.10767e-06
1.04073e-06
1.04986e-06
1.45315e-06
1.37887e-06
1.3022e-06
1.32077e-06
1.73245e-06
1.54895e-06
1.28582e-06
1.20366e-06
1.10449e-06
9.12731e-07
1.04035e-06
8.69736e-07
1.21722e-06
1.1454e-06
1.02623e-06
1.06998e-06
9.727e-07
1.05228e-06
1.03505e-06
9.75979e-07
9.8901e-07
1.35598e-06
1.28664e-06
1.97985e-06
1.23843e-06
2.87306e-06
1.73623e-06
1.18266e-06
1.11966e-06
1.02235e-06
8.65182e-07
9.73809e-07
8.22697e-07
1.14318e-06
1.04548e-06
9.58381e-07
1.04245e-06
9.26688e-07
1.00952e-06
9.94932e-07
9.22505e-07
9.41355e-07
1.27352e-06
1.19319e-06
3.14893e-06
1.14745e-06
3.64981e-06
1.90755e-06
1.11813e-06
1.09157e-06
9.77686e-07
8.41207e-07
9.60206e-07
8.28642e-07
1.03015e-06
1.05113e-06
9.32123e-07
1.03608e-06
9.22819e-07
9.9735e-07
9.57132e-07
9.08069e-07
9.97876e-07
1.2085e-06
1.16533e-06
3.80756e-06
1.11258e-06
3.89637e-06
1.93922e-06
1.09846e-06
1.23052e-06
9.6358e-07
8.57563e-07
1.05559e-06
9.52517e-07
1.02126e-06
1.29424e-06
9.3504e-07
9.98176e-07
1.02736e-06
1.15932e-06
9.61806e-07
1.01999e-06
1.11982e-06
1.11976e-06
1.46993e-06
3.72559e-06
1.24866e-06
3.39109e-06
1.90128e-06
1.28514e-06
1.37028e-06
1.08497e-06
9.60099e-07
1.1311e-06
1.14714e-06
1.29653e-06
1.61691e-06
1.05894e-06
1.16349e-06
1.12927e-06
1.24571e-06
1.15748e-06
1.24181e-06
1.03784e-06
1.49914e-06
1.44282e-06
3.25147e-06
1.29427e-06
2.54167e-06
1.37374e-06
1.46046e-06
2.3039e-06
1.22527e-06
1.14914e-06
1.52575e-06
1.47183e-06
1.71348e-06
1.84919e-06
1.23681e-06
1.35113e-06
1.47581e-06
1.50359e-06
1.16094e-06
1.47926e-06
1.47469e-06
1.57729e-06
2.21802e-06
2.37946e-06
1.55359e-06
2.64947e-06
2.92741e-06
2.38171e-06
3.06376e-06
1.54817e-06
1.66823e-06
1.99344e-06
1.70953e-06
2.37395e-06
3.10925e-06
1.50305e-06
1.60228e-06
1.96536e-06
2.13102e-06
1.59817e-06
1.79763e-06
2.06474e-06
2.23871e-06
3.81815e-06
2.82259e-06
2.15768e-06
2.98138e-06
3.78211e-06
3.56633e-06
4.70916e-06
2.18594e-06
1.85658e-06
2.56083e-06
2.65743e-06
2.89925e-06
5.97583e-06
2.16528e-06
2.13331e-06
2.44972e-06
2.76735e-06
1.97976e-06
2.67953e-06
2.74367e-06
4.09251e-06
4.58628e-06
2.84314e-06
2.77603e-06
3.53558e-06
6.03732e-06
4.89619e-06
8.57206e-06
2.87125e-06
2.75436e-06
3.70519e-06
3.71463e-06
6.28994e-06
7.40102e-06
2.78204e-06
3.07286e-06
3.56129e-06
3.71067e-06
3.48607e-06
3.65351e-06
3.5471e-06
5.61419e-06
7.90949e-06
4.1481e-06
3.54373e-06
3.93669e-06
7.33738e-06
8.99055e-06
1.04488e-05
3.76529e-06
4.08898e-06
5.26195e-06
4.47003e-06
8.50489e-06
1.12613e-05
3.5568e-06
3.97353e-06
5.14625e-06
5.08237e-06
3.30756e-06
4.55965e-06
5.11274e-06
8.14179e-06
1.15808e-05
3.62666e-06
5.08331e-06
4.65667e-06
1.27044e-05
1.22796e-05
1.62154e-05
5.79738e-06
4.84564e-06
6.04583e-06
6.7666e-06
1.10318e-05
1.80076e-05
5.69361e-06
5.24416e-06
5.91301e-06
6.98476e-06
5.89573e-06
6.58754e-06
6.13609e-06
1.25867e-05
1.59673e-05
5.41679e-06
6.79847e-06
6.82846e-06
1.76689e-05
1.56083e-05
2.59021e-05
6.98243e-06
7.49615e-06
9.37496e-06
8.22573e-06
2.00239e-05
2.24257e-05
6.80746e-06
7.59682e-06
8.52319e-06
8.5297e-06
6.31555e-06
8.37325e-06
9.06945e-06
1.68324e-05
2.43069e-05
7.26349e-06
8.20954e-06
9.72593e-06
2.21006e-05
2.68246e-05
2.72531e-05
9.22637e-06
8.13098e-06
1.21348e-05
1.13833e-05
2.33442e-05
2.66719e-05
8.50533e-06
8.9892e-06
1.18074e-05
1.13768e-05
9.52814e-06
1.11689e-05
9.87846e-06
2.40937e-05
2.85044e-05
1.01457e-05
1.14418e-05
9.88543e-06
2.86971e-05
3.11266e-05
3.60344e-05
1.3562e-05
1.30432e-05
1.34885e-05
1.38949e-05
2.97778e-05
4.0434e-05
1.24855e-05
1.25857e-05
1.24873e-05
1.43179e-05
1.1246e-05
1.39802e-05
1.4226e-05
3.30541e-05
3.754e-05
1.07589e-05
1.38681e-05
1.45802e-05
3.71747e-05
3.53752e-05
4.80135e-05
1.37115e-05
1.36593e-05
1.99628e-05
1.78299e-05
3.9795e-05
4.09827e-05
1.4018e-05
1.42493e-05
1.84175e-05
1.78386e-05
1.43515e-05
1.77357e-05
1.81686e-05
3.68597e-05
4.4222e-05
1.46129e-05
1.72991e-05
1.80138e-05
4.34018e-05
5.02856e-05
4.83987e-05
2.0483e-05
1.93987e-05
1.99012e-05
1.95855e-05
4.43053e-05
5.12582e-05
1.85635e-05
1.98997e-05
1.98745e-05
2.14509e-05
1.94617e-05
1.94338e-05
1.93076e-05
4.59333e-05
5.22209e-05
1.94555e-05
2.129e-05
1.94738e-05
5.08063e-05
4.86294e-05
5.74884e-05
2.10046e-05
1.98624e-05
2.5122e-05
2.69081e-05
5.11714e-05
5.75855e-05
2.1197e-05
2.11711e-05
2.51639e-05
2.72768e-05
1.96667e-05
2.69901e-05
2.78239e-05
5.30822e-05
5.63596e-05
1.96652e-05
2.63861e-05
2.76852e-05
5.88555e-05
5.9322e-05
6.33607e-05
2.63167e-05
2.92249e-05
3.07704e-05
2.94045e-05
6.0666e-05
6.29174e-05
2.63566e-05
2.96645e-05
3.01134e-05
3.00291e-05
2.89564e-05
2.91678e-05
2.81575e-05
5.91017e-05
6.4306e-05
2.89831e-05
2.96042e-05
2.82039e-05
6.23722e-05
6.44151e-05
6.78036e-05
3.18122e-05
2.88391e-05
3.42766e-05
3.49076e-05
6.27275e-05
6.82529e-05
3.10852e-05
2.98425e-05
3.39397e-05
3.63206e-05
2.90827e-05
3.52234e-05
3.36041e-05
6.41997e-05
6.73151e-05
2.89369e-05
3.53825e-05
3.4166e-05
6.74629e-05
6.89314e-05
7.36912e-05
3.54813e-05
3.7526e-05
4.02346e-05
4.0931e-05
7.06891e-05
7.41637e-05
3.54541e-05
3.77018e-05
4.03636e-05
3.94909e-05
3.53966e-05
4.01567e-05
4.17644e-05
6.98113e-05
7.39426e-05
3.56122e-05
3.92991e-05
4.09874e-05
7.50448e-05
7.48042e-05
7.77199e-05
4.13973e-05
4.09945e-05
4.52196e-05
4.41818e-05
7.44115e-05
7.68752e-05
4.13853e-05
4.13415e-05
4.52531e-05
4.69764e-05
4.32284e-05
4.43534e-05
4.48134e-05
7.45793e-05
7.81902e-05
4.31317e-05
4.57818e-05
4.51143e-05
7.72225e-05
7.87912e-05
8.25246e-05
4.68193e-05
4.64258e-05
5.13739e-05
5.30764e-05
7.86204e-05
8.34217e-05
4.66528e-05
4.77469e-05
5.13134e-05
5.17162e-05
4.49479e-05
5.2895e-05
5.00823e-05
7.92768e-05
8.22322e-05
4.45959e-05
5.11469e-05
5.0093e-05
8.18964e-05
8.3457e-05
8.63018e-05
5.31204e-05
5.40886e-05
5.63969e-05
5.45423e-05
8.39272e-05
8.50934e-05
5.29466e-05
5.41187e-05
5.67198e-05
5.60813e-05
5.36715e-05
5.43565e-05
5.85988e-05
8.33979e-05
8.64358e-05
5.41461e-05
5.66475e-05
5.90291e-05
8.75325e-05
8.72064e-05
9.10187e-05
5.73394e-05
5.63155e-05
6.43705e-05
6.61085e-05
8.61791e-05
9.1887e-05
5.78468e-05
5.63988e-05
6.40079e-05
6.47195e-05
5.80707e-05
6.60144e-05
6.28756e-05
8.7022e-05
9.10944e-05
5.83458e-05
6.38826e-05
6.2634e-05
8.9602e-05
9.19922e-05
9.40592e-05
6.6332e-05
6.7315e-05
6.77715e-05
6.63086e-05
9.25741e-05
9.34528e-05
6.58634e-05
6.68818e-05
6.77339e-05
6.91368e-05
6.56444e-05
6.60919e-05
6.79515e-05
9.24246e-05
9.43416e-05
6.54034e-05
6.88783e-05
6.78646e-05
9.51377e-05
9.47709e-05
9.93039e-05
6.89972e-05
6.83453e-05
7.71837e-05
7.9088e-05
9.43341e-05
0.000100378
6.93594e-05
7.02545e-05
7.72867e-05
7.49568e-05
6.9839e-05
7.9124e-05
7.83279e-05
9.47858e-05
9.84395e-05
6.97854e-05
7.56069e-05
7.86751e-05
9.90889e-05
0.000100123
0.000101271
7.87032e-05
8.01106e-05
7.93756e-05
7.86179e-05
0.00010099
0.000100676
7.84994e-05
7.72295e-05
7.87352e-05
8.12274e-05
7.87158e-05
7.90053e-05
7.76995e-05
9.96658e-05
0.000102266
7.93449e-05
8.01609e-05
7.72009e-05
0.000100729
0.000101943
0.000107563
8.08261e-05
8.02765e-05
8.99038e-05
8.80981e-05
0.000101023
0.000107262
8.07878e-05
8.1859e-05
9.00358e-05
8.97345e-05
7.97624e-05
8.8559e-05
9.07839e-05
0.000102833
0.000107521
7.84323e-05
8.99753e-05
9.04557e-05
0.000108241
0.000108282
0.000108321
9.16758e-05
8.97381e-05
9.05405e-05
9.32147e-05
0.000108204
0.000109054
9.13799e-05
9.23091e-05
9.03083e-05
9.18862e-05
9.33209e-05
9.24493e-05
9.29253e-05
0.000108555
0.000108539
9.31639e-05
9.23207e-05
9.30172e-05
0.000108037
0.000108652
0.000115427
9.08351e-05
9.38438e-05
0.00010142
9.73037e-05
0.000109299
0.000113948
9.12347e-05
9.08731e-05
0.000101412
9.84187e-05
9.18965e-05
9.75473e-05
9.71848e-05
0.000108362
0.000114245
9.20179e-05
9.80572e-05
9.74357e-05
0.000115009
0.000116612
0.000116783
0.000103863
0.000100043
0.000103801
0.000109053
0.000115389
0.000119556
0.0001038
0.000103101
0.000103352
0.000107983
0.000101754
0.000109274
0.000109132
0.000116478
0.000119068
0.000101963
0.000108065
0.000109924
0.000119367
0.000116743
0.000121252
0.000104252
0.000110067
0.000109717
0.000107483
0.000119695
0.000118236
0.000103038
0.000107148
0.000110731
0.000107512
0.000109028
0.000106259
0.000107153
0.000118719
0.0001195
0.000110005
0.000108208
0.000107107
0.000118262
0.000122443
0.000124211
0.000111126
0.000106291
0.000114612
0.000114078
0.000118087
0.000125021
0.000112576
0.000111206
0.000113532
0.000113227
0.00010711
0.000115511
0.000112333
0.000121355
0.000124044
0.000106271
0.000112206
0.000112757
0.000124115
0.000124619
0.000128836
0.000116411
0.000118496
0.0001207
0.00012187
0.000126954
0.000129908
0.000114828
0.000113964
0.000121898
0.000122482
0.000115905
0.0001212
0.000125969
0.000124042
0.000129701
0.000116242
0.000122575
0.000125597
0.000132631
0.000129414
0.000130739
0.000120867
0.000121978
0.000124508
0.000127411
0.000130154
0.000132851
0.000122813
0.000124071
0.00012288
0.000123293
0.000127481
0.000127552
0.000126171
0.000130979
0.000130854
0.000127309
0.000125133
0.000126638
0.000130831
0.00013165
0.000135806
0.000127266
0.000128584
0.000130869
0.000126976
0.000133097
0.000131363
0.000124645
0.000123676
0.000131801
0.000130639
0.000125122
0.000126306
0.0001251
0.000130575
0.000135037
0.000125408
0.000128252
0.000122003
0.000130771
0.000135832
0.000135419
0.000130289
0.000126087
0.000130293
0.000132371
0.000131193
0.00013899
0.000132322
0.000130948
0.000130569
0.000132776
0.000127817
0.000133076
0.000133702
0.00013594
0.000137335
0.000123323
0.000133771
0.000137306
0.000140524
0.000136339
0.00014355
0.000133004
0.000136384
0.000141844
0.000142415
0.000140908
0.000143127
0.000131016
0.000135065
0.000140903
0.000139187
0.000136468
0.000142728
0.000143213
0.000138112
0.00014222
0.000140911
0.000140349
0.000144913
0.000144884
0.00014425
0.00014332
0.000143124
0.000142291
0.000142056
0.000140161
0.000142819
0.000141211
0.000143267
0.000139475
0.000143799
0.000143315
0.000143193
0.000140273
0.000139742
0.000142396
0.000143062
0.000144466
0.000142092
0.000139016
0.00013906
0.000142845
0.000144705
0.000141136
0.000139885
0.000144213
0.00014819
0.000141712
0.000148896
0.000142844
0.00014453
0.000141366
0.000144158
0.00013858
0.000147594
0.000144864
0.000143666
0.000145529
0.000137698
0.000143934
0.000143061
0.000147475
0.00014657
0.000152748
0.000147713
0.000150243
0.000154055
0.000150735
0.000149621
0.000149379
0.00014496
0.000144324
0.00015481
0.000152057
0.000149775
0.000151689
0.000155256
0.000145765
0.000151199
0.000148441
0.000152553
0.000154986
0.000152921
0.000152794
0.000150547
0.000154092
0.000150517
0.000153017
0.000156179
0.000149272
0.000153849
0.000155522
0.000154851
0.000154263
0.000157485
0.000155143
0.000155482
0.000153761
0.000152493
0.000153663
0.000155343
0.00015727
0.000155018
0.00015145
0.000150369
0.000154613
0.000154182
0.000158313
0.000158228
0.000158581
0.00015475
0.000153755
0.000153819
0.000156981
0.000156575
0.000155627
0.000153328
0.00015837
0.000154247
0.000153337
0.00015313
0.000154369
0.000155064
0.00015368
0.000151547
0.000154793
0.00015828
0.000157906
0.000157694
0.000160634
0.000157856
0.000153246
0.000156774
0.000157372
0.000157369
0.000163631
0.000165122
0.00015682
0.0001589
0.000164103
0.000154565
0.00016007
0.000156512
0.000165478
0.000165052
0.000160084
0.000159857
0.000161702
0.000163991
0.000162531
0.000169664
0.000170273
0.000159235
0.000163553
0.000166124
0.000165556
0.00016764
0.00016302
0.000164892
0.000170092
0.000167803
0.000159965
0.000155815
0.000165838
0.000163627
0.000165342
0.000160085
0.00016127
0.00015942
0.000169601
0.000170292
0.000167798
0.000166955
0.000163153
0.000157775
0.000166856
0.000161984
0.000164622
0.000168854
0.000169297
0.000166597
0.000169811
0.000155127
0.000164622
0.000165839
0.000169125
0.000170588
0.000163023
0.000160394
0.000167687
0.000167207
0.000165993
0.000172102
0.000171634
0.000157228
0.000167606
0.000166186
0.000174373
0.000177032
0.000181972
0.000169056
0.000172443
0.00016907
0.000167225
0.000172923
0.000170489
0.000179144
0.000170976
0.000163803
0.000168758
0.000170576
0.000175404
0.000176694
0.000181132
0.000183569
0.000169984
0.000173626
0.000178972
0.000182335
0.000180397
0.000176987
0.000173323
0.000182647
0.000180692
0.000172648
0.000164694
0.000173926
0.000176594
0.000179777
0.000170261
0.000170275
0.000166247
0.000181286
0.00018383
0.000179006
0.000179724
0.000173169
0.000166964
0.00017998
0.000174241
0.000175263
0.000169866
0.000180966
0.000179141
0.000179846
0.000163533
0.000162273
0.000179847
0.000172168
0.000178579
0.000168546
0.000165868
0.00017083
0.000178244
0.000177332
0.000178302
0.000173295
0.000166207
0.000164902
0.000174512
0.000169778
0.000180206
0.000181737
0.000179524
0.000175094
0.000181739
0.000163929
0.000173853
0.000178303
0.000184119
0.00018283
0.00017208
0.000171712
0.000174082
0.000179276
0.000173686
0.000184397
0.00018866
0.000166141
0.000178377
0.000182806
0.000185217
0.000187198
0.000191892
0.000182278
0.000188098
0.00018265
0.000174843
0.000177656
0.00018373
0.000188406
0.000183464
0.000171909
0.000175286
0.0001809
0.00018754
0.000192258
0.000194201
0.000195676
0.000180045
0.000181412
0.000189265
0.000193086
0.000193664
0.000193956
0.000184884
0.000194233
0.000192213
0.000178137
0.000179139
0.000184242
0.000191287
0.000191314
0.00017938
0.000180891
0.000177943
0.000194808
0.000195476
0.000193737
0.000191239
0.00018077
0.000175813
0.000194019
0.000193458
0.000192603
0.000190101
0.000193305
0.000191129
0.000193431
0.000178833
0.000176395
0.00019283
0.000191544
0.000193488
0.000178321
0.000177551
0.000177271
0.000192681
0.000190269
0.000190917
0.000188933
0.000175441
0.000176402
0.000191691
0.000189622
0.000190401
0.000190146
0.00019224
0.000188859
0.000189918
0.000176175
0.000177873
0.000192566
0.000190993
0.000190331
0.000175592
0.000177535
0.000179094
0.000190685
0.000189356
0.000192998
0.000195048
0.000176954
0.00018164
0.000190859
0.000191035
0.000193455
0.000195148
0.000191236
0.000197376
0.0002022
0.000178161
0.000181104
0.000191543
0.000196873
0.000202087
0.000190003
0.000179565
0.000186154
0.000194778
0.00019762
0.000202083
0.000203073
0.000182718
0.000186422
0.000194991
0.000197609
0.00020188
0.000202582
0.000203109
0.000202021
0.000196192
0.000182271
0.000186097
0.000202937
0.0002013
0.000195961
0.000175551
0.000186924
0.000187028
0.00020362
0.000203474
0.000204599
0.000202135
0.000186349
0.000183545
0.000203394
0.000202808
0.000204329
0.00020094
0.000192542
0.000199466
0.000191088
0.000185926
0.000182346
0.000192396
0.000198434
0.000191264
0.000178778
0.000186603
0.000185081
0.000204206
0.000201402
0.000202974
0.000203561
0.000183056
0.000188637
0.000203902
0.000200198
0.000202593
0.000203604
0.000199545
0.000207146
0.000219931
0.000181812
0.00018876
0.00019977
0.000206865
0.00021932
0.000206373
0.000185538
0.000191436
0.000203464
0.000206572
0.00020877
0.000210511
0.000189973
0.000192569
0.000203261
0.000206891
0.000209243
0.00021167
0.000222255
0.000212266
0.000214023
0.000190167
0.00019374
0.000221456
0.000212649
0.000213697
0.000189938
0.000191512
0.00018768
0.000209453
0.000210632
0.00020785
0.000206043
0.000191626
0.000185091
0.000210023
0.000212075
0.000208377
0.000207283
0.000207128
0.00020445
0.000193827
0.00019314
0.00018624
0.00020747
0.000206316
0.000195113
0.000173443
0.000186712
0.000185377
0.00020651
0.000204826
0.000204214
0.000203371
0.000184371
0.000185662
0.000206826
0.000205436
0.000204134
0.000202233
0.00019166
0.00020073
0.000193474
0.000185137
0.000183245
0.000192774
0.000199927
0.000192166
0.000179849
0.000186404
0.000194127
0.000204782
0.00020495
0.000213237
0.000212569
0.000186857
0.000193506
0.000204363
0.000202507
0.000212864
0.00021271
0.000201333
0.000213432
0.000222346
0.00018429
0.000194348
0.000199522
0.000213211
0.000221881
0.000203637
0.000194857
0.000196945
0.000215135
0.00021458
0.00021837
0.000219307
0.00019433
0.000198837
0.000214981
0.000215384
0.000218676
0.000220199
0.000227491
0.000223003
0.000237175
0.00019554
0.00019939
0.000227574
0.000224232
0.000238518
0.000216426
0.000196986
0.000197151
0.000218915
0.000220564
0.00021973
0.000222549
0.000199345
0.000199774
0.000219369
0.000221281
0.000220439
0.000223298
0.000238521
0.000223996
0.000221679
0.000199635
0.000200284
0.00024014
0.000224755
0.000222601
0.000196244
0.000196754
0.000194431
0.000219402
0.000221835
0.000217814
0.000215405
0.00019834
0.000190529
0.000219937
0.000222526
0.000216966
0.000214491
0.000214601
0.000211482
0.00019956
0.000198909
0.000189903
0.000214816
0.000210735
0.00019843
0.000175648
0.000194092
0.000191411
0.000217004
0.000213648
0.000213383
0.000209962
0.000189564
0.00018797
0.000215961
0.000212321
0.000212982
0.000208515
0.000196633
0.000206633
0.000196899
0.000188614
0.000186434
0.000195264
0.000204697
0.000195259
0.000181087
0.000190667
0.000190437
0.000211938
0.000209227
0.000210089
0.000215984
0.000188481
0.000197005
0.000211887
0.000208286
0.000211462
0.000218782
0.000205906
0.000220452
0.000230158
0.000187542
0.000199088
0.000204677
0.000221747
0.000230334
0.000209209
0.000192225
0.000204917
0.000213947
0.00022027
0.000228388
0.000230383
0.000198574
0.000207287
0.00021553
0.000222507
0.000227696
0.000229405
0.00023561
0.000232745
0.000243609
0.000200636
0.000206323
0.000236193
0.000233524
0.000245326
0.000218883
0.000206407
0.000210803
0.000231803
0.000232599
0.000236917
0.000233904
0.000207823
0.000204428
0.000230792
0.000230554
0.000236022
0.000231727
0.000243295
0.000230689
0.000224729
0.000206371
0.000204215
0.00024551
0.000231344
0.000226378
0.000197156
0.000208357
0.000193039
0.000234938
0.000229284
0.000218824
0.000217137
0.000201979
0.000191083
0.000235037
0.000229425
0.000220241
0.000221116
0.000219926
0.000215355
0.00021329
0.000202857
0.000195207
0.000221025
0.000218423
0.000213307
0.000189788
0.000191073
0.000187752
0.000215371
0.000214818
0.000210693
0.000212249
0.000189967
0.000192076
0.000216746
0.000218668
0.000211645
0.000214313
0.000212779
0.000213864
0.000216035
0.000194033
0.000189924
0.000212604
0.000212525
0.000213675
0.000193866
0.000189691
0.000205816
0.000212116
0.000214943
0.000229186
0.00022951
0.000194069
0.000206099
0.000212065
0.00021385
0.000227241
0.000223754
0.000218361
0.000230117
0.000225051
0.000190173
0.000201209
0.00021556
0.000224448
0.000222923
0.000198976
0.000207424
0.000210465
0.000233187
0.000232793
0.000238642
0.000237169
0.000207113
0.000208069
0.00023112
0.000227353
0.000236674
0.000232662
0.000227066
0.000234882
0.000231724
0.00020262
0.000206558
0.000225716
0.000233113
0.000232541
0.00020583
0.000208499
0.000196697
0.000237462
0.00023585
0.00022351
0.000223564
0.000206213
0.000196829
0.000236399
0.000233105
0.000225349
0.000228856
0.000232971
0.000224545
0.00023545
0.000205971
0.000201595
0.000234435
0.000230155
0.000237849
0.000209935
0.00019555
0.000194925
0.000220815
0.00022144
0.000218216
0.000219947
0.000196087
0.000197341
0.000222913
0.000227494
0.000220748
0.000226535
0.000234012
0.000223176
0.000224715
0.000201178
0.000201731
0.000236577
0.000227433
0.000224865
0.000198145
0.000195751
0.000201426
0.000218943
0.000221049
0.000226558
0.000226607
0.000198104
0.0002009
0.000221131
0.000226609
0.000226257
0.000225021
0.000222133
0.000225473
0.000217342
0.00020162
0.000198507
0.000221663
0.000222675
0.000215721
0.000189926
0.000201787
0.000202736
0.000228178
0.000227679
0.000230316
0.000229327
0.000200849
0.00020178
0.000227257
0.00022421
0.000228312
0.000222868
0.000216745
0.000227021
0.000225734
0.000197827
0.000195967
0.00021495
0.000220899
0.000224737
0.000201474
0.000202541
0.000202287
0.000230468
0.00022969
0.00023041
0.000231143
0.000201945
0.000204027
0.000228232
0.000222853
0.000228172
0.000227807
0.000229836
0.000231067
0.000237498
0.00019645
0.000203245
0.00022952
0.000231129
0.000238679
0.000212207
0.000201909
0.000202365
0.000229441
0.00023026
0.000230195
0.000229334
0.000203634
0.000201185
0.000228107
0.00022914
0.000231582
0.000234436
0.000238006
0.000230018
0.000231637
0.00020372
0.000205929
0.000239493
0.000235934
0.00023387
0.000202484
0.000204507
0.000228253
0.000226877
0.000202814
0.000229999
0.000232268
0.000253167
0.00025989
0.000257066
0.000227179
0.000207181
0.00022855
1.88771e-06
2.28896e-06
1.00012e-06
1.03039e-06
1.28406e-06
1.93037e-06
5.74016e-07
1.22271e-06
1.21242e-06
2.35134e-06
1.38708e-06
1.74033e-06
2.27775e-06
2.11694e-06
1.70663e-06
1.17992e-06
1.47217e-05
1.09274e-06
1.66496e-05
1.05534e-05
1.28318e-05
1.33091e-06
1.33585e-05
1.23865e-06
1.51318e-05
1.62838e-06
1.67274e-06
1.56805e-06
1.93484e-06
1.65083e-06
1.69362e-06
1.58189e-06
1.3018e-06
3.26165e-07
1.60595e-06
1.76711e-06
1.2961e-06
4.33291e-07
1.61285e-06
1.09638e-05
1.31574e-05
1.22341e-06
1.79093e-06
5.36374e-07
2.1942e-06
1.21806e-06
1.79793e-06
6.57127e-07
1.46586e-06
1.48901e-06
2.23604e-06
1.66361e-06
1.69433e-06
1.36334e-06
2.04006e-05
1.27804e-06
2.28362e-05
1.6873e-05
1.90694e-05
1.51483e-06
1.83213e-05
1.43369e-06
2.07476e-05
1.64854e-06
1.69114e-06
1.58203e-06
1.93759e-06
1.64091e-06