/*--------------------------------*- C++ -*----------------------------------*\
| =========                 |                                                 |
| \\      /  F ield         | OpenFOAM: The Open Source CFD Toolbox           |
|  \\    /   O peration     | Version:  v2012                                 |
|   \\  /    A nd           | Website:  www.openfoam.com                      |
|    \\/     M anipulation  |                                                 |
\*---------------------------------------------------------------------------*/
FoamFile
{
    version     2.0;
    format      ascii;
    class       volScalarField;
    location    "1675";
    object      p;
}
// * * * * * * * * * * * * * * * * * * * * * * * * * * * * * * * * * * * * * //

dimensions      [0 2 -2 0 0 0 0];


internalField   nonuniform List<scalar> 
171728
(
0.00351762
0.00351651
0.00351659
0.0035173
0.00348205
0.00348065
0.00348068
0.00348349
0.0034435
0.00344175
0.00344176
0.00344408
0.00339943
0.00339784
0.00339785
0.00340006
0.00335138
0.00334999
0.00334997
0.00335228
0.00330249
0.00330125
0.0033012
0.00330359
0.00325424
0.00325307
0.00325308
0.00325545
0.00320699
0.0032059
0.0032059
0.00320827
0.00316065
0.00315972
0.00315971
0.00316209
0.00311529
0.00311452
0.0031145
0.00311686
0.00307085
0.00307019
0.0030702
0.00307252
0.00302717
0.00302658
0.00302664
0.00302889
0.00298407
0.00298363
0.00298358
0.00298591
0.0029414
0.00294095
0.00294096
0.00294356
0.002899
0.00289861
0.00289867
0.00290109
0.00285696
0.00285662
0.00285666
0.00285925
0.00281528
0.00281523
0.0028151
0.00281742
0.00277393
0.00277397
0.002774
0.00277606
0.00273292
0.00273287
0.00273294
0.00273482
0.00269224
0.00269219
0.00269226
0.00269417
0.00265197
0.00265196
0.00265211
0.00265382
0.00261194
0.00261226
0.00261203
0.00261376
0.00257221
0.00257247
0.00257227
0.00257384
0.00253277
0.00253309
0.00253313
0.00253511
0.00249356
0.00249402
0.00249392
0.00249498
0.00245461
0.00245507
0.00245507
0.00245706
0.00241591
0.00241632
0.00241636
0.00241787
0.00237738
0.00237787
0.00237788
0.00237978
0.00233906
0.00233967
0.00233958
0.00234143
0.00230095
0.00230154
0.00230154
0.0023036
0.00226293
0.00226358
0.00226362
0.00226545
0.00222519
0.00222593
0.00222584
0.00222755
0.00218754
0.00218816
0.00218818
0.00219013
0.00214996
0.0021507
0.00215072
0.00215241
0.00211267
0.00211333
0.00211329
0.00211528
0.00207537
0.00207601
0.002076
0.00207777
0.00203828
0.00203886
0.00203886
0.00204082
0.0020013
0.00200179
0.00200182
0.00200366
0.00196448
0.00196496
0.00196492
0.00196687
0.00192774
0.00192808
0.00192814
0.00193014
0.00189125
0.00189158
0.00189151
0.00189341
0.00185466
0.00185484
0.00185491
0.00185699
0.0018185
0.0018187
0.00181867
0.00182069
0.00178218
0.00178226
0.00178219
0.00178422
0.00174621
0.0017463
0.0017464
0.00174861
0.00171036
0.00171028
0.00171015
0.00171214
0.00167436
0.00167422
0.00167434
0.0016764
0.00163865
0.00163879
0.00163859
0.00164087
0.00160336
0.00160299
0.00160324
0.00160513
0.00156769
0.00156755
0.00156733
0.0015694
0.00153233
0.00153192
0.00153211
0.0015342
0.00149685
0.00149706
0.00149686
0.00149904
0.00146209
0.00146149
0.00146161
0.00146348
0.00142691
0.00142637
0.00142645
0.0014283
0.00139135
0.00139159
0.00139146
0.00139379
0.00135711
0.00135638
0.00135662
0.00135834
0.0013218
0.00132174
0.00132156
0.00132351
0.00128714
0.0012867
0.00128673
0.00128879
0.00125215
0.00125212
0.00125221
0.00125414
0.00121772
0.00121724
0.00121704
0.00121907
0.00118288
0.00118252
0.00118318
0.00118476
0.00114873
0.00114869
0.00114823
0.00115027
0.00111395
0.00111359
0.00111326
0.00111557
0.00107899
0.00107873
0.00107917
0.00108075
0.00104465
0.00104458
0.00104492
0.00104669
0.00101053
0.00101043
0.00100988
0.0010119
0.000976259
0.000975772
0.000975774
0.000977849
0.000941256
0.000941105
0.000941307
0.000943157
0.000906793
0.000906883
0.000906874
0.000908686
0.000872414
0.000872511
0.000872412
0.000874603
0.000838196
0.000837399
0.000837369
0.000838864
0.000803215
0.000803214
0.000803269
0.000805507
0.00076925
0.000769771
0.00076979
0.000771908
0.000734917
0.000734153
0.000734189
0.000735405
0.000699265
0.000699103
0.000699119
0.000701248
0.000664723
0.000665101
0.000664905
0.000667346
0.00063104
0.000631139
0.000631391
0.000633175
0.000596774
0.000596367
0.000596342
0.000598055
0.000561478
0.00056095
0.000560894
0.000562333
0.00052585
0.000525832
0.00052578
0.000528053
0.000491132
0.000491724
0.00049176
0.000494164
0.000456983
0.000457324
0.000457442
0.000459325
0.000423289
0.000422263
0.000422128
0.000423709
0.000387495
0.000386993
0.00038702
0.000388561
0.000350966
0.000351569
0.000351643
0.000354091
0.000316269
0.000316741
0.000316481
0.00031883
0.000282231
0.000281744
0.000281927
0.000283468
0.000246592
0.000246178
0.000246387
0.000248296
0.000210536
0.000210727
0.000210703
0.000212861
0.000175533
0.00017564
0.000175426
0.000177281
0.000140059
0.000139875
0.000139773
0.000141829
0.000104168
0.000104252
0.000104398
0.000106649
6.88799e-05
6.88004e-05
6.90012e-05
7.07501e-05
3.39429e-05
3.3069e-05
3.30194e-05
3.456e-05
5.63063e-06
6.72946e-06
6.50739e-06
4.80156e-06
0.00352216
0.00351985
0.00351948
0.00352194
0.00351963
0.00351964
0.00352598
0.00352597
0.003526
0.00352598
0.00351947
0.00351954
0.0035221
0.00351963
0.00351966
0.00352204
0.00351737
0.0034883
0.00351664
0.00351656
0.00349017
0.00349008
0.0035172
0.00348833
0.00351657
0.00351662
0.00349021
0.00349012
0.00351653
0.00349018
0.00349021
0.00351733
0.00348828
0.00351662
0.00349013
0.00349008
0.00348827
0.00348356
0.00344958
0.00348074
0.0034807
0.00345208
0.00345187
0.00348356
0.00344961
0.00348059
0.00348072
0.00345196
0.00345191
0.00348058
0.00345188
0.00345188
0.00348353
0.00344958
0.0034807
0.00345183
0.00345184
0.00344962
0.00344404
0.00340628
0.00344176
0.00344174
0.0034093
0.00340929
0.00344408
0.00340626
0.00344164
0.00344172
0.0034093
0.00340932
0.00344174
0.00340929
0.00340937
0.00344404
0.00340622
0.00344183
0.00340924
0.00340931
0.00340624
0.00340012
0.00335871
0.003398
0.00339785
0.00336228
0.00336214
0.00340008
0.00335875
0.00339786
0.0033978
0.00336214
0.00336213
0.00339783
0.0033621
0.00336212
0.00340005
0.00335874
0.00339786
0.00336207
0.00336215
0.00335874
0.00335229
0.00330991
0.00335033
0.00334995
0.00331358
0.0033134
0.00335228
0.00331003
0.00334993
0.00334992
0.00331336
0.00331338
0.00334999
0.00331338
0.0033134
0.00335227
0.00331002
0.00334997
0.00331339
0.00331341
0.00331004
0.00330349
0.00326167
0.0033015
0.00330124
0.00326491
0.00326497
0.00330357
0.00326174
0.0033012
0.00330123
0.003265
0.003265
0.00330126
0.00326503
0.00326506
0.00330358
0.00326178
0.00330127
0.00326503
0.00326506
0.00326178
0.00325538
0.00321449
0.00325315
0.00325306
0.00321741
0.00321757
0.00325541
0.00321441
0.00325302
0.00325306
0.00321762
0.00321758
0.00325309
0.0032176
0.0032176
0.00325545
0.00321446
0.00325309
0.00321758
0.00321761
0.00321444
0.0032083
0.00316816
0.00320575
0.00320589
0.00317112
0.00317117
0.00320824
0.0031681
0.00320592
0.00320589
0.00317119
0.00317116
0.0032059
0.00317119
0.00317118
0.00320827
0.00316813
0.00320596
0.00317117
0.00317122
0.00316813
0.00316211
0.00312277
0.00315969
0.00315971
0.00312573
0.00312572
0.00316206
0.00312277
0.00315973
0.00315972
0.00312573
0.00312571
0.00315973
0.00312572
0.00312574
0.0031621
0.00312278
0.00315971
0.00312571
0.0031257
0.00312278
0.00311685
0.00307831
0.00311451
0.0031145
0.00308121
0.00308121
0.00311686
0.00307833
0.00311451
0.00311451
0.00308121
0.00308118
0.00311451
0.0030812
0.0030812
0.00311687
0.00307834
0.00311449
0.00308117
0.00308112
0.0030783
0.0030725
0.00303464
0.00307018
0.00307018
0.00303749
0.00303744
0.00307254
0.00303461
0.00307018
0.00307021
0.00303749
0.00303747
0.00307017
0.00303744
0.00303743
0.00307256
0.00303464
0.0030702
0.00303745
0.00303736
0.00303458
0.00302893
0.00299161
0.00302662
0.00302659
0.00299444
0.00299432
0.00302894
0.00299154
0.00302663
0.00302664
0.00299442
0.00299441
0.0030266
0.0029943
0.00299432
0.00302896
0.00299155
0.00302665
0.00299442
0.0029943
0.00299154
0.00298599
0.00294892
0.00298367
0.00298361
0.00295165
0.00295158
0.00298593
0.00294881
0.00298369
0.0029836
0.00295166
0.00295176
0.00298367
0.00295159
0.00295175
0.0029859
0.00294886
0.00298364
0.00295173
0.0029517
0.00294911
0.0029434
0.00290648
0.00294105
0.00294096
0.00290928
0.00290931
0.00294331
0.00290652
0.00294107
0.00294094
0.00290928
0.00290936
0.00294118
0.00290931
0.00290933
0.00294326
0.00290651
0.00294114
0.00290939
0.00290932
0.00290648
0.00290098
0.00286443
0.00289861
0.00289859
0.00286728
0.00286725
0.00290097
0.00286444
0.00289861
0.00289869
0.00286729
0.00286735
0.00289884
0.00286726
0.00286741
0.00290097
0.00286449
0.00289891
0.00286731
0.0028674
0.00286471
0.00285897
0.00282268
0.0028567
0.00285662
0.00282559
0.0028257
0.00285898
0.00282288
0.0028567
0.00285663
0.00282559
0.00282558
0.00285687
0.00282569
0.00282554
0.00285902
0.00282274
0.00285696
0.0028256
0.00282562
0.00282273
0.0028173
0.00278136
0.0028151
0.00281525
0.0027843
0.00278412
0.00281748
0.00278137
0.00281509
0.00281507
0.00278426
0.00278428
0.00281523
0.00278413
0.00278407
0.00281734
0.0027814
0.0028153
0.00278428
0.00278413
0.00278129
0.00277602
0.0027403
0.0027739
0.00277396
0.00274315
0.00274301
0.00277612
0.00274028
0.0027739
0.00277402
0.00274319
0.00274293
0.00277397
0.00274301
0.0027429
0.0027761
0.00274032
0.002774
0.00274293
0.002743
0.00274012
0.00273504
0.00269941
0.00273297
0.00273287
0.0027025
0.00270235
0.002735
0.00269943
0.00273294
0.00273296
0.00270247
0.0027025
0.00273276
0.00270233
0.00270254
0.00273507
0.00269947
0.00273275
0.00270249
0.0027026
0.0026993
0.00269422
0.00265901
0.00269229
0.00269219
0.0026621
0.00266212
0.00269417
0.00265892
0.00269231
0.00269224
0.0026621
0.0026621
0.0026922
0.00266204
0.00266205
0.00269426
0.00265905
0.00269223
0.00266209
0.00266216
0.00265895
0.00265386
0.00261877
0.00265211
0.00265194
0.00262202
0.00262219
0.00265378
0.0026188
0.00265215
0.00265207
0.00262204
0.00262197
0.00265212
0.00262219
0.00262213
0.00265391
0.00261892
0.00265225
0.00262194
0.00262206
0.00261883
0.00261367
0.00257904
0.00261205
0.00261226
0.00258241
0.00258215
0.00261387
0.0025789
0.0026121
0.00261204
0.00258244
0.00258234
0.00261218
0.00258216
0.00258221
0.00261375
0.00257908
0.00261223
0.00258236
0.00258222
0.00257915
0.00257409
0.00253958
0.00257252
0.00257248
0.00254284
0.00254288
0.00257384
0.00253961
0.00257259
0.00257231
0.00254287
0.00254294
0.00257224
0.0025429
0.00254314
0.00257392
0.00253981
0.00257213
0.00254299
0.00254318
0.00254007
0.00253465
0.00250045
0.00253309
0.00253308
0.00250366
0.00250371
0.00253456
0.00250061
0.00253315
0.0025331
0.00250365
0.00250366
0.00253328
0.00250371
0.00250344
0.00253482
0.00250037
0.00253326
0.00250366
0.00250342
0.00250001
0.00249537
0.00246194
0.00249383
0.002494
0.00246484
0.00246462
0.00249571
0.00246137
0.00249387
0.0024939
0.00246483
0.00246473
0.00249386
0.00246462
0.00246486
0.00249545
0.00246173
0.00249381
0.00246476
0.00246491
0.00246221
0.00245701
0.00242257
0.00245514
0.00245508
0.00242593
0.00242596
0.00245654
0.00242322
0.00245512
0.00245504
0.00242594
0.00242596
0.0024551
0.00242596
0.00242599
0.00245675
0.00242301
0.00245516
0.00242596
0.00242601
0.00242267
0.00241791
0.00238461
0.00241644
0.00241631
0.00238741
0.00238744
0.00241816
0.00238448
0.00241641
0.00241638
0.00238745
0.00238742
0.00241644
0.00238745
0.00238747
0.00241823
0.00238429
0.00241643
0.00238742
0.00238744
0.00238471
0.00237947
0.00234678
0.00237777
0.00237786
0.00234927
0.00234926
0.00237953
0.00234679
0.00237783
0.00237786
0.00234924
0.00234919
0.00237789
0.00234926
0.0023492
0.00237935
0.00234691
0.00237786
0.00234922
0.00234919
0.00234633
0.00234189
0.00230796
0.00233962
0.00233965
0.00231103
0.00231096
0.00234195
0.00230795
0.00233961
0.00233957
0.00231111
0.002311
0.0023397
0.00231096
0.00231103
0.00234195
0.00230795
0.0023397
0.00231102
0.00231103
0.00230859
0.00230322
0.00227053
0.00230161
0.00230154
0.00227304
0.00227311
0.00230301
0.00227062
0.00230162
0.00230152
0.00227302
0.0022731
0.00230147
0.00227311
0.00227311
0.00230319
0.00227037
0.00230147
0.00227312
0.0022731
0.00227023
0.00226548
0.00223244
0.00226351
0.00226357
0.00223524
0.00223525
0.00226575
0.00223242
0.00226352
0.0022636
0.00223528
0.00223515
0.00226359
0.00223526
0.00223531
0.00226544
0.00223259
0.00226359
0.00223516
0.00223529
0.00223245
0.00222763
0.00219506
0.00222586
0.00222592
0.00219767
0.00219764
0.00222753
0.00219505
0.00222586
0.00222582
0.00219767
0.00219767
0.00222593
0.00219764
0.0021976
0.00222765
0.00219503
0.00222592
0.00219767
0.00219761
0.00219506
0.00219012
0.00215735
0.00218825
0.00218818
0.00216001
0.00215997
0.00219015
0.00215732
0.00218825
0.00218819
0.00216
0.00215997
0.00218812
0.00215996
0.00216001
0.00219016
0.00215728
0.00218813
0.00215997
0.00216001
0.00215726
0.00215248
0.00212006
0.00215063
0.00215069
0.00212266
0.00212272
0.00215247
0.00212005
0.00215063
0.0021507
0.00212268
0.00212264
0.00215072
0.00212273
0.00212273
0.0021524
0.00212015
0.00215072
0.00212266
0.0021227
0.0021202
0.00211518
0.00208274
0.00211334
0.00211332
0.00208532
0.00208525
0.00211516
0.00208272
0.00211336
0.00211327
0.00208532
0.00208534
0.00211336
0.00208527
0.00208528
0.00211528
0.00208269
0.00211333
0.00208533
0.0020853
0.00208264
0.00207786
0.00204562
0.002076
0.00207601
0.00204815
0.00204818
0.00207785
0.00204564
0.002076
0.00207602
0.00204814
0.0020481
0.00207594
0.00204816
0.0020481
0.0020778
0.00204563
0.00207595
0.00204811
0.00204809
0.00204566
0.00204075
0.00200857
0.00203887
0.00203887
0.00201106
0.00201101
0.00204075
0.00200854
0.00203887
0.00203883
0.00201106
0.00201106
0.0020389
0.00201102
0.00201113
0.00204076
0.00200857
0.0020389
0.00201109
0.00201114
0.00200855
0.0020037
0.00197173
0.0020018
0.00200177
0.00197414
0.00197419
0.0020037
0.00197177
0.0020018
0.0020018
0.00197412
0.00197412
0.00200182
0.00197419
0.00197406
0.00200371
0.00197173
0.00200182
0.0019741
0.00197404
0.00197172
0.00196687
0.00193492
0.00196495
0.00196498
0.00193731
0.00193725
0.00196688
0.00193489
0.00196492
0.00196494
0.00193732
0.00193732
0.00196489
0.00193726
0.00193736
0.00196686
0.00193493
0.00196487
0.00193734
0.00193737
0.00193495
0.0019301
0.00189835
0.0019281
0.00192807
0.00190066
0.00190072
0.00193009
0.0018984
0.00192812
0.00192811
0.00190067
0.0019006
0.00192816
0.00190073
0.00190064
0.0019301
0.00189832
0.00192817
0.0019006
0.00190064
0.0018983
0.00189348
0.00186178
0.00189153
0.00189156
0.00186405
0.00186398
0.00189351
0.00186171
0.00189152
0.00189149
0.00186405
0.00186412
0.00189147
0.00186396
0.00186399
0.0018935
0.00186178
0.00189146
0.0018641
0.00186398
0.00186176
0.00185698
0.00182547
0.00185492
0.00185486
0.0018277
0.00182773
0.00185693
0.00182554
0.00185492
0.00185495
0.00182772
0.00182766
0.00185493
0.00182774
0.00182782
0.00185694
0.00182549
0.00185494
0.0018277
0.00182784
0.00182558
0.00182063
0.00178913
0.00181864
0.00181867
0.00179133
0.00179138
0.00182071
0.00178913
0.00181864
0.00181863
0.00179132
0.00179133
0.00181866
0.00179135
0.00179118
0.00182068
0.00178907
0.00181866
0.0017913
0.00179116
0.00178896
0.00178435
0.00175316
0.00178224
0.0017823
0.00175532
0.00175519
0.00178432
0.00175313
0.00178226
0.00178221
0.00175529
0.00175527
0.00178218
0.00175521
0.00175545
0.00178427
0.00175324
0.00178219
0.0017553
0.00175545
0.00175342
0.00174835
0.00171704
0.00174634
0.00174625
0.00171916
0.00171937
0.00174838
0.00171713
0.00174632
0.00174638
0.0017192
0.00171928
0.00174645
0.00171935
0.00171918
0.00174847
0.00171701
0.00174645
0.00171929
0.0017192
0.00171692
0.00171228
0.00168129
0.0017102
0.00171032
0.00168338
0.00168314
0.00171229
0.00168111
0.00171018
0.00171014
0.0016834
0.00168326
0.00171013
0.00168314
0.00168327
0.00171219
0.00168122
0.00171013
0.00168324
0.00168321
0.00168118
0.00167648
0.00164539
0.00167441
0.00167421
0.00164745
0.00164764
0.00167636
0.00164563
0.00167447
0.00167439
0.00164742
0.00164758
0.00167431
0.00164767
0.00164755
0.00167646
0.00164546
0.00167428
0.00164758
0.00164761
0.00164558
0.00164064
0.0016099
0.00163856
0.00163879
0.00161199
0.00161193
0.00164088
0.00160976
0.00163849
0.00163853
0.00161201
0.001612
0.00163874
0.00161193
0.00161211
0.00164068
0.00160993
0.0016388
0.00161206
0.00161206
0.00160993
0.00160516
0.00157439
0.00160311
0.00160295
0.00157646
0.00157647
0.00160502
0.00157442
0.00160318
0.0016032
0.00157641
0.00157635
0.00160309
0.00157646
0.00157613
0.00160518
0.00157428
0.00160307
0.00157632
0.00157621
0.00157414
0.00156965
0.00153885
0.0015676
0.00156762
0.00154093
0.00154077
0.00156964
0.00153872
0.00156747
0.0015674
0.001541
0.00154097
0.00156731
0.00154072
0.00154099
0.0015695
0.00153886
0.0015673
0.00154084
0.00154086
0.00153891
0.00153408
0.00150347
0.00153198
0.00153189
0.00150545
0.00150569
0.00153401
0.00150376
0.00153214
0.00153219
0.00150539
0.00150545
0.00153219
0.00150582
0.00150576
0.00153413
0.00150361
0.00153214
0.00150569
0.00150597
0.00150379
0.00149877
0.00146855
0.00149674
0.00149699
0.00147065
0.0014705
0.00149906
0.00146829
0.00149661
0.00149664
0.00147061
0.00147053
0.00149693
0.00147039
0.00147041
0.00149888
0.00146836
0.0014971
0.00147043
0.00147021
0.00146825
0.00146382
0.00143315
0.00146184
0.00146157
0.00143517
0.00143517
0.00146356
0.00143312
0.00146192
0.00146176
0.00143527
0.00143536
0.00146158
0.00143514
0.00143502
0.00146366
0.00143322
0.00146136
0.00143519
0.00143507
0.00143301
0.00142842
0.00139812
0.00142632
0.00142645
0.00140014
0.00140027
0.00142839
0.00139834
0.00142635
0.00142657
0.00140001
0.00140002
0.00142627
0.00140029
0.00140036
0.00142849
0.00139816
0.00142636
0.0014002
0.00140038
0.00139843
0.00139342
0.00136326
0.00139147
0.0013915
0.00136537
0.00136518
0.00139365
0.00136304
0.00139137
0.00139122
0.00136551
0.00136531
0.00139174
0.00136524
0.00136538
0.00139346
0.00136324
0.00139175
0.0013653
0.00136542
0.00136314
0.00135854
0.00132822
0.00135659
0.00135643
0.00133023
0.00133044
0.00135831
0.00132839
0.00135672
0.00135672
0.00133015
0.00133043
0.00135635
0.00133033
0.00133011
0.00135855
0.00132828
0.00135645
0.00133037
0.00133015
0.00132815
0.00132353
0.00129354
0.00132156
0.00132181
0.00129564
0.0012955
0.00132375
0.00129341
0.00132143
0.00132156
0.00129559
0.00129538
0.00132156
0.00129553
0.00129561
0.00132353
0.00129336
0.0013215
0.00129535
0.00129547
0.00129349
0.00128885
0.00125864
0.00128692
0.00128667
0.00126062
0.00126057
0.00128866
0.00125863
0.00128697
0.00128677
0.00126077
0.00126088
0.00128689
0.00126067
0.00126086
0.0012887
0.00125886
0.00128682
0.00126096
0.00126103
0.00125884
0.00125396
0.00122393
0.00125199
0.00125204
0.00122615
0.0012263
0.001254
0.00122407
0.00125204
0.00125213
0.00122587
0.00122576
0.00125215
0.00122615
0.00122586
0.00125412
0.00122365
0.00125225
0.00122571
0.00122569
0.00122376
0.00121919
0.00118918
0.00121736
0.00121743
0.00119112
0.00119104
0.00121928
0.00118898
0.00121712
0.00121707
0.00119132
0.00119155
0.00121724
0.0011911
0.00119135
0.00121894
0.00118964
0.00121708
0.00119162
0.00119158
0.00118941
0.00118458
0.00115523
0.00118257
0.00118246
0.00115716
0.00115712
0.00118432
0.00115518
0.00118289
0.00118317
0.00115737
0.00115727
0.00118268
0.00115713
0.00115693
0.0011851
0.001155
0.00118298
0.00115709
0.00115689
0.00115489
0.00115054
0.00112012
0.00114863
0.00114867
0.00112248
0.00112255
0.00115063
0.00112037
0.00114859
0.00114834
0.00112202
0.00112175
0.00114844
0.00112251
0.00112263
0.00115021
0.00111975
0.00114827
0.00112195
0.00112242
0.00112037
0.00111535
0.00108533
0.00111365
0.00111364
0.00108732
0.00108728
0.00111557
0.00108518
0.00111328
0.00111303
0.00108744
0.00108759
0.00111373
0.00108731
0.00108735
0.00111502
0.00108564
0.00111364
0.00108761
0.00108751
0.00108538
0.0010807
0.00105146
0.00107869
0.00107865
0.00105318
0.00105308
0.0010805
0.00105117
0.00107895
0.00107921
0.00105355
0.00105378
0.00107878
0.00105313
0.00105325
0.00108108
0.00105173
0.00107896
0.00105363
0.00105339
0.00105136
0.00104683
0.00101673
0.00104466
0.0010446
0.00101889
0.00101913
0.00104657
0.00101706
0.00104495
0.0010451
0.00101864
0.00101863
0.00104466
0.00101898
0.00101869
0.001047
0.00101647
0.00104474
0.00101854
0.00101849
0.00101656
0.00101204
0.000982357
0.00101028
0.00101056
0.00098463
0.000984419
0.00101238
0.000982351
0.00100997
0.00100992
0.000984429
0.000984109
0.0010101
0.000984477
0.000984569
0.00101175
0.000982184
0.00100988
0.000984294
0.000984534
0.000982501
0.000977653
0.00094767
0.000975942
0.000975694
0.000949661
0.000949628
0.000977633
0.000947596
0.000975863
0.000975534
0.0009498
0.000949797
0.000975954
0.000949711
0.000949892
0.000977554
0.00094784
0.000976053
0.000949936
0.000950054
0.000947883
0.000942972
0.000913536
0.00094098
0.000941095
0.000915382
0.000915497
0.000942927
0.000913536
0.000941115
0.000941276
0.000915446
0.000915662
0.000941191
0.000915443
0.000915277
0.000943169
0.000913588
0.0009413
0.000915482
0.00091523
0.000913306
0.000908893
0.000879043
0.000906859
0.000906931
0.000881034
0.000881064
0.000908891
0.000879119
0.000906893
0.000907053
0.000880997
0.000881006
0.000906767
0.00088116
0.000881358
0.000908924
0.000879024
0.000906687
0.000881054
0.000881282
0.000879354
0.00087432
0.000844357
0.000872387
0.000872435
0.000846475
0.000846391
0.000874409
0.000844191
0.000872326
0.000872339
0.000846434
0.00084632
0.00087268
0.000846206
0.000845778
0.000874318
0.00084414
0.000872619
0.000846179
0.000845779
0.0008437
0.000839636
0.000809692
0.000837818
0.000837636
0.000811701
0.00081155
0.000839393
0.000809632
0.000837791
0.000837539
0.000811735
0.000811531
0.000836867
0.000811567
0.000811709
0.000839341
0.000809649
0.000836898
0.00081158
0.000811774
0.000809881
0.000805023
0.000775686
0.000803075
0.000803044
0.000777611
0.000777933
0.000805077
0.000776165
0.000803108
0.000803076
0.000777609
0.000778045
0.000803715
0.000778298
0.000778987
0.000805107
0.000776228
0.000803762
0.000778366
0.00077894
0.000776833
0.000771107
0.000741575
0.000769196
0.000769529
0.000743573
0.000743445
0.000771523
0.000741143
0.000769194
0.000769616
0.00074358
0.000743471
0.000769969
0.000743102
0.000742532
0.000771565
0.000741149
0.000769913
0.000743111
0.000742541
0.000740326
0.000736785
0.000706025
0.000734821
0.000734534
0.000708068
0.000707825
0.000736282
0.0007058
0.000734839
0.000734549
0.000708066
0.000707852
0.000733504
0.000707725
0.000707605
0.000736308
0.000705837
0.000733545
0.000707798
0.000707663
0.000705867
0.000701179
0.000671257
0.00069918
0.000699035
0.000673193
0.000673328
0.000701088
0.000671605
0.000699161
0.000699025
0.000673156
0.000673173
0.000699208
0.000673571
0.000673826
0.000701087
0.000671431
0.000699229
0.000673364
0.000673734
0.00067195
0.000666658
0.000637666
0.000664743
0.000664876
0.000639529
0.000639632
0.000666986
0.000637654
0.000664718
0.000664744
0.000639586
0.000639754
0.000665375
0.000639707
0.000640009
0.000666821
0.000637862
0.000665272
0.000639829
0.000640087
0.000637876
0.000633021
0.000603079
0.000631019
0.000631138
0.000605158
0.000605277
0.000632983
0.000603037
0.000631093
0.000631351
0.000605169
0.000605316
0.000631355
0.000605114
0.000605079
0.00063324
0.000603054
0.000631475
0.000605176
0.000605124
0.000602893
0.000598327
0.000568033
0.000596472
0.000596541
0.000570148
0.000570007
0.000598261
0.000567852
0.000596461
0.000596506
0.000570121
0.000569935
0.000596211
0.000569853
0.000569339
0.000598242
0.000567765
0.000596218
0.000569773
0.000569284
0.000567195
0.000563219
0.000532805
0.000561315
0.000561106
0.000534768
0.000534481
0.00056301
0.000532637
0.000561292
0.000561074
0.00053474
0.000534444
0.000560382
0.000534462
0.000534466
0.00056294
0.000532607
0.00056031
0.000534423
0.000534425
0.000532713
0.000528021
0.00049802
0.000525969
0.000525772
0.000499863
0.0005
0.000527929
0.000498302
0.000525938
0.000525699
0.00049989
0.000499978
0.000525961
0.000500245
0.000500553
0.000527888
0.000498306
0.000525938
0.000500242
0.000500579
0.000498769
0.000493312
0.000463597
0.000491221
0.000491441
0.000465481
0.000465846
0.000493627
0.000463917
0.000491278
0.000491489
0.000465531
0.000466019
0.000492122
0.000466017
0.000466461
0.000493664
0.000464068
0.000492155
0.000466169
0.000466501
0.000464217
0.000458964
0.000429387
0.000457009
0.000457327
0.000431608
0.000431349
0.000459193
0.000428969
0.000457021
0.000457446
0.000431511
0.00043117
0.000457521
0.000430977
0.00043069
0.000459302
0.000428832
0.000457548
0.000430882
0.000430676
0.000428505
0.000424608
0.000394159
0.000422888
0.000422582
0.000396291
0.000396033
0.000424208
0.000393869
0.000422812
0.000422393
0.000396317
0.000396013
0.000421844
0.000395904
0.00039537
0.000424067
0.000393849
0.000421831
0.000395854
0.000395349
0.000393301
0.000389253
0.000358025
0.000387264
0.000387057
0.000359959
0.000360078
0.000389005
0.000358356
0.00038732
0.000387142
0.000360028
0.000360309
0.000386624
0.000360304
0.00036073
0.000389024
0.000358522
0.000386593
0.000360466
0.000360727
0.000358888
0.000353203
0.000323223
0.000351059
0.000351306
0.000325097
0.000325279
0.000353581
0.000323487
0.000351091
0.000351427
0.00032502
0.000325052
0.000351998
0.000325423
0.000325557
0.000353688
0.000323255
0.000351997
0.000325207
0.000325518
0.000323631
0.000318531
0.000288894
0.000316544
0.000316668
0.000290898
0.00029078
0.00031876
0.000288588
0.000316436
0.000316384
0.000290853
0.000290641
0.000316742
0.0002906
0.000290324
0.000318502
0.000288645
0.000316698
0.000290575
0.000290359
0.000288251
0.000284096
0.000253069
0.000282152
0.000281959
0.000255215
0.000255133
0.000283742
0.000252956
0.000282175
0.000282046
0.00025529
0.000255381
0.000281527
0.000255067
0.000255213
0.000283913
0.000253168
0.000281604
0.000255326
0.000255289
0.000253114
0.000248157
0.000217256
0.000246199
0.000246177
0.000219266
0.000219358
0.000248092
0.00021743
0.000246268
0.000246398
0.000219328
0.000219539
0.000246404
0.000219512
0.000219789
0.000248292
0.000217483
0.000246456
0.000219591
0.000219766
0.000217722
0.000212482
0.000182559
0.00021048
0.000210587
0.000184497
0.000184507
0.000212662
0.000182554
0.000210505
0.000210659
0.000184436
0.000184323
0.00021088
0.00018447
0.000184105
0.000212649
0.000182359
0.00021083
0.000184254
0.000184009
0.000182101
0.000177764
0.000147048
0.000175754
0.000175733
0.000149113
0.000149007
0.00017773
0.000146904
0.000175683
0.000175514
0.000149027
0.00014877
0.000175233
0.000148853
0.000148658
0.000177527
0.000146756
0.000175151
0.000148704
0.000148633
0.000146685
0.000142099
0.000110867
0.000140088
0.000139983
0.000112889
0.000112955
0.000141973
0.000110992
0.000140033
0.000139813
0.000112937
0.000113032
0.000139805
0.000113087
0.000113378
0.000141862
0.000111098
0.000139804
0.000113173
0.00011344
0.000111441
0.00010599
7.55588e-05
0.00010398
0.00010409
7.75461e-05
7.76261e-05
0.000106136
7.56157e-05
0.000104039
0.000104229
7.76039e-05
7.78605e-05
0.000104634
7.77027e-05
7.78316e-05
0.000106271
7.58475e-05
0.000104708
7.79526e-05
7.78937e-05
7.57398e-05
7.06935e-05
4.01328e-05
6.87716e-05
6.87976e-05
4.21757e-05
4.20393e-05
7.06997e-05
3.99034e-05
6.88189e-05
6.90082e-05
4.21944e-05
4.20863e-05
6.88006e-05
4.1903e-05
4.16877e-05
7.09124e-05
3.99063e-05
6.88383e-05
4.19046e-05
4.1665e-05
3.95525e-05
3.51811e-05
8.00585e-06
3.33661e-05
3.32068e-05
1.10836e-05
1.10347e-05
3.49499e-05
8.01942e-06
3.33803e-05
3.32047e-05
1.10523e-05
1.08154e-05
3.28163e-05
1.10047e-05
1.08776e-05
3.49362e-05
7.76134e-06
3.27815e-05
1.07158e-05
1.07735e-05
7.92371e-06
4.79901e-06
6.72177e-06
6.6766e-06
4.85222e-06
6.6428e-06
6.44966e-06
5.65609e-06
5.43289e-06
5.48529e-06
6.61166e-06
4.63509e-06
6.5356e-06
0.00352911
0.00353179
0.00353048
0.00353056
0.00355758
0.00353148
0.00356105
0.00353185
0.00355777
0.00353167
0.0035319
0.00356119
0.00354262
0.00356442
0.00356437
0.00350169
0.00351534
0.00351915
0.00349394
0.00349207
0.00349726
0.00350168
0.00351531
0.00351913
0.00349382
0.00351763
0.00351764
0.00351763
0.00349118
0.00349126
0.00349122
0.00349122
0.00350128
0.00351294
0.00351814
0.00350899
0.00352025
0.00349851
0.00350922
0.00349216
0.00349731
0.00350138
0.00351822
0.00351307
0.00350893
0.00352036
0.00350919
0.00349856
0.003519
0.00351912
0.00350622
0.0034985
0.00349843
0.00347412
0.00348828
0.00348825
0.00347206
0.00348569
0.00347117
0.00347409
0.00348842
0.00348821
0.00347218
0.00348218
0.00348214
0.00348212
0.00345361
0.00345376
0.00345372
0.0034537
0.00347191
0.00348693
0.00348067
0.00347124
0.00348534
0.00347242
0.00347122
0.0034855
0.0034712
0.00347191
0.00348067
0.00348692
0.00347119
0.00348536
0.00347116
0.00347243
0.00348869
0.00348859
0.00346963
0.0034727
0.00347272
0.00343157
0.00344616
0.00344723
0.00343015
0.00344516
0.00342942
0.00343159
0.00344636
0.00344719
0.00343025
0.00344365
0.00344362
0.00344359
0.00341099
0.00341108
0.00341104
0.00341104
0.00343031
0.00344594
0.00344176
0.00343126
0.00344487
0.00343078
0.00343125
0.00344521
0.00342935
0.00343029
0.00344174
0.00344585
0.00343122
0.00344486
0.00343125
0.00343079
0.00344656
0.00344655
0.00342857
0.00343057
0.00343053
0.00338532
0.00340158
0.00340314
0.00338382
0.00340104
0.00338328
0.00338523
0.00340164
0.00340306
0.0033838
0.00339954
0.0033995
0.00339949
0.00336353
0.00336362
0.00336364
0.00336361
0.0033844
0.00340149
0.00339783
0.0033861
0.00340092
0.00338456
0.00338611
0.0034009
0.0033833
0.00338439
0.00339783
0.00340149
0.00338603
0.0034009
0.00338608
0.00338451
0.00340178
0.00340174
0.00338281
0.00338394
0.00338398
0.00333637
0.00335353
0.00335474
0.00333485
0.00335302
0.00333481
0.00333632
0.00335346
0.00335474
0.00333511
0.00335144
0.00335144
0.00335141
0.00331466
0.00331474
0.00331474
0.00331471
0.00333591
0.00335348
0.00335003
0.00333776
0.00335313
0.00333586
0.00333782
0.0033531
0.00333477
0.00333589
0.00335
0.00335346
0.00333775
0.0033531
0.00333782
0.00333579
0.00335347
0.0033535
0.00333441
0.00333526
0.00333524
0.00328716
0.00330431
0.0033055
0.0032858
0.00330423
0.00328608
0.00328717
0.00330451
0.00330543
0.00328625
0.00330255
0.00330255
0.00330251
0.00326621
0.00326625
0.00326625
0.00326622
0.00328713
0.00330455
0.0033013
0.00328912
0.00330431