/*--------------------------------*- C++ -*----------------------------------*\
| =========                 |                                                 |
| \\      /  F ield         | OpenFOAM: The Open Source CFD Toolbox           |
|  \\    /   O peration     | Version:  v2006                                 |
|   \\  /    A nd           | Website:  www.openfoam.com                      |
|    \\/     M anipulation  |                                                 |
\*---------------------------------------------------------------------------*/
FoamFile
{
    version     2.0;
    format      ascii;
    class       volScalarField;
    location    "500";
    object      k;
}
// * * * * * * * * * * * * * * * * * * * * * * * * * * * * * * * * * * * * * //

dimensions      [0 2 -2 0 0 0 0];


internalField   nonuniform List<scalar> 
171728
(
1.63684e-05
1.91227e-05
1.43205e-05
1.63913e-05
1.6702e-05
1.87676e-05
1.40942e-05
1.65453e-05
1.67172e-05
1.96229e-05
1.38864e-05
1.71453e-05
1.72128e-05
2.10328e-05
1.37237e-05
1.74315e-05
1.75864e-05
1.99427e-05
1.37786e-05
1.84701e-05
1.80504e-05
2.50775e-05
1.3573e-05
1.90466e-05
1.88015e-05
2.35424e-05
1.90173e-05
1.88815e-05
1.64206e-05
1.63583e-05
1.63787e-05
1.87766e-05
1.91564e-05
2.0001e-05
1.64297e-05
1.64045e-05
1.67058e-05
1.65395e-05
1.89829e-05
1.91563e-05
1.64324e-05
1.66792e-05
1.66771e-05
1.67058e-05
1.63764e-05
1.65287e-05
1.64576e-05
2.00937e-05
1.98313e-05
1.63699e-05
1.67097e-05
1.64412e-05
1.90564e-05
2.03737e-05
2.01849e-05
1.68619e-05
1.65525e-05
1.70152e-05
1.69061e-05
1.91667e-05
2.01924e-05
1.68508e-05
1.67213e-05
1.7033e-05
1.70582e-05
1.66569e-05
1.69323e-05
1.71864e-05
1.98372e-05
2.06454e-05
1.66437e-05
1.70234e-05
1.71966e-05
2.12548e-05
2.0045e-05
2.02453e-05
1.69772e-05
1.71266e-05
1.70606e-05
1.73421e-05
2.06245e-05
2.11288e-05
1.69961e-05
1.72384e-05
1.70679e-05
1.75528e-05
1.71628e-05
1.73469e-05
1.7058e-05
2.1019e-05
2.15855e-05
1.71756e-05
1.7561e-05
1.70715e-05
1.94819e-05
2.13534e-05
2.45201e-05
1.74256e-05
1.74359e-05
1.86155e-05
1.82233e-05
2.1219e-05
2.33351e-05
1.74163e-05
1.75766e-05
1.86082e-05
1.78172e-05
1.72189e-05
1.82189e-05
1.87421e-05
2.16038e-05
2.18867e-05
1.72234e-05
1.78141e-05
1.87283e-05
2.50722e-05
2.45271e-05
2.25795e-05
1.86826e-05
1.84754e-05
1.85809e-05
1.89884e-05
2.38038e-05
2.43663e-05
1.86764e-05
1.80535e-05
1.85759e-05
1.87002e-05
1.88449e-05
1.89799e-05
1.88092e-05
2.22514e-05
2.37219e-05
1.88379e-05
1.86935e-05
1.88097e-05
2.3468e-05
2.2518e-05
1.85506e-05
1.9052e-05
1.90289e-05
2.43507e-05
2.33591e-05
1.85449e-05
1.88095e-05
1.88315e-05
1.903e-05
1.95492e-05
2.3909e-05
1.88321e-05
1.95478e-05
2.54107e-05
6.95516e-05
6.95114e-05
3.10793e-05
4.64598e-05
1.47512e-05
1.63515e-05
4.67191e-05
1.47109e-05
3.0579e-05
5.96364e-05
5.95891e-05
1.90477e-05
5.9825e-05
5.99211e-05
5.59465e-05
7.01346e-05
5.56373e-05
7.01446e-05
6.94771e-05
6.94544e-05
5.55708e-05
7.00255e-05
5.52156e-05
7.01591e-05
1.45195e-05
1.42553e-05
1.45205e-05
1.41423e-05
1.4123e-05
1.41558e-05
1.41072e-05
3.26769e-05
4.76295e-05
1.46187e-05
1.6465e-05
3.22689e-05
4.8159e-05
1.46033e-05
6.94829e-05
6.9454e-05
3.244e-05
1.46578e-05
3.09814e-05
1.67106e-05
2.12922e-05
1.46204e-05
4.77902e-05
6.03218e-05
6.03344e-05
1.86601e-05
6.00456e-05
6.0036e-05
5.68767e-05
7.02013e-05
5.63586e-05
7.01988e-05
6.9383e-05
6.93837e-05
5.71817e-05
7.02835e-05
5.65666e-05
7.02374e-05
1.40502e-05
1.40889e-05
1.40651e-05
1.39584e-05
1.3917e-05
1.39433e-05
1.39799e-05
3.43444e-05
4.83199e-05
1.45694e-05
1.6583e-05
3.37691e-05
4.89013e-05
1.45713e-05
6.94367e-05
6.94042e-05
3.41817e-05
1.45672e-05
4.85634e-05
1.67486e-05
3.36209e-05
1.45701e-05
4.88222e-05
6.07109e-05
6.06733e-05
2.11008e-05
6.13006e-05
6.12932e-05
5.76185e-05
7.01792e-05
5.74711e-05
7.02132e-05
6.9355e-05
6.93343e-05
5.75372e-05
7.01586e-05
5.74666e-05
7.01891e-05
1.38966e-05
1.39133e-05
1.39277e-05
1.37195e-05
1.37599e-05
1.38093e-05
1.37116e-05
3.6032e-05
4.98211e-05
1.46288e-05
1.72633e-05
3.54732e-05
4.98309e-05
1.46553e-05
6.93568e-05
6.93334e-05
3.61917e-05
1.4632e-05
4.96459e-05
1.7381e-05
3.54925e-05
1.46678e-05
5.00946e-05
6.11843e-05
6.12625e-05
1.96614e-05
6.06462e-05
6.07479e-05
5.82285e-05
7.0293e-05
5.78402e-05
7.03224e-05
6.93526e-05
6.9357e-05
5.81968e-05
7.02844e-05
5.78518e-05
7.03187e-05
1.37293e-05
1.3762e-05
1.37053e-05
1.37829e-05
1.37221e-05
1.36448e-05
1.37997e-05
3.72358e-05
5.00292e-05
1.47037e-05
1.76485e-05
3.6701e-05
5.0696e-05
1.47419e-05
6.93029e-05
6.93001e-05
3.71529e-05
1.47415e-05
5.02045e-05
1.76139e-05
3.67586e-05
1.47569e-05
5.05416e-05
6.15984e-05
6.15773e-05
2.332e-05
6.23806e-05
6.23675e-05
5.89592e-05
7.03132e-05
5.87016e-05
7.02957e-05
6.92823e-05
6.92446e-05
5.89501e-05
7.03142e-05
5.87067e-05
7.02954e-05
1.37234e-05
1.36389e-05
1.38067e-05
1.36385e-05
1.37024e-05
1.36376e-05
1.3696e-05
3.87324e-05
5.11e-05
1.49393e-05
1.86821e-05
3.82694e-05
5.16187e-05
1.50042e-05
6.92756e-05
6.92681e-05
3.87294e-05
1.48852e-05
5.11242e-05
1.83108e-05
3.82262e-05
1.49567e-05
5.16372e-05
6.23857e-05
6.23936e-05
2.41011e-05
6.20302e-05
6.20386e-05
5.93583e-05
7.02912e-05
5.92289e-05
7.03287e-05
6.91744e-05
6.91739e-05
5.92811e-05
7.02902e-05
5.91934e-05
7.03281e-05
1.36863e-05
1.36191e-05
1.36386e-05
1.35542e-05
1.36383e-05
3.99158e-05
5.20415e-05
1.51862e-05
1.90516e-05
3.94753e-05
5.2244e-05
1.524e-05
6.92094e-05
6.92148e-05
3.98388e-05
1.5152e-05
5.18115e-05
1.89321e-05
3.94716e-05
1.52112e-05
5.19594e-05
6.22311e-05
6.22154e-05
2.42883e-05
6.27806e-05
6.27798e-05
5.96459e-05
5.96706e-05
1.89347e-05
5.96989e-05
5.97484e-05
6.95453e-05
6.95083e-05
6.94864e-05
6.94948e-05
1.88459e-05
6.02502e-05
6.022e-05
5.97675e-05
5.98125e-05
6.94822e-05
6.94901e-05
5.49132e-05
7.00508e-05
7.01255e-05
5.42049e-05
3.12071e-05
1.47745e-05
4.65543e-05
1.64029e-05
1.47359e-05
4.68187e-05
3.07692e-05
5.49361e-05
7.01506e-05
7.01532e-05
5.43861e-05
3.13913e-05
1.63506e-05
4.74108e-05
1.46457e-05
4.68733e-05
1.46774e-05
3.20298e-05
5.51438e-05
7.01343e-05
7.01316e-05
5.55349e-05
3.14912e-05
1.63872e-05
1.4666e-05
4.78604e-05
1.47007e-05
4.71013e-05
3.21296e-05
5.51995e-05
7.0096e-05
7.01509e-05
5.56268e-05
6.95203e-05
6.95019e-05
6.95168e-05
6.95045e-05
1.88803e-05
6.03346e-05
6.03525e-05
6.00627e-05
6.01429e-05
6.9494e-05
6.94984e-05
6.94933e-05
6.94999e-05
6.94905e-05
6.94435e-05
6.94822e-05
6.94464e-05
6.02741e-05
6.02325e-05
1.93397e-05
6.02012e-05
6.01005e-05
6.93944e-05
6.94193e-05
6.94084e-05
6.94276e-05
1.94903e-05
6.07767e-05
6.07654e-05
6.02325e-05
6.01317e-05
5.59497e-05
7.01501e-05
5.55938e-05
7.01361e-05
3.28109e-05
3.037e-05
1.46267e-05
1.64844e-05
2.11786e-05
4.77247e-05
1.46154e-05
3.28105e-05
3.02848e-05
1.46244e-05
1.64791e-05
2.12086e-05
4.82402e-05
1.46125e-05
5.59947e-05
7.02007e-05
7.01563e-05
5.62773e-05
5.60089e-05
7.01603e-05
7.01335e-05
5.632e-05
3.30398e-05
1.65745e-05
4.83689e-05
1.4586e-05
4.77763e-05
1.45974e-05
3.34739e-05
3.30488e-05
1.65238e-05
4.83077e-05
1.45802e-05
4.83044e-05
1.46001e-05
3.35104e-05
6.04e-05
6.03537e-05
1.91425e-05
6.0597e-05
6.05487e-05
6.94748e-05
6.94605e-05
6.93976e-05
6.94325e-05
1.92067e-05
6.04994e-05
6.04648e-05
6.05927e-05
6.0545e-05
6.94045e-05
6.94405e-05
3.23816e-05
3.03661e-05
1.46182e-05
1.64672e-05
2.10914e-05
4.75105e-05
1.45822e-05
5.56103e-05
7.00514e-05
5.51975e-05
7.01336e-05
3.24067e-05
1.46332e-05
2.45563e-05
1.66953e-05
2.10531e-05
1.45997e-05
4.78216e-05
5.56817e-05
7.02823e-05
7.02006e-05
5.63653e-05
3.26287e-05
1.65365e-05
4.83569e-05
1.45661e-05
4.75639e-05
1.45659e-05
3.33392e-05
5.57079e-05
7.02411e-05
7.01545e-05
5.63771e-05
3.26621e-05
1.66998e-05
1.45751e-05
4.83548e-05
1.45781e-05
4.78638e-05
3.33556e-05
5.5691e-05
7.01272e-05
5.55546e-05
7.01393e-05
3.27212e-05
1.46377e-05
4.79121e-05
1.63792e-05
3.23569e-05
1.46122e-05
4.77618e-05
5.57104e-05
7.00752e-05
5.56392e-05
7.00772e-05
3.28934e-05
1.65109e-05
4.82813e-05
1.45727e-05
4.82387e-05
1.45879e-05
3.34971e-05
5.58069e-05
7.02257e-05
7.01524e-05
5.64205e-05
3.29025e-05
1.6396e-05
1.45626e-05
4.78168e-05
1.45815e-05
4.76884e-05
3.34378e-05
5.58403e-05
7.01784e-05
7.01019e-05
5.63622e-05
6.04562e-05
6.04738e-05
2.00216e-05
6.04425e-05
6.04301e-05
6.94715e-05
6.94425e-05
6.94431e-05
6.94415e-05
2.0022e-05
6.05971e-05
6.06223e-05
6.0412e-05
6.04062e-05
6.94341e-05
6.94312e-05
3.24894e-05
1.46328e-05
3.01537e-05
1.637e-05
2.12216e-05
1.45967e-05
4.76542e-05
5.54594e-05
7.00263e-05
5.54216e-05
7.00913e-05
5.55732e-05
7.00329e-05
5.54469e-05
7.00824e-05
3.26174e-05
1.67096e-05
1.45688e-05
4.83509e-05
1.45869e-05
4.7822e-05
3.33333e-05
3.27023e-05
1.63823e-05
1.45501e-05
4.78209e-05
1.45636e-05
4.76069e-05
3.33373e-05
5.56886e-05
7.01862e-05
7.01211e-05
5.63158e-05
5.58338e-05
7.01884e-05
7.01111e-05
5.62404e-05
6.9481e-05
6.94422e-05
6.94811e-05
6.94447e-05
1.86875e-05
6.03572e-05
6.03224e-05
6.00057e-05
5.99936e-05
6.93847e-05
6.9415e-05
6.93916e-05
6.94188e-05
6.93767e-05
6.936e-05
6.93902e-05
6.93667e-05
6.09207e-05
6.09362e-05
2.06562e-05
6.11868e-05
6.12256e-05
6.93417e-05
6.93504e-05
6.93433e-05
6.93539e-05
2.06717e-05
6.11098e-05
6.11353e-05
6.1192e-05
6.12304e-05
5.68702e-05
7.01775e-05
5.63949e-05
7.02335e-05
3.43033e-05
4.86508e-05
1.4586e-05
1.69857e-05
3.37043e-05
4.93249e-05
1.459e-05
3.42856e-05
4.83209e-05
1.45678e-05
1.65836e-05
3.37302e-05
4.88097e-05
1.45671e-05
5.70033e-05
7.01792e-05
7.01909e-05
5.74172e-05
5.69926e-05
7.02237e-05
7.02344e-05
5.74116e-05
3.45897e-05
1.70217e-05
4.95237e-05
1.46126e-05
4.94661e-05
1.4601e-05
3.5246e-05
3.45617e-05
1.66745e-05
4.96602e-05
1.4585e-05
4.90635e-05
1.45709e-05
3.52289e-05
6.0499e-05
6.04665e-05
1.918e-05
6.0902e-05
6.0928e-05
6.93882e-05
6.93892e-05
6.93686e-05
6.93775e-05
1.94047e-05
6.13855e-05
6.14248e-05
6.10758e-05
6.11178e-05
6.9369e-05
6.93825e-05
3.45845e-05
4.87033e-05
1.45726e-05
1.69919e-05
3.37014e-05
4.94675e-05
1.4594e-05
5.7195e-05
7.02508e-05
5.65843e-05
7.0267e-05
3.4583e-05
1.45779e-05
4.858e-05
1.67643e-05
3.37112e-05
1.45881e-05
4.89426e-05
5.72787e-05
7.01625e-05
7.02056e-05
5.74577e-05
3.48983e-05
1.70379e-05
4.95991e-05
1.46413e-05
4.95882e-05
1.46234e-05
3.54614e-05
5.72865e-05
7.02488e-05
7.02648e-05
5.74611e-05
3.48929e-05
1.68806e-05
1.46388e-05
4.95068e-05
1.46123e-05
4.90463e-05
3.54596e-05
5.6877e-05
7.02376e-05
5.65214e-05
7.02622e-05
3.41367e-05
1.45612e-05
4.81786e-05
1.69702e-05
3.36796e-05
1.4565e-05
4.92565e-05
5.66031e-05
7.0178e-05
5.64253e-05
7.01556e-05
3.45887e-05
1.66899e-05
4.97241e-05
1.45984e-05
4.91602e-05
1.45784e-05
3.52176e-05
5.69528e-05
7.02227e-05
7.02585e-05
5.74017e-05
3.43667e-05
1.71571e-05
1.46005e-05
4.97498e-05
1.4577e-05
4.95136e-05
3.51024e-05
5.66942e-05
7.01948e-05
7.01532e-05
5.73568e-05
6.07597e-05
6.07601e-05
1.98456e-05
6.09264e-05
6.08837e-05
6.94274e-05
6.93994e-05
6.93687e-05
6.93822e-05
2.00401e-05
6.12981e-05
6.12897e-05
6.09629e-05
6.09175e-05
6.93719e-05
6.93812e-05
3.40288e-05
1.45506e-05
4.81882e-05
1.69655e-05
3.3565e-05
1.45569e-05
4.92559e-05
5.66661e-05
7.019e-05
5.63799e-05
7.02166e-05
5.64878e-05
7.01912e-05
5.62616e-05
7.0202e-05
3.44392e-05
1.6844e-05
1.46e-05
4.94166e-05
1.45791e-05
4.89054e-05
3.51778e-05
3.43091e-05
1.71617e-05
1.46069e-05
4.9842e-05
1.45743e-05
4.95353e-05
3.51942e-05
5.68029e-05
7.02645e-05
7.02294e-05
5.74392e-05
5.66945e-05
7.02286e-05
7.0208e-05
5.74904e-05
6.93735e-05
6.93532e-05
6.93826e-05
6.93641e-05
2.13922e-05
6.13033e-05
6.1339e-05
6.13463e-05
6.1354e-05
6.93418e-05
6.93432e-05
6.93469e-05
6.93514e-05
6.93332e-05
6.93531e-05
6.93344e-05
6.93559e-05
6.09717e-05
6.09974e-05
1.9514e-05
6.08124e-05
6.08523e-05
6.93827e-05
6.93619e-05
6.93839e-05
6.93648e-05
1.953e-05
6.15745e-05
6.16141e-05
6.08891e-05
6.09377e-05
5.76139e-05
7.02109e-05
5.74699e-05
7.02019e-05
3.59403e-05
4.94815e-05
1.46214e-05
1.69512e-05
3.54893e-05
4.93975e-05
1.46279e-05
3.59767e-05
4.97752e-05
1.46167e-05
1.72502e-05
3.54826e-05
4.98153e-05
1.46463e-05
5.76343e-05
7.02871e-05
7.02282e-05
5.77803e-05
5.76267e-05
7.02483e-05
7.02031e-05
5.77617e-05
3.61009e-05
1.6963e-05
5.00593e-05
1.46494e-05
4.94351e-05
1.46351e-05
3.64828e-05
3.6135e-05
1.72995e-05
4.98926e-05
1.46795e-05
4.97963e-05
1.46662e-05
3.64822e-05
6.13914e-05
6.14296e-05
2.10196e-05
6.12705e-05
6.13014e-05
6.93541e-05
6.93301e-05
6.9346e-05
6.93248e-05
2.11211e-05
6.12548e-05
6.12003e-05
6.11963e-05
6.12047e-05
6.93354e-05
6.93181e-05
3.59217e-05
4.95331e-05
1.46481e-05
1.69668e-05
3.56308e-05
4.94141e-05
1.46499e-05
5.75413e-05
7.0233e-05
5.74707e-05
7.02054e-05
3.59796e-05
1.46614e-05
4.96994e-05
1.73927e-05
3.56362e-05
1.46809e-05
5.00331e-05
5.7571e-05
7.02775e-05
7.02088e-05
5.77984e-05
3.60662e-05
1.69766e-05
5.00419e-05
1.46587e-05
4.94398e-05
1.46521e-05
3.64542e-05
5.75688e-05
7.02202e-05
7.0199e-05
5.77546e-05
3.61268e-05
1.74986e-05
1.47071e-05
5.00926e-05
1.46955e-05
5.00501e-05
3.64672e-05
5.76912e-05
7.02026e-05
5.74868e-05
7.01884e-05
3.60939e-05
1.46253e-05
4.97317e-05
1.70733e-05
3.54107e-05
1.46464e-05
4.94682e-05
5.7817e-05
7.02043e-05
5.75021e-05
7.02547e-05
3.62078e-05
1.73086e-05
4.98416e-05
1.46861e-05
4.97972e-05
1.46738e-05
3.65494e-05
5.77058e-05
7.0237e-05
7.01891e-05
5.77922e-05
3.62986e-05
1.70352e-05
1.46745e-05
4.9653e-05
1.46611e-05
4.94276e-05
3.66918e-05
5.7841e-05
7.03159e-05
7.02728e-05
5.79213e-05
6.13979e-05
6.13983e-05
2.14441e-05
6.15015e-05
6.15163e-05
6.93595e-05
6.9333e-05
6.93083e-05
6.93175e-05
2.15869e-05
6.14313e-05
6.14309e-05
6.14924e-05
6.15085e-05
6.93027e-05
6.93155e-05
3.62602e-05
1.464e-05
4.98314e-05
1.70907e-05
3.55419e-05
1.46661e-05
4.9596e-05
5.78705e-05
7.02633e-05
5.75936e-05
7.02412e-05
5.79469e-05
7.02234e-05
5.76655e-05
7.022e-05
3.64004e-05
1.74997e-05
1.47254e-05
5.01564e-05
1.47007e-05
5.01308e-05
3.66726e-05
3.64586e-05
1.70508e-05
1.46925e-05
4.9608e-05
1.46821e-05
4.95303e-05
3.67073e-05
5.78697e-05
7.02131e-05
7.02224e-05
5.78102e-05
5.79454e-05
7.0269e-05
7.02243e-05
5.78697e-05
6.93327e-05
6.93262e-05
6.93379e-05
6.93264e-05
1.94804e-05
6.11335e-05
6.11155e-05
6.05844e-05
6.06718e-05
6.93676e-05
6.9324e-05
6.93617e-05
6.93223e-05
6.93677e-05
6.93342e-05
6.93678e-05
6.9332e-05
6.16633e-05
6.16982e-05
2.35411e-05
6.20562e-05
6.2074e-05
6.92679e-05
6.93115e-05
6.92642e-05
6.9308e-05
2.41552e-05
6.23613e-05
6.23545e-05
6.21691e-05
6.218e-05
5.82557e-05
7.02614e-05
5.78265e-05
7.03014e-05
3.72481e-05
5.02085e-05
1.46832e-05
1.79741e-05
3.66768e-05
5.06545e-05
1.47557e-05
3.72466e-05
5.01248e-05
1.47005e-05
1.76625e-05
3.66647e-05
5.06954e-05
1.47434e-05
5.83062e-05
7.03218e-05
7.03237e-05
5.86465e-05
5.83372e-05
7.0329e-05
7.03038e-05
5.86586e-05
3.74781e-05
1.83835e-05
5.13593e-05
1.49041e-05
5.08419e-05
1.48341e-05
3.80663e-05
3.74798e-05
1.79468e-05
5.09768e-05
1.48716e-05
5.0759e-05
1.48044e-05
3.80633e-05
6.14894e-05
6.13904e-05
2.1826e-05
6.19298e-05
6.19433e-05
6.93436e-05
6.93581e-05
6.93003e-05
6.93369e-05
2.23701e-05
6.20999e-05
6.20492e-05
6.19602e-05
6.19918e-05
6.92945e-05
6.93402e-05
3.71952e-05
5.01938e-05
1.46803e-05
1.79633e-05
3.66408e-05
5.06414e-05
1.47413e-05
5.82221e-05
7.02336e-05
5.781e-05
7.02934e-05
3.71897e-05
1.47196e-05
5.01896e-05
1.76059e-05
3.66351e-05
1.4741e-05
5.05769e-05
5.82823e-05
7.03226e-05
7.03214e-05
5.86509e-05
3.74274e-05
1.83744e-05
5.13504e-05
1.48912e-05
5.08305e-05
1.4821e-05
3.80437e-05
5.83159e-05
7.03198e-05
7.02993e-05
5.86679e-05
3.74234e-05
1.76694e-05
1.48221e-05
5.09708e-05
1.47749e-05
5.06602e-05
3.8032e-05
5.82302e-05
7.0253e-05
5.78351e-05
7.03098e-05
3.7273e-05
1.47006e-05
5.00446e-05
1.77739e-05
3.68313e-05
1.47604e-05
5.09218e-05
5.81854e-05
7.0315e-05
5.79439e-05
7.02892e-05
3.74647e-05
1.79394e-05
5.09702e-05
1.48707e-05
5.07857e-05
1.48022e-05
3.80806e-05
5.83322e-05
7.03323e-05
7.03133e-05
5.86726e-05
3.74711e-05
1.83968e-05
1.49196e-05
5.14434e-05
1.48397e-05
5.11005e-05
3.80606e-05
5.82708e-05
7.02507e-05
7.02682e-05
5.86424e-05
6.14498e-05
6.14391e-05
2.15202e-05
6.16968e-05
6.16643e-05
6.92963e-05
6.92943e-05
6.92816e-05
6.92878e-05
2.15734e-05
6.19907e-05
6.19621e-05
6.17285e-05
6.16982e-05
6.92796e-05
6.92838e-05
3.71499e-05
1.47095e-05
4.99015e-05
1.77569e-05
3.67807e-05
1.47496e-05
5.08377e-05
5.81295e-05
7.02195e-05
5.78063e-05
7.02889e-05
5.80897e-05
7.02767e-05
5.7857e-05
7.0284e-05
3.73758e-05
1.76729e-05
1.48247e-05
5.09593e-05
1.47827e-05
5.06269e-05
3.80187e-05
3.73706e-05
1.83771e-05
1.49012e-05
5.14376e-05
1.48216e-05
5.10403e-05
3.80284e-05
5.82713e-05
7.03244e-05
7.02981e-05
5.86782e-05
5.82412e-05
7.02708e-05
7.02799e-05
5.86693e-05
6.93715e-05
6.93607e-05
6.93672e-05
6.93616e-05
2.4331e-05
6.24619e-05
6.24614e-05
6.24554e-05
6.24465e-05
6.92974e-05
6.93347e-05
6.93024e-05
6.93379e-05
6.92445e-05
6.92198e-05
6.92417e-05
6.92192e-05
6.23655e-05
6.23565e-05
2.3661e-05
6.23377e-05
6.2323e-05
6.91923e-05
6.92047e-05
6.91934e-05
6.92049e-05
2.34792e-05
6.20193e-05
6.19871e-05
6.22818e-05
6.22616e-05
5.89392e-05
7.0333e-05
5.87074e-05
7.03366e-05
3.87795e-05
5.14826e-05
1.49658e-05
1.86793e-05
3.82687e-05
5.17444e-05
1.50196e-05
3.87596e-05
5.11288e-05
1.49376e-05
1.869e-05
3.82568e-05
5.16557e-05
1.50023e-05
5.90026e-05
7.02865e-05
7.02871e-05
5.92007e-05
5.89808e-05
7.03116e-05
7.03304e-05
5.9181e-05
3.89531e-05
1.86478e-05
5.16704e-05
1.51149e-05
5.17505e-05
1.50708e-05
3.94067e-05
3.8933e-05
1.88632e-05
5.19862e-05
1.51339e-05
5.17789e-05
1.50666e-05
3.94148e-05
6.2199e-05
6.20945e-05
2.42646e-05
6.246e-05
6.24099e-05
6.92743e-05
6.92483e-05
6.91863e-05
6.92185e-05
2.4418e-05
6.25112e-05
6.25453e-05
6.24896e-05
6.24622e-05
6.91958e-05
6.92264e-05
3.87686e-05
5.14724e-05
1.49548e-05
1.86733e-05
3.82503e-05
5.1732e-05
1.50109e-05
5.89473e-05
7.03192e-05
5.87193e-05
7.03185e-05
3.87477e-05
1.48838e-05
5.1133e-05
1.83147e-05
3.82296e-05
1.49546e-05
5.16452e-05
5.89893e-05
7.02867e-05
7.02883e-05
5.91719e-05
3.89447e-05
1.86425e-05
5.16577e-05
1.51109e-05
5.17387e-05
1.50653e-05
3.94066e-05
5.89866e-05
7.03117e-05
7.03146e-05
5.91698e-05
3.89284e-05
1.85435e-05
1.50989e-05
5.18277e-05
1.50293e-05
5.17549e-05
3.94157e-05
5.8879e-05
7.03346e-05
5.87151e-05
7.03358e-05
3.87152e-05
1.49927e-05
5.14558e-05
1.8845e-05
3.82507e-05
1.50492e-05
5.13673e-05
5.88805e-05
7.02484e-05
5.86936e-05
7.02589e-05
3.88787e-05
1.8854e-05
5.19918e-05
1.51279e-05
5.17497e-05
1.50669e-05
3.93294e-05
5.89054e-05
7.0312e-05
7.03286e-05
5.9092e-05
3.88516e-05
1.88177e-05
1.5115e-05
5.13822e-05
1.50872e-05
5.13232e-05
3.92799e-05
5.89072e-05
7.03397e-05
7.027e-05
5.90882e-05
6.21095e-05
6.2075e-05
2.29475e-05
6.24017e-05
6.23805e-05
6.92741e-05
6.92693e-05
6.92238e-05
6.92526e-05
2.332e-05
6.2358e-05
6.23656e-05
6.24205e-05
6.24049e-05
6.92278e-05
6.92554e-05
3.87279e-05
1.49782e-05
5.14592e-05
1.88402e-05
3.82388e-05
1.50409e-05
5.13832e-05
5.89017e-05
7.03232e-05
5.87282e-05
7.03189e-05
5.88878e-05
7.02658e-05
5.87211e-05
7.02685e-05
3.88911e-05
1.85388e-05
1.50952e-05
5.18124e-05
1.50299e-05
5.17435e-05
3.93422e-05
3.88733e-05
1.88171e-05
1.51165e-05
5.14035e-05
1.5085e-05
5.13424e-05
3.92956e-05
5.89265e-05
7.03062e-05
7.03121e-05
5.9084e-05
5.89102e-05
7.03384e-05
7.02764e-05
5.90635e-05
6.92767e-05
6.9241e-05
6.92822e-05
6.92452e-05
2.38956e-05
6.19995e-05
6.19946e-05
6.19433e-05
6.19512e-05
6.92217e-05
6.92246e-05
6.92237e-05
6.92279e-05
6.91907e-05
6.92402e-05
6.9192e-05
6.92437e-05
6.19937e-05
6.19601e-05
2.24177e-05
6.2292e-05
6.22645e-05
6.92453e-05
6.9249e-05
2.26945e-05
6.24775e-05
6.24596e-05
5.93428e-05
7.03026e-05
5.92109e-05
7.02957e-05
3.99254e-05
5.16526e-05
1.51482e-05
1.85567e-05
3.95576e-05
5.18295e-05
1.5181e-05
3.99515e-05
5.20263e-05
1.51954e-05
1.90549e-05
3.95678e-05
5.22161e-05
1.52489e-05
5.93788e-05
7.03332e-05
5.94946e-05
5.93618e-05
7.02956e-05
7.02934e-05
5.9477e-05
4.0052e-05
1.86316e-05
1.53157e-05
5.20707e-05
1.52315e-05
4.04371e-05
4.00717e-05
1.90422e-05
5.22214e-05
1.53443e-05
5.22612e-05
1.52985e-05
4.04216e-05
6.2498e-05
6.25441e-05
2.38589e-05
6.24231e-05
6.24938e-05
6.91813e-05
6.91761e-05
6.91766e-05
6.91695e-05
2.37976e-05
6.21217e-05
6.21783e-05
6.23695e-05
6.24419e-05
6.91694e-05
6.91698e-05
3.98689e-05
5.16371e-05
1.51442e-05
1.85507e-05
3.95482e-05
5.17989e-05
1.51748e-05
5.92628e-05
7.03108e-05
5.91891e-05
7.03251e-05
3.98784e-05
1.516e-05
5.18251e-05
1.89396e-05
3.95572e-05
1.52193e-05
5.19372e-05
5.93029e-05
7.03339e-05
3.99798e-05
1.86244e-05
5.20444e-05
1.52236e-05
5.9281e-05
7.03297e-05
3.99826e-05
1.91163e-05
1.52837e-05
5.21129e-05
5.93723e-05
7.03072e-05
5.91377e-05
7.03083e-05
3.98995e-05
1.51481e-05
5.15857e-05
1.89375e-05
3.94268e-05
1.52042e-05
5.22661e-05
5.93645e-05
7.03494e-05
5.91329e-05
7.03612e-05
4.00545e-05
1.90409e-05
5.22796e-05
1.5349e-05
5.23014e-05
1.52939e-05
4.05223e-05
5.9414e-05
7.03136e-05
7.03077e-05
5.96255e-05
4.00476e-05
1.92431e-05
1.53816e-05
5.27278e-05
1.52846e-05
5.24195e-05
4.05335e-05
5.9404e-05
7.03374e-05
7.03562e-05
5.9604e-05
6.22979e-05
6.2322e-05
2.40504e-05
6.23155e-05
6.23819e-05
6.9214e-05
6.9218e-05
6.92152e-05
2.42168e-05
6.2456e-05
6.25417e-05
6.9217e-05
3.98449e-05
1.51493e-05
5.16005e-05
1.89383e-05
3.94305e-05
1.5203e-05
5.22543e-05
5.92858e-05
7.0306e-05
5.91161e-05
7.03353e-05
5.9287e-05
7.03463e-05
5.90989e-05
7.03555e-05
3.99712e-05
1.91113e-05
1.53639e-05
1.52807e-05
5.21455e-05
4.04939e-05
3.99839e-05
1.92419e-05
1.5378e-05
5.27325e-05
1.5281e-05
5.24074e-05
4.04989e-05
5.93298e-05
7.03435e-05
5.96251e-05
5.93299e-05
7.0342e-05
7.03513e-05
5.96066e-05
6.92189e-05
6.92109e-05
6.92211e-05
6.92152e-05
2.48995e-05
6.28987e-05
6.29241e-05
6.28479e-05
6.28563e-05
6.91706e-05
6.9193e-05
6.91754e-05
6.91984e-05
6.95432e-05
6.95172e-05
8.86891e-05
7.19367e-05
7.19328e-05
7.19358e-05
7.19323e-05
8.86505e-05
5.84122e-05
4.09e-05
5.96457e-05
6.85808e-05
4.08847e-05
6.85574e-05
5.85859e-05
5.84724e-05
4.08917e-05
5.96171e-05
6.85905e-05
6.85722e-05
5.86339e-05
4.08838e-05
5.82981e-05
6.85499e-05
5.96827e-05
4.08624e-05
4.08774e-05
6.85465e-05
5.81854e-05
5.83663e-05
6.85709e-05
5.97009e-05
4.08767e-05
6.85656e-05
5.82596e-05
4.08822e-05
8.87653e-05
7.19448e-05
7.19409e-05
7.19429e-05
7.1939e-05
8.89264e-05
6.99007e-05
5.58366e-05
6.93233e-05
6.12692e-05
6.93116e-05
6.12388e-05
6.9902e-05
7.07969e-05
7.47658e-05
7.01345e-05
7.47548e-05
7.08107e-05
6.9904e-05
5.57788e-05
6.92955e-05
6.11537e-05
6.93077e-05
6.12221e-05
6.99012e-05
7.07548e-05
7.47138e-05
7.01349e-05
7.47197e-05
7.07418e-05
6.94757e-05
6.94607e-05
6.98899e-05
5.5412e-05
6.08348e-05
6.93333e-05
6.06679e-05
6.93044e-05
6.99181e-05
7.07305e-05
7.40627e-05
7.00492e-05
7.40606e-05
7.07252e-05
6.98782e-05
5.53377e-05
6.05822e-05
6.92626e-05
6.06077e-05
6.92917e-05
6.98517e-05
7.07252e-05
7.42905e-05
7.00931e-05
7.40932e-05
7.0741e-05
6.94776e-05
6.94576e-05
8.12475e-05
7.12683e-05
7.12614e-05
7.11621e-05
7.11556e-05
8.13733e-05
5.55237e-05
4.06181e-05
6.8625e-05
6.02775e-05
5.59571e-05
4.04574e-05
6.86884e-05
5.5592e-05
4.06564e-05
6.86353e-05
6.02796e-05
5.60301e-05
4.04834e-05
6.86963e-05
8.16746e-05
7.12285e-05
7.1222e-05
8.30468e-05
7.11606e-05
7.11536e-05
5.54261e-05
6.88165e-05
6.01508e-05
4.03871e-05
4.03856e-05
6.87445e-05
5.55019e-05
5.54917e-05
6.88245e-05
6.01421e-05
4.04042e-05
4.0404e-05
6.87532e-05
5.55667e-05
6.99057e-05
5.66603e-05
6.93858e-05
6.19823e-05
6.93721e-05
6.17844e-05
6.99153e-05
7.06832e-05
7.47595e-05
7.02033e-05
7.06723e-05
7.48489e-05
6.99042e-05
5.65358e-05
6.93554e-05
6.15156e-05
6.98984e-05
6.93673e-05
6.16814e-05
7.06804e-05
7.49876e-05
7.02004e-05
7.48921e-05
7.06937e-05
6.93845e-05
6.93792e-05
6.99441e-05
5.69936e-05
6.22857e-05
6.94118e-05
6.21454e-05
6.94086e-05
6.99413e-05
7.07391e-05
7.51388e-05
7.02813e-05
7.07381e-05
7.52235e-05
6.99511e-05
5.68252e-05
6.18114e-05
6.93999e-05
6.995e-05
6.20291e-05
6.94086e-05
7.07236e-05
7.52355e-05
7.02614e-05
7.52312e-05
7.07229e-05
6.94339e-05
6.94124e-05
0.00010204
7.24373e-05
7.2433e-05
7.32088e-05
7.32027e-05
0.000100625
6.60425e-05
4.46108e-05
6.92716e-05
6.0997e-05
6.50927e-05
4.5586e-05
6.92606e-05
6.60962e-05
4.46058e-05
6.92792e-05
6.09644e-05
6.51476e-05
4.5581e-05
6.92689e-05
0.000102023
7.35034e-05
7.34949e-05
0.000100695
7.34928e-05
7.3484e-05
6.61902e-05
6.8952e-05
6.11788e-05
4.61364e-05
4.60557e-05
6.91555e-05
6.59519e-05
6.62428e-05
6.89648e-05
6.11564e-05
4.61331e-05
4.60509e-05
6.91665e-05
6.60037e-05
6.99482e-05
5.75739e-05
6.94534e-05
6.25272e-05
6.94424e-05
6.25039e-05
6.99534e-05
7.06796e-05
7.51163e-05
7.01828e-05
7.06808e-05
7.51352e-05
6.99479e-05
5.75495e-05
6.94266e-05
6.24382e-05
6.99407e-05
6.94385e-05
6.24926e-05
7.06592e-05
7.51609e-05
7.0191e-05
7.51404e-05
7.06542e-05
6.93519e-05
6.93367e-05
6.99233e-05
5.74967e-05
6.24441e-05
6.94365e-05
6.24189e-05
6.94234e-05
6.99328e-05
7.06623e-05
7.50778e-05
7.01596e-05
7.06647e-05
7.50767e-05
6.99226e-05
5.7485e-05
6.24185e-05
6.94128e-05
6.99195e-05
6.24184e-05
6.94193e-05
7.06427e-05
7.50965e-05
7.01656e-05
7.50745e-05
7.06408e-05
6.93538e-05
6.93374e-05
7.25633e-05
7.13961e-05
7.13918e-05
7.08654e-05
7.08635e-05
7.50431e-05
5.18363e-05
4.19328e-05
6.83403e-05
6.09908e-05
5.28415e-05
4.0997e-05
6.84841e-05
5.19217e-05
4.1965e-05
6.83593e-05
6.10954e-05
5.29128e-05
4.1043e-05
6.85068e-05
7.21941e-05
7.0166e-05
7.01646e-05
7.28263e-05
7.04419e-05
7.04383e-05
5.16528e-05
6.9053e-05
6.07887e-05
4.03655e-05
4.04881e-05
6.87644e-05
5.18939e-05
5.1745e-05
6.9076e-05
6.08988e-05
4.04255e-05
4.05434e-05
6.87882e-05
5.19937e-05
6.99578e-05
5.80608e-05
6.9509e-05
6.29626e-05
6.95026e-05
6.2844e-05
6.99589e-05
7.05536e-05
7.51952e-05
7.03062e-05
7.05595e-05
7.52194e-05
6.99611e-05
5.79797e-05
6.94885e-05
6.26873e-05
6.99582e-05
6.95002e-05
6.27887e-05
7.05288e-05
7.52703e-05
7.0311e-05
7.52316e-05
7.05258e-05
6.93658e-05
6.93598e-05
6.99499e-05
5.80411e-05
6.29399e-05
6.95007e-05
6.28405e-05
6.94929e-05
6.99509e-05
7.05441e-05
7.52112e-05
7.02992e-05
7.0552e-05
7.52224e-05
6.99535e-05
5.79701e-05
6.27167e-05
6.94789e-05
6.99513e-05
6.27978e-05
6.94903e-05
7.05166e-05
7.52513e-05
7.0305e-05
7.52255e-05
7.0513e-05
6.93071e-05
6.93003e-05
9.79723e-05
7.30734e-05
7.30597e-05
7.33658e-05
7.33573e-05
9.79145e-05
6.63034e-05
4.62073e-05
7.01219e-05
6.19728e-05
6.47511e-05
4.77259e-05
7.01555e-05
6.63896e-05
4.62383e-05
7.01342e-05
6.19532e-05
6.48476e-05
4.77454e-05
7.01673e-05
9.73163e-05
7.34168e-05
7.34106e-05
9.54737e-05
7.34606e-05
7.34527e-05
6.7058e-05
7.00072e-05
6.22189e-05
4.92819e-05
4.87457e-05
7.01308e-05
6.72262e-05
6.71356e-05
7.00181e-05
6.22022e-05
4.92866e-05
4.87554e-05
7.01426e-05
6.72992e-05
6.99322e-05
5.88603e-05
6.95063e-05
6.35754e-05
6.95043e-05
6.34838e-05
6.99336e-05
7.04977e-05
7.54201e-05
7.03093e-05
7.04918e-05
7.54632e-05
6.99366e-05
5.88118e-05
6.95058e-05
6.33404e-05
6.99365e-05
6.95068e-05
6.34405e-05
7.04877e-05
7.54974e-05
7.02996e-05
7.54727e-05
7.04923e-05
6.92763e-05
6.92533e-05
6.99306e-05
5.88596e-05
6.3544e-05
6.9505e-05
6.34673e-05
6.95022e-05
6.99322e-05
7.04851e-05
7.54057e-05
7.03094e-05
7.04793e-05
7.54377e-05
6.99347e-05
5.8815e-05
6.33372e-05
6.95021e-05
6.99345e-05
6.34314e-05
6.95038e-05
7.04765e-05
7.54664e-05
7.02983e-05
7.54435e-05
7.04827e-05
6.92781e-05
6.927e-05
8.40759e-05
7.13301e-05
7.13213e-05
7.12382e-05
7.12278e-05
8.40649e-05
6.04008e-05
4.76188e-05
6.92172e-05
6.22804e-05
6.14101e-05
4.69137e-05
6.91871e-05
6.04333e-05
4.76204e-05
6.92279e-05
6.22883e-05
6.14457e-05
4.69209e-05
6.91976e-05
8.4601e-05
7.12927e-05
7.12807e-05
8.59028e-05
7.12376e-05
7.12256e-05
5.98664e-05
6.92257e-05
6.21449e-05
4.61109e-05
4.63913e-05
6.91868e-05
5.97326e-05
5.98963e-05
6.92351e-05
6.21535e-05
4.61239e-05
4.64013e-05
6.91972e-05
5.97619e-05
6.99291e-05
5.93097e-05
6.95186e-05
6.38778e-05
6.95149e-05
6.38403e-05
6.99314e-05
7.04481e-05
7.55766e-05
7.03049e-05
7.04503e-05
7.56118e-05
6.99318e-05
5.9287e-05
6.95114e-05
6.37846e-05
6.99298e-05
6.95149e-05
6.38257e-05
7.04283e-05
7.56105e-05
7.03125e-05
7.56116e-05
7.04243e-05
6.91758e-05
6.917e-05
6.99291e-05
5.92484e-05
6.38065e-05
6.95215e-05
6.37703e-05
6.95182e-05
6.99316e-05
7.04513e-05
7.55305e-05
7.03023e-05
7.04511e-05
7.55594e-05
6.99318e-05
5.92345e-05
6.37269e-05
6.95156e-05
6.993e-05
6.37582e-05
6.95187e-05
7.04363e-05
7.55733e-05
7.03103e-05
7.55642e-05
7.04344e-05
6.92112e-05
6.92069e-05
9.54029e-05
7.23726e-05
7.23721e-05
7.24809e-05
7.24774e-05
9.55047e-05
6.51807e-05
4.75511e-05
6.96599e-05
6.24825e-05
6.41343e-05
4.83989e-05
6.96894e-05
6.52241e-05
4.75592e-05
6.96646e-05
6.24684e-05
6.41717e-05
4.84039e-05
6.96951e-05
9.47163e-05
7.24351e-05
7.24288e-05
9.32625e-05
7.25028e-05
7.24972e-05
6.57825e-05
6.96361e-05
6.26509e-05
4.94576e-05
4.90448e-05
6.96836e-05
6.59923e-05
6.58312e-05
6.96454e-05
6.26442e-05
4.94596e-05
4.90463e-05
6.96904e-05
6.60446e-05
8.77423e-05
7.1853e-05
7.18603e-05
7.1774e-05
7.17827e-05
8.81768e-05
5.78518e-05
4.05821e-05
5.96615e-05
6.85976e-05
6.85885e-05
5.7896e-05
4.05465e-05
5.78296e-05
4.05962e-05
5.97015e-05
6.85957e-05
4.05619e-05
6.85875e-05
5.78719e-05
5.78661e-05
6.85836e-05
5.96722e-05
4.05591e-05
6.85809e-05
5.79636e-05
4.05452e-05
5.78438e-05
6.85822e-05
5.97176e-05
4.05743e-05
4.05606e-05
6.85799e-05
5.79417e-05
8.76763e-05
7.17655e-05
7.17751e-05
7.17639e-05
7.17728e-05
8.77245e-05
6.95384e-05
6.95145e-05
6.94859e-05
6.94952e-05
9.02459e-05
7.1948e-05
7.19546e-05
8.92891e-05
7.20234e-05
7.20278e-05
5.92676e-05
4.16055e-05
6.00773e-05
6.86373e-05
6.86307e-05
5.94188e-05
4.12403e-05
5.92185e-05
4.15922e-05
6.00716e-05
6.86225e-05
6.86189e-05
4.12342e-05
5.93604e-05
5.88934e-05
6.85947e-05
4.06305e-05
5.99308e-05
5.83269e-05
6.86217e-05
4.08588e-05
5.88584e-05
6.85912e-05
4.06432e-05
5.99531e-05
5.83023e-05
6.86132e-05
4.08624e-05
9.07678e-05
7.20209e-05
7.20229e-05
7.20328e-05
7.20364e-05
9.09268e-05
6.94807e-05
6.94898e-05
6.98713e-05
6.0583e-05
6.92521e-05
5.46067e-05
6.03219e-05
6.92283e-05
6.98899e-05
7.08784e-05
7.00818e-05
7.41695e-05
7.42812e-05
7.08681e-05
7.0871e-05
7.46137e-05
7.0102e-05
7.44547e-05
7.08743e-05
6.986e-05
5.43692e-05
5.98931e-05
6.91981e-05
6.00647e-05
6.92174e-05
6.98368e-05
6.98607e-05
6.92431e-05
6.06208e-05
5.46233e-05
6.92246e-05
6.04083e-05
6.9866e-05
7.08963e-05