/*--------------------------------*- C++ -*----------------------------------*\
| =========                 |                                                 |
| \\      /  F ield         | OpenFOAM: The Open Source CFD Toolbox           |
|  \\    /   O peration     | Version:  v2006                                 |
|   \\  /    A nd           | Website:  www.openfoam.com                      |
|    \\/     M anipulation  |                                                 |
\*---------------------------------------------------------------------------*/
FoamFile
{
    version     2.0;
    format      ascii;
    class       volScalarField;
    location    "500";
    object      p;
}
// * * * * * * * * * * * * * * * * * * * * * * * * * * * * * * * * * * * * * //

dimensions      [0 2 -2 0 0 0 0];


internalField   nonuniform List<scalar> 
171728
(
0.00261244
0.00261473
0.00257294
0.00257277
0.00257264
0.00257503
0.00253351
0.00253354
0.00253358
0.00253672
0.00249458
0.00249438
0.00249444
0.00249597
0.00245592
0.00245593
0.00245558
0.00245952
0.00241656
0.00241675
0.00241683
0.0024183
0.00237816
0.00237764
0.00237801
0.00238084
0.00261479
0.0025804
0.00261237
0.00258271
0.0025826
0.00258003
0.00257532
0.00254121
0.00257286
0.00257279
0.00254347
0.00254321
0.00257518
0.002541
0.00257285
0.00257269
0.00254351
0.00254331
0.00257267
0.00254324
0.00254376
0.00257498
0.00254097
0.00257265
0.00254332
0.00254377
0.00254215
0.00253586
0.00250146
0.00253348
0.00253351
0.00250381
0.00250425
0.0025359
0.00250197
0.0025335
0.00253357
0.00250378
0.00250426
0.00253396
0.00250423
0.00250348
0.0025359
0.00250205
0.00253396
0.00250427
0.00250345
0.00250069
0.00249656
0.00246426
0.00249425
0.00249441
0.00246599
0.00246544
0.00249683
0.00246328
0.00249422
0.00249443
0.00246598
0.0024652
0.00249391
0.00246545
0.00246605
0.00249685
0.00246289
0.00249388
0.0024652
0.00246601
0.00246454
0.00245913
0.00242349
0.0024562
0.00245591
0.00242612
0.00242655
0.00245834
0.0024245
0.00245619
0.00245558
0.00242613
0.00242658
0.00245651
0.00242655
0.00242616
0.00245789
0.00242448
0.00245646
0.00242659
0.00242611
0.00242341
0.00241823
0.00238537
0.00241617
0.00241674
0.00238747
0.00238729
0.00241926
0.00238481
0.00241619
0.00241683
0.0023875
0.00238763
0.00241626
0.00238731
0.00238776
0.00241932
0.00238541
0.00241626
0.00238764
0.00238779
0.0023858
0.0023804
0.00237806
0.00237764
0.00234927
0.00237974
0.00234721
0.00237809
0.00237801
0.00237828
0.00234926
0.00234902
0.00238035
0.0023783
0.00234902
0.00234652
0.00261491
0.00259995
0.0026003
0.00261489
0.00261248
0.00260251
0.00260006
0.00260257
0.00261496
0.00261503
0.00261504
0.00260474
0.00260013
0.00260012
0.00256043
0.00257504
0.00257519
0.00256019
0.00257503
0.00256049
0.00256048
0.00257515
0.0025753
0.00256017
0.00257286
0.00257284
0.00257283
0.00254343
0.00254343
0.00254343
0.0025436
0.00256063
0.00257525
0.00257278
0.00256285
0.00257522
0.00256057
0.00256291
0.00257519
0.00256053
0.00256067
0.0025727
0.00257511
0.00256278
0.00257515
0.00256287
0.00256064
0.0025755
0.00257551
0.00256097
0.00256039
0.00256041
0.00252119
0.00253579
0.00253583
0.00252129
0.00253595
0.00252094
0.00252107
0.00253571
0.00253575
0.00252129
0.00253365
0.00253366
0.00253369
0.00250424
0.00250424
0.00250426
0.00250407
0.00252147
0.00253583
0.00253366
0.0025239
0.00253594
0.00252124
0.00252383
0.00253579
0.00252103
0.00252147
0.00253363
0.00253584
0.00252382
0.00253591
0.00252381
0.00252116
0.00253492
0.00253491
0.00252104
0.00252129
0.00252128
0.00248233
0.00249689
0.00249684
0.00248232
0.00249677
0.00248243
0.0024823
0.0024969
0.0024968
0.00248232
0.00249449
0.00249447
0.00249457
0.00246565
0.00246551
0.00246536
0.0024657
0.0024824
0.00249677
0.00249436
0.00248463
0.00249684
0.00248238
0.00248471
0.00249647
0.00248218
0.0024823
0.00249437
0.00249663
0.0024846
0.0024968
0.00248467
0.00248224
0.0024978
0.00249777
0.00248271
0.00248261
0.00248259
0.00244331
0.00245765
0.00245794
0.00244308
0.00245773
0.00244313
0.00244333
0.00245764
0.00245793
0.00244308
0.00245587
0.0024557
0.00245596
0.00242635
0.00242655
0.00242657
0.00242638
0.00244367
0.00245796
0.00245587
0.00244626
0.00245807
0.00244327
0.00244613
0.00245799
0.00244339
0.00244372
0.00245571
0.002458
0.00244595
0.00245799
0.00244603
0.00244349
0.00245681
0.00245684
0.00244418
0.00244281
0.00244283
0.00240442
0.00241895
0.00241888
0.00240458
0.00241858
0.00240416
0.0024045
0.002419
0.00241896
0.00240461
0.00241675
0.00241682
0.00241666
0.00238774
0.00238756
0.00238771
0.00238778
0.00240455
0.00241875
0.00241667
0.00240694
0.00241895
0.0024044
0.00240689
0.0024188
0.00240435
0.00240462
0.00241673
0.00241896
0.00240707
0.00241905
0.00240699
0.0024045
0.00241956
0.00241956
0.00240436
0.00240478
0.00240478
0.00236602
0.00238044
0.00238036
0.00236599
0.0023805
0.00236627
0.00236601
0.00238047
0.0023804
0.002366
0.00237793
0.0023781
0.00237814
0.00234938
0.00234922
0.00236612
0.00238044
0.00237792
0.00236811
0.00238029
0.00236622
0.00236833
0.00238039
0.00236584
0.00236611
0.00237808
0.0023803
0.00236847
0.00238032
0.00236848
0.00236599
0.00237975
0.00237975
0.00236641
0.00236557
0.00236554
0.00261503
0.002615
0.00260488
0.00260001
0.00260001
0.00261487
0.00259996
0.00257998
0.00259491
0.00259036
0.00258005
0.00258007
0.00259496
0.00259497
0.00258
0.00259491
0.00260001
0.00261482
0.00259985
0.0026149
0.00260029
0.00261248
0.00261489
0.00260241
0.00260253
0.00260028
0.00261494
0.00259999
0.00261481
0.00260001
0.00261488
0.00259513
0.00259263
0.00258031
0.00258273
0.00259498
0.00259267
0.00258038
0.00259499
0.00258016
0.00259488
0.00258017
0.00259513
0.00259252
0.00258266
0.00258041
0.0025926
0.00259523
0.00258037
0.00259497
0.00258029
0.00259506
0.00258018
0.00261491
0.00259993
0.00261489
0.00259993
0.00258996
0.00258048
0.00258048
0.00259516
0.00259514
0.00258029
0.00259494
0.00258031
0.00259495
0.00257514
0.00256021
0.00257522
0.00256022
0.00257519
0.00257523
0.002561
0.00256003
0.00256006
0.00254037
0.00255515
0.00254031
0.00255514
0.00255588
0.00254036
0.00254034
0.00255494
0.00255497
0.00256042
0.00257521
0.00257517
0.00256045
0.0025606
0.00257523
0.00257288
0.002563
0.00257532
0.00256021
0.00256303
0.0025606
0.00257526
0.00257283
0.00256286
0.00257532
0.00256057
0.00256293
0.00255546
0.00254067
0.00255523
0.00254077
0.00255547
0.00254071
0.00255548
0.00254081
0.00255549
0.00255325
0.00254081
0.00254336
0.0025552
0.0025532
0.00254099
0.0025555
0.00255299
0.00254087
0.00254334
0.0025555
0.00255311
0.00254101
0.00257515
0.00257517
0.00256042
0.00256066
0.00256065
0.00257506
0.00256049
0.00254091
0.00255559
0.00255535
0.00254096
0.00254096
0.00255576
0.00255575
0.0025409
0.00255558
0.0025607
0.00257522
0.00257284
0.00256303
0.00257523
0.00256027
0.00256304
0.00256046
0.0025752
0.00257528
0.00256046
0.00256069
0.0025728
0.00257523
0.00256282
0.00257522
0.00256296
0.00256063
0.00255549
0.00254058
0.00255519
0.00254071
0.00255562
0.00255334
0.00254079
0.00254344
0.00255523
0.00255327
0.00254111
0.00255549
0.00254066
0.00255549
0.00254074
0.00255561
0.00255305
0.00254339
0.00254094
0.00255317
0.00255559
0.00254112
0.00256046
0.00257522
0.0025752
0.00256045
0.00256064
0.00257277
0.00257522
0.00256292
0.00257522
0.00256297
0.00256021
0.0025605
0.00257526
0.00257522
0.00256019
0.00255556
0.00255301
0.00254087
0.00254342
0.0025555
0.00255313
0.00254103
0.0025555
0.00254067
0.00255546
0.00254078
0.00255556
0.00255329
0.00254354
0.00254057
0.00255326
0.0025551
0.002541
0.00255553
0.00254055
0.00255517
0.00254076
0.00257535
0.00257533
0.00256042
0.00256067
0.00256068
0.0025752
0.00256054
0.00254074
0.00255557
0.00255534
0.00254087
0.00254088
0.0025557
0.00255572
0.00254077
0.00255557
0.00256069
0.0025727
0.0025752
0.00256292
0.00257521
0.00256295
0.00256023
0.0025605
0.00257524
0.00257528
0.00256048
0.00256053
0.00257529
0.00257529
0.00256018
0.0025556
0.00255304
0.00254341
0.00254094
0.00255315
0.0025556
0.00254101
0.00255559
0.0025533
0.00254356
0.00254056
0.00255329
0.00255511
0.00254098
0.0025555
0.00254071
0.00255551
0.00254076
0.00255552
0.00254053
0.00255515
0.00254076
0.00257534
0.00256047
0.00257537
0.00256048
0.00255591
0.00253978
0.00253976
0.00255513
0.00255514
0.00254013
0.00255547
0.00254012
0.00255547
0.00253549
0.00252127
0.00253544
0.00252128
0.00253564
0.00253562
0.00252073
0.00252173
0.00252173
0.0025022
0.00251654
0.0025022
0.00251652
0.00251563
0.00250235
0.00250235
0.00251702
0.00251699
0.00252122
0.00253578
0.00253587
0.00252113
0.00252148
0.00253585
0.00253348
0.00252344
0.00253592
0.00252156
0.00252361
0.0025215
0.00253584
0.00253357
0.00252388
0.00253594
0.00252127
0.00252379
0.00251628
0.00250179
0.00251639
0.00250173
0.00251628
0.00250165
0.00251622
0.00250169
0.00251639
0.00251349
0.00250198
0.0025041
0.00251656
0.00251382
0.00250192
0.00251641
0.00251412
0.00250175
0.00250417
0.00251624
0.00251398
0.00250191
0.00253592
0.00253591
0.00252177
0.00252089
0.00252087
0.00253593
0.00252091
0.00250158
0.002516
0.00251668
0.00250173
0.00250172
0.00251599
0.00251597
0.00250159
0.00251598
0.00252139
0.00253582
0.00253354
0.00252343
0.00253599
0.0025215
0.00252363
0.00252111
0.00253571
0.00253579
0.00252101
0.00252141
0.0025336
0.00253583
0.00252381
0.00253601
0.00252379
0.00252113
0.00251617
0.0025018
0.00251638
0.00250168
0.00251627
0.00251346
0.00250196
0.00250405
0.00251652
0.00251379
0.00250179
0.00251619
0.0025015
0.00251608
0.00250164
0.00251629
0.00251404
0.00250415
0.00250158
0.00251396
0.00251609
0.00250178
0.00252122
0.00253572
0.00253584
0.00252111
0.00252144
0.00253367
0.00253564
0.00252371
0.00253589
0.00252369
0.00252142
0.00252119
0.00253568
0.00253582
0.00252128
0.0025164
0.00251412
0.00250175
0.00250414
0.00251622
0.00251398
0.00250194
0.0025163
0.00250166
0.00251621
0.00250169
0.0025164
0.00251346
0.00250398
0.00250203
0.00251377
0.00251655
0.00250197
0.00251628
0.00250178
0.00251639
0.00250169
0.00253589
0.00253589
0.00252172
0.002521
0.00252102
0.00253583
0.00252107
0.00250133
0.00251604
0.00251662
0.00250132
0.00250134
0.00251601
0.00251603
0.00250132
0.00251606
0.00252146
0.00253367
0.00253563
0.00252372
0.00253588
0.0025237
0.00252141
0.00252121
0.00253576
0.00253584
0.00252106
0.00252116
0.00253568
0.00253583
0.00252123
0.00251641
0.00251405
0.00250416
0.00250165
0.00251398
0.00251613
0.00250192
0.00251642
0.00251347
0.00250398
0.00250214
0.00251378
0.00251653
0.00250193
0.00251627
0.00250148
0.00251612
0.00250158
0.00251623
0.0025016
0.00251632
0.00250158
0.00253514
0.00252094
0.00253513
0.00252091
0.00251564
0.00250277
0.00250275
0.00251686
0.00251684
0.00250227
0.00251616
0.00250219
0.00251614
0.00249729
0.00248238
0.00249729
0.0024824
0.00249734
0.00249733
0.00248283
0.00248216
0.00248215
0.00246222
0.00247721
0.00246223
0.00247721
0.00247798
0.00246193
0.00246194
0.00247694
0.00247694
0.00248231
0.00249677
0.0024968
0.00248226
0.00248243
0.00249695
0.00249447
0.00248487
0.00249687
0.00248234
0.00248484
0.00248241
0.00249677
0.00249443
0.00248464
0.00249683
0.00248237
0.00248475
0.00247743
0.00246259
0.00247737
0.00246287
0.00247742
0.00246286
0.0024774
0.00246288
0.0024774
0.00247548
0.00246247
0.0024656
0.00247725
0.00247523
0.00246306
0.00247738
0.00247498
0.00246297
0.00246549
0.0024774
0.00247512
0.00246307
0.00249694
0.00249693
0.0024824
0.00248248
0.0024825
0.00249681
0.00248245
0.00246276
0.00247754
0.00247736
0.00246273
0.00246275
0.00247755
0.00247757
0.00246279
0.00247756
0.0024824
0.00249693
0.00249441
0.00248484
0.00249674
0.00248233
0.00248479
0.00248226
0.00249663
0.00249675
0.00248219
0.00248236
0.00249438
0.00249661
0.0024846
0.00249672
0.00248467
0.00248227
0.0024774
0.00246258
0.00247736
0.00246285
0.00247738
0.00247546
0.00246244
0.00246556
0.00247725
0.00247519
0.00246304
0.00247737
0.00246285
0.00247734
0.00246286
0.00247734
0.00247485
0.00246536
0.00246299
0.00247501
0.00247733
0.00246303
0.00248228
0.00249679
0.00249678
0.00248227
0.00248244
0.00249434
0.00249702
0.00248463
0.00249688
0.00248482
0.00248234
0.0024823
0.00249685
0.0024968
0.00248224
0.00247737
0.00247498
0.00246299
0.0024655
0.00247741
0.0024751
0.00246307
0.0024774
0.00246289
0.00247742
0.00246293
0.00247739
0.00247537
0.00246569
0.00246261
0.00247526
0.00247729
0.00246307
0.00247742
0.00246277
0.00247732
0.00246293
0.0024965
0.00249651
0.00248224
0.0024823
0.00248228
0.00249645
0.00248215
0.0024629
0.00247736
0.00247715
0.00246299
0.00246299
0.00247748
0.00247746
0.00246292
0.00247734
0.00248234
0.00249432
0.002497
0.00248459
0.00249681
0.00248478
0.0024823
0.00248216
0.00249658
0.00249666
0.00248213
0.00248222
0.00249678
0.00249668
0.00248222
0.00247726
0.00247485
0.00246535
0.00246297
0.002475
0.0024773
0.00246297
0.00247729
0.00247533
0.0024656
0.00246258
0.0024752
0.00247724
0.002463
0.0024773
0.00246288
0.0024773
0.00246291
0.00247736
0.00246283
0.00247728
0.00246293
0.00249748
0.00248274
0.00249742
0.00248275
0.00247783
0.00246178
0.0024618
0.00247741
0.0024774
0.0024622
0.00247773
0.00246224
0.00247781
0.0024573
0.00244284
0.0024573
0.00244285
0.00245708
0.00245709
0.00244402
0.00244284
0.00244285
0.00242367
0.00243801
0.00242384
0.00243803
0.0024386
0.00242416
0.00242415
0.00243812
0.00243813
0.00244333
0.00245794
0.00245796
0.0024432
0.00244358
0.0024575
0.0024559
0.00244622
0.00245802
0.00244319
0.00244609
0.0024436
0.00245794
0.00245583
0.00244624
0.00245804
0.00244326
0.0024461
0.00243838
0.00242377
0.00243821
0.00242378
0.00243841
0.00242361
0.00243825
0.0024238
0.00243849
0.00243621
0.00242406
0.00242633
0.00243828
0.00243621
0.00242401
0.00243851
0.0024364
0.00242371
0.00242647
0.00243824
0.0024363
0.00242402
0.00245772
0.00245775
0.00244412
0.00244311
0.00244313
0.00245776
0.00244313
0.00242351
0.00243822
0.00243897
0.00242345
0.00242346
0.00243821
0.00243822
0.00242355
0.00243822
0.00244359
0.00245749
0.00245584
0.00244621
0.002458
0.00244319
0.00244605
0.00244336
0.00245793
0.00245795
0.00244332
0.00244362
0.00245569
0.002458
0.00244595
0.00245801
0.002446
0.00244347
0.00243841
0.00242382
0.00243821
0.00242385
0.00243852
0.0024362
0.00242407
0.00242635
0.00243828
0.0024362
0.00242408
0.00243845
0.00242383
0.00243841
0.00242387
0.00243855
0.00243628
0.00242649
0.00242394
0.00243626
0.00243845
0.0024241
0.00244341
0.00245794
0.00245802
0.0024432
0.00244363
0.00245598
0.00245758
0.00244645
0.00245805
0.00244612
0.00244327
0.00244338
0.00245778
0.00245802
0.00244326
0.00243858
0.00243641
0.00242371
0.00242648
0.00243824
0.00243632
0.00242404
0.00243847
0.00242364
0.00243826
0.00242382
0.00243855
0.00243621
0.00242628
0.0024241
0.0024362
0.00243838
0.00242403
0.00243844
0.00242388
0.00243838
0.00242382
0.00245808
0.00245809
0.00244372
0.00244342
0.00244344
0.00245802
0.00244341
0.00242373
0.00243846
0.00243867
0.00242374
0.00242374
0.00243846
0.00243849
0.00242373
0.00243848
0.00244368
0.0024559
0.00245758
0.00244643
0.002458
0.00244607
0.00244328
0.00244345
0.00245799
0.00245802
0.00244334
0.0024434
0.0024578
0.00245802
0.00244323
0.00243867
0.00243629
0.00242652
0.00242396
0.00243629
0.00243848
0.00242413
0.00243858
0.0024362
0.00242636
0.00242409
0.00243621
0.00243838
0.0024241
0.00243852
0.00242383
0.00243843
0.00242389
0.00243847
0.00242387
0.00243835
0.00242387
0.00245711
0.00244277
0.00245714
0.00244277
0.00243868
0.00242438
0.00242438
0.00243822
0.00243823
0.00242402
0.00243807
0.00242401
0.00243806
0.00241899
0.00240482
0.0024191
0.00240486
0.00241942
0.00241944
0.00240395
0.0024051
0.00240514
0.00238556
0.0024
0.0023856
0.00240003
0.00239907
0.00238557
0.00238562
0.00240022
0.00240024
0.0024044
0.00241872
0.0024189
0.00240427
0.00240459
0.00241911
0.00241651
0.00240648
0.00241895
0.00240482
0.00240678
0.00240458
0.00241875
0.00241666
0.00240693
0.00241896
0.00240439
0.00240688
0.00239956
0.00238526
0.00239972
0.00238519
0.00239953
0.00238515
0.00239943
0.00238515
0.00239958
0.00239697
0.00238539
0.00238759
0.00239979
0.00239714
0.00238533
0.00239956
0.00239709
0.00238534
0.00238749
0.00239948
0.00239715
0.0023853
0.00241854
0.00241855
0.00240452
0.00240424
0.00240422
0.0024186
0.00240414
0.00238527
0.00239938
0.00239933
0.00238552
0.00238548
0.00239952
0.0023995
0.00238522
0.00239935
0.00240467
0.00241914
0.00241655
0.00240652
0.00241902
0.00240478
0.00240684
0.00240449
0.00241893
0.00241898
0.00240441
0.00240467
0.00241672
0.00241895
0.00240707
0.00241904
0.00240698
0.0024045
0.00239964
0.00238531
0.00239976
0.00238525
0.00239965
0.002397
0.00238543
0.00238766
0.00239981
0.00239721
0.00238537
0.00239962
0.00238512
0.00239955
0.00238522
0.00239964
0.00239733
0.00238766
0.00238524
0.00239729
0.00239955
0.00238535
0.00240439
0.00241874
0.00241891
0.00240428
0.00240458
0.00241655
0.00241911
0.00240665
0.00241896
0.0024069
0.00240455
0.00240444
0.00241899
0.00241893
0.00240441
0.00239953
0.00239711
0.00238532
0.00238753
0.00239949
0.00239718
0.00238527
0.00239951
0.00238513
0.00239944
0.0023851
0.00239956
0.00239721
0.00238766
0.00238507
0.00239727
0.00239955
0.0023853
0.00239956
0.00238498
0.0023995
0.00238512
0.00241883
0.00241881
0.00240482
0.00240441
0.0024044
0.0024188
0.00240435
0.00238525
0.00239956
0.00239972
0.00238528
0.00238526
0.00239963
0.00239961
0.00238522
0.00239954
0.00240463
0.0024166
0.00241911
0.00240665
0.00241902
0.00240696
0.00240456
0.00240446
0.00241894
0.00241898
0.00240441
0.0024045
0.00241898
0.00241898
0.00240443
0.00239959
0.00239734
0.00238768
0.00238523
0.00239731
0.00239954
0.00238531
0.00239961
0.00239723
0.00238772
0.00238509
0.00239733
0.00239956
0.00238532
0.00239959
0.00238513
0.00239955
0.00238517
0.00239962
0.00238502
0.00239955
0.00238516
0.00241924
0.00240474
0.00241924
0.00240475
0.0023995
0.00238469
0.00238469
0.00239975
0.00239973
0.00238487
0.00239976
0.00238489
0.0023998
0.0023807
0.00236573
0.0023807
0.00236572
0.00238058
0.00238061
0.00236675
0.00236558
0.00236557
0.00236078
0.00236076
0.00236188
0.00236063
0.0023606
0.00236602
0.00238037
0.00238032
0.00236612
0.00236615
0.00238045
0.00237805
0.00236871
0.00238035
0.00236599
0.00236852
0.00236614
0.00238047
0.00237789
0.00236812
0.00238032
0.00236625
0.00236835
0.00236118
0.0023611
0.00234681
0.00236119
0.00234691
0.00236131
0.00234684
0.00236117
0.00235926
0.00234942
0.00236095
0.00235896
0.00234694
0.00236117
0.00235867
0.00234692
0.00234937
0.0023613
0.00235883
0.00234697
0.00238074
0.00238071
0.00236576
0.00236639
0.00236637
0.00238044
0.00236623
0.00234711
0.00236146
0.00236089
0.00234703
0.00234707
0.00236155
0.00236155
0.00234712
0.00236143
0.00236615
0.00238048
0.00237811
0.00236873
0.00238037
0.002366
0.00236857
0.002366
0.00238032
0.00238037
0.00236592
0.00236613
0.00237807
0.00238031
0.00236847
0.00238036
0.00236851
0.00236601
0.00236115
0.0023611
0.00236116
0.00235928
0.00236094
0.002359
0.00236115
0.00236106
0.00236116
0.00235895
0.00235895
0.00236107
0.00236595
0.00238034
0.00238027
0.00236605
0.0023661
0.00237806
0.0023801
0.00236861
0.00238031
0.00236842
0.00236584
0.00236591
0.0023801
0.00238027
0.00236577
0.00236115
0.00235864
0.00234691
0.0023493
0.00236127
0.00235879
0.00234699
0.00236113
0.00234688
0.00236125
0.00234685
0.00236112
0.0023588
0.00234919
0.00234695
0.00235879
0.00236098
0.00234696
0.00236109
0.00234678
0.00236098
0.0023468
0.00238041
0.00238039
0.00236629
0.00236582
0.00236581
0.00238036
0.00236581
0.00236095
0.0023613
0.00236096
0.00236095
0.00236093
0.0023661
0.00237812
0.00238012
0.00236863
0.00238032
0.00236848
0.00236584
0.00236593
0.0023803
0.00238031
0.00236587
0.00236591
0.00238013
0.0023803
0.00236578
0.00236114
0.00235894
0.0023493
0.00235889
0.00236105
0.00234695
0.00236112
0.00235882
0.00234921
0.00234693
0.00235883
0.00236098
0.00234694
0.00236109
0.00236101
0.00234675
0.00236106
0.00234674
0.00236098
0.00234673
0.00237988
0.00236554
0.00237989
0.00236552
0.00236115
0.0023471
0.00234707
0.00236092
0.0023609
0.00234684
0.0023608
0.00234682
0.00236078
0.00260997
0.00260492
0.00260518
0.00260035
0.00260035
0.00260519
0.00260519
0.00260031
0.00261014
0.002615
0.00261008
0.00261502
0.00261006
0.00261015
0.00261503
0.00261015
0.00261501
0.00261008
0.00261503
0.00261014
0.00261504
0.00261008
0.00260512
0.00260043
0.00260507
0.00260007
0.00260503
0.00260523
0.00260024
0.00260513
0.0026004
0.00260507
0.00260008
0.00260521
0.00260024
0.00260505
0.00261015
0.00261508
0.00261508
0.00261013
0.00261012
0.00261515
0.00256521
0.00256531
0.00256038
0.00256035
0.00256528
0.00256522
0.0025603
0.00257026
0.00257521
0.00257008
0.00257031
0.00257515
0.00257017
0.00257029
0.00257515
0.00257513
0.00257024
0.00257021
0.0025751
0.00256527
0.00256043
0.0025651
0.00256534
0.00256039
0.00257022
0.00256534
0.00256523
0.00256539
0.0025604
0.00256036
0.00256532
0.00256531
0.00256028
0.00257034
0.00257535
0.00257015
0.00257041
0.00257528
0.00257026
0.00257039
0.00257527
0.00257525
0.00257034
0.00257029
0.00257523
0.00256527
0.00256041
0.00256508
0.00256541
0.00256029
0.00257033
0.0025654
0.00256584
0.00255974
0.00255975
0.00256536
0.00256535
0.00256036
0.00257057
0.00257534
0.00257536
0.00257051
0.00257528
0.00257062
0.0025702
0.00257057
0.00257533
0.00257537
0.00257053
0.00257528
0.00257061
0.00257021
0.00257114
0.00257615
0.00257616
0.00257629
0.00257079
0.0025708
0.0025657
0.00255981
0.00256543
0.00256104
0.00256578
0.00256493
0.00256091
0.00256569
0.00255982
0.00256545
0.00256104
0.00256578
0.00256495
0.0025609
0.00252602
0.00252604
0.00252108
0.00252121
0.00252595
0.00252607
0.00252115
0.00253081
0.00253566
0.00253098
0.00253566
0.00253079
0.00253093
0.00253097
0.00253575
0.00253584
0.00253579
0.00253087
0.00253098
0.00252588
0.00252108
0.00252618
0.00252591
0.00252107
0.00253096
0.00252589
0.00252595
0.00252593
0.00252113
0.00252095
0.00252597
0.00252585
0.00252117
0.00253072
0.00253555
0.00253091
0.00253555
0.00253069
0.00253083
0.00253086
0.00253573
0.00253563
0.00253567
0.00253087
0.00253076
0.00252582
0.00252099
0.00252609
0.00252582
0.002521
0.00253091
0.00252594
0.00252507
0.00252281
0.00252281
0.00252621
0.00252622
0.00252151
0.00253005
0.00253562
0.00253492
0.00253028
0.0025351
0.00253038
0.00253054
0.00253005
0.00253562
0.00253492
0.00253027
0.00253508
0.00253038
0.00253055
0.00252923
0.00253352
0.00253352
0.00253316
0.00252978
0.00252979
0.00252499
0.00252177
0.00252574
0.00252031
0.00252525
0.00252612
0.00251995
0.00252499
0.00252179
0.00252573
0.00252031
0.00252525
0.00252613
0.00251995
0.00248709
0.00248713
0.00248228
0.00248233
0.00248711
0.00248714
0.00248226
0.00249208
0.00249699
0.00249207
0.00249687
0.00249217
0.00249196
0.00249203
0.0024968
0.00249684
0.00249679
0.00249198
0.00249203
0.00248719
0.00248241
0.00248718
0.00248728
0.00248237
0.00249204
0.00248721
0.00248707
0.00248711
0.00248232
0.00248225
0.00248715
0.00248708
0.00248223
0.00249209
0.00249699
0.00249209
0.00249688
0.00249218
0.00249196
0.002492
0.00249684
0.00249678
0.00249679
0.00249204
0.00249196
0.00248719
0.00248242
0.00248721
0.00248729
0.00248235
0.00249172
0.00248692
0.00248838
0.00248166
0.00248164
0.00248754
0.00248749
0.0024825
0.00249352
0.00249746
0.00249792
0.00249281
0.00249817
0.00249291
0.00249282
0.00249352
0.00249746
0.0024979
0.00249277
0.00249819
0.0024929
0.00249277
0.00249407
0.00249899
0.00249897
0.00249974
0.00249334
0.0024933
0.00248863
0.00248235
0.00248771
0.00248333
0.0024881
0.0024876
0.00248374
0.00248862
0.00248231
0.00248767
0.00248332
0.00248809
0.00248755
0.00248373
0.00244806
0.00244817
0.00244322
0.00244325
0.00244809
0.0024481
0.00244321
0.00245293
0.00245778
0.00245279
0.00245779
0.00245292
0.00245297
0.00245309
0.00245788
0.00245787
0.00245783
0.00245301
0.00245302
0.00244799
0.00244314
0.00244789
0.002448
0.00244315
0.00245286
0.00244796
0.00244806
0.00244817
0.00244326
0.00244324
0.0024481
0.0024481
0.00244322
0.00245294
0.0024578
0.00245278
0.0024578
0.00245293
0.00245297
0.00245309
0.00245785
0.00245787
0.00245782
0.00245301
0.00245301
0.00244801
0.00244316
0.00244789
0.00244801
0.00244317
0.00245315
0.00244825
0.00244647
0.00244286
0.00244289
0.00244687
0.00244688
0.0024423
0.0024518
0.00245774
0.00245648
0.00245203
0.00245675
0.00245246
0.00245187
0.00245182
0.00245775
0.00245649
0.00245207
0.00245675
0.00245258
0.00245188
0.00245074
0.00245534
0.00245535
0.00245527
0.00245105
0.00245106
0.00244694
0.00244287
0.00244736
0.00244263
0.00244741
0.00244731
0.00244229
0.00244694
0.00244286
0.00244737
0.00244263
0.00244736
0.00244731
0.00244228
0.0024092
0.00240919
0.00240436
0.00240446
0.00240916
0.00240924
0.0024044
0.00241401
0.00241883
0.00241418
0.00241879
0.00241405
0.00241406
0.00241408
0.00241884
0.00241891
0.00241888
0.00241402
0.00241411
0.00240916
0.00240448
0.00240935
0.00240923
0.00240442
0.00241376
0.00240891
0.00240929
0.00240929
0.00240453
0.00240445
0.00240931
0.00240924
0.00240448
0.00241408
0.00241889
0.00241423
0.00241886
0.0024141
0.00241414
0.00241416
0.00241896
0.00241892
0.00241895
0.00241417
0.0024141
0.00240923
0.00240452
0.0024094
0.00240928
0.00240447
0.00241397
0.0024091
0.00241033
0.00240467
0.0024047
0.00240999
0.00240991
0.00240513
0.00241486
0.00241909
0.00241966
0.0024147
0.00241946
0.00241453
0.00241472
0.00241486
0.00241909
0.00241965
0.0024147
0.00241945
0.00241452
0.00241472
0.00241558
0.00242041
0.00242041
0.0024206
0.00241526
0.00241526
0.00241002
0.00240466
0.00240974
0.00240499
0.00240975
0.00240968
0.00240518
0.00241001
0.00240467
0.00240973
0.00240496
0.00240973
0.00240967
0.00240518
0.00237074
0.00237078
0.00236598
0.00236602
0.00237075
0.00237078
0.00236597
0.00237565
0.00238051
0.00237566
0.00238041
0.0023757
0.00237555
0.00237561
0.00238033
0.00238038
0.00238031
0.00237556
0.00237562
0.0023708
0.00236599
0.0023708
0.00237083
0.002366
0.00237578
0.00237098
0.00237076
0.00237078
0.00236602
0.00236596
0.0023708
0.00237075
0.00236597
0.00237566
0.00238052
0.00237569
0.00238044
0.0023757
0.00237559
0.00237563
0.00238042
0.00238037
0.00238037
0.00237565
0.00237558
0.00237079
0.00236596
0.00237083
0.00237082
0.00236598
0.00237558
0.00237068
0.00236952
0.00236555
0.00236548
0.00236977
0.00236976
0.0023651
0.00237503
0.00238047
0.00237951
0.00237495
0.00237997
0.00237544
0.00237481
0.00237501
0.00238047
0.00237952
0.00237494
0.00237997
0.00237544
0.00237482
0.00237409
0.00237879
0.00237879
0.00237889
0.00237421
0.00237421
0.00237005
0.00236559
0.00237019
0.00236554
0.00237039
0.00237014
0.0023653
0.00237007
0.00236558
0.00237018
0.00236553
0.00237039
0.00237015
0.0023653
0.00260502
0.00259964
0.00259964
0.00260477
0.00260477
0.00259989
0.00261016
0.00261505
0.00261009
0.00261488
0.0026098
0.00261507
0.00261017
0.00261016
0.00261503
0.00261001
0.00261486
0.00261014
0.00260986
0.00261506
0.00260517
0.0025999
0.00260499
0.00260026
0.00260485
0.00260031
0.00260517
0.00260516
0.00259989
0.00260498
0.00260026
0.00260516
0.00260483
0.0026003
0.00261013
0.00261498
0.00261497
0.00260987
0.00260988
0.00261518
0.00260992
0.0026049
0.0025849
0.00258993
0.00258965
0.0025945
0.0025945
0.00259468
0.00258961
0.00258962
0.002585
0.00258017
0.00258496
0.00258019
0.00258502
0.00258005
0.00258518
0.002585
0.00258017
0.00258498
0.0025802
0.00258502
0.00258517
0.00258005
0.00259016
0.00259487
0.00259526
0.00258997
0.00259522
0.00258995
0.00259028
0.00259016
0.00259486
0.00259525
0.00258999
0.00259521
0.00258994
0.00259027
0.00258477
0.00258007
0.00258007
0.0025848
0.0025848
0.00257998
0.00258493
0.00258995
0.00260475
0.00259993
0.00259984
0.00260495
0.00260489
0.0026048
0.00259981
0.00260982
0.00260983
0.00261489
0.00260993
0.0026148
0.00260478
0.00259997
0.0026048
0.00260492
0.00259988
0.00260979
0.00260997
0.0026149
0.00261484
0.00260994
0.00260984
0.00261483
0.00260486
0.00259982
0.00260002
0.00260493
0.00260477
0.00260495
0.00259988
0.00260982
0.00260989
0.00261483
0.00260989
0.00261478
0.00260479
0.00259992
0.00260492
0.00260487
0.00259985
0.00260988
0.00260995
0.00261485
0.00261485
0.00260985
0.00260994
0.00261484
0.00258998
0.00259493
0.00259488
0.00259006
0.00259485
0.00259002
0.00258999
0.00258506
0.00258503
0.00258013
0.00258506
0.00258018
0.00259003
0.00259498
0.00258998
0.00259492
0.00259005
0.00258506
0.00258508
0.00258017
0.00258018
0.00258505
0.00258506
0.00258019
0.00259004
0.00259486
0.00259503
0.00259004
0.00259492
0.00258997
0.00259011
0.00258507
0.00258521
0.00258021
0.00258508
0.00258022
0.00259001
0.00259492
0.0025902
0.00259487
0.00258999
0.0025851
0.00258507
0.00258018
0.00258022
0.00258505
0.00258512
0.00258022
0.00260995
0.00260491
0.00260994
0.00260489
0.00259053
0.00259551
0.00259551
0.0025954
0.00259073
0.00259073
0.00258499
0.00258021
0.00258538
0.00258055
0.00258004
0.00258505
0.00258559
0.002585
0.0025802
0.00258537
0.00258055
0.00258005
0.00258559
0.00258504
0.00259018
0.00259552
0.00259501
0.0025903
0.00259518
0.00259003
0.00259061
0.00259018
0.00259551
0.00259501
0.00259028
0.00259518
0.0025906
0.00259003
0.00258579
0.00258132
0.00258133
0.0025812
0.00258604
0.00258604
0.00258514
0.00259003
0.00258516
0.00258997
0.0025702
0.00256518
0.00257027
0.00256521
0.00256492
0.00255905
0.00255906
0.00256453
0.00256453
0.00255956
0.00257036
0.00257533
0.00257488
0.0025702
0.00256985
0.0025705
0.00257522
0.00257039
0.00257533
0.0025749
0.00257028
0.00256976
0.00257052
0.00257522
0.00257017
0.002575
0.00257501
0.00256985
0.00256982
0.00257527
0.00256542
0.00255964
0.0025651
0.00256081
0.0025647
0.00256062
0.00256561
0.00256543
0.00255969
0.00256514
0.00256081
0.00256473
0.00256063
0.00256562
0.00254521
0.00255018
0.00254515
0.00255014
0.00254903
0.00255365
0.00255366
0.00255414
0.00254881
0.00254881
0.00254528
0.00254048
0.00254512
0.0025405
0.00254509
0.00254558
0.00254032
0.00254527
0.00254053
0.0025451
0.0025405
0.00254509
0.0025456
0.00254033
0.0025505
0.00255463
0.00255581
0.00255001
0.00255557
0.00254982
0.00255076
0.0025505
0.00255466
0.00255581
0.00255001
0.00255559
0.00254983
0.00255076
0.00254424
0.00254
0.00253999
0.00254428
0.00254427
0.00253973
0.00256533
0.00256529
0.00256037
0.00256045
0.00256525
0.00256534
0.00256041
0.00257025
0.00257512
0.00257032
0.00257021
0.00257512
0.00257028
0.00257027
0.00257513
0.0025752
0.00257022
0.00257031
0.00257519
0.00256526
0.00256042
0.00256536
0.00256528
0.00256039
0.00255049
0.00255543
0.00255539