/*--------------------------------*- C++ -*----------------------------------*\
| =========                 |                                                 |
| \\      /  F ield         | OpenFOAM: The Open Source CFD Toolbox           |
|  \\    /   O peration     | Version:  v2012                                 |
|   \\  /    A nd           | Website:  www.openfoam.com                      |
|    \\/     M anipulation  |                                                 |
\*---------------------------------------------------------------------------*/
FoamFile
{
    version     2.0;
    format      ascii;
    class       volScalarField;
    location    "850";
    object      epsilon;
}
// * * * * * * * * * * * * * * * * * * * * * * * * * * * * * * * * * * * * * //

dimensions      [0 2 -3 0 0 0 0];


internalField   nonuniform List<scalar> 
171728
(
1.51922e-09
3.38707e-09
4.47802e-09
4.80374e-09
1.48927e-09
3.13001e-09
4.20604e-09
4.74966e-09
1.41156e-09
2.86853e-09
3.89748e-09
4.86338e-09
1.33299e-09
2.63868e-09
3.6022e-09
4.55525e-09
1.25369e-09
2.43731e-09
3.33882e-09
3.80935e-09
1.18338e-09
2.26838e-09
3.11102e-09
3.38392e-09
1.11993e-09
2.13325e-09
2.91099e-09
2.94849e-09
1.06356e-09
2.02997e-09
2.74032e-09
2.65437e-09
1.01561e-09
1.95718e-09
2.5963e-09
2.47473e-09
9.79447e-10
1.91576e-09
2.48643e-09
2.37145e-09
9.47936e-10
1.90879e-09
2.42551e-09
2.30327e-09
9.19317e-10
1.93417e-09
2.41787e-09
2.2677e-09
8.92996e-10
2.00469e-09
2.45581e-09
2.2725e-09
8.68219e-10
2.12181e-09
2.54357e-09
2.32623e-09
8.45539e-10
2.34102e-09
2.70586e-09
2.48732e-09
8.24297e-10
2.64676e-09
2.98144e-09
2.71781e-09
8.04925e-10
3.11803e-09
3.42925e-09
3.11888e-09
7.88175e-10
3.85504e-09
4.12625e-09
3.86399e-09
7.76171e-10
4.96395e-09
5.22449e-09
5.19042e-09
7.67395e-10
6.65713e-09
6.85735e-09
7.47439e-09
7.65941e-10
8.97795e-09
9.29384e-09
1.12769e-08
7.74383e-10
1.25897e-08
1.28082e-08
1.81426e-08
7.9192e-10
1.73805e-08
1.79012e-08
2.93132e-08
8.32083e-10
2.38364e-08
2.48762e-08
4.69665e-08
9.02293e-10
3.32505e-08
3.40187e-08
7.33623e-08
1.00771e-09
4.39011e-08
4.59585e-08
1.0674e-07
1.21342e-09
5.88746e-08
6.16814e-08
1.65688e-07
1.46482e-09
7.39287e-08
7.91998e-08
2.22093e-07
1.8751e-09
9.58597e-08
1.01288e-07
2.80374e-07
2.49462e-09
1.18073e-07
1.1946e-07
3.61226e-07
3.32372e-09
1.42601e-07
1.45545e-07
4.47792e-07
4.02179e-09
1.72491e-07
1.75642e-07
5.15329e-07
5.38994e-09
2.06541e-07
2.07092e-07
5.90049e-07
7.13298e-09
2.40241e-07
2.41016e-07
6.49745e-07
9.22675e-09
2.78085e-07
2.79319e-07
7.07158e-07
1.22293e-08
3.20237e-07
3.19293e-07
7.5712e-07
1.56534e-08
3.6237e-07
3.64761e-07
8.04875e-07
2.07032e-08
4.10934e-07
4.09242e-07
8.40226e-07
2.56978e-08
4.51664e-07
4.53932e-07
8.7905e-07
3.32417e-08
5.0638e-07
5.04562e-07
9.17014e-07
4.48073e-08
5.48625e-07
5.53417e-07
9.42506e-07
5.2621e-08
6.01397e-07
6.00685e-07
9.83027e-07
6.28812e-08
6.48664e-07
6.49233e-07
1.01002e-06
7.63638e-08
6.92196e-07
6.95403e-07
1.03047e-06
9.23853e-08
7.5196e-07
7.43583e-07
1.06553e-06
1.11347e-07
7.87145e-07
7.87042e-07
1.09354e-06
1.26865e-07
8.17012e-07
8.2772e-07
1.11632e-06
1.50035e-07
8.68846e-07
8.63038e-07
1.14517e-06
1.72376e-07
9.04681e-07
9.0843e-07
1.17294e-06
2.00768e-07
9.38687e-07
9.38825e-07
1.19505e-06
2.25655e-07
9.70221e-07
9.68088e-07
1.21456e-06
2.5484e-07
1.00034e-06
1.00567e-06
1.24031e-06
2.88163e-07
1.0274e-06
1.02628e-06
1.26471e-06
3.14701e-07
1.05538e-06
1.05048e-06
1.27725e-06
3.4926e-07
1.07264e-06
1.07735e-06
1.29327e-06
3.80232e-07
1.09942e-06
1.09505e-06
1.32208e-06
4.11776e-07
1.1213e-06
1.11939e-06
1.33506e-06
4.4495e-07
1.13963e-06
1.14186e-06
1.34328e-06
4.69363e-07
1.15348e-06
1.15451e-06
1.36598e-06
5.03109e-07
1.17521e-06
1.1778e-06
1.38785e-06
5.32001e-07
1.19421e-06
1.19146e-06
1.38754e-06
5.47926e-07
1.19948e-06
1.19884e-06
1.39598e-06
5.7724e-07
1.22169e-06
1.22054e-06
1.42836e-06
6.0815e-07
1.2351e-06
1.2363e-06
1.43744e-06
6.21382e-07
1.23866e-06
1.24419e-06
1.42811e-06
6.30034e-07
1.25311e-06
1.24858e-06
1.45256e-06
6.59908e-07
1.26611e-06
1.26067e-06
1.47642e-06
6.86964e-07
1.27764e-06
1.28359e-06
1.46199e-06
6.94295e-07
1.28073e-06
1.28549e-06
1.46119e-06
6.99023e-07
1.28006e-06
1.28043e-06
1.4938e-06
7.17962e-07
1.30183e-06
1.29333e-06
1.50137e-06
7.38679e-07
1.30661e-06
1.30732e-06
1.4902e-06
7.51196e-07
1.29775e-06
1.3045e-06
1.49649e-06
7.5756e-07
1.30881e-06
1.30225e-06
1.50865e-06
7.67705e-07
1.32079e-06
1.31745e-06
1.51656e-06
7.79391e-07
1.31898e-06
1.3212e-06
1.52025e-06
7.82212e-07
1.31449e-06
1.31145e-06
1.51492e-06
7.89284e-07
1.31238e-06
1.3135e-06
1.52114e-06
8.03949e-07
1.32905e-06
1.33026e-06
1.53206e-06
8.08848e-07
1.32926e-06
1.32654e-06
1.52081e-06
8.05009e-07
1.31122e-06
1.31196e-06
1.51458e-06
8.06317e-07
1.31974e-06
1.32169e-06
1.53806e-06
8.16591e-07
1.33011e-06
1.3303e-06
1.54402e-06
8.17308e-07
1.31266e-06
1.31424e-06
1.52223e-06
8.07463e-07
1.30101e-06
1.30329e-06
1.50795e-06
8.06018e-07
1.31684e-06
1.31257e-06
1.52058e-06
8.17622e-07
1.32813e-06
1.31959e-06
1.54609e-06
8.15734e-07
1.3048e-06
1.30395e-06
1.53723e-06
7.97627e-07
1.27715e-06
1.28707e-06
1.49545e-06
7.92958e-07
1.27878e-06
1.28994e-06
1.49224e-06
8.03113e-07
1.30435e-06
1.29875e-06
1.53266e-06
8.07587e-07
1.31019e-06
1.29252e-06
1.53356e-06
7.90425e-07
1.2601e-06
1.25729e-06
1.46822e-06
7.63645e-07
1.22933e-06
1.23954e-06
1.449e-06
7.51392e-07
1.21393e-06
1.22127e-06
1.48973e-06
5.18218e-09
4.03512e-09
3.8099e-09
4.94245e-09
4.30242e-09
3.19614e-09
1.475e-09
1.15132e-09
1.35757e-09
1.89378e-09
3.6961e-09
4.08256e-09
5.25181e-09
4.05809e-09
8.73208e-09
4.87316e-09
5.14448e-09
4.72956e-09
4.69987e-09
3.31161e-09
4.41145e-09
3.14094e-09
4.91957e-09
4.42858e-09
7.70732e-09
1.34159e-08
7.35834e-09
7.33517e-09
4.78522e-09
3.2003e-09
4.49882e-09
5.20332e-09
4.76221e-09
1.64337e-08
4.28427e-09
1.70055e-08
4.78994e-09
4.66269e-09
4.32447e-09
4.30125e-09
3.07105e-09
3.99293e-09
2.87271e-09
4.40101e-09
3.96742e-09
7.22636e-09
5.97385e-09
6.90297e-09
3.72166e-09
4.39325e-09
2.93059e-09
4.09961e-09
4.7161e-09
4.2114e-09
1.70764e-08
3.97436e-09
1.70651e-08
4.9203e-09
4.27472e-09
3.98336e-09
3.89708e-09
2.80958e-09
3.62895e-09
2.63129e-09
3.94583e-09
3.58425e-09
6.80951e-09
3.37266e-09
6.37124e-09
2.82907e-09
4.00932e-09
2.69327e-09
3.75722e-09
4.1802e-09
3.78311e-09
1.69301e-08
3.67342e-09
1.45592e-08
4.71425e-09
3.95061e-09
3.67575e-09
3.54613e-09
2.57627e-09
3.315e-09
2.42367e-09
3.56788e-09
3.27055e-09
6.15749e-09
2.72953e-09
5.40779e-09
2.523e-09
3.67668e-09
2.48465e-09
3.45136e-09
3.76211e-09
3.44628e-09
1.32104e-08
3.40178e-09
8.89928e-09
3.87675e-09
3.65026e-09
3.39332e-09
3.24396e-09
2.37735e-09
3.04998e-09
2.25012e-09
3.25801e-09
2.99338e-09
5.14617e-09
2.46732e-09
4.41625e-09
2.32447e-09
3.38166e-09
2.30765e-09
3.18782e-09
3.4291e-09
3.15954e-09
7.72661e-09
3.16481e-09
5.3778e-09
3.42335e-09
3.37228e-09
3.11789e-09
2.99221e-09
2.21147e-09
2.83271e-09
2.1093e-09
2.98324e-09
2.74851e-09
4.20343e-09
2.28354e-09
3.6509e-09
2.17888e-09
3.12694e-09
2.16375e-09
2.95961e-09
3.14656e-09
2.91856e-09
4.88399e-09
2.95812e-09
3.81765e-09
2.97919e-09
3.0985e-09
2.85282e-09
2.78321e-09
2.08004e-09
2.64818e-09
2.00286e-09
2.74185e-09
2.54536e-09
3.49682e-09
2.14829e-09
3.07398e-09
2.06962e-09
2.90936e-09
2.05295e-09
2.77613e-09
2.90873e-09
2.71395e-09
3.52452e-09
2.78058e-09
2.80918e-09
2.66801e-09
2.83792e-09
2.6344e-09
2.60817e-09
1.98166e-09
2.50858e-09
1.92825e-09
2.54227e-09
2.38265e-09
2.95279e-09
2.04743e-09
2.6473e-09
1.99251e-09
2.73635e-09
1.97235e-09
2.63701e-09
2.70736e-09
2.54368e-09
2.65441e-09
2.62868e-09
2.36345e-09
2.48074e-09
2.62475e-09
2.46535e-09
2.48289e-09
1.91573e-09
2.41756e-09
1.88754e-09
2.38289e-09
2.2597e-09
2.55029e-09
1.97871e-09
2.37412e-09
1.9481e-09
2.60985e-09
1.92388e-09
2.54314e-09
2.54069e-09
2.40812e-09
2.2957e-09
2.51065e-09
2.15799e-09
2.3703e-09
2.46361e-09
2.35232e-09
2.40057e-09
1.88346e-09
2.3658e-09
1.88094e-09
2.26283e-09
2.1721e-09
2.35813e-09
1.94299e-09
2.32739e-09
1.93762e-09
2.52437e-09
1.90759e-09
2.48457e-09
2.40886e-09
2.30801e-09
2.13607e-09
2.43577e-09
2.11475e-09
2.29879e-09
2.35513e-09
2.30187e-09
2.36074e-09
1.88374e-09
2.35983e-09
1.90643e-09
2.17839e-09
2.1202e-09
2.30859e-09
1.93975e-09
2.28064e-09
1.96125e-09
2.4755e-09
1.92625e-09
2.46161e-09
2.31235e-09
2.24757e-09
2.11622e-09
2.41577e-09
2.14139e-09
2.25694e-09
2.31119e-09
2.28455e-09
2.36394e-09
1.91786e-09
2.39253e-09
1.97321e-09
2.13275e-09
2.10765e-09
2.28121e-09
1.9727e-09
2.31403e-09
2.02579e-09
2.46282e-09
1.9866e-09
2.48425e-09
2.25793e-09
2.22929e-09
2.15355e-09
2.44176e-09
2.20561e-09
2.25273e-09
2.30301e-09
2.32086e-09
2.40683e-09
1.99672e-09
2.47073e-09
2.08545e-09
2.12894e-09
2.14248e-09
2.33284e-09
2.04928e-09
2.41456e-09
2.14124e-09
2.49671e-09
2.09251e-09
2.55929e-09
2.24892e-09
2.26202e-09
2.2277e-09
2.51577e-09
2.32813e-09
2.29266e-09
2.35293e-09
2.42207e-09
2.50074e-09
2.12484e-09
2.61898e-09
2.28139e-09
2.17598e-09
2.25344e-09
2.45158e-09
2.17951e-09
2.598e-09
2.32227e-09
2.59353e-09
2.28376e-09
2.72317e-09
2.29435e-09
2.35954e-09
2.37292e-09
2.65579e-09
2.51901e-09
2.42645e-09
2.47678e-09
2.62368e-09
2.67031e-09
2.34218e-09
2.86834e-09
2.56338e-09
2.3134e-09
2.45006e-09
2.65899e-09
2.38232e-09
2.8914e-09
2.61176e-09
2.77464e-09
2.56572e-09
2.98339e-09
2.41336e-09
2.55906e-09
2.57599e-09
2.90106e-09
2.79807e-09
2.62699e-09
2.71558e-09
2.98381e-09
2.95358e-09
2.65778e-09
3.28296e-09
3.00866e-09
2.53705e-09
2.7942e-09
2.98618e-09
2.70457e-09
3.3367e-09
3.04762e-09
3.06901e-09
2.98585e-09
3.39257e-09
2.65063e-09
2.91147e-09
2.89138e-09
3.29893e-09
3.23042e-09
2.97163e-09
3.13501e-09
3.61623e-09
3.41909e-09
3.15099e-09
3.92953e-09
3.68373e-09
2.94669e-09
3.43649e-09
3.48255e-09
3.18466e-09
4.02637e-09
3.70907e-09
3.52815e-09
3.64167e-09
4.04479e-09
3.05945e-09
3.52818e-09
3.3672e-09
3.9248e-09
3.90016e-09
3.61207e-09
3.86702e-09
4.73021e-09
4.13778e-09
3.90512e-09
4.89752e-09
4.68998e-09
3.69326e-09
4.57997e-09
4.2477e-09
3.91875e-09
5.07355e-09
4.72338e-09
4.25479e-09
4.64264e-09
5.05097e-09
3.77377e-09
4.62505e-09
4.11501e-09
4.90622e-09
4.9362e-09
4.76381e-09
5.15042e-09
6.68505e-09
5.21122e-09
5.01251e-09
6.37276e-09
6.24732e-09
5.00749e-09
6.62648e-09
5.40519e-09
5.04978e-09
6.60857e-09
6.23886e-09
5.37397e-09
6.18153e-09
6.58551e-09
5.04589e-09
6.56409e-09
5.2688e-09
6.3769e-09
6.46311e-09
6.75645e-09
7.38832e-09
1.00629e-08
6.84305e-09
6.73718e-09
8.54401e-09
8.44766e-09
7.31797e-09
1.00408e-08
7.09759e-09
6.72625e-09
8.84139e-09
8.48897e-09
7.07708e-09
8.34377e-09
8.75064e-09
7.27785e-09
9.95018e-09
6.95491e-09
8.60161e-09
8.70168e-09
1.01786e-08
1.1203e-08
1.58311e-08
9.24844e-09
9.09864e-09
1.17042e-08
1.17543e-08
1.12017e-08
1.57756e-08
9.55009e-09
9.19478e-09
1.19886e-08
1.16958e-08
9.43758e-09
1.15895e-08
1.21349e-08
1.1099e-08
1.58626e-08
9.38082e-09
1.17747e-08
1.20646e-08
1.62253e-08
1.76813e-08
2.59898e-08
1.27176e-08
1.27497e-08
1.63775e-08
1.6046e-08
1.76277e-08
2.59841e-08
1.30187e-08
1.27143e-08
1.66514e-08
1.63492e-08
1.30161e-08
1.59102e-08
1.66716e-08
1.77202e-08
2.60609e-08
1.2961e-08
1.65255e-08
1.666e-08
2.62859e-08
2.89112e-08
4.13551e-08
1.76819e-08
1.75278e-08
2.24298e-08
2.23754e-08
2.90085e-08
4.16029e-08
1.79133e-08
1.76816e-08
2.25454e-08
2.27012e-08
1.82375e-08
2.21543e-08
2.26079e-08
2.89569e-08
4.22623e-08
1.81856e-08
2.30119e-08
2.2568e-08
4.25068e-08
4.54226e-08
6.53633e-08
2.43295e-08
2.40719e-08
3.08262e-08
3.1027e-08
4.60309e-08
6.71001e-08
2.43981e-08
2.45306e-08
3.06799e-08
3.05519e-08
2.4575e-08
3.07613e-08
3.15107e-08
4.65565e-08
6.54374e-08
2.45913e-08
3.1183e-08
3.16045e-08
6.75969e-08
7.18571e-08
1.01399e-07
3.34181e-08
3.35217e-08
4.22358e-08
4.09441e-08
7.31339e-08
1.00833e-07
3.32524e-08
3.32179e-08
4.17594e-08
4.1516e-08
3.34526e-08
4.06265e-08
4.08923e-08
7.15188e-08
1.01137e-07
3.36037e-08
4.27863e-08
4.12628e-08
9.88732e-08
1.09544e-07
1.47137e-07
4.51596e-08
4.42664e-08
5.57806e-08
5.56276e-08
1.09086e-07
1.48738e-07
4.46292e-08
4.45242e-08
5.50163e-08
5.57433e-08
4.44384e-08
5.52398e-08
5.64081e-08
1.10001e-07
1.48916e-07
4.48334e-08
5.79176e-08
5.67105e-08
1.52439e-07
1.58028e-07
2.0595e-07
5.99834e-08
5.9276e-08
7.20901e-08
7.03326e-08
1.601e-07
2.06088e-07
5.89826e-08
5.9315e-08
7.07744e-08
7.07729e-08
6.04994e-08
6.99387e-08
7.18574e-08
1.59905e-07
2.06858e-07
6.07421e-08
7.39653e-08
7.22808e-08
2.13306e-07
2.18899e-07
2.74803e-07
7.6833e-08
7.43778e-08
9.29269e-08
9.05192e-08
2.16843e-07
2.71381e-07
7.53047e-08
7.58228e-08
9.06069e-08
9.20245e-08
7.56908e-08
8.9865e-08
8.89927e-08
2.19295e-07
2.81573e-07
7.61429e-08
9.61709e-08
8.9366e-08
2.66412e-07
2.8933e-07
3.5042e-07
9.79884e-08
9.65213e-08
1.1589e-07
1.13127e-07
2.88616e-07
3.58192e-07
9.54198e-08
9.69966e-08
1.11517e-07
1.11662e-07
9.39069e-08
1.12553e-07
1.11504e-07
2.97167e-07
3.49917e-07
9.43519e-08
1.14733e-07
1.12222e-07
3.44162e-07
3.66478e-07
4.39215e-07
1.23415e-07
1.187e-07
1.47729e-07
1.37036e-07
3.72239e-07
4.23106e-07
1.18398e-07
1.17302e-07
1.40851e-07
1.37593e-07
1.18361e-07
1.36068e-07
1.39119e-07
3.62118e-07
4.24121e-07
1.19024e-07
1.38168e-07
1.39067e-07
4.31589e-07
4.55319e-07
4.986e-07
1.54674e-07
1.43659e-07
1.6887e-07
1.6538e-07
4.38563e-07
5.00541e-07
1.47327e-07
1.45053e-07
1.64525e-07
1.67059e-07
1.45455e-07
1.64531e-07
1.64619e-07
4.42441e-07
5.07004e-07
1.4532e-07
1.68291e-07
1.64996e-07
5.00485e-07
5.10202e-07
5.69052e-07
1.74131e-07
1.73203e-07
1.98386e-07
1.98391e-07
5.16889e-07
5.74336e-07
1.71163e-07
1.74282e-07
1.97078e-07
1.98072e-07
1.72349e-07
1.97958e-07
1.99337e-07
5.21805e-07
5.72543e-07
1.72793e-07
1.98634e-07
1.99555e-07
5.74268e-07
5.87472e-07
6.43653e-07
2.07997e-07
2.07025e-07
2.37315e-07
2.32579e-07
5.89632e-07
6.36747e-07
2.07024e-07
2.06974e-07
2.34795e-07
2.33047e-07
2.08076e-07
2.31503e-07
2.31603e-07
5.87584e-07
6.37364e-07
2.0829e-07
2.32628e-07
2.31992e-07
6.36486e-07
6.56954e-07
6.93834e-07
2.4669e-07
2.41555e-07
2.73266e-07
2.69446e-07
6.49944e-07
6.91699e-07
2.43294e-07
2.41654e-07
2.70288e-07
2.70426e-07
2.4016e-07
2.68249e-07
2.7062e-07
6.51145e-07
6.9361e-07
2.40519e-07
2.6913e-07
2.70546e-07
6.93871e-07
7.06833e-07
7.46674e-07
2.82437e-07
2.78953e-07
3.12629e-07
3.10349e-07
7.05006e-07
7.44384e-07
2.80008e-07
2.80563e-07
3.1184e-07
3.10001e-07
2.80712e-07
3.097e-07
3.09741e-07
7.06765e-07
7.44595e-07
2.80578e-07
3.09098e-07
3.09888e-07
7.44795e-07
7.58448e-07
7.91492e-07
3.22942e-07
3.21131e-07
3.52871e-07
3.52069e-07
7.56606e-07
7.90119e-07
3.22767e-07
3.202e-07
3.54282e-07
3.5366e-07
3.20023e-07
3.51012e-07
3.54125e-07
7.56731e-07
7.92185e-07
3.20239e-07
3.53047e-07
3.54155e-07
7.93518e-07
8.03167e-07
8.34506e-07
3.6324e-07
3.6311e-07
3.99815e-07
3.99807e-07
8.01487e-07
8.32684e-07
3.64764e-07
3.65139e-07
4.00663e-07
3.997e-07
3.66323e-07
3.99626e-07
3.99384e-07
8.03506e-07
8.33052e-07
3.66215e-07
3.98299e-07
3.98992e-07
8.31583e-07
8.4429e-07
8.66646e-07
4.12429e-07
4.11221e-07
4.43036e-07
4.41198e-07
8.4269e-07
8.67765e-07
4.13468e-07
4.10623e-07
4.4508e-07
4.433e-07
4.08613e-07
4.40648e-07
4.39066e-07
8.4303e-07
8.69235e-07
4.08224e-07
4.42285e-07
4.38827e-07
8.67539e-07
8.75858e-07
9.05385e-07
4.52324e-07
4.52145e-07
4.89776e-07
4.929e-07
8.7744e-07
9.0542e-07
4.54325e-07
4.54762e-07
4.91531e-07
4.91867e-07
4.52028e-07
4.92785e-07
4.96828e-07
8.78933e-07
9.05413e-07
4.5187e-07
4.91829e-07
4.96746e-07
9.08727e-07
9.16039e-07
9.43478e-07
5.05165e-07
5.06671e-07
5.47807e-07
5.40725e-07
9.14958e-07
9.36708e-07
5.07596e-07
5.05478e-07
5.55989e-07
5.45289e-07
5.09925e-07
5.38767e-07
5.38386e-07
9.1485e-07
9.39911e-07
5.09756e-07
5.41304e-07
5.38315e-07
9.34073e-07
9.51736e-07
9.69888e-07
5.59067e-07
5.50508e-07
5.88357e-07
5.85608e-07
9.44387e-07
9.67492e-07
5.69013e-07
5.56968e-07
5.96372e-07
5.90197e-07
5.48161e-07
5.8663e-07
5.89651e-07
9.48558e-07
9.69723e-07
5.48199e-07
5.89141e-07
5.89777e-07
9.7308e-07
9.77257e-07
9.97741e-07
5.99571e-07
5.99846e-07
6.37045e-07
6.40206e-07
9.76793e-07
1.00086e-06
6.04717e-07
6.01631e-07
6.34047e-07
6.37337e-07
6.05721e-07
6.39376e-07
6.46218e-07
9.77558e-07
9.99353e-07
6.05579e-07
6.3683e-07
6.44464e-07
1.00441e-06
1.00557e-06
1.02736e-06
6.49012e-07
6.51103e-07
6.82907e-07
6.81095e-07
1.00789e-06
1.0247e-06
6.45711e-07
6.49934e-07
6.84411e-07
6.86747e-07
6.55237e-07
6.78787e-07
6.79528e-07
1.00747e-06
1.02898e-06
6.53344e-07
6.84342e-07
6.78603e-07
1.0231e-06
1.0352e-06
1.05824e-06
6.94464e-07
6.92312e-07
7.30434e-07
7.30704e-07
1.03252e-06
1.06025e-06
6.97164e-07
6.97793e-07
7.34431e-07
7.32077e-07
6.89966e-07
7.37534e-07
7.29715e-07
1.03642e-06
1.05791e-06
6.88994e-07
7.30973e-07
7.27367e-07
1.05678e-06
1.0662e-06
1.08722e-06
7.42858e-07
7.44247e-07
7.78357e-07
7.79597e-07
1.06897e-06
1.08814e-06
7.46762e-07
7.4526e-07
7.80393e-07
7.8144e-07
7.43981e-07
7.81568e-07
7.79503e-07
1.06576e-06
1.08759e-06
7.4155e-07
7.77047e-07
7.77683e-07
1.08741e-06
1.09373e-06
1.11045e-06
7.88253e-07
7.88175e-07
8.15457e-07
8.11604e-07
1.09316e-06
1.10543e-06
7.89555e-07
7.90426e-07
8.15488e-07
8.17234e-07
7.88343e-07
8.06153e-07
8.15231e-07
1.09437e-06
1.11097e-06
7.87284e-07
8.18042e-07
8.16542e-07
1.10971e-06
1.11696e-06
1.13767e-06
8.25577e-07
8.21988e-07
8.58164e-07
8.58957e-07
1.1121e-06
1.13773e-06
8.25716e-07
8.27342e-07
8.58562e-07
8.57045e-07
8.25274e-07
8.57067e-07
8.57849e-07
1.11699e-06
1.13554e-06
8.26855e-07
8.536e-07
8.56635e-07
1.13785e-06
1.14458e-06
1.16353e-06
8.6818e-07
8.699e-07
8.95397e-07
8.95443e-07
1.14541e-06
1.16461e-06
8.6805e-07
8.67163e-07
8.94538e-07
8.98091e-07
8.68987e-07
8.96295e-07
9.00584e-07
1.14273e-06
1.16426e-06
8.66477e-07
8.96925e-07
8.98419e-07
1.16642e-06
1.16982e-06
1.18878e-06
9.04716e-07
9.03897e-07
9.33135e-07
9.30954e-07
1.17024e-06
1.18711e-06
9.0455e-07
9.07719e-07
9.33774e-07
9.31144e-07
9.09626e-07
9.30896e-07
9.3288e-07
1.17073e-06
1.18674e-06
9.0855e-07
9.33415e-07
9.32498e-07
1.1897e-06
1.19487e-06
1.20998e-06
9.41524e-07
9.39097e-07
9.6243e-07
9.62113e-07
1.19322e-06
1.21052e-06
9.41355e-07
9.37627e-07
9.60947e-07
9.59252e-07
9.40714e-07
9.61658e-07
9.64277e-07
1.19199e-06
1.20851e-06
9.39475e-07
9.58828e-07
9.61089e-07
1.20894e-06
1.21535e-06
1.23425e-06
9.69501e-07
9.70497e-07
9.94936e-07
9.94798e-07
1.21635e-06
1.23343e-06
9.68423e-07
9.68006e-07
9.95248e-07
9.97416e-07
9.71187e-07
9.94143e-07
9.92554e-07
1.21518e-06
1.23589e-06
9.6831e-07
9.97328e-07
9.92397e-07
1.23357e-06
1.24064e-06
1.25608e-06
1.00353e-06
1.00122e-06
1.02275e-06
1.01937e-06
1.23905e-06
1.2533e-06
1.00411e-06
1.00663e-06
1.02394e-06
1.02625e-06
1.00112e-06
1.01949e-06
1.02808e-06
1.24211e-06
1.2569e-06
1.0016e-06
1.02186e-06
1.02805e-06
1.25932e-06
1.2606e-06
1.27296e-06
1.02777e-06
1.02656e-06
1.0467e-06
1.04914e-06
1.25872e-06
1.27533e-06
1.02875e-06
1.03101e-06
1.04571e-06
1.0461e-06
1.03569e-06
1.04995e-06
1.04872e-06
1.26136e-06
1.27255e-06
1.0349e-06
1.04389e-06
1.04643e-06
1.27416e-06
1.27855e-06
1.29444e-06
1.05412e-06
1.05543e-06
1.073e-06
1.06996e-06
1.28066e-06
1.29173e-06
1.05289e-06
1.05176e-06
1.07345e-06
1.0714e-06
1.05089e-06
1.06784e-06
1.06348e-06
1.27771e-06
1.29351e-06
1.04912e-06
1.07091e-06
1.06576e-06
1.28694e-06
1.29946e-06
1.31072e-06
1.07786e-06
1.07461e-06
1.09272e-06
1.09159e-06
1.2959e-06
1.30953e-06
1.07873e-06
1.07773e-06
1.09255e-06
1.09193e-06
1.07134e-06
1.09212e-06
1.09763e-06
1.29894e-06
1.31054e-06
1.07462e-06
1.09108e-06
1.10039e-06
1.31592e-06
1.31541e-06
1.32942e-06
1.09834e-06
1.09803e-06
1.11561e-06
1.1153e-06
1.31517e-06
1.32995e-06
1.09781e-06
1.09638e-06
1.11643e-06
1.1151e-06
1.10485e-06
1.11707e-06
1.11823e-06
1.31482e-06
1.32817e-06
1.10674e-06
1.11221e-06
1.11738e-06
1.33241e-06
1.33447e-06
1.34442e-06
1.12097e-06
1.1201e-06
1.13413e-06
1.13521e-06
1.33456e-06
1.34516e-06
1.12255e-06
1.12247e-06
1.13537e-06
1.14005e-06
1.12067e-06
1.13472e-06
1.12943e-06
1.33406e-06
1.34864e-06
1.11979e-06
1.13807e-06
1.12884e-06
1.33941e-06
1.34792e-06
1.3578e-06
1.1377e-06
1.14041e-06
1.15086e-06
1.15163e-06
1.34946e-06
1.3586e-06
1.13801e-06
1.14316e-06
1.14958e-06
1.14975e-06
1.13353e-06
1.15064e-06
1.15156e-06
1.35264e-06
1.35857e-06
1.13281e-06
1.15019e-06
1.1507e-06
1.35911e-06
1.36334e-06
1.37889e-06
1.15673e-06
1.15387e-06
1.17431e-06
1.16782e-06
1.36226e-06
1.37312e-06
1.15571e-06
1.15394e-06
1.17407e-06
1.17173e-06
1.15892e-06
1.16852e-06
1.17752e-06
1.36276e-06
1.37726e-06
1.15824e-06
1.17222e-06
1.17777e-06
1.38377e-06
1.38331e-06
1.38631e-06
1.17871e-06
1.17456e-06
1.18542e-06
1.19107e-06
1.37876e-06
1.39224e-06
1.17848e-06
1.17734e-06
1.18497e-06
1.18937e-06
1.18118e-06
1.19126e-06
1.18539e-06
1.38226e-06
1.39078e-06
1.18156e-06
1.18969e-06
1.18568e-06
1.38631e-06
1.38795e-06
1.39457e-06
1.18668e-06
1.1943e-06
1.19553e-06
1.19807e-06
1.39584e-06
1.39817e-06
1.18616e-06
1.19122e-06
1.19427e-06
1.1964e-06
1.18579e-06
1.19764e-06
1.1922e-06
1.39306e-06
1.39652e-06
1.18588e-06
1.19563e-06
1.18985e-06
1.39004e-06
1.4e-06
1.4183e-06
1.20085e-06
1.19982e-06
1.21841e-06
1.21583e-06
1.40168e-06
1.41546e-06
1.1994e-06
1.20014e-06
1.21844e-06
1.21667e-06
1.19914e-06
1.21629e-06
1.22259e-06
1.40054e-06
1.41495e-06
1.19563e-06
1.21495e-06
1.21929e-06
1.42177e-06
1.42405e-06
1.43498e-06
1.22335e-06
1.22112e-06
1.23512e-06
1.23269e-06
1.42054e-06
1.42992e-06
1.22457e-06
1.22203e-06
1.2368e-06
1.23402e-06
1.22859e-06
1.23325e-06
1.23729e-06
1.42015e-06
1.43092e-06
1.22619e-06
1.23352e-06
1.2377e-06
1.43632e-06
1.43762e-06
1.4332e-06
1.23753e-06
1.23494e-06
1.2403e-06
1.23931e-06
1.43243e-06
1.43356e-06
1.23823e-06
1.23647e-06
1.23732e-06
1.24212e-06
1.23703e-06
1.23743e-06
1.23277e-06
1.43409e-06
1.43796e-06
1.23817e-06
1.24232e-06
1.23535e-06
1.42677e-06
1.43429e-06
1.43257e-06
1.24028e-06
1.24102e-06
1.24056e-06
1.24918e-06
1.43622e-06
1.44382e-06
1.2363e-06
1.24366e-06
1.23775e-06
1.24603e-06
1.23271e-06
1.24886e-06
1.24749e-06
1.44047e-06
1.44105e-06
1.23531e-06
1.24798e-06
1.24905e-06
1.44411e-06
1.43715e-06
1.45954e-06
1.24297e-06
1.25212e-06
1.26388e-06
1.25968e-06
1.44796e-06
1.45726e-06
1.24321e-06
1.24637e-06
1.26362e-06
1.25176e-06
1.25659e-06
1.26328e-06
1.27453e-06
1.44269e-06
1.4475e-06
1.2572e-06
1.25467e-06
1.27273e-06
1.47318e-06
1.46649e-06
1.48121e-06
1.27044e-06
1.2632e-06
1.28315e-06
1.27716e-06
1.46103e-06
1.47036e-06
1.26969e-06
1.25873e-06
1.28246e-06
1.28159e-06
1.27669e-06
1.27512e-06
1.27e-06
1.45329e-06
1.47623e-06
1.27448e-06
1.27933e-06
1.269e-06
1.46167e-06
1.48379e-06
1.47473e-06
1.28435e-06
1.28096e-06
1.28023e-06
1.28501e-06
1.47422e-06
1.47636e-06
1.28408e-06
1.28719e-06
1.28342e-06
1.29326e-06
1.26681e-06
1.28094e-06
1.26523e-06
1.48195e-06
1.48554e-06
1.26654e-06
1.28727e-06
1.26577e-06
1.45583e-06
1.47533e-06
1.46686e-06
1.2778e-06
1.28381e-06
1.27486e-06
1.27815e-06
1.4774e-06
1.4705e-06
1.28149e-06
1.29167e-06
1.27852e-06
1.28122e-06
1.2693e-06
1.27914e-06
1.29243e-06
1.48642e-06
1.47434e-06
1.26971e-06
1.28059e-06
1.29103e-06
1.48747e-06
1.46978e-06
1.48507e-06
1.27559e-06
1.27813e-06
1.29166e-06
1.29288e-06
1.47313e-06
1.49129e-06
1.27866e-06
1.27921e-06
1.28825e-06
1.2791e-06
1.29739e-06
1.29712e-06
1.30267e-06
1.47536e-06
1.47728e-06
1.29609e-06
1.28846e-06
1.30263e-06
1.50046e-06
1.49064e-06
1.5022e-06
1.29672e-06
1.29921e-06
1.30605e-06
1.30905e-06
1.49748e-06
1.50627e-06
1.29253e-06
1.28377e-06
1.30289e-06
1.30289e-06
1.30116e-06
1.30762e-06
1.29405e-06
1.48204e-06
1.49882e-06
1.30206e-06
1.30517e-06
1.29571e-06
1.48914e-06
1.50503e-06
1.50367e-06
1.30716e-06
1.30929e-06
1.30652e-06
1.30171e-06
1.5074e-06
1.49451e-06
1.30528e-06
1.30724e-06
1.30834e-06
1.312e-06
1.29345e-06
1.29866e-06
1.29851e-06
1.50372e-06
1.50646e-06
1.29477e-06
1.30674e-06
1.29648e-06
1.49259e-06
1.50508e-06
1.50472e-06
1.30615e-06
1.29995e-06
1.30645e-06
1.30116e-06
1.49544e-06
1.49869e-06
1.30848e-06
1.31065e-06
1.30809e-06
1.30498e-06
1.30228e-06
1.30343e-06
1.31077e-06
1.50745e-06
1.49969e-06
1.29946e-06
1.30172e-06
1.307e-06
1.50526e-06
1.50717e-06
1.5125e-06
1.30802e-06
1.30622e-06
1.31495e-06
1.31867e-06
1.50415e-06
1.51758e-06
1.3081e-06
1.30482e-06
1.31256e-06
1.31259e-06
1.31245e-06
1.31925e-06
1.31518e-06
1.50157e-06
1.51184e-06
1.30862e-06
1.31406e-06
1.31431e-06
1.51378e-06
1.51571e-06
1.51757e-06
1.31669e-06
1.32075e-06
1.31897e-06
1.32164e-06
1.52118e-06
1.51997e-06
1.31487e-06
1.31579e-06
1.31837e-06
1.31914e-06
1.31605e-06
1.32002e-06
1.31762e-06
1.51631e-06
1.51995e-06
1.31636e-06
1.32175e-06
1.32017e-06
1.51869e-06
1.51872e-06
1.50934e-06
1.3185e-06
1.32018e-06
1.31305e-06
1.31532e-06
1.52117e-06
1.51411e-06
1.3183e-06
1.31851e-06
1.31263e-06
1.31165e-06
1.31764e-06
1.31581e-06
1.31554e-06
1.52095e-06
1.50895e-06
1.32031e-06
1.31324e-06
1.31602e-06
1.51374e-06
1.5104e-06
1.5132e-06
1.31194e-06
1.31367e-06
1.31291e-06
1.31113e-06
1.51515e-06
1.50943e-06
1.31137e-06
1.31048e-06
1.31292e-06
1.31216e-06
1.31495e-06
1.31209e-06
1.31632e-06
1.5099e-06
1.51154e-06
1.31459e-06
1.31065e-06
1.31417e-06
1.51705e-06
1.51831e-06
1.53188e-06
1.31693e-06
1.31161e-06
1.32778e-06
1.3257e-06
1.512e-06
1.52777e-06
1.31751e-06
1.31654e-06
1.32786e-06
1.32807e-06
1.31932e-06
1.32519e-06
1.32534e-06
1.51633e-06
1.53154e-06
1.31667e-06
1.32745e-06
1.32489e-06
1.52975e-06
1.5356e-06
1.53028e-06
1.32984e-06
1.32971e-06
1.3295e-06
1.33343e-06
1.53326e-06
1.53733e-06
1.32957e-06
1.33047e-06
1.32773e-06
1.33068e-06
1.32594e-06
1.3324e-06
1.3208e-06
1.53595e-06
1.53339e-06
1.3258e-06
1.33111e-06
1.32145e-06
1.52043e-06
1.53083e-06
1.5176e-06
1.32569e-06
1.33043e-06
1.3163e-06
1.31417e-06
1.53769e-06
1.515e-06
1.3242e-06
1.32633e-06
1.31641e-06
1.31472e-06
1.3175e-06
1.31378e-06
1.31234e-06
1.53371e-06
1.51524e-06
1.31772e-06
1.31381e-06
1.31188e-06
1.51136e-06
1.51874e-06
1.52263e-06
1.3146e-06
1.31124e-06
1.31552e-06
1.312e-06
1.51548e-06
1.51769e-06
1.31513e-06
1.31286e-06
1.31714e-06
1.31598e-06
1.31245e-06
1.31379e-06
1.32431e-06
1.51603e-06
1.52148e-06
1.31192e-06
1.31642e-06
1.32405e-06
1.53252e-06
1.52684e-06
1.53518e-06
1.31911e-06
1.31772e-06
1.32649e-06
1.32846e-06
1.524e-06
1.53825e-06
1.32023e-06
1.32079e-06
1.32625e-06
1.3288e-06
1.32802e-06
1.32961e-06
1.33226e-06
1.52717e-06
1.53866e-06
1.32804e-06
1.32999e-06
1.33274e-06
1.54326e-06
1.53768e-06
1.52871e-06
1.32747e-06
1.32932e-06
1.32275e-06
1.31987e-06
1.54112e-06
1.52484e-06
1.32694e-06
1.32929e-06
1.32148e-06
1.3202e-06
1.33114e-06
1.31834e-06
1.31679e-06
1.54097e-06
1.52659e-06
1.3317e-06
1.3192e-06
1.31658e-06
1.52216e-06
1.52914e-06
1.51361e-06
1.31828e-06
1.31425e-06
1.30687e-06
1.30321e-06
1.52465e-06
1.50708e-06
1.31735e-06
1.31553e-06
1.30667e-06
1.30567e-06
1.31229e-06
1.30189e-06
1.30225e-06
1.52676e-06
1.51154e-06
1.31182e-06
1.30437e-06
1.30149e-06
1.50677e-06
1.51452e-06
1.51641e-06
1.30459e-06
1.3021e-06
1.30447e-06
1.31057e-06
1.50857e-06
1.52386e-06
1.3045e-06
1.30431e-06
1.30417e-06
1.30798e-06
1.30077e-06
1.3111e-06
1.30364e-06
1.51285e-06
1.52069e-06
1.30004e-06
1.30884e-06
1.30333e-06
1.51428e-06
1.52139e-06
1.53558e-06
1.30879e-06
1.31606e-06
1.32025e-06
1.32601e-06
1.53108e-06
1.54724e-06
1.30792e-06
1.31163e-06
1.31842e-06
1.31809e-06
1.30973e-06
1.32733e-06
1.32429e-06
1.52576e-06
1.53554e-06
1.30909e-06
1.31913e-06
1.32281e-06
1.54103e-06
1.53954e-06
1.52988e-06
1.3221e-06
1.32678e-06
1.31689e-06
1.31307e-06
1.54993e-06
1.52674e-06
1.3202e-06
1.3186e-06
1.31582e-06
1.3092e-06
1.32704e-06
1.31378e-06
1.32306e-06
1.5377e-06
1.52138e-06
1.32545e-06
1.30967e-06
1.32206e-06
1.53861e-06
1.52909e-06
1.49956e-06
1.30858e-06
1.30445e-06
1.28721e-06
1.28259e-06
1.52518e-06
1.49087e-06
1.3082e-06
1.30353e-06
1.28849e-06
1.28988e-06
1.31309e-06
1.28182e-06
1.28454e-06
1.52122e-06
1.50177e-06
1.31291e-06
1.28972e-06
1.28596e-06
1.49625e-06
1.49971e-06
1.49648e-06
1.28282e-06
1.27821e-06
1.27946e-06
1.27555e-06
1.49099e-06
1.48964e-06
1.28444e-06
1.28746e-06
1.28122e-06
1.28736e-06
1.27817e-06
1.27422e-06
1.27218e-06
1.50276e-06
1.50678e-06
1.27986e-06
1.28656e-06
1.27391e-06
1.48577e-06
1.50144e-06
1.51682e-06
1.28298e-06
1.27981e-06
1.29526e-06
1.29726e-06
1.49562e-06
1.52078e-06
1.28424e-06
1.2903e-06
1.29428e-06
1.29548e-06
1.27638e-06
1.29868e-06
1.30108e-06
1.51132e-06
1.52035e-06
1.27765e-06
1.29714e-06
1.30064e-06
1.52494e-06
1.52181e-06
1.52799e-06
1.29862e-06
1.30249e-06
1.3028e-06
1.30973e-06
1.52804e-06
1.54074e-06
1.29702e-06
1.29666e-06
1.30018e-06
1.29606e-06
1.30667e-06
1.31139e-06
1.31006e-06
1.52324e-06
1.51807e-06
1.30568e-06
1.29721e-06
1.30761e-06
1.5353e-06
1.52949e-06
1.50226e-06
1.30248e-06
1.30928e-06
1.28125e-06
1.2788e-06
1.54213e-06
1.49735e-06
1.29984e-06
1.29391e-06
1.28016e-06
1.27222e-06
1.30365e-06
1.2737e-06
1.25938e-06
1.51869e-06
1.48685e-06
1.29987e-06
1.26561e-06
1.25685e-06
1.47136e-06
1.49983e-06
1.4549e-06
1.27029e-06
1.26526e-06
1.2394e-06
1.23338e-06
1.4934e-06
1.44361e-06
1.26983e-06
1.26357e-06
1.24004e-06
1.24115e-06
1.24827e-06
1.23125e-06
1.23164e-06
1.48524e-06
1.45604e-06
1.24659e-06
1.23985e-06
1.23245e-06
1.44193e-06
1.45476e-06
1.45176e-06
1.23438e-06
1.22975e-06
1.22222e-06
1.22805e-06
1.44392e-06
1.46206e-06
1.23516e-06
1.23881e-06
1.22302e-06
1.23435e-06
1.23368e-06
1.23587e-06
1.25713e-06
1.45724e-06
1.47276e-06
1.23531e-06
1.24499e-06
1.26018e-06
1.49735e-06
1.44329e-06
1.20024e-06
1.20705e-06
1.45485e-06
1.20101e-06
1.21256e-06
7.57734e-07
7.62455e-07
7.7422e-07
1.23379e-06
1.46417e-06
1.23623e-06
3.93869e-10
2.54949e-09
3.12604e-10
4.38147e-10
5.17438e-09
3.59847e-09
2.83763e-09
1.04474e-09
4.68374e-09
4.20137e-09
9.17272e-10
3.30127e-08
5.04059e-09
9.17287e-09
2.46814e-08
7.59637e-09
1.68757e-07
6.18568e-09
2.65894e-07
1.46012e-06
2.93619e-06
8.77325e-09
1.90362e-07
7.32231e-09
2.9269e-07
1.16918e-09
1.4228e-09
1.96968e-09
1.50889e-09
1.15352e-09
1.38217e-09
1.94553e-09
4.48148e-09
7.3993e-08
2.62311e-09
3.33816e-09
4.73201e-09
5.3228e-08
2.5943e-09
1.72154e-06
3.42968e-06
4.0132e-09
2.79018e-09
1.19618e-07
4.43612e-09
4.25862e-09
2.75143e-09
8.47529e-08
2.19923e-07
2.29083e-07
4.73055e-09
1.88692e-07
1.97446e-07
1.67919e-08
4.80247e-07
1.2133e-08
6.83858e-07
6.70782e-06
9.70127e-06
1.80774e-08
5.38351e-07
1.33537e-08
7.34178e-07
1.13979e-09
1.35186e-09
1.90284e-09
1.43032e-09
1.09895e-09