/*--------------------------------*- C++ -*----------------------------------*\
| =========                 |                                                 |
| \\      /  F ield         | OpenFOAM: The Open Source CFD Toolbox           |
|  \\    /   O peration     | Version:  v2012                                 |
|   \\  /    A nd           | Website:  www.openfoam.com                      |
|    \\/     M anipulation  |                                                 |
\*---------------------------------------------------------------------------*/
FoamFile
{
    version     2.0;
    format      ascii;
    class       volScalarField;
    location    "850";
    object      k;
}
// * * * * * * * * * * * * * * * * * * * * * * * * * * * * * * * * * * * * * //

dimensions      [0 2 -2 0 0 0 0];


internalField   nonuniform List<scalar> 
171728
(
1.73667e-07
2.58703e-07
2.94805e-07
3.48599e-07
1.71645e-07
2.46853e-07
2.80859e-07
3.40782e-07
1.67321e-07
2.35213e-07
2.73021e-07
3.48898e-07
1.63064e-07
2.24428e-07
2.65944e-07
3.67207e-07
1.5922e-07
2.14087e-07
2.58921e-07
3.99113e-07
1.55625e-07
2.04906e-07
2.51983e-07
4.25937e-07
1.52463e-07
1.97299e-07
2.45727e-07
4.07926e-07
1.46367e-07
1.90903e-07
2.39142e-07
2.77921e-07
1.38748e-07
1.84949e-07
2.34375e-07
2.39472e-07
1.32274e-07
1.79206e-07
2.28038e-07
2.23185e-07
1.28545e-07
1.7412e-07
2.1894e-07
2.14183e-07
1.26321e-07
1.70053e-07
2.09789e-07
2.07047e-07
1.24312e-07
1.6692e-07
2.04113e-07
2.00817e-07
1.22192e-07
1.65249e-07
1.99395e-07
1.97162e-07
1.20158e-07
1.65791e-07
1.94211e-07
1.9616e-07
1.18132e-07
1.70083e-07
1.91786e-07
2.01503e-07
1.16182e-07
1.8038e-07
1.95578e-07
2.08429e-07
1.14052e-07
1.95938e-07
2.0761e-07
2.24912e-07
1.12118e-07
2.22279e-07
2.35586e-07
2.63332e-07
1.1044e-07
2.76286e-07
2.79091e-07
3.29604e-07
1.09021e-07
3.50529e-07
3.51431e-07
4.76468e-07
1.08388e-07
4.66214e-07
4.64916e-07
6.95613e-07
1.0801e-07
6.45073e-07
6.31295e-07
1.08326e-06
1.09108e-07
8.18564e-07
8.99034e-07
1.52695e-06
1.11015e-07
1.22765e-06
1.21966e-06
2.90323e-06
1.14272e-07
1.62247e-06
1.59727e-06
4.03667e-06
1.20587e-07
2.01668e-06
2.21082e-06
4.722e-06
1.33395e-07
2.96087e-06
3.04299e-06
9.11271e-06
1.44478e-07
3.23715e-06
3.50612e-06
9.70712e-06
1.85371e-07
4.60003e-06
4.99871e-06
1.22114e-05
2.12308e-07
5.27967e-06
5.26672e-06
1.45678e-05
3.06751e-07
6.45897e-06
6.67302e-06
1.77801e-05
3.15591e-07
7.63199e-06
7.84605e-06
1.91219e-05
4.22351e-07
9.24388e-06
9.18999e-06
2.18658e-05
5.30902e-07
1.04581e-05
1.05007e-05
2.32019e-05
6.75004e-07
1.20098e-05
1.21981e-05
2.51593e-05
8.96921e-07
1.38901e-05
1.35437e-05
2.6381e-05
1.09261e-06
1.51463e-05
1.56718e-05
2.82519e-05
1.45247e-06
1.77281e-05
1.72144e-05
2.90745e-05
1.83359e-06
1.83781e-05
1.88176e-05
3.03652e-05
2.04566e-06
2.14178e-05
2.09765e-05
3.2015e-05
3.26755e-06
2.22938e-05
2.26639e-05
3.24017e-05
3.53254e-06
2.45639e-05
2.44392e-05
3.44248e-05
4.16616e-06
2.64033e-05
2.62581e-05
3.53961e-05
4.98104e-06
2.71932e-05
2.78175e-05
3.55887e-05
5.94115e-06
3.0462e-05
2.97954e-05
3.74785e-05
7.33062e-06
3.16383e-05
3.11627e-05
3.83971e-05
7.8308e-06
3.16492e-05
3.29529e-05
3.91416e-05
9.49725e-06
3.46432e-05
3.37059e-05
4.03781e-05
1.0393e-05
3.5479e-05
3.58741e-05
4.15697e-05
1.23272e-05
3.70304e-05
3.71109e-05
4.22935e-05
1.34192e-05
3.79726e-05
3.74359e-05
4.30388e-05
1.48991e-05
3.93517e-05
3.97978e-05
4.39027e-05
1.70213e-05
4.02227e-05
4.04755e-05
4.53787e-05
1.79e-05
4.17549e-05
4.11518e-05
4.56105e-05
1.98892e-05
4.20315e-05
4.25976e-05
4.56775e-05
2.13717e-05
4.34811e-05
4.33162e-05
4.77915e-05
2.281e-05
4.45181e-05
4.4221e-05
4.80172e-05
2.47673e-05
4.53808e-05
4.5722e-05
4.81279e-05
2.55044e-05
4.60135e-05
4.58563e-05
4.90906e-05
2.73106e-05
4.68738e-05
4.72546e-05
5.07171e-05
2.91448e-05
4.82617e-05
4.81379e-05
5.03655e-05
2.956e-05
4.82023e-05
4.80898e-05
5.00551e-05
3.06419e-05
4.93911e-05
4.92279e-05
5.24226e-05
3.30851e-05
5.0365e-05
5.04417e-05
5.29719e-05
3.39095e-05
5.02817e-05
5.06197e-05
5.19239e-05
3.37505e-05
5.09157e-05
5.09296e-05
5.28304e-05
3.48797e-05
5.18985e-05
5.10812e-05
5.49673e-05
3.74569e-05
5.26341e-05
5.30369e-05
5.39797e-05
3.81808e-05
5.28999e-05
5.3349e-05
5.31936e-05
3.81071e-05
5.26915e-05
5.29016e-05
5.5478e-05
3.84089e-05
5.40969e-05
5.32506e-05
5.6154e-05
4.01454e-05
5.47498e-05
5.46536e-05
5.52737e-05
4.15218e-05
5.42199e-05
5.48073e-05
5.53865e-05
4.18454e-05
5.43834e-05
5.44871e-05
5.63433e-05
4.21982e-05
5.57565e-05
5.54119e-05
5.66972e-05
4.31533e-05
5.59139e-05
5.60693e-05
5.71429e-05
4.34626e-05
5.5784e-05
5.56117e-05
5.67604e-05
4.34397e-05
5.54458e-05
5.53869e-05
5.68995e-05
4.47443e-05
5.67264e-05
5.68925e-05
5.8108e-05
4.56094e-05
5.73126e-05
5.72334e-05
5.74992e-05
4.53939e-05
5.61524e-05
5.61356e-05
5.6676e-05
4.5255e-05
5.62777e-05
5.64541e-05
5.83527e-05
4.62282e-05
5.7739e-05
5.77629e-05
5.90931e-05
4.66874e-05
5.71859e-05
5.72392e-05
5.78231e-05
4.61619e-05
5.61136e-05
5.63198e-05
5.70541e-05
4.5916e-05
5.68916e-05
5.67819e-05
5.74213e-05
4.71388e-05
5.85451e-05
5.79733e-05
5.93428e-05
4.76322e-05
5.81058e-05
5.76497e-05
5.96855e-05
4.63702e-05
5.56821e-05
5.62239e-05
5.69001e-05
4.57954e-05
5.5365e-05
5.62988e-05
5.61385e-05
4.68292e-05
5.76147e-05
5.75215e-05
5.90065e-05
4.79763e-05
5.8823e-05
5.78587e-05
6.02549e-05
4.77695e-05
5.6694e-05
5.58792e-05
5.62941e-05
4.46505e-05
5.2753e-05
5.32589e-05
5.39688e-05
3.61256e-07
3.19284e-07
3.01821e-07
3.53476e-07
3.37592e-07
3.72161e-07
1.71632e-07
1.50218e-07
1.65537e-07
2.3669e-07
2.89646e-07
3.32529e-07
3.61367e-07
3.0591e-07
4.95779e-07
3.51648e-07
3.60028e-07
3.43972e-07
3.0756e-07
2.52716e-07
2.9526e-07
2.44657e-07
3.52568e-07
3.31513e-07
4.29245e-07
7.86737e-07
4.18571e-07
7.56873e-07
3.42822e-07
2.49857e-07
3.31384e-07
3.59381e-07
3.56351e-07
6.22422e-07
2.83105e-07
6.63208e-07
3.42455e-07
3.40999e-07
3.2842e-07
2.9139e-07
2.4153e-07
2.81172e-07
2.32868e-07
3.30337e-07
3.10944e-07
4.15343e-07
7.18718e-07
4.13077e-07
5.12765e-07
3.27119e-07
2.37985e-07
3.14449e-07
3.53928e-07
3.31552e-07
6.85866e-07
2.74936e-07
7.69287e-07
3.49973e-07
3.2605e-07
3.17206e-07
2.7803e-07
2.30028e-07
2.69199e-07
2.21776e-07
3.09919e-07
2.93173e-07
4.13335e-07
4.44728e-07
4.18965e-07
2.9877e-07
3.1038e-07
2.26993e-07
2.99289e-07
3.2908e-07
3.06135e-07
8.00345e-07
2.67605e-07
9.03896e-07
3.67905e-07
3.15249e-07
3.10367e-07
2.66361e-07
2.19121e-07
2.58143e-07
2.11623e-07
2.92262e-07
2.77266e-07
4.2179e-07
2.72124e-07
4.37259e-07
2.29923e-07
2.95955e-07
2.16611e-07
2.87354e-07
3.03728e-07
2.82506e-07
9.4256e-07
2.60629e-07
1.06519e-06
3.99649e-07
3.09341e-07
3.09244e-07
2.55437e-07
2.09202e-07
2.47567e-07
2.02345e-07
2.76422e-07
2.62482e-07
4.45169e-07
2.22648e-07
4.74636e-07
2.09642e-07
2.84664e-07
2.0704e-07
2.76844e-07
2.81575e-07
2.68075e-07
1.10326e-06
2.53703e-07
1.17e-06
4.2855e-07
3.08203e-07
3.06872e-07
2.451e-07
2.00072e-07
2.38107e-07
1.93828e-07
2.61732e-07
2.49183e-07
4.84513e-07
2.06603e-07
5.03759e-07
1.98687e-07
2.74477e-07
1.98953e-07
2.66597e-07
2.67261e-07
2.54961e-07
1.17324e-06
2.4734e-07
1.10441e-06
4.20543e-07
3.05072e-07
2.94428e-07
2.35989e-07
1.91856e-07
2.29811e-07
1.86504e-07
2.48583e-07
2.37429e-07
5.05375e-07
1.96447e-07
4.94295e-07
1.90367e-07
2.63421e-07
1.92327e-07
2.53329e-07
2.54358e-07
2.43664e-07
9.87625e-07
2.40643e-07
6.28685e-07
2.89273e-07
2.89401e-07
2.6161e-07
2.27672e-07
1.84892e-07
2.21987e-07
1.80057e-07
2.36994e-07
2.27265e-07
4.71235e-07
1.88523e-07
3.84197e-07
1.83197e-07
2.50395e-07
1.86349e-07
2.4252e-07
2.43116e-07
2.33559e-07
5.23978e-07
2.3553e-07
3.02148e-07
2.41719e-07
2.59807e-07
2.4245e-07
2.2043e-07
1.78528e-07
2.16628e-07
1.74016e-07
2.27001e-07
2.17567e-07
3.53938e-07
1.81446e-07
2.76303e-07
1.76296e-07
2.40185e-07
1.80537e-07
2.34022e-07
2.33125e-07
2.2435e-07
2.609e-07
2.29943e-07
2.01783e-07
2.23871e-07
2.40935e-07
2.21793e-07
2.15488e-07
1.72669e-07
2.11517e-07
1.69324e-07
2.17349e-07
2.08001e-07
2.55144e-07
1.74731e-07
2.09393e-07
1.70145e-07
2.32114e-07
1.75223e-07
2.26645e-07
2.23984e-07
2.14936e-07
1.933e-07
2.21396e-07
1.79389e-07
2.14501e-07
2.20812e-07
2.09995e-07
2.10227e-07
1.68429e-07
2.06832e-07
1.66168e-07
2.07879e-07
1.9982e-07
2.00944e-07
1.68659e-07
1.88595e-07
1.64992e-07
2.24944e-07
1.7089e-07
2.19789e-07
2.14553e-07
2.05588e-07
1.76964e-07
2.11801e-07
1.72841e-07
2.07251e-07
2.09723e-07
2.03582e-07
2.05793e-07
1.65611e-07
2.03139e-07
1.63776e-07
1.99826e-07
1.92927e-07
1.8628e-07
1.63865e-07
1.81642e-07
1.61544e-07
2.18271e-07
1.67544e-07
2.14005e-07
2.05356e-07
1.98337e-07
1.72152e-07
2.05309e-07
1.71601e-07
2.00821e-07
2.03608e-07
1.9886e-07
2.02058e-07
1.63158e-07
1.98737e-07
1.62504e-07
1.9305e-07
1.87313e-07
1.80807e-07
1.61036e-07
1.80111e-07
1.59987e-07
2.12927e-07
1.65618e-07
2.10747e-07
1.98372e-07
1.93212e-07
1.71494e-07
2.00458e-07
1.71564e-07
1.96818e-07
1.99055e-07
1.96005e-07
1.97553e-07
1.62499e-07
1.93632e-07
1.63317e-07
1.87643e-07
1.84069e-07
1.80259e-07
1.59992e-07
1.81905e-07
1.60569e-07
2.1031e-07
1.65428e-07
2.10192e-07
1.9347e-07
1.8994e-07
1.71794e-07
1.95298e-07
1.74329e-07
1.9541e-07
1.9666e-07
1.96575e-07
1.92609e-07
1.64064e-07
1.91425e-07
1.67603e-07
1.84697e-07
1.846e-07
1.82864e-07
1.6113e-07
1.87359e-07
1.64113e-07
2.10342e-07
1.68243e-07
2.1135e-07
1.90642e-07
1.89457e-07
1.75913e-07
1.91728e-07
1.80285e-07
1.98898e-07
1.98169e-07
2.02077e-07
1.91544e-07
1.69603e-07
1.93699e-07
1.76506e-07
1.86906e-07
1.90722e-07
1.89462e-07
1.65585e-07
1.9763e-07
1.72849e-07
2.12578e-07
1.7782e-07
2.16736e-07
1.90932e-07
1.94331e-07
1.82422e-07
1.94282e-07
1.88633e-07
2.05445e-07
2.05492e-07
2.17026e-07
1.95587e-07
1.79642e-07
2.05238e-07
1.90759e-07
1.93297e-07
2.01891e-07
2.01499e-07
1.75468e-07
2.16343e-07
1.89352e-07
2.18264e-07
1.90322e-07
2.29368e-07
1.97662e-07
2.07811e-07
1.91567e-07
2.04472e-07
2.05147e-07
2.20145e-07
2.23253e-07
2.46598e-07
2.09843e-07
1.9664e-07
2.29025e-07
2.18054e-07
2.08778e-07
2.3305e-07
2.22807e-07
1.93638e-07
2.47572e-07
2.15509e-07
2.321e-07
2.16506e-07
2.53345e-07
2.13754e-07
2.35639e-07
2.08879e-07
2.26096e-07
2.32253e-07
2.50343e-07
2.59094e-07
3.06153e-07
2.37138e-07
2.24098e-07
2.68387e-07
2.66463e-07
2.42115e-07
3.04416e-07
2.57187e-07
2.25945e-07
2.95089e-07
2.56587e-07
2.61463e-07
2.64956e-07
2.90704e-07
2.48518e-07
2.89803e-07
2.41552e-07
2.61094e-07
2.74599e-07
3.08738e-07
3.27143e-07
4.18267e-07
2.81185e-07
2.77616e-07
3.32882e-07
3.29863e-07
3.27461e-07
4.02746e-07
3.10282e-07
2.74671e-07
3.64349e-07
3.27485e-07
3.03355e-07
3.27601e-07
3.6612e-07
3.10062e-07
4.07468e-07
2.88714e-07
3.27346e-07
3.5307e-07
4.40009e-07
4.53895e-07
6.18453e-07
3.53403e-07
3.53369e-07
4.31851e-07
4.45417e-07
4.49496e-07
6.32034e-07
3.87618e-07
3.51269e-07
4.6572e-07
4.34284e-07
3.7996e-07
4.41465e-07
4.73117e-07
4.3753e-07
6.11871e-07
3.66879e-07
4.31796e-07
4.6431e-07
6.20595e-07
6.72426e-07
9.56602e-07
4.6335e-07
4.70312e-07
5.82656e-07
5.77362e-07
6.94073e-07
8.84521e-07
5.00102e-07
4.6575e-07
6.10168e-07
5.9373e-07
4.96264e-07
5.67911e-07
6.20003e-07
6.62487e-07
9.87719e-07
4.89203e-07
5.86584e-07
6.14808e-07
9.4605e-07
1.05818e-06
1.55641e-06
6.24572e-07
6.53772e-07
8.22848e-07
7.87613e-07
1.00702e-06
1.58464e-06
6.55506e-07
6.35969e-07
8.55058e-07
8.18176e-07
7.0216e-07
7.84217e-07
7.96739e-07
1.07896e-06
1.52089e-06
6.89505e-07
8.20937e-07
7.89296e-07
1.48601e-06
1.73081e-06
2.24794e-06
8.90861e-07
8.1996e-07
1.06391e-06
1.15951e-06
1.62989e-06
2.43219e-06
9.24461e-07
8.90261e-07
1.07612e-06
1.11563e-06
8.46065e-07
1.1451e-06
1.18376e-06
1.71143e-06
2.3724e-06
8.56383e-07
1.11991e-06
1.16676e-06
2.74336e-06
2.38119e-06
3.69901e-06
1.16198e-06
1.24923e-06
1.50512e-06
1.4248e-06
2.79747e-06
3.41073e-06
1.17858e-06
1.21678e-06
1.50692e-06
1.45338e-06
1.21635e-06
1.42896e-06
1.57358e-06
2.53246e-06
3.57043e-06
1.19715e-06
1.47383e-06
1.59059e-06
3.50391e-06
4.02767e-06
5.09312e-06
1.61353e-06
1.61655e-06
2.02673e-06
1.98437e-06
3.56402e-06
5.52916e-06
1.61579e-06
1.571e-06
2.01082e-06
2.04415e-06
1.72735e-06
1.96908e-06
1.85583e-06
3.80897e-06
5.22041e-06
1.74814e-06
2.12983e-06
1.87241e-06
4.6946e-06
5.45828e-06
7.18552e-06
2.15451e-06
2.03375e-06
2.59008e-06
2.72025e-06
5.71121e-06
7.13616e-06
2.12897e-06
2.12953e-06
2.59567e-06
2.65645e-06
1.94052e-06
2.70539e-06
2.8562e-06
5.73564e-06
7.04301e-06
1.95392e-06
2.75494e-06
2.89234e-06
8.38792e-06
7.57832e-06
9.48922e-06
2.81984e-06
2.97298e-06
3.3287e-06
3.18661e-06
7.98945e-06
9.41851e-06
2.80364e-06
2.89582e-06
3.26681e-06
3.19404e-06
3.03525e-06
3.17658e-06
3.25836e-06
7.39041e-06
9.68556e-06
3.0526e-06
3.38649e-06
3.26664e-06
9.61803e-06
9.97857e-06
1.19479e-05
3.45082e-06
3.24956e-06
4.39105e-06
4.25262e-06
9.45137e-06
1.17505e-05
3.41727e-06
3.32781e-06
4.29316e-06
4.46942e-06
3.42933e-06
4.21925e-06
4.14541e-06
9.93356e-06
1.24817e-05
3.46891e-06
4.69399e-06
4.13266e-06
1.16325e-05
1.23702e-05
1.43108e-05
4.64382e-06
4.63492e-06
5.01787e-06
5.12154e-06
1.27463e-05
1.49892e-05
4.50561e-06
4.72214e-06
4.85962e-06
4.93168e-06
4.30237e-06
5.11373e-06
4.97255e-06
1.33525e-05
1.42752e-05
4.28849e-06
5.21532e-06
5.04729e-06
1.39857e-05
1.48261e-05
1.76513e-05
5.3867e-06
5.27939e-06
7.06758e-06
6.23223e-06
1.52067e-05
1.64404e-05
5.19664e-06
5.06283e-06
6.70124e-06
6.3159e-06
5.36551e-06
6.17864e-06
6.47276e-06
1.43871e-05
1.66624e-05
5.4351e-06
6.25617e-06
6.42485e-06
1.72912e-05
1.828e-05
1.88177e-05
7.42379e-06
6.52692e-06
7.64085e-06
7.30201e-06
1.70022e-05
1.89886e-05
7.00128e-06
6.6731e-06
7.20948e-06
7.47007e-06
6.67155e-06
7.27835e-06
7.14726e-06
1.75077e-05
1.93145e-05
6.61626e-06
7.57569e-06
7.20292e-06
1.87142e-05
1.89486e-05
2.07926e-05
7.65372e-06
7.64533e-06
8.5825e-06
8.87208e-06
1.94545e-05
2.12186e-05
7.29588e-06
7.73263e-06
8.76941e-06
8.73866e-06
7.4984e-06
8.87759e-06
9.05514e-06
1.96151e-05
2.10444e-05
7.55877e-06
8.77155e-06
9.01994e-06
2.13455e-05
2.16726e-05
2.33963e-05
9.27839e-06
9.23953e-06
1.04857e-05
1.01391e-05
2.17045e-05
2.29785e-05
9.37163e-06
9.21981e-06
1.03209e-05
1.02397e-05
9.4618e-06
1.01022e-05
9.96175e-06
2.15576e-05
2.30316e-05
9.43304e-06
1.02677e-05
1.00019e-05
2.28784e-05
2.36439e-05
2.4534e-05
1.08478e-05
1.05277e-05
1.18904e-05
1.17328e-05
2.3316e-05
2.45323e-05
1.05819e-05
1.04856e-05
1.17167e-05
1.17612e-05
1.02253e-05
1.16603e-05
1.19803e-05
2.33906e-05
2.45976e-05
1.02721e-05
1.16587e-05
1.19484e-05
2.47137e-05
2.49486e-05
2.63303e-05
1.21908e-05
1.20267e-05
1.35485e-05
1.33851e-05
2.49514e-05
2.61697e-05
1.20768e-05
1.2289e-05
1.34304e-05
1.32516e-05
1.24052e-05
1.34004e-05
1.31726e-05
2.50074e-05
2.61534e-05
1.23675e-05
1.3253e-05
1.31915e-05
2.60642e-05
2.66456e-05
2.75205e-05
1.40113e-05
1.39318e-05
1.49387e-05
1.48443e-05
2.65258e-05
2.75552e-05
1.395e-05
1.35788e-05
1.5043e-05
1.51084e-05
1.3588e-05
1.4768e-05
1.5104e-05
2.64723e-05
2.76718e-05
1.36155e-05
1.51033e-05
1.51089e-05
2.78597e-05
2.79103e-05
2.91188e-05
1.5269e-05
1.51704e-05
1.69004e-05
1.71938e-05
2.78754e-05
2.90894e-05
1.53763e-05
1.55817e-05
1.68058e-05
1.6964e-05
1.5671e-05
1.72321e-05
1.71368e-05
2.8072e-05
2.8971e-05
1.56647e-05
1.68104e-05
1.71015e-05
2.89081e-05
2.94015e-05
3.00083e-05
1.76062e-05
1.77131e-05
1.8728e-05
1.81768e-05
2.94102e-05
2.9949e-05
1.74856e-05
1.7347e-05
1.88663e-05
1.84841e-05
1.72957e-05
1.8157e-05
1.79545e-05
2.92326e-05
3.01184e-05
1.72572e-05
1.84258e-05
1.79513e-05
2.98919e-05
3.02327e-05
3.12574e-05
1.87932e-05
1.83939e-05
1.97036e-05
2.06197e-05
3.01949e-05
3.16116e-05
1.89575e-05
1.88914e-05
1.95943e-05
2.02003e-05
1.85495e-05
2.06412e-05
2.08846e-05
3.04268e-05
3.13653e-05
1.85449e-05
2.04254e-05
2.08887e-05
3.17908e-05
3.17302e-05
3.31179e-05
2.07628e-05
2.13345e-05
2.30412e-05
2.22894e-05
3.19943e-05
3.24813e-05
2.05608e-05
2.08334e-05
2.34181e-05
2.26638e-05
2.15658e-05
2.22387e-05
2.2249e-05
3.16959e-05
3.27415e-05
2.15613e-05
2.22258e-05
2.22184e-05
3.22401e-05
3.3317e-05
3.37174e-05
2.32576e-05
2.24113e-05
2.37225e-05
2.36164e-05
3.26114e-05
3.3564e-05
2.40078e-05
2.30013e-05
2.45737e-05
2.3988e-05
2.22913e-05
2.362e-05
2.35632e-05
3.29852e-05
3.36778e-05
2.22669e-05
2.40762e-05
2.36545e-05
3.39027e-05
3.39172e-05
3.47903e-05
2.41893e-05
2.43685e-05
2.59324e-05
2.62198e-05
3.40153e-05
3.50825e-05
2.46194e-05
2.44364e-05
2.54342e-05
2.56583e-05
2.46421e-05
2.63051e-05
2.67794e-05
3.39274e-05
3.48081e-05
2.47115e-05
2.57233e-05
2.66832e-05
3.53174e-05
3.50632e-05
3.58319e-05
2.6333e-05
2.65014e-05
2.73371e-05
2.71578e-05
3.52075e-05
3.54515e-05
2.59312e-05
2.61647e-05
2.752e-05
2.77197e-05
2.70025e-05
2.66611e-05
2.70818e-05
3.50842e-05
3.59923e-05
2.68526e-05
2.75393e-05
2.69599e-05
3.54107e-05
3.60931e-05
3.71323e-05
2.77786e-05
2.75709e-05
2.91125e-05
2.91278e-05
3.57141e-05
3.73927e-05
2.80059e-05
2.80273e-05
2.9367e-05
2.90135e-05
2.71492e-05
2.97542e-05
2.90783e-05
3.62019e-05
3.69674e-05
2.71191e-05
2.91453e-05
2.89896e-05
3.71132e-05
3.741e-05
3.8348e-05
2.96045e-05
2.97299e-05
3.11905e-05
3.13638e-05
3.7739e-05
3.83991e-05
2.98924e-05
2.96398e-05
3.13556e-05
3.14763e-05
2.99018e-05
3.16086e-05
3.12086e-05
3.72803e-05
3.83897e-05
2.97052e-05
3.09537e-05
3.10618e-05
3.82632e-05
3.85292e-05
3.88972e-05
3.15024e-05
3.15779e-05
3.20769e-05
3.17816e-05
3.84808e-05
3.85159e-05
3.16083e-05
3.16945e-05
3.20422e-05
3.20628e-05
3.13573e-05
3.15715e-05
3.20838e-05
3.85547e-05
3.89879e-05
3.12768e-05
3.25012e-05
3.22637e-05
3.88943e-05
3.90838e-05
4.03014e-05
3.24496e-05
3.20207e-05
3.39768e-05
3.41195e-05
3.86688e-05
4.03943e-05
3.244e-05
3.25326e-05
3.40877e-05
3.37682e-05
3.24504e-05
3.40017e-05
3.37373e-05
3.91976e-05
4.00084e-05
3.27095e-05
3.34738e-05
3.37216e-05
4.01564e-05
4.05511e-05
4.096e-05
3.43466e-05
3.46036e-05
3.50915e-05
3.50733e-05
4.07402e-05
4.11046e-05
3.44112e-05
3.40847e-05
3.49587e-05
3.54067e-05
3.41961e-05
3.52239e-05
3.5594e-05
4.02066e-05
4.12684e-05
3.3994e-05
3.52736e-05
3.5418e-05
4.12999e-05
4.11399e-05
4.23294e-05
3.54429e-05
3.53597e-05
3.67882e-05
3.67492e-05
4.12027e-05
4.21823e-05
3.53914e-05
3.58532e-05
3.69338e-05
3.66782e-05
3.59513e-05
3.68096e-05
3.65874e-05
4.15531e-05
4.21296e-05
3.5925e-05
3.70238e-05
3.66934e-05
4.21841e-05
4.25389e-05
4.27521e-05
3.71375e-05
3.70162e-05
3.76652e-05
3.75517e-05
4.24077e-05
4.27735e-05
3.7197e-05
3.68143e-05
3.75286e-05
3.73688e-05
3.68679e-05
3.75409e-05
3.79483e-05
4.22078e-05
4.25683e-05
3.68773e-05
3.72276e-05
3.76873e-05
4.28336e-05
4.28593e-05
4.39719e-05
3.78489e-05
3.79433e-05
3.90238e-05
3.9249e-05
4.29641e-05
4.40626e-05
3.77486e-05
3.77044e-05
3.90354e-05
3.91151e-05
3.81688e-05
3.92275e-05
3.86559e-05
4.27978e-05
4.41617e-05
3.79243e-05
3.92905e-05
3.87034e-05
4.36853e-05
4.427e-05
4.48094e-05
3.95137e-05
3.94369e-05
4.02597e-05
3.98206e-05
4.42032e-05
4.44106e-05
3.95379e-05
3.96555e-05
4.03969e-05
4.06342e-05
3.90266e-05
3.97764e-05
4.05334e-05
4.4446e-05
4.49407e-05
3.91503e-05
4.04541e-05
4.05793e-05
4.51387e-05
4.48651e-05
4.52551e-05
4.03135e-05
4.01457e-05
4.10045e-05
4.1408e-05
4.45973e-05
4.57413e-05
4.0457e-05
4.07016e-05
4.09401e-05
4.10682e-05
4.09615e-05
4.15625e-05
4.15802e-05
4.49771e-05
4.51797e-05
4.09399e-05
4.07401e-05
4.13951e-05
4.56068e-05
4.55138e-05
4.64386e-05
4.14666e-05
4.17025e-05
4.23963e-05
4.21272e-05
4.59098e-05
4.60605e-05
4.13145e-05
4.13198e-05
4.23957e-05
4.22126e-05
4.15792e-05
4.19117e-05
4.15054e-05
4.54218e-05
4.63481e-05
4.13869e-05
4.22282e-05
4.13959e-05
4.54447e-05
4.6559e-05
4.68364e-05
4.25095e-05
4.22546e-05
4.30472e-05
4.3003e-05
4.61377e-05
4.69025e-05
4.26192e-05
4.25819e-05
4.30663e-05
4.31881e-05
4.1577e-05
4.30251e-05
4.34082e-05
4.65467e-05
4.6998e-05
4.16471e-05
4.32745e-05
4.3749e-05
4.75245e-05
4.69907e-05
4.78545e-05
4.33541e-05
4.33754e-05
4.42315e-05
4.42562e-05
4.71507e-05
4.78521e-05
4.32666e-05
4.32428e-05
4.42212e-05
4.40038e-05
4.39627e-05
4.44213e-05
4.45952e-05
4.70364e-05
4.75084e-05
4.41444e-05
4.3742e-05
4.44538e-05
4.80019e-05
4.80591e-05
4.84868e-05
4.44815e-05
4.44001e-05
4.5155e-05
4.5047e-05
4.79538e-05
4.83972e-05
4.46027e-05
4.44864e-05
4.53655e-05
4.56517e-05
4.46117e-05
4.50243e-05
4.47751e-05
4.78454e-05
4.88709e-05
4.44682e-05
4.55099e-05
4.4787e-05
4.80426e-05
4.8528e-05
4.8667e-05
4.52849e-05
4.54176e-05
4.56455e-05
4.60801e-05
4.86038e-05
4.90921e-05
4.54146e-05
4.58051e-05
4.55048e-05
4.58371e-05
4.4921e-05
4.59975e-05
4.56259e-05
4.89401e-05
4.87825e-05
4.49076e-05
4.58335e-05
4.55419e-05
4.87735e-05
4.88906e-05
5.02615e-05
4.59311e-05
4.60929e-05
4.70923e-05
4.62588e-05
4.91168e-05
4.94058e-05
4.57022e-05
4.58433e-05
4.71119e-05
4.66782e-05
4.60402e-05
4.63226e-05
4.73742e-05
4.88188e-05
4.99784e-05
4.59694e-05
4.67764e-05
4.73912e-05
5.05544e-05
5.04458e-05
5.03724e-05
4.74174e-05
4.67126e-05
4.78507e-05
4.81054e-05
4.97359e-05
5.08116e-05
4.74495e-05
4.7189e-05
4.78388e-05
4.80413e-05
4.76629e-05
4.81304e-05
4.78935e-05
5.02796e-05
5.06396e-05
4.76929e-05
4.80667e-05
4.7928e-05
5.04145e-05
5.03555e-05
5.02373e-05
4.785e-05
4.82681e-05
4.78125e-05
4.82525e-05
5.08603e-05
5.06173e-05
4.78375e-05
4.81105e-05
4.77979e-05
4.80805e-05
4.78661e-05
4.82147e-05
4.76703e-05
5.06518e-05
5.04874e-05
4.79071e-05
4.80995e-05
4.76914e-05
4.99363e-05
5.04176e-05
5.18701e-05
4.78677e-05
4.82387e-05
4.9171e-05
4.8775e-05
5.06381e-05
5.16198e-05
4.78365e-05
4.80804e-05
4.90863e-05
4.88488e-05
4.76976e-05
4.883e-05
4.92464e-05
5.05352e-05
5.15934e-05
4.76955e-05
4.86493e-05
4.88415e-05
5.2004e-05
5.21368e-05
5.2739e-05
4.95811e-05
4.93248e-05
5.0347e-05
5.02249e-05
5.19356e-05
5.24469e-05
4.96039e-05
4.93887e-05
5.05822e-05
5.03282e-05
4.98732e-05
5.02843e-05
5.06248e-05
5.19202e-05
5.25001e-05
4.95829e-05
5.03026e-05
5.06636e-05
5.29975e-05
5.28173e-05
5.26101e-05
5.05118e-05
5.03208e-05
5.06495e-05
5.03636e-05
5.24757e-05
5.23428e-05
5.06936e-05
5.044e-05
5.06437e-05
5.05502e-05
5.06285e-05
5.03272e-05
5.01966e-05
5.25372e-05
5.26301e-05
5.06975e-05
5.05749e-05
5.04056e-05
5.20006e-05
5.25597e-05
5.20184e-05
5.06259e-05
5.03656e-05
5.03213e-05
5.07546e-05
5.23553e-05
5.28689e-05
5.04433e-05
5.05968e-05
5.00733e-05
5.08025e-05
5.00062e-05
5.04756e-05
5.00528e-05
5.27218e-05
5.29252e-05
5.02278e-05
5.09141e-05
5.02539e-05
5.23445e-05
5.20653e-05
5.36276e-05
5.03125e-05
5.1018e-05
5.12799e-05
5.14021e-05
5.31057e-05
5.36148e-05
5.01001e-05
5.07968e-05
5.14252e-05
5.07619e-05
5.05438e-05
5.17962e-05
5.25969e-05
5.29277e-05
5.26879e-05
5.06489e-05
5.09463e-05
5.24711e-05
5.48555e-05
5.40051e-05
5.50726e-05
5.19229e-05
5.15278e-05
5.31396e-05
5.25139e-05
5.3662e-05
5.42365e-05
5.19372e-05
5.08746e-05
5.30436e-05
5.26925e-05
5.28125e-05
5.24075e-05
5.26999e-05
5.28022e-05
5.47242e-05
5.26719e-05
5.2652e-05
5.26015e-05
5.413e-05
5.51707e-05
5.47647e-05
5.32902e-05
5.28596e-05
5.32527e-05
5.31956e-05
5.44693e-05
5.48182e-05
5.32399e-05
5.31983e-05
5.33249e-05
5.37631e-05
5.23965e-05
5.29101e-05
5.18588e-05
5.50176e-05
5.53066e-05
5.23617e-05
5.33684e-05
5.19124e-05
5.3161e-05
5.46647e-05
5.3855e-05
5.30443e-05
5.31707e-05
5.24472e-05
5.26998e-05
5.47891e-05
5.40705e-05
5.3243e-05
5.3755e-05
5.2745e-05
5.32194e-05
5.18624e-05
5.26927e-05
5.3042e-05
5.52714e-05
5.45124e-05
5.19143e-05
5.29802e-05
5.29675e-05
5.50857e-05
5.38618e-05
5.48276e-05
5.24044e-05
5.26294e-05
5.29051e-05
5.29836e-05
5.40619e-05
5.51801e-05
5.26745e-05
5.30087e-05
5.27948e-05
5.27071e-05
5.3663e-05
5.35651e-05
5.44265e-05
5.44803e-05
5.4326e-05
5.35479e-05
5.29637e-05
5.44072e-05
5.61789e-05
5.51867e-05
5.61161e-05
5.35219e-05
5.36455e-05
5.46085e-05
5.48402e-05
5.55796e-05
5.64279e-05
5.31563e-05
5.27255e-05
5.43333e-05
5.39908e-05
5.4428e-05
5.47516e-05
5.40719e-05
5.44653e-05
5.58448e-05
5.44362e-05
5.44106e-05
5.42246e-05
5.53147e-05
5.61777e-05
5.61113e-05
5.47447e-05
5.48936e-05
5.48338e-05
5.46506e-05
5.64284e-05
5.56296e-05
5.458e-05
5.45194e-05
5.49279e-05
5.51365e-05
5.39505e-05
5.43618e-05
5.38938e-05
5.61006e-05
5.64659e-05
5.41054e-05
5.48356e-05
5.39865e-05
5.52472e-05
5.61105e-05
5.60321e-05
5.48213e-05
5.4453e-05
5.47157e-05
5.42742e-05
5.55553e-05
5.54661e-05
5.49449e-05
5.51342e-05
5.48933e-05
5.48056e-05
5.39797e-05
5.41903e-05
5.48661e-05
5.64374e-05
5.57643e-05
5.40064e-05
5.45015e-05
5.46243e-05
5.62247e-05
5.60747e-05
5.65701e-05
5.47208e-05
5.43303e-05
5.52342e-05
5.5436e-05
5.56752e-05
5.6968e-05
5.48688e-05
5.4735e-05
5.50036e-05
5.4882e-05
5.50555e-05
5.55693e-05
5.53569e-05
5.57507e-05
5.64394e-05
5.4793e-05
5.49956e-05
5.52241e-05
5.66005e-05
5.6728e-05
5.70795e-05
5.5476e-05
5.57137e-05
5.58311e-05
5.59796e-05
5.70978e-05
5.71268e-05
5.52727e-05
5.52361e-05
5.58218e-05
5.58839e-05
5.54647e-05
5.59107e-05
5.5793e-05
5.67255e-05
5.73262e-05
5.54321e-05
5.6056e-05
5.5971e-05
5.71155e-05
5.70879e-05
5.65622e-05
5.58367e-05
5.59825e-05
5.56337e-05
5.58386e-05
5.7127e-05
5.69522e-05
5.58391e-05
5.58881e-05
5.56117e-05
5.55935e-05
5.58287e-05
5.58422e-05
5.57852e-05
5.73136e-05
5.65642e-05
5.60172e-05
5.57849e-05
5.59155e-05
5.68106e-05
5.64898e-05
5.64193e-05
5.54914e-05
5.57458e-05
5.53553e-05
5.53841e-05
5.69308e-05
5.63843e-05
5.54522e-05
5.54589e-05
5.53411e-05
5.53492e-05
5.57081e-05
5.54646e-05
5.56599e-05
5.65004e-05
5.63894e-05
5.57742e-05
5.53637e-05
5.56174e-05
5.6729e-05
5.66292e-05
5.80435e-05
5.54354e-05
5.53688e-05
5.66468e-05
5.62217e-05
5.637e-05
5.75753e-05
5.54534e-05
5.54215e-05
5.6704e-05
5.65995e-05
5.57598e-05
5.62048e-05
5.66571e-05
5.65264e-05
5.79074e-05
5.56622e-05
5.64707e-05
5.65831e-05
5.80113e-05
5.81991e-05
5.81423e-05
5.69544e-05
5.67564e-05
5.71953e-05
5.74072e-05
5.78966e-05
5.86326e-05
5.69723e-05
5.69405e-05
5.71378e-05
5.72581e-05
5.68181e-05
5.73375e-05
5.68121e-05
5.81263e-05
5.84243e-05
5.68034e-05
5.72838e-05
5.68496e-05
5.76515e-05
5.80455e-05
5.71923e-05
5.71429e-05
5.73873e-05
5.64531e-05
5.64936e-05
5.86069e-05
5.71572e-05
5.70653e-05
5.72122e-05
5.64306e-05
5.6391e-05
5.66231e-05
5.64215e-05
5.60062e-05
5.83187e-05
5.70897e-05
5.66808e-05
5.63379e-05
5.60088e-05
5.66695e-05
5.71605e-05
5.74453e-05
5.62982e-05
5.61921e-05
5.62466e-05
5.60147e-05
5.70116e-05
5.69731e-05
5.63152e-05
5.61934e-05
5.63248e-05
5.61624e-05
5.59735e-05
5.60554e-05
5.65839e-05
5.6997e-05
5.72516e-05
5.59674e-05
5.6142e-05
5.65508e-05
5.80338e-05
5.76381e-05
5.84946e-05
5.63865e-05
5.61574e-05
5.7343e-05
5.74548e-05
5.72745e-05
5.8764e-05
5.65275e-05
5.64044e-05
5.73704e-05
5.75337e-05
5.70906e-05
5.75771e-05
5.78585e-05
5.75551e-05
5.87625e-05
5.70798e-05
5.76349e-05
5.78993e-05
5.91019e-05
5.85763e-05
5.84191e-05
5.75192e-05
5.76625e-05
5.75793e-05
5.76173e-05
5.88787e-05
5.83499e-05
5.75152e-05
5.76796e-05
5.75457e-05
5.76047e-05
5.78744e-05
5.75887e-05
5.73308e-05
5.88395e-05
5.83342e-05
5.79197e-05
5.76045e-05
5.7368e-05
5.79768e-05
5.83244e-05
5.74696e-05
5.74628e-05
5.73046e-05
5.66802e-05
5.63496e-05
5.81389e-05
5.69479e-05
5.74113e-05
5.73177e-05
5.66712e-05
5.6536e-05
5.69733e-05
5.62377e-05
5.62914e-05
5.81717e-05
5.72481e-05
5.69855e-05
5.64282e-05
5.62647e-05
5.70933e-05
5.74127e-05
5.73679e-05
5.65006e-05
5.62119e-05
5.63695e-05
5.63546e-05
5.68931e-05
5.76556e-05
5.65081e-05
5.64144e-05
5.6384e-05
5.64469e-05
5.61495e-05
5.63242e-05
5.61066e-05
5.72132e-05
5.76457e-05
5.61251e-05
5.64213e-05
5.60935e-05
5.71647e-05
5.75408e-05
5.88744e-05
5.64788e-05
5.68435e-05
5.77143e-05
5.82215e-05
5.80463e-05
5.96218e-05
5.64796e-05
5.67148e-05
5.76122e-05
5.77278e-05
5.63584e-05
5.83115e-05
5.79563e-05
5.79218e-05
5.90163e-05
5.63493e-05
5.78113e-05
5.78746e-05
5.91205e-05
5.90596e-05
5.92547e-05
5.80258e-05
5.84485e-05
5.82326e-05
5.84217e-05
5.9762e-05
5.92065e-05
5.79066e-05
5.78962e-05
5.81128e-05
5.78697e-05
5.83265e-05
5.8521e-05
5.86545e-05
5.91078e-05
5.86206e-05
5.82245e-05
5.79407e-05
5.85453e-05
5.98053e-05
5.90488e-05
5.71414e-05
5.80888e-05
5.8016e-05
5.64142e-05
5.6088e-05
5.88662e-05
5.66799e-05
5.79911e-05
5.75855e-05
5.64935e-05
5.64133e-05
5.85401e-05
5.60723e-05
5.64838e-05
5.84111e-05
5.71335e-05
5.84502e-05
5.64299e-05
5.65796e-05
5.71737e-05
5.6984e-05
5.6781e-05
5.60341e-05
5.57236e-05
5.56983e-05
5.53912e-05
5.65255e-05
5.63569e-05
5.61504e-05
5.62303e-05
5.58599e-05
5.61902e-05
5.59174e-05
5.53062e-05
5.52398e-05
5.70847e-05
5.74402e-05
5.6045e-05
5.61391e-05
5.53944e-05
5.60594e-05
5.69656e-05
5.8322e-05
5.57574e-05
5.54507e-05
5.70085e-05
5.701e-05
5.65435e-05
5.84025e-05
5.59207e-05
5.63835e-05
5.70112e-05
5.72233e-05
5.52836e-05
5.70613e-05
5.7107e-05
5.76617e-05
5.85718e-05
5.54363e-05
5.72904e-05
5.71261e-05
5.86273e-05
5.85284e-05
5.91794e-05
5.73828e-05
5.7521e-05
5.80594e-05
5.85255e-05
5.87196e-05
5.99639e-05
5.73238e-05
5.73968e-05
5.78913e-05
5.7694e-05
5.77673e-05
5.86945e-05
5.87592e-05
5.86712e-05
5.89028e-05
5.77454e-05
5.78599e-05
5.86224e-05
6.02544e-05
5.92915e-05
5.87094e-05
5.82083e-05
5.87002e-05
5.79928e-05
5.82283e-05
6.01123e-05
5.86738e-05
5.80271e-05
5.77305e-05
5.78292e-05
5.70699e-05
5.87598e-05
5.79357e-05
5.66145e-05
5.89194e-05
5.75555e-05
5.86054e-05
5.65487e-05
5.63373e-05
5.69009e-05
5.82535e-05
5.53585e-05
5.72592e-05
5.71218e-05
5.45297e-05
5.40866e-05
5.79961e-05
5.45272e-05
5.715e-05
5.63656e-05
5.45844e-05
5.44682e-05
5.55417e-05
5.38423e-05
5.34529e-05
5.7189e-05
5.51481e-05
5.53474e-05
5.42247e-05
5.3477e-05
5.39599e-05
5.5055e-05
5.33059e-05
5.28957e-05
5.43093e-05
5.33656e-05
5.33848e-05
4.4255e-05
4.45921e-05
4.41826e-05
5.25691e-05
5.50027e-05
5.26216e-05
1.62106e-07
2.53653e-07
8.33535e-08
1.18699e-07
2.61859e-07
2.79276e-07
1.30834e-07
1.2702e-07
2.54912e-07
3.04391e-07
1.2254e-07
3.03192e-06
3.59286e-07
4.28778e-07
6.88447e-07
2.96539e-07
5.05389e-06
2.56003e-07
6.74274e-06
1.30709e-05
2.04467e-05
3.56793e-07
5.4756e-06
3.19132e-07
7.18464e-06
1.5182e-07
1.68925e-07
2.40186e-07
1.72786e-07
1.51721e-07
1.69035e-07
2.41013e-07
2.45751e-07
5.1888e-07
2.15957e-07
2.55966e-07
2.51078e-07
5.07133e-07
2.14743e-07
1.45914e-05
2.26842e-05
2.35619e-07
2.26847e-07
2.06297e-06
2.8999e-07
2.40643e-07
2.26119e-07
1.57582e-06
1.9321e-06
2.01545e-06
3.44096e-07
1.90926e-06
1.98574e-06
4.96659e-07
9.99229e-06
4.11002e-07
1.26503e-05
3.54504e-05
4.533e-05
5.50025e-07
1.07773e-05
4.64296e-07
1.32595e-05
1.50887e-07
1.6735e-07
2.39195e-07
1.68356e-07
1.48299e-07