/*--------------------------------*- C++ -*----------------------------------*\
| =========                 |                                                 |
| \\      /  F ield         | OpenFOAM: The Open Source CFD Toolbox           |
|  \\    /   O peration     | Version:  v2012                                 |
|   \\  /    A nd           | Website:  www.openfoam.com                      |
|    \\/     M anipulation  |                                                 |
\*---------------------------------------------------------------------------*/
FoamFile
{
    version     2.0;
    format      ascii;
    class       volScalarField;
    location    "3950.5";
    object      p;
}
// * * * * * * * * * * * * * * * * * * * * * * * * * * * * * * * * * * * * * //

dimensions      [0 2 -2 0 0 0 0];


internalField   nonuniform List<scalar> 
247104
(
1.80126e-07
1.80119e-07
1.80265e-07
1.80357e-07
1.80393e-07
1.80348e-07
1.80254e-07
1.80108e-07
1.80119e-07
1.80322e-07
1.80514e-07
1.80616e-07
1.80641e-07
1.80608e-07
1.80494e-07
1.803e-07
1.80265e-07
1.80514e-07
1.80668e-07
1.80715e-07
1.80724e-07
1.80713e-07
1.80656e-07
1.80485e-07
1.80244e-07
1.80357e-07
1.80616e-07
1.80715e-07
1.80733e-07
1.80734e-07
1.80733e-07
1.8071e-07
1.80592e-07
1.80326e-07
1.80126e-07
1.80393e-07
1.80641e-07
1.80724e-07
1.80734e-07
1.80732e-07
1.80734e-07
1.8072e-07
1.8062e-07
1.80359e-07
1.80348e-07
1.80608e-07
1.80713e-07
1.80733e-07
1.80734e-07
1.80732e-07
1.80706e-07
1.80584e-07
1.80318e-07
1.80254e-07
1.80494e-07
1.80656e-07
1.8071e-07
1.8072e-07
1.80706e-07
1.80643e-07
1.80465e-07
1.80236e-07
1.80108e-07
1.803e-07
1.80485e-07
1.80592e-07
1.8062e-07
1.80584e-07
1.80465e-07
1.80282e-07
1.80244e-07
1.80327e-07
1.80359e-07
1.80318e-07
1.80236e-07
1.77628e-07
1.77603e-07
1.7755e-07
1.77335e-07
1.77352e-07
1.77377e-07
1.77388e-07
1.77634e-07
1.77612e-07
1.7755e-07
1.77339e-07
1.77172e-07
1.77187e-07
1.77187e-07
1.77172e-07
1.77446e-07
1.77461e-07
1.77335e-07
1.77172e-07
1.77209e-07
1.77211e-07
1.77211e-07
1.77209e-07
1.77172e-07
1.77657e-07
1.77701e-07
1.77628e-07
1.77352e-07
1.77187e-07
1.77211e-07
1.77218e-07
1.77218e-07
1.77211e-07
1.77187e-07
1.77699e-07
1.77724e-07
1.77603e-07
1.77377e-07
1.77187e-07
1.77211e-07
1.77218e-07
1.77218e-07
1.77211e-07
1.77187e-07
1.77688e-07
1.7751e-07
1.77388e-07
1.77172e-07
1.77209e-07
1.77211e-07
1.77211e-07
1.77209e-07
1.77172e-07
1.77678e-07
1.77757e-07
1.77634e-07
1.77446e-07
1.77172e-07
1.77187e-07
1.77187e-07
1.77172e-07
1.77731e-07
1.77598e-07
1.77674e-07
1.77612e-07
1.77461e-07
1.77657e-07
1.77699e-07
1.77688e-07
1.77678e-07
1.77598e-07
1.77812e-07
1.77701e-07
1.77724e-07
1.7751e-07
1.77757e-07
1.77674e-07
1.75634e-07
1.75626e-07
1.75595e-07
1.75427e-07
1.75438e-07
1.75462e-07
1.75471e-07
1.75649e-07
1.75637e-07
1.75596e-07
1.75439e-07
1.75235e-07
1.75239e-07
1.75239e-07
1.75235e-07
1.755e-07
1.75518e-07
1.75427e-07
1.75235e-07
1.7525e-07
1.75248e-07
1.75248e-07
1.7525e-07
1.75235e-07
1.75659e-07
1.7569e-07
1.75634e-07
1.75438e-07
1.75239e-07
1.75248e-07
1.75248e-07
1.75248e-07
1.75248e-07
1.75239e-07
1.75679e-07
1.75688e-07
1.75626e-07
1.75462e-07
1.75239e-07
1.75248e-07
1.75248e-07
1.75248e-07
1.75248e-07
1.75239e-07
1.75664e-07
1.7556e-07
1.75471e-07
1.75235e-07
1.7525e-07
1.75248e-07
1.75248e-07
1.7525e-07
1.75235e-07
1.75665e-07
1.75711e-07
1.75649e-07
1.755e-07
1.75235e-07
1.75239e-07
1.75239e-07
1.75235e-07
1.75675e-07
1.75615e-07
1.7568e-07
1.75637e-07
1.75518e-07
1.75659e-07
1.75679e-07
1.75664e-07
1.75665e-07
1.75615e-07
1.75773e-07
1.7569e-07
1.75688e-07
1.7556e-07
1.75711e-07
1.7568e-07
1.73744e-07
1.73736e-07
1.73705e-07
1.73535e-07
1.73545e-07
1.7357e-07
1.73579e-07
1.7376e-07
1.73747e-07
1.73705e-07
1.73549e-07
1.7335e-07
1.73351e-07
1.73351e-07
1.7335e-07
1.73611e-07
1.73626e-07
1.73535e-07
1.7335e-07
1.73354e-07
1.73353e-07
1.73353e-07
1.73354e-07
1.7335e-07
1.73769e-07
1.73802e-07
1.73744e-07
1.73545e-07
1.73351e-07
1.73353e-07
1.73353e-07
1.73353e-07
1.73353e-07
1.73351e-07
1.73789e-07
1.73799e-07
1.73736e-07
1.7357e-07
1.73351e-07
1.73353e-07
1.73353e-07
1.73353e-07
1.73353e-07
1.73351e-07
1.73773e-07
1.73669e-07
1.73579e-07
1.7335e-07
1.73354e-07
1.73353e-07
1.73353e-07
1.73354e-07
1.7335e-07
1.73773e-07
1.73824e-07
1.7376e-07
1.73611e-07
1.7335e-07
1.73351e-07
1.73351e-07
1.7335e-07
1.73789e-07
1.73724e-07
1.73792e-07
1.73747e-07
1.73626e-07
1.73769e-07
1.73789e-07
1.73773e-07
1.73773e-07
1.73724e-07
1.73886e-07
1.73802e-07
1.73799e-07
1.73669e-07
1.73824e-07
1.73792e-07
1.71847e-07
1.71839e-07
1.71808e-07
1.71637e-07
1.71647e-07
1.71671e-07
1.71681e-07
1.71863e-07
1.7185e-07
1.71808e-07
1.7165e-07
1.71451e-07
1.71451e-07
1.71451e-07
1.71451e-07
1.71712e-07
1.71728e-07
1.71637e-07
1.71451e-07
1.71453e-07
1.71452e-07
1.71452e-07
1.71453e-07
1.71451e-07
1.71871e-07
1.71905e-07
1.71847e-07
1.71647e-07
1.71451e-07
1.71452e-07
1.71452e-07
1.71452e-07
1.71452e-07
1.71451e-07
1.71891e-07
1.71902e-07
1.71839e-07
1.71671e-07
1.71451e-07
1.71452e-07
1.71452e-07
1.71452e-07
1.71452e-07
1.71451e-07
1.71874e-07
1.71771e-07
1.71681e-07
1.71451e-07
1.71453e-07
1.71452e-07
1.71452e-07
1.71453e-07
1.71451e-07
1.71875e-07
1.71927e-07
1.71863e-07
1.71712e-07
1.71451e-07
1.71451e-07
1.71451e-07
1.71451e-07
1.71891e-07
1.71826e-07
1.71895e-07
1.7185e-07
1.71728e-07
1.71871e-07
1.71891e-07
1.71874e-07
1.71875e-07
1.71826e-07
1.71989e-07
1.71905e-07
1.71902e-07
1.71771e-07
1.71927e-07
1.71895e-07
1.69946e-07
1.69939e-07
1.69907e-07
1.69736e-07
1.69746e-07
1.69771e-07
1.69781e-07
1.69962e-07
1.69949e-07
1.69907e-07
1.6975e-07
1.69549e-07
1.6955e-07
1.6955e-07
1.69549e-07
1.69811e-07
1.69827e-07
1.69736e-07
1.69549e-07
1.69552e-07
1.69551e-07
1.69551e-07
1.69552e-07
1.69549e-07
1.6997e-07
1.70004e-07
1.69946e-07
1.69746e-07
1.6955e-07
1.69551e-07
1.6955e-07
1.6955e-07
1.69551e-07
1.6955e-07
1.6999e-07
1.70002e-07
1.69939e-07
1.69771e-07
1.6955e-07
1.69551e-07
1.6955e-07
1.6955e-07
1.69551e-07
1.6955e-07
1.69974e-07
1.69871e-07
1.69781e-07
1.69549e-07
1.69552e-07
1.69551e-07
1.69551e-07
1.69552e-07
1.69549e-07
1.69975e-07
1.70027e-07
1.69962e-07
1.69811e-07
1.69549e-07
1.6955e-07
1.6955e-07
1.69549e-07
1.6999e-07
1.69926e-07
1.69994e-07
1.69949e-07
1.69827e-07
1.6997e-07
1.6999e-07
1.69974e-07
1.69975e-07
1.69926e-07
1.70088e-07
1.70004e-07
1.70002e-07
1.69871e-07
1.70027e-07
1.69994e-07
1.68045e-07
1.68037e-07
1.68006e-07
1.67835e-07
1.67845e-07
1.67869e-07
1.6788e-07
1.68061e-07
1.68048e-07
1.68006e-07
1.67849e-07
1.67648e-07
1.67648e-07
1.67648e-07
1.67648e-07
1.6791e-07
1.67926e-07
1.67835e-07
1.67648e-07
1.67651e-07
1.6765e-07
1.6765e-07
1.67651e-07
1.67648e-07
1.68069e-07
1.68103e-07
1.68045e-07
1.67845e-07
1.67648e-07
1.6765e-07
1.67649e-07
1.67649e-07
1.6765e-07
1.67648e-07
1.68089e-07
1.68101e-07
1.68037e-07
1.67869e-07
1.67648e-07
1.6765e-07
1.67649e-07
1.67649e-07
1.6765e-07
1.67648e-07
1.68073e-07
1.6797e-07
1.6788e-07
1.67648e-07
1.67651e-07
1.6765e-07
1.6765e-07
1.67651e-07
1.67648e-07
1.68074e-07
1.68126e-07
1.68061e-07
1.6791e-07
1.67648e-07
1.67648e-07
1.67648e-07
1.67648e-07
1.68089e-07
1.68025e-07
1.68093e-07
1.68048e-07
1.67926e-07
1.68069e-07
1.68089e-07
1.68073e-07
1.68074e-07
1.68025e-07
1.68187e-07
1.68103e-07
1.68101e-07
1.6797e-07
1.68126e-07
1.68093e-07
1.66144e-07
1.66136e-07
1.66105e-07
1.65934e-07
1.65944e-07
1.65968e-07
1.65978e-07
1.6616e-07
1.66147e-07
1.66105e-07
1.65947e-07
1.65747e-07
1.65747e-07
1.65747e-07
1.65747e-07
1.66009e-07
1.66025e-07
1.65934e-07
1.65747e-07
1.6575e-07
1.65748e-07
1.65748e-07
1.6575e-07
1.65747e-07
1.66168e-07
1.66202e-07
1.66144e-07
1.65944e-07
1.65747e-07
1.65748e-07
1.65748e-07
1.65748e-07
1.65748e-07
1.65747e-07
1.66188e-07
1.66199e-07
1.66136e-07
1.65968e-07
1.65747e-07
1.65748e-07
1.65748e-07
1.65748e-07
1.65748e-07
1.65747e-07
1.66172e-07
1.66069e-07
1.65978e-07
1.65747e-07
1.6575e-07
1.65748e-07
1.65748e-07
1.6575e-07
1.65747e-07
1.66173e-07
1.66224e-07
1.6616e-07
1.66009e-07
1.65747e-07
1.65747e-07
1.65747e-07
1.65747e-07
1.66188e-07
1.66123e-07
1.66192e-07
1.66147e-07
1.66025e-07
1.66168e-07
1.66188e-07
1.66172e-07
1.66173e-07
1.66124e-07
1.66286e-07
1.66202e-07
1.66199e-07
1.66069e-07
1.66224e-07
1.66192e-07
1.64243e-07
1.64235e-07
1.64204e-07
1.64033e-07
1.64043e-07
1.64067e-07
1.64077e-07
1.64259e-07
1.64246e-07
1.64204e-07
1.64046e-07
1.63846e-07
1.63846e-07
1.63846e-07
1.63846e-07
1.64108e-07
1.64124e-07
1.64033e-07
1.63846e-07
1.63849e-07
1.63847e-07
1.63847e-07
1.63849e-07
1.63846e-07
1.64267e-07
1.64301e-07
1.64243e-07
1.64043e-07
1.63846e-07
1.63847e-07
1.63847e-07
1.63847e-07
1.63847e-07
1.63846e-07
1.64287e-07
1.64298e-07
1.64235e-07
1.64067e-07
1.63846e-07
1.63847e-07
1.63847e-07
1.63847e-07
1.63847e-07
1.63846e-07
1.6427e-07
1.64167e-07
1.64077e-07
1.63846e-07
1.63849e-07
1.63847e-07
1.63847e-07
1.63849e-07
1.63846e-07
1.64271e-07
1.64323e-07
1.64259e-07
1.64108e-07
1.63846e-07
1.63846e-07
1.63846e-07
1.63846e-07
1.64287e-07
1.64222e-07
1.64291e-07
1.64246e-07
1.64124e-07
1.64267e-07
1.64287e-07
1.64271e-07
1.64271e-07
1.64222e-07
1.64385e-07
1.64301e-07
1.64298e-07
1.64167e-07
1.64323e-07
1.64291e-07
1.62342e-07
1.62334e-07
1.62303e-07
1.62132e-07
1.62141e-07
1.62166e-07
1.62176e-07
1.62358e-07
1.62345e-07
1.62303e-07
1.62145e-07
1.61944e-07
1.61945e-07
1.61945e-07
1.61944e-07
1.62207e-07
1.62222e-07
1.62132e-07
1.61944e-07
1.61947e-07
1.61946e-07
1.61946e-07
1.61947e-07
1.61944e-07
1.62366e-07
1.624e-07
1.62342e-07
1.62141e-07
1.61945e-07
1.61946e-07
1.61945e-07
1.61945e-07
1.61946e-07
1.61945e-07
1.62385e-07
1.62397e-07
1.62334e-07
1.62166e-07
1.61945e-07
1.61946e-07
1.61945e-07
1.61945e-07
1.61946e-07
1.61945e-07
1.62369e-07
1.62266e-07
1.62176e-07
1.61944e-07
1.61947e-07
1.61946e-07
1.61946e-07
1.61947e-07
1.61944e-07
1.6237e-07
1.62422e-07
1.62358e-07
1.62207e-07
1.61944e-07
1.61945e-07
1.61945e-07
1.61944e-07
1.62385e-07
1.62321e-07
1.6239e-07
1.62345e-07
1.62222e-07
1.62366e-07
1.62385e-07
1.62369e-07
1.6237e-07
1.62321e-07
1.62484e-07
1.624e-07
1.62397e-07
1.62266e-07
1.62422e-07
1.6239e-07
1.6044e-07
1.60433e-07
1.60401e-07
1.6023e-07
1.6024e-07
1.60265e-07
1.60275e-07
1.60456e-07
1.60444e-07
1.60401e-07
1.60244e-07
1.60043e-07
1.60044e-07
1.60044e-07
1.60043e-07
1.60306e-07
1.60321e-07
1.6023e-07
1.60043e-07
1.60046e-07
1.60045e-07
1.60045e-07
1.60046e-07
1.60043e-07
1.60464e-07
1.60498e-07
1.6044e-07
1.6024e-07
1.60044e-07
1.60045e-07
1.60044e-07
1.60044e-07
1.60045e-07
1.60044e-07
1.60484e-07
1.60496e-07
1.60433e-07
1.60265e-07
1.60044e-07
1.60045e-07
1.60044e-07
1.60044e-07
1.60045e-07
1.60044e-07
1.60468e-07
1.60365e-07
1.60275e-07
1.60043e-07
1.60046e-07
1.60045e-07
1.60045e-07
1.60046e-07
1.60043e-07
1.60469e-07
1.60521e-07
1.60456e-07
1.60306e-07
1.60043e-07
1.60044e-07
1.60044e-07
1.60043e-07
1.60484e-07
1.6042e-07
1.60488e-07
1.60444e-07
1.60321e-07
1.60464e-07
1.60484e-07
1.60468e-07
1.60469e-07
1.6042e-07
1.60583e-07
1.60498e-07
1.60496e-07
1.60365e-07
1.60521e-07
1.60488e-07
1.58539e-07
1.58532e-07
1.585e-07
1.58329e-07
1.58339e-07
1.58363e-07
1.58374e-07
1.58555e-07
1.58542e-07
1.585e-07
1.58343e-07
1.58142e-07
1.58142e-07
1.58142e-07
1.58142e-07
1.58404e-07
1.5842e-07
1.58329e-07
1.58142e-07
1.58145e-07
1.58144e-07
1.58144e-07
1.58145e-07
1.58142e-07
1.58563e-07
1.58597e-07
1.58539e-07
1.58339e-07
1.58142e-07
1.58144e-07
1.58143e-07
1.58143e-07
1.58144e-07
1.58142e-07
1.58583e-07
1.58595e-07
1.58532e-07
1.58363e-07
1.58142e-07
1.58144e-07
1.58143e-07
1.58143e-07
1.58144e-07
1.58142e-07
1.58567e-07
1.58464e-07
1.58374e-07
1.58142e-07
1.58145e-07
1.58144e-07
1.58144e-07
1.58145e-07
1.58142e-07
1.58568e-07
1.5862e-07
1.58555e-07
1.58404e-07
1.58142e-07
1.58142e-07
1.58142e-07
1.58142e-07
1.58583e-07
1.58519e-07
1.58587e-07
1.58542e-07
1.5842e-07
1.58563e-07
1.58583e-07
1.58567e-07
1.58568e-07
1.58519e-07
1.58681e-07
1.58597e-07
1.58595e-07
1.58464e-07
1.5862e-07
1.58587e-07
1.56638e-07
1.5663e-07
1.56599e-07
1.56428e-07
1.56438e-07
1.56462e-07
1.56472e-07
1.56654e-07
1.56641e-07
1.56599e-07
1.56441e-07
1.56241e-07
1.56241e-07
1.56241e-07
1.56241e-07
1.56503e-07
1.56519e-07
1.56428e-07
1.56241e-07
1.56244e-07
1.56242e-07
1.56242e-07
1.56244e-07
1.56241e-07
1.56662e-07
1.56696e-07
1.56638e-07
1.56438e-07
1.56241e-07
1.56242e-07
1.56242e-07
1.56242e-07
1.56242e-07
1.56241e-07
1.56682e-07
1.56693e-07
1.5663e-07
1.56462e-07
1.56241e-07
1.56242e-07
1.56242e-07
1.56242e-07
1.56242e-07
1.56241e-07
1.56666e-07
1.56563e-07
1.56472e-07
1.56241e-07
1.56244e-07
1.56242e-07
1.56242e-07
1.56244e-07
1.56241e-07
1.56667e-07
1.56719e-07
1.56654e-07
1.56503e-07
1.56241e-07
1.56241e-07
1.56241e-07
1.56241e-07
1.56682e-07
1.56618e-07
1.56686e-07
1.56641e-07
1.56519e-07
1.56662e-07
1.56682e-07
1.56666e-07
1.56667e-07
1.56618e-07
1.5678e-07
1.56696e-07
1.56693e-07
1.56563e-07
1.56719e-07
1.56686e-07
1.54737e-07
1.54729e-07
1.54698e-07
1.54527e-07
1.54537e-07
1.54561e-07
1.54571e-07
1.54753e-07
1.5474e-07
1.54698e-07
1.5454e-07
1.5434e-07
1.5434e-07
1.5434e-07
1.5434e-07
1.54602e-07
1.54618e-07
1.54527e-07
1.5434e-07
1.54343e-07
1.54341e-07
1.54341e-07
1.54343e-07
1.5434e-07
1.54761e-07
1.54795e-07
1.54737e-07
1.54537e-07
1.5434e-07
1.54341e-07
1.54341e-07
1.54341e-07
1.54341e-07
1.5434e-07
1.54781e-07
1.54792e-07
1.54729e-07
1.54561e-07
1.5434e-07
1.54341e-07
1.54341e-07
1.54341e-07
1.54341e-07
1.5434e-07
1.54765e-07
1.54662e-07
1.54571e-07
1.5434e-07
1.54343e-07
1.54341e-07
1.54341e-07
1.54343e-07
1.5434e-07
1.54765e-07
1.54817e-07
1.54753e-07
1.54602e-07
1.5434e-07
1.5434e-07
1.5434e-07
1.5434e-07
1.54781e-07
1.54716e-07
1.54785e-07
1.5474e-07
1.54618e-07
1.54761e-07
1.54781e-07
1.54765e-07
1.54765e-07
1.54716e-07
1.54879e-07
1.54795e-07
1.54792e-07
1.54662e-07
1.54817e-07
1.54785e-07
1.52836e-07
1.52828e-07
1.52797e-07
1.52626e-07
1.52635e-07
1.5266e-07
1.5267e-07
1.52852e-07
1.52839e-07
1.52797e-07
1.52639e-07
1.52439e-07
1.52439e-07
1.52439e-07
1.52439e-07
1.52701e-07
1.52717e-07
1.52626e-07
1.52439e-07
1.52441e-07
1.5244e-07
1.5244e-07
1.52441e-07
1.52439e-07
1.5286e-07
1.52894e-07
1.52836e-07
1.52635e-07
1.52439e-07
1.5244e-07
1.5244e-07
1.5244e-07
1.5244e-07
1.52439e-07
1.52879e-07
1.52891e-07
1.52828e-07
1.5266e-07
1.52439e-07
1.5244e-07
1.5244e-07
1.5244e-07
1.5244e-07
1.52439e-07
1.52863e-07
1.5276e-07
1.5267e-07
1.52439e-07
1.52441e-07
1.5244e-07
1.5244e-07
1.52441e-07
1.52439e-07
1.52864e-07
1.52916e-07
1.52852e-07
1.52701e-07
1.52439e-07
1.52439e-07
1.52439e-07
1.52439e-07
1.52879e-07
1.52815e-07
1.52884e-07
1.52839e-07
1.52717e-07
1.5286e-07
1.52879e-07
1.52863e-07
1.52864e-07
1.52815e-07
1.52978e-07
1.52894e-07
1.52891e-07
1.5276e-07
1.52916e-07
1.52884e-07
1.50935e-07
1.50927e-07
1.50895e-07
1.50724e-07
1.50734e-07
1.50759e-07
1.50769e-07
1.50951e-07
1.50938e-07
1.50895e-07
1.50738e-07
1.50537e-07
1.50538e-07
1.50538e-07
1.50537e-07
1.508e-07
1.50815e-07
1.50724e-07
1.50537e-07
1.5054e-07
1.50539e-07
1.50539e-07
1.5054e-07
1.50537e-07
1.50959e-07
1.50992e-07
1.50935e-07
1.50734e-07
1.50538e-07
1.50539e-07
1.50538e-07
1.50538e-07
1.50539e-07
1.50538e-07
1.50978e-07
1.5099e-07
1.50927e-07
1.50759e-07
1.50538e-07
1.50539e-07
1.50538e-07
1.50538e-07
1.50539e-07
1.50538e-07
1.50962e-07
1.50859e-07
1.50769e-07
1.50537e-07
1.5054e-07
1.50539e-07
1.50539e-07
1.5054e-07
1.50537e-07
1.50963e-07
1.51015e-07
1.50951e-07
1.508e-07
1.50537e-07
1.50538e-07
1.50538e-07
1.50537e-07
1.50978e-07
1.50914e-07
1.50983e-07
1.50938e-07
1.50815e-07
1.50959e-07
1.50978e-07
1.50962e-07
1.50963e-07
1.50914e-07
1.51077e-07
1.50992e-07
1.5099e-07
1.50859e-07
1.51015e-07
1.50983e-07
1.49033e-07
1.49026e-07
1.48994e-07
1.48823e-07
1.48833e-07
1.48858e-07
1.48868e-07
1.49049e-07
1.49036e-07
1.48994e-07
1.48837e-07
1.48636e-07
1.48636e-07
1.48636e-07
1.48636e-07
1.48898e-07
1.48914e-07
1.48823e-07
1.48636e-07
1.48639e-07
1.48638e-07
1.48638e-07
1.48639e-07
1.48636e-07
1.49057e-07
1.49091e-07
1.49033e-07
1.48833e-07
1.48636e-07
1.48638e-07
1.48637e-07
1.48637e-07
1.48638e-07
1.48636e-07
1.49077e-07
1.49089e-07
1.49026e-07
1.48858e-07
1.48636e-07
1.48638e-07
1.48637e-07
1.48637e-07
1.48638e-07
1.48636e-07
1.49061e-07
1.48958e-07
1.48868e-07
1.48636e-07
1.48639e-07
1.48638e-07
1.48638e-07
1.48639e-07
1.48636e-07
1.49062e-07
1.49114e-07
1.49049e-07
1.48898e-07
1.48636e-07
1.48636e-07
1.48636e-07
1.48636e-07
1.49077e-07
1.49013e-07
1.49081e-07
1.49036e-07
1.48914e-07
1.49057e-07
1.49077e-07
1.49061e-07
1.49062e-07
1.49013e-07
1.49176e-07
1.49091e-07
1.49089e-07
1.48958e-07
1.49114e-07
1.49081e-07
1.47132e-07
1.47124e-07
1.47093e-07
1.46922e-07
1.46932e-07
1.46956e-07
1.46966e-07
1.47148e-07
1.47135e-07
1.47093e-07
1.46935e-07
1.46735e-07
1.46735e-07
1.46735e-07
1.46735e-07
1.46997e-07
1.47013e-07
1.46922e-07
1.46735e-07
1.46738e-07
1.46736e-07
1.46736e-07
1.46738e-07
1.46735e-07
1.47156e-07
1.4719e-07
1.47132e-07
1.46932e-07
1.46735e-07
1.46736e-07
1.46736e-07
1.46736e-07
1.46736e-07
1.46735e-07
1.47176e-07
1.47187e-07
1.47124e-07
1.46956e-07
1.46735e-07
1.46736e-07
1.46736e-07
1.46736e-07
1.46736e-07
1.46735e-07
1.4716e-07
1.47057e-07
1.46966e-07
1.46735e-07
1.46738e-07
1.46736e-07
1.46736e-07
1.46738e-07
1.46735e-07
1.47161e-07
1.47212e-07
1.47148e-07
1.46997e-07
1.46735e-07
1.46735e-07
1.46735e-07
1.46735e-07
1.47176e-07
1.47112e-07
1.4718e-07
1.47135e-07
1.47013e-07
1.47156e-07
1.47176e-07
1.4716e-07
1.47161e-07
1.47112e-07
1.47274e-07
1.4719e-07
1.47187e-07
1.47057e-07
1.47212e-07
1.4718e-07
1.45231e-07
1.45223e-07
1.45192e-07
1.45021e-07
1.4503e-07
1.45055e-07
1.45065e-07
1.45247e-07
1.45234e-07
1.45192e-07
1.45034e-07
1.44833e-07
1.44834e-07
1.44834e-07
1.44833e-07
1.45096e-07
1.45111e-07
1.45021e-07
1.44833e-07
1.44836e-07
1.44835e-07
1.44835e-07
1.44836e-07
1.44833e-07
1.45255e-07
1.45289e-07
1.45231e-07
1.4503e-07
1.44834e-07
1.44835e-07
1.44834e-07
1.44834e-07
1.44835e-07
1.44834e-07
1.45274e-07
1.45286e-07
1.45223e-07
1.45055e-07
1.44834e-07
1.44835e-07
1.44834e-07
1.44834e-07
1.44835e-07
1.44834e-07
1.45258e-07
1.45155e-07
1.45065e-07
1.44833e-07
1.44836e-07
1.44835e-07
1.44835e-07
1.44836e-07
1.44833e-07
1.45259e-07
1.45311e-07
1.45247e-07
1.45096e-07
1.44833e-07
1.44834e-07
1.44834e-07
1.44833e-07
1.45274e-07
1.4521e-07
1.45279e-07
1.45234e-07
1.45111e-07
1.45255e-07
1.45274e-07
1.45258e-07
1.45259e-07
1.4521e-07
1.45373e-07
1.45289e-07
1.45286e-07
1.45155e-07
1.45311e-07
1.45279e-07
1.43329e-07
1.43322e-07
1.4329e-07
1.43119e-07
1.43129e-07
1.43154e-07
1.43164e-07
1.43345e-07
1.43332e-07
1.4329e-07
1.43133e-07
1.42932e-07
1.42932e-07
1.42932e-07
1.42932e-07
1.43194e-07
1.4321e-07
1.43119e-07
1.42932e-07
1.42935e-07
1.42934e-07
1.42934e-07
1.42935e-07
1.42932e-07
1.43353e-07
1.43387e-07
1.43329e-07
1.43129e-07
1.42932e-07
1.42934e-07
1.42933e-07
1.42933e-07
1.42934e-07
1.42932e-07
1.43373e-07
1.43385e-07
1.43322e-07
1.43154e-07
1.42932e-07
1.42934e-07
1.42933e-07
1.42933e-07
1.42934e-07
1.42932e-07
1.43357e-07
1.43254e-07
1.43164e-07
1.42932e-07
1.42935e-07
1.42934e-07
1.42934e-07
1.42935e-07
1.42932e-07
1.43358e-07
1.4341e-07
1.43345e-07
1.43194e-07
1.42932e-07
1.42932e-07
1.42932e-07
1.42932e-07
1.43373e-07
1.43309e-07
1.43377e-07
1.43333e-07
1.4321e-07
1.43353e-07
1.43373e-07
1.43357e-07
1.43358e-07
1.43309e-07
1.43472e-07
1.43387e-07
1.43385e-07
1.43254e-07
1.4341e-07
1.43377e-07
1.41428e-07
1.4142e-07
1.41389e-07
1.41218e-07
1.41228e-07
1.41252e-07
1.41262e-07
1.41444e-07
1.41431e-07
1.41389e-07
1.41231e-07
1.41031e-07
1.41031e-07
1.41031e-07
1.41031e-07
1.41293e-07
1.41309e-07
1.41218e-07
1.41031e-07
1.41034e-07
1.41032e-07
1.41032e-07
1.41034e-07
1.41031e-07
1.41452e-07
1.41486e-07
1.41428e-07
1.41228e-07
1.41031e-07
1.41032e-07
1.41032e-07
1.41032e-07
1.41032e-07
1.41031e-07
1.41472e-07
1.41483e-07
1.4142e-07
1.41252e-07
1.41031e-07
1.41032e-07
1.41032e-07
1.41032e-07
1.41032e-07
1.41031e-07
1.41456e-07
1.41353e-07
1.41262e-07
1.41031e-07
1.41034e-07
1.41032e-07
1.41032e-07
1.41034e-07
1.41031e-07
1.41456e-07
1.41508e-07
1.41444e-07
1.41293e-07
1.41031e-07
1.41031e-07
1.41031e-07
1.41031e-07
1.41472e-07
1.41407e-07
1.41476e-07
1.41431e-07
1.41309e-07
1.41452e-07
1.41472e-07
1.41456e-07
1.41456e-07
1.41407e-07
1.4157e-07
1.41486e-07
1.41483e-07
1.41353e-07
1.41508e-07
1.41476e-07
1.39527e-07
1.39519e-07
1.39487e-07
1.39316e-07
1.39326e-07
1.39351e-07
1.39361e-07
1.39543e-07
1.3953e-07
1.39487e-07
1.3933e-07
1.39129e-07
1.3913e-07
1.3913e-07
1.39129e-07
1.39392e-07
1.39407e-07
1.39316e-07
1.39129e-07
1.39132e-07
1.39131e-07
1.39131e-07
1.39132e-07
1.39129e-07
1.39551e-07
1.39585e-07
1.39527e-07
1.39326e-07
1.3913e-07
1.39131e-07
1.3913e-07
1.3913e-07
1.39131e-07
1.3913e-07
1.3957e-07
1.39582e-07
1.39519e-07
1.39351e-07
1.3913e-07
1.39131e-07
1.3913e-07
1.3913e-07
1.39131e-07
1.3913e-07
1.39554e-07
1.39451e-07
1.39361e-07
1.39129e-07
1.39132e-07
1.39131e-07
1.39131e-07
1.39132e-07
1.39129e-07
1.39555e-07
1.39607e-07
1.39543e-07
1.39392e-07
1.39129e-07
1.3913e-07
1.3913e-07
1.39129e-07
1.3957e-07
1.39506e-07
1.39575e-07
1.3953e-07
1.39407e-07
1.39551e-07
1.3957e-07
1.39554e-07
1.39555e-07
1.39506e-07
1.39669e-07
1.39585e-07
1.39582e-07
1.39451e-07
1.39607e-07
1.39575e-07
1.37625e-07
1.37618e-07
1.37586e-07
1.37415e-07
1.37425e-07
1.37449e-07
1.3746e-07
1.37641e-07
1.37628e-07
1.37586e-07
1.37429e-07
1.37228e-07
1.37228e-07
1.37228e-07
1.37228e-07
1.3749e-07
1.37506e-07
1.37415e-07
1.37228e-07
1.37231e-07
1.37229e-07
1.37229e-07
1.37231e-07
1.37228e-07
1.37649e-07
1.37683e-07
1.37625e-07
1.37425e-07
1.37228e-07
1.37229e-07
1.37229e-07
1.37229e-07
1.37229e-07
1.37228e-07
1.37669e-07
1.37681e-07
1.37618e-07
1.37449e-07
1.37228e-07
1.37229e-07
1.37229e-07
1.37229e-07
1.37229e-07
1.37228e-07
1.37653e-07
1.3755e-07
1.3746e-07
1.37228e-07
1.37231e-07
1.37229e-07
1.37229e-07
1.37231e-07
1.37228e-07
1.37654e-07
1.37706e-07
1.37641e-07
1.3749e-07
1.37228e-07
1.37228e-07
1.37228e-07
1.37228e-07
1.37669e-07
1.37605e-07
1.37673e-07
1.37628e-07
1.37506e-07
1.37649e-07
1.37669e-07
1.37653e-07
1.37654e-07
1.37605e-07
1.37767e-07
1.37683e-07
1.37681e-07
1.3755e-07
1.37706e-07
1.37673e-07
1.35724e-07
1.35716e-07
1.35685e-07
1.35514e-07
1.35524e-07
1.35548e-07
1.35558e-07
1.3574e-07
1.35727e-07
1.35685e-07
1.35527e-07
1.35327e-07
1.35327e-07
1.35327e-07
1.35327e-07
1.35589e-07
1.35605e-07
1.35514e-07
1.35327e-07
1.3533e-07
1.35328e-07
1.35328e-07
1.3533e-07
1.35327e-07
1.35748e-07
1.35782e-07
1.35724e-07
1.35524e-07
1.35327e-07
1.35328e-07
1.35328e-07
1.35328e-07
1.35328e-07
1.35327e-07
1.35768e-07
1.35779e-07
1.35716e-07
1.35548e-07
1.35327e-07
1.35328e-07
1.35328e-07
1.35328e-07
1.35328e-07
1.35327e-07
1.35751e-07
1.35648e-07
1.35558e-07
1.35327e-07
1.3533e-07
1.35328e-07
1.35328e-07
1.3533e-07
1.35327e-07
1.35752e-07
1.35804e-07
1.3574e-07
1.35589e-07
1.35327e-07
1.35327e-07
1.35327e-07
1.35327e-07
1.35768e-07
1.35703e-07
1.35772e-07
1.35727e-07
1.35605e-07
1.35748e-07
1.35768e-07
1.35752e-07
1.35752e-07
1.35703e-07
1.35866e-07
1.35782e-07
1.35779e-07
1.35648e-07
1.35804e-07
1.35772e-07
1.33822e-07
1.33815e-07
1.33783e-07
1.33612e-07
1.33622e-07
1.33647e-07
1.33657e-07
1.33839e-07
1.33826e-07
1.33783e-07
1.33626e-07
1.33425e-07
1.33426e-07
1.33426e-07
1.33425e-07
1.33688e-07
1.33703e-07
1.33612e-07
1.33425e-07
1.33428e-07
1.33427e-07
1.33427e-07
1.33428e-07
1.33425e-07
1.33847e-07
1.3388e-07
1.33823e-07
1.33622e-07
1.33426e-07
1.33427e-07
1.33426e-07
1.33426e-07
1.33427e-07
1.33426e-07
1.33866e-07
1.33878e-07
1.33815e-07
1.33647e-07
1.33426e-07
1.33427e-07
1.33426e-07
1.33426e-07
1.33427e-07
1.33426e-07
1.3385e-07
1.33747e-07
1.33657e-07
1.33425e-07
1.33428e-07
1.33427e-07
1.33427e-07
1.33428e-07
1.33425e-07
1.33851e-07
1.33903e-07
1.33839e-07
1.33688e-07
1.33425e-07
1.33426e-07
1.33426e-07
1.33425e-07
1.33866e-07
1.33802e-07
1.3387e-07
1.33826e-07
1.33703e-07
1.33847e-07
1.33866e-07
1.3385e-07
1.33851e-07
1.33802e-07
1.33965e-07
1.3388e-07
1.33878e-07
1.33747e-07
1.33903e-07
1.33871e-07
1.31921e-07
1.31914e-07
1.31882e-07
1.31711e-07
1.31721e-07
1.31745e-07
1.31756e-07
1.31937e-07
1.31924e-07
1.31882e-07
1.31724e-07
1.31524e-07
1.31524e-07
1.31524e-07
1.31524e-07
1.31786e-07
1.31802e-07
1.31711e-07
1.31524e-07
1.31527e-07
1.31525e-07
1.31525e-07
1.31527e-07
1.31524e-07
1.31945e-07
1.31979e-07
1.31921e-07
1.31721e-07
1.31524e-07
1.31525e-07
1.31525e-07
1.31525e-07
1.31525e-07
1.31524e-07
1.31965e-07
1.31977e-07
1.31914e-07
1.31745e-07
1.31524e-07
1.31525e-07
1.31525e-07
1.31525e-07
1.31525e-07
1.31524e-07
1.31949e-07
1.31846e-07
1.31756e-07
1.31524e-07
1.31527e-07
1.31525e-07
1.31525e-07
1.31527e-07
1.31524e-07
1.3195e-07
1.32002e-07
1.31937e-07
1.31786e-07
1.31524e-07
1.31524e-07
1.31524e-07
1.31524e-07
1.31965e-07
1.31901e-07
1.31969e-07
1.31924e-07
1.31802e-07
1.31945e-07
1.31965e-07
1.31949e-07
1.3195e-07
1.31901e-07
1.32063e-07
1.31979e-07
1.31977e-07
1.31846e-07
1.32002e-07
1.31969e-07
1.3002e-07
1.30012e-07
1.29981e-07
1.2981e-07
1.2982e-07
1.29844e-07
1.29854e-07
1.30036e-07
1.30023e-07
1.29981e-07
1.29823e-07
1.29623e-07
1.29623e-07
1.29623e-07
1.29623e-07
1.29885e-07
1.29901e-07
1.2981e-07
1.29623e-07
1.29626e-07
1.29624e-07
1.29624e-07
1.29626e-07
1.29623e-07
1.30044e-07
1.30078e-07
1.3002e-07
1.2982e-07
1.29623e-07
1.29624e-07
1.29624e-07
1.29624e-07
1.29624e-07
1.29623e-07
1.30064e-07
1.30075e-07
1.30012e-07
1.29844e-07
1.29623e-07
1.29624e-07
1.29624e-07
1.29624e-07
1.29624e-07
1.29623e-07
1.30048e-07
1.29944e-07
1.29854e-07
1.29623e-07
1.29626e-07
1.29624e-07
1.29624e-07
1.29626e-07
1.29623e-07
1.30048e-07
1.301e-07
1.30036e-07
1.29885e-07
1.29623e-07
1.29623e-07
1.29623e-07
1.29623e-07
1.30064e-07
1.29999e-07
1.30068e-07
1.30023e-07
1.29901e-07
1.30044e-07
1.30064e-07
1.30048e-07
1.30048e-07
1.29999e-07
1.30162e-07
1.30078e-07
1.30075e-07
1.29944e-07
1.301e-07
1.30068e-07
1.28119e-07
1.28111e-07
1.28079e-07
1.27909e-07
1.27918e-07
1.27943e-07
1.27953e-07
1.28135e-07
1.28122e-07
1.2808e-07
1.27922e-07
1.27721e-07
1.27722e-07
1.27722e-07
1.27721e-07
1.27984e-07
1.27999e-07
1.27909e-07
1.27721e-07
1.27724e-07
1.27723e-07
1.27723e-07
1.27724e-07
1.27721e-07
1.28143e-07
1.28177e-07
1.28119e-07
1.27918e-07
1.27722e-07
1.27723e-07
1.27722e-07
1.27722e-07
1.27723e-07
1.27722e-07
1.28162e-07
1.28174e-07
1.28111e-07
1.27943e-07
1.27722e-07
1.27723e-07
1.27722e-07
1.27722e-07
1.27723e-07
1.27722e-07
1.28146e-07
1.28043e-07
1.27953e-07
1.27721e-07
1.27724e-07
1.27723e-07
1.27723e-07
1.27724e-07
1.27721e-07
1.28147e-07
1.28199e-07
1.28135e-07
1.27984e-07
1.27721e-07
1.27722e-07
1.27722e-07
1.27721e-07
1.28162e-07
1.28098e-07
1.28167e-07
1.28122e-07
1.27999e-07
1.28143e-07
1.28162e-07
1.28146e-07
1.28147e-07
1.28098e-07
1.28261e-07
1.28177e-07
1.28174e-07
1.28043e-07
1.28199e-07
1.28167e-07
1.26217e-07
1.2621e-07
1.26178e-07
1.26007e-07
1.26017e-07
1.26041e-07
1.26052e-07
1.26233e-07
1.2622e-07
1.26178e-07
1.26021e-07
1.2582e-07
1.2582e-07
1.2582e-07
1.2582e-07
1.26082e-07
1.26098e-07
1.26007e-07
1.2582e-07
1.25823e-07
1.25822e-07
1.25822e-07
1.25823e-07
1.2582e-07
1.26241e-07
1.26275e-07
1.26217e-07
1.26017e-07
1.2582e-07
1.25822e-07
1.25821e-07
1.25821e-07
1.25822e-07
1.2582e-07
1.26261e-07
1.26273e-07
1.2621e-07
1.26041e-07
1.2582e-07
1.25822e-07
1.25821e-07
1.25821e-07
1.25822e-07
1.2582e-07
1.26245e-07
1.26142e-07
1.26052e-07
1.2582e-07
1.25823e-07
1.25822e-07
1.25822e-07
1.25823e-07
1.2582e-07
1.26246e-07
1.26298e-07
1.26233e-07
1.26082e-07
1.2582e-07
1.2582e-07
1.2582e-07
1.2582e-07
1.26261e-07
1.26197e-07
1.26265e-07
1.2622e-07
1.26098e-07
1.26241e-07
1.26261e-07
1.26245e-07
1.26246e-07
1.26197e-07
1.2636e-07
1.26275e-07
1.26273e-07
1.26142e-07
1.26298e-07
1.26265e-07
1.24316e-07
1.24308e-07
1.24277e-07
1.24106e-07
1.24116e-07
1.2414e-07
1.2415e-07
1.24332e-07
1.24319e-07
1.24277e-07
1.24119e-07
1.23919e-07
1.23919e-07
1.23919e-07
1.23919e-07
1.24181e-07
1.24197e-07
1.24106e-07
1.23919e-07
1.23922e-07
1.2392e-07
1.2392e-07
1.23922e-07
1.23919e-07
1.2434e-07
1.24374e-07
1.24316e-07
1.24116e-07
1.23919e-07
1.2392e-07
1.2392e-07
1.2392e-07
1.2392e-07
1.23919e-07
1.2436e-07
1.24371e-07
1.24308e-07
1.2414e-07
1.23919e-07
1.2392e-07
1.2392e-07
1.2392e-07
1.2392e-07
1.23919e-07
1.24344e-07
1.24241e-07
1.2415e-07
1.23919e-07
1.23922e-07
1.2392e-07
1.2392e-07
1.23922e-07
1.23919e-07
1.24344e-07
1.24396e-07
1.24332e-07
1.24181e-07
1.23919e-07
1.23919e-07
1.23919e-07
1.23919e-07
1.2436e-07
1.24295e-07
1.24364e-07
1.24319e-07
1.24197e-07
1.2434e-07
1.2436e-07
1.24344e-07
1.24344e-07
1.24295e-07
1.24458e-07
1.24374e-07
1.24371e-07
1.24241e-07
1.24396e-07
1.24364e-07
1.22415e-07
1.22407e-07
1.22375e-07
1.22205e-07
1.22214e-07
1.22239e-07
1.22249e-07
1.22431e-07
1.22418e-07
1.22376e-07
1.22218e-07
1.22017e-07
1.22018e-07
1.22018e-07
1.22017e-07
1.2228e-07
1.22295e-07
1.22205e-07
1.22017e-07
1.2202e-07
1.22019e-07
1.22019e-07
1.2202e-07
1.22017e-07
1.22439e-07
1.22473e-07
1.22415e-07
1.22214e-07
1.22018e-07
1.22019e-07
1.22018e-07
1.22018e-07
1.22019e-07
1.22018e-07
1.22458e-07
1.2247e-07
1.22407e-07
1.22239e-07
1.22018e-07
1.22019e-07
1.22018e-07
1.22018e-07
1.22019e-07
1.22018e-07
1.22442e-07
1.22339e-07
1.22249e-07
1.22017e-07
1.2202e-07
1.22019e-07
1.22019e-07
1.2202e-07
1.22017e-07
1.22443e-07
1.22495e-07
1.22431e-07
1.2228e-07
1.22017e-07
1.22018e-07
1.22018e-07
1.22017e-07
1.22458e-07
1.22394e-07
1.22463e-07
1.22418e-07
1.22295e-07
1.22439e-07
1.22458e-07
1.22442e-07
1.22443e-07
1.22394e-07
1.22557e-07
1.22473e-07
1.2247e-07
1.22339e-07
1.22495e-07
1.22463e-07
1.20513e-07
1.20506e-07
1.20474e-07
1.20303e-07
1.20313e-07
1.20338e-07
1.20348e-07
1.20529e-07
1.20517e-07
1.20474e-07
1.20317e-07
1.20116e-07
1.20117e-07
1.20117e-07
1.20116e-07
1.20378e-07
1.20394e-07
1.20303e-07
1.20116e-07
1.20119e-07
1.20118e-07
1.20118e-07
1.20119e-07
1.20116e-07
1.20537e-07
1.20571e-07
1.20513e-07
1.20313e-07
1.20117e-07
1.20118e-07
1.20117e-07
1.20117e-07
1.20118e-07
1.20117e-07
1.20557e-07
1.20569e-07
1.20506e-07
1.20338e-07
1.20117e-07
1.20118e-07
1.20117e-07
1.20117e-07
1.20118e-07
1.20117e-07
1.20541e-07
1.20438e-07
1.20348e-07
1.20116e-07
1.20119e-07
1.20118e-07
1.20118e-07
1.20119e-07
1.20116e-07
1.20542e-07
1.20594e-07
1.20529e-07
1.20378e-07
1.20116e-07
1.20117e-07
1.20117e-07
1.20116e-07
1.20557e-07
1.20493e-07
1.20561e-07
1.20517e-07
1.20394e-07