/*--------------------------------*- C++ -*----------------------------------*\
| =========                 |                                                 |
| \\      /  F ield         | OpenFOAM: The Open Source CFD Toolbox           |
|  \\    /   O peration     | Version:  v2012                                 |
|   \\  /    A nd           | Website:  www.openfoam.com                      |
|    \\/     M anipulation  |                                                 |
\*---------------------------------------------------------------------------*/
FoamFile
{
    version     2.0;
    format      ascii;
    class       volScalarField;
    location    "837.5";
    object      k;
}
// * * * * * * * * * * * * * * * * * * * * * * * * * * * * * * * * * * * * * //

dimensions      [0 2 -2 0 0 0 0];


internalField   nonuniform List<scalar> 
171728
(
1.73142e-07
2.58524e-07
3.15147e-07
3.59784e-07
1.71033e-07
2.46343e-07
3.05957e-07
3.73309e-07
1.66334e-07
2.34564e-07
2.95331e-07
3.96802e-07
1.62161e-07
2.24384e-07
2.85022e-07
3.81201e-07
1.56117e-07
2.15204e-07
2.74517e-07
2.96736e-07
1.49129e-07
2.064e-07
2.65676e-07
2.66044e-07
1.43283e-07
1.97908e-07
2.55192e-07
2.52689e-07
1.39676e-07
1.90169e-07
2.41815e-07
2.41452e-07
1.37281e-07
1.83397e-07
2.28974e-07
2.32114e-07
1.35029e-07
1.77389e-07
2.19825e-07
2.23615e-07
1.3255e-07
1.72148e-07
2.10829e-07
2.16406e-07
1.30128e-07
1.68089e-07
2.0008e-07
2.11452e-07
1.27785e-07
1.65974e-07
1.90303e-07
2.06908e-07
1.25513e-07
1.65444e-07
1.83608e-07
2.03136e-07
1.22995e-07
1.66347e-07
1.79805e-07
2.01419e-07
1.20651e-07
1.70391e-07
1.7984e-07
2.03503e-07
1.18401e-07
1.7964e-07
1.84777e-07
2.11312e-07
1.16539e-07
1.97334e-07
2.01189e-07
2.29712e-07
1.1504e-07
2.27289e-07
2.32149e-07
2.65811e-07
1.13501e-07
2.79051e-07
2.82496e-07
3.38626e-07
1.13155e-07
3.3958e-07
3.75568e-07
4.30468e-07
1.12135e-07
4.78968e-07
5.03702e-07
7.1993e-07
1.11854e-07
6.35385e-07
6.81121e-07
1.15442e-06
1.1288e-07
8.26619e-07
1.0074e-06
1.42286e-06
1.15584e-07
1.2639e-06
1.42885e-06
3.20386e-06
1.20555e-07
1.46953e-06
1.74318e-06
3.46893e-06
1.37144e-07
2.23654e-06
2.52157e-06
5.47474e-06
1.50945e-07
2.65007e-06
2.71292e-06
7.40774e-06
1.70877e-07
3.50132e-06
3.67896e-06
1.04225e-05
1.72031e-07
4.32639e-06
4.42814e-06
1.19597e-05
2.13259e-07
5.42824e-06
5.41498e-06
1.53343e-05
2.48413e-07
6.39858e-06
6.47236e-06
1.70602e-05
3.16239e-07
7.714e-06
7.74762e-06
1.96381e-05
4.06305e-07
9.13656e-06
8.97713e-06
2.14508e-05
5.12595e-07
1.03965e-05
1.07109e-05
2.36222e-05
6.96665e-07
1.23987e-05
1.20293e-05
2.48532e-05
8.76504e-07
1.32932e-05
1.36948e-05
2.6439e-05
1.12554e-06
1.58919e-05
1.56059e-05
2.82019e-05
1.71249e-06
1.67781e-05
1.71946e-05
2.88712e-05
1.82318e-06
1.92604e-05
1.90712e-05
3.10381e-05
2.32573e-06
2.08228e-05
2.08141e-05
3.17538e-05
2.83267e-06
2.23494e-05
2.26171e-05
3.2331e-05
3.51225e-06
2.52788e-05
2.45696e-05
3.42557e-05
4.31304e-06
2.62022e-05
2.62167e-05
3.51158e-05
4.7795e-06
2.70217e-05
2.80723e-05
3.60485e-05
6.05726e-06
3.01693e-05
2.91949e-05
3.7359e-05
6.75756e-06
3.10827e-05
3.16329e-05
3.84991e-05
8.28426e-06
3.28835e-05
3.2847e-05
3.93282e-05
9.14172e-06
3.40362e-05
3.36048e-05
4.02605e-05
1.06389e-05
3.56559e-05
3.61913e-05
4.1313e-05
1.22791e-05
3.67097e-05
3.67559e-05
4.26913e-05
1.31936e-05
3.82832e-05
3.79509e-05
4.28917e-05
1.52223e-05
3.89119e-05
3.9411e-05
4.36013e-05
1.65944e-05
4.04852e-05
4.01774e-05
4.55087e-05
1.8169e-05
4.15512e-05
4.14173e-05
4.55675e-05
2.00925e-05
4.24781e-05
4.28327e-05
4.61067e-05
2.09365e-05
4.32897e-05
4.30832e-05
4.72689e-05
2.31536e-05
4.44498e-05
4.48072e-05
4.85646e-05
2.49367e-05
4.56191e-05
4.54389e-05
4.80671e-05
2.52485e-05
4.56919e-05
4.55447e-05
4.85069e-05
2.71877e-05
4.74099e-05
4.73342e-05
5.09558e-05
2.9565e-05
4.79823e-05
4.81628e-05
5.08603e-05
2.99833e-05
4.80185e-05
4.82949e-05
5.01297e-05
3.00404e-05
4.92609e-05
4.90511e-05
5.19041e-05
3.232e-05
5.01739e-05
4.95099e-05
5.33815e-05
3.44186e-05
5.07143e-05
5.137e-05
5.20133e-05
3.487e-05
5.11715e-05
5.15131e-05
5.20388e-05
3.49004e-05
5.12276e-05
5.12104e-05
5.46871e-05
3.59348e-05
5.28674e-05
5.21439e-05
5.48022e-05
3.7867e-05
5.33227e-05
5.33862e-05
5.38621e-05
3.90827e-05
5.28257e-05
5.33829e-05
5.44914e-05
3.93019e-05
5.34322e-05
5.32508e-05
5.55898e-05
3.99594e-05
5.47657e-05
5.45318e-05
5.5825e-05
4.10957e-05
5.47556e-05
5.49672e-05
5.61588e-05
4.14441e-05
5.46571e-05
5.44974e-05
5.59385e-05
4.17688e-05
5.47063e-05
5.46382e-05
5.64754e-05
4.33268e-05
5.62017e-05
5.63197e-05
5.73563e-05
4.40811e-05
5.64408e-05
5.63371e-05
5.65152e-05
4.40063e-05
5.54909e-05
5.55047e-05
5.64095e-05
4.41273e-05
5.61321e-05
5.63528e-05
5.84035e-05
4.53252e-05
5.72496e-05
5.72752e-05
5.83993e-05
4.56942e-05
5.64292e-05
5.65304e-05
5.70303e-05
4.53601e-05
5.597e-05
5.61247e-05
5.68839e-05
4.5414e-05
5.74718e-05
5.7153e-05
5.79925e-05
4.68877e-05
5.84123e-05
5.78443e-05
5.94764e-05
4.70688e-05
5.71813e-05
5.71009e-05
5.88485e-05
4.58955e-05
5.55785e-05
5.63344e-05
5.64966e-05
4.5753e-05
5.61249e-05
5.70367e-05
5.70195e-05
4.72735e-05
5.85285e-05
5.79634e-05
5.99036e-05
4.79382e-05
5.88402e-05
5.77469e-05
5.9597e-05
4.71118e-05
5.58874e-05
5.56341e-05
5.55373e-05
4.5173e-05
5.44091e-05
5.51206e-05
5.5485e-05
4.56174e-05
5.78814e-05
5.85005e-05
6.13778e-05
4.87389e-05
5.92985e-05
5.95083e-05
6.12172e-05
4.76542e-05
5.41052e-05
5.38831e-05
5.3353e-05
3.58162e-07
3.23085e-07
3.00881e-07
3.52836e-07
3.37277e-07
2.91932e-07
1.70786e-07
1.51371e-07
1.61511e-07
2.07555e-07
2.90676e-07
3.41235e-07
3.61266e-07
3.23174e-07
7.55212e-07
3.6293e-07
3.55637e-07
3.42773e-07
3.14485e-07
2.52975e-07
3.04774e-07
2.45015e-07
3.51945e-07
3.31604e-07
5.16308e-07
2.88418e-07
5.27041e-07
2.56714e-07
3.45644e-07
2.4945e-07
3.34304e-07
3.59974e-07
3.38644e-07
1.21977e-06
3.08659e-07
1.29343e-06
3.75314e-07
3.40132e-07
3.35185e-07
3.00866e-07
2.4193e-07
2.89584e-07
2.32979e-07
3.30414e-07
3.10943e-07
5.31465e-07
2.50933e-07
5.50383e-07
2.38373e-07
3.30337e-07
2.37293e-07
3.18528e-07
3.37369e-07
3.17859e-07
1.30947e-06
2.97846e-07
1.3305e-06
3.99947e-07
3.33538e-07
3.3008e-07
2.85919e-07
2.30065e-07
2.7577e-07
2.21764e-07
3.09849e-07
2.92981e-07
5.56367e-07
2.34915e-07
5.65691e-07
2.25684e-07
3.14704e-07
2.26809e-07
3.0391e-07
3.16691e-07
2.99502e-07
1.32825e-06
2.87506e-07
1.14983e-06
3.92712e-07
3.27906e-07
3.15541e-07
2.72598e-07
2.19205e-07
2.63324e-07
2.11734e-07
2.92043e-07
2.77257e-07
5.65433e-07
2.22828e-07
5.24534e-07
2.14957e-07
3.00153e-07
2.17351e-07
2.88861e-07
2.98513e-07
2.8379e-07
1.02311e-06
2.7715e-07
6.14682e-07
3.05473e-07
3.1062e-07
2.90716e-07
2.60337e-07
2.09338e-07
2.5172e-07
2.02502e-07
2.76432e-07
2.63072e-07
4.99264e-07
2.12473e-07
4.07915e-07
2.05238e-07
2.85306e-07
2.08528e-07
2.75133e-07
2.82866e-07
2.69715e-07
5.01479e-07
2.67792e-07
2.92352e-07
2.68492e-07
2.88316e-07
2.71377e-07
2.49222e-07
2.00265e-07
2.42778e-07
1.93632e-07
2.62329e-07
2.4959e-07
3.74095e-07
2.02839e-07
2.88131e-07
1.95784e-07
2.71913e-07
1.99893e-07
2.62903e-07
2.68905e-07
2.56772e-07
2.57818e-07
2.58178e-07
2.12467e-07
2.53619e-07
2.69569e-07
2.48883e-07
2.40779e-07
1.91593e-07
2.34599e-07
1.8614e-07
2.48935e-07
2.37227e-07
2.67446e-07
1.93537e-07
2.23985e-07
1.86976e-07
2.60081e-07
1.91986e-07
2.52113e-07
2.56085e-07
2.44043e-07
2.06864e-07
2.45244e-07
1.96821e-07
2.42157e-07
2.47854e-07
2.35899e-07
2.32448e-07
1.84436e-07
2.26367e-07
1.80041e-07
2.36755e-07
2.26632e-07
2.15398e-07
1.84929e-07
2.02845e-07
1.79243e-07
2.49488e-07
1.84996e-07
2.41681e-07
2.43376e-07
2.3183e-07
1.94651e-07
2.31926e-07
1.90181e-07
2.32667e-07
2.35381e-07
2.26773e-07
2.24516e-07
1.78606e-07
2.1914e-07
1.74517e-07
2.26359e-07
2.16882e-07
2.00593e-07
1.77584e-07
1.95267e-07
1.73164e-07
2.39173e-07
1.78747e-07
2.32273e-07
2.31314e-07
2.21799e-07
1.89008e-07
2.21912e-07
1.86008e-07
2.24046e-07
2.26442e-07
2.18697e-07
2.17238e-07
1.73171e-07
2.10676e-07
1.69683e-07
2.16668e-07
2.07179e-07
1.94067e-07
1.71843e-07
1.91809e-07
1.68482e-07
2.30253e-07
1.73196e-07
2.25024e-07
2.21454e-07
2.13199e-07
1.85183e-07
2.13267e-07
1.82665e-07
2.16565e-07
2.18397e-07
2.11413e-07
2.08189e-07
1.68786e-07
2.00331e-07
1.6636e-07
2.07052e-07
1.98969e-07
1.91305e-07
1.67514e-07
1.90137e-07
1.64978e-07
2.2362e-07
1.68934e-07
2.19566e-07
2.1297e-07
2.05344e-07
1.82018e-07
2.02853e-07
1.81181e-07
2.11524e-07
2.11291e-07
2.0568e-07
1.97814e-07
1.65826e-07
1.91255e-07
1.64761e-07
1.98968e-07
1.92579e-07
1.90136e-07
1.64204e-07
1.90304e-07
1.62611e-07
2.18187e-07
1.66119e-07
2.14108e-07
2.05242e-07
1.98398e-07
1.81172e-07
1.92479e-07
1.80601e-07
2.06818e-07
2.05762e-07
2.01589e-07
1.89316e-07
1.6457e-07
1.84456e-07
1.64289e-07
1.92765e-07
1.87617e-07
1.9044e-07
1.62298e-07
1.91609e-07
1.61968e-07
2.12768e-07
1.65554e-07
2.09164e-07
1.98467e-07
1.92885e-07
1.80248e-07
1.84843e-07
1.80134e-07
2.02871e-07
2.01897e-07
1.99528e-07
1.83113e-07
1.64372e-07
1.80665e-07
1.65645e-07
1.87931e-07
1.84589e-07
1.92471e-07
1.62072e-07
1.96362e-07
1.63231e-07
2.08422e-07
1.6595e-07
2.06549e-07
1.93158e-07
1.89167e-07
1.80364e-07
1.80114e-07
1.81769e-07
2.0074e-07
2.00283e-07
2.00446e-07
1.80237e-07
1.66162e-07
1.80833e-07
1.69266e-07
1.85419e-07
1.84845e-07
1.98127e-07
1.6405e-07
2.05043e-07
1.67678e-07
2.06519e-07
1.69365e-07
2.07557e-07
1.89814e-07
1.88548e-07
1.82524e-07
1.79667e-07
1.86508e-07
2.01759e-07
2.0204e-07
2.05406e-07
1.81445e-07
1.70713e-07
1.84833e-07
1.77119e-07
1.86465e-07
1.90622e-07
2.07825e-07
1.69709e-07
2.1712e-07
1.77857e-07
2.08518e-07
1.77207e-07
2.13117e-07
1.90094e-07
1.92765e-07
1.88461e-07
1.82895e-07
1.96719e-07
2.07552e-07
2.08502e-07
2.17614e-07
1.86823e-07
1.79834e-07
1.95041e-07
1.92703e-07
1.94183e-07
2.04026e-07
2.20731e-07
1.81161e-07
2.32305e-07
1.9572e-07
2.15459e-07
1.92284e-07
2.27335e-07
1.96044e-07
2.06857e-07
2.00666e-07
1.96677e-07
2.15039e-07
2.22876e-07
2.23454e-07
2.43848e-07
1.98814e-07
1.98109e-07
2.16172e-07
2.20774e-07
2.11694e-07
2.3387e-07
2.36974e-07
2.01086e-07
2.5549e-07
2.24087e-07
2.31562e-07
2.1931e-07
2.53121e-07
2.12926e-07
2.37272e-07
2.20593e-07
2.22746e-07
2.4395e-07
2.52288e-07
2.54633e-07
2.99679e-07
2.23992e-07
2.28628e-07
2.58173e-07
2.6078e-07
2.45759e-07
2.86824e-07
2.62637e-07
2.33418e-07
2.93906e-07
2.69373e-07
2.60536e-07
2.5825e-07
2.94862e-07
2.48837e-07
2.99841e-07
2.52976e-07
2.67106e-07
2.88931e-07
3.10166e-07
3.20999e-07
4.09021e-07
2.70615e-07
2.81543e-07
3.30449e-07
3.24073e-07
3.1245e-07
4.04131e-07
3.05212e-07
2.82178e-07
3.60574e-07
3.44274e-07
3.15187e-07
3.23944e-07
3.50757e-07
3.20427e-07
4.16596e-07
3.08973e-07
3.51418e-07
3.46874e-07
4.09425e-07
4.4682e-07
5.78631e-07
3.53819e-07
3.3963e-07
4.20437e-07
4.49075e-07
4.27261e-07
6.33044e-07
3.84239e-07
3.65206e-07
4.37212e-07
4.45176e-07
3.70741e-07
4.45601e-07
4.79695e-07
4.61907e-07
6.0792e-07
3.73967e-07
4.6211e-07
4.73464e-07
6.84974e-07
6.2684e-07
1.00026e-06
4.57908e-07
4.83765e-07
6.00836e-07
5.60873e-07
7.14406e-07
8.90346e-07
4.75802e-07
4.82258e-07
6.03738e-07
5.87997e-07
4.93247e-07
5.62665e-07
6.30758e-07
6.6649e-07
9.65964e-07
4.87179e-07
6.27278e-07
6.44531e-07
9.91236e-07
1.09055e-06
1.50817e-06
6.41479e-07
6.34754e-07
8.32862e-07
8.07915e-07
9.79522e-07
1.60055e-06
6.42604e-07
6.27986e-07
8.26989e-07
8.54883e-07
6.8952e-07
7.9933e-07
7.70711e-07
1.05973e-06
1.59336e-06
7.03059e-07
9.5358e-07
7.83685e-07
1.3583e-06
1.67499e-06
2.37565e-06
9.0726e-07
8.35308e-07
1.10228e-06
1.15753e-06
1.67109e-06
2.50058e-06
8.95404e-07
9.03656e-07
1.09427e-06
1.12064e-06
8.30039e-07
1.15289e-06
1.24166e-06
1.79386e-06
2.31569e-06
8.42857e-07
1.26866e-06
1.26139e-06
3.00362e-06
2.58726e-06
3.60773e-06
1.22191e-06
1.27032e-06
1.57234e-06
1.40888e-06
2.8645e-06
3.35732e-06
1.20505e-06
1.25563e-06
1.49597e-06
1.46228e-06
1.30838e-06
1.39859e-06
1.45576e-06
2.55506e-06
3.71686e-06
1.33079e-06
1.67183e-06
1.45656e-06
3.34889e-06
3.90308e-06
5.17585e-06
1.64502e-06
1.48188e-06
2.16978e-06
2.06253e-06
3.43895e-06
5.49815e-06
1.57555e-06
1.54031e-06
2.03678e-06
2.15541e-06
1.56658e-06
2.04591e-06
1.98772e-06
3.83613e-06
5.86472e-06
1.59015e-06
2.3836e-06
1.99726e-06
5.11445e-06
5.52668e-06
7.23282e-06
2.37808e-06
2.25807e-06
2.68446e-06
2.56807e-06
6.09591e-06
7.39985e-06
2.20622e-06
2.28158e-06
2.4755e-06
2.4443e-06
2.10858e-06
2.5588e-06
2.5408e-06
6.32284e-06
6.74871e-06
2.10622e-06
2.65409e-06
2.58769e-06
6.89728e-06
7.55798e-06
1.057e-05
2.89521e-06
2.6572e-06
3.94487e-06
3.33564e-06
7.58132e-06
9.12755e-06
2.67925e-06
2.5877e-06
3.58215e-06
3.42457e-06
2.77867e-06
3.29826e-06
3.44284e-06
6.87654e-06
9.78848e-06
2.8288e-06
3.42947e-06
3.42456e-06
9.97902e-06
1.10633e-05
1.13008e-05
4.10586e-06
3.53953e-06
4.22642e-06
4.07318e-06
9.71756e-06
1.19531e-05
3.73785e-06
3.63456e-06
3.9165e-06
4.13985e-06
3.56244e-06
4.05677e-06
4.02032e-06
1.05292e-05
1.20643e-05
3.53887e-06
4.241e-06
4.05345e-06
1.15044e-05
1.13842e-05
1.46407e-05
4.26931e-06
4.33145e-06
5.22593e-06
5.20266e-06
1.23959e-05
1.45832e-05
4.04779e-06
4.35878e-06
5.24235e-06
5.14196e-06
4.28559e-06
5.18206e-06
5.30381e-06
1.23863e-05
1.43696e-05
4.32238e-06
5.1516e-06
5.28426e-06
1.47334e-05
1.56324e-05
1.72796e-05
5.68137e-06
5.45092e-06
6.46504e-06
6.17993e-06
1.51629e-05
1.67602e-05
5.58165e-06
5.42901e-06
6.28304e-06
6.27145e-06
5.57948e-06
6.13616e-06
6.06801e-06
1.49428e-05
1.68642e-05
5.56413e-06
6.23676e-06
6.11651e-06
1.67016e-05
1.75448e-05
1.8833e-05
6.68363e-06
6.45608e-06
7.57868e-06
7.44399e-06
1.71597e-05
1.89378e-05
6.46838e-06
6.4872e-06
7.41012e-06
7.41326e-06
6.30764e-06
7.39711e-06
7.57108e-06
1.73025e-05
1.89368e-05
6.34909e-06
7.32888e-06
7.55642e-06
1.90604e-05
1.93285e-05
2.12608e-05
7.84678e-06
7.7388e-06
8.81716e-06
8.72876e-06
1.94641e-05
2.10684e-05
7.76683e-06
7.84515e-06
8.76552e-06
8.72478e-06
7.96272e-06
8.73016e-06
8.60845e-06
1.9431e-05
2.11292e-05
7.94687e-06
8.72517e-06
8.63343e-06
2.10767e-05
2.16721e-05
2.28912e-05
9.22859e-06
9.17177e-06
1.01342e-05
1.01413e-05
2.15053e-05
2.29852e-05
9.18528e-06
8.99436e-06
1.02327e-05
1.02659e-05
8.93745e-06
1.00736e-05
1.03429e-05
2.15325e-05
2.29977e-05
8.96982e-06
1.02313e-05
1.03395e-05
2.31539e-05
2.33415e-05
2.47786e-05
1.04054e-05
1.04239e-05
1.18393e-05
1.19284e-05
2.33531e-05
2.47297e-05
1.04802e-05
1.0725e-05
1.17647e-05
1.1759e-05
1.07367e-05
1.19499e-05
1.18386e-05
2.347e-05
2.46566e-05
1.07231e-05
1.17159e-05
1.18204e-05
2.45845e-05
2.51621e-05
2.60376e-05
1.23886e-05
1.24017e-05
1.33871e-05
1.30151e-05
2.51421e-05
2.59923e-05
1.23361e-05
1.21369e-05
1.35549e-05
1.32177e-05
1.21097e-05
1.29768e-05
1.29054e-05
2.49746e-05
2.61168e-05
1.20941e-05
1.32693e-05
1.29081e-05
2.59376e-05
2.63365e-05
2.76582e-05
1.35112e-05
1.33208e-05
1.47855e-05
1.52958e-05
2.63039e-05
2.77811e-05
1.37226e-05
1.36094e-05
1.46705e-05
1.50931e-05
1.34543e-05
1.53004e-05
1.55367e-05
2.64933e-05
2.76572e-05
1.34606e-05
1.50851e-05
1.5536e-05
2.79516e-05
2.81456e-05
2.93753e-05
1.56927e-05
1.59005e-05
1.74842e-05
1.67199e-05
2.81683e-05
2.88087e-05
1.56814e-05
1.55862e-05
1.80796e-05
1.7126e-05
1.60333e-05
1.66523e-05
1.66833e-05
2.80234e-05
2.90467e-05
1.60297e-05
1.67947e-05
1.66752e-05
2.86215e-05
2.95866e-05
3.0076e-05
1.7676e-05
1.69301e-05
1.82585e-05
1.83753e-05
2.90256e-05
3.01348e-05
1.84398e-05
1.75031e-05
1.88102e-05
1.84554e-05
1.67911e-05
1.84703e-05
1.85417e-05
2.9332e-05
3.01563e-05
1.67886e-05
1.86402e-05
1.861e-05
3.0534e-05
3.03363e-05
3.1418e-05
1.87771e-05
1.90365e-05
2.052e-05
2.07388e-05
3.05747e-05
3.153e-05
1.88989e-05
1.89267e-05
2.02386e-05
2.04146e-05
1.95482e-05
2.06785e-05
2.11328e-05
3.04534e-05
3.14058e-05
1.95665e-05
2.02918e-05
2.10254e-05
3.16666e-05
3.1728e-05
3.25354e-05
2.0966e-05
2.10352e-05
2.20373e-05
2.18886e-05
3.17112e-05
3.22489e-05
2.07944e-05
2.08546e-05
2.24014e-05
2.23826e-05
2.12845e-05
2.16109e-05
2.15246e-05
3.17049e-05
3.26355e-05
2.11576e-05
2.2256e-05
2.14675e-05
3.20359e-05
3.28233e-05
3.38732e-05
2.25078e-05
2.2369e-05
2.40906e-05
2.41e-05
3.25683e-05
3.40846e-05
2.29306e-05
2.28261e-05
2.43163e-05
2.39557e-05
2.17901e-05
2.47167e-05
2.41351e-05
3.28956e-05
3.37236e-05
2.19322e-05
2.39925e-05
2.39901e-05
3.39465e-05
3.41537e-05
3.49643e-05
2.45672e-05
2.46594e-05
2.60035e-05
2.61143e-05
3.43974e-05
3.49239e-05
2.47963e-05
2.4533e-05
2.61603e-05
2.63063e-05
2.47933e-05
2.61211e-05
2.60576e-05
3.40299e-05
3.50398e-05
2.45859e-05
2.59445e-05
2.60249e-05
3.49283e-05
3.5181e-05
3.57753e-05
2.6417e-05
2.64302e-05
2.72715e-05
2.69853e-05
3.50545e-05
3.54595e-05
2.64771e-05
2.66117e-05
2.72581e-05
2.71077e-05
2.62596e-05
2.65396e-05
2.72279e-05
3.52388e-05
3.5789e-05
2.63074e-05
2.75194e-05
2.73781e-05
3.57692e-05
3.60083e-05
3.7163e-05
2.76878e-05
2.741e-05
2.93545e-05
2.94645e-05
3.57263e-05
3.73186e-05
2.76982e-05
2.76477e-05
2.94146e-05
2.93624e-05
2.77649e-05
2.95529e-05
2.92499e-05
3.60329e-05
3.70073e-05
2.79055e-05
2.89311e-05
2.9179e-05
3.71152e-05
3.74321e-05
3.79832e-05
2.97804e-05
3.00062e-05
3.07279e-05
3.07325e-05
3.76334e-05
3.80583e-05
2.98338e-05
2.96478e-05
3.05993e-05
3.0912e-05
2.97184e-05
3.08465e-05
3.11321e-05
3.72291e-05
3.82172e-05
2.95313e-05
3.09753e-05
3.09798e-05
3.82399e-05
3.81836e-05
3.93273e-05
3.11242e-05
3.10181e-05
3.25468e-05
3.25097e-05
3.81907e-05
3.91786e-05
3.10266e-05
3.14364e-05
3.27e-05
3.24575e-05
3.15206e-05
3.25148e-05
3.23888e-05
3.8513e-05
3.91004e-05
3.15147e-05
3.27247e-05
3.24552e-05
3.91834e-05
3.9563e-05
3.9945e-05
3.29326e-05
3.28872e-05
3.37404e-05
3.36336e-05
3.94566e-05
4.00003e-05
3.3047e-05
3.26495e-05
3.35183e-05
3.34395e-05
3.26927e-05
3.35968e-05
3.39427e-05
3.92116e-05
3.98547e-05
3.264e-05
3.31704e-05
3.37099e-05
4.00063e-05
4.01007e-05
4.1275e-05
3.40185e-05
3.40535e-05
3.52742e-05
3.54435e-05
4.01973e-05
4.12855e-05
3.38622e-05
3.38738e-05
3.53824e-05
3.55686e-05
3.42805e-05
3.54229e-05
3.49913e-05
4.01683e-05
4.15623e-05
3.40985e-05
3.57586e-05
3.50583e-05
4.10868e-05
4.15625e-05
4.21061e-05
3.5757e-05
3.57168e-05
3.6667e-05
3.62772e-05
4.14717e-05
4.18349e-05
3.58515e-05
3.61001e-05
3.67194e-05
3.70375e-05
3.5398e-05
3.62759e-05
3.70463e-05
4.17911e-05
4.21313e-05
3.54986e-05
3.67093e-05
3.70156e-05
4.24727e-05
4.22056e-05
4.27903e-05
3.67949e-05
3.664e-05
3.76406e-05
3.79995e-05
4.20331e-05
4.31722e-05
3.68588e-05
3.71316e-05
3.75502e-05
3.75641e-05
3.74634e-05
3.80668e-05
3.79648e-05
4.22006e-05
4.27092e-05
3.73636e-05
3.73352e-05
3.7807e-05
4.28688e-05
4.30602e-05
4.40174e-05
3.81203e-05
3.83076e-05
3.91413e-05
3.88379e-05
4.33592e-05
4.36346e-05
3.79596e-05
3.79748e-05
3.9184e-05
3.90087e-05
3.79984e-05
3.86632e-05
3.81617e-05
4.3039e-05
4.4004e-05
3.78512e-05
3.91098e-05
3.82191e-05
4.32334e-05
4.41647e-05
4.45546e-05
3.92972e-05
3.90433e-05
3.99988e-05
4.00041e-05
4.3755e-05
4.46656e-05
3.9447e-05
3.93625e-05
3.99918e-05
4.01417e-05
3.84629e-05
4.00777e-05
4.06221e-05
4.41593e-05
4.46518e-05
3.88587e-05
4.00903e-05
4.07896e-05
4.53392e-05
4.47319e-05
4.56232e-05
4.03521e-05
4.03655e-05
4.12757e-05
4.1285e-05
4.49103e-05
4.55812e-05
4.02385e-05
4.02621e-05
4.13358e-05
4.11699e-05
4.10375e-05
4.1394e-05
4.14456e-05
4.47495e-05
4.53778e-05
4.10734e-05
4.09029e-05
4.12864e-05
4.55431e-05
4.58264e-05
4.62449e-05
4.15215e-05
4.14897e-05
4.22513e-05
4.22068e-05
4.57098e-05
4.62261e-05
4.17108e-05
4.16725e-05
4.23914e-05
4.27229e-05
4.14774e-05
4.21453e-05
4.19449e-05
4.57097e-05
4.66383e-05
4.13234e-05
4.26541e-05
4.19493e-05
4.59353e-05
4.6326e-05
4.67277e-05
4.24462e-05
4.25439e-05
4.29972e-05
4.32539e-05
4.6421e-05
4.69707e-05
4.24682e-05
4.28443e-05
4.27654e-05
4.29563e-05
4.22024e-05
4.32126e-05
4.30919e-05
4.66956e-05
4.66421e-05
4.21648e-05
4.30087e-05
4.29739e-05
4.69556e-05
4.69956e-05
4.82564e-05
4.33166e-05
4.33254e-05
4.45387e-05
4.37742e-05
4.70479e-05
4.75252e-05
4.3165e-05
4.30175e-05
4.46168e-05
4.43011e-05
4.3516e-05
4.38951e-05
4.47781e-05
4.67387e-05
4.81521e-05
4.3432e-05
4.43389e-05
4.48132e-05
4.84713e-05
4.83843e-05
4.81668e-05
4.48306e-05
4.43417e-05
4.51482e-05
4.55378e-05
4.7848e-05
4.87595e-05
4.49032e-05
4.47931e-05
4.51481e-05
4.53921e-05
4.5002e-05
4.55265e-05
4.51234e-05
4.84044e-05
4.84661e-05
4.50522e-05
4.54021e-05
4.51711e-05
4.80862e-05
4.8172e-05
4.84995e-05
4.51658e-05
4.56509e-05
4.52852e-05
4.57068e-05
4.87986e-05
4.86847e-05
4.51588e-05
4.54288e-05
4.52646e-05
4.54918e-05
4.51038e-05
4.56625e-05
4.51473e-05
4.84781e-05
4.85687e-05
4.51308e-05
4.54905e-05
4.51329e-05
4.81941e-05
4.8828e-05
5.04102e-05
4.55301e-05
4.5732e-05
4.7211e-05
4.68058e-05
4.87528e-05
5.00904e-05
4.54748e-05
4.55669e-05
4.72107e-05
4.69582e-05
4.53208e-05
4.68956e-05
4.74405e-05
4.87403e-05
5.01338e-05
4.52256e-05
4.67992e-05
4.71026e-05
5.06737e-05
5.05865e-05
5.07531e-05
4.75808e-05
4.73293e-05
4.79995e-05
4.79554e-05
5.03628e-05
5.05188e-05
4.7663e-05
4.74403e-05
4.82538e-05
4.80856e-05
4.79105e-05
4.79627e-05
4.82552e-05
5.03958e-05
5.06211e-05
4.77372e-05
4.81008e-05
4.84033e-05
5.09185e-05
5.07755e-05
5.05935e-05
4.808e-05
4.79894e-05
4.82911e-05
4.80541e-05
5.05323e-05
5.05752e-05
4.82753e-05
4.81316e-05
4.80761e-05
4.81824e-05
4.82127e-05
4.79915e-05
4.77796e-05
5.06347e-05
5.07361e-05
4.83951e-05
4.82287e-05
4.80254e-05
5.01179e-05
5.05868e-05
5.05763e-05
4.82987e-05
4.81453e-05
4.83172e-05
4.88713e-05
5.06672e-05
5.14858e-05
4.79752e-05
4.82573e-05
4.79927e-05
4.88227e-05
4.77661e-05
4.88484e-05
4.83648e-05
5.08924e-05
5.13707e-05
4.80007e-05
4.89228e-05
4.84058e-05
5.13301e-05
5.08148e-05
5.26836e-05
4.83949e-05
4.91689e-05
4.99791e-05
4.97394e-05
5.17247e-05
5.221e-05
4.82424e-05
4.89186e-05
5.01816e-05
4.91359e-05
4.9262e-05
5.00761e-05
5.08551e-05
5.13946e-05
5.14711e-05
4.92079e-05
4.9279e-05
5.07328e-05
5.33486e-05
5.29895e-05
5.34716e-05
5.05249e-05
4.98507e-05
5.13204e-05
5.07072e-05
5.22632e-05
5.27128e-05
5.05598e-05
4.93789e-05
5.12456e-05
5.12112e-05
5.09367e-05
5.04826e-05
5.05479e-05
5.16834e-05
5.35222e-05
5.08132e-05
5.10529e-05
5.04755e-05
5.21454e-05
5.34928e-05
5.29039e-05
5.13568e-05
5.10437e-05
5.11495e-05
5.13726e-05
5.29416e-05
5.32958e-05
5.13397e-05
5.16378e-05
5.13333e-05
5.19465e-05
5.02413e-05
5.11513e-05
5.00704e-05
5.37535e-05
5.3693e-05
5.02335e-05
5.15614e-05
5.01119e-05
5.17958e-05
5.28323e-05
5.24973e-05
5.09275e-05
5.13542e-05
5.07221e-05
5.1109e-05
5.3277e-05
5.28587e-05
5.12246e-05
5.19137e-05
5.10004e-05
5.12542e-05
5.01483e-05
5.11884e-05
5.19781e-05
5.36351e-05
5.29146e-05
5.01912e-05
5.12133e-05
5.18524e-05
5.43565e-05
5.26153e-05
5.41835e-05
5.07453e-05
5.11112e-05
5.19997e-05
5.18313e-05
5.28812e-05
5.4364e-05
5.10043e-05
5.11404e-05
5.16449e-05
5.11373e-05
5.25092e-05
5.23544e-05
5.2941e-05
5.29197e-05
5.33487e-05
5.23827e-05
5.16702e-05
5.29555e-05
5.48736e-05
5.45302e-05
5.50816e-05
5.25896e-05
5.25653e-05
5.34082e-05
5.35087e-05
5.47528e-05
5.52345e-05
5.21574e-05
5.12702e-05
5.32285e-05
5.30437e-05
5.29132e-05
5.33388e-05
5.2442e-05
5.35963e-05
5.50013e-05
5.29526e-05
5.32171e-05
5.26014e-05
5.38652e-05
5.50912e-05
5.48732e-05
5.34619e-05
5.35191e-05
5.34294e-05
5.31144e-05
5.51927e-05
5.4291e-05
5.33965e-05
5.34866e-05
5.35592e-05
5.3874e-05
5.24038e-05
5.28713e-05
5.25269e-05
5.52043e-05
5.53039e-05
5.25338e-05
5.34599e-05
5.25446e-05
5.4252e-05
5.4879e-05
5.50326e-05
5.33817e-05
5.29876e-05
5.33778e-05
5.29939e-05
5.42751e-05
5.46366e-05
5.35611e-05
5.38547e-05
5.35551e-05
5.34923e-05
5.28502e-05
5.2994e-05
5.38706e-05
5.52567e-05
5.47293e-05
5.26468e-05
5.3228e-05
5.36179e-05
5.54803e-05
5.51471e-05
5.57824e-05
5.34443e-05
5.31574e-05
5.42666e-05
5.4562e-05
5.49357e-05
5.62551e-05
5.35718e-05
5.34762e-05
5.40272e-05
5.38216e-05
5.40593e-05
5.46351e-05
5.42914e-05
5.47423e-05
5.57592e-05
5.38487e-05
5.41423e-05
5.42404e-05
5.57665e-05
5.58983e-05
5.60238e-05
5.44672e-05
5.47856e-05
5.46706e-05
5.48969e-05
5.63374e-05
5.61234e-05
5.42789e-05
5.42684e-05
5.46987e-05
5.47882e-05
5.43489e-05
5.48052e-05
5.46416e-05
5.6034e-05
5.63363e-05
5.44167e-05
5.49715e-05
5.48929e-05
5.61287e-05
5.60218e-05
5.56353e-05
5.46677e-05
5.48565e-05
5.44849e-05
5.46285e-05
5.61018e-05
5.59085e-05
5.47036e-05
5.47821e-05
5.44893e-05
5.44615e-05
5.47047e-05
5.46643e-05
5.47372e-05
5.62892e-05
5.55505e-05
5.49249e-05
5.45914e-05
5.48166e-05
5.594e-05
5.56327e-05
5.60624e-05
5.44532e-05
5.45871e-05
5.45824e-05
5.45629e-05
5.59146e-05
5.58483e-05
5.44371e-05
5.44228e-05
5.45597e-05
5.45473e-05
5.47374e-05
5.46629e-05
5.48918e-05
5.5544e-05
5.59763e-05
5.47455e-05
5.45066e-05
5.47626e-05
5.62532e-05
5.6374e-05
5.75529e-05
5.49323e-05
5.46161e-05
5.61191e-05
5.58684e-05
5.58744e-05
5.73004e-05
5.49293e-05
5.48718e-05
5.61651e-05
5.61193e-05
5.51773e-05
5.58011e-05
5.59153e-05
5.62198e-05
5.75325e-05
5.48975e-05
5.60334e-05
5.59032e-05
5.73282e-05
5.76165e-05
5.72186e-05
5.62912e-05
5.62648e-05
5.633e-05
5.65588e-05
5.75655e-05
5.78315e-05
5.62949e-05
5.63201e-05
5.62748e-05
5.63936e-05
5.59759e-05
5.6496e-05
5.58371e-05
5.76578e-05
5.74871e-05
5.60164e-05
5.64472e-05
5.59251e-05
5.66374e-05
5.71112e-05
5.66015e-05
5.62161e-05
5.6508e-05
5.56836e-05
5.56169e-05
5.77154e-05
5.63878e-05
5.61029e-05
5.62887e-05
5.56935e-05
5.55941e-05
5.56288e-05
5.55939e-05
5.54182e-05
5.73598e-05
5.64318e-05
5.56969e-05
5.55566e-05
5.54257e-05
5.62657e-05
5.6617e-05
5.73389e-05
5.56522e-05
5.54828e-05
5.58386e-05
5.55684e-05
5.63432e-05
5.68832e-05
5.56838e-05
5.55448e-05
5.60155e-05
5.58009e-05
5.54488e-05
5.56561e-05
5.65758e-05
5.6424e-05
5.72028e-05
5.54496e-05
5.58036e-05
5.65474e-05
5.81586e-05
5.75738e-05
5.8117e-05
5.62029e-05
5.59272e-05
5.70186e-05
5.7143e-05
5.72498e-05
5.84293e-05
5.63743e-05
5.6296e-05
5.7001e-05
5.71801e-05
5.70012e-05
5.72121e-05
5.7348e-05
5.75402e-05
5.83972e-05
5.70021e-05
5.72521e-05
5.73871e-05
5.85215e-05
5.81344e-05
5.77836e-05
5.70836e-05
5.72144e-05
5.70184e-05
5.69489e-05
5.84575e-05
5.75513e-05
5.70409e-05
5.72145e-05
5.69525e-05
5.69275e-05
5.7314e-05
5.68236e-05
5.64844e-05
5.84117e-05
5.76115e-05
5.73564e-05
5.68615e-05
5.64994e-05
5.71313e-05
5.76957e-05
5.71759e-05
5.6827e-05
5.65772e-05
5.63015e-05
5.60679e-05
5.73576e-05
5.67641e-05
5.675e-05
5.66291e-05
5.62904e-05
5.62138e-05
5.62296e-05
5.59642e-05
5.59413e-05
5.74721e-05
5.70239e-05
5.62205e-05
5.61237e-05
5.59028e-05
5.68218e-05
5.71781e-05
5.76324e-05
5.62619e-05
5.60673e-05
5.64002e-05
5.67793e-05
5.67888e-05
5.82901e-05
5.62596e-05
5.62091e-05
5.64082e-05
5.66368e-05
5.59428e-05
5.686e-05
5.64509e-05
5.70462e-05
5.80193e-05
5.59042e-05
5.67175e-05
5.64294e-05
5.76883e-05
5.78805e-05
5.89746e-05
5.67545e-05
5.73757e-05
5.7895e-05
5.82863e-05
5.86605e-05
5.95967e-05
5.67517e-05
5.70499e-05
5.77778e-05
5.77385e-05
5.69652e-05
5.83895e-05
5.82415e-05
5.82824e-05
5.8911e-05
5.69333e-05
5.78242e-05
5.81553e-05
5.93739e-05
5.90451e-05
5.8628e-05
5.80107e-05
5.83102e-05
5.79142e-05
5.77962e-05
5.9608e-05
5.82339e-05
5.78906e-05
5.77644e-05
5.7821e-05
5.74579e-05
5.83879e-05
5.78686e-05
5.83125e-05
5.89212e-05
5.80096e-05
5.82968e-05
5.75003e-05
5.82381e-05
5.91402e-05
5.8387e-05
5.68882e-05
5.75687e-05
5.71423e-05
5.61298e-05
5.57688e-05
5.78839e-05
5.63705e-05
5.75381e-05
5.70677e-05
5.62616e-05
5.63724e-05
5.79793e-05
5.57208e-05
5.59867e-05
5.78158e-05
5.71555e-05
5.79516e-05
5.63705e-05
5.61221e-05
5.66347e-05
5.68442e-05
5.73444e-05
5.59615e-05
5.56405e-05
5.60214e-05
5.57742e-05
5.63482e-05
5.71006e-05
5.61125e-05
5.63448e-05
5.61781e-05
5.66907e-05
5.56741e-05
5.57003e-05
5.5602e-05
5.71763e-05
5.81142e-05
5.58239e-05
5.66242e-05
5.5746e-05
5.66428e-05
5.76648e-05
5.90335e-05
5.63565e-05
5.62036e-05
5.78294e-05
5.79857e-05
5.74706e-05
5.93529e-05
5.65007e-05
5.70771e-05
5.7753e-05
5.77727e-05
5.58559e-05
5.80922e-05
5.8197e-05
5.83689e-05
5.89894e-05
5.59784e-05
5.78789e-05
5.81468e-05
5.96548e-05
5.91657e-05
5.92956e-05
5.81046e-05
5.83936e-05
5.83276e-05
5.87698e-05
5.95942e-05
6.00153e-05
5.7975e-05
5.78409e-05
5.81434e-05
5.78186e-05
5.86309e-05
5.88779e-05
5.88095e-05
5.90064e-05
5.86603e-05
5.85297e-05
5.79173e-05
5.8649e-05
5.99404e-05
5.92683e-05
5.79318e-05
5.83128e-05
5.87521e-05
5.73323e-05
5.73157e-05
6.00098e-05
5.75968e-05
5.81276e-05
5.7724e-05
5.72291e-05
5.65878e-05
5.86309e-05
5.69297e-05
5.57847e-05
5.85638e-05
5.70627e-05
5.84306e-05
5.61301e-05
5.5598e-05
5.59285e-05
5.75682e-05
5.57449e-05
5.65638e-05
5.62756e-05
5.49247e-05
5.45161e-05
5.70421e-05
5.50736e-05
5.65346e-05
5.60649e-05
5.50098e-05
5.51638e-05
5.50106e-05
5.44117e-05
5.44242e-05
5.68141e-05
5.60028e-05
5.49245e-05
5.5079e-05
5.44944e-05
5.50649e-05
5.57149e-05
5.72428e-05
5.48195e-05
5.44663e-05
5.53757e-05
5.5753e-05
5.50759e-05
5.81575e-05
5.49115e-05
5.51548e-05
5.54633e-05
5.64376e-05
5.45799e-05
5.64606e-05
5.83427e-05
5.60287e-05
5.88054e-05
5.47076e-05
5.73927e-05
5.86418e-05
6.07613e-05
5.79789e-05
6.05954e-05
5.65967e-05
5.72328e-05
5.89829e-05
5.91121e-05
5.89731e-05
6.08732e-05
5.66773e-05
5.77188e-05
5.90843e-05
5.93643e-05
5.94416e-05
5.93448e-05
6.00912e-05
5.94775e-05
6.10582e-05
5.96578e-05
5.95689e-05
6.0198e-05
6.18518e-05
6.06363e-05
5.80636e-05
5.90723e-05
5.91127e-05
5.76803e-05
5.65679e-05
6.08416e-05
5.6384e-05
5.91765e-05
5.93658e-05
5.77661e-05
5.67707e-05
5.98147e-05
5.60327e-05
5.4545e-05
6.10345e-05
5.65131e-05
5.98795e-05
5.60023e-05
5.43394e-05
5.41059e-05
5.71417e-05
5.55586e-05
5.45745e-05
5.56207e-05
5.55945e-05
5.45427e-05
4.6643e-05
4.6497e-05
4.50525e-05
5.25979e-05
5.55675e-05
5.23647e-05
1.68038e-07
2.50088e-07
8.55899e-08
1.22229e-07
2.60266e-07
2.8014e-07
1.37888e-07
1.28143e-07
2.43635e-07
3.22172e-07
1.18233e-07
2.19986e-07
3.67879e-07
4.40502e-07
9.13902e-07
3.01996e-07
5.11929e-06
2.56304e-07
6.84504e-06
1.30945e-05
2.03656e-05
3.61416e-07
5.66459e-06
3.19734e-07
7.38782e-06
1.52948e-07
1.62985e-07
2.1399e-07
1.7224e-07
1.52827e-07
1.62052e-07
2.10001e-07
2.43677e-07
5.19301e-07
2.1435e-07
2.55743e-07
2.50218e-07
5.06922e-07
2.12984e-07
1.61591e-05
2.48281e-05
2.27061e-07
2.2843e-07
6.09045e-07
3.13927e-07
2.32608e-07
2.27171e-07
5.96274e-07
1.93424e-06
2.12604e-06
3.62411e-07
1.91516e-06
2.10064e-06
5.02965e-07
1.00043e-05
4.12479e-07
1.28676e-05
3.53045e-05
4.52827e-05
5.53232e-07
1.07907e-05
4.637e-07
1.40024e-05
1.51991e-07
1.61433e-07
2.06194e-07