/*--------------------------------*- C++ -*----------------------------------*\
| =========                 |                                                 |
| \\      /  F ield         | OpenFOAM: The Open Source CFD Toolbox           |
|  \\    /   O peration     | Version:  v2006                                 |
|   \\  /    A nd           | Website:  www.openfoam.com                      |
|    \\/     M anipulation  |                                                 |
\*---------------------------------------------------------------------------*/
FoamFile
{
    version     2.0;
    format      ascii;
    class       volScalarField;
    location    "1000";
    object      epsilon;
}
// * * * * * * * * * * * * * * * * * * * * * * * * * * * * * * * * * * * * * //

dimensions      [0 2 -3 0 0 0 0];


internalField   nonuniform List<scalar> 
43248
(
1.3374e-07
2.30942e-07
2.30935e-07
3.58595e-07
1.31598e-07
2.41576e-07
2.41568e-07
3.84626e-07
1.30247e-07
2.54329e-07
2.54332e-07
4.13674e-07
1.29696e-07
2.69169e-07
2.6914e-07
4.44701e-07
1.29931e-07
2.85851e-07
2.85934e-07
4.78448e-07
1.30878e-07
3.04143e-07
3.04201e-07
5.13626e-07
1.3263e-07
3.25004e-07
3.24951e-07
5.5027e-07
1.35276e-07
3.47482e-07
3.47662e-07
5.87609e-07
1.3853e-07
3.70579e-07
3.70686e-07
6.26567e-07
1.42527e-07
3.95986e-07
3.95747e-07
6.63255e-07
1.4748e-07
4.22756e-07
4.22812e-07
7.02769e-07
1.53022e-07
4.48727e-07
4.48549e-07
7.36094e-07
1.59346e-07
4.77752e-07
4.78714e-07
7.75976e-07
1.6631e-07
5.05773e-07
5.05375e-07
8.08239e-07
1.75559e-07
5.38513e-07
5.37152e-07
8.47445e-07
1.83232e-07
5.66345e-07
5.67195e-07
8.70185e-07
1.89532e-07
5.92479e-07
5.93063e-07
9.16643e-07
2.06346e-07
6.20789e-07
6.2455e-07
9.70786e-07
2.19463e-07
6.5095e-07
6.52594e-07
9.32332e-07
2.18474e-07
7.16782e-07
6.94767e-07
9.04079e-07
2.33008e-07
7.28733e-07
7.26932e-07
1.11157e-06
2.71145e-07
6.81142e-07
7.13497e-07
1.09994e-06
2.67771e-07
7.61897e-07
7.81003e-07
1.07878e-06
2.75782e-07
8.92053e-07
8.08425e-07
1.06999e-06
2.89921e-07
8.24627e-07
8.11513e-07
1.04451e-06
3.06072e-07
7.93328e-07
8.79169e-07
1.17839e-06
3.3357e-07
8.34599e-07
8.6325e-07
1.23512e-06
3.53126e-07
2.28666e-07
2.28699e-07
3.53149e-07
2.28614e-07
2.28704e-07
2.28604e-07
2.28679e-07
3.53143e-07
2.28601e-07
2.28638e-07
3.53211e-07
3.58562e-07
3.78454e-07
2.31003e-07
2.3104e-07
2.38797e-07
2.38845e-07
3.58603e-07
3.78532e-07
2.30942e-07
2.31041e-07
2.38727e-07
2.38826e-07
2.31002e-07
2.38724e-07
2.38797e-07
3.58582e-07
3.78475e-07
2.30958e-07
2.38714e-07
2.38744e-07
3.78528e-07
3.84523e-07
4.06864e-07
2.41646e-07
2.41703e-07
2.51017e-07
2.51054e-07
3.84602e-07
4.06858e-07
2.4158e-07
2.41682e-07
2.50973e-07
2.5107e-07
2.41659e-07
2.50939e-07
2.51086e-07
3.84535e-07
4.06925e-07
2.4162e-07
2.50948e-07
2.51014e-07
4.07025e-07
4.13551e-07
4.37714e-07
2.54401e-07
2.54443e-07
2.65338e-07
2.65385e-07
4.13563e-07
4.37869e-07
2.54347e-07
2.54458e-07
2.65254e-07
2.65419e-07
2.54455e-07
2.65268e-07
2.65294e-07
4.13616e-07
4.37863e-07
2.5438e-07
2.65258e-07
2.65224e-07
4.3753e-07
4.44989e-07
4.70795e-07
2.69233e-07
2.69279e-07
2.81683e-07
2.81708e-07
4.45053e-07
4.70853e-07
2.69152e-07
2.69303e-07
2.81541e-07
2.81762e-07
2.69176e-07
2.81544e-07
2.81585e-07
4.45128e-07
4.70853e-07
2.69117e-07
2.81621e-07
2.81555e-07
4.70762e-07
4.78352e-07
5.04704e-07
2.86056e-07
2.86014e-07
2.99545e-07
2.99555e-07
4.78392e-07
5.04358e-07
2.859e-07
2.86098e-07
2.99494e-07
2.99553e-07
2.8595e-07
2.9939e-07
2.99789e-07
4.78434e-07
5.04451e-07
2.8592e-07
2.99387e-07
2.99632e-07
5.05589e-07
5.12727e-07
5.41526e-07
3.04321e-07
3.04347e-07
3.19656e-07
3.1983e-07
5.12424e-07
5.41655e-07
3.04255e-07
3.0435e-07
3.19643e-07
3.19606e-07
3.04604e-07
3.19568e-07
3.19787e-07
5.12536e-07
5.41452e-07
3.04393e-07
3.19551e-07
3.19662e-07
5.41644e-07
5.50146e-07
5.79489e-07
3.24881e-07
3.25261e-07
3.41655e-07
3.41734e-07
5.50394e-07
5.80094e-07
3.24886e-07
3.24954e-07
3.4145e-07
3.41949e-07
3.25041e-07
3.41717e-07
3.41483e-07
5.501e-07
5.80158e-07
3.25031e-07
3.41837e-07
3.41594e-07
5.79065e-07
5.88441e-07
6.17664e-07
3.477e-07
3.47462e-07
3.65338e-07
3.65115e-07
5.88754e-07
6.17465e-07
3.47431e-07
3.47873e-07
3.6506e-07
3.65414e-07
3.47315e-07
3.64935e-07
3.65136e-07
5.89104e-07
6.17727e-07
3.47369e-07
3.64896e-07
3.64925e-07
6.17428e-07
6.2626e-07
6.54058e-07
3.71189e-07
3.70847e-07
3.89523e-07
3.89639e-07
6.2592e-07
6.53683e-07
3.70972e-07
3.71217e-07
3.89555e-07
3.89294e-07
3.71228e-07
3.89372e-07
3.89869e-07
6.26111e-07
6.53389e-07
3.70981e-07
3.89215e-07
3.89514e-07
6.55081e-07
6.62434e-07
6.92832e-07
3.95535e-07
3.96117e-07
4.15475e-07
4.15787e-07
6.62727e-07
6.93221e-07
3.9558e-07
3.956e-07
4.15312e-07
4.15907e-07
3.96005e-07
4.15611e-07
4.15503e-07
6.62362e-07
6.93693e-07
3.95705e-07
4.15896e-07
4.15564e-07
6.92955e-07
7.02724e-07
7.29452e-07
4.23092e-07
4.22999e-07
4.43293e-07
4.43372e-07
7.02743e-07
7.29564e-07
4.22817e-07
4.23059e-07
4.43111e-07
4.42652e-07
4.22714e-07
4.42946e-07
4.43024e-07
7.02819e-07
7.28113e-07
4.22789e-07
4.42308e-07
4.43045e-07
7.28476e-07
7.36963e-07
7.63187e-07
4.49078e-07
4.49092e-07
4.7021e-07
4.69717e-07
7.37285e-07
7.63489e-07
4.48987e-07
4.48846e-07
4.70279e-07
4.71015e-07
4.49029e-07
4.69777e-07
4.70429e-07
7.36407e-07
7.65701e-07
4.48976e-07
4.70957e-07
4.69994e-07
7.65745e-07
7.72806e-07
8.00138e-07
4.77425e-07
4.77544e-07
4.984e-07
4.98885e-07
7.73035e-07
8.01073e-07
4.77532e-07
4.78501e-07
4.98021e-07
4.98295e-07
4.78511e-07
4.98797e-07
4.99451e-07
7.74877e-07
7.99994e-07
4.78111e-07
4.98591e-07
4.99444e-07
8.00792e-07
8.089e-07
8.43294e-07
5.05949e-07
5.06192e-07
5.31496e-07
5.30169e-07
8.09716e-07
8.38943e-07
5.05437e-07
5.05562e-07
5.31065e-07
5.29436e-07
5.05319e-07
5.29861e-07
5.29398e-07
8.08382e-07
8.37039e-07
5.05345e-07
5.28814e-07
5.2921e-07
8.37259e-07
8.52952e-07
8.63714e-07
5.40981e-07
5.38761e-07
5.59964e-07
5.6118e-07
8.48482e-07
8.6966e-07
5.40464e-07
5.37637e-07
5.59795e-07
5.61809e-07
5.38476e-07
5.6067e-07
5.60302e-07
8.46274e-07
8.70676e-07
5.38221e-07
5.60829e-07
5.60024e-07
8.65052e-07
8.66125e-07
8.82588e-07
5.64126e-07
5.66996e-07
5.76876e-07
5.8475e-07
8.75411e-07
8.91887e-07
5.64159e-07
5.68427e-07
5.76704e-07
5.8595e-07
5.65388e-07
5.84366e-07
5.80999e-07
8.7756e-07
8.96615e-07
5.65179e-07
5.8505e-07
5.80828e-07
8.9986e-07
8.97503e-07
9.66966e-07
5.86507e-07
5.92549e-07
6.3016e-07
6.14396e-07
8.99527e-07
9.16669e-07
5.86146e-07
5.92913e-07
6.30344e-07
6.16199e-07
5.94081e-07
6.15698e-07
6.3524e-07
9.04375e-07
9.19833e-07
5.93925e-07
6.18238e-07
6.35114e-07
9.66032e-07
9.76471e-07
9.68539e-07
6.41982e-07
6.19693e-07
6.60233e-07
6.38493e-07
9.22391e-07
9.55063e-07
6.42621e-07
6.21962e-07
6.60738e-07
6.41311e-07
6.44697e-07
6.39845e-07
6.48769e-07
9.25016e-07
9.52094e-07
6.44783e-07
6.44065e-07
6.49151e-07
9.36427e-07
9.68018e-07
9.05255e-07
6.60111e-07
6.51101e-07
6.50998e-07
7.03247e-07
9.71532e-07
1.05558e-06
6.60483e-07
6.51558e-07
6.49276e-07
6.88876e-07
6.45172e-07
6.98211e-07
6.40534e-07
9.65811e-07
1.01506e-06
6.45671e-07
6.8222e-07
6.40317e-07
8.97595e-07
9.06084e-07
9.94317e-07
6.50808e-07
7.21419e-07
6.75885e-07
7.32085e-07
1.07399e-06
1.04341e-06
6.48854e-07
7.01442e-07
6.73732e-07
7.23875e-07
6.4325e-07
7.32932e-07
7.2264e-07
1.02826e-06
1.04604e-06
6.42741e-07
7.2594e-07
7.20165e-07
1.07967e-06
1.05248e-06
1.15811e-06
7.21239e-07
7.25849e-07
7.90709e-07
6.83656e-07
1.03074e-06
8.91111e-07
7.20256e-07
7.23995e-07
7.91848e-07
7.12516e-07
7.55956e-07
6.83917e-07
7.74865e-07
1.04475e-06
9.65643e-07
7.54722e-07
7.14231e-07
7.75029e-07
1.10542e-06
1.15328e-06
1.03742e-06
7.89394e-07
6.82213e-07
7.56786e-07
7.11207e-07
8.91732e-07
1.03916e-06
7.90483e-07
7.12557e-07
7.59136e-07
7.51075e-07
7.69135e-07
7.08591e-07
7.5999e-07
9.67948e-07
1.08351e-06
7.69373e-07
7.48386e-07
7.62074e-07
1.07018e-06
1.03748e-06
1.06398e-06
7.54293e-07
7.64064e-07
7.77411e-07
8.8519e-07
1.10687e-06
1.29718e-06
7.57106e-07
7.8175e-07
7.79113e-07
8.09692e-07
7.65688e-07
8.88242e-07
7.89529e-07
1.11701e-06
1.11398e-06
7.70025e-07
8.12158e-07
7.90095e-07
1.07306e-06
1.07534e-06
1.08536e-06
7.90084e-07
8.89541e-07
8.12046e-07
8.56199e-07
1.29945e-06
1.12269e-06
7.88845e-07
8.06153e-07
8.0472e-07
8.04793e-07
7.90002e-07
8.53912e-07
7.9006e-07
1.10552e-06
1.08432e-06
7.89229e-07
8.04297e-07
7.85537e-07
1.03908e-06
1.08741e-06
1.11554e-06
8.13298e-07
8.27637e-07
8.26324e-07
7.93395e-07
1.10405e-06
1.01477e-06
8.0639e-07
8.13114e-07
8.2927e-07
8.74407e-07
7.91653e-07
7.91788e-07
8.3199e-07
1.10486e-06
1.21071e-06
7.87269e-07
8.72195e-07
8.34144e-07
1.14693e-06
1.13414e-06
1.19613e-06
8.41076e-07
7.94601e-07
8.83685e-07
8.20867e-07
1.01898e-06
1.08103e-06
8.46411e-07
8.80119e-07
8.87804e-07
8.68713e-07
8.6223e-07
8.23278e-07
9.0924e-07
1.21392e-06
1.12593e-06
8.65937e-07
8.7124e-07
9.12991e-07
1.23664e-06
1.20294e-06
8.91448e-07
8.30974e-07
1.0975e-06
8.94658e-07
8.60063e-07
9.08837e-07
1.11972e-06
9.12495e-07
1.34408e-07
1.34411e-07
1.34413e-07
1.34415e-07
3.68278e-06
8.90989e-06
3.64928e-06
8.91377e-06
1.84665e-05
1.84598e-05
3.68397e-06
8.90958e-06
3.64738e-06
8.91443e-06
1.33748e-07
1.33748e-07
1.33746e-07
1.32066e-07
1.32063e-07
1.3207e-07
1.32071e-07
1.15888e-06
2.79603e-06
1.58623e-07
2.33407e-07
1.13104e-06
2.81994e-06
1.58837e-07
1.8468e-05
1.84596e-05
1.1586e-06
1.5862e-07
2.79613e-06
2.33407e-07
1.13049e-06
1.58839e-07
2.81992e-06
5.13073e-06
5.1321e-06
3.65423e-07
5.1449e-06
5.14645e-06
3.75721e-06
8.91943e-06
3.73294e-06
8.92412e-06
1.84382e-05
1.84308e-05
3.76092e-06
8.92168e-06
3.73178e-06
8.92613e-06
1.31599e-07
1.31601e-07
1.31607e-07
1.30517e-07
1.30519e-07
1.30519e-07
1.30533e-07
1.2423e-06
2.86641e-06
1.59984e-07
2.44567e-07
1.21607e-06
2.88745e-06
1.60529e-07
1.844e-05
1.84328e-05
1.24275e-06
1.59997e-07
2.86607e-06
2.44572e-07
1.215e-06
1.60545e-07
2.88766e-06
5.16606e-06
5.16804e-06
3.92448e-07
5.17713e-06
5.17922e-06
3.81685e-06
8.93099e-06
3.7997e-06
8.93412e-06
1.84119e-05
1.84051e-05
3.82039e-06
8.93198e-06
3.79789e-06
8.93555e-06
1.3025e-07
1.30254e-07
1.30258e-07
1.29774e-07
1.29785e-07
1.2978e-07
1.29782e-07
1.32311e-06
2.92887e-06
1.62695e-07
2.57854e-07
1.29865e-06
2.9471e-06
1.63568e-07
1.84134e-05
1.84066e-05
1.32308e-06
1.62686e-07
2.92855e-06
2.57852e-07
1.29683e-06
1.63581e-07
2.9465e-06
5.19583e-06
5.19711e-06
4.22013e-07
5.20387e-06
5.2057e-06
3.86279e-06
8.93885e-06
3.85007e-06
8.94413e-06
1.83878e-05
1.83826e-05
3.86423e-06
8.9392e-06
3.84718e-06
8.94443e-06
1.29709e-07
1.29711e-07
1.29701e-07
1.29798e-07
1.2981e-07
1.29824e-07
1.29801e-07
1.40061e-06
2.98355e-06
1.6678e-07
2.73195e-07
1.37647e-06
3.00028e-06
1.68003e-07
1.83889e-05
1.83831e-05
1.39899e-06
1.66759e-07
2.98331e-06
2.73183e-07
1.3747e-06
1.68009e-07
2.99892e-06
5.21977e-06
5.22047e-06
4.5382e-07
5.22716e-06
5.22832e-06
3.898e-06
8.9468e-06
3.89014e-06
8.94593e-06
1.83651e-05
1.83575e-05
3.90065e-06
8.94821e-06
3.88749e-06
8.95091e-06
1.29928e-07
1.2995e-07
1.29931e-07
1.30566e-07
1.30569e-07
1.30568e-07
1.30588e-07
1.47059e-06
3.03058e-06
1.72194e-07
2.90261e-07
1.44615e-06
3.04585e-06
1.73768e-07
1.8366e-05
1.83575e-05
1.46868e-06
1.7223e-07
3.03309e-06
2.90281e-07
1.44854e-06
1.73772e-07
3.04417e-06
5.23701e-06
5.2407e-06
4.8795e-07
5.24379e-06
5.24568e-06
3.92661e-06
8.95103e-06
3.9133e-06
8.95455e-06
1.83449e-05
1.83403e-05
3.92337e-06
8.95125e-06
3.90965e-06
8.95703e-06
1.30867e-07
1.30881e-07
1.30904e-07
1.32132e-07
1.32148e-07
1.32122e-07
1.32176e-07
1.53337e-06
3.07175e-06
1.78922e-07
3.09094e-07
1.51245e-06
3.08517e-06
1.80842e-07
1.83435e-05
1.83401e-05
1.53215e-06
1.78887e-07
3.07309e-06
3.09148e-07
1.51335e-06
1.80791e-07
3.08404e-06
5.25393e-06
5.254e-06
5.23282e-07
5.25744e-06
5.25846e-06
3.9407e-06
8.95337e-06
3.93367e-06
8.96273e-06
1.83273e-05
1.83226e-05
3.93792e-06
8.95689e-06
3.93915e-06
8.95693e-06
1.32694e-07
1.32659e-07
1.32679e-07
1.34501e-07
1.34526e-07
1.34569e-07
1.34509e-07
1.5907e-06
3.10934e-06
1.87153e-07
3.3052e-07
1.57275e-06
3.12198e-06
1.89449e-07
1.8327e-05
1.83262e-05
1.59325e-06
1.87261e-07
3.11108e-06
3.30443e-07
1.57666e-06
1.89556e-07
3.12113e-06
5.26895e-06
5.27289e-06
5.60654e-07
5.27387e-06
5.27688e-06
3.95898e-06
8.97075e-06
3.95906e-06
8.97081e-06
1.83123e-05
1.83113e-05
3.96525e-06
8.96986e-06
3.96078e-06
8.97083e-06
1.35254e-07
1.35312e-07
1.35241e-07
1.37689e-07
1.37662e-07
1.37678e-07
1.37675e-07
1.64424e-06
3.14456e-06
1.96894e-07
3.53365e-07
1.63e-06
3.15453e-06
1.99469e-07
1.83181e-05
1.8315e-05
1.64612e-06
1.96938e-07
3.14572e-06
3.53455e-07
1.62962e-06
1.99516e-07
3.15422e-06
5.2844e-06
5.28594e-06
5.97864e-07
5.28551e-06
5.28601e-06
3.97192e-06
8.96946e-06
3.97238e-06
8.96805e-06
1.83022e-05
1.82986e-05
3.97342e-06
8.97182e-06
3.96693e-06
8.97314e-06
1.38459e-07
1.38495e-07
1.3855e-07
1.41439e-07
1.4143e-07
1.41466e-07
1.41464e-07
1.69172e-06
3.17254e-06
2.07571e-07
3.76449e-07
1.6766e-06
3.18466e-06
2.10461e-07
1.83001e-05
1.82922e-05
1.69182e-06
2.07536e-07
3.17348e-06
3.76648e-07
1.67325e-06
2.10426e-07
3.18354e-06
5.29737e-06
5.29921e-06
6.37145e-07
5.30362e-06
5.30459e-06
3.98043e-06
8.97483e-06
3.97989e-06
8.97929e-06
1.8287e-05
1.82956e-05
3.98057e-06
8.97482e-06
3.97628e-06
8.98106e-06
1.4259e-07
1.42602e-07
1.42587e-07
1.46086e-07
1.46163e-07
1.46136e-07
1.46187e-07
1.73417e-06
3.20007e-06
2.20158e-07
4.02433e-07
1.72163e-06
3.20675e-06
2.2349e-07
1.82903e-05
1.83003e-05
1.73516e-06
2.20021e-07
3.19858e-06
4.0237e-07
1.71954e-06
2.23423e-07
3.21061e-06
5.29784e-06
5.29968e-06
6.72399e-07
5.29884e-06
5.30226e-06
3.99729e-06
8.98868e-06
3.99571e-06
8.98579e-06
1.82918e-05
1.82709e-05
3.99643e-06
8.98886e-06
3.99337e-06
8.98806e-06
1.4749e-07
1.47473e-07
1.47455e-07
1.51677e-07
1.51691e-07
1.51583e-07
1.51571e-07
1.77365e-06
3.23445e-06
2.33529e-07
4.29994e-07
1.76113e-06
3.23741e-06
2.37154e-07
1.82834e-05
1.82698e-05
1.77338e-06
2.33591e-07
3.23044e-06
4.29635e-07
1.75949e-06
2.3717e-07
3.23579e-06
5.32993e-06
5.33078e-06
7.12905e-07
5.32701e-06
5.32893e-06
3.99397e-06
8.98151e-06
3.98689e-06
8.99371e-06
1.82598e-05
1.82857e-05
3.99447e-06
8.98644e-06
3.99153e-06
8.99675e-06
1.53051e-07
1.52943e-07
1.5308e-07
1.57786e-07
1.57546e-07
1.57846e-07
1.57697e-07
1.80338e-06
3.23591e-06
2.48088e-07
4.54908e-07
1.78831e-06
3.24897e-06
2.5177e-07
1.82717e-05
1.82893e-05
1.80112e-06
2.48251e-07
3.24044e-06
4.55369e-07
1.79347e-06
2.51986e-07
3.25248e-06
5.3024e-06
5.30365e-06
7.44376e-07
5.31664e-06
5.31285e-06
4.00199e-06
8.99252e-06
4.00862e-06
8.98942e-06
1.82758e-05
1.82665e-05
4.00193e-06
8.99284e-06
4.00719e-06
8.98722e-06
1.5924e-07
1.59586e-07
1.594e-07
1.64275e-07
1.64501e-07
1.64456e-07
1.64693e-07
1.8387e-06
3.2804e-06
2.64451e-07
4.85285e-07
1.8338e-06
3.2794e-06
2.68808e-07
1.82689e-05
1.82621e-05
1.84218e-06
2.64598e-07
3.28058e-06
4.85819e-07
1.83318e-06
2.68964e-07
3.2795e-06
5.35311e-06
5.3562e-06
7.85884e-07
5.34723e-06
5.35219e-06
4.01186e-06
9.00182e-06
3.99882e-06
9.01649e-06
1.8286e-05
1.83117e-05
4.00947e-06
8.99758e-06
3.99663e-06
9.01576e-06
1.66423e-07
1.66334e-07
1.66307e-07
1.72985e-07
1.72604e-07
1.72397e-07
1.72693e-07
1.86089e-06
3.27801e-06
2.80707e-07
5.13333e-07
1.84409e-06
3.29596e-06
2.84949e-07
1.82864e-05
1.83084e-05
1.856e-06
2.80766e-07
3.27743e-06
5.12845e-07
1.84607e-06
2.84765e-07
3.29251e-06
5.32223e-06
5.32154e-06
8.16013e-07
5.33632e-06
5.33301e-06
4.03355e-06
9.03072e-06
4.03171e-06
9.02811e-06
1.83018e-05
1.82698e-05
4.03253e-06
9.02791e-06
4.03101e-06
9.02672e-06
1.74987e-07
1.7461e-07
1.75059e-07
1.81825e-07
1.81834e-07
1.81972e-07
1.81503e-07
1.90019e-06
3.32542e-06
2.99928e-07
5.4678e-07
1.89127e-06
3.328e-06
3.05209e-07
1.83061e-05
1.82827e-05
1.90187e-06
2.99488e-07
3.32189e-06
5.45525e-07
1.89097e-06
3.05056e-07
3.32483e-06
5.38229e-06
5.38602e-06
8.55537e-07
5.38337e-06
5.38708e-06
4.00947e-06
9.00278e-06
4.01893e-06
9.00385e-06
1.81973e-05
1.82053e-05
4.01318e-06
9.01213e-06
4.02327e-06
9.01377e-06
1.8372e-07
1.84105e-07
1.83544e-07
1.87934e-07
1.90002e-07
1.9003e-07
1.87607e-07
1.90681e-06
3.31254e-06
3.19729e-07
5.71865e-07
1.90664e-06
3.30691e-06
3.24013e-07
1.8213e-05
1.82179e-05
1.90303e-06
3.19915e-07
3.31419e-06
5.72801e-07
1.90378e-06
3.23932e-07
3.30874e-06
5.34593e-06
5.3482e-06
8.74894e-07
5.34308e-06
5.34614e-06
4.0362e-06
9.05819e-06
4.02024e-06
9.0679e-06
1.82704e-05
1.82816e-05
4.03322e-06
9.05756e-06
4.01297e-06
9.07198e-06
1.92529e-07
1.92394e-07
1.9046e-07
2.01485e-07
2.00069e-07
2.00657e-07
2.04168e-07
1.94564e-06
3.34204e-06
3.36552e-07
6.01343e-07
1.92547e-06
3.35626e-06
3.42158e-07
1.82723e-05
1.82752e-05
1.94464e-06
3.35871e-07
3.34357e-06
6.02005e-07
1.92382e-06
3.41352e-07
3.36262e-06
5.43296e-06
5.4345e-06
9.41755e-07
5.44466e-06
5.44572e-06
4.01665e-06
9.01474e-06
4.02751e-06
8.99092e-06
1.82901e-05
1.83528e-05
4.02908e-06
9.03921e-06
4.03726e-06
9.0063e-06
2.02086e-07
2.03087e-07
2.08656e-07
2.18325e-07
2.07982e-07
2.09656e-07
2.14861e-07
1.96014e-06
3.35137e-06
3.60528e-07
6.2669e-07
1.95835e-06
3.3516e-06
3.66025e-07
1.82647e-05
1.83126e-05
1.97144e-06
3.61986e-07
3.36119e-06
6.3047e-07
1.96612e-06
3.68051e-07
3.3602e-06
5.35978e-06
5.36892e-06
9.62997e-07
5.31959e-06
5.32895e-06
4.03525e-06
8.97644e-06
4.03082e-06
8.97188e-06
1.84225e-05
1.84065e-05
4.02559e-06
8.95806e-06
4.02957e-06
8.9449e-06
2.10763e-07
2.12031e-07
2.14805e-07
2.18523e-07
2.27721e-07
2.24428e-07
2.14793e-07
1.96193e-06
3.39286e-06
3.80017e-07
6.64997e-07
1.96734e-06
3.39311e-06
3.85309e-07
1.83758e-05
1.83267e-05
1.95863e-06
3.82846e-07
3.38718e-06
6.6179e-07
1.97407e-06
3.8659e-07
3.38037e-06
5.26527e-06
5.26511e-06
9.01027e-07
5.18924e-06
5.17845e-06
4.05087e-06
9.04855e-06
4.02917e-06
9.15204e-06
1.83782e-05
1.83495e-05
4.02165e-06
9.00716e-06
4.00476e-06
9.14295e-06
2.3492e-07
2.30091e-07
2.15584e-07
2.2351e-07
2.47232e-07
2.43316e-07
2.33426e-07
1.99883e-06
3.4017e-06
4.02384e-07
7.29782e-07
1.96024e-06
3.44603e-06
4.09629e-07
1.83045e-05
1.84083e-05
1.97574e-06
3.98108e-07
3.3539e-06
7.0843e-07
1.9451e-06
4.03589e-07
3.39588e-06
5.17917e-06
5.16221e-06
9.42941e-07
5.4766e-06
5.46448e-06
4.11608e-06
9.25848e-06
4.11891e-06
9.16891e-06
1.78865e-05
1.76655e-05
4.13864e-06
9.29673e-06
4.13606e-06
9.2071e-06
2.4694e-07
2.44656e-07
2.45923e-07
2.67695e-07
2.39669e-07
2.44552e-07
2.647e-07
2.07182e-06
3.45342e-06
4.39379e-07
7.15619e-07
2.07598e-06
3.31281e-06
4.44501e-07
1.82866e-05
1.7939e-05
2.08618e-06
4.35049e-07
3.49502e-06
7.25776e-07
2.08425e-06
4.44648e-07
3.45267e-06
5.74512e-06
5.75219e-06
1.13082e-06
5.71855e-06
5.73112e-06
3.97339e-06
8.97868e-06
3.99789e-06
8.95684e-06
1.78805e-05
1.84232e-05
3.99099e-06
8.99374e-06
4.01013e-06
8.98527e-06
2.38732e-07
2.44872e-07
2.65945e-07
2.69247e-07
2.43172e-07
2.56108e-07
2.66798e-07
1.9627e-06
3.18525e-06
4.44522e-07
6.82253e-07
1.98081e-06
3.20472e-06
4.44221e-07
1.78436e-05
1.82985e-05
1.97021e-06
4.50795e-07
3.2419e-06
7.15342e-07
1.98924e-06
4.50811e-07
3.24219e-06
5.33919e-06
5.35897e-06
1.06893e-06
5.29963e-06
5.32155e-06
4.12357e-06
9.0982e-06
4.04121e-06
9.18067e-06
1.92607e-05
1.93967e-05
4.11081e-06
9.12624e-06
4.0759e-06
9.15629e-06
2.51596e-07
2.64187e-07
2.68704e-07
2.71466e-07
3.06497e-07
2.84572e-07
2.76034e-07
2.09841e-06
3.53499e-06
4.52699e-07
8.22419e-07
2.022e-06
3.68083e-06
4.696e-07
1.87748e-05
1.86248e-05
2.10324e-06
4.63281e-07
3.51687e-06
8.03432e-07
2.04547e-06
4.7637e-07
3.56935e-06
5.49687e-06
5.51762e-06
1.08426e-06
5.53686e-06
5.54624e-06
4.13583e-06
9.18229e-06
4.16809e-06
9.08395e-06
1.88672e-05
1.82038e-05
4.05158e-06
9.07173e-06
4.08603e-06
9.02964e-06
3.16061e-07
2.87191e-07
2.77557e-07
2.87154e-07
3.19146e-07
2.92106e-07
2.81625e-07
2.12217e-06
3.7334e-06
5.27917e-07
8.89639e-07
2.14384e-06
3.6001e-06
5.36402e-07
1.81503e-05
1.81791e-05
2.05478e-06
5.08653e-07
3.44226e-06
8.0336e-07
2.09735e-06
5.11785e-07
3.37339e-06
5.31324e-06
5.25467e-06
1.04293e-06
5.21336e-06
5.16487e-06
4.00585e-06
9.01582e-06
4.01964e-06
9.06454e-06
1.7682e-05
1.77851e-05
4.07515e-06
9.05772e-06
4.04386e-06
9.14592e-06
3.14489e-07
2.95673e-07
2.82888e-07
3.00168e-07
2.97551e-07
3.15107e-07
2.95945e-07
2.03042e-06
3.31775e-06
5.34136e-07
8.03304e-07
2.04303e-06
3.26758e-06
5.27632e-07
1.86771e-05
1.87858e-05
2.06672e-06
5.16112e-07
3.42729e-06
8.32193e-07
2.04006e-06
5.20158e-07
3.5284e-06
5.30627e-06
5.32485e-06
1.06994e-06
5.43115e-06
5.48492e-06
4.10569e-06
9.22184e-06
4.07462e-06
9.24418e-06
1.82175e-05
1.83372e-05
4.12218e-06
9.24909e-06
4.11859e-06
9.25354e-06
2.96631e-07
3.20038e-07
3.08841e-07
3.2751e-07
3.00092e-07
3.2694e-07
3.41558e-07
2.11479e-06
3.35299e-06
5.25659e-07
7.99221e-07
2.0697e-06
3.43146e-06
5.31785e-07
1.85073e-05
1.81752e-05
2.13844e-06
5.4658e-07
3.5754e-06
8.7959e-07
2.12241e-06
5.57463e-07
3.52665e-06
5.59475e-06
5.62389e-06
1.22371e-06
5.6338e-06
5.64829e-06
9.18444e-06
4.09621e-06
1.83708e-05
9.1911e-06
4.0903e-06
3.02825e-07
3.26902e-07
3.4509e-07
3.46127e-06
5.58604e-07
2.13612e-06
1.79786e-05
5.76826e-07
3.40475e-06
2.13885e-06
5.61174e-06
5.60876e-06
1.84718e-05
1.84737e-05
5.12514e-06
5.12667e-06
8.90892e-06
3.63786e-06
8.90774e-06
3.63798e-06
2.78299e-06
1.58502e-07
1.11627e-06
2.78371e-06
1.58505e-07
1.1163e-06
1.84727e-05
5.12575e-06
5.12472e-06
1.84716e-05
8.90885e-06
3.6374e-06
2.78363e-06
1.58501e-07
1.11641e-06
8.90894e-06
3.63715e-06
1.58508e-07
2.78382e-06
1.1164e-06
2.78315e-06
1.58498e-07
1.11608e-06
8.90864e-06
3.63775e-06
1.58499e-07
2.78303e-06
1.11602e-06
8.90804e-06
3.63725e-06
1.84745e-05
5.12685e-06
5.12451e-06
1.8472e-05
1.58501e-07
2.7833e-06
1.11656e-06
1.58499e-07
2.78389e-06
1.11657e-06
8.90874e-06
3.63459e-06
8.9089e-06
3.63502e-06
5.12423e-06
5.12563e-06
1.84724e-05
1.84736e-05
1.84656e-05
1.84563e-05
1.84675e-05
1.84586e-05
5.13168e-06
5.13328e-06
3.6543e-07
5.14374e-06
5.14551e-06
1.84426e-05
1.84499e-05
1.84452e-05
1.84523e-05
3.71176e-07
5.16161e-06
5.1627e-06
5.14901e-06
5.15082e-06
3.68254e-06
8.90848e-06
3.64889e-06
8.91419e-06
1.15885e-06
2.7963e-06
1.58619e-07
2.33474e-07
1.13099e-06
2.82022e-06
1.58848e-07
1.15872e-06
2.79641e-06
1.58628e-07
2.33514e-07
1.13093e-06
2.82032e-06
1.58849e-07
3.69334e-06
8.91858e-06
8.91424e-06
3.72334e-06
3.69391e-06
8.92016e-06
8.91527e-06
3.72374e-06
1.17342e-06
2.36071e-07
2.85466e-06
1.59533e-07
2.83239e-06
1.59137e-07
1.20101e-06
1.17342e-06
2.36118e-07
2.85558e-06
1.59535e-07
2.83323e-06
1.59153e-07
1.20124e-06
5.13161e-06
5.1306e-06
3.65475e-07
5.14629e-06
5.14421e-06
1.84652e-05
1.84574e-05
1.84444e-05
1.84536e-05
3.7125e-07
5.16262e-06
5.16081e-06
5.15228e-06
5.14998e-06
1.84428e-05
1.84513e-05
1.1587e-06
2.79673e-06
1.58624e-07
2.33406e-07
1.13087e-06
2.82054e-06
1.58833e-07
3.68344e-06
8.90975e-06
3.64788e-06
8.91403e-06
1.1587e-06
1.58632e-07
2.79686e-06
2.33512e-07
1.13086e-06
1.58839e-07
2.82054e-06
3.69435e-06
8.92074e-06
8.91524e-06
3.72202e-06
1.17342e-06
2.35999e-07
2.85506e-06
1.59515e-07
2.83278e-06
1.59137e-07
1.20092e-06
3.69447e-06
8.9202e-06
8.91486e-06
3.72164e-06
1.17336e-06
2.36104e-07
1.59521e-07
2.85512e-06
1.59144e-07
2.83312e-06
1.20088e-06
3.68049e-06
8.90946e-06
3.65204e-06
8.9146e-06
1.15898e-06
1.58622e-07
2.79599e-06
2.33465e-07
1.13099e-06
1.58837e-07
2.82031e-06
3.681e-06
8.90918e-06
3.65179e-06
8.91461e-06
1.17307e-06
2.36001e-07
2.85478e-06
1.59519e-07
2.83255e-06
1.59139e-07
1.20121e-06
3.69044e-06
8.92004e-06
8.91543e-06
3.72662e-06
1.17312e-06
2.36066e-07
1.59521e-07
2.85459e-06
1.5914e-07
2.83286e-06
1.20107e-06
3.69036e-06
8.9191e-06
8.91507e-06
3.726e-06
5.13297e-06
5.13084e-06
3.65459e-07
5.14578e-06
5.14491e-06
1.84659e-05
1.84583e-05
1.84457e-05
1.84534e-05
3.71212e-07
5.16245e-06
5.16047e-06
5.15146e-06
5.15044e-06
1.84437e-05
1.8452e-05
1.15875e-06
1.58621e-07
2.79662e-06
2.33412e-07
1.13066e-06
1.58837e-07
2.82048e-06
3.68598e-06
8.90917e-06
3.64425e-06
8.91406e-06
3.68578e-06
8.90937e-06
3.64512e-06
8.91398e-06
1.1739e-06
2.35998e-07
1.59521e-07
2.85476e-06
1.59141e-07
2.83272e-06
1.20117e-06
1.17381e-06
2.36006e-07
1.59517e-07
2.85496e-06
1.59135e-07
2.83307e-06
1.20098e-06
3.69786e-06
8.92088e-06
8.91552e-06
3.72017e-06
3.69685e-06
8.92107e-06
8.915e-06
3.72009e-06
1.84664e-05
1.84584e-05
1.84677e-05
1.846e-05
3.7118e-07
5.16034e-06
5.16203e-06
5.15022e-06
5.15168e-06
1.84434e-05
1.84516e-05
1.84459e-05
1.84535e-05
1.84365e-05
1.84283e-05
1.84395e-05
1.84315e-05
5.16684e-06
5.16829e-06
3.92272e-07
5.17568e-06
5.17818e-06
1.8417e-05
1.8423e-05
1.84187e-05
1.84257e-05
3.98693e-07
5.19187e-06
5.19303e-06
5.18025e-06
5.18302e-06
3.75739e-06
8.92063e-06
3.73285e-06
8.92394e-06
1.24227e-06
2.8665e-06
1.5999e-07
2.44626e-07
1.2154e-06
2.88706e-06
1.6054e-07
1.24236e-06
2.86689e-06
1.60005e-07
2.44691e-07
1.21559e-06
2.88789e-06
1.60546e-07
3.76616e-06
8.93021e-06
8.92485e-06
3.792e-06
3.76663e-06
8.92863e-06
8.92451e-06
3.79131e-06
1.25636e-06
2.47754e-07
2.91853e-06
1.61886e-07
2.89772e-06
1.61156e-07
1.28345e-06
1.25645e-06
2.47805e-07
2.91851e-06
1.61891e-07
2.89908e-06
1.61177e-07
1.28335e-06
5.16757e-06
5.16606e-06
3.9232e-07
5.17811e-06
5.17676e-06
1.84368e-05
1.84296e-05
1.84175e-05
1.84251e-05
3.9874e-07
5.19216e-06
5.19074e-06
5.18314e-06
5.18156e-06
1.84165e-05
1.8424e-05
1.24294e-06
2.8669e-06
1.6e-07
2.4457e-07
1.21532e-06
2.88799e-06
1.60539e-07
3.7606e-06
8.921e-06
3.73205e-06
8.92584e-06
1.24294e-06
1.60005e-07
2.86661e-06
2.44682e-07
1.21524e-06
1.60545e-07
2.88818e-06
3.76823e-06
8.93118e-06
8.92665e-06
3.78988e-06
1.25721e-06
2.47704e-07
2.91913e-06
1.61892e-07
2.89893e-06
1.61179e-07
1.28349e-06
3.76866e-06
8.93006e-06
8.92649e-06
3.78938e-06
1.25719e-06
2.47809e-07
1.61888e-07
2.91904e-06
1.61182e-07
2.89944e-06
1.28345e-06
3.75396e-06
8.92068e-06
3.73663e-06
8.92501e-06
1.24231e-06
1.59984e-07
2.86631e-06
2.44667e-07
1.2159e-06
1.60528e-07
2.88774e-06
3.7542e-06
8.92005e-06
3.73628e-06
8.92513e-06
1.25585e-06
2.47685e-07
2.91828e-06
1.61896e-07
2.89836e-06
1.61173e-07
1.28397e-06
3.76364e-06
8.93057e-06
8.92581e-06
3.79602e-06
1.25587e-06
2.47816e-07
1.61901e-07
2.91857e-06
1.61175e-07
2.89867e-06
1.28396e-06
3.76355e-06
8.93125e-06
8.92591e-06
3.79584e-06
5.16787e-06
5.16599e-06
3.92295e-07
5.17879e-06
5.17803e-06
1.84381e-05
1.84313e-05
1.84191e-05
1.84269e-05
3.98737e-07
5.19275e-06
5.19113e-06
5.18386e-06
5.18303e-06
1.84161e-05
1.84252e-05
1.24309e-06
1.59999e-07
2.86665e-06
2.44627e-07
1.21506e-06
1.60547e-07
2.88874e-06
3.76221e-06
8.92107e-06
3.72916e-06
8.92522e-06
3.76273e-06
8.92204e-06
3.73023e-06
8.92639e-06
1.25748e-06
2.47694e-07
1.61878e-07
2.91874e-06
1.61171e-07
2.89922e-06
1.28356e-06
1.25761e-06
2.47759e-07
1.61878e-07
2.91864e-06
1.61172e-07
2.89983e-06
1.28322e-06
3.77063e-06
8.93004e-06
8.92639e-06
3.7884e-06
3.77016e-06
8.92936e-06
8.9266e-06
3.78745e-06
1.84379e-05
1.84308e-05
1.84407e-05
1.84326e-05
3.98887e-07
5.19079e-06
5.19205e-06
5.1817e-06
5.18359e-06
1.84177e-05
1.84249e-05
1.84189e-05
1.84261e-05
1.8411e-05
1.84026e-05
1.84128e-05
1.84053e-05
5.19638e-06
5.19736e-06
4.21952e-07
5.20355e-06
5.20483e-06
1.83916e-05
1.83972e-05
1.83941e-05
1.84001e-05
4.28887e-07
5.21524e-06
5.21741e-06
5.20713e-06
5.20897e-06
3.81632e-06
8.92926e-06
3.79864e-06
8.93314e-06
1.32319e-06
2.92942e-06
1.62676e-07
2.57914e-07
1.29757e-06
2.94714e-06
1.63582e-07
1.32277e-06
2.92864e-06
1.6269e-07
2.57975e-07
1.29726e-06
2.94733e-06
1.63574e-07
3.82378e-06
8.93806e-06
8.93441e-06
3.8437e-06
3.82391e-06
8.93946e-06
8.93393e-06
3.84423e-06
1.33642e-06
2.61564e-07
2.97418e-06
1.65626e-07
2.95641e-06
1.64553e-07
1.36195e-06
1.33618e-06
2.61624e-07
2.97434e-06
1.65622e-07
2.95724e-06
1.64554e-07
1.36215e-06
5.19661e-06
5.19549e-06
4.22097e-07
5.20533e-06
5.20397e-06
1.84108e-05
1.84036e-05
1.83928e-05
1.83997e-05
4.29122e-07
5.21608e-06
5.2149e-06
5.20943e-06
5.20773e-06
1.83923e-05
1.83985e-05
1.32384e-06
2.92959e-06
1.62706e-07
2.57847e-07
1.29735e-06
2.94752e-06
1.63583e-07
3.82002e-06
8.93072e-06
3.7979e-06
8.93632e-06
1.3238e-06
1.62702e-07
2.92933e-06
2.57985e-07
1.29723e-06
1.63589e-07
2.94751e-06
3.82632e-06
8.93855e-06
8.9358e-06
3.84177e-06
1.33741e-06
2.61483e-07
2.97475e-06
1.65616e-07
2.95712e-06
1.64567e-07
1.36189e-06
3.82676e-06
8.94054e-06
8.93724e-06
3.84209e-06
1.33741e-06
2.61645e-07
1.65631e-07
2.97527e-06
1.6458e-07
2.95723e-06
1.36215e-06
3.81306e-06
8.93092e-06
3.80347e-06
8.93309e-06
1.32332e-06
1.62704e-07
2.92944e-06
2.57938e-07
1.29871e-06
1.63579e-07
2.94764e-06
3.81351e-06
8.93171e-06
3.80365e-06
8.93299e-06
1.33542e-06
2.61499e-07
2.97402e-06
1.65624e-07
2.95652e-06
1.64546e-07
1.36192e-06
3.81939e-06
8.94118e-06
8.93445e-06
3.84697e-06
1.33551e-06
2.6155e-07
1.6562e-07
2.97375e-06
1.64553e-07
2.95662e-06
1.36157e-06
3.81915e-06
8.94082e-06
8.93346e-06
3.84606e-06
5.197e-06
5.19486e-06
4.22043e-07
5.20527e-06
5.20318e-06
1.84101e-05
1.84039e-05
1.83946e-05
1.84013e-05
4.29008e-07
5.21741e-06
5.21535e-06
5.20948e-06
5.20783e-06
1.83919e-05
1.83989e-05
1.32347e-06
1.62682e-07
2.92896e-06
2.57862e-07
1.2966e-06
1.63571e-07
2.94815e-06
3.82005e-06
8.93005e-06
3.79515e-06
8.93442e-06
3.82126e-06
8.93037e-06
3.79536e-06
8.93675e-06
1.33711e-06
2.61503e-07
1.6561e-07
2.9745e-06
1.64558e-07
2.9566e-06
1.36218e-06
1.33752e-06
2.61474e-07
1.65607e-07
2.9744e-06
1.64548e-07
2.9578e-06
1.36211e-06
3.82737e-06
8.9392e-06
8.93583e-06
3.84175e-06
3.82783e-06
8.93841e-06
8.9371e-06
3.84132e-06
1.8412e-05
1.84042e-05
1.84139e-05
1.84066e-05
4.28889e-07
5.21511e-06
5.21625e-06
5.2073e-06
5.20933e-06
1.83937e-05
1.83988e-05
1.83943e-05
1.84007e-05
1.83867e-05
1.8381e-05
1.83889e-05
1.83828e-05
5.21921e-06
5.22111e-06
4.54126e-07
5.22616e-06
5.22756e-06
1.83687e-05
1.83763e-05
1.83713e-05
1.83781e-05
4.61599e-07
5.23676e-06
5.23795e-06
5.23001e-06
5.2314e-06
3.86261e-06
8.93996e-06
3.85047e-06
8.94168e-06
1.39933e-06
2.98344e-06
1.66753e-07
2.73254e-07
1.37533e-06
2.99952e-06
1.67996e-07
1.39938e-06
2.98328e-06
1.66772e-07
2.73313e-07
1.37556e-06
2.99994e-06
1.68004e-07
3.86846e-06
8.94722e-06
8.94493e-06
3.88463e-06
3.86795e-06
8.94601e-06
8.94197e-06
3.88363e-06
1.41176e-06
2.77409e-07
3.02449e-06
1.70744e-07
3.00837e-06
1.69304e-07
1.4359e-06
1.41162e-06
2.77467e-07
3.02462e-06
1.70732e-07
3.00901e-06
1.69322e-07
1.43545e-06
5.21953e-06