/*--------------------------------*- C++ -*----------------------------------*\
| =========                 |                                                 |
| \\      /  F ield         | OpenFOAM: The Open Source CFD Toolbox           |
|  \\    /   O peration     | Version:  v2006                                 |
|   \\  /    A nd           | Website:  www.openfoam.com                      |
|    \\/     M anipulation  |                                                 |
\*---------------------------------------------------------------------------*/
FoamFile
{
    version     2.0;
    format      ascii;
    class       surfaceScalarField;
    location    "1000";
    object      phi;
}
// * * * * * * * * * * * * * * * * * * * * * * * * * * * * * * * * * * * * * //

dimensions      [0 3 -1 0 0 0 0];
oriented        oriented;


internalField   nonuniform List<scalar> 
124860
(
-8.45721e-07
-8.44946e-07
-0.00114629
4.46648e-07
4.48173e-07
0.00114709
-0.00113697
-1.50993e-06
8.45201e-07
4.15884e-07
0.00113746
-4.93608e-07
1.12558e-06
1.22372e-07
7.26201e-07
-5.38727e-07
-1.24265e-06
5.59494e-08
-0.00113688
-1.50818e-06
8.46301e-07
4.17713e-07
0.00113737
-4.97638e-07
1.12152e-06
1.24059e-07
7.21286e-07
-5.35435e-07
-1.23558e-06
5.28372e-08
-0.000276395
1.53847e-06
1.49631e-06
-4.85918e-07
-4.96105e-07
0.000274342
-8.22957e-07
-8.27244e-07
-0.00114944
4.39694e-07
4.37491e-07
0.00115021
-0.00113887
-1.50199e-06
8.22111e-07
4.06005e-07
0.00113931
-4.81431e-07
1.13178e-06
1.27165e-07
7.33981e-07
-5.21534e-07
-1.22469e-06
6.32763e-08
-0.00113877
-1.50061e-06
8.28437e-07
4.09554e-07
0.00113922
-4.86232e-07
1.12729e-06
1.28063e-07
7.27324e-07
-5.18896e-07
-1.21882e-06
5.89973e-08
-0.000276478
1.5329e-06
1.48999e-06
-4.74669e-07
-4.85369e-07
0.000274415
-8.00763e-07
-8.02511e-07
-0.00115249
4.28371e-07
4.2749e-07
0.00115324
-0.00114057
-1.49416e-06
8.01042e-07
4.02685e-07
0.00114096
-4.69635e-07
1.13591e-06
1.30685e-07
7.41014e-07
-5.05521e-07
-1.20681e-06
6.95552e-08
-0.00114047
-1.49044e-06
8.02335e-07
3.99361e-07
0.00114086
-4.69204e-07
1.13471e-06
1.37918e-07
7.337e-07
-5.02588e-07
-1.20026e-06
6.50847e-08
-0.000276495
1.52207e-06
1.48014e-06
-4.61002e-07
-4.70629e-07
0.000274424
-7.83128e-07
-7.8153e-07
-0.00115544
4.18992e-07
4.21296e-07
0.00115617
-0.00114207
-1.48326e-06
7.8199e-07
3.93356e-07
0.00114242
-4.55899e-07
1.14131e-06
1.35315e-07
7.44454e-07
-4.9152e-07
-1.19201e-06
7.40462e-08
-0.00114198
-1.48103e-06
7.83847e-07
3.94106e-07
0.00114232
-4.57412e-07
1.13976e-06
1.42344e-07
7.39588e-07
-4.86976e-07
-1.18238e-06
7.09247e-08
-0.000276458
1.51342e-06
1.47179e-06
-4.48511e-07
-4.57931e-07
0.000274379
-7.5117e-07
-7.57979e-07
-0.00115831
4.06363e-07
4.05343e-07
0.001159
-0.00114339
-1.46822e-06
7.56115e-07
3.70102e-07
0.00114369
-4.3583e-07
1.15189e-06
1.49439e-07
7.47087e-07
-4.77124e-07
-1.17506e-06
7.80924e-08
-0.00114331
-1.46629e-06
7.46322e-07
3.70429e-07
0.0011436
-4.38921e-07
1.14915e-06
1.54017e-07
7.48942e-07
-4.70329e-07
-1.16273e-06
7.95188e-08
-0.000276361
1.50214e-06
1.45939e-06
-4.31672e-07
-4.42973e-07
0.000274274
-7.41933e-07
-7.32027e-07
-0.00116104
3.97123e-07
4.02912e-07
0.00116171
-0.0011445
-1.46331e-06
7.35972e-07
3.82342e-07
0.00114475
-4.33763e-07
1.14831e-06
1.43614e-07
7.5928e-07
-4.57052e-07
-1.15062e-06
8.88299e-08
-0.00114441
-1.45916e-06
7.32022e-07
3.82275e-07
0.00114465
-4.33981e-07
1.14785e-06
1.50291e-07
7.55939e-07
-4.53397e-07
-1.14387e-06
8.72631e-08
-0.000276214
1.4856e-06
1.4437e-06
-4.14843e-07
-4.24408e-07
0.000274124
-7.05833e-07
-6.99681e-07
-0.00116369
3.85412e-07
3.88078e-07
0.00116432
-0.00114539
-1.45111e-06
7.16471e-07
3.78078e-07
0.00114559
-4.21733e-07
1.15312e-06
1.48463e-07
7.65248e-07
-4.42508e-07
-1.13274e-06
9.48768e-08
-0.00114531
-1.44416e-06
7.17278e-07
3.68523e-07
0.00114549
-4.18688e-07
1.1544e-06
1.56111e-07
7.60174e-07
-4.4001e-07
-1.12871e-06
9.27509e-08
-0.000276027
1.48201e-06
1.4348e-06
-4.03699e-07
-4.19002e-07
0.000273933
-6.90159e-07
-6.96708e-07
-0.00116623
3.87816e-07
3.8086e-07
0.00116685
-0.00114609
-1.4374e-06
6.91922e-07
3.65714e-07
0.00114625
-4.10596e-07
1.15685e-06
1.49697e-07
7.72658e-07
-4.30286e-07
-1.11657e-06
1.00419e-07
-0.00114601
-1.4363e-06
6.86001e-07
3.66879e-07
0.00114616
-4.1167e-07
1.15527e-06
1.58064e-07
7.67479e-07
-4.26316e-07
-1.11071e-06
9.86359e-08
-0.000275807
1.46215e-06
1.42056e-06
-3.9082e-07
-3.99984e-07
0.000273715
-6.81022e-07
-6.83512e-07
-0.00116864
3.81087e-07
3.89237e-07
0.00116924
-0.00114667
-1.417e-06
6.71236e-07
3.34689e-07
0.00114678
-3.8678e-07
1.16941e-06
1.66067e-07
7.71909e-07
-4.18749e-07
-1.1047e-06
1.03489e-07
-0.00114657
-1.41433e-06
6.59004e-07
3.18279e-07
0.0011467
-3.9029e-07
1.16961e-06
1.73458e-07
7.66888e-07
-4.14645e-07
-1.09854e-06
1.02466e-07
-0.000275557
1.46166e-06
1.42015e-06
-3.85767e-07
-3.95523e-07
0.000273457
-6.06857e-07
-6.12577e-07
-0.00117093
3.42931e-07
3.35767e-07
0.00117147
-0.00114706
-1.4046e-06
6.24702e-07
3.21471e-07
0.00114711
-3.77257e-07
1.17524e-06
1.72696e-07
7.87558e-07
-3.96531e-07
-1.08043e-06
1.19698e-07
-0.00114696
-1.41149e-06
6.56814e-07
3.52993e-07
0.00114703
-3.95977e-07
1.1597e-06
1.57236e-07
7.78716e-07
-3.97448e-07
-1.07816e-06
1.1264e-07
-0.000275308
1.42387e-06
1.37785e-06
-3.50097e-07
-3.62926e-07
0.000273219
-6.61256e-07
-6.55093e-07
-0.00117318
3.81535e-07
3.88888e-07
0.00117373
-0.00114726
-1.40869e-06
6.5019e-07
3.4329e-07
0.0011473
-3.83978e-07
1.16464e-06
1.63423e-07
7.86027e-07
-3.97058e-07
-1.07218e-06
1.11934e-07
-0.00114715
-1.38936e-06
6.28875e-07
2.95938e-07
0.0011472
-3.67676e-07
1.178e-06
1.82118e-07
7.76945e-07
-3.9175e-07
-1.0675e-06
1.11847e-07
-0.000275034
1.43819e-06
1.39569e-06
-3.63419e-07
-3.73e-07
0.000272936
-5.57033e-07
-5.68019e-07
-0.00117516
3.23597e-07
3.09989e-07
0.00117565
-0.00114738
-1.37349e-06
5.77958e-07
2.79019e-07
0.0011474
-3.56979e-07
1.18356e-06
1.72442e-07
7.91357e-07
-3.71667e-07
-1.05433e-06
1.29806e-07
-0.00114729
-1.39086e-06
5.82199e-07
3.45846e-07
0.00114729
-3.80047e-07
1.16184e-06
1.58046e-07
7.97342e-07
-3.65934e-07
-1.03934e-06
1.30364e-07
-0.000274794
1.40196e-06
1.36185e-06
-3.33286e-07
-3.41474e-07
0.000272705
-5.86301e-07
-5.75376e-07
-0.0011772
3.47705e-07
3.5827e-07
0.00117766
-0.00114738
-1.36804e-06
5.69948e-07
2.80741e-07
0.0011473
-3.4233e-07
1.18859e-06
1.89822e-07
8.09784e-07
-3.62253e-07
-1.03452e-06
1.39822e-07
-0.00114721
-1.35099e-06
5.83236e-07
2.31447e-07
0.00114717
-3.32029e-07
1.19936e-06
2.0409e-07
7.90436e-07
-3.68309e-07
-1.04291e-06
1.28732e-07
-0.000274484
1.40836e-06
1.36076e-06
-3.29946e-07
-3.4541e-07
0.00027239
-5.43729e-07
-5.34626e-07
-0.00117884
3.24808e-07
3.38721e-07
0.00117925
-0.00114705
-1.37186e-06
5.51384e-07
3.285e-07
0.001147
-3.57524e-07
1.17187e-06
1.68213e-07
8.01174e-07
-3.5252e-07
-1.02645e-06
1.36491e-07
-0.00114702
-1.37727e-06
5.26089e-07
3.49939e-07
0.00114696
-3.6792e-07
1.16328e-06
1.65829e-07
8.06433e-07
-3.43204e-07
-1.00882e-06
1.3905e-07
-0.000274223
1.3719e-06
1.33633e-06
-3.1426e-07
-3.17599e-07
0.000272147
-6.05811e-07
-5.97287e-07
-0.00118066
3.61999e-07
3.67991e-07
0.00118114
-0.00114685
-1.35109e-06
5.86441e-07
2.64228e-07
0.00114675
-3.3736e-07
1.18782e-06
1.83083e-07
8.04444e-07
-3.53262e-07
-1.0189e-06
1.32024e-07
-0.00114684
-1.34076e-06
5.64393e-07
2.34583e-07
0.00114676
-3.312e-07
1.19048e-06
1.91335e-07
8.00213e-07
-3.47444e-07
-1.01641e-06
1.35917e-07
-0.000273947
1.39741e-06
1.35114e-06
-3.21947e-07
-3.36533e-07
0.000271857
-2.84572e-07
-3.48229e-07
-0.00118226
2.02907e-07
1.52532e-07
0.00118254
-0.00114665
-1.31305e-06
3.85843e-07
1.13466e-07
0.00114667
-3.00524e-07
1.21868e-06
2.11955e-07
8.22679e-07
-3.24176e-07
-9.98828e-07
1.65233e-07
-0.00114648
-1.32266e-06
4.27253e-07
1.68689e-07
0.00114645
-3.13743e-07
1.20711e-06
2.08697e-07
8.16436e-07
-3.24698e-07
-9.91072e-07
1.57271e-07
-0.000273732
1.32471e-06
1.27919e-06
-2.58089e-07
-2.6994e-07
0.000271656
-7.3312e-07
-6.73599e-07
-0.00118351
4.97962e-07
5.32774e-07
0.00118388
-0.00114651
-1.33454e-06
5.80839e-07
2.04967e-07
0.00114641
-3.19361e-07
1.1974e-06
2.05396e-07
7.97291e-07
-3.50329e-07
-1.0108e-06
1.25373e-07
-0.00114623
-1.33212e-06
5.97729e-07
2.14689e-07
0.00114613
-3.29087e-07
1.19229e-06
2.00224e-07
7.89575e-07
-3.46948e-07
-1.00427e-06
1.20405e-07
-0.00027326
1.42879e-06
1.38647e-06
-3.46585e-07
-3.55031e-07
0.000271146
-3.96541e-07
-4.58799e-07
-0.00118473
3.24024e-07
3.01053e-07
0.00118496
-0.0011461
-1.29105e-06
2.9806e-07
2.03051e-07
0.00114588
-2.78941e-07
1.2064e-06
1.9981e-07
8.66779e-07
-2.59477e-07
-9.39701e-07
2.18468e-07
-0.00114598
-1.27028e-06
2.92538e-07
9.89594e-08
0.00114587
-2.59779e-07
1.22891e-06
2.2754e-07
8.3337e-07
-2.78946e-07
-9.65453e-07
1.97735e-07
-0.000273055
1.33522e-06
1.28213e-06
-2.90381e-07
-3.10938e-07
0.000271039
-3.90771e-07
-2.80671e-07
-0.00118629
-2.62388e-08
8.11235e-08
0.0011869
-0.00114452
-1.37524e-06
5.96962e-07
7.05667e-07
0.00114388
-3.57406e-07
1.13013e-06
1.44817e-07
8.48835e-07
-2.88958e-07
-9.4467e-07
1.80495e-07
-0.00114484
-1.39886e-06
5.55771e-07
7.06844e-07
0.00114435
-3.85503e-07
1.11292e-06
1.40273e-07
8.44062e-07
-3.0254e-07
-9.37645e-07
1.59642e-07
-0.000273536
1.17089e-06
1.15457e-06
-1.82278e-07
-1.71582e-07
0.000271564
2.50822e-07
3.61389e-07
-0.00118805
-4.51205e-07
-3.4412e-07
0.00118823
-0.00114241
-1.39448e-06
7.73433e-07
4.13039e-07
0.00114244
-4.31635e-07
1.11145e-06
7.5135e-08
7.55744e-07
-3.782e-07
-1.00587e-06
5.72678e-08
-0.00114322
-1.29685e-06
4.93361e-07
1.5535e-07
0.00114307
-3.36233e-07
1.18703e-06
1.49609e-07
8.34909e-07
-2.72945e-07
-9.317e-07
1.68494e-07
-0.000273489
1.39296e-06
1.37315e-06
-2.73232e-07
-2.67816e-07
0.000271264
-1.35237e-06
-1.76977e-06
-0.00118861
1.97335e-06
1.47954e-06
0.00118828
-0.00114478
-8.68774e-07
-3.60622e-07
-1.94611e-06
0.00114598
2.06361e-07
1.64746e-06
6.97202e-07
7.40979e-07
-3.74555e-07
-1.0881e-06
1.53685e-07
-0.00114389
-1.07185e-06
2.99181e-07
-1.02799e-06
0.00114438
2.34202e-08
1.47224e-06
5.74397e-07
6.98422e-07
-4.25605e-07
-1.08319e-06
5.27099e-08
-0.000271735
1.51178e-06
1.37136e-06
-3.32986e-07
-4.11486e-07
0.000269596
-1.25169e-07
-1.32284e-07
-0.0011862
4.08489e-07
2.947e-07
0.00118575
-0.00114831
-1.3994e-06
-4.9801e-07
6.9657e-07
0.00114784
-4.49537e-07
1.05108e-06
-1.4139e-09
1.15798e-06
4.75819e-08
-6.46126e-07
5.05253e-07
-0.00114561
-1.39426e-06
-3.72894e-07
6.47171e-07
0.0011455
-5.1902e-07
1.02547e-06
-9.23618e-08
1.0837e-06
-1.14e-09
-7.10827e-07
4.42813e-07
-0.000271632
1.186e-06
1.15537e-06
-2.0803e-07
-2.03543e-07
0.000269702
9.69506e-08
4.80556e-07
-0.0011872
-1.31639e-06
-5.98783e-07
0.00118853
-0.00114148
-1.54051e-06
1.91505e-06
2.16894e-06
0.00113902
-5.33977e-07
9.25719e-07
-6.25789e-08
7.84e-07
-3.29236e-07
-9.40469e-07
7.29385e-08
-0.00114252
-1.37651e-06
1.38176e-06
9.74586e-07
0.0011414
-3.14144e-07
1.1628e-06
2.53633e-07
6.47953e-07
-4.8044e-07
-1.07791e-06
-5.10823e-08
-0.000272236
1.24337e-06
1.30738e-06
-3.16649e-07
-2.6261e-07
0.000270265
-7.04241e-07
-1.34813e-07
-0.00119217
-2.28636e-07
5.44503e-07
0.00119269
-0.00113581
-1.25532e-06
6.46534e-07
-4.55508e-08
0.00113625
-2.22079e-07
1.25532e-06
3.14778e-07
5.96469e-07
-5.1519e-07
-1.15732e-06
-6.35363e-08
-0.00114065
-1.054e-06
-3.93024e-07
-8.15026e-07
0.0011411
-7.53441e-08
1.37407e-06
3.51576e-07
9.03857e-07
-1.63188e-07
-8.9265e-07
3.11995e-07
-0.000272725
1.11475e-06
1.18927e-06
-1.86252e-07
-1.10437e-07
0.000270718
1.72794e-07
-8.12667e-07
-0.00119212
1.26386e-06
-1.37397e-07
0.00119163
-0.00114098
-9.87739e-07
-1.08977e-06
-1.91309e-06
0.00114294
-2.26777e-08
1.48378e-06
4.30441e-07
9.10505e-07
-1.79097e-07
-8.95551e-07
3.07033e-07
-0.00114143
-1.49221e-06
6.31648e-07
1.01649e-06
0.00114083
-5.10675e-07
9.85057e-07
-6.54886e-09
8.90558e-07
-2.41442e-07
-8.38162e-07
1.69446e-07
-0.00027226
1.59375e-06
1.2432e-06
-2.04816e-07
-4.43043e-07
0.000270071
-3.76305e-07
-7.68567e-07
-0.00119066
1.08403e-06
2.71294e-07
0.00119045
-0.00114604
-1.3115e-06
2.34675e-07
9.97093e-08
0.00114575
-3.01458e-07
1.19544e-06
2.17715e-07
9.3469e-07
-1.98637e-07
-8.23326e-07
2.44694e-07
-0.00113916
-1.13502e-06
5.30126e-07
-5.14137e-07
0.00113928
-1.10185e-07
1.36426e-06
4.07042e-07
7.03631e-07
-3.88982e-07
-1.03977e-06
5.71379e-08
-0.000271088
1.38051e-06
1.33202e-06
-3.07758e-07
-3.01603e-07
0.000268984
-6.20353e-07
1.15299e-07
-0.00118974
-1.72856e-07
8.53153e-07
-0.0011425
-1.20741e-06
2.98469e-07
6.81425e-07
-1.94647e-07
1.23106e-06
2.23581e-07
9.57453e-07
-1.23714e-07
-8.18532e-07
3.39645e-07
-0.00114151
-1.14722e-06
-4.83111e-07
-6.05304e-07
-1.83593e-07
1.29591e-06
2.71107e-07
9.16785e-07
-1.75136e-07
-8.63497e-07
2.87496e-07
-0.000270974
1.0525e-06
1.23304e-06
-2.67998e-07
-1.24213e-07
0.000269081
-1.16491e-06
-1.12135e-06
0.000276445
-0.000274341
8.67913e-08
9.47886e-08
0.00113638
8.51121e-07
4.19511e-07
-1.55217e-06
1.31289e-07
-5.03939e-07
-1.25017e-06
5.32878e-08
-5.43409e-07
7.26258e-07
1.16026e-06
0.0011365
8.49776e-07
4.18002e-07
-1.54661e-06
1.32858e-07
-5.03428e-07
-1.2487e-06
5.3776e-08
-5.42749e-07
7.27376e-07
-1.12475e-06
0.000276435
-0.000274342
9.32461e-08
9.83571e-08
0.00113738
8.51227e-07
4.18965e-07
-1.50928e-06
1.22623e-07
-4.95697e-07
-1.24384e-06
5.09335e-08
-5.40404e-07
7.21714e-07
1.15992e-06
0.0011364
8.50881e-07
4.1961e-07
-1.54648e-06
1.29166e-07
-5.00808e-07
-1.2466e-06
5.33778e-08
-5.43093e-07
7.24147e-07
8.49955e-07
4.17427e-07
-1.51178e-06
1.24176e-07
-4.95309e-07
-1.2459e-06
5.33415e-08
7.24226e-07
-5.42798e-07
1.15537e-06
0.00113607
8.49256e-07
4.16092e-07
-1.53975e-06
1.31184e-07
-4.98755e-07
-1.24357e-06
5.27835e-08
-5.43144e-07
7.20571e-07
-1.12138e-06
0.000276421
-0.000274325
9.0006e-08
9.5449e-08
8.49823e-07
4.20922e-07
-1.50899e-06
1.26131e-07
-4.98007e-07
-1.24024e-06
5.15721e-08
7.20018e-07
-5.39668e-07
1.11183e-06
0.00113706
8.48493e-07
4.17018e-07
-1.49665e-06
1.22636e-07
-4.90172e-07
-1.24281e-06
5.39172e-08
-5.42508e-07
7.22056e-07
-0.000274316
8.85456e-08
9.93109e-08
1.55093e-06
1.50834e-06
-4.87248e-07
-4.95216e-07
0.000274369
-1.17124e-06
-1.12799e-06
0.000276529
-0.00027443
9.58046e-08
1.03678e-07
4.16579e-07
0.00113687
-5.03008e-07
1.16613e-06
1.30835e-07
7.29117e-07
-5.38567e-07
-1.24564e-06
5.60115e-08
-1.5451e-06
8.46005e-07
4.17349e-07
0.00113699
-5.02149e-07
1.16042e-06
1.30236e-07
7.28957e-07
-5.38501e-07
-1.24498e-06
5.58847e-08
0.00113827
8.27788e-07
-0.00113782
4.09511e-07
-1.54451e-06
1.35134e-07
-4.92436e-07
-1.23192e-06
6.06478e-08
-5.26001e-07
7.34287e-07
1.16645e-06
0.00113839
8.27909e-07
-0.00113794
4.09039e-07
-1.53848e-06
1.37292e-07
-4.90248e-07
-1.23261e-06
6.02345e-08
-5.2653e-07
7.33322e-07
-4.91332e-07
-4.96351e-07
0.000274368
-1.13135e-06
0.000276517
-0.000274429
1.0246e-07
1.07299e-07
4.16124e-07
0.00113788
-4.95067e-07
1.12246e-06
1.22053e-07
7.24391e-07
-5.35392e-07
-1.23888e-06
5.36313e-08
-1.54549e-06
8.45146e-07
4.17873e-07
0.00113689
-5.00033e-07
1.16003e-06
1.27316e-07
7.26411e-07
-5.38544e-07
-1.24223e-06
5.58243e-08
0.00113928
8.30641e-07
-0.00113882
4.08311e-07
-1.50137e-06
1.26861e-07
-4.83889e-07
-1.22668e-06
5.77414e-08
-5.23363e-07
7.28177e-07
1.16652e-06
0.00113829
8.28766e-07
-0.00113784
4.09255e-07
-1.53804e-06
1.33722e-07
-4.87399e-07
-1.22933e-06
6.01378e-08
-5.26214e-07
7.30707e-07
8.44834e-07
4.15063e-07
0.00113656
-4.98551e-07
1.15541e-06
1.27847e-07
7.22628e-07
-5.39088e-07
5.5597e-08
-1.24076e-06
8.28799e-07
-0.00113841
4.06168e-07
-1.50359e-06
1.29183e-07
-4.81951e-07
-1.22973e-06
5.9673e-08
7.30403e-07
-5.26695e-07
1.16003e-06
0.00113796
8.29072e-07
-0.00113751
4.10203e-07
-1.53325e-06
1.33131e-07
-4.88225e-07
-1.22671e-06
5.96525e-08
-5.26519e-07
7.2755e-07
-4.8981e-07
-4.94244e-07
0.000274352
-1.1283e-06
0.000276504
-0.000274413
9.95547e-08
1.04853e-07
8.44469e-07
4.15801e-07
0.00113756
-4.91053e-07
1.11098e-06
1.18275e-07
7.2377e-07
-5.38389e-07
5.60509e-08
-1.23867e-06
8.28386e-07
-0.00113832
4.08721e-07
-1.5001e-06
1.31013e-07
-4.84241e-07
-1.22368e-06
5.82279e-08
7.26141e-07
-5.231e-07
1.11645e-06
0.00113896
8.31026e-07
-0.00113851
4.10802e-07
-1.49014e-06
1.24401e-07
-4.79737e-07
-1.22643e-06
5.99646e-08
-5.26251e-07
7.27361e-07
-0.000274405
9.62083e-08
1.06808e-07
1.54352e-06
1.50018e-06
-4.74057e-07
-4.82452e-07
0.000274442
-1.17775e-06
-1.1337e-06
0.000276546
-0.000274452
1.04551e-07
1.13294e-07
4.10883e-07
0.00113871
-4.91186e-07
1.17196e-06
1.35834e-07
7.36546e-07
-5.21283e-07
-1.22703e-06
6.27582e-08
-1.53753e-06
8.22503e-07
4.07965e-07
0.00113884
-4.90391e-07
1.1665e-06
1.3487e-07
7.36434e-07
-5.21187e-07
-1.22729e-06
6.3053e-08
0.00113997
8.08253e-07
-0.00113957
4.00038e-07
-1.53654e-06
1.42916e-07
-4.80167e-07
-1.21481e-06
6.59339e-08
-5.10145e-07
7.39822e-07
1.17076e-06
0.00114009
8.08695e-07
-0.00113969
4.03934e-07
-1.53108e-06
1.40939e-07
-4.7859e-07
-1.21466e-06
6.62876e-08
-5.10427e-07
7.39853e-07
-4.7866e-07
-4.84062e-07
0.00027444
-1.13624e-06
0.000276533
-0.000274452
1.10644e-07
1.14825e-07
4.07001e-07
0.00113972
-4.82578e-07
1.12911e-06
1.2787e-07
7.29933e-07
-5.18985e-07
-1.22223e-06
5.9318e-08
-1.5381e-06
8.26097e-07
4.11073e-07
0.00113874
-4.8886e-07
1.16575e-06
1.31097e-07
7.32355e-07
-5.22008e-07
-1.22524e-06
6.18121e-08
0.00114098
8.0763e-07
-0.00114057
4.00129e-07
-1.49385e-06
1.33892e-07
-4.72196e-07
-1.20806e-06
6.40099e-08
-5.06673e-07
7.35192e-07
1.17261e-06
0.00113999
8.07229e-07
-0.00113959
3.99633e-07
-1.53029e-06
1.40579e-07
-4.75846e-07
-1.21055e-06
6.65293e-08
-5.09344e-07
7.38095e-07
8.24304e-07
4.12862e-07
0.00113841
-4.89192e-07
1.15968e-06
1.30559e-07
7.31033e-07
-5.21649e-07
6.29044e-08
-1.22206e-06
8.10528e-07
-0.00114016
4.00874e-07
-1.49558e-06
1.33354e-07
-4.69813e-07
-1.21336e-06
6.53417e-08
7.35961e-07
-5.11277e-07
1.16664e-06
0.00113966
8.09018e-07
-0.00113925
3.98524e-07
-1.52415e-06
1.39358e-07
-4.75078e-07
-1.2112e-06
6.47683e-08
-5.11712e-07
7.32388e-07
-4.773e-07
-4.81654e-07
0.000274424
-1.13389e-06
0.00027652
-0.000274436
1.08158e-07
1.14084e-07
8.28984e-07
4.09219e-07
0.00113941
-4.81114e-07
1.11641e-06
1.22148e-07
7.29075e-07
-5.22221e-07
6.17257e-08
-1.22269e-06
8.04463e-07
-0.00114007
4.00939e-07
-1.49272e-06
1.37493e-07
-4.73102e-07
-1.20455e-06
6.52556e-08
7.34049e-07
-5.0591e-07
1.12151e-06
0.00114066
8.06152e-07
-0.00114026
4.01977e-07
-1.48236e-06
1.29232e-07
-4.67823e-07
-1.2072e-06
6.67423e-08
-5.094e-07
7.35275e-07
-0.000274427
1.04045e-07
1.16105e-07
1.53231e-06
1.48976e-06
-4.59112e-07
-4.66492e-07
0.00027445
-1.18138e-06
-1.13715e-06
0.000276506
-0.000274418
1.11448e-07
1.19966e-07
3.9784e-07
0.00114036
-4.73148e-07
1.18023e-06
1.46155e-07
7.41284e-07
-5.06471e-07
-1.21055e-06
6.75745e-08
-1.52987e-06
8.03666e-07
4.03102e-07
0.00114049
-4.78671e-07
1.1709e-06
1.38661e-07
7.42433e-07
-5.05491e-07
-1.20966e-06
6.87011e-08
0.00114148
7.86607e-07
-0.00114112
3.94015e-07
-1.52799e-06
1.45023e-07
-4.69435e-07
-1.1956e-06
7.30367e-08
-4.93285e-07
7.47322e-07
1.17793e-06
0.0011416
7.84927e-07
-0.00114124
3.92294e-07
-1.5196e-06
1.48313e-07
-4.63297e-07
-1.19805e-06
7.20268e-08
-4.94951e-07
7.4463e-07
-4.66121e-07
-4.71749e-07
0.000274447
-1.1431e-06
0.000276494
-0.000274417
1.20032e-07
1.2429e-07
3.95011e-07
0.00114137
-4.65202e-07
1.13664e-06
1.37691e-07
7.35422e-07
-5.0343e-07
-1.20466e-06
6.47349e-08
-1.52732e-06
8.0354e-07
3.98844e-07
0.00114038
-4.71381e-07
1.17386e-06
1.41427e-07
7.37868e-07
-5.06522e-07
-1.20743e-06
6.70746e-08
0.00114249
7.8455e-07
-0.00114213
3.96605e-07
-1.48546e-06
1.35682e-07
-4.61753e-07
-1.18881e-06
7.11902e-08
-4.89824e-07
7.4299e-07
1.17647e-06
0.0011415
7.83678e-07
-0.00114114
3.93771e-07
-1.52209e-06
1.43069e-07
-4.66123e-07
-1.19261e-06
7.34748e-08
-4.929e-07
7.45129e-07
7.98493e-07
3.98256e-07
0.00114006
-4.73445e-07
1.16771e-06
1.39638e-07
7.37823e-07
-5.05775e-07
6.91789e-08
-1.20459e-06
7.89804e-07
-0.00114171
3.89426e-07
-1.48451e-06
1.40279e-07
-4.55045e-07
-1.19712e-06
7.01475e-08
7.39632e-07
-4.96207e-07
1.17116e-06
0.00114117
7.89451e-07
-0.0011408
3.90037e-07
-1.51482e-06
1.427e-07
-4.63561e-07
-1.19336e-06
7.11174e-08
-4.95195e-07
7.37829e-07
-4.62443e-07
-4.66084e-07
0.000274431
-1.13839e-06
0.000276481
-0.000274401
1.15045e-07
1.20394e-07
8.03516e-07
3.96316e-07
0.00114106
-4.66252e-07
1.12388e-06
1.30784e-07
7.35222e-07
-5.0598e-07
6.75665e-08
-1.20413e-06
7.82627e-07
-0.00114163
3.92924e-07
-1.48413e-06
1.40732e-07
-4.62777e-07
-1.18647e-06
7.19021e-08
7.40778e-07
-4.8964e-07
1.12636e-06
0.00114217
7.81978e-07
-0.00114181
3.94559e-07
-1.47246e-06
1.33036e-07
-4.5571e-07
-1.18908e-06
7.40673e-08
-4.92765e-07
7.42522e-07
-0.000274396
1.11767e-07
1.23427e-07
1.5245e-06
1.48226e-06
-4.47388e-07
-4.54815e-07
0.000274401
-1.1863e-06
-1.1455e-06
0.000276413
-0.000274334
1.22295e-07
1.30645e-07
3.9448e-07
0.00114182
-4.63892e-07
1.1829e-06
1.46854e-07
7.47505e-07
-4.90439e-07
-1.192e-06
7.36112e-08
-1.51911e-06
7.84218e-07
3.96306e-07
0.00114195
-4.64933e-07
1.17599e-06
1.4301e-07
7.47261e-07
-4.90569e-07
-1.19349e-06
7.43349e-08
0.00114279
7.62977e-07
-0.00114248
3.8178e-07
-1.51208e-06
1.54679e-07
-4.51949e-07
-1.18058e-06
7.6816e-08
-4.80238e-07
7.50456e-07
1.18468e-06
0.00114292
7.60888e-07
-0.00114261
3.79496e-07
-1.50836e-06
1.56742e-07
-4.49774e-07
-1.17968e-06
7.65391e-08
-4.80455e-07
7.5035e-07
-4.51684e-07
-4.57566e-07
0.0002744
-1.14838e-06
0.000276402
-0.000274332
1.28626e-07
1.34516e-07
3.95475e-07
0.00114283
-4.5643e-07
1.1387e-06
1.3772e-07
7.42256e-07
-4.8711e-07
-1.18553e-06
7.10925e-08
-1.51879e-06
7.79703e-07
3.94685e-07
0.00114184
-4.60324e-07
1.17786e-06
1.45126e-07
7.45882e-07
-4.9002e-07
-1.18814e-06
7.3999e-08
0.0011438
7.62348e-07
-0.00114349
3.81218e-07
-1.47188e-06
1.46172e-07
-4.43428e-07
-1.17318e-06
7.54535e-08
-4.76229e-07
7.46529e-07
1.18319e-06
0.00114282
7.61379e-07
-0.0011425
3.7896e-07
-1.5107e-06
1.51121e-07
-4.51516e-07
-1.17662e-06
7.74067e-08
-4.79351e-07
7.48614e-07
7.82378e-07
3.9298e-07
0.00114152
-4.62365e-07
1.17112e-06
1.42086e-07
7.41392e-07
-4.9089e-07
7.40233e-08
-1.1887e-06
7.61718e-07
-0.00114308
3.80322e-07
-1.47475e-06
1.47732e-07
-4.42453e-07
-1.17526e-06
7.67538e-08
7.47562e-07
-4.79152e-07
1.17516e-06
0.00114247
7.6236e-07
-0.00114217
3.88593e-07
-1.50568e-06
1.48686e-07
-4.50973e-07
-1.17096e-06
7.91249e-08
-4.77512e-07
7.47517e-07
-4.49433e-07
-4.54027e-07
0.000274384
-1.14529e-06
0.00027639
-0.000274315
1.24145e-07
1.29598e-07
7.82136e-07
3.9406e-07
0.00114252
-4.5539e-07
1.12653e-06
1.32551e-07
7.4224e-07
-4.89492e-07
7.45078e-08
-1.18534e-06
7.56761e-07
-0.00114299
3.76811e-07
-1.47226e-06
1.48921e-07
-4.47899e-07
-1.17038e-06
7.70464e-08
7.45949e-07
-4.75835e-07
1.13308e-06
0.00114348
7.63636e-07
-0.00114318
3.86621e-07
-1.46098e-06
1.41133e-07
-4.41282e-07
-1.17239e-06
7.94163e-08
-4.78118e-07
7.478e-07
-0.000274307
1.223e-07
1.31189e-07
1.50752e-06
1.46739e-06
-4.30225e-07
-4.38024e-07
0.000274306
-1.19025e-06
-1.14861e-06
0.000276276
-0.000274205
1.29393e-07
1.3877e-07
3.79552e-07
0.00114309
-4.46579e-07
1.18768e-06
1.54863e-07
7.53937e-07
-4.75778e-07
-1.17529e-06
8.017e-08
-1.50392e-06
7.49729e-07
3.76344e-07
0.00114321
-4.44928e-07
1.18581e-06
1.56368e-07
7.53539e-07
-4.75668e-07
-1.1754e-06
8.0622e-08
0.0011439
7.38109e-07
-0.00114365
3.73103e-07
-1.50065e-06
1.57163e-07
-4.40586e-07
-1.15754e-06
8.68285e-08
-4.60772e-07
7.59966e-07
1.18531e-06
0.00114402
7.38074e-07
-0.00114377
3.80977e-07
-1.49877e-06
1.53374e-07
-4.42327e-07
-1.15924e-06
8.69031e-08
-4.61371e-07
7.58986e-07
-4.34327e-07
-4.39607e-07
0.000274304
-1.14936e-06
0.000276268
-0.000274205
1.33366e-07
1.391e-07
3.78526e-07
0.0011441
-4.38524e-07
1.14712e-06
1.46282e-07
7.46091e-07
-4.73338e-07
-1.17012e-06
7.59804e-08
-1.50328e-06
7.50412e-07
3.70149e-07
0.00114312
-4.41185e-07
1.18866e-06
1.5795e-07
7.4985e-07
-4.76013e-07
-1.1725e-06
7.90777e-08
0.00114491
7.28425e-07
-0.00114466
3.77501e-07
-1.46034e-06
1.47891e-07
-4.32268e-07
-1.14967e-06
8.7605e-08
-4.56093e-07
7.59388e-07
1.1826e-06
0.00114393
7.35086e-07
-0.00114367
3.85183e-07
-1.50197e-06
1.47435e-07
-4.44423e-07
-1.15184e-06
8.9799e-08
-4.58561e-07
7.61578e-07
7.61953e-07
3.88177e-07
0.00114277
-4.4739e-07
1.17648e-06
1.48656e-07
7.46588e-07
-4.75253e-07
7.94389e-08
-1.16967e-06
7.38618e-07
-0.00114425
3.78967e-07
-1.46349e-06
1.44122e-07
-4.33978e-07
-1.15425e-06
8.81542e-08
7.59216e-07
-4.60118e-07
1.18336e-06
0.00114358
7.38091e-07
-0.00114332
3.70841e-07
-1.49133e-06
1.56918e-07
-4.36888e-07
-1.1532e-06
8.63063e-08
-4.61848e-07
7.54649e-07
-4.33073e-07
-4.36622e-07
0.00027429
-1.14683e-06
0.000276254
-0.000274189
1.30461e-07
1.33493e-07
7.58951e-07
3.93884e-07
0.00114377
-4.39977e-07
1.13182e-06
1.38461e-07
7.4935e-07
-4.74331e-07
8.08455e-08
-1.16722e-06
7.38949e-07
-0.00114416
3.80408e-07
-1.46205e-06
1.47145e-07
-4.39449e-07
-1.15075e-06
8.58666e-08
7.53423e-07
-4.57984e-07
1.13862e-06
0.00114459
7.2647e-07
-0.00114433
3.70109e-07
-1.45006e-06
1.48195e-07
-4.29389e-07
-1.1494e-06
8.94501e-08
-4.59143e-07
7.58778e-07
-0.000274164
1.30124e-07
1.42247e-07
1.49738e-06
1.45934e-06
-4.18417e-07
-4.23932e-07
0.000274162
-1.19293e-06
-1.15485e-06
0.000276078
-0.000274015
1.39411e-07
1.44587e-07
3.77811e-07
0.00114414
-4.37174e-07
1.1899e-06
1.55728e-07
7.57546e-07
-4.59917e-07
-1.15774e-06
8.5765e-08
-1.49709e-06
7.37842e-07
3.78541e-07
0.00114427
-4.40576e-07
1.1852e-06
1.53673e-07
7.60473e-07
-4.58018e-07
-1.15602e-06
8.84522e-08
0.00114481
7.06896e-07
-0.00114461
3.67002e-07
-1.49092e-06
1.60631e-07
-4.30449e-07
-1.1355e-06
9.79644e-08
-4.42628e-07
7.73294e-07
1.18659e-06
0.00114491
7.21451e-07
-0.00114471
3.8679e-07
-1.48941e-06
1.54497e-07
-4.32879e-07
-1.13993e-06
9.3744e-08
-4.46245e-07
7.67599e-07
-4.25576e-07
-4.29324e-07
0.000274162
-1.15129e-06
0.000276059
-0.000274006
1.40181e-07
1.45299e-07
3.82346e-07
0.00114515
-4.30776e-07
1.14668e-06
1.45124e-07
7.57621e-07
-4.53406e-07
-1.14607e-06
8.67825e-08
-1.4982e-06
7.34962e-07
3.81996e-07
0.00114417
-4.3804e-07
1.18552e-06
1.5254e-07
7.58718e-07
-4.56583e-07
-1.14979e-06
8.84124e-08
0.00114583
7.13436e-07
-0.00114562
3.62509e-07
-1.44825e-06
1.54481e-07
-4.20053e-07
-1.13521e-06
9.24297e-08
-4.43442e-07
7.63775e-07
1.18919e-06
0.00114482
7.14827e-07
-0.00114462
3.7495e-07
-1.48774e-06
1.56238e-07
-4.2747e-07
-1.13663e-06
9.63041e-08
-4.44346e-07
7.67003e-07
7.31823e-07
3.65547e-07
0.00114381
-4.28945e-07
1.18614e-06
1.60001e-07
7.54622e-07
-4.58782e-07
8.72977e-08
-1.14985e-06
7.20685e-07
-0.00114519
3.8305e-07
-1.45435e-06
1.46338e-07
-4.24224e-07
-1.13621e-06
9.44139e-08
7.65777e-07
-4.45283e-07
1.17801e-06
0.00114449
7.11055e-07
-0.00114428
3.81632e-07
-1.48717e-06
1.48722e-07
-4.35527e-07
-1.13143e-06
9.66379e-08
-4.43358e-07
7.66163e-07
-4.21318e-07
-4.27404e-07
0.000274145
-1.15337e-06
0.000276051
-0.000273993
1.40864e-07
1.43646e-07
7.22385e-07
3.66765e-07
0.00114483
-4.20912e-07
1.14197e-06
1.51588e-07
7.57572e-07
-4.56327e-07
8.96431e-08
-1.14573e-06
7.23907e-07
-0.0011451
3.65016e-07
-1.44848e-06
1.55625e-07
-4.23333e-07
-1.13448e-06
9.08667e-08
7.57312e-07
-4.44053e-07
1.13973e-06
0.0011455
7.31644e-07
-0.00114529
3.69385e-07
-1.43978e-06
1.44906e-07
-4.23247e-07
-1.13908e-06
9.21559e-08
-4.47991e-07
7.58522e-07
-0.000273985
1.34922e-07
1.40713e-07
1.48385e-06
1.44248e-06
-3.99441e-07
-4.09116e-07
0.000273961
-1.19264e-06
-1.15239e-06
0.000275844
-0.000273785
1.39052e-07
1.46789e-07
3.62894e-07
0.00114499
-4.22427e-07
1.19728e-06
1.65036e-07
7.71272e-07
-4.39609e-07
-1.13147e-06
9.7488e-08
-1.4866e-06
7.13275e-07
3.81135e-07
0.0011451
-4.30544e-07
1.18778e-06
1.56156e-07
7.69478e-07
-4.42313e-07
-1.13515e-06
9.55624e-08
0.0011455
7.0633e-07
-0.00114533
3.74386e-07
-1.48035e-06
1.57159e-07
-4.23723e-07
-1.12879e-06
9.7858e-08
-4.35054e-07
7.69197e-07
1.19443e-06
0.00114562
6.96924e-07
-0.00114546
3.56348e-07
-1.47315e-06
1.62876e-07
-4.16181e-07
-1.12449e-06
9.8828e-08
-4.33416e-07
7.72194e-07
-4.11171e-07
-4.16231e-07
0.000273948
-1.15955e-06
0.000275833
-0.000273781
1.48902e-07
1.5288e-07
3.62463e-07
0.001146
-4.13255e-07
1.15677e-06
1.56676e-07
7.69098e-07
-4.3698e-07
-1.12587e-06
9.65001e-08
-1.48452e-06
7.09944e-07
3.79543e-07
0.001145
-4.23649e-07
1.18998e-06
1.56846e-07
7.68144e-07
-4.40419e-07
-1.13028e-06
9.7104e-08
0.00114653
7.11837e-07
-0.00114635
3.6377e-07
-1.44075e-06
1.49472e-07
-4.15744e-07
-1.1229e-06
9.36967e-08
-4.32272e-07
7.61991e-07
1.19355e-06
0.00114551
7.11625e-07
-0.00114535
3.60879e-07
-1.47557e-06
1.59327e-07
-4.17578e-07
-1.12541e-06
9.64827e-08
-4.34985e-07
7.65501e-07
7.05636e-07
3.72304e-07
0.00114469
-4.26754e-07
1.18352e-06
1.58285e-07
7.66292e-07
-4.40498e-07
9.61661e-08
-1.12611e-06
7.04261e-07
-0.00114593
3.62755e-07
-1.43712e-06
1.54027e-07
-4.07618e-07
-1.1241e-06
9.71586e-08
7.67882e-07
-4.34981e-07
1.19133e-06
0.00114521
7.00255e-07
-0.00114504
3.50305e-07
-1.4649e-06
1.61762e-07
-4.12634e-07
-1.1241e-06
9.74607e-08
-4.35154e-07
7.61874e-07
-4.04158e-07
-4.11605e-07
0.000273938
-1.15138e-06
0.000275816
-0.000273762
1.41319e-07
1.49809e-07
7.18419e-07
3.66603e-07
0.00114569
-4.15144e-07
1.14385e-06
1.52551e-07
7.63475e-07
-4.43527e-07
9.42696e-08
-1.13091e-06
6.99526e-07
-0.00114584
3.73819e-07
-1.44148e-06
1.52659e-07
-4.18567e-07
-1.11641e-06
9.60179e-08
7.63572e-07
-4.30417e-07
1.14596e-06
0.00114621
6.92926e-07
-0.00114603
3.49031e-07
-1.42434e-06
1.51827e-07
-4.06628e-07
-1.12068e-06
9.9445e-08
-4.33108e-07
7.64338e-07
-0.000273767
1.42388e-07
1.55157e-07
1.4762e-06
1.43413e-06
-3.92612e-07
-4.02314e-07
0.000273729
-1.19925e-06
-1.15712e-06
0.000275608
-0.000273553
1.45931e-07
1.55067e-07
3.62701e-07
0.00114566
-4.17769e-07
1.19681e-06
1.63913e-07
7.74332e-07
-4.28896e-07
-1.12056e-06
1.0177e-07
-1.47205e-06
6.90822e-07
3.60073e-07
0.00114578
-4.17678e-07
1.19332e-06
1.59818e-07
7.74599e-07
-4.29655e-07
-1.11938e-06
1.00619e-07
0.00114603
6.83131e-07
-0.00114591
3.61566e-07
-1.46382e-06
1.6244e-07
-4.08053e-07
-1.10966e-06
1.03978e-07
-4.21408e-07
7.77346e-07
1.20818e-06
0.00114619
6.72605e-07
-0.00114607
3.26609e-07
-1.45327e-06
1.79599e-07
-3.95769e-07
-1.11134e-06
1.0317e-07
-4.20979e-07
7.7338e-07
-3.97841e-07
-4.028e-07
0.000273724
-1.17024e-06
0.000275604