/*--------------------------------*- C++ -*----------------------------------*\
| =========                 |                                                 |
| \\      /  F ield         | OpenFOAM: The Open Source CFD Toolbox           |
|  \\    /   O peration     | Version:  v2006                                 |
|   \\  /    A nd           | Website:  www.openfoam.com                      |
|    \\/     M anipulation  |                                                 |
\*---------------------------------------------------------------------------*/
FoamFile
{
    version     2.0;
    format      ascii;
    class       volScalarField;
    location    "750";
    object      p;
}
// * * * * * * * * * * * * * * * * * * * * * * * * * * * * * * * * * * * * * //

dimensions      [0 2 -2 0 0 0 0];


internalField   nonuniform List<scalar> 
14258
(
0.00232752
0.00232746
0.00232752
0.00232746
0.00232746
0.00232746
0.00232783
0.00232749
0.00232749
0.00232769
0.00233005
0.00232757
0.00233006
0.00232769
0.00233005
0.00232757
0.00233006
0.00232752
0.00232769
0.00233006
0.00233223
0.00233227
0.00232747
0.00232751
0.00233223
0.00233225
0.00232747
0.00233222
0.00232749
0.00233222
0.00233225
0.00232747
0.00233223
0.00233227
0.00232751
0.00232747
0.00233225
0.00233223
0.00232747
0.00233222
0.00232749
0.00233222
0.00233225
0.00232747
0.00233221
0.00233221
0.00233224
0.00232745
0.00232745
0.0023322
0.0023322
0.00232748
0.00233226
0.00232746
0.00233225
0.00232759
0.00233222
0.00232752
0.00233234
0.00233226
0.00232746
0.00233225
0.00232759
0.00233222
0.00232752
0.00233234
0.00233223
0.00233227
0.00232747
0.00232751
0.00233223
0.00233225
0.00232747
0.00233222
0.00232749
0.00233225
0.00232747
0.00233221
0.00233237
0.0023277
0.0023277
0.00232771
0.00233228
0.00233228
0.00233236
0.00233229
0.00232767
0.00232774
0.00233227
0.0023324
0.00232771
0.00233238
0.00232763
0.00233223
0.00232758
0.00233226
0.00233231
0.00232772
0.00233236
0.00233229
0.00232766
0.00232774
0.00233227
0.00233239
0.00232771
0.00233238
0.00232764
0.00233223
0.00232758
0.00233226
0.00233231
0.00232772
0.00233236
0.00233229
0.00232774
0.00232766
0.00233239
0.00233227
0.00232771
0.00233238
0.00232763
0.00233226
0.00232772
0.0020013
0.00200134
0.00200347
0.00201058
0.00200805
0.00201054
0.00200838
0.00200802
0.00200131
0.00200134
0.00200338
0.00200347
0.0020034
0.00200337
0.00200337
0.0020013
0.00200134
0.00200341
0.0020034
0.00200804
0.00200802
0.0020082
0.0020081
0.00200805
0.00200802
0.0020082
0.00201054
0.0020081
0.00200802
0.0020081
0.00200802
0.00200804
0.00200804
0.00200802
0.00200135
0.00200338
0.00200341
0.0020034
0.00200337
0.0020034
0.00200337
0.00199882
0.0019988
0.00199879
0.00199887
0.00201262
0.00200803
0.00200804
0.00201264
0.00200802
0.00201263
0.00201263
0.00201261
0.00199878
0.00199879
0.00199878
0.00199878
0.00199883
0.00200338
0.00200345
0.0019988
0.00199887
0.00199879
0.0020034
0.00199879
0.0019988
0.00200339
0.00199879
0.0019988
0.00200338
0.00199882
0.00200343
0.00200338
0.0019988
0.00200339
0.00199885
0.0019988
0.00200804
0.00200803
0.00200802
0.00200803
0.00200803
0.00201262
0.00200803
0.00201261
0.00200803
0.00201263
0.00201262
0.00201261
0.00200803
0.00201263
0.00200803
0.00201264
0.00200812
0.00201264
0.00200803
0.00200807
0.00201269
0.00201263
0.00201263
0.00200809
0.00201264
0.00200803
0.00200805
0.00201268
0.00201262
0.00201263
0.00200802
0.00200802
0.00200803
0.00201261
0.00201261
0.00201261
0.00199879
0.00199882
0.00200339
0.00200339
0.00199881
0.00200338
0.00199879
0.00199879
0.00200339
0.00199878
0.00200337
0.00199879
0.00199879
0.00199881
0.00200339
0.00200339
0.00200338
0.0019988
0.00199879
0.00199878
0.00199899
0.00199913
0.00200343
0.00200337
0.00199902
0.00200335
0.00199895
0.00201259
0.00200825
0.00201271
0.00200821
0.00200823
0.00201265
0.00201265
0.00199898
0.00200341
0.00200339
0.00199886
0.00199885
0.00199892
0.00200346
0.00199899
0.0020034
0.00200341
0.00199914
0.001999
0.00200335
0.00199899
0.00199896
0.00199896
0.00200345
0.00200339
0.00200341
0.00199898
0.00199894
0.00200823
0.00200818
0.0020082
0.0020081
0.00200815
0.00200822
0.00201265
0.00200823
0.00200818
0.00201265
0.0020082
0.00201269
0.00201264
0.0020127
0.00200816
0.0020081
0.00201262
0.00200822
0.00201264
0.00201265
0.00201269
0.00200806
0.00201262
0.00200815
0.00201263
0.00201264
0.0020082
0.00199896
0.00200338
0.00200339
0.00199887
0.00199882
0.00200343
0.00199892
0.00199895
0.00199896
0.00200344
0.00200339
0.00199898
0.00200341
0.00199894
0.0020034
0.00200341
0.0020034
0.00200341
0.00200338
0.00200337
0.0020034
0.00200337
0.00199879
0.00200339
0.00200339
0.00199882
0.00199879
0.00199881
0.00200338
0.00199879
0.00200339
0.00200339
0.00199882
0.00199881
0.00199879
0.00200338
0.0019988
0.00200339
0.00199879
0.0019988
0.00200338
0.00199883
0.00200347
0.00199881
0.00200338
0.00199888
0.0020034
0.00199879
0.00199879
0.00200337
0.00200337
0.00200339
0.00199878
0.00199879
0.00199879
0.00199896
0.00200345
0.00200339
0.00199896
0.00199894
0.00199899
0.00200341
0.00199897
0.00200345
0.00200339
0.00199896
0.00199899
0.00199894
0.00200342
0.00199899
0.00200339
0.00200343
0.00199886
0.00199892
0.00199886
0.00200346
0.00232264
0.00232264
0.0023228
0.00232268
0.00232268
0.0023227
0.00232265
0.0023227
0.00232265
0.00232272
0.00232049
0.00232267
0.00232049
0.00232272
0.00232048
0.00232266
0.00232049
0.00232264
0.0023228
0.00232268
0.00232268
0.00232264
0.0023227
0.00232265
0.00232272
0.00232049
0.00232267
0.00232049
0.0023227
0.00232265
0.00232272
0.00232049
0.00232049
0.00232267
0.00232049
0.00232267
0.00232265
0.00232264
0.0023228
0.00232268
0.00232268
0.00232264
0.00232272
0.00232049
0.00232049
0.00232267
0.0023227
0.00232265
0.00231789
0.00231789
0.00231792
0.00232263
0.00232263
0.00232268
0.00231788
0.00231788
0.00231796
0.00231793
0.00232265
0.00232277
0.00232269
0.0023179
0.00231803
0.00231796
0.00231793
0.00232265
0.00232277
0.00232269
0.0023179
0.00231803
0.0023179
0.00231796
0.00232267
0.00232269
0.00232266
0.00231791
0.00231794
0.00231791
0.0023179
0.00232268
0.00232265
0.00231792
0.0023179
0.00231796
0.00232267
0.00232269
0.00232266
0.00231791
0.00231794
0.00231791
0.0023179
0.00232268
0.00232265
0.00231792
0.00231789
0.00231792
0.00232263
0.00232263
0.00232268
0.00231788
0.00231789
0.00231795
0.00231793
0.00232265
0.00232278
0.00231805
0.00232268
0.0023179
0.00231797
0.00231793
0.00232265
0.00232276
0.00232269
0.0023179
0.00231801
0.00231789
0.0023179
0.00231796
0.00232269
0.00232267
0.00232266
0.00231794
0.00231791
0.00231791
0.0023179
0.00232268
0.00232265
0.00231792
0.0023179
0.00231796
0.00232267
0.00232269
0.00232266
0.00231791
0.00231794
0.00231791
0.0023179
0.00232268
0.00232265
0.00231792
0.00231791
0.0023179
0.00232268
0.00232265
0.00231792
0.00231789
0.00231792
0.00232263
0.00232263
0.00232268
0.00231788
0.00231788
0.00231796
0.00231793
0.00232265
0.00232277
0.00231803
0.00232269
0.0023179
0.00231796
0.00232265
0.00232277
0.00231793
0.00232269
0.0023179
0.00231803
0.00231789
0.00232269
0.00232267
0.00232266
0.00232268
0.00232265
0.00232052
0.00232051
0.00232051
0.00232049
0.00232052
0.00232051
0.00232051
0.00232049
0.00232052
0.00232051
0.00232051
0.00232049
0.00232052
0.00232051
0.00232051
0.00232049
0.00231815
0.00231827
0.00232271
0.00232271
0.00232264
0.00231814
0.00231814
0.00231815
0.00231812
0.0023227
0.00232282
0.00232279
0.0023181
0.00231818
0.00231816
0.00231801
0.00232269
0.00232274
0.00231801
0.00232281
0.00231807
0.00231815
0.00231812
0.0023227
0.00232283
0.00232279
0.0023181
0.00231818
0.00231816
0.002318
0.00232269
0.00232275
0.00232282
0.00231807
0.00231802
0.00231815
0.00231827
0.00232273
0.0023227
0.00231816
0.00232264
0.00231812
0.00231815
0.00231812
0.0023227
0.00232282
0.00232279
0.0023181
0.00231818
0.00231816
0.00231801
0.00232269
0.00232274
0.00231801
0.00232281
0.00231807
0.00231815
0.00231812
0.00232282
0.0023227
0.00232279
0.00231818
0.0023181
0.00231816
0.00231801
0.00232269
0.00232274
0.00232281
0.00231807
0.00231801
0.00231815
0.00231801
0.00232269
0.00232273
0.00232281
0.002318
0.00231807
0.00231815
0.00231827
0.00232271
0.00232271
0.00231814
0.00232264
0.00231814
0.00232283
0.0023227
0.00232279
0.00232269
0.00232274
0.00232281
0.00228448
0.00228448
0.00228463
0.00228452
0.00228452
0.00228454
0.00228449
0.00228461
0.00228234
0.0022845
0.00228235
0.00228454
0.00228465
0.00228235
0.00227976
0.00227975
0.00227978
0.00228447
0.00228447
0.00227975
0.00227975
0.00228451
0.00227981
0.00228449
0.00228462
0.00227979
0.00227976
0.00228452
0.0022799
0.00227982
0.00228449
0.00228458
0.00227978
0.00227976
0.00227987
0.00228452
0.00227977
0.00228452
0.00228451
0.00227981
0.0022798
0.00227977
0.0022845
0.00227977
0.00228451
0.00227976
0.00227978
0.00228449
0.00227977
0.00228451
0.00227981
0.00228452
0.00227977
0.0022798
0.0022845
0.00231097
0.00230857
0.00230857
0.00230845
0.00230841
0.00230857
0.00231094
0.00231094
0.00230841
0.00230872
0.00231094
0.00231093
0.00230872
0.00230834
0.00230369
0.00229188
0.00230139
0.00230361
0.00230361
0.00230356
0.0023036
0.00230362
0.0023036
0.00231095
0.00231095
0.00231095
0.00230354
0.00230139
0.00230356
0.00230834
0.00230834
0.00230837
0.00230837
0.00230872
0.0023084
0.00230835
0.00230841
0.00230835
0.00230845
0.00231093
0.00231094
0.00230845
0.00231094
0.00231093
0.00230834
0.00230837
0.00230872
0.00230838
0.00230834
0.00230835
0.00230841
0.00230857
0.00231093
0.00231094
0.00230835
0.00231093
0.00231094
0.00230845
0.00231094
0.00230846
0.00230857
0.00230835
0.00230841
0.00231094
0.00230857
0.00230845
0.00230835
0.00230834
0.00230837
0.00230837
0.00230834
0.00231093
0.00230845
0.00231094
0.00230835
0.00230838
0.00230358
0.00230358
0.00230354
0.00230355
0.0023036
0.00230355
0.00228933
0.00228928
0.00230354
0.00228927
0.00230355
0.0023036
0.00228933
0.00228928
0.00230141
0.00229188
0.0023014
0.00230356
0.00230362
0.00229186
0.00228938
0.00230354
0.00228927
0.00230354
0.00228927
0.00230358
0.00230358
0.0023037
0.00228965
0.0022893
0.0022893
0.0023036
0.00230355
0.00228933
0.00228928
0.00230356
0.00230139
0.0023014
0.0022895
0.00229186
0.00228938
0.00229187
0.00230356
0.0023014
0.00230139
0.0022895
0.00229186
0.00228939
0.00229187
0.00228453
0.00228449
0.00228453
0.00228455
0.00228234
0.0022845
0.00228235
0.00228455
0.00228235
0.00230358
0.0023037
0.00230358
0.00228965
0.0022893
0.0022893
0.00230354
0.00228928
0.00230362
0.00230139
0.0023014
0.00228952
0.00229186
0.00228938
0.00229187
0.00230355
0.00228928
0.00228933
0.00230139
0.0023014
0.00230356
0.00228953
0.00229186
0.00228955
0.00229187
0.00230355
0.0023036
0.00228928
0.00230362
0.00231312
0.00230833
0.00230833
0.00231308
0.00231308
0.00230836
0.00231312
0.00230833
0.00230834
0.00231307
0.00231308
0.00230836
0.0023131
0.00230836
0.00230839
0.00231314
0.00231311
0.00231313
0.00230835
0.0023131
0.00230836
0.00230839
0.00231314
0.00231311
0.00231313
0.00230835
0.00231308
0.00229882
0.00230353
0.00230353
0.00230357
0.00229879
0.00229879
0.00229883
0.00230353
0.00230353
0.00230358
0.0022988
0.00229879
0.00229881
0.00230356
0.00230358
0.00229886
0.00230356
0.00229882
0.00229885
0.00229881
0.00230356
0.00230358
0.00229886
0.00230356
0.00229882
0.00229885
0.0022988
0.00231308
0.00231308
0.00231313
0.00230835
0.00230847
0.00231312
0.00231309
0.00231321
0.00230841
0.00231313
0.00230835
0.00230848
0.00231312
0.00231309
0.00231321
0.00230841
0.0023131
0.00230836
0.00230839
0.00231314
0.00231311
0.00231313
0.00230835
0.00231309
0.00230837
0.00231309
0.00231312
0.00230836
0.0023131
0.00230836
0.00230839
0.00231314
0.00231311
0.00231313
0.00230835
0.00231309
0.00230837
0.00231309
0.00231312
0.00230836
0.00231309
0.00231312
0.00230835
0.00230847
0.00231312
0.00231323
0.00231309
0.0023084
0.00231314
0.00230835
0.00230848
0.00231312
0.0023131
0.0023132
0.00230841
0.00231308
0.00231309
0.00230837
0.00231309
0.00231312
0.00230836
0.0023131
0.00230839
0.00230836
0.00231314
0.00231313
0.00231311
0.00230835
0.00231309
0.00230837
0.00231309
0.00231312
0.00230836
0.00231309
0.00230837
0.00231309
0.00231312
0.00230836
0.0023131
0.00230839
0.00230836
0.00231314
0.00231313
0.00231311
0.00230835
0.00231309
0.00230837
0.00231309
0.00231312
0.00230836
0.00231308
0.00231313
0.00230847
0.00231312
0.00230835
0.00231321
0.00231309
0.00230841
0.00231313
0.00230847
0.00231312
0.00230835
0.00231309
0.00231321
0.00230841
0.00231312
0.00230833
0.00230833
0.00231308
0.00231308
0.00230836
0.00231308
0.0023179
0.00231796
0.00231794
0.00231791
0.00231309
0.00231309
0.00230837
0.00231312
0.00230836
0.00231791
0.0023179
0.00231792
0.00231313
0.00230848
0.00231312
0.00230835
0.00230841
0.0023132
0.0023131
0.00229887
0.00230366
0.00229883
0.00230355
0.00229881
0.00230358
0.00229893
0.00229887
0.00230366
0.00230355
0.00229883
0.00229893
0.00230358
0.00229881
0.00229882
0.00230353
0.00230353
0.00229879
0.00230357
0.00229879
0.0022988
0.00229882
0.00230357
0.00229881
0.00229883
0.00230355
0.00229881
0.00230356
0.00230358
0.00229886
0.00230356
0.00229882
0.00229885
0.00229882
0.00230357
0.00229881
0.00230355
0.00229883
0.00229402
0.00229406
0.00228929
0.00228932
0.00229403
0.00229405
0.00228928
0.00229401
0.00229401
0.0022893
0.00229404
0.00228929
0.0022988
0.002294
0.00229882
0.00230357
0.00229881
0.00230355
0.00229883
0.00229881
0.00230358
0.00230356
0.00229886
0.00230356
0.00229885
0.00229882
0.00229402
0.00229406
0.00228932
0.00228929
0.00229405
0.00229403
0.00228928
0.00229401
0.00229401
0.0022893
0.00229404
0.00228929
0.0022988
0.002294
0.0022988
0.002294
0.00229887
0.00230355
0.00230366
0.00229883
0.00230358
0.00229881
0.00229893
0.00229887
0.00230355
0.00230366
0.00229883
0.00230358
0.00229881
0.00229894
0.00229404
0.00228927
0.00228926
0.002294
0.002294
0.00228929
0.00229405
0.00229404
0.00228928
0.0022894
0.00229401
0.00229412
0.00228934
0.00229405
0.00229404
0.00228928
0.0022894
0.00229401
0.00229413
0.00228934
0.00229881
0.00230356
0.00230358
0.00229886
0.00230356
0.00229882
0.00229885
0.00229882
0.00230357
0.00229881
0.00230355
0.00229883
0.00229402
0.00229406
0.00228929
0.00228932
0.00229403
0.00229404
0.00228928
0.00229401
0.00229401
0.0022893
0.00229404
0.00228929
0.00227977
0.0022845
0.00228452
0.00227981
0.0022845
0.00227977
0.0022798
0.00227977
0.00228451
0.00227976
0.00228449
0.00227978
0.00227977
0.0022845
0.00228452
0.00227981
0.0022845
0.00227977
0.0022798
0.00229887
0.00230355
0.00230364
0.00229883
0.00230358
0.00229881
0.00229891
0.00229886
0.00230355
0.00230369
0.00229884
0.00230358
0.00229897
0.00229881
0.00229404
0.00228927
0.00228926
0.002294
0.00229399
0.00228929
0.00229405
0.00229404
0.00228928
0.00228939
0.00229402
0.0022941
0.00228934
0.00229404
0.00229404
0.00228928
0.00228941
0.00229416
0.00229401
0.00228933
0.00229881
0.00229401
0.00229882
0.00230357
0.00229881
0.00230355
0.00229883
0.00229401
0.00229401
0.0022893
0.00229404
0.00228929
0.00229402
0.00229406
0.00228932
0.00228929
0.00229403
0.00229405
0.00228928
0.00229882
0.00230358
0.00229881
0.00230355
0.00229883
0.00229881
0.00230358
0.00230356
0.00229887
0.00230356
0.00229885
0.00229882
0.00229401
0.00229402
0.00228931
0.00229404
0.00228929
0.00228456
0.00228448
0.00228453
0.00228013
0.00228001
0.00228001
0.00227997
0.00228465
0.00228455
0.00228454
0.00228
0.00227998
0.00227995
0.00228003
0.00228464
0.00228456
0.00228453
0.00228
0.00227986
0.00227985
0.00227993
0.00228455
0.00228461
0.00228454
0.00228
0.00227998
0.00228003
0.00227995
0.00231095
0.00231095
0.00231093
0.00231323
0.00230855
0.00230862
0.00231316
0.00231314
0.00231326
0.00230859
0.00231323
0.00230855
0.00230862
0.00231316
0.00231314
0.00231327
0.00230859
0.00231325
0.00230852
0.00230846
0.00231311
0.00231318
0.00231313
0.00230861
0.00231323
0.00230862
0.00230855
0.00231316
0.00231326
0.00231314
0.00230859
0.00231308
0.00230858
0.00231324
0.00230858
0.00231315
0.00231315
0.00230859
0.00231308
0.00230859
0.00231325
0.00230858
0.00230859
0.00231314
0.00231317
0.00229905
0.00230361
0.00229918
0.00230361
0.00229904
0.00230354
0.00229904
0.0022919
0.00230143
0.00230141
0.00230141
0.00229188
0.00229186
0.00230139
0.00229905
0.0023036
0.00230371
0.00229903
0.00230368
0.002299
0.00229908
0.00229904
0.0023036
0.00230371
0.00229903
0.00230367
0.00229901
0.00229908
0.00229906
0.00230359
0.00230363
0.00229891
0.00230371
0.00229898
0.00229892
0.00229905
0.00230372
0.0023036
0.00229903
0.00230368
0.00229908
0.00229901
0.00231097
0.00231095
0.00231093
0.00231097
0.00231095
0.00231093
0.00231097
0.00231095
0.00231093
0.00229906
0.00230363
0.00230359
0.00229891
0.0023037
0.00229892
0.00229898
0.00231308
0.00230858
0.00230859
0.00231324
0.00231315
0.00231316
0.00230859
0.00231325
0.00230852
0.00230846
0.00231311
0.00231318
0.00231313
0.0023086
0.00231326
0.00230852
0.00230845
0.0023131
0.00231313
0.00231318
0.0023086
0.00231308
0.00230858
0.00230859
0.00231324
0.00231317
0.00231314
0.00230859
0.00231323
0.00230855
0.00230862
0.00231316
0.00231314
0.00231326
0.00230859
0.00231325
0.00230852
0.00230846
0.00231311
0.00231313
0.00231318
0.0023086
0.00231325
0.00230847
0.00230852
0.00231311
0.00231318
0.00231314
0.00230861
0.00231323
0.00230862
0.00230855
0.00231316
0.00231315
0.00231326
0.0023086
0.00231323
0.00230862
0.00230855
0.00231316
0.00231326
0.00231315
0.0023086
0.00231325
0.00230847
0.00230852
0.00231311
0.00231314
0.00231318
0.00230861
0.00231815
0.00231812
0.00231818
0.0023181
0.00231325
0.00230846
0.00231311
0.00230852
0.0023086
0.00231318
0.00231313
0.00231816
0.00231801
0.00231801
0.00231807
0.00230143
0.00230141
0.00229189
0.00229188
0.00229188
0.00229186
0.00230139
0.00230141
0.00230143
0.00230141
0.00229188
0.0022919
0.00229186
0.00230139
0.00229908
0.00230365
0.00230359
0.00229891
0.00230372
0.00229894
0.00229897
0.00229906
0.00230372
0.0023036
0.00229903
0.00230368
0.002299
0.00229908
0.00229418
0.00229402
0.00228944
0.00228939
0.00229411
0.00229405
0.00228954
0.00229905
0.0023036
0.00230361
0.00229918
0.00230353
0.00229904
0.00229905
0.00228951
0.00228951
0.00228952
0.00229399
0.00229416
0.00229407
0.00229408
0.00229906
0.00230359
0.00230363
0.00229891
0.0023037
0.00229898
0.00229891
0.00229414
0.00229408
0.00228947
0.00228955
0.00229406
0.00229418
0.00228952
0.00228939
0.00229417
0.00229403
0.00228945
0.00229405
0.00229409
0.00228953
0.00229905
0.00230359
0.00230361
0.00229891
0.00230369
0.00229898
0.00229889
0.00229414
0.00229408
0.00228947
0.00228955
0.00229406
0.00229417
0.00228952
0.00229416
0.00229403
0.00228945
0.00228938
0.00229405
0.00228952
0.00229408
0.00228
0.00228453
0.00228465
0.00227998
0.00228461
0.00227995
0.00228003
0.00228458
0.00227987
0.00227986
0.00228002
0.00228453
0.00228465
0.00227992
0.00228
0.00228454
0.00228465
0.00227998
0.00228461
0.00227995
0.00228003
0.00229905
0.00230358
0.00230363
0.00229918
0.00230354
0.00229908
0.00229901
0.002294
0.00229416
0.0022895
0.00228952
0.0022941
0.00229404
0.00228952
0.00229905
0.0023036
0.00230372
0.00229903
0.00230368
0.002299
0.00229908
0.00228955
0.0022895
0.00228947
0.00229414
0.00229408
0.00229406
0.00229418
0.00228953
0.00228938
0.00228944
0.00229417
0.00229402
0.00229405
0.0022941
0.00229906
0.00230359
0.00230363
0.00229891
0.0023037
0.00229892
0.00229898
0.00228945
0.00228938
0.00229417
0.00229403
0.00228938
0.00229409
0.00229405
0.0022895
0.00228952
0.00228947
0.00229414
0.00229408
0.00229418
0.00229406
0.00229906
0.00230372
0.0023036
0.00229903
0.00230368
0.00229908
0.00229901
0.0020034
0.00226337
0.00226333
0.00226333
0.00226561
0.00222547
0.00222544
0.00222544
0.0022277
0.00218773
0.00218772
0.00218772
0.00218996
0.00215016
0.00215014
0.00215015
0.00215237
0.00211274
0.00211272
0.00211272
0.00211493
0.00207546
0.00207545
0.00207545
0.00207763
0.00201056
0.00203831
0.00203831
0.00204048
0.00200132
0.0020013
0.00227062
0.00227283
0.00227283
0.00226561
0.0022327
0.00226333
0.00226333
0.0022349
0.0022349
0.00226561
0.0022327
0.00226333
0.00226333
0.0022349
0.0022349
0.00226333
0.0022349
0.0022349
0.00226561
0.0022327
0.00226333
0.0022349
0.0022349
0.0022327
0.0022277
0.00219493
0.00222544
0.00222544
0.00219713
0.00219713
0.0022277
0.00219493
0.00222544
0.00222544
0.00219713
0.00219713
0.00222544
0.00219713
0.00219713
0.0022277
0.00219493
0.00222544
0.00219713
0.00219713
0.00219493
0.00218996
0.00215733
0.00218772
0.00218772
0.00215952
0.00215952
0.00218996
0.00215733
0.00218772
0.00218772
0.00215952
0.00215952
0.00218772
0.00215952
0.00215952
0.00218996
0.00215733
0.00218772
0.00215952
0.00215952
0.00215733
0.00215237
0.00211987
0.00215014
0.00215014
0.00212206
0.00212206
0.00215237
0.00211987
0.00215014
0.00215014
0.00212206
0.00212206
0.00215015
0.00212206
0.00212206
0.00215237
0.00211987
0.00215015
0.00212206
0.00212206
0.00211987
0.00211493
0.00208257
0.00211272
0.00211272
0.00208475
0.00208475
0.00211493
0.00208257
0.00211272
0.00211272
0.00208475
0.00208475
0.00211272
0.00208475
0.00208475
0.00211493
0.00208257
0.00211272
0.00208475
0.00208475
0.00208257
0.00207763
0.0020454
0.00207545
0.00207545
0.00204758
0.00204758
0.00207763
0.0020454
0.00207545
0.00207545
0.00204758
0.00204758
0.00207545
0.00204758
0.00204758
0.00207763
0.0020454
0.00207545
0.00204758
0.00204758
0.0020454
0.00204048
0.00200837
0.00203831
0.00203831
0.00201054
0.0020081
0.00204048
0.00200804
0.00203831
0.00203831
0.00201054
0.00201054
0.00203831
0.00201055
0.00204048
0.00200837
0.00203831
0.00201054
0.00200338
0.0020013
0.00200346
0.00200337
0.00225132
0.00226547
0.00226552
0.00225127
0.00226547
0.00225126
0.00225132
0.00226547
0.00226552
0.00225127
0.00226333
0.00226337
0.00226337
0.00223493
0.00223493
0.00223493
0.00223493
0.00225148
0.00226562
0.00226334
0.00225384
0.00226559
0.00225137
0.00225385
0.00226547
0.00225126
0.00225148
0.00226334
0.00226555
0.00225384
0.00225385
0.00225137
0.00226559
0.0022655
0.0022655
0.00225164
0.00225129
0.00225129
0.00221347
0.00222757
0.00222761
0.00221343
0.00222756
0.00221342
0.00221347
0.00222757
0.00222761
0.00221343
0.00222547
0.00222547
0.00222547
0.00219715
0.00219715
0.00219715
0.00219715
0.00221363
0.00222758
0.00222545
0.002216
0.00222763
0.00221352
0.00221601
0.00222756
0.00221342
0.00221363
0.00222545
0.00222758
0.002216
0.00222763
0.00221601
0.00221352
0.0022276
0.0022276
0.00221379
0.00221345
0.00221345
0.00217579
0.00218983
0.00218987
0.00217574
0.00218982
0.00217574
0.00217579
0.00218983
0.00218987
0.00217574
0.00218773
0.00218773
0.00218773
0.00215954
0.00215954
0.00215954
0.00215954
0.00217594
0.00218984
0.00218773
0.00217831
0.00218988
0.00217584
0.00217833
0.00218982
0.00217574
0.00217595
0.00218773
0.00218984
0.00217831
0.00218988
0.00217833
0.00217584
0.00218986
0.00218986
0.00217611
0.00217577
0.00217577
0.00213826
0.00215224
0.00215228
0.00213822
0.00215224
0.00213822
0.00213826
0.00215224
0.00215228
0.00213822
0.00215016
0.00215016
0.00215016
0.00212208
0.00212208
0.00212208
0.00212208
0.00213841
0.00215225
0.00215017
0.00214078
0.00215229
0.00213831
0.0021408
0.00215224
0.00213822
0.00213841
0.00215017
0.00215225
0.00214078
0.00215229
0.0021408
0.00213831
0.00215227
0.00215227
0.00213858
0.00213824
0.00213824
0.00210088
0.00211481
0.00211485
0.00210084
0.00211481
0.00210084
0.00210088
0.00211481
0.00211485
0.00210084
0.00211274
0.00211274
0.00211274
0.00208477
0.00208477
0.00208477
0.00208477
0.00210103
0.00211482
0.00211275
0.00210339
0.00211486
0.00210093
0.00210342
0.00211481
0.00210084
0.00210103
0.00211275
0.00211482
0.00210339
0.00211486
0.00210342
0.00210093
0.00211484
0.00211484
0.0021012
0.00210086
0.00210086
0.00206365
0.00207753
0.00207756
0.00206361
0.00207753
0.00206361
0.00206365
0.00207753
0.00207756
0.00206361
0.00207546
0.00207546
0.00207546
0.0020476
0.0020476
0.0020476
0.0020476
0.00206379
0.00207754
0.00207548
0.00206615
0.00207757
0.0020637
0.00206618
0.00207753
0.00206361
0.00206379
0.00207548
0.00207754
0.00206615
0.00207757
0.00206618
0.0020637
0.00207755
0.00207755
0.00206397
0.00206363
0.00206363
0.00202655
0.00204038
0.00204041
0.00202652
0.00204038
0.00202652
0.00202655
0.00204038
0.00204041
0.00202652
0.00201055
0.00203832
0.00203832
0.00203832
0.00203832
0.00201056
0.00201056
0.00202669
0.00204039
0.00203835
0.00202905
0.00204042
0.0020266
0.00202908
0.00204038
0.00202652
0.00202669
0.00203834
0.00204039
0.00202904
0.00204042
0.00202908
0.0020266
0.00204041
0.00204041
0.00202687
0.00202654
0.00202654
0.00200131
0.00200132
0.00200132
0.00200337
0.00200338
0.00227025
0.00227025
0.00227028
0.00227028
0.00227025
0.00227031
0.00227035
0.00227284
0.00227047
0.00227025
0.00227031
0.00228449
0.00228234
0.00227284
0.00227505
0.00227047
0.00227986
0.00226547
0.00225126
0.00226547
0.00225127
0.0022655
0.0022655
0.00225164
0.00225129
0.00225129
0.00223232
0.00224649
0.00223232
0.00224649
0.00224664
0.00223235
0.00223235
0.00224653
0.00224653
0.00225132
0.00226547
0.00226552
0.00225127
0.00225148
0.00226554
0.00226334
0.00225384
0.00226559
0.00225137
0.00225385
0.00225148
0.00226555
0.00226334
0.00225384
0.00226559
0.00225137
0.00225385
0.00224654
0.00223233
0.0022465
0.00223238
0.00224654
0.00223233
0.0022465
0.00223238
0.00224656
0.00224437
0.00223243
0.00223491
0.00224651
0.00224438
0.00223253
0.00224656
0.00224437
0.00223243
0.00223491
0.00224651
0.00224438
0.00223254
0.0022655
0.0022655
0.00225164
0.00225129
0.00225129
0.00226546
0.00225126
0.00223232
0.00224649
0.00224664
0.00223235
0.00223235
0.00224653
0.00224653
0.00223232
0.00224649
0.00225148
0.00226549
0.00226334
0.00225384
0.00226554
0.00225137
0.00225385
0.00225132
0.00226547
0.00226552
0.00225127
0.00225148
0.00226334
0.00226555
0.00225384
0.00226554
0.00225385
0.00225137
0.00224654
0.00223233
0.0022465
0.00223238
0.00224656
0.00224437
0.00223243
0.00223491
0.00224651
0.00224438
0.00223254
0.00224654
0.00223233
0.0022465
0.00223238
0.00224656
0.00224437
0.00223491
0.00223243
0.00224438
0.00224651
0.00223253
0.00225132
0.00226547
0.00226552
0.00225127
0.00225148
0.00226334
0.00226555
0.00225384
0.00226559
0.00225385
0.00225137
0.00225132
0.00226547
0.00226552
0.00225127
0.00224656
0.00224437
0.00223243
0.00223491
0.00224651
0.00224438
0.00223253
0.00224654
0.00223233
0.0022465
0.00223238
0.00224656
0.00224437
0.00223491
0.00223243
0.00224438
0.00224651
0.00223253
0.00224654
0.00223233
0.0022465
0.00223238
0.0022655
0.0022655
0.00225164
0.00225129
0.00225129
0.00226547
0.00225126
0.00223232
0.00224649
0.00224664
0.00223235
0.00223235
0.00224653
0.00224653
0.00223232
0.00224649
0.00225148
0.00226334
0.00226555
0.00225384
0.00225385
0.00225137
0.00226559
0.00225132
0.00226547
0.00225127
0.00226552
0.00225132
0.00226547
0.00225127
0.00226552
0.00224656
0.00224437
0.00223491
0.00223243
0.00224438
0.00224651
0.00223253
0.00224656
0.00224437
0.00223491
0.00223243
0.00224438
0.00224651
0.00223254
0.00224654
0.00223233
0.0022465
0.00223238
0.00224654
0.00223233
0.0022465
0.00223238
0.00226546
0.00225126
0.00226547
0.00225126
0.00224664
0.00223235
0.00223235
0.00224653
0.00224653
0.00223232
0.00224649
0.00223232
0.00224649
0.00222756
0.00221342
0.00222756
0.00221342
0.0022276
0.0022276
0.00221379
0.00221345
0.00221345
0.00219456
0.00220867
0.00219456
0.00220867
0.00220881
0.00219459
0.00219459
0.00220871
0.00220871
0.00221347
0.00222757
0.00222761
0.00221342
0.00221363
0.00222758
0.00222545
0.002216
0.00222763
0.00221353
0.00221601
0.00221363
0.00222758
0.00222545
0.002216
0.00222763
0.00221353
0.00221601
0.00220872
0.00219457
0.00220868
0.00219461
0.00220872
0.00219457
0.00220868
0.00219461
0.00220873
0.00220656
0.00219466
0.00219715
0.00220869
0.00220657
0.00219477
0.00220873
0.00220656
0.00219466
0.00219715
0.00220869
0.00220657
0.00219477
0.0022276
0.0022276
0.00221379
0.00221345
0.00221345
0.00222756
0.00221342
0.00219456
0.00220867
0.00220881
0.00219459
0.00219459
0.00220871
0.00220871
0.00219456
0.00220867
0.00221363
0.00222758
0.00222545
0.002216
0.00222763
0.00221352
0.00221601
0.00221347
0.00222757
0.00222761
0.00221343
0.00221363
0.00222545
0.00222758
0.002216
0.00222763
0.00221601
0.00221352
0.00220872
0.00219457
0.00220868
0.00219461
0.00220873
0.00220656
0.00219466
0.00219715
0.00220869
0.00220657
0.00219477
0.00220872
0.00219457
0.00220868
0.00219461
0.00220873
0.00220656
0.00219715
0.00219466
0.00220657
0.00220869
0.00219477
0.00221347
0.00222757
0.00222761
0.00221343
0.00221363
0.00222545
0.00222758
0.002216
0.00222763
0.00221601
0.00221353
0.00221347
0.00222757
0.00222761
0.00221342
0.00220873
0.00220656
0.00219466
0.00219715
0.00220869
0.00220657
0.00219477
0.00220872
0.00219457
0.00220868
0.00219461
0.00220873
0.00220656
0.00219715
0.00219466
0.00220657
0.00220869
0.00219477
0.00220872
0.00219457
0.00220868
0.00219461
0.0022276
0.0022276
0.00221379
0.00221345
0.00221345
0.00222756
0.00221342
0.00219456
0.00220867
0.00220881
0.00219459
0.00219459
0.00220871
0.00220871
0.00219456
0.00220867
0.00221363
0.00222545
0.00222758
0.002216
0.00222763
0.00221601
0.00221352
0.00221347
0.00222757
0.00222761
0.00221343
0.00221347
0.00222757
0.00222761
0.00221343
0.00220873
0.00220656
0.00219715
0.00219466
0.00220657
0.00220869
0.00219477
0.00220873
0.00220656
0.00219715
0.00219466
0.00220657
0.00220869
0.00219477
0.00220872
0.00219457
0.00220868
0.00219461
0.00220872
0.00219457
0.00220868
0.00219461
0.00222756
0.00221342
0.00222756
0.00221342
0.00220881
0.00219459
0.00219459
0.00220871
0.00220871
0.00219456
0.00220867
0.00219456
0.00220867
0.00218982
0.00217574
0.00218982
0.00217574
0.00218986
0.00218986
0.00217611
0.00217577
0.00217577
0.00215696
0.00217101
0.00215696
0.00217101
0.00217114
0.00215699
0.00215699
0.00217105
0.00217105
0.00217579
0.00218983
0.00218987
0.00217574
0.00217595
0.00218984
0.00218773
0.00217831
0.00218988
0.00217584
0.00217833
0.00217595
0.00218984
0.00218773
0.00217831
0.00218988
0.00217584
0.00217833
0.00217105
0.00215696
0.00217102
0.00215701
0.00217106
0.00215696
0.00217102
0.00215701
0.00217107
0.00216891
0.00215706
0.00215954
0.00217103
0.00216893
0.00215716
0.00217107
0.00216891
0.00215706
0.00215954
0.00217103
0.00216893
0.00215716
0.00218986
0.00218986
0.00217611
0.00217577
0.00217577
0.00218982
0.00217574
0.00215696
0.00217101
0.00217114
0.00215699
0.00215699
0.00217105
0.00217105
0.00215696
0.00217101
0.00217595
0.00218984