/*--------------------------------*- C++ -*----------------------------------*\
| =========                 |                                                 |
| \\      /  F ield         | OpenFOAM: The Open Source CFD Toolbox           |
|  \\    /   O peration     | Version:  v2006                                 |
|   \\  /    A nd           | Website:  www.openfoam.com                      |
|    \\/     M anipulation  |                                                 |
\*---------------------------------------------------------------------------*/
FoamFile
{
    version     2.0;
    format      ascii;
    class       surfaceScalarField;
    location    "750";
    object      phi;
}
// * * * * * * * * * * * * * * * * * * * * * * * * * * * * * * * * * * * * * //

dimensions      [0 3 -1 0 0 0 0];
oriented        oriented;


internalField   nonuniform List<scalar> 
40970
(
1.91209e-08
-0.000231507
-5.09601e-09
-5.61838e-11
0.000231493
7.67184e-09
5.26837e-09
-7.46849e-09
-0.000193766
0.000193761
1.91288e-08
-1.62262e-10
-0.000231503
1.00932e-10
-5.10094e-09
0.000231489
7.67521e-09
5.21413e-09
-7.41659e-09
-0.000193746
0.000193741
3.6709e-09
-9.76597e-05
9.76637e-05
3.67511e-09
-9.76487e-05
9.76527e-05
-1.20429e-06
-1.16386e-06
-0.000273436
1.53394e-07
1.61194e-07
0.000275489
-5.12602e-09
1.03755e-08
-0.000279302
2.061e-08
0.00027928
-5.16255e-09
9.84704e-09
-0.000279223
1.82868e-08
0.000279204
-0.000254933
-6.03086e-09
-8.0258e-08
0.000255039
3.42689e-07
-1.45953e-06
1.70024e-07
-4.00306e-07
-1.09958e-06
1.08947e-07
-4.12274e-07
7.81135e-07
0.00114629
-1.33138e-09
-0.000247784
-3.71336e-08
0.000247822
-1.22647e-06
6.50961e-07
-1.0559e-06
8.45474e-07
0.00115684
-1.83932e-09
-0.000254923
-5.0606e-09
-8.02226e-08
0.000255029
3.41981e-07
-1.41665e-06
1.6175e-07
-3.92051e-07
-1.09657e-06
1.06405e-07
-4.09465e-07
7.7576e-07
0.0011473
1.13024e-09
-0.00024775
-3.72632e-08
0.000247786
-4.44811e-09
-1.22629e-06
6.5092e-07
-1.05588e-06
8.42458e-07
0.0011567
1.92025e-08
-0.000231464
-3.01449e-09
1.78197e-10
0.000231448
-0.0002549
-7.76358e-08
-5.05281e-09
0.000255
-1.22346e-06
6.50948e-07
-1.05592e-06
8.42582e-07
0.00115666
-4.23991e-10
3.62877e-08
0.000143263
-8.86564e-10
-3.94315e-08
-7.21375e-10
1.18064e-07
-0.000171076
-1.09325e-09
0.000171072
-0.000224948
-2.12486e-09
1.55386e-09
8.78183e-09
0.00022494
-9.63794e-10
1.11531e-07
-1.28725e-09
0.000143261
2.50213e-08
7.90432e-05
-0.000264023
7.44054e-09
-3.06585e-09
0.000264013
-1.19613e-08
-2.03352e-09
6.8638e-08
8.85517e-08
7.90494e-05
3.63051e-08
-2.21887e-10
0.00014326
-9.47582e-10
-1.23356e-09
-3.94794e-08
1.05893e-10
1.18085e-07
-0.000224945
-2.10741e-09
1.46786e-09
1.11765e-08
0.000224935
-0.000171071
-1.14227e-09
-5.77788e-12
0.000171067
-9.87918e-10
1.09101e-07
2.08397e-11
-1.32484e-09
0.000143258
2.49923e-08
7.90427e-05
-0.00026402
7.51413e-09
-6.05076e-10
0.000264007
-1.19183e-08
-2.02536e-09
6.85768e-08
8.59905e-08
7.90489e-05
2.60145e-08
2.60186e-08
-1.4767e-08
-1.47882e-08
0.000214366
3.98328e-08
3.7756e-08
-8.04924e-05
1.75202e-09
-3.2924e-09
8.0494e-05
-8.04746e-05
1.80412e-09
-3.259e-09
8.04761e-05
8.83093e-09
8.72534e-09
1.10046e-08
1.3049e-08
0.000214346
-5.23501e-08
0.000223574
6.26086e-08
1.05698e-07
-0.000183281
1.32686e-08
0.000183275
-6.93097e-09
8.58629e-08
2.1449e-08
-1.65435e-08
-0.00025386
1.33798e-08
1.87577e-08
0.000253865
1.41893e-08
0.000223567
1.74808e-07
8.4786e-08
-5.42779e-08
0.000223502
6.23561e-08
1.0792e-07
-0.00018322
1.13893e-08
0.000183215
-6.27075e-09
8.8111e-08
2.1378e-08
-1.64498e-08
-0.000253746
1.35314e-08
2.13534e-08
0.000253745
1.22725e-08
0.000223497
1.74421e-07
8.19294e-08
-4.06392e-10
3.83444e-08
0.000143187
-8.67423e-10
-4.15263e-08
-7.1339e-10
1.18045e-07
-0.000171035
-1.09266e-09
0.000171033
-0.000224848
1.75322e-11
1.53425e-09
8.82936e-09
0.000224838
-9.75617e-10
1.11428e-07
-1.29549e-09
0.000143187
2.50299e-08
7.89981e-05
-0.000263895
7.45589e-09
-3.10316e-09
0.000263885
8.84922e-08
7.90043e-05
0.000246049
2.19114e-07
2.16954e-07
-3.74282e-07
-3.82177e-07
4.98842e-08
-0.000265205
0.000265492
4.76505e-08
-0.000265631
0.000265919
0.000246173
-3.53584e-07
2.05309e-08
0.000271216
-3.78875e-08
-7.24467e-09
3.55009e-07
-0.000253737
-1.05534e-07
-6.94419e-09
0.000253853
-0.000271717
-2.32456e-08
0.000272311
-1.3058e-08
-3.82347e-08
0.000271971
-3.07402e-07
-5.46157e-08
0.000269299
-0.000254127
-1.11274e-07
0.000254227
1.89569e-08
2.12492e-07
-0.000264626
3.31782e-08
0.000264683
0.000269964
-3.58809e-07
2.38539e-08
0.000271213
-5.10519e-08
-7.98738e-09
3.55058e-07
4.32786e-10
-0.000253722
-1.10579e-07
-7.05495e-09
0.000253846
-0.000271714
-1.94068e-08
-7.58319e-09
0.000272311
-1.31304e-08
4.67613e-09
-2.49936e-08
0.00027195
-3.09875e-07
-5.44686e-08
0.000269309
-0.00025411
-1.14036e-07
0.000254217
1.64816e-08
2.12407e-07
-0.000264613
3.3141e-08
0.00026467
0.000269979
1.94363e-08
-3.56091e-07
0.00027115
-3.78189e-08
3.52462e-07
-6.71374e-09
-0.000271695
-2.12298e-08
0.000272282
-0.000253646
-1.08066e-07
-6.94127e-09
0.000253765
-1.30318e-08
-3.82908e-08
0.000271901
-3.12437e-07
0.000269223
-0.000254014
-1.16375e-07
0.000254122
0.00026988
5.2878e-09
-1.38611e-06
8.35541e-07
-3.1874e-07
1.99573e-07
-9.76327e-07
-3.22487e-07
1.16842e-06
2.09758e-07
2.55068e-07
-0.00114532
-0.00116356
2.07599e-08
-2.06463e-07
9.09468e-07
-9.18639e-07
7.18756e-07
-1.08994e-06
5.04918e-07
0.00116362
-0.000273236
1.27974e-06
1.34835e-06
0.000271163
-2.7043e-07
-2.85114e-07
-1.99919e-07
-1.09839e-06
7.11682e-07
8.97015e-07
-9.21737e-07
5.40323e-07
-5.93689e-08
-0.00116343
-2.16972e-10
-1.91409e-08
7.44639e-09
2.59021e-09
-0.000229252
0.000229262
1.20351e-06
0.00114543
-1.30147e-06
2.05539e-07
-2.94107e-07
-9.67838e-07
1.68276e-07
-2.9378e-07
8.26277e-07
-0.00114565
2.27284e-07
4.3993e-07
-1.23513e-06
2.10473e-07
-0.000271215
2.07248e-07
-6.00534e-09
-7.28487e-09
-9.71312e-05
9.71445e-05
3.71643e-07
1.25593e-06
-3.08552e-07
1.95183e-07
8.14095e-07
-3.15634e-07
1.36645e-07
-9.7569e-07
4.11636e-07
0.00114513
9.01134e-07
-9.18672e-07
7.16058e-07
-1.09276e-06
-0.00116366
5.57761e-07
-1.54554e-08
-4.67047e-08
-0.000245405
1.50354e-07
9.13231e-09
0.000245308
-3.25851e-07
-2.37549e-07
0.000271161
-0.000273253
1.26939e-06
-1.48812e-08
-0.000277093
-8.48141e-09
6.79063e-08
0.000277033
2.96714e-09
-9.71569e-05
9.7139e-05
-0.000192422
-1.08961e-08
0.000192389
-0.00114507
1.24228e-06
-3.03121e-07
2.26418e-07
8.46126e-07
-2.8661e-07
2.15689e-07
-9.65512e-07
2.32702e-07
0.001145
-4.43813e-08
8.95611e-07
-9.18559e-07
-1.09264e-06
7.10451e-07
-1.8475e-07
-0.00116333
5.63058e-07
0.0011634
1.57261e-10
-7.2685e-08
0.000251683
2.51018e-07
-6.9469e-10
-0.000251861
-0.000277093
1.78523e-08
-1.50565e-08
5.2035e-08
-1.12276e-08
0.000277049
4.8939e-09
-1.45413e-08
1.08417e-08
-3.70704e-08
-0.000277057
-5.89637e-09
-9.71461e-05
1.66376e-08
1.46762e-09
-1.3231e-07
-6.69009e-10
0.000251865
-0.00025175
9.71824e-09
-7.61716e-08
-8.63626e-09
-0.000245345
2.50597e-09
7.44742e-09
0.000229298
-0.000229291
-6.95761e-09
-0.000192411
-1.32257e-07
-1.14973e-09
-0.000251719
0.000251834
2.08333e-07
-1.35338e-06
-3.27336e-07
-9.86839e-07
1.59962e-07
8.23577e-07
-3.31842e-07
-0.00114512
4.21617e-07
1.2041e-08
1.21391e-08
-6.11735e-09
-6.67084e-08
-0.000245283
0.000245331
-6.95697e-09
-0.000192359
0.000192372
9.83687e-09
1.21752e-08
0.000245368
-6.69464e-08
-0.000245317
-6.04353e-09
5.87834e-09
0.00019238
-0.000192369
-6.84375e-09
-9.54603e-09
-0.000277006
7.55349e-09
0.000277013
5.15578e-09
-1.00108e-08
-0.000277086
1.05292e-08
9.71491e-05
-9.71381e-05
8.95784e-07
-9.18432e-07
7.10574e-07
-1.09228e-06
-0.00116332
5.10374e-07
0.00116354
-4.60914e-08
1.50633e-07
9.19379e-09
0.000245272
-7.02347e-08
0.000251659
2.53587e-07
-3.27915e-09
-0.000251839
-1.93648e-10
0.000229247
2.15217e-09
-2.2715e-08
-0.000229299
-2.94346e-09
-1.08505e-08
0.000192348
0.000229212
1.13865e-09
-2.27823e-08
-0.000229261
9.71311e-05
2.71645e-09
1.9134e-08
-8.67099e-08
1.64249e-08
-0.000221589
2.94211e-09
-5.61421e-09
5.26324e-09
-0.000277028
-9.81403e-09
-4.48506e-10
-0.000181983
-2.58475e-08
-0.000251218
9.35276e-10
0.000142326
-2.72828e-09
2.35046e-08
1.72445e-09
-0.000142349
1.27835e-09
-0.000169981
-5.53796e-11
0.000169988
7.04306e-09
-0.00022288
4.74617e-09
-2.32987e-08
0.000222894
-2.31573e-08
1.64734e-09
7.36849e-08
-1.27898e-10
-0.000229304
1.28832e-09
0.000142333
-5.01899e-11
-0.000170007
2.65183e-09
7.42971e-08
-0.000222932
4.66824e-09
1.73408e-08
-9.71532e-05
-9.71379e-05
-5.79208e-09
1.19208e-09
-1.15269e-09
2.62074e-08
-0.000212768
-7.99895e-05
-3.0285e-09
-7.99872e-05
-2.92472e-08
2.37983e-08
-0.000221582
-3.86116e-08
0.000181969
4.32877e-08
-9.39907e-09
-0.000182011
0.000251173
-7.74471e-08
6.25678e-08
2.02351e-07
-0.000251292
-4.24586e-08
7.86584e-09
7.6037e-09
-1.19775e-08
-1.15877e-08
-1.76498e-07
9.67077e-08
-8.34008e-08
-0.000221629
-5.84111e-09
-1.19461e-08
-7.85952e-05
-1.38933e-09
0.000262004
-2.15475e-08
-0.000262046
5.61344e-08
-2.65984e-09
-6.72422e-09
-1.25791e-08
-2.24253e-08
-6.74036e-09
-7.86153e-05
-1.49654e-09
-0.000221597
3.1564e-08
-1.61512e-09
2.6676e-08
-9.70283e-08
0.000221637
-5.08843e-08
0.000251236
-0.000251313
1.14824e-07
6.527e-08
3.36503e-08
0.000181986
-0.000182021
-9.44879e-09
6.19204e-09
4.55292e-09
5.20768e-09
-7.59065e-09
0.000277041
-0.000221642
6.58255e-08
-3.81125e-08
6.75126e-09
8.83044e-09
0.000251258
-1.99062e-09
0.000181991
9.00028e-09
4.71493e-09
-2.07598e-08
0.000222986
-0.000222976
1.20285e-09
0.000170019
-0.000170013
1.39626e-09
0.000142401
-0.000142392
1.18127e-08
-2.44512e-08
-0.000262036
-7.8602e-05
7.85607e-05
1.97031e-08
-7.85787e-05
9.65166e-09
-0.000261912
-2.44527e-08
0.000261925
-1.15324e-08
5.16388e-08
-0.000192394
7.85717e-05
6.16817e-08
-0.000261963
1.95486e-08
7.85589e-05
-7.85768e-05
-1.60067e-09
-1.05494e-08
-2.95188e-09
4.49639e-08
-0.000192401
-0.000261922
9.78529e-09
0.000261934
-2.46794e-08
-4.67842e-09
5.42762e-08
-0.000261964
-2.55631e-09
7.85698e-05
-1.17518e-09
0.000221576
5.96194e-08
-3.77437e-08
-3.37002e-08
7.38306e-08
-0.000221638
-1.09576e-09
-0.000251141
-3.53718e-08
-6.05729e-09
0.000251174
6.48265e-08
-1.00069e-08
2.01639e-08
-0.000277063
-7.33955e-09
-0.000181972
4.65906e-09
0.000181982
1.03356e-09
-2.16319e-08
0.000221588
1.44079e-07
7.12508e-08
-0.000251232
-7.74191e-09
-0.000182012
0.000221626
2.46188e-08
-2.2556e-08
-9.89472e-09
4.82881e-08
-0.000221666
7.4536e-09
-0.000251282
-4.27233e-08
-6.20436e-09
3.62264e-08
-5.43412e-09
-1.52411e-08
1.09723e-08
-0.000277113
-7.88683e-09
-0.000182009
6.33366e-09
5.46915e-09
-2.14906e-08
7.26416e-08
4.77925e-08
-0.000251342
-4.46374e-09
-0.000182033
0.000212806
-9.22174e-09
-8.72221e-09
-0.000212831
-2.3681e-09
-7.99964e-05
8.00034e-05
-3.09396e-09
-7.99978e-05
8.00073e-05
0.000212807
-8.00133e-05
-8.0011e-05
-9.71562e-05
-9.13312e-09
-0.000142378
-1.22985e-09
1.40572e-09
0.000142387
2.55573e-09
7.64299e-09
-1.26029e-10
-1.9822e-08
0.000229256
0.000222939
-2.51097e-08
7.34428e-08
-0.000222988
2.63634e-09
2.74072e-09
0.000169995
-4.88782e-11
-0.000170021
-2.37677e-08
4.75461e-09
0.000222951
-0.000142402
1.52746e-09
-2.28601e-11
0.000170002
-7.85521e-05
-9.83854e-09
-1.22186e-09
7.85631e-05
-1.9396e-08
0.000261887
-2.55384e-09
5.83985e-08
-7.17742e-09
5.84622e-09
-7.65632e-09
0.000192357
-1.64047e-09
-2.59273e-09
-2.02738e-08
0.000261893
-0.000142307
-7.24471e-09
-1.23154e-09
0.000142315
2.53745e-09
7.71284e-09
-1.73548e-08
0.000229219
-2.31842e-08
0.000222848
7.09524e-08
-0.000222897
2.51095e-09
0.00016996
-0.000169985
-0.00014233
-1.90255e-08
0.00022286
0.000169966
9.71421e-05
-1.48687e-07
-0.000243595
-3.99442e-08
4.93352e-08
0.000243761
2.13656e-07
2.34576e-07
0.000273213
0.000262982
-1.39065e-07
-0.000263351
-6.63052e-08
-1.44716e-07
0.000262665
-0.000262999
2.07596e-07
0.000263066
-0.000243765
-4.76741e-08
0.000263061
0.000243639
1.69882e-07
1.27968e-07
-0.000243814
8.07661e-08
-0.000263048
-2.84725e-07
-2.93093e-07
-0.000273292
8.86259e-08
-0.000262718
-0.000263346
-0.000263104
-8.09559e-09
1.54075e-07
-0.000266192
-4.26074e-10
0.000261729
3.13978e-08
-0.000261866
0.000251316
2.29484e-07
-0.000251485
4.60413e-09
-7.94426e-08
-8.6915e-09
-5.07454e-09
-0.000266929
2.14536e-08
-1.23609e-07
-0.000243605
-6.70877e-08
-7.20467e-08
0.000262714
2.89565e-07
1.64979e-08
-0.000263274
0.000262951
-2.15068e-07
-0.000263093
2.18934e-07
2.21448e-07
-1.27196e-06
-1.9493e-08
-0.000243776
-2.06158e-07
-0.000268224
6.15504e-09
1.53025e-07
-7.55544e-09
0.000268968
-1.30724e-07
3.88518e-10
-3.51875e-10
0.000251794
-7.2039e-09
0.000268735
-2.03489e-09
-0.000269393
2.6207e-07
0.000250699
-4.63021e-09
-0.000250884
-2.65843e-08
-0.000269035
-5.17094e-10
0.000269321
3.39816e-10
0.000250828
-9.89955e-09
3.10732e-09
0.00026941
-7.11802e-07
-0.000268824
-1.52205e-07
2.33317e-10
0.000250887
-0.000250756
-1.59151e-08
0.000269047
-8.99909e-07
-0.000268293
8.40913e-09
-1.84627e-07
1.5919e-08
-0.000261782
-1.50858e-07
-0.000251367
-8.29252e-07
-0.000266258
0.000268239
9.35464e-09
-2.66597e-07
-2.40705e-08
-0.000269056
-1.09102e-08
-0.000268789
0.000269382
-1.49677e-07
-0.000250683
1.62331e-10
0.000250808
2.55837e-07
-2.45302e-09
-6.21937e-10
-0.000251898
-1.58791e-08
0.000268991
-4.05085e-09
-0.000269441
-7.27931e-09
-0.000250871
0.000266175
-2.36429e-07
-3.40036e-08
-0.000266916
-1.45827e-07
-0.000251279
0.000251395
1.33715e-08
-0.000261707
0.000261781
9.24544e-09
1.59601e-07
-0.00024538
0.000266851
-0.000251452
-0.000261842
-2.26037e-07
-2.69124e-08
0.000266196
-0.000266944
3.24979e-08
-0.000261755
1.35908e-08
0.000261836
7.03341e-09
1.39652e-07
-0.000245408
-0.000251295
-1.48383e-07
0.000251415
-2.59854e-09
-0.000251467
7.1444e-09
-0.000261888
0.000266882
5.518e-09
-1.77063e-08
-0.000266138
1.41434e-07
2.07302e-08
0.000266808
0.000261703
3.37264e-08
2.32162e-07
0.000251244
6.98522e-09
-5.54172e-08
-6.22996e-09
0.000245319
0.000261775
3.44308e-08
4.54474e-09
0.000251354
1.02107e-08
-0.000268169
1.48047e-07
0.000268928
-1.28193e-07
-8.25186e-10
0.00025177
0.000268727
-1.36362e-08
-0.00026938
2.6448e-07
0.000250623
-0.000250812
0.000269319
-0.000268976
0.000250755
7.99388e-11
7.02406e-08
-2.27735e-08
2.14512e-09
0.000229212
-7.0236e-08
-1.09124e-09
2.484e-07
-1.60538e-09
0.000251689
1.9049e-09
-2.27563e-08
0.000229249
2.50963e-07
-4.92126e-10
0.000251653
-4.47131e-08
-1.32567e-08
6.82648e-09
1.38423e-07
0.000245244
-2.98473e-09
-1.0518e-08
0.000192341
-1.49702e-08
3.58508e-08
0.000276984
-5.7557e-09
9.71265e-05
-1.28511e-09
-7.24574e-09
-0.000142311
1.28674e-09
0.000142318
0.000169962
2.75386e-09
-3.66791e-11
0.000222848
-2.31846e-08
2.71043e-09
6.86628e-08
7.7259e-09
2.58393e-09
-2.32023e-11
-1.74297e-08
0.000229219
-4.03698e-11
0.000169969
4.69492e-09
-1.90084e-08
0.000222858
1.73714e-09
-9.21303e-09
-1.20273e-09
-0.000142377
0.000222941
-2.51621e-08
6.85293e-08
0.000169994
2.69417e-09
2.72696e-09
7.72122e-09
-1.74259e-08
-1.88333e-08
-9.77875e-09
-7.85539e-05
7.8565e-05
0.000261883
-1.95065e-08
5.38675e-08
-6.77285e-09
7.52719e-09
-1.26377e-08
0.000192353
-2.26135e-08
0.000261894
-4.42204e-08
-0.000221559
3.02902e-08
-1.55689e-08
0.000221637
0.000251121
-2.95691e-08
5.25979e-08
-5.21502e-08
9.67965e-09
7.28316e-09
-1.66053e-08
0.000277036
2.42537e-08
0.000181959
-6.10113e-09
-1.8708e-08
0.000251251
-2.31907e-08
4.63367e-09
0.000181994
-0.000212767
7.31215e-10
3.08208e-09
0.000212651
1.1133e-08
7.99861e-05
1.06166e-08
7.99872e-05
7.99915e-05
7.99883e-05
9.71413e-05
1.55562e-07
4.14329e-09
-0.000268229
0.00026875
-8.49371e-09
-1.99435e-09
0.000250696
2.61995e-07
1.16126e-09
-1.30839e-07
-1.40972e-10
-1.66232e-09
8.60316e-09
1.55762e-07
-0.000268173
-1.59225e-08
0.000268934
0.000268719
-6.28586e-09
0.000250619
2.59438e-07
-2.19109e-09
-1.33361e-07
-1.4067e-10
0.000251769
0.000269311
3.23204e-10
0.000250756
-1.88205e-08
1.54075e-07
-6.02345e-09
-0.000266117
0.0002668
0.000251231
2.22168e-07
0.000261656
2.90547e-08
-8.65158e-09
-8.67166e-08
0.00024531
0.000251354
0.000261761
2.56696e-08
2.01759e-09
9.7636e-05
2.56482e-08
2.02032e-09
9.76251e-05
1.45355e-06
1.41327e-06
0.000273372
-3.71047e-07
-3.78954e-07
2.10667e-08
0.000279207
-6.89953e-09
8.45853e-08
2.09902e-08
0.000279128
-6.22173e-09
8.68249e-08
2.24844e-10
1.1617e-07
0.000231416
-3.88358e-08
-5.7773e-10
6.78951e-08
0.000193707
-1.20946e-08
1.16139e-07
0.000231376
-3.88318e-08
-3.83686e-10
6.79728e-08
-2.02829e-09
0.000193652
-1.21436e-08
1.34099e-09
0.000254811
-5.82277e-09
3.48491e-07
3.39844e-07
6.49667e-07
1.20537e-06
-3.97537e-07
1.71113e-07
7.79873e-07
-4.08976e-07
1.10525e-07
-1.09282e-06
0.00114638
0.000247683
1.85054e-08
2.10195e-07
9.51376e-09
7.43868e-07
8.44319e-07
-1.05156e-06
-1.21955e-06
6.52863e-07
0.0011572
0.000254784
-6.05809e-09
3.51059e-07
3.27382e-07
-1.44268e-06
6.59107e-07
7.90593e-07
-3.98117e-07
-1.08993e-06
1.3285e-07
1.21116e-06
-3.8653e-07
1.85405e-07
0.00114642
-2.10824e-08
0.000247595
1.35864e-08
2.07529e-07
7.49269e-07
8.52531e-07
-1.05157e-06
-1.22211e-06
6.55613e-07
0.00115715
2.56189e-08
9.76229e-05
1.41853e-06
0.00027337
-3.76814e-07
-3.81098e-07
0.000279096
-4.18047e-09
8.19689e-08
-2.5676e-08
2.33477e-08
0.000279205
-5.85122e-09
9.17669e-08
1.96161e-09
9.76315e-05
1.18666e-07
2.25448e-10
0.00023141
-6.73172e-10
-3.8888e-08
6.78398e-08
0.000193687
-1.20409e-08
1.72183e-09
0.000254801
-6.34174e-09
3.51148e-07
3.38387e-07
6.5509e-07
1.1651e-06
-3.89134e-07
1.62988e-07
7.77298e-07
-4.06078e-07
1.08075e-07
-1.08976e-06
0.00114739
0.000247649
1.60368e-08
2.10086e-07
1.79507e-09
7.49162e-07
8.441e-07
-1.05154e-06
-1.21937e-06
6.52818e-07
0.00115706
1.1616e-07
0.000231373
-4.09363e-08
-5.634e-10
7.00571e-08
-2.10622e-09
0.000193636
-1.20784e-08
0.000254776
3.48553e-07
-6.25762e-09
3.39602e-07
-1.4509e-06
6.54957e-07
7.79867e-07
-4.08861e-07
-1.09262e-06
1.10607e-07
1.20285e-06
-3.94689e-07
1.6846e-07
0.0011464
7.49336e-07
8.44232e-07
-1.05158e-06
-1.21933e-06
6.52842e-07
0.00115703
-2.3459e-08
0.000247582
1.60435e-08
2.12544e-07
6.57317e-07
1.16184e-06
-3.91908e-07
1.51541e-07
7.66397e-07
-4.19473e-07
-1.09781e-06
8.5626e-08
0.00114705
-6.77064e-08
0.000247676
1.59814e-08
2.17618e-07
0.000193693
-1.20449e-08
2.78559e-08
9.7614e-05
1.41307e-06
0.000273353
-3.73873e-07
-3.78687e-07
0.00027909
-6.91884e-09
8.45375e-08
-2.56572e-08
2.34992e-08
-6.32839e-09
8.68684e-08
0.000279209
2.0603e-09
9.7629e-05
-1.16265e-07
3.53785e-07
-6.07921e-09
0.000254798
3.3868e-07
6.55142e-07
1.16485e-06
-3.91831e-07
1.65814e-07
-4.08805e-07
-1.08978e-06
0.00114688
7.77198e-07
1.10759e-07
7.49063e-07
-1.04599e-06
-1.2139e-06
0.00115685
8.38497e-07
6.49946e-07
-6.78525e-08
1.60939e-08
2.10066e-07
0.000247684
-5.81683e-10
-3.88959e-08
0.00023141
-1.20224e-08
0.000193691
3.37542e-09
-7.64841e-09
9.76403e-05
3.39258e-09
-7.64688e-09
9.76293e-05
-0.000214298
-1.57753e-09
-1.62363e-09
1.04381e-08
1.25111e-08
0.000214279
1.45369e-08
8.04707e-05
8.75639e-09
1.45709e-08
8.04529e-05
8.6258e-09
3.9202e-08
3.70966e-08
-3.35874e-09
8.04725e-05
-3.30744e-09
8.04546e-05
-0.000223492
-1.25587e-08
1.57222e-08
1.3019e-08
0.000223487
1.03443e-08
1.95884e-08
-5.36985e-09
0.000279185
5.15282e-08
0.000183226
-6.16419e-08
0.000253755
1.72546e-07
8.36341e-08
1.04099e-07
0.00018322
1.15994e-08
1.77615e-08
0.000253761
-0.00022342
-1.07165e-08
1.56533e-08
1.11317e-08
0.000223417
9.81399e-09
1.72734e-08
-5.41629e-09
0.00027911
5.34305e-08
0.000183164
-6.13713e-08
0.000253641
1.72139e-07
8.07837e-08
1.06304e-07
0.00018316
1.17572e-08
2.03531e-08
0.000253641
-0.000143226
9.67758e-10
1.78997e-09
-1.14899e-09
0.000143225
-4.63184e-09
3.30553e-10
2.22755e-10
1.76532e-08
0.000231402
5.43274e-10
0.000171033
1.53047e-11
-3.58287e-08
0.000224866
-7.33978e-10
1.09948e-07
-7.51933e-10
1.21544e-11
0.000171029
1.75382e-09
7.63225e-09
0.000224858
-7.90237e-05
-7.46886e-09
7.90301e-05
-7.60987e-09
4.794e-09
0.000193702
-2.48619e-08
0.000263938
8.73784e-08
-3.97545e-09
0.000263928
-0.000143155
8.39321e-10
1.76349e-09
-1.16332e-09
0.000143154
-4.62737e-09
8.03317e-10
1.52278e-08
0.000231365
5.20563e-10
0.000170998
-3.58124e-08
0.000224772
-7.04975e-10
1.07457e-07
-7.73205e-10
0.000170995
3.8189e-09
5.31559e-09
0.000224766
-7.89775e-05
-7.52513e-09
7.89839e-05
-7.21733e-09
7.65288e-09
5.75787e-10
0.000193651
-2.48595e-08
0.000263811
8.4887e-08
-6.5114e-09
0.000263806
9.54239e-10
9.76296e-05
-0.000214298
-1.44797e-09
9.66519e-11
-5.54135e-10
2.30861e-08
0.000214276
1.44353e-08
8.04561e-05
8.73908e-09
1.65091e-08
8.04637e-05
1.03776e-08
3.72479e-08
4.13886e-08
-4.90995e-09
8.04596e-05
-1.70971e-09
8.04655e-05
-4.50172e-09
-0.000223418
-3.57372e-09
-1.66957e-09
0.000223427
2.88837e-09
1.38304e-08
-1.00552e-08
0.00027909
5.13502e-08
0.000183168
0.000253603
-5.37561e-08
7.84666e-08
1.59434e-07
4.2963e-09
-2.87379e-08
0.000253626
9.9001e-08
0.000183173
-0.000223487
-1.556e-08
3.58792e-08
2.58298e-08
0.000223464
5.81321e-09
3.17978e-08
-5.86822e-09
-3.16798e-09
0.000279177
5.7714e-08
0.000183215
-6.42039e-08
0.000253759
1.80202e-07
8.61696e-08
1.0663e-07
0.000183204
5.29249e-08
2.83104e-08
0.000253746
-7.61113e-09
9.76332e-05
-0.000143224
1.77272e-09
8.60747e-10
-1.19299e-09
0.000143222
7.38199e-10
-4.62816e-09
-1.17992e-10
1.52512e-08
0.000231398
-3.58632e-08
0.000224861
-7.67874e-10
1.09981e-07
4.97631e-10
0.000171028
2.52748e-11
-8.20106e-10
1.65334e-09
7.66037e-09
0.000224854
-2.05585e-12
0.000171024
-7.90232e-05
-7.55948e-09
7.90296e-05
-7.55856e-09
4.74119e-09
0.000193682
-2.48355e-08
0.000263934
8.48365e-08
-1.58334e-09
0.000263922
-0.00014315
9.63604e-10
-2.90156e-10
-1.16625e-09
0.000143151
-2.54223e-09
3.26459e-10
1.77389e-08
0.000231358
5.24729e-10
0.000170991
-3.78994e-08
0.000224766
-7.49545e-10
1.09868e-07
-7.38242e-10
0.00017099
1.73154e-09
7.6749e-09
0.000224757
-7.89787e-05
-7.50232e-09
7.8985e-05
-7.61412e-09
7.66941e-09
2.67948e-09
0.000193633
-2.48762e-08
0.00026381
8.73281e-08
-4.01956e-09
0.0002638
-7.90224e-05
-9.62977e-09
7.9031e-05
-7.98252e-09
9.18159e-09
0.000193684
-2.69723e-08
0.000263947
8.71855e-08
1.05591e-09
0.00026393
1.09919e-09
9.76206e-05
-0.000214294
-1.5446e-09
-1.63048e-09
1.04394e-08
1.24686e-08
0.000214274
1.44951e-08
8.04526e-05
8.77826e-09
1.4578e-08
8.04691e-05
8.67474e-09
3.92959e-08
3.70004e-08
-3.27887e-09
8.04543e-05
-3.33778e-09
8.04709e-05
1.56913e-08
-0.000223411
-1.26074e-08
1.53666e-08
0.000223403
1.95478e-08
1.02598e-08
-7.70608e-09
0.000279069
5.1477e-08
0.000183164
0.000253597
-6.16114e-08
8.35625e-08
1.69651e-07
1.77626e-08
1.42622e-08
0.0002536
1.01806e-07
0.000183159
-0.000223491
-1.06339e-08
1.563e-08
1.09959e-08
0.000223487
5.34622e-08
0.000183226
-6.14338e-08
0.000253764
1.72406e-07
8.60467e-08
9.81612e-09
1.72195e-08
-3.33719e-09
0.000279193
-7.81374e-09
1.06229e-07
0.000183221
1.16267e-08
0.000253771
1.50131e-08
9.76333e-05
-7.62933e-09
-3.79291e-08
-8.22358e-10
1.09947e-07
0.000224867
5.07481e-10
0.000171029
-9.89275e-10
0.000143225
-2.69501e-08
8.72309e-08
0.000263945
7.90223e-05
3.68486e-07
3.69142e-07
0.00117039
3.9729e-07
8.98821e-09
0.00118055
4.03086e-07
2.97586e-10
0.00118103
5.16809e-09
-2.7023e-09
0.00119174
3.51469e-07
3.23305e-07
0.00117019
3.85683e-07
0.00118049
3.91658e-07
-2.32103e-08
0.00118098
-1.10585e-08
0.00119171
3.74181e-07
3.69052e-07
0.00117002
4.0284e-07
0.00118015
4.02941e-07
6.0802e-09
0.00118061
3.86276e-09
0.00119111
3.68519e-07
3.69046e-07
0.00117001
4.02757e-07
0.0011802
4.03006e-07
0.00118067
0.00119113
-0.000245952
-5.1038e-08
-4.88305e-08
0.000246076
1.55051e-07
1.62816e-07
0.000275425
-2.16588e-07
0.000265112
-2.14402e-07
0.000265538
0.000265399
0.000265827
-0.000271121
1.09692e-07
2.00775e-08
-3.72607e-08
0.000271873
-4.60354e-09
-8.22528e-08
9.3598e-10
0.000254915
3.50107e-07
0.000253619
-1.26929e-08
-1.71292e-08
0.000271624
9.70697e-10
-3.69441e-08
-6.61876e-09
0.000253739
3.42796e-09
0.000272211
-3.20867e-08
-0.000269192
1.12565e-07
0.000269854
-3.80767e-08
-1.69548e-09
0.000247722
3.04338e-07
0.000254016
0.000264515
5.34639e-08
0.000264573
0.000254116
-0.000271061
1.14852e-07
1.688e-08
-2.95571e-08
0.000271812
-3.36332e-09
-8.48323e-08
0.000254888
3.52503e-07
0.000253538
-1.26913e-08
-1.89485e-08
0.000271616
-3.967e-08
-1.67705e-09
0.000253656
0.000272208
-0.000269117
1.20285e-07
-2.72641e-08
0.000269785
-1.63534e-09
-5.00893e-08
0.000247637
3.04203e-07
0.000253914
4.83866e-08
0.000264435
0.000254024
0.000264495
-7.4276e-08
-0.000245934
-3.11297e-08
0.000246064
1.5726e-07
1.68283e-07
0.000275417
0.000265478
-2.06411e-07
-2.19298e-07
0.000265138
0.000265718
0.00026548
-0.000271116
1.12184e-07
1.62685e-08
-2.40442e-08
0.000271856
-3.65203e-09
-8.2211e-08
-9.49203e-10
0.000254903
3.55324e-07
0.000253607
-1.27689e-08
-2.01955e-08
0.000271624
7.2822e-09
-5.01173e-08
-6.71195e-09
0.00025373
-5.74743e-09
0.000272217
-3.20494e-08
-0.000269199
1.15347e-07
0.000269869
-3.82308e-08
7.88899e-10
0.000247685
3.06801e-07
0.000253999
0.000264502
5.33392e-08
0.00026456
0.000254106
-0.000271053
1.96279e-08
1.12239e-07
-3.73184e-08
0.000271803
-8.21785e-08
-4.35619e-09
0.000254879
-1.83689e-08
0.000271605
3.52586e-07
0.000253529
-1.26769e-08
-3.68587e-08
0.000272189
-6.62426e-09
0.000253651
-0.000269111
1.17674e-07
-3.46619e-08
0.00026977
8.52183e-10
-4.04666e-08
0.000247616
3.09374e-07
0.000253903
5.08132e-08
0.000264424
0.000254011
0.000264477
-0.000269204
-3.68522e-08
1.07673e-07
0.000269873
-2.85527e-08
3.07713e-09
0.000247708
3.12024e-07
0.000254015
5.32164e-08
0.000264529
0.000264578
0.00025412
-5.11745e-08
-0.000245939
-4.87688e-08
0.000246066
1.57753e-07
1.62748e-07
0.0002754
0.000265483
-2.16785e-07
-2.14042e-07
0.000265127
0.000265772
0.000265419
-1.83915e-08
0.000271615
3.55272e-07
-1.51913e-08
0.000253613
-4.75154e-08
0.000271115
3.06721e-07
0.000254015
5.33512e-08
0.000264532
0.000269198
2.43763e-08
9.75473e-05
-9.75737e-05
2.00371e-09
2.41766e-08
2.00481e-09
9.75391e-05
-9.75653e-05
1.41654e-06
-0.00027524
1.43541e-06
-3.96992e-07
-3.36035e-07
0.000273121
-3.97594e-09
4.74018e-08
0.000278832
-0.000278871
1.97533e-08
2.43371e-08
-9.37104e-09
1.09576e-07
0.000278782
-0.000278883
3.07935e-10
-1.43791e-10
-3.65859e-08
0.000231067
-0.000231139
1.0905e-07
6.70521e-08
-1.29053e-08
0.000193467
-0.000193519
1.20571e-06
-0.000271558
1.77117e-08
-3.41836e-07
0.000270726
-4.93876e-08
3.03985e-07
-0.00114745
-3.94574e-07
1.16128e-06
1.59207e-07
-1.08476e-06
-4.2531e-07
7.80619e-07
1.00632e-07
0.00114764
6.27099e-07
-0.00024741
2.13288e-07
1.43097e-08
0.000247273
-8.79995e-10
-0.00115805
-1.03428e-06
8.50783e-07
6.60448e-07
0.00115835
7.29652e-07
-3.86531e-08
0.000231028
-6.29151e-11
-0.000231101
1.11462e-07
1.03433e-06
-0.000271915
-6.16369e-09
-3.36159e-07
-1.69101e-08
0.00027124
-0.00115807
-1.20293e-06
8.50838e-07
6.60466e-07
-3.26407e-07
0.00115839
7.29545e-07
2.15469e-09
-7.51376e-09
9.75527e-05
2.31268e-09
-7.53493e-09
9.75443e-05
-9.08534e-10
-9.06596e-10
-0.000214043
-5.3788e-10
1.88722e-08
0.000214027
8.03869e-05
1.56578e-08
5.11375e-09
-8.04077e-05
8.0373e-05
1.17194e-08
1.33813e-08
-8.03981e-05
-5.09538e-09
8.03911e-05
-1.87101e-09
8.03739e-05
-2.37729e-08
9.73747e-08
-0.000214089
-5.38801e-09
-0.000223174
7.26924e-10
-1.19979e-09
0.000223179
0.000183009
2.92039e-08
-0.000183037
-1.26429e-08
0.000253335
-0.000253378
3.0658e-08
7.2095e-08
1.18623e-08
8.39646e-09
-1.11012e-08
0.000278825
0.000183011
-0.000223233
5.13744e-08
-2.29183e-08
3.5211e-09
0.000253363
-1.47547e-08
2.5024e-08
-0.00022313
2.11638e-08
0.000223118
0.000182965
6.77695e-08
-0.000183028
0.000253259
-1.03834e-07
-0.000253435
2.97892e-07
9.19295e-08
8.55698e-09
2.50714e-08
-6.40585e-09
0.000278757
0.000182957
3.8188e-08
1.91876e-08
0.000253251
-0.000223216
1.46925e-07
4.6776e-10
5.62815e-10
-0.000143085
-6.93732e-10
0.000143085
0.000224553
-3.4178e-08
1.00314e-11
-0.000224623
1.03979e-07
0.000170862
9.45309e-10
4.33505e-11
-0.0001709
7.92208e-10
-2.78773e-09
2.47489e-11
1.21852e-08
0.000231057
2.36163e-09
3.37281e-09
0.000224549
1.83373e-11
0.00017086
-3.5246e-10
-0.000143118
-7.73308e-09
-7.89499e-05
7.89569e-05
0.000263611
-2.42019e-08
-0.000263685
8.52249e-08
-7.99958e-09
2.98329e-09
0.000193464
-7.48571e-09
0.000263606
-7.89744e-05
4.85694e-10
-1.4974e-09
-0.000143012
0.000143014
-6.57824e-10
0.000170826
9.94325e-10
-0.000170866
-6.69747e-10
8.57518e-10
1.22388e-08
0.000231016
0.000224457
-3.6137e-08
-0.000224527
1.06324e-07
7.79061e-11
0.000170826
3.35332e-09
0.00022445
2.44759e-09
-0.000143047
-2.61059e-10
-6.49398e-07
-6.49368e-07
3.77926e-07
3.55714e-07
0.00117096
-5.5688e-10
0.000254793
-1.38294e-08
-5.63789e-09
-8.41958e-08
-0.000254689
0.000254767
-1.62006e-08
-3.63369e-09
-8.67917e-08
-0.000254661
0.000247587
5.65897e-09
-4.27424e-09
4.5929e-10
-3.91824e-08
-0.00024755
1.39044e-08
0.000231272
2.49332e-11
-2.06815e-09
2.55146e-10
-0.000231284
0.000254753
-8.00749e-11
-8.41221e-08
-5.36465e-09
-0.000254649
0.00114735
1.15463e-06
2.97298e-07
6.44749e-07
1.52735e-07
-1.43222e-06
-4.17095e-07
-1.10742e-06
9.28686e-08
-4.56917e-07
7.73413e-07
7.50208e-07
1.99472e-08
-3.48062e-07
-1.2179e-06
6.51997e-07
-1.04709e-06
8.45951e-07
0.0011573
0.000231271
7.23835e-11
1.62469e-08
-4.13968e-09
2.57662e-10
-0.000231283
0.000275335
-1.20399e-06
-1.166e-06
1.59348e-07
-0.000273289
1.64353e-07
7.38504e-07
-3.35481e-07
-8.05453e-09
0.00115721
-1.20975e-06
6.49073e-07
8.40183e-07
-1.04162e-06
1.16889e-06
3.62627e-07
-1.38492e-06
1.75534e-07
-3.61004e-07
6.60364e-07
0.00114687
-1.06926e-06
1.26388e-07
-3.53838e-07
7.86794e-07
-1.19804e-06
1.64776e-07
-0.00027328
1.63875e-07
0.000275318
-7.66396e-09
3.19293e-09
-9.75949e-05
9.75994e-05
1.40654e-06
1.44159e-06
-3.67529e-07
0.000273227
-3.72359e-07
1.507e-07
-7.3417e-07
-2.70848e-07
-0.00118237
3.9183e-07
0.00118283
3.24868e-07
0.00114738
-1.40699e-06
6.41836e-07
7.91115e-07
-4.02445e-07
-1.08457e-06
1.33528e-07
-3.8643e-07
1.17548e-06
1.82361e-07
1.12355e-09
-1.14956e-07
-5.21202e-09
3.4348e-07
0.000254568
-1.12461e-07
-6.06449e-09
3.43447e-07
0.000254544
-6.64024e-08
-2.02651e-08
1.51818e-08
2.05488e-07
0.000247453
1.14941e-07
-3.35374e-11
-3.97728e-08
1.17603e-10
0.000231196
5.65593e-10
3.43511e-07
-4.90341e-09
0.000254528
4.22988e-11
1.12553e-07
-3.77116e-08
-7.14741e-11
0.000231196
-7.38848e-07
0.00118121