/*--------------------------------*- C++ -*----------------------------------*\
| =========                 |                                                 |
| \\      /  F ield         | OpenFOAM: The Open Source CFD Toolbox           |
|  \\    /   O peration     | Version:  v2006                                 |
|   \\  /    A nd           | Website:  www.openfoam.com                      |
|    \\/     M anipulation  |                                                 |
\*---------------------------------------------------------------------------*/
FoamFile
{
    version     2.0;
    format      ascii;
    class       volVectorField;
    location    "375";
    object      U;
}
// * * * * * * * * * * * * * * * * * * * * * * * * * * * * * * * * * * * * * //

dimensions      [0 1 -1 0 0 0 0];


internalField   nonuniform List<vector> 
14310
(
(-9.49714e-05 5.88143e-05 0.108152)
(-0.000154138 -0.000154114 0.106644)
(5.78962e-05 5.79115e-05 0.109515)
(-9.25637e-05 5.7813e-05 0.108311)
(5.77718e-05 -9.25113e-05 0.108311)
(-0.000149473 -0.000149468 0.106643)
(5.63855e-05 5.63953e-05 0.109794)
(-8.993e-05 5.67306e-05 0.108451)
(5.67024e-05 -8.98887e-05 0.108451)
(-0.000144429 -0.000144449 0.106619)
(5.49196e-05 5.49275e-05 0.110064)
(-8.70933e-05 5.55102e-05 0.108573)
(5.55099e-05 -8.70654e-05 0.108572)
(-0.000139021 -0.000139041 0.106575)
(5.35486e-05 5.35598e-05 0.110324)
(-8.40977e-05 5.41476e-05 0.108675)
(5.41192e-05 -8.40673e-05 0.108675)
(-0.000133159 -0.000133183 0.106515)
(5.22292e-05 5.2239e-05 0.110574)
(-8.09891e-05 5.26174e-05 0.10876)
(5.25297e-05 -8.09373e-05 0.108759)
(-0.000127232 -0.000127261 0.10644)
(5.0995e-05 5.09973e-05 0.110813)
(-7.77259e-05 5.08459e-05 0.108827)
(5.08133e-05 -7.76874e-05 0.108827)
(-0.000121374 -0.000121412 0.106355)
(-0.000154143 0.000154048 0.106644)
(1.07155e-05 -1.06648e-05 0.10683)
(-9.50571e-05 -5.89476e-05 0.108151)
(-9.31418e-05 5.8014e-05 0.108273)
(-9.32435e-05 -5.81633e-05 0.108272)
(1.06767e-05 1.07907e-05 0.106828)
(0.000149355 0.000149351 0.106643)
(-1.27699e-05 -1.26945e-05 0.106817)
(5.79088e-05 9.26112e-05 0.10831)
(-5.79106e-05 9.26216e-05 0.10831)
(5.71037e-05 9.06657e-05 0.108417)
(-5.70629e-05 9.06443e-05 0.108417)
(-0.000149224 0.000149171 0.106643)
(1.29554e-05 -1.28593e-05 0.106818)
(9.25383e-05 5.78109e-05 0.108311)
(9.26028e-05 -5.78704e-05 0.10831)
(9.05773e-05 5.70225e-05 0.108418)
(9.06708e-05 -5.7109e-05 0.108417)
(-9.26087e-05 -5.79064e-05 0.10831)
(-9.05845e-05 5.69639e-05 0.108418)
(-9.06688e-05 -5.712e-05 0.108417)
(0.000149378 -0.00014941 0.106643)
(-1.27202e-05 1.27971e-05 0.106817)
(-5.7789e-05 -9.25103e-05 0.108311)
(5.70059e-05 -9.05833e-05 0.108418)
(-5.70139e-05 -9.05768e-05 0.108417)
(1.26953e-05 1.27988e-05 0.106816)
(0.000144357 0.00014434 0.106619)
(-1.47075e-05 -1.46411e-05 0.106783)
(5.67957e-05 8.99777e-05 0.10845)
(-5.68278e-05 8.9992e-05 0.10845)
(5.5967e-05 8.78964e-05 0.108543)
(-5.59273e-05 8.78732e-05 0.108542)
(-0.000144043 0.000144035 0.106619)
(1.49414e-05 -1.48346e-05 0.106784)
(8.9883e-05 5.66947e-05 0.108451)
(8.99773e-05 -5.68016e-05 0.10845)
(8.77989e-05 5.58835e-05 0.108544)
(8.78985e-05 -5.59478e-05 0.108542)
(-8.99618e-05 -5.67988e-05 0.10845)
(-8.78121e-05 5.58246e-05 0.108544)
(-8.79058e-05 -5.59693e-05 0.108543)
(0.000144295 -0.000144333 0.106619)
(-1.47092e-05 1.47975e-05 0.106783)
(-5.66787e-05 -8.98659e-05 0.108451)
(5.58543e-05 -8.77996e-05 0.108544)
(-5.58738e-05 -8.78149e-05 0.108543)
(1.46695e-05 1.47736e-05 0.106783)
(0.000138979 0.000138959 0.106576)
(-1.67353e-05 -1.66758e-05 0.106731)
(5.55828e-05 8.71458e-05 0.108572)
(-5.56124e-05 8.7154e-05 0.108571)
(5.46696e-05 8.49696e-05 0.10865)
(-5.46162e-05 8.49385e-05 0.10865)
(-0.000138749 0.000138732 0.106575)
(1.69058e-05 -1.67784e-05 0.106731)
(8.70412e-05 5.54712e-05 0.108572)
(8.71646e-05 -5.5603e-05 0.108571)
(8.48684e-05 5.45904e-05 0.108651)
(8.49443e-05 -5.45908e-05 0.10865)
(-8.71566e-05 -5.56352e-05 0.108571)
(-8.48627e-05 5.45224e-05 0.108651)
(-8.49211e-05 -5.45689e-05 0.10865)
(0.000138913 -0.000138941 0.106575)
(-1.6708e-05 1.68072e-05 0.106731)
(-5.55151e-05 -8.70512e-05 0.108572)
(5.45119e-05 -8.48334e-05 0.108651)
(-5.44784e-05 -8.48332e-05 0.108651)
(1.68325e-05 1.6931e-05 0.10673)
(0.000133328 0.000133315 0.106515)
(-1.8852e-05 -1.88042e-05 0.106663)
(5.42466e-05 8.4182e-05 0.108674)
(-5.42389e-05 8.41681e-05 0.108674)
(5.31268e-05 8.18732e-05 0.108739)
(-5.31262e-05 8.1853e-05 0.108738)
(-0.000133172 0.000133166 0.106515)
(1.89095e-05 -1.8796e-05 0.106663)
(8.40662e-05 5.41297e-05 0.108675)
(8.41768e-05 -5.41985e-05 0.108674)
(8.17762e-05 5.30566e-05 0.10874)
(8.18417e-05 -5.30846e-05 0.108739)
(-8.41712e-05 -5.42448e-05 0.108674)
(-8.17869e-05 5.30227e-05 0.10874)
(-8.18272e-05 -5.30307e-05 0.108739)
(0.00013319 -0.000133206 0.106515)
(-1.87197e-05 1.8799e-05 0.106662)
(-5.41207e-05 -8.40659e-05 0.108674)
(5.29952e-05 -8.17478e-05 0.10874)
(-5.29429e-05 -8.17437e-05 0.10874)
(1.89084e-05 1.90079e-05 0.106662)
(0.000127431 0.00012742 0.10644)
(-2.09151e-05 -2.08829e-05 0.106582)
(5.27178e-05 8.10742e-05 0.108759)
(-5.27116e-05 8.10459e-05 0.108758)
(5.13906e-05 7.86322e-05 0.10881)
(-5.14071e-05 7.8624e-05 0.10881)
(-0.000127385 0.000127374 0.10644)
(2.09835e-05 -2.08696e-05 0.106582)
(8.09533e-05 5.25912e-05 0.108759)
(8.10314e-05 -5.2619e-05 0.108758)
(7.85394e-05 5.13286e-05 0.108812)
(7.86336e-05 -5.14264e-05 0.10881)
(-8.10442e-05 -5.26604e-05 0.108759)
(-7.85552e-05 5.12937e-05 0.108811)
(-7.86143e-05 -5.13649e-05 0.10881)
(0.000127321 -0.000127354 0.10644)
(-2.07412e-05 2.08126e-05 0.106581)
(-5.25246e-05 -8.09274e-05 0.108759)
(5.13291e-05 -7.85385e-05 0.108811)
(-5.12866e-05 -7.85432e-05 0.108811)
(2.08787e-05 2.0978e-05 0.106581)
(0.000121462 0.000121457 0.106355)
(5.09588e-05 7.78165e-05 0.108826)
(-5.09474e-05 7.77785e-05 0.108825)
(-4.95304e-05 7.52897e-05 0.108864)
(-0.000121451 0.000121453 0.106354)
(2.29769e-05 -2.28926e-05 0.106491)
(7.76904e-05 5.08077e-05 0.108826)
(7.77767e-05 -5.09111e-05 0.108825)
(-7.78016e-05 -5.09536e-05 0.108826)
(-7.52187e-05 4.94349e-05 0.108866)
(-7.52357e-05 -4.94145e-05 0.108864)
(0.000121447 -0.000121481 0.106355)
(-5.07955e-05 -7.76802e-05 0.108826)
(-4.93646e-05 -7.51853e-05 0.108866)
(2.29039e-05 2.29917e-05 0.10649)
(-2.04648e-06 6.43576e-06 0.0720244)
(3.35101e-06 -1.88227e-06 0.0720316)
(-5.49896e-05 3.44884e-06 0.102189)
(-5.63857e-05 1.47306e-05 0.0954299)
(-9.98798e-05 1.80396e-05 0.108878)
(-9.43805e-05 5.8607e-05 0.108194)
(-2.49266e-05 3.84637e-06 0.0954274)
(-9.95983e-05 1.7947e-05 0.10894)
(-9.79341e-05 3.86868e-06 0.102184)
(-2.63919e-05 -1.18605e-05 0.0891479)
(-1.18168e-05 -2.64287e-05 0.0891465)
(-0.000153206 -0.000153182 0.106646)
(-1.61193e-05 -1.74634e-07 0.0891225)
(-1.6517e-07 -1.6118e-05 0.0891199)
(1.16582e-06 1.44656e-05 0.0934453)
(-9.69817e-07 1.69503e-05 0.0831667)
(1.34545e-06 3.59783e-05 0.0934842)
(-3.36011e-06 -1.89212e-06 0.0831572)
(-2.22236e-06 6.21978e-06 0.0718875)
(3.29784e-06 -1.87229e-06 0.0718981)
(1.44376e-05 1.19209e-06 0.0934445)
(1.69641e-05 -9.87243e-07 0.0831669)
(3.60102e-05 1.33984e-06 0.0934844)
(-1.89306e-06 -3.36655e-06 0.0831572)
(-2.10846e-05 2.10727e-05 0.10997)
(6.1241e-05 -2.06807e-05 0.109804)
(-2.1093e-05 -2.10903e-05 0.10997)
(5.67694e-05 5.67792e-05 0.109725)
(-5.67381e-05 5.6745e-05 0.109725)
(5.67638e-05 -5.67664e-05 0.109725)
(-5.67815e-05 -5.67634e-05 0.109725)
(-4.85724e-05 2.85346e-06 0.101917)
(-5.22272e-05 1.37168e-05 0.0951596)
(-9.87407e-05 1.75448e-05 0.109122)
(-9.19441e-05 5.76117e-05 0.108348)
(-9.03782e-05 3.24888e-06 0.101913)
(-2.14434e-05 2.7384e-06 0.0951617)
(-9.84304e-05 1.74957e-05 0.109181)
(6.26064e-06 -2.12e-06 0.0718869)
(-1.94406e-06 3.14185e-06 0.0718976)
(2.88218e-06 -4.86181e-05 0.101918)
(1.76102e-05 -9.87272e-05 0.109122)
(3.9302e-05 -0.0001548 0.10239)
(5.75229e-05 -9.18885e-05 0.108348)
(2.07857e-05 -0.000188705 0.105767)
(1.74983e-05 -9.84191e-05 0.109181)
(2.71059e-06 -2.16354e-05 0.095162)
(-2.43173e-05 -1.09355e-05 0.0889185)
(-1.09185e-05 -2.43185e-05 0.0889171)
(1.16349e-05 1.1714e-05 0.106825)
(-1.41337e-05 2.30167e-09 0.0888997)
(1.86461e-08 -1.41334e-05 0.0888971)
(8.54562e-07 1.20335e-05 0.0932006)
(-1.04731e-06 1.62012e-05 0.0829853)
(1.05712e-06 3.30123e-05 0.0932307)
(-3.32309e-06 -2.25054e-06 0.0829815)
(-2.19288e-06 6.13438e-06 0.0717632)
(3.15081e-06 -1.89501e-06 0.0717768)
(1.19978e-05 8.80654e-07 0.0931998)
(1.62e-05 -1.06538e-06 0.0829856)
(3.30392e-05 1.05135e-06 0.0932311)
(-2.26688e-06 -3.32502e-06 0.0829816)
(-5.63462e-05 5.63543e-05 0.109794)
(5.63874e-05 -5.63868e-05 0.109794)
(-5.64163e-05 -5.63958e-05 0.109794)
(5.52963e-05 5.53021e-05 0.109998)
(-5.52606e-05 5.52644e-05 0.109997)
(5.52851e-05 -5.52822e-05 0.109997)
(-5.52941e-05 -5.52769e-05 0.109997)
(-4.26135e-05 2.42604e-06 0.10165)
(-4.84932e-05 1.27e-05 0.0949096)
(-9.74162e-05 1.71658e-05 0.109352)
(-8.9253e-05 5.6488e-05 0.108483)
(-8.3211e-05 2.70884e-06 0.101645)
(-1.86086e-05 1.81938e-06 0.0949157)
(-9.70461e-05 1.71148e-05 0.109408)
(6.17634e-06 -2.06219e-06 0.0717625)
(-1.95533e-06 3.03132e-06 0.0717763)
(2.43792e-06 -4.26552e-05 0.101651)
(1.72329e-05 -9.74077e-05 0.109352)
(1.25089e-05 -4.84557e-05 0.094909)
(5.64136e-05 -8.92028e-05 0.108483)
(2.73245e-06 -8.31771e-05 0.101644)
(1.71328e-05 -9.7035e-05 0.109408)
(1.88669e-06 -1.87493e-05 0.094916)
(-2.25026e-05 -1.03252e-05 0.0887097)
(-1.02941e-05 -2.24932e-05 0.0887084)
(1.3856e-05 1.39373e-05 0.106802)
(-1.23084e-05 2.8123e-07 0.0886968)
(2.87629e-07 -1.2313e-05 0.0886942)
(6.25197e-07 1.00129e-05 0.092979)
(-1.17833e-06 1.56234e-05 0.0828214)
(8.04421e-07 3.04906e-05 0.0930018)
(-3.39241e-06 -2.49804e-06 0.0828226)
(-2.13569e-06 6.05643e-06 0.0716502)
(2.99205e-06 -1.91355e-06 0.0716666)
(9.97838e-06 6.46194e-07 0.0929782)
(1.56193e-05 -1.1922e-06 0.0828216)
(3.05174e-05 8.10523e-07 0.0930022)
(-2.51687e-06 -3.3967e-06 0.0828228)
(-5.48992e-05 5.49023e-05 0.110064)
(5.49253e-05 -5.49207e-05 0.110064)
(-5.49536e-05 -5.49339e-05 0.110064)
(5.38809e-05 5.38869e-05 0.11026)
(-5.38484e-05 5.3863e-05 0.11026)
(5.38832e-05 -5.38674e-05 0.11026)
(-5.3852e-05 -5.38366e-05 0.11026)
(-3.71012e-05 2.02067e-06 0.101393)
(-4.52999e-05 1.15516e-05 0.0946788)
(-9.5833e-05 1.6845e-05 0.109568)
(-8.6366e-05 5.519e-05 0.1086)
(-7.6524e-05 2.27078e-06 0.101386)
(-1.6183e-05 1.10801e-06 0.0946886)
(-9.53962e-05 1.67727e-05 0.10962)
(6.07664e-06 -2.06214e-06 0.0716494)
(-1.9414e-06 2.95209e-06 0.0716661)
(2.01924e-06 -3.71126e-05 0.101393)
(1.68999e-05 -9.5818e-05 0.109568)
(1.14327e-05 -4.52848e-05 0.0946782)
(5.51753e-05 -8.63279e-05 0.1086)
(2.29456e-06 -7.65007e-05 0.101385)
(1.68063e-05 -9.53745e-05 0.10962)
(1.19542e-06 -1.62419e-05 0.0946889)
(-2.08075e-05 -9.81122e-06 0.0885196)
(-9.7707e-06 -2.07862e-05 0.0885184)
(1.58548e-05 1.59454e-05 0.106759)
(-1.0758e-05 6.9413e-07 0.0885118)
(7.21621e-07 -1.07544e-05 0.0885091)
(4.01006e-07 8.35807e-06 0.0927778)
(-1.35166e-06 1.51663e-05 0.0826731)
(5.74124e-07 2.83794e-05 0.0927944)
(-3.52874e-06 -2.66749e-06 0.0826786)
(-2.10559e-06 5.96747e-06 0.0715477)
(2.85387e-06 -1.92557e-06 0.0715666)
(8.32625e-06 4.18375e-07 0.0927771)
(1.51582e-05 -1.35899e-06 0.0826733)
(2.84103e-05 5.97827e-07 0.0927947)
(-2.68465e-06 -3.53239e-06 0.0826789)
(-5.35208e-05 5.35337e-05 0.110324)
(5.35295e-05 -5.35134e-05 0.110324)
(-5.35357e-05 -5.35158e-05 0.110324)
(5.25348e-05 5.25424e-05 0.110512)
(-5.25206e-05 5.25291e-05 0.110512)
(5.25503e-05 -5.25444e-05 0.110512)
(-5.25244e-05 -5.25101e-05 0.110512)
(-3.20982e-05 1.69844e-06 0.101147)
(-4.25331e-05 1.05184e-05 0.0944659)
(-9.39844e-05 1.6577e-05 0.10977)
(-8.33309e-05 5.37448e-05 0.108698)
(-7.04044e-05 1.95528e-06 0.101137)
(-1.40751e-05 4.48645e-07 0.0944793)
(-9.34904e-05 1.64813e-05 0.109817)
(5.96638e-06 -2.10211e-06 0.0715467)
(-1.91356e-06 2.87845e-06 0.0715662)
(1.64964e-06 -3.21097e-05 0.101147)
(1.65974e-05 -9.397e-05 0.109769)
(1.05232e-05 -4.2532e-05 0.0944653)
(5.37635e-05 -8.33136e-05 0.108698)
(1.94383e-06 -7.03889e-05 0.101136)
(1.65021e-05 -9.3474e-05 0.109817)
(5.31969e-07 -1.40902e-05 0.0944796)
(-1.91991e-05 -9.40981e-06 0.0883464)
(-9.36831e-06 -1.91829e-05 0.0883454)
(1.78168e-05 1.79047e-05 0.106698)
(-9.36645e-06 1.11569e-06 0.0883432)
(1.16365e-06 -9.3779e-06 0.0883404)
(1.99663e-07 6.92378e-06 0.0925945)
(-1.48527e-06 1.47621e-05 0.0825388)
(3.48458e-07 2.65571e-05 0.0926059)
(-3.70266e-06 -2.80307e-06 0.0825482)
(-2.09191e-06 5.88347e-06 0.0714547)
(2.7619e-06 -1.93182e-06 0.071476)
(6.90122e-06 2.1025e-07 0.0925941)
(1.47528e-05 -1.49536e-06 0.082539)
(2.65886e-05 3.83017e-07 0.092606)
(-2.81552e-06 -3.71376e-06 0.0825485)
(-5.2223e-05 5.22305e-05 0.110574)
(5.22147e-05 -5.2207e-05 0.110574)
(-5.22122e-05 -5.21954e-05 0.110574)
(5.12788e-05 5.12875e-05 0.110754)
(-5.12676e-05 5.12689e-05 0.110754)
(5.1291e-05 -5.12925e-05 0.110754)
(-5.12887e-05 -5.1272e-05 0.110754)
(-2.75768e-05 1.4288e-06 0.100914)
(-4.00912e-05 9.63247e-06 0.0942699)
(-9.18784e-05 1.62937e-05 0.109956)
(-8.01766e-05 5.21449e-05 0.108778)
(-6.48718e-05 1.64699e-06 0.100901)
(-1.22668e-05 -2.31134e-07 0.0942867)
(-9.13031e-05 1.61988e-05 0.11)
(5.849e-06 -2.13069e-06 0.0714536)
(-1.90805e-06 2.76633e-06 0.0714758)
(1.37425e-06 -2.75929e-05 0.100914)
(1.6303e-05 -9.18656e-05 0.109955)
(9.63115e-06 -4.01435e-05 0.0942693)
(5.2128e-05 -8.01525e-05 0.108778)
(1.65461e-06 -6.48972e-05 0.1009)
(1.62025e-05 -9.12924e-05 0.109999)
(-1.24073e-07 -1.22613e-05 0.094287)
(-1.78032e-05 -8.96569e-06 0.0881886)
(-8.93948e-06 -1.7769e-05 0.0881878)
(1.98456e-05 1.99351e-05 0.106623)
(-8.07968e-06 1.41968e-06 0.0881896)
(1.46884e-06 -8.0924e-06 0.0881867)
(-1.05829e-08 5.61975e-06 0.0924271)
(-1.6138e-06 1.43711e-05 0.0824171)
(1.30254e-07 2.49098e-05 0.0924342)
(-3.8354e-06 -2.95371e-06 0.0824299)
(-2.11686e-06 5.7634e-06 0.0713706)
(2.64793e-06 -1.94571e-06 0.0713941)
(5.60569e-06 -5.87704e-09 0.0924269)
(1.43617e-05 -1.63189e-06 0.0824174)
(2.49259e-05 1.58215e-07 0.0924341)
(-2.96208e-06 -3.85609e-06 0.0824303)
(-5.09876e-05 5.09857e-05 0.110814)
(5.09928e-05 -5.09921e-05 0.110813)
(-5.09963e-05 -5.09877e-05 0.110813)
(-5.0084e-05 5.00924e-05 0.110986)
(-5.00907e-05 -5.00594e-05 0.110986)
(-2.35277e-05 1.18809e-06 0.100695)
(-3.79533e-05 8.81424e-06 0.0940897)
(-8.94648e-05 1.59582e-05 0.110126)
(-7.68774e-05 5.03145e-05 0.108841)
(-5.98738e-05 1.36e-06 0.100679)
(-1.06699e-05 -8.73625e-07 0.0941097)
(-8.88167e-05 1.58621e-05 0.110166)
(5.71206e-06 -2.13825e-06 0.0713692)
(-1.92777e-06 2.5999e-06 0.0713942)
(1.13622e-06 -2.35469e-05 0.100695)
(1.60021e-05 -8.94468e-05 0.110126)
(8.7814e-06 -3.8003e-05 0.0940892)
(5.03091e-05 -7.68528e-05 0.108841)
(1.38024e-06 -5.98918e-05 0.100679)
(1.59001e-05 -8.88043e-05 0.110166)
(-7.87919e-07 -1.06804e-05 0.0941098)
(-1.6557e-05 -8.47736e-06 0.0880448)
(-8.44372e-06 -1.6526e-05 0.0880443)
(2.18467e-05 2.19258e-05 0.106536)
(-6.96054e-06 1.69774e-06 0.0880499)
(1.74183e-06 -6.97819e-06 0.0880467)
(-1.20281e-05 2.66157e-05 0.0891469)
(-2.66454e-05 1.20136e-05 0.0891493)
(-0.000152823 0.000152772 0.106646)
(-1.83002e-07 1.59009e-05 0.0891202)
(-1.58766e-05 1.79222e-07 0.0891217)
(-6.42877e-06 2.04307e-06 0.0720244)
(1.8765e-06 -3.32674e-06 0.0720314)
(3.1086e-06 -2.01355e-06 0.0719633)
(-1.92682e-06 6.4165e-06 0.0719543)
(9.9668e-06 -9.91245e-06 0.106829)
(-2.64076e-07 1.50434e-05 0.0890063)
(-1.50605e-05 2.64089e-07 0.0890078)
(-1.11805e-05 2.54201e-05 0.0890295)
(-2.54192e-05 1.11561e-05 0.0890318)
(2.01744e-06 -3.09812e-06 0.071963)
(-6.41312e-06 1.92994e-06 0.0719543)
(-1.74509e-05 1.47275e-06 0.093715)
(-1.80916e-05 -1.08318e-06 0.0833677)
(1.17508e-06 -3.38768e-06 0.0833521)
(-3.96422e-05 1.63082e-06 0.0937655)
(-5.49789e-05 -3.55534e-06 0.102189)
(-9.98822e-05 -1.81596e-05 0.108878)
(-5.61858e-05 -1.50844e-05 0.095429)
(-9.44102e-05 -5.86415e-05 0.108193)
(-9.95957e-05 -1.8007e-05 0.10894)
(-2.51063e-05 -3.49411e-06 0.0954271)
(-9.79467e-05 -3.7511e-06 0.102184)
(-1.74391e-05 -1.52085e-06 0.0937147)
(-1.8155e-05 1.01566e-06 0.0833677)
(1.23612e-06 3.49321e-06 0.0833516)
(-3.96525e-05 -1.58479e-06 0.0937655)
(-9.40554e-05 3.44476e-06 0.102049)
(-9.37576e-05 5.83242e-05 0.108234)
(-2.34179e-05 3.01057e-06 0.0952918)
(-9.90332e-05 1.76623e-05 0.109062)
(-5.40404e-05 1.42959e-05 0.0952924)
(-9.93248e-05 1.78415e-05 0.109002)
(-5.17659e-05 3.27395e-06 0.102053)
(-3.77253e-05 1.4832e-06 0.0936216)
(1.62167e-06 -3.35214e-06 0.0832524)
(-1.74539e-05 -1.0916e-06 0.0832648)
(-1.58685e-05 1.36025e-06 0.0935761)
(-9.40774e-05 -3.56958e-06 0.102049)
(-9.38268e-05 -5.83795e-05 0.108233)
(-9.90344e-05 -1.77648e-05 0.109062)
(-2.31543e-05 -3.35966e-06 0.0952918)
(-9.93212e-05 -1.78546e-05 0.109001)
(-5.43301e-05 -1.41081e-05 0.0952912)
(-5.17751e-05 -3.13695e-06 0.102052)
(-3.77422e-05 -1.46574e-06 0.0936216)
(1.57379e-06 3.30335e-06 0.083252)
(-1.7429e-05 1.02988e-06 0.0832647)
(-1.58531e-05 -1.30695e-06 0.0935758)
(-6.4974e-06 -2.00227e-06 0.0720241)
(1.91351e-06 3.33002e-06 0.0720318)
(-2.00147e-06 -6.47555e-06 0.0720242)
(3.33348e-06 1.91939e-06 0.0720313)
(1.01323e-05 1.02327e-05 0.106828)
(-1.48549e-05 -6.94562e-08 0.0890086)
(-5.13558e-08 -1.48544e-05 0.0890059)
(-2.55368e-05 -1.15893e-05 0.0890306)
(-1.16004e-05 -2.55314e-05 0.0890291)
(1.93352e-06 3.19778e-06 0.0719634)
(-6.31383e-06 -2.1131e-06 0.071954)
(3.22417e-06 1.92242e-06 0.071963)
(-2.10922e-06 -6.30936e-06 0.071954)
(2.08989e-06 6.3053e-06 0.0718876)
(-3.12455e-06 -1.98719e-06 0.0718978)
(6.31679e-06 2.06963e-06 0.0718868)
(-1.97517e-06 -3.14514e-06 0.0718975)
(1.10785e-05 2.43132e-05 0.0889204)
(2.43096e-05 1.10646e-05 0.0889173)
(-1.17583e-05 -1.16739e-05 0.106826)
(-4.01016e-08 1.40866e-05 0.0888993)
(1.40858e-05 -6.49507e-08 0.0888973)
(-3.14403e-06 -1.92204e-06 0.0718358)
(2.16115e-06 6.16516e-06 0.0718239)
(-1.91242e-06 -3.16232e-06 0.0718354)
(6.17311e-06 2.1478e-06 0.0718231)
(0.000146791 0.00014678 0.106634)
(-4.11488e-07 1.31236e-05 0.0887954)
(1.31275e-05 -4.31154e-07 0.0887934)
(1.09824e-05 2.34195e-05 0.0888136)
(2.34072e-05 1.09645e-05 0.0888105)
(-1.21034e-06 1.44573e-05 0.0934452)
(8.80017e-07 1.69464e-05 0.0831668)
(-1.29877e-06 3.5997e-05 0.0934842)
(3.42479e-06 -1.89195e-06 0.0831574)
(2.99555e-06 4.85939e-05 0.101918)
(3.94363e-05 0.000154811 0.10239)
(1.76399e-05 9.87404e-05 0.109122)
(5.76297e-05 9.19742e-05 0.108347)
(2.07361e-05 0.000188683 0.105768)
(2.63761e-06 2.17304e-05 0.0951608)
(1.75142e-05 9.84232e-05 0.109181)
(-2.88059e-06 4.85633e-05 0.101918)
(-3.90676e-05 0.000155003 0.102388)
(-1.75748e-05 9.87583e-05 0.109122)
(-5.77032e-05 9.1982e-05 0.108347)
(-2.07472e-05 0.000188664 0.105767)
(-2.73156e-06 2.15305e-05 0.0951601)
(-1.75245e-05 9.8444e-05 0.109181)
(1.13207e-06 3.44253e-05 0.0933541)
(-3.38933e-06 -2.0823e-06 0.0830671)
(-9.5321e-07 1.65369e-05 0.0830737)
(1.0559e-06 1.31922e-05 0.0933199)
(-1.22792e-06 3.44209e-05 0.0933541)
(3.29869e-06 -2.13085e-06 0.0830672)
(1.11693e-06 1.65125e-05 0.083074)
(-1.00438e-06 1.31891e-05 0.0933198)
(2.99114e-06 8.66853e-05 0.101778)
(5.73816e-05 9.13335e-05 0.108383)
(2.27274e-06 2.01012e-05 0.0950354)
(1.73428e-05 9.77677e-05 0.109296)
(1.31252e-05 5.03397e-05 0.0950319)
(1.74206e-05 9.81162e-05 0.109239)
(2.65669e-06 4.55556e-05 0.101784)
(-2.97504e-06 8.66541e-05 0.101778)
(-5.7381e-05 9.12977e-05 0.108382)
(-2.32458e-06 2.02711e-05 0.0950345)
(-1.72928e-05 9.77748e-05 0.109296)
(-1.29197e-05 5.0247e-05 0.0950309)
(-1.74356e-05 9.81165e-05 0.109239)
(-2.71704e-06 4.55735e-05 0.101783)
(-1.14458e-05 2.43224e-05 0.0889178)
(-2.43197e-05 1.145e-05 0.08892)
(1.1693e-05 -1.15736e-05 0.106826)
(3.99025e-07 1.39984e-05 0.0888974)
(-1.3977e-05 -3.75044e-07 0.0888989)
(-6.21267e-06 2.24629e-06 0.0718874)
(1.85821e-06 -3.29003e-06 0.0718978)
(3.00169e-06 -2.01926e-06 0.0718361)
(-1.97373e-06 6.25811e-06 0.0718238)
(-0.000147134 0.000147084 0.106633)
(9.53821e-08 1.3133e-05 0.0887937)
(-1.31375e-05 -7.81802e-08 0.0887951)
(-1.0552e-05 2.34731e-05 0.0888106)
(-2.34805e-05 1.05552e-05 0.088813)
(2.0121e-06 -2.9952e-06 0.0718358)
(-6.26207e-06 1.95604e-06 0.0718237)
(4.86071e-05 2.94781e-06 0.101918)
(0.00015471 3.93469e-05 0.102389)
(9.87339e-05 1.75998e-05 0.109122)
(9.18939e-05 5.75515e-05 0.108348)
(0.000188683 2.07032e-05 0.105767)
(2.16933e-05 2.62349e-06 0.0951602)
(9.84241e-05 1.74911e-05 0.109181)
(1.44663e-05 -1.17543e-06 0.0934446)
(1.69413e-05 9.83903e-07 0.0831664)
(3.59866e-05 -1.29421e-06 0.093484)
(-1.87485e-06 3.34136e-06 0.0831573)
(4.86279e-05 -2.9076e-06 0.101917)
(9.87302e-05 -1.76375e-05 0.109122)
(0.000176812 -3.33868e-05 0.104394)
(9.19795e-05 -5.76224e-05 0.108347)
(0.000188644 -2.07909e-05 0.105767)
(9.8426e-05 -1.75237e-05 0.109181)
(2.16279e-05 -2.7261e-06 0.0951604)
(3.44683e-05 1.17261e-06 0.0933545)
(-2.08932e-06 -3.40093e-06 0.0830672)
(1.65394e-05 -9.62968e-07 0.0830739)
(1.31494e-05 1.04788e-06 0.093319)
(8.67242e-05 2.97378e-06 0.101778)
(9.12426e-05 5.72845e-05 0.108383)
(2.00663e-05 2.26424e-06 0.0950348)
(9.77591e-05 1.73087e-05 0.109296)
(5.03068e-05 1.31013e-05 0.0950315)
(9.80962e-05 1.73795e-05 0.109239)
(4.55486e-05 2.65429e-06 0.101783)
(3.44382e-05 -1.15272e-06 0.0933542)
(-2.08791e-06 3.38706e-06 0.0830673)
(1.65514e-05 9.73398e-07 0.0830735)
(1.31827e-05 -1.02907e-06 0.0933192)
(8.67269e-05 -2.94397e-06 0.101778)
(9.13446e-05 -5.73824e-05 0.108382)
(9.77619e-05 -1.73476e-05 0.109296)
(2.0084e-05 -2.29617e-06 0.095035)
(9.81006e-05 -1.7429e-05 0.109239)
(5.02327e-05 -1.3095e-05 0.0950303)
(4.55737e-05 -2.6873e-06 0.101783)
(-1.44324e-05 1.22474e-06 0.0934441)
(-1.69269e-05 -8.6362e-07 0.0831668)
(-3.60311e-05 1.27634e-06 0.0934849)
(1.83088e-06 -3.43368e-06 0.0831578)
(-4.86027e-05 -3.0067e-06 0.101917)
(-9.87276e-05 -1.76768e-05 0.109122)
(-5.19895e-05 -1.37401e-05 0.0951589)
(-9.19649e-05 -5.75974e-05 0.108347)
(-9.0369e-05 -3.17057e-06 0.101913)
(-9.84148e-05 -1.75408e-05 0.109181)
(-2.17516e-05 -2.56487e-06 0.0951612)
(-1.44276e-05 -1.1599e-06 0.0934439)
(-1.69661e-05 1.01809e-06 0.0831669)
(-3.60248e-05 -1.33899e-06 0.0934849)
(1.89408e-06 3.37997e-06 0.0831573)
(-8.66822e-05 2.94499e-06 0.101778)
(-9.1257e-05 5.72917e-05 0.108384)
(-2.02094e-05 2.32064e-06 0.0950361)
(-9.7758e-05 1.72557e-05 0.109296)
(-5.01512e-05 1.29156e-05 0.0950323)
(-9.81044e-05 1.74002e-05 0.109239)
(-4.55887e-05 2.71883e-06 0.101783)
(-3.44618e-05 1.2265e-06 0.0933551)
(2.06516e-06 -3.29576e-06 0.0830677)
(-1.65428e-05 -1.12328e-06 0.0830739)
(-1.31705e-05 1.02905e-06 0.0933187)
(-8.67376e-05 -2.99536e-06 0.101779)
(-9.13374e-05 -5.73646e-05 0.108383)
(-9.77462e-05 -1.73702e-05 0.109296)
(-1.99863e-05 -2.35546e-06 0.095036)
(-9.80929e-05 -1.74333e-05 0.109239)
(-5.03651e-05 -1.30661e-05 0.0950312)
(-4.55802e-05 -2.62365e-06 0.101782)
(-3.44763e-05 -1.10973e-06 0.0933551)
(2.06536e-06 3.3927e-06 0.0830674)
(-1.65522e-05 9.3932e-07 0.0830739)
(-1.31454e-05 -1.03775e-06 0.0933184)
(2.43974e-05 -1.11881e-05 0.0889171)
(1.11498e-05 -2.44037e-05 0.0889191)
(-1.17532e-05 1.18373e-05 0.106826)
(1.40113e-05 7.69553e-08 0.0888968)
(-1.01213e-07 -1.40024e-05 0.0889)
(2.10884e-06 -6.25814e-06 0.071887)
(-3.13708e-06 1.94972e-06 0.0718981)
(-1.92092e-06 3.16449e-06 0.0718355)
(6.22253e-06 -2.11066e-06 0.0718232)
(0.000146812 -0.000146845 0.106634)
(1.31335e-05 3.5821e-07 0.0887929)
(-3.62407e-07 -1.31235e-05 0.088796)
(2.33533e-05 -1.09084e-05 0.0888103)
(1.08803e-05 -2.33509e-05 0.0888124)
(-3.16126e-06 1.92306e-06 0.071836)
(2.11333e-06 -6.2181e-06 0.0718232)
(-2.98174e-06 -4.86184e-05 0.101917)
(-1.76321e-05 -9.87169e-05 0.109122)
(-3.94218e-05 -0.000154568 0.102388)
(-5.74973e-05 -9.18641e-05 0.108347)
(-2.07114e-05 -0.000188706 0.105767)
(-1.75056e-05 -9.84098e-05 0.109181)
(-2.52402e-06 -2.17012e-05 0.0951604)
(1.18605e-06 -1.44559e-05 0.0934444)
(-9.76427e-07 -1.691e-05 0.0831664)
(1.30138e-06 -3.60306e-05 0.0934842)
(-3.3412e-06 1.88609e-06 0.0831577)
(-1.18902e-06 -1.44419e-05 0.0934442)
(1.02492e-06 -1.69674e-05 0.0831671)
(-1.32998e-06 -3.60152e-05 0.0934843)
(3.38067e-06 1.89103e-06 0.0831574)
(2.9211e-06 -8.67283e-05 0.101777)
(5.72803e-05 -9.12593e-05 0.108383)
(1.73161e-05 -9.77567e-05 0.109296)
(2.29819e-06 -2.00753e-05 0.0950366)
(1.74012e-05 -9.81017e-05 0.109239)
(1.30855e-05 -5.02116e-05 0.0950316)
(2.70065e-06 -4.55696e-05 0.101783)
(-3.00186e-06 -8.67485e-05 0.101778)
(-5.72458e-05 -9.12291e-05 0.108383)
(-1.73183e-05 -9.77465e-05 0.109296)
(-2.33639e-06 -1.99213e-05 0.0950353)
(-1.73796e-05 -9.80889e-05 0.109239)
(-1.30482e-05 -5.03215e-05 0.0950311)
(-2.62829e-06 -4.55632e-05 0.101783)
(1.17251e-06 -3.44839e-05 0.0933544)
(-3.38575e-06 2.0878e-06 0.0830677)
(-9.57961e-07 -1.65158e-05 0.0830735)
(1.04795e-06 -1.31675e-05 0.0933189)
(-1.14632e-06 -3.44865e-05 0.0933545)
(3.39351e-06 2.06406e-06 0.0830675)
(9.24579e-07 -1.6545e-05 0.083074)
(-1.03593e-06 -1.3153e-05 0.0933187)
(-6.32833e-06 -2.01932e-06 0.0718872)
(1.98495e-06 3.12598e-06 0.0718983)
(-1.99546e-06 -6.33228e-06 0.0718872)
(3.13382e-06 1.98492e-06 0.0718978)
(-0.000146796 -0.000146823 0.106634)
(-1.30843e-05 4.75916e-07 0.0887958)
(5.06775e-07 -1.30703e-05 0.0887932)
(-2.34091e-05 -1.10854e-05 0.0888118)
(-1.10968e-05 -2.34034e-05 0.0888105)
(1.88426e-06 3.21634e-06 0.0718362)
(-6.17136e-06 -2.18472e-06 0.0718234)
(3.22337e-06 1.87837e-06 0.0718357)
(-2.19174e-06 -6.1605e-06 0.0718235)
(2.09135e-06 6.17177e-06 0.0717632)
(-3.01187e-06 -1.9741e-06 0.0717765)
(6.17925e-06 2.07855e-06 0.0717624)
(-1.97003e-06 -3.02088e-06 0.0717762)
(1.04728e-05 2.24965e-05 0.0887117)
(2.24898e-05 1.04501e-05 0.0887086)
(-1.39998e-05 -1.39363e-05 0.106803)
(-2.89471e-07 1.22606e-05 0.0886963)
(1.22595e-05 -3.13445e-07 0.0886944)
(-3.12002e-06 -1.89684e-06 0.0717201)
(2.12747e-06 6.10325e-06 0.0717054)
(-1.89104e-06 -3.13097e-06 0.0717198)
(6.10619e-06 2.1213e-06 0.0717045)
(0.000141385 0.000141362 0.1066)
(-8.54532e-07 1.15325e-05 0.0886015)
(1.15288e-05 -8.75142e-07 0.0885996)
(1.04165e-05 2.15244e-05 0.0886144)
(2.15181e-05 1.0405e-05 0.0886113)
(-9.23033e-07 1.20157e-05 0.0932005)
(9.26036e-07 1.61953e-05 0.0829856)
(-9.91879e-07 3.30133e-05 0.0932307)
(3.43348e-06 -2.26104e-06 0.0829817)
(2.46326e-06 4.26309e-05 0.101651)
(1.24602e-05 4.85093e-05 0.0949094)
(1.72428e-05 9.74309e-05 0.109352)
(5.65088e-05 8.9302e-05 0.108482)
(2.75645e-06 8.31704e-05 0.101644)
(1.95664e-06 1.87922e-05 0.0949148)
(1.71201e-05 9.70526e-05 0.109407)
(-2.4521e-06 4.26107e-05 0.101651)
(-1.26867e-05 4.85515e-05 0.0949083)
(-1.71971e-05 9.74344e-05 0.109352)
(-5.65786e-05 8.93115e-05 0.108482)
(-2.71711e-06 8.31968e-05 0.101645)
(-1.83815e-06 1.86685e-05 0.0949142)
(-1.71395e-05 9.7061e-05 0.109408)
(8.63799e-07 3.17056e-05 0.0931134)
(-3.51382e-06 -2.39264e-06 0.0829001)
(-9.9335e-07 1.5926e-05 0.0829013)
(7.97711e-07 1.09542e-05 0.0930871)
(-9.27633e-07 3.16982e-05 0.0931134)
(3.42639e-06 -2.39334e-06 0.0829003)
(1.11323e-06 1.58995e-05 0.0829016)
(-7.50358e-07 1.09478e-05 0.093087)
(2.47836e-06 7.97838e-05 0.101513)
(5.62879e-05 8.86326e-05 0.108513)
(1.39669e-06 1.74218e-05 0.094799)
(1.70131e-05 9.62566e-05 0.109516)
(1.21699e-05 4.68508e-05 0.0947917)
(1.70569e-05 9.66706e-05 0.109462)
(2.23989e-06 3.97643e-05 0.101521)
(-2.5512e-06 7.97741e-05 0.101514)
(-5.62624e-05 8.85899e-05 0.108513)
(-1.53331e-06 1.74946e-05 0.0947983)
(-1.6961e-05 9.62607e-05 0.109516)
(-1.19354e-05 4.68673e-05 0.0947906)
(-1.70575e-05 9.66655e-05 0.109462)
(-2.22873e-06 3.97812e-05 0.101521)
(-1.07481e-05 2.23794e-05 0.0887089)
(-2.23714e-05 1.07739e-05 0.0887113)
(1.37423e-05 -1.36413e-05 0.106803)
(6.08315e-07 1.22728e-05 0.0886945)
(-1.22687e-05 -6.21989e-07 0.0886959)
(-6.13542e-06 2.20335e-06 0.071763)
(1.87589e-06 -3.16815e-06 0.0717765)
(3.00491e-06 -1.96022e-06 0.0717205)
(-2.05112e-06 6.12782e-06 0.0717053)
(-0.000141746 0.000141692 0.106599)
(5.96456e-07 1.15125e-05 0.0885998)
(-1.15033e-05 -6.0651e-07 0.0886013)
(-1.01776e-05 2.16122e-05 0.0886115)
(-2.16242e-05 1.01535e-05 0.0886139)
(1.94565e-06 -3.01487e-06 0.0717201)
(-6.1267e-06 2.02498e-06 0.0717051)
(4.2661e-05 2.43743e-06 0.101651)
(4.84858e-05 1.24278e-05 0.094909)
(9.74095e-05 1.72085e-05 0.109352)
(8.92071e-05 5.64256e-05 0.108483)
(8.31722e-05 2.73486e-06 0.101645)
(1.87573e-05 1.94615e-06 0.0949143)
(9.7043e-05 1.70946e-05 0.109408)
(1.20304e-05 -8.88152e-07 0.0931999)
(1.62054e-05 1.05132e-06 0.0829852)
(3.30125e-05 -1.00159e-06 0.0932308)
(-2.25527e-06 3.34441e-06 0.0829817)
(4.26758e-05 -2.45842e-06 0.10165)
(9.74079e-05 -1.72579e-05 0.109352)
(4.84828e-05 -1.25043e-05 0.0949077)
(8.92948e-05 -5.65055e-05 0.108482)
(8.31862e-05 -2.72045e-06 0.101645)
(9.70427e-05 -1.71499e-05 0.109408)
(1.87537e-05 -1.89464e-06 0.0949145)
(3.17401e-05 8.99292e-07 0.0931138)
(-2.4044e-06 -3.51987e-06 0.0829003)
(1.5917e-05 -1.0014e-06 0.0829016)
(1.0913e-05 7.9219e-07 0.0930863)
(7.98267e-05 2.48342e-06 0.101513)
(8.85263e-05 5.61781e-05 0.108514)
(1.73879e-05 1.3917e-06 0.0947985)
(9.62471e-05 1.69792e-05 0.109516)
(4.68242e-05 1.21487e-05 0.0947913)
(9.66472e-05 1.70173e-05 0.109462)
(3.97605e-05 2.23043e-06 0.10152)
(3.17149e-05 -8.69798e-07 0.0931134)
(-2.3731e-06 3.47687e-06 0.0829003)
(1.59168e-05 1.00222e-06 0.0829011)
(1.09495e-05 -7.68885e-07 0.0930864)
(7.98342e-05 -2.50179e-06 0.101514)
(8.86093e-05 -5.62398e-05 0.108513)
(9.62524e-05 -1.70054e-05 0.109516)
(1.73782e-05 -1.46029e-06 0.0947987)
(9.66477e-05 -1.70599e-05 0.109462)
(4.68465e-05 -1.2108e-05 0.09479)
(3.97866e-05 -2.2245e-06 0.10152)
(-1.19928e-05 9.47369e-07 0.0931994)
(-1.62264e-05 -9.04322e-07 0.0829855)
(-3.3058e-05 9.83781e-07 0.0932317)
(2.22013e-06 -3.44575e-06 0.0829822)
(-4.26517e-05 -2.48676e-06 0.10165)
(-9.73974e-05 -1.72912e-05 0.109352)
(-4.84222e-05 -1.24496e-05 0.0949088)
(-8.92668e-05 -5.64504e-05 0.108482)
(-8.32024e-05 -2.72895e-06 0.101646)
(-9.70291e-05 -1.71491e-05 0.109408)
(-1.88334e-05 -1.88653e-06 0.0949153)
(-1.19877e-05 -8.3955e-07 0.0931992)
(-1.62184e-05 1.10914e-06 0.0829856)
(-3.30522e-05 -1.05125e-06 0.0932317)
(2.26651e-06 3.34172e-06 0.0829817)
(-7.98023e-05 2.52356e-06 0.101514)
(-8.85338e-05 5.61706e-05 0.108514)