/*--------------------------------*- C++ -*----------------------------------*\
| =========                 |                                                 |
| \\      /  F ield         | OpenFOAM: The Open Source CFD Toolbox           |
|  \\    /   O peration     | Version:  v2006                                 |
|   \\  /    A nd           | Website:  www.openfoam.com                      |
|    \\/     M anipulation  |                                                 |
\*---------------------------------------------------------------------------*/
FoamFile
{
    version     2.0;
    format      ascii;
    class       volScalarField;
    location    "125";
    object      epsilon;
}
// * * * * * * * * * * * * * * * * * * * * * * * * * * * * * * * * * * * * * //

dimensions      [0 2 -3 0 0 0 0];


internalField   nonuniform List<scalar> 
14457
(
3.68363e-07
3.8856e-07
4.17658e-07
3.88561e-07
3.88562e-07
3.88572e-07
4.17664e-07
7.8459e-06
1.77224e-06
7.8471e-06
1.77235e-06
3.68364e-07
2.47394e-05
1.31314e-06
2.4735e-05
2.47384e-05
2.63502e-06
2.63562e-06
1.31313e-06
3.73478e-07
6.24873e-07
1.31329e-06
3.73481e-07
6.24901e-07
7.84751e-06
1.77243e-06
3.73483e-07
1.31334e-06
6.24897e-07
2.63585e-06
2.63514e-06
2.47375e-05
7.84682e-06
2.97093e-05
2.94391e-06
7.94082e-06
2.99767e-05
2.96418e-06
1.50165e-05
1.78241e-06
1.24575e-05
1.94677e-06
1.4909e-05
1.25972e-05
1.95671e-06
2.97097e-05
2.94394e-06
7.94194e-06
2.99773e-05
2.96426e-06
1.5017e-05
1.78252e-06
1.94688e-06
1.2458e-05
1.49096e-05
1.95682e-06
1.25978e-05
2.46671e-05
2.46629e-05
2.46657e-05
1.50006e-06
7.66168e-07
8.90268e-06
2.64594e-06
1.49432e-06
8.97291e-06
7.6535e-07
1.50095e-06
7.66351e-07
8.9073e-06
2.6466e-06
1.49526e-06
8.97838e-06
7.65521e-07
3.76401e-06
2.84163e-05
2.84205e-05
3.73038e-06
2.82348e-05
2.97114e-05
2.94434e-06
7.9424e-06
2.99786e-05
2.96457e-06
1.50183e-05
1.78247e-06
1.24581e-05
1.94698e-06
1.25981e-05
1.49107e-05
1.95675e-06
1.50102e-06
7.66387e-07
8.9074e-06
2.64682e-06
8.97831e-06
1.49525e-06
7.65578e-07
1.5e-06
7.66176e-07
8.90242e-06
2.6461e-06
7.65347e-07
1.49431e-06
8.9732e-06
3.76404e-06
2.84211e-05
2.8417e-05
3.73042e-06
2.82308e-05
2.46647e-05
2.97111e-05
2.94391e-06
7.94174e-06
2.96402e-06
2.99746e-05
3.65618e-07
3.65617e-07
3.64892e-07
6.72038e-07
4.8996e-07
4.89989e-07
4.13869e-07
6.72267e-07
4.87181e-07
4.87211e-07
6.72045e-07
4.90002e-07
4.8996e-07
4.13876e-07
4.87183e-07
6.7227e-07
4.87225e-07
3.65618e-07
3.65618e-07
3.64892e-07
4.83229e-07
5.81051e-07
7.77663e-07
1.31783e-06
4.87004e-07
5.78443e-07
7.75881e-07
4.83231e-07
5.81052e-07
7.77668e-07
7.7589e-07
4.87001e-07
5.78451e-07
4.44522e-07
6.25149e-07
6.56882e-07
4.34689e-07
6.56656e-07
4.47649e-07
4.31953e-07
4.83249e-07
5.81124e-07
7.77689e-07
1.318e-06
7.75929e-07
4.87027e-07
5.78517e-07
4.44536e-07
6.25177e-07
6.56912e-07
4.34699e-07
6.56686e-07
4.47665e-07
4.31963e-07
4.83269e-07
5.81146e-07
7.77745e-07
1.31804e-06
4.87043e-07
7.75967e-07
5.78538e-07
4.44546e-07
6.25184e-07
4.34702e-07
6.56921e-07
4.47672e-07
6.56693e-07
4.95567e-07
4.97331e-07
4.97332e-07
4.99575e-07
4.45573e-07
4.53736e-07
4.53738e-07
4.63711e-07
5.06417e-07
5.05584e-07
5.05582e-07
5.06417e-07
5.05583e-07
5.05583e-07
5.09649e-07
5.09649e-07
5.09649e-07
5.09649e-07
5.05584e-07
5.05584e-07
5.06417e-07
5.05584e-07
5.05583e-07
5.06418e-07
4.99575e-07
4.67236e-07
4.97331e-07
4.97335e-07
4.63714e-07
4.63722e-07
4.99575e-07
4.67237e-07
4.97335e-07
4.97335e-07
4.63717e-07
4.63724e-07
4.97332e-07
4.63709e-07
4.63716e-07
4.99575e-07
4.67239e-07
4.97334e-07
4.6371e-07
4.63719e-07
4.67243e-07
4.63708e-07
4.53738e-07
4.53747e-07
4.63709e-07
4.53744e-07
4.53749e-07
4.53743e-07
4.6371e-07
4.53745e-07
5.35663e-07
5.35601e-07
5.35655e-07
5.35655e-07
5.34573e-07
5.35516e-07
5.33634e-07
5.35655e-07
5.34573e-07
5.35516e-07
5.35655e-07
5.33634e-07
5.35257e-07
5.35987e-07
5.35987e-07
1.10717e-06
3.88074e-06
9.33914e-07
4.60577e-06
1.26086e-05
1.66014e-05
1.10713e-06
3.88125e-06
9.33929e-07
4.60633e-06
4.95567e-07
4.95567e-07
4.95567e-07
4.57231e-07
4.57231e-07
4.57232e-07
4.57232e-07
5.43137e-07
1.22024e-06
4.95565e-07
4.85522e-07
5.25345e-07
1.20948e-06
4.82301e-07
1.26098e-05
1.66029e-05
5.43157e-07
4.95565e-07
1.22026e-06
4.85523e-07
5.25332e-07
4.82301e-07
1.2095e-06
2.52183e-06
2.52237e-06
4.84192e-07
2.37257e-06
2.37281e-06
1.43089e-06
5.593e-06
1.32968e-06
6.13602e-06
2.1285e-05
2.31111e-05
1.43098e-06
5.59375e-06
1.32979e-06
6.13685e-06
4.45573e-07
4.45573e-07
4.45573e-07
5.87084e-07
1.1948e-06
4.46434e-07
4.44292e-07
5.73801e-07
1.20438e-06
4.3569e-07
2.12871e-05
2.31128e-05
5.87096e-07
4.46435e-07
1.19482e-06
4.44293e-07
5.73811e-07
4.35691e-07
1.20436e-06
2.31178e-06
2.31222e-06
4.53491e-07
2.35337e-06
2.3538e-06
5.35257e-07
5.35989e-07
5.35987e-07
1.09158e-05
5.81316e-07
1.09173e-05
5.81318e-07
5.28206e-07
2.43163e-06
2.43198e-06
5.40832e-07
5.40828e-07
5.34573e-07
5.35517e-07
5.33634e-07
5.35654e-07
5.34573e-07
5.35517e-07
5.33634e-07
5.35654e-07
5.30398e-07
3.47218e-06
5.68205e-07
8.21172e-07
5.30398e-07
3.47235e-06
5.68203e-07
8.21205e-07
5.29522e-07
5.2838e-07
1.16695e-06
5.09601e-07
5.32663e-07
5.28352e-07
5.19213e-07
5.29522e-07
5.2838e-07
1.16695e-06
5.09601e-07
5.32663e-07
5.28352e-07
5.19213e-07
5.35256e-07
5.35988e-07
5.35987e-07
1.09166e-05
5.81317e-07
5.28206e-07
2.43182e-06
2.43194e-06
5.40829e-07
5.4083e-07
1.09169e-05
5.81323e-07
5.34573e-07
5.35517e-07
5.33634e-07
5.35654e-07
5.34573e-07
5.35517e-07
5.35654e-07
5.33634e-07
5.30398e-07
3.47254e-06
5.68202e-07
8.21179e-07
5.29522e-07
5.2838e-07
1.16721e-06
5.09601e-07
5.32663e-07
5.28352e-07
5.19218e-07
5.30398e-07
3.47256e-06
5.68202e-07
8.21102e-07
5.29522e-07
5.2838e-07
5.09601e-07
1.16708e-06
5.28352e-07
5.32663e-07
5.19212e-07
5.35663e-07
5.35601e-07
5.35655e-07
5.35655e-07
5.35663e-07
5.35601e-07
5.35655e-07
5.35655e-07
5.35663e-07
5.35601e-07
5.35655e-07
5.35655e-07
5.28434e-07
5.28376e-07
5.09725e-07
5.09725e-07
5.28408e-07
5.28408e-07
5.09782e-07
5.28434e-07
5.28375e-07
5.09725e-07
5.09725e-07
5.28408e-07
5.28408e-07
5.09782e-07
5.28434e-07
5.28375e-07
5.09725e-07
5.09725e-07
5.28408e-07
5.28408e-07
5.09782e-07
5.28434e-07
5.28375e-07
5.09725e-07
5.09725e-07
5.28408e-07
5.28408e-07
5.09782e-07
5.34573e-07
5.35517e-07
5.35654e-07
5.33634e-07
5.29522e-07
5.2838e-07
1.16707e-06
5.09601e-07
5.32663e-07
5.28352e-07
5.19215e-07
5.30398e-07
3.47243e-06
5.68202e-07
8.21094e-07
5.29522e-07
5.2838e-07
5.09601e-07
1.16704e-06
5.28352e-07
5.32663e-07
5.1921e-07
5.30398e-07
3.4725e-06
5.68201e-07
8.21097e-07
5.35257e-07
5.35987e-07
5.35987e-07
1.09175e-05
5.81323e-07
5.28206e-07
2.432e-06
2.43188e-06
5.40828e-07
5.40829e-07
1.0917e-05
5.81319e-07
5.34573e-07
5.35517e-07
5.35655e-07
5.33634e-07
5.29522e-07
5.2838e-07
5.09601e-07
1.16715e-06
5.28352e-07
5.32663e-07
5.19219e-07
5.29522e-07
5.2838e-07
5.09601e-07
1.1671e-06
5.28352e-07
5.32663e-07
5.19218e-07
5.30398e-07
3.4724e-06
5.68201e-07
8.21226e-07
5.30398e-07
3.47263e-06
5.68202e-07
8.21178e-07
5.28206e-07
2.4318e-06
2.43216e-06
5.40828e-07
5.40828e-07
1.09171e-05
5.81321e-07
1.09176e-05
5.81324e-07
1.26074e-05
1.65993e-05
1.26095e-05
1.66021e-05
2.52169e-06
2.52235e-06
4.84188e-07
2.37225e-06
2.37294e-06
2.05287e-05
1.76845e-05
2.05325e-05
1.7688e-05
4.793e-07
2.30596e-06
2.30667e-06
2.33909e-06
2.33977e-06
1.10722e-06
3.88113e-06
9.33763e-07
4.60642e-06
5.43133e-07
1.22015e-06
4.95565e-07
4.85525e-07
5.25349e-07
1.20941e-06
4.82302e-07
5.43136e-07
1.22028e-06
4.95565e-07
4.85531e-07
5.25344e-07
1.20959e-06
4.82302e-07
1.16095e-06
5.40773e-06
4.8099e-06
1.28046e-06
1.16094e-06
5.40846e-06
4.81072e-06
1.2806e-06
5.50995e-07
4.74298e-07
1.1932e-06
4.57763e-07
1.20471e-06
4.6971e-07
5.6639e-07
5.50997e-07
4.74306e-07
1.19339e-06
4.57764e-07
1.20489e-06
4.69711e-07
5.66402e-07
2.52216e-06
2.52212e-06
4.84189e-07
2.37257e-06
2.37268e-06
1.2609e-05
1.66009e-05
2.05315e-05
1.76872e-05
4.793e-07
2.30646e-06
2.30626e-06
2.33961e-06
2.33915e-06
2.05304e-05
1.76863e-05
5.43149e-07
1.22042e-06
4.95565e-07
4.85529e-07
5.25351e-07
1.20968e-06
4.82301e-07
1.10723e-06
3.88147e-06
9.33825e-07
4.60664e-06
5.43144e-07
4.95565e-07
1.22036e-06
4.85533e-07
5.25343e-07
4.82302e-07
1.20965e-06
1.16122e-06
5.40846e-06
4.81061e-06
1.28053e-06
5.51004e-07
4.74304e-07
1.19342e-06
4.57763e-07
1.20496e-06
4.69711e-07
5.66408e-07
1.16109e-06
5.40893e-06
4.81113e-06
1.28048e-06
5.51007e-07
4.74307e-07
4.57764e-07
1.19343e-06
4.69711e-07
1.20496e-06
5.66408e-07
1.10711e-06
3.88112e-06
9.33969e-07
4.60604e-06
5.43131e-07
4.95565e-07
1.22027e-06
4.85526e-07
5.25337e-07
4.82302e-07
1.20955e-06
1.10712e-06
3.88114e-06
9.33781e-07
4.6066e-06
5.51001e-07
4.74298e-07
1.19323e-06
4.57762e-07
1.20469e-06
4.6971e-07
5.66402e-07
1.1612e-06
5.40805e-06
4.81036e-06
1.28051e-06
5.51e-07
4.74301e-07
4.57763e-07
1.19328e-06
4.69711e-07
1.20473e-06
5.664e-07
1.16109e-06
5.40866e-06
4.81061e-06
1.2805e-06
2.52221e-06
2.52185e-06
4.8419e-07
2.37278e-06
2.37243e-06
1.26089e-05
1.66007e-05
2.05338e-05
1.76885e-05
4.79301e-07
2.30677e-06
2.30633e-06
2.33995e-06
2.33944e-06
2.05312e-05
1.76865e-05
5.43152e-07
4.95565e-07
1.22039e-06
4.8553e-07
5.25336e-07
4.82302e-07
1.20963e-06
1.10725e-06
3.88108e-06
9.33828e-07
4.60595e-06
1.10731e-06
3.88139e-06
9.33824e-07
4.60682e-06
5.50996e-07
4.74299e-07
4.57763e-07
1.19326e-06
4.69711e-07
1.20478e-06
5.66413e-07
5.51012e-07
4.74305e-07
4.57764e-07
1.19342e-06
4.69711e-07
1.20493e-06
5.6642e-07
1.16108e-06
5.4082e-06
4.81032e-06
1.28068e-06
1.16108e-06
5.40903e-06
4.81105e-06
1.28061e-06
1.26091e-05
1.66016e-05
1.26098e-05
1.66027e-05
4.79301e-07
2.30629e-06
2.30668e-06
2.33924e-06
2.33991e-06
2.05315e-05
1.7687e-05
2.05333e-05
1.76889e-05
2.12821e-05
2.31078e-05
2.12861e-05
2.31118e-05
2.31147e-06
2.31222e-06
4.53481e-07
2.35293e-06
2.35357e-06
2.35332e-05
2.35374e-05
4.50881e-07
2.38112e-06
2.38174e-06
1.43114e-06
5.59385e-06
1.32962e-06
6.13686e-06
5.87075e-07
1.1948e-06
4.46434e-07
4.44298e-07
5.73791e-07
1.20432e-06
4.35691e-07
5.87086e-07
1.19496e-06
4.46435e-07
4.44307e-07
5.73801e-07
1.20455e-06
4.35692e-07
1.47471e-06
6.30065e-06
1.47458e-06
6.30157e-06
5.93316e-07
4.35313e-07
1.21238e-06
4.25488e-07
5.93326e-07
4.35322e-07
1.21256e-06
4.2549e-07
2.31199e-06
2.31176e-06
4.53483e-07
2.35361e-06
2.35329e-06
2.1284e-05
2.31099e-05
2.35366e-05
4.50883e-07
2.38167e-06
2.38123e-06
2.35356e-05
5.87094e-07
1.19497e-06
4.46435e-07
4.44299e-07
5.73814e-07
1.20452e-06
4.35691e-07
1.43068e-06
5.59432e-06
1.32982e-06
6.13737e-06
5.87104e-07
4.46436e-07
1.195e-06
4.44309e-07
5.73819e-07
4.35693e-07
1.20454e-06
1.47482e-06
6.3016e-06
5.9334e-07
4.35318e-07
1.21254e-06
4.2549e-07
1.47517e-06
6.30211e-06
5.9335e-07
4.35325e-07
4.25492e-07
1.21261e-06
1.43096e-06
5.59344e-06
1.32977e-06
6.13647e-06
5.87091e-07
4.46435e-07
1.19485e-06
4.44301e-07
5.73806e-07
4.35692e-07
1.20443e-06
1.43098e-06
5.59385e-06
1.32975e-06
6.13702e-06
5.9333e-07
4.35311e-07
1.21237e-06
4.25489e-07
1.47479e-06
6.3012e-06
5.93334e-07
4.35318e-07
4.2549e-07
1.21242e-06
1.4748e-06
6.30175e-06
2.3123e-06
2.31185e-06
4.53486e-07
2.35372e-06
2.35318e-06
2.12848e-05
2.31105e-05
2.35388e-05
4.50885e-07
2.38207e-06
2.38132e-06
2.35361e-05
5.87107e-07
4.46436e-07
1.19498e-06
4.44303e-07
5.7382e-07
4.35692e-07
1.20457e-06
1.43102e-06
5.5935e-06
1.32966e-06
6.13653e-06
1.43093e-06
5.59431e-06
1.32971e-06
6.13749e-06
4.35312e-07
1.2124e-06
4.35319e-07
1.21256e-06
6.30134e-06
6.30224e-06
2.12851e-05
2.31112e-05
2.12871e-05
2.31132e-05
4.50886e-07
2.3814e-06
2.38181e-06
2.35368e-05
2.35389e-05
5.33699e-07
5.45748e-07
5.56733e-07
5.33699e-07
5.45745e-07
5.56728e-07
5.56736e-07
5.5673e-07
5.33699e-07
5.45752e-07
5.56729e-07
5.33699e-07
5.45745e-07
5.33699e-07
5.45745e-07
5.33699e-07
5.45746e-07
5.56731e-07
5.33699e-07
5.45748e-07
5.33699e-07
5.45745e-07
5.56728e-07
5.56729e-07
5.35661e-07
5.35661e-07
5.35659e-07
5.35633e-07
5.35633e-07
5.35665e-07
5.35665e-07
5.35647e-07
5.35662e-07
5.35665e-07
5.35647e-07
5.35662e-07
5.33275e-07
5.35212e-07
5.3527e-07
5.35531e-07
5.35502e-07
5.35298e-07
5.34196e-07
5.33455e-07
5.34664e-07
5.35579e-07
5.35626e-07
5.35539e-07
5.35213e-07
5.33275e-07
5.35271e-07
5.35502e-07
5.35532e-07
5.35298e-07
5.35579e-07
5.35626e-07
5.35539e-07
5.34196e-07
5.33455e-07
5.34664e-07
6.56413e-05
6.56356e-05
5.33475e-07
5.34989e-07
5.34983e-07
5.33209e-07
2.00852e-05
5.34068e-07
5.3367e-07
2.00844e-05
5.34067e-07
5.33668e-07
8.34348e-06
1.06457e-06
7.27112e-06
1.22563e-06
6.93351e-06
1.17193e-06
8.79323e-06
1.93225e-05
3.38748e-06
4.1642e-06
1.72414e-05
3.21065e-06
7.88688e-06
9.99548e-07
6.21336e-06
9.997e-07
7.39494e-06
6.58789e-06
1.08998e-06
2.12058e-05
2.86654e-06
4.38991e-06
3.02072e-06
2.29724e-05
1.41186e-05
1.54019e-05
8.34375e-06
1.06466e-06
1.22562e-06
7.27134e-06
1.17207e-06
6.93372e-06
8.79346e-06
1.93219e-05
3.38747e-06
4.16457e-06
1.72406e-05
3.21082e-06
7.88694e-06
9.99721e-07
9.9968e-07
6.2135e-06
7.39493e-06
1.09011e-06
6.58811e-06
2.12058e-05
2.86692e-06
4.39046e-06
3.02059e-06
2.29726e-05
1.41201e-05
1.5403e-05
2.87032e-06
2.09734e-05
2.0978e-05
1.94473e-05
1.94526e-05
2.84845e-06
9.85885e-07
6.55278e-07
4.85894e-06
2.4974e-06
9.19006e-07
6.82012e-07
5.13549e-06
9.86765e-07
6.55561e-07
4.86068e-06
2.49788e-06
9.19923e-07
6.82302e-07
5.13728e-06
2.90687e-06
1.60055e-05
1.60095e-05
2.93185e-06
1.78334e-05
1.78372e-05
1.04191e-06
5.60827e-06
2.43799e-06
7.1287e-07
7.02516e-07
5.38004e-06
1.07436e-06
1.04292e-06
5.61043e-06
2.43864e-06
7.13176e-07
7.02841e-07
5.38235e-06
1.07519e-06
1.16599e-05
1.40526e-06
9.73484e-06
1.59084e-06
9.45065e-06
1.563e-06
1.20179e-05
3.00409e-05
2.6358e-06
5.78142e-06
2.92741e-05
2.63355e-06
1.12928e-05
1.35874e-06
8.86248e-06
1.48085e-06
1.09032e-05
9.16266e-06
1.51301e-06
3.06377e-05
2.64769e-06
5.95708e-06
2.63967e-06
3.11047e-05
2.19885e-05
2.25722e-05
1.16603e-05
1.40539e-06
1.59118e-06
9.73531e-06
1.56303e-06
9.45105e-06
1.20185e-05
3.00401e-05
2.63573e-06
5.78229e-06
2.92741e-05
2.63352e-06
1.1293e-05
1.35882e-06
1.48084e-06
8.86284e-06
1.09035e-05
1.51302e-06
9.16309e-06
3.06378e-05
2.6478e-06
5.95795e-06
2.63985e-06
3.11052e-05
2.19909e-05
2.25742e-05
3.12576e-06
2.8377e-05
2.83833e-05
2.78719e-05
2.78788e-05
3.16884e-06
1.24379e-06
7.47016e-07
6.6874e-06
2.32019e-06
1.22732e-06
7.4912e-07
6.88398e-06
1.24465e-06
7.47287e-07
6.69085e-06
2.32049e-06
1.22817e-06
7.4937e-07
6.8871e-06
3.05893e-06
2.65447e-05
2.65518e-05
3.01812e-06
2.72879e-05
2.72938e-05
1.27495e-06
7.26032e-06
2.34024e-06
7.55051e-07
7.53602e-07
7.07727e-06
1.28913e-06
1.27577e-06
7.26392e-06
2.34062e-06
7.55293e-07
7.53856e-07
7.08087e-06
1.29007e-06
6.56375e-05
6.56413e-05
5.33475e-07
5.34989e-07
5.34983e-07
5.33209e-07
2.00846e-05
5.34068e-07
5.33671e-07
2.00845e-05
5.34068e-07
5.33668e-07
1.83601e-06
1.08081e-06
1.83628e-06
1.0808e-06
4.83737e-07
6.77565e-05
6.77505e-05
5.34985e-07
3.77475e-05
3.77475e-05
5.17956e-07
5.20581e-07
5.28909e-07
5.2892e-07
5.29345e-07
5.19667e-07
5.19653e-07
6.18499e-07
6.06299e-07
1.7749e-06
4.54047e-06
4.06807e-06
5.65552e-07
7.91956e-07
6.18692e-07
6.06514e-07
1.77499e-06
4.54179e-06
4.06851e-06
5.65635e-07
7.92593e-07
5.12437e-07
7.90282e-06
5.29691e-07
5.88008e-07
5.299e-07
1.12085e-05
5.20859e-07
5.12429e-07
7.90278e-06
5.29692e-07
5.87978e-07
5.29903e-07
1.12094e-05
5.20861e-07
1.32576e-06
1.40286e-05
1.40313e-05
3.72895e-05
3.72907e-05
2.83311e-06
5.33275e-07
5.35213e-07
5.35271e-07
5.35534e-07
5.35502e-07
5.35299e-07
5.34196e-07
5.33456e-07
5.34664e-07
5.35579e-07
5.35626e-07
5.35539e-07
5.33275e-07
5.35212e-07
5.3527e-07
5.35535e-07
5.35502e-07
5.35299e-07
5.34196e-07
5.33456e-07
5.34664e-07
5.35579e-07
5.35625e-07
5.35539e-07
4.30831e-05
2.37479e-05
5.3052e-07
5.18928e-07
1.37816e-05
5.17644e-07
1.22458e-05
3.56161e-06
1.54657e-05
3.19547e-06
5.31914e-07
3.93439e-07
5.03857e-07
4.3507e-05
6.40341e-07
5.74712e-06
8.61455e-07
7.13685e-06
5.3584e-06
6.93696e-07
4.30909e-05
2.37478e-05
5.3052e-07
5.18929e-07
1.37808e-05
5.17635e-07
1.22457e-05
3.56097e-06
3.19706e-06
1.54683e-05
5.31914e-07
3.93411e-07
5.03867e-07
4.35092e-05
6.40323e-07
5.74725e-06
8.62008e-07
5.35832e-06
6.93686e-07
7.13684e-06
5.20416e-07
5.29413e-07
5.28206e-07
5.1849e-07
5.28534e-07
5.17993e-07
5.20541e-07
5.20629e-07
5.20593e-07
5.28059e-07
5.2851e-07
5.2101e-07
5.28229e-07
5.20545e-07
5.18541e-07
5.29121e-07
5.29381e-07
5.3201e-07
5.18373e-07
5.29564e-07
5.21045e-07
5.20717e-07
5.28313e-07
5.28359e-07
5.20885e-07
5.2831e-07
5.20748e-07
5.20844e-07
5.20415e-07
5.29413e-07
5.28206e-07
5.18491e-07
5.28535e-07
5.17993e-07
5.20541e-07
5.20628e-07
5.20592e-07
5.28057e-07
5.28511e-07
5.2823e-07
5.21013e-07
5.20544e-07
5.18539e-07
5.29121e-07
5.29381e-07
5.32002e-07
5.29564e-07
5.21047e-07
5.18373e-07
5.20717e-07
5.28313e-07
5.28359e-07
5.20885e-07
5.2831e-07
5.20748e-07
5.20844e-07
6.56451e-05
6.56424e-05
5.33476e-07
5.34993e-07
5.34979e-07
5.33209e-07
2.00849e-05
5.34068e-07
5.33671e-07
2.00849e-05
5.34067e-07
5.33668e-07
1.83607e-06
1.08077e-06
4.83733e-07
6.77588e-05
6.77599e-05
5.34988e-07
3.77476e-05
3.77496e-05
5.17956e-07
5.20581e-07
5.28902e-07
5.28929e-07
5.19676e-07
5.29345e-07
5.19642e-07
6.18416e-07
6.06459e-07
1.77489e-06
4.54131e-06
5.65492e-07
4.06819e-06
7.92512e-07
6.18752e-07
6.0635e-07
1.77545e-06
4.54107e-06
4.06842e-06
5.65708e-07
7.92052e-07
5.12432e-07
7.90295e-06
5.29691e-07
5.87995e-07
5.20859e-07
5.29901e-07
1.12088e-05
5.12432e-07
7.90301e-06
5.29692e-07
5.87987e-07
5.29904e-07
1.12094e-05
5.20863e-07
1.32581e-06
1.40291e-05
1.40307e-05
3.72895e-05
3.72908e-05
2.83323e-06
1.83626e-06
1.08084e-06
5.33275e-07
5.35213e-07
5.3527e-07
5.35533e-07
5.35502e-07
5.35298e-07
5.34196e-07
5.33456e-07
5.34664e-07
5.35579e-07
5.35626e-07
5.35539e-07
5.35213e-07
5.33275e-07
5.3527e-07
5.35502e-07
5.35535e-07
5.35299e-07
5.35579e-07
5.35626e-07
5.35539e-07
5.34196e-07
5.33456e-07
5.34664e-07
4.30834e-05
5.3052e-07
2.37481e-05
5.18928e-07
5.17654e-07
1.37811e-05
1.22458e-05
3.56145e-06
1.54653e-05
3.19562e-06
5.31914e-07
3.93345e-07
5.03834e-07
4.35061e-05
6.40395e-07
8.61506e-07
5.74725e-06
7.137e-06
6.93717e-07
5.35845e-06
5.20415e-07
5.29413e-07
5.28206e-07
5.18488e-07
5.28534e-07
5.17993e-07
5.20541e-07
5.20628e-07
5.20592e-07
5.2806e-07
5.28511e-07
5.2101e-07
5.2823e-07
5.20544e-07
5.18539e-07
5.2912e-07
5.29381e-07
5.31999e-07
5.18374e-07
5.29564e-07
5.21045e-07
5.20717e-07
5.28313e-07
5.28359e-07
5.20885e-07
5.2831e-07
5.20748e-07
5.20844e-07
4.30908e-05
2.37486e-05
5.30521e-07
5.18929e-07
1.37802e-05
5.17632e-07
1.22461e-05
3.56097e-06
3.19719e-06
1.54685e-05
5.31915e-07
3.93414e-07
5.0388e-07
4.35095e-05
6.40318e-07
5.74741e-06
8.62056e-07
5.35846e-06
6.93696e-07
7.13712e-06
5.20415e-07
5.28206e-07
5.29413e-07
5.18491e-07
5.28534e-07
5.20541e-07
5.17993e-07
5.20628e-07
5.20592e-07
5.28511e-07
5.28056e-07
5.2823e-07
5.20544e-07
5.21013e-07
5.20717e-07
5.28313e-07
5.28359e-07
5.20885e-07
5.2831e-07
5.20748e-07
5.20844e-07
5.18539e-07
5.29121e-07
5.29381e-07
5.32011e-07
5.29564e-07
5.21048e-07
5.18373e-07
5.35661e-07
5.35661e-07
5.35659e-07
5.35633e-07
5.35633e-07
5.35665e-07
5.35665e-07
5.35647e-07
5.35662e-07
5.35665e-07
5.35647e-07
5.35662e-07
5.35661e-07
5.35661e-07
5.35659e-07
5.35633e-07
5.35633e-07
5.35665e-07
5.35665e-07
5.35647e-07
5.35662e-07
5.35665e-07
5.35647e-07
5.35662e-07
5.35661e-07
5.35661e-07
5.35659e-07
5.35633e-07
5.35633e-07
5.35665e-07
5.35665e-07
5.35647e-07
5.35662e-07
5.35665e-07
5.35647e-07
5.35662e-07
5.20933e-07
5.28433e-07
5.28433e-07
5.20956e-07
5.28432e-07
5.20945e-07
5.20945e-07
5.20928e-07
5.20786e-07
5.28392e-07
5.28392e-07
5.28386e-07
5.20858e-07
5.20858e-07
5.2093e-07
5.28415e-07
5.28406e-07
5.20903e-07
5.28412e-07
5.20881e-07
5.20945e-07
5.2093e-07
5.28415e-07
5.28406e-07
5.20903e-07
5.28412e-07
5.20881e-07
5.20945e-07
5.20933e-07
5.28433e-07
5.28433e-07
5.20956e-07
5.28432e-07
5.20945e-07
5.20945e-07
5.20928e-07
5.20786e-07
5.28392e-07
5.28391e-07
5.20858e-07
5.28386e-07
5.20858e-07
5.2093e-07
5.28415e-07
5.28406e-07
5.20903e-07
5.20881e-07
5.28412e-07
5.20945e-07
5.2093e-07
5.28415e-07
5.28406e-07
5.20903e-07
5.28412e-07
5.20945e-07
5.20881e-07
5.20933e-07
5.28433e-07
5.28433e-07
5.20956e-07
5.28432e-07
5.20945e-07
5.20945e-07
5.20928e-07
5.20786e-07
5.28392e-07
5.28392e-07
5.20858e-07
5.28386e-07
5.20858e-07
5.2093e-07
5.28415e-07
5.28406e-07
5.20903e-07
5.20881e-07
5.28412e-07
5.20945e-07
5.2093e-07
5.28415e-07
5.28406e-07
5.20903e-07
5.28412e-07
5.20945e-07
5.20881e-07
5.20933e-07
5.28433e-07
5.28433e-07
5.20956e-07
5.28432e-07
5.20945e-07
5.20945e-07
5.20928e-07
5.20786e-07
5.28392e-07
5.28392e-07
5.28386e-07
5.20858e-07
5.20858e-07
5.2093e-07
5.28415e-07
5.28406e-07
5.20903e-07
5.28412e-07
5.20945e-07
5.20881e-07
5.2093e-07
5.28415e-07
5.28406e-07
5.20903e-07
5.28412e-07
5.20945e-07
5.20881e-07
5.35213e-07
5.33275e-07
5.3527e-07
5.35502e-07
5.35534e-07
5.35299e-07
5.35579e-07
5.35626e-07
5.35539e-07
5.34196e-07
5.33456e-07
5.34664e-07
5.20415e-07
5.29413e-07
5.28206e-07
5.18488e-07
5.28534e-07
5.17993e-07
5.20541e-07
5.20628e-07
5.20592e-07
5.28063e-07
5.2851e-07
5.2823e-07
5.21006e-07
5.20545e-07
5.18539e-07
5.29121e-07
5.29381e-07
5.31996e-07
5.29564e-07
5.18374e-07
5.21045e-07
5.20717e-07
5.28313e-07
5.28359e-07
5.20885e-07
5.2831e-07
5.20844e-07
5.20748e-07
4.3083e-05
5.30521e-07
2.37478e-05
5.18929e-07
5.17651e-07
1.37809e-05
1.22461e-05
3.56142e-06
3.19545e-06
1.54668e-05
5.31916e-07
3.93365e-07
5.03828e-07
4.35063e-05
6.40428e-07
8.61437e-07
5.74722e-06
6.93721e-07
5.3585e-06
7.13713e-06
5.20416e-07
5.28206e-07
5.29413e-07
5.18491e-07
5.28534e-07
5.20541e-07
5.17993e-07
5.20628e-07
5.20592e-07
5.28511e-07
5.28059e-07
5.20544e-07
5.2823e-07
5.2101e-07
5.20717e-07
5.28313e-07
5.28359e-07
5.20885e-07
5.20844e-07
5.2831e-07
5.20748e-07
5.18539e-07
5.29121e-07
5.29381e-07
5.32014e-07
5.29564e-07
5.21048e-07
5.18373e-07
4.30905e-05
2.37485e-05
5.30521e-07
5.1893e-07
1.37802e-05
5.1763e-07
1.22463e-05
3.56075e-06
3.19728e-06
1.54677e-05
5.31914e-07
3.93425e-07
5.03894e-07
4.35088e-05
6.40309e-07
5.74728e-06
8.61931e-07
5.35852e-06
6.93683e-07
7.13677e-06
6.5636e-05
6.5635e-05
5.33475e-07
5.34993e-07
5.34979e-07
5.33209e-07
2.00837e-05
5.34068e-07
5.3367e-07
2.00842e-05
5.34067e-07
5.33669e-07
1.83622e-06
1.08083e-06
4.83745e-07
6.77563e-05
6.77488e-05
5.34986e-07
3.77455e-05
3.77461e-05
5.17956e-07
5.20581e-07
5.28903e-07
5.28928e-07
5.19675e-07
5.29345e-07
5.19643e-07
6.18432e-07
6.06471e-07
1.77501e-06
4.54128e-06
5.65503e-07
4.06814e-06
7.9253e-07
6.18773e-07
6.06356e-07
1.77523e-06
4.54094e-06
4.06836e-06
5.65703e-07
7.92008e-07
5.12434e-07
7.90292e-06
5.29691e-07
5.87997e-07
5.20859e-07
5.299e-07
1.12088e-05
5.12436e-07
7.90268e-06
5.29692e-07
5.87986e-07
5.29903e-07
1.12085e-05
5.20862e-07
1.3258e-06
1.40293e-05
1.40304e-05
3.72876e-05
3.72898e-05
2.83292e-06
1.83628e-06
1.08083e-06
5.35212e-07
5.33275e-07
5.3527e-07
5.35502e-07
5.35533e-07
5.35298e-07
5.35579e-07
5.35626e-07
5.35539e-07
5.34196e-07
5.33456e-07
5.34664e-07
5.20416e-07
5.28205e-07
5.29413e-07
5.18488e-07
5.28533e-07
5.20542e-07
5.17993e-07
5.20628e-07
5.20592e-07
5.28511e-07
5.28063e-07
5.2823e-07
5.20545e-07
5.21007e-07
5.20717e-07
5.28313e-07
5.28359e-07
5.20885e-07
5.2831e-07
5.20844e-07
5.20748e-07
5.18539e-07
5.29121e-07
5.29381e-07
5.32002e-07
5.29564e-07
5.18374e-07
5.21045e-07
5.20414e-07
5.28206e-07
5.29413e-07
5.18489e-07
5.28536e-07
5.20541e-07
5.17993e-07
5.20628e-07
5.20592e-07
5.28511e-07
5.2806e-07
5.20544e-07
5.2823e-07
5.21009e-07
5.20717e-07
5.28313e-07
5.28359e-07
5.20885e-07
5.20844e-07
5.2831e-07
5.20748e-07
5.18538e-07
5.29121e-07
5.29381e-07
5.32016e-07
5.29564e-07
5.21047e-07
5.18374e-07
4.30831e-05
5.30521e-07
2.37478e-05
5.18928e-07
5.17652e-07
1.3781e-05
1.22471e-05
3.56149e-06
3.19556e-06
1.54659e-05
5.31914e-07
3.93372e-07
5.03832e-07
4.35063e-05
6.4039e-07
8.6146e-07
5.74728e-06
6.93719e-07
5.35848e-06
7.13707e-06
4.3092e-05
5.30521e-07
2.37483e-05
5.18929e-07
5.17638e-07
1.37802e-05
1.2246e-05
3.56077e-06
3.19724e-06
1.54677e-05
5.31914e-07
3.93443e-07
5.03877e-07
4.3507e-05
6.40386e-07
8.61899e-07
5.74728e-06
6.93718e-07
5.35841e-06
7.13667e-06
4.83736e-07
6.77552e-05
6.77481e-05
5.34986e-07
3.77453e-05
3.77476e-05
5.17956e-07
5.20581e-07
5.2891e-07
5.28921e-07
5.29345e-07
5.19666e-07
5.19652e-07
6.1854e-07
6.06318e-07
1.7752e-06
4.54066e-06
7.91965e-07
5.65587e-07
4.06804e-06
6.1868e-07
6.06509e-07
1.77529e-06
4.54178e-06
7.92579e-07
5.65636e-07
4.06846e-06
5.12437e-07
7.90286e-06
5.29692e-07
5.88012e-07
5.29901e-07
5.20861e-07
1.12085e-05
5.12429e-07
7.90265e-06
5.29692e-07
5.88004e-07
5.29903e-07
5.20862e-07
1.12087e-05
1.32584e-06
1.40287e-05
1.40312e-05
2.83314e-06
3.72886e-05
3.7291e-05
1.83616e-06
1.08085e-06
1.8362e-06
1.08088e-06
1.41174e-05
1.54002e-05
1.41196e-05
1.54027e-05
2.87041e-06
2.09724e-05
2.09779e-05
1.94479e-05
1.94528e-05
2.84831e-06
9.85831e-07
6.5524e-07
4.85915e-06
2.4973e-06
9.19012e-07
5.13519e-06
6.81989e-07
9.86774e-07
6.55524e-07
4.86077e-06
2.49794e-06
9.19902e-07
5.13729e-06
6.82313e-07
2.90669e-06
1.60061e-05
1.60098e-05
2.93175e-06
1.78323e-05
1.78373e-05
1.04194e-06
5.60798e-06
2.43794e-06
7.1284e-07
5.38028e-06
1.07437e-06
7.02485e-07
1.04288e-06
5.61042e-06
2.43843e-06
7.13169e-07
5.38247e-06
1.07521e-06
7.02813e-07
1.96526e-05
1.87276e-05
1.9656e-05
1.87307e-05
2.87677e-06
2.23339e-05
2.23395e-05
2.85601e-06
2.36056e-05
2.36116e-05
1.17443e-06
7.40959e-07
2.30593e-06
6.48074e-06
6.27359e-06
7.37736e-07
1.19376e-06
1.17532e-06
7.41266e-07
2.30663e-06
6.4841e-06
6.2763e-06
7.38027e-07
1.19446e-06
1.13828e-06
5.83632e-06
7.2429e-07
2.31523e-06
1.11488e-06
6.05492e-06
7.29695e-07
1.13904e-06
5.83882e-06
7.24626e-07
2.31577e-06
1.11587e-06
6.05772e-06
7.30013e-07
2.92434e-06
2.57107e-05
2.57171e-05
2.47071e-05
2.47129e-05
2.95717e-06
8.34464e-06
1.06443e-06
7.27129e-06
1.22616e-06
6.9336e-06
1.17239e-06
8.79465e-06
1.93249e-05
3.38663e-06
4.16463e-06
1.72441e-05
3.20939e-06
7.88778e-06
9.99595e-07
6.21348e-06
1.00018e-06
6.58805e-06
7.39533e-06
1.09067e-06
2.12091e-05
2.86546e-06
4.39058e-06
3.02004e-06
2.29753e-05
9.66909e-06
7.60108e-06
1.28901e-06
1.1968e-06
9.23327e-06
7.92719e-06
1.33223e-06
2.72633e-05
5.21057e-06
2.64783e-06
2.83693e-05
2.68054e-06
2.60137e-05
2.78576e-06
5.0159e-06
2.45565e-05
2.71527e-06
1.00906e-05
1.24794e-06
8.55857e-06
1.4272e-06
1.0506e-05
8.24471e-06
1.39011e-06
9.67075e-06
7.60128e-06
1.28947e-06
1.1969e-06
9.23482e-06
7.92742e-06
1.33268e-06
2.72664e-05
5.21136e-06
2.64738e-06
2.68026e-06
2.83717e-05
2.60166e-05
2.78546e-06
5.01663e-06
2.45599e-05
2.71446e-06
1.00923e-05
1.24792e-06
8.55883e-06
1.42755e-06
8.24492e-06
1.39048e-06
1.05077e-05
2.87062e-06
2.09763e-05
2.09747e-05
1.9451e-05
1.94503e-05
2.8485e-06
9.86866e-07
6.55574e-07
4.86063e-06
2.49757e-06
5.13719e-06
9.20036e-07
6.8235e-07
9.85822e-07
6.55228e-07
4.85915e-06
2.49758e-06
6.81963e-07
9.18893e-07
5.13543e-06
2.90687e-06
1.60073e-05
1.60083e-05
1.78347e-05
2.93181e-06
1.78348e-05
1.04307e-06
5.6104e-06
2.43834e-06
7.13213e-07
5.38251e-06
7.02854e-07
1.07541e-06
1.04179e-06
5.60817e-06
2.4381e-06
7.12831e-07
7.02447e-07
5.3802e-06
1.07433e-06
1.41188e-05
1.54017e-05
1.96553e-05
1.87304e-05
2.87696e-06
2.2338e-05
2.23361e-05
2.85618e-06
2.36103e-05
2.36073e-05
1.17547e-06
7.4129e-07
2.30642e-06
6.48408e-06
7.38075e-07
6.27656e-06
1.19464e-06
1.17438e-06
7.40953e-07
2.30621e-06
6.481e-06
6.27349e-06
7.37718e-07
1.19361e-06
1.13923e-06
5.83902e-06
7.24657e-07
2.31576e-06
7.30054e-07
1.11597e-06
6.0577e-06
1.13815e-06
5.83623e-06
7.24266e-07
2.31563e-06
1.11481e-06
6.05503e-06
7.29691e-07
2.92464e-06
2.57163e-05
2.57124e-05
2.47119e-05
2.47087e-05
2.95706e-06
1.96543e-05
1.87292e-05
8.34461e-06
1.06454e-06
7.27162e-06
1.22612e-06
6.93381e-06
1.17243e-06
8.79489e-06
1.93249e-05
3.38657e-06
4.16483e-06
1.72437e-05
3.20978e-06
7.88795e-06
9.99624e-07
6.21352e-06
1.00008e-06
6.58828e-06
7.39519e-06
1.09069e-06
2.12087e-05
2.86572e-06
4.39092e-06
3.01987e-06
2.29751e-05
9.66937e-06
1.28917e-06
7.60137e-06
1.19667e-06
9.23351e-06
1.33232e-06
7.92746e-06
2.72634e-05
5.2112e-06
2.64811e-06
2.83697e-05
2.68042e-06
2.60135e-05
2.78574e-06
5.01648e-06
2.45565e-05
2.71524e-06
1.00908e-05
1.24817e-06
1.42744e-06
8.55901e-06
1.05065e-05
1.39012e-06
8.24502e-06
9.67086e-06
7.6015e-06
1.28941e-06
1.19673e-06
9.23468e-06
7.92771e-06
1.33265e-06
2.72655e-05
5.21173e-06
2.64772e-06
2.68016e-06
2.83719e-05
2.60159e-05
2.78532e-06
5.01691e-06
2.45591e-05
2.71458e-06
1.00921e-05
1.24817e-06
8.55921e-06
1.42754e-06
8.24516e-06
1.39042e-06
1.0508e-05
8.34317e-06
1.06465e-06
1.22558e-06
7.2713e-06
1.17192e-06
6.93367e-06
8.79327e-06
1.93232e-05
3.38753e-06
4.16436e-06
3.21085e-06
1.72394e-05
7.88692e-06
9.99599e-07
9.99647e-07
6.21346e-06
1.09007e-06
7.39453e-06
6.58804e-06
2.12034e-05
2.86705e-06
4.3903e-06
3.02015e-06
2.29733e-05
8.34451e-06
1.06452e-06
7.27133e-06
1.226e-06
6.93376e-06
1.17246e-06
8.79429e-06
1.93242e-05
3.3866e-06
4.16478e-06
1.72434e-05
3.20945e-06
7.88756e-06
9.99526e-07
6.21356e-06
1.00016e-06
7.39514e-06
6.58807e-06
1.09057e-06
2.12082e-05
2.86557e-06
4.3905e-06
3.01989e-06
2.29742e-05
9.66923e-06
1.28912e-06
7.60137e-06
1.19665e-06
9.23298e-06
1.33218e-06
7.92743e-06
2.7261e-05
5.21088e-06
2.64787e-06
2.68054e-06
2.837e-05
2.6014e-05
2.78563e-06
5.01613e-06
2.45544e-05
2.71515e-06
1.00903e-05
1.24815e-06
1.42728e-06
8.55897e-06
1.39015e-06
8.24502e-06
1.05063e-05
9.67045e-06
7.60151e-06
1.28946e-06
1.19675e-06
9.2346e-06
7.92749e-06
1.3326e-06
2.72654e-05
5.2113e-06
2.64735e-06
2.68018e-06
2.83708e-05
2.60153e-05
2.78516e-06
5.01672e-06
2.45586e-05
2.71471e-06
1.00921e-05
1.24813e-06
8.55893e-06
1.4275e-06
8.24511e-06
1.39049e-06
1.05075e-05
2.87019e-06
2.09763e-05
2.0974e-05
1.94512e-05
1.94496e-05
2.8484e-06
9.86938e-07
6.55592e-07
4.86056e-06
2.49786e-06
5.13731e-06
9.19996e-07
6.82375e-07
9.85773e-07
6.55196e-07
4.8591e-06
2.49753e-06
6.81957e-07
9.18849e-07
5.13526e-06
2.9068e-06
1.6008e-05
1.60079e-05
1.78353e-05
2.93177e-06
1.78342e-05
1.04293e-06
5.61042e-06
2.43842e-06
7.13224e-07
5.38233e-06
7.02874e-07
1.07538e-06
1.04174e-06
5.60797e-06
2.43798e-06
7.12805e-07
7.02432e-07
5.38011e-06
1.07429e-06