/*--------------------------------*- C++ -*----------------------------------*\
| =========                 |                                                 |
| \\      /  F ield         | OpenFOAM: The Open Source CFD Toolbox           |
|  \\    /   O peration     | Version:  v2006                                 |
|   \\  /    A nd           | Website:  www.openfoam.com                      |
|    \\/     M anipulation  |                                                 |
\*---------------------------------------------------------------------------*/
FoamFile
{
    version     2.0;
    format      ascii;
    class       volScalarField;
    location    "125";
    object      nut;
}
// * * * * * * * * * * * * * * * * * * * * * * * * * * * * * * * * * * * * * //

dimensions      [0 2 -1 0 0 0 0];


internalField   nonuniform List<scalar> 
14457
(
0.000227799
0.000211659
0.000193791
0.000211658
0.000211656
0.000211648
0.000193787
4.75002e-05
4.99126e-05
4.74963e-05
4.99091e-05
0.000227797
2.60449e-05
5.82044e-05
2.60487e-05
2.6046e-05
3.06203e-05
3.06111e-05
5.82077e-05
0.000223721
0.000124602
5.81984e-05
0.000223718
0.000124595
4.74944e-05
4.99063e-05
0.000223716
5.81961e-05
0.000124595
3.06099e-05
3.06165e-05
2.60472e-05
4.74971e-05
2.22029e-05
2.51743e-05
4.7691e-05
2.22693e-05
2.5421e-05
3.88666e-05
4.88567e-05
4.24791e-05
4.32556e-05
3.87737e-05
4.26374e-05
4.24123e-05
2.22026e-05
2.51735e-05
4.76869e-05
2.22691e-05
2.54197e-05
3.8866e-05
4.88533e-05
4.32529e-05
4.24783e-05
3.87731e-05
4.24097e-05
4.26365e-05
2.60196e-05
2.60233e-05
2.60205e-05
5.38362e-05
9.27301e-05
4.69158e-05
3.05306e-05
5.49121e-05
4.70388e-05
9.0951e-05
5.37931e-05
9.2695e-05
4.69048e-05
3.05218e-05
5.48673e-05
4.70293e-05
9.09102e-05
2.42304e-05
2.3504e-05
2.35017e-05
2.41412e-05
2.34505e-05
2.22016e-05
2.51757e-05
4.76851e-05
2.22679e-05
2.54227e-05
3.88645e-05
4.88515e-05
4.2478e-05
4.32452e-05
4.26365e-05
3.87714e-05
4.24041e-05
5.37915e-05
9.26892e-05
4.69052e-05
3.05205e-05
4.70293e-05
5.48669e-05
9.09033e-05
5.38365e-05
9.27281e-05
4.69156e-05
3.05273e-05
9.09492e-05
5.49117e-05
4.70396e-05
2.42291e-05
2.35016e-05
2.3504e-05
2.41398e-05
2.34526e-05
2.60216e-05
2.22037e-05
2.51734e-05
4.76878e-05
2.54213e-05
2.22691e-05
0.000230332
0.000230333
0.000230966
0.000110759
0.000159042
0.000159028
0.000193382
0.00011288
0.000157574
0.000157557
0.000110757
0.000159022
0.000159042
0.000193378
0.000157572
0.000112879
0.000157551
0.000230332
0.000230332
0.000230966
0.000155232
0.000127587
8.61563e-05
5.72205e-05
0.00015618
0.000125995
8.46692e-05
0.000155232
0.000127588
8.61555e-05
8.46718e-05
0.000156182
0.000125996
0.000176308
0.000122215
0.000113287
0.000186572
0.000111086
0.00017743
0.000185242
0.000155223
0.000127564
8.6148e-05
5.72143e-05
8.46657e-05
0.000156166
0.00012597
0.000176301
0.000122208
0.000113279
0.000186567
0.00011108
0.000177419
0.000185236
0.000155214
0.000127557
8.61458e-05
5.72124e-05
0.00015616
8.46621e-05
0.000125964
0.000176291
0.000122203
0.000186565
0.000113274
0.000177414
0.00011107
0.000233973
0.000233116
0.000233115
0.000233423
0.000232532
0.000227801
0.0002278
0.000223866
0.000234267
0.000234448
0.000234449
0.000234267
0.000234448
0.000234448
0.000234274
0.000234274
0.000234274
0.000234274
0.000234448
0.000234448
0.000234266
0.000234448
0.000234448
0.000234266
0.000233423
0.000226205
0.000233117
0.000233114
0.000229361
0.000229356
0.000233422
0.000226205
0.000233114
0.000233114
0.00022936
0.000229355
0.000233116
0.000229364
0.00022936
0.000233423
0.000226203
0.000233114
0.000229364
0.000229359
0.000226201
0.000223867
0.0002278
0.000227795
0.000223867
0.000227797
0.000227794
0.000227797
0.000223866
0.000227796
0.00023473
0.000234746
0.000234729
0.000234729
0.000235118
0.000234798
0.000234702
0.000234727
0.000235118
0.000234798
0.000234727
0.000234701
0.000234867
0.000233566
0.000233566
0.000104652
3.87413e-05
0.000129114
3.98251e-05
2.16828e-05
2.28305e-05
0.000104655
3.87378e-05
0.000129112
3.98211e-05
0.000233973
0.000233973
0.000233973
0.000232935
0.000232935
0.000232935
0.000232935
0.0002062
9.36742e-05
0.000233969
0.000231994
0.000222612
8.7228e-05
0.000233611
2.16821e-05
2.28301e-05
0.000206193
0.000233969
9.36714e-05
0.000231994
0.000222617
0.000233611
8.72252e-05
4.77974e-05
4.77892e-05
0.000231344
4.40185e-05
4.40114e-05
7.25719e-05
4.24351e-05
8.14007e-05
4.37643e-05
2.47748e-05
2.54625e-05
7.25666e-05
4.24309e-05
8.13941e-05
4.37601e-05
0.000232532
0.000232532
0.000232532
0.000167494
7.94341e-05
0.000232081
0.000226097
0.000180209
7.45137e-05
0.000231376
2.47736e-05
2.54619e-05
0.00016749
0.00023208
7.94328e-05
0.000226096
0.000180205
0.000231376
7.45121e-05
3.91608e-05
3.91531e-05
0.000219592
3.65755e-05
3.6567e-05
0.000234867
0.000233565
0.000233566
2.32577e-05
0.00021417
2.32565e-05
0.00021417
0.000234435
5.13285e-05
5.13251e-05
0.00022999
0.000229992
0.000235118
0.000234798
0.000234701
0.000234727
0.000235118
0.000234798
0.000234701
0.000234727
0.000234477
4.02628e-05
0.000218815
0.000147826
0.000234477
4.02614e-05
0.000218815
0.000147818
0.000233888
0.000234475
0.000100092
0.00023427
0.000233359
0.000234596
0.000228477
0.000233888
0.000234474
0.000100094
0.00023427
0.000233359
0.000234597
0.000228477
0.000234867
0.000233565
0.000233566
2.32567e-05
0.00021417
0.000234435
5.13262e-05
5.13241e-05
0.000229992
0.000229991
2.32571e-05
0.000214168
0.000235118
0.000234798
0.000234702
0.000234727
0.000235118
0.000234798
0.000234727
0.000234702
0.000234477
4.02592e-05
0.000218816
0.000147825
0.000233889
0.000234474
0.000100071
0.000234271
0.000233359
0.000234597
0.000228475
0.000234477
4.0259e-05
0.000218816
0.000147836
0.000233889
0.000234474
0.000234271
0.000100081
0.000234597
0.000233359
0.000228477
0.00023473
0.000234746
0.000234729
0.000234729
0.00023473
0.000234746
0.000234729
0.000234729
0.00023473
0.000234746
0.000234729
0.000234729
0.000234591
0.000234574
0.000234253
0.000234253
0.000234592
0.000234592
0.000234252
0.000234591
0.000234574
0.000234253
0.000234253
0.000234592
0.000234592
0.000234252
0.000234591
0.000234574
0.000234253
0.000234253
0.000234592
0.000234592
0.000234253
0.000234591
0.000234574
0.000234253
0.000234253
0.000234592
0.000234592
0.000234253
0.000235118
0.000234798
0.000234727
0.000234702
0.000233889
0.000234474
0.000100083
0.000234271
0.000233359
0.000234597
0.000228476
0.000234477
4.02597e-05
0.000218816
0.00014784
0.000233888
0.000234474
0.000234271
0.000100086
0.000234597
0.000233359
0.000228479
0.000234477
4.02592e-05
0.000218817
0.000147838
0.000234867
0.000233566
0.000233566
2.32564e-05
0.000214168
0.000234435
5.13224e-05
5.13265e-05
0.000229992
0.000229992
2.32571e-05
0.000214169
0.000235118
0.000234798
0.000234727
0.000234702
0.000233888
0.000234474
0.000234271
0.000100076
0.000234597
0.000233359
0.000228475
0.000233888
0.000234474
0.000234271
0.000100081
0.000234597
0.000233359
0.000228476
0.000234477
4.02596e-05
0.000218816
0.000147816
0.000234477
4.02585e-05
0.000218816
0.000147824
0.000234435
5.13292e-05
5.13209e-05
0.000229992
0.000229992
2.3257e-05
0.000214168
2.32563e-05
0.000214168
2.16841e-05
2.28326e-05
2.16825e-05
2.28308e-05
4.78053e-05
4.77909e-05
0.000231346
4.4018e-05
4.40093e-05
2.44818e-05
2.33059e-05
2.44797e-05
2.33039e-05
0.000229667
4.00653e-05
4.00561e-05
4.31048e-05
4.30888e-05
0.000104646
3.87398e-05
0.000129133
3.98227e-05
0.000206201
9.36839e-05
0.000233969
0.000231992
0.000222609
8.72319e-05
0.000233611
0.0002062
9.36727e-05
0.000233969
0.000231989
0.000222611
8.7221e-05
0.000233611
9.84292e-05
4.19631e-05
4.03785e-05
8.5581e-05
9.84294e-05
4.19605e-05
4.03761e-05
8.55711e-05
0.000200084
0.000230759
8.08092e-05
0.000232682
8.56703e-05
0.000233189
0.00018564
0.000200082
0.000230755
8.08e-05
0.000232682
8.56549e-05
0.000233189
0.000185635
4.77948e-05
4.77946e-05
0.000231346
4.40144e-05
4.40138e-05
2.16832e-05
2.28319e-05
2.44799e-05
2.33036e-05
0.000229667
4.00601e-05
4.00628e-05
4.30917e-05
4.30974e-05
2.44813e-05
2.33052e-05
0.000206195
9.36598e-05
0.000233969
0.000231991
0.000222609
8.7213e-05
0.000233611
0.000104644
3.87375e-05
0.000129126
3.98199e-05
0.000206196
0.000233969
9.36671e-05
0.000231988
0.000222613
0.000233611
8.72135e-05
9.84101e-05
4.19591e-05
4.03744e-05
8.55753e-05
0.000200081
0.000230756
8.07947e-05
0.000232683
8.56483e-05
0.000233189
0.000185633
9.84189e-05
4.19579e-05
4.03739e-05
8.55751e-05
0.00020008
0.000230755
0.000232682
8.07919e-05
0.000233188
8.56502e-05
0.000185631
0.000104657
3.87384e-05
0.000129108
3.9822e-05
0.000206202
0.000233969
9.36717e-05
0.000231992
0.000222614
0.000233611
8.72234e-05
0.000104655
3.87378e-05
0.00012913
3.98218e-05
0.000200082
0.000230759
8.08088e-05
0.000232683
8.56662e-05
0.000233189
0.000185635
9.84115e-05
4.19604e-05
4.0376e-05
8.55764e-05
0.000200081
0.000230758
0.000232682
8.08048e-05
0.000233189
8.56633e-05
0.000185635
9.84186e-05
4.19596e-05
4.03748e-05
8.55764e-05
4.77944e-05
4.77989e-05
0.000231345
4.40086e-05
4.40184e-05
2.16834e-05
2.28322e-05
2.44789e-05
2.33031e-05
0.000229667
4.00516e-05
4.00626e-05
4.30893e-05
4.30954e-05
2.44806e-05
2.33053e-05
0.000206194
0.000233969
9.36641e-05
0.00023199
0.000222615
0.000233611
8.72168e-05
0.000104644
3.87384e-05
0.000129126
3.98222e-05
0.000104639
3.87368e-05
0.000129125
3.98203e-05
0.000200083
0.000230759
0.000232683
8.08054e-05
0.000233189
8.56612e-05
0.000185632
0.000200077
0.000230756
0.000232682
8.07951e-05
0.000233188
8.56508e-05
0.000185629
9.842e-05
4.19599e-05
4.03758e-05
8.55681e-05
9.84181e-05
4.19581e-05
4.03735e-05
8.55701e-05
2.16831e-05
2.28312e-05
2.16821e-05
2.28299e-05
0.000229667
4.00662e-05
4.00565e-05
4.30955e-05
4.30846e-05
2.44804e-05
2.33045e-05
2.44792e-05
2.33031e-05
2.47767e-05
2.54648e-05
2.47748e-05
2.54626e-05
3.91724e-05
3.91549e-05
0.000219597
3.65752e-05
3.65685e-05
2.56202e-05
2.56179e-05
0.000216777
3.57337e-05
3.57179e-05
7.25608e-05
4.24326e-05
8.14017e-05
4.37614e-05
0.000167496
7.94388e-05
0.000232081
0.000226092
0.000180211
7.45157e-05
0.000231375
0.000167492
7.94243e-05
0.00023208
0.000226087
0.000180206
7.45053e-05
0.000231375
6.96328e-05
4.41518e-05
6.96352e-05
4.41491e-05
0.000162886
0.000224266
7.31545e-05
0.000230568
0.000162881
0.00022426
7.31429e-05
0.000230566
3.9159e-05
3.91619e-05
0.000219597
3.65697e-05
3.65729e-05
2.47762e-05
2.54638e-05
2.56178e-05
0.000216775
3.57215e-05
3.57261e-05
2.56191e-05
0.00016749
7.94223e-05
0.00023208
0.000226093
0.000180205
7.45025e-05
0.000231376
7.25726e-05
4.24299e-05
8.13932e-05
4.37591e-05
0.000167483
0.00023208
7.9423e-05
0.000226085
0.000180203
0.000231375
7.44968e-05
6.96281e-05
4.41478e-05
0.000162879
0.000224263
7.31416e-05
0.000230566
6.96187e-05
4.41465e-05
0.000162877
0.000224259
0.000230565
7.31424e-05
7.25677e-05
4.24325e-05
8.13959e-05
4.37614e-05
0.00016749
0.00023208
7.94312e-05
0.00022609
0.000180206
0.000231375
7.45106e-05
7.25664e-05
4.24313e-05
8.13949e-05
4.376e-05
0.000162882
0.000224268
7.31526e-05
0.000230567
6.96298e-05
4.41492e-05
0.000162879
0.000224263
0.000230566
7.31487e-05
6.96277e-05
4.41479e-05
3.91575e-05
3.91625e-05
0.000219595
3.65626e-05
3.65749e-05
2.47757e-05
2.54636e-05
2.5617e-05
0.000216775
3.57193e-05
3.57251e-05
2.56189e-05
0.000167485
0.00023208
7.94221e-05
0.00022609
0.000180201
0.000231375
7.45019e-05
7.25658e-05
4.24318e-05
8.14e-05
4.3761e-05
7.25672e-05
4.24301e-05
8.13957e-05
4.37586e-05
0.000224267
7.31501e-05
0.000224263
7.31404e-05
4.41486e-05
4.41466e-05
2.47753e-05
2.54628e-05
2.47741e-05
2.54616e-05
0.000216774
3.57239e-05
3.5717e-05
2.56182e-05
2.56169e-05
0.000234742
0.000229498
0.000224625
0.000234742
0.000229499
0.000224627
0.000224624
0.000224627
0.000234742
0.000229496
0.000224627
0.000234742
0.000229499
0.000234742
0.000229499
0.000234742
0.000229499
0.000224626
0.000234742
0.000229498
0.000234742
0.000229499
0.000224627
0.000224627
0.00023473
0.00023473
0.00023473
0.00023474
0.00023474
0.000234727
0.000234729
0.00023473
0.000234729
0.000234729
0.00023473
0.000234729
0.000234949
0.000234874
0.0002349
0.000234742
0.000234825
0.000234825
0.000234511
0.000234989
0.000235125
0.000234742
0.00023474
0.000234758
0.000234874
0.000234949
0.0002349
0.000234825
0.000234742
0.000234825
0.000234742
0.00023474
0.000234758
0.000234511
0.000234989
0.000235125
4.99124e-06
4.99105e-06
0.000234864
0.000234977
0.000234979
0.000234958
9.27339e-06
0.000234687
0.000234731
9.27341e-06
0.000234687
0.000234731
3.20042e-05
0.000110409
3.55336e-05
9.20439e-05
3.50031e-05
9.78638e-05
3.25452e-05
1.93006e-05
3.36194e-05
3.87893e-05
1.87287e-05
3.27766e-05
3.14772e-05
0.000119198
3.41228e-05
0.00011791
3.10435e-05
3.44917e-05
0.000106801
1.98712e-05
3.22683e-05
3.92561e-05
3.25333e-05
2.0395e-05
2.18227e-05
2.23048e-05
3.20035e-05
0.0001104
9.20424e-05
3.5533e-05
9.78546e-05
3.50024e-05
3.25446e-05
1.93008e-05
3.36199e-05
3.87853e-05
1.87291e-05
3.27743e-05
3.14769e-05
0.00011918
0.000117913
3.4122e-05
3.10435e-05
0.000106789
3.44909e-05
1.98708e-05
3.22641e-05
3.92523e-05
3.25352e-05
2.03947e-05
2.18222e-05
2.23042e-05
3.84877e-05
2.12637e-05
2.12623e-05
2.07583e-05
2.07571e-05
3.72589e-05
0.000119702
0.000177968
3.91419e-05
4.58757e-05
0.000130373
0.000168002
3.93225e-05
0.000119597
0.000177891
3.91323e-05
4.58656e-05
0.000130248
0.000167929
3.93119e-05
3.98713e-05
1.97666e-05
1.97657e-05
4.15908e-05
2.02319e-05
2.02303e-05
0.000111326
4.02709e-05
4.48257e-05
0.00015444
0.00015989
3.97743e-05
0.000105892
0.000111218
4.02606e-05
4.48148e-05
0.000154369
0.000159813
3.97646e-05
0.000105806
3.57241e-05
7.50115e-05
3.91275e-05
6.24909e-05
3.87434e-05
6.46978e-05
3.6086e-05
2.22852e-05
2.93545e-05
4.29053e-05
2.20945e-05
2.87026e-05
3.53452e-05
7.85003e-05
3.79234e-05
7.0406e-05
3.49349e-05
3.83459e-05
6.77423e-05
2.24318e-05
2.76703e-05
4.33347e-05
2.81836e-05
2.25452e-05
2.50443e-05
2.52634e-05
3.57235e-05
7.50053e-05
6.24807e-05
3.91267e-05
6.46967e-05
3.87426e-05
3.6085e-05
2.22855e-05
2.93553e-05
4.29013e-05
2.20946e-05
2.87016e-05
3.5345e-05
7.8495e-05
7.04059e-05
3.79226e-05
3.49343e-05
6.77395e-05
3.83452e-05
2.24319e-05
2.7669e-05
4.33308e-05
2.81819e-05
2.25449e-05
2.50432e-05
2.52626e-05
2.9238e-05
2.34927e-05
2.34908e-05
2.33524e-05
2.33511e-05
2.8544e-05
8.19316e-05
0.000132356
4.26497e-05
3.82487e-05
8.46845e-05
0.00012915
4.30621e-05
8.18672e-05
0.000132297
4.26404e-05
3.82406e-05
8.46131e-05
0.000129097
4.30521e-05
3.02648e-05
2.29768e-05
2.29753e-05
3.11172e-05
2.31885e-05
2.3187e-05
7.87838e-05
4.38323e-05
3.73356e-05
0.000122694
0.000125634
4.34609e-05
7.63968e-05
7.87189e-05
4.38224e-05
3.73286e-05
0.000122643
0.000125579
4.34516e-05
7.63339e-05
4.99097e-06
4.99141e-06
0.000234864
0.000234977
0.000234979
0.000234958
9.2732e-06
0.000234687
0.00023473
9.27306e-06
0.000234687
0.000234731
6.81142e-05
0.00011402
6.81054e-05
0.000114021
0.000251554
5.51954e-06
5.51983e-06
0.000232269
1.06475e-05
1.06475e-05
0.000235752
0.00023461
0.000234108
0.000234102
0.000233958
0.000234992
0.000234999
0.000195073
0.000195493
6.82845e-05
3.93194e-05
4.07337e-05
0.000212336
0.000152355
0.000195016
0.000195425
6.82825e-05
3.93117e-05
4.07302e-05
0.000212304
0.00015224
0.00023699
1.98197e-05
0.000234669
0.000206066
0.000234547
1.99646e-05
0.000234518
0.000236992
1.982e-05
0.000234669
0.000206078
0.000234546
1.99638e-05
0.000234518
8.91206e-05
1.99295e-05
1.99292e-05
1.16038e-05
1.16041e-05
4.47622e-05
0.000234949
0.000234874
0.0002349
0.00023474
0.000234825
0.000234824
0.000234511
0.000234988
0.000235125
0.000234742
0.00023474
0.000234758
0.000234949
0.000234874
0.0002349
0.00023474
0.000234825
0.000234824
0.000234511
0.000234989
0.000235125
0.000234742
0.00023474
0.000234758
8.91955e-06
8.4368e-06
0.000234304
0.000233576
1.72518e-05
0.000235221
1.06706e-05
3.45818e-05
1.7788e-05
3.93563e-05
0.000233836
0.000309475
0.000241586
9.80518e-06
0.000189531
3.43607e-05
0.000137917
2.95682e-05
3.43731e-05
0.000171515
8.91997e-06
8.43695e-06
0.000234304
0.000233575
1.72519e-05
0.000235225
1.06704e-05
3.45831e-05
3.93375e-05
1.77889e-05
0.000233836
0.000309497
0.000241581
9.80496e-06
0.000189537
3.43606e-05
0.000137827
3.43736e-05
0.00017152
2.95674e-05
0.000234689
0.000233907
0.000234444
0.000235399
0.000234298
0.000235803
0.000234612
0.00023453
0.000234591
0.000234602
0.000234416
0.000234306
0.000234502
0.000234676
0.000235486
0.000234917
0.000233918
0.00022865
0.000235671
0.000233833
0.000234259
0.00023446
0.000234582
0.000234581
0.00023445
0.000234568
0.000234457
0.000234458
0.00023469
0.000233907
0.000234444
0.000235399
0.000234297
0.000235802
0.000234613
0.00023453
0.000234591
0.000234603
0.000234415
0.000234501
0.000234305
0.000234676
0.000235487
0.000234917
0.000233918
0.000228653
0.000233833
0.000234258
0.000235672
0.00023446
0.000234582
0.000234581
0.00023445
0.000234568
0.000234457
0.000234457
4.99097e-06
4.9909e-06
0.000234864
0.000234975
0.000234982
0.000234958
9.2732e-06
0.000234687
0.00023473
9.27331e-06
0.000234687
0.000234731
6.81117e-05
0.000114024
0.000251556
5.51949e-06
5.51925e-06
0.000232268
1.06476e-05
1.06475e-05
0.000235752
0.00023461
0.000234111
0.000234098
0.000234988
0.000233958
0.000235005
0.000195101
0.000195444
6.82851e-05
3.93146e-05
0.000212358
4.0732e-05
0.000152253
0.000194995
0.000195478
6.8264e-05
3.93168e-05
4.07319e-05
0.000212276
0.000152339
0.000236991
1.98196e-05
0.000234669
0.000206071
0.000234519
0.000234547
1.99646e-05
0.000236991
1.98194e-05
0.000234669
0.000206075
0.000234546
1.99637e-05
0.000234517
8.91168e-05
1.9929e-05
1.99303e-05
1.16039e-05
1.16042e-05
4.47602e-05
6.81058e-05
0.000114016
0.000234949
0.000234874
0.0002349
0.000234741
0.000234826
0.000234825
0.000234511
0.000234989
0.000235125
0.000234742
0.00023474
0.000234758
0.000234874
0.000234949
0.0002349
0.000234825
0.00023474
0.000234824
0.000234742
0.00023474
0.000234758
0.000234511
0.000234988
0.000235125
8.91936e-06
0.000234304
8.43684e-06
0.000233576
0.000235216
1.72521e-05
1.06706e-05
3.45819e-05
1.77878e-05
3.93556e-05
0.000233836
0.000309548
0.000241597
9.80527e-06
0.000189518
0.000137909
3.43601e-05
2.95678e-05
0.000171511
3.43727e-05
0.00023469
0.000233907
0.000234444
0.0002354
0.000234297
0.000235803
0.000234612
0.00023453
0.000234592
0.000234601
0.000234415
0.000234306
0.000234501
0.000234676
0.000235488
0.000234917
0.000233918
0.000228654
0.000235671
0.000233833
0.000234259
0.00023446
0.000234582
0.000234581
0.00023445
0.000234568
0.000234457
0.000234457
8.91997e-06
8.43678e-06
0.000234304
0.000233575
1.72522e-05
0.000235226
1.06701e-05
3.45835e-05
3.93354e-05
1.77885e-05
0.000233836
0.000309494
0.000241575
9.80506e-06
0.000189539
3.43602e-05
0.000137819
3.43725e-05
0.000171518
2.95675e-05
0.000234689
0.000234444
0.000233907
0.000235399
0.000234298
0.000234612
0.000235802
0.00023453
0.000234591
0.000234415
0.000234603
0.000234502
0.000234676
0.000234305
0.00023446
0.000234582
0.000234581
0.00023445
0.000234568
0.000234457
0.000234457
0.000235487
0.000234917
0.000233918
0.000228649
0.000233833
0.000234258
0.000235671
0.00023473
0.00023473
0.00023473
0.00023474
0.00023474
0.000234727
0.000234729
0.00023473
0.000234729
0.000234729
0.00023473
0.000234729
0.00023473
0.00023473
0.00023473
0.00023474
0.00023474
0.000234727
0.000234729
0.00023473
0.000234729
0.000234729
0.00023473
0.000234729
0.00023473
0.00023473
0.00023473
0.00023474
0.00023474
0.000234727
0.000234729
0.00023473
0.000234729
0.000234729
0.00023473
0.000234729
0.00023446
0.000234591
0.000234591
0.00023446
0.000234591
0.00023446
0.00023446
0.00023445
0.00023446
0.00023458
0.00023458
0.000234597
0.000234458
0.000234458
0.000234459
0.000234591
0.000234591
0.000234458
0.000234592
0.000234458
0.00023446
0.000234459
0.000234591
0.000234591
0.000234458
0.000234592
0.000234458
0.000234459
0.00023446
0.000234591
0.000234591
0.00023446
0.000234591
0.00023446
0.00023446
0.00023445
0.00023446
0.00023458
0.00023458
0.000234458
0.000234597
0.000234458
0.000234459
0.000234591
0.000234591
0.000234458
0.000234458
0.000234592
0.000234459
0.000234459
0.000234591
0.000234591
0.000234458
0.000234592
0.000234459
0.000234458
0.00023446
0.000234591
0.000234591
0.00023446
0.000234591
0.00023446
0.00023446
0.00023445
0.00023446
0.00023458
0.00023458
0.000234458
0.000234597
0.000234458
0.000234459
0.000234591
0.000234591
0.000234458
0.000234458
0.000234592
0.000234459
0.000234459
0.000234591
0.000234591
0.000234458
0.000234592
0.000234459
0.000234458
0.00023446
0.000234591
0.000234591
0.00023446
0.000234591
0.00023446
0.00023446
0.00023445
0.00023446
0.00023458
0.00023458
0.000234597
0.000234458
0.000234458
0.000234459
0.000234591
0.000234591
0.000234458
0.000234592
0.000234459
0.000234458
0.000234459
0.000234591
0.000234591
0.000234458
0.000234592
0.000234459
0.000234458
0.000234874
0.000234949
0.0002349
0.000234825
0.000234741
0.000234824
0.000234742
0.00023474
0.000234758
0.000234511
0.000234989
0.000235125
0.000234689
0.000233907
0.000234444
0.0002354
0.000234298
0.000235802
0.000234613
0.00023453
0.000234591
0.0002346
0.000234415
0.000234501
0.000234308
0.000234676
0.000235487
0.000234917
0.000233917
0.000228656
0.000233833
0.000235672
0.000234259
0.00023446
0.000234582
0.000234581
0.00023445
0.000234568
0.000234457
0.000234457
8.91938e-06
0.000234303
8.43685e-06
0.000233576
0.000235218
1.72523e-05
1.06702e-05
3.45811e-05
3.93586e-05
1.77886e-05
0.000233835
0.000309532
0.0002416
9.80527e-06
0.000189509
0.000137919
3.436e-05
0.00017151
3.43723e-05
2.95684e-05
0.000234689
0.000234444
0.000233907
0.000235399
0.000234297
0.000234612
0.000235803
0.00023453
0.000234591
0.000234415
0.000234602
0.000234676
0.000234501
0.000234306
0.00023446
0.000234582
0.000234581
0.00023445
0.000234457
0.000234568
0.000234457
0.000235487
0.000234917
0.000233918
0.000228648
0.000233833
0.000234259
0.000235672
8.91993e-06
8.4368e-06
0.000234304
0.000233575
1.72523e-05
0.000235228
1.06698e-05
3.45843e-05
3.93355e-05
1.77886e-05
0.000233836
0.000309486
0.000241568
9.80493e-06
0.000189541
3.43601e-05
0.000137839
3.43728e-05
0.000171521
2.95674e-05
4.99122e-06
4.99103e-06
0.000234864
0.000234975
0.000234981
0.000234958
9.27338e-06
0.000234687
0.00023473
9.27333e-06
0.000234687
0.000234731
6.81073e-05
0.000114018
0.00025155
5.51935e-06
5.51958e-06
0.000232269
1.06475e-05
1.06476e-05
0.000235752
0.00023461
0.000234111
0.000234099
0.000234989
0.000233958
0.000235004
0.000195096
0.00019544
6.82811e-05
3.93156e-05
0.000212354
4.07332e-05
0.000152249
0.000194989
0.000195475
6.82727e-05
3.93174e-05
4.07324e-05
0.000212279
0.000152347
0.000236991
1.98197e-05
0.000234669
0.000206071
0.000234518
0.000234547
1.99644e-05
0.000236989
1.982e-05
0.000234669
0.000206075
0.000234546
1.99644e-05
0.000234517
8.91189e-05
1.99289e-05
1.99297e-05
1.16037e-05
1.16043e-05
4.47648e-05
6.8105e-05
0.000114017
0.000234874
0.000234949
0.000234901
0.000234825
0.000234741
0.000234825
0.000234742
0.00023474
0.000234758
0.000234511
0.000234989
0.000235125
0.000234689
0.000234444
0.000233907
0.0002354
0.000234298
0.000234612
0.000235803
0.00023453
0.000234591
0.000234415
0.0002346
0.000234501
0.000234676
0.000234308
0.00023446
0.000234582
0.000234581
0.00023445
0.000234568
0.000234457
0.000234457
0.000235487
0.000234917
0.000233918
0.000228653
0.000233833
0.000235671
0.000234259
0.000234691
0.000234444
0.000233907
0.0002354
0.000234297
0.000234613
0.000235803
0.00023453
0.000234591
0.000234415
0.000234601
0.000234676
0.000234501
0.000234306
0.00023446
0.000234582
0.000234581
0.00023445
0.000234457
0.000234568
0.000234457
0.000235488
0.000234917
0.000233918
0.000228647
0.000233833
0.000234259
0.000235671
8.9194e-06
0.000234304
8.43681e-06
0.000233576
0.000235217
1.72521e-05
1.06692e-05
3.45814e-05
3.93557e-05
1.77882e-05
0.000233836
0.000309528
0.000241598
9.80527e-06
0.000189519
0.000137916
3.43601e-05
0.00017151
3.43725e-05
2.95683e-05
8.91985e-06
0.000234304
8.43675e-06
0.000233575
0.000235224
1.72522e-05
1.06703e-05
3.45843e-05
3.9336e-05
1.77886e-05
0.000233836
0.000309471
0.000241577
9.80524e-06
0.00018952
0.000137844
3.436e-05
0.000171513
3.43732e-05
2.95675e-05
0.000251555
5.51931e-06
5.51968e-06
0.000232269
1.06476e-05
1.06478e-05
0.000235751
0.00023461
0.000234107
0.000234102
0.000233958
0.000234993
0.000234999
0.000195061
0.000195489
6.82736e-05
3.93202e-05
0.000152353
0.000212321
4.07349e-05
0.000195019
0.000195428
6.82706e-05
3.93118e-05
0.000152242
0.000212304
4.07306e-05
0.00023699
1.98197e-05
0.000234669
0.000206066
0.000234547
0.000234518
1.99643e-05
0.000236992
1.98201e-05
0.000234669
0.000206068
0.000234546
0.000234517
1.99646e-05
8.9115e-05
1.99297e-05
1.99288e-05
4.47611e-05
1.16039e-05
1.16041e-05
6.81094e-05
0.000114016
6.81082e-05
0.000114012
2.18243e-05
2.23065e-05
2.18226e-05
2.23049e-05
3.8489e-05
2.12633e-05
2.12624e-05
2.07585e-05
2.07573e-05
3.72597e-05
0.00011971
0.00017798
3.91429e-05
4.58724e-05
0.000130372
3.9322e-05
0.000168006
0.000119597
0.000177902
3.91319e-05
4.58656e-05
0.000130251
3.93109e-05
0.000167925
3.9872e-05
1.97669e-05
1.97658e-05
4.15945e-05
2.02314e-05
2.02302e-05
0.000111323
4.02706e-05
4.48325e-05
0.000154446
3.97753e-05
0.000105894
0.000159898
0.000111222
4.026e-05
4.48204e-05
0.00015437
3.97639e-05
0.000105805
0.000159821
2.41299e-05
2.37486e-05
2.41283e-05
2.3747e-05
3.4737e-05
2.17025e-05
2.17014e-05
3.59406e-05
2.21009e-05
2.21e-05
9.16934e-05
0.000136386
4.11502e-05
4.22085e-05
4.17575e-05
0.00013996
8.84519e-05
9.16175e-05
0.00013632
4.11337e-05
4.21988e-05
4.17468e-05
0.000139896
8.83848e-05
9.62378e-05
4.07833e-05
0.0001488
4.20717e-05
0.00010022
4.12732e-05
0.000144619
9.61624e-05
4.0773e-05
0.000148725
4.20642e-05
0.000100128
4.12634e-05
0.000144549
3.33528e-05
2.27347e-05
2.27335e-05
2.24363e-05
2.24354e-05
3.2335e-05
3.20034e-05
0.000110421
3.55337e-05
9.19905e-05
3.50033e-05
9.78143e-05
3.25444e-05
1.93005e-05
3.36242e-05
3.87875e-05
1.87293e-05
3.27842e-05
3.14766e-05
0.000119191
3.41226e-05
0.000117848
3.44919e-05
3.10428e-05
0.000106723
1.98705e-05
3.2277e-05
3.92543e-05
3.25392e-05
2.0394e-05
3.35708e-05
3.60484e-05
8.61644e-05
9.41143e-05
3.3066e-05
3.65484e-05
8.19775e-05
2.15786e-05
4.14502e-05
2.99051e-05
2.18654e-05
3.05274e-05
2.12459e-05
3.17085e-05
4.09341e-05
2.08459e-05
3.11435e-05
3.40479e-05
8.90852e-05
3.74867e-05
7.41078e-05
3.4507e-05
3.70254e-05
7.73936e-05
3.35697e-05
3.60482e-05
8.61231e-05
9.41056e-05
3.30649e-05
3.65482e-05
8.19357e-05
2.15773e-05
4.14482e-05
2.99105e-05
3.05334e-05
2.18642e-05
2.12446e-05
3.17134e-05
4.09316e-05
2.08449e-05
3.1151e-05
3.40467e-05
8.90853e-05
3.74866e-05
7.40761e-05
3.70252e-05
7.73628e-05
3.4506e-05
3.8486e-05
2.12613e-05
2.12638e-05
2.07563e-05
2.07589e-05
3.72575e-05
0.000119588
0.000177889
3.91338e-05
4.58695e-05
3.93122e-05
0.000130234
0.000167917
0.000119713
0.00017798
3.91405e-05
4.58705e-05
0.000168013
0.000130385
3.93211e-05
3.98699e-05
1.97656e-05
1.97675e-05
2.02298e-05
4.1593e-05
2.02321e-05
0.000111202
4.02601e-05
4.48217e-05
0.000154362
3.97649e-05
0.000159811
0.00010579
0.000111334
4.02701e-05
4.48252e-05
0.000154449
0.000159904
3.97736e-05
0.000105899
2.18236e-05
2.2306e-05
2.4128e-05
2.37464e-05
3.4735e-05
2.17006e-05
2.1703e-05
3.59379e-05
2.20992e-05
2.21016e-05
9.16036e-05
0.000136316
4.1137e-05
4.21986e-05
0.000139886
4.17471e-05
8.83769e-05
9.16951e-05
0.000136389
4.11399e-05
4.22076e-05
4.17564e-05
0.00013996
8.8462e-05
9.6151e-05
4.07733e-05
0.000148717
4.20654e-05
0.000144542
0.000100117
4.12628e-05
9.62488e-05
4.07824e-05
0.000148802
4.20682e-05
0.000100223
4.12727e-05
0.000144621
3.33486e-05
2.27327e-05
2.27349e-05
2.24345e-05
2.2437e-05
3.23356e-05
2.41297e-05
2.37482e-05
3.20028e-05
0.000110411
3.55329e-05
9.19921e-05
3.50024e-05
9.78128e-05
3.2544e-05
1.93006e-05
3.36239e-05
3.87845e-05
1.87291e-05
3.27811e-05
3.14768e-05
0.000119188
3.41223e-05
0.000117858
3.44913e-05
3.10424e-05
0.00010672
1.98706e-05
3.22747e-05
3.92519e-05
3.25397e-05
2.03943e-05
3.35708e-05
8.61559e-05
3.60476e-05
9.41209e-05
3.30655e-05
8.19698e-05
3.65478e-05
2.15785e-05
4.14466e-05
2.99018e-05
2.1865e-05
3.0529e-05
2.12459e-05
3.17092e-05
4.09301e-05
2.08458e-05
3.11423e-05
3.40474e-05
8.90715e-05
7.40964e-05
3.74857e-05
3.4506e-05
7.73929e-05
3.70245e-05
3.35702e-05
3.60475e-05
8.6127e-05
9.41149e-05
3.30648e-05
3.65479e-05
8.19353e-05
2.15777e-05
4.14456e-05
2.99081e-05
3.0533e-05
2.18642e-05
2.12453e-05
3.17134e-05
4.09292e-05
2.08453e-05
3.11499e-05
3.40465e-05
8.90715e-05
3.74861e-05
7.4075e-05
3.70245e-05
7.73662e-05
3.45056e-05
3.20043e-05
0.000110401
9.20437e-05
3.55329e-05
9.78683e-05
3.50026e-05
3.25456e-05
1.93017e-05
3.36209e-05
3.87861e-05
3.27724e-05
1.87288e-05
3.14778e-05
0.000119193
0.000117917
3.41222e-05
0.000106791
3.10438e-05
3.4491e-05
1.98712e-05
3.22617e-05
3.92534e-05
3.25405e-05
2.03958e-05
3.20038e-05
0.000110412
3.55333e-05
9.20021e-05
3.50032e-05
9.78095e-05
3.25448e-05
1.93006e-05
3.36244e-05
3.87864e-05
1.87295e-05
3.27837e-05
3.14769e-05
0.0001192
3.41226e-05
0.000117849
3.10433e-05
3.44915e-05
0.000106734
1.9871e-05
3.22761e-05
3.92527e-05
3.25401e-05
2.03945e-05
3.35714e-05
8.61638e-05
3.60475e-05
9.41228e-05
3.30657e-05
8.19749e-05
3.65477e-05
2.15786e-05
4.14477e-05
2.99019e-05
3.05307e-05
2.18658e-05
2.12467e-05
3.17125e-05
4.09311e-05
2.08458e-05
3.11416e-05
3.40475e-05
8.90733e-05
7.41011e-05
3.74857e-05
7.73968e-05
3.70245e-05
3.45066e-05
3.35699e-05
3.60478e-05
8.61238e-05
9.4116e-05
3.30654e-05
3.65479e-05
8.19424e-05
2.15777e-05
4.14467e-05
2.99109e-05
3.05338e-05
2.18642e-05
2.12452e-05
3.17156e-05
4.09309e-05
2.08454e-05
3.11493e-05
3.40469e-05
8.90726e-05
3.74863e-05
7.40802e-05
3.7025e-05
7.7362e-05
3.45059e-05
3.8491e-05
2.12616e-05
2.12641e-05
2.07566e-05
2.07591e-05
3.7259e-05
0.000119581
0.000177885
3.91337e-05
4.58635e-05
3.93124e-05
0.000130239
0.00016791
0.000119717
0.00017799
3.91418e-05
4.5872e-05
0.000168014
0.000130392
3.93221e-05
3.98718e-05
1.9765e-05
1.97675e-05
2.02295e-05
4.15936e-05
2.02322e-05
0.000111215
4.02614e-05
4.48224e-05
0.000154358
3.9765e-05
0.000159807
0.000105793
0.000111342
4.02713e-05
4.48281e-05
0.000154454
0.000159909
3.97751e-05
0.000105902
2.18238e-05
2.23063e-05
2.41273e-05
2.37463e-05
3.47365e-05
2.1701e-05
2.1703e-05
3.59413e-05