/*--------------------------------*- C++ -*----------------------------------*\
| =========                 |                                                 |
| \\      /  F ield         | OpenFOAM: The Open Source CFD Toolbox           |
|  \\    /   O peration     | Version:  v2006                                 |
|   \\  /    A nd           | Website:  www.openfoam.com                      |
|    \\/     M anipulation  |                                                 |
\*---------------------------------------------------------------------------*/
FoamFile
{
    version     2.0;
    format      ascii;
    class       surfaceScalarField;
    location    "125";
    object      phi;
}
// * * * * * * * * * * * * * * * * * * * * * * * * * * * * * * * * * * * * * //

dimensions      [0 3 -1 0 0 0 0];
oriented        oriented;


internalField   nonuniform List<scalar> 
42278
(
-1.3414e-06
-1.34211e-06
6.64331e-07
6.65452e-07
-0.00107194
-1.55286e-06
1.34208e-06
-6.19914e-07
8.60998e-07
-8.16413e-08
4.35579e-07
-7.79448e-07
-1.36668e-06
-2.20225e-07
-0.0010731
6.67434e-07
1.59371e-06
1.55308e-06
-6.59375e-07
-6.70147e-07
0.000262261
-0.000264078
6.68251e-07
-6.25116e-07
9.02705e-07
-7.67843e-08
4.43781e-07
-7.82103e-07
-1.37471e-06
-2.1784e-07
-0.00107264
6.67294e-07
-6.1749e-07
8.6117e-07
-8.41868e-08
4.40952e-07
-7.82214e-07
-1.37208e-06
-2.17777e-07
-0.00107358
-1.58863e-06
1.34091e-06
6.68269e-07
-6.22636e-07
8.97514e-07
-7.92818e-08
4.41108e-07
-7.81889e-07
-1.37187e-06
-2.17652e-07
-0.00107266
-6.6244e-07
-6.67096e-07
0.000262243
-0.000264055
-1.23371e-07
6.23945e-07
-8.58564e-08
0.000225549
-0.000225963
7.34893e-07
0.000253307
-6.94443e-07
3.88427e-09
-0.000253351
-2.28925e-11
-1.23385e-07
6.23868e-07
-8.57675e-08
0.000225523
-0.000225938
7.34967e-07
3.65022e-10
0.0002533
3.52858e-09
-6.94549e-07
-0.000253344
6.64424e-07
6.6532e-07
-0.00107159
1.23147e-07
4.0785e-07
0.000116157
-0.000116688
-3.40048e-07
-6.23681e-07
6.74887e-07
3.49317e-07
0.000266927
-0.000266988
4.07972e-07
0.000116189
-0.000116721
4.07796e-07
0.000116171
-0.000116702
3.39908e-07
5.04118e-07
-1.85551e-07
0.000316838
-0.000317089
3.3734e-07
5.06527e-07
-1.82118e-07
0.000316748
-0.000317002
6.72382e-07
3.52016e-07
-0.000266992
1.38474e-06
4.66742e-07
-1.30738e-06
-1.47846e-06
2.72596e-07
-0.00106799
3.44571e-09
0.000258495
-5.94589e-08
8.06124e-07
-0.000258506
-2.92268e-10
6.75053e-07
3.49319e-07
0.000266891
-0.000266954
2.97002e-09
1.38435e-06
4.63882e-07
-1.30996e-06
-1.47823e-06
2.69843e-07
-0.00106786
1.91102e-09
0.000258485
-6.07191e-08
8.06148e-07
-0.000258498
6.23414e-07
-8.56332e-08
0.000225464
-0.000225879
7.32196e-07
0.00025326
-6.967e-07
3.74696e-09
-0.000253299
1.38436e-06
4.64042e-07
-1.30998e-06
-1.47814e-06
-0.00106782
-3.40025e-07
6.74723e-07
3.49252e-07
0.000266822
-0.000266883
0.00025846
8.03532e-07
-6.08672e-08
-0.000258469
5.04081e-07
-1.82748e-07
0.000316705
-0.000316958
-4.07982e-07
5.06621e-07
-1.821e-07
0.000316834
-0.000317091
1.23224e-07
0.000116176
-0.000116708
-8.57685e-08
0.000225529
-0.000225944
-9.38263e-05
2.49569e-07
2.38372e-07
-2.98818e-07
0.000304822
1.66174e-08
4.95775e-07
-0.000305121
-7.5394e-08
-1.10091e-07
2.4552e-07
-9.43706e-05
1.27451e-08
3.76632e-07
-0.000172192
2.04697e-07
5.14674e-07
-6.4842e-07
4.39645e-09
6.1719e-07
2.20724e-10
-2.08039e-07
0.000204887
-0.000205374
5.40332e-11
-5.61606e-07
0.00025012
6.67299e-07
-0.000250205
-0.000172716
5.39485e-07
-9.38253e-05
2.4946e-07
2.3847e-07
-2.98729e-07
0.000304818
1.65975e-08
4.93139e-07
-0.000305115
-7.53212e-08
-1.10051e-07
5.34941e-07
2.45628e-07
-9.43697e-05
1.27632e-08
3.79234e-07
-0.000172187
5.14766e-07
2.04506e-07
4.87211e-09
-6.48557e-07
5.72748e-11
6.17289e-07
-5.61752e-07
0.000250111
6.67383e-07
-0.000250197
-2.08033e-07
0.000204882
-5.15533e-11
-0.000205368
-0.000172711
5.39539e-07
-5.03889e-11
1.09863e-07
3.69323e-07
3.69317e-07
3.69069e-07
-0.000244621
-5.86758e-07
4.06558e-07
-2.81904e-07
4.2475e-07
-4.7712e-07
0.000264883
5.76337e-07
3.58746e-07
-0.000264837
6.46744e-07
0.000213509
-3.53759e-07
-0.000213988
-1.53466e-07
4.16003e-07
-3.23383e-07
5.39038e-07
-0.000244667
4.00573e-07
2.76101e-07
-0.000244564
-5.84941e-07
4.08975e-07
-2.84872e-07
4.23536e-07
-4.74002e-07
0.000264774
5.75918e-07
3.53368e-07
-0.000264722
6.48719e-07
0.000213451
-3.53877e-07
-0.000213928
-1.57126e-07
4.13419e-07
2.93831e-07
-3.21593e-07
5.42497e-07
-0.00024461
-3.29437e-07
4.0044e-07
2.81282e-07
-0.00025205
-1.37209e-07
1.57792e-07
-9.71075e-05
1.5772e-07
9.65806e-05
-9.70922e-05
-0.000252379
-9.37718e-05
2.49216e-07
2.38337e-07
-2.98435e-07
0.000304671
1.665e-08
4.95507e-07
-0.000304971
-7.52097e-08
5.34573e-07
2.45406e-07
-9.43157e-05
1.27563e-08
3.7638e-07
2.04738e-07
-0.000172099
5.12091e-07
-6.46153e-07
4.51039e-09
6.19975e-07
0.000204838
-2.08132e-07
-0.000205326
-5.63505e-07
0.000250007
6.66985e-07
-0.00025009
-0.000172625
5.3941e-07
-5.87114e-07
-0.000244557
4.08963e-07
-2.82526e-07
4.283e-07
-4.74094e-07
0.000264729
5.73471e-07
3.56075e-07
-0.000264681
0.000213453
6.46462e-07
-3.53886e-07
-0.000213928
-1.56555e-07
4.16107e-07
2.91268e-07
-3.24018e-07
5.37666e-07
-0.000244598
4.03109e-07
2.7872e-07
4.0917e-07
-0.000244625
-5.84557e-07
-2.84401e-07
4.22415e-07
0.000264894
-4.7436e-07
5.76246e-07
3.58727e-07
-0.000264848
6.48537e-07
0.000213516
-3.5371e-07
-0.000213993
4.13352e-07
-1.56989e-07
-3.69214e-07
2.91224e-07
4.00415e-07
2.76072e-07
-3.21124e-07
5.41362e-07
-0.000244671
-3.2916e-07
-0.000252048
-1.37345e-07
1.57779e-07
-9.70923e-05
1.57885e-07
9.65961e-05
-9.71077e-05
-0.000252377
1.09899e-07
2.49706e-07
-9.38284e-05
2.38513e-07
0.000304827
-2.98511e-07
4.95633e-07
-0.000305127
1.66184e-08
-7.53054e-08
5.34811e-07
3.76664e-07
1.28328e-08
-9.43725e-05
2.4559e-07
6.85445e-07
-0.00107531
4.98609e-10
6.86018e-07
1.39895e-10
-0.00107572
-1.28462e-10
-0.00108182
-1.0402e-11
-0.000253493
3.02798e-07
3.0574e-07
-5.52446e-07
0.000262019
-0.000262175
-5.50734e-07
0.000262442
-0.000262603
-1.87514e-07
-1.77195e-07
-0.000253514
3.05234e-07
-0.000253483
3.03298e-07
-5.53262e-07
0.000262394
-0.000262552
0.000262034
-5.49853e-07
-0.000262195
-1.79728e-07
-1.85005e-07
-0.000253507
6.85266e-07
-0.00107497
6.85888e-07
-1.38426e-06
-0.0010754
3.84075e-10
-0.00108127
-4.80066e-11
-0.0002655
-2.08129e-07
-3.06729e-07
1.16582e-07
2.33986e-07
0.000266465
-0.000266445
7.29007e-07
0.000266639
1.64735e-07
-0.000266688
3.92063e-07
3.29175e-07
1.39253e-07
-0.000266043
1.59387e-07
-3.11966e-07
-0.00026549
-2.08119e-07
1.26892e-07
2.34011e-07
0.000266449
-0.000266434
0.000266644
7.23809e-07
1.62315e-07
-0.000266682
1.61975e-07
1.29156e-07
-0.000266036
-3.74773e-07
-0.000263192
5.62548e-08
-6.23411e-08
4.22451e-07
1.7452e-09
0.000260365
7.98333e-07
-0.000260393
-5.35987e-08
0.000261729
-0.000262174
-2.56283e-09
-0.000263796
5.32504e-09
-3.06657e-07
-0.0002655
-2.08045e-07
1.13999e-07
2.33874e-07
0.000266436
-0.000266424
0.000266623
7.29201e-07
1.62243e-07
-0.000266672
3.29189e-07
3.9214e-07
1.61878e-07
1.41722e-07
-0.000266051
-3.72173e-07
-0.000263183
5.21064e-08
-6.1276e-08
4.22517e-07
-4.03993e-10
0.000260352
8.00982e-07
-0.000260384
-5.80518e-08
0.000261723
7.27734e-09
-0.000262176
-0.000263777
-0.000265415
-3.06479e-07
-2.10706e-07
1.2683e-07
2.31359e-07
0.000266361
-0.000266343
7.28922e-07
0.000266525
1.62207e-07
-0.000266571
3.29125e-07
3.91935e-07
1.29054e-07
-0.000265955
1.61849e-07
-0.000263122
-3.74664e-07
-6.22774e-08
-5.62988e-08
-0.000262148
7.98084e-07
0.000260271
-0.000260301
-0.000263729
-0.00104223
-1.45853e-05
-1.44545e-05
9.30208e-06
9.17293e-06
0.00105279
-0.00026145
-5.64162e-06
1.44815e-05
6.83425e-06
0.00105937
-4.53257e-06
-1.62224e-06
-2.21533e-06
-2.5781e-06
-6.5915e-06
-7.04684e-06
-3.16631e-06
-0.000263298
-0.000259722
-0.000262822
-0.00026145
-5.64168e-06
1.44963e-05
6.866e-06
0.00105933
-4.53279e-06
-1.62737e-06
-2.21807e-06
-2.58064e-06
-6.59142e-06
-7.04688e-06
-3.16626e-06
-0.00025972
-0.000263298
-0.000262822
-0.000260559
5.61726e-06
5.65981e-06
-4.88073e-06
-4.8719e-06
0.000259035
-1.62177e-06
-1.62825e-06
-0.00106082
8.98314e-07
8.94089e-07
0.00106228
-0.0010626
-1.60653e-06
1.63333e-06
8.17952e-07
0.00106389
-6.53795e-07
7.84504e-07
-1.48121e-07
3.75331e-07
-8.03449e-07
-1.39758e-06
-2.90646e-07
-0.00106252
-1.60414e-06
1.63375e-06
8.28719e-07
0.0010638
-6.53993e-07
7.81631e-07
-1.48298e-07
3.72743e-07
-8.03385e-07
-1.3949e-06
-2.9057e-07
-0.000261521
1.63672e-06
1.59916e-06
-7.08224e-07
-7.16446e-07
0.000259709
5.2165e-06
5.22982e-06
0.000260577
-0.000259171
-5.93213e-06
-5.92035e-06
5.07919e-06
0.000261425
-0.000258697
-5.96238e-06
3.37175e-06
-5.22657e-06
5.07642e-06
0.000261427
-0.000258689
-5.96967e-06
3.38174e-06
5.22193e-06
0.000260567
-0.000259166
-5.90053e-06
-5.94896e-06
5.06716e-06
0.000261481
-0.000258714
-5.96768e-06
3.36396e-06
5.07643e-06
-5.23168e-06
0.000261427
-0.000258686
3.38432e-06
-5.9697e-06
1.06709e-05
1.06176e-05
-0.000252649
-0.000256081
-0.000255118
-0.000255118
-6.415e-06
-4.12538e-06
-6.65989e-06
-6.41778e-06
-4.12093e-06
-6.66524e-06
-5.07456e-06
0.00104219
1.07162e-05
1.06223e-05
-0.000252649
-0.000256074
-0.000255118
-0.000255116
-6.41718e-06
-4.12519e-06
-6.66491e-06
-6.42017e-06
-4.12596e-06
-6.66277e-06
-5.07462e-06
0.00104215
1.07287e-05
1.06429e-05
-0.000252646
-0.000256079
-0.000255113
-0.000255118
-6.4199e-06
-4.12775e-06
-6.66486e-06
-6.41776e-06
-4.12333e-06
-6.66519e-06
-5.08391e-06
-5.07435e-06
0.00104213
1.07311e-05
1.06754e-05
-0.000252646
-0.000256074
-0.000255113
-0.000255118
-6.41974e-06
-4.13031e-06
-6.66751e-06
-6.41742e-06
-4.12575e-06
-6.66766e-06
-0.000258704
-5.95991e-06
3.36138e-06
-5.22384e-06
0.000261404
-0.000258679
3.37909e-06
-5.96448e-06
5.22202e-06
0.000260564
-0.000259168
-5.90055e-06
-5.94905e-06
-0.000258707
3.36654e-06
-5.9625e-06
-5.23465e-06
0.000261458
-0.000258707
3.37654e-06
-5.96724e-06
-0.000259166
-5.93179e-06
-5.92003e-06
5.61239e-06
5.65507e-06
-4.87347e-06
-4.86966e-06
0.000259053
-7.85852e-07
-7.42109e-07
0.000261556
-0.000259472
-2.82099e-07
-2.74704e-07
7.02673e-06
0.00105893
-4.52755e-06
-1.57318e-06
-2.20764e-06
-2.57741e-06
-6.60923e-06
-7.05157e-06
-3.17125e-06
-0.000263277
-0.000259697
-0.000262814
-5.6305e-06
1.45484e-05
7.09957e-06
0.00105906
-4.55432e-06
-1.57833e-06
-2.221e-06
-2.58667e-06
-6.63155e-06
-7.06034e-06
-3.18854e-06
-0.00026332
-0.000259694
-0.000262811
0.00106206
2.0343e-06
-0.00106101
9.68547e-07
-1.7257e-06
-1.66537e-07
-6.92108e-07
-1.4684e-06
-3.07755e-07
-8.28276e-07
3.45973e-07
7.83246e-07
0.00106218
2.02914e-06
-0.00106113
9.73836e-07
-1.72078e-06
-1.64162e-07
-6.95053e-07
-1.4707e-06
-3.07587e-07
-8.28241e-07
3.48603e-07
-4.87875e-06
-4.87165e-06
0.000259045
-7.47302e-07
0.000261557
-0.000259469
-2.82143e-07
-2.74659e-07
6.80836e-06
0.00105969
-4.55199e-06
-1.63779e-06
-2.22902e-06
-2.58571e-06
-6.61977e-06
-7.0624e-06
-3.17903e-06
-0.000263364
-0.00025974
-0.00026285
-5.62802e-06
1.45638e-05
7.12314e-06
0.00105901
-4.54922e-06
-1.58093e-06
-2.22103e-06
-2.58693e-06
-6.63414e-06
-7.06063e-06
-3.18594e-06
-0.000259692
-0.000263323
-0.000262809
0.00106299
2.03642e-06
-0.00106192
9.67025e-07
-1.68818e-06
-1.71578e-07
-6.92462e-07
-1.46837e-06
-3.10059e-07
-8.25634e-07
3.43054e-07
7.77888e-07
0.0010621
2.03439e-06
-0.00106104
9.79249e-07
-1.72093e-06
-1.69337e-07
-6.95267e-07
-1.46826e-06
-3.09944e-07
-8.28044e-07
3.4313e-07
1.46119e-05
7.115e-06
0.00105874
-4.52979e-06
-1.58068e-06
-2.21255e-06
-2.58192e-06
-6.60588e-06
-3.17327e-06
-7.04766e-06
-0.000259676
-0.000263259
-0.00026278
2.02605e-06
-0.00106154
9.67279e-07
-1.68791e-06
-1.71385e-07
-6.86887e-07
-1.46585e-06
-3.052e-07
3.42917e-07
-8.28279e-07
7.75093e-07
0.00106178
2.0293e-06
-0.00106073
9.8419e-07
-1.71814e-06
-1.69158e-07
-6.92285e-07
-1.46293e-06
-3.07529e-07
-8.28023e-07
3.37809e-07
-4.87872e-06
-4.86923e-06
0.000259043
-7.41796e-07
0.000261536
-0.000259462
-2.79939e-07
-2.74793e-07
1.4486e-05
6.90001e-06
0.00105949
-4.55692e-06
-1.64276e-06
-2.23138e-06
-2.58752e-06
-6.61888e-06
-3.17854e-06
-7.05833e-06
-0.000259722
-0.000263341
-0.000262821
2.03667e-06
-0.00106147
9.67713e-07
-1.68807e-06
-1.69095e-07
-6.92341e-07
-1.46327e-06
-3.07664e-07
3.40346e-07
-8.25752e-07
7.39171e-07
0.0010627
2.03678e-06
-0.00106164
9.72597e-07
-1.68065e-06
-1.71675e-07
-6.89968e-07
-1.46552e-06
-3.07484e-07
-8.28171e-07
3.40244e-07
-0.000259444
-2.85149e-07
-2.77596e-07
1.64439e-06
1.60423e-06
-7.10484e-07
-7.16375e-07
0.000259735
8.24371e-07
0.00106334
-6.58998e-07
8.25724e-07
-1.40781e-07
3.80957e-07
-8.00827e-07
-1.40011e-06
-2.90662e-07
-1.64206e-06
1.63194e-06
8.24481e-07
0.00106346
-6.59302e-07
8.20502e-07
-1.43388e-07
3.83639e-07
-8.03312e-07
-1.40244e-06
-2.88035e-07
-7.08396e-07
-7.18488e-07
0.000259735
8.22936e-07
0.00106427
-6.541e-07
7.84593e-07
-1.48267e-07
3.78035e-07
-8.00872e-07
-1.39492e-06
-2.9057e-07
-1.63698e-06
1.6321e-06
8.29998e-07
0.00106337
-6.56806e-07
8.15179e-07
-1.43505e-07
3.80761e-07
-8.00602e-07
-1.39999e-06
-2.90388e-07
1.64255e-06
8.24644e-07
0.00106305
-6.56449e-07
8.15016e-07
-1.4584e-07
3.72789e-07
-8.00544e-07
-2.92915e-07
-1.39211e-06
-7.13784e-07
-7.16011e-07
0.000259725
1.63369e-06
8.2854e-07
0.00106398
-6.54146e-07
7.71147e-07
-1.50844e-07
3.75317e-07
-8.00701e-07
-2.90432e-07
-1.39463e-06
-2.45627e-10
-5.02602e-10
0.000250244
-1.19362e-07
-1.19619e-07
-2.31564e-06
-2.31565e-06
0.000250605
8.7577e-07
8.7576e-07
-6.83606e-07
-7.32627e-10
0.000250425
4.20718e-07
-1.9993e-07
-6.83617e-07
-9.49571e-10
0.000250424
4.20729e-07
-1.99419e-07
-6.29147e-09
0.000252005
-1.1664e-06
1.87718e-05
-1.23871e-05
-1.26918e-06
-7.6247e-06
-5.37062e-06
-1.98853e-07
-5.38977e-06
-1.37237e-07
-4.21764e-06
2.31565e-06
0.000250742
-6.44662e-06
2.79019e-06
-1.0541e-06
6.51265e-05
-2.03296e-06
8.38987e-07
-6.46116e-05
1.73322e-06
6.8362e-07
-1.28725e-09
0.000250536
-1.47883e-06
-4.53983e-07
-6.21457e-09
0.000252005
-1.16639e-06
1.87718e-05
-1.23871e-05
-1.26917e-06
-7.6247e-06
-5.37063e-06
-1.98858e-07
-5.38978e-06
-1.37369e-07
2.31565e-06
-4.21766e-06
0.000250742
2.7902e-06
-6.44663e-06
6.8362e-07
-1.15034e-09
0.000250536
-1.47883e-06
-4.54243e-07
-1.0541e-06
6.51265e-05
-2.03303e-06
8.39005e-07
-6.46116e-05
1.73324e-06
4.21766e-06
4.21766e-06
0.000250966
-1.59095e-05
-1.59095e-05
1.05413e-06
6.59487e-05
-2.85882e-07
-1.24999e-06
-6.57133e-05
1.99125e-06
-3.19754e-07
-7.53639e-07
-6.71514e-07
1.05412e-06
6.59487e-05
-2.85882e-07
-1.25e-06
-6.57145e-05
1.99253e-06
-3.19754e-07
-7.5364e-07
-6.71515e-07
-3.35411e-09
9.71308e-07
0.000253002
-0.000253167
-7.51822e-07
-5.07728e-08
-0.000241721
-2.30427e-06
5.41125e-06
2.24298e-06
0.000236371
-0.00025426
-1.71882e-08
3.37978e-06
0.00025388
-2.36845e-06
-6.13682e-07
-1.72554e-07
6.24994e-07
0.000233054
-4.99472e-08
-0.000233456
-0.000142662
2.309e-06
5.57818e-06
0.000134775
1.72955e-07
6.13617e-07
0.000130833
-0.00013162
9.71435e-07
-3.60411e-09
0.000252995
-0.000253158
-5.0084e-08
-7.54449e-07
-0.0002417
-2.30135e-06
5.41067e-06
2.24347e-06
0.000236347
-0.000254251
3.37828e-06
-1.7316e-08
0.000253876
-6.13317e-07
-2.37215e-06
-1.72612e-07
6.29319e-07
0.000233025
-5.02878e-08
-0.000233431
9.34237e-06
9.20268e-06
0.00105267
9.37785e-06
9.23863e-06
0.0010526
9.3725e-06
9.23838e-06
0.00105262
-0.00105931
1.27915e-06
1.28044e-06
0.00106064
-0.00105915
1.27921e-06
1.28034e-06
0.00106048
-0.00105899
1.28978e-06
1.28584e-06
0.00106049
-0.00105902
1.29501e-06
1.29622e-06
-9.71452e-07
-5.86927e-09
0.000256206
-0.0002562
-1.49872e-07
1.12171e-06
-0.000267593
-3.22311e-06
-5.41053e-06
5.75181e-06
2.55038e-06
0.000267924
0.00105196
-0.00104532
-8.76172e-08
1.66005e-05
-2.22814e-06
-5.76418e-06
-6.01826e-06
-2.31274e-06
3.51643e-06
1.59943e-08
0.0010609
7.2176e-06
-3.12296e-06
-9.36293e-07
-2.24742e-06
-4.05803e-07
-3.09597e-06
-6.86935e-07
-1.78701e-06
-0.000256834
-3.37325e-06
-1.49263e-08
0.000256591
-7.64218e-07
4.39563e-06
-5.33334e-07
-6.2429e-07
0.000266094
5.8967e-07
-0.000266374
8.47267e-07
-6.64464e-08
0.00105462
8.26885e-06
-3.22e-06
-6.25842e-07
-3.0864e-06
-4.12665e-07
-0.000142651
2.30825e-06
5.57483e-06
0.000134768
1.72297e-07
6.17218e-07
0.000130823
-0.000131613
-4.25604e-09
-9.74241e-07
0.000256199
-0.000256192
1.12175e-06
-1.50515e-07
0.0010519
-0.00104529
-2.49654e-08
1.66147e-05
-2.2332e-06
-5.76665e-06
-6.02075e-06
-2.31772e-06
-0.000267593
-3.22086e-06
-5.40778e-06
5.75167e-06
2.54787e-06
0.000267922
3.52726e-06
1.5905e-08
0.00106085
7.23281e-06
-3.12551e-06
-9.38753e-07
-2.24738e-06
-4.05757e-07
-3.09861e-06
-6.86956e-07
-1.78703e-06
-0.000256834
-1.39972e-08
-3.37048e-06
0.000256589
4.39551e-06
-7.65315e-07
-1.70459e-08
0.00105451
8.27826e-06
-3.2174e-06
-6.28364e-07
-3.08374e-06
-4.12604e-07
-5.36064e-07
-6.29246e-07
0.000266095
5.89565e-07
-0.000266366
8.47431e-07
-0.000325837
3.23155e-06
-5.57459e-06
5.27501e-06
1.27065e-07
0.000322778
-0.000325762
3.23114e-06
-5.57728e-06
5.28277e-06
1.27496e-07
0.000322698
-5.35585e-08
-2.38715e-09
0.000261244
-0.000259267
-9.653e-07
-9.55925e-07
5.36412e-07
-6.14203e-07
0.000319492
-1.70333e-07
-0.000319877
6.33848e-07
5.35998e-07
-6.14033e-07
0.000319404
-1.70189e-07
-0.00031979
6.33856e-07
-1.53994e-10
6.46067e-07
0.000253133
-0.000253066
-6.98317e-07
-1.45914e-08
-0.000231802
-1.57216e-07
6.71173e-07
-1.23804e-07
0.000231412
-0.000252973
-6.62778e-11
7.56063e-07
0.000252988
-7.49826e-07
-2.11443e-08
-1.50453e-07
5.84179e-07
0.000230388
-1.19718e-07
-0.000230702
-0.000127309
1.57263e-07
6.46291e-07
0.000126506
1.50634e-07
5.80144e-07
0.00012424
-0.000124971
6.40927e-07
-1.50046e-10
0.000253129
-0.000253057
-1.46152e-08
-6.98507e-07
-0.000231775
-1.54969e-07
6.68455e-07
-1.2036e-07
0.000231382
-0.000252966
7.56271e-07
1.27007e-10
0.000252981
-2.1444e-08
-7.50121e-07
-1.50365e-07
5.86465e-07
0.00023036
-1.20044e-07
-0.000230676
8.98393e-07
8.99182e-07
0.00106211
9.09039e-07
9.04682e-07
0.00106194
9.03928e-07
9.04814e-07
0.00106196
-6.40897e-07
-1.78491e-09
0.00025691
-0.000256654
-6.66735e-08
4.52642e-07
-0.000266135
-4.50027e-07
-6.68388e-07
6.78956e-07
4.41816e-07
0.000266133
0.00105832
-0.001057
-1.70995e-09
1.73729e-06
3.9629e-07
-1.3396e-06
-1.51011e-06
2.11468e-07
7.63482e-07
8.07165e-07
0.00106519
1.50507e-06
-1.36672e-06
-2.70805e-07
-7.89221e-07
3.99709e-07
-1.57919e-06
-1.28052e-07
-6.37806e-07
-0.000256389
-7.53673e-07
1.39385e-09
0.000256387
-7.11066e-08
8.25535e-07
-3.95013e-07
-5.88932e-07
0.000266406
4.13604e-07
-0.000266269
4.33247e-07
-5.78362e-09
0.00105969
1.53847e-06
-1.48106e-06
2.33364e-07
-1.30911e-06
4.20584e-07
-0.000127299
1.56821e-07
6.46679e-07
0.000126495
1.50289e-07
5.80652e-07
0.000124232
-0.000124963
-7.9442e-10
-6.46242e-07
-0.000256645
4.50084e-07
-6.69317e-08
0.000256909
0.00105819
-0.00105687
2.47275e-09
1.74241e-06
3.96372e-07
-1.34227e-06
-1.50746e-06
2.14164e-07
-0.000266135
-4.52933e-07
-6.6814e-07
6.7891e-07
4.44502e-07
0.000266133
7.63707e-07
8.07009e-07
0.00106509
1.50532e-06
-1.36406e-06
-2.68244e-07
-7.89109e-07
3.99751e-07
-1.57676e-06
-1.28132e-07
-6.37911e-07
-0.000256382
7.08742e-10
-7.56354e-07
0.000256383
8.25533e-07
-7.08682e-08
-3.6693e-09
1.53842e-06
-1.47842e-06
2.30707e-07
-1.30912e-06
4.1534e-07
0.00105956
-3.97801e-07
-5.86227e-07
0.000266401
4.13472e-07
-0.000266267
4.35824e-07
-0.000319334
4.52936e-07
-6.47419e-07
5.1232e-07
-1.99815e-07
0.000319216
-0.000319244
4.50068e-07
-6.47148e-07
5.12233e-07
-1.99771e-07
0.000319128
-8.35134e-07
-7.96468e-07
0.0002621
-0.000260011
-2.31159e-07
-2.26112e-07
3.97894e-07
-5.80533e-07
0.000318957
-1.74411e-07
-0.000319025
4.251e-07
3.95002e-07
-5.80292e-07
0.000318869
-1.74247e-07
-0.000318932
4.22366e-07
0.000250964
4.21766e-06
4.21765e-06
-1.59095e-05
-1.5907e-05
6.59537e-05
1.05409e-06
-2.86546e-07
-1.25049e-06
-6.57164e-05
1.9925e-06
-3.21009e-07
-7.54346e-07
-6.71494e-07
6.59487e-05
1.0541e-06
-2.85885e-07
-1.24996e-06
-6.57145e-05
1.99254e-06
-3.19754e-07
-7.53642e-07
-6.71514e-07
2.96057e-05
1.13757e-05
0.000142676
-2.48435e-05
-5.64334e-05
-5.15263e-05
-5.08547e-05
5.04812e-07
2.50252e-07
-1.65347e-05
-1.571e-07
-2.09951e-07
1.61467e-05
2.96024e-05
1.13728e-05
0.000142659
-2.48429e-05
-5.64233e-05
-5.15146e-05
-5.08538e-05
5.04816e-07
2.49635e-07
-1.65335e-05
-1.57096e-07
-2.10613e-07
1.61467e-05
3.10091e-06
3.10091e-06
0.000253159
-4.1969e-06
-4.19966e-06
7.01572e-06
0.000325857
8.05368e-06
-0.00031288
1.55942e-06
7.01762e-06
0.000325786
8.07872e-06
-0.000312827
1.54778e-06
8.98098e-07
-4.04998e-07
-6.65022e-08
-1.30131e-07
-1.03982e-06
2.07637e-06
6.51255e-05
8.96785e-07
-4.05005e-07
-6.65063e-08
-1.30129e-07
-1.03985e-06
2.07508e-06
6.51231e-05
-6.30338e-09
0.000252004
-1.16638e-06
1.87718e-05
-1.2387e-05
-1.26916e-06
-7.62472e-06
-5.37063e-06
-1.98601e-07
-5.38977e-06
-1.37125e-07
0.000250742
-6.44661e-06
2.79021e-06
6.5129e-05
-2.03481e-06
8.37699e-07
-6.46122e-05
1.73445e-06
-1.1783e-09
0.000250537
-1.4788e-06
-4.54249e-07
0.000251999
-1.16637e-06
1.87716e-05
-1.23867e-05
-1.26911e-06
-7.62479e-06
-5.37143e-06
-2.01858e-07
-5.39079e-06
-1.39735e-07
0.00025074
-4.21766e-06
2.31564e-06
-6.44656e-06
2.79266e-06
6.5129e-05
-1.05405e-06
-2.03422e-06
8.37722e-07
-6.46129e-05
1.73444e-06
0.000250536
6.83604e-07
-1.4788e-06
-4.56489e-07
-6.30033e-09
1.79634e-06
-6.31142e-05
-1.71685e-06
-1.63524e-07
6.32046e-05
1.33166e-05
-0.000247199
3.53681e-06
1.48814e-06
-6.60652e-05
4.6726e-07
6.4488e-05
-8.76304e-08
-9.63388e-09
-2.74138e-09
6.56361e-08
-2.48942e-08
9.20099e-08
-1.60611e-07
-2.31518e-08
5.16662e-06
-0.000253283
-5.22209e-06
-8.98282e-07
1.7963e-06
-6.31134e-05
-1.71678e-06
-1.74963e-07
6.32025e-05
1.33153e-05
-1.13896e-05
0.000241677
-0.00024717
3.56696e-06
1.48814e-06
-2.50251e-07
-6.60672e-05
4.67268e-07
6.4488e-05
-8.76194e-08
-9.6353e-09
-2.72588e-09
6.55871e-08
-2.48378e-08
9.26281e-08
-1.59312e-07
5.16554e-06
0.000254221
-0.000253243
-5.21916e-06
-9.48175e-07
-1.71838e-08
-1.36134e-06
5.92861e-06
0.000254964
-1.98438e-06
-1.79939e-06
-1.92932e-06
2.77488e-06
0.00025288
-3.98481e-06
2.173e-06
0.000267603
9.21159e-06
-0.000260755
4.27301e-06
-5.44559e-08
2.13291e-05
0.00104533
-0.000257257
-0.0002535
-0.000256979
-0.000255136
-9.43501e-06
-5.88312e-06
-9.24603e-06
-6.66644e-06
-4.0182e-06
-1.82378e-06
-4.02715e-06
-2.63546e-06
8.3647e-07
1.93375e-06
6.4745e-05
-3.49988e-09
1.95186e-06
-2.82928e-06
-6.22368e-07
0.00025204
-1.96696e-08
0.000256838
-0.000256464
-1.06738e-06
5.88011e-06
-1.39078e-06
5.92852e-06
0.000254953
-1.98422e-06
-1.79932e-06
-1.92905e-06
-3.10597e-06
2.77485e-06
0.00025288
-3.98716e-06
2.17795e-06
-7.02596e-06
0.000267546
9.22562e-06
-0.000260724
4.29395e-06
2.13335e-05
0.00104529
-0.000257258
-0.000253497
-0.000256979
-0.000255133
-9.43409e-06
-5.8828e-06
-9.2457e-06
-6.6706e-06
-4.03821e-06
-1.83866e-06
-4.04454e-06
-2.65786e-06
-8.99404e-07
8.37771e-07
1.93371e-06
6.4745e-05
1.95185e-06
-2.82927e-06
-6.28838e-07
0.000252039
0.000256816
-0.000256441
-1.10818e-06
5.8795e-06
0.000250966
-1.59095e-05
-1.59095e-05
6.59537e-05
-2.86557e-07
-1.25048e-06
-6.57164e-05
1.99251e-06
-3.21014e-07
-7.54306e-07
-6.71509e-07
6.59487e-05
-2.85885e-07
-1.24998e-06
-6.57145e-05
1.99255e-06
-3.19756e-07
-7.53643e-07
-6.71517e-07
2.95983e-05
-2.4843e-05
-5.64289e-05
-5.08545e-05
-5.15232e-05
5.04815e-07
-1.65347e-05
-1.57748e-07
-2.10593e-07
1.6148e-05
3.10084e-06
0.000253159
-4.19944e-06
-4.19962e-06
0.000325775
8.09607e-06
-0.000312844
1.54511e-06
-2.96007e-05
7.00691e-06
0.00032585
8.03312e-06
-0.000312852
1.5627e-06
-4.04978e-07
-6.65043e-08
-1.30116e-07
-1.03981e-06
2.07629e-06
6.51242e-05
-5.04818e-07
8.96808e-07
-1.0399e-06
2.0751e-06
6.51231e-05
-4.05008e-07
-6.65061e-08
-1.30127e-07
1.13679e-05
0.000142665
-2.48411e-05
-5.64248e-05
-5.15154e-05
-5.08527e-05
2.4964e-07
-1.65335e-05
-1.57102e-07
-2.11242e-07
1.61474e-05
-6.30331e-09
0.000252005
-1.16639e-06
1.87718e-05
-1.2387e-05
-1.26918e-06
-7.62472e-06
-5.37062e-06
-1.98729e-07
-5.38977e-06
-1.37239e-07
0.000250742
-6.44662e-06
2.7902e-06
6.51265e-05
-2.03296e-06
8.38984e-07
-6.46116e-05
1.73322e-06
-1.34471e-09
0.000250536
-1.47882e-06
-4.53983e-07
0.000251999
-1.16638e-06
1.87717e-05
-1.23868e-05
-1.26913e-06
-7.62477e-06
-5.37142e-06
-2.01986e-07
-5.39079e-06
-1.3973e-07
0.00025074
2.31565e-06
-4.21766e-06
2.79266e-06
-6.44657e-06
0.000250536
6.83619e-07
-1.47883e-06
-4.56493e-07
6.51265e-05
-1.05411e-06
-2.03296e-06
8.3899e-07
-6.46116e-05
1.73321e-06
1.79638e-06
-6.25455e-09
-6.31141e-05
-1.63524e-07
-1.71689e-06
6.32044e-05
1.33192e-05
-0.000247184
3.53727e-06
1.48825e-06
-6.60622e-05
4.65952e-07
6.44849e-05
-8.6969e-08
-1.02589e-08
-3.41672e-09
6.56263e-08
-2.49153e-08
9.26569e-08
-1.5996e-07
5.17046e-06
-2.30203e-08
-0.000253281
-8.98874e-07
-5.21882e-06
-1.72848e-08
-1.36101e-06
5.9313e-06
0.000254961
-1.98443e-06
-1.79945e-06
-1.92937e-06
2.77746e-06
0.00025288
-3.98984e-06
2.17543e-06
0.000267575
9.22173e-06
-0.000260735
4.27472e-06
-8.15729e-08
2.13348e-05
0.00104535
-0.000257262
-0.000253502
-0.000256981
-0.000255137
-9.44295e-06
-5.88615e-06
-9.2515e-06
-6.67193e-06
-4.01796e-06
-1.80051e-06
-4.02174e-06
-2.63001e-06
8.35166e-07
1.9338e-06
6.47425e-05
-4.19181e-09
1.95192e-06
-2.82936e-06
-6.22334e-07
0.00025204
-2.02449e-08
0.000256835
-0.00025646
-1.06713e-06
5.88345e-06
1.79635e-06
-6.31136e-05
-1.71682e-06
-1.74698e-07
6.32025e-05
1.33172e-05
-1.13825e-05
0.000241658
-0.000247157
3.5643e-06
1.48815e-06
-2.49636e-07
-6.60622e-05
4.67258e-07
6.44836e-05
-8.69695e-08
-1.02607e-08
-3.41731e-09
6.56249e-08
-2.49062e-08
9.26623e-08
-1.59953e-07
5.16678e-06
0.000254214
-0.00025324
-5.21589e-06
-9.47866e-07
5.93118e-06
-1.39057e-06
0.000254951
-1.98428e-06
-1.79937e-06
-1.9291e-06
2.77992e-06
-3.10596e-06
0.000252878
2.17796e-06
-3.98976e-06
2.13438e-05
0.00104527
-0.000257257
-0.000253496
-0.000256977
-0.000255137
-9.43948e-06
-5.88311e-06
-9.25107e-06
-6.67092e-06
-4.03821e-06
-1.84379e-06
-4.04209e-06
-2.66032e-06
-7.02838e-06
0.000267541
9.22773e-06
-0.000260716
4.29322e-06
1.9519e-06
-2.82934e-06
-6.29598e-07
0.000252039
-8.9676e-07
8.36416e-07
1.93501e-06
6.474e-05
0.000256811
-0.000256436
5.88021e-06
-1.10836e-06
-4.89892e-10
0.000250244
-1.19362e-07
-1.20119e-07
0.000250602
8.78277e-07
8.75748e-07
0.000250424
4.20718e-07
-2.01175e-07
-8.94127e-10
0.000250422
4.23231e-07
-1.99418e-07
-2.36135e-10
0.000250244
-1.19619e-07
-1.20373e-07
0.0002506
8.78272e-07
8.78268e-07
0.000250424
4.2073e-07
-2.01179e-07
-6.88674e-10
0.000250422
4.23233e-07
-1.99924e-07
0.000250244
-1.20119e-07
-1.20373e-07
0.0002506
-2.31565e-06
-2.31565e-06
8.78266e-07
8.78267e-07
0.000250422
-6.8362e-07
4.23231e-07
-2.01174e-07
0.000250422
-6.83619e-07
4.23233e-07
-2.01169e-07
-7.54489e-10
-1.63192e-09
-3.40654e-07
-3.41436e-07
0.000250929
0.000252554
1.80143e-06
1.8014e-06
1.02104e-05
-2.77658e-08
-0.000252623
-0.000253694
-0.000254494
-0.000251984
0.00103461
1.02236e-05
-6.31226e-08
-0.000252622
-0.000253695
-0.000254491
-0.000251983
0.00103458
-2.20642e-09
1.20838e-06
-4.93429e-07
0.000251664
-3.07355e-09
1.20843e-06
-4.93401e-07
0.000251664
-1.56636e-08
-4.09859e-08
-0.000252868
-0.000251793
-0.000252298
-0.000252303
0.00102975
-1.59349e-09
-3.40902e-07
-3.4269e-07
0.000250929
-2.77995e-06
0.000252552
1.80396e-06
1.80136e-06
1.02104e-05
-0.000252626
-0.000253691
-0.000254489
-0.000251982
0.0010346
1.02463e-05
-5.81856e-08
-2.13373e-05
-0.000252619
-0.000253692
-0.00025198
-0.000254488
0.00103455
1.20837e-06
-4.97423e-07
0.000251663
-2.88893e-09
-1.95193e-06
1.20593e-06
-4.93393e-07
0.000251664
-3.92665e-08
-0.000252871
-0.000251792
-0.000252297
-0.000252304
0.00102974
-7.23066e-10
-3.41435e-07
-3.43459e-07
0.000250928
-2.77998e-06
0.000252557
1.80397e-06
1.79891e-06
1.02283e-05
-0.000252624
-0.000253689
-0.000254494
-0.000251979
0.00103457
1.02614e-05
-2.29239e-08
-2.13443e-05
-0.00025262
-0.000253693
-0.000251979
-0.000254489
0.00103453
1.20842e-06
-4.98441e-07
0.000251663
-2.04185e-09
-1.95192e-06
1.20844e-06
-4.93674e-07
0.000251661
-1.39717e-08
-0.000252869
-0.00025179
-0.000252299
-0.000252301
0.00102972
-3.42687e-07
-3.43458e-07
0.000250928
-2.77992e-06
-2.77993e-06
0.000252552
1.80393e-06
1.80392e-06
1.0251e-05
-2.13488e-05
-0.000252622
-0.000253687
-0.000251979
-0.000254485
0.00103454
1.02614e-05
-2.13489e-05
-0.000252622
-0.000253691
-0.000251977
-0.000254489
0.00103452
-1.95191e-06
1.20592e-06
-4.98184e-07
0.000251663
-1.95192e-06
1.20843e-06
-4.97413e-07
0.000251661
-0.00025287
-0.000251789
-0.000252298
-0.0002523
0.00102972
0.000251999
-1.16639e-06
1.87717e-05
-1.23867e-05
-1.26912e-06
-7.62479e-06
-5.37142e-06
-2.01978e-07
-5.39079e-06
-1.39724e-07
0.00025074
2.79265e-06
-6.44658e-06
0.000250536
-1.47883e-06
-4.5649e-07
6.51265e-05
-2.03296e-06
8.39001e-07
-6.46116e-05
1.73321e-06
-1.79643e-06
-1.71973e-08
-1.36108e-06
5.93137e-06
0.000254961
-1.98447e-06
-1.79947e-06
-1.9294e-06
0.00025288
-3.9899e-06
2.17293e-06
-1.33192e-05
9.20399e-06
-0.00026074
4.26929e-06
-7.72267e-08
-0.000257262
-0.000253501
-0.000255134
-0.00025698
-9.4354e-06
-5.88362e-06
-6.66685e-06
-9.24643e-06
-4.01277e-06
-1.80308e-06
-2.62992e-06
-4.01918e-06
-1.48825e-06
8.35175e-07
1.93381e-06
6.47425e-05
-3.99951e-09
-2.82937e-06
-6.2233e-07
0.00025204
-5.16566e-06
-2.00098e-08
-0.000256461
-1.06598e-06
5.87845e-06
-6.30352e-09
-6.31143e-05
-1.63394e-07
-1.71694e-06
6.32046e-05
0.0002417
-0.000247188
3.53729e-06
-6.60622e-05
4.65963e-07
6.44849e-05
-8.69752e-08
-1.02617e-08
-3.41881e-09
6.56235e-08
-2.49143e-08
9.26611e-08
-1.59961e-07
-2.29758e-08
0.000254255
-0.000253283
-8.97536e-07
-5.21667e-06
-1.79637e-06
5.93124e-06
-1.39054e-06
0.000254951
-1.98428e-06
-1.79939e-06
-1.92909e-06
-3.10592e-06
0.000252878
2.17795e-06
-3.98977e-06
0.00104523
-0.000257253
-0.000253495
-0.000255133
-0.000256976
-9.43433e-06
-5.88062e-06
-9.24603e-06
-6.66081e-06
-4.03819e-06
-1.84116e-06
-4.04199e-06
-2.65505e-06
-1.33118e-05
-7.0232e-06
0.000267558
9.21002e-06
-0.000260726
4.29297e-06
-2.82936e-06
-6.29089e-07
0.000252039
-1.48815e-06
-8.96784e-07
8.36428e-07
1.93502e-06
6.474e-05
-5.16199e-06
0.000256813
-0.00025644
5.87525e-06
-1.10633e-06
-6.31136e-05
-1.71683e-06
-1.74815e-07
6.32026e-05
-1.13805e-05
0.00024166
-0.000247156
3.56442e-06