/*--------------------------------*- C++ -*----------------------------------*\
| =========                 |                                                 |
| \\      /  F ield         | OpenFOAM: The Open Source CFD Toolbox           |
|  \\    /   O peration     | Version:  v2006                                 |
|   \\  /    A nd           | Website:  www.openfoam.com                      |
|    \\/     M anipulation  |                                                 |
\*---------------------------------------------------------------------------*/
FoamFile
{
    version     2.0;
    format      ascii;
    class       volVectorField;
    location    "125";
    object      U;
}
// * * * * * * * * * * * * * * * * * * * * * * * * * * * * * * * * * * * * * //

dimensions      [0 1 -1 0 0 0 0];


internalField   nonuniform List<vector> 
14457
(
(9.38613e-05 9.39141e-05 0.101892)
(9.00992e-05 -0.000152061 0.101957)
(0.000198951 0.00019885 0.101964)
(9.00591e-05 0.000152104 0.101957)
(0.000152045 9.0132e-05 0.101957)
(0.000152072 -9.00894e-05 0.101957)
(0.000198876 -0.000198954 0.101964)
(5.47894e-06 0.0002583 0.0958582)
(-7.94222e-06 0.000236271 0.100928)
(0.000258215 5.57361e-06 0.0958581)
(0.000236298 -7.94366e-06 0.100928)
(9.38962e-05 -9.3888e-05 0.101892)
(0.000149955 -7.71534e-05 0.084976)
(0.000162794 -0.000219889 0.101142)
(7.73681e-05 0.000150041 0.0849782)
(0.000149939 7.73016e-05 0.0849769)
(7.93956e-05 0.000133051 0.0997194)
(0.000133096 7.93989e-05 0.0997187)
(0.000162744 0.000219895 0.101142)
(3.2152e-05 0.000165117 0.101923)
(1.10303e-05 0.000282632 0.101822)
(0.000219933 0.0001628 0.101142)
(0.000165095 3.20919e-05 0.101923)
(0.000282658 1.10272e-05 0.101822)
(0.000258025 -5.53069e-06 0.0958575)
(0.000236272 7.9975e-06 0.100927)
(0.000165095 -3.21402e-05 0.101923)
(0.00021988 -0.000162761 0.101142)
(0.000282652 -1.10294e-05 0.101822)
(0.000133122 -7.94723e-05 0.0997182)
(7.94371e-05 -0.00013311 0.0997198)
(7.72322e-05 -0.000150011 0.0849776)
(5.51614e-06 -0.000258115 0.0958581)
(8.85385e-05 9.18376e-05 0.0807992)
(8.18053e-06 0.000113074 0.0994)
(5.95143e-06 0.000237305 0.0957468)
(9.10046e-05 0.000106633 0.0811649)
(6.55013e-06 9.49633e-05 0.0993891)
(0.000115288 0.000214432 0.0922231)
(-7.39531e-06 0.000211165 0.100962)
(5.83722e-05 0.000295406 0.0942972)
(1.23043e-06 0.000201234 0.100658)
(0.000115915 0.000226111 0.0924528)
(5.70781e-05 0.000283921 0.0941122)
(5.86242e-07 0.000175281 0.100688)
(9.18128e-05 8.85508e-05 0.0807991)
(0.000113023 8.10933e-06 0.0994004)
(0.000237209 6.02732e-06 0.0957462)
(0.000106612 9.10204e-05 0.081165)
(9.48934e-05 6.46221e-06 0.0993888)
(0.00021449 0.000115386 0.092223)
(0.000211203 -7.42121e-06 0.100962)
(0.000201266 1.30508e-06 0.100658)
(0.000295456 5.82737e-05 0.094297)
(0.000226191 0.000116017 0.092453)
(0.000175292 6.46395e-07 0.100688)
(0.000283988 5.69928e-05 0.0941123)
(0.000134008 -6.77045e-05 0.0846663)
(6.78918e-05 0.00013403 0.084668)
(0.000133915 6.78164e-05 0.084666)
(0.000170515 0.000161719 0.101091)
(0.000151013 0.000225658 0.101705)
(0.000121241 0.000308643 0.0952235)
(6.31355e-05 0.000121954 0.099713)
(0.000187142 0.000193864 0.101053)
(0.000114443 0.000293767 0.0950747)
(0.00012653 0.000181015 0.101763)
(0.000161731 0.00017054 0.101092)
(0.000225562 0.000150881 0.101705)
(0.000308595 0.000121293 0.0952204)
(0.000121962 6.31013e-05 0.0997125)
(0.000193772 0.000187108 0.101052)
(0.000293762 0.000114536 0.0950726)
(0.000180924 0.00012645 0.101763)
(3.14886e-05 3.15908e-05 0.0985802)
(0.000156179 7.27373e-05 0.0821312)
(7.2778e-05 0.000156138 0.082127)
(3.98616e-05 3.99742e-05 0.0986424)
(6.52365e-05 0.000143971 0.0817721)
(9.17652e-05 -8.84806e-05 0.0808009)
(0.000112999 -8.18194e-06 0.0993996)
(0.000237045 -5.985e-06 0.0957461)
(0.00010655 -9.09213e-05 0.0811662)
(9.48787e-05 -6.52345e-06 0.0993889)
(0.000214413 -0.000115464 0.0922231)
(0.000211282 7.43362e-06 0.100963)
(0.000295353 -5.84042e-05 0.0942961)
(0.000201192 -1.29964e-06 0.100657)
(0.000284015 -5.71059e-05 0.0941128)
(0.000225944 -0.000116073 0.0924509)
(0.000175358 -6.54345e-07 0.100689)
(0.000161727 -0.000170518 0.101092)
(0.00022564 -0.00015095 0.101705)
(0.000308588 -0.000121263 0.0952206)
(0.000122034 -6.31871e-05 0.0997126)
(0.000293717 -0.000114465 0.0950723)
(0.000193801 -0.000187103 0.101052)
(0.000181022 -0.000126498 0.101763)
(0.000170497 -0.000161702 0.101092)
(0.000150954 -0.000225597 0.101705)
(0.00012124 -0.000308513 0.095224)
(6.31184e-05 -0.000121948 0.0997128)
(0.000126475 -0.000180921 0.101763)
(0.000187117 -0.00019384 0.101054)
(0.000114418 -0.00029361 0.0950748)
(3.15799e-05 -3.16421e-05 0.0985803)
(7.27522e-05 -0.000156173 0.0821272)
(0.000156116 -7.27677e-05 0.0821312)
(3.99593e-05 -4.00219e-05 0.0986426)
(0.000143916 -6.52148e-05 0.0817757)
(6.77555e-05 -0.000133982 0.0846668)
(8.85517e-05 -9.19096e-05 0.0808023)
(8.137e-06 -0.000112967 0.0993987)
(5.965e-06 -0.00023714 0.0957471)
(6.53884e-06 -9.49452e-05 0.099391)
(9.09724e-05 -0.000106529 0.0811629)
(3.05747e-05 9.32269e-05 0.101854)
(9.322e-05 3.0558e-05 0.101854)
(3.22918e-05 3.22731e-05 0.101818)
(0.000153399 0.000153247 0.101864)
(0.000199992 0.000188072 0.101934)
(0.000188081 0.00019992 0.101934)
(9.40132e-05 9.39449e-05 0.102013)
(0.000191222 0.000191145 0.101805)
(8.37815e-05 0.000152283 0.101989)
(0.000152322 8.37665e-05 0.101989)
(0.000153295 -0.00015333 0.101864)
(0.00018807 -0.000199992 0.101934)
(0.00019993 -0.0001881 0.101934)
(9.39786e-05 -9.39869e-05 0.102013)
(8.3729e-05 -0.00015229 0.101989)
(0.000191145 -0.000191209 0.101805)
(0.000152334 -8.38053e-05 0.101989)
(9.32316e-05 -3.05886e-05 0.101854)
(3.05686e-05 -9.3232e-05 0.101854)
(3.22863e-05 -3.23067e-05 0.101818)
(6.59822e-05 -0.000107885 0.101983)
(0.000104667 -0.000277938 0.101857)
(9.43376e-05 -0.00023426 0.101671)
(0.000147903 -0.000177204 0.1012)
(6.78742e-05 -0.000252419 0.101925)
(9.44564e-05 -0.000123145 0.101915)
(9.31876e-05 -0.000187932 0.101737)
(6.602e-05 0.000107864 0.101983)
(0.000104659 0.000277982 0.101857)
(9.43923e-05 0.000234256 0.101672)
(9.32549e-05 0.000187886 0.101737)
(6.79065e-05 0.000252418 0.101925)
(9.4441e-05 0.000123184 0.101915)
(3.08139e-05 0.000128774 0.101989)
(1.14368e-05 0.000241905 0.101882)
(3.31476e-05 0.000266408 0.101791)
(1.2049e-05 0.000259877 0.101934)
(3.42048e-05 0.000223406 0.101853)
(3.09368e-05 0.000258736 0.101934)
(1.26016e-05 0.000136832 0.101989)
(0.000107898 6.59619e-05 0.101983)
(0.00027799 0.000104628 0.101857)
(0.000234309 9.43373e-05 0.101672)
(0.000177239 0.000147921 0.101199)
(0.000187926 9.31884e-05 0.101737)
(0.00025244 6.78396e-05 0.101925)
(0.000123182 9.44617e-05 0.101915)
(0.00012878 3.07657e-05 0.101989)
(0.000241936 1.14182e-05 0.101882)
(0.000266443 3.31589e-05 0.101791)
(0.000259875 1.20272e-05 0.101934)
(0.000223429 3.42047e-05 0.101853)
(0.000258749 3.08949e-05 0.101934)
(0.000136827 1.25746e-05 0.101989)
(0.000107868 -6.59952e-05 0.101983)
(0.000277941 -0.000104651 0.101857)
(0.000234271 -9.43236e-05 0.101672)
(0.000177211 -0.000147886 0.101199)
(0.000252431 -6.78664e-05 0.101925)
(0.000187892 -9.31757e-05 0.101737)
(0.000123125 -9.44773e-05 0.101915)
(0.000128752 -3.07973e-05 0.101989)
(0.000241945 -1.14414e-05 0.101882)
(0.000259886 -1.20453e-05 0.101934)
(0.00026639 -3.31682e-05 0.101791)
(0.000258717 -3.09176e-05 0.101934)
(0.000223404 -3.4217e-05 0.101854)
(0.000107945 0.000107901 0.100299)
(-0.000190208 0.000119269 0.100385)
(0.000119319 -0.000190207 0.100385)
(-0.000239584 -0.000239574 0.100397)
(9.42508e-05 9.4233e-05 0.10086)
(-0.000158956 9.67978e-05 0.100942)
(9.68134e-05 -0.000159001 0.100942)
(-0.000201067 -0.000201152 0.100968)
(0.000134949 0.000134976 0.100282)
(0.000124244 0.000152885 0.100229)
(-0.000124248 0.000152835 0.100229)
(-0.000134971 0.000134901 0.100282)
(0.000152887 0.000124219 0.100229)
(0.00015286 -0.000124246 0.100229)
(9.08001e-05 9.07616e-05 0.100151)
(-9.08034e-05 9.07435e-05 0.100151)
(9.07748e-05 -9.08063e-05 0.100151)
(-9.07736e-05 -9.07867e-05 0.100151)
(-0.000152905 0.000124181 0.100229)
(-0.00015287 -0.000124189 0.100229)
(0.000134935 -0.000134989 0.100282)
(0.000124211 -0.000152915 0.100229)
(-0.000124187 -0.000152862 0.100229)
(-0.000134958 -0.00013492 0.100282)
(0.000239615 0.000239634 0.100397)
(0.000111257 0.000111147 0.100892)
(0.000119382 0.000190143 0.100385)
(-0.000119364 0.00019009 0.100385)
(8.90591e-05 0.00014718 0.100823)
(-8.90808e-05 0.000147181 0.100823)
(-0.000239669 0.00023954 0.100397)
(-0.000111288 0.00011112 0.100892)
(0.000190206 0.000119299 0.100385)
(0.000190146 -0.000119346 0.100385)
(0.000147158 8.9035e-05 0.100823)
(0.000147211 -8.91274e-05 0.100823)
(-0.000190143 -0.000119353 0.100385)
(-0.000147178 8.90504e-05 0.100823)
(-0.000147224 -8.91121e-05 0.100823)
(0.000239562 -0.000239694 0.100397)
(0.000111239 -0.000111316 0.100892)
(-0.000119338 -0.000190168 0.100385)
(8.90838e-05 -0.000147237 0.100823)
(-8.90743e-05 -0.000147204 0.100823)
(-0.00011127 -0.000111334 0.100892)
(0.000201089 0.000200949 0.100967)
(9.6782e-05 0.00015897 0.100941)
(-9.6806e-05 0.000158954 0.100941)
(-0.000201136 0.000200911 0.100967)
(0.00015895 9.67905e-05 0.100942)
(0.00015899 -9.68483e-05 0.100942)
(-0.000159002 -9.68296e-05 0.100942)
(0.00020104 -0.000201158 0.100968)
(-9.68153e-05 -0.00015897 0.100942)
(-3.34708e-07 -3.36944e-07 0.0999988)
(1.68264e-05 1.68236e-05 0.100003)
(-4.50148e-07 1.39328e-05 0.1)
(1.39392e-05 -4.53702e-07 0.1)
(-4.65979e-05 5.73216e-06 0.100009)
(-1.52709e-05 1.55854e-05 0.0999999)
(-0.000127874 6.0443e-05 0.100058)
(-1.31105e-05 -8.63687e-07 0.0999958)
(5.73717e-06 -4.65879e-05 0.100009)
(1.55914e-05 -1.52725e-05 0.0999999)
(-8.60398e-07 -1.31107e-05 0.0999958)
(6.04505e-05 -0.00012794 0.100058)
(-1.87276e-05 -1.87294e-05 0.100003)
(-0.000134954 -8.10856e-05 0.100055)
(-8.1083e-05 -0.000134955 0.100055)
(-3.48945e-05 0.000135809 0.100723)
(0.000176675 0.000389376 0.0994175)
(2.3114e-06 0.000305468 0.100517)
(-8.43561e-05 0.000243779 0.0991469)
(-0.000303296 0.000837503 0.0977725)
(-0.000129144 0.000304581 0.0957181)
(0.000135828 -3.49477e-05 0.100724)
(0.000388993 0.000175824 0.0994175)
(0.000305998 2.29257e-06 0.100517)
(0.000243406 -8.39988e-05 0.0991467)
(-0.000107953 0.000107879 0.100299)
(0.000107919 -0.000107955 0.100299)
(-0.000107922 -0.000107932 0.100299)
(9.17265e-05 9.16772e-05 0.100739)
(-9.17361e-05 9.16866e-05 0.100739)
(9.1715e-05 -9.1763e-05 0.100739)
(-9.17247e-05 -9.17884e-05 0.100739)
(-0.000280745 6.44769e-06 0.100754)
(-0.00039902 0.000229265 0.100526)
(-0.000175285 3.73827e-05 0.100332)
(-0.00015325 9.44837e-05 0.100558)
(-0.000358989 1.56261e-05 0.100479)
(-0.00014876 0.000198749 0.100739)
(-0.000152725 3.32779e-05 0.100497)
(0.000836999 -0.000301658 0.0977709)
(0.000304796 -0.000128576 0.0957184)
(6.39396e-06 -0.000280744 0.100753)
(3.74139e-05 -0.000175281 0.100332)
(0.000229247 -0.000399132 0.100526)
(9.44943e-05 -0.000153256 0.100558)
(1.56591e-05 -0.000358951 0.100479)
(3.32996e-05 -0.000152737 0.100497)
(0.000198709 -0.000149018 0.100739)
(-0.000372827 -0.000141977 0.100361)
(-0.000141885 -0.000372776 0.100361)
(-0.000111967 -0.000112074 0.100655)
(1.0922e-05 -7.90054e-05 0.10059)
(-7.88996e-05 1.09662e-05 0.10059)
(-1.66554e-05 0.000198256 0.100867)
(-5.49741e-05 0.000288439 0.098321)
(-2.04392e-05 0.000208663 0.100778)
(-4.49305e-05 0.000271341 0.0979443)
(-0.000150283 0.000313376 0.0926215)
(-0.000137161 0.000273072 0.090999)
(0.0001983 -1.67107e-05 0.100867)
(0.000288254 -5.48638e-05 0.0983209)
(0.000208734 -2.04801e-05 0.100778)
(0.000271174 -4.47742e-05 0.097944)
(-9.4262e-05 9.42405e-05 0.10086)
(9.42654e-05 -9.42932e-05 0.10086)
(-9.42769e-05 -9.43103e-05 0.10086)
(-0.000263631 1.32979e-05 0.101153)
(-0.000219083 0.000214241 0.100819)
(-0.000164533 3.10458e-05 0.100897)
(-0.000160214 9.74192e-05 0.101064)
(-0.000298 1.41274e-05 0.100977)
(-0.000183264 0.000197872 0.100944)
(-0.000168739 3.24858e-05 0.101019)
(0.00031345 -0.000150006 0.0926207)
(0.000273184 -0.000136918 0.0909995)
(1.3301e-05 -0.000263629 0.101153)
(3.10708e-05 -0.000164553 0.100897)
(0.000214257 -0.000219148 0.100819)
(9.74151e-05 -0.000160245 0.101064)
(1.41269e-05 -0.000297993 0.100977)
(3.25071e-05 -0.000168753 0.101019)
(0.000197818 -0.000183304 0.100945)
(-8.39396e-05 -9.72441e-05 0.100439)
(-9.71847e-05 -8.39053e-05 0.100439)
(-0.000112491 -0.000112526 0.101144)
(-8.67684e-05 -8.27362e-05 0.10043)
(-8.26404e-05 -8.67306e-05 0.100429)
(1.87255e-05 1.87176e-05 0.100003)
(8.09913e-05 0.000134939 0.100054)
(0.000134964 8.103e-05 0.100054)
(0.000413588 0.00104176 0.0978822)
(0.000115082 0.000204246 0.100125)
(0.00104094 0.000411149 0.0978822)
(0.000204285 0.000115094 0.100125)
(0.000102442 0.000102429 0.100042)
(0.000116869 0.000513191 0.100279)
(0.000512276 0.00011643 0.100279)
(0.000117337 0.00018041 0.100096)
(0.000180426 0.000117352 0.100096)
(5.73532e-06 4.6578e-05 0.100009)
(1.55929e-05 1.52669e-05 0.0999999)
(6.04389e-05 0.000127832 0.100058)
(-8.60281e-07 1.3104e-05 0.0999958)
(-5.72612e-06 4.65778e-05 0.100009)
(-1.55919e-05 1.52639e-05 0.0999999)
(-6.04427e-05 0.000127844 0.100058)
(8.62153e-07 1.31033e-05 0.0999958)
(4.59987e-06 0.000154604 0.100054)
(0.000326243 0.000315062 0.0993589)
(9.8381e-05 0.000167666 0.100055)
(7.37678e-06 0.000327292 0.100419)
(-4.58627e-06 0.000154613 0.100054)
(-0.000326894 0.000314948 0.0993585)
(-9.8367e-05 0.000167728 0.100056)
(-7.39288e-06 0.000327173 0.100419)
(1.38438e-05 0.000160295 0.100055)
(6.24749e-05 8.73121e-05 0.100031)
(0.000206565 0.000375911 0.100428)
(3.28772e-05 0.000155345 0.100173)
(9.68791e-05 0.000162627 0.100054)
(1.253e-05 6.53544e-05 0.100026)
(1.27151e-05 0.000318373 0.100356)
(-1.38228e-05 0.00016029 0.100055)
(-6.24744e-05 8.73009e-05 0.100031)
(-0.000206573 0.000375848 0.100427)
(-3.286e-05 0.000155339 0.100173)
(-9.68719e-05 0.000162609 0.100054)
(-1.25232e-05 6.53536e-05 0.100026)
(-1.27253e-05 0.000318271 0.100356)
(-1.87246e-05 1.87136e-05 0.100003)
(-8.09997e-05 0.00013495 0.100054)
(-0.000134981 8.10508e-05 0.100054)
(-0.000413652 0.00104195 0.0978821)
(-0.000115067 0.000204254 0.100125)
(-0.000102447 0.000102417 0.100042)
(-0.000116782 0.000513314 0.100279)
(-0.000512134 0.000116338 0.100279)
(-0.00011733 0.000180358 0.100096)
(-0.00018043 0.000117399 0.100096)
(-0.00104074 0.000410656 0.0978819)
(-0.000204299 0.000115125 0.100125)
(4.65954e-05 5.73041e-06 0.100009)
(1.52696e-05 1.55884e-05 0.0999999)
(0.000127869 6.04358e-05 0.100058)
(1.31093e-05 -8.6432e-07 0.0999958)
(4.65973e-05 -5.72817e-06 0.100009)
(1.52686e-05 -1.55934e-05 0.0999999)
(1.31104e-05 8.58453e-07 0.0999958)
(0.000127862 -6.04471e-05 0.100058)
(0.000154666 4.60055e-06 0.100054)
(0.00031468 0.000325128 0.0993585)
(0.000167763 9.8308e-05 0.100056)
(0.000327975 7.34516e-06 0.100419)
(0.000160393 1.38334e-05 0.100055)
(8.73358e-05 6.24562e-05 0.100031)
(0.000375971 0.000206236 0.100428)
(0.000155431 3.28452e-05 0.100173)
(0.000162655 9.68525e-05 0.100054)
(6.53859e-05 1.2519e-05 0.100026)
(0.000318698 1.26706e-05 0.100356)
(0.00015467 -4.57462e-06 0.100054)
(0.000313694 -0.000325242 0.0993585)
(0.000167696 -9.8323e-05 0.100055)
(0.000327896 -7.24814e-06 0.100419)
(0.000160377 -1.38149e-05 0.100055)
(8.73268e-05 -6.24808e-05 0.100031)
(0.000155409 -3.28616e-05 0.100173)
(0.000375875 -0.000206371 0.100428)
(6.53805e-05 -1.2526e-05 0.100026)
(0.00016261 -9.68716e-05 0.100054)
(0.000318585 -1.26451e-05 0.100356)
(3.34773e-07 -3.36823e-07 0.0999988)
(-1.68266e-05 1.682e-05 0.100003)
(4.52256e-07 1.39325e-05 0.1)
(-1.39406e-05 -4.53043e-07 0.1)
(-3.3472e-07 3.32407e-07 0.0999988)
(1.68257e-05 -1.68276e-05 0.100003)
(1.39393e-05 4.49645e-07 0.1)
(-4.50635e-07 -1.39403e-05 0.1)
(3.34662e-07 3.32403e-07 0.0999988)
(-1.68262e-05 -1.68242e-05 0.100003)
(-1.39403e-05 4.5025e-07 0.1)
(4.53042e-07 -1.39399e-05 0.1)
(9.62276e-06 9.61099e-06 0.100016)
(4.53789e-05 4.53592e-05 0.100015)
(2.90197e-05 8.4748e-05 0.100134)
(8.47936e-05 2.89913e-05 0.100134)
(1.06428e-05 3.72801e-05 0.100014)
(3.72981e-05 1.06325e-05 0.100014)
(2.75865e-05 2.75535e-05 0.100121)
(-9.62396e-06 9.61064e-06 0.100016)
(-4.53794e-05 4.5354e-05 0.100015)
(-2.90207e-05 8.47422e-05 0.100134)
(-8.47994e-05 2.89867e-05 0.100134)
(-1.06412e-05 3.72784e-05 0.100014)
(-3.73001e-05 1.06307e-05 0.100014)
(-2.75911e-05 2.75525e-05 0.100121)
(9.6226e-06 -9.63169e-06 0.100016)
(4.53714e-05 -4.53832e-05 0.100015)
(8.47851e-05 -2.90383e-05 0.100134)
(2.90177e-05 -8.48041e-05 0.100134)
(3.72956e-05 -1.06477e-05 0.100014)
(1.06416e-05 -3.73017e-05 0.100014)
(2.7586e-05 -2.76129e-05 0.100121)
(-9.62322e-06 -9.63123e-06 0.100016)
(-4.53706e-05 -4.53776e-05 0.100015)
(-8.47906e-05 -2.90338e-05 0.100134)
(-2.90152e-05 -8.47976e-05 0.100134)
(-3.72978e-05 -1.06458e-05 0.100014)
(-1.06388e-05 -3.72998e-05 0.100014)
(-2.75888e-05 -2.76116e-05 0.100121)
(-4.65921e-05 -5.719e-06 0.100009)
(-1.52715e-05 -1.55896e-05 0.0999999)
(-1.31105e-05 8.5875e-07 0.0999958)
(-0.000127863 -6.04678e-05 0.100058)
(-0.000160425 1.38295e-05 0.100055)
(-8.73366e-05 6.24466e-05 0.100031)
(-0.000375977 0.000206201 0.100428)
(-0.000155443 3.28405e-05 0.100173)
(-0.000162663 9.68747e-05 0.100054)
(-6.53913e-05 1.25176e-05 0.100026)
(-0.000318773 1.2631e-05 0.100356)
(-0.000154727 4.6062e-06 0.100054)
(-0.00031476 0.000325094 0.0993589)
(-0.000167771 9.83261e-05 0.100055)
(-0.000328178 7.2381e-06 0.100419)
(-0.000160402 -1.3803e-05 0.100055)
(-8.73241e-05 -6.24757e-05 0.100031)
(-0.000155428 -3.2851e-05 0.100173)
(-0.00037583 -0.000206292 0.100428)
(-6.53875e-05 -1.25225e-05 0.100026)
(-0.000162616 -9.68933e-05 0.100054)
(-0.000318669 -1.26506e-05 0.100356)
(-0.000154705 -4.55165e-06 0.100054)
(-0.000313737 -0.000325111 0.0993581)
(-0.0001677 -9.83525e-05 0.100056)
(-0.000328052 -7.25422e-06 0.100419)
(1.87228e-05 -1.87277e-05 0.100003)
(0.000134933 -8.10458e-05 0.100055)
(8.10431e-05 -0.000134991 0.100054)
(0.00104043 -0.00041114 0.0978822)
(0.000204251 -0.000115093 0.100125)
(0.000102443 -0.000102458 0.100042)
(0.000512003 -0.000116713 0.100279)
(0.000116721 -0.000512225 0.100279)
(0.000180389 -0.000117366 0.100096)
(0.000117378 -0.00018047 0.100096)
(0.00041148 -0.00104107 0.0978826)
(0.000115079 -0.000204368 0.100125)
(-5.71904e-06 -4.65835e-05 0.100009)
(-1.55889e-05 -1.52701e-05 0.0999999)
(8.63136e-07 -1.31101e-05 0.0999958)
(-6.04668e-05 -0.00012786 0.100058)
(1.38428e-05 -0.000160394 0.100055)
(6.24701e-05 -8.7341e-05 0.100031)
(3.28658e-05 -0.000155432 0.100173)
(0.000206219 -0.000375964 0.100428)
(1.25272e-05 -6.53869e-05 0.100026)
(9.68905e-05 -0.000162713 0.100054)
(1.26708e-05 -0.000318692 0.100356)
(-1.38072e-05 -0.000160378 0.100055)
(-6.24743e-05 -8.73298e-05 0.100031)
(-3.28463e-05 -0.000155424 0.100173)
(-0.000206292 -0.000375793 0.100428)
(-1.25194e-05 -6.5385e-05 0.100026)
(-9.69104e-05 -0.000162632 0.100054)
(-1.26561e-05 -0.000318584 0.100356)
(4.60818e-06 -0.000154663 0.100054)
(0.000324877 -0.000314008 0.099359)
(9.83411e-05 -0.000167843 0.100056)
(7.32748e-06 -0.000327984 0.100419)
(-4.56179e-06 -0.000154664 0.100054)
(-0.000325195 -0.000314264 0.0993583)
(-9.83685e-05 -0.000167748 0.100056)
(-7.32286e-06 -0.000327864 0.100419)
(-0.000102441 -0.000102442 0.100042)
(-0.000511807 -0.000116612 0.100279)
(-0.00011655 -0.000511779 0.100279)
(-0.000180414 -0.0001174 0.100096)
(-0.000117437 -0.000180408 0.100096)
(-0.00104023 -0.000410676 0.0978819)
(-0.000204264 -0.000115157 0.100125)
(-0.000410705 -0.0010402 0.0978818)
(-0.000115162 -0.000204271 0.100125)
(0.000303412 0.000837584 0.0977726)
(0.000129171 0.000304281 0.0957186)
(0.000836738 0.000301374 0.0977713)
(0.000304554 0.000128841 0.0957186)
(0.000142213 0.00037339 0.100361)
(0.000372659 0.000142035 0.100361)
(0.000112056 0.000111919 0.100655)
(7.92101e-05 -1.1478e-05 0.10059)
(-1.11795e-05 7.89856e-05 0.10059)
(0.00015303 0.000321825 0.0932426)
(0.00016836 0.000342275 0.0950108)
(0.000321768 0.000152599 0.0932416)
(0.000342258 0.000167801 0.0950107)
(0.000185326 0.000185164 0.100733)
(8.09162e-05 6.57335e-05 0.100487)
(6.58246e-05 8.07904e-05 0.100487)
(8.6684e-05 3.53584e-05 0.100515)
(3.5446e-05 8.646e-05 0.100515)
(3.48239e-05 0.00013594 0.100723)
(-0.000177187 0.000389203 0.0994173)
(-2.36915e-06 0.000305392 0.100517)
(8.39627e-05 0.000243749 0.0991462)
(6.45514e-06 0.000280662 0.100753)
(0.000229462 0.000399054 0.100526)
(3.7461e-05 0.000175173 0.100332)
(9.45419e-05 0.0001532 0.100558)
(1.57099e-05 0.000358669 0.100479)
(0.000198563 0.000148906 0.100739)
(3.33009e-05 0.000152651 0.100497)
(-6.36146e-06 0.000280619 0.100753)
(-0.000229574 0.000398998 0.100526)
(-3.74469e-05 0.000175138 0.100332)
(-9.45623e-05 0.000153196 0.100558)
(-1.56793e-05 0.000358565 0.100479)
(-0.000198609 0.000148993 0.100739)
(-3.33171e-05 0.000152637 0.100497)
(-3.37534e-05 0.000154394 0.100721)
(-5.69654e-05 0.000266731 0.0984862)
(-5.9293e-05 0.00025892 0.0989114)
(-2.15708e-05 0.000177059 0.10077)
(3.36228e-05 0.000154523 0.100721)
(5.69113e-05 0.000266692 0.0984857)
(5.90114e-05 0.000258956 0.098911)
(2.14265e-05 0.000177098 0.100769)
(8.39705e-06 0.000292561 0.100793)
(8.02131e-05 0.000133423 0.100702)
(0.000202065 0.000175787 0.100804)
(2.888e-05 0.000152234 0.100776)
(0.00020513 0.000174312 0.100724)
(2.86939e-05 0.000141157 0.100647)
(1.46102e-05 0.000263449 0.100923)
(-8.37856e-06 0.00029256 0.100793)
(-8.02365e-05 0.000133436 0.100702)
(-0.000202036 0.000175816 0.100804)
(-2.89235e-05 0.000152247 0.100776)
(-0.000205145 0.000174458 0.100724)
(-2.8726e-05 0.000141162 0.100647)
(-1.4662e-05 0.000263457 0.100923)
(-0.00014216 0.000373295 0.100361)
(-0.000372659 0.00014196 0.100361)
(-0.000112076 0.000111912 0.100655)
(-7.93007e-05 -1.13277e-05 0.10059)
(1.12221e-05 7.89306e-05 0.100589)
(-0.000836695 0.000301068 0.0977715)
(-0.000304409 0.000128679 0.0957183)
(-0.000152693 0.000321679 0.0932416)
(-0.000168185 0.000342457 0.0950107)
(-0.000185376 0.000185149 0.100733)
(-8.09371e-05 6.56243e-05 0.100487)
(-6.58458e-05 8.0752e-05 0.100486)
(-8.67271e-05 3.54387e-05 0.100515)
(-3.55345e-05 8.64849e-05 0.100516)
(-0.000321811 0.000152575 0.0932419)
(-0.000342272 0.000167765 0.0950112)
(0.000280729 6.38593e-06 0.100753)
(0.000399072 0.00022927 0.100526)
(0.000175271 3.73865e-05 0.100332)
(0.000153254 9.44842e-05 0.100558)
(0.000358931 1.5667e-05 0.100479)
(0.000148829 0.000198666 0.100739)
(0.000152712 3.32858e-05 0.100497)
(0.000136011 3.50099e-05 0.100724)
(0.000388155 -0.000176347 0.0994169)
(0.000305996 -2.21875e-06 0.100517)
(0.000242945 8.40172e-05 0.0991466)
(0.000280691 -6.36278e-06 0.100753)
(0.000175239 -3.74523e-05 0.100332)
(0.000399149 -0.000229468 0.100526)
(0.000153217 -9.45392e-05 0.100558)
(0.000358814 -1.56258e-05 0.100479)
(0.000152687 -3.33247e-05 0.100497)
(0.000149005 -0.000198693 0.100739)
(0.000154395 -3.37836e-05 0.100721)
(0.000266484 -5.69176e-05 0.0984858)
(0.000258598 -5.913e-05 0.0989114)
(0.000177143 -2.16248e-05 0.10077)
(0.000292616 8.33438e-06 0.100793)
(0.000133417 8.0172e-05 0.100702)
(0.000175752 0.000202107 0.100804)
(0.000152265 2.88603e-05 0.100776)
(0.000174281 0.0002052 0.100724)
(0.000141181 2.86935e-05 0.100647)
(0.000263537 1.45415e-05 0.100923)
(0.000154517 3.38188e-05 0.100721)
(0.000266143 5.68608e-05 0.098486)
(0.000258169 5.91019e-05 0.0989109)
(0.000177234 2.15761e-05 0.10077)
(0.000292608 -8.36681e-06 0.100793)
(0.00013344 -8.02414e-05 0.100702)
(0.000152262 -2.8937e-05 0.100776)
(0.000175837 -0.000202184 0.100804)
(0.000141165 -2.87367e-05 0.100647)
(0.000174412 -0.000205231 0.100724)
(0.000263571 -1.46564e-05 0.100923)
(-0.000135814 -3.49086e-05 0.100724)
(-0.000389036 0.000175888 0.0994174)
(-0.000306141 2.17385e-06 0.100517)
(-0.000243407 -8.40724e-05 0.099147)
(-0.000280689 -6.30647e-06 0.100753)
(-0.000175249 -3.74408e-05 0.100332)
(-0.000399081 -0.000229417 0.100526)
(-0.000153214 -9.44748e-05 0.100558)
(-0.000358883 -1.56312e-05 0.100479)
(-0.000152694 -3.33113e-05 0.100497)
(-0.000149 -0.000198859 0.100739)
(-0.000135888 3.49086e-05 0.100724)
(-0.000388216 -0.000176209 0.0994172)
(-0.00030601 -2.25611e-06 0.100517)
(-0.000242983 8.38751e-05 0.0991463)
(-0.000292643 8.38866e-06 0.100793)
(-0.000133443 8.0193e-05 0.100702)
(-0.000175746 0.000202145 0.100804)
(-0.000152287 2.88668e-05 0.100776)
(-0.000174241 0.000205316 0.100724)
(-0.000141204 2.86934e-05 0.100647)
(-0.000263581 1.45898e-05 0.100923)
(-0.00015439 -3.37785e-05 0.100721)
(-0.000266525 -5.68592e-05 0.0984863)
(-0.0002586 -5.90975e-05 0.0989112)
(-0.000177156 -2.16302e-05 0.10077)
(-0.000292623 -8.32733e-06 0.100793)
(-0.00013345 -8.02038e-05 0.100702)
(-0.000152287 -2.89287e-05 0.100776)
(-0.000175832 -0.00020224 0.100804)
(-0.000141188 -2.87236e-05 0.100647)
(-0.000174427 -0.000205422 0.100724)
(-0.000263581 -1.46277e-05 0.100923)
(-0.000154493 3.37043e-05 0.100721)
(-0.000266194 5.68422e-05 0.0984857)
(-0.00025824 5.89819e-05 0.0989113)
(-0.000177149 2.14869e-05 0.10077)
(0.000372968 -0.000142106 0.100361)
(0.000142219 -0.000372765 0.100361)
(0.000111948 -0.000112053 0.100655)
(-1.09812e-05 -7.90359e-05 0.10059)
(7.89355e-05 1.11032e-05 0.10059)
(0.000301663 -0.000837032 0.0977718)
(0.000128667 -0.000304604 0.0957186)
(0.000321963 -0.000152544 0.093242)
(0.000342559 -0.000167679 0.0950098)
(0.000185208 -0.000185369 0.100733)
(6.59667e-05 -8.1136e-05 0.100487)
(8.09658e-05 -6.59975e-05 0.100487)
(3.56779e-05 -8.65886e-05 0.100515)
(8.65255e-05 -3.56712e-05 0.100516)
(0.000152759 -0.000322072 0.0932425)
(0.00016781 -0.000342501 0.0950106)
(-6.33799e-06 -0.000280692 0.100753)
(-3.74e-05 -0.000175255 0.100332)
(-0.000229374 -0.000398998 0.100526)
(-9.44372e-05 -0.00015324 0.100558)
(-1.56394e-05 -0.000358845 0.100479)
(-3.33349e-05 -0.000152732 0.100497)
(-0.000198764 -0.000148969 0.100739)
(-3.48805e-05 -0.000135913 0.100724)
(0.000175677 -0.000388418 0.0994175)
(2.23021e-06 -0.000306076 0.100517)
(-8.42956e-05 -0.000243087 0.0991471)
(3.49388e-05 -0.000136 0.100723)
(-0.000176276 -0.000388635 0.0994172)
(-2.28852e-06 -0.000306009 0.100517)
(8.38632e-05 -0.00024334 0.0991462)
(8.3558e-06 -0.000292649 0.100793)
(8.02111e-05 -0.000133472 0.100702)
(2.8891e-05 -0.0001523 0.100776)
(0.000202214 -0.000175867 0.100804)
(2.87092e-05 -0.000141213 0.100647)
(0.000205299 -0.000174474 0.100724)
(1.45812e-05 -0.000263567 0.100923)
(-8.34728e-06 -0.000292634 0.100793)
(-8.01628e-05 -0.000133461 0.100702)
(-2.89403e-05 -0.000152298 0.100776)
(-0.000202182 -0.000175807 0.100804)
(-2.87643e-05 -0.000141202 0.100647)
(-0.000205324 -0.00017441 0.100724)
(-1.46127e-05 -0.000263601 0.100923)
(-3.37214e-05 -0.00015451 0.100721)
(-5.68186e-05 -0.00026628 0.0984866)
(-5.92485e-05 -0.00025833 0.0989114)
(-2.15581e-05 -0.000177164 0.10077)
(3.37537e-05 -0.000154554 0.100721)
(5.67551e-05 -0.000266427 0.0984856)
(5.89776e-05 -0.000258576 0.0989112)
(2.15489e-05 -0.000177198 0.10077)
(-0.000836798 -0.00030126 0.0977713)
(-0.00030475 -0.000128504 0.0957182)
(-0.000301362 -0.000836752 0.0977712)
(-0.000128605 -0.000304734 0.0957179)
(-0.00018527 -0.000185393 0.100733)
(-6.59603e-05 -8.09377e-05 0.100487)
(-8.08525e-05 -6.59322e-05 0.100487)
(-3.5728e-05 -8.66093e-05 0.100515)
(-8.6504e-05 -3.56986e-05 0.100516)
(-0.000321907 -0.000152387 0.093242)
(-0.000342519 -0.000167599 0.0950108)
(-0.000152531 -0.000321837 0.0932414)
(-0.00016769 -0.000342497 0.0950106)
(0.000150449 0.000313402 0.0926222)
(0.000137251 0.000273105 0.0910002)
(0.000313422 0.000150143 0.0926214)
(0.000273071 0.000137035 0.0909991)
(9.71766e-05 8.36728e-05 0.100438)
(8.38565e-05 9.70824e-05 0.100438)
(0.000112473 0.000112373 0.101144)
(8.27339e-05 8.6631e-05 0.10043)
(8.67435e-05 8.26254e-05 0.10043)
(0.000138098 0.000270193 0.090414)
(0.000270142 0.000137907 0.0904131)
(0.000203627 0.000203505 0.10122)
(9.63642e-05 0.000102792 0.10035)
(0.000102919 9.63392e-05 0.10035)
(1.65596e-05 0.000198275 0.100867)
(5.48137e-05 0.000288422 0.0983207)
(2.03172e-05 0.000208707 0.100778)
(4.47456e-05 0.000271282 0.0979437)
(1.33381e-05 0.000263559 0.101152)
(0.000214104 0.0002191 0.100819)
(3.10784e-05 0.000164488 0.100897)
(9.7395e-05 0.000160238 0.101064)
(1.41702e-05 0.000297892 0.100977)
(0.000197736 0.000183306 0.100945)
(3.25272e-05 0.000168713 0.101019)
(-1.33855e-05 0.000263572 0.101152)
(-0.000214122 0.000219147 0.100819)
(-3.11131e-05 0.00016449 0.100897)
(-9.74319e-05 0.000160229 0.101064)
(-1.42193e-05 0.000297914 0.100977)
(-0.000197779 0.000183311 0.100944)
(-3.25608e-05 0.000168718 0.101019)
(-1.56637e-05 0.000222675 0.10086)
(-3.85778e-05 0.000288102 0.0977545)
(1.55625e-05 0.00022272 0.10086)
(3.83995e-05 0.000288071 0.0977541)
(1.29338e-05 0.000294387 0.101202)
(9.55844e-05 0.000158217 0.101191)
(0.000203965 0.000221142 0.100941)
(3.29229e-05 0.000168592 0.101146)
(-1.29896e-05 0.000294408 0.101202)
(-9.56189e-05 0.000158215 0.101191)
(-0.00020401 0.000221184 0.100941)
(-3.29459e-05 0.000168593 0.101146)
(-9.72545e-05 8.36639e-05 0.100438)
(-8.38846e-05 9.70851e-05 0.100439)
(-0.000112492 0.000112383 0.101144)
(-8.27648e-05 8.66312e-05 0.100429)
(-8.66777e-05 8.25922e-05 0.100429)
(-0.000313459 0.000150147 0.0926221)
(-0.000273053 0.000137001 0.0909994)
(-0.00013802 0.000270176 0.0904133)
(-0.000203663 0.000203501 0.10122)
(-9.64313e-05 0.000102823 0.10035)
(-0.000102899 9.63062e-05 0.100351)
(-0.000270136 0.000137866 0.0904139)
(0.000263622 1.32782e-05 0.101153)
(0.000219119 0.000214171 0.100819)
(0.000164529 3.10356e-05 0.100897)
(0.00016021 9.74209e-05 0.101064)
(0.000297972 1.4107e-05 0.100977)
(0.000183305 0.000197836 0.100944)
(0.000168735 3.24769e-05 0.101019)
(0.000198394 1.67201e-05 0.100867)
(0.000287875 5.48584e-05 0.0983206)
(0.000208781 2.04754e-05 0.100777)
(0.000270859 4.48024e-05 0.0979441)
(0.000263652 -1.33551e-05 0.101153)
(0.000164514 -3.1126e-05 0.100897)
(0.00021914 -0.000214222 0.100819)
(0.000160239 -9.74578e-05 0.101064)
(0.000298 -1.42004e-05 0.100977)
(0.000168725 -3.25634e-05 0.101019)
(0.000183296 -0.000197836 0.100945)
(0.000222696 -1.56894e-05 0.10086)
(0.000287954 -3.84211e-05 0.0977544)
(0.000294434 1.28943e-05 0.101202)
(0.00015818 9.56228e-05 0.101191)
(0.000221161 0.000204073 0.100941)