/*--------------------------------*- C++ -*----------------------------------*\
| =========                 |                                                 |
| \\      /  F ield         | OpenFOAM: The Open Source CFD Toolbox           |
|  \\    /   O peration     | Version:  v2012                                 |
|   \\  /    A nd           | Website:  www.openfoam.com                      |
|    \\/     M anipulation  |                                                 |
\*---------------------------------------------------------------------------*/
FoamFile
{
    version     2.0;
    format      ascii;
    class       volScalarField;
    location    "175";
    object      nut;
}
// * * * * * * * * * * * * * * * * * * * * * * * * * * * * * * * * * * * * * //

dimensions      [0 2 -1 0 0 0 0];


internalField   nonuniform List<scalar> 
171728
(
2.19083e-05
2.21131e-06
2.77444e-06
2.3134e-06
2.19013e-05
2.27315e-06
2.83787e-06
2.32183e-06
2.25155e-05
2.39854e-06
2.93079e-06
2.34496e-06
2.3129e-05
2.53824e-06
3.06776e-06
2.37344e-06
2.37878e-05
2.68241e-06
3.21913e-06
2.40786e-06
2.45051e-05
2.86232e-06
3.39096e-06
2.45251e-06
2.52423e-05
3.03874e-06
3.54044e-06
2.50364e-06
2.59556e-05
3.27967e-06
3.71483e-06
2.54854e-06
2.66679e-05
3.56215e-06
3.90538e-06
2.57108e-06
2.73586e-05
3.82617e-06
4.10568e-06
2.59358e-06
2.80448e-05
4.09773e-06
4.33444e-06
2.58447e-06
2.86723e-05
4.36494e-06
4.5886e-06
2.56808e-06
2.92495e-05
4.63116e-06
4.8149e-06
2.55755e-06
2.98472e-05
4.81145e-06
5.01692e-06
2.52234e-06
3.0405e-05
5.07267e-06
5.24636e-06
2.42721e-06
3.09308e-05
5.21957e-06
5.43265e-06
2.31363e-06
3.14428e-05
5.41289e-06
5.61913e-06
2.21675e-06
3.19804e-05
5.64266e-06
5.85959e-06
2.21515e-06
3.24384e-05
5.8209e-06
6.03017e-06
2.29883e-06
3.28648e-05
6.07959e-06
6.20752e-06
2.58481e-06
3.3302e-05
6.46418e-06
6.41962e-06
3.12161e-06
3.37032e-05
7.03984e-06
6.89408e-06
4.10297e-06
3.39919e-05
7.84154e-06
7.48708e-06
5.54075e-06
3.43327e-05
9.01355e-06
8.42855e-06
7.90636e-06
3.4582e-05
1.04775e-05
9.70437e-06
1.11561e-05
3.47783e-05
1.18725e-05
1.13843e-05
1.5525e-05
3.49928e-05
1.40002e-05
1.33188e-05
2.15455e-05
3.50444e-05
1.61624e-05
1.65061e-05
2.83112e-05
3.51976e-05
1.89424e-05
2.02878e-05
3.55239e-05
3.50648e-05
2.23298e-05
2.36525e-05
4.29211e-05
3.53534e-05
2.64487e-05
2.79006e-05
5.00138e-05
3.55337e-05
3.11003e-05
3.17013e-05
5.71425e-05
3.61998e-05
3.69175e-05
3.68997e-05
6.46395e-05
3.73081e-05
4.31143e-05
4.2859e-05
7.18233e-05
3.90037e-05
4.98785e-05
5.0311e-05
7.7833e-05
4.08302e-05
5.78855e-05
5.83505e-05
8.42929e-05
4.14566e-05
6.3227e-05
6.3582e-05
8.91956e-05
4.09265e-05
6.50297e-05
6.52543e-05
9.0483e-05
3.99092e-05
6.69362e-05
6.70165e-05
9.07455e-05
4.30096e-05
7.463e-05
7.46445e-05
9.47197e-05
5.28241e-05
8.84002e-05
8.84017e-05
0.000103316
6.87497e-05
0.000104751
0.000104759
0.000113634
9.15908e-05
0.000122436
0.000122447
0.000124896
0.000113778
0.000135378
0.000135388
0.000132798
0.000128119
0.000141959
0.000141969
0.000136338
0.000134918
0.000144615
0.000144626
0.000137787
0.000137472
0.000145531
0.000145541
0.000138297
0.000138279
0.000145825
0.000145835
0.000138498
0.00013843
0.000145838
0.000145848
0.000138558
0.000138454
0.00014582
0.00014583
0.000138407
0.000138478
0.000145863
0.000145873
0.00013856
0.000138467
0.000145833
0.000145842
0.000138463
0.000138471
0.000145852
0.000145862
0.000138527
0.000138469
0.000145838
0.000145851
0.000138454
0.00013847
0.000145843
0.000145853
0.00013856
0.00013847
0.000145842
0.000145856
0.000138427
0.000138469
0.000145841
0.000145851
0.000138498
0.000138469
0.000145842
0.000145851
0.00013856
0.000138471
0.000145846
0.000145858
0.000138519
0.000138472
0.000145841
0.000145856
0.000138428
0.000138472
0.000145841
0.000145852
0.000138512
0.000138472
0.000145843
0.000145853
0.000138562
0.000138471
0.000145841
0.000145852
0.000138499
0.000138471
0.00014584
0.00014585
0.000138433
0.000138472
0.000145845
0.00014586
0.000138512
0.000138472
0.000145848
0.000145855
0.000138556
0.000138471
0.000145836
0.000145853
0.00013843
0.000138472
0.000145846
0.000145855
0.000138482
0.000138473
0.000145843
0.000145853
0.000138558
0.000138474
0.000145841
0.000145853
0.000138515
0.000138474
0.000145847
0.000145855
0.000138436
0.000138473
0.000145841
0.000145855
0.000138493
0.000138473
0.000145847
0.000145857
0.000138562
0.000138473
0.000145845
0.000145852
0.000138545
0.000138473
0.000145841
0.000145854
0.000138509
0.000138473
0.000145845
0.000145859
0.000138466
0.000138472
0.000145845
0.000145855
0.000138441
0.000138472
0.000145846
0.000145852
0.00013846
0.000138472
0.000145843
0.000145852
0.000138497
0.000138472
0.00014584
0.000145852
0.000138537
0.000138472
0.00014584
0.000145853
0.000138537
0.000138472
0.000145841
0.000145853
0.00013851
0.000138472
0.00014584
0.000145852
0.000138489
0.000138472
0.000145841
0.000145853
0.00013849
0.000138472
0.000145842
0.000145854
0.00013852
0.000138472
0.000145841
0.000145855
0.000138539
0.000138472
0.000145841
0.000145855
0.000138531
0.000138472
0.000145844
0.000145856
0.000138527
0.000138472
0.000145845
0.000145857
0.000138501
0.000138472
0.000145845
0.000145859
0.000138474
0.000138473
0.000145848
0.000145863
0.000138503
0.000138473
0.000145855
0.000145868
0.000138523
0.000138474
0.000145866
0.000145879
0.000138518
0.000138476
0.000145841
0.000145856
0.000138512
0.000138653
0.000145188
0.0001452
0.000139295
2.43032e-06
2.42162e-06
2.42521e-06
2.32706e-06
2.46705e-06
2.51037e-06
2.25901e-05
2.2541e-05
2.26027e-05
2.25882e-05
2.07188e-06
2.5276e-06
2.31201e-06
2.53423e-06
2.33709e-06
2.33061e-06
2.40428e-06
2.36013e-06
2.69387e-06
2.93488e-06
2.64038e-06
2.89155e-06
2.29743e-06
2.26294e-06
2.72244e-06
2.73189e-06
2.76426e-06
2.76718e-06
2.71119e-06
2.24854e-06
2.75748e-06
2.28912e-06
2.28762e-06
2.2481e-06
2.81591e-06
2.3159e-06
2.32549e-06
2.34024e-06
2.28487e-06
2.63596e-06
2.88342e-06
2.67754e-06
2.89663e-06
2.22918e-06
2.20685e-06
2.79601e-06
2.79393e-06
2.88645e-06
2.87961e-06
2.78892e-06
2.36914e-06
2.87707e-06
2.28124e-06
2.31005e-06
2.34734e-06
2.90533e-06
2.45587e-06
2.34573e-06
2.2714e-06
2.27804e-06
2.70039e-06
2.92235e-06
2.79213e-06
3.02322e-06
2.1818e-06
2.18568e-06
2.91798e-06
2.90956e-06
3.02775e-06
3.01514e-06
2.90731e-06
2.50768e-06
3.01187e-06
2.30906e-06
2.3563e-06
2.49303e-06
3.03254e-06
2.62907e-06
2.37405e-06
2.27199e-06
2.2823e-06
2.82463e-06
3.05884e-06
2.92128e-06
3.17136e-06
2.1735e-06
2.17633e-06
3.06373e-06
3.05039e-06
3.18172e-06
3.16572e-06
3.0467e-06
2.65243e-06
3.1595e-06
2.35838e-06
2.42707e-06
2.67118e-06
3.18335e-06
2.81549e-06
2.40877e-06
2.27093e-06
2.27198e-06
2.96093e-06
3.20459e-06
3.08525e-06
3.32961e-06
2.16616e-06
2.15713e-06
3.22132e-06
3.20278e-06
3.34276e-06
3.33381e-06
3.19972e-06
2.81475e-06
3.31909e-06
2.43115e-06
2.49726e-06
2.85605e-06
3.34833e-06
2.99813e-06
2.45263e-06
2.26358e-06
2.29509e-06
3.12866e-06
3.37502e-06
3.2822e-06
3.49908e-06
2.14549e-06
2.1641e-06
3.38607e-06
3.37395e-06
3.50341e-06
3.51081e-06
3.36515e-06
2.98273e-06
3.50292e-06
2.49839e-06
2.55961e-06
3.04891e-06
3.51645e-06
3.19799e-06
2.50903e-06
2.2809e-06
2.34362e-06
3.337e-06
3.54119e-06
3.48375e-06
3.68099e-06
2.15007e-06
2.21568e-06
3.54993e-06
3.55396e-06
3.69181e-06
3.7078e-06
3.54824e-06
3.22053e-06
3.69197e-06
2.54468e-06
2.58525e-06
3.25658e-06
3.67448e-06
3.41601e-06
2.56255e-06
2.33471e-06
2.39475e-06
3.53243e-06
3.73374e-06
3.68292e-06
3.88741e-06
2.20976e-06
2.29436e-06
3.7324e-06
3.74856e-06
3.87916e-06
3.90548e-06
3.74224e-06
3.5005e-06
3.90263e-06
2.56718e-06
2.60308e-06
3.47621e-06
3.85905e-06
3.65279e-06
2.58637e-06
2.3811e-06
2.40305e-06
3.72653e-06
3.93324e-06
3.90018e-06
4.09298e-06
2.29e-06
2.3703e-06
3.92346e-06
3.96602e-06
4.095e-06
4.12355e-06
3.94426e-06
3.76069e-06
4.09359e-06
2.58923e-06
2.63125e-06
3.69963e-06
4.04597e-06
3.89255e-06
2.60781e-06
2.38318e-06
2.38538e-06
3.95773e-06
4.14459e-06
4.16852e-06
4.34087e-06
2.36236e-06
2.39659e-06
4.15589e-06
4.17662e-06
4.33235e-06
4.34004e-06
4.14814e-06
4.02952e-06
4.32921e-06
2.61794e-06
2.64011e-06
3.93799e-06
4.28936e-06
4.1076e-06
2.60544e-06
2.36534e-06
2.37465e-06
4.24297e-06
4.39863e-06
4.42672e-06
4.5881e-06
2.37755e-06
2.38165e-06
4.39831e-06
4.39016e-06
4.5844e-06
4.59669e-06
4.40245e-06
4.29731e-06
4.61404e-06
2.61779e-06
2.60539e-06
4.17577e-06
4.53847e-06
4.33167e-06
2.59114e-06
2.35155e-06
2.36638e-06
4.49451e-06
4.65788e-06
4.65702e-06
4.82442e-06
2.35772e-06
2.36252e-06
4.64956e-06
4.6616e-06
4.84451e-06
4.83454e-06
4.69001e-06
4.55833e-06
4.89529e-06
2.57664e-06
2.54453e-06
4.39995e-06
4.73399e-06
4.6093e-06
2.58431e-06
2.33892e-06
2.35011e-06
4.70303e-06
4.88703e-06
4.8495e-06
5.08932e-06
2.33497e-06
2.33498e-06
4.90477e-06
4.90649e-06
5.09797e-06
5.05998e-06
4.94918e-06
4.76999e-06
5.11652e-06
2.51046e-06
2.47837e-06
4.66677e-06
4.98681e-06
4.85259e-06
2.55943e-06
2.31171e-06
2.29911e-06
4.89344e-06
5.14589e-06
5.01779e-06
5.35258e-06
2.29661e-06
2.3002e-06
5.16098e-06
5.10494e-06
5.34632e-06
5.29838e-06
5.17309e-06
5.02456e-06
5.32354e-06
2.43967e-06
2.41384e-06
4.9129e-06
5.19381e-06
5.05691e-06
2.4769e-06
2.25823e-06
2.24851e-06
5.07056e-06
5.41955e-06
5.21858e-06
5.57836e-06
2.25766e-06
2.24529e-06
5.4113e-06
5.35274e-06
5.61499e-06
5.51814e-06
5.36611e-06
5.17146e-06
5.54811e-06
2.37205e-06
2.36492e-06
5.09438e-06
5.37727e-06
5.21943e-06
2.36532e-06
2.20723e-06
2.24208e-06
5.26551e-06
5.64302e-06
5.44286e-06
5.83013e-06
2.20871e-06
2.24907e-06
5.67888e-06
5.58549e-06
5.88068e-06
5.78144e-06
5.59882e-06
5.37134e-06
5.70754e-06
2.32374e-06
2.34474e-06
5.27614e-06
5.58307e-06
5.37694e-06
2.26165e-06
2.21271e-06
2.29236e-06
5.51164e-06
5.87705e-06
5.70027e-06
6.02791e-06
2.21709e-06
2.3009e-06
5.95148e-06
5.84579e-06
6.16365e-06
6.00465e-06
5.76852e-06
5.55496e-06
5.93765e-06
2.30662e-06
2.35215e-06
5.41302e-06
5.79621e-06
5.58953e-06
2.24645e-06
2.2714e-06
2.41431e-06
5.76059e-06
6.08388e-06
5.93639e-06
6.16647e-06
2.28201e-06
2.38968e-06
6.22547e-06
6.0585e-06
6.36138e-06
6.26702e-06
5.98745e-06
5.77749e-06
6.11625e-06
2.32414e-06
2.42582e-06
5.64521e-06
6.00236e-06
5.83523e-06
2.30815e-06
2.41303e-06
2.62398e-06
6.01464e-06
6.21028e-06
6.14909e-06
6.34166e-06
2.37191e-06
2.61288e-06
6.42298e-06
6.31025e-06
6.53795e-06
6.49876e-06
6.18432e-06
6.02221e-06
6.32142e-06
2.41116e-06
2.64389e-06
5.92356e-06
6.15982e-06
6.10711e-06
2.54559e-06
2.66037e-06
3.13814e-06
6.20323e-06
6.3872e-06
6.44551e-06
6.55826e-06
2.65053e-06
3.08693e-06
6.5595e-06
6.58773e-06
6.71441e-06
6.79481e-06
6.34987e-06
6.37363e-06
6.57915e-06
2.70139e-06
3.1538e-06
6.15793e-06
6.37422e-06
6.42067e-06
3.01569e-06
3.21466e-06
3.96638e-06
6.49368e-06
6.59958e-06
6.78426e-06
6.87436e-06
3.1718e-06
3.99557e-06
6.74654e-06
6.84368e-06
6.94505e-06
7.11578e-06
6.63474e-06
6.86077e-06
6.85724e-06
3.2429e-06
4.00996e-06
6.50643e-06
6.76066e-06
6.92398e-06
3.92173e-06
4.15641e-06
5.24797e-06
6.91844e-06
6.98445e-06
7.29058e-06
7.38262e-06
4.2029e-06
5.37362e-06
7.05314e-06
7.24742e-06
7.37997e-06
7.61883e-06
6.98566e-06
7.63421e-06
7.338e-06
4.20355e-06
5.38733e-06
7.10574e-06
7.28752e-06
7.5317e-06
5.24838e-06
5.53219e-06
7.35781e-06
7.48e-06
7.57989e-06
8.16772e-06
8.19862e-06
5.67269e-06
7.48491e-06
7.55187e-06
7.81604e-06
8.23497e-06
8.56362e-06
7.50297e-06
8.63426e-06
8.18802e-06
5.69192e-06
7.53616e-06
7.71947e-06
8.16012e-06
8.47495e-06
7.40255e-06
7.83483e-06
1.03924e-05
8.40358e-06
8.46399e-06
9.24518e-06
9.49658e-06
7.97393e-06
1.09849e-05
8.47235e-06
8.8662e-06
9.27793e-06
9.68668e-06
8.44327e-06
1.01727e-05
9.26974e-06
7.98957e-06
1.07643e-05
8.72463e-06
9.37557e-06
9.45888e-06
1.05375e-05
1.10512e-05
1.47128e-05
9.60819e-06
9.83257e-06
1.08388e-05
1.07569e-05
1.16726e-05
1.44884e-05
9.63377e-06
1.00106e-05
1.08411e-05
1.15352e-05
9.59905e-06
1.14464e-05
1.07684e-05
1.14292e-05
1.51569e-05
9.75881e-06
1.09499e-05
1.08793e-05
1.45963e-05
1.56227e-05
2.01302e-05
1.12791e-05
1.11552e-05
1.27662e-05
1.28119e-05
1.52466e-05
2.00305e-05
1.1256e-05
1.2004e-05
1.2728e-05
1.31129e-05
1.12325e-05
1.34392e-05
1.28105e-05
1.61536e-05
2.04884e-05
1.13456e-05
1.27196e-05
1.30148e-05
2.03949e-05
2.12419e-05
2.67385e-05
1.33472e-05
1.34669e-05
1.51358e-05
1.53196e-05
2.12798e-05
2.70899e-05
1.33239e-05
1.37331e-05
1.51181e-05
1.60305e-05
1.33932e-05
1.56209e-05
1.51922e-05
2.15631e-05
2.78235e-05
1.36415e-05
1.56148e-05
1.55094e-05
2.7038e-05
2.80008e-05
3.39827e-05
1.57859e-05
1.59616e-05
1.8107e-05
1.834e-05
2.83282e-05
3.40627e-05
1.5757e-05
1.66217e-05
1.80336e-05
1.80391e-05
1.58271e-05
1.81529e-05
1.80092e-05
2.92497e-05
3.47715e-05
1.61584e-05
1.942e-05
1.84536e-05
3.41554e-05
3.54067e-05
4.1411e-05
1.89296e-05
1.92233e-05
2.14512e-05
2.18721e-05
3.54971e-05
4.16669e-05
1.88431e-05
1.85928e-05
2.13927e-05
2.11189e-05
1.88108e-05
2.14534e-05
2.13644e-05
3.58754e-05
4.05638e-05
1.92945e-05
2.26798e-05
2.1779e-05
4.15121e-05
4.28246e-05
4.87931e-05
2.23992e-05
2.28094e-05
2.55091e-05
2.59606e-05
4.30473e-05
4.88557e-05
2.2366e-05
2.22806e-05
2.55532e-05
2.60436e-05
2.23251e-05
2.53343e-05
2.54375e-05
4.19325e-05
4.89029e-05
2.26588e-05
2.69372e-05
2.55372e-05
4.86529e-05
5.02075e-05
5.59542e-05
2.66133e-05
2.70809e-05
3.02014e-05
3.0393e-05
5.02945e-05
5.59092e-05
2.66875e-05
2.71987e-05
3.03183e-05
3.03884e-05
2.65211e-05
2.98906e-05
3.01425e-05
5.04778e-05
5.58913e-05
2.65461e-05
3.06229e-05
2.99102e-05
5.56702e-05
5.73711e-05
6.29952e-05
3.14472e-05
3.15396e-05
3.53952e-05
3.56235e-05
5.72745e-05
6.30907e-05
3.15589e-05
3.1497e-05
3.56104e-05
3.54936e-05
3.14572e-05
3.53453e-05
3.55934e-05
5.71892e-05
6.28132e-05
3.1177e-05
3.55301e-05
3.54106e-05
6.3167e-05
6.44743e-05
7.072e-05
3.68984e-05
3.71669e-05
4.20799e-05
4.17547e-05
6.45971e-05
7.01019e-05
3.71445e-05
3.70633e-05
4.21163e-05
4.19638e-05
3.7102e-05
4.15969e-05
4.21266e-05
6.42634e-05
6.98202e-05
3.69512e-05
4.12626e-05
4.16856e-05
7.04417e-05
7.21802e-05
7.70693e-05
4.39427e-05
4.32402e-05
4.95395e-05
4.80611e-05
7.13752e-05
7.62225e-05
4.38392e-05
4.35563e-05
4.9178e-05
4.84727e-05
4.39002e-05
4.80223e-05
4.92971e-05
7.11673e-05
7.63362e-05
4.32535e-05
4.83131e-05
4.81459e-05
7.66424e-05
7.82119e-05
8.2988e-05
5.13776e-05
4.99105e-05
5.6929e-05
5.60386e-05
7.7537e-05
8.30989e-05
5.10225e-05
5.02882e-05
5.67192e-05
5.62823e-05
5.11311e-05
5.59706e-05
5.67763e-05
7.76806e-05
8.32831e-05
4.99245e-05
5.64701e-05
5.57314e-05
8.29207e-05
8.43217e-05
8.84136e-05
5.86517e-05
5.79745e-05
6.26543e-05
6.23793e-05
8.45095e-05
8.85041e-05
5.84911e-05
5.8196e-05
6.25922e-05
6.25711e-05
5.85327e-05
6.2267e-05
6.26011e-05
8.4693e-05
8.86817e-05
5.76e-05
6.2646e-05
6.20381e-05
8.84306e-05
8.9179e-05
9.02954e-05
6.35596e-05
6.33382e-05
6.50888e-05
6.48841e-05
8.92365e-05
9.02053e-05
6.35117e-05
6.35119e-05
6.50459e-05
6.49776e-05
6.35176e-05
6.47984e-05
6.50285e-05
8.94039e-05
9.03168e-05
6.30632e-05
6.50616e-05
6.47974e-05
9.02803e-05
9.05084e-05
9.05134e-05
6.53251e-05
6.51129e-05
6.6363e-05
6.61775e-05
9.0399e-05
9.03849e-05
6.52785e-05
6.51791e-05
6.63194e-05
6.61858e-05
6.52452e-05
6.61082e-05
6.62519e-05
9.04952e-05
9.04256e-05
6.50574e-05
6.62184e-05
6.61423e-05
9.04517e-05
9.08089e-05
9.35673e-05
6.71637e-05
6.70031e-05
7.21302e-05
7.2049e-05
9.06894e-05
9.35122e-05
6.71247e-05
6.70001e-05
7.21046e-05
7.20333e-05
6.70576e-05
7.20057e-05
7.20591e-05
9.07192e-05
9.35098e-05
6.69659e-05
7.203e-05
7.20065e-05
9.35314e-05
9.47516e-05
0.000101622
7.473e-05
7.46704e-05
8.47073e-05
8.46845e-05
9.47079e-05
0.000101605
7.47069e-05
7.46531e-05
8.46895e-05
8.46696e-05
7.46716e-05
8.46589e-05
8.46757e-05
9.47022e-05
0.0001016
7.46278e-05
8.46611e-05
8.4647e-05
0.000101604
0.000103335
0.000111762
8.84428e-05
8.84242e-05
0.000100437
0.000100423
0.000103321
0.000111754
8.84256e-05
8.84123e-05
0.000100423
0.000100424
8.84167e-05
0.000100416
0.000100427
0.000103317
0.000111757
8.83913e-05
0.000100421
0.000100409
0.000111753
0.000113642
0.000123077
0.000104769
0.000104756
0.000118213
0.000118202
0.000113636
0.000123076
0.000104756
0.00010476
0.000118205
0.000118208
0.000104763
0.000118209
0.000118209
0.000113639
0.00012308
0.000104747
0.00011822
0.000118201
0.000123071
0.000124904
0.000131788
0.000122438
0.000122427
0.000132801
0.000132785
0.000124903
0.000131782
0.000122432
0.000122433
0.000132803
0.000132795
0.000122435
0.000132805
0.0001328
0.000124907
0.000131789
0.000122428
0.000132815
0.000132801
0.000131782
0.000132805
0.00013591
0.000135373
0.000135356
0.000140775
0.000140756
0.000132798
0.000135902
0.000135376
0.000135366
0.000140783
0.000140766
0.000135373
0.000140784
0.000140776
0.000132804
0.00013591
0.000135375
0.000140794
0.000140783
0.000135906
0.000136343
0.000137655
0.00014195
0.00014193
0.000144173
0.000144153
0.000136335
0.000137647
0.000141959
0.000141941
0.000144183
0.000144164
0.000141951
0.000144184
0.000144173
0.000136343
0.000137655
0.000141958
0.000144195
0.000144183
0.00013765
0.000137791
0.000138292
0.000144603
0.000144583
0.000145369
0.000145349
0.000137784
0.000138285
0.000144614
0.000144594
0.00014538
0.00014536
0.000144604
0.000145383
0.000145368
0.000137792
0.000138293
0.000144614
0.000145394
0.000145379
0.000138286
0.000138302
0.00013853
0.000145516
0.000145496
0.000145775
0.000145755
0.000138296
0.000138524
0.000145527
0.000145507
0.000145785
0.000145765
0.000145514
0.000145789
0.000145771
0.000138304
0.00013853
0.000145526
0.000145799
0.000145784
0.000138521
0.000138506
0.000138615
0.000145811
0.000145791
0.000145835
0.000145814
0.0001385
0.00013861
0.000145821
0.000145801
0.000145845
0.000145824
0.000145808
0.000145848
0.000145833
0.000138506
0.000138616
0.00014582
0.000145858
0.000145845
0.000138611
0.00013856
0.000138457
0.000145825
0.000145804
0.00014581
0.000145788
0.000138554
0.000138448
0.000145835
0.000145814
0.000145819
0.000145799
0.000145823
0.000145822
0.000145806
0.000138561
0.000138457
0.000145834
0.000145832
0.000145818
0.000138449
0.000138419
0.000138585
0.000145808
0.000145787
0.000145845
0.000145823
0.000138409
0.000138579
0.000145818
0.000145797
0.000145854
0.000145835
0.000145804
0.000145858
0.000145841
0.000138417
0.000138587
0.000145816
0.000145868
0.000145854
0.000138582
0.000138562
0.000138546
0.00014585
0.000145829
0.000145828
0.000145806
0.000138556
0.000138539
0.00014586
0.00014584
0.000145837
0.000145817
0.000145847
0.000145841
0.000145823
0.000138564
0.000138541
0.000145859
0.00014585
0.000145834
0.000138527
0.000138483
0.00013852
0.000145821
0.000145798
0.000145832
0.00014581
0.000138475
0.000138516
0.000145829
0.000145809
0.000145841
0.00014582
0.000145817
0.000145843
0.000145829
0.000138476
0.000138531
0.000145827
0.000145855
0.000145842
0.000138536
0.000138516
0.000138541
0.000145839
0.000145818
0.000145829
0.000145806
0.000138512
0.000138532
0.000145848
0.000145827
0.000145837
0.000145817
0.000145836
0.000145841
0.000145824
0.000138524
0.000138535
0.000145849
0.000145852
0.000145835
0.000138517
0.000138475
0.000138572
0.000145828
0.000145804
0.000145832
0.000145809
0.000138467
0.000138561
0.000145836
0.000145816
0.000145841
0.000145821
0.000145822
0.000145844
0.00014583
0.00013847
0.000138577
0.000145835
0.000145853
0.000145841
0.000138577
0.000138559
0.000138475
0.000145831
0.000145808
0.000145833
0.000145808
0.000138549
0.00013847
0.00014584
0.000145819
0.00014584
0.00014582
0.000145828
0.000145842
0.000145829
0.000138563
0.000138474
0.000145839
0.000145854
0.000145841
0.000138465
0.000138429
0.000138585
0.000145836
0.000145809
0.000145829
0.000145805
0.000138418
0.000138598
0.000145843
0.000145822
0.000145837
0.000145818
0.000145831
0.000145841
0.000145825
0.000138431
0.000138581
0.000145843
0.000145851
0.000145837
0.00013857
0.000138512
0.000138591
0.000145829
0.000145805
0.000145837
0.000145814
0.00013853
0.000138558
0.000145837
0.000145818
0.000145844
0.000145823
0.000145826
0.000145845
0.000145832
0.000138509
0.00013859
0.000145838
0.000145856
0.000145843
0.000138589
0.000138566
0.000138517
0.000145832
0.000145811
0.000145835
0.000145807
0.000138546
0.000138474
0.000145839
0.000145818
0.000145843
0.000145823
0.000145825
0.000145844
0.000145832
0.000138563
0.000138532
0.000145837
0.000145857
0.000145844
0.00013851
0.000138524
0.000138481
0.000145837
0.000145813
0.00014583
0.000145805
0.000138472
0.000138493
0.000145845
0.000145824
0.000145837
0.000145818
0.000145835
0.000145839
0.000145824
0.000138533
0.000138484
0.000145846
0.000145851
0.000145835
0.000138483
0.000138442
0.000138541
0.000145832
0.000145806
0.000145832
0.00014581
0.000138435
0.00013856
0.00014584
0.000145821
0.000145839
0.000145819
0.000145825
0.000145842
0.000145829
0.000138472
0.000138505
0.000145838
0.000145851
0.00014584
0.000138583
0.000138473
0.000138588
0.000145832
0.000145808
0.000145832
0.000145808
0.000138489
0.000138579
0.000145838
0.000145821
0.000145839
0.000145818
0.000145827
0.000145842
0.00014583
0.000138451
0.000138537
0.000145837
0.000145853
0.000145843
0.000138585
0.000138528
0.000138583
0.000145832
0.000145808
0.000145834
0.000145808
0.000138533
0.000138548
0.000145838
0.000145818
0.000145841
0.000145821
0.00014583
0.000145841
0.000145826
0.000138471
0.00013856
0.000145841
0.000145853
0.000145838
0.000138489
0.000138535
0.000138592
0.000145831
0.000145807
0.000145835
0.00014581
0.0001385
0.000138543
0.000145838
0.000145818
0.000145841
0.000145823
0.000145828
0.000145843
0.000145828
0.000138487
0.000138598
0.00014584
0.000145857
0.000145839
0.00013849
0.000138536
0.0001386
0.000145832
0.000145807
0.000145838
0.000145812
0.000138467
0.000138598
0.000145839
0.000145819
0.000145845
0.000145824
0.000145827
0.000145847
0.000145829
0.000138527
0.000138586
0.000145838
0.00014586
0.000145842
0.000138584
0.000138578
0.000138478
0.000145839
0.00014581
0.000145829
0.000145809
0.000138544
0.000138537
0.000145845
0.000145825
0.000145836
0.000145817
0.000145827
0.000145843
0.00014583
0.000138566
0.0001385
0.000145839
0.00014585
0.000145842
0.000138568
0.000138474
0.000138556
0.000145834
0.000145813
0.000145833
0.000145805
0.000138522
0.000138529
0.000145842
0.00014582
0.000145839
0.000145821
0.000145834
0.000145837
0.000145824
0.000138488
0.000138568
0.000145845
0.000145856
0.000145836
0.000138462
0.000138496
0.00013855
0.000145831
0.000145805
0.000145835
0.000145814
0.000138462
0.000138599
0.000145837
0.000145819
0.000145842
0.00014582
0.000145824
0.00014585
0.000145832
0.000138553
0.000138522
0.000145838
0.000145854
0.000145841
0.000138553
0.000138539
0.000138483
0.000145833
0.00014581
0.000145833
0.000145808
0.000138565
0.000138471
0.00014584
0.000145821
0.00014584
0.00014582
0.000145831
0.000145839
0.000145827
0.000138527
0.000138484
0.000145837
0.000145853
0.000145844
0.000138591
0.000138473
0.000138515
0.000145834
0.000145808
0.000145832
0.000145811
0.00013845
0.000138563
0.000145841
0.00014582
0.000145839
0.000145821
0.000145827
0.000145843
0.000145831
0.000138438
0.000138558
0.00014584
0.000145855
0.000145842
0.000138514
0.000138452
0.000138585
0.000145833
0.000145807
0.000145833
0.000145813
0.000138492
0.000138588
0.000145839
0.000145818
0.000145842
0.000145824
0.00014583
0.000145845
0.000145827
0.000138486
0.000138605
0.000145844
0.000145855
0.000145837
0.000138486
0.000138515
0.000138594
0.000145833
0.000145814
0.000145834
0.000145807
0.000138561
0.000138531
0.00014584
0.000145822
0.000145841
0.00014582
0.00014583
0.000145841
0.000145826
0.000138566
0.000138546
0.00014584
0.000145853
0.000145838
0.000138565
0.000138562
0.000138549
0.000145832
0.000145808
0.000145839
0.000145813
0.000138528
0.0001385
0.000145841
0.000145823
0.000145839
0.000145819
0.000145825
0.000145847
0.00014583
0.000138543
0.000138489
0.000145837
0.000145855
0.000145841
0.000138597
0.000138544
0.000138488
0.000145837
0.000145813
0.000145832
0.000145807
0.000138513
0.000138472
0.00014584
0.000145821
0.000145838
0.000145818
0.000145827
0.00014584
0.000145827
0.000138493
0.000138489
0.000145839
0.000145852
0.00014584
0.000138548
0.000138493
0.000138486
0.000145839
0.00014581
0.00014583
0.000145809
0.000138422
0.000138575
0.000145839
0.000145818
0.000145838
0.000145824
0.000145828
0.000145842
0.000145827
0.000138432
0.000138598
0.00014584
0.000145859
0.00014584
0.000138498
0.000138437
0.000138538
0.00014583
0.000145808
0.000145836
0.000145812
0.000138504
0.000138574
0.000145838
0.000145819
0.000145839
0.000145823
0.000145827
0.000145846
0.000145826
0.000138527
0.000138569
0.000145841
0.000145858
0.000145839
0.000138476
0.000138467
0.000138595
0.000145834
0.000145812
0.000145834
0.000145811
0.000138548
0.000138519
0.000145839
0.000145824
0.000145839
0.000145818
0.000145827
0.000145845
0.000145826
0.000138554
0.000138485
0.000145842
0.000145852
0.000145838
0.000138485
0.000138529
0.000138584
0.000145834
0.000145814
0.000145833
0.000145807
0.000138517
0.000138479
0.000145839
0.000145822
0.000145838
0.000145819
0.000145827
0.000145843
0.000145826
0.000138481
0.000138497
0.000145839
0.000145852
0.000145838
0.000138518
0.000138551
0.00013856
0.000145834
0.000145811
0.000145835
0.00014581
0.000138467
0.00013849
0.000145839
0.00014582
0.000145838
0.000145819
0.000145827
0.000145841
0.000145826
0.000138444
0.000138532
0.000145838
0.000145852
0.000145838
0.000138561
0.000138541
0.000138554
0.000145834
0.000145809
0.000145836
0.000145809
0.000138435
0.000138534
0.000145839
0.000145819
0.000145838
0.00014582
0.000145827
0.00014584
0.000145827
0.000138464
0.00013857
0.000145839
0.000145852
0.000145838
0.000138578
0.000138539
0.000138547
0.000145836
0.000145809
0.000145834
0.000145808
0.000138462
0.000138583
0.000145839
0.00014582
0.000145838
0.000145819
0.000145828
0.000145841
0.000145827
0.000138498
0.000138584
0.000145838
0.000145852
0.000145839
0.000138555
0.000138534
0.000138554
0.000145836
0.00014581
0.000145832
0.000145807
0.000138515
0.000138579
0.000145839
0.00014582
0.000145837
0.000145819
0.000145828
0.00014584
0.000145826
0.00013852
0.000138587
0.00014584
0.000145852
0.000145838
0.00013853
0.000138534
0.000138581
0.000145833
0.000145808
0.000145835
0.000145809
0.000138533
0.000138576
0.000145838
0.000145818
0.000145838
0.00014582
0.000145827
0.000145839
0.000145826
0.000138526
0.000138591
0.00014584
0.000145852
0.000145837
0.000138549
0.000138551
0.000138566
0.000145834
0.000145808
0.000145832
0.000145808
0.000138534
0.000138578
0.000145839
0.00014582
0.000145838
0.000145818
0.000145826
0.00014584
0.000145826
0.000138542
0.00013858
0.000145838
0.000145852
0.000145838
0.000138554
0.00013855
0.00013852
0.000145835
0.00014581
0.00014583
0.000145806
0.000138544
0.000138558
0.00014584
0.00014582
0.000145837
0.000145818
0.000145827
0.000145839
0.000145826
0.000138547
0.00013857
0.000145838
0.000145852
0.000145837
0.000138574
0.00013852
0.000138498
0.000145833
0.000145808
0.00014583
0.000145807
0.000138536
0.000138549
0.00014584
0.00014582
0.000145837
0.000145819
0.000145828
0.000145838
0.000145825
0.000138546
0.000138559
0.000145839
0.000145852
0.000145837
0.000138567
0.000138488
0.000138497
0.000145833
0.000145808
0.000145831
0.000145807
0.000138532
0.000138544
0.000145841
0.000145822
0.000145835
0.000145816
0.000145829
0.000145838
0.000145824
0.000138543
0.000138535
0.00014584
0.00014585
0.000145836
0.000138551
0.000138478
0.000138503
0.000145835
0.000145811
0.000145828
0.000145804
0.00013853
0.000138533
0.000145841
0.00014582
0.000145836
0.000145817
0.000145827
0.000145839
0.000145826
0.000138527
0.000138526
0.00014584
0.00014585
0.000145835
0.000138555
0.000138474
0.00013853
0.000145834
0.00014581
0.000145829
0.000145804
0.000138526
0.000138513
0.00014584
0.000145821
0.000145837
0.000145817
0.00014583
0.000145837
0.000145823
0.000138521
0.000138529
0.00014584
0.00014585
0.000145835
0.00013855
0.000138516
0.00013855
0.000145834
0.00014581
0.000145831
0.000145805
0.000138514
0.000138495
0.000145844
0.000145824
0.000145835
0.000145815
0.00014583
0.000145836
0.000145823
0.000138525
0.000138525
0.000145841
0.000145851
0.000145835
0.000138535
0.000138543
0.000138521
0.000145838
0.000145812
0.000145831
0.000145806
0.000138486
0.000138517
0.000145844
0.000145823
0.000145838
0.000145818
0.00014583
0.000145839
0.000145826
0.00013852
0.000138542
0.000145842
0.000145852
0.000145836
0.000138561
0.000138522
0.000138508
0.000145841
0.000145815
0.000145834
0.00014581
0.000138497
0.000138556
0.000145847
0.000145827
0.00014584
0.000145821
0.000145835
0.000145842
0.000145828
0.000138533
0.000138547
0.000145846
0.000145855
0.000145838
0.000138568
0.0001385
0.000138516
0.000145847
0.000145822
0.00014584
0.000145816
0.00013854
0.000138553
0.000145853
0.000145834
0.000145847
0.000145828
0.000145842
0.000145847
0.000145834
0.000138541
0.000138524
0.000145851
0.000145862
0.000145846
0.000138564
0.000138499
0.000138518
0.000145858
0.000145833
0.000145854
0.00014583
0.000138541
0.000138537
0.000145864
0.000145845
0.00014586
0.000145841
0.000145851
0.000145861
0.000145849
0.00013852
0.000138515
0.000145863
0.000145875
0.000145858
0.000138562
0.000138493
0.000138782
0.000145834
0.00014581
0.00014681
0.000146786
0.000138524
0.00013878
0.000145841
0.000145821
0.000146818
0.000146797
0.000145828
0.000146819
0.000146805
0.00013849
0.000138781
0.000145838
0.000146831
0.000146815
0.000138773
0.000139307
0.00014518
0.000145158
0.000139305
0.000145188
0.000145168
0.000138642
0.000138651
0.000138648
0.000145174
0.000139308
0.000145184
5.8752e-05
7.79572e-06
3.91652e-05
3.92082e-05
6.64779e-07
2.03279e-06
1.5272e-06
2.33157e-05
7.20769e-07
2.4847e-06
2.3408e-05
1.93882e-06
2.33548e-06
1.82412e-06
1.87498e-06
1.15743e-06
1.35369e-05
1.06476e-06
1.52991e-05
1.09217e-05
1.319e-05
1.07958e-06
1.34607e-05
9.91266e-07
1.52164e-05
2.18739e-05
2.19275e-05
2.19177e-05
2.17565e-05
2.17368e-05
2.17792e-05
2.17658e-05
6.74075e-07
3.72618e-07
9.7633e-06
2.2025e-06
6.67002e-07
4.81257e-07
9.66654e-06
1.09389e-05
1.31652e-05
6.68088e-07
9.93675e-06
5.51688e-07
2.76479e-06
7.03866e-07
9.85467e-06
6.72589e-07
1.51865e-06
1.4995e-06
2.32535e-06
1.7308e-06
1.70188e-06
1.41368e-06
1.8697e-05
1.2818e-06
2.10236e-05
1.7225e-05
1.93819e-05
1.37025e-06
1.85598e-05
1.22484e-06
2.08601e-05
2.18822e-05
2.19208e-05
2.1904e-05
2.23627e-05
2.2368e-05
2.23745e-05
2.23519e-05