/*--------------------------------*- C++ -*----------------------------------*\
| =========                 |                                                 |
| \\      /  F ield         | OpenFOAM: The Open Source CFD Toolbox           |
|  \\    /   O peration     | Version:  v2012                                 |
|   \\  /    A nd           | Website:  www.openfoam.com                      |
|    \\/     M anipulation  |                                                 |
\*---------------------------------------------------------------------------*/
FoamFile
{
    version     2.0;
    format      ascii;
    class       volScalarField;
    location    "175";
    object      p;
}
// * * * * * * * * * * * * * * * * * * * * * * * * * * * * * * * * * * * * * //

dimensions      [0 2 -2 0 0 0 0];


internalField   nonuniform List<scalar> 
171728
(
0.00352481
0.00352402
0.00352404
0.00352515
0.00348881
0.00348764
0.00348762
0.00349055
0.00345155
0.00344991
0.00344989
0.00345219
0.00340699
0.00340547
0.00340553
0.00340799
0.00335867
0.00335714
0.00335725
0.00335986
0.00331041
0.00330908
0.0033091
0.00331165
0.00326246
0.00326128
0.00326128
0.00326384
0.0032152
0.00321412
0.00321411
0.0032167
0.00316904
0.00316803
0.00316805
0.00317062
0.00312381
0.00312289
0.0031229
0.0031255
0.0030795
0.00307867
0.00307867
0.00308128
0.00303592
0.00303519
0.0030352
0.00303777
0.00299289
0.00299224
0.00299221
0.00299481
0.00295023
0.00294966
0.00294959
0.00295224
0.0029079
0.00290737
0.00290743
0.00290998
0.00286587
0.00286546
0.00286546
0.00286794
0.00282417
0.00282382
0.00282378
0.00282629
0.00278282
0.00278247
0.00278243
0.0027849
0.00274182
0.00274148
0.00274145
0.00274388
0.00270116
0.00270082
0.00270082
0.00270316
0.00266082
0.0026605
0.0026605
0.00266275
0.0026208
0.00262049
0.0026205
0.00262269
0.00258108
0.00258082
0.0025808
0.00258295
0.00254163
0.00254132
0.00254137
0.00254358
0.00250248
0.00250223
0.00250222
0.00250452
0.0024636
0.00246339
0.00246339
0.00246575
0.00242495
0.00242475
0.00242471
0.00242715
0.00238657
0.00238639
0.00238639
0.00238885
0.00234847
0.00234833
0.00234835
0.00235081
0.00231064
0.00231053
0.00231052
0.00231298
0.00227317
0.00227308
0.0022731
0.00227545
0.002236
0.00223595
0.00223596
0.00223822
0.00219937
0.00219936
0.00219936
0.00220149
0.00216347
0.00216353
0.00216353
0.00216552
0.00212827
0.00212839
0.00212837
0.00213033
0.00209327
0.00209345
0.00209345
0.0020954
0.002058
0.00205811
0.00205812
0.00206007
0.00202222
0.00202228
0.00202228
0.00202433
0.0019862
0.00198623
0.00198624
0.0019883
0.00195062
0.00195054
0.00195054
0.00195255
0.00191563
0.00191537
0.00191538
0.00191732
0.00188116
0.00188067
0.00188067
0.00188256
0.00184663
0.00184607
0.00184607
0.00184795
0.00181167
0.00181124
0.00181124
0.00181317
0.00177643
0.00177619
0.00177619
0.00177818
0.00174102
0.0017409
0.0017409
0.00174294
0.00170551
0.00170545
0.00170545
0.00170751
0.00166994
0.00166991
0.00166991
0.00167197
0.00163436
0.00163432
0.00163432
0.00163639
0.00159877
0.00159874
0.00159874
0.00160081
0.00156318
0.00156315
0.00156315
0.00156522
0.00152759
0.00152756
0.00152756
0.00152963
0.001492
0.00149198
0.00149197
0.00149404
0.00145641
0.00145638
0.00145638
0.00145845
0.00142083
0.00142079
0.00142079
0.00142286
0.00138524
0.00138521
0.00138521
0.00138728
0.00134965
0.00134962
0.00134962
0.00135168
0.00131406
0.00131402
0.00131402
0.00131609
0.00127846
0.00127843
0.00127843
0.0012805
0.00124287
0.00124284
0.00124285
0.00124491
0.00120728
0.00120725
0.00120725
0.00120932
0.00117169
0.00117166
0.00117166
0.00117373
0.0011361
0.00113607
0.00113607
0.00113814
0.00110051
0.00110048
0.00110048
0.00110255
0.00106492
0.00106489
0.00106489
0.00106696
0.00102933
0.0010293
0.0010293
0.00103137
0.00099374
0.000993708
0.000993708
0.000995779
0.000958149
0.000958116
0.000958118
0.000960185
0.000922558
0.000922528
0.000922526
0.000924593
0.000886967
0.000886935
0.000886935
0.000889005
0.000851375
0.000851345
0.000851345
0.000853415
0.000815784
0.000815753
0.000815754
0.00081782
0.000780193
0.000780161
0.000780163
0.000782228
0.000744602
0.000744573
0.00074457
0.000746639
0.000709011
0.000708979
0.000708978
0.000711049
0.000673421
0.000673388
0.000673391
0.00067546
0.00063783
0.0006378
0.000637802
0.00063987
0.000602241
0.000602212
0.00060221
0.000604278
0.000566651
0.000566622
0.000566619
0.000568688
0.000531061
0.00053103
0.00053103
0.000533097
0.000495472
0.000495439
0.00049544
0.000497508
0.000459883
0.00045985
0.000459851
0.000461919
0.000424293
0.000424261
0.000424261
0.000426329
0.000388704
0.000388671
0.000388671
0.000390739
0.000353114
0.000353084
0.000353082
0.000355149
0.000317525
0.000317495
0.000317494
0.000319559
0.000281935
0.000281903
0.000281905
0.000283967
0.000246344
0.000246313
0.000246315
0.000248375
0.000210753
0.000210725
0.000210723
0.000212781
0.00017516
0.000175132
0.000175131
0.000177183
0.000139565
0.000139536
0.000139538
0.000141576
0.000103957
0.000103938
0.000103938
0.000105959
6.83614e-05
6.83356e-05
6.83322e-05
7.03231e-05
3.36111e-05
3.31285e-05
3.31251e-05
3.48771e-05
5.20456e-06
5.25034e-06
5.24852e-06
4.44954e-06
0.00353007
0.00352813
0.00352817
0.0035301
0.00352815
0.00352818
0.00353349
0.0035335
0.00353349
0.00353348
0.00352813
0.00352816
0.00353009
0.00352819
0.00352815
0.00353008
0.00352516
0.00349515
0.00352401
0.00352405
0.00349684
0.00349679
0.00352514
0.00349516
0.00352404
0.00352403
0.0034968
0.00349686
0.00352402
0.00349686
0.00349686
0.00352518
0.00349515
0.00352399
0.00349684
0.0034969
0.00349515
0.00349056
0.00345761
0.00348763
0.00348774
0.00345969
0.00345966
0.00349057
0.00345759
0.00348765
0.00348761
0.00345968
0.00345962
0.0034876
0.00345963
0.0034597
0.00349056
0.00345762
0.00348758
0.00345967
0.0034597
0.00345759
0.0034522
0.00341422
0.00344986
0.0034498
0.00341726
0.00341726
0.00345217
0.0034142
0.00344991
0.00344995
0.00341725
0.00341723
0.00344988
0.00341735
0.00341725
0.00345222
0.00341423
0.00344988
0.00341729
0.00341727
0.00341423
0.00340799
0.00336627
0.00340553
0.00340545
0.00336938
0.00336937
0.00340797
0.0033663
0.00340556
0.00340556
0.00336938
0.00336945
0.00340554
0.00336933
0.00336942
0.003408
0.00336628
0.00340554
0.00336945
0.00336943
0.00336629
0.00335985
0.00331799
0.00335723
0.00335711
0.00332108
0.00332111
0.00335985
0.00331806
0.00335726
0.00335724
0.00332109
0.00332109
0.00335727
0.00332108
0.00332108
0.00335986
0.00331798
0.00335727
0.0033211
0.00332109
0.00331799
0.00331165
0.00327012
0.0033091
0.00330909
0.0032732
0.00327323
0.00331171
0.0032701
0.00330908
0.00330911
0.0032732
0.00327322
0.0033091
0.00327321
0.00327321
0.00331164
0.00327012
0.00330909
0.00327319
0.00327319
0.00327012
0.00326384
0.00322285
0.00326126
0.0032613
0.00322578
0.00322578
0.00326382
0.00322284
0.00326127
0.00326127
0.00322578
0.0032258
0.00326127
0.0032258
0.00322579
0.00326384
0.00322285
0.00326127
0.00322579
0.00322578
0.00322284
0.0032167
0.00317664
0.00321409
0.0032141
0.00317945
0.00317946
0.00321668
0.00317661
0.0032141
0.0032141
0.00317946
0.00317945
0.00321411
0.00317948
0.00317947
0.0032167
0.00317663
0.00321412
0.00317946
0.00317946
0.00317663
0.00317063
0.00313138
0.00316802
0.00316803
0.0031341
0.00313408
0.00317061
0.00313138
0.00316802
0.00316804
0.0031341
0.00313409
0.00316803
0.00313409
0.00313409
0.00317063
0.00313137
0.00316805
0.00313411
0.00313409
0.00313137
0.00312551
0.00308703
0.00312289
0.0031229
0.00308964
0.00308965
0.0031255
0.00308703
0.0031229
0.00312291
0.00308964
0.00308965
0.00312289
0.00308965
0.00308966
0.0031255
0.00308702
0.0031229
0.00308965
0.00308966
0.00308704
0.00308128
0.00304344
0.00307868
0.00307868
0.00304601
0.00304601
0.00308127
0.00304343
0.00307868
0.00307868
0.003046
0.00304598
0.00307868
0.00304601
0.003046
0.00308127
0.00304343
0.00307868
0.00304599
0.003046
0.00304344
0.00303778
0.00300042
0.00303519
0.00303519
0.00300294
0.00300294
0.00303777
0.00300043
0.0030352
0.0030352
0.00300294
0.00300292
0.00303519
0.00300293
0.00300294
0.00303779
0.00300038
0.00303519
0.00300292
0.00300293
0.0030004
0.00299482
0.00295775
0.00299223
0.00299223
0.00296028
0.00296027
0.00299483
0.00295778
0.00299223
0.00299223
0.00296027
0.0029603
0.00299224
0.00296028
0.00296029
0.00299481
0.00295776
0.00299224
0.00296029
0.00296028
0.00295778
0.00295221
0.00291549
0.00294966
0.00294967
0.00291796
0.00291794
0.00295224
0.00291541
0.00294966
0.00294959
0.00291796
0.00291792
0.00294969
0.00291793
0.00291795
0.0029522
0.00291548
0.00294969
0.0029179
0.00291794
0.00291545
0.00290999
0.00287339
0.00290742
0.00290737
0.00287585
0.00287587
0.00290991
0.00287345
0.00290742
0.00290743
0.00287586
0.00287585
0.0029074
0.00287587
0.0028759
0.00290999
0.00287343
0.00290741
0.00287583
0.00287589
0.00287338
0.00286796
0.00283166
0.00286541
0.00286545
0.00283416
0.00283413
0.00286801
0.00283169
0.0028654
0.00286546
0.00283416
0.00283414
0.00286538
0.00283414
0.00283415
0.00286801
0.00283169
0.00286539
0.00283414
0.00283415
0.00283167
0.00282628
0.00279024
0.00282377
0.00282382
0.00279275
0.00279274
0.00282632
0.00279025
0.00282377
0.00282378
0.00279275
0.00279272
0.00282378
0.00279275
0.00279273
0.00282631
0.00279025
0.00282379
0.00279273
0.00279274
0.00279022
0.00278492
0.00274912
0.00278245
0.00278248
0.00275168
0.00275167
0.00278493
0.00274912
0.00278245
0.00278243
0.00275168
0.00275166
0.00278245
0.00275167
0.00275165
0.00278493
0.00274911
0.00278246
0.00275166
0.00275165
0.00274914
0.00274386
0.00270835
0.00274146
0.00274148
0.00271096
0.00271095
0.00274386
0.00270834
0.00274146
0.00274145
0.00271096
0.00271097
0.00274146
0.00271095
0.00271096
0.00274387
0.00270835
0.00274146
0.00271097
0.00271096
0.00270837
0.00270315
0.0026679
0.00270083
0.00270082
0.00267054
0.00267054
0.00270313
0.00266791
0.00270083
0.00270081
0.00267054
0.00267056
0.00270081
0.00267054
0.00267057
0.00270315
0.00266789
0.00270082
0.00267055
0.00267057
0.00266791
0.00266274
0.00262779
0.00266049
0.0026605
0.00263047
0.00263048
0.00266276
0.0026278
0.00266049
0.0026605
0.00263047
0.00263048
0.00266051
0.00263048
0.00263047
0.00266274
0.00262777
0.00266051
0.00263048
0.00263046
0.00262777
0.00262269
0.00258801
0.0026205
0.0026205
0.00259069
0.00259069
0.00262269
0.00258804
0.0026205
0.00262049
0.00259069
0.00259071
0.0026205
0.00259071
0.00259069
0.00262267
0.00258802
0.0026205
0.0025907
0.0025907
0.00258802
0.00258296
0.00254859
0.00258079
0.00258079
0.00255121
0.00255118
0.002583
0.00254852
0.00258079
0.00258081
0.00255121
0.0025512
0.00258079
0.00255116
0.00255119
0.00258298
0.00254861
0.00258079
0.00255119
0.00255118
0.00254858
0.00254358
0.00250949
0.00254137
0.00254136
0.00251199
0.00251199
0.00254351
0.00250952
0.00254138
0.00254139
0.00251199
0.00251197
0.00254136
0.00251198
0.00251198
0.0025436
0.00250946
0.00254137
0.00251198
0.002512
0.0025095
0.00250451
0.00247069
0.00250224
0.00250223
0.00247306
0.00247307
0.00250453
0.00247068
0.00250223
0.00250219
0.00247306
0.00247309
0.00250223
0.00247308
0.00247307
0.00250445
0.00247076
0.00250225
0.00247307
0.00247306
0.0024707
0.00246574
0.00243211
0.00246336
0.00246337
0.00243438
0.00243439
0.00246573
0.00243214
0.00246336
0.00246341
0.00243437
0.00243435
0.00246337
0.00243438
0.00243436
0.00246583
0.00243207
0.00246337
0.00243436
0.00243436
0.0024321
0.00242717
0.00239377
0.00242474
0.00242475
0.00239595
0.00239595
0.0024272
0.00239378
0.00242474
0.00242471
0.00239595
0.00239594
0.00242473
0.00239595
0.00239595
0.00242711
0.00239376
0.00242472
0.00239591
0.00239593
0.00239376
0.00238885
0.00235571
0.0023864
0.0023864
0.00235783
0.00235784
0.00238886
0.00235572
0.00238639
0.00238638
0.00235783
0.00235779
0.00238639
0.00235783
0.00235783
0.00238885
0.00235567
0.00238638
0.00235786
0.00235783
0.00235571
0.00235081
0.00231785
0.00234833
0.00234835
0.00231996
0.00231995
0.00235081
0.00231785
0.00234833
0.00234831
0.00231995
0.00231996
0.00234835
0.00231995
0.00231997
0.00235076
0.00231782
0.00234834
0.00231994
0.00231996
0.00231786
0.00231297
0.0022803
0.00231054
0.00231054
0.00228241
0.00228241
0.00231296
0.0022803
0.00231054
0.00231054
0.00228243
0.00228244
0.00231055
0.00228242
0.00228242
0.00231295
0.00228035
0.00231055
0.00228243
0.00228243
0.00228031
0.00227545
0.00224305
0.00227309
0.00227308
0.00224521
0.00224519
0.00227544
0.00224303
0.0022731
0.00227311
0.00224521
0.00224522
0.00227309
0.0022452
0.00224522
0.0022755
0.00224306
0.00227309
0.00224521
0.00224521
0.00224305
0.00223822
0.00220625
0.00223596
0.00223594
0.00220844
0.00220843
0.0022382
0.00220625
0.00223596
0.00223597
0.00220844
0.00220844
0.00223596
0.00220844
0.00220844
0.00223822
0.00220626
0.00223596
0.00220844
0.00220844
0.00220625
0.00220148
0.00217016
0.00219936
0.00219935
0.00217238
0.00217241
0.00220149
0.00217022
0.00219935
0.00219936
0.00217237
0.00217239
0.00219936
0.00217242
0.00217241
0.0022015
0.00217021
0.00219936
0.00217242
0.00217239
0.00217019
0.00216549
0.0021349
0.00216349
0.00216352
0.00213708
0.00213712
0.00216555
0.00213493
0.00216348
0.0021635
0.00213709
0.0021371
0.00216351
0.00213712
0.00213709
0.00216554
0.00213492
0.0021635
0.00213711
0.00213712
0.00213492
0.00213032
0.00210003
0.00212835
0.00212839
0.00210222
0.00210222
0.00213033
0.0021
0.00212836
0.00212838
0.00210222
0.00210222
0.00212836
0.00210221
0.00210221
0.00213032
0.0021
0.00212839
0.0021022
0.00210223
0.00210002
0.00209541
0.00206478
0.00209347
0.00209346
0.00206701
0.002067
0.00209538
0.00206476
0.00209347
0.00209346
0.00206701
0.002067
0.00209345
0.002067
0.002067
0.00209539
0.00206476
0.00209347
0.002067
0.002067
0.00206476
0.00206008
0.00202908
0.00205813
0.00205811
0.00203129
0.00203128
0.00206007
0.00202907
0.00205813
0.00205812
0.00203129
0.00203128
0.00205812
0.00203128
0.00203128
0.00206007
0.00202908
0.00205812
0.00203128
0.00203128
0.00202907
0.00202433
0.00199305
0.00202229
0.00202228
0.00199523
0.00199523
0.00202433
0.00199305
0.00202229
0.00202229
0.00199524
0.00199523
0.00202228
0.00199523
0.00199523
0.00202433
0.00199305
0.00202228
0.00199523
0.00199523
0.00199305
0.0019883
0.00195724
0.00198624
0.00198623
0.00195941
0.00195941
0.0019883
0.00195724
0.00198624
0.00198624
0.00195941
0.00195941
0.00198623
0.00195941
0.00195941
0.0019883
0.00195724
0.00198623
0.00195941
0.00195941
0.00195724
0.00195255
0.00192195
0.00195054
0.00195054
0.00192412
0.00192412
0.00195255
0.00192195
0.00195054
0.00195054
0.00192412
0.00192412
0.00195054
0.00192412
0.00192412
0.00195255
0.00192195
0.00195054
0.00192412
0.00192412
0.00192195
0.00191732
0.00188716
0.00191538
0.00191537
0.00188932
0.00188932
0.00191732
0.00188716
0.00191538
0.00191537
0.00188932
0.00188932
0.00191537
0.00188932
0.00188932
0.00191732
0.00188716
0.00191537
0.00188932
0.00188932
0.00188716
0.00188256
0.00185257
0.00188067
0.00188067
0.00185474
0.00185474
0.00188256
0.00185257
0.00188067
0.00188067
0.00185474
0.00185474
0.00188067
0.00185474
0.00185474
0.00188256
0.00185257
0.00188067
0.00185474
0.00185474
0.00185257
0.00184795
0.00181783
0.00184607
0.00184607
0.00181997
0.00181997
0.00184795
0.00181783
0.00184607
0.00184607
0.00181997
0.00181997
0.00184607
0.00181997
0.00181997
0.00184795
0.00181783
0.00184607
0.00181997
0.00181997
0.00181783
0.00181317
0.00178288
0.00181124
0.00181124
0.00178498
0.00178498
0.00181317
0.00178288
0.00181124
0.00181124
0.00178498
0.00178498
0.00181124
0.00178498
0.00178498
0.00181317
0.00178288
0.00181124
0.00178498
0.00178498
0.00178288
0.00177818
0.00174767
0.00177619
0.00177619
0.00174975
0.00174975
0.00177818
0.00174767
0.00177619
0.00177619
0.00174975
0.00174975
0.00177619
0.00174975
0.00174975
0.00177818
0.00174767
0.00177619
0.00174975
0.00174975
0.00174767
0.00174294
0.00171226
0.0017409
0.0017409
0.00171433
0.00171433
0.00174294
0.00171226
0.0017409
0.0017409
0.00171433
0.00171433
0.0017409
0.00171433
0.00171433
0.00174294
0.00171226
0.0017409
0.00171433
0.00171433
0.00171226
0.0017075
0.00167674
0.00170545
0.00170545
0.0016788
0.0016788
0.00170751
0.00167674
0.00170545
0.00170545
0.0016788
0.0016788
0.00170545
0.0016788
0.0016788
0.0017075
0.00167674
0.00170545
0.0016788
0.0016788
0.00167673
0.00167197
0.00164116
0.00166991
0.00166991
0.00164322
0.00164322
0.00167197
0.00164116
0.00166991
0.00166991
0.00164322
0.00164322
0.00166991
0.00164322
0.00164322
0.00167197
0.00164116
0.00166991
0.00164322
0.00164322
0.00164116
0.00163639
0.00160557
0.00163432
0.00163432
0.00160763
0.00160763
0.00163639
0.00160557
0.00163432
0.00163432
0.00160763
0.00160763
0.00163432
0.00160763
0.00160763
0.00163639
0.00160557
0.00163432
0.00160763
0.00160763
0.00160557
0.00160081
0.00156999
0.00159874
0.00159874
0.00157205
0.00157205
0.00160081
0.00156999
0.00159874
0.00159874
0.00157205
0.00157205
0.00159874
0.00157205
0.00157205
0.00160081
0.00156999
0.00159874
0.00157205
0.00157205
0.00156999
0.00156522
0.00153439
0.00156315
0.00156315
0.00153646
0.00153646
0.00156522
0.00153439
0.00156315
0.00156315
0.00153646
0.00153646
0.00156315
0.00153646
0.00153646
0.00156522
0.00153439
0.00156315
0.00153646
0.00153646
0.00153439
0.00152963
0.00149881
0.00152756
0.00152756
0.00150087
0.00150087
0.00152963
0.00149881
0.00152756
0.00152756
0.00150087
0.00150087
0.00152756
0.00150087
0.00150087
0.00152963
0.00149881
0.00152756
0.00150087
0.00150087
0.00149881
0.00149404
0.00146322
0.00149197
0.00149197
0.00146528
0.00146528
0.00149404
0.00146322
0.00149197
0.00149197
0.00146528
0.00146528
0.00149198
0.00146528
0.00146528
0.00149404
0.00146322
0.00149197
0.00146528
0.00146528
0.00146322
0.00145845
0.00142763
0.00145638
0.00145638
0.00142969
0.00142969
0.00145845
0.00142763
0.00145638
0.00145638
0.00142969
0.00142969
0.00145638
0.00142969
0.00142969
0.00145845
0.00142763
0.00145638
0.00142969
0.00142969
0.00142763
0.00142286
0.00139204
0.00142079
0.00142079
0.0013941
0.0013941
0.00142286
0.00139204
0.00142079
0.00142079
0.0013941
0.0013941
0.00142079
0.0013941
0.0013941
0.00142286
0.00139204
0.00142079
0.0013941
0.0013941
0.00139204
0.00138728
0.00135645
0.00138521
0.00138521
0.00135851
0.00135851
0.00138727
0.00135645
0.00138521
0.00138521
0.00135851
0.00135851
0.00138521
0.00135851
0.00135851
0.00138728
0.00135645
0.00138521
0.00135851
0.00135851
0.00135645
0.00135168
0.00132086
0.00134961
0.00134961
0.00132292
0.00132292
0.00135168
0.00132086
0.00134961
0.00134962
0.00132292
0.00132292
0.00134962
0.00132292
0.00132292
0.00135168
0.00132086
0.00134962
0.00132292
0.00132292
0.00132086
0.00131609
0.00128527
0.00131402
0.00131402
0.00128733
0.00128733
0.00131609
0.00128527
0.00131402
0.00131402
0.00128733
0.00128733
0.00131402
0.00128733
0.00128733
0.00131609
0.00128527
0.00131402
0.00128733
0.00128733
0.00128527
0.0012805
0.00124968
0.00127843
0.00127844
0.00125174
0.00125174
0.0012805
0.00124968
0.00127843
0.00127843
0.00125174
0.00125174
0.00127843
0.00125174
0.00125174
0.0012805
0.00124968
0.00127843
0.00125174
0.00125174
0.00124968
0.00124491
0.00121409
0.00124284
0.00124284
0.00121615
0.00121615
0.00124491
0.00121409
0.00124284
0.00124284
0.00121615
0.00121615
0.00124284
0.00121615
0.00121615
0.00124491
0.00121409
0.00124284
0.00121615
0.00121615
0.00121409
0.00120932
0.0011785
0.00120725
0.00120725
0.00118056
0.00118056
0.00120932
0.0011785
0.00120725
0.00120725
0.00118056
0.00118056
0.00120725
0.00118056
0.00118056
0.00120932
0.0011785
0.00120725
0.00118056
0.00118056
0.0011785
0.00117373
0.00114291
0.00117166
0.00117166
0.00114497
0.00114497
0.00117373
0.00114291
0.00117166
0.00117166
0.00114497
0.00114497
0.00117166
0.00114497
0.00114497
0.00117373
0.00114291
0.00117166
0.00114497
0.00114497
0.00114291
0.00113814
0.00110732
0.00113607
0.00113607
0.00110938
0.00110938
0.00113814
0.00110732
0.00113607
0.00113607
0.00110938
0.00110938
0.00113607
0.00110938
0.00110938
0.00113814
0.00110731
0.00113607
0.00110938
0.00110938
0.00110732
0.00110255
0.00107173
0.00110048
0.00110048
0.00107379
0.00107379
0.00110255
0.00107173
0.00110048
0.00110048
0.00107379
0.00107379
0.00110048
0.00107379
0.00107379
0.00110255
0.00107173
0.00110048
0.00107379
0.00107379
0.00107172
0.00106696
0.00103614
0.00106489
0.00106489
0.0010382
0.0010382
0.00106696
0.00103614
0.00106489
0.00106489
0.0010382
0.0010382
0.00106489
0.0010382
0.0010382
0.00106696
0.00103614
0.00106489
0.0010382
0.0010382
0.00103614
0.00103137
0.00100054
0.0010293
0.0010293
0.0010026
0.0010026
0.00103137
0.00100054
0.0010293
0.0010293
0.0010026
0.00100261
0.0010293
0.0010026
0.0010026
0.00103137
0.00100054
0.0010293
0.00100261
0.0010026
0.00100054
0.000995775
0.000964954
0.000993708
0.000993708
0.000967015
0.000967015
0.000995776
0.000964953
0.000993708
0.000993708
0.000967015
0.000967016
0.000993709
0.000967016
0.000967016
0.000995775
0.000964955
0.000993709
0.000967016
0.000967014
0.000964952
0.000960185
0.000929365
0.000958117
0.000958116
0.000931425
0.000931425
0.000960184
0.000929364
0.000958117
0.000958117
0.000931425
0.000931425
0.000958117
0.000931425
0.000931425
0.000960186
0.000929363
0.000958116
0.000931424
0.000931425
0.000929361
0.000924596
0.000893772
0.000922527
0.000922526
0.000895834
0.000895834
0.000924596
0.00089377
0.000922527
0.000922526
0.000895834
0.000895834
0.000922527
0.000895833
0.000895834
0.000924596
0.00089377
0.000922525
0.000895834
0.000895836
0.000893773
0.000889004
0.000858179
0.000886936
0.000886935
0.000860242
0.000860244
0.000889002
0.00085818
0.000886936
0.000886935
0.000860243
0.000860244
0.000886935
0.000860243
0.000860243
0.000889003
0.000858179
0.000886937
0.000860243
0.000860242
0.000858181
0.000853411
0.000822588
0.000851345
0.000851345
0.00082465
0.000824651
0.000853411
0.000822589
0.000851344
0.000851344
0.000824652
0.000824652
0.000851346
0.00082465
0.000824649
0.000853411
0.00082259
0.000851346
0.000824651
0.000824649
0.000822586
0.000817819
0.000786998
0.000815752
0.000815754
0.000789061
0.00078906
0.00081782
0.000787
0.000815754
0.000815755
0.00078906
0.000789059
0.000815753
0.00078906
0.000789059
0.000817821
0.000786999
0.000815753
0.000789059
0.000789059
0.000786996
0.000782229
0.000751409
0.000780161
0.000780161
0.00075347
0.000753469
0.00078223
0.000751408
0.000780163
0.000780163
0.000753468
0.000753467
0.00078016
0.000753469
0.00075347
0.000782231
0.000751406
0.000780161
0.000753467
0.000753469
0.000751407
0.00074664
0.000715816
0.000744573
0.000744572
0.000717876
0.000717876
0.000746641
0.000715814
0.000744571
0.00074457
0.000717877
0.000717878
0.000744571
0.000717876
0.000717878
0.000746639
0.000715814
0.00074457
0.000717877
0.000717879
0.000715817
0.000711049
0.000680225
0.000708981
0.00070898
0.000682286
0.000682288
0.000711046
0.000680225
0.00070898
0.000708978
0.000682287
0.000682289
0.00070898
0.000682287
0.000682288
0.000711046
0.000680227
0.00070898
0.00068229
0.000682289
0.000680227
0.000675457
0.000644634
0.000673388
0.000673389
0.000646698
0.000646699
0.000675456
0.000644637
0.000673389
0.00067339
0.000646697
0.000646698
0.00067339
0.000646699
0.000646698
0.000675458
0.000644637
0.000673391
0.000646697
0.000646697
0.000644636
0.000639866
0.000609045
0.0006378
0.000637801
0.000611107
0.000611106
0.000639868
0.000609047
0.0006378
0.000637802
0.000611107
0.000611106
0.000637801
0.000611108
0.000611107
0.00063987
0.000609045
0.000637801
0.000611105
0.000611106
0.000609044
0.000604276
0.000573455
0.00060221
0.000602212
0.000575516
0.000575515
0.000604279
0.000573456
0.00060221
0.000602211
0.000575517
0.000575515
0.000602211
0.000575516
0.000575517
0.000604279
0.000573454
0.00060221
0.000575516
0.000575517
0.000573454
0.000568686
0.000537866
0.000566619
0.000566619
0.000539929
0.000539927
0.000568689
0.000537865
0.00056662
0.00056662
0.000539928
0.000539926
0.000566621
0.000539925
0.000539927
0.000568688
0.000537864
0.00056662
0.000539926
0.000539927
0.000537864
0.000533097
0.000502277
0.00053103
0.00053103
0.000504339
0.000504338
0.000533097
0.000502275
0.000531031
0.000531031
0.000504338
0.000504336
0.000531031
0.000504336
0.000504338
0.000533097
0.000502274
0.00053103
0.000504336
0.000504337
0.000502276
0.000497508
0.000466686
0.000495442
0.000495441
0.000468747
0.000468747
0.000497507
0.000466686
0.000495442
0.000495441
0.000468748
0.000468746
0.000495441
0.000468749
0.000468748
0.000497507
0.000466685
0.00049544
0.000468747
0.000468748
0.000466686
0.000461917
0.000431097
0.000459851
0.000459851
0.000433159
0.000433159
0.000461917
0.000431097
0.000459851
0.00045985
0.000433158
0.000433159
0.000459851
0.000433159
0.000433158
0.000461917
0.000431096
0.000459852
0.000433157
0.000433157
0.000431096
0.000426326
0.000395509
0.00042426
0.00042426
0.000397571
0.000397571
0.000426327
0.000395508
0.000424261
0.00042426
0.000397569
0.00039757
0.000424261
0.00039757
0.000397569
0.000426327
0.000395507
0.000424262
0.000397569
0.000397568
0.000395507
0.000390739
0.00035992
0.000388674
0.000388673
0.000361979
0.000361979
0.000390738
0.000359919
0.000388673
0.000388673
0.00036198
0.000361981
0.000388672
0.000361981
0.000361981
0.000390738
0.000359918
0.000388671
0.000361981
0.00036198
0.000359918
0.00035515
0.000324331
0.000353085
0.000353084
0.000326389
0.000326389
0.000355148
0.000324329
0.000353084
0.000353083
0.000326391
0.000326392
0.000353084
0.00032639
0.00032639
0.000355148
0.00032433
0.000353082
0.000326391
0.000326391
0.000324329
0.00031956
0.000288741
0.000317494
0.000317492
0.000290801
0.000290801
0.000319558
0.00028874
0.000317495
0.000317495
0.000290799
0.0002908
0.000317495
0.000290799
0.000290799
0.000319558
0.00028874
0.000317494
0.000290801
0.000290801
0.000288739
0.000283969
0.00025315
0.000281905
0.000281904
0.000255209
0.000255209
0.000283966
0.000253151
0.000281906
0.000281905
0.000255208
0.000255209
0.000281903
0.00025521
0.00025521
0.000283968
0.00025315
0.000281905
0.000255209
0.000255208
0.000253149
0.000248375
0.00021756
0.000246316
0.000246315
0.000219615
0.000219616
0.000248374
0.000217561
0.000246313
0.000246313
0.000219619
0.000219619
0.000246313
0.000219618
0.000219617
0.000248374
0.000217561
0.000246314
0.000219618
0.000219616
0.000217559
0.00021278
0.00018197
0.000210722
0.000210723
0.000184025
0.000184024
0.00021278
0.000181971
0.000210724
0.000210724
0.000184024
0.000184024
0.000210724
0.000184023
0.000184022
0.00021278
0.00018197
0.000210723
0.000184025
0.000184023
0.000181969
0.000177181
0.000146381
0.00017513
0.000175131
0.000148431
0.00014843
0.000177182
0.00014638
0.000175132
0.000175132
0.000148429
0.000148429
0.000175131
0.000148429
0.000148429
0.000177182
0.000146379
0.000175131
0.000148431
0.00014843
0.000146378
0.000141577
0.000110788
0.000139538
0.000139537
0.000112831
0.000112831
0.000141576
0.000110786
0.000139537
0.000139536
0.00011283
0.00011283
0.000139536
0.000112831
0.00011283
0.000141576
0.000110786
0.000139538
0.00011283
0.000112829
0.000110785
0.000105959
7.51875e-05
0.000103939
0.000103938
7.72227e-05
7.72229e-05
0.000105958
7.5187e-05
0.000103939
0.000103938
7.72221e-05
7.72213e-05
0.000103939
7.72223e-05
7.72198e-05
0.000105958
7.51857e-05
0.000103938
7.72204e-05
7.72199e-05
7.51845e-05
7.03248e-05
3.96926e-05
6.8336e-05
6.83352e-05
4.17501e-05
4.175e-05
7.03248e-05
3.96905e-05
6.8335e-05
6.83334e-05
4.17489e-05
4.17451e-05
6.8334e-05
4.17473e-05
4.17437e-05
7.03226e-05
3.96873e-05
6.83315e-05
4.17446e-05
4.1745e-05
3.96868e-05
3.48815e-05
7.5422e-06
3.31301e-05
3.31302e-05
1.0237e-05
1.02384e-05
3.48792e-05
7.54374e-06
3.31295e-05
3.31253e-05
1.02383e-05
1.0234e-05
3.31242e-05
1.02377e-05
1.02336e-05
3.48765e-05
7.53936e-06
3.31257e-05
1.02351e-05
1.02356e-05
7.54051e-06
4.45118e-06
5.25142e-06
5.25101e-06
4.45166e-06
5.24981e-06
5.24783e-06
5.20434e-06
5.20282e-06
5.2029e-06
5.24901e-06
4.44781e-06
5.24866e-06
0.00353705
0.00354012
0.00353884
0.00353883
0.00356369
0.00354077
0.00356896
0.00354024
0.00356368
0.00354082
0.00354025
0.00356897
0.00355087
0.00357216
0.00357216
0.0035084
0.00352266
0.00352655
0.00350086
0.00349932
0.00350437
0.00350844
0.00352269
0.00352652
0.00350094
0.00352481
0.00352481
0.0035248
0.00349772
0.0034977
0.00349772
0.00349772
0.00350825
0.0035205
0.00352538
0.00351585
0.00352763
0.00350543
0.00351602
0.0034995
0.00350447
0.00350825
0.00352538
0.00352051
0.0035158
0.00352763
0.00351601
0.00350542
0.00352644
0.00352639
0.00351294
0.00350536
0.0035053
0.00348127
0.00349531
0.00349509
0.00347953
0.00349265
0.00347861
0.00348124
0.00349538
0.00349512
0.0034795
0.00348882
0.00348879
0.00348881
0.00346146
0.00346146
0.00346146
0.00346146
0.00347907
0.00349395
0.0034876
0.00347831
0.00349247
0.00347981
0.00347839
0.00349262
0.00347859
0.00347906
0.00348758
0.00349393
0.00347839
0.00349247
0.0034784
0.0034797
0.00349573
0.00349571
0.00347711
0.00348019
0.00348023
0.00343933
0.00345407
0.00345472
0.00343813
0.00345286
0.00343726
0.00343921
0.00345402
0.00345478
0.00343813
0.00345156
0.00345153
0.00345155
0.00341874
0.00341875
0.00341874
0.00341874
0.00343801
0.00345369
0.00344984
0.00343942
0.00345276
0.00343862
0.00343944
0.00345287
0.00343724
0.003438
0.00344984
0.00345368
0.00343946
0.00345277
0.00343942
0.0034385
0.00345431
0.00345434
0.00343678
0.00343842
0.00343841
0.00339268
0.00340935
0.00341075
0.00339132
0.0034087
0.00339067
0.00339276
0.00340935
0.00341067
0.00339131
0.003407
0.00340697
0.00340698
0.0033708
0.00337082
0.0033708
0.0033708
0.00339167
0.00340922
0.00340547
0.00339356
0.0034087
0.00339198
0.00339357
0.00340868
0.00339085
0.00339167
0.0034055
0.00340925
0.00339365
0.0034087
0.00339358
0.00339193
0.00340941
0.00340945
0.00339048
0.00339149
0.00339146
0.00334367
0.00336081
0.00336217
0.00334259
0.00336051
0.0033423
0.00334378
0.00336085
0.00336215
0.0033426
0.00335868
0.00335866
0.00335867
0.00332244
0.00332245
0.00332242
0.00332243
0.0033432
0.00336099
0.00335725
0.0033452
0.00336055
0.00334312
0.00334519
0.00336044
0.00334228
0.00334322
0.00335726
0.00336083
0.00334518
0.00336057
0.0033452
0.00334328
0.00336091
0.00336091
0.00334207
0.0033427
0.00334273
0.00329511
0.00331232
0.00331337
0.00329433
0.00331209
0.00329411
0.00329504
0.00331232
0.00331337
0.00329432
0.00331043
0.00331039
0.0033104
0.00327441
0.0032744
0.00327439
0.0032744
0.00329499
0.00331257
0.00330915
0.0032972
0.00331223
0.00329509
0.00329726
0.00331202
0.00329406