/*--------------------------------*- C++ -*----------------------------------*\
| =========                 |                                                 |
| \\      /  F ield         | OpenFOAM: The Open Source CFD Toolbox           |
|  \\    /   O peration     | Version:  v2006                                 |
|   \\  /    A nd           | Website:  www.openfoam.com                      |
|    \\/     M anipulation  |                                                 |
\*---------------------------------------------------------------------------*/
FoamFile
{
    version     2.0;
    format      ascii;
    class       volScalarField;
    location    "375";
    object      epsilon;
}
// * * * * * * * * * * * * * * * * * * * * * * * * * * * * * * * * * * * * * //

dimensions      [0 2 -3 0 0 0 0];


internalField   nonuniform List<scalar> 
171728
(
2.41573e-07
3.84532e-07
1.30255e-07
2.54329e-07
2.54345e-07
4.13523e-07
1.29693e-07
2.69126e-07
2.69145e-07
4.45048e-07
1.29918e-07
2.85895e-07
2.85916e-07
4.78688e-07
1.30908e-07
3.04553e-07
3.04578e-07
5.14037e-07
1.32664e-07
3.24996e-07
3.25026e-07
5.50619e-07
1.35186e-07
3.47101e-07
3.47143e-07
5.88022e-07
3.84499e-07
4.0677e-07
2.41649e-07
2.50946e-07
2.51035e-07
4.06829e-07
4.1345e-07
4.37716e-07
2.54398e-07
2.54449e-07
2.6532e-07
2.6537e-07
4.13475e-07
4.37744e-07
2.54352e-07
2.54459e-07
2.6526e-07
2.65379e-07
2.54417e-07
2.65245e-07
2.6534e-07
4.13492e-07
4.37758e-07
2.54373e-07
2.65259e-07
2.65282e-07
4.37811e-07
4.44955e-07
4.70871e-07
2.69209e-07
2.69257e-07
2.81617e-07
2.81667e-07
4.4499e-07
4.70904e-07
2.69148e-07
2.69268e-07
2.81539e-07
2.81677e-07
2.6923e-07
2.81529e-07
2.81638e-07
4.44998e-07
4.70922e-07
2.69176e-07
2.81542e-07
2.81567e-07
4.70979e-07
4.78584e-07
5.05806e-07
2.85991e-07
2.86038e-07
2.99827e-07
2.99877e-07
4.78625e-07
5.05835e-07
2.85918e-07
2.86055e-07
2.99731e-07
2.9989e-07
2.86012e-07
2.99727e-07
2.99852e-07
4.78637e-07
5.0587e-07
2.85953e-07
2.99741e-07
2.99766e-07
5.05945e-07
5.13915e-07
5.42078e-07
3.04664e-07
3.04707e-07
3.19854e-07
3.19902e-07
5.13952e-07
5.42108e-07
3.04582e-07
3.0473e-07
3.19737e-07
3.19914e-07
3.04682e-07
3.19742e-07
3.1988e-07
5.13979e-07
5.42145e-07
3.04619e-07
3.19754e-07
3.19773e-07
5.42216e-07
5.50493e-07
5.79246e-07
3.25116e-07
3.2516e-07
3.41579e-07
3.41628e-07
5.50539e-07
5.79275e-07
3.2503e-07
3.2519e-07
3.41438e-07
3.41633e-07
3.25134e-07
3.41459e-07
3.41607e-07
5.50567e-07
5.79305e-07
3.2507e-07
3.41464e-07
3.41476e-07
5.79388e-07
5.87887e-07
3.47235e-07
3.47275e-07
3.64919e-07
5.87929e-07
6.16909e-07
3.4715e-07
3.47318e-07
3.47253e-07
3.64743e-07
3.64907e-07
5.87958e-07
3.47196e-07
3.6474e-07
6.17025e-07
1.84382e-05
1.84305e-05
1.2425e-06
2.86643e-06
1.5999e-07
2.44567e-07
2.88722e-06
1.60537e-07
1.21525e-06
5.16618e-06
5.16781e-06
3.91524e-07
5.17616e-06
5.17781e-06
3.81804e-06
8.92975e-06
3.79778e-06
8.93371e-06
1.84117e-05
1.84047e-05
3.81844e-06
8.93095e-06
3.79777e-06
8.93492e-06
1.01659e-07
1.09884e-07
1.0166e-07
1.29776e-07
1.2978e-07
1.29785e-07
1.29786e-07
1.32317e-06
2.92833e-06
1.62697e-07
2.57843e-07
1.29717e-06
2.94664e-06
1.63581e-07
1.8413e-05
1.84059e-05
1.3232e-06
1.62699e-07
1.13771e-06
2.57858e-07
5.44013e-07
1.63584e-07
2.94681e-06
5.19473e-06
5.19637e-06
4.22025e-07
5.20302e-06
5.2047e-06
3.8635e-06
8.93846e-06
3.84852e-06
8.9419e-06
1.83875e-05
1.83811e-05
3.86391e-06
8.93967e-06
3.84833e-06
8.94312e-06
1.29698e-07
1.29703e-07
1.29703e-07
1.2979e-07
1.29801e-07
1.29801e-07
1.29801e-07
1.39923e-06
2.98287e-06
1.66756e-07
2.73139e-07
1.3749e-06
2.99903e-06
1.67984e-07
1.83887e-05
1.83824e-05
1.39927e-06
1.6676e-07
2.98299e-06
2.73156e-07
1.37495e-06
1.6799e-07
2.99918e-06
5.21857e-06
5.22019e-06
4.54156e-07
5.22552e-06
5.2272e-06
3.89808e-06
8.94607e-06
3.88703e-06
8.94912e-06
1.83655e-05
1.83599e-05
3.89848e-06
8.94729e-06
3.88686e-06
8.95034e-06
1.29916e-07
1.2993e-07
1.2993e-07
1.30586e-07
1.30602e-07
1.30598e-07
1.30599e-07
1.46976e-06
3.03095e-06
1.72188e-07
2.90394e-07
1.44733e-06
3.04518e-06
1.73759e-07
1.83667e-05
1.83612e-05
1.46978e-06
1.72194e-07
3.03106e-06
2.90408e-07
1.44738e-06
1.73767e-07
3.04528e-06
5.23863e-06
5.24024e-06
4.88282e-07
5.24457e-06
5.24625e-06
3.92439e-06
8.95282e-06
3.91628e-06
8.9556e-06
1.83458e-05
1.8341e-05
3.92476e-06
8.95404e-06
3.91613e-06
8.95682e-06
1.309e-07
1.3092e-07
1.3092e-07
1.32151e-07
1.32171e-07
1.32163e-07
1.32165e-07
1.53421e-06
3.07335e-06
1.78999e-07
3.09516e-07
1.51381e-06
3.08592e-06
1.80914e-07
1.83469e-05
1.83421e-05
1.53424e-06
1.79006e-07
3.07346e-06
3.09527e-07
1.51387e-06
1.80925e-07
3.08598e-06
5.25569e-06
5.25732e-06
5.23943e-07
5.26075e-06
5.26243e-06
3.94459e-06
8.95895e-06
3.93856e-06
8.96158e-06
1.83283e-05
1.83243e-05
3.94487e-06
8.96018e-06
3.93845e-06
8.96281e-06
1.3265e-07
1.32678e-07
1.32676e-07
1.34481e-07
1.34511e-07
1.34495e-07
1.34497e-07
1.59252e-06
3.11087e-06
1.87192e-07
3.30399e-07
1.57415e-06
3.12206e-06
1.8945e-07
1.83295e-05
1.83254e-05
1.59255e-06
1.872e-07
3.11101e-06
3.30403e-07
1.5742e-06
1.89464e-07
3.12209e-06
5.27047e-06
5.2721e-06
5.60718e-07
5.27481e-06
5.27646e-06
3.96033e-06
8.96475e-06
3.95567e-06
8.96729e-06
1.83131e-05
1.83099e-05
3.96048e-06
8.96597e-06
3.9557e-06
8.96853e-06
1.35164e-07
1.35203e-07
1.352e-07
1.37622e-07
1.37597e-07
1.64491e-06
3.14427e-06
1.96759e-07
3.52914e-07
1.62845e-06
3.15429e-06
1.99354e-07
1.83143e-05
1.83111e-05
1.64494e-06
1.96768e-07
3.14444e-06
3.52921e-07
1.62849e-06
1.99374e-07
3.15435e-06
5.28342e-06
5.28506e-06
5.98184e-07
5.28729e-06
5.28892e-06
5.16755e-06
5.16611e-06
3.91477e-07
5.17761e-06
5.17613e-06
1.84368e-05
1.8429e-05
1.84174e-05
1.84246e-05
3.99416e-07
5.19165e-06
5.19026e-06
5.18253e-06
5.18099e-06
1.8416e-05
1.84231e-05
3.75907e-06
8.92045e-06
8.92486e-06
3.73212e-06
1.24248e-06
1.59991e-07
2.86637e-06
2.44648e-07
1.60539e-07
2.8874e-06
1.21523e-06
3.75898e-06
8.92017e-06
8.92466e-06
3.73203e-06
1.25664e-06
2.47689e-07
2.91809e-06
1.6189e-07
2.8982e-06
1.61174e-07
1.28333e-06
3.76701e-06
8.92978e-06
8.92554e-06
3.79066e-06
1.25663e-06
2.47774e-07
1.61892e-07
2.91798e-06
1.61176e-07
2.89848e-06
1.28331e-06
3.76691e-06
8.9295e-06
8.92534e-06
3.79056e-06
1.84375e-05
1.84298e-05
1.84394e-05
1.84317e-05
3.99479e-07
5.19023e-06
5.19189e-06
5.18111e-06
5.18275e-06
1.84166e-05
1.8424e-05
1.84185e-05
1.84259e-05
1.84096e-05
1.84027e-05
1.84122e-05
1.84052e-05
5.19471e-06
5.19643e-06
4.21938e-07
5.20297e-06
5.20466e-06
1.83907e-05
1.83973e-05
1.83932e-05
1.83998e-05
4.2891e-07
5.21483e-06
5.21649e-06
5.20715e-06
5.20885e-06
3.81796e-06
8.92971e-06
3.79774e-06
8.93363e-06
1.32312e-06
1.13767e-06
1.62692e-07
2.57913e-07
5.4394e-07
2.94674e-06
1.63591e-07
1.32309e-06
1.13822e-06
1.62705e-07
2.57961e-07
5.4395e-07
2.94707e-06
1.63593e-07
3.82494e-06
8.93794e-06
8.93426e-06
3.84231e-06
3.8249e-06
8.9379e-06
8.93421e-06
3.84223e-06
1.33662e-06
2.61552e-07
2.97371e-06
1.65623e-07
2.95642e-06
1.64551e-07
1.36179e-06
1.33658e-06
2.61602e-07
2.97422e-06
1.65624e-07
2.95687e-06
1.64566e-07
1.36177e-06
5.19617e-06
5.1948e-06
4.21947e-07
5.20447e-06
5.20294e-06
1.84103e-05
1.84031e-05
1.83928e-05
1.83992e-05
4.28939e-07
5.21628e-06
5.2149e-06
5.20859e-06
5.20704e-06
1.83913e-05
1.83977e-05
1.32319e-06
1.1381e-06
1.62703e-07
2.57862e-07
5.44021e-07
2.94725e-06
1.63581e-07
3.81805e-06
8.9306e-06
3.79805e-06
8.93453e-06
1.32319e-06
1.62712e-07
7.5223e-07
2.57974e-07
5.43989e-07
1.6359e-07
2.94727e-06
3.82474e-06
8.93915e-06
8.93548e-06
3.84271e-06
1.33669e-06
2.61498e-07
2.97421e-06
1.65612e-07
2.95694e-06
1.64563e-07
1.36187e-06
3.82502e-06
8.93879e-06
8.93509e-06
3.84232e-06
1.33666e-06
2.61612e-07
1.65621e-07
2.97426e-06
1.64571e-07
2.95699e-06
1.36187e-06
3.81841e-06
8.93037e-06
3.79773e-06
8.93427e-06
1.32315e-06
1.62697e-07
2.92831e-06
2.57936e-07
1.29714e-06
1.63583e-07
2.94689e-06
3.81833e-06
8.93013e-06
3.79763e-06
8.93412e-06
1.33663e-06
2.61478e-07
2.97384e-06
1.65612e-07
2.95646e-06
1.64556e-07
1.36186e-06
3.82471e-06
8.93854e-06
8.93485e-06
3.8427e-06
1.33661e-06
2.61573e-07
1.65614e-07
2.97376e-06
1.64557e-07
2.9566e-06
1.36184e-06
3.82461e-06
8.93833e-06
8.93467e-06
3.84261e-06
5.1965e-06
5.19499e-06
4.21979e-07
5.20476e-06
5.20323e-06
1.84109e-05
1.84039e-05
1.83939e-05
1.84005e-05
4.28954e-07
5.21649e-06
5.21497e-06
5.20888e-06
5.20737e-06
1.83919e-05
1.83984e-05
1.32319e-06
1.62702e-07
1.13816e-06
2.57882e-07
5.43985e-07
1.63587e-07
2.94736e-06
3.81844e-06
8.93062e-06
3.79777e-06
8.93453e-06
3.81843e-06
8.9307e-06
3.7977e-06
8.9347e-06
1.33669e-06
2.61493e-07
1.65616e-07
2.97381e-06
1.64559e-07
2.95652e-06
1.36188e-06
1.33668e-06
2.61523e-07
1.65619e-07
2.9742e-06
1.64564e-07
2.95704e-06
1.36186e-06
3.82474e-06
8.93879e-06
8.93509e-06
3.84272e-06
3.82467e-06
8.93891e-06
8.93525e-06
3.84271e-06
1.84109e-05
1.8404e-05
1.84128e-05
1.84059e-05
4.28994e-07
5.21478e-06
5.21643e-06
5.20722e-06
5.20889e-06
1.83919e-05
1.83986e-05
1.83938e-05
1.84005e-05
1.83854e-05
1.83792e-05
1.83879e-05
1.83817e-05
5.21859e-06
5.22027e-06
4.54047e-07
5.22552e-06
5.22717e-06
1.83682e-05
1.83741e-05
1.83707e-05
1.83766e-05
4.61521e-07
5.23541e-06
5.23705e-06
5.22903e-06
5.2307e-06
3.86343e-06
8.9384e-06
3.84848e-06
8.94187e-06
1.39918e-06
2.98286e-06
1.66751e-07
2.73222e-07
1.37488e-06
2.99908e-06
1.67996e-07
1.39916e-06
2.98327e-06
1.66766e-07
2.73272e-07
1.37485e-06
2.99944e-06
1.67997e-07
3.8691e-06
8.94564e-06
8.94236e-06
3.88196e-06
3.86906e-06
8.9456e-06
8.94235e-06
3.88189e-06
1.4118e-06
2.77357e-07
3.02283e-06
1.70712e-07
3.00758e-06
1.69295e-07
1.43516e-06
1.41177e-06
2.77406e-07
3.02328e-06
1.70712e-07
3.00806e-06
1.69311e-07
1.43514e-06
5.22013e-06
5.2187e-06
4.54068e-07
5.22694e-06
5.22539e-06
1.8386e-05
1.83796e-05
1.83704e-05
1.83761e-05
4.61564e-07
5.23692e-06
5.23551e-06
5.23043e-06
5.2289e-06
1.83689e-05
1.83746e-05
1.39926e-06
2.98336e-06
1.66763e-07
2.73153e-07
1.37494e-06
2.99958e-06
1.67985e-07
3.86353e-06
8.93931e-06
3.84861e-06
8.94276e-06
1.39926e-06
1.66772e-07
2.98344e-06
2.73284e-07
1.37491e-06
1.67995e-07
2.99963e-06
3.86892e-06
8.94686e-06
8.94358e-06
3.88237e-06
1.41188e-06
2.77289e-07
3.02333e-06
1.70701e-07
3.00809e-06
1.69308e-07
1.43524e-06
3.8692e-06
8.9465e-06
8.94322e-06
3.882e-06
1.41184e-06
2.77419e-07
1.70711e-07
3.02337e-06
1.69317e-07
3.00818e-06
1.43524e-06
3.86388e-06
8.93903e-06
3.8483e-06
8.94247e-06
1.39922e-06
1.66757e-07
2.98297e-06
2.73244e-07
1.37487e-06
1.67986e-07
2.99922e-06
3.8638e-06
8.93886e-06
3.8482e-06
8.94233e-06
1.41181e-06
2.77269e-07
3.02291e-06
1.70699e-07
3.00767e-06
1.693e-07
1.43523e-06
3.86887e-06
8.94621e-06
8.94295e-06
3.88237e-06
1.41179e-06
2.77376e-07
1.70702e-07
3.02288e-06
1.69301e-07
3.00776e-06
1.43521e-06
3.86878e-06
8.94604e-06
8.94278e-06
3.88229e-06
5.22034e-06
5.21883e-06
4.54093e-07
5.22726e-06
5.22575e-06
1.83866e-05
1.83804e-05
1.83715e-05
1.83774e-05
4.61573e-07
5.23711e-06
5.23559e-06
5.23075e-06
5.22925e-06
1.83694e-05
1.83753e-05
1.39926e-06
1.66763e-07
2.98339e-06
2.7318e-07
1.37493e-06
1.67991e-07
2.99968e-06
3.86392e-06
8.9393e-06
3.84834e-06
8.94274e-06
3.86391e-06
8.93944e-06
3.84827e-06
8.94292e-06
1.41188e-06
2.77287e-07
1.70706e-07
3.02292e-06
1.69305e-07
3.00774e-06
1.43525e-06
1.41187e-06
2.77319e-07
1.70705e-07
3.02332e-06
1.69306e-07
3.00819e-06
1.43523e-06
3.86892e-06
8.94646e-06
8.94319e-06
3.88237e-06
3.86885e-06
8.94662e-06
8.94337e-06
3.88237e-06
1.83867e-05
1.83805e-05
1.83886e-05
1.83825e-05
4.61627e-07
5.23537e-06
5.23701e-06
5.22909e-06
5.23077e-06
1.83695e-05
1.83755e-05
1.83714e-05
1.83774e-05
1.83635e-05
1.8358e-05
1.8366e-05
1.83604e-05
5.23868e-06
5.24034e-06
4.88154e-07
5.24459e-06
5.24623e-06
1.83481e-05
1.83533e-05
1.83505e-05
1.83557e-05
4.96058e-07
5.25288e-06
5.2545e-06
5.24755e-06
5.24921e-06
3.89801e-06
8.94602e-06
3.88699e-06
8.94909e-06
1.46969e-06
3.03096e-06
1.72182e-07
2.9049e-07
1.44729e-06
3.0452e-06
1.73773e-07
1.46967e-06
3.03134e-06
1.72198e-07
2.90538e-07
1.44726e-06
3.04556e-06
1.73773e-07
3.90268e-06
8.95245e-06
8.9495e-06
3.9121e-06
3.90263e-06
8.95242e-06
8.94949e-06
3.91203e-06
1.48132e-06
2.95094e-07
3.06611e-06
1.77179e-07
3.0527e-06
1.75415e-07
1.50268e-06
1.48129e-06
2.9514e-07
3.06655e-06
1.77178e-07
3.05315e-06
1.75431e-07
1.50266e-06
5.24022e-06
5.23876e-06
4.88177e-07
5.24595e-06
5.24443e-06
1.8364e-05
1.83583e-05
1.83502e-05
1.83553e-05
4.96102e-07
5.25439e-06
5.25294e-06
5.24894e-06
5.24743e-06
1.83486e-05
1.83537e-05
1.46978e-06
3.03145e-06
1.72195e-07
2.90403e-07
1.44737e-06
3.0457e-06
1.73761e-07
3.89811e-06
8.94693e-06
3.88713e-06
8.94999e-06
1.46977e-06
1.72205e-07
3.0315e-06
2.90551e-07
1.44733e-06
1.73771e-07
3.04572e-06
3.9025e-06
8.95367e-06
8.95072e-06
3.91251e-06
1.48139e-06
2.95016e-07
3.0666e-06
1.77167e-07
3.0532e-06
1.75428e-07
1.50277e-06
3.90277e-06
8.95332e-06
8.95038e-06
3.91215e-06
1.48136e-06
2.95162e-07
1.77177e-07
3.06668e-06
1.75438e-07
3.05329e-06
1.50276e-06
3.89847e-06
8.94663e-06
3.88684e-06
8.94969e-06
1.46974e-06
1.72188e-07
3.03104e-06
2.90516e-07
1.4473e-06
1.73762e-07
3.04533e-06
3.89839e-06
8.94649e-06
3.88675e-06
8.94956e-06
1.48134e-06
2.94992e-07
3.06617e-06
1.77163e-07
3.05277e-06
1.7542e-07
1.50275e-06
3.90246e-06
8.953e-06
8.95008e-06
3.91248e-06
1.48131e-06
2.9512e-07
1.77168e-07
3.0662e-06
1.75421e-07
3.05291e-06
1.50274e-06
3.90237e-06
8.95285e-06
8.94995e-06
3.91241e-06
5.2404e-06
5.23889e-06
4.88205e-07
5.24625e-06
5.24474e-06
1.83646e-05
1.83591e-05
1.83513e-05
1.83565e-05
4.96117e-07
5.25463e-06
5.2531e-06
5.24926e-06
5.24775e-06
1.83493e-05
1.83544e-05
1.46976e-06
1.72193e-07
3.03146e-06
2.90438e-07
1.44736e-06
1.73765e-07
3.04579e-06
3.89847e-06
8.94689e-06
3.88687e-06
8.94994e-06
3.89846e-06
8.94707e-06
3.88681e-06
8.95016e-06
1.4814e-06
2.95016e-07
1.77173e-07
3.06625e-06
1.75427e-07
3.05286e-06
1.50278e-06
1.48137e-06
2.95058e-07
1.77169e-07
3.06664e-06
1.75425e-07
3.05334e-06
1.50275e-06
3.9025e-06
8.95326e-06
8.95033e-06
3.91248e-06
3.90242e-06
8.95344e-06
8.95054e-06
3.91246e-06
1.83647e-05
1.83593e-05
1.83666e-05
1.83613e-05
4.96194e-07
5.25289e-06
5.25453e-06
5.24764e-06
5.24932e-06
1.83494e-05
1.83546e-05
1.83513e-05
1.83566e-05
1.83437e-05
1.8339e-05
1.83462e-05
1.83415e-05
5.25575e-06
5.25739e-06
5.23824e-07
5.26089e-06
5.26252e-06
1.83301e-05
1.83347e-05
1.83326e-05
1.83372e-05
5.32081e-07
5.26794e-06
5.26957e-06
5.26347e-06
5.26511e-06
3.92431e-06
8.95279e-06
3.91624e-06
8.95557e-06
1.53415e-06
3.07334e-06
1.78994e-07
3.09625e-07
1.51378e-06
3.08596e-06
1.80931e-07
1.53413e-06
3.07373e-06
1.79009e-07
3.09671e-07
1.51375e-06
3.08629e-06
1.80929e-07
3.92819e-06
8.95862e-06
8.95592e-06
3.93511e-06
3.92814e-06
8.95861e-06
8.95591e-06
3.93505e-06
1.54474e-06
3.14672e-07
3.10441e-06
1.85028e-07
3.09261e-06
1.82918e-07
1.56406e-06
1.5447e-06
3.14716e-07
3.10482e-06
1.85025e-07
3.09301e-06
1.82933e-07
1.56404e-06
5.25726e-06
5.25577e-06
5.23842e-07
5.26223e-06
5.26074e-06
1.83442e-05
1.83394e-05
1.83323e-05
1.83367e-05
5.3212e-07
5.26942e-06
5.26795e-06
5.26483e-06
5.26334e-06
1.83307e-05
1.83351e-05
1.53424e-06
3.07382e-06
1.79007e-07
3.09518e-07
1.51385e-06
3.08645e-06
1.80919e-07
3.92442e-06
8.95369e-06
3.91638e-06
8.95646e-06
1.53423e-06
1.79017e-07
3.07389e-06
3.09681e-07
1.51382e-06
1.80929e-07
3.0864e-06
3.92804e-06
8.95985e-06
8.95715e-06
3.93548e-06
1.54481e-06
3.14588e-07
3.10489e-06
1.85015e-07
3.0931e-06
1.82931e-07
1.56414e-06
3.92826e-06
8.95952e-06
8.95679e-06
3.93517e-06
1.54477e-06
3.14743e-07
1.85026e-07
3.105e-06
1.82941e-07
3.09314e-06
1.56414e-06
3.92474e-06
8.95337e-06
3.9161e-06
8.95616e-06
1.53419e-06
1.78999e-07
3.0734e-06
3.09647e-07
1.51379e-06
1.80919e-07
3.08601e-06
3.92466e-06
8.95322e-06
3.91599e-06
8.95604e-06
1.54476e-06
3.14556e-07
3.10446e-06
1.8501e-07
3.09264e-06
1.82923e-07
1.56414e-06
3.928e-06
8.95919e-06
8.9565e-06
3.93547e-06
1.54472e-06
3.14693e-07
1.85016e-07
3.10455e-06
1.82923e-07
3.09278e-06
1.56412e-06
3.9279e-06
8.95906e-06
8.95637e-06
3.9354e-06
5.25749e-06
5.25597e-06
5.2387e-07
5.26245e-06
5.26094e-06
1.83449e-05
1.83401e-05
1.83335e-05
1.83378e-05
5.32132e-07
5.26971e-06
5.2682e-06
5.26507e-06
5.26357e-06
1.83314e-05
1.83358e-05
1.53421e-06
1.79003e-07
3.07381e-06
3.09551e-07
1.51384e-06
1.8092e-07
3.08646e-06
3.92471e-06
8.95363e-06
3.91611e-06
8.9564e-06
3.92471e-06
8.95381e-06
3.91605e-06
8.95664e-06
1.5448e-06
3.14585e-07
1.85022e-07
3.10458e-06
1.82931e-07
3.09272e-06
1.56415e-06
1.54478e-06
3.14629e-07
1.85016e-07
3.10498e-06
1.82926e-07
3.0932e-06
1.56413e-06
3.92801e-06
8.95945e-06
8.95673e-06
3.93544e-06
3.92795e-06
8.95966e-06
8.95697e-06
3.93543e-06
1.83449e-05
1.83402e-05
1.83468e-05
1.83422e-05
5.32203e-07
5.268e-06
5.26965e-06
5.26345e-06
5.26512e-06
1.83315e-05
1.8336e-05
1.83334e-05
1.8338e-05
1.83262e-05
1.83223e-05
1.83287e-05
1.83248e-05
5.27044e-06
5.27208e-06
5.60595e-07
5.27495e-06
5.27657e-06
1.83146e-05
1.83184e-05
1.83172e-05
1.83209e-05
5.69126e-07
5.28119e-06
5.28281e-06
5.27726e-06
5.2789e-06
3.94453e-06
8.95894e-06
3.9385e-06
8.96156e-06
1.59246e-06
3.11083e-06
1.87186e-07
3.30514e-07
1.57411e-06
3.12205e-06
1.89469e-07
1.59243e-06
3.11123e-06
1.87202e-07
3.30564e-07
1.57407e-06
3.12241e-06
1.89466e-07
3.94767e-06
8.96444e-06
8.96188e-06
3.95294e-06
3.94761e-06
8.96442e-06
8.96186e-06
3.95288e-06
1.60201e-06
3.35976e-07
3.13851e-06
1.94253e-07
3.12803e-06
1.91799e-07
1.61937e-06
1.60198e-06
3.36018e-07
3.13888e-06
1.94249e-07
3.12841e-06
1.91814e-07
1.61934e-06
5.27195e-06
5.27045e-06
5.60626e-07
5.27633e-06
5.27486e-06
1.83267e-05
1.83227e-05
1.83167e-05
1.83204e-05
5.69176e-07
5.28259e-06
5.28112e-06
5.27865e-06
5.27717e-06
1.83151e-05
1.83188e-05
1.59255e-06
3.11131e-06
1.87199e-07
3.30385e-07
1.57418e-06
3.12255e-06
1.89457e-07
3.94465e-06
8.95983e-06
3.93862e-06
8.96243e-06
1.59253e-06
1.8721e-07
3.11142e-06
3.30567e-07
1.57415e-06
1.89468e-07
3.12249e-06
3.94762e-06
8.96567e-06
8.96311e-06
3.95314e-06
1.60209e-06
3.3589e-07
3.139e-06
1.94241e-07
3.12852e-06
1.91811e-07
1.61944e-06
3.94771e-06
8.96534e-06
8.96274e-06
3.953e-06
1.60204e-06
3.3605e-07
1.94253e-07
3.13905e-06
1.91823e-07
3.12851e-06
1.61942e-06
3.94486e-06
8.95952e-06
3.93844e-06
8.96214e-06
1.5925e-06
1.87192e-07
3.11095e-06
3.30537e-07
1.57413e-06
1.89457e-07
3.12209e-06
3.94479e-06
8.95938e-06
3.93834e-06
8.962e-06
1.60203e-06
3.35849e-07
3.13853e-06
1.94232e-07
3.12806e-06
1.91805e-07
1.61943e-06
3.94757e-06
8.965e-06
8.96244e-06
3.95316e-06
1.602e-06
3.35992e-07
1.94241e-07
3.13863e-06
1.91805e-07
3.12814e-06
1.61941e-06
3.94746e-06
8.96488e-06
8.9623e-06
3.95309e-06
5.27223e-06
5.27074e-06
5.60648e-07
5.2765e-06
5.27501e-06
1.83274e-05
1.83233e-05
1.8318e-05
1.83215e-05
5.69177e-07
5.28288e-06
5.28139e-06
5.27881e-06
5.27732e-06
1.83159e-05
1.83194e-05
1.59253e-06
1.87195e-07
3.11136e-06
3.30419e-07
1.57418e-06
1.89457e-07
3.12254e-06
3.94484e-06
8.95977e-06
3.93845e-06
8.96237e-06
3.94483e-06
8.95999e-06
3.93839e-06
8.96262e-06
1.60208e-06
3.3588e-07
1.94248e-07
3.13866e-06
1.91813e-07
3.12811e-06
1.61945e-06
1.60206e-06
3.35931e-07
1.94241e-07
3.13906e-06
1.91807e-07
3.12856e-06
1.61942e-06
3.9476e-06
8.96527e-06
8.96268e-06
3.95312e-06
3.94753e-06
8.9655e-06
8.96292e-06
3.95311e-06
1.83274e-05
1.83235e-05
1.83294e-05
1.83254e-05
5.69249e-07
5.28119e-06
5.28283e-06
5.27718e-06
5.27883e-06
1.8316e-05
1.83196e-05
1.83179e-05
1.83216e-05
1.83111e-05
1.83078e-05
1.83135e-05
1.83104e-05
5.28341e-06
5.28504e-06
5.98044e-07
5.28734e-06
5.28896e-06
1.83044e-05
1.83069e-05
6.06765e-07
5.28943e-06
5.29106e-06
3.96027e-06
8.96473e-06
3.95561e-06
8.96728e-06
1.64484e-06
3.14425e-06
1.96755e-07
3.53039e-07
1.62841e-06
3.15425e-06
1.99378e-07
1.64481e-06
3.14463e-06
1.96768e-07
3.53087e-07
1.62837e-06
3.15462e-06
1.99372e-07
3.96278e-06
8.96758e-06
3.9669e-06
3.96272e-06
8.9701e-06
8.96757e-06
3.96685e-06
1.65341e-06
3.58875e-07
2.04838e-07
3.15964e-06
2.02051e-07
1.66893e-06
1.65338e-06
3.58912e-07
3.16938e-06
2.04833e-07
3.16002e-06
2.02061e-07
1.6689e-06
5.28484e-06
5.28332e-06
5.98069e-07
5.28875e-06
5.28728e-06
1.83115e-05
1.83083e-05
1.83036e-05
1.83064e-05
6.0681e-07
5.29435e-06
5.2929e-06
5.29086e-06
5.2894e-06
1.83019e-05
1.83048e-05
1.64491e-06
3.14474e-06
1.96764e-07
3.52884e-07
1.62849e-06
3.15475e-06
1.99365e-07
3.96036e-06
8.96563e-06
3.95574e-06
8.96816e-06
1.64489e-06
1.96777e-07
3.14483e-06
3.53092e-07
1.62845e-06
1.99377e-07
3.15473e-06
3.96282e-06
8.96881e-06
1.65349e-06
3.58795e-07
3.16012e-06
2.02058e-07
3.96283e-06
8.96845e-06
1.65345e-06
3.58961e-07
2.02072e-07
3.16016e-06
3.96051e-06
8.9653e-06
3.95566e-06
8.96786e-06
1.64488e-06
1.96759e-07
3.14436e-06
3.53073e-07
1.62842e-06
1.99366e-07
3.15434e-06
3.96045e-06
8.96519e-06
3.95555e-06
8.96773e-06
1.65344e-06
3.58735e-07
3.16904e-06
2.04815e-07
3.15969e-06
2.02053e-07
1.66901e-06
3.96281e-06
8.97068e-06
8.96815e-06
3.96703e-06
1.65341e-06
3.58894e-07
2.04825e-07
3.16913e-06
2.02053e-07
3.15976e-06
1.66899e-06
3.9627e-06
8.97054e-06
8.96802e-06
3.96696e-06
5.28517e-06
5.28368e-06
5.9811e-07
5.28898e-06
5.2875e-06
1.83123e-05
1.8309e-05
1.83075e-05
6.06835e-07
5.29107e-06
5.28959e-06
1.83055e-05
1.64491e-06
1.96761e-07
3.1448e-06
3.52926e-07
1.62846e-06
1.99366e-07
3.15478e-06
3.96048e-06
8.96557e-06
3.95567e-06
8.9681e-06
3.96047e-06
8.96581e-06
3.95561e-06
8.96836e-06
1.6535e-06
3.58782e-07
2.04835e-07
2.02063e-07
3.15977e-06
1.66902e-06
1.65347e-06
3.58843e-07
2.04828e-07
3.16957e-06
2.02053e-07
3.1602e-06
1.669e-06
3.96282e-06
8.96839e-06
3.96702e-06
3.96277e-06
8.97116e-06
8.96865e-06
3.967e-06
1.83123e-05
1.83092e-05
1.83143e-05
1.83111e-05
6.06908e-07
5.29294e-06
5.29455e-06
5.28941e-06
5.29107e-06
1.83028e-05
1.83057e-05
1.83047e-05
1.83076e-05
1.84373e-05
1.84314e-05
9.72217e-06
2.18633e-05
2.1863e-05
2.18644e-05
2.18643e-05
9.72188e-06
4.02197e-06
2.00838e-06
5.16864e-06
9.06213e-06
2.01729e-06
9.06686e-06
4.01637e-06
4.02907e-06
2.00989e-06
5.1703e-06
9.06702e-06
9.07175e-06
4.02325e-06
2.019e-06
4.03155e-06
9.07372e-06
5.1738e-06
2.03695e-06
2.02819e-06
9.06892e-06
4.0362e-06
4.03844e-06
9.07868e-06
5.17543e-06
2.03868e-06
9.07387e-06
4.04334e-06
2.0297e-06
9.7214e-06
2.18724e-05
2.18722e-05
2.18716e-05
2.18714e-05
9.72164e-06
1.21486e-05
3.81179e-06
1.07121e-05
4.58095e-06
1.07087e-05
4.57558e-06
1.21503e-05
2.23549e-05
7.21363e-06
8.93146e-06
7.21308e-06
2.23558e-05
1.21485e-05
3.80471e-06
1.0704e-05
4.5666e-06
1.07075e-05
4.57236e-06
1.21467e-05
2.23459e-05
7.21169e-06
8.93206e-06
7.21234e-06
2.2345e-05
1.8411e-05
1.84054e-05
1.21489e-05
3.81171e-06
4.5811e-06
1.07124e-05
4.57563e-06
1.0709e-05
1.21506e-05
2.23555e-05
7.21393e-06
8.93266e-06
7.21342e-06
2.23564e-05
1.21487e-05
3.80502e-06
4.56664e-06
1.07043e-05
4.5725e-06
1.07078e-05
1.21469e-05
2.23465e-05
7.21205e-06
8.93326e-06
7.21265e-06
2.23456e-05
1.84122e-05
1.84066e-05
9.7208e-06
2.18264e-05
2.18258e-05
2.1828e-05
2.18276e-05
9.71942e-06
4.07484e-06
2.08341e-06
9.08719e-06
5.19674e-06
4.07037e-06
2.09191e-06
9.09172e-06
4.08194e-06
2.08488e-06
9.0921e-06
5.1984e-06
4.07716e-06
2.09363e-06
9.09665e-06
9.72035e-06
2.18363e-05
2.18359e-05
9.72052e-06
2.18359e-05
2.18353e-05
4.0829e-06
9.09751e-06
5.20107e-06
2.10946e-06
2.1014e-06
9.09351e-06
4.08638e-06
4.08973e-06
9.10248e-06
5.20273e-06
2.11121e-06
2.10288e-06
9.09845e-06
4.09339e-06
1.21543e-05
3.85917e-06
1.0728e-05
4.60954e-06
1.07253e-05
4.60552e-06
1.21555e-05
2.23152e-05
7.20711e-06
8.93997e-06
2.23161e-05
7.20609e-06
1.21545e-05
3.85327e-06
1.07216e-05
4.59886e-06
1.21532e-05
1.07244e-05
4.6032e-06
2.23063e-05
7.20384e-06
8.94046e-06
7.20498e-06
2.23053e-05
1.83869e-05
1.83817e-05
1.21546e-05
3.85899e-06
4.60966e-06
1.07283e-05
4.60556e-06
1.07256e-05
1.21558e-05
2.23158e-05
7.20737e-06
8.94119e-06
2.23167e-05
7.20651e-06
1.21548e-05
3.85368e-06
4.5989e-06
1.07218e-05
1.21535e-05
4.60332e-06
1.07247e-05
2.23069e-05
7.20426e-06
8.94167e-06
7.20524e-06
2.23059e-05
1.83881e-05
1.8383e-05
9.71722e-06
2.17914e-05
2.17907e-05
2.1793e-05
2.17926e-05
9.71478e-06
4.12018e-06
2.1515e-06
9.10978e-06
5.22022e-06
4.11668e-06
2.15937e-06
9.11384e-06
4.12721e-06
2.15293e-06
9.1147e-06
5.22187e-06
4.12348e-06
2.16109e-06
9.11879e-06
9.71731e-06
2.18024e-05
2.1802e-05
9.718e-06
2.18015e-05
2.18009e-05
4.12702e-06
9.11869e-06
5.22391e-06
2.17498e-06
2.16755e-06
9.1153e-06
4.12989e-06
4.13383e-06
9.12368e-06
5.22557e-06
2.17671e-06
2.16901e-06
9.12027e-06
4.13679e-06
1.21569e-05
3.89513e-06
1.07399e-05
4.63051e-06
1.07379e-05
4.62754e-06
1.21577e-05
2.2276e-05
7.19771e-06
8.94743e-06
2.22769e-05
7.19624e-06
1.21574e-05
3.8903e-06
1.07351e-05
4.62266e-06
1.21565e-05
1.07373e-05
4.62587e-06
2.22672e-05
7.19348e-06
8.94783e-06
7.19503e-06
2.22663e-05
1.83651e-05
1.83603e-05
1.21572e-05
3.89496e-06
4.63059e-06
1.07401e-05
4.62761e-06
1.07381e-05
1.2158e-05
2.22765e-05
7.19796e-06
8.94864e-06
2.22775e-05
7.19665e-06
1.21577e-05
3.89071e-06
4.62272e-06
1.07354e-05
1.21568e-05
4.62596e-06
1.07375e-05
2.22678e-05
7.19389e-06
8.94904e-06
7.19529e-06
2.22669e-05
1.83663e-05
1.83615e-05
9.71307e-06
2.17606e-05
2.176e-05
2.17619e-05
2.17615e-05
9.71064e-06
4.1596e-06
2.2129e-06
9.13009e-06
5.24002e-06
4.1566e-06
2.22025e-06
9.13381e-06
4.16656e-06
2.2143e-06
9.13501e-06
5.24166e-06
4.16336e-06
2.22194e-06
9.13877e-06
9.71315e-06
2.17705e-05
2.17701e-05
9.71388e-06
2.17698e-05
2.17692e-05
4.16579e-06
9.13829e-06
5.24324e-06
2.23446e-06
2.22743e-06
9.13512e-06
4.16832e-06
4.17257e-06
9.14328e-06
5.2449e-06
2.23614e-06
2.22885e-06
9.1401e-06
4.17519e-06
1.21569e-05
3.92244e-06
1.07479e-05
4.64577e-06
1.07465e-05
4.64363e-06
1.21575e-05
2.22378e-05
7.18652e-06
8.95407e-06
2.22386e-05
7.1847e-06
1.21577e-05
3.91845e-06
1.07447e-05
4.64006e-06
1.21571e-05
1.07462e-05
4.64239e-06
2.22292e-05
7.18164e-06
8.95441e-06
7.18353e-06
2.22284e-05
1.83456e-05
1.83412e-05
1.21572e-05
3.92228e-06
4.64584e-06
1.07482e-05
4.6437e-06
1.07468e-05
1.21577e-05
2.22383e-05
7.18678e-06
8.95529e-06
2.22392e-05
7.18512e-06
1.2158e-05
3.91884e-06
4.64014e-06
1.07449e-05
1.21574e-05
4.64247e-06
1.07465e-05
2.22298e-05
7.18206e-06
8.95563e-06
7.1838e-06
2.2229e-05
1.83467e-05
1.83423e-05
9.70748e-06
2.17326e-05
2.1732e-05
2.17334e-05
2.17329e-05
9.70579e-06
4.19372e-06
2.26832e-06
9.14841e-06
5.25684e-06
4.19108e-06
2.27518e-06
9.15181e-06
4.20061e-06
2.2697e-06
9.15333e-06
5.25849e-06
4.19783e-06
2.27682e-06
9.15674e-06
9.70729e-06
2.17401e-05
2.17397e-05
9.70797e-06
2.17399e-05
2.17394e-05
4.1995e-06
9.15623e-06
5.25963e-06
2.28818e-06
2.28152e-06
9.15309e-06
4.20183e-06
4.20622e-06
9.1612e-06
5.26129e-06
2.28982e-06
2.28291e-06
9.15804e-06
4.20865e-06
1.2155e-05
3.94326e-06
1.07528e-05
4.65682e-06
1.07519e-05
4.6553e-06
1.21553e-05
2.22012e-05
7.17437e-06
8.96013e-06
2.22019e-05
7.17228e-06
1.2156e-05
3.94e-06
1.07508e-05
4.65271e-06
1.21556e-05
1.07518e-05
4.65437e-06
2.2193e-05
7.16911e-06
8.96045e-06
7.17126e-06
2.21923e-05
1.83282e-05
1.83243e-05
1.21552e-05
3.94317e-06
4.6569e-06
1.0753e-05
4.65537e-06
1.07521e-05
1.21555e-05
2.22018e-05
7.17464e-06
8.96136e-06
2.22025e-05
7.17271e-06
1.21562e-05
3.94032e-06
4.65279e-06
1.0751e-05
1.21559e-05
4.65445e-06
1.07521e-05
2.21936e-05
7.16954e-06
8.96167e-06
7.17152e-06
2.21929e-05
1.83294e-05
1.83254e-05
9.70142e-06
2.17067e-05
2.17061e-05
2.17069e-05
2.17065e-05
9.69996e-06
4.22407e-06
2.31872e-06
9.16569e-06
5.27143e-06
4.22184e-06
2.32508e-06
9.16877e-06
4.23085e-06
2.32007e-06
9.17061e-06
5.27307e-06
4.22855e-06
2.32668e-06
9.17369e-06
9.70125e-06
2.17128e-05
2.17124e-05
9.70223e-06
2.17128e-05
2.17122e-05
4.22923e-06
9.173e-06
5.27387e-06
2.33689e-06
2.33069e-06
9.16997e-06
4.23133e-06
4.23593e-06
9.17793e-06
5.27552e-06
2.3385e-06
2.33203e-06
9.1749e-06
4.23812e-06
1.21517e-05
3.95934e-06
1.07552e-05
4.66487e-06
1.07546e-05
4.66378e-06
1.21518e-05
2.21666e-05
7.16186e-06
8.96589e-06
2.21672e-05
7.15962e-06
1.21528e-05
3.95674e-06
1.07541e-05
4.6619e-06
1.21526e-05
1.07548e-05
4.66308e-06
2.21589e-05
7.15647e-06
8.96618e-06
7.15871e-06
2.21584e-05
1.83133e-05
1.83097e-05
1.21519e-05
3.95936e-06
4.66493e-06
1.07554e-05
4.66384e-06
1.07548e-05
1.21521e-05
2.21672e-05
7.16214e-06
8.96712e-06
2.21678e-05
7.16004e-06
1.2153e-05
3.95691e-06
4.66197e-06
1.07543e-05
1.21529e-05
4.66315e-06
1.0755e-05
2.21595e-05
7.15689e-06
8.96741e-06
7.15901e-06
2.2159e-05
1.83145e-05
1.83109e-05
9.6962e-06
2.16839e-05
2.16832e-05
2.1684e-05
2.16835e-05
9.69472e-06
4.25149e-06
2.36469e-06
9.18217e-06
5.28426e-06
4.24954e-06
2.37055e-06
9.18511e-06
4.25822e-06
2.36596e-06
9.18708e-06
5.2859e-06
4.2562e-06
2.37217e-06
9.19002e-06
9.69607e-06
2.16894e-05
2.1689e-05
9.69719e-06
2.16894e-05
2.16889e-05
4.25612e-06
9.18914e-06
5.28647e-06
2.3813e-06
2.37562e-06
9.18625e-06
4.25798e-06
4.26278e-06
9.19404e-06
5.28812e-06
2.38296e-06
2.37687e-06
9.19116e-06
4.2647e-06
9.72082e-06
2.18612e-05
2.18615e-05
2.18618e-05
2.18622e-05
9.72063e-06
4.02822e-06
2.01011e-06
5.17007e-06
9.06729e-06
9.07157e-06
4.02305e-06
2.01894e-06
4.02157e-06
2.00851e-06
5.16869e-06
9.06281e-06
2.01746e-06
9.0671e-06
4.01606e-06
4.03659e-06
9.07779e-06
5.17523e-06
2.03806e-06
9.07334e-06
4.0426e-06
2.02906e-06
4.0295e-06
9.07321e-06
5.17376e-06
2.0365e-06
2.0274e-06
9.06885e-06
4.03585e-06
9.72065e-06
2.18724e-05
2.18728e-05
2.18705e-05
2.18708e-05
9.72164e-06
1.84359e-05
1.84299e-05
1.84181e-05
1.84238e-05
9.72158e-06
2.18547e-05
2.18551e-05
9.72169e-06
2.18537e-05
2.1854e-05
4.06447e-06
2.07567e-06
5.18949e-06
9.09057e-06
9.08648e-06
4.06883e-06
2.06708e-06
4.05748e-06
2.07421e-06
5.18804e-06
9.08612e-06
9.08196e-06
2.06549e-06
4.06222e-06
4.05691e-06
9.07984e-06
2.04826e-06
5.18478e-06
4.05137e-06
9.08465e-06
2.05737e-06
4.05024e-06
9.07525e-06
2.04658e-06
5.18328e-06
4.04428e-06
9.08008e-06
2.05586e-06
9.72161e-06
2.18428e-05
2.18431e-05
2.1845e-05
2.18454e-05
9.71988e-06
1.84167e-05
1.84223e-05
1.21396e-05
4.54208e-06
1.06929e-05
3.75011e-06
4.5357e-06
1.06891e-05
1.21418e-05
2.23946e-05
8.92234e-06
7.21599e-06
7.21573e-06
2.23952e-05
2.23853e-05
7.21555e-06
8.92302e-06
7.21597e-06
2.23847e-05
1.21392e-05
3.74169e-06
4.52375e-06
1.06838e-05
4.53059e-06
1.06877e-05
1.21368e-05
1.21398e-05
1.06926e-05
4.54229e-06
3.75001e-06
1.06888e-05
4.53524e-06
1.2142e-05
2.23954e-05