/*--------------------------------*- C++ -*----------------------------------*\
| =========                 |                                                 |
| \\      /  F ield         | OpenFOAM: The Open Source CFD Toolbox           |
|  \\    /   O peration     | Version:  v2006                                 |
|   \\  /    A nd           | Website:  www.openfoam.com                      |
|    \\/     M anipulation  |                                                 |
\*---------------------------------------------------------------------------*/
FoamFile
{
    version     2.0;
    format      ascii;
    class       volScalarField;
    location    "375";
    object      nut;
}
// * * * * * * * * * * * * * * * * * * * * * * * * * * * * * * * * * * * * * //

dimensions      [0 2 -1 0 0 0 0];


internalField   nonuniform List<scalar> 
171728
(
9.88896e-05
8.20965e-05
0.000142047
9.65806e-05
9.65786e-05
8.21486e-05
0.000138123
9.47909e-05
9.47861e-05
8.26862e-05
0.000134297
9.35166e-05
9.35145e-05
8.36586e-05
0.000130631
9.2748e-05
9.27486e-05
8.50239e-05
0.000127158
9.2462e-05
9.24666e-05
8.66967e-05
0.000123902
9.26377e-05
9.26378e-05
8.86339e-05
8.20976e-05
8.22045e-05
9.88606e-05
9.71057e-05
9.7077e-05
8.22018e-05
8.21556e-05
8.265e-05
9.65541e-05
9.65425e-05
9.51601e-05
9.5149e-05
8.2152e-05
8.26441e-05
9.65723e-05
9.65411e-05
9.51844e-05
9.51505e-05
9.65504e-05
9.51862e-05
9.51567e-05
8.21481e-05
8.26473e-05
9.65707e-05
9.51853e-05
9.51818e-05
8.26432e-05
8.2693e-05
8.35372e-05
9.47678e-05
9.47546e-05
9.37603e-05
9.37482e-05
8.26915e-05
8.35324e-05
9.47862e-05
9.47508e-05
9.37855e-05
9.37488e-05
9.47639e-05
9.37831e-05
9.37547e-05
8.26892e-05
8.35346e-05
9.4783e-05
9.37828e-05
9.37796e-05
8.35329e-05
8.36647e-05
8.48163e-05
9.34936e-05
9.34826e-05
9.28643e-05
9.28548e-05
8.36642e-05
8.48124e-05
9.35116e-05
9.34801e-05
9.28898e-05
9.286e-05
9.34893e-05
9.28882e-05
9.28674e-05
8.36631e-05
8.48139e-05
9.35071e-05
9.28924e-05
9.2892e-05
8.48184e-05
8.50174e-05
8.64323e-05
9.27247e-05
9.27159e-05
9.24652e-05
9.24542e-05
8.50166e-05
8.64247e-05
9.27415e-05
9.27156e-05
9.24904e-05
9.24609e-05
9.27251e-05
9.24855e-05
9.24662e-05
8.50192e-05
8.64237e-05
9.27412e-05
9.24919e-05
9.24901e-05
8.64259e-05
8.66971e-05
8.8318e-05
9.24436e-05
9.24323e-05
9.25292e-05
9.25194e-05
8.66916e-05
8.83152e-05
9.24589e-05
9.2435e-05
9.25542e-05
9.25215e-05
9.24461e-05
9.25492e-05
9.25257e-05
8.66931e-05
8.831e-05
9.246e-05
9.25509e-05
9.25487e-05
8.83104e-05
8.86383e-05
9.26182e-05
9.26098e-05
9.30141e-05
8.86354e-05
9.04248e-05
9.26318e-05
9.26079e-05
9.26171e-05
9.30421e-05
9.30285e-05
8.86307e-05
9.26292e-05
9.30508e-05
9.04271e-05
2.36157e-05
2.36124e-05
7.00601e-05
6.76742e-05
0.000122223
9.82605e-05
6.8367e-05
0.000121257
6.90264e-05
6.2029e-05
6.20278e-05
8.20585e-05
6.2431e-05
6.24289e-05
7.38101e-05
4.95938e-05
7.3054e-05
4.96012e-05
2.36044e-05
2.36014e-05
7.38028e-05
4.95894e-05
7.30551e-05
4.95968e-05
0.000186672
0.0001664
0.000186668
0.000139071
0.000139068
0.000139066
0.000139065
7.3075e-05
6.94666e-05
0.000118523
9.60787e-05
7.19839e-05
7.01427e-05
0.000117621
2.36031e-05
2.36001e-05
7.30634e-05
0.000118524
7.33256e-05
9.60794e-05
7.42497e-05
0.000117622
7.01442e-05
6.29026e-05
6.29005e-05
8.23594e-05
6.32752e-05
6.32731e-05
7.53475e-05
4.961e-05
7.46765e-05
4.96164e-05
2.35941e-05
2.35913e-05
7.53399e-05
4.96056e-05
7.4681e-05
4.9612e-05
0.000138118
0.00013811
0.000138114
0.000135239
0.00013522
0.000135226
0.000135227
7.60781e-05
7.11578e-05
0.000115123
9.44183e-05
7.49534e-05
7.18173e-05
0.000114319
2.35927e-05
2.359e-05
7.60679e-05
0.000115123
7.11573e-05
9.44212e-05
7.49625e-05
0.000114319
7.18176e-05
6.37085e-05
6.37057e-05
8.30347e-05
6.40539e-05
6.40518e-05
7.67118e-05
4.96241e-05
7.61132e-05
4.96297e-05
2.35846e-05
2.35822e-05
7.67041e-05
4.96197e-05
7.61177e-05
4.96253e-05
0.000134302
0.000134288
0.000134289
0.000131528
0.00013151
0.000131522
0.000131521
7.90207e-05
7.27511e-05
0.000112029
9.32751e-05
7.78777e-05
7.33959e-05
0.000111317
2.35833e-05
2.35809e-05
7.9011e-05
0.00011203
7.27517e-05
9.32767e-05
7.78867e-05
0.000111318
7.33939e-05
6.44527e-05
6.44495e-05
8.41204e-05
6.47743e-05
6.47719e-05
7.79363e-05
4.96365e-05
7.73968e-05
4.96417e-05
2.35762e-05
2.35741e-05
7.7929e-05
4.96321e-05
7.74009e-05
4.96373e-05
0.000130644
0.000130625
0.000130627
0.000128
0.000127978
0.000127997
0.000127995
8.18688e-05
7.42518e-05
0.000109321
9.26297e-05
8.07231e-05
7.48844e-05
0.000108707
2.35748e-05
2.35728e-05
8.18624e-05
0.000109323
7.42555e-05
9.26317e-05
8.07308e-05
0.000108708
7.48807e-05
6.51456e-05
6.51424e-05
8.55795e-05
6.54412e-05
6.54382e-05
7.90465e-05
4.96479e-05
7.8557e-05
4.96527e-05
2.35687e-05
2.3567e-05
7.9041e-05
4.96435e-05
7.85599e-05
4.96484e-05
0.00012717
0.000127148
0.000127153
0.000124687
0.000124657
0.000124681
0.000124678
8.46076e-05
7.56685e-05
0.000107017
9.24621e-05
8.34676e-05
7.6288e-05
0.000106508
2.35673e-05
2.35656e-05
8.46028e-05
0.000107019
7.56737e-05
9.24657e-05
8.34725e-05
0.000106509
7.62846e-05
6.57916e-05
6.57883e-05
8.73352e-05
6.60657e-05
6.60621e-05
8.00643e-05
4.96586e-05
7.96172e-05
4.96633e-05
2.35622e-05
2.35608e-05
8.00609e-05
4.96542e-05
7.96173e-05
4.96589e-05
0.000123926
0.000123894
0.000123896
0.000121597
0.000121631
8.72275e-05
7.70104e-05
0.000105141
9.27456e-05
8.61002e-05
7.76121e-05
0.000104741
2.35608e-05
2.35595e-05
8.72242e-05
0.000105143
7.70143e-05
9.27512e-05
8.61036e-05
0.000104742
7.7611e-05
6.63937e-05
6.639e-05
8.93382e-05
6.66533e-05
6.66492e-05
6.20249e-05
6.20283e-05
8.20663e-05
6.24323e-05
6.24379e-05
2.36166e-05
2.36133e-05
2.36068e-05
2.36099e-05
8.21717e-05
6.28632e-05
6.28684e-05
6.24711e-05
6.24752e-05
2.36077e-05
2.36108e-05
7.20557e-05
4.95728e-05
4.9581e-05
7.12004e-05
7.00629e-05
0.000122219
6.76711e-05
9.82308e-05
0.000121253
6.83641e-05
6.90223e-05
7.20538e-05
4.95695e-05
4.95778e-05
7.11991e-05
7.05005e-05
9.7671e-05
6.92739e-05
0.000119404
6.85774e-05
0.000120339
7.15649e-05
7.21605e-05
4.95901e-05
4.95822e-05
7.29579e-05
7.04954e-05
9.76421e-05
0.0001194
6.92619e-05
0.000120335
6.85833e-05
7.15679e-05
7.21588e-05
4.95868e-05
4.95791e-05
7.29559e-05
2.36157e-05
2.36124e-05
2.36146e-05
2.36113e-05
8.21635e-05
6.28645e-05
6.28625e-05
6.24727e-05
6.24706e-05
2.36067e-05
2.36099e-05
2.36057e-05
2.36088e-05
2.36059e-05
2.36029e-05
2.3604e-05
2.3601e-05
6.291e-05
6.29058e-05
8.23694e-05
6.32795e-05
6.32751e-05
2.35978e-05
2.36006e-05
2.35959e-05
2.35987e-05
8.23657e-05
6.36778e-05
6.36731e-05
6.33188e-05
6.33144e-05
7.3808e-05
4.95901e-05
7.30511e-05
4.95973e-05
7.30619e-05
7.3327e-05
0.000118523
9.60561e-05
7.4253e-05
7.015e-05
0.00011761
7.30648e-05
7.333e-05
0.000118513
9.60413e-05
7.42493e-05
7.01421e-05
0.000117609
7.38907e-05
4.9609e-05
4.96022e-05
7.46013e-05
7.38879e-05
4.96052e-05
4.95984e-05
7.4599e-05
7.34843e-05
9.55948e-05
7.09988e-05
0.000115904
7.03217e-05
0.000116782
7.45681e-05
7.34773e-05
9.55806e-05
7.09934e-05
0.000115903
7.03171e-05
0.00011677
7.45714e-05
6.29037e-05
6.29102e-05
8.23693e-05
6.32716e-05
6.32743e-05
2.36053e-05
2.36022e-05
2.35963e-05
2.35991e-05
8.23609e-05
6.36731e-05
6.368e-05
6.33098e-05
6.33118e-05
2.35972e-05
2.35999e-05
7.30659e-05
7.33274e-05
0.000118517
9.60798e-05
7.42495e-05
7.01446e-05
0.000117621
7.38073e-05
4.9586e-05
7.30465e-05
4.95933e-05
7.3069e-05
0.000118509
7.22292e-05
9.60436e-05
7.42478e-05
0.000117612
7.01402e-05
7.38949e-05
4.96046e-05
4.95978e-05
7.45945e-05
7.34781e-05
9.56133e-05
7.09933e-05
0.000115915
7.03201e-05
0.000116776
7.45724e-05
7.38864e-05
4.96011e-05
4.95943e-05
7.45989e-05
7.34722e-05
9.55811e-05
0.000115907
7.09866e-05
0.000116768
7.03194e-05
7.4575e-05
7.38037e-05
4.95912e-05
7.30558e-05
4.95984e-05
7.30779e-05
0.00011852
6.94624e-05
9.60498e-05
7.19782e-05
0.000117617
7.01397e-05
7.38018e-05
4.95879e-05
7.3054e-05
4.95953e-05
7.34702e-05
9.56176e-05
7.09965e-05
0.000115916
7.03199e-05
0.000116782
7.45817e-05
7.38957e-05
4.96063e-05
4.95995e-05
7.45957e-05
7.34649e-05
9.55918e-05
0.000115912
7.09867e-05
0.000116779
7.03232e-05
7.45843e-05
7.38942e-05
4.96031e-05
4.95963e-05
7.45938e-05
6.29019e-05
6.29092e-05
8.23674e-05
6.32739e-05
6.32811e-05
2.36049e-05
2.36018e-05
2.35949e-05
2.35977e-05
8.2365e-05
6.36683e-05
6.36756e-05
6.33125e-05
6.33197e-05
2.35967e-05
2.35995e-05
7.3065e-05
0.000118522
7.33244e-05
9.60755e-05
7.42486e-05
0.00011762
7.01428e-05
7.38029e-05
4.95902e-05
7.30557e-05
4.95975e-05
7.38e-05
4.95862e-05
7.30541e-05
4.95936e-05
7.3481e-05
9.56176e-05
0.000115916
7.09912e-05
0.000116782
7.03247e-05
7.45697e-05
7.34754e-05
9.56119e-05
0.000115915
7.09886e-05
0.00011678
7.03196e-05
7.45713e-05
7.3895e-05
4.96053e-05
4.95985e-05
7.45947e-05
7.38933e-05
4.96013e-05
4.95946e-05
7.4592e-05
2.36043e-05
2.36013e-05
2.36032e-05
2.36003e-05
8.23563e-05
6.3671e-05
6.36685e-05
6.33152e-05
6.33133e-05
2.35962e-05
2.3599e-05
2.35951e-05
2.3598e-05
2.35956e-05
2.35929e-05
2.35937e-05
2.3591e-05
6.3716e-05
6.37114e-05
8.30432e-05
6.40594e-05
6.40547e-05
2.35882e-05
2.35907e-05
2.35863e-05
2.35888e-05
8.31336e-05
6.44222e-05
6.44173e-05
6.40961e-05
6.40915e-05
7.53452e-05
4.96062e-05
7.46736e-05
4.96126e-05
7.60664e-05
7.11556e-05
0.000115122
9.43965e-05
7.49646e-05
7.18241e-05
0.000114307
7.60691e-05
7.1153e-05
0.000115111
9.43822e-05
7.49578e-05
7.18156e-05
0.000114306
7.54173e-05
4.96232e-05
4.96172e-05
7.60483e-05
7.54144e-05
4.96195e-05
4.96135e-05
7.60461e-05
7.64359e-05
9.40638e-05
7.26212e-05
0.000112755
7.19644e-05
0.000113523
7.75477e-05
7.64289e-05
9.40537e-05
7.26165e-05
0.000112753
7.19582e-05
0.000113513
7.75502e-05
6.37113e-05
6.37189e-05
8.30416e-05
6.40487e-05
6.40515e-05
2.35949e-05
2.35922e-05
2.35867e-05
2.35892e-05
8.31264e-05
6.44182e-05
6.44246e-05
6.40857e-05
6.40881e-05
2.35876e-05
2.359e-05
7.60694e-05
7.11536e-05
0.000115117
9.44214e-05
7.49592e-05
7.18189e-05
0.000114318
7.53442e-05
4.96021e-05
7.46723e-05
4.96085e-05
7.60713e-05
0.000115109
7.11517e-05
9.43866e-05
7.49535e-05
0.000114309
7.18123e-05
7.54211e-05
4.96189e-05
4.96128e-05
7.60416e-05
7.643e-05
9.40822e-05
7.26161e-05
0.000112765
7.19621e-05
0.000113518
7.75514e-05
7.54126e-05
4.96154e-05
4.96093e-05
7.60457e-05
7.64247e-05
9.40522e-05
0.000112757
7.26101e-05
0.000113511
7.1961e-05
7.75526e-05
7.53412e-05
4.96072e-05
7.46823e-05
4.96136e-05
7.60807e-05
0.00011512
7.11538e-05
9.43956e-05
7.49479e-05
0.000114315
7.18132e-05
7.53393e-05
4.96041e-05
7.46806e-05
4.96105e-05
7.64228e-05
9.40885e-05
7.26195e-05
0.000112766
7.19621e-05
0.000113524
7.75587e-05
7.54219e-05
4.96205e-05
4.96145e-05
7.60416e-05
7.64178e-05
9.40622e-05
0.000112762
7.26103e-05
0.000113521
7.19648e-05
7.7561e-05
7.54205e-05
4.96174e-05
4.96113e-05
7.60399e-05
6.37065e-05
6.37139e-05
8.3038e-05
6.40519e-05
6.40595e-05
2.35945e-05
2.35918e-05
2.35853e-05
2.35879e-05
8.31282e-05
6.44141e-05
6.44218e-05
6.40889e-05
6.40966e-05
2.35871e-05
2.35896e-05
7.60691e-05
0.000115122
7.11492e-05
9.44206e-05
7.4957e-05
0.000114319
7.18158e-05
7.53409e-05
4.96063e-05
7.46814e-05
4.96127e-05
7.53379e-05
4.96023e-05
7.46797e-05
4.96088e-05
7.64331e-05
9.40873e-05
0.000112766
7.26159e-05
0.000113525
7.1967e-05
7.7549e-05
7.64275e-05
9.40808e-05
0.000112766
7.26119e-05
0.000113523
7.19614e-05
7.75503e-05
7.54218e-05
4.96195e-05
4.96135e-05
7.60411e-05
7.542e-05
4.96156e-05
4.96096e-05
7.60383e-05
2.35939e-05
2.35913e-05
2.35929e-05
2.35903e-05
8.31267e-05
6.44164e-05
6.44135e-05
6.40914e-05
6.40896e-05
2.35866e-05
2.35891e-05
2.35855e-05
2.35881e-05
2.35862e-05
2.35838e-05
2.35843e-05
2.35819e-05
6.44593e-05
6.44545e-05
8.41323e-05
6.47817e-05
6.47767e-05
2.35796e-05
2.35818e-05
2.35777e-05
2.35799e-05
8.43068e-05
6.51132e-05
6.51083e-05
6.48167e-05
6.48118e-05
7.67094e-05
4.96203e-05
7.61104e-05
4.96259e-05
7.90102e-05
7.27486e-05
0.000112027
9.32519e-05
7.78882e-05
7.34024e-05
0.000111305
7.9012e-05
7.27459e-05
0.000112017
9.32408e-05
7.78815e-05
7.33932e-05
0.000111304
7.67728e-05
4.96358e-05
4.96304e-05
7.73401e-05
7.67698e-05
4.96321e-05
4.96267e-05
7.73378e-05
7.93229e-05
9.30481e-05
7.41507e-05
0.000109951
7.35136e-05
0.000110626
8.04489e-05
7.9316e-05
9.30365e-05
7.41461e-05
0.000109949
7.3506e-05
0.000110616
8.04505e-05
6.4455e-05
6.44618e-05
8.41304e-05
6.47705e-05
6.47743e-05
2.35855e-05
2.35831e-05
2.35781e-05
2.35803e-05
8.43004e-05
6.51087e-05
6.51144e-05
6.48055e-05
6.48092e-05
2.35789e-05
2.35811e-05
7.90123e-05
7.27457e-05
0.000112024
9.32771e-05
7.78837e-05
7.33976e-05
0.000111315
7.67083e-05
4.96162e-05
7.61092e-05
4.96218e-05
7.90129e-05
0.000112016
7.27459e-05
9.32435e-05
7.78788e-05
0.000111308
7.33875e-05
7.67762e-05
4.96314e-05
4.9626e-05
7.73332e-05
7.93182e-05
9.30655e-05
7.41465e-05
0.000109961
7.35102e-05
0.000110622
8.0451e-05
7.67678e-05
4.9628e-05
4.96226e-05
7.73371e-05
7.93134e-05
9.30348e-05
0.000109954
7.41403e-05
0.000110614
7.35088e-05
8.04511e-05
7.67066e-05
4.96213e-05
7.61183e-05
4.96269e-05
7.90222e-05
0.000112027
7.27458e-05
9.32487e-05
7.78727e-05
0.000111313
7.33909e-05
7.67046e-05
4.96182e-05
7.61169e-05
4.96239e-05
7.93122e-05
9.30698e-05
7.41492e-05
0.000109962
7.35114e-05
0.000110627
8.04585e-05
7.67781e-05
4.9633e-05
4.96276e-05
7.73333e-05
7.93071e-05
9.30499e-05
0.000109959
7.41434e-05
0.000110626
7.35128e-05
8.04604e-05
7.67765e-05
4.96299e-05
4.96246e-05
7.73316e-05
6.4451e-05
6.44586e-05
8.41289e-05
6.47714e-05
6.47794e-05
2.3585e-05
2.35827e-05
2.35767e-05
2.35789e-05
8.43014e-05
6.51078e-05
6.51159e-05
6.48065e-05
6.48146e-05
2.35785e-05
2.35807e-05
7.90119e-05
0.00011203
7.27415e-05
9.32735e-05
7.78813e-05
0.000111317
7.33927e-05
7.67054e-05
4.96203e-05
7.61175e-05
4.9626e-05
7.67025e-05
4.96164e-05
7.61158e-05
4.96222e-05
7.93203e-05
9.30685e-05
0.000109963
7.41473e-05
0.000110628
7.35148e-05
8.04496e-05
7.93149e-05
9.30668e-05
0.000109964
7.41445e-05
0.000110629
7.35095e-05
8.04507e-05
7.6777e-05
4.96321e-05
4.96267e-05
7.73331e-05
7.67754e-05
4.96282e-05
4.96229e-05
7.73306e-05
2.35845e-05
2.35822e-05
2.35835e-05
2.35812e-05
8.42961e-05
6.51115e-05
6.51085e-05
6.48104e-05
6.48083e-05
2.3578e-05
2.35802e-05
2.35769e-05
2.35792e-05
2.35777e-05
2.35757e-05
2.35758e-05
2.35738e-05
6.51484e-05
6.51434e-05
8.55822e-05
6.54522e-05
6.54469e-05
2.35719e-05
2.35739e-05
2.357e-05
2.35719e-05
8.58296e-05
6.57602e-05
6.57551e-05
6.54861e-05
6.54809e-05
7.79338e-05
4.96328e-05
7.73941e-05
4.96379e-05
8.18612e-05
7.42497e-05
0.000109319
9.261e-05
8.07316e-05
7.489e-05
0.000108696
8.1862e-05
7.42459e-05
0.00010931
9.25973e-05
8.07253e-05
7.48812e-05
0.000108694
7.79905e-05
4.96472e-05
4.96423e-05
7.85057e-05
7.79876e-05
4.96435e-05
4.96385e-05
7.8503e-05
8.21169e-05
9.25277e-05
7.55958e-05
0.000107543
7.49748e-05
0.000108116
8.32471e-05
8.21104e-05
9.25165e-05
7.55892e-05
0.000107541
7.49664e-05
0.000108106
8.32474e-05
6.5144e-05
6.51498e-05
8.55791e-05
6.54415e-05
6.54461e-05
2.3577e-05
2.3575e-05
2.35704e-05
2.35723e-05
8.58221e-05
6.57534e-05
6.57589e-05
6.5475e-05
6.54796e-05
2.35712e-05
2.35731e-05
8.1862e-05
7.42455e-05
0.000109316
9.26355e-05
8.07279e-05
7.48858e-05
0.000108706
7.79325e-05
4.96287e-05
7.73926e-05
4.96338e-05
8.18612e-05
0.00010931
7.42494e-05
9.25998e-05
8.07241e-05
0.000108698
7.48728e-05
7.79935e-05
4.96429e-05
4.96379e-05
7.84992e-05
8.21136e-05
9.25437e-05
7.55916e-05
0.000107552
7.49704e-05
0.000108113
8.32471e-05
7.79855e-05
4.96394e-05
4.96344e-05
7.85017e-05
8.21097e-05
9.25143e-05
0.000107547
7.55834e-05
0.000108106
7.4968e-05
8.32455e-05
7.79308e-05
4.96337e-05
7.74013e-05
4.96389e-05
8.18697e-05
0.00010932
7.42484e-05
9.26061e-05
8.07188e-05
0.000108704
7.48773e-05
7.79289e-05
4.96306e-05
7.74001e-05
4.96358e-05
8.2107e-05
9.25473e-05
7.55929e-05
0.000107554
7.49725e-05
0.000108117
8.32543e-05
7.79947e-05
4.96445e-05
4.96395e-05
7.85001e-05
8.21024e-05
9.25269e-05
0.000107552
7.55893e-05
0.000108116
7.49694e-05
8.32549e-05
7.79933e-05
4.96414e-05
4.96365e-05
7.84981e-05
6.51433e-05
6.51514e-05
8.55848e-05
6.54394e-05
6.5448e-05
2.35766e-05
2.35745e-05
2.3569e-05
2.35709e-05
8.58266e-05
6.57541e-05
6.57626e-05
6.54725e-05
6.54811e-05
2.35708e-05
2.35727e-05
8.18625e-05
0.000109324
7.42445e-05
9.26305e-05
8.07258e-05
0.00010871
7.48781e-05
7.79311e-05
4.96328e-05
7.74011e-05
4.96379e-05
7.7928e-05
4.96289e-05
7.73994e-05
4.96341e-05
8.21151e-05
9.25466e-05
0.000107556
7.55919e-05
0.000108119
7.49742e-05
8.32463e-05
8.21098e-05
9.2542e-05
0.000107558
7.5589e-05
0.000108121
7.49663e-05
8.32464e-05
7.79947e-05
4.96435e-05
4.96385e-05
7.84993e-05
7.79927e-05
4.96397e-05
4.96347e-05
7.84964e-05
2.3576e-05
2.3574e-05
2.3575e-05
2.3573e-05
8.582e-05
6.57591e-05
6.57558e-05
6.54757e-05
6.54729e-05
2.35703e-05
2.35722e-05
2.35693e-05
2.35712e-05
2.35702e-05
2.35685e-05
2.35683e-05
2.35666e-05
6.5793e-05
6.57878e-05
8.73359e-05
6.6075e-05
6.60696e-05
2.35652e-05
2.35669e-05
2.35633e-05
2.3565e-05
8.76405e-05
6.63671e-05
6.63617e-05
6.61077e-05
6.61023e-05
7.90437e-05
4.96441e-05
7.85543e-05
4.9649e-05
8.46012e-05
7.5668e-05
0.000107015
9.24411e-05
8.34743e-05
7.62912e-05
0.000106496
8.46009e-05
7.56627e-05
0.000107005
9.24316e-05
8.34684e-05
7.62835e-05
0.000106495
7.90977e-05
4.9658e-05
4.96533e-05
7.95666e-05
7.90948e-05
4.96543e-05
4.96495e-05
7.95639e-05
8.48031e-05
9.24768e-05
7.69596e-05
0.000105559
7.63535e-05
0.000106021
8.59288e-05
8.47975e-05
9.24665e-05
7.69513e-05
0.000105557
7.63465e-05
0.000106012
8.59279e-05
6.57866e-05
6.5792e-05
8.73325e-05
6.60663e-05
6.60713e-05
2.35695e-05
2.35678e-05
2.35637e-05
2.35653e-05
8.76364e-05
6.63582e-05
6.63641e-05
6.60986e-05
6.61038e-05
2.35646e-05
2.35662e-05
8.46e-05
7.56634e-05
0.000107013
9.24663e-05
8.34717e-05
7.62872e-05
0.000106506
7.90418e-05
4.964e-05
7.8553e-05
4.96448e-05
8.45974e-05
0.000107007
7.56679e-05
9.24354e-05
8.34688e-05
0.000106499
7.62749e-05
7.90986e-05
4.96536e-05
4.96489e-05
7.95632e-05
8.48014e-05
9.24913e-05
7.69554e-05
0.000105568
7.63488e-05
0.00010602
8.59274e-05
7.9093e-05
4.96502e-05
4.96454e-05
7.95622e-05
8.47991e-05
9.24626e-05
0.000105562
7.69447e-05
0.000106013
7.63472e-05
8.59235e-05
7.90431e-05
4.96451e-05
7.85611e-05
4.96499e-05
8.46078e-05
0.000107017
7.56669e-05
9.24403e-05
8.34639e-05
0.000106506
7.62812e-05
7.90412e-05
4.9642e-05
7.85598e-05
4.96468e-05
8.47965e-05
9.24956e-05
7.69561e-05
0.00010557
7.63529e-05
0.000106024
8.5933e-05
7.91004e-05
4.96552e-05
4.96505e-05
7.95633e-05
8.4793e-05
9.24748e-05
0.000105567
7.6952e-05
0.000106023
7.63471e-05
8.59318e-05
7.90992e-05
4.96522e-05
4.96474e-05
7.95609e-05
6.5788e-05
6.57964e-05
8.73417e-05
6.60639e-05
6.60728e-05
2.35691e-05
2.35673e-05
2.35624e-05
2.35639e-05
8.76435e-05
6.63577e-05
6.63665e-05
6.60952e-05
6.6104e-05
2.35642e-05
2.35657e-05
8.46026e-05
0.000107021
7.56639e-05
9.24638e-05
8.34679e-05
0.000106511
7.62804e-05
7.90436e-05
4.96441e-05
7.85597e-05
4.96489e-05
7.90407e-05
4.96403e-05
7.8558e-05
4.96452e-05
8.4803e-05
9.24935e-05
0.000105571
7.69549e-05
0.000106026
7.63528e-05
8.59273e-05
8.47985e-05
9.24877e-05
0.000105572
7.695e-05
0.000106028
7.63449e-05
8.59266e-05
7.91005e-05
4.96543e-05
4.96495e-05
7.9563e-05
7.90987e-05
4.96505e-05
4.96457e-05
7.95598e-05
2.35686e-05
2.35669e-05
2.35675e-05
2.35658e-05
8.76345e-05
6.63626e-05
6.63589e-05
6.6098e-05
6.60947e-05
2.35637e-05
2.35652e-05
2.35626e-05
2.35642e-05
2.35637e-05
2.35623e-05
2.35618e-05
2.35604e-05
6.6398e-05
6.63926e-05
8.93412e-05
6.66601e-05
6.66547e-05
2.35608e-05
2.35589e-05
8.96935e-05
6.66909e-05
6.66855e-05
8.00615e-05
4.96548e-05
7.96144e-05
4.96595e-05
8.72242e-05
7.70122e-05
0.000105137
9.27248e-05
8.61058e-05
7.76151e-05
0.00010473
8.72219e-05
7.70049e-05
0.00010513
9.27169e-05
8.61007e-05
7.76068e-05
0.000104728
8.01143e-05
4.96638e-05
8.05446e-05
8.01115e-05
4.96647e-05
4.96601e-05
8.05417e-05
8.73786e-05
9.28671e-05
0.000104013
7.7661e-05
0.000104363
8.84917e-05
8.73745e-05
9.28558e-05
7.82372e-05
0.00010401
7.76545e-05
0.000104356
8.84883e-05
6.63892e-05
6.63948e-05
8.93363e-05
6.66516e-05
6.66564e-05
2.3563e-05
2.35616e-05
2.35581e-05
2.35593e-05
8.96876e-05
6.69268e-05
6.69334e-05
6.66826e-05
6.66876e-05
2.35589e-05
2.35602e-05
8.72227e-05
7.70072e-05
0.000105137
9.27495e-05
8.61038e-05
7.7611e-05
0.000104739
8.00593e-05
4.96507e-05
7.96129e-05
4.96554e-05
8.72173e-05
0.000105131
7.70091e-05
9.27228e-05
8.61026e-05
0.000104733
7.75998e-05
8.01132e-05
4.96594e-05
8.73761e-05
9.28804e-05
7.76559e-05
0.000104365
8.01093e-05
4.96559e-05
8.7376e-05
9.28608e-05
0.000104359
7.76558e-05
8.00633e-05
4.96558e-05
7.96183e-05
4.96605e-05
8.72258e-05
0.00010514
7.70072e-05
9.27241e-05
8.60973e-05
0.000104738
7.76072e-05
8.00614e-05
4.96527e-05
7.96169e-05
4.96574e-05
8.7375e-05
9.28829e-05
7.82438e-05
0.000104023
7.76603e-05
0.000104367
8.84918e-05
8.01154e-05
4.96657e-05
4.9661e-05
8.05428e-05
8.73729e-05
9.28717e-05
0.000104024
7.82409e-05
0.000104368
7.7655e-05
8.84895e-05
8.01143e-05
4.96626e-05
4.9658e-05
8.05408e-05
6.63899e-05
6.63986e-05
8.9343e-05
6.66511e-05
6.66602e-05
2.35626e-05
2.35612e-05
2.35579e-05
8.96964e-05
6.66813e-05
6.66902e-05
2.35597e-05
8.72236e-05
0.000105145
7.70054e-05
9.27469e-05
8.60989e-05
0.000104744
7.7605e-05
8.00631e-05
4.96548e-05
7.96172e-05
4.96595e-05
8.00604e-05
4.96511e-05
7.96151e-05
4.96558e-05
8.73791e-05
9.289e-05
0.000104026
0.000104371
7.76609e-05
8.84903e-05
8.73749e-05
9.28833e-05
0.000104029
7.82383e-05
0.000104373
7.76534e-05
8.84894e-05
8.01151e-05
4.966e-05
8.05427e-05
8.01132e-05
4.96609e-05
4.96563e-05
8.054e-05
2.35621e-05
2.35607e-05
2.35611e-05
2.35597e-05
8.96884e-05
6.69321e-05
6.69276e-05
6.6684e-05
6.66803e-05
2.3558e-05
2.35592e-05
2.3557e-05
2.35582e-05
2.36153e-05
2.36128e-05
7.1447e-05
2.15368e-05
2.15335e-05
2.15372e-05
2.15339e-05
7.15843e-05
7.5667e-05
7.34296e-05
6.22113e-05
4.71932e-05
7.38654e-05
4.72013e-05
7.53285e-05
7.57044e-05
7.34384e-05
6.22095e-05
4.71835e-05
4.71916e-05
7.53699e-05
7.38721e-05
7.57673e-05
4.72135e-05
6.22505e-05
7.45081e-05
7.40298e-05
4.72051e-05
7.61254e-05
7.58088e-05
4.72037e-05
6.22488e-05
7.45137e-05
4.71953e-05
7.61626e-05
7.4036e-05
7.13903e-05
2.15398e-05
2.15365e-05
2.15395e-05
2.15362e-05
7.1284e-05
3.62156e-05
7.34797e-05
4.03946e-05
7.3853e-05
4.03904e-05
7.36368e-05
3.62173e-05
2.01948e-05
6.96071e-05
4.9597e-05
6.97031e-05
2.01951e-05
3.62155e-05
7.33921e-05
4.03844e-05
7.33187e-05
4.03889e-05
7.35417e-05
3.62137e-05
2.01921e-05
6.98336e-05
4.95981e-05
6.97414e-05
2.01918e-05
2.36041e-05
2.36017e-05
3.6215e-05
7.3482e-05
7.38496e-05
4.03936e-05
7.36348e-05
4.03893e-05
3.62166e-05
2.01945e-05
6.96055e-05
4.95926e-05
6.97013e-05
2.01947e-05
3.62148e-05
7.33867e-05
7.33169e-05
4.03834e-05
7.35383e-05
4.03878e-05
3.6213e-05
2.01918e-05
6.98319e-05
4.95937e-05
6.97396e-05
2.01915e-05
2.36028e-05
2.36004e-05
7.20564e-05
2.15244e-05
2.15213e-05
2.1525e-05
2.15219e-05
7.21564e-05
7.72387e-05
7.58347e-05
4.72366e-05
6.30683e-05
7.6894e-05
7.62821e-05
4.72444e-05
7.72743e-05
7.58399e-05
4.72269e-05
6.30657e-05
7.69322e-05
7.62861e-05
4.72348e-05
7.20074e-05
2.15276e-05
2.15245e-05
7.18716e-05
2.15275e-05
2.15243e-05
7.73288e-05
4.72546e-05
6.3108e-05
7.69239e-05
7.64597e-05
4.72476e-05
7.76413e-05
7.73697e-05
4.7245e-05
6.31054e-05
7.69311e-05
7.64647e-05
4.72379e-05
7.7682e-05
3.62213e-05
7.50527e-05
4.04143e-05
7.50142e-05
4.0411e-05
7.48212e-05
3.62225e-05
2.01829e-05
7.01198e-05
4.96128e-05
2.01831e-05
7.02044e-05
3.62215e-05
7.498e-05
4.04062e-05
7.45369e-05
3.62202e-05
4.04098e-05
7.47353e-05
2.01802e-05
7.03211e-05
4.96137e-05
7.02389e-05
2.01799e-05
2.35938e-05
2.35916e-05
3.62206e-05
7.50567e-05
7.50109e-05
4.04135e-05
7.4819e-05
4.04102e-05
3.62218e-05
2.01825e-05
7.01186e-05
4.96084e-05
2.01828e-05
7.02016e-05
3.62208e-05
7.49728e-05
7.45351e-05
4.04054e-05
3.62195e-05
7.4732e-05
4.0409e-05
2.01798e-05
7.03184e-05
4.96093e-05
7.02375e-05
2.01795e-05
2.35925e-05
2.35903e-05
7.25919e-05
2.15129e-05
2.15098e-05
2.15135e-05
2.15104e-05
7.26702e-05
7.86968e-05
7.81823e-05
4.72757e-05
6.38617e-05
7.83735e-05
7.86324e-05
4.72827e-05
7.87333e-05
7.81852e-05
4.7266e-05
6.38584e-05
7.8409e-05
7.86361e-05
4.72731e-05
7.25601e-05
2.15165e-05
2.15134e-05
7.24365e-05
2.15162e-05
2.15131e-05
7.87666e-05
4.72913e-05
6.39004e-05
7.92359e-05
7.88007e-05
4.72853e-05
7.90472e-05
7.8808e-05
4.72817e-05
6.38972e-05
7.92433e-05
7.88065e-05
4.72757e-05
7.90886e-05
3.62239e-05
7.64473e-05
4.04292e-05
7.60584e-05
4.04267e-05
7.5884e-05
3.62247e-05
2.0171e-05
7.05769e-05
4.96266e-05
2.01713e-05
7.06535e-05
3.62244e-05
7.63843e-05
4.04232e-05
7.56282e-05
3.62235e-05
4.0426e-05
7.58066e-05
2.01684e-05
7.07585e-05
4.96273e-05
7.06835e-05
2.01681e-05
2.35845e-05
2.35824e-05
3.62232e-05
7.64513e-05
7.60554e-05
4.04284e-05
7.58812e-05
4.04259e-05
3.6224e-05
2.01707e-05
7.05757e-05
4.96222e-05
2.01709e-05
7.06508e-05
3.62237e-05
7.63773e-05
7.5626e-05
4.04224e-05
3.62228e-05
7.58039e-05
4.04252e-05
2.0168e-05
7.07557e-05
4.96229e-05
7.06822e-05
2.01677e-05
2.35831e-05
2.35811e-05
7.30805e-05
2.15028e-05
2.14997e-05
2.15032e-05
2.15002e-05
7.31574e-05
8.00361e-05
8.0438e-05
4.73108e-05
6.45949e-05
7.97287e-05
8.0871e-05
4.73173e-05
8.0071e-05
8.04408e-05
4.73011e-05
6.45914e-05
7.97623e-05
8.08741e-05
4.73076e-05
7.30505e-05
2.15059e-05
2.15029e-05
7.29331e-05
2.15058e-05
2.15027e-05
8.00951e-05
4.73251e-05
6.4632e-05
8.14423e-05
8.10226e-05
4.73196e-05
8.03693e-05
8.0134e-05
4.73155e-05
6.46286e-05
8.14478e-05
8.10279e-05
4.731e-05
8.04082e-05
3.62239e-05
7.76967e-05
4.04393e-05
7.70052e-05
4.04375e-05
7.68455e-05
3.62244e-05
2.01595e-05
7.0988e-05
4.96388e-05
2.01597e-05
7.10589e-05
3.62247e-05
7.76414e-05
4.04352e-05
7.66137e-05
3.62241e-05
4.04372e-05
7.67762e-05
2.01569e-05
7.11542e-05
4.96395e-05
7.10844e-05
2.01567e-05
2.35761e-05
2.35742e-05
3.62232e-05
7.77005e-05
7.70023e-05
4.04385e-05
7.68428e-05
4.04367e-05
3.62237e-05
2.01591e-05
7.09868e-05
4.96345e-05
2.01594e-05
7.10564e-05
3.6224e-05
7.76346e-05
7.66112e-05
4.04344e-05
3.62234e-05
7.67736e-05
4.04364e-05
2.01566e-05
7.11516e-05
4.96351e-05
7.10831e-05
2.01563e-05
2.35747e-05
2.35729e-05
7.35131e-05
2.14935e-05
2.14904e-05
2.14938e-05
2.14907e-05
7.35949e-05
8.12763e-05
8.26075e-05
4.73424e-05
6.52755e-05
8.0998e-05
8.30134e-05
4.73483e-05
8.13071e-05
8.26103e-05
4.73327e-05
6.52719e-05
8.10302e-05
8.30147e-05
4.73386e-05
7.3481e-05
2.14959e-05
2.14929e-05
7.33766e-05
2.14959e-05
2.14928e-05
8.13277e-05
4.7356e-05
6.53102e-05
8.35525e-05
8.31473e-05
4.73505e-05
8.15976e-05
8.13627e-05
4.73463e-05
6.53067e-05
8.3555e-05
8.31515e-05
4.73408e-05
8.16333e-05
3.6222e-05
7.88298e-05
4.04454e-05
7.78704e-05
4.04443e-05
7.77232e-05
3.62223e-05
2.01484e-05
7.13611e-05
4.965e-05
2.01486e-05
7.1428e-05
3.62229e-05
7.87788e-05
4.04429e-05
7.75113e-05
3.62226e-05
4.04442e-05
7.76608e-05
2.01459e-05
7.15153e-05
4.96506e-05
7.14491e-05
2.01457e-05
2.35687e-05
2.3567e-05
3.62213e-05
7.88319e-05
7.78675e-05
4.04446e-05
7.77204e-05
4.04434e-05
3.62216e-05
2.01481e-05
7.136e-05
4.96457e-05
2.01483e-05
7.14255e-05
3.62222e-05
7.8773e-05
7.75086e-05
4.04421e-05
3.62219e-05
7.76581e-05
4.04434e-05
2.01456e-05
7.15127e-05
4.96462e-05
7.1448e-05
2.01454e-05
2.35673e-05
2.35656e-05
7.39125e-05
2.1485e-05
2.14818e-05
2.14851e-05
2.1482e-05
7.39901e-05
8.24609e-05
8.46895e-05
4.73723e-05
6.59123e-05
8.22152e-05
8.50765e-05
4.73776e-05
8.24919e-05
8.46935e-05
4.73625e-05
6.59086e-05
8.22474e-05
8.50749e-05
4.73678e-05
7.38847e-05
2.1487e-05
2.14839e-05
7.38009e-05
2.1487e-05
2.14839e-05
8.25056e-05
4.73849e-05
6.59449e-05
8.55879e-05
8.51999e-05
4.73796e-05
8.27551e-05
8.25377e-05
4.73751e-05
6.59413e-05
8.55861e-05
8.52049e-05
4.73699e-05
8.27868e-05
3.62187e-05
7.9868e-05
4.04484e-05
7.86674e-05
4.04476e-05
7.85307e-05
3.62188e-05
2.0138e-05
7.17032e-05
4.96607e-05
2.01381e-05
7.17668e-05
3.62198e-05
7.98179e-05
4.0447e-05
7.83352e-05
3.62196e-05
4.04479e-05
7.84741e-05
2.01356e-05
7.18472e-05
4.96612e-05
7.17847e-05
2.01355e-05
2.35622e-05
2.35607e-05
3.6218e-05
7.98676e-05
7.86645e-05
4.04476e-05
7.85278e-05
4.04468e-05
3.62181e-05
2.01376e-05
7.1702e-05
4.96563e-05
2.01378e-05
7.17644e-05
3.62191e-05
7.98147e-05
7.83324e-05
4.04462e-05
3.62189e-05
7.84713e-05
4.04471e-05
2.01353e-05
7.1845e-05
4.96568e-05
7.17833e-05
2.01351e-05
2.35609e-05
2.35594e-05
7.42985e-05
2.14774e-05
2.14743e-05
2.14775e-05
2.14744e-05
7.43698e-05
8.3585e-05
8.66805e-05
4.74006e-05
6.6508e-05
8.33526e-05
8.7053e-05
4.74057e-05
8.36147e-05
8.66875e-05
4.73909e-05
6.65038e-05
8.33839e-05
8.7046e-05
4.73959e-05
7.42738e-05
2.14792e-05
2.14762e-05
7.41968e-05
2.14793e-05
2.14762e-05
8.36289e-05
4.74126e-05
6.65392e-05
8.75464e-05
8.7172e-05
4.74077e-05
8.38632e-05
8.36594e-05
4.74028e-05
6.65352e-05
8.75391e-05
8.71779e-05
4.73979e-05
8.3893e-05
7.14329e-05
2.15334e-05
2.15364e-05
2.15336e-05
2.15367e-05
7.15308e-05
7.57342e-05
7.3482e-05
6.22127e-05
4.7185e-05
4.71925e-05
7.54479e-05
7.39328e-05
7.56986e-05
7.3481e-05
6.22196e-05
4.71938e-05
7.39352e-05
4.72013e-05
7.54149e-05
7.57814e-05
4.72031e-05
6.2253e-05
7.44851e-05
4.71955e-05
7.60785e-05
7.40723e-05
7.57497e-05
4.72117e-05
6.22607e-05
7.4482e-05
7.40739e-05
4.72043e-05
7.60341e-05
7.1401e-05
2.15372e-05
2.15402e-05
2.15365e-05
2.15396e-05
7.13133e-05
2.36163e-05
2.36137e-05
2.36071e-05
2.36096e-05
7.17356e-05
2.15312e-05
2.15343e-05
7.15922e-05
2.15309e-05
2.1534e-05
7.6635e-05
7.57535e-05
6.26872e-05
4.72254e-05
4.72182e-05
7.69351e-05
7.52888e-05
7.65988e-05
7.57549e-05
6.26886e-05
4.72342e-05
4.72269e-05
7.52843e-05
7.68983e-05
7.65282e-05
4.72066e-05
7.46347e-05
6.26463e-05
7.61822e-05
4.7215e-05
7.50929e-05
7.64847e-05
4.72152e-05
7.4627e-05
6.26474e-05
7.61404e-05
4.72236e-05
7.50846e-05
7.17797e-05
2.15274e-05
2.15305e-05
2.15282e-05
2.15313e-05
7.18698e-05
2.3608e-05
2.36104e-05
3.62062e-05
7.25557e-05
4.03691e-05
7.16879e-05
7.22997e-05
4.03643e-05
3.62085e-05
2.02065e-05
4.95763e-05
6.90225e-05
6.91348e-05
2.02067e-05
2.02037e-05
6.9282e-05
4.95776e-05
6.91732e-05
2.02035e-05
3.62058e-05
7.15797e-05
7.19409e-05
4.03576e-05
7.22054e-05
4.03625e-05
3.62035e-05
3.62043e-05
4.03695e-05
7.2543e-05
7.16865e-05
4.03646e-05
7.22979e-05
3.62065e-05
2.0205e-05
4.9573e-05