/*--------------------------------*- C++ -*----------------------------------*\
| =========                 |                                                 |
| \\      /  F ield         | OpenFOAM: The Open Source CFD Toolbox           |
|  \\    /   O peration     | Version:  v2012                                 |
|   \\  /    A nd           | Website:  www.openfoam.com                      |
|    \\/     M anipulation  |                                                 |
\*---------------------------------------------------------------------------*/
FoamFile
{
    version     2.0;
    format      ascii;
    class       volScalarField;
    location    "400";
    object      epsilon;
}
// * * * * * * * * * * * * * * * * * * * * * * * * * * * * * * * * * * * * * //

dimensions      [0 2 -3 0 0 0 0];


internalField   nonuniform List<scalar> 
171728
(
2.30692e-09
3.54294e-09
5.02903e-09
4.9804e-09
2.27163e-09
3.26775e-09
4.49417e-09
4.62832e-09
2.21423e-09
3.00158e-09
4.02806e-09
4.3952e-09
2.16102e-09
2.77038e-09
3.62861e-09
4.22856e-09
2.1116e-09
2.57037e-09
3.29057e-09
4.13098e-09
2.06555e-09
2.40252e-09
2.98873e-09
4.05779e-09
2.02308e-09
2.26875e-09
2.74653e-09
4.00086e-09
1.98401e-09
2.16774e-09
2.57356e-09
3.9205e-09
1.94834e-09
2.09822e-09
2.45789e-09
3.32889e-09
1.91608e-09
2.06067e-09
2.3949e-09
2.90046e-09
1.8873e-09
2.05643e-09
2.36222e-09
2.62027e-09
1.86189e-09
2.0878e-09
2.35795e-09
2.4019e-09
1.83981e-09
2.15862e-09
2.40287e-09
2.29205e-09
1.82086e-09
2.28706e-09
2.51109e-09
2.3044e-09
1.8058e-09
2.48937e-09
2.69908e-09
2.41176e-09
1.79406e-09
2.81611e-09
3.00694e-09
2.65821e-09
1.78651e-09
3.28246e-09
3.49079e-09
3.10295e-09
1.78401e-09
4.0383e-09
4.23619e-09
3.85947e-09
1.78686e-09
5.175e-09
5.35056e-09
5.13745e-09
1.79702e-09
6.83814e-09
7.03569e-09
7.45215e-09
1.81726e-09
9.28339e-09
9.48781e-09
1.13502e-08
1.8525e-09
1.27932e-08
1.29657e-08
1.78935e-08
1.90651e-09
1.77206e-08
1.78483e-08
2.9157e-08
1.98945e-09
2.42855e-08
2.49636e-08
4.67898e-08
2.11302e-09
3.30362e-08
3.27661e-08
7.34519e-08
2.28842e-09
4.50464e-08
4.56892e-08
1.11e-07
2.54125e-09
5.72481e-08
5.80811e-08
1.59932e-07
2.89037e-09
7.70584e-08
7.59068e-08
2.21146e-07
3.37644e-09
9.46605e-08
9.57329e-08
2.92581e-07
4.03115e-09
1.17622e-07
1.18002e-07
3.69322e-07
4.91262e-09
1.44941e-07
1.449e-07
4.4762e-07
6.06314e-09
1.73111e-07
1.73738e-07
5.22761e-07
7.59246e-09
2.05594e-07
2.06043e-07
5.92265e-07
9.55382e-09
2.41431e-07
2.41894e-07
6.55878e-07
1.20275e-08
2.79628e-07
2.80924e-07
7.12506e-07
1.52706e-08
3.20797e-07
3.19281e-07
7.62512e-07
1.91542e-08
3.63956e-07
3.64908e-07
8.07126e-07
2.41435e-08
4.08983e-07
4.09501e-07
8.48648e-07
3.00012e-08
4.55144e-07
4.56016e-07
8.84608e-07
3.72238e-08
5.06685e-07
5.0497e-07
9.19665e-07
4.59235e-08
5.49237e-07
5.52263e-07
9.5085e-07
5.58626e-08
6.0517e-07
6.00771e-07
9.83438e-07
6.82429e-08
6.46863e-07
6.51576e-07
1.01314e-06
8.07009e-08
6.9858e-07
6.93894e-07
1.03819e-06
9.79742e-08
7.44713e-07
7.44913e-07
1.07238e-06
1.14536e-07
7.81678e-07
7.84431e-07
1.09563e-06
1.34557e-07
8.27638e-07
8.30258e-07
1.12512e-06
1.55728e-07
8.70051e-07
8.66729e-07
1.14901e-06
1.81491e-07
9.04543e-07
9.05897e-07
1.17489e-06
2.04849e-07
9.40007e-07
9.39817e-07
1.2007e-06
2.33893e-07
9.71321e-07
9.76009e-07
1.22176e-06
2.6344e-07
1.0007e-06
9.9898e-07
1.24538e-06
2.92611e-07
1.03346e-06
1.03233e-06
1.26683e-06
3.2175e-07
1.05243e-06
1.05682e-06
1.28711e-06
3.51279e-07
1.07547e-06
1.07545e-06
1.30101e-06
3.92284e-07
1.10904e-06
1.10423e-06
1.32887e-06
4.16885e-07
1.1181e-06
1.12546e-06
1.33877e-06
4.41261e-07
1.13512e-06
1.13658e-06
1.35454e-06
4.72631e-07
1.165e-06
1.15891e-06
1.3679e-06
5.08981e-07
1.18262e-06
1.18207e-06
1.39172e-06
5.31991e-07
1.18582e-06
1.19235e-06
1.39806e-06
5.52851e-07
1.20219e-06
1.20575e-06
1.41084e-06
5.77649e-07
1.22288e-06
1.2166e-06
1.42136e-06
6.02655e-07
1.23171e-06
1.23663e-06
1.43826e-06
6.21309e-07
1.24533e-06
1.24987e-06
1.44556e-06
6.41369e-07
1.25469e-06
1.25133e-06
1.45781e-06
6.59463e-07
1.26167e-06
1.26065e-06
1.46275e-06
6.74045e-07
1.27351e-06
1.27355e-06
1.46871e-06
6.92736e-07
1.28165e-06
1.28297e-06
1.48272e-06
7.06405e-07
1.28769e-06
1.28758e-06
1.48856e-06
7.16918e-07
1.28987e-06
1.29062e-06
1.4905e-06
7.29832e-07
1.29713e-06
1.29621e-06
1.49684e-06
7.43289e-07
1.30199e-06
1.30392e-06
1.50186e-06
7.53032e-07
1.30702e-06
1.30745e-06
1.51095e-06
7.62761e-07
1.30718e-06
1.30689e-06
1.50988e-06
7.6865e-07
1.30692e-06
1.30705e-06
1.51234e-06
7.74986e-07
1.31061e-06
1.31096e-06
1.51715e-06
7.82376e-07
1.31047e-06
1.31047e-06
1.51482e-06
7.85467e-07
1.30829e-06
1.30644e-06
1.51533e-06
7.88277e-07
1.30829e-06
1.30812e-06
1.5179e-06
7.93126e-07
1.30842e-06
1.31085e-06
1.52078e-06
7.94636e-07
1.30515e-06
1.30507e-06
1.51915e-06
7.92429e-07
1.30117e-06
1.2991e-06
1.51659e-06
7.89903e-07
1.2929e-06
1.29287e-06
1.50659e-06
7.90618e-07
1.29347e-06
1.29595e-06
1.51107e-06
7.91186e-07
1.29483e-06
1.29565e-06
1.52108e-06
7.78522e-07
1.27295e-06
1.27218e-06
1.49863e-06
7.66334e-07
1.25069e-06
1.24974e-06
1.46323e-06
7.72771e-07
1.26231e-06
1.26195e-06
1.47656e-06
7.87191e-07
1.29218e-06
1.29226e-06
1.53185e-06
7.80246e-07
1.28678e-06
1.2869e-06
1.54425e-06
7.48603e-07
1.24382e-06
1.24397e-06
1.49844e-06
7.12661e-07
1.18751e-06
1.18762e-06
1.41906e-06
6.93984e-07
1.14964e-06
1.14972e-06
1.35405e-06
6.86321e-07
1.1052e-06
1.10524e-06
1.31938e-06
4.99455e-09
4.32292e-09
4.24561e-09
4.79945e-09
4.19511e-09
4.2709e-09
2.29218e-09
2.21742e-09
2.26698e-09
2.80928e-09
4.12363e-09
4.17123e-09
5.0234e-09
4.16762e-09
5.99328e-09
5.03672e-09
4.9676e-09
4.54422e-09
4.79249e-09
4.65061e-09
4.47731e-09
4.35374e-09
4.78257e-09
4.38555e-09
4.80844e-09
4.85531e-09
4.50915e-09
4.54823e-09
4.75764e-09
3.34131e-09
4.44921e-09
4.99436e-09
4.57278e-09
8.50079e-09
4.62517e-09
8.31369e-09
4.6905e-09
4.5107e-09
4.13259e-09
4.36743e-09
4.2506e-09
4.06086e-09
3.96127e-09
4.35734e-09
3.993e-09
4.40114e-09
4.4355e-09
4.09933e-09
4.11983e-09
4.3411e-09
3.0641e-09
4.04002e-09
4.53867e-09
4.15996e-09
8.25092e-09
4.13774e-09
8.11226e-09
4.44465e-09
4.10388e-09
3.77891e-09
3.96618e-09
3.87184e-09
3.70061e-09
3.61844e-09
3.96911e-09
3.65609e-09
4.00578e-09
4.02195e-09
3.7441e-09
3.74788e-09
3.94718e-09
2.82475e-09
3.68731e-09
4.13076e-09
3.80162e-09
8.08712e-09
3.72216e-09
8.06729e-09
4.26688e-09
3.75436e-09
3.47398e-09
3.61864e-09
3.53683e-09
3.38991e-09
3.2995e-09
3.63581e-09
3.36305e-09
3.66302e-09
3.6632e-09
3.43672e-09
3.42861e-09
3.60754e-09
2.61698e-09
3.38449e-09
3.77665e-09
3.48999e-09
8.06844e-09
3.37155e-09
8.10926e-09
4.1595e-09
3.45325e-09
3.21089e-09
3.31954e-09
3.22422e-09
3.12409e-09
3.01877e-09
3.34596e-09
3.10628e-09
3.3667e-09
3.3569e-09
3.17244e-09
3.1586e-09
3.31709e-09
2.44106e-09
3.13306e-09
3.469e-09
3.22046e-09
8.13641e-09
3.0601e-09
8.22023e-09
4.08178e-09
3.19402e-09
2.9853e-09
3.06498e-09
2.95801e-09
2.90442e-09
2.795e-09
3.09274e-09
2.87665e-09
3.11273e-09
3.09861e-09
2.95069e-09
2.93477e-09
3.07845e-09
2.29914e-09
2.92844e-09
3.20362e-09
2.98603e-09
8.24838e-09
2.8005e-09
8.3395e-09
4.02263e-09
2.97229e-09
2.79545e-09
2.85742e-09
2.74675e-09
2.72958e-09
2.62356e-09
2.86675e-09
2.6819e-09
2.90204e-09
2.88606e-09
2.77333e-09
2.75441e-09
2.88418e-09
2.18967e-09
2.76198e-09
2.97329e-09
2.78974e-09
8.35852e-09
2.61218e-09
8.33504e-09
3.94003e-09
2.78635e-09
2.6401e-09
2.69272e-09
2.58949e-09
2.59565e-09
2.50462e-09
2.67563e-09
2.52454e-09
2.73553e-09
2.717e-09
2.63761e-09
2.61646e-09
2.72478e-09
2.11325e-09
2.61713e-09
2.78097e-09
2.62978e-09
8.22557e-09
2.48159e-09
7.32196e-09
3.38772e-09
2.63501e-09
2.51752e-09
2.56906e-09
2.48187e-09
2.50282e-09
2.42766e-09
2.522e-09
2.40258e-09
2.60998e-09
2.58892e-09
2.54179e-09
2.51875e-09
2.5873e-09
2.06686e-09
2.51591e-09
2.62503e-09
2.50284e-09
6.87682e-09
2.40586e-09
5.37599e-09
2.92243e-09
2.51679e-09
2.42907e-09
2.48629e-09
2.41502e-09
2.44958e-09
2.38955e-09
2.40367e-09
2.31564e-09
2.52316e-09
2.50071e-09
2.4842e-09
2.46108e-09
2.49874e-09
2.05479e-09
2.45917e-09
2.50213e-09
2.41065e-09
4.91176e-09
2.36733e-09
3.87102e-09
2.63168e-09
2.43212e-09
2.37377e-09
2.44349e-09
2.38606e-09
2.43808e-09
2.39245e-09
2.32019e-09
2.26496e-09
2.47646e-09
2.45314e-09
2.46883e-09
2.44501e-09
2.45026e-09
2.07703e-09
2.43882e-09
2.41393e-09
2.35537e-09
3.62642e-09
2.35545e-09
3.06647e-09
2.4052e-09
2.38249e-09
2.35706e-09
2.44146e-09
2.40138e-09
2.471e-09
2.44017e-09
2.2758e-09
2.25341e-09
2.47134e-09
2.44734e-09
2.49845e-09
2.47365e-09
2.44032e-09
2.13965e-09
2.46067e-09
2.36418e-09
2.33789e-09
2.92052e-09
2.38555e-09
2.58222e-09
2.28277e-09
2.37537e-09
2.38876e-09
2.48763e-09
2.46213e-09
2.56021e-09
2.54322e-09
2.27271e-09
2.2946e-09
2.51385e-09
2.48925e-09
2.58371e-09
2.55976e-09
2.47605e-09
2.25089e-09
2.5527e-09
2.35631e-09
2.36895e-09
2.50126e-09
2.47716e-09
2.36256e-09
2.27363e-09
2.42078e-09
2.48761e-09
2.59269e-09
2.5786e-09
2.72379e-09
2.7125e-09
2.32745e-09
2.39676e-09
2.6148e-09
2.59254e-09
2.74184e-09
2.72184e-09
2.5877e-09
2.43798e-09
2.72069e-09
2.40131e-09
2.46665e-09
2.35576e-09
2.64322e-09
2.41695e-09
2.35895e-09
2.54104e-09
2.68876e-09
2.7795e-09
2.76606e-09
2.9922e-09
2.98901e-09
2.44844e-09
2.60349e-09
2.79689e-09
2.77724e-09
3.0088e-09
2.99062e-09
2.77628e-09
2.7298e-09
2.98917e-09
2.52055e-09
2.66322e-09
2.45836e-09
2.91394e-09
2.63054e-09
2.56355e-09
2.78223e-09
3.05266e-09
3.08442e-09
3.09267e-09
3.42375e-09
3.41587e-09
2.71292e-09
2.96625e-09
3.09783e-09
3.08146e-09
3.43651e-09
3.42203e-09
3.07831e-09
3.15133e-09
3.42031e-09
2.75274e-09
3.03773e-09
2.71269e-09
3.35007e-09
3.05752e-09
2.94328e-09
3.2176e-09
3.68843e-09
3.56813e-09
3.53767e-09
4.08647e-09
4.05388e-09
3.10082e-09
3.59714e-09
3.58069e-09
3.56492e-09
4.09474e-09
4.09404e-09
3.55963e-09
3.82142e-09
4.08865e-09
3.18811e-09
3.68958e-09
3.20475e-09
4.01628e-09
3.75109e-09
3.5957e-09
3.9353e-09
4.85225e-09
4.30393e-09
4.28519e-09
5.10655e-09
5.11792e-09
3.8689e-09
4.75989e-09
4.31273e-09
4.31356e-09
5.11386e-09
5.11123e-09
4.30699e-09
4.85185e-09
5.1088e-09
3.94416e-09
4.82681e-09
3.9759e-09
5.03113e-09
4.77447e-09
4.71959e-09
5.23848e-09
6.95711e-09
5.42077e-09
5.44564e-09
6.69739e-09
6.68046e-09
5.18762e-09
6.7263e-09
5.42315e-09
5.43529e-09
6.68453e-09
6.64327e-09
5.43239e-09
6.36402e-09
6.6409e-09
5.2384e-09
6.85389e-09
5.104e-09
6.55542e-09
6.3141e-09
6.73368e-09
7.74186e-09
1.01446e-08
7.17552e-09
7.17289e-09
8.8507e-09
8.9622e-09
7.43962e-09
1.01591e-08
7.15801e-09
7.12267e-09
8.84466e-09
8.89808e-09
7.11928e-09
8.59075e-09
8.87719e-09
7.55998e-09
1.03791e-08
6.79063e-09
8.79237e-09
8.54888e-09
1.01273e-08
1.13919e-08
1.60422e-08
9.58493e-09
9.69223e-09
1.20447e-08
1.23169e-08
1.13343e-08
1.61372e-08
9.56511e-09
9.60498e-09
1.20136e-08
1.21254e-08
9.58649e-09
1.17934e-08
1.20853e-08
1.15436e-08
1.65291e-08
9.26952e-09
1.19933e-08
1.17495e-08
1.59883e-08
1.78015e-08
2.70107e-08
1.30405e-08
1.33692e-08
1.6753e-08
1.70423e-08
1.80315e-08
2.62586e-08
1.30126e-08
1.30904e-08
1.67425e-08
1.67521e-08
1.31084e-08
1.62974e-08
1.66495e-08
1.84184e-08
2.67618e-08
1.27643e-08
1.65884e-08
1.63135e-08
2.62918e-08
3.00367e-08
4.21978e-08
1.81154e-08
1.85095e-08
2.28193e-08
2.35515e-08
2.90686e-08
4.29994e-08
1.80872e-08
1.80247e-08
2.27234e-08
2.29656e-08
1.80497e-08
2.2433e-08
2.2873e-08
3.00001e-08
4.18156e-08
1.77096e-08
2.27915e-08
2.25319e-08
4.25705e-08
4.65619e-08
6.73814e-08
2.46988e-08
2.55179e-08
3.11461e-08
3.23519e-08
4.6894e-08
6.81863e-08
2.46076e-08
2.51871e-08
3.10599e-08
3.07395e-08
2.46894e-08
3.07816e-08
3.11548e-08
4.7542e-08
6.61486e-08
2.4367e-08
3.04981e-08
3.0821e-08
6.71633e-08
7.35951e-08
1.03072e-07
3.36783e-08
3.478e-08
4.19564e-08
4.39315e-08
7.41071e-08
1.03358e-07
3.35491e-08
3.29319e-08
4.18319e-08
4.26985e-08
3.36424e-08
4.16765e-08
4.19413e-08
7.0329e-08
1.05997e-07
3.32879e-08
4.24712e-08
4.16203e-08
1.02625e-07
1.11234e-07
1.48961e-07
4.49511e-08
4.73908e-08
5.5398e-08
5.6714e-08
1.12954e-07
1.481e-07
4.48341e-08
4.60375e-08
5.52184e-08
5.50727e-08
4.50011e-08
5.40132e-08
5.5361e-08
1.16763e-07
1.49027e-07
4.47142e-08
5.45775e-08
5.50377e-08
1.49082e-07
1.60166e-07
2.08359e-07
5.92028e-08
6.00431e-08
7.15617e-08
7.42946e-08
1.56583e-07
2.07557e-07
5.90205e-08
5.85051e-08
7.12858e-08
7.16173e-08
5.91142e-08
7.16457e-08
7.16334e-08
1.57543e-07
2.06126e-07
5.88191e-08
7.13188e-08
7.13155e-08
2.08192e-07
2.2108e-07
2.77697e-07
7.60663e-08
7.95113e-08
9.09379e-08
9.23014e-08
2.25106e-07
2.84887e-07
7.57134e-08
7.62658e-08
9.06674e-08
9.07687e-08
7.61681e-08
9.04487e-08
9.07918e-08
2.20703e-07
2.78127e-07
7.58526e-08
9.0288e-08
9.04946e-08
2.7787e-07
2.92825e-07
3.52818e-07
9.61335e-08
9.62625e-08
1.12451e-07
1.11976e-07
2.94688e-07
3.4589e-07
9.59526e-08
9.61956e-08
1.12312e-07
1.12822e-07
9.60361e-08
1.11142e-07
1.12816e-07
2.92014e-07
3.54707e-07
9.57701e-08
1.12257e-07
1.12569e-07
3.53375e-07
3.68249e-07
4.32149e-07
1.18633e-07
1.18377e-07
1.38535e-07
1.38621e-07
3.63567e-07
4.32753e-07
1.18378e-07
1.18574e-07
1.38104e-07
1.3872e-07
1.18823e-07
1.37762e-07
1.38323e-07
3.70291e-07
4.30442e-07
1.18662e-07
1.38104e-07
1.38137e-07
4.31594e-07
4.48497e-07
5.0689e-07
1.45286e-07
1.45747e-07
1.66713e-07
1.66839e-07
4.50316e-07
5.07651e-07
1.4485e-07
1.45564e-07
1.66283e-07
1.66343e-07
1.44942e-07
1.66388e-07
1.66721e-07
4.47024e-07
5.07852e-07
1.44901e-07
1.6567e-07
1.6661e-07
5.07007e-07
5.22125e-07
5.76841e-07
1.74222e-07
1.73497e-07
1.98081e-07
1.96561e-07
5.21375e-07
5.74748e-07
1.73829e-07
1.7432e-07
1.97841e-07
1.98902e-07
1.74526e-07
1.96198e-07
1.98205e-07
5.22643e-07
5.77374e-07
1.74596e-07
1.98336e-07
1.9804e-07
5.77418e-07
5.9222e-07
6.4144e-07
2.06726e-07
2.05961e-07
2.33259e-07
2.33469e-07
5.9053e-07
6.42403e-07
2.06367e-07
2.06723e-07
2.32667e-07
2.32851e-07
2.06405e-07
2.33158e-07
2.33513e-07
5.93507e-07
6.40384e-07
2.06414e-07
2.31969e-07
2.33385e-07
6.41688e-07
6.55369e-07
6.98817e-07
2.42295e-07
2.41747e-07
2.70468e-07
2.69698e-07
6.56895e-07
6.97646e-07
2.41767e-07
2.42727e-07
2.70061e-07
2.72171e-07
2.42328e-07
2.69171e-07
2.70709e-07
6.54159e-07
7.01566e-07
2.42309e-07
2.71595e-07
2.70976e-07
6.99309e-07
7.11927e-07
7.50037e-07
2.80261e-07
2.80286e-07
3.11314e-07
3.11263e-07
7.10422e-07
7.50772e-07
2.79758e-07
2.81552e-07
3.10808e-07
3.09881e-07
2.81131e-07
3.10484e-07
3.10845e-07
7.14195e-07
7.47853e-07
2.81283e-07
3.09028e-07
3.11146e-07
7.50656e-07
7.62228e-07
7.95849e-07
3.2186e-07
3.21468e-07
3.53515e-07
3.53829e-07
7.63048e-07
7.9547e-07
3.21309e-07
3.20152e-07
3.52795e-07
3.54392e-07
3.21228e-07
3.532e-07
3.53913e-07
7.60001e-07
7.96097e-07
3.21618e-07
3.53495e-07
3.53606e-07
7.95784e-07
8.06905e-07
8.37582e-07
3.6452e-07
3.64749e-07
3.99162e-07
3.98267e-07
8.0646e-07
8.36374e-07
3.63906e-07
3.65527e-07
3.98491e-07
3.98846e-07
3.64017e-07
3.97142e-07
4.00124e-07
8.07559e-07
8.37846e-07
3.64308e-07
3.97858e-07
3.9993e-07
8.3823e-07
8.4804e-07
8.74742e-07
4.10669e-07
4.09886e-07
4.44613e-07
4.44113e-07
8.46687e-07
8.7473e-07
4.09755e-07
4.10581e-07
4.44113e-07
4.4538e-07
4.1232e-07
4.43658e-07
4.44125e-07
8.48014e-07
8.74928e-07
4.11807e-07
4.44891e-07
4.44712e-07
8.75167e-07
8.84305e-07
9.10201e-07
4.56454e-07
4.56028e-07
4.93189e-07
4.95411e-07
8.8473e-07
9.10495e-07
4.56156e-07
4.56586e-07
4.92038e-07
4.93079e-07
4.55906e-07
4.93987e-07
4.93682e-07
8.84606e-07
9.09874e-07
4.56241e-07
4.91891e-07
4.93548e-07
9.1032e-07
9.19447e-07
9.42667e-07
5.05346e-07
5.07556e-07
5.41117e-07
5.38842e-07
9.19524e-07
9.42455e-07
5.04114e-07
5.05806e-07
5.41183e-07
5.41503e-07
5.05745e-07
5.38252e-07
5.41086e-07
9.19163e-07
9.43111e-07
5.05628e-07
5.41097e-07
5.41151e-07
9.42561e-07
9.51159e-07
9.73852e-07
5.52987e-07
5.50479e-07
5.89613e-07
5.92993e-07
9.51021e-07
9.74898e-07
5.52939e-07
5.5328e-07
5.87957e-07
5.88561e-07
5.52541e-07
5.91081e-07
5.89191e-07
9.51307e-07
9.73213e-07
5.53209e-07
5.87991e-07
5.88468e-07
9.74594e-07
9.82253e-07
1.00501e-06
6.01936e-07
6.06328e-07
6.38632e-07
6.36812e-07
9.83417e-07
1.00208e-06
6.00396e-07
6.00607e-07
6.38956e-07
6.40586e-07
6.0252e-07
6.37269e-07
6.41192e-07
9.81907e-07
1.00568e-06
6.01333e-07
6.39834e-07
6.41546e-07
1.00588e-06
1.01288e-06
1.03223e-06
6.50804e-07
6.46621e-07
6.83881e-07
6.85897e-07
1.00938e-06
1.03463e-06
6.51155e-07
6.52715e-07
6.8265e-07
6.82787e-07
6.52236e-07
6.84451e-07
6.81368e-07
1.01344e-06
1.03222e-06
6.52772e-07
6.82107e-07
6.8118e-07
1.03075e-06
1.03961e-06
1.06266e-06
6.94717e-07
7.00387e-07
7.33391e-07
7.35645e-07
1.04405e-06
1.06472e-06
6.93218e-07
6.94001e-07
7.32629e-07
7.3418e-07
6.92754e-07
7.33989e-07
7.34711e-07
1.03954e-06
1.0628e-06
6.9203e-07
7.33839e-07
7.3362e-07
1.06394e-06
1.07084e-06
1.08916e-06
7.45924e-07
7.45967e-07
7.74386e-07
7.73425e-07
1.07091e-06
1.0876e-06
7.45468e-07
7.45838e-07
7.74087e-07
7.73865e-07
7.4746e-07
7.73158e-07
7.75371e-07
1.07088e-06
1.08863e-06
7.46918e-07
7.73244e-07
7.74918e-07
1.08974e-06
1.09506e-06
1.11616e-06
7.83504e-07
7.82155e-07
8.18888e-07
8.16066e-07
1.09384e-06
1.11271e-06
7.83161e-07
7.84486e-07
8.18486e-07
8.2192e-07
7.8438e-07
8.14012e-07
8.19208e-07
1.09508e-06
1.11915e-06
7.83362e-07
8.20772e-07
8.17412e-07
1.11668e-06
1.1247e-06
1.14311e-06
8.30707e-07
8.30001e-07
8.57224e-07
8.63561e-07
1.12131e-06
1.14692e-06
8.30123e-07
8.32213e-07
8.56488e-07
8.56898e-07
8.31078e-07
8.62418e-07
8.57935e-07
1.12666e-06
1.14151e-06
8.30572e-07
8.56203e-07
8.59511e-07
1.14386e-06
1.14857e-06
1.17014e-06
8.66344e-07
8.70802e-07
8.9912e-07
8.94524e-07
1.15242e-06
1.16565e-06
8.65804e-07
8.66439e-07
8.98803e-07
8.9747e-07
8.66531e-07
8.94017e-07
8.96224e-07
1.14736e-06
1.17005e-06
8.66906e-07
8.981e-07
8.94347e-07
1.16701e-06
1.17758e-06
1.19091e-06
9.08606e-07
9.05195e-07
9.29755e-07
9.34115e-07
1.17275e-06
1.19635e-06
9.0807e-07
9.05669e-07
9.28918e-07
9.30546e-07
9.06662e-07
9.33513e-07
9.34306e-07
1.17639e-06
1.1908e-06
9.04968e-07
9.297e-07
9.32499e-07
1.19531e-06
1.19568e-06
1.21887e-06
9.37467e-07
9.4074e-07
9.67217e-07
9.64155e-07
1.20134e-06
1.21468e-06
9.3666e-07
9.40734e-07
9.67003e-07
9.68416e-07
9.4173e-07
9.62387e-07
9.63756e-07
1.19744e-06
1.22111e-06
9.40322e-07
9.69387e-07
9.63527e-07
1.21577e-06
1.22668e-06
1.24004e-06
9.76226e-07
9.72477e-07
9.94467e-07
9.93339e-07
1.22127e-06
1.238e-06
9.76558e-07
9.74703e-07
9.95163e-07
9.91908e-07
9.72168e-07
9.93763e-07
9.96185e-07
1.22654e-06
1.236e-06
9.7177e-07
9.92233e-07
9.96061e-07
1.23949e-06
1.2445e-06
1.26194e-06
1.00091e-06
1.00071e-06
1.02479e-06
1.02614e-06
1.24316e-06
1.26342e-06
1.00123e-06
9.99477e-07
1.02408e-06
1.02677e-06
1.00307e-06
1.0256e-06
1.025e-06
1.24089e-06
1.26306e-06
1.00298e-06
1.02435e-06
1.02225e-06
1.26123e-06
1.26793e-06
1.27671e-06
1.03182e-06
1.03347e-06
1.04671e-06
1.04778e-06
1.27005e-06
1.27975e-06
1.03112e-06
1.03421e-06
1.04615e-06
1.04969e-06
1.03275e-06
1.0487e-06
1.05094e-06
1.26998e-06
1.2831e-06
1.02955e-06
1.05119e-06
1.05165e-06
1.28258e-06
1.28006e-06
1.29657e-06
1.05156e-06
1.05174e-06
1.07224e-06
1.06887e-06
1.28228e-06
1.29135e-06
1.05107e-06
1.05475e-06
1.07173e-06
1.07108e-06
1.05527e-06
1.06769e-06
1.07047e-06
1.28704e-06
1.29648e-06
1.05737e-06
1.07076e-06
1.07122e-06
1.29594e-06
1.30506e-06
1.32819e-06
1.08102e-06
1.0774e-06
1.10271e-06
1.10517e-06
1.29879e-06
1.33003e-06
1.0805e-06
1.0769e-06
1.10287e-06
1.09824e-06
1.0778e-06
1.10277e-06
1.10209e-06
1.30118e-06
1.31814e-06
1.07674e-06
1.09583e-06
1.09828e-06
1.32326e-06
1.33207e-06
1.33391e-06
1.10647e-06
1.11072e-06
1.11491e-06
1.1164e-06
1.33554e-06
1.33448e-06
1.10686e-06
1.10574e-06
1.11512e-06
1.12129e-06
1.10725e-06
1.11601e-06
1.11637e-06
1.32487e-06
1.34094e-06
1.10468e-06
1.12248e-06
1.1172e-06
1.3352e-06
1.33671e-06
1.34468e-06
1.11864e-06
1.11825e-06
1.13208e-06
1.12904e-06
1.33582e-06
1.33982e-06
1.11843e-06
1.12411e-06
1.13122e-06
1.13233e-06
1.12043e-06
1.12959e-06
1.13573e-06
1.34448e-06
1.3466e-06
1.12197e-06
1.13311e-06
1.1363e-06
1.35066e-06
1.34882e-06
1.3634e-06
1.13685e-06
1.13449e-06
1.15461e-06
1.15667e-06
1.3449e-06
1.37006e-06
1.13604e-06
1.13612e-06
1.15322e-06
1.15222e-06
1.13989e-06
1.15673e-06
1.15225e-06
1.3492e-06
1.36171e-06
1.13988e-06
1.15207e-06
1.15219e-06
1.36243e-06
1.37043e-06
1.38918e-06
1.16165e-06
1.16533e-06
1.17911e-06
1.18176e-06
1.37859e-06
1.39553e-06
1.16e-06
1.15914e-06
1.17742e-06
1.17851e-06
1.15808e-06
1.1811e-06
1.17738e-06
1.36894e-06
1.38897e-06
1.15811e-06
1.17814e-06
1.1769e-06
1.38735e-06
1.39307e-06
1.39524e-06
1.18268e-06
1.18305e-06
1.18959e-06
1.18395e-06
1.39741e-06
1.38708e-06
1.18115e-06
1.18256e-06
1.18853e-06
1.19023e-06
1.18193e-06
1.18429e-06
1.19015e-06
1.39306e-06
1.39697e-06
1.1811e-06
1.18976e-06
1.18906e-06
1.39525e-06
1.39776e-06
1.40465e-06
1.19178e-06
1.18541e-06
1.20022e-06
1.1964e-06
1.38828e-06
1.39672e-06
1.19101e-06
1.19256e-06
1.20088e-06
1.20201e-06
1.19253e-06
1.19658e-06
1.20164e-06
1.39992e-06
1.40747e-06
1.19179e-06
1.20243e-06
1.20281e-06
1.40677e-06
1.40862e-06
1.41725e-06
1.20361e-06
1.20201e-06
1.21568e-06
1.21904e-06
1.40334e-06
1.4239e-06
1.20443e-06
1.20558e-06
1.21478e-06
1.21421e-06
1.20499e-06
1.21921e-06
1.21557e-06
1.41084e-06
1.41439e-06
1.20655e-06
1.21355e-06
1.21507e-06
1.41744e-06
1.42175e-06
1.43352e-06
1.22029e-06
1.22279e-06
1.23169e-06
1.22939e-06
1.42846e-06
1.43249e-06
1.219e-06
1.21727e-06
1.23194e-06
1.23115e-06
1.22006e-06
1.22932e-06
1.23313e-06
1.41774e-06
1.43188e-06
1.21846e-06
1.23074e-06
1.23187e-06
1.43411e-06
1.43699e-06
1.44088e-06
1.23409e-06
1.2317e-06
1.24048e-06
1.24103e-06
1.43506e-06
1.44172e-06
1.23519e-06
1.2368e-06
1.2421e-06
1.24812e-06
1.23607e-06
1.24161e-06
1.24216e-06
1.43803e-06
1.45034e-06
1.23595e-06
1.2486e-06
1.24333e-06
1.44273e-06
1.44406e-06
1.4536e-06
1.24335e-06
1.24456e-06
1.25437e-06
1.25288e-06
1.44597e-06
1.45287e-06
1.24433e-06
1.24933e-06
1.25297e-06
1.25044e-06
1.24449e-06
1.2533e-06
1.25456e-06
1.45289e-06
1.45015e-06
1.24518e-06
1.25067e-06
1.25295e-06
1.45374e-06
1.45757e-06
1.46038e-06
1.25773e-06
1.25458e-06
1.26246e-06
1.25976e-06
1.45502e-06
1.45604e-06
1.25606e-06
1.2514e-06
1.26192e-06
1.25809e-06
1.25796e-06
1.25935e-06
1.26254e-06
1.45162e-06
1.45387e-06
1.25608e-06
1.25756e-06
1.26226e-06
1.4611e-06
1.46223e-06
1.46575e-06
1.2634e-06
1.26215e-06
1.26862e-06
1.2711e-06
1.45902e-06
1.46876e-06
1.26312e-06
1.26119e-06
1.26837e-06
1.27086e-06
1.26322e-06
1.27052e-06
1.26793e-06
1.45738e-06
1.46815e-06
1.26329e-06
1.27062e-06
1.26801e-06
1.46512e-06
1.46962e-06
1.48053e-06
1.2714e-06
1.27405e-06
1.2809e-06
1.28005e-06
1.47324e-06
1.48043e-06
1.2711e-06
1.27378e-06
1.28062e-06
1.2809e-06
1.27052e-06
1.27983e-06
1.27968e-06
1.47256e-06
1.48121e-06
1.27048e-06
1.28091e-06
1.27962e-06
1.47888e-06
1.48407e-06
1.4856e-06
1.28325e-06
1.28168e-06
1.28621e-06
1.28627e-06
1.48323e-06
1.48668e-06
1.28287e-06
1.28267e-06
1.28569e-06
1.28612e-06
1.28258e-06
1.28676e-06
1.28764e-06
1.48441e-06
1.48672e-06
1.2825e-06
1.28697e-06
1.28711e-06
1.48672e-06
1.48731e-06
1.48674e-06
1.28666e-06
1.2872e-06
1.28831e-06
1.28876e-06
1.48868e-06
1.48585e-06
1.28632e-06
1.28691e-06
1.28855e-06
1.28963e-06
1.28823e-06
1.28911e-06
1.28942e-06
1.48843e-06
1.487e-06
1.2877e-06
1.28949e-06
1.28959e-06
1.48815e-06
1.48881e-06
1.4937e-06
1.28921e-06
1.28953e-06
1.29464e-06
1.29467e-06
1.48775e-06
1.49396e-06
1.28952e-06
1.29063e-06
1.29434e-06
1.29449e-06
1.2903e-06
1.29497e-06
1.29482e-06
1.48921e-06
1.49313e-06
1.29073e-06
1.29476e-06
1.29445e-06
1.49447e-06
1.49758e-06
1.50278e-06
1.29708e-06
1.29691e-06
1.30195e-06
1.30111e-06
1.49777e-06
1.50141e-06
1.29664e-06
1.29643e-06
1.30206e-06
1.30274e-06
1.29642e-06
1.30121e-06
1.29974e-06
1.49621e-06
1.50314e-06
1.29534e-06
1.30187e-06
1.29951e-06
1.49886e-06
1.50459e-06
1.50476e-06
1.30245e-06
1.3018e-06
1.30445e-06
1.30532e-06
1.50355e-06
1.50775e-06
1.30272e-06
1.30406e-06
1.30425e-06
1.3058e-06
1.30103e-06
1.30573e-06
1.30596e-06
1.5065e-06
1.50912e-06
1.30175e-06
1.3073e-06
1.30714e-06
1.50849e-06
1.50746e-06
1.51189e-06
1.30574e-06
1.30672e-06
1.30908e-06
1.30794e-06
1.5109e-06
1.51008e-06
1.30525e-06
1.30634e-06
1.30836e-06
1.30774e-06
1.30704e-06
1.3078e-06
1.30758e-06
1.5109e-06
1.50943e-06
1.3075e-06
1.30704e-06
1.30665e-06
1.5085e-06
1.5138e-06
1.50982e-06
1.30921e-06
1.3074e-06
1.30803e-06
1.30655e-06
1.51127e-06
1.50716e-06
1.3086e-06
1.30775e-06
1.30757e-06
1.30678e-06
1.30736e-06
1.30653e-06
1.30761e-06
1.51093e-06
1.50739e-06
1.30656e-06
1.30679e-06
1.30763e-06
1.50993e-06
1.51123e-06
1.51162e-06
1.30789e-06
1.30681e-06
1.30876e-06
1.30937e-06
1.50933e-06
1.5133e-06
1.30737e-06
1.30672e-06
1.30815e-06
1.30885e-06
1.30814e-06
1.30969e-06
1.31024e-06
1.50889e-06
1.51219e-06
1.30825e-06
1.30982e-06
1.30995e-06
1.51514e-06
1.51404e-06
1.51666e-06
1.30939e-06
1.31031e-06
1.31129e-06
1.3114e-06
1.51626e-06
1.5171e-06
1.30896e-06
1.31008e-06
1.31164e-06
1.312e-06
1.31064e-06
1.3112e-06
1.30977e-06
1.51564e-06
1.51827e-06
1.3101e-06
1.31163e-06
1.30911e-06
1.51355e-06
1.51883e-06
1.51591e-06
1.3115e-06
1.31105e-06
1.31001e-06
1.30909e-06
1.5184e-06
1.51423e-06
1.31194e-06
1.31153e-06
1.3098e-06
1.3077e-06
1.30921e-06
1.30864e-06
1.30849e-06
1.51946e-06
1.51157e-06
1.30862e-06
1.30707e-06
1.30798e-06
1.5133e-06
1.51714e-06
1.51287e-06
1.30911e-06
1.30856e-06
1.30754e-06
1.30772e-06
1.51561e-06
1.51471e-06
1.30867e-06
1.30679e-06
1.30685e-06
1.30642e-06
1.30847e-06
1.30806e-06
1.30853e-06
1.51268e-06
1.51226e-06
1.30799e-06
1.30703e-06
1.30824e-06
1.51599e-06
1.51512e-06
1.51895e-06
1.3076e-06
1.30776e-06
1.30942e-06
1.30844e-06
1.51692e-06
1.51843e-06
1.307e-06
1.30741e-06
1.30939e-06
1.31054e-06
1.30863e-06
1.30874e-06
1.30917e-06
1.51543e-06
1.52217e-06
1.30852e-06
1.31084e-06
1.30946e-06
1.51883e-06
1.52149e-06
1.51891e-06
1.30976e-06
1.3084e-06
1.30787e-06
1.30614e-06
1.52014e-06
1.5164e-06
1.30986e-06
1.31085e-06
1.30794e-06
1.30747e-06
1.30912e-06
1.30591e-06
1.30682e-06
1.52452e-06
1.51894e-06
1.30941e-06
1.30671e-06
1.30656e-06
1.51776e-06
1.52022e-06
1.51484e-06
1.30661e-06
1.30533e-06
1.30271e-06
1.30266e-06
1.51783e-06
1.51559e-06
1.30654e-06
1.30579e-06
1.30231e-06
1.30102e-06
1.30597e-06
1.30262e-06
1.30299e-06
1.52e-06
1.51213e-06
1.30544e-06
1.30067e-06
1.30196e-06
1.51538e-06
1.51602e-06
1.5058e-06
1.3012e-06
1.3012e-06
1.29508e-06
1.29494e-06
1.51683e-06
1.50608e-06
1.30067e-06
1.29924e-06
1.29431e-06
1.29352e-06
1.30145e-06
1.29476e-06
1.2949e-06
1.51319e-06
1.50367e-06
1.30048e-06
1.29383e-06
1.29447e-06
1.50575e-06
1.50673e-06
1.5071e-06
1.29331e-06
1.29312e-06
1.29244e-06
1.29228e-06
1.50691e-06
1.50679e-06
1.29268e-06
1.29251e-06
1.2923e-06
1.29383e-06
1.29301e-06
1.29205e-06
1.2922e-06
1.5049e-06
1.50976e-06
1.29284e-06
1.2942e-06
1.29258e-06
1.50696e-06
1.51107e-06
1.51868e-06
1.29369e-06
1.29366e-06
1.2958e-06
1.29605e-06
1.51082e-06
1.51913e-06
1.29374e-06
1.2956e-06
1.29591e-06
1.29768e-06
1.29364e-06
1.29598e-06
1.29615e-06
1.5145e-06
1.52182e-06
1.29416e-06
1.2979e-06
1.29655e-06
1.51954e-06
1.52018e-06
1.49948e-06
1.29442e-06
1.29483e-06
1.2794e-06
1.27949e-06
1.5207e-06
1.49945e-06
1.29441e-06
1.29556e-06
1.27922e-06
1.2792e-06
1.29495e-06
1.27955e-06
1.27972e-06
1.523e-06
1.49887e-06
1.2951e-06
1.27913e-06
1.27949e-06
1.49986e-06
1.49834e-06
1.46348e-06
1.27293e-06
1.27288e-06
1.25395e-06
1.25367e-06
1.49824e-06
1.46298e-06
1.27267e-06
1.27229e-06
1.25358e-06
1.2528e-06
1.27314e-06
1.25373e-06
1.25393e-06
1.49738e-06
1.46115e-06
1.2728e-06
1.25265e-06
1.25347e-06
1.46317e-06
1.46356e-06
1.46798e-06
1.2509e-06
1.25063e-06
1.25543e-06
1.25542e-06
1.46307e-06
1.46811e-06
1.25054e-06
1.24986e-06
1.25513e-06
1.25504e-06
1.25086e-06
1.25546e-06
1.25544e-06
1.46125e-06
1.46709e-06
1.25043e-06
1.25499e-06
1.25516e-06
1.46787e-06
1.4766e-06
1.52132e-06
1.26219e-06
1.26228e-06
1.28558e-06
1.28594e-06
1.47688e-06
1.52209e-06
1.2619e-06
1.26198e-06
1.28538e-06
1.28598e-06
1.26224e-06
1.28597e-06
1.28578e-06
1.47606e-06
1.52211e-06
1.26199e-06
1.28601e-06
1.28565e-06
1.52171e-06
1.53145e-06
1.54309e-06
1.29179e-06
1.29215e-06
1.29291e-06
1.29313e-06
1.53223e-06
1.54357e-06
1.2916e-06
1.29223e-06
1.29277e-06
1.29326e-06
1.29201e-06
1.29318e-06
1.29312e-06
1.53231e-06
1.54386e-06
1.29188e-06
1.29328e-06
1.29298e-06
1.54352e-06
1.54385e-06
1.50204e-06
1.28661e-06
1.28673e-06
1.25616e-06
1.25605e-06
1.54428e-06
1.50188e-06
1.28649e-06
1.28688e-06
1.25606e-06
1.25624e-06
1.28679e-06
1.25609e-06
1.25626e-06
1.54457e-06
1.50222e-06
1.28665e-06
1.25624e-06
1.25613e-06
1.50222e-06
1.49831e-06
1.42389e-06
1.24395e-06
1.24378e-06
1.20018e-06
1.19994e-06
1.4981e-06
1.42353e-06
1.24385e-06
1.24396e-06
1.20007e-06
1.20009e-06
1.24401e-06
1.19997e-06
1.20021e-06
1.49842e-06
1.42372e-06
1.24389e-06
1.2001e-06
1.2001e-06
1.42391e-06
1.41904e-06
1.35567e-06
1.1877e-06
1.18748e-06
1.15514e-06
1.155e-06
1.41869e-06
1.35554e-06
1.18758e-06
1.18759e-06
1.15498e-06
1.15506e-06
1.18772e-06
1.15501e-06
1.15518e-06
1.41887e-06
1.35558e-06
1.18761e-06
1.1551e-06
1.15506e-06
1.35575e-06
1.35397e-06
1.32923e-06
1.14974e-06
1.14963e-06
1.13043e-06
1.13035e-06
1.35387e-06
1.32934e-06
1.14957e-06
1.14967e-06
1.13029e-06
1.13035e-06
1.14979e-06
1.13046e-06
1.13044e-06
1.35389e-06
1.3293e-06
1.14967e-06
1.1305e-06
1.13036e-06
1.32935e-06
1.31929e-06
1.10513e-06
1.10508e-06
1.31941e-06
1.10503e-06
1.10508e-06
6.86378e-07
6.8639e-07
6.86371e-07
1.10514e-06
1.31938e-06
1.10509e-06
4.3189e-09
2.45378e-09
2.56368e-09
2.57704e-09
1.80308e-09
4.09397e-09
6.16383e-08
1.49474e-09
1.76718e-09
4.41447e-09
1.51942e-09
1.10214e-08
5.19582e-09
7.65212e-09
1.39261e-08
7.40007e-09
1.65051e-07
6.05321e-09
2.61172e-07
1.5659e-06
3.11127e-06
8.60106e-09
1.64479e-07
7.28768e-09
2.60862e-07
2.22576e-09
2.28353e-09
2.83898e-09
2.28651e-09
2.20337e-09
2.2637e-09
2.82587e-09
1.75415e-09
1.30721e-07
1.41112e-09
3.49727e-09
1.80247e-09
8.39985e-08
1.39686e-09
1.62522e-06
3.21169e-06
1.79468e-09
2.11742e-09
9.1692e-08
4.90176e-09
1.78763e-09
2.07801e-09
6.84284e-08
2.19525e-07
2.20772e-07
4.84748e-09
1.88646e-07
1.93195e-07
1.68646e-08
4.66326e-07
1.20677e-08
6.85562e-07
6.96512e-06
1.00703e-05
1.77548e-08
4.65362e-07
1.29237e-08
6.8256e-07
2.1897e-09
2.2489e-09
2.80913e-09
2.22826e-09
2.14964e-09
2.20532e-09
2.75378e-09
1.49898e-09