/*--------------------------------*- C++ -*----------------------------------*\
| =========                 |                                                 |
| \\      /  F ield         | OpenFOAM: The Open Source CFD Toolbox           |
|  \\    /   O peration     | Version:  v2012                                 |
|   \\  /    A nd           | Website:  www.openfoam.com                      |
|    \\/     M anipulation  |                                                 |
\*---------------------------------------------------------------------------*/
FoamFile
{
    version     2.0;
    format      ascii;
    class       volScalarField;
    location    "400";
    object      k;
}
// * * * * * * * * * * * * * * * * * * * * * * * * * * * * * * * * * * * * * //

dimensions      [0 2 -2 0 0 0 0];


internalField   nonuniform List<scalar> 
171728
(
3.42426e-07
2.90576e-07
3.42817e-07
3.58848e-07
3.40035e-07
2.74548e-07
3.30853e-07
3.40315e-07
3.37485e-07
2.61469e-07
3.19208e-07
3.24531e-07
3.34999e-07
2.49817e-07
3.08438e-07
3.10646e-07
3.32746e-07
2.39267e-07
2.951e-07
2.97099e-07
3.30762e-07
2.29926e-07
2.79022e-07
2.86986e-07
3.28994e-07
2.21594e-07
2.62045e-07
2.82201e-07
3.27563e-07
2.13922e-07
2.45288e-07
2.81769e-07
3.26431e-07
2.06849e-07
2.32282e-07
2.87065e-07
3.25626e-07
2.00791e-07
2.22147e-07
3.03036e-07
3.25171e-07
1.96168e-07
2.16039e-07
3.26829e-07
3.24909e-07
1.92678e-07
2.12206e-07
3.26957e-07
3.24955e-07
1.90042e-07
2.07821e-07
2.41181e-07
3.25141e-07
1.88584e-07
2.05332e-07
2.07111e-07
3.25652e-07
1.89249e-07
2.05228e-07
1.96698e-07
3.26495e-07
1.9272e-07
2.08388e-07
1.95396e-07
3.27628e-07
2.02706e-07
2.17022e-07
2.02808e-07
3.29002e-07
2.17858e-07
2.33069e-07
2.20832e-07
3.30838e-07
2.47404e-07
2.62255e-07
2.58954e-07
3.32982e-07
2.95713e-07
3.10216e-07
3.29595e-07
3.35478e-07
3.70254e-07
3.8518e-07
4.45357e-07
3.38488e-07
4.8203e-07
5.00347e-07
6.76723e-07
3.42829e-07
6.41026e-07
6.8584e-07
1.09213e-06
3.47791e-07
8.70143e-07
8.79632e-07
1.72312e-06
3.54582e-07
1.22089e-06
1.19141e-06
2.61871e-06
3.63645e-07
1.61415e-06
1.6766e-06
3.94189e-06
3.76031e-07
2.13299e-06
2.13173e-06
5.5751e-06
3.92057e-07
2.72584e-06
2.78228e-06
7.67661e-06
4.16693e-07
3.65207e-06
3.49885e-06
1.00709e-05
4.44308e-07
4.2681e-06
4.3971e-06
1.25107e-05
4.89099e-07
5.34261e-06
5.44968e-06
1.50411e-05
5.45613e-07
6.67078e-06
6.41306e-06
1.74185e-05
6.14089e-07
7.53039e-06
7.88729e-06
1.96849e-05
7.15301e-07
9.28034e-06
8.96418e-06
2.16665e-05
8.45107e-07
1.04509e-05
1.07668e-05
2.34838e-05
1.01319e-06
1.21543e-05
1.2069e-05
2.52282e-05
1.20543e-06
1.3838e-05
1.37688e-05
2.66435e-05
1.4862e-06
1.54181e-05
1.54482e-05
2.80783e-05
1.7723e-06
1.71916e-05
1.73752e-05
2.94174e-05
2.17999e-06
1.91727e-05
1.89012e-05
3.06065e-05
2.67918e-06
2.08356e-05
2.10411e-05
3.18409e-05
3.14507e-06
2.26086e-05
2.24767e-05
3.28472e-05
3.79598e-06
2.48663e-05
2.47282e-05
3.43584e-05
4.67823e-06
2.55861e-05
2.59996e-05
3.50853e-05
5.10526e-06
2.83362e-05
2.82308e-05
3.62213e-05
6.65937e-06
2.99364e-05
2.94107e-05
3.76028e-05
7.04476e-06
3.03252e-05
3.15952e-05
3.81151e-05
8.72521e-06
3.33892e-05
3.25008e-05
3.97728e-05
9.47164e-06
3.39228e-05
3.45948e-05
4.01091e-05
1.14899e-05
3.60292e-05
3.51352e-05
4.1712e-05
1.18785e-05
3.67058e-05
3.74955e-05
4.2315e-05
1.4459e-05
3.80601e-05
3.82348e-05
4.32725e-05
1.51686e-05
3.92829e-05
3.90176e-05
4.41639e-05
1.75982e-05
4.10934e-05
4.07971e-05
4.53081e-05
1.80818e-05
4.09247e-05
4.15955e-05
4.55196e-05
1.97394e-05
4.25987e-05
4.183e-05
4.67447e-05
2.27555e-05
4.42907e-05
4.42276e-05
4.75725e-05
2.34796e-05
4.40214e-05
4.47171e-05
4.80969e-05
2.38222e-05
4.43694e-05
4.45804e-05
4.8231e-05
2.57491e-05
4.73001e-05
4.66577e-05
4.97862e-05
2.84547e-05
4.78026e-05
4.75482e-05
5.03024e-05
2.89691e-05
4.71587e-05
4.79492e-05
5.05339e-05
2.97924e-05
4.84816e-05
4.84374e-05
5.10257e-05
3.1133e-05
4.96837e-05
4.864e-05
5.18831e-05
3.29307e-05
4.98296e-05
5.06802e-05
5.25133e-05
3.34366e-05
5.09788e-05
5.1065e-05
5.2769e-05
3.49019e-05
5.12352e-05
5.09766e-05
5.36823e-05
3.58835e-05
5.13547e-05
5.14094e-05
5.34521e-05
3.62221e-05
5.24327e-05
5.24581e-05
5.40573e-05
3.78997e-05
5.32996e-05
5.33289e-05
5.49932e-05
3.89306e-05
5.33823e-05
5.33263e-05
5.49893e-05
3.90565e-05
5.32983e-05
5.34637e-05
5.52721e-05
4.01055e-05
5.42072e-05
5.3952e-05
5.54064e-05
4.09213e-05
5.44851e-05
5.48887e-05
5.61181e-05
4.16415e-05
5.52084e-05
5.51088e-05
5.64809e-05
4.25954e-05
5.51359e-05
5.50656e-05
5.63336e-05
4.27145e-05
5.51384e-05
5.51129e-05
5.68103e-05
4.30782e-05
5.5874e-05
5.59774e-05
5.70573e-05
4.40856e-05
5.59356e-05
5.59806e-05
5.68688e-05
4.4245e-05
5.58434e-05
5.56379e-05
5.71024e-05
4.42351e-05
5.62683e-05
5.62737e-05
5.73954e-05
4.50982e-05
5.64484e-05
5.6759e-05
5.76603e-05
4.56011e-05
5.66351e-05
5.66562e-05
5.78276e-05
4.55555e-05
5.65223e-05
5.61027e-05
5.75732e-05
4.51542e-05
5.58863e-05
5.57963e-05
5.68054e-05
4.58698e-05
5.70263e-05
5.73575e-05
5.83784e-05
4.68936e-05
5.77743e-05
5.79282e-05
5.92366e-05
4.59051e-05
5.55858e-05
5.54669e-05
5.66452e-05
4.36944e-05
5.33303e-05
5.32249e-05
5.40607e-05
4.39493e-05
5.50308e-05
5.50277e-05
5.64756e-05
4.8426e-05
5.95948e-05
5.96117e-05
6.10754e-05
5.00629e-05
6.0616e-05
6.06365e-05
6.2229e-05
4.8015e-05
5.74948e-05
5.75082e-05
5.89748e-05
4.30425e-05
5.23235e-05
5.23283e-05
5.36083e-05
3.86698e-05
4.727e-05
4.72691e-05
4.89997e-05
3.56549e-07
3.49454e-07
3.37811e-07
3.38789e-07
3.47107e-07
3.47111e-07
3.42909e-07
3.29513e-07
3.40022e-07
3.5562e-07
3.27048e-07
3.51091e-07
3.58197e-07
3.41088e-07
3.32838e-07
3.61318e-07
3.55344e-07
3.39434e-07
3.491e-07
3.38881e-07
3.34636e-07
3.25622e-07
3.37666e-07
3.21568e-07
3.53279e-07
3.51205e-07
3.39062e-07
3.37047e-07
3.48602e-07
2.77994e-07
3.34764e-07
3.57097e-07
3.40985e-07
3.83368e-07
3.34038e-07
3.70244e-07
3.43267e-07
3.3804e-07
3.22835e-07
3.29905e-07
3.2122e-07
3.16393e-07
3.08487e-07
3.20296e-07
3.05772e-07
3.34404e-07
3.32372e-07
3.21147e-07
3.19132e-07
3.30167e-07
2.64609e-07
3.17233e-07
3.39636e-07
3.2478e-07
3.67432e-07
3.21849e-07
3.60874e-07
3.27211e-07
3.21533e-07
3.07073e-07
3.12016e-07
3.04515e-07
2.99871e-07
2.93099e-07
3.04684e-07
2.91918e-07
3.16927e-07
3.14988e-07
3.04725e-07
3.03029e-07
3.12964e-07
2.52614e-07
3.00766e-07
3.23439e-07
3.10031e-07
3.59221e-07
3.11392e-07
3.56003e-07
3.13212e-07
3.05879e-07
2.92706e-07
2.96005e-07
2.88973e-07
2.85423e-07
2.76537e-07
2.90937e-07
2.78662e-07
3.01012e-07
2.99112e-07
2.90277e-07
2.88425e-07
2.96795e-07
2.41782e-07
2.85733e-07
3.08562e-07
2.95941e-07
3.55364e-07
2.98608e-07
3.54457e-07
2.9955e-07
2.91662e-07
2.80085e-07
2.81991e-07
2.72379e-07
2.7258e-07
2.60473e-07
2.77684e-07
2.65527e-07
2.86883e-07
2.85072e-07
2.77218e-07
2.75424e-07
2.82247e-07
2.32075e-07
2.72453e-07
2.94607e-07
2.82553e-07
3.54462e-07
2.83215e-07
3.58374e-07
2.88548e-07
2.79162e-07
2.68763e-07
2.69604e-07
2.57137e-07
2.608e-07
2.49082e-07
2.64614e-07
2.54353e-07
2.74075e-07
2.72367e-07
2.65129e-07
2.63737e-07
2.69369e-07
2.2351e-07
2.6048e-07
2.81518e-07
2.7035e-07
3.60575e-07
2.6624e-07
3.70946e-07
2.83107e-07
2.67905e-07
2.58066e-07
2.58093e-07
2.4649e-07
2.50213e-07
2.37778e-07
2.53676e-07
2.45147e-07
2.62207e-07
2.61097e-07
2.53952e-07
2.53077e-07
2.57651e-07
2.15704e-07
2.4952e-07
2.69472e-07
2.5927e-07
3.74984e-07
2.49211e-07
3.9186e-07
2.82208e-07
2.57262e-07
2.48092e-07
2.47772e-07
2.34709e-07
2.40702e-07
2.26094e-07
2.446e-07
2.36673e-07
2.51314e-07
2.50494e-07
2.44211e-07
2.43366e-07
2.47039e-07
2.08505e-07
2.39944e-07
2.58466e-07
2.48897e-07
4.01428e-07
2.3509e-07
4.23455e-07
2.86945e-07
2.47385e-07
2.39084e-07
2.38506e-07
2.23527e-07
2.32428e-07
2.16886e-07
2.3619e-07
2.2815e-07
2.41971e-07
2.4118e-07
2.35929e-07
2.35089e-07
2.37972e-07
2.02099e-07
2.32756e-07
2.4821e-07
2.39571e-07
4.31317e-07
2.24582e-07
4.92383e-07
3.01842e-07
2.38491e-07
2.30904e-07
2.30572e-07
2.14819e-07
2.25527e-07
2.08875e-07
2.27717e-07
2.19615e-07
2.3398e-07
2.3323e-07
2.28695e-07
2.27941e-07
2.31338e-07
1.97137e-07
2.28234e-07
2.39005e-07
2.31072e-07
5.24999e-07
2.1702e-07
6.12759e-07
3.26686e-07
2.30446e-07
2.23828e-07
2.2401e-07
2.07183e-07
2.19708e-07
2.02928e-07
2.19297e-07
2.12261e-07
2.27061e-07
2.26271e-07
2.22738e-07
2.21679e-07
2.27497e-07
1.93408e-07
2.23676e-07
2.30619e-07
2.2343e-07
6.28188e-07
2.1328e-07
6.34865e-07
3.31171e-07
2.23515e-07
2.17859e-07
2.1842e-07
2.01511e-07
2.15332e-07
1.97282e-07
2.12078e-07
2.06033e-07
2.21482e-07
2.2036e-07
2.18196e-07
2.16721e-07
2.21911e-07
1.90653e-07
2.16415e-07
2.23124e-07
2.16967e-07
6.2113e-07
2.08693e-07
4.32412e-07
2.45245e-07
2.17734e-07
2.13232e-07
2.14361e-07
1.96283e-07
2.12377e-07
1.94712e-07
2.06046e-07
2.01181e-07
2.17355e-07
2.15784e-07
2.15389e-07
2.13505e-07
2.14953e-07
1.88544e-07
2.11381e-07
2.16845e-07
2.11914e-07
3.76216e-07
2.05724e-07
2.50545e-07
2.0846e-07
2.13364e-07
2.10654e-07
2.12001e-07
1.94514e-07
2.1178e-07
1.94842e-07
2.01513e-07
1.98642e-07
2.14896e-07
2.12868e-07
2.14475e-07
2.12142e-07
2.10739e-07
1.89107e-07
2.1055e-07
2.12031e-07
2.08916e-07
2.23653e-07
2.05064e-07
1.82091e-07
1.96347e-07
2.11226e-07
2.10927e-07
2.12e-07
1.94968e-07
2.13803e-07
1.96128e-07
1.99358e-07
1.97696e-07
2.14575e-07
2.12173e-07
2.15994e-07
2.13532e-07
2.10835e-07
1.91384e-07
2.12713e-07
2.09426e-07
2.08957e-07
1.76727e-07
2.0705e-07
1.71096e-07
1.94002e-07
2.12402e-07
2.1601e-07
2.14856e-07
1.96833e-07
2.20055e-07
2.05941e-07
1.9872e-07
2.06686e-07
2.17035e-07
2.14784e-07
2.21987e-07
2.20009e-07
2.1384e-07
2.01099e-07
2.19203e-07
2.10444e-07
2.13615e-07
1.71044e-07
2.13763e-07
1.72979e-07
1.99416e-07
2.18477e-07
2.33191e-07
2.22019e-07
2.07954e-07
2.35606e-07
2.13264e-07
2.09619e-07
2.13903e-07
2.24484e-07
2.2311e-07
2.38444e-07
2.34075e-07
2.21779e-07
2.12891e-07
2.33015e-07
2.1763e-07
2.27027e-07
1.75877e-07
2.27708e-07
1.91118e-07
2.1508e-07
2.38416e-07
2.63043e-07
2.38332e-07
2.17059e-07
2.61798e-07
2.40584e-07
2.20411e-07
2.50002e-07
2.41194e-07
2.39787e-07
2.65012e-07
2.60685e-07
2.37915e-07
2.39661e-07
2.58964e-07
2.34442e-07
2.58925e-07
1.97572e-07
2.54555e-07
2.21911e-07
2.48033e-07
2.78188e-07
3.0942e-07
2.69207e-07
2.49415e-07
3.00218e-07
2.84034e-07
2.61512e-07
3.10248e-07
2.72075e-07
2.68238e-07
3.03839e-07
3.02952e-07
2.67606e-07
2.82254e-07
3.00834e-07
2.7256e-07
3.15231e-07
2.31299e-07
2.96539e-07
2.68524e-07
3.06013e-07
3.42303e-07
4.29308e-07
3.22495e-07
2.99845e-07
3.63504e-07
3.54019e-07
3.29656e-07
4.24362e-07
3.24275e-07
3.16567e-07
3.66405e-07
3.69779e-07
3.16652e-07
3.47912e-07
3.64807e-07
3.43634e-07
4.25674e-07
2.86734e-07
3.6378e-07
3.3451e-07
4.12811e-07
4.51239e-07
6.56453e-07
3.85801e-07
3.77704e-07
4.72179e-07
4.61939e-07
4.55099e-07
6.3778e-07
3.89097e-07
3.90668e-07
4.71024e-07
4.78608e-07
3.90191e-07
4.481e-07
4.66553e-07
4.75407e-07
6.2438e-07
3.60697e-07
4.70406e-07
4.4084e-07
6.31e-07
6.9981e-07
9.87082e-07
4.95096e-07
4.97762e-07
6.24186e-07
6.25395e-07
6.87085e-07
1.0174e-06
4.94253e-07
5.07978e-07
6.26219e-07
6.2938e-07
4.98975e-07
5.95438e-07
6.20943e-07
7.10806e-07
9.41065e-07
4.73599e-07
6.23423e-07
5.97253e-07
9.98298e-07
1.11451e-06
1.57277e-06
6.78818e-07
6.71367e-07
8.33963e-07
8.61687e-07
1.09773e-06
1.6233e-06
6.82674e-07
6.96188e-07
8.30672e-07
7.92939e-07
6.64768e-07
8.23697e-07
8.45014e-07
1.06635e-06
1.462e-06
6.42158e-07
7.85751e-07
8.20953e-07
1.56809e-06
1.68366e-06
2.429e-06
9.00116e-07
9.15798e-07
1.12634e-06
1.19586e-06
1.79057e-06
2.40996e-06
8.93797e-07
8.75622e-07
1.12836e-06
1.18949e-06
9.05092e-07
1.14e-06
1.13137e-06
1.51055e-06
2.75635e-06
8.82777e-07
1.16847e-06
1.11452e-06
2.39495e-06
2.64626e-06
3.67246e-06
1.20994e-06
1.27977e-06
1.54634e-06
1.55949e-06
2.69854e-06
3.52175e-06
1.21145e-06
1.2125e-06
1.53731e-06
1.47627e-06
1.21564e-06
1.46098e-06
1.53233e-06
2.8386e-06
3.24471e-06
1.1966e-06
1.4888e-06
1.5132e-06
3.64304e-06
3.9906e-06
5.18162e-06
1.64696e-06
1.72034e-06
2.01202e-06
2.20185e-06
3.81806e-06
5.59088e-06
1.64154e-06
1.67423e-06
2.00605e-06
2.08811e-06
1.64244e-06
2.07264e-06
2.02036e-06
3.79478e-06
5.7584e-06
1.61986e-06
2.06098e-06
2.00253e-06
5.23053e-06
5.51691e-06
7.3274e-06
2.16329e-06
2.26905e-06
2.62306e-06
2.62069e-06
5.87008e-06
6.61043e-06
2.15508e-06
2.16587e-06
2.62396e-06
2.57341e-06
2.15986e-06
2.43844e-06
2.6185e-06
5.94201e-06
6.88356e-06
2.14423e-06
2.56876e-06
2.599e-06
7.26088e-06
7.73396e-06
9.51951e-06
2.78623e-06
2.90437e-06
3.34486e-06
3.68265e-06
7.01843e-06
1.06832e-05
2.78105e-06
2.7857e-06
3.31743e-06
3.32203e-06
2.79041e-06
3.52186e-06
3.34371e-06
7.33776e-06
9.76448e-06
2.77589e-06
3.29989e-06
3.32566e-06
9.57582e-06
1.00079e-05
1.21161e-05
3.57017e-06
3.80672e-06
4.15827e-06
4.10641e-06
1.11624e-05
1.15205e-05
3.54751e-06
3.51893e-06
4.16984e-06
4.23121e-06
3.54532e-06
4.02297e-06
4.18608e-06
1.02146e-05
1.20228e-05
3.52863e-06
4.21358e-06
4.16635e-06
1.20254e-05
1.25696e-05
1.44566e-05
4.35811e-06
4.32258e-06
5.16778e-06
5.11792e-06
1.18719e-05
1.43076e-05
4.36832e-06
4.42222e-06
5.15139e-06
5.1316e-06
4.40293e-06
5.06838e-06
5.18118e-06
1.26152e-05
1.44441e-05
4.38266e-06
5.11822e-06
5.15674e-06
1.45435e-05
1.50081e-05
1.70258e-05
5.44626e-06
5.40223e-06
6.26298e-06
6.41261e-06
1.48498e-05
1.73623e-05
5.42743e-06
5.46981e-06
6.23855e-06
6.20491e-06
5.44413e-06
6.37257e-06
6.21707e-06
1.48886e-05
1.70756e-05
5.42348e-06
6.16593e-06
6.19e-06
1.69355e-05
1.74969e-05
1.90973e-05
6.56019e-06
6.6986e-06
7.41782e-06
7.2549e-06
1.7812e-05
1.8923e-05
6.53095e-06
6.45622e-06
7.41927e-06
7.56329e-06
6.51355e-06
7.24036e-06
7.51488e-06
1.76024e-05
1.90004e-05
6.49518e-06
7.56123e-06
7.4969e-06
1.92171e-05
1.95687e-05
2.12771e-05
7.73449e-06
7.54531e-06
8.81936e-06
8.91908e-06
1.93878e-05
2.12027e-05
7.74483e-06
7.88958e-06
8.7895e-06
8.66258e-06
7.77536e-06
8.90918e-06
8.82198e-06
1.95084e-05
2.13144e-05
7.74958e-06
8.62222e-06
8.81644e-06
2.12121e-05
2.17084e-05
2.30855e-05
9.16755e-06
9.28411e-06
1.02352e-05
1.00604e-05
2.16995e-05
2.31401e-05
9.12974e-06
9.01152e-06
1.02311e-05
1.03526e-05
9.21419e-06
1.00698e-05
1.01391e-05
2.16437e-05
2.31353e-05
9.19136e-06
1.03261e-05
1.01505e-05
2.30879e-05
2.35002e-05
2.47547e-05
1.05905e-05
1.04464e-05
1.17415e-05
1.18184e-05
2.34759e-05
2.47111e-05
1.0586e-05
1.0771e-05
1.17216e-05
1.18176e-05
1.05392e-05
1.17739e-05
1.18461e-05
2.37009e-05
2.48123e-05
1.05704e-05
1.17855e-05
1.18225e-05
2.485e-05
2.5135e-05
2.63446e-05
1.21822e-05
1.22006e-05
1.34012e-05
1.33863e-05
2.51595e-05
2.63632e-05
1.21717e-05
1.20937e-05
1.33658e-05
1.33136e-05
1.2134e-05
1.33921e-05
1.35072e-05
2.50845e-05
2.6216e-05
1.21579e-05
1.32398e-05
1.34537e-05
2.62935e-05
2.66824e-05
2.77181e-05
1.37764e-05
1.38278e-05
1.50706e-05
1.50523e-05
2.66949e-05
2.771e-05
1.37323e-05
1.3833e-05
1.50868e-05
1.5068e-05
1.3895e-05
1.49922e-05
1.48961e-05
2.66303e-05
2.77858e-05
1.38056e-05
1.50758e-05
1.49979e-05
2.77099e-05
2.80786e-05
2.90759e-05
1.55615e-05
1.54991e-05
1.68452e-05
1.68034e-05
2.80382e-05
2.89914e-05
1.55622e-05
1.54842e-05
1.6774e-05
1.69457e-05
1.55645e-05
1.68387e-05
1.69473e-05
2.81157e-05
2.90739e-05
1.55728e-05
1.69158e-05
1.69542e-05
2.91449e-05
2.93689e-05
3.02938e-05
1.72321e-05
1.71269e-05
1.85949e-05
1.85907e-05
2.9304e-05
3.03435e-05
1.72052e-05
1.73631e-05
1.86065e-05
1.84809e-05
1.71905e-05
1.84702e-05
1.8601e-05
2.93916e-05
3.02654e-05
1.72696e-05
1.84168e-05
1.85902e-05
3.0276e-05
3.06139e-05
3.15597e-05
1.9085e-05
1.93083e-05
2.04906e-05
2.06067e-05
3.06819e-05
3.15626e-05
1.90228e-05
1.90079e-05
2.0465e-05
2.05562e-05
1.91352e-05
2.06971e-05
2.05513e-05
3.05548e-05
3.16278e-05
1.91358e-05
2.06213e-05
2.04756e-05
3.15886e-05
3.1835e-05
3.26519e-05
2.09213e-05
2.07215e-05
2.21952e-05
2.1947e-05
3.17845e-05
3.25802e-05
2.09862e-05
2.09692e-05
2.21689e-05
2.22469e-05
2.09861e-05
2.17104e-05
2.20045e-05
3.1914e-05
3.25929e-05
2.09364e-05
2.20827e-05
2.21403e-05
3.25643e-05
3.29172e-05
3.385e-05
2.26538e-05
2.28463e-05
2.40358e-05
2.46325e-05
3.29733e-05
3.40196e-05
2.25278e-05
2.25731e-05
2.39835e-05
2.39677e-05
2.24271e-05
2.46597e-05
2.42516e-05
3.28349e-05
3.3885e-05
2.24301e-05
2.40646e-05
2.42042e-05
3.40317e-05
3.41557e-05
3.50073e-05
2.45348e-05
2.47695e-05
2.59917e-05
2.50403e-05
3.41485e-05
3.44971e-05
2.45905e-05
2.47001e-05
2.60478e-05
2.60314e-05
2.49277e-05
2.51424e-05
2.59588e-05
3.42202e-05
3.49982e-05
2.49612e-05
2.5878e-05
2.60871e-05
3.49656e-05
3.51883e-05
3.58644e-05
2.62302e-05
2.55932e-05
2.72463e-05
2.7948e-05
3.48445e-05
3.65131e-05
2.62155e-05
2.61369e-05
2.71367e-05
2.73275e-05
2.60317e-05
2.78266e-05
2.70842e-05
3.51595e-05
3.59213e-05
2.61477e-05
2.74661e-05
2.686e-05
3.57749e-05
3.621e-05
3.74191e-05
2.79767e-05
2.84774e-05
2.96865e-05
2.97211e-05
3.67359e-05
3.72911e-05
2.78997e-05
2.81617e-05
2.96769e-05
2.94413e-05
2.8018e-05
2.97183e-05
2.97908e-05
3.63042e-05
3.72532e-05
2.78666e-05
2.93102e-05
2.98674e-05
3.7495e-05
3.75515e-05
3.78519e-05
2.98379e-05
2.9875e-05
3.03458e-05
3.00659e-05
3.74523e-05
3.76962e-05
2.98322e-05
2.95273e-05
3.03772e-05
3.07194e-05
2.99276e-05
3.01328e-05
3.03292e-05
3.73637e-05
3.81119e-05
3.00269e-05
3.08992e-05
3.02414e-05
3.78312e-05
3.81627e-05
3.94703e-05
3.11022e-05
3.03443e-05
3.26417e-05
3.29639e-05
3.78434e-05
3.9626e-05
3.11312e-05
3.15413e-05
3.25795e-05
3.26468e-05
3.10209e-05
3.27989e-05
3.27129e-05
3.85456e-05
3.93866e-05
3.06177e-05
3.2395e-05
3.29711e-05
3.96323e-05
3.95825e-05
4.00744e-05
3.27534e-05
3.34939e-05
3.37074e-05
3.38752e-05
3.99664e-05
4.0163e-05
3.26846e-05
3.27183e-05
3.37487e-05
3.38807e-05
3.29132e-05
3.38572e-05
3.36159e-05
3.94549e-05
4.0231e-05
3.32764e-05
3.40635e-05
3.35367e-05
3.99357e-05
4.0467e-05
4.14691e-05
3.44416e-05
3.39303e-05
3.55931e-05
3.55236e-05
4.01975e-05
4.1536e-05
3.44789e-05
3.44368e-05
3.55843e-05
3.49895e-05
3.40012e-05
3.55243e-05
3.5467e-05
4.0617e-05
4.10873e-05
3.37734e-05
3.50579e-05
3.53682e-05
4.14702e-05
4.15109e-05
4.17217e-05
3.56436e-05
3.59798e-05
3.60673e-05
3.65282e-05
4.18557e-05
4.21098e-05
3.5626e-05
3.51532e-05
3.59547e-05
3.69282e-05
3.5902e-05
3.64578e-05
3.66081e-05
4.11569e-05
4.24552e-05
3.57464e-05
3.68049e-05
3.65971e-05
4.21695e-05
4.21688e-05
4.3457e-05
3.68629e-05
3.69423e-05
3.82077e-05
3.78588e-05
4.22165e-05
4.31278e-05
3.67056e-05
3.74747e-05
3.83124e-05
3.80079e-05
3.68252e-05
3.79028e-05
3.78888e-05
4.28504e-05
4.32308e-05
3.68418e-05
3.82283e-05
3.78502e-05
4.3053e-05
4.3518e-05
4.38933e-05
3.8275e-05
3.79488e-05
3.88244e-05
3.88069e-05
4.3244e-05
4.38141e-05
3.84089e-05
3.80206e-05
3.87987e-05
3.86267e-05
3.81922e-05
3.87161e-05
3.8865e-05
4.32438e-05
4.36118e-05
3.82482e-05
3.84532e-05
3.8989e-05
4.39905e-05
4.42511e-05
4.50894e-05
3.94532e-05
3.94107e-05
4.05832e-05
4.08596e-05
4.41815e-05
4.54497e-05
3.93922e-05
3.93539e-05
4.05775e-05
4.05946e-05
3.92569e-05
4.09265e-05
4.07199e-05
4.40127e-05
4.52584e-05
3.91446e-05
4.04264e-05
4.02978e-05
4.50686e-05
4.51062e-05
4.47601e-05
4.06428e-05
4.09697e-05
4.06284e-05
4.0844e-05
4.55101e-05
4.48833e-05
4.06351e-05
4.07687e-05
4.0606e-05
4.12179e-05
4.09913e-05
4.09871e-05
4.11064e-05
4.53847e-05
4.55883e-05
4.07937e-05
4.15468e-05
4.14839e-05
4.55049e-05
4.48659e-05
4.70046e-05
4.06963e-05
4.08143e-05
4.25625e-05
4.1795e-05
4.48818e-05
4.64653e-05
4.06534e-05
4.13315e-05
4.25387e-05
4.18531e-05
4.10977e-05
4.15176e-05
4.20551e-05
4.56557e-05
4.59722e-05
4.15027e-05
4.16542e-05
4.17593e-05
4.62741e-05
4.73963e-05
4.77299e-05
4.31773e-05
4.28757e-05
4.39401e-05
4.43685e-05
4.71208e-05
4.81777e-05
4.32173e-05
4.22605e-05
4.40465e-05
4.38183e-05
4.28623e-05
4.42431e-05
4.38301e-05
4.61782e-05
4.76647e-05
4.23558e-05
4.37262e-05
4.35679e-05
4.75532e-05
4.77324e-05
4.76042e-05
4.39808e-05
4.44069e-05
4.41527e-05
4.41241e-05
4.81584e-05
4.7273e-05
4.4065e-05
4.42039e-05
4.40654e-05
4.4599e-05
4.38572e-05
4.40922e-05
4.41988e-05
4.79555e-05
4.81858e-05
4.37005e-05
4.47265e-05
4.44972e-05
4.78715e-05
4.76749e-05
4.78425e-05
4.41875e-05
4.40027e-05
4.43467e-05
4.39914e-05
4.72667e-05
4.7588e-05
4.41305e-05
4.45941e-05
4.43912e-05
4.45085e-05
4.45345e-05
4.4075e-05
4.48015e-05
4.81709e-05
4.77484e-05
4.47083e-05
4.45605e-05
4.48288e-05
4.821e-05
4.80114e-05
4.96417e-05
4.45986e-05
4.42312e-05
4.62977e-05
4.67623e-05
4.79534e-05
5.03891e-05
4.46317e-05
4.45401e-05
4.61779e-05
4.60176e-05
4.48307e-05
4.66872e-05
4.59352e-05
4.7825e-05
4.95423e-05
4.48444e-05
4.60357e-05
4.5996e-05
4.94125e-05
4.99811e-05
5.03805e-05
4.68503e-05
4.73871e-05
4.76303e-05
4.78852e-05
5.07436e-05
5.06671e-05
4.67136e-05
4.66365e-05
4.74998e-05
4.75734e-05
4.65539e-05
4.78419e-05
4.75316e-05
4.98987e-05
5.03699e-05
4.66015e-05
4.7499e-05
4.74269e-05
5.02907e-05
5.03884e-05
5.03353e-05
4.76615e-05
4.78324e-05
4.76382e-05
4.71757e-05
5.05669e-05
4.95216e-05
4.754e-05
4.76361e-05
4.75762e-05
4.76879e-05
4.75969e-05
4.71972e-05
4.76353e-05
5.03908e-05
5.05697e-05
4.74637e-05
4.76952e-05
4.7534e-05
5.03544e-05
5.04529e-05
5.08591e-05
4.76482e-05
4.71385e-05
4.80277e-05
4.77736e-05
4.95442e-05
5.08804e-05
4.76958e-05
4.77853e-05
4.815e-05
4.84375e-05
4.77132e-05
4.77852e-05
4.81164e-05
5.07397e-05
5.0993e-05
4.77333e-05
4.84342e-05
4.84129e-05
5.09902e-05
5.09381e-05
5.17946e-05
4.82441e-05
4.84558e-05
4.93289e-05
4.95961e-05
5.13137e-05
5.21116e-05
4.8246e-05
4.84739e-05
4.90889e-05
4.85411e-05
4.82236e-05
4.95858e-05
4.91609e-05
5.09972e-05
5.10613e-05
4.84487e-05
4.84589e-05
4.87758e-05
5.15975e-05
5.20314e-05
5.23494e-05
4.96584e-05
4.97139e-05
5.00414e-05
4.98044e-05
5.21398e-05
5.20608e-05
4.94846e-05
4.8739e-05
5.0207e-05
5.02972e-05
4.95596e-05
4.97642e-05
5.01807e-05
5.12806e-05
5.27243e-05
4.92386e-05
5.02816e-05
5.02693e-05
5.24856e-05
5.23631e-05
5.25655e-05
5.00506e-05
4.9856e-05
5.01648e-05
5.05853e-05
5.21385e-05
5.30444e-05
5.02645e-05
5.06704e-05
5.03441e-05
5.10113e-05
5.02146e-05
5.07104e-05
5.03048e-05
5.29778e-05
5.32748e-05
5.03777e-05
5.10714e-05
5.04526e-05
5.26027e-05
5.27794e-05
5.35677e-05
5.0455e-05
5.08541e-05
5.15273e-05
5.12042e-05
5.3196e-05
5.31456e-05
5.04663e-05
5.10014e-05
5.14083e-05
5.09441e-05
5.05e-05
5.12376e-05
5.15731e-05
5.32766e-05
5.29105e-05
5.05179e-05
5.09782e-05
5.14256e-05
5.36301e-05
5.36044e-05
5.34013e-05
5.1628e-05
5.12153e-05
5.16098e-05
5.12844e-05
5.3141e-05
5.31986e-05
5.15558e-05
5.09581e-05
5.16011e-05
5.12506e-05
5.16734e-05
5.12516e-05
5.16376e-05
5.2915e-05
5.3176e-05
5.16038e-05
5.12e-05
5.16637e-05
5.34467e-05
5.34105e-05
5.39756e-05
5.15903e-05
5.14458e-05
5.18166e-05
5.2289e-05
5.33825e-05
5.43358e-05
5.15896e-05
5.14385e-05
5.1842e-05
5.22362e-05
5.1607e-05
5.22338e-05
5.17294e-05
5.33661e-05
5.42609e-05
5.164e-05
5.21684e-05
5.17404e-05
5.38364e-05
5.42499e-05
5.49485e-05
5.22534e-05
5.24869e-05
5.31836e-05
5.31038e-05
5.44592e-05
5.48872e-05
5.2291e-05
5.25212e-05
5.31096e-05
5.31434e-05
5.20376e-05
5.31069e-05
5.30842e-05
5.44367e-05
5.49643e-05
5.20396e-05
5.3208e-05
5.30762e-05
5.48912e-05
5.50001e-05
5.49536e-05
5.33159e-05
5.3279e-05
5.33858e-05
5.34022e-05
5.5008e-05
5.49864e-05
5.32234e-05
5.32376e-05
5.33541e-05
5.33176e-05
5.32988e-05
5.34309e-05
5.34413e-05
5.5026e-05
5.49246e-05
5.32489e-05
5.33651e-05
5.33762e-05
5.49855e-05
5.49546e-05
5.48389e-05
5.33554e-05
5.33593e-05
5.32509e-05
5.3238e-05
5.49556e-05
5.47987e-05
5.33516e-05
5.33271e-05
5.33054e-05
5.33381e-05
5.34126e-05
5.3253e-05
5.33925e-05
5.49236e-05
5.49375e-05
5.33754e-05
5.33579e-05
5.35671e-05
5.51622e-05
5.49114e-05
5.5762e-05
5.32824e-05
5.32841e-05
5.41176e-05
5.40805e-05
5.4936e-05
5.56694e-05
5.33246e-05
5.33616e-05
5.40692e-05
5.38878e-05
5.34884e-05
5.40762e-05
5.3973e-05
5.50104e-05
5.54195e-05
5.3687e-05
5.37512e-05
5.37642e-05
5.53945e-05
5.58753e-05
5.58599e-05
5.43105e-05
5.42163e-05
5.44381e-05
5.43434e-05
5.57214e-05
5.58186e-05
5.43001e-05
5.41576e-05
5.45038e-05
5.46612e-05
5.40105e-05
5.43508e-05
5.42795e-05
5.55855e-05
5.62247e-05
5.37892e-05
5.4708e-05
5.44609e-05
5.59209e-05
5.58663e-05
5.63239e-05
5.44441e-05
5.44426e-05
5.4827e-05
5.50994e-05
5.59495e-05
5.66289e-05
5.45103e-05
5.47219e-05
5.47848e-05
5.5005e-05
5.45137e-05
5.51205e-05
5.50708e-05
5.63058e-05
5.64493e-05
5.47486e-05
5.50922e-05
5.5089e-05
5.64767e-05
5.64952e-05
5.66396e-05
5.50832e-05
5.52063e-05
5.53355e-05
5.52144e-05
5.66672e-05
5.63622e-05
5.50373e-05
5.51229e-05
5.53258e-05
5.52134e-05
5.51317e-05
5.51982e-05
5.51322e-05
5.64878e-05
5.64404e-05
5.50896e-05
5.50969e-05
5.50452e-05
5.63205e-05
5.66301e-05
5.64571e-05
5.53303e-05
5.51508e-05
5.52348e-05
5.50874e-05
5.63393e-05
5.63371e-05
5.53222e-05
5.51857e-05
5.51964e-05
5.50529e-05
5.5124e-05
5.50946e-05
5.52122e-05
5.64233e-05
5.62357e-05
5.50474e-05
5.50458e-05
5.53104e-05
5.66817e-05
5.64775e-05
5.67978e-05
5.52329e-05
5.51149e-05
5.54679e-05
5.56703e-05
5.64442e-05
5.70775e-05
5.51861e-05
5.50648e-05
5.54024e-05
5.5693e-05
5.53931e-05
5.57454e-05
5.57919e-05
5.63052e-05
5.71799e-05
5.54714e-05
5.58333e-05
5.57718e-05
5.70577e-05
5.69217e-05
5.72951e-05
5.5648e-05
5.58276e-05
5.60426e-05
5.59874e-05
5.71585e-05
5.71463e-05
5.5662e-05
5.59249e-05
5.61087e-05
5.61048e-05
5.58129e-05
5.59499e-05
5.57779e-05
5.73028e-05
5.72633e-05
5.57837e-05
5.60367e-05
5.57409e-05
5.68597e-05
5.73186e-05
5.69979e-05
5.60697e-05
5.59852e-05
5.5962e-05
5.58893e-05
5.71424e-05
5.69873e-05
5.6124e-05
5.60792e-05
5.59301e-05
5.57023e-05
5.57693e-05
5.58432e-05
5.58233e-05
5.72162e-05
5.66635e-05
5.57334e-05
5.5656e-05
5.5791e-05
5.7056e-05
5.69685e-05
5.7065e-05
5.58812e-05
5.58755e-05
5.58659e-05
5.6014e-05
5.69968e-05
5.73361e-05
5.58277e-05
5.56507e-05
5.58049e-05
5.57894e-05
5.58636e-05
5.61254e-05
5.6096e-05
5.66625e-05
5.72468e-05
5.58234e-05
5.5952e-05
5.6108e-05
5.72992e-05
5.72119e-05
5.77431e-05
5.59771e-05
5.61802e-05
5.65184e-05
5.64314e-05
5.74436e-05
5.75757e-05
5.59267e-05
5.61051e-05
5.65666e-05
5.67395e-05
5.62241e-05
5.64426e-05
5.64661e-05
5.74729e-05
5.79791e-05
5.62591e-05
5.67423e-05
5.65449e-05
5.76376e-05
5.77839e-05
5.78233e-05
5.65979e-05
5.64465e-05
5.66939e-05
5.65806e-05
5.75805e-05
5.77077e-05
5.66553e-05
5.67865e-05
5.67361e-05
5.67734e-05
5.6486e-05
5.65506e-05
5.6639e-05
5.79906e-05
5.77896e-05
5.65686e-05
5.66888e-05
5.66259e-05
5.77725e-05
5.78419e-05
5.76376e-05
5.6701e-05
5.66443e-05
5.66342e-05
5.66365e-05
5.78014e-05
5.77495e-05
5.67384e-05
5.67384e-05
5.65998e-05
5.63261e-05
5.66858e-05
5.66426e-05
5.66566e-05
5.77867e-05
5.72888e-05
5.66379e-05
5.63101e-05
5.65732e-05
5.76996e-05
5.75266e-05
5.68506e-05
5.64556e-05
5.6512e-05
5.5929e-05
5.59237e-05
5.76286e-05
5.68275e-05
5.63507e-05
5.60989e-05
5.58687e-05
5.57532e-05
5.65067e-05
5.59106e-05
5.58908e-05
5.71789e-05
5.67096e-05
5.63915e-05
5.5782e-05
5.58692e-05
5.68002e-05
5.68582e-05
5.80604e-05
5.59143e-05
5.59019e-05
5.65646e-05
5.65011e-05
5.68305e-05
5.8007e-05
5.58619e-05
5.57663e-05
5.66276e-05
5.68315e-05
5.5869e-05
5.64758e-05
5.64959e-05
5.67581e-05
5.83485e-05
5.58593e-05
5.68648e-05
5.66075e-05
5.80459e-05
5.83751e-05
5.91824e-05
5.7079e-05
5.70421e-05
5.77641e-05
5.77719e-05
5.83416e-05
5.92038e-05
5.71342e-05
5.73307e-05
5.77994e-05
5.79317e-05
5.70484e-05
5.77752e-05
5.77922e-05
5.86613e-05
5.9379e-05
5.71404e-05
5.79445e-05
5.78344e-05
5.92338e-05
5.91862e-05
5.71422e-05
5.7762e-05
5.77701e-05
5.6521e-05
5.65063e-05
5.92065e-05
5.71185e-05
5.77953e-05
5.79169e-05
5.65037e-05
5.64207e-05
5.77913e-05
5.65218e-05
5.65368e-05
5.93646e-05
5.70158e-05
5.78294e-05
5.64112e-05
5.64949e-05
5.71344e-05
5.66619e-05
5.41941e-05
5.56003e-05
5.55739e-05
5.35653e-05
5.35331e-05
5.663e-05
5.41583e-05
5.55796e-05
5.54772e-05
5.35406e-05
5.34334e-05
5.55989e-05
5.3539e-05
5.35413e-05
5.65146e-05
5.40397e-05
5.55579e-05
5.34253e-05
5.35066e-05
5.41557e-05
5.4098e-05
5.56666e-05
5.33527e-05
5.3325e-05
5.38135e-05
5.38122e-05
5.40663e-05
5.56918e-05
5.33286e-05
5.32314e-05
5.37965e-05
5.37602e-05
5.33283e-05
5.38158e-05
5.38004e-05
5.39529e-05
5.56666e-05
5.32969e-05
5.37618e-05
5.37862e-05
5.5666e-05
5.64719e-05
6.05577e-05
5.50029e-05
5.50281e-05
5.87097e-05
5.87436e-05
5.65039e-05
6.06076e-05
5.49948e-05
5.50188e-05
5.87069e-05
5.87539e-05
5.50051e-05
5.87507e-05
5.87288e-05
5.64886e-05
6.06193e-05
5.50081e-05
5.87648e-05
5.87328e-05
6.05836e-05
6.10495e-05
6.22154e-05
5.95546e-05
5.95871e-05
6.05885e-05
6.06085e-05
6.10978e-05
6.2243e-05
5.95534e-05
5.96011e-05
6.05913e-05
6.06291e-05
5.9576e-05
6.06181e-05
6.06085e-05
6.11114e-05
6.22644e-05
5.95799e-05
6.06386e-05
6.06122e-05
6.2238e-05
6.22081e-05
5.95983e-05
6.05887e-05
6.06063e-05
5.86621e-05
5.86455e-05
6.22317e-05
5.95784e-05
6.05919e-05
6.06274e-05
5.86681e-05
5.86653e-05
6.06077e-05
5.86539e-05
5.86621e-05
6.22535e-05
5.95965e-05
6.06113e-05
5.86696e-05
5.86639e-05
5.9594e-05
5.898e-05
5.4373e-05
5.75059e-05
5.74867e-05
5.35149e-05
5.34954e-05
5.89577e-05
5.43509e-05
5.75111e-05
5.75034e-05
5.35172e-05
5.35027e-05
5.75027e-05
5.35012e-05
5.35081e-05
5.89743e-05
5.4357e-05
5.75045e-05
5.3508e-05
5.351e-05
5.43646e-05
5.36149e-05
4.94373e-05
5.23357e-05
5.23179e-05
4.86448e-05
4.86365e-05
5.35947e-05
4.94336e-05
5.23367e-05
5.23224e-05
4.86438e-05
4.86339e-05
5.23294e-05
4.86427e-05
4.86425e-05
5.3599e-05
4.94305e-05
5.23308e-05
4.86426e-05
4.86442e-05
4.94377e-05
4.89983e-05
4.72693e-05
4.72638e-05
4.89969e-05
4.72681e-05
4.72607e-05
3.86679e-05
3.86654e-05
3.86699e-05
4.72685e-05
4.89935e-05
4.72699e-05
9.44384e-07
2.53721e-07
5.53602e-07
5.57945e-07
1.03247e-07
3.1821e-07
4.36773e-06
2.84525e-07
1.17792e-07
3.43465e-07
2.93569e-07
3.89825e-07
3.68099e-07
3.97756e-07
4.96399e-07
3.17141e-07
4.97987e-06
2.6957e-07
6.66341e-06
1.37289e-05
2.12546e-05
3.58917e-07
4.96827e-06
3.18592e-07
6.65762e-06
3.27995e-07
3.39493e-07
3.55143e-07
3.40677e-07
3.25968e-07
3.37707e-07
3.53233e-07
1.01043e-07
2.19251e-06
1.85843e-07
2.85727e-07
1.03391e-07
1.37813e-06
1.83757e-07
1.40778e-05
2.17031e-05
1.1455e-07
2.35409e-07
7.37261e-07
3.40508e-07
1.15694e-07
2.33251e-07
7.2154e-07
1.92777e-06
1.93702e-06
3.52611e-07
1.90777e-06
1.94106e-06
5.17289e-07
9.80275e-06
4.07099e-07
1.26719e-05
3.6347e-05
4.64735e-05
5.55395e-07
9.78753e-06
4.60022e-07
1.26351e-05
3.25445e-07
3.371e-07
3.5255e-07
3.38132e-07
3.23832e-07
3.35346e-07
3.50784e-07