/*--------------------------------*- C++ -*----------------------------------*\
| =========                 |                                                 |
| \\      /  F ield         | OpenFOAM: The Open Source CFD Toolbox           |
|  \\    /   O peration     | Version:  v2012                                 |
|   \\  /    A nd           | Website:  www.openfoam.com                      |
|    \\/     M anipulation  |                                                 |
\*---------------------------------------------------------------------------*/
FoamFile
{
    version     2.0;
    format      ascii;
    class       volScalarField;
    location    "400";
    object      p;
}
// * * * * * * * * * * * * * * * * * * * * * * * * * * * * * * * * * * * * * //

dimensions      [0 2 -2 0 0 0 0];


internalField   nonuniform List<scalar> 
171728
(
0.00352357
0.00352252
0.00352252
0.00352324
0.00348795
0.00348637
0.00348646
0.00348933
0.00344961
0.00344764
0.00344767
0.00344996
0.00340546
0.00340381
0.00340379
0.00340601
0.00335727
0.00335585
0.00335585
0.00335816
0.00330842
0.00330706
0.00330703
0.00330946
0.0032603
0.00325909
0.00325899
0.00326146
0.00321307
0.00321199
0.003212
0.00321437
0.00316669
0.00316573
0.00316572
0.00316813
0.00312131
0.00312043
0.00312045
0.00312283
0.00307692
0.00307615
0.00307615
0.00307846
0.00303325
0.00303261
0.00303266
0.00303483
0.00299012
0.00298966
0.00298952
0.00299191
0.00294744
0.00294725
0.002947
0.00294954
0.00290506
0.00290488
0.00290477
0.00290697
0.00286301
0.00286264
0.00286275
0.00286495
0.00282128
0.00282077
0.00282111
0.00282334
0.0027799
0.00277974
0.0027798
0.00278195
0.00273889
0.00273877
0.00273882
0.0027409
0.00269831
0.0026981
0.00269827
0.00270025
0.00265796
0.00265783
0.00265801
0.00265982
0.00261795
0.00261788
0.00261807
0.0026197
0.00257823
0.0025782
0.00257842
0.00257995
0.00253877
0.00253881
0.00253895
0.00254055
0.00249955
0.00249974
0.00249955
0.00250143
0.0024606
0.00246092
0.00246091
0.00246259
0.00242183
0.00242208
0.00242204
0.00242391
0.00238334
0.00238386
0.0023837
0.00238558
0.00234501
0.00234532
0.00234537
0.00234735
0.00230686
0.0023073
0.00230729
0.00230921
0.00226891
0.0022694
0.00226942
0.00227129
0.00223107
0.00223155
0.00223156
0.00223348
0.00219341
0.00219397
0.00219391
0.0021958
0.00215589
0.00215641
0.00215644
0.00215829
0.00211848
0.00211902
0.00211901
0.00212086
0.00208125
0.00208172
0.00208171
0.0020836
0.00204412
0.00204456
0.00204458
0.00204648
0.00200715
0.00200753
0.00200754
0.0020094
0.00197028
0.00197064
0.0019706
0.00197259
0.00193357
0.00193383
0.00193387
0.0019358
0.00189698
0.0018972
0.00189714
0.00189913
0.00186053
0.00186064
0.00186073
0.00186278
0.00182427
0.00182429
0.00182427
0.00182619
0.00178785
0.00178811
0.00178805
0.0017902
0.0017522
0.00175192
0.00175193
0.00175395
0.00171583
0.00171592
0.00171596
0.001718
0.00168033
0.0016802
0.00168004
0.00168219
0.00164438
0.00164416
0.00164439
0.00164633
0.0016091
0.00160887
0.00160864
0.0016109
0.00157324
0.00157306
0.00157335
0.00157523
0.00153835
0.00153793
0.00153765
0.00153991
0.00150268
0.00150254
0.00150258
0.0015046
0.00146785
0.00146753
0.00146755
0.00146944
0.00143232
0.00143189
0.00143219
0.00143417
0.0013975
0.00139746
0.00139703
0.00139921
0.00136294
0.00136256
0.00136272
0.00136446
0.00132772
0.00132717
0.00132743
0.0013294
0.00129286
0.0012928
0.00129249
0.00129464
0.00125819
0.00125828
0.00125817
0.00126
0.00122393
0.00122321
0.00122331
0.0012252
0.00118913
0.00118862
0.00118894
0.00119074
0.00115446
0.00115464
0.0011544
0.00115644
0.00111978
0.0011197
0.0011194
0.00112148
0.00108544
0.00108482
0.00108537
0.00108697
0.00105084
0.00105089
0.00105075
0.00105258
0.00101662
0.00101629
0.00101606
0.00101834
0.000981748
0.00098159
0.000981695
0.000983391
0.000947312
0.000947409
0.0009474
0.000949282
0.000913422
0.00091296
0.000912994
0.000914964
0.000878529
0.000878338
0.000878285
0.00088019
0.0008439
0.000843908
0.00084402
0.000845937
0.000809682
0.000809668
0.000809468
0.000811448
0.000775001
0.000774722
0.000774921
0.00077676
0.000740489
0.000740497
0.000740327
0.000742344
0.000706016
0.000705741
0.000705798
0.000707654
0.000671133
0.000671142
0.000671172
0.000673198
0.000636666
0.000636737
0.00063671
0.0006386
0.000602041
0.000601681
0.000601701
0.000603587
0.000566833
0.000566879
0.00056677
0.000568901
0.000532243
0.000532307
0.000532376
0.000534267
0.000497759
0.000497472
0.000497569
0.000499444
0.000462668
0.00046258
0.000462465
0.000464479
0.000427597
0.000427641
0.000427588
0.000429626
0.000392103
0.000392054
0.000392181
0.000394112
0.000357612
0.000357561
0.000357623
0.000359514
0.000323163
0.000322903
0.000322815
0.000324757
0.000286721
0.000286629
0.0002866
0.000288669
0.000249561
0.000249969
0.000250009
0.000252213
0.000215461
0.000215546
0.000215566
0.000217554
0.000183134
0.000182498
0.000182476
0.00018411
0.000148776
0.000148056
0.000148042
0.000149721
0.000111678
0.000111488
0.000111484
0.000113481
7.12527e-05
7.20993e-05
7.21e-05
7.46021e-05
3.19559e-05
3.22105e-05
3.22078e-05
3.4651e-05
3.63759e-06
4.66625e-06
4.66381e-06
3.38489e-06
0.00352802
0.00352557
0.00352558
0.00352815
0.00352558
0.00352558
0.00353197
0.00353202
0.00353197
0.00353198
0.00352565
0.00352558
0.00352801
0.00352558
0.00352565
0.00352803
0.00352324
0.00349411
0.00352249
0.00352251
0.00349603
0.00349596
0.00352325
0.0034941
0.00352249
0.00352249
0.00349604
0.00349605
0.0035225
0.00349595
0.00349604
0.00352325
0.00349412
0.0035225
0.00349605
0.00349603
0.00349411
0.00348934
0.00345548
0.00348646
0.00348636
0.00345778
0.00345776
0.00348926
0.00345543
0.00348646
0.00348644
0.00345779
0.00345782
0.00348641
0.00345771
0.00345779
0.00348934
0.00345548
0.00348644
0.00345779
0.00345785
0.00345547
0.00344997
0.00341218
0.00344764
0.00344766
0.00341523
0.00341523
0.00344992
0.00341216
0.00344767
0.00344764
0.00341524
0.00341528
0.00344763
0.00341521
0.00341522
0.00344997
0.00341217
0.00344768
0.00341525
0.00341523
0.00341218
0.00340601
0.00336461
0.00340379
0.00340381
0.00336795
0.00336793
0.003406
0.00336461
0.00340379
0.00340376
0.00336796
0.00336797
0.00340378
0.00336793
0.00336797
0.003406
0.00336462
0.00340382
0.00336792
0.00336801
0.00336463
0.00335815
0.00331588
0.00335581
0.00335584
0.00331921
0.00331923
0.00335814
0.00331587
0.00335584
0.00335581
0.00331922
0.00331918
0.00335582
0.00331921
0.00331917
0.00335815
0.00331587
0.00335582
0.00331925
0.00331922
0.00331589
0.00330944
0.00326774
0.00330705
0.00330704
0.00327097
0.00327096
0.00330943
0.00326772
0.00330707
0.00330709
0.00327098
0.00327099
0.0033071
0.00327097
0.00327098
0.00330944
0.00326774
0.00330709
0.00327091
0.00327096
0.00326776
0.00326143
0.00322053
0.00325905
0.0032591
0.00322368
0.0032237
0.00326142
0.00322052
0.00325906
0.00325907
0.00322369
0.00322372
0.00325908
0.00322369
0.00322371
0.00326143
0.00322053
0.0032591
0.00322356
0.00322372
0.00322055
0.00321436
0.00317416
0.00321199
0.00321199
0.00317722
0.0031772
0.00321434
0.00317415
0.003212
0.003212
0.00317721
0.00317724
0.00321201
0.00317721
0.00317723
0.00321435
0.00317417
0.00321204
0.0031771
0.00317726
0.00317418
0.0031681
0.00312874
0.00316572
0.00316575
0.00313167
0.0031317
0.0031681
0.00312875
0.00316573
0.00316575
0.00313167
0.00313168
0.00316574
0.0031317
0.0031317
0.00316813
0.00312877
0.00316572
0.00313164
0.00313169
0.00312875
0.00312284
0.00308433
0.00312045
0.00312045
0.00308717
0.00308717
0.00312285
0.00308433
0.00312044
0.00312047
0.00308716
0.00308715
0.00312046
0.00308717
0.00308718
0.00312286
0.00308431
0.00312042
0.00308713
0.00308719
0.00308426
0.00307855
0.00304068
0.0030762
0.00307617
0.00304348
0.00304351
0.00307855
0.00304068
0.0030762
0.00307618
0.00304351
0.00304344
0.00307617
0.0030435
0.00304345
0.00307854
0.00304068
0.0030761
0.00304343
0.00304352
0.00304058
0.00303499
0.00299758
0.00303263
0.00303261
0.00300036
0.00300045
0.00303493
0.00299761
0.00303261
0.00303266
0.00300037
0.00300039
0.00303257
0.0030004
0.00300038
0.00303502
0.00299754
0.00303259
0.00300035
0.00300038
0.00299762
0.00299192
0.00295488
0.00298953
0.00298965
0.00295758
0.00295773
0.00299191
0.00295511
0.00298955
0.00298954
0.00295756
0.00295761
0.00298958
0.00295771
0.00295767
0.00299189
0.00295485
0.00298962
0.00295761
0.00295758
0.00295497
0.00294937
0.00291255
0.00294704
0.00294728
0.00291518
0.00291515
0.00294958
0.00291264
0.00294704
0.00294699
0.00291518
0.00291526
0.00294725
0.00291516
0.0029153
0.00294932
0.00291252
0.00294718
0.00291527
0.00291536
0.0029125
0.0029071
0.00287051
0.00290484
0.0029049
0.00287306
0.00287297
0.0029072
0.00287031
0.00290482
0.00290476
0.00287307
0.00287329
0.00290462
0.002873
0.00287317
0.00290705
0.00287044
0.00290472
0.00287328
0.00287318
0.0028704
0.00286515
0.00282863
0.0028628
0.00286261
0.00283125
0.00283148
0.00286496
0.0028285
0.00286279
0.00286274
0.00283123
0.00283155
0.00286266
0.00283151
0.00283132
0.002865
0.00282873
0.0028626
0.00283156
0.00283127
0.00282865
0.00282328
0.00278705
0.00282097
0.00282081
0.00279004
0.00278996
0.00282305
0.00278723
0.00282094
0.00282111
0.00279
0.0027901
0.00282111
0.00278991
0.00278988
0.00282335
0.00278724
0.0028211
0.0027901
0.00278991
0.00278723
0.00278173
0.00274601
0.00277947
0.00277973
0.00274916
0.00274898
0.00278198
0.00274616
0.00277952
0.00277979
0.00274915
0.00274908
0.00277977
0.00274899
0.00274903
0.00278194
0.00274606
0.00277977
0.00274911
0.002749
0.00274613
0.00274075
0.00270537
0.00273874
0.00273875
0.00270843
0.0027083
0.0027409
0.00270545
0.00273879
0.00273883
0.00270843
0.00270841
0.00273884
0.00270828
0.00270836
0.00274085
0.00270531
0.00273884
0.00270842
0.00270839
0.00270546
0.00270028
0.00266491
0.00269833
0.00269814
0.0026679
0.00266791
0.00270021
0.00266499
0.0026984
0.00269827
0.00266792
0.00266805
0.00269826
0.00266786
0.00266789
0.00270019
0.00266478
0.00269825
0.0026681
0.00266791
0.00266495
0.00265977
0.0026248
0.00265788
0.00265785
0.00262788
0.00262787
0.00265977
0.00262484
0.0026579
0.002658
0.0026279
0.00262805
0.00265805
0.00262783
0.0026279
0.00265975
0.00262472
0.00265801
0.00262807
0.00262788
0.00262478
0.00261965
0.0025851
0.00261782
0.00261789
0.00258819
0.00258818
0.00261967
0.00258505
0.00261785
0.00261804
0.00258821
0.00258824
0.00261797
0.00258817
0.00258821
0.00261974
0.00258501
0.00261798
0.00258823
0.0025882
0.00258501
0.00258005
0.00254555
0.00257828
0.0025782
0.00254863
0.00254879
0.00257991
0.00254562
0.00257831
0.00257841
0.00254864
0.00254861
0.00257822
0.0025488
0.00254876
0.00258012
0.00254534
0.00257823
0.00254861
0.00254876
0.00254557
0.00254053
0.00250645
0.00253885
0.00253881
0.00250949
0.00250962
0.00254051
0.00250652
0.00253888
0.00253895
0.00250949
0.00250948
0.00253882
0.00250965
0.00250956
0.00254047
0.00250629
0.00253884
0.00250948
0.00250955
0.00250642
0.00250144
0.00246759
0.00249973
0.00249973
0.00247058
0.00247064
0.00250151
0.0024675
0.00249974
0.00249956
0.00247059
0.00247071
0.0024997
0.00247065
0.00247059
0.00250114
0.00246789
0.00249971
0.0024707
0.00247059
0.00246754
0.00246261
0.00242883
0.00246085
0.0024609
0.00243182
0.00243176
0.00246265
0.00242878
0.00246087
0.00246092
0.00243182
0.00243178
0.00246084
0.00243176
0.00243183
0.00246298
0.00242867
0.00246085
0.00243177
0.00243183
0.00242883
0.00242394
0.00239049
0.00242218
0.00242208
0.00239329
0.00239337
0.00242375
0.00239048
0.00242219
0.00242205
0.00239328
0.00239331
0.00242217
0.00239337
0.00239331
0.00242365
0.00239048
0.00242217
0.00239333
0.0023933
0.00239049
0.00238557
0.00235226
0.00238374
0.00238385
0.00235495
0.00235489
0.00238577
0.0023524
0.00238372
0.00238369
0.00235495
0.00235494
0.00238374
0.0023549
0.00235495
0.00238562
0.0023522
0.00238372
0.00235494
0.00235495
0.00235227
0.00234736
0.00231406
0.0023454
0.00234531
0.00231675
0.00231675
0.00234727
0.00231394
0.00234541
0.00234537
0.00231677
0.00231683
0.0023454
0.00231676
0.00231678
0.00234722
0.0023142
0.00234541
0.00231683
0.00231679
0.00231411
0.00230914
0.00227622
0.00230726
0.00230729
0.00227888
0.00227888
0.00230917
0.00227625
0.00230727
0.00230729
0.00227887
0.00227886
0.00230729
0.00227887
0.00227884
0.00230928
0.00227615
0.0023073
0.00227886
0.00227883
0.00227619
0.00227132
0.00223838
0.0022694
0.00226941
0.00224101
0.002241
0.00227136
0.00223834
0.00226939
0.00226942
0.00224101
0.00224097
0.00226938
0.00224101
0.00224101
0.00227128
0.00223843
0.00226938
0.00224098
0.00224101
0.00223839
0.00223347
0.00220071
0.00223158
0.00223155
0.00220333
0.00220333
0.0022334
0.00220074
0.00223158
0.00223155
0.00220333
0.00220336
0.00223159
0.00220333
0.00220332
0.00223349
0.00220071
0.00223159
0.00220336
0.00220332
0.0022007
0.00219582
0.00216317
0.00219394
0.00219397
0.0021658
0.00216582
0.00219585
0.00216318
0.00219394
0.00219391
0.00216579
0.00216579
0.00219392
0.00216582
0.00216579
0.00219585
0.00216312
0.00219392
0.00216578
0.00216578
0.00216318
0.00215827
0.00212577
0.00215642
0.00215641
0.00212834
0.00212834
0.0021583
0.00212573
0.00215641
0.00215644
0.00212835
0.00212837
0.00215642
0.00212833
0.00212834
0.00215821
0.00212581
0.00215641
0.00212837
0.00212835
0.00212576
0.00212089
0.00208846
0.00211901
0.00211903
0.00209104
0.00209104
0.00212084
0.0020885
0.00211901
0.00211901
0.00209103
0.00209099
0.00211901
0.00209104
0.00209103
0.00212092
0.00208845
0.00211902
0.00209099
0.00209103
0.00208848
0.00208358
0.00205133
0.00208172
0.00208172
0.00205384
0.00205385
0.00208362
0.0020513
0.00208172
0.00208171
0.00205384
0.00205386
0.00208171
0.00205384
0.00205382
0.00208359
0.00205132
0.00208171
0.00205387
0.00205382
0.00205132
0.00204646
0.0020143
0.00204456
0.00204457
0.00201679
0.00201677
0.00204643
0.0020143
0.00204457
0.00204457
0.00201679
0.00201679
0.00204455
0.00201677
0.00201682
0.00204645
0.00201432
0.00204457
0.00201678
0.0020168
0.00201429
0.00200944
0.00197741
0.00200754
0.00200752
0.00197982
0.00197984
0.00200943
0.00197746
0.00200753
0.00200754
0.00197982
0.00197981
0.00200754
0.00197984
0.00197981
0.00200945
0.00197739
0.00200753
0.00197981
0.00197981
0.00197744
0.00197255
0.00194067
0.00197061
0.00197065
0.00194304
0.00194302
0.00197262
0.00194057
0.00197061
0.0019706
0.00194303
0.00194304
0.00197062
0.00194304
0.00194304
0.00197255
0.00194066
0.00197061
0.00194304
0.00194304
0.00194064
0.00193582
0.00190398
0.00193386
0.0019338
0.00190631
0.00190633
0.00193571
0.0019041
0.00193386
0.00193386
0.00190632
0.00190633
0.00193386
0.0019063
0.0019063
0.0019358
0.001904
0.00193385
0.00190631
0.00190632
0.00190398
0.00189914
0.00186752
0.00189715
0.00189723
0.0018698
0.00186982
0.00189929
0.00186743
0.00189715
0.00189717
0.00186978
0.00186977
0.00189712
0.00186985
0.00186986
0.00189916
0.00186755
0.00189715
0.0018698
0.00186982
0.0018676
0.00186271
0.00183113
0.0018607
0.00186061
0.0018334
0.00183329
0.00186255
0.00183111
0.0018607
0.00186071
0.00183343
0.00183343
0.00186078
0.00183329
0.00183334
0.00186275
0.00183109
0.00186076
0.00183341
0.00183336
0.00183103
0.00182629
0.00179489
0.00182428
0.0018243
0.00179703
0.00179725
0.00182636
0.00179506
0.00182429
0.00182428
0.001797
0.00179704
0.0018242
0.00179723
0.00179705
0.00182625
0.00179494
0.0018242
0.00179705
0.00179703
0.00179497
0.00179013
0.0017588
0.00178804
0.00178812
0.00176106
0.00176088
0.00179017
0.00175869
0.00178801
0.00178805
0.00176108
0.001761
0.00178809
0.0017609
0.00176109
0.00179016
0.00175874
0.00178805
0.001761
0.00176113
0.00175879
0.00175397
0.00172277
0.001752
0.00175188
0.00172483
0.00172493
0.00175392
0.00172285
0.00175202
0.00175193
0.00172481
0.00172493
0.00175197
0.00172492
0.00172484
0.00175395
0.00172285
0.00175204
0.00172493
0.00172475
0.00172275
0.001718
0.00168693
0.00171586
0.00171594
0.00168911
0.00168909
0.00171806
0.00168699
0.00171585
0.00171597
0.00168911
0.00168904
0.0017159
0.00168909
0.00168909
0.00171806
0.00168685
0.00171582
0.00168903
0.00168921
0.001687
0.00168216
0.00165118
0.00168017
0.00168021
0.0016532
0.00165312
0.00168222
0.00165101
0.00168015
0.00168002
0.00165321
0.00165326
0.00168016
0.00165316
0.00165317
0.00168208
0.00165123
0.00168024
0.00165329
0.00165307
0.00165108
0.00164642
0.00161556
0.00164432
0.00164412
0.00161771
0.00161765
0.00164623
0.00161566
0.00164434
0.00164438
0.00161772
0.00161767
0.0016442
0.00161763
0.00161771
0.00164646
0.0016155
0.00164421
0.00161761
0.00161772
0.00161564
0.00161079
0.00157998
0.00160873
0.00160889
0.00158199
0.00158207
0.00161095
0.00157994
0.00160872
0.0016087
0.00158196
0.00158207
0.00160888
0.00158207
0.00158206
0.00161074
0.00158009
0.00160885
0.00158214
0.00158207
0.00157998
0.00157525
0.00154475
0.00157318
0.00157308
0.00154688
0.00154668
0.00157516
0.00154464
0.00157319
0.00157327
0.00154692
0.0015467
0.00157312
0.00154669
0.00154666
0.00157535
0.00154452
0.00157318
0.00154662
0.00154666
0.00154464
0.00153996
0.00150926
0.00153796
0.00153791
0.00151124
0.00151135
0.00153993
0.00150932
0.00153798
0.00153776
0.0015112
0.00151122
0.0015379
0.00151134
0.00151141
0.00153976
0.0015093
0.00153788
0.00151128
0.0015114
0.00150933
0.00150455
0.00147424
0.0015025
0.00150256
0.00147635
0.00147634
0.0015046
0.00147425
0.00150248
0.00150253
0.00147636
0.00147644
0.00150257
0.00147636
0.00147622
0.00150462
0.00147426
0.00150253
0.0014764
0.00147614
0.00147416
0.00146949
0.00143878
0.00146748
0.0014675
0.00144081
0.00144074
0.0014695
0.00143871
0.00146747
0.00146756
0.00144083
0.00144082
0.00146744
0.00144074
0.0014409
0.0014695
0.0014389
0.00146744
0.00144099
0.00144114
0.00143893
0.00143404
0.00140416
0.00143202
0.00143192
0.00140611
0.00140603
0.00143396
0.00140405
0.00143208
0.0014321
0.00140615
0.00140597
0.00143206
0.00140597
0.00140596
0.00143417
0.00140385
0.00143224
0.00140575
0.00140574
0.00140386
0.00139956
0.00136903
0.00139756
0.0013975
0.00137121
0.00137151
0.00139946
0.00136929
0.00139756
0.00139726
0.0013711
0.00137119
0.00139735
0.00137158
0.00137137
0.00139917
0.00136919
0.0013971
0.00137131
0.00137136
0.00136923
0.00136423
0.00133396
0.00136224
0.00136245
0.00133596
0.00133577
0.00136445
0.00133374
0.00136217
0.00136249
0.00133608
0.00133622
0.00136242
0.00133581
0.00133599
0.0013645
0.00133416
0.00136257
0.00133631
0.00133619
0.00133406
0.00132931
0.00129945
0.00132734
0.00132711
0.00130142
0.00130142
0.00132905
0.00129942
0.00132751
0.00132741
0.00130149
0.00130124
0.00132743
0.00130145
0.00130153
0.00132943
0.00129918
0.00132752
0.00130114
0.0013014
0.00129938
0.00129475
0.00126477
0.0012928
0.00129283
0.00126683
0.001267
0.00129478
0.00126499
0.00129274
0.00129258
0.00126671
0.00126674
0.00129274
0.00126689
0.00126661
0.00129448
0.00126477
0.00129261
0.00126672
0.00126658
0.00126463
0.00126012
0.00122988
0.0012582
0.00125838
0.00123198
0.00123197
0.00126031
0.00122984
0.00125811
0.00125817
0.00123205
0.00123211
0.00125801
0.00123205
0.0012321
0.00126016
0.00122992
0.00125801
0.00123209
0.00123209
0.00122994
0.00122513
0.00119531
0.00122322
0.00122313
0.00119734
0.00119711
0.00122505
0.00119503
0.00122331
0.00122333
0.00119742
0.00119741
0.00122334
0.00119714
0.00119738
0.00122519
0.00119539
0.00122334
0.00119746
0.00119747
0.00119534
0.0011907
0.00116117
0.00118884
0.00118862
0.00116318
0.00116321
0.00119045
0.00116128
0.0011889
0.00118889
0.00116315
0.00116318
0.00118884
0.0011632
0.00116318
0.00119079
0.00116112
0.00118896
0.00116317
0.00116321
0.00116117
0.00115647
0.00112624
0.00115449
0.00115466
0.00112834
0.00112858
0.00115666
0.00112641
0.00115442
0.00115444
0.00112817
0.00112807
0.00115447
0.00112857
0.00112828
0.00115637
0.00112604
0.00115442
0.00112805
0.00112807
0.00112618
0.00112153
0.00109158
0.00111965
0.00111971
0.00109359
0.00109338
0.00112163
0.00109136
0.00111955
0.00111941
0.00109379
0.00109385
0.0011196
0.00109341
0.00109363
0.00112136
0.00109187
0.00111947
0.00109387
0.00109387
0.00109165
0.0010869
0.00105723
0.00108493
0.00108478
0.00105927
0.00105935
0.00108668
0.00105737
0.00108514
0.00108533
0.00105923
0.00105944
0.00108498
0.00105938
0.00105926
0.00108723
0.00105729
0.00108525
0.00105946
0.00105923
0.00105722
0.00105261
0.00102307
0.00105078
0.00105088
0.00102517
0.00102506
0.00105277
0.00102296
0.00105067
0.00105075
0.00102504
0.00102473
0.00105075
0.00102501
0.00102513
0.00105257
0.00102275
0.00105062
0.00102471
0.001025
0.00102305
0.00101835
0.000988132
0.00101645
0.00101634
0.000990128
0.0009902
0.00101824
0.000988144
0.00101641
0.00101609
0.000990219
0.000990283
0.00101644
0.000990178
0.000990104
0.00101808
0.000988261
0.00101641
0.000990267
0.00099021
0.000988101
0.000983416
0.00095389
0.000981459
0.000981593
0.00095583
0.000955949
0.000983456
0.000953993
0.000981526
0.0009817
0.000955824
0.000955978
0.000981425
0.00095598
0.000955826
0.000983573
0.000953968
0.000981503
0.000955989
0.000955797
0.000953888
0.000949286
0.000919644
0.000947361
0.000947382
0.000921737
0.000921571
0.000949346
0.000919559
0.000947345
0.000947399
0.000921727
0.0009216
0.000947356
0.000921577
0.000921733
0.000949321
0.000919578
0.000947315
0.000921619
0.000921742
0.000919682
0.000914904
0.0008849
0.000913038
0.000912947
0.000886961
0.00088702
0.000914864
0.000884957
0.000913026
0.000912959
0.000886951
0.000886968
0.000913089
0.000887026
0.000887016
0.000914878
0.000884917
0.000913096
0.000886958
0.000886982
0.000884905
0.000880209
0.000850553
0.000878311
0.000878355
0.000852477
0.000852464
0.000880238
0.000850487
0.000878315
0.000878331
0.000852517
0.000852562
0.000878326
0.000852437
0.000852471
0.00088021
0.000850591
0.000878305
0.000852546
0.000852541
0.000850566
0.000845893
0.000816298
0.000843916
0.000843916
0.000818272
0.000818308
0.000845853
0.000816364
0.000843938
0.000843988
0.00081821
0.000818171
0.000843944
0.000818317
0.00081823
0.000845945
0.000816185
0.000844002
0.000818169
0.000818123
0.000816197
0.000811611
0.000781375
0.000809672
0.000809676
0.000783413
0.00078338
0.000811643
0.000781318
0.000809622
0.000809534
0.000783483
0.000783529
0.000809531
0.000783378
0.000783402
0.000811462
0.000781504
0.000809416
0.00078354
0.000783506
0.000781439
0.000776627
0.000746997
0.000774698
0.0007747
0.000748988
0.000749044
0.0007766
0.000747117
0.000774753
0.000774831
0.000748934
0.00074893
0.000774798
0.00074907
0.000749117
0.000776788
0.000746946
0.00077493
0.000748974
0.00074906
0.000747058
0.000742364
0.000712541
0.00074048
0.000740506
0.000714579
0.000714498
0.000742453
0.000712435
0.000740407
0.00074036
0.000714595
0.000714534
0.00074048
0.000714464
0.000714402
0.000742261
0.000712489
0.000740362
0.00071444
0.00071436
0.000712371
0.000707771
0.000677716
0.000705814
0.000705758
0.000679678
0.000679715
0.000707673
0.000677761
0.000705862
0.000705837
0.000679706
0.000679724
0.000705714
0.000679738
0.000679798
0.000707765
0.000677783
0.00070574
0.00067981
0.000679891
0.000677889
0.000673019
0.000643361
0.00067107
0.000671118
0.000645316
0.000645372
0.000673082
0.000643437
0.000671068
0.000671092
0.00064528
0.00064535
0.000671198
0.000645388
0.000645359
0.000673078
0.000643387
0.000671259
0.000645342
0.000645282
0.000643336
0.000638663
0.000608527
0.000636693
0.000636737
0.000610581
0.000610502
0.000638716
0.000608421
0.000636673
0.000636754
0.000610612
0.000610558
0.000636672
0.000610456
0.000610408
0.000638691
0.000608472
0.000636601
0.000610492
0.00061042
0.000608363
0.000603736
0.000573489
0.000601813
0.000601719
0.000575508
0.000575517
0.000603634
0.000573536
0.000601839
0.000601744
0.00057548
0.000575394
0.000601656
0.000575536
0.00057559
0.000603679
0.000573414
0.000601681
0.000575434
0.000575588
0.000573614
0.000568735
0.000538901
0.000566783
0.000566837
0.00054083
0.000540906
0.000568811
0.000538978
0.000566739
0.000566701
0.000540827
0.000540915
0.000566932
0.000540952
0.00054095
0.000568686
0.000539004
0.000566918
0.000540963
0.000540946
0.000538987
0.000534225
0.000504388
0.000532248
0.000532282
0.000506386
0.000506276
0.000534268
0.000504218
0.000532265
0.000532353
0.000506431
0.00050645
0.000532288
0.000506218
0.000506248
0.000534324
0.000504352
0.000532299
0.00050637
0.000506278
0.000504222
0.000499599
0.000469211
0.000497643
0.000497526
0.000471269
0.00047127
0.000499442
0.000469249
0.000497679
0.000497649
0.000471242
0.000471201
0.000497508
0.00047127
0.000471263
0.000499548
0.000469169
0.000497526
0.000471198
0.000471232
0.000469227
0.000464445
0.000434352
0.000462526
0.000462561
0.000436356
0.000436431
0.000464503
0.000434435
0.000462492
0.000462454
0.000436333
0.000436322
0.000462554
0.00043646
0.000436424
0.000464401
0.000434352
0.000462515
0.000436354
0.000436398
0.000434418
0.00042957
0.000398971
0.000427583
0.000427625
0.00040095
0.000400932
0.000429632
0.0003989
0.000427571
0.000427563
0.00040097
0.000400996
0.000427623
0.000400914
0.000400917
0.000429574
0.000399014
0.000427618
0.000400998
0.000400962
0.000398929
0.000394155
0.000364166
0.000392109
0.000392072
0.000366102
0.000366088
0.000394078
0.000364156
0.000392145
0.000392189
0.000366118
0.000366162
0.000392069
0.00036609
0.000366108
0.000394201
0.000364222
0.000392116
0.000366154
0.000366115
0.00036417
0.000359504
0.000329557
0.00035756
0.000357555
0.000331709
0.000331745
0.0003595
0.000329612
0.000357572
0.000357627
0.000331673
0.000331642
0.000357577
0.000331756
0.000331744
0.000359572
0.000329514
0.000357578
0.000331642
0.000331699
0.00032958
0.000324739
0.000293725
0.000322867
0.000322896
0.000295871
0.00029587
0.000324785
0.000293716
0.000322839
0.000322813
0.000295867
0.000295844
0.000322887
0.000295864
0.000295857
0.000324704
0.000293687
0.000322854
0.000295842
0.000295856
0.000293709
0.000288686
0.000257127
0.00028664
0.000286635
0.000258975
0.000258964
0.000288672
0.000257109
0.000286638
0.000286603
0.000258987
0.000258998
0.000286623
0.000258961
0.000258965
0.000288637
0.000257143
0.000286623
0.000258998
0.00025898
0.000257121
0.000252215
0.000222131
0.000249979
0.000249971
0.000223939
0.000223937
0.000252198
0.00022213
0.000249992
0.000250007
0.000223947
0.000223961
0.000249976
0.000223938
0.000223944
0.000252233
0.000222151
0.000249992
0.000223963
0.000223953
0.000222136
0.000217546
0.000188741
0.000215546
0.000215545
0.000190898
0.000190899
0.000217547
0.000188746
0.000215549
0.000215563
0.000190889
0.000190889
0.000215552
0.000190899
0.000190901
0.000217567
0.000188727
0.000215557
0.000190888
0.000190891
0.000188739
0.000184115
0.000154481
0.000182499
0.0001825
0.000156771
0.000156773
0.000184122
0.000154486
0.000182489
0.000182479
0.000156766
0.000156756
0.000182497
0.000156772
0.000156766
0.000184101
0.000154469
0.000182486
0.000156753
0.000156759
0.000154475
0.000149725
0.000118693
0.000148055
0.000148057
0.000120948
0.000120946
0.000149729
0.000118691
0.000148052
0.000148043
0.000120947
0.000120941
0.000148051
0.000120946
0.000120943
0.000149714
0.000118686
0.000148047
0.000120942
0.000120943
0.000118687
0.000113487
8.01331e-05
0.000111492
0.000111487
8.20657e-05
8.20687e-05
0.000113482
8.0135e-05
0.000111491
0.000111483
8.20657e-05
8.20673e-05
0.000111486
8.20683e-05
8.20668e-05
0.000113478
8.01331e-05
0.000111486
8.20677e-05
8.20666e-05
8.01325e-05
7.46024e-05
4.00293e-05
7.20982e-05
7.20997e-05
4.18763e-05
4.18761e-05
7.46035e-05
4.00302e-05
7.20988e-05
7.20998e-05
4.18731e-05
4.18718e-05
7.20996e-05
4.18751e-05
4.18732e-05
7.46024e-05
4.00266e-05
7.20985e-05
4.18726e-05
4.18721e-05
4.00257e-05
3.46535e-05
6.5236e-06
3.22129e-05
3.22114e-05
9.23987e-06
9.24111e-06
3.46543e-05
6.52475e-06
3.22067e-05
3.22066e-05
9.24212e-06
9.23737e-06
3.22083e-05
9.24218e-06
9.23741e-06
3.46508e-05
6.52076e-06
3.22064e-05
9.24005e-06
9.24079e-06
6.52163e-06
3.38676e-06
4.6655e-06
4.66592e-06
3.38728e-06
4.66673e-06
4.66289e-06
3.63862e-06
3.63761e-06
3.63801e-06
4.66367e-06
3.38315e-06
4.66508e-06
0.00353509
0.00353764
0.00353638
0.00353652
0.0035642
0.00353756
0.00356719
0.00353785
0.00356402
0.00353759
0.00353782
0.00356717
0.00354864
0.00357042
0.00357044
0.00350755
0.00352124
0.00352517
0.00349995
0.0034981
0.00350341
0.00350747
0.0035212
0.00352509
0.00349985
0.00352361
0.00352357
0.00352357
0.00349702
0.00349695
0.00349703
0.00349701
0.00350734
0.0035196
0.00352419
0.00351496
0.00352634
0.00350448
0.00351515
0.00349809
0.0035034
0.00350729
0.00352417
0.00351935
0.00351492
0.00352632
0.00351517
0.00350455
0.00352507
0.00352496
0.00351207
0.00350432
0.00350435
0.00347989
0.00349424
0.00349407
0.00347799
0.00349148
0.00347695
0.0034798
0.00349424
0.003494
0.003478
0.00348785
0.00348795
0.00348791
0.00345967
0.00345965
0.00345966
0.00345964
0.00347774
0.00349218
0.00348633
0.00347703
0.00349107
0.00347789
0.00347693
0.00349147
0.00347703
0.00347779
0.00348643
0.00349275
0.00347713
0.00349117
0.00347698
0.0034783
0.00349442
0.0034945
0.00347549
0.00347867
0.00347869
0.00343742
0.0034522
0.00345307
0.00343614
0.00345113
0.00343528
0.00343749
0.00345221
0.00345298
0.00343614
0.00344963
0.0034496
0.00344959
0.00341702
0.00341704
0.00341701
0.003417
0.00343629
0.00345168
0.00344762
0.00343719
0.00345072
0.00343674
0.00343717
0.00345112
0.00343528
0.00343627
0.00344766
0.00345176
0.00343724
0.00345078
0.00343723
0.00343673
0.00345254
0.00345256
0.00343451
0.0034365
0.00343646
0.00339122
0.00340752
0.00340899
0.00338977
0.00340687
0.00338918
0.00339114
0.0034075
0.00340892
0.00338974
0.00340549
0.00340545
0.00340545
0.00336947
0.00336949
0.00336947
0.00336946
0.00339038
0.00340741
0.00340372
0.00339197
0.00340682
0.00339049
0.00339204
0.00340684
0.00338916
0.00339033
0.00340374
0.0034074
0.00339196
0.00340682
0.00339202
0.00339049
0.00340767
0.00340762
0.00338874
0.00338984
0.00338983
0.00334211
0.00335929
0.00336067
0.00334094
0.00335888
0.00334065
0.00334217
0.00335929
0.00336053
0.00334095
0.00335729
0.00335725
0.00335725
0.00332059
0.00332061
0.00332057
0.00332057
0.00334179
0.00335932
0.00335582
0.00334357
0.00335895
0.0033417
0.00334359
0.00335887
0.00334065
0.00334178
0.0033558
0.00335935
0.00334359
0.00335894
0.0033436
0.00334161
0.00335933
0.00335938
0.00334023
0.00334109
0.00334108
0.00329304
0.00331038
0.00331143
0.00329222
0.0033101
0.00329201
0.00329301
0.00331038
0.00331142
0.00329219
0.00330844
0.00330842
0.00330841
0.00327225
0.00327226
0.00327225
0.00327223
0.00329301
0.00331041
0.00330711
0.00329498
0.00331018
0.00329288