/*--------------------------------*- C++ -*----------------------------------*\
| =========                 |                                                 |
| \\      /  F ield         | OpenFOAM: The Open Source CFD Toolbox           |
|  \\    /   O peration     | Version:  v2012                                 |
|   \\  /    A nd           | Website:  www.openfoam.com                      |
|    \\/     M anipulation  |                                                 |
\*---------------------------------------------------------------------------*/
FoamFile
{
    version     2.0;
    format      ascii;
    class       volScalarField;
    location    "1862.5";
    object      epsilon;
}
// * * * * * * * * * * * * * * * * * * * * * * * * * * * * * * * * * * * * * //

dimensions      [0 2 -3 0 0 0 0];


internalField   nonuniform List<scalar> 
171728
(
1.88563e-09
3.27891e-08
4.27002e-09
4.59269e-09
1.8419e-09
2.71906e-08
3.91502e-09
4.64782e-09
1.71493e-09
2.00517e-08
3.56401e-09
5.01458e-09
1.58019e-09
1.64904e-08
3.25833e-09
5.31608e-09
1.43866e-09
1.58195e-08
2.99734e-09
5.11953e-09
1.29614e-09
1.59147e-08
2.77454e-09
4.70977e-09
1.14074e-09
1.65622e-08
2.5977e-09
3.90238e-09
1.01827e-09
1.67685e-08
2.46633e-09
3.0143e-09
9.2274e-10
1.27655e-08
2.378e-09
2.59231e-09
8.46544e-10
7.18508e-09
2.33388e-09
2.1397e-09
8.02218e-10
4.44159e-09
2.32775e-09
1.9404e-09
7.72838e-10
3.14165e-09
2.36675e-09
1.84666e-09
7.4767e-10
2.18801e-09
2.44841e-09
1.85342e-09
7.24679e-10
2.04584e-09
2.59754e-09
1.92283e-09
7.04449e-10
2.24966e-09
2.84821e-09
2.06442e-09
6.85053e-10
2.61288e-09
3.22724e-09
2.34768e-09
6.66346e-10
3.13958e-09
3.73277e-09
2.80285e-09
6.49109e-10
3.86134e-09
4.57153e-09
3.55163e-09
6.35683e-10
4.93316e-09
5.52883e-09
4.89067e-09
6.28264e-10
6.76231e-09
7.13662e-09
7.00127e-09
6.27789e-10
8.91639e-09
9.74501e-09
1.07169e-08
6.41723e-10
1.29037e-08
1.27322e-08
1.85654e-08
6.63624e-10
1.6833e-08
1.84265e-08
2.79662e-08
7.08076e-10
2.47223e-08
2.44556e-08
4.51223e-08
8.11084e-10
3.29632e-08
3.31349e-08
7.28435e-08
9.15676e-10
4.28157e-08
4.61207e-08
1.12467e-07
1.02348e-09
6.21473e-08
5.99458e-08
1.55041e-07
1.42195e-09
7.4269e-08
7.28177e-08
2.20277e-07
1.6337e-09
8.85692e-08
9.81861e-08
2.84088e-07
2.20404e-09
1.28251e-07
1.17632e-07
3.61597e-07
2.88147e-09
1.37577e-07
1.42812e-07
4.33187e-07
3.82052e-09
1.70495e-07
1.77535e-07
5.18822e-07
4.96089e-09
2.11622e-07
2.02919e-07
5.87887e-07
6.77249e-09
2.3704e-07
2.42632e-07
6.46577e-07
8.60941e-09
2.89003e-07
2.7829e-07
7.10961e-07
1.38043e-08
3.09377e-07
3.23618e-07
7.42452e-07
1.58396e-08
3.63737e-07
3.69281e-07
8.39336e-07
1.99716e-08
4.24036e-07
4.10231e-07
8.08582e-07
2.52398e-08
4.44303e-07
4.41424e-07
8.67792e-07
3.05229e-08
4.95941e-07
5.12749e-07
9.30121e-07
4.30567e-08
5.57473e-07
5.52366e-07
9.51161e-07
5.17194e-08
5.94643e-07
5.98495e-07
9.74344e-07
6.13006e-08
6.53872e-07
6.49715e-07
1.00234e-06
7.58958e-08
6.98545e-07
7.00425e-07
1.02955e-06
8.88087e-08
7.34386e-07
7.35173e-07
1.0677e-06
1.06973e-07
7.8746e-07
7.87128e-07
1.09662e-06
1.3074e-07
8.21191e-07
8.33033e-07
1.11301e-06
1.56667e-07
8.68053e-07
8.58645e-07
1.14441e-06
1.70563e-07
9.13831e-07
9.01843e-07
1.1685e-06
1.81176e-07
9.31534e-07
9.48028e-07
1.19339e-06
2.29206e-07
9.61634e-07
9.65277e-07
1.21238e-06
2.78264e-07
1.01019e-06
9.98292e-07
1.23976e-06
2.93629e-07
1.02134e-06
1.02947e-06
1.25513e-06
3.07729e-07
1.05855e-06
1.05262e-06
1.28224e-06
3.47704e-07
1.07345e-06
1.07961e-06
1.29521e-06
3.87138e-07
1.09376e-06
1.0906e-06
1.32217e-06
4.14869e-07
1.12854e-06
1.12722e-06
1.33289e-06
4.48644e-07
1.13341e-06
1.13668e-06
1.33681e-06
4.68086e-07
1.15544e-06
1.15483e-06
1.35749e-06
4.95964e-07
1.17159e-06
1.17452e-06
1.37957e-06
5.32344e-07
1.18775e-06
1.18761e-06
1.39377e-06
5.55452e-07
1.20686e-06
1.20789e-06
1.42049e-06
5.81815e-07
1.21565e-06
1.22077e-06
1.43465e-06
5.9937e-07
1.23799e-06
1.22956e-06
1.41001e-06
6.17767e-07
1.23921e-06
1.23178e-06
1.39816e-06
6.35154e-07
1.24894e-06
1.2496e-06
1.45875e-06
6.6419e-07
1.27029e-06
1.28082e-06
1.50289e-06
6.77488e-07
1.28038e-06
1.28268e-06
1.47441e-06
6.91174e-07
1.27863e-06
1.27511e-06
1.45152e-06
7.08799e-07
1.28379e-06
1.28237e-06
1.47498e-06
7.20781e-07
1.28891e-06
1.28582e-06
1.48769e-06
7.26464e-07
1.29666e-06
1.30299e-06
1.49751e-06
7.5469e-07
1.31709e-06
1.31412e-06
1.51296e-06
7.66213e-07
1.31528e-06
1.30817e-06
1.51263e-06
7.64098e-07
1.30872e-06
1.31149e-06
1.52301e-06
7.69195e-07
1.30932e-06
1.32189e-06
1.51433e-06
7.87836e-07
1.31636e-06
1.31716e-06
1.49927e-06
7.97848e-07
1.31848e-06
1.31296e-06
1.52247e-06
8.00535e-07
1.32343e-06
1.31663e-06
1.52987e-06
8.02949e-07
1.32831e-06
1.32671e-06
1.53233e-06
8.08884e-07
1.32581e-06
1.32468e-06
1.52994e-06
8.11085e-07
1.31215e-06
1.31978e-06
1.51865e-06
8.09679e-07
1.31059e-06
1.31842e-06
1.52508e-06
8.12053e-07
1.32032e-06
1.31152e-06
1.53363e-06
8.13201e-07
1.32022e-06
1.31006e-06
1.52908e-06
8.19953e-07
1.32551e-06
1.32811e-06
1.54162e-06
8.17747e-07
1.29902e-06
1.31405e-06
1.51422e-06
7.97561e-07
1.27696e-06
1.27886e-06
1.47827e-06
7.98297e-07
1.31751e-06
1.30347e-06
1.55284e-06
8.19427e-07
1.32768e-06
1.32351e-06
1.56221e-06
8.04605e-07
1.2628e-06
1.27376e-06
1.46622e-06
7.75379e-07
1.2519e-06
1.25466e-06
1.47448e-06
7.87958e-07
1.29745e-06
1.29007e-06
1.54502e-06
8.01329e-07
1.28906e-06
1.28499e-06
1.50631e-06
7.58103e-07
1.18583e-06
1.18591e-06
1.41435e-06
4.17029e-09
4.81818e-09
3.57919e-09
6.73551e-09
4.73376e-09
3.83855e-09
1.82424e-09
2.97289e-09
1.34724e-09
2.30659e-09
1.57637e-08
5.98648e-09
4.7172e-09
3.42853e-09
6.34398e-09
4.66176e-09
4.12328e-09
3.9882e-09
7.23715e-09
3.0533e-09
6.87454e-09
2.76757e-09
6.59181e-09
6.78561e-09
8.64976e-09
4.77054e-09
8.67535e-09
4.46865e-09
1.25097e-08
2.91468e-08
1.29849e-08
4.69224e-09
4.29096e-09
1.0843e-08
4.01074e-09
1.08897e-08
4.68526e-09
3.9544e-09
3.992e-09
6.74803e-09
2.68455e-09
6.40913e-09
2.47987e-09
6.69081e-09
6.62639e-09
8.67986e-09
4.35764e-09
8.74806e-09
4.04863e-09
1.31473e-08
2.15887e-08
1.35088e-08
4.25928e-09
3.89293e-09
1.09188e-08
3.6479e-09
1.10456e-08
5.04913e-09
3.96822e-09
4.06342e-09
6.29524e-09
2.42462e-09
5.96729e-09
2.2776e-09
6.53351e-09
6.34611e-09
8.79083e-09
3.95426e-09
8.95299e-09
3.69286e-09
1.35975e-08
1.70145e-08
1.3685e-08
3.86556e-09
3.55227e-09
1.11009e-08
3.33014e-09
1.13488e-08
5.37281e-09
4.04173e-09
4.09519e-09
5.85245e-09
2.23768e-09
5.35712e-09
2.11849e-09
6.26083e-09
6.0676e-09
9.00203e-09
3.61116e-09
9.08997e-09
3.37661e-09
1.36635e-08
1.5854e-08
1.23339e-08
3.52954e-09
3.25886e-09
1.14389e-08
3.05954e-09
1.16492e-08
5.25436e-09
4.06129e-09
3.97653e-09
5.13482e-09
2.07702e-09
4.36386e-09
1.96717e-09
5.99878e-09
5.89234e-09
9.09758e-09
3.30304e-09
8.96831e-09
3.10163e-09
1.12978e-08
1.58646e-08
7.39221e-09
3.23873e-09
2.99355e-09
1.17027e-08
2.82629e-09
1.17506e-08
4.82681e-09
3.92527e-09
3.46666e-09
4.10078e-09
1.93445e-09
3.4005e-09
1.85766e-09
5.83801e-09
5.8182e-09
8.7538e-09
3.04053e-09
7.52943e-09
2.87506e-09
6.23028e-09
1.64158e-08
3.81038e-09
2.97606e-09
2.7618e-09
1.1689e-08
2.6375e-09
1.04789e-08
4.12321e-09
3.40347e-09
3.01163e-09
3.20307e-09
1.83891e-09
2.73565e-09
1.77635e-09
5.76519e-09
5.67962e-09
6.96566e-09
2.82446e-09
5.22889e-09
2.68851e-09
3.31093e-09
1.67686e-08
2.42719e-09
2.74787e-09
2.56999e-09
9.77834e-09
2.49343e-09
7.19303e-09
3.05737e-09
2.98056e-09
2.65053e-09
2.60832e-09
1.75033e-09
2.2875e-09
1.66753e-09
5.60286e-09
4.42125e-09
4.73383e-09
2.64934e-09
3.6633e-09
2.5415e-09
2.2516e-09
1.44091e-08
1.87846e-09
2.56034e-09
2.41661e-09
6.37495e-09
2.39659e-09
4.57342e-09
2.61932e-09
2.62357e-09
2.29101e-09
2.21771e-09
1.6463e-09
1.99665e-09
1.59774e-09
4.13733e-09
3.0092e-09
3.40042e-09
2.50933e-09
2.75602e-09
2.43032e-09
1.81619e-09
8.31323e-09
1.71056e-09
2.41063e-09
2.29274e-09
4.15819e-09
2.34173e-09
3.21567e-09
2.15819e-09
2.27836e-09
2.07731e-09
1.94629e-09
1.5926e-09
1.91814e-09
1.55545e-09
2.96138e-09
2.31901e-09
2.58589e-09
2.40846e-09
2.15331e-09
2.35812e-09
1.68323e-09
4.85704e-09
1.61983e-09
2.29083e-09
2.20159e-09
2.98048e-09
2.32483e-09
2.3471e-09
1.93929e-09
2.07631e-09
1.97949e-09
1.90294e-09
1.55256e-09
1.90079e-09
1.581e-09
2.28761e-09
1.90885e-09
2.03256e-09
2.35193e-09
1.81348e-09
2.34391e-09
1.61727e-09
3.44365e-09
1.64764e-09
2.20395e-09
2.15322e-09
2.16819e-09
2.35641e-09
1.84989e-09
1.8394e-09
1.98513e-09
1.94981e-09
1.93652e-09
1.60229e-09
2.1145e-09
1.66916e-09
1.90844e-09
1.8634e-09
1.79568e-09
2.34675e-09
1.80365e-09
2.377e-09
1.67584e-09
2.35869e-09
1.74392e-09
2.16253e-09
2.15103e-09
1.80299e-09
2.42442e-09
1.76379e-09
1.83062e-09
1.97371e-09
2.02272e-09
2.13654e-09
1.70178e-09
2.15104e-09
1.82439e-09
1.8822e-09
1.90148e-09
1.82471e-09
2.39698e-09
1.92858e-09
2.49706e-09
1.7582e-09
2.04391e-09
1.84241e-09
2.17099e-09
2.20314e-09
1.76583e-09
2.55787e-09
1.85076e-09
1.88713e-09
2.05898e-09
2.14971e-09
2.1569e-09
1.86228e-09
2.25787e-09
2.02735e-09
1.93684e-09
2.0206e-09
1.97629e-09
2.53578e-09
2.16569e-09
2.70936e-09
1.88143e-09
2.17788e-09
2.04699e-09
2.23807e-09
2.32929e-09
1.89284e-09
2.76779e-09
2.05946e-09
2.00717e-09
2.21197e-09
2.3945e-09
2.31534e-09
2.09658e-09
2.55279e-09
2.34977e-09
2.08198e-09
2.30888e-09
2.2336e-09
2.78002e-09
2.48884e-09
3.09093e-09
2.11967e-09
2.50737e-09
2.34831e-09
2.38767e-09
2.58037e-09
2.13795e-09
3.10279e-09
2.38871e-09
2.25332e-09
2.48918e-09
2.80073e-09
2.64475e-09
2.46496e-09
3.00656e-09
2.81039e-09
2.41339e-09
2.69485e-09
2.5936e-09
3.20263e-09
2.96789e-09
3.54949e-09
2.4629e-09
2.98335e-09
2.80867e-09
2.68175e-09
2.98326e-09
2.48915e-09
3.58785e-09
2.87437e-09
2.62162e-09
2.97021e-09
3.4563e-09
3.16432e-09
2.97938e-09
3.66354e-09
3.48955e-09
2.86237e-09
3.31856e-09
3.11525e-09
3.78088e-09
3.64507e-09
4.16952e-09
2.97937e-09
3.62266e-09
3.56085e-09
3.14247e-09
3.68471e-09
3.0402e-09
4.31257e-09
3.58494e-09
3.33842e-09
3.7449e-09
4.48659e-09
3.90789e-09
3.74269e-09
4.66892e-09
4.54981e-09
3.57685e-09
4.47049e-09
3.89917e-09
4.44836e-09
4.63766e-09
5.37527e-09
3.75407e-09
4.67596e-09
4.55204e-09
4.00505e-09
4.79973e-09
3.76771e-09
5.27681e-09
4.60184e-09
4.38649e-09
4.82061e-09
6.70325e-09
4.93905e-09
4.80719e-09
6.32773e-09
6.21913e-09
4.79754e-09
6.75003e-09
4.88395e-09
5.51654e-09
6.27076e-09
6.76851e-09
4.96005e-09
6.23951e-09
6.06379e-09
5.10601e-09
6.79855e-09
5.00088e-09
6.73401e-09
6.0097e-09
6.35577e-09
7.48379e-09
9.768e-09
6.8199e-09
6.79546e-09
8.5413e-09
8.36006e-09
7.6194e-09
9.72151e-09
6.7505e-09
7.21545e-09
8.28976e-09
9.0107e-09
6.61518e-09
8.25535e-09
8.30027e-09
7.49371e-09
1.0392e-08
6.55843e-09
9.03893e-09
8.27876e-09
9.82635e-09
1.08037e-08
1.55141e-08
9.26268e-09
8.92302e-09
1.20198e-08
1.16659e-08
1.06682e-08
1.61919e-08
8.96602e-09
9.66342e-09
1.15995e-08
1.24704e-08
8.81938e-09
1.18005e-08
1.16755e-08
1.15243e-08
1.52829e-08
8.79124e-09
1.18099e-08
1.16753e-08
1.60766e-08
1.76167e-08
2.55904e-08
1.32447e-08
1.28135e-08
1.65648e-08
1.54027e-08
1.81882e-08
2.4132e-08
1.27443e-08
1.36763e-08
1.58898e-08
1.77101e-08
1.2826e-08
1.53291e-08
1.6035e-08
1.70811e-08
2.69117e-08
1.28511e-08
1.71215e-08
1.59761e-08
2.56592e-08
2.84534e-08
4.32589e-08
1.84393e-08
1.69858e-08
2.33407e-08
2.3826e-08
2.69084e-08
4.6637e-08
1.7397e-08
1.87064e-08
2.23099e-08
2.17719e-08
1.73283e-08
2.34239e-08
2.23017e-08
2.98997e-08
3.94219e-08
1.71206e-08
2.17791e-08
2.20195e-08
4.08208e-08
4.68802e-08
6.63398e-08
2.4952e-08
2.51943e-08
3.2551e-08
2.92155e-08
5.07709e-08
5.97834e-08
2.38553e-08
2.46039e-08
3.076e-08
3.24217e-08
2.39336e-08
2.94484e-08
3.0369e-08
4.42059e-08
7.28603e-08
2.37771e-08
3.20891e-08
3.03579e-08
6.58631e-08
7.32052e-08
1.0321e-07
3.43228e-08
3.24728e-08
4.45255e-08
4.14374e-08
6.60103e-08
1.04236e-07
3.27569e-08
3.34354e-08
4.17719e-08
4.15954e-08
3.341e-08
4.11772e-08
4.19486e-08
7.70766e-08
9.64883e-08
3.31974e-08
4.18699e-08
4.14659e-08
1.04719e-07
1.15279e-07
1.50766e-07
4.94858e-08
4.36244e-08
5.74015e-08
5.6914e-08
1.10778e-07
1.52673e-07
4.62972e-08
4.59653e-08
5.49486e-08
5.63955e-08
4.46783e-08
5.60716e-08
5.44052e-08
1.09176e-07
1.5663e-07
4.44131e-08
5.62744e-08
5.44922e-08
1.44749e-07
1.54664e-07
1.90108e-07
5.80904e-08
6.24601e-08
6.69777e-08
7.25544e-08
1.70855e-07
2.16927e-07
5.60945e-08
5.96874e-08
6.99403e-08
7.00163e-08
5.78351e-08
7.31511e-08
7.21567e-08
1.64276e-07
1.98892e-07
5.76108e-08
7.00587e-08
7.09282e-08
2.06484e-07
2.12852e-07
2.90688e-07
7.60692e-08
7.37255e-08
9.36524e-08
8.08827e-08
2.19109e-07
2.23251e-07
7.72332e-08
7.34386e-08
8.96062e-08
9.05749e-08
7.68207e-08
8.00542e-08
8.76916e-08
2.09958e-07
2.70339e-07
7.58954e-08
8.99883e-08
8.87164e-08
2.71979e-07
2.99564e-07
3.39836e-07
9.81875e-08
8.97881e-08
1.15926e-07
1.22531e-07
2.40286e-07
3.9836e-07
9.35737e-08
9.83827e-08
1.13082e-07
1.14815e-07
9.24184e-08
1.21832e-07
1.12899e-07
2.8994e-07
3.60393e-07
9.36432e-08
1.1502e-07
1.11997e-07
3.4366e-07
3.56717e-07
4.26766e-07
1.20523e-07
1.29273e-07
1.35997e-07
1.37376e-07
4.18408e-07
4.29962e-07
1.18296e-07
1.17594e-07
1.3395e-07
1.33565e-07
1.19615e-07
1.36098e-07
1.35256e-07
3.7106e-07
4.06016e-07
1.18031e-07
1.33755e-07
1.32654e-07
4.20521e-07
4.42998e-07
5.02387e-07
1.44816e-07
1.38755e-07
1.6991e-07
1.56713e-07
4.32472e-07
4.63829e-07
1.42947e-07
1.42583e-07
1.69373e-07
1.70239e-07
1.40549e-07
1.56504e-07
1.66436e-07
4.24758e-07
5.1536e-07
1.3829e-07
1.70185e-07
1.67819e-07
4.98679e-07
5.17574e-07
5.61167e-07
1.74527e-07
1.70738e-07
1.91281e-07
2.05831e-07
4.91148e-07
5.90063e-07
1.74216e-07
1.77774e-07
1.90403e-07
1.95765e-07
1.75672e-07
2.05582e-07
1.98808e-07
5.30804e-07
5.66733e-07
1.77625e-07
1.9459e-07
1.97568e-07
5.76764e-07
5.74722e-07
6.27247e-07
2.02642e-07
2.11734e-07
2.3344e-07
2.26831e-07
6.01935e-07
6.34724e-07
2.01508e-07
2.03677e-07
2.33013e-07
2.33614e-07
2.05788e-07
2.26252e-07
2.27855e-07
5.80316e-07
6.35334e-07
2.03329e-07
2.32872e-07
2.27526e-07
6.29072e-07
6.38965e-07
6.77511e-07
2.38625e-07
2.37511e-07
2.58708e-07
2.78739e-07
6.50163e-07
7.02302e-07
2.38605e-07
2.41964e-07
2.56226e-07
2.67501e-07
2.39936e-07
2.79026e-07
2.78412e-07
6.49489e-07
6.91969e-07
2.40804e-07
2.68447e-07
2.78759e-07
7.02721e-07
6.95748e-07
7.64601e-07
2.75215e-07
2.89207e-07
3.28936e-07
3.06448e-07
7.13299e-07
7.34551e-07
2.70923e-07
2.79573e-07
3.25882e-07
3.14841e-07
2.86889e-07
3.04967e-07
3.00125e-07
7.0584e-07
7.46975e-07
2.86526e-07
3.13199e-07
2.99046e-07
7.2976e-07
7.75754e-07
7.9356e-07
3.39211e-07
3.11485e-07
3.56757e-07
3.45047e-07
7.4338e-07
7.85569e-07
3.36724e-07
3.25247e-07
3.58458e-07
3.56312e-07
3.07791e-07
3.43596e-07
3.75692e-07
7.59358e-07
7.97697e-07
3.06977e-07
3.55971e-07
3.7413e-07
8.30586e-07
8.02332e-07
8.31664e-07
3.64106e-07
3.62466e-07
3.96647e-07
4.12331e-07
8.05406e-07
8.47454e-07
3.66854e-07
3.68192e-07
3.95023e-07
4.02885e-07
3.90728e-07
4.1497e-07
3.99474e-07
8.09411e-07
8.31009e-07
3.88857e-07
4.03635e-07
3.97755e-07
8.06681e-07
8.4236e-07
8.64437e-07
4.10745e-07
4.23147e-07
4.44579e-07
4.4182e-07
8.52536e-07
8.57272e-07
4.07035e-07
4.10468e-07
4.40628e-07
4.30196e-07
4.001e-07
4.39155e-07
4.13648e-07
8.37913e-07
8.57631e-07
3.98459e-07
4.28248e-07
4.12337e-07
8.46575e-07
8.72091e-07
8.9748e-07
4.5204e-07
4.4754e-07
4.79729e-07
4.78418e-07
8.65288e-07
9.02842e-07
4.50175e-07
4.44582e-07
4.80856e-07
4.96363e-07
4.24933e-07
4.77228e-07
4.98889e-07
8.68888e-07
9.10443e-07
4.2517e-07
4.96067e-07
5.01021e-07
9.21042e-07
9.09476e-07
9.45633e-07
4.96315e-07
4.94889e-07
5.5201e-07
5.44771e-07
9.13787e-07
9.35909e-07
4.95956e-07
5.11936e-07
5.46486e-07
5.45331e-07
5.23016e-07
5.46758e-07
5.66605e-07
9.20762e-07
9.38723e-07
5.23417e-07
5.44681e-07
5.62972e-07
9.44611e-07
9.53809e-07
9.69034e-07
5.62966e-07
5.56267e-07
5.91338e-07
5.80952e-07
9.43441e-07
9.65294e-07
5.582e-07
5.53058e-07
5.91246e-07
5.84232e-07
5.74893e-07
5.80784e-07
5.91741e-07
9.45032e-07
9.64853e-07
5.70125e-07
5.85148e-07
5.88072e-07
9.67483e-07
9.76561e-07
9.99597e-07
6.05218e-07
5.94514e-07
6.37076e-07
6.43747e-07
9.74644e-07
1.00435e-06
6.03963e-07
5.97957e-07
6.34464e-07
6.38796e-07
5.97691e-07
6.41591e-07
6.29349e-07
9.74172e-07
1.00087e-06
5.96379e-07
6.36778e-07
6.29182e-07
9.94458e-07
1.00719e-06
1.02772e-06
6.455e-07
6.57286e-07
6.8651e-07
6.87866e-07
1.01247e-06
1.02781e-06
6.44751e-07
6.51078e-07
6.85131e-07
6.89947e-07
6.42382e-07
6.87516e-07
6.80293e-07
1.00904e-06
1.03021e-06
6.4148e-07
6.8966e-07
6.79873e-07
1.02179e-06
1.03569e-06
1.05239e-06
7.00638e-07
6.97035e-07
7.27672e-07
7.23276e-07
1.03377e-06
1.05029e-06
6.97515e-07
7.02159e-07
7.24533e-07
7.26549e-07
6.92336e-07
7.25694e-07
7.27521e-07
1.03732e-06
1.05148e-06
6.93133e-07
7.24969e-07
7.28423e-07
1.05844e-06
1.05776e-06
1.07881e-06
7.34948e-07
7.3234e-07
7.72484e-07
7.72477e-07
1.05788e-06
1.08505e-06
7.32983e-07
7.34605e-07
7.7046e-07
7.72009e-07
7.41752e-07
7.73353e-07
7.85263e-07
1.05724e-06
1.08364e-06
7.40759e-07
7.73995e-07
7.82332e-07
1.09057e-06
1.08936e-06
1.12073e-06
7.87977e-07
7.87094e-07
8.27375e-07
8.15767e-07
1.09265e-06
1.10575e-06
7.85056e-07
7.85952e-07
8.20295e-07
8.23463e-07
7.95983e-07
8.14552e-07
8.14382e-07
1.09442e-06
1.11672e-06
7.94195e-07
8.23792e-07
8.17888e-07
1.108e-06
1.12821e-06
1.14479e-06
8.40292e-07
8.22633e-07
8.68533e-07
8.54469e-07
1.11065e-06
1.13842e-06
8.31642e-07
8.32957e-07
8.66803e-07
8.53734e-07
8.19675e-07
8.53244e-07
8.56644e-07
1.12121e-06
1.12898e-06
8.22816e-07
8.52131e-07
8.5308e-07
1.13476e-06
1.14866e-06
1.1489e-06
8.72842e-07
8.69352e-07
8.81215e-07
9.05584e-07
1.14927e-06
1.17134e-06
8.75506e-07
8.61093e-07
8.92058e-07
8.90081e-07
8.6958e-07
9.06533e-07
8.9439e-07
1.13421e-06
1.15933e-06
8.67415e-07
8.88195e-07
8.95844e-07
1.1637e-06
1.1508e-06
1.16427e-06
8.83501e-07
9.11058e-07
9.02434e-07
9.21156e-07
1.17488e-06
1.17857e-06
8.95809e-07
9.02077e-07
9.15076e-07
9.38836e-07
9.02842e-07
9.27267e-07
9.33004e-07
1.16813e-06
1.19478e-06
9.03412e-07
9.39904e-07
9.30883e-07
1.18698e-06
1.17565e-06
1.2241e-06
9.19699e-07
9.25754e-07
9.82155e-07
9.50355e-07
1.18262e-06
1.20163e-06
9.27628e-07
9.48165e-07
9.67492e-07
9.63664e-07
9.39663e-07
9.49555e-07
9.57514e-07
1.20111e-06
1.2117e-06
9.38109e-07
9.60638e-07
9.5971e-07
1.20655e-06
1.23351e-06
1.25099e-06
9.95748e-07
9.65204e-07
1.01473e-06
1.00728e-06
1.21039e-06
1.24267e-06
9.785e-07
9.68707e-07
1.00114e-06
9.92625e-07
9.67813e-07
1.0023e-06
9.97537e-07
1.21571e-06
1.2304e-06
9.70013e-07
9.90082e-07
9.95214e-07
1.23527e-06
1.25376e-06
1.24729e-06
1.01649e-06
1.01449e-06
1.01853e-06
1.02268e-06
1.24835e-06
1.25138e-06
1.00499e-06
1.00035e-06
1.01236e-06
1.02124e-06
1.00274e-06
1.0194e-06
1.01836e-06
1.23617e-06
1.2515e-06
9.99357e-07
1.02199e-06
1.01898e-06
1.2485e-06
1.24878e-06
1.26465e-06
1.02015e-06
1.02418e-06
1.03389e-06
1.04228e-06
1.25305e-06
1.27095e-06
1.01593e-06
1.02803e-06
1.04023e-06
1.04598e-06
1.02774e-06
1.04652e-06
1.05171e-06
1.25787e-06
1.27538e-06
1.02981e-06
1.04646e-06
1.04885e-06
1.27858e-06
1.27336e-06
1.29599e-06
1.04301e-06
1.05313e-06
1.07299e-06
1.07028e-06
1.28148e-06
1.29425e-06
1.05076e-06
1.05273e-06
1.07556e-06
1.07522e-06
1.05586e-06
1.07256e-06
1.06836e-06
1.28034e-06
1.29512e-06
1.05169e-06
1.07407e-06
1.07059e-06
1.28927e-06
1.30088e-06
1.30996e-06
1.07945e-06
1.07169e-06
1.09245e-06
1.08492e-06
1.29543e-06
1.3e-06
1.08086e-06
1.08088e-06
1.08942e-06
1.08904e-06
1.07598e-06
1.08426e-06
1.0962e-06
1.30005e-06
1.30545e-06
1.07974e-06
1.08748e-06
1.09735e-06
1.31783e-06
1.31436e-06
1.33332e-06
1.09664e-06
1.09586e-06
1.11764e-06
1.12436e-06
1.30928e-06
1.34097e-06
1.09175e-06
1.09162e-06
1.1137e-06
1.11711e-06
1.10037e-06
1.12373e-06
1.11574e-06
1.30851e-06
1.33236e-06
1.10062e-06
1.1186e-06
1.11586e-06
1.32951e-06
1.34041e-06
1.34914e-06
1.12609e-06
1.12825e-06
1.13976e-06
1.13148e-06
1.34465e-06
1.33885e-06
1.12386e-06
1.12636e-06
1.13915e-06
1.13754e-06
1.12112e-06
1.13245e-06
1.12953e-06
1.34012e-06
1.34508e-06
1.12135e-06
1.13601e-06
1.12984e-06
1.33486e-06
1.35059e-06
1.34727e-06
1.14059e-06
1.13282e-06
1.14378e-06
1.14851e-06
1.34023e-06
1.35508e-06
1.13974e-06
1.13843e-06
1.1419e-06
1.1483e-06
1.13058e-06
1.14666e-06
1.14464e-06
1.34638e-06
1.35539e-06
1.13077e-06
1.14675e-06
1.14303e-06
1.3492e-06
1.35101e-06
1.37416e-06
1.14682e-06
1.15607e-06
1.1684e-06
1.16836e-06
1.36369e-06
1.37509e-06
1.14501e-06
1.15478e-06
1.16934e-06
1.17125e-06
1.15449e-06
1.17077e-06
1.17503e-06
1.36295e-06
1.37831e-06
1.15218e-06
1.17276e-06
1.17128e-06
1.37617e-06
1.38176e-06
1.39129e-06
1.17655e-06
1.16992e-06
1.18899e-06
1.18234e-06
1.37684e-06
1.38166e-06
1.17792e-06
1.17527e-06
1.18904e-06
1.18621e-06
1.17787e-06
1.17946e-06
1.18476e-06
1.38124e-06
1.38604e-06
1.17385e-06
1.18219e-06
1.18389e-06
1.38812e-06
1.39349e-06
1.40016e-06
1.19046e-06
1.18899e-06
1.2006e-06
1.20221e-06
1.38781e-06
1.40215e-06
1.18997e-06
1.18985e-06
1.19834e-06
1.19974e-06
1.1888e-06
1.20498e-06
1.20584e-06
1.39033e-06
1.40229e-06
1.18961e-06
1.20395e-06
1.21217e-06
1.41349e-06
1.40618e-06
1.42069e-06
1.20725e-06
1.2039e-06
1.21883e-06
1.21132e-06
1.40462e-06
1.40847e-06
1.20516e-06
1.20323e-06
1.2206e-06
1.21735e-06
1.21289e-06
1.2109e-06
1.22537e-06
1.40637e-06
1.4151e-06
1.21967e-06
1.21747e-06
1.22843e-06
1.43317e-06
1.42308e-06
1.4243e-06
1.22024e-06
1.21777e-06
1.22954e-06
1.23682e-06
1.41403e-06
1.43421e-06
1.22225e-06
1.22212e-06
1.22741e-06
1.23046e-06
1.22551e-06
1.23499e-06
1.2206e-06
1.4188e-06
1.42281e-06
1.22811e-06
1.22842e-06
1.21877e-06
1.41085e-06
1.42697e-06
1.42727e-06
1.23303e-06
1.23947e-06
1.2371e-06
1.24041e-06
1.43771e-06
1.43456e-06
1.22972e-06
1.23146e-06
1.2337e-06
1.23311e-06
1.21867e-06
1.23921e-06
1.21878e-06
1.42458e-06
1.4239e-06
1.21507e-06
1.23108e-06
1.21233e-06
1.39485e-06
1.4288e-06
1.44081e-06
1.23735e-06
1.2404e-06
1.24374e-06
1.24475e-06
1.43591e-06
1.44202e-06
1.23444e-06
1.23457e-06
1.24618e-06
1.24869e-06
1.22155e-06
1.24364e-06
1.24923e-06
1.42692e-06
1.44389e-06
1.21377e-06
1.2418e-06
1.24056e-06
1.44247e-06
1.44907e-06
1.46727e-06
1.25186e-06
1.24965e-06
1.26932e-06
1.26156e-06
1.44724e-06
1.45913e-06
1.254e-06
1.25415e-06
1.27005e-06
1.26775e-06
1.26372e-06
1.26544e-06
1.28715e-06
1.45108e-06
1.46995e-06
1.2586e-06
1.27532e-06
1.29356e-06
1.49968e-06
1.46998e-06
1.46692e-06
1.27107e-06
1.26509e-06
1.27224e-06
1.27707e-06
1.46316e-06
1.47265e-06
1.27202e-06
1.27239e-06
1.2735e-06
1.28035e-06
1.28772e-06
1.27991e-06
1.27804e-06
1.47487e-06
1.47753e-06
1.29524e-06
1.28411e-06
1.28557e-06
1.4767e-06
1.46833e-06
1.46909e-06
1.27315e-06
1.2798e-06
1.27836e-06
1.28182e-06
1.47542e-06
1.47352e-06
1.2742e-06
1.28038e-06
1.27626e-06
1.27816e-06
1.27195e-06
1.27893e-06
1.26551e-06
1.47843e-06
1.46866e-06
1.27682e-06
1.27545e-06
1.26307e-06
1.44978e-06
1.47162e-06
1.48287e-06
1.27927e-06
1.28176e-06
1.28848e-06
1.28326e-06
1.47491e-06
1.47717e-06
1.27707e-06
1.27803e-06
1.28815e-06
1.28292e-06
1.26613e-06
1.28065e-06
1.28009e-06
1.47006e-06
1.47599e-06
1.263e-06
1.27945e-06
1.27232e-06
1.46826e-06
1.48796e-06
1.48653e-06
1.29204e-06
1.28585e-06
1.2931e-06
1.28824e-06
1.48024e-06
1.47923e-06
1.29225e-06
1.28655e-06
1.29338e-06
1.28868e-06
1.28607e-06
1.28885e-06
1.29362e-06
1.47942e-06
1.47794e-06
1.27832e-06
1.28518e-06
1.29036e-06
1.4854e-06
1.48683e-06
1.47732e-06
1.2908e-06
1.28776e-06
1.28782e-06
1.2891e-06
1.48029e-06
1.48389e-06
1.29088e-06
1.2881e-06
1.28787e-06
1.29006e-06
1.29367e-06
1.29146e-06
1.29412e-06
1.47921e-06
1.48932e-06
1.2919e-06
1.29708e-06
1.29892e-06
1.49266e-06
1.48157e-06
1.51732e-06
1.28935e-06
1.29411e-06
1.31502e-06
1.31646e-06
1.49107e-06
1.51778e-06
1.28942e-06
1.29569e-06
1.31422e-06
1.31335e-06
1.29609e-06
1.31434e-06
1.3086e-06
1.49683e-06
1.51402e-06
1.30276e-06
1.31382e-06
1.31199e-06
1.5101e-06
1.52364e-06
1.51972e-06
1.32067e-06
1.31936e-06
1.32222e-06
1.31847e-06
1.52184e-06
1.51488e-06
1.31916e-06
1.31463e-06
1.31958e-06
1.31115e-06
1.31167e-06
1.31725e-06
1.31556e-06
1.51629e-06
1.50401e-06
1.31287e-06
1.3098e-06
1.31275e-06
1.51114e-06
1.51987e-06
1.5004e-06
1.31922e-06
1.31545e-06
1.30666e-06
1.30749e-06
1.5153e-06
1.50222e-06
1.31606e-06
1.30889e-06
1.30642e-06
1.30812e-06
1.31646e-06
1.30968e-06
1.31917e-06
1.50457e-06
1.5038e-06
1.31277e-06
1.30848e-06
1.31722e-06
1.51977e-06
1.50115e-06
1.49774e-06
1.30398e-06
1.30621e-06
1.30225e-06
1.30597e-06
1.50335e-06
1.50346e-06
1.30527e-06
1.31013e-06
1.30589e-06
1.32099e-06
1.31911e-06
1.30837e-06
1.31358e-06
1.50899e-06
1.52315e-06
1.3185e-06
1.32158e-06
1.31676e-06
1.51471e-06
1.50114e-06
1.51671e-06
1.3032e-06
1.3074e-06
1.31741e-06
1.31676e-06
1.50675e-06
1.51563e-06
1.30832e-06
1.32195e-06
1.31951e-06
1.32051e-06
1.30994e-06
1.31501e-06
1.30602e-06
1.52554e-06
1.51988e-06
1.3133e-06
1.31857e-06
1.30796e-06
1.49723e-06
1.52208e-06
1.5279e-06
1.32214e-06
1.31896e-06
1.32675e-06
1.3216e-06
1.51894e-06
1.52075e-06
1.32205e-06
1.31917e-06
1.32336e-06
1.31384e-06
1.30663e-06
1.31808e-06
1.31823e-06
1.52098e-06
1.51226e-06
1.30817e-06
1.31359e-06
1.31678e-06
1.51714e-06
1.52942e-06
1.52354e-06
1.32651e-06
1.32178e-06
1.32264e-06
1.32228e-06
1.5224e-06
1.52221e-06
1.32238e-06
1.31261e-06
1.31914e-06
1.31266e-06
1.32138e-06
1.32171e-06
1.32425e-06
1.5132e-06
1.51145e-06
1.31966e-06
1.31374e-06
1.32257e-06
1.52783e-06
1.52489e-06
1.52394e-06
1.32181e-06
1.32262e-06
1.32106e-06
1.32431e-06
1.525e-06
1.53067e-06
1.319e-06
1.31478e-06
1.3208e-06
1.32551e-06
1.32438e-06
1.32772e-06
1.32569e-06
1.51582e-06
1.52919e-06
1.32293e-06
1.32572e-06
1.32484e-06
1.53043e-06
1.52629e-06
1.52962e-06
1.3212e-06
1.3252e-06
1.32413e-06
1.32616e-06
1.53362e-06
1.53398e-06
1.32247e-06
1.32731e-06
1.32578e-06
1.32789e-06
1.3261e-06
1.32761e-06
1.32555e-06
1.53253e-06
1.53178e-06
1.32524e-06
1.32604e-06
1.32471e-06
1.52896e-06
1.53177e-06
1.52517e-06
1.32451e-06
1.32574e-06
1.32161e-06
1.3175e-06
1.53504e-06
1.51802e-06
1.32581e-06
1.3269e-06
1.32172e-06
1.32122e-06
1.32406e-06
1.31526e-06
1.31586e-06
1.53291e-06
1.52582e-06
1.32338e-06
1.32072e-06
1.31716e-06
1.51767e-06
1.52591e-06
1.51923e-06
1.31894e-06
1.31409e-06
1.31477e-06
1.31058e-06
1.51828e-06
1.51157e-06
1.3192e-06
1.31947e-06
1.31497e-06
1.31674e-06
1.31419e-06
1.30976e-06
1.31416e-06
1.52706e-06
1.52519e-06
1.31587e-06
1.31876e-06
1.31592e-06
1.52045e-06
1.52146e-06
1.524e-06
1.31477e-06
1.31097e-06
1.31657e-06
1.31839e-06
1.51517e-06
1.52631e-06
1.31488e-06
1.31631e-06
1.3153e-06
1.31283e-06
1.31684e-06
1.3195e-06
1.32228e-06
1.52703e-06
1.51846e-06
1.31816e-06
1.31394e-06
1.32107e-06
1.53201e-06
1.52557e-06
1.52072e-06
1.3165e-06
1.31929e-06
1.31451e-06
1.31911e-06
1.52924e-06
1.52977e-06
1.315e-06
1.31067e-06
1.31251e-06
1.30844e-06
1.3221e-06
1.31982e-06
1.31743e-06
1.51886e-06
1.51202e-06
1.32067e-06
1.30913e-06
1.31643e-06
1.52745e-06
1.52339e-06
1.53838e-06
1.3147e-06
1.31962e-06
1.3231e-06
1.32588e-06
1.53312e-06
1.54645e-06
1.31269e-06
1.30937e-06
1.32214e-06
1.32599e-06
1.31715e-06
1.32545e-06
1.32085e-06
1.51632e-06
1.54411e-06
1.31639e-06
1.32574e-06
1.32112e-06
1.53854e-06
1.54266e-06
1.53416e-06
1.32453e-06
1.32604e-06
1.32082e-06
1.31403e-06
1.54923e-06
1.51976e-06
1.32429e-06
1.32898e-06
1.32231e-06
1.32649e-06
1.32131e-06
1.31191e-06
1.3123e-06
1.54978e-06
1.54159e-06
1.32156e-06
1.32401e-06
1.31257e-06
1.51849e-06
1.5326e-06
1.48933e-06
1.31272e-06
1.30149e-06
1.28426e-06
1.2778e-06
1.51514e-06
1.47327e-06
1.31608e-06
1.31838e-06
1.28602e-06
1.28367e-06
1.30021e-06
1.27714e-06
1.27987e-06
1.53887e-06
1.48449e-06
1.30059e-06
1.28164e-06
1.27935e-06
1.47616e-06
1.48966e-06
1.50158e-06
1.28092e-06
1.27723e-06
1.28569e-06
1.29831e-06
1.47491e-06
1.52503e-06
1.28133e-06
1.27928e-06
1.28337e-06
1.28404e-06
1.27989e-06
1.30233e-06
1.3076e-06
1.48478e-06
1.50391e-06
1.27925e-06
1.28857e-06
1.3057e-06
1.53626e-06
1.51371e-06
1.55056e-06
1.29749e-06
1.31389e-06
1.32269e-06
1.32961e-06
1.54246e-06
1.56752e-06
1.29293e-06
1.2968e-06
1.32067e-06
1.3218e-06
1.32094e-06
1.33026e-06
1.32862e-06
1.51886e-06
1.55413e-06
1.31952e-06
1.32405e-06
1.32845e-06
1.5648e-06
1.55368e-06
1.51668e-06
1.32324e-06
1.32814e-06
1.30103e-06
1.28529e-06
1.56768e-06
1.48739e-06
1.32171e-06
1.32196e-06
1.30307e-06
1.2965e-06
1.3238e-06
1.27834e-06
1.27053e-06
1.556e-06
1.5039e-06
1.32432e-06
1.28968e-06
1.27319e-06
1.4701e-06
1.51129e-06
1.45793e-06
1.28351e-06
1.26824e-06
1.24926e-06
1.24868e-06
1.48144e-06
1.45261e-06
1.28638e-06
1.28044e-06
1.25098e-06
1.25364e-06
1.25879e-06
1.24961e-06
1.25355e-06
1.49876e-06
1.46223e-06
1.26114e-06
1.25404e-06
1.25487e-06
1.46083e-06
1.45906e-06
1.49598e-06
1.24836e-06
1.24959e-06
1.26943e-06
1.28253e-06
1.45852e-06
1.51944e-06
1.24964e-06
1.25344e-06
1.26766e-06
1.27474e-06
1.25993e-06
1.28912e-06
1.29824e-06
1.46505e-06
1.50874e-06
1.26027e-06
1.28121e-06
1.29582e-06
1.5392e-06
1.51282e-06
1.53525e-06
1.28579e-06
1.29416e-06
1.29953e-06
1.29865e-06
1.53145e-06
1.53121e-06
1.28398e-06
1.28699e-06
1.29829e-06
1.29422e-06
1.30156e-06
1.2961e-06
1.28852e-06
1.521e-06
1.52518e-06
1.29882e-06
1.2913e-06
1.28562e-06
1.51219e-06
1.53488e-06
1.4541e-06
1.2969e-06
1.29356e-06
1.23533e-06
1.23088e-06
1.52873e-06
1.44778e-06
1.29582e-06
1.29033e-06
1.23448e-06
1.22952e-06
1.27686e-06
1.22706e-06
1.22267e-06
1.52322e-06
1.44297e-06
1.27374e-06
1.22575e-06
1.22168e-06
1.43355e-06
1.42728e-06
1.19071e-06
1.18752e-06
1.42297e-06
1.19018e-06
1.18724e-06
7.53753e-07
7.54763e-07
7.5238e-07
1.18472e-06
1.4195e-06
1.1844e-06
2.82571e-11
3.11135e-09
1.75027e-10
1.58351e-10
4.89731e-09
2.24313e-08
9.58478e-08
2.5436e-09
5.34884e-09
3.57258e-09
1.09582e-09
8.31414e-09
4.82946e-09
5.61961e-09
1.5302e-08
7.43042e-09
1.98027e-07
5.90435e-09
3.06057e-07
1.73778e-06
3.38297e-06
8.64671e-09
1.73115e-07
7.35972e-09
2.74641e-07
3.11894e-09
1.3813e-09
2.41271e-09
1.8698e-09
3.07339e-09
1.36613e-09
2.38929e-09
4.39206e-09
1.68663e-07
1.06797e-08
3.22037e-08
4.56552e-09
1.48358e-07
1.03304e-08
1.52466e-06
3.04812e-06
4.66483e-09
3.3269e-09
8.53808e-08
4.2017e-09
4.90936e-09
3.28601e-09
6.29107e-08
2.16908e-07
2.25218e-07
4.55715e-09
1.8473e-07
1.93038e-07
1.68153e-08
5.39592e-07
1.19768e-08
7.58152e-07
7.6038e-06
1.06998e-05
1.79552e-08
4.91174e-07
1.33609e-08
7.20674e-07
3.00698e-09
1.34868e-09
2.34712e-09
1.74677e-09