/*--------------------------------*- C++ -*----------------------------------*\
| =========                 |                                                 |
| \\      /  F ield         | OpenFOAM: The Open Source CFD Toolbox           |
|  \\    /   O peration     | Version:  v2012                                 |
|   \\  /    A nd           | Website:  www.openfoam.com                      |
|    \\/     M anipulation  |                                                 |
\*---------------------------------------------------------------------------*/
FoamFile
{
    version     2.0;
    format      ascii;
    class       volScalarField;
    location    "1862.5";
    object      k;
}
// * * * * * * * * * * * * * * * * * * * * * * * * * * * * * * * * * * * * * //

dimensions      [0 2 -2 0 0 0 0];


internalField   nonuniform List<scalar> 
171728
(
1.92066e-07
1.38939e-06
2.73384e-07
3.21203e-07
1.91891e-07
1.33417e-06
2.61575e-07
3.10971e-07
1.8506e-07
9.71857e-07
2.48695e-07
3.15068e-07
1.77119e-07
6.58836e-07
2.36766e-07
3.26405e-07
1.67649e-07
5.90255e-07
2.25745e-07
3.54427e-07
1.61949e-07
5.86333e-07
2.14747e-07
3.76891e-07
1.57266e-07
6.12659e-07
2.05562e-07
3.67325e-07
1.56477e-07
6.79064e-07
1.98638e-07
3.72013e-07
1.45423e-07
1.03555e-06
1.92365e-07
3.7147e-07
1.23813e-07
1.13309e-06
1.87779e-07
2.46587e-07
1.13281e-07
6.57053e-07
1.85283e-07
1.88378e-07
1.10547e-07
3.05286e-07
1.86028e-07
1.61237e-07
1.09658e-07
1.76368e-07
1.88036e-07
1.51238e-07
1.08886e-07
1.4549e-07
1.92088e-07
1.47172e-07
1.08043e-07
1.47398e-07
2.02957e-07
1.48081e-07
1.06631e-07
1.62335e-07
2.2275e-07
1.55482e-07
1.04997e-07
1.80368e-07
2.45982e-07
1.68925e-07
1.03319e-07
2.0007e-07
2.69672e-07
1.95041e-07
1.01739e-07
2.29608e-07
2.89966e-07
2.34058e-07
1.00801e-07
2.80878e-07
3.22348e-07
3.03649e-07
9.96817e-08
3.45003e-07
3.98172e-07
4.34974e-07
9.8487e-08
4.81688e-07
4.83466e-07
6.88662e-07
9.82331e-08
5.94442e-07
6.88739e-07
1.03834e-06
9.90884e-08
9.08028e-07
8.66793e-07
1.62464e-06
1.01871e-07
1.16202e-06
1.23421e-06
2.57488e-06
1.05001e-07
1.56412e-06
1.66122e-06
4.03956e-06
1.06742e-07
2.25833e-06
2.20255e-06
5.43061e-06
1.15751e-07
2.8254e-06
2.66459e-06
7.65377e-06
1.30403e-07
3.01703e-06
3.5854e-06
9.86082e-06
1.5688e-07
4.93573e-06
4.48925e-06
1.22211e-05
1.7835e-07
5.28942e-06
5.19804e-06
1.45797e-05
2.40757e-07
5.97257e-06
6.76025e-06
1.71815e-05
2.71359e-07
8.15733e-06
7.56165e-06
1.96564e-05
3.91659e-07
8.71326e-06
9.17398e-06
2.11872e-05
4.40112e-07
1.11747e-05
1.04429e-05
2.37783e-05
7.97987e-07
1.17869e-05
1.22985e-05
2.4299e-05
9.0266e-07
1.33292e-05
1.3982e-05
2.85376e-05
1.07593e-06
1.64865e-05
1.57546e-05
2.71495e-05
1.41529e-06
1.70008e-05
1.63145e-05
2.79184e-05
1.58267e-06
1.82737e-05
1.94111e-05
3.14062e-05
2.39344e-06
2.12594e-05
2.09766e-05
3.22624e-05
2.84271e-06
2.21154e-05
2.24848e-05
3.27994e-05
3.41508e-06
2.47192e-05
2.44324e-05
3.37467e-05
4.09125e-06
2.64896e-05
2.6565e-05
3.47847e-05
4.88793e-06
2.76445e-05
2.76127e-05
3.62024e-05
5.63332e-06
2.9607e-05
2.95712e-05
3.76858e-05
7.01497e-06
3.10163e-05
3.16153e-05
3.81665e-05
8.69131e-06
3.24261e-05
3.24444e-05
3.92159e-05
9.48596e-06
3.49456e-05
3.36972e-05
4.03683e-05
9.44596e-06
3.55615e-05
3.62049e-05
4.13738e-05
1.13435e-05
3.59453e-05
3.68564e-05
4.20402e-05
1.53024e-05
3.86434e-05
3.78911e-05
4.32719e-05
1.61714e-05
3.92214e-05
3.92927e-05
4.3703e-05
1.61519e-05
4.03324e-05
4.0311e-05
4.50691e-05
1.76577e-05
4.15653e-05
4.17415e-05
4.54602e-05
2.0366e-05
4.18385e-05
4.21264e-05
4.67377e-05
2.15506e-05
4.39937e-05
4.36946e-05
4.72906e-05
2.34139e-05
4.4449e-05
4.45635e-05
4.73982e-05
2.45351e-05
4.48539e-05
4.48702e-05
4.80842e-05
2.50799e-05
4.61672e-05
4.62766e-05
4.92778e-05
2.74579e-05
4.67694e-05
4.69125e-05
4.9878e-05
2.88328e-05
4.7961e-05
4.79445e-05
5.10632e-05
3.01493e-05
4.81821e-05
4.86405e-05
5.20697e-05
3.11651e-05
4.97091e-05
4.93224e-05
5.13127e-05
3.23149e-05
4.9992e-05
4.93808e-05
5.01841e-05
3.26856e-05
5.00909e-05
4.98677e-05
5.23022e-05
3.47311e-05
5.13613e-05
5.20342e-05
5.53357e-05
3.58288e-05
5.22942e-05
5.26465e-05
5.45957e-05
3.65481e-05
5.23777e-05
5.22097e-05
5.30022e-05
3.74198e-05
5.24341e-05
5.22761e-05
5.37854e-05
3.852e-05
5.29458e-05
5.26754e-05
5.48142e-05
3.8685e-05
5.32484e-05
5.36951e-05
5.51961e-05
4.01942e-05
5.47925e-05
5.48219e-05
5.60913e-05
4.18501e-05
5.51462e-05
5.46729e-05
5.61914e-05
4.17533e-05
5.48429e-05
5.45973e-05
5.6778e-05
4.16275e-05
5.47935e-05
5.56818e-05
5.67493e-05
4.26692e-05
5.5405e-05
5.58147e-05
5.58123e-05
4.3758e-05
5.56957e-05
5.55186e-05
5.68205e-05
4.44558e-05
5.61828e-05
5.55783e-05
5.75876e-05
4.46606e-05
5.68104e-05
5.65861e-05
5.77435e-05
4.50064e-05
5.69697e-05
5.68236e-05
5.77645e-05
4.55281e-05
5.64262e-05
5.67633e-05
5.73337e-05
4.55552e-05
5.61489e-05
5.68645e-05
5.75344e-05
4.57342e-05
5.69438e-05
5.6713e-05
5.82398e-05
4.59902e-05
5.7354e-05
5.65367e-05
5.82121e-05
4.68551e-05
5.80406e-05
5.79472e-05
5.884e-05
4.72735e-05
5.74005e-05
5.80786e-05
5.81348e-05
4.62661e-05
5.53559e-05
5.58366e-05
5.60693e-05
4.57667e-05
5.71193e-05
5.62106e-05
5.89388e-05
4.76722e-05
5.93144e-05
5.87562e-05
6.0745e-05
4.8166e-05
5.66328e-05
5.73309e-05
5.65331e-05
4.57943e-05
5.47302e-05
5.52139e-05
5.56319e-05
4.55296e-05
5.74002e-05
5.69657e-05
5.97575e-05
4.77522e-05
5.8365e-05
5.7858e-05
5.90553e-05
4.70632e-05
5.47579e-05
5.45342e-05
5.56357e-05
2.8138e-07
3.52374e-07
2.41081e-07
3.72642e-07
2.45871e-07
3.21756e-07
1.89688e-07
1.97216e-07
1.48594e-07
2.01418e-07
7.63973e-07
3.18025e-07
3.37735e-07
2.60033e-07
3.29181e-07
3.25165e-07
2.76709e-07
2.64705e-07
4.07671e-07
2.46799e-07
3.94498e-07
2.13004e-07
3.69237e-07
3.84306e-07
3.7913e-07
3.27907e-07
3.86844e-07
3.17987e-07
4.42716e-07
1.35367e-06
4.65406e-07
3.37111e-07
3.21745e-07
4.7331e-07
2.64937e-07
4.79289e-07
3.12788e-07
2.62381e-07
2.61114e-07
3.9193e-07
2.04357e-07
3.90861e-07
1.85527e-07
3.81681e-07
3.77718e-07
3.91308e-07
3.14331e-07
4.0747e-07
3.03471e-07
4.75774e-07
1.08853e-06
5.08271e-07
3.20596e-07
3.02542e-07
4.82273e-07
2.5182e-07
4.93288e-07
3.16276e-07
2.60121e-07
2.68554e-07
3.91486e-07
1.80921e-07
3.96454e-07
1.70956e-07
3.67994e-07
3.45002e-07
4.1411e-07
2.99902e-07
4.39618e-07
2.88999e-07
5.21259e-07
7.06773e-07
5.44637e-07
3.01339e-07
2.84903e-07
4.98326e-07
2.39563e-07
5.21032e-07
3.27236e-07
2.68292e-07
2.89157e-07
3.98545e-07
1.68777e-07
4.07889e-07
1.6358e-07
3.43501e-07
3.32182e-07
4.51449e-07
2.85323e-07
4.92048e-07
2.73991e-07
5.52109e-07
5.96381e-07
6.25955e-07
2.83905e-07
2.70609e-07
5.31762e-07
2.28606e-07
5.70386e-07
3.54465e-07
2.89466e-07
3.18068e-07
4.11315e-07
1.61841e-07
4.23838e-07
1.56718e-07
3.2955e-07
3.21636e-07
5.06148e-07
2.70233e-07
5.50627e-07
2.59306e-07
6.61731e-07
5.86213e-07
7.29119e-07
2.6974e-07
2.56995e-07
5.84866e-07
2.17494e-07
6.34376e-07
3.80097e-07
3.18614e-07
3.50178e-07
4.27874e-07
1.54969e-07
4.32406e-07
1.50727e-07
3.1951e-07
3.14246e-07
5.66461e-07
2.557e-07
6.28173e-07
2.45175e-07
7.31323e-07
6.02142e-07
6.14176e-07
2.56075e-07
2.43494e-07
6.50867e-07
2.07545e-07
7.23854e-07
3.7067e-07
3.49985e-07
3.61912e-07
4.31097e-07
1.49647e-07
3.8337e-07
1.4554e-07
3.13018e-07
3.17047e-07
6.54153e-07
2.41629e-07
7.24902e-07
2.31564e-07
5.23529e-07
6.42882e-07
3.18553e-07
2.42646e-07
2.31283e-07
7.61752e-07
2.00144e-07
8.81547e-07
3.74583e-07
3.59307e-07
3.53146e-07
3.57665e-07
1.44753e-07
2.75e-07
1.44968e-07
3.17276e-07
3.78884e-07
7.38718e-07
2.28456e-07
7.45546e-07
2.19011e-07
2.74322e-07
9.52333e-07
1.93391e-07
2.30538e-07
2.19731e-07
9.08526e-07
1.93903e-07
9.29986e-07
3.74569e-07
3.44545e-07
2.52109e-07
2.50942e-07
1.45499e-07
1.92958e-07
1.45166e-07
3.8469e-07
4.37598e-07
7.3276e-07
2.15973e-07
5.15582e-07
2.07776e-07
1.78676e-07
1.13624e-06
1.53418e-07
2.18994e-07
2.08863e-07
9.21256e-07
1.88909e-07
6.68038e-07
2.5789e-07
2.46886e-07
2.02614e-07
1.7957e-07
1.42902e-07
1.56515e-07
1.32033e-07
4.35085e-07
2.69619e-07
4.39307e-07
2.04929e-07
2.63067e-07
1.96627e-07
1.48513e-07
8.09897e-07
1.36107e-07
2.08195e-07
1.97496e-07
5.65898e-07
1.85358e-07
3.20859e-07
1.91167e-07
1.99736e-07
1.73796e-07
1.5026e-07
1.29175e-07
1.37683e-07
1.24291e-07
2.53281e-07
1.88252e-07
2.23376e-07
1.94507e-07
1.54423e-07
1.89243e-07
1.32617e-07
3.61354e-07
1.26937e-07
1.96769e-07
1.87677e-07
2.64094e-07
1.8572e-07
1.65818e-07
1.62092e-07
1.73046e-07
1.59971e-07
1.36933e-07
1.23454e-07
1.41133e-07
1.21777e-07
1.85199e-07
1.53879e-07
1.44203e-07
1.87222e-07
1.3234e-07
1.82987e-07
1.26773e-07
1.98242e-07
1.27248e-07
1.87221e-07
1.81107e-07
1.50445e-07
1.87243e-07
1.28976e-07
1.51142e-07
1.60016e-07
1.5747e-07
1.43872e-07
1.21794e-07
1.45138e-07
1.23001e-07
1.53262e-07
1.48912e-07
1.31566e-07
1.82831e-07
1.31817e-07
1.83687e-07
1.27136e-07
1.47648e-07
1.26344e-07
1.81067e-07
1.79143e-07
1.26346e-07
1.90935e-07
1.24737e-07
1.46664e-07
1.58284e-07
1.59787e-07
1.44225e-07
1.23533e-07
1.42651e-07
1.2665e-07
1.49606e-07
1.5078e-07
1.33052e-07
1.84349e-07
1.41885e-07
1.89191e-07
1.26472e-07
1.45413e-07
1.2873e-07
1.79592e-07
1.81079e-07
1.24891e-07
1.98984e-07
1.28751e-07
1.46773e-07
1.61473e-07
1.67011e-07
1.42882e-07
1.28416e-07
1.47349e-07
1.35178e-07
1.52399e-07
1.5962e-07
1.44885e-07
1.92922e-07
1.55242e-07
2.09732e-07
1.30112e-07
1.58545e-07
1.35603e-07
1.82477e-07
1.89468e-07
1.31454e-07
2.16982e-07
1.41135e-07
1.52625e-07
1.70028e-07
1.79535e-07
1.49606e-07
1.38399e-07
1.58772e-07
1.49108e-07
1.63164e-07
1.72771e-07
1.58854e-07
2.16492e-07
1.72251e-07
2.33959e-07
1.38873e-07
1.75006e-07
1.49341e-07
1.93246e-07
2.07056e-07
1.44856e-07
2.40208e-07
1.57954e-07
1.63955e-07
1.84829e-07
1.99591e-07
1.62952e-07
1.54674e-07
1.76026e-07
1.70505e-07
1.77759e-07
1.93201e-07
1.76801e-07
2.42226e-07
1.91793e-07
2.57106e-07
1.54791e-07
1.93944e-07
1.75324e-07
2.1294e-07
2.31491e-07
1.63127e-07
2.63009e-07
1.81809e-07
1.88449e-07
2.07482e-07
2.32902e-07
1.82903e-07
1.78344e-07
2.06696e-07
2.06093e-07
1.99883e-07
2.3042e-07
1.99078e-07
2.63203e-07
2.2144e-07
2.86003e-07
1.81428e-07
2.23653e-07
2.05852e-07
2.40332e-07
2.67779e-07
1.86634e-07
2.87167e-07
2.10023e-07
2.19202e-07
2.41256e-07
2.97413e-07
2.13489e-07
2.13518e-07
2.55409e-07
2.55573e-07
2.39784e-07
2.96262e-07
2.26991e-07
2.89158e-07
2.65677e-07
3.13326e-07
2.19663e-07
2.64973e-07
2.53225e-07
2.74526e-07
3.22433e-07
2.23803e-07
3.14453e-07
2.51592e-07
2.86528e-07
3.24224e-07
4.01505e-07
2.71288e-07
2.75069e-07
3.2887e-07
3.2938e-07
3.2728e-07
4.03427e-07
2.79399e-07
3.18815e-07
3.27029e-07
3.59755e-07
2.7031e-07
3.2763e-07
3.28491e-07
3.43799e-07
4.35639e-07
2.67336e-07
3.74156e-07
3.26625e-07
4.0721e-07
4.32091e-07
5.92514e-07
3.51993e-07
3.43927e-07
4.51885e-07
4.30113e-07
4.28824e-07
6.15854e-07
3.46589e-07
3.82218e-07
4.33084e-07
4.82257e-07
3.4095e-07
4.39917e-07
4.33287e-07
4.7619e-07
5.99243e-07
3.39512e-07
4.59987e-07
4.31684e-07
5.99938e-07
6.59743e-07
9.58634e-07
4.97226e-07
4.72951e-07
6.11252e-07
5.52331e-07
6.8724e-07
8.97142e-07
4.70598e-07
5.26498e-07
5.77883e-07
6.77025e-07
4.74951e-07
5.57676e-07
5.83832e-07
6.53575e-07
1.00062e-06
4.73698e-07
6.36432e-07
5.82414e-07
9.71804e-07
1.04432e-06
1.60137e-06
6.84193e-07
5.96757e-07
8.64549e-07
8.6583e-07
9.71788e-07
1.70856e-06
6.28385e-07
7.13141e-07
8.04722e-07
7.8567e-07
6.23407e-07
8.51183e-07
8.05341e-07
1.11081e-06
1.42617e-06
6.16047e-07
7.8359e-07
7.89902e-07
1.47753e-06
1.73198e-06
2.36713e-06
9.182e-07
9.26925e-07
1.21935e-06
1.02755e-06
1.88882e-06
2.13983e-06
8.55881e-07
8.64345e-07
1.11228e-06
1.20977e-06
8.61971e-07
1.02886e-06
1.07704e-06
1.55477e-06
2.68968e-06
8.50809e-07
1.19176e-06
1.07972e-06
2.34146e-06
2.61271e-06
3.61407e-06
1.28176e-06
1.13192e-06
1.61682e-06
1.50684e-06
2.28313e-06
3.76193e-06
1.17655e-06
1.25411e-06
1.49616e-06
1.46041e-06
1.19048e-06
1.51676e-06
1.52607e-06
2.86899e-06
3.32777e-06
1.18753e-06
1.48199e-06
1.4949e-06
3.76377e-06
4.01159e-06
5.54505e-06
1.84135e-06
1.56909e-06
2.20389e-06
2.03639e-06
4.0066e-06
5.20222e-06
1.68052e-06
1.64552e-06
2.04624e-06
2.07552e-06
1.62181e-06
1.97632e-06
1.97417e-06
3.72183e-06
5.67109e-06
1.60193e-06
2.06294e-06
1.98441e-06
5.10815e-06
5.63195e-06
6.30748e-06
2.22354e-06
2.28826e-06
2.33521e-06
2.74522e-06
5.80902e-06
8.01171e-06
2.08146e-06
2.19467e-06
2.43843e-06
2.57592e-06
2.08798e-06
2.78444e-06
2.6338e-06
5.92737e-06
6.97651e-06
2.08787e-06
2.60005e-06
2.57055e-06
7.18638e-06
7.02961e-06
1.03306e-05
2.59415e-06
2.78327e-06
3.49172e-06
2.88704e-06
8.07014e-06
7.45901e-06
2.77921e-06
2.67011e-06
3.33623e-06
3.26548e-06
2.83863e-06
2.89683e-06
3.21624e-06
7.31164e-06
9.16307e-06
2.77724e-06
3.22392e-06
3.2627e-06
9.49374e-06
1.06212e-05
1.15523e-05
3.66058e-06
3.03413e-06
4.36993e-06
4.59229e-06
7.66754e-06
1.36711e-05
3.44167e-06
3.60284e-06
4.20685e-06
4.38307e-06
3.35385e-06
4.57107e-06
4.1572e-06
9.82396e-06
1.25284e-05
3.42562e-06
4.39905e-06
4.14118e-06
1.16255e-05
1.20627e-05
1.43404e-05
4.56656e-06
4.97014e-06
4.97447e-06
5.33225e-06
1.46054e-05
1.50408e-05
4.44292e-06
4.47249e-06
4.87459e-06
4.83449e-06
4.45368e-06
5.27133e-06
5.04523e-06
1.28518e-05
1.34993e-05
4.39645e-06
4.82499e-06
4.91209e-06
1.42444e-05
1.48558e-05
1.70185e-05
5.33692e-06
5.34861e-06
6.49946e-06
5.54368e-06
1.50553e-05
1.48814e-05
5.24313e-06
5.19125e-06
6.47006e-06
6.41037e-06
5.19683e-06
5.51594e-06
6.17917e-06
1.39837e-05
1.73376e-05
5.0597e-06
6.42781e-06
6.2281e-06
1.64858e-05
1.74972e-05
1.85095e-05
6.70925e-06
5.95478e-06
7.04894e-06
7.87739e-06
1.56216e-05
1.98854e-05
6.69184e-06
6.74196e-06
7.03042e-06
7.36084e-06
6.58486e-06
7.87161e-06
7.51995e-06
1.79101e-05
1.89004e-05
6.68928e-06
7.29074e-06
7.5083e-06
1.93455e-05
1.88916e-05
2.09432e-05
7.39495e-06
8.15863e-06
8.90123e-06
8.49451e-06
2.03427e-05
2.10168e-05
7.35257e-06
7.60945e-06
8.89995e-06
8.83283e-06
7.78495e-06
8.4949e-06
8.456e-06
1.92404e-05
2.10419e-05
7.68841e-06
8.77008e-06
8.38892e-06
2.06694e-05
2.12814e-05
2.19891e-05
9.12324e-06
8.72262e-06
9.49707e-06
1.06485e-05
2.13873e-05
2.3497e-05
9.13684e-06
9.16858e-06
9.48366e-06
9.98327e-06
8.88636e-06
1.06807e-05
1.06412e-05
2.15144e-05
2.28275e-05
8.90394e-06
1.01053e-05
1.07032e-05
2.34737e-05
2.24922e-05
2.55925e-05
9.8702e-06
1.11542e-05
1.26093e-05
1.17876e-05
2.39113e-05
2.4349e-05
9.76433e-06
1.04551e-05
1.24371e-05
1.19626e-05
1.10248e-05
1.17306e-05
1.14873e-05
2.32519e-05
2.4758e-05
1.10494e-05
1.18722e-05
1.14484e-05
2.40815e-05
2.6083e-05
2.6533e-05
1.31757e-05
1.18547e-05
1.37352e-05
1.26661e-05
2.45143e-05
2.55677e-05
1.30224e-05
1.23734e-05
1.38008e-05
1.34844e-05
1.16084e-05
1.24533e-05
1.40827e-05
2.51554e-05
2.64545e-05
1.15685e-05
1.34402e-05
1.40552e-05
2.78665e-05
2.67233e-05
2.75418e-05
1.38767e-05
1.33709e-05
1.48906e-05
1.57613e-05
2.62481e-05
2.85355e-05
1.40678e-05
1.39504e-05
1.49242e-05
1.54194e-05
1.51403e-05
1.59826e-05
1.58321e-05
2.68734e-05
2.77396e-05
1.50759e-05
1.55021e-05
1.57175e-05
2.72605e-05
2.79121e-05
2.88118e-05
1.54772e-05
1.63436e-05
1.69708e-05
1.70444e-05
2.87502e-05
2.86403e-05
1.53698e-05
1.57184e-05
1.67299e-05
1.61238e-05
1.57335e-05
1.69617e-05
1.54846e-05
2.79277e-05
2.83227e-05
1.56065e-05
1.60771e-05
1.54053e-05
2.72057e-05
2.90264e-05
2.96985e-05
1.7206e-05
1.71047e-05
1.78158e-05
1.76993e-05
2.87461e-05
2.98864e-05
1.70723e-05
1.64072e-05
1.79617e-05
1.8665e-05
1.55467e-05
1.74965e-05
1.81379e-05
2.86152e-05
3.04046e-05
1.54866e-05
1.86187e-05
1.84071e-05
3.08829e-05
3.00727e-05
3.17745e-05
1.83706e-05
1.83612e-05
2.08972e-05
2.06443e-05
3.03523e-05
3.14303e-05
1.84665e-05
1.93744e-05
2.06395e-05
2.08e-05
1.96015e-05
2.07766e-05
2.2057e-05
3.08344e-05
3.15662e-05
1.97609e-05
2.07774e-05
2.18757e-05
3.21028e-05
3.20951e-05
3.26581e-05
2.14238e-05
2.11628e-05
2.23409e-05
2.17915e-05
3.1664e-05
3.23053e-05
2.1158e-05
2.10164e-05
2.23859e-05
2.19117e-05
2.23841e-05
2.18293e-05
2.2715e-05
3.17357e-05
3.23272e-05
2.21362e-05
2.19856e-05
2.24129e-05
3.26358e-05
3.28801e-05
3.37523e-05
2.28723e-05
2.20967e-05
2.41066e-05
2.42707e-05
3.2577e-05
3.40025e-05
2.28932e-05
2.24085e-05
2.39677e-05
2.4036e-05
2.27594e-05
2.41889e-05
2.35275e-05
3.26277e-05
3.37879e-05
2.25694e-05
2.39402e-05
2.35838e-05
3.34577e-05
3.39867e-05
3.47875e-05
2.43008e-05
2.49032e-05
2.57599e-05
2.61666e-05
3.43272e-05
3.49809e-05
2.42658e-05
2.45157e-05
2.58265e-05
2.60778e-05
2.40464e-05
2.60481e-05
2.55546e-05
3.40788e-05
3.49978e-05
2.40315e-05
2.61081e-05
2.55139e-05
3.45482e-05
3.50871e-05
3.57835e-05
2.64041e-05
2.64858e-05
2.74508e-05
2.72825e-05
3.51672e-05
3.56713e-05
2.63585e-05
2.66054e-05
2.72829e-05
2.7458e-05
2.60097e-05
2.74385e-05
2.71816e-05
3.52538e-05
3.57811e-05
2.60412e-05
2.73165e-05
2.7301e-05
3.58654e-05
3.59272e-05
3.66421e-05
2.76064e-05
2.74972e-05
2.88091e-05
2.88873e-05
3.58629e-05
3.69818e-05
2.7506e-05
2.76414e-05
2.88306e-05
2.89137e-05
2.77138e-05
2.8966e-05
2.9779e-05
3.59318e-05
3.6852e-05
2.77238e-05
2.90497e-05
2.95926e-05
3.74369e-05
3.70196e-05
3.84674e-05
2.94588e-05
2.95703e-05
3.11535e-05
3.09191e-05
3.7317e-05
3.79639e-05
2.94506e-05
2.9475e-05
3.0874e-05
3.11216e-05
3.03043e-05
3.08437e-05
3.09894e-05
3.72469e-05
3.84303e-05
3.01914e-05
3.11694e-05
3.115e-05
3.80673e-05
3.87569e-05
3.9724e-05
3.17643e-05
3.111e-05
3.33731e-05
3.19648e-05
3.80725e-05
3.88926e-05
3.12981e-05
3.15685e-05
3.29634e-05
3.23541e-05
3.10587e-05
3.18641e-05
3.20303e-05
3.86045e-05
3.88801e-05
3.12524e-05
3.23234e-05
3.17626e-05
3.88274e-05
3.98695e-05
3.97322e-05
3.35822e-05
3.25409e-05
3.35905e-05
3.44766e-05
3.93005e-05
4.0723e-05
3.3449e-05
3.25379e-05
3.40922e-05
3.33183e-05
3.27018e-05
3.44574e-05
3.38019e-05
3.89796e-05
3.97383e-05
3.24587e-05
3.31737e-05
3.39334e-05
4.02336e-05
3.97374e-05
3.97517e-05
3.34339e-05
3.48606e-05
3.33448e-05
3.51845e-05
4.08902e-05
4.09801e-05
3.4132e-05
3.37531e-05
3.42325e-05
3.55873e-05
3.40943e-05
3.55222e-05
3.54199e-05
4.00631e-05
4.15366e-05
3.421e-05
3.56998e-05
3.52994e-05
4.11254e-05
4.00757e-05
4.24891e-05
3.35069e-05
3.52045e-05
3.68285e-05
3.5474e-05
4.10112e-05
4.14188e-05
3.4433e-05
3.61477e-05
3.64081e-05
3.69077e-05
3.57392e-05
3.57243e-05
3.62349e-05
4.18251e-05
4.22645e-05
3.55989e-05
3.68024e-05
3.63148e-05
4.1869e-05
4.29442e-05
4.40809e-05
3.78593e-05
3.59197e-05
3.95319e-05
3.84225e-05
4.16969e-05
4.34275e-05
3.70706e-05
3.69874e-05
3.86142e-05
3.77327e-05
3.66024e-05
3.81146e-05
3.80276e-05
4.23383e-05
4.28064e-05
3.67433e-05
3.75612e-05
3.79897e-05
4.31197e-05
4.41637e-05
4.376e-05
3.96822e-05
3.89578e-05
3.96211e-05
3.94767e-05
4.37123e-05
4.38862e-05
3.88449e-05
3.80302e-05
3.89911e-05
3.88953e-05
3.82861e-05
3.91913e-05
3.86794e-05
4.30156e-05
4.36861e-05
3.81594e-05
3.89212e-05
3.86373e-05
4.35e-05
4.37596e-05
4.4018e-05
3.94605e-05
3.94968e-05
3.93833e-05
3.96471e-05
4.39041e-05
4.43092e-05
3.89958e-05
3.92144e-05
3.93598e-05
4.00004e-05
3.90502e-05
3.96313e-05
4.03679e-05
4.3908e-05
4.47254e-05
3.9146e-05
4.00509e-05
4.02489e-05
4.49382e-05
4.43217e-05
4.56411e-05
3.94666e-05
4.00075e-05
4.10227e-05
4.12528e-05
4.47139e-05
4.569e-05
3.9897e-05
4.02829e-05
4.13723e-05
4.14524e-05
4.06151e-05
4.14968e-05
4.10486e-05
4.48955e-05
4.56616e-05
4.03606e-05
4.1444e-05
4.10851e-05
4.52927e-05
4.58586e-05
4.62515e-05
4.14957e-05
4.13663e-05
4.23131e-05
4.16034e-05
4.57082e-05
4.56069e-05
4.17412e-05
4.1775e-05
4.225e-05
4.21741e-05
4.13514e-05
4.16803e-05
4.23844e-05
4.58499e-05
4.60405e-05
4.15259e-05
4.20817e-05
4.24785e-05
4.65614e-05
4.63514e-05
4.711e-05
4.24679e-05
4.19249e-05
4.32872e-05
4.36732e-05
4.58332e-05
4.75918e-05
4.2303e-05
4.22141e-05
4.2968e-05
4.29649e-05
4.25997e-05
4.35538e-05
4.33489e-05
4.60836e-05
4.70141e-05
4.26392e-05
4.30821e-05
4.33853e-05
4.71785e-05
4.74125e-05
4.81264e-05
4.37228e-05
4.40265e-05
4.47112e-05
4.4354e-05
4.78112e-05
4.77141e-05
4.35343e-05
4.35805e-05
4.46674e-05
4.45344e-05
4.36341e-05
4.44355e-05
4.40672e-05
4.74046e-05
4.79038e-05
4.36771e-05
4.45188e-05
4.40951e-05
4.73758e-05
4.81575e-05
4.79526e-05
4.48237e-05
4.4375e-05
4.48833e-05
4.46666e-05
4.77161e-05
4.79807e-05
4.47647e-05
4.46059e-05
4.47903e-05
4.47733e-05
4.40951e-05
4.45687e-05
4.434e-05
4.79196e-05
4.80685e-05
4.41183e-05
4.4673e-05
4.42985e-05
4.77805e-05
4.79785e-05
4.88133e-05
4.48926e-05
4.50787e-05
4.53564e-05
4.59127e-05
4.82986e-05
4.922e-05
4.47953e-05
4.50229e-05
4.54084e-05
4.59362e-05
4.48005e-05
4.60517e-05
4.6089e-05
4.83099e-05
4.92977e-05
4.46825e-05
4.6095e-05
4.59115e-05
4.91674e-05
4.91818e-05
5.00257e-05
4.59268e-05
4.60152e-05
4.70974e-05
4.65753e-05
4.92751e-05
4.94234e-05
4.60365e-05
4.61996e-05
4.71485e-05
4.69218e-05
4.62982e-05
4.642e-05
4.67927e-05
4.94176e-05
4.96964e-05
4.60762e-05
4.66708e-05
4.66147e-05
4.96765e-05
5.00897e-05
5.02088e-05
4.72801e-05
4.69189e-05
4.75415e-05
4.7691e-05
4.96133e-05
5.04342e-05
4.72834e-05
4.71255e-05
4.74656e-05
4.75536e-05
4.70317e-05
4.78228e-05
4.78508e-05
4.9818e-05
5.03751e-05
4.69272e-05
4.77319e-05
4.81392e-05
5.08125e-05
5.03597e-05
5.12915e-05
4.77765e-05
4.7782e-05
4.84984e-05
4.79561e-05
5.05002e-05
5.05928e-05
4.76206e-05
4.76688e-05
4.8597e-05
4.83001e-05
4.81798e-05
4.80922e-05
4.90859e-05
5.05024e-05
5.10067e-05
4.85825e-05
4.84432e-05
4.94126e-05
5.19987e-05
5.13918e-05
5.15969e-05
4.86329e-05
4.81761e-05
4.92575e-05
4.95202e-05
5.07403e-05
5.19804e-05
4.87898e-05
4.86057e-05
4.92293e-05
4.93048e-05
4.92168e-05
4.93889e-05
4.92259e-05
5.11554e-05
5.15552e-05
4.94651e-05
4.92193e-05
4.93486e-05
5.14569e-05
5.16774e-05
5.17435e-05
4.94742e-05
4.98061e-05
4.97134e-05
5.00545e-05
5.21593e-05
5.21673e-05
4.9353e-05
4.94031e-05
4.95031e-05
4.94812e-05
4.9097e-05
4.99922e-05
4.86142e-05
5.16005e-05
5.15555e-05
4.90634e-05
4.93848e-05
4.82636e-05
5.01788e-05
5.17559e-05
5.21222e-05
4.97146e-05
5.00558e-05
4.97906e-05
5.0086e-05
5.21743e-05
5.22926e-05
4.95114e-05
4.94964e-05
4.9766e-05
5.00176e-05
4.85993e-05
5.00043e-05
4.91334e-05
5.15867e-05
5.2265e-05
4.82041e-05
4.95199e-05
4.85243e-05
5.16106e-05
5.24178e-05
5.36485e-05
5.00465e-05
5.02082e-05
5.14515e-05
5.09331e-05
5.24516e-05
5.31381e-05
5.02421e-05
5.04146e-05
5.15154e-05
5.12771e-05
5.01106e-05
5.10605e-05
5.25107e-05
5.25427e-05
5.36218e-05
4.94137e-05
5.15659e-05
5.27094e-05
5.51216e-05
5.37586e-05
5.37404e-05
5.1668e-05
5.11008e-05
5.18432e-05
5.18378e-05
5.32569e-05
5.39161e-05
5.17321e-05
5.15634e-05
5.19459e-05
5.2298e-05
5.28343e-05
5.21519e-05
5.29108e-05
5.38288e-05
5.42742e-05
5.32065e-05
5.26396e-05
5.34204e-05
5.48214e-05
5.37496e-05
5.37825e-05
5.18635e-05
5.20919e-05
5.20966e-05
5.24842e-05
5.40454e-05
5.41461e-05
5.197e-05
5.2381e-05
5.2039e-05
5.23526e-05
5.26649e-05
5.23859e-05
5.16564e-05
5.429e-05
5.39389e-05
5.32327e-05
5.23187e-05
5.17158e-05
5.3021e-05
5.38297e-05
5.43888e-05
5.21475e-05
5.25154e-05
5.26103e-05
5.25656e-05
5.41578e-05
5.42242e-05
5.20624e-05
5.23148e-05
5.25297e-05
5.23575e-05
5.15798e-05
5.23837e-05
5.17442e-05
5.39408e-05
5.41234e-05
5.1506e-05
5.21835e-05
5.1452e-05
5.35124e-05
5.4627e-05
5.49797e-05
5.29127e-05
5.26295e-05
5.33042e-05
5.29145e-05
5.43078e-05
5.44797e-05
5.28929e-05
5.25298e-05
5.33306e-05
5.29599e-05
5.21661e-05
5.2901e-05
5.31367e-05
5.4249e-05
5.44044e-05
5.16091e-05
5.26267e-05
5.27825e-05
5.47273e-05
5.49493e-05
5.4432e-05
5.32908e-05
5.29197e-05
5.30793e-05
5.29523e-05
5.44815e-05
5.45278e-05
5.33175e-05
5.29734e-05
5.31089e-05
5.30531e-05
5.32637e-05
5.3063e-05
5.34137e-05
5.44125e-05
5.47999e-05
5.30082e-05
5.33051e-05
5.36029e-05
5.50587e-05
5.44512e-05
5.60453e-05
5.30873e-05
5.3074e-05
5.41626e-05
5.45313e-05
5.47287e-05
5.62676e-05
5.31178e-05
5.32166e-05
5.41789e-05
5.45101e-05
5.35009e-05
5.44729e-05
5.42232e-05
5.50565e-05
5.62104e-05
5.38659e-05
5.46923e-05
5.45863e-05
5.5977e-05
5.63841e-05
5.68233e-05
5.47713e-05
5.49041e-05
5.54324e-05
5.52374e-05
5.64692e-05
5.65589e-05
5.47332e-05
5.47508e-05
5.52716e-05
5.48403e-05
5.44663e-05
5.51452e-05
5.48729e-05
5.62989e-05
5.59935e-05
5.47084e-05
5.48051e-05
5.47958e-05
5.61721e-05
5.67911e-05
5.59514e-05
5.54323e-05
5.52295e-05
5.49565e-05
5.48505e-05
5.6527e-05
5.59575e-05
5.52637e-05
5.47384e-05
5.48021e-05
5.45709e-05
5.49677e-05
5.49278e-05
5.5361e-05
5.59308e-05
5.57402e-05
5.48049e-05
5.45559e-05
5.5083e-05
5.66355e-05
5.58952e-05
5.56169e-05
5.47075e-05
5.47146e-05
5.43733e-05
5.45877e-05
5.59419e-05
5.58993e-05
5.46589e-05
5.45948e-05
5.4552e-05
5.53779e-05
5.54357e-05
5.4771e-05
5.54371e-05
5.58524e-05
5.68922e-05
5.52921e-05
5.54779e-05
5.54794e-05
5.6843e-05
5.56473e-05
5.64979e-05
5.43713e-05
5.46043e-05
5.49463e-05
5.52248e-05
5.59775e-05
5.6609e-05
5.4582e-05
5.56257e-05
5.5342e-05
5.58927e-05
5.53296e-05
5.5264e-05
5.48262e-05
5.70153e-05
5.70645e-05
5.54523e-05
5.58247e-05
5.50137e-05
5.58187e-05
5.67434e-05
5.73928e-05
5.53915e-05
5.54588e-05
5.62295e-05
5.58906e-05
5.67345e-05
5.69813e-05
5.56208e-05
5.58941e-05
5.60945e-05
5.56829e-05
5.48069e-05
5.56357e-05
5.51865e-05
5.70617e-05
5.67082e-05
5.49726e-05
5.55825e-05
5.51649e-05
5.65467e-05
5.74354e-05
5.73754e-05
5.63424e-05
5.59746e-05
5.64246e-05
5.61851e-05
5.70133e-05
5.71445e-05
5.61374e-05
5.55668e-05
5.61501e-05
5.54715e-05
5.55772e-05
5.60228e-05
5.63211e-05
5.66758e-05
5.65257e-05
5.55055e-05
5.54976e-05
5.62126e-05
5.75191e-05
5.73787e-05
5.73435e-05
5.64209e-05
5.62558e-05
5.63565e-05
5.64765e-05
5.72253e-05
5.76859e-05
5.61501e-05
5.5504e-05
5.61948e-05
5.62848e-05
5.64389e-05
5.66781e-05
5.66597e-05
5.6613e-05
5.75386e-05
5.63357e-05
5.63886e-05
5.65779e-05
5.77129e-05
5.73796e-05
5.77021e-05
5.63555e-05
5.65756e-05
5.65059e-05
5.68494e-05
5.77891e-05
5.80272e-05
5.62834e-05
5.65438e-05
5.67149e-05
5.69261e-05
5.67189e-05
5.69708e-05
5.67733e-05
5.76865e-05
5.79192e-05
5.66435e-05
5.68188e-05
5.67086e-05
5.77645e-05
5.77871e-05
5.7799e-05
5.66566e-05
5.68721e-05
5.67761e-05
5.67671e-05
5.80437e-05
5.75471e-05
5.68073e-05
5.69479e-05
5.6858e-05
5.68924e-05
5.67648e-05
5.66544e-05
5.64612e-05
5.79289e-05
5.7779e-05
5.67032e-05
5.67741e-05
5.65077e-05
5.73593e-05
5.77773e-05
5.75305e-05
5.67598e-05
5.65669e-05
5.65756e-05
5.62293e-05
5.74444e-05
5.70552e-05
5.68304e-05
5.6822e-05
5.66205e-05
5.67467e-05
5.63547e-05
5.61437e-05
5.63102e-05
5.77795e-05
5.78184e-05
5.64485e-05
5.68287e-05
5.64518e-05
5.73876e-05
5.75443e-05
5.77957e-05
5.6569e-05
5.62267e-05
5.67412e-05
5.66318e-05
5.70818e-05
5.77944e-05
5.66107e-05
5.67457e-05
5.67228e-05
5.67107e-05
5.64041e-05
5.67126e-05
5.71272e-05
5.78528e-05
5.77201e-05
5.65801e-05
5.68312e-05
5.71003e-05
5.81972e-05
5.78232e-05
5.77638e-05
5.68158e-05
5.68559e-05
5.68671e-05
5.71159e-05
5.79295e-05
5.81764e-05
5.67582e-05
5.66217e-05
5.67615e-05
5.64327e-05
5.72271e-05
5.72073e-05
5.72859e-05
5.76351e-05
5.72643e-05
5.7158e-05
5.65162e-05
5.71875e-05
5.82042e-05
5.77788e-05
5.86457e-05
5.68993e-05
5.72659e-05
5.75717e-05
5.79553e-05
5.82517e-05
5.91591e-05
5.67742e-05
5.64503e-05
5.74385e-05
5.75039e-05
5.72933e-05
5.79649e-05
5.76092e-05
5.72937e-05
5.88075e-05
5.71994e-05
5.75726e-05
5.76205e-05
5.87412e-05
5.8819e-05
5.89905e-05
5.77977e-05
5.80556e-05
5.7923e-05
5.79508e-05
5.92523e-05
5.86883e-05
5.77334e-05
5.79406e-05
5.79655e-05
5.82792e-05
5.77047e-05
5.7884e-05
5.76194e-05
5.90724e-05
5.94177e-05
5.77279e-05
5.81752e-05
5.76539e-05
5.84872e-05
5.88877e-05
5.70517e-05
5.78432e-05
5.75662e-05
5.63568e-05
5.55962e-05
5.82868e-05
5.59593e-05
5.79245e-05
5.82245e-05
5.66166e-05
5.65214e-05
5.7282e-05
5.54987e-05
5.56427e-05
5.9307e-05
5.68474e-05
5.73372e-05
5.62337e-05
5.56548e-05
5.60964e-05
5.68736e-05
5.68971e-05
5.59889e-05
5.54067e-05
5.58556e-05
5.57864e-05
5.5905e-05
5.76211e-05
5.61582e-05
5.60064e-05
5.58762e-05
5.5756e-05
5.55436e-05
5.59295e-05
5.63534e-05
5.66308e-05
5.68299e-05
5.55375e-05
5.57869e-05
5.62402e-05
5.82269e-05
5.7228e-05
5.96193e-05
5.60818e-05
5.67944e-05
5.8312e-05
5.91301e-05
5.83376e-05
6.07586e-05
5.60039e-05
5.59682e-05
5.80527e-05
5.82383e-05
5.75601e-05
5.92509e-05
5.91959e-05
5.73183e-05
5.98784e-05
5.74251e-05
5.85607e-05
5.91429e-05
6.07617e-05
5.98044e-05
5.93379e-05
5.86518e-05
5.92493e-05
5.86132e-05
5.84136e-05
6.07931e-05
5.82432e-05
5.8457e-05
5.8549e-05
5.8516e-05
5.84221e-05
5.91946e-05
5.79767e-05
5.71102e-05
5.99979e-05
5.88275e-05
5.91511e-05
5.83189e-05
5.72652e-05
5.71396e-05
5.8939e-05
5.60308e-05
5.81493e-05
5.7129e-05
5.53621e-05
5.48322e-05
5.75516e-05
5.53472e-05
5.81908e-05
5.78207e-05
5.55581e-05
5.54625e-05
5.59537e-05
5.47462e-05
5.47917e-05
5.83187e-05
5.60211e-05
5.61298e-05
5.52965e-05
5.49443e-05
5.5377e-05
5.58948e-05
5.67486e-05
5.50309e-05
5.47432e-05
5.51829e-05
5.57244e-05
5.53619e-05
5.80224e-05
5.51944e-05
5.52611e-05
5.52651e-05
5.55977e-05
5.48584e-05
5.63737e-05
5.73796e-05
5.59978e-05
5.75936e-05
5.50015e-05
5.60618e-05
5.7315e-05
5.93756e-05
5.73602e-05
5.96009e-05
5.5955e-05
5.68819e-05
5.81069e-05
5.83391e-05
5.86146e-05
5.98475e-05
5.59029e-05
5.64571e-05
5.79992e-05
5.7893e-05
5.81113e-05
5.83986e-05
5.84503e-05
5.81187e-05
5.93638e-05
5.79882e-05
5.78911e-05
5.82666e-05
5.95464e-05
5.96256e-05
5.75124e-05
5.81886e-05
5.83457e-05
5.70692e-05
5.67022e-05
5.97982e-05
5.69996e-05
5.80805e-05
5.79041e-05
5.69681e-05
5.63774e-05
5.81845e-05
5.62693e-05
5.54485e-05
5.93393e-05
5.66432e-05
5.797e-05
5.58966e-05
5.52842e-05
5.57865e-05
5.70095e-05
5.54084e-05
5.5057e-05
5.6566e-05
5.53395e-05
5.48477e-05
4.66652e-05
4.63357e-05
4.57683e-05
5.41709e-05
5.62801e-05
5.40738e-05
2.21924e-08
2.66443e-07
4.36288e-08
4.20671e-08
2.55063e-07
9.94419e-07
1.97394e-06
1.79784e-07
2.66933e-07
2.60827e-07
1.33805e-07
2.89536e-07
3.36731e-07
2.92327e-07
5.48794e-07
2.89591e-07
5.6227e-06
2.46046e-07
7.40696e-06
1.47056e-05
2.24591e-05
3.57623e-07
5.1401e-06
3.21475e-07
6.88981e-06
2.03592e-07
1.5137e-07
2.06656e-07
1.92561e-07
2.01347e-07
1.50753e-07
2.07179e-07
2.41049e-07
2.18818e-06
5.2115e-07
1.38592e-06
2.50287e-07
2.24536e-06
5.07953e-07
1.34854e-05
2.09669e-05
2.49111e-07
2.46596e-07
6.66836e-07
2.71229e-07
2.55201e-07
2.45283e-07
6.44385e-07
1.88026e-06
1.97218e-06
3.15316e-07
1.85675e-06
1.95055e-06
4.85024e-07
1.07991e-05
3.92891e-07
1.35515e-05
3.85197e-05
4.838e-05
5.50497e-07
1.01429e-05
4.64457e-07
1.31057e-05
1.98845e-07
1.49704e-07
2.0542e-07