/*--------------------------------*- C++ -*----------------------------------*\
| =========                 |                                                 |
| \\      /  F ield         | OpenFOAM: The Open Source CFD Toolbox           |
|  \\    /   O peration     | Version:  v2012                                 |
|   \\  /    A nd           | Website:  www.openfoam.com                      |
|    \\/     M anipulation  |                                                 |
\*---------------------------------------------------------------------------*/
FoamFile
{
    version     2.0;
    format      ascii;
    class       volScalarField;
    location    "1862.5";
    object      nut;
}
// * * * * * * * * * * * * * * * * * * * * * * * * * * * * * * * * * * * * * //

dimensions      [0 2 -1 0 0 0 0];


internalField   nonuniform List<scalar> 
171728
(
1.7607e-06
5.2986e-06
1.57529e-06
2.02178e-06
1.79921e-06
5.89175e-06
1.57289e-06
1.87254e-06
1.7973e-06
4.23932e-06
1.56184e-06
1.78163e-06
1.78674e-06
2.369e-06
1.54841e-06
1.80371e-06
1.75828e-06
1.98212e-06
1.53018e-06
2.20834e-06
1.82115e-06
1.94417e-06
1.49591e-06
2.7144e-06
1.95129e-06
2.03968e-06
1.46399e-06
3.11181e-06
2.16412e-06
2.47497e-06
1.43985e-06
4.13211e-06
2.06266e-06
7.56039e-06
1.40051e-06
4.79075e-06
1.62977e-06
1.60821e-05
1.35974e-06
2.55758e-06
1.43967e-06
8.74793e-06
1.32733e-06
1.64592e-06
1.42313e-06
2.66992e-06
1.31598e-06
1.26703e-06
1.44749e-06
1.27947e-06
1.29969e-06
1.11068e-06
1.47245e-06
9.31194e-07
1.27844e-06
1.01381e-06
1.49137e-06
8.69182e-07
1.3016e-06
9.55968e-07
1.49377e-06
9.07711e-07
1.38372e-06
9.2675e-07
1.48902e-06
9.32587e-07
1.45887e-06
9.16285e-07
1.48008e-06
9.32969e-07
1.4317e-06
9.63977e-07
1.46547e-06
9.61818e-07
1.36868e-06
1.00814e-06
1.45556e-06
1.04998e-06
1.31038e-06
1.18525e-06
1.42449e-06
1.20144e-06
1.4642e-06
1.58891e-06
1.36036e-06
1.61831e-06
1.65223e-06
2.29906e-06
1.30869e-06
1.88929e-06
2.31691e-06
3.4697e-06
1.24798e-06
3.0016e-06
2.765e-06
5.26458e-06
1.15154e-06
3.68675e-06
4.13747e-06
8.19155e-06
1.08364e-06
5.14258e-06
5.38519e-06
1.30583e-05
1.00193e-06
7.38574e-06
7.28341e-06
1.71195e-05
8.48024e-07
9.67372e-06
8.77538e-06
2.39345e-05
9.36797e-07
9.2495e-06
1.17833e-05
3.08046e-05
1.00498e-06
1.70956e-05
1.54193e-05
3.71742e-05
9.93515e-07
1.83027e-05
1.70278e-05
4.41637e-05
1.36545e-06
1.88302e-05
2.31678e-05
5.12087e-05
1.33589e-06
2.82994e-05
2.53602e-05
5.91505e-05
2.0385e-06
2.88258e-05
3.12183e-05
6.24843e-05
2.02486e-06
3.88875e-05
3.52687e-05
7.15743e-05
4.15165e-06
4.04163e-05
4.20646e-05
7.15736e-05
4.62962e-06
4.39603e-05
4.76455e-05
8.73255e-05
5.21672e-06
5.76892e-05
5.44536e-05
8.20429e-05
7.14241e-06
5.8547e-05
5.42667e-05
8.08367e-05
7.38578e-06
6.05988e-05
6.61361e-05
9.54407e-05
1.19742e-05
7.29657e-05
7.16942e-05
9.84874e-05
1.40623e-05
7.40248e-05
7.60259e-05
9.93715e-05
1.7123e-05
8.41044e-05
8.26899e-05
0.000102257
1.98489e-05
9.04065e-05
9.0678e-05
0.000105772
2.42124e-05
9.36559e-05
9.33404e-05
0.000110476
2.66991e-05
0.000100185
9.99849e-05
0.000116558
3.38754e-05
0.000105434
0.000107988
0.00011779
4.33946e-05
0.000109015
0.000110334
0.000120944
4.74809e-05
0.000120271
0.000113318
0.000125514
4.43235e-05
0.000122181
0.000124439
0.000129095
5.05252e-05
0.000120925
0.000126654
0.0001312
7.5736e-05
0.000133042
0.000129438
0.000135931
8.01568e-05
0.000135555
0.000134975
0.000136955
7.62995e-05
0.000138305
0.000138938
0.000142572
8.07054e-05
0.000144851
0.000145249
0.000143603
9.64247e-05
0.000144037
0.000146449
0.000148692
0.000100751
0.00015435
0.000152437
0.000151007
0.000109973
0.000156884
0.00015724
0.00015125
0.000115742
0.000156709
0.000156906
0.000153289
0.000114142
0.000163731
0.000164098
0.000158417
0.000127463
0.000165746
0.000166781
0.000160646
0.0001347
0.000171538
0.000171275
0.000165203
0.000140609
0.000171872
0.000174424
0.000170086
0.000145843
0.000179638
0.000178067
0.000168062
0.000152133
0.000181509
0.000178166
0.000162113
0.000151383
0.000180809
0.000179106
0.000168772
0.000163451
0.000186901
0.000190253
0.00018337
0.000170532
0.000192226
0.000194474
0.000181945
0.000173934
0.000193103
0.000192396
0.000174184
0.000177796
0.000192742
0.000191795
0.000176517
0.000185273
0.000195741
0.000194214
0.000181768
0.000185402
0.000196803
0.000199146
0.0001831
0.000192664
0.000205148
0.000205832
0.000187157
0.000205724
0.000208091
0.000205647
0.000187867
0.000205341
0.000206841
0.000204559
0.000190502
0.000202753
0.000206375
0.000211094
0.000191401
0.000207987
0.000209878
0.000212863
0.000186992
0.000215992
0.000211745
0.000211285
0.000190856
0.000222187
0.000214659
0.000211149
0.000195096
0.000223565
0.000218674
0.000217214
0.000195837
0.000225375
0.000220317
0.000219375
0.000196286
0.000230004
0.000218384
0.000219722
0.000194807
0.000230677
0.000216501
0.000220735
0.000195347
0.000231814
0.000221033
0.000220715
0.00019905
0.000234086
0.000224246
0.00021959
0.000199452
0.000240972
0.00022873
0.000227548
0.00020212
0.000245957
0.000228275
0.000231028
0.000200875
0.000241549
0.00021597
0.000219411
0.000191399
0.000236144
0.000222871
0.000218161
0.000201335
0.00024961
0.00023849
0.000234759
0.000212581
0.000259502
0.000228584
0.000232237
0.000196178
0.000243417
0.000215341
0.000218682
0.000188909
0.00023677
0.000228549
0.000226389
0.000208015
0.000256105
0.000237835
0.000234461
0.000208375
0.000262953
0.00022757
0.000225698
0.000196966
1.70869e-06
2.31936e-06
1.46145e-06
1.85547e-06
1.14935e-06
2.42733e-06
1.77517e-06
1.17746e-06
1.47503e-06
1.58295e-06
3.33228e-06
1.52052e-06
2.17625e-06
1.77497e-06
1.53727e-06
2.04127e-06
1.67126e-06
1.58121e-06
2.06679e-06
1.79539e-06
2.03745e-06
1.47543e-06
1.86143e-06
1.95889e-06
1.4956e-06
2.0285e-06
1.55248e-06
2.0365e-06
1.41009e-06
5.65819e-06
1.5013e-06
2.17975e-06
2.17126e-06
1.85945e-06
1.57508e-06
1.89856e-06
1.87936e-06
1.56684e-06
1.53713e-06
2.04872e-06
1.40007e-06
2.1453e-06
1.24919e-06
1.95959e-06
1.93776e-06
1.58769e-06
2.04063e-06
1.70814e-06
2.04724e-06
1.54956e-06
4.93969e-06
1.72114e-06
2.17181e-06
2.1161e-06
1.91714e-06
1.56451e-06
1.98268e-06
1.78303e-06
1.53461e-06
1.5974e-06
2.19111e-06
1.215e-06
2.37057e-06
1.15487e-06
1.86543e-06
1.68802e-06
1.75567e-06
2.04709e-06
1.94279e-06
2.0355e-06
1.79842e-06
2.6423e-06
1.9508e-06
2.11417e-06
2.05651e-06
2.01332e-06
1.55103e-06
2.15289e-06
1.79375e-06
1.60284e-06
1.83753e-06
2.44264e-06
1.1457e-06
2.79508e-06
1.13678e-06
1.69616e-06
1.63673e-06
2.03761e-06
2.02894e-06
2.39715e-06
2.00093e-06
2.00785e-06
2.01907e-06
2.85908e-06
2.05528e-06
2.02237e-06
2.2248e-06
1.53731e-06
2.51352e-06
2.15214e-06
1.85684e-06
2.2897e-06
2.96528e-06
1.13495e-06
3.70486e-06
1.12366e-06
1.62938e-06
1.5801e-06
2.53438e-06
1.98978e-06
3.04262e-06
1.95109e-06
3.4883e-06
1.9495e-06
6.47239e-06
2.0219e-06
1.98567e-06
2.63068e-06
1.50633e-06
3.08231e-06
2.69384e-06
2.32757e-06
3.18353e-06
4.01798e-06
1.11731e-06
4.94861e-06
1.10067e-06
1.57379e-06
1.52755e-06
3.29903e-06
1.93534e-06
4.71671e-06
1.88169e-06
7.72597e-06
1.98783e-06
8.90963e-06
1.98306e-06
1.93209e-06
3.26174e-06
1.46985e-06
4.50019e-06
2.99903e-06
3.23906e-06
3.91425e-06
5.22187e-06
1.09602e-06
4.83525e-06
1.0732e-06
1.52956e-06
1.59284e-06
5.52891e-06
1.8604e-06
9.04464e-06
1.79504e-06
7.45031e-06
2.21823e-06
3.76272e-06
1.92839e-06
1.87326e-06
5.34078e-06
1.44588e-06
9.72348e-06
4.13038e-06
3.89832e-06
4.23467e-06
4.41402e-06
1.0774e-06
2.97541e-06
1.13426e-06
1.61698e-06
2.92221e-06
1.0375e-05
1.77301e-06
1.36559e-05
1.69857e-06
3.00796e-06
5.6648e-06
1.79189e-06
1.86822e-06
1.79812e-06
1.16531e-05
1.41194e-06
1.70198e-05
4.82077e-06
4.07232e-06
2.49684e-06
2.55554e-06
1.15732e-06
1.67829e-06
1.18705e-06
3.21918e-06
5.72719e-06
1.42113e-05
1.67296e-06
8.68071e-06
1.59872e-06
1.58202e-06
1.3977e-05
1.2384e-06
1.79051e-06
1.71242e-06
1.83696e-05
1.37155e-06
1.24903e-05
2.77346e-06
2.40775e-06
1.7786e-06
1.49109e-06
1.15402e-06
1.1494e-06
1.00868e-06
5.75302e-06
2.82124e-06
6.71689e-06
1.56932e-06
2.89247e-06
1.47559e-06
1.17931e-06
1.21543e-05
1.02929e-06
1.70291e-06
1.59449e-06
9.67014e-06
1.33006e-06
3.94764e-06
1.696e-06
1.72927e-06
1.37331e-06
1.06784e-06
9.67282e-07
8.97568e-07
8.79408e-07
2.52387e-06
1.6709e-06
2.20939e-06
1.44773e-06
1.18346e-06
1.37512e-06
9.78726e-07
3.41262e-06
8.80156e-07
1.58108e-06
1.47223e-06
2.8951e-06
1.31737e-06
1.3377e-06
1.28555e-06
1.35762e-06
1.18123e-06
8.71432e-07
8.56072e-07
8.47797e-07
7.99605e-07
1.61748e-06
1.14366e-06
1.04223e-06
1.34427e-06
8.73922e-07
1.26781e-06
8.63101e-07
1.49956e-06
8.3564e-07
1.45879e-06
1.37236e-06
1.12981e-06
1.30151e-06
8.48818e-07
1.12309e-06
1.16757e-06
1.10333e-06
8.71934e-07
7.84496e-07
8.81361e-07
7.46343e-07
1.12317e-06
1.04957e-06
8.53757e-07
1.2551e-06
8.10862e-07
1.21611e-06
8.27393e-07
9.59926e-07
7.79768e-07
1.35913e-06
1.31099e-06
8.13611e-07
1.28273e-06
7.56625e-07
1.02585e-06
1.09513e-06
1.06891e-06
8.67948e-07
7.375e-07
8.11134e-07
7.12072e-07
1.04003e-06
1.01263e-06
8.0618e-07
1.20618e-06
8.36603e-07
1.18899e-06
7.65142e-07
8.7381e-07
7.28599e-07
1.297e-06
1.26694e-06
7.41637e-07
1.2875e-06
7.24423e-07
9.65944e-07
1.06088e-06
1.04838e-06
7.93562e-07
7.07894e-07
7.65462e-07
6.99889e-07
1.00399e-06
9.93149e-07
8.45832e-07
1.20492e-06
8.71494e-07
1.28081e-06
7.18804e-07
9.02254e-07
7.04729e-07
1.25512e-06
1.25208e-06
7.2743e-07
1.36565e-06
7.50495e-07
9.30397e-07
1.04527e-06
1.03578e-06
7.61656e-07
6.99361e-07
7.54606e-07
7.11998e-07
9.92805e-07
9.96901e-07
8.75657e-07
1.3171e-06
8.99744e-07
1.3879e-06
7.04739e-07
9.23941e-07
7.14664e-07
1.25327e-06
1.29339e-06
7.58689e-07
1.44738e-06
7.81196e-07
9.22831e-07
1.03513e-06
1.03732e-06
7.55234e-07
7.22692e-07
7.61193e-07
7.49801e-07
9.93523e-07
1.0123e-06
9.03065e-07
1.39667e-06
9.08246e-07
1.42686e-06
7.23783e-07
9.34478e-07
7.76912e-07
1.29863e-06
1.3089e-06
7.87752e-07
1.4436e-06
8.29837e-07
9.57394e-07
1.03458e-06
1.08811e-06
7.70446e-07
7.64853e-07
8.23547e-07
8.40186e-07
1.0053e-06
1.06887e-06
9.14784e-07
1.4016e-06
9.51605e-07
1.36957e-06
7.89133e-07
9.6277e-07
8.37814e-07
1.29795e-06
1.34456e-06
8.32041e-07
1.4065e-06
8.62672e-07
9.85861e-07
1.08667e-06
1.18762e-06
8.30519e-07
8.5353e-07
9.27823e-07
9.45244e-07
1.0786e-06
1.17028e-06
9.49488e-07
1.3641e-06
1.01305e-06
1.30539e-06
8.75533e-07
1.01273e-06
9.51729e-07
1.3284e-06
1.37627e-06
9.01423e-07
1.32154e-06
9.47942e-07
1.16254e-06
1.26419e-06
1.48531e-06
9.71239e-07
1.00209e-06
1.13964e-06
1.16796e-06
1.26521e-06
1.50674e-06
1.04078e-06
1.26781e-06
1.16111e-06
1.2927e-06
9.94087e-07
1.17024e-06
1.17003e-06
1.41957e-06
1.64361e-06
9.80745e-07
1.3939e-06
1.15978e-06
1.51875e-06
1.55533e-06
2.03664e-06
1.20385e-06
1.19306e-06
1.52898e-06
1.42721e-06
1.55135e-06
2.10814e-06
1.20579e-06
1.36061e-06
1.45528e-06
1.6785e-06
1.18628e-06
1.47599e-06
1.44716e-06
1.77087e-06
2.11467e-06
1.18005e-06
1.61245e-06
1.43651e-06
2.01494e-06
2.22366e-06
3.232e-06
1.68e-06
1.57111e-06
2.03e-06
1.78256e-06
2.33706e-06
3.00173e-06
1.56397e-06
1.82417e-06
1.8915e-06
2.32933e-06
1.58289e-06
1.82595e-06
1.91315e-06
2.2507e-06
3.34839e-06
1.57146e-06
2.12914e-06
1.91089e-06
3.3125e-06
3.44962e-06
5.33521e-06
2.28484e-06
1.88691e-06
2.88209e-06
2.83176e-06
3.15863e-06
5.63341e-06
2.04278e-06
2.44683e-06
2.61239e-06
2.55168e-06
2.0185e-06
2.78374e-06
2.61736e-06
3.71413e-06
4.64356e-06
1.99504e-06
2.53735e-06
2.55024e-06
4.81317e-06
5.7589e-06
7.60173e-06
3.04096e-06
3.06923e-06
4.11085e-06
3.25264e-06
6.32425e-06
6.89321e-06
2.76366e-06
2.73284e-06
3.61977e-06
4.06271e-06
2.79395e-06
3.23514e-06
3.43777e-06
4.92148e-06
8.93619e-06
2.73999e-06
3.9835e-06
3.45618e-06
7.49159e-06
8.39233e-06
1.13898e-05
4.30797e-06
3.55105e-06
5.28395e-06
4.93153e-06
7.10711e-06
1.22193e-05
3.8033e-06
4.23358e-06
4.82295e-06
4.61471e-06
3.81777e-06
5.02828e-06
4.99658e-06
9.61123e-06
1.03294e-05
3.82321e-06
4.72096e-06
4.85036e-06
1.21748e-05
1.25639e-05
1.83548e-05
6.16642e-06
5.07935e-06
7.61553e-06
6.5576e-06
1.30419e-05
1.59535e-05
5.49005e-06
5.30177e-06
6.85804e-06
6.87466e-06
5.29841e-06
6.26924e-06
6.4472e-06
1.14191e-05
1.84799e-05
5.2002e-06
6.80623e-06
6.50385e-06
1.62239e-05
1.84574e-05
1.88345e-05
7.65997e-06
7.54483e-06
7.32767e-06
9.34831e-06
1.77754e-05
2.66306e-05
6.95114e-06
7.26272e-06
7.65133e-06
8.52922e-06
6.78431e-06
9.53886e-06
8.65227e-06
1.92483e-05
2.20243e-05
6.80995e-06
8.68446e-06
8.38445e-06
2.251e-05
2.08943e-05
3.30422e-05
7.96205e-06
9.45659e-06
1.17166e-05
9.27457e-06
2.67513e-05
2.24291e-05
9.00081e-06
8.73728e-06
1.11793e-05
1.05957e-05
9.44021e-06
9.43421e-06
1.06165e-05
2.29161e-05
2.79522e-05
9.14646e-06
1.0395e-05
1.07992e-05
2.98251e-05
3.38922e-05
3.53434e-05
1.22825e-05
9.22764e-06
1.48256e-05
1.54902e-05
2.20205e-05
4.22255e-05
1.13927e-05
1.18744e-05
1.40853e-05
1.50592e-05
1.09539e-05
1.54354e-05
1.3777e-05
2.99576e-05
3.91977e-05
1.12783e-05
1.51421e-05
1.37811e-05
3.53947e-05
3.67118e-05
4.33683e-05
1.55723e-05
1.71977e-05
1.6376e-05
1.86274e-05
4.58851e-05
4.73539e-05
1.5018e-05
1.53094e-05
1.59652e-05
1.5749e-05
1.49243e-05
1.83751e-05
1.69374e-05
4.00612e-05
4.03948e-05
1.47383e-05
1.56648e-05
1.63702e-05
4.34255e-05
4.48367e-05
5.18857e-05
1.77014e-05
1.85556e-05
2.23758e-05
1.76496e-05
4.71696e-05
4.29709e-05
1.73081e-05
1.70105e-05
2.22441e-05
2.17245e-05
1.72939e-05
1.74967e-05
2.06469e-05
4.14329e-05
5.24944e-05
1.6661e-05
2.18498e-05
2.08023e-05
4.905e-05
5.32361e-05
5.49466e-05
2.32128e-05
1.86914e-05
2.33786e-05
2.71329e-05
4.47181e-05
6.0313e-05
2.31338e-05
2.30116e-05
2.33632e-05
2.49093e-05
2.22143e-05
2.71258e-05
2.55999e-05
5.4388e-05
5.67293e-05
2.26724e-05
2.45847e-05
2.56808e-05
5.83988e-05
5.58883e-05
6.29346e-05
2.42876e-05
2.82936e-05
3.0547e-05
2.86296e-05
6.1874e-05
6.26309e-05
2.4145e-05
2.55863e-05
3.05941e-05
3.00568e-05
2.65054e-05
2.87056e-05
2.82432e-05
5.74127e-05
6.27205e-05
2.61648e-05
2.97258e-05
2.7837e-05
6.11223e-05
6.37922e-05
6.42306e-05
3.13923e-05
2.88306e-05
3.13771e-05
3.66118e-05
6.33186e-05
7.0753e-05
3.14887e-05
3.12677e-05
3.15916e-05
3.35322e-05
2.96206e-05
3.67958e-05
3.66047e-05
6.41403e-05
6.77756e-05
2.96308e-05
3.42359e-05
3.69865e-05
7.05703e-05
6.54417e-05
7.70962e-05
3.18583e-05
3.87177e-05
4.35027e-05
4.0807e-05
7.21401e-05
7.26411e-05
3.16725e-05
3.51886e-05
4.27186e-05
4.09076e-05
3.813e-05
4.061e-05
3.95709e-05
6.89371e-05
7.38529e-05
3.83491e-05
4.05026e-05
3.94451e-05
7.152e-05
7.89288e-05
7.9843e-05
4.60595e-05
4.06056e-05
4.75925e-05
4.18458e-05
7.27563e-05
7.4893e-05
4.53261e-05
4.23648e-05
4.78204e-05
4.59279e-05
3.94031e-05
4.06219e-05
4.75098e-05
7.49997e-05
7.89595e-05
3.92363e-05
4.56707e-05
4.75221e-05
8.4144e-05
8.01064e-05
8.20878e-05
4.75979e-05
4.43914e-05
5.03108e-05
5.4223e-05
7.69879e-05
8.64766e-05
4.85511e-05
4.75708e-05
5.07464e-05
5.31122e-05
5.28002e-05
5.54014e-05
5.64715e-05
8.03005e-05
8.33371e-05
5.26038e-05
5.35841e-05
5.58976e-05
8.29104e-05
8.32396e-05
8.64273e-05
5.24875e-05
5.68132e-05
5.83043e-05
5.91778e-05
8.72594e-05
8.61151e-05
5.22331e-05
5.41726e-05
5.71685e-05
5.43893e-05
5.56835e-05
5.8961e-05
5.21692e-05
8.37747e-05
8.41806e-05
5.50133e-05
5.43202e-05
5.17999e-05
7.86859e-05
8.69493e-05
8.8448e-05
5.89417e-05
5.88359e-05
5.95468e-05
5.89313e-05
8.59488e-05
8.90384e-05
5.82702e-05
5.44954e-05
6.0384e-05
6.31681e-05
5.11915e-05
5.77324e-05
5.93492e-05
8.48147e-05
9.13834e-05
5.07685e-05
6.28928e-05
6.08636e-05
9.31964e-05
8.94947e-05
9.60901e-05
6.11971e-05
6.1311e-05
7.11984e-05
7.0409e-05
9.07362e-05
9.4996e-05
6.18828e-05
6.59908e-05
7.01558e-05
7.14017e-05
6.61162e-05
7.10554e-05
7.72779e-05
9.29324e-05
9.55324e-05
6.71445e-05
7.13314e-05
7.65035e-05
9.81919e-05
9.71981e-05
9.90569e-05
7.33758e-05
7.24615e-05
7.59637e-05
7.35658e-05
9.56445e-05
9.73037e-05
7.21772e-05
7.18768e-05
7.62821e-05
7.39619e-05
7.84396e-05
7.38427e-05
7.84758e-05
9.59163e-05
9.74807e-05
7.73529e-05
7.43453e-05
7.68793e-05
9.90806e-05
9.96344e-05
0.000102571
7.77947e-05
7.39155e-05
8.20962e-05
8.23555e-05
9.79983e-05
0.000103604
7.80991e-05
7.55783e-05
8.14873e-05
8.13964e-05
7.79987e-05
8.20759e-05
7.91595e-05
9.83511e-05
0.000102656
7.68709e-05
8.10044e-05
7.95601e-05
0.000101309
0.000103217
0.000105978
8.23358e-05
8.49175e-05
8.6993e-05
8.95846e-05
0.000104746
0.00010715
8.21941e-05
8.30801e-05
8.76196e-05
8.87091e-05
8.10116e-05
8.88199e-05
8.6394e-05
0.000103586
0.000107004
8.10253e-05
8.89521e-05
8.61721e-05
0.000105131
0.000106981
0.000109505
8.95552e-05
9.05763e-05
9.32e-05
9.26206e-05
0.00010767
0.000109037
8.96457e-05
9.0729e-05
9.24625e-05
9.33932e-05
8.7942e-05
9.33708e-05
9.14001e-05
0.000107831
0.000109585
8.80537e-05
9.26348e-05
9.20905e-05
0.000109377
0.000109825
0.000112011
9.33267e-05
9.29197e-05
9.66969e-05
9.72233e-05
0.000109421
0.00011344
9.28977e-05
9.36069e-05
9.70953e-05
9.74604e-05
9.31916e-05
9.76429e-05
0.000101636
0.000109907
0.000112792
9.33837e-05
9.8127e-05
0.000100743
0.000115661
0.000113223
0.00011883
9.91197e-05
9.99832e-05
0.000105573
0.00010547
0.000114703
0.000117308
9.94326e-05
9.94842e-05
0.000104582
0.000105858
0.000103836
0.000105113
0.000106131
0.000114088
0.000119027
0.000103296
0.000106141
0.000106774
0.000117708
0.000119826
0.000124058
0.000108066
0.000105886
0.000115411
0.000107619
0.00011746
0.000119584
0.000106009
0.000107678
0.00011282
0.000110352
0.000105918
0.000107096
0.000107787
0.000119628
0.000120507
0.000106833
0.000110349
0.000106435
0.000119568
0.000124547
0.000123665
0.000116285
0.000109624
0.000115237
0.00011813
0.000120953
0.00012742
0.000115014
0.000110655
0.000117263
0.000112248
0.000110682
0.000117876
0.000114974
0.000120565
0.00012259
0.000109315
0.000111512
0.000115682
0.000125193
0.000123493
0.000122152
0.00011387
0.000120051
0.000110888
0.000120952
0.000128082
0.000128243
0.000117044
0.000113665
0.000115256
0.000121407
0.000115876
0.000122472
0.000121019
0.000123663
0.000129962
0.000116591
0.000122036
0.000120471
0.000128239
0.00012295
0.000132734
0.000109866
0.000120488
0.000124289
0.000119173
0.000127997
0.000128489
0.000115032
0.000124028
0.000123308
0.000127219
0.000122338
0.000120962
0.00012341
0.000131079
0.000132678
0.00012158
0.000126892
0.000123672
0.000130762
0.000134558
0.000139794
0.00012955
0.000120306
0.000138608
0.000131906
0.000129278
0.000136589
0.000126398
0.000127104
0.000134043
0.00012909
0.000124586
0.000130445
0.00013047
0.000132703
0.000134034
0.000125263
0.000128248
0.000130514
0.000135467
0.00014001
0.000138175
0.000139422
0.000134643
0.000138714
0.000137146
0.000137756
0.000138519
0.00013513
0.000130122
0.000135157
0.000133325
0.000131564
0.000135605
0.000132221
0.000134715
0.000137246
0.000131137
0.000133403
0.000131853
0.000136405
0.000138007
0.00013789
0.000137374
0.000137086
0.000135018
0.000135731
0.000138447
0.000139028
0.000134715
0.000134626
0.000134035
0.000137672
0.000133539
0.000135074
0.000139451
0.000137941
0.00014116
0.000133925
0.000137958
0.000139007
0.000142149
0.000138842
0.000144662
0.000134404
0.000136787
0.000141154
0.000143104
0.000140415
0.000145166
0.000136339
0.000138729
0.000143227
0.000143829
0.000140609
0.000144494
0.000141946
0.000141685
0.000144889
0.000139401
0.000143924
0.000141902
0.000143204
0.000145494
0.000146972
0.000143565
0.000143704
0.0001475
0.000143583
0.000145149
0.000143999
0.000145078
0.00014531
0.000147469
0.000146991
0.000143027
0.000144202
0.000147492
0.000145533
0.000146138
0.000143734
0.000146558
0.000147991
0.000148059
0.000147114
0.000149808
0.000148013
0.000144356
0.000150891
0.000152674
0.000144401
0.000152016
0.000147523
0.000146922
0.000149199
0.000148722
0.000148428
0.000151926
0.000151578
0.000146069
0.000149307
0.00014867
0.000149335
0.000151817
0.000150674
0.000150935
0.000154508
0.000152787
0.00015462
0.000157855
0.000156481
0.000153
0.00015304
0.000151773
0.000151757
0.000157632
0.000156916
0.000152842
0.000156922
0.000154731
0.000150917
0.000153544
0.000153111
0.000157017
0.000154884
0.000151328
0.000154542
0.000153608
0.000158536
0.000156444
0.000158515
0.000156341
0.000152896
0.000152901
0.000158236
0.000157298
0.000158118
0.000157118
0.000154782
0.000155907
0.000154584
0.000153498
0.000153427
0.000154919
0.000156626
0.000154513
0.000152288
0.000153347
0.000156056
0.00015816
0.000158198
0.000158463
0.00016238
0.000153955
0.000158561
0.000157725
0.000157983
0.000158699
0.000162145
0.000156466
0.000163028
0.0001627
0.000154112
0.000158689
0.000155955
0.000163057
0.000161966
0.000158098
0.000157551
0.000161887
0.000161348
0.000162888
0.000167903
0.000165125
0.000158713
0.000159113
0.000161932
0.000163448
0.000168261
0.000167044
0.000163785
0.000164425
0.000166328
0.000159124
0.000160368
0.000162773
0.000165824
0.000165187
0.00016
0.000162045
0.000162041
0.000168999
0.000166633
0.00016943
0.000170269
0.000159627
0.000163267
0.000169092
0.000167983
0.000169207
0.000169637
0.000167461
0.000170818
0.000170896
0.000160656
0.000162869
0.000166605
0.000170315
0.000172059
0.000164397
0.000162319
0.000166661
0.000170166
0.00017068
0.000173682
0.000170873
0.000163407
0.000163559
0.000169351
0.000169966
0.000174136
0.000172474
0.000172246
0.000171904
0.000176966
0.000163218
0.000165467
0.000174165
0.00017348
0.000178882
0.000169797
0.000167032
0.000168224
0.000174445
0.00017153
0.000177601
0.000178444
0.000163867
0.000169554
0.000175284
0.000173981
0.000177705
0.00017781
0.00017789
0.000177761
0.000178672
0.000165999
0.000168129
0.000179309
0.000177488
0.000179834
0.000168907
0.000168433
0.00016883
0.000178659
0.000180124
0.000179797
0.000181788
0.000170308
0.000170734
0.000178264
0.000178373
0.000178771
0.000178699
0.000178019
0.000181511
0.00017452
0.000168214
0.000168002
0.000178302
0.000178296
0.000172926
0.000162463
0.000168729
0.0001697
0.00017977
0.000181798
0.000179394
0.000181382
0.00017062
0.000170668
0.000178724
0.000178597
0.000178866
0.000180316
0.000174017
0.000180952
0.000173922
0.000167849
0.000170267
0.000172295
0.000177726
0.000170821
0.000166193
0.000170652
0.000176542
0.000180067
0.000181553
0.000187701
0.00018507
0.000171087
0.000174165
0.000181168
0.000182391
0.000188059
0.000186662
0.000178834
0.000185426
0.0001928
0.000171229
0.000176045
0.000174602
0.000187651
0.000193301
0.000182343
0.000176941
0.000177189
0.000189024
0.000185771
0.000190133
0.000189373
0.000174463
0.000177656
0.000189351
0.000188063
0.000190697
0.000192258
0.000195098
0.000191251
0.000197145
0.000176814
0.00017943
0.000196708
0.000194208
0.000199784
0.000183168
0.00017708
0.000177205
0.000190146
0.000190828
0.000191077
0.000193407
0.000178174
0.000179068
0.00019077
0.000192864
0.000190968
0.00019299
0.000196253
0.00019312
0.000189769
0.000179425
0.00017829
0.000199743
0.000193148
0.000190573
0.000174517
0.000177211
0.000179539
0.000191313
0.000193646
0.000193333
0.00019379
0.000178978
0.000179142
0.000191018
0.00019273
0.000192791
0.000192309
0.000189114
0.000192844
0.000188246
0.000178132
0.00017862
0.000189041
0.000191551
0.000187262
0.000175529
0.000180495
0.000183009
0.000195023
0.000193871
0.000197757
0.000195612
0.000179322
0.000180582
0.000194846
0.000193031
0.00019791
0.00019588
0.000190439
0.000195419
0.000196437
0.000179034
0.000180241
0.000187523
0.000193951
0.000194318
0.000181471
0.000182771
0.0001805
0.000198011
0.000195724
0.000196896
0.00019576
0.000180465
0.000180334
0.000198196
0.000196069
0.000197108
0.00019636
0.00019737
0.000196221
0.000198414
0.00018014
0.000181473
0.000195749
0.000197158
0.000199085
0.000182782
0.00018011
0.000186313
0.000196723
0.000195901
0.000200775
0.000203295
0.00018079
0.000187738
0.000196937
0.000196715
0.000201018
0.000203618
0.00019876
0.000203187
0.000202212
0.000182258
0.000187822
0.000200449
0.000204909
0.0002044
0.000186749
0.00018779
0.00019122
0.000204434
0.000205632
0.000209154
0.000208275
0.00018858
0.000190048
0.000204384
0.000205221
0.000208358
0.000206437
0.00020355
0.000207774
0.00020599
0.000188131
0.000187615
0.000205177
0.000206385
0.000205852
0.000187923
0.000190984
0.000187783
0.000209629
0.000208694
0.000208027
0.000207093
0.000189782
0.000187596
0.000208855
0.000206027
0.000206897
0.000204889
0.000206561
0.00020733
0.000209098
0.000187125
0.000185948
0.000205917
0.00020472
0.00020731
0.000189952
0.000187313
0.000185875
0.00020657
0.00020627
0.000204324
0.000205352
0.000187351
0.000187053
0.000205999
0.000204754
0.000205096
0.000208936
0.000209672
0.000206354
0.000210565
0.000186054
0.000191252
0.000208683
0.000209598
0.000210378
0.000191985
0.000185656
0.000189411
0.000204161
0.000205252
0.000206252
0.000208451
0.000187166
0.000190293
0.00020494
0.000210659
0.000208901
0.000212917
0.000210332
0.000209024
0.000207142
0.00019178
0.000192826
0.000210726
0.000212712
0.000208251
0.00018729
0.000190387
0.000194028
0.000208858
0.000209872
0.000214477
0.000212726
0.00019072
0.000192154
0.000210606
0.000213145
0.000213996
0.000212396
0.0002069
0.000211352
0.00020793
0.000192668
0.000191385
0.000207908
0.000211669
0.000207996
0.000189685
0.000194122
0.000194464
0.000215379
0.000213337
0.000216639
0.000214863
0.000192162
0.000193071
0.000214482
0.000211708
0.000215107
0.000210975
0.000210382
0.000213716
0.000215583
0.000191047
0.000190257
0.000210113
0.000211
0.000215026
0.00019489
0.000194314
0.000194197
0.000216747
0.000215348
0.000216375
0.000216765
0.000193263
0.000195659
0.00021513
0.000210881
0.000215179
0.0002151
0.000216465
0.000217755
0.000217946
0.000190294
0.000194849
0.00021591
0.00021586
0.000217456
0.000195873
0.000194143
0.000195903
0.000216346
0.00021738
0.00021702
0.000219331
0.000195982
0.000197554
0.000215584
0.00021679
0.000218356
0.000219637
0.000218335
0.000220028
0.000218844
0.000195426
0.000197102
0.000217895
0.000219114
0.000218483
0.000196412
0.000196206
0.000197136
0.000218116
0.000219576
0.000219518
0.000220133
0.00019753
0.000196342
0.000219064
0.000219968
0.000220134
0.000220483
0.000219025
0.000219633
0.000218039
0.000197023
0.000196915
0.000218662
0.000219651
0.000218183
0.000195106
0.000196892
0.000196071
0.000219837
0.00021915
0.000219104
0.000217123
0.000195607
0.000193823
0.00022034
0.00022023
0.000219418
0.000220102
0.000217492
0.000216597
0.000217154
0.000196759
0.000197265
0.000217939
0.0002204
0.000217956
0.000194943
0.000195878
0.000197264
0.000219054
0.000217038
0.000220088
0.000218938
0.000193543
0.000196957
0.000219357
0.000220166
0.000220157
0.000220478
0.000217436
0.000219378
0.000222129
0.000197262
0.000197466
0.000218575
0.000221229
0.000222123
0.000198969
0.000197249
0.000197471
0.000220678
0.000220522
0.000221412
0.000222575
0.0001975
0.000199118
0.000220483
0.000220148
0.000220926
0.000219054
0.000222937
0.000223166
0.000224187
0.000196833
0.000195188
0.000222639
0.000219587
0.000223588
0.000199611
0.000197228
0.000201211
0.000221631
0.000223658
0.000225459
0.000227995
0.000199197
0.000203681
0.000220995
0.000219034
0.000224579
0.000224439
0.000224292
0.000228144
0.000226136
0.000194835
0.000201571
0.000223687
0.000225018
0.00022618
0.000201846
0.00020184
0.000204143
0.000226988
0.000228757
0.000228613
0.000230015
0.000203957
0.000203973
0.000226523
0.000227347
0.00022869
0.000230445
0.000226809
0.000229856
0.000227691
0.000202648
0.000206114
0.000226948
0.000230053
0.000227917
0.000202746
0.00020364
0.000196693
0.00022939
0.000229158
0.000222578
0.000217706
0.000201805
0.000191296
0.000229448
0.000231426
0.000224326
0.000223983
0.000227125
0.000217055
0.000217718
0.000205709
0.000195923
0.000227496
0.000222059
0.000217901
0.000191857
0.000195423
0.000194032
0.000220254
0.000216321
0.000218393
0.000215735
0.000190712
0.000195943
0.000221517
0.000220675
0.000218949
0.000217894
0.00021694
0.000216173
0.000218578
0.000194396
0.000193275
0.000217001
0.00021737
0.000218018
0.000198621
0.000194723
0.000206314
0.000218163
0.000220951
0.000231366
0.000236667
0.000198575
0.000211955
0.000218325
0.000217396
0.000229664
0.000230938
0.000225736
0.000237518
0.000237369
0.000194675
0.000207633
0.00022492
0.000233104
0.000236975
0.000212346
0.00020718
0.000208936
0.000233974
0.000237884
0.000237655
0.000238929
0.000212175
0.000205262
0.000232691
0.000233379
0.000236496
0.000236933
0.000238223
0.000236648
0.00023104
0.000208211
0.000207103
0.00023778
0.000237344
0.00023181
0.00019988
0.000206871
0.000193802
0.000237101
0.000231608
0.000220808
0.000216702
0.000201222
0.000189795
0.00023691
0.00023499
0.000222069
0.000220836
0.000223846
0.000215861
0.000215541
0.000204233
0.000193165
0.000224836
0.000219446
0.000216515
0.00018893
0.000192713
0.000193743
0.000218331
0.000215841
0.000215894
0.000217905
0.000189126
0.000199411
0.000219405
0.00021927
0.000216841
0.00021824
0.000214972
0.000221871
0.000228245
0.000192633
0.000197868
0.000216037
0.000220779
0.000228158
0.000206141
0.000195739
0.000208243
0.000219154
0.00022501
0.000233836
0.000235868
0.000201906
0.000210523
0.000219056
0.000222898
0.000233192
0.000233069
0.000233507
0.000236815
0.00023863
0.000199868
0.000207953
0.00023301
0.000233582
0.000237667
0.000211031
0.000208465
0.000204726
0.000234969
0.000236849
0.00023728
0.000235085
0.000210518
0.000201968
0.000234293
0.000233863
0.000236604
0.000232658
0.000238624
0.000232231
0.000226314
0.000208049
0.000200115
0.000237448
0.000229409
0.000225158
0.000195383
0.00020494
0.000232055
0.000229735
0.000202376
0.00023158
0.000228045
0.000260016
0.000256014
0.000250573
0.000222924
0.000200825
0.000222186
1.56864e-06
2.05353e-06
9.78779e-07
1.00578e-06
1.19558e-06
3.96759e-06
3.65871e-06
1.14366e-06
1.19891e-06
1.71382e-06
1.47044e-06
9.07464e-07
2.11305e-06
1.3686e-06
1.77138e-06
1.01578e-06
1.43684e-05
9.22789e-07
1.61332e-05
1.11999e-05
1.34193e-05
1.33119e-06
1.37357e-05
1.26379e-06
1.55558e-05
1.19607e-06
1.4929e-06
1.59306e-06
1.78478e-06
1.18718e-06
1.4972e-06
1.61683e-06
1.19065e-06
2.55499e-06
2.28881e-06
5.36802e-06
1.23489e-06
3.05845e-06
2.24789e-06
1.07349e-05
1.29801e-05
1.19727e-06
1.64504e-06
4.68728e-07
1.57575e-06
1.19394e-06
1.64782e-06
5.94029e-07
1.4669e-06
1.55429e-06
1.96354e-06
1.67963e-06
1.77383e-06
1.25911e-06
1.94515e-05
1.15997e-06
2.18002e-05
1.75621e-05
1.96879e-05
1.51901e-06
1.88509e-05
1.4531e-06
2.14499e-05
1.18343e-06
1.49555e-06
1.61804e-06
1.79637e-06
1.13189e-06
1.48911e-06
1.61046e-06
1.1772e-06