/*--------------------------------*- C++ -*----------------------------------*\
| =========                 |                                                 |
| \\      /  F ield         | OpenFOAM: The Open Source CFD Toolbox           |
|  \\    /   O peration     | Version:  v2012                                 |
|   \\  /    A nd           | Website:  www.openfoam.com                      |
|    \\/     M anipulation  |                                                 |
\*---------------------------------------------------------------------------*/
FoamFile
{
    version     2.0;
    format      ascii;
    class       volScalarField;
    location    "1862.5";
    object      p;
}
// * * * * * * * * * * * * * * * * * * * * * * * * * * * * * * * * * * * * * //

dimensions      [0 2 -2 0 0 0 0];


internalField   nonuniform List<scalar> 
171728
(
0.00351964
0.0035187
0.00351859
0.00351938
0.00348404
0.00348265
0.00348263
0.00348554
0.0034454
0.00344366
0.00344364
0.00344596
0.00340122
0.00339957
0.00339961
0.00340186
0.0033531
0.00335174
0.00335173
0.00335406
0.00330425
0.00330283
0.00330295
0.0033054
0.00325593
0.00325495
0.00325476
0.00325718
0.00320858
0.00320791
0.00320751
0.00320986
0.00316221
0.00316153
0.00316127
0.00316364
0.00311687
0.0031161
0.00311608
0.00311839
0.00307249
0.00307161
0.00307183
0.00307422
0.00302885
0.00302863
0.00302825
0.00303068
0.00298582
0.00298537
0.00298529
0.0029877
0.00294295
0.00294252
0.00294255
0.00294488
0.00290062
0.00290023
0.0029002
0.00290259
0.00285856
0.00285839
0.00285828
0.00286054
0.00281681
0.00281679
0.00281678
0.00281901
0.00277541
0.00277538
0.00277552
0.00277748
0.00273447
0.00273433
0.0027344
0.00273661
0.00269378
0.00269386
0.00269381
0.00269578
0.00265342
0.00265348
0.00265347
0.00265528
0.00261348
0.00261369
0.00261357
0.00261531
0.00257372
0.00257397
0.00257393
0.00257553
0.00253426
0.00253459
0.0025346
0.00253616
0.00249502
0.00249541
0.00249536
0.00249706
0.00245613
0.00245652
0.00245657
0.00245817
0.00241727
0.00241775
0.00241772
0.00241947
0.00237871
0.00237921
0.00237928
0.00238109
0.00234051
0.00234122
0.00234101
0.00234275
0.00230228
0.00230274
0.00230287
0.00230486
0.00226427
0.00226495
0.00226497
0.00226669
0.00222656
0.00222723
0.00222715
0.00222917
0.00218878
0.00218944
0.00218949
0.00219128
0.00215131
0.0021521
0.00215201
0.00215388
0.00211405
0.00211447
0.00211461
0.00211629
0.0020767
0.00207742
0.00207743
0.00207951
0.00203953
0.00204037
0.0020401
0.00204168
0.00200242
0.0020026
0.0020028
0.00200483
0.0019656
0.00196622
0.0019663
0.00196866
0.0019292
0.00192953
0.00192942
0.00193096
0.00189238
0.00189262
0.00189263
0.00189464
0.00185588
0.00185619
0.00185614
0.0018583
0.00181951
0.00181959
0.0018197
0.00182169
0.00178329
0.00178334
0.00178331
0.00178548
0.00174712
0.00174736
0.00174731
0.00174933
0.00171145
0.00171118
0.00171136
0.0017132
0.00167555
0.00167542
0.00167514
0.00167756
0.00163952
0.00163971
0.00163968
0.00164169
0.00160378
0.00160349
0.00160397
0.00160587
0.00156872
0.00156847
0.00156812
0.00157042
0.00153367
0.00153337
0.00153319
0.00153519
0.00149785
0.00149756
0.0014979
0.00149981
0.00146253
0.00146244
0.0014624
0.00146452
0.00142749
0.00142726
0.00142714
0.00142913
0.00139249
0.00139195
0.00139209
0.00139418
0.00135753
0.00135762
0.00135736
0.00135925
0.00132263
0.00132191
0.00132221
0.00132414
0.00128747
0.00128741
0.00128729
0.0012893
0.00125288
0.00125281
0.00125282
0.00125474
0.00121823
0.00121761
0.00121765
0.00121965
0.00118339
0.0011835
0.00118343
0.00118525
0.00114935
0.00114887
0.00114891
0.00115087
0.00111419
0.00111414
0.00111399
0.00111578
0.00107939
0.00107909
0.00107914
0.00108099
0.00104505
0.00104486
0.00104496
0.00104709
0.00101092
0.00101078
0.00101093
0.00101297
0.000976253
0.00097611
0.000976065
0.000977665
0.000941844
0.000941538
0.000941239
0.000943059
0.000907378
0.000907196
0.000907228
0.000909331
0.000872523
0.000872415
0.000872563
0.000874576
0.000837381
0.000837535
0.000837658
0.000839541
0.000803821
0.000803595
0.000803463
0.000805348
0.000769695
0.000769279
0.000769155
0.000771052
0.000734564
0.000734639
0.00073475
0.000736774
0.000699923
0.000699892
0.000700193
0.000701925
0.000665425
0.000665194
0.000664965
0.000666851
0.000630859
0.000630774
0.000630593
0.000632826
0.000595847
0.000595904
0.000595923
0.000597872
0.00056122
0.000561149
0.000561346
0.000563041
0.00052686
0.000526723
0.000526727
0.000528717
0.000491899
0.000491692
0.000491734
0.000493699
0.000456655
0.000456656
0.000456695
0.000458671
0.000421766
0.00042194
0.000421644
0.000423806
0.000386816
0.000386698
0.00038668
0.000388622
0.000352144
0.000351972
0.000352196
0.000353965
0.000316941
0.000316675
0.000316808
0.000318771
0.000280582
0.000280427
0.000280316
0.000282398
0.000245722
0.00024632
0.00024602
0.000248267
0.00021198
0.000211769
0.00021202
0.000213705
0.000175566
0.000174684
0.000175019
0.000176564
0.000138362
0.000138866
0.000138656
0.000141092
0.00010421
0.00010492
0.000104636
0.00010712
6.99687e-05
6.89935e-05
6.92103e-05
7.06243e-05
3.31673e-05
3.22311e-05
3.2288e-05
3.39098e-05
4.76952e-06
6.34233e-06
6.39892e-06
4.76093e-06
0.00352413
0.00352163
0.0035216
0.00352419
0.0035217
0.00352157
0.00352802
0.00352808
0.00352804
0.00352807
0.00352183
0.00352178
0.00352405
0.00352157
0.00352185
0.00352426
0.00351936
0.00349025
0.00351862
0.00351867
0.00349206
0.00349214
0.00351946
0.00349026
0.00351861
0.00351857
0.0034921
0.0034921
0.00351853
0.00349223
0.00349219
0.00351931
0.00349024
0.00351868
0.00349208
0.00349196
0.00349022
0.00348549
0.00345147
0.00348267
0.00348266
0.00345375
0.00345352
0.00348548
0.00345153
0.00348261
0.00348254
0.00345389
0.00345378
0.00348274
0.00345387
0.00345394
0.00348544
0.00345147
0.00348267
0.00345369
0.00345379
0.00345149
0.00344591
0.00340802
0.00344357
0.00344326
0.00341107
0.00341089
0.00344592
0.00340798
0.00344355
0.00344355
0.0034111
0.00341112
0.00344362
0.0034112
0.00341112
0.00344592
0.00340803
0.00344363
0.00341103
0.00341115
0.00340804
0.00340186
0.00336053
0.00339961
0.00339943
0.00336386
0.0033638
0.00340174
0.00336045
0.00339961
0.00339954
0.00336387
0.00336385
0.00339965
0.00336371
0.00336392
0.00340184
0.0033605
0.00339961
0.00336384
0.0033639
0.0033605
0.00335407
0.00331182
0.00335164
0.00335149
0.00331522
0.00331509
0.00335405
0.00331184
0.00335177
0.00335174
0.00331518
0.00331509
0.00335175
0.0033153
0.00331508
0.00335403
0.00331178
0.00335179
0.00331514
0.00331521
0.00331183
0.0033054
0.00326354
0.003303
0.00330298
0.00326672
0.00326676
0.00330538
0.00326352
0.00330299
0.00330297
0.00326675
0.00326675
0.00330306
0.00326657
0.0032667
0.00330532
0.00326347
0.003303
0.00326675
0.00326675
0.00326349
0.00325723
0.00321608
0.00325473
0.00325479
0.00321928
0.0032193
0.00325718
0.00321613
0.00325483
0.00325477
0.0032193
0.00321925
0.00325499
0.00321926
0.00321904
0.00325713
0.0032161
0.00325485
0.00321925
0.00321927
0.00321604
0.0032099
0.00316973
0.00320758
0.00320751
0.00317294
0.00317286
0.00320999
0.00316962
0.00320764
0.00320754
0.00317278
0.00317276
0.00320759
0.00317285
0.00317251
0.0032099
0.00316973
0.00320761
0.00317277
0.00317284
0.00316974
0.00316366
0.00312439
0.00316105
0.00316117
0.00312758
0.00312741
0.00316356
0.00312401
0.00316137
0.00316129
0.00312721
0.00312729
0.00316115
0.00312714
0.00312716
0.00316368
0.00312437
0.00316138
0.00312729
0.00312723
0.00312431
0.00311847
0.0030799
0.00311592
0.00311595
0.00308299
0.00308271
0.00311809
0.00307987
0.00311603
0.00311609
0.00308282
0.00308289
0.00311593
0.0030826
0.00308281
0.00311847
0.00307997
0.00311607
0.00308284
0.00308285
0.00308
0.00307417
0.0030361
0.00307206
0.00307183
0.00303893
0.00303921
0.003074
0.00303655
0.00307177
0.00307178
0.00303906
0.00303902
0.0030718
0.00303918
0.00303916
0.00307418
0.00303631
0.00307185
0.00303908
0.00303917
0.00303636
0.00303043
0.00299338
0.00302809
0.00302848
0.00299615
0.00299625
0.00303095
0.00299335
0.00302816
0.00302823
0.00299606
0.0029959
0.00302843
0.00299618
0.00299609
0.00303066
0.00299329
0.00302834
0.00299592
0.002996
0.00299334
0.00298783
0.00295047
0.00298544
0.00298546
0.00295315
0.00295326
0.00298766
0.00295031
0.00298538
0.00298535
0.00295325
0.00295322
0.00298537
0.00295316
0.00295314
0.00298773
0.00295056
0.00298537
0.00295319
0.00295325
0.0029504
0.00294492
0.00290814
0.00294244
0.00294255
0.00291088
0.00291088
0.00294478
0.00290806
0.00294251
0.00294262
0.00291088
0.00291086
0.00294255
0.00291089
0.00291095
0.00294504
0.00290824
0.00294262
0.00291089
0.00291096
0.00290803
0.00290266
0.00286605
0.00290024
0.00290022
0.00286893
0.00286902
0.00290262
0.002866
0.00290024
0.00290031
0.00286894
0.00286888
0.00290031
0.00286905
0.002869
0.00290277
0.00286616
0.00290034
0.00286892
0.00286901
0.00286594
0.00286063
0.00282425
0.00285826
0.00285841
0.00282719
0.00282718
0.00286061
0.0028242
0.00285828
0.00285836
0.00282719
0.0028271
0.00285843
0.00282722
0.00282713
0.00286075
0.00282421
0.00285844
0.0028272
0.00282711
0.00282438
0.00281893
0.0027828
0.00281679
0.00281682
0.00278564
0.00278558
0.00281889
0.00278278
0.00281682
0.00281679
0.00278564
0.0027856
0.00281678
0.00278557
0.00278572
0.00281894
0.00278281
0.00281683
0.00278566
0.0027857
0.00278275
0.00277754
0.00274178
0.00277551
0.00277538
0.00274458
0.00274459
0.00277748
0.00274172
0.00277548
0.00277551
0.00274455
0.00274445
0.00277535
0.00274459
0.00274472
0.00277758
0.00274168
0.00277538
0.00274442
0.0027447
0.00274183
0.00273649
0.00270093
0.00273438
0.00273433
0.00270408
0.00270406
0.00273645
0.00270092
0.00273439
0.00273426
0.00270418
0.00270413
0.0027346
0.00270407
0.00270381
0.00273643
0.00270113
0.0027346
0.00270393
0.00270381
0.00270097
0.00269574
0.00266038
0.0026938
0.00269388
0.00266357
0.00266357
0.00269578
0.00266046
0.00269389
0.00269393
0.00266349
0.00266338
0.00269385
0.00266357
0.00266355
0.00269591
0.00266023
0.00269385
0.00266354
0.00266352
0.00266045
0.00265521
0.00262045
0.00265343
0.00265349
0.00262361
0.00262368
0.0026553
0.00262035
0.00265337
0.00265341
0.00262366
0.00262357
0.00265343
0.0026237
0.00262366
0.00265519
0.00262044
0.00265341
0.00262359
0.00262367
0.00262033
0.00261536
0.00258066
0.00261364
0.00261367
0.00258379
0.00258381
0.00261534
0.00258056
0.00261367
0.00261357
0.00258376
0.00258392
0.00261371
0.00258383
0.00258381
0.00261534
0.00258062
0.00261372
0.00258392
0.00258379
0.00258058
0.00257561
0.00254111
0.00257394
0.00257395
0.00254432
0.00254449
0.0025755
0.0025412
0.00257393
0.00257395
0.00254435
0.00254438
0.00257392
0.00254448
0.00254438
0.00257558
0.00254111
0.00257392
0.00254437
0.00254436
0.00254116
0.00253607
0.00250197
0.00253447
0.00253459
0.00250521
0.00250507
0.00253619
0.00250181
0.00253449
0.0025346
0.00250524
0.00250525
0.00253454
0.00250508
0.00250517
0.00253617
0.00250201
0.00253453
0.00250524
0.00250518
0.00250202
0.00249692
0.00246326
0.00249541
0.00249541
0.00246619
0.00246625
0.00249697
0.00246319
0.00249541
0.00249537
0.00246622
0.00246628
0.00249542
0.00246626
0.0024662
0.00249697
0.00246322
0.00249541
0.00246627
0.0024662
0.00246313
0.00245846
0.00242425
0.00245659
0.0024565
0.00242736
0.00242747
0.00245817
0.00242466
0.00245659
0.00245659
0.0024274
0.00242739
0.00245649
0.00242745
0.00242745
0.00245836
0.00242435
0.00245648
0.0024274
0.00242742
0.00242437
0.0024192
0.00238623
0.00241767
0.00241776
0.0023889
0.00238887
0.00241978
0.0023858
0.00241766
0.00241771
0.0023889
0.00238888
0.00241779
0.00238883
0.00238883
0.00241937
0.00238588
0.00241777
0.00238887
0.00238886
0.002386
0.00238138
0.00234774
0.0023793
0.00237924
0.00235052
0.0023507
0.00238076
0.00234747
0.0023793
0.0023793
0.00235052
0.00235057
0.00237922
0.00235072
0.00235059
0.00238097
0.0023479
0.00237924
0.00235057
0.0023506
0.0023477
0.00234272
0.00230968
0.00234096
0.00234121
0.0023125
0.00231231
0.00234288
0.00231009
0.00234095
0.002341
0.00231252
0.00231239
0.00234109
0.00231233
0.00231244
0.00234303
0.00230968
0.00234104
0.00231242
0.0023124
0.00230972
0.00230482
0.00227159
0.00230294
0.00230272
0.00227433
0.00227433
0.00230501
0.00227145
0.00230297
0.00230284
0.00227433
0.00227444
0.00230288
0.00227432
0.00227438
0.00230465
0.00227161
0.00230287
0.00227445
0.0022744
0.00227162
0.00226667
0.0022341
0.00226483
0.00226496
0.00223665
0.00223675
0.00226654
0.00223408
0.00226485
0.00226497
0.00223667
0.00223659
0.00226494
0.00223676
0.00223663
0.0022668
0.00223406
0.00226498
0.00223658
0.00223665
0.00223403
0.00222921
0.00219606
0.00222725
0.00222723
0.00219891
0.00219881
0.00222918
0.00219634
0.00222726
0.00222715
0.00219889
0.00219887
0.0022272
0.00219882
0.00219883
0.00222912
0.00219614
0.00222719
0.00219888
0.00219878
0.00219617
0.0021911
0.0021588
0.00218941
0.00218942
0.00216125
0.00216145
0.00219146
0.00215876
0.0021894
0.00218946
0.00216124
0.00216135
0.00218942
0.00216146
0.00216152
0.00219124
0.00215873
0.00218942
0.00216137
0.00216155
0.00215884
0.00215396
0.00212154
0.00215197
0.00215209
0.00212418
0.00212393
0.00215386
0.00212124
0.00215196
0.002152
0.00212416
0.00212398
0.00215215
0.00212388
0.00212366
0.00215386
0.00212137
0.00215214
0.00212394
0.00212364
0.00212106
0.00211661
0.00208397
0.00211482
0.00211453
0.00208656
0.0020866
0.00211635
0.00208411
0.00211481
0.00211464
0.00208664
0.00208671
0.00211433
0.0020866
0.00208697
0.00211647
0.00208415
0.00211433
0.00208671
0.002087
0.00208444
0.00207909
0.00204692
0.00207717
0.00207738
0.00204939
0.00204968
0.00207931
0.00204713
0.00207724
0.0020774
0.00204936
0.00204943
0.00207782
0.00204976
0.00204941
0.00207929
0.00204691
0.00207784
0.00204948
0.00204934
0.00204658
0.00204208
0.00200977
0.00204017
0.00204033
0.00201227
0.00201202
0.00204213
0.00200943
0.00204011
0.00204008
0.00201224
0.00201205
0.00203979
0.00201193
0.00201173
0.00204197
0.0020096
0.00203974
0.00201202
0.00201179
0.00200954
0.00200483
0.0019728
0.00200292
0.00200268
0.00197516
0.00197522
0.0020046
0.00197296
0.00200292
0.00200282
0.0019752
0.00197542
0.00200278
0.00197526
0.00197586
0.00200477
0.00197308
0.00200283
0.00197542
0.00197585
0.00197356
0.00196801
0.00193637
0.00196603
0.00196616
0.00193878
0.00193877
0.00196815
0.00193635
0.00196606
0.00196626
0.00193875
0.00193864
0.00196662
0.0019388
0.00193855
0.00196823
0.00193619
0.00196659
0.00193868
0.00193852
0.00193584
0.0019315
0.00189945
0.00192961
0.00192952
0.00190181
0.00190178
0.00193143
0.00189942
0.00192959
0.00192942
0.00190184
0.00190178
0.00192918
0.00190175
0.00190166
0.00193132
0.0018995
0.00192919
0.00190178
0.0019017
0.00189941
0.00189462
0.00186293
0.00189259
0.00189264
0.00186522
0.00186533
0.00189461
0.00186311
0.00189263
0.00189264
0.00186518
0.00186528
0.00189259
0.00186534
0.00186531
0.00189468
0.00186299
0.00189261
0.00186527
0.00186529
0.00186315
0.00185809
0.00182663
0.00185608
0.0018562
0.00182881
0.00182871
0.00185824
0.00182645
0.00185607
0.00185615
0.00182884
0.00182878
0.0018562
0.00182871
0.00182878
0.00185815
0.00182656
0.00185617
0.00182881
0.00182879
0.00182652
0.00182181
0.0017902
0.00181977
0.00181956
0.00179244
0.00179235
0.00182161
0.00179019
0.00181976
0.00181969
0.00179242
0.00179238
0.00181964
0.00179235
0.00179245
0.00182173
0.00179018
0.00181967
0.00179237
0.00179245
0.00179027
0.00178538
0.0017541
0.0017833
0.00178334
0.00175619
0.00175635
0.00178542
0.00175426
0.00178332
0.00178329
0.00175622
0.00175625
0.00178344
0.00175634
0.00175637
0.00178537
0.00175416
0.00178341
0.0017563
0.00175635
0.00175417
0.00174932
0.00171819
0.00174724
0.00174737
0.00172038
0.00172026
0.00174945
0.00171802
0.00174724
0.00174729
0.00172032
0.00172039
0.00174729
0.00172025
0.00172007
0.00174938
0.00171821
0.00174731
0.00172037
0.00172009
0.00171796
0.00171342
0.00168227
0.00171139
0.0017112
0.00168442
0.00168432
0.00171322
0.00168231
0.00171133
0.00171137
0.00168443
0.00168424
0.00171108
0.00168429
0.00168446
0.0017134
0.00168209
0.00171109
0.00168421
0.00168438
0.00168234
0.00167745
0.00164619
0.00167539
0.00167544
0.00164816
0.00164868
0.00167756
0.00164653
0.00167544
0.00167521
0.00164828
0.00164846
0.00167552
0.00164875
0.00164862
0.00167731
0.00164648
0.0016755
0.00164851
0.00164866
0.00164648
0.00164143
0.00161066
0.00163919
0.00163963
0.00161273
0.00161238
0.00164167
0.00161035
0.00163929
0.00163962
0.00161269
0.00161293
0.0016396
0.00161243
0.00161271
0.00164174
0.00161078
0.00163962
0.00161297
0.00161269
0.00161065
0.00160593
0.00157557
0.00160398
0.00160344
0.0015777
0.00157731
0.00160561
0.00157532
0.00160388
0.00160395
0.00157752
0.00157708
0.00160382
0.00157719
0.00157715
0.00160597
0.00157501
0.00160383
0.00157698
0.00157722
0.00157513
0.00157084
0.00153981
0.00156889
0.00156867
0.00154184
0.00154227
0.00157064
0.00154013
0.00156871
0.00156821
0.00154191
0.00154189
0.00156832
0.00154218
0.00154203
0.0015703
0.00153991
0.00156837
0.00154192
0.00154193
0.00153992
0.00153503
0.00150427
0.00153283
0.00153334
0.00150618
0.00150638
0.00153535
0.00150435
0.00153294
0.00153314
0.00150635
0.00150673
0.00153322
0.00150654
0.00150657
0.0015352
0.00150461
0.00153309
0.00150676
0.00150657
0.00150454
0.00149953
0.0014692
0.00149738
0.00149739
0.00147114
0.00147097
0.00149955
0.00146906
0.00149756
0.00149785
0.00147133
0.00147124
0.00149771
0.00147114
0.00147133
0.00149986
0.00146923
0.0014978
0.00147126
0.00147142
0.00146927
0.00146451
0.00143425
0.00146247
0.0014623
0.00143644
0.00143634
0.00146439
0.00143419
0.00146258
0.00146241
0.00143623
0.00143601
0.00146252
0.00143621
0.00143586
0.00146449
0.00143393
0.00146253
0.00143593
0.00143582
0.00143384
0.0014295
0.00139876
0.0014276
0.0014275
0.00140082
0.0014007
0.00142939
0.00139868
0.00142738
0.00142722
0.00140074
0.00140083
0.00142704
0.00140056
0.00140095
0.0014292
0.00139877
0.00142708
0.00140084
0.00140096
0.00139888
0.00139403
0.00136394
0.00139198
0.00139199
0.00136594
0.00136626
0.00139401
0.00136422
0.00139192
0.00139207
0.00136592
0.00136592
0.00139228
0.00136631
0.00136601
0.00139406
0.00136396
0.00139223
0.00136602
0.00136593
0.00136395
0.00135928
0.001329
0.0013573
0.00135755
0.00133108
0.00133078
0.00135951
0.00132869
0.00135732
0.00135729
0.00133123
0.00133118
0.00135724
0.00133081
0.00133093
0.0013593
0.00132899
0.00135719
0.00133113
0.00133099
0.00132888
0.00132423
0.0012938
0.00132226
0.00132191
0.00129584
0.00129594
0.00132394
0.00129392
0.00132237
0.00132229
0.0012958
0.0012959
0.00132216
0.00129589
0.00129606
0.00132421
0.00129387
0.00132222
0.00129589
0.00129605
0.00129397
0.00128911
0.0012594
0.00128716
0.00128742
0.00126142
0.00126153
0.00128931
0.0012595
0.00128711
0.00128726
0.00126141
0.0012614
0.00128742
0.00126163
0.00126147
0.00128922
0.00125945
0.00128738
0.00126154
0.00126148
0.00125944
0.00125476
0.00122457
0.00125284
0.00125274
0.0012267
0.0012264
0.00125473
0.00122434
0.00125285
0.00125274
0.00122669
0.00122651
0.00125274
0.00122627
0.00122646
0.00125474
0.00122437
0.00125276
0.00122635
0.00122647
0.00122438
0.00121979
0.00118966
0.00121787
0.00121772
0.0011917
0.00119197
0.00121966
0.00118993
0.00121784
0.00121776
0.00119164
0.00119182
0.00121775
0.00119202
0.00119186
0.00121966
0.00118984
0.00121774
0.00119195
0.00119189
0.00118986
0.00118504
0.00115565
0.00118316
0.00118342
0.00115769
0.00115762
0.00118529
0.00115548
0.00118312
0.00118328
0.00115774
0.00115767
0.00118334
0.00115755
0.00115772
0.00118521
0.00115556
0.00118338
0.0011576
0.00115769
0.00115559
0.00115098
0.00112076
0.00114908
0.00114894
0.00112282
0.00112289
0.0011508
0.00112083
0.00114914
0.00114904
0.00112278
0.00112285
0.00114905
0.00112284
0.00112261
0.00115088
0.00112068
0.001149
0.00112274
0.00112254
0.00112052
0.001116
0.00108573
0.00111405
0.00111416
0.00108784
0.00108779
0.0011161
0.00108573
0.00111398
0.00111404
0.00108779
0.00108774
0.00111379
0.00108781
0.00108765
0.00111593
0.00108574
0.00111373
0.00108781
0.00108764
0.00108564
0.00108101
0.00105142
0.00107913
0.00107906
0.00105336
0.00105332
0.001081
0.00105135
0.00107914
0.00107909
0.00105347
0.00105346
0.0010791
0.00105335
0.00105365
0.00108104
0.00105149
0.00107909
0.00105345
0.00105371
0.00105167
0.00104682
0.00101732
0.00104487
0.00104481
0.00101936
0.00101927
0.00104674
0.00101733
0.00104496
0.00104496
0.00101934
0.00101927
0.00104519
0.00101935
0.00101971
0.0010469
0.00101738
0.00104525
0.00101949
0.00101987
0.0010177
0.00101261
0.000982589
0.00101074
0.00101071
0.000984643
0.000984845
0.00101267
0.000982707
0.00101069
0.00101067
0.000984634
0.000984886
0.00101101
0.00098478
0.000984554
0.00101272
0.000982706
0.00101119
0.000984847
0.000984545
0.000982446
0.000977913
0.000948265
0.000976012
0.000976232
0.000950312
0.000950319
0.000977996
0.00094816
0.000976003
0.00097626
0.000950242
0.000950126
0.000975791
0.000950152
0.0009498
0.000977949
0.000947922
0.000975705
0.000949855
0.00094958
0.000947662
0.00094359
0.000913827
0.00094173
0.000941654
0.000915842
0.000915696
0.000943484
0.000913784
0.000941669
0.000941453
0.000915884
0.00091566
0.000941268
0.000915797
0.000915884
0.000943243
0.000913801
0.000941067
0.000915752
0.000915912
0.000913975
0.000909148
0.000879134
0.000907207
0.000907063
0.000881168
0.000881067
0.000909107
0.000879143
0.000907274
0.000907113
0.000881215
0.000881255
0.000907347
0.000881178
0.000881361
0.000909165
0.000879271
0.000907421
0.000881322
0.000881448
0.000879369
0.000874337
0.000843925
0.000872359
0.000872332
0.00084595
0.000846157
0.000874374
0.000844134
0.000872364
0.000872479
0.000845884
0.000846166
0.000872577
0.000846162
0.000846282
0.000874485
0.000844208
0.000872654
0.000846306
0.000846313
0.000844239
0.00083923
0.000810224
0.000837304
0.000837573
0.000812127
0.00081222
0.000839444
0.00081018
0.000837256
0.000837569
0.000812133
0.000812164
0.000837642
0.000812055
0.000811999
0.000839511
0.000810099
0.000837677
0.000811988
0.000812007
0.000809987
0.000805687
0.000775953
0.000803812
0.000803765
0.00077811
0.000777886
0.000805579
0.000775856
0.000803815
0.000803689
0.000778085
0.000777824
0.000803485
0.000777919
0.000777759
0.000805474
0.000775741
0.000803448
0.000777756
0.000777646
0.000775718
0.000771174
0.000741112
0.000769319
0.000769181
0.000743106
0.000743136
0.00077114
0.000741227
0.000769291
0.000769138
0.000743117
0.000743163
0.000769172
0.000743299
0.000743446
0.000771038
0.000741296
0.000769069
0.000743311
0.000743441
0.000741466
0.000736399
0.000706658
0.000734423
0.000734523
0.000708529
0.000708608
0.000736511
0.000706622
0.00073447
0.000734636
0.000708644
0.000708879
0.000734824
0.000708591
0.000708687
0.000736646
0.000706929
0.00073488
0.000708915
0.000708843
0.000706736
0.000701949
0.000672064
0.000699923
0.000699954
0.000674096
0.000673955
0.000701888
0.000671946
0.000700015
0.000700207
0.000674017
0.000673791
0.000699861
0.000673837
0.000673558
0.000702178
0.00067171
0.000699988
0.000673698
0.000673516
0.000671547
0.000667357
0.000637372
0.000665479
0.000665313
0.000639458
0.000639383
0.000667243
0.000637414
0.000665356
0.000665038
0.000639346
0.00063914
0.000664933
0.000639382
0.000639506
0.000666963
0.000637217
0.000664841
0.000639167
0.000639416
0.000637497
0.000632623
0.0006024
0.000630712
0.000630722
0.000604388
0.000604574
0.000632709
0.000602553
0.000630653
0.000630528
0.000604445
0.000604548
0.000630963
0.000604664
0.000604789
0.000632535
0.000602588
0.000630899
0.000604622
0.000604822
0.000602706
0.000597638
0.00056777
0.000595642
0.000595832
0.000569666
0.000569744
0.00059776
0.000567739
0.000595721
0.000595886
0.000569786
0.000569999
0.000595897
0.000569771
0.000569641
0.000597835
0.000567984
0.000595951
0.000569953
0.00056971
0.000567708
0.000563103
0.000533533
0.000561103
0.000561133
0.000535487
0.000535404
0.000563055
0.000533445
0.000561211
0.000561394
0.000535483
0.00053546
0.00056106
0.000535355
0.000535428
0.000563299
0.000533425
0.000561116
0.000535415
0.000535414
0.000533438
0.000528823
0.000498603
0.000526889
0.000526795
0.00050069
0.000500588
0.000528747
0.000498551
0.00052684
0.000526772
0.000500597
0.000500532
0.00052681
0.000500507
0.000500557
0.000528693
0.000498508
0.000526778
0.000500511
0.000500541
0.000498512
0.000493778
0.000463307
0.000491836
0.000491764
0.000465316
0.00046529
0.000493726
0.000463346
0.000491776
0.000491735
0.000465328
0.000465371
0.000491725
0.000465339
0.000465378
0.00049371
0.000463425
0.000491731
0.000465439
0.000465398
0.000463421
0.000458538
0.000428513
0.000456563
0.00045658
0.000430478
0.000430576
0.0004586
0.000428632
0.000456581
0.000456632
0.000430474
0.000430425
0.000456678
0.000430636
0.000430607
0.000458654
0.000428444
0.000456682
0.000430422
0.000430545
0.00042859
0.000423763
0.000393475
0.000421778
0.000421898
0.000395497
0.000395559
0.000423892
0.000393476
0.000421754
0.000421662
0.000395479
0.000395402
0.000421864
0.000395516
0.000395419
0.00042366
0.000393381
0.000421787
0.000395373
0.000395419
0.0003934
0.000388695
0.00035871
0.00038673
0.000386745
0.000360669
0.000360623
0.000388672
0.000358633
0.000386738
0.000386704
0.000360717
0.000360815
0.000386642
0.000360595
0.000360606
0.000388637
0.000358825
0.000386673
0.0003608
0.000360666
0.000358668
0.000353998
0.000323714
0.000352035
0.000351989
0.000325789
0.000325666
0.000353924
0.00032362
0.000352082
0.000352203
0.000325813
0.000325822
0.000351983
0.000325668
0.000325756
0.00035413
0.000323723
0.00035204
0.000325822
0.000325762
0.000323691
0.000318824
0.000287443
0.000316823
0.000316676
0.000289549
0.000289362
0.000318712
0.000287293
0.000316847
0.000316819
0.000289579
0.00028948
0.000316748
0.000289344
0.000289363
0.000318818
0.000287331
0.000316752
0.000289425
0.000289356
0.000287268
0.000282466
0.000252412
0.000280451
0.000280414
0.000254295
0.000254645
0.000282436
0.000252817
0.000280441
0.000280327
0.000254169
0.000254227
0.000280407
0.000254736
0.000254752
0.000282349
0.000252482
0.000280374
0.00025437
0.000254683
0.000252849
0.000247821
0.000218697
0.000245878
0.000246224
0.000220633
0.000220814
0.000248215
0.000218691
0.000245767
0.000245873
0.000220619
0.000220743
0.000246353
0.000220805
0.000220782
0.000247908
0.000218794
0.000246292
0.000220786
0.00022081
0.00021866
0.000213967
0.000182438
0.000211996
0.000211903
0.00018463
0.000184139
0.000213768
0.000181864
0.00021206
0.000212107
0.000184752
0.000184558
0.000211703
0.000183967
0.00018387
0.000213998
0.000182214
0.000211782
0.000184327
0.000183945
0.000181683
0.000177323
0.000145266
0.00017529
0.000174864
0.000147317
0.00014732
0.000176793
0.000145541
0.000175384
0.00017521
0.00014733
0.000147336
0.000174552
0.000147429
0.000147613
0.000177123
0.000145424
0.000174631
0.000147419
0.000147591
0.000145779
0.000140381
0.000110928
0.000138304
0.000138642
0.000112765
0.000113215
0.000140828
0.000111477
0.000138255
0.000138438
0.000112652
0.000112879
0.000139121
0.000113428
0.000113629
0.000140639
0.000111176
0.000139065
0.000113132
0.000113571
0.000111804
0.000106348
7.67766e-05
0.000104418
0.000104738
7.88647e-05
7.85758e-05
0.000106835
7.61945e-05
0.000104326
0.000104448
7.88729e-05
7.86357e-05
0.000105077
7.82764e-05
7.78909e-05
0.000106525
7.63495e-05
0.000105011
7.83808e-05
7.79202e-05
7.57251e-05
7.17218e-05
3.93826e-05
6.98376e-05
6.9349e-05
4.15556e-05
4.13711e-05
7.10799e-05
3.91196e-05
6.98942e-05
6.95548e-05
4.16077e-05
4.1506e-05
6.85829e-05
4.12681e-05
4.10444e-05
7.12736e-05
3.92384e-05
6.86646e-05
4.13908e-05
4.1087e-05
3.88615e-05
3.42265e-05
7.04714e-06
3.2391e-05
3.22814e-05
9.89753e-06
1.01228e-05
3.40232e-05
7.39817e-06
3.24274e-05
3.23432e-05
9.89206e-06
1.01421e-05
3.21917e-05
1.03467e-05
1.08701e-05
3.41195e-05
7.39354e-06
3.22147e-05
1.03959e-05
1.08905e-05
7.86119e-06
4.11799e-06
5.85768e-06
6.05324e-06
4.42287e-06
5.87122e-06
6.0842e-06
5.08968e-06
5.2129e-06
5.59643e-06
6.62799e-06
4.42448e-06
6.66881e-06
0.00353119
0.00353378
0.00353247
0.00353266
0.00355988
0.00353352
0.00356328
0.00353412
0.00355976
0.00353364
0.00353401
0.00356327
0.00354498
0.00356692
0.00356665
0.00350375
0.00351726
0.00352128
0.00349604
0.00349404
0.00349945
0.00350369
0.00351726
0.00352112
0.00349608
0.0035197
0.00351965
0.00351964
0.00349317
0.00349316
0.00349318
0.00349305
0.00350334
0.00351543
0.00352025
0.00351089
0.00352246
0.00350054
0.0035112
0.00349423
0.0034994
0.00350334
0.00352025
0.00351507
0.00351092
0.00352241
0.00351118
0.00350058
0.00352229
0.00352109
0.00350809
0.00350062
0.00350025
0.00347599
0.00349033
0.00349011
0.00347412
0.00348736
0.00347321
0.00347601
0.00349026
0.00349009
0.00347409
0.00348406
0.00348407
0.00348392
0.00345553
0.00345552
0.00345561
0.00345543
0.00347382
0.00348895
0.00348264
0.00347341
0.00348731
0.00347432
0.00347321
0.00348746
0.00347301
0.00347379
0.00348259
0.00348887
0.00347309
0.00348731
0.0034731
0.00347435
0.00349043
0.00349037
0.00347157
0.00347485
0.0034749
0.00343344
0.00344819
0.003449
0.00343211
0.00344765
0.00343064
0.00343338
0.00344823
0.00344906
0.00343199
0.00344541
0.00344548
0.00344531
0.00341276
0.00341279
0.00341283
0.00341271
0.00343213
0.00344787
0.00344363
0.00343319
0.00344674
0.00343269
0.00343311
0.00344697
0.00343117
0.00343211
0.00344361
0.00344775
0.00343305
0.00344672
0.00343311
0.00343262
0.00344848
0.00344835
0.00343046
0.0034325
0.00343258
0.00338698
0.0034034
0.00340488
0.00338558
0.00340263
0.00338386
0.00338703
0.00340335
0.00340483
0.00338561
0.00340124
0.00340126
0.00340117
0.0033653
0.0033653
0.00336537
0.00336525
0.00338606
0.00340326
0.00339957
0.00338778
0.00340266
0.00338614
0.00338778
0.00340276
0.00338499
0.00338617
0.0033996
0.00340332
0.00338785
0.00340269
0.00338789
0.00338628
0.00340355
0.00340349
0.00338459
0.00338568
0.00338574
0.00333809
0.00335515
0.00335643
0.0033369
0.0033552
0.00333689
0.00333805
0.00335517
0.00335648
0.00333683
0.00335313
0.00335319
0.00335307
0.00331643
0.00331651
0.00331646
0.00331639
0.00333758
0.003355
0.00335171
0.00333945
0.00335479
0.00333726
0.00333953
0.00335474
0.00333656
0.00333764
0.00335177
0.0033552
0.00333954
0.00335484
0.0033396
0.00333754
0.00335515
0.00335524
0.00333615
0.00333704
0.00333695
0.00328897
0.00330619
0.00330724
0.00328809
0.00330603
0.00328786
0.0032889
0.00330623
0.00330722
0.00328806
0.00330431
0.00330429
0.0033042
0.00326793
0.00326798
0.00326796
0.00326788
0.00328886
0.00330606