/*--------------------------------*- C++ -*----------------------------------*\
| =========                 |                                                 |
| \\      /  F ield         | OpenFOAM: The Open Source CFD Toolbox           |
|  \\    /   O peration     | Version:  v2006                                 |
|   \\  /    A nd           | Website:  www.openfoam.com                      |
|    \\/     M anipulation  |                                                 |
\*---------------------------------------------------------------------------*/
FoamFile
{
    version     2.0;
    format      ascii;
    class       volScalarField;
    location    "1000";
    object      epsilon;
}
// * * * * * * * * * * * * * * * * * * * * * * * * * * * * * * * * * * * * * //

dimensions      [0 2 -3 0 0 0 0];


internalField   nonuniform List<scalar> 
171728
(
2.41515e-07
3.84275e-07
1.3024e-07
2.54248e-07
2.54298e-07
4.13348e-07
1.29703e-07
2.69102e-07
2.6914e-07
4.44961e-07
1.29972e-07
2.8614e-07
2.86119e-07
4.79152e-07
1.3099e-07
3.04916e-07
3.04861e-07
5.1468e-07
1.32784e-07
3.25359e-07
3.25561e-07
5.51982e-07
1.35298e-07
3.47581e-07
3.47506e-07
5.89163e-07
3.84329e-07
4.0645e-07
2.41566e-07
2.50849e-07
2.50963e-07
4.06621e-07
4.13285e-07
4.3759e-07
2.54317e-07
2.54362e-07
2.65277e-07
2.65338e-07
4.13186e-07
4.3769e-07
2.54272e-07
2.54403e-07
2.6523e-07
2.65361e-07
2.54342e-07
2.65195e-07
2.65307e-07
4.13332e-07
4.37671e-07
2.54304e-07
2.65224e-07
2.65252e-07
4.37699e-07
4.44857e-07
4.7118e-07
2.692e-07
2.69249e-07
2.81762e-07
2.8184e-07
4.44977e-07
4.71309e-07
2.69145e-07
2.69281e-07
2.81662e-07
2.8179e-07
2.69199e-07
2.81709e-07
2.81797e-07
4.44933e-07
4.71204e-07
2.6915e-07
2.81698e-07
2.81747e-07
4.71365e-07
4.78954e-07
5.06454e-07
2.86177e-07
2.86267e-07
3.0007e-07
3.00236e-07
4.79151e-07
5.06541e-07
2.86095e-07
2.86204e-07
2.99998e-07
3.0017e-07
2.86205e-07
3.00086e-07
3.00125e-07
4.78988e-07
5.06474e-07
2.8616e-07
3.00016e-07
3.0001e-07
5.06526e-07
5.14641e-07
5.43406e-07
3.0497e-07
3.05058e-07
3.20401e-07
3.20256e-07
5.14646e-07
5.43146e-07
3.04892e-07
3.05032e-07
3.20254e-07
3.20396e-07
3.05036e-07
3.20116e-07
3.2034e-07
5.14645e-07
5.43431e-07
3.04936e-07
3.20249e-07
3.20248e-07
5.43489e-07
5.51887e-07
5.80444e-07
3.2563e-07
3.25511e-07
3.4201e-07
3.42143e-07
5.51673e-07
5.80609e-07
3.25546e-07
3.25723e-07
3.41917e-07
3.42061e-07
3.25602e-07
3.41905e-07
3.42045e-07
5.51934e-07
5.80429e-07
3.25571e-07
3.41828e-07
3.41865e-07
5.80564e-07
5.89077e-07
3.47756e-07
3.47844e-07
3.65165e-07
5.89267e-07
6.17161e-07
3.47658e-07
3.47736e-07
3.47717e-07
3.64907e-07
3.65207e-07
5.89002e-07
3.47568e-07
3.65161e-07
6.17656e-07
1.84383e-05
1.84303e-05
1.24253e-06
2.86647e-06
1.59978e-07
2.44489e-07
2.8873e-06
1.60521e-07
1.2152e-06
5.16647e-06
5.16788e-06
3.91237e-07
5.17668e-06
5.17829e-06
3.81728e-06
8.92923e-06
3.79765e-06
8.93272e-06
1.84116e-05
1.84045e-05
3.81816e-06
8.93062e-06
3.79773e-06
8.9347e-06
1.01658e-07
1.09881e-07
1.01659e-07
1.29765e-07
1.29761e-07
1.29778e-07
1.29772e-07
1.32316e-06
2.9282e-06
1.62675e-07
2.57773e-07
1.297e-06
2.94689e-06
1.6356e-07
1.84127e-05
1.84056e-05
1.3232e-06
1.6269e-07
1.13771e-06
2.5781e-07
5.43969e-07
1.63576e-07
2.947e-06
5.19461e-06
5.19641e-06
4.21887e-07
5.20336e-06
5.20498e-06
3.86355e-06
8.93934e-06
3.84909e-06
8.94176e-06
1.83877e-05
1.83811e-05
3.8637e-06
8.94053e-06
3.84904e-06
8.9434e-06
1.29704e-07
1.29717e-07
1.29716e-07
1.2983e-07
1.29852e-07
1.29842e-07
1.29849e-07
1.39922e-06
2.98279e-06
1.66754e-07
2.7317e-07
1.37488e-06
2.99885e-06
1.68e-07
1.83889e-05
1.83821e-05
1.39915e-06
1.66772e-07
2.98274e-06
2.73182e-07
1.37486e-06
1.68009e-07
2.99904e-06
5.21862e-06
5.21992e-06
4.54212e-07
5.22562e-06
5.22724e-06
3.89791e-06
8.94547e-06
3.88654e-06
8.9483e-06
1.83655e-05
1.83605e-05
3.89844e-06
8.94665e-06
3.88638e-06
8.94973e-06
1.29981e-07
1.29984e-07
1.2999e-07
1.30666e-07
1.30715e-07
1.30679e-07
1.30677e-07
1.46963e-06
3.0309e-06
1.72239e-07
2.90673e-07
1.44724e-06
3.04485e-06
1.73815e-07
1.83666e-05
1.83613e-05
1.4695e-06
1.7226e-07
3.03102e-06
2.90641e-07
1.44765e-06
1.7384e-07
3.04476e-06
5.23778e-06
5.23963e-06
4.88803e-07
5.24401e-06
5.24531e-06
3.92444e-06
8.95375e-06
3.91618e-06
8.95613e-06
1.83461e-05
1.83412e-05
3.92428e-06
8.95449e-06
3.91609e-06
8.95564e-06
1.31004e-07
1.30998e-07
1.31015e-07
1.3228e-07
1.32256e-07
1.32278e-07
1.32272e-07
1.53447e-06
3.07295e-06
1.7912e-07
3.09898e-07
1.51414e-06
3.08535e-06
1.81043e-07
1.83477e-05
1.8342e-05
1.53422e-06
1.79087e-07
3.07316e-06
3.09876e-07
1.51445e-06
1.81015e-07
3.08527e-06
5.25472e-06
5.25675e-06
5.24811e-07
5.25969e-06
5.26153e-06
3.94367e-06
8.95822e-06
3.93755e-06
8.95978e-06
1.83288e-05
1.83262e-05
3.94536e-06
8.95938e-06
3.93709e-06
8.96407e-06
1.32717e-07
1.328e-07
1.3278e-07
1.34568e-07
1.34596e-07
1.34568e-07
1.34574e-07
1.59258e-06
3.11078e-06
1.87263e-07
3.30781e-07
1.57396e-06
3.12196e-06
1.89497e-07
1.83302e-05
1.83274e-05
1.59298e-06
1.87301e-07
3.11153e-06
3.30946e-07
1.5748e-06
1.89552e-07
3.12229e-06
5.27028e-06
5.27223e-06
5.6207e-07
5.27427e-06
5.27642e-06
3.96101e-06
8.96767e-06
3.95704e-06
8.96868e-06
1.83171e-05
1.83144e-05
3.9596e-06
8.96721e-06
3.95649e-06
8.9678e-06
1.35264e-07
1.3528e-07
1.35284e-07
1.37646e-07
1.37657e-07
1.64616e-06
3.1452e-06
1.96809e-07
3.53413e-07
1.62877e-06
3.15612e-06
1.99442e-07
1.83165e-05
1.8313e-05
1.64572e-06
1.96812e-07
3.14458e-06
3.53286e-07
1.62861e-06
1.99434e-07
3.15498e-06
5.28483e-06
5.28502e-06
5.99247e-07
5.28914e-06
5.29037e-06
5.16771e-06
5.1661e-06
3.91237e-07
5.17785e-06
5.17636e-06
1.84365e-05
1.84289e-05
1.84173e-05
1.84244e-05
3.991e-07
5.19195e-06
5.19031e-06
5.18275e-06
5.18124e-06
1.84155e-05
1.8423e-05
3.75944e-06
8.91968e-06
8.92474e-06
3.73223e-06
1.24258e-06
1.59982e-07
2.86644e-06
2.44566e-07
1.60525e-07
2.88765e-06
1.21523e-06
3.75938e-06
8.91961e-06
8.92586e-06
3.73251e-06
1.25661e-06
2.47604e-07
2.91787e-06
1.61871e-07
2.89822e-06
1.61157e-07
1.28313e-06
3.76711e-06
8.92993e-06
8.92562e-06
3.79024e-06
1.25658e-06
2.4768e-07
1.61869e-07
2.91788e-06
1.61152e-07
2.89852e-06
1.28304e-06
3.76688e-06
8.9285e-06
8.92637e-06
3.78991e-06
1.84377e-05
1.84301e-05
1.84393e-05
1.84321e-05
3.99218e-07
5.19003e-06
5.19202e-06
5.1814e-06
5.18321e-06
1.84159e-05
1.84238e-05
1.84182e-05
1.84261e-05
1.8409e-05
1.84022e-05
1.84117e-05
1.84051e-05
5.19468e-06
5.19632e-06
4.21792e-07
5.20301e-06
5.20482e-06
1.83908e-05
1.8397e-05
1.83934e-05
1.83999e-05
4.28766e-07
5.21496e-06
5.21672e-06
5.20719e-06
5.20906e-06
3.81765e-06
8.92997e-06
3.79774e-06
8.93374e-06
1.3228e-06
1.13762e-06
1.62671e-07
2.57847e-07
5.4388e-07
2.94663e-06
1.63574e-07
1.32293e-06
1.13792e-06
1.62686e-07
2.57892e-07
5.43846e-07
2.94718e-06
1.63572e-07
3.82431e-06
8.93865e-06
8.93338e-06
3.84284e-06
3.82452e-06
8.93794e-06
8.93421e-06
3.84244e-06
1.33635e-06
2.61486e-07
2.97367e-06
1.65616e-07
2.95633e-06
1.64535e-07
1.36187e-06
1.33643e-06
2.61556e-07
2.97419e-06
1.65622e-07
2.95686e-06
1.64555e-07
1.36177e-06
5.19641e-06
5.19482e-06
4.21769e-07
5.20456e-06
5.20333e-06
1.841e-05
1.84033e-05
1.83929e-05
1.83991e-05
4.2881e-07
5.21646e-06
5.21491e-06
5.20866e-06
5.20746e-06
1.8391e-05
1.8398e-05
1.32309e-06
1.13801e-06
1.62687e-07
2.57809e-07
5.43947e-07
2.94728e-06
1.63576e-07
3.81738e-06
8.93069e-06
3.79826e-06
8.93379e-06
1.32305e-06
1.62697e-07
7.5214e-07
2.57921e-07
5.43921e-07
1.63583e-07
2.94722e-06
3.82471e-06
8.94015e-06
8.93551e-06
3.84353e-06
1.33671e-06
2.61447e-07
2.97434e-06
1.65621e-07
2.95704e-06
1.64561e-07
1.36221e-06
3.82458e-06
8.93969e-06
8.93443e-06
3.84332e-06
1.33658e-06
2.61589e-07
1.65639e-07
2.97433e-06
1.64578e-07
2.95694e-06
1.36219e-06
3.81871e-06
8.9304e-06
3.79746e-06
8.9344e-06
1.32324e-06
1.62673e-07
2.9283e-06
2.57889e-07
1.29698e-06
1.63571e-07
2.94708e-06
3.81884e-06
8.9291e-06
3.79754e-06
8.93475e-06
1.33664e-06
2.61428e-07
2.97383e-06
1.656e-07
2.9567e-06
1.64536e-07
1.36183e-06
3.82498e-06
8.93891e-06
8.93514e-06
3.8427e-06
1.33667e-06
2.61508e-07
1.6561e-07
2.97362e-06
1.6454e-07
2.95681e-06
1.36175e-06
3.82491e-06
8.93794e-06
8.93544e-06
3.84229e-06
5.19656e-06
5.19522e-06
4.21869e-07
5.20475e-06
5.2036e-06
1.84109e-05
1.84041e-05
1.83943e-05
1.84004e-05
4.28851e-07
5.21684e-06
5.21494e-06
5.20898e-06
5.20768e-06
1.83915e-05
1.83985e-05
1.32319e-06
1.62685e-07
1.13812e-06
2.57836e-07
5.4396e-07
1.63576e-07
2.94755e-06
3.81859e-06
8.93025e-06
3.79734e-06
8.9344e-06
3.81867e-06
8.93072e-06
3.79724e-06
8.93477e-06
1.33675e-06
2.61462e-07
1.65618e-07
2.97365e-06
1.64559e-07
2.95666e-06
1.36183e-06
1.33676e-06
2.61462e-07
1.65623e-07
2.97398e-06
1.64553e-07
2.95727e-06
1.36181e-06
3.82514e-06
8.93859e-06
8.93517e-06
3.84249e-06
3.82518e-06
8.93858e-06
8.93532e-06
3.84244e-06
1.84105e-05
1.84042e-05
1.84125e-05
1.84059e-05
4.28864e-07
5.21483e-06
5.21629e-06
5.20754e-06
5.20921e-06
1.83916e-05
1.83987e-05
1.83931e-05
1.84005e-05
1.83856e-05
1.83793e-05
1.83881e-05
1.83818e-05
5.21877e-06
5.22047e-06
4.54091e-07
5.22557e-06
5.22716e-06
1.83684e-05
1.83743e-05
1.83709e-05
1.83768e-05
4.61663e-07
5.23512e-06
5.2367e-06
5.22899e-06
5.23058e-06
3.86354e-06
8.93864e-06
3.84882e-06
8.94227e-06
1.39926e-06
2.98276e-06
1.66763e-07
2.73258e-07
1.37505e-06
2.99903e-06
1.68024e-07
1.39926e-06
2.98338e-06
1.66783e-07
2.73315e-07
1.37495e-06
2.99944e-06
1.68027e-07
3.86885e-06
8.94503e-06
8.94195e-06
3.88145e-06
3.86886e-06
8.94429e-06
8.94234e-06
3.88129e-06
1.41178e-06
2.77448e-07
3.02286e-06
1.70746e-07
3.00769e-06
1.69332e-07
1.43501e-06
1.41175e-06
2.77498e-07
3.02287e-06
1.7074e-07
3.00784e-06
1.69334e-07
1.43493e-06
5.22036e-06
5.21861e-06
4.54173e-07
5.22704e-06
5.22542e-06
1.83856e-05
1.83795e-05
1.83699e-05
1.83758e-05
4.61751e-07
5.23609e-06
5.23501e-06
5.23025e-06
5.22885e-06
1.83691e-05
1.83748e-05
1.39931e-06
2.98339e-06
1.6678e-07
2.73178e-07
1.37529e-06
2.99959e-06
1.67996e-07
3.86315e-06
8.94032e-06
3.84958e-06
8.94186e-06
1.39926e-06
1.66798e-07
2.98351e-06
2.73315e-07
1.37529e-06
1.68011e-07
2.99959e-06
3.86847e-06
8.94658e-06
8.94392e-06
3.88187e-06
1.41178e-06
2.77356e-07
3.02337e-06
1.70705e-07
3.00823e-06
1.69312e-07
1.435e-06
3.86841e-06
8.94524e-06
8.94179e-06
3.88134e-06
1.4116e-06
2.77499e-07
1.70712e-07
3.02299e-06
1.69324e-07
3.00806e-06
1.43489e-06
3.86377e-06
8.93921e-06
3.84823e-06
8.94204e-06
1.39924e-06
1.66756e-07
2.9827e-06
2.7328e-07
1.37481e-06
1.68005e-07
2.99929e-06
3.86397e-06
8.9384e-06
3.84796e-06
8.9429e-06
1.41175e-06
2.77362e-07
3.02282e-06
1.70737e-07
3.00746e-06
1.69326e-07
1.43512e-06
3.8687e-06
8.94684e-06
8.94265e-06
3.88212e-06
1.41176e-06
2.77474e-07
1.7073e-07
3.02255e-06
1.69328e-07
3.00792e-06
1.435e-06
3.86883e-06
8.94431e-06
8.94317e-06
3.88173e-06
5.22061e-06
5.21869e-06
4.54138e-07
5.22712e-06
5.22571e-06
1.83863e-05
1.83808e-05
1.83714e-05
1.83771e-05
4.61699e-07
5.23654e-06
5.23541e-06
5.23046e-06
5.22924e-06
1.83699e-05
1.8376e-05
1.3991e-06
1.66773e-07
2.98291e-06
2.73223e-07
1.3748e-06
1.68018e-07
2.99954e-06
3.86316e-06
8.93897e-06
3.8481e-06
8.94269e-06
3.86317e-06
8.939e-06
3.84788e-06
8.94282e-06
1.41178e-06
2.7739e-07
1.7076e-07
3.02293e-06
1.69344e-07
3.00769e-06
1.43545e-06
1.41176e-06
2.77429e-07
1.70754e-07
3.02337e-06
1.69345e-07
3.00835e-06
1.43538e-06
3.86863e-06
8.94662e-06
8.94326e-06
3.88289e-06
3.86866e-06
8.94641e-06
8.94352e-06
3.88281e-06
1.83864e-05
1.83807e-05
1.83878e-05
1.83828e-05
4.61796e-07
5.23466e-06
5.23667e-06
5.229e-06
5.2309e-06
1.83691e-05
1.83756e-05
1.83715e-05
1.83783e-05
1.83633e-05
1.83571e-05
1.83658e-05
1.836e-05
5.23812e-06
5.23979e-06
4.88616e-07
5.24343e-06
5.24532e-06
1.83486e-05
1.83527e-05
1.83512e-05
1.83556e-05
4.96577e-07
5.2523e-06
5.2541e-06
5.24643e-06
5.24837e-06
3.89805e-06
8.94498e-06
3.88647e-06
8.94931e-06
1.46954e-06
3.03066e-06
1.72214e-07
2.90691e-07
1.44715e-06
3.04448e-06
1.73805e-07
1.46965e-06
3.03102e-06
1.72233e-07
2.90813e-07
1.4471e-06
3.04543e-06
1.73826e-07
3.90244e-06
8.95333e-06
8.94889e-06
3.91197e-06
3.90254e-06
8.95174e-06
8.94949e-06
3.91162e-06
1.48118e-06
2.95326e-07
3.06586e-06
1.77246e-07
3.05212e-06
1.75464e-07
1.50276e-06
1.48126e-06
2.95453e-07
3.06599e-06
1.77275e-07
3.05292e-06
1.75505e-07
1.5027e-06
5.23931e-06
5.23813e-06
4.88861e-07
5.24524e-06
5.24366e-06
1.83642e-05
1.83584e-05
1.83504e-05
1.83557e-05
4.96824e-07
5.25355e-06
5.25205e-06
5.24823e-06
5.24656e-06
1.83489e-05
1.83538e-05
1.46972e-06
3.03117e-06
1.72214e-07
2.9061e-07
1.44709e-06
3.04506e-06
1.73804e-07
3.89844e-06
8.94647e-06
3.88674e-06
8.95127e-06
1.46987e-06
1.72215e-07
3.03112e-06
2.9074e-07
1.44708e-06
1.73803e-07
3.0455e-06
3.90255e-06
8.95456e-06
8.95065e-06
3.9126e-06
1.48149e-06
2.95268e-07
3.06644e-06
1.77257e-07
3.05273e-06
1.75502e-07
1.50296e-06
3.903e-06
8.95393e-06
8.95131e-06
3.91203e-06
1.48155e-06
2.95392e-07
1.77265e-07
3.06645e-06
1.75499e-07
3.05307e-06
1.50296e-06
3.89794e-06
8.94706e-06
3.88658e-06
8.94799e-06
1.46973e-06
1.7222e-07
3.03051e-06
2.90728e-07
1.44709e-06
1.73804e-07
3.0451e-06
3.89821e-06
8.94477e-06
3.88609e-06
8.95078e-06
1.48117e-06
2.95305e-07
3.06566e-06
1.77266e-07
3.05225e-06
1.75495e-07
1.50286e-06
3.90186e-06
8.95318e-06
8.94813e-06
3.91245e-06
1.48137e-06
2.9536e-07
1.77264e-07
3.0658e-06
1.75488e-07
3.0528e-06
1.50289e-06
3.90232e-06
8.9528e-06
8.95141e-06
3.91241e-06
5.23972e-06
5.23854e-06
4.88667e-07
5.24557e-06
5.24371e-06
1.83647e-05
1.83583e-05
1.83521e-05
1.83569e-05
4.96632e-07
5.25437e-06
5.25232e-06
5.24871e-06
5.24648e-06
1.83493e-05
1.83535e-05
1.4694e-06
1.7224e-07
3.03122e-06
2.90657e-07
1.44752e-06
1.73818e-07
3.04517e-06
3.89645e-06
8.94698e-06
3.88754e-06
8.94889e-06
3.89643e-06
8.9463e-06
3.88726e-06
8.94791e-06
1.48091e-06
2.95263e-07
1.77254e-07
3.06578e-06
1.755e-07
3.05212e-06
1.503e-06
1.48091e-06
2.95285e-07
1.77237e-07
3.06628e-06
1.75486e-07
3.05271e-06
1.5031e-06
3.9008e-06
8.95314e-06
8.94906e-06
3.91347e-06
3.9009e-06
8.95532e-06
8.94873e-06
3.9137e-06
1.83644e-05
1.836e-05
1.83662e-05
1.83609e-05
4.96728e-07
5.25215e-06
5.25394e-06
5.24722e-06
5.24842e-06
1.83492e-05
1.83555e-05
1.83518e-05
1.83567e-05
1.83444e-05
1.83394e-05
1.83468e-05
1.83414e-05
5.2552e-06
5.25699e-06
5.24768e-07
5.26006e-06
5.26159e-06
1.83308e-05
1.83352e-05
1.83331e-05
1.8337e-05
5.33172e-07
5.26751e-06
5.26868e-06
5.26269e-06
5.26398e-06
3.92451e-06
8.95253e-06
3.91587e-06
8.95663e-06
1.53439e-06
3.07301e-06
1.79081e-07
3.10025e-07
1.51399e-06
3.08557e-06
1.81036e-07
1.53436e-06
3.07317e-06
1.79111e-07
3.10039e-07
1.51391e-06
3.08596e-06
1.81035e-07
3.92814e-06
8.95834e-06
8.95647e-06
3.93444e-06
3.92824e-06
8.95716e-06
8.9565e-06
3.93422e-06
1.54493e-06
3.15183e-07
3.10437e-06
1.85134e-07
3.09241e-06
1.8303e-07
1.56396e-06
1.54486e-06
3.15076e-07
3.10433e-06
1.85102e-07
3.09271e-06
1.83031e-07
1.56385e-06
5.25648e-06
5.25497e-06
5.24591e-07
5.2616e-06
5.25983e-06
1.83445e-05
1.83389e-05
1.83323e-05
1.83366e-05
5.32951e-07
5.26866e-06
5.26735e-06
5.26413e-06
5.26229e-06
1.83311e-05
1.83345e-05
1.53424e-06
3.07357e-06
1.79097e-07
3.09898e-07
1.51404e-06
3.0859e-06
1.8101e-07
3.92417e-06
8.95456e-06
3.91628e-06
8.95646e-06
1.53433e-06
1.79112e-07
3.07372e-06
3.10042e-07
1.51406e-06
1.8103e-07
3.08612e-06
3.92731e-06
8.95883e-06
8.95587e-06
3.93411e-06
1.54457e-06
3.15065e-07
3.1044e-06
1.85104e-07
3.09255e-06
1.83021e-07
1.56352e-06
3.92764e-06
8.9568e-06
8.95615e-06
3.93352e-06
1.54456e-06
3.15163e-07
1.85111e-07
3.10431e-06
1.83034e-07
3.09269e-06
1.56338e-06
3.92441e-06
8.95417e-06
3.91632e-06
8.95632e-06
1.53429e-06
1.79125e-07
3.07283e-06
3.10051e-07
1.51399e-06
1.81052e-07
3.08535e-06
3.92399e-06
8.95273e-06
3.9159e-06
8.95506e-06
1.54477e-06
3.14945e-07
3.10406e-06
1.85112e-07
3.09193e-06
1.83049e-07
1.56386e-06
3.92735e-06
8.95824e-06
8.95618e-06
3.93453e-06
1.54469e-06
3.15145e-07
1.85111e-07
3.10444e-06
1.83045e-07
3.09219e-06
1.56391e-06
3.9271e-06
8.95976e-06
8.95577e-06
3.93485e-06
5.25719e-06
5.25548e-06
5.24758e-07
5.26162e-06
5.25979e-06
1.83452e-05
1.83396e-05
1.83336e-05
1.83373e-05
5.33172e-07
5.26858e-06
5.26824e-06
5.26393e-06
5.26214e-06
1.83334e-05
1.83356e-05
1.53422e-06
1.79088e-07
3.07357e-06
3.09921e-07
1.51451e-06
1.81011e-07
3.08609e-06
3.92327e-06
8.95387e-06
3.91767e-06
8.95575e-06
3.92328e-06
8.95569e-06
3.91772e-06
8.95666e-06
1.54434e-06
3.15006e-07
1.85127e-07
3.10469e-06
1.83032e-07
3.09193e-06
1.5642e-06
1.54433e-06
3.15064e-07
1.85123e-07
3.10488e-06
1.83028e-07
3.09273e-06
1.56416e-06
3.92604e-06
8.96021e-06
8.95579e-06
3.93602e-06
3.9261e-06
8.95974e-06
8.9566e-06
3.936e-06
1.83443e-05
1.834e-05
1.83472e-05
1.83421e-05
5.33218e-07
5.26753e-06
5.26923e-06
5.26248e-06
5.26408e-06
1.83326e-05
1.83363e-05
1.83345e-05
1.8338e-05
1.83267e-05
1.83233e-05
1.83295e-05
1.83267e-05
5.26993e-06
5.27143e-06
5.61943e-07
5.27432e-06
5.27653e-06
1.83176e-05
1.83199e-05
1.83193e-05
1.83231e-05
5.70422e-07
5.28168e-06
5.28314e-06
5.27693e-06
5.27915e-06
3.94374e-06
8.95736e-06
3.93718e-06
8.96262e-06
1.59197e-06
3.11061e-06
1.87282e-07
3.30979e-07
1.57373e-06
3.12143e-06
1.89557e-07
1.59209e-06
3.11067e-06
1.87268e-07
3.30956e-07
1.57365e-06
3.12218e-06
1.89542e-07
3.94726e-06
8.96725e-06
8.96063e-06
3.95426e-06
3.94754e-06
8.96627e-06
8.96364e-06
3.9543e-06
1.60189e-06
3.36385e-07
3.13867e-06
1.94341e-07
3.12751e-06
1.91878e-07
1.6202e-06
1.60205e-06
3.36468e-07
3.13947e-06
1.94361e-07
3.12844e-06
1.91904e-07
1.62025e-06
5.27129e-06
5.27034e-06
5.61867e-07
5.27633e-06
5.27453e-06
1.83277e-05
1.83237e-05
1.832e-05
1.83227e-05
5.70462e-07
5.28309e-06
5.28155e-06
5.27881e-06
5.27644e-06
1.83186e-05
1.83198e-05
1.59291e-06
3.11082e-06
1.87301e-07
3.30898e-07
1.5737e-06
3.12238e-06
1.89588e-07
3.94519e-06
8.95732e-06
3.93693e-06
8.96412e-06
1.59287e-06
1.8731e-07
3.1108e-06
3.31139e-07
1.57351e-06
1.89605e-07
3.12227e-06
3.94858e-06
8.96738e-06
8.96483e-06
3.95435e-06
1.60282e-06
3.36367e-07
3.13939e-06
1.94387e-07
3.12864e-06
1.91951e-07
1.62042e-06
3.94879e-06
8.96715e-06
8.96499e-06
3.95425e-06
1.6028e-06
3.36562e-07
1.944e-07
3.13943e-06
1.9197e-07
3.1285e-06
1.62044e-06
3.94497e-06
8.95901e-06
3.93782e-06
8.96306e-06
1.59247e-06
1.87259e-07
3.11104e-06
3.30985e-07
1.57397e-06
1.89502e-07
3.12166e-06
3.94464e-06
8.95983e-06
3.93806e-06
8.96088e-06
1.60202e-06
3.36271e-07
3.13872e-06
1.94258e-07
3.12773e-06
1.91837e-07
1.61942e-06
3.94755e-06
8.96567e-06
8.96308e-06
3.95315e-06
1.60191e-06
3.36443e-07
1.94294e-07
3.13871e-06
1.91849e-07
3.12738e-06
1.61954e-06
3.94714e-06
8.96723e-06
8.96125e-06
3.95321e-06
5.27144e-06
5.2714e-06
5.62011e-07
5.27654e-06
5.2751e-06
1.83299e-05
1.83247e-05
1.83201e-05
1.83237e-05
5.7049e-07
5.28326e-06
5.28098e-06
5.27902e-06
5.27691e-06
1.83173e-05
1.83201e-05
1.5928e-06
1.87292e-07
3.11157e-06
3.30906e-07
1.57469e-06
1.89537e-07
3.12243e-06
3.94489e-06
8.96116e-06
3.94e-06
8.96315e-06
3.94461e-06
8.9605e-06
3.93982e-06
8.96265e-06
1.60197e-06
3.36339e-07
1.94283e-07
3.13845e-06
1.91876e-07
3.12794e-06
1.61908e-06
1.60182e-06
3.36384e-07
1.94269e-07
3.13872e-06
1.91861e-07
3.12802e-06
1.61913e-06
3.94669e-06
8.96534e-06
8.96299e-06
3.95259e-06
3.94649e-06
8.96633e-06
8.96265e-06
3.95282e-06
1.83287e-05
1.83241e-05
1.8331e-05
1.83264e-05
5.7055e-07
5.28139e-06
5.28209e-06
5.27628e-06
5.27827e-06
1.83187e-05
1.83202e-05
1.83193e-05
1.8322e-05
1.83142e-05
1.83114e-05
1.83155e-05
1.83127e-05
5.284e-06
5.28514e-06
5.99232e-07
5.28814e-06
5.28895e-06
1.83081e-05
1.83097e-05
6.07919e-07
5.2908e-06
5.29154e-06
3.96048e-06
8.96615e-06
3.95686e-06
8.96696e-06
1.64559e-06
3.14474e-06
1.9689e-07
3.53652e-07
1.62941e-06
3.15527e-06
1.99576e-07
1.64536e-06
3.14555e-06
1.96916e-07
3.537e-07
1.62934e-06
3.15579e-06
1.99576e-07
3.96295e-06
8.96833e-06
3.96595e-06
3.96244e-06
8.96916e-06
8.96695e-06
3.9661e-06
1.65402e-06
3.59495e-07
2.05032e-07
3.16086e-06
2.0229e-07
1.66921e-06
1.65378e-06
3.59426e-07
3.16916e-06
2.05019e-07
3.16099e-06
2.02287e-07
1.66925e-06
5.28607e-06
5.28534e-06
5.99218e-07
5.29099e-06
5.29019e-06
1.83163e-05
1.83141e-05
1.83017e-05
1.83097e-05
6.07761e-07
5.29384e-06
5.29269e-06
5.29261e-06
5.29167e-06
1.83005e-05
1.8309e-05
1.6449e-06
3.14511e-06
1.96906e-07
3.53425e-07
1.62936e-06
3.15505e-06
1.99495e-07
3.95942e-06
8.96699e-06
3.95649e-06
8.96749e-06
1.64489e-06
1.96915e-07
3.14534e-06
3.53503e-07
1.62934e-06
1.99498e-07
3.15489e-06
3.96137e-06
8.96782e-06
1.65309e-06
3.59334e-07
3.16057e-06
2.02196e-07
3.96132e-06
8.96742e-06
1.65307e-06
3.59405e-07
2.02214e-07
3.16012e-06
3.96281e-06
8.96662e-06
3.95629e-06
8.97067e-06
1.64616e-06
1.96847e-07
3.14527e-06
3.53573e-07
1.62895e-06
1.99496e-07
3.15585e-06
3.96273e-06
8.96811e-06
3.95657e-06
8.96966e-06
1.65461e-06
3.59153e-07
3.16917e-06
2.0488e-07
3.16134e-06
2.02159e-07
1.66917e-06
3.96471e-06
8.97041e-06
8.97042e-06
3.96663e-06
1.65448e-06
3.5934e-07
2.04905e-07
3.16923e-06
2.02185e-07
3.16099e-06
1.66886e-06
3.9644e-06
8.96872e-06
8.96914e-06
3.96601e-06
5.28564e-06
5.28387e-06
5.99082e-07
5.289e-06
5.2884e-06
1.83143e-05
1.83121e-05
1.83093e-05
6.07799e-07
5.29073e-06
5.29046e-06
1.83086e-05
1.64571e-06
1.96783e-07
3.14506e-06
3.5335e-07
1.62869e-06
1.99428e-07
3.1558e-06
3.96199e-06
8.96627e-06
3.95622e-06
8.97013e-06
3.96183e-06
8.9673e-06
3.95639e-06
8.97037e-06
1.65418e-06
3.59173e-07
2.04949e-07
2.02143e-07
3.16043e-06
1.66932e-06
1.65417e-06
3.59287e-07
2.05012e-07
3.17044e-06
2.02174e-07
3.16129e-06
1.6694e-06
3.96381e-06
8.97005e-06
3.96676e-06
3.9636e-06
8.97145e-06
8.97032e-06
3.96662e-06
1.83161e-05
1.83132e-05
1.83165e-05
1.83151e-05
6.07902e-07
5.29308e-06
5.29594e-06
5.29076e-06
5.29264e-06
1.8303e-05
1.83087e-05
1.83071e-05
1.83117e-05
1.84373e-05
1.84313e-05
9.72489e-06
2.1863e-05
2.18628e-05
2.18667e-05
2.18666e-05
9.72234e-06
4.02282e-06
2.00854e-06
5.16921e-06
9.06187e-06
2.01744e-06
9.06779e-06
4.01755e-06
4.02999e-06
2.00996e-06
5.17059e-06
9.06662e-06
9.07244e-06
4.02446e-06
2.01909e-06
4.03191e-06
9.07366e-06
5.17438e-06
2.03665e-06
2.02817e-06
9.06968e-06
4.0359e-06
4.03897e-06
9.07868e-06
5.17582e-06
2.03842e-06
9.07446e-06
4.04307e-06
2.02967e-06
9.72469e-06
2.1874e-05
2.18739e-05
2.18747e-05
2.18745e-05
9.72346e-06
1.21473e-05
3.81105e-06
1.07112e-05
4.57993e-06
1.07079e-05
4.57461e-06
1.2149e-05
2.23525e-05
7.21291e-06
8.93072e-06
7.21215e-06
2.23535e-05
1.21474e-05
3.80423e-06
1.07039e-05
4.56636e-06
1.07068e-05
4.57168e-06
1.21461e-05
2.23433e-05
7.21055e-06
8.93122e-06
7.21127e-06
2.23426e-05
1.84108e-05
1.84052e-05
1.21485e-05
3.81136e-06
4.58105e-06
1.0712e-05
4.57541e-06
1.07086e-05
1.21505e-05
2.23542e-05
7.21374e-06
8.93231e-06
7.21311e-06
2.23552e-05
1.21483e-05
3.8048e-06
4.56644e-06
1.07042e-05
4.57231e-06
1.07074e-05
1.21464e-05
2.23455e-05
7.21178e-06
8.93291e-06
7.21223e-06
2.23452e-05
1.84118e-05
1.84062e-05
9.72802e-06
2.18365e-05
2.18359e-05
2.1839e-05
2.18386e-05
9.72566e-06
4.07594e-06
2.0835e-06
9.08711e-06
5.19679e-06
4.07119e-06
2.09191e-06
9.09251e-06
4.08302e-06
2.08501e-06
9.09223e-06
5.1985e-06
4.07804e-06
2.09366e-06
9.09744e-06
9.72698e-06
2.18417e-05
2.18414e-05
9.72481e-06
2.18443e-05
2.18437e-05
4.08458e-06
9.09904e-06
5.20135e-06
2.10957e-06
2.10146e-06
9.09463e-06
4.08812e-06
4.09144e-06
9.10397e-06
5.20293e-06
2.11134e-06
2.10296e-06
9.09953e-06
4.09514e-06
1.21546e-05
3.85947e-06
1.07279e-05
4.60935e-06
1.07256e-05
4.60584e-06
1.21554e-05
2.2317e-05
7.20877e-06
8.94087e-06
2.23189e-05
7.20733e-06
1.21552e-05
3.85378e-06
1.07223e-05
4.59975e-06
1.21542e-05
1.07249e-05
4.60382e-06
2.23059e-05
7.20355e-06
8.94104e-06
7.2056e-06
2.23038e-05
1.83871e-05
1.83818e-05
1.21548e-05
3.85909e-06
4.60949e-06
1.07279e-05
4.60569e-06
1.07257e-05
1.21557e-05
2.23169e-05
7.20834e-06
8.94168e-06
2.23184e-05
7.20698e-06
1.21552e-05
3.8541e-06
4.59955e-06
1.07226e-05
1.21542e-05
4.60363e-06
1.0725e-05
2.23074e-05
7.20435e-06
8.94204e-06
7.20547e-06
2.23065e-05
1.83882e-05
1.83827e-05
9.71732e-06
2.18e-05
2.17995e-05
2.17981e-05
2.17978e-05
9.71824e-06
4.11845e-06
2.15071e-06
9.10817e-06
5.22034e-06
4.114e-06
2.15863e-06
9.11263e-06
4.12539e-06
2.15204e-06
9.11278e-06
5.22165e-06
4.12077e-06
2.16024e-06
9.11718e-06
9.71296e-06
2.17983e-05
2.17978e-05
9.71243e-06
2.18006e-05
2.18001e-05
4.12696e-06
9.12005e-06
5.22406e-06
2.17513e-06
2.16725e-06
9.11495e-06
4.13083e-06
4.13367e-06
9.12502e-06
5.22548e-06
2.17683e-06
2.16863e-06
9.1196e-06
4.13777e-06
1.21565e-05
3.89485e-06
1.07397e-05
4.63e-06
1.07376e-05
4.62704e-06
1.21574e-05
2.22745e-05
7.19668e-06
8.94672e-06
2.22753e-05
7.19527e-06
1.21569e-05
3.89e-06
1.07346e-05
4.62208e-06
1.21559e-05
1.07369e-05
4.62537e-06
2.22658e-05
7.19247e-06
8.94705e-06
7.19387e-06
2.22653e-05
1.83653e-05
1.83609e-05
1.2157e-05
3.8947e-06
4.63021e-06
1.07404e-05
4.62696e-06
1.0738e-05
1.21581e-05
2.22748e-05
7.19662e-06
8.94741e-06
2.22756e-05
7.19517e-06
1.21573e-05
3.89038e-06
4.62214e-06
1.07348e-05
1.21563e-05
4.62523e-06
1.07373e-05
2.22671e-05
7.19346e-06
8.94788e-06
7.19398e-06
2.22675e-05
1.83663e-05
1.83616e-05
9.70438e-06
2.17537e-05
2.1753e-05
2.17544e-05
2.17539e-05
9.70255e-06
4.15601e-06
2.21218e-06
9.12876e-06
5.23921e-06
4.15349e-06
2.21924e-06
9.1316e-06
4.16289e-06
2.21362e-06
9.1339e-06
5.2409e-06
4.16031e-06
2.22088e-06
9.1364e-06
9.70462e-06
2.17636e-05
2.1763e-05
9.70802e-06
2.1762e-05
2.17612e-05
4.16219e-06
9.1369e-06
5.24255e-06
2.2336e-06
2.22651e-06
9.13309e-06
4.165e-06
4.16891e-06
9.14137e-06
5.24396e-06
2.23516e-06
2.22784e-06
9.13775e-06
4.17184e-06
1.21579e-05
3.92249e-06
1.07488e-05
4.64567e-06
1.07475e-05
4.6437e-06
1.21581e-05
2.22403e-05
7.18746e-06
8.95487e-06
2.22418e-05
7.18545e-06
1.21588e-05
3.91847e-06
1.07454e-05
4.64022e-06
1.21581e-05
1.07473e-05
4.64252e-06
2.22305e-05
7.18192e-06
8.95509e-06
7.18405e-06
2.22292e-05
1.83459e-05
1.83416e-05
1.21569e-05
3.92198e-06
4.64471e-06
1.0748e-05
4.64306e-06
1.07471e-05
1.2157e-05
2.2236e-05
7.18691e-06
8.95499e-06
2.22381e-05
7.18445e-06
1.21582e-05
3.91869e-06
4.64029e-06
1.07457e-05
1.2158e-05
4.6421e-06
1.07471e-05
2.22258e-05
7.18026e-06
8.95498e-06
7.18254e-06
2.22245e-05
1.83473e-05
1.83425e-05
9.69393e-06
2.17276e-05
2.17271e-05
2.17232e-05
2.17229e-05
9.69652e-06
4.18917e-06
2.26736e-06
9.14588e-06
5.2558e-06
4.18644e-06
2.27423e-06
9.14918e-06
4.19615e-06
2.26882e-06
9.15114e-06
5.25786e-06
4.19328e-06
2.27594e-06
9.15445e-06
9.69229e-06
2.17246e-05
2.17242e-05
9.69355e-06
2.17259e-05
2.17253e-05
4.1957e-06
9.15536e-06
5.25851e-06
2.2878e-06
2.28097e-06
9.15096e-06
4.19895e-06
4.20252e-06
9.16038e-06
5.26048e-06
2.28946e-06
2.2824e-06
9.15615e-06
4.20598e-06
1.2154e-05
3.94197e-06
1.07521e-05
4.65562e-06
1.07506e-05
4.65396e-06
1.21547e-05
2.21977e-05
7.17221e-06
8.95866e-06
2.21983e-05
7.16987e-06
1.21548e-05
3.93884e-06
1.07498e-05
4.65178e-06
1.21546e-05
1.07505e-05
4.65307e-06
2.21908e-05
7.16688e-06
8.95874e-06
7.16825e-06
2.21917e-05
1.83292e-05
1.83258e-05
1.2156e-05
3.94282e-06
4.65746e-06
1.07548e-05
4.65509e-06
1.07526e-05
1.21571e-05
2.22034e-05
7.17301e-06
8.96111e-06
2.22026e-05
7.1721e-06
1.21563e-05
3.9395e-06
4.6515e-06
1.075e-05
1.21553e-05
4.65368e-06
1.0752e-05
2.21973e-05
7.17077e-06
8.96189e-06
7.17158e-06
2.2198e-05
1.83306e-05
1.83271e-05
9.69801e-06
2.16995e-05
2.16986e-05
2.17029e-05
2.17023e-05
9.69285e-06
4.22426e-06
2.31936e-06
9.16806e-06
5.27128e-06
4.22231e-06
2.32556e-06
9.17098e-06
4.23107e-06
2.32082e-06
9.17327e-06
5.27333e-06
4.22904e-06
2.32729e-06
9.1763e-06
9.69972e-06
2.17181e-05
2.17178e-05
9.7032e-06
2.17149e-05
2.17143e-05
4.22875e-06
9.17339e-06
5.27359e-06
2.33705e-06
2.33122e-06
9.17168e-06
4.23021e-06
4.23544e-06
9.17872e-06
5.27576e-06
2.33879e-06
2.3327e-06
9.17703e-06
4.23697e-06
1.21544e-05
3.9603e-06
1.07565e-05
4.66564e-06
1.07563e-05
4.66524e-06
1.21539e-05
2.21735e-05
7.16473e-06
8.96852e-06
2.21759e-05
7.16179e-06
1.21559e-05
3.95801e-06
1.07565e-05
4.66374e-06
1.21558e-05
1.07569e-05
4.66475e-06
2.21618e-05
7.15681e-06
8.96834e-06
7.16002e-06
2.21593e-05
1.83178e-05
1.83146e-05
1.21514e-05
3.95897e-06
4.66366e-06
1.07549e-05
4.66344e-06
1.07549e-05
1.2151e-05
2.21667e-05
7.16244e-06
8.9676e-06
2.21685e-05
7.15956e-06
1.21539e-05
3.95722e-06
4.6629e-06
1.07556e-05
1.21545e-05
4.66322e-06
1.07557e-05
2.21569e-05
7.15508e-06
8.96739e-06
7.15765e-06
2.2156e-05
1.83167e-05
1.8313e-05
9.70222e-06
2.16903e-05
2.16901e-05
2.16898e-05
2.16896e-05
9.70165e-06
4.25276e-06
2.36534e-06
9.18291e-06
5.28607e-06
4.2494e-06
2.37156e-06
9.18841e-06
4.25935e-06
2.36623e-06
9.18642e-06
5.28643e-06
4.25578e-06
2.37284e-06
9.19176e-06
9.69908e-06
2.16871e-05
2.16863e-05
9.69555e-06
2.16921e-05
2.16915e-05
4.25867e-06
9.19388e-06
5.28853e-06
2.38293e-06
2.37717e-06
9.19034e-06
4.26097e-06
4.26515e-06
9.19843e-06
5.2894e-06
2.38445e-06
2.37809e-06
9.19406e-06
4.26762e-06
9.72024e-06
2.18527e-05
2.1853e-05
2.18563e-05
2.18567e-05
9.71603e-06
4.02896e-06
2.01001e-06
5.1703e-06
9.06755e-06
9.07149e-06
4.0242e-06
2.01885e-06
4.02229e-06
2.00831e-06
5.16874e-06
9.06286e-06
2.01732e-06
9.06679e-06
4.01708e-06
4.03646e-06
9.07636e-06
5.17549e-06
2.03761e-06
9.07289e-06
4.04112e-06
2.02888e-06
4.02944e-06
9.07179e-06
5.17392e-06
2.03612e-06
2.02724e-06
9.06823e-06
4.03449e-06
9.72207e-06
2.18752e-05
2.18754e-05
2.18705e-05
2.18707e-05
9.72638e-06
1.84356e-05
1.84298e-05
1.8418e-05
1.84236e-05
9.71348e-06
2.18421e-05
2.18424e-05
9.71492e-06
2.18418e-05
2.1842e-05
4.06248e-06
2.07516e-06
5.18975e-06
9.08958e-06
9.08435e-06
4.06847e-06
2.0662e-06
4.05535e-06
2.07358e-06
5.18813e-06
9.08486e-06
9.07969e-06
2.06451e-06
4.06174e-06
4.0541e-06
9.07796e-06
2.04749e-06
5.18503e-06
4.04876e-06
9.08218e-06
2.0564e-06
4.04737e-06
9.07339e-06
2.04585e-06
5.1835e-06
4.04172e-06
9.07756e-06
2.05485e-06
9.7146e-06
2.18402e-05
2.18405e-05
2.18374e-05
2.18378e-05
9.71744e-06
1.84163e-05
1.84221e-05
1.21398e-05
4.54255e-06
1.06932e-05
3.75071e-06
4.53598e-06
1.06897e-05
1.21422e-05
2.23931e-05
8.92157e-06
7.21507e-06
7.21498e-06
2.23932e-05
2.23849e-05
7.21567e-06
8.92244e-06
7.21562e-06
2.23849e-05
1.21392e-05
3.74215e-06
4.52334e-06
1.06836e-05
4.53061e-06
1.06882e-05
1.21362e-05
1.21411e-05
1.0693e-05
4.54298e-06
3.751e-06
1.06897e-05
4.53646e-06
1.21426e-05
2.23965e-05
8.92237e-06
7.21406e-06