/*--------------------------------*- C++ -*----------------------------------*\
| =========                 |                                                 |
| \\      /  F ield         | OpenFOAM: The Open Source CFD Toolbox           |
|  \\    /   O peration     | Version:  v2006                                 |
|   \\  /    A nd           | Website:  www.openfoam.com                      |
|    \\/     M anipulation  |                                                 |
\*---------------------------------------------------------------------------*/
FoamFile
{
    version     2.0;
    format      ascii;
    class       volScalarField;
    location    "1000";
    object      k;
}
// * * * * * * * * * * * * * * * * * * * * * * * * * * * * * * * * * * * * * //

dimensions      [0 2 -2 0 0 0 0];


internalField   nonuniform List<scalar> 
171728
(
1.62931e-05
1.87233e-05
1.4338e-05
1.65113e-05
1.65195e-05
1.94228e-05
1.41065e-05
1.68359e-05
1.68333e-05
2.02164e-05
1.39205e-05
1.72254e-05
1.72218e-05
2.10671e-05
1.37803e-05
1.7689e-05
1.76975e-05
2.19728e-05
1.36941e-05
1.82758e-05
1.82809e-05
2.30295e-05
1.36483e-05
1.89434e-05
1.89267e-05
2.4101e-05
1.87325e-05
1.9251e-05
1.62903e-05
1.64462e-05
1.64516e-05
1.92694e-05
1.94321e-05
2.00527e-05
1.65227e-05
1.65123e-05
1.67491e-05
1.67482e-05
1.93999e-05
2.0048e-05
1.65195e-05
1.65196e-05
1.67502e-05
1.67514e-05
1.65194e-05
1.67483e-05
1.67482e-05
1.94266e-05
2.00556e-05
1.65209e-05
1.6751e-05
1.67486e-05
2.00516e-05
2.02174e-05
2.08758e-05
1.68314e-05
1.68366e-05
1.71192e-05
1.71222e-05
2.02222e-05
2.08936e-05
1.68331e-05
1.68347e-05
1.71221e-05
1.71165e-05
1.68346e-05
1.71213e-05
1.71181e-05
2.02184e-05
2.08729e-05
1.68333e-05
1.71149e-05
1.71188e-05
2.08832e-05
2.10606e-05
2.17692e-05
1.72241e-05
1.72263e-05
1.75657e-05
1.75673e-05
2.1073e-05
2.17723e-05
1.72253e-05
1.72221e-05
1.75664e-05
1.75705e-05
1.72244e-05
1.75662e-05
1.75718e-05
2.10546e-05
2.17789e-05
1.72251e-05
1.75688e-05
1.757e-05
2.17767e-05
2.19711e-05
2.27963e-05
1.76958e-05
1.76916e-05
1.81205e-05
1.81136e-05
2.19638e-05
2.27766e-05
1.76971e-05
1.77022e-05
1.81136e-05
1.81267e-05
1.76932e-05
1.81084e-05
1.81206e-05
2.19804e-05
2.28049e-05
1.76932e-05
1.81229e-05
1.8122e-05
2.27987e-05
2.30223e-05
2.38716e-05
1.82833e-05
1.82773e-05
1.87544e-05
1.8773e-05
2.30139e-05
2.39252e-05
1.82737e-05
1.82776e-05
1.87567e-05
1.8756e-05
1.82832e-05
1.87708e-05
1.87554e-05
2.30316e-05
2.38668e-05
1.82849e-05
1.87625e-05
1.87574e-05
2.38847e-05
2.40945e-05
1.89174e-05
1.89452e-05
1.94642e-05
2.41472e-05
2.49633e-05
1.89221e-05
1.89259e-05
1.89254e-05
1.94715e-05
1.94684e-05
2.40848e-05
1.89228e-05
1.94582e-05
2.49674e-05
6.95568e-05
6.95369e-05
3.1108e-05
4.64316e-05
1.47403e-05
1.63405e-05
4.68338e-05
1.47067e-05
3.05218e-05
5.96646e-05
5.9673e-05
1.88851e-05
5.9937e-05
5.99406e-05
5.59213e-05
7.01449e-05
5.55382e-05
7.01631e-05
6.94898e-05
6.94717e-05
5.59327e-05
7.01473e-05
5.55227e-05
7.01687e-05
1.45208e-05
1.42531e-05
1.45207e-05
1.41609e-05
1.41604e-05
1.41612e-05
1.41605e-05
3.27791e-05
4.75326e-05
1.46362e-05
1.65827e-05
3.22003e-05
4.79267e-05
1.46196e-05
6.94897e-05
6.94718e-05
3.27738e-05
1.46374e-05
3.04518e-05
1.65951e-05
2.11862e-05
1.46215e-05
4.79376e-05
6.0247e-05
6.02635e-05
1.96529e-05
6.0494e-05
6.0499e-05
5.68862e-05
7.01977e-05
5.65309e-05
7.02105e-05
6.94297e-05
6.94129e-05
5.68846e-05
7.01993e-05
5.65475e-05
7.02143e-05
1.41074e-05
1.41073e-05
1.41074e-05
1.39629e-05
1.39629e-05
1.39618e-05
1.39621e-05
3.43954e-05
4.85732e-05
1.46043e-05
1.69278e-05
3.38415e-05
4.89208e-05
1.46068e-05
6.94299e-05
6.94128e-05
3.43774e-05
1.46037e-05
4.85615e-05
1.69214e-05
3.38403e-05
1.46056e-05
4.8919e-05
6.07796e-05
6.07819e-05
2.04518e-05
6.09885e-05
6.0989e-05
5.76353e-05
7.02298e-05
5.73167e-05
7.02446e-05
6.93737e-05
6.9361e-05
5.76364e-05
7.02314e-05
5.7319e-05
7.02472e-05
1.39205e-05
1.392e-05
1.39207e-05
1.38097e-05
1.38095e-05
1.38105e-05
1.38112e-05
3.59122e-05
4.95029e-05
1.46373e-05
1.7337e-05
3.53813e-05
4.98297e-05
1.46564e-05
6.93738e-05
6.93604e-05
3.59104e-05
1.4637e-05
4.95073e-05
1.73329e-05
3.54068e-05
1.46565e-05
4.98219e-05
6.12385e-05
6.1257e-05
2.13238e-05
6.1426e-05
6.14259e-05
5.83045e-05
7.02731e-05
5.80323e-05
7.02856e-05
6.93247e-05
6.93124e-05
5.82929e-05
7.02725e-05
5.80451e-05
7.02784e-05
1.37787e-05
1.37812e-05
1.37797e-05
1.37075e-05
1.37065e-05
1.37106e-05
1.37101e-05
3.73701e-05
5.03385e-05
1.47397e-05
1.78191e-05
3.68391e-05
5.06469e-05
1.47775e-05
6.93261e-05
6.93117e-05
3.73803e-05
1.47429e-05
5.03495e-05
1.78298e-05
3.68589e-05
1.47807e-05
5.06387e-05
6.16553e-05
6.16702e-05
2.22605e-05
6.1811e-05
6.18255e-05
5.87854e-05
7.02966e-05
5.86112e-05
7.03046e-05
6.92811e-05
6.92745e-05
5.88431e-05
7.02978e-05
5.8561e-05
7.03223e-05
1.36944e-05
1.36929e-05
1.36947e-05
1.36579e-05
1.36613e-05
1.36596e-05
1.36585e-05
3.86966e-05
5.11275e-05
1.49206e-05
1.84446e-05
3.81677e-05
5.14432e-05
1.49785e-05
6.92818e-05
6.92749e-05
3.87561e-05
1.49234e-05
5.11585e-05
1.84417e-05
3.81942e-05
1.4982e-05
5.14576e-05
6.20617e-05
6.20739e-05
2.33572e-05
6.22161e-05
6.22358e-05
5.93913e-05
7.0346e-05
5.9213e-05
7.03514e-05
6.92516e-05
6.92451e-05
5.93378e-05
7.0339e-05
5.92165e-05
7.03421e-05
1.36557e-05
1.36525e-05
1.36522e-05
1.36536e-05
1.36508e-05
4.0005e-05
5.18745e-05
1.51736e-05
1.91204e-05
3.94532e-05
5.22258e-05
1.52503e-05
6.92476e-05
6.92386e-05
3.99836e-05
1.51741e-05
5.18642e-05
1.90902e-05
3.94374e-05
1.52438e-05
5.21654e-05
6.24321e-05
6.24049e-05
2.44043e-05
6.26229e-05
6.26111e-05
5.96792e-05
5.96718e-05
1.88914e-05
5.99344e-05
5.99268e-05
6.95546e-05
6.95354e-05
6.95039e-05
6.9522e-05
1.90809e-05
6.02169e-05
6.02058e-05
5.99794e-05
5.99727e-05
6.95018e-05
6.95206e-05
5.48853e-05
7.00921e-05
7.01185e-05
5.43203e-05
3.11158e-05
1.47397e-05
4.64164e-05
1.63377e-05
1.47062e-05
4.6842e-05
3.05174e-05
5.4898e-05
7.00896e-05
7.01225e-05
5.43255e-05
3.1384e-05
1.63893e-05
4.73836e-05
1.46539e-05
4.69919e-05
1.46794e-05
3.19359e-05
5.49775e-05
7.01458e-05
7.01231e-05
5.54096e-05
3.13886e-05
1.63922e-05
1.46545e-05
4.73823e-05
1.46793e-05
4.70049e-05
3.19292e-05
5.49847e-05
7.01364e-05
7.01252e-05
5.53827e-05
6.95558e-05
6.95366e-05
6.95571e-05
6.95388e-05
1.90886e-05
6.02005e-05
6.02202e-05
5.99814e-05
5.99893e-05
6.95008e-05
6.95207e-05
6.95038e-05
6.95238e-05
6.94868e-05
6.94696e-05
6.94891e-05
6.94725e-05
6.02571e-05
6.02603e-05
1.96594e-05
6.0485e-05
6.04978e-05
6.94408e-05
6.94565e-05
6.9443e-05
6.94593e-05
1.98212e-05
6.07488e-05
6.07594e-05
6.0529e-05
6.05426e-05
5.59461e-05
7.01461e-05
5.55249e-05
7.01658e-05
3.27581e-05
3.04558e-05
1.46383e-05
1.65929e-05
2.11921e-05
4.7923e-05
1.46209e-05
3.27664e-05
3.04313e-05
1.46362e-05
1.6583e-05
2.11799e-05
4.79295e-05
1.46192e-05
5.6001e-05
7.0194e-05
7.01665e-05
5.64492e-05
5.60241e-05
7.01877e-05
7.01683e-05
5.64322e-05
3.30145e-05
1.66704e-05
4.84383e-05
1.4603e-05
4.80608e-05
1.46114e-05
3.35822e-05
3.30235e-05
1.66623e-05
4.84395e-05
1.46032e-05
4.8068e-05
1.46103e-05
3.35817e-05
6.02639e-05
6.0252e-05
1.96304e-05
6.04921e-05
6.04903e-05
6.94878e-05
6.94711e-05
6.94425e-05
6.94582e-05
1.97986e-05
6.07549e-05
6.07508e-05
6.05341e-05
6.05347e-05
6.94402e-05
6.94577e-05
3.27557e-05
3.04505e-05
1.46356e-05
1.65909e-05
2.1173e-05
4.79261e-05
1.46192e-05
5.59235e-05
7.01458e-05
5.5539e-05
7.0162e-05
3.2758e-05
1.46362e-05
2.45663e-05
1.65945e-05
2.11796e-05
1.46196e-05
4.79295e-05
5.60182e-05
7.01973e-05
7.01729e-05
5.64706e-05
3.30183e-05
1.66693e-05
4.84504e-05
1.46044e-05
4.80702e-05
1.46104e-05
3.36062e-05
5.60027e-05
7.01928e-05
7.01653e-05
5.64677e-05
3.30125e-05
1.66704e-05
1.46041e-05
4.8439e-05
1.46109e-05
4.80686e-05
3.35997e-05
5.59725e-05
7.01483e-05
5.55016e-05
7.01691e-05
3.27879e-05
1.4637e-05
4.75337e-05
1.65909e-05
3.21935e-05
1.46203e-05
4.79343e-05
5.59866e-05
7.01395e-05
5.54903e-05
7.01689e-05
3.3038e-05
1.66622e-05
4.8446e-05
1.46041e-05
4.80716e-05
1.46111e-05
3.35958e-05
5.60538e-05
7.01928e-05
7.0173e-05
5.64377e-05
3.30447e-05
1.66698e-05
1.46045e-05
4.84309e-05
1.46118e-05
4.80806e-05
3.35906e-05
5.60647e-05
7.01858e-05
7.01726e-05
5.64188e-05
6.02697e-05
6.02628e-05
1.96623e-05
6.04937e-05
6.05009e-05
6.94892e-05
6.94719e-05
6.94434e-05
6.94588e-05
1.98262e-05
6.07575e-05
6.07428e-05
6.05363e-05
6.0542e-05
6.94402e-05
6.9458e-05
3.27771e-05
1.46386e-05
3.04539e-05
1.65931e-05
2.11926e-05
1.46224e-05
4.794e-05
5.5966e-05
7.01466e-05
5.55097e-05
7.01681e-05
5.59655e-05
7.01459e-05
5.55124e-05
7.01671e-05
3.3042e-05
1.66706e-05
1.46045e-05
4.84337e-05
1.4613e-05
4.8078e-05
3.35905e-05
3.30447e-05
1.66717e-05
1.46049e-05
4.84348e-05
1.46138e-05
4.80845e-05
3.35937e-05
5.60538e-05
7.01902e-05
7.01721e-05
5.6437e-05
5.60568e-05
7.01871e-05
7.017e-05
5.64394e-05
6.94871e-05
6.94713e-05
6.94895e-05
6.94729e-05
1.9817e-05
6.07411e-05
6.0747e-05
6.05379e-05
6.05457e-05
6.94397e-05
6.94576e-05
6.94408e-05
6.94594e-05
6.94279e-05
6.94119e-05
6.94297e-05
6.94138e-05
6.0788e-05
6.0798e-05
2.04504e-05
6.09857e-05
6.09936e-05
6.93845e-05
6.93994e-05
6.93864e-05
6.94014e-05
2.06225e-05
6.12226e-05
6.12262e-05
6.10246e-05
6.10316e-05
5.68886e-05
7.01914e-05
5.65136e-05
7.02106e-05
3.43963e-05
4.85649e-05
1.46029e-05
1.6921e-05
3.38423e-05
4.89192e-05
1.46052e-05
3.43993e-05
4.85726e-05
1.46035e-05
1.69294e-05
3.38366e-05
4.89355e-05
1.4606e-05
5.69459e-05
7.02275e-05
7.02115e-05
5.72533e-05
5.69497e-05
7.0221e-05
7.0211e-05
5.72463e-05
3.46308e-05
1.70169e-05
4.94017e-05
1.46219e-05
4.90407e-05
1.46107e-05
3.51525e-05
3.46325e-05
1.70253e-05
4.93782e-05
1.46223e-05
4.90487e-05
1.46121e-05
3.51472e-05
6.07975e-05
6.07895e-05
2.04697e-05
6.10003e-05
6.09854e-05
6.94266e-05
6.94112e-05
6.93848e-05
6.93995e-05
2.0646e-05
6.12071e-05
6.12122e-05
6.10342e-05
6.10225e-05
6.9385e-05
6.93992e-05
3.44089e-05
4.85768e-05
1.46049e-05
1.69243e-05
3.3864e-05
4.8929e-05
1.46079e-05
5.68845e-05
7.01962e-05
5.65535e-05
7.02044e-05
3.44085e-05
1.46044e-05
4.85716e-05
1.69239e-05
3.38594e-05
1.46069e-05
4.89307e-05
5.69441e-05
7.02311e-05
7.0217e-05
5.72569e-05
3.46409e-05
1.70204e-05
4.94059e-05
1.46254e-05
4.90509e-05
1.46146e-05
3.51659e-05
5.6938e-05
7.02217e-05
7.0204e-05
5.72336e-05
3.4632e-05
1.70186e-05
1.46225e-05
4.93774e-05
1.46127e-05
4.90481e-05
3.51474e-05
5.68786e-05
7.01944e-05
5.65108e-05
7.02091e-05
3.4399e-05
1.46045e-05
4.85564e-05
1.69238e-05
3.38326e-05
1.46065e-05
4.89283e-05
5.68878e-05
7.01882e-05
5.64931e-05
7.02117e-05
3.46244e-05
1.70245e-05
4.93891e-05
1.46227e-05
4.90381e-05
1.46126e-05
3.51578e-05
5.69432e-05
7.02343e-05
7.02123e-05
5.72622e-05
3.46294e-05
1.7018e-05
1.46217e-05
4.93778e-05
1.46117e-05
4.90548e-05
3.51526e-05
5.69533e-05
7.02191e-05
7.02132e-05
5.72528e-05
6.07977e-05
6.07817e-05
2.04505e-05
6.09923e-05
6.09874e-05
6.94271e-05
6.94132e-05
6.93858e-05
6.94001e-05
2.06232e-05
6.12169e-05
6.12211e-05
6.10291e-05
6.10268e-05
6.93859e-05
6.94013e-05
3.43723e-05
1.46038e-05
4.85535e-05
1.69217e-05
3.38386e-05
1.46056e-05
4.89167e-05
5.68543e-05
7.01921e-05
5.65064e-05
7.02115e-05
5.68459e-05
7.01893e-05
5.65053e-05
7.02092e-05
3.46101e-05
1.7016e-05
1.4621e-05
4.93917e-05
1.46107e-05
4.90402e-05
3.5161e-05
3.46058e-05
1.70162e-05
1.46212e-05
4.93982e-05
1.46106e-05
4.9045e-05
3.5162e-05
5.69179e-05
7.02322e-05
7.02145e-05
5.7298e-05
5.69144e-05
7.02282e-05
7.02128e-05
5.72984e-05
6.94267e-05
6.94122e-05
6.94274e-05
6.94148e-05
2.06267e-05
6.1206e-05
6.12264e-05
6.10275e-05
6.1035e-05
6.93831e-05
6.93994e-05
6.93865e-05
6.94034e-05
6.93717e-05
6.93561e-05
6.93736e-05
6.9359e-05
6.12555e-05
6.12606e-05
2.13177e-05
6.14114e-05
6.14256e-05
6.93347e-05
6.9345e-05
6.93367e-05
6.93479e-05
2.15025e-05
6.16327e-05
6.16418e-05
6.14437e-05
6.14581e-05
5.76446e-05
7.02245e-05
5.73091e-05
7.02473e-05
3.59084e-05
4.95047e-05
1.4637e-05
1.7333e-05
3.53796e-05
4.98115e-05
1.46565e-05
3.59163e-05
4.94882e-05
1.46373e-05
1.73372e-05
3.53717e-05
4.98347e-05
1.46566e-05
5.76925e-05
7.02709e-05
7.02477e-05
5.79778e-05
5.77021e-05
7.02599e-05
7.02483e-05
5.79678e-05
3.61205e-05
1.74454e-05
5.02511e-05
1.47071e-05
4.9911e-05
1.46794e-05
3.66433e-05
3.6128e-05
1.74518e-05
5.02439e-05
1.47066e-05
4.99348e-05
1.46796e-05
3.66379e-05
6.12431e-05
6.12476e-05
2.13258e-05
6.14343e-05
6.14251e-05
6.93727e-05
6.93581e-05
6.93355e-05
6.93491e-05
2.15127e-05
6.16331e-05
6.16266e-05
6.14686e-05
6.14576e-05
6.93342e-05
6.93465e-05
3.59144e-05
4.95096e-05
1.46399e-05
1.73344e-05
3.53836e-05
4.98176e-05
1.46591e-05
5.76597e-05
7.02281e-05
5.73035e-05
7.02536e-05
3.59264e-05
1.46375e-05
4.94897e-05
1.73331e-05
3.53705e-05
1.46574e-05
4.98315e-05
5.76981e-05
7.02728e-05
7.0252e-05
5.79948e-05
3.61335e-05
1.74458e-05
5.02573e-05
1.47081e-05
4.99176e-05
1.46809e-05
3.66508e-05
5.77174e-05
7.02673e-05
7.02538e-05
5.79825e-05
3.61437e-05
1.74489e-05
1.47088e-05
5.02572e-05
1.46804e-05
4.99344e-05
3.6652e-05
5.7635e-05
7.02355e-05
5.73259e-05
7.02404e-05
3.59109e-05
1.4636e-05
4.94832e-05
1.73349e-05
3.53676e-05
1.46549e-05
4.98283e-05
5.76351e-05
7.02214e-05
5.7311e-05
7.02527e-05
3.61109e-05
1.74518e-05
5.02396e-05
1.47066e-05
4.99229e-05
1.46797e-05
3.66287e-05
5.76854e-05
7.02672e-05
7.02411e-05
5.79609e-05
3.61197e-05
1.74511e-05
1.47088e-05
5.025e-05
1.46796e-05
4.99369e-05
3.66481e-05
5.76965e-05
7.02636e-05
7.02562e-05
5.79827e-05
6.12514e-05
6.12556e-05
2.13136e-05
6.14305e-05
6.14191e-05
6.93729e-05
6.93568e-05
6.93373e-05
6.93491e-05
2.15041e-05
6.16481e-05
6.16266e-05
6.14663e-05
6.14488e-05
6.93339e-05
6.93446e-05
3.58989e-05
1.46368e-05
4.95042e-05
1.73349e-05
3.54027e-05
1.46555e-05
4.98211e-05
5.75879e-05
7.02341e-05
5.73842e-05
7.02441e-05
5.75755e-05
7.02276e-05
5.73765e-05
7.02358e-05
3.60938e-05
1.74487e-05
1.47086e-05
5.02433e-05
1.46801e-05
4.99126e-05
3.66185e-05
3.6085e-05
1.74495e-05
1.47083e-05
5.02485e-05
1.46788e-05
4.99179e-05
3.66298e-05
5.76232e-05
7.02661e-05
7.0245e-05
5.79964e-05
5.76162e-05
7.02745e-05
7.024e-05
5.8012e-05
6.93712e-05
6.93601e-05
6.93731e-05
6.93597e-05
2.15108e-05
6.16284e-05
6.16402e-05
6.14644e-05
6.14623e-05
6.93331e-05
6.93489e-05
6.93368e-05
6.93492e-05
6.93242e-05
6.93115e-05
6.93258e-05
6.93123e-05
6.16676e-05
6.16767e-05
2.22686e-05
6.18273e-05
6.18347e-05
6.92899e-05
6.9301e-05
6.92912e-05
6.93009e-05
2.24834e-05
6.20258e-05
6.20195e-05
6.18574e-05
6.18619e-05
5.83056e-05
7.0264e-05
5.80199e-05
7.02857e-05
3.73578e-05
5.03445e-05
1.47408e-05
1.7829e-05
3.68495e-05
5.06578e-05
1.47789e-05
3.73594e-05
5.03356e-05
1.47405e-05
1.78239e-05
3.68397e-05
5.0657e-05
1.47799e-05
5.83527e-05
7.02973e-05
7.02874e-05
5.85778e-05
5.83568e-05
7.02885e-05
7.0285e-05
5.85715e-05
3.75498e-05
1.79709e-05
5.10607e-05
1.48711e-05
5.07465e-05
1.48226e-05
3.80503e-05
3.75511e-05
1.7961e-05
5.10405e-05
1.48692e-05
5.07438e-05
1.48218e-05
3.8041e-05
6.1664e-05
6.16585e-05
2.22411e-05
6.18291e-05
6.18155e-05
6.93229e-05
6.9309e-05
6.929e-05
6.93009e-05
2.24528e-05
6.20195e-05
6.20111e-05
6.18602e-05
6.1844e-05
6.92893e-05
6.92979e-05
3.73669e-05
5.03529e-05
1.47433e-05
1.78301e-05
3.68493e-05
5.06574e-05
1.47809e-05
5.83076e-05
7.02706e-05
5.80345e-05
7.02808e-05
3.73802e-05
1.47453e-05
5.03577e-05
1.7837e-05
3.6851e-05
1.47837e-05
5.06661e-05
5.83337e-05
7.02949e-05
7.02796e-05
5.85204e-05
3.75461e-05
1.79687e-05
5.10378e-05
1.48656e-05
5.07381e-05
1.4822e-05
3.79771e-05
5.83465e-05
7.02824e-05
7.02792e-05
5.85097e-05
3.75572e-05
1.79756e-05
1.48691e-05
5.10339e-05
1.48252e-05
5.07472e-05
3.79722e-05
5.83066e-05
7.02724e-05
5.8029e-05
7.0284e-05
3.73549e-05
1.47408e-05
5.03395e-05
1.78251e-05
3.6847e-05
1.47775e-05
5.06395e-05
5.82822e-05
7.02632e-05
5.80336e-05
7.02752e-05
3.75415e-05
1.79554e-05
5.10314e-05
1.48652e-05
5.07228e-05
1.48183e-05
3.7994e-05
5.83439e-05
7.02938e-05
7.02833e-05
5.85329e-05
3.75269e-05
1.79667e-05
1.48675e-05
5.10484e-05
1.48194e-05
5.07243e-05
3.80025e-05
5.83243e-05
7.02999e-05
7.02789e-05
5.85496e-05
6.16801e-05
6.16675e-05
2.22746e-05
6.18316e-05
6.18171e-05
6.93237e-05
6.93096e-05
6.92906e-05
6.92999e-05
2.24898e-05
6.20137e-05
6.20375e-05
6.18586e-05
6.18424e-05
6.92938e-05
6.92993e-05
3.73839e-05
1.47422e-05
5.03484e-05
1.78269e-05
3.68699e-05
1.47807e-05
5.06586e-05
5.82785e-05
7.027e-05
5.81047e-05
7.028e-05
5.8278e-05
7.02766e-05
5.8115e-05
7.02819e-05
3.75279e-05
1.7968e-05
1.4869e-05
5.10549e-05
1.48205e-05
5.07154e-05
3.79809e-05
3.75294e-05
1.79688e-05
1.48699e-05
5.10544e-05
1.48224e-05
5.0738e-05
3.79877e-05
5.82919e-05
7.0303e-05
7.02802e-05
5.85533e-05
5.82919e-05
7.02976e-05
7.02815e-05
5.85608e-05
6.93207e-05
6.93098e-05
6.93252e-05
6.93123e-05
2.24758e-05
6.20235e-05
6.20328e-05
6.18453e-05
6.18572e-05
6.92911e-05
6.93003e-05
6.92932e-05
6.93019e-05
6.92795e-05
6.92707e-05
6.92822e-05
6.92751e-05
6.20571e-05
6.20542e-05
2.33418e-05
6.22131e-05
6.22343e-05
6.92564e-05
6.92624e-05
6.92565e-05
6.92661e-05
2.35662e-05
6.24054e-05
6.24119e-05
6.22442e-05
6.22663e-05
5.87808e-05
7.02894e-05
5.86013e-05
7.03166e-05
3.86221e-05
5.11367e-05
1.4925e-05
1.84397e-05
3.82083e-05
5.14188e-05
1.49779e-05
3.86218e-05
5.11186e-05
1.49214e-05
1.8444e-05
3.81959e-05
5.14271e-05
1.49763e-05
5.88388e-05
7.03436e-05
7.0309e-05
5.91643e-05
5.88432e-05
7.03362e-05
7.0322e-05
5.9175e-05
3.87907e-05
1.85939e-05
5.17877e-05
1.50956e-05
5.14905e-05
1.50318e-05
3.93353e-05
3.87946e-05
1.86031e-05
5.18078e-05
1.50988e-05
5.15059e-05
1.50325e-05
3.93515e-05
6.20523e-05
6.20568e-05
2.33654e-05
6.22322e-05
6.2222e-05
6.92806e-05
6.92705e-05
6.9259e-05
6.92658e-05
2.36065e-05
6.23985e-05
6.23843e-05
6.22629e-05
6.22428e-05
6.92576e-05
6.92607e-05
3.86537e-05
5.11164e-05
1.49152e-05
1.84331e-05
3.81407e-05
5.14294e-05
1.49698e-05
5.88386e-05
7.0285e-05
5.8547e-05
7.03204e-05
3.86448e-05
1.49161e-05
5.11165e-05
1.84329e-05
3.81306e-05
1.49689e-05
5.14183e-05
5.89085e-05
7.03399e-05
7.03263e-05
5.91806e-05
3.88367e-05
1.85926e-05
5.18133e-05
1.50989e-05
5.15114e-05
1.50303e-05
3.93641e-05
5.89108e-05
7.03367e-05
7.03251e-05
5.9182e-05
3.88312e-05
1.85898e-05
1.50968e-05
5.18073e-05
1.50284e-05
5.15005e-05
3.93638e-05
5.8864e-05
7.02978e-05
5.85822e-05
7.03192e-05
3.86942e-05
1.49221e-05
5.11441e-05
1.84408e-05
3.81782e-05
1.49772e-05
5.1431e-05
5.88574e-05
7.03003e-05
5.86002e-05
7.03058e-05
3.88594e-05
1.86037e-05
5.17825e-05
1.51006e-05
5.15052e-05
1.5037e-05
3.9299e-05
5.89044e-05
7.03326e-05
7.03193e-05
5.90847e-05
3.885e-05
1.85974e-05
1.50976e-05
5.17732e-05
1.50343e-05
5.14853e-05
3.92924e-05
5.88928e-05
7.03387e-05
7.03076e-05
5.90751e-05
6.205e-05
6.20867e-05
2.335e-05
6.22349e-05
6.22371e-05
6.92852e-05
6.92721e-05
6.92567e-05
6.92655e-05
2.35722e-05
6.24076e-05
6.23797e-05
6.22642e-05
6.22564e-05
6.92534e-05
6.92605e-05
3.87434e-05
1.4925e-05
5.11504e-05
1.8444e-05
3.81992e-05
1.49816e-05
5.14474e-05
5.89022e-05
7.0308e-05
5.86686e-05
7.03188e-05
5.88884e-05
7.03016e-05
5.86702e-05
7.03131e-05
3.88923e-05
1.86e-05
1.51062e-05
5.17824e-05
1.50426e-05
5.15178e-05
3.92692e-05
3.88742e-05
1.86029e-05
1.51027e-05
5.17707e-05
1.50411e-05
5.15034e-05
3.92691e-05
5.89151e-05
7.03299e-05
7.03179e-05
5.90317e-05
5.89012e-05
7.0332e-05
7.03131e-05
5.90408e-05
6.92813e-05
6.92696e-05
6.92843e-05
6.92729e-05
2.35845e-05
6.23775e-05
6.23691e-05
6.22368e-05
6.22568e-05
6.92561e-05
6.92599e-05
6.92547e-05
6.92618e-05
6.9248e-05
6.92408e-05
6.92469e-05
6.92398e-05
6.24325e-05
6.24343e-05
2.44049e-05
6.2577e-05
6.25639e-05
6.92326e-05
6.92322e-05
2.46375e-05
6.26199e-05
6.26004e-05
5.93703e-05
7.03355e-05
5.92196e-05
7.03397e-05
3.99591e-05
5.18642e-05
1.51663e-05
1.90875e-05
3.95072e-05
5.21684e-05
1.52406e-05
3.99457e-05
5.1887e-05
1.51723e-05
1.912e-05
3.95202e-05
5.21921e-05
1.5246e-05
5.94159e-05
7.03496e-05
5.95551e-05
5.93924e-05
7.03511e-05
7.03397e-05
5.95495e-05
4.00947e-05
1.92713e-05
1.53995e-05
5.22465e-05
1.53177e-05
4.052e-05
4.0073e-05
1.92932e-05
5.24762e-05
1.53999e-05
5.22597e-05
1.53216e-05
4.05118e-05
6.24399e-05
6.24497e-05
2.44448e-05
6.26457e-05
6.26633e-05
6.92519e-05
6.92464e-05
6.92131e-05
6.92332e-05
2.46682e-05
6.27383e-05
6.27416e-05
6.26768e-05
6.26895e-05
6.92123e-05
6.92337e-05
3.99497e-05
5.18816e-05
1.51718e-05
1.90889e-05
3.95324e-05
5.2145e-05
1.5244e-05
5.93336e-05
7.03358e-05
5.92171e-05
7.03384e-05
3.99467e-05
1.51703e-05
5.18897e-05
1.90917e-05
3.95313e-05
1.5243e-05
5.21475e-05
5.93522e-05
7.03421e-05
4.00524e-05
1.92689e-05
5.22102e-05
1.53178e-05
5.93484e-05
7.03381e-05
4.00523e-05
1.92634e-05
1.53168e-05
5.22055e-05
5.9456e-05
7.03376e-05
5.91384e-05
7.03591e-05
4.00153e-05
1.5171e-05
5.18684e-05
1.91019e-05
3.94536e-05
1.52488e-05
5.22094e-05
5.94649e-05
7.03434e-05
5.91447e-05
7.03519e-05
4.01704e-05
1.92978e-05
5.25046e-05
1.5413e-05
5.22983e-05
1.53303e-05
4.05744e-05
5.95026e-05
7.03578e-05
7.03578e-05
5.96026e-05
4.01754e-05
1.92834e-05
1.54098e-05
5.24905e-05
1.53284e-05
5.22733e-05
4.05503e-05
5.95044e-05
7.03469e-05
7.03492e-05
5.9575e-05
6.24382e-05
6.24179e-05
2.43954e-05
6.25754e-05
6.25931e-05
6.92458e-05
6.92402e-05
6.92294e-05
2.4629e-05
6.25956e-05
6.26184e-05
6.92314e-05
3.99857e-05
1.51708e-05
5.18556e-05
1.90929e-05
3.94423e-05
1.5243e-05
5.21739e-05
5.94309e-05
7.03347e-05
5.91195e-05
7.03552e-05
5.94289e-05
7.03371e-05
5.91348e-05
7.03535e-05
4.01283e-05
1.92634e-05
1.53988e-05
1.53178e-05
5.22331e-05
4.05122e-05
4.0124e-05
1.92724e-05
1.53988e-05
5.25171e-05
1.53175e-05
5.22459e-05
4.05076e-05
5.94618e-05
7.03548e-05
5.95669e-05
5.9456e-05
7.03591e-05
7.03532e-05
5.95588e-05
6.92494e-05
6.92424e-05
6.92477e-05
6.92444e-05
2.46371e-05
6.27381e-05
6.27798e-05
6.26457e-05
6.26438e-05
6.92166e-05
6.92309e-05
6.92243e-05
6.92358e-05
6.95544e-05
6.95393e-05
8.79298e-05
7.23311e-05
7.23253e-05
7.23392e-05
7.23336e-05
8.79613e-05
5.8185e-05
4.0469e-05
5.97815e-05
6.89324e-05
4.07001e-05
6.89626e-05
5.79891e-05
5.82494e-05
4.04814e-05
5.97818e-05
6.89433e-05
6.89729e-05
5.80514e-05
4.07112e-05
5.82972e-05
6.89928e-05
5.98352e-05
4.10739e-05
4.08637e-05
6.89725e-05
5.8441e-05
5.83635e-05
6.90047e-05
5.98341e-05
4.10902e-05
6.89832e-05
5.85105e-05
4.08737e-05
8.78778e-05
7.23547e-05
7.2349e-05
7.23564e-05
7.23505e-05
8.77265e-05
6.99133e-05
5.57721e-05
6.93352e-05
6.12688e-05
6.93208e-05
6.11675e-05
6.99197e-05
7.08196e-05
7.46848e-05
7.01526e-05
7.47256e-05
7.08219e-05
6.99135e-05
5.56981e-05
6.93035e-05
6.10066e-05
6.93161e-05
6.11192e-05
6.99087e-05
7.08002e-05
7.47752e-05
7.01552e-05
7.47382e-05
7.07988e-05
6.94878e-05
6.94736e-05
6.99167e-05
5.57727e-05
6.12969e-05
6.93375e-05
6.11722e-05
6.93226e-05
6.99243e-05
7.08224e-05
7.4683e-05
7.01563e-05
7.47322e-05
7.08244e-05
6.99159e-05
5.56932e-05
6.09813e-05
6.93037e-05
6.11128e-05
6.93176e-05
6.99089e-05
7.08039e-05
7.47904e-05
7.01594e-05
7.4746e-05
7.08033e-05
6.94876e-05
6.94735e-05
8.83728e-05
7.22722e-05
7.22659e-05
7.22773e-05
7.22717e-05
8.84262e-05
5.9164e-05
4.19041e-05
6.90604e-05
6.0346e-05
5.89828e-05
4.21196e-05
6.90878e-05
5.92316e-05
4.19224e-05
6.90731e-05
6.03546e-05
5.90493e-05
4.21387e-05
6.90995e-05
8.82892e-05
7.22829e-05
7.22773e-05
8.81112e-05
7.22888e-05
7.22826e-05
5.92992e-05
6.91211e-05
6.03949e-05
4.24884e-05
4.22729e-05
6.90986e-05
5.94539e-05
5.93661e-05
6.91328e-05
6.04011e-05
4.25102e-05
4.229e-05
6.91102e-05
5.95218e-05
6.99413e-05
5.67535e-05
6.94069e-05
6.1995e-05
6.93972e-05
6.19077e-05
6.99441e-05
7.07449e-05
7.49649e-05
7.02058e-05
7.07487e-05
7.50165e-05
6.99435e-05
5.66858e-05
6.93829e-05
6.17474e-05
6.99398e-05
6.93942e-05
6.18635e-05
7.07213e-05
7.50338e-05
7.02068e-05
7.502e-05
7.07168e-05
6.94281e-05
6.94148e-05
6.99411e-05
5.67575e-05
6.19918e-05
6.9406e-05
6.18986e-05
6.93964e-05
6.99447e-05
7.07436e-05
7.49664e-05
7.02054e-05
7.07467e-05
7.49954e-05
6.99427e-05
5.66934e-05
6.1749e-05
6.93832e-05
6.99389e-05
6.18546e-05
6.93936e-05
7.07235e-05
7.50313e-05
7.02072e-05
7.50014e-05
7.07216e-05
6.9428e-05
6.94144e-05
8.84956e-05
7.2191e-05
7.21851e-05
7.21867e-05
7.21812e-05
8.86436e-05
5.99368e-05
4.32071e-05
6.91673e-05
6.08617e-05
5.98042e-05
4.33953e-05
6.91896e-05
5.99962e-05
4.32182e-05
6.91773e-05
6.08571e-05
5.98664e-05
4.34062e-05
6.91993e-05
8.838e-05
7.21872e-05
7.21814e-05
8.83459e-05
7.21923e-05
7.21861e-05
6.00711e-05
6.92273e-05
6.09029e-05
4.37453e-05
4.35309e-05
6.92014e-05
6.02491e-05
6.013e-05
6.9239e-05
6.08984e-05
4.37574e-05
4.35387e-05
6.92116e-05
6.03112e-05
6.99484e-05
5.751e-05
6.94578e-05
6.25401e-05
6.94487e-05
6.2452e-05
6.9952e-05
7.06547e-05
7.51091e-05
7.02364e-05
7.06566e-05
7.51445e-05
6.995e-05
5.74479e-05
6.94358e-05
6.23085e-05
6.99462e-05
6.94459e-05
6.24093e-05
7.06364e-05
7.51753e-05
7.02381e-05
7.5151e-05
7.06353e-05
6.93731e-05
6.9362e-05
6.99493e-05
5.75083e-05
6.25317e-05
6.94599e-05
6.24396e-05
6.94495e-05
6.99536e-05
7.06544e-05
7.5118e-05
7.02353e-05
7.06563e-05
7.51303e-05
6.99505e-05
5.74466e-05
6.23173e-05
6.94359e-05
6.99469e-05
6.23997e-05
6.94463e-05
7.06381e-05
7.51762e-05
7.02377e-05
7.51368e-05
7.06389e-05
6.93728e-05
6.93611e-05
8.87064e-05
7.2089e-05
7.20825e-05
7.20906e-05
7.20845e-05
8.8744e-05
6.07375e-05
4.44514e-05
6.92716e-05
6.13088e-05
6.06585e-05
4.46178e-05
6.92858e-05
6.08023e-05
4.44741e-05
6.92843e-05
6.1321e-05
6.0725e-05
4.46391e-05
6.92969e-05
8.87029e-05
7.2111e-05
7.2105e-05
8.87042e-05
7.21074e-05
7.21009e-05
6.07963e-05
6.93125e-05
6.1346e-05
4.49072e-05
4.47227e-05
6.92933e-05
6.09204e-05
6.0856e-05
6.93218e-05
6.13539e-05
4.49201e-05
4.47374e-05
6.93036e-05
6.09766e-05
6.99537e-05
5.81974e-05
6.94972e-05
6.30559e-05
6.94916e-05
6.29816e-05
6.99548e-05
7.05825e-05
7.53114e-05
7.02791e-05
7.05856e-05
7.53415e-05
6.99572e-05
5.81451e-05
6.94825e-05
6.28567e-05
6.99547e-05
6.94904e-05
6.29462e-05
7.05618e-05
7.53603e-05
7.02802e-05
7.53436e-05
7.0559e-05
6.93242e-05
6.93134e-05
6.99492e-05
5.8196e-05
6.30245e-05
6.94926e-05
6.29669e-05
6.9489e-05
6.99494e-05
7.05727e-05
7.53117e-05
7.02751e-05
7.05772e-05
7.53193e-05
6.9954e-05
5.81487e-05
6.28728e-05
6.94829e-05
6.99534e-05
6.29413e-05
6.94887e-05
7.05509e-05
7.53195e-05
7.0275e-05
7.53117e-05
7.05482e-05
6.93251e-05
6.9313e-05
8.87633e-05
7.20308e-05
7.20249e-05
7.20212e-05
7.20156e-05
8.88619e-05
6.13689e-05
4.55394e-05
6.93581e-05
6.17131e-05
6.12727e-05
4.57115e-05
6.93746e-05
6.14354e-05
4.55562e-05
6.93713e-05
6.17324e-05
6.13383e-05
4.5732e-05
6.93879e-05
8.87442e-05
7.20246e-05
7.20187e-05
8.87407e-05
7.20272e-05
7.20211e-05
6.14429e-05
6.94057e-05
6.17438e-05
4.60117e-05
4.58238e-05
6.93835e-05
6.15915e-05
6.15065e-05
6.94177e-05
6.17621e-05
4.60319e-05
4.58431e-05
6.93964e-05
6.16558e-05
6.99386e-05
5.87101e-05
6.9511e-05
6.34078e-05
6.95049e-05
6.33532e-05
6.99414e-05
7.04924e-05
7.53959e-05
7.0299e-05
7.04936e-05
7.5402e-05
6.99419e-05
5.86777e-05
6.95015e-05
6.32823e-05
6.99412e-05
6.95045e-05
6.33321e-05
7.04776e-05
7.54065e-05
7.02993e-05
7.53964e-05
7.04794e-05
6.9282e-05
6.92736e-05
6.99456e-05
5.87145e-05
6.34659e-05
6.95218e-05
6.33642e-05
6.95125e-05
6.99496e-05
7.05032e-05
7.53737e-05
7.03068e-05
7.05016e-05
7.5414e-05
6.99466e-05
5.86564e-05
6.3239e-05
6.9501e-05
6.99429e-05
6.33199e-05
6.95096e-05
7.04904e-05
7.54883e-05
7.03109e-05
7.54328e-05
7.0492e-05
6.9283e-05
6.92743e-05
8.92582e-05
7.19696e-05
7.19627e-05
7.19772e-05
7.1971e-05
8.92328e-05
6.22309e-05
4.67124e-05
6.94701e-05
6.21342e-05
6.2122e-05
4.68894e-05
6.9485e-05
6.22973e-05
4.67313e-05
6.9483e-05
6.21492e-05
6.21886e-05
4.69096e-05
6.94985e-05
8.92663e-05
7.20107e-05
7.20051e-05
8.92544e-05
7.20037e-05
7.19975e-05
6.22891e-05
6.94973e-05
6.21646e-05
4.71504e-05
4.69948e-05
6.94886e-05
6.23589e-05
6.23536e-05
6.95108e-05
6.21816e-05
4.71731e-05
4.7015e-05
6.95022e-05
6.24235e-05
6.99406e-05
5.93302e-05
6.95302e-05
6.39062e-05
6.95296e-05
6.38591e-05
6.99384e-05
7.04412e-05
7.56082e-05
7.03505e-05
7.04462e-05
7.56264e-05
6.99462e-05
5.92991e-05
6.95302e-05
6.37563e-05
6.99456e-05
6.95321e-05
6.38359e-05
7.04166e-05
7.56211e-05
7.03496e-05
7.56187e-05
7.04112e-05
6.92534e-05
6.92455e-05
6.99282e-05
5.93004e-05
6.3829e-05
6.95226e-05
6.38088e-05
6.95224e-05
6.99266e-05
7.04259e-05
7.55682e-05
7.0341e-05
7.04297e-05
7.55706e-05
6.99377e-05
5.92804e-05
6.37569e-05
6.95256e-05
6.99401e-05
6.38004e-05
6.95259e-05
7.04052e-05
7.55576e-05
7.03399e-05
7.55572e-05
7.0403e-05
6.92479e-05
6.92386e-05
8.95146e-05
7.1949e-05
7.19436e-05
7.19476e-05
7.19422e-05
8.95932e-05
6.27791e-05
4.76671e-05
6.95447e-05
6.25211e-05
6.2615e-05
4.7851e-05
6.95725e-05
6.2826e-05
4.767e-05
6.95491e-05
6.24884e-05
6.26619e-05
4.78448e-05
6.9576e-05
8.94124e-05
7.19413e-05
7.19347e-05
8.92296e-05
7.19524e-05
7.19461e-05
6.28911e-05
6.96006e-05
6.25614e-05
4.81579e-05
4.79722e-05
6.95824e-05
6.30329e-05
6.2939e-05
6.961e-05
6.25333e-05
4.81525e-05
4.79637e-05
6.95877e-05
6.30861e-05
8.78791e-05
7.23039e-05
7.23095e-05
7.23119e-05
7.23176e-05
8.78672e-05
5.82627e-05
4.05301e-05
5.97876e-05
6.8949e-05
6.8969e-05
5.81296e-05
4.07381e-05
5.81966e-05
4.05091e-05
5.97769e-05
6.89374e-05
4.07187e-05
6.89573e-05
5.80602e-05
5.83255e-05
6.89937e-05
5.98366e-05
4.10599e-05
6.89761e-05
5.84389e-05
4.08698e-05
5.82603e-05
6.89827e-05
5.98264e-05
4.10447e-05
4.08512e-05
6.89646e-05
5.83766e-05
8.78911e-05
7.23536e-05
7.23591e-05
7.23433e-05
7.23487e-05
8.78847e-05
6.95524e-05
6.95377e-05
6.95058e-05
6.952e-05
8.78483e-05
7.22801e-05
7.22858e-05
8.78455e-05
7.22792e-05
7.22848e-05
5.87188e-05
4.17474e-05
6.01191e-05
6.90604e-05
6.90339e-05
5.89011e-05
4.15295e-05
5.86507e-05
4.17268e-05
6.01117e-05
6.90485e-05
6.90224e-05
4.15104e-05
5.88335e-05
5.86274e-05
6.90018e-05
4.11857e-05
6.00726e-05
5.85004e-05
6.9023e-05
4.13867e-05
5.85636e-05
6.89907e-05
4.11701e-05
6.00667e-05
5.84377e-05
6.90117e-05
4.13711e-05
8.78664e-05
7.22754e-05
7.22811e-05
7.22693e-05
7.22752e-05
8.797e-05
6.95037e-05
6.95183e-05
6.98838e-05
6.0525e-05
6.92564e-05
5.46813e-05
6.03584e-05
6.92409e-05
6.98932e-05
7.09049e-05
7.01019e-05
7.43725e-05
7.44263e-05
7.09053e-05
7.08877e-05
7.45224e-05
7.01065e-05
7.44527e-05
7.08877e-05
6.98814e-05
5.45608e-05
6.01106e-05
6.92149e-05
6.02751e-05
6.92345e-05
6.987e-05
6.98868e-05
6.92561e-05
6.05539e-05
5.47031e-05
6.92419e-05
6.04044e-05
6.98929e-05
7.09089e-05
7.0104e-05