/*--------------------------------*- C++ -*----------------------------------*\
| =========                 |                                                 |
| \\      /  F ield         | OpenFOAM: The Open Source CFD Toolbox           |
|  \\    /   O peration     | Version:  v2006                                 |
|   \\  /    A nd           | Website:  www.openfoam.com                      |
|    \\/     M anipulation  |                                                 |
\*---------------------------------------------------------------------------*/
FoamFile
{
    version     2.0;
    format      ascii;
    class       volScalarField;
    location    "1000";
    object      nut;
}
// * * * * * * * * * * * * * * * * * * * * * * * * * * * * * * * * * * * * * //

dimensions      [0 2 -1 0 0 0 0];


internalField   nonuniform List<scalar> 
171728
(
9.89249e-05
8.21038e-05
0.000142061
9.65044e-05
9.65818e-05
8.2139e-05
0.00013808
9.47976e-05
9.47554e-05
8.26659e-05
0.000134184
9.33263e-05
9.32938e-05
8.33641e-05
0.000130473
9.23568e-05
9.24624e-05
8.44264e-05
0.000127105
9.23911e-05
9.23859e-05
8.64741e-05
0.00012391
9.2919e-05
9.27748e-05
8.87311e-05
8.21728e-05
8.20619e-05
9.88701e-05
9.70428e-05
9.70625e-05
8.21844e-05
8.223e-05
8.27033e-05
9.6612e-05
9.64726e-05
9.51754e-05
9.51436e-05
8.19774e-05
8.2645e-05
9.65914e-05
9.65423e-05
9.52047e-05
9.51717e-05
9.6563e-05
9.51959e-05
9.51544e-05
8.21747e-05
8.27118e-05
9.6596e-05
9.52164e-05
9.51786e-05
8.26736e-05
8.26934e-05
8.32416e-05
9.47128e-05
9.47543e-05
9.36108e-05
9.36174e-05
8.27106e-05
8.3361e-05
9.47517e-05
9.47219e-05
9.3676e-05
9.35721e-05
9.47491e-05
9.36517e-05
9.35874e-05
8.26876e-05
8.32145e-05
9.47515e-05
9.35851e-05
9.36114e-05
8.32684e-05
8.33473e-05
8.42148e-05
9.33002e-05
9.32947e-05
9.25447e-05
9.25106e-05
8.3411e-05
8.4224e-05
9.334e-05
9.3269e-05
9.25739e-05
9.25643e-05
9.32938e-05
9.2545e-05
9.25913e-05
8.32933e-05
8.42865e-05
9.33162e-05
9.25937e-05
9.26086e-05
8.42608e-05
8.44195e-05
8.60693e-05
9.24112e-05
9.23405e-05
9.22337e-05
9.22051e-05
8.4362e-05
8.59616e-05
9.24489e-05
9.24596e-05
9.22057e-05
9.22986e-05
9.23642e-05
9.21925e-05
9.22522e-05
8.44902e-05
8.61304e-05
9.23942e-05
9.23021e-05
9.22928e-05
8.60744e-05
8.6435e-05
8.83579e-05
9.23906e-05
9.23631e-05
9.25574e-05
9.27046e-05
8.64056e-05
8.87301e-05
9.23176e-05
9.23061e-05
9.26048e-05
9.25589e-05
9.23974e-05
9.27481e-05
9.25571e-05
8.64974e-05
8.83242e-05
9.24235e-05
9.26869e-05
9.26263e-05
8.84365e-05
8.86967e-05
9.26169e-05
9.28659e-05
9.33739e-05
8.90562e-05
9.0876e-05
9.26894e-05
9.27057e-05
9.27059e-05
9.35105e-05
9.3404e-05
8.86366e-05
9.27198e-05
9.3318e-05
9.08329e-05
2.36157e-05
2.36124e-05
7.00937e-05
6.76897e-05
0.000122236
9.82907e-05
6.83705e-05
0.000121266
6.8995e-05
6.20129e-05
6.20135e-05
8.20428e-05
6.2457e-05
6.2445e-05
7.37299e-05
4.9593e-05
7.30988e-05
4.95993e-05
2.36044e-05
2.36013e-05
7.37428e-05
4.95888e-05
7.30566e-05
4.95963e-05
0.000186672
0.000166394
0.000186669
0.00013908
0.000139076
0.000139073
0.000139066
7.30844e-05
6.94424e-05
0.000118515
9.60103e-05
7.19487e-05
7.0151e-05
0.000117607
2.3603e-05
2.35999e-05
7.30586e-05
0.000118524
7.33558e-05
9.61402e-05
7.4263e-05
0.000117626
7.01804e-05
6.2887e-05
6.28995e-05
8.23948e-05
6.3297e-05
6.32877e-05
7.53824e-05
4.96115e-05
7.47233e-05
4.96163e-05
2.35941e-05
2.35913e-05
7.53753e-05
4.96073e-05
7.47681e-05
4.96125e-05
0.000138097
0.000138081
0.000138083
0.000135151
0.000135127
0.000135118
0.000135116
7.60951e-05
7.1189e-05
0.000115115
9.44087e-05
7.49678e-05
7.1825e-05
0.000114299
2.35928e-05
2.35899e-05
7.60192e-05
0.000115092
7.1156e-05
9.43326e-05
7.49642e-05
0.000114275
7.18151e-05
6.37091e-05
6.36982e-05
8.28797e-05
6.4062e-05
6.40432e-05
7.66987e-05
4.96229e-05
7.6075e-05
4.96281e-05
2.35846e-05
2.35825e-05
7.66912e-05
4.96187e-05
7.60843e-05
4.96239e-05
0.000134175
0.000134162
0.00013417
0.000131357
0.000131301
0.000131358
0.000131373
7.89806e-05
7.27666e-05
0.000111953
9.30646e-05
7.78485e-05
7.33926e-05
0.000111227
2.35833e-05
2.3581e-05
7.89791e-05
0.000111935
7.27768e-05
9.30314e-05
7.79384e-05
0.000111213
7.33717e-05
6.44383e-05
6.44545e-05
8.37219e-05
6.47565e-05
6.47402e-05
7.79594e-05
4.96382e-05
7.73962e-05
4.96427e-05
2.35763e-05
2.35742e-05
7.79315e-05
4.96332e-05
7.74321e-05
4.96352e-05
0.000130429
0.000130483
0.000130437
0.00012784
0.000127843
0.000127899
0.000127896
8.19093e-05
7.42145e-05
0.000109164
9.22134e-05
8.06666e-05
7.48245e-05
0.000108559
2.35752e-05
2.35727e-05
8.19673e-05
0.000109231
7.42416e-05
9.23315e-05
8.07372e-05
0.000108622
7.48021e-05
6.5108e-05
6.51142e-05
8.49789e-05
6.53752e-05
6.53832e-05
7.88643e-05
4.96467e-05
7.85197e-05
4.96492e-05
2.35689e-05
2.35677e-05
7.89856e-05
4.96419e-05
7.83942e-05
4.96504e-05
0.000127175
0.000127069
0.00012712
0.000124758
0.000124793
0.000124788
0.000124763
8.46227e-05
7.56278e-05
0.000106995
9.25636e-05
8.3299e-05
7.62906e-05
0.000106555
2.35676e-05
2.35664e-05
8.48617e-05
0.000107013
7.57013e-05
9.24886e-05
8.33705e-05
0.000106574
7.63252e-05
6.57743e-05
6.57758e-05
8.73564e-05
6.60519e-05
6.60668e-05
8.01462e-05
4.96639e-05
7.97456e-05
4.9666e-05
2.35638e-05
2.35628e-05
8.00304e-05
4.96567e-05
7.9766e-05
4.96577e-05
0.000124076
0.000124004
0.000123994
0.000121891
0.000121831
8.74981e-05
7.70021e-05
0.000105287
9.31008e-05
8.60098e-05
7.77783e-05
0.00010495
2.35618e-05
2.35603e-05
8.74278e-05
0.000105292
7.69865e-05
9.28403e-05
8.59491e-05
0.000104865
7.76269e-05
6.63784e-05
6.63182e-05
8.94481e-05
6.67304e-05
6.66898e-05
6.20284e-05
6.20322e-05
8.20973e-05
6.24375e-05
6.24396e-05
2.36165e-05
2.36133e-05
2.36068e-05
2.36098e-05
8.21032e-05
6.28563e-05
6.2853e-05
6.2472e-05
6.24764e-05
2.36075e-05
2.36107e-05
7.2116e-05
4.95714e-05
4.95806e-05
7.11539e-05
7.01261e-05
0.000122221
6.7646e-05
9.82267e-05
0.000121256
6.83863e-05
6.89733e-05
7.21504e-05
4.95683e-05
4.958e-05
7.11622e-05
7.05439e-05
9.76354e-05
6.92522e-05
0.000119394
6.85737e-05
0.00012034
7.15371e-05
7.22111e-05
4.95904e-05
4.95823e-05
7.29029e-05
7.05665e-05
9.76395e-05
0.000119405
6.9248e-05
0.000120343
6.86047e-05
7.1512e-05
7.22343e-05
4.9585e-05
4.95811e-05
7.28388e-05
2.36157e-05
2.36125e-05
2.36145e-05
2.36115e-05
8.21445e-05
6.28453e-05
6.28624e-05
6.24927e-05
6.24872e-05
2.36064e-05
2.36098e-05
2.36055e-05
2.36089e-05
2.36057e-05
2.36027e-05
2.36038e-05
2.3601e-05
6.29071e-05
6.28939e-05
8.24675e-05
6.32826e-05
6.32872e-05
2.35978e-05
2.36005e-05
2.3596e-05
2.35988e-05
8.2467e-05
6.36894e-05
6.369e-05
6.33237e-05
6.33295e-05
7.37881e-05
4.95905e-05
7.30624e-05
4.95976e-05
7.30104e-05
7.33816e-05
0.000118553
9.61004e-05
7.43166e-05
7.01464e-05
0.000117619
7.30404e-05
7.32436e-05
0.000118509
9.59695e-05
7.42358e-05
7.01521e-05
0.000117592
7.38042e-05
4.96102e-05
4.96005e-05
7.46287e-05
7.38611e-05
4.96052e-05
4.95985e-05
7.45915e-05
7.34057e-05
9.565e-05
7.10112e-05
0.000115884
7.03187e-05
0.000116779
7.45291e-05
7.34414e-05
9.55321e-05
7.10023e-05
0.000115883
7.03273e-05
0.000116748
7.45321e-05
6.29004e-05
6.28949e-05
8.22293e-05
6.32786e-05
6.32897e-05
2.36052e-05
2.36023e-05
2.35963e-05
2.3599e-05
8.22712e-05
6.36838e-05
6.36943e-05
6.33165e-05
6.33323e-05
2.35971e-05
2.36001e-05
7.29835e-05
7.33308e-05
0.000118497
9.60918e-05
7.41738e-05
7.01399e-05
0.00011759
7.37337e-05
4.95862e-05
7.30894e-05
4.95919e-05
7.29965e-05
0.0001185
7.22144e-05
9.60914e-05
7.42233e-05
0.000117591
7.01511e-05
7.38418e-05
4.96065e-05
4.95978e-05
7.46718e-05
7.34033e-05
9.56523e-05
7.10307e-05
0.000115903
7.03293e-05
0.000116746
7.4617e-05
7.38035e-05
4.96027e-05
4.9593e-05
7.46683e-05
7.33843e-05
9.56124e-05
0.000115885
7.09976e-05
0.000116742
7.03273e-05
7.45891e-05
7.38372e-05
4.95913e-05
7.30064e-05
4.95986e-05
7.31192e-05
0.000118532
6.94433e-05
9.60618e-05
7.19198e-05
0.000117612
7.01686e-05
7.38719e-05
4.9586e-05
7.29751e-05
4.95963e-05
7.34945e-05
9.55771e-05
7.10302e-05
0.000115913
7.03417e-05
0.000116774
7.45918e-05
7.39306e-05
4.96071e-05
4.95999e-05
7.46011e-05
7.35228e-05
9.56353e-05
0.000115913
7.09908e-05
0.000116782
7.03655e-05
7.45724e-05
7.39606e-05
4.96025e-05
4.95977e-05
7.45592e-05
6.29108e-05
6.29127e-05
8.24772e-05
6.32796e-05
6.33085e-05
2.36048e-05
2.36019e-05
2.35951e-05
2.35977e-05
8.24926e-05
6.36847e-05
6.36771e-05
6.33173e-05
6.33451e-05
2.35965e-05
2.35996e-05
7.30736e-05
0.000118548
7.33398e-05
9.61071e-05
7.43093e-05
0.000117642
7.01743e-05
7.38224e-05
4.95897e-05
7.30301e-05
4.95971e-05
7.38194e-05
4.95862e-05
7.30388e-05
4.95937e-05
7.35065e-05
9.56616e-05
0.000115907
7.09982e-05
0.000116788
7.03612e-05
7.45683e-05
7.35178e-05
9.56739e-05
0.00011591
7.09937e-05
0.000116805
7.03657e-05
7.45833e-05
7.39274e-05
4.96051e-05
4.95986e-05
7.46034e-05
7.39346e-05
4.96008e-05
4.95947e-05
7.46106e-05
2.36041e-05
2.36014e-05
2.36031e-05
2.36003e-05
8.24135e-05
6.36747e-05
6.36693e-05
6.3338e-05
6.33342e-05
2.3596e-05
2.35991e-05
2.35948e-05
2.3598e-05
2.35956e-05
2.35929e-05
2.35937e-05
2.3591e-05
6.3725e-05
6.37253e-05
8.289e-05
6.40567e-05
6.40538e-05
2.35883e-05
2.35908e-05
2.35864e-05
2.35889e-05
8.29089e-05
6.44375e-05
6.44259e-05
6.40966e-05
6.40918e-05
7.53889e-05
4.96065e-05
7.46828e-05
4.96135e-05
7.60969e-05
7.11654e-05
0.000115086
9.43024e-05
7.49626e-05
7.18158e-05
0.000114257
7.61101e-05
7.11734e-05
0.000115081
9.43764e-05
7.49428e-05
7.18537e-05
0.000114269
7.54373e-05
4.96221e-05
4.96166e-05
7.60063e-05
7.54469e-05
4.9617e-05
4.96136e-05
7.59908e-05
7.64543e-05
9.39336e-05
7.26621e-05
0.000112693
7.19654e-05
0.000113461
7.74996e-05
7.6463e-05
9.40093e-05
7.25927e-05
0.000112704
7.19849e-05
0.000113482
7.74809e-05
6.37255e-05
6.37301e-05
8.30315e-05
6.40695e-05
6.40578e-05
2.35948e-05
2.35921e-05
2.35865e-05
2.3589e-05
8.30822e-05
6.43931e-05
6.44171e-05
6.41013e-05
6.40938e-05
2.35877e-05
2.35901e-05
7.61504e-05
7.11854e-05
0.000115106
9.43668e-05
7.50456e-05
7.18313e-05
0.000114319
7.53857e-05
4.96039e-05
7.47735e-05
4.96071e-05
7.61508e-05
0.000115085
7.11672e-05
9.43149e-05
7.50248e-05
0.000114293
7.18362e-05
7.54399e-05
4.96185e-05
4.96134e-05
7.60075e-05
7.64989e-05
9.40039e-05
7.26624e-05
0.000112775
7.19825e-05
0.000113535
7.75598e-05
7.54249e-05
4.96127e-05
4.96069e-05
7.59562e-05
7.64688e-05
9.3935e-05
0.000112726
7.25873e-05
0.000113497
7.19781e-05
7.74839e-05
7.53579e-05
4.96077e-05
7.46869e-05
4.96128e-05
7.61098e-05
0.000115116
7.11419e-05
9.4326e-05
7.49324e-05
0.000114292
7.18364e-05
7.53785e-05
4.96033e-05
7.46453e-05
4.96115e-05
7.6427e-05
9.40469e-05
7.26261e-05
0.000112712
7.19632e-05
0.000113495
7.7517e-05
7.54329e-05
4.96217e-05
4.96138e-05
7.60169e-05
7.64492e-05
9.39371e-05
0.000112702
7.25994e-05
0.00011348
7.20013e-05
7.75007e-05
7.54571e-05
4.96143e-05
4.96122e-05
7.59996e-05
6.37228e-05
6.37128e-05
8.28827e-05
6.40516e-05
6.40585e-05
2.35943e-05
2.35919e-05
2.35853e-05
2.35877e-05
8.29079e-05
6.44081e-05
6.4431e-05
6.4088e-05
6.40982e-05
2.35873e-05
2.35899e-05
7.59997e-05
0.000115093
7.11284e-05
9.4322e-05
7.49597e-05
0.000114268
7.17965e-05
7.53055e-05
4.96057e-05
7.46776e-05
4.96125e-05
7.52831e-05
4.96016e-05
7.46793e-05
4.96085e-05
7.63624e-05
9.39432e-05
0.00011267
7.26309e-05
0.000113452
7.19639e-05
7.75135e-05
7.63448e-05
9.3932e-05
0.000112678
7.26397e-05
0.00011345
7.1962e-05
7.75215e-05
7.53674e-05
4.96199e-05
4.96136e-05
7.60968e-05
7.53575e-05
4.96154e-05
4.96098e-05
7.60994e-05
2.35938e-05
2.35914e-05
2.35925e-05
2.35904e-05
8.29187e-05
6.44082e-05
6.44265e-05
6.41026e-05
6.40949e-05
2.35864e-05
2.35892e-05
2.35856e-05
2.35885e-05
2.35861e-05
2.35835e-05
2.35842e-05
2.35817e-05
6.447e-05
6.44602e-05
8.37057e-05
6.47329e-05
6.47396e-05
2.35798e-05
2.35815e-05
2.35779e-05
2.35798e-05
8.37981e-05
6.50902e-05
6.50871e-05
6.47638e-05
6.47704e-05
7.67206e-05
4.96182e-05
7.60561e-05
4.96264e-05
7.89682e-05
7.27777e-05
0.000111964
9.30163e-05
7.78456e-05
7.3348e-05
0.000111234
7.89976e-05
7.27206e-05
0.000111956
9.30225e-05
7.78137e-05
7.33934e-05
0.000111224
7.67619e-05
4.96374e-05
4.96292e-05
7.7334e-05
7.67853e-05
4.96307e-05
4.96268e-05
7.73142e-05
7.9276e-05
9.27481e-05
7.41278e-05
0.000109829
7.3457e-05
0.000110528
8.04156e-05
7.9305e-05
9.27761e-05
7.41036e-05
0.000109805
7.35079e-05
0.000110505
8.03953e-05
6.44291e-05
6.44532e-05
8.37278e-05
6.47588e-05
6.47588e-05
2.35856e-05
2.35831e-05
2.35781e-05
2.35805e-05
8.38357e-05
6.50754e-05
6.50804e-05
6.47943e-05
6.47916e-05
2.3579e-05
2.35811e-05
7.8985e-05
7.27797e-05
0.000112008
9.30574e-05
7.78668e-05
7.3352e-05
0.000111275
7.67531e-05
4.96149e-05
7.6036e-05
4.96244e-05
7.90299e-05
0.000111971
7.27227e-05
9.30021e-05
7.78091e-05
0.000111249
7.33824e-05
7.67744e-05
4.96333e-05
4.96256e-05
7.73668e-05
7.93166e-05
9.27698e-05
7.41322e-05
0.000109838
7.34618e-05
0.000110526
8.0438e-05
7.6817e-05
4.9629e-05
4.96244e-05
7.73453e-05
7.9358e-05
9.27644e-05
0.000109844
7.41318e-05
0.00011052
7.3503e-05
8.0443e-05
7.66972e-05
4.96222e-05
7.60988e-05
4.9624e-05
7.89692e-05
0.000111946
7.27179e-05
9.30244e-05
7.77961e-05
0.000111211
7.33826e-05
7.66922e-05
4.9615e-05
7.60687e-05
4.96259e-05
7.92346e-05
9.28226e-05
7.40986e-05
0.000109811
7.34889e-05
0.000110512
8.03468e-05
7.67541e-05
4.96329e-05
4.96241e-05
7.72795e-05
7.92625e-05
9.27978e-05
0.000109844
7.4126e-05
0.000110515
7.3517e-05
8.04302e-05
7.67747e-05
4.96301e-05
4.96272e-05
7.73384e-05
6.44416e-05
6.44651e-05
8.36651e-05
6.47467e-05
6.47457e-05
2.35851e-05
2.35824e-05
2.3577e-05
2.35791e-05
8.38015e-05
6.5097e-05
6.5077e-05
6.47834e-05
6.47742e-05
2.35784e-05
2.35803e-05
7.89339e-05
0.000111944
7.27627e-05
9.30478e-05
7.79279e-05
0.00011121
7.33596e-05
7.66014e-05
4.96205e-05
7.62347e-05
4.96242e-05
7.65688e-05
4.96152e-05
7.62195e-05
4.96179e-05
7.91733e-05
9.28022e-05
0.000109847
7.41068e-05
0.000110516
7.3462e-05
8.02942e-05
7.9135e-05
9.28046e-05
0.000109853
7.41101e-05
0.000110505
7.34632e-05
8.03383e-05
7.66098e-05
4.96316e-05
4.96244e-05
7.73541e-05
7.65892e-05
4.96315e-05
4.96193e-05
7.73911e-05
2.35844e-05
2.35825e-05
2.35833e-05
2.3581e-05
8.38373e-05
6.5083e-05
6.50856e-05
6.47979e-05
6.47785e-05
2.35779e-05
2.35806e-05
2.35771e-05
2.35792e-05
2.3578e-05
2.35759e-05
2.35761e-05
2.35738e-05
6.5128e-05
6.5125e-05
8.50474e-05
6.54053e-05
6.54019e-05
2.35722e-05
2.35741e-05
2.35701e-05
2.35718e-05
8.53296e-05
6.57327e-05
6.57049e-05
6.54361e-05
6.54296e-05
7.7961e-05
4.96321e-05
7.73694e-05
4.964e-05
8.18598e-05
7.42304e-05
0.000109203
9.22785e-05
8.07205e-05
7.48514e-05
0.000108584
8.18682e-05
7.42004e-05
0.000109181
9.22212e-05
8.06817e-05
7.48394e-05
0.000108598
7.80147e-05
4.96469e-05
4.96433e-05
7.84919e-05
7.80238e-05
4.9641e-05
4.96398e-05
7.84795e-05
8.21391e-05
9.22185e-05
7.55861e-05
0.000107508
7.49475e-05
0.000108036
8.33168e-05
8.2148e-05
9.21485e-05
7.55276e-05
0.0001075
7.49321e-05
0.000108025
8.32824e-05
6.51044e-05
6.51116e-05
8.48661e-05
6.53898e-05
6.5383e-05
2.35771e-05
2.35748e-05
2.35704e-05
2.35723e-05
8.51325e-05
6.57051e-05
6.57037e-05
6.54241e-05
6.54127e-05
2.35714e-05
2.35729e-05
8.19073e-05
7.42418e-05
0.00010923
9.23273e-05
8.07165e-05
7.48424e-05
0.000108628
7.7973e-05
4.96302e-05
7.74002e-05
4.9634e-05
8.19613e-05
0.000109251
7.42522e-05
9.23559e-05
8.0723e-05
0.000108656
7.48624e-05
7.79806e-05
4.96409e-05
4.96356e-05
7.83448e-05
8.21416e-05
9.22306e-05
7.55175e-05
0.000107446
7.49195e-05
0.000108032
8.30199e-05
7.80082e-05
4.96344e-05
4.96335e-05
7.83279e-05
8.21911e-05
9.22733e-05
0.000107493
7.55084e-05
0.000108071
7.4943e-05
8.3006e-05
7.79656e-05
4.96349e-05
7.73845e-05
4.96394e-05
8.1852e-05
0.000109176
7.42202e-05
9.22299e-05
8.07092e-05
0.000108553
7.48026e-05
7.79089e-05
4.96299e-05
7.74051e-05
4.96339e-05
8.21108e-05
9.21292e-05
7.5507e-05
0.000107436
7.48892e-05
0.000107963
8.3076e-05
7.80071e-05
4.96425e-05
4.96391e-05
7.83701e-05
8.20517e-05
9.21871e-05
0.00010747
7.55481e-05
0.00010798
7.48874e-05
8.31103e-05
7.79596e-05
4.96427e-05
4.96352e-05
7.84082e-05
6.51296e-05
6.51243e-05
8.5095e-05
6.53949e-05
6.53869e-05
2.35767e-05
2.35743e-05
2.35691e-05
2.35707e-05
8.53782e-05
6.56938e-05
6.57483e-05
6.54234e-05
6.54113e-05
2.35716e-05
2.35725e-05
8.19831e-05
0.00010922
7.42283e-05
9.22878e-05
8.07816e-05
0.000108624
7.48411e-05
7.79132e-05
4.96331e-05
7.75599e-05
4.96369e-05
7.79119e-05
4.96324e-05
7.75864e-05
4.96344e-05
8.20749e-05
9.22411e-05
0.000107482
7.55614e-05
0.000108005
7.48675e-05
8.30007e-05
8.20814e-05
9.22327e-05
0.000107498
7.5555e-05
0.000108034
7.49147e-05
8.30326e-05
7.78941e-05
4.96445e-05
4.96369e-05
7.8395e-05
7.7893e-05
4.96396e-05
4.96342e-05
7.84155e-05
2.35758e-05
2.35739e-05
2.35752e-05
2.3573e-05
8.52646e-05
6.57277e-05
6.57262e-05
6.54131e-05
6.54185e-05
2.35707e-05
2.35723e-05
2.35697e-05
2.35712e-05
2.35704e-05
2.35689e-05
2.35686e-05
2.35674e-05
6.57689e-05
6.57441e-05
8.72609e-05
6.6045e-05
6.60622e-05
2.35665e-05
2.35675e-05
2.35643e-05
2.35659e-05
8.76246e-05
6.63613e-05
6.63567e-05
6.60783e-05
6.60975e-05
7.88505e-05
4.96412e-05
7.85005e-05
4.96505e-05
8.43297e-05
7.56592e-05
0.000107048
9.24589e-05
8.34883e-05
7.62312e-05
0.000106513
8.4322e-05
7.56043e-05
0.000107003
9.25091e-05
8.34387e-05
7.62375e-05
0.000106499
7.8936e-05
4.9663e-05
4.96507e-05
7.96703e-05
7.89422e-05
4.96579e-05
4.96525e-05
7.96983e-05
8.45404e-05
9.2501e-05
7.69043e-05
0.000105531
7.62954e-05
0.000105984
8.59486e-05
8.45492e-05
9.257e-05
7.69443e-05
0.000105565
7.63183e-05
0.000105979
8.60167e-05
6.57417e-05
6.57631e-05
8.7449e-05
6.60604e-05
6.60611e-05
2.35699e-05
2.35682e-05
2.35651e-05
2.35663e-05
8.79183e-05
6.63288e-05
6.6318e-05
6.60943e-05
6.60815e-05
2.3566e-05
2.35665e-05
8.44173e-05
7.5594e-05
0.000106896
9.24153e-05
8.31949e-05
7.62393e-05
0.000106381
7.89768e-05
4.96352e-05
7.83598e-05
4.96475e-05
8.43809e-05
0.000106904
7.55949e-05
9.23464e-05
8.31609e-05
0.000106358
7.62091e-05
7.90964e-05
4.9657e-05
4.96519e-05
7.97125e-05
8.4692e-05
9.2493e-05
7.69626e-05
0.000105552
7.63296e-05
0.000105923
8.60631e-05
7.90984e-05
4.96537e-05
4.96493e-05
7.97183e-05
8.46689e-05
9.2412e-05
0.000105515
7.69438e-05
0.000105885
7.63009e-05
8.60605e-05
7.90492e-05
4.96439e-05
7.84365e-05
4.96517e-05
8.4618e-05
0.000107019
7.56709e-05
9.24687e-05
8.33444e-05
0.000106534
7.62617e-05
7.90383e-05
4.96429e-05
7.84798e-05
4.96448e-05
8.48334e-05
9.26303e-05
7.68877e-05
0.000105646
7.63335e-05
0.000106079
8.58312e-05
7.91061e-05
4.96562e-05
4.96518e-05
7.94785e-05
8.47979e-05
9.252e-05
0.000105585
7.68603e-05
0.000106035
7.62831e-05
8.57962e-05
7.90834e-05
4.96561e-05
4.96454e-05
7.94513e-05
6.5735e-05
6.58133e-05
8.73114e-05
6.60635e-05
6.60862e-05
2.35702e-05
2.3568e-05
2.35633e-05
2.35648e-05
8.76588e-05
6.6346e-05
6.63153e-05
6.60946e-05
6.61044e-05
2.35647e-05
2.3566e-05
8.48159e-05
0.000107041
7.56765e-05
9.25228e-05
8.3398e-05
0.000106577
7.62915e-05
7.91534e-05
4.96464e-05
7.86244e-05
4.96506e-05
7.9122e-05
4.96411e-05
7.86323e-05
4.96454e-05
8.49799e-05
9.25742e-05
0.000105711
7.68939e-05
0.000106137
7.63657e-05
8.57195e-05
8.49089e-05
9.25909e-05
0.000105669
7.68524e-05
0.000106124
7.63211e-05
8.57163e-05
7.9152e-05
4.96542e-05
4.96502e-05
7.93472e-05
7.91187e-05
4.96517e-05
4.96453e-05
7.93669e-05
2.35691e-05
2.35671e-05
2.35682e-05
2.35663e-05
8.77405e-05
6.63056e-05
6.6279e-05
6.60707e-05
6.60882e-05
2.35648e-05
2.35654e-05
2.35631e-05
2.35644e-05
2.3565e-05
2.35638e-05
2.35626e-05
2.35614e-05
6.63899e-05
6.63793e-05
8.94546e-05
6.66453e-05
6.66071e-05
2.35624e-05
2.35601e-05
8.98647e-05
6.67031e-05
6.66522e-05
8.01002e-05
4.96576e-05
7.97669e-05
4.96591e-05
8.73277e-05
7.69828e-05
0.000105143
9.2718e-05
8.62115e-05
7.76286e-05
0.000104747
8.72813e-05
7.70308e-05
0.000105212
9.30217e-05
8.62718e-05
7.76863e-05
0.000104821
8.01734e-05
4.96654e-05
8.04885e-05
8.012e-05
4.96629e-05
4.9659e-05
8.04701e-05
8.74735e-05
9.29759e-05
0.000104095
7.77235e-05
0.000104388
8.85256e-05
8.73911e-05
9.32054e-05
7.82028e-05
0.000104109
7.77593e-05
0.000104443
8.84884e-05
6.63795e-05
6.64096e-05
8.97489e-05
6.67556e-05
6.68034e-05
2.3565e-05
2.35642e-05
2.35574e-05
2.35608e-05
9.01127e-05
6.6917e-05
6.69386e-05
6.68016e-05
6.68405e-05
2.35584e-05
2.35621e-05
8.7323e-05
7.70252e-05
0.00010521
9.2791e-05
8.6324e-05
7.75642e-05
0.000104835
8.00224e-05
4.96534e-05
7.97677e-05
4.96543e-05
8.73104e-05
0.000105184
7.70437e-05
9.27981e-05
8.63205e-05
0.00010482
7.75755e-05
8.00334e-05
4.96577e-05
8.7338e-05
9.29952e-05
7.76225e-05
0.000104439
8.0024e-05
4.96542e-05
8.73387e-05
9.29232e-05
0.000104417
7.76197e-05
8.02843e-05
4.96579e-05
7.95597e-05
4.96659e-05
8.75432e-05
0.00010523
7.69823e-05
9.28788e-05
8.6002e-05
0.000104901
7.77365e-05
8.031e-05
4.96579e-05
7.95713e-05
4.96613e-05
8.77725e-05
9.33206e-05
7.82873e-05
0.000104355
7.78657e-05
0.00010463
8.87661e-05
8.03717e-05
4.96655e-05
4.96655e-05
8.06031e-05
8.78013e-05
9.31336e-05
0.0001043
7.82439e-05
0.000104589
7.78e-05
8.8677e-05
8.03829e-05
4.96595e-05
4.96604e-05
8.0541e-05
6.63812e-05
6.63604e-05
8.94074e-05
6.6631e-05
6.66762e-05
2.35634e-05
2.35625e-05
2.35587e-05
8.98205e-05
6.66521e-05
6.67041e-05
2.3561e-05
8.74377e-05
0.000105262
7.69493e-05
9.28494e-05
8.5966e-05
0.000104858
7.76318e-05
8.02332e-05
4.96558e-05
7.95103e-05
4.96634e-05
8.02309e-05
4.96535e-05
7.95481e-05
4.96597e-05
8.76114e-05
9.29834e-05
0.000104129
0.000104466
7.7694e-05
8.84861e-05
8.75933e-05
9.30408e-05
0.000104097
7.82932e-05
0.000104446
7.77109e-05
8.84617e-05
8.02798e-05
4.96633e-05
8.05037e-05
8.02683e-05
4.96616e-05
4.96595e-05
8.04847e-05
2.35636e-05
2.35625e-05
2.35619e-05
2.35614e-05
8.98646e-05
6.69262e-05
6.6979e-05
6.67585e-05
6.67308e-05
2.35581e-05
2.35606e-05
2.35581e-05
2.356e-05
2.36153e-05
2.36128e-05
7.15534e-05
2.15369e-05
2.15336e-05
2.15381e-05
2.15348e-05
7.16235e-05
7.57416e-05
7.33851e-05
6.22232e-05
4.71924e-05
7.38978e-05
4.72028e-05
7.53311e-05
7.57741e-05
7.33779e-05
6.22071e-05
4.71825e-05
4.71928e-05
7.53633e-05
7.38781e-05
7.58625e-05
4.72137e-05
6.22728e-05
7.4552e-05
7.4099e-05
4.72065e-05
7.61619e-05
7.59024e-05
4.72039e-05
6.2253e-05
7.45461e-05
4.71964e-05
7.62078e-05
7.40807e-05
7.14702e-05
2.15401e-05
2.15368e-05
2.15405e-05
2.15371e-05
7.12334e-05
3.62144e-05
7.34567e-05
4.03935e-05
7.37669e-05
4.03893e-05
7.36089e-05
3.6216e-05
2.01941e-05
6.9598e-05
4.95957e-05
6.96814e-05
2.01944e-05
3.62145e-05
7.33933e-05
4.03844e-05
7.33543e-05
4.0388e-05
7.35397e-05
3.62132e-05
2.01913e-05
6.97895e-05
4.95966e-05
6.97133e-05
2.01911e-05
2.3604e-05
2.36016e-05
3.62145e-05
7.34524e-05
7.38167e-05
4.03931e-05
7.36074e-05
4.03888e-05
3.62165e-05
2.01941e-05
6.95866e-05
4.9592e-05
6.96844e-05
2.01944e-05
3.62143e-05
7.33693e-05
7.32922e-05
4.03833e-05
7.35142e-05
4.03873e-05
3.62125e-05
2.01914e-05
6.98058e-05
4.95931e-05
6.97186e-05
2.01913e-05
2.36026e-05
2.36002e-05
7.22529e-05
2.15279e-05
2.15247e-05
2.15285e-05
2.15255e-05
7.23579e-05
7.72911e-05
7.58512e-05
4.72363e-05
6.30674e-05
7.69081e-05
7.63255e-05
4.72456e-05
7.73335e-05
7.58622e-05
4.7227e-05
6.30646e-05
7.69522e-05
7.63306e-05
4.7236e-05
7.2124e-05
2.15292e-05
2.15261e-05
7.18494e-05
2.15301e-05
2.1527e-05
7.74807e-05
4.72573e-05
6.31142e-05
7.70174e-05
7.65328e-05
4.72494e-05
7.78177e-05
7.75253e-05
4.72476e-05
6.3108e-05
7.70317e-05
7.65397e-05
4.72397e-05
7.7862e-05
3.62217e-05
7.51103e-05
4.04142e-05
7.50439e-05
4.04114e-05
7.48899e-05
3.62224e-05
2.01835e-05
7.01613e-05
4.96145e-05
2.0184e-05
7.02719e-05
3.62222e-05
7.50419e-05
4.04072e-05
7.46011e-05
3.62212e-05
4.04105e-05
7.48157e-05
2.01801e-05
7.03412e-05
4.96149e-05
7.02955e-05
2.01795e-05
2.35939e-05
2.35916e-05
3.62209e-05
7.51283e-05
7.5034e-05
4.04131e-05
7.48702e-05
4.04103e-05
3.62218e-05
2.01829e-05
7.01682e-05
4.96094e-05
2.01833e-05
7.02358e-05
3.62213e-05
7.50558e-05
7.46083e-05
4.04065e-05
3.62203e-05
7.47975e-05
4.04095e-05
2.018e-05
7.03286e-05
4.961e-05
7.02617e-05
2.01797e-05
2.35925e-05
2.35902e-05
7.25336e-05
2.15156e-05
2.15125e-05
2.15149e-05
2.15118e-05
7.27696e-05
7.85048e-05
7.81216e-05
4.7273e-05
6.38604e-05
7.82423e-05
7.85145e-05
4.72804e-05
7.8528e-05
7.81134e-05
4.72628e-05
6.38348e-05
7.82762e-05
7.84952e-05
4.727e-05
7.23767e-05
2.1515e-05
2.15119e-05
7.23248e-05
2.15157e-05
2.15126e-05
7.86943e-05
4.72933e-05
6.39014e-05
7.91809e-05
7.86918e-05
4.72844e-05
7.90871e-05
7.87208e-05
4.72836e-05
6.38747e-05
7.9163e-05
7.86698e-05
4.72742e-05
7.91176e-05
3.62234e-05
7.64254e-05
4.0429e-05
7.60289e-05
4.04263e-05
7.58632e-05
3.62244e-05
2.01706e-05
7.05497e-05
4.96253e-05
2.01708e-05
7.06301e-05
3.62238e-05
7.63556e-05
4.04226e-05
7.55962e-05
3.62229e-05
4.04255e-05
7.5787e-05
2.01679e-05
7.07155e-05
4.96259e-05
7.06561e-05
2.01678e-05
2.35845e-05
2.35826e-05
3.62229e-05
7.64241e-05
7.6005e-05
4.04287e-05
7.58346e-05
4.04257e-05
3.6224e-05
2.01701e-05
7.05671e-05
4.96199e-05
2.01704e-05
7.06044e-05
3.62233e-05
7.63447e-05
7.56166e-05
4.04217e-05
3.62224e-05
7.5766e-05
4.04248e-05
2.01677e-05
7.07075e-05
4.96207e-05
7.06283e-05
2.01678e-05
2.35831e-05
2.35811e-05
7.29768e-05
2.15005e-05
2.14973e-05
2.15007e-05
2.14976e-05
7.30524e-05
7.98876e-05
8.03882e-05
4.73088e-05
6.45689e-05
7.97283e-05
8.07337e-05
4.73135e-05
7.99257e-05
8.04181e-05
4.72995e-05
6.45737e-05
7.97721e-05
8.0751e-05
4.73036e-05
7.29692e-05
2.15038e-05
2.15007e-05
7.29458e-05
2.15033e-05
2.15001e-05
7.99235e-05
4.73225e-05
6.46059e-05
8.12588e-05
8.08489e-05
4.7316e-05
8.0196e-05
7.99516e-05
4.7312e-05
6.46052e-05
8.12485e-05
8.08535e-05
4.73059e-05
8.02123e-05
3.62248e-05
7.77119e-05
4.04405e-05
7.70274e-05
4.04388e-05
7.68785e-05
3.62251e-05
2.01603e-05
7.10213e-05
4.96404e-05
2.01607e-05
7.10979e-05
3.62257e-05
7.76519e-05
4.04361e-05
7.66314e-05
3.62251e-05
4.04384e-05
7.68117e-05
2.01573e-05
7.11683e-05
4.96408e-05
7.11158e-05
2.01569e-05
2.35762e-05
2.35744e-05
3.6223e-05
7.77182e-05
7.69666e-05
4.04383e-05
7.68533e-05
4.04373e-05
3.6223e-05
2.01585e-05
7.10273e-05
4.96341e-05
2.01592e-05
7.1066e-05
3.62242e-05
7.76573e-05
7.66695e-05
4.04355e-05
3.62241e-05
7.68069e-05
4.04372e-05
2.01554e-05
7.11078e-05
4.9634e-05
7.10705e-05
2.0155e-05
2.3575e-05
2.35729e-05
7.31491e-05
2.14915e-05
2.14884e-05
2.14901e-05
2.14871e-05
7.32921e-05
8.09116e-05
8.2318e-05
4.73381e-05
6.52167e-05
8.07108e-05
8.2691e-05
4.73436e-05
8.09524e-05
8.23262e-05
4.73289e-05
6.52318e-05
8.07516e-05
8.27031e-05
4.73345e-05
7.31301e-05
2.14908e-05
2.14877e-05
7.31148e-05
2.14911e-05
2.1488e-05
8.09807e-05
4.73541e-05
6.52478e-05
8.32839e-05
8.28526e-05
4.73466e-05
8.13099e-05
8.10166e-05
4.73445e-05
6.52623e-05
8.32968e-05
8.28701e-05
4.73373e-05
8.13435e-05
3.62209e-05
7.86962e-05
4.04443e-05
7.77231e-05
4.04427e-05
7.7617e-05
3.62216e-05
2.01473e-05
7.13321e-05
4.96475e-05
2.01475e-05
7.13668e-05
3.62218e-05
7.86718e-05
4.04417e-05
7.74796e-05
3.62216e-05
4.04426e-05
7.75802e-05
2.01452e-05
7.14053e-05
4.96475e-05
7.13725e-05
2.01454e-05
2.3569e-05
2.35676e-05
3.62219e-05
7.8691e-05
7.78348e-05
4.04467e-05
7.76251e-05
4.04439e-05
3.6223e-05
2.01485e-05
7.1282e-05
4.9645e-05
2.01482e-05
7.13674e-05
3.62222e-05
7.86016e-05
7.73782e-05
4.04406e-05
3.62212e-05
7.75401e-05
4.0443e-05
2.01466e-05
7.15214e-05
4.96464e-05
7.14082e-05
2.01469e-05
2.35678e-05
2.35663e-05
7.3936e-05
2.14828e-05
2.14796e-05
2.1484e-05
2.14808e-05
7.39333e-05
8.25095e-05
8.46716e-05
4.73763e-05
6.59156e-05
8.2259e-05
8.50873e-05
4.73815e-05
8.25525e-05
8.46871e-05
4.7367e-05
6.59218e-05
8.23043e-05
8.50972e-05
4.73724e-05
7.39364e-05
2.14889e-05
2.14859e-05
7.38901e-05
2.14879e-05
2.14848e-05
8.25762e-05
4.73858e-05
6.59511e-05
8.56141e-05
8.52628e-05
4.73828e-05
8.27329e-05
8.26166e-05
4.73768e-05
6.596e-05
8.5633e-05
8.52818e-05
4.73737e-05
8.27719e-05
3.62215e-05
7.99957e-05
4.04501e-05
7.87802e-05
4.04499e-05
7.86709e-05
3.6221e-05
2.01402e-05
7.18092e-05
4.96657e-05
2.01408e-05
7.18733e-05
3.62229e-05
7.9958e-05
4.04501e-05
7.84431e-05
3.62227e-05
4.04507e-05
7.86219e-05
2.01366e-05
7.19133e-05
4.96654e-05
7.18765e-05
2.01359e-05
2.35642e-05
2.35628e-05
3.62176e-05
7.99422e-05
7.86234e-05
4.04471e-05
7.85774e-05
4.0447e-05
3.62172e-05
2.01375e-05
7.17563e-05
4.96574e-05
2.01381e-05
7.17897e-05
3.62201e-05
7.99236e-05
7.84586e-05
4.0448e-05
3.62207e-05
7.85605e-05
4.04481e-05
2.01346e-05
7.18098e-05
4.9657e-05
7.17834e-05
2.01342e-05
2.35619e-05
2.35603e-05
7.43292e-05
2.14796e-05
2.14766e-05
2.14793e-05
2.14763e-05
7.44642e-05
8.34069e-05
8.64542e-05
4.74013e-05
6.65522e-05
8.30371e-05
8.6894e-05
4.74108e-05
8.34022e-05
8.64324e-05
4.73892e-05
6.64781e-05
8.30369e-05
8.68246e-05
4.73983e-05
7.41836e-05
2.14782e-05
2.1475e-05
7.39074e-05
2.14799e-05
2.14767e-05
8.35888e-05
4.74208e-05
6.66072e-05
8.75923e-05
8.7129e-05
4.74144e-05
8.39207e-05
8.35886e-05
4.74102e-05
6.65363e-05
8.75171e-05
8.70644e-05
4.74024e-05
8.39314e-05
7.1505e-05
2.15308e-05
2.15339e-05
2.1532e-05
2.15351e-05
7.15166e-05
7.58281e-05
7.35531e-05
6.22226e-05
4.71855e-05
4.71924e-05
7.55716e-05
7.39843e-05
7.57815e-05
7.35388e-05
6.22192e-05
4.7194e-05
7.39703e-05
4.72008e-05
7.55248e-05
7.58507e-05
4.72009e-05
6.22623e-05
7.44658e-05
4.71949e-05
7.60581e-05
7.40952e-05
7.58129e-05
4.72095e-05
6.22599e-05
7.44653e-05
7.40878e-05
4.72033e-05
7.60207e-05
7.15111e-05
2.15383e-05
2.15413e-05
2.15367e-05
2.15398e-05
7.1469e-05
2.36161e-05
2.36136e-05
2.36071e-05
2.36095e-05
7.15047e-05
2.15271e-05
2.15302e-05
7.14896e-05
2.15269e-05
2.153e-05
7.63844e-05
7.55873e-05
6.26789e-05
4.72233e-05
4.72143e-05
7.67463e-05
7.5125e-05
7.63416e-05
7.55705e-05
6.26829e-05
4.72317e-05
4.72228e-05
7.51175e-05
7.66974e-05
7.63046e-05
4.72035e-05
7.45613e-05
6.2639e-05
7.60744e-05
4.72106e-05
7.4965e-05
7.62648e-05
4.72122e-05
7.45646e-05
6.26451e-05
7.60436e-05
4.72192e-05
7.49646e-05
7.15259e-05
2.15262e-05
2.15293e-05
2.15254e-05
2.15285e-05
7.16738e-05
2.36079e-05
2.36104e-05
3.62064e-05
7.25793e-05
4.03696e-05
7.17474e-05
7.22848e-05
4.0365e-05
3.62089e-05
2.0206e-05
4.95748e-05
6.89964e-05
6.90971e-05
2.02061e-05
2.02036e-05
6.92692e-05
4.95764e-05
6.91401e-05
2.02036e-05
3.62057e-05
7.1595e-05
7.18928e-05
4.03573e-05
7.21708e-05
4.03631e-05
3.62028e-05
3.62056e-05
4.03701e-05
7.26416e-05
7.17992e-05
4.03658e-05
7.23872e-05
3.62072e-05
2.02053e-05
4.95733e-05
6.89628e-05