/*--------------------------------*- C++ -*----------------------------------*\
| =========                 |                                                 |
| \\      /  F ield         | OpenFOAM: The Open Source CFD Toolbox           |
|  \\    /   O peration     | Version:  v2006                                 |
|   \\  /    A nd           | Website:  www.openfoam.com                      |
|    \\/     M anipulation  |                                                 |
\*---------------------------------------------------------------------------*/
FoamFile
{
    version     2.0;
    format      ascii;
    class       volScalarField;
    location    "1000";
    object      p;
}
// * * * * * * * * * * * * * * * * * * * * * * * * * * * * * * * * * * * * * //

dimensions      [0 2 -2 0 0 0 0];


internalField   nonuniform List<scalar> 
171728
(
0.00261374
0.00261618
0.00257414
0.00257408
0.00257408
0.00257652
0.00253471
0.00253465
0.00253465
0.00253706
0.0024955
0.00249544
0.00249544
0.00249783
0.00245651
0.00245645
0.00245646
0.00245884
0.00241772
0.00241768
0.00241768
0.00242005
0.00237911
0.00237906
0.00237907
0.00238141
0.00261618
0.00258169
0.00261374
0.00258397
0.00258397
0.00258169
0.00257651
0.00254221
0.00257408
0.00257409
0.00254449
0.00254449
0.00257652
0.00254222
0.00257408
0.00257409
0.00254449
0.00254448
0.00257408
0.00254449
0.00254448
0.00257652
0.00254221
0.00257408
0.00254448
0.00254448
0.00254221
0.00253706
0.00250296
0.00253465
0.00253465
0.00250523
0.00250522
0.00253707
0.00250296
0.00253465
0.00253465
0.00250523
0.00250522
0.00253464
0.00250522
0.00250522
0.00253707
0.00250296
0.00253464
0.00250522
0.00250522
0.00250296
0.00249784
0.00246395
0.00249544
0.00249544
0.00246619
0.00246617
0.00249784
0.00246393
0.00249544
0.00249544
0.00246619
0.00246618
0.00249543
0.00246617
0.00246618
0.00249784
0.00246394
0.00249543
0.00246618
0.00246618
0.00246393
0.00245885
0.00242512
0.00245646
0.00245645
0.00242735
0.00242736
0.00245883
0.00242513
0.00245646
0.00245646
0.00242735
0.00242735
0.00245645
0.00242735
0.00242735
0.00245884
0.00242512
0.00245646
0.00242735
0.00242735
0.00242513
0.00242004
0.00238647
0.00241767
0.00241768
0.0023887
0.00238869
0.00242005
0.00238647
0.00241767
0.00241767
0.0023887
0.00238869
0.00241768
0.00238869
0.00238869
0.00242005
0.00238647
0.00241768
0.00238869
0.00238869
0.00238647
0.00238141
0.00237907
0.00237906
0.0023502
0.00238141
0.00234797
0.00237906
0.00237907
0.00237907
0.0023502
0.00235021
0.00238142
0.00237907
0.00235022
0.00234799
0.00261599
0.00260113
0.00260147
0.00261609
0.00261376
0.0026038
0.00260131
0.00260383
0.0026162
0.00261607
0.00261607
0.00260624
0.00260119
0.00260119
0.00256165
0.00257635
0.00257641
0.00256158
0.00257633
0.00256155
0.00256164
0.00257635
0.00257642
0.00256157
0.00257411
0.00257412
0.00257411
0.00254455
0.00254455
0.00254455
0.00254454
0.00256188
0.0025764
0.0025741
0.00256421
0.00257651
0.00256172
0.00256423
0.00257632
0.00256155
0.00256188
0.0025741
0.00257652
0.0025642
0.00257655
0.00256422
0.00256172
0.00257639
0.00257639
0.00256193
0.0025616
0.0025616
0.00252228
0.00253691
0.00253697
0.00252222
0.00253689
0.0025222
0.00252228
0.00253691
0.00253697
0.00252221
0.00253471
0.00253471
0.00253471
0.00250528
0.00250528
0.00250528
0.00250528
0.0025225
0.00253695
0.00253467
0.00252483
0.00253705
0.00252235
0.00252485
0.0025369
0.0025222
0.0025225
0.00253466
0.00253695
0.00252483
0.00253704
0.00252485
0.00252235
0.00253696
0.00253696
0.00252257
0.00252224
0.00252224
0.00248313
0.00249769
0.00249775
0.00248307
0.00249768
0.00248305
0.00248313
0.00249769
0.00249775
0.00248307
0.0024955
0.0024955
0.0024955
0.00246624
0.00246623
0.00246624
0.00246623
0.00248334
0.00249772
0.00249545
0.00248567
0.00249781
0.0024832
0.00248568
0.00249767
0.00248305
0.00248332
0.00249546
0.00249772
0.00248567
0.0024978
0.00248568
0.00248319
0.00249774
0.00249773
0.00248342
0.0024831
0.0024831
0.0024442
0.00245868
0.00245874
0.00244413
0.00245867
0.00244412
0.0024442
0.00245868
0.00245874
0.00244414
0.00245651
0.00245651
0.00245651
0.0024274
0.0024274
0.0024274
0.0024274
0.00244438
0.00245871
0.00245646
0.00244674
0.00245879
0.00244425
0.00244675
0.00245867
0.00244412
0.00244436
0.00245647
0.00245871
0.00244674
0.00245879
0.00244675
0.00244425
0.00245872
0.00245872
0.00244451
0.00244416
0.00244415
0.00240547
0.00241988
0.00241993
0.0024054
0.00241985
0.00240538
0.00240546
0.00241987
0.00241994
0.00240539
0.00241772
0.00241772
0.00241772
0.00238874
0.00238874
0.00238874
0.00238874
0.00240564
0.00241989
0.00241768
0.00240801
0.00241997
0.0024055
0.00240801
0.00241985
0.00240539
0.00240562
0.00241768
0.0024199
0.002408
0.00241999
0.00240801
0.00240551
0.00241989
0.0024199
0.00240576
0.00240543
0.00240543
0.0023669
0.00238125
0.0023813
0.00236684
0.00238123
0.00236683
0.00236691
0.00238125
0.00238129
0.00236685
0.00237911
0.00237911
0.00237911
0.00235025
0.00235025
0.00236708
0.00238128
0.00237907
0.00236944
0.00238135
0.00236695
0.00236945
0.00238124
0.00236683
0.00236708
0.00237907
0.00238127
0.00236945
0.00238136
0.00236945
0.00236695
0.00238128
0.00238128
0.00236723
0.00236685
0.00236686
0.00261607
0.00261607
0.00260623
0.0026012
0.0026012
0.002616
0.00260113
0.00258131
0.00259614
0.00259158
0.00258136
0.00258136
0.00259621
0.00259621
0.00258131
0.00259614
0.00260122
0.00261602
0.00260114
0.0026161
0.00260147
0.00261376
0.00261609
0.00260381
0.00260383
0.00260131
0.00261621
0.00260122
0.00261602
0.00260114
0.0026161
0.00259631
0.00259387
0.00258148
0.00258399
0.00259621
0.0025939
0.00258164
0.00259622
0.00258133
0.00259615
0.00258141
0.00259631
0.00259388
0.00258399
0.00258148
0.0025939
0.0025962
0.00258164
0.00259622
0.00258133
0.00259615
0.00258141
0.00261599
0.00260112
0.00261599
0.00260112
0.00259158
0.00258136
0.00258136
0.0025962
0.0025962
0.00258131
0.00259613
0.00258131
0.00259613
0.00257633
0.00256155
0.00257633
0.00256155
0.00257639
0.00257639
0.00256193
0.0025616
0.0025616
0.00254185
0.00255658
0.00254185
0.00255658
0.00255677
0.00254191
0.00254191
0.00255665
0.00255665
0.00256164
0.00257635
0.00257642
0.00256157
0.00256187
0.00257652
0.0025741
0.0025642
0.00257654
0.00256172
0.00256422
0.00256187
0.00257653
0.0025741
0.00256421
0.00257655
0.00256171
0.00256422
0.00255668
0.00254186
0.00255661
0.00254194
0.00255667
0.00254186
0.0025566
0.00254194
0.00255675
0.00255434
0.00254201
0.00254451
0.00255665
0.00255435
0.00254217
0.00255675
0.00255434
0.00254201
0.0025445
0.00255665
0.00255436
0.00254217
0.00257639
0.00257639
0.00256193
0.0025616
0.0025616
0.00257633
0.00256155
0.00254184
0.00255658
0.00255677
0.0025419
0.0025419
0.00255664
0.00255664
0.00254184
0.00255658
0.00256188
0.00257652
0.0025741
0.0025642
0.00257655
0.00256172
0.00256422
0.00256164
0.00257635
0.00257641
0.00256157
0.00256187
0.00257411
0.00257656
0.0025642
0.00257655
0.00256422
0.00256171
0.00255667
0.00254186
0.0025566
0.00254193
0.00255676
0.00255434
0.002542
0.00254451
0.00255665
0.00255435
0.00254217
0.00255667
0.00254186
0.0025566
0.00254193
0.00255676
0.00255433
0.00254451
0.00254201
0.00255435
0.00255665
0.00254217
0.00256164
0.00257635
0.00257642
0.00256157
0.00256188
0.0025741
0.0025764
0.00256421
0.00257651
0.00256423
0.00256172
0.00256164
0.00257636
0.00257642
0.00256156
0.00255675
0.00255434
0.002542
0.0025445
0.00255665
0.00255436
0.00254216
0.00255667
0.00254186
0.0025566
0.00254193
0.00255675
0.00255434
0.0025445
0.002542
0.00255436
0.00255665
0.00254216
0.00255667
0.00254186
0.0025566
0.00254193
0.00257639
0.00257639
0.00256192
0.00256161
0.00256161
0.00257632
0.00256155
0.00254185
0.00255658
0.00255676
0.00254191
0.00254191
0.00255665
0.00255665
0.00254185
0.00255659
0.00256188
0.0025741
0.00257653
0.00256421
0.00257655
0.00256422
0.00256172
0.00256164
0.00257635
0.00257642
0.00256157
0.00256165
0.00257635
0.00257642
0.00256157
0.00255675
0.00255434
0.0025445
0.002542
0.00255436
0.00255665
0.00254215
0.00255675
0.00255434
0.0025445
0.002542
0.00255436
0.00255665
0.00254215
0.00255667
0.00254186
0.0025566
0.00254193
0.00255667
0.00254186
0.00255661
0.00254193
0.00257633
0.00256154
0.00257633
0.00256155
0.00255677
0.00254191
0.00254191
0.00255665
0.00255665
0.00254185
0.00255658
0.00254185
0.00255658
0.0025369
0.0025222
0.0025369
0.0025222
0.00253697
0.00253696
0.00252257
0.00252224
0.00252224
0.0025026
0.00251726
0.0025026
0.00251726
0.00251744
0.00250265
0.00250265
0.00251731
0.00251731
0.00252228
0.00253691
0.00253698
0.00252221
0.00252249
0.00253695
0.00253467
0.00252482
0.00253705
0.00252235
0.00252484
0.00252249
0.00253695
0.00253467
0.00252483
0.00253705
0.00252235
0.00252485
0.00251733
0.00250261
0.00251728
0.00250268
0.00251733
0.00250262
0.00251728
0.00250268
0.0025174
0.00251502
0.00250275
0.00250523
0.00251731
0.00251503
0.00250289
0.0025174
0.00251502
0.00250275
0.00250523
0.00251731
0.00251503
0.00250289
0.00253696
0.00253696
0.00252257
0.00252225
0.00252225
0.00253689
0.0025222
0.0025026
0.00251726
0.00251743
0.00250265
0.00250265
0.00251732
0.00251732
0.0025026
0.00251726
0.00252249
0.00253695
0.00253467
0.00252482
0.00253705
0.00252235
0.00252484
0.00252228
0.00253691
0.00253697
0.00252222
0.00252249
0.00253467
0.00253695
0.00252483
0.00253705
0.00252484
0.00252235
0.00251733
0.00250262
0.00251728
0.00250268
0.00251739
0.00251502
0.00250275
0.00250523
0.00251731
0.00251503
0.00250289
0.00251733
0.00250261
0.00251728
0.00250268
0.00251739
0.00251502
0.00250523
0.00250275
0.00251503
0.00251731
0.0025029
0.00252228
0.00253691
0.00253697
0.00252222
0.0025225
0.00253466
0.00253695
0.00252484
0.00253705
0.00252485
0.00252235
0.00252228
0.00253691
0.00253698
0.00252222
0.0025174
0.00251502
0.00250275
0.00250523
0.00251732
0.00251503
0.00250289
0.00251734
0.00250261
0.00251728
0.00250268
0.0025174
0.00251503
0.00250523
0.00250274
0.00251503
0.00251731
0.00250289
0.00251734
0.00250262
0.00251728
0.00250268
0.00253696
0.00253696
0.00252257
0.00252224
0.00252225
0.0025369
0.0025222
0.0025026
0.00251726
0.00251743
0.00250265
0.00250265
0.00251731
0.00251732
0.0025026
0.00251726
0.0025225
0.00253466
0.00253695
0.00252483
0.00253704
0.00252484
0.00252235
0.00252229
0.00253691
0.00253697
0.00252222
0.00252229
0.00253691
0.00253697
0.00252222
0.00251741
0.00251502
0.00250523
0.00250275
0.00251503
0.00251732
0.0025029
0.00251741
0.00251503
0.00250523
0.00250274
0.00251503
0.00251732
0.00250289
0.00251735
0.00250261
0.00251728
0.00250267
0.00251735
0.00250261
0.00251728
0.00250267
0.0025369
0.00252219
0.0025369
0.0025222
0.00251744
0.00250265
0.00250265
0.00251731
0.00251731
0.0025026
0.00251726
0.0025026
0.00251725
0.00249767
0.00248306
0.00249767
0.00248306
0.00249774
0.00249773
0.00248342
0.00248311
0.00248311
0.00246356
0.00247815
0.00246356
0.00247815
0.00247831
0.0024636
0.00246361
0.0024782
0.0024782
0.00248313
0.0024977
0.00249775
0.00248307
0.00248334
0.00249772
0.00249545
0.00248566
0.00249781
0.0024832
0.00248568
0.00248334
0.00249773
0.00249545
0.00248567
0.00249781
0.0024832
0.00248568
0.00247822
0.00246358
0.00247816
0.00246364
0.00247821
0.00246357
0.00247816
0.00246364
0.00247827
0.00247592
0.0024637
0.00246619
0.00247819
0.00247593
0.00246384
0.00247827
0.00247592
0.0024637
0.00246618
0.00247819
0.00247593
0.00246384
0.00249773
0.00249773
0.00248342
0.0024831
0.0024831
0.00249767
0.00248306
0.00246357
0.00247814
0.00247831
0.00246362
0.00246362
0.0024782
0.0024782
0.00246357
0.00247815
0.00248334
0.00249772
0.00249545
0.00248566
0.00249781
0.0024832
0.00248568
0.00248313
0.00249768
0.00249775
0.00248306
0.00248334
0.00249545
0.00249772
0.00248568
0.00249782
0.00248569
0.00248319
0.00247822
0.00246358
0.00247816
0.00246365
0.00247827
0.00247592
0.0024637
0.00246619
0.00247819
0.00247593
0.00246384
0.00247821
0.00246357
0.00247816
0.00246365
0.00247827
0.00247592
0.00246619
0.0024637
0.00247593
0.00247818
0.00246384
0.00248314
0.00249769
0.00249775
0.00248308
0.00248334
0.00249545
0.00249772
0.00248567
0.00249781
0.00248569
0.0024832
0.00248314
0.00249769
0.00249775
0.00248306
0.00247827
0.00247591
0.0024637
0.00246618
0.00247819
0.00247592
0.00246385
0.00247822
0.00246357
0.00247817
0.00246364
0.00247827
0.00247592
0.00246618
0.0024637
0.00247593
0.00247819
0.00246384
0.00247822
0.00246357
0.00247815
0.00246364
0.00249773
0.00249773
0.00248342
0.0024831
0.0024831
0.00249767
0.00248306
0.00246357
0.00247814
0.00247831
0.00246361
0.00246361
0.0024782
0.0024782
0.00246356
0.00247815
0.00248332
0.00249546
0.00249772
0.00248567
0.0024978
0.00248568
0.00248319
0.00248314
0.00249768
0.00249773
0.00248307
0.00248314
0.00249769
0.00249773
0.00248307
0.00247826
0.00247591
0.00246618
0.00246371
0.00247592
0.00247818
0.00246387
0.00247827
0.00247592
0.00246619
0.0024637
0.00247592
0.00247819
0.00246387
0.00247823
0.00246357
0.00247816
0.00246364
0.00247823
0.00246356
0.00247816
0.00246364
0.00249768
0.00248305
0.00249767
0.00248306
0.00247831
0.00246361
0.00246362
0.0024782
0.0024782
0.00246357
0.00247814
0.00246356
0.00247814
0.00245866
0.00244412
0.00245867
0.00244413
0.00245872
0.00245872
0.0024445
0.00244417
0.00244417
0.00242472
0.00243924
0.00242472
0.00243924
0.00243942
0.00242476
0.00242476
0.00243928
0.00243928
0.0024442
0.00245867
0.00245874
0.00244413
0.00244439
0.00245871
0.00245646
0.00244674
0.00245879
0.00244425
0.00244674
0.00244439
0.00245871
0.00245646
0.00244674
0.00245879
0.00244425
0.00244675
0.0024393
0.00242475
0.00243925
0.0024248
0.0024393
0.00242475
0.00243925
0.0024248
0.00243935
0.00243704
0.00242486
0.00242736
0.00243927
0.00243704
0.00242498
0.00243935
0.00243704
0.00242485
0.00242736
0.00243927
0.00243704
0.00242498
0.00245873
0.00245873
0.00244451
0.00244416
0.00244416
0.00245867
0.00244412
0.00242472
0.00243923
0.00243942
0.00242475
0.00242475
0.00243928
0.00243928
0.00242472
0.00243924
0.00244438
0.00245871
0.00245646
0.00244674
0.00245879
0.00244425
0.00244674
0.0024442
0.00245867
0.00245874
0.00244414
0.00244438
0.00245646
0.00245871
0.00244674
0.00245879
0.00244675
0.00244425
0.00243931
0.00242475
0.00243926
0.00242482
0.00243934
0.00243704
0.00242486
0.00242735
0.00243927
0.00243704
0.00242499
0.00243931
0.00242476
0.00243926
0.00242482
0.00243933
0.00243704
0.00242735
0.00242486
0.00243704
0.00243927
0.00242499
0.0024442
0.00245867
0.00245873
0.00244413
0.00244439
0.00245646
0.0024587
0.00244674
0.00245878
0.00244675
0.00244426
0.0024442
0.00245868
0.00245873
0.00244414
0.00243934
0.00243704
0.00242485
0.00242735
0.00243927
0.00243704
0.002425
0.00243931
0.00242474
0.00243925
0.00242481
0.00243934
0.00243704
0.00242735
0.00242486
0.00243704
0.00243928
0.002425
0.00243931
0.00242474
0.00243926
0.00242481
0.00245872
0.00245872
0.00244451
0.00244416
0.00244416
0.00245866
0.00244413
0.00242473
0.00243924
0.00243942
0.00242476
0.00242476
0.00243928
0.00243928
0.00242472
0.00243924
0.00244436
0.00245647
0.00245871
0.00244674
0.00245879
0.00244675
0.00244425
0.0024442
0.00245867
0.00245872
0.00244414
0.0024442
0.00245867
0.00245872
0.00244414
0.00243933
0.00243703
0.00242735
0.00242486
0.00243703
0.00243927
0.00242503
0.00243933
0.00243704
0.00242735
0.00242486
0.00243703
0.00243927
0.00242503
0.00243932
0.00242473
0.00243926
0.00242481
0.00243932
0.00242474
0.00243926
0.00242481
0.00245867
0.00244412
0.00245867
0.00244412
0.00243942
0.00242476
0.00242476
0.00243928
0.00243927
0.00242472
0.00243923
0.00242472
0.00243923
0.00241985
0.00240539
0.00241985
0.00240538
0.00241989
0.0024199
0.00240577
0.00240543
0.00240543
0.00238609
0.00240053
0.00238609
0.00240053
0.00240071
0.00238614
0.00238613
0.00240058
0.00240058
0.00240547
0.00241987
0.00241993
0.00240539
0.00240566
0.00241989
0.00241767
0.002408
0.00241995
0.00240551
0.002408
0.00240566
0.00241989
0.00241767
0.00240801
0.00241995
0.00240551
0.002408
0.0024006
0.00238609
0.00240054
0.00238616
0.0024006
0.0023861
0.00240053
0.00238615
0.00240065
0.00239835
0.00238622
0.00238871
0.00240056
0.00239835
0.00238636
0.00240065
0.00239835
0.00238621
0.00238871
0.00240056
0.00239835
0.00238635
0.00241988
0.00241988
0.00240578
0.00240542
0.00240541
0.00241984
0.00240538
0.00238609
0.00240052
0.0024007
0.00238612
0.00238612
0.00240057
0.00240057
0.00238608
0.00240052
0.00240567
0.00241989
0.00241767
0.002408
0.00241997
0.00240552
0.00240801
0.00240547
0.00241988
0.00241994
0.00240539
0.00240567
0.00241767
0.0024199
0.002408
0.00241997
0.00240801
0.00240552
0.00240059
0.00238609
0.00240053
0.00238615
0.00240065
0.00239835
0.00238621
0.0023887
0.00240056
0.00239835
0.00238634
0.00240059
0.00238609
0.00240053
0.00238615
0.00240065
0.00239834
0.00238871
0.00238621
0.00239835
0.00240056
0.00238633
0.00240545
0.00241986
0.00241993
0.00240539
0.00240564
0.00241768
0.00241989
0.002408
0.00241997
0.00240801
0.00240551
0.00240545
0.00241987
0.00241992
0.0024054
0.00240062
0.00239834
0.00238621
0.0023887
0.00240055
0.00239835
0.00238635
0.00240059
0.00238609
0.00240054
0.00238616
0.00240062
0.00239834
0.0023887
0.00238622
0.00239835
0.00240055
0.00238635
0.00240059
0.00238608
0.00240054
0.00238617
0.0024199
0.0024199
0.00240576
0.00240544
0.00240543
0.00241984
0.00240539
0.00238609
0.00240053
0.00240069
0.00238613
0.00238612
0.00240058
0.00240058
0.00238609
0.00240053
0.00240562
0.00241769
0.00241989
0.002408
0.00241999
0.00240801
0.00240551
0.00240545
0.00241986
0.00241992
0.0024054
0.00240545
0.00241986
0.00241992
0.0024054
0.0024006
0.00239833
0.00238869
0.00238621
0.00239834
0.00240055
0.00238635
0.0024006
0.00239833
0.00238869
0.00238621
0.00239833
0.00240055
0.00238636
0.00240059
0.0023861
0.00240054
0.00238617
0.0024006
0.00238609
0.00240054
0.00238617
0.00241984
0.00240539
0.00241985
0.00240539
0.00240069
0.00238613
0.00238613
0.00240058
0.00240058
0.00238608
0.00240053
0.00238609
0.00240053
0.00238124
0.00236682
0.00238124
0.00236682
0.00238129
0.00238128
0.00236722
0.00236685
0.00236685
0.00236197
0.00236198
0.00236216
0.00236201
0.00236201
0.00236691
0.00238125
0.0023813
0.00236685
0.00236706
0.00238128
0.00237907
0.00236944
0.00238134
0.00236694
0.00236944
0.00236706
0.00238127
0.00237907
0.00236944
0.00238133
0.00236695
0.00236944
0.00236205
0.002362
0.00234768
0.00236206
0.00234762
0.00236201
0.00234768
0.00236207
0.00235982
0.00235022
0.00236201
0.00235982
0.00234784
0.00236207
0.00235982
0.00234772
0.00235021
0.00236202
0.00235981
0.00234784
0.00238128
0.00238128
0.00236722
0.00236687
0.00236686
0.00238122
0.00236683
0.00234763
0.00236199
0.00236216
0.00234766
0.00234766
0.00236204
0.00236204
0.00234763
0.00236199
0.00236705
0.00238127
0.00237907
0.00236944
0.00238132
0.00236695
0.00236944
0.00236691
0.00238125
0.00238129
0.00236685
0.00236705
0.00237907
0.00238127
0.00236944
0.00238132
0.00236944
0.00236695
0.00236207
0.00236201
0.00236206
0.00235982
0.00236202
0.00235982
0.00236207
0.00236201
0.00236206
0.00235982
0.00235982
0.00236201
0.00236689
0.00238124
0.00238131
0.00236683
0.00236708
0.00237907
0.00238127
0.00236945
0.00238136
0.00236945
0.00236694
0.00236689
0.00238124
0.00238131
0.00236684
0.00236207
0.00235982
0.00234772
0.00235021
0.00236202
0.00235983
0.00234782
0.00236204
0.00234763
0.002362
0.00234769
0.00236206
0.00235983
0.00235021
0.00234772
0.00235983
0.00236201
0.00234782
0.00236204
0.00234764
0.002362
0.00234769
0.00238128
0.00238128
0.00236722
0.00236686
0.00236687
0.00238123
0.00236683
0.00236199
0.00236216
0.00236203
0.00236203
0.00236199
0.00236708
0.00237908
0.00238127
0.00236945
0.00238136
0.00236946
0.00236695
0.0023669
0.00238125
0.00238131
0.00236684
0.0023669
0.00238124
0.0023813
0.00236685
0.00236207
0.00235982
0.00235022
0.00235983
0.00236202
0.00234785
0.00236207
0.00235983
0.00235021
0.00234772
0.00235983
0.00236202
0.00234785
0.00236206
0.00236201
0.00234769
0.00236206
0.00234762
0.00236201
0.00234769
0.00238123
0.00236682
0.00238123
0.00236682
0.00236217
0.00234765
0.00234765
0.00236202
0.00236203
0.00234762
0.00236199
0.00234761
0.00236199
0.00261106
0.00260606
0.0026061
0.00260112
0.00260112
0.00260604
0.00260604
0.00260117
0.00261118
0.0026162
0.00261112
0.00261602
0.00261126
0.00261108
0.00261611
0.00261119
0.0026162
0.00261112
0.00261602
0.00261108
0.00261611
0.00261126
0.00260614
0.00260115
0.00260613
0.00260131
0.00260624
0.00260608
0.00260123
0.00260615
0.00260115
0.00260613
0.00260131
0.00260608
0.00260123
0.00260624
0.00261109
0.00261596
0.00261596
0.00261103
0.00261103
0.00261605
0.00256648
0.00256654
0.00256157
0.00256163
0.00256648
0.00256653
0.00256157
0.00257144
0.00257638
0.00257145
0.00257147
0.00257633
0.00257144
0.00257151
0.00257635
0.0025764
0.00257144
0.0025715
0.00257635
0.00256646
0.0025616
0.00256648
0.0025665
0.00256157
0.00257142
0.00256644
0.00256647
0.00256654
0.00256163
0.00256156
0.00256652
0.00256648
0.00256156
0.00257143
0.00257638
0.00257144
0.00257147
0.00257633
0.00257144
0.00257151
0.0025764
0.00257635
0.0025715
0.00257144
0.00257635
0.00256645
0.00256159
0.00256647
0.0025665
0.00256156
0.00257142
0.00256645
0.00256648
0.00256153
0.00256153
0.00256642
0.00256642
0.00256157
0.00257155
0.00257652
0.00257635
0.00257147
0.00257644
0.00257161
0.00257144
0.00257155
0.00257652
0.00257635
0.00257147
0.00257644
0.00257162
0.00257144
0.00257144
0.00257629
0.00257629
0.00257638
0.00257138
0.00257138
0.00256654
0.00256156
0.00256651
0.00256173
0.00256663
0.00256646
0.00256165
0.00256654
0.00256156
0.00256651
0.00256173
0.00256663
0.00256646
0.00256165
0.00252709
0.00252715
0.00252221
0.00252227
0.00252709
0.00252713
0.00252222
0.00253203
0.00253694
0.00253203
0.00253689
0.00253205
0.00253202
0.0025321
0.00253691
0.00253695
0.00253691
0.00253202
0.00253208
0.00252708
0.00252224
0.00252709
0.00252712
0.00252222
0.00253201
0.00252707
0.00252709
0.00252714
0.00252226
0.00252221
0.00252713
0.00252709
0.00252221
0.00253203
0.00253694
0.00253203
0.0025369
0.00253206
0.00253203
0.0025321
0.00253695
0.00253691
0.00253691
0.00253208
0.00253203
0.00252707
0.00252224
0.00252709
0.00252712
0.00252221
0.00253202
0.00252707
0.00252711
0.00252216
0.00252216
0.00252704
0.00252704
0.00252221
0.00253214
0.00253707
0.00253692
0.00253207
0.00253699
0.0025322
0.00253203
0.00253214
0.00253707
0.00253692
0.00253207
0.00253699
0.0025322
0.00253203
0.00253206
0.00253691
0.00253691
0.00253698
0.002532
0.002532
0.00252717
0.00252221
0.00252713
0.00252238
0.00252725
0.00252708
0.00252231
0.00252717
0.00252221
0.00252713
0.00252238
0.00252726
0.00252708
0.0025223
0.00248792
0.00248798
0.00248306
0.00248312
0.00248792
0.00248796
0.00248307
0.00249283
0.00249772
0.00249283
0.00249768
0.00249286
0.00249283
0.0024929
0.0024977
0.00249773
0.00249769
0.00249283
0.00249288
0.00248791
0.00248309
0.00248792
0.00248795
0.00248307
0.00249282
0.0024879
0.00248792
0.00248798
0.00248312
0.00248306
0.00248796
0.00248792
0.00248306
0.00249284
0.00249772
0.00249284
0.00249768
0.00249286
0.00249284
0.0024929
0.00249774
0.0024977
0.0024977
0.00249289
0.00249283
0.00248791
0.0024831
0.00248792
0.00248795
0.00248307
0.00249282
0.0024879
0.00248796
0.00248305
0.00248305
0.0024879
0.0024879
0.00248309
0.00249292
0.00249782
0.0024977
0.00249287
0.00249775
0.00249298
0.00249284
0.00249292
0.00249782
0.0024977
0.00249287
0.00249775
0.00249298
0.00249284
0.00249287
0.00249769
0.00249768
0.00249774
0.00249283
0.00249283
0.00248798
0.00248307
0.00248796
0.00248322
0.00248806
0.00248792
0.00248315
0.00248798
0.00248307
0.00248796
0.00248322
0.00248806
0.00248792
0.00248315
0.00244897
0.00244902
0.00244414
0.00244418
0.00244897
0.002449
0.00244414
0.00245385
0.00245871
0.00245385
0.00245867
0.00245388
0.00245385
0.00245392
0.00245869
0.00245872
0.00245868
0.00245385
0.0024539
0.00244895
0.00244416
0.00244896
0.00244899
0.00244414
0.00245384
0.00244895
0.00244897
0.00244901
0.00244419
0.00244414
0.002449
0.00244897
0.00244414
0.00245386
0.00245871
0.00245385
0.00245868
0.00245388
0.00245386
0.00245391
0.00245872
0.00245869
0.00245869
0.0024539
0.00245385
0.00244896
0.00244416
0.00244896
0.00244899
0.00244415
0.00245384
0.00244895
0.00244899
0.00244409
0.00244409
0.00244893
0.00244893
0.00244414
0.00245393
0.00245882
0.00245868
0.00245388
0.00245873
0.002454
0.00245385
0.00245393
0.00245882
0.00245868
0.00245388
0.00245873
0.002454
0.00245385
0.00245388
0.00245867
0.00245867
0.00245873
0.00245383
0.00245383
0.00244902
0.00244412
0.00244899
0.00244429
0.0024491
0.00244895
0.00244422
0.00244902
0.00244412
0.00244899
0.00244428
0.0024491
0.00244895
0.00244422
0.00241022
0.00241027
0.00240541
0.00240546
0.00241023
0.00241025
0.00240541
0.00241508
0.0024199
0.00241507
0.00241987
0.00241509
0.00241508
0.00241514
0.00241989
0.00241992
0.00241989
0.00241508
0.00241512
0.0024102
0.00240543
0.0024102
0.00241023
0.00240541
0.00241504
0.00241017
0.0024102
0.00241026
0.00240545
0.00240539
0.00241024
0.0024102
0.00240539
0.00241506
0.0024199
0.00241506
0.00241986
0.00241509
0.00241506
0.00241513
0.00241992
0.00241989
0.00241988
0.00241512
0.00241507
0.00241018
0.00240542
0.00241019
0.00241023
0.00240539
0.00241505
0.00241018
0.00241022
0.00240539
0.00240539
0.00241018
0.00241018
0.00240542
0.00241512
0.00242
0.00241986
0.00241508
0.0024199
0.00241519
0.00241506
0.00241512
0.00242
0.00241986
0.00241509
0.0024199
0.0024152
0.00241505
0.00241507
0.00241984
0.00241984
0.00241988
0.00241504
0.00241504
0.00241022
0.0024054
0.00241023
0.00240552
0.00241031
0.00241019
0.00240545
0.00241022
0.00240539
0.00241023
0.00240552
0.00241032
0.00241019
0.00240545
0.00237164
0.00237168
0.00236686
0.00236688
0.00237164
0.00237166
0.00236685
0.00237647
0.00238128
0.00237646
0.00238125
0.00237649
0.00237647
0.00237653
0.00238126
0.00238129
0.00238125
0.00237647
0.00237651
0.00237162
0.00236685
0.00237162
0.00237164
0.00236685
0.00237645
0.00237161
0.00237165
0.00237167
0.0023669
0.00236686
0.00237166
0.00237164
0.00236686
0.00237648
0.00238127
0.00237647
0.00238125
0.00237649
0.00237647
0.00237652
0.00238128
0.00238126
0.00238126
0.0023765
0.00237647
0.00237163
0.00236687
0.00237163
0.00237165
0.00236686
0.00237645
0.00237161
0.00237162
0.00236679
0.00236679
0.00237157
0.00237157
0.00236682
0.00237655
0.0023814
0.00238124
0.00237648
0.00238131
0.00237662
0.00237645
0.00237655
0.00238139
0.00238125
0.00237648
0.00238132
0.00237662
0.00237645
0.00237646
0.00238121
0.00238121
0.00238127
0.00237641
0.00237641
0.00237166
0.00236682
0.00237164
0.00236697
0.00237175
0.0023716
0.00236689
0.00237167
0.00236682
0.00237164
0.00236698
0.00237176
0.00237161
0.00236689
0.00260614
0.00260114
0.00260114
0.00260607
0.00260607
0.0026012
0.00261117
0.00261618
0.00261113
0.00261602
0.00261109
0.00261609
0.00261124
0.00261117
0.00261618
0.00261113
0.00261602
0.00261125
0.00261109
0.00261609
0.00260615
0.00260116
0.00260614
0.00260131
0.00260609
0.00260124
0.00260623
0.00260615
0.00260116
0.00260614
0.00260132
0.00260624
0.00260609
0.00260124
0.00261112
0.00261599
0.00261599
0.00261106
0.00261106
0.00261606
0.00261106
0.00260606
0.00258623
0.00259122
0.00259128
0.00259615
0.00259614
0.00259622
0.00259122
0.00259121
0.00258633
0.00258151
0.00258629
0.00258132
0.00258624
0.00258144
0.00258642
0.00258633
0.00258151
0.00258629
0.00258132
0.00258624
0.00258641
0.00258144
0.00259133
0.00259616
0.00259632
0.00259128
0.00259623
0.00259124
0.00259141
0.00259133
0.00259616
0.00259632
0.00259128
0.00259623
0.00259124
0.0025914
0.00258629
0.00258128
0.00258128
0.00258621
0.00258621
0.00258135
0.00258622
0.00259121
0.00260607
0.0026012
0.00260113
0.00260615
0.00260613
0.00260607
0.00260113
0.00261107
0.00261108
0.00261605
0.00261111
0.002616
0.00260605
0.00260118
0.00260608
0.00260611
0.00260113
0.00261107
0.00261116
0.00261608
0.00261601
0.00261114
0.00261106
0.00261602
0.00260607
0.00260114
0.0026012
0.00260614
0.00260607
0.00260613
0.00260114
0.00261106
0.00261108
0.00261605
0.00261111
0.00261599
0.00260604
0.00260117
0.00260607
0.00260611
0.00260113
0.00261106
0.00261116
0.00261601
0.00261608
0.00261105
0.00261114
0.002616
0.00259122
0.0025962
0.00259616
0.0025913
0.00259615
0.00259129
0.00259123
0.00258622
0.00258624
0.00258135
0.00258627
0.00258132
0.00259122
0.00259618
0.00259123
0.00259613
0.00259126
0.00258625
0.00258631
0.00258139
0.00258132
0.0025863
0.00258625
0.00258132
0.00259123
0.00259616
0.0025962
0.0025913
0.00259616
0.00259123
0.00259129
0.00258623
0.00258625
0.00258136
0.00258628
0.00258133
0.00259123
0.00259618
0.00259123
0.00259613
0.00259125
0.00258626
0.00258632
0.00258133
0.00258139
0.00258626
0.0025863
0.00258133
0.00261106
0.00260605
0.00261106
0.00260605
0.00259127
0.00259613
0.00259613
0.0025962
0.00259121
0.00259121
0.00258632
0.0025815
0.00258629
0.00258133
0.00258144
0.0025864
0.00258624
0.00258632
0.0025815
0.00258629
0.00258133
0.00258144
0.00258624
0.0025864
0.00259132
0.00259615
0.00259631
0.00259127
0.00259621
0.00259139
0.00259123
0.00259132
0.00259615
0.00259631
0.00259127
0.00259621
0.00259123
0.00259139
0.00258629
0.00258129
0.00258129
0.00258136
0.00258622
0.00258622
0.00258622
0.00259121
0.00258622
0.00259121
0.00257142
0.00256645
0.00257142
0.00256644
0.0025665
0.00256153
0.00256153
0.00256643
0.00256642
0.00256158
0.00257154
0.00257651
0.00257635
0.00257148
0.00257144
0.00257161
0.00257643
0.00257154
0.00257651
0.00257635
0.00257147
0.00257144
0.00257161
0.00257642
0.00257146
0.00257631
0.00257631
0.0025714
0.0025714
0.00257639
0.00256655
0.00256157
0.00256651
0.00256173
0.00256647
0.00256166
0.00256663
0.00256654
0.00256157
0.00256651
0.00256173
0.00256647
0.00256166
0.00256663
0.00254673
0.00255169
0.00254673
0.00255169
0.00255173
0.00255657
0.00255657
0.00255663
0.00255168
0.00255168
0.00254681
0.00254202
0.0025468
0.00254187
0.00254675
0.0025469
0.00254195
0.00254681
0.00254202
0.0025468
0.00254187
0.00254675
0.0025469
0.00254195
0.00255179
0.0025566
0.00255676
0.00255175
0.00255667
0.00255171
0.00255187
0.00255179
0.0025566
0.00255676
0.00255175
0.00255666
0.00255171
0.00255186
0.00254679
0.00254186
0.00254186
0.00254673
0.00254673
0.00254191
0.00256647
0.00256654
0.00256157
0.00256162
0.00256648
0.00256652
0.00256156
0.00257143
0.00257638
0.00257144
0.00257146
0.00257633
0.00257143
0.00257151
0.00257635
0.0025764
0.00257144
0.0025715
0.00257635
0.00256645
0.00256159
0.00256647
0.0025665
0.00256156
0.0025517