/*--------------------------------*- C++ -*----------------------------------*\
| =========                 |                                                 |
| \\      /  F ield         | OpenFOAM: The Open Source CFD Toolbox           |
|  \\    /   O peration     | Version:  v2012                                 |
|   \\  /    A nd           | Website:  www.openfoam.com                      |
|    \\/     M anipulation  |                                                 |
\*---------------------------------------------------------------------------*/
FoamFile
{
    version     2.0;
    format      ascii;
    class       volScalarField;
    location    "950";
    object      epsilon;
}
// * * * * * * * * * * * * * * * * * * * * * * * * * * * * * * * * * * * * * //

dimensions      [0 2 -3 0 0 0 0];


internalField   nonuniform List<scalar> 
171728
(
1.40581e-09
9.1754e-09
4.88961e-09
4.78246e-09
1.36984e-09
8.04823e-09
4.48584e-09
4.38247e-09
1.30284e-09
5.76031e-09
4.08982e-09
4.10183e-09
1.2492e-09
4.14728e-09
3.74479e-09
3.89077e-09
1.1864e-09
3.34271e-09
3.44744e-09
3.70671e-09
1.1095e-09
2.77551e-09
3.19834e-09
3.53012e-09
1.03486e-09
2.40361e-09
2.9899e-09
3.24995e-09
9.72791e-10
2.18204e-09
2.82206e-09
2.95119e-09
9.23654e-10
2.0541e-09
2.6959e-09
2.76259e-09
8.843e-10
1.97346e-09
2.6149e-09
2.6159e-09
8.52269e-10
1.9408e-09
2.57652e-09
2.44459e-09
8.21753e-10
1.94915e-09
2.58822e-09
2.37068e-09
7.93323e-10
2.01543e-09
2.65658e-09
2.34019e-09
7.67509e-10
2.14719e-09
2.79309e-09
2.42351e-09
7.4371e-10
2.34547e-09
3.03373e-09
2.54684e-09
7.21937e-10
2.65505e-09
3.39496e-09
2.78159e-09
7.02227e-10
3.15927e-09
3.89421e-09
3.23116e-09
6.86593e-10
3.81533e-09
4.74563e-09
3.98374e-09
6.71845e-10
4.97281e-09
6.24373e-09
5.33182e-09
6.65873e-10
6.64976e-09
8.46149e-09
7.60751e-09
6.6191e-10
9.07724e-09
1.1382e-08
1.10242e-08
6.74969e-10
1.23695e-08
1.602e-08
1.92411e-08
6.95119e-10
1.74792e-08
2.24965e-08
2.20935e-08
7.40709e-10
2.45031e-08
2.80864e-08
7.02235e-08
8.04558e-10
3.29087e-08
3.34754e-08
5.79559e-08
9.40546e-10
4.31409e-08
5.13907e-08
1.16446e-07
1.1066e-09
6.09538e-08
6.29852e-08
1.5308e-07
1.40707e-09
7.07526e-08
7.29657e-08
2.34338e-07
1.76549e-09
1.00834e-07
9.22699e-08
2.83859e-07
2.20981e-09
1.12691e-07
1.25727e-07
3.5862e-07
3.19395e-09
1.43911e-07
1.37238e-07
4.50415e-07
4.04221e-09
1.79304e-07
1.81314e-07
5.55786e-07
5.32694e-09
2.01401e-07
2.03944e-07
5.70162e-07
7.28035e-09
2.38378e-07
2.33849e-07
6.08467e-07
9.32894e-09
2.81923e-07
2.86325e-07
7.55159e-07
1.10764e-08
3.23075e-07
3.26453e-07
7.36564e-07
1.72979e-08
3.4887e-07
3.57873e-07
7.70029e-07
2.05473e-08
4.2214e-07
4.02305e-07
8.97741e-07
2.70488e-08
4.63779e-07
4.7691e-07
8.8152e-07
3.20263e-08
4.83334e-07
5.02378e-07
8.83343e-07
3.94179e-08
5.56289e-07
5.31597e-07
9.48312e-07
5.18859e-08
6.09704e-07
6.1011e-07
9.92545e-07
6.38424e-08
6.56921e-07
6.54557e-07
1.00485e-06
7.34173e-08
6.83228e-07
6.9306e-07
1.02874e-06
9.16157e-08
7.34382e-07
7.41139e-07
1.06305e-06
1.10467e-07
7.89519e-07
7.91532e-07
1.10344e-06
1.21167e-07
8.32018e-07
8.1867e-07
1.10817e-06
1.53439e-07
8.59476e-07
8.68075e-07
1.12335e-06
1.73001e-07
9.10032e-07
9.04983e-07
1.19651e-06
2.03838e-07
9.38163e-07
9.47396e-07
1.20319e-06
2.22143e-07
9.62606e-07
9.75028e-07
1.19657e-06
2.51886e-07
1.00574e-06
9.85965e-07
1.22956e-06
2.95133e-07
1.03132e-06
1.01494e-06
1.27262e-06
3.22024e-07
1.04497e-06
1.06246e-06
1.28198e-06
3.37482e-07
1.0835e-06
1.08849e-06
1.29474e-06
3.62272e-07
1.10131e-06
1.10143e-06
1.31994e-06
4.27469e-07
1.11026e-06
1.10969e-06
1.32357e-06
4.54614e-07
1.14028e-06
1.13212e-06
1.34752e-06
4.70143e-07
1.15801e-06
1.16359e-06
1.37491e-06
5.0047e-07
1.18067e-06
1.18194e-06
1.37875e-06
5.24229e-07
1.18982e-06
1.18008e-06
1.37969e-06
5.51347e-07
1.1934e-06
1.19906e-06
1.40222e-06
5.85549e-07
1.22191e-06
1.23112e-06
1.4235e-06
6.09734e-07
1.24242e-06
1.23705e-06
1.44446e-06
6.16499e-07
1.24083e-06
1.24007e-06
1.44524e-06
6.25083e-07
1.2424e-06
1.24673e-06
1.42768e-06
6.60187e-07
1.27812e-06
1.25977e-06
1.44826e-06
6.90966e-07
1.28291e-06
1.28781e-06
1.48857e-06
6.93346e-07
1.26727e-06
1.28036e-06
1.48011e-06
6.98167e-07
1.2693e-06
1.27734e-06
1.47621e-06
7.16617e-07
1.30292e-06
1.2998e-06
1.50491e-06
7.40839e-07
1.31649e-06
1.30633e-06
1.50895e-06
7.50117e-07
1.30644e-06
1.30142e-06
1.4872e-06
7.55526e-07
1.30266e-06
1.30826e-06
1.50051e-06
7.69795e-07
1.31494e-06
1.32086e-06
1.53544e-06
7.79555e-07
1.32021e-06
1.31427e-06
1.51056e-06
7.85485e-07
1.31008e-06
1.30949e-06
1.49291e-06
7.8889e-07
1.31215e-06
1.31632e-06
1.53503e-06
8.02212e-07
1.33285e-06
1.33247e-06
1.5431e-06
8.06853e-07
1.32655e-06
1.32278e-06
1.51022e-06
8.0573e-07
1.31344e-06
1.31359e-06
1.52381e-06
8.12631e-07
1.32963e-06
1.3318e-06
1.56462e-06
8.14146e-07
1.32693e-06
1.32264e-06
1.5188e-06
8.05967e-07
1.30132e-06
1.29648e-06
1.48159e-06
8.09934e-07
1.31608e-06
1.31253e-06
1.55114e-06
8.27153e-07
1.32963e-06
1.33691e-06
1.5658e-06
8.13874e-07
1.30008e-06
1.31454e-06
1.49346e-06
7.89386e-07
1.28487e-06
1.27267e-06
1.49715e-06
7.95753e-07
1.30014e-06
1.28022e-06
1.5453e-06
8.25975e-07
1.31622e-06
1.32488e-06
1.52315e-06
8.13137e-07
1.28965e-06
1.31117e-06
1.48432e-06
7.70726e-07
1.25555e-06
1.25131e-06
1.50111e-06
7.71297e-07
1.2768e-06
1.24872e-06
1.51991e-06
7.98742e-07
1.28713e-06
1.28587e-06
1.50317e-06
7.75901e-07
1.19838e-06
1.21712e-06
1.43294e-06
5.22192e-09
3.91103e-09
5.59948e-09
4.80932e-09
3.54165e-09
4.64603e-09
1.35536e-09
1.85916e-09
1.52612e-09
1.67251e-09
4.51189e-09
5.02876e-09
5.20173e-09
4.01234e-09
3.97026e-09
4.8109e-09
5.17659e-09
4.7194e-09
5.53755e-09
8.19362e-09
4.94461e-09
8.33529e-09
4.73902e-09
4.54814e-09
8.12498e-09
8.14643e-09
6.29796e-09
7.80804e-09
6.73916e-09
8.51766e-09
6.65522e-09
5.14721e-09
4.79458e-09
3.95297e-09
4.59453e-09
3.65182e-09
4.44317e-09
4.66455e-09
4.2805e-09
4.76156e-09
8.37985e-09
4.28953e-09
8.5197e-09
4.49282e-09
4.40546e-09
5.96333e-09
7.6375e-09
5.57187e-09
6.78506e-09
6.61379e-09
6.32003e-09
6.49603e-09
4.72773e-09
4.38292e-09
3.55194e-09
4.18278e-09
3.29204e-09
4.14979e-09
4.23688e-09
3.92456e-09
4.13857e-09
8.58569e-09
3.67621e-09
8.83103e-09
4.37107e-09
4.34078e-09
5.56155e-09
6.38942e-09
5.73193e-09
5.16284e-09
6.45718e-09
4.44898e-09
6.35614e-09
4.34604e-09
4.00122e-09
3.21609e-09
3.82761e-09
3.01201e-09
3.92961e-09
3.89492e-09
3.6629e-09
3.53016e-09
8.93002e-09
3.17269e-09
9.24943e-09
4.309e-09
4.26989e-09
5.80841e-09
4.804e-09
5.89098e-09
3.95473e-09
6.32556e-09
3.50772e-09
6.21428e-09
3.97054e-09
3.65146e-09
2.95085e-09
3.51698e-09
2.7861e-09
3.74307e-09
3.63689e-09
3.3645e-09
3.0641e-09
9.34422e-09
2.76047e-09
9.56305e-09
4.23657e-09
4.17944e-09
5.8855e-09
3.73655e-09
5.4959e-09
3.2126e-09
6.1807e-09
2.90179e-09
6.07171e-09
3.62562e-09
3.29678e-09
2.73771e-09
3.25646e-09
2.61366e-09
3.55246e-09
3.34332e-09
3.08554e-09
2.66775e-09
9.58066e-09
2.42969e-09
9.09497e-09
4.14088e-09
3.97646e-09
5.25874e-09
3.06461e-09
4.39346e-09
2.68792e-09
6.01218e-09
2.48112e-09
5.69387e-09
3.27377e-09
3.00001e-09
2.57842e-09
3.03873e-09
2.48303e-09
3.2821e-09
3.06707e-09
2.81569e-09
2.36428e-09
8.55387e-09
2.20111e-09
6.52182e-09
3.85311e-09
3.12247e-09
4.10884e-09
2.5895e-09
3.43648e-09
2.37486e-09
5.53191e-09
2.22463e-09
4.88659e-09
2.98264e-09
2.75835e-09
2.45572e-09
2.86062e-09
2.38583e-09
2.96556e-09
2.80184e-09
2.58121e-09
2.15242e-09
5.827e-09
2.08932e-09
4.24668e-09
3.09045e-09
2.78946e-09
3.27423e-09
2.32678e-09
2.88527e-09
2.22611e-09
4.6519e-09
2.08157e-09
4.01396e-09
2.74889e-09
2.58539e-09
2.36586e-09
2.72338e-09
2.31551e-09
2.77171e-09
2.57206e-09
2.39679e-09
2.05835e-09
3.90996e-09
1.96073e-09
3.29361e-09
2.77333e-09
2.49088e-09
2.80537e-09
2.19972e-09
2.54858e-09
2.15929e-09
3.83741e-09
1.98824e-09
3.47638e-09
2.58128e-09
2.45572e-09
2.30211e-09
2.62985e-09
2.27044e-09
2.61943e-09
2.39624e-09
2.27645e-09
1.96017e-09
3.16175e-09
1.98883e-09
2.8138e-09
2.47129e-09
2.25779e-09
2.45086e-09
2.15944e-09
2.34564e-09
2.16607e-09
3.38272e-09
1.94633e-09
3.14747e-09
2.45587e-09
2.36463e-09
2.26695e-09
2.58169e-09
2.25807e-09
2.44575e-09
2.27811e-09
2.21423e-09
1.99164e-09
2.66128e-09
1.97901e-09
2.30915e-09
2.25852e-09
2.14972e-09
2.35405e-09
2.16678e-09
2.40526e-09
2.17496e-09
3.12111e-09
1.94297e-09
2.90013e-09
2.36848e-09
2.32004e-09
2.25992e-09
2.58117e-09
2.29098e-09
2.36194e-09
2.22648e-09
2.20574e-09
1.97898e-09
2.29728e-09
1.99464e-09
2.42505e-09
2.15502e-09
2.09932e-09
2.39918e-09
2.18362e-09
2.34876e-09
2.23504e-09
2.8139e-09
2.00113e-09
2.76759e-09
2.33121e-09
2.31828e-09
2.29821e-09
2.63392e-09
2.34212e-09
2.32536e-09
2.22552e-09
2.23855e-09
2.01423e-09
2.4447e-09
2.10531e-09
2.35066e-09
2.11722e-09
2.1489e-09
2.34928e-09
2.25862e-09
2.39475e-09
2.34647e-09
2.8248e-09
2.10811e-09
3.09865e-09
2.33922e-09
2.36481e-09
2.37073e-09
2.7506e-09
2.45699e-09
2.38425e-09
2.27128e-09
2.34006e-09
2.14407e-09
2.29941e-09
2.28569e-09
2.289e-09
2.18309e-09
2.25487e-09
2.43669e-09
2.38517e-09
2.58422e-09
2.52641e-09
3.1147e-09
2.29936e-09
3.08244e-09
2.39793e-09
2.48048e-09
2.49158e-09
2.96269e-09
2.63055e-09
2.4963e-09
2.39436e-09
2.53636e-09
2.34599e-09
2.31985e-09
2.56478e-09
2.55828e-09
2.31212e-09
2.44348e-09
2.64471e-09
2.5872e-09
2.87291e-09
2.80421e-09
3.08598e-09
2.56295e-09
3.24656e-09
2.5371e-09
2.68775e-09
2.69131e-09
3.2917e-09
2.89322e-09
2.68729e-09
2.62873e-09
2.89135e-09
2.65449e-09
2.66018e-09
3.00371e-09
3.02933e-09
2.53585e-09
2.86303e-09
2.9623e-09
2.89213e-09
3.29968e-09
3.23218e-09
3.37142e-09
3.01465e-09
3.75504e-09
2.77804e-09
3.05458e-09
2.98028e-09
3.75596e-09
3.28185e-09
3.0749e-09
3.03875e-09
3.47935e-09
3.14239e-09
3.17579e-09
3.63881e-09
3.61915e-09
3.02088e-09
3.38675e-09
3.44613e-09
3.37054e-09
3.9269e-09
3.85534e-09
3.9466e-09
3.60242e-09
4.54258e-09
3.20711e-09
3.68927e-09
3.4257e-09
4.49592e-09
3.92052e-09
3.73899e-09
3.74157e-09
4.69114e-09
3.87441e-09
3.84597e-09
4.684e-09
4.69568e-09
3.62275e-09
4.60771e-09
4.16953e-09
4.05121e-09
4.99952e-09
4.79997e-09
4.79257e-09
4.63612e-09
5.83874e-09
3.92936e-09
4.83418e-09
4.12163e-09
5.78263e-09
4.88222e-09
4.92124e-09
5.0788e-09
6.43976e-09
5.01076e-09
5.03816e-09
6.13106e-09
6.33962e-09
5.07e-09
6.64464e-09
5.31298e-09
5.13994e-09
6.37926e-09
6.34771e-09
6.17781e-09
6.28205e-09
7.62883e-09
5.29035e-09
6.99565e-09
5.17294e-09
7.78451e-09
6.31634e-09
6.93364e-09
7.17487e-09
9.90724e-09
6.63834e-09
6.71927e-09
8.45056e-09
8.06734e-09
7.19651e-09
9.03164e-09
6.95639e-09
6.84872e-09
8.59968e-09
8.24347e-09
8.13131e-09
7.97636e-09
9.80511e-09
7.7446e-09
1.03438e-08
6.72637e-09
1.04898e-08
8.39504e-09
9.99438e-09
1.08498e-08
1.56107e-08
8.98971e-09
9.15179e-09
1.16208e-08
1.19873e-08
1.05674e-08
1.69019e-08
9.15065e-09
8.98407e-09
1.19728e-08
1.22624e-08
1.04858e-08
1.19032e-08
1.41815e-08
1.14271e-08
1.80373e-08
8.88322e-09
1.52653e-08
1.22345e-08
1.78549e-08
1.78615e-08
2.66457e-08
1.27436e-08
1.24965e-08
1.65436e-08
1.56567e-08
1.7822e-08
2.34823e-08
1.29206e-08
1.28622e-08
1.67114e-08
1.62746e-08
1.47084e-08
1.53379e-08
1.56738e-08
1.95551e-08
2.56192e-08
1.30694e-08
1.95873e-08
1.44205e-08
2.0138e-08
2.939e-08
4.058e-08
1.78835e-08
1.7674e-08
2.20412e-08
2.31324e-08
2.80116e-08
4.56638e-08
1.79774e-08
1.88021e-08
2.24786e-08
2.46795e-08
1.67641e-08
2.30816e-08
2.86067e-08
3.08395e-08
4.75223e-08
1.56299e-08
2.76308e-08
2.64395e-08
6.65948e-08
4.49943e-08
6.87201e-08
2.40333e-08
2.45858e-08
3.20546e-08
3.03349e-08
4.85536e-08
6.47051e-08
2.43917e-08
2.57314e-08
3.15286e-08
2.95701e-08
3.03916e-08
2.98692e-08
3.11707e-08
4.88338e-08
5.48801e-08
2.79782e-08
3.01812e-08
2.91028e-08
5.70907e-08
7.49707e-08
9.68478e-08
3.37675e-08
3.33387e-08
4.05596e-08
4.07684e-08
7.20771e-08
1.02098e-07
3.36299e-08
3.41417e-08
4.12558e-08
4.60948e-08
3.15312e-08
4.07021e-08
4.21497e-08
6.185e-08
1.15905e-07
2.98772e-08
4.75992e-08
4.19987e-08
1.03684e-07
1.04887e-07
1.53845e-07
4.42482e-08
4.35513e-08
5.59862e-08
5.71289e-08
1.09496e-07
1.53023e-07
4.50374e-08
4.9739e-08
5.63683e-08
6.3911e-08
4.52853e-08
5.64618e-08
5.39649e-08
1.27322e-07
1.66531e-07
4.49182e-08
5.99167e-08
5.30612e-08
1.42798e-07
1.6557e-07
2.04537e-07
6.02651e-08
6.12924e-08
7.10698e-08
6.77791e-08
1.66478e-07
1.98046e-07
6.00902e-08
6.84546e-08
7.07604e-08
7.64866e-08
5.92725e-08
6.80372e-08
7.40978e-08
1.76619e-07
2.02244e-07
5.86428e-08
7.14927e-08
7.52316e-08
2.20526e-07
2.1604e-07
2.77434e-07
7.46895e-08
7.09021e-08
9.2521e-08
9.47885e-08
2.04713e-07
2.89289e-07
7.55476e-08
7.74621e-08
9.25691e-08
8.26677e-08
7.71781e-08
9.37728e-08
9.05128e-08
2.07026e-07
2.34871e-07
7.86008e-08
8.30144e-08
9.13928e-08
2.72376e-07
2.93727e-07
3.5032e-07
9.9138e-08
1.01584e-07
1.10311e-07
1.10498e-07
3.14866e-07
3.51096e-07
9.79407e-08
8.9507e-08
1.12089e-07
1.23707e-07
9.67061e-08
1.10215e-07
1.09946e-07
2.55315e-07
3.89838e-07
9.78755e-08
1.19851e-07
1.14885e-07
3.42607e-07
3.61949e-07
4.26129e-07
1.13983e-07
1.1297e-07
1.40466e-07
1.36028e-07
3.57179e-07
4.10024e-07
1.16896e-07
1.32153e-07
1.39327e-07
1.43882e-07
1.14827e-07
1.34713e-07
1.36917e-07
4.07453e-07
4.26733e-07
1.18621e-07
1.34008e-07
1.48749e-07
4.28464e-07
4.49069e-07
5.17626e-07
1.50936e-07
1.45258e-07
1.6879e-07
1.70987e-07
4.39159e-07
5.28077e-07
1.49279e-07
1.46225e-07
1.73397e-07
1.66788e-07
1.46394e-07
1.71339e-07
1.76928e-07
4.33964e-07
4.95954e-07
1.65898e-07
1.69099e-07
2.00176e-07
5.43563e-07
5.27435e-07
5.54681e-07
1.73872e-07
1.78286e-07
1.95857e-07
1.9808e-07
5.38144e-07
5.68262e-07
1.77484e-07
1.77664e-07
1.98003e-07
2.0051e-07
1.85454e-07
1.97187e-07
2.00931e-07
5.19332e-07
5.80744e-07
2.02474e-07
2.0108e-07
1.97714e-07
5.65602e-07
5.68609e-07
6.5109e-07
2.02968e-07
2.03006e-07
2.3246e-07
2.27335e-07
5.82404e-07
6.26924e-07
2.06548e-07
2.05038e-07
2.35669e-07
2.23708e-07
2.03222e-07
2.2591e-07
2.13611e-07
5.90091e-07
6.19253e-07
1.96132e-07
2.22495e-07
2.02626e-07
5.91018e-07
6.67155e-07
6.84089e-07
2.44291e-07
2.40067e-07
2.74242e-07
2.7225e-07
6.41069e-07
7.00378e-07
2.47314e-07
2.3524e-07
2.7707e-07
2.75788e-07
2.23971e-07
2.71655e-07
2.84818e-07
6.34629e-07
7.00936e-07
2.17381e-07
2.73489e-07
3.07116e-07
7.34816e-07
6.91833e-07
7.3076e-07
2.80879e-07
2.81859e-07
2.97515e-07
3.12944e-07
7.16726e-07
7.44673e-07
2.83815e-07
2.85938e-07
2.98722e-07
3.09998e-07
3.0268e-07
3.14036e-07
3.20413e-07
7.1603e-07
7.50639e-07
3.23808e-07
3.173e-07
3.32792e-07
7.36712e-07
7.48223e-07
7.9968e-07
3.09692e-07
3.21836e-07
3.63303e-07
3.41523e-07
7.51319e-07
7.744e-07
3.07108e-07
3.19851e-07
3.60028e-07
3.54836e-07
3.20926e-07
3.39766e-07
3.27345e-07
7.61329e-07
7.85289e-07
3.30168e-07
3.52036e-07
3.30892e-07
7.45802e-07
8.10944e-07
8.32935e-07
3.7768e-07
3.52567e-07
4.0059e-07
4.05822e-07
7.90376e-07
8.51204e-07
3.77322e-07
3.63581e-07
4.05564e-07
3.86035e-07
3.35021e-07
4.03296e-07
4.19781e-07
7.93617e-07
8.22684e-07
3.36669e-07
3.8505e-07
4.18588e-07
8.84702e-07
8.42406e-07
8.74128e-07
4.08428e-07
4.23078e-07
4.50437e-07
4.55397e-07
8.60124e-07
8.65453e-07
4.1268e-07
4.0019e-07
4.5107e-07
4.5882e-07
4.46992e-07
4.57074e-07
4.78208e-07
8.38276e-07
8.88352e-07
4.45539e-07
4.62349e-07
4.75907e-07
8.806e-07
8.83998e-07
9.01002e-07
4.63524e-07
4.61864e-07
4.90611e-07
4.76705e-07
8.70636e-07
8.91155e-07
4.64194e-07
4.7484e-07
4.91092e-07
5.00607e-07
4.7967e-07
4.779e-07
4.79679e-07
8.96981e-07
9.01926e-07
4.7738e-07
4.98762e-07
4.77566e-07
8.75158e-07
9.07648e-07
9.32005e-07
4.96999e-07
4.8361e-07
5.3271e-07
5.41261e-07
9.01986e-07
9.40015e-07
4.97432e-07
5.04902e-07
5.31323e-07
5.19083e-07
4.80944e-07
5.36714e-07
5.11231e-07
9.05822e-07
9.22127e-07
4.78957e-07
5.171e-07
5.10557e-07
9.30494e-07
9.43311e-07
9.75407e-07
5.48803e-07
5.60316e-07
5.93411e-07
5.96686e-07
9.51559e-07
9.76854e-07
5.46464e-07
5.32324e-07
5.92494e-07
5.91053e-07
5.37696e-07
5.95821e-07
6.0929e-07
9.33394e-07
9.77158e-07
5.37251e-07
5.92517e-07
6.08619e-07
9.86373e-07
9.83983e-07
1.0008e-06
6.06993e-07
6.09201e-07
6.42405e-07
6.45023e-07
9.85031e-07
1.00365e-06
6.0745e-07
6.08713e-07
6.43147e-07
6.46747e-07
6.2463e-07
6.4863e-07
6.50673e-07
9.86968e-07
1.00443e-06
6.2347e-07
6.47776e-07
6.47943e-07
1.00006e-06
1.00691e-06
1.02439e-06
6.5258e-07
6.54119e-07
6.80149e-07
6.77029e-07
1.00946e-06
1.01995e-06
6.52668e-07
6.54666e-07
6.77513e-07
6.83253e-07
6.55643e-07
6.74449e-07
6.7301e-07
1.00991e-06
1.02475e-06
6.52586e-07
6.81639e-07
6.72272e-07
1.02053e-06
1.03276e-06
1.0612e-06
6.91051e-07
6.86403e-07
7.34028e-07
7.2297e-07
1.02621e-06
1.05001e-06
6.88264e-07
6.94135e-07
7.33765e-07
7.27159e-07
6.86497e-07
7.21752e-07
7.27755e-07
1.03246e-06
1.05748e-06
6.87038e-07
7.27233e-07
7.27458e-07
1.05529e-06
1.06889e-06
1.08175e-06
7.48384e-07
7.34989e-07
7.7797e-07
7.74985e-07
1.05885e-06
1.08667e-06
7.48415e-07
7.41022e-07
7.76765e-07
7.80486e-07
7.3774e-07
7.75482e-07
7.82128e-07
1.06589e-06
1.0873e-06
7.36957e-07
7.82426e-07
7.80566e-07
1.09449e-06
1.08622e-06
1.10347e-06
7.83047e-07
7.88637e-07
8.07377e-07
8.22197e-07
1.09553e-06
1.11326e-06
7.814e-07
7.89445e-07
8.06824e-07
8.09897e-07
7.98013e-07
8.24318e-07
8.2302e-07
1.09285e-06
1.10295e-06
7.96188e-07
8.09768e-07
8.20808e-07
1.10714e-06
1.11324e-06
1.14345e-06
8.24029e-07
8.29773e-07
8.64593e-07
8.50591e-07
1.11785e-06
1.13186e-06
8.23685e-07
8.18828e-07
8.63369e-07
8.57146e-07
8.2638e-07
8.49997e-07
8.36417e-07
1.10878e-06
1.13819e-06
8.24225e-07
8.56097e-07
8.35129e-07
1.11273e-06
1.14893e-06
1.16229e-06
8.71969e-07
8.61599e-07
8.94025e-07
9.00347e-07
1.14008e-06
1.16889e-06
8.70919e-07
8.69523e-07
8.93782e-07
8.98105e-07
8.45212e-07
8.9806e-07
9.05674e-07
1.14673e-06
1.16386e-06
8.45025e-07
8.95943e-07
9.06294e-07
1.18573e-06
1.16976e-06
1.19487e-06
9.05694e-07
9.10767e-07
9.3998e-07
9.30902e-07
1.17486e-06
1.18402e-06
9.046e-07
9.06414e-07
9.38586e-07
9.32794e-07
9.24142e-07
9.33661e-07
9.47629e-07
1.1695e-06
1.19497e-06
9.23692e-07
9.36257e-07
9.45308e-07
1.20245e-06
1.19873e-06
1.19731e-06
9.46375e-07
9.35068e-07
9.5371e-07
9.52149e-07
1.18773e-06
1.20068e-06
9.46105e-07
9.42971e-07
9.56033e-07
9.69854e-07
9.49324e-07
9.52681e-07
9.54958e-07
1.20305e-06
1.21567e-06
9.4728e-07
9.71444e-07
9.54458e-07
1.19411e-06
1.20034e-06
1.24034e-06
9.56642e-07
9.6316e-07
9.954e-07
9.96684e-07
1.2078e-06
1.23861e-06
9.59397e-07
9.75384e-07
9.93107e-07
9.87204e-07
9.57647e-07
9.96533e-07
9.76364e-07
1.21831e-06
1.22124e-06
9.57053e-07
9.82742e-07
9.75813e-07
1.21798e-06
1.25377e-06
1.27253e-06
1.01345e-06
1.00594e-06
1.04119e-06
1.02814e-06
1.24626e-06
1.26041e-06
1.00742e-06
9.90785e-07
1.03349e-06
1.00967e-06
9.91792e-07
1.02687e-06
1.03423e-06
1.22478e-06
1.23869e-06
9.9151e-07
1.00279e-06
1.03118e-06
1.26717e-06
1.27417e-06
1.26533e-06
1.04241e-06
1.03273e-06
1.04223e-06
1.04044e-06
1.26364e-06
1.26564e-06
1.03664e-06
1.02196e-06
1.04388e-06
1.05875e-06
1.04121e-06
1.03948e-06
1.05153e-06
1.24622e-06
1.2806e-06
1.0375e-06
1.05417e-06
1.04854e-06
1.2795e-06
1.2667e-06
1.26802e-06
1.04258e-06
1.04527e-06
1.04885e-06
1.07011e-06
1.26917e-06
1.29552e-06
1.04679e-06
1.06551e-06
1.05462e-06
1.07409e-06
1.0536e-06
1.07466e-06
1.06272e-06
1.28868e-06
1.30525e-06
1.05065e-06
1.08209e-06
1.06622e-06
1.28836e-06
1.27234e-06
1.3118e-06
1.05239e-06
1.077e-06
1.08825e-06
1.09366e-06
1.30392e-06
1.31617e-06
1.06069e-06
1.07866e-06
1.10075e-06
1.09515e-06
1.07108e-06
1.0989e-06
1.09959e-06
1.31035e-06
1.31851e-06
1.0769e-06
1.10009e-06
1.1015e-06
1.31653e-06
1.32446e-06
1.35195e-06
1.10492e-06
1.099e-06
1.13684e-06
1.11263e-06
1.31898e-06
1.32218e-06
1.11309e-06
1.09828e-06
1.12937e-06
1.10822e-06
1.10428e-06
1.1065e-06
1.11044e-06
1.32034e-06
1.3175e-06
1.1047e-06
1.10535e-06
1.10843e-06
1.32031e-06
1.35492e-06
1.34598e-06
1.13981e-06
1.11694e-06
1.13973e-06
1.13496e-06
1.32558e-06
1.34035e-06
1.13006e-06
1.1155e-06
1.12991e-06
1.13202e-06
1.11431e-06
1.13269e-06
1.13035e-06
1.32185e-06
1.339e-06
1.11132e-06
1.12786e-06
1.12802e-06
1.34095e-06
1.34705e-06
1.35352e-06
1.13958e-06
1.14106e-06
1.14385e-06
1.15185e-06
1.34707e-06
1.36192e-06
1.13035e-06
1.13383e-06
1.14603e-06
1.15111e-06
1.13666e-06
1.1542e-06
1.15879e-06
1.34321e-06
1.36255e-06
1.1347e-06
1.15376e-06
1.15822e-06
1.36946e-06
1.36108e-06
1.37816e-06
1.14947e-06
1.15515e-06
1.17002e-06
1.17229e-06
1.36628e-06
1.38011e-06
1.15785e-06
1.16173e-06
1.17801e-06
1.18142e-06
1.1646e-06
1.17522e-06
1.1732e-06
1.37205e-06
1.38851e-06
1.16489e-06
1.18141e-06
1.17425e-06
1.37762e-06
1.38035e-06
1.37453e-06
1.17468e-06
1.17808e-06
1.1812e-06
1.18718e-06
1.38496e-06
1.38839e-06
1.17844e-06
1.18178e-06
1.1773e-06
1.17862e-06
1.17449e-06
1.18875e-06
1.17931e-06
1.38969e-06
1.37421e-06
1.17515e-06
1.18009e-06
1.17781e-06
1.37612e-06
1.37603e-06
1.39151e-06
1.18271e-06
1.18845e-06
1.19296e-06
1.19175e-06
1.38988e-06
1.3893e-06
1.17749e-06
1.17854e-06
1.18928e-06
1.18715e-06
1.18299e-06
1.19192e-06
1.19722e-06
1.37533e-06
1.38976e-06
1.17992e-06
1.18845e-06
1.19567e-06
1.39629e-06
1.40132e-06
1.43968e-06
1.19952e-06
1.19433e-06
1.22541e-06
1.21443e-06
1.39315e-06
1.41444e-06
1.20096e-06
1.19831e-06
1.23504e-06
1.22976e-06
1.20084e-06
1.21294e-06
1.21532e-06
1.40021e-06
1.4323e-06
1.20197e-06
1.22655e-06
1.21859e-06
1.41775e-06
1.44623e-06
1.44413e-06
1.23276e-06
1.22229e-06
1.24129e-06
1.23899e-06
1.42212e-06
1.43786e-06
1.24153e-06
1.23541e-06
1.24479e-06
1.24071e-06
1.22237e-06
1.24002e-06
1.24087e-06
1.43689e-06
1.43555e-06
1.22372e-06
1.23647e-06
1.23744e-06
1.44004e-06
1.44421e-06
1.41457e-06
1.24121e-06
1.24267e-06
1.23549e-06
1.24512e-06
1.44102e-06
1.43703e-06
1.24358e-06
1.24069e-06
1.22673e-06
1.23785e-06
1.24474e-06
1.24218e-06
1.24665e-06
1.43659e-06
1.42906e-06
1.24149e-06
1.23851e-06
1.24656e-06
1.4446e-06
1.41481e-06
1.41478e-06
1.2338e-06
1.24428e-06
1.23425e-06
1.2416e-06
1.43778e-06
1.4308e-06
1.22301e-06
1.23654e-06
1.22227e-06
1.23539e-06
1.2457e-06
1.24051e-06
1.24116e-06
1.43034e-06
1.43256e-06
1.2463e-06
1.24616e-06
1.24065e-06
1.42682e-06
1.42211e-06
1.46845e-06
1.23771e-06
1.242e-06
1.26449e-06
1.26272e-06
1.43418e-06
1.46941e-06
1.22531e-06
1.23615e-06
1.26753e-06
1.25896e-06
1.24112e-06
1.26975e-06
1.24793e-06
1.43567e-06
1.454e-06
1.23984e-06
1.25193e-06
1.24317e-06
1.43787e-06
1.47955e-06
1.49332e-06
1.27374e-06
1.27334e-06
1.28684e-06
1.28447e-06
1.47964e-06
1.48449e-06
1.28057e-06
1.27086e-06
1.29385e-06
1.29099e-06
1.25815e-06
1.28413e-06
1.28456e-06
1.46371e-06
1.48932e-06
1.25073e-06
1.28554e-06
1.28471e-06
1.48467e-06
1.49419e-06
1.46722e-06
1.28678e-06
1.28401e-06
1.27902e-06
1.2744e-06
1.48457e-06
1.45576e-06
1.29349e-06
1.29131e-06
1.27978e-06
1.2821e-06
1.28683e-06
1.26952e-06
1.28461e-06
1.49149e-06
1.47015e-06
1.28946e-06
1.28437e-06
1.28977e-06
1.47966e-06
1.46699e-06
1.45938e-06
1.27562e-06
1.27254e-06
1.27351e-06
1.27281e-06
1.45625e-06
1.45799e-06
1.27414e-06
1.27668e-06
1.26974e-06
1.27286e-06
1.28165e-06
1.26725e-06
1.2788e-06
1.46978e-06
1.46148e-06
1.28711e-06
1.27676e-06
1.28283e-06
1.47288e-06
1.46359e-06
1.48856e-06
1.27432e-06
1.27485e-06
1.29085e-06
1.29387e-06
1.4638e-06
1.49397e-06
1.2704e-06
1.27381e-06
1.28903e-06
1.29427e-06
1.27929e-06
1.29379e-06
1.29636e-06
1.46592e-06
1.49371e-06
1.28303e-06
1.29271e-06
1.29368e-06
1.49736e-06
1.49687e-06
1.50914e-06
1.29855e-06
1.30082e-06
1.31038e-06
1.31225e-06
1.50222e-06
1.51579e-06
1.29798e-06
1.30146e-06
1.30961e-06
1.30617e-06
1.30488e-06
1.31632e-06
1.31255e-06
1.50115e-06
1.50353e-06
1.30067e-06
1.30669e-06
1.30761e-06
1.50849e-06
1.51077e-06
1.49833e-06
1.31053e-06
1.3125e-06
1.30589e-06
1.30824e-06
1.51763e-06
1.50368e-06
1.3096e-06
1.30508e-06
1.30452e-06
1.30106e-06
1.312e-06
1.31022e-06
1.30067e-06
1.50413e-06
1.49245e-06
1.30711e-06
1.30178e-06
1.29777e-06
1.48664e-06
1.49919e-06
1.50048e-06
1.30408e-06
1.30575e-06
1.30369e-06
1.30351e-06
1.50409e-06
1.49757e-06
1.30325e-06
1.3011e-06
1.30373e-06
1.30714e-06
1.29803e-06
1.3025e-06
1.29846e-06
1.49388e-06
1.5061e-06
1.29604e-06
1.3037e-06
1.29765e-06
1.49206e-06
1.50511e-06
1.51551e-06
1.30511e-06
1.30382e-06
1.31511e-06
1.31064e-06
1.50029e-06
1.50796e-06
1.30607e-06
1.31291e-06
1.31761e-06
1.32209e-06
1.30217e-06
1.31037e-06
1.32471e-06
1.51287e-06
1.52345e-06
1.30293e-06
1.32051e-06
1.32693e-06
1.53243e-06
1.51787e-06
1.51518e-06
1.3166e-06
1.31364e-06
1.31729e-06
1.3202e-06
1.51219e-06
1.51986e-06
1.31883e-06
1.32209e-06
1.31829e-06
1.31722e-06
1.32609e-06
1.32051e-06
1.3197e-06
1.52476e-06
1.5115e-06
1.32793e-06
1.31684e-06
1.31921e-06
1.51262e-06
1.51653e-06
1.51378e-06
1.3174e-06
1.32029e-06
1.31761e-06
1.31615e-06
1.52172e-06
1.51083e-06
1.31744e-06
1.3147e-06
1.31419e-06
1.30955e-06
1.31229e-06
1.31226e-06
1.30204e-06
1.51219e-06
1.5053e-06
1.31119e-06
1.3098e-06
1.30231e-06
1.49033e-06
1.51503e-06
1.51177e-06
1.31698e-06
1.31366e-06
1.31449e-06
1.31157e-06
1.51144e-06
1.50829e-06
1.31289e-06
1.30867e-06
1.3118e-06
1.30889e-06
1.30215e-06
1.30987e-06
1.31639e-06
1.50677e-06
1.51075e-06
1.30266e-06
1.3116e-06
1.32044e-06
1.52494e-06
1.51516e-06
1.5325e-06
1.31474e-06
1.3122e-06
1.3257e-06
1.32629e-06
1.51284e-06
1.53394e-06
1.31303e-06
1.31138e-06
1.3286e-06
1.33065e-06
1.32537e-06
1.33047e-06
1.33393e-06
1.51543e-06
1.53539e-06
1.32842e-06
1.33114e-06
1.33386e-06
1.54269e-06
1.53656e-06
1.52662e-06
1.32847e-06
1.33027e-06
1.32712e-06
1.33102e-06
1.53867e-06
1.53421e-06
1.33053e-06
1.33346e-06
1.32767e-06
1.33179e-06
1.33327e-06
1.33125e-06
1.31813e-06
1.53976e-06
1.53231e-06
1.33255e-06
1.32891e-06
1.31497e-06
1.51007e-06
1.52631e-06
1.51454e-06
1.32292e-06
1.32835e-06
1.31629e-06
1.3149e-06
1.53425e-06
1.51413e-06
1.32241e-06
1.32641e-06
1.31492e-06
1.3133e-06
1.31416e-06
1.31376e-06
1.31338e-06
1.53168e-06
1.51346e-06
1.31165e-06
1.31339e-06
1.31223e-06
1.51355e-06
1.5183e-06
1.5405e-06
1.31652e-06
1.31415e-06
1.3281e-06
1.32125e-06
1.51542e-06
1.53122e-06
1.31514e-06
1.31314e-06
1.32646e-06
1.32331e-06
1.31708e-06
1.32352e-06
1.33983e-06
1.51562e-06
1.53632e-06
1.3176e-06
1.32799e-06
1.34178e-06
1.56172e-06
1.54471e-06
1.52802e-06
1.33057e-06
1.32762e-06
1.32767e-06
1.33022e-06
1.53864e-06
1.53723e-06
1.32878e-06
1.32764e-06
1.32576e-06
1.32718e-06
1.34065e-06
1.33107e-06
1.32813e-06
1.54171e-06
1.53157e-06
1.34243e-06
1.32979e-06
1.32861e-06
1.52429e-06
1.52564e-06
1.49522e-06
1.32037e-06
1.32718e-06
1.30001e-06
1.30497e-06
1.53639e-06
1.50463e-06
1.31849e-06
1.32209e-06
1.29964e-06
1.30123e-06
1.31354e-06
1.30345e-06
1.29176e-06
1.52969e-06
1.49761e-06
1.31329e-06
1.29839e-06
1.28984e-06
1.47939e-06
1.49651e-06
1.52432e-06
1.29866e-06
1.30226e-06
1.30566e-06
1.30508e-06
1.50555e-06
1.52069e-06
1.29863e-06
1.29935e-06
1.30743e-06
1.30357e-06
1.29175e-06
1.30628e-06
1.31503e-06
1.49867e-06
1.51711e-06
1.28972e-06
1.30161e-06
1.31192e-06
1.5351e-06
1.53823e-06
1.56958e-06
1.3184e-06
1.31319e-06
1.34038e-06
1.33095e-06
1.5308e-06
1.54994e-06
1.32096e-06
1.31332e-06
1.34159e-06
1.33658e-06
1.32858e-06
1.32997e-06
1.33834e-06
1.52821e-06
1.55798e-06
1.32685e-06
1.33602e-06
1.33956e-06
1.56649e-06
1.5717e-06
1.52146e-06
1.34056e-06
1.33105e-06
1.32096e-06
1.31622e-06
1.55128e-06
1.51588e-06
1.34158e-06
1.33762e-06
1.31935e-06
1.3289e-06
1.33616e-06
1.31012e-06
1.29835e-06
1.56111e-06
1.53812e-06
1.33808e-06
1.32778e-06
1.30344e-06
1.49605e-06
1.5148e-06
1.45839e-06
1.30254e-06
1.30459e-06
1.26798e-06
1.28167e-06
1.51348e-06
1.48953e-06
1.30063e-06
1.3147e-06
1.26551e-06
1.2727e-06
1.28867e-06
1.28521e-06
1.28392e-06
1.53424e-06
1.4745e-06
1.29241e-06
1.27762e-06
1.28435e-06
1.48701e-06
1.45929e-06
1.4964e-06
1.26614e-06
1.27992e-06
1.27655e-06
1.28375e-06
1.49115e-06
1.50788e-06
1.26355e-06
1.26681e-06
1.2735e-06
1.26755e-06
1.28737e-06
1.29174e-06
1.31133e-06
1.47424e-06
1.47824e-06
1.28611e-06
1.27333e-06
1.30656e-06
1.54084e-06
1.51678e-06
1.58263e-06
1.29627e-06
1.29378e-06
1.3371e-06
1.32326e-06
1.51782e-06
1.55021e-06
1.29322e-06
1.27575e-06
1.33849e-06
1.32922e-06
1.31274e-06
1.31572e-06
1.30678e-06
1.49074e-06
1.55999e-06
1.30888e-06
1.32034e-06
1.3059e-06
1.5261e-06
1.58718e-06
1.53903e-06
1.33873e-06
1.32494e-06
1.321e-06
1.3142e-06
1.55398e-06
1.52543e-06
1.34105e-06
1.3361e-06
1.32757e-06
1.3333e-06
1.29868e-06
1.30459e-06
1.27864e-06
1.56859e-06
1.55851e-06
1.29964e-06
1.32125e-06
1.28055e-06
1.48365e-06
1.52935e-06
1.43666e-06
1.29622e-06
1.29531e-06
1.24076e-06
1.25008e-06
1.51946e-06
1.45783e-06
1.30451e-06
1.32233e-06
1.24175e-06
1.25477e-06
1.27593e-06
1.25739e-06
1.27463e-06
1.55399e-06
1.46287e-06
1.27737e-06
1.26099e-06
1.27461e-06
1.49323e-06
1.43663e-06
1.46037e-06
1.23668e-06
1.2471e-06
1.2442e-06
1.25622e-06
1.45858e-06
1.48736e-06
1.23473e-06
1.24116e-06
1.23696e-06
1.23311e-06
1.27692e-06
1.2645e-06
1.28179e-06
1.45939e-06
1.44505e-06
1.27564e-06
1.24571e-06
1.27984e-06
1.51734e-06
1.47775e-06
1.53535e-06
1.26152e-06
1.27284e-06
1.29634e-06
1.2934e-06
1.50332e-06
1.53077e-06
1.24869e-06
1.23659e-06
1.29316e-06
1.28295e-06
1.2818e-06
1.288e-06
1.27546e-06
1.45298e-06
1.51681e-06
1.28017e-06
1.28169e-06
1.27682e-06
1.504e-06
1.53938e-06
1.49657e-06
1.29776e-06
1.29335e-06
1.26342e-06
1.24984e-06
1.53198e-06
1.46795e-06
1.29664e-06
1.29109e-06
1.26927e-06
1.27126e-06
1.27254e-06
1.243e-06
1.23686e-06
1.5256e-06
1.50179e-06
1.27469e-06
1.26208e-06
1.2385e-06
1.4553e-06
1.46443e-06
1.21515e-06
1.20214e-06
1.43874e-06
1.22119e-06
1.22512e-06
7.63435e-07
7.75876e-07
7.6026e-07
1.1971e-06
1.47246e-06
1.19736e-06
2.73214e-10
2.42371e-09
2.34193e-10
3.47668e-10
5.41615e-09
6.06561e-09
2.6697e-08
1.07989e-09
5.40696e-09
4.2494e-09
1.31418e-09
7.84198e-09
4.98268e-09
3.78055e-09
8.14934e-09
7.46834e-09
2.14161e-07
5.93499e-09
3.29837e-07
1.5124e-06
2.97294e-06
8.71001e-09
2.4869e-07
7.29151e-09
3.82408e-07
1.92417e-09
1.57102e-09
1.71099e-09
1.3899e-09
1.88407e-09
1.55552e-09
1.70223e-09
4.78928e-09
1.03488e-07
3.97887e-09
9.0747e-09
5.0058e-09
8.15653e-08
3.86675e-09
1.57538e-06
3.12289e-06
4.70637e-09
3.54794e-09
8.74393e-08
4.81029e-09
4.9557e-09
3.50404e-09
6.45867e-08
2.14791e-07
2.22096e-07
4.63444e-09
1.84523e-07
1.92639e-07
1.69745e-08
5.77956e-07
1.20535e-08
8.17821e-07
6.85534e-06
9.96142e-06
1.79006e-08
6.99602e-07
1.32428e-08
9.52491e-07
1.83172e-09
1.53336e-09
1.68519e-09
1.31818e-09
1.68295e-09
1.46351e-09