/*--------------------------------*- C++ -*----------------------------------*\
| =========                 |                                                 |
| \\      /  F ield         | OpenFOAM: The Open Source CFD Toolbox           |
|  \\    /   O peration     | Version:  v2012                                 |
|   \\  /    A nd           | Website:  www.openfoam.com                      |
|    \\/     M anipulation  |                                                 |
\*---------------------------------------------------------------------------*/
FoamFile
{
    version     2.0;
    format      ascii;
    class       volScalarField;
    location    "950";
    object      k;
}
// * * * * * * * * * * * * * * * * * * * * * * * * * * * * * * * * * * * * * //

dimensions      [0 2 -2 0 0 0 0];


internalField   nonuniform List<scalar> 
171728
(
1.64877e-07
6.15461e-07
3.23403e-07
3.4344e-07
1.6204e-07
6.40874e-07
3.09524e-07
3.24495e-07
1.58603e-07
6.5216e-07
2.94991e-07
3.0818e-07
1.55132e-07
6.37602e-07
2.82055e-07
2.9597e-07
1.49396e-07
5.02849e-07
2.70842e-07
2.88635e-07
1.43884e-07
3.3433e-07
2.59693e-07
2.85132e-07
1.40738e-07
2.5328e-07
2.49702e-07
2.86303e-07
1.35058e-07
2.23011e-07
2.41561e-07
2.8962e-07
1.28155e-07
2.08081e-07
2.30345e-07
2.91156e-07
1.23836e-07
1.93452e-07
2.16737e-07
2.88761e-07
1.22132e-07
1.81139e-07
2.02954e-07
2.44248e-07
1.20417e-07
1.73011e-07
1.90902e-07
2.20958e-07
1.18482e-07
1.68972e-07
1.83212e-07
2.07605e-07
1.1642e-07
1.68189e-07
1.80821e-07
2.03569e-07
1.14167e-07
1.69616e-07
1.8315e-07
2.02071e-07
1.12069e-07
1.73611e-07
1.90151e-07
2.04415e-07
1.10192e-07
1.83158e-07
2.01162e-07
2.14964e-07
1.08417e-07
1.97065e-07
2.34714e-07
2.36271e-07
1.0674e-07
2.26786e-07
3.13238e-07
2.7787e-07
1.05292e-07
2.78163e-07
4.38897e-07
3.50843e-07
1.04009e-07
3.47386e-07
5.90173e-07
4.58017e-07
1.03412e-07
4.59062e-07
8.04888e-07
7.51918e-07
1.03395e-07
6.29505e-07
1.03421e-06
7.87053e-07
1.04401e-07
8.83662e-07
1.18866e-06
2.69581e-06
1.06037e-07
1.18604e-06
1.25924e-06
2.05349e-06
1.09613e-07
1.5364e-06
1.95717e-06
4.14911e-06
1.16999e-07
2.24228e-06
2.35576e-06
5.30074e-06
1.2641e-07
2.57313e-06
2.68267e-06
8.23205e-06
1.44053e-07
3.77124e-06
3.27919e-06
9.72162e-06
1.6313e-07
4.19867e-06
4.75271e-06
1.21296e-05
2.1521e-07
5.32466e-06
5.12137e-06
1.52176e-05
2.59373e-07
6.79855e-06
6.82384e-06
1.90067e-05
3.29379e-07
7.55434e-06
7.69188e-06
1.89476e-05
4.18163e-07
8.97297e-06
8.72303e-06
1.97829e-05
5.39282e-07
1.06482e-05
1.08565e-05
2.53384e-05
6.00075e-07
1.22813e-05
1.24143e-05
2.46628e-05
9.73873e-07
1.30142e-05
1.35294e-05
2.49587e-05
1.1793e-06
1.60836e-05
1.50355e-05
3.03435e-05
1.49303e-06
1.77677e-05
1.83206e-05
2.97916e-05
1.77141e-06
1.81322e-05
1.91106e-05
2.91212e-05
2.11505e-06
2.10136e-05
1.96108e-05
3.14507e-05
2.84163e-06
2.31395e-05
2.30638e-05
3.37119e-05
3.52646e-06
2.49731e-05
2.48186e-05
3.40224e-05
3.97095e-06
2.55694e-05
2.60696e-05
3.46519e-05
4.98275e-06
2.75184e-05
2.78561e-05
3.61625e-05
6.07058e-06
2.97697e-05
2.99791e-05
3.77652e-05
6.39541e-06
3.15574e-05
3.06874e-05
3.80809e-05
8.32451e-06
3.23323e-05
3.27216e-05
3.82922e-05
9.30285e-06
3.44697e-05
3.42813e-05
4.14692e-05
1.09743e-05
3.56273e-05
3.59527e-05
4.19985e-05
1.18285e-05
3.62272e-05
3.72713e-05
4.14403e-05
1.30739e-05
3.83892e-05
3.74599e-05
4.24946e-05
1.57961e-05
3.9563e-05
3.81516e-05
4.47257e-05
1.73461e-05
3.99054e-05
4.0757e-05
4.50292e-05
1.74266e-05
4.17114e-05
4.22861e-05
4.5428e-05
1.79164e-05
4.27445e-05
4.28864e-05
4.66336e-05
2.23926e-05
4.2959e-05
4.29298e-05
4.67354e-05
2.41751e-05
4.43447e-05
4.39074e-05
4.774e-05
2.44169e-05
4.5294e-05
4.5557e-05
4.90478e-05
2.57016e-05
4.65648e-05
4.67175e-05
4.93138e-05
2.70079e-05
4.70984e-05
4.65993e-05
4.92505e-05
2.81999e-05
4.71492e-05
4.70644e-05
5.03155e-05
3.0208e-05
4.85963e-05
4.92524e-05
5.13471e-05
3.23003e-05
4.98678e-05
4.97254e-05
5.23177e-05
3.25553e-05
4.98953e-05
4.97272e-05
5.24723e-05
3.22905e-05
4.99587e-05
5.01461e-05
5.1815e-05
3.36758e-05
5.18707e-05
5.08127e-05
5.24679e-05
3.66658e-05
5.24469e-05
5.26024e-05
5.45282e-05
3.72995e-05
5.16509e-05
5.25363e-05
5.43555e-05
3.71258e-05
5.15845e-05
5.22379e-05
5.41265e-05
3.74744e-05
5.35523e-05
5.33155e-05
5.54017e-05
3.95344e-05
5.48133e-05
5.41821e-05
5.58879e-05
4.06406e-05
5.4525e-05
5.40869e-05
5.50224e-05
4.08103e-05
5.41979e-05
5.43074e-05
5.5435e-05
4.16177e-05
5.48115e-05
5.53874e-05
5.72081e-05
4.24674e-05
5.54798e-05
5.53222e-05
5.64438e-05
4.29885e-05
5.5292e-05
5.50781e-05
5.56389e-05
4.32258e-05
5.53393e-05
5.55046e-05
5.73764e-05
4.41797e-05
5.67061e-05
5.67347e-05
5.80998e-05
4.49093e-05
5.68027e-05
5.66602e-05
5.68295e-05
4.49991e-05
5.62452e-05
5.62437e-05
5.72861e-05
4.54656e-05
5.69716e-05
5.71811e-05
5.92656e-05
4.58288e-05
5.72487e-05
5.71507e-05
5.76269e-05
4.54353e-05
5.62499e-05
5.58822e-05
5.59946e-05
4.56763e-05
5.68539e-05
5.65775e-05
5.87701e-05
4.76713e-05
5.80268e-05
5.85694e-05
5.99282e-05
4.74332e-05
5.69361e-05
5.79937e-05
5.70181e-05
4.51794e-05
5.60491e-05
5.55249e-05
5.69135e-05
4.53341e-05
5.70626e-05
5.57098e-05
5.93348e-05
4.87252e-05
5.83585e-05
5.87694e-05
5.86019e-05
4.88666e-05
5.74049e-05
5.87394e-05
5.68254e-05
4.5344e-05
5.54747e-05
5.54655e-05
5.76671e-05
4.47463e-05
5.65593e-05
5.50334e-05
5.88487e-05
4.74699e-05
5.7695e-05
5.74102e-05
5.8126e-05
4.78759e-05
5.52128e-05
5.63058e-05
5.64885e-05
3.64146e-07
3.21874e-07
3.11116e-07
3.43407e-07
3.09311e-07
3.9058e-07
1.61789e-07
1.91773e-07
1.77177e-07
1.88354e-07
4.25834e-07
3.18974e-07
3.55912e-07
3.1073e-07
3.24465e-07
3.44676e-07
3.61301e-07
3.48104e-07
4.47142e-07
3.56788e-07
4.1028e-07
3.5606e-07
3.40402e-07
3.35983e-07
5.73951e-07
4.95002e-07
4.12008e-07
5.11634e-07
3.48762e-07
6.35284e-07
3.45326e-07
3.53122e-07
3.40732e-07
3.25346e-07
3.13304e-07
2.98262e-07
3.26406e-07
3.44902e-07
3.31003e-07
3.99157e-07
3.56192e-07
3.83555e-07
3.60085e-07
3.34315e-07
3.37839e-07
3.78626e-07
5.1599e-07
3.3558e-07
5.27929e-07
3.44936e-07
6.51618e-07
3.45048e-07
3.38383e-07
3.33586e-07
2.89441e-07
2.98413e-07
2.6589e-07
3.1053e-07
3.28037e-07
3.17918e-07
3.81631e-07
3.62797e-07
3.70705e-07
3.75184e-07
3.35989e-07
3.38147e-07
3.32454e-07
5.31201e-07
3.34465e-07
5.34839e-07
3.45598e-07
6.4651e-07
3.50096e-07
3.3174e-07
3.27785e-07
2.59541e-07
2.85164e-07
2.44695e-07
2.97905e-07
3.16135e-07
3.10074e-07
3.6514e-07
3.82074e-07
3.44599e-07
4.11209e-07
3.35458e-07
3.24982e-07
3.41363e-07
5.34765e-07
3.65208e-07
5.22893e-07
3.52705e-07
5.46879e-07
3.62004e-07
3.26034e-07
3.21493e-07
2.40528e-07
2.73691e-07
2.29572e-07
2.8992e-07
3.08495e-07
3.03898e-07
3.35489e-07
4.20852e-07
3.03651e-07
4.60694e-07
3.18732e-07
3.07978e-07
3.74439e-07
5.04628e-07
4.11685e-07
4.15748e-07
3.66316e-07
3.70011e-07
3.80268e-07
3.19212e-07
2.91122e-07
2.26358e-07
2.62325e-07
2.18259e-07
2.8591e-07
3.02482e-07
2.99186e-07
2.92698e-07
4.78686e-07
2.65214e-07
5.5471e-07
3.06499e-07
3.1318e-07
4.26583e-07
3.80492e-07
4.64765e-07
2.83364e-07
3.85349e-07
2.66443e-07
4.08151e-07
2.88182e-07
2.68931e-07
2.15929e-07
2.51998e-07
2.09689e-07
2.86573e-07
2.97278e-07
2.82944e-07
2.57853e-07
5.90597e-07
2.34736e-07
7.08747e-07
3.13368e-07
3.41384e-07
4.71714e-07
2.59106e-07
4.72432e-07
2.11993e-07
4.17454e-07
2.28238e-07
4.4737e-07
2.66942e-07
2.47439e-07
2.07811e-07
2.43636e-07
2.02548e-07
2.89996e-07
2.7914e-07
2.54988e-07
2.25816e-07
7.40524e-07
2.01334e-07
7.83164e-07
3.41569e-07
3.56921e-07
4.59914e-07
2.03075e-07
3.61691e-07
1.87099e-07
4.58467e-07
2.11419e-07
4.88917e-07
2.46555e-07
2.34683e-07
2.00939e-07
2.33579e-07
1.96621e-07
2.91926e-07
2.52796e-07
2.29734e-07
1.94159e-07
7.83226e-07
1.75168e-07
6.75501e-07
3.55164e-07
3.05211e-07
3.29502e-07
1.83627e-07
2.49933e-07
1.76144e-07
4.95774e-07
1.97063e-07
5.01809e-07
2.34087e-07
2.23027e-07
1.95339e-07
2.20208e-07
1.91634e-07
2.89826e-07
2.28363e-07
2.0976e-07
1.7123e-07
5.91528e-07
1.67152e-07
3.7967e-07
2.8932e-07
2.30501e-07
2.2926e-07
1.74431e-07
1.91287e-07
1.70403e-07
4.99771e-07
1.83911e-07
4.16398e-07
2.22524e-07
2.11873e-07
1.90375e-07
2.06353e-07
1.8647e-07
2.47087e-07
2.09096e-07
1.99694e-07
1.6638e-07
3.24857e-07
1.62073e-07
2.16969e-07
2.27826e-07
2.0499e-07
1.8761e-07
1.69143e-07
1.85408e-07
1.65172e-07
3.7981e-07
1.74387e-07
2.85545e-07
2.11445e-07
2.01911e-07
1.8549e-07
1.93534e-07
1.83711e-07
2.22064e-07
1.99721e-07
1.93795e-07
1.60432e-07
2.01302e-07
1.56402e-07
1.91487e-07
2.04158e-07
1.93728e-07
1.83807e-07
1.64009e-07
1.77548e-07
1.61408e-07
2.59092e-07
1.69714e-07
2.17333e-07
2.01714e-07
1.94175e-07
1.83037e-07
1.84807e-07
1.81473e-07
2.07887e-07
1.93977e-07
1.89488e-07
1.55768e-07
1.91132e-07
1.55432e-07
1.80118e-07
1.93479e-07
1.876e-07
1.76078e-07
1.60708e-07
1.75138e-07
1.58808e-07
2.15776e-07
1.68081e-07
2.18357e-07
1.94239e-07
1.88801e-07
1.81148e-07
1.8079e-07
1.80469e-07
2.03246e-07
1.89886e-07
1.87076e-07
1.55587e-07
1.75043e-07
1.56174e-07
1.67316e-07
1.87917e-07
1.85501e-07
1.75381e-07
1.58458e-07
1.78038e-07
1.58895e-07
2.18373e-07
1.69242e-07
2.12245e-07
1.89106e-07
1.86153e-07
1.80367e-07
1.82216e-07
1.80992e-07
2.0138e-07
1.87877e-07
1.87069e-07
1.56569e-07
1.67129e-07
1.58639e-07
1.68982e-07
1.86372e-07
1.85661e-07
1.79057e-07
1.59425e-07
1.83543e-07
1.62985e-07
2.1143e-07
1.71996e-07
2.12632e-07
1.86962e-07
1.86734e-07
1.81534e-07
1.87989e-07
1.83889e-07
2.02542e-07
1.88717e-07
1.92159e-07
1.59854e-07
1.70912e-07
1.66211e-07
1.77539e-07
1.87285e-07
1.92114e-07
1.85433e-07
1.64789e-07
1.93257e-07
1.72046e-07
2.15925e-07
1.79859e-07
2.36633e-07
1.8836e-07
1.92582e-07
1.85111e-07
1.97464e-07
1.89522e-07
2.10959e-07
1.95447e-07
2.05123e-07
1.69034e-07
1.80935e-07
1.80936e-07
1.89422e-07
1.95682e-07
2.02747e-07
1.96695e-07
1.74994e-07
2.0889e-07
1.85868e-07
2.45746e-07
1.91652e-07
2.77154e-07
1.96116e-07
2.08437e-07
1.92037e-07
2.23724e-07
2.02541e-07
2.29521e-07
2.11779e-07
2.38997e-07
1.86815e-07
1.95226e-07
2.10018e-07
2.17397e-07
2.08378e-07
2.35689e-07
2.14942e-07
1.89697e-07
2.37556e-07
2.07126e-07
2.90791e-07
2.17898e-07
3.41141e-07
2.15116e-07
2.43657e-07
2.06845e-07
2.89135e-07
2.25539e-07
2.65834e-07
2.50057e-07
2.91291e-07
2.19476e-07
2.26546e-07
2.52789e-07
2.65836e-07
2.48823e-07
2.98513e-07
2.47029e-07
2.15948e-07
2.75845e-07
2.51085e-07
3.58488e-07
2.66038e-07
4.17903e-07
2.5783e-07
3.22495e-07
2.33224e-07
4.00668e-07
2.63075e-07
3.30387e-07
3.12485e-07
4.08378e-07
2.68609e-07
2.78436e-07
3.26447e-07
3.11689e-07
3.15507e-07
3.6644e-07
2.94733e-07
2.67747e-07
3.45564e-07
3.05198e-07
4.37853e-07
3.11233e-07
4.95839e-07
3.47769e-07
4.49461e-07
2.75602e-07
5.4751e-07
3.27981e-07
4.2866e-07
4.36959e-07
5.98091e-07
3.4416e-07
3.48158e-07
4.2928e-07
4.47079e-07
4.11405e-07
6.57976e-07
3.62754e-07
3.30064e-07
4.54493e-07
4.49065e-07
5.10431e-07
4.45391e-07
6.07042e-07
4.82588e-07
7.47878e-07
3.40059e-07
7.71607e-07
4.52149e-07
6.99518e-07
6.73493e-07
9.93668e-07
4.67281e-07
4.6103e-07
6.01296e-07
5.63426e-07
6.84881e-07
8.53324e-07
4.87386e-07
4.71284e-07
6.13864e-07
5.68098e-07
6.19503e-07
5.54951e-07
6.36038e-07
8.05269e-07
9.81912e-07
4.81936e-07
9.34355e-07
5.24332e-07
7.5175e-07
1.08441e-06
1.4757e-06
6.50201e-07
6.35023e-07
7.86982e-07
8.36601e-07
1.00543e-06
1.68731e-06
6.59486e-07
6.67244e-07
8.10735e-07
9.09921e-07
6.58739e-07
8.36647e-07
1.07988e-06
1.1546e-06
1.81492e-06
5.59728e-07
1.18447e-06
9.62597e-07
2.55318e-06
1.61751e-06
2.48226e-06
8.57666e-07
8.831e-07
1.16682e-06
1.08564e-06
1.77689e-06
2.30902e-06
8.8067e-07
9.46357e-07
1.14804e-06
1.08243e-06
1.14936e-06
1.0655e-06
1.16496e-06
1.84629e-06
1.95088e-06
1.02426e-06
1.20694e-06
1.05493e-06
2.04626e-06
2.69912e-06
3.43271e-06
1.22717e-06
1.20727e-06
1.45495e-06
1.45463e-06
2.56103e-06
3.64951e-06
1.21152e-06
1.26501e-06
1.49862e-06
1.75383e-06
1.17002e-06
1.46675e-06
1.52897e-06
2.16132e-06
4.20367e-06
1.07072e-06
1.81384e-06
1.49778e-06
3.66667e-06
3.68436e-06
5.44499e-06
1.59136e-06
1.54729e-06
2.02637e-06
2.08691e-06
3.88531e-06
5.39134e-06
1.62941e-06
1.90026e-06
2.06481e-06
2.47043e-06
1.64893e-06
2.05825e-06
1.93297e-06
4.6249e-06
6.00356e-06
1.60649e-06
2.2471e-06
1.86482e-06
4.99005e-06
5.85491e-06
7.14472e-06
2.20575e-06
2.25446e-06
2.58485e-06
2.48622e-06
5.8775e-06
6.91056e-06
2.2125e-06
2.6517e-06
2.56079e-06
2.9399e-06
2.15013e-06
2.50575e-06
2.73755e-06
6.34222e-06
7.15105e-06
2.08083e-06
2.63835e-06
2.76807e-06
7.75529e-06
7.49722e-06
9.56923e-06
2.69783e-06
2.56249e-06
3.40801e-06
3.50393e-06
7.05426e-06
1.01104e-05
2.73613e-06
2.96295e-06
3.41707e-06
3.06284e-06
2.8308e-06
3.4599e-06
3.32391e-06
7.24512e-06
7.84868e-06
2.88591e-06
2.93204e-06
3.34e-06
9.38014e-06
1.01378e-05
1.19989e-05
3.67957e-06
3.80552e-06
4.11571e-06
4.15214e-06
1.1025e-05
1.20527e-05
3.64344e-06
3.19745e-06
4.14723e-06
4.69214e-06
3.58491e-06
4.14428e-06
4.02255e-06
8.48378e-06
1.35683e-05
3.60146e-06
4.50781e-06
4.31404e-06
1.16351e-05
1.22987e-05
1.43082e-05
4.19677e-06
4.20751e-06
5.21613e-06
5.00253e-06
1.21367e-05
1.36652e-05
4.2927e-06
5.08344e-06
5.18297e-06
5.55599e-06
4.19112e-06
4.95321e-06
5.10503e-06
1.41675e-05
1.45325e-05
4.44093e-06
5.04811e-06
5.58041e-06
1.44403e-05
1.5125e-05
1.74824e-05
5.68767e-06
5.38304e-06
6.38442e-06
6.43822e-06
1.46951e-05
1.78306e-05
5.62341e-06
5.60586e-06
6.58138e-06
6.15953e-06
5.48487e-06
6.45905e-06
6.75e-06
1.46529e-05
1.642e-05
6.4262e-06
6.27058e-06
7.99485e-06
1.86302e-05
1.77281e-05
1.84132e-05
6.5018e-06
6.73383e-06
7.36481e-06
7.4913e-06
1.81214e-05
1.89567e-05
6.68642e-06
6.64846e-06
7.50122e-06
7.58584e-06
7.10948e-06
7.46016e-06
7.64818e-06
1.7238e-05
1.94379e-05
8.07352e-06
7.62425e-06
7.61062e-06
1.88962e-05
1.88316e-05
2.16019e-05
7.62585e-06
7.62134e-06
8.69503e-06
8.48572e-06
1.9354e-05
2.06444e-05
7.87085e-06
7.73236e-06
8.88576e-06
8.33569e-06
7.69273e-06
8.42131e-06
7.8954e-06
1.96913e-05
2.04265e-05
7.38511e-06
8.27668e-06
7.45238e-06
1.92361e-05
2.21675e-05
2.27587e-05
9.19346e-06
9.04666e-06
1.04503e-05
1.03044e-05
2.11242e-05
2.32347e-05
9.34526e-06
8.78206e-06
1.06105e-05
1.04693e-05
8.16136e-06
1.02858e-05
1.07997e-05
2.08845e-05
2.32088e-05
7.83808e-06
1.03244e-05
1.20261e-05
2.45529e-05
2.29427e-05
2.38779e-05
1.06944e-05
1.06342e-05
1.11192e-05
1.18496e-05
2.37279e-05
2.46721e-05
1.08508e-05
1.08743e-05
1.12659e-05
1.17004e-05
1.15977e-05
1.19145e-05
1.23053e-05
2.37117e-05
2.48583e-05
1.27834e-05
1.20757e-05
1.31387e-05
2.47766e-05
2.44049e-05
2.66396e-05
1.14007e-05
1.22143e-05
1.38224e-05
1.28178e-05
2.48818e-05
2.55042e-05
1.14341e-05
1.20555e-05
1.36151e-05
1.34747e-05
1.22927e-05
1.28081e-05
1.23383e-05
2.5187e-05
2.6028e-05
1.29178e-05
1.33652e-05
1.25888e-05
2.4286e-05
2.71096e-05
2.77928e-05
1.44792e-05
1.31628e-05
1.53347e-05
1.53425e-05
2.59661e-05
2.83853e-05
1.44437e-05
1.38063e-05
1.56162e-05
1.44248e-05
1.24811e-05
1.52088e-05
1.5766e-05
2.62744e-05
2.7131e-05
1.26826e-05
1.43567e-05
1.57094e-05
2.96394e-05
2.80295e-05
2.91146e-05
1.54869e-05
1.6136e-05
1.70547e-05
1.74834e-05
2.87441e-05
2.89622e-05
1.57591e-05
1.49321e-05
1.71309e-05
1.74739e-05
1.72436e-05
1.75921e-05
1.87047e-05
2.76353e-05
2.9746e-05
1.71822e-05
1.7677e-05
1.861e-05
2.98539e-05
2.94658e-05
3.00582e-05
1.75918e-05
1.76501e-05
1.85652e-05
1.79266e-05
2.90536e-05
2.95151e-05
1.76607e-05
1.81956e-05
1.86085e-05
1.91446e-05
1.87075e-05
1.80259e-05
1.81738e-05
3.00631e-05
3.02196e-05
1.86106e-05
1.90612e-05
1.8079e-05
2.89606e-05
3.02417e-05
3.10969e-05
1.87195e-05
1.80652e-05
1.99698e-05
2.03258e-05
2.98341e-05
3.14811e-05
1.87565e-05
1.92177e-05
1.99223e-05
1.94323e-05
1.81453e-05
2.00608e-05
1.85496e-05
3.02831e-05
3.06361e-05
1.80549e-05
1.93286e-05
1.84967e-05
3.07537e-05
3.14995e-05
3.28538e-05
2.06257e-05
2.12474e-05
2.24087e-05
2.26619e-05
3.19701e-05
3.2982e-05
2.05267e-05
1.96834e-05
2.23679e-05
2.22088e-05
1.95697e-05
2.26044e-05
2.32384e-05
3.09712e-05
3.2889e-05
1.95838e-05
2.22845e-05
2.32343e-05
3.34924e-05
3.31532e-05
3.38351e-05
2.29414e-05
2.31192e-05
2.42814e-05
2.44654e-05
3.32396e-05
3.39924e-05
2.29793e-05
2.29891e-05
2.43582e-05
2.45518e-05
2.39446e-05
2.46935e-05
2.48609e-05
3.32849e-05
3.40093e-05
2.39091e-05
2.46262e-05
2.47423e-05
3.39331e-05
3.40255e-05
3.46125e-05
2.4645e-05
2.47782e-05
2.5555e-05
2.54531e-05
3.41672e-05
3.44681e-05
2.46866e-05
2.48008e-05
2.54309e-05
2.57404e-05
2.49564e-05
2.53303e-05
2.52079e-05
3.41693e-05
3.46731e-05
2.48271e-05
2.56494e-05
2.51228e-05
3.43987e-05
3.48732e-05
3.61496e-05
2.59329e-05
2.57427e-05
2.76663e-05
2.70957e-05
3.46413e-05
3.56039e-05
2.57866e-05
2.61372e-05
2.76617e-05
2.73092e-05
2.55317e-05
2.70125e-05
2.7368e-05
3.49183e-05
3.59303e-05
2.55639e-05
2.73074e-05
2.73924e-05
3.59218e-05
3.64576e-05
3.69791e-05
2.82815e-05
2.7558e-05
2.94162e-05
2.91421e-05
3.5923e-05
3.70878e-05
2.83046e-05
2.78536e-05
2.93871e-05
2.94983e-05
2.77396e-05
2.91824e-05
2.94997e-05
3.62204e-05
3.72162e-05
2.77336e-05
2.96147e-05
2.94262e-05
3.73954e-05
3.70863e-05
3.76024e-05
2.95598e-05
2.97103e-05
3.00847e-05
3.11458e-05
3.74141e-05
3.82748e-05
2.95098e-05
2.984e-05
3.0073e-05
3.0446e-05
3.02095e-05
3.12488e-05
3.12574e-05
3.73955e-05
3.77013e-05
3.01219e-05
3.04163e-05
3.11601e-05
3.80753e-05
3.79575e-05
3.94516e-05
3.07735e-05
3.14443e-05
3.27065e-05
3.20382e-05
3.84208e-05
3.88524e-05
3.08044e-05
3.07209e-05
3.26777e-05
3.22336e-05
3.13234e-05
3.2041e-05
3.1448e-05
3.78506e-05
3.90843e-05
3.12312e-05
3.21931e-05
3.13816e-05
3.80023e-05
3.96396e-05
4.00985e-05
3.30347e-05
3.24145e-05
3.37923e-05
3.40748e-05
3.91041e-05
4.04125e-05
3.29953e-05
3.2776e-05
3.37956e-05
3.40335e-05
3.15727e-05
3.39145e-05
3.39647e-05
3.94213e-05
4.02482e-05
3.15299e-05
3.39166e-05
3.4048e-05
4.09548e-05
4.03442e-05
4.14625e-05
3.42329e-05
3.45641e-05
3.56873e-05
3.5378e-05
4.06678e-05
4.10439e-05
3.41973e-05
3.43785e-05
3.5633e-05
3.53294e-05
3.5022e-05
3.54961e-05
3.64448e-05
4.04189e-05
4.13794e-05
3.50405e-05
3.54892e-05
3.63602e-05
4.20074e-05
4.15934e-05
4.15678e-05
3.59463e-05
3.54784e-05
3.61782e-05
3.57941e-05
4.11164e-05
4.14951e-05
3.5952e-05
3.57139e-05
3.62989e-05
3.69222e-05
3.6502e-05
3.59058e-05
3.63811e-05
4.16576e-05
4.237e-05
3.64175e-05
3.70965e-05
3.63378e-05
4.14208e-05
4.16075e-05
4.3082e-05
3.62348e-05
3.62131e-05
3.7497e-05
3.79341e-05
4.17539e-05
4.32612e-05
3.63647e-05
3.71964e-05
3.75563e-05
3.76241e-05
3.63654e-05
3.79138e-05
3.65429e-05
4.24665e-05
4.25287e-05
3.63306e-05
3.74273e-05
3.65203e-05
4.207e-05
4.36316e-05
4.47748e-05
3.84758e-05
3.84107e-05
4.01824e-05
3.94708e-05
4.35489e-05
4.41505e-05
3.826e-05
3.76948e-05
3.97206e-05
3.80926e-05
3.69743e-05
3.9382e-05
3.95552e-05
4.25812e-05
4.29852e-05
3.69967e-05
3.77424e-05
3.94273e-05
4.4491e-05
4.48153e-05
4.43882e-05
4.03176e-05
3.9666e-05
4.02664e-05
3.98833e-05
4.42358e-05
4.42976e-05
3.99426e-05
3.8608e-05
4.01783e-05
4.05505e-05
4.00485e-05
3.9792e-05
4.06263e-05
4.32633e-05
4.49611e-05
3.98553e-05
4.02338e-05
4.04273e-05
4.49896e-05
4.43902e-05
4.42606e-05
4.01026e-05
3.99708e-05
3.99695e-05
4.09935e-05
4.43713e-05
4.55463e-05
4.01972e-05
4.10036e-05
4.02797e-05
4.15052e-05
4.06747e-05
4.12176e-05
4.08119e-05
4.5289e-05
4.60508e-05
4.04918e-05
4.19356e-05
4.08619e-05
4.52021e-05
4.43756e-05
4.617e-05
3.99925e-05
4.13513e-05
4.13156e-05
4.22495e-05
4.58769e-05
4.65208e-05
4.03782e-05
4.16915e-05
4.22063e-05
4.2464e-05
4.09874e-05
4.26229e-05
4.24813e-05
4.62175e-05
4.66357e-05
4.13771e-05
4.28493e-05
4.26862e-05
4.65307e-05
4.67002e-05
4.8096e-05
4.23112e-05
4.25251e-05
4.44545e-05
4.31778e-05
4.65974e-05
4.6725e-05
4.29471e-05
4.26168e-05
4.41027e-05
4.28824e-05
4.27706e-05
4.28834e-05
4.30344e-05
4.66658e-05
4.65403e-05
4.28654e-05
4.29069e-05
4.30022e-05
4.6669e-05
4.81857e-05
4.79082e-05
4.47466e-05
4.33606e-05
4.48808e-05
4.41691e-05
4.68104e-05
4.75244e-05
4.41982e-05
4.31651e-05
4.42302e-05
4.39924e-05
4.3134e-05
4.39463e-05
4.38753e-05
4.66284e-05
4.74702e-05
4.30365e-05
4.36635e-05
4.37078e-05
4.75162e-05
4.79111e-05
4.80746e-05
4.48248e-05
4.44738e-05
4.47825e-05
4.50282e-05
4.77744e-05
4.84884e-05
4.42329e-05
4.40916e-05
4.45631e-05
4.48985e-05
4.41712e-05
4.50975e-05
4.53149e-05
4.76042e-05
4.84673e-05
4.40483e-05
4.50196e-05
4.52959e-05
4.88089e-05
4.83257e-05
4.92584e-05
4.48314e-05
4.51778e-05
4.58198e-05
4.60527e-05
4.86165e-05
4.93464e-05
4.51448e-05
4.54489e-05
4.63543e-05
4.66164e-05
4.5672e-05
4.62353e-05
4.62905e-05
4.88242e-05
4.9726e-05
4.57007e-05
4.66394e-05
4.63572e-05
4.93037e-05
4.93308e-05
4.92188e-05
4.61389e-05
4.63938e-05
4.65859e-05
4.69677e-05
4.95476e-05
4.97917e-05
4.6442e-05
4.66901e-05
4.6429e-05
4.65545e-05
4.63723e-05
4.7064e-05
4.64708e-05
4.97478e-05
4.92058e-05
4.64122e-05
4.66302e-05
4.64466e-05
4.91917e-05
4.92383e-05
4.9827e-05
4.66382e-05
4.70211e-05
4.70358e-05
4.70877e-05
4.98082e-05
4.97829e-05
4.64295e-05
4.65117e-05
4.66842e-05
4.66335e-05
4.65269e-05
4.71245e-05
4.71952e-05
4.92111e-05
4.96802e-05
4.64621e-05
4.67233e-05
4.7047e-05
5.0071e-05
5.01834e-05
5.21014e-05
4.73526e-05
4.71419e-05
4.88705e-05
4.81527e-05
4.98673e-05
5.09411e-05
4.72042e-05
4.69601e-05
4.94362e-05
4.90419e-05
4.74374e-05
4.80374e-05
4.83412e-05
5.00385e-05
5.17942e-05
4.74599e-05
4.889e-05
4.85459e-05
5.11482e-05
5.2403e-05
5.25418e-05
4.93536e-05
4.86515e-05
5.0012e-05
4.96802e-05
5.12541e-05
5.20856e-05
4.99126e-05
4.94936e-05
5.03118e-05
4.99744e-05
4.87394e-05
4.97112e-05
4.97964e-05
5.20065e-05
5.20809e-05
4.88675e-05
4.96963e-05
4.96467e-05
5.21643e-05
5.2487e-05
5.11829e-05
5.00213e-05
4.98742e-05
4.96392e-05
5.00495e-05
5.21681e-05
5.21386e-05
5.02844e-05
4.99799e-05
4.92642e-05
4.96908e-05
5.00171e-05
4.99302e-05
5.01751e-05
5.20779e-05
5.1747e-05
4.98631e-05
4.97237e-05
5.01821e-05
5.24766e-05
5.11135e-05
5.11102e-05
4.94764e-05
5.00393e-05
4.93962e-05
4.99662e-05
5.21375e-05
5.19692e-05
4.89356e-05
4.95493e-05
4.87253e-05
4.94381e-05
5.01551e-05
4.98866e-05
4.99646e-05
5.17543e-05
5.19558e-05
5.01829e-05
5.00631e-05
4.99681e-05
5.18237e-05
5.13527e-05
5.34924e-05
4.94856e-05
4.99789e-05
5.09309e-05
5.08912e-05
5.20156e-05
5.35358e-05
4.87991e-05
4.94672e-05
5.09676e-05
5.06905e-05
4.9957e-05
5.13421e-05
5.01161e-05
5.20516e-05
5.29064e-05
4.98996e-05
5.04409e-05
4.99532e-05
5.2138e-05
5.39567e-05
5.48982e-05
5.15225e-05
5.15113e-05
5.26385e-05
5.24285e-05
5.39378e-05
5.45099e-05
5.18603e-05
5.13921e-05
5.31116e-05
5.27702e-05
5.04812e-05
5.24579e-05
5.2211e-05
5.32476e-05
5.46265e-05
5.01431e-05
5.23497e-05
5.21159e-05
5.43584e-05
5.4909e-05
5.39467e-05
5.27093e-05
5.24446e-05
5.2532e-05
5.211e-05
5.4471e-05
5.33216e-05
5.31499e-05
5.28716e-05
5.27233e-05
5.26998e-05
5.24654e-05
5.18481e-05
5.25751e-05
5.46952e-05
5.40675e-05
5.2545e-05
5.26668e-05
5.28607e-05
5.43878e-05
5.38237e-05
5.34313e-05
5.22835e-05
5.19463e-05
5.20075e-05
5.18519e-05
5.32615e-05
5.32806e-05
5.23038e-05
5.23721e-05
5.18172e-05
5.19952e-05
5.25142e-05
5.15399e-05
5.23333e-05
5.39615e-05
5.35675e-05
5.28448e-05
5.22318e-05
5.26267e-05
5.40819e-05
5.35116e-05
5.46495e-05
5.20148e-05
5.18878e-05
5.2689e-05
5.29423e-05
5.34555e-05
5.49626e-05
5.18208e-05
5.20061e-05
5.25355e-05
5.28436e-05
5.23435e-05
5.29133e-05
5.30691e-05
5.36505e-05
5.48948e-05
5.26267e-05
5.28034e-05
5.29716e-05
5.5078e-05
5.50034e-05
5.58708e-05
5.32278e-05
5.34509e-05
5.42722e-05
5.44505e-05
5.53151e-05
5.61986e-05
5.31608e-05
5.33923e-05
5.42481e-05
5.40991e-05
5.36586e-05
5.47094e-05
5.44629e-05
5.52236e-05
5.56994e-05
5.34345e-05
5.41373e-05
5.41691e-05
5.59075e-05
5.59101e-05
5.55779e-05
5.43826e-05
5.45607e-05
5.437e-05
5.45456e-05
5.62426e-05
5.58433e-05
5.43405e-05
5.41202e-05
5.43032e-05
5.40679e-05
5.44763e-05
5.47422e-05
5.41287e-05
5.56866e-05
5.53094e-05
5.41845e-05
5.41182e-05
5.39113e-05
5.50688e-05
5.55562e-05
5.55891e-05
5.42751e-05
5.44188e-05
5.42118e-05
5.42408e-05
5.57802e-05
5.55384e-05
5.4225e-05
5.40665e-05
5.42062e-05
5.42286e-05
5.39445e-05
5.41996e-05
5.38758e-05
5.5316e-05
5.57858e-05
5.37956e-05
5.41482e-05
5.38045e-05
5.5188e-05
5.57136e-05
5.64138e-05
5.4246e-05
5.4245e-05
5.48779e-05
5.45831e-05
5.55826e-05
5.59863e-05
5.42707e-05
5.45436e-05
5.50595e-05
5.53971e-05
5.3978e-05
5.44969e-05
5.5329e-05
5.6015e-05
5.67874e-05
5.39637e-05
5.52646e-05
5.54803e-05
5.70984e-05
5.64993e-05
5.65501e-05
5.50634e-05
5.47863e-05
5.52787e-05
5.5385e-05
5.61295e-05
5.6717e-05
5.52394e-05
5.54732e-05
5.53961e-05
5.54494e-05
5.55718e-05
5.544e-05
5.55884e-05
5.68103e-05
5.64589e-05
5.5691e-05
5.54014e-05
5.56354e-05
5.66402e-05
5.65612e-05
5.65944e-05
5.53331e-05
5.54954e-05
5.55188e-05
5.55357e-05
5.67713e-05
5.65665e-05
5.53958e-05
5.53444e-05
5.53343e-05
5.50627e-05
5.53728e-05
5.53831e-05
5.47633e-05
5.64278e-05
5.62047e-05
5.5335e-05
5.50877e-05
5.47572e-05
5.56247e-05
5.66083e-05
5.66203e-05
5.55378e-05
5.54884e-05
5.55475e-05
5.54032e-05
5.65293e-05
5.64235e-05
5.53162e-05
5.50329e-05
5.53308e-05
5.50832e-05
5.47529e-05
5.52655e-05
5.52626e-05
5.62219e-05
5.64755e-05
5.47571e-05
5.52136e-05
5.54728e-05
5.7009e-05
5.66756e-05
5.75931e-05
5.55708e-05
5.54224e-05
5.61944e-05
5.61441e-05
5.6517e-05
5.76329e-05
5.54232e-05
5.52517e-05
5.63943e-05
5.64722e-05
5.58637e-05
5.64369e-05
5.67903e-05
5.66247e-05
5.7743e-05
5.60565e-05
5.65548e-05
5.67717e-05
5.81138e-05
5.77267e-05
5.76118e-05
5.64398e-05
5.64889e-05
5.65993e-05
5.68099e-05
5.78117e-05
5.79392e-05
5.66024e-05
5.67503e-05
5.66871e-05
5.69074e-05
5.68053e-05
5.6858e-05
5.63532e-05
5.78907e-05
5.79039e-05
5.67676e-05
5.67807e-05
5.61768e-05
5.69299e-05
5.75283e-05
5.71774e-05
5.65587e-05
5.67905e-05
5.63576e-05
5.63543e-05
5.78809e-05
5.71789e-05
5.66085e-05
5.68413e-05
5.63105e-05
5.62911e-05
5.61456e-05
5.62757e-05
5.60604e-05
5.77985e-05
5.7163e-05
5.5991e-05
5.62424e-05
5.59643e-05
5.69547e-05
5.72174e-05
5.82606e-05
5.63655e-05
5.63027e-05
5.69428e-05
5.6487e-05
5.71752e-05
5.77821e-05
5.63151e-05
5.62644e-05
5.68554e-05
5.65924e-05
5.61939e-05
5.65774e-05
5.76053e-05
5.71709e-05
5.80333e-05
5.6162e-05
5.68849e-05
5.77322e-05
5.91856e-05
5.83839e-05
5.79846e-05
5.71562e-05
5.68426e-05
5.71874e-05
5.72334e-05
5.80225e-05
5.83394e-05
5.70617e-05
5.69018e-05
5.70862e-05
5.70898e-05
5.77719e-05
5.73015e-05
5.7533e-05
5.82104e-05
5.81272e-05
5.78869e-05
5.72938e-05
5.76079e-05
5.80668e-05
5.77737e-05
5.66671e-05
5.70031e-05
5.72013e-05
5.60613e-05
5.64425e-05
5.82456e-05
5.71332e-05
5.68978e-05
5.70074e-05
5.60466e-05
5.61553e-05
5.69238e-05
5.6375e-05
5.56157e-05
5.79594e-05
5.67675e-05
5.69405e-05
5.60056e-05
5.55006e-05
5.59864e-05
5.66648e-05
5.78953e-05
5.59923e-05
5.62981e-05
5.6316e-05
5.63778e-05
5.71021e-05
5.77001e-05
5.59975e-05
5.60552e-05
5.64104e-05
5.62262e-05
5.55844e-05
5.64026e-05
5.65305e-05
5.67477e-05
5.75104e-05
5.54559e-05
5.60614e-05
5.63195e-05
5.82162e-05
5.83851e-05
6.00803e-05
5.70101e-05
5.67146e-05
5.86411e-05
5.80359e-05
5.80389e-05
5.918e-05
5.71815e-05
5.6704e-05
5.87602e-05
5.84294e-05
5.74268e-05
5.79915e-05
5.84862e-05
5.79144e-05
5.96277e-05
5.72874e-05
5.83883e-05
5.85963e-05
5.99699e-05
6.01138e-05
5.84576e-05
5.87276e-05
5.81206e-05
5.82045e-05
5.78079e-05
5.9197e-05
5.80809e-05
5.88287e-05
5.86047e-05
5.81999e-05
5.8452e-05
5.84652e-05
5.74865e-05
5.6981e-05
5.97092e-05
5.90879e-05
5.85945e-05
5.84353e-05
5.73374e-05
5.73549e-05
5.7899e-05
5.54705e-05
5.72622e-05
5.72282e-05
5.51551e-05
5.59094e-05
5.78066e-05
5.68055e-05
5.71843e-05
5.79782e-05
5.49946e-05
5.55538e-05
5.63767e-05
5.6074e-05
5.5933e-05
5.87536e-05
5.62874e-05
5.66681e-05
5.58616e-05
5.60136e-05
5.6602e-05
5.54285e-05
5.69943e-05
5.49935e-05
5.57999e-05
5.53976e-05
5.59907e-05
5.68126e-05
5.76383e-05
5.48206e-05
5.51611e-05
5.52036e-05
5.50721e-05
5.60398e-05
5.64939e-05
5.76419e-05
5.61222e-05
5.62329e-05
5.60593e-05
5.54457e-05
5.73276e-05
5.91566e-05
5.7743e-05
6.11691e-05
5.64101e-05
5.65386e-05
5.94037e-05
5.86141e-05
5.80215e-05
5.97466e-05
5.6197e-05
5.53875e-05
5.94904e-05
5.8752e-05
5.79219e-05
5.82649e-05
5.79441e-05
5.66455e-05
6.00996e-05
5.76543e-05
5.82838e-05
5.77897e-05
5.88849e-05
6.13255e-05
5.99687e-05
5.96834e-05
5.88328e-05
5.93455e-05
5.86282e-05
5.98397e-05
5.90269e-05
5.98613e-05
5.94275e-05
5.96751e-05
5.9715e-05
5.76861e-05
5.80639e-05
5.63908e-05
6.04336e-05
6.0563e-05
5.76454e-05
5.89428e-05
5.65428e-05
5.68889e-05
5.92559e-05
5.51035e-05
5.83795e-05
5.79703e-05
5.47902e-05
5.52589e-05
5.85627e-05
5.60065e-05
5.89432e-05
5.94816e-05
5.4965e-05
5.59247e-05
5.62206e-05
5.56188e-05
5.62118e-05
6.0216e-05
5.64565e-05
5.63589e-05
5.61198e-05
5.62787e-05
5.73634e-05
5.49024e-05
5.56981e-05
5.43606e-05
5.49812e-05
5.44406e-05
5.52186e-05
5.5933e-05
5.71124e-05
5.43289e-05
5.49463e-05
5.41176e-05
5.41091e-05
5.6454e-05
5.58252e-05
5.72632e-05
5.604e-05
5.52817e-05
5.64262e-05
5.49464e-05
5.71329e-05
5.87827e-05
5.63095e-05
5.95027e-05
5.51081e-05
5.60269e-05
5.79312e-05
5.79473e-05
5.76652e-05
5.93811e-05
5.44592e-05
5.4191e-05
5.75732e-05
5.67697e-05
5.7351e-05
5.76764e-05
5.72717e-05
5.54532e-05
5.85383e-05
5.72505e-05
5.69448e-05
5.7252e-05
5.83373e-05
5.96898e-05
5.90594e-05
5.82494e-05
5.80355e-05
5.80896e-05
5.72595e-05
5.94e-05
5.7624e-05
5.8119e-05
5.75874e-05
5.83278e-05
5.81658e-05
5.69821e-05
5.66666e-05
5.58662e-05
5.88879e-05
5.90828e-05
5.70933e-05
5.75743e-05
5.5981e-05
5.66543e-05
5.85953e-05
5.65856e-05
5.56324e-05
5.71532e-05
5.69183e-05
5.69034e-05
4.68535e-05
4.7543e-05
4.60312e-05
5.46948e-05
5.87319e-05
5.47386e-05
1.23108e-07
2.51835e-07
6.74927e-08
9.57521e-08
2.72713e-07
4.88276e-07
7.24559e-07
1.4655e-07
2.68064e-07
3.13835e-07
1.63564e-07
3.00586e-07
3.51501e-07
2.60556e-07
4.28955e-07
3.06761e-07
5.92518e-06
2.62288e-07
7.78729e-06
1.33807e-05
2.06117e-05
3.58021e-07
6.544e-06
3.19751e-07
8.58759e-06
1.95666e-07
1.79842e-07
1.90406e-07
1.63549e-07
1.95822e-07
1.79011e-07
1.9096e-07
2.52178e-07
9.91864e-07
3.61435e-07
6.22916e-07
2.57977e-07
9.65068e-07
3.57483e-07
1.37501e-05
2.12995e-05
2.51492e-07
2.69003e-07
6.93274e-07
3.20613e-07
2.56791e-07
2.67787e-07
6.6829e-07
1.88978e-06
1.93742e-06
3.35739e-07
1.8693e-06
1.92093e-06
5.06513e-07
1.13137e-05
4.13909e-07
1.42477e-05
3.59486e-05
4.61471e-05
5.49697e-07
1.28393e-05
4.62322e-07
1.57612e-05
1.94229e-07
1.77146e-07
1.90363e-07
1.59274e-07