/*--------------------------------*- C++ -*----------------------------------*\
| =========                 |                                                 |
| \\      /  F ield         | OpenFOAM: The Open Source CFD Toolbox           |
|  \\    /   O peration     | Version:  v2012                                 |
|   \\  /    A nd           | Website:  www.openfoam.com                      |
|    \\/     M anipulation  |                                                 |
\*---------------------------------------------------------------------------*/
FoamFile
{
    version     2.0;
    format      ascii;
    class       volScalarField;
    location    "950";
    object      nut;
}
// * * * * * * * * * * * * * * * * * * * * * * * * * * * * * * * * * * * * * //

dimensions      [0 2 -1 0 0 0 0];


internalField   nonuniform List<scalar> 
171728
(
1.74034e-06
3.71551e-06
1.92512e-06
2.2197e-06
1.72511e-06
4.5929e-06
1.92215e-06
2.16241e-06
1.73768e-06
6.64514e-06
1.91495e-06
2.08389e-06
1.73387e-06
8.82222e-06
1.91198e-06
2.02629e-06
1.69312e-06
6.808e-06
1.91505e-06
2.02279e-06
1.67935e-06
3.62452e-06
1.89776e-06
2.07274e-06
1.7226e-06
2.40204e-06
1.87685e-06
2.26995e-06
1.68757e-06
2.05131e-06
1.86094e-06
2.55801e-06
1.60032e-06
1.89709e-06
1.77131e-06
2.76172e-06
1.56075e-06
1.70672e-06
1.61679e-06
2.8688e-06
1.57516e-06
1.52154e-06
1.43881e-06
2.19633e-06
1.58809e-06
1.38212e-06
1.26725e-06
1.85349e-06
1.59256e-06
1.27499e-06
1.13718e-06
1.65756e-06
1.58933e-06
1.18568e-06
1.05355e-06
1.53894e-06
1.57733e-06
1.10394e-06
9.95124e-07
1.44294e-06
1.56571e-06
1.0217e-06
9.58526e-07
1.35199e-06
1.55619e-06
9.55672e-07
9.35219e-07
1.28711e-06
1.54077e-06
9.16066e-07
1.04479e-06
1.26116e-06
1.52624e-06
9.30836e-07
1.41432e-06
1.30332e-06
1.49844e-06
1.04722e-06
2.0489e-06
1.45621e-06
1.4709e-06
1.1965e-06
2.75413e-06
1.71261e-06
1.42593e-06
1.53332e-06
3.63957e-06
2.64456e-06
1.38415e-06
2.04042e-06
4.27901e-06
2.52339e-06
1.32435e-06
2.8681e-06
4.52756e-06
9.31406e-06
1.25777e-06
3.84704e-06
4.26315e-06
6.54835e-06
1.14971e-06
4.9245e-06
6.70836e-06
1.33054e-05
1.11331e-06
7.42372e-06
7.9299e-06
1.65195e-05
1.0221e-06
8.42215e-06
8.87683e-06
2.60265e-05
1.05785e-06
1.26941e-05
1.04886e-05
2.99652e-05
1.08382e-06
1.40792e-05
1.61696e-05
3.69233e-05
1.30508e-06
1.77309e-05
1.72006e-05
4.62726e-05
1.49786e-06
2.31999e-05
2.31136e-05
5.84989e-05
1.83297e-06
2.55019e-05
2.61094e-05
5.667e-05
2.16163e-06
3.03983e-05
2.92847e-05
5.78877e-05
2.8057e-06
3.61965e-05
3.70478e-05
7.65178e-05
2.92585e-06
4.20171e-05
4.24879e-05
7.43219e-05
4.93463e-06
4.36933e-05
4.60334e-05
7.28079e-05
6.09164e-06
5.51508e-05
5.05738e-05
9.23041e-05
7.41707e-06
6.12625e-05
6.33411e-05
9.06143e-05
8.81802e-06
6.12202e-05
6.54275e-05
8.64033e-05
1.02139e-05
7.14404e-05
6.51106e-05
9.38752e-05
1.40064e-05
7.9037e-05
7.8469e-05
0.000103052
1.75312e-05
8.54428e-05
8.46933e-05
0.000103674
1.93301e-05
8.61225e-05
8.8255e-05
0.000105049
2.43899e-05
9.2804e-05
9.42285e-05
0.000110715
3.0024e-05
0.000101025
0.000102191
0.000116327
3.03804e-05
0.000107724
0.000103527
0.000117774
4.06465e-05
0.000109467
0.000111008
0.000117475
4.5022e-05
0.000117506
0.000116874
0.000129353
5.31751e-05
0.000121767
0.000122793
0.000131939
5.66848e-05
0.000122705
0.000128226
0.000129167
6.10734e-05
0.000131879
0.00012809
0.000132178
7.60899e-05
0.000136592
0.000129071
0.000141468
8.40925e-05
0.000137151
0.000140713
0.000142347
8.09876e-05
0.000144518
0.000147847
0.000143452
7.97459e-05
0.000149312
0.000150289
0.000148281
0.000105571
0.000149598
0.000149471
0.000148521
0.000115701
0.000155208
0.000153259
0.00015222
0.000114129
0.000159445
0.000160529
0.000157473
0.000118791
0.000165283
0.00016619
0.000158743
0.000125228
0.000167793
0.000165611
0.000158227
0.000129811
0.000167651
0.00016626
0.000162491
0.000140257
0.000173943
0.000177337
0.000166693
0.000153998
0.000180142
0.000179892
0.000170544
0.000154723
0.000180572
0.000179467
0.00017146
0.000150125
0.000180802
0.000181528
0.000169248
0.000154601
0.000189459
0.000184456
0.000171073
0.000175109
0.000192968
0.000193375
0.00017977
0.000180592
0.000189465
0.000194012
0.000179653
0.000177678
0.000188676
0.000192268
0.000178614
0.00017637
0.000198098
0.000196821
0.000183561
0.000189876
0.000205399
0.000202256
0.000186296
0.000198168
0.000204807
0.000202306
0.000183211
0.000198396
0.000202944
0.000202892
0.00018432
0.000202499
0.000205626
0.00020903
0.000191834
0.000208213
0.000209831
0.000209583
0.000189818
0.000211743
0.000210024
0.000208496
0.000186623
0.000213163
0.000210051
0.000210638
0.000193015
0.000218977
0.000217131
0.000217411
0.000196878
0.000224968
0.000218905
0.000218428
0.000192463
0.000226183
0.000216772
0.000216735
0.000193826
0.000228937
0.000219698
0.000220957
0.000202041
0.000232176
0.000222292
0.000222251
0.000196785
0.000230522
0.000218827
0.000216783
0.000190461
0.000231833
0.000221045
0.000219493
0.000200403
0.00024727
0.000227913
0.000230931
0.000206428
0.0002488
0.000224414
0.000230266
0.000195917
0.00023272
0.000220048
0.000218023
0.000194719
0.000232442
0.000225401
0.000218183
0.000205045
0.000258692
0.000232874
0.000234622
0.00020292
0.000264304
0.000229969
0.000236834
0.000195793
0.000240095
0.000220597
0.00022127
0.000199382
0.000233633
0.000225489
0.000218288
0.000205069
0.000253906
0.000232753
0.000230686
0.000202291
0.00026587
0.000228943
0.000234431
0.000200417
2.2854e-06
2.3841e-06
1.55575e-06
2.20687e-06
2.43124e-06
2.95515e-06
1.73816e-06
1.78034e-06
1.85127e-06
1.90907e-06
3.61713e-06
1.82092e-06
2.19169e-06
2.16576e-06
2.38649e-06
2.22249e-06
2.26954e-06
2.31085e-06
3.24949e-06
1.39826e-06
3.06387e-06
1.36889e-06
2.20059e-06
2.23379e-06
3.64896e-06
2.70701e-06
2.4258e-06
3.0173e-06
1.62441e-06
4.26441e-06
1.61265e-06
2.18031e-06
2.1793e-06
2.40997e-06
1.92279e-06
2.19245e-06
2.15807e-06
2.29522e-06
2.30363e-06
3.01149e-06
1.36262e-06
3.08665e-06
1.36971e-06
2.23891e-06
2.33168e-06
2.16358e-06
3.13743e-06
1.81901e-06
3.69692e-06
1.61908e-06
6.04658e-06
1.6495e-06
2.17975e-06
2.28505e-06
2.12274e-06
1.91607e-06
1.93278e-06
2.09133e-06
2.28582e-06
2.31784e-06
3.16723e-06
1.37973e-06
3.36433e-06
1.43457e-06
2.32436e-06
2.37075e-06
1.78858e-06
3.97466e-06
1.75648e-06
4.98654e-06
1.66472e-06
8.45536e-06
1.73549e-06
2.279e-06
2.41673e-06
1.88506e-06
1.91207e-06
1.78911e-06
2.03259e-06
2.30934e-06
2.36236e-06
3.39912e-06
1.47125e-06
3.36856e-06
1.64533e-06
2.35041e-06
2.2261e-06
1.80558e-06
5.35754e-06
2.03768e-06
6.2223e-06
1.76997e-06
7.67361e-06
1.89792e-06
2.40945e-06
2.54753e-06
1.76452e-06
1.91687e-06
1.70249e-06
2.02103e-06
2.3551e-06
2.47046e-06
3.30595e-06
1.70592e-06
3.00614e-06
1.99743e-06
2.15814e-06
2.0425e-06
2.14398e-06
6.13358e-06
2.77545e-06
4.84223e-06
1.95397e-06
4.24625e-06
2.14344e-06
2.5294e-06
2.31368e-06
1.6844e-06
1.90185e-06
1.64035e-06
2.07096e-06
2.463e-06
2.61093e-06
2.89025e-06
2.15253e-06
2.60547e-06
3.0449e-06
2.04177e-06
2.21991e-06
3.11436e-06
4.25167e-06
4.42488e-06
2.68853e-06
2.2229e-06
2.57515e-06
2.63315e-06
2.28312e-06
2.1697e-06
1.62747e-06
1.88081e-06
1.59372e-06
2.25197e-06
2.59326e-06
2.55892e-06
2.53098e-06
3.66997e-06
2.25299e-06
6.93195e-06
2.29371e-06
3.35916e-06
4.87395e-06
2.33335e-06
5.84532e-06
1.70313e-06
2.83521e-06
2.10747e-06
3.68613e-06
2.15018e-06
1.99769e-06
1.58271e-06
1.86752e-06
1.5476e-06
2.55223e-06
2.5029e-06
2.26704e-06
2.13219e-06
8.46984e-06
1.74611e-06
1.29987e-05
3.39764e-06
4.11025e-06
5.81415e-06
1.59514e-06
4.08068e-06
1.41526e-06
4.06656e-06
1.93259e-06
5.35969e-06
1.99028e-06
1.91726e-06
1.53597e-06
1.80302e-06
1.50264e-06
2.7672e-06
2.23615e-06
1.98182e-06
1.6483e-06
1.41203e-05
1.40844e-06
1.24687e-05
4.09353e-06
3.36582e-06
3.48313e-06
1.37958e-06
2.20593e-06
1.2932e-06
5.76464e-06
1.75786e-06
6.51917e-06
1.91057e-06
1.82296e-06
1.49174e-06
1.6595e-06
1.45572e-06
2.8861e-06
1.95868e-06
1.73952e-06
1.3462e-06
9.96014e-06
1.26435e-06
4.61065e-06
3.04841e-06
2.1179e-06
1.9301e-06
1.26808e-06
1.40396e-06
1.20649e-06
6.64536e-06
1.56402e-06
4.95791e-06
1.81464e-06
1.70855e-06
1.43886e-06
1.48442e-06
1.38587e-06
2.24662e-06
1.72726e-06
1.62088e-06
1.25094e-06
3.56892e-06
1.19458e-06
1.83479e-06
2.06835e-06
1.75925e-06
1.34566e-06
1.18832e-06
1.28629e-06
1.12893e-06
4.15973e-06
1.40866e-06
2.53032e-06
1.69889e-06
1.58149e-06
1.37022e-06
1.30599e-06
1.32583e-06
1.87902e-06
1.61239e-06
1.5324e-06
1.17053e-06
1.58754e-06
1.10372e-06
1.36082e-06
1.7407e-06
1.60897e-06
1.26738e-06
1.10867e-06
1.20792e-06
1.04908e-06
2.14705e-06
1.29539e-06
1.53601e-06
1.57084e-06
1.46374e-06
1.31199e-06
1.16701e-06
1.26548e-06
1.67266e-06
1.52164e-06
1.44358e-06
1.08415e-06
1.34488e-06
1.03278e-06
1.24213e-06
1.59127e-06
1.47398e-06
1.18773e-06
1.02914e-06
1.15277e-06
9.67318e-07
1.48341e-06
1.20611e-06
1.38486e-06
1.4516e-06
1.35661e-06
1.24573e-06
1.06946e-06
1.19301e-06
1.55931e-06
1.42876e-06
1.34602e-06
1.01614e-06
1.19927e-06
9.60383e-07
1.10071e-06
1.45581e-06
1.37346e-06
1.13608e-06
9.47434e-07
1.10392e-06
8.99412e-07
1.37792e-06
1.12112e-06
1.31529e-06
1.3422e-06
1.25733e-06
1.17512e-06
1.00862e-06
1.12076e-06
1.4621e-06
1.32679e-06
1.24176e-06
9.40429e-07
1.08364e-06
8.83099e-07
1.00456e-06
1.35205e-06
1.26963e-06
1.09106e-06
8.84149e-07
1.05534e-06
8.52567e-07
1.30372e-06
1.03882e-06
1.25336e-06
1.23997e-06
1.16761e-06
1.10203e-06
9.66249e-07
1.05189e-06
1.37391e-06
1.21932e-06
1.14938e-06
8.6638e-07
9.88276e-07
8.27761e-07
9.3645e-07
1.24487e-06
1.1602e-06
1.04469e-06
8.45048e-07
1.01868e-06
8.24203e-07
1.24461e-06
9.65762e-07
1.34208e-06
1.14943e-06
1.09276e-06
1.03479e-06
9.34323e-07
9.85015e-07
1.30259e-06
1.13137e-06
1.08836e-06
8.18335e-07
9.27764e-07
8.09721e-07
8.92273e-07
1.14081e-06
1.09237e-06
1.01041e-06
8.17688e-07
1.00007e-06
8.06473e-07
1.37719e-06
9.17648e-07
1.52188e-06
1.07934e-06
1.05987e-06
9.68861e-07
1.00195e-06
9.41725e-07
1.26804e-06
1.07883e-06
1.09585e-06
8.10702e-07
8.91889e-07
8.47496e-07
9.05842e-07
1.07871e-06
1.08502e-06
9.9724e-07
7.99429e-07
1.01588e-06
8.04403e-07
1.58795e-06
9.21707e-07
1.79387e-06
1.05991e-06
1.1053e-06
9.34253e-07
1.30112e-06
9.37706e-07
1.29237e-06
1.10805e-06
1.18584e-06
8.65195e-07
9.16819e-07
9.38048e-07
1.00324e-06
1.09905e-06
1.20697e-06
1.03372e-06
8.16552e-07
1.0735e-06
8.93858e-07
1.87222e-06
1.01398e-06
2.06032e-06
1.13091e-06
1.33801e-06
9.46348e-07
1.85601e-06
9.86133e-07
1.41686e-06
1.22486e-06
1.515e-06
9.78196e-07
1.03842e-06
1.13496e-06
1.08381e-06
1.24491e-06
1.33808e-06
1.12387e-06
9.42066e-07
1.24973e-06
1.01694e-06
2.12197e-06
1.09297e-06
2.25669e-06
1.40548e-06
1.75771e-06
1.01631e-06
2.57192e-06
1.15323e-06
1.65467e-06
1.58381e-06
2.06231e-06
1.18582e-06
1.19204e-06
1.42721e-06
1.50069e-06
1.44149e-06
2.3053e-06
1.29424e-06
1.09136e-06
1.55274e-06
1.48008e-06
2.23622e-06
1.4999e-06
2.33861e-06
1.83425e-06
2.79082e-06
1.1716e-06
3.51019e-06
1.5039e-06
2.46651e-06
2.28556e-06
3.33502e-06
1.54208e-06
1.53077e-06
1.96693e-06
1.8248e-06
2.36873e-06
2.79081e-06
1.65465e-06
1.55415e-06
2.02943e-06
1.78476e-06
2.34836e-06
1.80712e-06
2.32292e-06
2.98446e-06
3.38706e-06
1.59943e-06
4.01135e-06
1.71584e-06
2.52565e-06
3.60106e-06
4.82981e-06
2.12758e-06
2.05346e-06
2.52893e-06
2.72307e-06
3.24792e-06
5.61124e-06
2.17734e-06
2.13111e-06
2.63167e-06
3.01935e-06
2.32964e-06
2.72936e-06
3.66882e-06
3.89046e-06
6.2382e-06
1.80401e-06
4.5698e-06
3.15413e-06
8.80976e-06
5.23336e-06
8.0696e-06
2.75465e-06
2.85481e-06
3.82261e-06
3.49681e-06
5.85249e-06
7.4158e-06
2.86171e-06
3.13248e-06
3.76226e-06
3.56604e-06
3.91201e-06
3.42076e-06
3.91845e-06
6.28236e-06
6.24152e-06
3.37475e-06
4.34391e-06
3.44154e-06
6.60086e-06
8.74574e-06
1.09503e-05
4.01377e-06
3.93465e-06
4.69726e-06
4.67113e-06
8.18981e-06
1.17408e-05
3.92808e-06
4.21838e-06
4.8994e-06
6.00569e-06
3.90739e-06
4.75704e-06
4.99164e-06
6.79738e-06
1.37214e-05
3.45348e-06
6.2207e-06
4.80734e-06
1.16701e-05
1.16478e-05
1.73442e-05
5.15092e-06
4.94747e-06
6.60084e-06
6.86108e-06
1.24078e-05
1.70955e-05
5.30554e-06
6.53386e-06
6.80715e-06
8.59437e-06
5.40369e-06
6.75279e-06
6.23133e-06
1.51198e-05
1.9479e-05
5.17101e-06
7.5847e-06
5.89844e-06
1.56939e-05
1.86338e-05
2.24616e-05
7.26592e-06
7.46313e-06
8.46114e-06
8.20775e-06
1.86755e-05
2.17021e-05
7.33171e-06
9.24463e-06
8.34064e-06
1.017e-05
7.01969e-06
8.30561e-06
9.1025e-06
2.04969e-05
2.27565e-05
6.64509e-06
8.76288e-06
9.16638e-06
2.45459e-05
2.34158e-05
2.97055e-05
8.77024e-06
8.33505e-06
1.12981e-05
1.16573e-05
2.18776e-05
3.18012e-05
8.91855e-06
1.02e-05
1.13523e-05
1.0213e-05
9.34476e-06
1.14893e-05
1.09858e-05
2.28197e-05
2.36052e-05
9.53635e-06
9.32031e-06
1.09856e-05
2.90732e-05
3.14911e-05
3.69878e-05
1.22913e-05
1.28306e-05
1.38202e-05
1.40421e-05
3.47438e-05
3.72379e-05
1.21984e-05
1.028e-05
1.381e-05
1.60174e-05
1.19604e-05
1.40249e-05
1.32454e-05
2.53714e-05
4.25021e-05
1.19268e-05
1.52592e-05
1.45797e-05
3.55621e-05
3.76109e-05
4.32386e-05
1.39069e-05
1.41036e-05
1.74329e-05
1.65574e-05
3.71155e-05
4.09891e-05
1.41875e-05
1.75987e-05
1.73526e-05
1.93089e-05
1.37676e-05
1.6391e-05
1.7131e-05
4.43354e-05
4.45415e-05
1.49633e-05
1.71146e-05
1.88416e-05
4.38008e-05
4.58481e-05
5.31407e-05
1.92894e-05
1.79538e-05
2.17339e-05
2.18178e-05
4.42551e-05
5.41845e-05
1.90653e-05
1.93422e-05
2.2482e-05
2.04727e-05
1.84949e-05
2.19141e-05
2.31768e-05
4.45281e-05
4.89271e-05
2.24033e-05
2.09274e-05
2.87376e-05
5.74682e-05
5.3629e-05
5.50121e-05
2.18816e-05
2.28901e-05
2.49244e-05
2.54986e-05
5.49198e-05
5.69142e-05
2.2671e-05
2.23916e-05
2.55761e-05
2.58294e-05
2.45291e-05
2.54016e-05
2.62006e-05
5.14959e-05
5.85539e-05
2.89733e-05
2.60176e-05
2.6366e-05
5.68175e-05
5.61308e-05
6.45036e-05
2.57864e-05
2.57512e-05
2.92709e-05
2.85071e-05
5.78839e-05
6.11833e-05
2.69938e-05
2.62441e-05
3.01529e-05
2.7954e-05
2.6208e-05
2.82532e-05
2.62643e-05
5.91386e-05
6.06405e-05
2.5027e-05
2.77099e-05
2.46682e-05
5.63478e-05
6.62904e-05
6.81436e-05
3.11382e-05
3.06822e-05
3.58396e-05
3.51011e-05
6.26468e-05
6.93719e-05
3.17817e-05
2.95069e-05
3.65696e-05
3.57685e-05
2.67655e-05
3.5051e-05
3.68552e-05
6.18545e-05
6.91621e-05
2.54355e-05
3.5078e-05
4.2383e-05
7.38365e-05
6.84748e-05
7.022e-05
3.6647e-05
3.61094e-05
3.74007e-05
4.03816e-05
7.06981e-05
7.3568e-05
3.73361e-05
3.722e-05
3.82388e-05
3.97451e-05
3.99949e-05
4.06832e-05
4.25321e-05
7.06705e-05
7.40892e-05
4.54203e-05
4.13614e-05
4.66849e-05
7.49946e-05
7.16416e-05
7.98697e-05
3.77723e-05
4.172e-05
4.73304e-05
4.32961e-05
7.41621e-05
7.55961e-05
3.83142e-05
4.08945e-05
4.6339e-05
4.60522e-05
4.23769e-05
4.34545e-05
4.18547e-05
7.49933e-05
7.76417e-05
4.54867e-05
4.56672e-05
4.31046e-05
7.11756e-05
8.15638e-05
8.34631e-05
4.99581e-05
4.42283e-05
5.28315e-05
5.22032e-05
7.67755e-05
8.51916e-05
4.97611e-05
4.71842e-05
5.41173e-05
4.85106e-05
4.18478e-05
5.16187e-05
5.32919e-05
7.82886e-05
8.05268e-05
4.29989e-05
4.81764e-05
5.3061e-05
8.93683e-05
8.39366e-05
8.72751e-05
5.28517e-05
5.53875e-05
5.81159e-05
6.04095e-05
8.64526e-05
8.72293e-05
5.41617e-05
5.01439e-05
5.85545e-05
5.98937e-05
5.98686e-05
6.09383e-05
6.58455e-05
8.19941e-05
8.96426e-05
5.96367e-05
6.08258e-05
6.5496e-05
9.1089e-05
8.83951e-05
9.02489e-05
6.00887e-05
6.07049e-05
6.32273e-05
6.06721e-05
8.7258e-05
8.79785e-05
6.04728e-05
6.2752e-05
6.34605e-05
6.5893e-05
6.56643e-05
6.11927e-05
6.19702e-05
9.06833e-05
9.11274e-05
6.52981e-05
6.55612e-05
6.15969e-05
8.62524e-05
9.06856e-05
9.3381e-05
6.34563e-05
6.0734e-05
6.73754e-05
6.86958e-05
8.88111e-05
9.48874e-05
6.36519e-05
6.58321e-05
6.72298e-05
6.54715e-05
6.16134e-05
6.74836e-05
6.05748e-05
9.11172e-05
9.16049e-05
6.12542e-05
6.50235e-05
6.03095e-05
9.14793e-05
9.46663e-05
9.95926e-05
6.97661e-05
7.25141e-05
7.61586e-05
7.74621e-05
9.66708e-05
0.000100223
6.93936e-05
6.55036e-05
7.59993e-05
7.51042e-05
6.41025e-05
7.71812e-05
7.97682e-05
9.24899e-05
9.96277e-05
6.42481e-05
7.54304e-05
7.98283e-05
0.000102351
0.000100532
0.000102951
7.80364e-05
7.89637e-05
8.26005e-05
8.35166e-05
0.000100949
0.000103615
7.82361e-05
7.814e-05
8.30277e-05
8.3883e-05
8.26102e-05
8.46076e-05
8.54895e-05
0.000101026
0.000103638
8.25186e-05
8.42582e-05
8.50325e-05
0.000103625
0.000103481
0.000105255
8.37659e-05
8.44746e-05
8.64153e-05
8.61225e-05
0.000104081
0.000104833
8.40375e-05
8.45577e-05
8.59108e-05
8.72751e-05
8.54944e-05
8.56201e-05
8.49758e-05
0.000104047
0.000105587
8.50072e-05
8.68647e-05
8.44953e-05
0.000104352
0.00010598
0.000110829
8.75862e-05
8.68906e-05
9.38492e-05
9.13949e-05
0.000105243
0.000108653
8.6951e-05
8.85762e-05
9.38519e-05
9.2306e-05
8.54598e-05
9.09881e-05
9.26283e-05
0.000106286
0.000109873
8.56083e-05
9.22844e-05
9.2831e-05
0.000110049
0.000111915
0.00011377
9.61883e-05
9.29944e-05
0.000100105
9.8626e-05
0.000109686
0.000113922
9.63413e-05
9.42266e-05
0.000100061
0.00010034
9.3873e-05
9.88356e-05
0.000100138
0.000110774
0.000114646
9.39318e-05
0.000100882
9.98393e-05
0.000114992
0.00011396
0.000115322
0.000100429
0.000100735
0.000100892
0.000106186
0.000114997
0.000118432
0.0001003
0.000101512
0.000100883
0.000103008
0.000102925
0.000106614
0.000106841
0.000115165
0.000115984
0.000102563
0.000102824
0.000106463
0.000117849
0.000116479
0.000122505
0.000103432
0.000107242
0.000111352
0.000108607
0.000118848
0.000120029
0.000103683
0.000103733
0.000111314
0.000109095
0.000106857
0.000108702
0.000106415
0.00011629
0.00012079
0.000106506
0.000108954
0.00010613
0.000116808
0.000123086
0.000124505
0.000112637
0.000109753
0.000114955
0.000116064
0.000120712
0.000125748
0.000112505
0.000111192
0.000115009
0.000116072
0.000106145
0.000115268
0.000114638
0.000121967
0.000125267
0.000105881
0.000115555
0.000115122
0.000127311
0.00012523
0.000129489
0.000116452
0.000118056
0.000121941
0.000121005
0.000126694
0.00012805
0.000116351
0.000117352
0.000121751
0.000120429
0.00011945
0.000121455
0.000126147
0.000125722
0.00012896
0.000119634
0.000121071
0.00012587
0.000132077
0.000129888
0.000129882
0.000122881
0.000121151
0.000123515
0.000121105
0.000128101
0.000129066
0.000122956
0.000121736
0.000124038
0.000126506
0.000126317
0.000121794
0.000124741
0.000129822
0.000132905
0.000126004
0.000127495
0.000124509
0.000129311
0.000129802
0.000134678
0.000123522
0.000122539
0.000127127
0.00012994
0.00012991
0.000135989
0.000124052
0.000127664
0.000127824
0.000129053
0.000124283
0.000129821
0.000123094
0.000133223
0.000133293
0.000124123
0.000128286
0.000123011
0.000130781
0.000136655
0.000141788
0.000131466
0.000132
0.000139568
0.000136377
0.000136958
0.000139189
0.000130775
0.00012907
0.000137394
0.000129344
0.000124057
0.000135932
0.000136155
0.000133236
0.000134252
0.000124243
0.000127846
0.000135676
0.00014059
0.000141863
0.000140144
0.000140343
0.000137117
0.000140011
0.000137597
0.00013937
0.000139539
0.000138511
0.00013127
0.000139179
0.000139779
0.000138636
0.000137094
0.000141265
0.000135172
0.00014207
0.000137793
0.000138202
0.000140283
0.000142373
0.000140005
0.000139044
0.000138828
0.000137562
0.000137084
0.000141333
0.000139613
0.000144114
0.000138923
0.000142014
0.000138458
0.000144346
0.000141324
0.000142278
0.000141057
0.000143246
0.000146226
0.000140449
0.000146267
0.000140939
0.000142732
0.000139292
0.000146249
0.000136781
0.000142891
0.00014117
0.000146894
0.000145272
0.000147988
0.00013834
0.000145028
0.00014565
0.000148187
0.000141163
0.00014879
0.000147709
0.000146713
0.000148455
0.000143082
0.000150211
0.000148879
0.00014801
0.000148197
0.000153993
0.000145822
0.000148094
0.00015645
0.000150804
0.000148159
0.000148611
0.000149135
0.00014883
0.000155001
0.00014934
0.000149091
0.000149579
0.000150099
0.000148441
0.000147962
0.000149696
0.000149898
0.000150146
0.000148465
0.000154228
0.00015347
0.000158099
0.000151497
0.000159061
0.000154703
0.000148772
0.000151656
0.000155579
0.000150328
0.000155825
0.000153867
0.000150271
0.000153454
0.000153275
0.000148034
0.000151462
0.000149995
0.000152134
0.000152421
0.000151534
0.000153367
0.000153677
0.000158685
0.000156006
0.000157793
0.000158422
0.000152491
0.00015537
0.000155782
0.000154315
0.000155955
0.000157612
0.000154486
0.000158587
0.000159485
0.000151841
0.000155163
0.000153893
0.000158099
0.00015943
0.000156564
0.000154425
0.000158455
0.000157366
0.00015902
0.000161494
0.000162823
0.000155694
0.000158796
0.000158418
0.000160024
0.000164162
0.000165545
0.000161201
0.000163708
0.000164382
0.000156367
0.000160274
0.000161363
0.00016571
0.000164709
0.000158808
0.000158668
0.000158617
0.000163102
0.000164432
0.000165359
0.000167235
0.000159533
0.00016071
0.000164723
0.000166018
0.000164791
0.000165497
0.000164782
0.000167698
0.000164807
0.000160278
0.00015857
0.000164973
0.000165829
0.000164845
0.00015826
0.00015857
0.000160579
0.00016552
0.000167435
0.000166907
0.000167445
0.000160645
0.000160548
0.000164767
0.000165205
0.00016493
0.000164866
0.000164691
0.000167683
0.000167441
0.000158475
0.000159834
0.00016466
0.000165321
0.000166608
0.000161599
0.000161742
0.000169697
0.000168237
0.000167468
0.00017541
0.000171835
0.000160648
0.000165117
0.000166985
0.000165628
0.000178095
0.000176018
0.000168654
0.000171223
0.000173056
0.000160938
0.000168567
0.000168657
0.000175387
0.000174057
0.000166075
0.00017089
0.000172047
0.000177829
0.000174285
0.00018135
0.000179284
0.000166252
0.000169809
0.000180595
0.000178455
0.000183015
0.000181162
0.000174904
0.000179359
0.000179851
0.000169408
0.000170052
0.000175632
0.000179766
0.000179266
0.000170065
0.000171678
0.000166674
0.000181429
0.000180151
0.000179496
0.000181064
0.000169974
0.000170253
0.000182994
0.000181205
0.000178055
0.000179526
0.000180885
0.000180627
0.00018175
0.000169909
0.000168641
0.000180243
0.000179668
0.000181813
0.000171564
0.000166194
0.000166176
0.000178564
0.000181111
0.000177921
0.000180973
0.000170158
0.000169885
0.000176223
0.000178694
0.000174817
0.000178059
0.000181744
0.000180555
0.000181025
0.000168537
0.00016959
0.000181858
0.00018101
0.000181125
0.000169407
0.000166892
0.000175375
0.000178066
0.000181007
0.000184624
0.000184595
0.000169787
0.000175545
0.000174913
0.000178158
0.000184447
0.000183688
0.000180976
0.000186842
0.000181137
0.000169847
0.000173258
0.000180748
0.000182906
0.00018065
0.00017015
0.000177094
0.000181637
0.000187566
0.000187544
0.000193787
0.000192599
0.000176959
0.000180143
0.000189021
0.000187041
0.000196217
0.000194132
0.000182293
0.000192866
0.00019099
0.000174336
0.000180327
0.000180927
0.000191861
0.000190273
0.00017912
0.000181603
0.000178515
0.000194318
0.000192786
0.000194184
0.000191769
0.000179875
0.000175775
0.000196555
0.000194831
0.000195484
0.000194957
0.000192516
0.000190575
0.000193656
0.000180518
0.000178959
0.000192707
0.000194369
0.000194983
0.000179922
0.000177731
0.000176062
0.000192863
0.000190844
0.00019115
0.000190112
0.00017532
0.000175237
0.000193238
0.000193357
0.000190315
0.000191156
0.000193655
0.000188654
0.00019275
0.000178303
0.000176706
0.000195268
0.000192311
0.000194305
0.000178722
0.000176084
0.00018057
0.000191081
0.00019007
0.000193556
0.000194966
0.00017569
0.000181984
0.000190243
0.000191093
0.000192701
0.000194179
0.000192753
0.000194763
0.000195524
0.000176718
0.000181567
0.000194275
0.000194118
0.000195211
0.000182336
0.000181901
0.000186159
0.000196364
0.000197667
0.000202302
0.000203343
0.000183314
0.000187523
0.000195955
0.000197137
0.000202241
0.000201661
0.000198587
0.000204646
0.000203388
0.000182839
0.000185708
0.000197569
0.000201865
0.000201961
0.000186484
0.00018622
0.000185541
0.000203102
0.000204128
0.00020373
0.000204679
0.000187589
0.000186651
0.000202933
0.000201988
0.000203443
0.00020222
0.000203574
0.000205846
0.000202736
0.000185549
0.000184477
0.000202153
0.000202484
0.00020156
0.000183589
0.00018529
0.000185349
0.000203301
0.000204118
0.000202888
0.000203132
0.000186178
0.000185371
0.000203055
0.000202203
0.000202839
0.000202478
0.000201768
0.000202982
0.000201188
0.000184344
0.000185968
0.000200963
0.00020241
0.000200781
0.000183715
0.000185609
0.000188997
0.000202922
0.000203117
0.000206098
0.000204586
0.000185329
0.000187075
0.000202958
0.000203936
0.000207072
0.000208908
0.000201377
0.000203982
0.000207983
0.000186659
0.00019051
0.000201153
0.000208159
0.000208771
0.000191474
0.000189276
0.000189953
0.00020726
0.00020564
0.000208774
0.000209115
0.000187508
0.000190487
0.000208234
0.000209482
0.000209503
0.000210077
0.000209594
0.000209482
0.000210735
0.0001905
0.000189801
0.000210202
0.000209773
0.00021117
0.00019088
0.000189858
0.000190426
0.000209167
0.000209936
0.00021054
0.000210902
0.000190618
0.000190609
0.000209636
0.000209683
0.000209688
0.00020837
0.000210284
0.000210366
0.000207299
0.000189506
0.000188871
0.000210172
0.00020852
0.00020721
0.000186852
0.000190363
0.000190855
0.000210785
0.000210942
0.000211258
0.00021063
0.000190283
0.000189966
0.000209758
0.000208284
0.000210042
0.00020863
0.000207202
0.000209856
0.000208795
0.000188802
0.000190007
0.000207154
0.000209186
0.000209741
0.000191813
0.000190799
0.000194798
0.000211397
0.000210675
0.000214379
0.0002139
0.000190023
0.000194884
0.000210549
0.00020951
0.000215436
0.000215699
0.000211917
0.000215459
0.0002176
0.000190423
0.000195444
0.000212892
0.000216252
0.000217468
0.000197025
0.000195184
0.000195675
0.000215805
0.000215888
0.000217248
0.000218225
0.000195491
0.000196926
0.000216714
0.00021737
0.000217832
0.000218848
0.000217823
0.000218557
0.000216832
0.000195888
0.00019693
0.00021765
0.000218347
0.000215994
0.000193164
0.000195148
0.000194272
0.000217625
0.000218516
0.000217168
0.000217373
0.000196525
0.000194335
0.000218092
0.000219227
0.000217031
0.000217148
0.000215886
0.000216954
0.000215359
0.000196295
0.000194312
0.000215109
0.000216759
0.00021481
0.000192888
0.000194063
0.000198304
0.000217192
0.000217097
0.00021973
0.000217347
0.000194144
0.000196242
0.00021703
0.00021697
0.000219326
0.00021782
0.000215779
0.00021767
0.000222904
0.000194089
0.000197295
0.000215449
0.000219302
0.000223562
0.00020187
0.000198602
0.000198034
0.00022097
0.000219037
0.000221693
0.000221625
0.000196924
0.000199263
0.000220535
0.000219491
0.000221229
0.00022102
0.000224058
0.000222011
0.000224303
0.000197806
0.000198547
0.000224653
0.000222165
0.000224806
0.000199081
0.000196902
0.000193285
0.000221484
0.000221883
0.000217582
0.000219712
0.000198731
0.00019525
0.000220981
0.00022123
0.000217529
0.000218107
0.000222017
0.000219443
0.000215504
0.000197645
0.000193661
0.00022219
0.000217421
0.000214933
0.000190688
0.000193102
0.000197903
0.000217271
0.000219044
0.000218613
0.00021919
0.000194917
0.00019704
0.000217317
0.000217644
0.000219049
0.000218267
0.000215262
0.000219182
0.000218712
0.000193389
0.000196209
0.000214606
0.000217315
0.000217597
0.000198699
0.000199446
0.000206977
0.000221869
0.000220447
0.000230897
0.000227759
0.000198045
0.000203366
0.000222774
0.000220343
0.000231628
0.000229885
0.000223401
0.000227578
0.00023003
0.00019753
0.000205388
0.000222607
0.000229658
0.000230685
0.000206624
0.000206929
0.000202145
0.000231549
0.000228407
0.000230816
0.000228501
0.000203308
0.000200283
0.000232168
0.000231086
0.000231061
0.000231393
0.000230239
0.000227019
0.000225067
0.000205537
0.000204291
0.000230926
0.000231455
0.000227001
0.000197896
0.000199173
0.000189885
0.000226562
0.000225939
0.000215925
0.000219501
0.000198711
0.000194973
0.000226277
0.000230115
0.000215088
0.000218245
0.000221974
0.000220188
0.000219301
0.000202497
0.000193383
0.000223624
0.000219821
0.000219861
0.000193906
0.000189481
0.00019537
0.000214972
0.000218941
0.000216365
0.000219783
0.000194809
0.000198288
0.000214062
0.000216171
0.000215367
0.000215348
0.00021955
0.000222367
0.000228039
0.000192284
0.000192521
0.000219917
0.000217289
0.000226381
0.000204406
0.000197843
0.000212779
0.000220932
0.000222368
0.000237524
0.000233669
0.000199618
0.000207243
0.000219783
0.000216422
0.00023797
0.000233718
0.000230011
0.000232217
0.000231237
0.000193718
0.000208384
0.000228562
0.000231554
0.000230163
0.000204488
0.000213255
0.000210303
0.000239473
0.000235118
0.000239948
0.000235394
0.000207384
0.000205566
0.000240485
0.000237891
0.000241419
0.000240704
0.000230611
0.000232584
0.000223825
0.000209552
0.000211811
0.000230116
0.000236657
0.000224699
0.00019632
0.000206633
0.000190216
0.000236639
0.000233497
0.000217751
0.000219841
0.00020314
0.000193648
0.000239697
0.000240806
0.000218968
0.000224329
0.000222949
0.00022142
0.000223106
0.00021
0.000196094
0.000223794
0.000224783
0.000223641
0.000198328
0.000188833
0.000191188
0.000215056
0.000218156
0.000214388
0.000218448
0.00019304
0.000197373
0.000215145
0.000218923
0.00021309
0.000213689
0.000224631
0.000221811
0.000230239
0.000193672
0.000190336
0.000224634
0.000218124
0.00022954
0.000204955
0.000193109
0.000207543
0.00021666
0.000221954
0.000232996
0.000233656
0.000199075
0.000207314
0.000213762
0.000213733
0.000230692
0.000226081
0.000230943
0.000232446
0.000231448
0.000190474
0.000203325
0.000230427
0.000227702
0.000231043
0.000203652
0.000208304
0.00020976
0.000235306
0.000234376
0.000240377
0.000236092
0.000207283
0.000203581
0.000234454
0.000231175
0.000241234
0.000239521
0.00022964
0.000232502
0.000227102
0.000204575
0.000209197
0.000230149
0.000236381
0.000227733
0.000198498
0.000211009
0.00023715
0.000231708
0.000204334
0.000238761
0.00023787
0.000258794
0.000262194
0.000250833
0.000224907
0.000210837
0.000225219
4.99247e-06
2.35502e-06
1.75058e-06
2.37342e-06
1.23585e-06
3.53752e-06
1.76982e-06
1.78993e-06
1.1961e-06
2.08601e-06
1.83216e-06
1.03694e-06
2.23168e-06
1.61618e-06
2.03209e-06
1.13402e-06
1.47539e-05
1.04323e-06
1.65469e-05
1.06545e-05
1.28613e-05
1.32446e-06
1.54978e-05
1.26197e-06
1.73564e-05
1.79073e-06
1.85287e-06
1.90702e-06
1.73202e-06
1.83176e-06
1.85407e-06
1.928e-06
1.19505e-06
8.55574e-07
2.95491e-06
3.8483e-06
1.19655e-06
1.02767e-06
2.97445e-06
1.0801e-05
1.30744e-05
1.2095e-06
1.83561e-06
4.94704e-07
1.92324e-06
1.19756e-06
1.84185e-06
6.22341e-07
1.4964e-06
1.52107e-06
2.18902e-06
1.70432e-06
1.72393e-06
1.36027e-06
1.99323e-05
1.2792e-06
2.23394e-05
1.6966e-05
1.92402e-05
1.51923e-06
2.12068e-05
1.45262e-06
2.34725e-05
1.85358e-06
1.84188e-06
1.93534e-06
1.73203e-06
1.92644e-06
1.81644e-06