/*--------------------------------*- C++ -*----------------------------------*\
| =========                 |                                                 |
| \\      /  F ield         | OpenFOAM: The Open Source CFD Toolbox           |
|  \\    /   O peration     | Version:  v2006                                 |
|   \\  /    A nd           | Website:  www.openfoam.com                      |
|    \\/     M anipulation  |                                                 |
\*---------------------------------------------------------------------------*/
FoamFile
{
    version     2.0;
    format      ascii;
    class       volScalarField;
    location    "250";
    object      epsilon;
}
// * * * * * * * * * * * * * * * * * * * * * * * * * * * * * * * * * * * * * //

dimensions      [0 2 -3 0 0 0 0];


internalField   nonuniform List<scalar> 
14212
(
4.35679e-06
9.77285e-06
1.94356e-05
9.77396e-06
1.09607e-06
3.75045e-06
1.94344e-05
1.94366e-05
1.39271e-06
5.80086e-06
5.80195e-06
4.3567e-06
9.7727e-06
2.3356e-06
1.09617e-06
3.75053e-06
8.04029e-07
2.33553e-06
1.09617e-06
3.75072e-06
8.03961e-07
1.39267e-06
5.80176e-06
5.80041e-06
1.94344e-05
1.0961e-06
3.75107e-06
9.77312e-06
1.28839e-05
4.35686e-06
1.14422e-05
5.01984e-06
1.14417e-05
5.01991e-06
1.28846e-05
2.31789e-05
7.41769e-06
9.77238e-06
7.41797e-06
2.31819e-05
1.94338e-05
9.77335e-06
1.94331e-05
1.94345e-05
1.02077e-05
2.28087e-05
2.28106e-05
2.2808e-05
2.28088e-05
1.02062e-05
4.84412e-06
1.01596e-05
5.80108e-06
3.0543e-06
1.01596e-05
4.84321e-06
3.05447e-06
4.84618e-06
5.80216e-06
1.01626e-05
3.05635e-06
1.01612e-05
4.84609e-06
3.05636e-06
1.28843e-05
4.35678e-06
1.14421e-05
5.01963e-06
1.14416e-05
5.01967e-06
1.2885e-05
2.31801e-05
7.41649e-06
9.7722e-06
7.41671e-06
2.31831e-05
2.28072e-05
2.28072e-05
1.02049e-05
4.84721e-06
1.01621e-05
5.80203e-06
3.0557e-06
1.01617e-05
3.05588e-06
4.84696e-06
1.01586e-05
3.05452e-06
4.84202e-06
5.40131e-07
3.41197e-07
5.40109e-07
3.41196e-07
2.25031e-06
2.89981e-06
1.39472e-06
1.97863e-06
1.97966e-06
2.89952e-06
1.97943e-06
1.9803e-06
1.63527e-06
2.33578e-06
2.59476e-06
1.50458e-06
2.59503e-06
1.50578e-06
1.63349e-06
1.8486e-06
3.10279e-06
3.75083e-06
2.25033e-06
3.10321e-06
2.2509e-06
1.84708e-06
1.63512e-06
2.33571e-06
2.59458e-06
1.50451e-06
2.59482e-06
1.50571e-06
1.63333e-06
1.84843e-06
3.10247e-06
3.75104e-06
2.25058e-06
3.10284e-06
1.84693e-06
2.25112e-06
2.89966e-06
1.39475e-06
1.97923e-06
1.97886e-06
1.97961e-06
1.98003e-06
2.89936e-06
3.75132e-06
2.25077e-06
2.25122e-06
1.02054e-05
2.28052e-05
2.28051e-05
4.84227e-06
5.80054e-06
3.05461e-06
1.01581e-05
1.94326e-05
9.77248e-06
3.7507e-06
2.25082e-06
2.12957e-06
7.2253e-07
4.05265e-06
2.12943e-06
9.97133e-07
7.22568e-07
3.45614e-06
4.05237e-06
9.11943e-06
9.9699e-07
3.45677e-06
9.11999e-06
1.24549e-06
5.37908e-06
5.38096e-06
1.823e-05
1.82329e-05
1.20603e-05
4.68625e-06
1.07665e-05
4.02622e-06
1.21111e-05
4.65426e-06
1.07272e-05
1.20593e-05
1.0766e-05
4.68524e-06
4.02594e-06
1.21103e-05
1.07267e-05
4.65359e-06
2.16943e-05
6.99158e-06
9.05314e-06
2.18031e-05
6.94442e-06
9.05412e-06
9.53933e-06
2.15259e-05
2.15263e-05
9.63282e-06
2.13733e-05
2.13733e-05
4.46071e-06
9.4549e-06
2.80413e-06
5.33683e-06
4.50189e-06
2.78165e-06
9.36974e-06
4.46625e-06
9.45961e-06
2.80553e-06
5.33885e-06
4.50733e-06
2.78308e-06
9.37454e-06
1.81479e-05
1.8151e-05
4.55733e-07
1.47904e-06
2.37413e-06
1.36807e-06
2.11599e-06
1.49393e-06
2.35814e-06
1.35595e-06
1.47883e-06
1.368e-06
2.37367e-06
2.11584e-06
1.49374e-06
1.35588e-06
2.35771e-06
1.65958e-06
2.84814e-06
2.06266e-06
3.42988e-06
1.67596e-06
2.82636e-06
2.04541e-06
2.0631e-06
3.43056e-06
2.04584e-06
2.64635e-06
1.23047e-06
1.81016e-06
1.81051e-06
2.66909e-06
1.79377e-06
1.79413e-06
2.16979e-05
6.99477e-06
2.18052e-05
6.94695e-06
1.6599e-06
2.84904e-06
1.67621e-06
2.82723e-06
7.4174e-06
2.31812e-05
3.10267e-06
1.84699e-06
4.35627e-06
2.33517e-06
1.39262e-06
8.03932e-07
1.09599e-06
4.35633e-06
4.35626e-06
1.39269e-06
1.94342e-05
5.40028e-07
1.09597e-06
8.04036e-07
1.39489e-06
8.03851e-07
8.03767e-07
1.3925e-06
1.09593e-06
8.03934e-07
9.77185e-06
5.80143e-06
1.09602e-06
8.03875e-07
1.39467e-06
3.75086e-06
4.3567e-06
2.33556e-06
8.03985e-07
9.772e-06
1.39481e-06
1.09605e-06
4.35671e-06
4.35657e-06
1.94334e-05
3.41071e-07
3.41075e-07
3.41161e-07
3.41092e-07
9.77241e-06
4.3563e-06
1.09576e-06
3.75027e-06
2.33522e-06
1.0959e-06
8.03855e-07
8.03796e-07
9.77248e-06
1.09611e-06
8.03859e-07
3.75052e-06
1.09607e-06
8.03818e-07
1.94359e-05
5.80174e-06
5.80012e-06
1.94339e-05
1.09603e-06
2.3353e-06
3.75016e-06
1.09599e-06
8.0389e-07
8.03924e-07
2.33527e-06
3.75064e-06
1.09596e-06
8.03872e-07
3.7507e-06
9.77243e-06
9.77299e-06
9.77207e-06
5.80009e-06
5.80179e-06
1.39461e-06
5.79969e-06
5.80142e-06
1.94311e-05
1.94367e-05
1.94337e-05
4.35597e-06
9.77194e-06
4.35659e-06
1.94331e-05
9.77253e-06
4.35666e-06
3.41144e-07
3.41204e-07
3.41168e-07
8.0393e-07
2.33565e-06
3.75045e-06
2.33557e-06
8.04022e-07
1.9435e-05
1.09614e-06
2.33568e-06
3.75067e-06
5.80063e-06
5.80229e-06
1.39295e-06
5.80084e-06
5.80249e-06
1.94336e-05
1.94311e-05
1.94339e-05
1.39453e-06
5.80073e-06
1.39252e-06
5.80084e-06
5.8006e-06
4.3559e-06
2.33506e-06
2.33498e-06
4.35621e-06
9.77182e-06
9.77121e-06
4.35628e-06
4.35613e-06
9.77158e-06
9.77099e-06
4.35618e-06
1.09608e-06
1.0961e-06
8.03908e-07
2.3354e-06
3.75028e-06
3.75049e-06
2.33528e-06
8.03827e-07
1.09604e-06
1.09598e-06
2.33532e-06
3.75029e-06
3.7505e-06
2.33519e-06
1.94342e-05
1.94318e-05
1.39452e-06
5.80116e-06
5.7998e-06
5.80115e-06
5.79978e-06
1.94326e-05
1.94304e-05
8.03887e-07
1.09587e-06
8.03822e-07
2.33537e-06
3.74997e-06
3.75015e-06
2.33521e-06
4.35612e-06
9.77175e-06
9.77121e-06
4.35618e-06
1.09614e-06
3.75002e-06
8.03863e-07
1.09603e-06
3.75005e-06
2.33531e-06
2.33516e-06
9.771e-06
4.35601e-06
4.35608e-06
1.94327e-05
1.94331e-05
1.39471e-06
5.80151e-06
9.77164e-06
4.35651e-06
8.03951e-07
3.75074e-06
2.33562e-06
1.09608e-06
3.75081e-06
2.33555e-06
5.80173e-06
5.80023e-06
1.94318e-05
2.3356e-06
1.09591e-06
8.03923e-07
9.7726e-06
1.09621e-06
8.03956e-07
3.75105e-06
4.35676e-06
9.77181e-06
4.35646e-06
1.09619e-06
3.75054e-06
2.3356e-06
1.0963e-06
2.33553e-06
8.04081e-07
3.75058e-06
4.35666e-06
4.35636e-06
9.77339e-06
5.80234e-06
5.80061e-06
1.94331e-05
8.04021e-07
2.33565e-06
3.75115e-06
1.09614e-06
3.75116e-06
9.77255e-06
9.77313e-06
9.77437e-06
1.94362e-05
1.9436e-05
1.94386e-05
1.28832e-05
1.14412e-05
5.01911e-06
4.35645e-06
1.14407e-05
5.01928e-06
1.28839e-05
1.28825e-05
5.01927e-06
1.14413e-05
4.35645e-06
5.0195e-06
1.14408e-05
1.28832e-05
1.28835e-05
5.01919e-06
1.14415e-05
4.35632e-06
5.01926e-06
1.1441e-05
1.28842e-05
1.94322e-05
2.31769e-05
9.77135e-06
7.41528e-06
7.41551e-06
2.31799e-05
4.84456e-06
3.05511e-06
1.01591e-05
5.80096e-06
4.8433e-06
1.01601e-05
3.05491e-06
1.28844e-05
1.14412e-05
5.01953e-06
4.35654e-06
1.28837e-05
1.14417e-05
5.0194e-06
2.31811e-05
7.41587e-06
9.77264e-06
2.3178e-05
7.4157e-06
1.28838e-05
5.01979e-06
1.14413e-05
4.35661e-06
1.2883e-05
5.01958e-06
1.14418e-05
1.28848e-05
5.01952e-06
1.14415e-05
4.35654e-06
1.2884e-05
5.01949e-06
1.1442e-05
1.94353e-05
2.3177e-05
9.77198e-06
7.41705e-06
7.41737e-06
2.318e-05
1.2883e-05
5.01928e-06
1.14414e-05
4.35642e-06
5.01941e-06
1.14409e-05
1.28836e-05
2.31777e-05
7.4157e-06
9.77204e-06
7.41597e-06
2.31807e-05
1.9434e-05
4.84751e-06
3.05553e-06
1.01623e-05
5.80195e-06
3.05569e-06
1.01615e-05
4.84738e-06
1.02057e-05
2.28076e-05
2.28082e-05
2.2805e-05
2.28056e-05
1.02055e-05
4.84153e-06
3.0544e-06
1.01574e-05
5.80021e-06
1.01566e-05
3.05454e-06
4.84141e-06
1.94321e-05
2.3176e-05
7.41685e-06
9.77194e-06
7.41726e-06
2.31794e-05
2.31787e-05
7.41602e-06
9.77246e-06
7.41623e-06
2.31817e-05
2.31808e-05
9.7724e-06
7.41599e-06
2.31779e-05
7.4157e-06
4.8424e-06
3.05436e-06
1.0158e-05
5.80017e-06
1.01571e-05
4.84218e-06
3.0545e-06
1.02061e-05
2.28084e-05
2.28086e-05
2.28053e-05
2.28057e-05
1.02059e-05
4.84759e-06
3.05587e-06
1.01627e-05
5.80187e-06
3.05601e-06
1.01617e-05
4.84743e-06
4.84188e-06
5.79957e-06
3.0542e-06
1.01559e-05
1.01568e-05
3.05407e-06
4.84205e-06
1.02048e-05
2.28028e-05
2.2803e-05
2.28061e-05
2.28064e-05
1.02048e-05
4.84697e-06
5.80135e-06
3.05587e-06
1.01605e-05
3.0557e-06
1.01615e-05
4.84707e-06
1.94329e-05
1.94349e-05
1.94356e-05
1.28824e-05
1.14407e-05
5.01902e-06
4.35615e-06
1.14404e-05
5.01922e-06
1.28829e-05
2.31814e-05
7.41776e-06
9.77238e-06
2.31782e-05
7.41744e-06
1.28841e-05
4.35649e-06
1.14412e-05
5.01969e-06
1.28834e-05
1.14417e-05
5.01958e-06
1.94349e-05
2.31813e-05
7.41774e-06
9.77313e-06
2.31779e-05
7.4175e-06
1.28843e-05
5.01967e-06
1.14413e-05
4.35656e-06
1.28835e-05
5.0196e-06
1.14418e-05
1.94367e-05
4.84245e-06
3.05478e-06
1.01581e-05
5.80052e-06
4.84271e-06
3.05464e-06
1.01589e-05
1.02068e-05
2.28072e-05
2.28076e-05
1.0207e-05
2.281e-05
2.28102e-05
4.84782e-06
3.0562e-06
1.01628e-05
5.80218e-06
4.84802e-06
3.05605e-06
1.01635e-05
1.02078e-05
2.28114e-05
2.2811e-05
2.28087e-05
2.28087e-05
1.02073e-05
4.84295e-06
5.80099e-06
1.01594e-05
3.05486e-06
3.05501e-06
1.01589e-05
4.84261e-06
4.84832e-06
5.80264e-06
1.01641e-05
3.05622e-06
3.05636e-06
1.01636e-05
4.84807e-06
1.94318e-05
1.94328e-05
1.94321e-05
4.84337e-06
5.80096e-06
3.0546e-06
1.01588e-05
3.05474e-06
1.01581e-05
4.84314e-06
4.84554e-06
3.0552e-06
5.80095e-06
1.01608e-05
1.016e-05
3.05537e-06
4.84548e-06
4.84488e-06
3.05533e-06
1.01591e-05
5.80049e-06
4.84498e-06
1.01598e-05
3.05511e-06
1.02053e-05
2.2806e-05
2.28088e-05
2.28063e-05
2.28031e-05
1.02049e-05
1.28829e-05
1.14406e-05
5.01889e-06
4.35608e-06
1.14403e-05
5.01905e-06
1.28833e-05
1.28831e-05
1.14405e-05
5.0193e-06
4.35606e-06
1.28825e-05
1.14409e-05
5.01913e-06
2.31773e-05
9.77142e-06
7.41709e-06
2.31804e-05
7.41743e-06
2.31796e-05
7.41722e-06
9.77151e-06
2.31766e-05
7.41683e-06
1.28829e-05
4.35638e-06
1.14412e-05
5.01934e-06
1.28835e-05
1.14408e-05
5.01945e-06
1.28835e-05
1.14404e-05
5.01906e-06
4.35599e-06
1.2883e-05
1.14408e-05
5.01895e-06
2.31784e-05
9.77122e-06
7.41584e-06
7.4161e-06
2.31813e-05
2.31806e-05
7.41595e-06
9.77126e-06
2.31779e-05
7.41562e-06
1.28832e-05
4.35629e-06
1.14411e-05
5.01911e-06
1.14407e-05
5.01918e-06
1.28839e-05
1.94324e-05
1.94335e-05
1.02043e-05
2.28037e-05
2.28038e-05
2.28061e-05
2.28059e-05
1.02048e-05
4.84675e-06
3.0555e-06
5.80142e-06
1.01612e-05
3.05576e-06
1.01607e-05
4.84649e-06
4.84218e-06
3.05406e-06
5.79995e-06
1.01576e-05
1.01572e-05
3.05419e-06
4.84189e-06
4.84627e-06
3.05577e-06
1.01602e-05
5.80087e-06
3.0555e-06
1.01607e-05
4.84652e-06
4.8419e-06
3.05407e-06
1.01571e-05
5.79954e-06
1.01574e-05
3.05388e-06
4.84229e-06
1.0205e-05
2.28065e-05
2.28062e-05
2.28044e-05
2.28041e-05
1.02045e-05
1.9431e-05
1.94319e-05
1.28828e-05
5.01911e-06
1.14406e-05
4.35601e-06
5.01889e-06
1.1441e-05
1.28822e-05
2.31756e-05
9.77138e-06
7.41655e-06
7.41698e-06
2.31788e-05
2.31781e-05
7.41682e-06
9.77144e-06
7.41631e-06
2.3175e-05
1.28825e-05
4.35624e-06
5.01907e-06
1.14414e-05
5.01924e-06
1.14409e-05
1.28832e-05
2.3179e-05
9.77131e-06
7.41533e-06
7.41499e-06
2.31762e-05
1.2883e-05
5.0188e-06
1.14404e-05
4.3559e-06
1.14408e-05
5.01869e-06
1.28824e-05
1.28828e-05
5.01887e-06
4.35613e-06
1.14411e-05
1.14407e-05
5.01894e-06
1.28834e-05
1.94342e-05
1.94351e-05
4.84594e-06
3.05559e-06
1.01606e-05
5.80078e-06
4.84575e-06
1.01606e-05
3.05447e-06
1.02082e-05
2.28056e-05
2.28074e-05
1.02054e-05
2.28099e-05
2.28096e-05
2.31822e-05
7.41637e-06
9.77211e-06
2.31792e-05
7.41615e-06
1.28844e-05
4.35641e-06
1.14411e-05
5.0194e-06
1.14416e-05
1.28837e-05
5.01934e-06
4.84673e-06
3.05579e-06
1.01612e-05
5.80147e-06
1.01617e-05
4.84698e-06
3.05557e-06
4.84194e-06
3.0544e-06
1.01576e-05
5.8001e-06
3.05428e-06
4.8422e-06
1.01581e-05
1.02047e-05
2.28048e-05
2.28046e-05
2.28069e-05
1.02052e-05
2.28068e-05
1.94335e-05
2.31817e-05
7.41629e-06
9.77318e-06
2.31786e-05
7.41606e-06
1.28837e-05
4.35676e-06
5.01971e-06
1.14425e-05
5.01983e-06
1.14419e-05
1.28845e-05
2.31799e-05
7.41731e-06
9.77235e-06
7.41693e-06
2.31765e-05
1.28838e-05
4.35643e-06
5.01949e-06
1.14414e-05
5.01935e-06
1.2883e-05
1.14419e-05
2.31777e-05
7.41776e-06
1.2884e-05
4.35666e-06
1.14423e-05
5.01952e-06
1.14417e-05
5.01954e-06
1.28847e-05
1.2884e-05
5.0192e-06
4.35633e-06
1.14411e-05
1.28833e-05
1.14417e-05
5.01916e-06
2.31792e-05
9.77278e-06
7.41614e-06
7.41631e-06
2.31824e-05
4.84767e-06
3.05589e-06
1.01624e-05
5.8021e-06
4.84783e-06
1.0163e-05
3.05577e-06
1.02061e-05
2.28064e-05
2.2807e-05
1.02064e-05
2.28088e-05
2.28094e-05
4.8417e-06
3.05474e-06
1.01575e-05
5.8005e-06
4.84185e-06
3.05462e-06
1.01582e-05
1.94349e-05
2.31805e-05
7.41764e-06
9.77316e-06
2.31771e-05
7.41725e-06
2.31828e-05
7.4166e-06
9.77373e-06
2.31797e-05
7.41641e-06
2.31808e-05
9.77384e-06
7.41679e-06
7.417e-06
2.31839e-05
1.94345e-05
1.94377e-05
1.94369e-05
1.63493e-06
1.50429e-06
2.5942e-06
2.33542e-06
1.50551e-06
2.59454e-06
1.63312e-06
2.89954e-06
1.97906e-06
1.9789e-06
1.39469e-06
1.97984e-06
1.97969e-06
2.89925e-06
2.89977e-06
1.97882e-06
1.97934e-06
1.39475e-06
1.98011e-06
2.89948e-06
1.97957e-06
3.41132e-07
3.4113e-07
1.82636e-07
2.89968e-06
1.97977e-06
1.98025e-06
1.39283e-06
2.89999e-06
1.97901e-06
1.97948e-06
2.89945e-06
1.39459e-06
1.97909e-06
1.97858e-06
1.97994e-06
1.97938e-06
2.89911e-06
2.89922e-06
1.97997e-06
1.97947e-06
1.39256e-06
1.97869e-06
2.89954e-06
1.97914e-06
1.84684e-06
3.10292e-06
2.25081e-06
3.75056e-06
1.84833e-06
3.10254e-06
2.25029e-06
1.63325e-06
1.5056e-06
2.59469e-06
2.3354e-06
1.63503e-06
1.50441e-06
2.59444e-06
2.89945e-06
1.97997e-06
1.97982e-06
1.39273e-06
2.89972e-06
1.97904e-06
1.9792e-06
5.39976e-07
5.4005e-07
3.41078e-07
3.4108e-07
3.41029e-07
1.82634e-07
1.82618e-07
3.41104e-07
5.40016e-07
3.41063e-07
5.39972e-07
3.41023e-07
1.82621e-07
1.82609e-07
5.40096e-07
3.41122e-07
3.41102e-07
5.40046e-07
3.41086e-07
1.82667e-07
1.8266e-07
5.40072e-07
3.41143e-07
5.40041e-07
3.41116e-07
3.4107e-07
1.82656e-07
1.82639e-07
1.84817e-06
3.75056e-06
3.1023e-06
2.25007e-06
3.1027e-06
2.25059e-06
1.84665e-06
1.63495e-06
2.59432e-06
1.50432e-06
2.33547e-06
2.59463e-06
1.50553e-06
1.63314e-06
1.84823e-06
3.10207e-06
2.25044e-06
3.75082e-06
3.1025e-06
2.25097e-06
1.84669e-06
1.63505e-06
1.50441e-06
2.59436e-06
2.33553e-06
1.50562e-06
2.5947e-06
1.63324e-06
1.84831e-06
2.25019e-06
3.10233e-06
3.75043e-06
2.25073e-06
3.10276e-06
1.84678e-06
1.635e-06
1.50438e-06
2.5943e-06
2.3355e-06
1.50559e-06
2.59461e-06
1.6332e-06
1.84828e-06
2.25059e-06
3.10218e-06
3.7509e-06
3.10257e-06
2.25112e-06
1.84676e-06
1.84663e-06
3.7504e-06
2.25098e-06
3.10241e-06
1.84817e-06
3.10199e-06
2.25045e-06
2.89926e-06
1.39255e-06
1.97943e-06
1.97997e-06
1.97919e-06
1.97865e-06
2.89953e-06
5.40043e-07
3.41094e-07
3.41149e-07
1.82616e-07
5.40147e-07
3.41171e-07
5.40212e-07
3.41267e-07
1.82668e-07
5.40156e-07
3.41216e-07
1.82651e-07
1.6352e-06
2.33577e-06
2.59472e-06
1.5046e-06
2.59495e-06
1.50576e-06
1.63344e-06
1.8468e-06
2.25069e-06
3.10277e-06
3.75019e-06
1.84829e-06
2.25017e-06
3.10238e-06
1.63327e-06
1.50564e-06
2.33538e-06
2.59473e-06
1.63506e-06
2.59444e-06
1.50444e-06
1.84846e-06
3.10304e-06
1.63337e-06
1.50572e-06
2.59487e-06
2.33552e-06
1.63516e-06
1.50453e-06
2.59459e-06
1.84694e-06
2.25086e-06
3.10299e-06
3.75042e-06
1.84844e-06
2.25033e-06
3.10259e-06
2.90014e-06
1.39501e-06
1.97915e-06
1.97957e-06
1.97992e-06
1.98036e-06
2.89982e-06
2.89901e-06
1.97912e-06
1.39242e-06
1.98006e-06
1.97836e-06
2.89931e-06
1.9792e-06
2.89947e-06
1.39461e-06
1.97855e-06
1.97925e-06
1.97932e-06
1.98008e-06
2.89917e-06
1.63501e-06
1.50422e-06
2.59422e-06
2.33535e-06
2.5946e-06
1.50549e-06
1.63314e-06
1.63479e-06
1.50415e-06
2.59398e-06
2.33527e-06
2.59436e-06
1.50541e-06
1.63295e-06
1.63319e-06
1.5055e-06
2.59467e-06
2.33514e-06
1.63502e-06
2.5943e-06
1.50428e-06
1.84846e-06
2.25048e-06
3.75058e-06
3.10248e-06
2.25108e-06
3.1029e-06
1.8469e-06
1.84682e-06
2.25102e-06
3.10281e-06
3.75016e-06
2.25046e-06
1.84837e-06
3.10234e-06
1.6351e-06
1.50438e-06
2.33551e-06
2.59443e-06
2.59476e-06
1.50559e-06
1.63329e-06
1.633e-06
1.50543e-06
2.59443e-06
2.33506e-06
1.63483e-06
2.59409e-06
1.5042e-06
1.84817e-06
2.25036e-06
3.75062e-06
3.10206e-06
3.10248e-06
2.25091e-06
1.84664e-06
1.84653e-06
2.25082e-06
3.10233e-06
3.75012e-06
1.84807e-06
3.10191e-06
2.25027e-06
1.63492e-06
1.50431e-06
2.33543e-06
2.59421e-06
2.59454e-06
1.50552e-06
1.6331e-06
2.89904e-06
1.39241e-06
1.97991e-06
1.97934e-06
1.97907e-06
1.97851e-06
2.89938e-06
1.63312e-06
1.50551e-06
2.59454e-06
2.33509e-06
2.59413e-06
1.50428e-06
1.63496e-06
1.8482e-06
2.25005e-06
3.75026e-06
3.10214e-06
1.84666e-06
2.25059e-06
3.10258e-06
1.84659e-06
2.25055e-06
3.10252e-06
3.74981e-06
2.24997e-06
3.102e-06
1.84817e-06
1.63499e-06
1.50435e-06
2.33545e-06
2.59424e-06
1.63317e-06
2.59459e-06
1.50557e-06
1.84815e-06
2.25012e-06
3.75027e-06
3.10185e-06
2.25064e-06
3.10223e-06
1.84664e-06
1.84652e-06
3.74976e-06
2.25052e-06
3.10214e-06
2.24998e-06
3.10167e-06
1.84807e-06
1.63305e-06
1.50549e-06
2.59438e-06
2.33505e-06
1.50426e-06
2.59402e-06
1.63488e-06
1.63494e-06
1.50433e-06
2.59416e-06
2.3354e-06
1.50555e-06
2.59446e-06
1.63314e-06
2.89936e-06
1.97952e-06
1.98015e-06
1.39248e-06
2.89957e-06
1.97873e-06
1.97868e-06
1.84698e-06
2.25108e-06
3.10309e-06
3.75037e-06
3.10262e-06
1.84854e-06
2.25033e-06
1.63337e-06
1.50568e-06
2.33539e-06
2.59489e-06
2.59456e-06
1.6352e-06
1.50447e-06
1.84677e-06
2.251e-06
3.10264e-06
3.7505e-06
1.84829e-06
3.10224e-06
2.25046e-06
1.63321e-06
1.50562e-06
2.33533e-06
2.59467e-06
1.63501e-06
2.59436e-06
1.50441e-06
1.63327e-06
2.59479e-06
1.50563e-06
2.33544e-06
1.63506e-06
2.59455e-06
1.50444e-06
1.84686e-06
3.1027e-06
2.2511e-06
3.75077e-06
1.84835e-06
3.10231e-06
2.25057e-06
1.8468e-06
2.2508e-06
3.10248e-06
3.75031e-06
2.25027e-06
1.84828e-06
3.10211e-06
1.63518e-06
2.33572e-06
1.50458e-06
2.59462e-06
1.50575e-06
2.59483e-06
1.63343e-06
1.63326e-06
1.50563e-06
2.59463e-06
2.33534e-06
1.50442e-06
1.63504e-06
2.59435e-06
1.84847e-06
3.75084e-06
3.1024e-06
2.25042e-06
2.25096e-06
3.10275e-06
1.84699e-06
1.63333e-06
1.5057e-06
2.59476e-06
2.33549e-06
1.63512e-06
1.50451e-06
2.59453e-06
1.84691e-06
2.25126e-06
3.10279e-06
3.75091e-06
1.84843e-06
2.25074e-06
3.10241e-06
1.84858e-06
3.75142e-06
3.10266e-06
2.25086e-06
2.2514e-06
3.10302e-06
1.84707e-06
4.53451e-07
9.8304e-07
9.83198e-07
1.21568e-06
4.66031e-07
9.95921e-07
9.96037e-07
1.22977e-06
4.96454e-07
1.04241e-06
1.04252e-06
1.3031e-06
5.2453e-07
1.07895e-06
1.07903e-06
1.36274e-06
5.37044e-07
1.0942e-06
1.0943e-06
1.39041e-06
5.40144e-07
1.09706e-06
1.09713e-06
1.39681e-06
5.39995e-07
1.09644e-06
1.09647e-06
1.39558e-06
1.3946e-06
9.8832e-07
1.21691e-06
9.88269e-07
9.88291e-07
9.88158e-07
1.21674e-06
5.25811e-06
1.21958e-06
9.8306e-07
9.83106e-07
9.88155e-07
9.88104e-07
1.21588e-06
1.21955e-06
3.38102e-06
3.97302e-06
2.08869e-06
9.88011e-07
9.88164e-07
9.83049e-07
9.88041e-07
9.88176e-07
5.25852e-06
1.21964e-06
9.82922e-07
9.88103e-07
9.88026e-07
1.2196e-06
1.22975e-06
1.28777e-06
9.96072e-07
9.95989e-07
1.02976e-06
1.02965e-06
1.22968e-06
1.28764e-06
9.95966e-07
9.96122e-07
1.02964e-06
1.02981e-06
9.961e-07
1.0296e-06
1.02984e-06
1.22981e-06
1.28785e-06
9.95946e-07
1.02972e-06
1.02966e-06
1.2879e-06
1.30299e-06
1.35241e-06
1.04255e-06
1.04247e-06
1.07213e-06
1.07212e-06
1.3029e-06
1.35247e-06
1.04243e-06
1.04259e-06
1.07199e-06
1.07218e-06
1.04264e-06
1.07205e-06
1.07221e-06
1.30306e-06
1.35252e-06
1.04245e-06
1.07214e-06
1.07202e-06
1.35256e-06
1.36263e-06
1.38521e-06
1.07904e-06
1.07902e-06
1.09208e-06
1.09202e-06
1.3627e-06
1.38519e-06
1.07889e-06
1.07908e-06
1.09193e-06
1.09213e-06
1.0791e-06
1.09196e-06
1.09214e-06
1.36274e-06
1.3853e-06
1.07891e-06
1.09206e-06
1.09195e-06
1.38532e-06
1.3903e-06
1.39425e-06
1.09434e-06
1.09426e-06
1.09706e-06
1.09698e-06
1.39027e-06
1.39421e-06
1.09418e-06
1.09438e-06
1.0969e-06
1.09711e-06
1.0944e-06
1.09694e-06
1.09718e-06
1.39038e-06
1.39432e-06
1.09421e-06
1.09702e-06
1.09698e-06
1.39448e-06
1.39659e-06
1.39356e-06
1.09718e-06
1.0971e-06
1.09672e-06
1.09668e-06
1.39656e-06
1.39363e-06
1.09701e-06
1.09722e-06
1.09654e-06
1.09676e-06
1.09729e-06
1.09663e-06
1.09679e-06
1.39665e-06
1.39364e-06
1.09709e-06
1.09668e-06
1.0966e-06
1.39368e-06
1.39547e-06
1.39244e-06
1.09652e-06
1.09645e-06
1.09616e-06
1.84647e-06
1.39555e-06
1.09634e-06
1.09655e-06
1.09577e-06
1.09609e-06
1.09657e-06
1.09608e-06
2.3351e-06
4.35608e-06
1.39554e-06
1.39253e-06
1.09638e-06
1.09601e-06
1.0958e-06
1.39251e-06
1.94321e-05
1.94306e-05
1.09602e-06
2.33533e-06
4.35614e-06
8.95488e-06
3.39281e-06
9.88144e-07
1.80331e-05
5.27777e-06
1.21667e-06
5.27719e-06
1.80317e-05
4.54145e-07
4.54167e-07
3.95901e-06
8.92038e-06
3.9726e-06
8.88188e-06
1.79983e-05
1.79857e-05
8.92116e-06
3.97298e-06
3.95919e-06
8.88311e-06
4.53517e-07
4.53474e-07
4.53499e-07
4.60829e-07
4.60842e-07
4.6092e-07
4.60904e-07
2.08227e-06
3.38069e-06
7.15814e-07
9.8144e-07
2.08813e-06
3.367e-06
7.15664e-07
1.79971e-05
1.79847e-05
3.38111e-06
2.08245e-06
7.15909e-07
9.81488e-07
2.08851e-06
7.15751e-07
3.36701e-06
5.25598e-06
5.25799e-06
1.20753e-06
5.23683e-06
5.23864e-06
4.06643e-06
8.97181e-06
4.00951e-06
9.08779e-06
1.81831e-05
1.8389e-05
4.06637e-06
8.97312e-06
4.00957e-06
9.0891e-06
4.66015e-07
4.66121e-07
4.66093e-07
4.87596e-07
4.87559e-07
4.87699e-07
4.87669e-07
2.15133e-06
3.41435e-06
7.29638e-07
1.00549e-06
2.11527e-06
3.46676e-06
7.37341e-07
1.81848e-05
1.83904e-05
2.15119e-06
7.29732e-07
3.41442e-06
1.00561e-06
2.11534e-06
7.37444e-07
3.46669e-06
5.31023e-06
5.31165e-06
1.24896e-06
5.38756e-06
5.38904e-06
4.2157e-06
9.29504e-06
4.16245e-06
9.41951e-06
1.8717e-05
1.89229e-05
4.21563e-06
9.2964e-06
4.16243e-06
9.42087e-06
4.96429e-07
4.9656e-07
4.9654e-07
5.19115e-07
5.1912e-07
5.19221e-07
5.19201e-07
2.24771e-06
3.56303e-06
7.66161e-07
1.05384e-06
2.21455e-06
3.61368e-06
7.74964e-07
1.87189e-05
1.89231e-05
2.24765e-06
7.66242e-07
3.56315e-06
1.05394e-06
2.21453e-06
7.75042e-07
3.61368e-06
5.52603e-06
5.52755e-06
1.32415e-06
5.60219e-06
5.60377e-06
4.31726e-06
9.59129e-06
4.28649e-06
9.67227e-06
1.91774e-05
1.93022e-05
4.3173e-06
9.59244e-06
4.28648e-06
9.67341e-06
5.24534e-07
5.24634e-07
5.2461e-07
5.35085e-07
5.35074e-07
5.35183e-07
5.35161e-07
2.31078e-06
3.68455e-06
7.93279e-07
1.08448e-06
2.29248e-06
3.7128e-06
7.97086e-07
1.91776e-05
1.93025e-05
2.31082e-06
7.93365e-07
3.6847e-06
1.08457e-06
2.29255e-06
7.97175e-07
3.7129e-06
5.70601e-06
5.70756e-06
1.37261e-06
5.74902e-06
5.75063e-06
4.35697e-06
9.75333e-06
4.3483e-06
9.77784e-06
1.94096e-05
1.94453e-05
4.35722e-06
9.75478e-06
4.34852e-06
9.77945e-06
5.37026e-07
5.37138e-07
5.37124e-07
5.39857e-07
5.39842e-07
5.39948e-07
5.39954e-07
2.33527e-06
3.74349e-06
8.03398e-07
1.09566e-06
2.33024e-06
3.75089e-06
8.04239e-07
1.94115e-05
1.94475e-05
2.33529e-06
8.03485e-07
3.74373e-06
1.09576e-06
2.33032e-06
8.0432e-07
3.75104e-06
5.79351e-06
5.79514e-06
1.39198e-06
5.80466e-06
5.80631e-06
4.36109e-06
9.78832e-06
4.36176e-06
9.78657e-06
1.94552e-05
1.94531e-05
4.36127e-06
9.78997e-06
4.362e-06
9.78822e-06
5.40133e-07
5.40234e-07
5.40241e-07
5.40248e-07
5.40253e-07
5.40341e-07
5.40335e-07
2.338e-06
3.75577e-06
8.04815e-07
1.09702e-06
2.33853e-06
3.75491e-06
8.04675e-07
1.94574e-05
1.94549e-05
2.33794e-06
8.04878e-07
3.75583e-06
1.09708e-06
2.3385e-06
8.04731e-07
3.75486e-06
5.81033e-06
5.81191e-06
1.39449e-06
5.80802e-06
5.80954e-06
4.35697e-06
9.77714e-06
4.35856e-06
9.77389e-06
1.94395e-05
1.94364e-05
4.35705e-06
9.7787e-06
4.35869e-06
9.77533e-06
5.40059e-07
5.40171e-07
5.40179e-07
5.40262e-07
5.40251e-07
5.39987e-07
1.82762e-07
2.33578e-06
3.75274e-06
8.04126e-07
1.09622e-06
2.33692e-06
3.75094e-06
8.04003e-07
1.94407e-05
1.94372e-05
2.33571e-06
8.04184e-07
3.75262e-06
1.09628e-06
2.33683e-06
8.04054e-07
3.75078e-06
5.80301e-06
5.80463e-06
1.39286e-06
5.80028e-06
5.80186e-06
5.80001e-06
5.79922e-06
1.39459e-06
5.80052e-06
5.80092e-06
1.80306e-05
1.80312e-05
5.27739e-06
1.21662e-06
5.27717e-06
8.95403e-06
3.98588e-06
8.95438e-06
3.98581e-06
9.88328e-07
3.3927e-06
7.18185e-07
2.09525e-06
3.39307e-06
7.1812e-07
2.09519e-06
1.80344e-05
5.27898e-06
5.27695e-06
1.80311e-05
3.39257e-06
7.18178e-07
2.09499e-06
8.95437e-06
3.98552e-06
7.18191e-07
3.39167e-06
2.09483e-06
8.9521e-06
3.98524e-06
9.88372e-07
3.39301e-06
7.18263e-07
2.09531e-06
7.18162e-07
3.39248e-06
2.09514e-06
8.9556e-06
3.98605e-06
8.95358e-06
3.98577e-06
5.27524e-06
5.27729e-06
1.80282e-05
1.80314e-05
1.79948e-05
1.79818e-05
1.79952e-05
1.79837e-05
1.21564e-06
5.25789e-06
1.20758e-06
5.23784e-06
5.2386e-06
1.81371e-05
1.79987e-05
1.81399e-05
1.80008e-05
1.21106e-06
5.28703e-06
5.28811e-06
5.24243e-06
5.24371e-06
3.95896e-06
8.92073e-06
3.9725e-06
8.88243e-06
2.08247e-06
3.38083e-06
7.15836e-07
9.8143e-07
2.08845e-06
3.36687e-06
7.15691e-07
2.08243e-06
3.38138e-06
7.15789e-07
9.81508e-07
2.08839e-06
3.36755e-06
7.15637e-07
3.96211e-06
8.94306e-06
8.88287e-06
3.99427e-06
3.96206e-06
8.94335e-06
8.88339e-06
3.99422e-06
2.08545e-06
9.82688e-07
3.39813e-06
7.23195e-07
3.37023e-06
7.17892e-07
2.10519e-06
2.08539e-06
9.82727e-07
3.39839e-06
7.23156e-07
3.37092e-06
7.17865e-07
2.10514e-06
5.25997e-06
5.25759e-06
1.20768e-06
5.23969e-06
5.23782e-06
1.79953e-05
1.79829e-05
1.81397e-05
1.80021e-05
1.21113e-06
5.28801e-06
5.28693e-06
5.24452e-06
5.24252e-06
1.81382e-05
1.79997e-05
2.08868e-06
9.83012e-07
7.15811e-07
2.0825e-06
9.81429e-07
3.36731e-06
7.15642e-07
8.92137e-06
3.95912e-06
8.88311e-06
3.38113e-06
9.82955e-07
7.15857e-07
2.08247e-06
9.81456e-07
7.15687e-07
3.36722e-06
3.96225e-06
8.94441e-06
8.88415e-06
3.9943e-06
2.08542e-06
9.82619e-07
3.39866e-06
7.23168e-07
3.37077e-06
7.17864e-07
2.10518e-06
3.96234e-06
8.94405e-06
8.88411e-06
3.99411e-06
2.08541e-06
9.82706e-07
7.23183e-07
3.39856e-06
7.1787e-07
3.37069e-06
2.10515e-06
3.95858e-06
8.92057e-06
3.972e-06
8.88224e-06
2.08214e-06
7.15818e-07
3.37982e-06
9.81474e-07
2.08796e-06
7.15672e-07
3.36638e-06
3.95836e-06
8.9183e-06
3.9717e-06
8.88051e-06
2.08519e-06
9.82657e-07
3.39822e-06
7.23188e-07
3.37031e-06
7.17906e-07
2.10516e-06
3.96169e-06
8.94375e-06
8.88324e-06
3.99421e-06
2.08509e-06
9.8273e-07
7.23213e-07
3.39817e-06
7.17921e-07
3.36994e-06
2.1051e-06
3.96148e-06
8.94352e-06
8.88169e-06
3.99413e-06
1.21567e-06
5.25791e-06
1.20762e-06
5.23882e-06
5.23783e-06
1.79958e-05
1.79831e-05
1.81404e-05
1.80015e-05
1.21108e-06
5.28837e-06
5.287e-06
5.24404e-06
5.24235e-06
1.81385e-05
1.79997e-05
2.08233e-06
7.15812e-07
3.3806e-06
9.81339e-07
2.08831e-06
7.15661e-07
3.36711e-06
8.92178e-06
3.95895e-06
3.97262e-06
8.88317e-06
3.95881e-06
8.91983e-06
3.97227e-06
8.88192e-06
2.08539e-06
9.82682e-07
7.23265e-07
3.39814e-06
7.17966e-07
3.37032e-06
2.10517e-06
2.08529e-06
9.8259e-07
7.23205e-07
3.39875e-06
7.17898e-07
3.37058e-06
2.10518e-06
3.96217e-06
8.94394e-06
8.88401e-06
3.9941e-06
3.96189e-06
8.94442e-06
8.88304e-06
3.99426e-06
1.79926e-05
1.79816e-05
1.79957e-05
1.79842e-05
1.21101e-06
5.28723e-06
5.28872e-06
5.24198e-06
5.24366e-06
1.81397e-05
1.79991e-05
1.81416e-05
1.80015e-05
1.81815e-05
1.83868e-05
1.81842e-05
1.83898e-05
5.30988e-06
5.31101e-06
1.24885e-06
5.38727e-06
5.38854e-06
1.866e-05
1.8442e-05
1.86633e-05
1.84449e-05
1.26366e-06
5.49808e-06
5.49954e-06
5.4152e-06
5.41652e-06
4.06636e-06
8.97209e-06
4.00947e-06
9.08778e-06
2.15116e-06
3.41438e-06
7.29655e-07
1.00565e-06
2.11537e-06
3.46665e-06
7.37361e-07
2.15109e-06
3.4148e-06
7.29618e-07
1.00554e-06
2.1153e-06
3.46673e-06
7.37314e-07
4.08517e-06
9.25532e-06
9.12623e-06
4.14413e-06
4.0851e-06
9.25534e-06
9.12627e-06
4.14408e-06
2.16441e-06
1.01701e-06
3.5429e-06
7.56152e-07
3.48724e-06
7.46256e-07
2.2018e-06
2.16435e-06
1.01689e-06
3.543e-06
7.56104e-07
3.48753e-06
7.4621e-07
2.20174e-06
5.31126e-06
5.30967e-06
1.24872e-06
5.38792e-06
5.38702e-06
1.81825e-05
1.83875e-05
1.86623e-05
1.84432e-05
1.2635e-06
5.49886e-06
5.4979e-06
5.41639e-06
5.41487e-06
1.86608e-05
1.84427e-05
2.1511e-06
3.41483e-06
7.2966e-07
1.00554e-06
2.11535e-06
3.46718e-06
7.37365e-07
4.06616e-06
8.9728e-06
4.00974e-06
9.08867e-06
2.15107e-06
7.29675e-07
3.41483e-06
1.00571e-06
2.11531e-06
7.37382e-07
3.46703e-06
4.08517e-06
9.2567e-06
9.12753e-06
4.14407e-06
2.16437e-06
1.01689e-06
3.54345e-06
7.5615e-07
3.48773e-06
7.46271e-07
2.20176e-06
4.08527e-06
9.25618e-06
9.12713e-06
4.14387e-06
2.16431e-06
1.01706e-06
7.56166e-07
3.54325e-06
7.46286e-07
3.48764e-06
2.20172e-06
4.0667e-06
8.97278e-06
4.00964e-06
9.08862e-06
2.15132e-06
7.29677e-07
3.4146e-06
1.00568e-06
2.11525e-06
7.37388e-07
3.46693e-06
4.06667e-06
8.97265e-06
4.00954e-06
9.08899e-06
2.16451e-06
1.01683e-06
3.54299e-06
7.56161e-07
3.48723e-06
7.46249e-07
2.202e-06
4.0855e-06
9.25606e-06
9.12721e-06
4.14444e-06
2.16449e-06
1.01706e-06
7.56224e-07
3.54312e-06
7.46307e-07
3.48755e-06
2.20199e-06
4.08543e-06
9.25654e-06
9.12747e-06
4.14441e-06
5.31128e-06
5.30992e-06
1.24893e-06
5.38864e-06
5.3873e-06
1.81828e-05
1.83883e-05
1.86636e-05
1.84455e-05
1.26373e-06
5.49951e-06
5.49821e-06
5.41664e-06
5.41529e-06
1.86617e-05
1.84433e-05
2.15125e-06
7.29682e-07
3.41503e-06
1.00552e-06
2.11531e-06
7.37394e-07
3.46741e-06
4.06632e-06
8.97278e-06
4.0098e-06
9.08842e-06
4.06656e-06
8.97343e-06
4.0096e-06
9.08963e-06
2.16447e-06
1.01696e-06
7.56249e-07
3.54298e-06
7.46347e-07
3.48733e-06
2.20188e-06
2.16446e-06
1.01689e-06
7.5621e-07
3.5436e-06
7.46307e-07
3.48794e-06
2.20192e-06
4.08548e-06
9.25594e-06
9.127e-06
4.14409e-06
4.08534e-06
9.25717e-06
9.12811e-06
4.14432e-06
1.81841e-05
1.83895e-05
1.81861e-05
1.83913e-05
1.26376e-06
5.49826e-06
5.49981e-06
5.41546e-06
5.41693e-06
1.86625e-05
1.84444e-05
1.86644e-05
1.84464e-05
1.87155e-05
1.89198e-05
1.87187e-05
1.89229e-05
5.52585e-06
5.52732e-06
1.32398e-06
5.60198e-06
5.60341e-06
1.91381e-05
1.89679e-05
1.91408e-05
1.89709e-05
1.33692e-06
5.68752e-06
5.68882e-06
5.62607e-06
5.62748e-06
4.21567e-06
9.29519e-06
4.16241e-06
9.41991e-06
2.24754e-06
3.56302e-06
7.66143e-07
1.05394e-06
2.21447e-06
3.61348e-06
7.74935e-07
2.24749e-06
3.56337e-06
7.66095e-07
1.0539e-06
2.21441e-06
3.61377e-06
7.74891e-07
4.23141e-06
9.56238e-06
9.45551e-06
4.27438e-06
4.23137e-06
9.56318e-06
9.45608e-06
4.27437e-06
2.25822e-06