/*--------------------------------*- C++ -*----------------------------------*\
| =========                 |                                                 |
| \\      /  F ield         | OpenFOAM: The Open Source CFD Toolbox           |
|  \\    /   O peration     | Version:  v2006                                 |
|   \\  /    A nd           | Website:  www.openfoam.com                      |
|    \\/     M anipulation  |                                                 |
\*---------------------------------------------------------------------------*/
FoamFile
{
    version     2.0;
    format      ascii;
    class       volVectorField;
    location    "250";
    object      U;
}
// * * * * * * * * * * * * * * * * * * * * * * * * * * * * * * * * * * * * * //

dimensions      [0 1 -1 0 0 0 0];


internalField   nonuniform List<vector> 
14212
(
(-4.2215e-08 -6.60031e-06 0.0918406)
(-1.157e-06 -6.13431e-06 0.0826616)
(1.89612e-06 -2.74764e-06 0.0719607)
(-6.33196e-06 -1.20901e-06 0.0826623)
(-2.19466e-07 6.02102e-07 0.107737)
(9.75067e-06 -3.14111e-06 0.0934882)
(-1.93863e-06 -2.78542e-06 0.0719597)
(-2.85459e-06 -1.97083e-06 0.0719595)
(-3.45807e-05 -3.4256e-05 0.104693)
(-3.56971e-06 -3.62284e-06 0.0879953)
(-3.39818e-06 -3.54576e-06 0.0879939)
(3.78591e-08 -6.61637e-06 0.0918407)
(1.16504e-06 -6.22005e-06 0.0826625)
(1.18599e-08 -1.17272e-05 0.0990262)
(1.01612e-06 5.12162e-07 0.107735)
(-3.08541e-06 -9.84192e-06 0.0934876)
(1.18568e-07 8.63109e-07 0.109922)
(-5.08896e-09 -1.17413e-05 0.0990264)
(-6.74416e-07 1.71438e-07 0.107734)
(3.11281e-06 -9.66011e-06 0.0934879)
(7.00327e-08 7.82139e-07 0.109923)
(3.44287e-05 -3.45264e-05 0.104693)
(3.48204e-06 -3.52156e-06 0.0879948)
(3.62096e-06 -3.52811e-06 0.0879947)
(2.88102e-06 -1.8982e-06 0.0719588)
(2.78381e-07 5.89642e-07 0.107735)
(-9.39401e-06 -3.23331e-06 0.0934882)
(6.26553e-06 -1.13423e-06 0.082662)
(-7.75736e-07 3.33545e-06 0.0772552)
(-8.37515e-08 5.63362e-06 0.0918121)
(3.01122e-08 -3.49013e-06 0.0790626)
(-1.35621e-07 -6.62139e-06 0.0903513)
(-2.2121e-07 3.14862e-06 0.0790388)
(-7.60005e-08 5.7573e-06 0.0903182)
(5.00417e-07 -3.54726e-06 0.0772838)
(-9.89296e-07 2.89608e-06 0.0687782)
(-5.98603e-07 -5.57525e-06 0.0862649)
(5.89007e-07 6.37775e-06 0.0826258)
(-5.55891e-08 5.20508e-06 0.0862263)
(4.51572e-07 -2.87369e-06 0.0688186)
(-1.82339e-06 2.78625e-06 0.0719219)
(6.22877e-06 5.3767e-07 0.0826264)
(1.86698e-06 2.8933e-06 0.0719243)
(2.83157e-06 1.80913e-06 0.0719242)
(2.46426e-06 2.59952e-06 0.0839938)
(-1.82908e-06 -1.53322e-06 0.0686964)
(-1.35365e-06 -1.80648e-06 0.0686952)
(1.77995e-06 1.40876e-06 0.068665)
(1.519e-06 1.85894e-06 0.0686646)
(-2.58666e-06 -2.60355e-06 0.0840207)
(3.10918e-06 7.13549e-06 0.0920989)
(-1.96251e-06 -3.24658e-06 0.081982)
(3.44686e-06 3.37711e-06 0.0879636)
(-6.13391e-06 -1.12185e-05 0.0967597)
(1.76853e-06 3.12425e-06 0.0819515)
(-3.88903e-06 -7.71819e-06 0.0921301)
(6.039e-06 1.00922e-05 0.0967241)
(7.09771e-06 3.53947e-06 0.0920959)
(3.65284e-06 3.44594e-06 0.0879628)
(-3.17212e-06 -1.89124e-06 0.081979)
(-1.05985e-05 -5.86052e-06 0.0967549)
(3.30324e-06 1.82781e-06 0.0819496)
(-7.66397e-06 -3.40218e-06 0.0921252)
(1.06683e-05 6.30094e-06 0.0967208)
(7.57925e-07 3.33608e-06 0.0772552)
(7.98903e-08 5.62158e-06 0.0918123)
(-4.38605e-08 -3.49076e-06 0.0790627)
(1.20481e-07 -6.65552e-06 0.0903513)
(1.99992e-07 3.14898e-06 0.0790389)
(6.28043e-08 5.72764e-06 0.0903189)
(-5.11043e-07 -3.53748e-06 0.0772835)
(9.9208e-07 2.90536e-06 0.0687802)
(6.12147e-07 -5.62082e-06 0.0862654)
(-5.65473e-07 6.23971e-06 0.0826252)
(7.88026e-08 5.16847e-06 0.0862275)
(-4.43922e-07 -2.85622e-06 0.0688203)
(1.85592e-06 -1.41726e-06 0.0686929)
(1.53464e-06 -1.76324e-06 0.068697)
(2.74654e-06 -2.61235e-06 0.0840208)
(-3.42043e-06 7.11695e-06 0.0920937)
(1.87882e-06 -3.21464e-06 0.0819786)
(-3.47661e-06 3.46107e-06 0.087961)
(6.00995e-06 -1.09259e-05 0.0967563)
(-1.81838e-06 3.14417e-06 0.081947)
(-6.19273e-06 1.03934e-05 0.09672)
(3.64195e-06 -7.63786e-06 0.0921248)
(3.28435e-06 -1.88681e-06 0.0819814)
(1.09777e-05 -6.10764e-06 0.0967591)
(7.71244e-06 -3.73421e-06 0.0921301)
(2.32052e-07 -5.15574e-08 0.112009)
(6.37712e-07 1.03626e-06 0.113905)
(1.50276e-07 -1.42536e-07 0.112009)
(-4.71592e-07 1.02402e-06 0.113905)
(4.03227e-05 -3.08911e-06 0.100039)
(9.01099e-06 9.91615e-06 0.0979907)
(3.24213e-05 3.28224e-05 0.104592)
(-3.45464e-05 -1.11848e-05 0.101942)
(-1.15229e-05 -3.46585e-05 0.101938)
(-1.083e-05 -9.92088e-06 0.098033)
(3.42321e-05 1.07567e-05 0.101885)
(1.03901e-05 3.41328e-05 0.101883)
(4.35259e-07 3.90305e-05 0.103295)
(-1.62909e-08 1.05676e-05 0.0989809)
(-1.23197e-07 -1.21751e-05 0.0980708)
(2.92348e-07 -3.90804e-05 0.104013)
(1.25038e-07 1.08542e-05 0.0980178)
(5.1853e-08 3.78901e-05 0.103932)
(1.25839e-07 -4.05343e-05 0.103395)
(1.89959e-06 4.1246e-05 0.101769)
(-1.07539e-06 -1.18557e-05 0.0961081)
(2.85691e-06 9.43614e-06 0.0934444)
(-2.82333e-06 -4.03433e-05 0.100038)
(6.87586e-07 1.08513e-05 0.0960532)
(3.6443e-06 4.02247e-05 0.0999872)
(-1.03698e-06 -4.24085e-05 0.101861)
(-2.74205e-07 3.90231e-05 0.103295)
(4.58644e-08 1.05688e-05 0.0989811)
(1.04104e-07 -1.21474e-05 0.0980711)
(-1.20145e-07 -3.90926e-05 0.104013)
(-1.24182e-07 1.09138e-05 0.0980185)
(1.82199e-07 3.78726e-05 0.103932)
(-2.73356e-08 -4.05435e-05 0.103396)
(-1.59348e-06 4.12261e-05 0.101769)
(1.02012e-06 -1.18737e-05 0.0961085)
(-2.80199e-06 9.68222e-06 0.0934441)
(3.00116e-06 -4.0306e-05 0.100038)
(-7.078e-07 1.0893e-05 0.0960542)
(1.23229e-06 -4.24764e-05 0.101861)
(-3.40174e-06 4.03108e-05 0.0999862)
(-9.55569e-06 9.37921e-06 0.0979911)
(-3.25981e-05 3.25096e-05 0.104592)
(3.46627e-05 -1.1475e-05 0.101939)
(1.14237e-05 -3.4774e-05 0.101942)
(-1.05749e-05 3.40195e-05 0.101885)
(-3.40986e-05 1.04808e-05 0.101882)
(1.03928e-05 -1.04901e-05 0.0980336)
(9.9356e-06 2.72356e-06 0.0934448)
(-4.03008e-05 -3.1268e-06 0.100038)
(4.03042e-05 3.31901e-06 0.0999875)
(-2.35131e-06 2.46329e-06 0.0839944)
(-1.76569e-06 1.48839e-06 0.0686616)
(-1.38471e-06 1.87134e-06 0.0686661)
(-7.11588e-06 3.30692e-06 0.0921007)
(-3.46243e-06 3.49888e-06 0.0879641)
(-1.03582e-05 6.0868e-06 0.0967245)
(-3.21042e-06 1.87722e-06 0.0819525)
(-2.80012e-06 1.91519e-06 0.071924)
(-6.27597e-06 6.3839e-07 0.082626)
(-9.61835e-06 2.82277e-06 0.0934455)
(-4.03115e-05 3.35674e-06 0.0999887)
(-0.000102359 5.43772e-06 0.0984695)
(-4.07166e-06 -2.09728e-06 0.110432)
(-7.59343e-05 4.8913e-06 0.0909781)
(-0.000102482 -4.57133e-06 0.0984695)
(-1.10729e-05 -1.48979e-06 0.107906)
(-3.91965e-06 3.23452e-06 0.110431)
(-8.94328e-05 -5.43638e-05 0.092658)
(-7.60287e-05 -4.67635e-06 0.0909783)
(-4.83541e-05 -1.51161e-05 0.0815336)
(-9.79969e-07 -1.13566e-05 0.107908)
(-5.41606e-05 -8.92972e-05 0.0926583)
(-1.50659e-05 -4.80992e-05 0.0815343)
(-6.22771e-05 -6.2695e-05 0.104436)
(-4.58687e-05 -4.26039e-05 0.0870112)
(-4.25682e-05 -4.57657e-05 0.0870105)
(-1.91002e-05 -1.58628e-05 0.070726)
(-1.58901e-05 -1.89819e-05 0.070727)
(-2.5899e-05 1.30733e-05 0.0760785)
(-6.45549e-05 1.75385e-05 0.0894238)
(-4.28552e-05 3.01718e-06 0.0779058)
(-5.37423e-05 4.32358e-06 0.090989)
(-3.76078e-05 1.35556e-05 0.0761018)
(-4.32724e-05 1.55919e-05 0.0894366)
(-3.04543e-05 2.81345e-06 0.0778775)
(-2.58911e-05 -1.31662e-05 0.0760758)
(-4.29014e-05 -3.09477e-06 0.0779058)
(-6.47321e-05 -1.7478e-05 0.0894249)
(-5.38112e-05 -4.1098e-06 0.090989)
(-3.77428e-05 -1.37077e-05 0.0761021)
(-3.04735e-05 -2.84454e-06 0.0778771)
(-4.33417e-05 -1.55217e-05 0.0894357)
(-1.08705e-05 -7.57869e-06 0.0675687)
(-4.02577e-05 -1.85357e-05 0.085211)
(-3.07405e-05 -1.15131e-05 0.0815093)
(-1.86474e-05 -7.06305e-06 0.0675997)
(-2.26922e-05 -1.54604e-05 0.0852108)
(-1.16584e-05 -3.04994e-05 0.0815102)
(-4.14201e-06 -4.10407e-06 0.0830603)
(-1.60161e-05 -1.51827e-05 0.0676447)
(-1.53009e-05 -1.5958e-05 0.0676405)
(-1.30807e-05 -1.3101e-05 0.0830706)
(-1.10555e-05 -1.00007e-05 0.0676061)
(-1.00533e-05 -1.09478e-05 0.0676001)
(-3.77271e-05 -4.24367e-05 0.09133)
(-5.03108e-05 -3.59195e-05 0.0809073)
(-8.49273e-05 -4.93664e-05 0.0960945)
(-3.14657e-05 -3.07899e-05 0.0870043)
(-6.01733e-05 -5.52482e-05 0.0913115)
(-5.49229e-05 -3.16239e-05 0.0961504)
(-3.79838e-05 -2.85366e-05 0.0808682)
(-4.23377e-05 -3.77601e-05 0.0913231)
(-3.60083e-05 -5.00853e-05 0.0809035)
(-4.91173e-05 -8.51304e-05 0.0960919)
(-3.0763e-05 -3.13696e-05 0.0870026)
(-5.50921e-05 -6.02613e-05 0.0913055)
(-3.14073e-05 -5.51091e-05 0.0961469)
(-2.86066e-05 -3.77319e-05 0.0808632)
(-1.07787e-05 -1.04592e-05 0.0706909)
(-1.05707e-05 -1.06831e-05 0.0706917)
(1.61532e-05 1.58282e-05 0.113039)
(-6.07211e-06 9.14858e-06 0.103194)
(-9.91157e-05 1.67343e-05 0.0974431)
(-0.000100885 2.44118e-06 0.103716)
(-7.03222e-05 5.01248e-06 0.0985449)
(-0.000102635 9.69388e-06 0.10301)
(-6.62427e-05 1.51867e-05 0.0975249)
(-6.41864e-06 2.86449e-06 0.103872)
(-6.10337e-06 -7.85662e-06 0.103193)
(-0.000100974 -1.31098e-06 0.103715)
(-9.94298e-05 -1.6031e-05 0.0974434)
(-7.04282e-05 -4.12317e-06 0.0985449)
(-0.000102726 -8.55429e-06 0.103009)
(-6.47812e-06 -1.54078e-06 0.103872)
(-6.64973e-05 -1.4473e-05 0.0975248)
(-1.27935e-05 -1.681e-05 0.101559)
(-9.76073e-05 -3.54146e-05 0.0953851)
(-0.000121855 -3.43147e-05 0.0994957)
(-5.99552e-05 -4.34855e-05 0.0926927)
(-0.000113484 -2.09314e-05 0.101397)
(-6.49749e-05 -3.06341e-05 0.0954562)
(-2.59305e-05 -2.44019e-05 0.0995952)
(-3.40546e-05 -0.000121875 0.0994953)
(-4.3309e-05 -5.98344e-05 0.0926928)
(-2.4125e-05 -2.60047e-05 0.0995949)
(-3.36015e-05 -3.37985e-05 0.0974919)
(1.86809e-05 1.82289e-05 0.104625)
(-6.0041e-05 -7.25086e-05 0.101516)
(-7.20469e-05 -6.03973e-05 0.101513)
(-6.02121e-05 -6.04207e-05 0.0974198)
(-3.2275e-05 8.30467e-06 0.101634)
(8.68996e-06 -3.26511e-05 0.101631)
(-1.095e-05 7.5027e-06 0.067571)
(-4.0099e-05 1.83995e-05 0.0852091)
(-1.85423e-05 6.87208e-06 0.0675971)
(-2.26576e-05 1.5354e-05 0.0852119)
(-1.23421e-05 1.79419e-05 0.101561)
(-9.70002e-05 3.57836e-05 0.0953848)
(-0.00011299 2.19697e-05 0.101399)
(-6.449e-05 3.10099e-05 0.095456)
(5.61848e-06 -5.7295e-07 0.0862661)
(2.82362e-06 5.20343e-07 0.0688204)
(1.18924e-05 -1.0706e-06 0.0961089)
(4.24516e-05 -1.30872e-06 0.101862)
(-6.50807e-06 3.35592e-08 0.091841)
(-1.13057e-05 -5.24562e-08 0.0990269)
(-3.39436e-05 3.39186e-05 0.104694)
(1.9844e-07 -1.76807e-06 0.109924)
(-1.37588e-06 -1.15455e-06 0.107737)
(-1.12726e-08 6.54951e-06 0.0918407)
(5.41802e-08 6.5825e-06 0.0918404)
(3.38763e-05 3.38252e-05 0.104693)
(2.82719e-06 2.03001e-06 0.0719587)
(5.63817e-07 3.72639e-07 0.11201)
(-5.82471e-07 8.97126e-07 0.107738)
(1.04092e-07 -1.30253e-06 0.109923)
(-3.29403e-05 -3.29911e-05 0.104592)
(4.42535e-07 2.1979e-06 0.109925)
(-2.30846e-07 2.1506e-06 0.109925)
(3.40527e-05 -3.39457e-05 0.104694)
(-1.01111e-06 1.22821e-06 0.107738)
(-1.74916e-06 -4.86124e-07 0.109924)
(6.21541e-06 1.30439e-06 0.0826612)
(3.60095e-06 3.40021e-06 0.0879633)
(1.31831e-06 8.51616e-07 0.107736)
(-5.32864e-08 1.27607e-06 0.109923)
(-3.27951e-05 3.28174e-05 0.104593)
(9.83411e-06 2.76216e-06 0.0934452)
(5.61769e-06 9.4324e-08 0.0918114)
(1.07663e-05 1.13953e-08 0.0989814)
(-1.26248e-06 -3.9671e-07 0.109923)
(-6.30825e-06 -4.85593e-07 0.0826261)
(3.28596e-05 -3.29152e-05 0.104592)
(-1.08446e-06 -7.25325e-07 0.107736)
(-7.90372e-08 -5.6117e-06 0.0918118)
(9.07722e-08 -5.61863e-06 0.0918125)
(-2.85686e-06 -1.81302e-06 0.071924)
(8.3659e-07 1.97165e-06 0.113903)
(-7.44528e-07 2.01162e-06 0.113902)
(-1.77788e-06 -9.14641e-07 0.113903)
(8.48209e-07 -1.94997e-06 0.113904)
(-6.17251e-06 -1.2331e-06 0.0826618)
(-6.53778e-06 -2.73114e-08 0.0918406)
(1.58638e-06 1.64174e-06 0.10774)
(-9.50487e-06 -3.1663e-06 0.0934891)
(-1.13163e-05 3.66356e-08 0.0990269)
(1.19524e-06 1.43311e-06 0.107738)
(1.7845e-06 2.73187e-07 0.109924)
(2.17884e-06 2.72857e-07 0.109925)
(-6.19252e-06 1.2373e-06 0.0826616)
(1.07181e-06 -1.37752e-06 0.107735)
(1.79775e-06 -2.65323e-07 0.109924)
(-9.53384e-06 3.13841e-06 0.0934877)
(1.43805e-06 -1.55004e-06 0.107736)
(2.16402e-06 -2.93717e-07 0.109924)
(-2.78094e-06 1.94156e-06 0.0719589)
(-3.51328e-06 3.53585e-06 0.0879931)
(-3.56448e-06 3.54384e-06 0.0879947)
(-1.95717e-06 2.84739e-06 0.0719583)
(1.30901e-06 -1.03904e-06 0.107738)
(2.52576e-08 1.13246e-05 0.0990268)
(-3.16677e-06 9.5685e-06 0.0934881)
(1.50163e-06 -1.38519e-06 0.107738)
(2.46163e-07 -2.14099e-06 0.109924)
(-3.69804e-07 -1.74967e-06 0.109924)
(-5.38908e-08 1.13452e-05 0.0990269)
(3.24812e-06 9.57391e-06 0.0934882)
(-1.5353e-06 -1.48807e-06 0.107738)
(-3.89352e-07 -2.12204e-06 0.109924)
(-2.75086e-06 -1.00912e-05 0.0934457)
(-1.23022e-06 6.24301e-06 0.0826613)
(1.28701e-06 6.28425e-06 0.082662)
(-3.85564e-07 -6.32591e-06 0.0826263)
(3.51256e-06 3.63924e-06 0.0879948)
(3.63666e-06 3.52896e-06 0.0879932)
(-3.35259e-05 -3.34464e-05 0.104595)
(-3.57808e-06 -3.37842e-06 0.0879628)
(-3.41841e-06 -3.63561e-06 0.0879621)
(-2.9513e-06 -1.73827e-06 0.0719226)
(2.01119e-06 2.82452e-06 0.071959)
(-1.73306e-06 -2.86426e-06 0.0719233)
(-4.9699e-09 -6.238e-06 0.0918407)
(5.42537e-07 6.29155e-06 0.0826251)
(-7.79442e-08 5.65714e-06 0.0918118)
(-1.86241e-06 2.75691e-06 0.0719214)
(6.30776e-06 5.24281e-07 0.082626)
(5.63358e-06 -6.40375e-08 0.0918118)
(-6.09715e-07 1.55403e-06 0.113904)
(-1.46501e-06 -8.70223e-07 0.113904)
(7.42823e-07 -1.65157e-06 0.113905)
(-1.22278e-06 -1.18244e-07 0.109924)
(1.17626e-05 5.39785e-09 0.0990263)
(-9.73626e-06 2.83522e-06 0.0934455)
(-1.07472e-05 -7.6492e-08 0.098982)
(-7.64582e-07 -1.99517e-07 0.109923)
(2.83527e-06 -1.81947e-06 0.0719228)
(1.02128e-06 -6.42669e-07 0.107737)
(-3.37594e-08 -1.07448e-05 0.0989815)
(2.78822e-06 -9.72485e-06 0.0934448)
(-3.54306e-06 -3.40339e-06 0.087963)
(-3.40981e-06 -3.53366e-06 0.0879622)
(3.43447e-05 3.43857e-05 0.104691)
(3.54026e-06 3.54602e-06 0.0879954)
(3.55527e-06 3.52563e-06 0.0879938)
(-1.91804e-06 -2.81049e-06 0.0719587)
(1.89038e-06 2.83475e-06 0.0719224)
(-2.80306e-06 -1.9915e-06 0.0719591)
(3.34361e-05 3.33993e-05 0.104594)
(-3.50713e-06 -3.61427e-06 0.0879956)
(-3.38511e-05 -3.39688e-05 0.104695)
(-3.49385e-06 -3.56985e-06 0.0879933)
(3.58843e-06 3.58586e-06 0.0879613)
(1.30432e-08 -6.23032e-06 0.0918408)
(1.11791e-07 -1.06287e-05 0.0990277)
(-4.22295e-08 -1.06088e-05 0.099028)
(-4.52008e-08 5.86999e-06 0.0918118)
(-1.23072e-06 -6.25226e-06 0.0826607)
(4.93859e-07 6.26972e-06 0.0826244)
(-2.87181e-08 -6.53181e-06 0.0918401)
(6.14624e-08 5.87814e-06 0.091812)
(1.16278e-06 -6.24316e-06 0.0826615)
(-5.19503e-07 6.2916e-06 0.0826243)
(4.11527e-08 -6.53798e-06 0.0918403)
(1.55735e-06 1.48322e-06 0.107737)
(1.41883e-06 1.14602e-06 0.107735)
(4.2564e-07 1.8298e-06 0.109924)
(6.75652e-08 1.14333e-05 0.0989822)
(-3.12453e-06 -9.5952e-06 0.0934868)
(2.85978e-06 1.0089e-05 0.0934438)
(8.1135e-08 -1.12843e-05 0.0990263)
(-1.6038e-07 1.78983e-06 0.109924)
(-1.14274e-06 1.02971e-06 0.107736)
(-1.30444e-06 1.40444e-06 0.107736)
(1.61917e-08 1.14571e-05 0.0989824)
(3.08324e-06 -9.43098e-06 0.0934877)
(-2.86193e-06 1.03307e-05 0.0934445)
(-5.85e-09 -1.12803e-05 0.0990266)
(1.82138e-06 -2.80454e-06 0.0719598)
(-1.86519e-06 2.74491e-06 0.0719206)
(-3.35651e-05 3.33064e-05 0.104594)
(3.40674e-06 -3.47747e-06 0.0879943)
(3.50403e-06 -3.49606e-06 0.0879942)
(-3.58717e-06 3.70457e-06 0.0879609)
(-3.57696e-06 3.57308e-06 0.0879638)
(2.85243e-06 -1.89914e-06 0.0719577)
(-2.90008e-06 1.9312e-06 0.0719226)
(-1.70793e-06 -1.30757e-08 0.109924)
(-1.44371e-06 1.51483e-06 0.107739)
(-2.08135e-06 1.02557e-07 0.109925)
(-1.13426e-05 -5.58415e-08 0.0989829)
(9.52011e-06 -3.10633e-06 0.093488)
(-9.93421e-06 2.94804e-06 0.0934459)
(1.13286e-05 -2.40474e-08 0.0990268)
(-5.87799e-06 -7.56641e-08 0.0918124)
(6.16637e-06 -1.16671e-06 0.082661)
(-6.47215e-06 5.99771e-07 0.0826251)
(6.55799e-06 -1.0668e-08 0.0918401)
(-1.12924e-06 -1.59763e-06 0.107736)
(9.5745e-06 3.21079e-06 0.093488)
(-2.10463e-06 -4.76231e-07 0.109925)
(-1.51005e-06 -1.7672e-06 0.107737)
(-9.87007e-06 -2.8177e-06 0.0934455)
(-1.13212e-05 -8.71161e-08 0.0989829)
(1.13439e-05 -1.11539e-07 0.0990266)
(-6.4489e-06 -4.02607e-07 0.0826254)
(-5.8632e-06 5.18251e-08 0.0918126)
(6.56707e-06 4.71144e-08 0.0918399)
(1.86704e-06 2.85761e-06 0.0719236)
(2.84195e-06 1.79322e-06 0.0719237)
(3.29047e-05 3.29441e-05 0.104592)
(3.48196e-06 3.41736e-06 0.0879616)
(-5.67493e-07 6.22666e-06 0.0826247)
(8.01819e-08 5.64762e-06 0.091812)
(2.61866e-07 1.35938e-06 0.109923)
(2.82778e-06 9.6068e-06 0.0934435)
(1.85944e-08 1.07901e-05 0.0989811)
(-8.96454e-07 5.69895e-07 0.107735)
(-2.80989e-06 9.79326e-06 0.093444)
(4.16585e-08 1.07989e-05 0.0989813)
(-3.51283e-06 3.48293e-06 0.0879608)
(-3.5203e-06 3.51587e-06 0.0879639)
(-2.80905e-06 1.91044e-06 0.0719234)
(1.07669e-05 -2.18866e-08 0.0989815)
(7.35461e-07 1.09213e-06 0.107738)
(1.29767e-06 1.89977e-07 0.109924)
(6.30456e-06 -5.32473e-07 0.0826254)
(6.54635e-07 -1.10805e-06 0.107735)
(1.31198e-06 -1.77347e-07 0.109923)
(9.74382e-06 -2.7955e-06 0.0934438)
(6.66684e-06 1.04479e-08 0.0918405)
(-6.32817e-06 6.16883e-07 0.0826255)
(-5.61931e-06 -6.74058e-08 0.0918125)
(-7.17943e-07 -1.26845e-06 0.107735)
(-9.7399e-06 -2.73554e-06 0.0934446)
(1.17466e-05 -2.64319e-09 0.0990262)
(-3.33562e-07 -9.16768e-07 0.107734)
(-1.07453e-05 -4.10329e-08 0.0989819)
(-7.98661e-07 -2.34025e-07 0.109922)
(9.68077e-06 3.18668e-06 0.0934881)
(6.65546e-06 8.87487e-08 0.0918404)
(-5.62394e-06 1.01195e-07 0.0918126)
(6.25962e-06 1.17557e-06 0.0826623)
(3.49657e-06 -3.44278e-06 0.0879613)
(3.45978e-06 -3.51489e-06 0.0879633)
(1.85979e-06 -2.85156e-06 0.0719235)
(-2.49514e-07 -1.29114e-06 0.109923)
(5.60025e-09 -1.07392e-05 0.0989817)
(-2.71193e-06 -9.74957e-06 0.0934451)
(-8.07354e-07 -3.13579e-07 0.107735)
(3.19645e-06 9.674e-06 0.0934883)
(5.6385e-07 -6.27978e-06 0.0826254)
(-5.00678e-07 -6.26524e-06 0.0826269)
(1.19482e-06 6.26888e-06 0.082663)
(2.85468e-06 1.93495e-06 0.0719599)
(-1.82018e-06 -2.86923e-06 0.0719246)
(1.96088e-06 2.82975e-06 0.0719601)
(3.32049e-06 7.95908e-07 0.0772524)
(-3.40466e-06 -2.785e-08 0.0790626)
(-6.56091e-06 1.25681e-07 0.0903516)
(5.6936e-06 8.61822e-08 0.0918113)
(3.12199e-06 2.31833e-07 0.0790362)
(5.79586e-06 7.30453e-08 0.0903173)
(-3.47291e-06 -5.09067e-07 0.0772834)
(-7.76447e-07 -3.26866e-06 0.0772517)
(-9.57423e-08 6.55915e-06 0.090352)
(4.92594e-08 3.43772e-06 0.0790621)
(-7.49157e-08 -5.67949e-06 0.0918117)
(-7.41658e-08 -5.74751e-06 0.0903169)
(-1.98645e-07 -3.14527e-06 0.0790369)
(5.32499e-07 3.45015e-06 0.0772843)
(7.92937e-07 -3.35792e-06 0.0772547)
(1.43961e-07 6.6259e-06 0.0903511)
(-3.84398e-08 3.46619e-06 0.0790617)
(7.90139e-08 -5.68659e-06 0.0918124)
(9.3682e-08 -5.77146e-06 0.0903189)
(2.14074e-07 -3.18358e-06 0.0790382)
(-4.92431e-07 3.51524e-06 0.0772828)
(-2.89875e-06 -1.74829e-06 0.0719233)
(-2.9143e-06 1.02832e-06 0.0687794)
(-6.37263e-06 -4.15795e-07 0.0826256)
(5.61629e-06 6.77331e-07 0.0862648)
(-5.18876e-06 1.40883e-07 0.0862272)
(2.85771e-06 -4.21955e-07 0.0688194)
(-7.60018e-06 -3.51736e-06 0.0921269)
(1.04783e-05 6.33504e-06 0.0967239)
(3.24252e-06 1.72731e-06 0.0819504)
(-3.41653e-06 -3.58113e-06 0.0879953)
(7.15269e-06 3.4095e-06 0.0921011)
(-3.13809e-06 -1.92649e-06 0.0819801)
(-1.06647e-05 -5.80042e-06 0.0967607)
(-3.49468e-06 -5.0444e-07 0.0772839)
(3.0884e-06 2.31109e-07 0.0790367)
(5.73706e-06 8.87041e-08 0.0903174)
(-6.55591e-06 4.01144e-08 0.0918411)
(3.29044e-06 8.02096e-07 0.0772529)
(-3.43602e-06 -2.68396e-08 0.079063)
(-6.59306e-06 1.351e-07 0.0903518)
(2.87186e-06 -4.2899e-07 0.0688201)
(-5.17716e-06 1.39993e-07 0.0862275)
(6.25805e-06 1.22452e-06 0.0826617)
(-2.8944e-06 1.03028e-06 0.0687801)
(5.61897e-06 6.58287e-07 0.0862651)
(5.33804e-07 3.47363e-06 0.0772848)
(-8.75605e-08 -5.69144e-06 0.090317)
(-2.01098e-07 -3.11251e-06 0.0790375)
(-1.64825e-08 6.58461e-06 0.0918408)
(-7.77933e-07 -3.24057e-06 0.0772523)
(-1.02481e-07 6.58538e-06 0.0903522)
(4.79141e-08 3.46459e-06 0.0790625)
(-4.98072e-07 3.53286e-06 0.0772833)
(1.0417e-07 -5.72541e-06 0.090319)
(2.14658e-07 -3.1481e-06 0.0790386)
(6.32986e-08 6.61013e-06 0.0918405)
(7.89473e-07 -3.33053e-06 0.0772552)
(1.51819e-07 6.63689e-06 0.0903513)
(-3.5914e-08 3.49052e-06 0.0790622)
(2.85404e-06 1.96589e-06 0.0719594)
(2.88583e-06 -1.01667e-06 0.0687771)
(6.37004e-06 4.96778e-07 0.0826255)
(-5.60678e-06 -6.48459e-07 0.0862646)
(5.1895e-06 -1.1577e-07 0.0862262)
(-2.84716e-06 4.45215e-07 0.0688179)
(3.33237e-06 -7.57981e-07 0.0772543)
(-6.59661e-06 -1.22183e-07 0.0903511)
(-3.45192e-06 6.58219e-08 0.079062)
(5.71272e-06 -5.11898e-08 0.0918117)
(5.80444e-06 -6.37389e-08 0.0903182)
(3.16192e-06 -1.8598e-07 0.0790373)
(-3.53401e-06 5.20055e-07 0.0772831)
(2.91585e-06 9.99274e-07 0.0687789)
(-5.60314e-06 6.48253e-07 0.0862651)
(6.33098e-06 -4.98026e-07 0.0826249)
(5.2002e-06 9.83924e-08 0.0862263)
(-2.85763e-06 -4.56783e-07 0.0688198)
(2.82467e-06 -1.80838e-06 0.0719221)
(7.21811e-06 -3.48e-06 0.0920939)
(-1.07654e-05 5.77124e-06 0.0967558)
(-3.28426e-06 2.02436e-06 0.0819763)
(3.52691e-06 -3.45615e-06 0.087961)
(1.06293e-05 -6.48664e-06 0.0967209)
(3.14231e-06 -1.70179e-06 0.081947)
(-7.5888e-06 3.60776e-06 0.0921228)
(2.51608e-06 -2.52489e-06 0.0839942)
(-1.44713e-06 1.8768e-06 0.0686918)
(-1.87908e-06 1.45666e-06 0.0686982)
(1.44483e-06 -1.74142e-06 0.0686612)
(1.74231e-06 -1.43768e-06 0.0686672)
(-2.57735e-06 2.55991e-06 0.0840197)
(3.44504e-06 -7.22864e-06 0.0921004)
(-5.8092e-06 1.07631e-05 0.096759)
(-2.02479e-06 3.29488e-06 0.0819821)
(3.46838e-06 -3.55223e-06 0.0879632)
(1.70049e-06 -3.14998e-06 0.0819522)
(6.43907e-06 -1.06132e-05 0.0967238)
(-3.62295e-06 7.56557e-06 0.0921298)
(1.84962e-06 -2.85285e-06 0.0719229)
(-1.02308e-06 -2.82221e-06 0.0687742)
(-6.08101e-07 5.58763e-06 0.0862655)
(5.29804e-07 -6.31273e-06 0.082625)
(-9.75466e-08 -5.14525e-06 0.0862248)
(5.20747e-07 2.79702e-06 0.0688193)
(1.02804e-06 -2.91646e-06 0.0687801)
(6.69796e-07 5.6416e-06 0.0862654)
(-4.312e-07 -6.27361e-06 0.0826265)
(1.57414e-07 -5.1602e-06 0.0862278)
(-4.40929e-07 2.85825e-06 0.06882)
(-4.23024e-07 2.83149e-06 0.0688195)
(1.35339e-06 6.25882e-06 0.0826616)
(1.66008e-07 -5.20751e-06 0.0862278)
(1.04048e-06 -2.94671e-06 0.0687797)
(6.95e-07 5.62156e-06 0.0862653)
(-7.17306e-06 -3.38281e-06 0.0920993)
(1.08151e-05 5.77286e-06 0.0967594)
(3.27441e-06 2.05259e-06 0.0819826)
(-3.58644e-06 -3.35778e-06 0.0879628)
(-3.12264e-06 -1.59544e-06 0.0819508)
(7.58056e-06 3.62843e-06 0.0921305)
(-1.05492e-05 -6.44274e-06 0.096724)
(-2.48935e-06 -2.60916e-06 0.0839928)
(1.46618e-06 1.8508e-06 0.068699)
(1.94734e-06 1.43753e-06 0.0686932)
(-1.37476e-06 -1.6793e-06 0.0686647)
(-1.66131e-06 -1.50658e-06 0.0686612)
(2.55941e-06 2.46203e-06 0.0840212)
(-3.42994e-06 -7.21385e-06 0.0920936)
(5.77447e-06 1.07249e-05 0.0967558)
(2.09278e-06 3.32952e-06 0.0819777)
(-3.38358e-06 -3.56228e-06 0.087962)
(-6.47438e-06 -1.06238e-05 0.096721)
(-1.60411e-06 -3.11823e-06 0.0819474)
(3.59701e-06 7.55175e-06 0.0921239)
(7.52929e-06 3.58072e-06 0.0921308)
(3.47154e-06 3.65009e-06 0.0879947)
(-1.07041e-05 -6.53058e-06 0.0967253)
(-3.10821e-06 -1.51338e-06 0.0819503)
(3.27691e-06 2.14965e-06 0.0819821)
(1.06815e-05 5.63939e-06 0.0967603)
(-7.25039e-06 -3.43129e-06 0.0921001)
(2.52714e-06 2.43783e-06 0.0840207)
(-1.35742e-06 -1.6124e-06 0.0686639)
(-1.65838e-06 -1.51621e-06 0.0686605)
(1.49429e-06 1.92098e-06 0.0686979)
(1.97224e-06 1.41157e-06 0.0686926)
(-2.55809e-06 -2.62144e-06 0.083993)
(3.51185e-06 7.51202e-06 0.0921243)
(3.63103e-06 3.49122e-06 0.0879932)
(-6.70853e-06 -1.08359e-05 0.0967219)
(-1.58889e-06 -3.16056e-06 0.0819469)
(5.57617e-06 1.05636e-05 0.0967566)
(2.14609e-06 3.31608e-06 0.0819772)
(-3.59002e-06 -7.26618e-06 0.0920943)
(2.77398e-06 2.07498e-06 0.071958)
(-1.78098e-06 -2.85291e-06 0.0719239)
(2.05826e-06 2.83997e-06 0.0719583)
(-7.28515e-07 3.48138e-06 0.0772534)
(4.71513e-08 -3.29563e-06 0.0790616)
(-4.87915e-08 -6.34668e-06 0.0903511)
(-4.69586e-08 6.06185e-06 0.0918122)
(-1.98239e-07 3.32141e-06 0.0790372)
(-1.12398e-08 6.07599e-06 0.0903181)
(5.4762e-07 -3.36069e-06 0.0772827)
(4.69711e-07 -2.86105e-06 0.068818)
(-6.92761e-08 5.17421e-06 0.0862256)
(-1.18705e-06 -6.19475e-06 0.0826611)
(-9.85512e-07 2.89316e-06 0.0687773)
(-5.96755e-07 -5.58537e-06 0.0862644)
(5.05196e-07 -3.5145e-06 0.0772833)
(-4.20056e-08 -6.57269e-06 0.0918403)
(-2.23988e-07 3.16672e-06 0.0790381)
(-5.90667e-08 5.76947e-06 0.0903178)
(-7.72973e-07 3.36113e-06 0.0772546)
(2.40353e-08 -3.46653e-06 0.0790622)
(-1.17155e-07 -6.59657e-06 0.0903509)
(1.85102e-06 -2.76663e-06 0.0719603)
(-2.86306e-06 4.41378e-07 0.0688181)
(5.16877e-06 -1.11056e-07 0.0862266)
(-6.23962e-06 -1.20985e-06 0.0826621)
(2.89487e-06 -1.01268e-06 0.068778)
(-5.62015e-06 -6.45495e-07 0.0862647)
(-3.55695e-06 5.17178e-07 0.0772834)
(5.74381e-06 -7.94117e-08 0.0903184)
(3.12917e-06 -1.89195e-07 0.0790378)
(-6.5861e-06 -3.83874e-08 0.0918407)
(3.31434e-06 -7.64556e-07 0.0772549)
(-6.63594e-06 -1.35546e-07 0.0903512)
(-3.48299e-06 6.12882e-08 0.0790624)
(-2.78336e-06 1.94572e-06 0.0719592)
(7.61641e-06 3.64476e-06 0.0921306)
(-1.04434e-05 -6.3028e-06 0.0967232)
(-3.13039e-06 -1.69894e-06 0.0819514)
(3.54589e-06 3.58403e-06 0.087995)
(-7.12176e-06 -3.34322e-06 0.0920991)
(1.08919e-05 5.90716e-06 0.0967588)
(3.25329e-06 1.95998e-06 0.0819832)
(2.56454e-06 2.47363e-06 0.0840216)
(-1.37759e-06 -1.72026e-06 0.0686652)
(-1.69895e-06 -1.49092e-06 0.0686616)
(-2.47207e-06 -2.5839e-06 0.083993)
(1.44709e-06 1.80134e-06 0.0686998)
(1.90769e-06 1.44012e-06 0.0686936)
(3.62204e-06 7.58159e-06 0.0921238)
(-6.31473e-06 -1.04759e-05 0.0967205)
(-1.68455e-06 -3.12697e-06 0.0819478)
(3.59181e-06 3.54644e-06 0.0879935)
(-3.38438e-06 -7.17523e-06 0.0920933)
(5.90251e-06 1.08371e-05 0.0967554)
(2.00822e-06 3.301e-06 0.0819781)
(-2.44492e-06 -2.55135e-06 0.0839932)
(1.42767e-06 1.75731e-06 0.0687002)
(1.87147e-06 1.42458e-06 0.0686938)
(-1.37777e-06 -1.74617e-06 0.0686654)
(-1.73512e-06 -1.50299e-06 0.0686619)
(2.59221e-06 2.50104e-06 0.084022)
(-7.09497e-06 -3.33243e-06 0.0920991)
(-3.53034e-06 -3.45542e-06 0.0879633)
(3.2011e-06 1.87831e-06 0.0819837)
(1.09102e-05 6.00712e-06 0.0967587)
(-1.03887e-05 -6.18866e-06 0.0967229)
(-3.16035e-06 -1.78138e-06 0.0819517)
(7.61812e-06 3.6467e-06 0.0921308)
(-3.36687e-06 -7.16011e-06 0.0920934)
(-3.45366e-06 -3.5328e-06 0.0879625)
(1.93289e-06 3.23424e-06 0.0819785)
(6.00401e-06 1.08776e-05 0.0967554)
(-6.20357e-06 -1.03969e-05 0.0967203)
(-1.76366e-06 -3.17611e-06 0.0819482)
(3.64025e-06 7.5826e-06 0.092124)
(1.87849e-06 2.8511e-06 0.0719231)
(-1.90565e-06 -2.81633e-06 0.0719582)
(2.83103e-06 1.77205e-06 0.0719228)
(7.1544e-06 3.35902e-06 0.092101)
(3.55172e-06 3.3859e-06 0.0879632)
(-1.08137e-05 -5.77631e-06 0.0967616)
(-3.19684e-06 -2.03948e-06 0.08198)
(1.05258e-05 6.44166e-06 0.0967252)
(3.19729e-06 1.62763e-06 0.0819501)
(-7.62962e-06 -3.67773e-06 0.0921284)
(3.58189e-06 7.27774e-06 0.0920955)
(-5.77871e-06 -1.07653e-05 0.0967557)
(3.52993e-06 3.55389e-06 0.0879614)
(-1.97563e-06 -3.34018e-06 0.0819794)
(1.70882e-06 3.05818e-06 0.0819496)
(6.56888e-06 1.0669e-05 0.0967189)
(-3.53889e-06 -7.51407e-06 0.0921232)
(-3.38882e-06 -7.4586e-06 0.092124)
(6.75965e-06 1.08755e-05 0.0967197)
(1.72243e-06 3.06353e-06 0.0819494)
(-3.45048e-06 -3.4925e-06 0.0879931)
(3.72391e-06 7.34773e-06 0.0920959)
(-1.99423e-06 -3.33279e-06 0.0819793)
(-5.52208e-06 -1.05229e-05 0.0967558)
(2.38138e-06 2.7156e-06 0.0839968)
(-1.52088e-06 -1.78772e-06 0.0686945)
(-1.9962e-06 -1.41669e-06 0.0686946)
(1.63154e-06 1.52298e-06 0.0686653)
(1.36302e-06 1.83864e-06 0.0686648)
(-2.73021e-06 -2.42288e-06 0.0840172)
(7.25317e-07 3.4765e-06 0.077254)
(-5.75294e-08 -3.29965e-06 0.0790617)
(7.56527e-08 -6.34557e-06 0.0903511)
(4.09512e-08 6.0781e-06 0.0918124)
(1.91375e-07 3.31928e-06 0.0790374)
(2.32258e-08 6.11413e-06 0.090319)
(-5.52642e-07 -3.40658e-06 0.077282)
(5.32787e-07 -3.41963e-06 0.0772827)
(-2.03676e-07 3.26059e-06 0.0790373)
(-8.99145e-09 5.91926e-06 0.0903177)
(-1.06299e-08 -6.41648e-06 0.0918403)
(-7.40183e-07 3.43476e-06 0.0772536)
(3.8296e-08 -3.36714e-06 0.0790617)
(-6.18394e-08 -6.48238e-06 0.0903507)
(-9.78855e-07 2.89627e-06 0.0687765)
(5.11521e-07 6.26763e-06 0.0826247)
(-6.05117e-07 -5.60813e-06 0.0862642)
(4.87598e-07 -2.83001e-06 0.0688178)
(-7.91443e-08 5.15551e-06 0.0862253)
(5.05137e-07 -2.79787e-06 0.0688177)
(-7.8641e-08 5.18256e-06 0.0862251)
(-1.25674e-06 -6.26719e-06 0.0826602)
(-9.79055e-07 2.9071e-06 0.0687759)
(-5.96658e-07 -5.60243e-06 0.086264)
(-7.57598e-07 3.39111e-06 0.077254)
(-5.91756e-08 5.72521e-06 0.0918117)
(2.76076e-08 -3.42554e-06 0.0790619)
(-9.18489e-08 -6.56904e-06 0.0903506)
(5.14029e-07 -3.47131e-06 0.0772829)
(-2.15137e-07 3.20447e-06 0.0790376)
(-2.99315e-08 5.81418e-06 0.0903176)
(-5.37807e-07 -3.45286e-06 0.0772821)
(2.00895e-07 3.26029e-06 0.0790374)
(3.38478e-08 5.94122e-06 0.0903186)
(3.23483e-08 -6.416e-06 0.0918404)
(7.4222e-07 3.42915e-06 0.077254)
(-4.8942e-08 -3.36844e-06 0.0790617)
(8.77586e-08 -6.49694e-06 0.0903507)
(9.83064e-07 2.92836e-06 0.0687793)
(-5.40636e-07 6.23084e-06 0.0826244)
(6.06334e-07 -5.62275e-06 0.0862647)
(9.41629e-08 5.17752e-06 0.0862269)
(-4.73261e-07 -2.84307e-06 0.0688193)
(-4.6685e-07 -2.81926e-06 0.0688189)
(9.84866e-08 5.24042e-06 0.086227)
(1.19004e-06 -6.21728e-06 0.0826613)
(9.87973e-07 2.95184e-06 0.068779)
(6.20377e-07 -5.58749e-06 0.0862646)
(7.49137e-07 3.38967e-06 0.0772542)
(7.74679e-08 5.72532e-06 0.0918118)
(-4.92746e-08 -3.42611e-06 0.079062)
(9.25363e-08 -6.59296e-06 0.0903507)
(2.03674e-07 3.2045e-06 0.0790377)
(4.28173e-08 5.81585e-06 0.0903184)
(-5.35121e-07 -3.48795e-06 0.0772825)
(-1.87941e-06 2.72261e-06 0.0719209)
(1.82006e-06 -2.81871e-06 0.0719595)
(2.58874e-06 -2.53159e-06 0.0840201)
(-1.83899e-06 1.52893e-06 0.0686617)
(-1.43126e-06 1.72732e-06 0.0686649)
(1.80333e-06 -1.37401e-06 0.0686928)
(1.49814e-06 -1.84213e-06 0.0686959)
(-2.56738e-06 2.50341e-06 0.0839937)
(-3.58605e-06 7.2442e-06 0.0920936)
(5.7316e-06 -1.06776e-05 0.0967563)
(-3.55173e-06 3.52966e-06 0.0879607)
(1.86866e-06 -3.2287e-06 0.0819781)
(-6.54141e-06 1.07312e-05 0.0967201)
(-1.82441e-06 3.13772e-06 0.0819466)
(3.52132e-06 -7.53985e-06 0.0921245)