/*--------------------------------*- C++ -*----------------------------------*\
| =========                 |                                                 |
| \\      /  F ield         | OpenFOAM: The Open Source CFD Toolbox           |
|  \\    /   O peration     | Version:  v2006                                 |
|   \\  /    A nd           | Website:  www.openfoam.com                      |
|    \\/     M anipulation  |                                                 |
\*---------------------------------------------------------------------------*/
FoamFile
{
    version     2.0;
    format      ascii;
    class       volScalarField;
    location    "125";
    object      epsilon;
}
// * * * * * * * * * * * * * * * * * * * * * * * * * * * * * * * * * * * * * //

dimensions      [0 2 -3 0 0 0 0];


internalField   nonuniform List<scalar> 
14361
(
3.13291e-07
1.78793e-07
3.04486e-06
1.50845e-06
5.21467e-06
1.82721e-05
8.89428e-06
3.84447e-06
4.14187e-06
9.11521e-06
9.1155e-06
4.14194e-06
4.13562e-06
2.2497e-06
9.11072e-06
5.21447e-06
2.24955e-06
4.13583e-06
9.11102e-06
9.63306e-06
2.16876e-05
2.16875e-05
2.16905e-05
9.6333e-06
2.16904e-05
1.82742e-05
2.21128e-05
7.10109e-06
8.89453e-06
7.10075e-06
2.21086e-05
1.20983e-05
3.84443e-06
4.56593e-06
1.07002e-05
4.56593e-06
1.20977e-05
1.07006e-05
2.06827e-06
1.07876e-06
1.07767e-06
2.06873e-06
9.2585e-07
1.34454e-06
2.37873e-06
3.04438e-06
9.27452e-07
1.34354e-06
2.37815e-06
6.95742e-07
1.50813e-06
5.79351e-07
1.80583e-06
6.97341e-07
5.78366e-07
1.80539e-06
3.13313e-07
5.2662e-07
3.13286e-07
3.13418e-07
5.26616e-07
1.23491e-07
1.23499e-07
5.21421e-06
1.82735e-05
3.0443e-06
1.50809e-06
8.89431e-06
3.84441e-06
3.04438e-06
1.50806e-06
8.89409e-06
3.84433e-06
1.82757e-05
5.21576e-06
5.21448e-06
1.82742e-05
1.78792e-07
3.04439e-06
1.50799e-06
1.78799e-07
3.04482e-06
1.50804e-06
8.89452e-06
3.84439e-06
8.89468e-06
3.84433e-06
5.21436e-06
5.21572e-06
1.82744e-05
1.82761e-05
2.24947e-06
9.11108e-06
4.13539e-06
2.16904e-05
2.1691e-05
9.63319e-06
7.1007e-06
2.21127e-05
4.5659e-06
1.07006e-05
1.20982e-05
7.0992e-06
2.21134e-05
1.07004e-05
4.56568e-06
1.20985e-05
2.25099e-06
9.11552e-06
4.14174e-06
2.24945e-06
9.11103e-06
4.13563e-06
2.16905e-05
2.16904e-05
9.633e-06
2.21086e-05
8.89426e-06
7.10076e-06
7.10109e-06
2.21128e-05
1.20976e-05
3.84446e-06
4.56594e-06
1.07006e-05
4.56591e-06
1.07002e-05
1.20983e-05
2.21103e-05
8.89439e-06
7.0996e-06
7.09968e-06
2.21142e-05
1.20981e-05
3.84438e-06
4.56577e-06
1.07005e-05
4.56568e-06
1.07001e-05
1.20988e-05
2.24939e-06
9.11166e-06
4.13645e-06
4.14104e-06
2.25123e-06
5.21585e-06
9.11491e-06
4.14117e-06
2.25109e-06
9.11389e-06
2.169e-05
2.16903e-05
9.63257e-06
1.82737e-05
1.07811e-06
1.07769e-06
2.06826e-06
2.06878e-06
5.28372e-07
1.07758e-06
1.07829e-06
2.06831e-06
1.07876e-06
1.07926e-06
9.12391e-08
9.12393e-08
1.34348e-06
2.37809e-06
9.25779e-07
1.80534e-06
5.7834e-07
6.95668e-07
1.34362e-06
2.37779e-06
9.25798e-07
5.78354e-07
1.80523e-06
6.95712e-07
9.27421e-07
1.34353e-06
3.04484e-06
2.37801e-06
9.25819e-07
1.34451e-06
2.3786e-06
6.97329e-07
1.50838e-06
5.78364e-07
1.80521e-06
6.95716e-07
5.79337e-07
1.80571e-06
9.27437e-07
1.34397e-06
3.04525e-06
2.37789e-06
2.37841e-06
1.34488e-06
9.25859e-07
6.97338e-07
1.50836e-06
5.78368e-07
1.8052e-06
5.79336e-07
1.80562e-06
6.95727e-07
3.84419e-06
1.50783e-06
3.84411e-06
1.50773e-06
1.20979e-05
3.84435e-06
4.56573e-06
1.07004e-05
4.56567e-06
1.07e-05
1.20985e-05
1.20978e-05
3.84428e-06
1.07001e-05
4.56556e-06
1.06997e-05
4.56548e-06
1.20984e-05
1.23477e-07
1.78777e-07
3.13306e-07
5.27983e-07
5.21492e-06
5.21512e-06
3.13386e-07
1.78777e-07
3.13379e-07
1.78779e-07
5.28147e-07
1.82734e-05
5.21582e-06
1.82721e-05
5.21515e-06
5.26478e-07
3.13372e-07
3.13335e-07
3.13316e-07
3.13339e-07
5.2802e-07
1.82714e-05
5.26511e-07
1.50836e-06
1.50829e-06
3.13296e-07
3.13389e-07
3.84444e-06
3.1337e-07
3.84435e-06
3.13258e-07
5.28024e-07
1.82721e-05
1.78779e-07
8.8942e-06
3.84432e-06
1.82728e-05
1.23447e-07
3.04431e-06
9.27239e-07
3.04481e-06
3.04515e-06
3.13246e-07
3.13386e-07
3.84423e-06
3.13251e-07
1.78777e-07
8.89416e-06
3.84423e-06
5.26354e-07
1.82749e-05
3.84425e-06
8.8936e-06
8.89398e-06
3.84431e-06
1.82725e-05
1.82754e-05
3.84434e-06
8.89365e-06
3.84447e-06
8.89368e-06
1.82722e-05
1.82745e-05
3.84445e-06
8.89413e-06
3.84436e-06
8.89468e-06
9.1233e-08
9.12346e-08
9.12315e-08
1.23484e-07
1.23479e-07
3.13298e-07
1.50841e-06
3.04472e-06
1.50791e-06
3.13257e-07
3.04428e-06
1.78774e-07
1.82735e-05
1.82757e-05
1.78781e-07
3.0448e-06
1.50839e-06
1.50791e-06
3.13279e-07
1.78776e-07
3.04435e-06
5.21518e-06
5.21525e-06
5.26478e-07
5.21443e-06
5.21564e-06
1.82715e-05
1.82739e-05
1.82738e-05
1.8272e-05
5.21529e-06
5.28025e-07
5.26449e-07
5.21493e-06
5.21491e-06
1.8274e-05
1.82719e-05
1.82717e-05
1.82738e-05
5.28139e-07
5.21481e-06
5.26267e-07
5.21506e-06
5.21521e-06
3.84419e-06
3.84427e-06
3.13396e-07
1.7878e-07
1.78759e-07
1.50786e-06
3.04496e-06
3.04455e-06
1.5083e-06
1.78755e-07
1.50782e-06
1.50825e-06
3.84441e-06
8.89397e-06
8.89375e-06
3.84431e-06
3.84435e-06
8.89357e-06
8.89331e-06
3.84423e-06
1.78776e-07
3.13386e-07
1.78795e-07
1.5083e-06
3.04459e-06
3.04505e-06
1.50795e-06
3.13385e-07
3.13331e-07
1.78777e-07
1.50827e-06
3.04452e-06
3.04503e-06
1.50792e-06
1.82744e-05
1.82722e-05
5.26369e-07
5.21417e-06
5.21548e-06
5.21573e-06
1.82734e-05
5.21526e-06
5.2155e-06
5.21451e-06
5.26425e-07
1.82741e-05
1.82756e-05
5.26427e-07
5.21467e-06
5.28221e-07
5.21449e-06
5.21563e-06
1.82742e-05
1.82717e-05
1.82732e-05
1.82717e-05
1.82747e-05
5.27953e-07
5.21534e-06
5.26391e-07
5.21437e-06
5.2155e-06
1.82726e-05
1.8271e-05
1.82753e-05
1.82729e-05
5.28145e-07
5.21426e-06
5.21563e-06
5.21451e-06
5.21585e-06
3.84428e-06
8.89333e-06
3.84438e-06
8.8936e-06
1.7879e-07
1.50799e-06
3.04497e-06
3.13301e-07
1.50839e-06
3.0442e-06
1.78802e-07
1.78784e-07
1.50791e-06
3.04501e-06
3.13333e-07
1.50835e-06
3.04453e-06
1.78795e-07
3.84447e-06
8.89359e-06
8.89344e-06
3.84435e-06
3.84442e-06
8.89364e-06
8.89337e-06
3.8443e-06
1.50839e-06
3.13305e-07
3.0442e-06
1.78805e-07
3.04464e-06
1.78803e-07
1.508e-06
1.50831e-06
3.13363e-07
3.04456e-06
1.78799e-07
3.04503e-06
1.78799e-07
1.50797e-06
5.21436e-06
5.21574e-06
5.26382e-07
5.21548e-06
5.21419e-06
1.82735e-05
1.82745e-05
1.82723e-05
5.28172e-07
5.21551e-06
5.21577e-06
5.21437e-06
1.82714e-05
3.0449e-06
3.13213e-07
1.78781e-07
1.50791e-06
3.13273e-07
3.04468e-06
1.78785e-07
3.84443e-06
8.89411e-06
3.84428e-06
8.89436e-06
1.78768e-07
3.13357e-07
3.04515e-06
1.50782e-06
3.13384e-07
1.78786e-07
3.04469e-06
3.84451e-06
8.89483e-06
8.89453e-06
3.84445e-06
1.50833e-06
3.13292e-07
3.04474e-06
1.78794e-07
3.04519e-06
1.78788e-07
1.50803e-06
3.84453e-06
8.8944e-06
8.89413e-06
3.84449e-06
1.50827e-06
3.13374e-07
1.78799e-07
3.04474e-06
1.78784e-07
3.04518e-06
1.50799e-06
8.894e-06
3.84437e-06
8.89427e-06
1.78779e-07
1.50843e-06
3.04512e-06
1.50792e-06
3.13325e-07
1.78793e-07
3.04439e-06
8.8942e-06
3.84428e-06
8.89416e-06
1.50834e-06
3.13264e-07
1.78787e-07
3.04473e-06
1.7878e-07
3.84447e-06
8.89403e-06
1.50834e-06
3.1334e-07
1.78802e-07
1.78785e-07
3.04486e-06
3.84437e-06
8.89389e-06
5.21466e-06
5.2159e-06
5.26372e-07
5.2157e-06
5.2145e-06
1.82742e-05
1.82735e-05
5.28199e-07
5.21597e-06
5.21468e-06
1.82721e-05
3.13284e-07
1.50838e-06
3.04494e-06
1.5079e-06
3.1333e-07
1.78776e-07
3.04472e-06
3.84439e-06
3.84434e-06
8.89447e-06
8.89402e-06
3.84423e-06
8.8945e-06
1.50834e-06
3.13297e-07
1.78788e-07
3.04482e-06
1.50835e-06
3.13312e-07
1.78794e-07
3.04522e-06
3.84444e-06
8.89424e-06
3.84435e-06
8.89438e-06
1.82734e-05
1.82746e-05
1.82754e-05
5.28298e-07
5.21471e-06
5.21604e-06
1.82723e-05
1.82737e-05
8.89435e-06
8.89416e-06
3.84423e-06
3.84434e-06
9.12323e-08
9.12358e-08
9.12331e-08
9.12366e-08
1.23456e-07
3.04434e-06
3.13249e-07
1.50791e-06
1.78769e-07
2.37854e-06
3.1319e-07
3.13173e-07
1.5078e-06
1.78766e-07
1.50824e-06
1.7876e-07
8.89378e-06
8.89426e-06
3.84414e-06
3.84425e-06
3.04463e-06
3.1336e-07
3.13387e-07
1.50779e-06
1.7876e-07
1.50817e-06
1.78761e-07
8.89412e-06
3.84428e-06
8.89436e-06
3.84439e-06
3.13194e-07
1.50792e-06
3.04439e-06
3.13183e-07
1.78764e-07
1.50824e-06
1.7877e-07
8.8941e-06
3.84418e-06
8.89434e-06
3.8443e-06
1.50786e-06
1.78766e-07
3.13376e-07
3.13408e-07
3.04465e-06
1.50822e-06
1.78762e-07
1.78776e-07
3.13236e-07
1.50796e-06
3.04426e-06
1.78765e-07
3.84433e-06
8.89423e-06
1.78774e-07
1.50798e-06
3.04469e-06
3.13363e-07
1.78768e-07
3.04495e-06
8.89444e-06
8.89388e-06
1.50787e-06
1.78773e-07
8.89439e-06
3.84426e-06
3.84426e-06
1.78778e-07
3.04479e-06
3.13255e-07
3.04433e-06
1.50797e-06
1.50836e-06
1.78769e-07
3.1323e-07
1.50795e-06
3.04442e-06
1.50832e-06
3.13266e-07
1.78782e-07
3.04507e-06
8.89443e-06
3.8443e-06
3.84436e-06
8.89425e-06
3.84435e-06
8.89435e-06
5.21506e-06
5.21497e-06
5.28332e-07
5.21468e-06
5.21598e-06
1.82754e-05
1.82724e-05
1.82737e-05
4.13837e-06
5.21515e-06
2.24938e-06
9.11237e-06
9.11212e-06
4.138e-06
2.24947e-06
4.13764e-06
2.24961e-06
5.21489e-06
9.11198e-06
4.13801e-06
9.11223e-06
2.24949e-06
1.82756e-05
4.1414e-06
2.25125e-06
5.21557e-06
9.11491e-06
4.14159e-06
9.11528e-06
2.25101e-06
1.82741e-05
4.13668e-06
2.24993e-06
9.11192e-06
5.21467e-06
4.13762e-06
9.11251e-06
2.24957e-06
1.82734e-05
1.20982e-05
4.56585e-06
1.07002e-05
3.84436e-06
4.56586e-06
1.07006e-05
1.20975e-05
1.20984e-05
1.07e-05
4.56557e-06
3.84426e-06
1.07004e-05
4.56564e-06
1.20978e-05
1.82742e-05
2.21127e-05
7.101e-06
8.89445e-06
7.10068e-06
2.21085e-05
1.20988e-05
4.56559e-06
1.07001e-05
3.84423e-06
4.56568e-06
1.07005e-05
1.20981e-05
1.82749e-05
1.20978e-05
1.07004e-05
4.56564e-06
3.84432e-06
1.20984e-05
1.07e-05
4.56554e-06
2.21126e-05
8.89441e-06
7.10099e-06
2.21084e-05
7.10064e-06
1.20981e-05
4.56567e-06
1.07005e-05
3.84432e-06
1.20988e-05
4.5656e-06
1.07001e-05
1.82728e-05
1.20977e-05
1.07003e-05
4.56585e-06
3.84437e-06
1.07e-05
4.56579e-06
1.20984e-05
2.21133e-05
8.89391e-06
7.1009e-06
7.10068e-06
2.21092e-05
2.21093e-05
7.10078e-06
8.89376e-06
7.10105e-06
2.21134e-05
1.20984e-05
3.8442e-06
1.07e-05
4.56574e-06
1.07004e-05
4.5658e-06
1.20977e-05
1.8275e-05
1.82732e-05
1.20978e-05
3.84447e-06
1.07003e-05
4.56592e-06
1.07e-05
4.56587e-06
1.20984e-05
2.21134e-05
7.10112e-06
8.89384e-06
2.21094e-05
7.10086e-06
1.20984e-05
3.84432e-06
1.07e-05
4.56588e-06
1.20978e-05
1.07003e-05
4.56592e-06
2.21094e-05
7.10083e-06
8.89351e-06
7.10107e-06
2.21134e-05
1.82744e-05
1.82722e-05
1.20986e-05
1.07001e-05
4.56581e-06
3.8443e-06
4.5659e-06
1.07004e-05
1.20979e-05
2.21133e-05
7.10098e-06
8.89448e-06
7.10097e-06
2.21091e-05
1.20979e-05
3.84448e-06
4.56593e-06
1.07004e-05
4.56582e-06
1.07001e-05
1.20986e-05
2.21095e-05
8.89433e-06
7.10096e-06
7.10098e-06
2.21133e-05
1.82757e-05
1.82735e-05
4.13783e-06
2.2498e-06
9.1124e-06
5.2148e-06
2.24947e-06
9.11296e-06
4.13877e-06
9.63333e-06
2.16856e-05
2.16896e-05
2.16921e-05
2.1689e-05
9.63363e-06
4.13961e-06
2.25082e-06
9.11341e-06
5.21482e-06
2.25079e-06
9.1135e-06
4.1391e-06
9.63344e-06
2.16907e-05
2.16904e-05
2.16884e-05
2.16867e-05
9.63306e-06
4.13747e-06
5.21506e-06
9.11172e-06
2.2494e-06
2.2498e-06
9.1123e-06
4.13668e-06
4.14069e-06
5.21571e-06
9.11473e-06
2.2511e-06
2.25099e-06
9.11352e-06
4.14099e-06
1.82736e-05
1.82718e-05
1.82718e-05
1.82739e-05
4.13836e-06
5.21493e-06
2.24949e-06
9.11269e-06
9.1126e-06
2.24925e-06
4.13917e-06
9.63297e-06
2.1688e-05
2.16923e-05
2.16896e-05
2.1685e-05
9.6327e-06
4.13829e-06
2.25079e-06
5.21476e-06
9.11266e-06
9.11333e-06
2.2506e-06
4.13832e-06
4.13888e-06
2.25056e-06
9.11372e-06
5.21511e-06
9.11323e-06
4.13883e-06
2.25081e-06
9.63269e-06
2.16854e-05
2.16895e-05
2.16924e-05
2.1688e-05
9.63301e-06
1.82719e-05
1.8274e-05
1.82738e-05
1.82717e-05
4.13771e-06
5.21509e-06
2.24959e-06
9.11211e-06
9.11185e-06
4.1374e-06
2.24976e-06
9.63271e-06
2.16852e-05
2.16893e-05
9.63296e-06
2.16923e-05
2.16882e-05
4.13955e-06
2.25039e-06
5.2153e-06
9.11399e-06
9.11371e-06
2.2506e-06
4.13947e-06
4.1392e-06
2.25069e-06
9.11352e-06
5.21501e-06
4.13924e-06
9.11392e-06
2.25047e-06
9.63297e-06
2.16885e-05
2.16918e-05
2.16893e-05
2.16855e-05
9.63274e-06
1.20981e-05
1.07002e-05
4.56571e-06
3.84431e-06
1.06999e-05
4.5656e-06
1.20987e-05
1.20987e-05
3.84415e-06
1.06999e-05
4.56558e-06
1.07002e-05
4.56569e-06
1.20981e-05
1.20984e-05
1.07e-05
4.56583e-06
3.84428e-06
1.20977e-05
1.07003e-05
4.56588e-06
2.21094e-05
8.89375e-06
7.1009e-06
2.21134e-05
7.10115e-06
2.21134e-05
7.10112e-06
8.89397e-06
2.21094e-05
7.10082e-06
1.20977e-05
3.84444e-06
1.07003e-05
4.56592e-06
1.20984e-05
1.07e-05
4.56586e-06
1.20987e-05
1.06999e-05
4.56561e-06
3.84422e-06
1.20981e-05
1.07002e-05
4.56572e-06
2.21104e-05
8.89332e-06
7.09966e-06
7.09968e-06
2.21143e-05
2.21143e-05
7.09967e-06
8.89355e-06
2.21104e-05
7.09966e-06
1.20981e-05
3.84437e-06
1.07002e-05
4.56573e-06
1.06999e-05
4.56562e-06
1.20987e-05
1.82722e-05
1.82744e-05
4.13552e-06
5.21433e-06
2.24934e-06
9.1111e-06
9.11074e-06
4.13532e-06
2.24954e-06
4.14205e-06
2.2507e-06
5.21576e-06
9.11521e-06
2.25092e-06
9.11485e-06
4.14188e-06
4.14184e-06
2.2509e-06
9.11483e-06
5.21545e-06
2.25065e-06
4.14203e-06
9.11515e-06
9.6336e-06
2.16915e-05
2.16904e-05
2.16875e-05
2.16884e-05
9.63334e-06
1.82713e-05
4.14011e-06
5.21505e-06
9.11384e-06
2.25055e-06
4.14135e-06
5.21569e-06
2.25099e-06
9.11509e-06
9.1145e-06
4.14121e-06
2.25114e-06
4.13655e-06
5.21488e-06
2.24915e-06
9.11115e-06
9.11115e-06
4.13604e-06
2.24945e-06
9.63301e-06
2.16903e-05
2.169e-05
2.16873e-05
2.16873e-05
9.63274e-06
1.82721e-05
1.82735e-05
4.13591e-06
2.24936e-06
5.21448e-06
9.11075e-06
4.13618e-06
9.11106e-06
2.24916e-06
4.13606e-06
2.24925e-06
5.21467e-06
9.11105e-06
9.11074e-06
4.13582e-06
2.24943e-06
4.14166e-06
5.21587e-06
2.25099e-06
9.11533e-06
9.11501e-06
4.14153e-06
2.25123e-06
9.63273e-06
2.16876e-05
2.16871e-05
9.63302e-06
2.16907e-05
2.169e-05
9.633e-06
2.16898e-05
2.16906e-05
2.16878e-05
2.16871e-05
9.63275e-06
1.82721e-05
1.82738e-05
1.82715e-05
1.8274e-05
1.82723e-05
9.63295e-06
2.16894e-05
2.1691e-05
2.16874e-05
2.16874e-05
9.63265e-06
4.14017e-06
2.25036e-06
9.11368e-06
5.21488e-06
4.13972e-06
9.11375e-06
2.25036e-06
9.63287e-06
2.16861e-05
2.16887e-05
9.63312e-06
2.16912e-05
2.16897e-05
4.13803e-06
9.1118e-06
5.21493e-06
2.24897e-06
9.11246e-06
4.13694e-06
2.24944e-06
4.13971e-06
5.21567e-06
9.11447e-06
2.25117e-06
9.11312e-06
4.13995e-06
2.25111e-06
1.82705e-05
1.82728e-05
1.82732e-05
1.82752e-05
9.63262e-06
2.16863e-05
2.16883e-05
9.63285e-06
2.16892e-05
2.16911e-05
4.1367e-06
2.24917e-06
5.21447e-06
9.11126e-06
9.11103e-06
2.24921e-06
4.13649e-06
4.14075e-06
2.25114e-06
5.21582e-06
9.1151e-06
9.11474e-06
2.25137e-06
4.14073e-06
4.13663e-06
9.11122e-06
2.24914e-06
5.21429e-06
4.13695e-06
9.11141e-06
2.24894e-06
4.14043e-06
9.11451e-06
2.25141e-06
5.21566e-06
4.14049e-06
9.11496e-06
2.25119e-06
9.63284e-06
2.16893e-05
2.1691e-05
2.16864e-05
2.16882e-05
9.63262e-06
1.20981e-05
3.8444e-06
1.07002e-05
4.56576e-06
1.06999e-05
4.56565e-06
1.20987e-05
2.21143e-05
7.09969e-06
8.89358e-06
2.21104e-05
7.09967e-06
1.20987e-05
3.84424e-06
1.06999e-05
4.56563e-06
1.07002e-05
1.20981e-05
4.56574e-06
2.21105e-05
7.09968e-06
8.89335e-06
7.09972e-06
2.21143e-05
1.20983e-05
1.07e-05
4.5658e-06
3.84434e-06
1.20977e-05
1.07003e-05
4.56588e-06
2.2109e-05
8.89336e-06
7.10072e-06
2.21129e-05
7.10088e-06
2.2113e-05
7.10093e-06
8.89363e-06
2.21091e-05
7.10076e-06
1.20977e-05
3.84441e-06
1.07003e-05
4.56588e-06
1.20983e-05
1.06999e-05
4.5658e-06
1.20988e-05
1.06999e-05
4.56566e-06
3.84429e-06
1.20981e-05
1.07002e-05
4.56578e-06
2.21105e-05
8.89339e-06
7.09969e-06
7.09976e-06
2.21144e-05
2.21144e-05
7.09974e-06
8.89362e-06
2.21105e-05
7.09969e-06
1.20981e-05
3.84436e-06
1.07002e-05
4.5658e-06
1.06998e-05
4.56569e-06
1.20988e-05
4.13533e-06
2.24958e-06
9.1108e-06
5.21418e-06
2.24937e-06
4.1355e-06
9.11112e-06
9.63353e-06
2.16904e-05
2.16913e-05
2.16875e-05
2.16886e-05
9.63328e-06
4.14188e-06
2.25091e-06
9.11486e-06
5.21547e-06
9.11519e-06
4.14203e-06
2.25069e-06
9.63331e-06
2.16886e-05
2.16875e-05
2.16904e-05
9.63356e-06
2.16915e-05
4.14206e-06
9.1152e-06
5.21576e-06
2.25068e-06
9.11492e-06
2.25093e-06
4.14186e-06
4.13553e-06
5.21437e-06
9.1111e-06
2.24939e-06
2.2496e-06
9.11083e-06
4.13532e-06
1.82714e-05
1.82723e-05
1.82745e-05
9.63325e-06
2.16875e-05
2.16882e-05
9.63349e-06
2.16904e-05
2.1691e-05
4.1421e-06
2.25079e-06
5.21579e-06
9.11522e-06
2.25091e-06
9.1149e-06
4.1419e-06
4.13547e-06
5.21439e-06
9.11076e-06
2.24959e-06
4.14187e-06
9.11489e-06
2.25093e-06
5.2155e-06
2.2507e-06
4.14206e-06
9.11521e-06
4.13532e-06
9.11074e-06
2.24959e-06
5.2142e-06
4.13546e-06
9.11105e-06
2.2494e-06
9.63347e-06
2.16875e-05
2.16882e-05
1.82714e-05
1.82735e-05
1.20986e-05
1.06999e-05
4.56564e-06
3.84424e-06
1.07002e-05
4.5657e-06
1.2098e-05
2.21136e-05
7.09946e-06
8.89435e-06
7.0994e-06
2.21096e-05
1.2098e-05
3.84448e-06
1.07003e-05
4.56575e-06
1.06999e-05
4.5657e-06
1.20987e-05
2.21097e-05
8.89412e-06
7.09942e-06
7.09954e-06
2.21136e-05
1.20986e-05
4.56584e-06
1.07001e-05
3.84443e-06
1.20979e-05
4.56594e-06
1.07005e-05
2.21095e-05
8.89458e-06
7.10102e-06
2.21133e-05
7.10104e-06
2.21133e-05
7.10105e-06
8.89481e-06
2.21095e-05
7.10097e-06
1.2098e-05
3.84452e-06
4.56597e-06
1.07006e-05
1.20986e-05
4.56586e-06
1.07002e-05
1.20987e-05
1.06999e-05
4.56576e-06
3.84438e-06
1.2098e-05
1.07003e-05
4.56579e-06
2.21098e-05
8.89415e-06
7.09945e-06
7.09959e-06
2.21138e-05
2.21137e-05
7.09957e-06
8.89438e-06
2.21097e-05
7.09944e-06
1.20981e-05
3.84455e-06
1.07004e-05
4.56583e-06
1.07e-05
4.56581e-06
1.20987e-05
2.21127e-05
7.101e-06
8.89425e-06
7.10068e-06
2.21085e-05
1.20975e-05
3.84445e-06
4.56588e-06
1.07006e-05
4.56585e-06
1.07002e-05
1.20982e-05
2.21085e-05
8.89401e-06
7.1007e-06
7.10102e-06
2.21127e-05
2.21133e-05
7.09935e-06
8.89431e-06
7.09921e-06
2.21094e-05
1.20978e-05
3.84435e-06
1.07004e-05
4.56567e-06
1.07e-05
4.56556e-06
1.20984e-05
2.21095e-05
8.89396e-06
7.0992e-06
7.09929e-06
2.21133e-05
1.20982e-05
4.56586e-06
1.07002e-05
3.8444e-06
1.20975e-05
4.56587e-06
1.07006e-05
2.21086e-05
8.89405e-06
7.101e-06
2.21127e-05
7.10104e-06
8.89429e-06
2.21085e-05
7.10071e-06
1.20976e-05
3.84448e-06
4.56588e-06
1.07003e-05
1.20985e-05
1.07e-05
4.56558e-06
3.84431e-06
1.20978e-05
1.07004e-05
4.56567e-06
2.21095e-05
8.89391e-06
7.09934e-06
2.21134e-05
7.09934e-06
8.89414e-06
2.21095e-05
7.09919e-06
1.20978e-05
3.84439e-06
1.07e-05
4.5656e-06
4.13576e-06
2.24949e-06
9.11077e-06
5.21449e-06
2.24932e-06
4.13603e-06
9.11107e-06
4.14159e-06
2.25117e-06
9.11501e-06
5.21566e-06
9.11533e-06
4.14172e-06
2.25094e-06
9.63322e-06
2.16905e-05
2.16906e-05
2.16877e-05
2.16873e-05
9.633e-06
9.63288e-06
2.16871e-05
2.16877e-05
2.16905e-05
9.63315e-06
2.16902e-05
4.14178e-06
5.21594e-06
9.11541e-06
2.25091e-06
9.11509e-06
2.25114e-06
4.14164e-06
4.13595e-06
5.21469e-06
9.11107e-06
2.24939e-06
2.24959e-06
9.11077e-06
4.13573e-06
1.82721e-05
1.82736e-05
1.82757e-05
9.63302e-06
2.16876e-05
2.16874e-05
9.63324e-06
2.16905e-05
2.16903e-05
4.1419e-06
5.21599e-06
2.25109e-06
9.11515e-06
4.13587e-06
5.21467e-06
9.11072e-06
2.24966e-06
4.14172e-06
9.11512e-06
2.25113e-06
5.21572e-06
2.2509e-06
4.14186e-06
9.11544e-06
4.13568e-06
9.11073e-06
2.24963e-06
5.21449e-06
4.1359e-06
9.11103e-06
2.24943e-06
9.63327e-06
2.16876e-05
2.16875e-05
1.82721e-05
1.82742e-05
1.20982e-05
4.56583e-06
1.07002e-05
3.84431e-06
4.56586e-06
1.07005e-05
1.20976e-05
1.20976e-05
3.84441e-06
4.56589e-06
1.07006e-05
4.56586e-06
1.07002e-05
1.20983e-05
2.21085e-05
8.89422e-06
7.10072e-06
7.10103e-06
2.21127e-05
2.21141e-05
7.09956e-06
8.89431e-06
7.09951e-06
2.21102e-05
1.20981e-05
3.84433e-06
4.5657e-06
1.07005e-05
4.56561e-06
1.07001e-05
1.20988e-05
2.21102e-05
8.89412e-06
7.09952e-06
7.09961e-06
2.21141e-05
1.20983e-05
4.56588e-06
1.07002e-05
3.84436e-06
1.20976e-05
4.56591e-06
1.07006e-05
2.21127e-05
7.10107e-06
8.8945e-06
2.21086e-05
7.10075e-06
1.20988e-05
4.56566e-06
1.07001e-05
3.84427e-06
1.20981e-05
4.56573e-06
1.07005e-05
2.21142e-05
7.09968e-06
8.89462e-06
2.21103e-05
7.09955e-06
1.82751e-05
1.82727e-05
1.82731e-05
9.63288e-06
2.16874e-05
2.16874e-05
9.63329e-06
2.16909e-05
2.16897e-05
4.1374e-06
5.21481e-06
2.24979e-06
9.11202e-06
4.13844e-06
9.11138e-06
2.24939e-06
5.21463e-06
4.1362e-06
2.25027e-06
9.11238e-06
4.13923e-06
9.11451e-06
2.2515e-06
5.21542e-06
4.14178e-06
2.25014e-06
9.11416e-06
9.633e-06
2.16876e-05
2.1687e-05
1.82723e-05
1.82744e-05
1.82757e-05
2.2109e-05
8.89412e-06
7.10071e-06
7.10095e-06
2.21131e-05
2.2113e-05
8.89435e-06
7.1009e-06
7.10065e-06
2.21093e-05
1.20978e-05
4.56578e-06
1.07004e-05
3.84436e-06
4.5657e-06
1.07e-05
1.20985e-05
1.20985e-05
4.56564e-06
1.07e-05
3.8442e-06
4.56572e-06
1.07004e-05
1.20979e-05
2.21134e-05
8.89413e-06
7.09932e-06
7.09929e-06
2.21095e-05
2.21095e-05
8.89393e-06
7.09937e-06
7.09935e-06
2.21134e-05
1.20978e-05
1.07002e-05
4.56562e-06
3.84427e-06
1.06998e-05
4.56552e-06
1.20985e-05
1.20985e-05
4.56547e-06
1.06997e-05
3.84409e-06
1.07001e-05
4.56557e-06
1.20978e-05
2.21131e-05
8.89435e-06
7.101e-06
2.21091e-05
7.10076e-06
1.20978e-05
1.07004e-05
4.56587e-06
3.8444e-06
1.20985e-05
4.56578e-06
1.07001e-05
2.21091e-05
8.89413e-06
7.10084e-06
2.21131e-05
7.10105e-06
1.20985e-05
4.56574e-06
1.07e-05
3.84426e-06
1.20978e-05
4.56583e-06
1.07004e-05
2.21135e-05
8.89433e-06
7.0994e-06
2.21095e-05
7.09939e-06
1.20979e-05
1.07002e-05
4.56566e-06
3.84432e-06
1.20985e-05
1.06998e-05
4.56556e-06
2.21096e-05
8.8941e-06
7.09941e-06
2.21135e-05
7.09942e-06
1.20985e-05
1.06998e-05
4.56554e-06
3.84417e-06
1.20978e-05
1.07002e-05
4.56563e-06
1.20975e-05
4.56584e-06
1.07006e-05
3.84443e-06
1.20982e-05
4.56584e-06
1.07002e-05
2.21085e-05
8.89398e-06
7.10066e-06
2.21126e-05
7.101e-06
2.21094e-05
7.0992e-06
8.89409e-06
2.21133e-05
7.09935e-06
2.21133e-05
8.89421e-06
7.09926e-06
2.21094e-05
7.09919e-06
2.21083e-05
8.89419e-06
7.10065e-06
7.10095e-06
2.21125e-05
1.20975e-05
4.5658e-06
3.84435e-06
1.07005e-05
4.56574e-06
1.07001e-05
1.20982e-05
1.20981e-05
3.84435e-06
4.56572e-06
1.07004e-05
4.56563e-06
1.07e-05
1.20987e-05
2.21084e-05
8.89418e-06
7.10065e-06
2.21126e-05
7.10097e-06
1.20975e-05
4.56584e-06
1.07005e-05
3.84437e-06
1.20982e-05
4.56581e-06
1.07001e-05
1.20982e-05
4.56577e-06
3.84428e-06
1.07001e-05
1.20975e-05
4.56579e-06
1.07005e-05
2.21102e-05
7.09945e-06
8.89407e-06
2.21141e-05
7.09963e-06
1.20987e-05
3.84424e-06
4.56564e-06
1.07001e-05
1.20981e-05
4.56569e-06
1.07004e-05
2.21141e-05
8.89441e-06
7.09969e-06
2.21102e-05
7.09954e-06
4.13944e-06
2.24946e-06
9.1128e-06
5.21529e-06
4.13871e-06
2.24969e-06
9.11281e-06
9.63361e-06
2.16885e-05
2.16926e-05
9.6333e-06
2.16896e-05
2.16855e-05
4.13867e-06
2.25087e-06
9.11361e-06
5.21519e-06
4.1387e-06
2.25099e-06
9.11294e-06
9.63326e-06
2.1688e-05
2.16869e-05
9.6337e-06
2.16919e-05
2.1689e-05
4.13717e-06
5.21439e-06
9.11077e-06
2.2496e-06
4.13533e-06
2.25052e-06
9.1122e-06
4.13976e-06
5.21522e-06
9.11489e-06
2.25118e-06
4.14266e-06
2.24969e-06
9.11413e-06
1.8273e-05
1.82747e-05
1.82752e-05
1.80509e-06
6.9563e-07
5.78256e-07
6.97254e-07
1.50827e-06
1.80567e-06
5.79242e-07
5.78222e-07
6.95565e-07
1.80488e-06
6.97172e-07
1.50817e-06
5.79208e-07
1.80542e-06
9.12305e-08
9.12354e-08
1.23486e-07
9.12388e-08
9.12328e-08
7.72627e-08
7.72615e-08
2.06824e-06
1.07839e-06
1.07947e-06
5.26278e-07
1.07824e-06
1.07732e-06
2.06869e-06
2.06814e-06
1.07872e-06
5.26445e-07
1.07898e-06
1.07791e-06
2.06858e-06
1.07765e-06
2.0686e-06
5.28191e-07
1.07735e-06
1.07828e-06
1.0784e-06
1.07936e-06
2.06815e-06
2.06818e-06
1.07873e-06
1.07902e-06
5.26303e-07
1.07766e-06
2.06861e-06
1.07795e-06
2.06865e-06
5.28299e-07
1.07793e-06
1.07767e-06
1.07902e-06
1.07876e-06
2.06819e-06
6.95673e-07
1.80575e-06
5.79261e-07
1.50793e-06
1.80521e-06
5.78271e-07
6.97256e-07
6.95619e-07
5.79237e-07
1.80559e-06
1.50785e-06
5.78241e-07
1.80502e-06
6.9723e-07
2.06822e-06
1.07862e-06
1.07918e-06
5.26266e-07
1.07757e-06
2.06864e-06
1.07811e-06
2.06871e-06
5.28348e-07
1.07918e-06
1.07873e-06
9.27252e-07
3.04479e-06
1.34329e-06
2.37784e-06
1.34427e-06
2.37845e-06
9.25631e-07
2.37811e-06
3.0449e-06
9.25658e-07
3.04454e-06
1.34449e-06
1.34374e-06
2.37752e-06
9.25645e-07
1.34428e-06
3.04434e-06
2.37847e-06
1.34333e-06
9.27238e-07
2.3779e-06
9.25818e-07
1.34491e-06
3.04463e-06
2.37842e-06
1.34391e-06
9.27416e-07
2.37782e-06
2.06869e-06
1.07723e-06
1.07847e-06
5.2818e-07
2.06823e-06
1.07954e-06
1.0783e-06
1.23463e-07
9.12363e-08
1.23475e-07
9.12375e-08
9.1237e-08
7.72636e-08
7.72629e-08
1.23458e-07
9.1233e-08
1.23476e-07
9.12405e-08
9.12358e-08
7.72634e-08
7.72626e-08
1.23468e-07
9.12355e-08
1.23478e-07
9.12379e-08
9.12318e-08
7.72631e-08
7.72622e-08
1.23487e-07
9.12406e-08
9.12341e-08
9.12404e-08
9.12333e-08
7.72631e-08
7.72635e-08
1.23478e-07
9.12406e-08
9.12334e-08
9.12395e-08
9.12315e-08
7.72634e-08
7.72642e-08
1.23478e-07
9.12343e-08
9.12383e-08
9.12384e-08
7.7265e-08
7.72651e-08
1.23483e-07
9.12365e-08
9.12402e-08
9.12396e-08
7.72648e-08
7.7265e-08
6.95655e-07
5.79286e-07
1.80573e-06
1.50793e-06
1.80512e-06
5.78286e-07
6.97256e-07
9.25717e-07
1.34446e-06
2.37856e-06
3.04426e-06
1.34348e-06
2.37787e-06
9.2732e-07
6.97247e-07
1.50835e-06
1.80508e-06
5.78291e-07
1.80563e-06
5.79275e-07
6.95644e-07
9.27305e-07
3.04472e-06
2.37786e-06
1.34348e-06
1.34445e-06
2.37849e-06
9.2571e-07
9.25777e-07
1.34449e-06
2.37863e-06
3.04433e-06
1.34349e-06
2.37794e-06
9.274e-07
6.95691e-07
5.79303e-07
1.80575e-06
1.50794e-06
5.7831e-07
1.80514e-06
6.97298e-07
6.97285e-07
1.50835e-06
5.78316e-07
1.80508e-06
5.79289e-07
1.80566e-06
6.95685e-07
9.2738e-07
3.0448e-06
2.37787e-06
1.34351e-06
1.34449e-06
2.37856e-06
9.25751e-07
2.06869e-06
5.28054e-07
1.07763e-06
1.0782e-06
1.07878e-06
1.07913e-06
2.06826e-06
2.06802e-06
1.07817e-06
5.26378e-07
1.0794e-06
1.07834e-06
1.07709e-06
2.06845e-06
2.06845e-06
1.07719e-06
5.28138e-07
1.07827e-06
2.06804e-06
1.07937e-06
1.07819e-06
2.06805e-06
1.07826e-06
5.26388e-07
1.07928e-06
2.06847e-06
1.0782e-06
1.07724e-06
2.06849e-06
5.28039e-07
1.07733e-06
1.07813e-06
1.07923e-06
2.06805e-06
1.07837e-06
6.97321e-07
5.78283e-07
1.80517e-06
1.50827e-06
1.80572e-06
5.79255e-07
6.95706e-07
9.25904e-07
1.34493e-06
3.04451e-06
2.37879e-06
2.37817e-06
1.34395e-06
9.27514e-07
9.27519e-07
1.34398e-06
2.37811e-06
3.04503e-06
2.37879e-06
1.34495e-06
9.25905e-07
6.95698e-07
5.7927e-07
1.50785e-06
1.80573e-06
1.80518e-06
5.78272e-07
6.97304e-07
6.97245e-07
5.78257e-07
1.80506e-06
1.50824e-06
1.80554e-06
5.79234e-07
6.95628e-07
6.95616e-07
5.79243e-07
1.50781e-06
1.80549e-06
1.80497e-06
5.78246e-07
6.97225e-07
6.9572e-07
5.79277e-07
1.80572e-06
1.5079e-06
6.97325e-07
1.80518e-06
5.78305e-07
9.27531e-07
1.34394e-06
3.04508e-06
2.37819e-06
1.34494e-06
2.37876e-06
9.2593e-07
9.259e-07
1.34495e-06
2.37873e-06
3.04457e-06
1.34396e-06
9.27517e-07
2.37807e-06
6.97321e-07
5.78321e-07
1.50835e-06
1.80525e-06
1.80575e-06
5.79294e-07
6.95722e-07
6.95655e-07
5.79254e-07
1.80563e-06
1.50787e-06
6.97257e-07
1.80514e-06
5.78283e-07
9.27418e-07
1.34382e-06
3.04503e-06
2.37782e-06
2.37845e-06
1.34481e-06
9.25792e-07
9.25799e-07
1.34481e-06
2.3784e-06
3.04452e-06
9.27388e-07
2.37783e-06
1.34382e-06
6.97258e-07
5.78295e-07
1.50833e-06
1.80515e-06
1.80569e-06
5.7928e-07
6.95648e-07
2.06859e-06
5.28114e-07
1.07766e-06
1.07794e-06
1.07898e-06
2.06816e-06
1.07872e-06
2.0686e-06
1.0781e-06
5.28041e-07
1.07751e-06
2.06815e-06
1.0786e-06
1.07912e-06
2.06863e-06
5.28219e-07
1.07755e-06
1.07813e-06
2.0682e-06
1.07917e-06
1.0786e-06
2.06817e-06
1.07917e-06
5.26542e-07
1.07858e-06
2.06861e-06
1.0781e-06
1.07752e-06
2.06807e-06
1.07846e-06
1.07913e-06
5.26273e-07
2.0685e-06
1.07793e-06
1.0774e-06
2.06852e-06
5.28033e-07
1.07729e-06
1.0783e-06
2.0681e-06
1.07848e-06
1.07922e-06
2.06814e-06
5.26473e-07
1.07835e-06
1.07936e-06
2.06855e-06
1.0773e-06
1.07832e-06
6.97331e-07
1.50841e-06
1.80533e-06
5.7831e-07
1.80587e-06
5.79295e-07
6.95702e-07
9.25937e-07
1.34487e-06
2.37882e-06
3.04444e-06
2.37826e-06
9.27548e-07
1.34377e-06
6.95727e-07
5.79297e-07
1.50797e-06
1.80582e-06
1.80532e-06
6.97336e-07
5.78311e-07
9.27493e-07
2.37813e-06
3.04473e-06
1.34347e-06
2.37882e-06
1.34458e-06
9.25846e-07
6.97288e-07
1.50834e-06
1.80507e-06
5.78278e-07
1.80562e-06
5.7927e-07
6.95661e-07
9.25772e-07
1.3448e-06
2.37839e-06
3.04451e-06
9.27401e-07
2.37774e-06
1.34382e-06
6.95664e-07
5.79276e-07
1.50792e-06
1.80566e-06
6.97274e-07
1.8051e-06
5.78284e-07
9.27372e-07
2.37771e-06
3.04503e-06
1.34385e-06
2.37832e-06
9.25763e-07
1.34482e-06
6.95704e-07
1.80584e-06
5.79289e-07
1.50795e-06
6.97309e-07
1.80524e-06
5.78312e-07
9.27383e-07
1.34343e-06
3.04465e-06
2.37796e-06
1.34442e-06
2.37857e-06
9.25787e-07
9.25796e-07
2.37868e-06
1.34442e-06
3.04417e-06
1.34342e-06
9.27425e-07
2.37798e-06
6.97295e-07
1.50838e-06
1.80522e-06
5.7832e-07
1.80574e-06
5.79308e-07
6.95692e-07
6.95682e-07
1.80559e-06
5.79265e-07
1.50788e-06
6.97283e-07
1.80507e-06
5.78294e-07
9.27412e-07
1.34385e-06
3.04506e-06
2.37786e-06
2.37839e-06
1.34485e-06
9.25812e-07
9.25796e-07
2.37833e-06
1.34483e-06
3.04455e-06
9.27384e-07
2.37775e-06
1.34386e-06
6.97275e-07
1.50832e-06
1.80518e-06
5.78309e-07
1.80561e-06
5.7929e-07
6.95671e-07
2.06861e-06
5.28033e-07
1.07794e-06
1.07769e-06
1.07874e-06
1.07901e-06
2.06817e-06
2.0682e-06
5.26547e-07
1.07901e-06
1.07875e-06
1.07795e-06
2.06862e-06
1.0777e-06
9.25716e-07
2.3786e-06
1.34442e-06
3.04449e-06
2.37801e-06
1.34355e-06
9.27299e-07
6.97282e-07
1.50835e-06
1.80521e-06
5.78271e-07
1.80576e-06
5.7925e-07
6.95687e-07
9.27374e-07
3.04508e-06
2.37805e-06
1.34388e-06
2.37866e-06
1.34473e-06
9.25787e-07
9.25766e-07
2.37834e-06
1.34493e-06
3.04465e-06
2.37766e-06
1.34393e-06
9.27406e-07
6.9723e-07
1.50826e-06
5.78243e-07
1.80499e-06
5.79218e-07
1.80555e-06
6.9563e-07
9.27377e-07
3.04516e-06
2.37767e-06
1.34396e-06
2.37831e-06
9.25778e-07
1.34493e-06
6.95707e-07
1.80573e-06
5.79267e-07
1.5079e-06
6.9731e-07
1.80515e-06
5.78293e-07
9.27468e-07
1.34396e-06
3.04519e-06
2.37817e-06
1.34495e-06
2.37869e-06
9.25863e-07
9.25833e-07
2.37868e-06
1.3449e-06
3.04473e-06
1.34396e-06
9.27428e-07
2.37803e-06
6.97316e-07
1.50834e-06
1.80528e-06
5.78322e-07
1.8057e-06
5.79291e-07
6.95707e-07