/*--------------------------------*- C++ -*----------------------------------*\
| =========                 |                                                 |
| \\      /  F ield         | OpenFOAM: The Open Source CFD Toolbox           |
|  \\    /   O peration     | Version:  v2006                                 |
|   \\  /    A nd           | Website:  www.openfoam.com                      |
|    \\/     M anipulation  |                                                 |
\*---------------------------------------------------------------------------*/
FoamFile
{
    version     2.0;
    format      ascii;
    class       volScalarField;
    location    "125";
    object      nut;
}
// * * * * * * * * * * * * * * * * * * * * * * * * * * * * * * * * * * * * * //

dimensions      [0 2 -1 0 0 0 0];


internalField   nonuniform List<scalar> 
14361
(
9.58477e-05
0.000108101
7.57801e-05
8.5142e-05
6.55012e-05
2.35452e-05
4.95234e-05
7.80365e-05
8.20235e-05
4.72681e-05
4.72686e-05
8.20166e-05
8.2001e-05
8.54048e-05
4.72796e-05
6.55064e-05
8.54159e-05
8.19914e-05
4.72801e-05
7.34e-05
2.14759e-05
2.14791e-05
2.14768e-05
7.33932e-05
2.148e-05
2.35462e-05
2.01212e-05
7.08181e-05
4.95238e-05
7.08315e-05
2.01199e-05
3.61649e-05
7.80461e-05
7.69226e-05
4.03785e-05
7.69334e-05
3.61643e-05
4.0379e-05
8.95332e-05
8.89502e-05
8.89542e-05
8.95182e-05
8.47656e-05
8.54378e-05
8.16172e-05
7.57916e-05
8.47671e-05
8.54424e-05
8.1636e-05
8.55341e-05
8.51626e-05
8.61694e-05
8.49317e-05
8.55404e-05
8.61656e-05
8.49628e-05
9.58341e-05
9.07182e-05
9.5847e-05
9.58268e-05
9.07407e-05
0.000124759
0.000124757
6.55052e-05
2.35466e-05
7.57908e-05
8.51552e-05
4.95244e-05
7.80471e-05
7.57847e-05
8.51526e-05
4.95213e-05
7.80461e-05
2.35445e-05
6.5493e-05
6.5506e-05
2.35461e-05
0.0001081
7.57908e-05
8.51371e-05
0.000108098
7.57823e-05
8.51514e-05
4.95238e-05
7.80467e-05
4.95199e-05
7.80432e-05
6.54991e-05
6.54983e-05
2.35457e-05
2.35446e-05
8.54128e-05
4.72783e-05
8.19931e-05
2.14771e-05
2.14802e-05
7.3401e-05
7.08307e-05
2.01212e-05
7.69324e-05
4.0379e-05
3.61651e-05
7.0816e-05
2.01203e-05
4.03794e-05
7.69295e-05
3.6164e-05
8.54088e-05
4.72686e-05
8.20264e-05
8.542e-05
4.72802e-05
8.20014e-05
2.14768e-05
2.148e-05
7.33995e-05
2.01199e-05
4.95233e-05
7.08312e-05
7.08175e-05
2.01212e-05
3.61642e-05
7.80355e-05
7.69327e-05
4.0379e-05
7.69216e-05
4.03785e-05
3.61649e-05
2.01187e-05
4.95196e-05
7.08158e-05
7.08035e-05
2.01199e-05
3.61624e-05
7.80331e-05
7.69262e-05
4.03789e-05
7.69159e-05
4.03784e-05
3.61631e-05
8.54106e-05
4.72781e-05
8.20161e-05
8.20116e-05
8.54157e-05
6.54931e-05
4.72697e-05
8.20258e-05
8.54098e-05
4.72724e-05
2.14793e-05
2.1477e-05
7.33888e-05
2.35441e-05
8.89482e-05
8.89523e-05
8.95204e-05
8.9514e-05
9.06876e-05
8.8951e-05
8.8948e-05
8.95318e-05
8.89443e-05
8.89432e-05
0.000147274
0.000147275
8.54421e-05
8.16318e-05
8.4767e-05
8.49416e-05
8.61644e-05
8.55322e-05
8.54359e-05
8.16207e-05
8.47621e-05
8.61647e-05
8.49432e-05
8.55315e-05
8.47677e-05
8.54425e-05
7.57785e-05
8.16105e-05
8.47617e-05
8.54369e-05
8.16059e-05
8.5539e-05
8.51341e-05
8.61664e-05
8.49259e-05
8.55314e-05
8.61683e-05
8.49213e-05
8.47704e-05
8.54386e-05
7.57704e-05
8.16218e-05
8.16094e-05
8.54339e-05
8.47652e-05
8.55395e-05
8.51329e-05
8.61652e-05
8.49445e-05
8.61684e-05
8.49216e-05
8.55309e-05
7.80425e-05
8.51432e-05
7.8036e-05
8.51309e-05
3.61642e-05
7.80305e-05
7.69337e-05
4.0379e-05
7.69233e-05
4.03785e-05
3.61649e-05
3.6162e-05
7.80239e-05
4.03787e-05
7.69206e-05
4.03781e-05
7.691e-05
3.61627e-05
0.000124767
0.0001081
9.58481e-05
9.08555e-05
6.55029e-05
6.54968e-05
9.58235e-05
0.000108088
9.58246e-05
0.000108088
9.08014e-05
2.35435e-05
6.54895e-05
2.35452e-05
6.54966e-05
9.0796e-05
9.58246e-05
9.58151e-05
9.58321e-05
9.58169e-05
9.07665e-05
2.35457e-05
9.07221e-05
8.51477e-05
8.5145e-05
9.58392e-05
9.58188e-05
7.80362e-05
9.5825e-05
7.80356e-05
9.58444e-05
9.08107e-05
2.35452e-05
0.000108105
4.95232e-05
7.80321e-05
2.3545e-05
0.000124782
7.5785e-05
8.47604e-05
7.57748e-05
7.57704e-05
9.58464e-05
9.5823e-05
7.80465e-05
9.5853e-05
0.000108105
4.95231e-05
7.80423e-05
9.08225e-05
2.35459e-05
7.8045e-05
4.95261e-05
4.95259e-05
7.80349e-05
2.35446e-05
2.35447e-05
7.80444e-05
4.95259e-05
7.80325e-05
4.95275e-05
2.35444e-05
2.35454e-05
7.80305e-05
4.95244e-05
7.8042e-05
4.95236e-05
0.000147273
0.00014728
0.000147277
0.000124761
0.000124753
9.58429e-05
8.51551e-05
7.57766e-05
8.51457e-05
9.58443e-05
7.57888e-05
0.0001081
2.35436e-05
2.35445e-05
0.000108104
7.57774e-05
8.51563e-05
8.51479e-05
9.58479e-05
0.000108104
7.57875e-05
6.54957e-05
6.54911e-05
9.0798e-05
6.54979e-05
6.54996e-05
2.35458e-05
2.35464e-05
2.35469e-05
2.35457e-05
6.54962e-05
9.07684e-05
9.07286e-05
6.54979e-05
6.55012e-05
2.35464e-05
2.35455e-05
2.3546e-05
2.35468e-05
9.07562e-05
6.55039e-05
9.08702e-05
6.54989e-05
6.54947e-05
7.80426e-05
7.80318e-05
9.58243e-05
0.000108094
0.0001081
8.51428e-05
7.57797e-05
7.57878e-05
8.51545e-05
0.000108094
8.5138e-05
8.51457e-05
7.80324e-05
4.95259e-05
4.95255e-05
7.80445e-05
7.80301e-05
4.95226e-05
4.95222e-05
7.80427e-05
0.000108095
9.5826e-05
0.00010809
8.51371e-05
7.579e-05
7.57774e-05
8.51405e-05
9.58128e-05
9.58155e-05
0.000108089
8.5133e-05
7.57751e-05
7.57667e-05
8.51448e-05
2.35453e-05
2.35444e-05
9.07658e-05
6.55041e-05
6.54885e-05
6.54829e-05
2.35465e-05
6.54908e-05
6.54956e-05
6.55032e-05
9.08237e-05
2.35461e-05
2.35445e-05
9.07635e-05
6.5498e-05
9.07601e-05
6.5504e-05
6.54942e-05
2.35461e-05
2.35458e-05
2.35474e-05
2.35459e-05
2.35458e-05
9.08522e-05
6.54921e-05
9.075e-05
6.55015e-05
6.55011e-05
2.35481e-05
2.35467e-05
2.35452e-05
2.35446e-05
9.07109e-05
6.55032e-05
6.54996e-05
6.54965e-05
6.54937e-05
7.8042e-05
4.95222e-05
7.80303e-05
4.95227e-05
0.000108092
8.51522e-05
7.57799e-05
9.58278e-05
8.51428e-05
7.57911e-05
0.000108088
0.000108087
8.51508e-05
7.57646e-05
9.58173e-05
8.51491e-05
7.5773e-05
0.000108084
7.80319e-05
4.95281e-05
4.9527e-05
7.80437e-05
7.80293e-05
4.95228e-05
4.95223e-05
7.80414e-05
8.51526e-05
9.5832e-05
7.57908e-05
0.000108088
7.57788e-05
0.000108089
8.51558e-05
8.51452e-05
9.58154e-05
7.57763e-05
0.000108083
7.57647e-05
0.000108084
8.5149e-05
6.54989e-05
6.54829e-05
9.08359e-05
6.5489e-05
6.55047e-05
2.35466e-05
2.35454e-05
2.35444e-05
9.07915e-05
6.54892e-05
6.54834e-05
6.54996e-05
2.35457e-05
7.57771e-05
9.58519e-05
0.000108093
8.5153e-05
9.58412e-05
7.57839e-05
0.000108091
7.80255e-05
4.95191e-05
7.80373e-05
4.95196e-05
0.000108091
9.58189e-05
7.57676e-05
8.51419e-05
9.58184e-05
0.000108087
7.57774e-05
7.80296e-05
4.9523e-05
4.95227e-05
7.80406e-05
8.51469e-05
9.58398e-05
7.57836e-05
0.00010809
7.57709e-05
0.000108092
8.51444e-05
7.8024e-05
4.95196e-05
4.95192e-05
7.80337e-05
8.51343e-05
9.58178e-05
0.000108084
7.57792e-05
0.000108088
7.57662e-05
8.51435e-05
4.95238e-05
7.8047e-05
4.95243e-05
0.000108099
8.51538e-05
7.57727e-05
8.51496e-05
9.58321e-05
0.000108096
7.5781e-05
4.9519e-05
7.80464e-05
4.95208e-05
8.51389e-05
9.58439e-05
0.000108098
7.57771e-05
0.000108099
7.8036e-05
4.95239e-05
8.51424e-05
9.58265e-05
0.000108093
0.000108097
7.57708e-05
7.80353e-05
4.95206e-05
6.54987e-05
6.54882e-05
9.08472e-05
6.54934e-05
6.55046e-05
2.35461e-05
2.35436e-05
9.07763e-05
6.54876e-05
6.54996e-05
2.35452e-05
9.58474e-05
8.51528e-05
7.57737e-05
8.51512e-05
9.58382e-05
0.000108105
7.57815e-05
7.8035e-05
7.80458e-05
4.95237e-05
4.95212e-05
7.80434e-05
4.95206e-05
8.51407e-05
9.58473e-05
0.000108103
7.5777e-05
8.51444e-05
9.58428e-05
0.000108101
7.57723e-05
7.80347e-05
4.95233e-05
7.80326e-05
4.95196e-05
2.35434e-05
2.35454e-05
2.35454e-05
9.07285e-05
6.54931e-05
6.54895e-05
2.35448e-05
2.35441e-05
4.95248e-05
4.95241e-05
7.8042e-05
7.80304e-05
0.000147274
0.00014727
0.000147282
0.000147266
0.000124778
7.57889e-05
9.58515e-05
8.51396e-05
0.000108106
8.16231e-05
9.58511e-05
9.58519e-05
8.51389e-05
0.000108097
8.51461e-05
0.000108097
4.95203e-05
4.952e-05
7.80371e-05
7.80244e-05
7.57795e-05
9.58229e-05
9.58204e-05
8.51368e-05
0.000108093
8.51317e-05
0.000108093
4.95243e-05
7.80425e-05
4.95248e-05
7.80296e-05
9.58533e-05
8.51416e-05
7.57877e-05
9.58526e-05
0.000108096
8.51322e-05
0.000108095
4.95191e-05
7.80382e-05
4.95195e-05
7.80253e-05
8.51418e-05
0.000108092
9.58187e-05
9.58199e-05
7.57775e-05
8.51346e-05
0.000108093
0.0001081
9.58486e-05
8.51524e-05
7.57885e-05
0.000108102
7.8047e-05
4.95243e-05
0.0001081
8.51503e-05
7.57828e-05
9.58258e-05
0.000108102
7.57737e-05
4.95195e-05
4.95206e-05
8.51332e-05
0.000108106
4.95236e-05
7.80445e-05
7.80405e-05
0.000108104
7.57785e-05
9.58498e-05
7.57889e-05
8.51533e-05
8.51397e-05
0.000108107
9.58524e-05
8.51491e-05
7.57841e-05
8.51309e-05
9.58475e-05
0.000108105
7.57744e-05
4.95236e-05
7.80456e-05
7.80336e-05
4.95216e-05
7.80294e-05
4.95195e-05
6.55008e-05
6.54967e-05
9.07066e-05
6.54938e-05
6.54888e-05
2.35443e-05
2.35444e-05
2.35441e-05
8.20166e-05
6.54971e-05
8.54234e-05
4.72817e-05
4.72813e-05
8.20252e-05
8.54083e-05
8.20219e-05
8.54091e-05
6.55027e-05
4.7281e-05
8.20124e-05
4.72815e-05
8.54246e-05
2.35445e-05
8.20261e-05
8.53982e-05
6.54947e-05
4.72682e-05
8.20155e-05
4.72685e-05
8.54123e-05
2.35461e-05
8.2023e-05
8.54112e-05
4.72798e-05
6.5508e-05
8.2009e-05
4.72787e-05
8.54246e-05
2.35465e-05
3.6165e-05
7.69212e-05
4.03784e-05
7.80467e-05
7.69314e-05
4.03789e-05
3.61643e-05
3.6164e-05
4.03789e-05
7.6919e-05
7.80461e-05
4.03794e-05
7.69291e-05
3.61634e-05
2.35461e-05
2.01211e-05
7.08179e-05
4.95237e-05
7.08313e-05
2.01199e-05
3.61631e-05
7.69157e-05
4.03783e-05
7.80427e-05
7.69259e-05
4.03788e-05
3.61624e-05
2.35459e-05
3.61633e-05
4.03793e-05
7.69292e-05
7.80348e-05
3.6164e-05
4.03789e-05
7.69186e-05
2.01211e-05
4.95236e-05
7.08172e-05
2.01198e-05
7.08311e-05
3.61624e-05
7.69257e-05
4.03788e-05
7.80308e-05
3.6163e-05
7.6915e-05
4.03783e-05
2.3545e-05
3.61648e-05
4.03797e-05
7.69345e-05
7.80334e-05
4.03792e-05
7.69239e-05
3.61654e-05
2.0121e-05
4.95264e-05
7.08212e-05
7.08344e-05
2.01198e-05
2.01198e-05
7.08331e-05
4.95255e-05
7.08196e-05
2.01211e-05
3.61654e-05
7.80457e-05
4.03792e-05
7.69249e-05
4.03797e-05
7.69351e-05
3.61648e-05
2.35451e-05
2.35438e-05
3.61648e-05
7.80324e-05
4.03797e-05
7.69348e-05
4.03792e-05
7.69238e-05
3.61654e-05
2.01211e-05
7.08182e-05
4.95266e-05
2.01199e-05
7.08321e-05
3.61654e-05
7.80442e-05
4.03792e-05
7.69234e-05
3.61648e-05
4.03797e-05
7.69344e-05
2.01199e-05
7.08324e-05
4.95266e-05
7.08188e-05
2.01211e-05
2.35454e-05
2.35444e-05
3.61649e-05
4.03785e-05
7.69229e-05
7.80424e-05
7.69333e-05
4.0379e-05
3.61645e-05
2.01211e-05
7.082e-05
4.95244e-05
7.08316e-05
2.01202e-05
3.61643e-05
7.80302e-05
7.69334e-05
4.0379e-05
7.6923e-05
4.03786e-05
3.61649e-05
2.01199e-05
4.95235e-05
7.0832e-05
7.082e-05
2.01211e-05
2.35445e-05
2.35436e-05
8.20296e-05
8.54118e-05
4.72801e-05
6.55068e-05
8.54245e-05
4.72793e-05
8.2022e-05
7.33969e-05
2.14778e-05
2.14768e-05
2.14779e-05
2.14787e-05
7.33898e-05
8.19899e-05
8.53907e-05
4.7266e-05
6.54965e-05
8.53916e-05
4.72679e-05
8.19877e-05
7.33856e-05
2.1479e-05
2.14773e-05
2.14775e-05
2.14772e-05
7.33932e-05
8.19934e-05
6.54887e-05
4.7277e-05
8.54072e-05
8.5388e-05
4.72721e-05
8.20079e-05
8.20073e-05
6.54942e-05
4.72706e-05
8.54144e-05
8.5407e-05
4.72742e-05
8.20178e-05
2.35467e-05
2.35455e-05
2.3546e-05
2.35469e-05
8.20294e-05
6.5503e-05
8.54033e-05
4.72796e-05
4.72815e-05
8.54207e-05
8.20158e-05
7.33904e-05
2.14795e-05
2.1478e-05
2.14771e-05
2.14785e-05
7.33972e-05
8.19952e-05
8.53916e-05
6.55026e-05
4.72684e-05
4.72678e-05
8.54038e-05
8.19788e-05
8.19851e-05
8.54018e-05
4.72673e-05
6.5496e-05
4.72671e-05
8.19981e-05
8.5387e-05
7.33967e-05
2.14778e-05
2.14776e-05
2.14783e-05
2.14793e-05
7.33898e-05
2.35456e-05
2.35464e-05
2.35468e-05
2.35459e-05
8.20096e-05
6.54969e-05
8.54265e-05
4.72812e-05
4.72808e-05
8.20189e-05
8.541e-05
7.3398e-05
2.14786e-05
2.1477e-05
7.3391e-05
2.14777e-05
2.14796e-05
8.19922e-05
8.54005e-05
6.54937e-05
4.72684e-05
4.72673e-05
8.53867e-05
8.20033e-05
8.20012e-05
8.53863e-05
4.7267e-05
6.54999e-05
8.1989e-05
4.72676e-05
8.54011e-05
7.33917e-05
2.14797e-05
2.14778e-05
2.14767e-05
2.14787e-05
7.33987e-05
3.61628e-05
4.03796e-05
7.69267e-05
7.80308e-05
4.03792e-05
7.6916e-05
3.61634e-05
3.61634e-05
7.8043e-05
4.03792e-05
7.69159e-05
4.03796e-05
7.69261e-05
3.61628e-05
3.61654e-05
4.03792e-05
7.69232e-05
7.80443e-05
3.61648e-05
4.03797e-05
7.69339e-05
2.01199e-05
4.95255e-05
7.08314e-05
2.01211e-05
7.08179e-05
2.01211e-05
7.08184e-05
4.95259e-05
2.01198e-05
7.08322e-05
3.61648e-05
7.80324e-05
4.03797e-05
7.69341e-05
3.61654e-05
4.03792e-05
7.69231e-05
3.61634e-05
4.03792e-05
7.69166e-05
7.80422e-05
3.61628e-05
4.03796e-05
7.69273e-05
2.01185e-05
4.95222e-05
7.08161e-05
7.08045e-05
2.01197e-05
2.01197e-05
7.08043e-05
4.95226e-05
2.01185e-05
7.0816e-05
3.61628e-05
7.80304e-05
4.03796e-05
7.69278e-05
4.03792e-05
7.69173e-05
3.61634e-05
2.35444e-05
2.35453e-05
8.19836e-05
6.54987e-05
8.5416e-05
4.72775e-05
4.72772e-05
8.19933e-05
8.53997e-05
8.20144e-05
8.54055e-05
6.54828e-05
4.72691e-05
8.539e-05
4.72688e-05
8.20238e-05
8.20243e-05
8.53905e-05
4.72688e-05
6.54885e-05
8.54056e-05
8.20142e-05
4.72693e-05
7.3393e-05
2.14797e-05
2.1477e-05
2.14761e-05
2.1479e-05
7.33998e-05
2.35456e-05
8.20369e-05
6.54996e-05
4.72752e-05
8.54228e-05
8.20156e-05
6.54903e-05
8.54153e-05
4.72691e-05
4.72698e-05
8.20266e-05
8.54015e-05
8.19933e-05
6.54959e-05
8.54147e-05
4.72798e-05
4.72777e-05
8.20064e-05
8.53958e-05
7.33875e-05
2.14773e-05
2.14799e-05
2.14766e-05
2.14788e-05
7.33948e-05
2.35452e-05
2.35436e-05
8.20049e-05
8.54004e-05
6.55036e-05
4.72797e-05
8.19953e-05
4.72802e-05
8.54177e-05
8.19937e-05
8.54186e-05
6.54986e-05
4.72802e-05
4.72797e-05
8.20032e-05
8.54027e-05
8.20156e-05
6.54888e-05
8.54118e-05
4.72686e-05
4.7268e-05
8.20254e-05
8.53962e-05
7.3396e-05
2.14762e-05
2.14789e-05
7.33887e-05
2.14769e-05
2.14799e-05
7.339e-05
2.14801e-05
2.14769e-05
2.14759e-05
2.14789e-05
7.33971e-05
2.35452e-05
2.35467e-05
2.35461e-05
2.35466e-05
2.35453e-05
7.3387e-05
2.14797e-05
2.14776e-05
2.1478e-05
2.14775e-05
7.33942e-05
8.19979e-05
8.53909e-05
4.72684e-05
6.54989e-05
8.19951e-05
4.72703e-05
8.53922e-05
7.33983e-05
2.14783e-05
2.1477e-05
7.33914e-05
2.14782e-05
2.14789e-05
8.1998e-05
4.72798e-05
6.54923e-05
8.54095e-05
4.72747e-05
8.20169e-05
8.53884e-05
8.19921e-05
6.5495e-05
4.72695e-05
8.54183e-05
4.72737e-05
8.20162e-05
8.54054e-05
2.35472e-05
2.35478e-05
2.35443e-05
2.35452e-05
7.33956e-05
2.14789e-05
2.14764e-05
7.33884e-05
2.14799e-05
2.14773e-05
8.20034e-05
8.54126e-05
6.54976e-05
4.72818e-05
4.72811e-05
8.54014e-05
8.20103e-05
8.20049e-05
8.54113e-05
6.54942e-05
4.72677e-05
4.72671e-05
8.53979e-05
8.20136e-05
8.20146e-05
4.72805e-05
8.53969e-05
6.55025e-05
8.20051e-05
4.72814e-05
8.54153e-05
8.20149e-05
4.72675e-05
8.53999e-05
6.54991e-05
8.20033e-05
4.72677e-05
8.5414e-05
7.33897e-05
2.14799e-05
2.14773e-05
2.1479e-05
2.14763e-05
7.33967e-05
3.61628e-05
7.80302e-05
4.03796e-05
7.69275e-05
4.03792e-05
7.69173e-05
3.61634e-05
2.01197e-05
7.08043e-05
4.95226e-05
2.01185e-05
7.0816e-05
3.61634e-05
7.80424e-05
4.03792e-05
7.69173e-05
4.03796e-05
3.61628e-05
7.69276e-05
2.01185e-05
7.0816e-05
4.95222e-05
7.08042e-05
2.01197e-05
3.61656e-05
4.03793e-05
7.69246e-05
7.8044e-05
3.6165e-05
4.03797e-05
7.69351e-05
2.01201e-05
4.95274e-05
7.08334e-05
2.01213e-05
7.08204e-05
2.01213e-05
7.082e-05
4.95276e-05
2.01202e-05
7.08329e-05
3.6165e-05
7.80332e-05
4.038e-05
7.6935e-05
3.61657e-05
4.03795e-05
7.69247e-05
3.61635e-05
4.03792e-05
7.6917e-05
7.80413e-05
3.61628e-05
4.03796e-05
7.69273e-05
2.01186e-05
4.95223e-05
7.08167e-05
7.08044e-05
2.01197e-05
2.01197e-05
7.08041e-05
4.95227e-05
2.01186e-05
7.08162e-05
3.61628e-05
7.80307e-05
4.03799e-05
7.69277e-05
4.03794e-05
7.69172e-05
3.61635e-05
8.19935e-05
8.53991e-05
4.7277e-05
6.55043e-05
8.54152e-05
8.19835e-05
4.72776e-05
7.33939e-05
2.1477e-05
2.148e-05
2.14761e-05
2.14787e-05
7.34006e-05
8.20244e-05
8.53901e-05
4.72688e-05
6.54887e-05
4.72694e-05
8.20149e-05
8.54057e-05
7.34003e-05
2.14787e-05
2.14761e-05
2.1477e-05
7.33934e-05
2.14797e-05
8.20142e-05
4.72694e-05
6.54833e-05
8.5407e-05
4.72686e-05
8.53906e-05
8.20245e-05
8.19833e-05
6.54993e-05
4.72778e-05
8.54156e-05
8.53995e-05
4.72771e-05
8.1994e-05
2.35457e-05
2.35444e-05
2.35454e-05
7.34009e-05
2.14761e-05
2.14792e-05
7.33941e-05
2.1477e-05
2.14802e-05
8.20153e-05
8.5404e-05
6.54837e-05
4.72694e-05
8.53938e-05
4.72689e-05
8.2024e-05
8.19858e-05
6.55e-05
4.72777e-05
8.54011e-05
8.20252e-05
4.72689e-05
8.53908e-05
6.54891e-05
8.54072e-05
8.20149e-05
4.72694e-05
8.19947e-05
4.72777e-05
8.53997e-05
6.55049e-05
8.19851e-05
4.72782e-05
8.54155e-05
7.33943e-05
2.14761e-05
2.14792e-05
2.35457e-05
2.35466e-05
3.61626e-05
4.0378e-05
7.69127e-05
7.80375e-05
4.03785e-05
7.69231e-05
3.61619e-05
2.01199e-05
7.08016e-05
4.95196e-05
7.08139e-05
2.01187e-05
3.61619e-05
7.80246e-05
4.03785e-05
7.69229e-05
4.0378e-05
7.69122e-05
3.61626e-05
2.01187e-05
4.95191e-05
7.08139e-05
7.08011e-05
2.01199e-05
3.61649e-05
7.69227e-05
4.03786e-05
7.80406e-05
3.61643e-05
7.6933e-05
4.03788e-05
2.01199e-05
4.95225e-05
7.08319e-05
2.01211e-05
7.082e-05
2.01211e-05
7.08195e-05
4.9523e-05
2.01199e-05
7.08318e-05
3.61643e-05
7.80298e-05
7.69332e-05
4.03789e-05
3.61649e-05
7.69226e-05
4.03784e-05
3.61626e-05
4.0378e-05
7.69117e-05
7.80357e-05
3.61619e-05
4.03783e-05
7.69227e-05
2.01187e-05
4.95192e-05
7.08147e-05
7.08016e-05
2.01199e-05
2.01199e-05
7.08012e-05
4.95196e-05
2.01187e-05
7.08142e-05
3.6162e-05
7.80243e-05
4.03783e-05
7.69232e-05
4.03778e-05
7.69121e-05
3.61626e-05
2.01212e-05
7.08169e-05
4.95243e-05
7.08301e-05
2.01199e-05
3.61644e-05
7.8036e-05
7.69313e-05
4.03789e-05
7.69207e-05
4.03784e-05
3.6165e-05
2.01199e-05
4.95239e-05
7.083e-05
7.08166e-05
2.01212e-05
2.01203e-05
7.0803e-05
4.952e-05
7.08153e-05
2.01191e-05
3.61634e-05
7.80354e-05
4.03794e-05
7.69289e-05
4.03789e-05
7.69187e-05
3.6164e-05
2.01191e-05
4.95202e-05
7.08158e-05
7.08033e-05
2.01203e-05
3.61651e-05
7.69207e-05
4.03784e-05
7.80468e-05
3.61644e-05
7.69316e-05
4.03789e-05
2.01199e-05
4.95239e-05
7.08174e-05
2.01212e-05
7.08166e-05
4.95244e-05
2.01199e-05
7.08299e-05
3.61644e-05
7.80364e-05
7.69214e-05
4.03785e-05
3.6164e-05
4.03789e-05
7.69184e-05
7.8046e-05
3.61634e-05
4.03794e-05
7.69288e-05
2.01191e-05
4.95206e-05
7.08036e-05
2.01203e-05
7.08031e-05
4.95211e-05
2.01191e-05
7.0816e-05
3.61634e-05
7.80355e-05
4.0379e-05
7.69188e-05
8.20024e-05
8.54026e-05
4.72795e-05
6.55041e-05
8.54185e-05
8.19924e-05
4.728e-05
8.20259e-05
8.53959e-05
4.72683e-05
6.54938e-05
4.72689e-05
8.20163e-05
8.54116e-05
7.33905e-05
2.14768e-05
2.14798e-05
2.14759e-05
2.1479e-05
7.33976e-05
7.33974e-05
2.14789e-05
2.14759e-05
2.14769e-05
7.33901e-05
2.14799e-05
8.20157e-05
6.54879e-05
4.72687e-05
8.54125e-05
4.72682e-05
8.53963e-05
8.2026e-05
8.19917e-05
6.5499e-05
4.728e-05
8.54188e-05
8.54027e-05
4.72795e-05
8.20016e-05
2.35452e-05
2.35436e-05
2.35445e-05
7.33987e-05
2.14759e-05
2.14791e-05
7.33916e-05
2.14768e-05
2.148e-05
8.20162e-05
6.54875e-05
8.53978e-05
4.72683e-05
8.19913e-05
6.55004e-05
4.72796e-05
8.54036e-05
8.20258e-05
4.72682e-05
8.53961e-05
6.54932e-05
8.5412e-05
8.20158e-05
4.72688e-05
8.20014e-05
4.72796e-05
8.54026e-05
6.55052e-05
8.19914e-05
4.72802e-05
8.54186e-05
7.33925e-05
2.14759e-05
2.14791e-05
2.35452e-05
2.35461e-05
3.61648e-05
7.69215e-05
4.03784e-05
7.80456e-05
7.69319e-05
4.03789e-05
3.61642e-05
3.61642e-05
7.80348e-05
7.69317e-05
4.03789e-05
7.69211e-05
4.03784e-05
3.61649e-05
2.01199e-05
4.95232e-05
7.0831e-05
7.08176e-05
2.01212e-05
2.01199e-05
7.08037e-05
4.95214e-05
7.08155e-05
2.01187e-05
3.61624e-05
7.80322e-05
7.6926e-05
4.03789e-05
7.69157e-05
4.03783e-05
3.61631e-05
2.01187e-05
4.95208e-05
7.08159e-05
7.08033e-05
2.01199e-05
3.61649e-05
7.69209e-05
4.03784e-05
7.80458e-05
3.61642e-05
7.69318e-05
4.03789e-05
2.01212e-05
7.08173e-05
4.95238e-05
2.01199e-05
7.08308e-05
3.61631e-05
7.69156e-05
4.03784e-05
7.80433e-05
3.61624e-05
7.69259e-05
4.03789e-05
2.01199e-05
7.0803e-05
4.952e-05
2.01187e-05
7.08157e-05
2.35447e-05
2.35442e-05
2.35447e-05
7.33907e-05
2.14782e-05
2.14763e-05
7.33875e-05
2.14788e-05
2.14776e-05
8.19986e-05
6.5491e-05
8.53923e-05
4.72743e-05
8.2003e-05
4.72768e-05
8.54056e-05
6.5498e-05
8.20087e-05
8.54028e-05
4.72746e-05
8.20269e-05
4.72697e-05
8.54066e-05
6.54993e-05
8.201e-05
8.54162e-05
4.7273e-05
7.33808e-05
2.14778e-05
2.14764e-05
2.35448e-05
2.35457e-05
2.3545e-05
2.01202e-05
4.95243e-05
7.0834e-05
7.08203e-05
2.01214e-05
2.01214e-05
4.95248e-05
7.08208e-05
7.08345e-05
2.01198e-05
3.61645e-05
7.69333e-05
4.0379e-05
7.80302e-05
7.69225e-05
4.03785e-05
3.61651e-05
3.61651e-05
7.69231e-05
4.03785e-05
7.80422e-05
7.69336e-05
4.0379e-05
3.61642e-05
2.01198e-05
4.95204e-05
7.08007e-05
7.08128e-05
2.01186e-05
2.01186e-05
4.95197e-05
7.0813e-05
7.08011e-05
2.01198e-05
3.61621e-05
4.03787e-05
7.69221e-05
7.80254e-05
4.03782e-05
7.69114e-05
3.61627e-05
3.61627e-05
7.69105e-05
4.03782e-05
7.80366e-05
4.03787e-05
7.69212e-05
3.61621e-05
2.01214e-05
4.95248e-05
7.08197e-05
2.01202e-05
7.08337e-05
3.61645e-05
4.0379e-05
7.69337e-05
7.80303e-05
3.61651e-05
7.69225e-05
4.03785e-05
2.01202e-05
4.95244e-05
7.0833e-05
2.01214e-05
7.08193e-05
3.61651e-05
7.69222e-05
4.03785e-05
7.80416e-05
3.61645e-05
7.69332e-05
4.0379e-05
2.01198e-05
4.95195e-05
7.08014e-05
2.01186e-05
7.08132e-05
3.61621e-05
4.03787e-05
7.69235e-05
7.80261e-05
3.61628e-05
4.03782e-05
7.69131e-05
2.01186e-05
4.95191e-05
7.08135e-05
2.01198e-05
7.08017e-05
3.61628e-05
4.03782e-05
7.69122e-05
7.80371e-05
3.61621e-05
4.03787e-05
7.69229e-05
3.61643e-05
7.69321e-05
4.03789e-05
7.80356e-05
3.6165e-05
7.69212e-05
4.03784e-05
2.01199e-05
4.95238e-05
7.08304e-05
2.01211e-05
7.0817e-05
2.01191e-05
7.08159e-05
4.95196e-05
2.01202e-05
7.0803e-05
2.01202e-05
4.95206e-05
7.08036e-05
2.01191e-05
7.08161e-05
2.01198e-05
4.95229e-05
7.08306e-05
7.08167e-05
2.01211e-05
3.61641e-05
7.6931e-05
7.80331e-05
4.03788e-05
7.692e-05
4.03784e-05
3.61648e-05
3.61624e-05
7.80291e-05
7.6924e-05
4.03788e-05
7.69132e-05
4.03783e-05
3.6163e-05
2.01199e-05
4.95232e-05
7.08314e-05
2.01211e-05
7.08177e-05
3.61642e-05
7.69321e-05
4.03789e-05
7.80344e-05
3.61648e-05
7.69213e-05
4.03784e-05
3.61648e-05
7.69205e-05
7.80449e-05
4.03784e-05
3.61642e-05
7.69319e-05
4.03789e-05
2.01187e-05
7.08162e-05
4.95209e-05
2.01199e-05
7.08032e-05
3.6163e-05
7.80409e-05
7.69138e-05
4.03783e-05
3.61624e-05
7.69247e-05
4.03788e-05
2.01199e-05
4.95208e-05
7.08029e-05
2.01187e-05
7.08155e-05
8.20164e-05
8.54258e-05
4.72808e-05
6.54937e-05
8.20305e-05
8.54065e-05
4.7279e-05
7.33895e-05
2.14788e-05
2.14778e-05
7.33966e-05
2.14771e-05
2.14775e-05
8.19809e-05
8.54002e-05
4.72663e-05
6.5492e-05
8.1996e-05
8.53902e-05
4.72669e-05
7.3397e-05
2.14787e-05
2.14762e-05
7.33949e-05
2.14789e-05
2.14779e-05
8.20017e-05
6.55028e-05
4.7276e-05
8.54063e-05
8.19855e-05
8.54106e-05
4.72719e-05
8.20378e-05
6.54994e-05
4.727e-05
8.53984e-05
8.20037e-05
8.54164e-05
4.7275e-05
2.35438e-05
2.35451e-05
2.35456e-05
8.49452e-05
8.55324e-05
8.61628e-05
8.55404e-05
8.51377e-05
8.49412e-05
8.61647e-05
8.61602e-05
8.55243e-05
8.49218e-05
8.55328e-05
8.51304e-05
8.61625e-05
8.4924e-05
0.000147277
0.000147271
0.000124761
0.000147268
0.000147275
0.000167548
0.00016755
8.95134e-05
8.89585e-05
8.89357e-05
9.08823e-05
8.8937e-05
8.8956e-05
8.9511e-05
8.95134e-05
8.89424e-05
9.0793e-05
8.89411e-05
8.8944e-05
8.95097e-05
8.89456e-05
8.95137e-05
9.07449e-05
8.89531e-05
8.8947e-05
8.89481e-05
8.89416e-05
8.95312e-05
8.95134e-05
8.89426e-05
8.89413e-05
9.08122e-05
8.89463e-05
8.95099e-05
8.89449e-05
8.95112e-05
9.07084e-05
8.89467e-05
8.89478e-05
8.8942e-05
8.8943e-05
8.9531e-05
8.55346e-05
8.49442e-05
8.61682e-05
8.51527e-05
8.49515e-05
8.61667e-05
8.5541e-05
8.55278e-05
8.61658e-05
8.49427e-05
8.51478e-05
8.61637e-05
8.49418e-05
8.5536e-05
8.95169e-05
8.89488e-05
8.89443e-05
9.08623e-05
8.8952e-05
8.95143e-05
8.89477e-05
8.95153e-05
9.0692e-05
8.89435e-05
8.8947e-05
8.47709e-05
7.57764e-05
8.54391e-05
8.16129e-05
8.54337e-05
8.16161e-05
8.47647e-05
8.15998e-05
7.57685e-05
8.47534e-05
7.57787e-05
8.54273e-05
8.54316e-05
8.15988e-05
8.47601e-05
8.54336e-05
7.57853e-05
8.16081e-05
8.54391e-05
8.47673e-05
8.16092e-05
8.47574e-05
8.54271e-05
7.5779e-05
8.16089e-05
8.5432e-05
8.47608e-05
8.16152e-05
8.95118e-05
8.89627e-05
8.89353e-05
9.07516e-05
8.95157e-05
8.89302e-05
8.8959e-05
0.000124775
0.000147277
0.000124767
0.000147268
0.000147277
0.000167548
0.000167549
0.00012478
0.000147276
0.000124767
0.000147268
0.000147279
0.00016755
0.000167551
0.000124768
0.000147268
0.000124762
0.000147265
0.000147277
0.000167549
0.00016755
0.000124761
0.000147266
0.000147273
0.000147266
0.000147274
0.000167547
0.000167547
0.000124762
0.000147262
0.000147275
0.000147263
0.000147277
0.000167548
0.000167548
0.000124769
0.000147271
0.000147267
0.000147274
0.000167545
0.000167545
0.000124769
0.000147272
0.000147269
0.000147274
0.000167547
0.000167547
8.55341e-05
8.61718e-05
8.49524e-05
8.51567e-05
8.49506e-05
8.617e-05
8.55424e-05
8.47698e-05
8.54358e-05
8.16277e-05
7.57881e-05
8.54407e-05
8.16231e-05
8.47762e-05
8.55403e-05
8.51521e-05
8.49329e-05
8.61696e-05
8.49391e-05
8.61723e-05
8.55316e-05
8.47713e-05
7.57766e-05
8.16107e-05
8.54412e-05
8.54357e-05
8.16149e-05
8.47624e-05
8.47698e-05
8.54362e-05
8.16272e-05
7.57873e-05
8.54412e-05
8.16304e-05
8.47733e-05
8.55356e-05
8.61737e-05
8.49545e-05
8.5158e-05
8.61711e-05
8.4956e-05
8.55436e-05
8.55419e-05
8.51538e-05
8.61706e-05
8.49397e-05
8.61741e-05
8.49487e-05
8.55329e-05
8.47748e-05
7.57766e-05
8.16219e-05
8.54414e-05
8.5436e-05
8.16266e-05
8.47695e-05
8.95087e-05
9.08442e-05
8.89454e-05
8.89453e-05
8.89419e-05
8.89446e-05
8.95123e-05
8.95117e-05
8.89549e-05
9.07447e-05
8.89273e-05
8.8931e-05
8.8958e-05
8.95068e-05
8.95095e-05
8.89592e-05
9.07076e-05
8.89344e-05
8.95142e-05
8.89288e-05
8.89548e-05
8.95151e-05
8.89562e-05
9.08107e-05
8.89324e-05
8.95114e-05
8.89378e-05
8.89603e-05
8.95118e-05
9.08332e-05
8.89592e-05
8.89388e-05
8.89349e-05
8.95142e-05
8.89566e-05
8.55448e-05
8.61679e-05
8.49437e-05
8.51476e-05
8.49455e-05
8.61719e-05
8.55356e-05
8.47725e-05
8.54342e-05
7.57885e-05
8.16301e-05
8.16345e-05
8.54388e-05
8.47754e-05
8.47791e-05
8.54387e-05
8.16311e-05
7.57783e-05
8.16334e-05
8.54335e-05
8.47743e-05
8.55379e-05
8.61718e-05
8.51534e-05
8.49486e-05
8.49492e-05
8.61692e-05
8.55458e-05
8.55339e-05
8.61644e-05
8.49178e-05
8.5142e-05
8.49171e-05
8.61679e-05
8.55259e-05
8.55267e-05
8.61676e-05
8.51464e-05
8.49264e-05
8.49222e-05
8.61651e-05
8.5535e-05
8.55341e-05
8.61674e-05
8.49379e-05
8.51364e-05
8.55425e-05
8.49352e-05
8.61644e-05
8.47688e-05
8.54381e-05
7.57779e-05
8.16084e-05
8.54327e-05
8.16089e-05
8.47596e-05
8.47682e-05
8.54327e-05
8.1622e-05
7.57884e-05
8.5438e-05
8.47776e-05
8.16159e-05
8.55408e-05
8.61647e-05
8.51365e-05
8.49287e-05
8.49297e-05
8.61671e-05
8.5533e-05
8.55283e-05
8.61641e-05
8.49207e-05
8.5134e-05
8.55346e-05
8.49317e-05
8.61617e-05
8.47633e-05
8.54291e-05
7.5767e-05
8.16185e-05
8.1613e-05
8.54239e-05
8.47604e-05
8.47555e-05
8.54242e-05
8.16013e-05
7.57766e-05
8.47583e-05
8.16086e-05
8.5429e-05
8.55366e-05
8.61632e-05
8.51381e-05
8.49441e-05
8.4937e-05
8.61642e-05
8.553e-05
8.95101e-05
9.07567e-05
8.89458e-05
8.89442e-05
8.89404e-05
8.95137e-05
8.89417e-05
8.95105e-05
8.89461e-05
9.084e-05
8.89509e-05
8.95146e-05
8.89476e-05
8.89432e-05
8.95145e-05
9.0718e-05
8.89517e-05
8.89471e-05
8.95191e-05
8.89426e-05
8.89473e-05
8.95175e-05
8.89416e-05
9.07387e-05
8.89464e-05
8.95125e-05
8.89456e-05
8.89503e-05
8.95119e-05
8.89534e-05
8.89383e-05
9.08319e-05
8.95095e-05
8.89385e-05
8.89511e-05
8.95078e-05
9.07747e-05
8.89479e-05
8.89416e-05
8.95124e-05
8.8944e-05
8.89396e-05
8.95156e-05
9.07271e-05
8.89448e-05
8.89382e-05
8.95101e-05
8.89502e-05
8.89434e-05
8.55444e-05
8.51492e-05
8.49512e-05
8.61682e-05
8.49401e-05
8.61706e-05
8.55371e-05
8.47605e-05
8.54328e-05
8.16107e-05
7.57904e-05
8.16192e-05
8.47637e-05
8.54386e-05
8.55352e-05
8.61677e-05
8.51475e-05
8.49275e-05
8.49338e-05
8.55416e-05
8.61672e-05
8.47703e-05
8.16331e-05
7.57811e-05
8.54398e-05
8.16256e-05
8.5434e-05
8.47703e-05
8.5538e-05
8.51527e-05
8.49386e-05
8.61672e-05
8.49428e-05
8.61695e-05
8.5529e-05
8.47619e-05
8.54236e-05
8.16181e-05
7.57731e-05
8.47669e-05
8.16172e-05
8.54288e-05
8.55308e-05
8.61663e-05
8.51535e-05
8.49455e-05
8.55383e-05
8.49471e-05
8.61664e-05
8.47653e-05
8.16068e-05
7.57636e-05
8.54291e-05
8.16109e-05
8.47579e-05
8.54239e-05
8.55381e-05
8.49543e-05
8.61697e-05
8.51531e-05
8.55458e-05
8.49616e-05
8.61673e-05
8.47774e-05
8.54401e-05
7.57789e-05
8.16239e-05
8.54352e-05
8.16196e-05
8.47673e-05
8.47742e-05
8.16338e-05
8.54346e-05
7.57905e-05
8.54402e-05
8.47787e-05
8.16323e-05
8.55443e-05
8.51445e-05
8.49579e-05
8.61652e-05
8.49398e-05
8.61681e-05
8.55353e-05
8.55279e-05
8.49312e-05
8.61675e-05
8.51412e-05
8.5536e-05
8.49292e-05
8.61639e-05
8.47611e-05
8.54295e-05
7.5765e-05
8.16166e-05
8.16026e-05
8.54246e-05
8.47573e-05
8.4755e-05
8.16015e-05
8.54239e-05
7.57753e-05
8.47608e-05
8.16023e-05
8.54294e-05
8.55347e-05
8.5131e-05
8.49432e-05
8.6161e-05
8.49183e-05
8.61643e-05
8.55268e-05
8.95101e-05
9.08213e-05
8.89453e-05
8.89464e-05
8.89426e-05
8.89418e-05
8.95131e-05
8.95138e-05
9.07545e-05
8.89409e-05
8.8942e-05
8.89447e-05
8.95094e-05
8.8946e-05
8.47661e-05
8.16235e-05
8.54352e-05
7.5786e-05
8.16293e-05
8.54397e-05
8.47686e-05
8.55422e-05
8.51534e-05
8.49551e-05
8.61688e-05
8.49531e-05
8.61711e-05
8.55344e-05
8.47742e-05
7.57735e-05
8.16314e-05
8.54388e-05
8.16307e-05
8.5434e-05
8.47705e-05
8.47614e-05
8.16181e-05
8.54269e-05
7.57762e-05
8.16138e-05
8.54317e-05
8.47672e-05
8.5534e-05
8.51454e-05
8.61652e-05
8.49287e-05
8.6168e-05
8.49348e-05
8.55252e-05
8.47632e-05
7.57659e-05
8.16024e-05
8.54317e-05
8.1606e-05
8.47548e-05
8.54265e-05
8.55326e-05
8.49499e-05
8.61681e-05
8.51404e-05
8.55413e-05
8.49437e-05
8.61647e-05
8.47709e-05
8.54376e-05
7.57713e-05
8.16164e-05
8.54328e-05
8.16035e-05
8.47607e-05
8.47691e-05
8.16252e-05
8.54327e-05
7.57828e-05
8.54379e-05
8.47755e-05
8.16189e-05
8.55381e-05
8.51275e-05
8.49408e-05
8.61613e-05
8.49202e-05
8.61654e-05
8.55295e-05
8.55244e-05