/*--------------------------------*- C++ -*----------------------------------*\
| =========                 |                                                 |
| \\      /  F ield         | OpenFOAM: The Open Source CFD Toolbox           |
|  \\    /   O peration     | Version:  v2006                                 |
|   \\  /    A nd           | Website:  www.openfoam.com                      |
|    \\/     M anipulation  |                                                 |
\*---------------------------------------------------------------------------*/
FoamFile
{
    version     2.0;
    format      ascii;
    class       surfaceScalarField;
    location    "125";
    object      phi;
}
// * * * * * * * * * * * * * * * * * * * * * * * * * * * * * * * * * * * * * //

dimensions      [0 3 -1 0 0 0 0];
oriented        oriented;


internalField   nonuniform List<scalar> 
41280
(
-1.04513e-08
-2.88264e-07
2.78537e-07
9.40092e-07
-2.66521e-07
-9.39784e-07
2.59491e-07
-0.00114452
1.03835e-06
-8.5474e-07
-1.03426e-06
8.56056e-07
-0.0011523
-1.58747e-08
-3.64199e-08
1.36634e-07
6.01616e-09
0.000248775
-0.000248865
-5.15296e-08
0.000255983
2.22624e-07
4.73153e-10
-0.000256155
-1.28779e-08
3.84496e-08
-8.28511e-09
0.000280382
-0.000280415
4.31109e-09
9.78944e-05
-9.79116e-05
-5.44922e-09
0.000194356
-0.000194383
0.000232534
2.5892e-10
-1.79766e-08
-0.000232568
2.06621e-08
-0.000224508
1.4984e-08
-4.94615e-08
0.000183914
2.08119e-08
-6.10629e-09
-0.000183937
6.72363e-09
-1.56792e-08
4.89358e-08
-0.000224547
-2.25002e-08
-0.000224588
2.279e-08
1.27936e-08
-5.1785e-08
0.000254953
-2.86576e-08
7.8757e-08
3.92749e-08
-0.000255004
2.26126e-08
0.000183974
-6.13687e-09
-0.000183999
-3.55726e-08
8.67046e-09
1.08997e-08
-1.70501e-08
-8.35981e-08
-3.00609e-08
-1.56424e-08
4.64777e-08
-0.000224625
6.64797e-09
6.59569e-09
-0.000215318
6.71752e-09
8.07762e-05
7.29479e-09
-8.07896e-05
7.16223e-09
8.07917e-05
-8.0805e-05
-0.000215335
-6.21447e-09
-1.85164e-08
-7.92071e-05
-8.89888e-10
0.000264916
-2.06303e-08
-5.65908e-10
4.86076e-08
-0.000264949
-8.95253e-10
-3.18513e-08
-3.01496e-09
-4.92398e-08
-1.18458e-09
-7.92265e-05
-2.0837e-08
-0.000143649
4.37852e-10
1.17775e-09
1.89664e-08
-5.14367e-08
0.000225859
-1.97041e-08
5.30215e-08
-0.000225893
1.35622e-09
0.000171563
-0.000171582
-5.65709e-08
-0.000143668
-1.39899e-07
-0.000247074
0.000265961
-1.41887e-07
-0.0002663
-0.000247257
-0.000269983
8.78952e-09
2.23639e-07
-8.74395e-09
1.38014e-08
0.000265532
-0.000265637
2.21696e-07
0.000255134
1.50255e-09
-0.000255303
-1.28686e-07
-1.0542e-08
6.95929e-09
-0.000270694
-7.03675e-09
-0.000271662
-1.18356e-09
2.45087e-07
-2.25633e-07
2.19515e-09
1.14226e-09
0.000272033
-0.000272666
2.39393e-07
0.00025477
-0.000254955
-0.000272449
1.37054e-06
1.90821e-07
-1.23698e-06
3.06206e-07
-2.65961e-07
2.72976e-07
9.48191e-07
-0.00114448
2.05534e-07
-9.36968e-07
-2.44858e-07
-1.26359e-06
2.65848e-07
2.88934e-07
-1.35708e-06
-0.000273617
-1.25823e-07
-1.34141e-07
2.70389e-07
-9.42532e-07
2.59675e-07
9.40298e-07
-2.66438e-07
-0.00114414
-1.35484e-06
-2.96396e-07
1.24438e-06
-1.94272e-07
-1.67014e-07
-1.36845e-06
2.59228e-07
-3.134e-07
-9.53124e-07
2.48896e-07
-2.99008e-07
9.37677e-07
-0.00114409
-0.000273601
2.57774e-07
2.96885e-07
2.88671e-08
-1.45862e-07
-0.00116411
-1.14823e-08
-6.30241e-09
-0.00116417
3.4616e-08
1.09003e-08
-1.46879e-08
-3.32809e-08
9.24406e-09
-0.000280387
-6.28783e-09
-9.78969e-05
3.19084e-08
-1.28764e-07
-1.06465e-08
-0.000248775
5.40239e-08
-1.98229e-09
9.53879e-10
-2.23141e-07
-0.000255989
-9.88012e-10
-0.000194358
-3.45626e-10
1.26188e-09
1.90155e-08
-0.000232536
3.40936e-08
1.70101e-08
-1.31105e-07
-1.06426e-08
-0.00024871
5.40093e-08
-2.25721e-07
3.29393e-10
-0.000255963
6.26346e-09
-5.61687e-10
-0.000194308
1.90075e-08
8.83852e-10
-0.000232498
-1.31847e-08
-6.34899e-09
-9.78791e-05
-3.09143e-08
9.3082e-09
-1.71236e-08
-0.000280265
1.09737e-08
-1.71082e-08
-3.56492e-08
8.68551e-09
-0.000280382
-6.22033e-09
-9.78944e-05
1.52249e-09
3.97955e-08
-1.03714e-06
8.56083e-07
1.03839e-06
-8.57559e-07
-0.00115247
3.19338e-08
-1.28816e-07
-0.000248775
-1.06035e-08
-8.83774e-10
5.40109e-08
-0.000255984
-2.25712e-07
7.52448e-10
2.87106e-08
-1.03969e-06
8.53257e-07
-8.57498e-07
1.03537e-06
-0.00115242
3.19012e-08
1.50105e-08
-1.19025e-07
-0.000248691
-1.07838e-08
5.39572e-08
-0.000255959
-2.2308e-07
1.72114e-09
-0.000194356
-9.07973e-10
-3.45396e-11
-0.000232534
1.00029e-09
1.90053e-08
6.41138e-09
-0.000194303
-1.18034e-09
-0.000232494
1.16169e-09
1.89248e-08
1.08692e-08
-4.27417e-08
1.02786e-08
-0.000280335
1.08376e-08
-2.36972e-08
-0.000280278
7.82717e-09
-9.78857e-05
-9.78799e-05
2.26048e-08
-3.01511e-08
-0.000254951
-8.38275e-08
-2.08134e-08
6.69521e-09
-0.00018397
1.50564e-08
-0.000224584
-5.19048e-08
-6.64274e-09
-6.6551e-09
-8.07777e-05
-6.70373e-09
-8.07905e-05
-1.50982e-08
-0.00021532
1.85081e-08
-3.09236e-09
-4.68615e-08
-0.000264919
-9.51256e-10
-7.92071e-05
2.08881e-08
-5.41455e-08
-0.000225862
-3.90921e-10
-2.73514e-11
-0.000171563
-0.00014365
1.6358e-08
-3.15511e-09
-5.17161e-08
-0.00026479
-8.06254e-10
-7.91654e-05
-3.6607e-10
-0.000171531
1.88832e-08
-5.66846e-08
-0.000225763
-0.000143583
2.25701e-08
-7.86639e-08
-0.000254784
-3.26323e-08
-2.06998e-08
6.73902e-09
-0.000183914
1.513e-08
-4.95236e-08
-0.000224511
2.25542e-08
-8.35794e-08
-3.01848e-08
-0.000254949
-2.28192e-08
6.64207e-09
-0.000183974
1.50464e-08
-5.19391e-08
-0.000224588
-6.60392e-09
-8.07762e-05
-6.7659e-09
-8.07916e-05
-0.000215318
2.06602e-08
7.92071e-05
-1.17663e-09
-7.92266e-05
-5.4694e-09
3.64852e-08
-4.33158e-09
-0.000194383
-0.000264916
1.85686e-08
-3.05167e-09
-4.9336e-08
-5.85984e-10
4.86379e-08
-0.000264949
-8.94679e-10
1.97237e-08
-1.34496e-09
0.000143649
-0.000143668
5.1229e-10
-1.79891e-08
-1.51948e-11
5.15714e-08
-0.000232568
-0.000225859
2.08905e-08
-5.66539e-08
-0.000171563
-4.4864e-10
4.95098e-11
5.30706e-08
-0.000225893
7.01264e-11
-0.000171582
1.86936e-08
7.91631e-05
-1.52437e-09
-7.91803e-05
-5.77018e-09
-5.92283e-09
3.8743e-08
-0.00019433
-0.000264786
1.63412e-08
-3.22271e-09
-4.69519e-08
-7.8286e-10
4.8762e-08
-0.000264821
-8.39454e-10
1.76653e-08
-1.50845e-09
0.000143579
-0.000143597
4.20715e-10
-1.79363e-08
5.15215e-08
-0.000232528
-0.00022576
1.87885e-08
-5.41384e-08
-0.000171529
-3.2548e-10
5.30825e-08
-0.000225796
-0.000171548
3.72298e-08
-1.09943e-07
-4.01746e-08
-0.000254896
-2.72239e-08
8.10189e-09
-0.000183958
2.57023e-08
-6.00727e-08
-0.000224564
0.000224522
7.2383e-08
-4.02817e-08
9.56882e-08
-0.000224574
-7.64259e-08
7.88871e-09
-0.000254798
-5.48435e-08
-2.26461e-08
6.64467e-08
-1.1386e-08
-1.4974e-08
2.03816e-08
-0.000280339
-1.63628e-08
-0.000183923
6.82916e-09
6.60645e-09
-4.0965e-08
2.16476e-07
5.19486e-08
-0.000254928
-0.000183963
-1.10059e-08
-6.73303e-09
-8.07884e-05
-6.47296e-09
-8.07785e-05
-0.000215315
-9.79008e-05
1.42612e-07
-2.92282e-07
-0.000266323
1.37449e-07
-0.000265961
-0.000247079
0.000247063
5.33702e-08
2.21446e-07
1.19694e-09
-0.000247243
-3.11941e-07
-2.25046e-07
-0.000275669
1.63046e-07
-0.000265968
1.17002e-07
-0.000266273
4.90615e-08
-0.000266542
-0.000266374
5.47828e-09
-0.00117373
-1.71603e-07
-0.00117373
-1.66003e-07
-6.18081e-09
-2.62308e-07
-0.000265533
-2.23836e-07
-4.64316e-09
-0.000255137
1.81254e-09
-9.48625e-07
-0.000269984
-2.42681e-07
-0.000254774
-2.44251e-09
-4.8313e-09
-8.58869e-07
-0.000272041
-1.04405e-06
-0.000271671
-6.00948e-09
-0.000265464
-2.2367e-07
-4.73191e-09
-0.000255051
1.82726e-09
-0.000269911
-3.24109e-09
-8.58813e-07
-0.000272029
-2.45224e-07
-0.000254691
-1.04103e-06
-0.000271608
0.000269981
-1.11372e-08
-2.21707e-07
1.60273e-09
-0.000270692
-8.86157e-09
-0.000265527
1.34252e-07
6.01634e-09
-1.59234e-08
-0.000248862
-2.23863e-07
-0.000255134
-4.61543e-09
-6.09255e-09
-3.92024e-08
-0.000265631
1.51174e-09
-0.000255303
0.000271664
6.81324e-10
-2.39373e-07
-0.00027246
2.25233e-07
-5.07581e-10
-5.07205e-10
-0.000256156
-1.44504e-09
-0.000272034
6.77526e-10
-2.45256e-07
-0.00025477
-2.96978e-09
-0.000272663
-0.000254955
-2.21649e-07
-1.3708e-08
0.000269903
4.17512e-09
-0.000270625
-0.000265446
-6.329e-09
5.89327e-09
1.43954e-07
-0.000248781
-0.000255038
-2.16233e-07
-7.0704e-09
1.46955e-09
-0.000255207
-0.000265563
-1.40179e-08
1.808e-09
-2.39296e-07
0.0002716
-0.000272398
2.25166e-07
-7.06268e-10
-0.000256132
-0.000272027
2.59391e-09
-0.000254688
-2.39933e-07
-0.00027266
-0.000254873
-5.67448e-08
3.45333e-13
-0.000232535
8.48012e-10
2.12824e-08
0.000232569
-1.14111e-09
0.000256161
3.71649e-10
-2.2615e-07
-0.000255991
-5.67088e-08
-0.000232496
2.12223e-08
1.39783e-09
0.00023253
0.000256131
-2.26139e-07
1.85789e-09
-0.000255964
1.78588e-08
-1.3979e-09
0.00014365
-0.000143668
1.39972e-09
2.2046e-10
-2.01598e-08
2.54649e-10
4.91337e-08
-0.000232564
-0.000225857
1.91182e-08
0.000225892
-5.94311e-08
5.30279e-09
-0.000171563
-4.31762e-10
5.35075e-11
0.000171585
5.08e-08
-0.00022589
6.02906e-10
9.03277e-11
-0.000171585
0.000143668
7.89817e-10
-1.67513e-09
1.78249e-08
0.000143578
-0.000143596
1.47517e-09
-2.01121e-08
5.56607e-10
5.16097e-08
-0.000232528
-0.000171528
-3.44979e-10
0.000171549
-0.000225761
1.9114e-08
0.000225797
-5.70051e-08
3.2552e-09
-0.00017155
5.32161e-08
-0.000225797
6.97127e-10
0.000143596
8.98304e-10
1.47507e-07
-1.6436e-07
-1.13302e-08
-8.4711e-08
0.00116447
-0.00116435
2.25271e-08
-1.19497e-08
0.0011525
-2.28228e-09
-0.00115252
1.04145e-06
-8.54775e-07
8.59043e-07
-1.03437e-06
-1.32964e-06
-0.00114407
3.42888e-08
0.00114405
-2.8842e-07
1.33471e-06
2.84005e-07
2.05444e-09
9.4588e-07
-2.72163e-07
2.62238e-07
-9.45462e-07
1.27857e-06
-0.000275677
1.33228e-06
-2.6562e-07
-2.76464e-07
0.000273609
0.000280415
-1.48102e-08
1.33777e-08
-0.00028039
-3.35088e-08
9.48506e-09
1.338e-08
-1.54824e-08
3.61397e-08
0.00028039
-8.60053e-09
-1.59254e-07
-1.37432e-06
0.00114491
-1.84168e-07
1.25817e-06
-3.16146e-07
2.70394e-07
9.43493e-07
-2.94035e-07
2.57055e-07
-9.58836e-07
-0.00114435
0.00115252
1.1948e-08
-0.00115234
-1.03955e-06
8.61964e-07
-8.60276e-07
1.04416e-06
-1.94855e-07
-5.87758e-09
-1.36587e-06
-0.00114448
-1.56629e-07
0.00114491
1.26667e-06
-3.02016e-07
2.78831e-07
9.48676e-07
-2.69563e-07
2.62402e-07
-9.50862e-07
-1.41451e-07
1.37813e-08
-7.02719e-09
0.0011525
1.68487e-08
1.04413e-06
-8.60305e-07
-1.03965e-06
8.59132e-07
1.29202e-06
1.32166e-06
-2.68324e-07
0.000273621
-2.68516e-07
-0.000275698
1.53603e-08
-9.78986e-05
4.27797e-09
9.7879e-05
1.57936e-08
-0.000280293
3.86761e-08
0.000280265
-1.10273e-08
4.31344e-09
-9.79117e-05
1.31401e-08
9.78943e-05
-0.000280413
-1.54019e-08
1.57473e-08
4.32924e-08
-1.03039e-08
0.00028038
-1.33997e-06
-1.29435e-06
-0.000273632
2.76e-07
2.81228e-07
-0.00114444
-1.36038e-06
-1.51572e-07
0.0011448
-2.93942e-07
1.26934e-06
2.92488e-07
9.56345e-07
-2.64264e-07
-9.4302e-07
2.86606e-07
-1.287e-06
-0.00114479
2.86771e-08
0.00114477
-2.88624e-07
1.29148e-06
2.83933e-07
-2.95818e-09
9.48311e-07
-2.72225e-07
-9.45216e-07
2.62158e-07
-2.22837e-08
-0.00114406
1.76161e-08
-1.32988e-06
2.86548e-07
-2.91238e-07
-9.45615e-07
2.61972e-07
-2.7219e-07
9.45483e-07
1.33792e-06
-1.93072e-07
-0.00114418
2.89628e-08
-1.33019e-06
2.86876e-07
-2.91228e-07
-9.42565e-07
2.64774e-07
-2.69453e-07
9.48282e-07
1.32401e-06
-0.000275692
-2.68503e-07
-2.68438e-07
0.000273618
-9.79141e-05
1.30303e-08
4.31603e-09
9.78968e-05
-1.36017e-06
-0.000273637
2.86642e-07
2.78599e-07
-8.06714e-10
-5.15849e-08
-0.000256163
-1.24278e-09
2.25241e-07
0.000255992
-5.15329e-08
-0.000256134
2.25202e-07
7.70821e-10
0.000255958
-1.0866e-08
-0.00114504
-1.05504e-08
-1.28411e-06
2.7864e-07
-2.82718e-07
-9.47925e-07
2.62373e-07
-2.71971e-07
9.48551e-07
-0.00114456
1.55779e-07
-1.26159e-06
-2.77403e-07
-9.47909e-07
2.59456e-07
-2.72061e-07
9.4842e-07
3.53367e-10
5.41985e-08
-0.000232568
2.63903e-10
-1.80521e-08
0.000232531
-0.00114479
3.8901e-08
0.00114467
-2.80168e-07
1.3e-06
2.95324e-07
1.85252e-08
9.50982e-07
-2.6696e-07
2.81286e-07
-9.39723e-07
-0.00023253
5.42166e-08
-1.80688e-08
3.98688e-10
0.000232494
-6.13864e-08
-0.00114459
1.5571e-07
-1.26161e-06
2.92517e-07
-2.79981e-07
-9.42479e-07
-2.71942e-07
-0.000275691
1.28413e-06
-2.68378e-07
-2.68517e-07
0.000273614
4.37496e-09
-9.79117e-05
1.30278e-08
9.78943e-05
-0.00115246
1.13542e-08
-1.14668e-08
3.87487e-09
0.00115247
1.03585e-06
-8.57396e-07
8.53493e-07
-1.03682e-06
3.67219e-08
-0.000194383
-5.58324e-09
0.000194356
-0.00023253
5.16255e-08
-5.70124e-12
5.5944e-10
-1.80253e-08
0.000232496
-9.79034e-05
1.31091e-08
4.21667e-09
9.78861e-05
-1.5771e-07
-0.00116441
-1.35994e-07
1.14227e-08
0.00116454
0.000248869
3.43332e-08
-0.000248778
-1.29002e-07
-1.07271e-08
9.53355e-07
-2.24593e-07
0.000269908
-1.61287e-08
4.20662e-09
-0.000270625
-3.89914e-08
1.36868e-07
0.000248778
6.06898e-09
-0.00024877
-3.90388e-08
1.37e-07
0.00024868
8.40294e-09
0.00114458
3.35339e-08
-2.88318e-07
1.29987e-06
2.8418e-07
-3.71049e-09
-0.0011446
9.43305e-07
-2.69341e-07
2.59753e-07
-9.42485e-07
1.28568e-06
-3.29128e-08
-0.00114466
2.75657e-07
-1.28987e-06
-2.997e-07
-2.19998e-08
-9.53208e-07
2.56814e-07
9.40243e-07
-2.91328e-07
-6.77373e-10
-5.41061e-08
1.91136e-08
1.44797e-09
-0.000232495
1.3763e-06
2.0548e-07
-0.00114458
-1.26162e-06
2.95008e-07
-2.77507e-07
1.84945e-07
-9.42517e-07
2.59581e-07
9.45966e-07
-2.748e-07
-5.67408e-09
-2.70058e-08
-2.85587e-08
-0.00115242
-1.03137e-06
8.59027e-07
1.04134e-06
-8.51878e-07
-0.000194383
3.66373e-08
0.000194356
-5.48046e-09
-5.41059e-08
-2.69304e-10
1.10469e-09
1.90601e-08
-0.000232496
-1.34057e-06
2.73227e-07
2.84278e-07
-0.000273609
-6.35508e-09
-1.11e-08
-9.7886e-05
-1.83071e-10
-5.4205e-08
0.000232567
2.12608e-08
9.94936e-10
-0.000232535
-4.1817e-09
3.69285e-08
0.000194369
-5.85181e-09
-0.000194396
6.49081e-09
-3.43231e-08
0.000194394
-1.27316e-09
-0.000194365
1.32013e-10
5.4129e-08
0.000232535
-2.01832e-08
4.3404e-10
-0.000232569
1.32225e-08
4.20725e-09
9.78852e-05
-9.79026e-05
-1.08243e-08
-6.38476e-09
-9.78814e-05
-3.22076e-10
-5.40707e-08
0.000232569
-0.000232537
2.12197e-08
1.07267e-09
-0.000194394
-4.3918e-09
3.44448e-08
-5.03993e-09
0.000194369
-0.000232567
-2.06394e-11
5.16341e-08
0.000232534
-2.01746e-08
8.46337e-10
7.89273e-09
-3.19723e-08
0.000194398
-9.80593e-10
-0.000194373
-9.79029e-05
4.2306e-09
1.52875e-08
9.78833e-05
-6.39584e-09
-1.30766e-08
9.79028e-05
-9.78834e-05
1.15746e-10
-0.000232566
-2.01666e-08
-1.45503e-10
0.000232535
-4.37372e-09
3.89342e-08
-0.000194388
-5.62073e-09
0.000194359
-5.40771e-08
-4.39285e-10
0.000232564
-0.000232532
1.33152e-09
2.12229e-08
6.36282e-09
-2.95555e-08
0.000194381
-0.000194357
-1.62503e-09
-1.70536e-08
-0.00117409
-1.09701e-07
1.70733e-08
0.00117415
4.57318e-08
-0.00117384
-1.33013e-08
3.66668e-10
0.00117386
-7.33187e-10
-9.38199e-10
5.67098e-09
0.00117384
1.26571e-07
-0.00117394
-0.00116444
5.58607e-09
-4.47975e-08
-0.00116414
7.43458e-08
1.20423e-07
0.00114407
-0.00114409
-2.8819e-07
1.33205e-06
2.84187e-07
1.29404e-08
9.43179e-07
-2.69358e-07
2.59588e-07
-9.42665e-07
1.55175e-09
-0.000256159
2.22668e-07
4.93925e-10
0.000255989
-1.34907e-08
-3.66694e-08
-0.000248863
1.36932e-07
6.03496e-09
0.00024877
5.40576e-08
-2.28023e-09
0.000256161
-0.000255986
1.491e-09
-2.28462e-07
-1.73298e-07
1.26096e-06
0.00114457
-1.99921e-07
-9.42724e-07
2.65059e-07
-2.66571e-07
9.4579e-07
-1.36287e-06
2.70404e-07
-2.96449e-07
1.47376e-08
3.19755e-08
0.000248865
-0.000248775
-1.07254e-08
-1.26414e-07
-9.79658e-08
0.0011524
2.87612e-08
-1.03723e-06
8.58911e-07
-8.57625e-07
1.04117e-06
-9.78987e-05
4.27e-09
1.53496e-08
9.78791e-05
-6.38327e-09
-1.32189e-08
9.78987e-05
-9.78791e-05
0.00115252
-0.00115251
1.10513e-08
1.04149e-06
-8.57524e-07
8.56359e-07
-1.03708e-06
-1.35623e-08
-0.000248862
1.37032e-07
6.05096e-09
0.00024877
-1.0193e-09
-5.16626e-08
-0.000256164
2.25243e-07
-6.88168e-10
0.000255992
-3.39503e-10
5.40286e-08
0.000256159
-0.000255987
-2.25826e-07
8.29239e-10
-1.33647e-07
1.26657e-06
0.00114449
-1.82279e-07
-9.45444e-07
2.62371e-07
-2.69363e-07
9.43102e-07
-1.36283e-06
2.73065e-07
-2.96547e-07
1.38699e-08
0.00115234
3.96453e-08
-1.03715e-06
8.53446e-07
-8.57496e-07
1.03573e-06
1.71052e-08
3.1961e-08
0.000248862
-0.000248772
-1.06554e-08
-1.28777e-07
1.58402e-08
-0.000280375
3.85798e-08
-7.9826e-09
0.000280342
1.352e-08
-1.30803e-08
-0.000280299
3.3855e-08
-6.42042e-09
0.000280272
-1.36553e-06
-1.24975e-06
0.000275664
-0.000273604
2.60156e-07
2.94681e-07
-1.93173e-08
1.3503e-08
0.000280368
-0.000280328
1.04009e-08
-4.54479e-08
-1.25787e-08
1.07513e-08
0.000280304
-0.000280288
7.75783e-09
-2.13514e-08
1.32603e-08
9.78978e-05
-9.79152e-05
-1.33526e-08
9.79151e-05
-9.78953e-05
9.79164e-05
-6.42538e-09
-9.78966e-05
1.30009e-08
4.22342e-09
9.78965e-05
-9.79137e-05
0.000280382
2.16734e-08
-4.88647e-09
1.12384e-08
-0.000280397
1.25315e-06
-2.89505e-07
0.000273637
-2.55288e-07
-0.00027572
0.000275717
-1.37382e-06
-1.26937e-06
2.86487e-07
-0.000273629
2.6875e-07
1.81117e-08
5.32048e-08
0.000280296
-1.22023e-08
-0.000280342
0.000280319
-1.48366e-08
-3.32952e-08
9.12964e-09
-0.000280293
-1.34829e-08
-6.33794e-09
9.79152e-05
-9.78953e-05
1.54123e-08
4.36124e-09
9.78954e-05
4.35021e-09
9.78966e-05
-1.34345e-08
9.79164e-05
-6.40701e-09
-9.78966e-05
1.26169e-06
-2.81077e-07
0.000273632
-2.60992e-07
-1.48483e-08
-0.00028039
-3.11149e-08
9.33352e-09
-1.37107e-06
0.000275714
-1.2724e-06
-0.000273632
2.91844e-07
2.68758e-07
-1.70673e-08
0.000280322
-3.5911e-08
-0.000280294
1.12695e-08
1.341e-08
3.62904e-08
-8.98181e-09
0.000280294
-5.42284e-08
0.000232529
2.12648e-08
1.10892e-09
-0.000232497
5.16182e-08
0.000232497
-2.01747e-08
4.8067e-10
-0.000232529
1.72929e-07
-1.25906e-06
2.95358e-07
-2.82933e-07
-9.50544e-07
2.59785e-07
-2.77698e-07
9.49103e-07
1.47058e-07
-0.00115241
0.00115261
-1.03978e-06
8.59134e-07
-8.60313e-07
1.04148e-06
-6.00029e-09
2.30587e-09
1.04147e-06
-8.6306e-07
8.59242e-07
-1.04541e-06
-0.00115262
2.81115e-08
-1.22949e-09
0.000256159
-2.23403e-07
-8.61237e-11
-0.000255989
1.47133e-07
0.00024874
8.35928e-09
-0.00024884
0.000248827
-1.26454e-07
-1.09402e-08
-0.000248739
1.24717e-09
2.25269e-07
0.000255988
5.09628e-10
-0.000256161
1.04409e-06
-8.63055e-07
8.59216e-07
-1.04244e-06
1.84465e-07
-0.00115255
2.82422e-08
0.000256133
-2.26043e-07
9.79751e-10
-0.000255963
2.25246e-07
0.000255963
2.1057e-10
-0.000256136
2.54207e-11
5.16267e-08
-2.01818e-08
6.31591e-10
0.000232535
-3.4338e-08
-0.000194365
-9.97003e-10
3.90214e-08
-5.68611e-09
0.000194365
7.51122e-11
-5.41629e-08
-0.000232535
2.12322e-08
9.60624e-10
5.16025e-08
-2.01792e-08
6.70054e-11
0.000232497
-3.4163e-08
6.37562e-09
0.000194342
-0.000194313
-1.15968e-09
3.89031e-08
-4.30552e-09
-5.63264e-09
0.000194313
-0.000194342
-5.4182e-08
0.000232529
-0.000232497
2.12363e-08
1.31651e-09
0.00115242
3.94105e-08
1.04404e-06
-8.60411e-07
-1.0428e-06
8.59032e-07
1.89121e-07
-1.25878e-06
2.95169e-07
-2.80031e-07
-9.4529e-07
2.64944e-07
-2.72301e-07
9.51397e-07
1.47083e-07
7.19517e-08
0.00115254
-1.03712e-06
8.61789e-07
-8.57627e-07
1.04409e-06
-1.18022e-08
7.9148e-10
2.22655e-07
1.03346e-09
0.000255986
0.000248825
-1.28908e-07
-0.000248737
-1.08096e-08
1.37013e-07
5.93594e-09
0.000248737
5.22271e-11
0.000256158
-2.23338e-07
-0.000255989
1.28416e-10
0.00114426
1.32934e-06
-2.88486e-07
2.84013e-07
9.48482e-07
-2.72133e-07
-9.47979e-07
2.62311e-07
2.48424e-09
-0.00114427
-2.12299e-07
1.24975e-06
-9.45382e-07
2.62277e-07
-2.66697e-07
9.45585e-07
-1.36332e-06
2.72941e-07
-3.02249e-07
-1.70999e-07
0.00115233
-1.03972e-06
8.61823e-07
-8.57558e-07
1.04108e-06
2.30113e-08
2.22623e-07
-1.04603e-09
0.000255964
1.70771e-08
0.000248771
-1.26312e-07
-0.000248685
-1.07109e-08
-1.3357e-08
1.34454e-07
6.00468e-09
0.000248683
-0.000248771
0.000256132
-2.25964e-07
-0.000255963
2.71099e-09
-1.31575e-08
-9.78833e-05
1.52744e-08
9.78833e-05
-9.79029e-05
-1.37096e-06
-0.000273621
2.57884e-07
2.91733e-07
1.11062e-08
0.000280412
-1.48398e-08
-0.000280383
-3.35164e-08
8.78369e-09
0.000280289
-3.55508e-08
-0.000280259
8.72141e-09
3.84486e-08
-1.08479e-08
0.000280261
-0.000280287
-6.33073e-09
-9.78967e-05
0.000280331
1.57677e-08
-0.000280369
-1.25615e-08
4.81802e-08
-1.49243e-08
-0.000280267
-3.07544e-08
9.18765e-09
1.11615e-08
0.000280413
-1.9565e-08
-0.000280375
-4.08136e-08
1.09988e-08
0.000275697
-1.30283e-06
-1.33205e-06
2.76698e-07
-0.00027362
2.81087e-07
-6.33571e-09
-9.78942e-05
-1.3193e-08
-6.44088e-09
-9.78791e-05
-1.24717e-06
-0.00027362
2.60631e-07
2.91628e-07
1.59887e-08
3.61998e-08
0.000280382
-8.197e-09
1.33005e-06
1.28643e-06
-2.65915e-07
0.000273623
-2.76285e-07
1.1167e-08
0.000280407
-1.71527e-08
-3.3579e-08
-0.00028038
1.18471e-08
0.000280293
-1.4777e-08
-0.000280265
-3.55514e-08
8.78888e-09
-6.28015e-09
-9.78942e-05
1.30026e-08
9.78978e-05
-1.07047e-08
9.79188e-05
-9.79003e-05
9.78967e-05
-1.09054e-08
9.79102e-05
-9.78929e-05
1.26694e-06
-2.83554e-07
-2.61011e-07
0.000273632
1.36643e-08
3.36546e-08
-8.94101e-09
0.000280297
0.000275706
-1.38202e-06
-1.2499e-06
-0.000273632
2.60159e-07
2.97413e-07
0.000280404
-2.41001e-08
1.29988e-08
-0.000280355
-4.79622e-08
0.000280334
-1.26008e-08
-0.000280319
5.57966e-09
-1.89309e-08
-1.09527e-08
-6.24208e-09
-9.79041e-05
1.28956e-08
4.331e-09
9.79016e-05
-1.08633e-08
-6.31609e-09
-9.78904e-05
1.54949e-08
4.32242e-09
9.78904e-05
1.3214e-06
1.28979e-06
0.000273635
-2.68637e-07
-2.70795e-07
-1.70392e-08
-3.56322e-08
-0.000280376
8.70744e-09
-1.47561e-08
-3.55167e-08
-0.000280301
8.79672e-09
1.3626e-08
-9.22499e-09
3.11726e-08
0.000280381
1.56549e-08
-1.08971e-08
4.11542e-08
0.000280304
-5.41057e-08
0.000232529
-0.000232497
2.12273e-08
9.71216e-10
3.88985e-08
-5.77113e-09
0.000194313
5.16068e-08
0.000232497
-2.01732e-08
3.24169e-10
-3.40456e-08
0.000194342
-1.26163e-09
-0.000194313
0.00115235
-4.33636e-09
2.81823e-08
1.04669e-06
-8.57681e-07
-1.03452e-06
8.64538e-07
-1.76399e-09
0.000256163
-0.000255987
8.65393e-10
-2.28513e-07
1.2954e-07
3.67416e-09
0.00024874
1.88929e-07
0.00114414
1.74613e-07
-1.23675e-06
3.11805e-07
-2.52011e-07
-9.26598e-07
2.83887e-07
-2.20463e-07
9.59196e-07
5.93352e-10
2.20041e-07
0.000255987
1.28558e-09
0.000248859
-1.07085e-08
-0.000248766
-1.38714e-07
-3.34273e-08
0.00115256
-1.74994e-08
-1.03161e-06
8.64536e-07
-8.57659e-07
1.04967e-06
0.00115234
5.64463e-09
1.04394e-06
-8.60289e-07
-1.03672e-06
8.61872e-07
0.000256135
-0.000255963
2.92544e-10
-2.28581e-07
-1.57812e-08
1.34461e-07
5.98783e-09
0.000248685
2.33608e-07
0.00114424
1.37648e-06
1.63344e-07
-9.47886e-07
2.56706e-07
9.45715e-07
-2.72228e-07
-1.24526e-06
3.00455e-07
-2.80392e-07
2.22588e-07
0.000255962
-7.45825e-10
0.000248771
1.70156e-08
-1.07139e-08
-0.000248685
-1.2616e-07
0.00115254
-1.17666e-08
-1.03953e-06
8.64662e-07
-8.57463e-07
1.04684e-06
-4.20179e-11
4.91314e-08
-2.0161e-08
4.75334e-10
0.00023254
-3.16804e-08
-0.000194374
-3.66638e-09
3.65407e-08
-5.51603e-09
0.000194372
1.77486e-12
-5.40125e-08
-0.000232537
1.90266e-08
9.78489e-10
4.91051e-08
-2.01568e-08
2.41788e-10
0.000232499
-3.38958e-08
6.38468e-09
-0.000194313
-1.23797e-09
3.88794e-08
-4.18221e-09
-5.8453e-09
0.000194313
-5.40269e-08
-0.000232497
1.90259e-08
1.25981e-09
2.01478e-10
1.06609e-09
2.19974e-07
0.000255991
3.43986e-08
8.23903e-09
1.34013e-06
-2.80033e-07
2.89432e-07
9.50877e-07
-2.66794e-07
2.67361e-07
-9.43065e-07
-1.26024e-07
-0.000248774
-1.31144e-08
-0.00115259
-1.14912e-08
-1.70836e-08
-1.03706e-06
8.61806e-07
-8.57522e-07
1.04142e-06
3.64328e-09
1.31886e-07
0.000248774
-1.09596e-08
5.70798e-09
1.04422e-06
-8.54777e-07
-1.03438e-06
8.59011e-07
-1.17182e-09
-0.000255991
5.53336e-10
-2.28403e-07
-1.45254e-09
2.22521e-07
0.000255963
5.10897e-08
-1.3217e-06
-2.7106e-09
9.48252e-07
-2.72242e-07
-9.48147e-07
2.62013e-07
1.34026e-06
-2.85812e-07
2.8942e-07
1.46397e-08
-1.28467e-07
-0.000248683
-1.06986e-08
-0.00115256
-3.44134e-08
-1.03691e-06
8.61794e-07
-8.57485e-07
1.04399e-06
-1.3291e-08
5.91993e-09
1.34501e-07
0.000248683
5.68763e-09
1.04405e-06
-8.57457e-07
-1.03968e-06
8.59059e-07
-0.000255966
1.26275e-09
-2.28427e-07
3.84396e-08
-8.29705e-09
0.000280381
3.62179e-08
-8.69834e-09
0.000280261
0.000275692
-0.000273618
2.6342e-07
2.99438e-07
0.000280287
1.13757e-08
-0.000280259
-3.56512e-08
1.10038e-08
0.000280414
-0.000280384
8.75893e-09
-3.57084e-08
9.79141e-05
-6.29154e-09
-9.78968e-05
-1.29548e-08
-9.78835e-05
1.52357e-08
9.78834e-05
1.29207e-06
0.000273618
-2.71137e-07
-2.68288e-07
-3.53944e-08
-0.000280261
1.13789e-08
-1.06587e-08
3.83531e-08
0.000280261
-1.2987e-08
1.34543e-08
-8.78434e-09
3.61729e-08
0.000280387
4.27483e-09
9.78969e-05
-0.000248864
8.49849e-09
1.39407e-07
0.00024877
1.45773e-07
0.00114428
-0.00114461
-2.85633e-07
1.35746e-06
2.72917e-07
9.35282e-07
-2.80045e-07
2.37933e-07
-9.50542e-07
0.00115257
3.04129e-08
-0.00115244
-5.99811e-09
1.03607e-06
-8.60213e-07
8.56478e-07
-1.03961e-06
-2.55431e-09
0.000256159
-0.000255989
1.23325e-09
-2.23247e-07
-1.89333e-07
0.00114496
-1.82959e-07
-1.37684e-06
2.56493e-07
-3.24545e-07
-9.66966e-07
2.40641e-07
-3.23596e-07
9.35235e-07
0.000248835
-0.00024875
-1.07556e-08
-1.16394e-07
-1.1655e-07
0.00115247
5.09731e-08
-1.04813e-06
8.56336e-07
-8.63029e-07
1.03582e-06
-0.000232526
-2.21921e-08
5.84968e-10
0.000232496
3.89083e-08
-0.00019433
-5.70998e-09
0.000194301
-5.40032e-08
0.000232526
-0.000232497
2.3244e-08
9.46325e-10
-3.41602e-08
0.00019433
-0.000194302
-1.17064e-09
-6.73384e-09
0.00115237
-0.00115235
1.04399e-06
-8.63047e-07
8.59059e-07
-1.04232e-06
0.00114478
-0.00114479
-2.85652e-07
1.29175e-06
2.81339e-07
7.74839e-09
9.48471e-07
-2.72117e-07
2.6231e-07
-9.47832e-07
-1.33765e-08
-0.000248773
5.97905e-09
1.36863e-07
0.000248682
0.00025613
-0.000255963
-2.23246e-07
7.16594e-11
2.27956e-07
0.00114426
1.36565e-06
1.68771e-07
-9.47784e-07
2.56833e-07
9.45886e-07
-2.72101e-07
-1.24504e-06
2.97844e-07
-2.80203e-07
0.00115248
1.10454e-08
-1.0395e-06
8.56285e-07
-8.60232e-07
1.0413e-06
0.000248768
1.46924e-08
-0.00024868
-1.07634e-08
-1.26265e-07
5.16053e-08
-5.73425e-11
5.26149e-10
-2.01595e-08
0.000232532
-3.19178e-08
-0.000194352
-1.07187e-09
3.90162e-08
-5.75128e-09
0.000194352
-5.40354e-08
-4.58572e-10
-0.000232532
1.10585e-09
1.90234e-08
5.00483e-10
9.51907e-10
2.25228e-07
0.000255984
-2.75153e-08
-3.67386e-09
1.28595e-06
-2.91101e-07
2.75888e-07
9.43213e-07
-2.77551e-07
2.56888e-07
-9.50592e-07
-1.26308e-07
-0.000248739
-1.32176e-08
-0.00115243
-6.3586e-08
1.13706e-08
-1.04255e-06
8.58945e-07
-8.60287e-07
1.04392e-06
5.91878e-09
1.41919e-07
0.000248741
-1.10736e-08
1.65734e-08
1.0413e-06
-8.60199e-07
-1.03969e-06
8.59099e-07
-2.59465e-09
-0.000255984
1.19378e-09
-2.23158e-07
5.40532e-08
-2.21926e-08
1.6011e-10
0.000232494
-3.40693e-08
-0.000194302
-1.07014e-09
3.88672e-08
-4.31198e-09
-5.65636e-09
0.000194302
-5.64761e-08
-0.000232494
2.10405e-08
9.25999e-10
2.25231e-07
-1.42097e-09
0.000255961
-6.65457e-08
-1.34379e-06
-1.30286e-07
9.45567e-07
-2.69455e-07
-9.48024e-07
2.59412e-07
1.27193e-06
-2.93962e-07
2.75758e-07
-0.00115236
3.99292e-10
-1.03968e-06
8.58926e-07
-8.57541e-07
1.04393e-06
-1.2372e-07
-0.00024868
-1.07297e-08
3.39393e-08
1.04395e-06
-8.60297e-07
-1.04247e-06
8.59014e-07
-1.33942e-08
5.9712e-09
1.34471e-07
0.00024868
-0.00025596
-2.25733e-07
3.1546e-10
-0.000194385
-5.60335e-09
0.000194358
-3.91882e-10
0.000232568
-0.000232534
1.28175e-09
1.90807e-08
0.000194385
-0.000194358
-1.04691e-09
0.00115226
-0.00115225
1.68017e-08
1.04098e-06
-8.57549e-07
8.58955e-07
-1.03405e-06
-0.000256129
2.22667e-07
-9.37565e-10
0.000255963
-3.67407e-08
-0.000248774
1.32027e-07
5.94985e-09
0.000248686
5.40517e-08
0.000256135
-0.000255963
-2.28486e-07
6.08318e-10
2.3396e-07
0.00114399
1.91349e-07
-1.23379e-06
3.03567e-07
-2.51948e-07
-9.2611e-07
2.7314e-07
-2.23074e-07
9.51021e-07
0.00115238
1.63827e-10
-1.02852e-06
8.58907e-07
-8.5475e-07
1.04385e-06
3.43535e-08
0.0002488
-0.000248707
-1.32174e-08
-1.33787e-07
-4.24386e-09
-0.000194328
-5.67336e-09
0.000194301
0.00023253
-0.000232496
1.90841e-08
6.7234e-10
0.000194335
6.34417e-09
-0.000194306
-1.03713e-09
-5.16252e-08
7.9973e-10
9.80705e-10
2.22614e-07
0.000255989
1.19302e-08
-2.65894e-08
1.29691e-06
-2.88319e-07
2.78591e-07
9.45739e-07
-2.69355e-07
-9.42591e-07
2.64974e-07
-0.00115239
-4.08055e-08
-5.76761e-08
-1.0315e-06
-8.5197e-07
-3.65452e-08
6.0412e-09
1.34357e-07
0.000248775
1.75601e-08
-5.53878e-09
1.04119e-06
-8.54756e-07
-1.03709e-06
8.56123e-07
-5.09772e-11
8.18878e-10
-1.80067e-08
0.000232533
-5.55571e-09
0.000194358
-5.16422e-08
2.22621e-07
-6.53414e-10
0.000255965
-1.22775e-07
-1.35444e-06
-1.81662e-07
9.39894e-07
-2.72113e-07
-9.42633e-07
2.34775e-07
1.24697e-06
-2.99224e-07
2.64337e-07
-0.00115224
-1.16966e-08
-1.03409e-06
-8.54788e-07
2.27884e-08
1.04095e-06
-8.51992e-07
-1.03424e-06
8.56031e-07
-3.65107e-08
-1.59312e-08
6.00806e-09
1.34328e-07
0.000248712
-1.80228e-08
3.38785e-10
0.000232496
-4.29781e-09
-5.55407e-09
0.000194308
3.60913e-08
-1.14363e-08
0.000280382
3.6273e-08
-8.79763e-09
0.000280268
0.000275694
-0.000273615
2.6341e-07
2.89134e-07
0.000280293
-0.000280265
8.802e-09
-3.56489e-08
1.10677e-08
0.000280413
-0.00028038
8.70404e-09
-3.58204e-08
9.79116e-05
-6.24494e-09
-9.78943e-05
1.52786e-08
9.78791e-05
1.26699e-06
0.00027362
-2.60752e-07
-2.75941e-07
-8.23889e-09
3.84023e-08
0.000280265
-1.29471e-08
1.59451e-08
-8.32112e-09
3.84255e-08
0.00028038
4.34332e-09
9.78944e-05
0.00114401
-0.0011439
-2.96736e-07
1.32096e-06
2.69775e-07
-9.8473e-09
9.34908e-07
-2.77298e-07
2.40501e-07
-9.47892e-07
-0.000256134
2.25203e-07
7.4626e-10
0.000255959
-3.88585e-08
-0.000248803
1.36936e-07
6.02005e-09
0.000248715
5.40129e-08
0.000256128
-0.000255961
-2.232e-07
1.47538e-09
-1.60585e-07
0.00114461
-1.54496e-07
-1.37687e-06
2.61735e-07
-3.24675e-07
-9.61345e-07
2.46085e-07
-3.18152e-07
9.34933e-07
0.00115227
6.82299e-08
-1.04513e-06
8.53475e-07
-8.60188e-07
1.03281e-06
2.95354e-08
0.000248774
-0.000248689
-8.23346e-09
-1.18877e-07
-0.000232569
3.4164e-10
-1.80525e-08
0.000232535
4.58626e-11
0.000232568
-0.000232534
1.05063e-09
1.90603e-08
0.000194383
-0.000194356
-1.03325e-09
-0.000194338
-6.09848e-09
0.00019431
0.00023253
-0.000232496
1.16111e-09
1.90083e-08
0.00019433
6.43082e-09
-0.000194307
8.23386e-10
9.34835e-10
-5.1622e-08