/*--------------------------------*- C++ -*----------------------------------*\
| =========                 |                                                 |
| \\      /  F ield         | OpenFOAM: The Open Source CFD Toolbox           |
|  \\    /   O peration     | Version:  v2006                                 |
|   \\  /    A nd           | Website:  www.openfoam.com                      |
|    \\/     M anipulation  |                                                 |
\*---------------------------------------------------------------------------*/
FoamFile
{
    version     2.0;
    format      ascii;
    class       volVectorField;
    location    "125";
    object      U;
}
// * * * * * * * * * * * * * * * * * * * * * * * * * * * * * * * * * * * * * //

dimensions      [0 1 -1 0 0 0 0];


internalField   nonuniform List<vector> 
14361
(
(2.91437e-06 -1.68803e-06 0.108682)
(-5.94668e-07 -2.0969e-06 0.109934)
(4.32913e-06 -1.56524e-05 0.0942425)
(4.48455e-09 -1.88058e-05 0.100822)
(5.46015e-06 -5.57767e-06 0.088211)
(2.58825e-06 -4.15583e-06 0.0714435)
(2.68546e-07 -9.33677e-06 0.0825272)
(-9.50829e-08 -9.2935e-06 0.0926381)
(-1.23665e-05 4.97885e-06 0.0928174)
(4.7675e-06 -2.46423e-06 0.0819519)
(-4.08879e-06 2.69486e-06 0.0820061)
(1.17515e-05 -5.57245e-06 0.0927536)
(-4.96889e-06 1.24201e-05 0.0928256)
(1.06669e-05 -1.77946e-05 0.0978759)
(2.46583e-06 -4.69006e-06 0.0819563)
(-5.04896e-06 4.1187e-06 0.0882749)
(-8.48846e-06 1.71975e-05 0.0979575)
(5.53267e-06 -1.16841e-05 0.0927607)
(-2.65599e-06 4.14148e-06 0.0820117)
(-3.73109e-06 3.7738e-06 0.0842646)
(2.19724e-06 -2.46561e-06 0.0685138)
(2.49854e-06 -2.15375e-06 0.0685191)
(-1.78249e-06 2.76683e-06 0.0685663)
(3.72612e-06 -3.67043e-06 0.0842161)
(-2.73057e-06 1.82565e-06 0.0685718)
(-2.67095e-06 3.88214e-06 0.0715064)
(2.26525e-07 3.75459e-06 0.0684026)
(-6.5879e-07 -7.69951e-06 0.0863428)
(-2.08426e-06 8.43882e-06 0.0825934)
(-1.49444e-06 8.08044e-06 0.0864158)
(-1.89779e-06 -4.15981e-06 0.068329)
(5.44978e-07 4.59629e-06 0.0770605)
(-8.09861e-08 1.05795e-05 0.0926975)
(-2.84451e-07 -8.98289e-06 0.090874)
(-2.58369e-07 -4.77954e-06 0.0788632)
(-4.70191e-07 1.04055e-05 0.0909409)
(-1.18255e-06 -4.82388e-06 0.0770076)
(5.93875e-08 4.46695e-06 0.0789068)
(-1.74317e-05 1.75236e-05 0.0993221)
(6.47723e-05 -1.82467e-05 0.103428)
(-6.54178e-05 1.81597e-05 0.103563)
(1.59424e-05 -1.589e-05 0.099218)
(-4.4436e-07 8.26621e-05 0.103777)
(5.40126e-06 -7.39951e-05 0.101468)
(8.23939e-07 -1.76218e-05 0.0972602)
(-5.49904e-06 1.31148e-05 0.0943426)
(1.88531e-06 -8.12761e-05 0.10358)
(-3.05981e-06 7.04315e-05 0.101592)
(-2.76736e-06 1.77524e-05 0.0973836)
(8.64824e-07 8.41989e-05 0.10535)
(-6.24759e-08 1.89905e-05 0.100925)
(-2.67513e-07 -8.08956e-05 0.105906)
(1.62225e-07 -1.83399e-05 0.0995855)
(2.60292e-07 -8.05945e-05 0.105153)
(5.90333e-07 8.31643e-05 0.106063)
(-6.67632e-07 1.92105e-05 0.0997032)
(-1.74422e-06 -3.0196e-06 0.108679)
(-7.28717e-05 7.29334e-05 0.106513)
(2.89191e-06 -1.65549e-06 0.10868)
(-2.81942e-06 -1.60017e-06 0.10868)
(7.28392e-05 7.29258e-05 0.106512)
(-2.26007e-06 2.24313e-06 0.110617)
(2.27715e-06 2.23694e-06 0.110617)
(4.12459e-06 -5.06608e-06 0.088274)
(3.88879e-06 -2.70364e-06 0.0715062)
(1.31343e-05 -5.53149e-06 0.0943421)
(1.90327e-05 -3.78879e-08 0.100925)
(8.46337e-06 -2.11215e-06 0.0825933)
(1.0594e-05 -1.13316e-07 0.0926974)
(1.31439e-05 5.50079e-06 0.0943418)
(1.90351e-05 8.95524e-08 0.100925)
(8.40577e-06 2.09781e-06 0.0825931)
(1.05863e-05 1.32758e-07 0.0926971)
(-3.8328e-06 2.68328e-06 0.0715067)
(-4.0689e-06 5.0639e-06 0.0882726)
(-5.06793e-06 4.14686e-06 0.088275)
(-2.67419e-06 3.9036e-06 0.0715063)
(-5.5914e-07 -2.14727e-06 0.109931)
(-5.51972e-06 1.31465e-05 0.0943426)
(-6.70453e-08 1.90218e-05 0.100925)
(4.98432e-07 -2.14699e-06 0.109931)
(5.61273e-06 1.30551e-05 0.0943414)
(6.87771e-08 1.89997e-05 0.100925)
(-2.08631e-06 8.46352e-06 0.0825933)
(-9.50198e-08 1.05859e-05 0.0926976)
(2.1621e-06 8.50922e-06 0.0825932)
(1.45207e-07 1.057e-05 0.0926979)
(4.13765e-06 5.06089e-06 0.0882744)
(5.14632e-06 4.04182e-06 0.0882726)
(3.87788e-06 2.69859e-06 0.0715065)
(2.76425e-06 3.87216e-06 0.0715063)
(1.72409e-05 -8.52846e-06 0.0979568)
(4.1682e-06 -2.68565e-06 0.082011)
(1.24149e-05 -4.98814e-06 0.0928255)
(2.74997e-06 -1.79181e-06 0.0685665)
(1.82388e-06 -2.75088e-06 0.0685721)
(3.76742e-06 -3.75749e-06 0.0842647)
(8.09113e-06 -1.53215e-06 0.0864156)
(3.76011e-06 1.89508e-07 0.0684025)
(1.04262e-05 -5.10373e-07 0.0909407)
(4.48243e-06 4.29005e-08 0.0789066)
(4.60541e-06 5.17476e-07 0.0770606)
(8.1124e-06 1.56011e-06 0.0864149)
(3.84349e-06 -1.35895e-07 0.0684024)
(4.48699e-06 -3.08214e-08 0.0789065)
(1.04489e-05 5.42512e-07 0.0909396)
(4.6683e-06 -5.05915e-07 0.0770589)
(-1.7243e-05 8.49801e-06 0.0979526)
(-4.11708e-06 2.70244e-06 0.0820062)
(-1.2369e-05 4.99171e-06 0.0928176)
(-8.5266e-06 1.72112e-05 0.0979576)
(-2.65844e-06 4.15655e-06 0.0820116)
(-4.98774e-06 1.24258e-05 0.0928257)
(-1.79222e-06 2.77902e-06 0.0685663)
(-2.72371e-06 1.84506e-06 0.0685717)
(-3.72582e-06 3.79193e-06 0.0842647)
(-1.89277e-06 -4.16894e-06 0.0683291)
(2.72423e-07 -9.36155e-06 0.0825272)
(-1.50757e-06 8.10157e-06 0.0864159)
(-6.64848e-07 -7.71284e-06 0.0863427)
(2.2333e-07 3.77089e-06 0.0684025)
(-1.18259e-06 -4.82901e-06 0.0770076)
(-1.03332e-07 -9.31065e-06 0.092638)
(-4.86843e-07 1.0422e-05 0.0909409)
(6.59747e-08 4.48588e-06 0.0789068)
(-2.94994e-07 -9.00365e-06 0.0908739)
(-2.4774e-07 -4.77945e-06 0.0788632)
(5.49635e-07 4.61798e-06 0.0770605)
(1.94784e-06 -4.28265e-06 0.0683338)
(-1.75694e-07 -9.34459e-06 0.0825279)
(1.61913e-06 8.15498e-06 0.086415)
(7.47286e-07 -7.76676e-06 0.0863449)
(-1.07794e-07 3.83022e-06 0.0684025)
(1.26708e-06 -4.85416e-06 0.077008)
(1.5249e-07 -9.29647e-06 0.0926377)
(5.71399e-07 1.04332e-05 0.0909403)
(-1.39896e-08 4.44501e-06 0.0789076)
(3.47347e-07 -9.02834e-06 0.0908744)
(3.11982e-07 -4.75583e-06 0.0788626)
(-4.83905e-07 4.61908e-06 0.07706)
(1.73323e-05 8.48152e-06 0.0979572)
(4.09492e-06 2.61992e-06 0.0820116)
(1.23649e-05 4.97897e-06 0.0928256)
(-5.46495e-06 -1.17219e-05 0.0927544)
(8.53674e-06 1.70875e-05 0.097953)
(-5.38712e-06 -5.61632e-06 0.0882096)
(2.72266e-06 4.09763e-06 0.0820075)
(4.94072e-06 1.23175e-05 0.0928191)
(-1.06527e-05 -1.77983e-05 0.0978732)
(-2.41626e-06 -4.76256e-06 0.0819522)
(1.8071e-06 2.65564e-06 0.0685717)
(2.7814e-06 1.74088e-06 0.0685677)
(3.81226e-06 3.70436e-06 0.0842656)
(-2.50475e-06 -4.17884e-06 0.0714439)
(-1.81756e-05 6.54226e-05 0.103559)
(-6.54734e-05 1.82085e-05 0.103563)
(-1.74544e-05 1.75281e-05 0.0993223)
(-1.58889e-05 -1.59418e-05 0.0992175)
(-6.69008e-05 -6.6976e-05 0.106314)
(1.81606e-05 6.54925e-05 0.103562)
(6.54204e-05 1.81811e-05 0.103559)
(1.73133e-05 1.75856e-05 0.0993225)
(-1.81871e-05 -6.477e-05 0.103427)
(-6.47835e-05 -1.82678e-05 0.103426)
(1.03855e-06 9.87559e-07 0.11112)
(-1.00476e-06 9.70699e-07 0.11112)
(7.04657e-05 -3.09786e-06 0.101591)
(1.77893e-05 -2.80099e-06 0.0973834)
(8.27229e-05 -4.83708e-07 0.103777)
(1.92575e-05 -6.78376e-07 0.0997032)
(8.32039e-05 5.81239e-07 0.106063)
(8.42279e-05 8.4373e-07 0.10535)
(7.03955e-05 3.02314e-06 0.101591)
(1.77704e-05 2.83472e-06 0.0973831)
(8.26457e-05 4.52259e-07 0.103776)
(8.31717e-05 -5.70952e-07 0.106063)
(1.92685e-05 7.11675e-07 0.0997026)
(8.42118e-05 -8.28069e-07 0.105349)
(1.88581e-06 -8.12666e-05 0.10358)
(-3.0977e-06 7.05069e-05 0.101592)
(4.33535e-06 -1.56763e-05 0.0942425)
(-2.78517e-06 1.77947e-05 0.0973837)
(-4.59385e-07 8.27455e-05 0.103777)
(5.40021e-06 -7.39959e-05 0.101468)
(8.24168e-07 -1.7632e-05 0.0972601)
(2.63858e-07 -8.05871e-05 0.105153)
(2.46941e-09 -1.88173e-05 0.100822)
(5.8898e-07 8.31939e-05 0.106063)
(-6.73796e-07 1.9248e-05 0.0997034)
(8.6994e-07 8.4233e-05 0.10535)
(-2.72923e-07 -8.08837e-05 0.105906)
(1.61477e-07 -1.83455e-05 0.0995855)
(-1.86488e-06 -8.12133e-05 0.10358)
(3.12749e-06 7.05446e-05 0.10159)
(-4.2514e-06 -1.57378e-05 0.0942424)
(2.80619e-06 1.77976e-05 0.0973832)
(-8.08563e-07 -1.767e-05 0.0972611)
(-5.40069e-06 -7.39587e-05 0.101467)
(4.93819e-07 8.28288e-05 0.103776)
(-2.16857e-07 -8.05705e-05 0.105153)
(8.76399e-09 -1.88014e-05 0.100822)
(-5.27963e-07 8.32046e-05 0.106063)
(6.87988e-07 1.92369e-05 0.099703)
(3.41654e-07 -8.08621e-05 0.105905)
(-1.51876e-07 -1.83412e-05 0.0995857)
(-8.39865e-07 8.42407e-05 0.105349)
(-1.06099e-05 -1.05416e-07 0.0926986)
(-1.91919e-05 -7.87639e-08 0.100926)
(-1.05958e-05 1.4403e-07 0.0926989)
(-1.91724e-05 8.25684e-08 0.100926)
(4.93385e-06 -1.21871e-06 0.077009)
(9.34449e-06 -8.71557e-08 0.0926373)
(-1.04915e-05 -5.20713e-07 0.0909407)
(-4.53923e-06 5.8486e-08 0.0789078)
(9.11532e-06 -2.69188e-07 0.0908743)
(4.78474e-06 -2.63777e-07 0.0788628)
(-4.76349e-06 5.45467e-07 0.0770604)
(4.92048e-06 1.2673e-06 0.0770076)
(9.33664e-06 1.38069e-07 0.0926371)
(-4.51326e-06 -1.51582e-08 0.078908)
(-1.05045e-05 5.73567e-07 0.0909408)
(4.76391e-06 3.19774e-07 0.0788619)
(9.10694e-06 3.10987e-07 0.090874)
(-4.76632e-06 -5.04424e-07 0.0770597)
(-2.21337e-06 -2.18518e-06 0.110619)
(-2.08305e-06 -6.19793e-07 0.109933)
(3.02145e-06 -1.69848e-06 0.108682)
(-6.68546e-05 -6.69278e-05 0.106314)
(-4.16424e-06 -5.15907e-06 0.0882753)
(5.63318e-06 5.40537e-06 0.0882108)
(2.72996e-06 1.5235e-06 0.10868)
(5.56549e-07 2.11122e-06 0.109931)
(2.86247e-06 1.74302e-06 0.10868)
(5.72159e-07 2.07349e-06 0.109933)
(-6.68971e-05 6.68823e-05 0.106314)
(4.1573e-06 -2.51889e-06 0.0714421)
(5.63058e-06 -5.46736e-06 0.0882082)
(2.5915e-06 -4.29469e-06 0.0714438)
(5.65426e-06 5.43271e-06 0.0882108)
(-7.28274e-05 -7.28688e-05 0.106513)
(2.98299e-06 1.87954e-06 0.10868)
(-2.96568e-06 1.76865e-06 0.108681)
(3.04394e-06 1.70392e-06 0.10868)
(-3.01242e-06 1.7423e-06 0.108679)
(-6.70244e-05 6.68035e-05 0.106314)
(-4.20659e-06 2.59089e-06 0.0714442)
(7.28595e-05 -7.286e-05 0.106514)
(1.88351e-05 6.30245e-09 0.100822)
(1.88149e-05 2.686e-10 0.100822)
(1.5243e-06 2.83556e-06 0.10868)
(1.69293e-06 -2.96118e-06 0.108679)
(-9.34424e-06 -9.43386e-08 0.0926382)
(-1.69408e-06 -2.817e-06 0.10868)
(-9.34355e-06 1.53016e-07 0.0926383)
(-1.67938e-06 2.93725e-06 0.108681)
(6.68801e-05 -6.69412e-05 0.106314)
(2.61292e-06 -4.22677e-06 0.0714437)
(6.74828e-07 -2.063e-06 0.109933)
(2.69318e-07 -9.47261e-06 0.0825273)
(1.22279e-07 -9.36549e-06 0.0926378)
(-2.51975e-06 -4.25611e-06 0.0714437)
(-2.42345e-06 -2.20724e-06 0.110619)
(-1.32727e-05 -5.5378e-06 0.094343)
(8.146e-05 -1.87352e-06 0.103579)
(1.57117e-05 4.37229e-06 0.094243)
(1.58352e-05 -4.29441e-06 0.0942409)
(-1.67454e-06 2.89731e-06 0.108682)
(-1.57922e-06 -2.82386e-06 0.108679)
(1.06242e-05 1.6927e-07 0.0926976)
(2.96464e-06 -1.6343e-06 0.108681)
(6.7565e-07 -2.1252e-06 0.109931)
(2.85885e-07 -9.53362e-06 0.0825274)
(1.22614e-07 1.05719e-05 0.092698)
(7.31362e-05 7.27501e-05 0.106512)
(2.75619e-06 3.86229e-06 0.0715071)
(-1.58855e-07 -1.06392e-05 0.0926984)
(1.6885e-07 9.39966e-06 0.0825272)
(-2.20596e-06 -8.61252e-06 0.0825927)
(-1.59539e-07 9.32161e-06 0.0926375)
(4.28777e-06 -2.52373e-06 0.0714429)
(-3.89382e-06 2.73974e-06 0.0715071)
(-1.13879e-07 -1.05867e-05 0.092698)
(2.78054e-07 9.41728e-06 0.0825275)
(-1.5046e-07 9.32211e-06 0.0926378)
(-2.08877e-06 -8.39482e-06 0.082593)
(-2.50422e-06 4.15233e-06 0.0714414)
(2.69334e-06 -3.79917e-06 0.0715081)
(9.31806e-06 -1.07872e-07 0.0926378)
(9.45483e-06 2.47378e-07 0.082528)
(-1.06088e-05 -1.15082e-07 0.0926981)
(-8.58696e-06 -2.16371e-06 0.082593)
(-9.47014e-07 -1.06913e-06 0.111122)
(-1.04466e-06 9.67451e-07 0.111122)
(9.55582e-07 1.05648e-06 0.111122)
(-2.25575e-06 -2.39706e-06 0.110617)
(2.30506e-06 -2.30951e-06 0.110617)
(-1.71196e-06 2.94538e-06 0.108682)
(-1.88439e-05 -2.84905e-09 0.100822)
(-1.57711e-05 4.3466e-06 0.0942431)
(1.90751e-05 -5.42216e-08 0.100925)
(-1.67787e-06 2.93779e-06 0.108681)
(1.31512e-05 -5.54976e-06 0.0943421)
(-2.16014e-06 -5.67925e-07 0.109931)
(4.17904e-06 -2.52786e-06 0.0714423)
(-3.8454e-06 2.69664e-06 0.0715069)
(-6.74246e-07 -2.05192e-06 0.109933)
(4.38153e-06 -1.57561e-05 0.0942424)
(-1.03741e-08 -1.88055e-05 0.100822)
(-8.79012e-08 1.90598e-05 0.100926)
(2.94049e-06 -1.66828e-06 0.10868)
(-6.21699e-07 -2.10151e-06 0.109931)
(-5.51267e-06 1.31537e-05 0.0943425)
(-5.40405e-06 -5.64904e-06 0.0882099)
(-5.59814e-06 -5.51325e-06 0.0882095)
(7.27607e-05 7.31872e-05 0.106512)
(4.28926e-06 5.05902e-06 0.0882733)
(5.13055e-06 3.98001e-06 0.0882739)
(2.5432e-06 4.23842e-06 0.0714439)
(-2.71236e-06 -3.94464e-06 0.0715068)
(-3.85027e-06 -2.74621e-06 0.071507)
(4.24592e-06 2.54019e-06 0.0714429)
(5.48609e-06 5.42143e-06 0.0882104)
(6.70806e-05 6.6642e-05 0.106314)
(-7.29827e-05 -7.29638e-05 0.106514)
(5.50131e-06 5.76989e-06 0.0882096)
(-5.06942e-06 -4.17585e-06 0.0882725)
(-2.66497e-06 -3.95352e-06 0.0715064)
(2.59707e-06 4.21447e-06 0.071444)
(4.24886e-06 2.52905e-06 0.0714433)
(-3.90047e-06 -2.73462e-06 0.0715066)
(6.68487e-05 6.69174e-05 0.106314)
(-4.13379e-06 -5.13205e-06 0.0882753)
(-7.30532e-05 -7.30454e-05 0.106513)
(-5.03647e-06 -4.21277e-06 0.0882725)
(5.50319e-06 5.61551e-06 0.0882096)
(1.17726e-07 -1.06465e-05 0.0926983)
(8.63132e-08 9.32351e-06 0.0926376)
(2.90834e-06 1.6151e-06 0.108679)
(-4.78847e-07 2.08098e-06 0.109931)
(-5.27785e-07 2.00317e-06 0.109933)
(-1.07889e-07 -1.9131e-05 0.100926)
(4.26825e-06 1.6022e-05 0.0942412)
(-5.65707e-06 -1.31131e-05 0.0943407)
(-1.36279e-08 1.88429e-05 0.100821)
(6.15358e-07 2.03573e-06 0.109933)
(4.47858e-08 -1.91416e-05 0.100926)
(-2.17854e-08 1.88368e-05 0.100822)
(-1.46853e-07 9.31505e-06 0.0926376)
(-2.11127e-06 -8.56444e-06 0.0825925)
(2.04079e-07 9.3686e-06 0.0825272)
(-1.54529e-07 -1.0626e-05 0.0926982)
(1.05745e-07 9.31177e-06 0.0926377)
(2.14107e-06 -8.45109e-06 0.0825934)
(-2.20248e-07 9.42131e-06 0.0825265)
(1.11697e-07 -1.06308e-05 0.0926982)
(-5.0349e-07 2.07287e-06 0.109933)
(2.98723e-06 1.7802e-06 0.108679)
(-5.13187e-07 2.15321e-06 0.109931)
(-2.36149e-08 1.88317e-05 0.100822)
(-5.57578e-06 -1.31845e-05 0.0943405)
(4.28147e-06 1.58256e-05 0.0942411)
(-9.21368e-08 -1.91182e-05 0.100926)
(-3.00439e-06 1.74315e-06 0.10868)
(-2.97024e-06 1.72977e-06 0.10868)
(5.39734e-07 2.12274e-06 0.109931)
(-3.78981e-08 1.88308e-05 0.100822)
(5.5397e-06 -1.3127e-05 0.0943419)
(-4.31018e-06 1.57294e-05 0.0942414)
(5.57997e-08 -1.91217e-05 0.100926)
(2.67957e-06 -3.83335e-06 0.071508)
(-2.52608e-06 4.16385e-06 0.0714415)
(7.28636e-05 -7.29982e-05 0.106513)
(4.18249e-06 -5.10959e-06 0.088274)
(5.04797e-06 -4.0773e-06 0.0882743)
(-5.43708e-06 5.5828e-06 0.088208)
(3.95401e-06 -2.7207e-06 0.0715059)
(5.6969e-06 -5.43437e-06 0.0882107)
(-4.07818e-06 5.09918e-06 0.0882731)
(-5.12791e-06 4.3071e-06 0.0882748)
(-7.3127e-05 7.288e-05 0.106513)
(-2.72861e-06 3.92499e-06 0.071506)
(-3.86612e-06 2.70486e-06 0.071507)
(-7.29168e-05 7.29211e-05 0.106513)
(5.45788e-06 -5.58108e-06 0.0882109)
(6.681e-05 -6.69899e-05 0.106314)
(-5.08674e-06 4.17133e-06 0.0882748)
(-4.14491e-06 5.09883e-06 0.0882729)
(-2.70522e-06 3.92717e-06 0.0715061)
(2.64646e-06 4.21698e-06 0.0714444)
(-2.65377e-06 -3.89597e-06 0.0715068)
(4.21368e-06 2.55093e-06 0.0714437)
(-3.92371e-06 -2.734e-06 0.0715061)
(6.67751e-05 6.68345e-05 0.106314)
(5.53407e-06 5.57159e-06 0.0882101)
(-7.31416e-05 -7.27629e-05 0.106513)
(-5.05446e-06 -4.27825e-06 0.0882748)
(-3.97733e-06 -5.10568e-06 0.0882728)
(-2.68124e-06 -3.85909e-06 0.071507)
(2.61342e-06 4.21423e-06 0.0714444)
(-3.91236e-06 -2.69915e-06 0.0715058)
(4.17275e-06 2.56039e-06 0.0714436)
(6.67609e-05 6.70702e-05 0.106314)
(-5.05654e-06 -4.07625e-06 0.088275)
(-4.1049e-06 -5.07558e-06 0.0882725)
(5.46671e-06 5.5253e-06 0.0882117)
(5.74632e-06 5.45552e-06 0.0882093)
(1.48614e-07 -1.05987e-05 0.0926979)
(-1.82769e-07 9.40043e-06 0.0825264)
(1.0872e-07 9.32086e-06 0.092638)
(2.15564e-06 -8.41202e-06 0.0825936)
(-5.70433e-07 2.11363e-06 0.109933)
(-9.46254e-08 -1.91039e-05 0.100926)
(4.3591e-06 1.57112e-05 0.0942416)
(3.14947e-06 1.91513e-06 0.10868)
(-1.40169e-08 1.882e-05 0.100822)
(-5.48637e-06 -1.33382e-05 0.0943419)
(-5.91773e-07 2.17365e-06 0.109931)
(5.61973e-07 2.06231e-06 0.109933)
(5.72198e-08 -1.91177e-05 0.100926)
(-4.30783e-06 1.57387e-05 0.0942414)
(-3.0295e-06 1.73071e-06 0.10868)
(-1.63431e-08 1.88161e-05 0.100822)
(5.51609e-06 -1.30801e-05 0.0943418)
(5.48255e-07 2.12852e-06 0.109931)
(-9.18407e-08 9.34671e-06 0.0926381)
(-2.09832e-06 -8.35731e-06 0.0825931)
(2.67224e-07 9.50148e-06 0.0825275)
(-6.18592e-08 -1.05694e-05 0.0926978)
(1.64112e-07 9.33654e-06 0.0926381)
(2.14632e-06 -8.36413e-06 0.0825937)
(-1.66604e-07 9.38805e-06 0.0825264)
(1.84919e-07 -1.05828e-05 0.0926978)
(-2.0801e-08 1.87932e-05 0.100822)
(3.13405e-06 1.90254e-06 0.108682)
(-5.47565e-06 -1.30779e-05 0.0943419)
(-6.62828e-07 2.15034e-06 0.109931)
(4.40308e-06 1.55722e-05 0.0942426)
(-6.60629e-07 2.10757e-06 0.109933)
(-7.10012e-08 -1.90497e-05 0.100926)
(-1.21146e-08 1.87925e-05 0.100822)
(-3.053e-06 1.79788e-06 0.108681)
(5.53222e-06 -1.30196e-05 0.0943418)
(5.75938e-07 2.15505e-06 0.109931)
(-4.29566e-06 1.57353e-05 0.0942415)
(5.7581e-07 2.07952e-06 0.109933)
(6.09942e-08 -1.90515e-05 0.100926)
(-5.63796e-06 5.47538e-06 0.0882116)
(-5.43559e-06 5.59978e-06 0.088208)
(7.29985e-05 -7.29402e-05 0.106513)
(5.04125e-06 -4.05993e-06 0.0882744)
(4.14243e-06 -5.08026e-06 0.088274)
(3.93565e-06 -2.69833e-06 0.071506)
(2.68467e-06 -3.76182e-06 0.0715082)
(-2.47347e-06 4.13523e-06 0.0714413)
(-6.68851e-05 6.68855e-05 0.106314)
(5.04916e-06 -3.98522e-06 0.0882744)
(-5.39767e-06 5.57788e-06 0.088208)
(-5.62235e-06 5.46543e-06 0.0882118)
(-4.1813e-06 2.58018e-06 0.0714442)
(1.58157e-05 4.34096e-06 0.0942431)
(1.7392e-06 2.97396e-06 0.108683)
(2.05621e-06 -5.81904e-07 0.109933)
(-1.90472e-05 -6.19874e-08 0.100926)
(1.579e-06 2.81756e-06 0.10868)
(-1.29027e-05 -5.62e-06 0.0943416)
(2.07197e-06 -4.98535e-07 0.109931)
(9.28888e-06 1.37134e-07 0.0926371)
(9.39204e-06 -1.99062e-07 0.0825267)
(-1.05669e-05 1.36477e-07 0.0926987)
(-8.47135e-06 2.13741e-06 0.0825935)
(2.08392e-06 5.45234e-07 0.109933)
(1.72792e-06 -2.92035e-06 0.108681)
(1.57468e-05 -4.31088e-06 0.0942411)
(-1.905e-05 7.46161e-08 0.100926)
(1.69971e-06 -2.99072e-06 0.108679)
(2.14528e-06 5.47536e-07 0.109931)
(-1.30996e-05 5.55284e-06 0.0943417)
(9.30857e-06 -1.00283e-07 0.092638)
(-8.55897e-06 -2.13636e-06 0.0825929)
(9.2828e-06 1.86913e-07 0.0825276)
(-1.0617e-05 -1.23219e-07 0.0926979)
(1.88415e-05 7.06732e-09 0.100822)
(1.60196e-06 2.8257e-06 0.108682)
(-1.30856e-05 -5.58348e-06 0.0943412)
(2.09574e-06 -5.15358e-07 0.109931)
(1.59458e-05 4.24753e-06 0.0942421)
(2.00727e-06 -5.05393e-07 0.109933)
(-1.90174e-05 -4.4763e-08 0.100926)
(9.2797e-06 1.58413e-07 0.0926373)
(-8.44478e-06 2.11467e-06 0.0825935)
(9.3732e-06 -2.2003e-07 0.0825268)
(-1.05762e-05 1.2884e-07 0.0926983)
(1.88294e-05 1.19652e-08 0.100822)
(1.77866e-06 -2.98167e-06 0.108681)
(2.17174e-06 5.4813e-07 0.109931)
(-1.3058e-05 5.53959e-06 0.0943418)
(2.09137e-06 5.70669e-07 0.109933)
(1.57465e-05 -4.31494e-06 0.0942412)
(-1.90039e-05 8.02115e-08 0.100926)
(-9.4055e-06 2.42615e-07 0.0825276)
(1.05968e-05 -1.08383e-07 0.0926975)
(8.49793e-06 -2.12405e-06 0.0825932)
(-2.06398e-06 5.20925e-07 0.109933)
(-1.88575e-05 5.16391e-09 0.100822)
(-1.57845e-05 -4.2857e-06 0.0942413)
(1.90888e-05 9.25054e-08 0.100925)
(-1.80044e-06 -3.13581e-06 0.10868)
(-2.15352e-06 5.3156e-07 0.109931)
(1.32971e-05 5.50576e-06 0.0943415)
(-9.33413e-06 -1.95678e-07 0.0825272)
(1.05934e-05 1.30586e-07 0.0926973)
(8.46286e-06 2.10387e-06 0.082593)
(-1.88131e-05 8.81764e-09 0.100822)
(-1.7527e-06 2.90574e-06 0.108682)
(-2.17243e-06 -5.45378e-07 0.109931)
(-1.57056e-05 4.33147e-06 0.0942431)
(-2.10971e-06 -5.69057e-07 0.109933)
(-9.3255e-06 -1.34145e-07 0.0926383)
(-9.36815e-06 2.47867e-07 0.0825276)
(-1.8807e-05 2.0089e-08 0.100822)
(-1.81169e-06 -2.95947e-06 0.108681)
(-2.17211e-06 5.68516e-07 0.109931)
(-2.11453e-06 5.75836e-07 0.109933)
(-1.56305e-05 -4.35695e-06 0.0942424)
(-9.33987e-06 1.22352e-07 0.0926384)
(-9.44896e-06 -2.56448e-07 0.0825277)
(5.49567e-06 -5.61783e-06 0.088211)
(5.60597e-06 -5.45234e-06 0.0882085)
(-7.29894e-05 7.30739e-05 0.106513)
(-4.11906e-06 5.07452e-06 0.0882729)
(-5.07266e-06 4.17111e-06 0.0882749)
(-2.67703e-06 3.93588e-06 0.0715062)
(4.16161e-06 -2.53028e-06 0.0714424)
(6.68605e-05 -6.68382e-05 0.106314)
(5.60151e-06 -5.45314e-06 0.0882086)
(5.48003e-06 -5.59535e-06 0.088211)
(2.60779e-06 -4.18547e-06 0.0714437)
(-3.08992e-06 -1.72206e-06 0.108683)
(-1.60537e-08 -1.87995e-05 0.100822)
(-4.37737e-06 -1.56907e-05 0.0942429)
(5.49016e-08 1.90462e-05 0.100926)
(-2.8189e-06 -1.53803e-06 0.10868)
(5.92531e-07 -2.08764e-06 0.109931)
(5.58892e-06 1.29831e-05 0.094342)
(-1.14757e-07 -9.37348e-06 0.092638)
(-1.07814e-07 1.05689e-05 0.0926978)
(-2.1089e-06 8.47246e-06 0.0825932)
(-2.37182e-07 -9.55035e-06 0.0825281)
(1.29933e-07 1.05627e-05 0.092698)
(2.18011e-06 8.47751e-06 0.0825936)
(-1.19395e-08 -1.88237e-05 0.100822)
(2.96656e-06 -1.74788e-06 0.108682)
(-6.10476e-07 -2.07318e-06 0.109933)
(4.36054e-06 -1.5715e-05 0.0942424)
(-6.59966e-09 -1.8821e-05 0.100822)
(-2.95153e-06 -1.68614e-06 0.108682)
(5.56875e-07 -2.0515e-06 0.109933)
(-4.27565e-06 -1.58383e-05 0.094242)
(-1.0674e-07 -9.33558e-06 0.092638)
(2.67202e-07 -9.392e-06 0.0825273)
(1.43261e-07 -9.31815e-06 0.0926378)
(-1.68567e-07 -9.36036e-06 0.0825277)
(-4.18824e-06 -2.58533e-06 0.0714434)
(3.89743e-06 2.68225e-06 0.0715063)
(2.77808e-06 3.88725e-06 0.0715071)
(-6.70714e-05 -6.67809e-05 0.106314)
(-5.57619e-06 -5.44813e-06 0.0882112)
(-5.40677e-06 -5.66513e-06 0.0882083)
(-4.24605e-06 -2.58991e-06 0.0714439)
(-2.49428e-06 -4.16597e-06 0.0714436)
(-8.38015e-06 -2.1164e-06 0.0825935)
(9.59567e-06 2.54032e-07 0.0825277)
(-1.06168e-05 -1.05514e-07 0.0926986)
(9.34731e-06 -7.47956e-08 0.0926375)
(9.67675e-07 -9.69587e-07 0.111122)
(-9.89146e-07 -1.05861e-06 0.111121)
(-1.00817e-06 1.01282e-06 0.111121)
(-1.08555e-06 -9.49644e-07 0.111122)
(-2.39518e-06 2.35105e-06 0.110619)
(-5.55463e-06 1.34088e-05 0.0943425)
(2.97207e-06 -1.65724e-06 0.108681)
(-9.63151e-08 1.9173e-05 0.100926)
(-6.62981e-07 -2.11335e-06 0.109931)
(1.7614e-05 8.1937e-07 0.0972604)
(1.74597e-06 3.14405e-06 0.108683)
(1.74208e-06 3.01552e-06 0.108681)
(-1.91669e-05 -8.36528e-08 0.100926)
(2.09099e-06 -7.53626e-07 0.109933)
(1.87786e-05 1.99337e-09 0.100822)
(2.14681e-06 -7.0528e-07 0.109932)
(9.57358e-06 -2.32549e-07 0.0825273)
(-8.51266e-06 2.17326e-06 0.0825935)
(-1.06078e-05 1.60135e-07 0.0926989)
(9.32416e-06 1.55586e-07 0.0926372)
(-1.30297e-05 5.61301e-06 0.0943419)
(1.61107e-06 -2.92062e-06 0.108681)
(1.5414e-06 -2.88833e-06 0.108679)
(-1.91384e-05 6.18801e-08 0.100926)
(2.04416e-06 6.23706e-07 0.109933)
(1.87941e-05 -5.37329e-10 0.100822)
(2.08424e-06 5.52585e-07 0.109931)
(9.55012e-06 2.58131e-07 0.0825279)
(-1.06191e-05 -1.29208e-07 0.0926985)
(-8.46386e-06 -2.11727e-06 0.0825933)
(9.32567e-06 -8.94285e-08 0.0926377)
(1.77001e-06 3.04245e-06 0.108683)
(-1.91027e-05 -6.95283e-08 0.100926)
(-1.31548e-05 -5.5588e-06 0.0943428)
(1.75233e-06 2.95724e-06 0.108681)
(2.13825e-06 -6.09408e-07 0.109931)
(1.88042e-05 1.63218e-09 0.100822)
(2.09759e-06 -6.85102e-07 0.109933)
(9.38884e-06 -1.93193e-07 0.0825267)
(-1.05851e-05 1.21314e-07 0.092699)
(-8.50226e-06 2.16458e-06 0.0825934)
(9.29412e-06 1.63651e-07 0.0926372)
(-1.91002e-05 6.61753e-08 0.100926)
(2.12137e-06 5.02238e-07 0.109931)
(1.65607e-06 -2.92637e-06 0.108679)
(1.628e-06 -2.92274e-06 0.10868)
(-1.3152e-05 5.58319e-06 0.0943418)
(1.88021e-05 -6.22539e-09 0.100822)
(2.05435e-06 5.31827e-07 0.109933)
(-2.14229e-06 -6.08099e-07 0.109931)
(-1.66111e-06 2.94804e-06 0.108681)
(1.90853e-05 -6.2636e-08 0.100926)
(1.31694e-05 -5.57445e-06 0.0943421)
(-2.08797e-06 -6.45703e-07 0.109933)
(1.06131e-05 -7.57875e-08 0.0926978)
(8.52221e-06 -2.13931e-06 0.0825931)
(-2.08858e-06 4.86282e-07 0.109931)
(1.9069e-05 8.01235e-08 0.100925)
(1.30447e-05 5.62928e-06 0.0943406)
(-1.58913e-06 -2.69837e-06 0.10868)
(-2.04003e-06 5.39346e-07 0.109933)
(-1.58819e-05 -4.25909e-06 0.094242)
(8.609e-06 2.165e-06 0.0825928)
(-9.41897e-06 -1.93298e-07 0.0825274)
(5.8005e-08 1.91714e-05 0.100926)
(6.6902e-07 -2.07204e-06 0.109931)
(-2.11906e-06 8.45713e-06 0.0825931)
(-1.45684e-07 1.06226e-05 0.0926979)
(1.22656e-07 1.06206e-05 0.092698)
(-6.72513e-07 -2.10986e-06 0.109931)
(4.37483e-06 -1.56262e-05 0.0942423)
(2.97959e-06 -1.66353e-06 0.108682)
(-5.53538e-06 1.31839e-05 0.0943425)
(-8.59924e-08 1.91258e-05 0.100926)
(-1.65618e-08 -1.87787e-05 0.100822)
(-7.04201e-07 -2.07337e-06 0.109933)
(-3.02868e-06 -1.74966e-06 0.10868)
(5.5044e-08 1.91282e-05 0.100926)
(5.51012e-06 1.33436e-05 0.0943431)
(-1.76807e-08 -1.87749e-05 0.100822)
(-3.09182e-06 -1.75474e-06 0.108682)
(6.9078e-07 -2.06729e-06 0.109933)
(-4.36472e-06 -1.55627e-05 0.0942417)
(-2.11305e-06 8.44575e-06 0.0825932)
(-1.19692e-07 1.05798e-05 0.0926979)
(-1.37069e-07 -9.34963e-06 0.0926379)
(2.1238e-06 8.36438e-06 0.0825937)
(1.22895e-07 -9.34446e-06 0.0926377)
(-2.48125e-07 -9.49542e-06 0.0825277)
(5.16227e-06 4.22074e-06 0.0882757)
(4.11958e-06 5.04152e-06 0.0882713)
(-6.69216e-05 -6.70802e-05 0.106314)
(-5.76582e-06 -5.46549e-06 0.0882115)
(-5.42936e-06 -5.52081e-06 0.0882079)
(3.95522e-06 2.71246e-06 0.071506)
(-4.24278e-06 -2.54365e-06 0.0714436)
(-2.55706e-06 -4.23781e-06 0.0714434)
(1.16461e-05 5.33306e-06 0.0927589)
(5.59497e-06 5.39541e-06 0.0882107)
(-1.74021e-05 -8.66629e-06 0.0979601)
(-4.12829e-06 -2.75617e-06 0.0820093)
(4.84638e-06 2.40374e-06 0.0819536)
(-1.25507e-05 -5.18369e-06 0.092825)
(1.76359e-05 1.04749e-05 0.0978777)
(-1.25511e-05 -5.1221e-06 0.0928256)
(1.77129e-05 1.05728e-05 0.0978771)
(-4.1611e-06 -5.14251e-06 0.0882753)
(4.83262e-06 2.4336e-06 0.0819537)
(1.16211e-05 5.41811e-06 0.0927587)
(-4.12595e-06 -2.71428e-06 0.0820097)
(-1.73927e-05 -8.57062e-06 0.0979602)
(-3.89677e-06 2.71276e-06 0.0715071)
(-1.24289e-05 4.96452e-06 0.092818)
(1.79495e-05 -1.07872e-05 0.0978715)
(-4.16068e-06 5.09678e-06 0.088273)
(4.8086e-06 -2.56382e-06 0.0819519)
(1.175e-05 -5.68169e-06 0.0927534)
(-4.21009e-06 2.66794e-06 0.0820065)
(-1.7179e-05 8.4989e-06 0.0979526)
(-2.72545e-06 3.90058e-06 0.0715061)
(-1.24688e-05 -4.91887e-06 0.092826)
(1.7707e-05 1.07351e-05 0.0978759)
(4.79984e-06 2.44497e-06 0.0819539)
(-4.0266e-06 -5.11717e-06 0.0882749)
(1.16166e-05 5.49836e-06 0.0927582)
(-4.07106e-06 -2.6626e-06 0.0820098)
(-1.72616e-05 -8.35681e-06 0.0979597)
(3.94707e-06 -2.70532e-06 0.071506)
(4.66915e-06 5.3857e-07 0.0770606)
(-9.04983e-06 -3.07126e-07 0.0908739)
(-4.80662e-06 -2.56134e-07 0.0788635)
(1.05989e-05 -8.67244e-08 0.0926976)
(1.04365e-05 -5.15912e-07 0.090941)
(4.52353e-06 5.60716e-08 0.0789067)
(-4.86252e-06 -1.20763e-06 0.0770077)
(4.71407e-06 -5.09093e-07 0.0770589)
(-4.82185e-06 2.95859e-07 0.0788638)
(-9.07578e-06 3.44249e-07 0.0908748)
(1.06058e-05 1.53376e-07 0.0926974)
(4.52211e-06 -2.75768e-08 0.0789066)
(1.04867e-05 5.71476e-07 0.0909398)
(-4.94384e-06 1.24452e-06 0.0770092)
(-2.681e-06 3.94429e-06 0.0715062)
(1.90513e-07 3.82284e-06 0.0684025)
(-6.96867e-07 -7.79282e-06 0.0863426)
(-2.11384e-06 8.46165e-06 0.0825932)
(-1.58286e-06 8.09025e-06 0.086416)
(-1.90815e-06 -4.18614e-06 0.068329)
(-4.94841e-07 4.71863e-06 0.0770597)
(3.1043e-07 -9.10158e-06 0.0908746)
(3.04197e-07 -4.7736e-06 0.0788629)
(1.23059e-07 1.0559e-05 0.0926981)
(5.66202e-07 1.04387e-05 0.0909406)
(-1.83848e-08 4.52141e-06 0.0789073)
(1.25242e-06 -4.88337e-06 0.0770083)
(2.77006e-06 3.84852e-06 0.0715073)
(-4.95588e-06 1.26749e-06 0.0770092)
(4.52641e-06 -1.70424e-08 0.0789066)
(1.05107e-05 5.93458e-07 0.0909401)
(-9.33573e-06 1.6289e-07 0.0926382)
(4.722e-06 -4.93872e-07 0.077059)
(-4.83285e-06 3.07296e-07 0.0788638)
(-9.0687e-06 3.62492e-07 0.0908747)
(1.74749e-07 3.8348e-06 0.0684024)
(-2.10775e-06 8.43088e-06 0.0825932)
(-6.52672e-07 -7.81025e-06 0.0863425)
(-1.90886e-06 -4.20474e-06 0.0683289)
(-1.55525e-06 8.09396e-06 0.086416)
(1.25488e-06 -4.91561e-06 0.0770084)
(5.52509e-07 1.04484e-05 0.0909406)
(-2.12773e-08 4.52417e-06 0.0789072)
(1.23259e-07 -9.35689e-06 0.0926378)
(-5.02813e-07 4.72375e-06 0.0770596)
(3.03066e-07 -9.10322e-06 0.0908745)
(3.04329e-07 -4.79643e-06 0.078863)
(-2.54123e-06 -4.25312e-06 0.0714437)
(-1.2837e-06 4.9534e-06 0.0770089)
(2.99448e-08 -4.50652e-06 0.0789077)
(-5.90659e-07 -1.05075e-05 0.0909409)
(-1.57005e-07 9.31738e-06 0.0926376)
(-2.99938e-07 4.81243e-06 0.0788633)
(-3.59899e-07 9.07136e-06 0.090874)
(4.89198e-07 -4.70011e-06 0.0770605)
(7.51763e-08 -3.82653e-06 0.0684018)
(-2.23069e-06 -8.61323e-06 0.0825928)
(-7.63393e-07 7.80043e-06 0.086343)
(-1.67904e-06 -8.18084e-06 0.0864152)
(-1.98413e-06 4.29159e-06 0.0683305)
(-1.95699e-06 4.28573e-06 0.0683306)
(-1.65524e-06 -8.18269e-06 0.0864151)
(1.58647e-07 9.35644e-06 0.0825271)
(-7.60261e-07 7.78569e-06 0.0863429)
(1.03963e-07 -3.83607e-06 0.0684016)
(4.68951e-07 -4.70919e-06 0.0770606)
(-1.67983e-07 -1.06413e-05 0.0926985)
(-3.13831e-07 4.80628e-06 0.0788632)
(-3.71675e-07 9.06975e-06 0.090874)
(1.2978e-08 -4.51614e-06 0.0789078)
(-6.06687e-07 -1.05122e-05 0.090941)
(-1.30256e-06 4.94663e-06 0.0770088)
(-3.87298e-06 2.7633e-06 0.0715069)
(4.21506e-06 -2.50789e-06 0.0714424)
(-1.18881e-06 4.92813e-06 0.0770094)
(-1.30139e-07 9.33593e-06 0.092638)
(8.15469e-08 -4.51581e-06 0.0789071)
(-5.27371e-07 -1.04532e-05 0.0909405)
(-2.43436e-07 4.80077e-06 0.0788636)
(-3.12599e-07 9.08499e-06 0.0908746)
(5.61974e-07 -4.71292e-06 0.0770597)
(1.65019e-07 -3.86146e-06 0.0684009)
(-6.64177e-07 7.78825e-06 0.0863436)
(-2.09469e-06 -8.49665e-06 0.0825927)
(-1.87583e-06 4.27494e-06 0.0683313)
(-1.55561e-06 -8.14719e-06 0.0864149)
(5.47558e-07 -4.69625e-06 0.0770599)
(-1.46184e-07 -1.0609e-05 0.0926981)
(-2.56168e-07 4.81068e-06 0.0788635)
(-3.3424e-07 9.07259e-06 0.0908744)
(-1.21247e-06 4.94553e-06 0.0770093)
(6.95177e-08 -4.5063e-06 0.0789072)
(-5.57371e-07 -1.04772e-05 0.0909406)
(-1.85474e-06 4.26539e-06 0.0683316)
(-1.55025e-06 -8.1193e-06 0.0864149)
(2.76572e-07 9.46344e-06 0.0825274)
(-6.48846e-07 7.80831e-06 0.0863437)
(1.73889e-07 -3.889e-06 0.0684006)
(2.6876e-06 -3.81781e-06 0.071508)
(-2.48677e-06 4.14228e-06 0.0714414)