/*--------------------------------*- C++ -*----------------------------------*\
| =========                 |                                                 |
| \\      /  F ield         | OpenFOAM: The Open Source CFD Toolbox           |
|  \\    /   O peration     | Version:  v2012                                 |
|   \\  /    A nd           | Website:  www.openfoam.com                      |
|    \\/     M anipulation  |                                                 |
\*---------------------------------------------------------------------------*/
FoamFile
{
    version     2.0;
    format      ascii;
    class       volScalarField;
    location    "1237.5";
    object      epsilon;
}
// * * * * * * * * * * * * * * * * * * * * * * * * * * * * * * * * * * * * * //

dimensions      [0 2 -3 0 0 0 0];


internalField   nonuniform List<scalar> 
171728
(
1.21526e-09
3.33535e-09
4.55121e-09
5.12936e-09
1.18343e-09
3.06492e-09
4.21726e-09
4.61308e-09
1.12534e-09
2.80183e-09
3.86258e-09
4.1629e-09
1.07237e-09
2.57521e-09
3.54299e-09
3.79482e-09
1.02318e-09
2.38206e-09
3.2668e-09
3.4878e-09
9.77083e-10
2.22044e-09
3.03677e-09
3.23824e-09
9.33289e-10
2.09203e-09
2.84885e-09
3.03343e-09
8.92745e-10
1.99532e-09
2.69288e-09
2.85582e-09
8.54543e-10
1.9324e-09
2.57233e-09
2.69772e-09
8.18704e-10
1.90035e-09
2.49269e-09
2.54202e-09
7.86158e-10
1.89729e-09
2.45452e-09
2.42833e-09
7.56424e-10
1.92882e-09
2.45631e-09
2.37446e-09
7.29206e-10
2.00231e-09
2.50399e-09
2.34599e-09
7.04699e-10
2.12812e-09
2.60227e-09
2.3344e-09
6.82272e-10
2.32348e-09
2.77964e-09
2.39863e-09
6.62014e-10
2.6392e-09
3.10022e-09
2.61729e-09
6.43869e-10
3.11977e-09
3.58564e-09
3.01138e-09
6.28308e-10
3.84968e-09
4.34352e-09
3.731e-09
6.17417e-10
4.96209e-09
5.44382e-09
5.00201e-09
6.1212e-10
6.63773e-09
7.27415e-09
7.23003e-09
6.11173e-10
9.02273e-09
9.3099e-09
1.10624e-08
6.24168e-10
1.26006e-08
1.299e-08
1.75902e-08
6.48001e-10
1.73942e-08
1.81002e-08
2.87069e-08
6.88391e-10
2.40616e-08
2.44273e-08
4.62824e-08
7.67133e-10
3.29314e-08
3.32215e-08
7.23094e-08
8.84772e-10
4.42315e-08
4.53583e-08
1.0839e-07
1.05158e-09
5.80662e-08
5.85565e-08
1.54943e-07
1.31694e-09
7.54844e-08
7.57034e-08
2.25279e-07
1.68473e-09
9.4284e-08
9.54008e-08
2.94379e-07
2.17358e-09
1.17132e-07
1.17165e-07
3.58681e-07
2.90074e-09
1.44682e-07
1.44952e-07
4.42329e-07
3.84015e-09
1.71935e-07
1.7283e-07
5.02298e-07
5.11158e-09
2.04705e-07
2.05837e-07
5.97982e-07
6.9119e-09
2.41508e-07
2.44078e-07
6.57539e-07
8.92785e-09
2.78362e-07
2.81203e-07
6.96352e-07
1.21904e-08
3.19962e-07
3.20338e-07
7.57919e-07
1.55561e-08
3.65278e-07
3.71141e-07
8.03855e-07
1.99585e-08
4.05364e-07
4.19778e-07
8.44174e-07
2.65753e-08
4.57428e-07
4.55348e-07
8.81259e-07
3.23316e-08
5.02374e-07
5.12102e-07
9.12938e-07
4.10174e-08
5.5111e-07
5.55109e-07
9.45189e-07
5.12098e-08
5.99416e-07
6.02482e-07
9.80462e-07
6.17523e-08
6.53526e-07
6.53058e-07
1.01162e-06
7.59078e-08
6.92435e-07
6.95037e-07
1.03386e-06
9.13854e-08
7.40126e-07
7.39101e-07
1.05965e-06
1.07239e-07
7.84628e-07
7.87615e-07
1.09026e-06
1.2856e-07
8.32471e-07
8.31796e-07
1.124e-06
1.50831e-07
8.64897e-07
8.60266e-07
1.14484e-06
1.72505e-07
9.05272e-07
9.06539e-07
1.1661e-06
2.05552e-07
9.37244e-07
9.37247e-07
1.19408e-06
2.22523e-07
9.72707e-07
9.69552e-07
1.21617e-06
2.5026e-07
9.98705e-07
1.00384e-06
1.23752e-06
2.93957e-07
1.029e-06
1.0268e-06
1.26181e-06
3.22258e-07
1.05982e-06
1.04741e-06
1.27961e-06
3.4335e-07
1.07096e-06
1.07651e-06
1.29156e-06
3.76238e-07
1.09461e-06
1.10598e-06
1.31912e-06
4.2053e-07
1.13026e-06
1.11608e-06
1.34014e-06
4.43317e-07
1.13768e-06
1.13446e-06
1.34492e-06
4.7063e-07
1.14822e-06
1.16128e-06
1.36259e-06
5.02791e-07
1.17871e-06
1.17261e-06
1.37924e-06
5.26794e-07
1.19043e-06
1.18758e-06
1.38976e-06
5.52168e-07
1.20125e-06
1.2056e-06
1.40683e-06
5.79293e-07
1.22251e-06
1.21592e-06
1.41966e-06
6.0034e-07
1.22857e-06
1.23001e-06
1.42216e-06
6.22448e-07
1.24311e-06
1.2489e-06
1.44249e-06
6.40309e-07
1.26293e-06
1.2544e-06
1.45827e-06
6.58058e-07
1.26107e-06
1.26162e-06
1.45283e-06
6.77761e-07
1.26189e-06
1.2717e-06
1.4562e-06
6.92526e-07
1.29057e-06
1.28197e-06
1.49103e-06
7.09544e-07
1.29742e-06
1.29776e-06
1.49677e-06
7.20056e-07
1.28737e-06
1.29176e-06
1.47549e-06
7.30923e-07
1.29728e-06
1.28956e-06
1.491e-06
7.51554e-07
1.30926e-06
1.31265e-06
1.51542e-06
7.60232e-07
1.30885e-06
1.31483e-06
1.51189e-06
7.63558e-07
1.3099e-06
1.30773e-06
1.50642e-06
7.79387e-07
1.31402e-06
1.31477e-06
1.51186e-06
7.91684e-07
1.31416e-06
1.32229e-06
1.51302e-06
7.91387e-07
1.31529e-06
1.31781e-06
1.51637e-06
7.92804e-07
1.33096e-06
1.31755e-06
1.54008e-06
8.07034e-07
1.336e-06
1.33025e-06
1.54709e-06
8.11511e-07
1.31589e-06
1.325e-06
1.52476e-06
8.05111e-07
1.297e-06
1.30829e-06
1.50183e-06
8.03907e-07
1.30637e-06
1.31158e-06
1.50839e-06
8.18198e-07
1.33439e-06
1.32943e-06
1.54758e-06
8.21942e-07
1.33577e-06
1.31924e-06
1.55316e-06
8.06976e-07
1.29959e-06
1.30269e-06
1.51198e-06
8.0165e-07
1.28587e-06
1.3094e-06
1.49855e-06
8.1411e-07
1.31017e-06
1.31412e-06
1.53361e-06
8.15822e-07
1.31866e-06
1.28918e-06
1.53777e-06
7.95362e-07
1.28356e-06
1.27138e-06
1.49188e-06
7.88337e-07
1.2692e-06
1.29679e-06
1.49465e-06
8.07503e-07
1.30183e-06
1.32088e-06
1.54817e-06
8.09026e-07
1.2975e-06
1.27313e-06
1.51543e-06
7.63508e-07
1.23291e-06
1.21518e-06
1.43328e-06
7.34613e-07
1.17733e-06
1.18767e-06
1.42927e-06
5.30015e-09
3.96447e-09
4.5746e-09
4.80618e-09
3.78358e-09
3.98714e-09
1.19694e-09
1.21624e-09
1.53944e-09
1.38704e-09
3.62839e-09
3.65726e-09
5.25416e-09
3.96555e-09
4.74642e-09
5.14838e-09
5.27671e-09
4.72751e-09
3.43223e-09
7.24979e-09
3.22496e-09
6.60112e-09
4.78718e-09
4.49404e-09
3.37452e-09
7.08583e-09
3.1903e-09
6.75046e-09
3.37524e-09
3.1382e-09
3.18549e-09
5.21919e-09
4.77148e-09
5.06407e-09
4.31071e-09
4.85119e-09
4.64409e-09
4.6977e-09
4.20839e-09
3.14646e-09
6.00674e-09
2.93162e-09
4.2836e-09
4.45871e-09
4.02302e-09
3.1204e-09
6.66072e-09
2.92668e-09
6.16779e-09
3.11494e-09
2.86301e-09
2.9172e-09
4.73281e-09
4.34003e-09
4.76909e-09
3.94818e-09
4.54232e-09
4.18777e-09
4.18524e-09
3.78427e-09
2.86597e-09
3.84569e-09
2.68368e-09
2.98798e-09
3.99086e-09
3.54392e-09
2.86715e-09
5.9017e-09
2.70046e-09
4.94179e-09
2.85559e-09
2.62857e-09
2.68246e-09
4.30598e-09
3.93831e-09
4.47192e-09
3.61888e-09
4.27514e-09
3.81595e-09
3.76666e-09
3.43561e-09
2.62715e-09
2.80967e-09
2.46948e-09
2.47697e-09
3.52476e-09
3.24439e-09
2.64874e-09
4.6241e-09
2.50405e-09
3.88636e-09
2.62887e-09
2.42743e-09
2.47977e-09
3.90719e-09
3.57338e-09
4.21267e-09
3.33169e-09
4.04768e-09
3.50497e-09
3.42254e-09
3.14021e-09
2.4204e-09
2.41912e-09
2.28554e-09
2.27788e-09
3.23529e-09
2.95316e-09
2.4593e-09
3.72273e-09
2.3365e-09
3.39141e-09
2.43401e-09
2.25727e-09
2.30785e-09
3.5486e-09
3.27134e-09
4.0022e-09
3.08984e-09
3.89192e-09
3.25155e-09
3.13035e-09
2.87753e-09
2.24492e-09
2.22045e-09
2.1367e-09
2.06079e-09
2.94345e-09
2.73554e-09
2.29954e-09
3.31796e-09
2.19903e-09
3.1627e-09
2.26894e-09
2.12082e-09
2.16419e-09
3.25272e-09
3.03331e-09
3.86217e-09
2.89253e-09
3.78478e-09
3.04336e-09
2.87102e-09
2.65701e-09
2.10574e-09
2.02279e-09
2.02442e-09
1.94766e-09
2.73088e-09
2.53747e-09
2.16977e-09
3.12393e-09
2.0921e-09
3.02791e-09
2.13348e-09
2.01646e-09
2.05759e-09
3.01896e-09
2.83717e-09
3.76197e-09
2.72938e-09
3.70996e-09
2.86234e-09
2.65366e-09
2.47939e-09
2.0021e-09
1.92948e-09
1.94564e-09
1.88722e-09
2.53472e-09
2.37548e-09
2.07064e-09
3.00578e-09
2.0163e-09
2.95948e-09
2.03608e-09
1.94452e-09
1.9829e-09
2.82806e-09
2.69549e-09
3.69191e-09
2.59952e-09
3.61795e-09
2.70274e-09
2.47947e-09
2.34475e-09
1.93144e-09
1.87566e-09
1.90018e-09
1.85156e-09
2.37615e-09
2.25292e-09
2.00283e-09
2.9525e-09
1.97311e-09
2.95292e-09
1.96948e-09
1.90532e-09
1.93719e-09
2.69117e-09
2.59089e-09
3.58392e-09
2.50949e-09
3.44012e-09
2.5454e-09
2.34775e-09
2.24838e-09
1.89498e-09
1.84741e-09
1.89284e-09
1.84453e-09
2.25623e-09
2.16493e-09
1.96777e-09
2.95671e-09
1.96295e-09
2.99396e-09
1.93083e-09
1.89512e-09
1.92332e-09
2.59089e-09
2.52374e-09
3.38088e-09
2.4598e-09
3.20047e-09
2.4248e-09
2.25465e-09
2.18958e-09
1.89624e-09
1.84733e-09
1.92011e-09
1.87062e-09
2.17148e-09
2.11285e-09
1.9653e-09
3.01444e-09
1.98647e-09
3.09735e-09
1.92488e-09
1.91988e-09
1.94403e-09
2.52778e-09
2.49722e-09
3.15008e-09
2.45247e-09
3.0404e-09
2.36439e-09
2.20166e-09
2.17264e-09
1.9325e-09
1.88408e-09
1.98603e-09
1.94044e-09
2.1256e-09
2.10095e-09
1.99751e-09
3.12826e-09
2.04882e-09
3.23729e-09
1.95578e-09
1.98474e-09
2.00706e-09
2.5086e-09
2.50854e-09
3.01525e-09
2.48828e-09
2.96057e-09
2.33095e-09
2.19371e-09
2.20535e-09
2.00872e-09
1.9639e-09
2.10478e-09
2.05896e-09
2.12244e-09
2.1396e-09
2.07036e-09
3.28786e-09
2.16151e-09
3.49777e-09
2.03117e-09
2.0975e-09
2.11977e-09
2.52908e-09
2.56828e-09
2.93725e-09
2.57176e-09
2.87141e-09
2.3099e-09
2.23853e-09
2.30466e-09
2.14585e-09
2.09903e-09
2.29186e-09
2.2522e-09
2.17355e-09
2.24055e-09
2.20045e-09
3.58654e-09
2.33923e-09
3.85451e-09
2.15691e-09
2.27559e-09
2.30437e-09
2.60135e-09
2.68677e-09
2.84506e-09
2.72528e-09
2.8182e-09
2.35178e-09
2.35857e-09
2.49881e-09
2.35536e-09
2.31198e-09
2.57952e-09
2.54071e-09
2.2957e-09
2.44443e-09
2.39962e-09
3.95427e-09
2.62196e-09
4.276e-09
2.36632e-09
2.55487e-09
2.59594e-09
2.74305e-09
2.93764e-09
2.82415e-09
3.0011e-09
2.91219e-09
2.52925e-09
2.59179e-09
2.8597e-09
2.67759e-09
2.63448e-09
3.0203e-09
2.9891e-09
2.53782e-09
2.80256e-09
2.71984e-09
4.46086e-09
3.05338e-09
4.98168e-09
2.69095e-09
2.99228e-09
3.043e-09
3.04541e-09
3.43236e-09
2.96218e-09
3.42622e-09
3.20106e-09
2.86507e-09
3.00983e-09
3.48913e-09
3.16258e-09
3.12584e-09
3.68726e-09
3.64173e-09
2.95484e-09
3.42538e-09
3.19375e-09
5.21146e-09
3.72951e-09
6.15272e-09
3.18558e-09
3.63816e-09
3.70536e-09
3.61404e-09
4.29487e-09
3.31438e-09
4.1181e-09
3.80853e-09
3.48127e-09
3.74043e-09
4.59377e-09
3.89979e-09
3.85568e-09
4.71938e-09
4.66021e-09
3.67362e-09
4.50964e-09
3.94256e-09
6.37435e-09
4.71592e-09
7.44424e-09
3.92558e-09
4.64092e-09
4.71647e-09
4.57915e-09
5.50998e-09
4.01959e-09
5.15505e-09
4.80171e-09
4.58526e-09
5.01063e-09
6.54648e-09
5.02777e-09
4.97781e-09
6.21753e-09
6.16508e-09
4.92886e-09
6.48133e-09
5.03031e-09
8.05269e-09
6.29798e-09
9.34688e-09
5.03525e-09
6.16201e-09
6.23639e-09
5.94402e-09
7.48546e-09
5.13317e-09
6.74985e-09
6.30089e-09
6.5296e-09
7.24352e-09
1.00008e-08
6.68562e-09
6.63848e-09
8.52206e-09
8.36452e-09
7.18855e-09
9.85753e-09
6.76026e-09
9.57639e-09
8.46881e-09
1.04951e-08
6.72229e-09
8.33133e-09
8.46088e-09
8.15717e-09
1.03284e-08
6.79669e-09
8.68538e-09
8.50793e-09
9.91719e-09
1.11856e-08
1.59665e-08
9.23342e-09
9.06171e-09
1.16148e-08
1.16501e-08
1.09851e-08
1.58214e-08
9.18289e-09
1.10984e-08
1.17681e-08
1.3919e-08
9.14323e-09
1.16117e-08
1.16671e-08
1.12734e-08
1.57036e-08
9.1659e-09
1.206e-08
1.17436e-08
1.57308e-08
1.78006e-08
2.5553e-08
1.26347e-08
1.26635e-08
1.62238e-08
1.61063e-08
1.7783e-08
2.59412e-08
1.28231e-08
1.50071e-08
1.63333e-08
1.81006e-08
1.26016e-08
1.60008e-08
1.62818e-08
1.76858e-08
2.69652e-08
1.26984e-08
1.66052e-08
1.626e-08
2.57853e-08
2.84627e-08
4.19406e-08
1.76351e-08
1.74833e-08
2.23683e-08
2.22558e-08
2.86784e-08
4.14712e-08
1.76952e-08
1.91595e-08
2.24137e-08
2.29655e-08
1.76529e-08
2.21333e-08
2.24665e-08
2.97398e-08
4.1246e-08
1.77435e-08
2.27134e-08
2.2315e-08
4.19363e-08
4.6088e-08
6.49096e-08
2.41484e-08
2.42068e-08
3.04749e-08
3.07969e-08
4.60372e-08
6.68629e-08
2.41969e-08
2.45222e-08
3.05667e-08
3.0481e-08
2.45388e-08
3.06261e-08
3.06317e-08
4.56139e-08
6.54218e-08
2.4263e-08
3.07186e-08
3.06301e-08
6.63802e-08
7.11514e-08
1.01129e-07
3.29573e-08
3.31136e-08
4.15328e-08
4.14419e-08
7.30543e-08
1.00883e-07
3.30528e-08
3.2838e-08
4.15815e-08
4.12544e-08
3.28228e-08
4.11316e-08
4.18027e-08
7.11448e-08
9.96749e-08
3.27811e-08
4.20773e-08
4.18807e-08
9.95078e-08
1.09658e-07
1.46854e-07
4.46673e-08
4.45873e-08
5.4616e-08
5.47042e-08
1.09005e-07
1.47381e-07
4.47182e-08
4.45684e-08
5.46882e-08
5.47833e-08
4.5331e-08
5.42353e-08
5.37241e-08
1.08408e-07
1.46771e-07
4.54124e-08
5.50247e-08
5.3869e-08
1.45895e-07
1.5704e-07
2.0419e-07
5.82482e-08
5.85571e-08
7.09589e-08
7.14889e-08
1.58106e-07
2.06325e-07
5.83382e-08
5.84732e-08
7.10206e-08
7.1358e-08
5.7348e-08
7.09018e-08
7.30927e-08
1.57162e-07
2.04323e-07
5.72701e-08
7.12778e-08
7.3913e-08
2.07938e-07
2.17416e-07
2.75146e-07
7.56078e-08
7.61169e-08
9.01476e-08
9.0194e-08
2.19632e-07
2.74389e-07
7.56511e-08
7.58314e-08
9.01885e-08
9.04675e-08
7.88967e-08
8.94188e-08
9.07705e-08
2.17528e-07
2.7451e-07
7.98203e-08
9.00358e-08
9.12348e-08
2.84409e-07
2.89715e-07
3.49606e-07
9.54107e-08
9.50927e-08
1.12259e-07
1.11735e-07
2.88013e-07
3.46362e-07
9.53975e-08
9.59427e-08
1.12238e-07
1.12224e-07
9.44877e-08
1.10872e-07
1.12291e-07
2.88856e-07
3.47889e-07
9.52225e-08
1.11318e-07
1.13129e-07
3.40673e-07
3.65267e-07
4.26666e-07
1.18123e-07
1.18002e-07
1.37566e-07
1.38533e-07
3.6259e-07
4.29474e-07
1.18139e-07
1.17886e-07
1.37498e-07
1.37467e-07
1.18963e-07
1.37571e-07
1.38636e-07
3.63278e-07
4.25733e-07
1.20179e-07
1.37768e-07
1.42496e-07
4.28568e-07
4.42407e-07
5.01601e-07
1.44393e-07
1.45655e-07
1.65454e-07
1.66305e-07
4.46055e-07
5.02722e-07
1.44355e-07
1.44687e-07
1.65366e-07
1.67364e-07
1.44382e-07
1.65103e-07
1.62664e-07
4.42243e-07
5.02826e-07
1.49091e-07
1.65828e-07
1.62791e-07
4.85864e-07
5.17529e-07
5.72918e-07
1.73249e-07
1.73169e-07
1.97726e-07
1.97119e-07
5.17258e-07
5.70288e-07
1.73162e-07
1.74818e-07
1.97733e-07
1.97263e-07
1.70595e-07
1.95651e-07
2.01783e-07
5.18108e-07
5.71069e-07
1.67883e-07
1.96417e-07
1.96988e-07
5.78928e-07
5.87955e-07
6.37575e-07
2.05979e-07
2.06151e-07
2.33062e-07
2.33688e-07
5.85865e-07
6.37882e-07
2.05808e-07
2.0581e-07
2.32787e-07
2.33737e-07
2.12851e-07
2.32494e-07
2.39268e-07
5.86304e-07
6.38287e-07
2.09854e-07
2.352e-07
2.45426e-07
6.46561e-07
6.51233e-07
6.91839e-07
2.42436e-07
2.42717e-07
2.68766e-07
2.70372e-07
6.52031e-07
6.93036e-07
2.42403e-07
2.42744e-07
2.69027e-07
2.71047e-07
2.45887e-07
2.68989e-07
2.66544e-07
6.52429e-07
6.95257e-07
2.53719e-07
2.71313e-07
2.7117e-07
6.84971e-07
7.05275e-07
7.47237e-07
2.77723e-07
2.79796e-07
3.11016e-07
3.10178e-07
7.05499e-07
7.44908e-07
2.77814e-07
2.81277e-07
3.10824e-07
3.10842e-07
2.75085e-07
3.08605e-07
3.09553e-07
7.07994e-07
7.43045e-07
2.7782e-07
3.10359e-07
3.08737e-07
7.43742e-07
7.5911e-07
7.89352e-07
3.23146e-07
3.21479e-07
3.53763e-07
3.5599e-07
7.58003e-07
7.92437e-07
3.22974e-07
3.20354e-07
3.53629e-07
3.53733e-07
3.22916e-07
3.54621e-07
3.57172e-07
7.55437e-07
7.95086e-07
3.21548e-07
3.56809e-07
3.56315e-07
7.93241e-07
7.9999e-07
8.31162e-07
3.62978e-07
3.66596e-07
3.95105e-07
3.96223e-07
8.0281e-07
8.29849e-07
3.62922e-07
3.66976e-07
3.95653e-07
4.02669e-07
3.66582e-07
3.94541e-07
3.98988e-07
8.06622e-07
8.32438e-07
3.66118e-07
4.10303e-07
3.99791e-07
8.33621e-07
8.42306e-07
8.72842e-07
4.07639e-07
4.06972e-07
4.4733e-07
4.45879e-07
8.40391e-07
8.71056e-07
4.08169e-07
4.1167e-07
4.4777e-07
4.40273e-07
4.11574e-07
4.44265e-07
4.47663e-07
8.41022e-07
8.67733e-07
4.13289e-07
4.44615e-07
4.48862e-07
8.71978e-07
8.82322e-07
9.035e-07
4.59844e-07
4.59083e-07
4.91688e-07
4.93213e-07
8.81136e-07
9.04576e-07
4.60033e-07
4.53076e-07
4.91413e-07
4.98207e-07
4.58288e-07
4.9187e-07
4.92348e-07
8.78695e-07
9.07687e-07
4.58077e-07
4.97959e-07
4.90236e-07
9.04216e-07
9.11995e-07
9.37093e-07
5.02147e-07
5.03664e-07
5.39106e-07
5.39214e-07
9.12933e-07
9.36211e-07
5.02043e-07
5.11167e-07
5.40317e-07
5.40526e-07
5.05045e-07
5.38079e-07
5.40366e-07
9.16306e-07
9.3554e-07
5.03291e-07
5.45339e-07
5.39992e-07
9.36283e-07
9.46314e-07
9.69668e-07
5.52158e-07
5.52429e-07
5.89662e-07
5.8896e-07
9.45249e-07
9.6967e-07
5.53773e-07
5.50486e-07
5.90766e-07
5.87018e-07
5.51035e-07
5.87194e-07
5.8922e-07
9.43696e-07
9.68614e-07
5.51359e-07
5.8883e-07
5.91636e-07
9.71239e-07
9.77416e-07
9.98048e-07
6.01277e-07
6.00896e-07
6.35219e-07
6.41575e-07
9.78222e-07
1.00135e-06
6.01936e-07
6.01636e-07
6.36559e-07
6.42194e-07
6.04466e-07
6.40957e-07
6.44428e-07
9.77851e-07
1.00174e-06
6.07559e-07
6.42639e-07
6.50881e-07
1.00446e-06
1.00631e-06
1.02931e-06
6.47481e-07
6.54117e-07
6.85533e-07
6.83422e-07
1.0091e-06
1.027e-06
6.49236e-07
6.52426e-07
6.85372e-07
6.84012e-07
6.53816e-07
6.82367e-07
6.83874e-07
1.00897e-06
1.02723e-06
6.60986e-07
6.83245e-07
6.85382e-07
1.02735e-06
1.03678e-06
1.05567e-06
6.97334e-07
6.93602e-07
7.30746e-07
7.29718e-07
1.03376e-06
1.05436e-06
6.96164e-07
6.9647e-07
7.31156e-07
7.30297e-07
6.95782e-07
7.28593e-07
7.28297e-07
1.03451e-06
1.05475e-06
6.93676e-07
7.2891e-07
7.229e-07
1.05228e-06
1.06258e-06
1.08228e-06
7.41274e-07
7.41349e-07
7.71752e-07
7.741e-07
1.06215e-06
1.08414e-06
7.43092e-07
7.40061e-07
7.72675e-07
7.7471e-07
7.3767e-07
7.72629e-07
7.69026e-07
1.06226e-06
1.08483e-06
7.35039e-07
7.74031e-07
7.74353e-07
1.0821e-06
1.08962e-06
1.11204e-06
7.82926e-07
7.85947e-07
8.21134e-07
8.22151e-07
1.09141e-06
1.11344e-06
7.82086e-07
7.88415e-07
8.18588e-07
8.25056e-07
7.81934e-07
8.21754e-07
8.25507e-07
1.09266e-06
1.11386e-06
7.86937e-07
8.23773e-07
8.23638e-07
1.11662e-06
1.11918e-06
1.1363e-06
8.32594e-07
8.32582e-07
8.55247e-07
8.56635e-07
1.12057e-06
1.13707e-06
8.30949e-07
8.33327e-07
8.57725e-07
8.53167e-07
8.3886e-07
8.57104e-07
8.65348e-07
1.11983e-06
1.13333e-06
8.34095e-07
8.51558e-07
8.56065e-07
1.13989e-06
1.14211e-06
1.16388e-06
8.61968e-07
8.64292e-07
8.92682e-07
8.94676e-07
1.14253e-06
1.16112e-06
8.65859e-07
8.61554e-07
8.98918e-07
8.9534e-07
8.71139e-07
8.94831e-07
8.91953e-07
1.13917e-06
1.16075e-06
8.62913e-07
8.94659e-07
8.9142e-07
1.15942e-06
1.1718e-06
1.19041e-06
9.05195e-07
9.05728e-07
9.35996e-07
9.31673e-07
1.16831e-06
1.1877e-06
9.10991e-07
9.07557e-07
9.37779e-07
9.35372e-07
9.00759e-07
9.29695e-07
9.29408e-07
1.16834e-06
1.1883e-06
9.02216e-07
9.31662e-07
9.30394e-07
1.18765e-06
1.1945e-06
1.20174e-06
9.41412e-07
9.38874e-07
9.54694e-07
9.62701e-07
1.19348e-06
1.20964e-06
9.42266e-07
9.41024e-07
9.51468e-07
9.59971e-07
9.39192e-07
9.64023e-07
9.66742e-07
1.19354e-06
1.20769e-06
9.3884e-07
9.59458e-07
9.6364e-07
1.21064e-06
1.207e-06
1.23286e-06
9.62401e-07
9.7073e-07
9.95163e-07
9.92345e-07
1.21565e-06
1.23212e-06
9.57739e-07
9.69316e-07
9.90795e-07
1.00028e-06
9.73885e-07
9.92918e-07
9.91287e-07
1.21428e-06
1.23816e-06
9.70625e-07
9.97272e-07
9.88948e-07
1.2318e-06
1.24113e-06
1.26177e-06
1.00556e-06
9.99183e-07
1.02556e-06
1.02117e-06
1.23744e-06
1.25372e-06
1.00333e-06
1.00913e-06
1.03184e-06
1.02815e-06
9.98146e-07
1.02025e-06
1.02417e-06
1.24474e-06
1.25771e-06
9.96129e-07
1.02066e-06
1.02256e-06
1.25588e-06
1.26641e-06
1.27439e-06
1.03005e-06
1.02903e-06
1.04659e-06
1.05187e-06
1.26028e-06
1.27835e-06
1.03757e-06
1.03273e-06
1.0496e-06
1.04283e-06
1.03277e-06
1.05371e-06
1.05154e-06
1.26138e-06
1.2683e-06
1.03129e-06
1.0428e-06
1.05068e-06
1.27568e-06
1.27807e-06
1.28726e-06
1.05195e-06
1.05812e-06
1.06604e-06
1.06911e-06
1.28323e-06
1.28976e-06
1.05222e-06
1.04637e-06
1.06186e-06
1.06622e-06
1.05513e-06
1.06943e-06
1.06427e-06
1.27227e-06
1.28854e-06
1.05437e-06
1.06751e-06
1.06339e-06
1.28706e-06
1.29219e-06
1.31272e-06
1.07183e-06
1.07088e-06
1.09504e-06
1.08518e-06
1.29257e-06
1.30371e-06
1.06836e-06
1.07554e-06
1.09558e-06
1.10077e-06
1.0694e-06
1.08513e-06
1.09346e-06
1.296e-06
1.31787e-06
1.06871e-06
1.10062e-06
1.09389e-06
1.31183e-06
1.31943e-06
1.33311e-06
1.10293e-06
1.09449e-06
1.11898e-06
1.12319e-06
1.31092e-06
1.33608e-06
1.10432e-06
1.10633e-06
1.12085e-06
1.11463e-06
1.10242e-06
1.12358e-06
1.12343e-06
1.32298e-06
1.32768e-06
1.10296e-06
1.11435e-06
1.12268e-06
1.33656e-06
1.33623e-06
1.34144e-06
1.12186e-06
1.12996e-06
1.13127e-06
1.13774e-06
1.34186e-06
1.34712e-06
1.12295e-06
1.11618e-06
1.12975e-06
1.12698e-06
1.12705e-06
1.13748e-06
1.13264e-06
1.32949e-06
1.33713e-06
1.12555e-06
1.12777e-06
1.12994e-06
1.34165e-06
1.3458e-06
1.36041e-06
1.13596e-06
1.13809e-06
1.15225e-06
1.14261e-06
1.34857e-06
1.352e-06
1.13449e-06
1.13357e-06
1.15397e-06
1.15556e-06
1.13544e-06
1.14129e-06
1.14832e-06
1.34301e-06
1.36283e-06
1.13354e-06
1.15565e-06
1.15131e-06
1.35729e-06
1.36551e-06
1.37469e-06
1.15709e-06
1.14972e-06
1.16845e-06
1.17299e-06
1.35724e-06
1.37709e-06
1.15994e-06
1.16165e-06
1.17111e-06
1.17196e-06
1.15353e-06
1.17209e-06
1.17033e-06
1.36831e-06
1.3761e-06
1.15706e-06
1.17035e-06
1.17091e-06
1.3754e-06
1.37796e-06
1.38586e-06
1.17255e-06
1.17932e-06
1.18661e-06
1.18943e-06
1.38278e-06
1.39109e-06
1.17353e-06
1.17405e-06
1.1828e-06
1.18315e-06
1.17523e-06
1.18941e-06
1.18536e-06
1.3788e-06
1.38596e-06
1.17405e-06
1.18315e-06
1.18183e-06
1.38605e-06
1.39005e-06
1.4004e-06
1.19054e-06
1.19038e-06
1.2003e-06
1.19469e-06
1.39315e-06
1.39698e-06
1.1868e-06
1.18734e-06
1.20091e-06
1.20149e-06
1.18817e-06
1.19581e-06
1.20089e-06
1.39026e-06
1.40136e-06
1.1854e-06
1.20144e-06
1.20163e-06
1.40166e-06
1.40459e-06
1.41392e-06
1.20395e-06
1.19961e-06
1.21541e-06
1.21687e-06
1.4015e-06
1.41529e-06
1.20587e-06
1.20593e-06
1.21716e-06
1.21454e-06
1.20634e-06
1.21836e-06
1.21959e-06
1.40544e-06
1.41193e-06
1.20749e-06
1.21409e-06
1.21899e-06
1.41708e-06
1.41757e-06
1.42481e-06
1.21874e-06
1.22147e-06
1.22824e-06
1.22853e-06
1.41963e-06
1.42316e-06
1.21905e-06
1.2163e-06
1.22696e-06
1.22623e-06
1.22198e-06
1.22804e-06
1.22486e-06
1.41485e-06
1.42276e-06
1.22048e-06
1.22502e-06
1.2225e-06
1.41923e-06
1.42883e-06
1.43835e-06
1.23167e-06
1.22935e-06
1.24191e-06
1.23758e-06
1.42509e-06
1.43429e-06
1.23134e-06
1.23149e-06
1.24379e-06
1.24584e-06
1.22579e-06
1.23602e-06
1.23839e-06
1.42779e-06
1.44159e-06
1.22413e-06
1.24529e-06
1.24147e-06
1.43627e-06
1.44171e-06
1.44457e-06
1.24453e-06
1.24401e-06
1.25051e-06
1.25955e-06
1.44061e-06
1.45603e-06
1.24638e-06
1.2487e-06
1.24951e-06
1.25178e-06
1.24482e-06
1.26005e-06
1.25983e-06
1.44547e-06
1.44694e-06
1.24765e-06
1.25383e-06
1.25922e-06
1.45565e-06
1.44729e-06
1.45518e-06
1.25297e-06
1.26214e-06
1.26259e-06
1.26229e-06
1.45941e-06
1.4545e-06
1.25034e-06
1.2522e-06
1.25975e-06
1.25885e-06
1.26218e-06
1.26289e-06
1.2619e-06
1.44849e-06
1.45309e-06
1.26022e-06
1.25876e-06
1.25805e-06
1.45187e-06
1.45925e-06
1.46652e-06
1.26559e-06
1.26108e-06
1.27052e-06
1.26092e-06
1.45549e-06
1.45358e-06
1.26422e-06
1.26312e-06
1.27421e-06
1.27314e-06
1.26015e-06
1.25998e-06
1.25908e-06
1.45694e-06
1.4649e-06
1.25716e-06
1.26994e-06
1.25818e-06
1.45134e-06
1.46928e-06
1.47501e-06
1.27115e-06
1.26347e-06
1.27757e-06
1.28373e-06
1.45787e-06
1.48041e-06
1.27578e-06
1.27495e-06
1.28051e-06
1.2782e-06
1.26107e-06
1.28444e-06
1.2862e-06
1.46794e-06
1.47322e-06
1.26269e-06
1.2774e-06
1.28652e-06
1.48394e-06
1.47913e-06
1.48688e-06
1.28256e-06
1.28937e-06
1.29382e-06
1.29728e-06
1.48677e-06
1.49365e-06
1.28303e-06
1.28112e-06
1.28932e-06
1.29274e-06
1.293e-06
1.29833e-06
1.30087e-06
1.47752e-06
1.49005e-06
1.29258e-06
1.29554e-06
1.29934e-06
1.49644e-06
1.48891e-06
1.48153e-06
1.29519e-06
1.29701e-06
1.29257e-06
1.29082e-06
1.49454e-06
1.48157e-06
1.29005e-06
1.29494e-06
1.28848e-06
1.29395e-06
1.29911e-06
1.28843e-06
1.28545e-06
1.49351e-06
1.48658e-06
1.29775e-06
1.29512e-06
1.28521e-06
1.47483e-06
1.4826e-06
1.48617e-06
1.29104e-06
1.28988e-06
1.29095e-06
1.29224e-06
1.48268e-06
1.48863e-06
1.28778e-06
1.29135e-06
1.29092e-06
1.28905e-06
1.2836e-06
1.29192e-06
1.28839e-06
1.48715e-06
1.48218e-06
1.28332e-06
1.28831e-06
1.28654e-06
1.48326e-06
1.49193e-06
1.5087e-06
1.29444e-06
1.29655e-06
1.3091e-06
1.3068e-06
1.49371e-06
1.50397e-06
1.29746e-06
1.29088e-06
1.31223e-06
1.30977e-06
1.29634e-06
1.30768e-06
1.31259e-06
1.48654e-06
1.50657e-06
1.29435e-06
1.30824e-06
1.31218e-06
1.51138e-06
1.5125e-06
1.50656e-06
1.31175e-06
1.30879e-06
1.31224e-06
1.31038e-06
1.5067e-06
1.50457e-06
1.31433e-06
1.31378e-06
1.31103e-06
1.31631e-06
1.31509e-06
1.30944e-06
1.31427e-06
1.51166e-06
1.51241e-06
1.31519e-06
1.31662e-06
1.31539e-06
1.51106e-06
1.50721e-06
1.49958e-06
1.3096e-06
1.30983e-06
1.30542e-06
1.30891e-06
1.50594e-06
1.50651e-06
1.30775e-06
1.31342e-06
1.30338e-06
1.30651e-06
1.31203e-06
1.30884e-06
1.30843e-06
1.51317e-06
1.50315e-06
1.31269e-06
1.30833e-06
1.30802e-06
1.50477e-06
1.5023e-06
1.51575e-06
1.30547e-06
1.30922e-06
1.31602e-06
1.31344e-06
1.50911e-06
1.51256e-06
1.30354e-06
1.30595e-06
1.31579e-06
1.3111e-06
1.30824e-06
1.31327e-06
1.31159e-06
1.50457e-06
1.51048e-06
1.30767e-06
1.31127e-06
1.31062e-06
1.50934e-06
1.52101e-06
1.52833e-06
1.32028e-06
1.31477e-06
1.32591e-06
1.31673e-06
1.51474e-06
1.51329e-06
1.32047e-06
1.31547e-06
1.3274e-06
1.32393e-06
1.31303e-06
1.31454e-06
1.31424e-06
1.51476e-06
1.52286e-06
1.31245e-06
1.32155e-06
1.31505e-06
1.51174e-06
1.52951e-06
1.51622e-06
1.32553e-06
1.31681e-06
1.31669e-06
1.31728e-06
1.51474e-06
1.51702e-06
1.32732e-06
1.32484e-06
1.31761e-06
1.32053e-06
1.31366e-06
1.31404e-06
1.31196e-06
1.52529e-06
1.51932e-06
1.31512e-06
1.31952e-06
1.31488e-06
1.51257e-06
1.51698e-06
1.51402e-06
1.3148e-06
1.31887e-06
1.31467e-06
1.32816e-06
1.52084e-06
1.53335e-06
1.31462e-06
1.31776e-06
1.31127e-06
1.31393e-06
1.31272e-06
1.32729e-06
1.32871e-06
1.52031e-06
1.51659e-06
1.31577e-06
1.31624e-06
1.32792e-06
1.53448e-06
1.51789e-06
1.5299e-06
1.31841e-06
1.33071e-06
1.32881e-06
1.3334e-06
1.53771e-06
1.5405e-06
1.31212e-06
1.3142e-06
1.32428e-06
1.32517e-06
1.33372e-06
1.33613e-06
1.34047e-06
1.51979e-06
1.53092e-06
1.33144e-06
1.32823e-06
1.33555e-06
1.54613e-06
1.5337e-06
1.52955e-06
1.33017e-06
1.33273e-06
1.32589e-06
1.31821e-06
1.54151e-06
1.5204e-06
1.32705e-06
1.32838e-06
1.3287e-06
1.33107e-06
1.34016e-06
1.32266e-06
1.3249e-06
1.53502e-06
1.53356e-06
1.33504e-06
1.32962e-06
1.3225e-06
1.52525e-06
1.53e-06
1.51317e-06
1.32061e-06
1.31231e-06
1.30836e-06
1.29921e-06
1.51983e-06
1.4977e-06
1.32585e-06
1.32891e-06
1.31303e-06
1.31355e-06
1.31809e-06
1.29966e-06
1.30057e-06
1.53406e-06
1.51442e-06
1.31746e-06
1.3112e-06
1.30446e-06
1.50134e-06
1.51399e-06
1.5166e-06
1.30624e-06
1.29751e-06
1.30787e-06
1.30252e-06
1.49852e-06
1.50643e-06
1.31037e-06
1.31007e-06
1.30883e-06
1.30727e-06
1.29712e-06
1.29874e-06
1.29585e-06
1.51492e-06
1.51373e-06
1.30186e-06
1.30716e-06
1.30109e-06
1.50202e-06
1.52212e-06
1.53866e-06
1.31369e-06
1.31045e-06
1.32814e-06
1.3305e-06
1.51418e-06
1.54209e-06
1.31192e-06
1.31004e-06
1.32548e-06
1.32558e-06
1.30104e-06
1.32921e-06
1.32848e-06
1.51921e-06
1.53789e-06
1.30565e-06
1.32701e-06
1.32865e-06
1.54011e-06
1.54294e-06
1.53771e-06
1.33087e-06
1.33475e-06
1.33038e-06
1.33691e-06
1.54836e-06
1.55076e-06
1.32809e-06
1.32816e-06
1.32798e-06
1.32606e-06
1.33491e-06
1.33866e-06
1.3409e-06
1.54222e-06
1.533e-06
1.33384e-06
1.32599e-06
1.33748e-06
1.55317e-06
1.53759e-06
1.51027e-06
1.32453e-06
1.33248e-06
1.3038e-06
1.30535e-06
1.55096e-06
1.51453e-06
1.32253e-06
1.31959e-06
1.30398e-06
1.30548e-06
1.33794e-06
1.30786e-06
1.30678e-06
1.53253e-06
1.51155e-06
1.33306e-06
1.3048e-06
1.30439e-06
1.5132e-06
1.51045e-06
1.50677e-06
1.29891e-06
1.29803e-06
1.29409e-06
1.2876e-06
1.51346e-06
1.49539e-06
1.3e-06
1.30347e-06
1.29707e-06
1.30622e-06
1.29801e-06
1.28606e-06
1.28497e-06
1.51254e-06
1.52101e-06
1.29735e-06
1.30541e-06
1.28885e-06
1.49468e-06
1.51213e-06
1.53071e-06
1.29639e-06
1.28808e-06
1.31295e-06
1.30699e-06
1.49836e-06
1.52059e-06
1.30038e-06
1.30988e-06
1.31304e-06
1.31388e-06
1.28523e-06
1.30336e-06
1.30706e-06
1.52652e-06
1.53379e-06
1.29026e-06
1.3143e-06
1.31156e-06
1.52629e-06
1.53529e-06
1.52884e-06
1.31612e-06
1.3127e-06
1.31629e-06
1.31926e-06
1.52773e-06
1.53827e-06
1.31492e-06
1.31348e-06
1.31101e-06
1.29598e-06
1.31386e-06
1.31923e-06
1.3207e-06
1.53489e-06
1.50655e-06
1.31633e-06
1.29692e-06
1.31833e-06
1.53841e-06
1.52826e-06
1.49485e-06
1.31019e-06
1.3179e-06
1.28417e-06
1.2907e-06
1.53925e-06
1.50656e-06
1.30335e-06
1.28904e-06
1.28099e-06
1.27485e-06
1.31815e-06
1.29267e-06
1.28512e-06
1.50546e-06
1.4823e-06
1.31148e-06
1.2729e-06
1.27854e-06
1.49291e-06
1.4947e-06
1.48853e-06
1.27779e-06
1.28194e-06
1.27022e-06
1.26771e-06
1.50524e-06
1.48416e-06
1.27626e-06
1.27368e-06
1.27314e-06
1.28642e-06
1.277e-06
1.26897e-06
1.2688e-06
1.48374e-06
1.50945e-06
1.272e-06
1.28447e-06
1.26881e-06
1.485e-06
1.49539e-06
1.53179e-06
1.27225e-06
1.26795e-06
1.30009e-06
1.29342e-06
1.4873e-06
1.52011e-06
1.27868e-06
1.29754e-06
1.30516e-06
1.31772e-06
1.2728e-06
1.29414e-06
1.30564e-06
1.52141e-06
1.55459e-06
1.27812e-06
1.31888e-06
1.31111e-06
1.5404e-06
1.5395e-06
1.53058e-06
1.30681e-06
1.30171e-06
1.30897e-06
1.3076e-06
1.52898e-06
1.53152e-06
1.31019e-06
1.31957e-06
1.30649e-06
1.29454e-06
1.31144e-06
1.30605e-06
1.30509e-06
1.5588e-06
1.51234e-06
1.31586e-06
1.29439e-06
1.30194e-06
1.52187e-06
1.52641e-06
1.44953e-06
1.29838e-06
1.30067e-06
1.2416e-06
1.24592e-06
1.52866e-06
1.45883e-06
1.29023e-06
1.27352e-06
1.2348e-06
1.2221e-06
1.28504e-06
1.24385e-06
1.23111e-06
1.50571e-06
1.42678e-06
1.27945e-06
1.22284e-06
1.22659e-06
1.43537e-06
1.44639e-06
1.4202e-06
1.22972e-06
1.23422e-06
1.19886e-06
1.20224e-06
1.45619e-06
1.42733e-06
1.22371e-06
1.21385e-06
1.19775e-06
1.20243e-06
1.22216e-06
1.2033e-06
1.20607e-06
1.42496e-06
1.42934e-06
1.21851e-06
1.20576e-06
1.2081e-06
1.43404e-06
1.41209e-06
1.17356e-06
1.17571e-06
1.41675e-06
1.1749e-06
1.18479e-06
7.36936e-07
7.40122e-07
7.42218e-07
1.18545e-06
1.42625e-06
1.18902e-06
1.10104e-10
2.38673e-09
1.46161e-10
2.29321e-10
5.5526e-09
3.5322e-09
2.79864e-09
9.83715e-10
5.41455e-09
4.11145e-09
1.13417e-09
6.28735e-09
5.33269e-09
2.1762e-09
4.60601e-09
7.44442e-09
1.59312e-07
5.96189e-09
2.52815e-07
1.56485e-06
2.96939e-06
9.36393e-09
1.56434e-07
7.28043e-09
2.46414e-07
1.24657e-09
1.58406e-09
1.41351e-09
1.19814e-09
1.22351e-09
1.57928e-09
1.40069e-09
4.73664e-09
7.4055e-08
2.69346e-09
3.28247e-09
4.97442e-09
5.32749e-08
2.66516e-09
1.77458e-06
3.34114e-06
4.67112e-09
3.24382e-09
7.97523e-08
4.48968e-09
4.93097e-09
3.20691e-09
5.85478e-08
2.10657e-07
2.18728e-07
4.91064e-09
1.80591e-07
1.88351e-07
1.65156e-08
4.53089e-07
1.21307e-08
6.52831e-07
7.34584e-06
9.90341e-06
1.75312e-08
4.40572e-07
1.27828e-08
6.43014e-07
1.20005e-09
1.56256e-09
1.38541e-09
1.13939e-09