/*--------------------------------*- C++ -*----------------------------------*\
| =========                 |                                                 |
| \\      /  F ield         | OpenFOAM: The Open Source CFD Toolbox           |
|  \\    /   O peration     | Version:  v2012                                 |
|   \\  /    A nd           | Website:  www.openfoam.com                      |
|    \\/     M anipulation  |                                                 |
\*---------------------------------------------------------------------------*/
FoamFile
{
    version     2.0;
    format      ascii;
    class       volScalarField;
    location    "1237.5";
    object      k;
}
// * * * * * * * * * * * * * * * * * * * * * * * * * * * * * * * * * * * * * //

dimensions      [0 2 -2 0 0 0 0];


internalField   nonuniform List<scalar> 
171728
(
1.45237e-07
2.60272e-07
3.00414e-07
3.62338e-07
1.45093e-07
2.48251e-07
2.91138e-07
3.40389e-07
1.41823e-07
2.36477e-07
2.8067e-07
3.20074e-07
1.38751e-07
2.25477e-07
2.70066e-07
3.02294e-07
1.35844e-07
2.15627e-07
2.59755e-07
2.8604e-07
1.33046e-07
2.06496e-07
2.51029e-07
2.71121e-07
1.30123e-07
1.9817e-07
2.43356e-07
2.58531e-07
1.2703e-07
1.90896e-07
2.36436e-07
2.4853e-07
1.24092e-07
1.84211e-07
2.29817e-07
2.42698e-07
1.2124e-07
1.78322e-07
2.2288e-07
2.39817e-07
1.18483e-07
1.73777e-07
2.1569e-07
2.40563e-07
1.15979e-07
1.70643e-07
2.09012e-07
2.41598e-07
1.13722e-07
1.68972e-07
2.04159e-07
2.40232e-07
1.11566e-07
1.6812e-07
2.01195e-07
2.32982e-07
1.09576e-07
1.68427e-07
1.99527e-07
2.0918e-07
1.07723e-07
1.71423e-07
2.0318e-07
1.95764e-07
1.05928e-07
1.79932e-07
2.16094e-07
1.98478e-07
1.04187e-07
1.96518e-07
2.37971e-07
2.12945e-07
1.02491e-07
2.25295e-07
2.70827e-07
2.47285e-07
1.01112e-07
2.74894e-07
3.15075e-07
3.15516e-07
9.98856e-08
3.53776e-07
4.00264e-07
4.427e-07
9.85776e-08
4.58226e-07
4.84343e-07
6.70379e-07
9.84784e-08
6.4254e-07
6.92313e-07
1.04732e-06
9.86831e-08
8.50833e-07
8.57927e-07
1.64996e-06
9.98967e-08
1.18676e-06
1.23712e-06
2.607e-06
1.0349e-07
1.59976e-06
1.5835e-06
3.90368e-06
1.09483e-07
2.12263e-06
2.20696e-06
5.54013e-06
1.17213e-07
2.70937e-06
2.71689e-06
7.07708e-06
1.34166e-07
3.54266e-06
3.51786e-06
1.08608e-05
1.55522e-07
4.29748e-06
4.41832e-06
1.24516e-05
1.84933e-07
5.32337e-06
5.27034e-06
1.47508e-05
2.4026e-07
6.5765e-06
6.58186e-06
1.73665e-05
2.96811e-07
7.61494e-06
7.67438e-06
1.85765e-05
3.83184e-07
9.07337e-06
9.06035e-06
2.21736e-05
5.25218e-07
1.05709e-05
1.06945e-05
2.37278e-05
6.31238e-07
1.20571e-05
1.2243e-05
2.44614e-05
9.10538e-07
1.37176e-05
1.35358e-05
2.67019e-05
1.08752e-06
1.56845e-05
1.58008e-05
2.7982e-05
1.38099e-06
1.68823e-05
1.8066e-05
2.93366e-05
1.89721e-06
1.92608e-05
1.85646e-05
3.05595e-05
2.17172e-06
2.06728e-05
2.15583e-05
3.16377e-05
2.80108e-06
2.27226e-05
2.27127e-05
3.27319e-05
3.46385e-06
2.41789e-05
2.45115e-05
3.41447e-05
4.03307e-06
2.67191e-05
2.64812e-05
3.5448e-05
4.97337e-06
2.75932e-05
2.79388e-05
3.60005e-05
5.9521e-06
2.95944e-05
2.93383e-05
3.70498e-05
6.75853e-06
3.10463e-05
3.13037e-05
3.82174e-05
8.1037e-06
3.31686e-05
3.32336e-05
3.97967e-05
9.49329e-06
3.39199e-05
3.35399e-05
4.03499e-05
1.03326e-05
3.57556e-05
3.58354e-05
4.1164e-05
1.27436e-05
3.66418e-05
3.69105e-05
4.22624e-05
1.34341e-05
3.82936e-05
3.78164e-05
4.33099e-05
1.40366e-05
3.91237e-05
3.95773e-05
4.37463e-05
1.73836e-05
4.03523e-05
4.04292e-05
4.51225e-05
1.87184e-05
4.19233e-05
4.10806e-05
4.58028e-05
1.94169e-05
4.22821e-05
4.2246e-05
4.57691e-05
2.08815e-05
4.27007e-05
4.39853e-05
4.74611e-05
2.36292e-05
4.51546e-05
4.44785e-05
4.83459e-05
2.46017e-05
4.54922e-05
4.46603e-05
4.8191e-05
2.55342e-05
4.54086e-05
4.65257e-05
4.92389e-05
2.74528e-05
4.73266e-05
4.7046e-05
4.99658e-05
2.85634e-05
4.80043e-05
4.75649e-05
5.02461e-05
2.96785e-05
4.80797e-05
4.86581e-05
5.12123e-05
3.12326e-05
4.95712e-05
4.91689e-05
5.1898e-05
3.22744e-05
4.98719e-05
4.96636e-05
5.17089e-05
3.34918e-05
5.01482e-05
5.09756e-05
5.28053e-05
3.45799e-05
5.1814e-05
5.13477e-05
5.37495e-05
3.5397e-05
5.18807e-05
5.14219e-05
5.34669e-05
3.66046e-05
5.15813e-05
5.22807e-05
5.30879e-05
3.75253e-05
5.32357e-05
5.2701e-05
5.52939e-05
3.86097e-05
5.39926e-05
5.39117e-05
5.58501e-05
3.9361e-05
5.34973e-05
5.37804e-05
5.44942e-05
3.96213e-05
5.36338e-05
5.35026e-05
5.49576e-05
4.10945e-05
5.48178e-05
5.48987e-05
5.66721e-05
4.18092e-05
5.49832e-05
5.5319e-05
5.6542e-05
4.21937e-05
5.51563e-05
5.51192e-05
5.62933e-05
4.30288e-05
5.55836e-05
5.52853e-05
5.66334e-05
4.39079e-05
5.56507e-05
5.61083e-05
5.67737e-05
4.41317e-05
5.56486e-05
5.61018e-05
5.66169e-05
4.42287e-05
5.6953e-05
5.60978e-05
5.81887e-05
4.51938e-05
5.75148e-05
5.70462e-05
5.87636e-05
4.57243e-05
5.67666e-05
5.71477e-05
5.77616e-05
4.54816e-05
5.55491e-05
5.62562e-05
5.66365e-05
4.53001e-05
5.55864e-05
5.61717e-05
5.66088e-05
4.64541e-05
5.79323e-05
5.7736e-05
5.89498e-05
4.71685e-05
5.85527e-05
5.77864e-05
5.96949e-05
4.64685e-05
5.6857e-05
5.65805e-05
5.76094e-05
4.59517e-05
5.57826e-05
5.68404e-05
5.66128e-05
4.68735e-05
5.70595e-05
5.77911e-05
5.85886e-05
4.75611e-05
5.81632e-05
5.7024e-05
5.94513e-05
4.65786e-05
5.6873e-05
5.55416e-05
5.70448e-05
4.58998e-05
5.57025e-05
5.65337e-05
5.64271e-05
4.74675e-05
5.75604e-05
5.91511e-05
5.99391e-05
4.83998e-05
5.83407e-05
5.80998e-05
5.94814e-05
4.53459e-05
5.39015e-05
5.25798e-05
5.43633e-05
3.69e-07
3.05834e-07
4.18028e-07
3.38582e-07
2.9675e-07
2.94153e-07
1.43194e-07
1.48795e-07
1.71615e-07
1.61834e-07
2.86055e-07
2.95206e-07
3.6733e-07
3.0935e-07
3.36418e-07
3.63392e-07
3.68178e-07
3.45724e-07
2.60399e-07
4.80067e-07
2.51135e-07
5.06229e-07
3.37094e-07
3.28871e-07
2.58702e-07
5.31119e-07
2.50345e-07
4.53687e-07
2.57345e-07
2.51237e-07
2.48006e-07
3.65597e-07
3.46298e-07
3.27728e-07
2.93701e-07
3.14464e-07
3.4166e-07
3.44541e-07
3.22625e-07
2.47675e-07
5.12443e-07
2.38142e-07
5.17965e-07
3.27567e-07
3.24394e-07
2.47208e-07
4.40083e-07
2.37691e-07
4.29682e-07
2.44832e-07
2.39436e-07
2.3602e-07
3.44746e-07
3.28805e-07
3.10161e-07
2.83296e-07
2.98167e-07
3.21178e-07
3.21467e-07
3.02279e-07
2.35234e-07
5.14603e-07
2.27485e-07
4.15438e-07
3.23003e-07
3.06682e-07
2.34686e-07
4.28653e-07
2.26181e-07
4.08962e-07
2.33269e-07
2.28081e-07
2.2541e-07
3.27448e-07
3.13293e-07
2.94406e-07
2.72773e-07
2.83944e-07
3.03283e-07
3.01243e-07
2.84556e-07
2.24995e-07
3.7389e-07
2.17834e-07
2.77221e-07
3.03797e-07
2.78225e-07
2.23437e-07
3.9725e-07
2.15551e-07
3.54617e-07
2.22832e-07
2.18004e-07
2.15265e-07
3.11921e-07
2.97462e-07
2.80841e-07
2.62185e-07
2.71835e-07
2.86955e-07
2.83661e-07
2.6876e-07
2.15552e-07
2.57153e-07
2.08672e-07
2.22118e-07
2.76821e-07
2.61967e-07
2.13015e-07
3.38398e-07
2.0572e-07
2.88089e-07
2.12812e-07
2.08752e-07
2.05741e-07
2.9614e-07
2.80729e-07
2.68715e-07
2.53138e-07
2.6202e-07
2.71881e-07
2.68022e-07
2.54557e-07
2.06341e-07
2.16126e-07
1.99556e-07
2.02505e-07
2.6127e-07
2.48234e-07
2.03423e-07
2.73303e-07
1.97199e-07
2.42149e-07
2.03497e-07
2.00157e-07
1.97272e-07
2.79309e-07
2.63432e-07
2.61174e-07
2.4516e-07
2.60931e-07
2.59145e-07
2.53993e-07
2.4196e-07
1.97257e-07
1.97922e-07
1.90945e-07
1.85823e-07
2.47525e-07
2.36082e-07
1.95297e-07
2.35651e-07
1.90015e-07
2.22435e-07
1.95365e-07
1.92603e-07
1.90071e-07
2.62534e-07
2.51007e-07
2.61146e-07
2.38089e-07
2.64765e-07
2.48861e-07
2.41536e-07
2.30858e-07
1.88888e-07
1.82738e-07
1.8352e-07
1.76252e-07
2.35699e-07
2.26122e-07
1.88293e-07
2.19042e-07
1.83343e-07
2.101e-07
1.88534e-07
1.85823e-07
1.84011e-07
2.50351e-07
2.40166e-07
2.66887e-07
2.31503e-07
2.74543e-07
2.42835e-07
2.30571e-07
2.20472e-07
1.81827e-07
1.74829e-07
1.77026e-07
1.71648e-07
2.25897e-07
2.16877e-07
1.81744e-07
2.07582e-07
1.76911e-07
2.00917e-07
1.82496e-07
1.79569e-07
1.78073e-07
2.39613e-07
2.3019e-07
2.77219e-07
2.24616e-07
2.883e-07
2.39715e-07
2.20245e-07
2.10404e-07
1.75586e-07
1.7065e-07
1.71459e-07
1.67365e-07
2.16739e-07
2.07747e-07
1.75311e-07
1.98908e-07
1.71073e-07
1.94205e-07
1.76593e-07
1.7479e-07
1.72543e-07
2.29698e-07
2.20504e-07
2.93581e-07
2.17432e-07
3.11922e-07
2.40164e-07
2.10297e-07
2.01811e-07
1.70215e-07
1.66179e-07
1.67738e-07
1.62418e-07
2.07641e-07
1.99349e-07
1.69865e-07
1.93257e-07
1.66459e-07
1.91953e-07
1.71208e-07
1.71236e-07
1.6766e-07
2.20047e-07
2.1166e-07
3.18014e-07
2.10496e-07
3.35718e-07
2.41291e-07
2.01834e-07
1.94595e-07
1.67113e-07
1.61317e-07
1.65776e-07
1.58702e-07
1.99359e-07
1.92391e-07
1.65436e-07
1.91604e-07
1.63232e-07
1.91524e-07
1.66665e-07
1.69176e-07
1.64135e-07
2.11329e-07
2.04034e-07
3.41251e-07
2.04944e-07
3.53857e-07
2.39952e-07
1.94732e-07
1.89228e-07
1.65599e-07
1.58081e-07
1.65128e-07
1.57278e-07
1.92534e-07
1.86905e-07
1.62685e-07
1.91685e-07
1.61646e-07
1.92669e-07
1.63471e-07
1.68218e-07
1.6209e-07
2.03821e-07
1.97305e-07
3.56016e-07
2.0168e-07
3.55965e-07
2.34082e-07
1.8959e-07
1.86165e-07
1.65209e-07
1.57317e-07
1.66699e-07
1.58324e-07
1.87234e-07
1.83557e-07
1.61632e-07
1.93091e-07
1.62431e-07
2.005e-07
1.61614e-07
1.6824e-07
1.6145e-07
1.97377e-07
1.96873e-07
3.5057e-07
1.99456e-07
2.96117e-07
2.1012e-07
1.87006e-07
1.86583e-07
1.67452e-07
1.58957e-07
1.71183e-07
1.63244e-07
1.84331e-07
1.83474e-07
1.6305e-07
2.08287e-07
1.66286e-07
2.37413e-07
1.61756e-07
1.70479e-07
1.64803e-07
1.98271e-07
2.06992e-07
2.78603e-07
2.01533e-07
2.33759e-07
1.95115e-07
1.88217e-07
1.91582e-07
1.72988e-07
1.651e-07
1.79089e-07
1.71917e-07
1.85061e-07
1.88789e-07
1.67614e-07
2.50036e-07
1.7457e-07
3.14937e-07
1.66429e-07
1.77024e-07
1.74115e-07
2.11432e-07
2.33682e-07
2.23718e-07
2.11585e-07
2.04863e-07
1.95724e-07
1.95094e-07
2.05862e-07
1.81894e-07
1.7491e-07
1.9351e-07
1.87854e-07
1.92218e-07
2.02328e-07
1.77905e-07
3.47273e-07
1.90801e-07
4.52485e-07
1.7754e-07
1.919e-07
1.90908e-07
2.42078e-07
2.86028e-07
2.03349e-07
2.30585e-07
2.05206e-07
2.07016e-07
2.12099e-07
2.36222e-07
1.98029e-07
1.92171e-07
2.19459e-07
2.13252e-07
2.08709e-07
2.31844e-07
1.959e-07
4.94248e-07
2.19548e-07
5.97166e-07
1.96797e-07
2.1704e-07
2.17837e-07
2.9996e-07
3.5862e-07
2.08143e-07
2.62317e-07
2.27249e-07
2.35472e-07
2.48371e-07
2.95713e-07
2.27372e-07
2.21441e-07
2.64696e-07
2.56133e-07
2.43286e-07
2.87707e-07
2.27752e-07
6.18557e-07
2.63863e-07
6.77591e-07
2.27533e-07
2.59895e-07
2.61918e-07
3.73475e-07
4.20294e-07
2.35674e-07
3.07054e-07
2.68614e-07
2.94503e-07
3.183e-07
4.02134e-07
2.77481e-07
2.70436e-07
3.31465e-07
3.23556e-07
3.09377e-07
4.03849e-07
2.7826e-07
6.90243e-07
3.35557e-07
6.84493e-07
2.75432e-07
3.28689e-07
3.33034e-07
4.33912e-07
5.11821e-07
2.83973e-07
3.76974e-07
3.3326e-07
4.06262e-07
4.40572e-07
6.08018e-07
3.56587e-07
3.48841e-07
4.32742e-07
4.22712e-07
4.43694e-07
5.90633e-07
3.59153e-07
6.43381e-07
4.32411e-07
5.8971e-07
3.5487e-07
4.2582e-07
4.35818e-07
5.51666e-07
6.30745e-07
3.56512e-07
4.72552e-07
4.35894e-07
6.09334e-07
6.69994e-07
9.84387e-07
4.71932e-07
4.55819e-07
5.8472e-07
5.87021e-07
6.44517e-07
9.78539e-07
4.73926e-07
5.92595e-07
5.97351e-07
7.26252e-07
4.70576e-07
5.9101e-07
5.84947e-07
6.52033e-07
9.6355e-07
4.61235e-07
6.07287e-07
5.93765e-07
9.45399e-07
1.04988e-06
1.51679e-06
6.22085e-07
6.39057e-07
8.13846e-07
7.89448e-07
1.09279e-06
1.49676e-06
6.36575e-07
8.01026e-07
8.20431e-07
9.05448e-07
6.33092e-07
7.87052e-07
8.09535e-07
1.13053e-06
1.57851e-06
6.36675e-07
8.17153e-07
8.05894e-07
1.51321e-06
1.70205e-06
2.3697e-06
8.88858e-07
8.51815e-07
1.09497e-06
1.0981e-06
1.60097e-06
2.3999e-06
8.92069e-07
9.40863e-07
1.10391e-06
1.14278e-06
8.78396e-07
1.09887e-06
1.09381e-06
1.64015e-06
2.41188e-06
8.7618e-07
1.15802e-06
1.09128e-06
2.40581e-06
2.53481e-06
3.49929e-06
1.17286e-06
1.18936e-06
1.47818e-06
1.50294e-06
2.63276e-06
3.62172e-06
1.18224e-06
1.209e-06
1.49152e-06
1.46481e-06
1.20665e-06
1.49792e-06
1.50096e-06
2.67954e-06
3.44185e-06
1.18553e-06
1.4542e-06
1.50881e-06
3.64389e-06
3.80469e-06
5.258e-06
1.60052e-06
1.60463e-06
1.99575e-06
1.97796e-06
3.9114e-06
5.15275e-06
1.61241e-06
1.58133e-06
2.00336e-06
1.98514e-06
1.55803e-06
1.96901e-06
2.03313e-06
3.68908e-06
5.20811e-06
1.56951e-06
2.05318e-06
2.02838e-06
5.02194e-06
5.60893e-06
7.11849e-06
2.14479e-06
2.13369e-06
2.56139e-06
2.56709e-06
5.48267e-06
7.1998e-06
2.15257e-06
2.14414e-06
2.56967e-06
2.5668e-06
2.26044e-06
2.54817e-06
2.48792e-06
5.58766e-06
7.11692e-06
2.26487e-06
2.57028e-06
2.49682e-06
7.00099e-06
7.49886e-06
9.40314e-06
2.71356e-06
2.72775e-06
3.3155e-06
3.3523e-06
7.6095e-06
9.51235e-06
2.72714e-06
2.72353e-06
3.32124e-06
3.3434e-06
2.54795e-06
3.33025e-06
3.53741e-06
7.50625e-06
9.41701e-06
2.56138e-06
3.34431e-06
3.60318e-06
9.88118e-06
9.91179e-06
1.20053e-05
3.52783e-06
3.56875e-06
4.12804e-06
4.12792e-06
1.00463e-05
1.1955e-05
3.53679e-06
3.52662e-06
4.14025e-06
4.15831e-06
3.8844e-06
4.09959e-06
4.18253e-06
9.93593e-06
1.19781e-05
3.90485e-06
4.15944e-06
4.14236e-06
1.23737e-05
1.24743e-05
1.43917e-05
4.36761e-06
4.3264e-06
5.11498e-06
5.07365e-06
1.23366e-05
1.42062e-05
4.37145e-06
4.42537e-06
5.12669e-06
5.10692e-06
4.22522e-06
5.04371e-06
5.16376e-06
1.24508e-05
1.42841e-05
4.21719e-06
5.02823e-06
5.17055e-06
1.38075e-05
1.48967e-05
1.68059e-05
5.34831e-06
5.35244e-06
6.24445e-06
6.27656e-06
1.47907e-05
1.69451e-05
5.36391e-06
5.32503e-06
6.24705e-06
6.18865e-06
5.5499e-06
6.24727e-06
6.30515e-06
1.47879e-05
1.67626e-05
5.53715e-06
6.26951e-06
6.56613e-06
1.71761e-05
1.72806e-05
1.89961e-05
6.53597e-06
6.61383e-06
7.34584e-06
7.41847e-06
1.7461e-05
1.90463e-05
6.5466e-06
6.51852e-06
7.33577e-06
7.54332e-06
6.4856e-06
7.37422e-06
7.10853e-06
1.72534e-05
1.90924e-05
6.87075e-06
7.40204e-06
7.19149e-06
1.7988e-05
1.94865e-05
2.11167e-05
7.71543e-06
7.66065e-06
8.75537e-06
8.69614e-06
1.94324e-05
2.09676e-05
7.7158e-06
7.83937e-06
8.77972e-06
8.634e-06
7.41747e-06
8.62618e-06
9.06307e-06
1.9553e-05
2.09738e-05
7.24643e-06
8.59206e-06
8.61066e-06
2.15413e-05
2.15571e-05
2.30309e-05
9.04664e-06
9.13522e-06
1.02879e-05
1.02708e-05
2.14625e-05
2.30779e-05
9.04089e-06
9.03226e-06
1.02655e-05
1.03433e-05
9.68167e-06
1.02342e-05
1.06484e-05
2.14236e-05
2.30919e-05
9.45255e-06
1.04325e-05
1.1117e-05
2.35068e-05
2.34234e-05
2.45149e-05
1.07047e-05
1.06102e-05
1.162e-05
1.17581e-05
2.34739e-05
2.4566e-05
1.07202e-05
1.06317e-05
1.16515e-05
1.17408e-05
1.07905e-05
1.17091e-05
1.14484e-05
2.34966e-05
2.46684e-05
1.13756e-05
1.17362e-05
1.16524e-05
2.41654e-05
2.49036e-05
2.63205e-05
1.18442e-05
1.21072e-05
1.34764e-05
1.32687e-05
2.49153e-05
2.61697e-05
1.18501e-05
1.22655e-05
1.34711e-05
1.33512e-05
1.17253e-05
1.32099e-05
1.33052e-05
2.50428e-05
2.60577e-05
1.17893e-05
1.32474e-05
1.32581e-05
2.62145e-05
2.67103e-05
2.75421e-05
1.41367e-05
1.37709e-05
1.5054e-05
1.53086e-05
2.65853e-05
2.77372e-05
1.41384e-05
1.36406e-05
1.50335e-05
1.49654e-05
1.40815e-05
1.52813e-05
1.527e-05
2.64045e-05
2.78533e-05
1.39471e-05
1.51333e-05
1.52478e-05
2.77248e-05
2.78066e-05
2.88273e-05
1.53005e-05
1.57022e-05
1.65812e-05
1.65443e-05
2.80125e-05
2.8739e-05
1.52979e-05
1.56098e-05
1.66104e-05
1.73436e-05
1.54558e-05
1.64696e-05
1.67935e-05
2.82444e-05
2.90512e-05
1.54428e-05
1.77181e-05
1.68162e-05
2.89441e-05
2.92238e-05
3.03954e-05
1.71054e-05
1.69277e-05
1.88546e-05
1.87713e-05
2.90508e-05
3.03458e-05
1.71255e-05
1.75418e-05
1.88957e-05
1.79854e-05
1.74141e-05
1.86951e-05
1.87953e-05
2.92667e-05
3.00012e-05
1.75697e-05
1.83732e-05
1.88885e-05
3.03238e-05
3.06688e-05
3.13015e-05
1.93907e-05
1.93314e-05
2.02815e-05
2.04265e-05
3.06774e-05
3.13603e-05
1.94016e-05
1.85551e-05
2.02472e-05
2.09874e-05
1.90651e-05
2.03778e-05
2.03868e-05
3.03561e-05
3.17258e-05
1.90105e-05
2.09228e-05
2.02347e-05
3.13284e-05
3.15373e-05
3.2577e-05
2.06188e-05
2.07175e-05
2.21689e-05
2.21575e-05
3.15899e-05
3.24925e-05
2.0591e-05
2.15737e-05
2.22431e-05
2.21113e-05
2.09897e-05
2.21434e-05
2.21971e-05
3.19984e-05
3.2451e-05
2.08914e-05
2.24356e-05
2.21206e-05
3.24932e-05
3.29236e-05
3.37554e-05
2.26875e-05
2.27643e-05
2.41051e-05
2.38643e-05
3.28213e-05
3.36933e-05
2.28079e-05
2.22941e-05
2.41427e-05
2.38047e-05
2.24431e-05
2.37739e-05
2.38572e-05
3.2651e-05
3.37098e-05
2.24091e-05
2.38694e-05
2.40085e-05
3.37629e-05
3.39686e-05
3.47389e-05
2.44983e-05
2.42372e-05
2.5609e-05
2.62225e-05
3.39371e-05
3.50699e-05
2.44744e-05
2.45192e-05
2.57052e-05
2.61731e-05
2.46651e-05
2.62379e-05
2.63659e-05
3.40722e-05
3.50367e-05
2.47308e-05
2.62571e-05
2.67961e-05
3.52802e-05
3.50356e-05
3.60214e-05
2.61043e-05
2.67082e-05
2.75873e-05
2.72794e-05
3.53539e-05
3.57854e-05
2.62694e-05
2.63657e-05
2.75441e-05
2.74114e-05
2.64932e-05
2.72338e-05
2.73575e-05
3.52267e-05
3.58059e-05
2.71449e-05
2.73862e-05
2.7549e-05
3.57994e-05
3.62451e-05
3.69875e-05
2.79999e-05
2.76424e-05
2.92765e-05
2.92562e-05
3.59505e-05
3.69983e-05
2.78449e-05
2.80344e-05
2.93022e-05
2.91688e-05
2.79792e-05
2.92339e-05
2.91684e-05
3.60639e-05
3.69651e-05
2.77784e-05
2.90945e-05
2.86957e-05
3.68488e-05
3.72237e-05
3.79415e-05
2.96349e-05
2.9632e-05
3.05221e-05
3.06225e-05
3.72837e-05
3.79422e-05
2.98103e-05
2.93599e-05
3.06266e-05
3.06792e-05
2.93643e-05
3.05408e-05
3.02919e-05
3.71496e-05
3.80658e-05
2.91923e-05
3.06943e-05
3.07702e-05
3.79028e-05
3.81563e-05
3.92807e-05
3.09214e-05
3.11184e-05
3.26999e-05
3.27379e-05
3.81888e-05
3.94278e-05
3.08474e-05
3.12913e-05
3.25226e-05
3.29821e-05
3.08252e-05
3.2739e-05
3.27996e-05
3.84098e-05
3.94597e-05
3.1233e-05
3.29645e-05
3.28704e-05
3.95242e-05
3.95815e-05
3.99998e-05
3.32427e-05
3.31442e-05
3.37562e-05
3.36911e-05
3.96618e-05
3.99998e-05
3.31372e-05
3.32885e-05
3.37543e-05
3.3505e-05
3.34491e-05
3.37402e-05
3.44266e-05
3.95996e-05
3.97645e-05
3.33059e-05
3.34225e-05
3.37275e-05
4.02671e-05
4.00824e-05
4.12143e-05
3.38024e-05
3.38604e-05
3.49779e-05
3.52278e-05
4.01176e-05
4.10959e-05
3.38626e-05
3.35944e-05
3.54004e-05
3.51551e-05
3.4477e-05
3.52725e-05
3.49592e-05
3.98753e-05
4.1179e-05
3.38518e-05
3.52094e-05
3.50807e-05
4.08726e-05
4.16151e-05
4.2416e-05
3.56359e-05
3.57651e-05
3.7092e-05
3.65784e-05
4.14106e-05
4.20669e-05
3.60165e-05
3.57991e-05
3.72021e-05
3.70274e-05
3.53429e-05
3.64192e-05
3.64161e-05
4.15271e-05
4.2227e-05
3.55602e-05
3.68601e-05
3.65101e-05
4.20822e-05
4.24838e-05
4.23488e-05
3.7276e-05
3.67774e-05
3.73267e-05
3.7778e-05
4.2181e-05
4.29498e-05
3.73529e-05
3.71212e-05
3.73473e-05
3.72965e-05
3.6785e-05
3.78939e-05
3.81527e-05
4.22924e-05
4.25106e-05
3.68054e-05
3.72287e-05
3.79653e-05
4.31081e-05
4.24058e-05
4.38742e-05
3.73673e-05
3.81182e-05
3.90337e-05
3.89456e-05
4.32146e-05
4.38118e-05
3.73441e-05
3.76269e-05
3.84524e-05
3.93849e-05
3.84434e-05
3.89757e-05
3.8743e-05
4.28068e-05
4.43502e-05
3.82526e-05
3.94301e-05
3.86557e-05
4.36225e-05
4.43251e-05
4.51425e-05
3.96938e-05
3.91904e-05
4.04065e-05
4.0013e-05
4.3918e-05
4.45715e-05
3.93448e-05
3.9801e-05
4.08243e-05
4.06693e-05
3.89474e-05
3.99343e-05
4.02423e-05
4.45471e-05
4.4871e-05
3.88841e-05
4.0091e-05
4.01621e-05
4.48408e-05
4.52206e-05
4.55435e-05
4.04667e-05
4.03559e-05
4.12958e-05
4.14838e-05
4.48361e-05
4.58345e-05
4.10434e-05
4.08766e-05
4.1574e-05
4.10583e-05
4.0681e-05
4.16005e-05
4.16422e-05
4.49856e-05
4.51672e-05
4.06053e-05
4.10245e-05
4.15977e-05
4.5734e-05
4.56617e-05
4.57243e-05
4.15589e-05
4.18268e-05
4.17897e-05
4.2292e-05
4.6005e-05
4.61552e-05
4.1621e-05
4.10653e-05
4.16017e-05
4.16109e-05
4.17863e-05
4.23e-05
4.18263e-05
4.52012e-05
4.58289e-05
4.17518e-05
4.17633e-05
4.18014e-05
4.57219e-05
4.58123e-05
4.72085e-05
4.19251e-05
4.22823e-05
4.32112e-05
4.23436e-05
4.61674e-05
4.63063e-05
4.16602e-05
4.21694e-05
4.32593e-05
4.37055e-05
4.1837e-05
4.23256e-05
4.29714e-05
4.61999e-05
4.76214e-05
4.18161e-05
4.36639e-05
4.30385e-05
4.70656e-05
4.7528e-05
4.80865e-05
4.36747e-05
4.27181e-05
4.46232e-05
4.47297e-05
4.6632e-05
4.83671e-05
4.37975e-05
4.40334e-05
4.47276e-05
4.4486e-05
4.35915e-05
4.47859e-05
4.48461e-05
4.77803e-05
4.77754e-05
4.36672e-05
4.4461e-05
4.48024e-05
4.82877e-05
4.81254e-05
4.80572e-05
4.47253e-05
4.51044e-05
4.4831e-05
4.55086e-05
4.85785e-05
4.86436e-05
4.48231e-05
4.44961e-05
4.4849e-05
4.45064e-05
4.50287e-05
4.55052e-05
4.51157e-05
4.77784e-05
4.77568e-05
4.49477e-05
4.45175e-05
4.49841e-05
4.81653e-05
4.81629e-05
4.92411e-05
4.49669e-05
4.54997e-05
4.59577e-05
4.54093e-05
4.86456e-05
4.84417e-05
4.48782e-05
4.46093e-05
4.5943e-05
4.60682e-05
4.51145e-05
4.53666e-05
4.55525e-05
4.79768e-05
4.94512e-05
4.49872e-05
4.61218e-05
4.57479e-05
4.89877e-05
4.94557e-05
4.97637e-05
4.62211e-05
4.54646e-05
4.67054e-05
4.69174e-05
4.8567e-05
5.00295e-05
4.64033e-05
4.65141e-05
4.69806e-05
4.71357e-05
4.58822e-05
4.68661e-05
4.68787e-05
4.96637e-05
4.98717e-05
4.61694e-05
4.70244e-05
4.69501e-05
4.98429e-05
4.98219e-05
5.02398e-05
4.69043e-05
4.73476e-05
4.76905e-05
4.79948e-05
5.02888e-05
5.06037e-05
4.70347e-05
4.71678e-05
4.73875e-05
4.73178e-05
4.71802e-05
4.79852e-05
4.75914e-05
4.98892e-05
5.0116e-05
4.71179e-05
4.73164e-05
4.73393e-05
5.01907e-05
5.03855e-05
5.08686e-05
4.78569e-05
4.80205e-05
4.8201e-05
4.79979e-05
5.0616e-05
5.05203e-05
4.75492e-05
4.7525e-05
4.82437e-05
4.83502e-05
4.76394e-05
4.79975e-05
4.82202e-05
5.02979e-05
5.10399e-05
4.74375e-05
4.83752e-05
4.83169e-05
5.09524e-05
5.10372e-05
5.16428e-05
4.84186e-05
4.80426e-05
4.91537e-05
4.91574e-05
5.06541e-05
5.18069e-05
4.85651e-05
4.86565e-05
4.93057e-05
4.91856e-05
4.85619e-05
4.92871e-05
4.9437e-05
5.12063e-05
5.1502e-05
4.86909e-05
4.91449e-05
4.94415e-05
5.18542e-05
5.17074e-05
5.19127e-05
4.93098e-05
4.94905e-05
4.97119e-05
4.99096e-05
5.19698e-05
5.19925e-05
4.93673e-05
4.92074e-05
4.95336e-05
4.93972e-05
4.96027e-05
4.98822e-05
4.96897e-05
5.15178e-05
5.1746e-05
4.95418e-05
4.93624e-05
4.95252e-05
5.17008e-05
5.20883e-05
5.28482e-05
4.98904e-05
4.99076e-05
5.05537e-05
4.99735e-05
5.1993e-05
5.22226e-05
4.97998e-05
4.97421e-05
5.06951e-05
5.07847e-05
4.96667e-05
4.99073e-05
4.98914e-05
5.19919e-05
5.30301e-05
4.95193e-05
5.07223e-05
5.01922e-05
5.24701e-05
5.29465e-05
5.29847e-05
5.07438e-05
5.02453e-05
5.10222e-05
5.15538e-05
5.25007e-05
5.37451e-05
5.08855e-05
5.09856e-05
5.10655e-05
5.12074e-05
5.03854e-05
5.15925e-05
5.1612e-05
5.31459e-05
5.31437e-05
5.07137e-05
5.13341e-05
5.16093e-05
5.36918e-05
5.30029e-05
5.34618e-05
5.1109e-05
5.17529e-05
5.16223e-05
5.18621e-05
5.38399e-05
5.36237e-05
5.10677e-05
5.12037e-05
5.12757e-05
5.12451e-05
5.17909e-05
5.1918e-05
5.18605e-05
5.3148e-05
5.3247e-05
5.17027e-05
5.13619e-05
5.17027e-05
5.35014e-05
5.36574e-05
5.41137e-05
5.18361e-05
5.1839e-05
5.22103e-05
5.16246e-05
5.35982e-05
5.32183e-05
5.16207e-05
5.14163e-05
5.23967e-05
5.23415e-05
5.18052e-05
5.15848e-05
5.14529e-05
5.34036e-05
5.41134e-05
5.16182e-05
5.21529e-05
5.13817e-05
5.30314e-05
5.41434e-05
5.43742e-05
5.22187e-05
5.16275e-05
5.24124e-05
5.26296e-05
5.32496e-05
5.47254e-05
5.24781e-05
5.24849e-05
5.27559e-05
5.26093e-05
5.14541e-05
5.26292e-05
5.27272e-05
5.41803e-05
5.42285e-05
5.14145e-05
5.24611e-05
5.28631e-05
5.49258e-05
5.45695e-05
5.52598e-05
5.2777e-05
5.31555e-05
5.36783e-05
5.39183e-05
5.50826e-05
5.56627e-05
5.29431e-05
5.27128e-05
5.34647e-05
5.35632e-05
5.33766e-05
5.39926e-05
5.41492e-05
5.43447e-05
5.53995e-05
5.33964e-05
5.37496e-05
5.40909e-05
5.59082e-05
5.52952e-05
5.49264e-05
5.37683e-05
5.39342e-05
5.3739e-05
5.3723e-05
5.56336e-05
5.48744e-05
5.35279e-05
5.37408e-05
5.3501e-05
5.37876e-05
5.41355e-05
5.36244e-05
5.34916e-05
5.55166e-05
5.52392e-05
5.40827e-05
5.39061e-05
5.35048e-05
5.45809e-05
5.48947e-05
5.48737e-05
5.36519e-05
5.36217e-05
5.35397e-05
5.35641e-05
5.48477e-05
5.50714e-05
5.34162e-05
5.37125e-05
5.3378e-05
5.34975e-05
5.32909e-05
5.347e-05
5.32085e-05
5.51859e-05
5.47864e-05
5.32995e-05
5.34922e-05
5.31712e-05
5.46566e-05
5.50897e-05
5.64639e-05
5.35954e-05
5.36456e-05
5.46897e-05
5.45545e-05
5.5273e-05
5.61753e-05
5.35698e-05
5.35213e-05
5.49469e-05
5.46333e-05
5.33975e-05
5.46575e-05
5.48606e-05
5.48424e-05
5.62402e-05
5.3309e-05
5.44787e-05
5.48117e-05
5.65415e-05
5.65923e-05
5.64016e-05
5.49647e-05
5.4757e-05
5.51449e-05
5.50014e-05
5.62439e-05
5.62026e-05
5.51573e-05
5.50091e-05
5.52077e-05
5.53134e-05
5.51064e-05
5.49737e-05
5.52692e-05
5.64736e-05
5.66497e-05
5.51138e-05
5.53228e-05
5.53369e-05
5.65642e-05
5.63588e-05
5.59424e-05
5.51224e-05
5.50207e-05
5.49418e-05
5.50608e-05
5.62079e-05
5.62961e-05
5.51129e-05
5.52958e-05
5.48375e-05
5.50622e-05
5.52587e-05
5.50814e-05
5.51599e-05
5.66204e-05
5.61924e-05
5.53245e-05
5.51681e-05
5.51635e-05
5.62856e-05
5.59457e-05
5.67024e-05
5.49205e-05
5.51043e-05
5.52496e-05
5.54426e-05
5.63838e-05
5.67741e-05
5.48135e-05
5.50052e-05
5.51898e-05
5.50488e-05
5.5145e-05
5.54826e-05
5.52317e-05
5.61882e-05
5.64095e-05
5.51335e-05
5.5138e-05
5.51718e-05
5.65211e-05
5.69699e-05
5.76038e-05
5.56529e-05
5.55753e-05
5.62813e-05
5.57575e-05
5.68356e-05
5.67867e-05
5.5632e-05
5.52762e-05
5.6374e-05
5.61378e-05
5.54105e-05
5.56656e-05
5.56347e-05
5.6585e-05
5.73094e-05
5.53093e-05
5.59991e-05
5.56702e-05
5.67857e-05
5.76173e-05
5.71095e-05
5.62978e-05
5.57569e-05
5.6098e-05
5.57819e-05
5.67791e-05
5.68068e-05
5.64169e-05
5.62507e-05
5.62339e-05
5.62608e-05
5.56247e-05
5.55886e-05
5.54702e-05
5.7365e-05
5.72354e-05
5.56759e-05
5.61394e-05
5.56354e-05
5.65472e-05
5.70574e-05
5.68415e-05
5.59871e-05
5.58979e-05
5.59156e-05
5.67019e-05
5.69442e-05
5.79549e-05
5.60728e-05
5.6186e-05
5.58338e-05
5.59821e-05
5.54893e-05
5.66542e-05
5.66225e-05
5.72171e-05
5.70107e-05
5.56841e-05
5.60361e-05
5.66507e-05
5.7961e-05
5.69349e-05
5.78999e-05
5.60252e-05
5.6931e-05
5.68876e-05
5.73285e-05
5.81241e-05
5.8499e-05
5.58449e-05
5.59838e-05
5.65416e-05
5.65509e-05
5.7033e-05
5.74644e-05
5.76873e-05
5.70473e-05
5.78939e-05
5.69503e-05
5.68619e-05
5.74479e-05
5.87486e-05
5.80365e-05
5.81226e-05
5.70483e-05
5.73493e-05
5.71075e-05
5.69162e-05
5.85174e-05
5.77513e-05
5.68207e-05
5.68459e-05
5.71173e-05
5.72196e-05
5.77347e-05
5.72349e-05
5.73839e-05
5.80466e-05
5.82884e-05
5.74741e-05
5.71978e-05
5.71201e-05
5.79371e-05
5.80445e-05
5.72217e-05
5.69786e-05
5.65153e-05
5.62555e-05
5.57079e-05
5.75636e-05
5.64933e-05
5.70987e-05
5.72092e-05
5.65787e-05
5.6652e-05
5.69074e-05
5.57577e-05
5.58494e-05
5.825e-05
5.73414e-05
5.67729e-05
5.64527e-05
5.60072e-05
5.67197e-05
5.71597e-05
5.72115e-05
5.60984e-05
5.55477e-05
5.60333e-05
5.55292e-05
5.64197e-05
5.6621e-05
5.64054e-05
5.64284e-05
5.6241e-05
5.61683e-05
5.56185e-05
5.54084e-05
5.53412e-05
5.72488e-05
5.70406e-05
5.58292e-05
5.60755e-05
5.56258e-05
5.6425e-05
5.74125e-05
5.86703e-05
5.62247e-05
5.58428e-05
5.75175e-05
5.76038e-05
5.69194e-05
5.88124e-05
5.63063e-05
5.62146e-05
5.73613e-05
5.73194e-05
5.5428e-05
5.74984e-05
5.73569e-05
5.72119e-05
5.86703e-05
5.57252e-05
5.74392e-05
5.74191e-05
5.86721e-05
5.8826e-05
5.90075e-05
5.77957e-05
5.79734e-05
5.80725e-05
5.84542e-05
5.9041e-05
5.95996e-05
5.76432e-05
5.76313e-05
5.79025e-05
5.78296e-05
5.78808e-05
5.85506e-05
5.8637e-05
5.88445e-05
5.87806e-05
5.78642e-05
5.79086e-05
5.84386e-05
5.96963e-05
5.89004e-05
5.75019e-05
5.80257e-05
5.84385e-05
5.68723e-05
5.71964e-05
5.95919e-05
5.78964e-05
5.78512e-05
5.7725e-05
5.68326e-05
5.67715e-05
5.86416e-05
5.74569e-05
5.74616e-05
5.86164e-05
5.73886e-05
5.8422e-05
5.67645e-05
5.71755e-05
5.78834e-05
5.73605e-05
5.70809e-05
5.65208e-05
5.66809e-05
5.61084e-05
5.58717e-05
5.76386e-05
5.66858e-05
5.65416e-05
5.6601e-05
5.62761e-05
5.66277e-05
5.68264e-05
5.58422e-05
5.57694e-05
5.73281e-05
5.78351e-05
5.66727e-05
5.65828e-05
5.59459e-05
5.66027e-05
5.72498e-05
5.86787e-05
5.61453e-05
5.58544e-05
5.73044e-05
5.67609e-05
5.66904e-05
5.8018e-05
5.63485e-05
5.68978e-05
5.74233e-05
5.76723e-05
5.57283e-05
5.64329e-05
5.662e-05
5.80976e-05
5.90155e-05
5.59506e-05
5.76843e-05
5.70566e-05
5.8264e-05
5.88617e-05
5.90853e-05
5.76705e-05
5.72852e-05
5.80577e-05
5.8123e-05
5.83369e-05
5.92687e-05
5.76987e-05
5.77536e-05
5.79e-05
5.74392e-05
5.72567e-05
5.81008e-05
5.82062e-05
5.90586e-05
5.80846e-05
5.75503e-05
5.75462e-05
5.81349e-05
5.94661e-05
5.89561e-05
5.7294e-05
5.80227e-05
5.81555e-05
5.67317e-05
5.73395e-05
5.93014e-05
5.80588e-05
5.77963e-05
5.69409e-05
5.64428e-05
5.5824e-05
5.82115e-05
5.75135e-05
5.70048e-05
5.78132e-05
5.639e-05
5.80893e-05
5.57569e-05
5.65022e-05
5.7346e-05
5.71019e-05
5.65305e-05
5.62847e-05
5.67328e-05
5.56251e-05
5.56455e-05
5.77758e-05
5.65326e-05
5.60857e-05
5.56412e-05
5.5707e-05
5.5866e-05
5.63855e-05
5.57294e-05
5.55607e-05
5.63089e-05
5.73548e-05
5.59667e-05
5.5736e-05
5.5448e-05
5.62103e-05
5.66828e-05
5.90846e-05
5.56566e-05
5.5617e-05
5.73089e-05
5.67848e-05
5.65319e-05
5.8403e-05
5.58272e-05
5.66463e-05
5.77402e-05
5.86607e-05
5.56193e-05
5.68517e-05
5.76074e-05
5.79247e-05
6.03868e-05
5.56228e-05
5.87276e-05
5.80473e-05
5.953e-05
5.94325e-05
6.01206e-05
5.7962e-05
5.75171e-05
5.86884e-05
5.847e-05
5.87996e-05
5.98624e-05
5.83022e-05
5.90679e-05
5.87778e-05
5.89969e-05
5.8303e-05
5.84144e-05
5.87946e-05
6.0648e-05
5.96747e-05
5.86871e-05
5.90481e-05
5.89753e-05
6.01696e-05
5.9822e-05
5.55909e-05
5.85784e-05
5.84187e-05
5.53137e-05
5.56184e-05
5.97796e-05
5.6067e-05
5.85355e-05
5.81212e-05
5.48362e-05
5.39651e-05
5.8462e-05
5.54598e-05
5.46353e-05
5.88823e-05
5.4312e-05
5.84308e-05
5.39744e-05
5.42986e-05
5.47594e-05
5.50901e-05
5.36814e-05
5.39949e-05
5.55738e-05
5.33168e-05
5.25458e-05
4.58033e-05
4.4418e-05
4.4909e-05
5.31538e-05
5.3941e-05
5.28905e-05
6.29758e-08
2.30415e-07
4.68865e-08
6.03234e-08
2.85095e-07
2.79113e-07
1.32401e-07
1.19399e-07
2.68385e-07
3.04486e-07
1.34679e-07
2.03098e-07
3.70091e-07
2.07463e-07
4.12808e-07
2.96936e-07
4.86383e-06
2.56184e-07
6.52016e-06
1.36764e-05
2.05783e-05
3.58579e-07
4.80565e-06
3.19494e-07
6.4093e-06
1.5223e-07
1.74381e-07
1.63912e-07
1.45889e-07
1.52263e-07
1.7382e-07
1.64608e-07
2.66729e-07
5.20563e-07
2.21496e-07
2.5743e-07
2.7197e-07
5.09175e-07
2.20644e-07
1.49212e-05
2.22977e-05
2.49506e-07
2.46649e-07
5.80779e-07
2.9853e-07
2.56107e-07
2.45808e-07
5.67738e-07
1.85116e-06
1.9238e-06
3.52996e-07
1.83603e-06
1.90351e-06
4.78552e-07
9.61586e-06
3.90133e-07
1.22619e-05
3.77036e-05
4.59736e-05
5.27778e-07
9.43481e-06
4.51239e-07
1.21408e-05
1.50065e-07
1.7264e-07
1.6375e-07
1.42622e-07
1.43967e-07
1.69517e-07