/*--------------------------------*- C++ -*----------------------------------*\
| =========                 |                                                 |
| \\      /  F ield         | OpenFOAM: The Open Source CFD Toolbox           |
|  \\    /   O peration     | Version:  v2006                                 |
|   \\  /    A nd           | Website:  www.openfoam.com                      |
|    \\/     M anipulation  |                                                 |
\*---------------------------------------------------------------------------*/
FoamFile
{
    version     2.0;
    format      ascii;
    class       volScalarField;
    location    "625";
    object      epsilon;
}
// * * * * * * * * * * * * * * * * * * * * * * * * * * * * * * * * * * * * * //

dimensions      [0 2 -3 0 0 0 0];


internalField   nonuniform List<scalar> 
14298
(
1.84803e-05
1.84827e-05
3.46428e-07
5.11121e-06
5.11295e-06
3.59958e-06
8.90245e-06
3.59953e-06
1.08808e-06
2.26427e-07
2.75799e-06
1.5845e-07
1.08807e-06
1.58457e-07
3.59956e-06
8.90361e-06
1.08815e-06
2.26372e-07
2.75848e-06
1.58452e-07
3.59985e-06
8.90319e-06
1.08812e-06
2.26462e-07
1.58458e-07
2.75861e-06
2.26434e-07
2.75812e-06
8.90276e-06
1.84834e-05
3.46456e-07
5.11314e-06
5.11148e-06
1.84815e-05
1.08815e-06
2.26367e-07
1.58451e-07
2.75809e-06
1.08814e-06
2.26393e-07
1.58449e-07
2.75856e-06
3.59953e-06
8.90332e-06
3.59946e-06
8.90331e-06
3.46491e-07
5.11131e-06
5.11293e-06
1.84816e-05
1.84834e-05
1.84791e-05
1.84816e-05
9.71801e-06
2.19328e-05
2.1932e-05
9.71774e-06
2.19313e-05
2.19306e-05
3.92652e-06
9.01817e-06
1.88198e-06
5.11516e-06
3.91868e-06
9.02377e-06
1.89188e-06
3.93348e-06
9.02329e-06
1.88373e-06
5.11688e-06
3.92593e-06
9.02891e-06
1.8934e-06
1.212e-05
1.06524e-05
4.43203e-06
3.61275e-06
1.21171e-05
1.06558e-05
4.44282e-06
2.24526e-05
7.20701e-06
8.90466e-06
2.24532e-05
7.20874e-06
1.21203e-05
1.06523e-05
4.43185e-06
3.6127e-06
1.21174e-05
1.06557e-05
4.44273e-06
1.21202e-05
4.43211e-06
1.06526e-05
3.61309e-06
1.21173e-05
4.44301e-06
1.06561e-05
2.24533e-05
7.20727e-06
8.90585e-06
2.24539e-05
7.20909e-06
1.21205e-05
1.06526e-05
4.43235e-06
3.61271e-06
1.21176e-05
1.06561e-05
4.44243e-06
2.24535e-05
7.20557e-06
8.90542e-06
2.2454e-05
7.20734e-06
8.905e-06
1.84823e-05
9.71835e-06
2.19325e-05
2.19329e-05
9.71817e-06
2.1931e-05
2.19313e-05
3.9338e-06
9.02327e-06
1.88377e-06
5.11683e-06
1.89364e-06
3.92593e-06
9.02883e-06
3.92652e-06
9.0184e-06
1.8822e-06
5.11537e-06
3.91895e-06
9.02393e-06
1.89178e-06
1.84803e-05
1.212e-05
4.43247e-06
1.06526e-05
3.61309e-06
1.21171e-05
4.44249e-06
1.06561e-05
2.24529e-05
7.20768e-06
8.90554e-06
2.24533e-05
7.20838e-06
1.21205e-05
4.43193e-06
1.06526e-05
3.61307e-06
1.21176e-05
4.44282e-06
1.06561e-05
2.24538e-05
7.2057e-06
8.90554e-06
2.24544e-05
7.20751e-06
9.71817e-06
2.19323e-05
2.19319e-05
9.71812e-06
2.1931e-05
2.19304e-05
3.92636e-06
9.01835e-06
1.88236e-06
5.11517e-06
3.91941e-06
1.89186e-06
9.02393e-06
3.93352e-06
9.02318e-06
1.88383e-06
5.11685e-06
3.9262e-06
1.89358e-06
9.02877e-06
1.84805e-05
1.84822e-05
1.3512e-07
1.20018e-07
1.20014e-07
1.13904e-07
1.2002e-07
1.13904e-07
1.35126e-07
1.2002e-07
1.20017e-07
1.13905e-07
1.35125e-07
1.20017e-07
1.13905e-07
1.69482e-06
3.47003e-07
7.3775e-07
7.38053e-07
1.68775e-06
7.41673e-07
7.41987e-07
4.52235e-07
1.40172e-06
3.66849e-07
1.09473e-06
4.50868e-07
1.40857e-06
3.68185e-07
6.33052e-07
2.03066e-06
9.67429e-07
2.76392e-06
9.72256e-07
6.30894e-07
2.03705e-06
4.52247e-07
1.40166e-06
3.66845e-07
1.09472e-06
4.50881e-07
1.40855e-06
3.68188e-07
4.5228e-07
1.40179e-06
3.66862e-07
1.0948e-06
4.50928e-07
1.40864e-06
3.68207e-07
6.33134e-07
2.03076e-06
9.67812e-07
2.76442e-06
9.72657e-07
6.30989e-07
2.03719e-06
4.52271e-07
3.66862e-07
1.40174e-06
1.09481e-06
4.50901e-07
3.68216e-07
1.40859e-06
6.33147e-07
2.03049e-06
9.67932e-07
2.7645e-06
6.31006e-07
2.03685e-06
9.72744e-07
9.675e-07
2.76401e-06
9.72302e-07
1.69493e-06
3.47029e-07
7.38098e-07
7.37804e-07
7.42035e-07
1.68784e-06
7.41731e-07
4.52275e-07
3.66874e-07
1.40177e-06
1.09481e-06
4.50918e-07
3.68221e-07
1.4086e-06
6.33059e-07
2.03063e-06
9.67441e-07
2.76399e-06
6.30926e-07
9.72237e-07
2.03698e-06
4.52289e-07
3.66876e-07
1.40172e-06
1.0948e-06
4.50926e-07
3.68224e-07
1.4086e-06
6.33095e-07
2.03044e-06
9.67882e-07
2.76448e-06
6.30953e-07
2.03686e-06
9.72701e-07
1.69501e-06
3.4707e-07
7.37866e-07
7.38156e-07
1.68794e-06
7.41791e-07
7.42102e-07
2.2843e-07
2.71881e-07
2.30708e-07
2.30675e-07
2.71842e-07
2.71868e-07
2.28439e-07
1.96032e-07
1.89429e-05
1.8657e-06
2.04495e-07
5.78749e-07
4.22967e-06
4.23127e-06
2.07295e-07
5.75187e-07
2.27834e-06
2.07297e-07
1.84759e-06
5.75186e-07
8.75769e-06
2.27827e-06
2.07296e-07
1.84793e-06
5.75199e-07
8.75813e-06
2.27834e-06
4.20458e-06
4.2059e-06
1.8966e-05
1.89673e-05
4.23095e-06
4.22999e-06
1.89415e-05
8.7595e-06
2.29918e-06
2.04496e-07
1.86585e-06
5.7876e-07
8.75917e-06
2.29923e-06
1.89425e-05
1.89438e-05
1.8934e-05
1.01167e-06
8.67642e-06
2.65461e-06
1.01231e-06
8.68006e-06
2.65738e-06
2.20886e-05
2.20882e-05
8.93158e-06
2.26149e-05
6.38741e-06
6.35422e-06
2.26247e-05
1.2565e-05
2.268e-06
3.02553e-06
1.14662e-05
3.00164e-06
1.14927e-05
1.25476e-05
2.26166e-05
8.75421e-06
6.38669e-06
6.35188e-06
2.26262e-05
1.25654e-05
2.26794e-06
1.14658e-05
3.02589e-06
1.14924e-05
3.00122e-06
1.25481e-05
2.26166e-05
8.75462e-06
6.38685e-06
6.35203e-06
2.26262e-05
1.25656e-05
2.268e-06
3.02607e-06
1.14661e-05
3.00132e-06
1.14926e-05
1.25482e-05
2.5975e-06
9.97294e-07
4.18316e-06
8.67606e-06
2.61629e-06
9.90718e-07
8.67576e-06
2.60092e-06
9.97953e-07
4.18481e-06
8.6797e-06
2.62181e-06
9.91333e-07
8.67939e-06
8.84228e-06
2.2086e-05
2.20854e-05
8.89202e-06
2.20768e-05
2.20764e-05
1.89758e-05
1.89771e-05
2.67719e-06
1.01233e-06
8.67992e-06
4.2518e-06
8.68126e-06
2.65866e-06
1.01916e-06
2.67521e-06
1.01146e-06
8.67651e-06
4.24987e-06
1.01839e-06
2.65235e-06
8.6778e-06
8.97551e-06
2.20874e-05
2.20877e-05
2.21008e-05
8.93257e-06
2.21011e-05
1.89326e-05
2.2633e-05
6.41875e-06
8.76314e-06
6.45005e-06
2.26235e-05
1.24967e-05
2.31052e-06
3.05648e-06
1.14219e-05
3.08096e-06
1.25127e-05
1.1397e-05
2.26345e-05
6.41667e-06
8.76288e-06
2.26253e-05
6.44923e-06
1.24971e-05
2.31061e-06
1.14216e-05
3.05622e-06
1.25131e-05
1.13966e-05
3.08143e-06
4.03734e-07
4.03776e-07
8.30912e-07
8.12219e-07
2.73293e-07
4.01259e-07
4.01308e-07
8.17852e-07
4.00731e-07
4.00771e-07
8.36771e-07
4.03773e-07
4.03703e-07
2.70547e-07
4.04369e-07
8.30843e-07
4.04428e-07
1.89275e-07
1.858e-07
1.89277e-07
1.89275e-07
1.858e-07
3.9495e-07
5.44155e-07
1.18125e-06
1.87368e-06
3.95039e-07
5.45512e-07
1.1883e-06
3.15991e-07
5.80217e-07
7.175e-07
2.90888e-07
3.16702e-07
7.21152e-07
2.89439e-07
3.93133e-07
1.1649e-06
3.92988e-07
1.15793e-06
3.17273e-07
5.73923e-07
7.09155e-07
2.91141e-07
3.16393e-07
7.05713e-07
2.92719e-07
3.93144e-07
5.40022e-07
1.83981e-06
1.16478e-06
1.15779e-06
5.38818e-07
3.93001e-07
3.17279e-07
5.73922e-07
2.91146e-07
7.09174e-07
2.92721e-07
7.05726e-07
3.16407e-07
3.93169e-07
5.40141e-07
1.84013e-06
1.16487e-06
1.15789e-06
5.38936e-07
3.9302e-07
3.17298e-07
5.73947e-07
2.91151e-07
7.09213e-07
2.92728e-07
7.05763e-07
3.16418e-07
3.94962e-07
5.44224e-07
1.18109e-06
1.87382e-06
5.45563e-07
3.95054e-07
1.18818e-06
3.16003e-07
5.80233e-07
2.90893e-07
7.1751e-07
2.89443e-07
3.16713e-07
7.21193e-07
2.20654e-07
4.40431e-06
4.48416e-06
1.94161e-07
2.43839e-06
2.17485e-07
1.89506e-07
8.79083e-06
1.85053e-07
2.2842e-07
1.8001e-07
2.20609e-07
2.68172e-07
2.67855e-07
2.28432e-07
2.22396e-07
1.9552e-06
4.38195e-06
2.28445e-07
2.22368e-07
2.22404e-07
2.22387e-07
1.96614e-07
2.41591e-06
2.71871e-07
2.67866e-07
2.28423e-07
2.22373e-07
2.22359e-07
2.6788e-07
1.88519e-05
2.68149e-07
2.20632e-07
1.97467e-06
2.03137e-06
2.20605e-07
2.2064e-07
2.68157e-07
2.20607e-07
1.88076e-05
2.67485e-07
1.87927e-05
1.88338e-05
1.88071e-05
1.94161e-07
6.04429e-07
1.97498e-06
2.18966e-07
1.91788e-07
6.14929e-07
2.01179e-06
2.68157e-07
4.40467e-06
4.46333e-06
2.67051e-07
4.46361e-06
1.88349e-05
1.8808e-05
1.87921e-05
2.67476e-07
4.48431e-06
1.87931e-05
2.43851e-06
8.78101e-06
2.49242e-06
8.79019e-06
6.04402e-07
1.91789e-07
2.20646e-07
2.18996e-07
2.01159e-06
1.97473e-06
6.14939e-07
8.78928e-06
8.78037e-06
2.49248e-06
1.89506e-07
6.21082e-07
2.03159e-06
2.51557e-06
8.79168e-06
2.17481e-07
2.03138e-06
6.21075e-07
2.51551e-06
2.34387e-06
2.29921e-06
8.76779e-06
1.89042e-05
2.34437e-06
8.76892e-06
1.77961e-07
1.9317e-07
1.93171e-07
1.93173e-07
1.93174e-07
1.85053e-07
1.85055e-07
5.85898e-07
2.26257e-07
1.90038e-06
2.01779e-07
1.89437e-05
1.89053e-05
5.85893e-07
2.04496e-07
1.86576e-06
2.26278e-07
5.78771e-07
2.0178e-07
1.90044e-06
2.69476e-07
4.29529e-06
4.29684e-06
2.49195e-06
8.77985e-06
2.43875e-06
8.78891e-06
2.49255e-06
8.78114e-06
2.43843e-06
8.79013e-06
1.75303e-07
1.82496e-07
1.82499e-07
1.88361e-05
1.88091e-05
6.1493e-07
1.94158e-07
1.97465e-06
2.18963e-07
6.04403e-07
1.91786e-07
2.0115e-06
2.67062e-07
4.46285e-06
4.40396e-06
4.40531e-06
4.46437e-06
1.89019e-05
1.89044e-05
2.69456e-07
4.29504e-06
4.29677e-06
1.88498e-05
1.88818e-05
1.88523e-05
1.88843e-05
2.69621e-07
4.38131e-06
4.38309e-06
4.31884e-06
4.32042e-06
2.34436e-06
8.75887e-06
2.29913e-06
8.76768e-06
5.85868e-07
2.04496e-07
2.26302e-07
5.78748e-07
1.90036e-06
2.0178e-07
5.85884e-07
1.86618e-06
2.04497e-07
2.26319e-07
5.78763e-07
1.90078e-06
2.01783e-07
2.36637e-06
8.77825e-06
8.76932e-06
2.41549e-06
8.7779e-06
2.36608e-06
8.76917e-06
2.41588e-06
5.90289e-07
2.24288e-07
1.95513e-06
1.96611e-07
1.91926e-06
1.99154e-07
5.99089e-07
2.22393e-07
5.9029e-07
2.24273e-07
1.96613e-07
1.91962e-06
1.99156e-07
5.99089e-07
2.69459e-07
4.29664e-06
4.29483e-06
1.89029e-05
1.88509e-05
1.8884e-05
2.67864e-07
4.38227e-06
2.69623e-07
4.32034e-06
4.31942e-06
1.8852e-05
1.88832e-05
5.85891e-07
2.26274e-07
1.90078e-06
2.0178e-07
2.34393e-06
8.75955e-06
2.29943e-06
8.76848e-06
5.85907e-07
2.045e-07
1.86623e-06
2.26307e-07
5.78769e-07
2.01783e-07
1.9009e-06
2.36609e-06
8.77956e-06
8.77043e-06
2.41603e-06
5.90315e-07
2.24262e-07
1.95561e-06
1.96612e-07
1.91963e-06
1.99154e-07
5.99129e-07
2.36645e-06
8.77914e-06
8.77e-06
2.41564e-06
5.9031e-07
2.24295e-07
1.96615e-07
1.95571e-06
1.99159e-07
1.91981e-06
5.99147e-07
2.34434e-06
8.76847e-06
5.85889e-07
2.2631e-07
2.01781e-07
1.9005e-06
2.34428e-06
8.76809e-06
1.96613e-07
5.99128e-07
1.95561e-06
5.90318e-07
2.24289e-07
1.91948e-06
1.99155e-07
2.41591e-06
8.77944e-06
2.36616e-06
8.77021e-06
5.99128e-07
2.22416e-07
1.95548e-06
5.90317e-07
2.24291e-07
1.99156e-07
1.91941e-06
8.77894e-06
2.36611e-06
8.7696e-06
4.2313e-06
4.22967e-06
2.69465e-07
4.29706e-06
4.29553e-06
1.8942e-05
1.89035e-05
1.88532e-05
1.88854e-05
2.69628e-07
4.38326e-06
4.38171e-06
4.3207e-06
4.31918e-06
1.88513e-05
1.88835e-05
5.85902e-07
2.04497e-07
1.86616e-06
2.26274e-07
5.78782e-07
2.0178e-07
1.90087e-06
2.34437e-06
8.75975e-06
2.29923e-06
8.7687e-06
2.34439e-06
8.75959e-06
2.29927e-06
8.7685e-06
5.90314e-07
2.24266e-07
1.96611e-07
1.95523e-06
1.99154e-07
1.91934e-06
5.99126e-07
5.90332e-07
2.2427e-07
1.96612e-07
1.95553e-06
1.99156e-07
1.91976e-06
5.99127e-07
2.36613e-06
8.77937e-06
8.77024e-06
2.416e-06
2.36615e-06
8.77911e-06
8.77003e-06
2.41604e-06
1.89038e-05
1.89051e-05
4.38185e-06
2.69639e-07
4.38271e-06
4.31938e-06
4.32064e-06
1.88839e-05
1.88525e-05
1.88852e-05
1.88326e-05
1.88057e-05
1.88351e-05
1.88083e-05
4.40353e-06
4.40517e-06
2.67039e-07
4.46261e-06
4.46441e-06
8.7795e-06
8.78862e-06
2.4923e-06
2.43845e-06
6.14881e-07
1.97455e-06
1.94159e-07
2.18988e-07
6.04364e-07
2.0114e-06
1.91786e-07
2.20593e-07
2.01161e-06
2.18996e-07
6.14878e-07
1.94158e-07
6.04387e-07
1.91787e-07
8.79011e-06
2.51544e-06
2.17441e-07
6.21046e-07
1.89503e-07
6.14934e-07
1.975e-06
1.94159e-07
2.18959e-07
6.04404e-07
2.01188e-06
1.91787e-07
2.49219e-06
8.78071e-06
2.43881e-06
8.78966e-06
6.14955e-07
1.94163e-07
1.97515e-06
2.18995e-07
6.04399e-07
1.9179e-07
2.01199e-06
2.5156e-06
6.21088e-07
1.89504e-07
2.516e-06
8.79119e-06
6.21087e-07
2.17481e-07
1.89509e-07
2.0318e-06
4.40547e-06
4.40393e-06
2.67049e-07
4.4645e-06
4.46294e-06
1.88343e-05
1.88073e-05
1.87943e-05
2.67473e-07
4.48519e-06
4.48362e-06
1.87924e-05
2.18963e-07
6.14943e-07
1.94159e-07
1.97509e-06
6.04412e-07
1.91787e-07
2.01198e-06
2.49252e-06
8.78092e-06
2.43846e-06
8.78994e-06
2.49259e-06
8.78074e-06
2.43844e-06
8.7897e-06
2.17447e-07
2.03128e-06
8.79149e-06
1.88346e-05
1.88357e-05
1.8809e-05
4.48353e-06
4.48505e-06
1.87941e-05
2.89232e-06
8.69468e-06
1.10212e-06
4.42327e-06
8.6995e-06
2.87567e-06
1.10963e-06
2.99732e-06
1.15138e-06
4.50167e-06
8.71094e-06
2.98164e-06
8.71713e-06
1.15919e-06
1.23307e-05
1.11713e-05
3.27815e-06
2.45357e-06
1.11525e-05
3.30448e-06
1.23418e-05
2.26611e-05
8.79455e-06
6.72649e-06
2.26557e-05
6.74829e-06
2.8221e-06
8.69253e-06
1.08575e-06
4.36261e-06
2.83949e-06
1.07835e-06
8.68855e-06
1.23793e-05
1.12086e-05
3.24885e-06
2.4017e-06
1.23671e-05
1.12289e-05
3.22281e-06
1.88585e-05
1.88129e-05
1.8788e-05
1.88283e-05
1.88123e-05
9.23669e-06
2.21218e-05
2.21269e-05
2.21273e-05
2.21318e-05
9.20642e-06
2.90015e-06
8.69707e-06
1.10296e-06
4.42383e-06
1.11135e-06
8.702e-06
2.8734e-06
2.9315e-06
4.44515e-06
1.13466e-06
8.70864e-06
8.70306e-06
2.94744e-06
1.12732e-06
9.26373e-06
2.21355e-05
2.21388e-05
2.21279e-05
2.21312e-05
9.2913e-06
2.92543e-06
4.44489e-06
1.13526e-06
8.70967e-06
1.12647e-06
8.70359e-06
2.9517e-06
1.88291e-05
1.88133e-05
1.87875e-05
9.33514e-06
2.21335e-05
2.21373e-05
9.31238e-06
2.21374e-05
2.21409e-05
3.00441e-06
1.152e-06
8.71339e-06
4.50255e-06
2.9802e-06
8.72e-06
1.16076e-06
1.87884e-05
1.23305e-05
3.27853e-06
1.11716e-05
2.4536e-06
3.30453e-06
1.11528e-05
1.23415e-05
2.26565e-05
6.63897e-06
8.78485e-06
6.66325e-06
2.26493e-05
1.23075e-05
2.47644e-06
3.35967e-06
1.10999e-05
3.33368e-06
1.11173e-05
1.22974e-05
2.26528e-05
8.78643e-06
6.70784e-06
6.6855e-06
2.26592e-05
2.26536e-05
8.78557e-06
6.70653e-06
6.68317e-06
2.26597e-05
2.26571e-05
6.63688e-06
8.78405e-06
6.66179e-06
2.26504e-05
1.23078e-05
2.47646e-06
3.35987e-06
1.10996e-05
1.11171e-05
3.33349e-06
1.22978e-05
1.22676e-05
3.3886e-06
1.10664e-05
2.53235e-06
1.22765e-05
3.41443e-06
1.10503e-05
2.26604e-05
6.72878e-06
8.79529e-06
2.26547e-05
6.74933e-06
1.22679e-05
3.3882e-06
1.10661e-05
2.53229e-06
1.22769e-05
1.105e-05
3.41454e-06
1.24643e-05
2.33238e-06
1.13307e-05
3.13679e-06
1.1354e-05
3.11188e-06
1.24495e-05
2.26329e-05
6.41816e-06
2.26235e-05
6.45082e-06
1.24966e-05
2.31014e-06
1.14215e-05
3.05628e-06
1.25126e-05
1.13968e-05
3.08102e-06
2.26316e-05
6.50944e-06
8.764e-06
6.47892e-06
2.26404e-05
1.89122e-05
1.24645e-05
2.33203e-06
3.13725e-06
1.13311e-05
3.11158e-06
1.13543e-05
1.24498e-05
2.2632e-05
6.50967e-06
8.76518e-06
6.47905e-06
2.26407e-05
1.89346e-05
1.8913e-05
9.00868e-06
2.21077e-05
2.21068e-05
2.20999e-05
2.20993e-05
9.04947e-06
2.67264e-06
4.25042e-06
1.01844e-06
8.67769e-06
2.67856e-06
4.25188e-06
1.01917e-06
8.68138e-06
8.97373e-06
2.21001e-05
2.20995e-05
2.70963e-06
8.68082e-06
4.2749e-06
1.0403e-06
1.03325e-06
8.67867e-06
2.72791e-06
2.71234e-06
8.68447e-06
4.27645e-06
1.04102e-06
1.03389e-06
8.68224e-06
2.73486e-06
1.23072e-05
2.47653e-06
1.10996e-05
3.35954e-06
1.1117e-05
3.33352e-06
1.22971e-05
2.2656e-05
6.6384e-06
8.7837e-06
2.26491e-05
6.66361e-06
1.23302e-05
2.45307e-06
1.11712e-05
3.27847e-06
1.23414e-05
1.11524e-05
3.30419e-06
2.26524e-05
6.70819e-06
8.78524e-06
6.68471e-06
2.26585e-05
1.23075e-05
2.47639e-06
3.36007e-06
1.11e-05
3.33342e-06
1.11173e-05
1.22975e-05
2.26563e-05
6.63867e-06
8.78491e-06
2.26495e-05
6.66381e-06
1.23305e-05
2.4536e-06
3.27822e-06
1.11716e-05
1.23416e-05
3.30466e-06
1.11528e-05
2.26528e-05
6.70848e-06
8.78644e-06
6.68496e-06
2.26588e-05
1.88303e-05
1.88143e-05
2.92764e-06
1.13439e-06
4.44434e-06
8.70741e-06
1.12651e-06
8.70162e-06
2.94526e-06
2.89264e-06
1.10228e-06
4.42303e-06
8.6942e-06
1.11e-06
2.87411e-06
8.69896e-06
9.2646e-06
2.21375e-05
2.21369e-05
2.21316e-05
2.21311e-05
9.29022e-06
2.89774e-06
1.10307e-06
8.6972e-06
4.42442e-06
2.87831e-06
1.11093e-06
8.70236e-06
9.2394e-06
2.21237e-05
2.21224e-05
9.20787e-06
2.21316e-05
2.21307e-05
2.93253e-06
1.13547e-06
8.7111e-06
4.44583e-06
1.12757e-06
8.70515e-06
2.95073e-06
1.89099e-05
1.89124e-05
9.01035e-06
2.2108e-05
2.21074e-05
2.21019e-05
2.21013e-05
9.04612e-06
2.70967e-06
8.68075e-06
4.27468e-06
1.04022e-06
8.67841e-06
2.72826e-06
1.03321e-06
2.71428e-06
8.68471e-06
4.27623e-06
1.04096e-06
8.68234e-06
2.7325e-06
1.03393e-06
1.88563e-05
1.88747e-05
1.88588e-05
1.88772e-05
9.11854e-06
2.21067e-05
2.21061e-05
9.08002e-06
2.21154e-05
2.21148e-05
2.81992e-06
1.08611e-06
4.36189e-06
8.69155e-06
8.68709e-06
1.07859e-06
2.839e-06
2.82494e-06
1.08692e-06
4.36347e-06
8.69558e-06
8.6911e-06
1.07941e-06
2.84358e-06
2.78415e-06
8.68203e-06
1.05546e-06
4.33893e-06
2.76421e-06
8.68514e-06
1.06279e-06
2.78861e-06
8.686e-06
1.05622e-06
4.34067e-06
2.76902e-06
8.68913e-06
1.06357e-06
9.15056e-06
2.21274e-05
2.21268e-05
2.21182e-05
2.21176e-05
9.18105e-06
1.24648e-05
2.332e-06
1.13306e-05
3.13702e-06
1.13539e-05
3.11181e-06
1.24501e-05
2.26348e-05
6.41705e-06
8.76243e-06
2.26254e-05
6.44906e-06
1.24972e-05
2.31046e-06
1.14214e-05
3.05632e-06
1.13966e-05
1.25132e-05
3.08121e-06
2.26333e-05
6.50759e-06
8.764e-06
6.47787e-06
2.26422e-05
1.24062e-05
1.12897e-05
3.16727e-06
2.37884e-06
1.24197e-05
1.1268e-05
3.19255e-06
2.26443e-05
8.77446e-06
6.61562e-06
2.26519e-05
6.5886e-06
2.26466e-05
6.5356e-06
8.77297e-06
2.26385e-05
6.56421e-06
1.23787e-05
2.40186e-06
1.12086e-05
3.24865e-06
1.23664e-05
1.12288e-05
3.22287e-06
2.26456e-05
8.77426e-06
6.61347e-06
6.58765e-06
2.26532e-05
1.24067e-05
1.12897e-05
3.1674e-06
2.37931e-06
1.24203e-05
1.12679e-05
3.19261e-06
2.26481e-05
8.77284e-06
6.53474e-06
2.26402e-05
6.56216e-06
1.23792e-05
3.24852e-06
2.40154e-06
1.12085e-05
1.12288e-05
3.2229e-06
1.23669e-05
9.00963e-06
2.21064e-05
2.21075e-05
2.21011e-05
2.21017e-05
9.04645e-06
2.71435e-06
8.6842e-06
4.27608e-06
1.04104e-06
8.68214e-06
1.03389e-06
2.73248e-06
2.70741e-06
8.68126e-06
4.27521e-06
1.04021e-06
1.0332e-06
8.67889e-06
2.73105e-06
1.89109e-05
1.88577e-05
1.88766e-05
9.15044e-06
2.21244e-05
2.21295e-05
9.18086e-06
2.21169e-05
2.21216e-05
2.82069e-06
8.69478e-06
1.08735e-06
4.36298e-06
2.84545e-06
8.69001e-06
1.07971e-06
9.12e-06
2.21059e-05
2.21077e-05
9.08141e-06
2.21155e-05
2.21186e-05
2.78634e-06
4.34e-06
8.68542e-06
1.05643e-06
1.063e-06
2.7701e-06
8.68761e-06
2.78904e-06
4.33919e-06
8.68278e-06
1.05531e-06
2.7618e-06
8.68699e-06
1.0635e-06
1.88581e-05
1.88762e-05
1.24651e-05
2.33244e-06
1.13311e-05
3.13683e-06
1.13542e-05
3.11213e-06
1.24503e-05
2.26344e-05
6.41671e-06
8.76317e-06
2.2625e-05
6.44925e-06
1.24973e-05
2.31032e-06
1.14217e-05
3.05671e-06
1.13971e-05
1.25134e-05
3.08113e-06
2.26329e-05
6.5078e-06
8.76472e-06
6.47736e-06
2.26417e-05
1.24065e-05
3.16705e-06
1.12901e-05
2.3795e-06
1.24199e-05
3.19316e-06
1.12684e-05
2.26447e-05
8.77572e-06
6.61592e-06
2.26523e-05
6.58895e-06
2.2647e-05
6.53576e-06
8.77415e-06
2.26389e-05
6.56452e-06
1.2379e-05
2.40169e-06
3.2491e-06
1.1209e-05
1.23668e-05
3.22277e-06
1.12292e-05
1.2407e-05
1.129e-05
3.16755e-06
2.37909e-06
1.24205e-05
1.12684e-05
3.19272e-06
2.26456e-05
8.77531e-06
6.61404e-06
6.58728e-06
2.26532e-05
2.26479e-05
6.53409e-06
8.77374e-06
2.26398e-05
6.56265e-06
1.23796e-05
2.4021e-06
1.1209e-05
3.24867e-06
1.1229e-05
3.2233e-06
1.23673e-05
1.24644e-05
2.33204e-06
3.13694e-06
1.1331e-05
3.11185e-06
1.13544e-05
1.24496e-05
2.26315e-05
6.50886e-06
8.76466e-06
6.47947e-06
2.26406e-05
1.24648e-05
2.33201e-06
1.13307e-05
3.13705e-06
1.13541e-05
3.11158e-06
1.24501e-05
2.26331e-05
6.50775e-06
8.76438e-06
6.47727e-06
2.26418e-05
1.23788e-05
3.24889e-06
1.12089e-05
2.40167e-06
1.23667e-05
3.22284e-06
1.12292e-05
2.26443e-05
6.61526e-06
8.77567e-06
2.26523e-05
6.58917e-06
1.24063e-05
2.37941e-06
3.16736e-06
1.12901e-05
1.24198e-05
3.19277e-06
1.12683e-05
2.26468e-05
8.77399e-06
6.53623e-06
2.26386e-05
6.56373e-06
2.26458e-05
6.61403e-06
8.77512e-06
2.26533e-05
6.58728e-06
1.24067e-05
2.37948e-06
1.12899e-05
3.16708e-06
1.24202e-05
1.1268e-05
3.19305e-06
2.26481e-05
8.7734e-06
6.53402e-06
2.26399e-05
6.56269e-06
9.00992e-06
2.21088e-05
2.21093e-05
2.20969e-05
2.20974e-05
9.05161e-06
2.67686e-06
1.01231e-06
8.68007e-06
4.25185e-06
8.68127e-06
2.65798e-06
1.01914e-06
2.67237e-06
1.01158e-06
8.67638e-06
4.25051e-06
1.01836e-06
2.65372e-06
8.67756e-06
8.97112e-06
2.20892e-05
2.20896e-05
2.20961e-05
8.92942e-06
2.20966e-05
2.71377e-06
8.68444e-06
4.27656e-06
1.04109e-06
8.68209e-06
1.03394e-06
2.73377e-06
2.70935e-06
8.68068e-06
4.27502e-06
1.04027e-06
1.03318e-06
8.67839e-06
2.7291e-06
1.89331e-05
1.89114e-05
1.88596e-05
1.88781e-05
9.11716e-06
2.21112e-05
2.21116e-05
9.08447e-06
2.21184e-05
2.21188e-05
2.8238e-06
1.08693e-06
4.36364e-06
8.69517e-06
1.07934e-06
8.69119e-06
2.84357e-06
2.81903e-06
1.08602e-06
4.36209e-06
8.69134e-06
8.6874e-06
1.0785e-06
2.83857e-06
2.78881e-06
8.68594e-06
1.05641e-06
4.34067e-06
1.06372e-06
2.76987e-06
8.68944e-06
2.78395e-06
8.68219e-06
1.0556e-06
4.33912e-06
2.76527e-06
8.68565e-06
1.06285e-06
9.14602e-06
2.2122e-05
2.21225e-05
2.2116e-05
2.21165e-05
9.17999e-06
1.88578e-05
1.88763e-05
1.24644e-05
2.33203e-06
3.13687e-06
1.1331e-05
3.11187e-06
1.13543e-05
1.24496e-05
2.26331e-05
6.4189e-06
8.76345e-06
6.45013e-06
2.26235e-05
1.24967e-05
2.31061e-06
3.05655e-06
1.14219e-05
3.08106e-06
1.25127e-05
1.1397e-05
2.26315e-05
6.50879e-06
8.76496e-06
6.4795e-06
2.26405e-05
1.2465e-05
2.33206e-06
3.13722e-06
1.1331e-05
3.11166e-06
1.13544e-05
1.24503e-05
2.26345e-05
6.41677e-06
8.76328e-06
2.26252e-05
6.4494e-06
1.24973e-05
2.31067e-06
3.05627e-06
1.14219e-05
1.25133e-05
3.08156e-06
1.1397e-05
2.26331e-05
6.50792e-06
8.76479e-06
6.47738e-06
2.26418e-05
1.24063e-05
3.16734e-06
1.12901e-05
2.37947e-06
1.24198e-05
3.19282e-06
1.12683e-05
2.2644e-05
8.77558e-06
6.61496e-06
6.5893e-06
2.26518e-05
2.26469e-05
6.53625e-06
8.77403e-06
2.26385e-05
6.56378e-06
1.23788e-05
2.40169e-06
3.24866e-06
1.12089e-05
3.22294e-06
1.12292e-05
1.23666e-05
1.24069e-05
3.16718e-06
1.12901e-05
2.37951e-06
1.24204e-05
3.19311e-06
1.12683e-05
2.26458e-05
8.7753e-06
6.61413e-06
6.58734e-06
2.26533e-05
2.26481e-05
6.53416e-06
8.77376e-06
2.26399e-05
6.56278e-06
1.23795e-05
2.40172e-06
3.24904e-06
1.12089e-05
3.22282e-06
1.12292e-05
1.23673e-05
1.89336e-05
1.89118e-05
1.89349e-05
1.89131e-05
2.82269e-06
1.08651e-06
4.3626e-06
8.69265e-06
2.83891e-06
1.07955e-06
8.68871e-06
9.1197e-06
2.21093e-05
2.21084e-05
9.0839e-06
2.212e-05
2.21186e-05
2.82106e-06
1.08652e-06
4.36309e-06
8.69427e-06
2.8424e-06
1.07847e-06
8.69003e-06
2.78361e-06
4.33892e-06
8.68231e-06
1.05582e-06
2.76635e-06
1.06288e-06
8.68582e-06
2.7912e-06
8.68585e-06
1.0562e-06
4.34059e-06
2.76778e-06
1.06379e-06
8.68923e-06
9.14779e-06
2.21251e-05
2.21229e-05
9.17964e-06
2.21195e-05
2.21173e-05
1.88767e-05
1.8859e-05
1.88777e-05
1.88268e-05
1.88109e-05
1.88293e-05
1.88135e-05
9.26254e-06
2.21367e-05
2.2136e-05
2.21287e-05
2.2128e-05
9.29127e-06
2.8923e-06
1.10213e-06
8.6938e-06
4.42263e-06
2.87306e-06
8.69859e-06
1.10985e-06
2.89706e-06
1.10298e-06
8.69784e-06
4.42444e-06
2.87818e-06
8.70265e-06
1.11071e-06
9.23559e-06
2.21248e-05
2.21241e-05
9.20626e-06
2.21292e-05
2.21285e-05
2.92666e-06
8.70692e-06
4.44414e-06
1.13443e-06
8.70114e-06
2.94625e-06
1.12644e-06
2.93197e-06
8.71102e-06
4.44577e-06
1.13533e-06
8.70522e-06
2.95117e-06
1.12733e-06
2.26571e-05
8.78333e-06
6.6373e-06
2.26501e-05
6.6615e-06
2.26535e-05
8.78489e-06
6.7062e-06
6.68364e-06
2.26597e-05
1.23078e-05
3.35946e-06
2.47623e-06
1.10995e-05
1.11169e-05
3.33357e-06
1.22977e-05
1.23307e-05
3.27852e-06
2.45351e-06
1.11712e-05
1.11524e-05
1.23419e-05
3.3042e-06
2.26609e-05
8.79372e-06
6.72674e-06
2.26554e-05
6.74788e-06
1.22678e-05
3.38838e-06
2.53232e-06
1.1066e-05
1.22768e-05
1.10499e-05
3.41437e-06
1.2308e-05
2.47679e-06
1.11e-05
3.35962e-06
1.11172e-05
3.3339e-06
1.2298e-05
2.2657e-05
6.63697e-06
8.78448e-06
2.26502e-05
6.66189e-06
1.2331e-05
2.45319e-06
1.11714e-05
3.2787e-06
1.11528e-05
1.23421e-05
3.30417e-06
2.26534e-05
6.70656e-06
8.78599e-06
6.68323e-06
2.26595e-05
1.22677e-05
2.53239e-06
3.3883e-06
1.10664e-05
1.22767e-05
3.4148e-06
1.10503e-05
1.22681e-05
2.53201e-06
1.10663e-05
3.38877e-06
1.22772e-05
1.10503e-05
3.41432e-06
2.26609e-05
6.72649e-06
8.79488e-06
2.26554e-05
6.74833e-06
9.26252e-06
2.2135e-05
2.21355e-05
2.21309e-05
2.21314e-05
9.2881e-06
2.89829e-06
1.10315e-06
8.69744e-06
4.4245e-06
8.70268e-06
2.87879e-06
1.11095e-06
2.89314e-06
1.10226e-06
8.69361e-06
4.42296e-06
1.11e-06
2.87387e-06
8.69881e-06
9.23952e-06
2.21233e-05
2.21238e-05
2.21326e-05
9.20979e-06
2.21331e-05
2.93177e-06
8.71111e-06
4.44593e-06
1.13534e-06
8.70538e-06
1.12742e-06
2.95073e-06
2.9267e-06
8.7072e-06
4.44437e-06
1.13435e-06
1.12648e-06
8.70152e-06
2.94543e-06
1.88285e-05
1.88125e-05
1.87895e-05
9.3372e-06
2.21327e-05
2.21332e-05
9.31098e-06
2.21386e-05
2.21391e-05
3.00351e-06
8.71394e-06
1.15221e-06
4.50319e-06
1.16043e-06
2.98401e-06
8.72022e-06
2.99805e-06
8.71003e-06
1.15124e-06
4.50164e-06
2.97878e-06
8.71626e-06
1.1594e-06
1.87877e-05
1.23073e-05
2.4764e-06
3.35956e-06
1.10999e-05
3.33386e-06
1.11173e-05
1.22973e-05
2.26557e-05
6.63904e-06
8.78466e-06
6.66269e-06
2.26485e-05
1.23302e-05
2.45357e-06
3.27849e-06
1.11716e-05
3.30413e-06
1.23414e-05
1.11528e-05
2.26522e-05
6.70748e-06
8.7862e-06
6.68561e-06
2.26588e-05
1.23079e-05
2.4764e-06
3.36012e-06
1.10999e-05
3.33342e-06
1.11173e-05
1.22979e-05
2.26571e-05
6.63693e-06
8.78449e-06
2.26504e-05
6.66199e-06
1.23309e-05
2.45362e-06
3.27818e-06
1.11716e-05
1.23421e-05
3.30468e-06
1.11528e-05
2.26536e-05
6.70671e-06
8.78601e-06
6.6832e-06
2.26596e-05
2.26602e-05
6.72894e-06
8.79521e-06
2.26544e-05
6.74923e-06
1.88288e-05
1.88301e-05
1.88142e-05
2.99716e-06
1.15124e-06
4.5016e-06
8.71031e-06
1.15936e-06
2.97933e-06
8.71644e-06
9.33541e-06
2.21345e-05
2.2134e-05
9.3115e-06
2.21389e-05
2.21383e-05
3.0026e-06
1.15226e-06
8.71401e-06
4.50311e-06
2.9842e-06
1.16038e-06
8.7202e-06
1.87894e-05
1.77958e-07
1.87686e-07
1.7796e-07
1.80687e-07
1.80685e-07
1.77149e-07
1.74402e-07
8.3676e-07
2.70563e-07
4.04383e-07
4.04439e-07
9.20624e-07
2.67373e-07
4.19973e-07
4.20061e-07
4.21128e-07
9.13659e-07
4.2126e-07
8.91803e-07
2.68788e-07
4.16288e-07
4.16352e-07
4.1525e-07
4.15322e-07
8.9844e-07
4.02458e-07
5.64883e-07
1.94685e-06
1.26046e-06
1.25306e-06
5.63131e-07
4.02553e-07
8.36671e-07
4.03772e-07
4.03713e-07
2.70553e-07
4.04358e-07
8.30841e-07
4.0442e-07
8.91646e-07
2.68794e-07
4.16376e-07
4.16297e-07
4.1532e-07
4.15248e-07
8.98377e-07
8.91739e-07
4.16405e-07
2.68804e-07
4.16278e-07
8.98395e-07
4.15714e-07
4.14879e-07
9.20444e-07
4.19937e-07
4.20017e-07
2.67349e-07
9.13521e-07
4.21119e-07
4.21189e-07
4.05682e-07
5.70382e-07
1.98322e-06
1.27769e-06
5.72312e-07
4.05494e-07
1.28516e-06
4.12835e-07
5.86338e-07
2.04008e-06
1.32773e-06
5.8854e-07
4.12496e-07
1.33533e-06
9.20631e-07
4.20046e-07
4.19969e-07
2.67358e-07
4.21137e-07
9.13707e-07
4.2122e-07
9.66905e-07
4.30653e-07
2.66952e-07
4.30792e-07
4.32073e-07
9.59576e-07
4.32219e-07
3.16717e-07
2.85678e-07
7.71771e-07
6.06707e-07
7.76324e-07
2.848e-07
3.1704e-07
4.05787e-07
5.70655e-07
1.27804e-06
1.98359e-06
5.72601e-07
1.28553e-06
4.05605e-07
3.17755e-07
6.12414e-07
2.8419e-07
7.91773e-07
7.86987e-07
2.84914e-07
3.17486e-07
4.08928e-07
2.0031e-06
5.80417e-07
1.31049e-06
5.78287e-07
1.30293e-06
4.09201e-07
9.20522e-07
4.19649e-07
4.20347e-07
2.67357e-07
4.2153e-07
9.13596e-07
4.20813e-07
9.36292e-07
2.67715e-07
4.26218e-07
4.26652e-07
4.25005e-07
9.43446e-07
4.25285e-07
9.66872e-07
4.30428e-07
2.66937e-07
4.30982e-07
9.59571e-07
4.3243e-07
4.31812e-07
3.16706e-07
2.85676e-07
7.71716e-07
6.06702e-07
2.848e-07
7.76275e-07
3.17025e-07
4.08883e-07
5.80277e-07
2.00294e-06
1.31015e-06
1.30264e-06
4.09147e-07
5.78212e-07
4.05724e-07
1.27775e-06
5.70492e-07
1.9833e-06
1.28518e-06
5.72409e-07
4.05544e-07
3.17744e-07
6.12424e-07
2.84192e-07
7.91749e-07
2.84915e-07
7.86983e-07
3.17481e-07
3.18509e-07
2.84367e-07
8.02906e-07
6.23808e-07
3.18729e-07
8.0789e-07
2.83797e-07
4.1293e-07
5.86568e-07
1.32808e-06
2.04038e-06
4.12591e-07
5.88801e-07
1.3357e-06
4.12872e-07
5.86408e-07
2.04012e-06
1.32778e-06
4.12532e-07
1.33535e-06
5.88618e-07
3.18504e-07
2.84366e-07
8.0287e-07
6.23804e-07
3.18716e-07
2.83799e-07
8.07838e-07
1.85055e-07
1.87688e-07
1.77959e-07
1.80687e-07
1.80685e-07
1.7715e-07
1.74403e-07
1.86342e-07
1.8634e-07
1.90389e-07
1.83479e-07
1.83477e-07
1.79963e-07
1.82846e-07
1.86342e-07
1.8634e-07
1.90388e-07
1.83478e-07
1.83477e-07
1.79963e-07
1.82846e-07
1.86343e-07
1.86341e-07
1.90391e-07
1.8348e-07
1.83478e-07
1.79963e-07
1.82846e-07
1.86343e-07
1.86341e-07
1.90391e-07
1.8348e-07
1.83478e-07
1.79963e-07
1.82846e-07
1.87684e-07
1.7796e-07
1.77958e-07
1.80686e-07
1.80684e-07
1.77149e-07
1.74402e-07
1.87687e-07
1.77961e-07
1.77959e-07
1.80687e-07
1.80685e-07
1.7715e-07
1.74403e-07
3.16377e-07
5.84238e-07
7.3392e-07
2.87945e-07
7.30008e-07
2.89264e-07
3.15837e-07
3.97248e-07
1.21211e-06
1.8923e-06
5.51525e-07
5.50036e-07
1.20493e-06
3.97213e-07
3.1638e-07
5.84234e-07
2.87946e-07
7.33888e-07
2.8927e-07
7.3e-07
3.15833e-07
3.94953e-07
5.44176e-07
1.18126e-06
1.87371e-06
3.95048e-07
5.45516e-07
1.1883e-06
3.15993e-07
5.80228e-07
2.90894e-07
7.17502e-07
3.16708e-07
2.89444e-07
7.21157e-07
3.97248e-07
1.21208e-06
1.89227e-06
5.51526e-07
5.5004e-07
1.20492e-06
3.9721e-07
8.50262e-07
2.70662e-07
4.07939e-07
4.07988e-07
4.0715e-07
4.07191e-07
8.56445e-07
1.72707e-07
1.825e-07
1.80013e-07
1.753e-07
1.72705e-07
1.69101e-07
1.71721e-07
1.75301e-07
1.75299e-07
1.80011e-07
1.72706e-07
1.72704e-07
1.69101e-07
1.7172e-07
1.75302e-07
1.753e-07
1.80014e-07
1.72707e-07
1.72705e-07
1.69101e-07
1.71721e-07
3.1774e-07
6.12414e-07
2.84187e-07
7.91727e-07
2.84912e-07
7.86971e-07
3.1747e-07
4.05715e-07
5.7043e-07
1.27792e-06
1.98322e-06
4.05532e-07
5.72364e-07
1.28535e-06
3.16698e-07
6.06694e-07
2.85673e-07
7.71709e-07
3.17018e-07
2.84795e-07
7.76251e-07
4.08883e-07
1.31033e-06
2.00284e-06
5.80239e-07
5.78163e-07
1.30283e-06
4.09144e-07
9.36382e-07
2.67729e-07