/*--------------------------------*- C++ -*----------------------------------*\
| =========                 |                                                 |
| \\      /  F ield         | OpenFOAM: The Open Source CFD Toolbox           |
|  \\    /   O peration     | Version:  v2006                                 |
|   \\  /    A nd           | Website:  www.openfoam.com                      |
|    \\/     M anipulation  |                                                 |
\*---------------------------------------------------------------------------*/
FoamFile
{
    version     2.0;
    format      ascii;
    class       volVectorField;
    location    "625";
    object      U;
}
// * * * * * * * * * * * * * * * * * * * * * * * * * * * * * * * * * * * * * //

dimensions      [0 1 -1 0 0 0 0];


internalField   nonuniform List<vector> 
14298
(
(1.8943e-06 6.89837e-06 0.0722561)
(6.88117e-06 1.91099e-06 0.0722554)
(0.000160509 0.000160457 0.1066)
(1.31151e-05 3.02002e-05 0.0895373)
(3.01714e-05 1.30884e-05 0.0895342)
(2.14398e-06 4.68122e-05 0.0942425)
(-1.57685e-06 2.06489e-05 0.0837105)
(-2.10755e-06 4.68163e-05 0.0942424)
(5.2285e-06 0.000109265 0.102585)
(6.04919e-05 9.85796e-05 0.107879)
(1.73749e-05 6.31963e-05 0.0958743)
(1.90329e-05 0.000101686 0.108487)
(-5.16308e-06 0.000109249 0.102585)
(-1.89738e-05 0.000101693 0.108487)
(4.6981e-05 2.1598e-06 0.0942423)
(2.062e-05 -1.57531e-06 0.0837107)
(0.000109318 5.1459e-06 0.102584)
(9.84982e-05 6.03718e-05 0.107879)
(6.31858e-05 1.73242e-05 0.0958739)
(0.000101721 1.89813e-05 0.108487)
(4.69634e-05 -2.12288e-06 0.0942418)
(2.05488e-05 1.55629e-06 0.0837099)
(0.000109306 -5.11073e-06 0.102585)
(9.85673e-05 -6.04308e-05 0.107878)
(0.00010172 -1.89961e-05 0.108487)
(6.32384e-05 -1.72646e-05 0.0958724)
(-9.85377e-05 -6.04372e-05 0.107878)
(-6.32379e-05 -1.72859e-05 0.095874)
(-2.05792e-05 1.56656e-06 0.0837107)
(6.8326e-06 -1.92344e-06 0.0722546)
(0.000160456 -0.00016054 0.1066)
(3.01512e-05 -1.31361e-05 0.0895338)
(1.31363e-05 -3.01675e-05 0.0895363)
(1.95275e-06 -6.86401e-06 0.0722556)
(5.16923e-06 -0.000109294 0.102584)
(6.03542e-05 -9.84703e-05 0.107879)
(1.89887e-05 -0.000101695 0.108487)
(1.72984e-05 -6.32495e-05 0.0958743)
(-5.17197e-06 -0.000109303 0.102585)
(-6.03676e-05 -9.84587e-05 0.107879)
(-1.8976e-05 -0.00010168 0.108487)
(-1.72661e-05 -6.3213e-05 0.0958737)
(2.1427e-06 -4.68808e-05 0.0942425)
(-1.53098e-06 -2.05673e-05 0.0837103)
(-2.1406e-06 -4.68876e-05 0.0942425)
(1.57037e-06 -2.05814e-05 0.0837107)
(-0.000160507 -0.000160553 0.1066)
(-3.01633e-05 -1.30947e-05 0.0895357)
(-1.30711e-05 -3.018e-05 0.0895342)
(-6.88235e-06 -1.91621e-06 0.0722558)
(-1.89728e-06 -6.88154e-06 0.0722557)
(-3.50789e-06 -1.64769e-06 0.0722982)
(-1.66468e-06 -3.51037e-06 0.0722975)
(1.11657e-05 1.11669e-05 0.0853429)
(4.65466e-06 6.33083e-06 0.0692955)
(6.34502e-06 4.68683e-06 0.0692887)
(1.91453e-05 1.91534e-05 0.0853233)
(-8.89909e-07 2.17848e-06 0.0693274)
(2.20256e-06 -8.67359e-07 0.069321)
(2.33224e-05 2.14353e-05 0.0941843)
(2.9163e-06 2.51433e-05 0.0830469)
(5.49068e-05 7.91437e-05 0.0994677)
(1.28255e-06 2.00012e-05 0.089567)
(3.4737e-05 4.8878e-05 0.0941539)
(-2.4035e-06 1.56209e-05 0.0830734)
(3.3367e-05 3.93701e-05 0.0995138)
(2.14725e-05 2.32423e-05 0.0941763)
(2.51369e-05 2.85993e-06 0.08304)
(7.90588e-05 5.47949e-05 0.0994634)
(1.99803e-05 1.26634e-06 0.0895648)
(4.88256e-05 3.46405e-05 0.0941449)
(1.56917e-05 -2.4161e-06 0.0830681)
(3.93501e-05 3.32843e-05 0.0995102)
(2.29739e-06 -1.68087e-07 0.0778567)
(1.01826e-06 6.41092e-06 0.0796351)
(4.43211e-06 3.93912e-05 0.0923438)
(2.08152e-06 2.49596e-05 0.0942614)
(4.41791e-07 9.4737e-06 0.077826)
(1.35311e-06 -2.68808e-06 0.0796622)
(4.1338e-06 1.80748e-05 0.0923718)
(3.86871e-06 -2.29012e-06 0.0691576)
(4.64332e-06 2.35575e-05 0.087644)
(-3.95178e-06 1.11117e-06 0.0837434)
(1.80979e-06 6.10057e-06 0.0691081)
(3.66652e-06 6.35788e-06 0.0876805)
(-2.32581e-06 -1.74475e-07 0.0778558)
(-1.02062e-06 6.4113e-06 0.079635)
(-4.40538e-06 3.94054e-05 0.092344)
(-2.0661e-06 2.49683e-05 0.0942612)
(-4.42669e-07 9.47569e-06 0.0778254)
(-1.38541e-06 -2.68915e-06 0.0796621)
(-4.11949e-06 1.80713e-05 0.092371)
(-1.79441e-07 2.32957e-06 0.0778564)
(3.94078e-05 4.45783e-06 0.0923436)
(6.39218e-06 1.04653e-06 0.0796354)
(2.49532e-05 2.09989e-06 0.094261)
(9.46348e-06 4.91729e-07 0.0778259)
(1.81039e-05 4.16734e-06 0.0923715)
(-2.70267e-06 1.3561e-06 0.0796616)
(-2.30936e-06 3.93801e-06 0.0691573)
(2.35537e-05 4.64374e-06 0.0876443)
(1.07753e-06 -3.9251e-06 0.0837432)
(6.08223e-06 1.86498e-06 0.0691083)
(6.35253e-06 3.68485e-06 0.0876798)
(-1.03886e-07 -2.32966e-06 0.0778573)
(6.33546e-06 -1.05434e-06 0.079634)
(3.93428e-05 -4.43956e-06 0.0923424)
(2.50122e-05 -2.09507e-06 0.0942613)
(9.40971e-06 -4.77701e-07 0.0778234)
(-2.64477e-06 -1.35772e-06 0.0796627)
(1.81137e-05 -4.15695e-06 0.0923722)
(-2.2959e-06 -3.90416e-06 0.0691595)
(2.3543e-05 -4.61631e-06 0.0876438)
(1.03853e-06 3.87759e-06 0.0837436)
(6.08824e-06 -1.81945e-06 0.0691093)
(6.35406e-06 -3.63887e-06 0.0876809)
(-1.02138e-06 3.91619e-06 0.0837433)
(-1.64718e-06 3.46855e-06 0.0722985)
(1.10513e-05 -1.11188e-05 0.0853426)
(6.30737e-06 -4.75557e-06 0.0692887)
(4.69476e-06 -6.34396e-06 0.069295)
(1.90534e-05 -1.91182e-05 0.0853232)
(2.16227e-06 7.88094e-07 0.0693205)
(-8.40055e-07 -2.19935e-06 0.0693272)
(2.13335e-05 -2.32718e-05 0.0941752)
(2.5198e-05 -3.03144e-06 0.0830405)
(7.91824e-05 -5.48423e-05 0.0994632)
(2.00014e-05 -1.39127e-06 0.0895647)
(3.93994e-05 -3.32713e-05 0.0995093)
(4.88302e-05 -3.46939e-05 0.0941454)
(1.56927e-05 2.33846e-06 0.083067)
(2.32874e-05 -2.13894e-05 0.0941846)
(2.96797e-06 -2.51801e-05 0.0830456)
(5.48159e-05 -7.91564e-05 0.0994669)
(1.37934e-06 -1.99829e-05 0.0895676)
(3.46507e-05 -4.88474e-05 0.0941533)
(-2.35468e-06 -1.57324e-05 0.0830737)
(3.32661e-05 -3.9355e-05 0.0995145)
(-3.47566e-06 1.69052e-06 0.0722982)
(2.33248e-06 1.07466e-07 0.0778581)
(4.42015e-06 -3.93815e-05 0.0923426)
(1.03593e-06 -6.45715e-06 0.0796352)
(2.0941e-06 -2.49234e-05 0.0942608)
(4.60798e-07 -9.43245e-06 0.077824)
(4.14344e-06 -1.81838e-05 0.0923725)
(1.35619e-06 2.69366e-06 0.0796613)
(3.99457e-06 2.23316e-06 0.0691603)
(4.59154e-06 -2.35081e-05 0.0876427)
(-3.87946e-06 -1.03643e-06 0.0837438)
(1.82144e-06 -5.99937e-06 0.0691051)
(3.68098e-06 -6.41756e-06 0.087682)
(-2.32991e-06 1.72165e-07 0.0778553)
(-4.42695e-06 -3.94238e-05 0.0923438)
(-1.0128e-06 -6.46595e-06 0.0796353)
(-2.05899e-06 -2.4917e-05 0.0942605)
(-4.47204e-07 -9.50123e-06 0.0778252)
(-4.11022e-06 -1.81087e-05 0.0923706)
(-1.34967e-06 2.69929e-06 0.079661)
(-3.94096e-06 2.30995e-06 0.0691589)
(-4.60461e-06 -2.35621e-05 0.087645)
(3.91139e-06 -1.02442e-06 0.0837433)
(-1.83974e-06 -6.09657e-06 0.06911)
(-3.64934e-06 -6.33112e-06 0.0876803)
(-1.11147e-05 -1.11391e-05 0.0853435)
(-6.33405e-06 -4.71658e-06 0.0692931)
(-4.73282e-06 -6.38016e-06 0.0692877)
(-1.89677e-05 -1.90021e-05 0.085322)
(-2.22728e-06 8.24546e-07 0.0693278)
(8.50292e-07 -2.19362e-06 0.0693207)
(-2.14285e-05 -2.33874e-05 0.0941849)
(-2.51291e-05 -2.98326e-06 0.0830446)
(-7.92362e-05 -5.48351e-05 0.0994665)
(-1.99796e-05 -1.32846e-06 0.0895673)
(-4.88112e-05 -3.47048e-05 0.0941523)
(-3.94306e-05 -3.33538e-05 0.0995139)
(-1.57105e-05 2.36799e-06 0.0830741)
(-2.32736e-05 -2.1432e-05 0.0941761)
(-2.97361e-06 -2.52299e-05 0.0830399)
(-5.4755e-05 -7.91872e-05 0.0994632)
(-1.29309e-06 -1.99765e-05 0.0895645)
(-3.46293e-05 -4.88306e-05 0.0941445)
(-3.32659e-05 -3.94061e-05 0.0995095)
(2.42107e-06 -1.57239e-05 0.0830678)
(1.66185e-06 3.52484e-06 0.0722984)
(3.53528e-06 1.66589e-06 0.0722978)
(6.1574e-05 6.15811e-05 0.108776)
(2.14261e-05 6.44182e-05 0.108989)
(6.44017e-05 2.14038e-05 0.108989)
(2.18405e-05 2.18323e-05 0.109108)
(-2.13991e-05 6.44163e-05 0.108989)
(-2.18216e-05 2.18293e-05 0.109108)
(6.15609e-05 -6.15625e-05 0.108776)
(6.4416e-05 -2.14164e-05 0.108989)
(2.14134e-05 -6.43983e-05 0.108989)
(2.18413e-05 -2.18334e-05 0.109108)
(-6.15583e-05 -6.15503e-05 0.108776)
(-2.14065e-05 -6.43999e-05 0.108989)
(-2.18248e-05 -2.18387e-05 0.109108)
(3.83396e-05 3.82488e-05 0.100777)
(-5.1207e-06 -5.12763e-06 0.106765)
(0.000151104 9.90848e-05 0.104491)
(9.90604e-05 0.000150978 0.104489)
(7.63465e-05 7.62986e-05 0.100696)
(-1.03425e-05 5.75382e-05 0.10461)
(5.75565e-05 -1.0346e-05 0.104608)
(2.55589e-05 7.79212e-06 0.106059)
(1.19173e-05 9.8979e-05 0.101334)
(9.86881e-06 0.000213218 0.106428)
(5.11749e-06 6.63891e-05 0.102661)
(2.47613e-05 0.000207469 0.105888)
(1.09185e-05 5.67519e-05 0.101423)
(1.10787e-05 1.65944e-05 0.106566)
(3.94595e-05 -5.2013e-06 0.104894)
(1.70637e-05 8.12102e-05 0.0989776)
(4.97342e-05 0.000174036 0.102921)
(5.86414e-06 3.17746e-05 0.0959426)
(4.01801e-05 -6.05126e-06 0.103025)
(4.14266e-05 0.000197539 0.104717)
(1.30157e-05 4.21507e-05 0.0990718)
(-2.55226e-05 7.74056e-06 0.106058)
(-1.18868e-05 9.89617e-05 0.101334)
(-9.8335e-06 0.0002132 0.106427)
(-5.05348e-06 6.63521e-05 0.102661)
(-2.46939e-05 0.000207444 0.105887)
(-1.08941e-05 5.66948e-05 0.101422)
(-1.1081e-05 1.65563e-05 0.106566)
(7.86517e-06 2.55019e-05 0.106059)
(9.89826e-05 1.18509e-05 0.101333)
(0.000213265 9.81704e-06 0.106428)
(6.64156e-05 5.09144e-06 0.102661)
(0.000207524 2.46873e-05 0.105887)
(5.67554e-05 1.09172e-05 0.101423)
(1.66148e-05 1.10398e-05 0.106566)
(-5.24755e-06 3.93749e-05 0.104894)
(8.11954e-05 1.70379e-05 0.0989778)
(0.000173965 4.96244e-05 0.10292)
(3.17298e-05 5.85901e-06 0.0959419)
(-6.10401e-06 4.01037e-05 0.103024)
(0.000197465 4.13326e-05 0.104717)
(4.20948e-05 1.30119e-05 0.0990714)
(7.79464e-06 -2.54757e-05 0.106058)
(0.000213258 -9.7954e-06 0.106428)
(9.89619e-05 -1.18263e-05 0.101333)
(6.64075e-05 -5.08541e-06 0.102661)
(0.000207451 -2.4662e-05 0.105888)
(1.66001e-05 -1.10303e-05 0.106566)
(5.6772e-05 -1.09326e-05 0.101423)
(-5.22677e-06 -3.93843e-05 0.104894)
(8.12038e-05 -1.70301e-05 0.0989771)
(0.000174006 -4.96439e-05 0.102919)
(3.18123e-05 -5.86767e-06 0.0959423)
(0.00019747 -4.13459e-05 0.104716)
(4.21521e-05 -1.30239e-05 0.0990723)
(-6.0022e-06 -4.00698e-05 0.103024)
(-0.000174038 -4.96733e-05 0.102921)
(-3.17756e-05 -5.8415e-06 0.0959427)
(6.03855e-06 -4.01332e-05 0.103025)
(3.8195e-05 -3.82141e-05 0.100776)
(-5.1508e-06 5.18689e-06 0.106765)
(9.90634e-05 -0.000150991 0.104489)
(0.000150933 -9.90816e-05 0.104491)
(5.75459e-05 1.04642e-05 0.104607)
(7.62155e-05 -7.62665e-05 0.100696)
(-1.05417e-05 -5.74905e-05 0.104609)
(2.55314e-05 -7.84909e-06 0.106059)
(9.84762e-06 -0.000213252 0.106428)
(1.19049e-05 -9.89525e-05 0.101333)
(5.12587e-06 -6.63843e-05 0.102661)
(2.47213e-05 -0.000207495 0.105887)
(1.10775e-05 -1.65887e-05 0.106566)
(1.09808e-05 -5.67879e-05 0.101423)
(3.93681e-05 5.25707e-06 0.104895)
(1.70943e-05 -8.11657e-05 0.0989774)
(4.96546e-05 -0.000173988 0.102921)
(5.87187e-06 -3.18003e-05 0.0959433)
(4.13632e-05 -0.000197419 0.104717)
(4.00503e-05 6.01858e-06 0.103026)
(1.30624e-05 -4.21552e-05 0.0990726)
(-2.55205e-05 -7.8367e-06 0.106058)
(-9.80699e-06 -0.00021326 0.106428)
(-1.19192e-05 -9.89968e-05 0.101334)
(-5.10754e-06 -6.63743e-05 0.102661)
(-2.469e-05 -0.000207524 0.105887)
(-1.10375e-05 -1.65857e-05 0.106566)
(-1.09676e-05 -5.67537e-05 0.101422)
(-3.94156e-05 5.35551e-06 0.104894)
(-1.70732e-05 -8.11863e-05 0.0989784)
(-4.96257e-05 -0.000173925 0.10292)
(-5.81751e-06 -3.17434e-05 0.095942)
(-4.13376e-05 -0.000197375 0.104717)
(-1.30497e-05 -4.20854e-05 0.0990717)
(-4.00994e-05 6.11862e-06 0.103024)
(-3.82025e-05 -3.82736e-05 0.100776)
(5.09199e-06 5.12045e-06 0.106764)
(-9.90823e-05 -0.000151045 0.104491)
(-0.000150891 -9.90567e-05 0.104489)
(-7.61505e-05 -7.6219e-05 0.100696)
(-5.7572e-05 1.04108e-05 0.104609)
(1.04181e-05 -5.75549e-05 0.104607)
(-0.000116287 6.94713e-05 0.105614)
(-0.00017562 -0.000175731 0.105239)
(-0.000116945 -6.98017e-05 0.105531)
(-6.98078e-05 -0.000116881 0.105531)
(-3.14486e-05 -3.14567e-05 0.105246)
(-0.000175774 0.000175666 0.105239)
(-0.000116322 -6.94968e-05 0.105614)
(-7.45141e-05 -7.45033e-05 0.105755)
(1.0131e-06 1.1529e-05 0.0744356)
(-0.000124137 4.60376e-05 0.099116)
(-0.000119339 2.49299e-05 0.105779)
(-0.000179126 1.09593e-05 0.1037)
(-7.23017e-05 -3.1105e-05 0.0932203)
(-3.10456e-05 -7.22397e-05 0.0932196)
(-0.000120119 2.50294e-05 0.105687)
(-0.000130141 1.20505e-05 0.103767)
(-0.000103407 5.0582e-06 0.0981852)
(-0.000120112 -2.5063e-05 0.105687)
(-8.68442e-05 -3.36704e-05 0.0992893)
(-0.000130054 -1.18927e-05 0.103767)
(-4.74316e-05 1.42589e-05 0.0872786)
(-0.000103224 -4.98405e-06 0.098185)
(-2.50297e-05 -0.000120096 0.105687)
(-3.36832e-05 -8.68538e-05 0.0992882)
(-1.1922e-05 -0.000130088 0.103767)
(1.42518e-05 -4.74048e-05 0.0872782)
(-4.97457e-06 -0.000103277 0.0981851)
(-6.25647e-05 -1.87982e-05 0.0933811)
(-1.88382e-05 -6.25286e-05 0.0933772)
(-2.55056e-06 6.82346e-06 0.0745636)
(6.81632e-06 -2.54481e-06 0.0745625)
(-3.13059e-05 7.23288e-05 0.0932174)
(-7.21646e-05 3.13923e-05 0.0932236)
(-1.14531e-05 -1.14778e-06 0.0744378)
(-6.55955e-05 -1.19588e-05 0.0871301)
(-0.000125734 4.75768e-06 0.0980534)
(-0.000119336 -2.49454e-05 0.105779)
(-0.000124166 -4.60164e-05 0.0991146)
(-0.000179164 -1.10665e-05 0.1037)
(-6.56005e-05 1.20149e-05 0.08713)
(-0.000125936 -5.0518e-06 0.0980535)
(-1.14718e-05 1.18821e-06 0.0744375)
(1.18203e-06 -1.14686e-05 0.0744371)
(6.61468e-06 2.54157e-06 0.0744661)
(-0.000137087 -0.000104769 0.101983)
(-4.68619e-05 2.16898e-07 0.0860488)
(-9.792e-05 -8.23475e-05 0.0978257)
(-0.00010478 -0.000137038 0.101986)
(1.8506e-07 -4.67824e-05 0.0860456)
(-8.24052e-05 -9.80721e-05 0.0978258)
(-3.29978e-06 -1.13779e-05 0.0714772)
(-1.14675e-05 -3.3598e-06 0.0714724)
(-4.7048e-05 -4.70941e-05 0.0891063)
(1.13218e-06 -5.89881e-06 0.0711091)
(-5.65213e-05 8.36828e-06 0.0917806)
(-7.47249e-05 8.96438e-06 0.0917889)
(9.14532e-06 -3.34528e-06 0.0711656)
(-2.00538e-05 -1.16648e-05 0.080671)
(-0.000129084 4.82744e-06 0.0981728)
(-8.72799e-05 1.07702e-05 0.0965318)
(-3.17331e-05 2.06841e-06 0.0828882)
(-0.000111287 1.03624e-05 0.096529)
(-4.18912e-05 1.85945e-06 0.0829265)
(-1.03051e-05 -9.72657e-06 0.0806607)
(1.0753e-06 5.97209e-06 0.0711134)
(-6.79596e-05 1.19732e-05 0.0872835)
(-5.67248e-05 -8.34595e-06 0.0917794)
(-7.48044e-05 -8.91594e-06 0.09179)
(9.31707e-06 3.43493e-06 0.0711649)
(-2.02267e-05 1.17283e-05 0.0806718)
(-0.000128872 -4.53899e-06 0.0981728)
(-3.17196e-05 -2.0788e-06 0.0828877)
(-8.70857e-05 -1.06862e-05 0.0965306)
(-4.19673e-05 -1.99784e-06 0.0829265)
(-0.000110986 -1.03307e-05 0.0965294)
(-1.01771e-05 9.81988e-06 0.0806583)
(5.92787e-06 1.06179e-06 0.0711135)
(1.19507e-05 -6.78806e-05 0.0872832)
(-8.35391e-06 -5.66572e-05 0.0917789)
(-8.93258e-06 -7.47635e-05 0.0917899)
(3.41163e-06 9.29873e-06 0.0711648)
(1.17003e-05 -2.02113e-05 0.0806716)
(-4.62578e-06 -0.000128926 0.0981723)
(-1.07008e-05 -8.71018e-05 0.0965302)
(-2.08918e-06 -3.17173e-05 0.0828876)
(-1.03516e-05 -0.000111078 0.0965291)
(-1.96221e-06 -4.19508e-05 0.0829262)
(9.7866e-06 -1.01956e-05 0.0806581)
(-9.87647e-05 -8.37205e-05 0.0979645)
(-9.00322e-05 -7.9774e-05 0.102095)
(-7.41386e-05 -3.22397e-05 0.0933799)
(-3.83988e-05 5.48568e-06 0.0861853)
(-6.85485e-05 -7.12643e-05 0.0979826)
(-0.000138989 -0.00010485 0.102033)
(-4.84126e-05 -9.52194e-07 0.0861816)
(-8.35602e-05 -9.85308e-05 0.097964)
(-7.95938e-05 -8.98582e-05 0.102089)
(-3.23696e-05 -7.41839e-05 0.0933791)
(5.60185e-06 -3.82522e-05 0.0861769)
(-7.09735e-05 -6.82937e-05 0.0979707)
(-0.000104797 -0.000138936 0.102035)
(-1.04956e-06 -4.86664e-05 0.0861778)
(-4.73315e-05 -4.73315e-05 0.0893005)
(1.43655e-06 -5.78303e-06 0.0715929)
(-5.74396e-06 1.50163e-06 0.0715839)
(-4.01878e-05 -4.01948e-05 0.0892652)
(-2.07285e-06 -1.2143e-05 0.0715673)
(-1.21869e-05 -2.12633e-06 0.0715621)
(-1.15685e-05 1.13245e-06 0.0745378)
(1.11266e-06 -1.15499e-05 0.0745374)
(-6.89612e-05 6.71357e-05 0.0978403)
(-0.000104835 0.00013694 0.101979)
(8.57281e-07 4.65195e-05 0.0860434)
(-1.78744e-05 6.09045e-05 0.093222)
(5.55398e-06 3.74866e-05 0.0860482)
(-8.2564e-05 9.76162e-05 0.0978175)
(-7.90096e-05 8.84008e-05 0.102045)
(-6.74488e-05 6.90819e-05 0.0978347)
(-0.000136854 0.000104815 0.101991)
(-4.6372e-05 -7.34678e-07 0.0860527)
(-6.06385e-05 1.76069e-05 0.0932206)
(-8.83206e-05 7.8976e-05 0.102037)
(-9.76422e-05 8.26378e-05 0.0978356)
(-3.70182e-05 -5.75438e-06 0.0860503)
(-3.84896e-05 3.84656e-05 0.0890734)
(-1.0873e-05 2.92338e-06 0.071473)
(-2.82054e-06 1.10488e-05 0.0714807)
(-5.50833e-06 -2.75728e-07 0.0714952)
(-4.82784e-05 4.82569e-05 0.0891074)
(2.50749e-07 5.59159e-06 0.0715012)
(-2.39935e-06 -6.74699e-06 0.0744641)
(8.42018e-06 -3.03543e-06 0.0710917)
(-7.23402e-05 8.88915e-06 0.0916051)
(-4.51905e-05 -1.426e-05 0.0871276)
(-5.43736e-05 8.30443e-06 0.0915986)
(2.84105e-07 -5.64775e-06 0.0710358)
(-8.5871e-06 -9.82e-06 0.0805139)
(-0.000100402 5.13837e-06 0.0980656)
(-0.000108312 1.05117e-05 0.0963754)
(-3.83067e-05 1.58915e-06 0.0827429)
(-8.46209e-05 1.08293e-05 0.0963785)
(-1.84976e-05 -1.18314e-05 0.0805211)
(-2.80925e-05 1.73615e-06 0.0827083)
(8.39584e-06 3.02352e-06 0.071091)
(-7.24453e-05 -8.91777e-06 0.091606)
(-4.51244e-05 1.42665e-05 0.0871267)
(1.9771e-07 5.55862e-06 0.0710402)
(-5.4177e-05 -8.25811e-06 0.0915975)
(-8.55536e-06 9.75119e-06 0.0805117)
(-0.000100673 -5.26912e-06 0.0980649)
(-3.82274e-05 -1.4124e-06 0.082743)
(-0.000108692 -1.05439e-05 0.0963757)
(-1.84234e-05 1.17983e-05 0.080522)
(-2.80573e-05 -1.64066e-06 0.0827081)
(-8.48598e-05 -1.08675e-05 0.0963769)
(-0.000142218 -0.000183902 0.104523)
(-0.000183759 -0.000142234 0.104525)
(-0.000131496 -0.000131621 0.102818)
(-0.00013191 -0.000131925 0.102848)
(-0.000175485 -0.000175575 0.105173)
(-9.92527e-05 -1.62172e-05 0.10457)
(-1.61741e-05 -9.91593e-05 0.104568)
(-8.75472e-05 -8.75578e-05 0.10293)
(-0.00014281 -0.000183051 0.104487)
(-0.000182924 -0.000142769 0.104488)
(-8.66829e-05 8.66171e-05 0.1029)
(-0.000183691 0.000142292 0.104522)
(-0.000142233 0.000183635 0.104526)
(-3.02951e-05 3.03128e-05 0.105315)
(-9.83054e-05 1.55138e-05 0.104605)
(-0.000131559 0.000131517 0.102818)
(-1.56521e-05 9.83599e-05 0.104609)
(-7.51757e-05 2.48053e-05 0.105791)
(-2.52103e-05 2.52043e-05 0.105796)
(-7.51885e-05 -2.48116e-05 0.105791)
(-2.47988e-05 -7.51822e-05 0.105791)
(-2.52099e-05 -2.52213e-05 0.105796)
(-3.11855e-05 5.62219e-05 0.104665)
(-0.000238606 8.02511e-05 0.103767)
(-0.000152417 4.68476e-05 0.101652)
(-8.48516e-05 3.23171e-05 0.0991902)
(-0.000245706 5.7546e-05 0.10455)
(-2.40887e-05 6.98253e-05 0.103869)
(-0.000103663 4.48182e-05 0.101746)
(-4.90926e-05 3.28567e-05 0.105068)
(-0.000127958 1.19025e-05 0.103779)
(-0.000171685 3.02285e-05 0.103136)
(-0.000236897 1.24788e-05 0.105144)
(-0.000240424 3.1977e-05 0.104975)
(-0.00012037 3.19201e-05 0.103223)
(-5.6419e-05 1.3587e-05 0.105221)
(-0.000246244 5.76451e-05 0.104512)
(-0.000105768 4.5723e-05 0.101806)
(-3.30069e-05 5.62152e-05 0.104623)
(-0.000154824 4.75408e-05 0.101713)
(-0.00024082 3.19633e-05 0.104919)
(-0.000181408 1.10194e-05 0.103689)
(-0.000122502 3.21887e-05 0.103236)
(-5.81377e-05 1.35658e-05 0.105155)
(-5.08515e-05 3.27981e-05 0.105009)
(-0.000173972 3.04387e-05 0.10315)
(-0.000237348 1.24742e-05 0.105079)
(-0.000246333 -5.7641e-05 0.104512)
(-2.58173e-05 -7.02354e-05 0.103857)
(-0.000126568 -4.73066e-05 0.0992135)
(-0.000105724 -4.57259e-05 0.101806)
(-0.000154818 -4.7591e-05 0.101713)
(-0.000239929 -8.04689e-05 0.103754)
(-3.30794e-05 -5.63267e-05 0.104623)
(-0.00024073 -3.19462e-05 0.104919)
(-0.000181357 -1.08597e-05 0.103689)
(-5.81113e-05 -1.35597e-05 0.105154)
(-0.000122395 -3.22531e-05 0.103236)
(-0.000237307 -1.24529e-05 0.105079)
(-0.00017389 -3.04413e-05 0.10315)
(-5.07651e-05 -3.28513e-05 0.105009)
(-5.7587e-05 -0.000246266 0.104511)
(-7.01584e-05 -2.5777e-05 0.103855)
(-4.72979e-05 -0.00012661 0.0992133)
(-4.57483e-05 -0.000105719 0.101806)
(-4.76111e-05 -0.000154838 0.101713)
(-8.0384e-05 -0.000239899 0.103754)
(-5.62648e-05 -3.30323e-05 0.104623)
(-3.19415e-05 -0.000240815 0.104918)
(-1.09313e-05 -0.000181373 0.103688)
(-1.35591e-05 -5.81421e-05 0.105155)
(-3.22399e-05 -0.000122418 0.103236)
(-1.24654e-05 -0.000237342 0.105079)
(-3.04622e-05 -0.000173933 0.10315)
(-3.28264e-05 -5.08408e-05 0.105009)
(-3.11589e-05 -5.60377e-05 0.104665)
(-0.000238526 -8.03604e-05 0.103766)
(-0.000152437 -4.67216e-05 0.101652)
(-8.51009e-05 -3.23551e-05 0.0991903)
(-2.41521e-05 -6.95454e-05 0.10387)
(-0.000245721 -5.75805e-05 0.10455)
(-0.000103695 -4.47292e-05 0.101746)
(-4.91048e-05 -3.27713e-05 0.105068)
(-0.000128058 -1.20831e-05 0.103779)
(-0.000236944 -1.2514e-05 0.105144)
(-0.000171767 -3.02224e-05 0.103136)
(-5.64744e-05 -1.35968e-05 0.105221)
(-0.000240443 -3.19924e-05 0.104975)
(-0.000120479 -3.18532e-05 0.103222)
(-0.000113917 6.8239e-05 0.105938)
(-2.75024e-05 6.45799e-05 0.0926155)
(-2.57603e-05 6.11785e-05 0.0923326)
(-0.000116414 -2.44447e-05 0.106138)
(-0.000113884 -5.33266e-06 0.0975683)
(-0.000112832 6.78279e-05 0.106095)
(-0.000115056 -2.41518e-05 0.106314)
(-5.28131e-05 1.06048e-05 0.0862855)
(-7.31043e-05 7.30453e-05 0.106135)
(6.94763e-05 -0.000116271 0.105615)
(-7.2395e-05 7.23714e-05 0.106322)
(6.8223e-05 -0.000113875 0.105938)
(-0.000174794 -0.000175175 0.105491)
(2.64673e-05 2.65167e-05 0.105512)
(-6.95571e-05 0.000116373 0.105614)
(6.85667e-05 0.000114521 0.105859)
(-2.84585e-05 7.9499e-05 0.0988892)
(-1.49335e-05 5.50346e-05 0.0927702)
(0.000116332 -6.9541e-05 0.105614)
(0.000114447 6.85194e-05 0.105859)
(0.000114546 -6.85921e-05 0.105858)
(-0.00011461 6.86628e-05 0.105859)
(-0.000117119 -2.45343e-05 0.106049)
(-9.1837e-05 -5.41566e-06 0.0977002)
(0.000175458 -0.000175472 0.10524)
(2.64979e-05 -2.64524e-05 0.105511)
(-6.94384e-05 -0.000116242 0.105615)
(6.85445e-05 -0.000114492 0.105859)
(-6.86814e-05 -0.000114506 0.105859)
(-2.6041e-05 -2.63269e-05 0.105511)
(-1.84204e-06 6.3723e-06 0.0741871)
(0.000174974 0.00017497 0.105491)
(6.83427e-05 0.000113981 0.105938)
(-4.07993e-05 0.000115857 0.0987113)
(-3.84258e-05 0.000111639 0.0985065)
(0.000113892 6.82722e-05 0.105938)
(0.000113927 -6.82989e-05 0.105938)
(0.000175338 -0.000175402 0.105491)
(-6.84261e-05 -0.00011397 0.105938)
(-1.52426e-06 6.08075e-06 0.074016)
(-0.000174646 -0.000174629 0.105609)
(-1.04718e-05 3.85727e-07 0.0739007)
(6.66613e-07 1.06907e-05 0.0740673)
(6.18478e-06 1.69557e-06 0.0740177)
(-0.000116421 2.43675e-05 0.106138)
(-0.00017083 1.11817e-05 0.103718)
(-0.000115892 4.08695e-05 0.098712)
(-0.0001134 6.81437e-05 0.106017)
(-0.000115737 2.42436e-05 0.106226)
(-0.000117971 1.17588e-05 0.103798)
(-7.55074e-05 2.61741e-05 0.0986834)
(-0.000174986 0.000174872 0.105491)
(-6.46942e-05 2.78638e-05 0.092618)
(-1.33771e-05 5.15128e-05 0.0924828)
(-2.40449e-05 2.37538e-05 0.105636)
(-5.12733e-05 1.31406e-05 0.0924789)
(-1.07312e-05 -6.11961e-07 0.0740685)
(-1.67948e-06 -6.20365e-06 0.0740152)
(4.83759e-07 1.04304e-05 0.0738989)
(-0.000174865 0.000174443 0.105608)
(-6.11069e-05 2.5754e-05 0.0923347)
(-1.04908e-05 -3.82198e-07 0.0739003)
(-0.000114205 5.58808e-06 0.0975681)
(-5.67562e-05 -1.11886e-05 0.0865527)
(-8.6366e-05 5.69982e-06 0.0974549)
(-3.4228e-05 -1.31386e-05 0.0864225)
(-0.000170715 -1.08667e-05 0.103718)
(-0.000115717 -2.43033e-05 0.106226)
(-0.000113957 -6.83472e-05 0.105938)
(-0.000113363 -6.8026e-05 0.106017)
(-7.58512e-05 -2.61877e-05 0.0986844)
(-0.000115671 -4.09368e-05 0.0987116)
(-0.000118081 -1.19604e-05 0.103797)
(-3.41102e-05 1.3069e-05 0.0864222)
(-5.6808e-05 1.12826e-05 0.0865529)
(-8.65545e-05 -5.65631e-06 0.0974543)
(-0.00011508 2.4062e-05 0.106314)
(-0.000166661 1.1007e-05 0.103712)
(-0.000111591 3.84496e-05 0.0985072)
(-0.000108516 5.66261e-06 0.0973226)
(-5.27853e-05 -1.06082e-05 0.0862853)
(-0.000112816 -6.7783e-05 0.106095)
(-0.000111705 -3.85834e-05 0.098507)
(-0.00016666 -1.09138e-05 0.103712)
(-0.000108321 -5.35824e-06 0.0973226)
(5.32144e-06 9.78294e-05 0.0979455)
(4.88717e-06 0.000125483 0.0980527)
(-1.40725e-05 4.27645e-05 0.0869792)
(6.5385e-06 2.19285e-06 0.0743704)
(9.74896e-05 5.38153e-06 0.0979447)
(4.27055e-05 -1.40479e-05 0.0869785)
(-7.38507e-05 -2.45001e-05 0.106186)
(7.41686e-05 7.41739e-05 0.105851)
(-7.41838e-05 7.41523e-05 0.105851)
(7.41311e-05 -7.41624e-05 0.105851)
(-7.41673e-05 -7.41543e-05 0.105851)
(7.30993e-05 7.31219e-05 0.106135)
(7.30883e-05 -7.31009e-05 0.106135)
(-0.000126002 1.21573e-05 0.103788)
(-0.000115738 6.91604e-05 0.105697)
(-8.32233e-05 3.10237e-05 0.0990903)
(-0.000118593 2.47683e-05 0.10587)
(1.14046e-05 1.09926e-06 0.0744367)
(2.25001e-06 6.71945e-06 0.0743679)
(1.20299e-05 -0.000125978 0.103788)
(2.49159e-05 -0.00011933 0.105779)
(4.59945e-05 -0.000124346 0.0991153)
(6.91694e-05 -0.000115659 0.105697)
(1.10188e-05 -0.000179155 0.103699)
(2.48362e-05 -0.000118566 0.10587)
(3.10443e-05 -8.29155e-05 0.0990912)
(-2.88984e-05 -2.89568e-05 0.105381)
(-5.8551e-05 -1.69999e-05 0.0930691)
(-1.70845e-05 -5.8615e-05 0.093065)
(5.72345e-06 8.65843e-05 0.0974561)
(-1.12008e-05 5.67566e-05 0.0865529)
(5.39884e-06 0.000114163 0.0975673)
(-1.31703e-05 3.42604e-05 0.0864228)
(8.66482e-05 5.60067e-06 0.0974551)
(5.67386e-05 -1.12126e-05 0.0865529)
(0.000113999 5.52952e-06 0.0975678)
(3.42202e-05 -1.31665e-05 0.0864221)
(-7.35289e-05 -2.44335e-05 0.106283)
(7.27151e-05 7.27207e-05 0.106229)
(7.27821e-05 -7.27866e-05 0.106229)
(1.08947e-05 7.4835e-07 0.074068)
(1.54878e-06 6.11449e-06 0.074015)
(1.1837e-05 -0.000118128 0.103798)
(2.44353e-05 -0.000116398 0.106138)
(4.0907e-05 -0.00011558 0.0987123)
(6.79423e-05 -0.000113304 0.106017)
(1.09955e-05 -0.000170807 0.103718)
(2.42476e-05 -0.000115707 0.106226)
(2.62772e-05 -7.59047e-05 0.098685)
(-2.3815e-05 -2.37529e-05 0.105636)
(-5.14385e-05 -1.36159e-05 0.092482)
(-6.46429e-05 -2.76216e-05 0.0926172)
(-2.77624e-05 -6.45421e-05 0.0926156)
(-1.34267e-05 -5.15351e-05 0.0924792)
(-6.51239e-06 2.12554e-06 0.0743693)
(2.0987e-06 -6.49725e-06 0.0743676)
(2.87814e-05 2.87376e-05 0.105382)
(1.68524e-05 5.86939e-05 0.0930687)
(5.86593e-05 1.68804e-05 0.0930654)
(-6.31732e-06 1.83933e-06 0.0741875)
(-8.6929e-07 1.10594e-05 0.0742476)
(1.80824e-06 -6.33909e-06 0.0741859)
(1.10554e-05 -8.49218e-07 0.0742464)
(0.000175317 0.0001752 0.105368)
(1.48641e-05 5.49903e-05 0.092769)
(5.50562e-05 1.48958e-05 0.0927657)
(2.96355e-05 6.82583e-05 0.092914)
(6.81894e-05 2.95896e-05 0.0929117)
(-5.41188e-06 9.77996e-05 0.0979446)
(1.18701e-05 6.55552e-05 0.0871287)
(-4.98174e-06 0.000125606 0.0980529)
(1.40611e-05 4.27325e-05 0.0869792)
(1.19695e-05 0.000126097 0.103788)
(2.49548e-05 0.000119349 0.105779)
(6.91862e-05 0.000115744 0.105697)
(1.09937e-05 0.000179047 0.103699)
(3.09908e-05 8.33665e-05 0.0990913)
(2.47876e-05 0.000118587 0.105869)
(-1.1991e-05 0.000126085 0.103788)
(-4.60711e-05 0.000124125 0.099113)
(-2.49447e-05 0.000119355 0.105779)
(-6.92305e-05 0.000115739 0.105697)
(-1.10841e-05 0.000179086 0.103699)
(-3.09828e-05 8.32711e-05 0.0990905)
(-2.47757e-05 0.000118601 0.105869)
(5.18495e-06 0.000119592 0.0978113)
(-1.36961e-05 3.83736e-05 0.0866939)
(-1.16718e-05 6.09911e-05 0.0868342)
(5.62208e-06 9.23362e-05 0.0977018)
(1.36913e-05 3.8295e-05 0.0866941)
(-5.36086e-06 0.000119781 0.0978115)
(1.17349e-05 6.09819e-05 0.0868331)
(-5.54732e-06 9.21792e-05 0.0977012)
(1.0998e-05 0.000174921 0.103714)
(6.89192e-05 0.000115164 0.105778)
(2.84327e-05 7.9489e-05 0.0988893)
(2.45768e-05 0.000117123 0.106049)
(4.33737e-05 0.000120069 0.0989147)
(2.46908e-05 0.000117851 0.10596)
(1.19794e-05 0.000122033 0.103798)
(-6.86359e-05 0.000114572 0.105859)
(-1.11338e-05 0.000174969 0.103714)
(-6.90049e-05 0.000115181 0.105778)
(-2.45065e-05 0.000117134 0.106049)
(-4.33509e-05 0.000119921 0.0989132)
(-2.46675e-05 0.000117854 0.10596)
(-1.18792e-05 0.000121975 0.103799)
(-2.87806e-05 2.88053e-05 0.105381)
(-1.68305e-05 5.85723e-05 0.0930685)
(-5.86581e-05 1.69972e-05 0.0930663)
(-2.14731e-06 -6.5022e-06 0.0743687)
(6.35031e-06 1.86521e-06 0.0741887)
(9.64545e-07 1.10371e-05 0.0742454)
(-2.62977e-05 2.61771e-05 0.105512)
(-5.49919e-05 1.50088e-05 0.0927645)
(-0.00017541 0.000175342 0.105368)
(-2.93627e-05 6.82069e-05 0.0929093)
(-6.82257e-05 2.96621e-05 0.0929154)
(-1.82959e-06 -6.37312e-06 0.0741862)
(-1.11151e-05 -9.12023e-07 0.0742471)
(0.000125931 1.20242e-05 0.103788)
(0.000115673 6.91832e-05 0.105697)
(8.33408e-05 3.09861e-05 0.0990899)
(0.000118577 2.47511e-05 0.10587)
(9.75319e-05 -5.364e-06 0.0979449)
(6.55933e-05 1.20098e-05 0.0871293)
(0.000125761 -4.87017e-06 0.0980526)
(4.27635e-05 1.41091e-05 0.0869784)
(0.000125923 -1.2003e-05 0.103788)
(0.000119341 -2.49062e-05 0.105779)
(0.00012434 -4.59537e-05 0.0991137)
(0.000115721 -6.92288e-05 0.105697)
(0.000179115 -1.09772e-05 0.1037)
(0.000118582 -2.48301e-05 0.10587)
(8.29272e-05 -3.1072e-05 0.0990898)
(0.000119776 5.28025e-06 0.0978119)
(3.8335e-05 -1.37121e-05 0.0866933)
(6.09543e-05 -1.16338e-05 0.0868343)
(9.20316e-05 5.6076e-06 0.0977008)
(0.000174877 1.10825e-05 0.103714)
(0.000115094 6.88969e-05 0.105778)
(7.94826e-05 2.84561e-05 0.098888)
(0.000117098 2.45253e-05 0.106049)
(0.00012004 4.33462e-05 0.0989146)
(0.000117835 2.46486e-05 0.10596)
(0.000122009 1.19405e-05 0.103798)
(0.000119633 -5.24945e-06 0.0978112)
(3.82645e-05 1.36322e-05 0.0866931)
(6.1127e-05 1.17881e-05 0.0868336)
(9.21398e-05 -5.56285e-06 0.097701)
(0.000174826 -1.10426e-05 0.103714)
(0.000115094 -6.88611e-05 0.105778)
(0.000117112 -2.45366e-05 0.106049)
(7.9346e-05 -2.85968e-05 0.0988879)
(0.000117835 -2.46722e-05 0.10596)
(0.00011991 -4.33325e-05 0.0989136)
(0.000122042 -1.194e-05 0.103798)
(-9.77048e-05 5.52958e-06 0.0979444)
(-4.26765e-05 -1.40068e-05 0.0869795)
(-0.000125894 -1.18758e-05 0.103788)
(-0.000115744 -6.92231e-05 0.105697)
(-0.000118587 -2.48076e-05 0.10587)
(-8.30387e-05 -3.10187e-05 0.0990907)
(-9.7385e-05 -5.22017e-06 0.0979442)
(-4.26929e-05 1.4032e-05 0.0869786)
(-0.000117128 2.45238e-05 0.106049)
(-0.000121934 1.20168e-05 0.103798)
(-7.93606e-05 2.84379e-05 0.0988873)
(-0.000174945 1.10975e-05 0.103714)
(-0.000115153 6.89023e-05 0.105778)
(-0.000119904 4.34357e-05 0.0989156)
(-0.000117851 2.46641e-05 0.10596)
(-9.20351e-05 5.79881e-06 0.0977008)
(-3.83067e-05 -1.36836e-05 0.0866936)