/*--------------------------------*- C++ -*----------------------------------*\
| =========                 |                                                 |
| \\      /  F ield         | OpenFOAM: The Open Source CFD Toolbox           |
|  \\    /   O peration     | Version:  v2006                                 |
|   \\  /    A nd           | Website:  www.openfoam.com                      |
|    \\/     M anipulation  |                                                 |
\*---------------------------------------------------------------------------*/
FoamFile
{
    version     2.0;
    format      ascii;
    class       volScalarField;
    location    "375";
    object      nut;
}
// * * * * * * * * * * * * * * * * * * * * * * * * * * * * * * * * * * * * * //

dimensions      [0 2 -1 0 0 0 0];


internalField   nonuniform List<scalar> 
14212
(
9.84407e-05
5.05436e-05
2.38047e-05
5.05397e-05
0.000186013
0.000101819
2.38069e-05
2.38051e-05
0.000171961
7.72012e-05
7.71961e-05
9.84369e-05
5.05388e-05
0.000139506
0.000186026
0.000101826
0.000191312
0.0001395
0.000185986
0.000101803
0.000191302
0.000171942
7.71839e-05
7.71975e-05
2.38059e-05
0.000186029
0.000101816
5.05406e-05
3.65708e-05
9.83938e-05
4.08928e-05
9.33465e-05
4.08892e-05
9.33059e-05
3.6574e-05
2.02451e-05
7.8544e-05
5.05389e-05
7.85199e-05
2.0247e-05
2.38026e-05
5.05358e-05
2.38044e-05
2.38034e-05
8.10356e-05
2.16398e-05
2.16378e-05
2.16364e-05
2.16357e-05
8.10404e-05
0.000103785
4.84687e-05
7.71724e-05
0.000125676
4.84621e-05
0.000103834
0.000125567
0.000103753
7.71673e-05
4.84563e-05
0.000125653
4.84564e-05
0.000103806
0.000125553
3.65686e-05
9.83907e-05
4.08927e-05
9.33345e-05
4.08892e-05
9.32964e-05
3.65718e-05
2.02435e-05
7.85247e-05
5.05343e-05
7.85008e-05
2.02454e-05
2.16374e-05
2.16403e-05
8.10437e-05
0.000103755
4.84558e-05
7.71548e-05
0.000125635
4.84515e-05
0.000125533
0.000103808
4.84665e-05
0.000125669
0.000103814
0.000181759
0.000172777
0.000181752
0.000172779
0.000142319
0.00013452
0.00017178
0.000154996
0.000154967
0.000134637
0.000154888
0.000154865
0.000162687
0.000139366
0.000133588
0.000167219
0.000133462
0.000167092
0.0001628
0.000153821
0.000119868
0.000101756
0.000142324
0.000119762
0.000142241
0.000153938
0.00016267
0.000139361
0.000133572
0.000167213
0.000133447
0.000167085
0.000162783
0.000153796
0.000119846
0.000101734
0.00014229
0.000119741
0.000153911
0.000142209
0.000134512
0.000171763
0.000154955
0.000154982
0.000154878
0.00015485
0.00013463
0.000101747
0.000142314
0.000142233
8.10369e-05
2.16355e-05
2.16384e-05
0.000103766
7.71709e-05
0.000125569
4.84623e-05
2.38037e-05
5.05361e-05
0.000101753
0.000142239
0.000131683
0.000165244
9.57839e-05
0.000131681
0.000165135
0.000165246
9.84938e-05
9.57826e-05
5.02785e-05
0.000165139
9.84882e-05
5.0277e-05
0.000156642
7.57924e-05
7.57884e-05
2.37037e-05
2.37028e-05
3.64152e-05
9.11992e-05
4.07046e-05
9.58489e-05
3.64119e-05
9.12638e-05
4.07082e-05
3.6414e-05
4.0705e-05
9.1201e-05
9.58475e-05
3.64108e-05
4.07087e-05
9.12552e-05
2.01689e-05
7.74804e-05
5.02837e-05
2.0167e-05
7.75142e-05
5.02822e-05
8.01837e-05
2.15614e-05
2.15582e-05
8.01679e-05
2.15633e-05
2.15601e-05
0.000101237
4.82169e-05
0.000120202
7.58358e-05
0.000101158
0.000120349
4.82222e-05
0.000101241
4.82058e-05
0.000120188
7.58317e-05
0.000101161
0.000120331
4.8211e-05
2.3706e-05
2.3705e-05
0.000151357
0.000149723
0.000126738
0.000152847
0.000131866
0.000149588
0.000126904
0.000153004
0.000149719
0.000152846
0.000126733
0.000131865
0.000149583
0.000153003
0.000126899
0.000143131
0.000114724
0.000133734
9.85958e-05
0.000142989
0.000114876
0.000133847
0.000133722
9.85903e-05
0.000133836
0.000128468
0.000156835
0.0001442
0.000144191
0.00012829
0.000144342
0.000144333
2.01697e-05
7.74918e-05
2.01677e-05
7.75273e-05
0.000143139
0.000114731
0.000142997
0.000114883
7.85382e-05
2.02469e-05
0.00011986
0.000153932
9.83138e-05
0.000139122
0.000171194
0.00018991
0.000184936
9.83211e-05
9.83195e-05
0.000171185
2.37995e-05
0.000180844
0.000185496
0.000190653
0.000171387
0.000189163
0.000189161
0.000171175
0.00018493
0.000189919
5.05242e-05
7.71389e-05
0.000185481
0.000190605
0.000171382
0.000101673
9.83171e-05
0.000139168
0.000190637
5.05263e-05
0.000171409
0.000185495
9.83265e-05
9.83337e-05
2.38e-05
0.000169774
0.000169783
0.000170752
0.000170714
5.05278e-05
9.83202e-05
0.000184352
0.000101672
0.000139125
0.000184922
0.00018988
0.000189164
5.05225e-05
0.000184908
0.000189884
0.000101662
0.000184321
0.00018916
2.37985e-05
7.71308e-05
7.71485e-05
2.38e-05
0.000184942
0.000139129
0.000101682
0.000184353
0.00018918
0.000189911
0.000139126
0.000101661
0.000184359
0.000189186
0.000101503
5.05266e-05
5.05228e-05
5.05113e-05
7.71346e-05
7.71307e-05
0.000170595
7.70681e-05
7.70644e-05
2.37945e-05
2.37985e-05
2.37936e-05
9.81944e-05
5.05315e-05
9.83305e-05
2.37998e-05
5.05299e-05
9.83275e-05
0.000171709
0.000171765
0.00017174
0.000190634
0.000139503
0.000101677
0.000139177
0.000191308
2.3799e-05
0.000185525
0.000139178
0.000101687
7.71352e-05
7.71315e-05
0.000171931
7.71904e-05
7.7185e-05
2.38006e-05
2.37953e-05
2.38008e-05
0.000170592
7.71429e-05
0.000171183
7.71336e-05
7.70674e-05
9.81908e-05
0.000138742
0.000138737
9.82009e-05
5.05294e-05
5.05171e-05
9.8321e-05
9.81978e-05
5.05256e-05
5.0514e-05
9.83176e-05
0.000184324
0.000184896
0.000189879
0.000138788
0.000101669
0.000101511
0.000139124
0.000189877
0.00018489
0.000184315
0.000138784
0.000101654
0.000101495
0.000139119
2.37993e-05
2.37943e-05
0.000170583
7.71265e-05
7.71396e-05
7.70576e-05
7.70709e-05
2.38005e-05
2.37956e-05
0.000189912
0.000184355
0.00018919
0.000138791
0.000101673
0.000101512
0.000139128
9.82038e-05
5.05275e-05
5.05157e-05
9.8321e-05
0.00018493
0.000101666
0.000189197
0.000184356
0.000101509
0.00013879
0.000139126
5.05127e-05
9.82032e-05
9.83188e-05
2.38011e-05
2.38014e-05
0.000171399
7.71354e-05
5.05277e-05
9.83275e-05
0.000190611
0.000101675
0.000139174
0.000185459
0.000101658
0.000139169
7.7125e-05
7.71409e-05
2.38011e-05
0.000139173
0.000185506
0.000190626
5.05246e-05
0.000185493
0.000190627
0.000101665
9.84404e-05
5.05296e-05
9.83354e-05
0.000185485
0.00010167
0.0001395
0.000185986
0.000139176
0.000191304
0.000101809
9.84378e-05
9.83341e-05
5.05374e-05
7.71293e-05
7.71494e-05
2.38006e-05
0.000190645
0.000139176
0.000101665
0.000185998
0.000101804
5.05286e-05
5.05249e-05
5.05359e-05
2.38049e-05
2.37991e-05
2.38039e-05
3.65589e-05
4.08814e-05
9.32382e-05
9.82517e-05
4.08778e-05
9.3187e-05
3.65622e-05
3.65614e-05
9.32466e-05
4.08819e-05
9.82599e-05
9.31936e-05
4.08782e-05
3.65646e-05
3.65596e-05
9.32404e-05
4.08818e-05
9.82674e-05
9.31972e-05
4.08782e-05
3.65628e-05
2.37973e-05
2.02397e-05
5.05196e-05
7.84815e-05
7.84545e-05
2.02417e-05
0.000103783
0.00012544
4.84575e-05
7.71767e-05
0.000103725
4.84595e-05
0.00012556
3.65666e-05
4.0883e-05
9.32396e-05
9.83761e-05
3.65634e-05
4.08865e-05
9.32875e-05
2.02438e-05
7.8479e-05
5.05308e-05
2.02419e-05
7.85038e-05
3.6569e-05
9.32466e-05
4.08834e-05
9.83839e-05
3.65658e-05
9.3296e-05
4.08869e-05
3.65672e-05
9.32497e-05
4.08833e-05
9.83824e-05
3.6564e-05
9.32898e-05
4.08869e-05
2.38022e-05
2.02408e-05
5.05231e-05
7.85005e-05
7.8471e-05
2.02428e-05
3.65615e-05
9.32494e-05
4.08819e-05
9.82619e-05
9.32033e-05
4.08783e-05
3.65647e-05
2.02393e-05
7.84804e-05
5.05179e-05
7.84527e-05
2.02413e-05
2.37963e-05
0.000103648
0.000125402
4.84437e-05
7.70964e-05
0.000125281
4.84393e-05
0.000103709
8.10117e-05
2.16331e-05
2.16365e-05
2.16313e-05
2.16347e-05
8.10199e-05
0.000103642
0.00012543
4.84558e-05
7.71157e-05
4.84513e-05
0.00012531
0.000103703
2.37979e-05
2.02404e-05
7.84981e-05
5.0522e-05
7.84685e-05
2.02425e-05
2.02394e-05
7.84817e-05
5.05182e-05
7.84545e-05
2.02414e-05
2.02392e-05
5.05161e-05
7.84281e-05
2.02372e-05
7.84566e-05
0.000103638
0.000125412
4.8454e-05
7.71022e-05
4.84496e-05
0.000103695
0.000125295
8.09972e-05
2.16357e-05
2.16325e-05
2.16338e-05
2.16307e-05
8.10056e-05
0.000103635
0.000125392
4.84427e-05
7.7099e-05
0.000125277
4.84382e-05
0.000103694
0.000103633
7.71019e-05
0.000125161
4.84429e-05
4.84477e-05
0.000125277
0.000103576
8.09843e-05
2.16317e-05
2.16288e-05
2.16336e-05
2.16304e-05
8.09747e-05
0.00010363
7.70975e-05
0.000125142
4.84318e-05
0.000125256
4.84364e-05
0.000103569
2.37967e-05
2.37963e-05
2.37958e-05
3.65527e-05
4.08721e-05
9.31475e-05
9.81383e-05
4.08684e-05
9.30994e-05
3.65559e-05
2.02446e-05
7.84951e-05
5.05365e-05
2.02426e-05
7.85222e-05
3.65694e-05
9.83836e-05
4.08841e-05
9.32549e-05
3.65662e-05
4.08877e-05
9.32993e-05
2.3802e-05
2.02446e-05
7.84959e-05
5.05342e-05
2.0243e-05
7.85223e-05
3.65689e-05
9.3256e-05
4.08835e-05
9.83824e-05
3.6566e-05
9.32977e-05
4.0887e-05
2.38011e-05
0.000103752
0.00012543
4.8456e-05
7.71643e-05
0.000103699
0.000125539
4.84604e-05
8.10239e-05
2.16359e-05
2.16328e-05
8.10164e-05
2.16379e-05
2.16346e-05
0.000103753
0.000125412
4.84445e-05
7.71599e-05
0.000103698
0.00012552
4.84489e-05
8.10313e-05
2.16399e-05
2.16368e-05
2.16378e-05
2.16349e-05
8.10393e-05
0.000103753
7.71641e-05
4.84663e-05
0.000125655
0.000125555
4.8462e-05
0.000103802
0.000103755
7.71595e-05
4.8455e-05
0.000125635
0.000125537
4.84507e-05
0.000103804
2.37984e-05
2.37975e-05
2.37987e-05
0.000103659
7.71074e-05
0.000125429
4.84566e-05
0.000125309
4.84522e-05
0.000103714
0.000103625
0.000125385
7.71031e-05
4.84437e-05
4.84386e-05
0.000125274
0.000103683
0.000103619
0.000125137
4.84314e-05
7.71009e-05
0.000103553
4.84364e-05
0.000125247
8.10033e-05
2.16357e-05
2.16339e-05
2.16321e-05
2.16341e-05
8.10124e-05
3.65507e-05
4.0872e-05
9.31328e-05
9.81353e-05
4.08683e-05
9.30908e-05
3.65539e-05
3.65605e-05
4.08737e-05
9.315e-05
9.82572e-05
3.65572e-05
4.08774e-05
9.3198e-05
2.02404e-05
5.05244e-05
7.84996e-05
2.02424e-05
7.84698e-05
2.02402e-05
7.84442e-05
5.05219e-05
2.02382e-05
7.84737e-05
3.65617e-05
9.82654e-05
4.08826e-05
9.32495e-05
3.6565e-05
4.08789e-05
9.32024e-05
3.65585e-05
4.08736e-05
9.31421e-05
9.82537e-05
3.65552e-05
4.08773e-05
9.31847e-05
2.02391e-05
5.05209e-05
7.848e-05
7.84522e-05
2.02411e-05
2.02389e-05
7.84259e-05
5.05187e-05
2.02369e-05
7.84542e-05
3.65597e-05
9.82623e-05
4.08825e-05
9.32375e-05
4.08789e-05
9.31945e-05
3.6563e-05
2.37971e-05
2.37966e-05
8.09855e-05
2.16295e-05
2.16315e-05
2.16311e-05
2.16337e-05
8.09747e-05
0.000103629
0.000125383
7.70919e-05
4.84434e-05
0.000125266
4.84389e-05
0.000103691
0.000103645
0.000125417
7.7107e-05
4.84544e-05
4.84499e-05
0.000125302
0.000103702
0.000103625
0.000125132
4.84327e-05
7.70928e-05
0.000125246
4.84372e-05
0.000103561
0.000103638
0.000125163
4.84423e-05
7.71051e-05
4.84474e-05
0.000125278
0.000103579
8.09985e-05
2.16332e-05
2.1636e-05
2.16314e-05
2.16342e-05
8.10074e-05
2.37983e-05
2.37978e-05
3.65603e-05
9.31446e-05
4.0873e-05
9.82555e-05
9.31959e-05
4.08767e-05
3.6557e-05
2.02405e-05
5.05228e-05
7.84962e-05
7.84667e-05
2.02426e-05
2.02404e-05
7.84401e-05
5.05207e-05
7.84708e-05
2.02383e-05
3.65615e-05
9.82697e-05
9.32486e-05
4.08819e-05
9.31978e-05
4.08782e-05
3.65648e-05
2.02395e-05
5.05175e-05
7.84284e-05
7.84563e-05
2.02375e-05
3.65591e-05
9.31452e-05
4.08734e-05
9.82533e-05
4.08771e-05
9.31886e-05
3.65559e-05
3.65604e-05
9.32412e-05
9.82687e-05
4.08823e-05
4.08787e-05
9.3198e-05
3.65636e-05
2.38036e-05
2.38033e-05
0.000103751
0.000125412
4.8447e-05
7.71651e-05
0.000103699
4.84556e-05
0.000125537
8.10212e-05
2.16354e-05
2.16344e-05
8.10291e-05
2.16355e-05
2.16359e-05
2.02433e-05
7.84777e-05
5.05322e-05
2.02413e-05
7.85037e-05
3.65674e-05
9.83799e-05
4.08841e-05
9.32468e-05
4.08876e-05
3.65642e-05
9.32882e-05
0.000103753
0.000125403
4.84453e-05
7.7157e-05
4.84497e-05
0.000103695
0.000125515
0.000103761
0.00012544
4.84562e-05
7.71705e-05
0.000125549
0.000103709
4.84605e-05
8.10271e-05
2.16335e-05
2.16363e-05
2.16353e-05
8.10193e-05
2.16381e-05
2.38032e-05
2.02434e-05
7.84778e-05
5.0529e-05
2.02415e-05
7.8503e-05
3.65704e-05
9.83966e-05
9.33421e-05
4.08921e-05
9.32984e-05
4.08885e-05
3.65735e-05
2.02447e-05
7.84918e-05
5.05341e-05
7.85187e-05
2.02427e-05
3.65692e-05
9.83839e-05
9.32501e-05
4.08834e-05
9.32979e-05
3.6566e-05
4.0887e-05
2.02449e-05
7.85134e-05
3.65692e-05
9.83951e-05
4.08925e-05
9.33343e-05
4.08889e-05
9.32976e-05
3.65724e-05
3.6568e-05
9.32499e-05
9.83815e-05
4.08838e-05
3.65648e-05
4.08874e-05
9.32906e-05
2.0244e-05
5.05329e-05
7.85233e-05
7.85005e-05
2.0246e-05
0.000103769
0.000125423
4.84455e-05
7.71598e-05
0.000103715
4.84497e-05
0.000125533
8.10376e-05
2.16333e-05
2.16367e-05
8.10309e-05
2.16351e-05
2.16385e-05
0.000103764
0.000125452
4.84575e-05
7.71783e-05
0.000103709
0.000125563
4.84618e-05
2.38027e-05
2.02446e-05
7.84936e-05
5.05331e-05
2.02426e-05
7.85199e-05
2.02435e-05
7.84792e-05
5.05294e-05
2.02416e-05
7.85038e-05
2.02437e-05
5.05314e-05
7.85229e-05
7.85005e-05
2.02457e-05
2.38027e-05
2.38012e-05
2.38018e-05
0.000162003
0.000166487
0.000133248
0.00013897
0.00016635
0.000133113
0.000162126
0.000134211
0.000154448
0.000154467
0.000170996
0.000154327
0.000154346
0.000134351
0.000134204
0.000154451
0.000154438
0.000170992
0.000154322
0.000134337
0.000154335
0.000171699
0.000171702
0.000157214
0.000134486
0.000154608
0.000154596
0.000171573
0.000134361
0.000154718
0.000154706
0.000134202
0.00017098
0.000154424
0.000154454
0.000154306
0.000154337
0.000134337
0.000134491
0.000154585
0.000154615
0.000171572
0.000154728
0.000134362
0.000154699
0.000153673
0.000119637
0.000142031
0.00010175
0.000153549
0.000119751
0.000142121
0.000162469
0.000166727
0.000133286
0.000139317
0.000162351
0.000166861
0.000133417
0.000134506
0.000154614
0.000154633
0.0001716
0.000134377
0.000154746
0.000154727
0.000179058
0.000179918
0.000170694
0.000170691
0.000169774
0.000155578
0.000156364
0.000170709
0.000179942
0.000170731
0.000179073
0.000169787
0.00015558
0.000156383
0.000179979
0.000170734
0.000169795
0.000179093
0.000169792
0.000155577
0.00015639
0.000179939
0.0001707
0.000179064
0.000169776
0.000169777
0.000155574
0.000156372
0.000153267
0.000101593
0.000119628
0.000141905
0.00011951
0.000141813
0.000153393
0.000162009
0.000133256
0.00016649
0.000138976
0.000133124
0.000166353
0.000162131
0.000153257
0.000119619
0.000141889
0.000101582
0.0001195
0.000141796
0.000153385
0.00016202
0.000166499
0.000133261
0.000138978
0.000166361
0.000133125
0.000162143
0.000153281
0.00014192
0.000119636
0.000101603
0.000141826
0.000119516
0.000153409
0.000162009
0.000166495
0.00013325
0.000138978
0.000166358
0.000133117
0.00016213
0.000153261
0.000141888
0.000119618
0.000101585
0.000119501
0.000141797
0.000153387
0.000153105
0.00010158
0.000141577
0.000119373
0.00015298
0.000119491
0.000141669
0.00013418
0.000170786
0.000154059
0.000154047
0.000154162
0.000154175
0.000134047
0.000180848
0.000171739
0.0001728
0.000157237
0.000180884
0.000171757
0.000181765
0.000172821
0.00015726
0.000180873
0.000171718
0.000157232
0.000162684
0.000139367
0.000133582
0.000167217
0.000133459
0.000167092
0.000162795
0.000153674
0.000142034
0.000119638
0.00010175
0.000153552
0.000142121
0.00011975
0.000162476
0.000166733
0.000139321
0.000133295
0.000162359
0.000133425
0.000166866
0.000153819
0.000119757
0.000162487
0.000166739
0.000133299
0.000139325
0.000162369
0.000166873
0.000133431
0.00015369
0.000142051
0.000119646
0.000101759
0.000153568
0.000142138
0.000119758
0.000134505
0.000171757
0.000154965
0.000154952
0.000154863
0.000154851
0.00013462
0.000134182
0.000154073
0.000170783
0.000154032
0.000154189
0.000134047
0.000154148
0.000134206
0.000170989
0.000154467
0.000154427
0.000154349
0.000154309
0.000134345
0.00016135
0.000165768
0.000132921
0.000138602
0.000132794
0.00016564
0.000161463
0.000161336
0.000165762
0.000132907
0.000138598
0.000132781
0.000165634
0.000161449
0.000161792
0.000165991
0.000132958
0.00013893
0.000161675
0.000133087
0.000166122
0.000153264
0.00014189
0.000101594
0.000119627
0.0001418
0.000119511
0.00015339
0.00015311
0.000141581
0.000119385
0.000101587
0.000141671
0.000152986
0.000119501
0.000162011
0.000166489
0.000138979
0.000133257
0.000133125
0.000166354
0.000162131
0.000161778
0.000165985
0.000132944
0.000138926
0.000161661
0.000133073
0.000166117
0.000153246
0.000141873
0.000101576
0.00011961
0.000119493
0.000141782
0.000153371
0.000153091
0.000141563
0.000119366
0.000101573
0.000152967
0.000119484
0.000141654
0.000161997
0.000166483
0.000138974
0.000133243
0.000133111
0.000166348
0.000162117
0.000134178
0.000170774
0.000154029
0.000154059
0.000154145
0.000154176
0.000134042
0.000161797
0.000165998
0.000132956
0.000138933
0.000133086
0.000166131
0.000161679
0.000153271
0.000141905
0.000101595
0.000119628
0.000153397
0.000141814
0.000119511
0.000153116
0.000141593
0.000119383
0.00010159
0.000141685
0.000119501
0.000152992
0.000162016
0.000166498
0.000138982
0.000133257
0.000162137
0.000133125
0.000166362
0.000153269
0.000141899
0.00010159
0.000119621
0.000141809
0.000119506
0.000153393
0.000153115
0.000101586
0.000141591
0.00011938
0.000141681
0.000119496
0.000152991
0.000161797
0.000165999
0.000132954
0.000138932
0.000166131
0.000133083
0.00016168
0.000162016
0.000166498
0.000133253
0.000138981
0.000166363
0.000133122
0.000162136
0.000134495
0.00015463
0.000154604
0.000171593
0.000134367
0.000154735
0.000154742
0.000153671
0.000142025
0.000119639
0.00010175
0.000119752
0.000153548
0.000142116
0.000162473
0.000166725
0.00013932
0.000133295
0.000133427
0.000162355
0.00016686
0.000153649
0.000142002
0.00011962
0.000101732
0.000153527
0.000119733
0.000142089
0.000162458
0.000166719
0.000139314
0.000133281
0.000162339
0.000133412
0.000166853
0.000162473
0.000133295
0.000166728
0.00013932
0.000162355
0.000133426
0.000166863
0.000153666
0.000119629
0.00014202
0.000101738
0.000153543
0.000119741
0.000142107
0.000153666
0.000142024
0.000119631
0.000101742
0.00014211
0.000153546
0.000119741
0.000162678
0.000139365
0.000167214
0.000133574
0.00016709
0.000133453
0.000162788
0.000162471
0.000166732
0.000133291
0.000139319
0.000166864
0.000162356
0.000133419
0.000153807
0.000101744
0.000119849
0.000142303
0.000142224
0.000119748
0.000153919
0.00016247
0.000166734
0.000133288
0.000139321
0.000162353
0.000166867
0.000133418
0.000153661
0.000142014
0.000119627
0.000101737
0.000153541
0.000142099
0.000119738
0.000153803
0.000101739
0.000119846
0.000142293
0.000142214
0.000119745
0.000153915
0.000153116
0.000166472
0.000166472
0.000157623
0.000156648
0.000169098
0.000169104
0.000159549
0.000160214
0.000171651
0.000171662
0.000161416
0.000163715
0.000174122
0.000174123
0.000163223
0.000167251
0.000176541
0.000176564
0.000164969
0.000170705
0.000178861
0.000178847
0.000166657
0.000176703
0.000181139
0.000181182
0.000168283
0.000169838
0.000165782
0.000157326
0.000165807
0.0001658
0.000165805
0.000157328
7.5888e-05
0.000159269
0.000166458
0.000166449
0.000168441
0.000168425
0.000157621
0.000159267
9.87172e-05
9.59414e-05
0.00013218
0.000168439
0.000168425
0.000166464
0.000168454
0.00016844
7.58801e-05
0.000159266
0.000166468
0.000168448
0.000168441
0.000159264
0.000159554
0.000161158
0.000169091
0.00016907
0.000171017
0.000170989
0.000159552
0.000161145
0.000169089
0.00016908
0.000171019
0.000171017
0.000169087
0.000171013
0.000171002
0.000159553
0.000161165
0.00016909
0.000171039
0.000171011
0.000161147
0.000161427
0.000162968
0.000171652
0.000171628
0.0001735
0.000173488
0.000161416
0.000162971
0.000171646
0.000171639
0.0001735
0.000173474
0.000171637
0.00017352
0.000173506
0.00016143
0.000162959
0.000171643
0.000173501
0.000173508
0.000162967
0.000163226
0.000164745
0.00017412
0.000174096
0.000175941
0.000175912
0.000163224
0.000164727
0.000174118
0.0001741
0.000175949
0.000175955
0.000174116
0.000175939
0.000175922
0.000163218
0.000164759
0.000174117
0.000175978
0.000175936
0.000164728
0.000164984
0.000166425
0.000176537
0.000176517
0.000178278
0.000178267
0.000164972
0.000166432
0.000176534
0.000176538
0.000178282
0.000178244
0.000176524
0.000178302
0.000178285
0.000164998
0.000166408
0.000176531
0.000178271
0.00017829
0.000166428
0.000166657
0.000168086
0.000178865
0.000178839
0.000180559
0.000180532
0.000166655
0.000168067
0.00017886
0.000178823
0.00018057
0.000180577
0.000178858
0.000180568
0.000180547
0.000166636
0.000168103
0.000178855
0.000180605
0.000180566
0.000168067
0.0001683
0.00016965
0.000181139
0.000181119
0.000182765
0.0001523
0.000168289
0.000181141
0.000181153
0.000182773
0.000182741
0.000181127
0.000182774
0.000138373
9.80653e-05
0.000168324
0.000169634
0.000181133
0.000182766
0.000182777
0.000169646
2.37878e-05
2.37884e-05
0.000183273
0.000138419
9.80786e-05
5.02947e-05
9.87109e-05
0.000165816
2.37084e-05
7.58739e-05
0.000157336
7.58863e-05
2.37088e-05
0.000152222
0.000152234
9.61089e-05
5.02986e-05
9.59539e-05
5.03125e-05
2.37092e-05
2.37143e-05
5.02971e-05
9.59511e-05
9.6106e-05
5.03086e-05
0.000153117
0.000153101
0.000153114
0.000155763
0.000155778
0.000155759
0.000155775
0.00013262
9.87215e-05
0.000166884
0.000167136
0.000132191
9.89297e-05
0.000167704
2.37094e-05
2.37137e-05
9.87188e-05
0.000132614
0.000166895
0.000167133
0.000132184
0.000167705
9.89267e-05
7.58866e-05
7.58822e-05
0.0001583
7.59759e-05
7.59709e-05
9.64477e-05
5.03305e-05
9.63017e-05
5.03432e-05
2.37205e-05
2.37257e-05
9.64461e-05
5.03255e-05
9.62979e-05
5.03382e-05
0.00015666
0.000156648
0.000156664
0.000159321
0.000159301
0.000159339
0.000159314
0.000133604
9.91544e-05
0.000170138
0.000169738
0.000133187
9.93533e-05
0.000170931
2.37197e-05
2.37245e-05
0.0001336
0.000170136
9.91524e-05
0.000169758
0.00013318
0.000170944
9.93559e-05
7.60717e-05
7.60665e-05
0.000160216
7.61575e-05
7.61521e-05
9.67747e-05
5.03605e-05
9.66339e-05
5.03731e-05
2.3732e-05
2.37371e-05
9.677e-05
5.03555e-05
9.66293e-05
5.03681e-05
0.0001602
0.000160228
0.000160205
0.000162836
0.000162857
0.000162828
0.000162864
0.000134549
9.95639e-05
0.000173302
0.000172282
0.000134143
9.97586e-05
0.000174086
2.37307e-05
2.37359e-05
0.000134542
0.000173318
9.95643e-05
0.000172274
0.000134141
0.000174085
9.97534e-05
7.62468e-05
7.62412e-05
0.000162064
7.6329e-05
7.63231e-05
9.70871e-05
5.03903e-05
9.69517e-05
5.04028e-05
2.37433e-05
2.37485e-05
9.70862e-05
5.03853e-05
9.6948e-05
5.03977e-05
0.000163721
0.000163702
0.000163735
0.00016638
0.000166354
0.000166404
0.00016636
0.00013546
9.99604e-05
0.000176388
0.000174731
0.000135075
0.000100142
0.000177143
2.37422e-05
2.37473e-05
0.000135457
0.000176379
9.99579e-05
0.000174752
0.000135065
0.000177153
0.000100148
7.64148e-05
7.64092e-05
0.000163855
7.64931e-05
7.64874e-05
9.73844e-05
5.04197e-05
9.72563e-05
5.04319e-05
2.37548e-05
2.37599e-05
9.73788e-05
5.04145e-05
9.72514e-05
5.04268e-05
0.000167239
0.000167285
0.000167242
0.00016983
0.000169845
0.000169818
0.000169855
0.000136339
0.000100337
0.000179397
0.000177137
0.00013596
0.000100515
0.000180138
2.37535e-05
2.37587e-05
0.000136332
0.000179422
0.00010034
0.000177132
0.000135961
0.000180143
0.000100508
7.65733e-05
7.65675e-05
0.000165584
7.66489e-05
7.66426e-05
9.76711e-05
5.04489e-05
9.75442e-05
5.0461e-05
2.37661e-05
2.37713e-05
9.76699e-05
5.04438e-05
9.75388e-05
5.04559e-05
0.000170702
0.000170669
0.000170711
0.000173259
0.000173247
0.000173282
0.000173261
0.000137176
0.000100695
0.000182314
0.00017943
0.00013682
0.000100861
0.000183017
2.37651e-05
2.37702e-05
0.000137172
0.000182292
0.000100689
0.000179437
0.000136806
0.000183016
0.000100868
7.67264e-05
7.67205e-05
0.000167254
7.67969e-05
7.67911e-05
9.79421e-05
5.04773e-05
9.78234e-05
5.04887e-05
2.37775e-05
2.37825e-05
9.7939e-05
5.04721e-05
9.78188e-05
5.04839e-05
0.000176698
0.000174115
0.000174108
0.000174163
0.000174124
0.000176712
0.000153025
0.00013799
0.000101041
0.000185155
0.00018172
0.000137638
0.000101204
0.000185877
2.37763e-05
2.37816e-05
0.000137988
0.000185191
0.000101048
0.000181732
0.000137642
0.000185896
0.0001012
7.68688e-05
7.68629e-05
0.000168872
7.6939e-05
7.69292e-05
7.69981e-05
7.70662e-05
0.000170212
7.70003e-05
7.70634e-05
2.37098e-05
2.37102e-05
7.58899e-05
0.000157335
7.58834e-05
5.02962e-05
9.59369e-05
5.02925e-05
9.59336e-05
0.000165801
9.87105e-05
0.000166059
0.000132118
9.86924e-05
0.000166052
0.000132114
2.37086e-05
7.58703e-05
7.58882e-05
2.37098e-05
9.87125e-05
0.000166062
0.000132119
5.02944e-05
9.59366e-05
0.000166065
9.87055e-05
0.000132118
5.02913e-05
9.59353e-05
0.000165821
9.87109e-05
0.000166077
0.000132115
0.00016607
9.87001e-05
0.000132113
5.02925e-05
9.59327e-05
5.02898e-05
9.59326e-05
7.58828e-05
7.58784e-05
2.37088e-05
2.37079e-05
2.37104e-05
2.37165e-05
2.37107e-05
2.37147e-05
0.00015763
7.58898e-05
0.000158307
7.59806e-05
7.59761e-05
2.37226e-05
2.37172e-05
2.37199e-05
2.3715e-05
0.000158597
7.60736e-05
7.60647e-05
7.59843e-05
7.59769e-05
9.61059e-05
5.02949e-05
9.59512e-05
5.03078e-05
0.00013262
9.87205e-05
0.000166886
0.000167131
0.000132189
9.89314e-05
0.000167703
0.000132615
9.87003e-05
0.000166877
0.000167112
0.000132184
9.89095e-05
0.000167698
9.6129e-05
5.03281e-05
5.03149e-05
9.62792e-05
9.61262e-05
5.03229e-05
5.03101e-05
9.62765e-05
0.00013269
0.000167789
9.91458e-05
0.000169324
9.89398e-05
0.000168515
0.000133115
0.000132685
0.00016777
9.91246e-05
0.000169322
9.89175e-05
0.000168511
0.000133111
7.58722e-05
7.58921e-05
0.0001583
7.59637e-05
7.59816e-05
2.37104e-05
2.37155e-05
2.372e-05
2.37149e-05
0.000158591
7.6056e-05
7.60741e-05
7.59655e-05
7.59857e-05
2.37212e-05
2.37161e-05
0.000132185
0.000166485
0.000166886
0.000132614
0.000167131
9.8923e-05
0.000167699
5.02931e-05
9.61049e-05
5.0305e-05
9.87071e-05
0.000166472
0.000166885
0.000132609
0.000167116
0.000167694
9.89126e-05
9.61254e-05
5.03232e-05
5.03106e-05
9.62769e-05
0.000132683
0.000167784
9.91355e-05
0.000169319
9.89297e-05
0.000168509
0.000133109
9.61134e-05
5.03197e-05
5.03069e-05
9.62749e-05
0.000132678
0.00016777
0.000169313
9.91255e-05
0.000168504
9.8918e-05
0.000133103
9.61111e-05
5.02968e-05
9.59597e-05
5.03097e-05
0.000132619
0.000166885
9.87139e-05
0.000167124
0.000132189
0.000167704
9.89219e-05
9.61097e-05
5.02937e-05
9.59588e-05
5.03065e-05
0.000132691
0.000167796
9.91457e-05
0.000169338
9.89389e-05
0.000168521
0.000133118
9.61341e-05
5.03248e-05
5.03121e-05
9.6284e-05
0.000132689
0.000167782
0.000169337
9.91368e-05
0.00016852
9.89303e-05
0.000133116
9.61331e-05
5.03217e-05
5.03089e-05
9.62824e-05
0.000157631
7.58907e-05
0.000158303
7.59688e-05
7.59786e-05
2.37092e-05
2.37147e-05
2.37191e-05
2.3714e-05
0.000158591
7.60586e-05
7.60744e-05
7.59686e-05
7.59844e-05
2.37207e-05
2.37156e-05
0.000132613
0.00016689
9.87091e-05
0.000167127
0.000132184
0.000167702
9.89166e-05
5.02949e-05
9.61102e-05
9.59483e-05
5.03081e-05
9.61062e-05
5.02922e-05
9.59553e-05
5.0305e-05
0.000132684
0.000167793
0.000169329
9.91438e-05
0.000168519
9.89364e-05
0.00013311
0.000132683
0.000167785
0.000169328
9.91311e-05
0.000168517
9.89253e-05
0.000133109
9.6122e-05
5.03238e-05
5.0311e-05
9.62821e-05
9.61294e-05
5.03202e-05
5.03074e-05
9.62786e-05
2.37094e-05
2.37145e-05
2.37085e-05
2.37136e-05
0.00015859
7.60682e-05
7.60629e-05
7.59796e-05
7.59747e-05
2.37202e-05
2.37151e-05
2.37193e-05
2.37141e-05
2.37231e-05
2.37282e-05
2.37204e-05
2.37255e-05
7.60776e-05
7.60686e-05
0.000160223
7.6164e-05
7.61544e-05
2.37339e-05
2.37288e-05
2.37312e-05
2.37261e-05
0.000160501
7.62514e-05
7.62406e-05
7.61676e-05
7.61577e-05
9.64447e-05
5.03253e-05
9.6299e-05
5.03379e-05
0.000133601
9.91539e-05
0.000170125
0.000169737
0.000133183
9.93552e-05
0.000170924
0.000133597
9.91322e-05
0.00017012
0.000169712
0.000133179
9.93326e-05
0.000170917
9.64694e-05
5.03582e-05
5.03455e-05
9.66128e-05
9.64665e-05
5.0353e-05
5.03403e-05
9.66096e-05
0.000133667
0.000170385
9.95596e-05
0.000172515
9.93631e-05
0.000171726
0.000134078
0.000133663
0.000170354
9.95361e-05
0.000172505
9.93394e-05
0.000171716
0.000134073
7.60575e-05
7.60778e-05
0.000160215
7.61441e-05
7.61618e-05
2.37218e-05
2.37269e-05
2.37314e-05
2.37262e-05
0.00016049
7.62308e-05
7.62485e-05
7.61451e-05
7.6165e-05
2.37326e-05
2.37275e-05
0.000133598
9.91446e-05
0.000170122
0.00016974
0.000133177
9.9346e-05
0.000170932
9.64437e-05
5.03221e-05
9.62858e-05
5.03346e-05
0.000133593
0.000170119
9.9133e-05
0.000169737
0.000133172
0.000170932
9.93372e-05
9.64664e-05
5.03531e-05
5.03405e-05
9.66097e-05
0.000133664
0.000170383
9.95491e-05
0.000172524
9.9354e-05
0.00017173
0.000134074
9.64545e-05
5.03494e-05
5.03369e-05
9.66069e-05
0.00013366
0.000170381
0.000172527
9.95397e-05
0.000171732
9.93454e-05
0.000134069
9.64505e-05
5.03272e-05
9.63063e-05
5.03398e-05
0.000133603
0.000170139
9.9145e-05
0.000169731
0.000133185
0.000170934
9.93459e-05
9.64491e-05
5.0324e-05
9.6305e-05
5.03367e-05
0.000133671
0.000170376
9.95561e-05
0.000172508
9.93611e-05
0.000171722
0.000134078
9.64717e-05
5.03549e-05
5.03422e-05
9.66133e-05
0.000133669
0.00017037
0.000172509
9.9549e-05
0.000171726
9.93534e-05
0.000134076
9.64708e-05
5.03517e-05
5.03391e-05
9.6612e-05
7.6061e-05
7.60782e-05
0.000160228
7.61483e-05
7.61652e-05
2.37213e-05
2.37264e-05
2.37301e-05
2.3725e-05
0.000160509
7.62335e-05
7.62498e-05
7.61519e-05
7.61684e-05
2.3732e-05
2.3727e-05
0.000133598
0.000170132
9.91396e-05
0.000169737
0.000133178
0.000170936
9.93406e-05
9.64501e-05
5.03262e-05
9.62933e-05
5.03389e-05
9.64466e-05
5.03226e-05
9.63009e-05
5.03352e-05
0.000133667
0.000170402
0.000172533
9.95576e-05
0.000171741
9.93637e-05
0.000134076
0.000133665
0.000170376
0.000172521
9.95437e-05
0.00017173
9.93485e-05
0.000134074
9.64605e-05
5.03537e-05
5.03412e-05
9.66126e-05
9.64682e-05
5.03502e-05
5.03376e-05
9.66095e-05
2.37208e-05
2.37259e-05
2.37198e-05
2.37249e-05
0.000160493
7.62439e-05
7.62383e-05
7.61606e-05
7.61553e-05
2.37316e-05
2.37264e-05
2.37306e-05
2.37255e-05
2.37345e-05
2.37396e-05
2.37318e-05
2.3737e-05
7.62546e-05
7.62435e-05
0.000162069
7.63359e-05
7.63252e-05
2.37454e-05
2.37402e-05
2.37427e-05
2.37375e-05
0.000162329
7.64194e-05
7.64095e-05
7.63388e-05
7.63279e-05
9.67717e-05
5.03553e-05
9.6631e-05
5.03679e-05
0.000134547
9.9567e-05
0.000173306
0.000172266
0.000134143
9.97585e-05
0.00017408
0.000134543
9.95429e-05
0.000173299
0.000172253
0.000134138
9.97376e-05
0.000174076
9.67949e-05
5.0388e-05
5.03754e-05
9.69323e-05
9.67924e-05
5.03827e-05
5.03702e-05
9.69291e-05