/*--------------------------------*- C++ -*----------------------------------*\
| =========                 |                                                 |
| \\      /  F ield         | OpenFOAM: The Open Source CFD Toolbox           |
|  \\    /   O peration     | Version:  v2006                                 |
|   \\  /    A nd           | Website:  www.openfoam.com                      |
|    \\/     M anipulation  |                                                 |
\*---------------------------------------------------------------------------*/
FoamFile
{
    version     2.0;
    format      ascii;
    class       surfaceScalarField;
    location    "375";
    object      phi;
}
// * * * * * * * * * * * * * * * * * * * * * * * * * * * * * * * * * * * * * //

dimensions      [0 3 -1 0 0 0 0];
oriented        oriented;


internalField   nonuniform List<scalar> 
40846
(
-1.73645e-10
-5.61687e-08
-0.000228705
2.37591e-08
1.82996e-09
6.26956e-09
-3.66722e-08
1.4102e-09
-0.000192967
-4.53649e-09
-1.55168e-08
-9.76514e-05
4.5439e-09
-3.42987e-08
-0.000192951
1.22931e-06
-7.98656e-08
2.2963e-07
-1.19279e-06
2.40364e-07
-2.08849e-07
-1.84307e-07
8.80455e-07
-0.00113347
-3.47705e-08
-8.30523e-07
1.38559e-08
3.44313e-08
-1.03303e-07
-0.000244832
-1.02407e-08
-1.53576e-08
-9.76672e-05
-1.31864e-08
-9.76606e-05
-1.27199e-06
-1.18286e-06
-0.00026815
2.1606e-07
2.34767e-07
-2.06329e-08
8.66313e-09
-0.000277385
-4.19291e-08
-1.15664e-08
-0.000277338
5.91463e-09
-2.25853e-08
-5.62102e-08
-0.000228666
2.37743e-08
1.64251e-09
-3.65615e-08
1.32922e-09
-0.000192908
-1.26489e-09
-0.000249702
2.57554e-09
-1.88436e-07
-1.74995e-08
1.53384e-07
-1.21918e-06
2.56157e-07
-1.92858e-07
-8.28429e-07
2.34777e-07
-1.683e-07
8.88118e-07
-0.00113322
-1.24806e-08
-0.000244829
-1.05678e-07
7.02285e-09
-2.95746e-08
-9.25755e-07
8.02242e-07
-7.45853e-07
9.82129e-07
-0.00115474
-0.000249678
2.60454e-09
-1.88504e-07
-3.43027e-08
1.26351e-06
-7.8484e-08
-8.38609e-07
2.32146e-07
8.88316e-07
-1.87113e-07
-1.22742e-06
2.48182e-07
-2.17269e-07
-0.00113298
1.34923e-08
-1.23922e-08
-0.000244734
-1.0314e-07
-5.92596e-08
-9.28209e-07
8.02308e-07
-7.4573e-07
9.82006e-07
-0.00115465
-0.000268133
2.37419e-07
2.42095e-07
8.94138e-09
-0.000277276
-3.91851e-08
1.33079e-08
7.1721e-09
-3.69403e-08
-0.0002774
-4.57756e-09
-9.76644e-05
-2.20472e-08
-1.27956e-06
2.18028e-07
-2.47755e-07
2.05449e-07
-2.4068e-07
-0.00113329
-0.000244805
-9.33113e-08
-0.000192956
1.26038e-09
-1.09154e-09
4.57371e-09
0.000142869
7.85437e-10
-0.000142873
-5.3149e-09
1.43446e-09
-8.6409e-11
1.83296e-08
-0.000228719
-0.000170476
-3.8126e-10
-8.05738e-12
-0.000222726
2.05469e-08
3.09853e-09
-5.787e-08
-2.26704e-12
-0.000170482
1.38099e-09
2.00049e-08
-0.000222741
4.00345e-10
8.49942e-09
7.89892e-05
-7.8997e-05
-0.000262396
1.62466e-08
-5.07245e-08
-1.93645e-09
-3.23962e-09
1.42741e-08
-0.000192976
1.9942e-08
-0.000262408
3.20018e-09
6.10442e-09
-9.76607e-05
-4.89285e-09
1.89666e-08
-0.000192963
3.8598e-09
-9.76743e-05
5.96421e-09
-9.76714e-05
-1.89801e-10
1.60484e-09
0.000213094
-9.62736e-08
-1.31777e-08
-0.000212986
-8.02834e-05
-8.07456e-09
-8.86486e-09
-8.0275e-05
-7.70436e-09
-5.6106e-09
-3.11048e-09
-8.02805e-05
5.23209e-09
-8.02786e-05
-3.63404e-08
-1.91901e-08
4.7026e-09
0.000221369
-3.1516e-08
-2.7658e-08
-0.00022141
-0.000182465
-2.72279e-08
7.2907e-10
-2.90026e-09
2.54013e-09
-0.000277381
3.98773e-08
-0.000250237
-8.5313e-08
-4.74523e-08
-0.000182462
-5.03396e-08
7.07672e-09
2.77049e-09
-0.000250281
-3.00891e-08
0.000221326
5.16729e-08
4.75275e-08
-0.000221408
-6.38976e-09
5.76063e-08
1.15326e-08
-0.000277395
-0.000182425
-1.62271e-08
1.47734e-08
-0.000250149
-3.91948e-08
-2.45493e-08
-0.000182456
-3.756e-08
2.15119e-07
3.53355e-08
-0.00025029
-9.5789e-10
4.54675e-09
0.000142797
8.17951e-10
-0.000142801
-5.29952e-09
1.19431e-09
1.8291e-08
-0.00022868
-0.000170442
-3.46582e-10
-0.000222629
2.05447e-08
3.09993e-09
-5.54566e-08
-0.000170448
1.40069e-09
1.99805e-08
-0.000222645
4.37269e-10
8.51399e-09
7.89441e-05
-7.89517e-05
-0.000262273
1.62025e-08
-4.83397e-08
-2.03229e-09
1.65556e-08
-0.00019292
1.99128e-08
-0.000262285
-7.93702e-09
-5.43625e-09
-8.02747e-05
-8.06204e-09
-5.54079e-09
-8.02855e-05
-1.86492e-08
-1.67418e-08
-0.000213113
-7.30064e-09
1.08657e-08
0.000221289
1.88054e-08
-3.76872e-09
-0.000221308
-0.000182408
-2.46508e-08
-7.65442e-09
1.35233e-08
4.73153e-09
-0.000277281
-0.000250074
2.95151e-08
-3.71044e-08
-8.20995e-08
-3.65129e-09
-0.00018242
1.78968e-08
4.53058e-08
-0.000250113
-4.70283e-08
-2.24295e-08
-0.000182465
2.76333e-08
-3.50295e-08
-7.94996e-08
-0.000250246
-4.65999e-08
-0.000221362
-1.05306e-07
-0.0011869
2.03384e-08
-0.00121932
-4.30135e-08
-0.00118739
-3.44356e-08
-0.0012192
-0.000260035
-1.61555e-08
0.00024246
2.81571e-08
1.49007e-07
-0.000242618
-2.46767e-07
-1.95208e-07
-0.000270207
1.19462e-07
-0.000260599
8.86096e-08
-0.000260944
-0.000261003
-0.000261023
-1.50199e-07
-2.34281e-09
0.00026555
4.45861e-09
-0.000266327
1.67052e-09
1.33078e-07
-4.10424e-10
-0.000249818
-0.000249079
-2.04613e-07
6.04779e-09
-0.000265783
1.87983e-09
-7.87681e-10
2.609e-09
-0.00024921
-1.33837e-09
-0.000266396
6.5861e-09
-1.35404e-07
6.88071e-09
0.000263765
-0.00026446
-0.000250181
-1.85708e-07
-2.58078e-09
5.86841e-08
-0.000244869
-0.000260025
-2.09671e-08
-0.000250296
-0.000260125
-1.52739e-07
-1.67308e-09
0.000265486
2.10683e-09
-0.000266262
1.46671e-09
1.33013e-07
-0.000249794
-0.000248996
-2.04563e-07
5.79414e-09
-0.000265772
4.10298e-09
2.38478e-09
-0.000249129
-0.000266387
9.13808e-09
-1.40117e-07
0.000263685
-2.89351e-09
-0.000264378
-0.000250083
-1.83359e-07
2.29133e-09
6.8299e-08
-0.000244783
-1.84386e-08
-0.000259925
-0.000250199
-0.000260029
7.67949e-08
7.72999e-08
0.000242448
-1.89814e-08
-0.000242565
-2.02772e-07
-1.97785e-07
-0.000270152
-0.000260936
1.09316e-07
-0.000260587
1.09489e-07
-4.29397e-08
-0.000260879
-0.000261228
9.0023e-08
-0.000244867
-0.000260006
-0.000260126
-1.97896e-09
-1.89407e-09
1.4051e-09
-0.000213114
-8.02803e-05
3.65067e-09
-8.0291e-05
7.97901e-09
-5.32186e-09
-0.000221383
1.1308e-08
-5.3861e-09
-3.97975e-09
4.62789e-09
-0.000277406
1.50392e-08
-0.000250284
-0.000182472
3.11512e-09
-9.76714e-05
1.43474e-08
-0.000192965
-2.05914e-09
6.82335e-08
-0.000244881
-2.19996e-10
-0.000260136
-7.04833e-11
-2.47068e-08
1.68393e-09
1.75884e-09
1.5547e-07
0.000249613
1.64284e-08
9.62126e-07
-7.71845e-07
-9.50537e-07
7.81458e-07
0.00115767
1.04381e-07
4.62602e-09
2.02766e-10
1.26021e-09
-6.31422e-09
0.000228277
-2.47428e-08
1.55545e-07
1.34328e-09
0.000249589
1.41145e-09
-1.24628e-06
4.09696e-08
8.70291e-07
-2.05417e-07
-8.5425e-07
2.18409e-07
1.26142e-06
-2.28664e-07
2.41724e-07
0.00113517
9.62057e-07
-7.74701e-07
-9.53338e-07
7.81418e-07
0.00115769
1.10306e-07
-1.97285e-08
-9.68984e-09
1.60748e-09
8.1714e-08
0.000244333
-6.33868e-09
1.30028e-09
0.00022824
-4.47892e-09
-2.51233e-09
0.000192309
-1.20381e-06
3.53362e-08
-2.08006e-07
2.18762e-07
1.21905e-06
-2.25889e-07
2.39305e-07
0.00113618
-1.95721e-08
-9.65472e-09
8.38675e-08
0.000244299
-4.45111e-09
0.000192302
0.000268527
-2.1002e-07
-2.12711e-07
-4.12357e-09
-6.94284e-09
1.82007e-08
0.000276655
-4.08813e-09
-6.91195e-09
1.81043e-08
0.000276575
9.7306e-05
9.73007e-05
-0.000142393
-2.04478e-08
1.92572e-10
4.34005e-10
0.000142413
-9.61974e-09
0.000222239
3.073e-08
1.29959e-09
1.18019e-09
0.000169931
4.59885e-11
1.68967e-09
1.9542e-08
4.0237e-11
-4.7474e-08
0.000228304
4.83618e-10
-5.19095e-08
3.13982e-09
0.000222269
3.56241e-11
0.000169951
-0.000142327
1.29416e-10
-1.8403e-08
2.69944e-10
0.000142345
1.23285e-09
0.0001699
-7.69417e-09
0.000222148
1.36145e-09
2.84682e-08
1.95349e-08
2.00789e-09
-4.74437e-08
0.000228266
6.5621e-10
0.00016992
3.12382e-09
-4.94103e-08
0.000222178
-7.86606e-05
-1.58e-08
7.86766e-05
-9.77405e-09
0.000261554
2.56942e-08
9.07664e-10
3.48927e-09
-3.08074e-08
0.000192335
-4.45432e-08
0.000261587
3.53092e-09
-3.09585e-08
0.000192329
-0.000212565
7.77724e-09
7.65442e-09
-1.71166e-08
-1.72657e-08
0.000212584
2.37318e-09
8.00411e-05
4.39838e-09
2.65169e-09
8.0026e-05
4.32738e-09
6.04851e-09
5.89696e-09
-4.96799e-09
8.00538e-05
-5.14253e-09
8.00388e-05
-0.000220947
-2.34034e-08
2.36138e-08
-4.79463e-08
0.000220978
9.07165e-09
0.000181943
-1.31833e-08
0.000249941
2.50296e-08
5.32526e-08
-3.63455e-08
4.98122e-09
1.36984e-08
-1.43678e-08
0.000276687
2.5013e-08
-3.10344e-08
-7.76272e-08
0.00024999
0.000181967
-0.000220884
-2.34671e-08
2.36343e-08
-4.57115e-08
0.000220912
9.09518e-09
0.000181888
-1.31652e-08
0.000249828
2.75724e-08
5.55407e-08
-3.63109e-08
5.10634e-09
1.36949e-08
-1.20511e-08
0.000276605
2.50708e-08
-3.10998e-08
-7.52325e-08
0.000249874
0.000181911
9.73232e-05
9.73179e-05
0.0011903
4.44873e-08
-0.000265756
1.93448e-07
-4.22731e-09
1.16288e-08
0.000266517
1.71639e-07
0.000248909
9.59744e-10
1.06213e-10
0.000266071
5.98847e-09
2.81068e-09
-1.76764e-07
-8.97208e-11
0.00024974
-1.05946e-08
4.66681e-09
0.000249049
-2.33266e-09
0.000266674
-0.000265699
-1.12584e-09
1.95836e-07
3.93848e-09
0.000266463
7.00056e-10
0.000266057
1.71761e-07
0.000248831
1.02019e-09
-1.7671e-07
2.41425e-09
0.000249716
-2.7367e-09
0.000266659
4.7113e-09
0.000248975
-0.0002638
1.77772e-07
1.04639e-08
0.000264486
1.52633e-07
0.000249806
5.89953e-09
0.00025989
-8.96239e-09
-9.7279e-08
0.000244394
0.000249935
0.00025999
0.000259879
-9.98668e-08
0.000244367
0.000259982
-0.000242263
-1.08526e-07
-1.08689e-07
0.000242387
2.34758e-07
2.37454e-07
0.000270535
-8.59015e-08
0.000260645
-8.58985e-08
0.000261057
0.000260935
0.00026135
-7.87017e-05
-1.79387e-08
7.87201e-05
-1.18815e-08
0.000261674
2.7977e-08
2.47383e-09
-4.68986e-08
0.000261707
-9.17165e-10
-0.000263884
1.75404e-07
0.000264577
-8.70604e-07
1.31004e-08
1.52569e-07
0.000249898
-1.64367e-09
8.54203e-07
-5.93387e-09
0.000250022
8.96532e-09
1.83608e-08
-5.07005e-08
-3.22295e-09
-0.000262403
-6.07506e-10
-7.8988e-05
-1.80973e-07
-6.06425e-09
-0.00025019
-1.722e-08
-0.000263775
-5.56678e-08
0.000228659
-2.47605e-10
2.55554e-08
1.6952e-09
-0.00022863
0.000249786
-1.66136e-09
-1.87896e-07
2.09966e-09
-0.000249655
0.000270154
-1.26358e-06
-1.22626e-06
2.34489e-07
2.39473e-07
-0.000268138
0.00115444
-5.06354e-08
1.53234e-08
-0.00115454
3.54194e-08
-9.24027e-07
7.96088e-07
-7.4424e-07
9.75875e-07
1.21845e-06
0.00113361
-5.0534e-08
-0.00113362
2.40229e-07
-1.1935e-06
-2.17553e-07
-8.04102e-08
-8.36581e-07
2.31963e-07
-1.87823e-07
8.82673e-07
-1.62842e-11
0.000228698
-5.5692e-08
1.48571e-09
2.34999e-08
-0.000228667
0.000228661
-5.57567e-08
1.74849e-09
2.1464e-08
-0.000228628
0.000270123
-1.26328e-06
2.34376e-07
2.42211e-07
-0.000268118
-4.45791e-09
9.76497e-05
-1.33201e-08
-9.76319e-05
1.10024e-07
2.81505e-07
2.55004e-08
1.31015e-07
-0.00118745
-0.00113352
-1.19343e-06
-2.74028e-08
-2.09418e-07
1.22895e-06
2.39955e-07
-8.36505e-08
8.80171e-07
-1.84785e-07
-8.31054e-07
2.29328e-07
-4.35886e-08
1.64364e-08
1.89174e-08
9.73486e-07
-7.43601e-07
-9.23373e-07
7.93665e-07
1.18516e-06
1.22209e-06
-1.97896e-07
-2.03096e-07
0.000268117
-3.82278e-08
-2.46642e-08
1.50124e-07
0.00115477
9.8131e-07
-7.4745e-07
-9.30041e-07
7.98774e-07
-0.00115496
-4.85667e-08
0.00115475
1.085e-08
9.78709e-07
-7.47268e-07
-9.29689e-07
7.98991e-07
-0.00115485
-1.22881e-06
0.000270162
-1.26656e-06
-0.000268143
2.36961e-07
2.39635e-07
-3.24707e-08
-0.00113356
-1.19375e-06
2.39727e-07
-2.0975e-07
-8.1599e-08
-8.31456e-07
2.31766e-07
8.79886e-07
-1.85132e-07
0.00115448
-3.38942e-08
1.66377e-08
1.64094e-08
-0.00115458
-9.26622e-07
7.96158e-07
-7.44174e-07
9.75892e-07
0.000192896
-3.41993e-08
-0.000192867
1.36036e-09
9.40971e-09
-0.000277382
-6.33174e-09
1.63612e-08
-1.0214e-08
0.000277373
-0.00113367
-1.16077e-06
1.26339e-07
-1.92905e-07
1.3074e-06
2.75629e-07
9.09291e-07
-1.60898e-07
-8.23462e-07
2.82564e-07
-6.06413e-08
-0.00115467
-6.30173e-08
3.9512e-08
9.81649e-07
-7.46379e-07
-9.28844e-07
7.99157e-07
1.23038e-06
-1.98238e-07
-2.00395e-07
0.000268136
-0.000244859
-1.68485e-08
2.24409e-09
7.35715e-08
0.000244809
1.8558e-08
-2.47285e-11
-7.44636e-09
1.21111e-09
0.000228646
7.288e-10
1.3865e-07
2.37603e-09
0.000249663
-5.65174e-08
9.4884e-10
1.7125e-08
0.00115441
9.76304e-07
-7.4352e-07
7.96532e-07
-9.23236e-07
-3.20819e-09
1.45367e-08
-2.01537e-09
0.000192886
1.19333e-06
1.22772e-06
-1.98212e-07
-2.03046e-07
0.000268135
-3.95289e-08
0.00113357
-2.09191e-07
1.21561e-06
2.37398e-07
-7.2069e-08
8.82866e-07
-1.87286e-07
-8.33327e-07
2.32242e-07
7.08457e-11
1.85611e-08
1.31189e-09
-5.36908e-09
0.000228683
1.85543e-08
1.08297e-09
-3.30544e-09
0.000228645
3.96455e-09
9.76425e-05
-1.63545e-07
-3.50226e-08
0.00121992
-1.5907e-07
-0.00121958
0.00121922
-1.13875e-08
-2.7313e-08
-0.00121939
0.00121894
3.23539e-08
3.70114e-08
-0.00121918
1.40268e-07
0.00121958
1.68256e-07
-1.64479e-08
-0.00121978
2.07442e-09
-3.64081e-08
0.000192946
4.56744e-09
-0.000192915
1.28603e-09
-5.57627e-08
0.000228699
1.64093e-09
2.35422e-08
-0.000228669
0.00113311
1.44267e-07
-1.16657e-06
6.48448e-08
-2.04294e-07
1.29937e-06
2.59058e-07
-0.0011336
8.88127e-07
-1.88122e-07
-8.37113e-07
2.29073e-07
1.3725e-08
-0.000244798
-1.00649e-08
-1.00427e-07
0.000249818
2.21323e-09
-1.88022e-07
-0.00024969
1.28814e-09
1.27198e-06
0.00113304
-8.57065e-08
-8.39504e-07
2.29203e-07
-1.87771e-07
8.82876e-07
-1.22811e-06
2.45538e-07
-2.1488e-07
-0.00115486
1.14693e-08
0.00115481
-5.70603e-08
-9.29374e-07
7.99151e-07
-7.4684e-07
9.7904e-07
4.45658e-08
-6.60275e-08
-0.0011548
9.81628e-07
-7.47349e-07
-9.27056e-07
7.98926e-07
-3.63301e-08
4.47432e-09
0.000192889
1.36328e-09
-0.000192859
-3.3268e-08
-0.00113306
0.00113299
2.48134e-07
-1.22801e-06
-2.17691e-07
-6.26156e-08
-8.36966e-07
2.31631e-07
-1.88026e-07
8.85155e-07
-0.00115475
0.00115467
-9.26702e-07
7.9891e-07
-7.46892e-07
9.78677e-07
-4.49925e-08
1.59222e-08
0.00024476
-1.0134e-08
-1.02711e-07
-0.000244699
-3.792e-08
-6.6361e-08
-0.00113311
-1.22832e-06
8.85099e-07
-1.88305e-07
-8.37231e-07
2.31534e-07
1.26366e-06
-2.17911e-07
2.48192e-07
-4.18876e-08
-0.0011548
9.78517e-07
-7.47436e-07
-9.27153e-07
7.98778e-07
-1.55541e-08
9.76457e-05
-9.76257e-05
0.000277259
-3.65999e-08
9.42806e-09
-0.000277231
1.32568e-08
-1.60829e-08
0.000277383
-3.66021e-08
6.99135e-09
-0.000277351
-4.48408e-09
9.76582e-05
-9.76405e-05
-0.00113352
0.00113346
2.42604e-07
-1.19371e-06
-2.1237e-07
-7.5202e-08
-8.36874e-07
2.3179e-07
-1.87889e-07
8.85338e-07
-4.99386e-10
0.000249808
-1.85332e-07
1.65141e-09
-0.000249679
3.41486e-08
0.000244859
-1.02804e-07
-1.01877e-08
-0.000244796
-2.04404e-08
-7.82177e-08
-0.00113359
-1.194e-06
1.22905e-06
-2.09838e-07
2.39911e-07
8.85236e-07
-1.88203e-07
-8.34559e-07
2.31625e-07
4.11811e-08
-5.29868e-08
-0.00115465
9.75683e-07
-7.44771e-07
-9.21813e-07
7.9588e-07
-0.00115441
0.00115434
-5.08039e-08
-9.26577e-07
7.98813e-07
-7.47001e-07
9.75692e-07
0.000249778
-1.85367e-07
3.53246e-09
-0.000249653
3.42732e-08
1.35897e-08
0.000244769
-1.05377e-07
-9.98806e-09
-0.000244702
-2.22687e-07
-1.25839e-06
-1.81502e-07
8.82449e-07
-1.88346e-07
-8.39819e-07
2.29027e-07
1.18864e-06
-2.25935e-07
2.32141e-07
-0.00113323
-2.31756e-08
-0.00115466
9.7824e-07
-7.47527e-07
-9.29903e-07
7.98629e-07
-1.47905e-08
-7.2577e-09
0.000244686
7.15907e-08
-1.64382e-10
-0.000244735
0.000192941
1.32345e-09
-0.000192913
4.43388e-09
0.000192889
1.44908e-09
-0.000192861
-3.28866e-09
0.000192842
-2.056e-09
-0.000192851
0.000277347
-1.59883e-08
-3.90195e-08
8.98835e-09
-0.000277315
1.33355e-08
0.000277265
-3.89208e-08
6.41091e-09
-0.000277232
1.17443e-06
0.000268133
-2.08466e-07
-1.95927e-07
-0.000270161
-4.00795e-09
4.87965e-09
0.000277294
1.16067e-08
-5.0383e-09
-0.000277301
-3.93286e-09
0.000277209
1.39569e-08
-5.23928e-09
-0.000277221
3.25326e-09
9.76214e-05
-9.76287e-05
9.76444e-05
-9.76266e-05
9.7616e-05
-9.76233e-05
-2.70722e-10
-5.57969e-08
0.000228667
2.35976e-08
1.75612e-09
-0.000228636
-0.000192953
-3.22527e-09
1.44995e-08
-1.98471e-09
0.000192944
-0.000228698
1.64553e-10
1.36586e-08
0.000228689
-5.40811e-09
1.28502e-09
-9.76501e-05
3.25422e-09
6.09823e-09
9.76407e-05
-3.23377e-09
-2.06435e-09
0.000192934
1.85688e-08
9.83569e-10
-5.40371e-09
0.000228685
-2.00345e-07
-0.00121915
6.41023e-08
2.79003e-08
1.02101e-08
2.29324e-08
0.00121884
7.88826e-09
4.53919e-08
8.96142e-09
3.39249e-08
0.00115446
-0.00115454
-6.2176e-08
9.76302e-07
-7.40679e-07
-9.20485e-07
7.96542e-07
5.39004e-08
-1.79081e-09
-0.000249698
2.11282e-09
-1.86122e-07
-0.000244865
-4.72366e-09
-1.45314e-08
6.86266e-08
-1.6776e-10
0.000244815
-0.000249814
-1.6046e-08
1.4099e-09
1.35969e-07
0.00024969
2.62473e-09
-5.78162e-09
-6.16298e-08
-9.22456e-07
7.97077e-07
-7.42643e-07
9.76786e-07
3.33556e-09
6.23816e-09
9.76361e-05
-2.14821e-07
1.22632e-06
2.42773e-07
-7.21147e-08
8.82791e-07
-1.87506e-07
-8.36347e-07
2.32029e-07
1.09964e-09
1.36086e-07
2.45327e-09
0.000249687
-7.17738e-09
-1.45773e-08
6.86924e-08
-1.61786e-10
0.000244812
7.25168e-09
1.3722e-08
-5.05746e-09
0.000277335
4.85061e-09
-3.96029e-09
1.36842e-08
-5.07107e-09
0.000277256
-1.25817e-06
-1.21566e-06
-0.000268111
2.31951e-07
2.42444e-07
-1.61356e-08
1.33597e-08
-0.000277359
6.53596e-09
-3.93661e-08
-1.37822e-08
1.33029e-08
-0.000277279
6.64484e-09
-3.92895e-08
-1.32578e-08
-4.43453e-09
9.76614e-05
-9.76437e-05
6.27522e-09
3.30364e-09
9.76307e-05
-9.76403e-05
-1.55765e-08
9.76633e-05
-9.76432e-05
1.26093e-06
-2.10828e-07
0.000268167
-1.90772e-07
-0.000270193
-0.000277356
-3.42935e-08
7.02673e-09
-1.23968e-06
0.000270183
-0.000268161
2.42399e-07
2.47298e-07
-1.59235e-08
0.000277298
-4.13262e-08
-0.000277263
8.9047e-09
4.78339e-09
1.1651e-08
-5.75263e-09
0.000277237
-0.000277242
-5.5839e-08
0.000228629
2.36085e-08
1.30798e-09
-0.000228599
-1.46925e-09
0.000249802
-1.87907e-07
1.50886e-09
-0.000249669
0.000249773
-1.8541e-07
1.59415e-09
-0.000249647
-8.30068e-11
1.87157e-08
-5.40887e-09
1.53738e-09
0.000228652
-3.40246e-08
-0.000192925
1.33876e-09
1.69164e-08
-2.11888e-09
0.000192902
-0.000192913
-1.82306e-10
-5.5732e-08
-0.000228668
2.35756e-08
1.70853e-09
1.86911e-08
-5.39822e-09
1.3125e-09
0.000228615
-3.63404e-08
4.41681e-09
0.000192901
-0.00019287
1.37703e-09
1.70525e-08
-3.21977e-09
-2.23645e-09
0.000192851
-0.000192863
-5.5805e-08
0.000228661
-0.00022863
2.35969e-08
1.43344e-09
0.00113375
-2.16966e-07
1.20728e-06
-2.23247e-07
2.3479e-07
8.88087e-07
-1.8551e-07
2.34346e-07
-8.37167e-07
-0.00113344
-1.63039e-08
-9.80138e-08
-1.19627e-06
2.50972e-07
-2.12242e-07
-8.34239e-07
2.42354e-07
-1.82628e-07
8.90566e-07
3.04323e-09
0.0011547
-6.34086e-08
-9.26761e-07
8.04421e-07
-7.46956e-07
9.8415e-07
5.86254e-10
1.39168e-07
3.25856e-09
0.000249677
0.00024483
-1.10053e-07
-0.000244757
-1.26098e-08
6.90629e-08
-2.0293e-10
0.000244743
-0.00024479
-1.36127e-09
0.000249816
-1.87981e-07
-0.000249684
2.08817e-09
2.81197e-08
-5.73353e-08
-9.32053e-07
8.04569e-07
-7.49593e-07
9.84241e-07
-0.00113307
0.00113302
-1.22791e-06
2.48395e-07
-2.17547e-07
-7.99557e-08
-8.39442e-07
2.31731e-07
-1.87955e-07
8.88021e-07
-1.23379e-06
-7.84392e-08
8.82698e-07
-1.96362e-07
-8.42301e-07
2.26289e-07
1.2639e-06
-2.23392e-07
2.48421e-07
-0.00113311
1.39107e-07
1.38978e-09
0.000249652
1.34967e-08
0.000244767
-1.02775e-07
-0.000244702
-1.25034e-08
-6.94101e-09
7.64503e-08
-3.88839e-10
0.000244689
-0.000244741
0.000249788
-1.88074e-07
-0.000249659
2.44834e-09
-1.55576e-08
-9.76301e-05
6.2083e-09
9.76194e-05
-9.76288e-05
1.18835e-06
0.000268149
-1.98284e-07
-2.00921e-07
-0.000270172
0.000277257
-3.88609e-08
-0.000277229
8.82649e-09
1.32029e-08
-1.37044e-08
0.000277383
-3.66329e-08
-0.000277353
7.08468e-09
1.87129e-08
-4.64821e-09
0.000277204
-0.000277218
-3.9518e-09
4.9736e-09
6.81819e-09
-5.47491e-09
0.000277327
-0.000277329
-4.5423e-09
9.76608e-05
-9.76431e-05
3.24785e-09
9.76326e-05
-9.76398e-05
-0.0011546
-5.15497e-08
-9.21093e-07
7.93447e-07
9.73224e-07
-7.41317e-07
-3.24837e-08
-6.73903e-08
1.23171e-06
-2.07088e-07
2.45232e-07
8.85106e-07
-1.77352e-07
2.31672e-07
-8.29159e-07
-0.00113366
-2.52206e-08
-4.75793e-08
9.78521e-07
-7.41947e-07
7.98729e-07
-9.21695e-07
-0.00115468
-1.87659e-08
1.41536e-09
1.34046e-07
3.08209e-09
0.00024968
-0.0002498
3.41721e-08
-1.02848e-07
-0.0002448
-1.01718e-08
-1.45748e-08
6.40932e-08
-2.62236e-09
0.000244781
-0.000244823
5.5806e-08
-1.89014e-09
-1.8546e-07
-0.000249685
2.53926e-09
1.31576e-10
1.53812e-09
-3.32913e-09
0.000228649
-0.000228666
0.000192946
-0.000192917
1.27535e-09
-4.49401e-09
0.000192898
-0.000192905
-2.60288e-10
0.0002287
-0.000228668
1.87229e-09
2.14926e-08
-0.00113273
0.00113263
2.47894e-07
-1.22248e-06
-2.15079e-07
-4.64779e-08
-8.34106e-07
2.26294e-07
-1.85211e-07
8.7969e-07
0.000244799
-1.02795e-07
-0.000244736
-1.00653e-08
-7.24526e-08
-7.73696e-08
9.78452e-07
-7.42012e-07
7.98679e-07
-9.18909e-07
-0.00115457
8.10298e-08
1.28522e-06
-2.07078e-07
2.56025e-07
8.82326e-07
-1.82743e-07
2.2624e-07
-8.29049e-07
-0.00113314
-1.46575e-08
0.000244723
6.66089e-08
-1.65365e-10
-0.00024477
-1.87991e-08
1.36653e-07
1.64697e-09
0.000249654
-0.000249772
5.57855e-08
0.000249786
-1.85416e-07
2.22635e-09
-0.000249661
0.000192848
-2.0567e-09
-0.000192858
1.28088e-09
-3.3516e-09
0.000228614
-0.000228631
0.000228663
1.6196e-09
-0.00022863
2.14895e-08
3.9659e-09
9.76542e-05
9.76538e-05
1.23883e-06
-1.79772e-07
-1.98202e-07
0.000268161
4.97178e-09
-2.28719e-09
-4.49942e-09
0.000277304
1.66931e-08
-2.00998e-09
0.000192889
1.60736e-08
0.000228649
-5.38282e-09
1.41574e-09
-1.08195e-07
9.92661e-07
-7.43726e-07
-9.20851e-07
8.01836e-07
5.90848e-08
-1.14554e-10
0.00024479
1.61128e-09
1.33519e-07
0.000249692
2.38967e-09
-2.17415e-07
1.26634e-06
2.48222e-07
-7.604e-08
8.88074e-07
-1.87576e-07
-8.39091e-07
2.31864e-07
-4.73693e-09
6.86507e-08
2.23741e-09
0.000244718
1.36e-07
0.000249667
2.22502e-09
1.37391e-08
-7.71008e-09
0.000277253
-4.04283e-09
1.14934e-08
-5.4467e-09
0.000277376
3.14288e-09
9.76536e-05
1.75362e-09
1.38619e-07
0.000249697
-4.83388e-08
8.80451e-07
-1.90166e-07
-8.39067e-07
2.13199e-07
-2.28257e-07
1.25318e-06
2.23618e-07
-2.83898e-08
-9.00058e-08
9.79242e-07
-7.46309e-07
-9.28849e-07
7.96581e-07
1.6823e-08
-1.92243e-09
0.000192878
-1.14726e-08
-2.17534e-07
1.26352e-06
2.48126e-07
-7.62542e-08
8.85303e-07
-1.87651e-07
-8.39172e-07
2.29165e-07
9.78956e-07
-7.46331e-07
-9.28817e-07
7.96403e-07
-5.48548e-08
-7.25393e-09
-5.45589e-11
6.87491e-08
0.000244715
-2.0169e-10
-0.000228703
1.67907e-09
2.17055e-08
-2.05665e-09
0.000192936
5.9915e-11
0.000228686
1.3222e-09
-3.26024e-09
0.00113256
-2.14751e-07
1.25795e-06
2.45336e-07
-7.20044e-08
8.82702e-07
-1.87489e-07
2.31963e-07
-8.3366e-07
6.86325e-08
-4.72399e-11
0.000244752
5.39103e-08
-0.000249674
-1.86136e-07
2.3934e-09
-2.93605e-08
-7.43344e-08
-1.22156e-06
2.4286e-07
-2.11528e-07
-8.33075e-07
2.3233e-07
-1.86903e-07
8.83081e-07
-1.60687e-08
1.36021e-07
2.01714e-09
0.000249666
-5.59777e-08
-9.22459e-07
7.97111e-07
-7.42681e-07
9.76832e-07
3.447e-08
-0.000244766
-1.00496e-08
-1.05725e-07
-0.000228665
2.17089e-08
1.6581e-09
1.20164e-09
0.000228649
-3.27826e-09
4.57247e-09
-0.000192906
1.25828e-09
1.1583e-08
-8.28339e-09
0.000277254
-4.04206e-09
1.15996e-08
-5.54059e-09
0.000277374
3.20291e-09
9.7651e-05
-4.39941e-08
9.76054e-07
-7.46322e-07
-9.23119e-07
7.9643e-07
1.36049e-07
1.37021e-09
0.00024966
-1.44671e-08
7.08542e-08
1.24396e-11
0.000244718
-8.08275e-08
-1.17937e-06
2.3749e-07
-2.06167e-07
-8.32701e-07
2.32577e-07
-1.8674e-07
8.83186e-07
3.45023e-08
-0.000244734
-1.0057e-08
-1.05838e-07
-1.98636e-09
0.000192931
-3.2209e-09
-1.93669e-09
0.00019288
4.62091e-09
-0.000192899
1.24005e-09
-9.76533e-05
9.76372e-05
-9.7648e-05
-9.59461e-10
6.72003e-09
0.000142761
8.29915e-10
-0.000142768
-0.000170401
-3.71159e-10
0.000170427
-2.2759e-11
-0.000222591
2.23653e-08
0.000222625
3.15134e-09
-5.73864e-08
-7.47681e-09
1.32668e-09
-1.89455e-10
1.86853e-08
-0.000228642
-4.02131e-11
-0.000170409
1.45888e-09
2.28446e-08
-0.000222607
0.000142783
3.51311e-10
8.76472e-09
-9.57802e-10
0.000142833
6.30942e-10
-0.000142842
-0.000222689
2.43665e-08
0.00022272
3.15146e-09
-5.73304e-08
-0.000170437
-3.51777e-10
-2.54996e-11
0.000170461
1.13874e-09
-5.42606e-09
-6.73588e-12
1.87476e-08
-0.000228682
1.44117e-09
2.28433e-08
-0.000222703
-2.06688e-11
-0.000170443
0.000142857
5.08365e-10
4.709e-09
-8.97593e-10
0.000142765
7.32869e-10
-0.00014277
-0.000222594
2.03856e-08
0.000222627
2.95106e-09
-5.50493e-08
-0.000170404
-4.42423e-10
0.000170426
1.1173e-09
-3.36935e-09
1.87619e-08
-0.000228645
1.33312e-09
2.042e-08
-0.00022261
-0.000170408
0.000142785
3.12012e-10
3.23006e-09
4.03891e-09
-9.76392e-05
8.56693e-09
7.89289e-05
-7.89367e-05
-7.84565e-10
-2.02994e-09
-0.000192877
1.46835e-08
-0.000262234
1.61955e-08
0.000262271
-3.07121e-09
-4.8064e-08
-0.000262247
-1.42746e-09
2.02576e-08
7.89455e-05
-3.75098e-10
-0.000221351
1.43615e-08
1.19796e-08
-8.15181e-08
-1.34353e-09
-2.31008e-08
0.000250236
-0.000250276
2.79919e-08
5.15492e-08
1.00996e-08
0.000182439
-0.000182454
-5.42185e-09
8.03929e-10
-2.47138e-08
1.31435e-08
-1.14848e-08
-0.000221372
-1.73687e-08
2.4877e-08
-1.31785e-09
-2.17561e-08
-4.52391e-08
-0.000142776
3.86208e-10
-2.2438e-08
3.5057e-10
9.18505e-10
0.000170418
-5.96374e-12
-6.65969e-09
0.000222609
1.33557e-09
2.26753e-08
2.56209e-08
1.37553e-09
-1.9846e-10
-5.58289e-08
8.01631e-10
-6.02323e-12
3.05917e-09
-5.75787e-08
-7.89377e-05
-1.6197e-08
-4.13667e-10
7.89543e-05
-8.5562e-09
0.000262259
-1.39697e-09
2.01056e-08
1.35151e-09
4.48502e-09
0.000192915
-3.43369e-08
-8.0871e-10
-3.06826e-09
0.000262295
-4.82321e-08
-0.000142848
-2.44604e-08
3.66124e-10
5.18813e-10
-8.69463e-09
0.000222708
-7.04027e-10
2.25778e-08
9.30718e-10
0.000170455
-2.69448e-12
1.66506e-09
2.35818e-08
7.84821e-11
-5.58995e-08
6.18688e-10
5.22025e-09
-5.7487e-08
-2.52494e-12
-0.00014278
-2.04594e-08
4.13992e-10
3.50505e-10
-4.6423e-09
0.000222612
1.27958e-09
2.02035e-08
9.02123e-10
0.000170422
1.74729e-09
2.15424e-08
-5.59766e-08
7.38334e-10
2.9613e-09
-5.52637e-08
-1.33671e-08
9.76604e-05
1.08417e-08
7.89712e-05
-5.81645e-10
-7.89815e-05
-2.07663e-09
-3.25854e-09
1.69288e-08
-0.000192927
-0.000262355
1.84449e-08
-3.1421e-09
0.00026239
-4.80701e-08
6.70123e-10
2.00836e-08
-0.000262367
-6.11809e-10
7.89903e-05
6.78156e-09
-9.43194e-10
0.000142835
-0.000142841
-0.000222692
2.24617e-08
0.000222723
-5.50772e-08
-0.000170438
-3.82202e-10
0.000170461
9.65636e-10
-5.43022e-09
1.86881e-08
-0.000228683
2.03061e-08
-0.000222704
-0.000170444
0.000142856
8.609e-09
7.89266e-05
-7.89344e-05
-0.000262223
1.61838e-08
0.000262262
-5.03645e-08
-2.03012e-09
-3.29623e-09
1.69364e-08
-0.00019287
2.27265e-08
-0.000262238
7.89432e-05
6.2696e-09
-9.76352e-05
1.09401e-08
-5.63161e-09
0.000221259
-1.6882e-09
1.9124e-08
-0.000221282
-0.000250053
2.94793e-08
0.000250108
-8.16057e-08
-3.95309e-08
-0.000182376
-2.25398e-08
5.41515e-09
0.000182402
1.17165e-08
-8.22867e-09
7.15987e-09
-0.000277236
4.59017e-08
2.05557e-08
-0.000250097
-3.73098e-09
-0.000182386
1.62955e-08
0.000221296
-4.65553e-08
-2.01684e-09
-2.07279e-09
0.000213076
1.61617e-09
-0.000213076
-8.02566e-05
-7.91749e-09
8.02699e-05
-8.02729e-05
-7.82779e-09
-5.51162e-09
8.02862e-05
-8.02623e-05
3.6837e-09
-8.02786e-05
-1.63723e-08
0.000213093
-5.41158e-09
8.48585e-09
0.000221335
1.90801e-08
-0.000221356
-0.000250216
2.71366e-08
0.000250273
-8.16932e-08
-3.95305e-08
-0.000182437
-2.22338e-08
0.000182461
-5.57204e-09
1.16928e-08
-4.05809e-09
7.18834e-09
-0.00027736
-0.000182445
4.5844e-08
2.05754e-08
-0.000250262
0.00022137
-4.64489e-08
3.21524e-09
-9.76478e-05
1.07153e-08
7.89699e-05
-7.898e-05
-0.000262357
1.8326e-08
0.000262393
-5.03541e-08
-2.03736e-09
1.46915e-08
-0.000192922
2.26044e-08
-0.000262369
7.89887e-05
8.51207e-09
7.89271e-05
-7.89349e-05
-0.000262229
1.62693e-08
0.000262265
-4.81919e-08
-1.95429e-09
-0.00019287
-3.27934e-09
1.45953e-08
-0.000262241
2.01545e-08
7.89437e-05
-7.89183e-05
-1.62471e-08
-3.27636e-10
1.36459e-09
4.39951e-09
-3.41605e-08
-8.55622e-09
0.000262205
2.02894e-08
-0.000262217
-1.43601e-09
-7.89261e-05
-7.60611e-10
-4.80781e-08
-3.05128e-09
-7.50056e-09
0.000221324
8.36931e-09
-1.67589e-09
-0.000221342
1.8858e-08
2.95453e-08
-0.000250183
0.00025023
-7.67787e-08
-3.94138e-08
-0.000182426
-2.4484e-08
5.37923e-09
0.000182454
-7.64561e-09
1.39406e-08
-0.000277324
7.25061e-09
-3.63295e-09
-0.000182438
1.85862e-08
0.000221357
-4.65768e-08
-0.000250224
4.32139e-08
2.06063e-08
-1.88343e-09
-2.12268e-09
0.000213072
3.76409e-09
-0.000213073
-8.02712e-05
-7.92979e-09
8.02845e-05
-8.02566e-05
-7.85087e-09
-5.50334e-09
8.02699e-05
-8.02767e-05
3.67558e-09
-8.02624e-05
-1.8637e-08
0.000213093
8.61514e-09
-7.27254e-09
0.000221261
-0.000221275
1.67284e-08
-0.000250063
2.69408e-08
0.000250111
-7.91623e-08
-3.44288e-08
-0.000182374
-2.43073e-08
0.000182399
1.38366e-08
-5.15766e-09
-0.000277242
-3.91658e-09
4.88373e-09
-0.000250102
4.33506e-08
1.81378e-08
-0.000182383
0.000221292
-4.68026e-08
2.44818e-08
-2.95679e-08
-0.000221309
1.62611e-08
-4.41276e-08
9.00736e-09
-3.66079e-08
1.32696e-08
-1.60344e-08
0.000250172
-5.87488e-09
4.32502e-08
1.56307e-08
-0.000250213
0.00018241
7.20839e-09
-3.61121e-09
-0.000182418
5.41405e-09
-7.69191e-08
-4.17845e-08
-1.51146e-09
1.89416e-08
-0.000221325
7.91959e-09
7.80731e-09
-0.000213057
-1.62959e-08
8.02633e-05
1.92259e-09
-8.02689e-05
8.02491e-05
2.15035e-09
5.41559e-09
-8.02567e-05
-5.44622e-09
3.91055e-09
-0.000213058
-2.43869e-08
2.43107e-08
-0.000221245
-4.64906e-08
-3.89387e-08
6.32806e-09
1.3396e-08
-1.36069e-08
0.00025005
-8.78676e-09
2.31853e-08
4.58984e-08
-0.000250096
0.000182358
7.57661e-09
-0.000182365
-3.44689e-08
-8.13645e-08
1.8918e-08
-0.000221261
-4.48299e-09
-9.76338e-05
-9.97079e-10
6.7602e-09
0.000142806
6.25292e-10
-0.000142813
-0.000170405
-3.3899e-10
-4.06599e-11
0.000170429
-0.000222653
2.24377e-08
0.000222684
-5.5008e-08
3.25357e-09
-5.40412e-09
1.09027e-09
-1.83219e-10
2.36912e-08
-0.000228655
-2.86037e-11
-0.000170412
2.29343e-08
1.53858e-09
-0.000222669
0.000142828
6.06252e-10
-7.89779e-05
-1.85148e-08
-5.86296e-10
-1.08127e-08
0.000262369
-1.3909e-09
-0.000262379
2.01465e-08
1.84166e-09
4.50884e-09
-3.86148e-08
-5.4313e-10
-7.89881e-05
-3.14895e-09
-5.28611e-08
-0.000142851