/*--------------------------------*- C++ -*----------------------------------*\
| =========                 |                                                 |
| \\      /  F ield         | OpenFOAM: The Open Source CFD Toolbox           |
|  \\    /   O peration     | Version:  v2006                                 |
|   \\  /    A nd           | Website:  www.openfoam.com                      |
|    \\/     M anipulation  |                                                 |
\*---------------------------------------------------------------------------*/
FoamFile
{
    version     2.0;
    format      ascii;
    class       volVectorField;
    location    "375";
    object      U;
}
// * * * * * * * * * * * * * * * * * * * * * * * * * * * * * * * * * * * * * //

dimensions      [0 1 -1 0 0 0 0];


internalField   nonuniform List<vector> 
14212
(
(-2.99249e-07 -1.17837e-05 0.0911549)
(-1.10917e-06 -8.27601e-06 0.0819814)
(2.02995e-06 -3.45281e-06 0.0713252)
(-8.46578e-06 -1.17798e-06 0.0819821)
(8.67141e-06 -3.74504e-06 0.107616)
(1.55167e-05 -5.07885e-06 0.0928145)
(-2.06368e-06 -3.49068e-06 0.0713234)
(-3.54296e-06 -2.1155e-06 0.0713232)
(-4.50753e-05 -4.46443e-05 0.104338)
(-4.97813e-06 -7.05543e-06 0.0873195)
(-6.83814e-06 -4.99435e-06 0.0873181)
(3.03356e-07 -1.18027e-05 0.091155)
(1.14123e-06 -8.3652e-06 0.0819826)
(-5.03908e-07 -2.02276e-05 0.0984133)
(-3.55816e-06 -8.4353e-06 0.107614)
(-4.94908e-06 -1.5621e-05 0.0928139)
(-1.62002e-06 -8.29986e-06 0.110125)
(4.18147e-07 -2.02447e-05 0.0984135)
(3.67796e-06 -8.61738e-06 0.107613)
(4.9789e-06 -1.54424e-05 0.0928143)
(1.49529e-06 -8.36466e-06 0.110125)
(4.48421e-05 -4.49147e-05 0.104337)
(4.91409e-06 -6.96127e-06 0.0873193)
(7.00284e-06 -5.04764e-06 0.0873191)
(3.52331e-06 -2.12666e-06 0.0713231)
(-8.76484e-06 -3.83805e-06 0.107615)
(-1.51996e-05 -5.09284e-06 0.0928145)
(8.35195e-06 -1.1706e-06 0.0819822)
(-6.54641e-07 1.86938e-06 0.0765956)
(-3.2933e-07 1.0466e-06 0.0911212)
(-2.1978e-08 -5.25554e-06 0.0783966)
(-7.4456e-07 -1.12884e-05 0.0896635)
(-2.6134e-07 1.45497e-06 0.0783684)
(-6.50933e-07 1.6084e-06 0.089625)
(5.96602e-07 -5.07424e-06 0.0766285)
(-9.46297e-07 2.44421e-06 0.0681523)
(-1.2352e-06 -8.69796e-06 0.0855803)
(6.72597e-07 4.4549e-06 0.0819409)
(-6.39237e-07 2.38575e-06 0.0855365)
(4.70666e-07 -3.37942e-06 0.068197)
(-1.69403e-06 2.12184e-06 0.071282)
(4.30857e-06 6.0434e-07 0.0819416)
(1.75512e-06 2.24095e-06 0.0712839)
(2.1833e-06 1.68501e-06 0.0712837)
(4.77966e-07 6.12908e-07 0.0833598)
(-2.25903e-06 -2.07481e-06 0.0681313)
(-1.87545e-06 -2.22094e-06 0.0681301)
(1.42945e-06 8.8728e-07 0.0680967)
(1.0126e-06 1.51993e-06 0.0680963)
(-4.70006e-06 -4.73302e-06 0.083391)
(1.68021e-07 3.33799e-06 0.0914402)
(-2.25641e-06 -5.6339e-06 0.081328)
(2.24479e-06 8.53984e-08 0.0872829)
(-1.03332e-05 -1.75825e-05 0.0961281)
(1.54158e-06 8.17122e-07 0.0812931)
(-7.04304e-06 -1.21653e-05 0.0914763)
(2.23788e-06 4.57671e-06 0.0960871)
(3.29325e-06 5.70141e-07 0.0914372)
(3.40605e-07 2.2104e-06 0.0872821)
(-5.56341e-06 -2.21635e-06 0.0813251)
(-1.69638e-05 -1.00677e-05 0.0961232)
(1.00354e-06 1.57217e-06 0.0812913)
(-1.21113e-05 -6.59632e-06 0.0914714)
(5.13989e-06 2.49555e-06 0.0960838)
(6.7144e-07 1.87063e-06 0.0765956)
(3.15475e-07 1.02908e-06 0.0911214)
(3.26636e-08 -5.2545e-06 0.0783967)
(7.53023e-07 -1.13201e-05 0.0896634)
(2.66012e-07 1.45587e-06 0.0783686)
(6.42609e-07 1.57723e-06 0.0896257)
(-5.72922e-07 -5.06133e-06 0.0766282)
(9.66299e-07 2.45408e-06 0.0681547)
(1.26854e-06 -8.74104e-06 0.085581)
(-6.19034e-07 4.30342e-06 0.0819407)
(6.73109e-07 2.34894e-06 0.0855379)
(-4.4233e-07 -3.35625e-06 0.068199)
(2.23985e-06 -1.99774e-06 0.0681289)
(2.05238e-06 -2.22977e-06 0.0681329)
(4.76094e-06 -4.72557e-06 0.0833914)
(-4.89003e-07 3.3404e-06 0.0914349)
(2.18908e-06 -5.63752e-06 0.0813253)
(-2.24397e-06 1.30335e-07 0.0872806)
(1.01323e-05 -1.72869e-05 0.0961244)
(-1.55277e-06 7.9879e-07 0.0812893)
(-2.4576e-06 4.85848e-06 0.0960827)
(6.7786e-06 -1.20616e-05 0.0914709)
(5.63144e-06 -2.27593e-06 0.081328)
(1.72884e-05 -1.03272e-05 0.0961272)
(1.20505e-05 -6.96201e-06 0.0914763)
(-5.45771e-06 -5.54779e-06 0.112811)
(-8.66589e-08 -2.23483e-06 0.115414)
(5.68933e-06 -5.45769e-06 0.112811)
(2.45677e-07 -2.1888e-06 0.115413)
(5.04098e-05 -6.53733e-06 0.099454)
(4.03191e-06 4.98227e-06 0.0973737)
(2.89061e-05 2.94149e-05 0.104214)
(-4.31408e-05 -1.83979e-05 0.101429)
(-1.87531e-05 -4.31616e-05 0.101426)
(-1.67094e-05 -1.57713e-05 0.0974226)
(3.05234e-05 4.56236e-06 0.101362)
(4.16659e-06 3.05194e-05 0.10136)
(-1.52043e-06 3.28926e-05 0.102815)
(-5.03875e-07 3.05787e-06 0.0983601)
(-1.44189e-06 -2.01737e-05 0.0974391)
(-5.1951e-07 -5.26477e-05 0.103593)
(-1.08215e-06 3.72479e-06 0.0973776)
(-8.35823e-07 3.18263e-05 0.103492)
(-1.72359e-06 -5.36669e-05 0.102938)
(-1.06299e-06 3.54959e-05 0.101236)
(-2.99007e-06 -1.88054e-05 0.0954557)
(1.2469e-06 4.08225e-06 0.0927647)
(-6.40839e-06 -5.03637e-05 0.0994534)
(-1.04019e-06 4.56029e-06 0.0953933)
(1.47064e-07 3.45228e-05 0.0993938)
(-3.95908e-06 -5.39998e-05 0.101344)
(1.52157e-06 3.28764e-05 0.102815)
(4.19601e-07 3.05049e-06 0.0983603)
(1.35559e-06 -2.01523e-05 0.0974393)
(5.09456e-07 -5.26741e-05 0.103593)
(9.97028e-07 3.76534e-06 0.0973783)
(8.70428e-07 3.17946e-05 0.103492)
(1.68348e-06 -5.36836e-05 0.102938)
(1.19373e-06 3.54166e-05 0.101236)
(2.89707e-06 -1.87944e-05 0.0954561)
(-1.19349e-06 4.27925e-06 0.0927644)
(6.40119e-06 -5.03696e-05 0.0994524)
(9.626e-07 4.59955e-06 0.0953944)
(4.00394e-06 -5.41079e-05 0.101344)
(-8.91449e-08 3.45353e-05 0.0993927)
(-4.69675e-06 4.48238e-06 0.0973737)
(-2.91739e-05 2.91422e-05 0.104214)
(4.31581e-05 -1.86484e-05 0.101426)
(1.85821e-05 -4.3305e-05 0.101429)
(-4.42353e-06 3.04083e-05 0.101362)
(-3.04793e-05 4.331e-06 0.101359)
(1.61413e-05 -1.6299e-05 0.0974228)
(4.54337e-06 1.13427e-06 0.0927651)
(-5.03524e-05 -6.58322e-06 0.0994531)
(3.45676e-05 -3.89477e-08 0.0993942)
(-4.58078e-07 4.74325e-07 0.0833606)
(-1.43728e-06 9.22785e-07 0.0680943)
(-8.8336e-07 1.46268e-06 0.0680988)
(-3.41434e-06 2.95176e-07 0.091442)
(-1.94579e-07 2.18521e-06 0.0872837)
(-4.86489e-06 2.27394e-06 0.0960873)
(-9.44166e-07 1.53487e-06 0.0812948)
(-2.20888e-06 1.6892e-06 0.0712842)
(-4.40141e-06 6.29868e-07 0.0819416)
(-4.22527e-06 1.15955e-06 0.0927659)
(-3.45095e-05 2.94701e-08 0.0993951)
(-7.95266e-06 -3.73307e-07 0.0983268)
(-4.53075e-06 1.26748e-07 0.110446)
(-2.72561e-06 -4.08626e-07 0.0909524)
(-7.96519e-06 4.04812e-07 0.0983267)
(-2.07239e-07 -1.2189e-06 0.107866)
(-4.53025e-06 -1.26601e-07 0.110445)
(-7.71417e-06 -1.94911e-06 0.0925997)
(-2.7407e-06 4.30102e-07 0.0909525)
(-5.01174e-06 -6.26085e-07 0.0816879)
(-1.16174e-06 -1.04623e-07 0.107867)
(-1.93398e-06 -7.6709e-06 0.0926)
(-6.30466e-07 -4.90915e-06 0.0816886)
(-3.56171e-05 -3.5628e-05 0.104369)
(-1.18482e-06 -3.37406e-06 0.0870606)
(-3.35476e-06 -1.12669e-06 0.0870598)
(-2.08596e-06 -2.7149e-06 0.07103)
(-2.68521e-06 -2.03784e-06 0.0710304)
(4.45572e-06 5.29426e-07 0.0763768)
(-3.14968e-06 -6.17504e-07 0.0894287)
(-2.18845e-06 -4.04264e-07 0.0781196)
(1.07134e-05 -3.72007e-07 0.0909858)
(-2.61343e-06 -7.66302e-07 0.0763408)
(1.02613e-05 -7.1131e-07 0.0894689)
(4.73743e-06 -1.59612e-07 0.0781479)
(4.48863e-06 -5.00683e-07 0.0763752)
(-2.19515e-06 4.34185e-07 0.0781199)
(-3.21183e-06 6.28215e-07 0.0894296)
(1.07064e-05 4.14217e-07 0.0909857)
(-2.68053e-06 7.88058e-07 0.0763423)
(4.74015e-06 1.93093e-07 0.0781478)
(1.02625e-05 7.47234e-07 0.089468)
(3.31053e-06 -5.86355e-07 0.067953)
(-3.10797e-06 7.05062e-07 0.0853)
(8.20812e-06 1.19851e-06 0.0817292)
(-2.68166e-06 8.7385e-07 0.0679076)
(8.40539e-06 1.32834e-06 0.085344)
(1.18924e-06 8.29056e-06 0.0817297)
(4.46537e-06 4.37966e-06 0.08318)
(-9.08645e-07 -1.62058e-06 0.0678883)
(-1.57826e-06 -1.01446e-06 0.0678842)
(-8.91642e-07 -1.01077e-06 0.0831471)
(2.05728e-06 2.13856e-06 0.0679259)
(2.23961e-06 2.03533e-06 0.0679199)
(1.19134e-05 5.98328e-06 0.0913102)
(-1.41629e-06 -1.99917e-06 0.0810618)
(-7.26044e-06 -5.04674e-06 0.0959861)
(6.24272e-06 4.13073e-06 0.0870985)
(-4.22402e-06 -1.5059e-06 0.0912727)
(1.59247e-05 8.09999e-06 0.0960291)
(5.30856e-06 1.86572e-06 0.0810984)
(6.00508e-06 1.18839e-05 0.0913034)
(-1.99181e-06 -1.40235e-06 0.081058)
(-5.05802e-06 -7.27025e-06 0.0959833)
(4.1726e-06 6.27199e-06 0.0870968)
(-1.49674e-06 -4.26915e-06 0.0912667)
(8.12536e-06 1.58999e-05 0.0960257)
(1.91213e-06 5.35095e-06 0.0810932)
(3.8643e-06 1.2349e-06 0.0710707)
(1.27181e-06 3.87027e-06 0.0710707)
(-6.72776e-06 -6.79571e-06 0.1131)
(5.10286e-05 -1.27747e-07 0.103029)
(-8.41636e-06 -5.44566e-07 0.0973115)
(-4.19754e-05 -4.4009e-07 0.103602)
(1.64598e-05 -3.75401e-07 0.0983824)
(-4.24664e-05 -2.90701e-08 0.102893)
(1.65388e-05 -9.74699e-07 0.0973766)
(4.97103e-05 -1.22016e-08 0.103713)
(5.09907e-05 1.35752e-07 0.103029)
(-4.20134e-05 4.5366e-07 0.103602)
(-8.48284e-06 5.64924e-07 0.0973117)
(1.64515e-05 4.23035e-07 0.0983822)
(-4.25225e-05 2.26977e-08 0.102893)
(4.9679e-05 4.40994e-08 0.103713)
(1.65018e-05 1.00406e-06 0.0973762)
(5.23417e-05 1.93666e-06 0.101391)
(-7.96603e-06 3.47386e-07 0.0952823)
(-4.14991e-05 -2.31322e-06 0.0993657)
(1.27595e-05 4.56004e-06 0.0926512)
(-4.35256e-05 -8.81643e-07 0.101273)
(1.63285e-05 2.45583e-06 0.0953473)
(4.86487e-05 4.38913e-06 0.0994297)
(-2.35385e-06 -4.14229e-05 0.0993652)
(4.58184e-06 1.28214e-05 0.0926514)
(4.36056e-06 4.87403e-05 0.0994293)
(1.54438e-05 1.54807e-05 0.0973562)
(4.48538e-05 4.48414e-05 0.104506)
(-7.39854e-06 -3.54962e-05 0.101401)
(-3.53839e-05 -7.36697e-06 0.101398)
(-6.39274e-06 -6.36118e-06 0.0973038)
(1.67176e-05 4.34992e-05 0.101474)
(4.35548e-05 1.67438e-05 0.101471)
(3.24036e-06 6.04711e-07 0.0679528)
(-3.04779e-06 -7.23589e-07 0.0852979)
(-2.6007e-06 -9.36237e-07 0.0679026)
(8.38623e-06 -1.31989e-06 0.0853446)
(5.2395e-05 -1.95018e-06 0.101392)
(-7.94211e-06 -3.27992e-07 0.095282)
(-4.34684e-05 8.58784e-07 0.101274)
(1.63217e-05 -2.44743e-06 0.0953474)
(8.70538e-06 -1.26897e-06 0.0855818)
(3.29651e-06 4.83425e-07 0.0681991)
(1.87888e-05 -3.00422e-06 0.0954565)
(5.41205e-05 -4.10887e-06 0.101345)
(-1.16496e-05 3.16083e-07 0.0911428)
(-1.99505e-05 5.04293e-07 0.0984076)
(-4.48441e-05 4.49173e-05 0.104342)
(-1.38396e-06 7.75583e-06 0.11014)
(3.57672e-06 8.34288e-06 0.107625)
(-3.35318e-07 1.16701e-05 0.0911424)
(2.65441e-07 1.17059e-05 0.0911422)
(4.49244e-05 4.48843e-05 0.104342)
(3.53935e-06 2.06242e-06 0.0713079)
(-5.24454e-06 -5.29255e-06 0.112821)
(8.51383e-06 -3.5113e-06 0.107621)
(-1.45181e-06 8.10785e-06 0.110132)
(-2.92551e-05 -2.92844e-05 0.104216)
(-1.37022e-06 -7.56672e-06 0.110148)
(1.45281e-06 -7.60486e-06 0.110148)
(4.49884e-05 -4.47724e-05 0.104343)
(8.34916e-06 -3.38364e-06 0.107626)
(7.78434e-06 1.5355e-06 0.110139)
(8.35605e-06 1.13283e-06 0.0819658)
(3.1152e-07 2.21778e-06 0.0872755)
(-3.42504e-06 -8.28255e-06 0.10762)
(1.46979e-06 -8.05749e-06 0.110132)
(-2.92379e-05 2.93539e-05 0.104216)
(4.49855e-06 1.18356e-06 0.0927595)
(1.08055e-06 3.34786e-07 0.0911142)
(3.22875e-06 4.94461e-07 0.0983573)
(8.14971e-06 1.55953e-06 0.110132)
(-4.41273e-06 -6.42685e-07 0.0819336)
(2.92982e-05 -2.92804e-05 0.104215)
(3.61904e-06 8.57005e-06 0.10762)
(-3.77815e-07 -1.08547e-06 0.0911146)
(2.75931e-07 -1.09136e-06 0.0911153)
(-2.2081e-06 -1.7436e-06 0.0712762)
(3.55232e-07 -1.08629e-06 0.115438)
(-4.31881e-07 -1.0305e-06 0.115438)
(1.38056e-06 -1.872e-07 0.115429)
(3.43661e-07 1.2243e-06 0.115431)
(-8.32517e-06 -1.1426e-06 0.0819663)
(-1.16792e-05 -2.90915e-07 0.0911424)
(-8.07753e-06 -3.36665e-06 0.107633)
(-1.52515e-05 -5.02318e-06 0.0928035)
(-1.99757e-05 -4.35189e-07 0.0984076)
(-8.28433e-06 -3.42371e-06 0.107625)
(-7.79262e-06 -1.48479e-06 0.11014)
(-7.52965e-06 -1.56783e-06 0.110148)
(-8.35602e-06 1.12018e-06 0.0819661)
(-8.26963e-06 3.48996e-06 0.107623)
(-7.76875e-06 1.50179e-06 0.110139)
(-1.52531e-05 5.00864e-06 0.0928021)
(-8.11651e-06 3.41117e-06 0.107629)
(-7.53388e-06 1.40875e-06 0.110147)
(-3.50438e-06 2.01127e-06 0.0713083)
(-6.89095e-06 4.90073e-06 0.0873033)
(-4.95882e-06 6.90634e-06 0.0873049)
(-2.06945e-06 3.53115e-06 0.0713076)
(-3.42226e-06 8.34806e-06 0.107626)
(-5.23386e-07 1.99487e-05 0.0984075)
(-5.04597e-06 1.52798e-05 0.0928025)
(-3.34827e-06 8.15965e-06 0.107631)
(-1.36263e-06 7.48859e-06 0.110147)
(1.51811e-06 7.77956e-06 0.11014)
(4.12603e-07 1.99688e-05 0.0984076)
(5.00529e-06 1.53305e-05 0.0928026)
(3.54108e-06 8.15813e-06 0.107631)
(1.54214e-06 7.51612e-06 0.110147)
(-1.17617e-06 -4.62394e-06 0.0927473)
(-1.15234e-06 8.37177e-06 0.0819658)
(1.12491e-06 8.43798e-06 0.0819664)
(-6.32839e-07 -4.32767e-06 0.0819181)
(6.92739e-06 4.9419e-06 0.0873049)
(4.93092e-06 6.94509e-06 0.0873033)
(-2.94848e-05 -2.94243e-05 0.104221)
(-2.66968e-07 -2.29143e-06 0.0872605)
(-2.33936e-06 -3.16865e-07 0.0872598)
(-2.22748e-06 -1.79991e-06 0.0712607)
(2.04364e-06 3.54815e-06 0.071308)
(-1.80102e-06 -2.14082e-06 0.0712612)
(-3.29133e-07 -1.17394e-05 0.0911294)
(6.45861e-07 4.37864e-06 0.0819325)
(-3.45402e-07 1.09485e-06 0.0911146)
(-1.73304e-06 2.09858e-06 0.0712742)
(4.38099e-06 6.25246e-07 0.0819335)
(1.09575e-06 -3.11318e-07 0.0911147)
(5.51395e-08 -1.68675e-06 0.115422)
(1.89687e-06 9.4759e-08 0.115421)
(2.2781e-07 1.74731e-06 0.115422)
(8.15123e-06 -1.46899e-06 0.110133)
(2.02929e-05 -4.9934e-07 0.0984134)
(-4.34384e-06 1.19044e-06 0.0927597)
(-3.17011e-06 -4.89298e-07 0.0983577)
(8.52281e-06 -1.55872e-06 0.110125)
(2.16107e-06 -1.75335e-06 0.0712752)
(-3.56037e-06 8.53801e-06 0.10762)
(-5.35314e-07 -3.20865e-06 0.0983574)
(1.18252e-06 -4.40955e-06 0.092759)
(-2.23666e-07 -2.27126e-06 0.0872751)
(-2.2849e-06 -2.15184e-07 0.0872744)
(4.48701e-05 4.49458e-05 0.104336)
(7.03517e-06 5.01981e-06 0.0873197)
(5.02868e-06 7.02281e-06 0.0873181)
(-2.01956e-06 -3.51946e-06 0.071308)
(1.80044e-06 2.14255e-06 0.0712603)
(-3.52359e-06 -2.07854e-06 0.0713084)
(2.94243e-05 2.94231e-05 0.10422)
(-6.87811e-06 -4.98193e-06 0.0873057)
(-4.4889e-05 -4.49222e-05 0.104343)
(-4.90226e-06 -6.94292e-06 0.0873034)
(2.34278e-06 2.80193e-07 0.0872588)
(3.13229e-07 -1.17454e-05 0.0911296)
(-4.66683e-07 -1.99362e-05 0.0984015)
(4.86307e-07 -1.99414e-05 0.0984019)
(-3.46358e-07 1.08091e-06 0.0911017)
(-1.14851e-06 -8.40995e-06 0.0819651)
(6.03503e-07 4.28549e-06 0.0819162)
(-3.27295e-07 -1.1706e-05 0.0911419)
(3.33423e-07 1.07496e-06 0.0911019)
(1.12622e-06 -8.42428e-06 0.0819663)
(-5.70036e-07 4.27166e-06 0.0819163)
(2.96324e-07 -1.17262e-05 0.0911421)
(-3.45931e-06 -8.18573e-06 0.10763)
(-3.51808e-06 -8.30177e-06 0.107623)
(-1.41867e-06 -7.77793e-06 0.11014)
(-4.67382e-07 3.33565e-06 0.098351)
(-5.04565e-06 -1.53186e-05 0.0928011)
(1.13766e-06 4.54266e-06 0.0927453)
(-5.05253e-07 -1.99777e-05 0.0984071)
(1.46978e-06 -7.80947e-06 0.11014)
(3.60654e-06 -8.304e-06 0.107624)
(3.59205e-06 -8.23651e-06 0.107629)
(4.81155e-07 3.335e-06 0.0983513)
(5.02181e-06 -1.52339e-05 0.0928022)
(-1.08415e-06 4.7033e-06 0.0927462)
(4.51116e-07 -1.99987e-05 0.0984074)
(1.95972e-06 -3.50907e-06 0.0713096)
(-1.72362e-06 2.0534e-06 0.0712587)
(-2.95772e-05 2.93813e-05 0.10422)
(4.86642e-06 -6.88284e-06 0.0873046)
(6.88747e-06 -4.98154e-06 0.0873044)
(-2.27077e-06 3.4814e-07 0.0872586)
(-2.35055e-07 2.29683e-06 0.0872614)
(3.51365e-06 -2.09421e-06 0.0713076)
(-2.2117e-06 1.79529e-06 0.0712609)
(7.808e-06 -1.46994e-06 0.11014)
(8.1361e-06 -3.3162e-06 0.107632)
(7.50108e-06 -1.49944e-06 0.110148)
(-3.30394e-06 -4.70834e-07 0.0983516)
(1.53238e-05 -5.02757e-06 0.0928024)
(-4.31109e-06 1.2351e-06 0.0927475)
(2.00007e-05 -4.78106e-07 0.0984074)
(-1.12383e-06 -3.5022e-07 0.0911024)
(8.31782e-06 -1.16547e-06 0.0819659)
(-4.44978e-06 6.49067e-07 0.0819172)
(1.17014e-05 -3.10994e-07 0.0911419)
(8.29249e-06 3.45736e-06 0.107624)
(1.53116e-05 4.99505e-06 0.0928024)
(7.47752e-06 1.47408e-06 0.110147)
(8.08483e-06 3.37565e-06 0.107629)
(-4.42427e-06 -1.20652e-06 0.092747)
(-3.32723e-06 4.87272e-07 0.0983516)
(1.99893e-05 4.66495e-07 0.0984072)
(-4.4489e-06 -6.40568e-07 0.0819174)
(-1.13247e-06 3.40645e-07 0.0911025)
(1.17031e-05 3.02521e-07 0.0911417)
(1.76718e-06 2.21238e-06 0.071276)
(2.17882e-06 1.70592e-06 0.071276)
(2.92269e-05 2.93947e-05 0.104215)
(2.29672e-06 1.80669e-07 0.0872738)
(-6.28385e-07 4.28233e-06 0.0819325)
(3.12286e-07 1.07344e-06 0.0911148)
(-1.5275e-06 -7.99528e-06 0.110132)
(1.19866e-06 4.28545e-06 0.0927577)
(-5.05832e-07 3.21068e-06 0.098357)
(3.62037e-06 -8.43088e-06 0.107619)
(-1.17393e-06 4.40001e-06 0.0927583)
(4.32105e-07 3.19872e-06 0.0983572)
(-2.27158e-06 1.76459e-07 0.0872732)
(-2.57084e-07 2.22624e-06 0.0872763)
(-2.21632e-06 1.7075e-06 0.0712764)
(3.22334e-06 -4.38793e-07 0.0983574)
(-8.45292e-06 -3.48939e-06 0.107622)
(-8.09052e-06 -1.43106e-06 0.110133)
(4.37845e-06 -6.7213e-07 0.0819329)
(-8.4448e-06 3.57291e-06 0.107618)
(-8.07962e-06 1.56866e-06 0.110132)
(4.4113e-06 -1.22844e-06 0.0927581)
(1.18314e-05 -3.08858e-07 0.0911549)
(-4.42748e-06 6.33236e-07 0.0819334)
(-1.08937e-06 -3.54541e-07 0.0911154)
(8.4932e-06 3.58288e-06 0.107619)
(-4.36603e-06 -1.22384e-06 0.0927589)
(2.03006e-05 4.28896e-07 0.0984132)
(8.70099e-06 3.75381e-06 0.107614)
(-3.18218e-06 4.48824e-07 0.0983577)
(8.53392e-06 1.57358e-06 0.110125)
(1.55432e-05 5.02954e-06 0.0928145)
(1.18366e-05 3.00484e-07 0.0911548)
(-1.09412e-06 3.14395e-07 0.0911155)
(8.3654e-06 1.16237e-06 0.0819821)
(2.05512e-07 -2.2917e-06 0.0872736)
(2.26176e-06 -2.53653e-07 0.0872755)
(1.73954e-06 -2.22195e-06 0.0712758)
(1.48384e-06 8.14276e-06 0.110132)
(3.96297e-07 -3.19348e-06 0.0983576)
(-1.21642e-06 -4.3635e-06 0.0927594)
(3.72777e-06 8.79885e-06 0.107615)
(5.0539e-06 1.55486e-05 0.0928147)
(6.51408e-07 -4.39151e-06 0.0819329)
(-6.4815e-07 -4.35358e-06 0.0819343)
(1.18871e-06 8.39663e-06 0.0819827)
(3.5274e-06 2.11813e-06 0.0713235)
(-1.75492e-06 -2.20636e-06 0.0712767)
(2.13669e-06 3.50981e-06 0.0713236)
(1.85297e-06 6.91421e-07 0.0765774)
(-5.15595e-06 2.4412e-08 0.0783814)
(-1.11834e-05 7.70413e-07 0.0896502)
(1.10266e-06 3.70831e-07 0.0911077)
(1.42816e-06 2.817e-07 0.0783504)
(1.66492e-06 7.08256e-07 0.0896104)
(-4.99407e-06 -6.14732e-07 0.0766129)
(-6.85376e-07 -1.82764e-06 0.0765766)
(-7.60986e-07 1.11548e-05 0.0896506)
(-4.2013e-08 5.18315e-06 0.0783807)
(-3.89184e-07 -1.11869e-06 0.0911081)
(-7.14422e-07 -1.65133e-06 0.0896099)
(-2.85538e-07 -1.45964e-06 0.0783512)
(6.15621e-07 4.9488e-06 0.0766138)
(6.32897e-07 -1.90518e-06 0.0765797)
(6.91794e-07 1.12402e-05 0.0896496)
(7.81726e-09 5.21736e-06 0.0783804)
(2.81386e-07 -1.12557e-06 0.0911088)
(6.14983e-07 -1.66436e-06 0.0896119)
(2.50484e-07 -1.49053e-06 0.0783525)
(-6.35953e-07 5.0251e-06 0.0766121)
(-2.22372e-06 -1.76682e-06 0.0712684)
(-2.44983e-06 9.40075e-07 0.0681397)
(-4.43488e-06 -6.44703e-07 0.0819255)
(8.69974e-06 1.24411e-06 0.0855653)
(-2.41603e-06 6.63282e-07 0.0855223)
(3.36224e-06 -4.86051e-07 0.0681839)
(-1.20247e-05 -6.66253e-06 0.0914674)
(4.98134e-06 2.50543e-06 0.0960823)
(9.75938e-07 1.54921e-06 0.081285)
(-6.80069e-06 -4.98804e-06 0.0873125)
(3.40004e-06 4.60987e-07 0.0914365)
(-5.4891e-06 -2.17827e-06 0.0813191)
(-1.69976e-05 -1.00491e-05 0.0961248)
(-5.00688e-06 -6.22418e-07 0.076621)
(1.42164e-06 2.65935e-07 0.0783586)
(1.62809e-06 6.53021e-07 0.0896174)
(-1.16885e-05 2.8332e-07 0.0911492)
(1.84004e-06 6.67575e-07 0.0765855)
(-5.17212e-06 1.69117e-08 0.0783894)
(-1.12294e-05 7.26081e-07 0.0896572)
(3.35777e-06 -4.571e-07 0.0681915)
(-2.3864e-06 6.5865e-07 0.0855302)
(8.36301e-06 1.13794e-06 0.0819739)
(-2.45441e-06 9.60712e-07 0.0681473)
(8.72583e-06 1.24991e-06 0.0855731)
(6.18859e-07 4.96869e-06 0.0766218)
(-6.84706e-07 -1.60844e-06 0.089617)
(-2.74675e-07 -1.44805e-06 0.0783594)
(-3.22792e-07 1.17145e-05 0.0911489)
(-6.69848e-07 -1.8138e-06 0.0765848)
(-7.39587e-07 1.12072e-05 0.0896576)
(-3.03076e-08 5.20136e-06 0.0783887)
(-6.17609e-07 5.03952e-06 0.0766202)
(5.92594e-07 -1.62777e-06 0.089619)
(2.53114e-07 -1.47592e-06 0.0783606)
(2.67889e-07 1.17492e-05 0.0911486)
(6.3192e-07 -1.8917e-06 0.0765878)
(6.9378e-07 1.12814e-05 0.0896567)
(1.47084e-08 5.23292e-06 0.0783884)
(3.53882e-06 2.0827e-06 0.0713156)
(2.42673e-06 -9.64474e-07 0.0681372)
(4.41581e-06 6.32339e-07 0.0819253)
(-8.68761e-06 -1.26579e-06 0.085565)
(2.40547e-06 -6.82476e-07 0.0855213)
(-3.35042e-06 4.75307e-07 0.0681823)
(1.8793e-06 -6.70531e-07 0.0765794)
(-1.12058e-05 -7.59618e-07 0.0896497)
(-5.20834e-06 -2.01122e-08 0.0783807)
(1.11628e-06 -2.92785e-07 0.0911082)
(1.67927e-06 -6.64118e-07 0.0896112)
(1.46306e-06 -2.58795e-07 0.0783517)
(-5.04205e-06 5.9412e-07 0.0766125)
(2.46072e-06 9.55939e-07 0.0681389)
(-8.68892e-06 1.25968e-06 0.0855655)
(4.3791e-06 -6.45053e-07 0.0819248)
(2.42163e-06 6.75085e-07 0.0855213)
(-3.36132e-06 -4.90148e-07 0.0681841)
(2.1488e-06 -1.75107e-06 0.0712674)
(3.46531e-06 -4.91307e-07 0.0914232)
(-1.7113e-05 1.01053e-05 0.0961151)
(-5.61939e-06 2.18617e-06 0.0813084)
(2.53838e-07 -2.27884e-06 0.0872661)
(5.05682e-06 -2.50267e-06 0.0960743)
(9.07015e-07 -1.60106e-06 0.0812748)
(-1.19914e-05 6.76705e-06 0.0914573)
(5.30795e-07 -5.52497e-07 0.0833469)
(-2.00974e-06 2.21582e-06 0.0681144)
(-2.25333e-06 1.98419e-06 0.0681207)
(9.10241e-07 -1.47039e-06 0.0680807)
(1.44879e-06 -9.30945e-07 0.0680867)
(-4.69476e-06 4.64572e-06 0.0833768)
(4.609e-07 -3.46306e-06 0.0914297)
(-1.0125e-05 1.71149e-05 0.0961183)
(-2.22249e-06 5.59579e-06 0.0813141)
(2.28244e-06 -2.9451e-07 0.0872682)
(1.57751e-06 -9.40069e-07 0.0812799)
(2.49975e-06 -5.02768e-06 0.0960772)
(-6.7984e-06 1.19628e-05 0.0914643)
(1.75951e-06 -2.21293e-06 0.0712681)
(-9.84757e-07 -2.38099e-06 0.0681342)
(-1.24032e-06 8.66208e-06 0.0855659)
(6.44e-07 -4.39339e-06 0.0819248)
(-6.85653e-07 -2.37235e-06 0.0855197)
(5.3973e-07 3.28405e-06 0.0681837)
(9.21904e-07 -2.45751e-06 0.06814)
(1.21762e-06 8.74521e-06 0.0855658)
(-6.54013e-07 -4.33201e-06 0.0819262)
(6.48261e-07 -2.36551e-06 0.0855228)
(-5.17169e-07 3.36087e-06 0.0681842)
(-5.10946e-07 3.36135e-06 0.0681767)
(1.1367e-06 8.46651e-06 0.0819584)
(6.87942e-07 -2.38021e-06 0.085515)
(9.33118e-07 -2.45934e-06 0.0681324)
(1.25615e-06 8.73832e-06 0.085558)
(-3.39648e-06 -4.16383e-07 0.0914287)
(1.71874e-05 1.01121e-05 0.0961189)
(5.57865e-06 2.18418e-06 0.0813143)
(-2.84748e-07 -2.28337e-06 0.0872678)
(-9.06427e-07 -1.55722e-06 0.0812783)
(1.20052e-05 6.79307e-06 0.0914653)
(-4.97777e-06 -2.47483e-06 0.0960776)
(-4.68402e-07 -5.4138e-07 0.0833454)
(2.00632e-06 2.1863e-06 0.0681209)
(2.26129e-06 1.98955e-06 0.0681151)
(-8.59948e-07 -1.42539e-06 0.0680835)
(-1.43794e-06 -9.76826e-07 0.0680801)
(4.71092e-06 4.65203e-06 0.0833781)
(-4.90095e-07 -3.4131e-06 0.0914229)
(1.00555e-05 1.71304e-05 0.0961153)
(2.20702e-06 5.62439e-06 0.0813095)
(-2.32262e-06 -2.54252e-07 0.0872671)
(-2.56234e-06 -5.01826e-06 0.0960747)
(-1.58667e-06 -9.19536e-07 0.0812748)
(6.73858e-06 1.20054e-05 0.0914586)
(1.20208e-05 6.79767e-06 0.0914592)
(6.88338e-06 4.9359e-06 0.0872976)
(-4.97412e-06 -2.46231e-06 0.0960735)
(-8.58187e-07 -1.54073e-06 0.0812709)
(5.59077e-06 2.19307e-06 0.081307)
(1.71764e-05 1.01024e-05 0.0961148)
(-3.39429e-06 -3.76084e-07 0.091423)
(4.68392e-06 4.65219e-06 0.083371)
(-8.50401e-07 -1.40282e-06 0.0680771)
(-1.47832e-06 -1.00927e-06 0.0680737)
(2.0241e-06 2.21859e-06 0.0681141)
(2.23434e-06 1.95354e-06 0.0681088)
(-5.19023e-07 -5.20091e-07 0.0833388)
(6.69894e-06 1.20162e-05 0.0914526)
(4.90775e-06 6.91459e-06 0.0872961)
(-2.62865e-06 -5.06436e-06 0.0960702)
(-1.63442e-06 -9.7962e-07 0.0812675)
(1.00073e-05 1.70989e-05 0.096111)
(2.16687e-06 5.5898e-06 0.0813022)
(-5.67954e-07 -3.40987e-06 0.0914171)
(3.52722e-06 2.03926e-06 0.0713002)
(-1.79534e-06 -2.17022e-06 0.0712689)
(2.02111e-06 3.59364e-06 0.0713003)
(-6.95825e-07 1.89764e-06 0.0765625)
(-3.76161e-08 -5.19547e-06 0.0783647)
(-7.99108e-07 -1.12412e-05 0.0896356)
(-3.53049e-07 1.08072e-06 0.0910953)
(-2.77667e-07 1.47157e-06 0.0783355)
(-7.12451e-07 1.63697e-06 0.0895967)
(5.70757e-07 -4.9938e-06 0.0765965)
(4.92611e-07 -3.35966e-06 0.0681893)
(-6.5783e-07 2.3818e-06 0.0855282)
(-1.12126e-06 -8.33352e-06 0.0819732)
(-9.44261e-07 2.44553e-06 0.0681444)
(-1.23793e-06 -8.69226e-06 0.0855723)
(6.06038e-07 -5.03677e-06 0.0766203)
(-3.1806e-07 -1.172e-05 0.0911484)
(-2.69393e-07 1.47792e-06 0.0783602)
(-6.70427e-07 1.65717e-06 0.0896178)
(-6.58427e-07 1.89841e-06 0.0765872)
(-2.93941e-08 -5.22266e-06 0.0783885)
(-7.54774e-07 -1.1232e-05 0.0896563)
(1.98587e-06 -3.46987e-06 0.0713173)
(-3.3536e-06 4.59e-07 0.0681895)
(2.38539e-06 -6.75178e-07 0.0855293)
(-8.36907e-06 -1.15377e-06 0.0819743)
(2.45124e-06 -9.6316e-07 0.0681452)
(-8.71953e-06 -1.27248e-06 0.0855727)
(-5.05669e-06 5.94847e-07 0.0766204)
(1.65544e-06 -6.57933e-07 0.0896183)
(1.4593e-06 -2.64589e-07 0.0783599)
(-1.17173e-05 -3.05689e-07 0.0911488)
(1.88165e-06 -6.6681e-07 0.0765876)
(-1.12536e-05 -7.5878e-07 0.0896566)
(-5.22153e-06 -2.12574e-08 0.0783887)
(-3.50345e-06 2.02579e-06 0.0713157)
(1.20375e-05 6.82958e-06 0.0914713)
(-4.91794e-06 -2.42389e-06 0.0960818)
(-8.85992e-07 -1.55638e-06 0.0812857)
(6.99708e-06 4.9682e-06 0.0873122)
(-3.36309e-06 -3.84927e-07 0.0914347)
(1.72512e-05 1.01753e-05 0.0961231)
(5.60633e-06 2.19609e-06 0.0813219)
(4.74048e-06 4.66903e-06 0.0833852)
(-8.45283e-07 -1.43171e-06 0.06809)
(-1.42219e-06 -9.53666e-07 0.0680865)
(-4.31123e-07 -5.15059e-07 0.0833523)
(2.00609e-06 2.16469e-06 0.0681278)
(2.26775e-06 1.9985e-06 0.0681216)
(6.78736e-06 1.20339e-05 0.0914645)
(-2.49222e-06 -4.92147e-06 0.0960791)
(-1.55535e-06 -8.90644e-07 0.0812822)
(4.97024e-06 6.99367e-06 0.0873107)
(-4.46943e-07 -3.38567e-06 0.0914289)
(1.01249e-05 1.72245e-05 0.0961196)
(2.23263e-06 5.6432e-06 0.0813168)
(-3.89224e-07 -4.82923e-07 0.0833591)
(2.00628e-06 2.16196e-06 0.0681346)
(2.28134e-06 1.99821e-06 0.0681283)
(-8.20963e-07 -1.42322e-06 0.0680965)
(-1.411e-06 -9.49735e-07 0.0680931)
(4.76335e-06 4.67992e-06 0.0833923)
(-3.30165e-06 -3.36613e-07 0.0914406)
(-1.61345e-07 -2.22523e-06 0.0872826)
(5.62694e-06 2.22403e-06 0.0813295)
(1.73411e-05 1.02453e-05 0.0961274)
(-4.81315e-06 -2.34062e-06 0.0960861)
(-8.46158e-07 -1.53135e-06 0.0812931)
(1.20787e-05 6.86471e-06 0.0914774)
(-3.8538e-07 -3.3375e-06 0.0914349)
(-2.23038e-06 -1.63341e-07 0.0872818)
(2.27478e-06 5.648e-06 0.0813244)
(1.0209e-05 1.73242e-05 0.096124)
(-2.40006e-06 -4.79618e-06 0.0960835)
(-1.52174e-06 -8.73077e-07 0.0812897)
(6.8505e-06 1.20664e-05 0.0914705)
(1.78662e-06 2.18813e-06 0.0712683)
(-1.9978e-06 -3.5562e-06 0.0713003)
(2.15384e-06 1.72116e-06 0.071268)
(3.35876e-06 3.80185e-07 0.0914302)
(2.70441e-07 2.22164e-06 0.0872683)
(-1.72002e-05 -1.00944e-05 0.096121)
(-5.5259e-06 -2.22046e-06 0.081312)
(4.90972e-06 2.50982e-06 0.0960786)
(9.58664e-07 1.51952e-06 0.0812778)
(-1.20728e-05 -6.83917e-06 0.0914629)
(5.64158e-07 3.51537e-06 0.0914247)
(-1.01399e-05 -1.71148e-05 0.096115)
(2.32732e-06 2.93874e-07 0.0872663)
(-2.15692e-06 -5.66629e-06 0.0813114)
(1.59886e-06 8.44505e-07 0.0812772)
(2.55348e-06 5.08152e-06 0.0960721)
(-6.75283e-06 -1.19331e-05 0.0914576)
(-6.6751e-06 -1.19415e-05 0.0914521)
(2.62691e-06 5.05314e-06 0.0960677)
(1.62262e-06 8.46184e-07 0.0812699)
(-4.88782e-06 -6.88886e-06 0.0872959)
(6.14294e-07 3.4897e-06 0.0914185)
(-2.13888e-06 -5.63269e-06 0.0813043)
(-1.0035e-05 -1.70692e-05 0.09611)
(3.75872e-07 7.0219e-07 0.0833494)
(-2.06083e-06 -2.15561e-06 0.068117)
(-2.3355e-06 -1.96243e-06 0.068117)
(1.36272e-06 1.00461e-06 0.0680847)
(8.47195e-07 1.54044e-06 0.0680843)
(-4.85141e-06 -4.54352e-06 0.0833742)
(7.00364e-07 1.8915e-06 0.0765631)
(2.7792e-08 -5.20764e-06 0.0783648)
(8.21009e-07 -1.12614e-05 0.0896356)
(3.28606e-07 1.08459e-06 0.0910955)
(2.70795e-07 1.46127e-06 0.0783357)
(7.19854e-07 1.66447e-06 0.0895976)
(-5.65511e-07 -5.04315e-06 0.0765958)
(5.82184e-07 -4.99392e-06 0.0766044)
(-2.73698e-07 1.48205e-06 0.0783437)
(-7.04485e-07 1.64246e-06 0.0896036)
(-3.26254e-07 -1.17224e-05 0.0911357)
(-6.87389e-07 1.90604e-06 0.0765707)
(-3.59805e-08 -5.1916e-06 0.0783726)
(-7.90711e-07 -1.12211e-05 0.0896424)
(-9.55362e-07 2.43764e-06 0.0681365)
(6.24654e-07 4.33346e-06 0.0819245)
(-1.2606e-06 -8.69667e-06 0.0855645)
(5.00109e-07 -3.33482e-06 0.0681821)
(-6.92002e-07 2.36957e-06 0.0855203)
(4.95688e-07 -3.32395e-06 0.0681748)
(-7.24038e-07 2.34708e-06 0.0855122)
(-1.17023e-06 -8.47261e-06 0.081957)
(-9.75381e-07 2.42999e-06 0.0681286)
(-1.28615e-06 -8.71984e-06 0.0855567)
(-6.72051e-07 1.90853e-06 0.076579)
(-3.47198e-07 1.09561e-06 0.0911081)
(-3.49152e-08 -5.19762e-06 0.0783806)
(-7.73778e-07 -1.12069e-05 0.0896492)
(5.97116e-07 -5.00515e-06 0.0766123)
(-2.72191e-07 1.48658e-06 0.0783519)
(-6.89865e-07 1.66195e-06 0.0896107)
(-5.73933e-07 -5.02803e-06 0.0766038)
(2.72955e-07 1.47456e-06 0.0783439)
(7.17112e-07 1.64713e-06 0.0896046)
(3.10988e-07 -1.17366e-05 0.0911358)
(7.01241e-07 1.90056e-06 0.0765712)
(2.78606e-08 -5.19955e-06 0.0783727)
(8.00323e-07 -1.12569e-05 0.0896424)
(9.62242e-07 2.46989e-06 0.0681394)
(-6.00427e-07 4.25987e-06 0.0819243)
(1.26567e-06 -8.73291e-06 0.0855652)
(7.13988e-07 2.36602e-06 0.085522)
(-4.78112e-07 -3.34966e-06 0.0681837)
(-4.59345e-07 -3.3476e-06 0.0681761)
(7.50267e-07 2.37157e-06 0.0855142)
(1.16484e-06 -8.44677e-06 0.0819582)
(9.79127e-07 2.47118e-06 0.0681317)
(1.31375e-06 -8.74018e-06 0.0855574)
(6.82663e-07 1.90676e-06 0.0765793)
(3.25069e-07 1.08017e-06 0.0911083)
(2.42639e-08 -5.20322e-06 0.0783807)
(7.56205e-07 -1.12521e-05 0.0896493)
(2.69643e-07 1.48157e-06 0.0783521)
(6.83674e-07 1.64266e-06 0.0896115)
(-5.94256e-07 -5.02458e-06 0.0766119)
(-1.7445e-06 2.05906e-06 0.0712664)
(1.97199e-06 -3.54435e-06 0.0713019)
(4.70134e-06 -4.63395e-06 0.0833704)
(-1.47758e-06 1.01274e-06 0.0680753)
(-9.22157e-07 1.37069e-06 0.0680785)
(2.21555e-06 -1.91722e-06 0.0681097)
(2.01337e-06 -2.28251e-06 0.0681128)
(-5.39091e-07 5.33406e-07 0.0833395)
(-5.57572e-07 3.43362e-06 0.0914228)
(1.00425e-05 -1.71071e-05 0.0961156)
(-2.28186e-06 2.20758e-07 0.0872658)
(2.14689e-06 -5.61421e-06 0.0813106)
(-2.57774e-06 5.06175e-06 0.0960736)
(-1.59232e-06 8.37299e-07 0.0812745)
(6.71198e-06 -1.19758e-05 0.091459)
(-3.43366e-06 3.88643e-07 0.0914298)
(1.71823e-05 -1.01613e-05 0.0961188)