/*--------------------------------*- C++ -*----------------------------------*\
| =========                 |                                                 |
| \\      /  F ield         | OpenFOAM: The Open Source CFD Toolbox           |
|  \\    /   O peration     | Version:  v2012                                 |
|   \\  /    A nd           | Website:  www.openfoam.com                      |
|    \\/     M anipulation  |                                                 |
\*---------------------------------------------------------------------------*/
FoamFile
{
    version     2.0;
    format      ascii;
    class       volScalarField;
    location    "1050";
    object      k;
}
// * * * * * * * * * * * * * * * * * * * * * * * * * * * * * * * * * * * * * //

dimensions      [0 2 -2 0 0 0 0];


internalField   nonuniform List<scalar> 
171728
(
1.77934e-07
3.16004e-07
2.61165e-07
3.48745e-07
1.76187e-07
2.98892e-07
2.4781e-07
3.34123e-07
1.69699e-07
2.82765e-07
2.34816e-07
3.12802e-07
1.64684e-07
2.69252e-07
2.23279e-07
2.90158e-07
1.60802e-07
2.56733e-07
2.12835e-07
2.75679e-07
1.56421e-07
2.45828e-07
2.0336e-07
2.62257e-07
1.50528e-07
2.3805e-07
1.95172e-07
2.50414e-07
1.44188e-07
2.34407e-07
1.87968e-07
2.40599e-07
1.4013e-07
2.33849e-07
1.81802e-07
2.32919e-07
1.3706e-07
2.33046e-07
1.76405e-07
2.25906e-07
1.34107e-07
2.34756e-07
1.72474e-07
2.18929e-07
1.31495e-07
2.40255e-07
1.68865e-07
2.13208e-07
1.29137e-07
2.44513e-07
1.65653e-07
2.08136e-07
1.27294e-07
2.41411e-07
1.65296e-07
2.02964e-07
1.25639e-07
2.23207e-07
1.68445e-07
1.9973e-07
1.2438e-07
2.09516e-07
1.75388e-07
2.00949e-07
1.23324e-07
2.07775e-07
1.8806e-07
2.08021e-07
1.21839e-07
2.18745e-07
2.09231e-07
2.26705e-07
1.20194e-07
2.44276e-07
2.40369e-07
2.68958e-07
1.191e-07
2.95789e-07
2.89802e-07
3.43967e-07
1.18669e-07
3.665e-07
3.67411e-07
4.70256e-07
1.19002e-07
4.6533e-07
4.81657e-07
7.02578e-07
1.21737e-07
6.693e-07
6.52922e-07
1.1401e-06
1.26628e-07
9.06272e-07
8.74185e-07
1.67518e-06
1.29138e-07
1.17756e-06
1.20869e-06
2.5936e-06
1.22458e-07
1.79102e-06
1.63654e-06
4.00376e-06
1.21458e-07
2.22035e-06
2.11914e-06
5.56899e-06
1.27562e-07
2.98196e-06
2.79944e-06
7.62739e-06
1.43054e-07
3.6115e-06
3.51259e-06
9.46459e-06
1.62913e-07
4.76736e-06
4.25538e-06
1.33514e-05
2.1284e-07
5.57591e-06
5.76393e-06
1.56261e-05
2.25573e-07
6.32576e-06
6.13528e-06
1.52908e-05
3.5928e-07
8.42022e-06
7.88179e-06
2.04202e-05
4.50986e-07
9.25699e-06
9.30751e-06
2.21212e-05
4.6246e-07
9.84934e-06
1.05018e-05
2.2706e-05
6.48906e-07
1.3016e-05
1.18999e-05
2.56346e-05
9.46491e-07
1.37154e-05
1.41178e-05
2.68393e-05
1.12527e-06
1.43568e-05
1.53601e-05
2.71778e-05
1.40923e-06
1.79342e-05
1.72521e-05
2.95016e-05
1.74253e-06
1.87667e-05
1.8899e-05
3.06845e-05
2.32919e-06
2.11035e-05
2.11517e-05
3.17764e-05
2.82201e-06
2.28416e-05
2.25924e-05
3.27453e-05
3.19107e-06
2.39508e-05
2.45262e-05
3.41779e-05
4.27047e-06
2.64434e-05
2.59831e-05
3.4574e-05
4.96491e-06
2.73909e-05
2.84797e-05
3.65105e-05
5.93864e-06
3.04744e-05
2.96226e-05
3.79323e-05
6.87568e-06
3.10306e-05
2.96317e-05
3.80776e-05
7.53988e-06
3.21947e-05
3.39505e-05
3.84902e-05
9.80995e-06
3.44832e-05
3.53941e-05
4.12583e-05
1.08178e-05
3.53878e-05
3.51541e-05
4.18524e-05
1.1833e-05
3.70439e-05
3.55367e-05
4.14482e-05
1.29294e-05
3.74626e-05
3.8548e-05
4.24064e-05
1.50021e-05
3.96496e-05
4.01154e-05
4.56928e-05
1.77796e-05
4.14736e-05
4.09272e-05
4.57456e-05
1.86767e-05
4.09716e-05
4.0431e-05
4.345e-05
1.8523e-05
4.10888e-05
4.09023e-05
4.59745e-05
2.11396e-05
4.44796e-05
4.49516e-05
4.86855e-05
2.3464e-05
4.46225e-05
4.52207e-05
4.79356e-05
2.4225e-05
4.45937e-05
4.47396e-05
4.85734e-05
2.62268e-05
4.6722e-05
4.61585e-05
5.01452e-05
2.80284e-05
4.74177e-05
4.77938e-05
5.00245e-05
2.85337e-05
4.70233e-05
4.74619e-05
4.88177e-05
2.83764e-05
4.75184e-05
4.71615e-05
5.02512e-05
3.11456e-05
5.04161e-05
4.99687e-05
5.33708e-05
3.35352e-05
5.07272e-05
5.10559e-05
5.31954e-05
3.39475e-05
4.98466e-05
5.05568e-05
5.1892e-05
3.39055e-05
5.03362e-05
5.05131e-05
5.28952e-05
3.5141e-05
5.25521e-05
5.19456e-05
5.43268e-05
3.63974e-05
5.26365e-05
5.21493e-05
5.35847e-05
3.77958e-05
5.24159e-05
5.2552e-05
5.39141e-05
3.88651e-05
5.35116e-05
5.39107e-05
5.61285e-05
3.94811e-05
5.39102e-05
5.43927e-05
5.58163e-05
3.95753e-05
5.3796e-05
5.37321e-05
5.44236e-05
4.09382e-05
5.4597e-05
5.32406e-05
5.53019e-05
4.19784e-05
5.52149e-05
5.50116e-05
5.70345e-05
4.21225e-05
5.52228e-05
5.65743e-05
5.70418e-05
4.22018e-05
5.55357e-05
5.65441e-05
5.69706e-05
4.41716e-05
5.61006e-05
5.54879e-05
5.68957e-05
4.49926e-05
5.60151e-05
5.49592e-05
5.6397e-05
4.45817e-05
5.6058e-05
5.60831e-05
5.74655e-05
4.44814e-05
5.68917e-05
5.74989e-05
5.8469e-05
4.51057e-05
5.70387e-05
5.71453e-05
5.78396e-05
4.53628e-05
5.62647e-05
5.60681e-05
5.69514e-05
4.61473e-05
5.61733e-05
5.65769e-05
5.74774e-05
4.72117e-05
5.7867e-05
5.80464e-05
5.90772e-05
4.70747e-05
5.80951e-05
5.79315e-05
5.93004e-05
4.55564e-05
5.64314e-05
5.61581e-05
5.72426e-05
4.52492e-05
5.6126e-05
5.57583e-05
5.64554e-05
4.75604e-05
5.78665e-05
5.80572e-05
5.87895e-05
4.83945e-05
5.79762e-05
5.85853e-05
5.95949e-05
4.66488e-05
5.60457e-05
5.63563e-05
5.76185e-05
4.56464e-05
5.58495e-05
5.57781e-05
5.70508e-05
4.67498e-05
5.77414e-05
5.71401e-05
5.8443e-05
4.76047e-05
5.78406e-05
5.72529e-05
5.82087e-05
4.64659e-05
5.47379e-05
5.50982e-05
5.66007e-05
3.61905e-07
3.16961e-07
3.39138e-07
3.45961e-07
3.33745e-07
3.25483e-07
1.74671e-07
1.68919e-07
1.66091e-07
1.68152e-07
3.011e-07
3.33095e-07
3.57152e-07
2.96381e-07
3.0393e-07
3.5097e-07
3.60003e-07
3.49055e-07
2.96127e-07
3.66817e-07
2.87301e-07
3.58737e-07
3.44516e-07
3.28966e-07
6.42932e-07
5.946e-07
6.1601e-07
6.09128e-07
7.86084e-07
3.0344e-07
6.43748e-07
3.56056e-07
3.49147e-07
2.52077e-07
2.51226e-07
2.46379e-07
3.36845e-07
3.46053e-07
3.30446e-07
2.8381e-07
3.55492e-07
2.73839e-07
3.48409e-07
3.2639e-07
3.13216e-07
6.03494e-07
6.09696e-07
5.32695e-07
5.95784e-07
5.65223e-07
2.86562e-07
3.67549e-07
3.4709e-07
3.3633e-07
2.44203e-07
2.37943e-07
2.39406e-07
3.14747e-07
3.27059e-07
3.14312e-07
2.70679e-07
3.46726e-07
2.61782e-07
3.45336e-07
3.10761e-07
2.9997e-07
5.06194e-07
5.77525e-07
4.55468e-07
5.04866e-07
3.24671e-07
2.72407e-07
2.5812e-07
3.33449e-07
3.14637e-07
2.38212e-07
2.26053e-07
2.35277e-07
2.91263e-07
3.11598e-07
3.02987e-07
2.5893e-07
3.45431e-07
2.50826e-07
3.4759e-07
2.97889e-07
2.89288e-07
4.49811e-07
4.76398e-07
4.48497e-07
3.84941e-07
2.48178e-07
2.59846e-07
2.32982e-07
3.12921e-07
2.92779e-07
2.3451e-07
2.15302e-07
2.32505e-07
2.7635e-07
3.01353e-07
2.93885e-07
2.4817e-07
3.4897e-07
2.40579e-07
3.53221e-07
2.87448e-07
2.8044e-07
4.50566e-07
3.57603e-07
4.52411e-07
3.01815e-07
2.30392e-07
2.4831e-07
2.2495e-07
2.91112e-07
2.72157e-07
2.31753e-07
2.05669e-07
2.28769e-07
2.62948e-07
2.9125e-07
2.78027e-07
2.38113e-07
3.55131e-07
2.30474e-07
3.62789e-07
2.78868e-07
2.74133e-07
4.48932e-07
2.91671e-07
3.99263e-07
2.77969e-07
2.23407e-07
2.39556e-07
2.19338e-07
2.70929e-07
2.5673e-07
2.27609e-07
1.96983e-07
2.23752e-07
2.5102e-07
2.76255e-07
2.60068e-07
2.28059e-07
3.65418e-07
2.21406e-07
3.72666e-07
2.73023e-07
2.70334e-07
3.7691e-07
2.76448e-07
3.0277e-07
2.7602e-07
2.18198e-07
2.3506e-07
2.15587e-07
2.56085e-07
2.48572e-07
2.22479e-07
1.89735e-07
2.1858e-07
2.41077e-07
2.58659e-07
2.42716e-07
2.19485e-07
3.7447e-07
2.14675e-07
3.76372e-07
2.69381e-07
2.66968e-07
2.81121e-07
2.77757e-07
2.38272e-07
2.91413e-07
2.14935e-07
2.33881e-07
2.13308e-07
2.48294e-07
2.42661e-07
2.17109e-07
1.83262e-07
2.12346e-07
2.33239e-07
2.41711e-07
2.30839e-07
2.13372e-07
3.75842e-07
2.10266e-07
3.53224e-07
2.65889e-07
2.5982e-07
2.29671e-07
2.94672e-07
2.13576e-07
3.11133e-07
2.12705e-07
2.33033e-07
2.10523e-07
2.42827e-07
2.43451e-07
2.10714e-07
1.77664e-07
2.06122e-07
2.26214e-07
2.30375e-07
2.21808e-07
2.09159e-07
3.40449e-07
2.0533e-07
2.96008e-07
2.57914e-07
2.41086e-07
2.10163e-07
3.19907e-07
2.02376e-07
3.50104e-07
2.09733e-07
2.33793e-07
2.068e-07
2.44107e-07
2.46536e-07
2.04819e-07
1.73284e-07
2.01216e-07
2.19146e-07
2.21481e-07
2.1368e-07
2.04039e-07
2.80896e-07
1.99612e-07
2.41706e-07
2.39056e-07
2.23974e-07
2.00203e-07
3.59759e-07
1.94611e-07
3.81278e-07
2.05756e-07
2.3887e-07
2.02515e-07
2.47515e-07
2.48711e-07
2.00204e-07
1.69827e-07
1.98031e-07
2.13286e-07
2.13456e-07
2.06111e-07
1.98279e-07
2.31138e-07
1.93995e-07
2.04433e-07
2.23186e-07
2.14649e-07
1.9295e-07
3.84602e-07
1.87991e-07
3.84201e-07
2.01418e-07
2.43835e-07
1.98958e-07
2.48804e-07
2.3271e-07
1.97549e-07
1.66402e-07
1.96027e-07
2.0813e-07
2.06049e-07
1.99897e-07
1.92847e-07
1.96523e-07
1.90942e-07
1.7575e-07
2.1423e-07
2.04857e-07
1.86411e-07
3.76081e-07
1.83026e-07
3.1402e-07
1.98342e-07
2.44091e-07
1.9709e-07
2.30691e-07
2.11563e-07
1.9542e-07
1.6513e-07
1.94128e-07
2.02872e-07
2.00065e-07
1.95931e-07
1.90865e-07
1.70481e-07
1.91672e-07
1.57362e-07
2.04559e-07
1.94919e-07
1.82114e-07
2.96277e-07
1.79876e-07
2.54846e-07
1.96941e-07
2.27821e-07
1.96767e-07
2.1092e-07
2.00474e-07
1.94167e-07
1.67156e-07
1.94583e-07
1.99138e-07
1.9642e-07
1.95749e-07
1.92407e-07
1.54328e-07
1.96988e-07
1.53679e-07
1.95175e-07
1.90125e-07
1.79927e-07
2.45255e-07
1.81712e-07
2.24427e-07
1.96865e-07
2.12132e-07
1.98073e-07
2.00721e-07
1.97468e-07
1.94966e-07
1.73277e-07
1.97462e-07
1.99479e-07
1.97406e-07
2.01146e-07
1.99107e-07
1.54977e-07
2.08443e-07
1.63265e-07
1.91266e-07
1.92895e-07
1.83869e-07
2.20877e-07
1.91476e-07
2.14236e-07
1.98969e-07
2.07093e-07
2.035e-07
1.98853e-07
2.00329e-07
1.99167e-07
1.84756e-07
2.07704e-07
2.04783e-07
2.04333e-07
2.16645e-07
2.12179e-07
1.67585e-07
2.28926e-07
1.75761e-07
1.96124e-07
2.04835e-07
1.94883e-07
2.14352e-07
2.0841e-07
2.21027e-07
2.06339e-07
2.14461e-07
2.16547e-07
2.02792e-07
2.13152e-07
2.10496e-07
2.02586e-07
2.23314e-07
2.19409e-07
2.24029e-07
2.51726e-07
2.36615e-07
1.79769e-07
2.63168e-07
2.03139e-07
2.10921e-07
2.33938e-07
2.15755e-07
2.25569e-07
2.42004e-07
2.44105e-07
2.21834e-07
2.39242e-07
2.42833e-07
2.19794e-07
2.4272e-07
2.31201e-07
2.30929e-07
2.68947e-07
2.56278e-07
2.64548e-07
3.16393e-07
2.7578e-07
2.09545e-07
3.17321e-07
2.50948e-07
2.45725e-07
2.95871e-07
2.52223e-07
2.52079e-07
2.97425e-07
2.82814e-07
2.52096e-07
2.8003e-07
2.82863e-07
2.54148e-07
3.0088e-07
2.85964e-07
2.76157e-07
3.45219e-07
3.18771e-07
3.38894e-07
4.35212e-07
3.33321e-07
2.65808e-07
4.01704e-07
3.08757e-07
3.17942e-07
4.03572e-07
3.15069e-07
2.93273e-07
3.81798e-07
3.45012e-07
3.00814e-07
3.36848e-07
3.48422e-07
3.20485e-07
4.11523e-07
3.72991e-07
3.45882e-07
4.47159e-07
4.38306e-07
4.73464e-07
6.43443e-07
4.23028e-07
3.40314e-07
5.19128e-07
4.15475e-07
4.42203e-07
6.05476e-07
4.15218e-07
3.66129e-07
4.96036e-07
4.44884e-07
3.71585e-07
4.43572e-07
4.53491e-07
4.49586e-07
6.14068e-07
4.78646e-07
4.50338e-07
5.77127e-07
6.48588e-07
7.05367e-07
1.02717e-06
5.59056e-07
4.33667e-07
6.77523e-07
5.88262e-07
6.48434e-07
9.95178e-07
5.47525e-07
4.77592e-07
6.9983e-07
5.97706e-07
4.82674e-07
6.23845e-07
6.1058e-07
6.7269e-07
9.65878e-07
6.08547e-07
6.03978e-07
7.48596e-07
1.03102e-06
1.10837e-06
1.63552e-06
7.3529e-07
6.45438e-07
9.06953e-07
7.9948e-07
1.13626e-06
1.5258e-06
7.40924e-07
6.44677e-07
1.00677e-06
8.06282e-07
6.58866e-07
8.23403e-07
8.16988e-07
1.06819e-06
1.47844e-06
8.00044e-07
8.06526e-07
9.09005e-07
1.55797e-06
1.80114e-06
2.45968e-06
9.79324e-07
8.67716e-07
1.20794e-06
1.00471e-06
1.64146e-06
2.24019e-06
1.06335e-06
8.76192e-07
1.31643e-06
1.12e-06
8.75722e-07
1.09385e-06
1.0984e-06
1.6153e-06
2.40964e-06
9.49186e-07
1.11579e-06
1.18832e-06
2.37345e-06
2.70453e-06
3.84619e-06
1.31343e-06
1.11306e-06
1.62462e-06
1.60816e-06
2.40864e-06
4.01351e-06
1.46218e-06
1.21365e-06
1.71577e-06
1.54888e-06
1.20045e-06
1.66395e-06
1.49507e-06
2.62651e-06
3.66749e-06
1.29827e-06
1.53112e-06
1.57296e-06
3.73211e-06
4.01782e-06
4.99849e-06
1.67336e-06
1.70736e-06
2.06723e-06
1.92266e-06
4.46437e-06
5.12728e-06
1.77161e-06
1.65265e-06
2.10525e-06
2.00223e-06
1.57053e-06
2.0517e-06
2.04651e-06
3.95035e-06
5.03389e-06
1.64471e-06
1.9585e-06
2.08693e-06
5.15735e-06
5.47786e-06
7.48939e-06
2.30698e-06
2.06122e-06
2.72272e-06
2.65401e-06
5.31278e-06
7.42573e-06
2.25952e-06
2.18046e-06
2.70749e-06
2.71205e-06
2.17418e-06
2.82027e-06
2.58311e-06
5.36241e-06
7.40047e-06
2.21553e-06
2.63351e-06
2.60966e-06
7.35266e-06
7.77203e-06
9.21368e-06
2.7887e-06
2.78065e-06
3.29997e-06
3.20237e-06
7.92928e-06
9.12633e-06
2.86488e-06
2.88467e-06
3.38599e-06
3.45667e-06
2.80678e-06
3.34099e-06
3.17244e-06
7.848e-06
9.43079e-06
2.82513e-06
3.32907e-06
3.17585e-06
8.98522e-06
9.75186e-06
1.20425e-05
3.51979e-06
3.42715e-06
4.21975e-06
4.29342e-06
9.53506e-06
1.21933e-05
3.63236e-06
3.63992e-06
4.19418e-06
4.1586e-06
3.26014e-06
4.57248e-06
4.32399e-06
9.83244e-06
1.16886e-05
3.25979e-06
4.01726e-06
4.30387e-06
1.2264e-05
1.25123e-05
1.47129e-05
4.53754e-06
4.47778e-06
5.62693e-06
5.20353e-06
1.28773e-05
1.46736e-05
4.29855e-06
4.42681e-06
5.27776e-06
5.61654e-06
4.83014e-06
5.365e-06
5.54006e-06
1.22085e-05
1.49858e-05
4.79533e-06
5.44918e-06
5.49124e-06
1.55767e-05
1.52526e-05
1.63896e-05
5.82377e-06
5.5649e-06
5.94914e-06
6.06316e-06
1.49969e-05
1.64069e-05
5.62574e-06
5.90591e-06
6.0134e-06
6.18078e-06
5.55287e-06
6.0427e-06
5.6316e-06
1.56484e-05
1.67084e-05
5.50363e-06
6.0464e-06
5.59267e-06
1.49966e-05
1.6654e-05
1.90731e-05
6.01216e-06
6.17809e-06
7.50007e-06
7.72966e-06
1.69276e-05
1.96625e-05
6.16001e-06
6.29876e-06
7.80461e-06
7.39047e-06
5.88374e-06
7.83539e-06
7.52075e-06
1.68987e-05
1.85353e-05
5.87862e-06
7.32176e-06
7.37745e-06
1.95608e-05
1.99787e-05
2.17616e-05
8.25323e-06
8.48492e-06
9.59841e-06
9.6615e-06
2.03128e-05
2.14401e-05
8.35359e-06
7.88795e-06
9.2596e-06
9.0735e-06
8.05811e-06
9.24034e-06
9.64687e-06
1.92857e-05
2.16745e-05
7.86816e-06
9.0671e-06
9.45755e-06
2.19014e-05
2.19127e-05
2.21277e-05
9.66909e-06
9.68914e-06
9.66149e-06
9.77541e-06
2.16012e-05
2.21718e-05
9.50828e-06
9.37172e-06
1.02296e-05
1.03182e-05
9.93598e-06
9.41376e-06
1.00201e-05
2.20486e-05
2.285e-05
9.75829e-06
1.01807e-05
9.92015e-06
2.24481e-05
2.24101e-05
2.45572e-05
9.72088e-06
1.01133e-05
1.16369e-05
1.30829e-05
2.26724e-05
2.55622e-05
1.03697e-05
1.05841e-05
1.10992e-05
1.13373e-05
1.00308e-05
1.23912e-05
1.17865e-05
2.31428e-05
2.42877e-05
9.96746e-06
1.1464e-05
1.16384e-05
2.48995e-05
2.51302e-05
2.65155e-05
1.24413e-05
1.36926e-05
1.38795e-05
1.40695e-05
2.59159e-05
2.60841e-05
1.16423e-05
1.17738e-05
1.38329e-05
1.35584e-05
1.30743e-05
1.37174e-05
1.4984e-05
2.47398e-05
2.6421e-05
1.26006e-05
1.35648e-05
1.42022e-05
2.67288e-05
2.68146e-05
2.76e-05
1.41004e-05
1.39953e-05
1.4869e-05
1.39399e-05
2.61741e-05
2.68969e-05
1.43307e-05
1.41584e-05
1.54123e-05
1.51859e-05
1.50383e-05
1.38713e-05
1.47519e-05
2.68353e-05
2.76943e-05
1.42905e-05
1.50681e-05
1.43133e-05
2.69306e-05
2.79016e-05
2.88274e-05
1.53556e-05
1.42756e-05
1.68617e-05
1.7565e-05
2.74505e-05
2.93828e-05
1.57996e-05
1.54469e-05
1.68123e-05
1.67858e-05
1.47067e-05
1.71816e-05
1.58873e-05
2.79551e-05
2.88738e-05
1.44276e-05
1.67401e-05
1.65908e-05
2.89582e-05
2.91211e-05
3.01278e-05
1.71855e-05
1.83218e-05
1.84338e-05
1.90968e-05
2.9661e-05
3.0141e-05
1.70807e-05
1.72827e-05
1.83223e-05
1.85067e-05
1.72873e-05
1.86853e-05
1.92493e-05
2.92138e-05
3.01237e-05
1.74166e-05
1.85725e-05
1.87439e-05
3.04504e-05
3.04977e-05
3.16294e-05
1.90378e-05
1.91511e-05
2.0622e-05
2.01861e-05
3.03672e-05
3.14924e-05
1.8963e-05
1.8841e-05
2.07168e-05
2.04146e-05
1.94809e-05
2.01975e-05
2.07944e-05
3.04021e-05
3.14485e-05
1.90632e-05
2.0468e-05
2.06908e-05
3.14945e-05
3.1882e-05
3.25591e-05
2.10211e-05
2.11072e-05
2.23862e-05
2.27511e-05
3.18988e-05
3.26907e-05
2.1149e-05
2.10805e-05
2.22855e-05
2.23759e-05
2.12624e-05
2.27356e-05
2.21991e-05
3.18107e-05
3.27042e-05
2.11424e-05
2.2296e-05
2.19355e-05
3.24868e-05
3.27946e-05
3.34395e-05
2.28286e-05
2.28583e-05
2.35233e-05
2.32624e-05
3.28378e-05
3.3379e-05
2.26875e-05
2.27286e-05
2.36253e-05
2.41941e-05
2.24631e-05
2.32561e-05
2.41535e-05
3.29241e-05
3.36695e-05
2.22301e-05
2.41073e-05
2.41936e-05
3.3889e-05
3.36846e-05
3.49946e-05
2.38823e-05
2.39884e-05
2.60023e-05
2.61332e-05
3.3718e-05
3.49749e-05
2.39651e-05
2.45743e-05
2.59711e-05
2.54e-05
2.48843e-05
2.62134e-05
2.57664e-05
3.39134e-05
3.46228e-05
2.4943e-05
2.54756e-05
2.57556e-05
3.44835e-05
3.53472e-05
3.60048e-05
2.66519e-05
2.63355e-05
2.76155e-05
2.70352e-05
3.51393e-05
3.56573e-05
2.6587e-05
2.58953e-05
2.75061e-05
2.77608e-05
2.58001e-05
2.68449e-05
2.67003e-05
3.49357e-05
3.63481e-05
2.57961e-05
2.78259e-05
2.69472e-05
3.5917e-05
3.61798e-05
3.71184e-05
2.78443e-05
2.77117e-05
2.93086e-05
2.99352e-05
3.59952e-05
3.75587e-05
2.78878e-05
2.84181e-05
2.94505e-05
2.984e-05
2.78626e-05
2.98712e-05
3.01912e-05
3.664e-05
3.70594e-05
2.8033e-05
2.96148e-05
3.01241e-05
3.78065e-05
3.74074e-05
3.78962e-05
2.99117e-05
3.03232e-05
3.08097e-05
3.05953e-05
3.77771e-05
3.79157e-05
2.9878e-05
2.9909e-05
3.05077e-05
2.98504e-05
3.06598e-05
3.10266e-05
3.14587e-05
3.70962e-05
3.69792e-05
3.05614e-05
2.95199e-05
3.09843e-05
3.80306e-05
3.80088e-05
3.88446e-05
3.08907e-05
3.06736e-05
3.16989e-05
3.18734e-05
3.79818e-05
3.87071e-05
3.06764e-05
2.99168e-05
3.20334e-05
3.28464e-05
3.1475e-05
3.14394e-05
3.144e-05
3.72147e-05
4.00849e-05
3.09604e-05
3.29602e-05
3.09782e-05
3.82148e-05
3.92202e-05
4.06829e-05
3.23171e-05
3.25519e-05
3.45141e-05
3.41865e-05
3.90882e-05
4.03932e-05
3.2717e-05
3.38403e-05
3.45682e-05
3.51431e-05
3.15532e-05
3.41419e-05
3.41822e-05
4.06086e-05
4.11641e-05
3.13643e-05
3.53306e-05
3.46676e-05
4.08751e-05
4.08878e-05
4.10254e-05
3.49417e-05
3.44666e-05
3.52692e-05
3.50884e-05
4.05955e-05
4.10507e-05
3.48732e-05
3.51755e-05
3.50957e-05
3.49399e-05
3.49872e-05
3.51468e-05
3.62242e-05
4.11651e-05
4.05216e-05
3.53513e-05
3.52653e-05
3.62127e-05
4.18119e-05
4.10914e-05
4.18655e-05
3.53535e-05
3.53406e-05
3.65466e-05
3.66794e-05
4.12076e-05
4.20227e-05
3.52025e-05
3.48006e-05
3.63548e-05
3.4861e-05
3.63075e-05
3.66395e-05
3.62303e-05
4.05245e-05
4.08945e-05
3.62164e-05
3.51775e-05
3.58627e-05
4.14421e-05
4.20964e-05
4.25179e-05
3.67996e-05
3.71006e-05
3.71484e-05
3.74672e-05
4.22495e-05
4.26031e-05
3.6597e-05
3.53688e-05
3.71238e-05
3.79163e-05
3.61884e-05
3.74202e-05
3.64647e-05
4.13148e-05
4.32771e-05
3.57463e-05
3.79637e-05
3.61892e-05
4.19116e-05
4.27403e-05
4.44059e-05
3.75127e-05
3.75022e-05
3.92781e-05
3.87211e-05
4.26766e-05
4.39094e-05
3.76269e-05
3.855e-05
3.96591e-05
4.01543e-05
3.70867e-05
3.87354e-05
3.98288e-05
4.36494e-05
4.49954e-05
3.73765e-05
3.97619e-05
4.06648e-05
4.52561e-05
4.47371e-05
4.52573e-05
3.98673e-05
3.96068e-05
4.09518e-05
4.12555e-05
4.44335e-05
4.57034e-05
4.02079e-05
4.05685e-05
4.10343e-05
4.10802e-05
4.05905e-05
4.13546e-05
4.13725e-05
4.51999e-05
4.52491e-05
4.11934e-05
4.09009e-05
4.14216e-05
4.58679e-05
4.52912e-05
4.50663e-05
4.10573e-05
4.13883e-05
4.10512e-05
4.12181e-05
4.57559e-05
4.50495e-05
4.10794e-05
4.10726e-05
4.10154e-05
4.05655e-05
4.13493e-05
4.12512e-05
4.04555e-05
4.52317e-05
4.4388e-05
4.12479e-05
4.0631e-05
3.95873e-05
4.35457e-05
4.5091e-05
4.55153e-05
4.10233e-05
4.09844e-05
4.1156e-05
4.08795e-05
4.499e-05
4.5012e-05
4.09552e-05
4.03455e-05
4.10025e-05
4.03895e-05
4.02736e-05
4.08378e-05
4.05808e-05
4.43685e-05
4.49773e-05
3.93627e-05
4.04486e-05
3.98641e-05
4.49878e-05
4.57469e-05
4.7315e-05
4.14842e-05
4.11499e-05
4.34238e-05
4.38649e-05
4.54727e-05
4.80378e-05
4.12868e-05
4.09731e-05
4.3371e-05
4.42443e-05
4.15343e-05
4.39698e-05
4.4297e-05
4.5564e-05
4.84424e-05
4.12853e-05
4.43721e-05
4.47509e-05
4.8627e-05
4.76335e-05
4.78566e-05
4.39549e-05
4.43754e-05
4.45178e-05
4.46565e-05
4.82088e-05
4.77876e-05
4.39659e-05
4.48174e-05
4.47353e-05
4.52185e-05
4.45797e-05
4.47114e-05
4.4579e-05
4.86794e-05
4.84029e-05
4.51007e-05
4.52884e-05
4.51764e-05
4.79415e-05
4.7868e-05
4.82024e-05
4.45597e-05
4.45812e-05
4.49225e-05
4.44332e-05
4.77596e-05
4.77037e-05
4.47589e-05
4.51686e-05
4.48058e-05
4.45287e-05
4.45267e-05
4.45236e-05
4.46528e-05
4.83439e-05
4.75495e-05
4.51361e-05
4.47534e-05
4.51994e-05
4.82726e-05
4.84388e-05
4.96641e-05
4.51454e-05
4.45101e-05
4.6189e-05
4.62497e-05
4.79341e-05
4.97409e-05
4.49158e-05
4.44822e-05
4.61047e-05
4.51797e-05
4.50136e-05
4.61835e-05
4.65627e-05
4.75656e-05
4.89836e-05
4.53742e-05
4.53394e-05
4.62568e-05
4.99582e-05
4.99248e-05
5.02204e-05
4.65788e-05
4.67827e-05
4.73368e-05
4.74094e-05
5.00288e-05
5.01918e-05
4.66258e-05
4.62018e-05
4.75325e-05
4.79169e-05
4.69191e-05
4.74137e-05
4.72803e-05
4.95705e-05
5.07937e-05
4.65469e-05
4.76681e-05
4.70611e-05
5.00786e-05
5.02112e-05
4.94963e-05
4.73653e-05
4.74062e-05
4.7133e-05
4.70072e-05
5.01663e-05
4.93825e-05
4.75683e-05
4.80131e-05
4.73433e-05
4.77929e-05
4.7263e-05
4.71421e-05
4.67267e-05
5.08221e-05
5.00232e-05
4.70594e-05
4.76996e-05
4.67274e-05
4.88643e-05
4.94707e-05
4.99237e-05
4.69931e-05
4.68803e-05
4.70513e-05
4.70463e-05
4.9367e-05
5.01237e-05
4.71625e-05
4.7459e-05
4.70776e-05
4.70257e-05
4.65606e-05
4.70943e-05
4.66515e-05
4.9937e-05
4.94641e-05
4.66155e-05
4.71176e-05
4.6788e-05
4.96629e-05
5.03435e-05
5.24966e-05
4.74947e-05
4.76754e-05
4.97916e-05
5.00229e-05
5.0631e-05
5.28009e-05
4.72723e-05
4.70642e-05
4.9558e-05
4.90973e-05
4.72079e-05
4.99521e-05
5.00775e-05
4.966e-05
5.21033e-05
4.74157e-05
4.91943e-05
5.0085e-05
5.30603e-05
5.2743e-05
5.2786e-05
5.02217e-05
5.04182e-05
5.06378e-05
5.06714e-05
5.30112e-05
5.27761e-05
5.01059e-05
4.99056e-05
5.07143e-05
5.09832e-05
5.06451e-05
5.07609e-05
5.10935e-05
5.25535e-05
5.32401e-05
5.06433e-05
5.10177e-05
5.11091e-05
5.32885e-05
5.27598e-05
5.22994e-05
5.06327e-05
5.06228e-05
5.03486e-05
4.9944e-05
5.27016e-05
5.16759e-05
5.07198e-05
5.10215e-05
5.0486e-05
5.07538e-05
5.10549e-05
5.0016e-05
5.02292e-05
5.32392e-05
5.25363e-05
5.10775e-05
5.07699e-05
5.03242e-05
5.19278e-05
5.23085e-05
5.27701e-05
5.02945e-05
4.98234e-05
5.04591e-05
4.99867e-05
5.16536e-05
5.23087e-05
5.04068e-05
5.05625e-05
5.04448e-05
5.04444e-05
5.00571e-05
4.99023e-05
5.01284e-05
5.25004e-05
5.2545e-05
5.01601e-05
5.04215e-05
5.02118e-05
5.24881e-05
5.29957e-05
5.35463e-05
5.08577e-05
5.05462e-05
5.16287e-05
5.21707e-05
5.27333e-05
5.43749e-05
5.06842e-05
5.05324e-05
5.16196e-05
5.16521e-05
5.05588e-05
5.22779e-05
5.21749e-05
5.27395e-05
5.37021e-05
5.05791e-05
5.16928e-05
5.20617e-05
5.42873e-05
5.35694e-05
5.37349e-05
5.16833e-05
5.24133e-05
5.19438e-05
5.25554e-05
5.44911e-05
5.42872e-05
5.17122e-05
5.18685e-05
5.19233e-05
5.20403e-05
5.23319e-05
5.26887e-05
5.22881e-05
5.37953e-05
5.37848e-05
5.22174e-05
5.2149e-05
5.21769e-05
5.3659e-05
5.39263e-05
5.47987e-05
5.2209e-05
5.25238e-05
5.2976e-05
5.2474e-05
5.42637e-05
5.40856e-05
5.21657e-05
5.20842e-05
5.29981e-05
5.26855e-05
5.21318e-05
5.2406e-05
5.20202e-05
5.38071e-05
5.43347e-05
5.20393e-05
5.22874e-05
5.1976e-05
5.36202e-05
5.4933e-05
5.53208e-05
5.31701e-05
5.25279e-05
5.36533e-05
5.33066e-05
5.41754e-05
5.50422e-05
5.3199e-05
5.29061e-05
5.36273e-05
5.35338e-05
5.21336e-05
5.31648e-05
5.37972e-05
5.45189e-05
5.52844e-05
5.2134e-05
5.35942e-05
5.38999e-05
5.59087e-05
5.53879e-05
5.52072e-05
5.3756e-05
5.35302e-05
5.37791e-05
5.37295e-05
5.51962e-05
5.51991e-05
5.37362e-05
5.37603e-05
5.38015e-05
5.41677e-05
5.41965e-05
5.39131e-05
5.44351e-05
5.54559e-05
5.58419e-05
5.4282e-05
5.43897e-05
5.45024e-05
5.59488e-05
5.51579e-05
5.46863e-05
5.36978e-05
5.37047e-05
5.34302e-05
5.35975e-05
5.518e-05
5.5025e-05
5.3756e-05
5.41733e-05
5.34951e-05
5.3933e-05
5.43549e-05
5.37943e-05
5.34896e-05
5.58504e-05
5.52149e-05
5.44124e-05
5.40006e-05
5.34533e-05
5.44855e-05
5.47443e-05
5.62971e-05
5.34574e-05
5.3644e-05
5.46828e-05
5.46947e-05
5.51304e-05
5.61853e-05
5.35061e-05
5.3762e-05
5.44453e-05
5.35094e-05
5.33307e-05
5.42984e-05
5.34017e-05
5.51396e-05
5.46187e-05
5.32542e-05
5.32417e-05
5.32437e-05
5.49224e-05
5.65652e-05
5.68554e-05
5.51115e-05
5.49725e-05
5.54679e-05
5.52024e-05
5.63629e-05
5.64836e-05
5.48574e-05
5.35239e-05
5.53038e-05
5.45313e-05
5.38014e-05
5.51468e-05
5.53439e-05
5.46399e-05
5.59993e-05
5.35316e-05
5.43671e-05
5.52193e-05
5.68987e-05
5.68091e-05
5.58248e-05
5.54387e-05
5.51975e-05
5.47785e-05
5.50262e-05
5.64762e-05
5.62349e-05
5.52999e-05
5.5013e-05
5.49736e-05
5.60662e-05
5.55772e-05
5.523e-05
5.57355e-05
5.63742e-05
5.76373e-05
5.55438e-05
5.63545e-05
5.5947e-05
5.70446e-05
5.5722e-05
5.56504e-05
5.45527e-05
5.49697e-05
5.4431e-05
5.50003e-05
5.62383e-05
5.65417e-05
5.48336e-05
5.62226e-05
5.47781e-05
5.62604e-05
5.5726e-05
5.5343e-05
5.56686e-05
5.77692e-05
5.76704e-05
5.5984e-05
5.66689e-05
5.60104e-05
5.69573e-05
5.5933e-05
5.7866e-05
5.46097e-05
5.51894e-05
5.64946e-05
5.6154e-05
5.67103e-05
5.73115e-05
5.49373e-05
5.61461e-05
5.63486e-05
5.56958e-05
5.5673e-05
5.60325e-05
5.58168e-05
5.75769e-05
5.66814e-05
5.59988e-05
5.57051e-05
5.58165e-05
5.69191e-05
5.80981e-05
5.82846e-05
5.69318e-05
5.635e-05
5.72623e-05
5.64895e-05
5.73613e-05
5.72375e-05
5.66506e-05
5.56214e-05
5.68282e-05
5.54564e-05
5.5819e-05
5.60847e-05
5.56315e-05
5.66256e-05
5.61783e-05
5.56948e-05
5.49976e-05
5.5247e-05
5.64024e-05
5.81678e-05
5.70753e-05
5.72002e-05
5.64675e-05
5.62427e-05
5.61806e-05
5.72227e-05
5.71045e-05
5.67496e-05
5.54311e-05
5.61156e-05
5.56887e-05
5.55827e-05
5.59716e-05
5.58212e-05
5.61756e-05
5.68562e-05
5.5209e-05
5.5522e-05
5.57022e-05
5.71687e-05
5.70292e-05
5.71324e-05
5.60266e-05
5.61421e-05
5.58963e-05
5.62094e-05
5.71663e-05
5.76532e-05
5.60537e-05
5.60529e-05
5.61777e-05
5.71012e-05
5.62309e-05
5.67175e-05
5.71362e-05
5.71674e-05
5.84701e-05
5.62329e-05
5.73348e-05
5.72953e-05
5.84194e-05
5.7254e-05
5.75475e-05
5.59363e-05
5.63842e-05
5.64793e-05
5.68333e-05
5.77798e-05
5.80375e-05
5.63992e-05
5.72626e-05
5.66159e-05
5.72254e-05
5.72419e-05
5.70601e-05
5.71724e-05
5.85802e-05
5.81745e-05
5.7405e-05
5.74354e-05
5.72877e-05
5.79705e-05
5.7539e-05
5.71298e-05
5.65266e-05
5.6844e-05
5.64254e-05
5.66294e-05
5.80273e-05
5.73753e-05
5.65962e-05
5.6995e-05
5.62803e-05
5.62014e-05
5.69528e-05
5.6485e-05
5.62355e-05
5.80056e-05
5.6936e-05
5.69983e-05
5.6195e-05
5.6196e-05
5.69926e-05
5.71344e-05
5.81243e-05
5.64104e-05
5.64662e-05
5.68709e-05
5.63268e-05
5.72917e-05
5.71239e-05
5.62636e-05
5.61179e-05
5.68553e-05
5.6354e-05
5.60735e-05
5.60809e-05
5.60297e-05
5.69023e-05
5.75331e-05
5.60572e-05
5.61823e-05
5.60779e-05
5.72213e-05
5.8409e-05
5.94856e-05
5.72287e-05
5.64045e-05
5.81114e-05
5.75136e-05
5.72894e-05
5.86784e-05
5.73178e-05
5.68199e-05
5.82877e-05
5.79718e-05
5.6235e-05
5.75024e-05
5.76594e-05
5.78494e-05
5.90872e-05
5.63604e-05
5.78294e-05
5.76869e-05
5.88791e-05
5.95479e-05
5.86098e-05
5.82262e-05
5.78347e-05
5.80417e-05
5.8103e-05
5.88828e-05
5.91933e-05
5.83699e-05
5.81388e-05
5.79592e-05
5.80749e-05
5.8019e-05
5.81623e-05
5.83298e-05
5.91971e-05
5.88782e-05
5.8012e-05
5.81121e-05
5.82983e-05
5.93993e-05
5.82979e-05
5.63506e-05
5.75628e-05
5.80371e-05
5.60118e-05
5.67811e-05
5.90938e-05
5.74554e-05
5.73422e-05
5.77137e-05
5.5688e-05
5.62252e-05
5.82623e-05
5.68318e-05
5.68668e-05
5.86776e-05
5.70553e-05
5.82329e-05
5.65647e-05
5.686e-05
5.74835e-05
5.61806e-05
5.64476e-05
5.56564e-05
5.63667e-05
5.54745e-05
5.59695e-05
5.72655e-05
5.69103e-05
5.53501e-05
5.5837e-05
5.52765e-05
5.55368e-05
5.63708e-05
5.6063e-05
5.57077e-05
5.68688e-05
5.64961e-05
5.63526e-05
5.57005e-05
5.56044e-05
5.64103e-05
5.69229e-05
5.95408e-05
5.57222e-05
5.60327e-05
5.78964e-05
5.74704e-05
5.71062e-05
5.88931e-05
5.56981e-05
5.5694e-05
5.81865e-05
5.78076e-05
5.57276e-05
5.74751e-05
5.70666e-05
5.67312e-05
5.90618e-05
5.56165e-05
5.74541e-05
5.69851e-05
5.84411e-05
5.9845e-05
6.00375e-05
5.84131e-05
5.79019e-05
5.87759e-05
5.81995e-05
5.91192e-05
5.915e-05
5.87321e-05
5.83913e-05
5.90725e-05
5.88523e-05
5.76601e-05
5.81057e-05
5.83392e-05
5.93946e-05
5.99099e-05
5.76523e-05
5.86435e-05
5.85025e-05
5.96127e-05
5.97376e-05
5.71604e-05
5.86376e-05
5.80887e-05
5.66698e-05
5.65434e-05
5.89447e-05
5.70707e-05
5.88758e-05
5.87301e-05
5.65508e-05
5.66707e-05
5.83164e-05
5.64437e-05
5.70799e-05
5.97249e-05
5.7333e-05
5.84928e-05
5.69185e-05
5.72981e-05
5.7853e-05
5.69013e-05
5.63863e-05
5.61256e-05
5.61197e-05
5.55634e-05
5.57502e-05
5.68906e-05
5.6722e-05
5.59584e-05
5.61011e-05
5.53849e-05
5.55588e-05
5.65788e-05
5.57378e-05
5.59956e-05
5.7083e-05
5.66197e-05
5.67358e-05
5.57483e-05
5.60021e-05
5.69784e-05
5.65661e-05
5.83452e-05
5.5609e-05
5.58312e-05
5.69052e-05
5.72173e-05
5.69748e-05
5.87925e-05
5.54415e-05
5.56098e-05
5.68475e-05
5.68385e-05
5.6019e-05
5.73365e-05
5.69492e-05
5.67893e-05
5.82865e-05
5.60098e-05
5.67932e-05
5.67454e-05
5.82643e-05
5.85855e-05
5.88717e-05
5.73432e-05
5.76266e-05
5.76837e-05
5.79058e-05
5.90283e-05
5.91939e-05
5.72916e-05
5.72076e-05
5.76348e-05
5.74434e-05
5.72766e-05
5.79861e-05
5.74294e-05
5.84729e-05
5.8506e-05
5.70563e-05
5.73484e-05
5.72066e-05
5.84037e-05
5.87309e-05
5.71783e-05
5.76177e-05
5.77975e-05
5.6283e-05
5.61425e-05
5.89626e-05
5.69293e-05
5.75728e-05
5.73579e-05
5.63312e-05
5.62822e-05
5.72716e-05
5.60362e-05
5.58539e-05
5.83538e-05
5.71425e-05
5.70782e-05
5.62141e-05
5.59403e-05
5.6712e-05
5.69806e-05
5.50334e-05
5.48278e-05
5.66749e-05
5.51006e-05
5.51365e-05
4.61607e-05
4.64304e-05
4.60662e-05
5.47132e-05
5.7029e-05
5.48331e-05
9.5745e-08
2.52079e-07
6.39367e-08
8.02199e-08
2.63213e-07
3.06365e-07
3.20163e-07
1.61258e-07
2.71473e-07
2.83559e-07
1.24175e-07
1.36936e-07
3.55475e-07
3.57582e-07
3.489e-07
3.06118e-07
4.91401e-06
2.61547e-07
6.58874e-06
1.37245e-05
2.12704e-05
3.61129e-07
5.54436e-06
3.18923e-07
7.46931e-06
1.71016e-07
1.6896e-07
1.71911e-07
1.77577e-07
1.70739e-07
1.69113e-07
1.71304e-07
2.45677e-07
6.74989e-07
2.59853e-07
3.12346e-07
2.50847e-07
6.49785e-07
2.58536e-07
1.40774e-05
2.19033e-05
2.53695e-07
2.20031e-07
5.13477e-07
2.58089e-07
2.5903e-07
2.19165e-07
5.01435e-07
1.94427e-06
1.85968e-06
3.45604e-07
1.95028e-06
1.83115e-06
5.03617e-07
9.75046e-06
4.16126e-07
1.24324e-05
3.63266e-05
4.63225e-05
5.53068e-07
1.09663e-05
4.61312e-07
1.41673e-05
1.69786e-07
1.68117e-07
1.69346e-07
1.71298e-07
1.66923e-07
1.64806e-07
1.64466e-07