/*--------------------------------*- C++ -*----------------------------------*\
| =========                 |                                                 |
| \\      /  F ield         | OpenFOAM: The Open Source CFD Toolbox           |
|  \\    /   O peration     | Version:  v2006                                 |
|   \\  /    A nd           | Website:  www.openfoam.com                      |
|    \\/     M anipulation  |                                                 |
\*---------------------------------------------------------------------------*/
FoamFile
{
    version     2.0;
    format      ascii;
    class       volScalarField;
    location    "125";
    object      p;
}
// * * * * * * * * * * * * * * * * * * * * * * * * * * * * * * * * * * * * * //

dimensions      [0 2 -2 0 0 0 0];


internalField   nonuniform List<scalar> 
14374
(
0.000113607
0.00011361
0.000111505
0.000113607
0.000113609
0.000111499
0.000113637
0.00011363
0.000111405
0.000111463
0.000111464
0.000111404
0.000111366
0.000111418
0.000111418
0.000111366
0.000113619
0.000111463
0.000111472
0.000113619
0.000111463
0.000111472
0.000111405
0.000111404
0.000111405
0.000111404
0.000111418
0.000111418
0.000111365
0.000111365
0.000115845
0.000115845
0.000115882
0.000115827
0.000111407
0.000115836
0.000111401
0.000115837
0.00011585
0.000111424
0.000115827
0.000111407
0.000115836
0.000111401
0.00011585
0.000115837
0.000111424
0.000115852
0.000111383
0.000111383
0.000115864
0.000115864
0.000111395
0.000115882
0.00011588
0.000115845
0.000111419
0.000115835
0.000111375
0.000115859
0.000115845
0.000111422
0.000111397
0.000115828
0.000115858
0.000111395
0.00011588
0.000115845
0.000111419
0.000115835
0.000111375
0.000115859
0.000115845
0.000111422
0.000111397
0.000115829
0.000115858
0.000111395
0.000115826
0.000111406
0.000115836
0.000111401
0.000111423
0.000115838
0.00011585
0.000115827
0.000111406
0.000115836
0.0001114
0.000111424
0.000115837
0.00011585
0.000115852
0.000111382
0.000111382
0.000111394
0.000115864
0.000115864
0.000115882
0.000115882
0.000115729
0.000115756
0.000111504
0.000111504
0.000115787
0.000115787
0.000111535
0.000115729
0.00011575
0.000111504
0.000111499
0.000111535
0.000115788
0.000115783
0.000113628
0.00011363
0.000111425
0.000115788
0.000115829
0.000111422
0.000115788
0.000115828
0.00011581
0.000111425
0.000115787
0.00011147
0.000111452
0.000115829
0.000115791
0.000115786
0.000115789
0.000111434
0.000111478
0.000111445
0.00011579
0.000115783
0.000115811
0.000111424
0.000115787
0.000111469
0.000115792
0.000115828
0.000111452
0.000115783
0.000115789
0.000111434
0.000111479
0.00011579
0.000115783
0.000111443
0.00042683
0.000426761
0.00042888
0.00039103
0.000390973
0.000393094
0.00042888
0.000397801
0.000426763
0.000426762
0.00039992
0.000399918
0.000428875
0.000426752
0.000426759
0.000399919
0.000399917
0.000426758
0.00039992
0.00042888
0.0003978
0.00042676
0.000399916
0.000399914
0.0003978
0.000393093
0.000390973
0.000390974
0.000390973
0.000390975
0.000393094
0.000390971
0.000415621
0.000429003
0.000429002
0.000415615
0.000429003
0.000415616
0.000415621
0.000415615
0.000426818
0.000426832
0.000426829
0.000399977
0.000399987
0.00039998
0.000399981
0.000415695
0.000428962
0.000426777
0.000417811
0.000428939
0.000415657
0.000417829
0.000429004
0.000415616
0.000415695
0.000417809
0.000417829
0.000415658
0.000429009
0.000429009
0.00041569
0.000415613
0.000415615
0.000393215
0.000393216
0.000393214
0.000391036
0.000391028
0.000391029
0.000393215
0.000390987
0.000393173
0.00039315
0.000393221
0.000393221
0.000429001
0.000415617
0.000415616
0.000429009
0.000415694
0.000415615
0.000415614
0.000397722
0.000411109
0.000397722
0.000411109
0.000410987
0.00039772
0.00039772
0.000411116
0.000411116
0.000415621
0.000429004
0.000429001
0.000415615
0.000415695
0.000428963
0.000426778
0.000417817
0.00042894
0.000415659
0.000417829
0.000415695
0.000428962
0.000426777
0.000417812
0.00042894
0.000415658
0.000417828
0.000411107
0.00039772
0.00041111
0.000397727
0.000411107
0.000397721
0.000411109
0.000397727
0.000411046
0.000408869
0.000397764
0.000399934
0.000411069
0.000408882
0.0003978
0.000411045
0.000408864
0.000397764
0.000399933
0.000411068
0.000408881
0.0003978
0.000429009
0.00042901
0.000415693
0.000415615
0.000415614
0.000429003
0.000415616
0.000411109
0.000410986
0.000411115
0.000411115
0.000411109
0.000415695
0.000426775
0.000417806
0.000415657
0.000417828
0.000415621
0.000429004
0.000429001
0.000415615
0.000415695
0.000426777
0.000428962
0.000417809
0.00042894
0.000417829
0.000415657
0.000411108
0.000397721
0.00041111
0.000397727
0.000411045
0.000408863
0.000397763
0.000399933
0.000411067
0.000408881
0.0003978
0.000411108
0.000397721
0.00041111
0.000397727
0.000411045
0.000408863
0.000399934
0.000397763
0.000408882
0.000411068
0.0003978
0.000415621
0.000429004
0.000429001
0.000415614
0.000415695
0.000426777
0.000428961
0.00041781
0.000428939
0.00041783
0.000415657
0.000415621
0.000429003
0.000429001
0.000415614
0.000411045
0.000408863
0.000399934
0.000411068
0.000408882
0.0003978
0.000411108
0.000411109
0.000397727
0.000411045
0.000408865
0.000399935
0.000397764
0.000408883
0.000411068
0.0003978
0.000411108
0.00039772
0.000411109
0.000397727
0.00042901
0.000415691
0.000415614
0.000415615
0.000415617
0.000397722
0.000411109
0.000410985
0.00039772
0.00039772
0.000411115
0.000411116
0.000397722
0.00041111
0.000415695
0.000426775
0.000428964
0.000417806
0.00042894
0.000417827
0.000415657
0.000415621
0.000415615
0.000415621
0.000429004
0.000429001
0.000415615
0.000411045
0.000408861
0.000399933
0.000397763
0.000408882
0.000411068
0.0003978
0.000411045
0.000408859
0.000399933
0.000397763
0.000408881
0.000411067
0.0003978
0.000411108
0.00039772
0.00041111
0.000397727
0.000411107
0.000397721
0.00041111
0.000397727
0.000429003
0.000415616
0.000429003
0.000415617
0.000410985
0.00039772
0.00039772
0.000411115
0.000411116
0.000397722
0.000411108
0.000397722
0.000411109
0.000393215
0.000393215
0.000393221
0.000393221
0.000393174
0.000393174
0.000390987
0.000393151
0.000393216
0.000393214
0.000390987
0.000393174
0.000393151
0.000390988
0.000393174
0.000393151
0.000393215
0.000393214
0.000393221
0.000393221
0.000393215
0.000390987
0.000393173
0.00039315
0.000393215
0.000393214
0.000393216
0.000393213
0.000393215
0.000393215
0.000420065
0.000420055
0.000415615
0.00041562
0.000420066
0.000420055
0.000415615
0.000424572
0.000429007
0.000424561
0.000429002
0.000424562
0.000424563
0.000424568
0.000429013
0.000429002
0.000429012
0.000424562
0.000424567
0.000420055
0.000415615
0.000420057
0.000420061
0.000415625
0.000424564
0.000420056
0.000420065
0.000420055
0.00041562
0.000415615
0.000420055
0.000420066
0.000415615
0.000424573
0.000424563
0.000424562
0.000424563
0.000424568
0.000424567
0.000424563
0.000420055
0.000415614
0.000420057
0.000420061
0.000415625
0.000424564
0.000420056
0.000420063
0.000415617
0.000415616
0.000420056
0.000420056
0.000415609
0.00042457
0.000428999
0.000429003
0.000424561
0.000428991
0.00042456
0.000424562
0.000424575
0.000428994
0.000429007
0.000424561
0.000428994
0.000424565
0.000424564
0.000424556
0.000429002
0.000429005
0.00042901
0.000424562
0.000424564
0.000420043
0.000415616
0.000420062
0.000415612
0.000420046
0.000420057
0.000415625
0.000420048
0.000415616
0.000420063
0.000415619
0.000420055
0.000420058
0.000415628
0.000388784
0.00039322
0.000388773
0.000393214
0.000388774
0.000388784
0.00039322
0.000388774
0.000393214
0.000388774
0.000388774
0.00038878
0.000393214
0.000393224
0.000393223
0.00038878
0.000388774
0.000388775
0.000388786
0.000393209
0.000393216
0.000388773
0.000393205
0.000388775
0.000388775
0.000388785
0.000393209
0.000393216
0.000388773
0.000393205
0.000388775
0.000388774
0.000388768
0.000393215
0.000393215
0.000393221
0.000388774
0.000388774
0.000424563
0.000420056
0.000424565
0.000420056
0.000420064
0.000415616
0.000415616
0.000420057
0.000420057
0.000415609
0.000424574
0.000428996
0.000429005
0.000424562
0.000428993
0.000424564
0.000424564
0.000424573
0.000428998
0.000424561
0.000424563
0.000424562
0.000424556
0.000424564
0.000424564
0.000420047
0.000415617
0.000420063
0.000415617
0.000420058
0.000415627
0.000420052
0.000420046
0.000415616
0.000420063
0.000415616
0.000420058
0.000415627
0.000420051
0.000402162
0.000406669
0.000402162
0.000406669
0.000406662
0.00041111
0.00041111
0.000411116
0.000406669
0.000406669
0.000402153
0.000397722
0.000402168
0.000397722
0.000402164
0.000402157
0.000397733
0.000402153
0.000397722
0.000402169
0.000397722
0.000402164
0.000402158
0.000397733
0.00040668
0.000411111
0.000411104
0.000406667
0.0004111
0.000406669
0.000406669
0.00040668
0.000411111
0.000411104
0.000406667
0.0004111
0.000406669
0.00040667
0.000402169
0.000397722
0.000397722
0.000402163
0.000402163
0.000397715
0.000420065
0.000420055
0.000415615
0.00041562
0.000420066
0.000420055
0.000415615
0.000424572
0.000429008
0.000424562
0.000429002
0.000424562
0.000424563
0.000424568
0.000429013
0.000429002
0.000424562
0.000429012
0.000424567
0.000420055
0.000415614
0.000420057
0.000420061
0.000415625
0.000406668
0.000411118
0.000411108
0.000406674
0.000411117
0.000406668
0.000406673
0.000402161
0.000402162
0.000397721
0.000397731
0.000402166
0.000406678
0.000411114
0.000406667
0.000411108
0.000406668
0.00040217
0.000402161
0.000397721
0.000397725
0.000397721
0.000402171
0.00040216
0.000406668
0.000411118
0.000411108
0.000406674
0.000411117
0.000406668
0.000406673
0.000402161
0.000402162
0.000397721
0.000402167
0.000397731
0.000406678
0.000411113
0.000406668
0.000411108
0.000406667
0.00040217
0.000402161
0.000397721
0.000397726
0.000402171
0.000402161
0.000397721
0.000420063
0.000415616
0.000415616
0.000420057
0.000420056
0.000415609
0.000424573
0.000428997
0.000429005
0.000424562
0.000424563
0.000428993
0.000424562
0.000424572
0.000428996
0.000429005
0.000424561
0.000424561
0.000428993
0.000424563
0.000424556
0.000429004
0.000429004
0.000424563
0.00042901
0.000424563
0.000420046
0.000415616
0.000420062
0.000415615
0.000420058
0.00042005
0.000415627
0.000420046
0.000415616
0.000420062
0.000415616
0.00042005
0.000420058
0.000415627
0.000424564
0.000420056
0.000406669
0.000406662
0.00041111
0.00041111
0.000411116
0.000406669
0.000406669
0.000406681
0.000411111
0.000411103
0.000406668
0.000406669
0.0004111
0.000406669
0.00040668
0.000411111
0.000411104
0.000406667
0.0004111
0.000406669
0.000406669
0.000406669
0.000420065
0.000420055
0.000415615
0.00041562
0.000420066
0.000420055
0.000415616
0.000424573
0.000429008
0.000424562
0.000429002
0.000424562
0.000424563
0.000424568
0.000429013
0.000429001
0.000424563
0.000429012
0.000424567
0.000420055
0.000415615
0.000420057
0.000420061
0.000415625
0.000406668
0.000411108
0.000411118
0.000406674
0.000411117
0.000406673
0.000406668
0.000402161
0.000402163
0.000397721
0.000397731
0.000402167
0.000406678
0.000411113
0.000406668
0.000411108
0.000406668
0.00040217
0.000402161
0.000397726
0.000397721
0.000397721
0.000402161
0.000402171
0.000406668
0.000411118
0.000411108
0.000406674
0.000411117
0.000406668
0.000406673
0.000402161
0.000402163
0.000397721
0.000402167
0.000397731
0.000406678
0.000411114
0.000406668
0.000411108
0.000406668
0.00040217
0.000402161
0.000397721
0.000397727
0.000402171
0.000402161
0.000397721
0.000420064
0.000420054
0.00041562
0.000415615
0.000420054
0.000420065
0.000415615
0.000424572
0.000429007
0.000424562
0.000424562
0.000429002
0.000424563
0.000424567
0.000429002
0.000429013
0.000424567
0.000429012
0.000424562
0.000420055
0.000415615
0.000420057
0.00042006
0.000415625
0.000420064
0.000420054
0.000415615
0.00041562
0.000420065
0.000420055
0.000415615
0.000424572
0.000429007
0.000424562
0.000429001
0.000424561
0.000424562
0.000424567
0.000429012
0.000429001
0.000429011
0.000424562
0.000424567
0.000420055
0.000415615
0.000420056
0.00042006
0.000415625
0.000406668
0.000411107
0.000411118
0.000406674
0.000411117
0.000406673
0.000406668
0.000406678
0.000411113
0.000406667
0.000411108
0.000406668
0.00040217
0.000402161
0.000397726
0.000397721
0.000402161
0.000402171
0.000397721
0.000406668
0.000411118
0.000411108
0.000406674
0.000411117
0.000406668
0.000406673
0.000402161
0.000402162
0.000397721
0.000402167
0.000397731
0.000406678
0.000411114
0.000406667
0.000411108
0.000406668
0.00040217
0.000402161
0.000397721
0.000397726
0.000402171
0.000402161
0.000397721
0.000420063
0.000415617
0.000415617
0.000420057
0.000420057
0.000415609
0.000428997
0.000424562
0.000424562
0.000420046
0.000415616
0.000420062
0.000415615
0.000420058
0.00042005
0.000415626
0.000420046
0.000415616
0.000420063
0.000415616
0.000420051
0.000420058
0.000415627
0.000420056
0.000402162
0.000406669
0.000406662
0.00041111
0.00041111
0.000411116
0.000406669
0.000406669
0.000402154
0.000397722
0.000402168
0.000397722
0.000402157
0.000402164
0.000397733
0.000402153
0.000397722
0.000402169
0.000397722
0.000402164
0.000402157
0.000397733
0.00040668
0.000411111
0.000411104
0.000406667
0.000406669
0.0004111
0.000406669
0.00040668
0.000411111
0.000411104
0.000406668
0.0004111
0.000406669
0.000406669
0.000402169
0.000397722
0.000397722
0.000402162
0.000402163
0.000397715
0.000402162
0.00040667
0.000420065
0.000420054
0.00041562
0.000415615
0.000420054
0.000420066
0.000415616
0.000420055
0.000415616
0.000420057
0.00042006
0.000415625
0.000420065
0.000420054
0.00041562
0.000415615
0.000420054
0.000420066
0.000415615
0.000424573
0.000429009
0.000424562
0.000429003
0.000424562
0.000424563
0.000424568
0.000429002
0.000429013
0.000429012
0.000424567
0.000424563
0.000420055
0.000415614
0.000420056
0.000420061
0.000415625
0.000406668
0.000411108
0.000411119
0.000406674
0.000411118
0.000406674
0.000406668
0.000402161
0.000402163
0.000397721
0.000402167
0.000397731
0.000406678
0.000411114
0.000406668
0.000411109
0.000406669
0.00040217
0.000402161
0.000397726
0.00039772
0.000402161
0.000402171
0.000397721
0.000406668
0.000411107
0.000411118
0.000406674
0.000411117
0.000406673
0.000406668
0.000402161
0.000402163
0.00039772
0.000402166
0.000397731
0.000406677
0.000411113
0.000406668
0.000411108
0.000406667
0.00040217
0.00040216
0.000397726
0.00039772
0.00040216
0.000402171
0.000397721
0.000424564
0.000420056
0.000424563
0.000420056
0.000406662
0.00041111
0.000411109
0.000411116
0.000406669
0.000406669
0.000402153
0.000397722
0.000402168
0.000397722
0.000397733
0.000402157
0.000402164
0.000402152
0.000397722
0.000402168
0.000397721
0.000397732
0.000402157
0.000402163
0.00040668
0.000411111
0.000411102
0.000406667
0.000411099
0.000406669
0.000406669
0.00040668
0.000411111
0.000411105
0.000406667
0.0004111
0.000406669
0.000406669
0.000402169
0.000397721
0.000397722
0.000397715
0.000402162
0.000402162
0.000402161
0.000406668
0.000402162
0.00040667
0.000388775
0.000388775
0.000388786
0.00039321
0.000393217
0.000388773
0.000393206
0.000388775
0.000388775
0.000388786
0.00039321
0.000393217
0.000388773
0.000393206
0.000388775
0.000388775
0.000388768
0.000393216
0.000393216
0.000393222
0.000388775
0.000388775
0.000388784
0.00039322
0.000388774
0.000393214
0.000388774
0.000388774
0.00038878
0.000393224
0.000393214
0.000388774
0.000393223
0.000388779
0.000388784
0.00039322
0.000388774
0.000393214
0.000388774
0.000388774
0.00038878
0.000393224
0.000393214
0.000393223
0.000388773
0.000388779
0.000388785
0.00039321
0.000393216
0.000388773
0.000388774
0.000393206
0.000388775
0.000388785
0.000393209
0.000393216
0.000388773
0.000388775
0.000393205
0.000388774
0.000388768
0.000393215
0.000393215
0.000388775
0.000393222
0.000388775
0.000388775
0.000388783
0.000393219
0.000388773
0.000388774
0.000393214
0.000388774
0.00038878
0.000393214
0.000393224
0.000388779
0.000393223
0.000388773
0.000388784
0.00039322
0.000388774
0.000393214
0.000388774
0.000388774
0.00038878
0.000393214
0.000393224
0.000393223
0.00038878
0.000388773
0.000388775
0.000388775
0.000426794
0.000426797
0.000417877
0.000417847
0.000417849
0.000417833
0.000426782
0.000424686
0.00042893
0.000428922
0.000424637
0.000428886
0.000424641
0.000424648
0.000391009
0.000391008
0.000390996
0.000388896
0.000393138
0.00039314
0.000388853
0.000393097
0.000388857
0.000388858
0.000424684
0.000428924
0.000428929
0.00042464
0.000428884
0.000424645
0.000424646
0.000402045
0.000402042
0.000397806
0.000397807
0.000402088
0.00040209
0.000397845
0.000424685
0.000428926
0.000428924
0.000424634
0.000424642
0.000428885
0.000424646
0.000428927
0.000424639
0.000424644
0.000402045
0.00040204
0.000397807
0.000397808
0.000402089
0.00040209
0.000397844
0.000402044
0.000402041
0.000397806
0.000397807
0.000397844
0.000402088
0.00040209
0.000388897
0.000393139
0.000393141
0.000388853
0.000393098
0.000388858
0.000388859
0.000388897
0.00039314
0.00039314
0.000388853
0.000388858
0.000393097
0.000388857
0.000426798
0.000426798
0.000417879
0.00041785
0.000417851
0.000417833
0.000426783
0.000426798
0.000426796
0.000417887
0.000417851
0.00041785
0.000417834
0.000426783
0.000426799
0.000426796
0.000417886
0.00041785
0.000417851
0.000417833
0.000426783
0.000408927
0.000399954
0.000399955
0.000408901
0.000408902
0.000408888
0.000399941
0.000408937
0.000399954
0.000399955
0.000408903
0.000408904
0.000408887
0.000399941
0.000408936
0.000399955
0.000399955
0.000408904
0.000408903
0.000408888
0.00039994
0.000408936
0.000399952
0.000399956
0.000408901
0.000408906
0.000408887
0.000399941
0.000419999
0.000419993
0.000415694
0.000415649
0.000419994
0.000420001
0.000415656
0.000424598
0.000428981
0.00042895
0.000424605
0.000428956
0.000424562
0.00042463
0.0004246
0.000424642
0.000428941
0.000428947
0.000428943
0.00042464
0.000424595
0.000420009
0.000415683
0.000420015
0.000415616
0.000420035
0.000420003
0.000415652
0.000419999
0.000419993
0.000415649
0.000415694
0.000420001
0.000419995
0.000415655
0.00042001
0.000415683
0.000420015
0.000415617
0.000420036
0.000420003
0.000415652
0.000419939
0.000419931
0.000415695
0.000415704
0.000419974
0.000419986
0.000415738
0.000391007
0.000391008
0.000390996
0.000391008
0.000391008
0.000390995
0.000391007
0.000391009
0.000390996
0.000388812
0.000393195
0.000393161
0.000388816
0.000393169
0.000388776
0.000388841
0.000388814
0.000388853
0.000393159
0.000393152
0.000393157
0.000388808
0.000388852
0.000419939
0.000419934
0.0004157
0.000415701
0.000415739
0.000419981
0.000419982
0.000406792
0.000406747
0.000411034
0.000411036
0.000410992
0.000406753
0.000406755
0.000419998
0.000419993
0.000415694
0.000415649
0.000419995
0.00042
0.000415655
0.000424601
0.000428982
0.00042895
0.000424606
0.000424631
0.000428958
0.000424563
0.000424601
0.000424642
0.000428942
0.000428946
0.000424641
0.000428944
0.000424596
0.000420013
0.000415684
0.000420016
0.000415617
0.000420004
0.000420038
0.000415655
0.000419998
0.000419993
0.000415694
0.000415649
0.000419995
0.00042
0.000415655
0.000424598
0.000428981
0.00042895
0.000424605
0.000428956
0.00042463
0.000424561
0.000424601
0.000424642
0.000428942
0.000428947
0.000428944
0.000424641
0.000424596
0.00042001
0.000415683
0.000420015
0.000415616
0.000420003
0.000415652
0.000420035
0.000406708
0.000411048
0.000411053
0.000406748
0.000411051
0.000406746
0.000406702
0.000402118
0.000397722
0.000402121
0.000397789
0.000402143
0.000402109
0.000397759
0.000406706
0.000411056
0.000411089
0.000406711
0.000406669
0.000411065
0.000406736
0.000402104
0.000402098
0.000397799
0.000397755
0.0004021
0.000402106
0.000397761
0.000406708
0.000411047
0.000411053
0.000406748
0.000411051
0.000406746
0.000406702
0.000402118
0.000397724
0.000402121
0.000397789
0.000402108
0.000402143
0.00039776
0.000406706
0.000411055
0.000411089
0.000406711
0.000411063
0.000406736
0.00040667
0.000402104
0.000402098
0.000397799
0.000397755
0.0004021
0.000402106
0.000397761
0.000419939
0.000419931
0.0004157
0.000415701
0.000419979
0.00041998
0.000415739
0.000406792
0.000406747
0.000411034
0.000411037
0.000406755
0.000410992
0.000406756
0.000419999
0.000419993
0.000415693
0.00041565
0.000419994
0.000420001
0.000415656
0.0004246
0.000428985
0.000424603
0.000424629
0.000428958
0.000424564
0.000424603
0.000424642
0.000428949
0.00042464
0.000428947
0.000424597
0.000420011
0.000415682
0.000420014
0.000415618
0.000420002
0.000420037
0.000415654
0.000419999
0.000419993
0.000415649
0.000415693
0.000420001
0.000419994
0.000415655
0.0004246
0.000428981
0.00042895
0.000424605
0.000428957
0.00042463
0.000424563
0.000424602
0.000424642
0.000428948
0.000428942
0.000428946
0.000424596
0.000424641
0.000420012
0.000415683
0.000420015
0.000415617
0.000420003
0.000415654
0.000420037
0.000406709
0.000411047
0.000411054
0.000406747
0.000411052
0.000406746
0.000406703
0.000402117
0.000397724
0.000402121
0.000397789
0.000402144
0.000402108
0.00039776
0.000406706
0.000411055
0.00041109
0.00040671
0.000406671
0.000411064
0.000406735
0.000402105
0.000402098
0.000397799
0.000397755
0.0004021
0.000402107
0.000397761
0.000406708
0.000411054
0.000411047
0.000406747
0.000411051
0.000406702
0.000406746
0.000402118
0.000397724
0.000402121
0.000397788
0.000402108
0.000402144
0.00039776
0.000406707
0.000411055
0.00041109
0.00040671
0.000411064
0.000406736
0.00040667
0.000402104
0.000402098
0.000397755
0.000397799
0.000402107
0.0004021
0.000397761
0.000419999
0.000419993
0.000415649
0.000415693
0.000420001
0.000419995
0.000415655
0.000424598
0.000428984
0.000428949
0.000424604
0.000424561
0.000428957
0.00042463
0.000424602
0.000424642
0.000428948
0.000428941
0.000424596
0.000428946
0.00042464
0.00042001
0.000415683
0.000420015
0.000415614
0.000420032
0.000420003
0.000415652
0.000406709
0.000411047
0.000411053
0.000406748
0.000411052
0.000406746
0.000406702
0.000406705
0.000411055
0.000411089
0.00040671
0.000411062
0.000406669
0.000406736
0.000402105
0.000402098
0.000397799
0.000397755
0.000397761
0.0004021
0.000402107
0.000406707
0.000411053
0.000411047
0.000406747
0.000411051
0.000406702
0.000406746
0.000402119
0.000397723
0.000402121
0.000397789
0.000402108
0.000402143
0.00039776
0.000406706
0.000411055
0.000411088
0.00040671
0.000411063
0.000406736
0.000406669
0.000402104
0.000402098
0.000397755
0.000397799
0.000402107
0.0004021
0.00039776
0.000419938
0.000419933
0.000415698
0.000415701
0.000419981
0.000419979
0.000415738
0.000406791
0.000406745
0.000411034
0.000411036
0.000406754
0.000410991
0.000406755
0.000419999
0.000419992
0.000415649
0.000415693
0.000420001
0.000419994
0.000415655
0.000424599
0.00042898
0.000428951
0.000424605
0.000424565
0.000428956
0.00042463
0.000424601
0.000424642
0.000428947
0.000428942
0.000424596
0.000428944
0.000424641
0.000420011
0.000415682
0.000420015
0.00041562
0.00042004
0.000420002
0.000415654
0.000406707
0.000411053
0.000411047
0.000406747
0.000411051
0.000406702
0.000406746
0.000402117
0.000397723
0.000402121
0.000397788
0.000397759
0.000402143
0.000402108
0.000406705
0.000411055
0.000411089
0.00040671
0.000411063
0.00040667
0.000406735
0.000402104
0.000402098
0.000397755
0.000397799
0.00039776
0.000402106
0.0004021
0.000406709
0.000411054
0.000411047
0.000406747
0.000411052
0.000406702
0.000406746
0.000402117
0.000397723
0.00040212
0.000397788
0.000402108
0.000402143
0.000397759
0.000406706
0.000411055
0.000411091
0.000406709
0.000411064
0.000406735
0.00040667
0.000402105
0.000402098
0.000397755
0.000397798
0.000402107
0.0004021
0.000397761
0.000406791
0.000406745
0.000411031
0.000411037
0.000410991
0.000406753
0.000406754
0.000388811
0.000393194
0.000393161
0.000388816
0.000388842
0.000393169
0.000388775
0.000388812
0.000393196
0.000393161
0.000388816
0.000388842
0.000393169
0.000388776
0.000388814
0.000388853
0.000393152
0.000393159
0.000388852
0.000393157
0.000388808
0.000388812
0.000393195
0.000393161
0.000388816
0.00039317
0.000388842
0.000388776
0.000388814
0.000388853
0.000393159
0.000393153
0.000393157
0.000388808
0.000388852
0.000388812
0.000393195
0.000393161
0.000388817
0.000388775
0.00039317
0.000388842
0.000388813
0.000388853
0.00039316
0.000393153
0.000388808
0.000393156
0.000388852
0.000388811
0.000393195
0.00039316
0.000388816
0.000388776
0.000393169
0.000388841
0.000388814
0.000388853
0.000393159
0.000393152
0.000388808
0.000393157
0.000388851
0.000429005
0.000429002
0.000429005
0.00042901
0.000428961
0.00042894
0.000429009
0.000429003
0.000429002
0.000429013
0.000429012
0.000429005
0.000428992
0.000429004
0.000429003
0.000429011
0.000428949
0.000428942
0.000124828
0.000124647
0.000124791
0.000124791
0.000124828
0.00012474
0.000122569
0.000122578
0.000124743
0.000124798
0.000124798
0.000120324
0.000120348
0.000124815
0.000124814
0.000124805
0.000120338
0.000120338
0.000120373
0.000124803
0.000124787
0.000120367
0.000120355
0.000124782
0.000120353
0.000120373
0.000124803
0.000124786
0.000120367
0.000124782
0.000120353
0.000120356
0.000120324
0.000120348
0.000124785
0.000124811
0.000120358
0.000124811
0.000120373
0.00012035
0.000120333
0.000124791
0.000120355
0.000124826
0.000120367
0.000120349
0.000120358
0.000120373
0.00012035
0.000120333
0.000120355
0.000120367
0.000120325
0.000120483
0.000120423
0.000124702
0.000124702
0.000120434
0.000124675
0.000120434
0.000120397
0.000124743
0.000124735
0.000120427
0.000124735
0.000120387
0.000120432
0.000120388
0.000124741
0.000124753
0.000120413
0.000124732
0.000120359
0.000120423
0.000120427
0.000120432
0.000176313
0.000176273
0.000176265
0.000178364
0.00014051
0.000140474
0.000140469
0.000142555
0.0001964
0.000196397
0.000194169
0.000194172
0.000196393
0.000147307
0.000178452
0.000178435
0.000149412
0.000149414
0.000178499
0.000147306
0.000178436
0.000178436
0.000149411
0.000149409
0.000176252
0.000178498
0.000149411
0.000149412
0.000178361
0.000147306
0.000176277
0.000178497
0.000149413
0.000149409
0.000178508
0.000147304
0.000142557
0.000140472
0.000140468
0.000142556
0.00014047
0.000140469
0.000140473
0.000142556
0.000140464
0.000183052
0.000183083
0.000183008
0.000183084
0.000196392
0.000196351
0.000185219
0.000185195
0.00018301
0.000183096
0.000196399
0.0001785
0.000178497
0.000165112
0.000165107
0.000178507
0.000165093
0.000178498
0.0001785
0.000165113
0.000165107
0.000176289
0.000176286
0.000176292
0.00014945
0.000149452
0.000149453
0.000149455
0.000176253
0.000178435
0.000178448
0.000165186
0.000167296
0.000165154
0.000167322
0.000178512
0.000165094
0.000176276
0.000165187
0.000178452
0.000167315
0.000178435
0.000167325
0.000165159
0.0001785
0.000178503
0.0001652
0.000165114
0.000165112
0.000129312
0.000142703
0.000142702
0.000129309
0.000142725
0.000129282
0.000129311
0.000142702
0.000142701
0.000129308
0.000140511
0.000140514
0.000140517
0.000129383
0.000142652
0.000140481
0.000131516
0.000142641
0.000129367
0.000131525
0.000142723
0.000129281
0.000129382
0.000140481
0.00014265
0.00013151
0.000142641
0.000131525
0.000129366
0.000142699
0.000142701
0.000129412
0.000129318
0.000129318
0.000182997
0.000196259
0.000183094
0.00018301
0.000183007
0.000196398
0.000182993
0.000196403
0.000194151
0.000185202
0.000185219
0.00019633
0.000183052
0.000196347
0.000183083
0.000185222
0.000185213
0.000196348
0.000194159
0.000183055
0.00019633
0.000183083
0.000196394
0.000183001
0.000196397
0.000183009
0.000183001
0.000196393
0.000183008
0.00017851
0.000165095
0.00017851
0.000165095
0.000178501
0.000178501
0.000178362
0.000165202
0.000165114
0.000165114
0.000147192
0.000160617
0.000147191
0.000160617
0.00016046
0.000147218
0.000147217
0.000160603
0.000160603
0.000178497
0.000178497
0.000165112
0.000165104
0.000178435
0.000176264
0.000176275
0.000165187
0.000167311
0.000165159
0.000167325
0.000178456
0.00017627
0.000176276
0.000165188
0.000167322
0.000165162
0.000167324
0.000160601
0.000147209
0.000160602
0.000147213
0.0001606
0.000147211
0.0001606
0.000147213
0.00016054
0.000158369
0.000147263
0.000149428
0.000160553
0.000158381
0.000147288
0.000160541
0.000158377
0.000147264
0.000149425
0.000160554
0.000158379
0.000147288
0.000178366
0.000178504
0.000165201
0.000165112
0.000165114
0.000178514
0.000165097
0.000147193
0.000160616
0.000160459
0.000147218
0.000147216
0.000160602
0.000160601
0.000147189
0.000160617
0.000178452
0.000176264
0.000176277
0.000165187
0.00016731
0.000165159
0.000167324
0.000178498
0.000178501
0.000165113
0.000165106
0.000176275
0.000176263
0.000178452
0.000165186
0.000167307
0.000167324
0.000165158
0.000160601
0.000147209
0.000160602
0.000147213
0.00016054
0.000158368
0.000147263
0.000149425
0.000160553
0.000158379
0.000147286
0.0001606
0.000147208
0.000160601
0.000147213
0.000160539
0.000158366
0.000149426
0.000147262
0.000158379
0.000160552
0.000147287
0.000178498
0.000178502
0.000165114
0.00016511
0.000176273
0.000178435
0.000178448
0.000165186
0.000167302
0.000167321
0.000165155
0.000178502
0.000165113
0.000165108
0.000160539
0.000158359
0.000147263
0.000149426
0.000160551
0.000158378
0.000147286
0.000160602
0.000147206
0.000160603
0.000147213
0.000160539
0.000158364
0.000149426
0.000147263
0.000158378
0.000160552
0.000147286
0.000160602
0.000147206
0.000160602
0.000147213
0.000178501
0.0001785
0.000165202
0.000165113
0.000165113
0.000178509
0.000165095
0.000147191
0.000160616
0.000160461
0.000147217
0.000147217
0.000160602
0.000160602
0.000147191
0.000160617
0.000176276
0.000178456
0.000165187
0.000167323
0.000178436
0.000167325
0.000165163
0.000165112
0.000178498
0.000178497
0.000165107
0.000165112
0.000178497
0.000165105
0.000160541
0.000158372
0.000149427
0.000147263
0.000158381
0.000160554
0.000147286
0.000160541
0.000158374
0.000149424
0.000147262
0.000158379
0.000160554
0.000147286
0.0001606
0.000147208
0.000160602
0.000147213
0.0001606
0.00014721
0.000160601
0.000147213
0.000178512
0.000165096
0.000165094
0.000160458
0.000147215
0.000147218
0.000160602
0.000160602
0.000147189
0.000160617
0.000147193
0.000160617
0.000142723
0.000129282
0.000142723
0.000129282
0.0001427
0.0001427
0.000129412
0.000129318
0.000129319
0.000124829
0.000124829
0.000124649
0.000124793
0.000124793
0.000129312
0.000142704
0.000142702
0.000129308
0.000129383
0.000142651
0.000140482
0.000131514
0.000142642
0.000129366
0.000131526
0.000129382
0.000142651
0.00014048
0.000131509
0.000142642
0.000129365
0.000131524
0.000124799
0.000124799