/*--------------------------------*- C++ -*----------------------------------*\
| =========                 |                                                 |
| \\      /  F ield         | OpenFOAM: The Open Source CFD Toolbox           |
|  \\    /   O peration     | Version:  v2006                                 |
|   \\  /    A nd           | Website:  www.openfoam.com                      |
|    \\/     M anipulation  |                                                 |
\*---------------------------------------------------------------------------*/
FoamFile
{
    version     2.0;
    format      ascii;
    class       surfaceScalarField;
    location    "125";
    object      phi;
}
// * * * * * * * * * * * * * * * * * * * * * * * * * * * * * * * * * * * * * //

dimensions      [0 3 -1 0 0 0 0];
oriented        oriented;


internalField   nonuniform List<scalar> 
41332
(
1.32024e-06
-6.55813e-09
-1.30734e-06
2.74606e-07
-2.72297e-07
2.36561e-07
-2.39635e-07
-0.00114414
1.32286e-06
1.89067e-07
-1.30481e-06
2.71811e-07
-2.66712e-07
2.33863e-07
-2.42232e-07
-0.00114399
-1.28513e-06
-0.00027361
2.56189e-07
2.58576e-07
-1.28334e-08
1.31335e-08
-1.27222e-06
2.72016e-07
-2.69433e-07
-9.13702e-07
2.39438e-07
9.19765e-07
-2.42229e-07
-0.00114462
1.24643e-06
3.70166e-08
-1.94807e-07
-1.33552e-06
2.63667e-07
-2.7502e-07
-9.19001e-07
2.3685e-07
-2.42115e-07
9.16957e-07
-0.00114446
-0.000273611
2.45401e-07
2.58645e-07
2.93904e-08
-0.0011642
-1.86418e-07
-0.00116357
3.10582e-09
-2.31458e-09
-0.000194322
-5.92834e-09
-9.26943e-08
-0.000248672
-5.24403e-09
-5.85361e-09
-8.79386e-08
-0.000248715
-2.38623e-09
-0.000194331
2.77936e-08
-9.79067e-05
-5.33765e-09
-0.000280264
-6.09393e-09
-3.0062e-08
5.88058e-09
-7.65439e-09
-0.000280383
-6.60581e-09
2.43086e-09
-9.79214e-05
2.69519e-08
2.04395e-08
-1.01041e-06
8.34851e-07
1.0099e-06
-8.37517e-07
-0.00115235
-5.22664e-09
-9.03969e-08
-0.000248774
5.94393e-09
-3.8469e-10
3.63213e-08
-0.000255986
-1.99748e-07
-4.93597e-09
7.73015e-08
-1.01877e-06
8.37501e-07
-8.40464e-07
1.01236e-06
-0.0011525
-5.10429e-09
-8.26983e-09
-9.29233e-08
-0.000248673
3.5582e-09
3.63236e-08
-0.000255961
-1.97081e-07
-2.59478e-09
-0.000194376
4.57112e-09
-2.75253e-11
-0.00023254
-6.78554e-09
1.95778e-08
-2.46456e-09
-0.000194323
4.72411e-09
-0.000232503
-6.31446e-09
2.18481e-08
-3.00629e-08
-5.39743e-09
-0.000280352
-3.93106e-09
-2.99872e-08
-7.58496e-09
-0.000280264
-6.68337e-09
-9.79129e-05
-9.79071e-05
3.51176e-09
3.68686e-09
-0.000194318
3.51465e-09
1.32688e-09
-0.000194325
-2.28767e-08
-9.78803e-05
1.48185e-08
8.77445e-09
0.000224509
-8.34358e-09
2.46948e-08
-0.000224549
-0.000254777
1.05325e-08
-5.65119e-08
-2.16317e-08
9.0145e-09
5.47846e-09
-5.68471e-09
-0.000280295
-0.000183935
1.06262e-08
-3.00992e-09
5.92746e-08
2.77904e-08
-0.000254841
3.10629e-09
-0.000183924
7.75958e-09
-2.46765e-08
6.69367e-09
1.46169e-08
0.00022459
-8.19108e-09
2.46865e-08
-0.000224628
-0.000254949
1.05767e-08
-5.92207e-08
-2.16548e-08
6.08427e-09
1.12393e-08
2.51566e-08
-5.64904e-09
-0.00028042
-0.000183995
8.5314e-09
-2.99903e-09
3.16138e-09
-0.000183986
5.92547e-08
2.76703e-08
-0.00025501
7.72917e-09
-2.6997e-08
-4.92841e-10
-6.65828e-10
0.000215321
-0.000215336
-8.07872e-05
3.37419e-10
-8.0803e-05
1.39604e-10
-8.07845e-05
-8.08005e-05
-3.53884e-09
-9.78927e-05
-2.00195e-08
7.92406e-05
-1.80239e-08
-7.92026e-05
-1.05737e-08
1.26795e-09
-0.000194371
-0.000264917
-2.62151e-08
1.04968e-08
-1.83405e-08
-1.32944e-08
1.92484e-08
-0.000264954
1.74246e-08
-1.17454e-08
2.22689e-10
0.000143659
-0.000143666
7.43611e-09
-1.77769e-08
-1.07978e-10
3.43758e-08
-0.000232564
-0.000225854
-1.27012e-08
-2.78435e-08
-0.000171566
1.68339e-09
-1.48561e-11
2.56522e-08
-0.000225897
-1.49929e-10
-0.000171584
-2.23197e-08
7.91965e-05
-1.79634e-08
-7.91562e-05
-1.04052e-08
3.47405e-09
1.17719e-09
-0.000194317
-0.000264786
-2.82855e-08
1.07507e-08
-1.607e-08
-1.31364e-08
1.67499e-08
-0.000264823
1.7683e-08
-1.16534e-08
5.65713e-10
0.000143586
-0.000143593
7.3596e-09
-2.0035e-08
3.44127e-08
-0.000232524
-0.000225758
-1.25923e-08
-2.5371e-08
-0.00017153
1.82113e-09
2.31879e-08
-0.000225798
-0.000171549
0.000224579
1.45907e-08
6.5022e-09
-8.2551e-09
2.45165e-08
-0.000224616
1.30133e-08
-0.000254914
-5.40183e-08
-1.89797e-08
1.13484e-08
3.41384e-09
2.51377e-08
-5.64666e-09
-0.000280386
8.38901e-09
-0.000183985
-3.0787e-09
9.90904e-09
-2.46843e-08
5.90135e-08
2.52135e-08
-0.000254973
3.17291e-09
-0.000183979
0.000224509
1.47471e-08
6.72301e-09
-8.22748e-09
2.23376e-08
-0.000224545
1.04488e-08
-0.00025479
-5.64868e-08
-1.90405e-08
1.12167e-08
5.96495e-09
2.51591e-08
-7.89767e-09
-0.000280299
8.55562e-09
-0.000183934
-2.9939e-09
7.79423e-09
-2.69963e-08
5.6662e-08
2.51214e-08
-0.000254846
3.13981e-09
-0.000183924
0.000215319
-4.02593e-10
-7.00306e-10
-0.000215334
2.21556e-10
-8.08016e-05
3.17222e-10
-8.07876e-05
-8.07989e-05
-8.07852e-05
-9.78843e-05
-9.78785e-05
1.16114e-07
1.15855e-07
0.000247076
-0.000247258
-2.49075e-07
-2.53967e-07
-0.000275687
-0.000266313
1.18772e-07
-0.000265956
1.188e-07
-0.000266659
-0.000266304
0.000247066
1.08442e-07
1.1845e-07
-0.000247246
-2.61748e-07
-2.51659e-07
-0.000275738
1.18677e-07
-0.000265918
1.16197e-07
-0.000266331
-0.000266279
-0.000266682
1.47162e-08
-0.00117403
-0.00117405
-0.000265424
1.01914e-07
-0.000248766
-0.000265537
-0.000265458
9.9439e-08
-0.00024881
-0.000265579
0.000269976
-3.06728e-09
-1.83865e-07
5.04104e-09
-0.000270708
1.94418e-09
-0.000265529
9.94091e-08
-9.56076e-09
-0.000248868
-1.8439e-07
-0.000255141
4.25551e-09
-1.24938e-09
-0.000265648
-7.08628e-09
-0.000255308
0.000271657
1.19059e-09
-2.06967e-07
-0.000272457
1.97478e-07
3.30368e-09
-3.95499e-11
-0.000256152
-5.29237e-09
-0.000272033
1.43893e-09
-2.11183e-07
-0.000254768
-5.72781e-10
-0.000272671
-0.000254953
-1.86121e-07
-5.69791e-09
0.0002699
-4.16927e-10
-0.000270627
-0.000265439
-5.43057e-10
-6.96925e-09
1.01708e-07
-0.000248775
-0.000255032
-1.86909e-07
2.03527e-09
-6.94968e-09
-0.000255202
-0.00026556
-1.16336e-08
-1.26821e-09
-2.07008e-07
0.000271597
-0.000272408
1.97562e-07
4.20082e-09
-0.000256128
-0.00027202
1.45694e-09
-0.000254686
-2.08406e-07
-0.000272665
-0.000254872
3.90862e-09
-6.8191e-09
2.35828e-10
-3.26547e-08
0.00116448
-1.35255e-06
5.64458e-08
-1.73564e-07
0.00114462
-2.93929e-07
1.27469e-06
2.78538e-07
9.42736e-07
-2.72054e-07
-9.48162e-07
2.62157e-07
1.31601e-06
1.28676e-06
-2.68428e-07
-2.68384e-07
0.000273595
3.94163e-09
4.35362e-09
-0.00116448
-4.78813e-09
-4.80138e-09
0.00116448
-0.00114458
-1.28677e-06
-4.67301e-09
1.18796e-08
-2.85688e-07
1.29372e-06
2.81029e-07
9.39892e-07
-2.69114e-07
-9.39608e-07
2.59323e-07
0.00114458
-0.000275658
1.31888e-06
1.2758e-06
-2.63111e-07
-2.73759e-07
0.000273601
1.33279e-06
1.28684e-06
-2.65785e-07
-2.73887e-07
0.000273629
-1.33724e-06
-1.29417e-06
0.000275709
-0.000273632
2.7309e-07
2.81097e-07
1.21034e-08
0.00114407
-2.88584e-07
1.33723e-06
2.83721e-07
9.48209e-07
-2.72229e-07
-9.45716e-07
2.61877e-07
-1.32772e-06
1.63122e-07
1.51938e-09
0.00114419
-2.91384e-07
1.3348e-06
2.86644e-07
9.45354e-07
-2.74971e-07
-9.48145e-07
2.59174e-07
0.00114407
-5.6054e-09
-0.00114407
1.221e-08
-1.32987e-06
2.86566e-07
-2.91202e-07
-9.45313e-07
2.59264e-07
-2.69178e-07
9.45604e-07
-5.65418e-09
-0.0011442
1.17741e-08
-9.47865e-07
2.61918e-07
-2.71975e-07
9.48076e-07
1.33463e-06
0.0011442
-1.32716e-06
2.86648e-07
-2.91177e-07
-2.76287e-07
-2.71062e-07
0.000273637
-4.90893e-09
0.00114508
-2.82784e-07
1.29426e-06
2.7849e-07
9.45558e-07
-2.72035e-07
-9.47967e-07
2.59485e-07
-1.31623e-06
1.31543e-08
3.96797e-08
0.00114411
-2.88485e-07
1.33198e-06
2.86686e-07
9.42672e-07
-2.74905e-07
-9.47978e-07
2.59259e-07
0.00114508
-6.15861e-09
-0.00114508
1.14008e-08
-1.28681e-06
2.78398e-07
-2.82886e-07
-9.42342e-07
2.59436e-07
-2.69172e-07
9.42832e-07
1.33181e-06
0.00114409
3.64131e-10
-0.0011441
1.19801e-08
-1.32443e-06
2.83757e-07
-2.88479e-07
-9.45195e-07
2.61948e-07
-2.71934e-07
9.45392e-07
1.34392e-08
5.08621e-08
0.00114378
-2.82768e-07
1.33453e-06
2.86668e-07
9.42492e-07
-2.66717e-07
2.61883e-07
-9.39994e-07
1.32601e-06
0.00114376
-6.11834e-09
-0.00114376
1.19707e-08
-1.31874e-06
2.8376e-07
-2.88335e-07
-9.42322e-07
2.62052e-07
-2.7181e-07
9.4265e-07
-2.73773e-07
0.00027362
-1.29391e-06
0.000275683
-0.000273609
2.73281e-07
2.78257e-07
-9.65355e-09
-1.61736e-08
0.00114476
-2.91059e-07
1.28314e-06
2.78556e-07
9.40158e-07
-2.74599e-07
2.56883e-07
-9.4485e-07
-6.43015e-09
-0.00114458
1.16124e-08
-1.28656e-06
2.81075e-07
-2.85651e-07
-9.39524e-07
2.59502e-07
9.40064e-07
-2.69036e-07
1.28299e-06
0.00114476
-6.54156e-09
-0.00114476
1.1098e-08
-1.2756e-06
2.75604e-07
-2.80038e-07
-9.41988e-07
2.6222e-07
-2.71704e-07
9.42695e-07
-0.000273601
2.70466e-07
2.80968e-07
1.32998e-06
1.28688e-06
-2.6578e-07
-2.73742e-07
0.000273631
-2.91261e-07
1.33709e-06
2.8646e-07
9.45401e-07
-2.6927e-07
-9.45387e-07
2.5905e-07
1.24147e-08
0.00114407
1.16639e-08
-2.82928e-07
1.29409e-06
2.81124e-07
9.42645e-07
-2.69261e-07
-9.42432e-07
2.59264e-07
0.00114508
-1.32462e-06
-4.06303e-09
1.21763e-08
-2.88499e-07
1.33165e-06
2.83724e-07
9.45232e-07
-2.72e-07
-9.45255e-07
2.6177e-07
0.00114409
-4.4545e-09
1.21011e-08
-2.88319e-07
1.3259e-06
2.83746e-07
9.42517e-07
-2.71844e-07
2.61896e-07
-9.42329e-07
0.00114376
-2.66068e-07
-2.70928e-07
0.000273609
1.18916e-09
1.13377e-08
-2.80088e-07
1.28284e-06
2.75544e-07
9.42521e-07
-2.71808e-07
2.62029e-07
-9.42068e-07
0.00114476
8.92401e-12
-5.39642e-08
0.000232571
-0.000232537
1.89693e-08
1.03625e-09
-4.29094e-09
3.66154e-08
-5.61199e-09
0.000194376
2.26013e-10
5.15216e-08
0.000232537
-1.79928e-08
2.42854e-10
6.22178e-09
-3.1665e-08
0.000194402
-1.04196e-09
-0.000194376
4.15491e-09
1.51738e-08
9.78835e-05
-6.27446e-09
-1.29261e-08
9.79027e-05
-9.78835e-05
-5.3923e-08
-3.14176e-10
0.000232567
-0.000232533
1.34433e-09
1.8952e-08
6.30645e-09
-3.17383e-08
0.000194379
-1.07671e-09
-0.000194352
-7.27266e-08
-1.96495e-07
0.00116418
-1.42316e-11
6.53594e-09
0.00116411
1.81784e-08
-5.35339e-09
0.00116413
-0.00116448
-5.90803e-09
-5.87949e-09
0.0011643
-0.00116429
-1.16624e-08
-1.16796e-08
6.23663e-09
0.0011641
-0.0011641
-5.66642e-09
-2.976e-10
0.00116411
-0.00116412
-5.68852e-10
-5.89871e-09
5.14393e-08
-2.26321e-09
0.000256162
-0.000255989
1.46632e-09
-2.23083e-07
-1.34018e-08
-3.64391e-08
1.36711e-07
5.9672e-09
0.000248775
0.00115244
-5.63726e-08
7.90181e-08
1.03555e-06
-8.57538e-07
-1.03988e-06
8.53271e-07
-2.76738e-08
1.29697e-06
0.00114465
6.23872e-09
-9.425e-07
2.62127e-07
-2.71937e-07
9.42804e-07
-1.29473e-06
2.7846e-07
-2.88295e-07
-5.15325e-08
2.02092e-10
0.000255989
1.5177e-09
2.1998e-07
1.46196e-08
3.17445e-08
0.000248872
-1.05991e-08
-0.00024878
-1.28544e-07
-2.93499e-08
0.00115242
1.70873e-08
-1.03415e-06
8.56033e-07
-8.5466e-07
1.03827e-06
4.31142e-09
1.52498e-08
9.7879e-05
-6.321e-09
-1.312e-08
9.78984e-05
-9.7879e-05
-8.07321e-10
5.13828e-08
0.000256157
-0.000255983
-2.25636e-07
2.49991e-10
1.1661e-08
1.29136e-06
0.00114458
-5.37974e-09
-9.39639e-07
2.59542e-07
-2.69124e-07
9.40109e-07
-1.28926e-06
2.81203e-07
-2.88342e-07
-2.63416e-09
0.00115227
6.07645e-09
-1.03418e-06
8.56013e-07
-8.54703e-07
1.0383e-06
1.69959e-08
3.17642e-08
0.000248865
-1.05147e-08
-0.000248775
-1.28571e-07
1.35011e-08
-1.28482e-08
3.34817e-08
-8.71216e-09
0.000280348
1.55486e-08
-1.31135e-08
4.11063e-08
-1.06668e-08
0.000280266
-1.32624e-06
-1.28323e-06
0.000275658
-0.0002736
2.70637e-07
2.81112e-07
-1.69926e-08
1.0863e-08
0.000280379
8.67526e-09
-0.000280345
-3.56345e-08
-1.47811e-08
1.07237e-08
0.000280293
8.85302e-09
-0.000280263
-3.54121e-08
-0.000194402
-4.16913e-09
3.63021e-08
-5.71236e-09
0.000194376
-0.000194379
-4.12828e-09
3.62491e-08
-5.69184e-09
0.000194352
-0.000232567
5.39018e-08
2.24096e-10
0.00023253
3.43106e-10
-1.78334e-08
-5.00355e-09
-1.03479e-08
4.73679e-09
4.07084e-09
0.0011643
-4.67687e-09
-4.48487e-09
0.0011641
-4.7699e-09
-4.85421e-09
0.00116412
-9.78957e-05
4.1501e-09
1.26926e-08
9.78788e-05
-0.00115227
3.93547e-09
6.14874e-09
1.03812e-06
-8.54628e-07
-1.0341e-06
8.5586e-07
0.00115226
-0.000248865
-1.5743e-08
-3.61765e-08
1.36503e-07
5.8831e-09
0.000248774
-0.000256157
9.37395e-10
-5.13857e-08
0.000255985
2.22419e-07
4.86602e-10
-0.000280378
1.56943e-08
-1.26676e-08
3.82496e-08
-8.09641e-09
0.000280345
-0.000280293
1.31395e-08
-1.27123e-08
3.83007e-08
-8.07107e-09
0.000280262
1.29587e-08
9.7904e-05
-1.08283e-08
9.79211e-05
-9.7904e-05
-1.07051e-08
9.79073e-05
-9.78903e-05
1.59702e-08
3.61209e-08
-8.27489e-09
0.000280378
0.000275711
-1.33733e-06
-1.29422e-06
-0.000273631
2.70571e-07
2.8117e-07
0.000280408
-1.70244e-08
8.69388e-09
-0.000280378
-3.32641e-08
0.000280331
-1.46678e-08
8.76732e-09
-0.000280301
-3.54056e-08
-1.06575e-08
-6.20483e-09
9.79209e-05
-9.7904e-05
1.28179e-08
4.23258e-09
9.7904e-05
-1.05875e-08
-6.25056e-09
9.79071e-05
-9.78903e-05
1.28856e-08
4.14912e-09
9.78903e-05
1.32994e-06
1.28689e-06
0.000273632
-2.63258e-07
-2.73804e-07
-1.70008e-08
0.000280408
-3.30711e-08
-0.000280377
8.68695e-09
-1.46153e-08
0.000280331
-3.52803e-08
-0.000280301
8.7007e-09
1.58823e-08
-8.19048e-09
3.60514e-08
0.000280378
1.33182e-08
-8.1416e-09
3.83742e-08
0.000280301
-5.39812e-08
0.000232531
-0.000232497
1.89773e-08
1.21562e-09
3.87909e-08
-5.82321e-09
0.000194313
5.15164e-08
0.000232497
-1.79906e-08
5.32938e-10
-3.37561e-08
0.000194341
-1.14717e-09
-0.000194313
-8.34479e-10
0.000256166
-0.000255991
2.15583e-11
-2.28311e-07
1.32114e-07
6.0277e-09
0.000248779
0.00115261
6.31602e-09
6.02703e-09
1.04698e-06
-8.60301e-07
-1.03705e-06
8.64616e-07
1.21131e-08
0.00114408
-1.71449e-08
-1.3299e-06
2.83755e-07
-2.88473e-07
-9.45531e-07
2.59275e-07
-2.69317e-07
9.45587e-07
9.23372e-10
0.000255991
5.25865e-10
2.25153e-07
0.000248867
-1.05674e-08
-0.000248779
-1.25989e-07
-1.15779e-09
0.00115262
8.84057e-10
-1.03985e-06
8.58892e-07
-8.60296e-07
1.04127e-06
0.000256138
-0.000255966
1.58906e-09
-2.2833e-07
-1.31643e-08
1.36871e-07
5.77919e-09
0.000248683
0.00115258
2.26476e-08
1.04397e-06
-8.6027e-07
-1.03968e-06
8.61793e-07
1.19513e-08
0.00114419
1.33487e-06
1.52788e-09
-9.48026e-07
2.61895e-07
9.4804e-07
-2.74855e-07
-1.3271e-06
2.86705e-07
-2.91222e-07
0.000255966
-6.51568e-10
2.25137e-07
0.000248771
1.4551e-08
-1.07017e-08
-0.000248682
-1.2583e-07
0.00115258
6.10353e-09
-1.03963e-06
8.61707e-07
-8.60253e-07
1.04385e-06
1.76122e-10
5.14689e-08
-1.79326e-08
3.17785e-10
0.000232537
-3.15046e-08
-0.000194376
-1.05612e-09
3.64545e-08
-5.64407e-09
0.000194376
-4.33613e-11
-5.38382e-08
-0.000232537
1.88978e-08
1.03252e-09
0.000232571
5.14555e-08
-1.79232e-08
4.97132e-10
0.000232497
-3.36835e-08
-0.000194313
-1.02852e-09
6.20455e-09
0.000194341
3.87074e-08
-4.18762e-09
-5.79696e-09
0.000194313
-5.38589e-08
-0.000232497
1.89146e-08
1.12898e-09
0.000232531
1.064e-09
7.55285e-10
2.2509e-07
0.00025599
1.77759e-08
-3.95539e-09
1.33726e-06
-2.91289e-07
2.86505e-07
9.45477e-07
-2.694e-07
2.59146e-07
-9.45564e-07
0.000248866
-1.25834e-07
-0.000248779
-1.05278e-08
-0.00115262
-2.98727e-09
6.45052e-09
-1.03982e-06
8.55941e-07
-8.57475e-07
1.04112e-06
0.00115263
5.93457e-09
1.34391e-07
0.000248779
4.95329e-09
8.73671e-10
1.04401e-06
-8.57482e-07
-1.03706e-06
8.6166e-07
-8.40331e-10
-0.00025599
-1.73567e-11
-2.2817e-07
0.000256165
-2.8511e-10
2.25061e-07
0.000255966
6.63009e-09
-1.32714e-06
-3.63209e-09
9.47878e-07
-2.72238e-07
-9.48144e-07
2.61726e-07
1.33474e-06
-2.91281e-07
2.86553e-07
-1.25745e-07
-0.000248682
-1.06647e-08
1.44986e-08
0.00024877
-0.00115259
6.2157e-09
-1.0396e-06
8.58768e-07
-8.57412e-07
1.04371e-06
0.00115259
-1.31539e-08
5.72938e-09
1.34445e-07
0.000248682
6.5274e-10
1.04382e-06
-8.60224e-07
-1.03961e-06
8.61683e-07
-0.000255966
1.33313e-09
-2.28194e-07
0.000256138
3.84047e-08
-1.06198e-08
0.000280261
-1.29279e-08
3.61057e-08
-8.73669e-09
0.000280387
0.000275698
-0.000273621
2.76078e-07
2.7847e-07
0.000280287
1.13099e-08
-0.000280261
-3.53803e-08
1.08002e-08
0.000280414
9.21046e-09
-0.000280386
-3.32206e-08
4.22208e-09
9.78969e-05
9.7914e-05
-6.23442e-09
-9.78969e-05
1.49987e-08
9.78835e-05
1.28924e-06
0.000273621
-2.68517e-07
-2.70901e-07
-1.06386e-08
3.82533e-08
0.000280261
-1.27929e-08
1.33705e-08
-8.7102e-09
3.59748e-08
0.000280386
4.23637e-09
9.78969e-05
-2.01463e-09
0.000256155
-0.000255982
1.01786e-09
-2.25659e-07
0.00115248
-2.11931e-08
1.13611e-08
1.04388e-06
-8.57479e-07
-1.03975e-06
8.58933e-07
5.97873e-09
0.00114508
-5.85167e-09
-1.28402e-06
2.78438e-07
-2.82837e-07
-9.45152e-07
2.59495e-07
-2.69214e-07
9.42875e-07
0.000248832
-1.07007e-08
-0.000248741
-1.26063e-07
-1.30453e-08
0.00115248
1.16217e-08
-1.03972e-06
8.58834e-07
-8.57484e-07
1.04102e-06
-5.38613e-08
0.000232526
-0.000232494
2.09682e-08
6.21207e-10
3.87934e-08
-5.60592e-09
0.000194301
5.39505e-08
0.000232494
-2.0005e-08
1.16381e-10
4.30215e-11
-3.39126e-08
0.00019433
-1.08232e-09
-0.000194301
0.000256127
-0.00025596
-2.23043e-07
5.34109e-10
0.00115246
1.14199e-08
1.04113e-06
-8.60354e-07
-1.0425e-06
8.58931e-07
-1.57592e-08
1.36849e-07
5.90492e-09
0.000248675
2.30176e-08
0.0011441
1.33206e-06
1.05581e-09
-9.42506e-07
2.59241e-07
9.42679e-07
-2.69313e-07
-1.32438e-06
2.83847e-07
-2.88408e-07
0.00025596
2.22583e-07
-1.15343e-09
-9.8749e-10
0.00115245
1.16804e-08
-1.03695e-06
8.58841e-07
-8.57554e-07
1.04107e-06
0.000248763
1.69974e-08
-1.06491e-08
-0.000248675
-1.28324e-07
5.40044e-08
1.41826e-10
3.52658e-10
-1.79223e-08
0.00023253
-3.15906e-08
-0.000194352
-1.04251e-09
3.64389e-08
-5.69946e-09
0.000194352
-5.63289e-08
-2.1216e-10
-0.00023253
1.09439e-09
1.88849e-08
1.67384e-09
5.49694e-11
2.22504e-07
0.000255985
1.15028e-08
-4.60151e-09
1.29413e-06
-2.82978e-07
2.78315e-07
9.42712e-07
-2.69364e-07
2.59307e-07
-9.42543e-07
0.000248831
-1.28331e-07
-0.000248739
-1.06269e-08
-0.00115248
-5.5339e-09
0.00115249
6.2808e-09
-1.03689e-06
8.58718e-07
-8.54641e-07
1.04089e-06
5.84608e-09
1.34382e-07
0.000248741
-1.32538e-10
6.03946e-09
1.04099e-06
-8.57454e-07
-1.03691e-06
8.56005e-07
-1.88591e-09
0.000256155
-0.000255984
8.08934e-10
-2.25553e-07
5.14565e-08
-1.99636e-08
3.628e-10
0.000232494
-3.15275e-08
6.20671e-09
0.000194327
-0.000194301
-1.04696e-09
3.87695e-08
-4.30681e-09
-5.68159e-09
0.000194301
-5.37411e-08
0.000232525
-0.000232494
2.09051e-08
1.07244e-09
2.19921e-07
-1.38392e-10
0.00025596
1.21382e-08
-1.32439e-06
-4.16815e-09
9.45253e-07
-2.72153e-07
-9.45408e-07
2.61791e-07
1.33193e-06
-2.88552e-07
2.83684e-07
-0.00115246
0.00115244
1.18422e-08
-1.03692e-06
8.58722e-07
-8.5471e-07
1.04094e-06
1.69819e-08
0.000248765
-1.28204e-07
-0.000248674
-1.05949e-08
6.06645e-09
1.04106e-06
-8.57518e-07
-1.03693e-06
8.56018e-07
-1.57787e-08
5.86883e-09
1.36878e-07
0.000248675
0.000256126
-0.00025596
-2.22912e-07
9.86049e-10
-3.51472e-10
0.000232568
-0.000232536
1.25788e-09
1.89615e-08
-5.56437e-09
0.000194358
-1.78137e-10
0.000232536
5.65137e-10
-1.79665e-08
0.000194387
-9.86456e-10
-0.000194361
5.14199e-08
0.000256133
-0.000255964
-2.23059e-07
7.85248e-10
0.00115237
2.22964e-08
1.03833e-06
-8.57549e-07
8.56081e-07
-1.03417e-06
-3.65176e-08
1.3187e-07
5.98491e-09
0.000248713
2.31444e-08
0.00114377
1.14383e-09
-1.32134e-06
2.80986e-07
-2.85526e-07
-9.42515e-07
2.61918e-07
-2.7199e-07
9.42471e-07
-5.15558e-08
0.000255965
2.20007e-07
-1.38312e-09
0.00115236
5.90234e-09
-1.03132e-06
8.53238e-07
-8.51883e-07
1.03547e-06
3.16682e-08
0.000248803
-1.05768e-08
-0.000248713
-1.28373e-07
0.000232529
-0.000232498
1.89588e-08
1.07463e-09
-4.29692e-09
-5.57852e-09
0.00019431
0.000232498
-1.79965e-08
1.44041e-10
0.000194337
6.19096e-09
-1.00653e-09
-0.00019431
-4.89554e-08
1.2708e-09
5.49544e-10
2.22471e-07
0.000255986
9.58545e-10
-4.1398e-09
1.29686e-06
-2.82874e-07
2.78296e-07
9.45331e-07
-2.72013e-07
-9.45315e-07
2.61948e-07
0.00114466
-0.00115241
-9.57676e-09
6.03021e-09
-1.03679e-06
8.55962e-07
1.04098e-06
-8.54551e-07
-6.07914e-09
0.00115241
-3.63574e-08
5.90113e-09
1.36696e-07
0.00024878
-6.04711e-09
1.13925e-08
1.04104e-06
-8.54585e-07
-1.03687e-06
8.56044e-07
5.13616e-08
-2.44084e-09
-0.000255986
4.73472e-10
-2.25612e-07
0.000256163
1.25163e-11
6.20886e-10
-1.78947e-08
0.000232536
-5.59678e-09
0.000194361
-3.26233e-10
-0.000232536
1.00549e-09
1.89071e-08
0.000232568
-4.89868e-08
2.19905e-07
-6.18149e-10
0.000255964
2.30195e-08
-1.3187e-06
-4.2575e-09
9.4243e-07
-2.72057e-07
-9.42569e-07
2.61821e-07
1.32609e-06
-2.85648e-07
2.80864e-07
-0.00115236
0.00115235
6.14578e-09
-1.03401e-06
8.55974e-07
-8.54595e-07
1.03823e-06
3.1561e-08
1.69914e-08
0.000248803
-1.25894e-07
-0.000248715
-1.05831e-08
1.14376e-08
1.03832e-06
-8.54623e-07
-1.03402e-06
8.56063e-07
-3.64776e-08
-1.58565e-08
5.94117e-09
1.34391e-07
0.000248715
5.1349e-08
0.000256132
-0.000255964
-2.22996e-07
1.00754e-09
-1.79249e-08
1.31154e-10
0.000232498
6.21269e-09
0.000194336
-0.00019431
-1.02881e-09
-4.26085e-09
-5.64687e-09
0.00019431
0.000232529
-0.000232498
1.89052e-08
1.05952e-09
3.61208e-08
0.000280263
0.000275683
-0.000273612
2.7349e-07
2.78427e-07
0.00028029
9.25308e-09
-0.000280263
-3.31896e-08
1.08392e-08
0.000280415
8.6787e-09
-0.000280382
-3.55941e-08
9.79114e-05
-6.20214e-09
-9.78944e-05
-1.05991e-08
-9.78789e-05
1.51929e-08
9.78789e-05
1.28654e-06
0.000273609
-2.65993e-07
-2.709e-07
0.000280293
-3.29811e-08
-0.000280262
9.18061e-09
1.06599e-08
-1.69578e-08
0.000280415
-3.54035e-08
-0.000280382
8.69149e-09
-8.71858e-09
3.60312e-08
0.000280263
-1.27828e-08
1.58703e-08
-8.20771e-09
3.82815e-08
0.000280382
-6.17325e-09
9.79112e-05
-9.78943e-05
4.2642e-09
9.78944e-05
5.13081e-08
0.000256127
-0.000255955
-2.2557e-07
1.76583e-09
0.00115221
1.15598e-08
1.03806e-06
-8.547e-07
8.56006e-07
-1.03677e-06
-3.65209e-08
1.39172e-07
8.26551e-09
0.000248678
1.14694e-08
0.00114476
7.29974e-10
-1.28112e-06
2.75676e-07
-2.85575e-07
-9.42053e-07
2.62285e-07
-2.71804e-07
9.42755e-07
-5.14696e-08
0.000255956
2.22591e-07
-7.00099e-10
0.00115221
6.11994e-09
-1.03399e-06
8.53094e-07
-8.5471e-07
1.03513e-06
3.17523e-08
0.000248771
-1.07376e-08
-0.000248678
-1.28582e-07
5.18735e-11
0.000232565
-0.000232534
9.12802e-10
1.89353e-08
0.000194383
-9.39937e-10
-0.000194356
0.000232525
-0.000232496
1.20162e-09
2.09751e-08
-4.14079e-09
-5.69483e-09
0.000194303
0.000232494
4.50993e-10
-1.78911e-08
0.000194329
6.31905e-09
-1.08168e-09
-0.000194302
9.0489e-10
-4.89855e-08
2.22526e-07
4.84062e-10
0.000255983
1.17536e-08
-4.55447e-09
1.29402e-06
-2.85716e-07
2.8101e-07
9.39923e-07
-2.69254e-07
-9.39749e-07
2.5934e-07
-0.00115227
-3.31418e-09
1.17127e-08
-1.03412e-06
8.55881e-07
1.03815e-06
-8.54663e-07
3.16165e-08
-1.28401e-07
-0.000248774
-1.04791e-08
4.17445e-09
6.06024e-09
1.03826e-06
-8.54669e-07
-1.03416e-06
8.55975e-07
-3.63558e-08
5.98499e-09
1.36659e-07
0.000248774
-7.43044e-10
5.37886e-08
-0.000255985
-2.2551e-07
1.7366e-10
-4.89546e-08
2.22541e-07
-8.54329e-10
0.000255955
1.14576e-08
-1.27559e-06
-4.65267e-09
9.42542e-07
-2.71917e-07
-9.42214e-07
2.62078e-07
1.28308e-06
-2.8014e-07
2.75513e-07
-0.00115221
0.00115221
1.16326e-08
-1.03114e-06
8.53003e-07
-8.51858e-07
1.03504e-06
3.16302e-08
1.47186e-08
0.000248768
-1.25961e-07
-0.000248678
-1.07109e-08
6.00386e-09
1.03512e-06
-8.51878e-07
-1.03117e-06
8.53074e-07
-3.63986e-08
-1.3223e-08
5.77953e-09
1.36659e-07
0.000248678
5.3728e-08
0.000256127
-0.000255958
-2.25466e-07
1.7746e-09
2.15465e-10
2.32935e-10
-1.79187e-08
0.000232534
0.000194383
-0.000194356
-9.15108e-10
-5.54935e-09
0.000194356
-3.97534e-11
0.000232565
-0.000232531
9.71139e-10
1.88622e-08
4.48088e-10
-1.99756e-08
0.000232496
6.25966e-09
0.000194329
-0.000194302
-1.00841e-09
-4.16297e-09
-5.67053e-09
0.000194302
0.000232525
-0.000232493
1.09015e-09
2.09152e-08
9.78857e-05
9.79028e-05
-9.78857e-05
9.78799e-05
9.78968e-05
-9.78798e-05
0.000273601
-2.63052e-07
-2.73791e-07
1.06488e-08
-3.54064e-08
-0.000280345
8.64704e-09
1.05763e-08
-3.52144e-08
-0.000280263
8.77565e-09
-1.28191e-08
-8.17237e-09
3.82761e-08
0.000280345
-1.28466e-08
-8.0423e-09
3.83355e-08
0.000280263
9.79026e-05
-9.78857e-05
9.78857e-05
9.78967e-05
-9.78798e-05
9.78798e-05
1.26737e-08
9.7904e-05
1.27043e-08
9.78903e-05
1.57695e-08
3.59873e-08
-8.11875e-09
0.000280377
1.32225e-08
3.82635e-08
-8.1171e-09
0.000280301
1.34245e-07
5.84355e-09
0.000248778
1.36642e-07
5.73172e-09
0.000248739
2.72022e-09
6.21233e-09
1.04086e-06
-8.57397e-07
-1.03685e-06
8.55889e-07
0.00115249
1.79132e-09
0.000255984
1.11054e-10
2.22389e-07
3.62781e-08
-5.67824e-09
0.000194301
5.13567e-08
0.000232494
-1.98795e-08
4.03404e-10
6.26032e-09
1.04092e-06
-8.57475e-07
-1.03687e-06
8.55883e-07
0.00115245
-1.5694e-08
1.36677e-07
5.76274e-09
0.000248674
0.00025596
2.19824e-07
-1.1526e-10
6.06417e-09
1.03822e-06
-8.51716e-07
8.55918e-07
-1.03118e-06
5.55588e-09
0.00115234
-3.6241e-08
1.34134e-07
5.81571e-09
0.000248715
-4.88445e-08
0.000255959
2.19732e-07
8.85426e-10
1.28297e-09
-4.16255e-09
-5.687e-09
0.00019431
0.000232497
-1.78303e-08
3.84495e-10
1.83985e-10
3.60279e-08
-8.70771e-09
0.000280262
-1.26598e-08
3.8258e-08
-8.10334e-09
0.000280382
4.19333e-09
9.78943e-05
1.1544e-08
1.03504e-06
-8.51798e-07
8.53009e-07
-1.03106e-06
0.0011522
-3.62111e-08
1.34124e-07
5.7133e-09
0.000248678
-5.13433e-08
0.000255958
2.22411e-07
-7.97185e-10
-5.58035e-09
0.000194356
1.14257e-10
0.000232531
3.40937e-10
-1.78352e-08
-4.12288e-09
-5.65767e-09
0.000194302
0.000232493
3.76925e-10
-1.98798e-08
9.78857e-05
9.78798e-05
-1.42094e-09
1.76783e-08
0.000143654
-0.000143672
1.47374e-09
-1.79642e-08
2.9134e-10
-0.000232571
6.27856e-11
5.14826e-08
-0.000171568
-3.46638e-10
5.0084e-12
0.000171587
-0.00022586
1.88214e-08
3.1148e-09
0.000225896
-5.6636e-08
-0.000171587
2.71848e-11
-0.000225896
6.80056e-10
5.30411e-08
8.23175e-10
0.000143671
-7.92086e-05
-1.63016e-08
-8.23503e-10
7.92258e-05
-1.86475e-08
0.000264907
-6.61218e-10
4.88191e-08
-1.05481e-09
0.000194403
6.22529e-09
-3.17014e-08
-1.44134e-09
-3.13412e-09
0.000264942
-4.92176e-08
-0.000143654
3.77718e-10
-1.88768e-08
1.90018e-08
1.01091e-09
1.94777e-10
-5.40261e-08
1.37685e-09
0.000171568
8.29276e-11
-1.77058e-08
0.00022586
5.30755e-08
5.44736e-11
-5.67041e-08
1.86114e-08
7.92086e-05
-0.000264907
1.62615e-08
0.000264942
-4.91832e-08
-5.62277e-09
-4.27822e-09
3.65338e-08
4.87635e-08
7.92257e-05
9.79027e-05
-6.33147e-09
-1.29494e-08
4.18067e-09
1.50862e-08
1.77017e-08
-1.44707e-09
0.00014365
-0.000143667
1.47114e-09
3.73896e-10
-1.79492e-08
-0.000232567
-9.44046e-11
5.15036e-08
-0.000225854
1.87961e-08
3.13188e-09
0.000225888
-5.40912e-08
-0.000171563
-1.82301e-10
-3.14745e-11
0.000171582
-0.000225887
7.46399e-10
5.06075e-08
-0.000171582
-1.79085e-11
8.12588e-10
0.000143667
-1.63139e-08
-8.22747e-10
7.92251e-05
-7.92079e-05
-1.02951e-09
0.000194379
6.3e-09
-3.18541e-08
-0.000194352
-3.13097e-09
0.000264938
-4.68445e-08
-0.000264905
-1.88485e-08
3.34773e-10
-0.00014365
1.35639e-09
1.89964e-08
-2.50487e-10
-5.40135e-08
-0.000232533
-5.41677e-08
-0.000225854
-3.77523e-11
-0.000171563
1.85987e-08
7.92079e-05
-0.000264905
1.62676e-08
0.000264938
-4.67768e-08
-5.63869e-09
-4.18111e-09
3.64811e-08
4.63415e-08
7.9225e-05
9.78985e-05
-6.33532e-09
-1.31545e-08
4.30943e-09
1.52311e-08
-6.92658e-09
-7.45637e-09
0.000215315
-0.000215332
1.56573e-08
1.54601e-08
-8.07903e-05
-6.72033e-09
-6.46933e-09
8.08035e-05
-8.07765e-05
-6.39619e-09
-6.7761e-09
8.07897e-05
-8.08033e-05
6.0836e-09
-8.07899e-05
5.97349e-09
-1.48182e-08
-1.51606e-08
0.000215332
-0.000224571
-2.74941e-08
2.29042e-08
1.49294e-08
0.000224612
-5.18531e-08
-2.3533e-08
0.00025491
7.81029e-08
3.43585e-08
2.05911e-08
0.000183964
-6.14076e-09
-3.58404e-08
1.13134e-08
0.000280379
1.09842e-08
-1.70147e-08
-1.34392e-08
4.86032e-08
0.000254963
-8.3867e-08
-3.25114e-08
6.47781e-09
0.000183992
-0.000224509
-2.24646e-08
2.06073e-08
1.51181e-08
0.000224545
-4.96086e-08
-3.36297e-08
0.000254788
8.89302e-08
4.1696e-08
2.32935e-08
0.000183914
-7.65644e-09
-3.29623e-08
9.36976e-09
0.000280293
1.06825e-08
-1.48881e-08
-1.9855e-08
4.91755e-08
0.000254841
-7.83935e-08
-3.02274e-08
6.77075e-09
0.000183937
-0.000215315
6.78546e-09
6.41266e-09
6.98606e-09
8.07901e-05
7.44778e-09
8.07767e-05
2.60853e-08
-2.25744e-08
0.000224576
4.86625e-08
-0.000183967
-2.26045e-08
0.000183992
3.82587e-08
-8.16775e-09
-1.28407e-08
1.58873e-08
-0.000254908
2.23854e-08
0.000254963
-8.36552e-08
-2.99539e-08
8.34147e-08
3.67922e-08
0.000224612
-5.18247e-08
2.61258e-08
-2.26956e-08
0.000224511
4.63313e-08
-0.000183912
-2.26008e-08
0.000183937
3.84528e-08
-8.0782e-09
-1.29669e-08
1.32113e-08
-0.000254788
2.25555e-08
0.000254839
-8.0871e-08
-2.76451e-08
8.08976e-08
3.66038e-08
0.000224545
-4.94794e-08
-7.92087e-05
-1.60956e-08
-7.90026e-10
7.92256e-05
-1.84328e-08
0.000264906
-0.000264941
4.85242e-08
-7.52677e-10
-1.05322e-09
6.17854e-09
-3.14128e-08
0.000194402
-7.92256e-05
-1.51724e-09
-4.89963e-08
-3.08735e-09
0.000264941
-7.9208e-05
-1.61516e-08
-7.32332e-10
7.92249e-05
-1.83843e-08
0.000264905
-7.97846e-10
-0.000264938
4.61088e-08
-9.80022e-10
6.19904e-09
-3.15201e-08
0.000194378
-1.46875e-09
-7.92249e-05
-3.04811e-09
-4.66018e-08
0.000264938
-0.00014365
-1.86325e-08
3.65359e-10
0.000143667
1.07175e-09
1.88464e-08
-4.86268e-11
-5.37699e-08
0.000232564
-1.74987e-08
0.000225852
-0.000225888
5.29356e-08
1.3956e-09
0.000171563
-0.000171582
2.22683e-11
-0.000143667
-5.6387e-08
0.000225888
-5.93859e-13
0.000171582
-6.16379e-09
-1.05359e-08
9.78955e-05
-0.000224578
-2.2421e-08
2.4408e-08
1.49332e-08
-5.15405e-08
0.000224613
-2.59576e-08
0.000254905
-0.000254963
8.3556e-08
3.90814e-08
2.44587e-08
0.000183965
-6.0174e-09
-0.000183992
-3.53138e-08
8.60771e-09
1.05685e-08
-1.69601e-08
0.000280378
-1.56423e-08
-0.000224613
4.867e-08
-8.33888e-08
-3.26559e-08
0.000254963
6.46054e-09
0.000183992
-0.00022451
-2.25813e-08
2.2428e-08
1.50231e-08
-4.91541e-08
0.000224545
-2.5893e-08
0.000254789
-0.000254839
8.09301e-08
3.37251e-08
2.25751e-08
0.000183912
-5.98478e-09
-0.000183936
-3.51769e-08
8.67596e-09
1.05392e-08
-1.46368e-08
0.000280293
-1.54458e-08
-0.000224545
4.6496e-08
-8.05727e-08
-2.77319e-08
0.000254839
6.60419e-09
0.000183936
-0.000215317
8.46768e-09
6.46858e-09
0.000215332
8.83923e-09
8.07888e-05
-8.08037e-05
7.25625e-09
8.0776e-05