/*--------------------------------*- C++ -*----------------------------------*\
| =========                 |                                                 |
| \\      /  F ield         | OpenFOAM: The Open Source CFD Toolbox           |
|  \\    /   O peration     | Version:  v2006                                 |
|   \\  /    A nd           | Website:  www.openfoam.com                      |
|    \\/     M anipulation  |                                                 |
\*---------------------------------------------------------------------------*/
FoamFile
{
    version     2.0;
    format      ascii;
    class       volVectorField;
    location    "125";
    object      U;
}
// * * * * * * * * * * * * * * * * * * * * * * * * * * * * * * * * * * * * * //

dimensions      [0 1 -1 0 0 0 0];


internalField   nonuniform List<vector> 
14374
(
(-2.28089e-06 8.50795e-07 0.108656)
(2.23524e-06 8.43001e-07 0.108657)
(-6.48026e-05 6.48445e-05 0.106478)
(-9.03212e-07 2.34939e-06 0.108658)
(9.17364e-07 2.32327e-06 0.108657)
(6.47787e-05 6.48365e-05 0.106478)
(-9.03252e-07 9.07271e-07 0.110598)
(8.70603e-07 8.74889e-07 0.110598)
(5.49956e-06 2.00829e-06 0.0827865)
(4.07794e-07 -1.81616e-06 0.0944044)
(-4.00287e-07 -1.82234e-06 0.094405)
(-5.51246e-06 1.99616e-06 0.0827865)
(1.26979e-05 -2.95112e-06 0.0716305)
(5.82935e-06 -4.7102e-06 0.0883677)
(4.69414e-06 -5.78525e-06 0.0883701)
(2.94126e-06 -1.26819e-05 0.0716299)
(1.41596e-06 -2.30028e-06 0.109917)
(1.81582e-06 -3.71327e-07 0.0944054)
(1.60147e-06 1.06162e-05 0.100896)
(-1.44663e-06 -2.33058e-06 0.109917)
(-1.83454e-06 -3.41023e-07 0.0944047)
(-1.64089e-06 1.06172e-05 0.100896)
(-1.96885e-06 -5.52035e-06 0.0827863)
(2.76995e-06 6.13392e-06 0.0927223)
(1.94678e-06 -5.45864e-06 0.0827866)
(-2.84981e-06 6.13847e-06 0.0927226)
(-5.79577e-06 -4.69449e-06 0.0883696)
(-4.72659e-06 -5.77556e-06 0.0883678)
(-1.2679e-05 -2.92827e-06 0.0716298)
(-2.95469e-06 -1.26583e-05 0.0716299)
(-3.79581e-06 -7.16181e-08 0.0823516)
(3.74797e-06 -1.1258e-07 0.0823525)
(-1.11542e-05 2.4172e-06 0.071331)
(3.57668e-06 -2.25953e-06 0.0927271)
(-5.94856e-06 3.03242e-06 0.0979555)
(-3.82615e-06 3.62486e-06 0.088123)
(1.24132e-05 -2.89457e-06 0.0821729)
(6.76849e-06 -5.47089e-06 0.0978692)
(-1.0657e-05 2.72688e-06 0.081802)
(-3.95699e-06 1.53037e-06 0.0928477)
(2.17966e-06 -3.57503e-06 0.0927339)
(-3.06019e-06 5.96973e-06 0.0979606)
(-3.62201e-06 3.82843e-06 0.0881253)
(2.89473e-06 -1.23966e-05 0.0821785)
(-2.7675e-06 1.0636e-05 0.0818066)
(5.40611e-06 -6.73685e-06 0.0978727)
(-1.54637e-06 3.95114e-06 0.0928562)
(3.64773e-06 -3.67797e-06 0.0842217)
(2.53872e-06 2.67364e-07 0.0685953)
(-2.70971e-07 -2.44387e-06 0.0686001)
(-1.92817e-06 -3.28537e-08 0.0684896)
(1.82089e-08 1.84703e-06 0.0684963)
(-3.87781e-06 3.90809e-06 0.0842592)
(-2.40293e-06 1.11252e-05 0.0713316)
(-1.80217e-05 1.55041e-05 0.0680631)
(1.12671e-07 3.77388e-06 0.082352)
(6.85449e-06 -5.88749e-07 0.0865081)
(-8.48908e-06 7.17981e-07 0.0862581)
(1.7859e-05 -1.81175e-05 0.0687014)
(3.75678e-06 9.83031e-06 0.0769778)
(-2.88026e-06 -4.89917e-06 0.0926175)
(2.25336e-06 1.67818e-06 0.0909646)
(3.74115e-06 8.83621e-06 0.0788904)
(-2.9683e-06 -5.86827e-07 0.0908535)
(-3.76791e-06 -8.5269e-06 0.07888)
(-5.07271e-06 -1.11958e-05 0.0770966)
(1.78763e-05 1.54559e-05 0.0680669)
(-1.40019e-07 3.8186e-06 0.0823525)
(-6.9093e-06 -5.2269e-07 0.0865078)
(8.40607e-06 7.30727e-07 0.08626)
(-1.78792e-05 -1.80527e-05 0.068702)
(-3.90594e-06 9.77771e-06 0.0769776)
(2.76665e-06 -4.90877e-06 0.092617)
(-2.3486e-06 1.70896e-06 0.0909641)
(-3.76467e-06 8.92358e-06 0.0788908)
(2.86654e-06 -6.05475e-07 0.0908538)
(3.62592e-06 -8.59689e-06 0.0788793)
(5.03809e-06 -1.11463e-05 0.0770957)
(-3.54492e-06 -2.16108e-06 0.0927337)
(5.94229e-06 3.03739e-06 0.0979603)
(3.83213e-06 3.63348e-06 0.0881255)
(-1.24753e-05 -2.90765e-06 0.0821778)
(3.94206e-06 1.55382e-06 0.0928559)
(-6.79466e-06 -5.42358e-06 0.0978736)
(1.06633e-05 2.7767e-06 0.0818061)
(-2.24827e-06 -3.58468e-06 0.0927268)
(3.02867e-06 5.93048e-06 0.097956)
(3.59056e-06 3.82765e-06 0.0881237)
(-2.90535e-06 -1.23829e-05 0.082174)
(1.48018e-06 3.92708e-06 0.092849)
(-5.42613e-06 -6.74917e-06 0.0978689)
(2.73152e-06 1.06805e-05 0.0818024)
(-3.59587e-06 -3.71237e-06 0.0842214)
(-2.49331e-06 2.21251e-07 0.0685998)
(2.87636e-07 -2.50758e-06 0.0685948)
(3.9109e-06 3.83985e-06 0.0842596)
(1.95037e-06 -2.17157e-08 0.0684941)
(-4.2003e-09 1.84425e-06 0.0684909)
(1.11134e-05 2.38521e-06 0.0713323)
(2.37163e-06 1.11204e-05 0.0713321)
(8.27019e-06 -8.30824e-06 0.0992184)
(5.91558e-05 -5.91675e-05 0.106344)
(-1.10675e-05 5.71342e-05 0.103529)
(-5.72076e-05 1.11024e-05 0.103533)
(1.12482e-05 -5.65998e-05 0.103453)
(5.65581e-05 -1.12313e-05 0.103456)
(-9.67458e-06 9.64512e-06 0.0993229)
(-8.3297e-06 -8.29625e-06 0.0992183)
(-5.91763e-05 -5.91732e-05 0.106345)
(1.10606e-05 5.72417e-05 0.103533)
(5.71574e-05 1.10911e-05 0.103529)
(9.59274e-06 9.64293e-06 0.0993232)
(-1.12217e-05 -5.65668e-05 0.103456)
(-5.65426e-05 -1.11697e-05 0.103453)
(9.04754e-07 5.33153e-07 0.111107)
(-8.20136e-07 5.42599e-07 0.111107)
(-5.60391e-05 -3.133e-07 0.101593)
(2.93628e-06 2.56399e-06 0.0941837)
(5.99374e-05 -1.96659e-06 0.101462)
(5.6092e-05 -3.19699e-07 0.101595)
(-2.92614e-06 2.54949e-06 0.0941855)
(-5.9888e-05 -1.9691e-06 0.101465)
(-6.50518e-07 -6.73839e-05 0.103616)
(3.02725e-07 5.60723e-05 0.101596)
(-2.56529e-06 -2.9091e-06 0.0941853)
(2.18449e-06 3.98892e-06 0.0973801)
(2.16698e-06 6.82444e-05 0.103738)
(1.9589e-06 -5.98807e-05 0.101464)
(-3.93831e-06 -4.59351e-06 0.0972627)
(-7.19521e-07 -6.74877e-05 0.105191)
(-1.59457e-06 -1.06765e-05 0.10085)
(1.14513e-06 7.18835e-05 0.106019)
(1.30256e-06 7.17717e-06 0.0996929)
(1.85515e-06 7.04796e-05 0.105308)
(-8.14033e-07 -6.99141e-05 0.105946)
(-1.79473e-06 -6.89833e-06 0.099596)
(6.37253e-07 -6.73069e-05 0.103615)
(-2.9071e-07 5.61542e-05 0.101594)
(2.5534e-06 -2.89391e-06 0.0941847)
(-2.24434e-06 4.04003e-06 0.09738)
(3.88304e-06 -4.56199e-06 0.0972632)
(-1.92755e-06 -5.98202e-05 0.101462)
(-2.22362e-06 6.83338e-05 0.103737)
(7.00837e-07 -6.75086e-05 0.105191)
(1.56637e-06 -1.06971e-05 0.10085)
(-1.11263e-06 7.18455e-05 0.106019)
(-1.37858e-06 7.17268e-06 0.0996923)
(8.60486e-07 -6.99592e-05 0.105946)
(1.73563e-06 -6.91147e-06 0.0995964)
(-1.9078e-06 7.04533e-05 0.105308)
(-2.21366e-06 -2.31476e-06 0.110619)
(-1.77024e-06 2.93073e-06 0.108682)
(-6.70093e-05 -6.68726e-05 0.106314)
(-2.26135e-06 -2.27475e-06 0.11062)
(2.96091e-06 -1.53596e-06 0.108683)
(-6.69882e-05 -6.70054e-05 0.106315)
(6.70014e-05 6.68961e-05 0.106314)
(-7.28216e-05 -7.27728e-05 0.106513)
(3.05425e-06 1.72025e-06 0.108682)
(-3.01113e-06 1.83428e-06 0.108681)
(2.9888e-06 1.5098e-06 0.108679)
(-2.93954e-06 1.5328e-06 0.108679)
(-6.69763e-05 6.68934e-05 0.106314)
(1.5765e-06 2.89384e-06 0.108682)
(1.72805e-06 -3.00197e-06 0.108681)
(1.40657e-06 2.88125e-06 0.10868)
(1.45286e-06 -2.95516e-06 0.108679)
(-1.80895e-06 -3.08353e-06 0.108681)
(-1.44506e-06 -2.9624e-06 0.108679)
(6.6931e-05 -6.6924e-05 0.106314)
(-7.27587e-05 7.2826e-05 0.106512)
(-2.84367e-06 -1.63445e-06 0.108682)
(2.89222e-06 -1.3734e-06 0.10868)
(-2.82135e-06 -1.35872e-06 0.108679)
(7.27656e-05 7.27938e-05 0.106512)
(6.69473e-05 6.69402e-05 0.106314)
(3.05682e-06 1.66036e-06 0.108682)
(1.57705e-06 2.95575e-06 0.108683)
(1.61918e-06 -3.0133e-06 0.108681)
(-1.59118e-06 -3.00575e-06 0.108682)
(6.69791e-05 -6.69958e-05 0.106314)
(-2.90023e-06 -1.52083e-06 0.108682)
(-9.15873e-08 -1.0569e-05 0.0926977)
(2.47765e-07 9.44381e-06 0.0825275)
(-7.1957e-08 9.30459e-06 0.0926383)
(-2.09767e-06 -8.3571e-06 0.0825932)
(-2.46989e-06 4.10023e-06 0.0714412)
(2.63276e-06 -3.74813e-06 0.0715084)
(-1.05726e-05 -1.35999e-07 0.0926979)
(-8.43588e-06 -2.12872e-06 0.082593)
(2.23552e-06 -2.23395e-06 0.110619)
(-2.18724e-06 2.16951e-06 0.110619)
(2.21726e-06 2.16196e-06 0.110619)
(-2.39785e-06 -2.41006e-06 0.110616)
(2.43945e-06 -2.42401e-06 0.110616)
(-2.38889e-06 2.40347e-06 0.110616)
(2.42723e-06 2.40236e-06 0.110616)
(1.90154e-05 -5.27861e-08 0.100925)
(-1.56637e-05 4.31326e-06 0.0942432)
(-2.08572e-06 -5.86272e-07 0.109934)
(-1.61965e-06 2.89484e-06 0.10868)
(-1.87965e-05 6.29687e-09 0.100822)
(1.30608e-05 -5.50624e-06 0.094342)
(-2.12984e-06 -5.91582e-07 0.109931)
(4.14702e-06 -2.54084e-06 0.0714426)
(-3.83003e-06 2.66575e-06 0.0715064)
(-5.50631e-08 1.89833e-05 0.100925)
(2.89509e-06 -1.49111e-06 0.10868)
(-5.93424e-07 -2.14588e-06 0.109931)
(-5.47879e-06 1.30852e-05 0.0943425)
(-5.53076e-06 -5.44476e-06 0.0882104)
(-5.3754e-06 -5.68155e-06 0.0882091)
(7.28942e-05 7.29235e-05 0.106512)
(4.06855e-06 5.04279e-06 0.0882747)
(5.09183e-06 4.04579e-06 0.0882724)
(1.91603e-07 9.29076e-06 0.0825268)
(9.24929e-06 1.82387e-07 0.0825268)
(9.24804e-06 -1.21365e-07 0.0926382)
(2.30722e-06 -2.29063e-06 0.11062)
(-2.25494e-06 2.27481e-06 0.11062)
(2.2959e-06 2.27646e-06 0.11062)
(4.06545e-06 -2.52966e-06 0.0714422)
(-6.40183e-07 -2.06871e-06 0.109934)
(4.28441e-06 -1.55504e-05 0.0942423)
(2.26688e-08 -1.8722e-05 0.100822)
(-5.52361e-06 -5.39315e-06 0.0882103)
(-5.37129e-06 -5.54622e-06 0.0882088)
(2.57946e-06 4.18157e-06 0.0714445)
(-2.67303e-06 -3.85682e-06 0.071507)
(-3.83503e-06 -2.70327e-06 0.071506)
(5.4717e-06 5.62382e-06 0.088212)
(-7.28637e-05 -7.28165e-05 0.106513)
(-5.03546e-06 -4.07334e-06 0.0882749)
(-4.04477e-06 -5.04873e-06 0.0882724)
(-2.65906e-06 -3.80765e-06 0.0715073)
(2.55499e-06 4.11997e-06 0.0714442)
(-3.79063e-06 -2.67813e-06 0.0715062)
(4.13311e-06 2.53189e-06 0.0714431)
(6.69409e-05 6.69394e-05 0.106314)
(-5.02046e-06 -4.01733e-06 0.0882749)
(-4.00879e-06 -5.02748e-06 0.0882725)
(5.4406e-06 5.57884e-06 0.0882118)
(5.60294e-06 5.43397e-06 0.088209)
(1.58557e-07 -1.05742e-05 0.0926977)
(-1.63888e-07 9.35341e-06 0.0825262)
(1.91528e-07 9.29897e-06 0.0926383)
(2.10868e-06 -8.33336e-06 0.0825937)
(-4.0762e-08 -1.90127e-05 0.100925)
(4.36464e-06 1.57013e-05 0.0942428)
(-6.95783e-07 2.10423e-06 0.109934)
(3.01012e-06 1.57537e-06 0.108679)
(-2.78869e-09 1.87836e-05 0.100822)
(-5.47053e-06 -1.30533e-05 0.0943419)
(-6.54266e-07 2.1721e-06 0.109931)
(9.16955e-08 -1.90249e-05 0.100926)
(-4.24579e-06 1.57098e-05 0.0942416)
(6.14591e-07 2.09076e-06 0.109934)
(-2.9596e-06 1.68749e-06 0.108679)
(9.76019e-09 1.87882e-05 0.100822)
(5.50698e-06 -1.2943e-05 0.0943416)
(6.20927e-07 2.14197e-06 0.109931)
(-1.10162e-07 9.27893e-06 0.0926383)
(-2.10153e-06 -8.31408e-06 0.0825933)
(2.20665e-07 9.36378e-06 0.0825271)
(-9.86026e-08 -1.05333e-05 0.0926976)
(1.63278e-07 9.27935e-06 0.0926384)
(2.08162e-06 -8.30361e-06 0.0825939)
(-1.74894e-07 9.29259e-06 0.0825259)
(1.32105e-07 -1.05381e-05 0.0926975)
(1.64221e-08 1.8764e-05 0.100822)
(3.05485e-06 1.67008e-06 0.108682)
(-5.46694e-06 -1.29813e-05 0.0943418)
(-6.09026e-07 2.17312e-06 0.10993)
(4.32784e-06 1.56483e-05 0.0942427)
(-6.62039e-07 2.10976e-06 0.109934)
(-3.0334e-08 -1.89653e-05 0.100925)
(5.11362e-08 1.87562e-05 0.100822)
(-3.02349e-06 1.74301e-06 0.108681)
(5.49812e-06 -1.29265e-05 0.0943416)
(6.34303e-07 2.13141e-06 0.10993)
(-4.23229e-06 1.57005e-05 0.0942415)
(6.63241e-07 2.06451e-06 0.109934)
(9.27873e-08 -1.89834e-05 0.100925)
(-5.36528e-06 5.57703e-06 0.0882079)
(-5.59319e-06 5.44351e-06 0.0882117)
(7.29579e-05 -7.29003e-05 0.106513)
(5.00864e-06 -3.95843e-06 0.0882744)
(4.0761e-06 -5.03976e-06 0.088274)
(-4.16684e-06 2.55418e-06 0.071444)
(3.85085e-06 -2.68102e-06 0.0715063)
(-2.48769e-06 4.03556e-06 0.0714409)
(-6.68641e-05 6.68227e-05 0.106314)
(-5.36991e-06 5.54445e-06 0.0882078)
(-5.56804e-06 5.4326e-06 0.0882117)
(-4.11259e-06 2.55058e-06 0.0714438)
(-1.89893e-05 -5.82337e-08 0.100925)
(2.05602e-06 -5.99226e-07 0.109934)
(1.4373e-06 2.87262e-06 0.10868)
(-1.30514e-05 -5.53657e-06 0.0943413)
(2.12549e-06 -6.23684e-07 0.109931)
(-1.05373e-05 9.96838e-08 0.0926981)
(9.34189e-06 -2.21694e-07 0.0825268)
(9.23006e-06 1.45106e-07 0.0926375)
(-8.39718e-06 2.11096e-06 0.0825933)
(-1.89845e-05 7.4576e-08 0.100925)
(2.10557e-06 5.92162e-07 0.109933)
(1.57232e-05 -4.29444e-06 0.0942411)
(1.55279e-06 -2.97683e-06 0.108679)
(1.88037e-05 2.58045e-08 0.100822)
(2.16457e-06 5.96348e-07 0.109931)
(-1.30038e-05 5.50448e-06 0.0943415)
(9.27033e-06 -1.32245e-07 0.092638)
(-8.36296e-06 -2.11041e-06 0.0825932)
(9.30576e-06 1.84336e-07 0.0825272)
(-1.05287e-05 -1.14013e-07 0.0926976)
(1.87765e-05 -8.67821e-09 0.100822)
(1.54972e-06 2.94108e-06 0.108682)
(-1.30106e-05 -5.51465e-06 0.0943412)
(2.13616e-06 -6.4785e-07 0.109931)
(1.56726e-05 4.26058e-06 0.094242)
(2.0577e-06 -6.78587e-07 0.109934)
(-1.89599e-05 -7.25056e-08 0.100925)
(9.2494e-06 1.35892e-07 0.0926377)
(-8.35009e-06 2.09913e-06 0.0825933)
(9.32375e-06 -2.057e-07 0.0825267)
(-1.04981e-05 1.09918e-07 0.0926978)
(1.87763e-05 2.94819e-08 0.100822)
(1.61637e-06 -3.02751e-06 0.108681)
(2.15348e-06 6.05352e-07 0.10993)
(-1.29793e-05 5.49134e-06 0.0943414)
(2.07792e-06 6.41804e-07 0.109934)
(1.57101e-05 -4.29402e-06 0.0942412)
(-1.89442e-05 5.8802e-08 0.100925)
(1.05665e-05 -9.97206e-08 0.0926972)
(-9.33567e-06 2.35353e-07 0.0825274)
(-9.29206e-06 -1.23184e-07 0.0926386)
(8.41371e-06 -2.10123e-06 0.0825934)
(1.901e-05 7.63771e-08 0.100924)
(-2.09759e-06 6.28547e-07 0.109933)
(-1.56294e-05 -4.34626e-06 0.0942424)
(-1.60604e-06 -3.03052e-06 0.108679)
(-1.88028e-05 2.00664e-08 0.100823)
(-2.13689e-06 6.28992e-07 0.10993)
(1.30561e-05 5.46427e-06 0.0943419)
(1.05613e-05 1.16726e-07 0.0926969)
(-9.41865e-06 -2.4426e-07 0.0825276)
(-9.30656e-06 1.41605e-07 0.0926386)
(8.36072e-06 2.07867e-06 0.0825932)
(-1.87573e-05 -5.94985e-09 0.100822)
(-1.66957e-06 2.94652e-06 0.108683)
(-2.10743e-06 -6.26534e-07 0.109931)
(-1.5646e-05 4.30044e-06 0.0942433)
(-2.04865e-06 -6.52333e-07 0.109934)
(1.89882e-05 -4.21777e-08 0.100925)
(-9.27494e-06 -1.38592e-07 0.0926387)
(-9.29188e-06 2.29708e-07 0.0825272)
(1.05478e-05 -9.72829e-08 0.0926971)
(-1.87671e-05 2.38825e-08 0.100823)
(-1.63154e-06 -3.03968e-06 0.108682)
(-2.11971e-06 6.23946e-07 0.10993)
(1.30176e-05 5.47463e-06 0.0943419)
(-2.05278e-06 6.70963e-07 0.109934)
(-1.56696e-05 -4.33189e-06 0.0942424)
(1.8987e-05 7.41903e-08 0.100924)
(-9.29312e-06 1.25918e-07 0.0926388)
(8.33018e-06 2.09144e-06 0.0825934)
(-9.36658e-06 -2.32699e-07 0.0825273)
(1.05424e-05 1.15631e-07 0.0926968)
(5.59819e-06 -5.43029e-06 0.0882086)
(-7.28802e-05 7.29462e-05 0.106512)
(-4.02689e-06 5.0301e-06 0.0882724)
(-5.03446e-06 4.09783e-06 0.0882749)
(-2.66167e-06 3.85676e-06 0.0715065)
(-3.79506e-06 2.65434e-06 0.0715063)
(4.11943e-06 -2.55445e-06 0.0714427)
(6.68614e-05 -6.68855e-05 0.106314)
(-3.99227e-06 5.00709e-06 0.0882722)
(-5.02264e-06 4.04092e-06 0.0882749)
(5.59894e-06 -5.44453e-06 0.0882088)
(5.44858e-06 -5.55218e-06 0.0882109)
(-2.65432e-06 3.79806e-06 0.0715067)
(2.56926e-06 -4.11877e-06 0.0714432)
(7.95097e-08 1.89629e-05 0.100925)
(5.34062e-07 -2.10254e-06 0.109933)
(-4.21737e-06 -1.57726e-05 0.0942422)
(-2.83129e-06 -1.47472e-06 0.108679)
(1.22907e-08 -1.88013e-05 0.100822)
(5.62413e-07 -2.15957e-06 0.10993)
(5.57688e-06 1.30447e-05 0.0943412)
(-5.98287e-08 1.05587e-05 0.0926975)
(-2.09152e-06 8.4099e-06 0.0825934)
(1.65692e-07 1.0532e-05 0.092698)
(-1.8823e-07 -9.31114e-06 0.0825278)
(1.72639e-07 -9.25832e-06 0.0926377)
(2.13006e-06 8.46324e-06 0.0825933)
(1.2111e-08 -1.87736e-05 0.100822)
(2.96505e-06 -1.55673e-06 0.108682)
(-6.07624e-07 -2.13512e-06 0.10993)
(-5.4638e-06 1.30391e-05 0.0943424)
(-6.45338e-07 -2.07749e-06 0.109934)
(4.329e-06 -1.56286e-05 0.0942425)
(-2.10177e-08 1.89462e-05 0.100925)
(3.67786e-08 -1.87792e-05 0.100822)
(-2.90236e-06 -1.54557e-06 0.108682)
(6.29655e-07 -2.12878e-06 0.10993)
(5.55186e-06 1.30169e-05 0.094341)
(6.33897e-07 -2.07483e-06 0.109934)
(-4.22955e-06 -1.56745e-05 0.0942423)
(8.92485e-08 1.89381e-05 0.100925)
(-7.8372e-08 -9.2804e-06 0.0926381)
(-2.0753e-06 8.34964e-06 0.0825936)
(2.39241e-07 -9.3004e-06 0.0825269)
(-8.9843e-08 1.05242e-05 0.0926975)
(1.79257e-07 -9.256e-06 0.0926375)
(2.10623e-06 8.39401e-06 0.0825935)
(-1.92352e-07 -9.2765e-06 0.0825275)
(1.21375e-07 1.04956e-05 0.0926979)
(-4.1647e-06 -2.57628e-06 0.0714437)
(3.84651e-06 2.66325e-06 0.0715066)
(-2.51073e-06 -4.19576e-06 0.0714438)
(2.71654e-06 3.85901e-06 0.0715065)
(-6.68727e-05 -6.69169e-05 0.106314)
(4.0261e-06 5.02839e-06 0.0882747)
(5.06386e-06 4.00271e-06 0.0882725)
(-5.58321e-06 -5.44085e-06 0.0882104)
(-5.3928e-06 -5.59663e-06 0.088209)
(3.80303e-06 2.66779e-06 0.0715069)
(-4.12594e-06 -2.56858e-06 0.0714435)
(2.68511e-06 3.79799e-06 0.0715067)
(-2.52924e-06 -4.11152e-06 0.0714435)
(2.5318e-06 4.06156e-06 0.0714438)
(4.06987e-06 2.51958e-06 0.0714427)
(5.40562e-06 5.5412e-06 0.0882116)
(5.54426e-06 5.40056e-06 0.0882089)
(4.28061e-06 1.56046e-05 0.0942426)
(1.55937e-05 4.22694e-06 0.0942418)
(2.06553e-06 -6.80263e-07 0.109934)
(1.87197e-05 -2.56489e-08 0.100822)
(9.25887e-06 -1.91297e-07 0.0825263)
(9.22168e-06 1.54184e-07 0.0926378)
(2.07987e-06 6.39461e-07 0.109934)
(1.56136e-05 -4.24333e-06 0.094241)
(1.8729e-05 2.77859e-08 0.100822)
(-2.0542e-06 6.52291e-07 0.109934)
(-1.55724e-05 -4.26255e-06 0.0942422)
(-1.87023e-05 2.76445e-08 0.100823)
(-9.27881e-06 -1.98539e-07 0.082527)
(-9.24738e-06 1.35823e-07 0.0926388)
(5.54696e-06 -5.41266e-06 0.0882086)
(5.40158e-06 -5.51703e-06 0.0882107)
(2.53379e-06 -4.06634e-06 0.0714428)
(6.7624e-07 -2.04948e-06 0.109934)
(-4.19764e-06 -1.55876e-05 0.0942423)
(5.374e-08 -1.87132e-05 0.100822)
(2.24765e-07 -9.24378e-06 0.0825265)
(-1.22532e-07 -9.24343e-06 0.0926381)
(-1.86588e-07 -9.22932e-06 0.0825271)
(1.45293e-07 -9.22259e-06 0.0926375)
(-4.06456e-06 -2.52714e-06 0.0714431)
(-2.51467e-06 -4.06817e-06 0.0714431)
(-1.22817e-06 4.86819e-06 0.0770095)
(-9.49362e-08 9.2887e-06 0.0926383)
(3.79856e-08 -4.46809e-06 0.0789067)
(-5.18862e-07 -1.04258e-05 0.0909403)
(-2.74568e-07 4.78429e-06 0.0788639)
(-3.11764e-07 9.01693e-06 0.0908748)
(4.83627e-07 -4.63672e-06 0.0770595)
(1.23422e-07 -3.8302e-06 0.0684006)
(-6.96502e-07 7.78989e-06 0.0863438)
(-2.09677e-06 -8.36452e-06 0.0825931)
(-1.91262e-06 4.26368e-06 0.0683317)
(-1.56914e-06 -8.08279e-06 0.0864149)
(4.97669e-07 -4.66437e-06 0.0770595)
(-7.46756e-08 -1.05819e-05 0.0926978)
(-2.52783e-07 4.78733e-06 0.0788639)
(-3.005e-07 9.03903e-06 0.0908748)
(-1.21145e-06 4.8705e-06 0.0770096)
(5.32218e-08 -4.48322e-06 0.0789068)
(-5.19427e-07 -1.04381e-05 0.0909403)
(-1.92921e-06 4.25056e-06 0.0683316)
(-1.5558e-06 -8.06683e-06 0.0864149)
(2.37893e-07 9.39999e-06 0.0825273)
(-7.01017e-07 7.77443e-06 0.0863437)
(1.283e-07 -3.8164e-06 0.0684007)
(2.66016e-06 -3.75702e-06 0.0715083)
(-2.48139e-06 4.06634e-06 0.0714411)
(4.89845e-06 -1.23565e-06 0.0770096)
(9.26615e-06 -1.39927e-07 0.092638)
(-1.04286e-05 -5.43685e-07 0.0909402)
(-4.44572e-06 3.19988e-08 0.0789067)
(9.00541e-06 -3.28302e-07 0.0908747)
(4.79737e-06 -2.91225e-07 0.0788634)
(-4.61428e-06 4.82046e-07 0.0770594)
(-3.80996e-06 1.25811e-07 0.0684004)
(-8.49435e-06 -2.12132e-06 0.0825929)
(-8.13272e-06 -1.56466e-06 0.0864142)
(-4.61883e-06 4.82699e-07 0.0770595)
(-1.06094e-05 -1.44405e-07 0.0926979)
(-1.04705e-05 -5.43499e-07 0.0909401)
(-4.45217e-06 2.66505e-08 0.0789067)
(4.25909e-06 -1.92674e-06 0.068332)
(-8.09581e-06 -1.56732e-06 0.0864142)
(9.30798e-06 2.01917e-07 0.0825274)
(7.74788e-06 -7.09189e-07 0.0863441)
(-3.8042e-06 1.3521e-07 0.0684005)
(-3.82907e-06 2.67468e-06 0.0715065)
(4.13399e-06 -2.54846e-06 0.0714426)
(-3.55855e-06 -3.77143e-06 0.0842146)
(1.79443e-06 2.63201e-06 0.0685725)
(2.79337e-06 1.72087e-06 0.0685672)
(-2.07216e-06 -2.46661e-06 0.068516)
(-2.43196e-06 -2.27439e-06 0.0685134)
(3.83855e-06 3.62263e-06 0.0842658)
(1.23992e-05 5.00199e-06 0.092826)
(-1.76055e-05 -1.06579e-05 0.0978756)
(-4.68677e-06 -2.4435e-06 0.0819548)
(4.14131e-06 5.05743e-06 0.0882746)
(-1.1673e-05 -5.4383e-06 0.0927591)
(1.73697e-05 8.48738e-06 0.0979576)
(4.0742e-06 2.64627e-06 0.0820118)
(4.92211e-06 1.23134e-05 0.0928186)
(-1.0648e-05 -1.78948e-05 0.0978719)
(-2.42137e-06 -4.75045e-06 0.0819518)
(5.12017e-06 4.023e-06 0.0882724)
(-5.57493e-06 -1.17599e-05 0.0927532)
(8.50176e-06 1.70867e-05 0.0979525)
(2.68998e-06 4.08968e-06 0.0820072)
(3.84195e-06 3.66122e-06 0.0842656)
(-2.10314e-06 -2.48776e-06 0.0685161)
(-2.45022e-06 -2.27906e-06 0.0685136)
(-3.58595e-06 -3.73021e-06 0.0842147)
(1.82587e-06 2.65948e-06 0.0685721)
(2.78089e-06 1.71071e-06 0.0685673)
(-1.16287e-05 -5.47587e-06 0.0927593)
(4.02137e-06 2.63259e-06 0.0820121)
(-5.57013e-06 -5.44116e-06 0.0882104)
(1.73131e-05 8.45762e-06 0.0979575)
(-1.7615e-05 -1.06633e-05 0.0978757)
(-4.69689e-06 -2.42052e-06 0.0819549)
(1.24028e-05 4.93339e-06 0.0928261)
(-5.53315e-06 -1.17437e-05 0.0927531)
(2.6961e-06 4.08873e-06 0.0820073)
(-5.39564e-06 -5.63369e-06 0.088209)
(8.52398e-06 1.71681e-05 0.0979525)
(-1.06435e-05 -1.77838e-05 0.0978718)
(-2.41943e-06 -4.71148e-06 0.0819516)
(4.96505e-06 1.22991e-05 0.0928186)
(1.57644e-07 -3.75921e-06 0.068401)
(-7.46151e-07 7.71341e-06 0.0863435)
(-2.09462e-06 -8.28568e-06 0.0825935)
(-1.95765e-06 4.18728e-06 0.0683313)
(-1.54161e-06 -8.00477e-06 0.0864149)
(-3.76098e-06 1.9661e-07 0.0684008)
(7.7027e-06 -7.39225e-07 0.0863439)
(-8.32926e-06 -2.08741e-06 0.0825933)
(4.1811e-06 -1.92629e-06 0.0683316)
(-8.02647e-06 -1.51737e-06 0.0864142)
(-4.55881e-06 4.90611e-07 0.0770593)
(-1.05156e-05 -1.08099e-07 0.0926974)
(8.97422e-06 -3.40406e-07 0.0908747)
(4.73986e-06 -2.78845e-07 0.0788634)
(4.79777e-06 -1.19961e-06 0.0770095)
(-1.03464e-05 -5.23173e-07 0.0909398)
(-4.41742e-06 4.48829e-08 0.0789065)
(-3.76504e-06 2.63505e-06 0.0715065)
(1.22832e-05 4.91781e-06 0.0928262)
(-1.77038e-05 -1.05798e-05 0.0978756)
(-4.61642e-06 -2.39416e-06 0.0819547)
(4.00808e-06 5.01211e-06 0.0882747)
(-1.16496e-05 -5.46405e-06 0.0927595)
(1.71079e-05 8.49015e-06 0.0979572)
(3.96793e-06 2.59956e-06 0.0820124)
(4.94795e-06 1.22218e-05 0.0928185)
(-1.05158e-05 -1.77403e-05 0.0978721)
(-2.40236e-06 -4.61452e-06 0.0819511)
(5.03154e-06 3.99894e-06 0.0882725)
(-5.47635e-06 -1.17393e-05 0.0927531)
(8.56573e-06 1.70409e-05 0.0979526)
(2.63238e-06 4.04028e-06 0.0820074)
(3.76408e-06 3.6505e-06 0.0842658)
(-2.0619e-06 -2.42723e-06 0.068516)
(-2.41408e-06 -2.17652e-06 0.0685128)
(-3.59786e-06 -3.72031e-06 0.0842146)
(1.74353e-06 2.61416e-06 0.0685729)
(2.74373e-06 1.75193e-06 0.0685669)
(-2.67749e-06 -3.87035e-06 0.071507)
(2.57115e-06 4.14404e-06 0.0714443)
(-3.86536e-06 -2.69934e-06 0.0715059)
(4.15625e-06 2.54865e-06 0.0714432)
(3.80576e-06 3.598e-06 0.0842166)
(-2.68808e-06 -1.84565e-06 0.0685708)
(-1.7266e-06 -2.79914e-06 0.0685674)
(2.53184e-06 2.10694e-06 0.0685183)
(2.23833e-06 2.41119e-06 0.0685151)
(-3.65223e-06 -3.84966e-06 0.0842641)
(-4.97557e-06 -1.24296e-05 0.092825)
(1.06781e-05 1.77236e-05 0.0978772)
(2.47061e-06 4.75215e-06 0.0819562)
(-5.03865e-06 -4.08626e-06 0.088275)
(5.53052e-06 1.16627e-05 0.0927607)
(-2.64851e-06 -4.06936e-06 0.0820113)
(-8.48075e-06 -1.72721e-05 0.0979578)
(-1.22973e-05 -4.96556e-06 0.0928185)
(1.77666e-05 1.06694e-05 0.0978715)
(-4.07689e-06 -5.06267e-06 0.0882724)
(-4.11306e-06 -2.69909e-06 0.0820075)
(-1.71847e-05 -8.51382e-06 0.0979527)
(-3.64182e-06 -3.87447e-06 0.0842642)
(-2.68082e-06 -1.85804e-06 0.0685706)
(-1.71734e-06 -2.82002e-06 0.0685676)
(5.52474e-06 1.16744e-05 0.0927608)
(-2.65382e-06 -4.05624e-06 0.0820114)
(5.46141e-06 5.59471e-06 0.0882119)
(-8.47823e-06 -1.72416e-05 0.0979577)
(2.45439e-06 4.7287e-06 0.0819562)
(-4.97582e-06 -1.24037e-05 0.0928251)
(1.06733e-05 1.77191e-05 0.097877)
(1.17786e-05 5.56155e-06 0.0927541)
(-4.08486e-06 -2.68132e-06 0.0820074)
(5.61742e-06 5.44667e-06 0.0882091)
(-1.71741e-05 -8.5211e-06 0.0979528)
(4.69949e-06 2.41782e-06 0.0819522)
(-1.22799e-05 -4.9572e-06 0.0928184)
(1.77456e-05 1.06447e-05 0.0978716)
(2.54178e-06 4.09284e-06 0.071444)
(-2.67027e-06 -3.83199e-06 0.0715071)
(4.10261e-06 2.52481e-06 0.0714429)
(-3.81406e-06 -2.69493e-06 0.071506)
(-3.66309e-06 -3.8306e-06 0.0842641)
(2.51345e-06 2.10448e-06 0.0685185)
(2.21263e-06 2.41535e-06 0.0685149)
(3.7843e-06 3.60866e-06 0.0842166)
(-2.68748e-06 -1.8274e-06 0.0685711)
(-1.73266e-06 -2.7816e-06 0.0685673)
(5.50906e-06 1.16841e-05 0.092761)
(-8.47238e-06 -1.71537e-05 0.0979574)
(5.421e-06 5.56627e-06 0.0882117)
(-2.64708e-06 -4.02431e-06 0.0820116)
(2.41857e-06 4.66886e-06 0.0819561)
(1.06446e-05 1.77277e-05 0.0978768)
(-4.95123e-06 -1.23388e-05 0.0928251)
(1.17614e-05 5.53357e-06 0.092754)
(-1.7112e-05 -8.53874e-06 0.0979529)
(5.57858e-06 5.41475e-06 0.088209)
(-4.04585e-06 -2.64926e-06 0.0820074)
(4.64856e-06 2.41279e-06 0.0819518)
(1.77203e-05 1.05942e-05 0.0978718)
(-1.22409e-05 -4.95337e-06 0.0928182)
(-4.96398e-06 -1.23676e-05 0.0928251)
(2.43461e-06 4.7004e-06 0.0819562)
(1.06602e-05 1.7724e-05 0.0978769)
(-5.03084e-06 -4.04377e-06 0.0882749)
(5.51252e-06 1.16797e-05 0.0927609)
(-2.65193e-06 -4.04084e-06 0.0820115)
(-8.46653e-06 -1.71896e-05 0.0979576)
(-1.22578e-05 -4.95401e-06 0.0928183)
(4.67659e-06 2.41734e-06 0.081952)
(1.77274e-05 1.06212e-05 0.0978717)
(-4.02442e-06 -5.03837e-06 0.0882725)
(1.17704e-05 5.54919e-06 0.0927541)
(-4.06718e-06 -2.66555e-06 0.0820074)
(-1.7143e-05 -8.52226e-06 0.0979528)
(3.7641e-06 3.61711e-06 0.0842165)
(-2.68473e-06 -1.80752e-06 0.0685713)
(-1.73549e-06 -2.7633e-06 0.0685672)
(2.49952e-06 2.10472e-06 0.0685186)
(2.1886e-06 2.4159e-06 0.0685147)
(-3.67198e-06 -3.81193e-06 0.0842641)
(1.26703e-06 4.86517e-06 0.0770093)
(1.76879e-07 9.28965e-06 0.0926384)
(-2.95623e-08 -4.47133e-06 0.0789067)
(6.0175e-07 -1.04246e-05 0.0909397)
(2.98987e-07 4.78578e-06 0.0788639)
(3.97549e-07 9.02641e-06 0.0908752)
(-4.58046e-07 -4.63958e-06 0.0770589)
(-6.96704e-08 -3.81371e-06 0.0684022)
(7.70836e-07 7.78845e-06 0.0863446)
(2.1268e-06 -8.35069e-06 0.0825937)
(1.97676e-06 4.27819e-06 0.0683338)
(1.62129e-06 -8.09113e-06 0.0864147)
(-4.41556e-07 -4.64859e-06 0.0770589)
(1.81755e-07 -1.05899e-05 0.0926977)
(3.22592e-07 4.79547e-06 0.0788639)
(3.95358e-07 9.03564e-06 0.0908751)
(-8.13583e-09 -4.48124e-06 0.0789067)
(1.29041e-06 4.89719e-06 0.0770093)
(6.09885e-07 -1.04469e-05 0.0909398)
(1.97089e-06 4.25692e-06 0.0683337)
(1.61339e-06 -8.07603e-06 0.0864148)
(-1.72525e-07 9.32735e-06 0.0825261)
(7.78958e-07 7.77394e-06 0.0863446)
(-9.32114e-08 -3.80591e-06 0.0684023)
(4.80196e-07 -4.61335e-06 0.0770595)
(-2.86091e-07 4.77373e-06 0.0788638)
(-3.15193e-07 8.9976e-06 0.0908748)
(-9.62556e-08 -1.05503e-05 0.0926976)
(-1.22725e-06 4.84882e-06 0.0770095)
(3.07616e-08 -4.45499e-06 0.0789067)
(-5.12218e-07 -1.04047e-05 0.0909402)
(-1.94479e-06 4.21012e-06 0.0683314)
(2.0291e-07 9.3294e-06 0.082527)
(-1.54465e-06 -8.02811e-06 0.0864148)
(1.48043e-07 -3.78145e-06 0.0684009)
(-7.26011e-07 7.73692e-06 0.0863436)
(1.38742e-07 -3.80069e-06 0.0684008)
(-7.09537e-07 7.75634e-06 0.0863437)
(-2.1027e-06 -8.33711e-06 0.0825932)
(-1.93659e-06 4.23082e-06 0.0683315)
(-1.54933e-06 -8.04775e-06 0.0864149)
(-1.22229e-06 4.82548e-06 0.0770095)
(-1.17357e-07 9.26856e-06 0.0926384)
(2.42374e-08 -4.44329e-06 0.0789066)
(-5.08689e-07 -1.0382e-05 0.0909401)
(4.73187e-07 -4.58757e-06 0.0770594)
(-2.93667e-07 4.75943e-06 0.0788638)
(-3.18402e-07 8.98223e-06 0.0908749)
(-4.74903e-07 -4.61889e-06 0.0770588)
(2.83227e-07 4.77047e-06 0.0788638)
(3.95281e-07 9.013e-06 0.0908752)
(1.46376e-07 -1.05556e-05 0.0926976)
(1.24329e-06 4.83976e-06 0.0770092)
(-4.37123e-08 -4.46212e-06 0.0789066)
(5.87185e-07 -1.04022e-05 0.0909396)
(1.93969e-06 4.20592e-06 0.0683335)
(-1.71994e-07 9.25007e-06 0.0825258)
(1.55519e-06 -8.04956e-06 0.0864148)
(7.73191e-07 7.72604e-06 0.0863445)
(-1.62682e-07 -3.78082e-06 0.0684025)
(-1.27868e-07 -3.79521e-06 0.0684024)
(7.82042e-07 7.75274e-06 0.0863446)
(2.09689e-06 -8.31878e-06 0.0825938)
(1.95681e-06 4.23308e-06 0.0683336)
(1.58947e-06 -8.06105e-06 0.0864148)
(1.21621e-06 4.81189e-06 0.0770092)
(1.57104e-07 9.26955e-06 0.0926384)
(-5.67878e-08 -4.45099e-06 0.0789066)
(5.60664e-07 -1.03852e-05 0.0909395)
(2.7093e-07 4.75399e-06 0.0788638)
(3.84392e-07 8.99397e-06 0.0908752)
(-4.93294e-07 -4.59837e-06 0.0770588)
(-3.6896e-06 3.71373e-06 0.0842159)
(2.73044e-06 -1.78624e-06 0.0685666)
(1.80063e-06 -2.74224e-06 0.0685722)
(-2.45232e-06 2.18326e-06 0.0685133)
(-2.17183e-06 2.47949e-06 0.0685197)
(3.76407e-06 -3.73788e-06 0.0842646)
(4.98585e-06 -1.23262e-05 0.0928185)
(-1.06425e-05 1.77514e-05 0.0978718)
(-2.39559e-06 4.71817e-06 0.0819505)
(5.03335e-06 -3.97474e-06 0.0882744)
(2.65653e-06 -4.00982e-06 0.0820076)
(-5.53351e-06 1.17278e-05 0.0927526)
(8.50316e-06 -1.72043e-05 0.0979542)
(1.24075e-05 -4.97329e-06 0.0928254)
(-1.77713e-05 1.06622e-05 0.0978766)
(-4.73545e-06 2.46533e-06 0.0819572)
(4.09579e-06 -5.05609e-06 0.0882739)
(1.72222e-05 -8.50497e-06 0.0979568)
(-1.17434e-05 5.54304e-06 0.0927614)
(4.13685e-06 -2.67936e-06 0.082011)
(3.77151e-06 -3.74371e-06 0.0842646)
(-2.45711e-06 2.19666e-06 0.0685134)
(-2.17577e-06 2.48838e-06 0.0685197)
(2.74337e-06 -1.78609e-06 0.0685666)
(-3.68832e-06 3.70363e-06 0.0842159)
(1.81159e-06 -2.74537e-06 0.0685722)
(-5.52936e-06 1.17202e-05 0.0927526)
(2.64389e-06 -3.99666e-06 0.0820077)
(-5.36995e-06 5.56661e-06 0.0882079)
(8.48546e-06 -1.72224e-05 0.0979542)
(-2.38824e-06 4.69981e-06 0.0819504)
(-1.06486e-05 1.76937e-05 0.0978719)
(4.97827e-06 -1.23171e-05 0.0928186)
(-1.17292e-05 5.55267e-06 0.0927613)
(4.11693e-06 -2.66943e-06 0.0820111)
(-5.59195e-06 5.44021e-06 0.0882117)
(1.72463e-05 -8.4871e-06 0.0979568)
(-1.77416e-05 1.0672e-05 0.0978766)
(-4.72703e-06 2.46133e-06 0.0819572)
(1.24046e-05 -4.96312e-06 0.0928255)
(3.8647e-06 -2.6987e-06 0.0715062)
(-4.14404e-06 2.55088e-06 0.0714439)
(2.61474e-06 -3.73088e-06 0.0715085)
(3.75081e-06 -3.74154e-06 0.0842646)
(-2.45433e-06 2.16439e-06 0.0685133)
(-2.16569e-06 2.46484e-06 0.0685197)
(-3.69015e-06 3.70166e-06 0.0842159)
(2.71208e-06 -1.7874e-06 0.0685666)
(1.78786e-06 -2.74307e-06 0.0685722)
(4.96506e-06 -1.22918e-05 0.0928186)
(-2.38986e-06 4.66861e-06 0.0819504)
(-1.06415e-05 1.76673e-05 0.0978719)
(4.98938e-06 -3.94464e-06 0.0882744)
(8.48051e-06 -1.71697e-05 0.0979541)
(-5.52445e-06 1.17056e-05 0.0927525)
(2.62078e-06 -3.9875e-06 0.0820077)
(1.23779e-05 -4.95944e-06 0.0928255)
(-4.70033e-06 2.45107e-06 0.0819571)