/*--------------------------------*- C++ -*----------------------------------*\
| =========                 |                                                 |
| \\      /  F ield         | OpenFOAM: The Open Source CFD Toolbox           |
|  \\    /   O peration     | Version:  v2012                                 |
|   \\  /    A nd           | Website:  www.openfoam.com                      |
|    \\/     M anipulation  |                                                 |
\*---------------------------------------------------------------------------*/
FoamFile
{
    version     2.0;
    format      ascii;
    class       volScalarField;
    location    "775";
    object      k;
}
// * * * * * * * * * * * * * * * * * * * * * * * * * * * * * * * * * * * * * //

dimensions      [0 2 -2 0 0 0 0];


internalField   nonuniform List<scalar> 
171728
(
1.8905e-07
2.56471e-07
3.42487e-07
3.558e-07
1.87612e-07
2.44484e-07
3.29188e-07
3.37165e-07
1.83984e-07
2.33396e-07
3.21743e-07
3.20022e-07
1.80721e-07
2.23518e-07
3.2105e-07
3.04546e-07
1.77333e-07
2.14505e-07
3.25629e-07
2.89964e-07
1.74043e-07
2.06113e-07
3.41351e-07
2.76413e-07
1.69861e-07
1.98367e-07
3.60849e-07
2.64354e-07
1.65256e-07
1.91457e-07
4.05302e-07
2.53702e-07
1.61928e-07
1.84918e-07
4.68048e-07
2.43099e-07
1.58661e-07
1.79262e-07
4.8656e-07
2.32764e-07
1.58588e-07
1.73724e-07
3.91211e-07
2.23445e-07
1.59045e-07
1.68904e-07
2.50971e-07
2.15407e-07
1.50763e-07
1.65712e-07
1.79055e-07
2.08538e-07
1.40945e-07
1.64998e-07
1.57767e-07
2.03099e-07
1.3568e-07
1.66252e-07
1.57123e-07
2.00382e-07
1.33105e-07
1.70376e-07
1.63919e-07
2.01312e-07
1.30744e-07
1.79255e-07
1.78272e-07
2.07691e-07
1.30407e-07
1.96195e-07
2.00957e-07
2.25103e-07
1.31225e-07
2.27071e-07
2.33513e-07
2.5824e-07
1.32472e-07
2.75071e-07
2.82152e-07
3.27929e-07
1.41752e-07
3.4625e-07
3.60774e-07
4.45811e-07
1.54248e-07
4.64063e-07
4.81412e-07
7.08789e-07
1.5868e-07
6.53041e-07
6.36632e-07
1.05201e-06
1.47825e-07
8.38372e-07
8.91595e-07
1.56e-06
1.35854e-07
1.26308e-06
1.19386e-06
2.95327e-06
1.30997e-07
1.58173e-06
1.61329e-06
3.54845e-06
1.3414e-07
2.18069e-06
2.175e-06
5.62742e-06
1.42443e-07
2.75968e-06
2.74368e-06
7.96803e-06
1.56127e-07
3.43528e-06
3.55639e-06
9.86698e-06
1.80595e-07
4.46978e-06
4.3671e-06
1.24832e-05
2.14829e-07
5.46974e-06
5.44362e-06
1.49414e-05
2.57775e-07
6.39639e-06
6.59092e-06
1.73246e-05
3.31425e-07
7.76205e-06
7.74784e-06
1.95039e-05
4.07226e-07
9.01234e-06
9.06774e-06
2.15711e-05
5.47886e-07
1.05859e-05
1.09689e-05
2.34658e-05
6.77729e-07
1.1994e-05
1.14478e-05
2.51207e-05
8.93417e-07
1.38542e-05
1.45502e-05
2.63996e-05
1.1536e-06
1.53118e-05
1.52893e-05
2.82208e-05
1.42637e-06
1.73132e-05
1.73106e-05
2.93981e-05
1.84476e-06
1.89645e-05
1.90679e-05
3.03032e-05
2.26233e-06
2.07729e-05
2.10123e-05
3.19474e-05
2.83869e-06
2.26579e-05
2.22904e-05
3.29784e-05
3.54099e-06
2.44304e-05
2.49578e-05
3.40076e-05
4.01518e-06
2.62826e-05
2.55581e-05
3.47834e-05
5.09362e-06
2.76409e-05
2.83875e-05
3.66796e-05
6.35713e-06
2.99719e-05
2.97242e-05
3.75537e-05
6.46203e-06
3.07246e-05
3.08587e-05
3.77189e-05
8.45567e-06
3.2886e-05
3.29161e-05
3.96074e-05
9.23663e-06
3.42933e-05
3.42511e-05
4.07952e-05
1.11742e-05
3.54174e-05
3.54134e-05
4.13308e-05
1.21311e-05
3.68195e-05
3.74247e-05
4.14235e-05
1.30838e-05
3.8271e-05
3.76e-05
4.36663e-05
1.49538e-05
3.89043e-05
3.93546e-05
4.47689e-05
1.73538e-05
4.09379e-05
4.09991e-05
4.44095e-05
1.87065e-05
4.13377e-05
4.1112e-05
4.49113e-05
1.88602e-05
4.15723e-05
4.26193e-05
4.73133e-05
2.17402e-05
4.4175e-05
4.32803e-05
4.74622e-05
2.3224e-05
4.45534e-05
4.46705e-05
4.73182e-05
2.41132e-05
4.46782e-05
4.52422e-05
4.88485e-05
2.58206e-05
4.63351e-05
4.55354e-05
4.91863e-05
2.73086e-05
4.70103e-05
4.7535e-05
5.00176e-05
2.91133e-05
4.80146e-05
4.81254e-05
5.05538e-05
2.96885e-05
4.85714e-05
4.80974e-05
5.05015e-05
3.07204e-05
4.84835e-05
4.8903e-05
5.20787e-05
3.26172e-05
5.0621e-05
5.06346e-05
5.28102e-05
3.37568e-05
5.10514e-05
5.08777e-05
5.21459e-05
3.41978e-05
5.06058e-05
5.05684e-05
5.25289e-05
3.52941e-05
5.19246e-05
5.19271e-05
5.44785e-05
3.67973e-05
5.30601e-05
5.2885e-05
5.4585e-05
3.77891e-05
5.26492e-05
5.2728e-05
5.44557e-05
3.81611e-05
5.22911e-05
5.26716e-05
5.43956e-05
3.88527e-05
5.39161e-05
5.40195e-05
5.47073e-05
4.04043e-05
5.51216e-05
5.45712e-05
5.64517e-05
4.15772e-05
5.4989e-05
5.44191e-05
5.66424e-05
4.16832e-05
5.43633e-05
5.43937e-05
5.54858e-05
4.16744e-05
5.42752e-05
5.52862e-05
5.56802e-05
4.2653e-05
5.59085e-05
5.61656e-05
5.81627e-05
4.44184e-05
5.72778e-05
5.66274e-05
5.84659e-05
4.48626e-05
5.60898e-05
5.55197e-05
5.534e-05
4.38936e-05
5.48039e-05
5.47424e-05
5.52511e-05
4.37918e-05
5.7272e-05
5.73929e-05
6.0035e-05
4.64147e-05
5.82275e-05
5.87905e-05
6.04888e-05
4.66615e-05
5.56359e-05
5.62333e-05
5.55248e-05
4.50666e-05
5.51517e-05
5.45319e-05
5.45672e-05
4.51982e-05
5.86617e-05
5.72228e-05
5.95871e-05
4.75975e-05
5.93513e-05
5.95405e-05
6.12613e-05
4.7383e-05
5.56336e-05
5.76017e-05
5.76371e-05
4.55449e-05
5.45631e-05
5.54546e-05
5.60533e-05
4.58315e-05
5.77559e-05
5.65578e-05
5.8191e-05
4.76095e-05
5.88915e-05
5.76872e-05
5.88962e-05
4.71759e-05
5.69368e-05
5.68582e-05
5.75203e-05
4.63978e-05
5.62871e-05
5.6824e-05
5.8168e-05
4.66561e-05
5.64385e-05
5.70638e-05
5.86319e-05
4.63744e-05
5.56616e-05
5.54558e-05
5.62751e-05
4.55441e-05
5.46896e-05
5.4368e-05
5.61924e-05
3.63493e-07
3.20773e-07
3.02782e-07
3.52644e-07
3.32221e-07
3.01259e-07
1.8741e-07
1.57265e-07
1.84983e-07
1.73548e-07
2.89042e-07
3.35452e-07
3.64789e-07
3.31993e-07
3.32567e-07
3.56943e-07
3.62409e-07
3.44571e-07
3.25683e-07
2.5628e-07
3.13578e-07
2.47777e-07
3.51675e-07
3.3095e-07
3.497e-07
2.79912e-07
3.39431e-07
2.73819e-07
3.38657e-07
2.47509e-07
3.26013e-07
3.63635e-07
3.42212e-07
3.21222e-07
3.32237e-07
3.1289e-07
3.38552e-07
3.43197e-07
3.25774e-07
3.09172e-07
2.44509e-07
2.96513e-07
2.35682e-07
3.29739e-07
3.09833e-07
3.34672e-07
2.7171e-07
3.19666e-07
2.6558e-07
3.21461e-07
2.36085e-07
3.08658e-07
3.4075e-07
3.21722e-07
3.10107e-07
3.22749e-07
3.01757e-07
3.21294e-07
3.24435e-07
3.07162e-07
2.92546e-07
2.32958e-07
2.83229e-07
2.24828e-07
3.08767e-07
2.91419e-07
3.1441e-07
2.63565e-07
2.98609e-07
2.57622e-07
3.0467e-07
2.25896e-07
2.93635e-07
3.20481e-07
3.05543e-07
2.9875e-07
3.21021e-07
2.89919e-07
3.05705e-07
3.05042e-07
2.89452e-07
2.81084e-07
2.22132e-07
2.77369e-07
2.13946e-07
2.90483e-07
2.74861e-07
2.93688e-07
2.55723e-07
2.79331e-07
2.50135e-07
2.90005e-07
2.16674e-07
2.79551e-07
3.03713e-07
2.92274e-07
2.87081e-07
3.23185e-07
2.78856e-07
2.91072e-07
2.87198e-07
2.75791e-07
2.76929e-07
2.11263e-07
2.76743e-07
2.03665e-07
2.74019e-07
2.59736e-07
2.74472e-07
2.48358e-07
2.60622e-07
2.42931e-07
2.76121e-07
2.08131e-07
2.66374e-07
2.90331e-07
2.82349e-07
2.76335e-07
3.37191e-07
2.69436e-07
2.77391e-07
2.74029e-07
2.66219e-07
2.76879e-07
2.01276e-07
2.80431e-07
1.94842e-07
2.58995e-07
2.46261e-07
2.5645e-07
2.4112e-07
2.45551e-07
2.35852e-07
2.63348e-07
2.00218e-07
2.5458e-07
2.81021e-07
2.76749e-07
2.67415e-07
3.54781e-07
2.63078e-07
2.65195e-07
2.6482e-07
2.5864e-07
2.8277e-07
1.92942e-07
2.90116e-07
1.87567e-07
2.45697e-07
2.34734e-07
2.42391e-07
2.34151e-07
2.33854e-07
2.29644e-07
2.51833e-07
1.93141e-07
2.43982e-07
2.76269e-07
2.78931e-07
2.62024e-07
3.90597e-07
2.58397e-07
2.54524e-07
2.57667e-07
2.55798e-07
2.93437e-07
1.85882e-07
3.06724e-07
1.81228e-07
2.3432e-07
2.24557e-07
2.31294e-07
2.28203e-07
2.24493e-07
2.24058e-07
2.4156e-07
1.86438e-07
2.34649e-07
2.79048e-07
2.86994e-07
2.56908e-07
4.54528e-07
2.51529e-07
2.43914e-07
2.55765e-07
2.58548e-07
3.11324e-07
1.7968e-07
3.32633e-07
1.75457e-07
2.24293e-07
2.15449e-07
2.226e-07
2.22834e-07
2.17169e-07
2.19513e-07
2.32513e-07
1.80559e-07
2.26488e-07
2.86948e-07
2.91303e-07
2.49158e-07
4.86482e-07
2.41007e-07
2.33531e-07
2.59096e-07
2.72042e-07
3.46238e-07
1.7417e-07
4.08011e-07
1.70776e-07
2.15262e-07
2.06434e-07
2.15101e-07
2.184e-07
2.08245e-07
2.14086e-07
2.24651e-07
1.75029e-07
2.19346e-07
2.90726e-07
2.6626e-07
2.38465e-07
4.35677e-07
2.30987e-07
2.24039e-07
2.73074e-07
2.83897e-07
4.30419e-07
1.69664e-07
4.76513e-07
1.66913e-07
2.06297e-07
1.98135e-07
2.0591e-07
2.12461e-07
1.99762e-07
2.0788e-07
2.17862e-07
1.6984e-07
2.13347e-07
2.59967e-07
2.23416e-07
2.28371e-07
2.7957e-07
2.19551e-07
2.15834e-07
2.83905e-07
2.76185e-07
4.82369e-07
1.66111e-07
4.78659e-07
1.64411e-07
1.98094e-07
1.90985e-07
1.97986e-07
2.06617e-07
1.93369e-07
2.03008e-07
2.1192e-07
1.663e-07
2.08235e-07
2.2145e-07
2.02642e-07
2.1636e-07
1.90993e-07
2.07771e-07
2.08744e-07
2.70709e-07
2.18017e-07
4.56502e-07
1.63989e-07
3.30455e-07
1.63115e-07
1.9109e-07
1.85843e-07
1.91892e-07
2.02058e-07
1.89089e-07
1.9922e-07
2.07098e-07
1.64967e-07
2.04329e-07
2.02126e-07
1.95322e-07
2.05606e-07
1.60101e-07
2.00944e-07
2.03012e-07
2.15942e-07
1.97336e-07
2.9845e-07
1.62961e-07
2.26274e-07
1.63453e-07
1.86186e-07
1.83025e-07
1.89102e-07
1.98342e-07
1.90353e-07
1.97047e-07
2.03715e-07
1.6582e-07
2.02177e-07
1.95562e-07
1.91928e-07
1.99971e-07
1.56802e-07
1.98915e-07
1.99859e-07
1.97186e-07
1.90961e-07
2.10485e-07
1.64045e-07
1.86418e-07
1.67018e-07
1.83839e-07
1.83552e-07
1.90918e-07
1.97059e-07
1.95834e-07
1.98359e-07
2.02134e-07
1.69174e-07
2.03107e-07
1.92681e-07
1.92812e-07
1.9912e-07
1.6135e-07
2.0226e-07
1.99952e-07
1.91913e-07
1.93227e-07
1.83458e-07
1.6866e-07
1.8318e-07
1.7525e-07
1.85253e-07
1.88573e-07
1.98971e-07
1.99475e-07
2.06803e-07
2.05716e-07
2.03858e-07
1.76744e-07
2.08549e-07
1.9463e-07
1.99269e-07
2.03935e-07
1.74107e-07
2.09584e-07
2.04484e-07
1.96447e-07
2.09114e-07
1.8452e-07
1.78085e-07
1.92801e-07
1.91708e-07
1.91931e-07
2.0346e-07
2.09456e-07
2.08636e-07
2.34126e-07
2.20239e-07
2.1095e-07
1.92194e-07
2.21434e-07
2.02924e-07
2.14719e-07
2.11739e-07
1.9396e-07
2.22695e-07
2.18885e-07
2.17747e-07
2.44382e-07
1.97795e-07
1.96038e-07
2.19159e-07
2.1917e-07
2.09602e-07
2.3377e-07
2.4799e-07
2.26154e-07
2.80178e-07
2.44958e-07
2.2613e-07
2.18761e-07
2.44945e-07
2.21579e-07
2.45638e-07
2.27144e-07
2.23375e-07
2.47438e-07
2.47014e-07
2.58183e-07
3.13528e-07
2.31463e-07
2.27564e-07
2.60306e-07
2.59689e-07
2.4637e-07
2.87496e-07
2.94889e-07
2.55286e-07
3.39449e-07
2.8821e-07
2.52698e-07
2.57418e-07
2.84839e-07
2.57303e-07
3.06547e-07
2.5534e-07
2.68744e-07
2.88687e-07
3.05725e-07
3.28909e-07
4.84868e-07
2.80611e-07
2.76621e-07
3.3877e-07
3.24469e-07
3.11339e-07
3.98356e-07
3.69118e-07
3.03739e-07
5.07963e-07
3.63585e-07
2.99706e-07
3.24415e-07
3.50348e-07
3.25549e-07
4.27914e-07
3.0428e-07
3.43049e-07
3.56682e-07
4.15406e-07
5.16075e-07
7.44909e-07
3.55793e-07
3.4692e-07
4.66815e-07
4.378e-07
4.28032e-07
6.20566e-07
5.54597e-07
3.82907e-07
7.70805e-07
4.66484e-07
3.66909e-07
4.37261e-07
4.58532e-07
4.62324e-07
6.13564e-07
3.73298e-07
4.42742e-07
4.66492e-07
6.27367e-07
8.28179e-07
1.04163e-06
4.84822e-07
4.64438e-07
6.08883e-07
5.83028e-07
6.79969e-07
9.32492e-07
8.12809e-07
5.03001e-07
9.98743e-07
6.28801e-07
4.94346e-07
5.84799e-07
5.99509e-07
6.88147e-07
9.92625e-07
5.03031e-07
5.99108e-07
6.0929e-07
9.60435e-07
1.23127e-06
1.69605e-06
7.01444e-07
6.50541e-07
8.16032e-07
7.83033e-07
1.04926e-06
1.53143e-06
1.11549e-06
6.64193e-07
1.26019e-06
8.47453e-07
6.60613e-07
7.93245e-07
7.8471e-07
1.06999e-06
1.52117e-06
6.71557e-07
8.21968e-07
7.93758e-07
1.49058e-06
1.6991e-06
2.39495e-06
8.30735e-07
8.25381e-07
1.13571e-06
1.13721e-06
1.60295e-06
2.43874e-06
1.25754e-06
9.18505e-07
1.36474e-06
1.12078e-06
8.28087e-07
1.15438e-06
1.17809e-06
1.69419e-06
2.36343e-06
8.38351e-07
1.10138e-06
1.19168e-06
2.57663e-06
2.83108e-06
3.79312e-06
1.26262e-06
1.24663e-06
1.49696e-06
1.48148e-06
2.77334e-06
3.59591e-06
1.5261e-06
1.23449e-06
1.79149e-06
1.55712e-06
1.29023e-06
1.48953e-06
1.44135e-06
2.53654e-06
3.68897e-06
1.30137e-06
1.5169e-06
1.46039e-06
3.49564e-06
3.90877e-06
5.14688e-06
1.59292e-06
1.57872e-06
2.00305e-06
1.99549e-06
3.75394e-06
5.16503e-06
1.8485e-06
1.64507e-06
2.14634e-06
2.06213e-06
1.51623e-06
2.01112e-06
1.98064e-06
3.97467e-06
5.16096e-06
1.53827e-06
2.00643e-06
2.00453e-06
5.06163e-06
5.56601e-06
7.23301e-06
2.15535e-06
2.14341e-06
2.62159e-06
2.60215e-06
5.58548e-06
7.26518e-06
2.27402e-06
2.20417e-06
2.65656e-06
2.62059e-06
2.17246e-06
2.62775e-06
2.66284e-06
5.54242e-06
7.24619e-06
2.1917e-06
2.58322e-06
2.66264e-06
7.60772e-06
7.62144e-06
9.43627e-06
2.78755e-06
2.77588e-06
3.32812e-06
3.30358e-06
7.66128e-06
9.39051e-06
2.80441e-06
2.8216e-06
3.31665e-06
3.39066e-06
2.78939e-06
3.22806e-06
3.28307e-06
7.61328e-06
9.511e-06
2.80832e-06
3.35166e-06
3.31422e-06
9.40944e-06
9.90975e-06
1.19209e-05
3.51616e-06
3.48431e-06
4.16135e-06
4.1358e-06
9.85002e-06
1.18666e-05
3.49779e-06
3.54366e-06
4.15738e-06
4.2001e-06
3.4886e-06
4.20227e-06
4.19138e-06
1.00317e-05
1.1927e-05
3.50543e-06
4.13253e-06
4.18204e-06
1.19648e-05
1.24293e-05
1.44569e-05
4.40481e-06
4.38254e-06
5.16122e-06
5.15327e-06
1.23914e-05
1.46008e-05
4.38631e-06
4.44682e-06
5.11769e-06
5.20377e-06
4.44408e-06
5.21865e-06
5.14262e-06
1.2358e-05
1.45169e-05
4.41768e-06
5.19942e-06
5.10512e-06
1.44442e-05
1.49577e-05
1.68173e-05
5.41558e-06
5.43565e-06
6.23779e-06
6.21885e-06
1.51171e-05
1.6815e-05
5.40705e-06
5.53617e-06
6.19003e-06
6.28172e-06
5.40524e-06
6.17154e-06
6.24171e-06
1.50758e-05
1.69242e-05
5.38199e-06
6.23715e-06
6.23798e-06
1.68472e-05
1.72909e-05
1.90649e-05
6.52729e-06
6.44676e-06
7.43857e-06
7.38563e-06
1.72517e-05
1.89869e-05
6.43692e-06
6.44885e-06
7.4634e-06
7.74333e-06
6.49747e-06
7.35555e-06
7.46118e-06
1.7383e-05
1.91605e-05
6.4872e-06
7.54069e-06
7.44619e-06
1.90441e-05
1.95569e-05
2.11143e-05
7.79329e-06
7.78428e-06
8.77993e-06
8.77123e-06
1.95018e-05
2.11935e-05
7.82764e-06
8.15022e-06
8.6774e-06
8.76054e-06
7.81507e-06
8.75293e-06
8.72232e-06
1.96071e-05
2.1043e-05
7.79279e-06
8.56265e-06
8.64091e-06
2.11281e-05
2.15213e-05
2.29759e-05
9.07856e-06
9.04651e-06
1.02395e-05
1.01876e-05
2.15988e-05
2.29347e-05
8.98468e-06
9.0654e-06
1.02612e-05
1.08092e-05
9.11403e-06
1.01579e-05
1.03108e-05
2.15443e-05
2.32492e-05
9.04515e-06
1.07222e-05
1.03387e-05
2.30528e-05
2.34152e-05
2.46652e-05
1.06599e-05
1.06022e-05
1.17191e-05
1.16718e-05
2.33575e-05
2.46205e-05
1.06786e-05
1.1314e-05
1.16847e-05
1.17827e-05
1.05772e-05
1.1642e-05
1.18308e-05
2.362e-05
2.4311e-05
1.05954e-05
1.12037e-05
1.17159e-05
2.47397e-05
2.50108e-05
2.61905e-05
1.21054e-05
1.20296e-05
1.3391e-05
1.33951e-05
2.49898e-05
2.62504e-05
1.20061e-05
1.18551e-05
1.33233e-05
1.34434e-05
1.23821e-05
1.33642e-05
1.33326e-05
2.46184e-05
2.65589e-05
1.22583e-05
1.38985e-05
1.32876e-05
2.60851e-05
2.65841e-05
2.76825e-05
1.37905e-05
1.38857e-05
1.51471e-05
1.49888e-05
2.663e-05
2.7578e-05
1.38381e-05
1.43502e-05
1.51185e-05
1.56992e-05
1.35451e-05
1.49499e-05
1.50262e-05
2.7082e-05
2.77663e-05
1.35022e-05
1.51943e-05
1.49331e-05
2.77859e-05
2.79935e-05
2.89289e-05
1.5621e-05
1.53446e-05
1.67194e-05
1.67495e-05
2.78781e-05
2.89469e-05
1.54995e-05
1.57764e-05
1.68179e-05
1.65583e-05
1.58432e-05
1.67685e-05
1.76778e-05
2.79265e-05
2.87487e-05
1.57128e-05
1.66545e-05
1.73763e-05
2.9207e-05
2.92464e-05
3.02641e-05
1.71292e-05
1.72912e-05
1.87628e-05
1.86268e-05
2.93105e-05
3.02395e-05
1.72286e-05
1.72677e-05
1.85428e-05
1.87163e-05
1.78403e-05
1.85767e-05
1.83456e-05
2.91913e-05
3.03243e-05
1.75053e-05
1.86497e-05
1.79468e-05
2.99427e-05
3.05763e-05
3.14086e-05
1.92225e-05
1.90201e-05
2.03259e-05
2.03464e-05
3.05025e-05
3.13608e-05
1.91174e-05
1.91023e-05
2.05266e-05
2.05321e-05
1.89918e-05
2.03247e-05
2.04455e-05
3.05765e-05
3.14315e-05
1.86715e-05
2.06337e-05
2.07771e-05
3.16848e-05
3.16745e-05
3.26273e-05
2.078e-05
2.07919e-05
2.23798e-05
2.22045e-05
3.16644e-05
3.25806e-05
2.07757e-05
2.09459e-05
2.21016e-05
2.19061e-05
2.09958e-05
2.22107e-05
2.268e-05
3.17156e-05
3.24261e-05
2.11745e-05
2.18457e-05
2.21628e-05
3.2718e-05
3.29302e-05
3.3805e-05
2.27955e-05
2.26398e-05
2.40568e-05
2.39737e-05
3.28509e-05
3.37092e-05
2.2754e-05
2.23931e-05
2.44468e-05
2.44773e-05
2.29719e-05
2.39573e-05
2.41244e-05
3.2689e-05
3.39569e-05
2.2657e-05
2.44197e-05
2.44914e-05
3.37657e-05
3.40512e-05
3.46516e-05
2.45813e-05
2.44638e-05
2.56842e-05
2.58551e-05
3.39862e-05
3.48874e-05
2.47728e-05
2.49657e-05
2.53666e-05
2.54306e-05
2.46344e-05
2.58237e-05
2.55153e-05
3.42421e-05
3.45852e-05
2.48321e-05
2.54169e-05
2.51787e-05
3.45776e-05
3.48658e-05
3.6179e-05
2.59492e-05
2.63066e-05
2.74965e-05
2.72915e-05
3.51298e-05
3.58195e-05
2.57641e-05
2.56572e-05
2.78541e-05
2.7742e-05
2.57901e-05
2.7302e-05
2.75625e-05
3.47323e-05
3.61309e-05
2.54727e-05
2.76644e-05
2.78627e-05
3.62632e-05
3.65549e-05
3.72542e-05
2.82496e-05
2.76185e-05
2.97198e-05
2.95026e-05
3.60459e-05
3.71787e-05
2.86209e-05
2.83947e-05
2.98821e-05
2.94153e-05
2.83446e-05
2.94839e-05
2.98771e-05
3.65438e-05
3.71895e-05
2.86659e-05
2.94565e-05
3.02833e-05
3.74738e-05
3.73281e-05
3.75206e-05
2.98177e-05
3.00169e-05
3.00882e-05
3.04922e-05
3.74708e-05
3.78868e-05
2.99322e-05
2.97229e-05
3.00097e-05
3.07318e-05
2.99906e-05
3.04515e-05
3.0152e-05
3.73122e-05
3.78849e-05
3.04631e-05
3.05871e-05
3.04797e-05
3.7552e-05
3.78304e-05
3.95055e-05
3.06391e-05
3.07057e-05
3.28381e-05
3.24498e-05
3.80179e-05
3.92002e-05
3.03783e-05
3.0995e-05
3.26806e-05
3.22296e-05
3.05009e-05
3.24345e-05
3.24142e-05
3.81316e-05
3.91129e-05
3.04924e-05
3.22345e-05
3.21208e-05
3.92724e-05
3.96715e-05
4.00339e-05
3.30934e-05
3.2921e-05
3.34158e-05
3.38985e-05
3.95352e-05
4.02244e-05
3.29309e-05
3.28912e-05
3.3917e-05
3.42108e-05
3.28155e-05
3.39034e-05
3.40445e-05
3.94241e-05
4.03394e-05
3.28948e-05
3.41756e-05
3.44593e-05
4.05683e-05
4.03058e-05
4.15737e-05
3.38267e-05
3.42623e-05
3.57551e-05
3.52254e-05
4.03814e-05
4.10813e-05
3.45128e-05
3.43023e-05
3.58424e-05
3.48459e-05
3.45208e-05
3.52331e-05
3.56614e-05
4.0431e-05
4.08486e-05
3.47885e-05
3.4767e-05
3.55184e-05
4.12622e-05
4.17214e-05
4.18038e-05
3.61642e-05
3.54442e-05
3.64981e-05
3.63984e-05
4.12597e-05
4.19177e-05
3.59613e-05
3.54949e-05
3.61247e-05
3.71808e-05
3.57919e-05
3.62959e-05
3.58278e-05
4.12118e-05
4.25843e-05
3.56537e-05
3.71207e-05
3.58298e-05
4.13078e-05
4.1877e-05
4.27605e-05
3.6529e-05
3.69132e-05
3.737e-05
3.80926e-05
4.21909e-05
4.31718e-05
3.63877e-05
3.75253e-05
3.78137e-05
3.77938e-05
3.5897e-05
3.81342e-05
3.78954e-05
4.2727e-05
4.26564e-05
3.60162e-05
3.76006e-05
3.77995e-05
4.31827e-05
4.30259e-05
4.39012e-05
3.77953e-05
3.81914e-05
3.89828e-05
3.84112e-05
4.32677e-05
4.3472e-05
3.80766e-05
3.77704e-05
3.87787e-05
3.79038e-05
3.86726e-05
3.85212e-05
3.99194e-05
4.26691e-05
4.33988e-05
3.84785e-05
3.8518e-05
3.9793e-05
4.47059e-05
4.41777e-05
4.52644e-05
3.945e-05
3.88083e-05
4.07993e-05
4.06388e-05
4.37168e-05
4.51871e-05
3.91928e-05
3.84438e-05
4.06716e-05
4.07876e-05
4.00538e-05
4.05341e-05
4.00766e-05
4.38593e-05
4.53391e-05
4.00172e-05
4.0838e-05
4.02542e-05
4.44133e-05
4.54038e-05
4.52861e-05
4.10894e-05
4.10765e-05
4.12546e-05
4.15117e-05
4.54072e-05
4.55075e-05
4.10231e-05
4.12404e-05
4.12996e-05
4.16977e-05
4.00278e-05
4.13542e-05
4.01447e-05
4.54782e-05
4.55496e-05
4.0247e-05
4.10752e-05
4.02331e-05
4.45506e-05
4.52888e-05
4.58213e-05
4.12092e-05
4.1493e-05
4.13844e-05
4.13707e-05
4.55074e-05
4.53857e-05
4.12888e-05
4.17754e-05
4.16351e-05
4.22502e-05
4.06419e-05
4.13154e-05
4.27943e-05
4.56122e-05
4.6373e-05
4.03973e-05
4.22574e-05
4.25953e-05
4.70325e-05
4.62499e-05
4.74778e-05
4.19688e-05
4.14743e-05
4.37404e-05
4.36164e-05
4.56617e-05
4.76462e-05
4.22641e-05
4.23097e-05
4.35237e-05
4.26737e-05
4.32252e-05
4.37831e-05
4.36932e-05
4.65069e-05
4.66243e-05
4.31583e-05
4.30447e-05
4.40089e-05
4.74613e-05
4.75769e-05
4.76429e-05
4.39876e-05
4.41523e-05
4.41715e-05
4.4736e-05
4.79046e-05
4.81157e-05
4.37165e-05
4.30631e-05
4.40841e-05
4.44447e-05
4.36899e-05
4.45455e-05
4.36253e-05
4.67662e-05
4.79982e-05
4.40827e-05
4.43362e-05
4.40745e-05
4.72282e-05
4.77044e-05
4.81841e-05
4.42441e-05
4.47454e-05
4.47732e-05
4.46693e-05
4.81288e-05
4.79483e-05
4.42201e-05
4.47957e-05
4.493e-05
4.51829e-05
4.36867e-05
4.45879e-05
4.51631e-05
4.82257e-05
4.8432e-05
4.40785e-05
4.52157e-05
4.49811e-05
4.8569e-05
4.83712e-05
4.91699e-05
4.50464e-05
4.46702e-05
4.60426e-05
4.56429e-05
4.79871e-05
4.89785e-05
4.52232e-05
4.51801e-05
4.58816e-05
4.53143e-05
4.56146e-05
4.58646e-05
4.61253e-05
4.84403e-05
4.8536e-05
4.54811e-05
4.53218e-05
4.59714e-05
4.9166e-05
4.93383e-05
4.98755e-05
4.63036e-05
4.62486e-05
4.68448e-05
4.71552e-05
4.93227e-05
4.99956e-05
4.60642e-05
4.57418e-05
4.69344e-05
4.73885e-05
4.61473e-05
4.6962e-05
4.6599e-05
4.88211e-05
5.03696e-05
4.59887e-05
4.71116e-05
4.65916e-05
4.97234e-05
5.00496e-05
5.06396e-05
4.7089e-05
4.72026e-05
4.79424e-05
4.75799e-05
5.00391e-05
5.04207e-05
4.72982e-05
4.77094e-05
4.80475e-05
4.79698e-05
4.70152e-05
4.76663e-05
4.77854e-05
5.05797e-05
5.05898e-05
4.71226e-05
4.81011e-05
4.80385e-05
5.05394e-05
5.06944e-05
5.04971e-05
4.81004e-05
4.7932e-05
4.8141e-05
4.85333e-05
5.06562e-05
5.10336e-05
4.80889e-05
4.79494e-05
4.79869e-05
4.78891e-05
4.78463e-05
4.85704e-05
4.79211e-05
5.05781e-05
5.0429e-05
4.8105e-05
4.81024e-05
4.8077e-05
5.04119e-05
5.05111e-05
5.15376e-05
4.81371e-05
4.85386e-05
4.87587e-05
4.84344e-05
5.10351e-05
5.07341e-05
4.79868e-05
4.79795e-05
4.89528e-05
4.89159e-05
4.80426e-05
4.84467e-05
4.91174e-05
5.05559e-05
5.13549e-05
4.80757e-05
4.84198e-05
4.87662e-05
5.1728e-05
5.18529e-05
5.25507e-05
4.91993e-05
4.84697e-05
5.02107e-05
5.00636e-05
5.08251e-05
5.2669e-05
4.94267e-05
4.91641e-05
5.02283e-05
5.01191e-05
4.95449e-05
5.01093e-05
5.03875e-05
5.15613e-05
5.26062e-05
4.93644e-05
5.03382e-05
5.04584e-05
5.27986e-05
5.26178e-05
5.25025e-05
5.04289e-05
5.05916e-05
5.06422e-05
5.10967e-05
5.2983e-05
5.31602e-05
5.03573e-05
5.04186e-05
5.04374e-05
5.07967e-05
5.04616e-05
5.10692e-05
5.0397e-05
5.279e-05
5.28699e-05
5.05502e-05
5.08901e-05
5.05031e-05
5.21867e-05
5.2504e-05
5.27639e-05
5.06359e-05
5.10864e-05
5.06381e-05
5.07291e-05
5.3117e-05
5.24579e-05
5.04297e-05
5.07958e-05
5.06735e-05
5.06354e-05
5.02783e-05
5.06443e-05
5.02141e-05
5.2859e-05
5.24988e-05
5.0373e-05
5.05863e-05
5.02441e-05
5.22554e-05
5.29807e-05
5.36964e-05
5.0756e-05
5.0683e-05
5.15898e-05
5.11642e-05
5.24629e-05
5.35179e-05
5.10121e-05
5.06305e-05
5.1617e-05
5.14083e-05
5.0366e-05
5.12473e-05
5.20451e-05
5.25189e-05
5.36039e-05
5.03221e-05
5.13531e-05
5.19078e-05
5.42587e-05
5.37912e-05
5.42687e-05
5.18045e-05
5.18013e-05
5.24856e-05
5.2888e-05
5.39305e-05
5.48651e-05
5.17834e-05
5.18823e-05
5.24664e-05
5.26949e-05
5.24152e-05
5.29938e-05
5.28431e-05
5.39285e-05
5.45501e-05
5.23413e-05
5.28114e-05
5.29015e-05
5.45883e-05
5.4389e-05
5.45056e-05
5.26724e-05
5.29751e-05
5.2891e-05
5.28674e-05
5.4898e-05
5.42746e-05
5.26379e-05
5.27798e-05
5.27906e-05
5.27801e-05
5.28606e-05
5.28612e-05
5.28346e-05
5.45772e-05
5.43386e-05
5.29389e-05
5.28418e-05
5.29101e-05
5.44388e-05
5.45167e-05
5.45193e-05
5.2895e-05
5.2687e-05
5.28585e-05
5.23435e-05
5.42001e-05
5.37229e-05
5.28136e-05
5.27213e-05
5.29751e-05
5.26881e-05
5.28305e-05
5.22893e-05
5.28178e-05
5.43241e-05
5.4264e-05
5.28692e-05
5.26115e-05
5.27557e-05
5.4402e-05
5.45438e-05
5.48567e-05
5.28478e-05
5.23436e-05
5.31202e-05
5.33501e-05
5.37789e-05
5.52921e-05
5.29876e-05
5.27722e-05
5.32056e-05
5.36466e-05
5.27755e-05
5.33455e-05
5.27862e-05
5.43917e-05
5.54248e-05
5.27174e-05
5.37002e-05
5.283e-05
5.44475e-05
5.50819e-05
5.62106e-05
5.35248e-05
5.39146e-05
5.46691e-05
5.49538e-05
5.56641e-05
5.65939e-05
5.35245e-05
5.3967e-05
5.4572e-05
5.45635e-05
5.30545e-05
5.49818e-05
5.46256e-05
5.56481e-05
5.60887e-05
5.31876e-05
5.45394e-05
5.45391e-05
5.62352e-05
5.63593e-05
5.63035e-05
5.49047e-05
5.50865e-05
5.5064e-05
5.50957e-05
5.66472e-05
5.62499e-05
5.47982e-05
5.46066e-05
5.49542e-05
5.45396e-05
5.49635e-05
5.51365e-05
5.52857e-05
5.60942e-05
5.56419e-05
5.48572e-05
5.44992e-05
5.51906e-05
5.66947e-05
5.62566e-05
5.5699e-05
5.50161e-05
5.49532e-05
5.45512e-05
5.44804e-05
5.61733e-05
5.56014e-05
5.4917e-05
5.44578e-05
5.45701e-05
5.43879e-05
5.52534e-05
5.44595e-05
5.45426e-05
5.56111e-05
5.5602e-05
5.51684e-05
5.4349e-05
5.45683e-05
5.5586e-05
5.56967e-05
5.59941e-05
5.44746e-05
5.44058e-05
5.45088e-05
5.43464e-05
5.55991e-05
5.5621e-05
5.45215e-05
5.44327e-05
5.46196e-05
5.51267e-05
5.43301e-05
5.4249e-05
5.41779e-05
5.57467e-05
5.66001e-05
5.43682e-05
5.50579e-05
5.42344e-05
5.53894e-05
5.61642e-05
5.68199e-05
5.47073e-05
5.43823e-05
5.5448e-05
5.52329e-05
5.56787e-05
5.66581e-05
5.48615e-05
5.52971e-05
5.54817e-05
5.5698e-05
5.43228e-05
5.53836e-05
5.61525e-05
5.67311e-05
5.71276e-05
5.44084e-05
5.5957e-05
5.62765e-05
5.78518e-05
5.69814e-05
5.77904e-05
5.57342e-05
5.57011e-05
5.65743e-05
5.69231e-05
5.70065e-05
5.84247e-05
5.57314e-05
5.58844e-05
5.65137e-05
5.64418e-05
5.66514e-05
5.71385e-05
5.72407e-05
5.72322e-05
5.77005e-05
5.67618e-05
5.66114e-05
5.72421e-05
5.86703e-05
5.79188e-05
5.78411e-05
5.67709e-05
5.71237e-05
5.68544e-05
5.69902e-05
5.85517e-05
5.7579e-05
5.67051e-05
5.65447e-05
5.67916e-05
5.64475e-05
5.71905e-05
5.68163e-05
5.54433e-05
5.77517e-05
5.70169e-05
5.71455e-05
5.59692e-05
5.51718e-05
5.56777e-05
5.76546e-05
5.62541e-05
5.66801e-05
5.64778e-05
5.54931e-05
5.51518e-05
5.72197e-05
5.56632e-05
5.66246e-05
5.61092e-05
5.54258e-05
5.50948e-05
5.48165e-05
5.48228e-05
5.41515e-05
5.68097e-05
5.57365e-05
5.45787e-05
5.47415e-05
5.4025e-05
5.47777e-05
5.61636e-05
5.68043e-05
5.5292e-05
5.5077e-05
5.54266e-05
5.60117e-05
5.56679e-05
5.79543e-05
5.52114e-05
5.5008e-05
5.53352e-05
5.58158e-05
5.42878e-05
5.64055e-05
5.74708e-05
5.57373e-05
5.78307e-05
5.42255e-05
5.65128e-05
5.76723e-05
5.95047e-05
5.72692e-05
5.90774e-05
5.60255e-05
5.68538e-05
5.77848e-05
5.79959e-05
5.84314e-05
5.94391e-05
5.59539e-05
5.6777e-05
5.79059e-05
5.84553e-05
5.84023e-05
5.82784e-05
5.92765e-05
5.83378e-05
5.98944e-05
5.86063e-05
5.87663e-05
5.95272e-05
6.08819e-05
5.91836e-05
5.82969e-05
5.79614e-05
5.79815e-05
5.76437e-05
5.65179e-05
5.93267e-05
5.66722e-05
5.81292e-05
5.85429e-05
5.78911e-05
5.75966e-05
5.91298e-05
5.62773e-05
5.59935e-05
5.99152e-05
5.77029e-05
5.9389e-05
5.71747e-05
5.60042e-05
5.6029e-05
5.79825e-05
5.65016e-05
5.70174e-05
5.59142e-05
5.57509e-05
5.52409e-05
5.63556e-05
5.5832e-05
5.72423e-05
5.67066e-05
5.57353e-05
5.51095e-05
5.50987e-05
5.50207e-05
5.40866e-05
5.7261e-05
5.5531e-05
5.49809e-05
5.46142e-05
5.36655e-05
5.43261e-05
5.64631e-05
5.77185e-05
5.56519e-05
5.53165e-05
5.63004e-05
5.76307e-05
5.61962e-05
5.95316e-05
5.55805e-05
5.49973e-05
5.60074e-05
5.59209e-05
5.41665e-05
5.78778e-05
5.72937e-05
5.55121e-05
5.77544e-05
5.37055e-05
5.5983e-05
5.68601e-05
5.89563e-05
5.81608e-05
5.96278e-05
5.70948e-05
5.83942e-05
5.85075e-05
5.92399e-05
5.99646e-05
6.06748e-05
5.68246e-05
5.70009e-05
5.8429e-05
5.89443e-05
5.83621e-05
5.94584e-05
5.97889e-05
5.83624e-05
6.04147e-05
5.81442e-05
5.93839e-05
6.00424e-05
6.12764e-05
5.96664e-05
5.81651e-05
5.85809e-05
5.91678e-05
5.77152e-05
5.67037e-05
6.03804e-05
5.6709e-05
5.85412e-05
5.90815e-05
5.79025e-05
5.83264e-05
5.97803e-05
5.65156e-05
5.76196e-05
6.04822e-05
5.87004e-05
6.0085e-05
5.8684e-05
5.83367e-05
5.81412e-05
5.78141e-05
5.64982e-05
5.69396e-05
5.58621e-05
5.56325e-05
5.47604e-05
5.62762e-05
5.52279e-05
5.71296e-05
5.73818e-05
5.57463e-05
5.56507e-05
5.66233e-05
5.45293e-05
5.51491e-05
5.82232e-05
5.6362e-05
5.72117e-05
5.56239e-05
5.53922e-05
5.60428e-05
5.64997e-05
5.79913e-05
5.55719e-05
5.47801e-05
5.642e-05
5.6781e-05
5.54004e-05
5.86116e-05
5.56635e-05
5.55178e-05
5.63298e-05
5.60399e-05
5.51164e-05
5.68624e-05
5.63842e-05
5.63333e-05
5.75787e-05
5.52921e-05
5.58739e-05
5.60072e-05
5.7827e-05
5.8356e-05
5.92641e-05
5.71082e-05
5.76234e-05
5.81005e-05
5.87135e-05
5.90831e-05
6.01483e-05
5.7002e-05
5.67345e-05
5.80055e-05
5.78343e-05
5.71177e-05
5.88967e-05
5.80512e-05
5.79533e-05
5.89324e-05
5.6693e-05
5.7659e-05
5.75977e-05
5.89427e-05
5.92562e-05
5.78039e-05
5.81099e-05
5.87107e-05
5.71717e-05
5.74329e-05
6.01082e-05
5.80465e-05
5.80196e-05
5.78614e-05
5.71687e-05
5.71848e-05
5.80427e-05
5.75052e-05
5.70368e-05
5.8933e-05
5.7845e-05
5.75962e-05
5.71098e-05
5.68993e-05
5.75996e-05
5.76253e-05
5.73707e-05
5.67386e-05
5.68935e-05
5.63276e-05
5.6283e-05
5.78124e-05
5.73185e-05
5.67568e-05
5.68556e-05
5.63701e-05
5.6608e-05
5.67336e-05
5.62845e-05
5.6604e-05
5.77319e-05
5.77975e-05
5.67141e-05
5.6722e-05
5.67346e-05
5.79524e-05
5.75249e-05
5.82518e-05
5.63641e-05
5.62887e-05
5.68608e-05
5.65025e-05
5.73954e-05
5.77411e-05
5.64084e-05
5.66671e-05
5.68787e-05
5.69715e-05
5.67503e-05
5.6442e-05
5.70828e-05
5.79687e-05
5.84597e-05
5.69659e-05
5.71016e-05
5.72866e-05
5.8698e-05
5.82809e-05
5.728e-05
5.68964e-05
5.65063e-05
5.63948e-05
5.59989e-05
5.77426e-05
5.68432e-05
5.69055e-05
5.69545e-05
5.6332e-05
5.59138e-05
5.70459e-05
5.58725e-05
5.5764e-05
5.84365e-05
5.66843e-05
5.72297e-05
5.58117e-05
5.57331e-05
5.65066e-05
5.70846e-05
5.65111e-05
5.60342e-05
5.57754e-05
5.54987e-05
5.55148e-05
5.67249e-05
5.66165e-05
5.59737e-05
5.55624e-05
5.5458e-05
5.51632e-05
5.53851e-05
5.54416e-05
5.49824e-05
5.64768e-05
5.61702e-05
5.53342e-05
5.50869e-05
5.49377e-05
5.5979e-05
5.65305e-05
5.46123e-05
5.4725e-05
5.67688e-05
5.45864e-05
5.44068e-05
4.56181e-05
4.53014e-05
4.52143e-05
5.42611e-05
5.63447e-05
5.4239e-05
2.02509e-07
2.42435e-07
9.64554e-08
1.44395e-07
2.56193e-07
2.78165e-07
1.33611e-07
1.60263e-07
1.6443e-07
3.36722e-07
1.19659e-07
3.92115e-07
3.6362e-07
3.77257e-07
3.91081e-07
2.88352e-07
4.91817e-06
2.53189e-07
6.59224e-06
1.31064e-05
2.04529e-05
3.58741e-07
5.15367e-06
3.18066e-07
6.88833e-06
1.58717e-07
1.86804e-07
1.7528e-07
1.88521e-07
1.58277e-07
1.87269e-07
1.74514e-07
2.38114e-07
5.16279e-07
2.23687e-07
2.53668e-07
2.4477e-07
5.05555e-07
2.22803e-07
1.32267e-05
2.04136e-05
1.54548e-07
2.21002e-07
6.79555e-07
3.3895e-07
1.56572e-07
2.2051e-07
6.53438e-07
1.9317e-06
1.90583e-06
3.48092e-07
1.90817e-06
1.87414e-06
4.87395e-07
9.78329e-06
3.98545e-07
1.25089e-05
3.54386e-05
4.53438e-05
5.50001e-07
1.00886e-05
4.63618e-07
1.29114e-05
1.57431e-07
1.86439e-07
1.73394e-07
1.84891e-07
1.54816e-07
1.83779e-07