/*--------------------------------*- C++ -*----------------------------------*\
| =========                 |                                                 |
| \\      /  F ield         | OpenFOAM: The Open Source CFD Toolbox           |
|  \\    /   O peration     | Version:  v2012                                 |
|   \\  /    A nd           | Website:  www.openfoam.com                      |
|    \\/     M anipulation  |                                                 |
\*---------------------------------------------------------------------------*/
FoamFile
{
    version     2.0;
    format      ascii;
    class       volScalarField;
    location    "775";
    object      p;
}
// * * * * * * * * * * * * * * * * * * * * * * * * * * * * * * * * * * * * * //

dimensions      [0 2 -2 0 0 0 0];


internalField   nonuniform List<scalar> 
171728
(
0.00351902
0.00351795
0.00351802
0.00351868
0.00348357
0.00348212
0.00348218
0.00348498
0.00344514
0.00344327
0.00344334
0.00344559
0.0034011
0.00339941
0.00339946
0.00340166
0.00335303
0.00335162
0.00335157
0.00335391
0.00330416
0.00330285
0.0033029
0.00330524
0.00325592
0.00325474
0.00325475
0.0032571
0.00320862
0.00320757
0.00320761
0.00320995
0.00316231
0.00316139
0.00316145
0.00316375
0.00311697
0.00311618
0.00311621
0.00311853
0.00307252
0.00307184
0.00307184
0.00307422
0.00302886
0.00302827
0.00302826
0.00303062
0.00298575
0.00298532
0.00298531
0.00298763
0.002943
0.00294268
0.00294264
0.00294499
0.00290071
0.00290043
0.00290051
0.00290271
0.00285863
0.0028584
0.00285848
0.00286066
0.00281691
0.00281673
0.00281681
0.00281898
0.00277556
0.00277534
0.00277549
0.00277758
0.00273456
0.00273445
0.00273459
0.00273655
0.00269391
0.00269397
0.00269392
0.00269586
0.00265355
0.00265363
0.0026536
0.0026554
0.0026135
0.00261364
0.00261368
0.00261531
0.00257384
0.00257408
0.00257394
0.00257567
0.00253436
0.00253456
0.00253464
0.00253612
0.00249523
0.00249556
0.00249552
0.00249738
0.00245622
0.00245659
0.00245656
0.00245797
0.00241747
0.00241791
0.00241792
0.00241993
0.00237892
0.00237936
0.00237941
0.00238111
0.00234061
0.00234116
0.00234115
0.00234302
0.0023025
0.00230311
0.00230306
0.002305
0.0022645
0.00226507
0.00226508
0.00226697
0.00222666
0.0022273
0.00222727
0.00222916
0.002189
0.00218968
0.0021896
0.0021915
0.00215148
0.00215211
0.00215218
0.00215394
0.00211406
0.00211471
0.00211456
0.00211657
0.00207682
0.00207741
0.00207753
0.00207919
0.00203973
0.00204025
0.00204017
0.00204225
0.00200272
0.00200325
0.00200322
0.002005
0.00196586
0.00196625
0.00196627
0.00196824
0.00192913
0.00192947
0.00192948
0.00193146
0.00189251
0.00189281
0.00189276
0.00189473
0.0018561
0.00185627
0.00185636
0.00185832
0.0018197
0.00181986
0.00181972
0.00182187
0.00178344
0.00178352
0.00178372
0.00178573
0.00174774
0.00174765
0.00174743
0.00174942
0.00171119
0.00171126
0.00171135
0.00171347
0.00167566
0.00167559
0.00167558
0.00167775
0.00163993
0.0016398
0.0016398
0.00164183
0.00160446
0.00160414
0.00160415
0.00160613
0.00156865
0.00156857
0.00156862
0.00157058
0.00153322
0.00153308
0.00153286
0.00153535
0.00149811
0.00149776
0.00149806
0.00149975
0.00146299
0.00146278
0.00146269
0.00146447
0.00142796
0.00142744
0.00142739
0.00142965
0.00139248
0.00139243
0.00139271
0.00139477
0.00135783
0.00135762
0.00135716
0.00135911
0.00132282
0.00132242
0.00132271
0.00132439
0.00128797
0.00128763
0.00128768
0.00128999
0.00125311
0.00125294
0.00125276
0.00125469
0.00121835
0.00121811
0.00121838
0.00122001
0.00118389
0.00118345
0.00118337
0.00118541
0.00114896
0.00114891
0.00114872
0.00115066
0.00111446
0.00111411
0.00111447
0.00111637
0.00108002
0.00107999
0.00107984
0.00108165
0.00104534
0.00104503
0.00104495
0.00104675
0.00101094
0.00101055
0.00101067
0.00101272
0.000976542
0.000976623
0.000976626
0.000978695
0.000941923
0.000941831
0.000941701
0.000943489
0.00090743
0.000906891
0.000906967
0.000908838
0.000872869
0.00087279
0.000872852
0.000874788
0.000838269
0.000838556
0.000838443
0.000840318
0.000804123
0.000803787
0.000803672
0.000805836
0.000769395
0.000768999
0.000769046
0.000770946
0.000734398
0.000734306
0.000734561
0.000736196
0.000700211
0.000700285
0.000700353
0.000702315
0.000666055
0.000666163
0.000665913
0.000668241
0.000631425
0.000631091
0.000630896
0.00063272
0.000596145
0.00059557
0.000595752
0.000597275
0.000560849
0.000561105
0.000561342
0.00056356
0.000527068
0.000527854
0.000527731
0.000530114
0.000493333
0.000492307
0.000492332
0.00049389
0.000456671
0.000455944
0.000455937
0.00045752
0.000420648
0.000421549
0.000421184
0.000423664
0.00038742
0.000388086
0.000388132
0.000390433
0.000353835
0.000352764
0.000353305
0.000354721
0.000317045
0.000316302
0.00031642
0.000318129
0.000280471
0.000281177
0.000280667
0.000283146
0.000246454
0.000247046
0.000246786
0.00024897
0.000212054
0.000211418
0.000211779
0.000213463
0.000175636
0.000175204
0.000175404
0.000177276
0.000139835
0.000140111
0.000140006
0.000142133
0.000104721
0.00010473
0.00010462
0.000106657
6.83339e-05
6.82138e-05
6.80675e-05
6.99942e-05
3.30791e-05
3.2707e-05
3.2873e-05
3.46883e-05
5.94096e-06
6.91381e-06
7.04314e-06
5.26488e-06
0.00352346
0.00352105
0.00352089
0.00352336
0.00352103
0.003521
0.00352736
0.00352737
0.00352737
0.00352738
0.00352087
0.00352099
0.00352345
0.00352106
0.00352099
0.00352344
0.0035187
0.0034897
0.003518
0.00351799
0.00349151
0.00349151
0.00351866
0.00348973
0.00351796
0.00351794
0.00349156
0.0034916
0.00351799
0.00349161
0.00349158
0.00351871
0.00348972
0.003518
0.00349148
0.00349156
0.0034897
0.00348498
0.00345111
0.00348218
0.00348219
0.00345335
0.00345328
0.00348499
0.00345112
0.00348213
0.00348207
0.00345339
0.00345339
0.00348217
0.00345337
0.00345335
0.00348498
0.00345113
0.00348216
0.00345334
0.00345333
0.00345109
0.00344561
0.00340783
0.00344332
0.0034433
0.00341089
0.0034109
0.0034456
0.00340783
0.00344335
0.00344329
0.00341086
0.00341089
0.00344331
0.00341091
0.00341089
0.00344562
0.00340784
0.0034433
0.00341088
0.00341087
0.00340783
0.00340167
0.00336038
0.00339943
0.00339941
0.00336375
0.00336372
0.00340165
0.00336037
0.00339947
0.00339945
0.00336373
0.00336371
0.00339942
0.00336372
0.00336372
0.00340168
0.00336037
0.00339944
0.00336377
0.0033637
0.00336038
0.00335392
0.00331169
0.00335161
0.0033516
0.00331504
0.00331505
0.0033539
0.00331168
0.00335162
0.0033516
0.00331505
0.00331503
0.00335158
0.00331503
0.00331503
0.00335392
0.00331167
0.0033516
0.00331505
0.00331503
0.00331169
0.00330524
0.00326342
0.00330288
0.00330284
0.00326672
0.00326666
0.00330521
0.00326342
0.00330286
0.00330289
0.00326672
0.00326671
0.00330289
0.00326667
0.00326669
0.00330523
0.00326342
0.00330289
0.00326671
0.00326667
0.00326342
0.0032571
0.00321613
0.00325476
0.00325476
0.00321929
0.00321926
0.00325709
0.00321611
0.00325475
0.00325474
0.00321929
0.00321927
0.00325475
0.00321927
0.00321925
0.00325711
0.00321612
0.00325475
0.00321924
0.00321926
0.00321613
0.00320995
0.00316983
0.00320758
0.00320759
0.00317289
0.00317285
0.00320993
0.0031698
0.00320758
0.00320758
0.00317287
0.00317287
0.00320759
0.00317287
0.00317287
0.00320995
0.00316981
0.00320758
0.00317286
0.00317287
0.0031698
0.00316379
0.00312445
0.00316144
0.0031614
0.00312745
0.00312738
0.00316376
0.00312446
0.00316142
0.00316141
0.00312742
0.0031274
0.00316141
0.00312739
0.00312742
0.00316378
0.00312443
0.00316138
0.00312741
0.00312741
0.00312445
0.00311856
0.00307999
0.00311617
0.00311618
0.00308286
0.00308283
0.00311856
0.00307997
0.00311617
0.00311617
0.00308285
0.00308283
0.00311617
0.00308281
0.00308283
0.00311853
0.00307995
0.00311614
0.00308285
0.00308285
0.00308
0.00307422
0.00303633
0.0030718
0.00307183
0.00303912
0.00303911
0.0030742
0.00303631
0.00307184
0.00307181
0.00303908
0.00303915
0.00307185
0.00303911
0.00303912
0.00307417
0.00303633
0.00307183
0.00303911
0.00303914
0.00303631
0.00303066
0.00299315
0.00302827
0.00302828
0.00299596
0.00299599
0.00303063
0.00299323
0.00302828
0.00302828
0.0029959
0.00299603
0.00302828
0.00299599
0.00299601
0.00303063
0.00299322
0.00302829
0.00299599
0.00299602
0.00299323
0.00298757
0.00295052
0.00298531
0.00298531
0.00295335
0.00295333
0.00298762
0.00295057
0.00298528
0.00298533
0.00295339
0.0029533
0.00298532
0.00295332
0.00295334
0.00298764
0.00295056
0.00298531
0.00295332
0.00295333
0.00295054
0.0029449
0.00290825
0.00294264
0.00294268
0.00291099
0.00291095
0.00294502
0.00290818
0.00294259
0.00294263
0.00291101
0.00291088
0.00294271
0.00291095
0.00291096
0.00294499
0.0029082
0.00294273
0.00291089
0.00291095
0.00290819
0.00290282
0.00286613
0.00290053
0.00290043
0.00286891
0.00286895
0.00290269
0.00286613
0.00290057
0.00290052
0.00286889
0.00286892
0.00290043
0.00286896
0.0028689
0.00290278
0.00286617
0.00290042
0.0028689
0.00286888
0.0028661
0.0028607
0.00282446
0.00285839
0.0028584
0.00282726
0.00282712
0.00286067
0.00282439
0.0028584
0.00285848
0.00282729
0.00282717
0.0028584
0.00282712
0.00282715
0.00286076
0.00282438
0.0028584
0.00282717
0.00282716
0.00282436
0.00281904
0.00278309
0.00281672
0.00281675
0.00278585
0.00278572
0.00281902
0.00278288
0.00281674
0.00281682
0.00278589
0.0027858
0.00281675
0.00278572
0.00278576
0.00281902
0.00278298
0.00281674
0.00278581
0.00278576
0.00278289
0.00277773
0.00274197
0.00277547
0.00277534
0.00274476
0.00274475
0.00277757
0.00274175
0.00277549
0.00277549
0.00274478
0.00274468
0.00277543
0.00274475
0.00274468
0.00277766
0.00274187
0.00277542
0.00274467
0.00274467
0.00274179
0.00273673
0.00270113
0.00273456
0.00273444
0.00270398
0.00270408
0.0027365
0.00270108
0.0027346
0.00273459
0.00270397
0.00270397
0.00273447
0.00270409
0.00270403
0.00273664
0.0027011
0.00273446
0.00270393
0.00270402
0.00270103
0.00269591
0.00266054
0.00269391
0.00269395
0.00266363
0.00266361
0.00269591
0.00266062
0.00269397
0.00269389
0.00266354
0.00266361
0.00269393
0.00266362
0.00266364
0.00269591
0.00266054
0.00269394
0.00266361
0.00266364
0.00266055
0.0026554
0.00262045
0.00265356
0.00265362
0.0026237
0.00262365
0.00265546
0.00262041
0.00265352
0.00265354
0.00262371
0.00262364
0.00265357
0.00262366
0.00262371
0.0026554
0.00262042
0.00265355
0.00262368
0.00262371
0.00262036
0.00261529
0.00258071
0.00261358
0.00261363
0.00258401
0.00258392
0.0026153
0.00258068
0.00261357
0.00261368
0.00258392
0.00258386
0.00261372
0.00258392
0.00258392
0.00261536
0.0025806
0.00261372
0.00258392
0.00258391
0.00258063
0.00257586
0.00254109
0.00257417
0.00257408
0.00254432
0.00254435
0.0025757
0.00254116
0.00257408
0.00257395
0.0025443
0.00254449
0.00257412
0.00254435
0.00254435
0.00257558
0.00254123
0.00257411
0.00254453
0.00254433
0.00254115
0.00253594
0.00250251
0.00253447
0.00253458
0.00250545
0.00250539
0.00253612
0.00250234
0.00253452
0.00253464
0.00250548
0.00250528
0.00253461
0.00250536
0.00250539
0.00253627
0.00250208
0.00253461
0.00250526
0.00250539
0.00250238
0.00249751
0.002463
0.00249562
0.00249557
0.00246628
0.00246627
0.00249736
0.00246307
0.00249565
0.00249555
0.00246627
0.00246627
0.00249559
0.00246628
0.00246625
0.00249713
0.00246328
0.00249559
0.00246628
0.00246623
0.00246282
0.00245809
0.00242465
0.0024566
0.00245658
0.0024276
0.00242758
0.00245817
0.00242468
0.00245659
0.00245659
0.00242757
0.00242755
0.0024566
0.00242758
0.00242764
0.00245829
0.00242459
0.0024566
0.00242759
0.00242765
0.00242488
0.0024197
0.0023861
0.00241793
0.00241791
0.00238903
0.002389
0.00241973
0.00238611
0.00241792
0.00241793
0.00238901
0.00238898
0.00241794
0.00238898
0.00238901
0.0024197
0.00238606
0.00241795
0.002389
0.00238901
0.00238607
0.00238118
0.0023479
0.00237942
0.00237939
0.00235069
0.00235067
0.00238118
0.00234789
0.00237942
0.00237943
0.00235068
0.00235063
0.0023794
0.00235068
0.00235073
0.00238116
0.00234797
0.0023794
0.00235069
0.00235072
0.0023479
0.002343
0.00230986
0.00234115
0.00234114
0.00231259
0.0023126
0.002343
0.00230991
0.00234114
0.0023411
0.00231258
0.00231256
0.00234119
0.00231263
0.0023126
0.00234305
0.00230979
0.00234118
0.00231254
0.00231258
0.00230991
0.00230496
0.00227187
0.00230308
0.00230309
0.00227457
0.00227457
0.00230501
0.00227188
0.00230306
0.00230306
0.00227458
0.00227458
0.00230309
0.00227456
0.00227456
0.00230491
0.00227192
0.00230307
0.00227457
0.00227456
0.00227188
0.00226696
0.00223404
0.00226509
0.00226508
0.00223673
0.00223671
0.00226695
0.00223401
0.00226511
0.00226507
0.00223669
0.00223667
0.00226508
0.00223672
0.00223671
0.002267
0.00223403
0.00226509
0.00223674
0.0022367
0.00223405
0.00222914
0.00219641
0.00222729
0.00222729
0.00219906
0.00219908
0.00222911
0.00219641
0.00222728
0.00222725
0.00219907
0.00219907
0.00222729
0.00219909
0.00219904
0.00222912
0.00219635
0.00222728
0.00219899
0.00219901
0.00219638
0.00219151
0.00215883
0.00218966
0.00218967
0.00216146
0.00216148
0.00219152
0.00215885
0.00218965
0.00218963
0.00216145
0.00216147
0.00218965
0.00216147
0.00216147
0.00219146
0.00215895
0.00218963
0.00216156
0.0021615
0.00215885
0.00215394
0.00212145
0.0021521
0.00215211
0.00212406
0.00212407
0.00215395
0.00212142
0.0021521
0.00215215
0.0021241
0.00212402
0.00215209
0.00212407
0.00212405
0.00215402
0.00212137
0.00215212
0.00212396
0.00212404
0.00212147
0.00211657
0.00208411
0.0021147
0.00211472
0.00208668
0.00208672
0.00211654
0.00208416
0.00211472
0.0021146
0.00208663
0.00208668
0.00211471
0.00208671
0.00208666
0.00211652
0.00208425
0.00211468
0.00208677
0.00208665
0.00208405
0.00207923
0.00204704
0.00207738
0.00207742
0.00204957
0.00204955
0.00207928
0.00204698
0.00207735
0.00207745
0.00204959
0.0020496
0.00207734
0.00204954
0.00204955
0.00207937
0.00204691
0.00207736
0.00204954
0.00204958
0.00204712
0.00204216
0.00200996
0.00204028
0.00204025
0.00201243
0.00201246
0.00204211
0.00201001
0.0020403
0.00204024
0.00201244
0.00201237
0.00204032
0.00201247
0.00201249
0.00204203
0.00201001
0.00204031
0.00201237
0.00201247
0.00200988
0.00200509
0.00197308
0.00200317
0.00200322
0.00197551
0.00197551
0.00200514
0.00197304
0.00200318
0.00200319
0.00197548
0.00197554
0.00200317
0.00197551
0.00197538
0.00200517
0.00197308
0.00200318
0.00197555
0.00197538
0.00197306
0.00196822
0.00193624
0.0019663
0.00196626
0.00193862
0.00193864
0.00196817
0.00193627
0.00196627
0.00196628
0.00193866
0.00193863
0.0019662
0.00193863
0.0019387
0.0019682
0.00193627
0.0019662
0.00193865
0.00193877
0.00193634
0.00193139
0.00189966
0.00192943
0.00192947
0.00190197
0.00190196
0.00193143
0.00189964
0.00192944
0.00192946
0.00190192
0.00190192
0.00192949
0.00190196
0.00190195
0.00193142
0.00189961
0.00192955
0.00190191
0.00190187
0.00189957
0.00189483
0.00186309
0.00189283
0.00189281
0.00186537
0.00186539
0.0018948
0.00186311
0.00189282
0.00189277
0.00186543
0.00186547
0.00189278
0.00186539
0.00186536
0.00189479
0.00186319
0.00189272
0.00186548
0.00186544
0.00186315
0.00185826
0.0018267
0.00185625
0.00185628
0.00182896
0.00182897
0.00185829
0.00182672
0.00185626
0.00185634
0.0018289
0.00182886
0.00185627
0.00182897
0.00182894
0.00185834
0.0018266
0.00185632
0.00182885
0.00182887
0.00182667
0.00182188
0.0017905
0.00181985
0.00181986
0.00179262
0.00179257
0.00182189
0.00179039
0.0018198
0.00181975
0.00179267
0.00179266
0.00181983
0.00179258
0.00179269
0.00182179
0.00179054
0.00181978
0.00179267
0.00179273
0.00179055
0.00178569
0.00175429
0.00178361
0.00178352
0.00175656
0.00175662
0.00178559
0.00175446
0.00178367
0.00178368
0.00175654
0.00175654
0.00178368
0.00175662
0.00175649
0.00178574
0.0017543
0.00178374
0.00175654
0.00175647
0.00175423
0.00174948
0.00171829
0.00174748
0.00174765
0.00172035
0.00172037
0.00174966
0.0017182
0.00174742
0.00174746
0.00172031
0.0017204
0.00174736
0.00172036
0.00172036
0.00174951
0.00171825
0.00174737
0.00172038
0.00172029
0.00171824
0.00171351
0.00168245
0.0017114
0.00171126
0.00168458
0.00168446
0.00171341
0.00168239
0.00171139
0.00171135
0.00168462
0.00168442
0.00171142
0.00168446
0.00168457
0.00171342
0.00168241
0.00171134
0.00168445
0.00168459
0.00168253
0.00167763
0.00164658
0.0016756
0.0016756
0.00164855
0.00164874
0.00167762
0.00164665
0.00167562
0.00167555
0.00164861
0.0016488
0.00167561
0.00164876
0.00164871
0.00167766
0.00164662
0.00167569
0.00164881
0.00164876
0.0016466
0.00164186
0.00161107
0.00163971
0.00163977
0.00161328
0.00161306
0.00164188
0.00161095
0.00163976
0.00163982
0.00161315
0.00161299
0.00163981
0.00161305
0.00161305
0.00164184
0.001611
0.00163976
0.00161297
0.00161295
0.0016109
0.00160626
0.00157527
0.00160434
0.00160417
0.00157725
0.00157746
0.00160619
0.00157542
0.00160417
0.00160418
0.00157732
0.00157762
0.00160409
0.00157743
0.00157728
0.00160626
0.00157543
0.00160402
0.00157761
0.00157736
0.00157531
0.00157053
0.00153992
0.00156831
0.00156858
0.00154196
0.0015419
0.00157065
0.00153983
0.00156847
0.00156861
0.00154201
0.00154166
0.00156841
0.00154196
0.00154217
0.00157063
0.00153968
0.00156851
0.00154168
0.0015421
0.00154008
0.00153518
0.00150461
0.00153323
0.00153301
0.00150673
0.00150653
0.00153509
0.00150457
0.00153318
0.00153283
0.00150658
0.00150663
0.00153344
0.00150653
0.00150664
0.00153496
0.00150472
0.00153332
0.00150684
0.00150666
0.00150451
0.00149989
0.00146949
0.00149784
0.00149779
0.00147144
0.00147168
0.00149985
0.0014695
0.00149778
0.00149796
0.00147159
0.00147187
0.00149758
0.00147155
0.00147108
0.00150001
0.00146956
0.0014977
0.00147161
0.0014712
0.00146918
0.00146476
0.00143413
0.00146267
0.00146289
0.00143624
0.00143621
0.00146476
0.00143417
0.00146282
0.00146301
0.00143624
0.00143608
0.00146242
0.00143624
0.0014365
0.00146481
0.00143407
0.00146246
0.00143609
0.00143631
0.00143434
0.00142938
0.0013991
0.00142742
0.00142734
0.00140113
0.00140094
0.00142944
0.00139907
0.00142737
0.00142719
0.00140111
0.00140107
0.0014278
0.00140115
0.00140149
0.00142934
0.00139923
0.00142761
0.00140143
0.0014016
0.00139951
0.00139443
0.00136434
0.00139246
0.00139224
0.00136651
0.00136652
0.00139437
0.00136442
0.00139245
0.00139239
0.00136638
0.00136616
0.00139266
0.00136634
0.00136594
0.00139454
0.00136408
0.00139286
0.00136607
0.00136598
0.0013639
0.0013596
0.00132914
0.0013577
0.00135796
0.00133111
0.00133132
0.00135974
0.00132911
0.00135755
0.00135744
0.00133121
0.00133153
0.00135714
0.00133122
0.00133115
0.00135935
0.00132929
0.00135704
0.00133128
0.00133103
0.00132902
0.00132443
0.00129437
0.00132239
0.00132239
0.00129639
0.00129614
0.00132435
0.00129426
0.00132255
0.00132285
0.00129648
0.00129632
0.00132254
0.00129631
0.00129667
0.00132463
0.00129437
0.00132247
0.0012965
0.00129669
0.00129468
0.00128967
0.00125951
0.00128772
0.00128747
0.00126166
0.00126161
0.00128958
0.00125959
0.00128775
0.0012875
0.00126152
0.00126136
0.00128798
0.0012616
0.00126161
0.00128963
0.00125937
0.00128802
0.00126139
0.00126162
0.00125945
0.00125482
0.0012248
0.00125296
0.00125304
0.00122678
0.00122702
0.00125492
0.00122478
0.00125281
0.00125279
0.00122684
0.00122707
0.00125274
0.00122689
0.00122662
0.00125469
0.00122496
0.00125269
0.001227
0.00122664
0.00122465
0.0012201
0.00119003
0.00121808
0.00121815
0.00119215
0.00119195
0.00122004
0.00118999
0.00121821
0.00121837
0.00119219
0.00119199
0.00121804
0.00119205
0.00119222
0.00122027
0.00118998
0.00121813
0.00119213
0.00119231
0.00119013
0.00118532
0.00115535
0.00118353
0.00118338
0.00115747
0.00115764
0.00118533
0.00115552
0.00118345
0.00118325
0.00115731
0.00115736
0.00118352
0.00115763
0.00115749
0.00118524
0.00115525
0.00118352
0.00115729
0.00115731
0.00115534
0.00115069
0.00112107
0.00114878
0.00114893
0.00112294
0.00112277
0.00115081
0.00112074
0.0011487
0.00114884
0.00112314
0.00112321
0.00114886
0.00112275
0.00112304
0.00115062
0.00112115
0.00114872
0.00112306
0.00112306
0.00112102
0.00111642
0.00108632
0.00111438
0.00111413
0.00108846
0.00108848
0.00111606
0.00108652
0.00111461
0.00111456
0.00108838
0.00108837
0.0011144
0.00108851
0.00108833
0.00111649
0.0010864
0.00111449
0.00108855
0.00108847
0.00108637
0.00108159
0.00105157
0.00107974
0.00107998
0.00105368
0.00105384
0.0010819
0.00105165
0.00107958
0.00107967
0.00105359
0.00105368
0.00107966
0.00105379
0.00105362
0.00108168
0.00105154
0.00107972
0.00105363
0.00105355
0.00105147
0.00104689
0.00101733
0.00104503
0.00104507
0.0010193
0.00101908
0.0010469
0.00101707
0.00104501
0.00104504
0.00101943
0.00101926
0.00104497
0.00101909
0.0010193
0.00104683
0.00101723
0.0010449
0.00101919
0.00101931
0.0010173
0.00101271
0.00098311
0.0010108
0.00101052
0.000985112
0.00098503
0.00101245
0.000983186
0.00101093
0.00101071
0.000985097
0.00098512
0.00101083
0.00098511
0.000985333
0.00101261
0.000983219
0.00101084
0.000985157
0.000985322
0.000983378
0.000978411
0.00094833
0.000976451
0.000976534
0.000950411
0.000950718
0.000978556
0.000948494
0.000976363
0.000976556
0.000950319
0.000950485
0.000976714
0.000950675
0.000950372
0.00097857
0.000948341
0.000976704
0.000950536
0.000950371
0.000948263
0.000943601
0.000913702
0.000941738
0.000941919
0.000915749
0.000915618
0.000943701
0.000913509
0.000941679
0.000941707
0.000915803
0.000915668
0.000941591
0.000915519
0.000915537
0.000943561
0.000913571
0.000941603
0.00091556
0.000915553
0.000913489
0.000909019
0.000879415
0.00090712
0.000906959
0.000881376
0.000881242
0.000908825
0.000879353
0.000907183
0.000907065
0.000881424
0.000881376
0.00090698
0.000881302
0.000881379
0.000908909
0.000879449
0.000906991
0.00088138
0.00088137
0.000879448
0.000874745
0.000844965
0.000872785
0.000872709
0.000846935
0.000847096
0.000874719
0.000845197
0.000872824
0.000872816
0.000846896
0.000847019
0.000872787
0.000847138
0.000846926
0.000874808
0.000845085
0.00087279
0.000847103
0.00084693
0.000844994
0.000840269
0.000810437
0.000838315
0.00083853
0.000812502
0.00081254
0.000840528
0.000810409
0.000838246
0.000838366
0.000812449
0.000812383
0.000838334
0.000812509
0.000812684
0.000840359
0.000810307
0.000838324
0.000812345
0.000812618
0.000810571
0.000805733
0.000775741
0.000803871
0.000803826
0.000777798
0.00077774
0.00080568
0.000775635
0.000803855
0.000803731
0.000777876
0.000777723
0.000804034
0.000777714
0.00077778
0.000805604
0.000775689
0.000803979
0.000777702
0.000777846
0.000775702
0.000770982
0.000740988
0.00076905
0.000769009
0.000742927
0.000742916
0.000770882
0.000740957
0.000769135
0.000769047
0.000742991
0.000743157
0.000769004
0.000742906
0.000742821
0.000770961
0.000741158
0.000769096
0.00074315
0.000742891
0.000740879
0.000736321
0.000706979
0.000734343
0.000734326
0.000708849
0.000708796
0.000736288
0.000706948
0.000734381
0.000734581
0.000708815
0.000708929
0.000734207
0.000708771
0.000708757
0.00073648
0.000707028
0.000734241
0.000708914
0.000708714
0.000706908
0.00070234
0.000672608
0.000700354
0.000700292
0.000674661
0.000674651
0.000702323
0.000672742
0.00070031
0.000700354
0.000674569
0.000674466
0.000700345
0.000674733
0.000674978
0.00070237
0.000672533
0.000700302
0.000674568
0.000674944
0.000672976
0.000667871
0.000637691
0.00066599
0.000666071
0.000639799
0.000640005
0.000668051
0.000637778
0.000665913
0.000665814
0.000639802
0.000639736
0.000666363
0.000639986
0.000639742
0.000667816
0.000637595
0.000666317
0.000639685
0.000639726
0.000637574
0.000632921
0.000602749
0.000631047
0.000631151
0.000604772
0.000604606
0.000632931
0.000602421
0.000631095
0.000630998
0.000604858
0.000604731
0.000630815
0.000604431
0.000604127
0.000632802
0.000602573
0.000630852
0.000604528
0.000604154
0.000602037
0.000597962
0.000567699
0.000595975
0.000595738
0.000569579
0.000569431
0.000597621
0.000567706
0.000596059
0.000595944
0.000569594
0.000569694
0.000595321
0.000569486
0.000569802
0.000597804
0.000567942
0.000595379
0.000569814
0.000569892
0.000568114
0.000562997
0.000533805
0.000560936
0.000560961
0.00053563
0.000535952
0.000563117
0.000534287
0.000560928
0.000561111
0.000535574
0.000535857
0.000561486
0.00053624
0.000536661
0.000563298
0.000534177
0.00056156
0.00053617
0.000536622
0.000534793
0.000529253
0.000499626
0.000527284
0.000527609
0.00050182
0.000501668
0.000529713
0.000499263
0.00052724
0.000527507
0.000501838
0.00050172
0.00052816
0.000501436
0.00050121
0.000529593
0.000499244
0.000528085
0.000501388
0.000501131
0.000498875
0.000494734
0.000463267
0.000492932
0.000492619
0.000465482
0.000465132
0.00049431
0.000462829
0.000492952
0.000492685
0.00046549
0.000465221
0.000492044
0.000464947
0.000464593
0.000494311
0.000462923
0.000492008
0.000465059
0.000464609
0.000462388
0.000458283
0.000427682
0.000456327
0.000456037
0.000429507
0.000429776
0.000457907
0.00042812
0.000456319
0.000456053
0.000429418
0.000429394
0.000455617
0.000429957
0.000429995
0.000457953
0.000427832
0.000455587
0.000429589
0.000429905
0.000428264
0.000423042
0.000394183
0.00042095
0.000421305
0.000395944
0.000396316
0.000423504
0.000394635
0.000420871
0.000420957
0.000395934
0.000396138
0.000421609
0.000396527
0.000396714
0.000423224
0.000394514
0.000421526
0.000396369
0.000396721
0.000394972
0.000389664
0.000360042
0.000387671
0.000387967
0.000362207
0.000361883
0.000390033
0.000359577
0.0003877
0.000387939
0.000362359
0.000362516
0.000388363
0.000361717
0.000361887
0.000390014
0.000360094
0.000388457
0.000362378
0.000362069
0.000359645
0.000355164
0.000323674
0.000353322
0.000352956
0.000325935
0.000325599
0.000354698
0.000323255
0.000353446
0.00035351
0.000325888
0.000325842
0.000352856
0.000325444
0.000325439
0.000355159
0.000323486
0.000352968
0.000325688
0.000325419
0.000323173
0.000318642
0.000287685
0.000316695
0.000316407
0.000289535
0.000289765
0.000318272
0.000288016
0.00031666
0.000316539
0.000289412
0.000289247
0.000316227
0.000289827
0.000289627
0.000318437
0.000287519
0.000316178
0.000289251
0.000289437
0.000287841
0.000282944
0.000253371
0.000280836
0.000281079
0.000255204
0.000255449
0.00028327
0.000253724
0.000280714
0.000280607
0.000255155
0.000255174
0.000281059
0.000255567
0.000255475
0.000282825
0.000253419
0.000280907
0.000255264
0.000255414
0.000253622
0.000248739
0.000218451
0.000246723
0.000246952
0.000220617
0.000220492
0.000249082
0.000218242
0.000246697
0.00024672
0.000220713
0.000220769
0.000246951
0.000220455
0.000220561
0.000248784
0.000218566
0.000246908
0.000220767
0.000220687
0.000218386
0.000213549
0.000182283
0.000211639
0.000211475
0.000184426
0.000184293
0.000213328
0.000182092
0.00021174
0.000211802
0.000184467
0.0001845
0.000211521
0.000184241
0.000184309
0.000213655
0.000182336
0.000211654
0.00018447
0.000184375
0.000182199
0.000177319
0.000146842
0.000175354
0.000175246
0.000148736
0.000148778
0.000177145
0.000146929
0.000175378
0.000175412
0.000148705
0.000148721
0.000175288
0.000148791
0.000148833
0.000177378
0.000146825
0.000175347
0.000148743
0.000148807
0.000146918
0.000142066
0.000111697
0.000140034
0.000140095
0.000113714
0.000113706
0.000142155
0.000111686
0.000139993
0.000139994
0.000113677
0.00011362
0.000140122
0.000113687
0.000113657
0.00014204
0.000111589
0.000140074
0.000113584
0.0001136
0.000111603
0.000106784
7.52777e-05
0.00010479
0.00010476
7.74e-05
7.73853e-05
0.000106765
7.5272e-05
0.000104755
0.000104668
7.7378e-05
7.72732e-05
0.000104666
7.73607e-05
7.72132e-05
0.000106659
7.51259e-05
0.000104608
7.72173e-05
7.71662e-05
7.50596e-05
7.02067e-05
3.92699e-05
6.82219e-05
6.82257e-05
4.11584e-05
4.12146e-05
7.02076e-05
3.93342e-05
6.82081e-05
6.81e-05
4.11991e-05
4.13223e-05
6.80553e-05
4.1272e-05
4.13582e-05
7.00529e-05
3.94592e-05
6.80209e-05
4.14021e-05
4.14216e-05
3.94915e-05
3.44557e-05
8.24503e-06
3.25891e-05
3.26426e-05
1.12063e-05
1.12464e-05
3.45086e-05
8.26816e-06
3.26466e-05
3.27824e-05
1.12579e-05
1.14164e-05
3.28167e-05
1.12998e-05
1.14465e-05
3.46509e-05
8.44059e-06
3.29007e-05
1.14703e-05
1.15004e-05
8.47378e-06
5.11721e-06
6.9046e-06
6.94018e-06
5.10674e-06
6.92971e-06
7.07534e-06
5.93157e-06
6.04236e-06
6.04531e-06
7.0615e-06
5.23901e-06
7.08095e-06
0.00353048
0.00353306
0.00353175
0.00353194
0.00355886
0.00353286
0.00356247
0.0035333
0.0035595
0.00353302
0.00353323
0.0035626
0.00354403
0.00356579
0.00356574
0.0035031
0.0035167
0.00352068
0.00349537
0.00349361
0.00349888
0.00350312
0.00351664
0.00352061
0.00349546
0.00351906
0.00351903
0.00351905
0.00349263
0.0034927
0.00349264
0.00349263
0.00350277
0.00351441
0.00351959
0.00351038
0.00352172
0.00349999
0.00351058
0.00349364
0.00349889
0.00350289
0.00351963
0.00351439
0.00351023
0.00352176
0.00351061
0.0034999
0.00352047
0.00352038
0.00350758
0.00349988
0.00349986
0.00347556
0.00348983
0.0034897
0.0034736
0.00348718
0.00347266
0.0034756
0.00348986
0.0034897
0.00347361
0.00348364
0.00348357
0.00348359
0.00345521
0.00345529
0.00345521
0.00345523
0.00347337
0.00348838
0.00348211
0.00347269
0.00348684
0.0034739
0.00347267
0.00348709
0.00347265
0.00347341
0.00348207
0.00348838
0.00347265
0.00348679
0.00347263
0.00347392
0.00349
0.00349009
0.0034711
0.00347426
0.00347425
0.00343315
0.00344784
0.00344882
0.00343182
0.00344668
0.00343098
0.00343318
0.00344782
0.00344869
0.00343185
0.00344522
0.00344514
0.00344515
0.00341263
0.00341269
0.00341263
0.00341264
0.00343187
0.00344742
0.00344331
0.00343285
0.0034464
0.00343235
0.00343284
0.00344673
0.00343086
0.00343188
0.00344323
0.00344746
0.00343279
0.00344636
0.00343278
0.00343231
0.00344807
0.00344812
0.00343016
0.00343216
0.00343216
0.00338683
0.00340328
0.00340476
0.00338543
0.00340254
0.00338496
0.00338687
0.00340322
0.00340465
0.00338542
0.00340115
0.0034011
0.00340111
0.00336522
0.00336526
0.00336522
0.00336523
0.003386
0.00340308
0.00339941
0.0033877
0.00340251
0.00338617
0.00338772
0.0034025
0.00338489
0.00338605
0.00339943
0.00340312
0.00338773
0.0034025
0.00338772
0.00338608
0.00340333
0.00340331
0.00338442
0.00338559
0.00338563
0.00333795
0.00335508
0.00335641
0.00333674
0.00335468
0.00333645
0.00333794
0.00335508
0.00335639
0.00333674
0.00335307
0.00335303
0.00335304
0.00331636
0.0033164
0.00331635
0.00331636
0.00333754
0.00335511
0.00335164
0.00333938
0.00335473
0.00333748
0.00333945
0.00335463
0.00333642
0.00333756
0.00335159
0.00335507
0.00333944
0.00335471
0.00333942
0.00333746
0.00335512
0.00335514
0.00333603
0.00333687
0.00333687
0.0032888
0.00330615
0.00330721
0.00328796
0.00330588
0.00328773
0.00328884
0.00330613
0.00330713
0.00328798
0.00330419
0.00330417
0.00330417
0.00326789
0.00326792
0.0032679
0.0032679
0.00328877
0.00330619
0.00330291