/*--------------------------------*- C++ -*----------------------------------*\
| =========                 |                                                 |
| \\      /  F ield         | OpenFOAM: The Open Source CFD Toolbox           |
|  \\    /   O peration     | Version:  v2012                                 |
|   \\  /    A nd           | Website:  www.openfoam.com                      |
|    \\/     M anipulation  |                                                 |
\*---------------------------------------------------------------------------*/
FoamFile
{
    version     2.0;
    format      ascii;
    class       volScalarField;
    location    "1412.5";
    object      nut;
}
// * * * * * * * * * * * * * * * * * * * * * * * * * * * * * * * * * * * * * //

dimensions      [0 2 -1 0 0 0 0];


internalField   nonuniform List<scalar> 
171728
(
1.64711e-06
1.73293e-06
2.09302e-06
2.26431e-06
1.67315e-06
1.7379e-06
2.03107e-06
2.22704e-06
1.65924e-06
1.76104e-06
1.88959e-06
2.18303e-06
1.64034e-06
1.77025e-06
1.74721e-06
2.15441e-06
1.61481e-06
1.75582e-06
1.66954e-06
2.17264e-06
1.57708e-06
1.70979e-06
1.65227e-06
2.24336e-06
1.56364e-06
1.66289e-06
1.64144e-06
2.34599e-06
1.55965e-06
1.62098e-06
1.60371e-06
2.38215e-06
1.54571e-06
1.56943e-06
1.54557e-06
2.41292e-06
1.51022e-06
1.5104e-06
1.47877e-06
2.0881e-06
1.51269e-06
1.44407e-06
1.42265e-06
1.77681e-06
1.5338e-06
1.37079e-06
1.3664e-06
1.53358e-06
1.54332e-06
1.28919e-06
1.26012e-06
1.35161e-06
1.5414e-06
1.20377e-06
1.13554e-06
1.22041e-06
1.54119e-06
1.1105e-06
1.03382e-06
1.18377e-06
1.54511e-06
1.02305e-06
9.60561e-07
1.12502e-06
1.55169e-06
9.5557e-07
9.23472e-07
1.48106e-06
1.58727e-06
9.23125e-07
9.03821e-07
2.1656e-06
1.61829e-06
9.29771e-07
9.39804e-07
2.4675e-06
1.61815e-06
1.04537e-06
1.04799e-06
2.57012e-06
1.63669e-06
1.22775e-06
1.20866e-06
2.16368e-06
1.64303e-06
1.51915e-06
1.59231e-06
2.41613e-06
1.58083e-06
2.07256e-06
2.176e-06
4.18394e-06
1.51709e-06
2.75539e-06
2.79733e-06
5.33118e-06
1.41009e-06
3.87525e-06
3.94482e-06
8.45216e-06
1.38232e-06
5.07615e-06
5.26871e-06
1.16725e-05
1.14221e-06
7.14296e-06
7.26017e-06
1.92378e-05
1.24541e-06
8.57214e-06
8.75419e-06
2.30529e-05
1.17806e-06
1.18993e-05
1.29064e-05
2.94808e-05
8.88438e-07
1.47435e-05
1.46178e-05
4.00095e-05
1.2871e-06
1.81758e-05
1.7929e-05
4.50101e-05
1.25214e-06
2.14621e-05
2.39606e-05
4.9993e-05
1.45024e-06
2.65071e-05
2.50915e-05
5.95173e-05
2.02316e-06
2.98185e-05
3.04231e-05
6.57859e-05
2.62917e-06
3.73571e-05
3.80525e-05
6.84373e-05
3.30542e-06
3.95834e-05
3.87783e-05
7.46999e-05
4.00313e-06
4.94497e-05
4.76986e-05
7.89535e-05
5.93709e-06
4.98676e-05
5.50181e-05
8.40948e-05
6.08141e-06
6.09092e-05
5.53506e-05
8.64162e-05
9.5173e-06
6.44299e-05
6.74498e-05
9.27496e-05
1.17171e-05
7.04212e-05
6.80719e-05
9.44546e-05
1.18557e-05
7.81269e-05
7.80545e-05
0.000100441
1.86611e-05
7.79019e-05
8.44186e-05
0.000103486
1.8035e-05
9.33919e-05
8.23505e-05
0.000103939
2.66366e-05
9.83977e-05
0.000101867
0.000115141
3.15796e-05
9.54054e-05
0.000102919
0.000112689
2.88134e-05
0.000103826
9.80336e-05
0.000114396
4.13293e-05
0.00011831
0.000113014
0.000125777
5.0716e-05
0.00011868
0.000120392
0.000127213
4.81744e-05
0.000116161
0.000122787
0.000126696
5.74195e-05
0.00012537
0.000121615
0.000130449
5.79139e-05
0.000128788
0.000129324
0.00013664
7.30006e-05
0.000138573
0.000139156
0.0001373
8.70332e-05
0.000141062
0.0001394
0.000141619
8.67616e-05
0.000139656
0.000142502
0.000146795
8.60293e-05
0.000149499
0.000150471
0.000146827
0.000104673
0.000149957
0.000150332
0.000146602
0.000104517
0.000155673
0.000153032
0.000155213
0.00011034
0.000162203
0.000162945
0.000157851
0.000125278
0.000162552
0.000164132
0.000155779
0.000125407
0.000163843
0.000166728
0.00016025
0.000130909
0.000172341
0.000172061
0.000166145
0.000142586
0.000176385
0.000171575
0.000164986
0.000142227
0.000175238
0.000172125
0.000161811
0.000149756
0.000179316
0.000185546
0.000174147
0.000159682
0.000188173
0.000189356
0.000178244
0.000166938
0.00018675
0.000185624
0.000173188
0.000166557
0.000184234
0.000183702
0.00017103
0.000165791
0.000192751
0.000192671
0.000176629
0.00017957
0.000196901
0.000195696
0.000183209
0.000187515
0.000196966
0.000197258
0.000186726
0.000189566
0.000201235
0.000202369
0.000184889
0.000194789
0.000202427
0.000202915
0.000180428
0.000199828
0.000201813
0.00020189
0.000183252
0.000199731
0.000207967
0.000206672
0.000192119
0.000206581
0.000210648
0.00021093
0.0001938
0.000216633
0.000211504
0.000210774
0.000189024
0.000217004
0.000211171
0.000209454
0.000186777
0.000213915
0.000211177
0.000216393
0.000195012
0.000218604
0.000219196
0.000221257
0.000200755
0.000230635
0.000222845
0.000219865
0.000197315
0.000234066
0.000216209
0.000213309
0.000188949
0.000228353
0.00021284
0.000213656
0.000190734
0.000226465
0.000225613
0.000227502
0.000205642
0.00024097
0.000231213
0.000231752
0.000208414
0.000246573
0.00022208
0.000221604
0.000194399
0.000240211
0.000218199
0.000218712
0.000190515
0.000235657
0.000224225
0.000223328
0.000200533
0.000237692
0.000229136
0.000228276
0.000204424
0.000252402
0.000229869
0.000230663
0.000203628
0.000259859
0.000231852
0.000227049
0.000202382
0.000244402
0.000222342
0.00022206
0.000195921
0.000237783
0.000217393
0.000226348
0.000195677
0.000251637
0.000231439
0.000232117
0.000205487
0.00026374
0.000239451
0.000231162
0.000209647
2.29603e-06
2.34716e-06
2.23006e-06
2.33423e-06
2.00658e-06
2.1593e-06
1.62018e-06
1.55979e-06
1.55414e-06
1.50531e-06
2.09692e-06
2.13433e-06
2.33395e-06
2.30459e-06
2.21944e-06
2.26132e-06
2.29132e-06
2.23696e-06
1.95524e-06
3.07786e-06
1.91519e-06
2.25172e-06
2.32905e-06
2.28925e-06
1.66072e-06
2.14365e-06
1.65763e-06
1.76703e-06
1.87687e-06
1.73292e-06
1.87357e-06
2.33122e-06
2.25769e-06
1.8747e-06
2.05254e-06
1.87251e-06
2.22915e-06
2.23508e-06
2.18754e-06
1.90815e-06
2.06227e-06
1.89212e-06
1.77622e-06
2.28351e-06
2.26443e-06
1.66324e-06
1.7262e-06
1.6905e-06
1.69336e-06
1.88355e-06
1.75489e-06
1.9425e-06
2.25518e-06
2.19188e-06
1.8594e-06
1.92923e-06
1.81299e-06
2.18865e-06
2.18623e-06
2.15317e-06
1.89062e-06
1.74506e-06
1.89937e-06
1.73979e-06
2.26002e-06
2.21233e-06
1.69916e-06
1.69394e-06
1.71937e-06
1.70869e-06
1.96541e-06
1.76954e-06
2.07486e-06
2.18832e-06
2.1114e-06
1.79813e-06
1.77866e-06
1.7573e-06
2.15641e-06
2.15127e-06
2.125e-06
1.90767e-06
1.74883e-06
1.95824e-06
1.78713e-06
2.20778e-06
2.15772e-06
1.72525e-06
1.71273e-06
1.74667e-06
1.72561e-06
2.11955e-06
1.7629e-06
2.28475e-06
2.1085e-06
2.05085e-06
1.74363e-06
1.68212e-06
1.69651e-06
2.16789e-06
2.12478e-06
2.12274e-06
1.99847e-06
1.80113e-06
2.1108e-06
1.83526e-06
2.15334e-06
2.10788e-06
1.75423e-06
1.7291e-06
1.76546e-06
1.731e-06
2.3472e-06
1.72113e-06
2.56078e-06
2.04784e-06
2.00928e-06
1.67679e-06
1.65381e-06
1.59718e-06
2.24155e-06
2.12303e-06
2.15337e-06
2.1461e-06
1.84274e-06
2.27537e-06
1.86351e-06
2.10518e-06
2.07012e-06
1.76495e-06
1.73211e-06
1.75337e-06
1.72535e-06
2.66043e-06
1.67311e-06
3.07316e-06
2.00898e-06
1.98964e-06
1.56585e-06
1.64574e-06
1.46737e-06
2.35175e-06
2.15419e-06
2.16608e-06
2.32545e-06
1.87016e-06
2.46711e-06
1.89035e-06
2.06819e-06
2.04463e-06
1.74747e-06
1.72284e-06
1.73292e-06
1.7197e-06
3.2468e-06
1.63096e-06
3.89783e-06
1.98999e-06
1.97712e-06
1.43281e-06
1.61612e-06
1.32197e-06
2.39711e-06
2.16068e-06
2.11207e-06
2.46748e-06
1.89709e-06
2.38469e-06
1.90682e-06
2.04299e-06
2.02844e-06
1.72843e-06
1.71844e-06
1.7093e-06
1.71286e-06
4.13512e-06
1.58118e-06
4.76093e-06
1.97635e-06
1.95197e-06
1.28634e-06
1.55978e-06
1.1905e-06
2.41618e-06
2.1024e-06
2.02062e-06
2.32545e-06
1.91084e-06
2.1054e-06
1.90804e-06
2.02597e-06
2.00827e-06
1.70155e-06
1.70525e-06
1.66885e-06
1.68053e-06
4.93491e-06
1.52571e-06
4.49347e-06
1.94776e-06
1.89269e-06
1.15878e-06
1.49629e-06
1.07656e-06
2.13068e-06
2.00969e-06
1.91975e-06
2.02808e-06
1.8997e-06
1.80667e-06
1.86368e-06
2.00342e-06
1.95797e-06
1.65591e-06
1.67172e-06
1.60498e-06
1.64053e-06
4.07902e-06
1.4605e-06
2.89565e-06
1.88441e-06
1.81193e-06
1.05354e-06
1.43497e-06
9.93433e-07
1.79852e-06
1.90846e-06
1.80871e-06
1.73894e-06
1.84125e-06
1.55514e-06
1.76059e-06
1.94988e-06
1.87465e-06
1.58617e-06
1.6344e-06
1.52443e-06
1.59937e-06
2.57401e-06
1.38726e-06
1.89096e-06
1.80294e-06
1.72601e-06
9.78135e-07
1.38475e-06
9.24736e-07
1.55465e-06
1.79754e-06
1.7e-06
1.50861e-06
1.73425e-06
1.42627e-06
1.63774e-06
1.8629e-06
1.76764e-06
1.50235e-06
1.58514e-06
1.43825e-06
1.53544e-06
1.74875e-06
1.30688e-06
1.47602e-06
1.7149e-06
1.62707e-06
9.08058e-07
1.28795e-06
8.44715e-07
1.36673e-06
1.68587e-06
1.58475e-06
1.40581e-06
1.59404e-06
1.34161e-06
1.44565e-06
1.75139e-06
1.63195e-06
1.421e-06
1.52202e-06
1.34784e-06
1.48353e-06
1.43052e-06
1.22122e-06
1.33668e-06
1.61232e-06
1.50998e-06
8.33194e-07
1.16561e-06
7.98312e-07
1.23856e-06
1.56616e-06
1.47567e-06
1.31779e-06
1.39329e-06
1.22846e-06
1.24273e-06
1.61029e-06
1.46674e-06
1.32949e-06
1.47366e-06
1.26201e-06
1.43673e-06
1.31756e-06
1.12948e-06
1.22467e-06
1.49153e-06
1.39716e-06
7.68841e-07
1.05741e-06
8.52567e-07
1.19005e-06
1.45277e-06
1.36343e-06
1.20439e-06
1.20193e-06
1.13712e-06
1.0713e-06
1.43977e-06
1.29907e-06
1.23723e-06
1.41619e-06
1.17421e-06
1.36267e-06
1.20433e-06
1.04086e-06
1.18349e-06
1.37556e-06
1.28905e-06
9.24134e-07
9.79857e-07
1.00923e-06
1.14321e-06
1.34032e-06
1.2699e-06
1.11982e-06
1.0303e-06
1.0813e-06
9.3574e-07
1.26949e-06
1.16082e-06
1.15166e-06
1.33816e-06
1.10634e-06
1.29113e-06
1.1522e-06
9.66918e-07
1.04382e-06
1.26498e-06
1.19924e-06
1.03408e-06
9.31439e-07
1.54454e-06
1.35496e-06
1.24792e-06
1.1952e-06
1.06078e-06
9.04131e-07
1.05448e-06
8.599e-07
1.13467e-06
1.07228e-06
1.08232e-06
1.26899e-06
1.07001e-06
1.25082e-06
1.05945e-06
9.33885e-07
1.06581e-06
1.17791e-06
1.14111e-06
1.90259e-06
9.04823e-07
3.47843e-06
2.06407e-06
1.18868e-06
1.20288e-06
1.04627e-06
8.48132e-07
1.07418e-06
8.50484e-07
1.05474e-06
1.05004e-06
1.0653e-06
1.24402e-06
1.0797e-06
1.24581e-06
1.06334e-06
9.40485e-07
1.0587e-06
1.13483e-06
1.12169e-06
4.14987e-06
9.24892e-07
5.51635e-06
2.44645e-06
1.20773e-06
1.32442e-06
1.09303e-06
8.48035e-07
1.17376e-06
9.19332e-07
1.05061e-06
1.11647e-06
1.10359e-06
1.26602e-06
1.1491e-06
1.30074e-06
1.08183e-06
1.00974e-06
1.19291e-06
1.13629e-06
1.24457e-06
5.72362e-06
1.00708e-06
5.97419e-06
2.62217e-06
1.36132e-06
1.62252e-06
1.24199e-06
9.5849e-07
1.35697e-06
1.05853e-06
1.1887e-06
1.37734e-06
1.18678e-06
1.33325e-06
1.32327e-06
1.42503e-06
1.18976e-06
1.16305e-06
1.40163e-06
1.27105e-06
1.49482e-06
5.89058e-06
1.15722e-06
4.50436e-06
2.26349e-06
1.7355e-06
2.2438e-06
1.4492e-06
1.1357e-06
1.7512e-06
1.30372e-06
1.45274e-06
1.86297e-06
1.36123e-06
1.46968e-06
1.69607e-06
1.79445e-06
1.4363e-06
1.38393e-06
1.57293e-06
1.57244e-06
2.27228e-06
3.73559e-06
1.52471e-06
2.77594e-06
2.09779e-06
2.40273e-06
3.32903e-06
1.8582e-06
1.42788e-06
2.2075e-06
1.84541e-06
1.9978e-06
3.35081e-06
1.73611e-06
1.83323e-06
2.12108e-06
2.22673e-06
1.79338e-06
1.95102e-06
2.26241e-06
2.45719e-06
2.93293e-06
2.88667e-06
1.94593e-06
3.2422e-06
4.03803e-06
3.60864e-06
5.25494e-06
2.49492e-06
1.97827e-06
3.03183e-06
2.53675e-06
3.59814e-06
4.75479e-06
2.347e-06
2.47004e-06
2.78263e-06
2.9414e-06
2.48515e-06
2.58432e-06
3.13551e-06
3.30854e-06
5.32746e-06
3.2139e-06
2.61113e-06
3.18334e-06
4.98553e-06
5.62892e-06
7.78271e-06
3.19343e-06
2.69925e-06
4.08523e-06
3.38248e-06
5.13082e-06
7.30864e-06
3.00994e-06
3.15457e-06
3.88656e-06
3.99166e-06
3.10951e-06
3.46559e-06
4.17073e-06
5.47683e-06
7.66606e-06
3.10484e-06
3.67288e-06
3.56089e-06
7.41123e-06
8.48491e-06
1.21279e-05
4.41459e-06
3.7684e-06
5.71672e-06
5.1547e-06
8.16232e-06
1.19129e-05
4.10213e-06
4.26562e-06
5.29292e-06
5.21538e-06
4.77662e-06
4.96878e-06
5.31798e-06
8.51885e-06
1.11492e-05
4.13228e-06
4.7886e-06
4.54993e-06
1.16982e-05
1.35104e-05
1.69963e-05
6.28198e-06
5.24071e-06
7.15898e-06
6.08245e-06
1.24397e-05
1.52701e-05
5.9663e-06
5.64694e-06
7.16769e-06
7.30482e-06
5.13999e-06
6.2431e-06
7.20683e-06
1.19846e-05
1.77489e-05
4.69732e-06
7.0539e-06
6.77941e-06
1.69228e-05
1.6786e-05
2.29252e-05
6.84915e-06
7.05599e-06
1.02169e-05
8.861e-06
1.66091e-05
2.43815e-05
7.03191e-06
7.46532e-06
8.93799e-06
7.69031e-06
8.06529e-06
8.73943e-06
8.54668e-06
1.87389e-05
1.98493e-05
7.33546e-06
7.92324e-06
8.31558e-06
2.30219e-05
2.8823e-05
3.85898e-05
1.26225e-05
8.80659e-06
1.43239e-05
1.13642e-05
2.50077e-05
2.69388e-05
1.09443e-05
8.63708e-06
1.36485e-05
1.23303e-05
8.74402e-06
1.115e-05
1.05858e-05
2.08537e-05
3.22782e-05
8.72346e-06
1.24106e-05
1.0536e-05
2.71404e-05
3.79272e-05
2.98136e-05
1.34846e-05
1.20643e-05
1.13425e-05
1.38231e-05
2.94558e-05
3.81449e-05
1.36556e-05
1.29877e-05
1.25397e-05
1.29531e-05
1.1437e-05
1.35304e-05
1.49444e-05
3.43957e-05
3.54565e-05
1.13495e-05
1.34879e-05
1.43561e-05
3.85572e-05
3.17836e-05
4.77912e-05
1.18082e-05
1.5058e-05
1.99607e-05
1.73053e-05
3.87562e-05
4.43776e-05
1.30443e-05
1.37855e-05
1.89478e-05
1.70421e-05
1.59823e-05
1.76034e-05
1.70369e-05
3.55137e-05
4.33763e-05
1.52724e-05
1.7071e-05
1.67869e-05
4.40508e-05
4.95134e-05
5.07353e-05
2.13329e-05
1.78479e-05
2.12566e-05
2.08987e-05
4.61984e-05
4.9342e-05
1.97591e-05
1.7985e-05
2.08139e-05
2.19223e-05
1.79878e-05
2.02006e-05
2.10027e-05
4.58078e-05
5.21756e-05
1.76396e-05
2.22366e-05
2.16186e-05
4.89021e-05
5.12001e-05
5.63954e-05
2.184e-05
2.24041e-05
2.47844e-05
2.61824e-05
5.04995e-05
5.83133e-05
2.22889e-05
2.33857e-05
2.54063e-05
2.398e-05
2.13979e-05
2.5787e-05
2.44724e-05
5.33644e-05
5.61486e-05
2.17107e-05
2.54503e-05
2.39851e-05
5.75075e-05
5.78532e-05
6.23546e-05
2.50503e-05
2.65325e-05
2.90392e-05
2.83943e-05
5.95052e-05
6.13974e-05
2.54515e-05
2.38759e-05
2.87828e-05
2.90972e-05
2.63064e-05
2.85162e-05
3.19992e-05
5.65346e-05
6.09709e-05
2.61755e-05
2.84099e-05
3.38489e-05
6.48382e-05
6.38998e-05
6.95335e-05
3.15262e-05
2.99078e-05
3.55352e-05
3.64122e-05
6.27952e-05
6.91579e-05
3.16799e-05
3.1295e-05
3.59607e-05
3.65681e-05
3.29234e-05
3.61125e-05
3.20901e-05
6.32834e-05
7.0685e-05
3.52509e-05
3.62345e-05
3.57974e-05
6.76979e-05
7.03098e-05
7.23738e-05
3.57611e-05
3.79626e-05
3.87161e-05
3.79863e-05
7.00987e-05
7.28993e-05
3.63338e-05
3.79096e-05
4.07202e-05
3.8151e-05
3.38042e-05
3.7898e-05
4.11896e-05
7.14236e-05
7.19186e-05
3.68067e-05
3.93809e-05
3.92585e-05
7.34163e-05
7.33312e-05
7.8134e-05
4.0631e-05
3.95394e-05
4.49794e-05
4.77166e-05
7.41922e-05
7.89855e-05
4.18774e-05
3.78599e-05
4.41725e-05
4.56331e-05
4.20682e-05
4.7195e-05
4.44574e-05
7.22926e-05
7.83285e-05
3.95943e-05
4.45929e-05
4.46448e-05
7.77608e-05
7.93866e-05
8.28031e-05
4.66499e-05
5.0192e-05
5.25795e-05
5.26855e-05
8.00293e-05
8.19659e-05
4.60913e-05
4.89262e-05
5.26271e-05
5.45631e-05
4.62232e-05
5.01957e-05
5.27707e-05
8.02179e-05
8.3541e-05
4.75701e-05
5.43453e-05
5.52901e-05
8.34273e-05
8.34918e-05
8.52611e-05
5.3224e-05
5.19466e-05
5.52515e-05
5.72857e-05
8.2742e-05
8.76165e-05
5.36603e-05
5.54595e-05
5.45586e-05
5.3627e-05
5.3204e-05
5.7765e-05
5.49204e-05
8.39274e-05
8.48873e-05
5.64073e-05
5.37347e-05
5.54595e-05
8.55195e-05
8.6182e-05
9.17826e-05
5.69147e-05
6.05475e-05
6.39071e-05
6.56315e-05
8.89041e-05
9.07462e-05
5.5888e-05
5.30118e-05
6.44262e-05
6.51349e-05
5.72982e-05
6.49088e-05
6.45479e-05
8.5787e-05
9.20226e-05
5.70743e-05
6.50434e-05
6.47222e-05
9.18364e-05
9.29255e-05
9.47658e-05
6.64252e-05
6.55252e-05
7.0534e-05
6.56327e-05
9.11053e-05
9.36863e-05
6.71828e-05
6.83283e-05
7.20909e-05
7.33986e-05
6.66442e-05
6.77044e-05
6.90478e-05
9.29266e-05
9.4611e-05
6.69986e-05
6.84464e-05
6.89989e-05
9.41144e-05
9.49486e-05
9.70866e-05
6.99393e-05
6.83699e-05
7.26522e-05
7.79988e-05
9.50581e-05
9.95492e-05
7.1834e-05
7.35883e-05
7.09747e-05
7.2882e-05
6.88802e-05
7.65868e-05
7.43815e-05
9.5427e-05
9.86482e-05
6.8701e-05
7.51223e-05
7.44415e-05
9.87781e-05
9.8934e-05
0.000103686
7.63944e-05
8.06267e-05
8.47422e-05
8.30858e-05
0.000100189
0.000100494
7.46603e-05
7.49443e-05
8.40105e-05
8.1548e-05
7.75691e-05
7.79745e-05
8.45004e-05
9.95093e-05
0.000101316
7.77291e-05
8.36401e-05
8.45942e-05
0.00010338
0.000104013
0.000103474
8.58729e-05
8.17297e-05
8.34255e-05
8.95671e-05
0.000100606
0.00010956
8.55784e-05
8.16011e-05
8.37417e-05
8.06078e-05
8.54212e-05
8.90862e-05
8.25222e-05
0.000101485
0.000103456
8.54777e-05
8.15356e-05
8.2663e-05
0.000102687
0.000104194
0.000113227
8.36266e-05
9.4513e-05
9.71009e-05
9.84826e-05
0.000111698
0.000111948
8.33896e-05
8.66333e-05
9.65915e-05
0.000103224
8.26483e-05
9.84397e-05
9.76346e-05
0.000105525
0.000116651
8.24319e-05
9.88679e-05
9.73833e-05
0.000114458
0.000114124
0.000113881
9.94863e-05
9.78878e-05
0.000100991
9.46133e-05
0.000111525
0.000107229
9.96282e-05
0.00010517
0.000102227
0.000104905
0.00010031
9.69898e-05
0.000101669
0.0001172
0.000114335
0.000100281
0.00010329
0.000101924
0.000113205
0.000113544
0.000113137
0.000100759
9.22317e-05
9.71141e-05
9.45257e-05
0.000107278
0.000116447
0.000102124
0.000102982
9.86171e-05
9.92662e-05
0.000101322
9.64313e-05
9.77813e-05
0.000113963
0.000112238
0.000101623
9.98673e-05
9.82904e-05
0.000113187
0.000114244
0.000124264
9.78245e-05
0.000104391
0.00011373
0.000121273
0.00012027
0.00012747
9.81554e-05
9.69527e-05
0.000111476
0.000105335
9.77265e-05
0.000117104
0.000112783
0.000112486
0.000121175
9.76517e-05
0.000107597
0.000111632
0.000124574
0.000125145
0.00012572
0.000116546
0.000122888
0.000119403
0.000123116
0.000127615
0.000126708
0.000114731
0.000111956
0.000118263
0.000123845
0.000116137
0.000118748
0.000120038
0.000123575
0.000129256
0.000115497
0.000119834
0.000120389
0.00012721
0.000125612
0.000126367
0.000119343
0.00012211
0.000117546
0.000118337
0.000126638
0.000125385
0.000117679
0.000125349
0.000118932
0.000126154
0.00012017
0.000116631
0.000118735
0.000129699
0.000130478
0.000120621
0.000122201
0.000119598
0.000126678
0.000127267
0.000130253
0.000117992
0.000117043
0.000123869
0.00012074
0.000125328
0.000130018
0.000121025
0.000125835
0.000123999
0.000123172
0.00011832
0.000124231
0.000121521
0.000130445
0.000128521
0.000118869
0.000122543
0.000120322
0.000129428
0.000130301
0.000131989
0.000124074
0.00012371
0.000125097
0.000129276
0.000131077
0.000134446
0.000123538
0.00012194
0.000123526
0.000120462
0.000123612
0.000126965
0.000130468
0.00012807
0.000131775
0.00012296
0.000125132
0.000130875
0.000135923
0.000133589
0.000141566
0.000127859
0.000131452
0.000138021
0.000138683
0.000135482
0.000141015
0.000127094
0.000125906
0.000138052
0.00013809
0.000131834
0.000136717
0.000133612
0.000134067
0.000141313
0.000132698
0.000138009
0.000133259
0.000137218
0.000142293
0.000142611
0.000140111
0.000140146
0.000141877
0.00014154
0.000141625
0.000142225
0.000140132
0.000139914
0.000141949
0.000141461
0.000134144
0.00014104
0.000137515
0.000141722
0.000141566
0.000133465
0.00013993
0.000137208
0.000140569
0.000142536
0.000141005
0.000141855
0.000141488
0.000139959
0.000139497
0.000142101
0.000141203
0.000141882
0.000141268
0.000139851
0.00013928
0.000139403
0.000139209
0.000144946
0.000141309
0.000142079
0.000139217
0.000139202
0.000145536
0.000146312
0.000141183
0.000148291
0.000139116
0.000139098
0.000146561
0.00014703
0.000141703
0.000148005
0.000139212
0.000139656
0.000147275
0.000148465
0.000146219
0.000147859
0.000147637
0.000143219
0.00014885
0.000146952
0.000149536
0.000148388
0.000146951
0.00014924
0.000150259
0.000149221
0.00014909
0.0001524
0.000150791
0.000148563
0.000148779
0.000149745
0.000150452
0.000152811
0.000152678
0.000147222
0.0001506
0.000146555
0.000149265
0.00014938
0.000148341
0.0001509
0.000146901
0.000145962
0.000150071
0.000149589
0.000152336
0.000150244
0.000150832
0.000152911
0.000148527
0.000151894
0.000152825
0.000152628
0.000151073
0.000151317
0.000148426
0.000152677
0.000155761
0.000149146
0.000149864
0.000146191
0.00014946
0.000153023
0.000153744
0.000150277
0.000156803
0.000152467
0.000155696
0.000160452
0.000161322
0.000153451
0.000156973
0.000150816
0.000151084
0.000158595
0.000157584
0.0001581
0.000161607
0.000161872
0.000150852
0.000156391
0.000156787
0.000161576
0.000163469
0.000157919
0.000157559
0.00015858
0.000162064
0.000161741
0.00016391
0.000162205
0.000157095
0.000157036
0.000161095
0.000159849
0.0001652
0.000164395
0.000162157
0.000162023
0.000161145
0.000157026
0.000158374
0.000163992
0.000164355
0.000163567
0.000156212
0.000158444
0.000158327
0.000163814
0.000162831
0.000162371
0.000163232
0.000157261
0.000158384
0.00016551
0.000165661
0.000164633
0.000169949
0.000160229
0.000163366
0.000163436
0.000158625
0.000162051
0.000163031
0.00016478
0.000161767
0.000158782
0.000159043
0.000164211
0.000163672
0.000163902
0.00017117
0.000170163
0.000158553
0.0001636
0.000165141
0.00017082
0.000170692
0.000171971
0.000166195
0.000169755
0.000173056
0.000162892
0.000164416
0.000164091
0.000171551
0.000172544
0.000165804
0.000164617
0.000165034
0.000172667
0.000172486
0.000174393
0.000175649
0.000164857
0.00016722
0.000171892
0.000171362
0.000173265
0.000169256
0.0001742
0.000176115
0.000174927
0.00016409
0.000161307
0.000173911
0.000171929
0.000174666
0.000165341
0.000164846
0.000166129
0.000174323
0.000175792
0.000173952
0.00017529
0.000167107
0.000165506
0.000173142
0.000168375
0.000172427
0.00016768
0.000174222
0.000175678
0.000172409
0.000160739
0.000163273
0.000173993
0.000170336
0.000171899
0.00016198
0.000167109
0.000170722
0.000175835
0.000174563
0.00017977
0.000176999
0.000165047
0.000168731
0.000174513
0.000172145
0.000180329
0.000183719
0.000170849
0.000174963
0.0001785
0.00016505
0.000174242
0.000170292
0.000182745
0.000179865
0.000172138
0.000170905
0.000173841
0.000180326
0.00018036
0.000184404
0.000186866
0.000170632
0.000176033
0.000181695
0.00018635
0.000186278
0.00018974
0.000183127
0.000187373
0.000189604
0.000175283
0.00017729
0.000184223
0.000188903
0.000189764
0.000178401
0.000174441
0.000175477
0.000185942
0.000187537
0.000187709
0.000187201
0.000176095
0.000173816
0.000187302
0.000190204
0.000188514
0.000187697
0.000190408
0.000187813
0.000188526
0.000177082
0.000173287
0.000190537
0.000186394
0.000187289
0.00017368
0.00017521
0.000173197
0.000187801
0.000186389
0.000186678
0.000184575
0.000173479
0.000172169
0.000188125
0.000186395
0.000186244
0.000184517
0.000186699
0.000184896
0.00018427
0.000172956
0.000171881
0.00018583
0.000183596
0.000183686
0.000171123
0.000172811
0.000176834
0.00018617
0.00018402
0.000188064
0.000191302
0.000172527
0.000179347
0.000185695
0.0001838
0.000187736
0.000189683
0.000183478
0.000190454
0.000185487
0.000172338
0.000178663
0.000182947
0.000191025
0.000187679
0.000175486
0.000178282
0.000181867
0.000191104
0.000193428
0.000196521
0.000196325
0.0001802
0.000181464
0.00019081
0.000191991
0.000196399
0.000195836
0.000188554
0.000196383
0.000196938
0.000179457
0.00018091
0.000189704
0.000195462
0.000195578
0.000182265
0.00018198
0.00018192
0.000197269
0.000196668
0.000197896
0.000196294
0.000181313
0.000180816
0.000197208
0.000196333
0.000197973
0.000196269
0.000199157
0.000196863
0.000202496
0.000180798
0.000180842
0.000197535
0.000195913
0.000201807
0.000186597
0.000181687
0.000183655
0.000197607
0.000196086
0.000198853
0.000199919
0.000180879
0.000184498
0.00019774
0.00019676
0.000198988
0.000200828
0.000203016
0.00020036
0.000202671
0.000181301
0.00018533
0.000202395
0.000201761
0.000203647
0.000185666
0.000184446
0.000186466
0.000200624
0.000201383
0.000203497
0.000203371
0.000184983
0.000185855
0.000200622
0.000201826
0.000203389
0.000203108
0.000200949
0.000202421
0.00019769
0.00018559
0.000185747
0.000203054
0.000203233
0.000199237
0.000180943
0.000186345
0.000185824
0.000203787
0.000203515
0.000203856
0.000203421
0.000185723
0.000185206
0.000203679
0.00020309
0.000203807
0.000202747
0.000197239
0.000201927
0.000196402
0.000185553
0.000184626
0.000198691
0.00020238
0.000197013
0.000181736
0.000185536
0.000185986
0.000203745
0.000203164
0.000202959
0.000204718
0.000185169
0.000188196
0.000203717
0.00020231
0.00020306
0.000204795
0.000200398
0.000206582
0.000210025
0.000184438
0.000187871
0.000198274
0.000204491
0.000207619
0.000191458
0.000186443
0.000191027
0.000203928
0.000206045
0.000209432
0.000209111
0.000188736
0.000190475
0.000204072
0.000206564
0.000209714
0.00021022
0.000211438
0.000210249
0.000214042
0.000188768
0.000191485
0.000209853
0.000210311
0.000212718
0.000194097
0.000191678
0.000194173
0.000211053
0.000210094
0.000213618
0.000212082
0.000190599
0.000191825
0.000211242
0.000210884
0.000213737
0.000211731
0.00021432
0.000211293
0.000209772
0.000191442
0.00019081
0.000213481
0.000211229
0.000211141
0.00018961
0.00019399
0.000190848
0.000214263
0.00021254
0.000212394
0.000212829
0.000191822
0.000191539
0.000214308
0.000211562
0.000211885
0.000211113
0.000208797
0.000211293
0.000207279
0.000190582
0.000189969
0.00020977
0.000210047
0.000208016
0.00018699
0.000190424
0.000189793
0.000211467
0.000212162
0.000210147
0.000211088
0.00019129
0.000190234
0.000211208
0.000210954
0.000209914
0.000212511
0.000206529
0.000210342
0.000212459
0.000189959
0.000193693
0.000206947
0.00021393
0.000212526
0.000193516
0.000190098
0.000194802
0.000209692
0.000210367
0.000214657
0.000215681
0.000190386
0.000196047
0.000210158
0.000213974
0.00021537
0.00021833
0.000215657
0.000217728
0.000221492
0.000194482
0.000197691
0.000216498
0.000220517
0.000222544
0.000200544
0.00019554
0.000198422
0.000216923
0.000217968
0.000220746
0.000221234
0.000196727
0.000199641
0.000217175
0.00021907
0.000220345
0.000220886
0.000222278
0.000221959
0.000224683
0.000197827
0.000198109
0.000223756
0.000222428
0.000224277
0.00019926
0.000198491
0.000197525
0.000221508
0.00022231
0.000222318
0.000219378
0.000199266
0.000194497
0.000221026
0.000221252
0.000221866
0.000217151
0.000221894
0.000217812
0.000213488
0.0001972
0.000192598
0.000220126
0.000213999
0.000211772
0.000189687
0.000196581
0.000193722
0.000220251
0.000217616
0.000217011
0.000215356
0.00019375
0.000191675
0.000220069
0.000216089
0.000217182
0.000214346
0.000212393
0.000213784
0.000209066
0.000192058
0.000191739
0.000210906
0.00021111
0.000207694
0.000188969
0.000193226
0.000196757
0.000216422
0.000214249
0.000217938
0.000221265
0.00019174
0.000200219
0.000216686
0.000214022
0.000217943
0.000222637
0.00021042
0.000222723
0.000226559
0.000192638
0.000201385
0.000211754
0.000225545
0.000228174
0.000204629
0.000197799
0.00020188
0.000220882
0.000224131
0.000226012
0.00022813
0.000201213
0.000204935
0.00022064
0.000224793
0.000225811
0.000227859
0.000229467
0.000229873
0.000234897
0.000202061
0.0002043
0.000230752
0.000231296
0.000236407
0.000210015
0.000201948
0.000202418
0.000226932
0.000229343
0.000228634
0.000225604
0.000204371
0.000198444
0.000226614
0.000228607
0.000228877
0.000225488
0.000236083
0.000224671
0.000223134
0.000203574
0.000198213
0.000237024
0.00022369
0.000222634
0.000195981
0.000201837
0.000198328
0.000227464
0.000223523
0.000223156
0.00022046
0.000197435
0.000195131
0.000228594
0.000224038
0.000223823
0.000221289
0.000219434
0.000218878
0.000215087
0.000197485
0.000195985
0.00021906
0.000219169
0.000214893
0.000190544
0.00019768
0.000195588
0.000221976
0.000220173
0.00022038
0.00022146
0.000194989
0.000198712
0.000222228
0.000221015
0.000219842
0.000220788
0.000213806
0.000221814
0.000221341
0.000195927
0.000198092
0.000213779
0.000221841
0.000221591
0.000199253
0.000195049
0.0001976
0.000220057
0.000223145
0.00022147
0.000226435
0.000199474
0.000202052
0.000219444
0.000221211
0.000220081
0.000225483
0.000224969
0.000228384
0.000230505
0.000198383
0.000201278
0.000224843
0.00022729
0.000229853
0.000204465
0.000198835
0.000205623
0.000224482
0.0002273
0.000231031
0.000229265
0.000202144
0.000202934
0.000223961
0.000227304
0.000231645
0.000229966
0.000231285
0.000229833
0.000231218
0.000201807
0.000204243
0.000230484
0.000229844
0.000230631
0.000203819
0.000205989
0.00020843
0.000231895
0.000229577
0.00023604
0.000231606
0.000202879
0.000205122
0.000232622
0.000230857
0.000237152
0.000231685
0.000230917
0.000231197
0.000230442
0.00020431
0.000202164
0.000230609
0.000229307
0.00023012
0.000203353
0.000206731
0.000196188
0.00023571
0.000232832
0.000223657
0.000225441
0.000204946
0.00019823
0.000235598
0.000228647
0.000222942
0.000222163
0.000229175
0.000224754
0.000222665
0.000200696
0.000195987
0.000228699
0.000222443
0.000222807
0.000196566
0.00019517
0.000192726
0.000221245
0.000222626
0.000217827
0.000218967
0.000196924
0.000192687
0.000220822
0.0002216
0.00021756
0.000221559
0.000221292
0.000219061
0.00021883
0.000195337
0.000199322
0.00022177
0.000223153
0.000219817
0.000194611
0.000193519
0.00020424
0.000217231
0.000217236
0.000229062
0.000228094
0.000192171
0.000203627
0.000217779
0.000225113
0.000229526
0.000231255
0.00021909
0.000228449
0.000230487
0.000200672
0.000205834
0.000221211
0.000231375
0.000230635
0.00020505
0.000204897
0.000209154
0.000231283
0.000231165
0.000239447
0.000240992
0.000204715
0.000211588
0.000231408
0.000232062
0.000238806
0.000235253
0.000232168
0.000241263
0.000239951
0.000205863
0.00020421
0.000231883
0.000234407
0.000238267
0.000208595
0.000210695
0.000237211
0.000239311
0.000213278
0.000236463
0.00023196
0.000266158
0.000259731
0.000264136
0.000236796
0.000205569
0.000235058
2.55877e-06
2.19921e-06
1.10784e-06
1.24846e-06
1.24905e-06
1.96956e-06
1.02841e-06
1.30951e-06
1.20946e-06
2.24575e-06
1.38799e-06
1.79044e-06
2.2663e-06
1.67467e-06
2.10351e-06
1.04009e-06
1.34215e-05
9.70671e-07
1.51989e-05
1.13999e-05
1.35436e-05
1.34796e-06
1.3348e-05
1.25154e-06
1.51176e-05
1.57473e-06
1.55259e-06
1.5241e-06
1.67506e-06
1.58926e-06
1.54544e-06
1.54277e-06
1.16734e-06
3.2876e-07
1.60385e-06
1.72627e-06
1.17076e-06
4.29144e-07
1.61001e-06
1.24439e-05
1.50326e-05
1.21422e-06
1.72005e-06
5.49073e-07
2.08927e-06
1.20067e-06
1.72208e-06
6.70361e-07
1.5081e-06
1.51006e-06
2.24785e-06
1.71585e-06
1.71713e-06
1.25534e-06
1.84332e-05
1.17248e-06
2.0995e-05
1.77891e-05
1.98947e-05
1.52951e-06
1.83476e-05
1.44148e-06
2.07788e-05
1.58774e-06
1.5495e-06
1.54186e-06
1.66225e-06
1.60645e-06
1.56252e-06
1.53595e-06
1.16875e-06