/*--------------------------------*- C++ -*----------------------------------*\
| =========                 |                                                 |
| \\      /  F ield         | OpenFOAM: The Open Source CFD Toolbox           |
|  \\    /   O peration     | Version:  v2012                                 |
|   \\  /    A nd           | Website:  www.openfoam.com                      |
|    \\/     M anipulation  |                                                 |
\*---------------------------------------------------------------------------*/
FoamFile
{
    version     2.0;
    format      ascii;
    class       volScalarField;
    location    "1412.5";
    object      p;
}
// * * * * * * * * * * * * * * * * * * * * * * * * * * * * * * * * * * * * * //

dimensions      [0 2 -2 0 0 0 0];


internalField   nonuniform List<scalar> 
171728
(
0.0035197
0.00351861
0.00351868
0.00351935
0.00348403
0.0034826
0.00348243
0.00348539
0.00344534
0.00344346
0.00344335
0.00344584
0.00340123
0.00339953
0.00339955
0.00340182
0.00335321
0.00335175
0.00335179
0.00335409
0.00330436
0.00330309
0.00330307
0.00330545
0.0032561
0.00325493
0.00325492
0.00325731
0.00320878
0.00320775
0.00320773
0.00321014
0.00316247
0.00316156
0.00316155
0.00316396
0.00311711
0.00311632
0.00311633
0.00311869
0.00307267
0.00307198
0.00307199
0.00307428
0.00302899
0.00302843
0.00302841
0.00303068
0.00298587
0.0029854
0.00298542
0.00298783
0.0029432
0.00294285
0.00294283
0.00294538
0.00290083
0.00290058
0.00290052
0.00290237
0.0028588
0.00285872
0.00285864
0.0028613
0.0028171
0.00281703
0.00281687
0.00281915
0.00277567
0.0027756
0.00277555
0.0027777
0.00273466
0.00273458
0.00273477
0.0027368
0.00269398
0.00269399
0.00269401
0.00269587
0.00265372
0.00265385
0.00265373
0.00265569
0.00261379
0.002614
0.00261396
0.0026158
0.00257402
0.00257423
0.00257429
0.00257583
0.00253458
0.00253487
0.00253478
0.0025363
0.0024953
0.00249572
0.00249569
0.00249757
0.00245644
0.00245672
0.00245677
0.00245819
0.00241761
0.00241826
0.00241809
0.00242014
0.00237931
0.00237963
0.00237973
0.00238121
0.00234065
0.0023413
0.00234129
0.00234345
0.00230268
0.00230328
0.00230329
0.0023051
0.00226472
0.00226533
0.00226535
0.00226713
0.00222683
0.0022275
0.00222747
0.00222946
0.00218917
0.00218986
0.00218992
0.00219164
0.00215172
0.00215232
0.00215238
0.00215428
0.00211419
0.00211492
0.00211479
0.00211665
0.00207704
0.00207763
0.00207773
0.00207959
0.00203989
0.00204044
0.00204043
0.0020423
0.00200285
0.00200347
0.00200337
0.00200532
0.00196618
0.00196641
0.00196661
0.00196847
0.00192924
0.00192979
0.0019296
0.0019316
0.00189264
0.00189287
0.00189306
0.00189508
0.00185628
0.00185647
0.00185627
0.0018583
0.00182012
0.00182048
0.00182041
0.00182232
0.00178381
0.00178348
0.00178412
0.00178618
0.00174731
0.00174741
0.00174698
0.00174915
0.0017118
0.00171231
0.00171174
0.00171393
0.00167624
0.00167576
0.00167649
0.00167839
0.00164068
0.00164028
0.00164025
0.0016422
0.00160459
0.0016047
0.00160437
0.00160667
0.00156862
0.00156863
0.00156859
0.00157087
0.00153335
0.00153314
0.00153342
0.00153515
0.00149843
0.00149802
0.00149797
0.00149999
0.00146331
0.00146275
0.0014628
0.00146502
0.00142783
0.00142776
0.00142785
0.0014297
0.00139249
0.00139248
0.00139234
0.00139422
0.00135788
0.00135731
0.00135729
0.00135941
0.00132274
0.00132275
0.00132284
0.00132493
0.00128794
0.00128764
0.00128769
0.00128945
0.00125357
0.00125289
0.00125291
0.00125468
0.00121859
0.00121861
0.00121862
0.0012207
0.00118368
0.00118368
0.0011834
0.00118559
0.00114908
0.00114862
0.00114859
0.00115032
0.00111451
0.0011142
0.00111462
0.00111627
0.00108018
0.0010802
0.00108027
0.00108246
0.00104572
0.00104553
0.00104521
0.00104716
0.0010112
0.00101066
0.00101061
0.00101239
0.000976521
0.000976576
0.000976673
0.000978554
0.000941867
0.000941974
0.000941964
0.000944003
0.000907262
0.000906867
0.000906894
0.000909021
0.000872872
0.000872736
0.000872795
0.00087455
0.000839015
0.00083882
0.000838803
0.000840437
0.000804301
0.00080403
0.000803992
0.000805942
0.000769131
0.000769196
0.000769159
0.000771379
0.000734741
0.000734884
0.000734916
0.000736931
0.000700761
0.000700377
0.000700423
0.000702167
0.000665717
0.00066543
0.00066532
0.000667129
0.000630618
0.000630706
0.000630784
0.000632809
0.000596557
0.000596713
0.000596873
0.000599042
0.000562283
0.000562265
0.000562006
0.000563939
0.000527071
0.000526543
0.000526403
0.0005282
0.000491396
0.000491172
0.000491349
0.000493255
0.000456747
0.000457181
0.000457388
0.000459478
0.000422765
0.000423147
0.000423037
0.000425174
0.000387938
0.000387225
0.000387062
0.000388895
0.00035187
0.000351354
0.000351445
0.000353082
0.000316281
0.000316747
0.000316791
0.000318997
0.000281492
0.000281997
0.000281878
0.000284271
0.000246843
0.000246442
0.000246535
0.000248302
0.000211837
0.000211189
0.000211282
0.000213012
0.000175561
0.000175846
0.000175551
0.000177763
0.000139364
0.000139502
0.000139812
0.00014177
0.000104487
0.000104342
0.000104621
0.000106477
6.95938e-05
6.97689e-05
6.90774e-05
7.13617e-05
3.40427e-05
3.32884e-05
3.3273e-05
3.50322e-05
5.55022e-06
6.24183e-06
6.8393e-06
4.61457e-06
0.00352414
0.00352171
0.00352163
0.00352405
0.00352172
0.00352187
0.00352807
0.00352802
0.00352821
0.00352804
0.00352155
0.00352171
0.00352428
0.00352173
0.00352176
0.00352415
0.00351937
0.00349021
0.00351861
0.00351862
0.00349213
0.00349216
0.00351933
0.00349021
0.00351867
0.00351898
0.00349204
0.00349195
0.00351861
0.00349204
0.00349202
0.00351951
0.00349018
0.00351861
0.00349212
0.00349212
0.0034902
0.00348543
0.00345134
0.00348252
0.00348264
0.00345366
0.00345356
0.00348543
0.00345134
0.00348257
0.00348267
0.0034536
0.00345315
0.00348256
0.00345363
0.00345373
0.00348537
0.00345114
0.00348243
0.00345352
0.00345378
0.0034514
0.00344581
0.00340796
0.00344348
0.00344348
0.00341099
0.00341088
0.00344579
0.00340797
0.00344347
0.00344339
0.00341103
0.00341084
0.00344352
0.00341101
0.00341107
0.00344565
0.00340799
0.00344348
0.00341104
0.00341106
0.00340799
0.00340179
0.00336052
0.00339957
0.00339951
0.00336385
0.00336383
0.00340182
0.00336057
0.00339953
0.00339949
0.00336393
0.00336387
0.00339957
0.00336392
0.00336393
0.00340181
0.00336054
0.00339956
0.00336387
0.00336391
0.00336053
0.00335407
0.00331188
0.00335181
0.00335173
0.00331523
0.00331521
0.00335409
0.00331187
0.00335173
0.00335176
0.00331524
0.00331524
0.0033518
0.00331523
0.00331521
0.00335408
0.00331188
0.0033518
0.00331519
0.00331521
0.00331188
0.00330544
0.00326362
0.00330306
0.00330309
0.00326689
0.00326692
0.00330542
0.00326361
0.00330309
0.00330306
0.00326689
0.00326687
0.00330312
0.00326688
0.00326695
0.00330542
0.00326361
0.00330311
0.00326688
0.00326693
0.00326364
0.0032573
0.00321629
0.00325498
0.00325492
0.00321951
0.00321942
0.00325728
0.00321629
0.00325494
0.00325494
0.00321947
0.00321944
0.00325492
0.00321945
0.00321942
0.00325729
0.00321629
0.00325493
0.00321943
0.00321943
0.00321631
0.00321011
0.00316998
0.00320776
0.00320772
0.00317309
0.00317297
0.0032101
0.00316997
0.00320775
0.00320776
0.00317304
0.003173
0.00320781
0.00317303
0.00317306
0.00321011
0.00316998
0.00320781
0.00317299
0.00317308
0.00316998
0.00316393
0.0031246
0.00316154
0.00316156
0.0031276
0.00312752
0.00316392
0.00312461
0.00316157
0.00316157
0.00312755
0.00312754
0.00316163
0.00312755
0.00312763
0.00316394
0.00312461
0.00316159
0.00312754
0.00312762
0.00312462
0.00311869
0.00308011
0.00311631
0.00311631
0.00308299
0.003083
0.00311869
0.00308014
0.00311633
0.00311635
0.00308299
0.00308298
0.00311627
0.003083
0.003083
0.0031187
0.00308014
0.00311623
0.00308298
0.00308291
0.00308014
0.00307435
0.00303648
0.003072
0.00307198
0.00303918
0.00303926
0.00307435
0.00303644
0.003072
0.00307201
0.00303923
0.00303925
0.00307186
0.00303924
0.00303922
0.00307436
0.00303645
0.00307188
0.00303925
0.00303909
0.00303647
0.00303082
0.00299341
0.00302848
0.00302843
0.00299613
0.00299613
0.00303076
0.00299334
0.00302846
0.00302842
0.0029961
0.00299613
0.00302828
0.00299614
0.00299614
0.00303077
0.00299337
0.00302837
0.00299613
0.00299608
0.00299356
0.00298783
0.00295068
0.0029854
0.00298541
0.00295338
0.00295346
0.00298773
0.00295066
0.00298541
0.00298542
0.00295342
0.0029535
0.00298531
0.00295348
0.00295365
0.00298776
0.00295066
0.00298529
0.00295349
0.00295364
0.002951
0.00294519
0.0029083
0.00294286
0.00294285
0.00291119
0.00291111
0.0029451
0.00290828
0.00294283
0.00294282
0.00291118
0.00291109
0.00294268
0.0029111
0.0029111
0.00294511
0.00290833
0.00294273
0.00291107
0.00291112
0.00290759
0.00290286
0.00286635
0.00290051
0.00290057
0.00286914
0.00286915
0.00290279
0.00286625
0.00290047
0.00290055
0.00286913
0.00286908
0.00290069
0.00286917
0.00286902
0.00290285
0.00286642
0.00290052
0.00286909
0.00286908
0.00286692
0.00286091
0.00282454
0.00285861
0.00285871
0.0028273
0.00282734
0.00286084
0.00282453
0.0028586
0.00285864
0.00282732
0.00282727
0.0028586
0.00282735
0.00282747
0.00286098
0.00282458
0.00285867
0.00282726
0.0028275
0.00282459
0.00281918
0.00278308
0.00281692
0.00281704
0.00278586
0.00278578
0.00281917
0.00278307
0.0028169
0.00281688
0.00278586
0.00278591
0.00281686
0.00278577
0.00278586
0.0028192
0.00278303
0.00281689
0.00278593
0.0027858
0.00278299
0.00277779
0.00274198
0.00277563
0.00277559
0.00274479
0.0027448
0.00277777
0.00274197
0.00277563
0.00277557
0.00274476
0.00274493
0.00277547
0.00274479
0.00274501
0.00277773
0.00274199
0.00277547
0.00274492
0.002745
0.00274203
0.00273676
0.00270121
0.00273469
0.00273454
0.00270411
0.00270426
0.00273672
0.00270108
0.0027347
0.00273475
0.00270407
0.00270416
0.00273479
0.00270424
0.00270405
0.00273676
0.00270121
0.00273485
0.00270408
0.00270393
0.00270105
0.00269601
0.0026608
0.00269406
0.00269399
0.00266384
0.00266394
0.0026959
0.00266067
0.00269408
0.00269405
0.0026638
0.00266376
0.00269399
0.00266392
0.00266372
0.00269602
0.00266073
0.0026939
0.00266373
0.00266373
0.00266084
0.00265569
0.00262074
0.00265384
0.00265385
0.0026239
0.00262393
0.00265555
0.0026207
0.00265385
0.00265379
0.00262385
0.00262395
0.00265372
0.00262394
0.0026241
0.0026556
0.00262075
0.00265367
0.00262399
0.00262417
0.00262082
0.00261566
0.00258091
0.00261397
0.00261402
0.00258414
0.00258408
0.00261559
0.00258097
0.00261395
0.00261394
0.00258411
0.00258419
0.00261403
0.00258414
0.00258421
0.00261565
0.00258087
0.00261422
0.00258421
0.00258412
0.00258093
0.00257583
0.00254148
0.00257433
0.00257422
0.0025445
0.00254459
0.00257589
0.00254141
0.00257429
0.00257432
0.00254454
0.00254457
0.00257423
0.00254466
0.00254458
0.00257589
0.00254137
0.00257423
0.00254456
0.0025446
0.00254127
0.00253658
0.00250219
0.00253476
0.00253479
0.00250552
0.00250555
0.0025364
0.00250242
0.00253476
0.00253475
0.00250548
0.00250551
0.00253481
0.00250551
0.00250559
0.00253634
0.00250239
0.00253485
0.00250549
0.00250553
0.00250248
0.00249709
0.00246373
0.00249557
0.00249573
0.00246647
0.00246636
0.00249748
0.00246315
0.00249558
0.00249569
0.00246645
0.00246644
0.00249582
0.0024664
0.00246636
0.00249738
0.00246335
0.0024958
0.00246647
0.00246641
0.00246314
0.00245886
0.00242422
0.00245685
0.00245669
0.00242766
0.00242786
0.0024582
0.00242505
0.00245687
0.00245677
0.00242754
0.00242777
0.00245673
0.00242786
0.00242791
0.00245848
0.0024248
0.00245677
0.0024278
0.00242782
0.00242514
0.00241922
0.00238762
0.00241798
0.0024183
0.00238956
0.00238925
0.0024202
0.00238621
0.00241797
0.00241811
0.00238955
0.0023894
0.00241821
0.00238924
0.00238925
0.00241978
0.00238644
0.0024182
0.00238933
0.00238928
0.00238609
0.00238267
0.00234749
0.00237981
0.00237962
0.0023507
0.00235091
0.00238121
0.00234836
0.00237986
0.00237979
0.00235071
0.00235087
0.00237973
0.00235095
0.00235093
0.00238166
0.00234822
0.00237971
0.00235093
0.0023509
0.00234836
0.00234242
0.00231026
0.00234111
0.00234128
0.00231284
0.00231268
0.00234344
0.00230987
0.00234106
0.00234124
0.00231274
0.00231274
0.00234136
0.00231271
0.00231273
0.00234316
0.00230978
0.00234131
0.00231276
0.00231272
0.00231003
0.00230552
0.00227229
0.00230341
0.00230326
0.00227487
0.00227485
0.00230502
0.00227223
0.00230331
0.00230332
0.00227488
0.00227486
0.00230323
0.00227484
0.00227476
0.002305
0.0022723
0.00230322
0.00227483
0.00227481
0.00227201
0.00226726
0.00223404
0.0022653
0.00226533
0.00223685
0.0022369
0.00226724
0.00223417
0.00226537
0.00226533
0.00223689
0.00223685
0.0022653
0.00223693
0.00223698
0.00226731
0.00223416
0.00226534
0.0022369
0.00223691
0.00223434
0.00222919
0.00219672
0.00222746
0.00222745
0.0021993
0.00219922
0.00222933
0.00219663
0.00222744
0.00222745
0.00219928
0.00219928
0.00222757
0.00219925
0.0021992
0.00222931
0.00219662
0.0022275
0.00219925
0.00219928
0.00219654
0.00219179
0.00215903
0.00218992
0.00218985
0.00216174
0.00216173
0.00219171
0.00215907
0.00218992
0.00218994
0.00216179
0.00216184
0.00218978
0.00216172
0.00216173
0.00219173
0.00215917
0.00218988
0.00216182
0.0021617
0.00215918
0.00215417
0.00212166
0.00215235
0.00215234
0.00212421
0.0021242
0.00215417
0.00212164
0.00215241
0.00215238
0.00212419
0.00212407
0.00215235
0.00212423
0.00212427
0.00215425
0.00212149
0.00215228
0.00212411
0.00212414
0.00212154
0.00211674
0.00208439
0.00211487
0.00211487
0.00208701
0.00208703
0.0021168
0.0020844
0.00211484
0.0021148
0.00208697
0.00208708
0.00211493
0.00208699
0.00208692
0.00211663
0.00208454
0.00211482
0.002087
0.00208697
0.00208446
0.00207953
0.00204718
0.00207771
0.00207767
0.00204975
0.00204966
0.00207946
0.00204717
0.00207766
0.0020778
0.00204976
0.00204965
0.00207762
0.0020497
0.00204979
0.00207966
0.00204706
0.0020777
0.00204976
0.0020498
0.00204719
0.00204229
0.00201015
0.00204045
0.00204041
0.00201259
0.0020127
0.00204233
0.00201031
0.00204046
0.00204027
0.00201256
0.0020126
0.00204048
0.00201273
0.00201257
0.00204217
0.00201017
0.00204046
0.00201258
0.00201254
0.00201016
0.00200531
0.0019734
0.00200335
0.00200343
0.00197585
0.00197566
0.00200541
0.00197317
0.00200333
0.00200345
0.00197587
0.00197592
0.00200335
0.00197562
0.0019758
0.00200533
0.00197346
0.00200332
0.00197583
0.00197576
0.00197333
0.00196854
0.00193641
0.00196664
0.00196642
0.00193881
0.00193886
0.00196834
0.00193662
0.00196669
0.00196665
0.00193884
0.00193874
0.00196658
0.00193894
0.00193886
0.00196858
0.00193641
0.00196656
0.00193882
0.00193889
0.00193647
0.00193154
0.00189991
0.00192957
0.00192975
0.00190217
0.00190227
0.0019318
0.00189979
0.00192957
0.00192954
0.00190212
0.00190216
0.00192962
0.00190212
0.00190216
0.00193154
0.0018999
0.00192964
0.00190219
0.00190216
0.00189991
0.00189508
0.00186317
0.00189308
0.00189299
0.0018656
0.00186533
0.00189489
0.00186319
0.00189301
0.00189299
0.00186561
0.00186538
0.00189307
0.00186549
0.00186553
0.00189506
0.00186311
0.00189307
0.00186544
0.00186553
0.00186315
0.00185831
0.00182706
0.00185638
0.00185632
0.00182919
0.00182957
0.00185844
0.00182735
0.0018564
0.00185628
0.00182913
0.00182944
0.00185632
0.00182947
0.00182917
0.00185829
0.00182719
0.00185631
0.0018293
0.00182915
0.00182705
0.00182234
0.00179113
0.00182024
0.0018206
0.0017934
0.00179252
0.00182254
0.00179042
0.0018202
0.00182056
0.00179339
0.00179336
0.00182026
0.00179279
0.0017934
0.00182249
0.00179106
0.00182024
0.00179336
0.00179341
0.00179115
0.0017862
0.00175392
0.00178413
0.00178325
0.00175606
0.0017561
0.00178558
0.00175408
0.00178424
0.00178399
0.00175619
0.00175595
0.00178417
0.0017562
0.00175609
0.00178607
0.0017539
0.00178421
0.0017561
0.00175611
0.00175395
0.00174909
0.00171855
0.00174694
0.00174749
0.00172062
0.00172137
0.00174937
0.00171923
0.00174706
0.00174686
0.00172049
0.00172053
0.00174697
0.00172118
0.00172066
0.00174908
0.00171845
0.00174699
0.00172047
0.0017206
0.00171861
0.00171392
0.00168344
0.00171196
0.00171253
0.00168561
0.00168504
0.00171455
0.00168279
0.00171175
0.00171186
0.00168546
0.00168546
0.00171194
0.00168503
0.00168533
0.00171376
0.00168346
0.00171188
0.00168539
0.00168532
0.00168324
0.0016786
0.00164698
0.00167653
0.00167567
0.00164896
0.00164879
0.00167789
0.00164684
0.00167655
0.00167655
0.00164924
0.0016494
0.00167628
0.00164897
0.00164899
0.00167874
0.00164712
0.00167634
0.00164936
0.00164913
0.00164694
0.00164219
0.00161135
0.00164003
0.00164011
0.00161346
0.0016137
0.00164214
0.00161156
0.00164023
0.00164022
0.00161344
0.00161316
0.0016401
0.00161374
0.00161355
0.00164228
0.00161118
0.00164015
0.00161335
0.00161348
0.00161146
0.00160657
0.00157552
0.00160453
0.0016047
0.00157764
0.0015776
0.00160674
0.00157567
0.00160447
0.0016042
0.00157749
0.00157745
0.00160462
0.00157756
0.00157769
0.00160637
0.00157543
0.00160454
0.00157745
0.00157766
0.00157566
0.00157075
0.00154009
0.0015687
0.00156869
0.00154204
0.00154203
0.0015709
0.00153995
0.00156854
0.00156863
0.00154209
0.00154224
0.00156875
0.00154198
0.00154198
0.0015707
0.00154024
0.00156874
0.00154221
0.00154205
0.0015399
0.00153538
0.00150483
0.00153324
0.00153312
0.00150694
0.00150681
0.00153519
0.00150471
0.00153338
0.00153347
0.00150705
0.0015071
0.00153307
0.00150687
0.00150667
0.00153553
0.00150477
0.00153315
0.00150689
0.00150662
0.00150467
0.00150007
0.00146939
0.0014981
0.00149801
0.00147145
0.00147155
0.00149999
0.00146951
0.00149814
0.00149813
0.00147137
0.00147136
0.00149797
0.00147152
0.00147185
0.00149999
0.00146942
0.0014979
0.00147148
0.00147185
0.00146975
0.00146468
0.00143441
0.00146267
0.00146278
0.00143647
0.00143648
0.0014648
0.00143446
0.00146261
0.00146262
0.00143646
0.00143644
0.00146309
0.00143654
0.00143651
0.00146474
0.00143453
0.00146312
0.00143665
0.00143649
0.00143444
0.00142969
0.00139945
0.0014277
0.00142768
0.00140139
0.00140139
0.00142972
0.00139934
0.0014277
0.0014277
0.00140138
0.00140145
0.00142756
0.00140129
0.00140098
0.0014298
0.00139924
0.00142762
0.00140124
0.00140096
0.00139897
0.00139473
0.001364
0.00139265
0.00139267
0.00136616
0.00136615
0.00139461
0.00136403
0.00139263
0.00139266
0.00136612
0.00136603
0.00139224
0.00136604
0.00136624
0.00139447
0.00136392
0.00139215
0.0013659
0.0013661
0.00136407
0.00135924
0.00132914
0.00135728
0.00135732
0.00133118
0.00133121
0.00135931
0.00132932
0.00135725
0.00135726
0.00133114
0.0013312
0.00135755
0.00133139
0.00133154
0.00135924
0.00132934
0.0013575
0.00133151
0.00133166
0.00132962
0.00132447
0.00129452
0.00132252
0.00132258
0.00129654
0.00129652
0.00132465
0.00129435
0.00132249
0.00132251
0.00129658
0.00129651
0.0013228
0.00129649
0.00129629
0.00132467
0.00129447
0.00132297
0.00129655
0.00129642
0.00129426
0.00128982
0.00125964
0.00128782
0.00128773
0.00126156
0.00126159
0.00128961
0.00125947
0.00128796
0.00128789
0.00126181
0.00126192
0.00128743
0.00126146
0.00126146
0.00128976
0.00125961
0.00128748
0.00126147
0.00126133
0.00125929
0.00125497
0.00122503
0.00125297
0.00125298
0.00122721
0.00122719
0.00125482
0.00122521
0.0012531
0.00125324
0.00122701
0.00122708
0.00125295
0.00122724
0.0012274
0.00125493
0.00122509
0.00125281
0.00122728
0.00122729
0.00122533
0.00122032
0.00119019
0.00121853
0.00121853
0.00119233
0.00119237
0.00122056
0.00119036
0.0012183
0.00121834
0.0011922
0.00119195
0.00121879
0.00119243
0.00119245
0.00122039
0.00119004
0.00121871
0.00119226
0.00119252
0.00119039
0.00118545
0.00115526
0.00118357
0.00118364
0.0011573
0.00115735
0.0011856
0.00115519
0.00118349
0.00118317
0.00115734
0.00115723
0.00118354
0.00115736
0.00115705
0.0011853
0.00115517
0.00118364
0.00115716
0.00115706
0.00115502
0.00115058
0.00112105
0.00114865
0.00114862
0.00112294
0.00112283
0.00115047
0.00112076
0.00114873
0.00114875
0.00112311
0.00112335
0.0011484
0.00112273
0.00112286
0.00115053
0.00112123
0.0011484
0.0011231
0.00112291
0.00112083
0.00111644
0.00108668
0.00111439
0.0011143
0.00108864
0.0010887
0.00111615
0.00108676
0.0011146
0.00111486
0.00108877
0.00108893
0.00111441
0.00108869
0.00108895
0.00111664
0.00108689
0.00111449
0.00108895
0.00108905
0.00108709
0.00108196
0.00105192
0.00107999
0.00108013
0.00105411
0.0010542
0.00108215
0.00105209
0.00108005
0.00108013
0.00105393
0.0010538
0.00108044
0.00105435
0.00105418
0.00108216
0.00105174
0.00108046
0.00105397
0.00105403
0.00105194
0.00104721
0.00101739
0.0010455
0.00104545
0.00101959
0.00101942
0.00104732
0.00101727
0.00104529
0.00104512
0.00101949
0.00101926
0.00104531
0.00101928
0.00101918
0.00104698
0.0010171
0.00104517
0.00101915
0.00101914
0.00101705
0.00101272
0.000983033
0.00101093
0.00101081
0.000984984
0.000985096
0.00101259
0.000983124
0.00101088
0.00101069
0.000985025
0.00098512
0.00101059
0.000985101
0.000985028
0.00101247
0.000983227
0.00101061
0.000985203
0.000985161
0.000983181
0.000978397
0.000948695
0.000976396
0.000976534
0.000950591
0.000950665
0.000978476
0.000948736
0.000976453
0.000976577
0.000950641
0.000950717
0.0009765
0.000950706
0.000950648
0.000978592
0.000948772
0.000976622
0.000950727
0.000950656
0.000948727
0.000944003
0.000913559
0.000941963
0.00094195
0.000915682
0.000915516
0.000943994
0.000913492
0.000941987
0.000942019
0.000915684
0.000915653
0.000941998
0.000915558
0.000915998
0.000944011
0.00091354
0.000941928
0.000915584
0.000915837
0.000913754
0.000908766
0.000879049
0.000906863
0.000906801
0.000881046
0.000881207
0.000908763
0.000879159
0.000906884
0.000906914
0.00088107
0.000881208
0.000907234
0.000881199
0.000881238
0.000908811
0.000879203
0.000907159
0.000881235
0.000881307
0.000879201
0.000874478
0.000845535
0.000872624
0.000872777
0.000847487
0.000847472
0.000874554
0.000845441
0.000872639
0.000872759
0.000847469
0.000847433
0.000872633
0.000847366
0.000846984
0.000874605
0.000845419
0.000872727
0.000847391
0.000847036
0.000845086
0.000840929
0.000810876
0.00083903
0.000838943
0.000812974
0.000812845
0.0008408
0.000810779
0.000838996
0.000838884
0.000812932
0.000812772
0.000838435
0.000812782
0.000812635
0.000840756
0.000810726
0.00083847
0.000812732
0.000812611
0.000810656
0.000806056
0.000775616
0.000804111
0.000804039
0.000777626
0.000777683
0.000806013
0.000775797
0.000804087
0.000803987
0.00077765
0.000777721
0.000804016
0.000777845
0.000778121
0.000805966
0.000775779
0.000803971
0.000777805
0.000778058
0.00077608
0.000770881
0.000741343
0.000768927
0.000769012
0.000743246
0.000743348
0.000771076
0.000741459
0.000768957
0.000769067
0.000743268
0.000743409
0.000769507
0.000743456
0.000743706
0.000771058
0.000741504
0.000769437
0.000743444
0.000743697
0.000741648
0.000736742
0.000707329
0.00073478
0.000734867
0.000709305
0.000709235
0.000736814
0.000707094
0.000734795
0.000734912
0.0007093
0.000709225
0.000734988
0.000709037
0.000708861
0.000736882
0.000707143
0.000735043
0.000709141
0.000708978
0.000706904
0.000702613
0.000672226
0.000700688
0.000700577
0.000674344
0.000674301
0.000702372
0.000672181
0.000700682
0.000700544
0.000674312
0.000674193
0.000700162
0.000674181
0.000673934
0.000702404
0.000672076
0.000700258
0.000674119
0.000673961
0.000671896
0.000667386
0.000637104
0.000665475
0.000665487
0.00063913
0.000639169
0.000667388
0.000637293
0.00066543
0.000665366
0.000639105
0.00063924
0.000665216
0.000639317
0.000639396
0.000667262
0.000637311
0.000665182
0.000639317
0.000639287
0.000637441
0.000632416
0.000603195
0.000630486
0.000630524
0.000605036
0.000605014
0.000632604
0.000603222
0.000630495
0.000630678
0.000605112
0.000605198
0.000630888
0.000605184
0.000605498
0.00063266
0.000603437
0.000630816
0.000605366
0.000605556
0.000603661
0.000598571
0.000569002
0.000596586
0.000596591
0.00057098
0.000571068
0.00059861
0.000569036
0.000596651
0.000596692
0.00057097
0.000570897
0.000597005
0.000571013
0.000570904
0.000598818
0.000568821
0.000597119
0.000570858
0.000570944
0.000568799
0.000564251
0.000533615
0.000562311
0.000562397
0.000535771
0.000535688
0.00056426
0.000533455
0.000562258
0.000562133
0.000535706
0.00053551
0.000562015
0.000535506
0.00053523
0.000564
0.000533289
0.000561986
0.000535296
0.000535122
0.000533071
0.000528741
0.000498072
0.000526831
0.00052668
0.000500093
0.000499931
0.000528568
0.000497875
0.000526788
0.000526595
0.00050013
0.000499985
0.000526309
0.000499911
0.000499776
0.00052843
0.000498029
0.000526191
0.00049998
0.0004998
0.000497915
0.000493255
0.000463438
0.000491258
0.000491133
0.000465244
0.000465423
0.000493109
0.000463681
0.00049132
0.000491263
0.000465309
0.000465623
0.000491185
0.000465606
0.00046588
0.000493319
0.000463884
0.000491273
0.000465863
0.000466006
0.000464083
0.000458832
0.000429516
0.0004568
0.000457002
0.000431425
0.000431626
0.000459074
0.000429802
0.000456846
0.000457146
0.000431393
0.000431655
0.000457451
0.000431767
0.000432072
0.000459257
0.000429735
0.000457568
0.000431812
0.000432067
0.000430018
0.000424854
0.000394459
0.000422893
0.000423074
0.000396675
0.000396493
0.000425096
0.000394206
0.000422837
0.000423011
0.000396623
0.000396291
0.00042332
0.00039629
0.000396045
0.000424948
0.000394012
0.000423226
0.000396027
0.000395926
0.000393819
0.000389545
0.000358573
0.000387667
0.000387431
0.000360635
0.000360392
0.000389268
0.000358196
0.000387643
0.000387315
0.000360686
0.000360476
0.00038697
0.000360245
0.00035993
0.000389124
0.000358296
0.000386897
0.000360276
0.000359932
0.000357855
0.000353698
0.000323154
0.00035169
0.00035145
0.000325086
0.000325216
0.00035335
0.000323409
0.000351754
0.00035158
0.000325084
0.00032526
0.000351088
0.000325324
0.000325466
0.000353485
0.000323458
0.000351123
0.000325429
0.000325535
0.000323669
0.000318385
0.000288343
0.000316333
0.000316584
0.00029029
0.000290548
0.000318701
0.00028872
0.000316296
0.000316561
0.000290231
0.000290433
0.000316964
0.000290742
0.000290999
0.000318721
0.000288605
0.000317011
0.000290651
0.00029099
0.00028907
0.000283603
0.000253544
0.000281611
0.000281827
0.000255519
0.000255462
0.000283954
0.000253332
0.000281568
0.000281705
0.000255549
0.00025551
0.000282242
0.000255384
0.00025535
0.000283834
0.000253391
0.000282207
0.000255376
0.000255313
0.000253194
0.000248795
0.000218377
0.000246826
0.000246603
0.00022048
0.000220125
0.000248473
0.000217983
0.000246888
0.000246761
0.00022055
0.000220306
0.000246337
0.000219943
0.00021979
0.000248583
0.000218124
0.000246334
0.00022011
0.000219836
0.000217782
0.000213484
0.000182423
0.000211542
0.000211325
0.000184538
0.000184739
0.000213193
0.000182697
0.000211561
0.000211398
0.000184454
0.00018447
0.000211046
0.000184778
0.000184705
0.000213284
0.00018242
0.000211088
0.000184545
0.000184664
0.000182647
0.000177498
0.000146261
0.000175512
0.000175764
0.000148281
0.000148504
0.000177796
0.000146474
0.00017542
0.00017545
0.000148267
0.000148506
0.000175803
0.000148616
0.000148702
0.000177498
0.000146628
0.000175741
0.000148648
0.000148709
0.000146682
0.000141423
0.000111405
0.000139356
0.000139404
0.000113237
0.000112979
0.000141501
0.000111108
0.00013941
0.00013971
0.000113356
0.000113438
0.000139685
0.000112959
0.000113146
0.000141798
0.000111492
0.000139748
0.000113392
0.000113241
0.00011127
0.000106629
7.64811e-05
0.000104594
0.000104385
7.84944e-05
7.8522e-05
0.00010638
7.65851e-05
0.000104674
0.000104675
7.84174e-05
7.8155e-05
0.000104438
7.84813e-05
7.83646e-05
0.000106683
7.60281e-05
0.000104494
7.80706e-05
7.82382e-05
7.63045e-05
7.15356e-05
4.00631e-05
6.96521e-05
6.98032e-05
4.22402e-05
4.23727e-05
7.17319e-05
4.01684e-05
6.9508e-05
6.91482e-05
4.21746e-05
4.21003e-05
6.95231e-05
4.23616e-05
4.21839e-05
7.10526e-05
3.99526e-05
6.93373e-05
4.21099e-05
4.2139e-05
4.00251e-05
3.50593e-05
7.71952e-06
3.32801e-05
3.33002e-05
1.07214e-05
1.04957e-05
3.50956e-05
7.41866e-06
3.32647e-05
3.32616e-05
1.08481e-05
1.11148e-05
3.32481e-05
1.04831e-05
1.06644e-05
3.49693e-05
8.09174e-06
3.32579e-05
1.1134e-05
1.08219e-05
7.7172e-06
4.59496e-06
6.40399e-06
6.22029e-06
4.32656e-06
6.57243e-06
6.78214e-06
5.31719e-06
5.80153e-06
5.52413e-06
6.38539e-06
4.92062e-06
6.59006e-06
0.00353119
0.00353377
0.00353245
0.00353269
0.00355963
0.00353354
0.0035631
0.00353396
0.00355988
0.00353381
0.00353404
0.0035634
0.00354479
0.00356653
0.00356658
0.00350387
0.00351735
0.0035213
0.00349596
0.00349413
0.00349952
0.0035037
0.00351744
0.00352143
0.00349594
0.00351968
0.0035198
0.00351964
0.00349317
0.00349317
0.00349319
0.00349313
0.00350333
0.00351506
0.00352021
0.00351093
0.00352233
0.00350048
0.00351119
0.0034933
0.00349965
0.00350337
0.00352027
0.00351514
0.00351104
0.00352237
0.00351125
0.00350058
0.00352102
0.00352112
0.00350815
0.00350027
0.00350036
0.00347599
0.00349031
0.00349014
0.003474
0.0034875
0.00347303
0.00347595
0.00349037
0.00348997
0.00347394
0.00348403
0.00348396
0.00348395
0.00345545
0.00345552
0.00345542
0.00345547
0.00347372
0.00348882
0.0034825
0.00347303
0.00348726
0.00347431
0.00347309
0.00348774
0.00347242
0.00347371
0.00348248
0.00348872
0.00347309
0.0034872
0.00347306
0.00347417
0.00349044
0.00349044
0.00347151
0.00347461
0.00347462
0.00343334
0.00344807
0.00344895
0.00343199
0.0034472
0.00343082
0.00343319
0.00344803
0.00344884
0.00343198
0.0034454
0.00344532
0.00344533
0.00341275
0.0034128
0.00341277
0.00341274
0.00343204
0.00344771
0.00344346
0.00343301
0.00344663
0.00343249
0.00343301
0.00344676
0.00343147
0.00343201
0.00344346
0.00344753
0.00343295
0.00344658
0.00343298
0.00343242
0.00344833
0.00344838
0.00343035
0.00343236
0.00343231
0.00338698
0.00340335
0.00340482
0.00338559
0.00340289
0.00338544
0.00338694
0.00340339
0.00340478
0.00338553
0.00340129
0.00340124
0.00340121
0.00336538
0.00336544
0.0033654
0.00336536
0.00338616
0.00340324
0.00339956
0.00338786
0.00340266
0.00338625
0.00338787
0.00340307
0.00338513
0.00338615
0.00339956
0.0034032
0.00338785
0.00340265
0.00338786
0.00338631
0.00340349
0.00340348
0.00338458
0.00338574
0.00338569
0.00333817
0.00335524
0.00335657
0.00333692
0.0033549
0.00333663
0.00333808
0.0033552
0.00335658
0.0033369
0.00335325
0.00335323
0.00335319
0.00331656
0.00331657
0.00331657
0.00331651
0.00333773
0.00335523
0.00335179
0.00333962
0.00335489
0.00333766
0.00333964
0.00335485
0.00333658
0.00333771
0.00335182
0.00335525
0.00333955
0.00335491
0.00333962
0.00333764
0.00335528
0.00335526
0.00333622
0.00333704
0.00333706
0.0032891
0.00330635
0.00330731
0.00328816
0.00330606
0.00328796
0.00328903
0.00330633
0.00330733
0.00328817
0.00330439
0.00330438
0.00330432
0.00326808
0.0032681
0.0032681
0.00326807
0.00328898
0.00330637
0.00330312
0.00329094