/*--------------------------------*- C++ -*----------------------------------*\
| =========                 |                                                 |
| \\      /  F ield         | OpenFOAM: The Open Source CFD Toolbox           |
|  \\    /   O peration     | Version:  v2006                                 |
|   \\  /    A nd           | Website:  www.openfoam.com                      |
|    \\/     M anipulation  |                                                 |
\*---------------------------------------------------------------------------*/
FoamFile
{
    version     2.0;
    format      ascii;
    class       volScalarField;
    location    "125";
    object      epsilon;
}
// * * * * * * * * * * * * * * * * * * * * * * * * * * * * * * * * * * * * * //

dimensions      [0 2 -3 0 0 0 0];


internalField   nonuniform List<scalar> 
43024
(
4.95567e-07
4.97331e-07
4.97331e-07
4.99575e-07
4.45573e-07
4.53736e-07
4.53738e-07
4.63711e-07
4.03752e-07
4.18514e-07
4.18516e-07
4.39411e-07
3.68363e-07
3.88554e-07
3.88556e-07
4.1767e-07
3.38014e-07
3.62105e-07
3.62108e-07
3.96085e-07
3.11645e-07
3.38275e-07
3.38278e-07
3.74585e-07
2.88472e-07
3.1664e-07
3.16643e-07
3.53714e-07
2.67922e-07
2.97024e-07
2.97027e-07
3.34152e-07
2.49579e-07
2.79372e-07
2.79375e-07
3.16488e-07
2.33136e-07
2.63681e-07
2.63684e-07
3.01165e-07
2.18364e-07
2.49957e-07
2.4996e-07
2.88497e-07
2.05088e-07
2.382e-07
2.38204e-07
2.787e-07
1.93169e-07
2.28412e-07
2.28417e-07
2.7188e-07
1.82497e-07
2.20601e-07
2.20608e-07
2.68167e-07
1.72979e-07
2.14773e-07
2.14782e-07
2.67647e-07
1.6454e-07
2.10941e-07
2.10947e-07
2.70498e-07
1.57121e-07
2.09116e-07
2.09119e-07
2.76704e-07
1.50666e-07
2.09307e-07
2.09311e-07
2.86289e-07
1.45136e-07
2.11566e-07
2.11567e-07
2.99241e-07
1.40488e-07
2.15906e-07
2.15906e-07
3.15624e-07
1.36705e-07
2.22353e-07
2.22355e-07
3.3538e-07
5.06417e-07
5.05584e-07
5.05582e-07
5.06417e-07
5.05583e-07
5.05583e-07
5.09649e-07
5.09649e-07
5.09649e-07
5.09649e-07
5.05584e-07
5.05584e-07
5.06417e-07
5.05584e-07
5.05583e-07
5.06418e-07
4.99575e-07
4.67236e-07
4.97331e-07
4.97335e-07
4.63713e-07
4.63721e-07
4.99575e-07
4.67237e-07
4.97334e-07
4.97335e-07
4.63718e-07
4.63723e-07
4.97332e-07
4.6371e-07
4.63715e-07
4.99575e-07
4.67239e-07
4.97334e-07
4.63711e-07
4.63719e-07
4.67243e-07
4.63708e-07
4.41422e-07
4.53739e-07
4.53748e-07
4.26738e-07
4.26747e-07
4.63709e-07
4.41422e-07
4.53743e-07
4.5375e-07
4.26738e-07
4.26749e-07
4.53743e-07
4.26732e-07
4.26742e-07
4.6371e-07
4.41428e-07
4.53745e-07
4.26734e-07
4.26742e-07
4.41434e-07
4.39404e-07
4.19278e-07
4.18521e-07
4.1853e-07
3.95675e-07
3.95684e-07
4.39408e-07
4.19279e-07
4.18521e-07
4.18533e-07
3.9567e-07
3.95686e-07
4.18526e-07
3.95665e-07
3.9568e-07
4.39409e-07
4.19285e-07
4.18525e-07
3.95668e-07
3.95675e-07
4.19293e-07
4.17658e-07
3.9764e-07
3.88564e-07
3.88573e-07
3.6846e-07
3.68468e-07
4.1766e-07
3.97641e-07
3.88558e-07
3.88576e-07
3.6845e-07
3.6847e-07
3.8857e-07
3.68447e-07
3.68466e-07
4.17664e-07
3.97647e-07
3.88564e-07
3.6845e-07
3.68456e-07
3.97655e-07
3.96071e-07
3.7608e-07
3.62118e-07
3.62126e-07
3.44032e-07
3.44038e-07
3.96074e-07
3.76081e-07
3.62108e-07
3.62129e-07
3.44018e-07
3.44041e-07
3.62124e-07
3.44016e-07
3.44037e-07
3.96078e-07
3.76087e-07
3.62113e-07
3.44019e-07
3.44023e-07
3.76096e-07
3.7457e-07
3.55106e-07
3.38291e-07
3.38298e-07
3.21873e-07
3.21879e-07
3.74573e-07
3.55107e-07
3.38277e-07
3.38301e-07
3.21856e-07
3.21881e-07
3.38297e-07
3.21856e-07
3.21879e-07
3.74577e-07
3.55113e-07
3.38283e-07
3.21858e-07
3.21862e-07
3.55123e-07
3.53699e-07
3.3539e-07
3.16658e-07
3.16664e-07
3.01762e-07
3.01767e-07
3.53702e-07
3.35391e-07
3.16641e-07
3.16666e-07
3.01743e-07
3.01769e-07
3.16664e-07
3.01743e-07
3.01767e-07
3.53706e-07
3.35397e-07
3.16647e-07
3.01746e-07
3.01749e-07
3.35407e-07
3.34137e-07
3.17528e-07
2.97043e-07
2.97048e-07
2.83622e-07
2.83627e-07
3.3414e-07
3.17529e-07
2.97024e-07
2.9705e-07
2.83601e-07
2.83628e-07
2.97048e-07
2.83602e-07
2.83627e-07
3.34143e-07
3.17535e-07
2.97029e-07
2.83605e-07
2.83607e-07
3.17545e-07
3.16474e-07
3.0197e-07
2.79393e-07
2.79397e-07
2.67441e-07
2.67445e-07
3.16476e-07
3.01972e-07
2.79371e-07
2.79399e-07
2.67418e-07
2.67447e-07
2.79398e-07
2.6742e-07
2.67446e-07
3.16479e-07
3.01977e-07
2.79377e-07
2.67423e-07
2.67424e-07
3.01988e-07
3.01151e-07
2.89035e-07
2.63703e-07
2.63707e-07
2.53226e-07
2.5323e-07
3.01153e-07
2.89037e-07
2.6368e-07
2.63708e-07
2.53202e-07
2.53231e-07
2.63707e-07
2.53204e-07
2.5323e-07
3.01156e-07
2.89042e-07
2.63685e-07
2.53206e-07
2.53207e-07
2.89054e-07
2.88481e-07
2.78943e-07
2.4998e-07
2.49984e-07
2.40979e-07
2.40984e-07
2.88484e-07
2.78945e-07
2.49955e-07
2.49986e-07
2.40954e-07
2.40985e-07
2.49984e-07
2.40956e-07
2.40984e-07
2.88487e-07
2.78951e-07
2.49961e-07
2.40958e-07
2.40959e-07
2.78964e-07
2.78683e-07
2.71822e-07
2.38225e-07
2.3823e-07
2.30701e-07
2.30706e-07
2.78686e-07
2.71825e-07
2.38199e-07
2.38231e-07
2.30674e-07
2.30707e-07
2.3823e-07
2.30677e-07
2.30705e-07
2.78689e-07
2.7183e-07
2.38205e-07
2.30678e-07
2.30679e-07
2.71843e-07
2.71863e-07
2.67854e-07
2.2844e-07
2.28445e-07
2.22396e-07
2.22403e-07
2.71867e-07
2.67858e-07
2.28412e-07
2.28446e-07
2.22368e-07
2.22404e-07
2.28444e-07
2.2237e-07
2.22401e-07
2.71868e-07
2.67862e-07
2.28418e-07
2.22371e-07
2.22373e-07
2.67878e-07
2.68147e-07
2.66971e-07
2.20633e-07
2.2064e-07
2.16074e-07
2.16082e-07
2.68152e-07
2.66976e-07
2.20603e-07
2.20641e-07
2.16043e-07
2.16084e-07
2.20638e-07
2.16047e-07
2.16079e-07
2.68153e-07
2.6698e-07
2.20609e-07
2.16047e-07
2.16049e-07
2.66998e-07
2.67624e-07
2.69142e-07
2.1481e-07
2.14818e-07
2.11743e-07
2.11755e-07
2.6763e-07
2.6915e-07
2.14778e-07
2.14819e-07
2.1171e-07
2.11756e-07
2.14815e-07
2.11712e-07
2.1175e-07
2.67631e-07
2.69153e-07
2.14784e-07
2.11712e-07
2.11717e-07
2.69174e-07
2.70472e-07
2.7465e-07
2.10978e-07
2.1099e-07
2.09409e-07
2.09426e-07
2.7048e-07
2.74659e-07
2.10945e-07
2.10992e-07
2.09375e-07
2.09428e-07
2.10985e-07
2.09374e-07
2.09418e-07
2.7048e-07
2.74662e-07
2.10952e-07
2.09375e-07
2.09383e-07
2.74685e-07
2.76674e-07
2.83534e-07
2.09153e-07
2.0917e-07
2.09122e-07
2.09143e-07
2.76683e-07
2.83544e-07
2.09119e-07
2.09172e-07
2.09087e-07
2.09145e-07
2.09163e-07
2.09084e-07
2.09133e-07
2.76682e-07
2.83547e-07
2.09128e-07
2.09085e-07
2.09096e-07
2.83573e-07
2.86259e-07
2.95799e-07
2.09349e-07
2.09372e-07
2.10844e-07
2.10868e-07
2.8627e-07
2.95811e-07
2.09312e-07
2.09374e-07
2.10806e-07
2.10872e-07
2.09361e-07
2.10801e-07
2.10857e-07
2.86265e-07
2.95813e-07
2.09323e-07
2.10802e-07
2.10818e-07
2.95844e-07
2.99206e-07
3.11487e-07
2.1161e-07
2.11637e-07
2.14662e-07
2.14694e-07
2.99218e-07
3.115e-07
2.11571e-07
2.1164e-07
2.14624e-07
2.14698e-07
2.11623e-07
2.14618e-07
2.14678e-07
2.99214e-07
3.11503e-07
2.11584e-07
2.14617e-07
2.14636e-07
3.11538e-07
3.1558e-07
3.30545e-07
2.15952e-07
2.15986e-07
2.20591e-07
2.20628e-07
3.15594e-07
3.30558e-07
2.15912e-07
2.15988e-07
2.20548e-07
2.20633e-07
2.15968e-07
2.20541e-07
2.20609e-07
3.15593e-07
3.30565e-07
2.15925e-07
2.20542e-07
2.20564e-07
3.30605e-07
3.35324e-07
2.22406e-07
2.22443e-07
3.35343e-07
2.2236e-07
2.22448e-07
2.22424e-07
3.35344e-07
2.22378e-07
5.35663e-07
5.35601e-07
5.35655e-07
5.35655e-07
5.34573e-07
5.35516e-07
5.33634e-07
5.35654e-07
5.34573e-07
5.35517e-07
5.35654e-07
5.33634e-07
5.35257e-07
5.35987e-07
5.35987e-07
1.10717e-06
3.88073e-06
9.33919e-07
4.60579e-06
1.26086e-05
1.66013e-05
1.10712e-06
3.88126e-06
9.33932e-07
4.60631e-06
4.95567e-07
4.95567e-07
4.95567e-07
4.57231e-07
4.57231e-07
4.57232e-07
4.57232e-07
5.43137e-07
1.22024e-06
4.95565e-07
4.85523e-07
5.25345e-07
1.20948e-06
4.82301e-07
1.26098e-05
1.66027e-05
5.43157e-07
4.95565e-07
1.22026e-06
4.85523e-07
5.25333e-07
4.82301e-07
1.2095e-06
2.52183e-06
2.52237e-06
4.84192e-07
2.37257e-06
2.37281e-06
1.43089e-06
5.59299e-06
1.32968e-06
6.13604e-06
2.12852e-05
2.3111e-05
1.43098e-06
5.59377e-06
1.3298e-06
6.13683e-06
4.45573e-07
4.45573e-07
4.45573e-07
4.13542e-07
4.13542e-07
4.13543e-07
4.13543e-07
5.87084e-07
1.1948e-06
4.46434e-07
4.44293e-07
5.73801e-07
1.20438e-06
4.3569e-07
2.12873e-05
2.31125e-05
5.87096e-07
4.46435e-07
1.19483e-06
4.44294e-07
5.73811e-07
4.35691e-07
1.20436e-06
2.31178e-06
2.31222e-06
4.53491e-07
2.35337e-06
2.3538e-06
1.66329e-06
6.91753e-06
1.59568e-06
7.31987e-06
2.46417e-05
2.49381e-05
1.6634e-06
6.91861e-06
1.59578e-06
7.32086e-06
4.03752e-07
4.03753e-07
4.03753e-07
3.76689e-07
3.76689e-07
3.7669e-07
3.76691e-07
6.15578e-07
1.24281e-06
4.06547e-07
4.10619e-07
6.08376e-07
1.26565e-06
3.97729e-07
2.46437e-05
2.494e-05
6.15587e-07
4.06548e-07
1.24282e-06
4.10622e-07
6.08395e-07
3.9773e-07
1.26565e-06
2.47404e-06
2.47447e-06
4.30186e-07
2.53276e-06
2.53321e-06
1.81238e-06
7.84587e-06
1.77224e-06
8.0993e-06
2.47383e-05
2.4431e-05
1.81248e-06
7.84713e-06
1.77235e-06
8.10035e-06
3.68363e-07
3.68364e-07
3.68365e-07
3.45192e-07
3.45192e-07
3.45194e-07
3.45194e-07
6.26307e-07
1.31313e-06
3.73479e-07
3.81658e-07
6.24879e-07
1.33377e-06
3.66029e-07
2.47398e-05
2.44325e-05
6.26311e-07
3.7348e-07
1.31314e-06
3.81661e-07
6.24898e-07
3.66031e-07
1.33376e-06
2.63529e-06
2.63577e-06
4.08477e-07
2.67937e-06
2.67988e-06
1.8929e-06
8.39518e-06
1.87311e-06
8.5295e-06
2.36941e-05
2.32656e-05
1.893e-06
8.39646e-06
1.87321e-06
8.53058e-06
3.38015e-07
3.38016e-07
3.38017e-07
3.17911e-07
3.17912e-07
3.17914e-07
3.17914e-07
6.22127e-07
1.37211e-06
3.4524e-07
3.55924e-07
6.25449e-07
1.38719e-06
3.38765e-07
2.36952e-05
2.32667e-05
6.22128e-07
3.45241e-07
1.37212e-06
3.55927e-07
6.25463e-07
3.38767e-07
1.38717e-06
2.7635e-06
2.76406e-06
3.86843e-07
2.80533e-06
2.80592e-06
1.92996e-06
8.66299e-06
1.92173e-06
8.7188e-06
2.25031e-05
2.21206e-05
1.93005e-06
8.6642e-06
1.92182e-06
8.71995e-06
3.11646e-07
3.11648e-07
3.11649e-07
2.94e-07
2.94001e-07
2.94003e-07
2.94003e-07
6.08904e-07
1.41603e-06
3.20492e-07
3.32671e-07
6.15381e-07
1.42761e-06
3.14746e-07
2.2504e-05
2.21214e-05
6.08906e-07
3.20494e-07
1.41603e-06
3.32673e-07
6.15396e-07
3.14747e-07
1.4276e-06
2.89512e-06
2.89576e-06
3.65494e-07
2.94363e-06
2.9443e-06
1.94798e-06
8.75951e-06
1.94358e-06
8.77086e-06
2.14785e-05
2.11788e-05
1.94807e-06
8.7606e-06
1.94367e-06
8.772e-06
2.88473e-07
2.88475e-07
2.88475e-07
2.72839e-07
2.7284e-07
2.72841e-07
2.72842e-07
5.91881e-07
1.45273e-06
2.9841e-07
3.11551e-07
5.99371e-07
1.4641e-06
2.93243e-07
2.14794e-05
2.11796e-05
5.91883e-07
2.98412e-07
1.45274e-06
3.11553e-07
5.99386e-07
2.93245e-07
1.46408e-06
3.04881e-06
3.04956e-06
3.45067e-07
3.10641e-06
3.10719e-06
1.96567e-06
8.76872e-06
1.95954e-06
8.76345e-06
2.06752e-05
2.04534e-05
1.96576e-06
8.76981e-06
1.95962e-06
8.76458e-06
2.67923e-07
2.67925e-07
2.67925e-07
2.53976e-07
2.53977e-07
2.53979e-07
2.53979e-07
5.75466e-07
1.49166e-06
2.785e-07
2.92428e-07
5.82274e-07
1.50556e-06
2.73826e-07
2.0676e-05
2.04542e-05
5.75468e-07
2.78502e-07
1.49167e-06
2.9243e-07
5.8229e-07
2.73827e-07
1.50555e-06
3.22584e-06
3.2267e-06
3.26213e-07
3.29182e-06
3.29273e-06
1.9956e-06
8.74941e-06
1.98429e-06
8.74323e-06
2.00727e-05
1.99112e-05
1.99569e-06
8.75046e-06
1.98438e-06
8.74432e-06
2.4958e-07
2.49581e-07
2.49582e-07
2.37082e-07
2.37083e-07
2.37085e-07
2.37085e-07
5.62916e-07
1.5398e-06
2.60474e-07
2.75266e-07
5.67829e-07
1.55777e-06
2.5624e-07
2.00735e-05
1.9912e-05
5.62918e-07
2.60476e-07
1.53982e-06
2.75269e-07
5.67845e-07
2.56242e-07
1.55777e-06
3.42123e-06
3.42224e-06
3.09456e-07
3.49275e-06
3.49381e-06
2.04528e-06
8.73377e-06
2.0267e-06
8.73164e-06
1.96327e-05
1.9517e-05
2.04537e-06
8.73481e-06
2.02679e-06
8.73272e-06
2.33137e-07
2.33138e-07
2.33139e-07
2.21911e-07
2.21912e-07
2.21914e-07
2.21914e-07
5.56508e-07
1.60097e-06
2.44157e-07
2.60066e-07
5.5864e-07
1.6237e-06
2.40332e-07
1.96336e-05
1.95178e-05
5.56517e-07
2.44159e-07
1.601e-06
2.60068e-07
5.58657e-07
2.40333e-07
1.6237e-06
3.62715e-06
3.6283e-06
2.95176e-07
3.70125e-06
3.70246e-06
2.11905e-06
8.73132e-06
2.09188e-06
8.73409e-06
1.93179e-05
1.92367e-05
2.11915e-06
8.73237e-06
2.09198e-06
8.73517e-06
2.18365e-07
2.18367e-07
2.18368e-07
2.08276e-07
2.08277e-07
2.08279e-07
2.08279e-07
5.57613e-07
1.67642e-06
2.29438e-07
2.46834e-07
5.56734e-07
1.70383e-06
2.25998e-07
1.93188e-05
1.92376e-05
5.5762e-07
2.2944e-07
1.67646e-06
2.46836e-07
5.5675e-07
2.26e-07
1.70384e-06
3.83541e-06
3.83669e-06
2.83645e-07
3.90932e-06
3.91065e-06
2.21878e-06
8.74086e-06
2.18274e-06
8.74787e-06
1.90967e-05
1.90408e-05
2.21889e-06
8.7419e-06
2.18284e-06
8.74894e-06
2.05089e-07
2.05091e-07
2.05091e-07
1.9603e-07
1.96032e-07
1.96033e-07
1.96033e-07
5.66962e-07
1.76536e-06
2.16237e-07
2.3557e-07
5.63095e-07
1.79686e-06
2.13168e-07
1.90977e-05
1.90416e-05
5.66966e-07
2.16238e-07
1.76541e-06
2.35572e-07
5.63116e-07
2.13169e-07
1.79688e-06
4.03843e-06
4.03983e-06
2.75017e-07
4.10948e-06
4.11092e-06
2.34423e-06
8.75881e-06
2.29917e-06
8.76773e-06
1.8943e-05
1.89042e-05
2.34434e-06
8.75993e-06
2.29928e-06
8.76886e-06
1.9317e-07
1.93172e-07
1.93173e-07
1.85052e-07
1.85054e-07
1.85055e-07
1.85056e-07
5.85889e-07
1.8657e-06
2.04493e-07
2.26276e-07
5.78751e-07
1.90041e-06
2.0178e-07
1.89438e-05
1.89052e-05
5.85894e-07
2.04495e-07
1.86575e-06
2.26278e-07
5.78773e-07
2.01781e-07
1.90044e-06
4.22956e-06
4.23107e-06
2.69477e-07
4.29544e-06
4.29696e-06
2.49231e-06
8.77995e-06
2.43834e-06
8.78898e-06
1.8835e-05
1.88081e-05
2.49245e-06
8.78109e-06
2.43845e-06
8.79013e-06
1.82498e-07
1.825e-07
1.82501e-07
1.75251e-07
1.75252e-07
1.75253e-07
1.75254e-07
6.14919e-07
1.9746e-06
1.94158e-07
2.1896e-07
6.04377e-07
2.01147e-06
1.91786e-07
1.8836e-05
1.8809e-05
6.14926e-07
1.9416e-07
1.97467e-06
2.18961e-07
6.04401e-07
1.91786e-07
2.01151e-06
4.40374e-06
4.40533e-06
2.67061e-07
4.46288e-06
4.46447e-06
2.65715e-06
8.80072e-06
2.59656e-06
8.80909e-06
1.87572e-05
1.87374e-05
2.65729e-06
8.80188e-06
2.59667e-06
8.81026e-06
1.7298e-07
1.72982e-07
1.72983e-07
1.66549e-07
1.66551e-07
1.66553e-07
1.66553e-07
6.54341e-07
2.08876e-06
1.85185e-07
2.1363e-07
6.40334e-07
2.12663e-06
1.83145e-07
1.87582e-05
1.87384e-05
6.5435e-07
1.85186e-07
2.08883e-06
2.13631e-07
6.40361e-07
1.83146e-07
2.12667e-06
4.55794e-06
4.55959e-06
2.67675e-07
4.60953e-06
4.61117e-06
2.83162e-06
8.81977e-06
2.76737e-06
8.82736e-06
1.86976e-05
1.86821e-05
2.83178e-06
8.82095e-06
2.7675e-06
8.82854e-06
1.64541e-07
1.64543e-07
1.64543e-07
1.5888e-07
1.58882e-07
1.58884e-07
1.58884e-07
7.04102e-07
2.20472e-06
1.77535e-07
2.10292e-07
6.86696e-07
2.24246e-06
1.75825e-07
1.86986e-05
1.8683e-05
7.04113e-07
1.77536e-07
2.2048e-06
2.10293e-07
6.86727e-07
1.75826e-07
2.24252e-06
4.69098e-06
4.69267e-06
2.7151e-07
4.73493e-06
4.7366e-06
3.00761e-06
8.83707e-06
2.94293e-06
8.84403e-06
1.86488e-05
1.86357e-05
3.00777e-06
8.83827e-06
2.94308e-06
8.84523e-06
1.57123e-07
1.57125e-07
1.57125e-07
1.52189e-07
1.52191e-07
1.52193e-07
1.52194e-07
7.63709e-07
2.31925e-06
1.71186e-07
2.08962e-07
7.43129e-07
2.3559e-06
1.69797e-07
1.86498e-05
1.86366e-05
7.63725e-07
1.71187e-07
2.31935e-06
2.08964e-07
7.43165e-07
1.69798e-07
2.35596e-06
4.80347e-06
4.80516e-06
2.78703e-07
4.84012e-06
4.84181e-06
3.17698e-06
8.85301e-06
3.11498e-06
8.85947e-06
1.86062e-05
1.85945e-05
3.17713e-06
8.85425e-06
3.11514e-06
8.86078e-06
1.50668e-07
1.5067e-07
1.50671e-07
1.46434e-07
1.46436e-07
1.46438e-07
1.46438e-07
8.32164e-07
2.42962e-06
1.66119e-07
2.09672e-07
8.08798e-07
2.4644e-06
1.65047e-07
1.86071e-05
1.85955e-05
8.32183e-07
1.6612e-07
2.42972e-06
2.09672e-07
8.08839e-07
1.65048e-07
2.46447e-06
4.89713e-06
4.89881e-06
2.8928e-07
4.92712e-06
4.9288e-06
3.33281e-06
8.86805e-06
3.27606e-06
8.87431e-06
1.85676e-05
1.85568e-05
3.33298e-06
8.86931e-06
3.27622e-06
8.87554e-06
1.45138e-07
1.4514e-07
1.45141e-07
1.41566e-07
1.41568e-07
1.41571e-07
1.41571e-07
9.07954e-07
2.53368e-06
1.62331e-07
2.12449e-07
8.82359e-07
2.56602e-06
1.61566e-07
1.85685e-05
1.85578e-05
9.07977e-07
1.62332e-07
2.53378e-06
2.1245e-07
8.82405e-07
1.61567e-07
2.56609e-06
4.97429e-06
4.97596e-06
3.03265e-07
4.99851e-06
5.00018e-06
3.47025e-06
8.88239e-06
3.42055e-06
8.8883e-06
1.85316e-05
1.85221e-05
3.47054e-06
8.88367e-06
3.42067e-06
8.88956e-06
1.40491e-07
1.40493e-07
1.40494e-07
1.37574e-07
1.37577e-07
1.3758e-07
1.3758e-07
9.89136e-07
2.62995e-06
1.59808e-07
2.17311e-07
9.62012e-07
2.65947e-06
1.59365e-07
1.85326e-05
1.85227e-05
9.89162e-07
1.5981e-07
2.63006e-06
2.17312e-07
9.62062e-07
1.59367e-07
2.65954e-06
5.0375e-06
5.03917e-06
3.20653e-07
5.05686e-06
5.05852e-06
3.58679e-06
8.896e-06
3.54531e-06
8.90152e-06
1.84981e-05
1.84888e-05
3.58724e-06
8.89722e-06
3.54512e-06
8.90269e-06
1.36708e-07
1.36711e-07
1.36711e-07
1.07347e-06
2.71757e-06
1.58578e-07
2.24293e-07
1.04556e-06
2.74417e-06
1.58439e-07
1.84993e-05
1.849e-05
1.0735e-06
1.5858e-07
2.71768e-06
2.24295e-07
1.04561e-06
1.58442e-07
2.74426e-06
5.0892e-06
5.09086e-06
3.41387e-07
5.10467e-06
5.10632e-06
5.35257e-07
5.35989e-07
5.35987e-07
1.09158e-05
5.81316e-07
1.09173e-05
5.81318e-07
5.28206e-07
2.43163e-06
2.43198e-06
5.40832e-07
5.40828e-07
5.34573e-07
5.35517e-07
5.33634e-07
5.35654e-07
5.34573e-07
5.35517e-07
5.33634e-07
5.35654e-07
5.30398e-07
3.47218e-06
5.68205e-07
8.21169e-07
5.30398e-07
3.47235e-06
5.68203e-07
8.21202e-07
5.29522e-07
5.2838e-07
1.16695e-06
5.09601e-07
5.32663e-07
5.28352e-07
5.19213e-07
5.29522e-07
5.2838e-07
1.16695e-06
5.09601e-07
5.32663e-07
5.28352e-07
5.19213e-07
5.35256e-07
5.35988e-07
5.35987e-07
1.09166e-05
5.81317e-07
5.28206e-07
2.43181e-06
2.43194e-06
5.40829e-07
5.4083e-07
1.09169e-05
5.81323e-07
5.34573e-07
5.35517e-07
5.33634e-07
5.35654e-07
5.34573e-07
5.35517e-07
5.35654e-07
5.33634e-07
5.30398e-07
3.47254e-06
5.68202e-07
8.21177e-07
5.29522e-07
5.2838e-07
1.16721e-06
5.09601e-07
5.32663e-07
5.28352e-07
5.19218e-07
5.30398e-07
3.47256e-06
5.68202e-07
8.211e-07
5.29522e-07
5.2838e-07
5.09601e-07
1.16708e-06
5.28352e-07
5.32663e-07
5.19212e-07
5.35663e-07
5.35601e-07
5.35655e-07
5.35655e-07
5.35663e-07
5.35601e-07
5.35655e-07
5.35655e-07
5.35663e-07
5.35601e-07
5.35655e-07
5.35655e-07
5.28434e-07
5.28376e-07
5.09725e-07
5.09725e-07
5.28408e-07
5.28408e-07
5.09782e-07
5.28434e-07
5.28375e-07
5.09725e-07
5.09725e-07
5.28408e-07
5.28408e-07
5.09782e-07
5.28434e-07
5.28375e-07
5.09725e-07
5.09725e-07
5.28408e-07
5.28408e-07
5.09782e-07
5.28434e-07
5.28375e-07
5.09725e-07
5.09725e-07
5.28408e-07
5.28408e-07
5.09782e-07
5.34573e-07
5.35517e-07
5.35654e-07
5.33634e-07
5.29522e-07
5.2838e-07
1.16707e-06
5.09601e-07
5.32663e-07
5.28352e-07
5.19215e-07
5.30398e-07
3.47243e-06
5.68202e-07
8.21094e-07
5.29522e-07
5.2838e-07
5.09601e-07
1.16704e-06
5.28352e-07
5.32663e-07
5.1921e-07
5.30398e-07
3.4725e-06
5.68201e-07
8.21096e-07
5.35257e-07
5.35987e-07
5.35987e-07
1.09175e-05
5.81323e-07
5.28206e-07
2.432e-06
2.43189e-06
5.40828e-07
5.40829e-07
1.0917e-05
5.81319e-07
5.34573e-07
5.35517e-07
5.35655e-07
5.33634e-07
5.29522e-07
5.2838e-07
5.09601e-07
1.16715e-06
5.28352e-07
5.32663e-07
5.19219e-07
5.29522e-07
5.2838e-07
5.09601e-07
1.1671e-06
5.28352e-07
5.32663e-07
5.19218e-07
5.30398e-07
3.4724e-06
5.68201e-07
8.21225e-07
5.30398e-07
3.47263e-06
5.68202e-07
8.21178e-07
5.28206e-07
2.4318e-06
2.43216e-06
5.40828e-07
5.40828e-07
1.09171e-05
5.81321e-07
1.09176e-05
5.81324e-07
1.26074e-05
1.65994e-05
1.26095e-05
1.66021e-05
2.52169e-06
2.52235e-06
4.84188e-07
2.37226e-06
2.37293e-06
2.05288e-05
1.76844e-05
2.05324e-05
1.76881e-05
4.793e-07
2.30596e-06
2.30667e-06
2.33908e-06
2.33978e-06
1.10722e-06
3.88115e-06
9.33767e-07
4.6064e-06
5.43133e-07
1.22015e-06
4.95565e-07
4.85525e-07
5.25349e-07
1.20941e-06
4.82301e-07
5.43136e-07
1.22028e-06
4.95565e-07
4.85531e-07
5.25344e-07
1.20959e-06
4.82302e-07
1.16096e-06
5.40775e-06
4.80989e-06
1.28045e-06
1.16095e-06
5.40843e-06
4.81074e-06
1.28059e-06
5.50995e-07
4.74299e-07
1.1932e-06
4.57763e-07
1.20471e-06
4.6971e-07
5.66389e-07
5.50997e-07
4.74307e-07
1.19339e-06
4.57764e-07
1.20489e-06
4.69711e-07
5.66401e-07
2.52216e-06
2.52212e-06
4.84189e-07
2.37256e-06
2.37268e-06
1.2609e-05
1.66009e-05
2.05314e-05
1.76873e-05
4.793e-07
2.30646e-06
2.30626e-06
2.33961e-06
2.33915e-06
2.05304e-05
1.76864e-05
5.43149e-07
1.22042e-06
4.95565e-07
4.8553e-07
5.25351e-07
1.20968e-06
4.82302e-07
1.10723e-06
3.8815e-06
9.33827e-07
4.6066e-06
5.43144e-07
4.95565e-07
1.22036e-06
4.85533e-07
5.25343e-07
4.82302e-07
1.20965e-06
1.16122e-06
5.40845e-06
4.81063e-06
1.28053e-06
5.51004e-07
4.74304e-07
1.19342e-06
4.57763e-07
1.20496e-06
4.6971e-07
5.66408e-07
1.16109e-06
5.40889e-06
4.81116e-06
1.28047e-06
5.51007e-07
4.74307e-07
4.57764e-07
1.19343e-06
4.69711e-07
1.20497e-06
5.66408e-07
1.10711e-06
3.88113e-06
9.33969e-07
4.60603e-06
5.43131e-07
4.95565e-07
1.22027e-06
4.85526e-07
5.25337e-07
4.82302e-07
1.20955e-06
1.10712e-06
3.88114e-06
9.33782e-07
4.6066e-06
5.51001e-07
4.74297e-07
1.19323e-06
4.57762e-07
1.20469e-06
4.6971e-07
5.66402e-07
1.1612e-06
5.40804e-06
4.81037e-06
1.28051e-06
5.51e-07
4.74301e-07
4.57763e-07
1.19328e-06
4.69711e-07
1.20473e-06
5.664e-07
1.16109e-06
5.40866e-06
4.81061e-06
1.2805e-06
2.52221e-06
2.52185e-06
4.8419e-07
2.37277e-06
2.37243e-06
1.26089e-05
1.66007e-05
2.05336e-05
1.76887e-05
4.79301e-07
2.30677e-06
2.30633e-06
2.33995e-06
2.33944e-06
2.05312e-05
1.76865e-05
5.43152e-07
4.95565e-07
1.22039e-06
4.8553e-07
5.25336e-07
4.82302e-07
1.20963e-06
1.10725e-06
3.88109e-06
9.33829e-07
4.60594e-06
1.10731e-06
3.88139e-06
9.33825e-07
4.60682e-06
5.50996e-07
4.74298e-07
4.57763e-07
1.19326e-06
4.69711e-07
1.20478e-06
5.66413e-07
5.51012e-07
4.74305e-07
4.57763e-07
1.19342e-06
4.69711e-07
1.20493e-06
5.6642e-07
1.16109e-06
5.40818e-06
4.81034e-06
1.28068e-06
1.16108e-06
5.40903e-06
4.81105e-06
1.28061e-06
1.26091e-05
1.66016e-05
1.26098e-05
1.66027e-05
4.79301e-07
2.30629e-06
2.30668e-06
2.33924e-06
2.33991e-06
2.05315e-05
1.7687e-05
2.05333e-05
1.76889e-05
2.1282e-05
2.31078e-05
2.12862e-05
2.31117e-05
2.31147e-06
2.31222e-06
4.53481e-07
2.35293e-06
2.35357e-06
2.44696e-05
2.35332e-05
2.44734e-05
2.35375e-05
4.50881e-07
2.44242e-06
2.44311e-06
2.38111e-06
2.38174e-06
1.43113e-06
5.59387e-06
1.32962e-06
6.13683e-06
5.87075e-07
1.1948e-06
4.46434e-07
4.44297e-07
5.73791e-07
1.20432e-06
4.35691e-07
5.87086e-07
1.19496e-06
4.46435e-07
4.44306e-07
5.73801e-07
1.20455e-06
4.35692e-07
1.47472e-06
6.77778e-06
6.30063e-06
1.55784e-06
1.47458e-06
6.77857e-06
6.3016e-06
1.55784e-06
5.93316e-07
4.35314e-07
1.2313e-06
4.15788e-07
1.21238e-06
4.25488e-07
6.0361e-07
5.93327e-07
4.35324e-07
1.2315e-06
4.15789e-07
1.21256e-06
4.25491e-07
6.0362e-07
2.31199e-06
2.31176e-06
4.53483e-07
2.35361e-06
2.35329e-06
2.1284e-05
2.31099e-05
2.44724e-05
2.35368e-05
4.50883e-07
2.44307e-06
2.44258e-06
2.38167e-06
2.38123e-06
2.44711e-05
2.35356e-05
5.87094e-07
1.19497e-06
4.46435e-07
4.443e-07
5.73814e-07
1.20452e-06
4.35691e-07
1.43068e-06
5.59435e-06
1.32983e-06
6.13733e-06
5.87104e-07
4.46436e-07
1.19501e-06
4.44308e-07
5.73819e-07
4.35693e-07
1.20454e-06
1.47483e-06
6.77869e-06
6.30162e-06
1.55794e-06
5.93341e-07
4.35317e-07
1.23146e-06
4.15789e-07
1.21254e-06
4.2549e-07
6.03631e-07
1.47518e-06
6.77918e-06
6.30215e-06
1.55775e-06
5.9335e-07
4.35326e-07
4.1579e-07
1.23147e-06
4.25492e-07
1.21261e-06
6.03635e-07
1.43096e-06
5.59345e-06
1.32977e-06
6.13646e-06
5.87091e-07
4.46435e-07
1.19485e-06
4.44301e-07
5.73806e-07
4.35692e-07
1.20443e-06
1.43098e-06
5.59385e-06
1.32975e-06
6.13702e-06
5.9333e-07
4.35309e-07
1.2313e-06
4.15787e-07
1.21237e-06
4.25489e-07
6.03621e-07
1.47479e-06
6.77824e-06
6.30121e-06
1.55792e-06
5.93334e-07
4.35318e-07
4.15789e-07
1.23135e-06
4.2549e-07
1.21242e-06
6.03629e-07
1.4748e-06
6.77875e-06
6.30175e-06
1.55794e-06
2.3123e-06
2.31185e-06
4.53486e-07
2.35372e-06
2.35318e-06
2.12848e-05
2.31105e-05
2.44741e-05
2.3539e-05
4.50885e-07
2.44316e-06
2.44265e-06
2.38207e-06
2.38132e-06
2.44722e-05
2.35361e-05
5.87107e-07
4.46436e-07
1.19498e-06
4.44303e-07
5.7382e-07
4.35692e-07
1.20457e-06
1.43101e-06
5.59352e-06
1.32967e-06
6.13651e-06
1.43093e-06
5.59431e-06
1.32971e-06
6.13749e-06
5.93341e-07
4.35311e-07
4.15788e-07
1.23131e-06
4.2549e-07
1.2124e-06
6.03634e-07
5.9335e-07
4.35319e-07
4.1579e-07
1.2315e-06
4.25491e-07
1.21256e-06
6.03645e-07
1.47484e-06
6.77851e-06
6.30135e-06
1.55796e-06
1.47491e-06
6.77928e-06
6.30224e-06
1.55801e-06
2.12851e-05
2.31112e-05
2.1287e-05
2.31132e-05
4.50886e-07
2.44278e-06
2.4432e-06
2.3814e-06
2.38181e-06
2.44725e-05
2.35368e-05
2.44745e-05
2.35389e-05
2.46385e-05
2.49352e-05
2.46426e-05
2.49388e-05
2.47375e-06
2.47436e-06
4.30172e-07
2.5324e-06
2.53309e-06
2.48368e-05
2.49372e-05
2.48401e-05
2.49407e-05
4.28472e-07
2.61081e-06
2.61148e-06
2.56058e-06
2.56118e-06
1.66331e-06
6.91849e-06
1.59569e-06
7.32068e-06
6.1556e-07
1.24282e-06
4.06546e-07
4.10627e-07
6.0837e-07
1.26564e-06
3.9773e-07
6.15567e-07
1.24301e-06
4.06549e-07
4.10636e-07
6.0838e-07
1.26586e-06
3.97732e-07
1.69453e-06
7.75887e-06
7.43305e-06
1.74777e-06
1.69455e-06
7.75967e-06
7.43404e-06
1.74779e-06
6.18835e-07
4.03021e-07
1.30099e-06
3.81228e-07
1.27825e-06
3.89299e-07
6.23017e-07
6.18842e-07
4.0303e-07
1.30122e-06
3.81229e-07
1.27846e-06
3.89302e-07
6.23022e-07
2.47436e-06
2.47382e-06
4.30172e-07
2.53315e-06
2.53253e-06
2.46404e-05
2.49367e-05
2.48396e-05
2.494e-05
4.28475e-07
2.6115e-06
2.6109e-06
2.5611e-06
2.56061e-06
2.48382e-05
2.49387e-05
6.15588e-07
1.24297e-06
4.06548e-07
4.10625e-07
6.08393e-07
1.26581e-06
3.97731e-07
1.66339e-06
6.9191e-06
1.59596e-06
7.32136e-06
6.15597e-07
4.0655e-07
1.24305e-06
4.10639e-07
6.084e-07
3.97733e-07
1.26585e-06
1.69464e-06
7.75991e-06
7.43423e-06
1.74788e-06
6.18862e-07
4.03018e-07
1.30117e-06
3.81229e-07
1.27841e-06
3.89302e-07
6.23045e-07
1.69474e-06
7.76037e-06
7.43472e-06
1.74784e-06
6.1886e-07
4.03033e-07
3.8123e-07
1.3012e-06
3.89304e-07
1.27846e-06
6.23053e-07
1.66337e-06
6.91814e-06
1.59574e-06
7.32038e-06
6.15583e-07
4.06548e-07
1.24286e-06
4.10632e-07
6.08382e-07
3.97731e-07
1.2657e-06
1.66338e-06
6.91865e-06
1.59575e-06
7.32086e-06
6.18841e-07
4.03012e-07
1.30101e-06
3.81227e-07
1.27825e-06
3.893e-07
6.23035e-07
1.6946e-06
7.7594e-06
7.43374e-06
1.74785e-06
6.18844e-07
4.03026e-07
3.81229e-07
1.30105e-06
3.89302e-07
1.27831e-06
6.23039e-07
1.69461e-06
7.75984e-06
7.43421e-06
1.74786e-06
2.47471e-06
2.47393e-06
4.30178e-07
2.53331e-06
2.53263e-06
2.46413e-05
2.49377e-05
2.48413e-05
2.49419e-05
4.28478e-07
2.6117e-06
2.611e-06
2.56141e-06
2.56072e-06
2.48391e-05
2.49396e-05
6.15595e-07
4.0655e-07
1.24301e-06
4.10629e-07
6.08404e-07
3.97732e-07
1.26586e-06
1.66341e-06
6.91835e-06
1.59579e-06
7.32067e-06
1.66344e-06
6.9192e-06
1.59584e-06
7.32143e-06
6.1886e-07
4.03013e-07
3.81228e-07
1.301e-06
3.89301e-07
1.27826e-06
6.23043e-07
6.18868e-07
4.03022e-07
3.81229e-07
1.30122e-06
3.89304e-07
1.27846e-06
6.2305e-07
1.69464e-06
7.75972e-06
7.43395e-06
1.74788e-06
1.69467e-06
7.76043e-06
7.43479e-06
1.7479e-06
2.46417e-05
2.4938e-05
2.46436e-05
2.49398e-05
4.28482e-07
2.61115e-06
2.61163e-06
2.56086e-06
2.56132e-06
2.48394e-05
2.49399e-05
2.4841e-05
2.49416e-05
2.47348e-05
2.44294e-05
2.47386e-05
2.44313e-05
2.63501e-06
2.63563e-06
4.08461e-07
2.67908e-06
2.67973e-06
2.38692e-05
2.42704e-05
2.38707e-05
2.42738e-05
4.06871e-07
2.74213e-06
2.74279e-06
2.70095e-06
2.70152e-06
1.8124e-06
7.84687e-06
1.77227e-06
8.1e-06
6.26284e-07
1.31313e-06
3.73478e-07
3.8167e-07
6.24873e-07
1.33376e-06
3.6603e-07
6.26289e-07
1.31334e-06
3.73481e-07
3.81678e-07
6.24879e-07
1.33399e-06
3.66032e-07
1.83083e-06
8.35164e-06
8.16281e-06
1.85972e-06
1.83085e-06
8.35226e-06
8.16371e-06
1.85974e-06
6.26728e-07
3.74973e-07
1.36251e-06
3.51931e-07
1.34472e-06
3.58853e-07
6.25635e-07
6.26732e-07
3.74981e-07
1.36273e-06
3.51933e-07
1.34494e-06
3.58856e-07
6.25638e-07
2.63566e-06
2.63504e-06
4.08462e-07
2.67979e-06
2.67914e-06
2.47368e-05
2.44295e-05
2.38706e-05
2.42737e-05
4.06873e-07
2.74285e-06
2.74219e-06
2.70162e-06
2.70093e-06
2.38691e-05
2.42723e-05
6.26312e-07
1.31329e-06
3.73481e-07
3.81662e-07
6.24901e-07
1.33393e-06
3.66031e-07
1.81243e-06
7.84757e-06
1.77243e-06
8.10076e-06
6.2632e-07
3.73483e-07
1.31334e-06
3.81681e-07
6.24897e-07
3.66033e-07
1.33397e-06
1.83093e-06
8.3527e-06
8.16408e-06
1.85982e-06
6.26755e-07
3.74964e-07
1.36269e-06
3.51932e-07
1.34489e-06
3.58855e-07
6.25661e-07
1.831e-06
8.35304e-06
8.16447e-06
1.85975e-06
6.26753e-07
3.74984e-07
3.51934e-07
1.36272e-06
3.58858e-07
1.34494e-06
6.25669e-07
1.81245e-06
7.84662e-06
1.77231e-06
8.09983e-06
6.26308e-07
3.73481e-07
1.31319e-06
3.81675e-07
6.2488e-07
3.66031e-07
1.33382e-06
1.81246e-06
7.84703e-06
1.77232e-06
8.10021e-06
6.26739e-07
3.74961e-07
1.36252e-06
3.5193e-07
1.34472e-06
3.58854e-07
6.2566e-07
1.83089e-06
8.35217e-06
8.16355e-06
1.85979e-06
6.26739e-07
3.74979e-07
3.51932e-07
1.36256e-06
3.58856e-07
1.34478e-06
6.2566e-07
1.8309e-06
8.3525e-06
8.16392e-06
1.85979e-06
2.63585e-06
2.63514e-06
4.08469e-07
2.67995e-06
2.67922e-06
2.47375e-05
2.44306e-05
2.38718e-05
2.4275e-05
4.06877e-07
2.74301e-06
2.74225e-06
2.70175e-06
2.70101e-06
2.38701e-05
2.42729e-05
6.26316e-07
3.73483e-07
1.31335e-06
3.81667e-07
6.24905e-07
3.66032e-07
1.33399e-06
1.81248e-06
7.84684e-06
1.77235e-06
8.10016e-06
1.81249e-06
7.84764e-06
1.77237e-06
8.10081e-06
6.26753e-07
3.74963e-07
3.51932e-07
1.36251e-06
3.58855e-07
1.34473e-06
6.25661e-07
6.26757e-07
3.7497e-07
3.51933e-07
1.36275e-06
3.58858e-07
1.34495e-06
6.25665e-07
1.83093e-06
8.35252e-06
8.16379e-06
1.85982e-06
1.83094e-06
8.35309e-06
8.16453e-06
1.85982e-06
2.47379e-05
2.44309e-05
2.47395e-05
2.44322e-05
4.06884e-07
2.7424e-06
2.74295e-06
2.70117e-06
2.70168e-06
2.38704e-05
2.42733e-05
2.38716e-05
2.42747e-05
2.36908e-05
2.32644e-05
2.36941e-05
2.32656e-05
2.76337e-06
2.76389e-06
3.86827e-07
2.80503e-06
2.80575e-06
2.26715e-05
2.30846e-05
2.26726e-05
2.30877e-05
3.85283e-07
2.87144e-06
2.87222e-06
2.82696e-06
2.82758e-06
1.89292e-06
8.396e-06
1.87313e-06
8.53006e-06
6.22104e-07
1.37211e-06
3.45239e-07
3.55939e-07
6.25439e-07
1.38717e-06
3.38766e-07
6.22106e-07
1.37234e-06
3.45242e-07
3.55946e-07
6.25443e-07
1.3874e-06
3.38768e-07
1.9023e-06
8.64732e-06
8.55708e-06
1.91523e-06
1.90232e-06
8.64783e-06
8.5578e-06
1.91524e-06
6.21489e-07
3.49912e-07
1.40848e-06
3.26405e-07
1.39557e-06