/*--------------------------------*- C++ -*----------------------------------*\
| =========                 |                                                 |
| \\      /  F ield         | OpenFOAM: The Open Source CFD Toolbox           |
|  \\    /   O peration     | Version:  v2006                                 |
|   \\  /    A nd           | Website:  www.openfoam.com                      |
|    \\/     M anipulation  |                                                 |
\*---------------------------------------------------------------------------*/
FoamFile
{
    version     2.0;
    format      ascii;
    class       volScalarField;
    location    "125";
    object      nut;
}
// * * * * * * * * * * * * * * * * * * * * * * * * * * * * * * * * * * * * * //

dimensions      [0 2 -1 0 0 0 0];


internalField   nonuniform List<scalar> 
43024
(
0.000233973
0.000233116
0.000233116
0.000233423
0.000232532
0.000227802
0.000227801
0.000223866
0.000230516
0.000220319
0.000220318
0.000209109
0.000227799
0.000211664
0.000211662
0.000193783
0.000224433
0.000202648
0.000202645
0.000179707
0.000220552
0.00019377
0.000193767
0.000167336
0.000216305
0.000185273
0.00018527
0.000156583
0.000211821
0.000177231
0.000177228
0.000147202
0.000207208
0.000169686
0.000169683
0.000138946
0.000202546
0.000162609
0.000162605
0.00013161
0.00019789
0.000155946
0.000155942
0.000124948
0.000193276
0.000149644
0.000149639
0.000118811
0.000188684
0.000143663
0.000143658
0.000113163
0.000184152
0.000137951
0.000137945
0.000107927
0.000179704
0.000132459
0.000132453
0.000103051
0.00017534
0.000127186
0.000127181
9.84312e-05
0.000171036
0.000122145
0.000122143
9.42467e-05
0.000166787
0.000117367
0.000117364
9.06569e-05
0.00016259
0.000112882
0.000112881
8.77279e-05
0.000158413
0.000108749
0.000108749
8.53804e-05
0.000154268
0.000105021
0.000105022
8.36647e-05
0.000234267
0.000234448
0.000234449
0.000234267
0.000234448
0.000234449
0.000234274
0.000234274
0.000234274
0.000234274
0.000234448
0.000234448
0.000234266
0.000234448
0.000234448
0.000234266
0.000233423
0.000226205
0.000233116
0.000233114
0.000229361
0.000229357
0.000233422
0.000226205
0.000233114
0.000233114
0.000229359
0.000229356
0.000233116
0.000229364
0.00022936
0.000233423
0.000226203
0.000233114
0.000229363
0.000229359
0.000226201
0.000223867
0.000212232
0.000227799
0.000227794
0.000222332
0.000222326
0.000223867
0.000212233
0.000227797
0.000227793
0.000222333
0.000222325
0.000227797
0.000222337
0.000222329
0.000223866
0.000212229
0.000227796
0.000222336
0.000222331
0.000212225
0.000209113
0.000197064
0.000220313
0.000220307
0.00021388
0.000213873
0.00020911
0.000197064
0.000220314
0.000220305
0.000213885
0.000213871
0.00022031
0.000213889
0.000213876
0.00020911
0.00019706
0.000220312
0.000213886
0.000213881
0.000197054
0.000193791
0.00018288
0.000211654
0.000211647
0.00020489
0.000204883
0.000193789
0.00018288
0.00021166
0.000211645
0.000204899
0.000204881
0.00021165
0.000204903
0.000204885
0.000193787
0.000182875
0.000211656
0.0002049
0.000204895
0.000182868
0.000179716
0.000170272
0.000202634
0.000202627
0.000195943
0.000195936
0.000179714
0.000170271
0.000202644
0.000202624
0.000195956
0.000195933
0.000202629
0.000195959
0.000195938
0.000179711
0.000170266
0.00020264
0.000195957
0.000195951
0.000170259
0.000167347
0.000159246
0.000193753
0.000193746
0.000187337
0.00018733
0.000167346
0.000159246
0.000193767
0.000193743
0.000187354
0.000187327
0.000193747
0.000187356
0.000187331
0.000167342
0.000159241
0.000193762
0.000187353
0.000187348
0.000159233
0.000156595
0.000149617
0.000185253
0.000185246
0.000179173
0.000179166
0.000156594
0.000149616
0.00018527
0.000185242
0.000179193
0.000179163
0.000185247
0.000179195
0.000179168
0.00015659
0.000149611
0.000185265
0.000179192
0.000179188
0.000149603
0.000147215
0.000141111
0.000177208
0.000177201
0.000171501
0.000171494
0.000147213
0.00014111
0.000177229
0.000177198
0.000171524
0.000171491
0.000177203
0.000171526
0.000171496
0.00014721
0.000141105
0.000177223
0.000171523
0.000171519
0.000141095
0.000138959
0.000133551
0.00016966
0.000169653
0.00016431
0.000164303
0.000138958
0.00013355
0.000169684
0.00016965
0.000164336
0.0001643
0.000169655
0.000164337
0.000164304
0.000138954
0.000133545
0.000169678
0.000164334
0.00016433
0.000133535
0.000131624
0.000126689
0.00016258
0.000162573
0.000157547
0.00015754
0.000131623
0.000126689
0.000162607
0.00016257
0.000157576
0.000157538
0.000162575
0.000157577
0.000157543
0.000131619
0.000126683
0.000162602
0.000157574
0.000157571
0.000126672
0.000124963
0.000120366
0.000155916
0.000155909
0.000151159
0.000151152
0.000124962
0.000120365
0.000155944
0.000155905
0.000151189
0.000151149
0.000155911
0.00015119
0.000151154
0.000124958
0.000120359
0.00015594
0.000151187
0.000151184
0.000120348
0.000118825
0.00011443
0.000149611
0.000149604
0.000145097
0.000145091
0.000118824
0.000114429
0.000149642
0.000149601
0.000145129
0.000145088
0.000149606
0.000145129
0.000145093
0.000118819
0.000114424
0.000149637
0.000145127
0.000145125
0.000114412
0.000113177
0.00010884
0.000143628
0.000143622
0.000139319
0.000139312
0.000113176
0.000108839
0.000143661
0.000143618
0.000139352
0.000139309
0.000143624
0.000139352
0.000139315
0.000113172
0.000108834
0.000143656
0.000139349
0.000139348
0.000108822
0.000107942
0.000103706
0.000137915
0.000137908
0.000133778
0.000133771
0.00010794
0.000103705
0.000137948
0.000137905
0.000133812
0.000133768
0.000137911
0.000133811
0.000133774
0.000107936
0.000103701
0.000137944
0.000133809
0.000133808
0.000103689
0.000103066
9.9131e-05
0.000132422
0.000132415
0.00012845
0.000128442
0.000103064
9.91291e-05
0.000132455
0.000132412
0.000128483
0.000128439
0.000132418
0.000128484
0.000128446
0.000103061
9.91254e-05
0.000132451
0.000128482
0.00012848
9.91149e-05
9.84457e-05
9.49923e-05
0.00012715
0.000127142
0.000123345
0.000123335
9.84437e-05
9.49903e-05
0.000127183
0.000127139
0.000123377
0.000123332
0.000127146
0.000123378
0.000123339
9.84409e-05
9.4987e-05
0.000127179
0.000123376
0.000123373
9.49772e-05
9.42604e-05
9.14389e-05
0.000122112
0.000122102
0.000118482
0.000118471
9.42583e-05
9.14367e-05
0.000122143
0.000122099
0.000118512
0.000118468
0.000122106
0.000118514
0.000118476
9.42558e-05
9.14339e-05
0.000122139
0.000118513
0.000118508
9.14243e-05
9.06681e-05
8.83806e-05
0.000117334
0.000117322
0.000113927
0.000113916
9.06659e-05
8.83785e-05
0.000117364
0.000117319
0.000113956
0.000113912
0.000117328
0.000113959
0.000113921
9.0665e-05
8.83761e-05
0.000117359
0.000113957
0.000113952
8.83672e-05
8.77392e-05
8.59122e-05
0.000112851
0.000112838
0.000109695
0.000109683
8.77371e-05
8.59099e-05
0.00011288
0.000112835
0.000109722
0.00010968
0.000112844
0.000109724
0.000109689
8.77359e-05
8.5908e-05
0.000112875
0.000109725
0.000109719
8.58996e-05
8.53916e-05
8.4073e-05
0.000108719
0.000108706
0.000105855
0.000105841
8.53893e-05
8.40708e-05
0.000108747
0.000108704
0.000105881
0.000105839
0.000108713
0.000105883
0.000105848
8.5388e-05
8.40691e-05
0.000108743
0.000105883
0.000105877
8.40612e-05
8.36755e-05
0.000104993
0.00010498
8.36729e-05
0.000105019
0.000104977
0.000104987
8.36718e-05
0.000105015
0.00023473
0.000234746
0.000234729
0.000234729
0.000235118
0.000234798
0.000234702
0.000234727
0.000235118
0.000234798
0.000234727
0.000234701
0.000234867
0.000233566
0.000233566
0.000104652
3.87412e-05
0.000129113
3.98251e-05
2.16828e-05
2.28305e-05
0.000104655
3.87378e-05
0.000129112
3.9821e-05
0.000233973
0.000233973
0.000233973
0.000232935
0.000232935
0.000232935
0.000232935
0.0002062
9.36742e-05
0.000233969
0.000231994
0.000222612
8.72281e-05
0.000233611
2.16821e-05
2.283e-05
0.000206193
0.000233969
9.36713e-05
0.000231994
0.000222617
0.000233611
8.72254e-05
4.77972e-05
4.77892e-05
0.000231344
4.40186e-05
4.40114e-05
7.25721e-05
4.24351e-05
8.14003e-05
4.37643e-05
2.47748e-05
2.54625e-05
7.25668e-05
4.24309e-05
8.13939e-05
4.37601e-05
0.000232532
0.000232532
0.000232532
0.000231084
0.000231084
0.000231084
0.000231084
0.000167494
7.9434e-05
0.000232081
0.000226096
0.000180209
7.45137e-05
0.000231376
2.47737e-05
2.54619e-05
0.00016749
0.00023208
7.94327e-05
0.000226095
0.000180205
0.000231376
7.45122e-05
3.91607e-05
3.91531e-05
0.000219592
3.65756e-05
3.65669e-05
5.62855e-05
4.55476e-05
6.11314e-05
4.6414e-05
2.60125e-05
2.61164e-05
5.62813e-05
4.55439e-05
6.11274e-05
4.64099e-05
0.000230515
0.000230515
0.000230515
0.000228543
0.000228543
0.000228542
0.000228542
0.000138602
6.74234e-05
0.000228643
0.000218229
0.000148063
6.35177e-05
0.000227536
2.60117e-05
2.61152e-05
0.000138599
0.000228642
6.74213e-05
0.000218227
0.000148058
0.000227536
6.3517e-05
3.32158e-05
3.32094e-05
0.000204609
3.19907e-05
3.19841e-05
4.69678e-05
4.75002e-05
4.99126e-05
4.80062e-05
2.60462e-05
2.59379e-05
4.69645e-05
4.74964e-05
4.99091e-05
4.80019e-05
0.000227798
0.000227798
0.000227797
0.000225329
0.000225328
0.000225327
0.000225327
0.000117549
5.82061e-05
0.00022372
0.000209418
0.000124599
5.54853e-05
0.000222309
2.60451e-05
2.59368e-05
0.000117546
0.000223719
5.82044e-05
0.000209416
0.000124596
0.000222308
5.54844e-05
3.06162e-05
3.06105e-05
0.000189774
3.03031e-05
3.02976e-05
4.14302e-05
4.85838e-05
4.32469e-05
4.88415e-05
2.56744e-05
2.55187e-05
4.14274e-05
4.85798e-05
4.32439e-05
4.88371e-05
0.000224433
0.000224431
0.000224431
0.000221563
0.000221562
0.00022156
0.00022156
0.000102115
5.1878e-05
0.00021777
0.000200402
0.000107375
5.0076e-05
0.00021618
2.56733e-05
2.55175e-05
0.000102112
0.000217768
5.18766e-05
0.0002004
0.000107374
0.000216178
5.00752e-05
3.01766e-05
3.01722e-05
0.000176364
3.04049e-05
3.03992e-05
3.81571e-05
4.9095e-05
3.92446e-05
4.92005e-05
2.52368e-05
2.5093e-05
3.81547e-05
4.90907e-05
3.92421e-05
4.91958e-05
0.000220551
0.00022055
0.000220549
0.000217393
0.000217392
0.00021739
0.00021739
9.04994e-05
4.77386e-05
0.000211268
0.000191605
9.44545e-05
4.66127e-05
0.000209602
2.52356e-05
2.50918e-05
9.04956e-05
0.000211266
4.77373e-05
0.000191602
9.44539e-05
0.0002096
4.66118e-05
3.09647e-05
3.09605e-05
0.000164556
3.15671e-05
3.15621e-05
3.63752e-05
4.92769e-05
3.69416e-05
4.92982e-05
2.48479e-05
2.47318e-05
3.63731e-05
4.92721e-05
3.69394e-05
4.92935e-05
0.000216303
0.000216301
0.000216301
0.000212958
0.000212956
0.000212954
0.000212953
8.15935e-05
4.5168e-05
0.000204578
0.000183217
8.46656e-05
4.4552e-05
0.000202906
2.48467e-05
2.47305e-05
8.15894e-05
0.000204575
4.51668e-05
0.000183214
8.46656e-05
0.000202904
4.45512e-05
3.25181e-05
3.25142e-05
0.000154262
3.33427e-05
3.33382e-05
3.5676e-05
4.92942e-05
3.58225e-05
4.92843e-05
2.45341e-05
2.44461e-05
3.56741e-05
4.92894e-05
3.58206e-05
4.92796e-05
0.00021182
0.000211817
0.000211817
0.000208368
0.000208366
0.000208364
0.000208363
7.46483e-05
4.37709e-05
0.000197937
0.000175298
7.71127e-05
4.35219e-05
0.000196303
2.45329e-05
2.44449e-05
7.46443e-05
0.000197934
4.37698e-05
0.000175295
7.71128e-05
0.0001963
4.35212e-05
3.45494e-05
3.45458e-05
0.000145215
3.55022e-05
3.54983e-05
3.57589e-05
4.9258e-05
3.56388e-05
4.92464e-05
2.42935e-05
2.42282e-05
3.57573e-05
4.92531e-05
3.56371e-05
4.92416e-05
0.000207206
0.000207203
0.000207203
0.000203712
0.00020371
0.000203707
0.000203707
6.91776e-05
4.32431e-05
0.000191482
0.000167875
7.11978e-05
4.32343e-05
0.0001899
2.42923e-05
2.4227e-05
6.91745e-05
0.000191478
4.3242e-05
0.000167872
7.11974e-05
0.000189897
4.32335e-05
3.68668e-05
3.68638e-05
0.000137212
3.78953e-05
3.78919e-05
3.65561e-05
4.92286e-05
3.62067e-05
4.92246e-05
2.41147e-05
2.40672e-05
3.65534e-05
4.92237e-05
3.62052e-05
4.92198e-05
0.000202544
0.000202541
0.00020254
0.000199051
0.000199049
0.000199046
0.000199045
6.48676e-05
4.33831e-05
0.000185239
0.000160907
6.6507e-05
4.35656e-05
0.000183716
2.41135e-05
2.4066e-05
6.48653e-05
0.000185235
4.33821e-05
0.000160904
6.65051e-05
0.000183713
4.35649e-05
3.93417e-05
3.9339e-05
0.000130028
4.04024e-05
4.03995e-05
3.80613e-05
4.9224e-05
3.73688e-05
4.92292e-05
2.39851e-05
2.39514e-05
3.80601e-05
4.92191e-05
3.73684e-05
4.92244e-05
0.000197888
0.000197884
0.000197884
0.000194424
0.000194421
0.000194418
0.000194418
6.1508e-05
4.40645e-05
0.000179253
0.00015434
6.27537e-05
4.44054e-05
0.000177802
2.39839e-05
2.39503e-05
6.1506e-05
0.000179249
4.40636e-05
0.000154337
6.27513e-05
0.000177799
4.44048e-05
4.18696e-05
4.18673e-05
0.000123451
4.29273e-05
4.29249e-05
4.01133e-05
4.9242e-05
3.91212e-05
4.92551e-05
2.38932e-05
2.38698e-05
4.01126e-05
4.9237e-05
3.91193e-05
4.92503e-05
0.000193274
0.00019327
0.00019327
0.000189832
0.00018983
0.000189826
0.000189826
5.90058e-05
4.51944e-05
0.000173548
0.000148119
5.98523e-05
4.56669e-05
0.000172163
2.38921e-05
2.38687e-05
5.90041e-05
0.000173544
4.51936e-05
0.000148116
5.98495e-05
0.00017216
4.56663e-05
4.43656e-05
4.43637e-05
0.000117337
4.53916e-05
4.53897e-05
4.26391e-05
4.92759e-05
4.1429e-05
4.92926e-05
2.38287e-05
2.38128e-05
4.26386e-05
4.92709e-05
4.14272e-05
4.92876e-05
0.000188682
0.000188678
0.000188678
0.000185275
0.000185272
0.000185269
0.000185269
5.72046e-05
4.66965e-05
0.000168095
0.00014221
5.77207e-05
4.72766e-05
0.000166768
2.38278e-05
2.38116e-05
5.72034e-05
0.000168092
4.6696e-05
0.000142207
5.77186e-05
0.000166765
4.72762e-05
4.67619e-05
4.67602e-05
0.000111566
4.77364e-05
4.7735e-05
4.55712e-05
4.93155e-05
4.42159e-05
4.93324e-05
2.37837e-05
2.37723e-05
4.55711e-05
4.93105e-05
4.42136e-05
4.93274e-05
0.00018415
0.000184145
0.000184145
0.000180813
0.00018081
0.000180806
0.000180806
5.60339e-05
4.84971e-05
0.00016286
0.000136555
5.63291e-05
4.91592e-05
0.000161582
2.37825e-05
2.37711e-05
5.60327e-05
0.000162857
4.84967e-05
0.000136553
5.63271e-05
0.000161578
4.91589e-05
4.90099e-05
4.90084e-05
0.000106189
4.99221e-05
4.9921e-05
4.88176e-05
4.93544e-05
4.73597e-05
4.937e-05
2.37509e-05
2.37425e-05
4.88172e-05
4.93494e-05
4.73577e-05
4.9365e-05
0.000179702
0.000179698
0.000179698
0.000176427
0.000176425
0.000176421
0.000176421
5.55207e-05
5.05201e-05
0.000157807
0.000131121
5.56005e-05
5.12398e-05
0.000156575
2.37497e-05
2.37413e-05
5.55196e-05
0.000157804
5.05198e-05
0.000131118
5.55988e-05
0.000156572
5.12397e-05
5.10827e-05
5.10815e-05
0.000101346
5.19276e-05
5.19263e-05
5.22454e-05
4.939e-05
5.07371e-05
4.94041e-05
2.37257e-05
2.37191e-05
5.22453e-05
4.9385e-05
5.07352e-05
4.93992e-05
0.000175337
0.000175333
0.000175333
0.000172103
0.0001721
0.000172096
0.000172096
5.56461e-05
5.26929e-05
0.000152914
0.000125902
5.55169e-05
5.34472e-05
0.000151715
2.37245e-05
2.37179e-05
5.56452e-05
0.000152911
5.26929e-05
0.0001259
5.55155e-05
0.000151712
5.34472e-05
5.29712e-05
5.29699e-05
9.6986e-05
5.37488e-05
5.37474e-05
5.57152e-05
4.94222e-05
5.42091e-05
4.94352e-05
2.37049e-05
2.36994e-05
5.57149e-05
4.94173e-05
5.42074e-05
4.94303e-05
0.000171033
0.000171029
0.000171029
0.000167846
0.000167843
0.000167839
0.000167839
5.63843e-05
5.49485e-05
0.000148168
0.000120921
5.60562e-05
5.57168e-05
0.000147002
2.37038e-05
2.36982e-05
5.63835e-05
0.000148166
5.49486e-05
0.000120919
5.60548e-05
0.000147
5.5717e-05
5.46807e-05
5.46794e-05
9.31256e-05
5.53923e-05
5.53907e-05
5.90942e-05
4.94523e-05
5.76378e-05
4.94646e-05
2.36869e-05
2.36819e-05
5.90933e-05
4.94471e-05
5.76367e-05
4.94592e-05
0.000166784
0.00016678
0.00016678
0.000163629
0.000163626
0.000163622
0.000163622
5.76928e-05
5.72281e-05
0.00014354
0.0001162
5.71822e-05
5.79932e-05
0.0001424
2.36858e-05
2.36808e-05
5.76922e-05
0.000143538
5.72282e-05
0.000116199
5.71811e-05
0.000142398
5.79934e-05
5.62247e-05
5.62231e-05
8.98211e-05
5.68719e-05
5.68703e-05
6.22734e-05
4.94802e-05
6.09063e-05
4.94916e-05
2.36704e-05
2.36659e-05
6.22713e-05
4.94751e-05
6.0906e-05
4.94867e-05
0.000162587
0.000162583
0.000162583
0.000159456
0.000159453
0.000159449
0.000159449
5.95066e-05
5.94837e-05
0.00013901
0.0001118
5.88386e-05
6.02317e-05
0.000137911
2.36693e-05
2.36648e-05
5.95061e-05
0.000139009
5.9484e-05
0.0001118
5.88376e-05
0.000137909
6.0232e-05
5.7621e-05
5.76192e-05
8.70561e-05
5.82069e-05
5.82052e-05
6.51814e-05
4.95069e-05
6.3926e-05
4.95176e-05
2.36554e-05
2.36507e-05
6.51766e-05
4.95018e-05
6.39275e-05
4.95127e-05
0.00015841
0.000158406
0.000158406
0.000155298
0.000155294
0.00015529
0.00015529
6.17432e-05
6.16789e-05
0.00013459
0.00010775
6.09456e-05
6.24013e-05
0.000133514
2.36541e-05
2.36499e-05
6.17428e-05
0.000134589
6.16792e-05
0.000107751
6.09449e-05
0.000133513
6.24017e-05
5.8884e-05
5.8882e-05
8.49009e-05
5.94167e-05
5.94149e-05
6.77763e-05
4.95317e-05
6.66503e-05
4.95416e-05
2.36413e-05
2.36373e-05
6.77693e-05
4.95269e-05
6.66556e-05
4.95371e-05
0.000154265
0.000154261
0.000154261
6.43066e-05
6.37881e-05
0.000130297
0.000104153
6.34131e-05
6.44829e-05
0.000129273
2.36399e-05
2.3636e-05
6.43064e-05
0.000130296
6.37887e-05
0.000104154
6.34125e-05
0.000129272
6.44815e-05
6.00282e-05
6.00261e-05
8.33785e-05
6.05151e-05
6.05131e-05
0.000234867
0.000233565
0.000233566
2.32577e-05
0.00021417
2.32565e-05
0.00021417
0.000234435
5.13286e-05
5.1325e-05
0.00022999
0.000229992
0.000235118
0.000234798
0.000234701
0.000234727
0.000235118
0.000234798
0.000234701
0.000234727
0.000234477
4.02628e-05
0.000218815
0.000147826
0.000234477
4.02614e-05
0.000218815
0.000147819
0.000233888
0.000234474
0.000100092
0.00023427
0.000233359
0.000234597
0.000228477
0.000233888
0.000234474
0.000100094
0.000234271
0.000233359
0.000234597
0.000228477
0.000234867
0.000233565
0.000233566
2.32567e-05
0.00021417
0.000234435
5.13262e-05
5.13242e-05
0.000229992
0.000229991
2.32571e-05
0.000214168
0.000235118
0.000234798
0.000234702
0.000234727
0.000235118
0.000234798
0.000234727
0.000234702
0.000234477
4.02592e-05
0.000218816
0.000147825
0.000233889
0.000234474
0.000100071
0.00023427
0.000233359
0.000234597
0.000228475
0.000234477
4.0259e-05
0.000218816
0.000147837
0.000233889
0.000234474
0.000234271
0.000100081
0.000234597
0.000233359
0.000228477
0.00023473
0.000234746
0.000234729
0.000234729
0.00023473
0.000234746
0.000234729
0.000234729
0.00023473
0.000234746
0.000234729
0.000234729
0.000234591
0.000234574
0.000234253
0.000234253
0.000234592
0.000234592
0.000234252
0.000234591
0.000234574
0.000234253
0.000234253
0.000234592
0.000234592
0.000234253
0.000234591
0.000234574
0.000234253
0.000234253
0.000234592
0.000234592
0.000234253
0.000234591
0.000234574
0.000234253
0.000234253
0.000234592
0.000234592
0.000234253
0.000235118
0.000234798
0.000234727
0.000234702
0.000233889
0.000234474
0.000100083
0.000234271
0.000233359
0.000234597
0.000228476
0.000234477
4.02597e-05
0.000218816
0.00014784
0.000233888
0.000234474
0.000234271
0.000100086
0.000234597
0.000233359
0.000228479
0.000234477
4.02592e-05
0.000218817
0.000147838
0.000234867
0.000233566
0.000233566
2.32564e-05
0.000214168
0.000234435
5.13224e-05
5.13268e-05
0.000229992
0.000229992
2.32571e-05
0.000214169
0.000235118
0.000234798
0.000234727
0.000234702
0.000233888
0.000234474
0.000234271
0.000100076
0.000234597
0.000233359
0.000228475
0.000233888
0.000234474
0.000234271
0.000100081
0.000234597
0.000233359
0.000228476
0.000234477
4.02596e-05
0.000218816
0.000147817
0.000234477
4.02585e-05
0.000218816
0.000147824
0.000234435
5.13293e-05
5.13209e-05
0.000229992
0.000229992
2.3257e-05
0.000214168
2.32563e-05
0.000214168
2.16841e-05
2.28327e-05
2.16825e-05
2.28307e-05
4.78052e-05
4.77911e-05
0.000231346
4.40181e-05
4.40092e-05
2.44819e-05
2.33059e-05
2.44797e-05
2.33039e-05
0.000229667
4.00656e-05
4.00559e-05
4.31047e-05
4.3089e-05
0.000104646
3.87399e-05
0.000129132
3.98226e-05
0.000206202
9.3684e-05
0.000233969
0.000231993
0.000222609
8.72318e-05
0.000233611
0.0002062
9.36726e-05
0.000233969
0.00023199
0.000222611
8.72211e-05
0.000233611
9.84288e-05
4.19631e-05
4.03784e-05
8.55813e-05
9.8429e-05
4.19604e-05
4.03762e-05
8.55714e-05
0.000200083
0.000230759
8.08092e-05
0.000232683
8.56704e-05
0.000233189
0.00018564
0.000200082
0.000230755
8.08001e-05
0.000232682
8.56548e-05
0.000233188
0.000185635
4.77948e-05
4.77945e-05
0.000231346
4.40145e-05
4.40139e-05
2.16832e-05
2.28319e-05
2.44799e-05
2.33037e-05
0.000229667
4.00601e-05
4.00629e-05
4.30916e-05
4.30973e-05
2.44813e-05
2.33053e-05
0.000206195
9.36598e-05
0.000233969
0.00023199
0.000222609
8.72131e-05
0.000233611
0.000104645
3.87376e-05
0.000129125
3.98198e-05
0.000206196
0.000233969
9.3667e-05
0.000231989
0.000222613
0.000233611
8.72136e-05
9.84098e-05
4.1959e-05
4.03744e-05
8.55755e-05
0.000200081
0.000230756
8.07948e-05
0.000232682
8.56482e-05
0.000233189
0.000185633
9.84187e-05
4.19578e-05
4.0374e-05
8.55753e-05
0.00020008
0.000230754
0.000232682
8.0792e-05
0.000233188
8.56501e-05
0.000185631
0.000104657
3.87384e-05
0.000129108
3.9822e-05
0.000206202
0.000233969
9.36717e-05
0.000231992
0.000222614
0.000233611
8.72234e-05
0.000104655
3.87378e-05
0.00012913
3.98218e-05
0.000200082
0.00023076
8.08089e-05
0.000232683
8.56661e-05
0.000233189
0.000185636
9.84115e-05
4.19603e-05
4.0376e-05
8.55764e-05
0.000200081
0.000230757
0.000232682
8.08048e-05
0.000233189
8.56633e-05
0.000185635
9.84186e-05
4.19596e-05
4.03748e-05
8.55764e-05
4.77944e-05
4.77986e-05
0.000231345
4.40088e-05
4.40187e-05
2.16834e-05
2.28322e-05
2.44788e-05
2.33032e-05
0.000229667
4.00516e-05
4.00629e-05
4.30892e-05
4.30951e-05
2.44806e-05
2.33053e-05
0.000206194
0.000233969
9.36641e-05
0.00023199
0.000222615
0.000233611
8.72168e-05
0.000104645
3.87384e-05
0.000129125
3.98221e-05
0.000104639
3.87368e-05
0.000129125
3.98203e-05
0.000200083
0.000230759
0.000232683
8.08055e-05
0.000233189
8.5661e-05
0.000185632
0.000200076
0.000230756
0.000232682
8.07951e-05
0.000233188
8.56508e-05
0.000185629
9.84198e-05
4.19599e-05
4.03758e-05
8.55683e-05
9.84181e-05
4.19581e-05
4.03735e-05
8.55701e-05
2.16831e-05
2.28312e-05
2.16821e-05
2.28299e-05
0.000229667
4.00663e-05
4.00565e-05
4.30953e-05
4.30846e-05
2.44804e-05
2.33045e-05
2.44792e-05
2.33031e-05
2.47767e-05
2.54649e-05
2.47748e-05
2.54626e-05
3.91723e-05
3.9155e-05
0.000219597
3.65754e-05
3.65684e-05
2.59552e-05
2.56201e-05
2.59527e-05
2.5618e-05
0.000216777
3.38506e-05
3.38429e-05
3.57336e-05
3.57181e-05
7.2561e-05
4.24327e-05
8.14014e-05
4.37613e-05
0.000167497
7.94389e-05
0.000232081
0.000226093
0.000180211
7.45157e-05
0.000231376
0.000167492
7.94242e-05
0.00023208
0.000226087
0.000180206
7.45054e-05
0.000231375
6.96326e-05
4.52388e-05
4.41518e-05
6.32395e-05
6.96349e-05
4.5236e-05
4.41491e-05
6.32375e-05
0.000162886
0.000224265
6.86749e-05
0.000229654
7.31545e-05
0.000230568
0.000151906
0.000162881
0.000224259
6.86638e-05
0.000229653
7.31428e-05
0.000230566
0.000151902
3.91589e-05
3.91617e-05
0.000219597
3.65698e-05
3.65731e-05
2.47762e-05
2.54637e-05
2.59529e-05
2.56179e-05
0.000216775
3.38453e-05
3.38488e-05
3.57215e-05
3.57259e-05
2.59542e-05
2.56191e-05
0.00016749
7.94223e-05
0.00023208
0.000226091
0.000180205
7.45025e-05
0.000231375
7.25727e-05
4.243e-05
8.13931e-05
4.3759e-05
0.000167483
0.00023208
7.9423e-05
0.000226086
0.000180203
0.000231375
7.44969e-05
6.96279e-05
4.52347e-05
4.41479e-05
6.32349e-05
0.000162879
0.000224264
6.86628e-05
0.000229654
7.31415e-05
0.000230566
0.0001519
6.96186e-05
4.52335e-05
4.41466e-05
6.32327e-05
0.000162877
0.000224258
0.000229653
6.86588e-05
0.000230565
7.31423e-05
0.000151895
7.25676e-05
4.24325e-05
8.13959e-05
4.37614e-05
0.000167491
0.00023208
7.94312e-05
0.00022609
0.000180206
0.000231375
7.45106e-05
7.25664e-05
4.24313e-05
8.13949e-05
4.376e-05
0.000162882
0.000224269
6.86724e-05
0.000229655
7.31526e-05
0.000230567
0.000151903
6.96298e-05
4.52363e-05
4.41492e-05
6.32356e-05
0.000162879
0.000224262
0.000229654
6.86697e-05
0.000230566
7.31487e-05
0.0001519
6.96276e-05
4.52349e-05
4.41479e-05
6.32343e-05
3.91574e-05
3.91622e-05
0.000219595
3.65627e-05
3.65752e-05
2.47757e-05
2.54636e-05
2.59519e-05
2.56171e-05
0.000216775
3.38399e-05
3.38496e-05
3.57192e-05
3.57248e-05
2.59538e-05
2.56189e-05
0.000167485
0.00023208
7.94221e-05
0.00022609
0.0001802
0.000231375
7.45019e-05
7.2566e-05
4.24319e-05
8.13998e-05
4.37609e-05
7.25672e-05
4.24301e-05
8.13957e-05
4.37586e-05
0.000162879
0.000224268
0.000229655
6.86711e-05
0.000230567
7.315e-05
0.0001519
0.000162874
0.000224263
0.000229653
6.86615e-05
0.000230565
7.31404e-05
0.000151895
6.96271e-05
4.52356e-05
4.41487e-05
6.32345e-05
6.96231e-05
4.52335e-05
4.41466e-05
6.32314e-05
2.47753e-05
2.54628e-05
2.47741e-05
2.54616e-05
0.000216774
3.38493e-05
3.3842e-05
3.57238e-05
3.5717e-05
2.59533e-05
2.56182e-05
2.59519e-05
2.56169e-05
2.60147e-05
2.61187e-05
2.60124e-05
2.61162e-05
3.32234e-05
3.32103e-05
0.000204619
3.19935e-05
3.19849e-05
2.60844e-05
2.61194e-05
2.60817e-05
2.61168e-05
0.000201351
3.08803e-05
3.08713e-05
3.15713e-05
3.1561e-05
5.62835e-05
4.55452e-05
6.11293e-05
4.64111e-05
0.000138606
6.74251e-05
0.000228644
0.000218223
0.000148065
6.352e-05
0.000227536
0.000138602
6.74142e-05
0.000228641
0.000218216
0.00014806
6.35093e-05
0.000227534
5.47705e-05
4.7324e-05
4.6652e-05
5.10088e-05
5.47684e-05
4.73209e-05
4.66495e-05
5.10069e-05
0.000135413
0.000216074
5.91353e-05
0.000225066
6.2424e-05
0.000226343
0.000127256
0.000135408
0.000216068
5.91254e-05
0.000225065
6.2414e-05
0.00022634
0.000127253
3.32122e-05
3.32177e-05
0.000204619
3.19866e-05
3.19911e-05
2.60139e-05
2.61177e-05
2.60817e-05
2.61169e-05
0.000201349
3.08731e-05
3.08776e-05
3.15636e-05
3.15677e-05
2.60833e-05
2.61184e-05
0.000138599
6.74135e-05
0.000228642
0.000218225
0.000148059
6.35093e-05
0.000227535
5.62742e-05
4.55426e-05
6.11276e-05
4.64083e-05
0.000138593
0.00022864
6.74116e-05
0.000218214
0.000148057
0.000227534
6.35075e-05
5.47667e-05
4.73197e-05
4.66483e-05
5.10051e-05
0.000135406
0.000216078
5.91255e-05
0.000225066
6.24138e-05
0.000226341
0.000127249
5.47671e-05
4.7318e-05
4.66466e-05
5.10025e-05
0.000135405
0.000216066
0.000225064
5.91237e-05
0.000226339
6.24114e-05
0.000127244
5.62825e-05
4.55454e-05
6.11292e-05
4.64115e-05
0.000138599
0.000228642
6.74197e-05
0.000218219
0.000148059
0.000227535
6.35151e-05
5.62812e-05
4.55439e-05
6.11271e-05
4.64099e-05
0.000135411
0.000216082
5.91331e-05
0.000225067
6.24223e-05
0.000226342
0.000127252
5.47681e-05
4.73214e-05
4.66499e-05
5.10061e-05
0.000135408
0.00021607
0.000225065
5.91306e-05
0.000226341
6.24189e-05
0.00012725
5.47665e-05
4.73196e-05
4.66482e-05
5.10049e-05
3.32089e-05
3.32164e-05
0.000204615
3.19831e-05
3.19908e-05
2.60134e-05
2.61173e-05
2.60807e-05
2.61158e-05
0.000201348
3.08699e-05
3.08769e-05
3.15596e-05
3.15666e-05
2.60828e-05
2.6118e-05
0.000138595
0.00022864
6.74119e-05
0.000218222
0.000148054
0.000227534
6.35075e-05
5.62813e-05
4.55446e-05
6.11269e-05
4.64108e-05
5.62789e-05
4.55426e-05
6.11238e-05
4.64085e-05
0.000135406
0.000216081
0.000225066
5.91322e-05
0.000226341
6.24205e-05
0.000127249
0.000135402
0.000216074
0.000225065
5.91236e-05
0.000226339
6.24119e-05
0.000127246
5.47666e-05
4.73207e-05
4.6649e-05
5.10051e-05
5.47642e-05
4.73181e-05
4.66468e-05
5.10032e-05
2.60129e-05
2.61168e-05
2.60116e-05
2.61153e-05
0.000201346
3.08766e-05
3.08707e-05
3.15662e-05
3.15602e-05
2.60823e-05
2.61175e-05
2.60808e-05
2.6116e-05
2.60486e-05
2.59408e-05
2.60461e-05
2.59378e-05
3.06203e-05
3.06111e-05
0.000189786
3.03062e-05
3.02981e-05
2.5741e-05
2.58844e-05
2.57379e-05
2.5882e-05
0.000186553
3.01716e-05
3.01703e-05
3.02074e-05
3.01994e-05
4.69661e-05
4.74975e-05
4.99107e-05
4.80028e-05
0.000117553
5.82077e-05
0.000223721
0.000209408
0.000124602
5.54874e-05
0.000222308
0.000117551
5.81985e-05
0.000223718
0.000209401
0.000124598
5.54784e-05
0.000222306
4.61587e-05
4.84997e-05
4.81313e-05
4.38458e-05
4.61571e-05
4.84961e-05
4.81284e-05
4.38444e-05
0.000115369
0.000207151
5.24981e-05
0.000219325
5.4724e-05
0.000220843
0.000109276
0.000115366
0.000207144
5.24902e-05
0.000219323
5.47155e-05
0.000220839
0.000109274
3.0613e-05
3.06175e-05
0.000189785
3.02996e-05
3.03041e-05
2.60478e-05
2.59395e-05
2.5738e-05
2.58821e-05
0.00018655
3.01654e-05
3.01719e-05
3.0201e-05
3.02055e-05
2.57396e-05
2.58837e-05
0.000117546
5.81984e-05
0.000223719
0.000209414
0.000124595
5.54785e-05
0.000222307
4.6963e-05
4.74946e-05
4.99062e-05
4.79999e-05
0.000117542
0.000223716
5.81961e-05
0.000209398
0.000124594
0.000222305
5.54766e-05
4.61555e-05
4.84952e-05
4.81274e-05
4.38428e-05
0.000115363
0.000207158
5.249e-05
0.000219324
5.47155e-05
0.00022084
0.00010927
4.61526e-05
4.84931e-05
4.81254e-05
4.38416e-05
0.000115362
0.000207141
0.000219322
5.24881e-05
0.000220837
5.47132e-05
0.000109265
4.69654e-05
4.7498e-05
4.99103e-05
4.80035e-05
0.000117547
0.000223718
5.82028e-05
0.000209403
0.000124597
0.000222307
5.5483e-05
4.69644e-05
4.74962e-05
4.99091e-05
4.80016e-05
0.000115366
0.000207162
5.24961e-05
0.000219326
5.47224e-05
0.000220842
0.000109272
4.61566e-05
4.8497e-05
4.81291e-05
4.38436e-05
0.000115364
0.000207146
0.000219324
5.2494e-05
0.000220839
5.47195e-05
0.00010927
4.61556e-05
4.84948e-05
4.81271e-05
4.38428e-05
3.06098e-05
3.06165e-05
0.000189781
3.02967e-05
3.03034e-05
2.60472e-05
2.5939e-05
2.57369e-05
2.5881e-05
0.000186548
3.01652e-05
3.01745e-05
3.01981e-05
3.02046e-05
2.57391e-05
2.58831e-05
0.000117544
0.000223716
5.81964e-05
0.000209411
0.000124592
0.000222306
5.54765e-05
4.69646e-05
4.74971e-05
4.99091e-05
4.80028e-05
4.69629e-05
4.74947e-05
4.99072e-05
4.8e-05
0.000115364
0.00020716
0.000219325
5.24953e-05
0.00022084
5.47209e-05
0.000109269
0.00011536
0.000207154
0.000219324
5.24881e-05
0.000220837
5.47136e-05
0.000109267
4.61556e-05
4.84962e-05
4.81282e-05
4.38429e-05
4.6154e-05
4.84932e-05
4.81255e-05
4.38416e-05
2.60467e-05
2.59385e-05
2.60452e-05
2.5937e-05
0.000186544
3.01759e-05
3.01697e-05
3.02043e-05
3.01989e-05
2.57387e-05
2.58826e-05
2.57371e-05
2.58811e-05
2.56767e-05
2.55217e-05
2.56742e-05
2.55185e-05
3.01915e-05
3.01724e-05
0.000176377
3.03954e-05
3.03997e-05
2.5303e-05
2.54558e-05
2.52999e-05
2.54533e-05
0.000173317
3.08823e-05
3.08835e-05
3.04632e-05
3.04472e-05
4.1429e-05
4.85806e-05
4.32455e-05
4.88378e-05
0.000102119
5.18796e-05
0.000217771
0.000200388
0.000107379
5.0078e-05
0.000216179
0.000102117
5.18719e-05
0.000217767
0.000200381
0.000107376
5.00708e-05
0.000216177
4.09875e-05
4.90654e-05
4.88941e-05
3.95703e-05
4.09864e-05
4.90615e-05
4.88907e-05
3.95693e-05
0.000100456
0.000198156
4.81414e-05