/*--------------------------------*- C++ -*----------------------------------*\
| =========                 |                                                 |
| \\      /  F ield         | OpenFOAM: The Open Source CFD Toolbox           |
|  \\    /   O peration     | Version:  v2006                                 |
|   \\  /    A nd           | Website:  www.openfoam.com                      |
|    \\/     M anipulation  |                                                 |
\*---------------------------------------------------------------------------*/
FoamFile
{
    version     2.0;
    format      ascii;
    class       volVectorField;
    location    "125";
    object      U;
}
// * * * * * * * * * * * * * * * * * * * * * * * * * * * * * * * * * * * * * //

dimensions      [0 1 -1 0 0 0 0];


internalField   nonuniform List<vector> 
43024
(
(0.000107946 0.000107901 0.100299)
(-0.000190207 0.000119268 0.100385)
(0.000119318 -0.000190207 0.100385)
(-0.000239583 -0.000239574 0.100397)
(9.42515e-05 9.42324e-05 0.10086)
(-0.000158955 9.67964e-05 0.100942)
(9.68113e-05 -0.000159001 0.100942)
(-0.000201067 -0.000201152 0.100968)
(9.54055e-05 9.54331e-05 0.10137)
(-0.000155799 9.34704e-05 0.101449)
(9.3452e-05 -0.000155826 0.101449)
(-0.000201998 -0.000202062 0.101471)
(9.38637e-05 9.39117e-05 0.101892)
(-0.000152061 9.01016e-05 0.101957)
(9.00905e-05 -0.000152059 0.101957)
(-0.000198908 -0.000198992 0.101964)
(9.11113e-05 9.11629e-05 0.102398)
(-0.000146306 8.55791e-05 0.102446)
(8.55739e-05 -0.000146296 0.102446)
(-0.000193522 -0.000193604 0.102432)
(8.81321e-05 8.81965e-05 0.102885)
(-0.000140642 8.16067e-05 0.102912)
(8.16003e-05 -0.000140625 0.102912)
(-0.000188141 -0.000188224 0.102871)
(8.52948e-05 8.53749e-05 0.103353)
(-0.000135516 7.84122e-05 0.103354)
(7.84012e-05 -0.000135491 0.103354)
(-0.000183629 -0.00018372 0.103281)
(8.28159e-05 8.28799e-05 0.103803)
(-0.000131084 7.59621e-05 0.103774)
(7.59387e-05 -0.00013105 0.103774)
(-0.000180107 -0.000180268 0.103664)
(8.06386e-05 8.06058e-05 0.104237)
(-0.000127341 7.42211e-05 0.104174)
(7.42592e-05 -0.000127317 0.104175)
(-0.000178023 -0.000178043 0.104023)
(7.87259e-05 7.87098e-05 0.104658)
(-0.000124111 7.28878e-05 0.104557)
(7.29176e-05 -0.000124088 0.104557)
(-0.000176865 -0.00017692 0.104358)
(7.70881e-05 7.70803e-05 0.105066)
(-0.000121282 7.17425e-05 0.104924)
(7.17691e-05 -0.00012126 0.104924)
(-0.000176209 -0.000176282 0.104673)
(7.55877e-05 7.55886e-05 0.105464)
(-0.000118726 7.06377e-05 0.105277)
(7.06619e-05 -0.000118701 0.105277)
(-0.000175778 -0.000175872 0.104967)
(7.41391e-05 7.41488e-05 0.105851)
(-0.000116298 6.94774e-05 0.105615)
(6.94998e-05 -0.000116268 0.105615)
(-0.000175418 -0.000175558 0.10524)
(7.27376e-05 7.2754e-05 0.106229)
(-0.000113916 6.82404e-05 0.105938)
(6.82432e-05 -0.000113888 0.105938)
(-0.000175091 -0.000175155 0.105491)
(7.13354e-05 7.13406e-05 0.106598)
(-0.000111606 6.71804e-05 0.106248)
(6.71604e-05 -0.000111567 0.106248)
(-0.000174386 -0.000174365 0.10572)
(6.98862e-05 6.98969e-05 0.106957)
(-0.00010947 6.61574e-05 0.106543)
(6.61228e-05 -0.000109398 0.106543)
(-0.000173349 -0.000173349 0.105927)
(6.83785e-05 6.83844e-05 0.107308)
(-0.000107485 6.51243e-05 0.106822)
(6.50904e-05 -0.000107409 0.106822)
(-0.000172034 -0.000172049 0.106108)
(6.68872e-05 6.68947e-05 0.107649)
(-0.000105481 6.4045e-05 0.107086)
(6.40189e-05 -0.000105411 0.107086)
(-0.000170302 -0.000170328 0.106265)
(6.53434e-05 6.53501e-05 0.107982)
(-0.000103536 6.29522e-05 0.107334)
(6.29263e-05 -0.000103493 0.107334)
(-0.000168102 -0.000168138 0.106395)
(6.38642e-05 6.38695e-05 0.108306)
(-0.000101673 6.19376e-05 0.107565)
(6.19356e-05 -0.000101635 0.107565)
(-0.000165409 -0.000165453 0.106498)
(6.23228e-05 6.23312e-05 0.108622)
(-9.95831e-05 6.08378e-05 0.107779)
(6.08578e-05 -9.95457e-05 0.107779)
(-0.000162016 -0.000162068 0.106573)
(0.000134949 0.000134977 0.100282)
(0.000124243 0.000152885 0.100229)
(-0.000124248 0.000152835 0.100229)
(-0.000134971 0.000134901 0.100282)
(0.000152887 0.00012422 0.100229)
(0.00015286 -0.000124246 0.100229)
(9.07998e-05 9.07618e-05 0.100151)
(-9.0803e-05 9.07437e-05 0.100151)
(9.07751e-05 -9.08056e-05 0.100151)
(-9.07735e-05 -9.07868e-05 0.100151)
(-0.000152905 0.000124181 0.100229)
(-0.00015287 -0.000124189 0.100229)
(0.000134935 -0.000134989 0.100282)
(0.000124211 -0.000152915 0.100229)
(-0.000124187 -0.000152862 0.100229)
(-0.000134958 -0.00013492 0.100282)
(0.000239615 0.000239634 0.100397)
(0.000111257 0.000111148 0.100892)
(0.000119382 0.000190143 0.100385)
(-0.000119366 0.000190091 0.100385)
(8.90583e-05 0.00014718 0.100823)
(-8.90788e-05 0.00014718 0.100823)
(-0.000239669 0.00023954 0.100397)
(-0.000111288 0.00011112 0.100892)
(0.000190206 0.000119299 0.100385)
(0.000190146 -0.000119347 0.100385)
(0.000147157 8.90358e-05 0.100823)
(0.00014721 -8.91247e-05 0.100823)
(-0.000190143 -0.000119353 0.100385)
(-0.000147179 8.90516e-05 0.100823)
(-0.000147223 -8.91127e-05 0.100823)
(0.000239563 -0.000239694 0.100397)
(0.000111238 -0.000111316 0.100892)
(-0.000119338 -0.000190167 0.100385)
(8.90854e-05 -0.000147237 0.100823)
(-8.9074e-05 -0.000147205 0.100823)
(-0.00011127 -0.000111335 0.100892)
(0.00020109 0.000200948 0.100967)
(0.000105702 0.000105633 0.101395)
(9.67829e-05 0.00015897 0.100941)
(-9.68084e-05 0.000158955 0.100941)
(9.41714e-05 0.000156659 0.10132)
(-9.4214e-05 0.000156663 0.10132)
(-0.000201136 0.000200912 0.100967)
(-0.000105703 0.000105651 0.101395)
(0.00015895 9.67897e-05 0.100942)
(0.00015899 -9.68517e-05 0.100942)
(0.000156622 9.42129e-05 0.10132)
(0.000156655 -9.42187e-05 0.10132)
(-0.000159002 -9.68288e-05 0.100942)
(-0.000156623 9.42073e-05 0.10132)
(-0.00015667 -9.42017e-05 0.10132)
(0.000201041 -0.000201158 0.100968)
(0.000105696 -0.00010571 0.101395)
(-9.68157e-05 -0.000158969 0.100942)
(9.41931e-05 -0.000156654 0.10132)
(-9.42167e-05 -0.000156636 0.10132)
(-0.000105713 -0.000105746 0.101395)
(0.000202025 0.000201923 0.101471)
(9.66107e-05 9.65402e-05 0.101893)
(9.34266e-05 0.000155839 0.101449)
(-9.34655e-05 0.000155849 0.101449)
(9.11103e-05 0.000153324 0.101832)
(-9.11377e-05 0.000153323 0.101832)
(-0.000202048 0.000201931 0.101471)
(-9.66137e-05 9.65731e-05 0.101893)
(0.000155802 9.34783e-05 0.101449)
(0.000155832 -9.3475e-05 0.101449)
(0.00015327 9.11777e-05 0.101832)
(0.000153301 -9.11588e-05 0.101832)
(-0.000155848 -9.34609e-05 0.101449)
(-0.000153288 9.11583e-05 0.101832)
(-0.000153312 -9.11304e-05 0.101832)
(0.000201974 -0.000202052 0.101471)
(9.65784e-05 -9.65868e-05 0.101893)
(-9.34805e-05 -0.00015581 0.101449)
(9.11418e-05 -0.000153286 0.101832)
(-9.11745e-05 -0.000153276 0.101832)
(-9.66038e-05 -9.66535e-05 0.101893)
(0.000198951 0.000198849 0.101964)
(8.60671e-05 8.59971e-05 0.102366)
(9.00632e-05 0.000152103 0.101957)
(-9.00778e-05 0.000152091 0.101957)
(8.66588e-05 0.000147823 0.102326)
(-8.66689e-05 0.000147812 0.102326)
(-0.000198977 0.000198863 0.101964)
(-8.60657e-05 8.60303e-05 0.102366)
(0.000152046 9.01279e-05 0.101957)
(0.000152075 -9.01054e-05 0.101957)
(0.000147769 8.67206e-05 0.102326)
(0.0001478 -8.67014e-05 0.102326)
(-0.000152083 -9.00771e-05 0.101957)
(-0.00014779 8.66934e-05 0.102326)
(-0.000147804 -8.66726e-05 0.102326)
(0.000198876 -0.000198955 0.101964)
(8.60324e-05 -8.60329e-05 0.102366)
(-9.01218e-05 -0.000152049 0.101957)
(8.66888e-05 -0.000147779 0.102326)
(-8.67214e-05 -0.000147775 0.102326)
(-8.60609e-05 -8.61089e-05 0.102366)
(0.000193559 0.000193458 0.102432)
(7.60561e-05 7.59892e-05 0.102812)
(8.55441e-05 0.000146341 0.102446)
(-8.5553e-05 0.000146329 0.102446)
(8.24903e-05 0.000142054 0.102797)
(-8.24962e-05 0.00014204 0.102797)
(-0.000193587 0.00019348 0.102432)
(-7.60555e-05 7.60259e-05 0.102812)
(0.000146288 8.56044e-05 0.102446)
(0.000146317 -8.5585e-05 0.102446)
(0.000142 8.25554e-05 0.102798)
(0.000142028 -8.25322e-05 0.102798)
(-0.000146322 -8.55567e-05 0.102446)
(-0.00014202 8.25263e-05 0.102798)
(-0.000142031 -8.25027e-05 0.102798)
(0.000193485 -0.000193559 0.102432)
(7.60204e-05 -7.60168e-05 0.102812)
(-8.5606e-05 -0.000146292 0.102446)
(8.25228e-05 -0.000142002 0.102798)
(-8.25579e-05 -0.000142004 0.102798)
(-7.60532e-05 -7.61039e-05 0.102812)
(0.000188175 0.000188081 0.10287)
(6.70913e-05 6.70309e-05 0.103229)
(8.15724e-05 0.000140683 0.102912)
(-8.15731e-05 0.000140665 0.102912)
(7.90943e-05 0.000136776 0.103245)
(-7.90901e-05 0.000136757 0.103245)
(-0.000188203 0.000188101 0.10287)
(-6.70878e-05 6.70631e-05 0.103229)
(0.000140625 8.16373e-05 0.102912)
(0.000140652 -8.16075e-05 0.102912)
(0.000136716 7.91695e-05 0.103245)
(0.000136743 -7.9133e-05 0.103245)
(-0.000140655 -8.15789e-05 0.102912)
(-0.000136737 7.91339e-05 0.103245)
(-0.000136745 -7.91032e-05 0.103245)
(0.000188098 -0.000188171 0.102871)
(6.70509e-05 -6.70451e-05 0.103229)
(-8.16359e-05 -0.000140627 0.102912)
(7.91287e-05 -0.000136712 0.103245)
(-7.91695e-05 -0.00013672 0.103245)
(-6.70923e-05 -6.71481e-05 0.103229)
(0.000183661 0.00018356 0.103281)
(5.91657e-05 5.90809e-05 0.10362)
(7.83652e-05 0.000135549 0.103354)
(-7.83652e-05 0.000135538 0.103354)
(7.64387e-05 0.000132151 0.103671)
(-7.64455e-05 0.000132147 0.103671)
(-0.00018369 0.000183582 0.103281)
(-5.91709e-05 5.9131e-05 0.10362)
(0.000135496 7.84426e-05 0.103354)
(0.000135522 -7.84032e-05 0.103354)
(0.000132105 7.65356e-05 0.103671)
(0.000132125 -7.64944e-05 0.103671)
(-0.000135525 -7.83736e-05 0.103354)
(-0.00013213 7.65051e-05 0.103671)
(-0.000132126 -7.64605e-05 0.103671)
(0.000183578 -0.000183652 0.103281)
(5.90995e-05 -5.90999e-05 0.10362)
(-7.84443e-05 -0.0001355 0.103354)
(7.64955e-05 -0.000132095 0.103671)
(-7.65507e-05 -0.000132108 0.103671)
(-5.91551e-05 -5.92253e-05 0.10362)
(0.000180198 0.000180027 0.103664)
(5.25709e-05 5.26089e-05 0.103987)
(7.59223e-05 0.000131116 0.103774)
(-7.59282e-05 0.000131113 0.103774)
(7.46798e-05 0.000128271 0.104076)
(-7.46865e-05 0.00012827 0.104076)
(-0.000180234 0.000180062 0.103664)
(-5.25719e-05 5.26559e-05 0.103987)
(0.000131062 7.59921e-05 0.103774)
(0.000131082 -7.59396e-05 0.103774)
(0.000128196 7.46211e-05 0.104076)
(0.000128239 -7.46869e-05 0.104076)
(-0.000131081 -7.59044e-05 0.103774)
(-0.000128223 7.45954e-05 0.104076)
(-0.000128231 -7.46498e-05 0.104076)
(0.000180052 -0.000180152 0.103664)
(5.25934e-05 -5.25502e-05 0.103987)
(-7.59964e-05 -0.00013106 0.103774)
(7.46382e-05 -0.000128197 0.104076)
(-7.45993e-05 -0.000128181 0.104076)
(-5.25708e-05 -5.25001e-05 0.103987)
(0.000178083 0.000178038 0.104023)
(4.68559e-05 4.68706e-05 0.104332)
(7.43072e-05 0.000127391 0.104174)
(-7.43128e-05 0.00012739 0.104174)
(7.32773e-05 0.000124928 0.104463)
(-7.32849e-05 0.000124927 0.104463)
(-0.000178114 0.000178067 0.104023)
(-4.68498e-05 4.69127e-05 0.104332)
(0.000127317 7.42445e-05 0.104174)
(0.000127359 -7.43082e-05 0.104174)
(0.000124859 7.32228e-05 0.104463)
(0.000124899 -7.32811e-05 0.104463)
(-0.000127353 -7.42846e-05 0.104174)
(-0.000124881 7.31991e-05 0.104463)
(-0.000124899 -7.3262e-05 0.104463)
(0.000178031 -0.000178086 0.104023)
(4.68524e-05 -4.68165e-05 0.104332)
(-7.42284e-05 -0.000127304 0.104175)
(7.32303e-05 -0.000124855 0.104463)
(-7.32148e-05 -0.000124847 0.104463)
(-4.68338e-05 -4.68094e-05 0.104332)
(0.000176936 0.000176876 0.104358)
(4.15122e-05 4.15115e-05 0.104657)
(7.29655e-05 0.000124162 0.104557)
(-7.29719e-05 0.000124161 0.104557)
(7.20929e-05 0.000122008 0.104834)
(-7.21019e-05 0.000122008 0.104834)
(-0.00017696 0.000176902 0.104358)
(-4.15045e-05 4.15552e-05 0.104657)
(0.000124093 7.29111e-05 0.104557)
(0.000124133 -7.29673e-05 0.104557)
(0.000121938 7.20435e-05 0.104834)
(0.000121982 -7.20993e-05 0.104834)
(-0.000124133 -7.295e-05 0.104557)
(-0.00012196 7.20193e-05 0.104834)
(-0.000121981 -7.20785e-05 0.104834)
(0.000176868 -0.000176926 0.104359)
(4.14934e-05 -4.14606e-05 0.104657)
(-7.29029e-05 -0.00012408 0.104557)
(7.20468e-05 -0.000121935 0.104834)
(-7.20386e-05 -0.000121925 0.104834)
(-4.14768e-05 -4.14765e-05 0.104657)
(0.000176287 0.000176216 0.104673)
(3.6408e-05 3.63919e-05 0.104961)
(7.18162e-05 0.000121333 0.104924)
(-7.1823e-05 0.000121333 0.104924)
(7.09786e-05 0.000119404 0.10519)
(-7.09797e-05 0.000119398 0.10519)
(-0.000176312 0.000176245 0.104673)
(-3.63953e-05 3.64284e-05 0.104961)
(0.000121263 7.17667e-05 0.104924)
(0.000121307 -7.18194e-05 0.104924)
(0.000119326 7.09366e-05 0.10519)
(0.000119372 -7.09873e-05 0.10519)
(-0.000121307 -7.18009e-05 0.104924)
(-0.000119348 7.09115e-05 0.10519)
(-0.000119371 -7.09637e-05 0.10519)
(0.000176208 -0.00017627 0.104673)
(3.63677e-05 -3.63458e-05 0.104961)
(-7.17596e-05 -0.000121249 0.104924)
(7.0938e-05 -0.000119323 0.10519)
(-7.09325e-05 -0.000119312 0.10519)
(-3.63544e-05 -3.63745e-05 0.104961)
(0.000175873 0.000175787 0.104967)
(3.1447e-05 3.14017e-05 0.105246)
(7.07027e-05 0.000118782 0.105277)
(-7.07029e-05 0.000118779 0.105276)
(6.98264e-05 0.00011696 0.105531)
(-6.98323e-05 0.000116959 0.105531)
(-0.000175894 0.000175812 0.104967)
(-3.1434e-05 3.14595e-05 0.105246)
(0.000118704 7.0662e-05 0.105277)
(0.000118752 -7.07075e-05 0.105277)
(0.000116873 6.97973e-05 0.105531)
(0.000116919 -6.98431e-05 0.105531)
(-0.000118751 -7.06875e-05 0.105277)
(-0.000116899 6.97795e-05 0.105531)
(-0.000116918 -6.98125e-05 0.105531)
(0.000175773 -0.000175846 0.104967)
(3.13746e-05 -3.13651e-05 0.105246)
(-7.06535e-05 -0.00011869 0.105277)
(6.98e-05 -0.000116869 0.105531)
(-6.97966e-05 -0.000116856 0.105531)
(-3.13587e-05 -3.14103e-05 0.105246)
(0.00017556 0.000175434 0.10524)
(2.65202e-05 2.65571e-05 0.105511)
(6.95223e-05 0.000116356 0.105614)
(-6.95285e-05 0.000116359 0.105614)
(6.86076e-05 0.000114575 0.105859)
(-6.85974e-05 0.000114561 0.105859)
(-0.000175584 0.000175488 0.10524)
(-2.65051e-05 2.66069e-05 0.105511)
(0.000116272 6.94989e-05 0.105615)
(0.000116317 -6.9535e-05 0.105614)
(0.000114479 6.85616e-05 0.105859)
(0.000114534 -6.85903e-05 0.105859)
(-0.000116316 -6.95058e-05 0.105614)
(-0.000114501 6.85235e-05 0.105859)
(-0.000114531 -6.85961e-05 0.105859)
(0.000175412 -0.000175507 0.10524)
(2.65443e-05 -2.64934e-05 0.105511)
(-6.9491e-05 -0.000116255 0.105615)
(6.85526e-05 -0.000114481 0.105859)
(-6.85752e-05 -0.000114457 0.105859)
(-2.64913e-05 -2.64688e-05 0.105511)
(0.000175177 0.000175145 0.105491)
(2.14061e-05 2.14794e-05 0.105755)
(6.83311e-05 0.000113983 0.105938)
(-6.83278e-05 0.000113973 0.105938)
(6.75231e-05 0.000112239 0.106172)
(-6.75324e-05 0.000112225 0.106172)
(-0.000175202 0.00017519 0.105491)
(-2.13564e-05 2.14753e-05 0.105755)
(0.000113889 6.82596e-05 0.105938)
(0.000113947 -6.8306e-05 0.105938)
(0.000112146 6.744e-05 0.106172)
(0.00011219 -6.75008e-05 0.106172)
(-0.000113948 -6.8316e-05 0.105938)
(-0.000112166 6.74407e-05 0.106172)
(-0.000112193 -6.74993e-05 0.106172)
(0.000175135 -0.000175185 0.105491)
(2.14849e-05 -2.13719e-05 0.105755)
(-6.8257e-05 -0.000113868 0.105938)
(6.74233e-05 -0.00011214 0.106172)
(-6.73955e-05 -0.00011211 0.106172)
(-2.15076e-05 -2.1372e-05 0.105755)
(0.000174357 0.000174342 0.10572)
(1.64491e-05 1.65248e-05 0.105977)
(6.72619e-05 0.000111665 0.106248)
(-6.72706e-05 0.000111659 0.106248)
(6.65027e-05 0.000110031 0.10647)
(-6.65134e-05 0.000110084 0.10647)
(-0.000174346 0.000174336 0.10572)
(-1.64449e-05 1.65436e-05 0.105977)
(0.000111573 6.71782e-05 0.106248)
(0.000111621 -6.72386e-05 0.106248)
(0.000109929 6.64197e-05 0.10647)
(0.00011004 -6.64836e-05 0.10647)
(-0.000111626 -6.72379e-05 0.106248)
(-0.000109987 6.64199e-05 0.10647)
(-0.000110048 -6.64814e-05 0.10647)
(0.000174347 -0.000174357 0.10572)
(1.65356e-05 -1.64484e-05 0.105977)
(-6.71319e-05 -0.000111542 0.106248)
(6.63877e-05 -0.000109927 0.10647)
(-6.63744e-05 -0.000109966 0.10647)
(-1.65901e-05 -1.64788e-05 0.105977)
(0.000173284 0.000173275 0.105926)
(1.18648e-05 1.19292e-05 0.106176)
(6.62427e-05 0.000109504 0.106542)
(-6.62507e-05 0.000109561 0.106542)
(6.54798e-05 0.00010804 0.106754)
(-6.54974e-05 0.000108109 0.106753)
(-0.000173316 0.000173285 0.105926)
(-1.18772e-05 1.19665e-05 0.106176)
(0.0001094 6.61575e-05 0.106543)
(0.000109511 -6.62211e-05 0.106542)
(0.000107948 6.53926e-05 0.106754)
(0.000108053 -6.5467e-05 0.106753)
(-0.000109524 -6.62182e-05 0.106542)
(-0.000108003 6.54025e-05 0.106754)
(-0.000108061 -6.5462e-05 0.106753)
(0.000173279 -0.000173317 0.105927)
(1.19403e-05 -1.18812e-05 0.106176)
(-6.61109e-05 -0.000109441 0.106543)
(6.53706e-05 -0.000107944 0.106754)
(-6.53551e-05 -0.000107972 0.106754)
(-1.20035e-05 -1.19084e-05 0.106176)
(0.000171969 0.000171946 0.106108)
(7.6511e-06 7.7127e-06 0.10635)
(6.52019e-05 0.000107508 0.106822)
(-6.52175e-05 0.00010758 0.106822)
(6.43809e-05 0.000105968 0.107021)
(-6.43856e-05 0.000106047 0.107021)
(-0.000172019 0.000171977 0.106108)
(-7.66361e-06 7.74551e-06 0.10635)
(0.000107413 6.5112e-05 0.106822)
(0.000107517 -6.51867e-05 0.106822)
(0.000105871 6.42864e-05 0.107022)
(0.000105974 -6.43607e-05 0.107021)
(-0.000107533 -6.51831e-05 0.106822)
(-0.000105939 6.42939e-05 0.107022)
(-0.000105989 -6.43605e-05 0.107021)
(0.000171958 -0.000172019 0.106108)
(7.72188e-06 -7.66259e-06 0.10635)
(-6.50743e-05 -0.000107442 0.106822)
(6.42667e-05 -0.000105866 0.107022)
(-6.42486e-05 -0.000105894 0.107022)
(-7.7834e-06 -7.70205e-06 0.106349)
(0.000170243 0.000170217 0.106264)
(3.82685e-06 3.8842e-06 0.106498)
(6.41328e-05 0.000105517 0.107086)
(-6.41365e-05 0.000105564 0.107086)
(6.33112e-05 0.000104075 0.107273)
(-6.33115e-05 0.000104091 0.107273)
(-0.000170289 0.000170237 0.106264)
(-3.8211e-06 3.91307e-06 0.106498)
(0.000105418 6.40393e-05 0.107086)
(0.000105519 -6.41109e-05 0.107086)
(0.000103984 6.32159e-05 0.107274)
(0.000104084 -6.32885e-05 0.107273)
(-0.000105514 -6.4111e-05 0.107086)
(-0.000104009 6.32169e-05 0.107274)
(-0.000104068 -6.32872e-05 0.107273)
(0.000170226 -0.000170286 0.106265)
(3.88988e-06 -3.83318e-06 0.106498)
(-6.40001e-05 -0.00010542 0.107086)
(6.31951e-05 -0.000103974 0.107274)
(-6.31746e-05 -0.000103973 0.107274)
(-3.94153e-06 -3.87109e-06 0.106497)
(0.000168058 0.000168026 0.106394)
(4.36041e-07 4.73278e-07 0.106619)
(6.30444e-05 0.000103604 0.107334)
(-6.30394e-05 0.000103612 0.107334)
(6.22953e-05 0.000102198 0.107509)
(-6.22943e-05 0.000102214 0.107508)
(-0.000168087 0.000168043 0.106394)
(-4.13614e-07 5.00551e-07 0.106619)
(0.000103503 6.29472e-05 0.107334)
(0.000103604 -6.30224e-05 0.107334)
(0.000102113 6.21948e-05 0.107509)
(0.000102213 -6.22832e-05 0.107508)
(-0.000103591 -6.30203e-05 0.107334)
(-0.000102142 6.22e-05 0.107509)
(-0.000102198 -6.22796e-05 0.107509)
(0.000168035 -0.000168095 0.106395)
(4.85682e-07 -4.39382e-07 0.106618)
(-6.29061e-05 -0.000103493 0.107334)
(6.21832e-05 -0.000102103 0.107509)
(-6.21619e-05 -0.000102099 0.107509)
(-5.33145e-07 -4.76172e-07 0.106618)
(0.000165371 0.000165321 0.106497)
(-2.63126e-06 -2.61936e-06 0.106712)
(6.20331e-05 0.000101712 0.107565)
(-6.20455e-05 0.00010174 0.107565)
(6.11643e-05 0.000100064 0.107727)
(-6.11429e-05 0.000100045 0.107727)
(-0.000165389 0.000165337 0.106497)
(2.67979e-06 -2.62143e-06 0.106712)
(0.000101642 6.19406e-05 0.107565)
(0.00010174 -6.20292e-05 0.107565)
(9.99823e-05 6.1075e-05 0.107727)
(0.000100068 -6.11501e-05 0.107726)
(-0.000101718 -6.2026e-05 0.107565)
(-9.9999e-05 6.10434e-05 0.107727)
(-0.00010004 -6.11395e-05 0.107727)
(0.000165344 -0.000165412 0.106497)
(-2.60822e-06 2.64728e-06 0.106712)
(-6.19168e-05 -0.000101627 0.107565)
(6.10492e-05 -9.99641e-05 0.107727)
(-6.1026e-05 -9.99522e-05 0.107727)
(2.56452e-06 2.61404e-06 0.106711)
(0.000162014 0.000161936 0.106573)
(6.09525e-05 9.96623e-05 0.107778)
(-6.09405e-05 9.96477e-05 0.107778)
(-0.000162002 0.00016192 0.106573)
(9.95794e-05 6.08852e-05 0.107779)
(9.96503e-05 -6.09454e-05 0.107778)
(-9.96244e-05 -6.09329e-05 0.107778)
(0.000161955 -0.000162029 0.106573)
(-6.08323e-05 -9.95329e-05 0.107779)
(-3.34718e-07 -3.36881e-07 0.0999988)
(1.68263e-05 1.68236e-05 0.100003)
(-4.50211e-07 1.39328e-05 0.1)
(1.39392e-05 -4.5366e-07 0.1)
(-4.65977e-05 5.73209e-06 0.100009)
(-1.52707e-05 1.55852e-05 0.0999999)
(-0.000127874 6.04429e-05 0.100058)
(-1.31104e-05 -8.63725e-07 0.0999958)
(5.73671e-06 -4.65874e-05 0.100009)
(1.55913e-05 -1.52724e-05 0.0999999)
(-8.60401e-07 -1.31105e-05 0.0999958)
(6.04512e-05 -0.000127939 0.100058)
(-1.87279e-05 -1.87297e-05 0.100003)
(-0.000134953 -8.1086e-05 0.100055)
(-8.10832e-05 -0.000134955 0.100055)
(-3.4894e-05 0.000135806 0.100723)
(0.000176675 0.000389375 0.0994174)
(2.31074e-06 0.00030547 0.100517)
(-8.43556e-05 0.000243781 0.0991469)
(-0.000303297 0.000837503 0.0977727)
(-0.000129143 0.000304579 0.095718)
(0.000135826 -3.4947e-05 0.100724)
(0.000388994 0.000175824 0.0994175)
(0.000305999 2.29218e-06 0.100517)
(0.000243404 -8.3999e-05 0.0991466)
(-0.000107953 0.000107879 0.100299)
(0.000107919 -0.000107956 0.100299)
(-0.000107922 -0.000107932 0.100299)
(9.17259e-05 9.16777e-05 0.100739)
(-9.17354e-05 9.16869e-05 0.100739)
(9.17156e-05 -9.17618e-05 0.100739)
(-9.17244e-05 -9.17887e-05 0.100739)
(-0.000280745 6.44763e-06 0.100754)
(-0.000399021 0.000229265 0.100526)
(-0.000175285 3.73827e-05 0.100332)
(-0.000153251 9.44846e-05 0.100558)
(-0.000358989 1.56262e-05 0.100479)
(-0.000148758 0.000198748 0.100739)
(-0.000152725 3.32781e-05 0.100497)
(0.000837001 -0.000301661 0.0977712)
(0.000304788 -0.00012857 0.0957181)
(6.39318e-06 -0.000280743 0.100753)
(3.7414e-05 -0.000175281 0.100332)
(0.000229245 -0.000399133 0.100526)
(9.44956e-05 -0.000153256 0.100558)
(1.56598e-05 -0.000358952 0.100479)
(3.32995e-05 -0.000152737 0.100497)
(0.000198709 -0.000149016 0.100739)
(-0.000372828 -0.000141975 0.100361)
(-0.000141885 -0.000372777 0.100361)
(-0.000111967 -0.000112074 0.100655)
(1.09228e-05 -7.90063e-05 0.10059)
(-7.88996e-05 1.09673e-05 0.10059)
(-1.66548e-05 0.000198251 0.100867)
(-5.49741e-05 0.000288436 0.0983209)
(-2.04395e-05 0.000208667 0.100778)
(-4.49305e-05 0.000271345 0.0979444)
(-0.000150285 0.000313379 0.0926218)
(-0.000137159 0.000273068 0.0909988)
(0.000198295 -1.671e-05 0.100867)
(0.000288257 -5.48637e-05 0.098321)
(0.000208737 -2.04808e-05 0.100778)
(0.00027117 -4.47745e-05 0.0979439)
(-9.42628e-05 9.42401e-05 0.10086)
(9.42646e-05 -9.42945e-05 0.10086)
(-9.42772e-05 -9.43098e-05 0.10086)
(9.61794e-05 9.62016e-05 0.101239)
(-9.61914e-05 9.62039e-05 0.101239)
(9.6196e-05 -9.62049e-05 0.101239)
(-9.62039e-05 -9.62097e-05 0.101239)
(-0.00026363 1.32979e-05 0.101153)
(-0.000219086 0.000214243 0.100819)
(-0.000164533 3.10457e-05 0.100897)
(-0.000160215 9.74209e-05 0.101064)
(-0.000298001 1.41275e-05 0.100977)
(-0.000183261 0.00019787 0.100944)
(-0.000168739 3.24859e-05 0.101019)
(0.000313464 -0.000150015 0.0926211)
(0.000273167 -0.000136909 0.0909991)
(1.32999e-05 -0.000263628 0.101153)
(3.1071e-05 -0.000164553 0.100897)
(0.000214257 -0.00021915 0.100819)
(9.74176e-05 -0.000160245 0.101064)
(1.41279e-05 -0.000297994 0.100977)
(3.25067e-05 -0.000168753 0.101019)
(0.000197817 -0.000183301 0.100945)
(-8.39401e-05 -9.72434e-05 0.100439)
(-9.71849e-05 -8.39066e-05 0.100439)
(-0.000112491 -0.000112527 0.101144)
(-8.67676e-05 -8.27369e-05 0.10043)
(-8.26402e-05 -8.67293e-05 0.100429)
(-9.47247e-06 0.000210714 0.100956)
(-2.20175e-05 0.000281766 0.0971376)
(-1.17207e-05 0.000230433 0.100903)
(-1.23605e-05 0.000257133 0.096712)
(-0.000117439 0.000226008 0.0883859)
(-9.69351e-05 0.000187332 0.087064)
(0.000210756 -9.4864e-06 0.100956)
(0.000281661 -2.18752e-05 0.0971376)
(0.00023046 -1.17213e-05 0.100904)
(0.000257015 -1.2226e-05 0.0967112)
(-9.54172e-05 9.54376e-05 0.10137)
(9.54235e-05 -9.54321e-05 0.10137)
(-9.5431e-05 -9.54326e-05 0.10137)
(9.43275e-05 9.43735e-05 0.101763)
(-9.43365e-05 9.43752e-05 0.101763)
(9.43565e-05 -9.43577e-05 0.101763)
(-9.43678e-05 -9.43493e-05 0.101763)
(-0.00025101 1.22227e-05 0.10158)
(-0.000222566 0.000190569 0.101029)
(-0.000167324 3.27895e-05 0.101407)
(-0.000155169 9.28798e-05 0.101577)
(-0.000290187 1.20976e-05 0.101414)
(-0.000182241 0.000169353 0.101123)
(-0.000167161 3.27237e-05 0.101537)
(0.00022591 -0.000117125 0.088385)
(0.00018731 -9.67079e-05 0.0870636)
(1.22176e-05 -0.000251019 0.10158)
(3.27886e-05 -0.000167329 0.101407)
(0.000190525 -0.000222569 0.101028)
(9.28605e-05 -0.000155185 0.101577)
(1.20916e-05 -0.000290193 0.101414)
(3.27246e-05 -0.000167165 0.101537)
(0.000169315 -0.000182255 0.101123)
(-0.000116158 -9.15747e-05 0.100183)
(-9.1524e-05 -0.00011615 0.100183)
(-0.000101473 -0.000101523 0.101646)
(-0.000112072 -7.24154e-05 0.100086)
(-7.23426e-05 -0.000112034 0.100085)
(-7.02371e-06 0.00021013 0.100951)
(5.47771e-06 0.000258291 0.0958581)
(-7.94233e-06 0.000236287 0.100928)
(1.0267e-05 0.000229767 0.0954228)
(-7.73128e-05 0.000149983 0.0849779)
(-5.91345e-05 0.000118918 0.0839648)
(0.000210172 -7.05214e-06 0.100952)
(0.000258225 5.57589e-06 0.0958582)
(0.000236313 -7.9452e-06 0.100928)
(0.000229643 1.02839e-05 0.0954218)
(-9.38681e-05 9.39106e-05 0.101892)
(9.38935e-05 -9.38921e-05 0.101892)
(-9.39057e-05 -9.3882e-05 0.101892)
(9.18534e-05 9.19037e-05 0.102273)
(-9.18527e-05 9.19002e-05 0.102273)
(9.18874e-05 -9.18807e-05 0.102273)
(-9.19017e-05 -9.18668e-05 0.102273)
(-0.000238544 1.11661e-05 0.101978)
(-0.000219895 0.000162842 0.101143)
(-0.0001651 3.20964e-05 0.101923)
(-0.000150713 8.89856e-05 0.102081)
(-0.000282658 1.10214e-05 0.101822)
(-0.000174965 0.000141206 0.101213)
(-0.000163806 3.17582e-05 0.10205)
(0.000150005 -7.71799e-05 0.0849769)
(0.000118919 -5.90235e-05 0.0839642)
(1.11637e-05 -0.000238558 0.101978)
(3.21007e-05 -0.000165098 0.101923)
(0.000162798 -0.000219894 0.101142)
(8.89792e-05 -0.000150705 0.102081)
(1.10153e-05 -0.000282667 0.101822)
(3.1765e-05 -0.000163804 0.10205)
(0.00014118 -0.000174973 0.101213)
(-0.000133137 -7.94514e-05 0.0997193)
(-7.94218e-05 -0.000133129 0.0997193)
(-9.13647e-05 -9.14128e-05 0.102133)
(-0.000123826 -6.02791e-05 0.0995704)
(-6.02309e-05 -0.000123797 0.0995694)
(-6.46565e-06 0.000202233 0.10085)
(1.89652e-05 0.000226909 0.094561)
(-6.8864e-06 0.000231247 0.100854)
(1.8698e-05 0.000197546 0.0941434)
(-4.53963e-05 9.53347e-05 0.0823436)
(-3.12016e-05 7.19547e-05 0.0815905)
(0.000202277 -6.48634e-06 0.10085)
(0.000226883 1.90733e-05 0.0945613)
(0.000231275 -6.887e-06 0.100853)
(0.000197433 1.87568e-05 0.0941421)
(-9.11107e-05 9.11612e-05 0.102398)
(9.11478e-05 -9.11396e-05 0.102398)
(-9.1163e-05 -9.11242e-05 0.102398)
(8.88744e-05 8.89348e-05 0.102765)
(-8.88745e-05 8.89312e-05 0.102765)
(8.89169e-05 -8.89048e-05 0.102765)
(-8.89347e-05 -8.8885e-05 0.102765)
(-0.000223554 1.02792e-05 0.102335)
(-0.000210976 0.000137544 0.101162)
(-0.000159034 3.06707e-05 0.102424)
(-0.000144852 8.4511e-05 0.102565)
(-0.000271031 9.92109e-06 0.10219)
(-0.000164191 0.000117061 0.101212)
(-0.000157341 3.03145e-05 0.102546)
(9.53394e-05 -4.5335e-05 0.0823425)
(7.19475e-05 -3.11367e-05 0.0815899)
(1.0279e-05 -0.000223573 0.102335)
(3.06764e-05 -0.000159032 0.102424)
(0.000137515 -0.000210965 0.101162)
(8.45074e-05 -0.000144837 0.102565)
(9.91751e-06 -0.000271042 0.102189)
(3.03214e-05 -0.000157338 0.102546)
(0.000117041 -0.000164192 0.101212)
(-0.00013799 -6.86467e-05 0.0991151)
(-6.86346e-05 -0.000137988 0.0991149)
(-8.09279e-05 -8.09766e-05 0.102593)
(-0.000125683 -5.08447e-05 0.0989318)
(-5.08129e-05 -0.000125659 0.0989306)
(-6.12253e-06 0.00019056 0.100663)
(2.05824e-05 0.00019445 0.0933113)
(-6.65724e-06 0.000220985 0.10069)
(1.7328e-05 0.000165744 0.0929277)
(-2.41676e-05 5.99804e-05 0.0803371)
(-1.34187e-05 4.22896e-05 0.0797839)
(0.0001906 -6.14998e-06 0.100663)
(0.000194458 2.06601e-05 0.0933119)
(0.000221009 -6.65928e-06 0.10069)
(0.000165607 1.73112e-05 0.0929261)
(-8.81309e-05 8.81919e-05 0.102885)
(8.81762e-05 -8.81623e-05 0.102885)
(-8.81948e-05 -8.8141e-05 0.102885)
(8.59747e-05 8.60515e-05 0.103238)
(-8.59734e-05 8.60446e-05 0.103238)
(8.60256e-05 -8.6007e-05 0.103238)
(-8.60469e-05 -8.59803e-05 0.103238)
(-0.000207834 9.73919e-06 0.102649)
(-0.000199484 0.000116677 0.101098)
(-0.000152213 2.9325e-05 0.102904)
(-0.000139302 8.07319e-05 0.103024)
(-0.00025748 9.18612e-06 0.102514)
(-0.000152156 9.74899e-05 0.10113)
(-0.000150516 2.90208e-05 0.103021)
(5.99708e-05 -2.41338e-05 0.0803362)
(4.22723e-05 -1.33809e-05 0.079783)
(9.73965e-06 -0.000207856 0.102649)
(2.9331e-05 -0.00015221 0.102904)
(0.000116656 -0.00019947 0.101097)
(8.07276e-05 -0.000139281 0.103024)
(9.1819e-06 -0.000257492 0.102514)
(2.90284e-05 -0.000150512 0.103021)
(9.7474e-05 -0.000152156 0.101131)
(-0.000135377 -6.08993e-05 0.0984179)
(-6.08998e-05 -0.000135377 0.0984175)
(-7.14394e-05 -7.14929e-05 0.103024)
(-0.000121555 -4.4356e-05 0.0982133)
(-4.43357e-05 -0.000121535 0.0982118)
(-5.00353e-06 0.000176877 0.100403)
(1.55992e-05 0.000164604 0.0921468)
(-5.87006e-06 0.000207993 0.10045)
(1.08636e-05 0.000137098 0.0918039)
(-1.14222e-05 3.84738e-05 0.0788064)
(-2.97875e-06 2.45236e-05 0.0784003)
(0.000176915 -5.02104e-06 0.100403)
(0.000164615 1.56819e-05 0.0921475)
(0.000208013 -5.8726e-06 0.10045)
(0.000136981 1.08976e-05 0.0918022)
(-8.52947e-05 8.53697e-05 0.103353)
(8.53499e-05 -8.53296e-05 0.103353)
(-8.53723e-05 -8.53003e-05 0.103353)
(8.33989e-05 8.34822e-05 0.103692)
(-8.34045e-05 8.34772e-05 0.103692)
(8.34626e-05 -8.34411e-05 0.103692)
(-8.34891e-05 -8.34013e-05 0.103692)
(-0.000192491 9.57548e-06 0.102923)
(-0.000187233 9.99488e-05 0.10096)
(-0.000145575 2.82278e-05 0.103363)
(-0.000134344 7.77316e-05 0.103461)
(-0.000243637 8.80731e-06 0.102796)
(-0.000140122 8.18414e-05 0.100979)
(-0.000144012 2.80006e-05 0.103474)
(3.84599e-05 -1.14081e-05 0.0788057)
(2.45037e-05 -2.95604e-06 0.0783994)
(9.57649e-06 -0.000192514 0.102923)
(2.82377e-05 -0.000145572 0.103363)
(9.99325e-05 -0.000187218 0.10096)
(7.77257e-05 -0.000134315 0.103461)
(8.80314e-06 -0.000243651 0.102796)
(2.8013e-05 -0.000144007 0.103474)
(8.1826e-05 -0.000140124 0.10098)
(-0.000128599 -5.53293e-05 0.0976633)
(-5.53384e-05 -0.000128601 0.0976627)
(-6.30063e-05 -6.30629e-05 0.103428)
(-0.000114121 -3.95723e-05 0.0974484)
(-3.95606e-05 -0.000114104 0.0974466)
(-3.17765e-06 0.00016257 0.100085)
(7.97877e-06 0.00013895 0.0910834)
(-4.28426e-06 0.000193636 0.100147)
(2.9926e-06 0.000112899 0.0907816)