/*--------------------------------*- C++ -*----------------------------------*\
| =========                 |                                                 |
| \\      /  F ield         | OpenFOAM: The Open Source CFD Toolbox           |
|  \\    /   O peration     | Version:  v2012                                 |
|   \\  /    A nd           | Website:  www.openfoam.com                      |
|    \\/     M anipulation  |                                                 |
\*---------------------------------------------------------------------------*/
FoamFile
{
    version     2.0;
    format      ascii;
    class       volScalarField;
    location    "475";
    object      epsilon;
}
// * * * * * * * * * * * * * * * * * * * * * * * * * * * * * * * * * * * * * //

dimensions      [0 2 -3 0 0 0 0];


internalField   nonuniform List<scalar> 
171728
(
1.92938e-09
5.03819e-09
6.03188e-09
4.71044e-09
1.89807e-09
4.69157e-09
4.71872e-09
4.32719e-09
1.83367e-09
4.35009e-09
3.55113e-09
4.07433e-09
1.77689e-09
4.0999e-09
2.95999e-09
3.91808e-09
1.72532e-09
3.94356e-09
2.69996e-09
3.82533e-09
1.67e-09
3.86298e-09
2.54675e-09
3.79329e-09
1.61385e-09
3.84511e-09
2.44118e-09
3.84609e-09
1.56387e-09
3.8944e-09
2.36285e-09
4.04515e-09
1.51815e-09
4.00093e-09
2.30582e-09
4.18306e-09
1.47583e-09
4.19454e-09
2.27329e-09
3.67983e-09
1.43872e-09
4.25277e-09
2.26494e-09
3.49886e-09
1.40639e-09
4.02865e-09
2.28877e-09
3.36522e-09
1.37755e-09
3.98019e-09
2.35335e-09
2.94879e-09
1.35177e-09
4.1888e-09
2.48383e-09
2.72254e-09
1.3293e-09
4.46995e-09
2.67971e-09
2.63912e-09
1.3097e-09
4.64731e-09
3.00054e-09
2.77593e-09
1.29303e-09
4.80191e-09
3.49019e-09
3.18377e-09
1.28007e-09
5.14842e-09
4.24949e-09
3.91473e-09
1.2711e-09
5.79855e-09
5.42427e-09
5.2219e-09
1.27078e-09
7.05026e-09
7.23616e-09
7.45798e-09
1.27764e-09
9.24261e-09
9.78042e-09
1.13882e-08
1.29959e-09
1.28212e-08
1.31736e-08
1.82625e-08
1.33551e-09
1.76773e-08
1.82516e-08
2.99739e-08
1.39169e-09
2.39251e-08
2.51713e-08
4.64427e-08
1.49527e-09
3.40307e-08
3.44353e-08
7.37409e-08
1.64173e-09
4.38741e-08
4.6037e-08
1.12128e-07
1.87299e-09
5.99386e-08
6.01448e-08
1.64445e-07
2.13361e-09
7.40085e-08
7.44596e-08
2.18234e-07
2.64276e-09
9.91014e-08
9.63131e-08
2.93092e-07
3.15258e-09
1.18888e-07
1.20621e-07
3.84235e-07
3.95577e-09
1.43685e-07
1.44699e-07
4.6053e-07
5.11128e-09
1.72467e-07
1.7329e-07
5.26159e-07
6.46164e-09
2.14118e-07
2.07591e-07
5.99554e-07
8.38472e-09
2.52239e-07
2.42648e-07
6.56051e-07
1.08739e-08
2.84389e-07
2.80332e-07
7.10409e-07
1.36034e-08
3.17952e-07
3.20999e-07
7.5964e-07
1.75813e-08
3.60673e-07
3.64641e-07
8.05957e-07
2.2398e-08
4.10075e-07
4.09046e-07
8.47109e-07
2.79004e-08
4.54198e-07
4.54959e-07
8.82913e-07
3.47623e-08
5.04944e-07
5.04925e-07
9.17236e-07
4.36745e-08
5.50263e-07
5.55673e-07
9.50119e-07
5.28702e-08
6.02445e-07
5.99876e-07
9.8052e-07
6.5251e-08
6.54489e-07
6.50918e-07
1.01091e-06
7.82692e-08
6.923e-07
6.95678e-07
1.03964e-06
9.36236e-08
7.404e-07
7.42818e-07
1.06691e-06
1.11632e-07
7.89431e-07
7.83712e-07
1.09481e-06
1.30578e-07
8.25823e-07
8.28813e-07
1.12191e-06
1.52307e-07
8.67826e-07
8.65755e-07
1.14749e-06
1.76165e-07
9.03224e-07
9.07932e-07
1.17263e-06
2.02454e-07
9.39561e-07
9.38024e-07
1.19772e-06
2.28775e-07
9.70197e-07
9.71352e-07
1.21879e-06
2.58087e-07
1.00076e-06
1.00228e-06
1.24339e-06
2.88238e-07
1.02815e-06
1.02918e-06
1.26332e-06
3.18425e-07
1.057e-06
1.05342e-06
1.28354e-06
3.51117e-07
1.07821e-06
1.07947e-06
1.3005e-06
3.82002e-07
1.09791e-06
1.09896e-06
1.32051e-06
4.11802e-07
1.12067e-06
1.12309e-06
1.33829e-06
4.45864e-07
1.14211e-06
1.13984e-06
1.35101e-06
4.71457e-07
1.16107e-06
1.15745e-06
1.36816e-06
5.02403e-07
1.17224e-06
1.17699e-06
1.38324e-06
5.30003e-07
1.18491e-06
1.19307e-06
1.39768e-06
5.53053e-07
1.21035e-06
1.20385e-06
1.40832e-06
5.77893e-07
1.22443e-06
1.21862e-06
1.42128e-06
6.01235e-07
1.23286e-06
1.23313e-06
1.43412e-06
6.18736e-07
1.2405e-06
1.24762e-06
1.44205e-06
6.41203e-07
1.2524e-06
1.25268e-06
1.45213e-06
6.60761e-07
1.26882e-06
1.26441e-06
1.4625e-06
6.7289e-07
1.27217e-06
1.27675e-06
1.4719e-06
6.89627e-07
1.27337e-06
1.27879e-06
1.47581e-06
7.12904e-07
1.29656e-06
1.28778e-06
1.48641e-06
7.23854e-07
1.29603e-06
1.30261e-06
1.49626e-06
7.26075e-07
1.28867e-06
1.29749e-06
1.49899e-06
7.39509e-07
1.31147e-06
1.29661e-06
1.49924e-06
7.65082e-07
1.32323e-06
1.31577e-06
1.51448e-06
7.73507e-07
1.30369e-06
1.3193e-06
1.51908e-06
7.68059e-07
1.29973e-06
1.308e-06
1.51169e-06
7.72889e-07
1.31953e-06
1.30246e-06
1.51117e-06
7.90484e-07
1.32304e-06
1.32117e-06
1.52331e-06
7.98616e-07
1.31982e-06
1.33078e-06
1.52922e-06
7.99318e-07
1.31721e-06
1.31512e-06
1.5279e-06
7.97037e-07
1.31044e-06
1.30456e-06
1.51908e-06
7.96816e-07
1.31156e-06
1.31525e-06
1.51596e-06
8.07035e-07
1.3182e-06
1.32361e-06
1.52741e-06
8.10333e-07
1.31598e-06
1.3154e-06
1.53308e-06
8.02761e-07
1.30116e-06
1.30015e-06
1.52268e-06
7.98375e-07
1.29765e-06
1.29561e-06
1.51219e-06
8.01417e-07
1.30078e-06
1.30323e-06
1.5148e-06
8.01271e-07
1.30177e-06
1.30322e-06
1.52124e-06
7.97595e-07
1.28913e-06
1.28746e-06
1.51285e-06
7.87593e-07
1.27527e-06
1.27457e-06
1.50178e-06
7.82118e-07
1.27352e-06
1.27515e-06
1.49742e-06
7.83949e-07
1.27348e-06
1.27636e-06
1.49488e-06
7.80474e-07
1.2624e-06
1.26022e-06
1.49019e-06
7.69701e-07
1.25361e-06
1.25248e-06
1.48503e-06
7.49396e-07
1.19458e-06
1.19927e-06
1.44299e-06
5.00517e-09
4.22758e-09
4.15193e-09
4.95421e-09
3.81768e-09
4.16013e-09
1.89962e-09
2.11291e-09
1.84636e-09
2.80739e-09
4.23412e-09
4.05857e-09
5.02695e-09
3.99113e-09
4.33644e-09
4.76489e-09
4.96994e-09
4.56747e-09
6.02224e-09
4.71917e-09
5.48781e-09
4.39551e-09
4.92256e-09
4.50531e-09
5.40969e-09
5.60196e-09
4.97698e-09
5.02312e-09
6.02148e-09
4.78279e-09
5.53592e-09
4.99125e-09
4.58106e-09
5.97003e-09
5.06743e-09
5.91595e-09
4.38848e-09
4.51733e-09
4.15804e-09
5.27459e-09
4.29051e-09
4.64076e-09
4.02566e-09
4.44265e-09
4.1077e-09
4.84288e-09
4.82672e-09
4.51172e-09
4.31413e-09
5.29379e-09
4.42975e-09
4.534e-09
4.5448e-09
4.14362e-09
5.89271e-09
3.78939e-09
5.83251e-09
4.11851e-09
4.11545e-09
3.8064e-09
4.45146e-09
3.94582e-09
3.99027e-09
3.69365e-09
4.05129e-09
3.78267e-09
4.42379e-09
4.17012e-09
4.25226e-09
3.81586e-09
4.31348e-09
4.15277e-09
3.81875e-09
4.11362e-09
3.75954e-09
5.81563e-09
3.06307e-09
5.79806e-09
3.94745e-09
3.77358e-09
3.49632e-09
3.86427e-09
3.60665e-09
3.53458e-09
3.36252e-09
3.73502e-09
3.52128e-09
4.22308e-09
3.71855e-09
4.16692e-09
3.46858e-09
3.69854e-09
3.9746e-09
3.41889e-09
3.74223e-09
3.47637e-09
5.80216e-09
2.75072e-09
5.86445e-09
3.84271e-09
3.47232e-09
3.2308e-09
3.43927e-09
3.28749e-09
3.19262e-09
3.08137e-09
3.48404e-09
3.31931e-09
4.13757e-09
3.39425e-09
3.98027e-09
3.19137e-09
3.34152e-09
3.87696e-09
3.14106e-09
3.45775e-09
3.19729e-09
5.91934e-09
2.57906e-09
6.06896e-09
3.80161e-09
3.21122e-09
3.00878e-09
3.12208e-09
3.02002e-09
2.94006e-09
2.89998e-09
3.29964e-09
3.15761e-09
3.90542e-09
3.13026e-09
3.63589e-09
2.96707e-09
3.08505e-09
3.84511e-09
2.94135e-09
3.18165e-09
2.9599e-09
6.13244e-09
2.46506e-09
6.495e-09
3.84185e-09
2.99411e-09
2.82561e-09
2.88845e-09
2.86268e-09
2.75358e-09
2.7211e-09
3.14691e-09
3.03966e-09
3.54755e-09
2.91781e-09
3.32469e-09
2.7886e-09
2.90144e-09
3.87617e-09
2.79288e-09
2.94915e-09
2.76945e-09
6.68801e-09
2.38099e-09
7.52759e-09
4.03697e-09
2.81532e-09
2.66828e-09
2.71453e-09
2.67449e-09
2.61483e-09
2.55956e-09
3.03585e-09
2.95836e-09
3.26101e-09
2.75047e-09
3.07875e-09
2.65233e-09
2.76041e-09
3.96457e-09
2.66998e-09
2.76209e-09
2.6135e-09
7.87416e-09
2.31809e-09
8.75087e-09
4.18703e-09
2.66105e-09
2.53023e-09
2.58742e-09
2.53089e-09
2.51894e-09
2.4733e-09
2.95786e-09
2.91396e-09
3.01717e-09
2.62371e-09
2.83035e-09
2.55488e-09
2.64369e-09
4.1471e-09
2.57482e-09
2.60977e-09
2.49083e-09
8.87255e-09
2.27915e-09
8.39571e-09
3.74225e-09
2.52722e-09
2.42578e-09
2.50167e-09
2.45881e-09
2.46299e-09
2.42507e-09
2.91781e-09
2.82252e-09
2.77424e-09
2.53607e-09
2.64281e-09
2.49609e-09
2.55834e-09
4.2584e-09
2.53456e-09
2.49094e-09
2.40192e-09
7.91617e-09
2.26387e-09
6.98525e-09
3.49155e-09
2.42783e-09
2.36348e-09
2.45568e-09
2.41681e-09
2.44901e-09
2.41051e-09
2.81226e-09
2.66742e-09
2.60787e-09
2.48616e-09
2.53485e-09
2.47722e-09
2.53071e-09
4.06813e-09
2.51472e-09
2.40555e-09
2.34729e-09
6.82531e-09
2.28003e-09
6.53529e-09
3.384e-09
2.37147e-09
2.34233e-09
2.45195e-09
2.41447e-09
2.48022e-09
2.44708e-09
2.67829e-09
2.70387e-09
2.52161e-09
2.47893e-09
2.52006e-09
2.50072e-09
2.50781e-09
3.96882e-09
2.51499e-09
2.35649e-09
2.3314e-09
6.44429e-09
2.33256e-09
6.02489e-09
2.95808e-09
2.3594e-09
2.37313e-09
2.49614e-09
2.46489e-09
2.56782e-09
2.55229e-09
2.73205e-09
2.81456e-09
2.52608e-09
2.51517e-09
2.58599e-09
2.58286e-09
2.52434e-09
4.1149e-09
2.57786e-09
2.34962e-09
2.36386e-09
5.80506e-09
2.44511e-09
4.9687e-09
2.72019e-09
2.40518e-09
2.47263e-09
2.60021e-09
2.58647e-09
2.7344e-09
2.72832e-09
2.86164e-09
2.95559e-09
2.61496e-09
2.61407e-09
2.74522e-09
2.74055e-09
2.60256e-09
4.41032e-09
2.7295e-09
2.39573e-09
2.46185e-09
4.66319e-09
2.62394e-09
3.96873e-09
2.60178e-09
2.52712e-09
2.67541e-09
2.78938e-09
2.77227e-09
3.00309e-09
2.95132e-09
2.99832e-09
3.01889e-09
2.79842e-09
2.79431e-09
3.00928e-09
3.00567e-09
2.78349e-09
4.62173e-09
2.99612e-09
2.51588e-09
2.66292e-09
3.81601e-09
2.90528e-09
3.56378e-09
2.69487e-09
2.76764e-09
3.04712e-09
3.09733e-09
3.05071e-09
3.43314e-09
3.38278e-09
3.07577e-09
3.21657e-09
3.1014e-09
3.09313e-09
3.42828e-09
3.42881e-09
3.08115e-09
4.74542e-09
3.42972e-09
2.75502e-09
3.02886e-09
3.53302e-09
3.34475e-09
3.54847e-09
3.03238e-09
3.20427e-09
3.69572e-09
3.58195e-09
3.52419e-09
4.11204e-09
4.02822e-09
3.34761e-09
3.76117e-09
3.57478e-09
3.56073e-09
4.0829e-09
4.09469e-09
3.5764e-09
5.04753e-09
4.12937e-09
3.18226e-09
3.6862e-09
3.62043e-09
4.03169e-09
4.01631e-09
3.66221e-09
3.95517e-09
4.84296e-09
4.34743e-09
4.25752e-09
5.1359e-09
5.11869e-09
4.00827e-09
4.986e-09
4.30575e-09
4.30445e-09
5.09916e-09
5.12956e-09
4.33556e-09
5.59482e-09
5.14685e-09
3.94616e-09
4.8478e-09
4.2035e-09
5.13413e-09
4.93633e-09
4.78723e-09
5.26199e-09
6.83756e-09
5.45719e-09
5.41613e-09
6.64585e-09
6.54013e-09
5.38731e-09
6.72362e-09
5.42252e-09
5.4516e-09
6.61281e-09
6.66437e-09
5.47779e-09
6.61217e-09
6.63873e-09
5.2829e-09
6.88271e-09
5.25238e-09
6.72581e-09
6.3793e-09
6.72937e-09
7.57056e-09
1.02379e-08
7.14795e-09
7.07348e-09
8.90526e-09
8.86304e-09
7.50005e-09
1.03549e-08
7.09679e-09
7.12564e-09
8.83746e-09
8.93274e-09
7.15803e-09
8.62565e-09
8.8952e-09
7.60187e-09
1.04128e-08
6.86435e-09
8.96734e-09
8.58101e-09
1.02188e-08
1.14297e-08
1.63258e-08
9.60351e-09
9.50862e-09
1.21526e-08
1.21011e-08
1.13439e-08
1.61528e-08
9.52683e-09
9.6142e-09
1.20754e-08
1.21438e-08
9.63472e-09
1.18016e-08
1.21298e-08
1.15805e-08
1.64449e-08
9.35336e-09
1.21569e-08
1.17344e-08
1.6288e-08
1.81387e-08
2.66652e-08
1.32086e-08
1.30939e-08
1.66224e-08
1.64604e-08
1.82191e-08
2.62716e-08
1.3132e-08
1.32234e-08
1.6494e-08
1.65726e-08
1.3178e-08
1.61842e-08
1.69509e-08
1.83466e-08
2.67686e-08
1.27507e-08
1.70703e-08
1.6566e-08
2.69804e-08
2.95729e-08
4.32853e-08
1.80246e-08
1.79972e-08
2.31142e-08
2.29361e-08
2.91808e-08
4.32079e-08
1.78795e-08
1.79401e-08
2.30115e-08
2.31916e-08
1.83089e-08
2.25216e-08
2.2565e-08
2.97653e-08
4.31982e-08
1.79659e-08
2.32713e-08
2.22517e-08
4.2391e-08
4.79372e-08
6.5797e-08
2.48478e-08
2.4296e-08
3.09712e-08
3.13435e-08
4.71573e-08
6.6881e-08
2.47412e-08
2.4914e-08
3.0779e-08
3.0986e-08
2.45654e-08
3.09883e-08
3.15874e-08
4.78654e-08
6.73966e-08
2.41575e-08
3.1438e-08
3.16652e-08
6.77528e-08
7.17835e-08
1.03284e-07
3.35906e-08
3.44694e-08
4.21912e-08
4.18699e-08
7.45345e-08
1.0426e-07
3.33624e-08
3.37525e-08
4.19771e-08
4.28201e-08
3.36764e-08
4.14786e-08
4.2162e-08
7.36566e-08
1.06403e-07
3.38336e-08
4.34462e-08
4.24322e-08
1.02148e-07
1.11127e-07
1.49065e-07
4.503e-08
4.42842e-08
5.56483e-08
5.59544e-08
1.11477e-07
1.54813e-07
4.48508e-08
4.55989e-08
5.50696e-08
5.55039e-08
4.58307e-08
5.56331e-08
5.57457e-08
1.1463e-07
1.54641e-07
4.65097e-08
5.65782e-08
5.75829e-08
1.55462e-07
1.60996e-07
2.08667e-07
5.98472e-08
6.03493e-08
7.14444e-08
7.05299e-08
1.66368e-07
2.08199e-07
5.93063e-08
5.93988e-08
7.134e-08
7.09659e-08
5.96013e-08
6.98591e-08
7.07059e-08
1.65855e-07
2.04149e-07
6.16091e-08
7.01029e-08
7.27225e-08
2.058e-07
2.21095e-07
2.76794e-07
7.5528e-08
7.48028e-08
9.15415e-08
9.38781e-08
2.19444e-07
2.86987e-07
7.52998e-08
7.51967e-08
9.09981e-08
9.02307e-08
7.4363e-08
9.31244e-08
9.15355e-08
2.15315e-07
2.70731e-07
7.69992e-08
9.09339e-08
9.83345e-08
2.74012e-07
2.9159e-07
3.55324e-07
9.71699e-08
9.96453e-08
1.12823e-07
1.14291e-07
3.05532e-07
3.60829e-07
9.65285e-08
9.5649e-08
1.12466e-07
1.13705e-07
9.81664e-08
1.14268e-07
1.15309e-07
2.87412e-07
3.55934e-07
1.05898e-07
1.14167e-07
1.24571e-07
3.68556e-07
3.70379e-07
4.26887e-07
1.18706e-07
1.18454e-07
1.37757e-07
1.37136e-07
3.73231e-07
4.18188e-07
1.18331e-07
1.20024e-07
1.37093e-07
1.38088e-07
1.21196e-07
1.36026e-07
1.43547e-07
3.71613e-07
4.32082e-07
1.30322e-07
1.38544e-07
1.42937e-07
4.44692e-07
4.4318e-07
5.04894e-07
1.44223e-07
1.44797e-07
1.66636e-07
1.6735e-07
4.34305e-07
5.01638e-07
1.43607e-07
1.44591e-07
1.66241e-07
1.66419e-07
1.50052e-07
1.66034e-07
1.67583e-07
4.47608e-07
5.01947e-07
1.4592e-07
1.65675e-07
1.69294e-07
5.12879e-07
5.20893e-07
5.78448e-07
1.75139e-07
1.735e-07
1.99517e-07
2.02374e-07
5.17575e-07
5.837e-07
1.74743e-07
1.74129e-07
1.99228e-07
1.98566e-07
1.74783e-07
2.02255e-07
1.99807e-07
5.17874e-07
5.78426e-07
1.78337e-07
1.98575e-07
2.06782e-07
5.83191e-07
5.94075e-07
6.39166e-07
2.07316e-07
2.14134e-07
2.33598e-07
2.45024e-07
6.03558e-07
6.62595e-07
2.07045e-07
2.07381e-07
2.33112e-07
2.34109e-07
2.07931e-07
2.4401e-07
2.3359e-07
5.93264e-07
6.41607e-07
2.15962e-07
2.33987e-07
2.42417e-07
6.42729e-07
6.53147e-07
7.00657e-07
2.43164e-07
2.53608e-07
2.72651e-07
2.77928e-07
6.7506e-07
7.04504e-07
2.42571e-07
2.42734e-07
2.72198e-07
2.71019e-07
2.43388e-07
2.75877e-07
2.71464e-07
6.56099e-07
6.96496e-07
2.50382e-07
2.70685e-07
2.72934e-07
6.98009e-07
7.13363e-07
7.48763e-07
2.82614e-07
2.86267e-07
3.12017e-07
3.10547e-07
7.14334e-07
7.44979e-07
2.82127e-07
2.80876e-07
3.10716e-07
3.11019e-07
2.80808e-07
3.09064e-07
3.10781e-07
7.09174e-07
7.49452e-07
2.80601e-07
3.10011e-07
3.08807e-07
7.47424e-07
7.60212e-07
7.93965e-07
3.21549e-07
3.1952e-07
3.53721e-07
3.5062e-07
7.56997e-07
7.91972e-07
3.20399e-07
3.22057e-07
3.53324e-07
3.54987e-07
3.21365e-07
3.49557e-07
3.53238e-07
7.61787e-07
7.94663e-07
3.19417e-07
3.54339e-07
3.51866e-07
7.94537e-07
8.05972e-07
8.37153e-07
3.65576e-07
3.61315e-07
4.00052e-07
3.98149e-07
8.03934e-07
8.36715e-07
3.65221e-07
3.65137e-07
3.99266e-07
3.97505e-07
3.64646e-07
3.97368e-07
3.99633e-07
8.05426e-07
8.34801e-07
3.63439e-07
3.96747e-07
3.98244e-07
8.3682e-07
8.4735e-07
8.73061e-07
4.11047e-07
4.10986e-07
4.45269e-07
4.4422e-07
8.46908e-07
8.72544e-07
4.10119e-07
4.09855e-07
4.44446e-07
4.45074e-07
4.11093e-07
4.43308e-07
4.45133e-07
8.45173e-07
8.72088e-07
4.09705e-07
4.44395e-07
4.43988e-07
8.73513e-07
8.82397e-07
9.07338e-07
4.57275e-07
4.55178e-07
4.91791e-07
4.92743e-07
8.8206e-07
9.08668e-07
4.5645e-07
4.55684e-07
4.91137e-07
4.92275e-07
4.5675e-07
4.91576e-07
4.92554e-07
8.81652e-07
9.09e-07
4.554e-07
4.9142e-07
4.91251e-07
9.08072e-07
9.16464e-07
9.41762e-07
5.0316e-07
5.06099e-07
5.41684e-07
5.41124e-07
9.17923e-07
9.39339e-07
5.0246e-07
5.05813e-07
5.41322e-07
5.44889e-07
5.04695e-07
5.40051e-07
5.41048e-07
9.18898e-07
9.43232e-07
5.0325e-07
5.43879e-07
5.40246e-07
9.41372e-07
9.50694e-07
9.72054e-07
5.54283e-07
5.51312e-07
5.88426e-07
5.89222e-07
9.47422e-07
9.73494e-07
5.54203e-07
5.56801e-07
5.88373e-07
5.89808e-07
5.53909e-07
5.88171e-07
5.88523e-07
9.51473e-07
9.71804e-07
5.5303e-07
5.88594e-07
5.87748e-07
9.72446e-07
9.80049e-07
1.00293e-06
6.00312e-07
6.0347e-07
6.39212e-07
6.43613e-07
9.83584e-07
1.00605e-06
5.99783e-07
6.00856e-07
6.37798e-07
6.38401e-07
6.00339e-07
6.42642e-07
6.39543e-07
9.79571e-07
1.00261e-06
5.99901e-07
6.37904e-07
6.37839e-07
1.00304e-06
1.01102e-06
1.0313e-06
6.51524e-07
6.55332e-07
6.84752e-07
6.83838e-07
1.01294e-06
1.02844e-06
6.50332e-07
6.5143e-07
6.84207e-07
6.85527e-07
6.50533e-07
6.83543e-07
6.86021e-07
1.01099e-06
1.03264e-06
6.4908e-07
6.84479e-07
6.84865e-07
1.03189e-06
1.03872e-06
1.06009e-06
6.95911e-07
6.92801e-07
7.30905e-07
7.2886e-07
1.03483e-06
1.05879e-06
6.95484e-07
6.96487e-07
7.30895e-07
7.32526e-07
6.98434e-07
7.26637e-07
7.30097e-07
1.03999e-06
1.06025e-06
6.97101e-07
7.3194e-07
7.30269e-07
1.05987e-06
1.06746e-06
1.0874e-06
7.4273e-07
7.43084e-07
7.76838e-07
7.82374e-07
1.06793e-06
1.0917e-06
7.42396e-07
7.43682e-07
7.75143e-07
7.73348e-07
7.41615e-07
7.79293e-07
7.75825e-07
1.06735e-06
1.08617e-06
7.41357e-07
7.72396e-07
7.7547e-07
1.08752e-06
1.09446e-06
1.11493e-06
7.875e-07
7.92614e-07
8.17857e-07
8.19455e-07
1.09865e-06
1.11581e-06
7.85836e-07
7.84408e-07
8.17098e-07
8.19769e-07
7.86597e-07
8.16596e-07
8.19369e-07
1.09329e-06
1.11528e-06
7.86344e-07
8.19493e-07
8.18362e-07
1.11516e-06
1.12174e-06
1.14078e-06
8.27731e-07
8.28072e-07
8.58678e-07
8.58436e-07
1.12208e-06
1.1414e-06
8.2719e-07
8.2904e-07
8.5846e-07
8.56029e-07
8.29088e-07
8.57397e-07
8.58515e-07
1.12186e-06
1.13921e-06
8.28496e-07
8.55398e-07
8.57715e-07
1.1409e-06
1.14733e-06
1.16586e-06
8.68796e-07
8.68842e-07
8.95767e-07
8.95524e-07
1.14794e-06
1.16559e-06
8.68355e-07
8.66482e-07
8.95201e-07
8.98835e-07
8.68646e-07
8.94768e-07
8.96003e-07
1.14623e-06
1.16805e-06
8.67655e-07
8.98236e-07
8.95598e-07
1.16617e-06
1.17238e-06
1.19144e-06
9.04801e-07
9.03937e-07
9.32537e-07
9.32136e-07
1.17202e-06
1.19181e-06
9.04462e-07
9.08261e-07
9.31697e-07
9.31078e-07
9.04985e-07
9.30472e-07
9.33492e-07
1.17412e-06
1.18972e-06
9.048e-07
9.30454e-07
9.3325e-07
1.19172e-06
1.19743e-06
1.21344e-06
9.40914e-07
9.40887e-07
9.63654e-07
9.63741e-07
1.19798e-06
1.21363e-06
9.39805e-07
9.38583e-07
9.63115e-07
9.63212e-07
9.41888e-07
9.63477e-07
9.62779e-07
1.19558e-06
1.21389e-06
9.4138e-07
9.63176e-07
9.62066e-07
1.21307e-06
1.21943e-06
1.23726e-06
9.71393e-07
9.70882e-07
9.95379e-07
9.93708e-07
1.21909e-06
1.23522e-06
9.71063e-07
9.71562e-07
9.94629e-07
9.95128e-07
9.70143e-07
9.92838e-07
9.954e-07
1.22027e-06
1.23651e-06
9.6964e-07
9.94384e-07
9.95022e-07
1.23735e-06
1.2429e-06
1.25725e-06
1.00276e-06
1.00108e-06
1.02219e-06
1.02134e-06
1.24099e-06
1.25676e-06
1.00191e-06
1.00278e-06
1.02221e-06
1.02412e-06
1.00367e-06
1.02158e-06
1.02387e-06
1.24228e-06
1.25933e-06
1.00312e-06
1.02387e-06
1.0234e-06
1.25811e-06
1.26262e-06
1.27821e-06
1.02858e-06
1.02827e-06
1.04834e-06
1.0504e-06
1.26222e-06
1.27938e-06
1.02879e-06
1.02957e-06
1.04777e-06
1.04691e-06
1.02965e-06
1.04989e-06
1.04808e-06
1.26431e-06
1.2772e-06
1.02943e-06
1.04654e-06
1.04741e-06
1.27832e-06
1.28356e-06
1.29724e-06
1.05505e-06
1.05748e-06
1.07404e-06
1.07402e-06
1.28513e-06
1.29766e-06
1.05408e-06
1.05367e-06
1.07379e-06
1.07407e-06
1.05479e-06
1.07388e-06
1.0731e-06
1.28265e-06
1.29718e-06
1.05373e-06
1.07395e-06
1.07225e-06
1.29596e-06
1.30213e-06
1.3146e-06
1.07927e-06
1.07839e-06
1.09393e-06
1.09313e-06
1.30196e-06
1.31387e-06
1.07955e-06
1.07972e-06
1.09336e-06
1.09365e-06
1.07782e-06
1.09233e-06
1.09371e-06
1.30186e-06
1.31414e-06
1.07754e-06
1.0935e-06
1.09359e-06
1.31485e-06
1.31947e-06
1.33259e-06
1.09944e-06
1.09881e-06
1.11692e-06
1.11526e-06
1.3187e-06
1.33038e-06
1.09832e-06
1.09882e-06
1.11598e-06
1.11684e-06
1.10027e-06
1.11527e-06
1.1187e-06
1.31923e-06
1.33359e-06
1.09969e-06
1.11735e-06
1.11777e-06
1.33414e-06
1.33721e-06
1.34748e-06
1.12231e-06
1.12024e-06
1.13483e-06
1.13642e-06
1.33498e-06
1.34969e-06
1.12187e-06
1.12271e-06
1.13624e-06
1.13689e-06
1.12371e-06
1.13651e-06
1.13481e-06
1.33823e-06
1.34798e-06
1.12299e-06
1.13649e-06
1.13494e-06
1.34703e-06
1.35174e-06
1.36383e-06
1.13837e-06
1.14239e-06
1.1534e-06
1.15755e-06
1.35535e-06
1.36765e-06
1.13963e-06
1.14036e-06
1.15268e-06
1.15262e-06
1.13794e-06
1.15695e-06
1.15254e-06
1.35224e-06
1.36363e-06
1.13778e-06
1.15249e-06
1.15121e-06
1.36296e-06
1.36877e-06
1.37866e-06
1.1591e-06
1.16161e-06
1.17353e-06
1.17068e-06
1.3714e-06
1.37622e-06
1.15805e-06
1.15744e-06
1.17266e-06
1.17245e-06
1.15847e-06
1.17031e-06
1.17424e-06
1.36822e-06
1.37865e-06
1.15707e-06
1.17257e-06
1.17318e-06
1.37922e-06
1.38232e-06
1.39164e-06
1.17719e-06
1.17257e-06
1.18624e-06
1.17925e-06
1.37869e-06
1.38444e-06
1.1765e-06
1.17698e-06
1.18656e-06
1.18865e-06
1.17818e-06
1.17901e-06
1.1876e-06
1.38284e-06
1.3939e-06
1.17737e-06
1.18893e-06
1.18815e-06
1.39362e-06
1.39584e-06
1.40472e-06
1.18964e-06
1.18518e-06
1.20173e-06
1.20484e-06
1.38981e-06
1.40629e-06
1.1905e-06
1.19276e-06
1.20204e-06
1.20215e-06
1.19078e-06
1.20498e-06
1.20155e-06
1.39816e-06
1.40461e-06
1.1919e-06
1.20163e-06
1.20194e-06
1.40485e-06
1.40868e-06
1.41837e-06
1.20602e-06
1.21008e-06
1.21805e-06
1.22116e-06
1.41079e-06
1.42215e-06
1.20558e-06
1.20429e-06
1.21687e-06
1.21427e-06
1.20514e-06
1.22169e-06
1.2159e-06
1.40755e-06
1.41488e-06
1.20471e-06
1.21468e-06
1.21493e-06
1.4169e-06
1.42242e-06
1.42847e-06
1.22173e-06
1.22392e-06
1.23018e-06
1.23084e-06
1.42646e-06
1.43175e-06
1.22077e-06
1.2184e-06
1.22938e-06
1.22977e-06
1.22008e-06
1.23118e-06
1.23236e-06
1.41893e-06
1.42824e-06
1.21935e-06
1.22899e-06
1.23116e-06
1.43082e-06
1.43121e-06
1.43848e-06
1.23156e-06
1.23206e-06
1.23944e-06
1.23788e-06
1.43411e-06
1.4366e-06
1.23096e-06
1.23376e-06
1.23988e-06
1.24513e-06
1.23527e-06
1.2376e-06
1.24088e-06
1.4326e-06
1.44347e-06
1.2342e-06
1.24526e-06
1.24076e-06
1.43906e-06
1.44273e-06
1.45085e-06
1.24346e-06
1.24117e-06
1.25435e-06
1.24944e-06
1.43963e-06
1.446e-06
1.24406e-06
1.24756e-06
1.25473e-06
1.25175e-06
1.24216e-06
1.249e-06
1.25117e-06
1.44661e-06
1.44799e-06
1.24286e-06
1.2518e-06
1.25198e-06
1.44873e-06
1.4542e-06
1.46077e-06
1.25698e-06
1.25274e-06
1.26432e-06
1.26581e-06
1.44984e-06
1.46227e-06
1.25719e-06
1.25265e-06
1.26331e-06
1.26053e-06
1.25404e-06
1.26536e-06
1.26283e-06
1.45039e-06
1.45808e-06
1.25466e-06
1.25965e-06
1.26091e-06
1.45873e-06
1.46355e-06
1.46368e-06
1.26636e-06
1.26911e-06
1.26914e-06
1.27218e-06
1.4666e-06
1.46615e-06
1.26498e-06
1.26477e-06
1.26771e-06
1.27377e-06
1.26622e-06
1.27241e-06
1.27352e-06
1.46245e-06
1.46932e-06
1.26426e-06
1.27492e-06
1.27371e-06
1.4695e-06
1.46537e-06
1.47347e-06
1.26976e-06
1.27194e-06
1.27563e-06
1.27229e-06
1.46734e-06
1.46773e-06
1.26831e-06
1.27534e-06
1.27633e-06
1.27783e-06
1.27465e-06
1.27194e-06
1.27705e-06
1.47191e-06
1.47357e-06
1.2755e-06
1.27882e-06
1.27898e-06
1.47318e-06
1.47973e-06
1.49223e-06
1.28145e-06
1.27421e-06
1.29512e-06
1.29418e-06
1.47272e-06
1.49154e-06
1.28219e-06
1.2782e-06
1.29549e-06
1.28501e-06
1.2777e-06
1.29273e-06
1.2864e-06
1.47533e-06
1.48219e-06
1.27986e-06
1.28153e-06
1.28369e-06
1.48285e-06
1.49517e-06
1.49384e-06
1.29723e-06
1.29773e-06
1.29761e-06
1.29842e-06
1.4952e-06
1.49177e-06
1.29749e-06
1.29113e-06
1.29759e-06
1.30164e-06
1.28995e-06
1.29855e-06
1.29732e-06
1.488e-06
1.49853e-06
1.28748e-06
1.30105e-06
1.2966e-06
1.49299e-06
1.49508e-06
1.48445e-06
1.29562e-06
1.29487e-06
1.2888e-06
1.28656e-06
1.4929e-06
1.48345e-06
1.2954e-06
1.30237e-06
1.28881e-06
1.29714e-06
1.29891e-06
1.28911e-06
1.30001e-06
1.50082e-06
1.49401e-06
1.29877e-06
1.2999e-06
1.30143e-06
1.49776e-06
1.48546e-06
1.49358e-06
1.28772e-06
1.28607e-06
1.29597e-06
1.30336e-06
1.48512e-06
1.50328e-06
1.28785e-06
1.29448e-06
1.29542e-06
1.29251e-06
1.2987e-06
1.30415e-06
1.29711e-06
1.49503e-06
1.49263e-06
1.30072e-06
1.2945e-06
1.29812e-06
1.49577e-06
1.50061e-06
1.51826e-06
1.30384e-06
1.31148e-06
1.32024e-06
1.32452e-06
1.51085e-06
1.52496e-06
1.30266e-06
1.29656e-06
1.31861e-06
1.31398e-06
1.29863e-06
1.32322e-06
1.31304e-06
1.49716e-06
1.5111e-06
1.29849e-06
1.31215e-06
1.31034e-06
1.51083e-06
1.52239e-06
1.52019e-06
1.32263e-06
1.32455e-06
1.3201e-06
1.30928e-06
1.5267e-06
1.50595e-06
1.32131e-06
1.31771e-06
1.32104e-06
1.32103e-06
1.31615e-06
1.30886e-06
1.31867e-06
1.51543e-06
1.52061e-06
1.31359e-06
1.31984e-06
1.31771e-06
1.51751e-06
1.52095e-06
1.5056e-06
1.31533e-06
1.30376e-06
1.30368e-06
1.29739e-06
1.50619e-06
1.49692e-06
1.31702e-06
1.31966e-06
1.30611e-06
1.30997e-06
1.31723e-06
1.29787e-06
1.30867e-06
1.52206e-06
1.51067e-06
1.31754e-06
1.31098e-06
1.31177e-06
1.51086e-06
1.50627e-06
1.50564e-06
1.30182e-06
1.29921e-06
1.30615e-06
1.31604e-06
1.50081e-06
1.51476e-06
1.30382e-06
1.30692e-06
1.30465e-06
1.3018e-06
1.30645e-06
1.31597e-06
1.30647e-06
1.5112e-06
1.50122e-06
1.30952e-06
1.30243e-06
1.30681e-06
1.50789e-06
1.50999e-06
1.52055e-06
1.31069e-06
1.31988e-06
1.32047e-06
1.32391e-06
1.51933e-06
1.52686e-06
1.30873e-06
1.30213e-06
1.31888e-06
1.31629e-06
1.31008e-06
1.32319e-06
1.31923e-06
1.50347e-06
1.51766e-06
1.30798e-06
1.316e-06
1.31731e-06
1.51986e-06
1.52412e-06
1.52719e-06
1.32195e-06
1.32366e-06
1.32233e-06
1.32016e-06
1.5291e-06
1.52642e-06
1.321e-06
1.32127e-06
1.32338e-06
1.33e-06
1.32102e-06
1.32051e-06
1.32272e-06
1.52369e-06
1.53561e-06
1.3197e-06
1.33037e-06
1.32334e-06
1.52719e-06
1.52889e-06
1.52551e-06
1.32149e-06
1.31925e-06
1.31937e-06
1.31741e-06
1.52778e-06
1.52251e-06
1.32282e-06
1.33034e-06
1.31913e-06
1.3194e-06
1.3224e-06
1.31826e-06
1.32044e-06
1.53831e-06
1.52438e-06
1.32359e-06
1.3201e-06
1.32111e-06
1.52669e-06
1.52677e-06
1.51848e-06
1.31877e-06
1.3167e-06
1.31471e-06
1.31241e-06
1.52359e-06
1.51639e-06
1.31765e-06
1.31462e-06
1.31207e-06
1.30542e-06
1.31974e-06
1.31168e-06
1.31379e-06
1.52467e-06
1.51017e-06
1.31944e-06
1.3053e-06
1.31238e-06
1.51821e-06
1.51949e-06
1.51533e-06
1.31252e-06
1.31133e-06
1.30901e-06
1.31068e-06
1.5177e-06
1.51836e-06
1.31033e-06
1.30482e-06
1.3083e-06
1.31205e-06
1.31131e-06
1.30991e-06
1.30724e-06
1.51141e-06
1.5179e-06
1.31018e-06
1.31162e-06
1.30701e-06
1.51335e-06
1.51816e-06
1.52495e-06
1.30909e-06
1.31194e-06
1.31557e-06
1.31664e-06
1.52122e-06
1.52617e-06
1.3089e-06
1.31554e-06
1.31682e-06
1.32238e-06
1.30729e-06
1.31701e-06
1.315e-06
1.52234e-06
1.53225e-06
1.30737e-06
1.32264e-06
1.31609e-06
1.52375e-06
1.52822e-06
1.5297e-06
1.31745e-06
1.31763e-06
1.3188e-06
1.31753e-06
1.52909e-06
1.5285e-06
1.3186e-06
1.32319e-06
1.31967e-06
1.31926e-06
1.31753e-06
1.31848e-06
1.3204e-06
1.53556e-06
1.53042e-06
1.3184e-06
1.32009e-06
1.32067e-06
1.53161e-06
1.53085e-06
1.5179e-06
1.3173e-06
1.31491e-06
1.30562e-06
1.30344e-06
1.52942e-06
1.51503e-06
1.31787e-06
1.31497e-06
1.30601e-06
1.30322e-06
1.31969e-06
1.30396e-06
1.30862e-06
1.53101e-06
1.51495e-06
1.3197e-06
1.30315e-06
1.30872e-06
1.52194e-06
1.51864e-06
1.51158e-06
1.30254e-06
1.30075e-06
1.29832e-06
1.29747e-06
1.51587e-06
1.51031e-06
1.30283e-06
1.30025e-06
1.29802e-06
1.29569e-06
1.30528e-06
1.2975e-06
1.2982e-06
1.51562e-06
1.50782e-06
1.30536e-06
1.29535e-06
1.29742e-06
1.51112e-06
1.5137e-06
1.51507e-06
1.29846e-06
1.29778e-06
1.30053e-06
1.30046e-06
1.51238e-06
1.51463e-06
1.29802e-06
1.29612e-06
1.30038e-06
1.30224e-06
1.29694e-06
1.3001e-06
1.29742e-06
1.51032e-06
1.51662e-06
1.29584e-06
1.30161e-06
1.29695e-06
1.51171e-06
1.51716e-06
1.5167e-06
1.30058e-06
1.30103e-06
1.29864e-06
1.30163e-06
1.51744e-06
1.52081e-06
1.3005e-06
1.30351e-06
1.29841e-06
1.30337e-06
1.29868e-06
1.30183e-06
1.3009e-06
1.52e-06
1.52172e-06
1.29892e-06
1.30436e-06
1.30183e-06
1.51915e-06
1.51836e-06
1.51314e-06
1.29804e-06
1.30149e-06
1.29457e-06
1.29375e-06
1.52271e-06
1.51238e-06
1.29762e-06
1.30153e-06
1.29384e-06
1.29202e-06
1.30096e-06
1.29366e-06
1.29402e-06
1.52296e-06
1.51079e-06
1.30178e-06
1.29151e-06
1.29299e-06
1.51216e-06
1.51409e-06
1.5006e-06
1.29203e-06
1.28933e-06
1.28054e-06
1.27738e-06
1.51274e-06
1.49724e-06
1.29142e-06
1.28824e-06
1.28016e-06
1.27677e-06
1.29001e-06
1.27739e-06
1.27986e-06
1.51133e-06
1.49541e-06
1.28907e-06
1.27665e-06
1.27949e-06
1.50071e-06
1.50145e-06
1.49302e-06
1.27764e-06
1.27512e-06
1.27158e-06
1.27224e-06
1.49823e-06
1.49405e-06
1.27724e-06
1.27441e-06
1.27138e-06
1.27227e-06
1.27801e-06
1.27283e-06
1.27427e-06
1.49628e-06
1.49453e-06
1.27776e-06
1.27317e-06
1.27439e-06
1.4959e-06
1.49449e-06
1.49568e-06
1.27103e-06
1.27286e-06
1.27223e-06
1.27397e-06
1.49629e-06
1.49747e-06
1.271e-06
1.27397e-06
1.273e-06
1.27693e-06
1.27372e-06
1.27401e-06
1.27114e-06
1.49782e-06
1.50118e-06
1.274e-06
1.27686e-06
1.27146e-06
1.49352e-06
1.4982e-06
1.49336e-06
1.2727e-06
1.27381e-06
1.26903e-06
1.26567e-06
1.49918e-06
1.49106e-06
1.27348e-06
1.27679e-06
1.26886e-06
1.26479e-06
1.26989e-06
1.26438e-06
1.26336e-06
1.50289e-06
1.48935e-06
1.27018e-06
1.26359e-06
1.26318e-06
1.48892e-06
1.49416e-06
1.48077e-06
1.26539e-06
1.26329e-06
1.25327e-06
1.25378e-06
1.49202e-06
1.48156e-06
1.2646e-06
1.26078e-06
1.25218e-06
1.25123e-06
1.26226e-06
1.25428e-06
1.25614e-06
1.49002e-06
1.47904e-06
1.26199e-06
1.25248e-06
1.25603e-06
1.48368e-06
1.48187e-06
1.46051e-06
1.25238e-06
1.25306e-06
1.22954e-06
1.22986e-06
1.48276e-06
1.46104e-06
1.25136e-06
1.25108e-06
1.22972e-06
1.2329e-06
1.25547e-06
1.23082e-06
1.23212e-06
1.48057e-06
1.46475e-06
1.25551e-06
1.23422e-06
1.23288e-06
1.46352e-06
1.44081e-06
1.19429e-06
1.19386e-06
1.44084e-06
1.19491e-06
1.19852e-06
7.49453e-07
7.52686e-07
7.50984e-07
1.19549e-06
1.44573e-06
1.19628e-06
2.69456e-09
2.44903e-09
1.55352e-09
1.65094e-09
1.86138e-09
4.51996e-09
7.24788e-09
1.3826e-09
1.41835e-09
4.14025e-09
1.147e-09
8.75069e-09
4.92541e-09
5.58434e-09
2.25235e-09
7.22778e-09
1.865e-07
5.7819e-09
2.9331e-07
1.56024e-06
3.14694e-06
8.66831e-09
1.86722e-07
7.34752e-09
2.92604e-07
2.13576e-09
1.87684e-09
2.84342e-09
1.91466e-09
2.12664e-09
1.85793e-09
2.85936e-09
1.76578e-09
8.84623e-08
2.29666e-09
4.97039e-09
1.84059e-09
6.58463e-08
2.27965e-09
1.62207e-06
3.20401e-06
1.46981e-09
2.14592e-09
1.03277e-07
5.75203e-09
1.47688e-09
2.01256e-09
8.23184e-08
2.12905e-07
2.1211e-07
4.57002e-09
1.81167e-07
1.78975e-07
1.64373e-08
5.21479e-07
1.18734e-08
7.54089e-07
7.03562e-06
1.00145e-05
1.78405e-08
5.17723e-07
1.35224e-08
7.4926e-07
2.11536e-09
1.83946e-09
2.8503e-09
1.8493e-09
2.07999e-09