/*--------------------------------*- C++ -*----------------------------------*\
| =========                 |                                                 |
| \\      /  F ield         | OpenFOAM: The Open Source CFD Toolbox           |
|  \\    /   O peration     | Version:  v2012                                 |
|   \\  /    A nd           | Website:  www.openfoam.com                      |
|    \\/     M anipulation  |                                                 |
\*---------------------------------------------------------------------------*/
FoamFile
{
    version     2.0;
    format      ascii;
    class       volScalarField;
    location    "475";
    object      k;
}
// * * * * * * * * * * * * * * * * * * * * * * * * * * * * * * * * * * * * * //

dimensions      [0 2 -2 0 0 0 0];


internalField   nonuniform List<scalar> 
171728
(
2.70561e-07
3.02446e-07
4.31103e-07
3.36275e-07
2.68257e-07
2.86695e-07
4.31669e-07
3.22091e-07
2.64954e-07
2.69027e-07
3.85249e-07
3.10617e-07
2.61764e-07
2.52351e-07
3.09651e-07
2.96615e-07
2.5843e-07
2.36443e-07
2.36496e-07
2.79279e-07
2.55425e-07
2.21661e-07
1.97368e-07
2.6277e-07
2.53122e-07
2.09512e-07
1.87326e-07
2.50314e-07
2.52353e-07
2.01802e-07
1.84825e-07
2.38804e-07
2.51771e-07
1.99178e-07
1.8252e-07
2.32381e-07
2.49662e-07
1.99129e-07
1.81036e-07
2.58252e-07
2.46103e-07
2.03181e-07
1.80351e-07
3.59748e-07
2.43007e-07
2.45573e-07
1.79662e-07
5.13757e-07
2.40894e-07
3.51006e-07
1.79362e-07
5.90296e-07
2.39523e-07
5.06528e-07
1.81041e-07
4.9034e-07
2.38425e-07
6.52969e-07
1.85673e-07
2.79244e-07
2.3732e-07
7.28306e-07
1.93526e-07
2.25029e-07
2.36487e-07
7.26689e-07
2.0411e-07
2.12044e-07
2.35891e-07
5.08669e-07
2.23333e-07
2.20834e-07
2.35502e-07
4.03672e-07
2.55874e-07
2.56515e-07
2.3527e-07
3.69629e-07
3.11042e-07
3.21138e-07
2.35243e-07
3.93567e-07
3.91646e-07
4.51026e-07
2.35546e-07
4.75788e-07
4.99155e-07
6.47666e-07
2.36565e-07
6.30009e-07
6.99106e-07
1.12858e-06
2.39018e-07
8.97167e-07
9.55346e-07
1.76785e-06
2.42129e-07
1.24803e-06
1.19468e-06
2.83174e-06
2.47079e-07
1.52207e-06
1.58967e-06
3.09661e-06
2.56867e-07
2.39242e-06
2.47962e-06
6.65556e-06
2.66636e-07
2.59664e-06
2.83788e-06
7.68437e-06
2.90566e-07
3.69347e-06
3.40469e-06
1.00939e-05
3.03512e-07
4.12018e-06
4.35763e-06
1.06513e-05
3.63945e-07
6.15539e-06
5.53207e-06
1.74907e-05
3.87091e-07
6.05231e-06
6.75487e-06
1.79704e-05
4.46347e-07
7.94626e-06
7.40021e-06
1.93621e-05
6.11383e-07
8.94848e-06
9.24183e-06
2.2174e-05
6.49746e-07
1.1728e-05
1.09454e-05
2.37009e-05
8.57741e-07
1.30611e-05
1.18134e-05
2.51382e-05
1.11842e-06
1.31045e-05
1.39036e-05
2.65229e-05
1.15831e-06
1.53358e-05
1.55871e-05
2.79323e-05
1.76354e-06
1.71087e-05
1.69969e-05
2.95155e-05
2.00755e-06
1.92896e-05
1.93745e-05
3.055e-05
2.34987e-06
2.04028e-05
2.04302e-05
3.16624e-05
2.95877e-06
2.3217e-05
2.3022e-05
3.30047e-05
3.70099e-06
2.39542e-05
2.48092e-05
3.40544e-05
4.11606e-06
2.66995e-05
2.54144e-05
3.50641e-05
5.41553e-06
2.85762e-05
2.867e-05
3.64213e-05
5.8907e-06
2.86385e-05
2.92482e-05
3.7207e-05
7.13371e-06
3.16884e-05
3.1225e-05
3.83652e-05
8.46845e-06
3.32296e-05
3.28652e-05
3.95696e-05
9.20968e-06
3.34547e-05
3.41647e-05
4.02741e-05
1.1053e-05
3.6011e-05
3.5322e-05
4.14464e-05
1.20421e-05
3.65518e-05
3.7491e-05
4.24025e-05
1.38697e-05
3.84396e-05
3.7654e-05
4.32856e-05
1.51034e-05
3.90145e-05
3.93324e-05
4.37383e-05
1.68715e-05
4.04362e-05
4.07803e-05
4.54292e-05
1.83506e-05
4.14234e-05
4.11856e-05
4.55321e-05
1.97666e-05
4.28533e-05
4.25417e-05
4.65582e-05
2.18036e-05
4.34136e-05
4.37313e-05
4.71409e-05
2.27924e-05
4.40344e-05
4.391e-05
4.80074e-05
2.44534e-05
4.54661e-05
4.58381e-05
4.90369e-05
2.6353e-05
4.63766e-05
4.61226e-05
4.87154e-05
2.68631e-05
4.74777e-05
4.6717e-05
5.02151e-05
2.90155e-05
4.7324e-05
4.81289e-05
5.08242e-05
3.00415e-05
4.7857e-05
4.87822e-05
5.10454e-05
3.10614e-05
5.00012e-05
4.89017e-05
5.15939e-05
3.24974e-05
5.03295e-05
4.99365e-05
5.2439e-05
3.36135e-05
5.05567e-05
5.08479e-05
5.29962e-05
3.42179e-05
5.07388e-05
5.14829e-05
5.28759e-05
3.58179e-05
5.16346e-05
5.13297e-05
5.36866e-05
3.69137e-05
5.31292e-05
5.26936e-05
5.44954e-05
3.70383e-05
5.21071e-05
5.31948e-05
5.46515e-05
3.82381e-05
5.24772e-05
5.25634e-05
5.41258e-05
4.03516e-05
5.52196e-05
5.4345e-05
5.59976e-05
4.03965e-05
5.36042e-05
5.50737e-05
5.61357e-05
3.9852e-05
5.30141e-05
5.35825e-05
5.51747e-05
4.10618e-05
5.65349e-05
5.43927e-05
5.58987e-05
4.381e-05
5.69987e-05
5.64814e-05
5.79038e-05
4.34925e-05
5.3907e-05
5.59278e-05
5.67017e-05
4.25492e-05
5.46961e-05
5.48458e-05
5.6004e-05
4.31361e-05
5.6855e-05
5.4703e-05
5.69425e-05
4.49049e-05
5.66833e-05
5.74159e-05
5.80598e-05
4.54311e-05
5.67123e-05
5.7838e-05
5.79274e-05
4.54067e-05
5.65556e-05
5.57701e-05
5.78699e-05
4.48898e-05
5.58853e-05
5.53887e-05
5.67743e-05
4.49684e-05
5.65927e-05
5.71242e-05
5.71479e-05
4.66372e-05
5.77961e-05
5.81259e-05
5.9049e-05
4.68103e-05
5.72809e-05
5.70984e-05
5.85732e-05
4.58167e-05
5.59364e-05
5.58224e-05
5.72644e-05
4.5806e-05
5.65401e-05
5.62542e-05
5.72435e-05
4.66646e-05
5.71718e-05
5.75792e-05
5.82272e-05
4.69056e-05
5.75262e-05
5.759e-05
5.88391e-05
4.67819e-05
5.64064e-05
5.61871e-05
5.73652e-05
4.58098e-05
5.55824e-05
5.5535e-05
5.70084e-05
4.57887e-05
5.65365e-05
5.67285e-05
5.77683e-05
4.67001e-05
5.66689e-05
5.69804e-05
5.74325e-05
4.60404e-05
5.46976e-05
5.43693e-05
5.6836e-05
3.55773e-07
3.28971e-07
3.28472e-07
3.47954e-07
3.35718e-07
3.34862e-07
2.69975e-07
2.80474e-07
2.6364e-07
3.04007e-07
2.93365e-07
3.16849e-07
3.5626e-07
3.34721e-07
2.68922e-07
3.38061e-07
3.53074e-07
3.39714e-07
3.87031e-07
3.54325e-07
3.81647e-07
3.33397e-07
3.4689e-07
3.31339e-07
4.07517e-07
3.94525e-07
3.89526e-07
3.82349e-07
3.90311e-07
2.90939e-07
3.94483e-07
3.5378e-07
3.42528e-07
2.90941e-07
4.33762e-07
2.82153e-07
3.24187e-07
3.37031e-07
3.26473e-07
3.79332e-07
3.26393e-07
3.75643e-07
3.08398e-07
3.30053e-07
3.14342e-07
3.82434e-07
3.7748e-07
3.61923e-07
3.60244e-07
3.94416e-07
2.73508e-07
3.83e-07
3.40159e-07
3.29775e-07
2.784e-07
4.00032e-07
2.66444e-07
3.12858e-07
3.2412e-07
3.14816e-07
3.7421e-07
3.03898e-07
3.65493e-07
2.94684e-07
3.13187e-07
2.99697e-07
3.54721e-07
3.54091e-07
3.32907e-07
3.35519e-07
3.76752e-07
2.5635e-07
3.53404e-07
3.26781e-07
3.09852e-07
2.62451e-07
3.29832e-07
2.51235e-07
2.98289e-07
3.12356e-07
3.01563e-07
3.61214e-07
2.92925e-07
3.44094e-07
2.88678e-07
2.98661e-07
2.86449e-07
3.25802e-07
3.28634e-07
3.04702e-07
3.05698e-07
3.43725e-07
2.40406e-07
3.12838e-07
3.08066e-07
2.92526e-07
2.47626e-07
2.52688e-07
2.3727e-07
2.80765e-07
2.98744e-07
2.85038e-07
3.36113e-07
2.86411e-07
3.07376e-07
2.76142e-07
2.85478e-07
2.7308e-07
2.97912e-07
2.98288e-07
2.849e-07
2.81182e-07
3.03017e-07
2.25139e-07
2.79931e-07
2.91413e-07
2.77842e-07
2.34393e-07
2.03286e-07
2.26963e-07
2.63841e-07
2.8209e-07
2.69517e-07
2.97738e-07
2.71782e-07
2.73427e-07
2.59759e-07
2.72056e-07
2.6024e-07
2.8377e-07
2.77011e-07
2.84279e-07
2.66993e-07
2.74291e-07
2.12267e-07
2.61399e-07
2.7687e-07
2.65296e-07
2.25056e-07
1.88599e-07
2.21844e-07
2.51073e-07
2.67222e-07
2.60732e-07
2.67292e-07
2.56163e-07
2.53721e-07
2.45105e-07
2.59464e-07
2.48867e-07
2.86153e-07
2.64006e-07
3.09997e-07
2.56151e-07
2.58135e-07
2.03278e-07
2.49613e-07
2.64614e-07
2.54377e-07
2.21187e-07
1.85349e-07
2.1738e-07
2.39867e-07
2.60378e-07
2.59772e-07
2.5034e-07
2.43071e-07
2.42621e-07
2.40024e-07
2.48245e-07
2.37389e-07
3.19698e-07
2.53741e-07
3.4436e-07
2.46848e-07
2.4708e-07
1.99427e-07
2.40697e-07
2.53845e-07
2.44886e-07
2.15097e-07
1.83076e-07
2.13511e-07
2.32294e-07
2.59101e-07
2.53227e-07
2.40431e-07
2.37838e-07
2.33935e-07
2.30454e-07
2.36703e-07
2.27188e-07
3.49317e-07
2.44548e-07
3.53472e-07
2.38487e-07
2.38382e-07
1.99052e-07
2.32263e-07
2.44497e-07
2.35854e-07
2.16463e-07
1.8134e-07
2.91651e-07
2.5321e-07
2.52206e-07
2.40719e-07
2.31809e-07
2.28185e-07
2.26244e-07
2.22219e-07
2.26779e-07
2.21484e-07
3.52394e-07
2.36519e-07
3.19806e-07
2.31111e-07
2.31633e-07
2.00913e-07
2.319e-07
2.35484e-07
2.2706e-07
3.5693e-07
1.80502e-07
6.75469e-07
3.49695e-07
2.39582e-07
2.27499e-07
2.24517e-07
2.20563e-07
2.19856e-07
2.1635e-07
2.21642e-07
2.2465e-07
3.05159e-07
2.29388e-07
2.65188e-07
2.24615e-07
2.32692e-07
2.29186e-07
2.3766e-07
2.2674e-07
2.1903e-07
8.01547e-07
1.7985e-07
1.1356e-06
5.04519e-07
2.26678e-07
2.18023e-07
2.18415e-07
2.15442e-07
2.14936e-07
2.12935e-07
2.26715e-07
2.46039e-07
2.5482e-07
2.23221e-07
2.33092e-07
2.19333e-07
2.39471e-07
3.18874e-07
2.42254e-07
2.18836e-07
2.12292e-07
1.21342e-06
1.79278e-07
1.32497e-06
5.90722e-07
2.17727e-07
2.12275e-07
2.13979e-07
2.12412e-07
2.11803e-07
2.12603e-07
2.52067e-07
2.88366e-07
2.28346e-07
2.18194e-07
2.20024e-07
2.15453e-07
2.42224e-07
4.65918e-07
2.32403e-07
2.123e-07
2.0731e-07
1.33062e-06
1.80336e-07
1.26476e-06
5.36856e-07
2.12395e-07
2.0903e-07
2.11207e-07
2.12834e-07
2.10913e-07
2.15361e-07
2.96293e-07
3.38247e-07
2.18393e-07
2.14596e-07
2.15729e-07
2.13407e-07
2.26927e-07
6.21986e-07
2.16494e-07
2.07521e-07
2.04677e-07
1.12915e-06
1.84118e-07
7.43044e-07
2.86382e-07
2.09444e-07
2.09337e-07
2.11068e-07
2.16584e-07
2.12577e-07
2.19967e-07
3.45711e-07
3.72275e-07
2.15287e-07
2.13449e-07
2.15926e-07
2.14794e-07
2.14868e-07
7.16039e-07
2.13412e-07
2.05343e-07
2.05278e-07
6.41599e-07
1.90981e-07
4.01992e-07
2.27047e-07
2.10843e-07
2.14684e-07
2.14078e-07
2.22495e-07
2.18865e-07
2.24796e-07
3.78331e-07
3.75991e-07
2.16961e-07
2.15766e-07
2.21555e-07
2.21286e-07
2.1361e-07
7.3596e-07
2.18573e-07
2.06901e-07
2.10846e-07
3.46696e-07
2.00697e-07
2.52432e-07
2.10092e-07
2.17828e-07
2.28815e-07
2.21692e-07
2.24956e-07
2.33017e-07
2.29641e-07
3.72328e-07
2.73129e-07
2.23965e-07
2.2362e-07
2.3526e-07
2.34692e-07
2.2127e-07
5.6826e-07
2.32202e-07
2.14329e-07
2.25049e-07
2.37827e-07
2.18157e-07
2.17734e-07
2.15714e-07
2.34431e-07
2.61893e-07
2.36727e-07
2.30688e-07
2.60233e-07
2.58079e-07
2.68811e-07
2.86785e-07
2.3891e-07
2.39724e-07
2.61567e-07
2.57904e-07
2.36893e-07
4.10948e-07
2.58154e-07
2.32097e-07
2.54835e-07
2.17572e-07
2.47809e-07
2.21863e-07
2.42867e-07
2.74163e-07
3.1844e-07
2.68338e-07
2.70363e-07
3.01478e-07
2.84268e-07
3.03645e-07
3.12651e-07
2.69473e-07
2.66311e-07
3.01723e-07
3.02365e-07
2.70985e-07
3.70827e-07
2.96697e-07
2.67919e-07
3.18727e-07
2.29125e-07
2.95252e-07
2.54765e-07
3.01413e-07
3.42316e-07
4.26064e-07
3.19503e-07
2.96149e-07
3.61291e-07
3.85412e-07
3.27705e-07
4.86465e-07
3.1916e-07
3.14523e-07
3.60994e-07
3.72524e-07
3.14455e-07
3.90428e-07
3.66202e-07
3.42936e-07
4.35221e-07
2.72756e-07
3.66887e-07
3.21352e-07
4.19299e-07
4.54515e-07
6.59771e-07
3.84719e-07
3.98279e-07
4.67792e-07
4.45745e-07
5.09138e-07
5.67715e-07
3.85291e-07
3.94905e-07
4.67558e-07
4.68104e-07
3.89295e-07
4.23442e-07
4.62994e-07
4.76756e-07
6.34417e-07
3.46129e-07
4.75031e-07
4.15141e-07
5.92854e-07
7.11672e-07
9.7191e-07
4.9566e-07
4.97606e-07
6.29357e-07
6.02283e-07
6.43477e-07
9.98652e-07
4.93452e-07
5.00949e-07
6.22868e-07
6.25656e-07
5.02618e-07
5.90944e-07
6.18338e-07
6.97547e-07
9.92475e-07
4.53598e-07
6.541e-07
5.80597e-07
1.01982e-06
1.08347e-06
1.58258e-06
6.61728e-07
6.41738e-07
8.58246e-07
8.83115e-07
1.07541e-06
1.68703e-06
6.55014e-07
6.66315e-07
8.63229e-07
8.49244e-07
6.79526e-07
8.53561e-07
8.27156e-07
1.08956e-06
1.55266e-06
6.45256e-07
8.21933e-07
8.03712e-07
1.62892e-06
1.79778e-06
2.39685e-06
9.47691e-07
9.22453e-07
1.09654e-06
1.07246e-06
1.82625e-06
2.18589e-06
9.51004e-07
9.44033e-07
1.08307e-06
1.09542e-06
8.94656e-07
1.07325e-06
1.21384e-06
1.70901e-06
2.50694e-06
8.41714e-07
1.13544e-06
1.17793e-06
2.63717e-06
2.4742e-06
3.84509e-06
1.19334e-06
1.25308e-06
1.57634e-06
1.51928e-06
2.47252e-06
3.70389e-06
1.17853e-06
1.18756e-06
1.57236e-06
1.55777e-06
1.25705e-06
1.49519e-06
1.36457e-06
2.67255e-06
3.66728e-06
1.24774e-06
1.55854e-06
1.34318e-06
2.89093e-06
4.18543e-06
4.82578e-06
1.63146e-06
1.54879e-06
1.97053e-06
2.1735e-06
3.74253e-06
6.0048e-06
1.6328e-06
1.60043e-06
1.96001e-06
2.0024e-06
1.5567e-06
2.14459e-06
2.12969e-06
3.84441e-06
5.01539e-06
1.48656e-06
2.0972e-06
2.12568e-06
6.29901e-06
5.26465e-06
7.58716e-06
2.2028e-06
2.41224e-06
2.6406e-06
2.56683e-06
6.87543e-06
7.15995e-06
2.1613e-06
2.30975e-06
2.6634e-06
2.81742e-06
2.21792e-06
2.56199e-06
2.6295e-06
5.96906e-06
8.68796e-06
2.2101e-06
2.82104e-06
2.67367e-06
7.18637e-06
7.87451e-06
9.63059e-06
2.77438e-06
2.59657e-06
3.39586e-06
3.45515e-06
7.11175e-06
9.88622e-06
2.7576e-06
2.84294e-06
3.36519e-06
3.06833e-06
2.7904e-06
3.43905e-06
3.48374e-06
8.69967e-06
8.13798e-06
2.89316e-06
3.20028e-06
3.60288e-06
9.90211e-06
1.01461e-05
1.18451e-05
3.61733e-06
3.72628e-06
3.98912e-06
4.00212e-06
1.08208e-05
1.17357e-05
3.61346e-06
3.37013e-06
4.05596e-06
4.2661e-06
3.64689e-06
3.94049e-06
3.80296e-06
8.50069e-06
1.22214e-05
3.68441e-06
4.0456e-06
3.78711e-06
1.03602e-05
1.24279e-05
1.47041e-05
4.22469e-06
4.21586e-06
5.45326e-06
5.92195e-06
1.20872e-05
1.69816e-05
4.27705e-06
4.52207e-06
5.31728e-06
5.03652e-06
3.9188e-06
5.95037e-06
5.7185e-06
1.29036e-05
1.45772e-05
3.9733e-06
5.24634e-06
6.79514e-06
1.62827e-05
1.54393e-05
1.69089e-05
5.75816e-06
6.07391e-06
6.14716e-06
6.00811e-06
1.72358e-05
1.59021e-05
5.63148e-06
5.29148e-06
6.18022e-06
6.47745e-06
6.22668e-06
6.05523e-06
6.58575e-06
1.50186e-05
1.71341e-05
7.32444e-06
6.51545e-06
7.25067e-06
1.80106e-05
1.70341e-05
1.84184e-05
6.27867e-06
6.02038e-06
7.13026e-06
7.27454e-06
1.58846e-05
1.81228e-05
6.33612e-06
6.79647e-06
7.11677e-06
7.26635e-06
6.62133e-06
7.04967e-06
7.55882e-06
1.76294e-05
1.90029e-05
6.81706e-06
7.18229e-06
6.54968e-06
1.83857e-05
1.9235e-05
2.18886e-05
7.59363e-06
8.10769e-06
9.31661e-06
8.87358e-06
1.93473e-05
2.12323e-05
7.53468e-06
7.45981e-06
9.25396e-06
8.7274e-06
7.92647e-06
8.83151e-06
8.7926e-06
1.93066e-05
2.08684e-05
6.77673e-06
8.68365e-06
9.59669e-06
2.18452e-05
2.21776e-05
2.279e-05
9.68854e-06
8.97155e-06
1.00079e-05
1.05634e-05
2.15835e-05
2.40585e-05
9.67459e-06
9.24243e-06
1.00613e-05
1.05809e-05
9.23563e-06
1.07395e-05
1.02768e-05
2.16285e-05
2.35757e-05
1.03514e-05
1.06678e-05
1.13297e-05
2.33988e-05
2.31151e-05
2.48271e-05
1.0132e-05
1.16135e-05
1.1771e-05
1.31923e-05
2.48514e-05
2.58231e-05
1.01879e-05
1.08934e-05
1.16459e-05
1.14747e-05
1.05452e-05
1.30399e-05
1.18229e-05
2.37979e-05
2.44448e-05
1.13815e-05
1.14443e-05
1.17568e-05
2.46976e-05
2.54607e-05
2.65977e-05
1.24834e-05
1.32474e-05
1.39854e-05
1.32205e-05
2.58722e-05
2.56746e-05
1.23719e-05
1.18358e-05
1.40088e-05
1.34879e-05
1.23407e-05
1.30348e-05
1.34032e-05
2.48252e-05
2.63076e-05
1.22244e-05
1.34699e-05
1.322e-05
2.62384e-05
2.67266e-05
2.71418e-05
1.41529e-05
1.32513e-05
1.44409e-05
1.46646e-05
2.59412e-05
2.76879e-05
1.41476e-05
1.39375e-05
1.43742e-05
1.52348e-05
1.37017e-05
1.46468e-05
1.49083e-05
2.67575e-05
2.78709e-05
1.35689e-05
1.51365e-05
1.4865e-05
2.75413e-05
2.75415e-05
2.95374e-05
1.48002e-05
1.53991e-05
1.72404e-05
1.67464e-05
2.81107e-05
2.90682e-05
1.4694e-05
1.56743e-05
1.73079e-05
1.67413e-05
1.53765e-05
1.67618e-05
1.69272e-05
2.81184e-05
2.8814e-05
1.53475e-05
1.67959e-05
1.69169e-05
2.92054e-05
2.98984e-05
3.0241e-05
1.80067e-05
1.70782e-05
1.88293e-05
1.89094e-05
2.93794e-05
3.03187e-05
1.80633e-05
1.69652e-05
1.87896e-05
1.86939e-05
1.74587e-05
1.88819e-05
1.87625e-05
2.91434e-05
3.04111e-05
1.74028e-05
1.86566e-05
1.86884e-05
3.0295e-05
3.03697e-05
3.12821e-05
1.88951e-05
1.93277e-05
2.01297e-05
2.00615e-05
3.05627e-05
3.12569e-05
1.88432e-05
1.94337e-05
2.00582e-05
2.02713e-05
1.91029e-05
2.00214e-05
2.01875e-05
3.06751e-05
3.1132e-05
1.90652e-05
2.0219e-05
2.01877e-05
3.1352e-05
3.17253e-05
3.27815e-05
2.08556e-05
2.0443e-05
2.22937e-05
2.25753e-05
3.16399e-05
3.29447e-05
2.08328e-05
2.04296e-05
2.2261e-05
2.21522e-05
2.0706e-05
2.25434e-05
2.23119e-05
3.13682e-05
3.30948e-05
2.07089e-05
2.21581e-05
2.21584e-05
3.27334e-05
3.3009e-05
3.38105e-05
2.27288e-05
2.32453e-05
2.41857e-05
2.38898e-05
3.31115e-05
3.31846e-05
2.26814e-05
2.30176e-05
2.42688e-05
2.47895e-05
2.27076e-05
2.38672e-05
2.42686e-05
3.34698e-05
3.39104e-05
2.26316e-05
2.47035e-05
2.42534e-05
3.38289e-05
3.40627e-05
3.47195e-05
2.4513e-05
2.39773e-05
2.54174e-05
2.57125e-05
3.33635e-05
3.56609e-05
2.46654e-05
2.49181e-05
2.53857e-05
2.51235e-05
2.45379e-05
2.56842e-05
2.54821e-05
3.39838e-05
3.44731e-05
2.45208e-05
2.50432e-05
2.5529e-05
3.47478e-05
3.49991e-05
3.63304e-05
2.60356e-05
2.67261e-05
2.8089e-05
2.8453e-05
3.61717e-05
3.62296e-05
2.58597e-05
2.54192e-05
2.79217e-05
2.80815e-05
2.62643e-05
2.84633e-05
2.77191e-05
3.48366e-05
3.64935e-05
2.6155e-05
2.81278e-05
2.76327e-05
3.62124e-05
3.655e-05
3.68135e-05
2.843e-05
2.85376e-05
2.87805e-05
2.85309e-05
3.62164e-05
3.61345e-05
2.83833e-05
2.86822e-05
2.89687e-05
2.91742e-05
2.80684e-05
2.85868e-05
2.92167e-05
3.67508e-05
3.69607e-05
2.80246e-05
2.91036e-05
2.92514e-05
3.69986e-05
3.69736e-05
3.83203e-05
2.9062e-05
2.85888e-05
3.09574e-05
3.08807e-05
3.64698e-05
3.87708e-05
2.9264e-05
2.92973e-05
3.08962e-05
3.08925e-05
2.94496e-05
3.06775e-05
3.07403e-05
3.70634e-05
3.81811e-05
2.95785e-05
3.08671e-05
3.0686e-05
3.80948e-05
3.86707e-05
3.92801e-05
3.16239e-05
3.19224e-05
3.26984e-05
3.33525e-05
3.92282e-05
3.96151e-05
3.14338e-05
3.12749e-05
3.24979e-05
3.22856e-05
3.12518e-05
3.31565e-05
3.25821e-05
3.85016e-05
3.91459e-05
3.11607e-05
3.22276e-05
3.25111e-05
3.93452e-05
3.93855e-05
3.99496e-05
3.28195e-05
3.34138e-05
3.34019e-05
3.34537e-05
3.96371e-05
3.97263e-05
3.27336e-05
3.28995e-05
3.35735e-05
3.39812e-05
3.29893e-05
3.33105e-05
3.37193e-05
3.93831e-05
4.02579e-05
3.29218e-05
3.40944e-05
3.38059e-05
4.0109e-05
4.02398e-05
4.14617e-05
3.39023e-05
3.3547e-05
3.56367e-05
3.55125e-05
3.99528e-05
4.15444e-05
3.4068e-05
3.40518e-05
3.55083e-05
3.48347e-05
3.39901e-05
3.55456e-05
3.53564e-05
4.03507e-05
4.09183e-05
3.40549e-05
3.46562e-05
3.52087e-05
4.11915e-05
4.16405e-05
4.19536e-05
3.5917e-05
3.59992e-05
3.63465e-05
3.64255e-05
4.17853e-05
4.19954e-05
3.5737e-05
3.54872e-05
3.64143e-05
3.72526e-05
3.57466e-05
3.64222e-05
3.65007e-05
4.13075e-05
4.26711e-05
3.55881e-05
3.72258e-05
3.65872e-05
4.22011e-05
4.21346e-05
4.32032e-05
3.6691e-05
3.66296e-05
3.80519e-05
3.80337e-05
4.21104e-05
4.32078e-05
3.68157e-05
3.74692e-05
3.79649e-05
3.7548e-05
3.68691e-05
3.79405e-05
3.81147e-05
4.27766e-05
4.26148e-05
3.70296e-05
3.76172e-05
3.8087e-05
4.3169e-05
4.34e-05
4.37736e-05
3.83404e-05
3.84373e-05
3.88457e-05
3.89016e-05
4.34873e-05
4.3854e-05
3.81911e-05
3.75873e-05
3.88358e-05
3.89425e-05
3.82954e-05
3.89543e-05
3.85856e-05
4.26506e-05
4.39889e-05
3.81796e-05
3.88749e-05
3.84728e-05
4.3535e-05
4.39436e-05
4.4943e-05
3.9136e-05
3.90448e-05
4.03218e-05
4.00393e-05
4.39099e-05
4.45537e-05
3.91833e-05
3.94352e-05
4.03185e-05
4.04624e-05
3.88972e-05
3.99897e-05
4.05104e-05
4.43335e-05
4.50363e-05
3.88895e-05
4.04513e-05
4.06054e-05
4.51888e-05
4.51311e-05
4.54085e-05
4.06158e-05
4.03937e-05
4.11017e-05
4.1154e-05
4.4853e-05
4.56115e-05
4.05798e-05
4.07405e-05
4.11317e-05
4.10846e-05
4.09369e-05
4.12297e-05
4.13139e-05
4.51743e-05
4.54244e-05
4.09484e-05
4.11334e-05
4.11931e-05
4.55096e-05
4.55209e-05
4.64006e-05
4.12729e-05
4.14e-05
4.22497e-05
4.25384e-05
4.57413e-05
4.65942e-05
4.13339e-05
4.11766e-05
4.21485e-05
4.20835e-05
4.13363e-05
4.24539e-05
4.20052e-05
4.54889e-05
4.62504e-05
4.12334e-05
4.20213e-05
4.20729e-05
4.6247e-05
4.66561e-05
4.72219e-05
4.27025e-05
4.29197e-05
4.34727e-05
4.33704e-05
4.68451e-05
4.71143e-05
4.25492e-05
4.2572e-05
4.35692e-05
4.36443e-05
4.25654e-05
4.33967e-05
4.34219e-05
4.65721e-05
4.73533e-05
4.25544e-05
4.36515e-05
4.33952e-05
4.71024e-05
4.72691e-05
4.74757e-05
4.35139e-05
4.33841e-05
4.37946e-05
4.36671e-05
4.71275e-05
4.73601e-05
4.36718e-05
4.37279e-05
4.37847e-05
4.37809e-05
4.34706e-05
4.36145e-05
4.38314e-05
4.73873e-05
4.73317e-05
4.34543e-05
4.37877e-05
4.38926e-05
4.76623e-05
4.77009e-05
4.88573e-05
4.41807e-05
4.41656e-05
4.54974e-05
4.51802e-05
4.76491e-05
4.85636e-05
4.3947e-05
4.38912e-05
4.53506e-05
4.53934e-05
4.43162e-05
4.52388e-05
4.56158e-05
4.75109e-05
4.89843e-05
4.43235e-05
4.54644e-05
4.55903e-05
4.89976e-05
4.9004e-05
4.89535e-05
4.57273e-05
4.53383e-05
4.58457e-05
4.60402e-05
4.86788e-05
4.93157e-05
4.57359e-05
4.58032e-05
4.61049e-05
4.61852e-05
4.57846e-05
4.6094e-05
4.58351e-05
4.91683e-05
4.90633e-05
4.57925e-05
4.61226e-05
4.58631e-05
4.86967e-05
4.89716e-05
4.98564e-05
4.58603e-05
4.63939e-05
4.67209e-05
4.74033e-05
4.95734e-05
5.04619e-05
4.61193e-05
4.61892e-05
4.6454e-05
4.63383e-05
4.58417e-05
4.73012e-05
4.65249e-05
4.90695e-05
4.95402e-05
4.58656e-05
4.63011e-05
4.63669e-05
4.98239e-05
5.01969e-05
5.06572e-05
4.72724e-05
4.75362e-05
4.80316e-05
4.74174e-05
5.05175e-05
4.97754e-05
4.69187e-05
4.66793e-05
4.79492e-05
4.79386e-05
4.71386e-05
4.74192e-05
4.81151e-05
4.98506e-05
5.07611e-05
4.69515e-05
4.79694e-05
4.80675e-05
5.07977e-05
5.06686e-05
5.07181e-05
4.80577e-05
4.73151e-05
4.8072e-05
4.7436e-05
4.97035e-05
5.01499e-05
4.80729e-05
4.8126e-05
4.82301e-05
4.8593e-05
4.81867e-05
4.74393e-05
4.82564e-05
5.08475e-05
5.11989e-05
4.82116e-05
4.86362e-05
4.84019e-05
5.09362e-05
5.08702e-05
5.17368e-05
4.81276e-05
4.78679e-05
4.91458e-05
4.97184e-05
5.06789e-05
5.24501e-05
4.83886e-05
4.87697e-05
4.90973e-05
4.89434e-05
4.83128e-05
4.9733e-05
4.90307e-05
5.13229e-05
5.13377e-05
4.85523e-05
4.88776e-05
4.89435e-05
5.15185e-05
5.18859e-05
5.24436e-05
4.94666e-05
4.99826e-05
5.02024e-05
5.02748e-05
5.25207e-05
5.24973e-05
4.92822e-05
4.89608e-05
5.00077e-05
4.95787e-05
4.92261e-05
5.02657e-05
4.98564e-05
5.13509e-05
5.19828e-05
4.90246e-05
4.96977e-05
4.97714e-05
5.21929e-05
5.2525e-05
5.23651e-05
5.03352e-05
5.03707e-05
5.03556e-05
5.04696e-05
5.25541e-05
5.26531e-05
5.0217e-05
4.98863e-05
5.03824e-05
5.0652e-05
5.01415e-05
5.05537e-05
5.08284e-05
5.22062e-05
5.28444e-05
5.01215e-05
5.05571e-05
5.07832e-05
5.29824e-05
5.23725e-05
5.30838e-05
5.03466e-05
5.04579e-05
5.06827e-05
5.06097e-05
5.26589e-05
5.26446e-05
5.03942e-05
5.09072e-05
5.0856e-05
5.14514e-05
5.08661e-05
5.05849e-05
5.0837e-05
5.30677e-05
5.36104e-05
5.08266e-05
5.14815e-05
5.08716e-05
5.28313e-05
5.33774e-05
5.39478e-05
5.11462e-05
5.08724e-05
5.19425e-05
5.13303e-05
5.27981e-05
5.332e-05
5.1255e-05
5.14545e-05
5.19842e-05
5.1354e-05
5.08523e-05
5.12722e-05
5.14719e-05
5.3597e-05
5.30048e-05
5.09539e-05
5.13275e-05
5.16248e-05
5.35787e-05
5.40172e-05
5.4331e-05
5.20418e-05
5.16736e-05
5.2524e-05
5.29941e-05
5.35253e-05
5.52084e-05
5.20587e-05
5.13624e-05
5.23835e-05
5.22084e-05
5.16431e-05
5.30184e-05
5.24757e-05
5.30186e-05
5.438e-05
5.1699e-05
5.21012e-05
5.20853e-05
5.42494e-05
5.43485e-05
5.35072e-05
5.25525e-05
5.30816e-05
5.22368e-05
5.24651e-05
5.52748e-05
5.361e-05
5.24039e-05
5.27007e-05
5.2173e-05
5.30606e-05
5.28026e-05
5.25679e-05
5.297e-05
5.47322e-05
5.49306e-05
5.24843e-05
5.32457e-05
5.31002e-05
5.47287e-05
5.34473e-05
5.47728e-05
5.21296e-05
5.20563e-05
5.25202e-05
5.20631e-05
5.33001e-05
5.36091e-05
5.21094e-05
5.29796e-05
5.26139e-05
5.25239e-05
5.28365e-05
5.20084e-05
5.25241e-05
5.48374e-05
5.38067e-05
5.3079e-05
5.25792e-05
5.27651e-05
5.40415e-05
5.54151e-05
5.70607e-05
5.33926e-05
5.26615e-05
5.5017e-05
5.52594e-05
5.44323e-05
5.75893e-05
5.3496e-05
5.25427e-05
5.50068e-05
5.40503e-05
5.25816e-05
5.51169e-05
5.40154e-05
5.38195e-05
5.59109e-05
5.27689e-05
5.34817e-05
5.35368e-05
5.57565e-05
5.70515e-05
5.5261e-05
5.50487e-05
5.53238e-05
5.43381e-05
5.41602e-05
5.76006e-05
5.48374e-05
5.5042e-05
5.47441e-05
5.43643e-05
5.51503e-05
5.43906e-05
5.42686e-05
5.46421e-05
5.64195e-05
5.69141e-05
5.4025e-05
5.51452e-05
5.47277e-05
5.6158e-05
5.50037e-05
5.38704e-05
5.38357e-05
5.34221e-05
5.29064e-05
5.26868e-05
5.44217e-05
5.35633e-05
5.38775e-05
5.499e-05
5.29698e-05
5.34686e-05
5.46201e-05
5.29433e-05
5.40425e-05
5.66474e-05
5.44129e-05
5.47305e-05
5.38007e-05
5.43047e-05
5.52908e-05
5.38901e-05
5.65458e-05
5.28972e-05
5.27673e-05
5.44325e-05
5.56185e-05
5.3852e-05
5.80467e-05
5.29546e-05
5.32953e-05
5.42763e-05
5.36883e-05
5.38568e-05
5.55629e-05
5.39601e-05
5.4328e-05
5.55915e-05
5.40497e-05
5.37704e-05
5.39924e-05
5.54267e-05
5.72037e-05
5.87469e-05
5.55964e-05
5.66688e-05
5.71255e-05
5.73798e-05
5.86658e-05
5.89681e-05
5.53739e-05
5.45935e-05
5.69827e-05
5.65498e-05
5.44802e-05
5.72211e-05
5.63971e-05
5.61892e-05
5.80684e-05
5.42504e-05
5.63255e-05
5.61049e-05
5.78643e-05
5.87036e-05
5.64216e-05
5.71137e-05
5.71355e-05
5.56786e-05
5.43061e-05
5.84213e-05
5.44734e-05
5.69923e-05
5.66605e-05
5.59126e-05
5.62648e-05
5.64933e-05
5.43359e-05
5.59701e-05
5.80993e-05
5.71543e-05
5.62776e-05
5.62615e-05
5.60687e-05
5.68675e-05
5.61498e-05
5.54481e-05
5.50438e-05
5.38536e-05
5.43486e-05
5.3952e-05
5.42791e-05
5.56233e-05
5.53468e-05
5.58546e-05
5.45555e-05
5.49665e-05
5.54863e-05
5.40183e-05
5.47752e-05
5.70018e-05
5.60324e-05
5.57572e-05
5.50991e-05
5.51032e-05
5.60048e-05
5.5504e-05
5.69757e-05
5.43674e-05
5.4629e-05
5.56268e-05
5.67253e-05
5.62544e-05
5.83358e-05
5.45423e-05
5.47383e-05
5.5213e-05
5.45695e-05
5.47628e-05
5.66835e-05
5.54044e-05
5.59209e-05
5.55494e-05
5.50204e-05
5.46064e-05
5.50994e-05
5.66332e-05
5.73173e-05
5.81004e-05
5.61933e-05
5.69215e-05
5.68868e-05
5.6877e-05
5.83702e-05
5.77005e-05
5.57888e-05
5.47116e-05
5.68886e-05
5.68244e-05
5.59289e-05
5.67913e-05
5.67974e-05
5.57114e-05
5.83175e-05
5.54019e-05
5.67641e-05
5.66968e-05
5.8005e-05
5.81079e-05
5.77819e-05
5.68913e-05
5.67188e-05
5.67114e-05
5.65981e-05
5.7648e-05
5.77412e-05
5.69967e-05
5.74298e-05
5.69846e-05
5.78834e-05
5.68496e-05
5.66682e-05
5.68121e-05
5.87248e-05
5.93814e-05
5.69116e-05
5.79331e-05
5.70495e-05
5.79239e-05
5.77849e-05
5.78094e-05
5.67048e-05
5.66205e-05
5.67455e-05
5.66094e-05
5.78292e-05
5.76883e-05
5.68931e-05
5.7776e-05
5.6636e-05
5.61619e-05
5.68103e-05
5.66761e-05
5.68187e-05
5.92065e-05
5.67404e-05
5.70364e-05
5.62173e-05
5.67749e-05
5.78869e-05
5.78012e-05
5.69737e-05
5.67303e-05
5.65395e-05
5.61979e-05
5.60392e-05
5.75814e-05
5.67684e-05
5.65414e-05
5.5743e-05
5.59668e-05
5.53754e-05
5.6787e-05
5.59414e-05
5.60798e-05
5.65025e-05
5.61161e-05
5.66482e-05
5.53539e-05
5.59389e-05
5.68965e-05
5.68749e-05
5.70526e-05
5.59879e-05
5.59842e-05
5.59362e-05
5.62199e-05
5.67654e-05
5.76103e-05
5.58366e-05
5.54175e-05
5.59338e-05
5.66694e-05
5.58363e-05
5.61688e-05
5.57473e-05
5.63093e-05
5.81139e-05
5.57554e-05
5.66116e-05
5.5764e-05
5.68131e-05
5.73952e-05
5.89282e-05
5.61515e-05
5.66088e-05
5.75692e-05
5.75933e-05
5.78883e-05
5.88988e-05
5.63444e-05
5.71601e-05
5.76834e-05
5.80231e-05
5.59491e-05
5.76477e-05
5.7562e-05
5.84194e-05
5.93509e-05
5.60899e-05
5.80747e-05
5.76515e-05
5.8892e-05
5.90409e-05
5.85591e-05
5.77697e-05
5.77251e-05
5.77081e-05
5.75956e-05
5.89901e-05
5.8431e-05
5.78479e-05
5.8063e-05
5.7748e-05
5.75693e-05
5.78413e-05
5.76822e-05
5.78811e-05
5.93757e-05
5.82415e-05
5.7884e-05
5.76389e-05
5.78774e-05
5.87751e-05
5.83307e-05
5.68995e-05
5.73767e-05
5.71922e-05
5.61306e-05
5.59927e-05
5.81662e-05
5.67221e-05
5.73841e-05
5.70701e-05
5.616e-05
5.59461e-05
5.76335e-05
5.60261e-05
5.64224e-05
5.79786e-05
5.66992e-05
5.75956e-05
5.59544e-05
5.64714e-05
5.7311e-05
5.68683e-05
5.76495e-05
5.60215e-05
5.59119e-05
5.62834e-05
5.62387e-05
5.67119e-05
5.76004e-05
5.60336e-05
5.58148e-05
5.62136e-05
5.59518e-05
5.62433e-05
5.62099e-05
5.61461e-05
5.66658e-05
5.72286e-05
5.6265e-05
5.59128e-05
5.60646e-05
5.71942e-05
5.7909e-05
5.83106e-05
5.66776e-05
5.65979e-05
5.71229e-05
5.70978e-05
5.78165e-05
5.8231e-05
5.66042e-05
5.63682e-05
5.71571e-05
5.74177e-05
5.61962e-05
5.70543e-05
5.68317e-05
5.75321e-05
5.87133e-05
5.60848e-05
5.73738e-05
5.68725e-05
5.80217e-05
5.82804e-05
5.81168e-05
5.7123e-05
5.71865e-05
5.7109e-05
5.74649e-05
5.82821e-05
5.87419e-05
5.71663e-05
5.75433e-05
5.71095e-05
5.75494e-05
5.70817e-05
5.75114e-05
5.75084e-05
5.88165e-05
5.86789e-05
5.72106e-05
5.76774e-05
5.76101e-05
5.8833e-05
5.81777e-05
5.82465e-05
5.71482e-05
5.74814e-05
5.71079e-05
5.69786e-05
5.87898e-05
5.77669e-05
5.71168e-05
5.74338e-05
5.70512e-05
5.666e-05
5.75102e-05
5.69521e-05
5.68406e-05
5.86024e-05
5.75231e-05
5.75921e-05
5.6545e-05
5.66616e-05
5.75497e-05
5.81235e-05
5.68034e-05
5.69148e-05
5.64535e-05
5.58298e-05
5.55691e-05
5.74868e-05
5.64582e-05
5.68605e-05
5.63371e-05
5.58147e-05
5.55204e-05
5.64196e-05
5.55844e-05
5.58632e-05
5.73673e-05
5.64088e-05
5.62957e-05
5.55394e-05
5.58697e-05
5.69204e-05
5.67374e-05
5.69966e-05
5.56863e-05
5.55539e-05
5.57256e-05
5.60953e-05
5.64808e-05
5.7668e-05
5.56622e-05
5.54859e-05
5.57068e-05
5.60624e-05
5.58701e-05
5.62252e-05
5.62921e-05
5.64125e-05
5.77178e-05
5.58817e-05
5.62775e-05
5.63184e-05
5.77073e-05
5.7251e-05
5.82173e-05
5.59959e-05
5.64472e-05
5.67574e-05
5.67713e-05
5.78774e-05
5.81134e-05
5.60124e-05
5.66117e-05
5.6875e-05
5.71453e-05
5.64172e-05
5.67353e-05
5.64188e-05
5.80427e-05
5.86293e-05
5.64459e-05
5.70641e-05
5.64595e-05
5.75137e-05
5.82503e-05
5.71829e-05
5.67923e-05
5.67489e-05
5.62027e-05
5.59128e-05
5.80189e-05
5.68559e-05
5.69046e-05
5.71014e-05
5.61444e-05
5.56386e-05
5.62874e-05
5.58072e-05
5.58147e-05
5.85298e-05
5.63877e-05
5.63335e-05
5.55499e-05
5.57846e-05
5.69176e-05
5.68401e-05
5.48971e-05
5.47355e-05
5.66915e-05
5.48099e-05
5.43714e-05
4.5864e-05
4.56672e-05
4.58249e-05
5.47861e-05
5.6152e-05
5.47546e-05
6.40539e-07
2.3728e-07
3.61593e-07
3.67792e-07
1.0639e-07
2.94205e-07
2.75251e-07
2.22619e-07
1.05184e-07
3.44512e-07
2.04999e-07
3.10431e-07
3.44608e-07
3.6868e-07
3.45928e-07
2.91458e-07
5.40234e-06
2.53641e-07
7.19853e-06
1.36991e-05
2.14072e-05
3.57356e-07
5.4053e-06
3.20461e-07
7.18788e-06
2.80649e-07
2.64543e-07
3.04084e-07
2.69155e-07
2.79553e-07
2.63519e-07
3.03574e-07
1.01802e-07
7.05399e-07
2.02048e-07
2.98928e-07
1.05054e-07
6.78744e-07
1.99593e-07
1.40599e-05
2.16729e-05
1.04247e-07
2.30398e-07
8.37139e-07
4.33383e-07
1.05258e-07
2.26913e-07
8.41835e-07
1.86712e-06
1.86039e-06
3.3079e-07
1.83062e-06
1.82004e-06
4.83742e-07
1.05623e-05
3.90927e-07
1.35005e-05
3.65983e-05
4.62992e-05
5.43727e-07
1.05114e-05
4.657e-07
1.34405e-05
2.79046e-07
2.62579e-07
3.03291e-07
2.65756e-07
2.77636e-07