/*--------------------------------*- C++ -*----------------------------------*\
| =========                 |                                                 |
| \\      /  F ield         | OpenFOAM: The Open Source CFD Toolbox           |
|  \\    /   O peration     | Version:  v2012                                 |
|   \\  /    A nd           | Website:  www.openfoam.com                      |
|    \\/     M anipulation  |                                                 |
\*---------------------------------------------------------------------------*/
FoamFile
{
    version     2.0;
    format      ascii;
    class       volScalarField;
    location    "475";
    object      p;
}
// * * * * * * * * * * * * * * * * * * * * * * * * * * * * * * * * * * * * * //

dimensions      [0 2 -2 0 0 0 0];


internalField   nonuniform List<scalar> 
171728
(
0.00351922
0.00351819
0.00351809
0.003519
0.00348359
0.00348223
0.00348219
0.00348504
0.00344521
0.00344348
0.00344337
0.00344576
0.00340109
0.00339948
0.0033995
0.00340173
0.00335289
0.00335151
0.00335152
0.00335387
0.00330402
0.00330265
0.00330265
0.00330509
0.00325583
0.0032546
0.00325457
0.00325703
0.00320856
0.00320748
0.00320745
0.00320993
0.00316224
0.00316137
0.00316129
0.00316376
0.00311683
0.00311604
0.00311602
0.00311844
0.0030724
0.00307168
0.00307166
0.00307422
0.00302872
0.00302814
0.00302812
0.00303045
0.00298565
0.0029851
0.00298524
0.0029877
0.00294298
0.00294234
0.00294231
0.00294438
0.00290058
0.00290005
0.00290034
0.00290294
0.00285864
0.00285881
0.00285865
0.00286058
0.00281687
0.00281678
0.00281649
0.0028188
0.00277547
0.00277515
0.00277516
0.00277745
0.00273447
0.00273452
0.00273416
0.00273655
0.00269385
0.00269396
0.00269375
0.00269587
0.00265346
0.00265343
0.00265356
0.00265534
0.00261352
0.00261375
0.00261366
0.00261527
0.00257374
0.00257384
0.00257383
0.00257566
0.00253427
0.00253441
0.00253436
0.0025361
0.00249512
0.00249532
0.00249525
0.00249685
0.00245612
0.00245647
0.00245633
0.00245828
0.00241744
0.0024177
0.00241794
0.00241953
0.0023788
0.00237945
0.002379
0.0023813
0.00234054
0.00234082
0.00234104
0.00234242
0.00230257
0.00230357
0.00230309
0.00230526
0.00226437
0.00226447
0.00226503
0.00226714
0.00222649
0.00222734
0.00222676
0.00222835
0.0021891
0.00218952
0.00218975
0.00219193
0.00215153
0.00215247
0.00215232
0.00215397
0.0021141
0.00211465
0.00211448
0.0021165
0.00207684
0.00207702
0.00207733
0.00207908
0.00203939
0.00204014
0.00204007
0.00204195
0.00200274
0.00200306
0.00200298
0.002005
0.00196584
0.00196622
0.00196632
0.00196805
0.00192882
0.00192918
0.00192908
0.00193127
0.0018926
0.00189295
0.00189301
0.00189469
0.00185602
0.00185577
0.00185597
0.00185817
0.00181955
0.00182027
0.00181972
0.00182181
0.00178365
0.00178317
0.00178377
0.00178558
0.00174726
0.00174719
0.00174713
0.00174936
0.0017114
0.00171189
0.00171141
0.00171346
0.00167579
0.00167517
0.0016756
0.00167764
0.00163972
0.00163968
0.00163967
0.00164174
0.00160432
0.00160429
0.00160405
0.00160616
0.00156875
0.00156839
0.00156876
0.00157068
0.0015335
0.0015333
0.00153287
0.00153515
0.00149795
0.00149769
0.00149804
0.00149984
0.00146292
0.00146262
0.00146259
0.00146472
0.00142777
0.00142752
0.00142732
0.00142936
0.00139269
0.00139244
0.00139254
0.0013945
0.00135786
0.00135737
0.0013575
0.00135941
0.00132272
0.00132257
0.00132244
0.00132454
0.00128809
0.0012879
0.00128803
0.00128982
0.00125329
0.00125291
0.00125271
0.00125464
0.00121867
0.00121859
0.00121858
0.00122064
0.00118393
0.00118335
0.00118376
0.00118551
0.00114924
0.00114919
0.00114899
0.00115086
0.00111484
0.00111504
0.00111459
0.00111668
0.00108038
0.00107972
0.00108005
0.00108191
0.00104562
0.0010455
0.00104568
0.00104749
0.00101123
0.00101107
0.0010111
0.00101288
0.000976711
0.000976511
0.000976051
0.000978413
0.000942241
0.000942307
0.000942284
0.000943943
0.000907282
0.000907025
0.000907654
0.000909514
0.000873084
0.000872676
0.000872243
0.000874266
0.000839753
0.000840016
0.000839385
0.000841353
0.000804041
0.000803509
0.000804588
0.000806298
0.000768491
0.000768855
0.000768235
0.000770639
0.000735669
0.00073594
0.000735289
0.00073702
0.000702488
0.00070151
0.000702149
0.000703958
0.000665308
0.000664733
0.00066553
0.000667377
0.000630097
0.000631021
0.000630218
0.000632431
0.00059699
0.000597202
0.000596545
0.000598847
0.000562875
0.000561871
0.000563054
0.000564413
0.000527183
0.000527137
0.000527148
0.00052891
0.00049207
0.000492239
0.000491364
0.000494017
0.000457024
0.000457012
0.000457397
0.000459147
0.000422389
0.000422432
0.000422728
0.000424402
0.000388135
0.000387729
0.000387611
0.000389762
0.000352391
0.000352321
0.000352104
0.000354168
0.000316301
0.000316393
0.00031657
0.000318522
0.00028178
0.000281879
0.000281753
0.000283773
0.000246912
0.000246631
0.000246898
0.000248695
0.000211324
0.000211348
0.000211201
0.00021336
0.000175732
0.00017549
0.000175374
0.000177345
0.000139283
0.00013945
0.000139577
0.000141681
0.000104275
0.00010452
0.000104447
0.000106454
6.92709e-05
6.87139e-05
6.88247e-05
7.05927e-05
3.3409e-05
3.29017e-05
3.26125e-05
3.47809e-05
5.32346e-06
6.60719e-06
6.62019e-06
4.8137e-06
0.00352371
0.00352126
0.00352127
0.00352368
0.0035213
0.00352123
0.00352761
0.00352758
0.0035276
0.0035276
0.00352135
0.00352144
0.00352363
0.00352117
0.00352159
0.00352385
0.00351893
0.00348977
0.00351819
0.00351817
0.00349163
0.00349164
0.00351891
0.00348974
0.00351821
0.00351811
0.00349161
0.00349164
0.00351821
0.00349157
0.0034916
0.00351878
0.00348974
0.00351818
0.0034916
0.00349142
0.00348973
0.00348505
0.00345115
0.00348224
0.00348225
0.00345343
0.00345337
0.00348503
0.00345116
0.00348222
0.00348217
0.00345345
0.00345343
0.00348222
0.00345346
0.00345346
0.00348501
0.00345115
0.0034822
0.00345347
0.00345357
0.00345125
0.00344565
0.00340783
0.00344335
0.00344341
0.0034109
0.00341104
0.00344569
0.00340786
0.00344339
0.00344338
0.00341088
0.00341089
0.00344347
0.00341091
0.00341098
0.00344565
0.00340783
0.00344356
0.00341088
0.00341098
0.0034079
0.00340166
0.00336027
0.00339943
0.00339934
0.00336362
0.00336349
0.00340167
0.00336031
0.00339945
0.00339944
0.00336362
0.00336361
0.00339945
0.00336366
0.0033636
0.00340166
0.00336027
0.00339951
0.00336371
0.00336373
0.00336031
0.00335379
0.00331152
0.00335143
0.00335153
0.00331483
0.00331479
0.00335385
0.0033115
0.00335147
0.00335145
0.00331486
0.00331482
0.00335157
0.0033149
0.00331483
0.0033538
0.00331148
0.00335152
0.00331489
0.0033149
0.00331152
0.00330507
0.00326328
0.0033027
0.00330304
0.00326648
0.00326657
0.00330508
0.00326324
0.00330268
0.00330261
0.00326655
0.00326653
0.00330272
0.00326659
0.00326653
0.00330502
0.00326328
0.00330275
0.00326652
0.00326657
0.00326332
0.00325698
0.00321605
0.00325461
0.00325494
0.00321915
0.00321908
0.00325696
0.00321605
0.00325461
0.00325459
0.0032192
0.00321919
0.00325461
0.00321922
0.00321919
0.00325697
0.00321606
0.00325464
0.00321914
0.00321922
0.00321606
0.00320989
0.00316974
0.00320749
0.00320756
0.00317277
0.00317272
0.00320985
0.00316975
0.00320751
0.00320753
0.0031728
0.00317278
0.00320751
0.00317281
0.0031728
0.00320988
0.00316973
0.00320759
0.00317276
0.00317287
0.00316979
0.00316369
0.00312428
0.00316131
0.00316123
0.00312726
0.00312719
0.00316374
0.00312429
0.00316133
0.00316129
0.00312728
0.00312724
0.00316129
0.00312727
0.00312728
0.00316367
0.00312432
0.00316135
0.00312727
0.0031273
0.00312436
0.00311836
0.0030798
0.00311597
0.003116
0.00308272
0.00308273
0.00311839
0.00307985
0.003116
0.00311604
0.00308273
0.00308269
0.003116
0.00308274
0.00308265
0.0031184
0.00307983
0.003116
0.00308267
0.00308261
0.00307989
0.003074
0.00303608
0.00307161
0.00307169
0.00303898
0.00303894
0.00307409
0.00303619
0.00307162
0.00307164
0.00303898
0.00303893
0.00307178
0.00303895
0.00303896
0.00307405
0.00303616
0.00307181
0.00303889
0.00303895
0.00303612
0.00303038
0.00299314
0.00302808
0.00302815
0.00299602
0.00299581
0.00303056
0.00299315
0.00302807
0.00302817
0.00299605
0.00299596
0.00302822
0.00299581
0.00299578
0.00303051
0.00299317
0.00302825
0.00299593
0.00299588
0.00299312
0.00298746
0.00295051
0.00298524
0.00298506
0.00295324
0.00295306
0.00298757
0.00295034
0.00298521
0.00298521
0.00295325
0.00295322
0.00298545
0.00295307
0.00295292
0.00298754
0.00295038
0.0029855
0.00295324
0.00295293
0.00294998
0.00294496
0.00290797
0.00294257
0.00294237
0.00291069
0.00291078
0.00294483
0.00290768
0.00294261
0.00294242
0.0029107
0.00291076
0.00294218
0.00291085
0.00291108
0.00294479
0.00290808
0.00294219
0.00291068
0.00291092
0.00290849
0.00290253
0.00286609
0.00290023
0.00290006
0.00286873
0.00286915
0.00290219
0.00286625
0.00290025
0.00290032
0.00286874
0.00286885
0.00290052
0.00286917
0.00286856
0.00290266
0.00286626
0.00290057
0.00286898
0.00286877
0.00286594
0.00286073
0.00282434
0.0028585
0.00285881
0.00282696
0.00282699
0.00286085
0.00282412
0.00285847
0.00285847
0.00282695
0.00282708
0.0028582
0.00282692
0.00282719
0.00286085
0.00282423
0.00285834
0.00282698
0.00282695
0.00282422
0.00281902
0.00278281
0.00281674
0.00281683
0.00278543
0.00278528
0.00281887
0.00278262
0.00281679
0.0028166
0.00278551
0.00278566
0.00281666
0.00278522
0.0027857
0.00281882
0.00278279
0.00281658
0.00278567
0.00278572
0.00278282
0.00277756
0.00274168
0.00277529
0.00277529
0.00274461
0.00274484
0.00277735
0.00274155
0.0027753
0.00277524
0.0027447
0.00274454
0.00277517
0.00274495
0.00274483
0.00277742
0.00274171
0.00277523
0.00274448
0.00274478
0.00274186
0.00273646
0.00270094
0.00273434
0.00273442
0.00270399
0.00270396
0.00273633
0.00270108
0.00273433
0.00273432
0.00270402
0.00270381
0.00273444
0.0027039
0.002704
0.00273641
0.0027009
0.00273432
0.0027038
0.00270398
0.00270112
0.0026958
0.00266049
0.00269382
0.00269393
0.00266351
0.00266356
0.00269586
0.00266031
0.00269384
0.00269375
0.00266353
0.00266347
0.00269385
0.00266358
0.00266354
0.0026957
0.00266032
0.0026938
0.00266342
0.00266357
0.00266051
0.00265531
0.00262038
0.00265349
0.00265341
0.00262351
0.00262357
0.00265515
0.00262033
0.00265353
0.00265347
0.00262351
0.00262348
0.00265347
0.00262363
0.00262357
0.00265519
0.00262022
0.00265349
0.00262332
0.00262356
0.00262044
0.00261529
0.00258056
0.00261348
0.00261373
0.00258383
0.0025837
0.00261535
0.00258048
0.00261352
0.00261358
0.00258381
0.00258372
0.00261353
0.00258373
0.00258379
0.00261523
0.00258047
0.00261357
0.00258352
0.00258376
0.00258065
0.00257552
0.00254118
0.00257384
0.00257385
0.00254441
0.0025444
0.00257549
0.00254119
0.00257386
0.00257388
0.0025444
0.00254431
0.0025739
0.00254443
0.00254434
0.0025755
0.00254113
0.00257392
0.00254425
0.00254432
0.00254114
0.00253626
0.0025018
0.00253456
0.00253441
0.00250501
0.00250504
0.00253603
0.00250202
0.00253454
0.00253451
0.00250504
0.00250504
0.00253443
0.00250507
0.0025051
0.0025361
0.00250186
0.00253437
0.00250508
0.00250521
0.00250192
0.00249685
0.00246314
0.00249528
0.00249531
0.0024662
0.0024662
0.00249725
0.00246277
0.00249529
0.00249521
0.00246619
0.00246616
0.00249524
0.00246619
0.00246628
0.00249683
0.00246306
0.00249524
0.00246611
0.00246625
0.00246293
0.00245805
0.00242466
0.0024564
0.00245647
0.00242752
0.00242739
0.00245773
0.00242513
0.00245639
0.00245642
0.00242753
0.00242752
0.00245659
0.00242739
0.00242738
0.00245797
0.00242539
0.00245655
0.00242771
0.00242739
0.00242462
0.00241983
0.00238592
0.00241785
0.00241772
0.00238882
0.00238889
0.00241995
0.00238524
0.00241787
0.00241779
0.00238882
0.00238873
0.00241777
0.00238894
0.00238894
0.0024205
0.00238552
0.00241784
0.00238858
0.002389
0.00238622
0.00238097
0.00234775
0.00237928
0.00237948
0.00235047
0.00235029
0.00238053
0.00234816
0.00237924
0.00237916
0.0023505
0.00235064
0.00237938
0.00235026
0.00235028
0.00238047
0.00234767
0.00237935
0.00235055
0.00235005
0.00234738
0.0023428
0.00230995
0.00234091
0.00234082
0.00231254
0.00231303
0.00234332
0.00231015
0.00234096
0.00234106
0.00231252
0.0023124
0.00234076
0.002313
0.0023128
0.00234297
0.00231001
0.00234063
0.00231253
0.00231299
0.00231
0.00230505
0.00227192
0.00230313
0.00230352
0.00227447
0.00227403
0.00230528
0.00227138
0.00230308
0.00230293
0.00227451
0.00227462
0.00230338
0.00227412
0.00227451
0.00230507
0.00227191
0.00230374
0.00227465
0.00227453
0.00227225
0.00226694
0.00223353
0.00226485
0.00226446
0.0022363
0.00223664
0.00226625
0.00223332
0.00226491
0.00226508
0.00223636
0.00223637
0.00226481
0.00223654
0.00223626
0.00226696
0.00223361
0.00226455
0.00223623
0.00223575
0.00223319
0.0022287
0.00219667
0.00222699
0.00222745
0.00219919
0.00219892
0.00222882
0.00219638
0.00222701
0.00222688
0.00219911
0.00219891
0.00222697
0.00219898
0.00219904
0.00222868
0.00219634
0.00222659
0.0021989
0.00219934
0.00219677
0.00219177
0.00215865
0.0021898
0.00218945
0.00216139
0.0021616
0.00219154
0.00215919
0.00218974
0.00218972
0.00216146
0.00216171
0.0021897
0.00216161
0.00216156
0.00219153
0.00215917
0.00219013
0.00216182
0.00216172
0.00215888
0.00215377
0.00212159
0.00215195
0.00215246
0.00212408
0.00212424
0.00215443
0.00212132
0.00215201
0.00215223
0.00212402
0.00212389
0.00215217
0.00212421
0.00212406
0.00215422
0.0021212
0.00215215
0.00212385
0.00212385
0.00212141
0.00211671
0.00208407
0.00211485
0.0021147
0.00208673
0.0020863
0.00211633
0.00208385
0.00211477
0.00211453
0.00208675
0.00208665
0.0021147
0.00208628
0.00208658
0.00211633
0.00208413
0.00211452
0.0020866
0.00208658
0.00208399
0.00207909
0.00204663
0.00207727
0.00207701
0.00204908
0.00204936
0.00207902
0.00204706
0.00207732
0.00207736
0.0020491
0.0020494
0.0020772
0.00204939
0.00204926
0.00207923
0.00204686
0.00207725
0.00204939
0.00204932
0.00204681
0.00204185
0.0020101
0.00203984
0.00204013
0.00201248
0.00201232
0.00204217
0.00200975
0.00203986
0.00204007
0.00201249
0.00201217
0.00204003
0.00201233
0.00201236
0.00204195
0.00200969
0.00204006
0.0020122
0.00201235
0.00200987
0.00200519
0.00197273
0.00200329
0.00200305
0.00197533
0.00197546
0.00200488
0.00197303
0.0020033
0.00200295
0.00197532
0.00197552
0.00200313
0.00197546
0.00197537
0.00200487
0.00197319
0.00200312
0.00197549
0.00197536
0.0019729
0.00196788
0.0019362
0.00196602
0.00196622
0.00193842
0.00193835
0.00196812
0.00193599
0.001966
0.00196635
0.00193843
0.00193832
0.00196613
0.00193835
0.00193846
0.00196831
0.00193585
0.00196612
0.00193834
0.00193847
0.00193612
0.00193137
0.0018995
0.00192932
0.00192918
0.0019019
0.00190208
0.00193122
0.00189979
0.00192933
0.00192906
0.0019019
0.00190198
0.00192928
0.00190208
0.00190187
0.00193104
0.00189979
0.00192928
0.00190198
0.00190186
0.00189953
0.00189467
0.00186301
0.00189272
0.00189296
0.0018653
0.00186498
0.00189488
0.00186261
0.00189272
0.00189302
0.00186532
0.00186527
0.00189274
0.00186498
0.00186531
0.001895
0.0018628
0.00189272
0.00186526
0.00186535
0.00186302
0.00185815
0.00182657
0.00185616
0.00185577
0.00182878
0.0018291
0.00185783
0.00182704
0.0018562
0.00185597
0.00182875
0.00182865
0.00185618
0.00182911
0.00182874
0.0018579
0.00182657
0.00185622
0.00182867
0.00182874
0.00182657
0.00182179
0.00179047
0.00181973
0.00182026
0.00179273
0.00179259
0.0018223
0.00179009
0.00181968
0.0018197
0.00179269
0.00179286
0.00181971
0.00179259
0.0017927
0.00182182
0.00179064
0.00181969
0.00179286
0.00179265
0.00179041
0.00178563
0.0017541
0.00178363
0.00178323
0.00175622
0.00175597
0.00178518
0.00175397
0.00178367
0.00178378
0.00175632
0.00175623
0.00178357
0.00175598
0.00175636
0.00178576
0.00175403
0.00178359
0.00175621
0.00175641
0.0017542
0.0017493
0.0017183
0.00174718
0.00174718
0.00172042
0.00172087
0.00174931
0.00171882
0.00174722
0.00174712
0.00172033
0.00172032
0.00174732
0.00172084
0.00172024
0.00174925
0.00171824
0.00174735
0.00172033
0.00172023
0.00171819
0.00171354
0.00168235
0.00171153
0.00171193
0.00168455
0.00168438
0.001714
0.00168203
0.00171143
0.00171142
0.00168452
0.00168454
0.00171137
0.00168441
0.0016846
0.00171347
0.00168243
0.0017113
0.00168454
0.00168459
0.00168243
0.00167755
0.00164656
0.00167546
0.00167513
0.00164855
0.00164841
0.00167721
0.00164648
0.00167552
0.00167559
0.00164866
0.0016487
0.0016756
0.00164843
0.00164862
0.00167768
0.00164652
0.00167561
0.00164872
0.0016487
0.00164654
0.0016418
0.00161094
0.00163968
0.00163966
0.00161311
0.00161326
0.00164176
0.00161118
0.00163975
0.00163967
0.001613
0.00161284
0.00163964
0.00161323
0.00161298
0.00164171
0.00161088
0.00163972
0.00161281
0.0016129
0.00161091
0.00160616
0.00157533
0.0016042
0.00160435
0.00157731
0.00157731
0.0016064
0.00157521
0.00160407
0.00160408
0.00157738
0.00157768
0.00160414
0.00157731
0.00157744
0.00160616
0.00157548
0.00160405
0.00157772
0.0015775
0.0015754
0.0015706
0.00154001
0.00156844
0.00156837
0.00154215
0.00154208
0.00157047
0.00154007
0.00156855
0.00156868
0.00154211
0.00154175
0.00156856
0.00154207
0.00154207
0.00157069
0.00153976
0.00156866
0.00154171
0.00154205
0.00153994
0.00153525
0.00150454
0.00153332
0.0015333
0.00150654
0.00150665
0.00153533
0.00150454
0.00153322
0.00153293
0.00150654
0.00150676
0.00153319
0.00150666
0.00150652
0.00153503
0.00150473
0.0015331
0.00150675
0.00150649
0.00150454
0.00149982
0.00146939
0.00149769
0.00149771
0.00147143
0.0014713
0.00149977
0.00146928
0.00149776
0.00149805
0.00147148
0.00147144
0.0014977
0.00147128
0.00147152
0.00150004
0.00146934
0.00149776
0.00147147
0.00147159
0.00146946
0.00146465
0.00143415
0.00146267
0.00146259
0.00143622
0.00143635
0.00146459
0.00143431
0.00146266
0.00146254
0.00143617
0.0014361
0.00146277
0.00143638
0.00143618
0.0014646
0.00143409
0.00146279
0.00143611
0.00143611
0.00143409
0.00142944
0.0013992
0.00142743
0.00142754
0.00140124
0.00140124
0.00142957
0.00139912
0.00142739
0.00142734
0.00140123
0.00140123
0.00142733
0.00140118
0.0014012
0.00142937
0.0013992
0.00142727
0.00140119
0.00140118
0.00139919
0.00139451
0.00136414
0.00139254
0.00139247
0.00136621
0.00136608
0.00139441
0.00136409
0.00139252
0.00139255
0.00136627
0.00136634
0.00139253
0.00136614
0.00136626
0.00139451
0.00136421
0.00139253
0.00136637
0.0013663
0.00136415
0.0013594
0.00132915
0.00135739
0.00135733
0.00133117
0.00133125
0.00135937
0.00132919
0.00135748
0.00135749
0.00133114
0.00133107
0.00135739
0.00133122
0.00133121
0.00135946
0.00132908
0.00135746
0.00133107
0.00133122
0.0013292
0.00132449
0.00129458
0.00132254
0.00132261
0.00129666
0.00129659
0.00132452
0.00129453
0.00132246
0.00132242
0.00129663
0.00129671
0.00132262
0.00129662
0.0012967
0.0013244
0.00129468
0.0013226
0.00129673
0.00129665
0.00129457
0.00128986
0.00125946
0.00128791
0.00128783
0.00126149
0.00126164
0.00128982
0.00125955
0.00128796
0.00128804
0.00126159
0.00126152
0.00128786
0.0012616
0.00126136
0.00128999
0.00125939
0.00128785
0.00126144
0.00126141
0.00125933
0.00125476
0.00122514
0.00125281
0.001253
0.00122723
0.00122722
0.00125484
0.00122515
0.00125282
0.00125276
0.00122707
0.00122704
0.00125272
0.00122719
0.0012273
0.00125467
0.00122505
0.00125273
0.00122711
0.00122723
0.00122525
0.00122052
0.00119029
0.00121875
0.00121858
0.00119237
0.00119216
0.00122052
0.00119014
0.00121856
0.00121853
0.00119252
0.00119256
0.00121878
0.00119222
0.00119242
0.00122044
0.00119048
0.00121873
0.00119257
0.00119254
0.00119032
0.0011855
0.00115547
0.00118344
0.0011833
0.00115744
0.0011575
0.00118533
0.0011555
0.00118364
0.00118377
0.00115751
0.00115757
0.00118352
0.00115751
0.00115747
0.00118571
0.00115551
0.00118363
0.00115754
0.0011575
0.00115547
0.00115087
0.00112146
0.001149
0.00114922
0.00112357
0.00112389
0.00115099
0.0011218
0.001149
0.00114903
0.00112338
0.0011233
0.001149
0.00112387
0.00112348
0.00115086
0.00112123
0.00114898
0.00112328
0.00112331
0.00112137
0.00111678
0.0010866
0.00111492
0.00111502
0.00108864
0.00108836
0.00111699
0.0010863
0.00111473
0.0011146
0.00108869
0.00108861
0.00111482
0.00108837
0.00108859
0.00111654
0.00108664
0.00111463
0.00108866
0.00108867
0.00108659
0.00108189
0.00105196
0.00107995
0.00107973
0.00105396
0.00105406
0.00108161
0.00105206
0.00108009
0.00108002
0.0010541
0.0010543
0.00107994
0.00105409
0.00105427
0.00108198
0.00105219
0.0010801
0.00105427
0.00105435
0.00105219
0.0010473
0.00101779
0.00104536
0.00104544
0.00101979
0.00101969
0.00104739
0.00101766
0.00104542
0.00104569
0.00101975
0.00101981
0.00104563
0.00101965
0.00101953
0.00104752
0.00101776
0.00104564
0.00101983
0.00101953
0.00101755
0.00101314
0.000983008
0.00101126
0.00101114
0.000985177
0.000985218
0.00101301
0.000983162
0.00101119
0.00101109
0.000985082
0.000984747
0.00101091
0.000985193
0.00098519
0.00101302
0.000982726
0.00101091
0.000984725
0.000985112
0.000983133
0.000978231
0.000948548
0.000976361
0.000976468
0.000950501
0.000950725
0.000978431
0.00094872
0.000976296
0.000976067
0.000950519
0.000950677
0.00097655
0.0009508
0.000950583
0.00097802
0.000948703
0.000976454
0.000950677
0.000950523
0.000948537
0.000943962
0.000914103
0.000942044
0.000942261
0.000916065
0.000915982
0.000944109
0.000913933
0.000942069
0.000942268
0.000916149
0.000916442
0.000942063
0.000916003
0.000916352
0.00094412
0.000914356
0.000942044
0.000916536
0.000916521
0.000914336
0.000909308
0.000879341
0.000907246
0.000907023
0.000881283
0.000880917
0.000909096
0.000879011
0.000907337
0.00090758
0.000881314
0.000881007
0.00090749
0.00088081
0.000880884
0.000909559
0.000878982
0.000907691
0.000880914
0.00088093
0.000878914
0.000874769
0.000845941
0.000872982
0.000872796
0.000848119
0.000848589
0.000874562
0.000846589
0.000872929
0.000872398
0.000847942
0.000847598
0.000872415
0.000848562
0.000847874
0.000874284
0.000845628
0.000872266
0.000847501
0.000847526
0.000845817
0.000841264
0.000810658
0.000839443
0.000839954
0.000812674
0.00081248
0.000841861
0.000810409
0.000839329
0.000839437
0.000812821
0.000813505
0.000839563
0.000812616
0.000813229
0.0008412
0.000811422
0.000839326
0.00081377
0.000813468
0.000811187
0.000805731
0.000775402
0.000803702
0.000803373
0.000777292
0.000777246
0.000805441
0.000775421
0.000803858
0.000804349
0.000777288
0.00077702
0.000804239
0.00077724
0.000777466
0.00080643
0.000775011
0.00080452
0.000777061
0.00077748
0.000775448
0.000770725
0.000742053
0.000768735
0.000768927
0.000743924
0.00074427
0.000770845
0.000742364
0.000768675
0.000768301
0.000743782
0.000743543
0.0007687
0.000744081
0.000743317
0.000770278
0.000741669
0.000768601
0.000743321
0.000743115
0.000741417
0.000737667
0.00070849
0.000735842
0.000736119
0.000710725
0.000710382
0.000737921
0.000708223
0.000735718
0.000735486
0.000710808
0.000710835
0.000735199
0.000710456
0.00071073
0.000737256
0.000708681
0.00073503
0.000710844
0.000710742
0.000708705
0.000703626
0.000671947
0.000701751
0.000701237
0.000674093
0.000673656
0.000703347
0.000671559
0.000701897
0.000702042
0.000674228
0.000674519
0.000702044
0.000673839
0.000674521
0.000703904
0.00067243
0.000702162
0.000674723
0.000674688
0.000672409
0.000666919
0.000637125
0.000664919
0.000664621
0.00063888
0.000639342
0.000666663
0.000637533
0.000665039
0.000665356
0.000638768
0.000638851
0.000665314
0.000639278
0.000638891
0.000667408
0.000636984
0.000665478
0.000638797
0.000638831
0.000637026
0.00063257
0.000603698
0.000630561
0.000631102
0.000605651
0.000606004
0.000633002
0.000603955
0.000630369
0.000630322
0.00060543
0.000605026
0.000630447
0.000605931
0.000605397
0.000632345
0.000603159
0.000630307
0.000604905
0.00060514
0.000603429
0.000599113
0.000569129
0.000597238
0.000597255
0.000571201
0.000570636
0.00059918
0.000568583
0.000597071
0.000596638
0.000571415
0.000571487
0.000596999
0.000570649
0.000571223
0.000598594
0.000569485
0.000596775
0.000571488
0.000571404
0.000569211
0.000564293
0.000533603
0.000562297
0.000561835
0.00053566
0.000535706
0.000563799
0.000533725
0.000562567
0.000562998
0.000535767
0.00053623
0.000562407
0.00053579
0.000535797
0.000564842
0.000534035
0.000562702
0.000536292
0.000535941
0.000533737
0.00052879
0.000498812
0.000526872
0.000527073
0.000500897
0.000501041
0.000528976
0.000499041
0.000526887
0.000527104
0.000500646
0.000500139
0.000526975
0.000501029
0.000500858
0.000529057
0.000498117
0.000526989
0.00050013
0.000500615
0.000498753
0.000494087
0.000464014
0.000492227
0.00049228
0.000465916
0.000465847
0.000494279
0.000463855
0.000491999
0.000491394
0.000465935
0.000465941
0.00049217
0.000465787
0.000465847
0.00049339
0.000464103
0.000491945
0.000465906
0.000465783
0.000463925
0.000459218
0.000429076
0.000457089
0.000457053
0.000430925
0.000431014
0.000459066
0.000429101
0.000457187
0.000457421
0.000431061
0.000431439
0.000457024
0.000431046
0.000430936
0.000459423
0.000429489
0.000457109
0.000431441
0.000431047
0.000429089
0.000424378
0.000394512
0.000422358
0.000422396
0.000396642
0.00039646
0.000424388
0.00039436
0.000422452
0.000422719
0.000396596
0.000396382
0.000422381
0.000396474
0.000396684
0.000424715
0.000394246
0.000422456
0.00039641
0.000396652
0.000394567
0.000389699
0.000359054
0.000387898
0.000387727
0.0003612
0.000361283
0.000389596
0.000359188
0.000387806
0.000387581
0.00036113
0.000361033
0.00038796
0.00036128
0.000361223
0.000389466
0.000358954
0.000387888
0.000361032
0.000361147
0.000359049
0.00035419
0.000323335
0.000352246
0.000352333
0.000325257
0.000325256
0.000354297
0.000323275
0.000352201
0.000352123
0.000325302
0.000325377
0.000352227
0.000325231
0.00032523
0.000354084
0.000323456
0.000352174
0.00032534
0.000325291
0.000323312
0.000318518
0.00028855
0.000316398
0.000316406
0.000290465
0.000290507
0.000318466
0.000288606
0.000316446
0.000316571
0.000290444
0.000290429
0.000316409
0.00029051
0.000290425
0.000318654
0.000288514
0.000316484
0.000290441
0.000290392
0.000288521
0.000283846
0.000253574
0.000281868
0.000281889
0.000255664
0.000255548
0.000283893
0.000253436
0.000281838
0.00028177
0.000255708
0.000255731
0.000281746
0.000255536
0.000255504
0.00028378
0.00025362
0.000281686
0.000255691
0.000255523
0.000253476
0.000248681
0.000217847
0.000246697
0.000246611
0.000219925
0.000220067
0.000248569
0.000218017
0.000246758
0.000246876
0.000219919
0.000220034
0.000246738
0.000220135
0.000220317
0.000248787
0.000217988
0.000246815
0.000220153
0.000220353
0.000218224
0.000213049
0.000182655
0.000211151
0.000211299
0.000184708
0.000184638
0.000213222
0.000182547
0.000211102
0.000211127
0.000184666
0.000184446
0.000211435
0.000184584
0.00018442
0.000213123
0.000182365
0.000211411
0.000184323
0.000184319
0.000182291
0.000177753
0.000146415
0.000175728
0.000175559
0.000148397
0.000148265
0.000177588
0.000146338
0.000175725
0.000175522
0.000148451
0.00014849
0.000175341
0.000148262
0.000148382
0.000177491
0.000146537
0.000175253
0.000148509
0.000148477
0.000146515
0.000141474
0.000111039
0.000139366
0.000139414
0.000112999
0.000113198
0.000141502
0.000111278
0.000139387
0.000139497
0.000112962
0.000113084
0.000139586
0.000113254
0.000113265
0.00014163
0.000111156
0.000139666
0.000113152
0.000113247
0.00011129
0.000106266
7.59023e-05
0.000104299
0.000104475
7.79905e-05
7.78107e-05
0.000106482
7.56563e-05
0.000104281
0.000104408
7.80421e-05
7.79882e-05
0.000104465
7.77371e-05
7.76322e-05
0.000106378
7.58033e-05
0.000104434
7.78761e-05
7.76416e-05
7.55444e-05
7.09301e-05
3.96454e-05
6.90376e-05
6.87978e-05
4.17649e-05
4.17071e-05
7.06822e-05
3.96203e-05
6.90728e-05
6.89327e-05
4.17015e-05
4.15243e-05
6.86562e-05
4.16967e-05
4.17627e-05
7.08071e-05
3.94119e-05
6.86602e-05
4.15292e-05
4.17324e-05
3.97066e-05
3.46141e-05
7.60164e-06
3.28184e-05
3.28623e-05
1.05099e-05
1.08312e-05
3.46614e-05
7.91811e-06
3.27356e-05
3.25518e-05
1.04777e-05
1.07368e-05
3.30087e-05
1.09464e-05
1.09666e-05
3.43983e-05
7.90505e-06
3.29571e-05
1.08688e-05
1.09612e-05
7.94426e-06
4.58726e-06
6.33068e-06
6.56064e-06
4.78036e-06
6.36836e-06
6.56382e-06
5.52565e-06
5.61273e-06
5.6277e-06
6.6539e-06
4.83905e-06
6.70042e-06
0.00353076
0.00353337
0.00353207
0.00353224
0.00355981
0.00353333
0.0035628
0.00353353
0.00355926
0.00353337
0.00353353
0.00356445
0.00354458
0.00356623
0.00356559
0.00350324
0.00351687
0.00352089
0.00349558
0.00349356
0.00349896
0.00350316
0.00351684
0.00352083
0.00349554
0.00351921
0.00351917
0.00351917
0.00349266
0.00349265
0.00349263
0.00349258
0.00350305
0.00351465
0.00351981
0.00351035
0.00352192
0.00350003
0.00351069
0.00349363
0.00349903
0.00350288
0.00351976
0.00351451
0.00351039
0.00352184
0.00351068
0.00350001
0.0035208
0.00352067
0.0035076
0.00349993
0.00349976
0.00347565
0.0034899
0.00348976
0.00347367
0.00348708
0.00347267
0.00347555
0.00348993
0.00348983
0.00347362
0.0034836
0.00348356
0.00348352
0.00345528
0.0034553
0.00345526
0.00345527
0.00347349
0.00348847
0.00348215
0.00347273
0.00348687
0.00347401
0.00347267
0.00348714
0.00347264
0.00347344
0.00348207
0.00348838
0.00347273
0.00348679
0.00347263
0.00347391
0.00349013
0.00349011
0.00347123
0.00347426
0.00347438
0.00343328
0.00344789
0.0034487
0.00343185
0.00344676
0.00343108
0.00343318
0.00344783
0.00344882
0.00343183
0.00344525
0.00344521
0.0034452
0.00341265
0.00341269
0.00341265
0.00341263
0.00343198
0.00344753
0.00344338
0.00343291
0.00344648
0.00343248
0.0034329
0.00344674
0.00343092
0.00343194
0.00344333
0.00344746
0.00343292
0.00344644
0.0034329
0.00343246
0.00344815
0.00344819
0.00343025
0.00343224
0.00343224
0.00338695
0.00340317
0.00340466
0.0033854
0.00340251
0.00338493
0.00338676
0.00340319
0.00340469
0.00338537
0.00340111
0.00340107
0.00340106
0.00336511
0.00336511
0.00336512
0.00336508
0.00338602
0.00340313
0.00339941
0.00338766
0.00340251
0.00338609
0.00338765
0.00340249
0.00338488
0.00338602
0.00339943
0.00340321
0.00338769
0.00340251
0.00338767
0.00338605
0.00340342
0.00340333
0.00338442
0.00338553
0.0033856
0.0033378
0.00335498
0.00335634
0.00333657
0.00335467
0.00333624
0.00333779
0.00335493
0.00335625
0.00333658
0.00335289
0.00335291
0.00335287
0.0033162
0.00331619
0.00331619
0.00331615
0.00333742
0.00335498
0.00335151
0.00333927
0.00335461
0.0033373
0.00333925
0.00335454
0.00333629
0.0033374
0.0033515
0.00335486
0.00333917
0.00335461
0.00333926
0.00333733
0.00335499
0.00335502
0.00333593
0.00333682
0.00333675
0.00328851
0.00330597
0.00330717
0.00328781
0.0033055
0.00328787
0.00328853
0.00330598
0.00330703
0.00328779
0.003304
0.003304
0.00330397
0.00326778
0.00326778
0.00326779
0.00326775
0.00328863
0.00330602
0.00330271
0.0032906
0.00330577