/*--------------------------------*- C++ -*----------------------------------*\
| =========                 |                                                 |
| \\      /  F ield         | OpenFOAM: The Open Source CFD Toolbox           |
|  \\    /   O peration     | Version:  v2006                                 |
|   \\  /    A nd           | Website:  www.openfoam.com                      |
|    \\/     M anipulation  |                                                 |
\*---------------------------------------------------------------------------*/
FoamFile
{
    version     2.0;
    format      ascii;
    class       volVectorField;
    location    "125";
    object      U;
}
// * * * * * * * * * * * * * * * * * * * * * * * * * * * * * * * * * * * * * //

dimensions      [0 1 -1 0 0 0 0];


internalField   nonuniform List<vector> 
14310
(
(-9.48946e-05 5.87814e-05 0.108152)
(-0.000153352 -0.000153325 0.106646)
(5.72576e-05 5.7272e-05 0.109513)
(-9.16641e-05 5.72697e-05 0.10831)
(5.72373e-05 -9.1638e-05 0.10831)
(-0.000147717 -0.000147714 0.106644)
(5.43111e-05 5.43178e-05 0.109787)
(-8.69061e-05 5.46235e-05 0.108446)
(5.46155e-05 -8.68858e-05 0.108446)
(-0.000140474 -0.000140493 0.106619)
(4.88808e-05 4.88901e-05 0.110038)
(-7.87886e-05 5.04417e-05 0.108555)
(5.04392e-05 -7.87681e-05 0.108555)
(-0.000130335 -0.000130346 0.10657)
(4.12335e-05 4.12437e-05 0.110259)
(-6.63356e-05 4.2751e-05 0.108634)
(4.27376e-05 -6.62732e-05 0.108634)
(-0.00011662 -0.000116649 0.106504)
(2.82836e-05 2.8294e-05 0.110425)
(-4.57592e-05 3.05391e-05 0.108674)
(3.05434e-05 -4.57832e-05 0.108674)
(-9.80534e-05 -9.80972e-05 0.106431)
(1.46382e-05 1.46445e-05 0.110525)
(-2.57632e-05 1.77927e-05 0.108691)
(1.78004e-05 -2.57704e-05 0.10869)
(-8.33664e-05 -8.34329e-05 0.10638)
(-0.000153235 0.000153167 0.106645)
(1.02081e-05 -1.01328e-05 0.106826)
(-9.4981e-05 -5.88841e-05 0.108151)
(-9.23074e-05 5.74797e-05 0.108272)
(-9.23628e-05 -5.75372e-05 0.108271)
(1.00944e-05 1.01985e-05 0.106825)
(0.000147651 0.000147648 0.106644)
(-1.31431e-05 -1.30822e-05 0.106812)
(5.73447e-05 9.17213e-05 0.108309)
(-5.73674e-05 9.17311e-05 0.108309)
(5.57963e-05 8.87531e-05 0.108414)
(-5.57959e-05 8.87324e-05 0.108413)
(-0.000147698 0.000147648 0.106644)
(1.31503e-05 -1.30568e-05 0.106812)
(9.16433e-05 5.72461e-05 0.10831)
(9.17304e-05 -5.73377e-05 0.108309)
(8.86685e-05 5.57155e-05 0.108414)
(8.87578e-05 -5.58032e-05 0.108413)
(-9.17212e-05 -5.73297e-05 0.108309)
(-8.86927e-05 5.56972e-05 0.108415)
(-8.87433e-05 -5.57779e-05 0.108414)
(0.000147649 -0.000147682 0.106644)
(-1.30783e-05 1.31433e-05 0.106811)
(-5.72111e-05 -9.16246e-05 0.108309)
(5.56997e-05 -8.86792e-05 0.108414)
(-5.5676e-05 -8.86548e-05 0.108414)
(1.3041e-05 1.31218e-05 0.106811)
(0.000140435 0.000140415 0.106619)
(-1.89947e-05 -1.89469e-05 0.106771)
(5.47204e-05 8.69718e-05 0.108446)
(-5.47189e-05 8.69548e-05 0.108445)
(5.15655e-05 8.08857e-05 0.10853)
(-5.15917e-05 8.08872e-05 0.108529)
(-0.00014046 0.000140423 0.106619)
(1.89783e-05 -1.88857e-05 0.106771)
(8.68772e-05 5.46229e-05 0.108446)
(8.69726e-05 -5.47202e-05 0.108445)
(8.07925e-05 5.14837e-05 0.108531)
(8.08857e-05 -5.15527e-05 0.108529)
(-8.69589e-05 -5.47019e-05 0.108446)
(-8.08091e-05 5.14937e-05 0.108531)
(-8.08674e-05 -5.15381e-05 0.10853)
(0.000140427 -0.000140466 0.106619)
(-1.8932e-05 1.90102e-05 0.10677)
(-5.45801e-05 -8.68671e-05 0.108446)
(5.1475e-05 -8.07766e-05 0.108531)
(-5.14495e-05 -8.0773e-05 0.10853)
(1.89071e-05 1.89912e-05 0.10677)
(0.000130304 0.000130284 0.106571)
(-2.77018e-05 -2.76709e-05 0.106709)
(5.05399e-05 7.88791e-05 0.108555)
(-5.05352e-05 7.88615e-05 0.108554)
(4.5389e-05 7.04199e-05 0.108617)
(-4.53917e-05 7.03902e-05 0.108616)
(-0.000130346 0.000130322 0.10657)
(2.77078e-05 -2.76471e-05 0.106709)
(7.87773e-05 5.04333e-05 0.108555)
(7.88738e-05 -5.05111e-05 0.108554)
(7.03255e-05 4.53049e-05 0.108618)
(7.04202e-05 -4.53782e-05 0.108616)
(-7.8854e-05 -5.04945e-05 0.108554)
(-7.03565e-05 4.52995e-05 0.108618)
(-7.03837e-05 -4.53621e-05 0.108617)
(0.000130298 -0.000130319 0.10657)
(-2.76482e-05 2.77319e-05 0.106709)
(-5.0379e-05 -7.87441e-05 0.108555)
(4.52982e-05 -7.03008e-05 0.108618)
(-4.52911e-05 -7.03139e-05 0.108617)
(2.76237e-05 2.76941e-05 0.106708)
(0.000116579 0.000116553 0.106504)
(-4.29422e-05 -4.29307e-05 0.106637)
(4.28345e-05 6.63925e-05 0.108633)
(-4.28403e-05 6.6364e-05 0.108633)
(3.39498e-05 5.14692e-05 0.108666)
(-3.39468e-05 5.14748e-05 0.108666)
(-0.000116615 0.000116568 0.106504)
(4.29782e-05 -4.28849e-05 0.106638)
(6.62903e-05 4.27232e-05 0.108634)
(6.63945e-05 -4.28174e-05 0.108633)
(5.13783e-05 3.38814e-05 0.108667)
(5.14562e-05 -3.39409e-05 0.108666)
(-6.6368e-05 -4.2833e-05 0.108633)
(-5.13702e-05 3.38559e-05 0.108667)
(-5.14589e-05 -3.39284e-05 0.108666)
(0.000116575 -0.000116587 0.106504)
(-4.29196e-05 4.29644e-05 0.106637)
(-4.27172e-05 -6.62919e-05 0.108634)
(3.38605e-05 -5.13871e-05 0.108667)
(-3.38617e-05 -5.13656e-05 0.108667)
(4.28766e-05 4.29471e-05 0.106636)
(9.8046e-05 9.8023e-05 0.106431)
(-5.65713e-05 -5.65864e-05 0.106583)
(3.06637e-05 4.58837e-05 0.108673)
(-3.06173e-05 4.58726e-05 0.108672)
(2.05658e-05 3.00567e-05 0.108686)
(-2.05475e-05 3.00533e-05 0.108686)
(-9.80471e-05 9.8045e-05 0.106431)
(5.6597e-05 -5.65628e-05 0.106583)
(4.57723e-05 3.05441e-05 0.108673)
(4.58502e-05 -3.06236e-05 0.108672)
(2.99892e-05 2.05067e-05 0.108687)
(3.00571e-05 -2.05671e-05 0.108686)
(-4.58522e-05 -3.06205e-05 0.108673)
(-2.99775e-05 2.04669e-05 0.108687)
(-3.0034e-05 -2.05143e-05 0.108686)
(9.80265e-05 -9.80621e-05 0.106431)
(-5.6555e-05 5.65996e-05 0.106583)
(-3.04923e-05 -4.57607e-05 0.108673)
(2.04947e-05 -2.99782e-05 0.108687)
(-2.04626e-05 -2.99682e-05 0.108687)
(5.65478e-05 5.65947e-05 0.106582)
(8.33782e-05 8.33506e-05 0.10638)
(1.79065e-05 2.58514e-05 0.10869)
(-1.78714e-05 2.5831e-05 0.108689)
(-1.24271e-05 1.71211e-05 0.108695)
(-8.3412e-05 8.33502e-05 0.10638)
(6.44391e-05 -6.44596e-05 0.106556)
(2.57582e-05 1.77848e-05 0.10869)
(2.58457e-05 -1.78765e-05 0.108689)
(-2.58486e-05 -1.78643e-05 0.10869)
(-1.70527e-05 1.23518e-05 0.108696)
(-1.70812e-05 -1.23751e-05 0.108695)
(8.33638e-05 -8.33976e-05 0.10638)
(-1.77355e-05 -2.57405e-05 0.10869)
(-1.23545e-05 -1.70148e-05 0.108696)
(6.44169e-05 6.44694e-05 0.106555)
(-2.13088e-06 6.33557e-06 0.0720221)
(2.88842e-06 -2.3023e-06 0.0720325)
(-5.44311e-05 3.44764e-06 0.102189)
(-5.64196e-05 1.477e-05 0.0954284)
(-9.98439e-05 1.80409e-05 0.108878)
(-9.40338e-05 5.83396e-05 0.108193)
(-2.44161e-05 3.47845e-06 0.0954296)
(-9.93423e-05 1.78424e-05 0.10894)
(-9.78564e-05 3.78245e-06 0.102184)
(-2.66155e-05 -1.18218e-05 0.0891471)
(-1.17736e-05 -2.66502e-05 0.0891457)
(-0.000152031 -0.00015201 0.106648)
(-1.56454e-05 -2.67305e-07 0.0891247)
(-2.54902e-07 -1.56458e-05 0.0891221)
(8.75929e-07 1.3821e-05 0.0934503)
(-2.26643e-06 1.75097e-05 0.0831659)
(1.24192e-06 3.50734e-05 0.0934862)
(-4.16413e-06 -1.48564e-06 0.0831621)
(-9.10916e-07 7.19525e-06 0.0718856)
(5.00994e-06 -1.47966e-06 0.0719017)
(1.37878e-05 8.88003e-07 0.0934494)
(1.75201e-05 -2.2747e-06 0.0831662)
(3.51109e-05 1.26285e-06 0.0934864)
(-1.48967e-06 -4.16385e-06 0.0831622)
(-2.08256e-05 2.08167e-05 0.109968)
(6.05137e-05 -2.04581e-05 0.109802)
(-2.08295e-05 -2.08271e-05 0.109968)
(5.54204e-05 5.54233e-05 0.10972)
(-5.54077e-05 5.54029e-05 0.10972)
(5.54215e-05 -5.54252e-05 0.10972)
(-5.54298e-05 -5.54164e-05 0.10972)
(-4.72297e-05 2.88999e-06 0.101918)
(-5.17331e-05 1.34212e-05 0.0951577)
(-9.76825e-05 1.74148e-05 0.10912)
(-9.10078e-05 5.70331e-05 0.108346)
(-8.93904e-05 3.15454e-06 0.101912)
(-2.11057e-05 2.05923e-06 0.0951655)
(-9.73259e-05 1.72966e-05 0.109179)
(7.19407e-06 -9.40727e-07 0.0718849)
(-1.47097e-06 5.01359e-06 0.0719012)
(2.88486e-06 -4.72512e-05 0.101919)
(1.7446e-05 -9.76739e-05 0.10912)
(3.8765e-05 -0.000153676 0.102389)
(5.70122e-05 -9.09829e-05 0.108346)
(2.06706e-05 -0.000186855 0.105767)
(1.73269e-05 -9.73216e-05 0.109178)
(2.07977e-06 -2.1119e-05 0.0951659)
(-2.45606e-05 -1.02936e-05 0.0889176)
(-1.02805e-05 -2.45589e-05 0.0889162)
(1.12289e-05 1.13108e-05 0.106821)
(-1.43606e-05 1.27382e-06 0.0889043)
(1.31921e-06 -1.43553e-05 0.0889017)
(9.07228e-07 9.10399e-06 0.0932062)
(5.33725e-07 1.39905e-05 0.0829877)
(7.15098e-07 3.195e-05 0.0932318)
(-1.41845e-06 -6.17929e-06 0.0829936)
(-2.61361e-06 5.26157e-06 0.0717644)
(1.97985e-06 -3.5025e-06 0.071787)
(9.06056e-06 9.09e-07 0.0932054)
(1.39948e-05 4.96523e-07 0.082988)
(3.19844e-05 7.27004e-07 0.0932323)
(-6.1733e-06 -1.45144e-06 0.0829937)
(-5.43043e-05 5.43054e-05 0.109787)
(5.4316e-05 -5.43177e-05 0.109787)
(-5.43241e-05 -5.43118e-05 0.109787)
(5.02721e-05 5.02809e-05 0.109978)
(-5.02629e-05 5.02771e-05 0.109978)
(5.02817e-05 -5.02651e-05 0.109978)
(-5.02853e-05 -5.02617e-05 0.109978)
(-3.7589e-05 1.7763e-06 0.10165)
(-4.7128e-05 1.1473e-05 0.0949113)
(-9.45163e-05 1.63721e-05 0.109346)
(-8.4878e-05 5.35037e-05 0.108476)
(-8.06448e-05 2.20657e-06 0.101645)
(-1.47429e-05 7.60218e-07 0.094927)
(-9.28182e-05 1.59123e-05 0.109399)
(5.26731e-06 -2.58476e-06 0.0717637)
(-3.4915e-06 1.98661e-06 0.0717864)
(1.77077e-06 -3.7601e-05 0.101651)
(1.6406e-05 -9.45128e-05 0.109346)
(1.15034e-05 -4.71345e-05 0.0949107)
(5.34812e-05 -8.48467e-05 0.108476)
(2.20226e-06 -8.06446e-05 0.101644)
(1.59396e-05 -9.28097e-05 0.109399)
(7.76416e-07 -1.47614e-05 0.0949273)
(-2.17463e-05 -1.01151e-05 0.0887146)
(-1.00846e-05 -2.17347e-05 0.0887132)
(1.59288e-05 1.60041e-05 0.106793)
(-1.00564e-05 8.4536e-07 0.0887099)
(8.94492e-07 -1.00522e-05 0.0887072)
(1.03711e-06 4.7625e-06 0.0930174)
(-6.94282e-07 1.25845e-05 0.0828418)
(1.00441e-06 2.61163e-05 0.0930206)
(-4.60058e-06 -5.04729e-06 0.0828567)
(-1.20716e-06 6.44705e-06 0.0716624)
(5.50525e-06 -1.38429e-06 0.0716905)
(4.7376e-06 1.0156e-06 0.0930166)
(1.25863e-05 -7.15965e-07 0.0828421)
(2.61643e-05 9.94257e-07 0.093021)
(-5.05859e-06 -4.62628e-06 0.0828569)
(-4.88676e-05 4.88839e-05 0.110039)
(4.88918e-05 -4.88741e-05 0.110038)
(-4.88867e-05 -4.88632e-05 0.110038)
(4.36138e-05 4.3622e-05 0.110208)
(-4.36092e-05 4.36093e-05 0.110208)
(4.36256e-05 -4.36071e-05 0.110208)
(-4.36259e-05 -4.36028e-05 0.110208)
(-2.6935e-05 1.36447e-06 0.101401)
(-3.98405e-05 1.01369e-05 0.0946924)
(-8.73823e-05 1.46866e-05 0.109545)
(-7.65242e-05 4.91402e-05 0.108578)
(-6.92792e-05 1.53482e-06 0.101386)
(-9.77711e-06 -1.53542e-06 0.0947185)
(-8.53729e-05 1.42805e-05 0.109591)
(6.44051e-06 -1.20163e-06 0.0716615)
(-1.38436e-06 5.5113e-06 0.07169)
(1.36945e-06 -2.69239e-05 0.101402)
(1.47239e-05 -8.73633e-05 0.109545)
(1.01761e-05 -3.98337e-05 0.0946917)
(4.91492e-05 -7.65044e-05 0.108578)
(1.53049e-06 -6.92738e-05 0.101385)
(1.43167e-05 -8.53545e-05 0.109591)
(-1.52623e-06 -9.78427e-06 0.0947189)
(-1.85451e-05 -8.35881e-06 0.0885368)
(-8.35192e-06 -1.85214e-05 0.0885356)
(2.23322e-05 2.242e-05 0.106741)
(-8.56734e-06 3.97733e-06 0.0885444)
(4.01978e-06 -8.56474e-06 0.0885417)
(7.31285e-07 4.86069e-07 0.0928832)
(-2.47682e-06 1.34763e-05 0.0827152)
(9.70787e-07 2.24012e-05 0.092866)
(-4.54158e-06 -5.02639e-06 0.0827419)
(-3.09161e-07 6.78465e-06 0.0715788)
(4.43655e-06 -1.75979e-06 0.0716155)
(4.74714e-07 7.32202e-07 0.0928824)
(1.34887e-05 -2.48901e-06 0.0827155)
(2.2428e-05 1.00352e-06 0.0928663)
(-5.02652e-06 -4.54713e-06 0.082742)
(-4.12377e-05 4.12405e-05 0.110259)
(4.12483e-05 -4.12316e-05 0.110259)
(-4.12577e-05 -4.1234e-05 0.110259)
(3.19846e-05 3.19956e-05 0.11039)
(-3.19773e-05 3.19927e-05 0.11039)
(3.19939e-05 -3.19857e-05 0.11039)
(-3.20107e-05 -3.19873e-05 0.11039)
(-1.23896e-05 1.20181e-06 0.1012)
(-3.57404e-05 6.77907e-06 0.0945061)
(-7.58355e-05 1.25102e-05 0.109712)
(-6.17748e-05 3.99367e-05 0.108648)
(-5.68336e-05 1.46065e-06 0.101164)
(-4.25384e-06 -3.39595e-06 0.0945486)
(-7.12431e-05 1.17401e-05 0.109746)
(6.77949e-06 -3.21251e-07 0.0715779)
(-1.75152e-06 4.40933e-06 0.0716151)
(1.16841e-06 -1.23906e-05 0.101201)
(1.25341e-05 -7.58003e-05 0.109712)
(6.81065e-06 -3.57466e-05 0.0945055)
(3.9925e-05 -6.17422e-05 0.108648)
(1.42913e-06 -5.68093e-05 0.101164)
(1.17588e-05 -7.12232e-05 0.109746)
(-3.35309e-06 -4.27074e-06 0.0945489)
(-1.62916e-05 -6.08704e-06 0.0883983)
(-6.0768e-06 -1.62964e-05 0.0883972)
(3.49106e-05 3.49814e-05 0.106672)
(-4.57484e-06 4.42492e-06 0.0884237)
(4.49371e-06 -4.58398e-06 0.088421)
(5.2907e-08 -3.16927e-06 0.0927988)
(-2.0029e-06 1.35397e-05 0.082627)
(2.87982e-07 1.81215e-05 0.0927649)
(-4.34197e-06 -5.07344e-06 0.0826678)
(-1.12051e-06 6.49671e-06 0.071518)
(4.06954e-06 -2.16776e-06 0.0715627)
(-3.17709e-06 5.27606e-08 0.0927983)
(1.35363e-05 -2.00678e-06 0.0826272)
(1.81567e-05 3.09025e-07 0.092765)
(-5.07341e-06 -4.33322e-06 0.082668)
(-2.82622e-05 2.82884e-05 0.110425)
(2.82907e-05 -2.82813e-05 0.110425)
(-2.82937e-05 -2.82793e-05 0.110425)
(1.74866e-05 1.74945e-05 0.110505)
(-1.74709e-05 1.74884e-05 0.110505)
(1.75022e-05 -1.74857e-05 0.110505)
(-1.74915e-05 -1.74701e-05 0.110505)
(8.84657e-07 7.04018e-07 0.10107)
(-2.91539e-05 6.30814e-06 0.094374)
(-5.39855e-05 8.78711e-06 0.109826)
(-4.01675e-05 2.70445e-05 0.108679)
(-4.09475e-05 1.128e-06 0.101007)
(1.78868e-06 -4.44426e-06 0.0944417)
(-4.76064e-05 7.66314e-06 0.109846)
(6.49275e-06 -1.10159e-06 0.0715168)
(-2.1418e-06 4.07315e-06 0.0715624)
(7.09228e-07 8.54909e-07 0.10107)
(8.82967e-06 -5.39984e-05 0.109826)
(6.3395e-06 -2.91314e-05 0.0943734)
(2.70662e-05 -4.01838e-05 0.108679)
(1.13915e-06 -4.09579e-05 0.101006)
(7.70013e-06 -4.76225e-05 0.109845)
(-4.42265e-06 1.78392e-06 0.0944419)
(-1.24975e-05 -6.53667e-06 0.088307)
(-6.50487e-06 -1.24697e-05 0.0883062)
(5.01534e-05 5.01827e-05 0.106605)
(-1.70318e-06 4.34332e-06 0.0883485)
(4.38448e-06 -1.71002e-06 0.0883456)
(-2.78722e-07 -6.37871e-06 0.0927435)
(-1.14205e-06 1.19995e-05 0.0825721)
(-2.01514e-07 1.50131e-05 0.0927003)
(-3.19205e-06 -6.75564e-06 0.0826238)
(-2.02519e-06 5.52577e-06 0.071478)
(3.03783e-06 -3.15288e-06 0.0715302)
(-6.38101e-06 -2.77864e-07 0.0927432)
(1.19959e-05 -1.14125e-06 0.0825722)
(1.5039e-05 -1.84988e-07 0.0927001)
(-6.76574e-06 -3.17249e-06 0.082624)
(-1.46266e-05 1.46405e-05 0.110525)
(1.4651e-05 -1.46404e-05 0.110524)
(-1.46467e-05 -1.46245e-05 0.110524)
(-9.12682e-06 9.13924e-06 0.110567)
(-9.14646e-06 -9.11005e-06 0.110567)
(8.92189e-06 1.17021e-07 0.100996)
(-2.43194e-05 5.06478e-06 0.0943022)
(-3.07765e-05 4.63059e-06 0.10989)
(-2.22603e-05 1.55592e-05 0.108693)
(-3.18894e-05 3.13254e-07 0.100915)
(6.64007e-06 -5.14253e-06 0.0943851)
(-2.66569e-05 3.91722e-06 0.1099)
(5.49732e-06 -2.01242e-06 0.0714765)
(-3.10642e-06 3.0218e-06 0.0715303)
(1.19551e-07 8.90569e-06 0.100997)
(4.67143e-06 -3.07708e-05 0.10989)
(5.08305e-06 -2.43255e-05 0.0943016)
(1.55776e-05 -2.22434e-05 0.108693)
(3.21008e-07 -3.18945e-05 0.100914)
(3.94541e-06 -2.66572e-05 0.1099)
(-5.13536e-06 6.61376e-06 0.0943852)
(-9.78913e-06 -6.12328e-06 0.0882536)
(-6.1132e-06 -9.7606e-06 0.0882531)
(6.11953e-05 6.125e-05 0.106567)
(1.2042e-06 4.56721e-06 0.0883062)
(4.60814e-06 1.19538e-06 0.088303)
(-1.18164e-05 2.66397e-05 0.0891461)
(-2.6651e-05 1.18098e-05 0.0891485)
(-0.00015195 0.000151885 0.106647)
(-2.58863e-07 1.56347e-05 0.0891224)
(-1.56427e-05 2.47541e-07 0.0891239)
(-6.33306e-06 2.12736e-06 0.0720221)
(2.2997e-06 -2.87792e-06 0.0720323)
(4.07132e-06 -1.44208e-06 0.0719653)
(-2.46507e-06 6.3413e-06 0.0719514)
(9.62188e-06 -9.55992e-06 0.106826)
(6.65558e-07 1.47468e-05 0.0890086)
(-1.47424e-05 -6.70752e-07 0.0890101)
(-1.14305e-05 2.51814e-05 0.0890283)
(-2.51949e-05 1.14157e-05 0.0890306)
(1.44237e-06 -4.05514e-06 0.071965)
(-6.33788e-06 2.47725e-06 0.0719513)
(-1.70171e-05 1.60349e-06 0.0937151)
(-1.79004e-05 -3.92513e-07 0.0833661)
(2.09862e-06 -3.1007e-06 0.0833533)
(-3.98015e-05 1.51453e-06 0.0937649)
(-5.44408e-05 -3.44934e-06 0.102188)
(-9.98455e-05 -1.8107e-05 0.108877)
(-5.64166e-05 -1.47738e-05 0.0954274)
(-9.40948e-05 -5.84201e-05 0.108192)
(-9.93436e-05 -1.79027e-05 0.10894)
(-2.44486e-05 -3.49137e-06 0.0954296)
(-9.7854e-05 -3.7782e-06 0.102185)
(-1.70079e-05 -1.57203e-06 0.0937148)
(-1.79412e-05 3.98979e-07 0.0833661)
(2.08993e-06 3.07692e-06 0.0833528)
(-3.98199e-05 -1.52087e-06 0.0937649)
(-9.33994e-05 3.39848e-06 0.102048)
(-9.31141e-05 5.78466e-05 0.108233)
(-2.23388e-05 2.92192e-06 0.0952946)
(-9.8117e-05 1.75189e-05 0.109061)
(-5.37571e-05 1.40894e-05 0.0952905)
(-9.87048e-05 1.7658e-05 0.109001)
(-5.06592e-05 3.17648e-06 0.102052)
(-3.71341e-05 1.60297e-06 0.093621)
(1.60594e-06 -4.51128e-06 0.0832551)
(-1.68832e-05 -1.01887e-06 0.0832623)
(-1.47928e-05 1.40699e-06 0.0935787)
(-9.34137e-05 -3.40021e-06 0.102048)
(-9.31688e-05 -5.79185e-05 0.108233)
(-9.81129e-05 -1.75837e-05 0.109061)
(-2.23314e-05 -2.94813e-06 0.0952944)
(-9.87e-05 -1.77202e-05 0.109001)
(-5.37906e-05 -1.40959e-05 0.0952894)
(-5.06663e-05 -3.16532e-06 0.102052)
(-3.7145e-05 -1.58886e-06 0.093621)
(1.6317e-06 4.50032e-06 0.0832547)
(-1.69002e-05 1.00897e-06 0.0832623)
(-1.47831e-05 -1.36717e-06 0.0935784)
(-6.34673e-06 -2.13475e-06 0.0720218)
(2.29644e-06 2.88784e-06 0.0720327)
(-2.14067e-06 -6.32296e-06 0.0720219)
(2.89191e-06 2.30228e-06 0.0720322)
(9.50678e-06 9.61078e-06 0.106825)
(-1.47548e-05 6.57654e-07 0.0890109)
(6.72166e-07 -1.47568e-05 0.0890083)
(-2.51903e-05 -1.14223e-05 0.0890293)
(-1.14313e-05 -2.51947e-05 0.0890279)
(1.45013e-06 4.04796e-06 0.0719654)
(-6.34274e-06 -2.47159e-06 0.0719511)
(4.07849e-06 1.44106e-06 0.071965)
(-2.46476e-06 -6.33898e-06 0.0719511)
(9.40674e-07 7.17426e-06 0.0718857)
(-5.01088e-06 -1.4745e-06 0.0719014)
(7.1828e-06 9.33312e-07 0.0718849)
(-1.46064e-06 -5.02496e-06 0.071901)
(1.03028e-05 2.45608e-05 0.0889194)
(2.45533e-05 1.02963e-05 0.0889163)
(-1.13231e-05 -1.12429e-05 0.106822)
(-1.30218e-06 1.43529e-05 0.0889039)
(1.43499e-05 -1.31419e-06 0.0889019)
(-3.3238e-06 -2.85179e-06 0.0718411)
(6.55011e-07 6.65988e-06 0.0718232)
(-2.83447e-06 -3.3485e-06 0.0718408)
(6.67251e-06 6.39996e-07 0.0718223)
(0.000144574 0.00014457 0.106635)
(-9.92525e-07 1.24815e-05 0.0888037)
(1.24816e-05 -1.02362e-06 0.0888018)
(9.89971e-06 2.39026e-05 0.0888149)
(2.38926e-05 9.88364e-06 0.0888117)
(-8.85148e-07 1.38224e-05 0.0934501)
(2.28944e-06 1.75022e-05 0.0831662)
(-1.25852e-06 3.50794e-05 0.0934862)
(4.17103e-06 -1.48535e-06 0.0831622)
(2.90504e-06 4.72385e-05 0.101919)
(3.88263e-05 0.000153723 0.102389)
(1.74599e-05 9.76855e-05 0.10912)
(5.71089e-05 9.10616e-05 0.108345)
(2.06914e-05 0.000186797 0.105768)
(2.07432e-06 2.11594e-05 0.0951647)
(1.73398e-05 9.73272e-05 0.109178)
(-2.8962e-06 4.72222e-05 0.101919)
(-3.88082e-05 0.000153712 0.102387)
(-1.74463e-05 9.77057e-05 0.10912)
(-5.71307e-05 9.10598e-05 0.108345)
(-2.06698e-05 0.000186762 0.105767)
(-2.08328e-06 2.11856e-05 0.0951639)
(-1.73251e-05 9.7348e-05 0.109178)
(7.93802e-07 3.40713e-05 0.093357)
(-2.21585e-06 -4.01371e-06 0.0830736)
(-1.29719e-06 1.68854e-05 0.0830745)
(6.69689e-07 1.23051e-05 0.0933235)
(-8.03025e-07 3.40779e-05 0.093357)
(2.20577e-06 -4.02062e-06 0.0830737)
(1.30571e-06 1.68875e-05 0.0830747)
(-6.7135e-07 1.22964e-05 0.0933233)
(2.85953e-06 8.54713e-05 0.101778)
(5.66339e-05 9.01269e-05 0.108381)
(1.18257e-06 1.86939e-05 0.0950423)
(1.68323e-05 9.58715e-05 0.109292)
(1.238e-05 5.03101e-05 0.0950311)
(1.71465e-05 9.68056e-05 0.109236)
(2.318e-06 4.30346e-05 0.101785)
(-2.85401e-06 8.54652e-05 0.101778)
(-5.66331e-05 9.0108e-05 0.10838)
(-1.19149e-06 1.86789e-05 0.0950415)
(-1.68051e-05 9.58733e-05 0.109292)
(-1.23647e-05 5.03394e-05 0.0950299)
(-1.71216e-05 9.6805e-05 0.109236)
(-2.31093e-06 4.30287e-05 0.101785)
(-1.02825e-05 2.45538e-05 0.0889166)
(-2.45489e-05 1.02657e-05 0.0889189)
(1.13046e-05 -1.12235e-05 0.106822)
(1.32307e-06 1.43556e-05 0.0889021)
(-1.43696e-05 -1.33872e-06 0.0889035)
(-7.18852e-06 9.16149e-07 0.0718855)
(1.44726e-06 -5.04286e-06 0.0719014)
(3.2889e-06 -2.8714e-06 0.0718415)
(-6.67791e-07 6.65789e-06 0.0718231)
(-0.00014462 0.000144573 0.106635)
(9.75888e-07 1.24648e-05 0.088802)
(-1.24649e-05 -9.98141e-07 0.0888034)
(-9.86678e-06 2.38895e-05 0.088812)
(-2.39152e-05 9.86165e-06 0.0888144)
(2.84031e-06 -3.31672e-06 0.0718411)
(-6.67584e-06 6.26644e-07 0.0718229)
(4.72323e-05 2.88187e-06 0.101919)
(0.000153634 3.8739e-05 0.102388)
(9.76756e-05 1.74204e-05 0.10912)
(9.09839e-05 5.70265e-05 0.108346)
(0.000186814 2.06619e-05 0.105767)
(2.11152e-05 2.06884e-06 0.0951641)
(9.73256e-05 1.73108e-05 0.109179)
(1.38229e-05 -8.77807e-07 0.0934495)
(1.75073e-05 2.26325e-06 0.0831657)
(3.50816e-05 -1.22349e-06 0.093486)
(-1.4636e-06 4.16275e-06 0.0831623)
(4.72498e-05 -2.8918e-06 0.101918)
(9.76772e-05 -1.7471e-05 0.10912)
(0.000175675 -3.29882e-05 0.104393)
(9.10676e-05 -5.71104e-05 0.108345)
(0.000186788 -2.0673e-05 0.105768)
(9.73269e-05 -1.73546e-05 0.109178)
(2.11045e-05 -2.0885e-06 0.0951644)
(3.41093e-05 8.1185e-07 0.0933575)
(-4.01505e-06 -2.24004e-06 0.0830737)
(1.68856e-05 -1.30899e-06 0.0830748)
(1.226e-05 6.72535e-07 0.0933226)
(8.54867e-05 2.84187e-06 0.101778)
(9.00429e-05 5.65411e-05 0.108381)
(1.86617e-05 1.17303e-06 0.0950417)
(9.58667e-05 1.67993e-05 0.109292)
(5.02731e-05 1.23597e-05 0.0950307)
(9.67881e-05 1.71104e-05 0.109236)
(4.30378e-05 2.29929e-06 0.101785)
(3.40789e-05 -7.71355e-07 0.0933571)
(-3.98716e-06 2.21591e-06 0.0830738)
(1.69064e-05 1.29932e-06 0.0830743)
(1.2297e-05 -6.67834e-07 0.0933228)
(8.54955e-05 -2.83534e-06 0.101779)
(9.01281e-05 -5.66308e-05 0.10838)
(9.58678e-05 -1.68443e-05 0.109292)
(1.86483e-05 -1.20657e-06 0.0950419)
(9.67874e-05 -1.71565e-05 0.109236)
(5.02749e-05 -1.23832e-05 0.0950294)
(4.30526e-05 -2.31093e-06 0.101784)
(-1.37918e-05 9.05515e-07 0.0934489)
(-1.75044e-05 -2.27762e-06 0.0831661)
(-3.51189e-05 1.24598e-06 0.093487)
(1.44874e-06 -4.19828e-06 0.0831627)
(-4.7246e-05 -2.89198e-06 0.101918)
(-9.76725e-05 -1.74831e-05 0.10912)
(-5.17467e-05 -1.34259e-05 0.0951568)
(-9.10642e-05 -5.70981e-05 0.108345)
(-8.9408e-05 -3.15198e-06 0.101912)
(-9.73161e-05 -1.73627e-05 0.109178)
(-2.11197e-05 -2.10215e-06 0.0951653)
(-1.37786e-05 -8.58522e-07 0.0934486)
(-1.75016e-05 2.28103e-06 0.0831661)
(-3.5127e-05 -1.23274e-06 0.093487)
(1.46413e-06 4.16336e-06 0.0831623)
(-8.54933e-05 2.83691e-06 0.101779)
(-9.00641e-05 5.65373e-05 0.108381)
(-1.86458e-05 1.16225e-06 0.095043)
(-9.5867e-05 1.67807e-05 0.109292)
(-5.0275e-05 1.23492e-05 0.0950313)
(-9.67929e-05 1.70946e-05 0.109236)
(-4.30393e-05 2.3082e-06 0.101784)
(-3.41215e-05 7.98712e-07 0.0933581)
(3.98905e-06 -2.22427e-06 0.0830741)
(-1.6899e-05 -1.32987e-06 0.0830746)
(-1.22723e-05 7.03842e-07 0.0933221)
(-8.55188e-05 -2.84324e-06 0.101779)
(-9.01255e-05 -5.66233e-05 0.10838)
(-9.58517e-05 -1.68564e-05 0.109292)
(-1.86524e-05 -1.1957e-06 0.0950428)
(-9.67798e-05 -1.71714e-05 0.109236)
(-5.02839e-05 -1.23844e-05 0.0950304)
(-4.30489e-05 -2.30554e-06 0.101784)
(-3.41229e-05 -7.73445e-07 0.0933582)
(3.97339e-06 2.23053e-06 0.0830738)
(-1.69143e-05 1.31125e-06 0.0830747)
(-1.22556e-05 -6.45041e-07 0.0933219)
(2.45272e-05 -1.03177e-05 0.0889161)
(1.02669e-05 -2.45465e-05 0.0889181)
(-1.12527e-05 1.13158e-05 0.106822)
(1.43376e-05 1.29106e-06 0.0889014)
(-1.31631e-06 -1.4353e-05 0.0889046)
(9.17567e-07 -7.19362e-06 0.071885)
(-5.0233e-06 1.46599e-06 0.0719016)
(-2.85659e-06 3.31863e-06 0.071841)
(6.66502e-06 -6.58578e-07 0.0718224)
(0.000144568 -0.000144614 0.106635)
(1.24833e-05 9.70916e-07 0.0888014)
(-9.71234e-07 -1.2468e-05 0.0888044)
(2.3875e-05 -9.90993e-06 0.0888116)
(9.88221e-06 -2.39007e-05 0.0888136)
(-3.29416e-06 2.86959e-06 0.0718414)
(6.49497e-07 -6.67003e-06 0.0718224)
(-2.89158e-06 -4.72557e-05 0.101918)
(-1.74354e-05 -9.76615e-05 0.10912)
(-3.87327e-05 -0.000153575 0.102387)
(-5.69946e-05 -9.09686e-05 0.108346)
(-2.06684e-05 -0.000186843 0.105767)
(-1.73211e-05 -9.73121e-05 0.109178)
(-2.05473e-06 -2.10737e-05 0.0951644)
(8.93748e-07 -1.38051e-05 0.0934493)
(-2.27025e-06 -1.74745e-05 0.0831656)
(1.23251e-06 -3.51287e-05 0.0934862)
(-4.17372e-06 1.4665e-06 0.0831627)
(-8.7405e-07 -1.37899e-05 0.0934491)
(2.2816e-06 -1.75228e-05 0.0831663)
(-1.24858e-06 -3.51238e-05 0.0934863)
(4.16592e-06 1.48234e-06 0.0831623)
(2.82595e-06 -8.54978e-05 0.101778)
(5.65318e-05 -9.0055e-05 0.108381)
(1.68152e-05 -9.5869e-05 0.109292)
(1.18902e-06 -1.86618e-05 0.0950434)
(1.71286e-05 -9.67936e-05 0.109236)
(1.23795e-05 -5.02661e-05 0.0950306)
(2.30913e-06 -4.30577e-05 0.101785)
(-2.84874e-06 -8.55078e-05 0.101778)
(-5.65033e-05 -9.00288e-05 0.108381)
(-1.68112e-05 -9.58563e-05 0.109292)
(-1.15734e-06 -1.85998e-05 0.095042)
(-1.71207e-05 -9.67814e-05 0.109236)
(-1.23497e-05 -5.02416e-05 0.0950303)
(-2.30028e-06 -4.3054e-05 0.101785)
(7.88064e-07 -3.41295e-05 0.0933573)
(-2.20376e-06 3.98612e-06 0.0830742)
(-1.30084e-06 -1.68853e-05 0.0830742)
(6.90201e-07 -1.22822e-05 0.0933225)
(-7.86167e-07 -3.41273e-05 0.0933575)
(2.24027e-06 4.00811e-06 0.0830739)
(1.30591e-06 -1.68877e-05 0.0830749)
(-6.60237e-07 -1.22681e-05 0.0933223)
(-7.18509e-06 -9.38306e-07 0.0718852)
(1.47205e-06 5.01747e-06 0.0719018)
(-9.18256e-07 -7.1838e-06 0.0718853)
(5.03927e-06 1.45641e-06 0.0719013)
(-0.000144606 -0.000144631 0.106635)
(-1.24878e-05 9.90123e-07 0.0888042)
(1.03721e-06 -1.24798e-05 0.0888016)
(-2.38987e-05 -9.89342e-06 0.088813)
(-9.87785e-06 -2.38906e-05 0.0888117)
(2.85047e-06 3.3434e-06 0.0718416)
(-6.67773e-06 -6.42502e-07 0.0718226)
(3.37737e-06 2.82754e-06 0.0718411)
(-6.26125e-07 -6.67726e-06 0.0718228)
(2.59026e-06 5.26874e-06 0.0717645)
(-1.97139e-06 -3.50767e-06 0.0717865)
(5.28556e-06 2.56331e-06 0.0717636)
(-3.48557e-06 -2.00257e-06 0.0717862)
(1.01252e-05 2.17387e-05 0.0887164)
(2.17371e-05 1.00967e-05 0.0887133)
(-1.60128e-05 -1.59612e-05 0.106794)
(-8.55536e-07 1.00432e-05 0.0887093)
(1.00539e-05 -8.93236e-07 0.0887074)
(-3.50421e-06 -2.30884e-06 0.0717362)
(3.36341e-06 5.06793e-06 0.0717115)
(-2.30096e-06 -3.5281e-06 0.071736)
(5.08978e-06 3.33236e-06 0.0717107)
(0.000135356 0.000135337 0.106598)
(-1.9815e-06 8.65037e-06 0.0886219)
(8.6618e-06 -2.01071e-06 0.0886201)
(1.00104e-05 1.93384e-05 0.0886238)
(1.93427e-05 9.97443e-06 0.0886207)
(-9.23357e-07 9.09133e-06 0.0932061)
(-5.33717e-07 1.39885e-05 0.082988)
(-7.19314e-07 3.1947e-05 0.0932318)
(1.43612e-06 -6.15373e-06 0.0829938)
(1.78023e-06 3.75789e-05 0.101651)
(1.14941e-05 4.71838e-05 0.0949111)
(1.6422e-05 9.45272e-05 0.109346)
(5.35758e-05 8.49402e-05 0.108476)
(2.21918e-06 8.06085e-05 0.101644)
(7.40137e-07 1.48194e-05 0.0949262)
(1.59513e-05 9.28239e-05 0.109399)
(-1.78389e-06 3.75788e-05 0.101651)
(-1.1494e-05 4.71782e-05 0.09491)
(-1.63974e-05 9.45249e-05 0.109346)
(-5.35988e-05 8.49435e-05 0.108475)
(-2.21597e-06 8.06138e-05 0.101645)
(-7.81859e-07 1.48059e-05 0.0949255)
(-1.59402e-05 9.28341e-05 0.109399)
(9.63416e-07 2.85646e-05 0.0931183)
(-2.5335e-06 -6.23357e-06 0.0829233)
(9.36264e-07 1.2218e-05 0.0829105)
(9.6683e-07 6.38198e-06 0.0931046)
(-9.78735e-07 2.85599e-05 0.0931183)
(2.56313e-06 -6.20513e-06 0.0829235)
(-9.03038e-07 1.22623e-05 0.0829108)
(-9.52279e-07 6.37468e-06 0.0931045)
(1.76119e-06 7.47563e-05 0.101511)
(5.25425e-05 8.28802e-05 0.108504)
(1.75627e-07 1.12219e-05 0.0948181)
(1.51029e-05 8.91885e-05 0.109498)
(1.10524e-05 4.30433e-05 0.0947976)
(1.55048e-05 9.10004e-05 0.10945)
(1.51162e-06 3.21428e-05 0.101522)
(-1.76672e-06 7.47646e-05 0.101512)
(-5.25661e-05 8.28867e-05 0.108503)
(-1.70372e-07 1.12363e-05 0.0948173)
(-1.50885e-05 8.9197e-05 0.109498)
(-1.10686e-05 4.30472e-05 0.0947965)
(-1.5495e-05 9.10049e-05 0.109449)
(-1.50396e-06 3.21408e-05 0.101522)
(-1.01427e-05 2.17186e-05 0.0887136)
(-2.17103e-05 1.01105e-05 0.0887159)
(1.60018e-05 -1.59216e-05 0.106794)
(8.44886e-07 1.00442e-05 0.0887076)
(-1.00359e-05 -8.86834e-07 0.088709)
(-5.27839e-06 2.58481e-06 0.0717642)
(3.47055e-06 -2.01748e-06 0.0717865)
(3.51708e-06 -2.30079e-06 0.0717367)
(-3.34162e-06 5.08918e-06 0.0717115)
(-0.000135406 0.000135368 0.106597)
(2.00003e-06 8.66464e-06 0.0886203)
(-8.67552e-06 -2.03256e-06 0.0886217)
(-9.99826e-06 1.93348e-05 0.088621)
(-1.93408e-05 9.96365e-06 0.0886233)
(2.28539e-06 -3.55301e-06 0.0717362)
(-5.10425e-06 3.29896e-06 0.0717112)
(3.75875e-05 1.76743e-06 0.101651)
(4.71597e-05 1.14662e-05 0.0949107)
(9.45082e-05 1.63825e-05 0.109346)
(8.48492e-05 5.34942e-05 0.108476)
(8.06324e-05 2.20539e-06 0.101644)
(1.47928e-05 7.26648e-07 0.0949256)
(9.2816e-05 1.59235e-05 0.109399)
(9.09614e-06 -9.17115e-07 0.0932056)
(1.40108e-05 -5.22565e-07 0.0829875)
(3.19557e-05 -6.93653e-07 0.0932319)
(-6.132e-06 1.43861e-06 0.0829938)
(3.76055e-05 -1.7819e-06 0.10165)
(9.45083e-05 -1.64329e-05 0.109346)
(4.71496e-05 -1.151e-05 0.0949094)
(8.49418e-05 -5.35784e-05 0.108475)
(8.06414e-05 -2.20006e-06 0.101645)
(9.28172e-05 -1.59688e-05 0.109399)
(1.47905e-05 -7.49353e-07 0.0949258)
(2.85981e-05 9.68967e-07 0.0931187)
(-6.23384e-06 -2.55414e-06 0.0829235)
(1.22335e-05 8.97332e-07 0.0829108)
(6.35633e-06 9.50693e-07 0.0931038)
(7.47789e-05 1.75178e-06 0.101511)
(8.27821e-05 5.24425e-05 0.108504)
(1.12081e-05 1.61611e-07 0.0948175)
(8.91791e-05 1.50757e-05 0.109498)
(4.30267e-05 1.10208e-05 0.0947972)
(9.0978e-05 1.54725e-05 0.109449)
(3.21637e-05 1.49164e-06 0.101522)
(2.85693e-05 -9.49202e-07 0.0931184)
(-6.20641e-06 2.54031e-06 0.0829236)
(1.2268e-05 -9.1557e-07 0.0829102)
(6.40047e-06 -9.63444e-07 0.093104)
(7.47849e-05 -1.75359e-06 0.101512)
(8.28764e-05 -5.25275e-05 0.108503)
(8.9182e-05 -1.51113e-05 0.109498)
(1.12056e-05 -1.61726e-07 0.0948177)
(9.09782e-05 -1.55169e-05 0.109449)
(4.30291e-05 -1.10375e-05 0.0947959)
(3.2185e-05 -1.50528e-06 0.101521)
(-9.07589e-06 9.31657e-07 0.0932049)
(-1.39881e-05 5.42284e-07 0.0829878)
(-3.19946e-05 7.27309e-07 0.0932329)
(6.15252e-06 -1.43657e-06 0.0829942)
(-3.76032e-05 -1.77034e-06 0.10165)
(-9.45002e-05 -1.6446e-05 0.109346)
(-4.71604e-05 -1.14773e-05 0.0949105)
(-8.49288e-05 -5.35602e-05 0.108475)
(-8.06616e-05 -2.20448e-06 0.101645)
(-9.28063e-05 -1.59764e-05 0.109399)
(-1.47932e-05 -7.54796e-07 0.0949268)
(-9.06469e-06 -8.90194e-07 0.0932046)
(-1.40253e-05 -5.07175e-07 0.0829879)
(-3.19951e-05 -6.8905e-07 0.0932329)
(6.14816e-06 1.42376e-06 0.0829939)
(-7.47822e-05 1.75032e-06 0.101512)