/*--------------------------------*- C++ -*----------------------------------*\
| =========                 |                                                 |
| \\      /  F ield         | OpenFOAM: The Open Source CFD Toolbox           |
|  \\    /   O peration     | Version:  v2012                                 |
|   \\  /    A nd           | Website:  www.openfoam.com                      |
|    \\/     M anipulation  |                                                 |
\*---------------------------------------------------------------------------*/
FoamFile
{
    version     2.0;
    format      ascii;
    class       volScalarField;
    location    "125";
    object      k;
}
// * * * * * * * * * * * * * * * * * * * * * * * * * * * * * * * * * * * * * //

dimensions      [0 2 -2 0 0 0 0];


internalField   nonuniform List<scalar> 
171728
(
3.58932e-05
3.58912e-05
3.58912e-05
3.59957e-05
3.39296e-05
3.3889e-05
3.3889e-05
3.39622e-05
3.21578e-05
3.20081e-05
3.20081e-05
3.19522e-05
3.05346e-05
3.02293e-05
3.02292e-05
2.99884e-05
2.90329e-05
2.8554e-05
2.85539e-05
2.81226e-05
2.76354e-05
2.69871e-05
2.69871e-05
2.63906e-05
2.63308e-05
2.5531e-05
2.55309e-05
2.48072e-05
2.51112e-05
2.41849e-05
2.41848e-05
2.3378e-05
2.3971e-05
2.29506e-05
2.29505e-05
2.21045e-05
2.29058e-05
2.18268e-05
2.18267e-05
2.09858e-05
2.1912e-05
2.08113e-05
2.08112e-05
2.00131e-05
2.09865e-05
1.99012e-05
1.99011e-05
1.91812e-05
2.01241e-05
1.90946e-05
1.90945e-05
1.84893e-05
1.93238e-05
1.83883e-05
1.83882e-05
1.79327e-05
1.85847e-05
1.77791e-05
1.7779e-05
1.7506e-05
1.79042e-05
1.72656e-05
1.72655e-05
1.72e-05
1.72798e-05
1.68465e-05
1.68465e-05
1.70223e-05
1.67097e-05
1.65213e-05
1.65212e-05
1.69817e-05
1.61925e-05
1.62897e-05
1.62897e-05
1.70788e-05
1.57251e-05
1.61519e-05
1.61519e-05
1.73039e-05
1.53077e-05
1.61079e-05
1.6108e-05
1.76571e-05
1.49369e-05
1.61536e-05
1.61538e-05
1.81343e-05
1.46153e-05
1.62927e-05
1.6293e-05
1.87285e-05
1.43372e-05
1.65195e-05
1.65199e-05
1.94264e-05
1.41069e-05
1.68311e-05
1.68316e-05
2.02105e-05
1.39208e-05
1.72169e-05
1.72175e-05
2.1054e-05
1.3756e-05
1.76312e-05
1.76318e-05
2.18935e-05
1.36526e-05
1.80578e-05
1.80587e-05
2.26181e-05
1.34884e-05
1.82522e-05
1.82532e-05
2.29715e-05
1.32399e-05
1.82154e-05
1.82164e-05
2.30284e-05
1.30884e-05
1.81873e-05
1.81882e-05
2.30068e-05
1.30559e-05
1.82077e-05
1.82086e-05
2.30361e-05
1.30627e-05
1.82416e-05
1.82425e-05
2.30632e-05
1.30719e-05
1.82562e-05
1.82572e-05
2.30794e-05
1.30751e-05
1.82602e-05
1.82612e-05
2.3081e-05
1.3076e-05
1.82612e-05
1.82622e-05
2.30804e-05
1.30762e-05
1.82612e-05
1.82622e-05
2.30818e-05
1.30763e-05
1.82613e-05
1.82623e-05
2.30812e-05
1.30764e-05
1.82614e-05
1.82624e-05
2.30806e-05
1.30766e-05
1.82615e-05
1.82625e-05
2.30814e-05
1.30767e-05
1.82616e-05
1.82626e-05
2.30822e-05
1.30767e-05
1.82616e-05
1.82626e-05
2.30789e-05
1.30768e-05
1.82617e-05
1.82627e-05
2.30832e-05
1.30769e-05
1.82617e-05
1.82627e-05
2.30859e-05
1.30769e-05
1.82619e-05
1.82628e-05
2.30871e-05
1.30769e-05
1.82619e-05
1.82628e-05
2.3079e-05
1.30769e-05
1.82617e-05
1.82626e-05
2.30751e-05
1.30769e-05
1.82617e-05
1.82626e-05
2.30852e-05
1.30769e-05
1.82619e-05
1.82628e-05
2.30888e-05
1.30769e-05
1.82619e-05
1.82628e-05
2.30858e-05
1.30769e-05
1.82619e-05
1.82627e-05
2.30788e-05
1.30769e-05
1.82618e-05
1.82626e-05
2.30744e-05
1.30769e-05
1.82618e-05
1.82626e-05
2.30761e-05
1.3077e-05
1.82617e-05
1.82626e-05
2.30815e-05
1.3077e-05
1.82618e-05
1.82626e-05
2.3088e-05
1.3077e-05
1.82619e-05
1.82627e-05
2.30881e-05
1.3077e-05
1.8262e-05
1.82627e-05
2.3083e-05
1.3077e-05
1.8262e-05
1.82627e-05
2.30749e-05
1.3077e-05
1.82619e-05
1.82627e-05
2.30775e-05
1.3077e-05
1.82619e-05
1.82626e-05
2.30872e-05
1.3077e-05
1.82618e-05
1.82626e-05
2.30871e-05
1.3077e-05
1.82618e-05
1.82626e-05
2.30858e-05
1.3077e-05
1.82619e-05
1.82627e-05
2.30836e-05
1.3077e-05
1.82619e-05
1.82627e-05
2.30805e-05
1.30769e-05
1.82619e-05
1.82626e-05
2.30778e-05
1.30769e-05
1.82618e-05
1.82626e-05
2.30764e-05
1.3077e-05
1.82618e-05
1.82627e-05
2.3076e-05
1.3077e-05
1.82618e-05
1.82627e-05
2.30763e-05
1.3077e-05
1.82618e-05
1.82627e-05
2.30769e-05
1.3077e-05
1.82618e-05
1.82627e-05
2.30767e-05
1.3077e-05
1.82618e-05
1.82627e-05
2.30762e-05
1.3077e-05
1.82618e-05
1.82627e-05
2.30761e-05
1.3077e-05
1.82617e-05
1.82627e-05
2.30764e-05
1.3077e-05
1.82617e-05
1.82627e-05
2.30767e-05
1.3077e-05
1.82617e-05
1.82627e-05
2.30766e-05
1.3077e-05
1.82617e-05
1.82628e-05
2.30767e-05
1.3077e-05
1.82617e-05
1.82628e-05
2.30775e-05
1.3077e-05
1.82617e-05
1.82627e-05
2.3078e-05
1.3077e-05
1.82617e-05
1.82627e-05
2.30774e-05
1.3077e-05
1.82617e-05
1.82628e-05
2.30769e-05
1.3077e-05
1.82617e-05
1.82627e-05
2.3077e-05
1.3077e-05
1.82617e-05
1.82627e-05
2.30772e-05
1.3077e-05
1.82616e-05
1.82627e-05
2.3077e-05
1.3077e-05
1.82616e-05
1.82627e-05
2.30767e-05
1.3077e-05
1.82617e-05
1.82628e-05
2.30769e-05
1.3077e-05
1.82617e-05
1.82628e-05
2.3078e-05
1.3077e-05
1.82618e-05
1.82629e-05
2.308e-05
1.3077e-05
1.8262e-05
1.82631e-05
2.30801e-05
1.3077e-05
1.82622e-05
1.82633e-05
2.30771e-05
1.3077e-05
1.82625e-05
1.82636e-05
2.30763e-05
1.30771e-05
1.8263e-05
1.82641e-05
2.30755e-05
1.30772e-05
1.82636e-05
1.82648e-05
2.3076e-05
1.30773e-05
1.82644e-05
1.82655e-05
2.30783e-05
1.30737e-05
1.82616e-05
1.82627e-05
2.30742e-05
1.29553e-05
1.76036e-05
1.76042e-05
2.23352e-05
3.63068e-05
3.6291e-05
3.6291e-05
3.63068e-05
3.6291e-05
3.6291e-05
3.6423e-05
3.6423e-05
3.6423e-05
3.6423e-05
3.6291e-05
3.6291e-05
3.63068e-05
3.6291e-05
3.6291e-05
3.63068e-05
3.59957e-05
3.42687e-05
3.58912e-05
3.58912e-05
3.43767e-05
3.43766e-05
3.59957e-05
3.42687e-05
3.58911e-05
3.58912e-05
3.43767e-05
3.43766e-05
3.58912e-05
3.43767e-05
3.43767e-05
3.59957e-05
3.42687e-05
3.58912e-05
3.43767e-05
3.43767e-05
3.42687e-05
3.39623e-05
3.22635e-05
3.38889e-05
3.38889e-05
3.24684e-05
3.24683e-05
3.39622e-05
3.22635e-05
3.38889e-05
3.38889e-05
3.24684e-05
3.24683e-05
3.38889e-05
3.24685e-05
3.24683e-05
3.39622e-05
3.22635e-05
3.38889e-05
3.24685e-05
3.24684e-05
3.22634e-05
3.19522e-05
3.02994e-05
3.20079e-05
3.20078e-05
3.06643e-05
3.06642e-05
3.19522e-05
3.02994e-05
3.2008e-05
3.20078e-05
3.06644e-05
3.06641e-05
3.20079e-05
3.06645e-05
3.06642e-05
3.19522e-05
3.02993e-05
3.2008e-05
3.06645e-05
3.06644e-05
3.02991e-05
2.99886e-05
2.84254e-05
3.0229e-05
3.02288e-05
2.89624e-05
2.89622e-05
2.99885e-05
2.84254e-05
3.02292e-05
3.02288e-05
2.89626e-05
2.89621e-05
3.02289e-05
2.89628e-05
2.89623e-05
2.99885e-05
2.84253e-05
3.02291e-05
2.89627e-05
2.89626e-05
2.8425e-05
2.81228e-05
2.66741e-05
2.85536e-05
2.85534e-05
2.7368e-05
2.73678e-05
2.81227e-05
2.66741e-05
2.85539e-05
2.85533e-05
2.73684e-05
2.73677e-05
2.85535e-05
2.73685e-05
2.73679e-05
2.81227e-05
2.66739e-05
2.85538e-05
2.73684e-05
2.73682e-05
2.66737e-05
2.63909e-05
2.50664e-05
2.69866e-05
2.69864e-05
2.58841e-05
2.58838e-05
2.63909e-05
2.50664e-05
2.6987e-05
2.69863e-05
2.58846e-05
2.58837e-05
2.69865e-05
2.58847e-05
2.58839e-05
2.63908e-05
2.50662e-05
2.69869e-05
2.58846e-05
2.58844e-05
2.50659e-05
2.48076e-05
2.36126e-05
2.55303e-05
2.55301e-05
2.45102e-05
2.451e-05
2.48076e-05
2.36126e-05
2.55308e-05
2.55299e-05
2.45108e-05
2.45098e-05
2.55302e-05
2.4511e-05
2.45101e-05
2.48074e-05
2.36124e-05
2.55307e-05
2.45109e-05
2.45107e-05
2.36121e-05
2.33785e-05
2.23126e-05
2.41841e-05
2.41839e-05
2.32478e-05
2.32475e-05
2.33785e-05
2.23126e-05
2.41847e-05
2.41837e-05
2.32485e-05
2.32474e-05
2.4184e-05
2.32487e-05
2.32477e-05
2.33783e-05
2.23123e-05
2.41846e-05
2.32486e-05
2.32484e-05
2.2312e-05
2.2105e-05
2.11682e-05
2.29497e-05
2.29494e-05
2.20965e-05
2.20962e-05
2.2105e-05
2.11682e-05
2.29504e-05
2.29492e-05
2.20973e-05
2.20961e-05
2.29495e-05
2.20975e-05
2.20964e-05
2.21048e-05
2.1168e-05
2.29503e-05
2.20974e-05
2.20972e-05
2.11675e-05
2.09864e-05
2.01708e-05
2.18258e-05
2.18255e-05
2.10542e-05
2.10539e-05
2.09864e-05
2.01708e-05
2.18266e-05
2.18253e-05
2.10551e-05
2.10537e-05
2.18256e-05
2.10552e-05
2.1054e-05
2.09862e-05
2.01706e-05
2.18265e-05
2.10551e-05
2.1055e-05
2.01701e-05
2.00138e-05
1.93147e-05
2.08102e-05
2.08099e-05
2.0118e-05
2.01177e-05
2.00138e-05
1.93147e-05
2.08111e-05
2.08098e-05
2.01189e-05
2.01176e-05
2.08101e-05
2.01191e-05
2.01179e-05
2.00135e-05
1.93145e-05
2.0811e-05
2.0119e-05
2.01188e-05
1.9314e-05
1.91817e-05
1.85905e-05
1.99001e-05
1.98998e-05
1.92856e-05
1.92853e-05
1.91817e-05
1.85906e-05
1.99011e-05
1.98997e-05
1.92865e-05
1.92852e-05
1.99e-05
1.92867e-05
1.92855e-05
1.91815e-05
1.85903e-05
1.9901e-05
1.92866e-05
1.92865e-05
1.85897e-05
1.84898e-05
1.79979e-05
1.90935e-05
1.90933e-05
1.85546e-05
1.85544e-05
1.84898e-05
1.79979e-05
1.90945e-05
1.90931e-05
1.85555e-05
1.85542e-05
1.90934e-05
1.85556e-05
1.85545e-05
1.84896e-05
1.79977e-05
1.90944e-05
1.85555e-05
1.85555e-05
1.79972e-05
1.79333e-05
1.75393e-05
1.83872e-05
1.83871e-05
1.79215e-05
1.79214e-05
1.79333e-05
1.75394e-05
1.83882e-05
1.83869e-05
1.79225e-05
1.79212e-05
1.83871e-05
1.79226e-05
1.79214e-05
1.7933e-05
1.75392e-05
1.83882e-05
1.79224e-05
1.79224e-05
1.75388e-05
1.75065e-05
1.72177e-05
1.77781e-05
1.7778e-05
1.73839e-05
1.73838e-05
1.75066e-05
1.72178e-05
1.7779e-05
1.77778e-05
1.73848e-05
1.73837e-05
1.7778e-05
1.73849e-05
1.73839e-05
1.75063e-05
1.72175e-05
1.7779e-05
1.73848e-05
1.73848e-05
1.72173e-05
1.72004e-05
1.7026e-05
1.72647e-05
1.72646e-05
1.69409e-05
1.69409e-05
1.72005e-05
1.70261e-05
1.72655e-05
1.72645e-05
1.69417e-05
1.69408e-05
1.72646e-05
1.69418e-05
1.69409e-05
1.72002e-05
1.70259e-05
1.72656e-05
1.69417e-05
1.69418e-05
1.70257e-05
1.70227e-05
1.69725e-05
1.68457e-05
1.68457e-05
1.65922e-05
1.65923e-05
1.70228e-05
1.69726e-05
1.68465e-05
1.68456e-05
1.65929e-05
1.65921e-05
1.68457e-05
1.65929e-05
1.65922e-05
1.70225e-05
1.69724e-05
1.68466e-05
1.65929e-05
1.6593e-05
1.69724e-05
1.69819e-05
1.70434e-05
1.65206e-05
1.65207e-05
1.6337e-05
1.63371e-05
1.6982e-05
1.70435e-05
1.65213e-05
1.65206e-05
1.63376e-05
1.63371e-05
1.65207e-05
1.63376e-05
1.63371e-05
1.69818e-05
1.70434e-05
1.65214e-05
1.63376e-05
1.63378e-05
1.70434e-05
1.70789e-05
1.72435e-05
1.62892e-05
1.62893e-05
1.61752e-05
1.61755e-05
1.70791e-05
1.72437e-05
1.62898e-05
1.62892e-05
1.61758e-05
1.61754e-05
1.62892e-05
1.61757e-05
1.61754e-05
1.70788e-05
1.72436e-05
1.62899e-05
1.61757e-05
1.6176e-05
1.72437e-05
1.73038e-05
1.7572e-05
1.61514e-05
1.61517e-05
1.61075e-05
1.61078e-05
1.73039e-05
1.75722e-05
1.6152e-05
1.61516e-05
1.61079e-05
1.61078e-05
1.61516e-05
1.61078e-05
1.61077e-05
1.73038e-05
1.75722e-05
1.61522e-05
1.61078e-05
1.61082e-05
1.75724e-05
1.76567e-05
1.80254e-05
1.61076e-05
1.6108e-05
1.61332e-05
1.61336e-05
1.7657e-05
1.80256e-05
1.6108e-05
1.6108e-05
1.61335e-05
1.61336e-05
1.61078e-05
1.61333e-05
1.61334e-05
1.76569e-05
1.80257e-05
1.61084e-05
1.61335e-05
1.61339e-05
1.8026e-05
1.81336e-05
1.85966e-05
1.61536e-05
1.61539e-05
1.62492e-05
1.62496e-05
1.8134e-05
1.85969e-05
1.61538e-05
1.61539e-05
1.62494e-05
1.62497e-05
1.61538e-05
1.62491e-05
1.62495e-05
1.8134e-05
1.85971e-05
1.61542e-05
1.62494e-05
1.62498e-05
1.85975e-05
1.87276e-05
1.92745e-05
1.62929e-05
1.62933e-05
1.64555e-05
1.6456e-05
1.8728e-05
1.92748e-05
1.62929e-05
1.62933e-05
1.64555e-05
1.64561e-05
1.62931e-05
1.64552e-05
1.64558e-05
1.87281e-05
1.92751e-05
1.62935e-05
1.64555e-05
1.64561e-05
1.92757e-05
1.94253e-05
2.00409e-05
1.65199e-05
1.65203e-05
1.6745e-05
1.67455e-05
1.94258e-05
2.00412e-05
1.65198e-05
1.65205e-05
1.67448e-05
1.67457e-05
1.65202e-05
1.67445e-05
1.67454e-05
1.94259e-05
2.00416e-05
1.65204e-05
1.67449e-05
1.67455e-05
2.00423e-05
2.02092e-05
2.08737e-05
1.68317e-05
1.68322e-05
1.7118e-05
1.71185e-05
2.02097e-05
2.08739e-05
1.68314e-05
1.68324e-05
1.71177e-05
1.71189e-05
1.68321e-05
1.71173e-05
1.71184e-05
2.02099e-05
2.08745e-05
1.68322e-05
1.71179e-05
1.71184e-05
2.08754e-05
2.10524e-05
2.17155e-05
1.72177e-05
1.72182e-05
1.75248e-05
1.75253e-05
2.10528e-05
2.17158e-05
1.72173e-05
1.72185e-05
1.75243e-05
1.75257e-05
1.72181e-05
1.75238e-05
1.75253e-05
2.10532e-05
2.17164e-05
1.7218e-05
1.75245e-05
1.75251e-05
2.17174e-05
2.18916e-05
2.24705e-05
1.76322e-05
1.76326e-05
1.79618e-05
1.79623e-05
2.18922e-05
2.24704e-05
1.76316e-05
1.7633e-05
1.7961e-05
1.79627e-05
1.76326e-05
1.79607e-05
1.79625e-05
2.18926e-05
2.24713e-05
1.76323e-05
1.79614e-05
1.7962e-05
2.24731e-05
2.26153e-05
2.29003e-05
1.80591e-05
1.80595e-05
1.82352e-05
1.82354e-05
2.26153e-05
2.29001e-05
1.80582e-05
1.80599e-05
1.82343e-05
1.82361e-05
1.80598e-05
1.82337e-05
1.82359e-05
2.26162e-05
2.29014e-05
1.80592e-05
1.82348e-05
1.82352e-05
2.29026e-05
2.29692e-05
2.29929e-05
1.82536e-05
1.82538e-05
1.82417e-05
1.82419e-05
2.29692e-05
2.2993e-05
1.82527e-05
1.82545e-05
1.82408e-05
1.82427e-05
1.82543e-05
1.82403e-05
1.82423e-05
2.29704e-05
2.29942e-05
1.82536e-05
1.82414e-05
1.82417e-05
2.29946e-05
2.30267e-05
2.29697e-05
1.82167e-05
1.82169e-05
1.81894e-05
1.81896e-05
2.30272e-05
2.29696e-05
1.82158e-05
1.82177e-05
1.81885e-05
1.81905e-05
1.82172e-05
1.81881e-05
1.81899e-05
2.30281e-05
2.29709e-05
1.82166e-05
1.8189e-05
1.81892e-05
2.29712e-05
2.30052e-05
2.29945e-05
1.81886e-05
1.81888e-05
1.81973e-05
1.81975e-05
2.30054e-05
2.29946e-05
1.81877e-05
1.81897e-05
1.81964e-05
1.81984e-05
1.81891e-05
1.81959e-05
1.81977e-05
2.30065e-05
2.29958e-05
1.81884e-05
1.81968e-05
1.8197e-05
2.29959e-05
2.30346e-05
2.30238e-05
1.82089e-05
1.82092e-05
1.82365e-05
1.82368e-05
2.30349e-05
2.3024e-05
1.8208e-05
1.821e-05
1.82356e-05
1.82376e-05
1.82093e-05
1.82351e-05
1.82369e-05
2.30359e-05
2.3025e-05
1.82086e-05
1.8236e-05
1.82362e-05
2.30252e-05
2.30617e-05
2.30417e-05
1.82429e-05
1.82432e-05
1.82553e-05
1.82556e-05
2.30621e-05
2.30419e-05
1.8242e-05
1.8244e-05
1.82544e-05
1.82564e-05
1.82433e-05
1.82539e-05
1.82558e-05
2.3063e-05
2.30429e-05
1.82426e-05
1.82548e-05
1.8255e-05
2.30431e-05
2.30779e-05
2.30448e-05
1.82576e-05
1.82578e-05
1.8261e-05
1.82613e-05
2.30784e-05
2.30448e-05
1.82566e-05
1.82586e-05
1.82601e-05
1.82621e-05
1.8258e-05
1.82596e-05
1.82615e-05
2.30792e-05
2.30459e-05
1.82573e-05
1.82606e-05
1.82607e-05
2.30462e-05
2.30796e-05
2.30438e-05
1.82616e-05
1.82618e-05
1.82626e-05
1.82629e-05
2.30799e-05
2.30439e-05
1.82607e-05
1.82626e-05
1.82617e-05
1.82637e-05
1.8262e-05
1.82611e-05
1.8263e-05
2.30808e-05
2.30449e-05
1.82613e-05
1.82621e-05
1.82623e-05
2.30451e-05
2.3079e-05
2.30454e-05
1.82627e-05
1.82629e-05
1.82628e-05
1.8263e-05
2.30793e-05
2.30455e-05
1.82618e-05
1.82637e-05
1.82618e-05
1.82638e-05
1.82631e-05
1.82612e-05
1.82631e-05
2.30802e-05
2.30465e-05
1.82623e-05
1.82622e-05
1.82624e-05
2.30468e-05
2.30804e-05
2.30445e-05
1.82628e-05
1.8263e-05
1.82628e-05
1.8263e-05
2.30807e-05
2.30446e-05
1.82618e-05
1.82637e-05
1.82619e-05
1.82638e-05
1.82631e-05
1.82612e-05
1.82632e-05
2.30815e-05
2.30456e-05
1.82624e-05
1.82622e-05
1.82624e-05
2.30459e-05
2.30799e-05
2.30442e-05
1.82628e-05
1.8263e-05
1.82629e-05
1.82631e-05
2.30802e-05
2.30442e-05
1.82619e-05
1.82638e-05
1.8262e-05
1.82639e-05
1.82632e-05
1.82613e-05
1.82632e-05
2.30811e-05
2.30453e-05
1.82624e-05
1.82623e-05
1.82625e-05
2.30455e-05
2.30792e-05
2.30456e-05
1.82629e-05
1.82631e-05
1.8263e-05
1.82632e-05
2.30795e-05
2.30456e-05
1.8262e-05
1.82639e-05
1.82621e-05
1.8264e-05
1.82632e-05
1.82614e-05
1.82633e-05
2.30804e-05
2.30467e-05
1.82625e-05
1.82624e-05
1.82626e-05
2.30469e-05
2.308e-05
2.30453e-05
1.8263e-05
1.82632e-05
1.82631e-05
1.82634e-05
2.30803e-05
2.30454e-05
1.82621e-05
1.8264e-05
1.82622e-05
1.82641e-05
1.82633e-05
1.82615e-05
1.82634e-05
2.30811e-05
2.30463e-05
1.82626e-05
1.82625e-05
1.82627e-05
2.30466e-05
2.30811e-05
2.30433e-05
1.82631e-05
1.82634e-05
1.82631e-05
1.82634e-05
2.30812e-05
2.30432e-05
1.82622e-05
1.82641e-05
1.82622e-05
1.82642e-05
1.82634e-05
1.82616e-05
1.82635e-05
2.3082e-05
2.30445e-05
1.82627e-05
1.82626e-05
1.82628e-05
2.30448e-05
2.30776e-05
2.30483e-05
1.82631e-05
1.82634e-05
1.82632e-05
1.82635e-05
2.30776e-05
2.30481e-05
1.82622e-05
1.82641e-05
1.82623e-05
1.82643e-05
1.82635e-05
1.82617e-05
1.82636e-05
2.30786e-05
2.30494e-05
1.82628e-05
1.82627e-05
1.82629e-05
2.30496e-05
2.30818e-05
2.30489e-05
1.82631e-05
1.82635e-05
1.82632e-05
1.82636e-05
2.30815e-05
2.30491e-05
1.82623e-05
1.82642e-05
1.82624e-05
1.82644e-05
1.82636e-05
1.82618e-05
1.82637e-05
2.3083e-05
2.30494e-05
1.82629e-05
1.82628e-05
1.8263e-05
2.30499e-05
2.30849e-05
2.30467e-05
1.82632e-05
1.82635e-05
1.82632e-05
1.82636e-05
2.30847e-05
2.30475e-05
1.82623e-05
1.82643e-05
1.82625e-05
1.82644e-05
1.82636e-05
1.82618e-05
1.82637e-05
2.30854e-05
2.30474e-05
1.82629e-05
1.82628e-05
1.8263e-05
2.30484e-05
2.30857e-05
2.30375e-05
1.82632e-05
1.82636e-05
1.8263e-05
1.82635e-05
2.30861e-05
2.30378e-05
1.82624e-05
1.82643e-05
1.82623e-05
1.82642e-05
1.82636e-05
1.82617e-05
1.82635e-05
2.30863e-05
2.30387e-05
1.8263e-05
1.82626e-05
1.82629e-05
2.30394e-05
2.30764e-05
2.30416e-05
1.82631e-05
1.82635e-05
1.8263e-05
1.82634e-05
2.30769e-05
2.30417e-05
1.82624e-05
1.82643e-05
1.82622e-05
1.82642e-05
1.82636e-05
1.82617e-05
1.82635e-05
2.30772e-05
2.30431e-05
1.8263e-05
1.82626e-05
1.82628e-05
2.30427e-05
2.30739e-05
2.3052e-05
1.8263e-05
1.82634e-05
1.82632e-05
1.82636e-05
2.3074e-05
2.30522e-05
1.82622e-05
1.82641e-05
1.82624e-05
1.82644e-05
1.82635e-05
1.82619e-05
1.82637e-05
2.30752e-05
2.30533e-05
1.82628e-05
1.82628e-05
1.8263e-05
2.30533e-05
2.30839e-05
2.30507e-05
1.8263e-05
1.82633e-05
1.82633e-05
1.82635e-05
2.30841e-05
2.30508e-05
1.82622e-05
1.82642e-05
1.82624e-05
1.82644e-05
1.82635e-05
1.82619e-05
1.82637e-05
2.30852e-05
2.30518e-05
1.82628e-05
1.82628e-05
1.8263e-05
2.30521e-05
2.30877e-05
2.3043e-05
1.82632e-05
1.82634e-05
1.82632e-05
1.82634e-05
2.30878e-05
2.30432e-05
1.82623e-05
1.82643e-05
1.82623e-05
1.82643e-05
1.82636e-05
1.82618e-05
1.82636e-05
2.30887e-05
2.30442e-05
1.8263e-05
1.82627e-05
1.82629e-05
2.30454e-05
2.30839e-05
2.30376e-05
1.82632e-05
1.82634e-05
1.82631e-05
1.82633e-05
2.30841e-05
2.30377e-05
1.82623e-05
1.82643e-05
1.82622e-05
1.82642e-05
1.82636e-05
1.82617e-05
1.82636e-05
2.30849e-05
2.30389e-05
1.8263e-05
1.82626e-05
1.82629e-05
2.30395e-05
2.30762e-05
2.30391e-05
1.82631e-05
1.82633e-05
1.82631e-05
1.82632e-05
2.30765e-05
2.3039e-05
1.82622e-05
1.82643e-05
1.82622e-05
1.82642e-05
1.82636e-05
1.82617e-05
1.82635e-05
2.30774e-05
2.30405e-05
1.82629e-05
1.82626e-05
1.82628e-05
2.30403e-05
2.30728e-05
2.30433e-05
1.82631e-05
1.82632e-05
1.82631e-05
1.82632e-05
2.30729e-05
2.30431e-05
1.82622e-05
1.82642e-05
1.82622e-05
1.82642e-05
1.82635e-05
1.82618e-05
1.82636e-05
2.30741e-05
2.30447e-05
1.82628e-05
1.82626e-05
1.82629e-05
2.30443e-05
2.3075e-05
2.30493e-05
1.82631e-05
1.82631e-05
1.82632e-05
1.82632e-05
2.30749e-05
2.30492e-05
1.82621e-05
1.82642e-05
1.82623e-05
1.82643e-05
1.82635e-05
1.82618e-05
1.82636e-05
2.30763e-05
2.30506e-05
1.82628e-05
1.82627e-05
1.82629e-05
2.30508e-05
2.308e-05
2.3052e-05
1.82631e-05
1.82631e-05
1.82633e-05
1.82632e-05
2.30799e-05
2.3052e-05
1.82621e-05
1.82642e-05
1.82623e-05
1.82644e-05
1.82635e-05
1.82619e-05
1.82637e-05
2.30813e-05
2.30533e-05
1.82628e-05
1.82627e-05
1.8263e-05
2.30538e-05
2.30855e-05
2.30504e-05
1.82632e-05
1.8263e-05
1.82634e-05
1.82632e-05
2.30854e-05
2.30503e-05
1.82621e-05
1.82642e-05
1.82623e-05
1.82644e-05
1.82636e-05
1.82619e-05
1.82637e-05
2.30867e-05
2.30517e-05
1.82629e-05
1.82627e-05
1.8263e-05
2.305e-05
2.30871e-05
2.30465e-05
1.82633e-05
1.82631e-05
1.82633e-05
1.82631e-05
2.30871e-05
2.30457e-05
1.82622e-05
1.82643e-05
1.82622e-05
1.82643e-05
1.82637e-05
1.82619e-05
1.82636e-05
2.30883e-05
2.30473e-05
1.8263e-05
1.82627e-05
1.82629e-05
2.30419e-05
2.30856e-05
2.30424e-05
1.82633e-05
1.8263e-05
1.82633e-05
1.8263e-05
2.30852e-05
2.30406e-05
1.82622e-05
1.82643e-05
1.82622e-05
1.82643e-05
1.82637e-05
1.82618e-05
1.82636e-05
2.30867e-05
2.3042e-05
1.8263e-05
1.82626e-05
1.82629e-05
2.30395e-05
2.30833e-05
2.30394e-05
1.82633e-05
1.8263e-05
1.82633e-05
1.82629e-05
2.30817e-05
2.30382e-05
1.82622e-05
1.82643e-05
1.82622e-05
1.82643e-05
1.82636e-05
1.82618e-05
1.82636e-05
2.3083e-05
2.30394e-05
1.82629e-05
1.82626e-05
1.82629e-05
2.30458e-05
2.308e-05
2.30381e-05
1.82633e-05
1.82629e-05
1.82633e-05
1.82629e-05
2.3077e-05
2.30385e-05
1.82622e-05
1.82643e-05
1.82621e-05
1.82643e-05
1.82636e-05
1.82618e-05
1.82638e-05
2.30775e-05
2.30406e-05
1.82629e-05
1.82626e-05
1.8263e-05
2.30531e-05
2.30758e-05
2.30393e-05
1.82633e-05
1.82629e-05
1.82633e-05
1.82629e-05
2.30733e-05
2.30423e-05
1.82621e-05
1.82642e-05
1.82621e-05
1.82643e-05
1.82637e-05
1.82618e-05
1.82637e-05
2.30744e-05
2.30458e-05
1.82629e-05
1.82626e-05
1.8263e-05
2.30494e-05
2.30732e-05
2.30429e-05
1.82633e-05
1.82629e-05
1.82633e-05
1.8263e-05
2.30745e-05
2.30496e-05
1.82621e-05
1.82642e-05
1.82621e-05
1.82644e-05
1.82637e-05
1.82619e-05
1.82637e-05
2.30773e-05
2.3052e-05
1.82629e-05
1.82627e-05
1.8263e-05
2.30464e-05
2.3075e-05
2.30478e-05
1.82633e-05
1.82628e-05
1.82634e-05
1.8263e-05
2.30812e-05
2.30504e-05
1.82621e-05
1.82643e-05
1.82622e-05
1.82644e-05
1.82637e-05
1.82619e-05
1.82637e-05
2.30839e-05
2.30518e-05
1.82629e-05
1.82627e-05
1.8263e-05
2.30433e-05
2.30788e-05
2.30504e-05
1.82633e-05
1.82629e-05
1.82634e-05
1.82629e-05
2.30854e-05
2.30484e-05
1.82621e-05
1.82643e-05
1.82622e-05
1.82644e-05
1.82637e-05
1.82619e-05
1.82637e-05
2.30867e-05
2.30506e-05
1.8263e-05
1.82627e-05
1.8263e-05
2.30411e-05
2.30822e-05
2.3051e-05
1.82633e-05
1.82629e-05
1.82634e-05
1.82629e-05
2.30853e-05
2.30472e-05
1.82621e-05
1.82643e-05
1.82622e-05
1.82644e-05
1.82637e-05
1.82619e-05
1.82637e-05
2.30867e-05
2.30504e-05
1.8263e-05
1.82627e-05
1.8263e-05
2.30407e-05
2.30845e-05
2.30508e-05
1.82633e-05
1.82629e-05
1.82634e-05
1.82629e-05
2.30847e-05
2.30474e-05
1.82621e-05
1.82643e-05
1.82622e-05
1.82644e-05
1.82637e-05
1.82619e-05
1.82637e-05
2.30867e-05
2.30506e-05
1.8263e-05
1.82627e-05
1.8263e-05
2.30411e-05
2.30858e-05
2.30497e-05
1.82633e-05
1.82628e-05
1.82634e-05
1.82629e-05
2.30846e-05
2.30486e-05
1.82621e-05
1.82643e-05
1.82622e-05
1.82644e-05
1.82637e-05
1.82619e-05
1.82637e-05
2.30869e-05
2.30502e-05
1.8263e-05
1.82627e-05
1.8263e-05
2.3042e-05
2.30864e-05
2.30468e-05
1.82633e-05
1.82628e-05
1.82634e-05
1.82629e-05
2.30849e-05
2.30491e-05
1.82621e-05
1.82643e-05
1.82622e-05
1.82644e-05
1.82637e-05
1.82618e-05
1.82637e-05
2.3087e-05
2.30496e-05
1.8263e-05
1.82627e-05
1.8263e-05
2.30431e-05
2.30853e-05
2.30429e-05
1.82634e-05
1.82628e-05
1.82634e-05
1.82629e-05
2.30853e-05
2.30487e-05
1.82621e-05
1.82643e-05
1.82622e-05
1.82644e-05
1.82637e-05
1.82618e-05
1.82637e-05
2.30868e-05
2.30494e-05
1.8263e-05
1.82627e-05
1.8263e-05
2.30439e-05
2.30824e-05
2.3043e-05
1.82634e-05
1.82628e-05
1.82634e-05
1.82628e-05
2.30854e-05
2.30478e-05
1.82621e-05
1.82643e-05
1.82622e-05
1.82644e-05
1.82637e-05
1.82618e-05
1.82637e-05
2.30867e-05
2.30495e-05
1.8263e-05
1.82627e-05
1.8263e-05
2.30433e-05
2.30815e-05
2.30478e-05
1.82634e-05
1.82628e-05
1.82634e-05
1.82628e-05
2.30851e-05
2.30467e-05
1.82621e-05
1.82643e-05
1.82622e-05
1.82644e-05
1.82637e-05
1.82618e-05
1.82637e-05
2.30868e-05
2.30493e-05
1.8263e-05
1.82627e-05
1.8263e-05
2.30424e-05
2.30841e-05
2.30504e-05
1.82633e-05
1.82628e-05
1.82634e-05
1.82628e-05
2.30845e-05
2.30464e-05
1.82621e-05
1.82643e-05
1.82622e-05
1.82644e-05
1.82637e-05
1.82618e-05
1.82637e-05
2.30867e-05
2.30489e-05
1.8263e-05
1.82627e-05
1.8263e-05
2.30426e-05
2.30844e-05
2.3051e-05
1.82633e-05
1.82627e-05
1.82634e-05
1.82628e-05
2.30838e-05
2.30482e-05
1.82621e-05
1.82643e-05
1.82622e-05
1.82644e-05
1.82637e-05
1.82617e-05
1.82637e-05
2.30865e-05
2.3049e-05
1.8263e-05
1.82627e-05
1.8263e-05
2.30434e-05
2.30853e-05
2.30505e-05
1.82633e-05
1.82627e-05
1.82634e-05
1.82627e-05
2.30836e-05
2.30497e-05
1.82621e-05
1.82643e-05
1.82622e-05
1.82644e-05
1.82637e-05
1.82617e-05
1.82637e-05
2.30865e-05
2.30494e-05
1.8263e-05
1.82627e-05
1.8263e-05
2.30439e-05
2.30863e-05
2.30485e-05
1.82633e-05
1.82627e-05
1.82634e-05
1.82627e-05
2.30829e-05
2.30502e-05
1.82621e-05
1.82643e-05
1.82622e-05
1.82644e-05
1.82637e-05
1.82617e-05
1.82637e-05
2.30867e-05
2.30492e-05
1.8263e-05
1.82627e-05
1.8263e-05
2.30438e-05
2.30858e-05
2.3047e-05
1.82634e-05
1.82626e-05
1.82634e-05
1.82628e-05
2.30829e-05
2.30505e-05
1.82621e-05
1.82643e-05
1.82622e-05
1.82644e-05
1.82637e-05
1.82617e-05
1.82637e-05
2.30868e-05
2.30485e-05
1.8263e-05
1.82627e-05
1.8263e-05
2.30441e-05
2.30848e-05
2.30476e-05
1.82634e-05
1.82626e-05
1.82634e-05
1.82628e-05
2.30839e-05
2.30504e-05
1.82622e-05
1.82643e-05
1.82622e-05
1.82644e-05
1.82637e-05
1.82617e-05
1.82637e-05
2.30864e-05
2.30482e-05
1.8263e-05
1.82627e-05
1.8263e-05
2.30453e-05
2.3085e-05
2.30487e-05
1.82634e-05
1.82627e-05
1.82634e-05
1.82628e-05
2.30849e-05
2.30499e-05
1.82621e-05
1.82643e-05
1.82622e-05
1.82644e-05
1.82637e-05
1.82617e-05
1.82637e-05
2.3086e-05
2.30491e-05
1.8263e-05
1.82627e-05
1.8263e-05
2.30459e-05
2.30857e-05
2.30485e-05
1.82634e-05
1.82627e-05
1.82634e-05
1.82627e-05
2.30854e-05
2.30492e-05
1.82621e-05
1.82643e-05
1.82622e-05
1.82644e-05
1.82637e-05
1.82617e-05
1.82637e-05
2.30863e-05
2.30502e-05
1.8263e-05
1.82627e-05
1.8263e-05
2.3045e-05
2.30857e-05
2.30476e-05
1.82634e-05
1.82627e-05
1.82634e-05
1.82627e-05
2.30854e-05
2.30485e-05
1.82622e-05
1.82643e-05
1.82622e-05
1.82643e-05
1.82637e-05
1.82616e-05
1.82637e-05
2.30868e-05
2.30505e-05
1.8263e-05
1.82627e-05
1.8263e-05
2.30443e-05
2.30852e-05
2.30475e-05
1.82634e-05
1.82627e-05
1.82633e-05
1.82627e-05
2.30852e-05
2.30485e-05
1.82622e-05
1.82643e-05
1.82621e-05
1.82643e-05
1.82637e-05
1.82616e-05
1.82637e-05
2.30871e-05
2.30498e-05
1.8263e-05
1.82627e-05
1.8263e-05
2.30445e-05
2.3085e-05
2.30484e-05
1.82634e-05
1.82627e-05
1.82633e-05
1.82627e-05
2.30852e-05
2.30487e-05
1.82621e-05
1.82643e-05
1.82621e-05
1.82643e-05
1.82637e-05
1.82616e-05
1.82636e-05
2.30869e-05
2.3049e-05
1.8263e-05
1.82626e-05
1.8263e-05
2.30446e-05
2.30855e-05
2.30485e-05
1.82633e-05
1.82627e-05
1.82633e-05
1.82626e-05
2.30854e-05
2.30484e-05
1.82621e-05
1.82643e-05
1.82621e-05
1.82642e-05
1.82636e-05
1.82615e-05
1.82636e-05
2.30866e-05
2.30488e-05
1.8263e-05
1.82626e-05
1.8263e-05
2.30443e-05
2.30857e-05
2.30476e-05
1.82633e-05
1.82627e-05
1.82632e-05
1.82626e-05
2.30854e-05
2.30478e-05
1.82621e-05
1.82643e-05
1.8262e-05
1.82642e-05
1.82636e-05
1.82615e-05
1.82635e-05
2.30864e-05
2.3049e-05
1.8263e-05
1.82626e-05
1.82629e-05
2.30441e-05
2.30853e-05
2.30469e-05
1.82633e-05
1.82626e-05
1.82631e-05
1.82625e-05
2.30852e-05
2.30474e-05
1.82621e-05
1.82642e-05
1.82619e-05
1.82641e-05
1.82636e-05
1.82614e-05
1.82634e-05
2.30865e-05
2.30493e-05
1.8263e-05
1.82625e-05
1.82629e-05
2.30446e-05
2.30848e-05
2.30473e-05
1.82633e-05
1.82626e-05
1.82631e-05
1.82624e-05
2.3085e-05
2.30474e-05
1.82621e-05
1.82642e-05
1.82619e-05
1.8264e-05
1.82636e-05
1.82614e-05
1.82633e-05
2.30866e-05
2.30494e-05
1.8263e-05
1.82625e-05
1.82628e-05
2.30462e-05
2.3085e-05
2.30482e-05
1.82633e-05
1.82627e-05
1.8263e-05
1.82624e-05
2.3085e-05
2.30473e-05
1.82621e-05
1.82643e-05
1.82618e-05
1.8264e-05
1.82636e-05
1.82613e-05
1.82633e-05
2.30867e-05
2.30495e-05
1.82631e-05
1.82624e-05
1.82628e-05
2.30484e-05
2.30853e-05
2.30487e-05
1.82634e-05
1.82627e-05
1.82629e-05
1.82623e-05
2.30851e-05
2.30471e-05
1.82622e-05
1.82643e-05
1.82617e-05
1.82639e-05
1.82636e-05
1.82613e-05
1.82632e-05
2.30868e-05
2.30495e-05
1.82631e-05
1.82624e-05
1.82627e-05
2.30476e-05
2.30855e-05
2.3049e-05
1.82635e-05
1.82629e-05
1.82629e-05
1.82623e-05
2.30851e-05
2.30466e-05
1.82623e-05
1.82645e-05
1.82617e-05
1.82638e-05
1.82638e-05
1.82612e-05
1.82632e-05
2.30869e-05
2.30493e-05
1.82633e-05
1.82624e-05
1.82627e-05
2.30433e-05
2.30857e-05
2.30495e-05
1.82637e-05
1.82631e-05
1.82629e-05
1.82622e-05
2.3085e-05
2.3046e-05
1.82625e-05
1.82647e-05
1.82617e-05
1.82638e-05
1.8264e-05
1.82612e-05
1.82631e-05
2.30869e-05
2.3049e-05
1.82635e-05
1.82624e-05
1.82627e-05
2.30414e-05
2.30862e-05
2.30493e-05
1.8264e-05
1.82634e-05
1.82629e-05
1.82623e-05
2.30848e-05
2.30457e-05
1.82628e-05
1.8265e-05
1.82617e-05
1.82639e-05
1.82643e-05
1.82613e-05
1.82632e-05
2.3087e-05
2.30487e-05
1.82638e-05
1.82624e-05
1.82627e-05
2.30418e-05
2.30866e-05
2.30485e-05
1.82645e-05
1.82638e-05
1.8263e-05
1.82623e-05
2.30847e-05
2.30466e-05
1.82633e-05
1.82655e-05
1.82618e-05
1.8264e-05
1.82648e-05
1.82614e-05
1.82632e-05
2.3087e-05
2.30487e-05
1.82643e-05
1.82625e-05
1.82628e-05
2.3044e-05
2.30864e-05
2.30487e-05
1.82651e-05
1.82645e-05
1.82631e-05
1.82625e-05
2.30854e-05
2.30475e-05
1.82639e-05
1.82661e-05
1.82619e-05
1.82641e-05
1.82654e-05
1.82615e-05
1.82633e-05
2.30871e-05
2.30497e-05
1.82649e-05
1.82626e-05
1.82629e-05
2.3048e-05
2.30865e-05
2.30475e-05
1.82659e-05
1.82652e-05
1.82579e-05
1.82572e-05
2.30863e-05
2.30432e-05
1.82647e-05
1.82668e-05
1.82567e-05
1.82588e-05
1.8266e-05
1.82563e-05
1.8258e-05
2.30878e-05
2.30477e-05
1.82655e-05
1.82573e-05
1.82575e-05
2.30454e-05
2.30829e-05
2.27279e-05
1.82631e-05
1.82625e-05
1.79627e-05
1.79615e-05
2.30811e-05
2.2727e-05
1.82619e-05
1.8264e-05
1.79623e-05
1.79624e-05
1.82632e-05
1.7962e-05
1.79618e-05
2.30841e-05
2.27287e-05
1.82627e-05
1.79626e-05
1.79621e-05
2.27257e-05
2.23347e-05
1.76039e-05
1.76028e-05
2.23353e-05
1.76039e-05
1.76036e-05
1.29549e-05
1.29552e-05
1.29551e-05
1.7603e-05
2.23359e-05
1.76037e-05
3.73773e-05
3.73765e-05
3.7377e-05
3.7377e-05
3.73701e-05
3.73777e-05
3.73043e-05
3.73768e-05
3.73702e-05
3.73777e-05
3.73768e-05
3.73043e-05
3.73741e-05
3.72959e-05
3.72959e-05
3.58806e-05
4.08716e-05
3.66032e-05
4.5145e-05
5.51149e-05
6.48943e-05
3.58804e-05
4.08727e-05
3.66032e-05
4.51452e-05
3.58932e-05
3.58932e-05
3.58932e-05
3.44005e-05
3.44005e-05
3.44005e-05
3.44005e-05
3.52758e-05
3.56379e-05
3.58929e-05
3.53771e-05
3.60475e-05
3.42379e-05
3.53822e-05
5.51167e-05
6.48966e-05
3.52759e-05
3.58929e-05
3.56376e-05
3.53771e-05
3.60475e-05
3.53822e-05
3.42376e-05
3.65964e-05
3.65972e-05
3.5279e-05
3.40649e-05
3.40638e-05
3.39677e-05
5.13527e-05
3.46789e-05
5.46239e-05
7.6546e-05
8.08609e-05
3.39675e-05
5.13538e-05
3.46791e-05
5.46248e-05
3.39296e-05
3.39296e-05
3.39297e-05
3.25854e-05
3.25854e-05
3.25855e-05
3.25855e-05
3.30543e-05