/*--------------------------------*- C++ -*----------------------------------*\
| =========                 |                                                 |
| \\      /  F ield         | OpenFOAM: The Open Source CFD Toolbox           |
|  \\    /   O peration     | Version:  v2012                                 |
|   \\  /    A nd           | Website:  www.openfoam.com                      |
|    \\/     M anipulation  |                                                 |
\*---------------------------------------------------------------------------*/
FoamFile
{
    version     2.0;
    format      ascii;
    class       volScalarField;
    location    "125";
    object      nut;
}
// * * * * * * * * * * * * * * * * * * * * * * * * * * * * * * * * * * * * * //

dimensions      [0 2 -1 0 0 0 0];


internalField   nonuniform List<scalar> 
171728
(
0.000233973
0.000233116
0.000233116
0.000233423
0.000232532
0.000227802
0.000227801
0.000223866
0.000230516
0.000220319
0.000220318
0.000209109
0.000227799
0.000211664
0.000211662
0.000193783
0.000224433
0.000202648
0.000202645
0.000179707
0.000220552
0.00019377
0.000193767
0.000167336
0.000216305
0.000185273
0.00018527
0.000156583
0.000211821
0.000177231
0.000177228
0.000147202
0.000207208
0.000169686
0.000169683
0.000138946
0.000202546
0.000162609
0.000162605
0.00013161
0.00019789
0.000155946
0.000155942
0.000124948
0.000193276
0.000149644
0.00014964
0.000118811
0.000188684
0.000143663
0.000143658
0.000113163
0.000184151
0.000137949
0.000137943
0.000107927
0.000179706
0.00013246
0.000132453
0.000103051
0.000175341
0.000127187
0.000127183
9.84311e-05
0.000171036
0.000122145
0.000122142
9.42467e-05
0.000166788
0.000117368
0.000117365
9.06569e-05
0.000162589
0.000112882
0.000112881
8.77279e-05
0.000158414
0.000108749
0.000108749
8.53805e-05
0.000154268
0.000105021
0.000105021
8.36647e-05
0.000150144
0.000101712
0.000101713
8.25816e-05
0.000146075
9.89024e-05
9.89034e-05
8.21006e-05
0.000142072
9.66166e-05
9.66182e-05
8.21901e-05
0.000138181
9.49279e-05
9.49301e-05
8.28254e-05
0.000134806
9.40238e-05
9.40263e-05
8.40732e-05
0.000131505
9.37938e-05
9.37966e-05
8.60193e-05
0.000129977
9.50876e-05
9.50906e-05
8.8602e-05
0.000129243
9.61732e-05
9.61774e-05
9.02446e-05
0.000126928
9.57842e-05
9.57888e-05
9.05489e-05
0.000125037
9.54173e-05
9.54218e-05
9.04052e-05
0.000124512
9.5448e-05
9.54519e-05
9.05408e-05
0.000124555
9.56941e-05
9.56983e-05
9.06901e-05
0.000124674
9.58076e-05
9.5812e-05
9.07879e-05
0.000124719
9.58421e-05
9.58467e-05
9.08032e-05
0.000124732
9.58507e-05
9.58554e-05
9.07961e-05
0.000124734
9.58502e-05
9.58549e-05
9.08064e-05
0.000124735
9.585e-05
9.58547e-05
9.0802e-05
0.000124736
9.58506e-05
9.58552e-05
9.07952e-05
0.000124738
9.58511e-05
9.58558e-05
9.08047e-05
0.000124739
9.58521e-05
9.58567e-05
9.08072e-05
0.00012474
9.58521e-05
9.58568e-05
9.07826e-05
0.000124741
9.58529e-05
9.58577e-05
9.08172e-05
0.000124742
9.58529e-05
9.58576e-05
9.08392e-05
0.000124742
9.58541e-05
9.58584e-05
9.08499e-05
0.000124743
9.58537e-05
9.58576e-05
9.07654e-05
0.000124743
9.58519e-05
9.58558e-05
9.07403e-05
0.000124743
9.58525e-05
9.58563e-05
9.08489e-05
0.000124743
9.58544e-05
9.58581e-05
9.08926e-05
0.000124743
9.58549e-05
9.58584e-05
9.08553e-05
0.000124743
9.58542e-05
9.58576e-05
9.07723e-05
0.000124743
9.58533e-05
9.58566e-05
9.07186e-05
0.000124744
9.58528e-05
9.58561e-05
9.07339e-05
0.000124744
9.58527e-05
9.5856e-05
9.0798e-05
0.000124744
9.58534e-05
9.58564e-05
9.08776e-05
0.000124744
9.5854e-05
9.58574e-05
9.08821e-05
0.000124744
9.58545e-05
9.5858e-05
9.08154e-05
0.000124744
9.58542e-05
9.5858e-05
9.07425e-05
0.000124744
9.58537e-05
9.58577e-05
9.07763e-05
0.000124744
9.58531e-05
9.58571e-05
9.08546e-05
0.000124744
9.58526e-05
9.58569e-05
9.08539e-05
0.000124744
9.58526e-05
9.58574e-05
9.08417e-05
0.000124744
9.5853e-05
9.58578e-05
9.08195e-05
0.000124744
9.58531e-05
9.58577e-05
9.07912e-05
0.000124744
9.5853e-05
9.58575e-05
9.07693e-05
0.000124744
9.58526e-05
9.58575e-05
9.07595e-05
0.000124744
9.58523e-05
9.58576e-05
9.07576e-05
0.000124744
9.58523e-05
9.58577e-05
9.07628e-05
0.000124744
9.58524e-05
9.58577e-05
9.07684e-05
0.000124744
9.58526e-05
9.58578e-05
9.07652e-05
0.000124744
9.58525e-05
9.5858e-05
9.07593e-05
0.000124744
9.58521e-05
9.5858e-05
9.07582e-05
0.000124744
9.58514e-05
9.58579e-05
9.07624e-05
0.000124744
9.58509e-05
9.5858e-05
9.07652e-05
0.000124744
9.58507e-05
9.58583e-05
9.07638e-05
0.000124744
9.58508e-05
9.58583e-05
9.07654e-05
0.000124744
9.5851e-05
9.58582e-05
9.07734e-05
0.000124744
9.58511e-05
9.58578e-05
9.07777e-05
0.000124744
9.58512e-05
9.58577e-05
9.07722e-05
0.000124744
9.58511e-05
9.58578e-05
9.0768e-05
0.000124745
9.58509e-05
9.58577e-05
9.07693e-05
0.000124745
9.58509e-05
9.58577e-05
9.07704e-05
0.000124745
9.58511e-05
9.58579e-05
9.07681e-05
0.000124745
9.58515e-05
9.58584e-05
9.07663e-05
0.000124745
9.58522e-05
9.58591e-05
9.07689e-05
0.000124745
9.58531e-05
9.58602e-05
9.0779e-05
0.000124745
9.58545e-05
9.58616e-05
9.07957e-05
0.000124746
9.58567e-05
9.58639e-05
9.0796e-05
0.000124747
9.58603e-05
9.58674e-05
9.07716e-05
0.000124748
9.5866e-05
9.58732e-05
9.07612e-05
0.000124749
9.58753e-05
9.58825e-05
9.07568e-05
0.000124752
9.58908e-05
9.58981e-05
9.07703e-05
0.000124759
9.59173e-05
9.59243e-05
9.08004e-05
0.000124794
9.59137e-05
9.59202e-05
9.08136e-05
0.000127517
9.65171e-05
9.65234e-05
9.08815e-05
0.000234267
0.000234448
0.000234449
0.000234267
0.000234448
0.000234449
0.000234274
0.000234274
0.000234274
0.000234274
0.000234448
0.000234448
0.000234266
0.000234448
0.000234448
0.000234266
0.000233423
0.000226205
0.000233116
0.000233114
0.000229361
0.000229357
0.000233422
0.000226205
0.000233114
0.000233114
0.000229359
0.000229356
0.000233116
0.000229364
0.00022936
0.000233423
0.000226203
0.000233114
0.000229363
0.000229359
0.000226201
0.000223867
0.000212232
0.000227799
0.000227794
0.000222332
0.000222326
0.000223867
0.000212233
0.000227797
0.000227793
0.000222333
0.000222325
0.000227797
0.000222337
0.000222329
0.000223866
0.000212229
0.000227796
0.000222336
0.000222331
0.000212225
0.000209113
0.000197064
0.000220313
0.000220307
0.00021388
0.000213873
0.00020911
0.000197064
0.000220314
0.000220305
0.000213885
0.000213871
0.00022031
0.000213889
0.000213876
0.00020911
0.00019706
0.000220312
0.000213886
0.000213881
0.000197054
0.000193791
0.00018288
0.000211654
0.000211647
0.00020489
0.000204883
0.000193789
0.00018288
0.00021166
0.000211645
0.000204899
0.000204881
0.00021165
0.000204903
0.000204885
0.000193787
0.000182875
0.000211656
0.0002049
0.000204895
0.000182868
0.000179716
0.000170272
0.000202634
0.000202627
0.000195943
0.000195936
0.000179714
0.000170271
0.000202644
0.000202624
0.000195956
0.000195933
0.000202629
0.000195959
0.000195938
0.000179711
0.000170266
0.00020264
0.000195957
0.000195951
0.000170259
0.000167347
0.000159246
0.000193753
0.000193746
0.000187337
0.00018733
0.000167346
0.000159246
0.000193767
0.000193743
0.000187354
0.000187327
0.000193747
0.000187356
0.000187331
0.000167342
0.000159241
0.000193762
0.000187353
0.000187348
0.000159233
0.000156595
0.000149617
0.000185253
0.000185246
0.000179173
0.000179166
0.000156594
0.000149616
0.00018527
0.000185242
0.000179193
0.000179163
0.000185247
0.000179195
0.000179168
0.00015659
0.000149611
0.000185265
0.000179192
0.000179188
0.000149603
0.000147215
0.000141111
0.000177208
0.000177201
0.000171501
0.000171494
0.000147213
0.00014111
0.000177229
0.000177198
0.000171524
0.000171491
0.000177203
0.000171526
0.000171496
0.00014721
0.000141105
0.000177223
0.000171523
0.000171519
0.000141095
0.000138959
0.000133551
0.00016966
0.000169653
0.00016431
0.000164303
0.000138958
0.00013355
0.000169684
0.00016965
0.000164336
0.0001643
0.000169655
0.000164337
0.000164304
0.000138954
0.000133545
0.000169678
0.000164334
0.00016433
0.000133535
0.000131624
0.000126689
0.00016258
0.000162573
0.000157547
0.00015754
0.000131623
0.000126689
0.000162607
0.00016257
0.000157576
0.000157537
0.000162575
0.000157577
0.000157542
0.000131619
0.000126683
0.000162602
0.000157574
0.000157571
0.000126672
0.000124963
0.000120366
0.000155916
0.000155909
0.000151158
0.000151151
0.000124962
0.000120365
0.000155945
0.000155906
0.000151189
0.000151149
0.000155911
0.000151189
0.000151154
0.000124958
0.000120359
0.00015594
0.000151186
0.000151184
0.000120348
0.000118825
0.00011443
0.000149611
0.000149605
0.000145097
0.00014509
0.000118824
0.000114429
0.000149642
0.000149601
0.000145129
0.000145087
0.000149607
0.000145129
0.000145093
0.000118819
0.000114424
0.000149637
0.000145126
0.000145124
0.000114412
0.000113177
0.00010884
0.000143628
0.000143622
0.00013932
0.000139314
0.000113176
0.000108839
0.000143661
0.000143618
0.000139353
0.000139311
0.000143624
0.000139353
0.000139316
0.000113172
0.000108834
0.000143656
0.000139351
0.000139349
0.000108822
0.000107942
0.000103706
0.000137913
0.000137906
0.000133779
0.000133772
0.00010794
0.000103705
0.000137946
0.000137903
0.000133812
0.000133769
0.000137909
0.000133812
0.000133775
0.000107936
0.000103701
0.000137942
0.00013381
0.000133808
0.000103689
0.000103066
9.9131e-05
0.000132422
0.000132415
0.000128449
0.00012844
0.000103064
9.9129e-05
0.000132456
0.000132412
0.000128482
0.000128437
0.000132418
0.000128482
0.000128444
0.000103061
9.91253e-05
0.000132452
0.00012848
0.000128478
9.91148e-05
9.84457e-05
9.49923e-05
0.000127152
0.000127143
0.000123345
0.000123335
9.84437e-05
9.49903e-05
0.000127184
0.00012714
0.000123377
0.000123332
0.000127147
0.000123379
0.00012334
9.84408e-05
9.4987e-05
0.00012718
0.000123377
0.000123373
9.49772e-05
9.42604e-05
9.14388e-05
0.000122112
0.000122102
0.000118481
0.000118471
9.42584e-05
9.14367e-05
0.000122143
0.000122099
0.000118512
0.000118468
0.000122106
0.000118514
0.000118476
9.42558e-05
9.14339e-05
0.000122139
0.000118512
0.000118508
9.14243e-05
9.06681e-05
8.83806e-05
0.000117335
0.000117323
0.000113927
0.000113916
9.06659e-05
8.83785e-05
0.000117365
0.00011732
0.000113956
0.000113912
0.000117329
0.000113959
0.000113921
9.0665e-05
8.83762e-05
0.00011736
0.000113958
0.000113952
8.83672e-05
8.77392e-05
8.59122e-05
0.000112851
0.000112838
0.000109695
0.000109682
8.77371e-05
8.59099e-05
0.000112879
0.000112835
0.000109722
0.00010968
0.000112844
0.000109724
0.000109689
8.77359e-05
8.59081e-05
0.000112875
0.000109725
0.000109719
8.58996e-05
8.53916e-05
8.4073e-05
0.000108719
0.000108706
0.000105854
0.000105841
8.53893e-05
8.40708e-05
0.000108747
0.000108704
0.000105881
0.000105839
0.000108713
0.000105883
0.000105848
8.5388e-05
8.40692e-05
0.000108743
0.000105883
0.000105877
8.40612e-05
8.36755e-05
8.28668e-05
0.000104992
0.000104979
0.000102466
0.000102453
8.36729e-05
8.28641e-05
0.000105019
0.000104977
0.000102493
0.000102451
0.000104987
0.000102495
0.000102461
8.36718e-05
8.28628e-05
0.000105015
0.000102495
0.000102489
8.28554e-05
8.25923e-05
8.22675e-05
0.000101684
0.000101671
9.95164e-05
9.9505e-05
8.25889e-05
8.22643e-05
0.000101711
0.000101669
9.95439e-05
9.95035e-05
0.000101679
9.95453e-05
9.95131e-05
8.25883e-05
8.22638e-05
0.000101707
9.95463e-05
9.95399e-05
8.22568e-05
8.21107e-05
8.22502e-05
9.8874e-05
9.88627e-05
9.71251e-05
9.71143e-05
8.21067e-05
8.22464e-05
9.89011e-05
9.88611e-05
9.71522e-05
9.71133e-05
9.88708e-05
9.71531e-05
9.71227e-05
8.21069e-05
8.22467e-05
9.88974e-05
9.71547e-05
9.71485e-05
8.22406e-05
8.21992e-05
8.27571e-05
9.65892e-05
9.65784e-05
9.52367e-05
9.52268e-05
8.21948e-05
8.27533e-05
9.6616e-05
9.65774e-05
9.52629e-05
9.52258e-05
9.65868e-05
9.52632e-05
9.5235e-05
8.21957e-05
8.2754e-05
9.66124e-05
9.52651e-05
9.52595e-05
8.27489e-05
8.28335e-05
8.38973e-05
9.49021e-05
9.48923e-05
9.41789e-05
9.41693e-05
8.2829e-05
8.38929e-05
9.49279e-05
9.48912e-05
9.42048e-05
9.41691e-05
9.49005e-05
9.4205e-05
9.4178e-05
8.28303e-05
8.38945e-05
9.49245e-05
9.42072e-05
9.42017e-05
8.38903e-05
8.408e-05
8.56753e-05
9.39987e-05
9.39892e-05
9.37138e-05
9.37051e-05
8.40752e-05
8.56738e-05
9.40241e-05
9.3989e-05
9.37386e-05
9.37046e-05
9.39978e-05
9.37374e-05
9.37124e-05
8.40773e-05
8.56737e-05
9.40211e-05
9.37405e-05
9.37344e-05
8.56669e-05
8.60281e-05
8.81684e-05
9.37704e-05
9.37616e-05
9.46282e-05
9.46199e-05
8.6026e-05
8.81641e-05
9.37951e-05
9.37614e-05
9.4652e-05
9.46202e-05
9.37686e-05
9.46521e-05
9.46279e-05
8.60263e-05
8.81661e-05
9.37906e-05
9.46545e-05
9.46492e-05
8.81656e-05
8.8604e-05
9.00808e-05
9.50646e-05
9.50561e-05
9.60397e-05
9.60301e-05
8.85985e-05
9.00746e-05
9.50877e-05
9.50561e-05
9.60628e-05
9.60303e-05
9.50651e-05
9.60613e-05
9.60407e-05
8.86013e-05
9.00789e-05
9.50857e-05
9.60653e-05
9.60607e-05
9.00786e-05
9.02474e-05
9.05638e-05
9.61519e-05
9.61421e-05
9.60134e-05
9.60035e-05
9.02407e-05
9.05591e-05
9.61751e-05
9.61425e-05
9.60367e-05
9.60044e-05
9.61529e-05
9.60353e-05
9.60148e-05
9.02456e-05
9.05627e-05
9.61729e-05
9.60401e-05
9.60347e-05
9.05598e-05
9.05531e-05
9.04448e-05
9.57618e-05
9.57519e-05
9.54485e-05
9.54388e-05
9.0549e-05
9.04405e-05
9.57848e-05
9.57531e-05
9.54714e-05
9.54405e-05
9.57628e-05
9.54706e-05
9.54491e-05
9.05522e-05
9.04446e-05
9.57826e-05
9.54749e-05
9.54687e-05
9.04403e-05
9.04097e-05
9.05303e-05
9.53964e-05
9.53866e-05
9.53462e-05
9.53365e-05
9.04047e-05
9.05255e-05
9.54195e-05
9.53887e-05
9.53694e-05
9.53387e-05
9.53972e-05
9.53681e-05
9.53465e-05
9.04093e-05
9.05298e-05
9.54168e-05
9.53721e-05
9.53661e-05
9.05239e-05
9.05462e-05
9.06931e-05
9.54258e-05
9.54161e-05
9.56233e-05
9.56138e-05
9.05413e-05
9.06895e-05
9.54488e-05
9.5418e-05
9.56468e-05
9.56157e-05
9.54259e-05
9.56451e-05
9.56237e-05
9.05456e-05
9.06925e-05
9.54455e-05
9.56493e-05
9.56432e-05
9.06865e-05
9.06959e-05
9.08019e-05
9.5672e-05
9.56624e-05
9.57673e-05
9.57581e-05
9.06919e-05
9.07983e-05
9.56952e-05
9.56641e-05
9.57912e-05
9.576e-05
9.56722e-05
9.57892e-05
9.57679e-05
9.06952e-05
9.08016e-05
9.56917e-05
9.57935e-05
9.57875e-05
9.0796e-05
9.07938e-05
9.08255e-05
9.57854e-05
9.57759e-05
9.5814e-05
9.58043e-05
9.07896e-05
9.0821e-05
9.58089e-05
9.57776e-05
9.58378e-05
9.58064e-05
9.57858e-05
9.58363e-05
9.58145e-05
9.07932e-05
9.08248e-05
9.58053e-05
9.58409e-05
9.5834e-05
9.08196e-05
9.08091e-05
9.08174e-05
9.58195e-05
9.58096e-05
9.58286e-05
9.58191e-05
9.08041e-05
9.08131e-05
9.58432e-05
9.58118e-05
9.58526e-05
9.58211e-05
9.58198e-05
9.58504e-05
9.5829e-05
9.08082e-05
9.08168e-05
9.58395e-05
9.5855e-05
9.58487e-05
9.08113e-05
9.08021e-05
9.08284e-05
9.58298e-05
9.58199e-05
9.58294e-05
9.58196e-05
9.07975e-05
9.08239e-05
9.5853e-05
9.58214e-05
9.58528e-05
9.58212e-05
9.58298e-05
9.58503e-05
9.58294e-05
9.08014e-05
9.08273e-05
9.58492e-05
9.5855e-05
9.58489e-05
9.08221e-05
9.08127e-05
9.08212e-05
9.58291e-05
9.58192e-05
9.58287e-05
9.58189e-05
9.08077e-05
9.0817e-05
9.58525e-05
9.5821e-05
9.58524e-05
9.58208e-05
9.58292e-05
9.585e-05
9.5829e-05
9.08114e-05
9.08205e-05
9.58487e-05
9.58547e-05
9.58485e-05
9.08152e-05
9.08082e-05
9.08177e-05
9.58288e-05
9.5819e-05
9.58288e-05
9.58192e-05
9.08035e-05
9.08132e-05
9.58525e-05
9.5821e-05
9.58528e-05
9.58212e-05
9.58291e-05
9.58505e-05
9.58291e-05
9.08073e-05
9.08168e-05
9.58486e-05
9.58551e-05
9.58489e-05
9.08116e-05
9.08015e-05
9.08308e-05
9.58288e-05
9.58193e-05
9.58294e-05
9.58198e-05
9.07968e-05
9.08263e-05
9.5853e-05
9.58214e-05
9.58535e-05
9.5822e-05
9.58293e-05
9.58511e-05
9.58299e-05
9.08004e-05
9.08303e-05
9.5849e-05
9.58558e-05
9.58495e-05
9.08251e-05
9.08103e-05
9.08244e-05
9.58294e-05
9.582e-05
9.58297e-05
9.58201e-05
9.08056e-05
9.08192e-05
9.58537e-05
9.58221e-05
9.58542e-05
9.58226e-05
9.58299e-05
9.58517e-05
9.58304e-05
9.08097e-05
9.08225e-05
9.58497e-05
9.58564e-05
9.58502e-05
9.08172e-05
9.08141e-05
9.08111e-05
9.58305e-05
9.5821e-05
9.58308e-05
9.58209e-05
9.08094e-05
9.08061e-05
9.58545e-05
9.58229e-05
9.58545e-05
9.58229e-05
9.58307e-05
9.5852e-05
9.58309e-05
9.08124e-05
9.08119e-05
9.58504e-05
9.58568e-05
9.58506e-05
9.0807e-05
9.07868e-05
9.085e-05
9.58317e-05
9.5821e-05
9.58325e-05
9.58217e-05
9.0782e-05
9.08445e-05
9.58544e-05
9.58231e-05
9.58548e-05
9.58239e-05
9.58309e-05
9.5853e-05
9.58319e-05
9.07871e-05
9.08503e-05
9.58507e-05
9.58578e-05
9.58515e-05
9.08443e-05
9.08208e-05
9.08553e-05
9.58329e-05
9.58216e-05
9.58338e-05
9.58223e-05
9.08146e-05
9.08536e-05
9.58545e-05
9.58239e-05
9.58549e-05
9.58244e-05
9.58319e-05
9.58537e-05
9.58324e-05
9.0823e-05
9.08503e-05
9.58514e-05
9.58584e-05
9.58521e-05
9.0848e-05
9.0846e-05
9.08337e-05
9.58338e-05
9.58218e-05
9.58345e-05
9.58225e-05
9.08408e-05
9.08357e-05
9.58543e-05
9.5824e-05
9.58548e-05
9.58245e-05
9.5832e-05
9.58536e-05
9.58324e-05
9.08419e-05
9.083e-05
9.58515e-05
9.5858e-05
9.5852e-05
9.08316e-05
9.08522e-05
9.07494e-05
9.58347e-05
9.58225e-05
9.58329e-05
9.58205e-05
9.08519e-05
9.07474e-05
9.58549e-05
9.58245e-05
9.58525e-05
9.58224e-05
9.58323e-05
9.5852e-05
9.58305e-05
9.08486e-05
9.07503e-05
9.5852e-05
9.58561e-05
9.58501e-05
9.07462e-05
9.07611e-05
9.08002e-05
9.58343e-05
9.58218e-05
9.58334e-05
9.58203e-05
9.0761e-05
9.07969e-05
9.58538e-05
9.58237e-05
9.58523e-05
9.58226e-05
9.58319e-05
9.58522e-05
9.58305e-05
9.07592e-05
9.08029e-05
9.58517e-05
9.58562e-05
9.58501e-05
9.07918e-05
9.07454e-05
9.09095e-05
9.58334e-05
9.58203e-05
9.58357e-05
9.58223e-05
9.07426e-05
9.09067e-05
9.58519e-05
9.58223e-05
9.5854e-05
9.58246e-05
9.58303e-05
9.58545e-05
9.58325e-05
9.07481e-05
9.09097e-05
9.58499e-05
9.58584e-05
9.58522e-05
9.09008e-05
9.08544e-05
9.08951e-05
9.58341e-05
9.58206e-05
9.58362e-05
9.58223e-05
9.08522e-05
9.08918e-05
9.5852e-05
9.58228e-05
9.5854e-05
9.58247e-05
9.58309e-05
9.58548e-05
9.58327e-05
9.08571e-05
9.08926e-05
9.58504e-05
9.58585e-05
9.58523e-05
9.08893e-05
9.09e-05
9.08047e-05
9.58358e-05
9.5822e-05
9.58353e-05
9.58212e-05
9.08969e-05
9.08029e-05
9.58535e-05
9.58243e-05
9.58526e-05
9.58236e-05
9.58322e-05
9.58537e-05
9.58318e-05
9.08988e-05
9.08031e-05
9.58518e-05
9.58573e-05
9.58513e-05
9.08095e-05
9.08536e-05
9.07385e-05
9.58363e-05
9.58222e-05
9.58346e-05
9.58203e-05
9.08516e-05
9.0736e-05
9.58535e-05
9.58245e-05
9.58516e-05
9.58228e-05
9.58324e-05
9.5853e-05
9.58309e-05
9.08521e-05
9.0739e-05
9.58521e-05
9.58564e-05
9.58504e-05
9.07384e-05
9.07643e-05
9.07502e-05
9.58356e-05
9.58214e-05
9.58347e-05
9.58201e-05
9.07635e-05
9.07459e-05
9.58525e-05
9.58237e-05
9.58513e-05
9.58226e-05
9.58318e-05
9.58527e-05
9.58306e-05
9.07641e-05
9.07511e-05
9.58514e-05
9.58562e-05
9.58502e-05
9.0742e-05
9.07208e-05
9.08021e-05
9.58352e-05
9.58208e-05
9.58351e-05
9.58203e-05
9.07175e-05
9.07972e-05
9.58518e-05
9.58231e-05
9.58515e-05
9.5823e-05
9.58312e-05
9.58531e-05
9.58309e-05
9.07215e-05
9.0803e-05
9.58507e-05
9.58565e-05
9.58504e-05
9.07904e-05
9.0742e-05
9.0873e-05
9.58351e-05
9.58205e-05
9.58362e-05
9.5821e-05
9.07377e-05
9.08686e-05
9.58514e-05
9.58229e-05
9.58524e-05
9.58239e-05
9.58308e-05
9.5854e-05
9.58318e-05
9.07432e-05
9.08732e-05
9.58504e-05
9.58573e-05
9.58514e-05
9.08687e-05
9.0801e-05
9.09083e-05
9.58352e-05
9.58202e-05
9.58372e-05
9.58217e-05
9.07965e-05
9.09054e-05
9.58512e-05
9.58228e-05
9.58531e-05
9.58247e-05
9.58306e-05
9.58547e-05
9.58328e-05
9.08018e-05
9.09079e-05
9.58501e-05
9.58581e-05
9.58523e-05
9.09076e-05
9.08662e-05
9.0894e-05
9.58358e-05
9.58204e-05
9.58374e-05
9.58217e-05
9.08627e-05
9.08909e-05
9.58517e-05
9.58233e-05
9.5853e-05
9.58247e-05
9.58314e-05
9.58547e-05
9.58326e-05
9.08665e-05
9.08939e-05
9.58508e-05
9.58581e-05
9.58521e-05
9.08621e-05
9.08895e-05
9.08523e-05
9.58368e-05
9.58212e-05
9.58371e-05
9.58212e-05
9.08885e-05
9.08394e-05
9.58525e-05
9.58241e-05
9.58526e-05
9.58242e-05
9.58327e-05
9.58541e-05
9.58318e-05
9.08912e-05
9.08446e-05
9.58521e-05
9.58576e-05
9.58512e-05
9.07705e-05
9.08779e-05
9.08072e-05
9.58371e-05
9.58215e-05
9.58369e-05
9.58207e-05
9.08712e-05
9.07814e-05
9.58526e-05
9.58244e-05
9.58522e-05
9.58236e-05
9.58331e-05
9.58534e-05
9.58316e-05
9.08763e-05
9.0782e-05
9.58525e-05
9.5857e-05
9.58508e-05
9.07541e-05
9.08522e-05
9.07699e-05
9.58372e-05
9.58214e-05
9.58367e-05
9.58205e-05
9.08285e-05
9.07535e-05
9.58525e-05
9.58242e-05
9.58519e-05
9.58234e-05
9.5832e-05
9.5853e-05
9.58323e-05
9.08301e-05
9.07528e-05
9.58513e-05
9.58569e-05
9.58515e-05
9.08195e-05
9.08124e-05
9.07531e-05
9.58372e-05
9.58212e-05
9.58366e-05
9.58205e-05
9.07765e-05
9.07638e-05
9.58524e-05
9.58239e-05
9.58517e-05
9.58235e-05
9.5832e-05
9.58528e-05
9.58333e-05
9.07698e-05
9.07725e-05
9.58512e-05
9.58569e-05
9.58526e-05
9.08754e-05
9.07653e-05
9.07684e-05
9.58371e-05
9.5821e-05
9.58367e-05
9.58207e-05
9.07449e-05
9.08061e-05
9.58522e-05
9.58238e-05
9.58516e-05
9.5824e-05
9.58328e-05
9.5853e-05
9.58331e-05
9.0745e-05
9.08258e-05
9.5852e-05
9.58575e-05
9.58523e-05
9.08443e-05
9.07418e-05
9.08072e-05
9.5837e-05
9.58208e-05
9.58369e-05
9.58215e-05
9.07642e-05
9.08651e-05
9.58519e-05
9.58237e-05
9.58518e-05
9.58248e-05
9.58329e-05
9.58536e-05
9.58329e-05
9.0779e-05
9.08751e-05
9.58521e-05
9.58583e-05
9.58521e-05
9.08159e-05
9.07598e-05
9.08521e-05
9.58369e-05
9.58209e-05
9.58373e-05
9.58218e-05
9.0821e-05
9.08669e-05
9.58517e-05
9.5824e-05
9.58521e-05
9.58248e-05
9.58329e-05
9.58537e-05
9.58327e-05
9.08349e-05
9.08711e-05
9.58521e-05
9.58584e-05
9.5852e-05
9.07871e-05
9.07942e-05
9.08776e-05
9.58369e-05
9.58213e-05
9.58377e-05
9.58217e-05
9.08517e-05
9.08496e-05
9.58516e-05
9.58244e-05
9.58524e-05
9.58248e-05
9.5833e-05
9.58536e-05
9.58327e-05
9.08546e-05
9.08623e-05
9.58522e-05
9.58584e-05
9.58519e-05
9.07693e-05
9.08251e-05
9.08883e-05
9.5837e-05
9.58215e-05
9.58379e-05
9.58216e-05
9.08486e-05
9.08398e-05
9.58516e-05
9.58244e-05
9.58525e-05
9.58248e-05
9.58331e-05
9.58534e-05
9.58327e-05
9.08535e-05
9.08646e-05
9.58523e-05
9.58583e-05
9.58519e-05
9.07674e-05
9.08488e-05
9.08904e-05
9.58371e-05
9.58215e-05
9.58381e-05
9.58215e-05
9.08422e-05
9.08445e-05
9.58517e-05
9.58243e-05
9.58527e-05
9.58248e-05
9.58331e-05
9.58532e-05
9.58327e-05
9.08561e-05
9.08692e-05
9.58524e-05
9.58582e-05
9.5852e-05
9.0773e-05
9.08674e-05
9.08759e-05
9.58373e-05
9.58212e-05
9.58382e-05
9.58215e-05
9.08424e-05
9.08586e-05
9.58519e-05
9.58242e-05
9.58527e-05
9.58247e-05
9.58331e-05
9.58531e-05
9.58327e-05
9.08616e-05
9.0867e-05
9.58524e-05
9.58582e-05
9.5852e-05
9.07818e-05
9.0873e-05
9.08405e-05
9.58377e-05
9.5821e-05
9.58379e-05
9.58215e-05
9.08497e-05
9.0866e-05
9.58522e-05
9.58243e-05
9.58524e-05
9.58247e-05
9.5833e-05
9.58531e-05
9.58328e-05
9.08631e-05
9.08615e-05
9.58523e-05
9.58582e-05
9.58521e-05
9.07925e-05
9.08536e-05
9.08055e-05
9.58379e-05
9.58209e-05
9.58377e-05
9.58214e-05
9.08566e-05
9.08614e-05
9.58524e-05
9.58243e-05
9.58521e-05
9.58247e-05
9.5833e-05
9.5853e-05
9.5833e-05
9.08605e-05
9.08608e-05
9.58523e-05
9.58582e-05
9.58523e-05
9.07988e-05
9.08223e-05
9.08076e-05
9.58378e-05
9.5821e-05
9.58377e-05
9.58214e-05
9.08574e-05
9.08508e-05
9.58522e-05
9.58243e-05
9.58522e-05
9.58247e-05
9.58332e-05
9.5853e-05
9.5833e-05
9.08604e-05
9.08624e-05
9.58525e-05
9.58583e-05
9.58524e-05
9.07922e-05
9.08121e-05
9.08495e-05
9.58378e-05
9.58211e-05
9.58377e-05
9.58212e-05
9.08528e-05
9.08373e-05
9.58523e-05
9.58243e-05
9.58523e-05
9.58248e-05
9.58332e-05
9.58528e-05
9.58328e-05
9.08629e-05
9.08589e-05
9.58526e-05
9.58584e-05
9.58523e-05
9.07845e-05
9.0834e-05
9.08807e-05
9.58374e-05
9.58211e-05
9.58377e-05
9.5821e-05
9.08423e-05
9.08318e-05
9.5852e-05
9.58244e-05
9.58523e-05
9.58248e-05
9.58332e-05
9.58524e-05
9.58328e-05
9.08615e-05
9.08547e-05
9.58526e-05
9.58584e-05
9.58523e-05
9.07863e-05
9.08431e-05
9.08949e-05
9.5837e-05
9.58209e-05
9.58379e-05
9.58206e-05
9.08306e-05
9.08479e-05
9.58516e-05
9.58244e-05
9.58525e-05
9.58248e-05
9.58331e-05
9.58519e-05
9.58329e-05
9.08578e-05
9.08568e-05
9.58526e-05
9.58584e-05
9.58524e-05
9.07936e-05
9.08609e-05
9.08883e-05
9.58371e-05
9.58204e-05
9.58382e-05
9.58204e-05
9.08257e-05
9.08664e-05
9.58517e-05
9.58244e-05
9.58527e-05
9.58248e-05
9.58331e-05
9.58517e-05
9.58329e-05
9.08586e-05
9.0861e-05
9.58527e-05
9.58585e-05
9.58526e-05
9.07975e-05
9.08729e-05
9.08632e-05
9.58376e-05
9.58199e-05
9.58381e-05
9.58205e-05
9.08207e-05
9.08778e-05
9.58521e-05
9.58243e-05
9.58526e-05
9.58248e-05
9.58331e-05
9.58516e-05
9.58328e-05
9.08625e-05
9.08583e-05
9.58528e-05
9.58586e-05
9.58526e-05
9.07967e-05
9.08634e-05
9.08469e-05
9.58379e-05
9.58197e-05
9.58381e-05
9.58206e-05
9.08246e-05
9.08854e-05
9.58524e-05
9.58244e-05
9.58526e-05
9.58248e-05
9.5833e-05
9.58517e-05
9.58327e-05
9.08627e-05
9.08491e-05
9.58528e-05
9.58585e-05
9.58526e-05
9.08004e-05
9.08505e-05
9.08548e-05
9.58379e-05
9.58197e-05
9.58381e-05
9.58208e-05
9.08386e-05
9.0888e-05
9.58524e-05
9.58245e-05
9.58526e-05
9.58247e-05
9.58328e-05
9.58518e-05
9.58328e-05
9.08557e-05
9.08453e-05
9.58527e-05
9.58582e-05
9.58527e-05
9.08104e-05
9.08537e-05
9.08666e-05
9.58377e-05
9.58199e-05
9.58382e-05
9.58207e-05
9.08526e-05
9.0885e-05
9.58522e-05
9.58245e-05
9.58527e-05
9.58247e-05
9.58328e-05
9.58517e-05
9.58328e-05
9.08493e-05
9.0856e-05
9.58528e-05
9.5858e-05
9.58528e-05
9.08144e-05
9.0863e-05
9.08628e-05
9.58376e-05
9.58199e-05
9.5838e-05
9.58206e-05
9.08613e-05
9.08762e-05
9.58522e-05
9.58241e-05
9.58526e-05
9.58244e-05
9.58328e-05
9.58515e-05
9.58327e-05
9.08529e-05
9.08707e-05
9.58528e-05
9.5858e-05
9.58527e-05
9.08068e-05
9.08629e-05
9.0852e-05
9.58377e-05
9.582e-05
9.58375e-05
9.58203e-05
9.08618e-05
9.08687e-05
9.58522e-05
9.58238e-05
9.58521e-05
9.58242e-05
9.58326e-05
9.58513e-05
9.58324e-05
9.08624e-05
9.08735e-05
9.58527e-05
9.5858e-05
9.58525e-05
9.08015e-05
9.08548e-05
9.0853e-05
9.58376e-05
9.58201e-05
9.58372e-05
9.58201e-05
9.08579e-05
9.08702e-05
9.58522e-05
9.5824e-05
9.58517e-05
9.58239e-05
9.58323e-05
9.58511e-05
9.58322e-05
9.08676e-05
9.08652e-05
9.58524e-05
9.58578e-05
9.58524e-05
9.08032e-05
9.08533e-05
9.08634e-05
9.58374e-05
9.58201e-05
9.58372e-05
9.58201e-05
9.08586e-05
9.08743e-05
9.58518e-05
9.58241e-05
9.58517e-05
9.58237e-05
9.58322e-05
9.58511e-05
9.58321e-05
9.08649e-05
9.08571e-05
9.58524e-05
9.58577e-05
9.58525e-05
9.08043e-05
9.08609e-05
9.08639e-05
9.58372e-05
9.582e-05
9.58372e-05
9.58201e-05
9.08637e-05
9.08705e-05
9.58517e-05
9.58239e-05
9.58518e-05
9.58237e-05
9.58321e-05
9.58511e-05
9.58318e-05
9.08601e-05
9.0855e-05
9.58524e-05
9.58577e-05
9.58522e-05
9.08015e-05
9.08644e-05
9.08527e-05
9.58371e-05
9.58199e-05
9.58371e-05
9.582e-05
9.08647e-05
9.08631e-05
9.58517e-05
9.58237e-05
9.58517e-05
9.58237e-05
9.58317e-05
9.58512e-05
9.58316e-05
9.0858e-05
9.08573e-05
9.58522e-05
9.5858e-05
9.58519e-05
9.08002e-05
9.08577e-05
9.08456e-05
9.58372e-05
9.582e-05
9.58372e-05
9.58202e-05
9.08615e-05
9.08597e-05
9.58518e-05
9.58238e-05
9.58518e-05
9.58239e-05
9.58316e-05
9.58516e-05
9.58315e-05
9.08587e-05
9.08602e-05
9.5852e-05
9.58585e-05
9.58519e-05
9.08052e-05
9.08508e-05
9.08513e-05
9.58377e-05
9.58205e-05
9.58377e-05
9.58206e-05
9.08599e-05
9.08598e-05
9.58523e-05
9.58243e-05
9.58523e-05
9.58244e-05
9.5832e-05
9.58522e-05
9.58319e-05
9.08602e-05
9.08627e-05
9.58524e-05
9.58592e-05
9.58523e-05
9.08183e-05
9.08525e-05
9.08607e-05
9.58387e-05
9.58215e-05
9.58386e-05
9.58215e-05
9.08609e-05
9.08604e-05
9.58532e-05
9.58253e-05
9.58532e-05
9.58253e-05
9.58328e-05
9.58532e-05
9.58329e-05
9.08618e-05
9.08651e-05
9.58532e-05
9.58603e-05
9.58533e-05
9.08351e-05
9.08574e-05
9.08661e-05
9.584e-05
9.58229e-05
9.58401e-05
9.5823e-05
9.08631e-05
9.08584e-05
9.58545e-05
9.58266e-05
9.58546e-05
9.58268e-05
9.58342e-05
9.58547e-05
9.58344e-05
9.08642e-05
9.08659e-05
9.58546e-05
9.58619e-05
9.58547e-05
9.08284e-05
9.08598e-05
9.0872e-05
9.5842e-05
9.5825e-05
9.58426e-05
9.58255e-05
9.08648e-05
9.08518e-05
9.58566e-05
9.58287e-05
9.58571e-05
9.58292e-05
9.58365e-05
9.58572e-05
9.58366e-05
9.08669e-05
9.08637e-05
9.58568e-05
9.58644e-05
9.58569e-05
9.07942e-05
9.08639e-05
9.0878e-05
9.58454e-05
9.58286e-05
9.5847e-05
9.58298e-05
9.08633e-05
9.08432e-05
9.586e-05
9.58322e-05
9.58616e-05
9.58336e-05
9.584e-05
9.58615e-05
9.58408e-05
9.08684e-05
9.08594e-05
9.58602e-05
9.58688e-05
9.5861e-05
9.07773e-05
9.08723e-05
9.08751e-05
9.58512e-05
9.58343e-05
9.58544e-05
9.58371e-05
9.08585e-05
9.08421e-05
9.58658e-05
9.5838e-05
9.5869e-05
9.58409e-05
9.58456e-05
9.58689e-05
9.58481e-05
9.08684e-05
9.08551e-05
9.58659e-05
9.58761e-05
9.58683e-05
9.0782e-05
9.08769e-05
9.08656e-05
9.58606e-05
9.58436e-05
9.58669e-05
9.58499e-05
9.0858e-05
9.08537e-05
9.58752e-05
9.58474e-05
9.58814e-05
9.58536e-05
9.58548e-05
9.58815e-05
9.58609e-05
9.08675e-05
9.08564e-05
9.5875e-05
9.58887e-05
9.58811e-05
9.08061e-05
9.0874e-05
9.08693e-05
9.58762e-05
9.58592e-05
9.5889e-05
9.58724e-05
9.08702e-05
9.08641e-05
9.58907e-05
9.58629e-05
9.59035e-05
9.58759e-05
9.58702e-05
9.59036e-05
9.58835e-05
9.087e-05
9.08695e-05
9.58904e-05
9.59108e-05
9.59033e-05
9.08437e-05
9.08794e-05
9.08916e-05
9.59027e-05
9.58865e-05
9.59343e-05
9.59181e-05
9.08872e-05
9.08546e-05
9.59168e-05
9.589e-05
9.59483e-05
9.59218e-05
9.58974e-05
9.59488e-05
9.59297e-05
9.08842e-05
9.08845e-05
9.59171e-05
9.59561e-05
9.59485e-05
9.08482e-05
9.08976e-05
9.08826e-05
9.58988e-05
9.58828e-05
9.65971e-05
9.65817e-05
9.08866e-05
9.08756e-05
9.59132e-05
9.58866e-05
9.66101e-05
9.65859e-05
9.58937e-05
9.66116e-05
9.65941e-05
9.09022e-05
9.08842e-05
9.59122e-05
9.66187e-05
9.66109e-05
9.08585e-05
9.08796e-05
9.65033e-05
9.64894e-05
9.08861e-05
9.65153e-05
9.64932e-05
0.000127514
0.000127519
0.000127522
9.65019e-05
9.08858e-05
9.65172e-05
0.00023473
0.000234746
0.000234729
0.000234729
0.000235118
0.000234798
0.000234702
0.000234727
0.000235118
0.000234798
0.000234727
0.000234701
0.000234867
0.000233566
0.000233566
0.000104652
3.87412e-05
0.000129113
3.98251e-05
2.16828e-05
2.28305e-05
0.000104655
3.87378e-05
0.000129112
3.9821e-05
0.000233973
0.000233973
0.000233973
0.000232935
0.000232935
0.000232935
0.000232935
0.0002062
9.36742e-05
0.000233969
0.000231994
0.000222612
8.72281e-05
0.000233611
2.16821e-05
2.283e-05
0.000206193
0.000233969
9.36713e-05
0.000231994
0.000222617
0.000233611
8.72254e-05
4.77972e-05
4.77892e-05
0.000231344
4.40186e-05
4.40114e-05
7.25721e-05
4.24351e-05
8.14003e-05
4.37643e-05
2.47748e-05
2.54625e-05
7.25668e-05
4.24309e-05
8.13939e-05
4.37601e-05
0.000232532
0.000232532
0.000232532
0.000231084