/*--------------------------------*- C++ -*----------------------------------*\
| =========                 |                                                 |
| \\      /  F ield         | OpenFOAM: The Open Source CFD Toolbox           |
|  \\    /   O peration     | Version:  v2006                                 |
|   \\  /    A nd           | Website:  www.openfoam.com                      |
|    \\/     M anipulation  |                                                 |
\*---------------------------------------------------------------------------*/
FoamFile
{
    version     2.0;
    format      ascii;
    class       volScalarField;
    location    "125";
    object      nut;
}
// * * * * * * * * * * * * * * * * * * * * * * * * * * * * * * * * * * * * * //

dimensions      [0 2 -1 0 0 0 0];


internalField   nonuniform List<scalar> 
171728
(
0.000233973
0.000233116
0.000233116
0.000233423
0.000232532
0.000227802
0.000227801
0.000223866
0.000230516
0.000220319
0.000220318
0.000209109
0.000227799
0.000211664
0.000211662
0.000193783
0.000224433
0.000202648
0.000202645
0.000179707
0.000220552
0.00019377
0.000193767
0.000167336
0.000216305
0.000185273
0.00018527
0.000156583
0.000211821
0.000177231
0.000177228
0.000147202
0.000207208
0.000169686
0.000169683
0.000138946
0.000202546
0.000162609
0.000162605
0.00013161
0.00019789
0.000155946
0.000155942
0.000124948
0.000193276
0.000149644
0.000149639
0.000118811
0.000188684
0.000143663
0.000143658
0.000113163
0.000184152
0.000137951
0.000137945
0.000107927
0.000179704
0.000132459
0.000132453
0.000103051
0.00017534
0.000127186
0.000127181
9.84312e-05
0.000171036
0.000122145
0.000122143
9.42467e-05
0.000166787
0.000117367
0.000117364
9.06569e-05
0.00016259
0.000112882
0.000112881
8.77279e-05
0.000158413
0.000108749
0.000108749
8.53804e-05
0.000154268
0.000105021
0.000105022
8.36647e-05
0.000150144
0.000101713
0.000101713
8.25817e-05
0.000146074
9.89025e-05
9.89035e-05
8.21006e-05
0.000142072
9.66163e-05
9.66179e-05
8.21902e-05
0.000138181
9.4928e-05
9.49303e-05
8.28256e-05
0.000134808
9.40247e-05
9.40271e-05
8.40735e-05
0.000131502
9.37921e-05
9.37949e-05
8.60192e-05
0.000129977
9.50904e-05
9.50934e-05
8.86059e-05
0.000129253
9.61815e-05
9.61856e-05
9.02498e-05
0.00012693
9.57843e-05
9.57892e-05
9.05504e-05
0.000125034
9.54181e-05
9.54228e-05
9.04005e-05
0.000124522
9.54563e-05
9.54599e-05
9.05441e-05
0.000124567
9.57014e-05
9.57059e-05
9.06952e-05
0.000124689
9.58178e-05
9.5823e-05
9.07933e-05
0.000124735
9.58532e-05
9.58563e-05
9.08114e-05
0.000124749
9.58634e-05
9.58672e-05
9.08047e-05
0.000124754
9.58677e-05
9.58725e-05
9.08153e-05
0.000124755
9.5867e-05
9.58728e-05
9.08163e-05
0.000124755
9.58663e-05
9.58719e-05
9.07995e-05
0.000124755
9.58662e-05
9.58713e-05
9.0808e-05
0.000124757
9.58673e-05
9.58721e-05
9.08332e-05
0.000124757
9.58678e-05
9.58721e-05
9.08172e-05
0.000124758
9.58682e-05
9.58727e-05
9.08208e-05
0.000124758
9.58679e-05
9.58724e-05
9.08232e-05
0.000124759
9.58696e-05
9.58737e-05
9.08509e-05
0.00012476
9.58691e-05
9.58729e-05
9.07735e-05
0.000124759
9.58664e-05
9.58702e-05
9.07475e-05
0.000124756
9.58665e-05
9.58706e-05
9.08598e-05
0.000124772
9.58679e-05
9.58719e-05
9.08986e-05
0.000124772
9.58701e-05
9.58735e-05
9.08506e-05
0.000124777
9.58735e-05
9.58768e-05
9.07718e-05
0.000124773
9.58702e-05
9.58735e-05
9.07211e-05
0.000124765
9.58644e-05
9.58678e-05
9.07297e-05
0.000124764
9.58633e-05
9.58663e-05
9.07886e-05
0.000124763
9.58649e-05
9.58672e-05
9.08672e-05
0.000124763
9.58664e-05
9.58693e-05
9.08882e-05
0.000124763
9.58673e-05
9.58719e-05
9.08178e-05
0.000124763
9.58681e-05
9.58721e-05
9.07666e-05
0.000124764
9.58693e-05
9.58737e-05
9.0856e-05
0.000124764
9.5868e-05
9.58732e-05
9.0847e-05
0.000124764
9.58672e-05
9.58721e-05
9.07621e-05
0.000124763
9.58672e-05
9.58714e-05
9.07281e-05
0.000124762
9.58676e-05
9.5872e-05
9.07763e-05
0.000124762
9.58683e-05
9.58739e-05
9.08532e-05
0.000124762
9.58688e-05
9.58743e-05
9.08822e-05
0.000124762
9.58681e-05
9.5874e-05
9.08529e-05
0.000124762
9.5867e-05
9.58729e-05
9.07946e-05
0.000124762
9.58662e-05
9.5872e-05
9.07779e-05
0.000124762
9.58663e-05
9.58722e-05
9.08252e-05
0.000124762
9.58683e-05
9.58737e-05
9.08098e-05
0.000124762
9.58683e-05
9.58742e-05
9.07505e-05
0.000124762
9.58675e-05
9.5874e-05
9.07477e-05
0.000124761
9.5867e-05
9.58734e-05
9.0815e-05
0.000124759
9.58654e-05
9.58715e-05
9.08412e-05
0.000124775
9.58644e-05
9.58703e-05
9.07596e-05
0.000124772
9.58637e-05
9.58697e-05
9.07233e-05
0.000124773
9.58684e-05
9.58748e-05
9.07714e-05
0.00012478
9.58707e-05
9.58767e-05
9.08583e-05
0.000124768
9.58663e-05
9.58727e-05
9.08869e-05
0.000124765
9.58621e-05
9.58689e-05
9.08652e-05
0.000124764
9.58612e-05
9.58682e-05
9.08274e-05
0.000124764
9.58621e-05
9.58693e-05
9.07883e-05
0.000124763
9.58635e-05
9.58704e-05
9.07515e-05
0.000124764
9.58653e-05
9.58721e-05
9.07544e-05
0.000124764
9.58659e-05
9.58729e-05
9.07641e-05
0.000124764
9.58665e-05
9.58736e-05
9.07468e-05
0.000124765
9.58687e-05
9.58754e-05
9.07747e-05
0.000124765
9.58718e-05
9.58784e-05
9.08721e-05
0.000124765
9.58748e-05
9.58818e-05
9.08715e-05
0.000124766
9.58798e-05
9.5887e-05
9.08224e-05
0.000124767
9.58887e-05
9.5896e-05
9.07565e-05
0.00012477
9.59044e-05
9.59118e-05
9.0742e-05
0.000124777
9.59313e-05
9.59386e-05
9.07868e-05
0.000124812
9.59292e-05
9.59357e-05
9.08374e-05
0.000127535
9.65337e-05
9.65398e-05
9.08834e-05
0.000234267
0.000234448
0.000234449
0.000234267
0.000234448
0.000234449
0.000234274
0.000234274
0.000234274
0.000234274
0.000234448
0.000234448
0.000234266
0.000234448
0.000234448
0.000234266
0.000233423
0.000226205
0.000233116
0.000233114
0.000229361
0.000229357
0.000233422
0.000226205
0.000233114
0.000233114
0.000229359
0.000229356
0.000233116
0.000229364
0.00022936
0.000233423
0.000226203
0.000233114
0.000229363
0.000229359
0.000226201
0.000223867
0.000212232
0.000227799
0.000227794
0.000222332
0.000222326
0.000223867
0.000212233
0.000227797
0.000227793
0.000222333
0.000222325
0.000227797
0.000222337
0.000222329
0.000223866
0.000212229
0.000227796
0.000222336
0.000222331
0.000212225
0.000209113
0.000197064
0.000220313
0.000220307
0.00021388
0.000213873
0.00020911
0.000197064
0.000220314
0.000220305
0.000213885
0.000213871
0.00022031
0.000213889
0.000213876
0.00020911
0.00019706
0.000220312
0.000213886
0.000213881
0.000197054
0.000193791
0.00018288
0.000211654
0.000211647
0.00020489
0.000204883
0.000193789
0.00018288
0.00021166
0.000211645
0.000204899
0.000204881
0.00021165
0.000204903
0.000204885
0.000193787
0.000182875
0.000211656
0.0002049
0.000204895
0.000182868
0.000179716
0.000170272
0.000202634
0.000202627
0.000195943
0.000195936
0.000179714
0.000170271
0.000202644
0.000202624
0.000195956
0.000195933
0.000202629
0.000195959
0.000195938
0.000179711
0.000170266
0.00020264
0.000195957
0.000195951
0.000170259
0.000167347
0.000159246
0.000193753
0.000193746
0.000187337
0.00018733
0.000167346
0.000159246
0.000193767
0.000193743
0.000187354
0.000187327
0.000193747
0.000187356
0.000187331
0.000167342
0.000159241
0.000193762
0.000187353
0.000187348
0.000159233
0.000156595
0.000149617
0.000185253
0.000185246
0.000179173
0.000179166
0.000156594
0.000149616
0.00018527
0.000185242
0.000179193
0.000179163
0.000185247
0.000179195
0.000179168
0.00015659
0.000149611
0.000185265
0.000179192
0.000179188
0.000149603
0.000147215
0.000141111
0.000177208
0.000177201
0.000171501
0.000171494
0.000147213
0.00014111
0.000177229
0.000177198
0.000171524
0.000171491
0.000177203
0.000171526
0.000171496
0.00014721
0.000141105
0.000177223
0.000171523
0.000171519
0.000141095
0.000138959
0.000133551
0.00016966
0.000169653
0.00016431
0.000164303
0.000138958
0.00013355
0.000169684
0.00016965
0.000164336
0.0001643
0.000169655
0.000164337
0.000164304
0.000138954
0.000133545
0.000169678
0.000164334
0.00016433
0.000133535
0.000131624
0.000126689
0.00016258
0.000162573
0.000157547
0.00015754
0.000131623
0.000126689
0.000162607
0.00016257
0.000157576
0.000157538
0.000162575
0.000157577
0.000157543
0.000131619
0.000126683
0.000162602
0.000157574
0.000157571
0.000126672
0.000124963
0.000120366
0.000155916
0.000155909
0.000151159
0.000151152
0.000124962
0.000120365
0.000155944
0.000155905
0.000151189
0.000151149
0.000155911
0.00015119
0.000151154
0.000124958
0.000120359
0.00015594
0.000151187
0.000151184
0.000120348
0.000118825
0.00011443
0.000149611
0.000149604
0.000145097
0.000145091
0.000118824
0.000114429
0.000149642
0.000149601
0.000145129
0.000145088
0.000149606
0.000145129
0.000145093
0.000118819
0.000114424
0.000149637
0.000145127
0.000145125
0.000114412
0.000113177
0.00010884
0.000143628
0.000143622
0.000139319
0.000139312
0.000113176
0.000108839
0.000143661
0.000143618
0.000139352
0.000139309
0.000143624
0.000139352
0.000139315
0.000113172
0.000108834
0.000143656
0.000139349
0.000139348
0.000108822
0.000107942
0.000103706
0.000137915
0.000137908
0.000133778
0.000133771
0.00010794
0.000103705
0.000137948
0.000137905
0.000133812
0.000133768
0.000137911
0.000133811
0.000133774
0.000107936
0.000103701
0.000137944
0.000133809
0.000133808
0.000103689
0.000103066
9.9131e-05
0.000132422
0.000132415
0.00012845
0.000128442
0.000103064
9.91291e-05
0.000132455
0.000132412
0.000128483
0.000128439
0.000132418
0.000128484
0.000128446
0.000103061
9.91254e-05
0.000132451
0.000128482
0.00012848
9.91149e-05
9.84457e-05
9.49923e-05
0.00012715
0.000127142
0.000123345
0.000123335
9.84437e-05
9.49903e-05
0.000127183
0.000127139
0.000123377
0.000123332
0.000127146
0.000123378
0.000123339
9.84409e-05
9.4987e-05
0.000127179
0.000123376
0.000123373
9.49772e-05
9.42604e-05
9.14389e-05
0.000122112
0.000122102
0.000118482
0.000118471
9.42583e-05
9.14367e-05
0.000122143
0.000122099
0.000118512
0.000118468
0.000122106
0.000118514
0.000118476
9.42558e-05
9.14339e-05
0.000122139
0.000118513
0.000118508
9.14243e-05
9.06681e-05
8.83806e-05
0.000117334
0.000117322
0.000113927
0.000113916
9.06659e-05
8.83785e-05
0.000117364
0.000117319
0.000113956
0.000113912
0.000117328
0.000113959
0.000113921
9.0665e-05
8.83761e-05
0.000117359
0.000113957
0.000113952
8.83672e-05
8.77392e-05
8.59122e-05
0.000112851
0.000112838
0.000109695
0.000109683
8.77371e-05
8.59099e-05
0.00011288
0.000112835
0.000109722
0.00010968
0.000112844
0.000109724
0.000109689
8.77359e-05
8.5908e-05
0.000112875
0.000109725
0.000109719
8.58996e-05
8.53916e-05
8.4073e-05
0.000108719
0.000108706
0.000105855
0.000105841
8.53893e-05
8.40708e-05
0.000108747
0.000108704
0.000105881
0.000105839
0.000108713
0.000105883
0.000105848
8.5388e-05
8.40691e-05
0.000108743
0.000105883
0.000105877
8.40612e-05
8.36755e-05
8.28668e-05
0.000104993
0.00010498
0.000102466
0.000102454
8.36729e-05
8.28642e-05
0.000105019
0.000104977
0.000102493
0.000102452
0.000104987
0.000102495
0.000102462
8.36718e-05
8.28629e-05
0.000105015
0.000102496
0.000102489
8.28555e-05
8.25924e-05
8.22675e-05
0.000101684
0.000101672
9.95162e-05
9.95047e-05
8.25889e-05
8.22643e-05
0.000101711
0.00010167
9.95436e-05
9.95032e-05
0.00010168
9.95451e-05
9.95128e-05
8.25884e-05
8.22638e-05
0.000101707
9.9546e-05
9.95397e-05
8.22568e-05
8.21107e-05
8.22503e-05
9.8874e-05
9.88627e-05
9.71252e-05
9.71144e-05
8.21067e-05
8.22466e-05
9.89012e-05
9.88611e-05
9.71523e-05
9.71134e-05
9.88708e-05
9.71532e-05
9.71229e-05
8.21068e-05
8.22468e-05
9.88974e-05
9.71548e-05
9.71486e-05
8.22408e-05
8.21993e-05
8.27573e-05
9.65889e-05
9.65781e-05
9.52369e-05
9.52271e-05
8.21949e-05
8.27534e-05
9.66157e-05
9.65771e-05
9.52632e-05
9.52261e-05
9.65865e-05
9.52635e-05
9.52351e-05
8.21958e-05
8.27542e-05
9.66121e-05
9.52653e-05
9.52597e-05
8.2749e-05
8.28337e-05
8.38975e-05
9.49023e-05
9.48925e-05
9.41793e-05
9.41696e-05
8.28293e-05
8.38931e-05
9.49281e-05
9.48913e-05
9.42052e-05
9.41695e-05
9.49006e-05
9.42053e-05
9.41784e-05
8.28306e-05
8.38947e-05
9.49247e-05
9.42075e-05
9.4202e-05
8.38906e-05
8.40803e-05
8.56754e-05
9.39995e-05
9.399e-05
9.37133e-05
9.37046e-05
8.40755e-05
8.56739e-05
9.4025e-05
9.39898e-05
9.37381e-05
9.37041e-05
9.39986e-05
9.37369e-05
9.37119e-05
8.40776e-05
8.56737e-05
9.4022e-05
9.37399e-05
9.37339e-05
8.56669e-05
8.60281e-05
8.81712e-05
9.37687e-05
9.376e-05
9.46283e-05
9.46199e-05
8.6026e-05
8.8167e-05
9.37935e-05
9.37597e-05
9.4652e-05
9.46203e-05
9.37669e-05
9.46522e-05
9.4628e-05
8.60263e-05
8.8169e-05
9.37889e-05
9.46547e-05
9.46492e-05
8.81683e-05
8.86079e-05
9.00865e-05
9.50674e-05
9.50587e-05
9.60482e-05
9.60385e-05
8.86025e-05
9.00803e-05
9.50904e-05
9.50589e-05
9.60712e-05
9.60388e-05
9.50679e-05
9.60698e-05
9.6049e-05
8.86053e-05
9.00845e-05
9.50883e-05
9.60737e-05
9.60691e-05
9.00843e-05
9.02526e-05
9.0566e-05
9.61602e-05
9.61504e-05
9.6015e-05
9.60053e-05
9.02459e-05
9.05613e-05
9.61834e-05
9.61507e-05
9.60385e-05
9.60059e-05
9.61611e-05
9.60368e-05
9.60167e-05
9.02507e-05
9.05649e-05
9.61812e-05
9.60418e-05
9.60367e-05
9.05623e-05
9.05543e-05
9.04402e-05
9.5762e-05
9.57522e-05
9.54499e-05
9.54402e-05
9.05502e-05
9.04357e-05
9.57852e-05
9.57532e-05
9.54729e-05
9.54419e-05
9.57634e-05
9.54719e-05
9.54508e-05
9.05534e-05
9.04401e-05
9.57832e-05
9.54765e-05
9.54703e-05
9.0436e-05
9.0405e-05
9.0534e-05
9.53973e-05
9.53876e-05
9.53532e-05
9.53437e-05
9.03998e-05
9.05294e-05
9.54205e-05
9.53896e-05
9.53766e-05
9.53459e-05
9.53982e-05
9.53755e-05
9.53531e-05
9.04047e-05
9.05335e-05
9.54177e-05
9.53794e-05
9.53729e-05
9.05272e-05
9.05498e-05
9.06979e-05
9.54338e-05
9.54242e-05
9.56309e-05
9.56213e-05
9.05451e-05
9.06941e-05
9.54568e-05
9.54261e-05
9.56545e-05
9.56233e-05
9.54335e-05
9.56527e-05
9.56314e-05
9.05493e-05
9.06973e-05
9.54533e-05
9.56572e-05
9.56508e-05
9.06915e-05
9.07006e-05
9.08065e-05
9.56792e-05
9.56695e-05
9.5777e-05
9.57675e-05
9.06964e-05
9.08026e-05
9.57025e-05
9.56713e-05
9.58008e-05
9.57694e-05
9.56796e-05
9.57984e-05
9.57777e-05
9.06999e-05
9.08062e-05
9.56989e-05
9.58032e-05
9.57968e-05
9.0801e-05
9.07987e-05
9.08327e-05
9.57962e-05
9.57865e-05
9.58247e-05
9.58154e-05
9.07943e-05
9.08282e-05
9.58199e-05
9.57883e-05
9.58485e-05
9.58172e-05
9.57968e-05
9.58472e-05
9.58256e-05
9.07982e-05
9.08317e-05
9.58159e-05
9.58509e-05
9.58455e-05
9.08275e-05
9.08164e-05
9.08249e-05
9.58302e-05
9.58208e-05
9.58392e-05
9.58296e-05
9.08116e-05
9.08211e-05
9.58534e-05
9.58223e-05
9.58627e-05
9.58314e-05
9.58307e-05
9.58621e-05
9.58397e-05
9.08153e-05
9.08239e-05
9.58507e-05
9.58655e-05
9.58596e-05
9.08199e-05
9.08096e-05
9.08362e-05
9.58416e-05
9.58317e-05
9.58459e-05
9.58358e-05
9.08054e-05
9.08316e-05
9.5865e-05
9.58337e-05
9.58695e-05
9.5838e-05
9.58417e-05
9.58673e-05
9.58467e-05
9.08085e-05
9.08354e-05
9.58616e-05
9.58718e-05
9.58662e-05
9.08311e-05
9.08205e-05
9.08341e-05
9.58471e-05
9.58371e-05
9.58463e-05
9.58365e-05
9.08153e-05
9.08294e-05
9.58707e-05
9.58394e-05
9.58703e-05
9.5839e-05
9.58468e-05
9.58672e-05
9.58464e-05
9.08196e-05
9.08337e-05
9.58668e-05
9.5873e-05
9.58663e-05
9.08285e-05
9.08219e-05
9.08211e-05
9.5846e-05
9.58362e-05
9.5845e-05
9.58352e-05
9.08167e-05
9.08159e-05
9.58699e-05
9.58387e-05
9.5869e-05
9.58378e-05
9.58459e-05
9.58662e-05
9.58453e-05
9.08212e-05
9.08207e-05
9.58659e-05
9.58717e-05
9.58652e-05
9.08152e-05
9.08059e-05
9.084e-05
9.5845e-05
9.58352e-05
9.58448e-05
9.58351e-05
9.08009e-05
9.0834e-05
9.5869e-05
9.58378e-05
9.58688e-05
9.58376e-05
9.58454e-05
9.58663e-05
9.58453e-05
9.08054e-05
9.08397e-05
9.58652e-05
9.58717e-05
9.58651e-05
9.08358e-05
9.08121e-05
9.08551e-05
9.58445e-05
9.58348e-05
9.5845e-05
9.58353e-05
9.08057e-05
9.08505e-05
9.58685e-05
9.58372e-05
9.58692e-05
9.58378e-05
9.58451e-05
9.58671e-05
9.58455e-05
9.08117e-05
9.08528e-05
9.5865e-05
9.5872e-05
9.58652e-05
9.08466e-05
9.08401e-05
9.08343e-05
9.58459e-05
9.58361e-05
9.58465e-05
9.58364e-05
9.08349e-05
9.0832e-05
9.58695e-05
9.5838e-05
9.58698e-05
9.58382e-05
9.58457e-05
9.58681e-05
9.58458e-05
9.0838e-05
9.08346e-05
9.58654e-05
9.58722e-05
9.58655e-05
9.08269e-05
9.0825e-05
9.08341e-05
9.58472e-05
9.58365e-05
9.58474e-05
9.58366e-05
9.08224e-05
9.08301e-05
9.58696e-05
9.58383e-05
9.58696e-05
9.58387e-05
9.58459e-05
9.58681e-05
9.58463e-05
9.08237e-05
9.08378e-05
9.58656e-05
9.58726e-05
9.5866e-05
9.08297e-05
9.08246e-05
9.08399e-05
9.5848e-05
9.58368e-05
9.58481e-05
9.58369e-05
9.0821e-05
9.08375e-05
9.58695e-05
9.58388e-05
9.58695e-05
9.58389e-05
9.58466e-05
9.58684e-05
9.58467e-05
9.08293e-05
9.08363e-05
9.58663e-05
9.58729e-05
9.58664e-05
9.08315e-05
9.08308e-05
9.08376e-05
9.58485e-05
9.58366e-05
9.58494e-05
9.58377e-05
9.08261e-05
9.08417e-05
9.5869e-05
9.58386e-05
9.587e-05
9.58394e-05
9.58465e-05
9.58691e-05
9.58477e-05
9.08305e-05
9.08314e-05
9.58662e-05
9.58732e-05
9.58675e-05
9.08335e-05
9.08547e-05
9.0762e-05
9.58499e-05
9.58382e-05
9.58484e-05
9.5836e-05
9.08566e-05
9.07592e-05
9.58704e-05
9.58398e-05
9.58681e-05
9.58381e-05
9.58481e-05
9.58676e-05
9.58464e-05
9.085e-05
9.07622e-05
9.58679e-05
9.58717e-05
9.58659e-05
9.07583e-05
9.0769e-05
9.08114e-05
9.58496e-05
9.58371e-05
9.58484e-05
9.58352e-05
9.07702e-05
9.08049e-05
9.58691e-05
9.58391e-05
9.58672e-05
9.58373e-05
9.58474e-05
9.58669e-05
9.58454e-05
9.07674e-05
9.08116e-05
9.58671e-05
9.58708e-05
9.58649e-05
9.07992e-05
9.07566e-05
9.09197e-05
9.58481e-05
9.58348e-05
9.58496e-05
9.58357e-05
9.07506e-05
9.09157e-05
9.58666e-05
9.58368e-05
9.58677e-05
9.5838e-05
9.5845e-05
9.58677e-05
9.58461e-05
9.07571e-05
9.09191e-05
9.58645e-05
9.58717e-05
9.58658e-05
9.09103e-05
9.08684e-05
9.08974e-05
9.58489e-05
9.58349e-05
9.58504e-05
9.58361e-05
9.08622e-05
9.08958e-05
9.58668e-05
9.58372e-05
9.58679e-05
9.58383e-05
9.58453e-05
9.58683e-05
9.58464e-05
9.08698e-05
9.08938e-05
9.5865e-05
9.58722e-05
9.58663e-05
9.08904e-05
9.09067e-05
9.07999e-05
9.58505e-05
9.58361e-05
9.58508e-05
9.58354e-05
9.09037e-05
9.07964e-05
9.58678e-05
9.58383e-05
9.58672e-05
9.58378e-05
9.58463e-05
9.58679e-05
9.58465e-05
9.0905e-05
9.07953e-05
9.58661e-05
9.5871e-05
9.58663e-05
9.08005e-05
9.08519e-05
9.07432e-05
9.58528e-05
9.58377e-05
9.58542e-05
9.58388e-05
9.08483e-05
9.07395e-05
9.58693e-05
9.584e-05
9.58704e-05
9.5841e-05
9.58483e-05
9.58714e-05
9.58501e-05
9.08477e-05
9.07427e-05
9.58681e-05
9.58746e-05
9.58693e-05
9.07422e-05
9.07671e-05
9.07536e-05
9.5857e-05
9.58415e-05
9.58522e-05
9.58376e-05
9.07624e-05
9.07508e-05
9.58733e-05
9.58439e-05
9.58684e-05
9.58397e-05
9.58529e-05
9.58705e-05
9.58479e-05
9.07634e-05
9.07552e-05
9.58723e-05
9.58739e-05
9.58675e-05
9.07451e-05
9.07234e-05
9.07975e-05
9.5852e-05
9.58375e-05
9.58471e-05
9.58318e-05
9.07205e-05
9.07935e-05
9.5868e-05
9.58394e-05
9.58629e-05
9.58346e-05
9.58478e-05
9.58649e-05
9.58427e-05
9.07241e-05
9.07994e-05
9.58673e-05
9.58683e-05
9.5862e-05
9.07849e-05
9.07384e-05
9.08648e-05
9.5847e-05
9.58316e-05
9.58465e-05
9.58311e-05
9.07346e-05
9.08607e-05
9.58628e-05
9.58344e-05
9.58622e-05
9.58339e-05
9.58425e-05
9.58643e-05
9.58421e-05
9.07402e-05
9.08648e-05
9.5862e-05
9.58674e-05
9.58618e-05
9.08596e-05
9.0792e-05
9.09078e-05
9.58457e-05
9.58301e-05
9.5848e-05
9.5832e-05
9.0788e-05
9.09044e-05
9.58611e-05
9.5833e-05
9.58633e-05
9.58355e-05
9.58413e-05
9.58658e-05
9.58436e-05
9.07928e-05
9.09062e-05
9.58609e-05
9.58684e-05
9.58634e-05
9.09055e-05
9.08623e-05
9.0894e-05
9.58473e-05
9.58314e-05
9.58505e-05
9.5835e-05
9.08585e-05
9.08908e-05
9.58625e-05
9.58349e-05
9.58655e-05
9.58377e-05
9.58425e-05
9.58675e-05
9.58453e-05
9.08595e-05
9.08968e-05
9.58625e-05
9.58703e-05
9.58648e-05
9.08772e-05
9.08889e-05
9.0851e-05
9.58498e-05
9.58346e-05
9.58503e-05
9.58354e-05
9.08868e-05
9.08429e-05
9.5865e-05
9.58369e-05
9.58653e-05
9.5837e-05
9.58451e-05
9.58661e-05
9.58436e-05
9.0891e-05
9.08472e-05
9.58645e-05
9.58709e-05
9.58623e-05
9.07777e-05
9.0873e-05
9.08353e-05
9.58514e-05
9.5836e-05
9.58514e-05
9.58352e-05
9.0868e-05
9.08217e-05
9.58664e-05
9.58383e-05
9.58663e-05
9.58377e-05
9.58466e-05
9.58673e-05
9.58454e-05
9.08724e-05
9.08206e-05
9.58653e-05
9.58713e-05
9.58647e-05
9.07963e-05
9.08726e-05
9.07932e-05
9.5852e-05
9.58355e-05
9.5852e-05
9.58359e-05
9.08615e-05
9.07847e-05
9.58667e-05
9.58384e-05
9.58669e-05
9.58383e-05
9.58453e-05
9.58678e-05
9.5848e-05
9.08603e-05
9.07902e-05
9.58646e-05
9.58721e-05
9.58675e-05
9.08663e-05
9.0847e-05
9.07445e-05
9.58534e-05
9.58372e-05
9.58513e-05
9.5835e-05
9.08387e-05
9.07385e-05
9.58681e-05
9.58396e-05
9.58661e-05
9.5838e-05
9.58477e-05
9.58669e-05
9.58475e-05
9.08431e-05
9.07429e-05
9.58671e-05
9.58719e-05
9.5867e-05
9.07973e-05
9.0747e-05
9.08049e-05
9.5852e-05
9.58357e-05
9.58518e-05
9.58356e-05
9.07406e-05
9.07969e-05
9.58668e-05
9.58388e-05
9.58666e-05
9.58385e-05
9.58488e-05
9.58676e-05
9.58469e-05
9.07566e-05
9.0778e-05
9.5868e-05
9.58721e-05
9.58664e-05
9.07417e-05
9.07515e-05
9.09038e-05
9.58514e-05
9.58352e-05
9.58529e-05
9.58368e-05
9.07432e-05
9.08945e-05
9.58662e-05
9.58382e-05
9.58675e-05
9.58391e-05
9.58475e-05
9.58688e-05
9.58465e-05
9.07339e-05
9.08615e-05
9.58672e-05
9.58724e-05
9.58662e-05
9.07656e-05
9.08412e-05
9.09121e-05
9.58511e-05
9.58351e-05
9.58526e-05
9.58367e-05
9.08279e-05
9.09125e-05
9.58658e-05
9.58379e-05
9.58672e-05
9.58394e-05
9.58464e-05
9.58685e-05
9.58473e-05
9.07918e-05
9.09137e-05
9.58661e-05
9.58727e-05
9.58667e-05
9.08412e-05
9.08989e-05
9.08585e-05
9.58519e-05
9.58357e-05
9.58529e-05
9.58363e-05
9.08916e-05
9.08699e-05
9.58665e-05
9.58383e-05
9.58675e-05
9.58398e-05
9.58465e-05
9.58679e-05
9.58482e-05
9.08666e-05
9.09055e-05
9.58659e-05
9.58743e-05
9.58673e-05
9.09025e-05
9.0886e-05
9.07905e-05
9.58533e-05
9.58362e-05
9.58527e-05
9.5836e-05
9.08905e-05
9.07984e-05
9.58679e-05
9.58392e-05
9.58673e-05
9.58397e-05
9.58468e-05
9.58676e-05
9.58477e-05
9.09006e-05
9.08496e-05
9.58661e-05
9.58737e-05
9.58671e-05
9.08885e-05
9.08369e-05
9.07611e-05
9.58536e-05
9.58367e-05
9.58525e-05
9.58356e-05
9.08477e-05
9.07526e-05
9.58681e-05
9.58397e-05
9.58671e-05
9.58392e-05
9.5847e-05
9.58672e-05
9.58471e-05
9.08823e-05
9.0781e-05
9.58664e-05
9.5873e-05
9.58666e-05
9.08315e-05
9.07784e-05
9.07642e-05
9.58527e-05
9.5836e-05
9.5852e-05
9.58351e-05
9.0778e-05
9.07573e-05
9.58674e-05
9.58398e-05
9.58666e-05
9.58386e-05
9.58471e-05
9.58665e-05
9.58465e-05
9.08254e-05
9.07612e-05
9.58667e-05
9.58723e-05
9.5866e-05
9.07789e-05
9.07398e-05
9.08093e-05
9.58525e-05
9.58355e-05
9.5852e-05
9.58353e-05
9.07318e-05
9.08154e-05
9.58671e-05
9.58391e-05
9.58666e-05
9.58391e-05
9.58468e-05
9.58666e-05
9.5847e-05
9.0751e-05
9.0828e-05
9.58663e-05
9.58726e-05
9.58664e-05
9.08015e-05
9.07537e-05
9.08989e-05
9.5852e-05
9.58352e-05
9.5853e-05
9.58367e-05
9.07576e-05
9.09027e-05
9.58666e-05
9.58388e-05
9.58678e-05
9.58401e-05
9.58473e-05
9.58678e-05
9.58482e-05
9.0777e-05
9.09099e-05
9.58667e-05
9.58736e-05
9.58677e-05
9.08271e-05
9.08382e-05
9.08932e-05
9.58519e-05
9.58353e-05
9.58539e-05
9.58371e-05
9.08488e-05
9.08845e-05
9.58665e-05
9.58389e-05
9.58686e-05
9.58402e-05
9.58481e-05
9.58685e-05
9.58475e-05
9.08675e-05
9.08921e-05
9.58676e-05
9.5874e-05
9.58668e-05
9.07803e-05
9.08911e-05
9.08018e-05
9.58536e-05
9.58371e-05
9.58526e-05
9.58359e-05
9.08878e-05
9.07938e-05
9.58684e-05
9.58401e-05
9.5867e-05
9.58395e-05
9.5848e-05
9.58672e-05
9.58469e-05
9.08977e-05
9.08163e-05
9.58674e-05
9.58733e-05
9.58663e-05
9.07582e-05
9.08301e-05
9.07843e-05
9.58537e-05
9.58371e-05
9.58528e-05
9.58359e-05
9.08254e-05
9.07757e-05
9.58684e-05
9.58403e-05
9.58673e-05
9.58396e-05
9.58476e-05
9.58673e-05
9.5847e-05
9.085e-05
9.07771e-05
9.58669e-05
9.58735e-05
9.58665e-05
9.07893e-05
9.07654e-05
9.08205e-05
9.58533e-05
9.58365e-05
9.58533e-05
9.58358e-05
9.07625e-05
9.08002e-05
9.58679e-05
9.58402e-05
9.5868e-05
9.58396e-05
9.58474e-05
9.5867e-05
9.58481e-05
9.07884e-05
9.07852e-05
9.58669e-05
9.58731e-05
9.58676e-05
9.08628e-05
9.07809e-05
9.08365e-05
9.58533e-05
9.58361e-05
9.58523e-05
9.58349e-05
9.07646e-05
9.08126e-05
9.58679e-05
9.584e-05
9.5867e-05
9.58385e-05
9.58471e-05
9.5866e-05
9.58473e-05
9.07611e-05
9.08038e-05
9.58666e-05
9.58719e-05
9.58669e-05
9.08518e-05
9.07851e-05
9.08384e-05
9.58518e-05
9.58345e-05
9.58518e-05
9.58344e-05
9.07636e-05
9.08127e-05
9.58665e-05
9.58381e-05
9.58664e-05
9.5838e-05
9.58466e-05
9.58654e-05
9.58455e-05
9.07591e-05
9.08236e-05
9.58662e-05
9.58715e-05
9.58652e-05
9.07883e-05
9.07743e-05
9.08937e-05
9.58509e-05
9.58334e-05
9.58519e-05
9.58339e-05
9.07505e-05
9.08679e-05
9.58654e-05
9.5837e-05
9.58662e-05
9.58378e-05
9.58452e-05
9.5865e-05
9.58442e-05
9.07624e-05
9.08869e-05
9.5865e-05
9.58712e-05
9.58641e-05
9.07706e-05
9.08267e-05
9.09158e-05
9.58505e-05
9.58325e-05
9.58557e-05
9.58374e-05
9.07938e-05
9.091e-05
9.58649e-05
9.58365e-05
9.58698e-05
9.58415e-05
9.5845e-05
9.58686e-05
9.58479e-05
9.08176e-05
9.0915e-05
9.58652e-05
9.58749e-05
9.58678e-05
9.08392e-05
9.08871e-05
9.08864e-05
9.58556e-05
9.58376e-05
9.58576e-05
9.58401e-05
9.08655e-05
9.08959e-05
9.58702e-05
9.58414e-05
9.58723e-05
9.58437e-05
9.58481e-05
9.58716e-05
9.58519e-05
9.08821e-05
9.08893e-05
9.58679e-05
9.58774e-05
9.58719e-05
9.09047e-05
9.08969e-05
9.08214e-05
9.58563e-05
9.58389e-05
9.58525e-05
9.58359e-05
9.08951e-05
9.08291e-05
9.58708e-05
9.58425e-05
9.58669e-05
9.58389e-05
9.58498e-05
9.58675e-05
9.58475e-05
9.08966e-05
9.08258e-05
9.58699e-05
9.58734e-05
9.58676e-05
9.08869e-05
9.08651e-05
9.07602e-05
9.58515e-05
9.58346e-05
9.58479e-05
9.58306e-05
9.08682e-05
9.07558e-05
9.58659e-05
9.58379e-05
9.58625e-05
9.58344e-05
9.58452e-05
9.58616e-05
9.58435e-05
9.08672e-05
9.07633e-05
9.58652e-05
9.58685e-05
9.58638e-05
9.08312e-05
9.0806e-05
9.07395e-05
9.58485e-05
9.58312e-05
9.58468e-05
9.58295e-05
9.08019e-05
9.0736e-05
9.58631e-05
9.58349e-05
9.58613e-05
9.58336e-05
9.58436e-05
9.58599e-05
9.58419e-05
9.08089e-05
9.07429e-05
9.58638e-05
9.58669e-05
9.58623e-05
9.07786e-05
9.07448e-05
9.07666e-05
9.58482e-05
9.58306e-05
9.58472e-05
9.58289e-05
9.07387e-05
9.0762e-05
9.58626e-05
9.5835e-05
9.58615e-05
9.58343e-05
9.58438e-05
9.58607e-05
9.58421e-05
9.07532e-05
9.07592e-05
9.58648e-05
9.58675e-05
9.58632e-05
9.07548e-05
9.07308e-05
9.08278e-05
9.5848e-05
9.58293e-05
9.58497e-05
9.58333e-05
9.07244e-05
9.08339e-05
9.5862e-05
9.58351e-05
9.58646e-05
9.58357e-05
9.58442e-05
9.58635e-05
9.58435e-05
9.07284e-05
9.08233e-05
9.58647e-05
9.58702e-05
9.58633e-05
9.0747e-05
9.07756e-05
9.08534e-05
9.58491e-05
9.58329e-05
9.58508e-05
9.58346e-05
9.07783e-05
9.08717e-05
9.5864e-05
9.5835e-05
9.58652e-05
9.5838e-05
9.58461e-05
9.58651e-05
9.58459e-05
9.07707e-05
9.08712e-05
9.5866e-05
9.58719e-05
9.58663e-05
9.07782e-05
9.08026e-05
9.08598e-05
9.5851e-05
9.58345e-05
9.58515e-05
9.58343e-05
9.08351e-05
9.08557e-05
9.58655e-05
9.58379e-05
9.58661e-05
9.58379e-05
9.58463e-05
9.58653e-05
9.58458e-05
9.08308e-05
9.08575e-05
9.58668e-05
9.58722e-05
9.58664e-05
9.07929e-05
9.07964e-05
9.09116e-05
9.5852e-05
9.58349e-05
9.58528e-05
9.5835e-05
9.08226e-05
9.08831e-05
9.58665e-05
9.58385e-05
9.58674e-05
9.58387e-05
9.58468e-05
9.58661e-05
9.58464e-05
9.08188e-05
9.08811e-05
9.58673e-05
9.58731e-05
9.58667e-05
9.0783e-05
9.08556e-05
9.08935e-05
9.58529e-05
9.58355e-05
9.58542e-05
9.58369e-05
9.08261e-05
9.09197e-05
9.58675e-05
9.58393e-05
9.58687e-05
9.58405e-05
9.58479e-05
9.58679e-05
9.58479e-05
9.08175e-05
9.09244e-05
9.58681e-05
9.58748e-05
9.5868e-05
9.08267e-05
9.08989e-05
9.0777e-05
9.58556e-05
9.58377e-05
9.58542e-05
9.58384e-05
9.08899e-05
9.08684e-05
9.58701e-05
9.58412e-05
9.58688e-05
9.58419e-05
9.5849e-05
9.58694e-05
9.58503e-05
9.08863e-05
9.08826e-05
9.58692e-05
9.58762e-05
9.58706e-05
9.08975e-05
9.08155e-05
9.07611e-05
9.58573e-05
9.58407e-05
9.5856e-05
9.58397e-05
9.08932e-05
9.07655e-05
9.58718e-05
9.58441e-05
9.58706e-05
9.58432e-05
9.58518e-05
9.58708e-05
9.58522e-05
9.09012e-05
9.07781e-05
9.58721e-05
9.58776e-05
9.58724e-05
9.08452e-05
9.07364e-05
9.08062e-05
9.58596e-05
9.58438e-05
9.58605e-05
9.58435e-05
9.08138e-05
9.07483e-05
9.58741e-05
9.58473e-05
9.5875e-05
9.5847e-05
9.58556e-05
9.58746e-05
9.58558e-05
9.08286e-05
9.07517e-05
9.58758e-05
9.58817e-05
9.5876e-05
9.07729e-05
9.07514e-05
9.08671e-05
9.58649e-05
9.58486e-05
9.58683e-05
9.5851e-05
9.07375e-05
9.07867e-05
9.58794e-05
9.58523e-05
9.58828e-05
9.58547e-05
9.58611e-05
9.58822e-05
9.58627e-05
9.07455e-05
9.07902e-05
9.58814e-05
9.58895e-05
9.58829e-05
9.0748e-05
9.0797e-05
9.09178e-05
9.58742e-05
9.58575e-05
9.58815e-05
9.58644e-05
9.07401e-05
9.08581e-05
9.58887e-05
9.58612e-05
9.5896e-05
9.58681e-05
9.587e-05
9.58955e-05
9.58754e-05
9.07453e-05
9.08617e-05
9.58902e-05
9.59029e-05
9.58956e-05
9.07747e-05
9.08568e-05
9.0942e-05
9.58902e-05
9.58732e-05
9.59042e-05
9.58875e-05
9.07881e-05
9.09307e-05
9.59046e-05
9.5877e-05
9.59187e-05
9.58912e-05
9.58851e-05
9.59184e-05
9.58984e-05
9.07935e-05
9.09304e-05
9.59052e-05
9.59258e-05
9.59182e-05
9.08445e-05
9.09129e-05
9.09303e-05
9.59174e-05
9.59008e-05
9.59501e-05
9.59343e-05
9.08679e-05
9.09475e-05
9.59314e-05
9.59045e-05
9.59641e-05
9.5938e-05
9.59122e-05
9.59649e-05
9.59453e-05
9.08679e-05
9.09503e-05
9.59319e-05
9.59719e-05
9.5964e-05
9.08904e-05
9.09432e-05
9.0888e-05
9.59147e-05
9.58984e-05
9.66122e-05
9.6597e-05
9.09362e-05
9.08816e-05
9.59291e-05
9.59024e-05
9.66253e-05
9.66013e-05
9.59089e-05
9.66267e-05
9.661e-05
9.09322e-05
9.08874e-05
9.59273e-05
9.66337e-05
9.66267e-05
9.0873e-05
9.09113e-05
9.65201e-05
9.65062e-05
9.09089e-05
9.65322e-05
9.65099e-05
0.000127532
0.000127538
0.00012754
9.65173e-05
9.09072e-05
9.65326e-05
0.00023473
0.000234746
0.000234729
0.000234729
0.000235118
0.000234798
0.000234702
0.000234727
0.000235118
0.000234798
0.000234727
0.000234701
0.000234867
0.000233566
0.000233566
0.000104652
3.87412e-05
0.000129113
3.98251e-05
2.16828e-05
2.28305e-05
0.000104655
3.87378e-05
0.000129112
3.9821e-05
0.000233973
0.000233973
0.000233973
0.000232935
0.000232935
0.000232935
0.000232935
0.0002062
9.36742e-05
0.000233969
0.000231994
0.000222612
8.72281e-05
0.000233611
2.16821e-05
2.283e-05
0.000206193
0.000233969
9.36713e-05
0.000231994
0.000222617
0.000233611
8.72254e-05
4.77972e-05
4.77892e-05
0.000231344
4.40186e-05
4.40114e-05
7.25721e-05
4.24351e-05
8.14003e-05
4.37643e-05
2.47748e-05
2.54625e-05
7.25668e-05
4.24309e-05
8.13939e-05
4.37601e-05
0.000232532
0.000232532
0.000232532
0.000231084