/*--------------------------------*- C++ -*----------------------------------*\
| =========                 |                                                 |
| \\      /  F ield         | OpenFOAM: The Open Source CFD Toolbox           |
|  \\    /   O peration     | Version:  v2006                                 |
|   \\  /    A nd           | Website:  www.openfoam.com                      |
|    \\/     M anipulation  |                                                 |
\*---------------------------------------------------------------------------*/
FoamFile
{
    version     2.0;
    format      ascii;
    class       volScalarField;
    location    "125";
    object      p;
}
// * * * * * * * * * * * * * * * * * * * * * * * * * * * * * * * * * * * * * //

dimensions      [0 2 -2 0 0 0 0];


internalField   nonuniform List<scalar> 
171728
(
0.00358297
0.0035833
0.0035833
0.00358635
0.00352762
0.00352804
0.00352804
0.00353103
0.00347687
0.00347684
0.00347684
0.0034796
0.00342449
0.0034245
0.0034245
0.00342728
0.00337314
0.00337315
0.00337315
0.0033759
0.00332317
0.00332318
0.00332318
0.0033259
0.00327465
0.00327466
0.00327466
0.00327734
0.00322742
0.00322744
0.00322744
0.00323009
0.00318129
0.00318131
0.00318131
0.00318394
0.00313606
0.00313608
0.00313608
0.00313868
0.00309155
0.00309158
0.00309158
0.00309414
0.00304764
0.00304766
0.00304766
0.0030502
0.00300424
0.00300426
0.00300426
0.00300677
0.00296131
0.00296132
0.00296132
0.00296382
0.00291881
0.00291882
0.00291882
0.00292132
0.00287671
0.00287672
0.00287672
0.00287921
0.002835
0.002835
0.002835
0.00283748
0.00279365
0.00279365
0.00279365
0.00279612
0.00275264
0.00275263
0.00275263
0.00275509
0.00271194
0.00271191
0.00271192
0.00271437
0.00267153
0.00267149
0.00267149
0.00267395
0.00263139
0.00263135
0.00263135
0.00263379
0.00259151
0.00259146
0.00259146
0.0025939
0.0025519
0.00255184
0.00255184
0.00255426
0.00251258
0.0025125
0.0025125
0.00251491
0.00247372
0.00247364
0.00247364
0.00247601
0.00243535
0.00243525
0.00243525
0.00243757
0.00239764
0.00239754
0.00239754
0.00239979
0.00236062
0.00236054
0.00236054
0.00236273
0.00232416
0.00232411
0.00232411
0.00232627
0.00228806
0.00228801
0.00228801
0.00229015
0.00225217
0.00225211
0.00225211
0.00225423
0.00221635
0.0022163
0.0022163
0.00221842
0.00218057
0.00218051
0.00218051
0.00218263
0.00214478
0.00214473
0.00214473
0.00214685
0.002109
0.00210894
0.00210894
0.00211106
0.00207321
0.00207315
0.00207315
0.00207527
0.00203742
0.00203736
0.00203736
0.00203949
0.00200163
0.00200158
0.00200157
0.0020037
0.00196584
0.00196579
0.00196579
0.00196791
0.00193005
0.00192999
0.00192999
0.00193212
0.00189426
0.0018942
0.0018942
0.00189633
0.00185846
0.00185841
0.00185841
0.00186053
0.00182267
0.00182262
0.00182262
0.00182474
0.00178688
0.00178682
0.00178682
0.00178894
0.00175108
0.00175103
0.00175103
0.00175315
0.00171529
0.00171524
0.00171524
0.00171736
0.0016795
0.00167945
0.00167945
0.00168157
0.00164371
0.00164366
0.00164366
0.00164578
0.00160792
0.00160787
0.00160787
0.00160999
0.00157214
0.00157208
0.00157208
0.0015742
0.00153635
0.00153629
0.00153629
0.00153842
0.00150056
0.00150051
0.00150051
0.00150263
0.00146478
0.00146473
0.00146473
0.00146685
0.001429
0.00142895
0.00142895
0.00143107
0.00139322
0.00139317
0.00139317
0.00139529
0.00135744
0.00135739
0.00135739
0.00135951
0.00132166
0.00132161
0.00132161
0.00132373
0.00128588
0.00128583
0.00128583
0.00128795
0.0012501
0.00125004
0.00125004
0.00125217
0.00121432
0.00121426
0.00121426
0.00121638
0.00117853
0.00117848
0.00117848
0.0011806
0.00114275
0.00114269
0.00114269
0.00114482
0.00110696
0.00110691
0.00110691
0.00110903
0.00107118
0.00107112
0.00107112
0.00107324
0.00103539
0.00103534
0.00103534
0.00103746
0.000999604
0.000999549
0.000999549
0.00100167
0.000963817
0.000963762
0.000963762
0.000965884
0.000928029
0.000927973
0.000927973
0.000930095
0.00089224
0.000892185
0.000892185
0.000894307
0.000856451
0.000856396
0.000856396
0.000858518
0.000820661
0.000820607
0.000820607
0.000822728
0.00078487
0.000784816
0.000784816
0.000786937
0.000749078
0.000749023
0.000749023
0.000751145
0.000713283
0.000713228
0.000713228
0.000715351
0.000677488
0.000677433
0.000677433
0.000679556
0.000641695
0.000641639
0.000641639
0.000643761
0.000605902
0.000605846
0.000605846
0.000607967
0.000570109
0.000570054
0.000570055
0.000572175
0.000534317
0.000534262
0.000534263
0.000536383
0.000498524
0.00049847
0.00049847
0.00050059
0.000462731
0.000462676
0.000462676
0.000464797
0.000426936
0.000426881
0.000426881
0.000429003
0.000391141
0.000391086
0.000391086
0.000393207
0.000355347
0.000355291
0.000355291
0.000357412
0.000319552
0.000319496
0.000319496
0.000321616
0.000283757
0.000283701
0.000283701
0.000285818
0.000247961
0.000247906
0.000247906
0.000250018
0.000212162
0.000212111
0.000212111
0.000214217
0.000176361
0.000176312
0.000176312
0.000178411
0.000140553
0.000140509
0.000140509
0.000142595
0.000104728
0.000104694
0.000104694
0.000106762
6.89144e-05
6.88627e-05
6.88605e-05
7.09039e-05
3.39822e-05
3.35271e-05
3.35231e-05
3.52799e-05
4.51821e-06
3.56307e-06
3.56073e-06
3.94425e-06
0.00359638
0.0035966
0.0035966
0.00359638
0.0035966
0.0035966
0.00359736
0.00359737
0.00359737
0.00359737
0.0035966
0.0035966
0.00359638
0.0035966
0.0035966
0.00359638
0.00358635
0.0035376
0.0035833
0.0035833
0.00353988
0.00353988
0.00358635
0.0035376
0.0035833
0.0035833
0.00353988
0.00353988
0.0035833
0.00353988
0.00353988
0.00358635
0.0035376
0.0035833
0.00353988
0.00353988
0.0035376
0.00353103
0.00348652
0.00352804
0.00352804
0.00348997
0.00348997
0.00353103
0.00348652
0.00352804
0.00352804
0.00348997
0.00348997
0.00352804
0.00348997
0.00348997
0.00353103
0.00348652
0.00352804
0.00348997
0.00348996
0.00348652
0.0034796
0.00343416
0.00347685
0.00347685
0.00343752
0.00343752
0.0034796
0.00343416
0.00347684
0.00347684
0.00343752
0.00343752
0.00347684
0.00343752
0.00343752
0.0034796
0.00343416
0.00347684
0.00343752
0.00343752
0.00343416
0.00342728
0.00338261
0.00342451
0.0034245
0.00338587
0.00338587
0.00342728
0.00338261
0.0034245
0.0034245
0.00338587
0.00338587
0.0034245
0.00338587
0.00338587
0.00342728
0.00338261
0.0034245
0.00338587
0.00338587
0.00338261
0.0033759
0.0033324
0.00337315
0.00337315
0.00333553
0.00333553
0.0033759
0.0033324
0.00337315
0.00337315
0.00333553
0.00333553
0.00337315
0.00333553
0.00333553
0.0033759
0.0033324
0.00337315
0.00333553
0.00333553
0.0033324
0.0033259
0.00328364
0.00332318
0.00332318
0.00328666
0.00328666
0.0033259
0.00328364
0.00332318
0.00332318
0.00328666
0.00328666
0.00332318
0.00328666
0.00328666
0.0033259
0.00328364
0.00332318
0.00328666
0.00328666
0.00328364
0.00327734
0.00323622
0.00327466
0.00327466
0.00323913
0.00323913
0.00327734
0.00323622
0.00327466
0.00327466
0.00323913
0.00323914
0.00327466
0.00323913
0.00323914
0.00327734
0.00323622
0.00327466
0.00323914
0.00323913
0.00323622
0.00323009
0.00318992
0.00322744
0.00322744
0.00319275
0.00319275
0.00323009
0.00318992
0.00322744
0.00322744
0.00319275
0.00319275
0.00322744
0.00319275
0.00319275
0.00323009
0.00318992
0.00322744
0.00319275
0.00319276
0.00318993
0.00318393
0.00314455
0.00318131
0.00318131
0.00314732
0.00314732
0.00318393
0.00314455
0.00318131
0.00318131
0.00314732
0.00314732
0.00318131
0.00314732
0.00314732
0.00318393
0.00314455
0.00318131
0.00314732
0.00314732
0.00314455
0.00313868
0.00309992
0.00313608
0.00313608
0.00310264
0.00310264
0.00313868
0.00309992
0.00313608
0.00313608
0.00310264
0.00310264
0.00313608
0.00310264
0.00310264
0.00313868
0.00309992
0.00313608
0.00310264
0.00310264
0.00309992
0.00309414
0.0030559
0.00309157
0.00309158
0.00305859
0.00305859
0.00309414
0.0030559
0.00309157
0.00309158
0.00305859
0.00305859
0.00309158
0.00305859
0.00305859
0.00309414
0.0030559
0.00309158
0.00305859
0.00305859
0.0030559
0.0030502
0.00301241
0.00304766
0.00304766
0.00301506
0.00301506
0.0030502
0.00301241
0.00304766
0.00304766
0.00301506
0.00301506
0.00304766
0.00301506
0.00301507
0.0030502
0.00301241
0.00304766
0.00301506
0.00301506
0.00301241
0.00300677
0.00296939
0.00300426
0.00300426
0.00297201
0.00297201
0.00300677
0.00296939
0.00300426
0.00300426
0.00297201
0.00297202
0.00300426
0.00297201
0.00297202
0.00300678
0.00296939
0.00300426
0.00297202
0.00297202
0.00296939
0.00296382
0.00292683
0.00296132
0.00296132
0.0029294
0.0029294
0.00296383
0.00292683
0.00296132
0.00296132
0.0029294
0.0029294
0.00296132
0.0029294
0.0029294
0.00296382
0.00292683
0.00296132
0.0029294
0.00292941
0.00292683
0.00292132
0.00288467
0.00291882
0.00291882
0.0028872
0.0028872
0.00292132
0.00288467
0.00291882
0.00291882
0.0028872
0.0028872
0.00291882
0.0028872
0.0028872
0.00292132
0.00288467
0.00291882
0.00288721
0.0028872
0.00288467
0.00287921
0.0028429
0.00287672
0.00287671
0.00284539
0.00284539
0.00287921
0.0028429
0.00287672
0.00287672
0.00284539
0.00284539
0.00287672
0.00284539
0.0028454
0.00287921
0.0028429
0.00287672
0.0028454
0.0028454
0.0028429
0.00283748
0.00280149
0.002835
0.002835
0.00280395
0.00280395
0.00283748
0.00280149
0.002835
0.002835
0.00280395
0.00280396
0.002835
0.00280395
0.00280396
0.00283748
0.00280149
0.002835
0.00280396
0.00280396
0.00280149
0.00279612
0.00276042
0.00279365
0.00279365
0.00276285
0.00276285
0.00279612
0.00276042
0.00279365
0.00279365
0.00276285
0.00276285
0.00279365
0.00276285
0.00276285
0.00279612
0.00276042
0.00279365
0.00276285
0.00276285
0.00276042
0.00275509
0.00271966
0.00275263
0.00275263
0.00272206
0.00272206
0.00275509
0.00271966
0.00275263
0.00275263
0.00272206
0.00272207
0.00275263
0.00272206
0.00272207
0.00275509
0.00271967
0.00275263
0.00272207
0.00272207
0.00271966
0.00271437
0.0026792
0.00271191
0.00271191
0.00268157
0.00268157
0.00271437
0.0026792
0.00271191
0.00271192
0.00268157
0.00268157
0.00271192
0.00268157
0.00268157
0.00271437
0.0026792
0.00271192
0.00268157
0.00268157
0.0026792
0.00267395
0.00263902
0.00267149
0.00267149
0.00264136
0.00264136
0.00267395
0.00263902
0.00267149
0.00267149
0.00264136
0.00264136
0.00267149
0.00264136
0.00264136
0.00267395
0.00263902
0.00267149
0.00264136
0.00264136
0.00263902
0.00263379
0.00259909
0.00263135
0.00263135
0.0026014
0.0026014
0.00263379
0.00259909
0.00263135
0.00263135
0.0026014
0.0026014
0.00263135
0.0026014
0.00260141
0.00263379
0.00259909
0.00263135
0.00260141
0.00260141
0.00259909
0.0025939
0.00255943
0.00259146
0.00259146
0.00256172
0.00256172
0.00259389
0.00255943
0.00259146
0.00259146
0.00256172
0.00256172
0.00259146
0.00256172
0.00256172
0.0025939
0.00255943
0.00259146
0.00256172
0.00256172
0.00255943
0.00255426
0.00252003
0.00255183
0.00255183
0.0025223
0.0025223
0.00255426
0.00252003
0.00255184
0.00255184
0.0025223
0.0025223
0.00255183
0.0025223
0.0025223
0.00255426
0.00252003
0.00255183
0.0025223
0.0025223
0.00252003
0.00251491
0.00248108
0.0025125
0.0025125
0.00248331
0.00248331
0.00251491
0.00248108
0.0025125
0.0025125
0.00248331
0.00248331
0.0025125
0.00248331
0.00248331
0.00251491
0.00248108
0.0025125
0.00248331
0.00248331
0.00248108
0.00247601
0.00244257
0.00247364
0.00247364
0.00244479
0.00244479
0.00247601
0.00244257
0.00247364
0.00247364
0.00244479
0.00244479
0.00247364
0.00244479
0.00244479
0.00247601
0.00244257
0.00247364
0.00244479
0.00244479
0.00244257
0.00243757
0.0024047
0.00243525
0.00243525
0.0024069
0.0024069
0.00243757
0.0024047
0.00243525
0.00243525
0.0024069
0.0024069
0.00243525
0.0024069
0.0024069
0.00243757
0.0024047
0.00243525
0.0024069
0.0024069
0.0024047
0.00239979
0.00236756
0.00239754
0.00239754
0.00236973
0.00236973
0.00239979
0.00236756
0.00239754
0.00239754
0.00236973
0.00236973
0.00239754
0.00236973
0.00236973
0.00239979
0.00236756
0.00239754
0.00236973
0.00236973
0.00236756
0.00236273
0.00233103
0.00236054
0.00236054
0.00233318
0.00233318
0.00236273
0.00233103
0.00236054
0.00236054
0.00233318
0.00233318
0.00236054
0.00233318
0.00233318
0.00236273
0.00233103
0.00236054
0.00233318
0.00233318
0.00233103
0.00232627
0.00229488
0.00232411
0.00232411
0.00229701
0.00229701
0.00232627
0.00229488
0.00232411
0.00232411
0.00229701
0.00229701
0.00232411
0.00229701
0.00229701
0.00232627
0.00229488
0.00232411
0.00229701
0.00229701
0.00229488
0.00229015
0.00225895
0.00228801
0.00228801
0.00226107
0.00226107
0.00229015
0.00225895
0.00228801
0.00228801
0.00226107
0.00226107
0.00228801
0.00226107
0.00226107
0.00229015
0.00225895
0.00228801
0.00226107
0.00226107
0.00225895
0.00225423
0.00222313
0.00225211
0.00225211
0.00222525
0.00222525
0.00225423
0.00222313
0.00225211
0.00225211
0.00222525
0.00222525
0.00225211
0.00222525
0.00222525
0.00225423
0.00222313
0.00225211
0.00222525
0.00222525
0.00222313
0.00221842
0.00218734
0.0022163
0.0022163
0.00218946
0.00218946
0.00221842
0.00218734
0.0022163
0.0022163
0.00218946
0.00218946
0.0022163
0.00218946
0.00218946
0.00221842
0.00218734
0.0022163
0.00218946
0.00218946
0.00218734
0.00218263
0.00215155
0.00218051
0.00218051
0.00215367
0.00215367
0.00218263
0.00215155
0.00218051
0.00218051
0.00215367
0.00215367
0.00218051
0.00215367
0.00215367
0.00218263
0.00215155
0.00218051
0.00215367
0.00215367
0.00215155
0.00214685
0.00211577
0.00214473
0.00214473
0.00211789
0.00211789
0.00214685
0.00211577
0.00214473
0.00214473
0.00211789
0.00211789
0.00214473
0.00211789
0.00211789
0.00214685
0.00211577
0.00214473
0.00211789
0.00211789
0.00211577
0.00211106
0.00207998
0.00210894
0.00210894
0.0020821
0.0020821
0.00211106
0.00207998
0.00210894
0.00210894
0.0020821
0.0020821
0.00210894
0.0020821
0.0020821
0.00211106
0.00207998
0.00210894
0.0020821
0.0020821
0.00207998
0.00207527
0.00204419
0.00207315
0.00207315
0.00204631
0.00204631
0.00207527
0.00204419
0.00207315
0.00207315
0.00204631
0.00204631
0.00207315
0.00204631
0.00204631
0.00207527
0.00204419
0.00207315
0.00204631
0.00204631
0.00204419
0.00203949
0.0020084
0.00203736
0.00203736
0.00201052
0.00201052
0.00203949
0.0020084
0.00203736
0.00203736
0.00201052
0.00201052
0.00203736
0.00201052
0.00201052
0.00203949
0.0020084
0.00203736
0.00201052
0.00201052
0.0020084
0.0020037
0.00197261
0.00200158
0.00200158
0.00197473
0.00197473
0.0020037
0.00197261
0.00200157
0.00200157
0.00197473
0.00197473
0.00200158
0.00197473
0.00197473
0.0020037
0.00197261
0.00200157
0.00197473
0.00197473
0.00197261
0.00196791
0.00193682
0.00196578
0.00196579
0.00193894
0.00193894
0.00196791
0.00193682
0.00196578
0.00196578
0.00193894
0.00193894
0.00196579
0.00193894
0.00193894
0.00196791
0.00193682
0.00196578
0.00193894
0.00193894
0.00193682
0.00193212
0.00190103
0.00192999
0.00192999
0.00190315
0.00190315
0.00193212
0.00190103
0.00192999
0.00192999
0.00190315
0.00190315
0.00192999
0.00190315
0.00190315
0.00193212
0.00190103
0.00193
0.00190315
0.00190315
0.00190103
0.00189632
0.00186524
0.0018942
0.0018942
0.00186736
0.00186736
0.00189632
0.00186524
0.0018942
0.0018942
0.00186736
0.00186736
0.0018942
0.00186736
0.00186736
0.00189632
0.00186524
0.0018942
0.00186736
0.00186736
0.00186524
0.00186053
0.00182944
0.00185841
0.00185841
0.00183156
0.00183156
0.00186053
0.00182944
0.00185841
0.00185841
0.00183156
0.00183156
0.00185841
0.00183156
0.00183156
0.00186053
0.00182944
0.00185841
0.00183156
0.00183156
0.00182944
0.00182474
0.00179365
0.00182262
0.00182262
0.00179577
0.00179577
0.00182474
0.00179365
0.00182262
0.00182262
0.00179577
0.00179577
0.00182262
0.00179577
0.00179577
0.00182474
0.00179365
0.00182262
0.00179577
0.00179577
0.00179365
0.00178894
0.00175786
0.00178682
0.00178682
0.00175998
0.00175998
0.00178894
0.00175786
0.00178682
0.00178682
0.00175998
0.00175998
0.00178682
0.00175998
0.00175998
0.00178894
0.00175786
0.00178682
0.00175998
0.00175998
0.00175786
0.00175315
0.00172206
0.00175103
0.00175103
0.00172418
0.00172418
0.00175315
0.00172207
0.00175103
0.00175103
0.00172418
0.00172418
0.00175103
0.00172418
0.00172419
0.00175315
0.00172206
0.00175103
0.00172418
0.00172418
0.00172206
0.00171736
0.00168628
0.00171524
0.00171524
0.0016884
0.0016884
0.00171736
0.00168628
0.00171524
0.00171524
0.0016884
0.0016884
0.00171524
0.0016884
0.0016884
0.00171736
0.00168627
0.00171524
0.0016884
0.0016884
0.00168627
0.00168157
0.00165049
0.00167945
0.00167945
0.00165261
0.00165261
0.00168157
0.00165049
0.00167945
0.00167945
0.00165261
0.00165261
0.00167945
0.00165261
0.00165261
0.00168157
0.00165049
0.00167945
0.00165261
0.00165261
0.00165049
0.00164578
0.0016147
0.00164366
0.00164366
0.00161682
0.00161682
0.00164578
0.0016147
0.00164366
0.00164366
0.00161682
0.00161682
0.00164366
0.00161682
0.00161682
0.00164578
0.0016147
0.00164366
0.00161682
0.00161682
0.0016147
0.00160999
0.00157891
0.00160787
0.00160787
0.00158103
0.00158103
0.00160999
0.00157891
0.00160787
0.00160787
0.00158103
0.00158103
0.00160787
0.00158103
0.00158103
0.00160999
0.00157891
0.00160787
0.00158103
0.00158103
0.00157891
0.0015742
0.00154312
0.00157208
0.00157208
0.00154524
0.00154524
0.0015742
0.00154312
0.00157208
0.00157208
0.00154524
0.00154524
0.00157208
0.00154524
0.00154524
0.0015742
0.00154312
0.00157208
0.00154524
0.00154524
0.00154312
0.00153842
0.00150734
0.00153629
0.00153629
0.00150945
0.00150945
0.00153842
0.00150734
0.00153629
0.00153629
0.00150945
0.00150945
0.00153629
0.00150945
0.00150945
0.00153842
0.00150734
0.00153629
0.00150945
0.00150945
0.00150734
0.00150263
0.00147155
0.00150051
0.00150051
0.00147367
0.00147367
0.00150263
0.00147155
0.00150051
0.00150051
0.00147367
0.00147367
0.00150051
0.00147367
0.00147367
0.00150263
0.00147155
0.00150051
0.00147367
0.00147367
0.00147155
0.00146685
0.00143577
0.00146473
0.00146473
0.00143789
0.00143789
0.00146685
0.00143577
0.00146473
0.00146473
0.00143789
0.00143789
0.00146473
0.00143789
0.00143789
0.00146685
0.00143577
0.00146473
0.00143789
0.00143789
0.00143577
0.00143107
0.00139999
0.00142895
0.00142895
0.00140211
0.00140211
0.00143107
0.00139999
0.00142895
0.00142895
0.00140211
0.00140211
0.00142895
0.00140211
0.00140211
0.00143107
0.00139999
0.00142895
0.00140211
0.00140211
0.00139999
0.00139529
0.00136421
0.00139317
0.00139317
0.00136633
0.00136633
0.00139529
0.00136421
0.00139317
0.00139317
0.00136633
0.00136633
0.00139317
0.00136633
0.00136633
0.00139529
0.00136421
0.00139317
0.00136633
0.00136633
0.00136421
0.00135951
0.00132843
0.00135739
0.00135739
0.00133055
0.00133055
0.00135951
0.00132843
0.00135739
0.00135739
0.00133055
0.00133055
0.00135739
0.00133055
0.00133055
0.00135951
0.00132843
0.00135739
0.00133055
0.00133055
0.00132843
0.00132373
0.00129265
0.00132161
0.00132161
0.00129477
0.00129477
0.00132373
0.00129265
0.00132161
0.00132161
0.00129477
0.00129477
0.00132161
0.00129477
0.00129477
0.00132373
0.00129265
0.00132161
0.00129477
0.00129477
0.00129265
0.00128795
0.00125687
0.00128583
0.00128583
0.00125899
0.00125899
0.00128795
0.00125687
0.00128583
0.00128583
0.00125899
0.00125899
0.00128583
0.00125899
0.00125899
0.00128795
0.00125687
0.00128583
0.00125899
0.00125899
0.00125687
0.00125217
0.00122109
0.00125004
0.00125004
0.00122321
0.00122321
0.00125217
0.00122109
0.00125004
0.00125004
0.00122321
0.00122321
0.00125004
0.00122321
0.00122321
0.00125217
0.00122109
0.00125004
0.00122321
0.00122321
0.00122109
0.00121638
0.0011853
0.00121426
0.00121426
0.00118742
0.00118742
0.00121638
0.0011853
0.00121426
0.00121426
0.00118742
0.00118742
0.00121426
0.00118742
0.00118742
0.00121638
0.0011853
0.00121426
0.00118742
0.00118742
0.0011853
0.0011806
0.00114952
0.00117848
0.00117848
0.00115164
0.00115164
0.0011806
0.00114952
0.00117848
0.00117848
0.00115164
0.00115164
0.00117848
0.00115164
0.00115164
0.0011806
0.00114952
0.00117848
0.00115164
0.00115164
0.00114952
0.00114481
0.00111374
0.00114269
0.00114269
0.00111586
0.00111586
0.00114481
0.00111374
0.00114269
0.00114269
0.00111586
0.00111586
0.00114269
0.00111586
0.00111586
0.00114481
0.00111373
0.00114269
0.00111586
0.00111585
0.00111373
0.00110903
0.00107795
0.00110691
0.00110691
0.00108007
0.00108007
0.00110903
0.00107795
0.00110691
0.00110691
0.00108007
0.00108007
0.00110691
0.00108007
0.00108007
0.00110903
0.00107795
0.00110691
0.00108007
0.00108007
0.00107795
0.00107324
0.00104216
0.00107112
0.00107112
0.00104428
0.00104428
0.00107324
0.00104216
0.00107112
0.00107112
0.00104428
0.00104428
0.00107112
0.00104428
0.00104428
0.00107324
0.00104216
0.00107112
0.00104428
0.00104428
0.00104216
0.00103746
0.00100638
0.00103534
0.00103534
0.00100849
0.00100849
0.00103746
0.00100638
0.00103534
0.00103534
0.00100849
0.0010085
0.00103534
0.00100849
0.0010085
0.00103746
0.00100638
0.00103534
0.0010085
0.0010085
0.00100638
0.00100167
0.000970589
0.000999549
0.000999549
0.000972708
0.000972708
0.00100167
0.000970589
0.000999549
0.000999549
0.000972708
0.000972708
0.00099955
0.000972708
0.000972709
0.00100167
0.000970589
0.000999549
0.000972708
0.000972709
0.000970589
0.000965883
0.000934801
0.000963762
0.000963762
0.000936921
0.000936921
0.000965883
0.000934801
0.000963762
0.000963762
0.000936921
0.000936921
0.000963763
0.000936921
0.000936922
0.000965883
0.000934801
0.000963762
0.000936921
0.000936921
0.000934801
0.000930095
0.000899012
0.000927974
0.000927973
0.000901133
0.000901133
0.000930094
0.000899012
0.000927973
0.000927973
0.000901133
0.000901133
0.000927974
0.000901133
0.000901133
0.000930095
0.000899012
0.000927974
0.000901133
0.000901133
0.000899012
0.000894306
0.000863223
0.000892185
0.000892185
0.000865344
0.000865343
0.000894306
0.000863223
0.000892185
0.000892185
0.000865343
0.000865344
0.000892186
0.000865344
0.000865343
0.000894306
0.000863223
0.000892186
0.000865344
0.000865343
0.000863223
0.000858517
0.000827434
0.000856396
0.000856396
0.000829553
0.000829553
0.000858517
0.000827434
0.000856396
0.000856396
0.000829553
0.000829554
0.000856397
0.000829553
0.000829553
0.000858517
0.000827434
0.000856396
0.000829554
0.000829553
0.000827433
0.000822728
0.000791643
0.000820607
0.000820606
0.000793763
0.000793763
0.000822728
0.000791643
0.000820606
0.000820607
0.000793763
0.000793763
0.000820607
0.000793763
0.000793763
0.000822728
0.000791643
0.000820606
0.000793763
0.000793763
0.000791642
0.000786937
0.000755851
0.000784816
0.000784816
0.000757971
0.000757971
0.000786937
0.000755851
0.000784816
0.000784816
0.000757971
0.000757971
0.000784815
0.000757971
0.000757972
0.000786937
0.000755851
0.000784815
0.000757971
0.000757971
0.000755851
0.000751144
0.000720056
0.000749023
0.000749023
0.000722176
0.000722176
0.000751145
0.000720056
0.000749023
0.000749023
0.000722176
0.000722176
0.000749023
0.000722176
0.000722177
0.000751145
0.000720056
0.000749023
0.000722176
0.000722177
0.000720056
0.000715349
0.000684261
0.000713228
0.000713228
0.000686382
0.000686381
0.00071535
0.000684261
0.000713228
0.000713228
0.000686382
0.000686382
0.000713229
0.000686382
0.000686382
0.00071535
0.000684261
0.000713229
0.000686382
0.000686382
0.000684262
0.000679554
0.000648467
0.000677433
0.000677433
0.000650588
0.000650588
0.000679554
0.000648467
0.000677433
0.000677433
0.000650588
0.000650588
0.000677434
0.000650588
0.000650588
0.000679555
0.000648467
0.000677434
0.000650588
0.000650587
0.000648467
0.00064376
0.000612674
0.000641639
0.000641639
0.000614795
0.000614795
0.00064376
0.000612674
0.000641639
0.000641639
0.000614795
0.000614795
0.000641639
0.000614795
0.000614795
0.00064376
0.000612674
0.000641639
0.000614795
0.000614794
0.000612674
0.000607967
0.000576882
0.000605847
0.000605846
0.000579003
0.000579003
0.000607967
0.000576882
0.000605846
0.000605846
0.000579003
0.000579003
0.000605846
0.000579003
0.000579003
0.000607967
0.000576882
0.000605846
0.000579003
0.000579003
0.000576882
0.000572175
0.00054109
0.000570055
0.000570054
0.00054321
0.00054321
0.000572175
0.00054109
0.000570055
0.000570055
0.00054321
0.00054321
0.000570054
0.00054321
0.000543211
0.000572175
0.00054109
0.000570054
0.00054321
0.00054321
0.000541089
0.000536383
0.000505297
0.000534263
0.000534262
0.000507417
0.000507417
0.000536383
0.000505297
0.000534262
0.000534263
0.000507417
0.000507417
0.000534262
0.000507417
0.000507418
0.000536383
0.000505297
0.000534262
0.000507417
0.000507418
0.000505297
0.00050059
0.000469504
0.00049847
0.000498469
0.000471623
0.000471623
0.00050059
0.000469504
0.00049847
0.00049847
0.000471623
0.000471623
0.00049847
0.000471623
0.000471624
0.00050059
0.000469504
0.000498469
0.000471623
0.000471624
0.000469504
0.000464797
0.00043371
0.000462676
0.000462676
0.000435829
0.000435829
0.000464797
0.00043371
0.000462676
0.000462676
0.000435829
0.000435829
0.000462677
0.000435829
0.00043583
0.000464797
0.000433709
0.000462676
0.000435829
0.00043583
0.00043371
0.000429002
0.000397915
0.000426881
0.000426881
0.000400034
0.000400034
0.000429002
0.000397915
0.000426881
0.000426881
0.000400034
0.000400035
0.000426882
0.000400035
0.000400035
0.000429002
0.000397915
0.000426882
0.000400035
0.000400034
0.000397915
0.000393206
0.00036212
0.000391086
0.000391086
0.000364239
0.000364239
0.000393206
0.00036212
0.000391086
0.000391086
0.000364239
0.000364239
0.000391087
0.00036424
0.000364239
0.000393206
0.00036212
0.000391087
0.00036424
0.000364239
0.00036212
0.000357411
0.000326325
0.000355291
0.000355291
0.000328444
0.000328444
0.000357411
0.000326325
0.000355291
0.000355291
0.000328444
0.000328444
0.000355292
0.000328444
0.000328444
0.000357411
0.000326325
0.000355292
0.000328444
0.000328444
0.000326326
0.000321614
0.000290531
0.000319496
0.000319496
0.00029265
0.000292649
0.000321614
0.000290531
0.000319496
0.000319496
0.00029265
0.000292649
0.000319497
0.000292649
0.000292648
0.000321614
0.00029053
0.000319497
0.000292649
0.000292648
0.00029053
0.000285817
0.000254737
0.000283702
0.000283701
0.000256853
0.000256853
0.000285816
0.000254737
0.000283702
0.000283701
0.000256853
0.000256853
0.000283701
0.000256853
0.000256853
0.000285817
0.000254736
0.000283701
0.000256853
0.000256853
0.000254736
0.000250019
0.000218942
0.000247907
0.000247906
0.000221055
0.000221056
0.000250018
0.000218942
0.000247907
0.000247906
0.000221055
0.000221056
0.000247906
0.000221056
0.000221056
0.000250018
0.000218942
0.000247905
0.000221056
0.000221056
0.000218941
0.000214218
0.000183146
0.000212111
0.000212111
0.000185256
0.000185256
0.000214218
0.000183146
0.00021211
0.000212111
0.000185256
0.000185256
0.00021211
0.000185256
0.000185257
0.000214218
0.000183146
0.00021211
0.000185256
0.000185257
0.000183146
0.000178411
0.000147346
0.000176312
0.000176312
0.000149452
0.000149452
0.000178411
0.000147346
0.000176312
0.000176312
0.000149452
0.000149452
0.000176313
0.000149452
0.000149452
0.000178411
0.000147346
0.000176312
0.000149452
0.000149452
0.000147346
0.000142594
0.000111538
0.000140508
0.000140509
0.000113639
0.000113638
0.000142595
0.000111537
0.000140508
0.000140509
0.000113638
0.000113637
0.000140509
0.000113637
0.000113637
0.000142595
0.000111537
0.000140509
0.000113637
0.000113637
0.000111537
0.000106761
7.57125e-05
0.000104695
0.000104694
7.78063e-05
7.78057e-05
0.000106761
7.57123e-05
0.000104694
0.000104694
7.78059e-05
7.78039e-05
0.000104695
7.78054e-05
7.78039e-05
0.000106761
7.57104e-05
0.000104694
7.78035e-05
7.7803e-05
7.57106e-05
7.0905e-05
4.00257e-05
6.88635e-05
6.88632e-05
4.21423e-05
4.21416e-05
7.09052e-05
4.00245e-05
6.88629e-05
6.88611e-05
4.21407e-05
4.21367e-05
6.8862e-05
4.214e-05
4.21365e-05
7.09032e-05
4.00204e-05
6.88608e-05
4.21363e-05
4.21363e-05
4.00206e-05
3.52838e-05
7.30827e-06
3.35289e-05
3.35287e-05
9.89466e-06
9.89516e-06
3.52823e-05
7.30888e-06
3.35277e-05
3.35229e-05
9.89482e-06
9.89121e-06
3.35235e-05
9.89421e-06
9.89221e-06
3.52784e-05
7.30503e-06
3.3524e-05
9.89125e-06
9.89297e-06
7.3074e-06
3.94496e-06
3.56436e-06
3.5637e-06
3.9444e-06
3.56323e-06
3.56096e-06
4.51774e-06
4.51614e-06
4.51712e-06
3.56361e-06
3.94077e-06
3.56269e-06
0.00360475
0.00361451
0.00360931
0.00360932
0.0036317
0.00361848
0.00364708
0.00361252
0.0036317
0.00361848
0.00361253
0.00364709
0.00362305
0.00365082
0.00365082
0.00356011
0.00357924
0.00358845
0.00355219
0.00355293
0.00355568
0.0035601
0.00357924
0.00358844
0.00355217
0.00358297
0.00358297
0.00358297
0.00353957
0.00353957
0.00353957
0.00353957
0.00355762
0.00358344
0.00358337
0.00356644
0.00358646
0.00355652
0.00356732
0.00355305
0.00355569
0.00355762
0.00358337
0.00358344
0.00356644
0.00358646
0.00356732
0.00355652
0.00358931
0.00358931
0.00356084
0.00355616
0.00355616
0.00351349
0.00353276
0.00353413
0.00351203
0.00353168
0.00351158
0.00351349
0.00353276
0.00353412
0.00351202
0.00352762
0.00352762
0.00352762
0.00349003
0.00349003
0.00349003
0.00349003
0.00351207
0.00353284
0.00352762
0.00351575
0.00353163
0.00351261
0.00351548
0.00353167
0.00351158
0.00351207
0.00352762
0.00353283
0.00351575
0.00353162
0.00351548
0.00351261
0.00353386
0.00353385
0.0035123
0.00351294
0.00351294
0.00346123
0.00348003
0.0034811
0.0034602
0.00347967
0.00345993
0.00346123
0.00348003
0.0034811
0.0034602
0.00347687
0.00347687
0.00347687
0.0034375
0.00343749
0.00343749
0.00343749
0.00346033
0.00348043
0.00347675
0.0034637
0.00347987
0.00346069
0.00346361
0.00347967
0.00345992
0.00346033
0.00347675
0.00348043
0.0034637
0.00347987
0.00346361
0.00346069
0.00348067
0.00348067
0.00346032
0.00346075
0.00346075
0.0034087
0.00342736
0.00342822
0.00340794
0.00342715
0.00340776
0.0034087
0.00342736
0.00342822
0.00340794
0.00342449
0.00342449
0.00342449
0.00338586
0.00338586
0.00338586
0.00338586
0.0034082
0.00342776
0.00342445
0.00341155
0.00342748
0.00340838
0.00341152
0.00342715
0.00340776
0.0034082
0.00342445
0.00342776
0.00341155
0.00342748
0.00341152
0.00340838
0.0034278
0.0034278
0.00340824
0.00340832
0.00340832
0.00335751
0.00337586
0.0033765
0.00335696
0.00337572
0.00335682
0.00335751
0.00337586
0.0033765
0.00335696
0.00337314
0.00337314
0.00337314
0.00333552
0.00333552
0.00333552
0.00333552
0.00335724
0.00337622
0.00337312
0.00336052
0.00337604
0.00335735
0.00336049
0.00337572
0.00335682
0.00335724
0.00337312
0.00337622
0.00336052
0.00337604
0.00336049
0.00335735
0.0033762
0.0033762
0.00335732
0.00335726
0.00335726
0.00330787
0.00332582
0.00332627
0.00330748
0.0033257
0.00330736
0.00330787
0.00332582
0.00332627
0.00330747
0.00332317
0.00332317
0.00332317
0.00328665
0.00328665
0.00328665
0.00328665
0.00330775
0.00332612
0.00332315
0.00331092
0.003326