/*--------------------------------*- C++ -*----------------------------------*\
| =========                 |                                                 |
| \\      /  F ield         | OpenFOAM: The Open Source CFD Toolbox           |
|  \\    /   O peration     | Version:  v2012                                 |
|   \\  /    A nd           | Website:  www.openfoam.com                      |
|    \\/     M anipulation  |                                                 |
\*---------------------------------------------------------------------------*/
FoamFile
{
    version     2.0;
    format      ascii;
    class       volScalarField;
    location    "125";
    object      p;
}
// * * * * * * * * * * * * * * * * * * * * * * * * * * * * * * * * * * * * * //

dimensions      [0 2 -2 0 0 0 0];


internalField   nonuniform List<scalar> 
171728
(
0.00358291
0.00358324
0.00358324
0.00358629
0.00352755
0.00352797
0.00352797
0.00353096
0.0034768
0.00347677
0.00347677
0.00347952
0.00342441
0.00342442
0.00342443
0.0034272
0.00337306
0.00337307
0.00337307
0.00337582
0.00332308
0.0033231
0.0033231
0.00332582
0.00327456
0.00327457
0.00327457
0.00327726
0.00322733
0.00322735
0.00322735
0.00323
0.0031812
0.00318122
0.00318122
0.00318384
0.00313596
0.00313599
0.00313598
0.00313858
0.00309145
0.00309148
0.00309148
0.00309404
0.00304754
0.00304756
0.00304756
0.00305011
0.00300415
0.00300417
0.00300417
0.00300668
0.00296122
0.00296123
0.00296123
0.00296373
0.00291872
0.00291873
0.00291873
0.00292123
0.00287662
0.00287663
0.00287663
0.00287912
0.00283492
0.00283491
0.00283491
0.00283739
0.00279357
0.00279356
0.00279356
0.00279603
0.00275255
0.00275254
0.00275254
0.002755
0.00271186
0.00271183
0.00271183
0.00271429
0.00267145
0.00267141
0.00267141
0.00267387
0.00263131
0.00263127
0.00263127
0.00263371
0.00259143
0.00259138
0.00259138
0.00259382
0.00255181
0.00255175
0.00255175
0.00255418
0.0025125
0.00251242
0.00251242
0.00251482
0.00247364
0.00247356
0.00247356
0.00247593
0.00243527
0.00243517
0.00243517
0.00243749
0.00239757
0.00239747
0.00239747
0.00239972
0.00236054
0.00236047
0.00236047
0.00236266
0.00232408
0.00232403
0.00232403
0.00232619
0.00228798
0.00228793
0.00228793
0.00229007
0.00225208
0.00225203
0.00225203
0.00225415
0.00221626
0.00221621
0.00221621
0.00221833
0.00218047
0.00218042
0.00218042
0.00218254
0.00214468
0.00214463
0.00214463
0.00214675
0.0021089
0.00210884
0.00210884
0.00211096
0.00207311
0.00207306
0.00207306
0.00207518
0.00203733
0.00203727
0.00203727
0.00203939
0.00200154
0.00200148
0.00200148
0.0020036
0.00196575
0.00196569
0.00196569
0.00196781
0.00192996
0.0019299
0.0019299
0.00193203
0.00189417
0.00189412
0.00189412
0.00189624
0.00185839
0.00185833
0.00185833
0.00186045
0.0018226
0.00182255
0.00182255
0.00182467
0.00178682
0.00178676
0.00178676
0.00178888
0.00175103
0.00175098
0.00175098
0.0017531
0.00171524
0.00171519
0.00171519
0.00171731
0.00167946
0.0016794
0.0016794
0.00168152
0.00164367
0.00164362
0.00164362
0.00164574
0.00160788
0.00160783
0.00160783
0.00160995
0.00157209
0.00157204
0.00157204
0.00157416
0.0015363
0.00153625
0.00153625
0.00153837
0.00150052
0.00150046
0.00150046
0.00150258
0.00146473
0.00146467
0.00146467
0.0014668
0.00142894
0.00142889
0.00142889
0.00143101
0.00139315
0.0013931
0.0013931
0.00139522
0.00135737
0.00135731
0.00135731
0.00135943
0.00132158
0.00132152
0.00132152
0.00132364
0.00128579
0.00128573
0.00128573
0.00128785
0.00125
0.00124994
0.00124994
0.00125206
0.00121421
0.00121415
0.00121415
0.00121628
0.00117842
0.00117836
0.00117836
0.00118049
0.00114263
0.00114257
0.00114257
0.0011447
0.00110684
0.00110679
0.00110679
0.00110891
0.00107105
0.001071
0.001071
0.00107312
0.00103527
0.00103521
0.00103521
0.00103733
0.000999476
0.00099942
0.000999421
0.00100154
0.000963685
0.00096363
0.00096363
0.000965753
0.000927896
0.000927841
0.000927841
0.000929963
0.000892107
0.000892051
0.000892051
0.000894173
0.000856316
0.000856261
0.000856261
0.000858383
0.000820525
0.000820469
0.000820469
0.000822591
0.000784733
0.000784678
0.000784678
0.0007868
0.000748943
0.000748887
0.000748888
0.00075101
0.000713154
0.000713098
0.000713099
0.000715221
0.000677366
0.000677311
0.000677311
0.000679433
0.000641579
0.000641523
0.000641523
0.000643645
0.00060579
0.000605734
0.000605734
0.000607856
0.00057
0.000569944
0.000569944
0.000572066
0.00053421
0.000534154
0.000534155
0.000536277
0.00049842
0.000498364
0.000498365
0.000500487
0.00046263
0.000462574
0.000462575
0.000464696
0.00042684
0.000426785
0.000426785
0.000428906
0.000391053
0.000390997
0.000390997
0.000393117
0.000355267
0.000355211
0.000355211
0.000357331
0.000319481
0.000319426
0.000319426
0.000321544
0.000283696
0.00028364
0.00028364
0.000285757
0.000247907
0.000247853
0.000247853
0.000249966
0.000212115
0.000212063
0.000212063
0.000214171
0.00017632
0.00017627
0.00017627
0.00017837
0.000140519
0.000140474
0.000140474
0.00014256
0.000104702
0.000104668
0.000104667
0.000106734
6.88951e-05
6.8844e-05
6.88418e-05
7.08841e-05
3.397e-05
3.3516e-05
3.35116e-05
3.52676e-05
4.51367e-06
3.55784e-06
3.55543e-06
3.93888e-06
0.00359631
0.00359654
0.00359654
0.00359631
0.00359654
0.00359654
0.0035973
0.0035973
0.0035973
0.0035973
0.00359654
0.00359654
0.00359631
0.00359654
0.00359654
0.00359631
0.00358629
0.00353753
0.00358323
0.00358323
0.00353981
0.00353981
0.00358629
0.00353753
0.00358324
0.00358323
0.00353981
0.00353981
0.00358323
0.00353981
0.00353981
0.00358629
0.00353753
0.00358324
0.00353981
0.00353981
0.00353753
0.00353096
0.00348645
0.00352797
0.00352797
0.0034899
0.0034899
0.00353096
0.00348645
0.00352797
0.00352797
0.00348989
0.00348989
0.00352797
0.00348989
0.00348989
0.00353096
0.00348645
0.00352797
0.00348989
0.00348989
0.00348645
0.00347953
0.00343408
0.00347677
0.00347677
0.00343744
0.00343744
0.00347952
0.00343408
0.00347677
0.00347677
0.00343744
0.00343744
0.00347677
0.00343744
0.00343744
0.00347952
0.00343408
0.00347677
0.00343744
0.00343744
0.00343408
0.0034272
0.00338253
0.00342443
0.00342443
0.00338579
0.00338579
0.0034272
0.00338253
0.00342443
0.00342443
0.00338579
0.00338579
0.00342443
0.00338579
0.00338579
0.0034272
0.00338253
0.00342443
0.00338579
0.00338579
0.00338253
0.00337582
0.00333232
0.00337307
0.00337307
0.00333545
0.00333545
0.00337582
0.00333231
0.00337307
0.00337307
0.00333545
0.00333545
0.00337307
0.00333545
0.00333545
0.00337582
0.00333231
0.00337307
0.00333545
0.00333545
0.00333231
0.00332582
0.00328356
0.0033231
0.0033231
0.00328658
0.00328658
0.00332581
0.00328356
0.0033231
0.0033231
0.00328657
0.00328658
0.0033231
0.00328657
0.00328658
0.00332582
0.00328356
0.0033231
0.00328658
0.00328657
0.00328356
0.00327725
0.00323613
0.00327457
0.00327458
0.00323904
0.00323904
0.00327726
0.00323613
0.00327457
0.00327458
0.00323904
0.00323905
0.00327458
0.00323905
0.00323905
0.00327726
0.00323613
0.00327457
0.00323905
0.00323905
0.00323613
0.00323
0.00318983
0.00322735
0.00322735
0.00319266
0.00319266
0.00323
0.00318983
0.00322735
0.00322735
0.00319266
0.00319266
0.00322735
0.00319266
0.00319266
0.00323
0.00318983
0.00322735
0.00319266
0.00319266
0.00318983
0.00318384
0.00314445
0.00318122
0.00318122
0.00314722
0.00314722
0.00318384
0.00314445
0.00318122
0.00318122
0.00314722
0.00314722
0.00318122
0.00314722
0.00314722
0.00318384
0.00314445
0.00318122
0.00314722
0.00314722
0.00314445
0.00313858
0.00309982
0.00313598
0.00313598
0.00310254
0.00310254
0.00313858
0.00309982
0.00313598
0.00313598
0.00310254
0.00310254
0.00313599
0.00310254
0.00310254
0.00313858
0.00309982
0.00313598
0.00310254
0.00310254
0.00309982
0.00309404
0.00305581
0.00309148
0.00309148
0.00305849
0.00305849
0.00309404
0.00305581
0.00309148
0.00309148
0.00305849
0.00305849
0.00309148
0.00305849
0.00305849
0.00309404
0.00305581
0.00309148
0.00305849
0.00305849
0.00305581
0.0030501
0.00301231
0.00304756
0.00304756
0.00301497
0.00301497
0.0030501
0.00301231
0.00304756
0.00304756
0.00301497
0.00301497
0.00304756
0.00301497
0.00301497
0.00305011
0.00301231
0.00304756
0.00301497
0.00301497
0.00301231
0.00300668
0.0029693
0.00300417
0.00300417
0.00297192
0.00297192
0.00300668
0.0029693
0.00300417
0.00300417
0.00297192
0.00297192
0.00300417
0.00297192
0.00297192
0.00300668
0.0029693
0.00300417
0.00297192
0.00297192
0.0029693
0.00296373
0.00292674
0.00296123
0.00296123
0.00292931
0.00292932
0.00296374
0.00292674
0.00296123
0.00296123
0.00292932
0.00292932
0.00296123
0.00292932
0.00292932
0.00296373
0.00292674
0.00296123
0.00292932
0.00292932
0.00292674
0.00292123
0.00288458
0.00291873
0.00291873
0.00288712
0.00288712
0.00292123
0.00288458
0.00291873
0.00291873
0.00288712
0.00288712
0.00291873
0.00288712
0.00288712
0.00292123
0.00288458
0.00291873
0.00288712
0.00288712
0.00288458
0.00287912
0.00284281
0.00287663
0.00287663
0.00284531
0.00284531
0.00287912
0.00284281
0.00287663
0.00287663
0.00284531
0.00284531
0.00287663
0.00284531
0.00284531
0.00287912
0.00284281
0.00287663
0.00284531
0.00284531
0.00284281
0.00283739
0.0028014
0.00283491
0.00283491
0.00280387
0.00280387
0.00283739
0.0028014
0.00283491
0.00283491
0.00280387
0.00280387
0.00283491
0.00280387
0.00280387
0.00283739
0.0028014
0.00283491
0.00280387
0.00280387
0.0028014
0.00279603
0.00276033
0.00279356
0.00279356
0.00276277
0.00276277
0.00279603
0.00276033
0.00279356
0.00279356
0.00276277
0.00276277
0.00279356
0.00276277
0.00276277
0.00279603
0.00276033
0.00279356
0.00276277
0.00276277
0.00276033
0.002755
0.00271958
0.00275254
0.00275254
0.00272198
0.00272198
0.002755
0.00271958
0.00275254
0.00275254
0.00272198
0.00272198
0.00275254
0.00272198
0.00272198
0.002755
0.00271958
0.00275254
0.00272198
0.00272198
0.00271958
0.00271429
0.00267912
0.00271183
0.00271183
0.00268149
0.00268149
0.00271429
0.00267912
0.00271183
0.00271183
0.00268149
0.00268149
0.00271183
0.00268149
0.00268149
0.00271429
0.00267912
0.00271183
0.00268149
0.00268149
0.00267912
0.00267387
0.00263894
0.00267141
0.00267141
0.00264128
0.00264128
0.00267387
0.00263894
0.00267141
0.00267141
0.00264128
0.00264128
0.00267141
0.00264128
0.00264128
0.00267387
0.00263894
0.00267141
0.00264128
0.00264128
0.00263894
0.00263371
0.00259901
0.00263127
0.00263127
0.00260132
0.00260132
0.00263372
0.00259901
0.00263127
0.00263127
0.00260132
0.00260132
0.00263127
0.00260132
0.00260132
0.00263371
0.00259901
0.00263127
0.00260133
0.00260133
0.00259901
0.00259381
0.00255935
0.00259137
0.00259137
0.00256163
0.00256163
0.00259381
0.00255935
0.00259138
0.00259138
0.00256163
0.00256163
0.00259138
0.00256163
0.00256163
0.00259381
0.00255935
0.00259138
0.00256163
0.00256163
0.00255935
0.00255418
0.00251995
0.00255175
0.00255175
0.00252221
0.00252221
0.00255418
0.00251995
0.00255175
0.00255175
0.00252221
0.00252221
0.00255175
0.00252221
0.00252221
0.00255418
0.00251995
0.00255175
0.00252221
0.00252221
0.00251995
0.00251482
0.002481
0.00251242
0.00251242
0.00248323
0.00248323
0.00251482
0.002481
0.00251242
0.00251242
0.00248323
0.00248323
0.00251242
0.00248323
0.00248323
0.00251482
0.002481
0.00251242
0.00248323
0.00248323
0.002481
0.00247593
0.0024425
0.00247356
0.00247356
0.00244471
0.00244471
0.00247593
0.0024425
0.00247356
0.00247356
0.00244471
0.00244471
0.00247356
0.00244471
0.00244471
0.00247593
0.0024425
0.00247356
0.00244471
0.00244471
0.0024425
0.00243749
0.00240463
0.00243517
0.00243517
0.00240683
0.00240683
0.00243749
0.00240463
0.00243517
0.00243517
0.00240683
0.00240683
0.00243517
0.00240683
0.00240683
0.00243749
0.00240463
0.00243517
0.00240683
0.00240683
0.00240463
0.00239972
0.00236748
0.00239747
0.00239747
0.00236966
0.00236966
0.00239972
0.00236748
0.00239747
0.00239747
0.00236966
0.00236966
0.00239747
0.00236966
0.00236966
0.00239972
0.00236748
0.00239747
0.00236966
0.00236966
0.00236748
0.00236266
0.00233096
0.00236047
0.00236047
0.0023331
0.0023331
0.00236266
0.00233096
0.00236047
0.00236047
0.0023331
0.0023331
0.00236047
0.0023331
0.0023331
0.00236266
0.00233096
0.00236047
0.0023331
0.0023331
0.00233096
0.00232619
0.0022948
0.00232403
0.00232403
0.00229694
0.00229694
0.00232619
0.0022948
0.00232403
0.00232403
0.00229694
0.00229693
0.00232403
0.00229694
0.00229694
0.00232619
0.0022948
0.00232403
0.00229693
0.00229693
0.0022948
0.00229007
0.00225887
0.00228793
0.00228793
0.00226099
0.00226099
0.00229007
0.00225887
0.00228793
0.00228793
0.00226099
0.00226099
0.00228793
0.00226099
0.00226099
0.00229007
0.00225887
0.00228793
0.00226099
0.00226099
0.00225887
0.00225415
0.00222304
0.00225203
0.00225203
0.00222516
0.00222516
0.00225415
0.00222304
0.00225203
0.00225203
0.00222516
0.00222516
0.00225203
0.00222516
0.00222516
0.00225415
0.00222304
0.00225203
0.00222516
0.00222516
0.00222304
0.00221833
0.00218724
0.00221621
0.00221621
0.00218936
0.00218936
0.00221833
0.00218724
0.00221621
0.00221621
0.00218936
0.00218936
0.00221621
0.00218936
0.00218936
0.00221833
0.00218724
0.00221621
0.00218936
0.00218936
0.00218724
0.00218254
0.00215145
0.00218042
0.00218042
0.00215357
0.00215357
0.00218254
0.00215145
0.00218042
0.00218042
0.00215357
0.00215357
0.00218042
0.00215357
0.00215357
0.00218254
0.00215145
0.00218042
0.00215357
0.00215357
0.00215145
0.00214675
0.00211567
0.00214463
0.00214463
0.00211779
0.00211779
0.00214675
0.00211567
0.00214463
0.00214463
0.00211779
0.00211779
0.00214463
0.00211779
0.00211779
0.00214675
0.00211567
0.00214463
0.00211779
0.00211779
0.00211567
0.00211096
0.00207988
0.00210884
0.00210884
0.002082
0.002082
0.00211096
0.00207988
0.00210884
0.00210884
0.002082
0.002082
0.00210884
0.002082
0.002082
0.00211096
0.00207988
0.00210884
0.002082
0.002082
0.00207988
0.00207518
0.0020441
0.00207306
0.00207306
0.00204622
0.00204622
0.00207518
0.0020441
0.00207306
0.00207306
0.00204622
0.00204622
0.00207306
0.00204622
0.00204622
0.00207518
0.0020441
0.00207306
0.00204622
0.00204622
0.0020441
0.00203939
0.00200831
0.00203727
0.00203727
0.00201043
0.00201043
0.00203939
0.00200831
0.00203727
0.00203727
0.00201043
0.00201043
0.00203727
0.00201043
0.00201043
0.00203939
0.00200831
0.00203727
0.00201043
0.00201043
0.00200831
0.0020036
0.00197252
0.00200148
0.00200148
0.00197464
0.00197464
0.0020036
0.00197252
0.00200148
0.00200148
0.00197464
0.00197464
0.00200148
0.00197464
0.00197464
0.0020036
0.00197252
0.00200148
0.00197464
0.00197464
0.00197252
0.00196781
0.00193673
0.00196569
0.00196569
0.00193885
0.00193885
0.00196781
0.00193673
0.00196569
0.00196569
0.00193885
0.00193885
0.00196569
0.00193885
0.00193885
0.00196781
0.00193673
0.00196569
0.00193885
0.00193885
0.00193673
0.00193203
0.00190094
0.0019299
0.0019299
0.00190306
0.00190306
0.00193202
0.00190094
0.0019299
0.0019299
0.00190306
0.00190306
0.0019299
0.00190306
0.00190306
0.00193203
0.00190094
0.0019299
0.00190306
0.00190306
0.00190094
0.00189624
0.00186516
0.00189412
0.00189412
0.00186728
0.00186728
0.00189624
0.00186516
0.00189412
0.00189412
0.00186728
0.00186728
0.00189412
0.00186728
0.00186728
0.00189624
0.00186516
0.00189412
0.00186728
0.00186728
0.00186516
0.00186045
0.00182937
0.00185833
0.00185833
0.00183149
0.00183149
0.00186045
0.00182937
0.00185833
0.00185833
0.00183149
0.00183149
0.00185833
0.00183149
0.00183149
0.00186045
0.00182937
0.00185833
0.00183149
0.00183149
0.00182937
0.00182467
0.00179359
0.00182255
0.00182255
0.00179571
0.00179571
0.00182467
0.00179359
0.00182255
0.00182255
0.00179571
0.00179571
0.00182255
0.00179571
0.00179571
0.00182467
0.00179359
0.00182255
0.00179571
0.00179571
0.00179359
0.00178888
0.0017578
0.00178676
0.00178676
0.00175992
0.00175992
0.00178888
0.0017578
0.00178676
0.00178676
0.00175992
0.00175992
0.00178676
0.00175992
0.00175992
0.00178888
0.0017578
0.00178676
0.00175992
0.00175992
0.0017578
0.0017531
0.00172202
0.00175098
0.00175098
0.00172414
0.00172414
0.0017531
0.00172202
0.00175098
0.00175098
0.00172414
0.00172414
0.00175098
0.00172414
0.00172414
0.0017531
0.00172202
0.00175098
0.00172414
0.00172414
0.00172202
0.00171731
0.00168623
0.00171519
0.00171519
0.00168835
0.00168835
0.00171731
0.00168623
0.00171519
0.00171519
0.00168835
0.00168835
0.00171519
0.00168835
0.00168835
0.00171731
0.00168623
0.00171519
0.00168835
0.00168835
0.00168623
0.00168152
0.00165044
0.0016794
0.0016794
0.00165256
0.00165256
0.00168152
0.00165044
0.0016794
0.0016794
0.00165256
0.00165256
0.0016794
0.00165256
0.00165256
0.00168152
0.00165044
0.0016794
0.00165256
0.00165256
0.00165044
0.00164574
0.00161465
0.00164362
0.00164362
0.00161678
0.00161678
0.00164574
0.00161465
0.00164362
0.00164362
0.00161678
0.00161678
0.00164362
0.00161678
0.00161678
0.00164574
0.00161465
0.00164362
0.00161678
0.00161678
0.00161465
0.00160995
0.00157886
0.00160783
0.00160783
0.00158098
0.00158098
0.00160995
0.00157886
0.00160783
0.00160783
0.00158098
0.00158098
0.00160783
0.00158098
0.00158098
0.00160995
0.00157886
0.00160783
0.00158098
0.00158098
0.00157886
0.00157416
0.00154307
0.00157204
0.00157204
0.00154519
0.00154519
0.00157416
0.00154307
0.00157204
0.00157204
0.00154519
0.00154519
0.00157204
0.00154519
0.00154519
0.00157416
0.00154307
0.00157204
0.00154519
0.00154519
0.00154307
0.00153837
0.00150729
0.00153625
0.00153625
0.00150941
0.00150941
0.00153837
0.00150729
0.00153625
0.00153625
0.00150941
0.00150941
0.00153625
0.00150941
0.00150941
0.00153837
0.00150729
0.00153625
0.00150941
0.00150941
0.00150729
0.00150258
0.0014715
0.00150046
0.00150046
0.00147362
0.00147362
0.00150258
0.0014715
0.00150046
0.00150046
0.00147362
0.00147362
0.00150046
0.00147362
0.00147362
0.00150258
0.0014715
0.00150046
0.00147362
0.00147362
0.0014715
0.00146679
0.00143571
0.00146467
0.00146467
0.00143783
0.00143783
0.00146679
0.00143571
0.00146467
0.00146467
0.00143783
0.00143783
0.00146467
0.00143783
0.00143783
0.00146679
0.00143571
0.00146467
0.00143783
0.00143783
0.00143571
0.00143101
0.00139993
0.00142889
0.00142889
0.00140205
0.00140205
0.00143101
0.00139993
0.00142889
0.00142889
0.00140205
0.00140205
0.00142889
0.00140205
0.00140205
0.00143101
0.00139993
0.00142889
0.00140205
0.00140205
0.00139993
0.00139522
0.00136414
0.0013931
0.0013931
0.00136626
0.00136626
0.00139522
0.00136414
0.0013931
0.0013931
0.00136626
0.00136626
0.0013931
0.00136626
0.00136626
0.00139522
0.00136414
0.0013931
0.00136626
0.00136626
0.00136414
0.00135943
0.00132835
0.00135731
0.00135731
0.00133047
0.00133047
0.00135943
0.00132835
0.00135731
0.00135731
0.00133047
0.00133047
0.00135731
0.00133047
0.00133047
0.00135943
0.00132835
0.00135731
0.00133047
0.00133047
0.00132835
0.00132364
0.00129256
0.00132152
0.00132152
0.00129468
0.00129468
0.00132364
0.00129256
0.00132152
0.00132152
0.00129468
0.00129468
0.00132152
0.00129468
0.00129468
0.00132364
0.00129256
0.00132152
0.00129468
0.00129468
0.00129256
0.00128785
0.00125677
0.00128573
0.00128573
0.00125889
0.00125889
0.00128785
0.00125677
0.00128573
0.00128573
0.00125889
0.00125889
0.00128573
0.00125889
0.00125889
0.00128785
0.00125677
0.00128573
0.00125889
0.00125889
0.00125677
0.00125206
0.00122098
0.00124994
0.00124994
0.0012231
0.0012231
0.00125206
0.00122098
0.00124994
0.00124994
0.0012231
0.0012231
0.00124994
0.0012231
0.0012231
0.00125206
0.00122098
0.00124994
0.0012231
0.0012231
0.00122098
0.00121628
0.00118519
0.00121415
0.00121415
0.00118731
0.00118731
0.00121627
0.00118519
0.00121415
0.00121415
0.00118731
0.00118731
0.00121415
0.00118731
0.00118731
0.00121628
0.00118519
0.00121415
0.00118731
0.00118731
0.00118519
0.00118048
0.0011494
0.00117836
0.00117836
0.00115152
0.00115152
0.00118048
0.0011494
0.00117836
0.00117836
0.00115152
0.00115152
0.00117836
0.00115152
0.00115152
0.00118048
0.0011494
0.00117836
0.00115152
0.00115152
0.0011494
0.0011447
0.00111361
0.00114257
0.00114257
0.00111573
0.00111573
0.0011447
0.00111361
0.00114257
0.00114257
0.00111573
0.00111573
0.00114258
0.00111573
0.00111573
0.0011447
0.00111361
0.00114257
0.00111573
0.00111573
0.00111361
0.00110891
0.00107783
0.00110679
0.00110679
0.00107995
0.00107995
0.00110891
0.00107783
0.00110679
0.00110679
0.00107995
0.00107995
0.00110679
0.00107995
0.00107995
0.00110891
0.00107783
0.00110679
0.00107995
0.00107995
0.00107783
0.00107312
0.00104204
0.001071
0.001071
0.00104416
0.00104416
0.00107312
0.00104204
0.001071
0.001071
0.00104416
0.00104416
0.001071
0.00104416
0.00104416
0.00107312
0.00104204
0.001071
0.00104416
0.00104416
0.00104204
0.00103733
0.00100625
0.00103521
0.00103521
0.00100837
0.00100837
0.00103733
0.00100625
0.00103521
0.00103521
0.00100837
0.00100837
0.00103521
0.00100837
0.00100837
0.00103733
0.00100625
0.00103521
0.00100837
0.00100837
0.00100625
0.00100154
0.000970458
0.00099942
0.00099942
0.000972578
0.000972578
0.00100154
0.000970458
0.00099942
0.00099942
0.000972578
0.000972578
0.000999421
0.000972578
0.000972578
0.00100154
0.000970458
0.000999421
0.000972579
0.000972578
0.000970458
0.000965751
0.000934668
0.00096363
0.00096363
0.000936789
0.000936788
0.000965751
0.000934668
0.00096363
0.00096363
0.000936788
0.000936789
0.000963631
0.000936789
0.000936788
0.000965751
0.000934668
0.000963631
0.000936789
0.000936788
0.000934668
0.000929962
0.000898879
0.000927841
0.00092784
0.000900999
0.000900999
0.000929961
0.000898879
0.000927841
0.000927841
0.000900999
0.000901
0.000927841
0.000900999
0.000900999
0.000929962
0.000898879
0.000927841
0.000901
0.000900999
0.000898879
0.000894173
0.000863089
0.000892052
0.000892051
0.000865209
0.000865209
0.000894172
0.000863089
0.000892052
0.000892051
0.000865209
0.00086521
0.000892052
0.000865209
0.000865209
0.000894172
0.000863089
0.000892052
0.00086521
0.000865209
0.000863089
0.000858382
0.000827297
0.000856261
0.000856261
0.000829418
0.000829418
0.000858382
0.000827297
0.000856261
0.000856261
0.000829418
0.000829418
0.000856262
0.000829418
0.000829417
0.000858382
0.000827297
0.000856261
0.000829418
0.000829417
0.000827297
0.000822591
0.000791506
0.000820469
0.00082047
0.000793626
0.000793626
0.000822591
0.000791506
0.000820469
0.000820469
0.000793626
0.000793626
0.00082047
0.000793626
0.000793626
0.000822591
0.000791505
0.00082047
0.000793626
0.000793626
0.000791506
0.000786799
0.000755715
0.000784678
0.000784678
0.000757835
0.000757835
0.000786799
0.000755715
0.000784677
0.000784678
0.000757835
0.000757836
0.000784679
0.000757835
0.000757835
0.000786799
0.000755715
0.000784678
0.000757836
0.000757835
0.000755715
0.000751008
0.000719926
0.000748887
0.000748887
0.000722046
0.000722046
0.000751008
0.000719926
0.000748887
0.000748888
0.000722046
0.000722047
0.000748888
0.000722046
0.000722046
0.000751009
0.000719926
0.000748888
0.000722047
0.000722046
0.000719926
0.000715219
0.000684138
0.000713099
0.000713098
0.000686259
0.000686258
0.00071522
0.000684138
0.000713098
0.000713099
0.000686259
0.000686259
0.0007131
0.000686258
0.000686258
0.00071522
0.000684138
0.000713099
0.000686259
0.000686258
0.000684138
0.000679432
0.000648351
0.000677311
0.00067731
0.000650471
0.000650471
0.000679432
0.00064835
0.000677311
0.000677311
0.000650471
0.000650471
0.000677312
0.000650471
0.00065047
0.000679432
0.00064835
0.000677312
0.000650471
0.00065047
0.00064835
0.000643644
0.000612562
0.000641523
0.000641523
0.000614683
0.000614682
0.000643644
0.000612562
0.000641523
0.000641523
0.000614682
0.000614682
0.000641524
0.000614682
0.000614682
0.000643644
0.000612561
0.000641523
0.000614682
0.000614681
0.000612561
0.000607855
0.000576772
0.000605734
0.000605734
0.000578893
0.000578893
0.000607855
0.000576772
0.000605734
0.000605734
0.000578893
0.000578892
0.000605735
0.000578893
0.000578892
0.000607855
0.000576771
0.000605734
0.000578892
0.000578892
0.000576772
0.000572065
0.000540982
0.000569945
0.000569944
0.000543103
0.000543103
0.000572065
0.000540982
0.000569944
0.000569944
0.000543103
0.000543103
0.000569945
0.000543103
0.000543102
0.000572065
0.000540982
0.000569945
0.000543103
0.000543102
0.000540982
0.000536275
0.000505192
0.000534155
0.000534154
0.000507312
0.000507312
0.000536275
0.000505192
0.000534154
0.000534155
0.000507312
0.000507313
0.000534155
0.000507313
0.000507312
0.000536276
0.000505192
0.000534155
0.000507313
0.000507312
0.000505192
0.000500485
0.000469402
0.000498364
0.000498364
0.000471522
0.000471522
0.000500485
0.000469402
0.000498364
0.000498365
0.000471522
0.000471523
0.000498365
0.000471522
0.000471522
0.000500485
0.000469402
0.000498365
0.000471523
0.000471522
0.000469402
0.000464695
0.000433612
0.000462574
0.000462574
0.000435733
0.000435732
0.000464695
0.000433612
0.000462574
0.000462574
0.000435733
0.000435733
0.000462575
0.000435733
0.000435732
0.000464695
0.000433612
0.000462575
0.000435733
0.000435732
0.000433612
0.000428905
0.000397825
0.000426785
0.000426785
0.000399945
0.000399944
0.000428905
0.000397824
0.000426785
0.000426785
0.000399944
0.000399944
0.000426785
0.000399944
0.000399943
0.000428905
0.000397824
0.000426785
0.000399944
0.000399943
0.000397824
0.000393117
0.000362038
0.000390998
0.000390997
0.000364158
0.000364158
0.000393117
0.000362038
0.000390998
0.000390997
0.000364158
0.000364158
0.000390998
0.000364158
0.000364157
0.000393117
0.000362038
0.000390997
0.000364157
0.000364156
0.000362038
0.00035733
0.000326253
0.000355212
0.000355211
0.000328372
0.000328372
0.00035733
0.000326253
0.000355211
0.000355211
0.000328372
0.000328372
0.000355212
0.000328372
0.000328371
0.00035733
0.000326253
0.000355211
0.000328372
0.000328371
0.000326253
0.000321543
0.000290468
0.000319426
0.000319426
0.000292586
0.000292586
0.000321543
0.000290468
0.000319426
0.000319426
0.000292586
0.000292586
0.000319426
0.000292586
0.000292586
0.000321544
0.000290468
0.000319426
0.000292586
0.000292586
0.000290468
0.000285755
0.000254682
0.00028364
0.00028364
0.000256798
0.000256798
0.000285756
0.000254682
0.00028364
0.00028364
0.000256798
0.000256798
0.000283641
0.000256798
0.000256798
0.000285756
0.000254682
0.000283641
0.000256798
0.000256798
0.000254682
0.000249964
0.000218893
0.000247852
0.000247852
0.000221007
0.000221008
0.000249965
0.000218894
0.000247852
0.000247853
0.000221007
0.000221008
0.000247853
0.000221008
0.000221007
0.000249965
0.000218893
0.000247853
0.000221008
0.000221007
0.000218894
0.000214169
0.000183103
0.000212063
0.000212063
0.000185214
0.000185214
0.000214169
0.000183103
0.000212062
0.000212063
0.000185214
0.000185214
0.000212063
0.000185214
0.000185214
0.000214169
0.000183103
0.000212063
0.000185214
0.000185213
0.000183103
0.000178369
0.000147311
0.00017627
0.000176271
0.000149417
0.000149417
0.000178369
0.000147311
0.00017627
0.00017627
0.000149417
0.000149417
0.000176271
0.000149417
0.000149416
0.000178369
0.00014731
0.000176271
0.000149417
0.000149416
0.00014731
0.00014256
0.00011151
0.000140475
0.000140474
0.000113611
0.00011361
0.000142559
0.00011151
0.000140474
0.000140474
0.000113611
0.00011361
0.000140475
0.00011361
0.000113609
0.000142559
0.000111509
0.000140474
0.00011361
0.000113609
0.000111509
0.000106734
7.56918e-05
0.000104668
0.000104668
7.77852e-05
7.77854e-05
0.000106734
7.5692e-05
0.000104668
0.000104668
7.77849e-05
7.77837e-05
0.000104668
7.77851e-05
7.77829e-05
0.000106734
7.56901e-05
0.000104667
7.77833e-05
7.77822e-05
7.56899e-05
7.08856e-05
4.00119e-05
6.88446e-05
6.88445e-05
4.21281e-05
4.21279e-05
7.08855e-05
4.00114e-05
6.88442e-05
6.88424e-05
4.21263e-05
4.21231e-05
6.88427e-05
4.21264e-05
4.21227e-05
7.08836e-05
4.00071e-05
6.88415e-05
4.21227e-05
4.21224e-05
4.00073e-05
3.52712e-05
7.30132e-06
3.35167e-05
3.35173e-05
9.88742e-06
9.88881e-06
3.52704e-05
7.30294e-06
3.35154e-05
3.35113e-05
9.88756e-06
9.88483e-06
3.3512e-05
9.88801e-06
9.88593e-06
3.52663e-05
7.2991e-06
3.35124e-05
9.88495e-06
9.88668e-06
7.30119e-06
3.9393e-06
3.55828e-06
3.55838e-06
3.93964e-06
3.55715e-06
3.55562e-06
4.51377e-06
4.51206e-06
4.51273e-06
3.55804e-06
3.93596e-06
3.55717e-06
0.00360469
0.00361445
0.00360925
0.00360925
0.00363164
0.00361841
0.00364702
0.00361246
0.00363163
0.00361842
0.00361246
0.00364703
0.00362299
0.00365076
0.00365076
0.00356004
0.00357918
0.00358839
0.00355212
0.00355286
0.00355562
0.00356003
0.00357917
0.00358838
0.00355211
0.00358291
0.00358291
0.00358291
0.0035395
0.0035395
0.0035395
0.0035395
0.00355755
0.00358337
0.00358331
0.00356638
0.0035864
0.00355646
0.00356726
0.00355298
0.00355562
0.00355756
0.00358331
0.00358337
0.00356638
0.0035864
0.00356726
0.00355646
0.00358925
0.00358924
0.00356077
0.00355609
0.00355609
0.00351342
0.0035327
0.00353406
0.00351196
0.00353161
0.00351151
0.00351342
0.0035327
0.00353406
0.00351195
0.00352755
0.00352755
0.00352755
0.00348996
0.00348996
0.00348996
0.00348996
0.003512
0.00353277
0.00352755
0.00351568
0.00353156
0.00351254
0.00351541
0.0035316
0.00351151
0.003512
0.00352755
0.00353276
0.00351568
0.00353156
0.00351541
0.00351254
0.00353379
0.00353379
0.00351223
0.00351287
0.00351287
0.00346115
0.00347996
0.00348103
0.00346013
0.00347959
0.00345985
0.00346115
0.00347996
0.00348103
0.00346013
0.0034768
0.0034768
0.0034768
0.00343742
0.00343742
0.00343742
0.00343742
0.00346025
0.00348036
0.00347667
0.00346363
0.0034798
0.00346061
0.00346354
0.00347959
0.00345985
0.00346025
0.00347667
0.00348036
0.00346363
0.00347979
0.00346354
0.00346061
0.0034806
0.0034806
0.00346024
0.00346068
0.00346068
0.00340863
0.00342728
0.00342814
0.00340786
0.00342707
0.00340768
0.00340863
0.00342728
0.00342814
0.00340786
0.00342441
0.00342441
0.00342441
0.00338578
0.00338578
0.00338578
0.00338578
0.00340812
0.00342769
0.00342438
0.00341148
0.0034274
0.0034083
0.00341144
0.00342708
0.00340768
0.00340812
0.00342438
0.00342769
0.00341148
0.0034274
0.00341144
0.0034083
0.00342773
0.00342773
0.00340816
0.00340824
0.00340824
0.00335743
0.00337578
0.00337642
0.00335687
0.00337564
0.00335674
0.00335743
0.00337578
0.00337642
0.00335687
0.00337306
0.00337306
0.00337306
0.00333544
0.00333544
0.00333544
0.00333544
0.00335716
0.00337613
0.00337304
0.00336044
0.00337596
0.00335727
0.00336041
0.00337564
0.00335674
0.00335716
0.00337304
0.00337613
0.00336044
0.00337596
0.00336041
0.00335727
0.00337612
0.00337612
0.00335724
0.00335718
0.00335718
0.00330778
0.00332573
0.00332619
0.00330739
0.00332562
0.00330728
0.00330778
0.00332573
0.00332619
0.00330739
0.00332308
0.00332308
0.00332308
0.00328656
0.00328656
0.00328656
0.00328656
0.00330767
0.00332603
0.00332307
0.00331083
0.00332592