/*--------------------------------*- C++ -*----------------------------------*\
| =========                 |                                                 |
| \\      /  F ield         | OpenFOAM: The Open Source CFD Toolbox           |
|  \\    /   O peration     | Version:  v2012                                 |
|   \\  /    A nd           | Website:  www.openfoam.com                      |
|    \\/     M anipulation  |                                                 |
\*---------------------------------------------------------------------------*/
FoamFile
{
    version     2.0;
    format      ascii;
    class       volScalarField;
    location    "712.5";
    object      epsilon;
}
// * * * * * * * * * * * * * * * * * * * * * * * * * * * * * * * * * * * * * //

dimensions      [0 2 -3 0 0 0 0];


internalField   nonuniform List<scalar> 
171728
(
2.2014e-09
3.56509e-09
4.13818e-09
4.78868e-09
2.17996e-09
3.35447e-09
3.9069e-09
4.34403e-09
2.06614e-09
3.14532e-09
3.64709e-09
3.94685e-09
1.931e-09
2.97279e-09
3.39761e-09
3.60958e-09
1.77517e-09
2.8231e-09
3.16519e-09
3.32284e-09
1.53423e-09
2.70185e-09
2.9643e-09
3.07873e-09
1.32335e-09
2.5807e-09
2.80473e-09
2.87424e-09
1.19699e-09
2.42742e-09
2.69037e-09
2.70315e-09
1.1251e-09
2.2511e-09
2.61903e-09
2.56004e-09
1.07874e-09
2.10075e-09
2.58129e-09
2.45272e-09
1.04324e-09
2.01144e-09
2.57803e-09
2.3832e-09
1.01256e-09
1.98811e-09
2.61087e-09
2.35242e-09
9.85444e-10
2.01313e-09
2.69196e-09
2.36136e-09
9.60163e-10
2.1191e-09
2.83062e-09
2.42675e-09
9.36977e-10
2.30149e-09
3.05133e-09
2.56429e-09
9.16915e-10
2.61268e-09
3.39934e-09
2.8165e-09
8.99196e-10
3.10138e-09
3.93184e-09
3.25479e-09
8.83206e-10
3.84434e-09
4.69219e-09
4.00629e-09
8.68734e-10
4.93964e-09
5.92484e-09
5.33367e-09
8.59115e-10
6.61882e-09
7.70513e-09
7.66244e-09
8.58957e-10
8.9959e-09
1.05979e-08
1.16596e-08
8.66216e-10
1.26273e-08
1.3667e-08
1.95243e-08
8.89629e-10
1.72974e-08
1.83831e-08
3.12974e-08
9.3896e-10
2.42759e-08
2.54363e-08
4.43542e-08
1.0277e-09
3.2804e-08
3.32821e-08
7.92353e-08
1.1559e-09
4.44554e-08
4.44296e-08
1.10143e-07
1.36851e-09
5.81164e-08
5.86317e-08
1.54331e-07
1.64275e-09
7.51673e-08
7.61043e-08
2.22433e-07
2.04511e-09
9.46865e-08
9.48225e-08
2.91459e-07
2.59526e-09
1.17486e-07
1.19632e-07
3.65245e-07
3.35516e-09
1.4411e-07
1.42378e-07
4.38521e-07
4.46094e-09
1.72317e-07
1.75243e-07
5.21806e-07
5.7229e-09
2.06482e-07
2.05849e-07
5.95263e-07
7.27648e-09
2.39499e-07
2.41886e-07
6.46941e-07
9.71759e-09
2.79686e-07
2.80189e-07
7.10907e-07
1.23923e-08
3.20104e-07
3.21007e-07
7.63363e-07
1.7104e-08
3.64048e-07
3.63239e-07
8.07132e-07
2.07996e-08
4.07084e-07
4.17724e-07
8.34173e-07
2.60995e-08
4.57251e-07
4.48053e-07
8.82157e-07
3.2728e-08
4.95335e-07
5.08751e-07
9.23752e-07
4.26812e-08
5.6364e-07
5.52301e-07
9.41113e-07
5.08654e-08
5.99948e-07
5.99044e-07
9.74046e-07
6.15611e-08
6.40352e-07
6.53781e-07
1.01677e-06
7.65862e-08
6.99171e-07
6.92615e-07
1.03633e-06
9.23472e-08
7.44028e-07
7.46222e-07
1.06398e-06
1.07529e-07
7.82147e-07
7.87541e-07
1.09301e-06
1.27803e-07
8.27848e-07
8.19056e-07
1.11659e-06
1.48851e-07
8.64141e-07
8.75879e-07
1.14994e-06
1.76895e-07
9.10441e-07
9.08753e-07
1.17026e-06
1.98442e-07
9.39728e-07
9.34881e-07
1.18339e-06
2.2293e-07
9.61523e-07
9.67824e-07
1.21922e-06
2.58489e-07
1.00976e-06
1.00621e-06
1.2543e-06
2.88352e-07
1.02972e-06
1.02809e-06
1.25888e-06
3.13465e-07
1.04509e-06
1.04893e-06
1.26686e-06
3.48894e-07
1.07661e-06
1.07899e-06
1.30623e-06
3.81168e-07
1.10829e-06
1.10266e-06
1.31916e-06
4.14289e-07
1.12379e-06
1.12049e-06
1.33839e-06
4.44628e-07
1.13056e-06
1.13242e-06
1.3525e-06
4.67291e-07
1.14866e-06
1.15806e-06
1.35296e-06
5.00366e-07
1.18302e-06
1.18182e-06
1.38461e-06
5.36367e-07
1.19762e-06
1.18923e-06
1.40909e-06
5.54399e-07
1.20518e-06
1.1956e-06
1.40325e-06
5.73238e-07
1.21179e-06
1.21715e-06
1.39188e-06
5.95006e-07
1.21984e-06
1.22926e-06
1.43478e-06
6.20624e-07
1.26107e-06
1.25693e-06
1.4793e-06
6.54097e-07
1.26415e-06
1.26071e-06
1.45258e-06
6.59431e-07
1.24662e-06
1.24672e-06
1.40575e-06
6.63632e-07
1.27166e-06
1.26168e-06
1.46387e-06
6.91925e-07
1.30357e-06
1.30635e-06
1.5368e-06
7.20779e-07
1.28344e-06
1.30483e-06
1.50805e-06
7.19697e-07
1.26528e-06
1.27741e-06
1.45186e-06
7.22145e-07
1.29877e-06
1.28138e-06
1.47091e-06
7.48051e-07
1.333e-06
1.31829e-06
1.52575e-06
7.65319e-07
1.31574e-06
1.32019e-06
1.52202e-06
7.64017e-07
1.29196e-06
1.30603e-06
1.50103e-06
7.70758e-07
1.30425e-06
1.31079e-06
1.51517e-06
7.87538e-07
1.32188e-06
1.32011e-06
1.52515e-06
7.91526e-07
1.31469e-06
1.31083e-06
1.50335e-06
7.93322e-07
1.31898e-06
1.31993e-06
1.5211e-06
8.08621e-07
1.33129e-06
1.33804e-06
1.55366e-06
8.10059e-07
1.31657e-06
1.3172e-06
1.52459e-06
8.02405e-07
1.30731e-06
1.30411e-06
1.50063e-06
8.10113e-07
1.33189e-06
1.32726e-06
1.54266e-06
8.21175e-07
1.33329e-06
1.33564e-06
1.55927e-06
8.09278e-07
1.29164e-06
1.3024e-06
1.50775e-06
7.97819e-07
1.28351e-06
1.2857e-06
1.48202e-06
8.07864e-07
1.32548e-06
1.31006e-06
1.53209e-06
8.23418e-07
1.33921e-06
1.33148e-06
1.56695e-06
8.0955e-07
1.29294e-06
1.30588e-06
1.52852e-06
7.83239e-07
1.25444e-06
1.26595e-06
1.47654e-06
7.81489e-07
1.26691e-06
1.26591e-06
1.48549e-06
7.97445e-07
1.29787e-06
1.28574e-06
1.51591e-06
7.99432e-07
1.29312e-06
1.28538e-06
1.5146e-06
7.83656e-07
1.26349e-06
1.27221e-06
1.49541e-06
7.52173e-07
1.19363e-06
1.19828e-06
1.44199e-06
5.16813e-09
3.99824e-09
3.81867e-09
4.95111e-09
7.29418e-09
4.09265e-09
2.12646e-09
1.22392e-09
1.61486e-09
1.56431e-09
3.34664e-09
4.13112e-09
5.15776e-09
4.09947e-09
4.157e-09
4.81613e-09
5.1168e-09
5.04793e-09
4.17862e-09
3.31503e-09
3.95631e-09
3.14495e-09
4.92913e-09
4.45873e-09
1.54924e-08
5.69034e-09
1.57662e-08
5.42643e-09
4.61577e-09
3.41361e-09
4.31335e-09
5.13125e-09
4.68215e-09
4.61186e-09
3.9738e-09
4.30702e-09
4.37709e-09
5.01158e-09
5.17313e-09
3.87472e-09
3.07336e-09
3.65348e-09
2.86898e-09
4.43137e-09
3.99896e-09
1.58623e-08
5.32656e-09
1.61438e-08
5.03895e-09
4.20673e-09
3.19334e-09
3.91114e-09
4.64666e-09
4.24657e-09
4.19986e-09
3.71057e-09
3.90079e-09
3.97474e-09
5.13611e-09
5.24963e-09
3.58661e-09
2.80492e-09
3.3989e-09
2.62457e-09
3.97608e-09
3.62079e-09
1.62084e-08
4.94778e-09
1.62929e-08
4.70962e-09
3.8209e-09
3.01329e-09
3.57362e-09
4.21613e-09
3.87739e-09
3.80836e-09
3.45906e-09
3.55302e-09
3.63294e-09
5.19674e-09
5.11605e-09
3.33972e-09
2.5683e-09
3.16756e-09
2.41099e-09
3.60316e-09
3.31073e-09
1.62926e-08
4.64039e-09
1.58917e-08
4.45832e-09
3.49693e-09
2.8578e-09
3.27809e-09
3.85083e-09
3.56883e-09
3.47406e-09
3.22093e-09
3.25593e-09
3.34225e-09
5.01172e-09
4.35845e-09
3.1102e-09
2.36337e-09
2.94203e-09
2.23286e-09
3.29664e-09
3.05103e-09
1.54915e-08
4.40253e-09
1.32596e-08
4.23693e-09
3.21087e-09
2.73008e-09
3.03224e-09
3.54662e-09
3.3132e-09
3.1889e-09
3.01128e-09
3.00362e-09
3.09429e-09
4.18689e-09
3.55686e-09
2.88975e-09
2.19484e-09
2.75141e-09
2.09619e-09
3.04033e-09
2.82052e-09
1.20715e-08
4.18522e-09
8.24896e-09
4.03958e-09
2.97988e-09
2.61282e-09
2.84444e-09
3.29469e-09
3.0917e-09
2.94929e-09
2.84099e-09
2.80591e-09
2.88585e-09
3.50624e-09
3.02822e-09
2.71101e-09
2.06776e-09
2.60673e-09
1.99687e-09
2.81217e-09
2.61895e-09
7.17003e-09
3.99486e-09
4.8935e-09
3.88482e-09
2.80585e-09
2.46937e-09
2.70438e-09
3.07706e-09
2.91487e-09
2.76327e-09
2.71473e-09
2.64643e-09
2.71168e-09
3.00031e-09
2.72946e-09
2.57681e-09
1.97781e-09
2.50039e-09
1.93117e-09
2.61344e-09
2.44637e-09
4.40909e-09
3.85651e-09
3.46559e-09
3.79259e-09
2.67628e-09
2.29637e-09
2.60409e-09
2.90529e-09
2.78547e-09
2.60996e-09
2.63275e-09
2.51675e-09
2.56466e-09
2.71643e-09
2.54163e-09
2.47953e-09
1.91865e-09
2.42805e-09
1.89373e-09
2.44396e-09
2.30676e-09
3.24722e-09
3.77607e-09
2.78244e-09
3.73114e-09
2.58609e-09
2.13271e-09
2.54292e-09
2.77986e-09
2.68539e-09
2.49103e-09
2.58841e-09
2.43275e-09
2.45267e-09
2.53745e-09
2.42083e-09
2.41524e-09
1.89042e-09
2.38368e-09
1.88743e-09
2.30846e-09
2.20526e-09
2.69209e-09
3.71901e-09
2.54001e-09
3.68325e-09
2.53593e-09
2.02896e-09
2.52369e-09
2.68336e-09
2.62005e-09
2.41694e-09
2.57603e-09
2.3857e-09
2.37927e-09
2.42296e-09
2.36015e-09
2.37493e-09
1.89015e-09
2.36591e-09
1.91459e-09
2.21041e-09
2.14416e-09
2.50798e-09
3.68011e-09
2.45173e-09
3.68885e-09
2.52473e-09
1.98755e-09
2.54279e-09
2.6235e-09
2.59839e-09
2.38065e-09
2.59799e-09
2.37846e-09
2.34194e-09
2.3683e-09
2.33776e-09
2.3682e-09
1.92565e-09
2.39283e-09
1.97561e-09
2.15564e-09
2.12485e-09
2.45053e-09
3.70212e-09
2.46873e-09
3.78016e-09
2.55515e-09
2.00172e-09
2.60979e-09
2.60968e-09
2.6202e-09
2.382e-09
2.66642e-09
2.4119e-09
2.34118e-09
2.35548e-09
2.36418e-09
2.40876e-09
1.99941e-09
2.47865e-09
2.08948e-09
2.14522e-09
2.16423e-09
2.48624e-09
3.81285e-09
2.55681e-09
3.91846e-09
2.63659e-09
2.09398e-09
2.74792e-09
2.64066e-09
2.67957e-09
2.4296e-09
2.79096e-09
2.50626e-09
2.3932e-09
2.39524e-09
2.45677e-09
2.51125e-09
2.1279e-09
2.63665e-09
2.27392e-09
2.19861e-09
2.27069e-09
2.59075e-09
3.96019e-09
2.71815e-09
4.123e-09
2.79301e-09
2.25281e-09
2.96192e-09
2.71159e-09
2.80274e-09
2.54233e-09
2.98164e-09
2.67864e-09
2.50804e-09
2.50924e-09
2.64833e-09
2.6894e-09
2.33144e-09
2.89947e-09
2.5548e-09
2.32756e-09
2.47142e-09
2.77176e-09
4.19701e-09
2.98472e-09
4.50908e-09
3.03414e-09
2.5299e-09
3.30391e-09
2.86198e-09
3.04871e-09
2.73504e-09
3.28533e-09
2.95201e-09
2.72269e-09
2.73845e-09
3.00041e-09
2.99189e-09
2.64606e-09
3.32632e-09
2.98423e-09
2.56379e-09
2.83145e-09
3.06684e-09
4.59602e-09
3.4026e-09
5.06956e-09
3.4166e-09
2.96804e-09
3.82686e-09
3.14386e-09
3.46896e-09
3.03941e-09
3.74766e-09
3.36538e-09
3.09766e-09
3.15243e-09
3.63063e-09
3.46959e-09
3.12451e-09
3.99787e-09
3.65283e-09
2.98351e-09
3.47647e-09
3.54046e-09
5.17618e-09
4.05692e-09
5.6223e-09
4.00322e-09
3.63726e-09
4.60261e-09
3.62199e-09
4.11898e-09
3.51505e-09
4.48811e-09
3.99999e-09
3.7414e-09
3.88001e-09
4.72743e-09
4.21121e-09
3.86985e-09
5.03143e-09
4.65459e-09
3.73034e-09
4.56999e-09
4.28616e-09
5.89128e-09
5.02934e-09
6.46704e-09
4.85323e-09
4.62766e-09
5.77899e-09
4.35105e-09
5.22117e-09
4.22725e-09
5.61424e-09
5.03776e-09
4.90053e-09
5.14341e-09
6.70225e-09
5.35731e-09
4.96342e-09
6.55187e-09
6.15879e-09
4.98094e-09
6.5445e-09
5.35893e-09
6.61923e-09
6.64316e-09
7.83972e-09
6.16159e-09
6.1245e-09
7.6449e-09
5.57706e-09
7.16991e-09
5.36278e-09
7.28178e-09
6.57728e-09
6.9435e-09
7.41205e-09
1.01006e-08
7.04858e-09
6.64636e-09
8.79546e-09
8.38549e-09
7.28451e-09
9.95919e-09
7.09838e-09
8.18185e-09
8.90494e-09
9.56367e-09
8.31725e-09
8.35058e-09
1.04737e-08
7.74058e-09
1.00784e-08
7.0731e-09
9.60612e-09
8.83148e-09
1.06242e-08
1.12238e-08
1.60516e-08
9.50998e-09
9.02484e-09
1.20493e-08
1.16151e-08
1.10558e-08
1.59878e-08
9.60336e-09
1.06967e-08
1.22442e-08
1.34045e-08
1.13163e-08
1.15938e-08
1.47557e-08
1.18931e-08
1.75333e-08
9.49233e-09
1.28959e-08
1.24455e-08
1.76179e-08
1.79237e-08
2.61474e-08
1.3066e-08
1.2651e-08
1.66229e-08
1.59449e-08
1.79986e-08
2.5531e-08
1.32802e-08
1.39436e-08
1.6908e-08
1.66026e-08
1.56727e-08
1.59328e-08
1.97318e-08
1.8538e-08
2.43915e-08
1.32376e-08
1.70557e-08
1.70557e-08
2.7043e-08
2.90405e-08
4.21237e-08
1.79959e-08
1.73261e-08
2.28029e-08
2.24142e-08
2.82461e-08
4.28448e-08
1.81772e-08
1.77551e-08
2.37075e-08
2.37731e-08
2.16337e-08
2.24104e-08
2.50939e-08
2.75192e-08
4.35746e-08
1.88724e-08
2.35109e-08
2.29693e-08
4.2135e-08
4.67856e-08
6.6882e-08
2.48191e-08
2.42545e-08
3.10158e-08
3.0506e-08
4.74556e-08
6.61919e-08
2.5593e-08
2.6124e-08
3.23039e-08
3.05824e-08
2.61135e-08
3.04894e-08
3.32876e-08
4.88806e-08
6.55868e-08
2.44387e-08
3.11082e-08
3.2617e-08
7.0009e-08
7.27473e-08
1.02615e-07
3.36148e-08
3.28253e-08
4.21218e-08
4.12279e-08
7.20818e-08
1.00893e-07
3.49853e-08
3.24265e-08
4.34419e-08
4.2441e-08
3.61077e-08
4.12034e-08
4.3293e-08
6.99647e-08
1.00063e-07
3.58907e-08
4.14154e-08
4.33092e-08
1.04853e-07
1.10936e-07
1.48067e-07
4.48018e-08
4.44819e-08
5.55004e-08
5.46127e-08
1.09824e-07
1.49211e-07
4.66955e-08
4.57158e-08
5.78873e-08
5.50472e-08
4.53887e-08
5.44519e-08
5.49334e-08
1.09731e-07
1.4667e-07
4.5649e-08
5.46709e-08
5.72743e-08
1.42028e-07
1.59621e-07
2.07687e-07
5.96817e-08
5.8336e-08
7.08927e-08
7.08686e-08
1.59355e-07
2.05994e-07
6.20518e-08
5.89331e-08
7.43036e-08
7.20865e-08
5.92382e-08
7.06791e-08
7.04875e-08
1.56652e-07
2.06728e-07
6.19337e-08
7.16309e-08
7.42724e-08
2.10967e-07
2.18554e-07
2.75445e-07
7.52718e-08
7.53252e-08
9.15377e-08
8.97938e-08
2.19207e-07
2.7489e-07
7.8594e-08
7.64193e-08
9.37889e-08
8.98184e-08
7.44089e-08
8.95634e-08
9.10615e-08
2.19881e-07
2.72594e-07
7.85379e-08
8.94903e-08
9.43588e-08
2.739e-07
2.92338e-07
3.49924e-07
9.66967e-08
9.49616e-08
1.12537e-07
1.11702e-07
2.89137e-07
3.49207e-07
9.94666e-08
9.53187e-08
1.17616e-07
1.13848e-07
9.66422e-08
1.11462e-07
1.11265e-07
2.86908e-07
3.52822e-07
1.00256e-07
1.13646e-07
1.17709e-07
3.53074e-07
3.63427e-07
4.25088e-07
1.18763e-07
1.17763e-07
1.37971e-07
1.37611e-07
3.6525e-07
4.29421e-07
1.22505e-07
1.19611e-07
1.38348e-07
1.36825e-07
1.17302e-07
1.37149e-07
1.3719e-07
3.69215e-07
4.25492e-07
1.22815e-07
1.36042e-07
1.35677e-07
4.21287e-07
4.41852e-07
5.03109e-07
1.44178e-07
1.4452e-07
1.66266e-07
1.65319e-07
4.45573e-07
5.03201e-07
1.4635e-07
1.43369e-07
1.73372e-07
1.66969e-07
1.42784e-07
1.64948e-07
1.65355e-07
4.40197e-07
5.02497e-07
1.41719e-07
1.66607e-07
1.73347e-07
5.0457e-07
5.19536e-07
5.76987e-07
1.75266e-07
1.72781e-07
2.01057e-07
1.98166e-07
5.18283e-07
5.74371e-07
1.81783e-07
1.75485e-07
2.04464e-07
1.9887e-07
1.75786e-07
1.97514e-07
2.00884e-07
5.19722e-07
5.76467e-07
1.8461e-07
1.98221e-07
2.06611e-07
5.81986e-07
5.90846e-07
6.33958e-07
2.07861e-07
2.07172e-07
2.31283e-07
2.31953e-07
5.89923e-07
6.37385e-07
2.10596e-07
2.06914e-07
2.31124e-07
2.344e-07
2.06259e-07
2.31252e-07
2.31449e-07
5.90793e-07
6.36915e-07
2.10718e-07
2.3257e-07
2.31137e-07
6.33352e-07
6.48365e-07
6.97345e-07
2.42368e-07
2.40146e-07
2.75407e-07
2.69553e-07
6.50945e-07
6.93852e-07
2.41277e-07
2.43096e-07
2.73009e-07
2.71013e-07
2.42573e-07
2.68606e-07
2.70122e-07
6.51151e-07
6.96858e-07
2.43039e-07
2.69611e-07
2.7092e-07
6.97374e-07
7.10126e-07
7.44394e-07
2.83401e-07
2.80778e-07
3.08133e-07
3.1127e-07
7.07613e-07
7.4897e-07
2.81164e-07
2.82334e-07
3.08546e-07
3.15088e-07
2.79048e-07
3.10376e-07
3.11963e-07
7.10147e-07
7.46425e-07
2.80472e-07
3.13078e-07
3.15628e-07
7.49879e-07
7.56858e-07
7.96251e-07
3.2007e-07
3.20889e-07
3.62612e-07
3.55239e-07
7.60625e-07
7.91451e-07
3.20763e-07
3.23385e-07
3.58257e-07
3.50623e-07
3.24012e-07
3.54175e-07
3.61296e-07
7.57803e-07
7.92771e-07
3.26462e-07
3.4828e-07
3.61562e-07
7.98468e-07
8.07581e-07
8.32877e-07
3.74687e-07
3.65295e-07
4.01828e-07
3.9466e-07
8.02402e-07
8.33207e-07
3.68556e-07
3.65076e-07
3.9673e-07
4.14901e-07
3.71539e-07
3.93182e-07
3.92752e-07
8.05057e-07
8.39081e-07
3.73393e-07
4.07872e-07
3.99145e-07
8.25242e-07
8.42277e-07
8.6895e-07
4.11178e-07
4.08582e-07
4.43837e-07
4.49392e-07
8.43908e-07
8.69629e-07
4.07806e-07
4.27456e-07
4.43279e-07
4.50746e-07
4.00209e-07
4.47881e-07
4.36817e-07
8.48901e-07
8.68894e-07
4.0594e-07
4.38869e-07
4.38035e-07
8.68428e-07
8.78667e-07
9.0397e-07
4.55363e-07
4.58693e-07
4.90509e-07
4.8335e-07
8.78109e-07
9.02623e-07
4.5448e-07
4.56956e-07
4.8801e-07
4.86554e-07
4.53539e-07
4.82435e-07
5.04703e-07
8.77232e-07
9.04812e-07
4.56836e-07
4.92824e-07
5.13738e-07
9.16369e-07
9.13593e-07
9.41889e-07
5.03288e-07
4.9586e-07
5.46107e-07
5.48968e-07
9.13808e-07
9.47067e-07
5.00708e-07
5.0259e-07
5.4363e-07
5.47663e-07
5.17419e-07
5.48106e-07
5.41145e-07
9.15587e-07
9.40244e-07
5.26859e-07
5.43964e-07
5.50755e-07
9.34919e-07
9.50915e-07
9.69453e-07
5.59501e-07
5.65051e-07
5.91028e-07
5.95642e-07
9.55442e-07
9.68849e-07
5.56966e-07
5.58518e-07
5.88963e-07
5.89532e-07
5.47619e-07
5.93229e-07
5.761e-07
9.47633e-07
9.67623e-07
5.5692e-07
5.8381e-07
5.76488e-07
9.63413e-07
9.76293e-07
9.97145e-07
5.9955e-07
6.0234e-07
6.33217e-07
6.26249e-07
9.74604e-07
9.93927e-07
5.98498e-07
6.02866e-07
6.33588e-07
6.42791e-07
5.93969e-07
6.25129e-07
6.49681e-07
9.76688e-07
1.00357e-06
5.88249e-07
6.43413e-07
6.49659e-07
1.00899e-06
1.0062e-06
1.03174e-06
6.47428e-07
6.40788e-07
6.86966e-07
6.8926e-07
1.00361e-06
1.03335e-06
6.47295e-07
6.53218e-07
6.86122e-07
6.82122e-07
6.61353e-07
6.88408e-07
6.83722e-07
1.01101e-06
1.02709e-06
6.65799e-07
6.8152e-07
6.9222e-07
1.03028e-06
1.03929e-06
1.05831e-06
6.98759e-07
7.00254e-07
7.33457e-07
7.32988e-07
1.04039e-06
1.05814e-06
6.9793e-07
6.93921e-07
7.32502e-07
7.34908e-07
6.93287e-07
7.31678e-07
7.30139e-07
1.03442e-06
1.05968e-06
7.00066e-07
7.3245e-07
7.29477e-07
1.0564e-06
1.06525e-06
1.08361e-06
7.43521e-07
7.45662e-07
7.73443e-07
7.74416e-07
1.06559e-06
1.08472e-06
7.4294e-07
7.47518e-07
7.73798e-07
7.76301e-07
7.40161e-07
7.73217e-07
7.75633e-07
1.06777e-06
1.08513e-06
7.39907e-07
7.7926e-07
7.77919e-07
1.08534e-06
1.0904e-06
1.11078e-06
7.84572e-07
7.82311e-07
8.17416e-07
8.16034e-07
1.09079e-06
1.10952e-06
7.84577e-07
7.83329e-07
8.15779e-07
8.09102e-07
7.89312e-07
8.16295e-07
8.18949e-07
1.09056e-06
1.10538e-06
7.89685e-07
8.09596e-07
8.14834e-07
1.11091e-06
1.11788e-06
1.13835e-06
8.28097e-07
8.28634e-07
8.56369e-07
8.58251e-07
1.11725e-06
1.13828e-06
8.2611e-07
8.22856e-07
8.57132e-07
8.66925e-07
8.25962e-07
8.5568e-07
8.5787e-07
1.11247e-06
1.14437e-06
8.23297e-07
8.61308e-07
8.60496e-07
1.14099e-06
1.14544e-06
1.168e-06
8.66391e-07
8.6609e-07
9.01638e-07
8.97275e-07
1.14437e-06
1.16563e-06
8.68243e-07
8.77114e-07
9.01649e-07
8.94895e-07
8.71048e-07
8.98111e-07
8.9929e-07
1.15309e-06
1.16762e-06
8.74078e-07
9.03568e-07
9.01672e-07
1.16678e-06
1.17418e-06
1.18442e-06
9.10877e-07
9.09717e-07
9.27756e-07
9.36146e-07
1.17394e-06
1.19253e-06
9.09285e-07
9.00111e-07
9.25189e-07
9.3082e-07
9.04929e-07
9.34819e-07
9.22686e-07
1.17133e-06
1.18446e-06
9.07092e-07
9.28652e-07
9.2359e-07
1.17776e-06
1.18868e-06
1.20873e-06
9.33629e-07
9.41226e-07
9.61126e-07
9.55497e-07
1.19645e-06
1.20268e-06
9.3241e-07
9.41975e-07
9.63282e-07
9.61498e-07
9.31447e-07
9.54566e-07
9.63306e-07
1.19181e-06
1.2086e-06
9.30274e-07
9.56549e-07
9.60037e-07
1.21058e-06
1.21708e-06
1.23893e-06
9.70829e-07
9.61823e-07
9.98816e-07
9.97043e-07
1.20728e-06
1.23709e-06
9.72795e-07
9.6713e-07
9.97869e-07
9.94555e-07
9.73649e-07
9.98472e-07
1.00344e-06
1.21372e-06
1.23574e-06
9.72097e-07
9.99534e-07
1.00529e-06
1.24807e-06
1.24443e-06
1.25424e-06
1.00662e-06
1.00897e-06
1.0214e-06
1.02739e-06
1.24646e-06
1.26229e-06
1.00505e-06
1.00393e-06
1.02024e-06
1.02497e-06
1.01067e-06
1.02688e-06
1.02228e-06
1.24274e-06
1.25635e-06
1.01317e-06
1.02254e-06
1.02523e-06
1.25776e-06
1.2579e-06
1.27149e-06
1.02535e-06
1.03026e-06
1.04617e-06
1.04128e-06
1.26518e-06
1.26805e-06
1.02494e-06
1.02997e-06
1.04614e-06
1.04278e-06
1.02496e-06
1.0399e-06
1.03701e-06
1.26084e-06
1.2727e-06
1.02758e-06
1.04314e-06
1.03686e-06
1.26086e-06
1.27865e-06
1.29546e-06
1.05456e-06
1.04641e-06
1.07139e-06
1.06716e-06
1.27182e-06
1.28774e-06
1.05406e-06
1.04843e-06
1.07163e-06
1.0717e-06
1.0454e-06
1.06754e-06
1.07766e-06
1.27717e-06
1.29188e-06
1.04314e-06
1.0716e-06
1.07483e-06
1.29912e-06
1.2996e-06
1.3129e-06
1.07596e-06
1.07579e-06
1.09583e-06
1.10058e-06
1.29501e-06
1.32089e-06
1.07664e-06
1.07924e-06
1.09588e-06
1.09679e-06
1.08419e-06
1.10153e-06
1.09417e-06
1.29852e-06
1.31598e-06
1.08278e-06
1.09707e-06
1.09477e-06
1.31598e-06
1.31907e-06
1.33235e-06
1.10274e-06
1.10755e-06
1.11816e-06
1.1216e-06
1.32772e-06
1.33974e-06
1.10201e-06
1.10205e-06
1.1163e-06
1.11763e-06
1.09761e-06
1.12173e-06
1.11687e-06
1.32085e-06
1.33117e-06
1.09852e-06
1.11718e-06
1.11699e-06
1.33201e-06
1.33629e-06
1.34501e-06
1.1227e-06
1.1238e-06
1.13479e-06
1.12882e-06
1.34203e-06
1.33581e-06
1.12142e-06
1.12189e-06
1.13595e-06
1.13092e-06
1.12436e-06
1.12847e-06
1.13812e-06
1.3347e-06
1.3389e-06
1.12417e-06
1.12852e-06
1.13857e-06
1.35016e-06
1.34836e-06
1.35275e-06
1.1376e-06
1.13103e-06
1.14577e-06
1.14258e-06
1.33703e-06
1.34394e-06
1.13901e-06
1.13395e-06
1.14658e-06
1.1493e-06
1.14e-06
1.14162e-06
1.14463e-06
1.34197e-06
1.3563e-06
1.1407e-06
1.15101e-06
1.14582e-06
1.35018e-06
1.35674e-06
1.37875e-06
1.15015e-06
1.14976e-06
1.17219e-06
1.17582e-06
1.35167e-06
1.38503e-06
1.15049e-06
1.15628e-06
1.17206e-06
1.17684e-06
1.14751e-06
1.17607e-06
1.16999e-06
1.36387e-06
1.38699e-06
1.14866e-06
1.17719e-06
1.16951e-06
1.37543e-06
1.38602e-06
1.39891e-06
1.17996e-06
1.18244e-06
1.19493e-06
1.19452e-06
1.39201e-06
1.40095e-06
1.17983e-06
1.18193e-06
1.19405e-06
1.1891e-06
1.18026e-06
1.19529e-06
1.20013e-06
1.39199e-06
1.39205e-06
1.17911e-06
1.18825e-06
1.19984e-06
1.4055e-06
1.40127e-06
1.3992e-06
1.19705e-06
1.19687e-06
1.20097e-06
1.2026e-06
1.40299e-06
1.40418e-06
1.19599e-06
1.19036e-06
1.19998e-06
1.19594e-06
1.20249e-06
1.20293e-06
1.20245e-06
1.39302e-06
1.38886e-06
1.20277e-06
1.1932e-06
1.20315e-06
1.40288e-06
1.40171e-06
1.41196e-06
1.20244e-06
1.20489e-06
1.21274e-06
1.21462e-06
1.40739e-06
1.41288e-06
1.20162e-06
1.19877e-06
1.213e-06
1.21565e-06
1.20084e-06
1.21117e-06
1.19975e-06
1.39252e-06
1.41269e-06
1.20146e-06
1.21115e-06
1.1991e-06
1.38946e-06
1.41614e-06
1.41903e-06
1.21701e-06
1.21625e-06
1.2242e-06
1.21996e-06
1.41457e-06
1.40919e-06
1.21737e-06
1.22156e-06
1.22452e-06
1.22857e-06
1.20248e-06
1.21594e-06
1.22371e-06
1.41892e-06
1.42644e-06
1.20132e-06
1.22598e-06
1.2258e-06
1.42198e-06
1.42165e-06
1.43701e-06
1.22626e-06
1.22269e-06
1.23902e-06
1.24239e-06
1.41228e-06
1.44496e-06
1.2266e-06
1.22998e-06
1.24017e-06
1.24183e-06
1.23453e-06
1.25031e-06
1.26164e-06
1.4294e-06
1.44586e-06
1.23878e-06
1.25037e-06
1.26436e-06
1.4747e-06
1.44539e-06
1.46606e-06
1.24729e-06
1.25254e-06
1.26561e-06
1.26401e-06
1.45693e-06
1.46786e-06
1.24852e-06
1.24978e-06
1.26672e-06
1.26498e-06
1.26501e-06
1.26753e-06
1.26135e-06
1.45366e-06
1.46409e-06
1.26594e-06
1.26208e-06
1.25787e-06
1.456e-06
1.46855e-06
1.45521e-06
1.26632e-06
1.263e-06
1.26111e-06
1.25187e-06
1.46799e-06
1.435e-06
1.26758e-06
1.265e-06
1.26183e-06
1.25566e-06
1.25416e-06
1.24787e-06
1.2351e-06
1.46491e-06
1.44081e-06
1.25011e-06
1.24899e-06
1.23112e-06
1.40515e-06
1.45547e-06
1.44668e-06
1.25878e-06
1.25073e-06
1.25835e-06
1.26026e-06
1.43544e-06
1.45299e-06
1.25854e-06
1.25207e-06
1.2555e-06
1.25278e-06
1.2347e-06
1.25964e-06
1.25644e-06
1.44076e-06
1.44076e-06
1.23083e-06
1.25284e-06
1.25348e-06
1.44406e-06
1.45067e-06
1.47986e-06
1.26233e-06
1.26935e-06
1.28504e-06
1.29846e-06
1.46588e-06
1.50912e-06
1.25819e-06
1.25894e-06
1.28178e-06
1.29177e-06
1.27292e-06
1.30215e-06
1.31117e-06
1.44887e-06
1.49733e-06
1.27117e-06
1.29876e-06
1.3158e-06
1.53102e-06
1.48955e-06
1.50042e-06
1.29349e-06
1.30135e-06
1.3006e-06
1.29434e-06
1.51293e-06
1.48515e-06
1.29182e-06
1.30137e-06
1.30203e-06
1.30717e-06
1.31311e-06
1.29169e-06
1.30119e-06
1.50684e-06
1.5102e-06
1.31931e-06
1.3091e-06
1.30975e-06
1.51185e-06
1.50116e-06
1.47856e-06
1.29904e-06
1.28701e-06
1.28554e-06
1.26895e-06
1.48209e-06
1.44355e-06
1.30095e-06
1.30387e-06
1.28757e-06
1.28415e-06
1.29272e-06
1.26551e-06
1.27075e-06
1.51018e-06
1.47247e-06
1.30071e-06
1.28335e-06
1.27107e-06
1.45219e-06
1.47867e-06
1.47672e-06
1.28204e-06
1.26829e-06
1.28284e-06
1.28345e-06
1.44466e-06
1.47855e-06
1.28364e-06
1.27918e-06
1.28309e-06
1.27909e-06
1.26935e-06
1.28468e-06
1.28071e-06
1.47173e-06
1.46606e-06
1.26683e-06
1.27591e-06
1.27123e-06
1.45976e-06
1.48254e-06
1.51488e-06
1.28842e-06
1.29543e-06
1.3139e-06
1.32658e-06
1.49442e-06
1.54374e-06
1.28783e-06
1.28491e-06
1.31225e-06
1.31247e-06
1.29079e-06
1.33099e-06
1.32067e-06
1.47233e-06
1.51253e-06
1.27968e-06
1.31056e-06
1.3127e-06
1.51895e-06
1.52179e-06
1.52104e-06
1.31971e-06
1.32926e-06
1.32146e-06
1.32257e-06
1.54846e-06
1.52722e-06
1.31873e-06
1.31963e-06
1.32142e-06
1.32311e-06
1.32393e-06
1.3233e-06
1.31993e-06
1.5213e-06
1.52603e-06
1.31869e-06
1.32274e-06
1.31942e-06
1.52205e-06
1.52125e-06
1.49827e-06
1.31787e-06
1.316e-06
1.30487e-06
1.29758e-06
1.52465e-06
1.48318e-06
1.31799e-06
1.31993e-06
1.30495e-06
1.30633e-06
1.31499e-06
1.29414e-06
1.30107e-06
1.52647e-06
1.50346e-06
1.31543e-06
1.30847e-06
1.30526e-06
1.50006e-06
1.49887e-06
1.50282e-06
1.30282e-06
1.29583e-06
1.30614e-06
1.30154e-06
1.48349e-06
1.48975e-06
1.3028e-06
1.30364e-06
1.30556e-06
1.30487e-06
1.2997e-06
1.29757e-06
1.30527e-06
1.50387e-06
1.50397e-06
1.30432e-06
1.30703e-06
1.3092e-06
1.50895e-06
1.50903e-06
1.52819e-06
1.31149e-06
1.30767e-06
1.32575e-06
1.3224e-06
1.49781e-06
1.5215e-06
1.31041e-06
1.30905e-06
1.32457e-06
1.32101e-06
1.31107e-06
1.32112e-06
1.32125e-06
1.50899e-06
1.52162e-06
1.31357e-06
1.32006e-06
1.31982e-06
1.52434e-06
1.53107e-06
1.51953e-06
1.32635e-06
1.3229e-06
1.31957e-06
1.31707e-06
1.52473e-06
1.51863e-06
1.32546e-06
1.32153e-06
1.31966e-06
1.31554e-06
1.3209e-06
1.31654e-06
1.3105e-06
1.52363e-06
1.51087e-06
1.31918e-06
1.31294e-06
1.30828e-06
1.50294e-06
1.51985e-06
1.51347e-06
1.31629e-06
1.31505e-06
1.31377e-06
1.31504e-06
1.51971e-06
1.52248e-06
1.31637e-06
1.31317e-06
1.31378e-06
1.31404e-06
1.3083e-06
1.31524e-06
1.31143e-06
1.51149e-06
1.51506e-06
1.30623e-06
1.31312e-06
1.31032e-06
1.51099e-06
1.51762e-06
1.53751e-06
1.31548e-06
1.31821e-06
1.3305e-06
1.33068e-06
1.5278e-06
1.541e-06
1.3155e-06
1.31922e-06
1.33089e-06
1.33673e-06
1.31866e-06
1.33086e-06
1.336e-06
1.52282e-06
1.54979e-06
1.31861e-06
1.33762e-06
1.33691e-06
1.55099e-06
1.54183e-06
1.53192e-06
1.33286e-06
1.33147e-06
1.32909e-06
1.32403e-06
1.54286e-06
1.52208e-06
1.33299e-06
1.33752e-06
1.32796e-06
1.32612e-06
1.33651e-06
1.32258e-06
1.32487e-06
1.55258e-06
1.52721e-06
1.33725e-06
1.32518e-06
1.32399e-06
1.52686e-06
1.53134e-06
1.50943e-06
1.32337e-06
1.31804e-06
1.30929e-06
1.30781e-06
1.52122e-06
1.50543e-06
1.32198e-06
1.31813e-06
1.30838e-06
1.30364e-06
1.31697e-06
1.30705e-06
1.30281e-06
1.52502e-06
1.49884e-06
1.31601e-06
1.30408e-06
1.3036e-06
1.49848e-06
1.51078e-06
1.52698e-06
1.30849e-06
1.30795e-06
1.31723e-06
1.32378e-06
1.50886e-06
1.53998e-06
1.3078e-06
1.30351e-06
1.31718e-06
1.31761e-06
1.30275e-06
1.32427e-06
1.31895e-06
1.50081e-06
1.52799e-06
1.30378e-06
1.31886e-06
1.32074e-06
1.53135e-06
1.53537e-06
1.54657e-06
1.32434e-06
1.33129e-06
1.33263e-06
1.33632e-06
1.54973e-06
1.55525e-06
1.32415e-06
1.3263e-06
1.33259e-06
1.33707e-06
1.32845e-06
1.337e-06
1.3387e-06
1.5386e-06
1.55584e-06
1.32949e-06
1.33687e-06
1.33787e-06
1.55877e-06
1.5473e-06
1.5156e-06
1.33137e-06
1.33263e-06
1.3106e-06
1.30159e-06
1.55456e-06
1.4973e-06
1.3315e-06
1.33608e-06
1.31206e-06
1.31404e-06
1.33702e-06
1.30185e-06
1.30958e-06
1.55677e-06
1.51823e-06
1.3357e-06
1.31248e-06
1.30776e-06
1.51104e-06
1.51433e-06
1.49536e-06
1.30241e-06
1.2917e-06
1.29066e-06
1.28231e-06
1.4943e-06
1.47534e-06
1.30398e-06
1.30426e-06
1.2909e-06
1.2876e-06
1.29848e-06
1.28175e-06
1.28339e-06
1.5157e-06
1.48783e-06
1.29673e-06
1.28592e-06
1.28171e-06
1.47935e-06
1.49753e-06
1.5176e-06
1.29074e-06
1.28414e-06
1.30416e-06
1.31352e-06
1.48102e-06
1.53495e-06
1.29071e-06
1.28721e-06
1.30183e-06
1.29944e-06
1.28371e-06
1.31311e-06
1.30394e-06
1.48951e-06
1.51336e-06
1.28209e-06
1.3001e-06
1.30345e-06
1.51895e-06
1.52674e-06
1.55102e-06
1.31262e-06
1.32559e-06
1.32806e-06
1.34013e-06
1.54959e-06
1.57827e-06
1.30978e-06
1.30838e-06
1.32625e-06
1.32746e-06
1.31532e-06
1.34038e-06
1.3332e-06
1.52405e-06
1.55334e-06
1.31541e-06
1.3306e-06
1.33516e-06
1.56408e-06
1.55441e-06
1.53224e-06
1.32827e-06
1.33899e-06
1.31161e-06
1.30848e-06
1.57962e-06
1.52401e-06
1.32683e-06
1.32839e-06
1.31259e-06
1.31506e-06
1.3331e-06
1.30823e-06
1.31165e-06
1.55729e-06
1.53752e-06
1.33524e-06
1.31648e-06
1.31427e-06
1.53264e-06
1.5294e-06
1.4824e-06
1.30103e-06
1.29333e-06
1.2702e-06
1.25831e-06
1.51819e-06
1.45677e-06
1.30294e-06
1.30549e-06
1.27255e-06
1.27389e-06
1.29936e-06
1.25824e-06
1.26812e-06
1.5348e-06
1.48534e-06
1.30177e-06
1.27196e-06
1.26814e-06
1.47649e-06
1.48225e-06
1.47832e-06
1.2653e-06
1.25426e-06
1.26377e-06
1.25737e-06
1.45675e-06
1.46637e-06
1.26731e-06
1.268e-06
1.26497e-06
1.26458e-06
1.26416e-06
1.25823e-06
1.26499e-06
1.48489e-06
1.47766e-06
1.26348e-06
1.26284e-06
1.26332e-06
1.4783e-06
1.48371e-06
1.50765e-06
1.26773e-06
1.26576e-06
1.28575e-06
1.2924e-06
1.47734e-06
1.52106e-06
1.2682e-06
1.26722e-06
1.2842e-06
1.28214e-06
1.27055e-06
1.29306e-06
1.2882e-06
1.48238e-06
1.50264e-06
1.26835e-06
1.28187e-06
1.28566e-06
1.51101e-06
1.51337e-06
1.51657e-06
1.28997e-06
1.29767e-06
1.29044e-06
1.29769e-06
1.52891e-06
1.53212e-06
1.28807e-06
1.28598e-06
1.28839e-06
1.28707e-06
1.29106e-06
1.29698e-06
1.28838e-06
1.50781e-06
1.51127e-06
1.28867e-06
1.28677e-06
1.28683e-06
1.51382e-06
1.51756e-06
1.49851e-06
1.28806e-06
1.29401e-06
1.27051e-06
1.26881e-06
1.53257e-06
1.49482e-06
1.28628e-06
1.28566e-06
1.27122e-06
1.27452e-06
1.28546e-06
1.2679e-06
1.26761e-06
1.51258e-06
1.50427e-06
1.28432e-06
1.27448e-06
1.26927e-06
1.49506e-06
1.49856e-06
1.46314e-06
1.2668e-06
1.26424e-06
1.23378e-06
1.23057e-06
1.49362e-06
1.45461e-06
1.2679e-06
1.27216e-06
1.23472e-06
1.23737e-06
1.26452e-06
1.23058e-06
1.23357e-06
1.50521e-06
1.4703e-06
1.26641e-06
1.23782e-06
1.23497e-06
1.46343e-06
1.44158e-06
1.1962e-06
1.19351e-06
1.43452e-06
1.19665e-06
1.19792e-06
7.51054e-07
7.53406e-07
7.52529e-07
1.1962e-06
1.44648e-06
1.19691e-06
6.94999e-10
3.61506e-09
4.70198e-10
6.03868e-10
1.30692e-08
3.31482e-09
2.71192e-09
3.10055e-09
2.40488e-09
4.15911e-09
7.8518e-10
4.16867e-09
4.98475e-09
3.64072e-09
9.35487e-09
7.52007e-09
2.93583e-07
6.10967e-09
3.73093e-07
1.46267e-06
2.93623e-06
8.70083e-09
1.83957e-07
7.4021e-09
2.89814e-07
1.24185e-09
1.64623e-09
1.59177e-09
2.20483e-09
1.22817e-09
1.63761e-09
1.57823e-09
1.17661e-08
7.39517e-08
8.15803e-09
3.5286e-09
1.21346e-08
5.28883e-08
8.17707e-09
1.53895e-06
3.04156e-06
2.14756e-09
1.78487e-09
7.25577e-08
4.09879e-09
2.24065e-09
1.76409e-09
5.24518e-08
2.1515e-07
2.29379e-07
4.59867e-09
1.83692e-07
1.86966e-07
1.6914e-08
5.3907e-07
1.21734e-08
6.67173e-07
6.72078e-06
9.66947e-06
1.81835e-08
5.37433e-07
1.3399e-08
7.59536e-07
1.21557e-09
1.62339e-09
1.5629e-09
2.0973e-09
1.17831e-09