/*--------------------------------*- C++ -*----------------------------------*\
| =========                 |                                                 |
| \\      /  F ield         | OpenFOAM: The Open Source CFD Toolbox           |
|  \\    /   O peration     | Version:  v2012                                 |
|   \\  /    A nd           | Website:  www.openfoam.com                      |
|    \\/     M anipulation  |                                                 |
\*---------------------------------------------------------------------------*/
FoamFile
{
    version     2.0;
    format      ascii;
    class       volScalarField;
    location    "712.5";
    object      k;
}
// * * * * * * * * * * * * * * * * * * * * * * * * * * * * * * * * * * * * * //

dimensions      [0 2 -2 0 0 0 0];


internalField   nonuniform List<scalar> 
171728
(
2.15979e-07
2.61148e-07
2.76544e-07
3.4075e-07
2.12751e-07
2.50738e-07
2.70964e-07
3.22832e-07
2.07064e-07
2.40815e-07
2.63934e-07
3.05589e-07
2.02074e-07
2.32393e-07
2.55815e-07
2.89928e-07
1.96558e-07
2.26266e-07
2.46362e-07
2.7583e-07
1.94689e-07
2.22258e-07
2.36196e-07
2.63347e-07
1.92674e-07
2.20569e-07
2.27837e-07
2.52439e-07
1.79133e-07
2.22453e-07
2.21191e-07
2.43197e-07
1.66763e-07
2.26796e-07
2.16497e-07
2.34691e-07
1.59542e-07
2.24637e-07
2.14274e-07
2.26221e-07
1.55907e-07
2.11101e-07
2.12285e-07
2.18476e-07
1.53389e-07
1.93928e-07
2.10633e-07
2.11286e-07
1.51172e-07
1.76385e-07
2.11372e-07
2.04446e-07
1.49099e-07
1.66782e-07
2.15287e-07
1.99505e-07
1.47116e-07
1.64777e-07
2.21453e-07
1.97081e-07
1.45625e-07
1.67722e-07
2.3151e-07
1.98611e-07
1.44551e-07
1.76621e-07
2.5034e-07
2.06094e-07
1.43652e-07
1.94589e-07
2.76874e-07
2.25017e-07
1.42906e-07
2.23517e-07
3.18189e-07
2.6511e-07
1.42116e-07
2.72471e-07
3.77355e-07
3.41031e-07
1.41604e-07
3.47347e-07
4.74642e-07
4.91793e-07
1.41529e-07
4.68004e-07
5.62576e-07
7.92105e-07
1.41905e-07
6.21067e-07
7.09455e-07
1.156e-06
1.43902e-07
8.73908e-07
9.47457e-07
1.66057e-06
1.47838e-07
1.17851e-06
1.21852e-06
2.82431e-06
1.53216e-07
1.60704e-06
1.60445e-06
4.04901e-06
1.65136e-07
2.10478e-06
2.11554e-06
5.26634e-06
1.73325e-07
2.7452e-06
2.79303e-06
7.86643e-06
1.92074e-07
3.48021e-06
3.45787e-06
9.98489e-06
2.15709e-07
4.33868e-06
4.47394e-06
1.25405e-05
2.50309e-07
5.38315e-06
5.25595e-06
1.46181e-05
3.09366e-07
6.43475e-06
6.57187e-06
1.73378e-05
3.79408e-07
7.77772e-06
7.73844e-06
2.00244e-05
4.21771e-07
9.01601e-06
9.12098e-06
2.12289e-05
5.85291e-07
1.05338e-05
1.0545e-05
2.34667e-05
6.78118e-07
1.21013e-05
1.22549e-05
2.51763e-05
1.00051e-06
1.38768e-05
1.34528e-05
2.70513e-05
1.17711e-06
1.52284e-05
1.61963e-05
2.75521e-05
1.45515e-06
1.75723e-05
1.67614e-05
2.89855e-05
1.77636e-06
1.82189e-05
1.92094e-05
3.13005e-05
2.37477e-06
2.15352e-05
2.10023e-05
3.15897e-05
2.86715e-06
2.30015e-05
2.23257e-05
3.22996e-05
3.28696e-06
2.3501e-05
2.48887e-05
3.46409e-05
4.1853e-06
2.64593e-05
2.59279e-05
3.51824e-05
5.1124e-06
2.81269e-05
2.81017e-05
3.61532e-05
5.8022e-06
2.94309e-05
2.99843e-05
3.73027e-05
6.90654e-06
3.122e-05
3.04971e-05
3.82414e-05
7.95853e-06
3.24907e-05
3.30092e-05
3.95289e-05
9.53159e-06
3.43896e-05
3.47864e-05
4.06829e-05
1.08709e-05
3.60422e-05
3.549e-05
4.06411e-05
1.15088e-05
3.61417e-05
3.63533e-05
4.21683e-05
1.36422e-05
3.84268e-05
3.85417e-05
4.40337e-05
1.55449e-05
3.9772e-05
3.94521e-05
4.41974e-05
1.61515e-05
3.99146e-05
4.00875e-05
4.40044e-05
1.8329e-05
4.10107e-05
4.13996e-05
4.6006e-05
1.97124e-05
4.28666e-05
4.2666e-05
4.65569e-05
2.15223e-05
4.41715e-05
4.3738e-05
4.73649e-05
2.32983e-05
4.41716e-05
4.40139e-05
4.82041e-05
2.41728e-05
4.41706e-05
4.49791e-05
4.79203e-05
2.51983e-05
4.64993e-05
4.67877e-05
4.91575e-05
2.80774e-05
4.78003e-05
4.74622e-05
5.08567e-05
2.91931e-05
4.79958e-05
4.72457e-05
5.08129e-05
2.94344e-05
4.84289e-05
4.81563e-05
4.9677e-05
3.09091e-05
4.82758e-05
4.89773e-05
5.11971e-05
3.15104e-05
5.03076e-05
5.06533e-05
5.4409e-05
3.40364e-05
5.18818e-05
5.15647e-05
5.38838e-05
3.55554e-05
5.04536e-05
5.05345e-05
5.05154e-05
3.5257e-05
5.04233e-05
5.00456e-05
5.18331e-05
3.5295e-05
5.39742e-05
5.3308e-05
5.71652e-05
3.81484e-05
5.40559e-05
5.4792e-05
5.69822e-05
3.93944e-05
5.15231e-05
5.31954e-05
5.32284e-05
3.89405e-05
5.19319e-05
5.19542e-05
5.29966e-05
3.92541e-05
5.60965e-05
5.41443e-05
5.65935e-05
4.14835e-05
5.64823e-05
5.57979e-05
5.72789e-05
4.2167e-05
5.39884e-05
5.52225e-05
5.59164e-05
4.19987e-05
5.364e-05
5.48232e-05
5.61754e-05
4.26371e-05
5.57026e-05
5.56496e-05
5.72275e-05
4.35572e-05
5.59526e-05
5.54009e-05
5.61719e-05
4.37598e-05
5.59677e-05
5.53987e-05
5.63755e-05
4.48387e-05
5.71366e-05
5.75617e-05
5.89883e-05
4.55835e-05
5.68486e-05
5.72583e-05
5.81175e-05
4.50139e-05
5.56488e-05
5.54626e-05
5.61151e-05
4.48812e-05
5.70303e-05
5.64261e-05
5.78415e-05
4.68024e-05
5.8618e-05
5.85024e-05
6.00033e-05
4.69901e-05
5.65929e-05
5.75009e-05
5.79548e-05
4.53674e-05
5.46405e-05
5.52296e-05
5.55136e-05
4.5134e-05
5.68297e-05
5.57752e-05
5.74327e-05
4.77537e-05
6.00576e-05
5.89858e-05
6.07027e-05
4.85664e-05
5.90007e-05
5.92036e-05
5.98598e-05
4.64457e-05
5.46834e-05
5.59967e-05
5.63401e-05
4.49485e-05
5.41985e-05
5.49893e-05
5.60456e-05
4.58442e-05
5.74023e-05
5.64299e-05
5.82391e-05
4.7721e-05
5.85585e-05
5.74522e-05
5.88693e-05
4.77379e-05
5.70551e-05
5.74539e-05
5.80542e-05
4.60348e-05
5.45015e-05
5.53953e-05
5.70207e-05
3.55924e-07
3.1245e-07
3.04146e-07
3.53228e-07
3.46398e-07
3.13558e-07
2.14123e-07
1.67354e-07
1.93993e-07
1.88666e-07
2.78553e-07
3.26953e-07
3.60347e-07
3.1723e-07
3.3396e-07
3.41863e-07
3.54495e-07
3.45505e-07
2.75757e-07
2.54206e-07
2.66841e-07
2.4635e-07
3.52366e-07
3.31191e-07
5.68472e-07
3.50251e-07
5.80355e-07
3.4078e-07
3.28303e-07
2.53391e-07
3.15303e-07
3.59372e-07
3.41758e-07
3.31441e-07
2.72686e-07
3.17587e-07
3.24181e-07
3.43738e-07
3.4163e-07
2.63967e-07
2.43194e-07
2.56252e-07
2.34328e-07
3.30025e-07
3.09603e-07
5.86101e-07
3.37085e-07
6.10353e-07
3.26881e-07
3.10682e-07
2.43257e-07
2.97381e-07
3.40528e-07
3.24108e-07
3.13243e-07
2.65729e-07
3.00904e-07
3.06846e-07
3.40122e-07
3.41811e-07
2.53976e-07
2.31368e-07
2.47827e-07
2.22889e-07
3.08548e-07
2.90746e-07
6.19317e-07
3.23627e-07
6.50096e-07
3.14998e-07
2.93186e-07
2.34301e-07
2.80945e-07
3.22376e-07
3.08137e-07
2.96709e-07
2.57952e-07
2.85322e-07
2.91061e-07
3.40419e-07
3.47178e-07
2.45961e-07
2.20066e-07
2.40481e-07
2.1177e-07
2.89831e-07
2.74718e-07
6.61513e-07
3.1239e-07
6.86919e-07
3.07175e-07
2.77105e-07
2.27575e-07
2.66109e-07
3.06031e-07
2.94333e-07
2.81926e-07
2.48876e-07
2.71999e-07
2.76846e-07
3.46276e-07
3.59552e-07
2.38708e-07
2.09023e-07
2.34072e-07
2.01477e-07
2.73949e-07
2.61037e-07
6.97919e-07
3.06139e-07
7.66249e-07
3.01974e-07
2.62587e-07
2.22995e-07
2.52729e-07
2.923e-07
2.82096e-07
2.68597e-07
2.38671e-07
2.58376e-07
2.64234e-07
3.58701e-07
3.60905e-07
2.32537e-07
1.99165e-07
2.27815e-07
1.92942e-07
2.60383e-07
2.49516e-07
7.94155e-07
3.00178e-07
8.36516e-07
2.93622e-07
2.49466e-07
2.20574e-07
2.40306e-07
2.80583e-07
2.70725e-07
2.55199e-07
2.29694e-07
2.46479e-07
2.53166e-07
3.56459e-07
3.06491e-07
2.26091e-07
1.91058e-07
2.21053e-07
1.8589e-07
2.49033e-07
2.40615e-07
8.35884e-07
2.9084e-07
7.13439e-07
2.83031e-07
2.37566e-07
2.21342e-07
2.29784e-07
2.69905e-07
2.60894e-07
2.43833e-07
2.22655e-07
2.36318e-07
2.4377e-07
2.97361e-07
2.65389e-07
2.19773e-07
1.84362e-07
2.16962e-07
1.80106e-07
2.40346e-07
2.3429e-07
6.42585e-07
2.81005e-07
4.48948e-07
2.77735e-07
2.27482e-07
2.26105e-07
2.20692e-07
2.6022e-07
2.51561e-07
2.33546e-07
2.17268e-07
2.24435e-07
2.35215e-07
2.62493e-07
2.41959e-07
2.1609e-07
1.78756e-07
2.13541e-07
1.7542e-07
2.34114e-07
2.26851e-07
3.97021e-07
2.7767e-07
2.86952e-07
2.78562e-07
2.18207e-07
2.2657e-07
2.11278e-07
2.50873e-07
2.42578e-07
2.21687e-07
2.14659e-07
2.14991e-07
2.26666e-07
2.40597e-07
2.26608e-07
2.12661e-07
1.7439e-07
2.09488e-07
1.71703e-07
2.26426e-07
2.1627e-07
2.64885e-07
2.7901e-07
2.283e-07
2.78662e-07
2.09226e-07
2.14937e-07
2.03184e-07
2.42009e-07
2.34185e-07
2.13234e-07
2.12788e-07
2.08726e-07
2.18792e-07
2.25863e-07
2.17075e-07
2.08272e-07
1.70801e-07
2.04557e-07
1.68663e-07
2.15752e-07
2.04723e-07
2.21686e-07
2.7643e-07
2.09129e-07
2.6684e-07
2.01147e-07
1.98183e-07
1.95493e-07
2.33468e-07
2.24012e-07
2.07132e-07
2.10754e-07
2.01093e-07
2.1151e-07
2.16794e-07
2.10173e-07
2.03342e-07
1.67955e-07
1.99829e-07
1.6636e-07
2.04279e-07
1.94687e-07
2.06434e-07
2.65076e-07
2.00583e-07
2.63988e-07
1.93864e-07
1.80435e-07
1.89948e-07
2.23482e-07
2.20495e-07
1.98881e-07
2.10956e-07
1.93268e-07
2.04481e-07
2.10103e-07
2.04767e-07
1.98926e-07
1.65914e-07
1.96389e-07
1.65068e-07
1.94735e-07
1.90354e-07
1.99097e-07
2.64115e-07
1.95584e-07
2.67497e-07
1.88772e-07
1.68115e-07
1.86765e-07
2.20848e-07
2.22642e-07
1.91819e-07
2.14194e-07
1.8802e-07
1.99281e-07
2.0494e-07
2.01342e-07
1.95878e-07
1.65044e-07
1.94658e-07
1.6561e-07
1.90828e-07
1.88175e-07
1.94863e-07
2.72354e-07
1.93352e-07
2.94905e-07
1.86806e-07
1.64729e-07
1.88041e-07
2.2391e-07
2.31307e-07
1.87267e-07
2.19461e-07
1.86143e-07
1.964e-07
2.01893e-07
2.00819e-07
1.94472e-07
1.66041e-07
1.94982e-07
1.68599e-07
1.89021e-07
1.87946e-07
1.93192e-07
3.06346e-07
1.9424e-07
3.52729e-07
1.89254e-07
1.66703e-07
1.94022e-07
2.34006e-07
2.48127e-07
1.86276e-07
2.28121e-07
1.88551e-07
1.97048e-07
2.02229e-07
2.04999e-07
1.95738e-07
1.69827e-07
2.00396e-07
1.75888e-07
1.89552e-07
1.92484e-07
1.95066e-07
3.69017e-07
1.98558e-07
4.17429e-07
1.96038e-07
1.74063e-07
2.05214e-07
2.52496e-07
2.72649e-07
1.89755e-07
2.44346e-07
1.93665e-07
2.02663e-07
2.08106e-07
2.18227e-07
2.03017e-07
1.7852e-07
2.15461e-07
1.90206e-07
1.95693e-07
2.06135e-07
2.01204e-07
4.29957e-07
2.10814e-07
4.54554e-07
2.11187e-07
1.89324e-07
2.34723e-07
2.7799e-07
2.95377e-07
1.96477e-07
2.6899e-07
2.05634e-07
2.18122e-07
2.24427e-07
2.47579e-07
2.20953e-07
1.95734e-07
2.43411e-07
2.16184e-07
2.12654e-07
2.35147e-07
2.16242e-07
4.57618e-07
2.36466e-07
4.46697e-07
2.43674e-07
2.15126e-07
2.76796e-07
2.99606e-07
3.14061e-07
2.11026e-07
3.09253e-07
2.33473e-07
2.53021e-07
2.5926e-07
3.06728e-07
2.52547e-07
2.24169e-07
2.85997e-07
2.57834e-07
2.4664e-07
2.9366e-07
2.45098e-07
4.2356e-07
2.8311e-07
4.04768e-07
2.92054e-07
2.57653e-07
3.55066e-07
3.20845e-07
3.6022e-07
2.42734e-07
3.64017e-07
2.76984e-07
3.20646e-07
3.28042e-07
4.18069e-07
3.0105e-07
2.72589e-07
3.54293e-07
3.28109e-07
3.16291e-07
4.0847e-07
2.96564e-07
4.06174e-07
3.54753e-07
4.16031e-07
3.89964e-07
3.28213e-07
4.98891e-07
3.77112e-07
4.22116e-07
2.93758e-07
4.35193e-07
3.48049e-07
4.60086e-07
4.52884e-07
6.21731e-07
3.76107e-07
3.46547e-07
4.58789e-07
4.31132e-07
4.42016e-07
6.10782e-07
3.78501e-07
4.42715e-07
4.6288e-07
5.63159e-07
5.35758e-07
4.31816e-07
6.98984e-07
4.75953e-07
7.37192e-07
3.67656e-07
5.45245e-07
4.77654e-07
7.15014e-07
6.83284e-07
9.74382e-07
4.91199e-07
4.66972e-07
6.14037e-07
5.73112e-07
6.79088e-07
9.49305e-07
5.01023e-07
5.77104e-07
6.26753e-07
6.39232e-07
7.33427e-07
5.76419e-07
8.69167e-07
7.61526e-07
9.03302e-07
4.99536e-07
6.66613e-07
6.26878e-07
1.00949e-06
1.07219e-06
1.52525e-06
6.58494e-07
6.19854e-07
8.27862e-07
8.04423e-07
1.03095e-06
1.5542e-06
6.65277e-07
6.6017e-07
8.74921e-07
8.76358e-07
9.42245e-07
8.05449e-07
1.05604e-06
1.00408e-06
1.57672e-06
6.99326e-07
8.80888e-07
8.46131e-07
1.62317e-06
1.67909e-06
2.42328e-06
9.03766e-07
8.70868e-07
1.11142e-06
1.09588e-06
1.71924e-06
2.38518e-06
9.44595e-07
9.82076e-07
1.17977e-06
1.13047e-06
1.06626e-06
1.09903e-06
1.24588e-06
1.77145e-06
2.43223e-06
8.81331e-07
1.14489e-06
1.17524e-06
2.45058e-06
2.60582e-06
3.67566e-06
1.20657e-06
1.17524e-06
1.53927e-06
1.47901e-06
2.57483e-06
3.5616e-06
1.2878e-06
1.16303e-06
1.60692e-06
1.53669e-06
1.36045e-06
1.48113e-06
1.6321e-06
2.54081e-06
3.5087e-06
1.31829e-06
1.49925e-06
1.63177e-06
3.90758e-06
3.96583e-06
5.18429e-06
1.62509e-06
1.60315e-06
2.00874e-06
1.97445e-06
3.86025e-06
5.29216e-06
1.71372e-06
1.67087e-06
2.14253e-06
1.9922e-06
1.68775e-06
1.97514e-06
1.98759e-06
3.86225e-06
5.19324e-06
1.68307e-06
1.96859e-06
2.07318e-06
4.87185e-06
5.57551e-06
7.34172e-06
2.18478e-06
2.10895e-06
2.57454e-06
2.58284e-06
5.62512e-06
7.16879e-06
2.32112e-06
2.13004e-06
2.75173e-06
2.6432e-06
2.16848e-06
2.57766e-06
2.57774e-06
5.49558e-06
7.21263e-06
2.29234e-06
2.61703e-06
2.76033e-06
7.47348e-06
7.66714e-06
9.47897e-06
2.71837e-06
2.74791e-06
3.383e-06
3.29184e-06
7.60787e-06
9.50482e-06
2.90072e-06
2.81348e-06
3.49793e-06
3.2798e-06
2.68792e-06
3.28846e-06
3.35927e-06
7.66448e-06
9.4151e-06
2.88968e-06
3.26765e-06
3.50694e-06
9.37126e-06
1.00896e-05
1.20162e-05
3.58708e-06
3.48725e-06
4.14437e-06
4.11658e-06
9.95784e-06
1.18776e-05
3.71572e-06
3.47836e-06
4.46897e-06
4.23131e-06
3.60207e-06
4.11106e-06
4.09591e-06
9.85009e-06
1.20141e-05
3.75789e-06
4.21917e-06
4.49468e-06
1.22293e-05
1.23822e-05
1.42796e-05
4.38567e-06
4.34401e-06
5.1549e-06
5.12132e-06
1.23763e-05
1.44781e-05
4.64514e-06
4.4651e-06
5.0767e-06
5.08539e-06
4.31265e-06
5.10288e-06
5.14308e-06
1.25732e-05
1.43926e-05
4.69407e-06
5.05186e-06
4.98281e-06
1.4069e-05
1.48327e-05
1.68035e-05
5.37312e-06
5.39841e-06
6.14455e-06
6.17592e-06
1.50007e-05
1.6856e-05
5.37325e-06
5.30752e-06
6.56669e-06
6.20982e-06
5.31751e-06
6.17076e-06
6.04873e-06
1.48069e-05
1.67001e-05
5.09943e-06
6.20111e-06
6.44027e-06
1.67713e-05
1.73228e-05
1.93751e-05
6.51966e-06
6.44467e-06
7.66819e-06
7.42259e-06
1.7308e-05
1.90585e-05
6.95042e-06
6.57289e-06
7.93913e-06
7.46522e-06
6.53011e-06
7.39963e-06
7.72704e-06
1.72743e-05
1.92146e-05
7.04912e-06
7.47096e-06
8.1275e-06
1.96181e-05
1.9813e-05
2.08995e-05
7.90452e-06
7.80283e-06
8.57059e-06
8.76469e-06
1.957e-05
2.11498e-05
8.14199e-06
7.74576e-06
8.65012e-06
8.86184e-06
7.85894e-06
8.74144e-06
8.6082e-06
1.96576e-05
2.10844e-05
8.22234e-06
8.76259e-06
8.51637e-06
2.08644e-05
2.13127e-05
2.31433e-05
9.01308e-06
9.03252e-06
1.05521e-05
1.01044e-05
2.15496e-05
2.28702e-05
9.02896e-06
9.18554e-06
1.0437e-05
1.01377e-05
9.10523e-06
1.00763e-05
1.01927e-05
2.15214e-05
2.30345e-05
9.00303e-06
1.01297e-05
1.01889e-05
2.30324e-05
2.3576e-05
2.45264e-05
1.08482e-05
1.05729e-05
1.14553e-05
1.17934e-05
2.33054e-05
2.48273e-05
1.07301e-05
1.06094e-05
1.15497e-05
1.20562e-05
1.04737e-05
1.17642e-05
1.16857e-05
2.34651e-05
2.47361e-05
1.04936e-05
1.19919e-05
1.19014e-05
2.47269e-05
2.48889e-05
2.64681e-05
1.18559e-05
1.21207e-05
1.38003e-05
1.35219e-05
2.52031e-05
2.62177e-05
1.20262e-05
1.23254e-05
1.36995e-05
1.28967e-05
1.21697e-05
1.34954e-05
1.39135e-05
2.5054e-05
2.60718e-05
1.23226e-05
1.28527e-05
1.38175e-05
2.67614e-05
2.68925e-05
2.77115e-05
1.43978e-05
1.39159e-05
1.53975e-05
1.47336e-05
2.6559e-05
2.75636e-05
1.41307e-05
1.34081e-05
1.50376e-05
1.59172e-05
1.44139e-05
1.46722e-05
1.5014e-05
2.64916e-05
2.80884e-05
1.43981e-05
1.5733e-05
1.53622e-05
2.73996e-05
2.79722e-05
2.88653e-05
1.56701e-05
1.52896e-05
1.67806e-05
1.72748e-05
2.79351e-05
2.90531e-05
1.54192e-05
1.66222e-05
1.67991e-05
1.75005e-05
1.50858e-05
1.72162e-05
1.60341e-05
2.84389e-05
2.89575e-05
1.54369e-05
1.66396e-05
1.58255e-05
2.84613e-05
2.919e-05
3.00799e-05
1.71986e-05
1.76316e-05
1.84287e-05
1.80131e-05
2.92872e-05
2.9809e-05
1.72151e-05
1.75566e-05
1.83131e-05
1.79861e-05
1.66979e-05
1.79688e-05
1.93062e-05
2.91462e-05
3.00514e-05
1.6475e-05
1.8421e-05
1.97684e-05
3.10016e-05
3.03819e-05
3.15951e-05
1.88751e-05
1.82371e-05
2.06489e-05
2.06454e-05
3.01336e-05
3.18905e-05
1.87462e-05
1.86366e-05
2.05245e-05
2.08216e-05
2.0015e-05
2.06546e-05
2.08752e-05
3.04735e-05
3.16077e-05
2.0574e-05
2.07965e-05
2.14977e-05
3.15256e-05
3.19409e-05
3.26649e-05
2.12584e-05
2.15578e-05
2.25224e-05
2.30181e-05
3.22771e-05
3.28037e-05
2.113e-05
2.12703e-05
2.23767e-05
2.21953e-05
2.09152e-05
2.29004e-05
2.11233e-05
3.18256e-05
3.24141e-05
2.15197e-05
2.17406e-05
2.15177e-05
3.19644e-05
3.28496e-05
3.34924e-05
2.27299e-05
2.31298e-05
2.36672e-05
2.33003e-05
3.28941e-05
3.32067e-05
2.26412e-05
2.26832e-05
2.37236e-05
2.44174e-05
2.15369e-05
2.32032e-05
2.47127e-05
3.27014e-05
3.39881e-05
2.15818e-05
2.44502e-05
2.4362e-05
3.42919e-05
3.37998e-05
3.4982e-05
2.42156e-05
2.35373e-05
2.58637e-05
2.59748e-05
3.34937e-05
3.51132e-05
2.4251e-05
2.48189e-05
2.58428e-05
2.56079e-05
2.53572e-05
2.59762e-05
2.59859e-05
3.42428e-05
3.47262e-05
2.53886e-05
2.56204e-05
2.65238e-05
3.50563e-05
3.52529e-05
3.60475e-05
2.63298e-05
2.64751e-05
2.77526e-05
2.76447e-05
3.53759e-05
3.60122e-05
2.63111e-05
2.59644e-05
2.76921e-05
2.7687e-05
2.61111e-05
2.76047e-05
2.748e-05
3.49274e-05
3.60747e-05
2.66297e-05
2.74408e-05
2.74678e-05
3.58964e-05
3.6278e-05
3.69553e-05
2.81305e-05
2.8194e-05
2.90807e-05
2.93144e-05
3.62662e-05
3.7071e-05
2.80865e-05
2.83003e-05
2.91451e-05
2.95427e-05
2.78118e-05
2.92116e-05
2.90376e-05
3.64065e-05
3.71741e-05
2.77712e-05
2.9696e-05
2.93322e-05
3.69979e-05
3.71707e-05
3.80307e-05
2.94889e-05
2.94652e-05
3.079e-05
3.05842e-05
3.72343e-05
3.79154e-05
2.95441e-05
2.9694e-05
3.0716e-05
3.00654e-05
2.96986e-05
3.06855e-05
3.11024e-05
3.73096e-05
3.76358e-05
2.9909e-05
3.03359e-05
3.07559e-05
3.81114e-05
3.82717e-05
3.9082e-05
3.12201e-05
3.11707e-05
3.22164e-05
3.24615e-05
3.82109e-05
3.9148e-05
3.10936e-05
3.05191e-05
3.22146e-05
3.28401e-05
3.1239e-05
3.22984e-05
3.21186e-05
3.78343e-05
3.93625e-05
3.08941e-05
3.21945e-05
3.21878e-05
3.91342e-05
3.93135e-05
4.04358e-05
3.25371e-05
3.26559e-05
3.41587e-05
3.36629e-05
3.93068e-05
4.0122e-05
3.26438e-05
3.34445e-05
3.42853e-05
3.41089e-05
3.27614e-05
3.37119e-05
3.44121e-05
3.97634e-05
4.05077e-05
3.29214e-05
3.46436e-05
3.4645e-05
4.06044e-05
4.07016e-05
4.10408e-05
3.46788e-05
3.42986e-05
3.53065e-05
3.58996e-05
4.0475e-05
4.15826e-05
3.46871e-05
3.41524e-05
3.50834e-05
3.50081e-05
3.46437e-05
3.58797e-05
3.48306e-05
4.0581e-05
4.09451e-05
3.48725e-05
3.53364e-05
3.5008e-05
4.05584e-05
4.11039e-05
4.17828e-05
3.53629e-05
3.61091e-05
3.61689e-05
3.62214e-05
4.1678e-05
4.15971e-05
3.51767e-05
3.56984e-05
3.63158e-05
3.6579e-05
3.49174e-05
3.61171e-05
3.61099e-05
4.12218e-05
4.19059e-05
3.50215e-05
3.58989e-05
3.56949e-05
4.17876e-05
4.21136e-05
4.33024e-05
3.65971e-05
3.62411e-05
3.80547e-05
3.74486e-05
4.16392e-05
4.29402e-05
3.67784e-05
3.66487e-05
3.80788e-05
3.76237e-05
3.66431e-05
3.75976e-05
3.84872e-05
4.20321e-05
4.30501e-05
3.63999e-05
3.81397e-05
3.85411e-05
4.37386e-05
4.35232e-05
4.39029e-05
3.85188e-05
3.83067e-05
3.9196e-05
3.96703e-05
4.3413e-05
4.44122e-05
3.84682e-05
3.81763e-05
3.90828e-05
3.93693e-05
3.89739e-05
3.96828e-05
3.94456e-05
4.33649e-05
4.40265e-05
3.90972e-05
3.92516e-05
3.96905e-05
4.42047e-05
4.39724e-05
4.44301e-05
3.92485e-05
3.9772e-05
3.98463e-05
3.99316e-05
4.44783e-05
4.44315e-05
3.91734e-05
3.95954e-05
3.99032e-05
3.99165e-05
3.94354e-05
3.9839e-05
3.93648e-05
4.41484e-05
4.4583e-05
3.96854e-05
3.99149e-05
3.95338e-05
4.38829e-05
4.47054e-05
4.55982e-05
4.03055e-05
4.00382e-05
4.12357e-05
4.06498e-05
4.44936e-05
4.49413e-05
4.02993e-05
4.00545e-05
4.12256e-05
4.10146e-05
3.94533e-05
4.06176e-05
4.13663e-05
4.47077e-05
4.52982e-05
3.95523e-05
4.10287e-05
4.10495e-05
4.56523e-05
4.57113e-05
4.62149e-05
4.13836e-05
4.1004e-05
4.21474e-05
4.23339e-05
4.51829e-05
4.6586e-05
4.14213e-05
4.14093e-05
4.22433e-05
4.23387e-05
4.18765e-05
4.23929e-05
4.24188e-05
4.5542e-05
4.64571e-05
4.168e-05
4.23558e-05
4.2454e-05
4.65065e-05
4.64555e-05
4.72333e-05
4.25091e-05
4.28069e-05
4.34403e-05
4.39616e-05
4.69141e-05
4.77856e-05
4.25643e-05
4.26015e-05
4.3297e-05
4.34645e-05
4.24673e-05
4.39979e-05
4.32047e-05
4.66397e-05
4.72564e-05
4.25377e-05
4.35422e-05
4.32482e-05
4.70789e-05
4.73763e-05
4.78441e-05
4.37307e-05
4.41459e-05
4.44432e-05
4.42294e-05
4.78546e-05
4.7469e-05
4.35757e-05
4.37382e-05
4.44601e-05
4.41742e-05
4.36946e-05
4.42387e-05
4.46936e-05
4.73848e-05
4.74896e-05
4.36668e-05
4.39661e-05
4.46804e-05
4.8151e-05
4.793e-05
4.79567e-05
4.45377e-05
4.4179e-05
4.45915e-05
4.41294e-05
4.7449e-05
4.73338e-05
4.46059e-05
4.42098e-05
4.46925e-05
4.45141e-05
4.4769e-05
4.40848e-05
4.46881e-05
4.75151e-05
4.79609e-05
4.47895e-05
4.462e-05
4.47671e-05
4.79127e-05
4.80097e-05
4.91136e-05
4.46275e-05
4.42387e-05
4.57162e-05
4.5911e-05
4.75569e-05
4.93917e-05
4.47192e-05
4.48393e-05
4.57215e-05
4.62566e-05
4.46596e-05
4.58888e-05
4.51727e-05
4.82524e-05
4.9733e-05
4.47453e-05
4.63436e-05
4.52169e-05
4.87229e-05
4.94644e-05
5.0414e-05
4.62962e-05
4.64812e-05
4.75784e-05
4.75863e-05
4.97572e-05
5.04891e-05
4.63179e-05
4.67338e-05
4.75513e-05
4.74468e-05
4.59521e-05
4.76441e-05
4.77251e-05
5.0005e-05
5.02491e-05
4.59053e-05
4.74464e-05
4.76383e-05
5.06705e-05
5.04782e-05
5.03207e-05
4.77397e-05
4.77333e-05
4.7797e-05
4.78579e-05
5.05375e-05
5.05313e-05
4.76893e-05
4.74685e-05
4.77236e-05
4.73508e-05
4.80212e-05
4.79472e-05
4.81913e-05
5.02321e-05
4.97176e-05
4.79799e-05
4.72769e-05
4.82208e-05
5.08653e-05
5.03354e-05
5.08491e-05
4.7782e-05
4.78898e-05
4.80322e-05
4.8473e-05
5.06069e-05
5.11049e-05
4.77106e-05
4.73409e-05
4.80305e-05
4.78664e-05
4.8113e-05
4.8411e-05
4.75084e-05
4.97348e-05
5.06692e-05
4.81674e-05
4.76209e-05
4.7433e-05
4.96928e-05
5.1057e-05
5.12196e-05
4.84307e-05
4.86517e-05
4.89297e-05
4.86986e-05
5.11458e-05
5.06479e-05
4.84342e-05
4.8446e-05
4.89084e-05
4.92376e-05
4.7456e-05
4.82862e-05
4.78301e-05
5.10139e-05
5.15594e-05
4.73408e-05
4.88863e-05
4.77046e-05
5.06107e-05
5.12321e-05
5.16627e-05
4.89458e-05
4.86806e-05
4.90867e-05
4.89421e-05
5.06452e-05
5.18345e-05
4.89255e-05
4.92855e-05
4.91341e-05
4.9473e-05
4.8558e-05
4.91839e-05
5.10213e-05
5.15972e-05
5.22235e-05
4.86127e-05
5.00903e-05
5.13899e-05
5.40854e-05
5.19842e-05
5.36394e-05
4.93975e-05
4.96138e-05
5.12631e-05
5.15056e-05
5.24868e-05
5.41223e-05
4.95518e-05
4.97753e-05
5.13577e-05
5.14409e-05
5.15895e-05
5.18591e-05
5.19874e-05
5.25696e-05
5.3748e-05
5.18703e-05
5.15434e-05
5.20965e-05
5.41587e-05
5.38061e-05
5.35793e-05
5.15838e-05
5.16127e-05
5.17282e-05
5.11824e-05
5.41362e-05
5.23689e-05
5.1683e-05
5.16352e-05
5.18381e-05
5.15349e-05
5.18839e-05
5.09286e-05
4.98903e-05
5.37938e-05
5.28047e-05
5.19088e-05
5.1033e-05
4.95681e-05
5.0758e-05
5.35019e-05
5.25171e-05
5.16299e-05
5.08086e-05
5.09351e-05
5.05533e-05
5.21677e-05
5.21662e-05
5.17392e-05
5.11553e-05
5.0817e-05
5.0334e-05
4.94062e-05
5.02026e-05
4.92639e-05
5.26028e-05
5.1838e-05
4.90736e-05
5.00028e-05
4.89311e-05
5.10444e-05
5.25183e-05
5.3661e-05
5.08956e-05
5.06693e-05
5.14351e-05
5.3001e-05
5.26063e-05
5.57962e-05
5.07272e-05
5.03288e-05
5.10789e-05
5.16338e-05
4.97047e-05
5.33958e-05
5.38287e-05
5.19462e-05
5.45719e-05
4.94094e-05
5.2333e-05
5.3919e-05
5.66714e-05
5.4205e-05
5.57162e-05
5.22899e-05
5.36429e-05
5.38504e-05
5.40842e-05
5.61173e-05
5.5773e-05
5.19234e-05
5.27242e-05
5.38824e-05
5.44246e-05
5.46112e-05
5.42456e-05
5.5107e-05
5.51508e-05
5.64522e-05
5.48685e-05
5.47371e-05
5.56459e-05
5.73112e-05
5.57672e-05
5.49159e-05
5.39657e-05
5.39831e-05
5.37281e-05
5.22356e-05
5.54859e-05
5.27801e-05
5.40614e-05
5.45003e-05
5.39375e-05
5.39355e-05
5.4957e-05
5.19195e-05
5.25732e-05
5.64634e-05
5.48153e-05
5.55651e-05
5.40061e-05
5.31047e-05
5.35839e-05
5.47266e-05
5.4016e-05
5.32591e-05
5.18281e-05
5.25943e-05
5.16803e-05
5.26023e-05
5.32214e-05
5.35198e-05
5.32762e-05
5.27157e-05
5.23053e-05
5.19824e-05
5.14634e-05
5.15668e-05
5.44954e-05
5.34018e-05
5.224e-05
5.19811e-05
5.13127e-05
5.26697e-05
5.40711e-05
5.58216e-05
5.25977e-05
5.19801e-05
5.38425e-05
5.50672e-05
5.38645e-05
5.7592e-05
5.27039e-05
5.22931e-05
5.36236e-05
5.34455e-05
5.17245e-05
5.54223e-05
5.44277e-05
5.34377e-05
5.55307e-05
5.13464e-05
5.31784e-05
5.35747e-05
5.61382e-05
5.62419e-05
5.70657e-05
5.4565e-05
5.57474e-05
5.55655e-05
5.62773e-05
5.79658e-05
5.80035e-05
5.43942e-05
5.43206e-05
5.55252e-05
5.56765e-05
5.51372e-05
5.65798e-05
5.59036e-05
5.60496e-05
5.72914e-05
5.44991e-05
5.5686e-05
5.5704e-05
5.73241e-05
5.70584e-05
5.59379e-05
5.55916e-05
5.62084e-05
5.50575e-05
5.46024e-05
5.77565e-05
5.52304e-05
5.55638e-05
5.57469e-05
5.51239e-05
5.53825e-05
5.58974e-05
5.4525e-05
5.49549e-05
5.73115e-05
5.63262e-05
5.57384e-05
5.5584e-05
5.52936e-05
5.60182e-05
5.57954e-05
5.55452e-05
5.46889e-05
5.41497e-05
5.43727e-05
5.38113e-05
5.50017e-05
5.47436e-05
5.47637e-05
5.49821e-05
5.44286e-05
5.45615e-05
5.46086e-05
5.35617e-05
5.43966e-05
5.61686e-05
5.57919e-05
5.50403e-05
5.48108e-05
5.48908e-05
5.59618e-05
5.57014e-05
5.71564e-05
5.44162e-05
5.38952e-05
5.56557e-05
5.54411e-05
5.49944e-05
5.68618e-05
5.44591e-05
5.4578e-05
5.55689e-05
5.54459e-05
5.44975e-05
5.53216e-05
5.56954e-05
5.58966e-05
5.69146e-05
5.49693e-05
5.55028e-05
5.57208e-05
5.71995e-05
5.73215e-05
5.72352e-05
5.59568e-05
5.57768e-05
5.61089e-05
5.59956e-05
5.70528e-05
5.7108e-05
5.58847e-05
5.56843e-05
5.60596e-05
5.57409e-05
5.58122e-05
5.59705e-05
5.5597e-05
5.70082e-05
5.6664e-05
5.57603e-05
5.55877e-05
5.5382e-05
5.63182e-05
5.71539e-05
5.66427e-05
5.60381e-05
5.59694e-05
5.57006e-05
5.58871e-05
5.7091e-05
5.70519e-05
5.59944e-05
5.56129e-05
5.56681e-05
5.54534e-05
5.53501e-05
5.59082e-05
5.52043e-05
5.65733e-05
5.63735e-05
5.51045e-05
5.52706e-05
5.49606e-05
5.60442e-05
5.66574e-05
5.78719e-05
5.57032e-05
5.5927e-05
5.64794e-05
5.68364e-05
5.7181e-05
5.82613e-05
5.5673e-05
5.55268e-05
5.65332e-05
5.7082e-05
5.5352e-05
5.69495e-05
5.7222e-05
5.65675e-05
5.86623e-05
5.51566e-05
5.72355e-05
5.73022e-05
5.88074e-05
5.8103e-05
5.83114e-05
5.68876e-05
5.7058e-05
5.72105e-05
5.70919e-05
5.83506e-05
5.7854e-05
5.69445e-05
5.74394e-05
5.72368e-05
5.754e-05
5.75515e-05
5.71145e-05
5.76009e-05
5.88492e-05
5.84259e-05
5.76356e-05
5.75936e-05
5.76409e-05
5.84456e-05
5.81892e-05
5.68888e-05
5.71608e-05
5.6894e-05
5.61656e-05
5.58211e-05
5.76471e-05
5.64665e-05
5.71688e-05
5.72919e-05
5.60951e-05
5.56644e-05
5.72934e-05
5.57292e-05
5.55922e-05
5.81229e-05
5.62244e-05
5.72476e-05
5.56335e-05
5.5593e-05
5.6172e-05
5.68225e-05
5.7316e-05
5.59663e-05
5.57342e-05
5.60111e-05
5.618e-05
5.64598e-05
5.79117e-05
5.59034e-05
5.54639e-05
5.59618e-05
5.56374e-05
5.53994e-05
5.61553e-05
5.56483e-05
5.61614e-05
5.71552e-05
5.54387e-05
5.57054e-05
5.57747e-05
5.7289e-05
5.76929e-05
5.91763e-05
5.64026e-05
5.70072e-05
5.7978e-05
5.84841e-05
5.84222e-05
5.99531e-05
5.63677e-05
5.62831e-05
5.79713e-05
5.82847e-05
5.64328e-05
5.85659e-05
5.85292e-05
5.76599e-05
5.96615e-05
5.66121e-05
5.83318e-05
5.85253e-05
5.99399e-05
5.9227e-05
5.8286e-05
5.81055e-05
5.85306e-05
5.78037e-05
5.75319e-05
5.99621e-05
5.76781e-05
5.8118e-05
5.84789e-05
5.7901e-05
5.82518e-05
5.86898e-05
5.76247e-05
5.82235e-05
5.97442e-05
5.86662e-05
5.866e-05
5.8216e-05
5.81497e-05
5.84585e-05
5.79937e-05
5.65174e-05
5.7178e-05
5.65385e-05
5.56863e-05
5.47824e-05
5.71399e-05
5.51527e-05
5.7355e-05
5.76054e-05
5.58198e-05
5.56663e-05
5.72828e-05
5.47411e-05
5.51144e-05
5.82745e-05
5.61911e-05
5.72068e-05
5.55012e-05
5.50398e-05
5.55833e-05
5.64714e-05
5.7102e-05
5.55182e-05
5.46932e-05
5.56718e-05
5.56139e-05
5.51506e-05
5.75292e-05
5.56115e-05
5.53908e-05
5.56509e-05
5.53942e-05
5.48919e-05
5.55293e-05
5.51823e-05
5.6099e-05
5.67361e-05
5.48092e-05
5.52769e-05
5.50818e-05
5.68055e-05
5.75012e-05
5.96885e-05
5.62493e-05
5.68799e-05
5.85201e-05
5.9678e-05
5.82727e-05
6.14044e-05
5.60386e-05
5.57921e-05
5.82517e-05
5.82099e-05
5.60848e-05
5.97099e-05
5.89637e-05
5.71961e-05
5.97066e-05
5.59659e-05
5.84447e-05
5.8971e-05
6.04555e-05
5.99265e-05
5.99823e-05
5.89343e-05
6.00194e-05
5.91217e-05
5.98326e-05
6.15836e-05
6.02867e-05
5.87043e-05
5.87208e-05
5.8989e-05
5.90893e-05
5.94052e-05
5.98624e-05
5.94967e-05
5.9983e-05
6.02257e-05
5.94654e-05
5.9348e-05
5.96365e-05
6.03006e-05
5.96885e-05
5.70515e-05
5.88858e-05
5.89957e-05
5.63593e-05
5.54505e-05
5.96375e-05
5.56634e-05
5.88471e-05
5.89812e-05
5.66221e-05
5.68374e-05
5.90776e-05
5.54102e-05
5.60815e-05
5.99785e-05
5.73367e-05
5.9296e-05
5.67473e-05
5.62655e-05
5.66338e-05
5.67627e-05
5.60207e-05
5.56935e-05
5.4711e-05
5.49067e-05
5.40758e-05
5.53205e-05
5.49315e-05
5.59551e-05
5.61326e-05
5.51027e-05
5.51466e-05
5.54237e-05
5.40937e-05
5.48153e-05
5.70204e-05
5.60957e-05
5.5548e-05
5.50001e-05
5.48206e-05
5.58516e-05
5.60861e-05
5.76462e-05
5.49167e-05
5.41627e-05
5.61643e-05
5.64819e-05
5.52698e-05
5.81987e-05
5.51012e-05
5.51288e-05
5.60581e-05
5.58684e-05
5.48644e-05
5.659e-05
5.64983e-05
5.61203e-05
5.73791e-05
5.48499e-05
5.58687e-05
5.62742e-05
5.79444e-05
5.79725e-05
5.88787e-05
5.68143e-05
5.73205e-05
5.78346e-05
5.85253e-05
5.86589e-05
5.99045e-05
5.66475e-05
5.64161e-05
5.75979e-05
5.73167e-05
5.70893e-05
5.85201e-05
5.78419e-05
5.76678e-05
5.84191e-05
5.68515e-05
5.73267e-05
5.76208e-05
5.88599e-05
5.89242e-05
5.847e-05
5.79134e-05
5.85769e-05
5.76797e-05
5.78821e-05
5.99282e-05
5.85201e-05
5.76891e-05
5.74485e-05
5.75878e-05
5.75002e-05
5.78647e-05
5.77775e-05
5.73736e-05
5.8485e-05
5.85572e-05
5.76599e-05
5.74981e-05
5.74041e-05
5.82031e-05
5.8289e-05
5.71563e-05
5.71862e-05
5.7135e-05
5.59868e-05
5.56289e-05
5.81733e-05
5.65796e-05
5.72638e-05
5.74581e-05
5.61738e-05
5.66048e-05
5.69214e-05
5.56153e-05
5.59434e-05
5.85582e-05
5.77718e-05
5.70565e-05
5.66395e-05
5.61768e-05
5.71659e-05
5.69924e-05
5.48456e-05
5.45023e-05
5.64647e-05
5.49921e-05
5.53623e-05
4.56442e-05
4.65505e-05
4.60144e-05
5.48422e-05
5.75214e-05
5.50203e-05
2.47303e-07
2.71678e-07
1.14738e-07
1.598e-07
4.17749e-07
2.70547e-07
1.35985e-07
2.83949e-07
1.4239e-07
3.10278e-07
9.77706e-08
1.46551e-07
3.48503e-07
2.68847e-07
4.42081e-07
3.1016e-07
7.31233e-06
2.65543e-07
8.47892e-06
1.30863e-05
2.04436e-05
3.59324e-07
5.35181e-06
3.20152e-07
7.1389e-06
1.68458e-07
1.95179e-07
1.90178e-07
2.14217e-07
1.67693e-07
1.94242e-07
1.8962e-07
3.96319e-07
5.18461e-07
4.19583e-07
2.58761e-07
4.00558e-07
5.03968e-07
4.21866e-07
1.35719e-05
2.09323e-05
1.36908e-07
1.53018e-07
5.0201e-07
2.75942e-07
1.37961e-07
1.5186e-07
4.96859e-07
1.89243e-06
2.00499e-06
3.33131e-07
1.86834e-06
1.896e-06
5.04606e-07
1.07984e-05
4.1458e-07
1.24596e-05
3.5493e-05
4.52317e-05
5.53484e-07
1.07729e-05
4.62389e-07
1.35569e-05
1.66829e-07
1.93372e-07
1.88764e-07
2.08435e-07
1.64292e-07