/*--------------------------------*- C++ -*----------------------------------*\
| =========                 |                                                 |
| \\      /  F ield         | OpenFOAM: The Open Source CFD Toolbox           |
|  \\    /   O peration     | Version:  v2012                                 |
|   \\  /    A nd           | Website:  www.openfoam.com                      |
|    \\/     M anipulation  |                                                 |
\*---------------------------------------------------------------------------*/
FoamFile
{
    version     2.0;
    format      ascii;
    class       volScalarField;
    location    "962.5";
    object      k;
}
// * * * * * * * * * * * * * * * * * * * * * * * * * * * * * * * * * * * * * //

dimensions      [0 2 -2 0 0 0 0];


internalField   nonuniform List<scalar> 
171728
(
1.77451e-07
4.26314e-07
3.15264e-07
3.43426e-07
1.74177e-07
4.37076e-07
3.00411e-07
3.28836e-07
1.67181e-07
4.66032e-07
2.86475e-07
3.11883e-07
1.58032e-07
5.018e-07
2.7462e-07
2.94703e-07
1.50212e-07
5.41085e-07
2.6359e-07
2.79313e-07
1.4736e-07
5.74469e-07
2.53507e-07
2.65897e-07
1.44517e-07
5.7985e-07
2.44594e-07
2.56272e-07
1.39626e-07
4.7407e-07
2.36862e-07
2.51657e-07
1.34978e-07
3.22596e-07
2.28903e-07
2.51081e-07
1.32639e-07
2.41399e-07
2.22205e-07
2.54212e-07
1.27758e-07
2.10251e-07
2.17293e-07
2.62013e-07
1.19913e-07
1.97642e-07
2.09733e-07
2.67761e-07
1.15029e-07
1.84958e-07
2.0019e-07
2.66159e-07
1.13167e-07
1.74724e-07
1.90644e-07
2.31255e-07
1.11682e-07
1.70941e-07
1.83751e-07
2.09163e-07
1.1004e-07
1.73149e-07
1.82173e-07
2.00695e-07
1.0838e-07
1.82837e-07
1.89127e-07
2.09073e-07
1.06586e-07
1.98726e-07
2.07159e-07
2.24792e-07
1.04886e-07
2.27482e-07
2.3895e-07
2.59904e-07
1.03371e-07
2.79881e-07
2.88925e-07
3.32219e-07
1.0221e-07
3.45248e-07
3.71716e-07
4.62485e-07
1.01278e-07
4.6555e-07
5.21718e-07
7.05331e-07
1.01231e-07
6.32453e-07
7.63594e-07
1.09555e-06
1.0146e-07
8.59935e-07
1.05155e-06
1.63656e-06
1.03621e-07
1.17041e-06
1.46779e-06
2.79364e-06
1.07263e-07
1.57221e-06
2.00224e-06
3.11373e-06
1.14447e-07
2.14082e-06
2.48571e-06
7.38126e-06
1.23906e-07
2.77068e-06
2.6876e-06
7.29724e-06
1.38274e-07
3.42876e-06
3.92874e-06
9.8147e-06
1.63544e-07
4.53594e-06
4.78279e-06
1.23274e-05
1.95209e-07
5.12891e-06
5.36575e-06
1.54222e-05
2.51742e-07
6.78061e-06
6.09455e-06
1.7264e-05
3.00149e-07
7.56694e-06
8.18684e-06
1.9222e-05
4.24605e-07
8.94372e-06
8.8844e-06
2.16757e-05
5.39798e-07
1.09472e-05
1.0841e-05
2.44491e-05
6.80138e-07
1.198e-05
1.22023e-05
2.48076e-05
9.02936e-07
1.34851e-05
1.31574e-05
2.52631e-05
1.17219e-06
1.55847e-05
1.573e-05
2.92998e-05
1.31717e-06
1.75031e-05
1.76675e-05
2.90316e-05
1.8982e-06
1.82194e-05
1.88093e-05
2.94399e-05
2.35808e-06
2.12628e-05
2.02875e-05
3.32381e-05
2.91914e-06
2.32454e-05
2.36339e-05
3.35034e-05
3.42384e-06
2.38515e-05
2.4787e-05
3.32829e-05
3.87008e-06
2.59609e-05
2.51471e-05
3.44056e-05
4.97606e-06
2.83475e-05
2.81696e-05
3.68701e-05
6.11331e-06
3.01785e-05
2.996e-05
3.75337e-05
6.76304e-06
3.08011e-05
3.11055e-05
3.79369e-05
7.9841e-06
3.22823e-05
3.26401e-05
3.91809e-05
9.6088e-06
3.4265e-05
3.45102e-05
4.07933e-05
1.01234e-05
3.58624e-05
3.52012e-05
4.12386e-05
1.2113e-05
3.65607e-05
3.67615e-05
4.14163e-05
1.3558e-05
3.8232e-05
3.80776e-05
4.37877e-05
1.54095e-05
3.94681e-05
3.96951e-05
4.46947e-05
1.66601e-05
3.99339e-05
4.07592e-05
4.45013e-05
1.7607e-05
4.15025e-05
4.10429e-05
4.48681e-05
2.03429e-05
4.2802e-05
4.14048e-05
4.68186e-05
2.21236e-05
4.31471e-05
4.35168e-05
4.74212e-05
2.25178e-05
4.44542e-05
4.50787e-05
4.77081e-05
2.28559e-05
4.55788e-05
4.57957e-05
4.87632e-05
2.62248e-05
4.58485e-05
4.59028e-05
4.8952e-05
2.83527e-05
4.68618e-05
4.64179e-05
4.9617e-05
2.88089e-05
4.77532e-05
4.78942e-05
5.08121e-05
2.97508e-05
4.88749e-05
4.90729e-05
5.12848e-05
3.08627e-05
4.94484e-05
4.91122e-05
5.12919e-05
3.18387e-05
4.95152e-05
4.92383e-05
5.18322e-05
3.36123e-05
5.03816e-05
5.10085e-05
5.28288e-05
3.54328e-05
5.17487e-05
5.17558e-05
5.38537e-05
3.59958e-05
5.19006e-05
5.18351e-05
5.40243e-05
3.5914e-05
5.18607e-05
5.18526e-05
5.3521e-05
3.63695e-05
5.31854e-05
5.23443e-05
5.37896e-05
3.90824e-05
5.38815e-05
5.39412e-05
5.54449e-05
4.00595e-05
5.34315e-05
5.40731e-05
5.55433e-05
4.00364e-05
5.32562e-05
5.38457e-05
5.5392e-05
4.01467e-05
5.44165e-05
5.44162e-05
5.61915e-05
4.16412e-05
5.5719e-05
5.5203e-05
5.67401e-05
4.27317e-05
5.5736e-05
5.52616e-05
5.62554e-05
4.2989e-05
5.5428e-05
5.53803e-05
5.63366e-05
4.35194e-05
5.57246e-05
5.62095e-05
5.76136e-05
4.4216e-05
5.62586e-05
5.62684e-05
5.73198e-05
4.46131e-05
5.61177e-05
5.59868e-05
5.66525e-05
4.46761e-05
5.60811e-05
5.60502e-05
5.75758e-05
4.53913e-05
5.70897e-05
5.71471e-05
5.83298e-05
4.60228e-05
5.72579e-05
5.71997e-05
5.76249e-05
4.60509e-05
5.68075e-05
5.67978e-05
5.76152e-05
4.62921e-05
5.72284e-05
5.73661e-05
5.90407e-05
4.65647e-05
5.74546e-05
5.74371e-05
5.82811e-05
4.61234e-05
5.65894e-05
5.62851e-05
5.6757e-05
4.61244e-05
5.67378e-05
5.64197e-05
5.81972e-05
4.77063e-05
5.77891e-05
5.81807e-05
5.93969e-05
4.77991e-05
5.72227e-05
5.8077e-05
5.77114e-05
4.5664e-05
5.60727e-05
5.57691e-05
5.70029e-05
4.53819e-05
5.63667e-05
5.55194e-05
5.84309e-05
4.80379e-05
5.76921e-05
5.78411e-05
5.84441e-05
4.85892e-05
5.73507e-05
5.81523e-05
5.7147e-05
4.55457e-05
5.43663e-05
5.46116e-05
5.69343e-05
3.59665e-07
3.58537e-07
2.95636e-07
3.49094e-07
4.00419e-07
3.45431e-07
1.73693e-07
1.94684e-07
1.80672e-07
1.82857e-07
3.6017e-07
3.00922e-07
3.60898e-07
3.06932e-07
3.26647e-07
3.45629e-07
3.56982e-07
3.58399e-07
4.93925e-07
2.93085e-07
4.79746e-07
2.87567e-07
3.47299e-07
3.33427e-07
7.0379e-07
3.69827e-07
6.98415e-07
3.67579e-07
3.33693e-07
4.3287e-07
3.17177e-07
3.59725e-07
3.41466e-07
4.65982e-07
3.04265e-07
3.99669e-07
3.30937e-07
3.5644e-07
3.58466e-07
4.72941e-07
2.858e-07
4.51199e-07
2.81204e-07
3.30485e-07
3.20022e-07
6.90513e-07
3.67572e-07
6.75264e-07
3.72785e-07
3.11503e-07
4.57078e-07
2.96821e-07
3.39021e-07
3.24682e-07
3.79345e-07
2.89726e-07
3.35019e-07
3.13318e-07
3.55324e-07
3.3541e-07
4.40929e-07
2.79738e-07
4.04758e-07
2.75815e-07
3.17847e-07
3.14516e-07
6.665e-07
3.77826e-07
5.51688e-07
3.9553e-07
2.92734e-07
4.93211e-07
2.82994e-07
3.22104e-07
3.12087e-07
3.24106e-07
2.77395e-07
2.94373e-07
2.96099e-07
3.28287e-07
3.1006e-07
3.92019e-07
2.74773e-07
3.57587e-07
2.73239e-07
3.13257e-07
3.14604e-07
4.98918e-07
4.01632e-07
3.62634e-07
4.18995e-07
2.80644e-07
5.30866e-07
2.77173e-07
3.10078e-07
3.04537e-07
2.85177e-07
2.66304e-07
2.5966e-07
2.81014e-07
3.06163e-07
2.93122e-07
3.49955e-07
2.73201e-07
3.40097e-07
2.75042e-07
3.13462e-07
3.16006e-07
3.32018e-07
4.25463e-07
2.84221e-07
4.46268e-07
2.77003e-07
5.68031e-07
2.77224e-07
3.03339e-07
3.01859e-07
2.51764e-07
2.56012e-07
2.31284e-07
2.6743e-07
2.90726e-07
2.83385e-07
3.3824e-07
2.76118e-07
3.32757e-07
2.87091e-07
3.14538e-07
3.15249e-07
2.78149e-07
4.53031e-07
2.7455e-07
4.69749e-07
2.77718e-07
5.81118e-07
2.82836e-07
3.00906e-07
2.99903e-07
2.25816e-07
2.46568e-07
2.12747e-07
2.57309e-07
2.82063e-07
2.78451e-07
3.2946e-07
2.93163e-07
3.1348e-07
3.13016e-07
3.13045e-07
3.0121e-07
2.76052e-07
4.72826e-07
2.96108e-07
4.7315e-07
2.85129e-07
5.13594e-07
2.95722e-07
2.98727e-07
2.96467e-07
2.09226e-07
2.38832e-07
2.00225e-07
2.51912e-07
2.77472e-07
2.74803e-07
3.05992e-07
3.21406e-07
2.78256e-07
3.53762e-07
2.93913e-07
2.78101e-07
3.05471e-07
4.67208e-07
3.46887e-07
3.89534e-07
2.99756e-07
3.54928e-07
3.1268e-07
2.95284e-07
2.62345e-07
1.97734e-07
2.3083e-07
1.91814e-07
2.50919e-07
2.74464e-07
2.74048e-07
2.69197e-07
3.68392e-07
2.47224e-07
4.44401e-07
2.77251e-07
2.83812e-07
3.64105e-07
3.58225e-07
4.11318e-07
2.71379e-07
3.18816e-07
2.55503e-07
3.43324e-07
2.59455e-07
2.39575e-07
1.90237e-07
2.2365e-07
1.86489e-07
2.53157e-07
2.73526e-07
2.60253e-07
2.4103e-07
4.83297e-07
2.19125e-07
6.13064e-07
2.85103e-07
3.22488e-07
4.21163e-07
2.48252e-07
4.29288e-07
2.00845e-07
3.5329e-07
2.15304e-07
3.88715e-07
2.37957e-07
2.19764e-07
1.85492e-07
2.18645e-07
1.82622e-07
2.60639e-07
2.58063e-07
2.33551e-07
2.11776e-07
6.49971e-07
1.91508e-07
7.10229e-07
3.24362e-07
3.45618e-07
4.27054e-07
1.9136e-07
3.54122e-07
1.7393e-07
4.02072e-07
2.00318e-07
4.40119e-07
2.18938e-07
2.08485e-07
1.81908e-07
2.1192e-07
1.79909e-07
2.67169e-07
2.31396e-07
2.0816e-07
1.84443e-07
7.13993e-07
1.6721e-07
6.80143e-07
3.45182e-07
3.10128e-07
3.24878e-07
1.70285e-07
2.47553e-07
1.63708e-07
4.49547e-07
1.88037e-07
4.61833e-07
2.08149e-07
1.99451e-07
1.79356e-07
2.02607e-07
1.78387e-07
2.66621e-07
2.07052e-07
1.90712e-07
1.6438e-07
6.09502e-07
1.62774e-07
4.07137e-07
2.95788e-07
2.2211e-07
2.25638e-07
1.62743e-07
1.88745e-07
1.61491e-07
4.6171e-07
1.77195e-07
4.14882e-07
1.99313e-07
1.91779e-07
1.77644e-07
1.92963e-07
1.76036e-07
2.34086e-07
1.90481e-07
1.84887e-07
1.62992e-07
3.51023e-07
1.61855e-07
2.34309e-07
2.19218e-07
1.94086e-07
1.85719e-07
1.6128e-07
1.85343e-07
1.60172e-07
3.81969e-07
1.70984e-07
2.88343e-07
1.91871e-07
1.86316e-07
1.76112e-07
1.8492e-07
1.76659e-07
2.09703e-07
1.85494e-07
1.84584e-07
1.60652e-07
2.18042e-07
1.60789e-07
2.10824e-07
1.93715e-07
1.8826e-07
1.8518e-07
1.60246e-07
1.80963e-07
1.61954e-07
2.60012e-07
1.72281e-07
2.25308e-07
1.86813e-07
1.84985e-07
1.76885e-07
1.81941e-07
1.8044e-07
1.99329e-07
1.86216e-07
1.89981e-07
1.61644e-07
2.12101e-07
1.67858e-07
2.07855e-07
1.89522e-07
1.91376e-07
1.80938e-07
1.63192e-07
1.83267e-07
1.68962e-07
2.2533e-07
1.79132e-07
2.37353e-07
1.86437e-07
1.89011e-07
1.82469e-07
1.86375e-07
1.88139e-07
2.05704e-07
1.93445e-07
2.05061e-07
1.70776e-07
2.01247e-07
1.83167e-07
1.98416e-07
1.94341e-07
2.05404e-07
1.86167e-07
1.71783e-07
2.00137e-07
1.84149e-07
2.39958e-07
1.9365e-07
2.40105e-07
1.92246e-07
2.03112e-07
1.91046e-07
2.01789e-07
2.03335e-07
2.18792e-07
2.11633e-07
2.35083e-07
1.88435e-07
1.99602e-07
2.08756e-07
2.17439e-07
2.11759e-07
2.33959e-07
2.06276e-07
1.90002e-07
2.27892e-07
2.10635e-07
2.40539e-07
2.18908e-07
2.51033e-07
2.09874e-07
2.3328e-07
2.09083e-07
2.2939e-07
2.28894e-07
2.47689e-07
2.47191e-07
2.93463e-07
2.17947e-07
2.2694e-07
2.51551e-07
2.65454e-07
2.46002e-07
3.01145e-07
2.37686e-07
2.20433e-07
2.72061e-07
2.54775e-07
2.611e-07
2.65803e-07
3.08202e-07
2.45083e-07
2.93167e-07
2.37675e-07
2.72402e-07
2.69813e-07
3.10193e-07
3.13915e-07
3.95271e-07
2.65923e-07
2.79878e-07
3.17655e-07
3.25065e-07
3.24252e-07
3.96296e-07
2.87441e-07
2.71022e-07
3.36787e-07
3.21736e-07
3.27158e-07
3.25489e-07
3.95207e-07
3.1462e-07
4.03185e-07
2.85285e-07
3.45492e-07
3.37751e-07
4.27442e-07
4.31749e-07
6.25335e-07
3.41409e-07
3.45921e-07
4.29664e-07
4.33493e-07
4.256e-07
6.12589e-07
3.61872e-07
3.43138e-07
4.52059e-07
4.19685e-07
4.25751e-07
4.2974e-07
5.33647e-07
4.36932e-07
6.03382e-07
3.58382e-07
4.79254e-07
4.42691e-07
6.43852e-07
6.84734e-07
9.28354e-07
4.62251e-07
4.68441e-07
5.71746e-07
6.06229e-07
6.84331e-07
1.00275e-06
4.78539e-07
4.5319e-07
5.98525e-07
5.84713e-07
5.76807e-07
6.01597e-07
7.27097e-07
6.68384e-07
9.80622e-07
4.73617e-07
6.97235e-07
5.87022e-07
1.0006e-06
1.02609e-06
1.52693e-06
6.28332e-07
6.38756e-07
7.92867e-07
7.66541e-07
1.08447e-06
1.36614e-06
6.49556e-07
6.33514e-07
8.11711e-07
7.69108e-07
7.80265e-07
7.64619e-07
9.39306e-07
1.08322e-06
1.53465e-06
6.38552e-07
9.53238e-07
7.81101e-07
1.50925e-06
1.64761e-06
2.2965e-06
8.5084e-07
8.65845e-07
1.08584e-06
1.13717e-06
1.53414e-06
2.59953e-06
8.72801e-07
8.42821e-07
1.10158e-06
1.13678e-06
1.01854e-06
1.13456e-06
1.30272e-06
1.66458e-06
2.56425e-06
8.45854e-07
1.40526e-06
1.14137e-06
2.57504e-06
2.53849e-06
3.70093e-06
1.18272e-06
1.18354e-06
1.53428e-06
1.42535e-06
2.74028e-06
3.23803e-06
1.19908e-06
1.18395e-06
1.53047e-06
1.46782e-06
1.37013e-06
1.40467e-06
1.45915e-06
2.79455e-06
3.47298e-06
1.22287e-06
1.80697e-06
1.34491e-06
3.02789e-06
3.96604e-06
5.09683e-06
1.64103e-06
1.59513e-06
1.94263e-06
2.04414e-06
3.59239e-06
5.60052e-06
1.62704e-06
1.65274e-06
1.98104e-06
2.15344e-06
1.52366e-06
2.05537e-06
2.38889e-06
3.85336e-06
5.83344e-06
1.44049e-06
2.43052e-06
2.25964e-06
6.8714e-06
5.43786e-06
7.29649e-06
2.12372e-06
2.13436e-06
2.65141e-06
2.59873e-06
5.9098e-06
7.0334e-06
2.13885e-06
2.22128e-06
2.62174e-06
2.43996e-06
2.58039e-06
2.57053e-06
2.74472e-06
6.01444e-06
6.36711e-06
2.42352e-06
2.57637e-06
2.57116e-06
7.31442e-06
7.75233e-06
9.31668e-06
2.78933e-06
2.78827e-06
3.24985e-06
3.25282e-06
7.46894e-06
9.56443e-06
2.77792e-06
2.70331e-06
3.26757e-06
3.51555e-06
2.76873e-06
3.25114e-06
3.28172e-06
6.67919e-06
9.91752e-06
2.61146e-06
3.64173e-06
3.27631e-06
8.97271e-06
9.74226e-06
1.2084e-05
3.43626e-06
3.44619e-06
4.22525e-06
4.26447e-06
1.00299e-05
1.20431e-05
3.49561e-06
3.79145e-06
4.25512e-06
4.72286e-06
3.48054e-06
4.22166e-06
4.08007e-06
1.067e-05
1.29711e-05
3.46496e-06
4.58778e-06
4.02065e-06
1.19274e-05
1.26681e-05
1.44843e-05
4.50334e-06
4.56231e-06
5.12121e-06
4.98783e-06
1.26032e-05
1.43808e-05
4.46963e-06
5.00621e-06
5.11546e-06
5.56399e-06
4.41735e-06
5.00873e-06
5.27304e-06
1.34022e-05
1.45074e-05
4.34679e-06
5.27994e-06
5.31842e-06
1.48224e-05
1.49264e-05
1.68447e-05
5.32559e-06
5.1224e-06
6.30415e-06
6.35651e-06
1.47069e-05
1.68668e-05
5.37716e-06
5.65862e-06
6.31372e-06
5.83075e-06
5.46582e-06
6.31094e-06
6.29775e-06
1.47348e-05
1.55669e-05
5.54754e-06
5.66736e-06
6.20842e-06
1.6911e-05
1.73536e-05
1.9092e-05
6.71071e-06
6.82009e-06
7.41167e-06
7.49615e-06
1.76356e-05
1.92136e-05
6.64879e-06
5.99445e-06
7.43245e-06
7.78207e-06
6.5881e-06
7.47526e-06
7.3087e-06
1.61277e-05
1.97949e-05
6.53914e-06
7.76058e-06
7.45615e-06
1.87583e-05
1.95036e-05
2.10241e-05
7.52235e-06
7.57955e-06
8.83152e-06
8.52182e-06
1.94662e-05
2.05166e-05
7.62268e-06
8.35781e-06
8.74947e-06
9.35837e-06
7.54989e-06
8.44767e-06
8.56352e-06
2.04425e-05
2.12813e-05
7.58868e-06
8.79669e-06
9.03226e-06
2.1033e-05
2.15903e-05
2.33701e-05
9.38853e-06
9.04227e-06
1.0444e-05
1.04197e-05
2.11523e-05
2.36022e-05
9.36e-06
9.4565e-06
1.05766e-05
1.02191e-05
9.08306e-06
1.04546e-05
1.08471e-05
2.15322e-05
2.28273e-05
9.99355e-06
1.01686e-05
1.21147e-05
2.41247e-05
2.36592e-05
2.43449e-05
1.07483e-05
1.09009e-05
1.16235e-05
1.18408e-05
2.39349e-05
2.46671e-05
1.08373e-05
1.07413e-05
1.17426e-05
1.20202e-05
1.13379e-05
1.18603e-05
1.21724e-05
2.34012e-05
2.48521e-05
1.23595e-05
1.20824e-05
1.23455e-05
2.47201e-05
2.46633e-05
2.6522e-05
1.19396e-05
1.1995e-05
1.33391e-05
1.30507e-05
2.49562e-05
2.58733e-05
1.20772e-05
1.22013e-05
1.35106e-05
1.28293e-05
1.22819e-05
1.29633e-05
1.24745e-05
2.50936e-05
2.57012e-05
1.21871e-05
1.27546e-05
1.21423e-05
2.4971e-05
2.68927e-05
2.74578e-05
1.38419e-05
1.35912e-05
1.52894e-05
1.51101e-05
2.62387e-05
2.77793e-05
1.40496e-05
1.33171e-05
1.54044e-05
1.52631e-05
1.26377e-05
1.50809e-05
1.55089e-05
2.60385e-05
2.77379e-05
1.22706e-05
1.50872e-05
1.61721e-05
2.86986e-05
2.7672e-05
2.85132e-05
1.56748e-05
1.5571e-05
1.621e-05
1.70476e-05
2.82045e-05
2.89748e-05
1.57995e-05
1.57935e-05
1.64416e-05
1.68478e-05
1.64621e-05
1.70829e-05
1.74828e-05
2.81811e-05
2.91735e-05
1.72964e-05
1.72194e-05
1.8171e-05
2.90331e-05
2.88998e-05
3.03832e-05
1.65645e-05
1.73967e-05
1.88538e-05
1.79473e-05
2.91754e-05
2.96576e-05
1.65971e-05
1.7255e-05
1.86107e-05
1.87449e-05
1.75311e-05
1.80098e-05
1.771e-05
2.94382e-05
3.00551e-05
1.81586e-05
1.86828e-05
1.81692e-05
2.89455e-05
3.0774e-05
3.15503e-05
1.95699e-05
1.83674e-05
2.06326e-05
2.06035e-05
2.99981e-05
3.18882e-05
1.94388e-05
1.90345e-05
2.0812e-05
1.96998e-05
1.78441e-05
2.04217e-05
2.06719e-05
3.02513e-05
3.0929e-05
1.82384e-05
1.95691e-05
2.05929e-05
3.26136e-05
3.17903e-05
3.28044e-05
2.09439e-05
2.13593e-05
2.25173e-05
2.28399e-05
3.224e-05
3.27494e-05
2.11274e-05
2.02664e-05
2.26233e-05
2.27765e-05
2.20423e-05
2.29202e-05
2.3943e-05
3.13469e-05
3.3246e-05
2.1956e-05
2.29662e-05
2.38448e-05
3.34902e-05
3.31076e-05
3.36403e-05
2.31076e-05
2.31579e-05
2.40143e-05
2.36532e-05
3.28849e-05
3.32964e-05
2.3189e-05
2.34867e-05
2.40943e-05
2.46804e-05
2.40772e-05
2.37795e-05
2.41702e-05
3.35588e-05
3.38975e-05
2.3985e-05
2.46396e-05
2.40961e-05
3.31635e-05
3.37927e-05
3.44975e-05
2.4203e-05
2.37458e-05
2.53396e-05
2.54082e-05
3.35e-05
3.4635e-05
2.42929e-05
2.48667e-05
2.52861e-05
2.50897e-05
2.41995e-05
2.52157e-05
2.43401e-05
3.39797e-05
3.42172e-05
2.41279e-05
2.49839e-05
2.42666e-05
3.39994e-05
3.483e-05
3.61281e-05
2.58984e-05
2.6165e-05
2.76252e-05
2.78606e-05
3.50669e-05
3.62683e-05
2.57922e-05
2.52367e-05
2.75849e-05
2.72829e-05
2.46747e-05
2.77646e-05
2.79836e-05
3.44244e-05
3.60043e-05
2.46171e-05
2.73187e-05
2.79623e-05
3.65467e-05
3.64217e-05
3.71975e-05
2.81443e-05
2.83507e-05
2.9497e-05
2.97062e-05
3.65376e-05
3.7384e-05
2.81536e-05
2.80988e-05
2.95975e-05
2.96269e-05
2.87507e-05
2.99051e-05
3.0059e-05
3.64254e-05
3.7337e-05
2.87137e-05
2.96906e-05
2.99795e-05
3.74185e-05
3.73793e-05
3.78953e-05
2.98439e-05
2.99986e-05
3.06256e-05
3.06213e-05
3.7544e-05
3.78338e-05
2.99179e-05
2.99424e-05
3.05425e-05
3.08681e-05
3.0258e-05
3.05671e-05
3.0511e-05
3.74933e-05
3.79926e-05
3.01554e-05
3.08029e-05
3.04244e-05
3.77734e-05
3.81089e-05
3.92542e-05
3.09699e-05
3.09006e-05
3.2462e-05
3.19472e-05
3.79735e-05
3.87437e-05
3.08743e-05
3.11452e-05
3.24311e-05
3.21918e-05
3.07918e-05
3.18583e-05
3.20068e-05
3.81954e-05
3.9057e-05
3.07787e-05
3.21508e-05
3.20313e-05
3.89461e-05
3.9543e-05
4.01835e-05
3.29638e-05
3.23503e-05
3.40836e-05
3.37139e-05
3.9008e-05
4.01315e-05
3.2956e-05
3.26691e-05
3.40708e-05
3.41116e-05
3.23853e-05
3.37252e-05
3.41172e-05
3.93232e-05
4.0347e-05
3.23926e-05
3.4181e-05
3.40759e-05
4.04738e-05
4.02951e-05
4.0678e-05
3.42297e-05
3.42273e-05
3.46714e-05
3.54785e-05
4.04318e-05
4.13119e-05
3.42012e-05
3.44236e-05
3.46646e-05
3.49234e-05
3.46882e-05
3.56264e-05
3.55959e-05
4.05277e-05
4.0824e-05
3.46294e-05
3.49718e-05
3.55063e-05
4.12018e-05
4.09566e-05
4.22603e-05
3.51958e-05
3.57015e-05
3.67547e-05
3.63014e-05
4.14503e-05
4.18494e-05
3.52014e-05
3.51797e-05
3.67479e-05
3.64171e-05
3.57274e-05
3.63017e-05
3.59062e-05
4.09508e-05
4.19433e-05
3.56423e-05
3.63581e-05
3.58277e-05
4.12519e-05
4.24532e-05
4.29515e-05
3.70281e-05
3.66438e-05
3.77627e-05
3.79215e-05
4.20551e-05
4.31267e-05
3.70378e-05
3.68491e-05
3.77462e-05
3.78896e-05
3.59852e-05
3.77898e-05
3.76944e-05
4.22171e-05
4.30071e-05
3.5923e-05
3.77661e-05
3.77606e-05
4.32882e-05
4.31897e-05
4.41478e-05
3.81698e-05
3.83104e-05
3.93737e-05
3.92063e-05
4.33644e-05
4.39102e-05
3.81164e-05
3.8167e-05
3.93302e-05
3.91345e-05
3.85361e-05
3.9285e-05
3.99493e-05
4.31879e-05
4.41149e-05
3.85612e-05
3.92507e-05
3.98924e-05
4.46479e-05
4.42717e-05
4.43684e-05
3.96235e-05
3.93536e-05
3.99229e-05
3.95886e-05
4.40044e-05
4.41924e-05
3.96273e-05
3.952e-05
4.00023e-05
4.04394e-05
4.00937e-05
3.97147e-05
4.02191e-05
4.43633e-05
4.497e-05
4.00353e-05
4.0634e-05
4.01966e-05
4.44824e-05
4.44092e-05
4.53996e-05
3.99545e-05
3.98328e-05
4.07596e-05
4.10898e-05
4.43467e-05
4.55521e-05
4.00408e-05
4.06361e-05
4.08994e-05
4.11208e-05
4.02388e-05
4.10866e-05
4.03195e-05
4.50642e-05
4.52243e-05
4.02199e-05
4.09851e-05
4.02962e-05
4.46439e-05
4.58475e-05
4.69895e-05
4.15366e-05
4.15452e-05
4.31407e-05
4.26661e-05
4.58406e-05
4.66082e-05
4.14887e-05
4.12099e-05
4.27581e-05
4.14363e-05
4.04766e-05
4.2559e-05
4.23829e-05
4.52834e-05
4.54535e-05
4.04667e-05
4.11904e-05
4.22303e-05
4.6529e-05
4.70846e-05
4.70261e-05
4.33612e-05
4.29062e-05
4.35002e-05
4.31557e-05
4.67124e-05
4.67827e-05
4.29974e-05
4.17483e-05
4.33878e-05
4.34013e-05
4.28982e-05
4.30771e-05
4.37184e-05
4.56251e-05
4.70561e-05
4.2701e-05
4.30395e-05
4.35402e-05
4.73533e-05
4.70375e-05
4.68399e-05
4.34745e-05
4.32148e-05
4.33972e-05
4.39218e-05
4.68293e-05
4.76466e-05
4.34626e-05
4.38187e-05
4.35621e-05
4.44979e-05
4.38302e-05
4.40597e-05
4.39539e-05
4.73584e-05
4.82085e-05
4.36314e-05
4.474e-05
4.39598e-05
4.75504e-05
4.68711e-05
4.79106e-05
4.33924e-05
4.4186e-05
4.37723e-05
4.49583e-05
4.79102e-05
4.86046e-05
4.35956e-05
4.46813e-05
4.46691e-05
4.53375e-05
4.40575e-05
4.5385e-05
4.52252e-05
4.83886e-05
4.8807e-05
4.43399e-05
4.57006e-05
4.54425e-05
4.86338e-05
4.83773e-05
4.99101e-05
4.45771e-05
4.52422e-05
4.67592e-05
4.59457e-05
4.87215e-05
4.89537e-05
4.53222e-05
4.54579e-05
4.66531e-05
4.57798e-05
4.55093e-05
4.58048e-05
4.5866e-05
4.88596e-05
4.88586e-05
4.56651e-05
4.58826e-05
4.59072e-05
4.8898e-05
5.00569e-05
5.00822e-05
4.71372e-05
4.61344e-05
4.75112e-05
4.6849e-05
4.90251e-05
4.95722e-05
4.6853e-05
4.60335e-05
4.7049e-05
4.65894e-05
4.59654e-05
4.65344e-05
4.64681e-05
4.89305e-05
4.93873e-05
4.59298e-05
4.62437e-05
4.62941e-05
4.94219e-05
5.00962e-05
5.01597e-05
4.75351e-05
4.70919e-05
4.75621e-05
4.75429e-05
4.97763e-05
5.0351e-05
4.70645e-05
4.66524e-05
4.72307e-05
4.73678e-05
4.67334e-05
4.75505e-05
4.77245e-05
4.94895e-05
5.03029e-05
4.65679e-05
4.74179e-05
4.76672e-05
5.05973e-05
5.03167e-05
5.10381e-05
4.75871e-05
4.76838e-05
4.81878e-05
4.84292e-05
5.04701e-05
5.11655e-05
4.75781e-05
4.78477e-05
4.86191e-05
4.89178e-05
4.80289e-05
4.85956e-05
4.86922e-05
5.06226e-05
5.15041e-05
4.8032e-05
4.89488e-05
4.8754e-05
5.12349e-05
5.11328e-05
5.11799e-05
4.84538e-05
4.87111e-05
4.89129e-05
4.92812e-05
5.13441e-05
5.16672e-05
4.87494e-05
4.90285e-05
4.88465e-05
4.90418e-05
4.88297e-05
4.93816e-05
4.89752e-05
5.15518e-05
5.13024e-05
4.88681e-05
4.91194e-05
4.89817e-05
5.12645e-05
5.11963e-05
5.14894e-05
4.89688e-05
4.93717e-05
4.92394e-05
4.94677e-05
5.17065e-05
5.16977e-05
4.88584e-05
4.9028e-05
4.89992e-05
4.9052e-05
4.90198e-05
4.95046e-05
4.93507e-05
5.13076e-05
5.1437e-05
4.89882e-05
4.91313e-05
4.91697e-05
5.1663e-05
5.1729e-05
5.33352e-05
4.94823e-05
4.9489e-05
5.06948e-05
5.00362e-05
5.1736e-05
5.23597e-05
4.92507e-05
4.91678e-05
5.10849e-05
5.07467e-05
4.9493e-05
4.99005e-05
5.02343e-05
5.16313e-05
5.30826e-05
4.94482e-05
5.06323e-05
5.04042e-05
5.26206e-05
5.36245e-05
5.40524e-05
5.1121e-05
5.04408e-05
5.1889e-05
5.15459e-05
5.26374e-05
5.36047e-05
5.15553e-05
5.11919e-05
5.21243e-05
5.18611e-05
5.05996e-05
5.15512e-05
5.16897e-05
5.33242e-05
5.37009e-05
5.07187e-05
5.16548e-05
5.16096e-05
5.37053e-05
5.40564e-05
5.32442e-05
5.19566e-05
5.17827e-05
5.18544e-05
5.20165e-05
5.37193e-05
5.3756e-05
5.21445e-05
5.19231e-05
5.16684e-05
5.18961e-05
5.19174e-05
5.19076e-05
5.21228e-05
5.37284e-05
5.35624e-05
5.18355e-05
5.18374e-05
5.21135e-05
5.40224e-05
5.31753e-05
5.28613e-05
5.16821e-05
5.20134e-05
5.14829e-05
5.19013e-05
5.37554e-05
5.35542e-05
5.13409e-05
5.17565e-05
5.10054e-05
5.14941e-05
5.21159e-05
5.18536e-05
5.19103e-05
5.35584e-05
5.34312e-05
5.21193e-05
5.18435e-05
5.1919e-05
5.35273e-05
5.293e-05
5.42798e-05
5.14831e-05
5.18934e-05
5.21987e-05
5.23268e-05
5.3568e-05
5.45678e-05
5.10027e-05
5.14808e-05
5.20025e-05
5.18936e-05
5.1882e-05
5.27055e-05
5.19182e-05
5.34561e-05
5.40138e-05
5.18466e-05
5.20305e-05
5.18216e-05
5.35933e-05
5.47254e-05
5.58439e-05
5.27857e-05
5.28959e-05
5.39651e-05
5.38238e-05
5.49198e-05
5.55763e-05
5.28414e-05
5.2595e-05
5.42564e-05
5.40253e-05
5.20971e-05
5.38544e-05
5.34955e-05
5.43289e-05
5.56264e-05
5.18991e-05
5.3687e-05
5.33512e-05
5.52585e-05
5.59029e-05
5.54533e-05
5.41009e-05
5.38868e-05
5.41117e-05
5.37668e-05
5.55861e-05
5.49148e-05
5.43913e-05
5.41873e-05
5.43492e-05
5.4219e-05
5.37507e-05
5.36077e-05
5.39598e-05
5.57285e-05
5.54684e-05
5.37456e-05
5.41127e-05
5.41746e-05
5.55496e-05
5.53642e-05
5.49218e-05
5.3961e-05
5.36305e-05
5.36579e-05
5.34934e-05
5.48712e-05
5.46822e-05
5.40766e-05
5.40525e-05
5.35644e-05
5.36828e-05
5.3953e-05
5.32563e-05
5.38671e-05
5.54094e-05
5.5034e-05
5.41834e-05
5.38533e-05
5.41349e-05
5.53766e-05
5.49357e-05
5.54721e-05
5.36463e-05
5.34929e-05
5.38321e-05
5.3933e-05
5.4739e-05
5.56186e-05
5.35408e-05
5.36701e-05
5.37273e-05
5.39863e-05
5.38661e-05
5.38412e-05
5.42145e-05
5.50535e-05
5.56915e-05
5.4132e-05
5.40516e-05
5.42946e-05
5.59365e-05
5.57408e-05
5.66236e-05
5.42386e-05
5.43986e-05
5.52345e-05
5.54057e-05
5.59411e-05
5.69044e-05
5.41651e-05
5.44102e-05
5.51747e-05
5.50854e-05
5.46844e-05
5.55684e-05
5.54473e-05
5.59527e-05
5.64867e-05
5.46178e-05
5.512e-05
5.52351e-05
5.67276e-05
5.66905e-05
5.65984e-05
5.53782e-05
5.55551e-05
5.54729e-05
5.56523e-05
5.6982e-05
5.68671e-05
5.53106e-05
5.51541e-05
5.54039e-05
5.52246e-05
5.55016e-05
5.57976e-05
5.53862e-05
5.65055e-05
5.6389e-05
5.52782e-05
5.52605e-05
5.51716e-05
5.62826e-05
5.65965e-05
5.65593e-05
5.54585e-05
5.56245e-05
5.54117e-05
5.54536e-05
5.68411e-05
5.65931e-05
5.53983e-05
5.52351e-05
5.53896e-05
5.53393e-05
5.52549e-05
5.54456e-05
5.51579e-05
5.63948e-05
5.6606e-05
5.50968e-05
5.52952e-05
5.50621e-05
5.6209e-05
5.66163e-05
5.70767e-05
5.54165e-05
5.54432e-05
5.57519e-05
5.55069e-05
5.66011e-05
5.6756e-05
5.54092e-05
5.55253e-05
5.59106e-05
5.6184e-05
5.51858e-05
5.55032e-05
5.60612e-05
5.67509e-05
5.73932e-05
5.51216e-05
5.60858e-05
5.61596e-05
5.74971e-05
5.71681e-05
5.72989e-05
5.58976e-05
5.56774e-05
5.61699e-05
5.62035e-05
5.68782e-05
5.73491e-05
5.60682e-05
5.62816e-05
5.62577e-05
5.63398e-05
5.62708e-05
5.6222e-05
5.63828e-05
5.74422e-05
5.73243e-05
5.63523e-05
5.62885e-05
5.64279e-05
5.74328e-05
5.73194e-05
5.73006e-05
5.62327e-05
5.6281e-05
5.6315e-05
5.63127e-05
5.73891e-05
5.72599e-05
5.62669e-05
5.63166e-05
5.62279e-05
5.6037e-05
5.62943e-05
5.61936e-05
5.5789e-05
5.73088e-05
5.70275e-05
5.62972e-05
5.60296e-05
5.58055e-05
5.66571e-05
5.73021e-05
5.72134e-05
5.63121e-05
5.62745e-05
5.62635e-05
5.61761e-05
5.72432e-05
5.71137e-05
5.6178e-05
5.59694e-05
5.61148e-05
5.59111e-05
5.57497e-05
5.6059e-05
5.58945e-05
5.70276e-05
5.70186e-05
5.57765e-05
5.59747e-05
5.60083e-05
5.72913e-05
5.72357e-05
5.79513e-05
5.62661e-05
5.6178e-05
5.67191e-05
5.66489e-05
5.71528e-05
5.79401e-05
5.61306e-05
5.59414e-05
5.68355e-05
5.6877e-05
5.62875e-05
5.68583e-05
5.7129e-05
5.70995e-05
5.80679e-05
5.6444e-05
5.69701e-05
5.71338e-05
5.83107e-05
5.80671e-05
5.80833e-05
5.69229e-05
5.69353e-05
5.70953e-05
5.7233e-05
5.80934e-05
5.82884e-05
5.70323e-05
5.71359e-05
5.71716e-05
5.73346e-05
5.71907e-05
5.72785e-05
5.70225e-05
5.81954e-05
5.82844e-05
5.71702e-05
5.72564e-05
5.69074e-05
5.77001e-05
5.80386e-05
5.77107e-05
5.70793e-05
5.72272e-05
5.68799e-05
5.69012e-05
5.82641e-05
5.77395e-05
5.71412e-05
5.73059e-05
5.68558e-05
5.68622e-05
5.68445e-05
5.68549e-05
5.66817e-05
5.82247e-05
5.77092e-05
5.67396e-05
5.68165e-05
5.661e-05
5.7466e-05
5.77202e-05
5.83262e-05
5.68699e-05
5.68407e-05
5.71798e-05
5.69156e-05
5.77295e-05
5.80637e-05
5.68395e-05
5.68139e-05
5.71161e-05
5.69677e-05
5.67155e-05
5.69659e-05
5.76247e-05
5.77081e-05
5.82128e-05
5.66646e-05
5.71511e-05
5.77002e-05
5.89357e-05
5.84329e-05
5.83267e-05
5.73389e-05
5.71425e-05
5.74218e-05
5.74184e-05
5.82281e-05
5.84789e-05
5.72673e-05
5.71714e-05
5.73405e-05
5.73261e-05
5.7785e-05
5.74754e-05
5.77758e-05
5.83416e-05
5.83974e-05
5.78601e-05
5.75002e-05
5.78415e-05
5.85653e-05
5.82025e-05
5.72041e-05
5.73417e-05
5.7407e-05
5.64967e-05
5.67905e-05
5.84442e-05
5.75538e-05
5.72547e-05
5.72884e-05
5.64577e-05
5.65381e-05
5.74711e-05
5.67467e-05
5.62228e-05
5.82984e-05
5.72633e-05
5.75122e-05
5.64597e-05
5.61392e-05
5.67937e-05
5.71671e-05
5.76389e-05
5.63709e-05
5.6619e-05
5.63985e-05
5.65442e-05
5.7504e-05
5.76713e-05
5.63521e-05
5.63904e-05
5.64199e-05
5.6355e-05
5.61174e-05
5.65528e-05
5.63767e-05
5.72143e-05
5.74353e-05
5.60157e-05
5.62379e-05
5.62213e-05
5.77772e-05
5.79943e-05
5.95184e-05
5.67064e-05
5.66657e-05
5.81851e-05
5.77392e-05
5.78838e-05
5.88943e-05
5.6803e-05
5.65278e-05
5.8283e-05
5.80194e-05
5.70096e-05
5.77035e-05
5.80263e-05
5.76761e-05
5.91935e-05
5.68513e-05
5.79575e-05
5.80915e-05
5.93741e-05
5.96044e-05
5.88686e-05
5.83333e-05
5.78669e-05
5.82259e-05
5.78122e-05
5.8946e-05
5.83804e-05
5.84211e-05
5.82372e-05
5.82862e-05
5.82914e-05
5.80696e-05
5.76345e-05
5.73793e-05
5.93096e-05
5.91585e-05
5.81635e-05
5.82462e-05
5.76825e-05
5.79915e-05
5.84719e-05
5.61327e-05
5.77247e-05
5.75033e-05
5.55683e-05
5.60815e-05
5.81721e-05
5.70066e-05
5.77321e-05
5.81019e-05
5.54512e-05
5.59282e-05
5.68302e-05
5.61842e-05
5.61552e-05
5.89439e-05
5.67616e-05
5.70961e-05
5.61695e-05
5.62067e-05
5.695e-05
5.60224e-05
5.64394e-05
5.52928e-05
5.58802e-05
5.52413e-05
5.58051e-05
5.69735e-05
5.72049e-05
5.51512e-05
5.54688e-05
5.50734e-05
5.51302e-05
5.61544e-05
5.60941e-05
5.68841e-05
5.65834e-05
5.62492e-05
5.61762e-05
5.54603e-05
5.66515e-05
5.82561e-05
5.6936e-05
5.98388e-05
5.56092e-05
5.59896e-05
5.82298e-05
5.77408e-05
5.74496e-05
5.89681e-05
5.54075e-05
5.52092e-05
5.82584e-05
5.76152e-05
5.7133e-05
5.75358e-05
5.73129e-05
5.64124e-05
5.90087e-05
5.69254e-05
5.73312e-05
5.71931e-05
5.85495e-05
6.00508e-05
5.98194e-05
5.86038e-05
5.80137e-05
5.87063e-05
5.80796e-05
5.90912e-05
5.88756e-05
5.87201e-05
5.82935e-05
5.89179e-05
5.8784e-05
5.72795e-05
5.76724e-05
5.64674e-05
5.93275e-05
5.9793e-05
5.71853e-05
5.81948e-05
5.65853e-05
5.72587e-05
5.93848e-05
5.57532e-05
5.83759e-05
5.78169e-05
5.51111e-05
5.53406e-05
5.85549e-05
5.62269e-05
5.86947e-05
5.87411e-05
5.53309e-05
5.61234e-05
5.62551e-05
5.55526e-05
5.5899e-05
5.97215e-05
5.68139e-05
5.63714e-05
5.61454e-05
5.59461e-05
5.69162e-05
5.54351e-05
5.37379e-05
5.41074e-05
5.60496e-05
5.38078e-05
5.44141e-05
4.56501e-05
4.62612e-05
4.61474e-05
5.49671e-05
5.63183e-05
5.49834e-05
1.1917e-07
2.73238e-07
6.63598e-08
9.34132e-08
2.61485e-07
3.8302e-07
5.20622e-07
1.6775e-07
2.68651e-07
3.08226e-07
1.56569e-07
2.754e-07
3.5164e-07
2.49057e-07
3.97128e-07
2.86381e-07
5.72255e-06
2.43915e-07
7.51537e-06
1.31042e-05
2.07098e-05
3.61727e-07
5.67541e-06
3.21962e-07
7.62229e-06
1.97714e-07
1.82706e-07
1.84907e-07
1.76213e-07
1.97286e-07
1.82301e-07
1.8378e-07
2.45129e-07
7.7449e-07
3.50084e-07
4.28025e-07
2.50331e-07
7.47743e-07
3.49035e-07
1.36601e-05
2.11092e-05
2.49998e-07
2.6064e-07
6.68034e-07
3.12089e-07
2.56439e-07
2.59349e-07
6.44243e-07
1.88296e-06
1.90516e-06
3.38115e-07
1.85518e-06
1.88248e-06
4.78992e-07
1.11212e-05
3.91895e-07
1.38789e-05
3.54891e-05
4.56184e-05
5.52414e-07
1.1197e-05
4.64087e-07
1.45694e-05
1.95939e-07
1.81009e-07
1.82662e-07
1.69084e-07
1.91818e-07