/*--------------------------------*- C++ -*----------------------------------*\
| =========                 |                                                 |
| \\      /  F ield         | OpenFOAM: The Open Source CFD Toolbox           |
|  \\    /   O peration     | Version:  v2006                                 |
|   \\  /    A nd           | Website:  www.openfoam.com                      |
|    \\/     M anipulation  |                                                 |
\*---------------------------------------------------------------------------*/
FoamFile
{
    version     2.0;
    format      ascii;
    class       volScalarField;
    location    "625";
    object      nut;
}
// * * * * * * * * * * * * * * * * * * * * * * * * * * * * * * * * * * * * * //

dimensions      [0 2 -1 0 0 0 0];


internalField   nonuniform List<scalar> 
43248
(
0.000150145
0.000101704
0.000101704
8.25737e-05
0.000146068
9.88902e-05
9.88919e-05
8.2096e-05
0.000142049
9.65814e-05
9.65808e-05
8.21504e-05
0.000138122
9.47928e-05
9.47953e-05
8.26956e-05
0.000134292
9.35014e-05
9.35073e-05
8.36561e-05
0.000130631
9.27404e-05
9.27456e-05
8.49957e-05
0.000127149
9.24615e-05
9.24604e-05
8.66924e-05
0.000123903
9.26424e-05
9.26515e-05
8.86449e-05
0.000120911
9.32283e-05
9.32271e-05
9.08e-05
0.000118172
9.42186e-05
9.42216e-05
9.30863e-05
0.000115787
9.55793e-05
9.55875e-05
9.55524e-05
0.000113763
9.72378e-05
9.72406e-05
9.81281e-05
0.000112009
9.91835e-05
9.91855e-05
0.000100727
0.000110706
0.000101351
0.000101375
0.000103387
0.000109833
0.000103924
0.000103952
0.000106256
0.000109151
0.000106264
0.000106254
0.000108686
0.000108393
0.000108932
0.000108842
0.000111332
0.000108823
0.000111885
0.000111807
0.000114377
0.000110178
0.000115201
0.000115354
0.000116972
0.000109363
0.000117381
0.000117794
0.00011942
0.000111017
0.000121327
0.000121539
0.000122923
0.000116319
0.000127343
0.000124827
0.000127624
0.000119069
0.000129718
0.000128742
0.000128615
0.000106486
0.000120694
0.000128212
0.000121742
9.56648e-05
0.000125068
0.000124202
0.000124786
0.000132137
0.000131904
0.000132635
0.000139129
0.000154257
0.000153745
0.000147962
0.000146271
8.28594e-05
0.000102453
0.000102441
8.28581e-05
0.00010248
0.000102438
0.000102483
0.000102449
8.28553e-05
0.000102482
0.000102477
8.2849e-05
8.25825e-05
8.22656e-05
0.000101675
0.000101663
9.95176e-05
9.95056e-05
8.25809e-05
8.22619e-05
0.000101701
0.00010166
9.9546e-05
9.95031e-05
0.00010167
9.95463e-05
9.95139e-05
8.25785e-05
8.22603e-05
0.000101698
9.95468e-05
9.95408e-05
8.22531e-05
8.21091e-05
8.22145e-05
9.88642e-05
9.88508e-05
9.70804e-05
9.70707e-05
8.21031e-05
8.22105e-05
9.88913e-05
9.88495e-05
9.71081e-05
9.70701e-05
9.88598e-05
9.71083e-05
9.70787e-05
8.21025e-05
8.22133e-05
9.88862e-05
9.71095e-05
9.71043e-05
8.22047e-05
8.21594e-05
8.26529e-05
9.65538e-05
9.6543e-05
9.51603e-05
9.5154e-05
8.21555e-05
8.2653e-05
9.65795e-05
9.65406e-05
9.51877e-05
9.51535e-05
9.65492e-05
9.51939e-05
9.5161e-05
8.21569e-05
8.26524e-05
9.6575e-05
9.51942e-05
9.51875e-05
8.26486e-05
8.26963e-05
8.35353e-05
9.4763e-05
9.47558e-05
9.37594e-05
9.37438e-05
8.26962e-05
8.35252e-05
9.47898e-05
9.47541e-05
9.37845e-05
9.37444e-05
9.4767e-05
9.37745e-05
9.37614e-05
8.26967e-05
8.35275e-05
9.4792e-05
9.37802e-05
9.37822e-05
8.3532e-05
8.36628e-05
8.47998e-05
9.34858e-05
9.34714e-05
9.28569e-05
9.28486e-05
8.36519e-05
8.4797e-05
9.35089e-05
9.34718e-05
9.28817e-05
9.28502e-05
9.34845e-05
9.28827e-05
9.28514e-05
8.36542e-05
8.48001e-05
9.35051e-05
9.28877e-05
9.28751e-05
8.4785e-05
8.50085e-05
8.64263e-05
9.27153e-05
9.27053e-05
9.24637e-05
9.24549e-05
8.50059e-05
8.64215e-05
9.27397e-05
9.27084e-05
9.2485e-05
9.24563e-05
9.27078e-05
9.24891e-05
9.24636e-05
8.50096e-05
8.64245e-05
9.27314e-05
9.24907e-05
9.24826e-05
8.64212e-05
8.66965e-05
8.83128e-05
9.24359e-05
9.24278e-05
9.25251e-05
9.25243e-05
8.66935e-05
8.83161e-05
9.24562e-05
9.24263e-05
9.25505e-05
9.25275e-05
9.24357e-05
9.25525e-05
9.25329e-05
8.66946e-05
8.83181e-05
9.24536e-05
9.256e-05
9.25546e-05
8.83138e-05
8.86416e-05
9.04457e-05
9.26175e-05
9.26152e-05
9.30432e-05
9.30276e-05
8.8646e-05
9.0428e-05
9.2641e-05
9.26197e-05
9.30646e-05
9.30257e-05
9.26276e-05
9.30578e-05
9.30412e-05
8.86494e-05
9.04245e-05
9.26465e-05
9.30548e-05
9.30582e-05
9.04373e-05
9.0809e-05
9.26885e-05
9.32217e-05
9.31986e-05
9.39149e-05
9.39077e-05
9.07872e-05
9.26816e-05
9.32425e-05
9.31975e-05
9.3935e-05
9.39092e-05
9.32202e-05
9.39254e-05
9.39179e-05
9.07833e-05
9.26932e-05
9.32378e-05
9.39348e-05
9.39338e-05
9.26871e-05
9.3086e-05
9.51044e-05
9.41872e-05
9.42005e-05
9.51584e-05
9.51812e-05
9.30936e-05
9.51441e-05
9.42009e-05
9.42039e-05
9.51642e-05
9.51848e-05
9.4191e-05
9.52043e-05
9.51669e-05
9.31049e-05
9.51408e-05
9.4204e-05
9.52134e-05
9.51839e-05
9.51163e-05
9.55496e-05
9.77093e-05
9.55508e-05
9.5554e-05
9.68165e-05
9.67627e-05
9.55729e-05
9.76583e-05
9.55614e-05
9.556e-05
9.68516e-05
9.67801e-05
9.55557e-05
9.67966e-05
9.67847e-05
9.55716e-05
9.76713e-05
9.55747e-05
9.68211e-05
9.67997e-05
9.768e-05
9.8149e-05
0.000100212
9.72413e-05
9.72029e-05
9.86283e-05
9.86538e-05
9.81064e-05
0.000100244
9.72734e-05
9.72018e-05
9.86345e-05
9.86464e-05
9.72373e-05
9.86746e-05
9.8699e-05
9.81138e-05
0.000100239
9.72449e-05
9.86589e-05
9.8701e-05
0.000100271
0.000100677
0.00010296
9.91453e-05
9.91673e-05
0.000100814
0.000100763
0.000100711
0.000102916
9.9157e-05
9.91676e-05
0.000100826
0.000100778
9.91891e-05
0.00010077
0.000100723
0.000100702
0.000102936
9.92007e-05
0.00010078
0.000100745
0.000102896
0.000103433
0.000105732
0.000101367
0.000101351
0.00010323
0.000103272
0.000103398
0.000105745
0.000101374
0.000101372
0.000103251
0.000103285
0.00010133
0.000103282
0.000103293
0.000103419
0.000105748
0.000101349
0.000103337
0.000103313
0.000105777
0.000106249
0.00010838
0.000103908
0.0001039
0.000105824
0.000105615
0.00010623
0.000108259
0.000103924
0.000103908
0.000105816
0.000105617
0.000103887
0.000105665
0.000105707
0.000106242
0.000108264
0.000103887
0.000105642
0.000105702
0.000108247
0.000108782
0.000110636
0.000106336
0.0001062
0.00010796
0.000108166
0.000108692
0.000110876
0.000106348
0.00010621
0.000108002
0.000108178
0.00010632
0.000108212
0.00010809
0.000108696
0.00011086
0.000106328
0.000108168
0.00010807
0.000110829
0.000111111
0.000113767
0.000108645
0.000108905
0.000111047
0.000111117
0.000111388
0.000113745
0.000108673
0.000108877
0.000111058
0.000111009
0.00010883
0.000111101
0.000111266
0.000111341
0.000113623
0.00010881
0.00011106
0.00011129
0.000113853
0.00011438
0.00011699
0.000111919
0.000111911
0.000114865
0.00011439
0.000114263
0.000116641
0.000111906
0.000111754
0.000114825
0.000114365
0.000111941
0.000114398
0.000114272
0.000114151
0.000116696
0.000111944
0.000114379
0.000114288
0.00011651
0.000117421
0.000118457
0.000115627
0.000115153
0.000116475
0.000116763
0.000117106
0.000118844
0.000115605
0.000115292
0.000116479
0.000117198
0.000115117
0.00011683
0.000116858
0.000117239
0.00011932
0.000115176
0.00011728
0.000116867
0.000118984
0.00011873
0.000121989
0.000116852
0.000117349
0.000119806
0.000120203
0.000119257
0.00012225
0.000116859
0.000117767
0.000119976
0.000120589
0.000117546
0.000120094
0.000120312
0.000119731
0.000122211
0.000117519
0.000120578
0.00012035
0.000122174
0.000123054
0.000127846
0.000121227
0.000121448
0.000126262
0.000125742
0.000123118
0.000127257
0.000121469
0.0001216
0.000126344
0.000123868
0.000121274
0.000125832
0.000125131
0.000122843
0.000125345
0.00012136
0.000123747
0.000125159
0.000126804
0.000128676
0.000130417
0.000127955
0.000127167
0.000131049
0.000130173
0.000128021
0.00012941
0.000127912
0.000124878
0.000130841
0.000128059
0.000126699
0.00013035
0.000129905
0.00012589
0.000128189
0.000126661
0.000128126
0.000129796
0.00012902
0.000129956
0.000120369
0.000130794
0.000129629
0.000122953
0.000122961
0.000129024
0.000122059
0.000130505
0.000128745
0.00012266
0.00012876
0.000129427
0.000123082
0.000123923
0.000128465
0.000128204
0.000129412
0.000128883
0.000124084
0.000122969
0.000118264
0.000117548
0.000118968
0.000120493
0.000113663
0.000121317
0.000120632
0.000122791
0.000118799
0.000127942
0.000113849
0.000124703
0.000121721
0.000121319
0.000121847
0.000127855
0.000125036
0.000121798
0.000124681
0.000120911
0.000123115
0.000121119
0.000142966
0.000119778
0.00012549
0.000142857
0.000130408
0.000125066
0.000130222
0.000120151
0.000124504
0.000143289
0.000128957
0.000124843
0.000129649
0.000136618
0.000124676
0.00012922
0.000123897
0.000129106
0.000137492
0.000136671
0.000146187
0.000157985
0.000148441
0.000132215
0.00015973
0.00014782
0.000130618
0.000143878
0.000148975
0.000132113
0.000160657
0.000144398
0.000140711
0.000148244
0.000149026
0.0001312
0.000142075
0.000142266
0.000144723
0.000150473
0.000146006
0.000158413
0.000161383
0.000153327
0.000147631
0.000161877
0.000148187
0.00015033
0.00014398
0.000151053
0.000151165
0.000151162
0.000151157
0.000151158
7.00618e-05
4.95546e-05
6.90709e-05
4.95638e-05
2.3628e-05
2.36244e-05
7.00564e-05
4.95502e-05
6.90764e-05
4.95595e-05
0.000150142
0.000150137
0.000150138
0.000147075
0.00014707
0.000147066
0.000147067
6.71028e-05
6.57748e-05
0.000126168
0.000100952
6.61432e-05
6.6487e-05
0.00012515
2.36267e-05
2.36231e-05
6.71046e-05
0.000126167
6.57784e-05
0.000100953
6.61428e-05
0.00012515
6.64862e-05
6.10724e-05
6.10703e-05
8.24748e-05
6.15171e-05
6.15151e-05
7.2062e-05
4.95755e-05
7.11975e-05
4.95837e-05
2.36157e-05
2.36124e-05
7.20555e-05
4.9571e-05
7.12011e-05
4.95793e-05
0.000146062
0.000146058
0.00014606
0.000143034
0.000143029
0.000143025
0.000143026
7.00595e-05
6.76716e-05
0.000122223
9.82635e-05
6.90276e-05
6.83691e-05
0.000121258
2.36144e-05
2.36111e-05
7.00458e-05
0.000122223
6.76747e-05
9.82669e-05
6.90384e-05
0.000121258
6.83696e-05
6.20272e-05
6.2025e-05
8.21669e-05
6.24337e-05
6.24316e-05
7.38102e-05
4.95939e-05
7.30502e-05
4.96011e-05
2.36044e-05
2.36014e-05
7.38015e-05
4.95895e-05
7.30545e-05
4.95967e-05
0.000142046
0.000142042
0.000142042
0.000139073
0.000139073
0.000139069
0.00013907
7.30785e-05
6.94629e-05
0.000118526
9.60858e-05
7.19846e-05
7.01474e-05
0.000117624
2.3603e-05
2.36001e-05
7.30632e-05
0.000118523
6.94641e-05
9.60845e-05
7.19941e-05
0.000117621
7.01447e-05
6.29031e-05
6.29004e-05
8.23642e-05
6.32758e-05
6.3273e-05
7.53482e-05
4.961e-05
7.46771e-05
4.96164e-05
2.3594e-05
2.35913e-05
7.53397e-05
4.96056e-05
7.46836e-05
4.96119e-05
0.000138117
0.000138114
0.000138115
0.000135236
0.000135225
0.000135223
0.000135228
7.60766e-05
7.11559e-05
0.000115125
9.44221e-05
7.49528e-05
7.18174e-05
0.000114318
2.35927e-05
2.359e-05
7.6067e-05
0.000115125
7.11601e-05
9.44255e-05
7.49659e-05
0.000114319
7.18161e-05
6.37122e-05
6.37098e-05
8.30464e-05
6.40544e-05
6.40513e-05
7.67107e-05
4.9624e-05
7.6113e-05
4.96297e-05
2.35846e-05
2.35822e-05
7.67048e-05
4.96196e-05
7.6116e-05
4.96254e-05
0.000134286
0.000134284
0.000134288
0.00013152
0.000131518
0.000131517
0.000131514
7.90184e-05
7.27453e-05
0.00011202
9.32625e-05
7.7872e-05
7.33956e-05
0.000111308
2.35832e-05
2.35809e-05
7.90092e-05
0.000112025
7.275e-05
9.32664e-05
7.7883e-05
0.000111312
7.33941e-05
6.44539e-05
6.44515e-05
8.41058e-05
6.47699e-05
6.47675e-05
7.79391e-05
4.96365e-05
7.73974e-05
4.96417e-05
2.35762e-05
2.35741e-05
7.79295e-05
4.96321e-05
7.74017e-05
4.96373e-05
0.000130624
0.000130625
0.000130618
0.000127995
0.000127993
0.00012799
0.000127988
8.18742e-05
7.4251e-05
0.000109324
9.26282e-05
8.07274e-05
7.48851e-05
0.000108711
2.35748e-05
2.35727e-05
8.18609e-05
0.000109325
7.42551e-05
9.26309e-05
8.07356e-05
0.00010871
7.48804e-05
6.51468e-05
6.51438e-05
8.55683e-05
6.54406e-05
6.54375e-05
7.90455e-05
4.96478e-05
7.85549e-05
4.96527e-05
2.35687e-05
2.3567e-05
7.90421e-05
4.96435e-05
7.85572e-05
4.96484e-05
0.000127149
0.000127145
0.000127143
0.00012468
0.000124681
0.000124679
0.000124679
8.46069e-05
7.56684e-05
0.00010702
9.24611e-05
8.34645e-05
7.62859e-05
0.000106507
2.35673e-05
2.35656e-05
8.46025e-05
0.000107017
7.5671e-05
9.24593e-05
8.34688e-05
0.000106506
7.62819e-05
6.57904e-05
6.57872e-05
8.73317e-05
6.6064e-05
6.60613e-05
8.0066e-05
4.96586e-05
7.96185e-05
4.96633e-05
2.35622e-05
2.35608e-05
8.0066e-05
4.96543e-05
7.96183e-05
4.96588e-05
0.000123901
0.000123902
0.000123905
0.000121647
0.000121636
0.000121632
0.00012164
8.723e-05
7.70119e-05
0.00010514
9.27598e-05
8.60986e-05
7.76168e-05
0.000104745
2.35608e-05
2.35594e-05
8.72287e-05
0.000105149
7.70182e-05
9.27665e-05
8.6107e-05
0.000104751
7.76144e-05
6.63966e-05
6.63935e-05
8.93612e-05
6.66548e-05
6.66512e-05
8.10023e-05
4.9669e-05
8.05918e-05
4.96737e-05
2.35566e-05
2.35556e-05
8.10012e-05
4.96647e-05
8.05915e-05
4.96694e-05
0.000120896
0.000120893
0.000120904
0.000118832
0.000118823
0.000118821
0.000118827
8.97166e-05
7.82826e-05
0.00010371
9.34243e-05
8.86328e-05
7.88567e-05
0.000103413
2.35553e-05
2.35543e-05
8.97171e-05
0.000103709
7.82812e-05
9.34305e-05
8.86241e-05
0.000103412
7.8858e-05
6.69613e-05
6.69582e-05
9.15426e-05
6.72009e-05
6.71978e-05
8.18903e-05
4.96796e-05
8.14998e-05
4.96846e-05
2.35522e-05
2.35516e-05
8.18787e-05
4.96751e-05
8.1495e-05
4.96802e-05
0.000118178
0.000118178
0.000118173
0.000116332
0.000116359
0.00011636
0.000116337
9.2108e-05
7.94999e-05
0.00010271
9.45288e-05
9.10441e-05
8.00517e-05
0.00010253
2.35509e-05
2.35502e-05
9.21008e-05
0.000102705
7.94973e-05
9.45306e-05
9.10413e-05
0.000102531
8.00474e-05
6.74948e-05
6.74894e-05
9.388e-05
6.77221e-05
6.77195e-05
8.2703e-05
4.96908e-05
8.2351e-05
4.96958e-05
2.35488e-05
2.35485e-05
8.2713e-05
4.96868e-05
8.23573e-05
4.96916e-05
0.000115796
0.000115796
0.000115787
0.000114258
0.000114217
0.000114236
0.000114226
9.43955e-05
8.06533e-05
0.000102167
9.59774e-05
9.33664e-05
8.11818e-05
0.000102111
2.35474e-05
2.35471e-05
9.44069e-05
0.000102189
8.06628e-05
9.59872e-05
9.33865e-05
0.000102127
8.11811e-05
6.80029e-05
6.80001e-05
9.63938e-05
6.82272e-05
6.82247e-05
8.34844e-05
4.97025e-05
8.31426e-05
4.97082e-05
2.35463e-05
2.35463e-05
8.34836e-05
4.96982e-05
8.313e-05
4.97039e-05
0.000113734
0.000113737
0.000113747
0.000112417
0.000112431
0.000112416
0.000112455
9.65854e-05
8.17602e-05
0.000102065
9.76902e-05
9.55994e-05
8.22517e-05
0.000102102
2.35449e-05
2.3545e-05
9.65725e-05
0.00010206
8.17587e-05
9.76737e-05
9.5578e-05
0.000102069
8.22492e-05
6.8488e-05
6.84823e-05
9.89705e-05
6.86974e-05
6.86932e-05
8.42283e-05
4.97153e-05
8.39098e-05
4.97207e-05
2.35449e-05
2.35452e-05
8.42284e-05
4.97111e-05
8.39103e-05
4.97165e-05
0.00011203
0.000112031
0.000112051
0.000111015
0.000110969
0.000110973
0.000110943
9.86691e-05
8.28119e-05
0.000102354
9.97005e-05
9.77334e-05
8.32827e-05
0.000102475
2.35435e-05
2.35439e-05
9.86819e-05
0.000102344
8.28074e-05
9.97107e-05
9.77274e-05
0.000102493
8.32892e-05
6.89495e-05
6.89456e-05
0.000101567
6.91385e-05
6.91351e-05
8.49238e-05
4.97288e-05
8.46004e-05
4.97353e-05
2.35443e-05
2.35451e-05
8.49177e-05
4.97242e-05
8.46093e-05
4.9731e-05
0.000110675
0.000110699
0.00011065
0.000109991
0.000110021
0.000110047
0.000110057
0.000100689
8.38091e-05
0.00010297
0.000101989
9.97788e-05
8.42913e-05
0.000103219
2.35429e-05
2.35437e-05
0.000100705
0.000103002
8.38134e-05
0.000102012
9.97966e-05
0.000103261
8.42964e-05
6.93872e-05
6.93843e-05
0.000104332
6.96152e-05
6.96102e-05
8.55947e-05
4.97435e-05
8.5317e-05
4.97498e-05
2.35444e-05
2.35453e-05
8.55968e-05
4.97393e-05
8.53223e-05
4.97453e-05
0.000109837
0.000109858
0.000109822
0.000109379
0.000109206
0.000109193
0.000109248
0.000102697
8.48219e-05
0.00010413
0.000104526
0.000101841
8.52307e-05
0.00010448
2.35431e-05
2.35439e-05
0.000102682
0.000104188
8.48258e-05
0.000104523
0.000101843
0.000104467
8.52182e-05
6.98382e-05
6.98327e-05
0.000107054
6.9992e-05
6.99838e-05
8.62175e-05
4.97582e-05
8.59506e-05
4.97657e-05
2.35456e-05
2.35473e-05
8.62423e-05
4.97542e-05
8.59343e-05
4.97614e-05
0.000109022
0.000108992
0.000109118
0.000108487
0.000108645
0.000108637
0.000108542
0.000104524
8.56804e-05
0.000105479
0.000106878
0.00010372
8.60929e-05
0.000105809
2.35442e-05
2.35458e-05
0.000104525
0.000105416
8.56772e-05
0.000106899
0.000103672
0.000105797
8.61061e-05
7.01926e-05
7.01871e-05
0.000109503
7.03551e-05
7.03555e-05
8.68561e-05
4.97769e-05
8.65566e-05
4.9786e-05
2.35484e-05
2.35502e-05
8.68445e-05
4.97723e-05
8.65764e-05
4.97816e-05
0.000108649
0.000108569
0.000108502
0.000108654
0.00010875
0.000108699
0.000108969
0.000106317
8.65669e-05
0.000107005
0.000109642
0.000105531
8.69699e-05
0.000107452
2.35469e-05
2.35489e-05
0.000106311
0.000106911
8.65613e-05
0.000109571
0.000105553
0.000107397
8.69508e-05
7.05705e-05
7.05623e-05
0.000112301
7.07762e-05
7.0765e-05
8.75173e-05
4.97989e-05
8.72021e-05
4.98076e-05
2.35518e-05
2.3554e-05
8.7501e-05
4.97944e-05
8.71885e-05
4.98036e-05
0.000108861
0.000108774
0.000108957
0.00010985
0.00010945
0.000109332
0.000109306
0.000108179
8.7456e-05
0.000108917
0.000112699
0.000107362
8.79026e-05
0.000109488
2.35508e-05
2.35531e-05
0.000108189
0.000108971
8.74367e-05
0.000112582
0.000107339
0.000109479
8.78862e-05
7.10119e-05
7.10126e-05
0.000115236
7.11673e-05
7.1165e-05
8.80202e-05
4.98165e-05
8.78726e-05
4.98244e-05
2.35557e-05
2.35581e-05
8.8019e-05
4.98125e-05
8.78903e-05
4.98204e-05
0.0001097
0.00010972
0.000109696
0.000109679
0.000109778
0.000110316
0.00010975
0.000109947
8.83596e-05
0.000111608
0.000115862
0.000109271
8.86487e-05
0.00011222
2.35547e-05
2.35567e-05
0.000109988
0.000111617
8.83795e-05
0.000116195
0.000109269
0.00011244
8.86983e-05
7.1338e-05
7.13405e-05
0.000117795
7.14726e-05
7.14663e-05
8.86316e-05
4.98399e-05
8.82971e-05
4.98519e-05
2.35608e-05
2.35641e-05
8.86447e-05
4.98355e-05
8.83022e-05
4.9847e-05
0.000109731
0.000110264
0.00010976
0.000110131
0.000110591
0.000111131
0.000110959
0.000111333
8.89042e-05
0.000113444
0.000118106
0.000110677
8.93085e-05
0.000113867
2.35596e-05
2.35622e-05
0.000111398
0.000113645
8.90105e-05
0.00011852
0.000110712
0.000114035
8.94737e-05
7.16175e-05
7.16056e-05
0.000120339
7.18233e-05
7.18423e-05
8.93293e-05
4.98654e-05
8.89864e-05
4.98713e-05
2.35653e-05
2.35651e-05
8.93664e-05
4.98592e-05
8.90327e-05
4.9864e-05
0.000111257
0.000111762
0.00011144
0.000114907
0.000114527
0.000112736
0.000113776
0.000113374
8.99702e-05
0.000116037
0.000122723
0.000112445
9.06022e-05
0.000117022
2.35625e-05
2.3563e-05
0.000113354
0.000116454
8.99919e-05
0.00012227
0.000112618
0.000117253
9.03345e-05
7.21425e-05
7.21267e-05
0.000124385
7.24612e-05
7.24379e-05
9.03525e-05
4.98697e-05
8.99553e-05
4.98645e-05
2.35593e-05
2.35551e-05
9.02542e-05
4.98627e-05
8.99074e-05
4.98586e-05
0.000115713
0.000113128
0.000114919
0.000119121
0.000118369
0.000114882
0.000117712
0.000116317
9.15893e-05
0.000121086
0.000128669
0.000115148
9.1986e-05
0.000122663
2.35613e-05
2.35609e-05
0.000115888
0.000119686
9.10071e-05
0.000126056
0.000114696
0.000120913
9.14545e-05
7.30904e-05
7.3083e-05
0.000128661
7.32509e-05
7.32744e-05
9.00053e-05
4.98482e-05
9.0451e-05
4.98434e-05
2.35468e-05
2.35479e-05
9.00444e-05
4.98427e-05
9.03501e-05
4.98381e-05
0.000117974
0.000115486
0.000117534
0.000111355
0.000110415
0.000116047
0.000111755
0.000115912
9.1572e-05
0.000126049
0.000128159
0.000116682
9.05581e-05
0.000125419
2.35588e-05
2.35616e-05
0.000116257
0.000124712
9.14857e-05
0.000129086
0.000116621
0.000125219
9.12545e-05
7.24878e-05
7.25607e-05
0.000126942
7.16308e-05
7.176e-05
8.89285e-05
4.98841e-05
8.87976e-05
4.99606e-05
2.35723e-05
2.36005e-05
8.90034e-05
4.98821e-05
8.91859e-05
4.99545e-05
0.000107135
0.000115056
0.000108647
9.50342e-05
0.000102041
0.000109847
0.000101844
0.00011436
8.89706e-05
0.000118955
0.000118867
0.000114193
8.96129e-05
0.000116735
2.35733e-05
2.35852e-05
0.000114861
0.000123057
9.09278e-05
0.000127139
0.000115183
0.000121565
9.07494e-05
7.09237e-05
7.09749e-05
0.000120482
7.1377e-05
7.10678e-05
9.14619e-05
5.00684e-05
9.05564e-05
5.01137e-05
2.36315e-05
2.36434e-05
9.11486e-05
5.00755e-05
9.00047e-05
5.01264e-05
0.000105379
0.000108635
0.000104017
0.000123188
0.00011082
0.000110239
0.000118284
0.000117928
9.16301e-05
0.000119068
0.00012735
0.000116569
9.20599e-05
0.00012129
2.36083e-05
2.36252e-05
0.000117226
0.000118806
9.05036e-05
0.000124754
0.000115337
0.000119637
9.14905e-05
7.22222e-05
7.19289e-05
0.000129106
7.30525e-05
7.30915e-05
9.27201e-05
5.01477e-05
9.20854e-05
5.01554e-05
2.3658e-05
2.36771e-05
9.35894e-05
5.01519e-05
9.27375e-05
5.01422e-05
0.000113024
0.000112697
0.000124163
0.000150615
0.000131777
0.000125441
0.000137081
0.000121532
9.1834e-05
0.000127722
0.000136001
0.000119454
9.33709e-05
0.000131549
2.36391e-05
2.36436e-05
0.000123696
0.000129146
9.34924e-05
0.000136626
0.000121421
0.000133669
9.46765e-05
7.45621e-05
7.50799e-05
0.000143074
7.54468e-05
7.58322e-05
5.01228e-05
9.41088e-05
2.36822e-05
5.00822e-05
9.41751e-05
0.000139654
0.000130327
0.000138989
9.66712e-05
0.000148018
0.000125337
2.36431e-05
0.000145
9.55669e-05
0.000124949
7.5323e-05
7.51754e-05
2.36323e-05
2.36304e-05
6.10301e-05
6.10284e-05
4.9553e-05
6.89581e-05
4.95491e-05
6.89557e-05
6.55119e-05
0.000127156
6.56836e-05
6.55072e-05
0.000127151
6.56818e-05
2.36308e-05
6.10258e-05
6.10287e-05
2.36316e-05
4.95486e-05
6.89508e-05
6.55063e-05
0.000127158
6.56813e-05
4.9545e-05
6.89557e-05
0.00012715
6.55021e-05
6.56804e-05
6.55067e-05
0.000127162
6.56823e-05
4.95504e-05
6.89515e-05
0.000127157
6.54992e-05
6.56807e-05
4.9547e-05
6.8949e-05
2.36294e-05
6.10252e-05
6.10319e-05
2.36312e-05
0.000127161
6.55037e-05
6.56815e-05
0.000127163
6.55028e-05
6.56796e-05
4.95495e-05
6.89508e-05
4.95452e-05
6.89472e-05
6.10271e-05
6.10251e-05
2.36307e-05
2.36296e-05
2.36296e-05
2.3626e-05
2.36276e-05
2.3624e-05
6.10765e-05
6.10742e-05
8.24845e-05
6.152e-05
6.15183e-05
2.36199e-05
2.36233e-05
2.36179e-05
2.36214e-05
8.22691e-05
6.19912e-05
6.1988e-05
6.15641e-05
6.15612e-05
7.006e-05
4.95507e-05
6.90681e-05
4.956e-05
6.71021e-05
6.57739e-05
0.000126167
0.000100921
6.61434e-05
6.64908e-05
0.000125139
6.71005e-05
6.57731e-05
0.000126157
0.000100911
6.61415e-05
6.64866e-05
0.000125138
7.01694e-05
4.95741e-05
4.95653e-05
7.10976e-05
7.01671e-05
4.95703e-05
4.95615e-05
7.10955e-05
6.75763e-05
0.000100204
6.74495e-05
0.000123164
6.67341e-05
0.000124166
6.85589e-05
6.75748e-05
0.000100193
6.7443e-05
0.000123164
6.67336e-05
0.000124157
6.85576e-05
6.10716e-05
6.10752e-05
8.2484e-05
6.15154e-05
6.15185e-05
2.36289e-05
2.36253e-05
2.36183e-05
2.36218e-05
8.22676e-05
6.19851e-05
6.19879e-05
6.15589e-05
6.15622e-05
2.36192e-05
2.36226e-05
6.71026e-05
6.57732e-05
0.000126161
0.000100949
6.61423e-05
6.64863e-05
0.000125148
7.00602e-05
4.95466e-05
6.90678e-05
4.95559e-05
6.71005e-05
0.000126152
6.57733e-05
0.000100909
6.61412e-05
0.00012514
6.64831e-05
7.01748e-05
4.95697e-05
4.95609e-05
7.10891e-05
6.75768e-05
0.000100231
6.74444e-05
0.000123175
6.6734e-05
0.000124161
6.85585e-05
7.01655e-05
4.95662e-05
4.95573e-05
7.10939e-05
6.7574e-05
0.00010019
0.000123166
6.74368e-05
0.000124153
6.67315e-05
6.85635e-05
7.0057e-05
4.9552e-05
6.90769e-05
4.95612e-05
6.71032e-05
0.000126163
6.57749e-05
0.000100919
6.61415e-05
0.000125146
6.64804e-05
7.00558e-05
4.95486e-05
6.90749e-05
4.95579e-05
6.75737e-05
0.000100234
6.7443e-05
0.000123176
6.67359e-05
0.000124168
6.85692e-05
7.01755e-05
4.95714e-05
4.95626e-05
7.10901e-05
6.75694e-05
0.000100201
0.000123172
6.74371e-05
0.000124163
6.67375e-05
6.85738e-05
7.01748e-05
4.95682e-05
4.95594e-05
7.10894e-05
6.10711e-05
6.10779e-05
8.24821e-05
6.15155e-05
6.1522e-05
2.36285e-05
2.36249e-05
2.3617e-05
2.36204e-05
8.22667e-05
6.19832e-05
6.19901e-05
6.15582e-05
6.15647e-05
2.36188e-05
2.36222e-05
6.71021e-05
0.000126169
6.57709e-05
0.000100946
6.61405e-05
0.000125151
6.64843e-05
7.00587e-05
4.95511e-05
6.90769e-05
4.95603e-05
7.00557e-05
4.95468e-05
6.90745e-05
4.95561e-05
6.75794e-05
0.000100235
0.000123176
6.744e-05
0.000124169
6.67379e-05
6.85593e-05
6.75771e-05
0.000100228
0.000123178
6.74405e-05
0.00012417
6.67338e-05
6.85586e-05
7.01769e-05
4.95705e-05
4.95617e-05
7.10891e-05
7.01754e-05
4.95664e-05
4.95576e-05
7.1087e-05
2.3628e-05
2.36244e-05
2.36269e-05
2.36233e-05
8.22591e-05
6.19865e-05
6.19843e-05
6.15605e-05
6.15584e-05
2.36183e-05
2.36217e-05
2.36172e-05
2.36206e-05
2.36173e-05
2.3614e-05
2.36154e-05
2.36121e-05
6.20325e-05
6.20292e-05
8.21804e-05
6.24386e-05
6.24359e-05
2.36083e-05
2.36115e-05
2.36064e-05
2.36096e-05
8.20741e-05
6.28689e-05
6.28645e-05
6.24787e-05
6.24758e-05
7.20601e-05
4.95716e-05
7.11946e-05
4.95799e-05
7.00457e-05
6.76742e-05
0.000122223
9.82363e-05
6.90428e-05
6.83739e-05
0.000121247
7.00496e-05
6.76702e-05
0.000122213
9.82248e-05
6.90368e-05
6.83699e-05
0.000121247
7.21547e-05
4.95927e-05
4.95849e-05
7.29632e-05
7.21521e-05
4.95889e-05
4.95811e-05
7.29614e-05
7.05156e-05
9.76443e-05
6.92752e-05
0.000119393
6.85795e-05
0.000120339
7.15489e-05
7.0509e-05
9.76333e-05
6.92694e-05
0.000119393
6.85797e-05
0.00012033
7.15533e-05
6.20262e-05
6.20295e-05
8.21741e-05
6.24333e-05
6.24365e-05
2.36166e-05
2.36133e-05
2.36068e-05
2.361e-05
8.20676e-05
6.28624e-05
6.28659e-05
6.24734e-05
6.24766e-05
2.36077e-05
2.36108e-05
7.00519e-05
6.76737e-05
0.000122218
9.82648e-05
6.90359e-05
6.83689e-05
0.000121258
7.20605e-05
4.95675e-05
7.11928e-05
4.95758e-05
7.00568e-05
0.000122209
6.7669e-05
9.82259e-05
6.90288e-05
0.000121249
6.83682e-05
7.21596e-05
4.95883e-05
4.95805e-05
7.29562e-05
7.05092e-05
9.76715e-05
6.927e-05
0.000119403
6.85784e-05
0.000120335
7.15549e-05
7.21513e-05
4.95848e-05
4.9577e-05
7.296e-05
7.05028e-05
9.76337e-05
0.000119395
6.92636e-05
0.000120326
6.85802e-05
7.15589e-05
7.20549e-05
4.95728e-05
7.12015e-05
4.9581e-05
7.00646e-05
0.000122221
6.76734e-05
9.82333e-05
6.90244e-05
0.000121255
6.8363e-05
7.20535e-05
4.95695e-05
7.1201e-05
4.95777e-05
7.04985e-05
9.76711e-05
6.92698e-05
0.000119404
6.85806e-05
0.000120339
7.15652e-05
7.21591e-05
4.95901e-05
4.95823e-05
7.29582e-05
7.04944e-05
9.76413e-05
0.0001194
6.92644e-05
0.000120337
6.85817e-05
7.15671e-05
7.21576e-05
4.95867e-05
4.9579e-05
7.29549e-05
6.20248e-05
6.20317e-05
8.21761e-05
6.24345e-05
6.24405e-05
2.36162e-05
2.36129e-05
2.36055e-05
2.36086e-05
8.20718e-05
6.28603e-05
6.28674e-05
6.24742e-05
6.24802e-05
2.36072e-05
2.36104e-05
7.00482e-05
0.000122226
6.76694e-05
9.82592e-05
6.90353e-05
0.00012126
6.83656e-05
7.20534e-05
4.95718e-05
7.12008e-05
4.95801e-05
7.20505e-05
4.95677e-05
7.11998e-05
4.9576e-05
7.05083e-05
9.76745e-05
0.000119402
6.92659e-05
0.000120338
6.85846e-05
7.15506e-05
7.05039e-05
9.76671e-05
0.000119405
6.92672e-05
0.000120342
6.8577e-05
7.15526e-05
7.21577e-05
4.95891e-05
4.95813e-05
7.29572e-05
7.21559e-05
4.9585e-05
4.95772e-05
7.29541e-05
2.36157e-05
2.36124e-05
2.36146e-05
2.36113e-05
8.2062e-05
6.28635e-05
6.2861e-05
6.24738e-05
6.24718e-05
2.36068e-05
2.36099e-05
2.36057e-05
2.36088e-05
2.36059e-05
2.36029e-05
2.3604e-05
2.3601e-05
6.29086e-05
6.29042e-05
8.2374e-05
6.32818e-05
6.32779e-05
2.35978e-05
2.36006e-05
2.35959e-05
2.35987e-05
8.23699e-05
6.36771e-05
6.36732e-05
6.33204e-05
6.33167e-05
7.38082e-05
4.95901e-05
7.30476e-05
4.95974e-05
7.30604e-05
6.94649e-05
0.000118523
9.60563e-05
7.19969e-05
7.01502e-05
0.00011761
7.30639e-05
6.94602e-05
0.000118514
9.6046e-05
7.19905e-05
7.0144e-05
0.00011761
7.38907e-05
4.9609e-05
4.96022e-05
7.46019e-05
7.38881e-05
4.96052e-05
4.95984e-05
7.46e-05
7.34837e-05
9.55937e-05
7.09981e-05
0.000115904
7.03215e-05
0.000116781
7.45675e-05
7.3477e-05
9.55848e-05
7.09939e-05
0.000115905
7.03198e-05
0.000116772
7.45712e-05
6.2902e-05
6.29056e-05
8.23715e-05
6.32752e-05
6.32789e-05
2.36052e-05
2.36023e-05
2.35963e-05
2.35991e-05
8.23675e-05
6.36711e-05
6.36751e-05
6.3314e-05
6.33177e-05
2.35971e-05
2.35999e-05
7.30638e-05
6.94637e-05
0.000118517
9.60828e-05
7.19902e-05
7.01439e-05
0.00011762
7.38066e-05
4.95859e-05
7.30453e-05
4.95933e-05
7.30675e-05
0.000118509
6.94576e-05
9.60435e-05
7.1984e-05
0.000117612
7.01402e-05
7.38939e-05
4.96047e-05
4.95978e-05
7.45969e-05
7.34758e-05
9.56193e-05
7.0994e-05
0.000115915
7.03197e-05
0.000116776
7.45744e-05
7.38859e-05
4.96011e-05
4.95943e-05
7.46007e-05
7.347e-05
9.55829e-05
0.000115907
7.09898e-05
0.000116768
7.03191e-05
7.4577e-05
7.38062e-05
4.95912e-05
7.3057e-05
4.95984e-05
7.30763e-05
0.000118519
6.94638e-05
9.60502e-05
7.19767e-05
0.000117615
7.01351e-05
7.38019e-05
4.95879e-05
7.30536e-05
4.95953e-05
7.34742e-05
9.56254e-05
7.09968e-05
0.000115919
7.0325e-05
0.000116788
7.4584e-05
7.38981e-05
4.96061e-05
4.95994e-05
7.45961e-05
7.34635e-05
9.55887e-05
0.000115912
7.09896e-05
0.000116776
7.03189e-05
7.45837e-05
7.38943e-05
4.96032e-05
4.95964e-05
7.45944e-05
6.28999e-05
6.29072e-05
8.23696e-05
6.32744e-05
6.32817e-05
2.36048e-05
2.36019e-05
2.35949e-05
2.35977e-05
8.2366e-05
6.36708e-05
6.3678e-05
6.33134e-05
6.33206e-05
2.35967e-05
2.35995e-05
7.3063e-05
0.000118525
6.94595e-05
9.6076e-05
7.1988e-05
0.000117622
7.01387e-05
7.38041e-05
4.95903e-05
7.30564e-05
4.95975e-05
7.37999e-05
4.95862e-05
7.30541e-05
4.95935e-05
7.34823e-05
9.56241e-05
0.000115919
7.09947e-05
0.000116785
7.03268e-05
7.45742e-05
7.34746e-05
9.56154e-05
0.00011592
7.09932e-05
0.000116784
7.0316e-05
7.45748e-05
7.38963e-05
4.96052e-05
4.95986e-05
7.45972e-05
7.38934e-05
4.96014e-05
4.95946e-05
7.45946e-05
2.36043e-05
2.36014e-05
2.36033e-05
2.36003e-05
8.23608e-05
6.36736e-05
6.36714e-05
6.33147e-05
6.33122e-05
2.35962e-05
2.3599e-05
2.35951e-05
2.3598e-05
2.35956e-05
2.35929e-05
2.35936e-05
2.3591e-05
6.37155e-05
6.37115e-05
8.3044e-05
6.40598e-05
6.40552e-05
2.35882e-05
2.35907e-05
2.35863e-05
2.35888e-05
8.31319e-05
6.44242e-05
6.44192e-05
6.40969e-05
6.40923e-05
7.53458e-05
4.96061e-05
7.46743e-05
4.96126e-05
7.60667e-05
7.11552e-05
0.000115121
9.43962e-05
7.49657e-05
7.18236e-05
0.000114307
7.60693e-05
7.11517e-05
0.000115113
9.43883e-05
7.49592e-05
7.18173e-05
0.000114308
7.54176e-05
4.96232e-05
4.96172e-05
7.60484e-05
7.54146e-05
4.96195e-05
4.96135e-05
7.6046e-05
7.64371e-05
9.40634e-05
7.26244e-05
0.000112754
7.19647e-05
0.000113523
7.7548e-05
7.64299e-05
9.4051e-05
7.26155e-05
0.000112752
7.19609e-05
0.000113513
7.75497e-05
6.37093e-05
6.37133e-05
8.30405e-05