/*--------------------------------*- C++ -*----------------------------------*\
| =========                 |                                                 |
| \\      /  F ield         | OpenFOAM: The Open Source CFD Toolbox           |
|  \\    /   O peration     | Version:  v2012                                 |
|   \\  /    A nd           | Website:  www.openfoam.com                      |
|    \\/     M anipulation  |                                                 |
\*---------------------------------------------------------------------------*/
FoamFile
{
    version     2.0;
    format      ascii;
    class       volScalarField;
    location    "0.375";
    object      p;
}
// * * * * * * * * * * * * * * * * * * * * * * * * * * * * * * * * * * * * * //

dimensions      [0 2 -2 0 0 0 0];


internalField   nonuniform List<scalar> 
247104
(
1.84483e-06
1.84472e-06
1.84487e-06
1.84485e-06
1.84476e-06
1.84486e-06
1.84485e-06
1.84465e-06
1.84472e-06
1.84478e-06
1.84484e-06
1.84469e-06
1.8446e-06
1.84471e-06
1.84485e-06
1.84475e-06
1.84487e-06
1.84484e-06
1.84454e-06
1.84417e-06
1.84403e-06
1.84421e-06
1.84459e-06
1.84486e-06
1.84487e-06
1.84485e-06
1.84469e-06
1.84417e-06
1.84369e-06
1.84352e-06
1.84374e-06
1.84425e-06
1.84474e-06
1.84485e-06
1.84483e-06
1.84476e-06
1.8446e-06
1.84403e-06
1.84352e-06
1.84334e-06
1.84357e-06
1.84411e-06
1.84465e-06
1.84475e-06
1.84487e-06
1.84471e-06
1.84421e-06
1.84374e-06
1.84357e-06
1.84379e-06
1.84428e-06
1.84476e-06
1.84487e-06
1.84486e-06
1.84485e-06
1.84459e-06
1.84425e-06
1.84411e-06
1.84428e-06
1.84463e-06
1.84486e-06
1.84486e-06
1.84465e-06
1.84475e-06
1.84486e-06
1.84474e-06
1.84465e-06
1.84476e-06
1.84486e-06
1.84472e-06
1.84487e-06
1.84485e-06
1.84475e-06
1.84487e-06
1.84485e-06
1.81187e-06
1.80988e-06
1.80928e-06
1.80806e-06
1.80807e-06
1.80801e-06
1.80801e-06
1.80933e-06
1.80957e-06
1.80928e-06
1.80722e-06
1.80459e-06
1.80457e-06
1.80457e-06
1.80459e-06
1.80761e-06
1.80786e-06
1.80806e-06
1.80459e-06
1.80454e-06
1.8046e-06
1.8046e-06
1.80454e-06
1.80459e-06
1.80798e-06
1.80928e-06
1.81187e-06
1.80807e-06
1.80457e-06
1.8046e-06
1.8047e-06
1.8047e-06
1.8046e-06
1.80457e-06
1.80798e-06
1.80962e-06
1.80987e-06
1.80801e-06
1.80457e-06
1.8046e-06
1.8047e-06
1.8047e-06
1.8046e-06
1.80457e-06
1.80815e-06
1.80821e-06
1.80801e-06
1.80459e-06
1.80454e-06
1.8046e-06
1.8046e-06
1.80454e-06
1.8046e-06
1.80793e-06
1.80919e-06
1.80933e-06
1.8076e-06
1.80459e-06
1.80457e-06
1.80457e-06
1.80459e-06
1.80784e-06
1.80801e-06
1.80947e-06
1.80957e-06
1.80786e-06
1.80798e-06
1.80798e-06
1.80815e-06
1.80793e-06
1.80801e-06
1.80962e-06
1.80928e-06
1.80962e-06
1.80821e-06
1.80919e-06
1.80947e-06
1.79175e-06
1.79158e-06
1.79141e-06
1.7893e-06
1.7892e-06
1.78915e-06
1.78928e-06
1.79136e-06
1.79162e-06
1.79141e-06
1.78859e-06
1.78565e-06
1.7856e-06
1.7856e-06
1.78566e-06
1.78908e-06
1.78974e-06
1.7893e-06
1.78566e-06
1.7854e-06
1.78544e-06
1.78544e-06
1.7854e-06
1.78565e-06
1.78988e-06
1.79184e-06
1.79175e-06
1.7892e-06
1.7856e-06
1.78544e-06
1.78548e-06
1.78548e-06
1.78544e-06
1.7856e-06
1.78993e-06
1.79159e-06
1.79158e-06
1.78916e-06
1.7856e-06
1.78544e-06
1.78548e-06
1.78548e-06
1.78544e-06
1.7856e-06
1.78988e-06
1.78988e-06
1.78928e-06
1.78565e-06
1.7854e-06
1.78544e-06
1.78544e-06
1.78541e-06
1.78566e-06
1.78993e-06
1.79193e-06
1.79136e-06
1.78908e-06
1.78566e-06
1.7856e-06
1.7856e-06
1.78565e-06
1.78955e-06
1.78985e-06
1.79184e-06
1.79162e-06
1.78974e-06
1.78988e-06
1.78993e-06
1.78988e-06
1.78993e-06
1.78985e-06
1.79173e-06
1.79184e-06
1.79159e-06
1.78988e-06
1.79192e-06
1.79184e-06
1.7728e-06
1.77263e-06
1.77249e-06
1.77034e-06
1.77023e-06
1.77015e-06
1.77034e-06
1.77243e-06
1.77271e-06
1.7725e-06
1.76961e-06
1.76666e-06
1.76663e-06
1.76663e-06
1.76666e-06
1.77007e-06
1.77084e-06
1.77034e-06
1.76666e-06
1.76654e-06
1.76655e-06
1.76655e-06
1.76654e-06
1.76666e-06
1.77094e-06
1.77289e-06
1.77281e-06
1.77024e-06
1.76663e-06
1.76655e-06
1.76656e-06
1.76656e-06
1.76655e-06
1.76663e-06
1.771e-06
1.77264e-06
1.77264e-06
1.77015e-06
1.76663e-06
1.76655e-06
1.76656e-06
1.76656e-06
1.76655e-06
1.76663e-06
1.77097e-06
1.77096e-06
1.77034e-06
1.76666e-06
1.76654e-06
1.76655e-06
1.76655e-06
1.76654e-06
1.76666e-06
1.77098e-06
1.77296e-06
1.77244e-06
1.77007e-06
1.76666e-06
1.76663e-06
1.76663e-06
1.76666e-06
1.77072e-06
1.77095e-06
1.77292e-06
1.77271e-06
1.77084e-06
1.77094e-06
1.771e-06
1.77097e-06
1.77098e-06
1.77095e-06
1.77294e-06
1.77289e-06
1.77264e-06
1.77096e-06
1.77296e-06
1.77292e-06
1.75385e-06
1.75368e-06
1.75351e-06
1.75136e-06
1.75124e-06
1.75115e-06
1.75135e-06
1.75346e-06
1.75373e-06
1.75352e-06
1.75064e-06
1.74766e-06
1.74765e-06
1.74765e-06
1.74766e-06
1.75105e-06
1.75187e-06
1.75136e-06
1.74766e-06
1.74762e-06
1.74763e-06
1.74763e-06
1.74762e-06
1.74766e-06
1.75197e-06
1.75392e-06
1.75385e-06
1.75124e-06
1.74765e-06
1.74763e-06
1.74763e-06
1.74763e-06
1.74763e-06
1.74765e-06
1.75205e-06
1.7537e-06
1.75368e-06
1.75115e-06
1.74765e-06
1.74763e-06
1.74763e-06
1.74763e-06
1.74763e-06
1.74765e-06
1.75203e-06
1.75202e-06
1.75135e-06
1.74766e-06
1.74762e-06
1.74763e-06
1.74763e-06
1.74762e-06
1.74766e-06
1.75202e-06
1.75402e-06
1.75346e-06
1.75105e-06
1.74766e-06
1.74765e-06
1.74765e-06
1.74766e-06
1.75179e-06
1.752e-06
1.75395e-06
1.75373e-06
1.75187e-06
1.75197e-06
1.75205e-06
1.75203e-06
1.75202e-06
1.752e-06
1.75394e-06
1.75393e-06
1.7537e-06
1.75202e-06
1.75402e-06
1.75395e-06
1.73487e-06
1.7347e-06
1.73453e-06
1.73237e-06
1.73226e-06
1.73217e-06
1.73236e-06
1.73448e-06
1.73474e-06
1.73453e-06
1.73166e-06
1.72867e-06
1.72867e-06
1.72867e-06
1.72867e-06
1.73205e-06
1.73288e-06
1.73237e-06
1.72867e-06
1.72866e-06
1.72866e-06
1.72866e-06
1.72866e-06
1.72867e-06
1.73298e-06
1.73494e-06
1.73487e-06
1.73226e-06
1.72867e-06
1.72866e-06
1.72866e-06
1.72866e-06
1.72866e-06
1.72867e-06
1.73307e-06
1.73473e-06
1.7347e-06
1.73217e-06
1.72867e-06
1.72866e-06
1.72866e-06
1.72866e-06
1.72866e-06
1.72867e-06
1.73305e-06
1.73305e-06
1.73236e-06
1.72867e-06
1.72866e-06
1.72866e-06
1.72866e-06
1.72866e-06
1.72867e-06
1.73304e-06
1.73505e-06
1.73447e-06
1.73205e-06
1.72867e-06
1.72867e-06
1.72867e-06
1.72867e-06
1.73282e-06
1.73303e-06
1.73497e-06
1.73474e-06
1.73288e-06
1.73298e-06
1.73307e-06
1.73305e-06
1.73304e-06
1.73303e-06
1.73496e-06
1.73494e-06
1.73473e-06
1.73305e-06
1.73505e-06
1.73497e-06
1.71589e-06
1.71572e-06
1.71555e-06
1.71339e-06
1.71328e-06
1.71319e-06
1.71338e-06
1.71549e-06
1.71576e-06
1.71554e-06
1.71268e-06
1.70969e-06
1.70969e-06
1.70969e-06
1.70969e-06
1.71307e-06
1.7139e-06
1.71339e-06
1.70969e-06
1.70969e-06
1.70969e-06
1.70969e-06
1.70969e-06
1.70969e-06
1.714e-06
1.71596e-06
1.71589e-06
1.71328e-06
1.70969e-06
1.70969e-06
1.70969e-06
1.70969e-06
1.70969e-06
1.70969e-06
1.71409e-06
1.71575e-06
1.71572e-06
1.71319e-06
1.70969e-06
1.70969e-06
1.70969e-06
1.70969e-06
1.70969e-06
1.70969e-06
1.71407e-06
1.71407e-06
1.71338e-06
1.70969e-06
1.70969e-06
1.70969e-06
1.70969e-06
1.70969e-06
1.70969e-06
1.71407e-06
1.71607e-06
1.7155e-06
1.71307e-06
1.70969e-06
1.70969e-06
1.70969e-06
1.70969e-06
1.71384e-06
1.71405e-06
1.71599e-06
1.71576e-06
1.7139e-06
1.714e-06
1.71409e-06
1.71407e-06
1.71407e-06
1.71405e-06
1.71598e-06
1.71596e-06
1.71575e-06
1.71407e-06
1.71607e-06
1.71599e-06
1.69691e-06
1.69674e-06
1.69657e-06
1.69441e-06
1.6943e-06
1.69421e-06
1.6944e-06
1.69652e-06
1.69678e-06
1.69656e-06
1.6937e-06
1.69071e-06
1.69071e-06
1.69071e-06
1.69071e-06
1.69409e-06
1.69492e-06
1.69441e-06
1.69071e-06
1.69071e-06
1.69071e-06
1.69071e-06
1.69071e-06
1.69071e-06
1.69502e-06
1.69698e-06
1.69691e-06
1.6943e-06
1.69071e-06
1.69071e-06
1.69071e-06
1.69071e-06
1.69071e-06
1.69071e-06
1.69511e-06
1.69677e-06
1.69674e-06
1.69421e-06
1.69071e-06
1.69071e-06
1.69071e-06
1.69071e-06
1.69071e-06
1.69071e-06
1.6951e-06
1.69509e-06
1.6944e-06
1.69071e-06
1.69071e-06
1.69071e-06
1.69071e-06
1.69071e-06
1.69071e-06
1.69509e-06
1.69709e-06
1.69652e-06
1.69409e-06
1.69071e-06
1.69071e-06
1.69071e-06
1.69071e-06
1.69486e-06
1.69507e-06
1.69701e-06
1.69678e-06
1.69492e-06
1.69502e-06
1.69511e-06
1.69509e-06
1.69509e-06
1.69507e-06
1.697e-06
1.69698e-06
1.69677e-06
1.69509e-06
1.69709e-06
1.69701e-06
1.67793e-06
1.67776e-06
1.67759e-06
1.67543e-06
1.67532e-06
1.67523e-06
1.67542e-06
1.67754e-06
1.6778e-06
1.67759e-06
1.67472e-06
1.67173e-06
1.67173e-06
1.67173e-06
1.67173e-06
1.67511e-06
1.67594e-06
1.67543e-06
1.67173e-06
1.67173e-06
1.67173e-06
1.67173e-06
1.67173e-06
1.67173e-06
1.67604e-06
1.67801e-06
1.67793e-06
1.67532e-06
1.67173e-06
1.67173e-06
1.67173e-06
1.67173e-06
1.67173e-06
1.67173e-06
1.67614e-06
1.6778e-06
1.67776e-06
1.67523e-06
1.67173e-06
1.67173e-06
1.67173e-06
1.67173e-06
1.67173e-06
1.67173e-06
1.67612e-06
1.67611e-06
1.67542e-06
1.67173e-06
1.67173e-06
1.67173e-06
1.67173e-06
1.67173e-06
1.67173e-06
1.67611e-06
1.67811e-06
1.67754e-06
1.67511e-06
1.67173e-06
1.67173e-06
1.67173e-06
1.67173e-06
1.67588e-06
1.67609e-06
1.67803e-06
1.6778e-06
1.67594e-06
1.67604e-06
1.67614e-06
1.67612e-06
1.67611e-06
1.67609e-06
1.67802e-06
1.678e-06
1.6778e-06
1.67611e-06
1.67811e-06
1.67803e-06
1.65895e-06
1.65878e-06
1.65861e-06
1.65645e-06
1.65634e-06
1.65625e-06
1.65644e-06
1.65856e-06
1.65882e-06
1.65861e-06
1.65574e-06
1.65275e-06
1.65275e-06
1.65275e-06
1.65275e-06
1.65613e-06
1.65696e-06
1.65645e-06
1.65275e-06
1.65275e-06
1.65275e-06
1.65275e-06
1.65275e-06
1.65275e-06
1.65706e-06
1.65903e-06
1.65895e-06
1.65634e-06
1.65275e-06
1.65275e-06
1.65275e-06
1.65275e-06
1.65275e-06
1.65275e-06
1.65716e-06
1.65882e-06
1.65878e-06
1.65625e-06
1.65275e-06
1.65275e-06
1.65275e-06
1.65275e-06
1.65275e-06
1.65275e-06
1.65714e-06
1.65713e-06
1.65644e-06
1.65275e-06
1.65275e-06
1.65275e-06
1.65275e-06
1.65275e-06
1.65275e-06
1.65713e-06
1.65914e-06
1.65856e-06
1.65613e-06
1.65275e-06
1.65275e-06
1.65275e-06
1.65275e-06
1.6569e-06
1.65711e-06
1.65905e-06
1.65882e-06
1.65696e-06
1.65706e-06
1.65716e-06
1.65714e-06
1.65713e-06
1.65711e-06
1.65904e-06
1.65903e-06
1.65882e-06
1.65713e-06
1.65913e-06
1.65905e-06
1.63997e-06
1.63981e-06
1.63963e-06
1.63747e-06
1.63736e-06
1.63727e-06
1.63746e-06
1.63958e-06
1.63984e-06
1.63963e-06
1.63676e-06
1.63377e-06
1.63377e-06
1.63377e-06
1.63377e-06
1.63715e-06
1.63798e-06
1.63747e-06
1.63377e-06
1.63377e-06
1.63377e-06
1.63377e-06
1.63377e-06
1.63377e-06
1.63808e-06
1.64005e-06
1.63997e-06
1.63736e-06
1.63377e-06
1.63377e-06
1.63377e-06
1.63377e-06
1.63377e-06
1.63377e-06
1.63818e-06
1.63984e-06
1.63981e-06
1.63727e-06
1.63377e-06
1.63377e-06
1.63377e-06
1.63377e-06
1.63377e-06
1.63377e-06
1.63816e-06
1.63815e-06
1.63746e-06
1.63377e-06
1.63377e-06
1.63377e-06
1.63377e-06
1.63377e-06
1.63377e-06
1.63815e-06
1.64016e-06
1.63958e-06
1.63715e-06
1.63377e-06
1.63377e-06
1.63377e-06
1.63377e-06
1.63793e-06
1.63813e-06
1.64007e-06
1.63984e-06
1.63798e-06
1.63808e-06
1.63818e-06
1.63816e-06
1.63815e-06
1.63813e-06
1.64006e-06
1.64005e-06
1.63984e-06
1.63815e-06
1.64016e-06
1.64007e-06
1.621e-06
1.62083e-06
1.62065e-06
1.61849e-06
1.61838e-06
1.6183e-06
1.61848e-06
1.6206e-06
1.62086e-06
1.62065e-06
1.61778e-06
1.61479e-06
1.61479e-06
1.61479e-06
1.61479e-06
1.61817e-06
1.619e-06
1.61849e-06
1.61479e-06
1.61479e-06
1.61479e-06
1.61479e-06
1.61479e-06
1.61479e-06
1.6191e-06
1.62107e-06
1.621e-06
1.61838e-06
1.61479e-06
1.61479e-06
1.61479e-06
1.61479e-06
1.61479e-06
1.61479e-06
1.6192e-06
1.62086e-06
1.62083e-06
1.6183e-06
1.61479e-06
1.61479e-06
1.61479e-06
1.61479e-06
1.61479e-06
1.61479e-06
1.61918e-06
1.61917e-06
1.61848e-06
1.61479e-06
1.61479e-06
1.61479e-06
1.61479e-06
1.61479e-06
1.61479e-06
1.61917e-06
1.62118e-06
1.6206e-06
1.61817e-06
1.61479e-06
1.61479e-06
1.61479e-06
1.61479e-06
1.61895e-06
1.61916e-06
1.62109e-06
1.62086e-06
1.619e-06
1.6191e-06
1.6192e-06
1.61918e-06
1.61917e-06
1.61915e-06
1.62108e-06
1.62107e-06
1.62086e-06
1.61918e-06
1.62118e-06
1.62109e-06
1.60202e-06
1.60185e-06
1.60167e-06
1.59952e-06
1.5994e-06
1.59932e-06
1.5995e-06
1.60162e-06
1.60189e-06
1.60167e-06
1.59881e-06
1.59582e-06
1.59582e-06
1.59582e-06
1.59582e-06
1.59919e-06
1.60002e-06
1.59952e-06
1.59582e-06
1.59582e-06
1.59582e-06
1.59582e-06
1.59582e-06
1.59582e-06
1.60013e-06
1.60209e-06
1.60202e-06
1.5994e-06
1.59582e-06
1.59582e-06
1.59582e-06
1.59582e-06
1.59582e-06
1.59582e-06
1.60022e-06
1.60188e-06
1.60185e-06
1.59932e-06
1.59582e-06
1.59582e-06
1.59582e-06
1.59582e-06
1.59582e-06
1.59582e-06
1.6002e-06
1.6002e-06
1.5995e-06
1.59582e-06
1.59582e-06
1.59582e-06
1.59582e-06
1.59582e-06
1.59582e-06
1.60019e-06
1.6022e-06
1.60162e-06
1.59919e-06
1.59582e-06
1.59582e-06
1.59582e-06
1.59582e-06
1.59997e-06
1.60018e-06
1.60211e-06
1.60189e-06
1.60002e-06
1.60013e-06
1.60022e-06
1.6002e-06
1.60019e-06
1.60018e-06
1.6021e-06
1.60209e-06
1.60188e-06
1.6002e-06
1.6022e-06
1.60211e-06
1.58304e-06
1.58287e-06
1.58269e-06
1.58054e-06
1.58043e-06
1.58034e-06
1.58053e-06
1.58265e-06
1.58291e-06
1.58269e-06
1.57983e-06
1.57684e-06
1.57684e-06
1.57684e-06
1.57684e-06
1.58022e-06
1.58105e-06
1.58054e-06
1.57684e-06
1.57684e-06
1.57684e-06
1.57684e-06
1.57684e-06
1.57684e-06
1.58115e-06
1.58311e-06
1.58304e-06
1.58043e-06
1.57684e-06
1.57684e-06
1.57684e-06
1.57684e-06
1.57684e-06
1.57684e-06
1.58124e-06
1.5829e-06
1.58287e-06
1.58034e-06
1.57684e-06
1.57684e-06
1.57684e-06
1.57684e-06
1.57684e-06
1.57684e-06
1.58123e-06
1.58122e-06
1.58053e-06
1.57684e-06
1.57684e-06
1.57684e-06
1.57684e-06
1.57684e-06
1.57684e-06
1.58122e-06
1.58322e-06
1.58265e-06
1.58022e-06
1.57684e-06
1.57684e-06
1.57684e-06
1.57684e-06
1.58099e-06
1.5812e-06
1.58314e-06
1.58291e-06
1.58105e-06
1.58115e-06
1.58124e-06
1.58122e-06
1.58122e-06
1.5812e-06
1.58313e-06
1.58311e-06
1.5829e-06
1.58122e-06
1.58322e-06
1.58314e-06
1.56406e-06
1.56389e-06
1.56372e-06
1.56156e-06
1.56145e-06
1.56136e-06
1.56155e-06
1.56367e-06
1.56393e-06
1.56372e-06
1.56085e-06
1.55786e-06
1.55786e-06
1.55786e-06
1.55786e-06
1.56124e-06
1.56207e-06
1.56156e-06
1.55786e-06
1.55786e-06
1.55786e-06
1.55786e-06
1.55786e-06
1.55786e-06
1.56217e-06
1.56414e-06
1.56406e-06
1.56145e-06
1.55786e-06
1.55786e-06
1.55786e-06
1.55786e-06
1.55786e-06
1.55786e-06
1.56227e-06
1.56393e-06
1.56389e-06
1.56136e-06
1.55786e-06
1.55786e-06
1.55786e-06
1.55786e-06
1.55786e-06
1.55786e-06
1.56225e-06
1.56224e-06
1.56155e-06
1.55786e-06
1.55786e-06
1.55786e-06
1.55786e-06
1.55786e-06
1.55786e-06
1.56224e-06
1.56425e-06
1.56367e-06
1.56124e-06
1.55786e-06
1.55786e-06
1.55786e-06
1.55786e-06
1.56201e-06
1.56222e-06
1.56416e-06
1.56393e-06
1.56207e-06
1.56217e-06
1.56227e-06
1.56225e-06
1.56224e-06
1.56222e-06
1.56415e-06
1.56414e-06
1.56393e-06
1.56224e-06
1.56425e-06
1.56416e-06
1.54509e-06
1.54492e-06
1.54474e-06
1.54259e-06
1.54247e-06
1.54239e-06
1.54257e-06
1.54469e-06
1.54495e-06
1.54474e-06
1.54188e-06
1.53889e-06
1.53889e-06
1.53889e-06
1.53889e-06
1.54226e-06
1.54309e-06
1.54258e-06
1.53889e-06
1.53889e-06
1.53889e-06
1.53889e-06
1.53889e-06
1.53889e-06
1.5432e-06
1.54516e-06
1.54509e-06
1.54247e-06
1.53889e-06
1.53889e-06
1.53889e-06
1.53889e-06
1.53889e-06
1.53889e-06
1.54329e-06
1.54495e-06
1.54492e-06
1.54239e-06
1.53889e-06
1.53889e-06
1.53889e-06
1.53889e-06
1.53889e-06
1.53889e-06
1.54327e-06
1.54327e-06
1.54257e-06
1.53889e-06
1.53889e-06
1.53889e-06
1.53889e-06
1.53889e-06
1.53889e-06
1.54326e-06
1.54527e-06
1.54469e-06
1.54226e-06
1.53889e-06
1.53889e-06
1.53889e-06
1.53889e-06
1.54304e-06
1.54325e-06
1.54518e-06
1.54495e-06
1.54309e-06
1.5432e-06
1.54329e-06
1.54327e-06
1.54326e-06
1.54325e-06
1.54517e-06
1.54516e-06
1.54495e-06
1.54327e-06
1.54527e-06
1.54518e-06
1.52611e-06
1.52594e-06
1.52577e-06
1.52361e-06
1.5235e-06
1.52341e-06
1.5236e-06
1.52572e-06
1.52598e-06
1.52577e-06
1.5229e-06
1.51991e-06
1.51991e-06
1.51991e-06
1.51991e-06
1.52329e-06
1.52412e-06
1.52361e-06
1.51991e-06
1.51991e-06
1.51991e-06
1.51991e-06
1.51991e-06
1.51991e-06
1.52422e-06
1.52619e-06
1.52611e-06
1.5235e-06
1.51991e-06
1.51991e-06
1.51991e-06
1.51991e-06
1.51991e-06
1.51991e-06
1.52432e-06
1.52598e-06
1.52594e-06
1.52341e-06
1.51991e-06
1.51991e-06
1.51991e-06
1.51991e-06
1.51991e-06
1.51991e-06
1.5243e-06
1.52429e-06
1.5236e-06
1.51991e-06
1.51991e-06
1.51991e-06
1.51991e-06
1.51991e-06
1.51991e-06
1.52429e-06
1.52629e-06
1.52572e-06
1.52329e-06
1.51991e-06
1.51991e-06
1.51991e-06
1.51991e-06
1.52406e-06
1.52427e-06
1.52621e-06
1.52598e-06
1.52412e-06
1.52422e-06
1.52432e-06
1.5243e-06
1.52429e-06
1.52427e-06
1.5262e-06
1.52618e-06
1.52598e-06
1.52429e-06
1.52629e-06
1.52621e-06
1.50714e-06
1.50697e-06
1.50679e-06
1.50464e-06
1.50452e-06
1.50444e-06
1.50462e-06
1.50674e-06
1.507e-06
1.50679e-06
1.50393e-06
1.50094e-06
1.50094e-06
1.50094e-06
1.50094e-06
1.50431e-06
1.50514e-06
1.50463e-06
1.50094e-06
1.50094e-06
1.50094e-06
1.50094e-06
1.50094e-06
1.50094e-06
1.50525e-06
1.50721e-06
1.50714e-06
1.50452e-06
1.50094e-06
1.50094e-06
1.50094e-06
1.50094e-06
1.50094e-06
1.50094e-06
1.50534e-06
1.507e-06
1.50697e-06
1.50444e-06
1.50094e-06
1.50094e-06
1.50094e-06
1.50094e-06
1.50094e-06
1.50094e-06
1.50532e-06
1.50532e-06
1.50462e-06
1.50094e-06
1.50094e-06
1.50094e-06
1.50094e-06
1.50094e-06
1.50094e-06
1.50531e-06
1.50732e-06
1.50674e-06
1.50431e-06
1.50094e-06
1.50094e-06
1.50094e-06
1.50094e-06
1.50509e-06
1.5053e-06
1.50723e-06
1.507e-06
1.50514e-06
1.50525e-06
1.50534e-06
1.50532e-06
1.50531e-06
1.5053e-06
1.50722e-06
1.50721e-06
1.507e-06
1.50532e-06
1.50732e-06
1.50723e-06
1.48816e-06
1.48799e-06
1.48782e-06
1.48566e-06
1.48555e-06
1.48546e-06
1.48565e-06
1.48777e-06
1.48803e-06
1.48782e-06
1.48495e-06
1.48196e-06
1.48196e-06
1.48196e-06
1.48196e-06
1.48534e-06
1.48617e-06
1.48566e-06
1.48196e-06
1.48196e-06
1.48196e-06
1.48196e-06
1.48196e-06
1.48196e-06
1.48627e-06
1.48824e-06
1.48816e-06
1.48555e-06
1.48196e-06
1.48196e-06
1.48196e-06
1.48196e-06
1.48196e-06
1.48196e-06
1.48637e-06
1.48803e-06
1.48799e-06
1.48546e-06
1.48196e-06
1.48196e-06
1.48196e-06
1.48196e-06
1.48196e-06
1.48196e-06
1.48635e-06
1.48634e-06
1.48565e-06
1.48196e-06
1.48196e-06
1.48196e-06
1.48196e-06
1.48196e-06
1.48196e-06
1.48634e-06
1.48834e-06
1.48777e-06
1.48534e-06
1.48196e-06
1.48196e-06
1.48196e-06
1.48196e-06
1.48611e-06
1.48632e-06
1.48826e-06
1.48803e-06
1.48617e-06
1.48627e-06
1.48636e-06
1.48635e-06
1.48634e-06
1.48632e-06
1.48825e-06
1.48823e-06
1.48803e-06
1.48634e-06
1.48834e-06
1.48826e-06
1.46919e-06
1.46902e-06
1.46884e-06
1.46669e-06
1.46657e-06
1.46649e-06
1.46667e-06
1.46879e-06
1.46905e-06
1.46884e-06
1.46598e-06
1.46299e-06
1.46299e-06
1.46299e-06
1.46299e-06
1.46636e-06
1.46719e-06
1.46668e-06
1.46299e-06
1.46299e-06
1.46299e-06
1.46299e-06
1.46299e-06
1.46299e-06
1.4673e-06
1.46926e-06
1.46919e-06
1.46657e-06
1.46299e-06
1.46299e-06
1.46299e-06
1.46299e-06
1.46299e-06
1.46299e-06
1.46739e-06
1.46905e-06
1.46902e-06
1.46649e-06
1.46299e-06
1.46299e-06
1.46299e-06
1.46299e-06
1.46299e-06
1.46299e-06
1.46737e-06
1.46737e-06
1.46667e-06
1.46299e-06
1.46299e-06
1.46299e-06
1.46299e-06
1.46299e-06
1.46299e-06
1.46736e-06
1.46937e-06
1.46879e-06
1.46636e-06
1.46299e-06
1.46299e-06
1.46299e-06
1.46299e-06
1.46714e-06
1.46735e-06
1.46928e-06
1.46905e-06
1.46719e-06
1.4673e-06
1.46739e-06
1.46737e-06
1.46736e-06
1.46735e-06
1.46927e-06
1.46926e-06
1.46905e-06
1.46737e-06
1.46937e-06
1.46928e-06
1.45021e-06
1.45004e-06
1.44986e-06
1.44771e-06
1.4476e-06
1.44751e-06
1.4477e-06
1.44981e-06
1.45008e-06
1.44987e-06
1.447e-06
1.44401e-06
1.44401e-06
1.44401e-06
1.44401e-06
1.44739e-06
1.44822e-06
1.44771e-06
1.44401e-06
1.44401e-06
1.44401e-06
1.44401e-06
1.44401e-06
1.44401e-06
1.44832e-06
1.45028e-06
1.45021e-06
1.4476e-06
1.44401e-06
1.44401e-06
1.44401e-06
1.44401e-06
1.44401e-06
1.44401e-06
1.44842e-06
1.45008e-06
1.45004e-06
1.44751e-06
1.44401e-06
1.44401e-06
1.44401e-06
1.44401e-06
1.44401e-06
1.44401e-06
1.4484e-06
1.44839e-06
1.4477e-06
1.44401e-06
1.44401e-06
1.44401e-06
1.44401e-06
1.44401e-06
1.44401e-06
1.44839e-06
1.45039e-06
1.44982e-06
1.44739e-06
1.44401e-06
1.44401e-06
1.44401e-06
1.44401e-06
1.44816e-06
1.44837e-06
1.45031e-06
1.45008e-06
1.44822e-06
1.44832e-06
1.44841e-06
1.4484e-06
1.44839e-06
1.44837e-06
1.4503e-06
1.45028e-06
1.45008e-06
1.44839e-06
1.45039e-06
1.45031e-06
1.43124e-06
1.43107e-06
1.43089e-06
1.42873e-06
1.42862e-06
1.42854e-06
1.42872e-06
1.43084e-06
1.4311e-06
1.43089e-06
1.42802e-06
1.42503e-06
1.42503e-06
1.42503e-06
1.42503e-06
1.42841e-06
1.42924e-06
1.42873e-06
1.42503e-06
1.42503e-06
1.42503e-06
1.42503e-06
1.42503e-06
1.42503e-06
1.42934e-06
1.43131e-06
1.43124e-06
1.42862e-06
1.42503e-06
1.42503e-06
1.42503e-06
1.42503e-06
1.42503e-06
1.42503e-06
1.42944e-06
1.4311e-06
1.43107e-06
1.42854e-06
1.42503e-06
1.42503e-06
1.42503e-06
1.42503e-06
1.42503e-06
1.42503e-06
1.42942e-06
1.42941e-06
1.42872e-06
1.42503e-06
1.42503e-06
1.42503e-06
1.42503e-06
1.42503e-06
1.42503e-06
1.42941e-06
1.43142e-06
1.43084e-06
1.42841e-06
1.42503e-06
1.42503e-06
1.42503e-06
1.42503e-06
1.42919e-06
1.4294e-06
1.43133e-06
1.4311e-06
1.42924e-06
1.42934e-06
1.42944e-06
1.42942e-06
1.42941e-06
1.4294e-06
1.43132e-06
1.43131e-06
1.4311e-06
1.42941e-06
1.43142e-06
1.43133e-06
1.41226e-06
1.41209e-06
1.41191e-06
1.40976e-06
1.40965e-06
1.40956e-06
1.40975e-06
1.41186e-06
1.41213e-06
1.41192e-06
1.40905e-06
1.40606e-06
1.40606e-06
1.40606e-06
1.40606e-06
1.40944e-06
1.41027e-06
1.40976e-06
1.40606e-06
1.40606e-06
1.40606e-06
1.40606e-06
1.40606e-06
1.40606e-06
1.41037e-06
1.41234e-06
1.41226e-06
1.40965e-06
1.40606e-06
1.40606e-06
1.40606e-06
1.40606e-06
1.40606e-06
1.40606e-06
1.41047e-06
1.41213e-06
1.41209e-06
1.40956e-06
1.40606e-06
1.40606e-06
1.40606e-06
1.40606e-06
1.40606e-06
1.40606e-06
1.41045e-06
1.41044e-06
1.40975e-06
1.40606e-06
1.40606e-06
1.40606e-06
1.40606e-06
1.40606e-06
1.40606e-06
1.41044e-06
1.41244e-06
1.41187e-06
1.40944e-06
1.40606e-06
1.40606e-06
1.40606e-06
1.40606e-06
1.41021e-06
1.41042e-06
1.41236e-06
1.41213e-06
1.41027e-06
1.41037e-06
1.41047e-06
1.41045e-06
1.41044e-06
1.41042e-06
1.41235e-06
1.41233e-06
1.41213e-06
1.41044e-06
1.41244e-06
1.41236e-06
1.39329e-06
1.39312e-06
1.39294e-06
1.39079e-06
1.39067e-06
1.39059e-06
1.39077e-06
1.39289e-06
1.39315e-06
1.39294e-06
1.39008e-06
1.38709e-06
1.38709e-06
1.38709e-06
1.38709e-06
1.39046e-06
1.39129e-06
1.39079e-06
1.38709e-06
1.38709e-06
1.38709e-06
1.38709e-06
1.38709e-06
1.38709e-06
1.3914e-06
1.39336e-06
1.39329e-06
1.39067e-06
1.38709e-06
1.38709e-06
1.38709e-06
1.38709e-06
1.38709e-06
1.38709e-06
1.39149e-06
1.39315e-06
1.39312e-06
1.39059e-06
1.38709e-06
1.38709e-06
1.38709e-06
1.38709e-06
1.38709e-06
1.38709e-06
1.39147e-06
1.39147e-06
1.39077e-06
1.38709e-06
1.38709e-06
1.38709e-06
1.38709e-06
1.38709e-06
1.38709e-06
1.39146e-06
1.39347e-06
1.39289e-06
1.39046e-06
1.38709e-06
1.38709e-06
1.38709e-06
1.38709e-06
1.39124e-06
1.39145e-06
1.39338e-06
1.39316e-06
1.3913e-06
1.3914e-06
1.39149e-06
1.39147e-06
1.39146e-06
1.39145e-06
1.39337e-06
1.39336e-06
1.39315e-06
1.39147e-06
1.39347e-06
1.39338e-06
1.37431e-06
1.37414e-06
1.37397e-06
1.37181e-06
1.3717e-06
1.37161e-06
1.3718e-06
1.37392e-06
1.37418e-06
1.37397e-06
1.3711e-06
1.36811e-06
1.36811e-06
1.36811e-06
1.36811e-06
1.37149e-06
1.37232e-06
1.37181e-06
1.36811e-06
1.36811e-06
1.36811e-06
1.36811e-06
1.36811e-06
1.36811e-06
1.37242e-06
1.37439e-06
1.37431e-06
1.3717e-06
1.36811e-06
1.36811e-06
1.36811e-06
1.36811e-06
1.36811e-06
1.36811e-06
1.37252e-06
1.37418e-06
1.37414e-06
1.37161e-06
1.36811e-06
1.36811e-06
1.36811e-06
1.36811e-06
1.36811e-06
1.36811e-06
1.3725e-06
1.37249e-06
1.3718e-06
1.36811e-06
1.36811e-06
1.36811e-06
1.36811e-06
1.36811e-06
1.36811e-06
1.37249e-06
1.3745e-06
1.37392e-06
1.37149e-06
1.36811e-06
1.36811e-06
1.36811e-06
1.36811e-06
1.37227e-06
1.37247e-06
1.37441e-06
1.37418e-06
1.37232e-06
1.37242e-06
1.37252e-06
1.3725e-06
1.37249e-06
1.37247e-06
1.3744e-06
1.37439e-06
1.37418e-06
1.37249e-06
1.3745e-06
1.37441e-06
1.35534e-06
1.35517e-06
1.35499e-06
1.35284e-06
1.35273e-06
1.35264e-06
1.35283e-06
1.35494e-06
1.35521e-06
1.35499e-06
1.35213e-06
1.34914e-06
1.34914e-06
1.34914e-06
1.34914e-06
1.35252e-06
1.35335e-06
1.35284e-06
1.34914e-06
1.34914e-06
1.34914e-06
1.34914e-06
1.34914e-06
1.34914e-06
1.35345e-06
1.35541e-06
1.35534e-06
1.35273e-06
1.34914e-06
1.34914e-06
1.34914e-06
1.34914e-06
1.34914e-06
1.34914e-06
1.35355e-06
1.3552e-06
1.35517e-06
1.35264e-06
1.34914e-06
1.34914e-06
1.34914e-06
1.34914e-06
1.34914e-06
1.34914e-06
1.35353e-06
1.35352e-06
1.35283e-06
1.34914e-06
1.34914e-06
1.34914e-06
1.34914e-06
1.34914e-06
1.34914e-06
1.35352e-06
1.35552e-06
1.35495e-06
1.35252e-06
1.34914e-06
1.34914e-06
1.34914e-06
1.34914e-06
1.35329e-06
1.3535e-06
1.35544e-06
1.35521e-06
1.35335e-06
1.35345e-06
1.35354e-06
1.35353e-06
1.35352e-06
1.3535e-06
1.35543e-06
1.35541e-06
1.3552e-06
1.35352e-06
1.35552e-06
1.35544e-06
1.33637e-06
1.3362e-06
1.33602e-06
1.33387e-06
1.33375e-06
1.33367e-06
1.33385e-06
1.33597e-06
1.33623e-06
1.33602e-06
1.33316e-06
1.33017e-06
1.33017e-06
1.33017e-06
1.33017e-06
1.33354e-06
1.33437e-06
1.33387e-06
1.33017e-06
1.33017e-06
1.33017e-06
1.33017e-06
1.33017e-06
1.33017e-06
1.33448e-06
1.33644e-06
1.33637e-06
1.33375e-06
1.33017e-06
1.33017e-06
1.33017e-06
1.33017e-06
1.33017e-06
1.33017e-06
1.33457e-06
1.33623e-06
1.3362e-06
1.33367e-06
1.33017e-06
1.33017e-06
1.33017e-06
1.33017e-06
1.33017e-06
1.33017e-06
1.33455e-06
1.33455e-06
1.33385e-06
1.33017e-06
1.33017e-06
1.33017e-06
1.33017e-06
1.33017e-06
1.33017e-06
1.33454e-06
1.33655e-06
1.33597e-06
1.33354e-06
1.33017e-06
1.33017e-06
1.33017e-06
1.33017e-06
1.33432e-06
1.33453e-06
1.33646e-06
1.33623e-06
1.33437e-06
1.33448e-06
1.33457e-06
1.33455e-06
1.33454e-06
1.33453e-06
1.33645e-06
1.33644e-06
1.33623e-06
1.33455e-06
1.33655e-06
1.33646e-06
1.31739e-06
1.31722e-06
1.31705e-06
1.31489e-06
1.31478e-06
1.31469e-06
1.31488e-06
1.317e-06
1.31726e-06
1.31705e-06
1.31418e-06
1.31119e-06
1.31119e-06
1.31119e-06
1.31119e-06
1.31457e-06
1.3154e-06
1.31489e-06
1.31119e-06
1.31119e-06
1.31119e-06
1.31119e-06
1.31119e-06
1.31119e-06
1.3155e-06
1.31747e-06
1.31739e-06
1.31478e-06
1.31119e-06
1.31119e-06
1.31119e-06
1.31119e-06
1.31119e-06
1.31119e-06
1.3156e-06
1.31726e-06
1.31722e-06
1.31469e-06
1.31119e-06
1.31119e-06
1.31119e-06
1.31119e-06
1.31119e-06
1.31119e-06
1.31558e-06
1.31557e-06
1.31488e-06
1.31119e-06
1.31119e-06
1.31119e-06
1.31119e-06
1.31119e-06
1.31119e-06
1.31557e-06
1.31758e-06
1.317e-06
1.31457e-06
1.31119e-06
1.31119e-06
1.31119e-06
1.31119e-06
1.31535e-06
1.31555e-06
1.31749e-06
1.31726e-06
1.3154e-06
1.3155e-06
1.3156e-06
1.31558e-06
1.31557e-06
1.31555e-06
1.31748e-06
1.31747e-06
1.31726e-06
1.31557e-06
1.31758e-06
1.31749e-06
1.29842e-06
1.29825e-06
1.29807e-06
1.29592e-06
1.2958e-06
1.29572e-06
1.2959e-06
1.29802e-06
1.29829e-06
1.29807e-06
1.29521e-06
1.29222e-06
1.29222e-06
1.29222e-06
1.29222e-06
1.29559e-06
1.29643e-06
1.29592e-06
1.29222e-06
1.29222e-06
1.29222e-06
1.29222e-06
1.29222e-06
1.29222e-06
1.29653e-06
1.29849e-06
1.29842e-06
1.2958e-06
1.29222e-06
1.29222e-06
1.29222e-06
1.29222e-06
1.29222e-06
1.29222e-06
1.29662e-06
1.29828e-06
1.29825e-06
1.29572e-06
1.29222e-06
1.29222e-06
1.29222e-06
1.29222e-06
1.29222e-06
1.29222e-06
1.29661e-06
1.2966e-06
1.2959e-06
1.29222e-06
1.29222e-06
1.29222e-06
1.29222e-06
1.29222e-06
1.29222e-06
1.2966e-06
1.2986e-06
1.29802e-06
1.2956e-06
1.29222e-06
1.29222e-06
1.29222e-06
1.29222e-06
1.29637e-06
1.29658e-06
1.29852e-06
1.29829e-06
1.29643e-06
1.29653e-06
1.29662e-06
1.2966e-06
1.2966e-06
1.29658e-06
1.2985e-06
1.29849e-06
1.29828e-06
1.2966e-06
1.2986e-06
1.29852e-06
1.27944e-06
1.27927e-06
1.2791e-06
1.27694e-06
1.27683e-06
1.27674e-06
1.27693e-06
1.27905e-06
1.27931e-06
1.2791e-06
1.27623e-06
1.27324e-06
1.27324e-06
1.27324e-06
1.27324e-06
1.27662e-06
1.27745e-06
1.27694e-06
1.27324e-06
1.27324e-06
1.27324e-06
1.27324e-06
1.27324e-06
1.27324e-06
1.27755e-06
1.27952e-06
1.27944e-06
1.27683e-06
1.27324e-06
1.27324e-06
1.27324e-06
1.27324e-06
1.27324e-06
1.27324e-06
1.27765e-06
1.27931e-06
1.27927e-06
1.27674e-06
1.27324e-06
1.27324e-06
1.27324e-06
1.27324e-06
1.27324e-06
1.27324e-06
1.27763e-06
1.27762e-06
1.27693e-06
1.27324e-06
1.27324e-06
1.27324e-06
1.27324e-06
1.27324e-06
1.27324e-06
1.27762e-06
1.27963e-06
1.27905e-06
1.27662e-06
1.27324e-06
1.27324e-06
1.27324e-06
1.27324e-06
1.2774e-06
1.2776e-06
1.27954e-06
1.27931e-06
1.27745e-06
1.27755e-06
1.27765e-06
1.27763e-06
1.27762e-06
1.2776e-06
1.27953e-06
1.27952e-06
1.27931e-06
1.27762e-06
1.27963e-06
1.27954e-06
1.26047e-06
1.2603e-06
1.26012e-06
1.25797e-06
1.25785e-06
1.25777e-06
1.25795e-06
1.26007e-06
1.26034e-06
1.26012e-06
1.25726e-06
1.25427e-06
1.25427e-06
1.25427e-06
1.25427e-06
1.25764e-06
1.25847e-06
1.25797e-06
1.25427e-06
1.25427e-06
1.25427e-06
1.25427e-06
1.25427e-06
1.25427e-06
1.25858e-06
1.26054e-06
1.26047e-06
1.25785e-06
1.25427e-06
1.25427e-06
1.25427e-06
1.25427e-06
1.25427e-06
1.25427e-06
1.25867e-06
1.26033e-06
1.2603e-06
1.25777e-06
1.25427e-06
1.25427e-06
1.25427e-06
1.25427e-06
1.25427e-06
1.25427e-06
1.25865e-06
1.25865e-06
1.25795e-06
1.25427e-06
1.25427e-06
1.25427e-06
1.25427e-06
1.25427e-06
1.25427e-06
1.25864e-06
1.26065e-06
1.26007e-06
1.25764e-06
1.25427e-06
1.25427e-06
1.25427e-06
1.25427e-06
1.25842e-06
1.25863e-06
1.26056e-06
1.26034e-06
1.25848e-06
1.25858e-06
1.25867e-06
1.25865e-06
1.25864e-06
1.25863e-06
1.26055e-06
1.26054e-06
1.26033e-06
1.25865e-06
1.26065e-06
1.26057e-06
1.24149e-06
1.24132e-06
1.24115e-06
1.23899e-06
1.23888e-06
1.23879e-06
1.23898e-06
1.2411e-06
1.24136e-06
1.24115e-06
1.23828e-06
1.23529e-06
1.23529e-06
1.23529e-06
1.23529e-06
1.23867e-06
1.2395e-06
1.23899e-06
1.23529e-06
1.23529e-06
1.23529e-06
1.23529e-06
1.23529e-06
1.23529e-06
1.2396e-06
1.24157e-06
1.24149e-06
1.23888e-06
1.23529e-06
1.23529e-06
1.23529e-06
1.23529e-06
1.23529e-06
1.23529e-06
1.2397e-06
1.24136e-06
1.24132e-06
1.23879e-06
1.23529e-06
1.23529e-06
1.23529e-06
1.23529e-06
1.23529e-06
1.23529e-06
1.23968e-06
1.23967e-06
1.23898e-06
1.23529e-06
1.23529e-06
1.23529e-06
1.23529e-06
1.23529e-06
1.23529e-06
1.23967e-06
1.24167e-06
1.2411e-06
1.23867e-06
1.23529e-06
1.23529e-06