/*--------------------------------*- C++ -*----------------------------------*\
| =========                 |                                                 |
| \\      /  F ield         | OpenFOAM: The Open Source CFD Toolbox           |
|  \\    /   O peration     | Version:  v2012                                 |
|   \\  /    A nd           | Website:  www.openfoam.com                      |
|    \\/     M anipulation  |                                                 |
\*---------------------------------------------------------------------------*/
FoamFile
{
    version     2.0;
    format      ascii;
    class       volScalarField;
    location    "1725";
    object      k;
}
// * * * * * * * * * * * * * * * * * * * * * * * * * * * * * * * * * * * * * //

dimensions      [0 2 -2 0 0 0 0];


internalField   nonuniform List<scalar> 
171728
(
1.7213e-07
2.56343e-07
3.41831e-07
3.65461e-07
1.71777e-07
2.45273e-07
3.26012e-07
3.43011e-07
1.68439e-07
2.33657e-07
3.08526e-07
3.21074e-07
1.65723e-07
2.22666e-07
2.92321e-07
3.01982e-07
1.65112e-07
2.12601e-07
2.77806e-07
2.85594e-07
1.63066e-07
2.03358e-07
2.64739e-07
2.70786e-07
1.61396e-07
1.95149e-07
2.5387e-07
2.56699e-07
1.60527e-07
1.87949e-07
2.44404e-07
2.44403e-07
1.59391e-07
1.81649e-07
2.35404e-07
2.33786e-07
1.58291e-07
1.76512e-07
2.27303e-07
2.24549e-07
1.56634e-07
1.72225e-07
2.2055e-07
2.15771e-07
1.54856e-07
1.69064e-07
2.15217e-07
2.0783e-07
1.53374e-07
1.67443e-07
2.12158e-07
2.0086e-07
1.51834e-07
1.66945e-07
2.11554e-07
1.94955e-07
1.57625e-07
1.68307e-07
2.12614e-07
1.91366e-07
1.70872e-07
1.72465e-07
2.15176e-07
1.9185e-07
1.71222e-07
1.81324e-07
2.22031e-07
1.98957e-07
1.36891e-07
1.98224e-07
2.36617e-07
2.16129e-07
1.13494e-07
2.25233e-07
2.64567e-07
2.51662e-07
1.04841e-07
2.79459e-07
3.11073e-07
3.20469e-07
1.01747e-07
3.47997e-07
3.86492e-07
4.38361e-07
1.00471e-07
4.46498e-07
4.93584e-07
6.59393e-07
9.97497e-08
6.44744e-07
6.65028e-07
1.00737e-06
9.98112e-08
8.78575e-07
8.95189e-07
1.76245e-06
1.01743e-07
1.17729e-06
1.20501e-06
2.92534e-06
1.03195e-07
1.6e-06
1.6242e-06
3.3587e-06
1.11154e-07
2.12111e-06
2.18858e-06
6.25474e-06
1.18286e-07
2.79436e-06
2.69836e-06
6.40458e-06
1.31272e-07
3.42001e-06
3.59294e-06
1.09586e-05
1.62225e-07
4.57421e-06
4.50975e-06
1.21391e-05
1.81124e-07
5.1323e-06
5.26866e-06
1.51678e-05
2.3642e-07
6.57226e-06
6.70764e-06
1.76154e-05
3.00654e-07
7.84439e-06
7.74556e-06
1.95269e-05
4.00227e-07
8.93775e-06
8.92688e-06
2.12557e-05
4.87634e-07
1.07377e-05
1.0795e-05
2.3545e-05
7.04987e-07
1.1825e-05
1.19542e-05
2.50448e-05
8.36433e-07
1.41641e-05
1.40855e-05
2.67225e-05
1.08895e-06
1.5028e-05
1.51195e-05
2.76819e-05
1.4743e-06
1.76015e-05
1.76707e-05
2.92525e-05
1.70925e-06
1.90034e-05
1.86398e-05
3.06356e-05
2.38863e-06
2.08509e-05
2.12247e-05
3.1426e-05
2.63615e-06
2.24731e-05
2.25983e-05
3.27925e-05
3.63803e-06
2.49429e-05
2.4784e-05
3.42431e-05
4.2782e-06
2.57794e-05
2.59311e-05
3.47418e-05
4.67647e-06
2.81628e-05
2.80033e-05
3.66115e-05
5.99879e-06
2.97673e-05
2.99597e-05
3.72398e-05
6.79251e-06
3.10712e-05
3.08312e-05
3.77061e-05
8.2455e-06
3.27198e-05
3.31175e-05
3.99148e-05
8.98659e-06
3.40047e-05
3.37468e-05
4.03446e-05
1.09341e-05
3.59891e-05
3.59247e-05
4.11849e-05
1.17596e-05
3.63099e-05
3.64955e-05
4.23381e-05
1.37862e-05
3.84454e-05
3.84761e-05
4.30178e-05
1.47652e-05
3.88062e-05
3.89419e-05
4.39222e-05
1.69325e-05
4.08272e-05
4.06516e-05
4.51532e-05
1.81668e-05
4.14013e-05
4.10581e-05
4.53601e-05
1.9682e-05
4.2554e-05
4.28323e-05
4.65873e-05
2.17497e-05
4.34301e-05
4.36257e-05
4.71852e-05
2.26036e-05
4.35891e-05
4.37888e-05
4.72705e-05
2.42408e-05
4.60712e-05
4.56159e-05
4.94571e-05
2.62949e-05
4.64436e-05
4.66202e-05
4.92298e-05
2.68669e-05
4.62337e-05
4.64882e-05
4.87239e-05
2.86282e-05
4.76757e-05
4.75554e-05
5.10803e-05
2.95724e-05
4.92972e-05
4.9039e-05
5.1853e-05
3.16301e-05
4.92905e-05
4.92722e-05
5.09764e-05
3.24471e-05
4.92165e-05
4.92898e-05
5.15757e-05
3.27063e-05
5.08183e-05
5.09509e-05
5.36898e-05
3.48947e-05
5.14597e-05
5.17079e-05
5.32878e-05
3.57016e-05
5.16709e-05
5.142e-05
5.30615e-05
3.61917e-05
5.2077e-05
5.18852e-05
5.44391e-05
3.75458e-05
5.32927e-05
5.31857e-05
5.49159e-05
3.86411e-05
5.32854e-05
5.34305e-05
5.459e-05
3.91161e-05
5.34513e-05
5.40865e-05
5.50143e-05
4.02924e-05
5.45299e-05
5.37131e-05
5.58912e-05
4.07743e-05
5.41293e-05
5.36182e-05
5.58124e-05
4.12353e-05
5.42093e-05
5.58355e-05
5.60648e-05
4.28305e-05
5.61342e-05
5.60838e-05
5.67851e-05
4.37187e-05
5.64258e-05
5.53578e-05
5.72206e-05
4.34337e-05
5.51941e-05
5.51544e-05
5.69641e-05
4.31485e-05
5.51777e-05
5.57296e-05
5.64108e-05
4.4435e-05
5.69001e-05
5.68961e-05
5.79545e-05
4.59002e-05
5.71668e-05
5.70933e-05
5.77206e-05
4.58906e-05
5.64882e-05
5.65314e-05
5.68333e-05
4.52708e-05
5.68351e-05
5.69316e-05
5.97208e-05
4.57212e-05
5.70567e-05
5.71248e-05
5.71939e-05
4.62122e-05
5.62196e-05
5.61474e-05
5.51436e-05
4.6099e-05
5.69114e-05
5.64711e-05
5.93797e-05
4.71863e-05
5.86849e-05
5.87501e-05
6.1531e-05
4.76916e-05
5.82475e-05
5.86472e-05
5.87607e-05
4.64838e-05
5.55291e-05
5.54765e-05
5.42823e-05
4.55568e-05
5.49606e-05
5.48306e-05
5.48915e-05
4.60144e-05
5.75547e-05
5.75625e-05
6.05916e-05
4.7979e-05
5.92568e-05
5.95294e-05
6.28429e-05
4.84811e-05
5.82237e-05
5.82628e-05
5.83943e-05
4.67003e-05
5.46758e-05
5.43946e-05
5.32838e-05
4.41003e-05
5.28977e-05
5.28285e-05
5.43941e-05
3.64907e-07
3.30038e-07
2.99111e-07
3.52403e-07
2.99625e-07
3.4092e-07
1.69826e-07
1.46552e-07
1.65134e-07
1.54898e-07
2.8533e-07
2.93298e-07
3.62334e-07
3.43751e-07
3.06457e-07
3.66326e-07
3.63794e-07
3.43782e-07
3.21479e-07
2.51667e-07
3.07809e-07
2.44169e-07
3.51447e-07
3.30688e-07
2.62176e-07
3.36929e-07
2.53347e-07
3.24482e-07
2.56535e-07
2.48157e-07
2.48503e-07
3.6115e-07
3.43487e-07
2.68359e-07
3.30285e-07
2.62543e-07
3.44202e-07
3.42475e-07
3.23234e-07
3.03117e-07
2.41157e-07
2.89742e-07
2.32332e-07
3.29482e-07
3.09897e-07
2.50098e-07
3.19954e-07
2.40665e-07
3.06435e-07
2.45659e-07
2.36537e-07
2.37581e-07
3.42119e-07
3.25786e-07
2.60197e-07
3.1288e-07
2.53822e-07
3.22159e-07
3.22089e-07
3.04861e-07
2.85673e-07
2.29531e-07
2.75019e-07
2.21974e-07
3.0884e-07
2.91535e-07
2.37656e-07
3.01904e-07
2.2895e-07
2.89664e-07
2.34988e-07
2.25366e-07
2.27601e-07
3.24525e-07
3.09022e-07
2.51771e-07
2.96246e-07
2.46254e-07
3.02923e-07
3.03847e-07
2.87895e-07
2.71483e-07
2.19531e-07
2.61329e-07
2.12579e-07
2.90578e-07
2.75077e-07
2.26229e-07
2.86015e-07
2.18206e-07
2.76171e-07
2.25222e-07
2.15007e-07
2.1824e-07
3.07858e-07
2.93887e-07
2.44618e-07
2.81275e-07
2.40061e-07
2.86414e-07
2.86904e-07
2.71679e-07
2.58343e-07
2.10256e-07
2.50187e-07
2.02858e-07
2.74235e-07
2.60002e-07
2.15631e-07
2.73247e-07
2.08139e-07
2.64955e-07
2.15926e-07
2.05532e-07
2.09259e-07
2.92799e-07
2.79527e-07
2.38521e-07
2.67799e-07
2.34108e-07
2.71577e-07
2.70735e-07
2.56913e-07
2.47745e-07
2.00239e-07
2.42391e-07
1.92972e-07
2.5925e-07
2.46194e-07
2.05881e-07
2.62392e-07
1.99634e-07
2.55059e-07
2.0699e-07
1.97083e-07
2.00196e-07
2.78548e-07
2.66832e-07
2.32587e-07
2.56443e-07
2.27736e-07
2.5743e-07
2.5614e-07
2.44105e-07
2.41284e-07
1.90963e-07
2.39284e-07
1.85858e-07
2.45589e-07
2.34262e-07
1.97665e-07
2.53111e-07
1.91942e-07
2.51184e-07
1.98088e-07
1.89601e-07
1.92226e-07
2.66001e-07
2.56274e-07
2.2607e-07
2.4671e-07
2.20974e-07
2.4488e-07
2.4349e-07
2.33734e-07
2.39001e-07
1.84434e-07
2.38869e-07
1.80562e-07
2.33851e-07
2.24354e-07
1.90134e-07
2.51209e-07
1.85035e-07
2.52528e-07
1.90449e-07
1.83134e-07
1.857e-07
2.55619e-07
2.47913e-07
2.19482e-07
2.37696e-07
2.1508e-07
2.34167e-07
2.33261e-07
2.24496e-07
2.38985e-07
1.79234e-07
2.39356e-07
1.75494e-07
2.2413e-07
2.15261e-07
1.8347e-07
2.53931e-07
1.79436e-07
2.58685e-07
1.8439e-07
1.77636e-07
1.80645e-07
2.47362e-07
2.41181e-07
2.13582e-07
2.29103e-07
2.09038e-07
2.24824e-07
2.2409e-07
2.1712e-07
2.3957e-07
1.7449e-07
2.41867e-07
1.71437e-07
2.15069e-07
2.06195e-07
1.78249e-07
2.60908e-07
1.75204e-07
2.69839e-07
1.79489e-07
1.7311e-07
1.76095e-07
2.40753e-07
2.36251e-07
2.07476e-07
2.22097e-07
2.03591e-07
2.15985e-07
2.17155e-07
2.16935e-07
2.43142e-07
1.70594e-07
2.63246e-07
1.68748e-07
2.06091e-07
1.98336e-07
1.74426e-07
2.73233e-07
1.72329e-07
2.8478e-07
1.74973e-07
1.6965e-07
1.71923e-07
2.36024e-07
2.33377e-07
2.02531e-07
2.16352e-07
1.99562e-07
2.07953e-07
2.1774e-07
2.25842e-07
2.76015e-07
1.68264e-07
3.12834e-07
1.66881e-07
1.98338e-07
1.91997e-07
1.71954e-07
2.89473e-07
1.71528e-07
3.05161e-07
1.71128e-07
1.67703e-07
1.6918e-07
2.33346e-07
2.32765e-07
1.9866e-07
2.12569e-07
1.95738e-07
2.00847e-07
2.28417e-07
2.49399e-07
3.2496e-07
1.66532e-07
3.89407e-07
1.6603e-07
1.92137e-07
1.8705e-07
1.71636e-07
3.0987e-07
1.72925e-07
3.18027e-07
1.68639e-07
1.66905e-07
1.67632e-07
2.33099e-07
2.33432e-07
1.94536e-07
2.11515e-07
1.90403e-07
1.94777e-07
2.56715e-07
3.09121e-07
4.2656e-07
1.66056e-07
5.736e-07
1.66694e-07
1.87371e-07
1.8409e-07
1.73613e-07
3.185e-07
1.78217e-07
3.0695e-07
1.67641e-07
1.67889e-07
1.68291e-07
2.33807e-07
2.26354e-07
1.89353e-07
2.12287e-07
1.86883e-07
1.90734e-07
3.22519e-07
3.78148e-07
6.24524e-07
1.67045e-07
7.55464e-07
1.69647e-07
1.84836e-07
1.84645e-07
1.8027e-07
2.91559e-07
1.87284e-07
2.50656e-07
1.68874e-07
1.71304e-07
1.71297e-07
2.25786e-07
2.16068e-07
1.86853e-07
2.14441e-07
1.88071e-07
1.90232e-07
3.862e-07
3.90675e-07
7.85171e-07
1.70832e-07
8.29177e-07
1.76796e-07
1.86206e-07
1.89414e-07
1.89816e-07
2.37862e-07
1.95241e-07
2.11919e-07
1.72847e-07
1.78715e-07
1.78953e-07
2.16362e-07
2.11045e-07
1.89465e-07
2.19775e-07
1.96413e-07
1.95519e-07
3.91857e-07
3.14602e-07
8.31606e-07
1.79367e-07
7.49364e-07
1.9118e-07
1.9284e-07
2.03602e-07
1.97745e-07
2.05573e-07
2.02815e-07
2.00131e-07
1.82301e-07
1.92903e-07
1.93211e-07
2.128e-07
2.14733e-07
1.9955e-07
2.31491e-07
2.1324e-07
2.1009e-07
3.10006e-07
2.84361e-07
6.76965e-07
1.96682e-07
5.19195e-07
2.16972e-07
2.10562e-07
2.33485e-07
2.06308e-07
2.0137e-07
2.23602e-07
2.17032e-07
1.98738e-07
2.18296e-07
2.19131e-07
2.21066e-07
2.44302e-07
2.18645e-07
2.56094e-07
2.42252e-07
2.39825e-07
2.89171e-07
3.21623e-07
4.86539e-07
2.24071e-07
4.21215e-07
2.61211e-07
2.44169e-07
2.90442e-07
2.3174e-07
2.24833e-07
2.62165e-07
2.57949e-07
2.28396e-07
2.61738e-07
2.63965e-07
2.55233e-07
2.98659e-07
2.50777e-07
2.96936e-07
2.86594e-07
2.99639e-07
3.35615e-07
4.24033e-07
4.16238e-07
2.79402e-07
4.24461e-07
3.18281e-07
3.18478e-07
3.89974e-07
2.79922e-07
2.72624e-07
3.28704e-07
3.22405e-07
2.79058e-07
3.18225e-07
3.29335e-07
3.20052e-07
3.99771e-07
2.99848e-07
3.59681e-07
3.55785e-07
4.03059e-07
4.45545e-07
6.51116e-07
4.27489e-07
3.48323e-07
4.78158e-07
4.29722e-07
4.18536e-07
6.41917e-07
3.50669e-07
3.49789e-07
4.37031e-07
4.26269e-07
3.55067e-07
4.30343e-07
4.38021e-07
4.36436e-07
6.15258e-07
3.7575e-07
4.60536e-07
4.68175e-07
6.10477e-07
6.96095e-07
9.99157e-07
5.07036e-07
4.46452e-07
5.99156e-07
6.0223e-07
6.71924e-07
9.97213e-07
4.70012e-07
4.59599e-07
5.71996e-07
5.88341e-07
4.74757e-07
5.99735e-07
5.72375e-07
6.52314e-07
9.97899e-07
5.13881e-07
6.17222e-07
5.91699e-07
9.5511e-07
1.08572e-06
1.61827e-06
6.36126e-07
6.46729e-07
8.74394e-07
8.06555e-07
1.17249e-06
1.42166e-06
6.10054e-07
6.37312e-07
8.44752e-07
7.98823e-07
6.40091e-07
8.0223e-07
8.16555e-07
1.07497e-06
1.56664e-06
6.75941e-07
8.22647e-07
8.56915e-07
1.68633e-06
1.83044e-06
2.19929e-06
9.10852e-07
8.84975e-07
1.12755e-06
1.07341e-06
1.58064e-06
2.34707e-06
8.82835e-07
8.71149e-07
1.10428e-06
1.11026e-06
8.40575e-07
1.07304e-06
1.17627e-06
1.69346e-06
2.44618e-06
8.8263e-07
1.13373e-06
1.23488e-06
2.48908e-06
2.56691e-06
3.67291e-06
1.28873e-06
1.1811e-06
1.47404e-06
1.52981e-06
2.4362e-06
3.86308e-06
1.25463e-06
1.18431e-06
1.43576e-06
1.49004e-06
1.28064e-06
1.51529e-06
1.39667e-06
2.65512e-06
3.48769e-06
1.32059e-06
1.50786e-06
1.45133e-06
3.31795e-06
3.70582e-06
5.66456e-06
1.52629e-06
1.6018e-06
2.13465e-06
1.92425e-06
4.03612e-06
5.13189e-06
1.50529e-06
1.60861e-06
2.09672e-06
2.04076e-06
1.51348e-06
1.92434e-06
2.13249e-06
3.82716e-06
5.33432e-06
1.64257e-06
2.04813e-06
2.21965e-06
6.07686e-06
6.28637e-06
6.95057e-06
2.27906e-06
2.13913e-06
2.47985e-06
2.74861e-06
5.61968e-06
7.65904e-06
2.21019e-06
2.17965e-06
2.46259e-06
2.50455e-06
2.19428e-06
2.72226e-06
2.37095e-06
5.64332e-06
7.082e-06
2.27164e-06
2.50289e-06
2.36408e-06
6.10479e-06
7.08722e-06
9.65046e-06
2.69869e-06
2.81424e-06
3.33573e-06
3.06859e-06
8.09175e-06
8.41635e-06
2.71671e-06
2.69978e-06
3.2999e-06
3.45888e-06
2.63063e-06
3.0773e-06
3.50494e-06
7.5161e-06
9.49334e-06
2.51188e-06
3.46804e-06
3.68509e-06
1.04422e-05
1.02591e-05
1.16415e-05
3.44264e-06
3.43664e-06
4.24682e-06
4.35524e-06
8.82146e-06
1.30917e-05
3.41151e-06
3.58108e-06
4.22758e-06
4.11006e-06
3.63523e-06
4.33162e-06
4.05928e-06
1.01736e-05
1.16771e-05
3.93012e-06
4.10433e-06
4.21157e-06
1.19022e-05
1.21871e-05
1.45438e-05
4.55258e-06
4.56643e-06
4.95851e-06
4.9783e-06
1.34643e-05
1.41973e-05
4.50968e-06
4.51725e-06
4.93914e-06
5.19013e-06
4.41412e-06
5.03278e-06
5.12214e-06
1.19885e-05
1.49936e-05
4.44256e-06
5.1964e-06
5.41022e-06
1.44915e-05
1.48941e-05
1.67286e-05
5.20687e-06
5.11407e-06
6.39023e-06
6.20537e-06
1.45505e-05
1.63902e-05
5.23719e-06
5.27398e-06
6.27023e-06
6.26109e-06
5.21622e-06
6.04374e-06
6.39111e-06
1.52982e-05
1.63436e-05
5.51497e-06
6.23051e-06
6.50152e-06
1.68756e-05
1.74034e-05
1.90536e-05
6.62285e-06
6.69625e-06
7.37806e-06
7.53614e-06
1.71984e-05
1.94838e-05
6.47752e-06
6.67508e-06
7.4023e-06
7.58956e-06
6.91466e-06
7.73283e-06
7.56044e-06
1.71487e-05
1.94773e-05
7.1395e-06
7.57998e-06
8.08744e-06
1.93899e-05
1.93648e-05
2.10584e-05
7.70187e-06
7.68259e-06
8.76602e-06
8.58974e-06
1.98104e-05
2.07252e-05
7.67286e-06
7.80113e-06
8.73965e-06
8.52472e-06
7.59948e-06
8.47072e-06
8.35239e-06
1.96974e-05
2.07119e-05
8.13659e-06
8.5064e-06
8.35006e-06
2.05405e-05
2.15958e-05
2.29054e-05
9.22011e-06
9.06065e-06
1.01141e-05
1.04152e-05
2.11114e-05
2.3268e-05
9.18451e-06
8.98407e-06
1.00453e-05
1.04323e-05
9.16115e-06
1.03623e-05
1.06227e-05
2.12619e-05
2.30742e-05
8.79114e-06
1.03746e-05
1.06743e-05
2.32799e-05
2.32433e-05
2.47359e-05
1.03596e-05
1.07432e-05
1.19854e-05
1.14351e-05
2.36816e-05
2.44213e-05
1.03792e-05
1.07393e-05
1.1803e-05
1.16665e-05
1.07552e-05
1.15033e-05
1.13776e-05
2.35495e-05
2.46329e-05
1.0864e-05
1.16654e-05
1.1862e-05
2.45739e-05
2.51758e-05
2.61651e-05
1.24666e-05
1.18117e-05
1.3091e-05
1.368e-05
2.47607e-05
2.64156e-05
1.22372e-05
1.2047e-05
1.33632e-05
1.35658e-05
1.21882e-05
1.35775e-05
1.37509e-05
2.49417e-05
2.62916e-05
1.26039e-05
1.35329e-05
1.40361e-05
2.65034e-05
2.64723e-05
2.75822e-05
1.35835e-05
1.42326e-05
1.52742e-05
1.48834e-05
2.67659e-05
2.74368e-05
1.377e-05
1.40996e-05
1.47968e-05
1.49132e-05
1.38842e-05
1.49136e-05
1.48718e-05
2.67066e-05
2.75079e-05
1.42328e-05
1.4843e-05
1.51368e-05
2.73489e-05
2.79364e-05
2.89092e-05
1.54549e-05
1.50034e-05
1.68528e-05
1.68458e-05
2.76957e-05
2.90361e-05
1.53436e-05
1.51788e-05
1.6951e-05
1.70512e-05
1.52565e-05
1.67658e-05
1.66989e-05
2.77971e-05
2.90881e-05
1.52947e-05
1.70097e-05
1.60763e-05
2.88949e-05
2.92083e-05
3.01782e-05
1.7479e-05
1.76738e-05
1.8377e-05
1.89025e-05
2.94807e-05
3.02044e-05
1.7229e-05
1.77324e-05
1.82893e-05
1.86287e-05
1.73524e-05
1.8911e-05
1.87365e-05
2.9449e-05
3.00627e-05
1.68857e-05
1.85343e-05
1.90423e-05
3.03858e-05
3.05083e-05
3.14811e-05
1.87835e-05
1.89867e-05
2.08413e-05
1.99376e-05
3.03647e-05
3.11887e-05
1.89995e-05
1.87281e-05
2.06818e-05
2.0402e-05
1.90561e-05
1.98561e-05
2.03529e-05
3.02736e-05
3.14376e-05
1.94424e-05
2.03475e-05
2.05624e-05
3.1197e-05
3.17091e-05
3.23262e-05
2.13204e-05
2.09291e-05
2.18594e-05
2.23268e-05
3.16582e-05
3.26806e-05
2.08788e-05
2.12723e-05
2.17638e-05
2.24545e-05
2.06945e-05
2.23051e-05
2.1698e-05
3.1873e-05
3.26452e-05
2.08356e-05
2.24967e-05
2.16747e-05
3.24232e-05
3.26293e-05
3.40852e-05
2.22308e-05
2.24793e-05
2.44268e-05
2.42835e-05
3.2858e-05
3.38645e-05
2.23433e-05
2.25583e-05
2.4373e-05
2.40947e-05
2.23512e-05
2.42907e-05
2.46463e-05
3.28214e-05
3.37557e-05
2.22948e-05
2.39655e-05
2.46015e-05
3.40344e-05
3.43893e-05
3.48477e-05
2.51508e-05
2.49669e-05
2.62278e-05
2.57985e-05
3.41979e-05
3.46335e-05
2.49795e-05
2.49085e-05
2.58337e-05
2.59274e-05
2.51275e-05
2.57149e-05
2.55712e-05
3.41402e-05
3.4753e-05
2.51011e-05
2.5795e-05
2.55696e-05
3.45631e-05
3.49645e-05
3.56204e-05
2.62977e-05
2.58618e-05
2.69371e-05
2.71552e-05
3.47638e-05
3.59238e-05
2.59276e-05
2.60363e-05
2.7154e-05
2.7581e-05
2.56908e-05
2.71681e-05
2.76695e-05
3.48961e-05
3.60438e-05
2.57116e-05
2.75244e-05
2.76121e-05
3.62508e-05
3.5996e-05
3.72262e-05
2.76119e-05
2.81332e-05
2.94234e-05
2.96465e-05
3.6389e-05
3.71722e-05
2.78424e-05
2.80786e-05
2.9462e-05
2.95434e-05
2.84363e-05
2.96641e-05
2.96866e-05
3.64013e-05
3.71284e-05
2.8274e-05
2.94967e-05
2.9622e-05
3.71516e-05
3.74099e-05
3.79036e-05
2.98308e-05
2.97561e-05
3.06786e-05
3.03316e-05
3.72697e-05
3.78437e-05
2.97752e-05
3.00721e-05
3.05455e-05
3.07296e-05
2.97944e-05
3.03244e-05
2.99915e-05
3.73564e-05
3.80201e-05
2.98195e-05
3.055e-05
3.0086e-05
3.74748e-05
3.81405e-05
3.92541e-05
3.10913e-05
3.1105e-05
3.2633e-05
3.26926e-05
3.82225e-05
3.92543e-05
3.0956e-05
3.09389e-05
3.25649e-05
3.26169e-05
3.02763e-05
3.25835e-05
3.27732e-05
3.81722e-05
3.92235e-05
3.0336e-05
3.2613e-05
3.26509e-05
3.95438e-05
3.94637e-05
3.98909e-05
3.2901e-05
3.28374e-05
3.34527e-05
3.32338e-05
3.93507e-05
3.97387e-05
3.28963e-05
3.30261e-05
3.35069e-05
3.35201e-05
3.34424e-05
3.33058e-05
3.42483e-05
3.95396e-05
3.9965e-05
3.33581e-05
3.36194e-05
3.42967e-05
4.03195e-05
4.01094e-05
4.13576e-05
3.39346e-05
3.38498e-05
3.56196e-05
3.57591e-05
4.00925e-05
4.15304e-05
3.39598e-05
3.38891e-05
3.55229e-05
3.57333e-05
3.42791e-05
3.57448e-05
3.47515e-05
4.00739e-05
4.13891e-05
3.4336e-05
3.54203e-05
3.46598e-05
4.07663e-05
4.15357e-05
4.17307e-05
3.58993e-05
3.60358e-05
3.61765e-05
3.62433e-05
4.16525e-05
4.16529e-05
3.57574e-05
3.61603e-05
3.61821e-05
3.65158e-05
3.54087e-05
3.61794e-05
3.66106e-05
4.16909e-05
4.19016e-05
3.52815e-05
3.63968e-05
3.66616e-05
4.221e-05
4.1901e-05
4.32393e-05
3.6424e-05
3.63632e-05
3.81282e-05
3.8053e-05
4.17609e-05
4.32446e-05
3.66566e-05
3.65632e-05
3.80976e-05
3.79032e-05
3.69325e-05
3.80693e-05
3.77837e-05
4.19453e-05
4.31543e-05
3.69799e-05
3.8031e-05
3.77973e-05
4.28629e-05
4.33829e-05
4.34712e-05
3.84006e-05
3.84077e-05
3.86395e-05
3.86754e-05
4.34263e-05
4.34657e-05
3.82922e-05
3.84184e-05
3.85432e-05
3.88714e-05
3.79438e-05
3.87332e-05
3.87182e-05
4.34749e-05
4.37404e-05
3.79527e-05
3.88552e-05
3.86513e-05
4.36386e-05
4.36323e-05
4.50505e-05
3.88404e-05
3.87885e-05
4.04761e-05
4.04362e-05
4.3539e-05
4.50632e-05
3.88796e-05
3.89968e-05
4.05278e-05
4.0338e-05
3.91794e-05
4.03112e-05
4.05454e-05
4.37995e-05
4.48354e-05
3.90959e-05
4.0277e-05
4.05307e-05
4.50236e-05
4.51789e-05
4.51211e-05
4.07615e-05
4.08444e-05
4.09617e-05
4.11806e-05
4.53113e-05
4.54384e-05
4.07799e-05
4.06341e-05
4.09422e-05
4.08714e-05
4.08093e-05
4.13727e-05
4.10546e-05
4.50318e-05
4.5119e-05
4.08403e-05
4.09878e-05
4.11619e-05
4.52872e-05
4.51772e-05
4.66351e-05
4.10331e-05
4.12125e-05
4.24637e-05
4.21629e-05
4.5466e-05
4.63196e-05
4.10021e-05
4.09609e-05
4.24316e-05
4.25278e-05
4.10987e-05
4.20251e-05
4.20628e-05
4.51881e-05
4.66737e-05
4.11985e-05
4.23123e-05
4.19922e-05
4.62583e-05
4.68557e-05
4.68373e-05
4.28733e-05
4.26786e-05
4.32336e-05
4.33586e-05
4.66227e-05
4.69349e-05
4.28733e-05
4.30402e-05
4.3292e-05
4.36031e-05
4.2628e-05
4.33849e-05
4.364e-05
4.69868e-05
4.71366e-05
4.2529e-05
4.35836e-05
4.35135e-05
4.71596e-05
4.68531e-05
4.76881e-05
4.32672e-05
4.33818e-05
4.39427e-05
4.34137e-05
4.69476e-05
4.69965e-05
4.33114e-05
4.36133e-05
4.39241e-05
4.36627e-05
4.37144e-05
4.34572e-05
4.37253e-05
4.71396e-05
4.72164e-05
4.35928e-05
4.36761e-05
4.36202e-05
4.70943e-05
4.79888e-05
4.84207e-05
4.42192e-05
4.35839e-05
4.50797e-05
4.55765e-05
4.72579e-05
4.91565e-05
4.44246e-05
4.38841e-05
4.49694e-05
4.50624e-05
4.37761e-05
4.55906e-05
4.55121e-05
4.74845e-05
4.8636e-05
4.36929e-05
4.51123e-05
4.55289e-05
4.91944e-05
4.85249e-05
4.92175e-05
4.54539e-05
4.60373e-05
4.61983e-05
4.64429e-05
4.94062e-05
4.9332e-05
4.5164e-05
4.5417e-05
4.62115e-05
4.64236e-05
4.60416e-05
4.64609e-05
4.64262e-05
4.88139e-05
4.94763e-05
4.60678e-05
4.6563e-05
4.65036e-05
4.9293e-05
4.9293e-05
4.93751e-05
4.62536e-05
4.64318e-05
4.64311e-05
4.62892e-05
4.93026e-05
4.8992e-05
4.63894e-05
4.65557e-05
4.64946e-05
4.65578e-05
4.63778e-05
4.62346e-05
4.59919e-05
4.95327e-05
4.92483e-05
4.64713e-05
4.65099e-05
4.61289e-05
4.8642e-05
4.9541e-05
5.0395e-05
4.67683e-05
4.63009e-05
4.7553e-05
4.71649e-05
4.90723e-05
5.01777e-05
4.65564e-05
4.65528e-05
4.7633e-05
4.73985e-05
4.59948e-05
4.70433e-05
4.73361e-05
4.92602e-05
5.03078e-05
4.61287e-05
4.70438e-05
4.72627e-05
5.06176e-05
5.04679e-05
5.07784e-05
4.76126e-05
4.76054e-05
4.81006e-05
4.88627e-05
5.05149e-05
5.16696e-05
4.78501e-05
4.7777e-05
4.81205e-05
4.84663e-05
4.80862e-05
4.91019e-05
4.92372e-05
5.06023e-05
5.11636e-05
4.80217e-05
4.87649e-05
4.91915e-05
5.18436e-05
5.10575e-05
5.19677e-05
4.86352e-05
4.91432e-05
4.96399e-05
4.93932e-05
5.17737e-05
5.15098e-05
4.84253e-05
4.87499e-05
4.95248e-05
4.92641e-05
4.9307e-05
4.93637e-05
4.91458e-05
5.1317e-05
5.15878e-05
4.92501e-05
4.92864e-05
4.90164e-05
5.10343e-05
5.19993e-05
5.16856e-05
4.97004e-05
4.93869e-05
4.96145e-05
4.93323e-05
5.14924e-05
5.14687e-05
4.96422e-05
4.92927e-05
4.96335e-05
4.94943e-05
4.89865e-05
4.91767e-05
4.89176e-05
5.15951e-05
5.16192e-05
4.88432e-05
4.92153e-05
4.87866e-05
5.1182e-05
5.1694e-05
5.25625e-05
4.95894e-05
4.93524e-05
5.00406e-05
5.03118e-05
5.16301e-05
5.27855e-05
4.96126e-05
4.96494e-05
4.99667e-05
5.02399e-05
4.90959e-05
5.04205e-05
5.09615e-05
5.18048e-05
5.27452e-05
4.90116e-05
5.05381e-05
5.10913e-05
5.35605e-05
5.29345e-05
5.34793e-05
5.06449e-05
5.07286e-05
5.14695e-05
5.13537e-05
5.29882e-05
5.32858e-05
5.05612e-05
5.0603e-05
5.15196e-05
5.1604e-05
5.12806e-05
5.14089e-05
5.14753e-05
5.295e-05
5.35921e-05
5.14259e-05
5.16666e-05
5.16216e-05
5.3322e-05
5.34702e-05
5.32261e-05
5.15048e-05
5.14013e-05
5.15008e-05
5.16778e-05
5.3327e-05
5.3546e-05
5.15749e-05
5.1721e-05
5.15544e-05
5.16731e-05
5.1451e-05
5.16361e-05
5.13248e-05
5.36336e-05
5.32349e-05
5.1588e-05
5.15189e-05
5.13319e-05
5.3013e-05
5.32914e-05
5.39865e-05
5.15246e-05
5.17746e-05
5.20076e-05
5.18893e-05
5.36196e-05
5.37116e-05
5.15536e-05
5.1581e-05
5.18525e-05
5.16014e-05
5.13311e-05
5.18314e-05
5.21262e-05
5.32189e-05
5.36268e-05
5.13204e-05
5.15001e-05
5.1787e-05
5.4116e-05
5.41309e-05
5.47068e-05
5.21431e-05
5.19738e-05
5.28664e-05
5.30048e-05
5.38148e-05
5.4928e-05
5.21688e-05
5.18489e-05
5.30039e-05
5.30061e-05
5.25605e-05
5.31176e-05
5.31683e-05
5.39191e-05
5.47526e-05
5.23308e-05
5.30467e-05
5.31588e-05
5.49266e-05
5.48101e-05
5.46978e-05
5.30957e-05
5.32567e-05
5.33092e-05
5.34051e-05
5.5055e-05
5.4795e-05
5.31414e-05
5.31639e-05
5.32062e-05
5.33267e-05
5.31888e-05
5.33416e-05
5.30998e-05
5.47901e-05
5.48658e-05
5.32072e-05
5.33249e-05
5.31899e-05
5.45779e-05
5.46936e-05
5.5067e-05
5.33061e-05
5.33792e-05
5.33476e-05
5.33851e-05
5.47597e-05
5.48741e-05
5.31969e-05
5.34564e-05
5.34548e-05
5.40862e-05
5.30684e-05
5.32873e-05
5.30981e-05
5.50174e-05
5.58084e-05
5.31855e-05
5.40286e-05
5.33508e-05
5.48803e-05
5.53177e-05
5.58819e-05
5.34982e-05
5.35206e-05
5.43659e-05
5.44401e-05
5.51351e-05
5.61523e-05
5.3857e-05
5.41346e-05
5.43144e-05
5.3849e-05
5.32479e-05
5.44711e-05
5.43479e-05
5.58421e-05
5.49479e-05
5.35579e-05
5.39103e-05
5.41872e-05
5.57819e-05
5.58853e-05
5.53795e-05
5.4444e-05
5.44958e-05
5.43422e-05
5.42316e-05
5.61682e-05
5.52636e-05
5.43067e-05
5.35806e-05
5.40124e-05
5.33483e-05
5.45307e-05
5.42773e-05
5.45942e-05
5.48161e-05
5.45491e-05
5.43086e-05
5.35361e-05
5.43725e-05
5.58214e-05
5.53638e-05
5.59183e-05
5.4254e-05
5.40657e-05
5.42765e-05
5.39899e-05
5.51889e-05
5.52972e-05
5.39814e-05
5.34445e-05
5.4468e-05
5.55658e-05
5.45423e-05
5.40726e-05
5.45131e-05
5.48178e-05
5.73539e-05
5.43656e-05
5.5399e-05
5.45205e-05
5.5909e-05
5.62664e-05
5.727e-05
5.44915e-05
5.41306e-05
5.57699e-05
5.58903e-05
5.55706e-05
5.74535e-05
5.51061e-05
5.61002e-05
5.60742e-05
5.64967e-05
5.45651e-05
5.5771e-05
5.52875e-05
5.76144e-05
5.75682e-05
5.4836e-05
5.61409e-05
5.54663e-05
5.66957e-05
5.73213e-05
5.72321e-05
5.60032e-05
5.62893e-05
5.6234e-05
5.66159e-05
5.76812e-05
5.78943e-05
5.6138e-05
5.64427e-05
5.60831e-05
5.54972e-05
5.55299e-05
5.64618e-05
5.60585e-05
5.74531e-05
5.64137e-05
5.55703e-05
5.54871e-05
5.5879e-05
5.71532e-05
5.72255e-05
5.63736e-05
5.62313e-05
5.656e-05
5.56335e-05
5.53159e-05
5.7754e-05
5.6031e-05
5.59229e-05
5.52045e-05
5.51915e-05
5.47076e-05
5.61295e-05
5.54507e-05
5.60737e-05
5.63445e-05
5.58962e-05
5.59409e-05
5.51632e-05
5.59415e-05
5.70655e-05
5.62466e-05
5.60664e-05
5.52959e-05
5.50215e-05
5.49953e-05
5.48827e-05
5.59053e-05
5.613e-05
5.50194e-05
5.46781e-05
5.4965e-05
5.52233e-05
5.58504e-05
5.50537e-05
5.53835e-05
5.58999e-05
5.67223e-05
5.58432e-05
5.54489e-05
5.54985e-05
5.64006e-05
5.63035e-05
5.77946e-05
5.50514e-05
5.50508e-05
5.63706e-05
5.65688e-05
5.64362e-05
5.79594e-05
5.51914e-05
5.57773e-05
5.66281e-05
5.69106e-05
5.53825e-05
5.65763e-05
5.63124e-05
5.70205e-05
5.8024e-05
5.5495e-05
5.66656e-05
5.63032e-05
5.77145e-05
5.79765e-05
5.83263e-05
5.67516e-05
5.69117e-05
5.73117e-05
5.73152e-05
5.81276e-05
5.83401e-05
5.69171e-05
5.71115e-05
5.73104e-05
5.73112e-05
5.67164e-05
5.71904e-05
5.69432e-05
5.81417e-05
5.82813e-05
5.66873e-05
5.71116e-05
5.69043e-05
5.79763e-05
5.83604e-05
5.80263e-05
5.73545e-05
5.7315e-05
5.72081e-05
5.6778e-05
5.83256e-05
5.74994e-05
5.73325e-05
5.7302e-05
5.71241e-05
5.66964e-05
5.67715e-05
5.65853e-05
5.62518e-05
5.82764e-05
5.74906e-05
5.67367e-05
5.66103e-05
5.62573e-05
5.67735e-05
5.78709e-05
5.70995e-05
5.68725e-05
5.65261e-05
5.62723e-05
5.63267e-05
5.74235e-05
5.73662e-05
5.67894e-05
5.64739e-05
5.62524e-05
5.63296e-05
5.62956e-05
5.6582e-05
5.78126e-05
5.74195e-05
5.7444e-05
5.63062e-05
5.66677e-05
5.78434e-05
5.95321e-05
5.71005e-05
5.79135e-05
5.62583e-05
5.63792e-05
5.67743e-05
5.70406e-05
5.75479e-05
5.81515e-05
5.62422e-05
5.64142e-05
5.67796e-05
5.70948e-05
5.80512e-05
5.70955e-05
5.75622e-05
5.76548e-05
5.82443e-05
5.80746e-05
5.71725e-05
5.75664e-05
5.78748e-05
5.80475e-05
5.79686e-05
5.69967e-05
5.70815e-05
5.70635e-05
5.67528e-05
5.81597e-05
5.73285e-05
5.69969e-05
5.71213e-05
5.70542e-05
5.66966e-05
5.65179e-05
5.6329e-05
5.49482e-05
5.82453e-05
5.72569e-05
5.65272e-05
5.62981e-05
5.49861e-05
5.51082e-05
5.78824e-05
5.75444e-05
5.69306e-05
5.6572e-05
5.67124e-05
5.65154e-05
5.72607e-05
5.75856e-05
5.69055e-05
5.64611e-05
5.66453e-05
5.63102e-05
5.49329e-05
5.63795e-05
5.68586e-05
5.71672e-05
5.72317e-05
5.49698e-05
5.61642e-05
5.67595e-05
5.86985e-05
5.76075e-05
5.91236e-05
5.67482e-05
5.67055e-05
5.78565e-05
5.81209e-05
5.79454e-05
5.95026e-05
5.66754e-05
5.64254e-05
5.78277e-05
5.809e-05
5.80282e-05
5.84866e-05
5.9902e-05
5.75225e-05
5.95231e-05
5.78845e-05
5.84064e-05
5.98189e-05
6.14704e-05
5.92924e-05
5.91052e-05
5.81342e-05
5.83254e-05
5.82339e-05
5.83252e-05
5.96049e-05
5.91177e-05
5.8147e-05
5.84341e-05
5.82929e-05
5.85841e-05
6.00269e-05
5.86366e-05
5.92857e-05
5.97186e-05
5.9572e-05
5.99829e-05
5.88959e-05
5.9454e-05
5.94941e-05
5.88965e-05
5.72389e-05
5.80556e-05
5.807e-05
5.65707e-05
5.64595e-05
5.88719e-05
5.69857e-05
5.81365e-05
5.83915e-05
5.65945e-05
5.6463e-05
5.79704e-05
5.60508e-05
5.44608e-05
5.92818e-05
5.68879e-05
5.82304e-05
5.60895e-05
5.44801e-05
5.46034e-05
5.71016e-05
5.67112e-05
5.62084e-05
5.60335e-05
5.57439e-05
5.54285e-05
5.67949e-05
5.61754e-05
5.62064e-05
5.59763e-05
5.56974e-05
5.53336e-05
5.38376e-05
5.49382e-05
5.3467e-05
5.66672e-05
5.6081e-05
5.37985e-05
5.48101e-05
5.3364e-05
5.42828e-05
5.67568e-05
5.78276e-05
5.57422e-05
5.54204e-05
5.6421e-05
5.63092e-05
5.62038e-05
5.79467e-05
5.56922e-05
5.5324e-05
5.63655e-05
5.61992e-05
5.37762e-05
5.66936e-05
5.79518e-05
5.61268e-05
5.78492e-05
5.36508e-05
5.66115e-05
5.79528e-05
5.98471e-05
5.81324e-05
5.91442e-05
5.68935e-05
5.70027e-05
5.79497e-05
5.84475e-05
5.83836e-05
5.9983e-05
5.68937e-05
5.6982e-05
5.80533e-05
5.86574e-05
5.91943e-05
5.90936e-05
6.0994e-05
5.83244e-05
6.02427e-05
5.92611e-05
5.93384e-05
6.11594e-05
6.28062e-05
5.92682e-05
5.94721e-05
5.81889e-05
5.86828e-05
5.8422e-05
5.87494e-05
6.01047e-05
5.95946e-05
5.82791e-05
5.89038e-05
5.84422e-05
5.88869e-05
6.10622e-05
5.89838e-05
5.92969e-05
6.03882e-05
5.96891e-05
6.12323e-05
5.9199e-05
5.94117e-05
5.93711e-05
5.94616e-05
5.75979e-05
5.84019e-05
5.8539e-05
5.68247e-05
5.60279e-05
5.92638e-05
5.64653e-05
5.83898e-05
5.84855e-05
5.66589e-05
5.56963e-05
5.75024e-05
5.53265e-05
5.34339e-05
5.92321e-05
5.60783e-05
5.75411e-05
5.50165e-05
5.3287e-05
5.35805e-05
5.71783e-05
5.49827e-05
5.59613e-05
5.52766e-05
5.40211e-05
5.39163e-05
5.61082e-05
5.48904e-05
5.58859e-05
5.50622e-05
5.41052e-05
5.4074e-05
5.28497e-05
5.3713e-05
5.24949e-05
5.57782e-05
5.50547e-05
5.2669e-05
5.36002e-05
5.22814e-05
5.39422e-05
5.48594e-05
5.30077e-05
5.30065e-05
5.48652e-05
5.30845e-05
5.31568e-05
4.3881e-05
4.38567e-05
4.28955e-05
5.2261e-05
5.50552e-05
5.20775e-05
2.67796e-08
2.35094e-07
4.93603e-08
4.18065e-08
2.86158e-07
2.74486e-07
1.35842e-07
1.13761e-07
2.74537e-07
3.44708e-07
1.24869e-07
4.63868e-07
3.73053e-07
2.15466e-07
2.15419e-07
3.09361e-07
4.91048e-06
2.62057e-07
6.55237e-06
1.30778e-05
2.04327e-05
3.60191e-07
4.83816e-06
3.19086e-07
6.47262e-06
1.49464e-07
1.68725e-07
1.5765e-07
1.72672e-07
1.49432e-07
1.68625e-07
1.5768e-07
2.70596e-07
5.20788e-07
2.20895e-07
2.53873e-07
2.75761e-07
5.07611e-07
2.2026e-07
1.37584e-05
2.13556e-05
2.54622e-07
2.4419e-07
7.13157e-07
3.38725e-07
2.61642e-07
2.43293e-07
6.7746e-07
1.84923e-06
1.85117e-06
3.55702e-07
1.82105e-06
1.82128e-06
5.076e-07
9.62e-06
4.17633e-07
1.2402e-05
3.52465e-05
4.52408e-05
5.51836e-07
9.49681e-06
4.62679e-07
1.21394e-05
1.48471e-07
1.6743e-07
1.56722e-07
1.69391e-07
1.45442e-07
1.63764e-07