/*--------------------------------*- C++ -*----------------------------------*\
| =========                 |                                                 |
| \\      /  F ield         | OpenFOAM: The Open Source CFD Toolbox           |
|  \\    /   O peration     | Version:  v2012                                 |
|   \\  /    A nd           | Website:  www.openfoam.com                      |
|    \\/     M anipulation  |                                                 |
\*---------------------------------------------------------------------------*/
FoamFile
{
    version     2.0;
    format      ascii;
    class       volScalarField;
    location    "1725";
    object      nut;
}
// * * * * * * * * * * * * * * * * * * * * * * * * * * * * * * * * * * * * * //

dimensions      [0 2 -1 0 0 0 0];


internalField   nonuniform List<scalar> 
171728
(
1.56035e-06
1.75057e-06
2.18112e-06
2.27752e-06
1.57901e-06
1.73991e-06
2.17287e-06
2.23736e-06
1.57789e-06
1.72799e-06
2.14725e-06
2.18812e-06
1.579e-06
1.70941e-06
2.11605e-06
2.14162e-06
1.61753e-06
1.68836e-06
2.08505e-06
2.10504e-06
1.63254e-06
1.6609e-06
2.04797e-06
2.06887e-06
1.65742e-06
1.62833e-06
2.01891e-06
2.02321e-06
1.70832e-06
1.58658e-06
1.9853e-06
1.97173e-06
1.74707e-06
1.53475e-06
1.93024e-06
1.92546e-06
1.79709e-06
1.47687e-06
1.86011e-06
1.87251e-06
1.83734e-06
1.40801e-06
1.78073e-06
1.79939e-06
1.90844e-06
1.33427e-06
1.69445e-06
1.71142e-06
2.04716e-06
1.25859e-06
1.61308e-06
1.60806e-06
2.17869e-06
1.17466e-06
1.53987e-06
1.48935e-06
2.50041e-06
1.08941e-06
1.45831e-06
1.36511e-06
3.16208e-06
1.00834e-06
1.35112e-06
1.25151e-06
3.47943e-06
9.45343e-07
1.24991e-06
1.15938e-06
2.46309e-06
9.11795e-07
1.17355e-06
1.10867e-06
1.79739e-06
9.24626e-07
1.16286e-06
1.12087e-06
1.57665e-06
1.05531e-06
1.23237e-06
1.26161e-06
1.49167e-06
1.19371e-06
1.40185e-06
1.53761e-06
1.43821e-06
1.46169e-06
1.68322e-06
2.19395e-06
1.35558e-06
2.12725e-06
2.216e-06
3.2005e-06
1.28326e-06
2.87529e-06
2.91441e-06
6.18306e-06
1.19995e-06
3.75928e-06
3.93344e-06
9.7633e-06
1.0635e-06
5.26527e-06
5.27413e-06
9.69285e-06
1.05455e-06
6.77991e-06
7.33206e-06
2.19936e-05
9.48021e-07
9.58914e-06
8.61425e-06
1.75928e-05
9.21071e-07
1.09017e-05
1.22088e-05
3.55724e-05
1.07875e-06
1.57294e-05
1.50936e-05
3.72419e-05
1.01504e-06
1.70157e-05
1.76196e-05
4.62018e-05
1.30166e-06
2.18853e-05
2.27703e-05
5.28036e-05
1.60564e-06
2.72429e-05
2.65569e-05
5.93607e-05
2.06005e-06
2.97894e-05
2.97345e-05
6.23154e-05
2.38794e-06
3.70473e-05
3.71484e-05
7.0626e-05
3.67442e-06
3.9558e-05
4.03014e-05
7.43101e-05
4.00106e-06
4.91185e-05
4.86613e-05
8.03426e-05
5.32373e-06
5.06134e-05
5.0692e-05
8.21077e-05
7.49448e-06
6.02048e-05
6.09749e-05
8.74793e-05
7.97877e-06
6.54063e-05
6.29313e-05
9.25358e-05
1.23505e-05
7.03332e-05
7.2378e-05
9.44102e-05
1.23799e-05
7.59276e-05
7.69874e-05
9.87614e-05
1.81026e-05
8.57605e-05
8.45666e-05
0.000104789
2.22098e-05
8.71195e-05
8.73597e-05
0.000105121
2.17402e-05
9.52975e-05
9.48922e-05
0.000112787
2.95693e-05
0.000102085
0.000102609
0.000115006
3.28397e-05
0.000104754
0.000103804
0.000114815
4.05949e-05
0.000111873
0.000113542
0.000124474
4.25698e-05
0.000114618
0.000113919
0.000125885
5.34569e-05
0.000124312
0.000123443
0.000127604
5.57939e-05
0.000122541
0.000123881
0.000132777
6.63225e-05
0.000132905
0.000132848
0.000134738
6.95301e-05
0.000132239
0.00013315
0.000137709
8.03745e-05
0.00014175
0.00014111
0.000143202
8.62048e-05
0.000143723
0.000141197
0.000143176
9.08761e-05
0.000148043
0.00014953
0.000148011
0.000103562
0.000152518
0.000153539
0.00015092
0.000104273
0.000150149
0.000151881
0.000149179
0.000111877
0.000163827
0.000160854
0.000159923
0.000123872
0.000166226
0.000166821
0.000159634
0.000123835
0.000162971
0.000164565
0.000154792
0.000133438
0.00016872
0.000168593
0.000165251
0.000135958
0.000178767
0.000176949
0.000170305
0.000148999
0.000178634
0.00017816
0.000165721
0.000153591
0.000175836
0.00017617
0.000165535
0.00015027
0.000184548
0.000185144
0.000177328
0.000165534
0.000188405
0.000190152
0.000175784
0.000170081
0.000189193
0.000188113
0.000173236
0.000170565
0.000190078
0.000188641
0.000179435
0.000178895
0.000197811
0.000197173
0.000182786
0.000186499
0.000198061
0.000197835
0.000180615
0.000187085
0.000197092
0.000202431
0.000181938
0.000195279
0.000205003
0.00020066
0.000186706
0.000198591
0.00020303
0.000197445
0.000186654
0.000198266
0.000200824
0.000211506
0.000186801
0.000210155
0.000213254
0.000214971
0.000190637
0.000218674
0.00021758
0.00021033
0.000193234
0.000216542
0.000209878
0.000208697
0.000193063
0.000210637
0.000207482
0.000211344
0.000188823
0.000218979
0.000218783
0.000219034
0.000196354
0.000232873
0.000222529
0.000221929
0.000197672
0.000235308
0.000218298
0.00021849
0.000189653
0.000228195
0.000219819
0.000220452
0.000206122
0.000230592
0.000223658
0.000224229
0.000198168
0.000237199
0.000218257
0.000217987
0.000182205
0.000235215
0.000220022
0.000217072
0.000201523
0.000243958
0.000233355
0.000233186
0.000216743
0.000252687
0.000235623
0.000238578
0.00020855
0.000244888
0.000218447
0.000218317
0.0001839
0.000235689
0.000212086
0.000211216
0.000180353
0.000236459
0.000227084
0.00022681
0.000208505
0.000255326
0.000241267
0.000243008
0.000226266
0.000266162
0.000241006
0.000242064
0.00021009
0.000256738
0.000218236
0.000216231
0.000180934
0.00023573
0.00021183
0.00021105
0.000184537
2.29339e-06
2.12766e-06
2.11648e-06
2.26579e-06
2.1572e-06
2.33761e-06
1.54318e-06
1.58116e-06
1.61621e-06
1.58047e-06
2.01259e-06
2.03749e-06
2.27297e-06
2.51293e-06
2.01089e-06
2.27894e-06
2.28824e-06
2.26004e-06
1.85777e-06
1.74641e-06
1.77495e-06
1.73001e-06
2.264e-06
2.22245e-06
1.79545e-06
2.01151e-06
1.77653e-06
1.98563e-06
1.72742e-06
1.74026e-06
1.71283e-06
2.27111e-06
2.26063e-06
1.55954e-06
2.17423e-06
1.56611e-06
2.23886e-06
2.25806e-06
2.21691e-06
1.74892e-06
1.72518e-06
1.66979e-06
1.70852e-06
2.21961e-06
2.18048e-06
1.77038e-06
1.97763e-06
1.74974e-06
1.93484e-06
1.7105e-06
1.73224e-06
1.70547e-06
2.26074e-06
2.25499e-06
1.56886e-06
2.15565e-06
1.58104e-06
2.19066e-06
2.21421e-06
2.15936e-06
1.64543e-06
1.70311e-06
1.58339e-06
1.69454e-06
2.17775e-06
2.13715e-06
1.74343e-06
1.91534e-06
1.72505e-06
1.86227e-06
1.70389e-06
1.71485e-06
1.70085e-06
2.25455e-06
2.2302e-06
1.58488e-06
2.124e-06
1.60013e-06
2.14414e-06
2.15653e-06
2.08939e-06
1.56053e-06
1.69126e-06
1.48798e-06
1.68393e-06
2.13322e-06
2.09311e-06
1.72046e-06
1.8461e-06
1.70351e-06
1.80268e-06
1.69977e-06
1.69355e-06
1.69476e-06
2.22879e-06
2.19951e-06
1.60702e-06
2.09281e-06
1.63194e-06
2.10738e-06
2.08483e-06
1.99835e-06
1.46507e-06
1.67962e-06
1.39687e-06
1.65359e-06
2.08842e-06
2.04234e-06
1.69725e-06
1.79025e-06
1.67318e-06
1.75235e-06
1.69146e-06
1.66751e-06
1.68051e-06
2.19663e-06
2.14839e-06
1.63925e-06
2.05647e-06
1.66086e-06
2.0725e-06
1.99192e-06
1.89845e-06
1.37428e-06
1.63932e-06
1.31821e-06
1.59556e-06
2.03739e-06
1.99684e-06
1.66545e-06
1.74002e-06
1.6417e-06
1.69769e-06
1.67453e-06
1.63702e-06
1.64532e-06
2.14478e-06
2.0981e-06
1.66719e-06
2.02582e-06
1.67044e-06
2.02884e-06
1.89186e-06
1.80209e-06
1.30551e-06
1.58398e-06
1.27179e-06
1.55531e-06
1.992e-06
1.95334e-06
1.63254e-06
1.68612e-06
1.59688e-06
1.69615e-06
1.6352e-06
1.59727e-06
1.60279e-06
2.09428e-06
2.05743e-06
1.66857e-06
1.9953e-06
1.65606e-06
1.97462e-06
1.79508e-06
1.70569e-06
1.26246e-06
1.54703e-06
1.23472e-06
1.52263e-06
1.94873e-06
1.91152e-06
1.58321e-06
1.70596e-06
1.53653e-06
1.74384e-06
1.59156e-06
1.5493e-06
1.55563e-06
2.054e-06
2.03207e-06
1.65197e-06
1.94796e-06
1.6316e-06
1.92978e-06
1.69706e-06
1.59132e-06
1.22503e-06
1.51023e-06
1.187e-06
1.46922e-06
1.90745e-06
1.85538e-06
1.52035e-06
1.76906e-06
1.47164e-06
1.86532e-06
1.54528e-06
1.49154e-06
1.50754e-06
2.02775e-06
2.01538e-06
1.62126e-06
1.87714e-06
1.58455e-06
1.87791e-06
1.5798e-06
1.47842e-06
1.17159e-06
1.45601e-06
1.13237e-06
1.40836e-06
1.84955e-06
1.77214e-06
1.45592e-06
1.91257e-06
1.40517e-06
2.10863e-06
1.4943e-06
1.42419e-06
1.44352e-06
2.01068e-06
2.005e-06
1.56997e-06
1.80124e-06
1.52775e-06
1.8065e-06
1.46934e-06
1.4455e-06
1.11787e-06
1.39241e-06
1.204e-06
1.34628e-06
1.76527e-06
1.67999e-06
1.38946e-06
2.18727e-06
1.33548e-06
2.45411e-06
1.4243e-06
1.3499e-06
1.36351e-06
1.99944e-06
1.99843e-06
1.51466e-06
1.71524e-06
1.47041e-06
1.72115e-06
1.44538e-06
1.55946e-06
1.29043e-06
1.32983e-06
1.57581e-06
1.27185e-06
1.67027e-06
1.5827e-06
1.32051e-06
2.55851e-06
1.28022e-06
2.89622e-06
1.34363e-06
1.2747e-06
1.2812e-06
1.99158e-06
2.00722e-06
1.45447e-06
1.63062e-06
1.39337e-06
1.62181e-06
1.59034e-06
1.90616e-06
1.68576e-06
1.25165e-06
2.39447e-06
1.18931e-06
1.5693e-06
1.47555e-06
1.26812e-06
2.99476e-06
1.23323e-06
3.16646e-06
1.25909e-06
1.19349e-06
1.19118e-06
2.00021e-06
2.01266e-06
1.3676e-06
1.55858e-06
1.27347e-06
1.50782e-06
1.99277e-06
2.74202e-06
2.86604e-06
1.1674e-06
5.07043e-06
1.1013e-06
1.4573e-06
1.36398e-06
1.22081e-06
3.17162e-06
1.19934e-06
2.93897e-06
1.16991e-06
1.10863e-06
1.10714e-06
1.99713e-06
1.85307e-06
1.24285e-06
1.48036e-06
1.15286e-06
1.38612e-06
2.91649e-06
3.76793e-06
5.94108e-06
1.07729e-06
8.35451e-06
1.0138e-06
1.34081e-06
1.25832e-06
1.19836e-06
2.64449e-06
1.18266e-06
1.90693e-06
1.08744e-06
1.02853e-06
1.02282e-06
1.81124e-06
1.59415e-06
1.12944e-06
1.38099e-06
1.06269e-06
1.27511e-06
3.83252e-06
3.6735e-06
8.9487e-06
9.91594e-07
9.37445e-06
9.41196e-07
1.23433e-06
1.15193e-06
1.17389e-06
1.69335e-06
1.11013e-06
1.24975e-06
1.00484e-06
9.60097e-07
9.54021e-07
1.55004e-06
1.3565e-06
1.04506e-06
1.27286e-06
1.00989e-06
1.17899e-06
3.57939e-06
2.23203e-06
9.30842e-06
9.24286e-07
7.55693e-06
8.93734e-07
1.13099e-06
1.07864e-06
1.09193e-06
1.14643e-06
1.0049e-06
9.62789e-07
9.46409e-07
9.13275e-07
9.14163e-07
1.32067e-06
1.16557e-06
1.00019e-06
1.1831e-06
9.98708e-07
1.12304e-06
2.06521e-06
1.4926e-06
6.13524e-06
8.93787e-07
3.4189e-06
9.09177e-07
1.07352e-06
1.08521e-06
9.79088e-07
9.23788e-07
9.64105e-07
8.98289e-07
9.10866e-07
9.25267e-07
9.20912e-07
1.14816e-06
1.15305e-06
9.95675e-07
1.15826e-06
1.02899e-06
1.11234e-06
1.42182e-06
1.38543e-06
2.9376e-06
9.09204e-07
2.03615e-06
9.83288e-07
1.09312e-06
1.14851e-06
9.69497e-07
9.05516e-07
9.99936e-07
9.67292e-07
9.32751e-07
9.95586e-07
1.0081e-06
1.15751e-06
1.22447e-06
1.03807e-06
1.20381e-06
1.10905e-06
1.22074e-06
1.36735e-06
1.62335e-06
1.90639e-06
1.04556e-06
1.7283e-06
1.08861e-06
1.23747e-06
1.40876e-06
1.0522e-06
1.00497e-06
1.16263e-06
1.11317e-06
1.0454e-06
1.09679e-06
1.15685e-06
1.26974e-06
1.44942e-06
1.13522e-06
1.31854e-06
1.27874e-06
1.46366e-06
1.62602e-06
2.36201e-06
1.64971e-06
1.18744e-06
1.68549e-06
1.45201e-06
1.42849e-06
2.3639e-06
1.21553e-06
1.20188e-06
1.4779e-06
1.41266e-06
1.23318e-06
1.46542e-06
1.48019e-06
1.52711e-06
2.18472e-06
1.32145e-06
1.59269e-06
1.60167e-06
2.11604e-06
2.47418e-06
3.44702e-06
1.7638e-06
1.45042e-06
1.96497e-06
1.9815e-06
2.40144e-06
3.20693e-06
1.57978e-06
1.50593e-06
1.84795e-06
1.91497e-06
1.60257e-06
1.98098e-06
1.813e-06
2.20552e-06
3.42787e-06
1.79162e-06
2.06573e-06
1.85145e-06
3.22556e-06
3.74566e-06
5.32443e-06
2.0275e-06
2.12445e-06
3.00388e-06
2.6045e-06
3.98738e-06
4.42381e-06
1.92243e-06
2.07292e-06
2.8692e-06
2.5604e-06
2.06077e-06
2.59872e-06
2.73109e-06
3.60991e-06
5.24558e-06
2.18377e-06
2.67587e-06
2.91479e-06
6.00434e-06
6.29223e-06
6.40689e-06
3.07506e-06
2.8937e-06
3.56493e-06
3.39106e-06
4.77749e-06
7.69854e-06
2.94869e-06
2.79726e-06
3.50042e-06
3.61549e-06
2.6726e-06
3.41189e-06
3.92272e-06
5.59406e-06
8.06518e-06
2.82423e-06
3.73821e-06
4.21664e-06
7.74283e-06
7.61506e-06
1.25728e-05
4.31811e-06
3.74954e-06
4.8116e-06
5.09368e-06
7.5182e-06
1.31058e-05
4.18736e-06
3.82759e-06
4.61031e-06
4.79604e-06
4.42229e-06
5.01625e-06
4.30548e-06
8.79002e-06
1.08424e-05
4.6083e-06
4.89625e-06
4.3959e-06
1.0514e-05
1.20751e-05
1.80031e-05
4.73036e-06
5.27534e-06
7.20115e-06
6.01027e-06
1.35571e-05
1.58153e-05
4.63616e-06
5.18106e-06
7.09521e-06
6.75399e-06
4.54584e-06
6.06295e-06
7.41222e-06
1.19032e-05
1.72632e-05
5.07509e-06
6.80398e-06
7.89357e-06
2.13187e-05
2.08391e-05
2.22662e-05
7.84005e-06
6.82038e-06
7.86572e-06
9.58943e-06
1.75214e-05
2.5041e-05
7.5322e-06
7.27255e-06
7.79451e-06
7.98803e-06
7.56455e-06
9.45401e-06
7.24089e-06
1.81412e-05
2.21673e-05
8.00028e-06
7.99095e-06
7.19836e-06
1.76963e-05
2.17868e-05
3.00704e-05
8.62286e-06
9.69293e-06
1.11456e-05
9.4164e-06
2.68529e-05
2.4396e-05
8.79739e-06
8.61289e-06
1.10078e-05
1.18208e-05
8.16396e-06
9.53881e-06
1.20725e-05
2.3491e-05
2.90182e-05
7.36783e-06
1.18836e-05
1.26061e-05
3.35646e-05
3.23937e-05
3.51821e-05
1.12533e-05
1.09101e-05
1.42167e-05
1.48848e-05
2.45514e-05
4.20124e-05
1.11384e-05
1.21268e-05
1.42155e-05
1.32832e-05
1.24702e-05
1.47195e-05
1.31619e-05
3.14754e-05
3.56099e-05
1.37717e-05
1.32775e-05
1.38564e-05
3.71648e-05
3.6616e-05
4.47756e-05
1.56071e-05
1.57251e-05
1.62703e-05
1.66835e-05
4.33297e-05
4.34643e-05
1.54579e-05
1.51089e-05
1.62074e-05
1.7773e-05
1.46828e-05
1.71047e-05
1.74319e-05
3.56585e-05
4.6895e-05
1.45019e-05
1.78859e-05
1.87481e-05
4.37553e-05
4.54946e-05
4.98662e-05
1.69016e-05
1.6743e-05
2.18912e-05
2.05113e-05
4.41731e-05
4.78719e-05
1.71824e-05
1.75573e-05
2.13585e-05
2.08624e-05
1.72028e-05
1.9619e-05
2.13842e-05
4.76841e-05
4.76382e-05
1.86627e-05
2.0631e-05
2.14703e-05
5.01652e-05
5.21592e-05
5.7445e-05
2.26529e-05
2.27165e-05
2.48489e-05
2.6019e-05
5.06567e-05
5.94006e-05
2.1859e-05
2.26234e-05
2.51247e-05
2.6188e-05
2.39694e-05
2.71997e-05
2.66011e-05
5.02876e-05
5.97279e-05
2.45997e-05
2.62628e-05
2.92548e-05
5.95885e-05
5.79571e-05
6.25942e-05
2.59606e-05
2.61377e-05
2.95606e-05
2.8601e-05
6.01085e-05
6.13585e-05
2.59357e-05
2.67752e-05
2.95554e-05
2.82561e-05
2.60275e-05
2.80718e-05
2.67799e-05
5.99793e-05
6.10153e-05
2.89965e-05
2.83009e-05
2.69845e-05
5.98151e-05
6.43529e-05
6.82527e-05
3.14206e-05
3.0387e-05
3.4335e-05
3.59149e-05
6.20925e-05
6.97975e-05
3.1402e-05
2.98978e-05
3.39739e-05
3.5893e-05
3.05684e-05
3.55745e-05
3.74813e-05
6.27096e-05
6.87034e-05
2.82615e-05
3.54496e-05
3.72115e-05
7.02186e-05
6.89649e-05
7.36981e-05
3.4671e-05
3.71347e-05
4.10945e-05
3.83591e-05
7.1188e-05
7.23429e-05
3.48812e-05
3.68989e-05
4.0269e-05
3.94844e-05
3.74905e-05
3.8873e-05
3.72648e-05
7.02423e-05
7.34564e-05
3.75166e-05
3.97192e-05
3.96822e-05
7.28235e-05
7.5159e-05
7.8047e-05
4.32688e-05
3.93091e-05
4.3855e-05
4.69452e-05
7.30055e-05
7.92405e-05
4.19318e-05
4.06431e-05
4.5687e-05
4.62912e-05
4.09204e-05
4.64044e-05
4.80524e-05
7.41282e-05
7.85201e-05
4.29652e-05
4.61992e-05
4.93614e-05
7.99271e-05
7.88051e-05
8.22947e-05
4.54219e-05
4.95167e-05
5.27508e-05
5.10018e-05
8.03585e-05
8.17474e-05
4.71538e-05
4.85931e-05
4.97779e-05
5.06784e-05
4.78683e-05
5.12553e-05
5.04425e-05
7.9941e-05
8.19845e-05
4.96222e-05
5.04077e-05
5.24921e-05
8.12533e-05
8.33768e-05
8.65817e-05
5.27562e-05
5.03388e-05
5.71186e-05
5.66486e-05
8.2214e-05
8.6986e-05
5.17508e-05
5.09199e-05
5.83777e-05
5.7971e-05
5.16015e-05
5.62811e-05
5.62773e-05
8.26383e-05
8.74254e-05
5.25376e-05
5.79079e-05
5.27798e-05
8.63373e-05
8.73876e-05
9.04882e-05
5.98926e-05
6.05756e-05
6.19769e-05
6.57805e-05
8.86867e-05
9.111e-05
5.90385e-05
6.11423e-05
6.12145e-05
6.40717e-05
5.89793e-05
6.59003e-05
6.42628e-05
8.86963e-05
9.0218e-05
5.59998e-05
6.3671e-05
6.55968e-05
9.18025e-05
9.15667e-05
9.52816e-05
6.29124e-05
6.5194e-05
7.16099e-05
6.59529e-05
9.12453e-05
9.33225e-05
6.40855e-05
6.33012e-05
7.14302e-05
6.84155e-05
6.50437e-05
6.55959e-05
6.94881e-05
9.0546e-05
9.46051e-05
6.70187e-05
6.82078e-05
7.07245e-05
9.39576e-05
9.58555e-05
9.71626e-05
7.3685e-05
7.07076e-05
7.34308e-05
7.64164e-05
9.51119e-05
9.92037e-05
7.16182e-05
7.25973e-05
7.28217e-05
7.72048e-05
7.04631e-05
7.63237e-05
7.21744e-05
9.62982e-05
9.90698e-05
7.13527e-05
7.76035e-05
7.21748e-05
9.74798e-05
9.80059e-05
0.000104115
7.40681e-05
7.59346e-05
8.28989e-05
8.24922e-05
9.95099e-05
0.000103192
7.47734e-05
7.65184e-05
8.30522e-05
8.11098e-05
7.44637e-05
8.26781e-05
8.47486e-05
9.93514e-05
0.000102528
7.42547e-05
8.0595e-05
8.45397e-05
0.000104158
0.000105258
0.00010674
8.63015e-05
8.57427e-05
9.07655e-05
8.84085e-05
0.000104463
0.000105533
8.57784e-05
8.50682e-05
8.85952e-05
8.86354e-05
8.69508e-05
8.80344e-05
8.67685e-05
0.000104042
0.000106048
8.6827e-05
8.79625e-05
8.67088e-05
0.000104926
0.000106795
0.000108248
9.02496e-05
8.75243e-05
8.98032e-05
9.03309e-05
0.000105548
0.000109609
8.80032e-05
8.78968e-05
9.09533e-05
9.32724e-05
8.59279e-05
9.04115e-05
9.33012e-05
0.000106151
0.000110356
8.60377e-05
9.31316e-05
9.32506e-05
0.000111284
0.000109553
0.000114898
9.24677e-05
9.51094e-05
0.00010017
0.000102163
0.000111607
0.000114883
9.38027e-05
9.52051e-05
0.00010069
0.00010057
9.69442e-05
0.000102324
0.000102516
0.000111739
0.000114351
9.61989e-05
0.000100591
0.000101976
0.000114979
0.000115434
0.000116626
0.000101785
0.000101953
0.000103805
0.000101281
0.000114876
0.000116032
0.000101733
0.000102965
0.000103205
0.000104349
0.000102502
0.000101387
0.000100143
0.00011505
0.000117324
0.000102492
0.000103447
0.000100853
0.000114393
0.000117271
0.000121881
0.000105052
0.000104777
0.000111643
0.000112399
0.000117485
0.000122156
0.000104414
0.000104297
0.000111194
0.000111204
0.000100079
0.000111836
0.000111334
0.000117585
0.000121548
0.000100677
0.000111103
0.00011063
0.000122817
0.000122573
0.000123482
0.000112601
0.000112566
0.000112763
0.0001112
0.000122228
0.000122397
0.000112519
0.000113027
0.000113192
0.000113234
0.000114812
0.000111562
0.000118245
0.000122809
0.000124056
0.000114249
0.000114409
0.000118529
0.000126165
0.000124039
0.000129472
0.00011443
0.000113635
0.000122355
0.000123199
0.000123609
0.000130442
0.000114742
0.000114165
0.00012195
0.00012257
0.000117583
0.000123268
0.000116801
0.000124067
0.00012939
0.000117997
0.000120873
0.000116328
0.000125919
0.000130074
0.000129957
0.000123611
0.000124468
0.000122736
0.000123377
0.000130787
0.000129691
0.000122829
0.000124773
0.000122588
0.000125263
0.000119931
0.00012301
0.000125183
0.000130695
0.000131099
0.000119117
0.000124424
0.000125469
0.000132458
0.000130214
0.000136249
0.00012299
0.000122865
0.000131368
0.000130861
0.000129573
0.000136261
0.00012443
0.000124449
0.000131435
0.000129584
0.000126453
0.000130941
0.000129703
0.000130792
0.00013548
0.000126761
0.00013049
0.00012982
0.000134381
0.000136723
0.000136075
0.000132693
0.000132699
0.000131945
0.000132383
0.000136963
0.000136227
0.000132211
0.000132359
0.000131235
0.000133526
0.000129924
0.000132864
0.000131926
0.000136914
0.000137699
0.000130026
0.000133585
0.000131612
0.000136694
0.000136244
0.00014296
0.000132037
0.000131943
0.000140336
0.000139818
0.000135934
0.000142732
0.000132195
0.000133325
0.000140746
0.000139574
0.000133936
0.000138897
0.000140773
0.000137519
0.000141876
0.000133497
0.000139139
0.000140626
0.000142824
0.000143425
0.000142337
0.000141864
0.000142092
0.000141481
0.000143101
0.000143837
0.000144056
0.000142074
0.000141098
0.000141463
0.000140864
0.000142066
0.000144151
0.000142255
0.000142657
0.000142244
0.000142182
0.000141663
0.000142953
0.000143219
0.000141987
0.000148646
0.000140923
0.000142543
0.000147785
0.00014595
0.000143741
0.000147071
0.000140825
0.000140364
0.000147541
0.0001477
0.000141795
0.000145212
0.000145083
0.000141989
0.00014857
0.000142523
0.000146615
0.000144875
0.000146588
0.000149664
0.000149329
0.000150157
0.000148788
0.000151411
0.00015245
0.000148451
0.000150033
0.000150113
0.000150703
0.000151916
0.000153851
0.000148021
0.000152534
0.000153736
0.000150067
0.000150982
0.000147649
0.000153626
0.000153156
0.000150978
0.000148961
0.000152015
0.000150975
0.000152261
0.000153421
0.000150184
0.000149823
0.000148372
0.000151389
0.0001535
0.000152976
0.000151608
0.000154049
0.00015051
0.000152412
0.000150745
0.000149562
0.000153454
0.000152004
0.000151728
0.000149054
0.000153372
0.000155235
0.000154715
0.000150084
0.000158447
0.00016079
0.000149011
0.000158356
0.000155859
0.00015226
0.000158162
0.000158211
0.00015162
0.00016081
0.000160336
0.000150442
0.000155979
0.000151035
0.000158138
0.000160406
0.000158562
0.000155385
0.000158697
0.000160309
0.00016365
0.000164269
0.000166266
0.000159593
0.00015997
0.000158693
0.000159911
0.000164118
0.000165464
0.000163709
0.000166421
0.000166478
0.000156595
0.000160045
0.000163807
0.000166466
0.000166839
0.000160137
0.000158901
0.000158615
0.000164377
0.000166061
0.000163914
0.000163824
0.000159646
0.000156994
0.000165137
0.000166269
0.000164768
0.000165435
0.000166147
0.000163703
0.00016221
0.000160217
0.000158472
0.000166605
0.000165356
0.000163049
0.000155201
0.000159029
0.000163245
0.000165563
0.000163176
0.000169872
0.000166456
0.000156833
0.000161158
0.000164438
0.000164665
0.000170027
0.000168112
0.000161175
0.00016531
0.000166664
0.000157992
0.000162226
0.0001621
0.000165829
0.000166342
0.000162958
0.00016337
0.000163938
0.000169888
0.000168704
0.000170831
0.000175886
0.000162556
0.000168843
0.000171231
0.000170283
0.000171386
0.000173583
0.000171123
0.0001774
0.000178746
0.000163565
0.000166254
0.000170862
0.000175304
0.000178673
0.000170327
0.00016501
0.0001702
0.000173752
0.000177655
0.000180045
0.000179137
0.000169325
0.000168397
0.000172696
0.000175077
0.000179316
0.000177915
0.000179302
0.000179266
0.000178199
0.000166823
0.000168427
0.000179191
0.000178417
0.000177616
0.000166353
0.000170273
0.000168382
0.00018049
0.000178929
0.000179579
0.000177417
0.000168083
0.000166706
0.000180125
0.000177877
0.000179666
0.000178141
0.000176859
0.000176358
0.000173957
0.000168285
0.000167418
0.000176147
0.000176399
0.000172985
0.000164155
0.000167926
0.000171178
0.000178835
0.0001769
0.000179489
0.000181444
0.000167036
0.000172758
0.000179024
0.000178812
0.000179102
0.000181134
0.000174086
0.00018209
0.000185479
0.000167945
0.000172369
0.00017333
0.000182724
0.000186178
0.000176617
0.000172999
0.000176696
0.000183196
0.000183969
0.000188773
0.000187844
0.000173677
0.000175312
0.000182658
0.000182969
0.000189011
0.000189088
0.000187759
0.000188213
0.000189263
0.000173176
0.000176938
0.000188591
0.000189808
0.000190234
0.000176159
0.000176495
0.000174561
0.000189003
0.000187983
0.000188121
0.000189201
0.00017528
0.000176258
0.000189385
0.000189945
0.000188713
0.000189742
0.000189015
0.000189116
0.00018712
0.00017708
0.000175226
0.000189982
0.000188971
0.00018749
0.000173496
0.000174471
0.000177777
0.000187872
0.000189732
0.000190406
0.00018968
0.000176441
0.000176307
0.000188388
0.000188983
0.000189127
0.000187424
0.000186589
0.000189025
0.000190216
0.000174772
0.000175531
0.000186918
0.000186614
0.000188072
0.000177859
0.000178287
0.000181385
0.000191003
0.000189644
0.000194996
0.000195619
0.000176352
0.000182305
0.000190878
0.000188497
0.000196055
0.000195889
0.000193008
0.000196508
0.000197411
0.000176788
0.000181701
0.000191473
0.000196213
0.000197249
0.000182974
0.000181836
0.000181558
0.000196511
0.000197422
0.000198012
0.000198764
0.000182956
0.000182321
0.000197031
0.00019696
0.000197421
0.00019738
0.00019767
0.000198516
0.000196993
0.000181745
0.000181468
0.00019766
0.000197467
0.000197308
0.000180887
0.0001812
0.000182149
0.00019789
0.000198545
0.000196978
0.00019721
0.000181881
0.000180956
0.000197051
0.000197916
0.000197291
0.000202219
0.00019658
0.000196524
0.000195554
0.000181894
0.000186976
0.000197006
0.000201846
0.000197178
0.000181561
0.00018327
0.000187363
0.000197582
0.000197625
0.00020357
0.000204042
0.000181941
0.000188715
0.00019997
0.000202806
0.000203768
0.000201975
0.00019598
0.0002042
0.000203044
0.000187142
0.000183644
0.000198312
0.000202074
0.000202456
0.000186191
0.000187294
0.000184778
0.000204344
0.000204828
0.000204211
0.000203972
0.000188791
0.000184801
0.000204112
0.000200063
0.000202172
0.000196645
0.000204443
0.00020415
0.000205581
0.000182651
0.00017879
0.000203392
0.000197927
0.000204107
0.000186932
0.000184247
0.000185485
0.000203505
0.000202727
0.000201809
0.000200181
0.000184079
0.000182438
0.000201529
0.000196024
0.000202161
0.000208812
0.00020521
0.00020079
0.000204043
0.00017925
0.000192681
0.000203963
0.000208297
0.000203535
0.000186281
0.000187053
0.000193339
0.000202606
0.000200109
0.000211021
0.000211088
0.000183188
0.000193274
0.000206267
0.00021273
0.000213432
0.000217231
0.000203918
0.000210565
0.000208099
0.000194131
0.000196193
0.000205407
0.000214929
0.000209671
0.000190333
0.000193551
0.000194135
0.000212776
0.000214063
0.000215238
0.000218234
0.00019449
0.000198297
0.000214329
0.000217567
0.000215108
0.000212064
0.000209711
0.000217055
0.000213622
0.000195417
0.00019049
0.000210423
0.000211218
0.000212716
0.000192942
0.00019401
0.000190534
0.000215751
0.00021878
0.000213105
0.000211165
0.000197514
0.000188868
0.000214408
0.000210134
0.000209992
0.000206454
0.000214368
0.000211787
0.000215447
0.000189921
0.00018726
0.000213254
0.000208889
0.000214236
0.000193815
0.000189557
0.000186815
0.000210737
0.000208949
0.000207325
0.00020612
0.000187804
0.000186899
0.000208698
0.000205845
0.000206523
0.000207549
0.000214144
0.000207387
0.000210488
0.000186806
0.000190031
0.000213805
0.000209745
0.000211176
0.000189417
0.000187442
0.000195643
0.000206829
0.000206474
0.000214886
0.000216221
0.000187995
0.000196447
0.000207317
0.000211037
0.000216775
0.000218805
0.000209697
0.000216374
0.000214576
0.000191313
0.000196986
0.000210542
0.000217336
0.000214657
0.000195075
0.000196539
0.000199222
0.000217614
0.000218736
0.000222104
0.000222513
0.00019728
0.00019987
0.00021893
0.000220341
0.00022233
0.000222672
0.0002176
0.000222076
0.000221194
0.00019752
0.000199517
0.000217527
0.000221491
0.000220926
0.000199359
0.00019931
0.000199304
0.000222836
0.000223126
0.000223701
0.000220733
0.00019972
0.000196167
0.000222864
0.000223184
0.000223184
0.000220168
0.000220469
0.000219083
0.000216065
0.000199424
0.000196084
0.000220194
0.000219142
0.000216029
0.000190639
0.000198223
0.000193674
0.000221655
0.00021895
0.00021714
0.000216709
0.000195494
0.000194302
0.00022111
0.000218572
0.000217054
0.000216657
0.000215144
0.000217981
0.000225247
0.000195435
0.000194608
0.00021514
0.000218505
0.000225449
0.000204735
0.000193146
0.000197393
0.000216513
0.00021671
0.000219572
0.000221804
0.000194995
0.0001997
0.000216459
0.000216916
0.000219691
0.000222279
0.000227589
0.000223123
0.000229586
0.000195487
0.000200324
0.000227765
0.000223739
0.000229583
0.00020255
0.000198105
0.000199382
0.000221396
0.000222801
0.000223775
0.000222002
0.000199721
0.000195987
0.00022148
0.000223248
0.000223841
0.000221893
0.000222615
0.000219202
0.000210252
0.000200319
0.000195839
0.000222621
0.000219188
0.000210498
0.000183592
0.000198681
0.000195659
0.000223063
0.000220657
0.000220793
0.000218581
0.000195227
0.000194845
0.000223034
0.000220177
0.000220478
0.000217493
0.000208444
0.000216899
0.000217542
0.000195009
0.000193161
0.000208779
0.000215885
0.000217108
0.00019814
0.0001952
0.000203493
0.000220121
0.00021913
0.000227205
0.000229157
0.000196279
0.000205873
0.000219715
0.00021727
0.000226924
0.000228413
0.000225524
0.000231456
0.00024036
0.00019399
0.000205334
0.000224696
0.000230365
0.00023966
0.000216052
0.000204468
0.000206953
0.00022947
0.000231004
0.000233356
0.000234295
0.000206489
0.000207283
0.000229485
0.000231217
0.000233715
0.000235984
0.000242877
0.00023699
0.000244634
0.000206486
0.000209974
0.000242197
0.000238508
0.000245671
0.00021294
0.000205685
0.000197695
0.000233289
0.000233618
0.000224627
0.000224184
0.000205777
0.000196786
0.000233875
0.000236089
0.000224909
0.000224484
0.0002367
0.000222088
0.000213035
0.000208295
0.00019645
0.000238648
0.000222689
0.000213418
0.000186239
0.000196646
0.00019373
0.000222213
0.000221358
0.000218628
0.0002167
0.000195415
0.000190968
0.000222315
0.000221139
0.000218411
0.000216107
0.000208279
0.000213236
0.000201714
0.000194862
0.000190452
0.000208231
0.000212384
0.000201131
0.00017858
0.000193361
0.000197979
0.000218038
0.000215915
0.000220889
0.000219533
0.000190291
0.00019783
0.0002178
0.000215305
0.000220403
0.000218588
0.000201529
0.00022126
0.000227049
0.000189913
0.000197136
0.000200696
0.000220455
0.000226811
0.000204713
0.000199319
0.000205478
0.000223871
0.00022404
0.000231528
0.000234798
0.000199815
0.00020989
0.000223746
0.000223614
0.000232233
0.000236059
0.000235956
0.000239109
0.000251969
0.000199226
0.000211064
0.000236174
0.000240547
0.000253026
0.000225417
0.000206142
0.000209892
0.000233523
0.000236988
0.000238133
0.000241761
0.000210643
0.000212405
0.000234203
0.000238463
0.000238665
0.000243583
0.000255054
0.000245002
0.000251396
0.000212001
0.000213709
0.000256278
0.000247261
0.00025262
0.000216099
0.000209997
0.000203888
0.000239463
0.000241982
0.000233324
0.000227617
0.000210487
0.000197496
0.00023977
0.000242429
0.000232019
0.000225027
0.000239626
0.000222806
0.000211067
0.000210999
0.000195077
0.000240334
0.000220764
0.00021043
0.000183208
0.000201209
0.000190823
0.000227751
0.000222529
0.000216958
0.00021536
0.000195044
0.000189124
0.000227036
0.000220547
0.000217442
0.000215923
0.000206424
0.000213352
0.000202541
0.000192944
0.000189563
0.000205525
0.00021222
0.000201146
0.000180918
0.000191977
0.000214428
0.000213364
0.000190577
0.000214943
0.000214083
0.000231564
0.000231131
0.000218587
0.000204549
0.000191335
0.000203271
1.80125e-06
1.87322e-06
1.17649e-06
1.01971e-06
1.32904e-06
1.90488e-06
5.97187e-07
1.22694e-06
1.23026e-06
2.39781e-06
1.38009e-06
1.73215e-06
2.28879e-06
2.14844e-06
1.94585e-06
1.16575e-06
1.34279e-05
1.04117e-06
1.51721e-05
1.05691e-05
1.28129e-05
1.32478e-06
1.33285e-05
1.25353e-06
1.50786e-05
1.62056e-06
1.64886e-06
1.61482e-06
1.58219e-06
1.6484e-06
1.66997e-06
1.64517e-06
1.35575e-06
3.2959e-07
1.6168e-06
1.74316e-06
1.33262e-06
4.3625e-07
1.62481e-06
1.07991e-05
1.30937e-05
1.21878e-06
1.77941e-06
5.35579e-07
2.17742e-06
1.22056e-06
1.78789e-06
6.47932e-07
1.4615e-06
1.46472e-06
2.25749e-06
1.66227e-06
1.67821e-06
1.36399e-06
1.83643e-05
1.28278e-06
2.08703e-05
1.6813e-05
1.90446e-05
1.51041e-06
1.82389e-05
1.45116e-06
2.06373e-05
1.64904e-06
1.66863e-06
1.64715e-06
1.58045e-06
1.64897e-06
1.66378e-06