/*--------------------------------*- C++ -*----------------------------------*\
| =========                 |                                                 |
| \\      /  F ield         | OpenFOAM: The Open Source CFD Toolbox           |
|  \\    /   O peration     | Version:  v2012                                 |
|   \\  /    A nd           | Website:  www.openfoam.com                      |
|    \\/     M anipulation  |                                                 |
\*---------------------------------------------------------------------------*/
FoamFile
{
    version     2.0;
    format      ascii;
    class       volScalarField;
    location    "687.5";
    object      epsilon;
}
// * * * * * * * * * * * * * * * * * * * * * * * * * * * * * * * * * * * * * //

dimensions      [0 2 -3 0 0 0 0];


internalField   nonuniform List<scalar> 
171728
(
1.74307e-09
4.18012e-09
4.84354e-09
4.86707e-09
1.62132e-09
3.89626e-09
4.51699e-09
4.42978e-09
1.5006e-09
3.44676e-09
4.1766e-09
4.03907e-09
1.43295e-09
2.94564e-09
3.89432e-09
3.69376e-09
1.38091e-09
2.53806e-09
3.64737e-09
3.40531e-09
1.33266e-09
2.2735e-09
3.44127e-09
3.17186e-09
1.28883e-09
2.09637e-09
3.28101e-09
2.99402e-09
1.24842e-09
1.97964e-09
3.15374e-09
2.86038e-09
1.21103e-09
1.90735e-09
3.05827e-09
2.76763e-09
1.17518e-09
1.8736e-09
2.97995e-09
2.71191e-09
1.14172e-09
1.87216e-09
2.93532e-09
2.69139e-09
1.11025e-09
1.90695e-09
2.92964e-09
2.69975e-09
1.07815e-09
1.98319e-09
2.96758e-09
2.71185e-09
1.04442e-09
2.11721e-09
3.01964e-09
2.80155e-09
1.01262e-09
2.32101e-09
3.1576e-09
2.99409e-09
9.83363e-10
2.63585e-09
3.35117e-09
3.24971e-09
9.54673e-10
3.13163e-09
3.6989e-09
3.60448e-09
9.29048e-10
3.86594e-09
4.21453e-09
4.19388e-09
9.06006e-10
4.96364e-09
5.14382e-09
5.60377e-09
8.92979e-10
6.63524e-09
6.63717e-09
7.58889e-09
8.89634e-10
8.97425e-09
9.25292e-09
1.19048e-08
8.91125e-10
1.24548e-08
1.26795e-08
1.8286e-08
9.18905e-10
1.7339e-08
1.76711e-08
3.05514e-08
9.64071e-10
2.39962e-08
2.42631e-08
4.35428e-08
1.05159e-09
3.28526e-08
3.30548e-08
7.42244e-08
1.15625e-09
4.39566e-08
4.52499e-08
1.14609e-07
1.31234e-09
5.85805e-08
5.82636e-08
1.57287e-07
1.60771e-09
7.46157e-08
7.63677e-08
2.16135e-07
1.97426e-09
9.57798e-08
9.57915e-08
2.97382e-07
2.61543e-09
1.17361e-07
1.17791e-07
3.77384e-07
3.30687e-09
1.43527e-07
1.46579e-07
4.43964e-07
4.14441e-09
1.72982e-07
1.74667e-07
5.05548e-07
5.49192e-09
2.04872e-07
2.03501e-07
5.97043e-07
7.26651e-09
2.39546e-07
2.44973e-07
6.59356e-07
9.54653e-09
2.88174e-07
2.77447e-07
6.90178e-07
1.1936e-08
3.08354e-07
3.23017e-07
7.65141e-07
1.61336e-08
3.67696e-07
3.65977e-07
8.08887e-07
2.08234e-08
4.12702e-07
4.07391e-07
8.38538e-07
2.61449e-08
4.53904e-07
4.6139e-07
8.82011e-07
3.25812e-08
5.00681e-07
5.01827e-07
9.15885e-07
4.186e-08
5.53666e-07
5.50316e-07
9.47464e-07
5.12258e-08
5.98398e-07
6.15324e-07
9.81931e-07
6.37961e-08
6.55368e-07
6.453e-07
1.00109e-06
7.38339e-08
6.90167e-07
6.94575e-07
1.03519e-06
9.25163e-08
7.37147e-07
7.4211e-07
1.07385e-06
1.10683e-07
7.97749e-07
7.92737e-07
1.09583e-06
1.27152e-07
8.21521e-07
8.25294e-07
1.11136e-06
1.48593e-07
8.62913e-07
8.64573e-07
1.14579e-06
1.75224e-07
9.07363e-07
9.0852e-07
1.17811e-06
1.99799e-07
9.4882e-07
9.40657e-07
1.19471e-06
2.27916e-07
9.66794e-07
9.69823e-07
1.22096e-06
2.56199e-07
9.88934e-07
9.95707e-07
1.23514e-06
2.80269e-07
1.03462e-06
1.03605e-06
1.2556e-06
3.23144e-07
1.06512e-06
1.05807e-06
1.29348e-06
3.56727e-07
1.07553e-06
1.0658e-06
1.3033e-06
3.71152e-07
1.09603e-06
1.09258e-06
1.30324e-06
4.12426e-07
1.10984e-06
1.12683e-06
1.32597e-06
4.38286e-07
1.13763e-06
1.13869e-06
1.37934e-06
4.771e-07
1.1805e-06
1.16873e-06
1.38214e-06
5.14029e-07
1.1666e-06
1.16644e-06
1.34086e-06
5.21481e-07
1.16531e-06
1.1644e-06
1.35552e-06
5.35899e-07
1.2295e-06
1.22108e-06
1.46485e-06
5.90894e-07
1.23575e-06
1.24735e-06
1.47047e-06
6.14186e-07
1.20471e-06
1.22556e-06
1.39161e-06
6.1177e-07
1.21717e-06
1.21266e-06
1.38919e-06
6.26674e-07
1.28723e-06
1.25483e-06
1.47391e-06
6.6852e-07
1.29057e-06
1.28944e-06
1.49521e-06
6.8325e-07
1.24944e-06
1.27623e-06
1.46325e-06
6.82989e-07
1.24805e-06
1.26666e-06
1.46056e-06
7.01158e-07
1.29687e-06
1.28844e-06
1.49223e-06
7.25391e-07
1.3061e-06
1.29727e-06
1.48995e-06
7.35044e-07
1.29872e-06
1.29438e-06
1.4824e-06
7.46175e-07
1.31119e-06
1.31933e-06
1.52798e-06
7.65638e-07
1.31572e-06
1.32376e-06
1.52925e-06
7.67377e-07
1.30084e-06
1.2945e-06
1.48636e-06
7.67786e-07
1.31403e-06
1.30823e-06
1.50744e-06
7.92826e-07
1.33906e-06
1.34093e-06
1.55271e-06
8.00134e-07
1.3126e-06
1.32347e-06
1.52608e-06
7.87401e-07
1.28773e-06
1.29464e-06
1.48044e-06
7.88759e-07
1.32522e-06
1.30843e-06
1.51735e-06
8.20461e-07
1.36385e-06
1.35038e-06
1.57492e-06
8.27121e-07
1.33437e-06
1.34526e-06
1.55795e-06
8.01381e-07
1.27729e-06
1.29712e-06
1.49305e-06
7.88892e-07
1.27806e-06
1.28411e-06
1.48903e-06
8.06774e-07
1.33253e-06
1.31443e-06
1.53866e-06
8.26422e-07
1.34253e-06
1.32827e-06
1.54832e-06
8.18182e-07
1.31041e-06
1.31696e-06
1.52787e-06
7.99429e-07
1.28674e-06
1.30318e-06
1.51376e-06
7.9447e-07
1.2896e-06
1.28785e-06
1.51038e-06
7.99297e-07
1.29578e-06
1.2845e-06
1.51129e-06
8.00545e-07
1.2836e-06
1.28658e-06
1.50897e-06
7.92172e-07
1.271e-06
1.2802e-06
1.49703e-06
7.86359e-07
1.27501e-06
1.27429e-06
1.49824e-06
7.83732e-07
1.27541e-06
1.2698e-06
1.50102e-06
7.60046e-07
1.20229e-06
1.20162e-06
1.44725e-06
5.53038e-09
4.12224e-09
3.81711e-09
4.95161e-09
2.84886e-09
4.43401e-09
1.62267e-09
1.26319e-09
1.75783e-09
1.7227e-09
3.44412e-09
4.21987e-09
5.09165e-09
4.04997e-09
4.20328e-09
4.89314e-09
5.4416e-09
5.00589e-09
4.66113e-09
3.29067e-09
4.38325e-09
3.11544e-09
4.93065e-09
4.48242e-09
2.65127e-08
7.50518e-09
1.32011e-08
7.17387e-09
4.76314e-09
3.98945e-09
4.51805e-09
5.0442e-09
4.65925e-09
4.62131e-09
4.61247e-09
4.34021e-09
4.46199e-09
4.93923e-09
4.38084e-09
4.27783e-09
3.04586e-09
3.98672e-09
2.85348e-09
4.45397e-09
4.03922e-09
1.03033e-08
7.05222e-09
5.69473e-09
6.73151e-09
4.43158e-09
3.56798e-09
4.19046e-09
4.58298e-09
4.27261e-09
4.24324e-09
4.25611e-09
3.97405e-09
4.06784e-09
4.33996e-09
3.93868e-09
3.89701e-09
2.79371e-09
3.64007e-09
2.62706e-09
4.01564e-09
3.6471e-09
4.99952e-09
6.63043e-09
3.96586e-09
6.35115e-09
4.11695e-09
3.06855e-09
3.91101e-09
4.2114e-09
3.98256e-09
3.88651e-09
3.96061e-09
3.63886e-09
3.71887e-09
3.91029e-09
3.57985e-09
3.55905e-09
2.5745e-09
3.33504e-09
2.42581e-09
3.62657e-09
3.30016e-09
3.79913e-09
6.26153e-09
3.48779e-09
5.97289e-09
3.84903e-09
2.6252e-09
3.68904e-09
3.93451e-09
3.74425e-09
3.56262e-09
3.7059e-09
3.34907e-09
3.42569e-09
3.55748e-09
3.291e-09
3.26646e-09
2.37896e-09
3.0724e-09
2.2503e-09
3.28677e-09
3.01463e-09
3.40817e-09
5.87967e-09
3.20861e-09
5.64245e-09
3.64144e-09
2.3296e-09
3.51982e-09
3.70134e-09
3.54791e-09
3.28394e-09
3.48833e-09
3.10778e-09
3.18735e-09
3.27305e-09
3.04158e-09
3.01179e-09
2.2119e-09
2.84145e-09
2.10963e-09
3.00426e-09
2.79579e-09
3.15391e-09
5.58615e-09
3.01521e-09
5.48373e-09
3.48718e-09
2.13381e-09
3.41406e-09
3.52037e-09
3.42912e-09
3.05456e-09
3.31741e-09
2.9199e-09
3.0047e-09
3.02774e-09
2.83608e-09
2.79039e-09
2.08e-09
2.65791e-09
2.00063e-09
2.7924e-09
2.59758e-09
2.97591e-09
5.46657e-09
2.87574e-09
5.44426e-09
3.39623e-09
2.00423e-09
3.36084e-09
3.41331e-09
3.31733e-09
2.88337e-09
3.18091e-09
2.79254e-09
2.86689e-09
2.82664e-09
2.67405e-09
2.61976e-09
1.97831e-09
2.52583e-09
1.92403e-09
2.59438e-09
2.42393e-09
2.84895e-09
5.43164e-09
2.78494e-09
5.28876e-09
3.3603e-09
1.9206e-09
3.37131e-09
3.30457e-09
3.14173e-09
2.76676e-09
3.08119e-09
2.71096e-09
2.76989e-09
2.66892e-09
2.54843e-09
2.50015e-09
1.91112e-09
2.43989e-09
1.87914e-09
2.42444e-09
2.29707e-09
2.76701e-09
5.20416e-09
2.73017e-09
4.85198e-09
3.38374e-09
1.87854e-09
3.43777e-09
3.1208e-09
2.95967e-09
2.69702e-09
2.9986e-09
2.67204e-09
2.71048e-09
2.54759e-09
2.46115e-09
2.42432e-09
1.87349e-09
2.3973e-09
1.86875e-09
2.30043e-09
2.20277e-09
2.72062e-09
4.71133e-09
2.71659e-09
4.34912e-09
3.46179e-09
1.86952e-09
3.5695e-09
2.94988e-09
2.82177e-09
2.66527e-09
2.94056e-09
2.66723e-09
2.68432e-09
2.46431e-09
2.41288e-09
2.39582e-09
1.87107e-09
2.4047e-09
1.89218e-09
2.20926e-09
2.14709e-09
2.71965e-09
4.24797e-09
2.75245e-09
3.94999e-09
3.62012e-09
1.89761e-09
3.78459e-09
2.81639e-09
2.67475e-09
2.67203e-09
2.92792e-09
2.71069e-09
2.68762e-09
2.42248e-09
2.40618e-09
2.41239e-09
1.90469e-09
2.44958e-09
1.9566e-09
2.16003e-09
2.13292e-09
2.77318e-09
3.84757e-09
2.85024e-09
3.51763e-09
3.83273e-09
1.96372e-09
3.93462e-09
2.66846e-09
2.56294e-09
2.73295e-09
2.95745e-09
2.81594e-09
2.69455e-09
2.42517e-09
2.44785e-09
2.46634e-09
1.9801e-09
2.53748e-09
2.07148e-09
2.15458e-09
2.169e-09
2.88866e-09
3.43396e-09
3.01751e-09
3.23869e-09
3.95496e-09
2.08311e-09
4.01466e-09
2.57295e-09
2.53895e-09
2.85455e-09
2.99065e-09
2.99696e-09
2.76178e-09
2.47999e-09
2.5614e-09
2.56985e-09
2.10973e-09
2.69851e-09
2.25385e-09
2.20301e-09
2.26926e-09
3.07187e-09
3.21655e-09
3.28537e-09
3.26851e-09
4.04145e-09
2.26623e-09
4.14629e-09
2.56148e-09
2.60126e-09
3.05336e-09
3.13992e-09
3.28004e-09
2.93114e-09
2.61772e-09
2.78021e-09
2.75358e-09
2.31188e-09
2.95333e-09
2.5311e-09
2.32494e-09
2.47227e-09
3.36697e-09
3.30348e-09
3.6705e-09
3.35005e-09
4.19177e-09
2.55576e-09
4.38483e-09
2.64713e-09
2.74493e-09
3.3656e-09
3.29328e-09
3.66846e-09
3.16617e-09
2.87504e-09
3.17234e-09
3.04657e-09
2.62002e-09
3.36916e-09
2.96297e-09
2.56414e-09
2.82974e-09
3.78244e-09
3.37134e-09
4.242e-09
3.59852e-09
4.47313e-09
2.99621e-09
4.65895e-09
2.82452e-09
3.06795e-09
3.79518e-09
3.59494e-09
4.23007e-09
3.47624e-09
3.33112e-09
3.85583e-09
3.50283e-09
3.10469e-09
4.0486e-09
3.62757e-09
2.98686e-09
3.47791e-09
4.41992e-09
3.72441e-09
5.03316e-09
4.22765e-09
4.71803e-09
3.65095e-09
4.88174e-09
3.20817e-09
3.65122e-09
4.43028e-09
4.03458e-09
5.00815e-09
3.94172e-09
4.12741e-09
5.02795e-09
4.23995e-09
3.83502e-09
5.03885e-09
4.59528e-09
3.72698e-09
4.56579e-09
5.35149e-09
4.38556e-09
6.22305e-09
4.9722e-09
4.95477e-09
4.6549e-09
5.41198e-09
3.88671e-09
4.59294e-09
5.31439e-09
4.87968e-09
6.34709e-09
5.21679e-09
5.46161e-09
7.13299e-09
5.374e-09
4.91185e-09
6.50191e-09
6.10465e-09
4.99054e-09
6.55678e-09
6.58093e-09
5.3138e-09
8.24606e-09
6.53805e-09
5.64567e-09
6.15539e-09
6.45588e-09
4.99918e-09
6.61731e-09
6.62118e-09
6.19464e-09
8.27172e-09
6.92683e-09
7.82255e-09
1.06865e-08
6.94724e-09
6.58598e-09
8.78662e-09
8.25521e-09
7.27859e-09
9.90503e-09
8.68126e-09
6.97075e-09
1.06132e-08
8.67946e-09
6.86323e-09
8.29309e-09
8.5703e-09
7.29308e-09
9.83552e-09
8.76245e-09
8.50401e-09
1.05359e-08
1.054e-08
1.1928e-08
1.63448e-08
9.50664e-09
8.93846e-09
1.1834e-08
1.14775e-08
1.10229e-08
1.58742e-08
1.16494e-08
9.42274e-09
1.40545e-08
1.18703e-08
9.30795e-09
1.14974e-08
1.15263e-08
1.09957e-08
1.57958e-08
1.16437e-08
1.17137e-08
1.43556e-08
1.6698e-08
1.81214e-08
2.73192e-08
1.29228e-08
1.24355e-08
1.66778e-08
1.59797e-08
1.77604e-08
2.56908e-08
1.49968e-08
1.28311e-08
1.97065e-08
1.64075e-08
1.24441e-08
1.59416e-08
1.64617e-08
1.75682e-08
2.5603e-08
1.504e-08
1.62829e-08
1.9427e-08
2.74359e-08
3.00822e-08
4.05745e-08
1.7932e-08
1.73815e-08
2.25777e-08
2.2138e-08
2.86444e-08
4.20425e-08
2.08791e-08
1.77493e-08
2.50267e-08
2.25367e-08
1.77417e-08
2.20911e-08
2.18363e-08
2.84878e-08
4.21762e-08
2.08028e-08
2.24971e-08
2.41009e-08
3.96518e-08
4.52021e-08
6.82508e-08
2.46601e-08
2.40646e-08
3.10911e-08
3.05203e-08
4.64171e-08
6.71765e-08
2.7334e-08
2.43966e-08
3.46499e-08
3.06399e-08
2.39379e-08
3.04257e-08
3.05448e-08
4.65273e-08
6.50999e-08
2.61598e-08
3.05407e-08
3.2947e-08
6.80898e-08
7.40138e-08
1.03205e-07
3.33787e-08
3.29757e-08
4.25092e-08
4.11125e-08
7.32582e-08
1.00565e-07
3.74905e-08
3.31498e-08
4.74538e-08
4.20913e-08
3.2717e-08
4.09438e-08
4.17462e-08
7.11059e-08
1.02525e-07
3.5982e-08
4.20766e-08
4.78935e-08
1.04311e-07
1.12874e-07
1.48495e-07
4.60629e-08
4.41369e-08
5.60953e-08
5.50903e-08
1.0877e-07
1.48225e-07
5.00128e-08
4.52827e-08
5.68882e-08
5.54541e-08
4.56541e-08
5.4729e-08
5.51513e-08
1.1135e-07
1.48153e-07
5.108e-08
5.47147e-08
5.56981e-08
1.5048e-07
1.56587e-07
2.0046e-07
5.9387e-08
5.89197e-08
7.20545e-08
7.05152e-08
1.59493e-07
2.05933e-07
5.9933e-08
5.90122e-08
7.17076e-08
7.2574e-08
5.74136e-08
7.02133e-08
7.11015e-08
1.58349e-07
2.06665e-07
5.74715e-08
7.18017e-08
7.33315e-08
1.9904e-07
2.15513e-07
2.8118e-07
7.76635e-08
7.49945e-08
9.33357e-08
9.06104e-08
2.17798e-07
2.76354e-07
7.69498e-08
7.7541e-08
9.27588e-08
9.16722e-08
7.72776e-08
9.00298e-08
8.9708e-08
2.2026e-07
2.77415e-07
8.01635e-08
9.01554e-08
9.21438e-08
2.85958e-07
2.94741e-07
3.46613e-07
9.73443e-08
9.64178e-08
1.14139e-07
1.12656e-07
2.92693e-07
3.53935e-07
9.67468e-08
9.76683e-08
1.12661e-07
1.16082e-07
9.44852e-08
1.12021e-07
1.15623e-07
2.91573e-07
3.50699e-07
9.64534e-08
1.12783e-07
1.18347e-07
3.55656e-07
3.6319e-07
4.38515e-07
1.22315e-07
1.18039e-07
1.4538e-07
1.37804e-07
3.68604e-07
4.26326e-07
1.2004e-07
1.20995e-07
1.39877e-07
1.42007e-07
1.22065e-07
1.36773e-07
1.3866e-07
3.67353e-07
4.30784e-07
1.24777e-07
1.37417e-07
1.4138e-07
4.34866e-07
4.54344e-07
4.96301e-07
1.50859e-07
1.44602e-07
1.66393e-07
1.65392e-07
4.41756e-07
5.04191e-07
1.44886e-07
1.52164e-07
1.63434e-07
1.79282e-07
1.44275e-07
1.64408e-07
1.60838e-07
4.46818e-07
5.14359e-07
1.4824e-07
1.70549e-07
1.65239e-07
4.88317e-07
5.09956e-07
5.72603e-07
1.73169e-07
1.7396e-07
1.98975e-07
1.99983e-07
5.21191e-07
5.72013e-07
1.7154e-07
1.84312e-07
1.97012e-07
1.95725e-07
1.67681e-07
1.99016e-07
2.00263e-07
5.28666e-07
5.63595e-07
1.70799e-07
1.91994e-07
2.07054e-07
5.76729e-07
5.89144e-07
6.38159e-07
2.07949e-07
2.05819e-07
2.34442e-07
2.27638e-07
5.85268e-07
6.36604e-07
2.0516e-07
2.02935e-07
2.31179e-07
2.3577e-07
2.1228e-07
2.26672e-07
2.39571e-07
5.7739e-07
6.41138e-07
2.22056e-07
2.36406e-07
2.50819e-07
6.50465e-07
6.52334e-07
6.98032e-07
2.44097e-07
2.40674e-07
2.74022e-07
2.80826e-07
6.53392e-07
7.04778e-07
2.41176e-07
2.47388e-07
2.72326e-07
2.77623e-07
2.46343e-07
2.79065e-07
2.62294e-07
6.57061e-07
6.95094e-07
2.55096e-07
2.69649e-07
2.62632e-07
6.79377e-07
7.10652e-07
7.43795e-07
2.83225e-07
2.90059e-07
3.08695e-07
3.04623e-07
7.1575e-07
7.38339e-07
2.81652e-07
2.85789e-07
3.07999e-07
3.11326e-07
2.6945e-07
3.02515e-07
3.10107e-07
7.0674e-07
7.45627e-07
2.67392e-07
3.09712e-07
3.12755e-07
7.47895e-07
7.55085e-07
7.91106e-07
3.17603e-07
3.1013e-07
3.51904e-07
3.50628e-07
7.47703e-07
7.89488e-07
3.17357e-07
3.22532e-07
3.51845e-07
3.56567e-07
3.26997e-07
3.50637e-07
3.64593e-07
7.58739e-07
7.94331e-07
3.33202e-07
3.57202e-07
3.73882e-07
8.00568e-07
8.03698e-07
8.35923e-07
3.65047e-07
3.68322e-07
4.01149e-07
4.05349e-07
8.05821e-07
8.39897e-07
3.6448e-07
3.65383e-07
3.99924e-07
3.96065e-07
3.71099e-07
4.03358e-07
3.92085e-07
8.05053e-07
8.32709e-07
3.80675e-07
3.94424e-07
3.96535e-07
8.28654e-07
8.45671e-07
8.70108e-07
4.11839e-07
4.14115e-07
4.44264e-07
4.44102e-07
8.48198e-07
8.70066e-07
4.10831e-07
4.0892e-07
4.43756e-07
4.48694e-07
4.03506e-07
4.42249e-07
4.46847e-07
8.43274e-07
8.72824e-07
4.06039e-07
4.49349e-07
4.4812e-07
8.71479e-07
8.79451e-07
9.04869e-07
4.55828e-07
4.5591e-07
4.89823e-07
4.90938e-07
8.7943e-07
9.04481e-07
4.55104e-07
4.59891e-07
4.89629e-07
4.88359e-07
4.59433e-07
4.90131e-07
4.92206e-07
8.81764e-07
9.02121e-07
4.5929e-07
4.92474e-07
4.93189e-07
9.0684e-07
9.14157e-07
9.39008e-07
5.02222e-07
5.01192e-07
5.42361e-07
5.3998e-07
9.13606e-07
9.38433e-07
5.01869e-07
4.98213e-07
5.40643e-07
5.37928e-07
5.06743e-07
5.38925e-07
5.44111e-07
9.11007e-07
9.38086e-07
5.07267e-07
5.35008e-07
5.40249e-07
9.39082e-07
9.47874e-07
9.71398e-07
5.54251e-07
5.55521e-07
5.89078e-07
5.90708e-07
9.47628e-07
9.71438e-07
5.52984e-07
5.54513e-07
5.90057e-07
5.99168e-07
5.52298e-07
5.87784e-07
5.88584e-07
9.47994e-07
9.7475e-07
5.5071e-07
6.01052e-07
5.95352e-07
9.73329e-07
9.79852e-07
1.00115e-06
6.02278e-07
6.00215e-07
6.41076e-07
6.40231e-07
9.79567e-07
1.00267e-06
6.03177e-07
6.08361e-07
6.3954e-07
6.29405e-07
6.04528e-07
6.40959e-07
6.40362e-07
9.82705e-07
9.99131e-07
6.10403e-07
6.39809e-07
6.3967e-07
9.95833e-07
1.00819e-06
1.02539e-06
6.52484e-07
6.55196e-07
6.79903e-07
6.87295e-07
1.0108e-06
1.02724e-06
6.49883e-07
6.41351e-07
6.78593e-07
6.89638e-07
6.47159e-07
6.84445e-07
6.75161e-07
1.00561e-06
1.02643e-06
6.45051e-07
6.80056e-07
6.70532e-07
1.02316e-06
1.03285e-06
1.05963e-06
6.89107e-07
6.93293e-07
7.32781e-07
7.19336e-07
1.0329e-06
1.05251e-06
6.89676e-07
7.02452e-07
7.34109e-07
7.25277e-07
6.90658e-07
7.19595e-07
7.39354e-07
1.0351e-06
1.05666e-06
6.87022e-07
7.28588e-07
7.42832e-07
1.06699e-06
1.06864e-06
1.08774e-06
7.47991e-07
7.35627e-07
7.79469e-07
7.86642e-07
1.0623e-06
1.09335e-06
7.47892e-07
7.34881e-07
7.77246e-07
7.81621e-07
7.52564e-07
7.87067e-07
7.83456e-07
1.06411e-06
1.08933e-06
7.56661e-07
7.8481e-07
7.872e-07
1.0899e-06
1.09331e-06
1.10881e-06
7.89067e-07
7.98384e-07
8.14631e-07
8.17991e-07
1.10014e-06
1.11111e-06
7.86533e-07
7.94944e-07
8.14573e-07
8.17084e-07
7.90766e-07
8.15783e-07
8.08104e-07
1.09643e-06
1.10944e-06
7.94541e-07
8.14083e-07
8.09663e-07
1.10653e-06
1.11547e-06
1.13797e-06
8.22463e-07
8.23486e-07
8.58625e-07
8.52194e-07
1.11561e-06
1.13181e-06
8.23617e-07
8.24886e-07
8.57565e-07
8.52911e-07
8.16858e-07
8.51559e-07
8.57104e-07
1.11524e-06
1.13695e-06
8.16701e-07
8.55642e-07
8.53089e-07
1.13654e-06
1.14585e-06
1.16559e-06
8.7118e-07
8.63296e-07
8.95815e-07
8.94433e-07
1.13945e-06
1.16583e-06
8.69479e-07
8.63201e-07
8.96424e-07
8.99031e-07
8.71049e-07
8.95101e-07
9.0494e-07
1.14403e-06
1.16434e-06
8.67171e-07
8.97925e-07
9.05447e-07
1.17187e-06
1.17106e-06
1.18867e-06
9.03372e-07
9.065e-07
9.33743e-07
9.41219e-07
1.17472e-06
1.19853e-06
9.04383e-07
9.09371e-07
9.32435e-07
9.328e-07
9.11967e-07
9.41256e-07
9.28073e-07
1.17169e-06
1.19124e-06
9.14674e-07
9.32819e-07
9.31026e-07
1.18976e-06
1.19596e-06
1.21309e-06
9.43821e-07
9.48927e-07
9.65834e-07
9.63051e-07
1.20344e-06
1.2085e-06
9.41553e-07
9.40768e-07
9.64808e-07
9.65327e-07
9.36715e-07
9.63244e-07
9.69314e-07
1.19655e-06
1.20962e-06
9.37595e-07
9.63703e-07
9.67893e-07
1.21465e-06
1.21765e-06
1.23013e-06
9.71967e-07
9.66625e-07
9.90714e-07
9.81772e-07
1.21132e-06
1.21998e-06
9.71949e-07
9.7192e-07
9.92414e-07
9.88592e-07
9.7741e-07
9.80865e-07
9.90802e-07
1.21463e-06
1.22854e-06
9.76808e-07
9.87636e-07
9.92232e-07
1.23156e-06
1.23572e-06
1.25306e-06
9.96319e-07
9.90484e-07
1.0179e-06
1.02481e-06
1.22648e-06
1.25857e-06
9.97973e-07
9.9544e-07
1.01753e-06
1.02401e-06
9.94244e-07
1.02335e-06
1.01426e-06
1.2345e-06
1.26031e-06
9.95466e-07
1.02645e-06
1.01398e-06
1.24808e-06
1.26006e-06
1.28432e-06
1.02842e-06
1.0351e-06
1.05815e-06
1.05822e-06
1.26732e-06
1.29046e-06
1.02749e-06
1.03421e-06
1.05748e-06
1.05594e-06
1.0257e-06
1.05977e-06
1.0603e-06
1.26822e-06
1.28363e-06
1.02501e-06
1.05463e-06
1.05996e-06
1.28676e-06
1.2895e-06
1.29435e-06
1.06428e-06
1.06359e-06
1.07278e-06
1.07295e-06
1.29516e-06
1.29687e-06
1.06384e-06
1.06001e-06
1.07193e-06
1.06664e-06
1.06771e-06
1.07362e-06
1.07755e-06
1.28653e-06
1.28394e-06
1.06715e-06
1.06426e-06
1.07821e-06
1.30134e-06
1.29659e-06
1.30476e-06
1.0741e-06
1.07506e-06
1.08594e-06
1.09039e-06
1.2982e-06
1.30795e-06
1.07315e-06
1.06834e-06
1.0862e-06
1.08566e-06
1.07891e-06
1.08932e-06
1.08428e-06
1.2854e-06
1.30058e-06
1.08094e-06
1.08179e-06
1.08649e-06
1.30089e-06
1.31166e-06
1.33033e-06
1.09442e-06
1.09834e-06
1.11732e-06
1.11475e-06
1.31461e-06
1.32399e-06
1.09529e-06
1.09682e-06
1.11854e-06
1.12431e-06
1.08717e-06
1.10821e-06
1.10607e-06
1.31057e-06
1.33949e-06
1.08793e-06
1.12183e-06
1.1036e-06
1.31641e-06
1.33375e-06
1.34032e-06
1.1208e-06
1.11708e-06
1.12904e-06
1.12369e-06
1.32612e-06
1.33373e-06
1.12156e-06
1.12799e-06
1.13087e-06
1.13185e-06
1.1169e-06
1.12476e-06
1.15044e-06
1.34399e-06
1.3481e-06
1.11526e-06
1.13406e-06
1.15514e-06
1.37078e-06
1.34592e-06
1.37201e-06
1.13412e-06
1.13068e-06
1.15911e-06
1.1668e-06
1.34207e-06
1.38495e-06
1.1368e-06
1.13404e-06
1.15927e-06
1.15823e-06
1.15823e-06
1.17653e-06
1.1662e-06
1.35163e-06
1.37083e-06
1.16369e-06
1.16353e-06
1.16911e-06
1.38209e-06
1.37836e-06
1.38421e-06
1.16805e-06
1.17487e-06
1.18015e-06
1.17662e-06
1.39102e-06
1.37662e-06
1.16712e-06
1.16758e-06
1.17992e-06
1.1765e-06
1.16588e-06
1.17344e-06
1.15554e-06
1.37668e-06
1.37414e-06
1.16698e-06
1.16962e-06
1.14926e-06
1.34152e-06
1.38517e-06
1.374e-06
1.18011e-06
1.17222e-06
1.17665e-06
1.16903e-06
1.37512e-06
1.35906e-06
1.18011e-06
1.17579e-06
1.17607e-06
1.17027e-06
1.15265e-06
1.16188e-06
1.15408e-06
1.37454e-06
1.36277e-06
1.14652e-06
1.16285e-06
1.1506e-06
1.34268e-06
1.37527e-06
1.38961e-06
1.17661e-06
1.17155e-06
1.18927e-06
1.20753e-06
1.36466e-06
1.42396e-06
1.17548e-06
1.17042e-06
1.18249e-06
1.19157e-06
1.16114e-06
1.21456e-06
1.2247e-06
1.36587e-06
1.40587e-06
1.1618e-06
1.20274e-06
1.23059e-06
1.44792e-06
1.40053e-06
1.43777e-06
1.2023e-06
1.22082e-06
1.23637e-06
1.2346e-06
1.43705e-06
1.44171e-06
1.19513e-06
1.20842e-06
1.23633e-06
1.24362e-06
1.24144e-06
1.23936e-06
1.25141e-06
1.42067e-06
1.4508e-06
1.24753e-06
1.24701e-06
1.25844e-06
1.47305e-06
1.44197e-06
1.43077e-06
1.2396e-06
1.2336e-06
1.23534e-06
1.21444e-06
1.44045e-06
1.39081e-06
1.24187e-06
1.24571e-06
1.24046e-06
1.23693e-06
1.24671e-06
1.20913e-06
1.21045e-06
1.45262e-06
1.42551e-06
1.25476e-06
1.2337e-06
1.21485e-06
1.39465e-06
1.43076e-06
1.41555e-06
1.23007e-06
1.20983e-06
1.2222e-06
1.20983e-06
1.39027e-06
1.39644e-06
1.23476e-06
1.22944e-06
1.22414e-06
1.21783e-06
1.20374e-06
1.20701e-06
1.2044e-06
1.42382e-06
1.40231e-06
1.20376e-06
1.21248e-06
1.19629e-06
1.38006e-06
1.41791e-06
1.44604e-06
1.2225e-06
1.21613e-06
1.24464e-06
1.26698e-06
1.40956e-06
1.48741e-06
1.22407e-06
1.21805e-06
1.24079e-06
1.24099e-06
1.21342e-06
1.27483e-06
1.26359e-06
1.405e-06
1.44285e-06
1.19916e-06
1.23788e-06
1.2453e-06
1.4586e-06
1.45769e-06
1.48178e-06
1.25821e-06
1.28034e-06
1.28216e-06
1.29024e-06
1.50045e-06
1.50244e-06
1.254e-06
1.25634e-06
1.28129e-06
1.28554e-06
1.27678e-06
1.29415e-06
1.28778e-06
1.45718e-06
1.48982e-06
1.26394e-06
1.28757e-06
1.28843e-06
1.49429e-06
1.48368e-06
1.46401e-06
1.28313e-06
1.28814e-06
1.27537e-06
1.26176e-06
1.50043e-06
1.43847e-06
1.28286e-06
1.28689e-06
1.27607e-06
1.27809e-06
1.28674e-06
1.25779e-06
1.26819e-06
1.4923e-06
1.47103e-06
1.28867e-06
1.28232e-06
1.27667e-06
1.46377e-06
1.46358e-06
1.45217e-06
1.27011e-06
1.25488e-06
1.26372e-06
1.2514e-06
1.43651e-06
1.42813e-06
1.27062e-06
1.27168e-06
1.26348e-06
1.2625e-06
1.26252e-06
1.24474e-06
1.25859e-06
1.47e-06
1.45268e-06
1.27153e-06
1.26654e-06
1.26648e-06
1.45564e-06
1.45623e-06
1.48627e-06
1.26441e-06
1.25471e-06
1.28663e-06
1.2884e-06
1.43569e-06
1.48632e-06
1.264e-06
1.26284e-06
1.2844e-06
1.28152e-06
1.26063e-06
1.28571e-06
1.28607e-06
1.45555e-06
1.47974e-06
1.2674e-06
1.28103e-06
1.2836e-06
1.48633e-06
1.49502e-06
1.50352e-06
1.29566e-06
1.29789e-06
1.30476e-06
1.3054e-06
1.49702e-06
1.50783e-06
1.29357e-06
1.29029e-06
1.30412e-06
1.30082e-06
1.29335e-06
1.30675e-06
1.2978e-06
1.48771e-06
1.49584e-06
1.28889e-06
1.29758e-06
1.29207e-06
1.48959e-06
1.50437e-06
1.48935e-06
1.30428e-06
1.3045e-06
1.29696e-06
1.29791e-06
1.50883e-06
1.49716e-06
1.30385e-06
1.30059e-06
1.29705e-06
1.29663e-06
1.29581e-06
1.29903e-06
1.29164e-06
1.49677e-06
1.48812e-06
1.29017e-06
1.29417e-06
1.28767e-06
1.47921e-06
1.49029e-06
1.49746e-06
1.29618e-06
1.29767e-06
1.30064e-06
1.30451e-06
1.4985e-06
1.50731e-06
1.29617e-06
1.29663e-06
1.30031e-06
1.30725e-06
1.29218e-06
1.30575e-06
1.31228e-06
1.49009e-06
1.51109e-06
1.28866e-06
1.31048e-06
1.31409e-06
1.51766e-06
1.50513e-06
1.52242e-06
1.30786e-06
1.31017e-06
1.32161e-06
1.31764e-06
1.51256e-06
1.51395e-06
1.30779e-06
1.31564e-06
1.32184e-06
1.325e-06
1.32055e-06
1.3169e-06
1.32575e-06
1.52035e-06
1.52748e-06
1.32325e-06
1.32647e-06
1.32821e-06
1.5305e-06
1.52399e-06
1.50364e-06
1.32167e-06
1.317e-06
1.31014e-06
1.3049e-06
1.5143e-06
1.49494e-06
1.32179e-06
1.32356e-06
1.30858e-06
1.30054e-06
1.3223e-06
1.30274e-06
1.29823e-06
1.52716e-06
1.48683e-06
1.32378e-06
1.29843e-06
1.29738e-06
1.48614e-06
1.50381e-06
1.5008e-06
1.30588e-06
1.30258e-06
1.30335e-06
1.30468e-06
1.49595e-06
1.50908e-06
1.3042e-06
1.29587e-06
1.30231e-06
1.29701e-06
1.29458e-06
1.30452e-06
1.2969e-06
1.48692e-06
1.49446e-06
1.29406e-06
1.29764e-06
1.29847e-06
1.49589e-06
1.50644e-06
1.53502e-06
1.30582e-06
1.31252e-06
1.33046e-06
1.33637e-06
1.51899e-06
1.5469e-06
1.30579e-06
1.30574e-06
1.33151e-06
1.3382e-06
1.30639e-06
1.33789e-06
1.33907e-06
1.50563e-06
1.54671e-06
1.30992e-06
1.33843e-06
1.3393e-06
1.54846e-06
1.53955e-06
1.52667e-06
1.33437e-06
1.33776e-06
1.33111e-06
1.32522e-06
1.54944e-06
1.51536e-06
1.33507e-06
1.34151e-06
1.33128e-06
1.33573e-06
1.34227e-06
1.32538e-06
1.33507e-06
1.55113e-06
1.5336e-06
1.34136e-06
1.3336e-06
1.33108e-06
1.52988e-06
1.52516e-06
1.49736e-06
1.32244e-06
1.31262e-06
1.3008e-06
1.28938e-06
1.51133e-06
1.47342e-06
1.32292e-06
1.32555e-06
1.30178e-06
1.29911e-06
1.32234e-06
1.28861e-06
1.29171e-06
1.53102e-06
1.49113e-06
1.31862e-06
1.29765e-06
1.28995e-06
1.47983e-06
1.49841e-06
1.51235e-06
1.29885e-06
1.2886e-06
1.3051e-06
1.30831e-06
1.47497e-06
1.51818e-06
1.29952e-06
1.29591e-06
1.30353e-06
1.29878e-06
1.28897e-06
1.30696e-06
1.29728e-06
1.49163e-06
1.50239e-06
1.28758e-06
1.29819e-06
1.2967e-06
1.5027e-06
1.52163e-06
1.55225e-06
1.31578e-06
1.32621e-06
1.34393e-06
1.36111e-06
1.53619e-06
1.58625e-06
1.31252e-06
1.30792e-06
1.34081e-06
1.34115e-06
1.31247e-06
1.36154e-06
1.35144e-06
1.51293e-06
1.55491e-06
1.31246e-06
1.34455e-06
1.35372e-06
1.56911e-06
1.55712e-06
1.55134e-06
1.34749e-06
1.36326e-06
1.34544e-06
1.3503e-06
1.59049e-06
1.55665e-06
1.34517e-06
1.34665e-06
1.345e-06
1.34756e-06
1.35574e-06
1.35106e-06
1.35143e-06
1.56118e-06
1.55758e-06
1.35861e-06
1.35113e-06
1.35506e-06
1.56114e-06
1.55065e-06
1.50483e-06
1.33784e-06
1.33391e-06
1.30316e-06
1.28608e-06
1.55066e-06
1.47116e-06
1.33947e-06
1.34248e-06
1.30768e-06
1.31061e-06
1.34003e-06
1.28579e-06
1.29859e-06
1.55684e-06
1.50948e-06
1.3439e-06
1.30827e-06
1.29958e-06
1.49475e-06
1.5033e-06
1.48855e-06
1.29421e-06
1.27754e-06
1.28584e-06
1.27324e-06
1.46935e-06
1.46589e-06
1.29826e-06
1.30054e-06
1.2878e-06
1.28769e-06
1.28987e-06
1.27336e-06
1.28399e-06
1.50748e-06
1.48777e-06
1.28929e-06
1.28386e-06
1.28093e-06
1.48301e-06
1.49244e-06
1.5228e-06
1.28675e-06
1.27746e-06
1.31109e-06
1.31965e-06
1.47585e-06
1.53849e-06
1.28821e-06
1.28778e-06
1.30819e-06
1.30475e-06
1.28641e-06
1.32127e-06
1.31704e-06
1.4904e-06
1.51596e-06
1.28252e-06
1.3045e-06
1.31212e-06
1.52969e-06
1.53214e-06
1.54693e-06
1.32057e-06
1.33133e-06
1.33219e-06
1.34341e-06
1.55119e-06
1.56955e-06
1.31741e-06
1.31404e-06
1.32948e-06
1.32773e-06
1.32551e-06
1.34322e-06
1.33257e-06
1.52533e-06
1.54176e-06
1.32157e-06
1.32811e-06
1.33046e-06
1.5474e-06
1.54885e-06
1.53391e-06
1.33211e-06
1.34298e-06
1.32003e-06
1.32261e-06
1.57095e-06
1.5377e-06
1.32946e-06
1.32796e-06
1.31927e-06
1.32066e-06
1.33159e-06
1.32066e-06
1.31462e-06
1.54404e-06
1.53622e-06
1.32983e-06
1.32049e-06
1.31576e-06
1.52785e-06
1.53382e-06
1.51268e-06
1.31336e-06
1.31217e-06
1.29588e-06
1.28933e-06
1.53518e-06
1.49916e-06
1.31397e-06
1.31715e-06
1.29872e-06
1.30607e-06
1.30815e-06
1.28913e-06
1.29503e-06
1.53711e-06
1.52558e-06
1.31047e-06
1.30654e-06
1.29851e-06
1.51263e-06
1.51342e-06
1.50631e-06
1.29291e-06
1.28659e-06
1.28989e-06
1.28616e-06
1.49971e-06
1.49997e-06
1.29554e-06
1.30248e-06
1.29019e-06
1.29034e-06
1.29322e-06
1.28669e-06
1.29124e-06
1.52628e-06
1.50722e-06
1.29642e-06
1.29079e-06
1.29143e-06
1.50895e-06
1.5078e-06
1.50896e-06
1.29003e-06
1.2889e-06
1.29292e-06
1.29539e-06
1.50493e-06
1.51567e-06
1.28977e-06
1.28766e-06
1.28999e-06
1.28469e-06
1.29131e-06
1.29574e-06
1.29296e-06
1.50761e-06
1.4985e-06
1.2906e-06
1.28439e-06
1.28965e-06
1.50916e-06
1.5113e-06
1.50791e-06
1.29338e-06
1.29547e-06
1.29021e-06
1.2878e-06
1.51788e-06
1.50551e-06
1.29062e-06
1.28484e-06
1.28968e-06
1.2869e-06
1.29319e-06
1.28789e-06
1.28988e-06
1.50027e-06
1.50436e-06
1.28974e-06
1.28644e-06
1.28896e-06
1.508e-06
1.50895e-06
1.49845e-06
1.28766e-06
1.28366e-06
1.27714e-06
1.27254e-06
1.50566e-06
1.48976e-06
1.28803e-06
1.28701e-06
1.27897e-06
1.28209e-06
1.28714e-06
1.27199e-06
1.27534e-06
1.50683e-06
1.50349e-06
1.28736e-06
1.28179e-06
1.27743e-06
1.49601e-06
1.49963e-06
1.49729e-06
1.27538e-06
1.27161e-06
1.27257e-06
1.2727e-06
1.49116e-06
1.49792e-06
1.27733e-06
1.28055e-06
1.27291e-06
1.27495e-06
1.27328e-06
1.27214e-06
1.27135e-06
1.50481e-06
1.50073e-06
1.27539e-06
1.27475e-06
1.27219e-06
1.49525e-06
1.49955e-06
1.49709e-06
1.27269e-06
1.27528e-06
1.27121e-06
1.27603e-06
1.5027e-06
1.50655e-06
1.27268e-06
1.27442e-06
1.26964e-06
1.27052e-06
1.27213e-06
1.27628e-06
1.27273e-06
1.50228e-06
1.49719e-06
1.27238e-06
1.27077e-06
1.27141e-06
1.49983e-06
1.49827e-06
1.46928e-06
1.27043e-06
1.27507e-06
1.24215e-06
1.24278e-06
1.50763e-06
1.47137e-06
1.26882e-06
1.26947e-06
1.24126e-06
1.24033e-06
1.27213e-06
1.2434e-06
1.24282e-06
1.49826e-06
1.46708e-06
1.27067e-06
1.24077e-06
1.24174e-06
1.47023e-06
1.4469e-06
1.20247e-06
1.20171e-06
1.44695e-06
1.20216e-06
1.20136e-06
7.59784e-07
7.59657e-07
7.60367e-07
1.20278e-06
1.44507e-06
1.2022e-06
7.80718e-10
2.67655e-09
5.1955e-10
6.38924e-10
3.36527e-08
3.41086e-09
2.76709e-09
1.93198e-09
2.01211e-09
4.33581e-09
8.64217e-10
8.44606e-09
5.05656e-09
3.41234e-09
8.51697e-09
7.39977e-09
1.66481e-07
6.00247e-09
2.63529e-07
1.48327e-06
2.93633e-06
8.66946e-09
3.26025e-07
7.36224e-09
5.10815e-07
1.28372e-09
1.80176e-09
1.75131e-09
1.67057e-09
1.27081e-09
1.79784e-09
1.74146e-09
3.08165e-08
7.33855e-08
1.42619e-08
4.14276e-09
3.13217e-08
5.21943e-08
1.38849e-08
1.56021e-06
3.06617e-06
1.59257e-09
1.96342e-09
8.50057e-08
4.80164e-09
1.75592e-09
1.93894e-09
6.2533e-08
2.14998e-07
2.19476e-07
4.68124e-09
1.84022e-07
1.8796e-07
1.6863e-08
4.74287e-07
1.20072e-08
6.77699e-07
6.72003e-06
9.61571e-06
1.7793e-08
9.71559e-07
1.3384e-08
1.41133e-06
1.25732e-09
1.78154e-09
1.72763e-09
1.52216e-09
1.21543e-09