/*--------------------------------*- C++ -*----------------------------------*\
| =========                 |                                                 |
| \\      /  F ield         | OpenFOAM: The Open Source CFD Toolbox           |
|  \\    /   O peration     | Version:  v2012                                 |
|   \\  /    A nd           | Website:  www.openfoam.com                      |
|    \\/     M anipulation  |                                                 |
\*---------------------------------------------------------------------------*/
FoamFile
{
    version     2.0;
    format      ascii;
    class       volScalarField;
    location    "687.5";
    object      p;
}
// * * * * * * * * * * * * * * * * * * * * * * * * * * * * * * * * * * * * * //

dimensions      [0 2 -2 0 0 0 0];


internalField   nonuniform List<scalar> 
171728
(
0.00351978
0.00351853
0.0035187
0.00351938
0.00348406
0.00348277
0.00348269
0.00348554
0.00344554
0.00344368
0.00344369
0.0034461
0.00340139
0.00339983
0.00339973
0.00340205
0.00335335
0.00335188
0.00335186
0.00335424
0.00330447
0.00330314
0.00330318
0.00330551
0.00325623
0.00325504
0.00325502
0.00325741
0.00320896
0.0032079
0.00320792
0.00321027
0.00316266
0.00316174
0.00316178
0.00316413
0.00311731
0.00311651
0.00311648
0.00311889
0.00307287
0.00307216
0.00307213
0.00307455
0.00302918
0.00302861
0.00302857
0.00303096
0.00298608
0.00298561
0.00298553
0.00298792
0.00294337
0.00294303
0.00294304
0.00294533
0.00290101
0.00290073
0.00290077
0.00290301
0.00285893
0.00285875
0.0028587
0.00286098
0.00281724
0.00281708
0.00281705
0.00281928
0.00277589
0.00277579
0.00277581
0.00277796
0.00273491
0.00273489
0.00273485
0.00273698
0.00269424
0.00269427
0.00269423
0.0026962
0.00265395
0.00265398
0.00265394
0.00265588
0.00261389
0.00261404
0.00261403
0.00261552
0.00257419
0.0025744
0.00257439
0.00257607
0.00253472
0.00253498
0.00253497
0.00253653
0.00249555
0.00249585
0.00249588
0.00249755
0.00245655
0.00245695
0.00245694
0.0024587
0.00241782
0.00241825
0.00241824
0.0024198
0.00237924
0.00237975
0.00237973
0.00238167
0.00234096
0.00234144
0.00234139
0.00234328
0.00230281
0.00230338
0.00230338
0.00230537
0.00226485
0.00226544
0.0022654
0.00226715
0.002227
0.0022276
0.0022276
0.00222963
0.00218934
0.00219003
0.00219
0.00219183
0.00215183
0.00215251
0.00215248
0.0021543
0.00211437
0.00211493
0.0021149
0.00211685
0.00207714
0.00207777
0.00207782
0.00207962
0.00204009
0.00204065
0.00204054
0.00204242
0.00200299
0.00200341
0.0020035
0.00200546
0.00196612
0.00196658
0.00196651
0.00196848
0.0019294
0.00192974
0.00192974
0.00193164
0.00189284
0.00189309
0.00189316
0.00189516
0.00185637
0.0018566
0.00185643
0.00185846
0.00181995
0.00182002
0.00182012
0.00182215
0.00178372
0.00178386
0.00178388
0.00178615
0.00174783
0.00174792
0.00174781
0.00174956
0.00171174
0.00171152
0.0017116
0.00171384
0.00167576
0.00167578
0.0016758
0.00167797
0.00164019
0.00164008
0.00164003
0.001642
0.00160455
0.00160451
0.00160442
0.00160639
0.00156903
0.00156854
0.00156875
0.00157092
0.00153349
0.00153335
0.00153329
0.00153529
0.00149818
0.00149816
0.00149807
0.00150005
0.001463
0.00146271
0.00146273
0.00146488
0.00142828
0.00142768
0.00142768
0.0014297
0.00139286
0.00139267
0.0013927
0.00139456
0.00135752
0.00135748
0.00135762
0.00135948
0.00132308
0.00132266
0.00132264
0.0013249
0.00128839
0.00128848
0.00128814
0.00129006
0.00125354
0.00125273
0.00125291
0.00125456
0.00121832
0.00121773
0.00121798
0.00121996
0.00118403
0.00118467
0.0011845
0.00118693
0.00114968
0.00114968
0.00114993
0.00115161
0.00111528
0.00111364
0.00111385
0.00111522
0.00108015
0.00108026
0.0010797
0.00108179
0.00104608
0.00104692
0.00104658
0.00104907
0.00101157
0.0010113
0.00101205
0.00101373
0.000977019
0.000975709
0.000976117
0.000977689
0.000942396
0.000942362
0.000941921
0.000943859
0.000908515
0.000909038
0.000908556
0.000910732
0.000873857
0.000873771
0.000873688
0.000875628
0.000838443
0.000837795
0.000838089
0.00083989
0.000804201
0.000804014
0.000804388
0.000806213
0.000770706
0.00077074
0.000770876
0.000772757
0.000735609
0.000735386
0.000735057
0.000737019
0.000700069
0.00070024
0.000700054
0.000702087
0.000666115
0.00066628
0.00066654
0.000668506
0.000631883
0.000631435
0.000631423
0.000633371
0.000595971
0.000595593
0.000595655
0.000597471
0.000561124
0.000561431
0.000561242
0.000563306
0.000527677
0.000528208
0.00052792
0.000530132
0.000493485
0.00049271
0.000493107
0.000494802
0.000457171
0.000456532
0.000456916
0.000458572
0.000421062
0.000421652
0.000421214
0.000423539
0.000387213
0.000387704
0.000387324
0.000389582
0.000353218
0.000352779
0.000353089
0.00035477
0.00031749
0.000316955
0.00031722
0.000318987
0.000281812
0.000281626
0.000281843
0.000283766
0.000246642
0.00024704
0.000246655
0.000248888
0.000211298
0.000211516
0.00021117
0.000213356
0.000175499
0.000175189
0.000175534
0.000177415
0.000139587
0.000139322
0.000139614
0.000141455
0.000104229
0.000104339
0.000104112
0.000106176
6.90661e-05
6.91783e-05
6.89989e-05
7.10616e-05
3.4052e-05
3.33461e-05
3.34734e-05
3.52153e-05
5.78795e-06
6.65745e-06
6.80721e-06
4.84486e-06
0.0035243
0.00352179
0.00352156
0.00352403
0.00352197
0.0035219
0.00352816
0.00352804
0.00352813
0.00352806
0.00352158
0.00352171
0.00352425
0.00352179
0.00352174
0.00352414
0.00351953
0.00349037
0.00351873
0.00351861
0.00349213
0.00349208
0.00351928
0.00349029
0.00351887
0.00351877
0.00349219
0.00349216
0.00351866
0.00349209
0.00349205
0.00351946
0.00349033
0.00351868
0.00349214
0.00349204
0.00349027
0.00348563
0.00345147
0.00348274
0.00348271
0.00345384
0.0034538
0.00348556
0.00345158
0.00348303
0.0034828
0.00345413
0.00345389
0.00348275
0.00345382
0.00345388
0.00348557
0.00345158
0.00348269
0.00345389
0.00345387
0.00345163
0.00344593
0.00340803
0.00344374
0.00344366
0.00341121
0.00341118
0.00344603
0.00340825
0.00344369
0.00344381
0.0034113
0.00341123
0.00344382
0.00341127
0.00341129
0.00344606
0.00340817
0.00344377
0.00341129
0.00341129
0.00340824
0.00340188
0.00336075
0.00339969
0.00339979
0.00336397
0.00336405
0.00340206
0.0033607
0.00339948
0.00339978
0.00336391
0.00336406
0.00339981
0.00336409
0.00336408
0.00340199
0.00336064
0.00339977
0.00336405
0.00336407
0.00336071
0.00335426
0.00331197
0.00335183
0.00335183
0.00331531
0.00331527
0.00335422
0.00331193
0.00335172
0.00335187
0.00331522
0.00331534
0.00335192
0.0033153
0.00331535
0.00335419
0.00331195
0.00335189
0.00331528
0.0033153
0.00331195
0.00330552
0.00326371
0.00330316
0.00330312
0.00326696
0.00326693
0.00330548
0.00326369
0.00330308
0.00330316
0.00326695
0.00326705
0.00330316
0.00326693
0.00326699
0.00330551
0.00326371
0.00330315
0.00326698
0.00326698
0.00326372
0.0032574
0.00321644
0.00325505
0.00325502
0.00321959
0.00321956
0.00325737
0.0032164
0.00325503
0.003255
0.00321959
0.00321955
0.00325509
0.00321958
0.0032196
0.00325739
0.00321645
0.00325505
0.00321956
0.00321956
0.00321644
0.00321026
0.00317015
0.00320789
0.0032079
0.0031732
0.0031732
0.00321022
0.00317015
0.00320791
0.00320796
0.00317319
0.00317326
0.0032079
0.0031732
0.00317321
0.00321028
0.00317015
0.0032079
0.00317321
0.00317321
0.00317016
0.00316411
0.00312478
0.00316174
0.00316175
0.00312773
0.00312773
0.0031641
0.00312477
0.00316174
0.00316178
0.00312774
0.00312781
0.00316177
0.00312775
0.00312774
0.00316414
0.00312478
0.00316175
0.00312779
0.00312774
0.00312479
0.00311887
0.00308032
0.00311649
0.00311651
0.00308316
0.00308318
0.00311886
0.00308031
0.00311649
0.00311642
0.00308318
0.00308323
0.00311652
0.0030832
0.00308317
0.00311886
0.00308032
0.0031165
0.0030832
0.00308318
0.00308032
0.00307454
0.00303663
0.00307217
0.00307217
0.00303941
0.00303943
0.00307453
0.00303662
0.00307216
0.00307204
0.00303943
0.00303954
0.00307218
0.00303944
0.00303945
0.0030745
0.00303667
0.00307216
0.00303941
0.00303944
0.00303665
0.00303095
0.00299355
0.0030286
0.00302861
0.00299631
0.00299631
0.00303094
0.00299353
0.00302859
0.00302855
0.00299631
0.00299642
0.00302861
0.00299632
0.00299634
0.00303097
0.00299357
0.00302862
0.00299631
0.00299633
0.00299352
0.00298794
0.00295087
0.00298561
0.00298561
0.00295364
0.00295364
0.00298792
0.00295085
0.0029856
0.00298567
0.00295365
0.00295362
0.00298557
0.00295363
0.00295363
0.00298794
0.00295084
0.00298555
0.00295369
0.00295363
0.00295085
0.00294533
0.00290854
0.00294301
0.00294302
0.00291129
0.00291126
0.0029453
0.00290849
0.002943
0.00294296
0.00291131
0.00291142
0.00294296
0.00291127
0.00291127
0.00294533
0.00290854
0.00294297
0.00291136
0.00291127
0.00290847
0.00290305
0.00286644
0.00290073
0.00290075
0.00286917
0.00286921
0.00290301
0.00286643
0.00290076
0.00290085
0.00286918
0.00286907
0.00290067
0.00286921
0.00286926
0.00290305
0.0028664
0.00290067
0.00286911
0.00286928
0.00286641
0.002861
0.00282469
0.0028587
0.00285875
0.00282744
0.00282746
0.002861
0.00282468
0.00285869
0.00285862
0.00282749
0.00282754
0.0028587
0.00282745
0.00282749
0.00286098
0.00282464
0.00285876
0.00282752
0.00282751
0.00282466
0.0028193
0.00278328
0.00281706
0.00281709
0.00278601
0.00278609
0.00281931
0.00278322
0.00281706
0.00281706
0.00278611
0.00278607
0.00281709
0.0027861
0.002786
0.00281927
0.00278328
0.0028172
0.00278606
0.00278604
0.00278328
0.00277793
0.00274221
0.00277574
0.00277578
0.002745
0.00274507
0.00277792
0.00274218
0.00277574
0.00277581
0.00274507
0.00274505
0.00277572
0.00274508
0.00274512
0.00277796
0.00274218
0.00277581
0.00274507
0.00274512
0.00274221
0.00273697
0.00270135
0.00273477
0.00273488
0.00270441
0.00270436
0.00273694
0.00270141
0.00273483
0.00273485
0.00270444
0.00270438
0.0027348
0.00270437
0.00270449
0.00273694
0.00270137
0.00273489
0.00270439
0.00270438
0.0027014
0.00269615
0.00266093
0.00269418
0.00269426
0.0026641
0.00266399
0.00269621
0.00266089
0.00269426
0.00269421
0.00266413
0.00266399
0.00269429
0.00266399
0.00266406
0.0026962
0.00266095
0.00269431
0.00266397
0.00266403
0.00266098
0.00265583
0.00262071
0.00265398
0.00265398
0.00262399
0.00262399
0.00265576
0.00262074
0.00265409
0.00265396
0.00262385
0.00262397
0.00265404
0.00262399
0.00262397
0.00265579
0.00262072
0.00265411
0.00262399
0.00262388
0.00262065
0.00261561
0.00258109
0.00261398
0.00261403
0.00258429
0.00258425
0.00261567
0.002581
0.0026139
0.00261401
0.00258432
0.00258427
0.00261399
0.00258426
0.00258434
0.00261566
0.00258098
0.00261386
0.00258427
0.00258441
0.00258109
0.00257604
0.00254159
0.00257437
0.0025744
0.00254472
0.00254479
0.00257597
0.00254155
0.00257434
0.00257437
0.00254472
0.00254481
0.00257444
0.00254478
0.00254469
0.00257597
0.00254151
0.00257449
0.0025448
0.00254462
0.00254154
0.00253658
0.00250249
0.00253493
0.00253498
0.00250558
0.00250563
0.00253657
0.00250243
0.00253498
0.00253498
0.00250555
0.0025056
0.00253489
0.00250563
0.00250563
0.00253656
0.00250239
0.00253486
0.00250562
0.00250563
0.00250254
0.00249747
0.00246358
0.0024958
0.00249585
0.00246663
0.00246667
0.00249747
0.00246351
0.00249576
0.00249586
0.00246666
0.00246665
0.00249583
0.00246668
0.00246666
0.00249746
0.0024636
0.00249579
0.00246666
0.00246669
0.00246359
0.00245868
0.00242488
0.00245693
0.00245694
0.00242784
0.00242789
0.00245856
0.00242488
0.00245696
0.00245693
0.0024278
0.00242783
0.00245695
0.00242789
0.00242784
0.00245865
0.0024248
0.00245696
0.00242784
0.00242781
0.00242484
0.00241988
0.0023864
0.00241818
0.00241825
0.0023893
0.00238932
0.00241996
0.00238643
0.00241816
0.0024182
0.00238934
0.0023893
0.00241813
0.00238932
0.00238934
0.00241987
0.00238651
0.00241813
0.00238928
0.00238935
0.00238646
0.00238154
0.00234836
0.0023797
0.00237975
0.00235102
0.00235103
0.00238152
0.00234826
0.00237972
0.00237973
0.00235103
0.00235097
0.00237978
0.00235102
0.00235097
0.00238163
0.00234823
0.00237983
0.00235098
0.0023509
0.00234828
0.00234341
0.00231005
0.00234146
0.00234145
0.00231286
0.00231288
0.00234334
0.00231014
0.00234146
0.0023414
0.00231288
0.0023129
0.00234139
0.00231289
0.00231292
0.0023433
0.00231021
0.00234136
0.00231291
0.00231293
0.00231026
0.00230517
0.00227236
0.00230335
0.00230337
0.00227489
0.00227491
0.00230522
0.00227219
0.00230338
0.00230337
0.00227489
0.00227486
0.0023034
0.0022749
0.00227478
0.00230531
0.00227214
0.00230336
0.00227484
0.00227471
0.00227207
0.00226744
0.00223428
0.00226541
0.00226546
0.00223705
0.00223706
0.0022673
0.00223438
0.00226541
0.0022654
0.00223711
0.00223708
0.00226535
0.00223706
0.00223709
0.00226723
0.00223456
0.00226536
0.00223709
0.00223715
0.00223451
0.00222938
0.00219676
0.0022276
0.00222759
0.00219936
0.00219939
0.00222945
0.00219673
0.00222766
0.0022276
0.00219934
0.00219927
0.00222767
0.0021994
0.00219941
0.00222963
0.0021966
0.00222766
0.00219933
0.00219937
0.00219674
0.00219187
0.00215923
0.00218998
0.00219003
0.00216186
0.00216192
0.0021919
0.00215923
0.00218994
0.0021899
0.00216187
0.00216189
0.00218999
0.0021619
0.00216176
0.00219171
0.0021593
0.00218998
0.00216189
0.00216171
0.00215919
0.00215433
0.00212174
0.00215249
0.00215253
0.00212435
0.00212429
0.00215428
0.00212163
0.00215251
0.00215251
0.00212437
0.00212432
0.00215236
0.00212429
0.00212432
0.0021544
0.0021217
0.00215232
0.00212424
0.0021243
0.00212173
0.00211684
0.00208445
0.00211499
0.00211492
0.002087
0.00208701
0.00211679
0.0020845
0.00211501
0.00211497
0.00208701
0.00208703
0.00211504
0.00208703
0.00208712
0.00211683
0.00208451
0.002115
0.00208712
0.00208714
0.00208453
0.00207958
0.00204736
0.00207771
0.00207775
0.00204992
0.00204997
0.00207963
0.00204737
0.00207772
0.00207774
0.00204991
0.00204987
0.00207778
0.00204997
0.00204979
0.00207963
0.00204732
0.0020778
0.00204984
0.00204977
0.00204726
0.00204248
0.00201024
0.00204063
0.00204067
0.00201274
0.00201267
0.00204246
0.0020102
0.00204061
0.00204058
0.00201272
0.00201276
0.0020405
0.00201268
0.00201274
0.00204245
0.00201028
0.0020405
0.00201275
0.00201271
0.00201033
0.00200537
0.00197333
0.00200346
0.00200341
0.00197575
0.00197577
0.00200534
0.00197337
0.00200346
0.00200351
0.00197576
0.00197574
0.00200352
0.00197578
0.00197579
0.00200541
0.0019733
0.00200348
0.00197576
0.00197581
0.00197334
0.00196848
0.00193657
0.00196654
0.00196656
0.00193894
0.00193893
0.00196851
0.00193657
0.00196654
0.00196649
0.00193894
0.00193892
0.00196654
0.00193892
0.00193892
0.00196844
0.00193657
0.00196656
0.00193888
0.00193888
0.00193651
0.00193171
0.0018999
0.00192975
0.00192975
0.00190223
0.00190227
0.00193173
0.00189989
0.00192975
0.00192978
0.00190224
0.0019023
0.00192973
0.00190226
0.00190221
0.00193174
0.00189997
0.00192968
0.00190233
0.00190228
0.00189997
0.00189508
0.00186342
0.00189309
0.00189309
0.00186572
0.00186566
0.00189504
0.00186344
0.0018931
0.00189312
0.00186571
0.00186559
0.0018931
0.00186569
0.00186572
0.00189511
0.0018633
0.00189318
0.00186559
0.00186566
0.00186333
0.00185857
0.00182693
0.00185658
0.00185657
0.00182916
0.00182922
0.00185862
0.0018269
0.00185657
0.00185647
0.00182915
0.00182926
0.0018565
0.00182919
0.00182906
0.00185848
0.00182702
0.00185641
0.00182918
0.00182908
0.00182691
0.00182211
0.00179075
0.00182005
0.00182005
0.00179289
0.00179278
0.00182205
0.00179068
0.00182005
0.00182017
0.00179293
0.00179284
0.00182006
0.00179281
0.00179315
0.00182219
0.00179068
0.00182011
0.00179292
0.00179322
0.001791
0.00178596
0.00175458
0.0017839
0.00178381
0.00175681
0.00175695
0.00178593
0.00175476
0.00178392
0.00178375
0.00175676
0.00175683
0.00178408
0.00175697
0.00175655
0.00178589
0.00175467
0.00178412
0.00175681
0.0017565
0.00175435
0.00174977
0.00171856
0.00174772
0.00174793
0.00172067
0.00172062
0.00174991
0.00171843
0.00174769
0.00174788
0.0017207
0.00172071
0.00174747
0.00172057
0.00172074
0.00174986
0.00171847
0.00174739
0.00172066
0.00172073
0.0017186
0.00171377
0.00168263
0.0017117
0.00171156
0.00168471
0.00168466
0.00171365
0.00168263
0.00171173
0.00171159
0.00168473
0.00168465
0.00171187
0.0016847
0.00168485
0.00171367
0.00168265
0.00171187
0.00168473
0.00168486
0.00168278
0.00167786
0.00164684
0.00167576
0.00167572
0.00164898
0.001649
0.00167786
0.00164689
0.00167576
0.00167574
0.00164895
0.001649
0.00167582
0.001649
0.00164891
0.00167787
0.00164689
0.00167583
0.00164893
0.00164893
0.00164678
0.00164207
0.00161124
0.00164002
0.0016401
0.00161327
0.00161343
0.00164214
0.00161131
0.00164001
0.0016401
0.00161328
0.00161333
0.00163995
0.00161342
0.00161317
0.00164212
0.0016112
0.00163994
0.00161335
0.00161319
0.00161113
0.00160649
0.00157564
0.00160441
0.00160452
0.00157777
0.00157754
0.00160651
0.00157546
0.00160439
0.00160438
0.00157774
0.00157767
0.00160429
0.00157751
0.00157777
0.00160644
0.00157562
0.00160431
0.00157764
0.00157769
0.00157569
0.00157087
0.00154003
0.00156884
0.00156855
0.00154205
0.00154205
0.0015707
0.00154006
0.00156882
0.00156879
0.00154212
0.00154212
0.00156891
0.00154209
0.00154212
0.00157084
0.00154006
0.00156885
0.00154213
0.0015422
0.00154003
0.00153527
0.00150478
0.0015332
0.00153331
0.00150681
0.00150702
0.00153533
0.00150496
0.00153327
0.00153324
0.00150676
0.00150683
0.0015332
0.001507
0.00150676
0.00153532
0.00150482
0.00153328
0.00150687
0.00150673
0.00150477
0.00150008
0.0014696
0.00149803
0.0014982
0.00147167
0.00147157
0.00150022
0.00146949
0.00149795
0.00149807
0.00147164
0.00147164
0.001498
0.00147158
0.00147168
0.00150009
0.00146952
0.00149795
0.00147158
0.00147164
0.0014696
0.00146485
0.00143432
0.00146287
0.00146267
0.00143641
0.00143637
0.00146476
0.00143432
0.00146287
0.00146277
0.00143646
0.00143632
0.00146291
0.00143637
0.00143651
0.00146479
0.00143433
0.0014629
0.00143638
0.00143658
0.00143442
0.00142961
0.00139938
0.0014276
0.00142769
0.00140141
0.00140152
0.00142962
0.00139941
0.00142766
0.00142761
0.00140136
0.0014015
0.00142769
0.00140146
0.0014013
0.00142964
0.00139941
0.00142776
0.0014015
0.00140132
0.00139929
0.00139467
0.00136437
0.00139267
0.00139272
0.00136635
0.0013663
0.00139469
0.00136427
0.00139265
0.00139272
0.00136637
0.00136641
0.00139253
0.00136626
0.00136617
0.00139468
0.00136441
0.00139251
0.00136635
0.00136613
0.00136417
0.00135964
0.00132913
0.00135759
0.00135752
0.00133121
0.00133116
0.00135952
0.00132916
0.00135762
0.00135768
0.00133123
0.00133126
0.00135741
0.00133125
0.00133159
0.00135969
0.00132924
0.00135744
0.00133136
0.0013317
0.00132955
0.00132443
0.0012948
0.00132251
0.00132251
0.00129684
0.00129692
0.0013245
0.00129499
0.00132253
0.00132251
0.00129681
0.00129671
0.00132303
0.00129707
0.00129691
0.00132453
0.00129472
0.00132313
0.0012968
0.00129688
0.0012948
0.00129019
0.00126004
0.00128827
0.00128843
0.00126217
0.00126221
0.00129037
0.0012598
0.00128822
0.00128813
0.00126205
0.00126208
0.00128809
0.00126184
0.00126149
0.00129006
0.00125974
0.00128795
0.00126181
0.00126132
0.00125936
0.00125524
0.00122451
0.00125331
0.00125311
0.00122659
0.00122628
0.00125492
0.00122422
0.00125322
0.0012532
0.00122668
0.00122656
0.00125265
0.00122622
0.0012266
0.00125493
0.00122451
0.00125255
0.00122652
0.0012267
0.00122454
0.00121976
0.0011903
0.00121782
0.00121766
0.0011923
0.00119264
0.00121957
0.00119084
0.00121794
0.00121792
0.0011923
0.00119248
0.00121811
0.00119304
0.00119302
0.00121986
0.00119078
0.0012183
0.00119288
0.00119327
0.00119134
0.00118579
0.00115664
0.00118391
0.00118428
0.00115855
0.00115865
0.00118631
0.00115656
0.0011839
0.00118404
0.00115856
0.00115865
0.00118475
0.00115876
0.00115889
0.00118624
0.00115668
0.0011849
0.0011588
0.00115877
0.00115657
0.00115198
0.00112112
0.00114992
0.00114979
0.00112329
0.00112286
0.0011517
0.00112054
0.00115
0.00115006
0.00112341
0.00112325
0.0011497
0.00112244
0.00112232
0.00115189
0.00112076
0.00114958
0.00112274
0.00112228
0.00112008
0.00111629
0.00108621
0.00111439
0.00111408
0.00108837
0.00108841
0.00111572
0.00108641
0.00111441
0.00111433
0.00108824
0.00108813
0.00111346
0.00108843
0.00108811
0.00111593
0.00108599
0.00111345
0.00108805
0.00108796
0.00108616
0.00108161
0.00105271
0.0010799
0.00108008
0.00105471
0.00105506
0.00108195
0.00105341
0.00107973
0.00107962
0.00105453
0.0010546
0.00108003
0.00105541
0.00105553
0.00108145
0.00105292
0.00107985
0.00105494
0.00105542
0.0010536
0.00104814
0.00101849
0.00104623
0.00104662
0.00102042
0.00102047
0.00104888
0.00101823
0.00104611
0.0010462
0.00102049
0.00102065
0.00104705
0.00102042
0.00102069
0.00104839
0.00101885
0.001047
0.00102088
0.00102103
0.00101867
0.0010137
0.000982922
0.00101163
0.00101143
0.000985027
0.000984671
0.00101333
0.000982403
0.00101183
0.00101197
0.00098516
0.000985203
0.00101163
0.000984426
0.000984581
0.00101403
0.000982883
0.00101201
0.000985006
0.00098472
0.00098249
0.000978151
0.00094852
0.000976262
0.000975936
0.000950633
0.000950496
0.000977607
0.000948606
0.000976338
0.00097635
0.000950531
0.000950422
0.000975828
0.000950521
0.000950394
0.000978063
0.000948262
0.000975882
0.000950292
0.000950195
0.000948314
0.000943985
0.000915257
0.000942252
0.000942257
0.00091718
0.000917423
0.000944176
0.000915608
0.000942123
0.000942002
0.000917053
0.000916979
0.00094216
0.000917537
0.000917252
0.000943729
0.000915129
0.0009419
0.000916999
0.00091704
0.000915317
0.00091066
0.000880615
0.00090869
0.000908927
0.000882653
0.000882798
0.000911027
0.000880622
0.000908582
0.000908524
0.000882695
0.000882567
0.000908779
0.000882816
0.000882593
0.00091053
0.000880579
0.000908575
0.000882546
0.000882568
0.000880518
0.000875728
0.000844684
0.000873738
0.000873838
0.000846755
0.00084671
0.000875697
0.000844553
0.000873822
0.000873699
0.000846865
0.00084686
0.000873638
0.000846632
0.000846762
0.000875721
0.000844753
0.000873703
0.000846857
0.000846914
0.000844684
0.000839875
0.000810428
0.000837931
0.000837869
0.000812387
0.000812275
0.00083974
0.00081038
0.000838019
0.000838071
0.000812357
0.00081255
0.000837957
0.000812249
0.000812593
0.000839975
0.000810642
0.000838127
0.000812648
0.000812695
0.000810678
0.000805953
0.000777486
0.000804142
0.000804008
0.000779351
0.000779218
0.000805908
0.000777369
0.000804084
0.000804285
0.000779332
0.00077944
0.000804381
0.000779244
0.000779467
0.000806159
0.000777548
0.000804433
0.000779485
0.000779453
0.000777501
0.000772886
0.000742303
0.000770897
0.000770748
0.000744431
0.000744415
0.000772732
0.000742258
0.000770896
0.00077092
0.000744394
0.00074423
0.000770792
0.000744334
0.000744047
0.000772858
0.000742044
0.000770753
0.000744086
0.00074395
0.000741927
0.000737397
0.000706538
0.000735424
0.000735465
0.000708587
0.000708787
0.000737365
0.000706792
0.00073537
0.000735204
0.000708534
0.000708472
0.000735089
0.000708841
0.000708664
0.000737115
0.000706578
0.000734967
0.00070854
0.000708644
0.000706731
0.000701811
0.000672666
0.000699869
0.000700087
0.000674482
0.000674605
0.000702074
0.000672803
0.000699873
0.000699925
0.000674585
0.000674784
0.000700139
0.000674725
0.00067486
0.000701944
0.000673023
0.00070018
0.00067492
0.000674983
0.000673073
0.000668144
0.000638431
0.00066613
0.000666193
0.000640546
0.000640363
0.000668226
0.000638257
0.000666251
0.000666462
0.000640548
0.000640465
0.00066647
0.000640296
0.000640372
0.000668479
0.000638292
0.000666573
0.000640359
0.000640332
0.000638223
0.000633592
0.000602574
0.000631689
0.000631521
0.000604725
0.000604591
0.000633436
0.000602404
0.000631664
0.000631526
0.000604694
0.000604619
0.000631435
0.000604522
0.000604512
0.000633441
0.000602457
0.0006314
0.000604581
0.000604507
0.000602349
0.000597669
0.000567775
0.000595739
0.000595638
0.000569633
0.000569793
0.000597541
0.000567928
0.000595722
0.00059566
0.000569596
0.000569617
0.000595542
0.000569816
0.000569703
0.000597573
0.000567786
0.000595562
0.000569654
0.00056969
0.000567876
0.000563177
0.000534389
0.000561208
0.000561393
0.000536243
0.000536553
0.000563344
0.000534742
0.000561164
0.000561202
0.000536164
0.000536171
0.000561363
0.000536611
0.000536508
0.000563187
0.000534418
0.000561324
0.000536237
0.000536452
0.000534684
0.000529834
0.000499818
0.000527895
0.000528146
0.000501948
0.000501715
0.000530132
0.000499565
0.000527844
0.000527855
0.00050208
0.000502098
0.000528176
0.000501705
0.000501886
0.000529889
0.000499887
0.000528142
0.000502059
0.000501979
0.000499716
0.000494951
0.000463847
0.000493021
0.000492743
0.000465976
0.000465669
0.000494669
0.000463411
0.000493163
0.000493177
0.000466069
0.000466089
0.000492853
0.000465621
0.000465734
0.000495013
0.000463867
0.000492947
0.000466021
0.0004658
0.000463554
0.000458867
0.000428112
0.000456877
0.000456576
0.000429989
0.000430162
0.000458459
0.000428358
0.000456948
0.000456983
0.000429874
0.000429901
0.000456636
0.000430174
0.000430037
0.000458878
0.000428049
0.000456674
0.000429902
0.000429924
0.000428208
0.000423399
0.000393988
0.000421352
0.000421622
0.000395887
0.000396114
0.00042368
0.000394325
0.000421199
0.000421173
0.000395753
0.00039569
0.000421506
0.000396154
0.000396061
0.00042332
0.000393913
0.000421373
0.000395776
0.000395967
0.000394193
0.00038937
0.000359729
0.000387424
0.000387661
0.000361797
0.000361775
0.000389745
0.000359589
0.000387305
0.000387245
0.000361834
0.000361796
0.000387586
0.000361743
0.000361745
0.000389304
0.000359779
0.000387501
0.000361812
0.00036183
0.000359633
0.0003549
0.000323961
0.00035298
0.000352827
0.000326052
0.000325875
0.000354708
0.000323743
0.000353103
0.000353116
0.000326184
0.000326244
0.00035284
0.000325844
0.000325944
0.000354978
0.000324039
0.000352983
0.000326179
0.000326038
0.000323845
0.00031908
0.000288466
0.000317117
0.000316971
0.000290496
0.000290348
0.000318886
0.000288343
0.000317213
0.00031727
0.00029054
0.00029064
0.000317059
0.000290365
0.000290523
0.000319154
0.000288592
0.000317119
0.000290637
0.000290548
0.000288524
0.00028368
0.000253628
0.000281696
0.000281596
0.000255583
0.000255716
0.000283599
0.000253811
0.00028172
0.000281831
0.000255492
0.000255449
0.000281765
0.000255743
0.000255656
0.000283801
0.000253517
0.000281774
0.000255473
0.000255557
0.000253679
0.000248855
0.000218291
0.000246866
0.000247029
0.000220344
0.000220486
0.000249048
0.000218485
0.000246739
0.000246638
0.000220223
0.000220066
0.000246891
0.00022047
0.000220287
0.000248705
0.000218083
0.000246774
0.00022005
0.000220172
0.000218232
0.000213411
0.000182356
0.000211406
0.000211539
0.000184401
0.000184286
0.000213598
0.000182198
0.000211316
0.00021119
0.000184464
0.000184476
0.000211348
0.000184278
0.00018437
0.000213229
0.000182436
0.00021126
0.000184468
0.000184438
0.000182339
0.000177419
0.00014632
0.000175347
0.000175171
0.000148324
0.000148205
0.00017724
0.000146143
0.000175468
0.000175537
0.000148437
0.000148597
0.000175337
0.000148212
0.000148345
0.000177544
0.000146515
0.000175457
0.000148609
0.000148458
0.00014634
0.000141441
0.000110967
0.000139422
0.000139317
0.000112969
0.000113035
0.000141282
0.000111067
0.000139495
0.000139604
0.000112925
0.000112898
0.000139431
0.000113039
0.000112965
0.000141595
0.000110896
0.000139507
0.000112899
0.000112916
0.000110963
0.000106169
7.58935e-05
0.000104239
0.000104331
7.79206e-05
7.80264e-05
0.000106281
7.60464e-05
0.000104169
0.000104109
7.78494e-05
7.77849e-05
0.000104253
7.80428e-05
7.79759e-05
0.000106081
7.58051e-05
0.000104177
7.77985e-05
7.79049e-05
7.5949e-05
7.10028e-05
4.02049e-05
6.90809e-05
6.91618e-05
4.22492e-05
4.21931e-05
7.11334e-05
4.01255e-05
6.90278e-05
6.89861e-05
4.22814e-05
4.22948e-05
6.91428e-05
4.21836e-05
4.22279e-05
7.09301e-05
4.02296e-05
6.90882e-05
4.22929e-05
4.22675e-05
4.01804e-05
3.525e-05
8.07794e-06
3.34303e-05
3.33606e-05
1.1109e-05
1.10101e-05
3.51583e-05
7.96071e-06
3.34699e-05
3.34816e-05
1.11636e-05
1.11998e-05
3.33833e-05
1.09973e-05
1.10438e-05
3.52727e-05
8.125e-06
3.34269e-05
1.11791e-05
1.10907e-05
8.01585e-06
4.89008e-06
6.74736e-06
6.6702e-06
4.79615e-06
6.79202e-06
6.82337e-06
5.70174e-06
5.83331e-06
5.75784e-06
6.70017e-06
4.92755e-06
6.74152e-06
0.00353125
0.00353394
0.00353249
0.00353282
0.00355853
0.00353373
0.00356336
0.00353424
0.00356025
0.00353385
0.00353393
0.00356336
0.00354474
0.00356645
0.00356644
0.00350374
0.00351737
0.00352127
0.00349604
0.00349418
0.00349932
0.00350372
0.00351728
0.00352148
0.00349636
0.00351967
0.00351975
0.00351969
0.00349321
0.00349328
0.0034932
0.0034932
0.0035032
0.00351498
0.00352015
0.00351085
0.00352223
0.00350042
0.00351105
0.00349429
0.0034996
0.00350349
0.00352032
0.00351512
0.00351099
0.00352245
0.00351131
0.00350055
0.00352122
0.00352121
0.00350822
0.00350032
0.00350035
0.00347615
0.0034904
0.00349027
0.00347414
0.00348763
0.00347324
0.00347587
0.00349021
0.00349032
0.00347422
0.00348423
0.0034841
0.0034841
0.00345561
0.0034558
0.00345565
0.00345569
0.00347366
0.00348897
0.00348282
0.00347318
0.00348753
0.0034744
0.00347341
0.0034877
0.00347319
0.00347393
0.00348257
0.00348893
0.00347322
0.00348734
0.00347317
0.00347441
0.00349062
0.00349068
0.00347166
0.00347478
0.00347472
0.00343359
0.00344828
0.00344917
0.00343221
0.00344712
0.00343141
0.00343342
0.00344795
0.00344911
0.00343232
0.00344566
0.00344555
0.00344557
0.00341291
0.00341307
0.00341296
0.003413
0.00343215
0.00344791
0.00344376
0.00343324
0.00344697
0.00343275
0.00343332
0.00344711
0.00343128
0.00343234
0.00344366
0.00344792
0.00343329
0.00344682
0.00343324
0.00343266
0.00344857
0.0034486
0.0034306
0.00343259
0.00343257
0.00338719
0.00340359
0.00340505
0.00338567
0.00340297
0.00338527
0.00338705
0.00340276
0.00340488
0.0033862
0.00340151
0.0034014
0.00340143
0.00336556
0.00336558
0.0033655
0.00336552
0.00338619
0.00340348
0.00339989
0.00338808
0.00340294
0.00338639
0.00338814
0.00340279
0.0033852
0.00338639
0.00339976
0.00340343
0.00338805
0.00340286
0.00338804
0.0033864
0.00340368
0.00340368
0.00338478
0.00338595
0.00338593
0.00333826
0.00335532
0.00335671
0.00333703
0.00335501
0.00333673
0.00333816
0.0033554
0.00335666
0.00333695
0.00335337
0.0033533
0.00335332
0.00331665
0.00331664
0.00331662
0.0033166
0.00333768
0.00335542
0.00335202
0.00333975
0.00335511
0.00333775
0.00333984
0.00335495
0.00333666
0.00333786
0.00335188
0.00335532
0.00333969
0.00335501
0.00333969
0.00333775
0.00335546
0.00335545
0.00333634
0.00333714
0.00333715
0.00328913
0.00330644
0.00330746
0.00328827
0.00330613
0.00328803
0.00328908
0.0033064
0.00330743
0.00328826
0.00330446
0.00330444
0.0033044
0.0032682
0.00326819
0.00326817
0.00326816
0.00328888
0.00330643
0.0033033
0.00329103
0.00330622
0.00328891