/*--------------------------------*- C++ -*----------------------------------*\
| =========                 |                                                 |
| \\      /  F ield         | OpenFOAM: The Open Source CFD Toolbox           |
|  \\    /   O peration     | Version:  v2012                                 |
|   \\  /    A nd           | Website:  www.openfoam.com                      |
|    \\/     M anipulation  |                                                 |
\*---------------------------------------------------------------------------*/
FoamFile
{
    version     2.0;
    format      ascii;
    class       volScalarField;
    location    "362.5";
    object      epsilon;
}
// * * * * * * * * * * * * * * * * * * * * * * * * * * * * * * * * * * * * * //

dimensions      [0 2 -3 0 0 0 0];


internalField   nonuniform List<scalar> 
171728
(
2.65967e-09
3.5609e-09
4.45144e-09
5.07359e-09
2.62547e-09
3.28749e-09
4.07461e-09
4.78016e-09
2.57195e-09
3.0192e-09
3.71489e-09
4.2328e-09
2.52281e-09
2.78368e-09
3.40044e-09
3.69332e-09
2.47772e-09
2.57989e-09
3.12882e-09
3.35483e-09
2.43661e-09
2.41138e-09
2.89874e-09
3.1079e-09
2.3994e-09
2.27229e-09
2.71113e-09
2.89067e-09
2.36637e-09
2.17699e-09
2.56599e-09
2.70782e-09
2.3372e-09
2.10653e-09
2.46029e-09
2.56174e-09
2.31221e-09
2.07468e-09
2.39035e-09
2.45193e-09
2.29128e-09
2.07395e-09
2.35866e-09
2.37536e-09
2.27459e-09
2.10802e-09
2.36605e-09
2.33474e-09
2.26091e-09
2.18632e-09
2.41919e-09
2.33351e-09
2.25024e-09
2.31955e-09
2.53206e-09
2.38285e-09
2.24374e-09
2.52861e-09
2.72228e-09
2.50585e-09
2.24133e-09
2.85745e-09
3.04297e-09
2.74666e-09
2.24359e-09
3.3495e-09
3.52382e-09
3.1777e-09
2.2512e-09
4.09595e-09
4.25663e-09
3.93482e-09
2.265e-09
5.23853e-09
5.41007e-09
5.25012e-09
2.28727e-09
6.79712e-09
7.0939e-09
7.52171e-09
2.32038e-09
9.292e-09
9.55335e-09
1.15019e-08
2.36917e-09
1.29854e-08
1.30537e-08
1.83185e-08
2.44179e-09
1.78727e-08
1.77159e-08
2.95338e-08
2.54168e-09
2.41479e-08
2.47251e-08
4.74765e-08
2.6865e-09
3.35209e-08
3.39185e-08
7.36242e-08
2.89043e-09
4.47325e-08
4.46939e-08
1.11631e-07
3.17278e-09
5.86472e-08
5.85515e-08
1.61597e-07
3.55849e-09
7.58956e-08
7.61224e-08
2.20776e-07
4.08993e-09
9.51852e-08
9.56654e-08
2.95918e-07
4.78216e-09
1.18833e-07
1.18678e-07
3.68983e-07
5.74e-09
1.44892e-07
1.44366e-07
4.47967e-07
6.96032e-09
1.72692e-07
1.74406e-07
5.23851e-07
8.55015e-09
2.08483e-07
2.05997e-07
5.95469e-07
1.06569e-08
2.3897e-07
2.42468e-07
6.58608e-07
1.31362e-08
2.84848e-07
2.79282e-07
7.09799e-07
1.6646e-08
3.20314e-07
3.22987e-07
7.65665e-07
2.05624e-08
3.61948e-07
3.62932e-07
8.07395e-07
2.56746e-08
4.09776e-07
4.12972e-07
8.49013e-07
3.16534e-08
4.60372e-07
4.5277e-07
8.85992e-07
3.96314e-08
5.02063e-07
5.08143e-07
9.20271e-07
4.70072e-08
5.56166e-07
5.51385e-07
9.54159e-07
5.96718e-08
5.98133e-07
6.07664e-07
9.83282e-07
6.98495e-08
6.49847e-07
6.43301e-07
1.0158e-06
8.51354e-08
6.99125e-07
7.03723e-07
1.04378e-06
9.85114e-08
7.38651e-07
7.40909e-07
1.0709e-06
1.18464e-07
7.81855e-07
7.8443e-07
1.09839e-06
1.43547e-07
8.39071e-07
8.3222e-07
1.12935e-06
1.56208e-07
8.60308e-07
8.72211e-07
1.14857e-06
1.80636e-07
9.037e-07
8.97792e-07
1.17941e-06
2.09265e-07
9.50759e-07
9.4822e-07
1.20228e-06
2.45317e-07
9.75554e-07
9.7758e-07
1.22906e-06
2.63771e-07
9.8906e-07
9.98706e-07
1.24255e-06
2.9565e-07
1.03547e-06
1.03198e-06
1.27441e-06
3.26211e-07
1.06295e-06
1.05439e-06
1.28785e-06
3.61322e-07
1.07429e-06
1.0868e-06
1.31247e-06
3.87595e-07
1.10507e-06
1.10599e-06
1.32354e-06
4.18585e-07
1.12208e-06
1.11728e-06
1.34521e-06
4.51648e-07
1.13746e-06
1.13895e-06
1.35556e-06
4.72727e-07
1.16709e-06
1.16641e-06
1.37076e-06
5.12283e-07
1.17855e-06
1.17995e-06
1.39513e-06
5.32234e-07
1.19025e-06
1.18936e-06
1.39948e-06
5.53644e-07
1.20271e-06
1.20445e-06
1.41027e-06
5.78297e-07
1.22444e-06
1.22325e-06
1.42538e-06
6.0361e-07
1.233e-06
1.23486e-06
1.43477e-06
6.19423e-07
1.24593e-06
1.24444e-06
1.44992e-06
6.42638e-07
1.2518e-06
1.25053e-06
1.45191e-06
6.54262e-07
1.25852e-06
1.26172e-06
1.46382e-06
6.73336e-07
1.27459e-06
1.27254e-06
1.47224e-06
6.90656e-07
1.27588e-06
1.27729e-06
1.47375e-06
7.02674e-07
1.28003e-06
1.27736e-06
1.4839e-06
7.13432e-07
1.28961e-06
1.29125e-06
1.49283e-06
7.30847e-07
1.29229e-06
1.29581e-06
1.4962e-06
7.40335e-07
1.29258e-06
1.29078e-06
1.49878e-06
7.44933e-07
1.29545e-06
1.29213e-06
1.4993e-06
7.52607e-07
1.29328e-06
1.29629e-06
1.49836e-06
7.62794e-07
1.30076e-06
1.30345e-06
1.5098e-06
7.68646e-07
1.30158e-06
1.29983e-06
1.51315e-06
7.61942e-07
1.27893e-06
1.27677e-06
1.48526e-06
7.5967e-07
1.27578e-06
1.27464e-06
1.4819e-06
7.81312e-07
1.3122e-06
1.31269e-06
1.5327e-06
7.98464e-07
1.32813e-06
1.3284e-06
1.5622e-06
7.73871e-07
1.28177e-06
1.28188e-06
1.51081e-06
7.28472e-07
1.21802e-06
1.2181e-06
1.42761e-06
7.07475e-07
1.18727e-06
1.18729e-06
1.38547e-06
7.13648e-07
1.19486e-06
1.19488e-06
1.39852e-06
7.60939e-07
1.26669e-06
1.26678e-06
1.49157e-06
8.10685e-07
1.33847e-06
1.33859e-06
1.59439e-06
8.22564e-07
1.35826e-06
1.35838e-06
1.63196e-06
7.93148e-07
1.31457e-06
1.31469e-06
1.57937e-06
7.43551e-07
1.24318e-06
1.24328e-06
1.47878e-06
7.15003e-07
1.19546e-06
1.19555e-06
1.40908e-06
7.04071e-07
1.16938e-06
1.16948e-06
1.37888e-06
6.9189e-07
1.15362e-06
1.15372e-06
1.37184e-06
6.76746e-07
1.14241e-06
1.14251e-06
1.37342e-06
6.47914e-07
1.0817e-06
1.08176e-06
1.33306e-06
5.01971e-09
4.28869e-09
4.3246e-09
4.95169e-09
4.23496e-09
4.28147e-09
2.64768e-09
2.62477e-09
2.62048e-09
2.76715e-09
4.25057e-09
4.29192e-09
5.02026e-09
4.28347e-09
5.56449e-09
5.14303e-09
4.99291e-09
4.57249e-09
4.7699e-09
4.67122e-09
4.45404e-09
4.4011e-09
4.93307e-09
4.50405e-09
4.86182e-09
4.81414e-09
4.55805e-09
4.49615e-09
4.77964e-09
3.36004e-09
4.46158e-09
4.99645e-09
4.57113e-09
2.73812e-08
4.17183e-09
2.04844e-08
4.89087e-09
4.53917e-09
4.16236e-09
4.3438e-09
4.31113e-09
4.03892e-09
4.06176e-09
4.47469e-09
4.08107e-09
4.44723e-09
4.3836e-09
4.13835e-09
4.0701e-09
4.35098e-09
3.08288e-09
4.04381e-09
4.53895e-09
4.15337e-09
1.70741e-08
3.80119e-09
8.50964e-09
4.29356e-09
4.13385e-09
3.80826e-09
3.94481e-09
3.98326e-09
3.6827e-09
3.76241e-09
4.05539e-09
3.71955e-09
4.04186e-09
3.97333e-09
3.77182e-09
3.7024e-09
3.94881e-09
2.83921e-09
3.68554e-09
4.12579e-09
3.79443e-09
6.68207e-09
3.47542e-09
3.77142e-09
3.7283e-09
3.78377e-09
3.50022e-09
3.60189e-09
3.69489e-09
3.3752e-09
3.51144e-09
3.69773e-09
3.41425e-09
3.68811e-09
3.619e-09
3.45488e-09
3.38625e-09
3.60394e-09
2.62758e-09
3.37736e-09
3.77085e-09
3.48328e-09
3.34309e-09
3.1926e-09
2.73012e-09
3.3671e-09
3.47941e-09
3.23248e-09
3.30505e-09
3.45639e-09
3.11126e-09
3.30657e-09
3.39619e-09
3.1594e-09
3.38308e-09
3.31462e-09
3.18452e-09
3.11846e-09
3.30716e-09
2.44932e-09
3.11463e-09
3.46337e-09
3.21518e-09
2.63012e-09
2.95259e-09
2.46943e-09
3.12372e-09
3.21549e-09
3.00221e-09
3.05295e-09
3.26062e-09
2.89265e-09
3.14148e-09
3.14573e-09
2.93896e-09
3.12413e-09
3.05937e-09
2.95776e-09
2.89987e-09
3.05639e-09
2.30296e-09
2.89871e-09
3.19898e-09
2.98365e-09
2.43657e-09
2.75365e-09
2.35301e-09
2.90015e-09
2.98901e-09
2.80701e-09
2.84516e-09
3.10558e-09
2.71804e-09
3.01918e-09
2.92876e-09
2.75336e-09
2.90857e-09
2.85338e-09
2.77589e-09
2.72935e-09
2.85212e-09
2.19935e-09
2.72776e-09
2.97135e-09
2.78764e-09
2.33197e-09
2.59906e-09
2.28657e-09
2.71459e-09
2.79768e-09
2.64826e-09
2.68188e-09
2.99609e-09
2.5885e-09
2.94779e-09
2.74841e-09
2.61822e-09
2.73858e-09
2.69341e-09
2.6397e-09
2.59985e-09
2.69207e-09
2.11963e-09
2.59873e-09
2.77927e-09
2.62892e-09
2.27523e-09
2.48361e-09
2.24773e-09
2.5646e-09
2.64314e-09
2.52252e-09
2.56301e-09
2.93994e-09
2.49858e-09
2.94244e-09
2.616e-09
2.50967e-09
2.61183e-09
2.57435e-09
2.54134e-09
2.50955e-09
2.57355e-09
2.07871e-09
2.50987e-09
2.6244e-09
2.50499e-09
2.24109e-09
2.40546e-09
2.22957e-09
2.45117e-09
2.5215e-09
2.43017e-09
2.48342e-09
2.9489e-09
2.45198e-09
2.98275e-09
2.51114e-09
2.43928e-09
2.52278e-09
2.49325e-09
2.48445e-09
2.45716e-09
2.49453e-09
2.07142e-09
2.46014e-09
2.50482e-09
2.41536e-09
2.22928e-09
2.36385e-09
2.23703e-09
2.37118e-09
2.43314e-09
2.37382e-09
2.44699e-09
2.99835e-09
2.44093e-09
3.06654e-09
2.44469e-09
2.40444e-09
2.47625e-09
2.45156e-09
2.46619e-09
2.44707e-09
2.45456e-09
2.09853e-09
2.45164e-09
2.41885e-09
2.3593e-09
2.24323e-09
2.36047e-09
2.27376e-09
2.32461e-09
2.38258e-09
2.35508e-09
2.44406e-09
3.09523e-09
2.47488e-09
3.20267e-09
2.41709e-09
2.40977e-09
2.46827e-09
2.45036e-09
2.49386e-09
2.48074e-09
2.45552e-09
2.16645e-09
2.48698e-09
2.36832e-09
2.34155e-09
2.28862e-09
2.4012e-09
2.34688e-09
2.31447e-09
2.37332e-09
2.387e-09
2.4922e-09
3.24306e-09
2.56741e-09
3.36392e-09
2.43109e-09
2.45685e-09
2.5105e-09
2.49801e-09
2.5821e-09
2.57277e-09
2.50453e-09
2.28582e-09
2.57964e-09
2.35991e-09
2.37238e-09
2.37281e-09
2.49748e-09
2.4705e-09
2.3508e-09
2.41904e-09
2.48593e-09
2.60108e-09
3.39984e-09
2.7334e-09
3.52027e-09
2.48932e-09
2.562e-09
2.61244e-09
2.60778e-09
2.74248e-09
2.74346e-09
2.61393e-09
2.47277e-09
2.74539e-09
2.40467e-09
2.47078e-09
2.5105e-09
2.6685e-09
2.65991e-09
2.4518e-09
2.54088e-09
2.68894e-09
2.79073e-09
3.57645e-09
3.00919e-09
3.80384e-09
2.61693e-09
2.7877e-09
2.79829e-09
2.79707e-09
3.01361e-09
3.01302e-09
2.80181e-09
2.76608e-09
3.0224e-09
2.52628e-09
2.6651e-09
2.72251e-09
2.94783e-09
2.94879e-09
2.65377e-09
2.78176e-09
3.05997e-09
3.10254e-09
3.90441e-09
3.44725e-09
4.27949e-09
2.88542e-09
3.19242e-09
3.10478e-09
3.10886e-09
3.44468e-09
3.46551e-09
3.11052e-09
3.20852e-09
3.45104e-09
2.7575e-09
3.06326e-09
3.04302e-09
3.38496e-09
3.39743e-09
3.02218e-09
3.21675e-09
3.71861e-09
3.59182e-09
4.41977e-09
4.12226e-09
4.94875e-09
3.35553e-09
3.82702e-09
3.58986e-09
3.60699e-09
4.11458e-09
4.10634e-09
3.59655e-09
3.88133e-09
4.1236e-09
3.21766e-09
3.67671e-09
3.54102e-09
4.03136e-09
4.07886e-09
3.66881e-09
3.98091e-09
4.85493e-09
4.34294e-09
5.13706e-09
5.14115e-09
5.77857e-09
4.07943e-09
4.91356e-09
4.33101e-09
4.32938e-09
5.13873e-09
5.15849e-09
4.34888e-09
4.9004e-09
5.14937e-09
3.94285e-09
4.84334e-09
4.30851e-09
5.06537e-09
5.117e-09
4.80817e-09
5.28216e-09
6.88522e-09
5.46693e-09
6.0504e-09
6.68437e-09
6.82423e-09
5.3407e-09
6.63154e-09
5.45821e-09
5.50966e-09
6.68595e-09
6.69442e-09
5.49491e-09
6.35425e-09
6.6929e-09
5.30856e-09
6.81148e-09
5.46453e-09
6.57953e-09
6.66813e-09
6.82755e-09
7.59834e-09
1.03374e-08
7.16033e-09
7.15131e-09
8.92689e-09
8.74439e-09
7.19525e-09
1.03169e-08
7.16322e-09
7.2154e-09
8.91501e-09
8.95702e-09
7.17335e-09
8.62856e-09
8.95887e-09
7.55738e-09
1.03198e-08
7.14786e-09
8.82853e-09
8.96033e-09
1.03523e-08
1.15388e-08
1.64351e-08
9.63775e-09
9.3465e-09
1.22141e-08
1.20034e-08
1.14171e-08
1.68959e-08
9.61046e-09
9.67947e-09
1.21732e-08
1.21576e-08
9.64711e-09
1.20862e-08
1.22184e-08
1.14813e-08
1.61937e-08
9.65759e-09
1.19831e-08
1.22418e-08
1.63569e-08
1.84134e-08
2.62386e-08
1.32281e-08
1.28908e-08
1.66082e-08
1.61861e-08
1.90593e-08
2.57059e-08
1.31978e-08
1.32419e-08
1.6601e-08
1.66388e-08
1.32115e-08
1.63748e-08
1.67382e-08
1.80621e-08
2.67321e-08
1.32515e-08
1.64519e-08
1.68274e-08
2.64879e-08
2.90858e-08
4.33369e-08
1.80735e-08
1.76603e-08
2.29508e-08
2.21456e-08
2.89988e-08
4.22356e-08
1.805e-08
1.79063e-08
2.29136e-08
2.33444e-08
1.81342e-08
2.22944e-08
2.30136e-08
2.90611e-08
4.44669e-08
1.82358e-08
2.31606e-08
2.3161e-08
4.30046e-08
4.74865e-08
6.7524e-08
2.47207e-08
2.40151e-08
3.13658e-08
3.12164e-08
4.59909e-08
6.9429e-08
2.46669e-08
2.49255e-08
3.12787e-08
3.11683e-08
2.48301e-08
3.13579e-08
3.11953e-08
4.97166e-08
6.42107e-08
2.50088e-08
3.08603e-08
3.14452e-08
6.72413e-08
7.42547e-08
1.02094e-07
3.38237e-08
3.34135e-08
4.17745e-08
4.10766e-08
7.64931e-08
9.86125e-08
3.37368e-08
3.41998e-08
4.1742e-08
4.21498e-08
3.37311e-08
4.10282e-08
4.19991e-08
7.16558e-08
1.06291e-07
3.40284e-08
4.1897e-08
4.23342e-08
1.03386e-07
1.10122e-07
1.50784e-07
4.49658e-08
4.47982e-08
5.55268e-08
5.54753e-08
1.07118e-07
1.55114e-07
4.49081e-08
4.49649e-08
5.53586e-08
5.52558e-08
4.50519e-08
5.53132e-08
5.55981e-08
1.12139e-07
1.48497e-07
4.53776e-08
5.48024e-08
5.60916e-08
1.5004e-07
1.61746e-07
2.0819e-07
5.92189e-08
5.87985e-08
7.15893e-08
7.13183e-08
1.64907e-07
2.06541e-07
5.90577e-08
5.90165e-08
7.14617e-08
7.18868e-08
5.93887e-08
7.12142e-08
7.12923e-08
1.60352e-07
2.08638e-07
5.9956e-08
7.15436e-08
7.18118e-08
2.081e-07
2.21264e-07
2.78302e-07
7.61339e-08
7.60899e-08
9.07229e-08
9.04536e-08
2.21087e-07
2.79461e-07
7.59562e-08
7.64143e-08
9.04948e-08
9.10225e-08
7.60233e-08
9.0016e-08
9.11977e-08
2.22528e-07
2.78995e-07
7.65796e-08
9.05916e-08
9.19906e-08
2.80224e-07
2.93094e-07
3.54325e-07
9.60634e-08
9.56042e-08
1.12816e-07
1.13036e-07
2.92941e-07
3.55284e-07
9.58789e-08
9.6127e-08
1.12531e-07
1.12957e-07
9.61374e-08
1.12784e-07
1.13041e-07
2.92328e-07
3.55401e-07
9.69167e-08
1.12386e-07
1.13931e-07
3.53515e-07
3.7022e-07
4.31877e-07
1.18667e-07
1.19181e-07
1.38475e-07
1.38788e-07
3.73427e-07
4.32029e-07
1.18344e-07
1.19157e-07
1.38319e-07
1.38133e-07
1.19175e-07
1.37954e-07
1.37452e-07
3.70943e-07
4.32254e-07
1.20007e-07
1.37703e-07
1.38459e-07
4.32236e-07
4.4827e-07
5.08509e-07
1.45489e-07
1.45683e-07
1.66594e-07
1.66125e-07
4.48043e-07
5.07306e-07
1.45237e-07
1.44828e-07
1.66146e-07
1.67508e-07
1.44951e-07
1.65728e-07
1.6728e-07
4.49243e-07
5.07408e-07
1.46038e-07
1.67021e-07
1.67783e-07
5.09041e-07
5.23652e-07
5.77888e-07
1.74116e-07
1.73253e-07
1.98497e-07
1.99784e-07
5.21002e-07
5.81056e-07
1.73872e-07
1.74729e-07
1.97997e-07
1.97656e-07
1.7336e-07
1.98461e-07
1.99024e-07
5.23006e-07
5.78088e-07
1.74555e-07
1.96913e-07
1.99624e-07
5.80244e-07
5.93191e-07
6.42949e-07
2.07007e-07
2.0957e-07
2.33336e-07
2.32329e-07
5.96486e-07
6.42211e-07
2.06167e-07
2.06852e-07
2.33386e-07
2.33987e-07
2.08851e-07
2.32499e-07
2.33411e-07
5.9286e-07
6.42892e-07
2.08783e-07
2.34031e-07
2.34356e-07
6.43929e-07
6.57005e-07
6.9922e-07
2.42454e-07
2.39241e-07
2.70446e-07
2.73092e-07
6.57367e-07
7.00033e-07
2.42859e-07
2.42704e-07
2.69339e-07
2.70439e-07
2.42706e-07
2.7087e-07
2.69155e-07
6.57442e-07
6.99259e-07
2.43442e-07
2.69264e-07
2.69162e-07
6.96875e-07
7.12334e-07
7.52002e-07
2.80199e-07
2.86812e-07
3.11713e-07
3.15092e-07
7.1358e-07
7.53826e-07
2.78568e-07
2.79943e-07
3.11422e-07
3.1155e-07
2.7788e-07
3.14181e-07
3.13837e-07
7.11524e-07
7.52532e-07
2.78002e-07
3.11747e-07
3.13094e-07
7.53448e-07
7.64292e-07
7.97226e-07
3.22699e-07
3.21282e-07
3.54485e-07
3.50659e-07
7.63603e-07
7.89933e-07
3.22838e-07
3.2354e-07
3.53971e-07
3.54617e-07
3.25877e-07
3.4943e-07
3.54217e-07
7.65428e-07
7.97257e-07
3.26088e-07
3.53337e-07
3.52841e-07
7.97113e-07
8.07905e-07
8.37284e-07
3.64144e-07
3.62906e-07
3.9715e-07
3.9868e-07
8.02662e-07
8.41269e-07
3.63478e-07
3.63283e-07
3.96519e-07
4.00396e-07
3.63122e-07
3.96116e-07
3.97585e-07
8.08011e-07
8.38532e-07
3.60409e-07
3.99929e-07
3.97808e-07
8.37555e-07
8.48084e-07
8.77664e-07
4.10821e-07
4.12846e-07
4.46805e-07
4.5154e-07
8.51311e-07
8.77531e-07
4.10014e-07
4.14096e-07
4.46144e-07
4.42615e-07
4.11811e-07
4.5102e-07
4.47655e-07
8.49058e-07
8.75853e-07
4.11834e-07
4.42419e-07
4.47094e-07
8.77394e-07
8.87057e-07
9.10405e-07
4.56149e-07
4.6001e-07
4.93202e-07
4.89129e-07
8.87053e-07
9.0987e-07
4.55808e-07
4.52338e-07
4.92511e-07
4.96564e-07
4.56173e-07
4.87532e-07
4.9183e-07
8.85178e-07
9.11951e-07
4.5602e-07
4.95158e-07
4.87433e-07
9.10327e-07
9.19769e-07
9.44748e-07
5.0767e-07
5.04782e-07
5.39402e-07
5.48442e-07
9.19215e-07
9.46305e-07
5.06506e-07
5.10219e-07
5.38593e-07
5.39627e-07
5.07043e-07
5.46653e-07
5.43733e-07
9.22074e-07
9.45605e-07
5.03114e-07
5.38768e-07
5.45474e-07
9.46409e-07
9.52948e-07
9.76232e-07
5.49203e-07
5.57321e-07
5.93271e-07
5.85782e-07
9.54244e-07
9.72752e-07
5.48661e-07
5.51835e-07
5.92571e-07
5.96226e-07
5.54208e-07
5.83459e-07
5.89622e-07
9.53767e-07
9.77576e-07
5.54068e-07
5.96113e-07
5.86634e-07
9.74405e-07
9.85659e-07
1.00697e-06
6.08312e-07
6.00952e-07
6.37527e-07
6.41315e-07
9.81622e-07
1.00877e-06
6.07836e-07
6.07079e-07
6.3745e-07
6.34237e-07
6.01359e-07
6.40496e-07
6.38791e-07
9.85873e-07
1.00341e-06
6.01722e-07
6.32352e-07
6.37776e-07
1.00806e-06
1.01358e-06
1.03492e-06
6.46756e-07
6.50283e-07
6.88212e-07
6.8839e-07
1.01616e-06
1.03546e-06
6.45873e-07
6.46208e-07
6.87232e-07
6.89494e-07
6.52601e-07
6.86553e-07
6.8796e-07
1.01111e-06
1.03847e-06
6.49305e-07
6.89729e-07
6.8644e-07
1.03618e-06
1.04349e-06
1.06123e-06
7.01061e-07
7.02315e-07
7.27611e-07
7.29845e-07
1.04374e-06
1.06213e-06
7.01089e-07
7.02824e-07
7.27149e-07
7.31308e-07
6.98221e-07
7.29791e-07
7.32167e-07
1.04701e-06
1.06399e-06
6.97278e-07
7.32754e-07
7.32016e-07
1.06374e-06
1.0679e-06
1.0942e-06
7.37185e-07
7.38525e-07
7.78551e-07
7.72847e-07
1.06774e-06
1.08723e-06
7.3611e-07
7.39746e-07
7.78241e-07
7.75088e-07
7.42504e-07
7.67964e-07
7.73635e-07
1.07008e-06
1.08931e-06
7.44147e-07
7.72287e-07
7.72752e-07
1.09104e-06
1.10369e-06
1.12551e-06
7.93659e-07
7.87394e-07
8.27325e-07
8.29934e-07
1.0969e-06
1.1283e-06
7.93653e-07
7.88216e-07
8.26999e-07
8.20986e-07
7.87102e-07
8.28143e-07
8.26086e-07
1.09727e-06
1.12202e-06
7.82337e-07
8.20123e-07
8.21984e-07
1.12198e-06
1.13035e-06
1.13796e-06
8.33903e-07
8.39215e-07
8.52824e-07
8.52636e-07
1.13437e-06
1.13692e-06
8.33445e-07
8.31266e-07
8.51042e-07
8.63411e-07
8.34368e-07
8.55452e-07
8.53635e-07
1.12927e-06
1.14742e-06
8.34957e-07
8.64912e-07
8.58867e-07
1.14356e-06
1.14315e-06
1.16866e-06
8.6163e-07
8.57246e-07
8.92489e-07
8.87858e-07
1.13974e-06
1.16489e-06
8.59904e-07
8.71878e-07
8.93643e-07
8.90676e-07
8.6339e-07
8.89022e-07
8.99602e-07
1.15316e-06
1.16591e-06
8.65256e-07
8.89332e-07
8.95847e-07
1.17101e-06
1.17678e-06
1.19855e-06
9.03466e-07
9.04181e-07
9.37775e-07
9.45693e-07
1.17806e-06
1.21065e-06
9.03811e-07
8.98794e-07
9.34543e-07
9.35154e-07
9.08275e-07
9.42213e-07
9.31782e-07
1.17157e-06
1.19729e-06
9.06222e-07
9.35541e-07
9.31919e-07
1.19657e-06
1.20561e-06
1.22472e-06
9.48449e-07
9.53763e-07
9.71738e-07
9.71758e-07
1.21569e-06
1.22421e-06
9.45394e-07
9.47735e-07
9.71602e-07
9.73899e-07
9.42166e-07
9.71139e-07
9.71521e-07
1.20646e-06
1.22718e-06
9.42252e-07
9.73064e-07
9.71341e-07
1.22356e-06
1.22942e-06
1.23707e-06
9.76508e-07
9.75739e-07
9.90215e-07
9.84354e-07
1.22718e-06
1.22539e-06
9.76877e-07
9.78977e-07
9.91156e-07
9.91886e-07
9.77792e-07
9.84517e-07
9.91682e-07
1.23122e-06
1.23738e-06
9.77247e-07
9.91295e-07
9.91125e-07
1.2378e-06
1.24197e-06
1.26629e-06
9.97382e-07
9.88965e-07
1.02729e-06
1.02117e-06
1.22837e-06
1.26141e-06
9.98505e-07
9.98206e-07
1.02463e-06
1.02684e-06
9.98166e-07
1.02062e-06
1.02805e-06
1.24228e-06
1.26627e-06
9.9829e-07
1.02607e-06
1.02819e-06
1.26788e-06
1.27242e-06
1.28349e-06
1.03516e-06
1.03594e-06
1.05167e-06
1.06014e-06
1.27374e-06
1.29613e-06
1.03159e-06
1.03493e-06
1.05108e-06
1.04959e-06
1.03654e-06
1.0603e-06
1.05102e-06
1.27186e-06
1.28002e-06
1.03537e-06
1.04649e-06
1.04902e-06
1.28361e-06
1.28835e-06
1.30439e-06
1.05737e-06
1.06277e-06
1.07588e-06
1.06999e-06
1.29918e-06
1.30097e-06
1.05824e-06
1.05517e-06
1.07831e-06
1.07842e-06
1.05654e-06
1.06995e-06
1.07951e-06
1.2848e-06
1.30931e-06
1.0553e-06
1.08098e-06
1.07987e-06
1.30695e-06
1.30941e-06
1.31817e-06
1.08095e-06
1.07445e-06
1.09383e-06
1.09655e-06
1.30423e-06
1.31981e-06
1.0831e-06
1.0853e-06
1.0936e-06
1.10187e-06
1.08553e-06
1.09669e-06
1.09599e-06
1.31534e-06
1.32515e-06
1.08581e-06
1.10165e-06
1.09557e-06
1.31999e-06
1.32246e-06
1.33984e-06
1.09962e-06
1.10468e-06
1.12176e-06
1.12046e-06
1.32665e-06
1.33917e-06
1.09825e-06
1.10597e-06
1.11936e-06
1.11461e-06
1.10001e-06
1.11969e-06
1.12072e-06
1.3288e-06
1.33401e-06
1.09905e-06
1.11454e-06
1.11887e-06
1.33923e-06
1.34562e-06
1.35292e-06
1.12774e-06
1.12336e-06
1.13694e-06
1.13339e-06
1.34209e-06
1.34754e-06
1.12617e-06
1.11787e-06
1.13778e-06
1.1333e-06
1.1274e-06
1.13169e-06
1.13739e-06
1.33679e-06
1.34612e-06
1.12636e-06
1.13198e-06
1.13875e-06
1.35322e-06
1.35544e-06
1.36685e-06
1.13902e-06
1.13897e-06
1.15311e-06
1.1603e-06
1.35258e-06
1.3755e-06
1.13999e-06
1.14e-06
1.15284e-06
1.16032e-06
1.13898e-06
1.16069e-06
1.15072e-06
1.35229e-06
1.37467e-06
1.14048e-06
1.16043e-06
1.15064e-06
1.36379e-06
1.37428e-06
1.39118e-06
1.16125e-06
1.16638e-06
1.18081e-06
1.17689e-06
1.38146e-06
1.38794e-06
1.16036e-06
1.16599e-06
1.17958e-06
1.17693e-06
1.15864e-06
1.17691e-06
1.18083e-06
1.38058e-06
1.38881e-06
1.15774e-06
1.17779e-06
1.17994e-06
1.39152e-06
1.39425e-06
1.39488e-06
1.18354e-06
1.17876e-06
1.18717e-06
1.18594e-06
1.38976e-06
1.39247e-06
1.18252e-06
1.17909e-06
1.18676e-06
1.18586e-06
1.18398e-06
1.18636e-06
1.18921e-06
1.39094e-06
1.39315e-06
1.18355e-06
1.18644e-06
1.18889e-06
1.39674e-06
1.39738e-06
1.4053e-06
1.18899e-06
1.18962e-06
1.19924e-06
1.19994e-06
1.3967e-06
1.4068e-06
1.18895e-06
1.18912e-06
1.20044e-06
1.2015e-06
1.19168e-06
1.1996e-06
1.19909e-06
1.3968e-06
1.40651e-06
1.19107e-06
1.19968e-06
1.20065e-06
1.4066e-06
1.40979e-06
1.421e-06
1.20329e-06
1.2032e-06
1.21652e-06
1.21838e-06
1.41012e-06
1.42301e-06
1.20438e-06
1.20581e-06
1.21582e-06
1.21803e-06
1.20246e-06
1.21921e-06
1.21801e-06
1.41056e-06
1.42353e-06
1.20445e-06
1.21985e-06
1.21622e-06
1.4211e-06
1.42558e-06
1.43486e-06
1.22159e-06
1.22337e-06
1.23184e-06
1.23095e-06
1.42858e-06
1.43483e-06
1.22047e-06
1.22186e-06
1.23215e-06
1.23321e-06
1.22234e-06
1.2317e-06
1.22886e-06
1.42821e-06
1.43628e-06
1.21926e-06
1.23137e-06
1.22868e-06
1.43125e-06
1.43754e-06
1.44037e-06
1.23313e-06
1.23229e-06
1.23934e-06
1.24108e-06
1.43693e-06
1.44363e-06
1.23393e-06
1.23618e-06
1.23867e-06
1.2411e-06
1.23112e-06
1.24185e-06
1.24339e-06
1.4397e-06
1.44459e-06
1.2332e-06
1.24329e-06
1.24521e-06
1.44624e-06
1.44427e-06
1.455e-06
1.24364e-06
1.24518e-06
1.25463e-06
1.25117e-06
1.44824e-06
1.45131e-06
1.24207e-06
1.24268e-06
1.25343e-06
1.25047e-06
1.24719e-06
1.25153e-06
1.25164e-06
1.44678e-06
1.44853e-06
1.24688e-06
1.24797e-06
1.24845e-06
1.45026e-06
1.4576e-06
1.4561e-06
1.25571e-06
1.25148e-06
1.25672e-06
1.25487e-06
1.45249e-06
1.45332e-06
1.25511e-06
1.25293e-06
1.25664e-06
1.25688e-06
1.25225e-06
1.25539e-06
1.25756e-06
1.45151e-06
1.45767e-06
1.24983e-06
1.2596e-06
1.26012e-06
1.45917e-06
1.45866e-06
1.46889e-06
1.25813e-06
1.25807e-06
1.26887e-06
1.27175e-06
1.45785e-06
1.47378e-06
1.2578e-06
1.25845e-06
1.2675e-06
1.26886e-06
1.26076e-06
1.27172e-06
1.26999e-06
1.46064e-06
1.46892e-06
1.26364e-06
1.26937e-06
1.2683e-06
1.47028e-06
1.47327e-06
1.47705e-06
1.27234e-06
1.27477e-06
1.27637e-06
1.2768e-06
1.47767e-06
1.47642e-06
1.27119e-06
1.27286e-06
1.27779e-06
1.27836e-06
1.27157e-06
1.27613e-06
1.27335e-06
1.47343e-06
1.47878e-06
1.26936e-06
1.27732e-06
1.27285e-06
1.47171e-06
1.47906e-06
1.48104e-06
1.27723e-06
1.27674e-06
1.2813e-06
1.27858e-06
1.47773e-06
1.47793e-06
1.27898e-06
1.27833e-06
1.28026e-06
1.2771e-06
1.27393e-06
1.27751e-06
1.27909e-06
1.48019e-06
1.47472e-06
1.27394e-06
1.27665e-06
1.27981e-06
1.47956e-06
1.48329e-06
1.48511e-06
1.28215e-06
1.28056e-06
1.28463e-06
1.2865e-06
1.48113e-06
1.48873e-06
1.28031e-06
1.2773e-06
1.28324e-06
1.28539e-06
1.28209e-06
1.28806e-06
1.28888e-06
1.47686e-06
1.48786e-06
1.28255e-06
1.2874e-06
1.28774e-06
1.49086e-06
1.48842e-06
1.49792e-06
1.28683e-06
1.28795e-06
1.29533e-06
1.29224e-06
1.49167e-06
1.49406e-06
1.28648e-06
1.28955e-06
1.29643e-06
1.2969e-06
1.28959e-06
1.29191e-06
1.29225e-06
1.49326e-06
1.50095e-06
1.28863e-06
1.29592e-06
1.29272e-06
1.49357e-06
1.50092e-06
1.49758e-06
1.29676e-06
1.2932e-06
1.29636e-06
1.29364e-06
1.49614e-06
1.4942e-06
1.29768e-06
1.29706e-06
1.29633e-06
1.29339e-06
1.29373e-06
1.29249e-06
1.29528e-06
1.50256e-06
1.49332e-06
1.29397e-06
1.29188e-06
1.29442e-06
1.49743e-06
1.49871e-06
1.4958e-06
1.29527e-06
1.29354e-06
1.29441e-06
1.29499e-06
1.49563e-06
1.49778e-06
1.29487e-06
1.29193e-06
1.29342e-06
1.29057e-06
1.29506e-06
1.29506e-06
1.29486e-06
1.49424e-06
1.49113e-06
1.29371e-06
1.29058e-06
1.29333e-06
1.49706e-06
1.49814e-06
1.49919e-06
1.2948e-06
1.29552e-06
1.2959e-06
1.29442e-06
1.50018e-06
1.49638e-06
1.29363e-06
1.29121e-06
1.295e-06
1.29474e-06
1.29521e-06
1.29377e-06
1.29418e-06
1.49408e-06
1.49948e-06
1.29411e-06
1.29581e-06
1.29474e-06
1.49707e-06
1.50087e-06
1.50476e-06
1.29577e-06
1.29393e-06
1.29811e-06
1.2972e-06
1.49765e-06
1.50369e-06
1.29511e-06
1.2957e-06
1.29937e-06
1.30176e-06
1.29378e-06
1.29702e-06
1.29778e-06
1.50209e-06
1.50956e-06
1.29453e-06
1.30149e-06
1.29859e-06
1.50447e-06
1.50923e-06
1.51114e-06
1.30111e-06
1.30073e-06
1.3031e-06
1.30352e-06
1.5091e-06
1.5126e-06
1.30181e-06
1.30372e-06
1.30296e-06
1.30372e-06
1.30151e-06
1.30381e-06
1.30427e-06
1.51377e-06
1.51192e-06
1.30186e-06
1.30349e-06
1.30373e-06
1.51268e-06
1.51169e-06
1.48565e-06
1.30084e-06
1.30128e-06
1.28396e-06
1.28388e-06
1.51309e-06
1.48554e-06
1.30026e-06
1.30005e-06
1.28323e-06
1.28197e-06
1.30188e-06
1.28404e-06
1.28403e-06
1.5122e-06
1.48225e-06
1.30097e-06
1.28175e-06
1.28315e-06
1.48544e-06
1.48555e-06
1.47742e-06
1.27894e-06
1.2788e-06
1.27414e-06
1.27413e-06
1.48539e-06
1.4775e-06
1.27822e-06
1.27696e-06
1.27354e-06
1.27277e-06
1.27883e-06
1.27423e-06
1.27398e-06
1.48207e-06
1.47523e-06
1.27804e-06
1.27268e-06
1.27348e-06
1.47716e-06
1.48205e-06
1.51939e-06
1.27553e-06
1.27568e-06
1.30031e-06
1.30113e-06
1.4823e-06
1.52081e-06
1.27502e-06
1.27466e-06
1.30014e-06
1.30138e-06
1.27548e-06
1.30122e-06
1.3008e-06
1.48039e-06
1.52116e-06
1.27514e-06
1.30158e-06
1.30097e-06
1.52026e-06
1.53176e-06
1.55898e-06
1.31123e-06
1.31211e-06
1.32762e-06
1.32836e-06
1.53328e-06
1.5603e-06
1.3111e-06
1.31249e-06
1.32752e-06
1.32862e-06
1.3118e-06
1.32847e-06
1.32819e-06
1.53376e-06
1.56084e-06
1.31199e-06
1.32877e-06
1.32824e-06
1.55993e-06
1.56129e-06
1.51614e-06
1.32732e-06
1.32802e-06
1.29794e-06
1.29815e-06
1.56252e-06
1.51627e-06
1.32722e-06
1.32826e-06
1.29791e-06
1.29831e-06
1.32787e-06
1.29826e-06
1.29828e-06
1.56306e-06
1.51668e-06
1.32791e-06
1.2984e-06
1.29823e-06
1.51662e-06
1.51039e-06
1.43124e-06
1.2816e-06
1.28166e-06
1.23118e-06
1.23098e-06
1.51043e-06
1.43077e-06
1.28157e-06
1.2818e-06
1.23111e-06
1.23108e-06
1.28186e-06
1.23105e-06
1.23127e-06
1.51082e-06
1.431e-06
1.28179e-06
1.23114e-06
1.23119e-06
1.4313e-06
1.42758e-06
1.38539e-06
1.21817e-06
1.21795e-06
1.19179e-06
1.19163e-06
1.4271e-06
1.38514e-06
1.21808e-06
1.21803e-06
1.19164e-06
1.19163e-06
1.21824e-06
1.19167e-06
1.19188e-06
1.4273e-06
1.38512e-06
1.21816e-06
1.1917e-06
1.19178e-06
1.38546e-06
1.38539e-06
1.38853e-06
1.18736e-06
1.18723e-06
1.18699e-06
1.18698e-06
1.38516e-06
1.3887e-06
1.18718e-06
1.18721e-06
1.18678e-06
1.18694e-06
1.18746e-06
1.187e-06
1.18715e-06
1.38513e-06
1.3886e-06
1.18736e-06
1.18701e-06
1.18703e-06
1.38879e-06
1.39823e-06
1.47062e-06
1.19477e-06
1.19485e-06
1.24554e-06
1.24565e-06
1.39848e-06
1.47094e-06
1.19454e-06
1.19481e-06
1.24532e-06
1.24567e-06
1.19497e-06
1.24565e-06
1.24574e-06
1.39837e-06
1.47094e-06
1.19484e-06
1.24572e-06
1.24558e-06
1.47095e-06
1.49129e-06
1.57759e-06
1.26663e-06
1.2667e-06
1.32415e-06
1.32415e-06
1.49158e-06
1.57775e-06
1.26641e-06
1.26676e-06
1.32395e-06
1.32426e-06
1.2668e-06
1.32414e-06
1.32427e-06
1.49159e-06
1.57784e-06
1.26664e-06
1.32426e-06
1.3241e-06
1.57784e-06
1.59419e-06
1.62886e-06
1.33851e-06
1.33849e-06
1.35831e-06
1.35823e-06
1.59431e-06
1.62886e-06
1.33832e-06
1.33861e-06
1.35814e-06
1.35837e-06
1.33863e-06
1.35822e-06
1.3584e-06
1.59441e-06
1.62899e-06
1.33845e-06
1.35834e-06
1.35823e-06
1.62904e-06
1.63181e-06
1.58539e-06
1.35835e-06
1.35826e-06
1.33054e-06
1.33041e-06
1.63179e-06
1.5853e-06
1.35818e-06
1.35841e-06
1.3304e-06
1.33055e-06
1.35844e-06
1.33042e-06
1.3306e-06
1.63192e-06
1.58542e-06
1.35826e-06
1.33054e-06
1.33045e-06
1.58551e-06
1.57928e-06
1.48452e-06
1.31468e-06
1.31453e-06
1.25878e-06
1.25863e-06
1.57919e-06
1.48444e-06
1.31453e-06
1.31467e-06
1.25863e-06
1.25876e-06
1.31473e-06
1.25868e-06
1.25883e-06
1.57929e-06
1.48454e-06
1.31458e-06
1.25879e-06
1.25868e-06
1.48461e-06
1.4787e-06
1.41116e-06
1.24327e-06
1.24313e-06
1.2039e-06
1.20377e-06
1.47863e-06
1.41112e-06
1.24312e-06
1.24325e-06
1.20374e-06
1.20388e-06
1.24332e-06
1.20381e-06
1.20395e-06
1.47872e-06
1.4112e-06
1.24317e-06
1.2039e-06
1.20379e-06
1.41127e-06
1.40898e-06
1.37842e-06
1.19555e-06
1.19542e-06
1.17366e-06
1.17355e-06
1.40895e-06
1.3784e-06
1.19538e-06
1.19553e-06
1.17349e-06
1.17365e-06
1.1956e-06
1.17356e-06
1.17371e-06
1.40902e-06
1.37847e-06
1.19544e-06
1.17366e-06
1.17355e-06
1.37854e-06
1.37877e-06
1.36999e-06
1.16949e-06
1.16938e-06
1.15581e-06
1.15572e-06
1.37875e-06
1.36997e-06
1.16932e-06
1.16948e-06
1.15564e-06
1.15582e-06
1.16953e-06
1.1557e-06
1.15585e-06
1.37882e-06
1.37005e-06
1.16937e-06
1.1558e-06
1.1557e-06
1.3701e-06
1.37173e-06
1.37158e-06
1.15373e-06
1.15363e-06
1.14387e-06
1.14378e-06
1.37171e-06
1.37154e-06
1.15357e-06
1.15373e-06
1.14371e-06
1.14388e-06
1.15376e-06
1.14376e-06
1.14389e-06
1.37179e-06
1.37163e-06
1.15361e-06
1.14385e-06
1.14373e-06
1.37167e-06
1.37334e-06
1.35395e-06
1.14252e-06
1.14243e-06
1.11651e-06
1.11638e-06
1.37332e-06
1.35392e-06
1.14236e-06
1.14253e-06
1.1164e-06
1.11644e-06
1.14255e-06
1.11647e-06
1.11646e-06
1.3734e-06
1.35398e-06
1.14239e-06
1.11652e-06
1.11636e-06
1.35396e-06
1.33308e-06
1.08172e-06
1.08159e-06
1.33305e-06
1.08165e-06
1.08165e-06
6.47868e-07
6.47914e-07
6.47864e-07
1.08166e-06
1.3331e-06
1.0816e-06
5.66084e-09
2.49256e-09
3.40957e-09
3.39646e-09
1.63674e-09
4.15883e-09
3.10474e-09
1.87119e-09
1.54438e-09
4.38275e-09
1.96845e-09
9.56265e-09
5.29252e-09
7.60041e-09
4.15322e-08
7.36867e-09
1.64925e-07
5.97923e-09
2.61321e-07
1.6046e-06
3.14415e-06
8.5254e-09
1.64645e-07
7.20897e-09
2.6108e-07
2.63095e-09
2.6309e-09
2.88304e-09
2.6394e-09
2.60918e-09
2.61007e-09
2.8376e-09
1.54147e-09
7.64944e-08
1.56697e-09
3.50432e-09
1.58141e-09
5.53872e-08
1.55057e-09
1.62936e-06
3.21566e-06
1.53476e-09
1.79261e-09
9.03924e-08
4.36842e-09
1.5534e-09
1.76888e-09
6.52992e-08
2.19507e-07
2.44324e-07
5.03888e-09
1.8817e-07
2.16798e-07
1.69179e-08
4.69989e-07
1.17882e-08
6.78069e-07
7.02522e-06
9.99271e-06
1.79024e-08
4.69708e-07
1.29474e-08
6.7788e-07
2.59708e-09
2.59657e-09
2.77149e-09
2.58499e-09