/*--------------------------------*- C++ -*----------------------------------*\
| =========                 |                                                 |
| \\      /  F ield         | OpenFOAM: The Open Source CFD Toolbox           |
|  \\    /   O peration     | Version:  v2012                                 |
|   \\  /    A nd           | Website:  www.openfoam.com                      |
|    \\/     M anipulation  |                                                 |
\*---------------------------------------------------------------------------*/
FoamFile
{
    version     2.0;
    format      ascii;
    class       volScalarField;
    location    "362.5";
    object      nut;
}
// * * * * * * * * * * * * * * * * * * * * * * * * * * * * * * * * * * * * * //

dimensions      [0 2 -1 0 0 0 0];


internalField   nonuniform List<scalar> 
171728
(
5.38286e-06
2.11725e-06
2.21453e-06
2.25832e-06
5.35047e-06
2.08901e-06
2.18147e-06
2.38788e-06
5.42315e-06
2.08284e-06
2.16105e-06
2.38686e-06
5.4967e-06
2.06899e-06
2.14103e-06
2.26976e-06
5.57282e-06
2.04715e-06
2.11757e-06
2.1102e-06
5.65009e-06
2.02156e-06
2.09349e-06
2.11237e-06
5.7304e-06
1.99465e-06
2.06036e-06
2.08893e-06
5.81646e-06
1.94717e-06
2.01547e-06
2.0636e-06
5.90744e-06
1.88797e-06
1.96162e-06
2.02793e-06
6.00242e-06
1.81518e-06
1.8996e-06
1.97747e-06
6.09917e-06
1.72895e-06
1.82793e-06
1.91034e-06
6.19333e-06
1.63885e-06
1.74839e-06
1.82852e-06
6.29992e-06
1.54225e-06
1.65507e-06
1.7378e-06
6.40733e-06
1.4464e-06
1.55059e-06
1.63637e-06
6.51886e-06
1.3498e-06
1.45119e-06
1.52457e-06
6.63001e-06
1.25764e-06
1.34032e-06
1.41131e-06
6.73736e-06
1.18731e-06
1.26966e-06
1.30803e-06
6.84924e-06
1.13845e-06
1.20443e-06
1.23409e-06
6.94343e-06
1.1335e-06
1.20338e-06
1.23365e-06
7.04082e-06
1.17496e-06
1.26609e-06
1.3735e-06
7.11832e-06
1.33968e-06
1.44683e-06
1.73339e-06
7.1693e-06
1.75133e-06
1.72938e-06
2.4023e-06
7.16441e-06
2.20918e-06
2.1444e-06
3.57511e-06
7.12562e-06
2.78651e-06
3.17981e-06
5.58344e-06
7.03595e-06
4.20766e-06
3.95832e-06
8.40063e-06
6.86981e-06
5.11325e-06
5.38572e-06
1.28085e-05
6.66326e-06
7.12159e-06
6.97759e-06
1.76459e-05
6.41817e-06
9.21838e-06
9.2216e-06
2.40404e-05
6.1545e-06
1.15923e-05
1.1851e-05
3.13601e-05
5.93971e-06
1.47917e-05
1.46325e-05
3.83118e-05
5.86354e-06
1.8174e-05
1.8035e-05
4.54718e-05
5.74103e-06
2.20438e-05
2.24613e-05
5.28526e-05
5.8451e-06
2.61657e-05
2.57537e-05
5.89451e-05
6.16127e-06
3.15744e-05
3.15905e-05
6.48533e-05
6.53319e-06
3.52519e-05
3.57172e-05
6.94005e-05
7.20215e-06
4.40206e-05
4.14858e-05
7.52657e-05
8.49949e-06
4.57088e-05
4.70935e-05
7.97671e-05
8.76618e-06
5.11759e-05
5.33236e-05
8.29826e-05
1.15747e-05
6.17419e-05
5.80484e-05
8.84921e-05
1.21437e-05
6.19972e-05
6.58377e-05
9.09128e-05
1.56373e-05
7.41064e-05
6.94067e-05
9.67986e-05
1.6572e-05
7.39279e-05
7.98224e-05
9.87919e-05
2.2465e-05
8.44744e-05
8.14303e-05
0.00010382
2.28151e-05
8.95217e-05
8.96892e-05
0.000107594
2.97277e-05
9.56423e-05
9.64718e-05
0.000110927
2.90638e-05
9.724e-05
9.91688e-05
0.000114341
4.21157e-05
0.000108617
0.000105549
0.000119237
4.4711e-05
0.000114342
0.00011425
0.000122086
4.69275e-05
0.000110203
0.000115127
0.000125268
5.16447e-05
0.000123846
0.000120112
0.000128687
6.53254e-05
0.000131073
0.000130656
0.000134274
7.19372e-05
0.000130056
0.000129877
0.00013479
7.13023e-05
0.000129525
0.000136827
0.00013975
8.27298e-05
0.000144876
0.000137386
0.000141793
8.89774e-05
0.000145149
0.000145595
0.000146155
9.99065e-05
0.000146577
0.000150012
0.000147893
9.91517e-05
0.000154673
0.000153137
0.000151018
0.000113846
0.00015423
0.00015381
0.000154319
0.000115225
0.000159997
0.000159853
0.000153612
0.000122218
0.000167754
0.000167599
0.000161009
0.000134726
0.00016729
0.000167964
0.000161837
0.000135571
0.000169688
0.000169079
0.000163351
0.000140071
0.00017465
0.000175415
0.00016643
0.000150132
0.000179866
0.000178559
0.000168069
0.000153823
0.000180498
0.000183186
0.000171784
0.000160829
0.000186438
0.000183432
0.000173514
0.00016687
0.000185558
0.00018682
0.000173889
0.000168521
0.000190328
0.000189684
0.000178118
0.000176802
0.000195131
0.0001951
0.000178614
0.000183644
0.000194455
0.000195195
0.000179173
0.00018537
0.000197969
0.000195822
0.000183437
0.000190293
0.000201865
0.000203486
0.000184034
0.000200038
0.000203095
0.00020474
0.000186222
0.000202455
0.000204996
0.000203083
0.000186695
0.000203232
0.00020693
0.000205977
0.000187971
0.000208085
0.000206755
0.000209864
0.000188113
0.000216718
0.000214302
0.000214836
0.00019432
0.000221212
0.00021443
0.000213408
0.00019239
0.000216329
0.000207666
0.000206694
0.000185916
0.000210974
0.000209186
0.0002094
0.000189462
0.000238951
0.000230857
0.000231167
0.000206232
0.000259019
0.000241396
0.00024167
0.000212115
0.000246515
0.000219459
0.000219536
0.000194124
0.000213151
0.000199776
0.000199786
0.000179616
0.00019487
0.000190694
0.000190664
0.000171937
0.000195904
0.000199158
0.000199127
0.000180196
0.000241755
0.000227885
0.00022789
0.000201546
0.000282225
0.000251923
0.000251938
0.000220754
0.000303103
0.000262529
0.000262545
0.000226607
0.000281114
0.000238948
0.000238961
0.000208705
0.000239865
0.000217164
0.000217173
0.000192482
0.000221768
0.00020899
0.000208996
0.00018575
0.000221541
0.000209664
0.000209669
0.000186052
0.000229807
0.000212615
0.000212623
0.000188078
0.000236504
0.000214019
0.000214029
0.000191639
2.29127e-06
2.5346e-06
2.26144e-06
2.22794e-06
2.54183e-06
2.55689e-06
5.48567e-06
5.24587e-06
5.43856e-06
5.3157e-06
2.3888e-06
2.54701e-06
2.30525e-06
2.51492e-06
3.25395e-06
2.27101e-06
2.28842e-06
2.27956e-06
2.25879e-06
2.0412e-06
2.2282e-06
1.9927e-06
2.22387e-06
2.20433e-06
2.27568e-06
2.28385e-06
2.23697e-06
2.24931e-06
2.24813e-06
2.09131e-06
2.21982e-06
2.30303e-06
2.29341e-06
3.52469e-06
2.18761e-06
4.42982e-06
2.3665e-06
2.27827e-06
2.26807e-06
2.22359e-06
1.97827e-06
2.20595e-06
1.93696e-06
2.20255e-06
2.18647e-06
2.2306e-06
2.2428e-06
2.21445e-06
2.22368e-06
2.21558e-06
2.08475e-06
2.2069e-06
2.29152e-06
2.27941e-06
5.15931e-06
2.16572e-06
6.38283e-06
2.48267e-06
2.26692e-06
2.25513e-06
2.20069e-06
1.9262e-06
2.18563e-06
1.89269e-06
2.18459e-06
2.16566e-06
2.20987e-06
2.21754e-06
2.19736e-06
2.20103e-06
2.20243e-06
2.0736e-06
2.18604e-06
2.27697e-06
2.25816e-06
6.08402e-06
2.14605e-06
3.65977e-06
2.28737e-06
2.25383e-06
2.24176e-06
2.17993e-06
1.87923e-06
2.1677e-06
1.84522e-06
2.16323e-06
2.13782e-06
2.19267e-06
2.19568e-06
2.18024e-06
2.18164e-06
2.17802e-06
2.05299e-06
2.1602e-06
2.25566e-06
2.23416e-06
2.92302e-06
2.12244e-06
1.78303e-06
2.11128e-06
2.23971e-06
2.22636e-06
2.16258e-06
1.8405e-06
2.14806e-06
1.82135e-06
2.13504e-06
2.10569e-06
2.17572e-06
2.17517e-06
2.16002e-06
2.15456e-06
2.15457e-06
2.0287e-06
2.14132e-06
2.23136e-06
2.2078e-06
1.63357e-06
2.09944e-06
1.45291e-06
2.11356e-06
2.2231e-06
2.20489e-06
2.14266e-06
1.80695e-06
2.12438e-06
1.7577e-06
2.10151e-06
2.06928e-06
2.15421e-06
2.146e-06
2.13253e-06
2.11851e-06
2.13444e-06
2.00274e-06
2.11295e-06
2.20411e-06
2.17972e-06
1.43809e-06
2.07044e-06
1.42865e-06
2.09189e-06
2.20021e-06
2.17363e-06
2.11387e-06
1.74513e-06
2.08002e-06
1.69597e-06
2.06398e-06
2.02955e-06
2.12423e-06
2.11007e-06
2.10264e-06
2.08117e-06
2.10282e-06
1.95833e-06
2.07323e-06
2.17493e-06
2.14922e-06
1.43097e-06
2.02752e-06
1.44117e-06
2.06732e-06
2.16778e-06
2.13098e-06
2.06539e-06
1.67609e-06
2.02246e-06
1.61498e-06
2.02224e-06
1.98029e-06
2.09527e-06
2.07119e-06
2.07119e-06
2.03798e-06
2.06071e-06
1.90503e-06
2.02518e-06
2.14299e-06
2.10879e-06
1.44699e-06
1.97596e-06
1.45938e-06
2.03331e-06
2.12347e-06
2.07792e-06
2.00783e-06
1.59455e-06
1.96335e-06
1.54182e-06
1.9745e-06
1.93562e-06
2.05989e-06
2.02363e-06
2.02087e-06
1.97687e-06
2.0107e-06
1.83462e-06
1.96896e-06
2.10111e-06
2.0576e-06
1.46198e-06
1.91485e-06
1.46636e-06
1.98448e-06
2.0685e-06
2.00775e-06
1.94706e-06
1.53352e-06
1.89497e-06
1.51735e-06
1.92799e-06
1.86086e-06
2.00252e-06
1.95872e-06
1.94389e-06
1.90299e-06
1.95262e-06
1.7502e-06
1.90154e-06
2.04847e-06
1.99125e-06
1.46489e-06
1.84609e-06
1.4545e-06
1.91857e-06
1.99633e-06
1.92236e-06
1.87739e-06
1.51274e-06
1.82038e-06
1.51387e-06
1.85117e-06
1.78515e-06
1.92241e-06
1.88107e-06
1.85803e-06
1.81735e-06
1.88139e-06
1.65808e-06
1.82148e-06
1.98123e-06
1.91326e-06
1.44842e-06
1.76946e-06
1.42656e-06
1.83918e-06
1.90895e-06
1.83114e-06
1.79916e-06
1.52034e-06
1.73015e-06
1.53986e-06
1.77399e-06
1.72228e-06
1.83615e-06
1.79568e-06
1.76253e-06
1.72407e-06
1.8008e-06
1.56398e-06
1.73554e-06
1.90082e-06
1.82035e-06
1.41855e-06
1.68032e-06
1.39591e-06
1.75224e-06
1.81437e-06
1.72822e-06
1.70501e-06
1.55603e-06
1.6286e-06
1.64754e-06
1.7096e-06
1.68427e-06
1.73747e-06
1.69785e-06
1.6573e-06
1.62249e-06
1.71279e-06
1.46692e-06
1.63894e-06
1.80383e-06
1.71327e-06
1.38747e-06
1.57695e-06
1.35413e-06
1.65566e-06
1.70703e-06
1.61588e-06
1.60145e-06
1.68234e-06
1.52614e-06
1.78821e-06
1.67373e-06
1.66471e-06
1.62957e-06
1.59479e-06
1.54177e-06
1.51976e-06
1.61468e-06
1.37101e-06
1.53514e-06
1.69201e-06
1.59974e-06
1.34193e-06
1.47617e-06
1.29833e-06
1.54885e-06
1.58902e-06
1.49919e-06
1.49982e-06
1.84097e-06
1.42217e-06
2.10841e-06
1.65512e-06
1.65082e-06
1.51222e-06
1.49519e-06
1.42472e-06
1.41858e-06
1.50738e-06
1.27912e-06
1.42497e-06
1.57242e-06
1.48857e-06
1.28287e-06
1.36768e-06
1.23558e-06
1.43959e-06
1.46921e-06
1.38313e-06
1.39939e-06
2.22623e-06
1.32881e-06
2.55644e-06
1.6454e-06
1.65448e-06
1.40135e-06
1.38893e-06
1.32586e-06
1.32512e-06
1.40048e-06
1.20217e-06
1.33005e-06
1.45688e-06
1.36803e-06
1.21994e-06
1.28249e-06
1.18022e-06
1.33446e-06
1.35726e-06
1.29142e-06
1.30968e-06
2.63401e-06
1.25512e-06
2.68461e-06
1.63924e-06
1.61432e-06
1.30563e-06
1.31188e-06
1.2571e-06
1.263e-06
1.31079e-06
1.1493e-06
1.25957e-06
1.34863e-06
1.28022e-06
1.17052e-06
1.21527e-06
1.14549e-06
1.25185e-06
1.27883e-06
1.26936e-06
1.24672e-06
2.63909e-06
1.23162e-06
2.30297e-06
1.57647e-06
1.46502e-06
1.2484e-06
1.2514e-06
1.23415e-06
1.2261e-06
1.25253e-06
1.121e-06
1.23203e-06
1.26083e-06
1.24652e-06
1.14582e-06
1.19137e-06
1.15177e-06
1.23191e-06
1.27525e-06
1.36092e-06
1.23034e-06
2.06448e-06
1.27608e-06
1.5869e-06
1.42891e-06
1.42911e-06
1.23417e-06
1.242e-06
1.27941e-06
1.27364e-06
1.23878e-06
1.17419e-06
1.27862e-06
1.25308e-06
1.34648e-06
1.16505e-06
1.2314e-06
1.22877e-06
1.33701e-06
1.40766e-06
1.62732e-06
1.30146e-06
1.50226e-06
1.41051e-06
1.38865e-06
1.40727e-06
1.59908e-06
1.3049e-06
1.30667e-06
1.42551e-06
1.42324e-06
1.30118e-06
1.31532e-06
1.42759e-06
1.36165e-06
1.65677e-06
1.25984e-06
1.37835e-06
1.40093e-06
1.62658e-06
1.72214e-06
2.2309e-06
1.46852e-06
1.37027e-06
1.68677e-06
1.58864e-06
1.74284e-06
2.14028e-06
1.48206e-06
1.491e-06
1.68656e-06
1.6602e-06
1.47775e-06
1.64707e-06
1.69353e-06
1.714e-06
2.27302e-06
1.46016e-06
1.61811e-06
1.69423e-06
2.21276e-06
2.40188e-06
3.35851e-06
1.80332e-06
1.68288e-06
2.08902e-06
1.91544e-06
2.49682e-06
3.09702e-06
1.80489e-06
1.77021e-06
2.09794e-06
2.14801e-06
1.79061e-06
1.9986e-06
2.13039e-06
2.38014e-06
3.58294e-06
1.79608e-06
2.1069e-06
2.15063e-06
3.30802e-06
3.5497e-06
5.2887e-06
2.23051e-06
2.11428e-06
2.83461e-06
2.60265e-06
3.29009e-06
5.31184e-06
2.23488e-06
2.18961e-06
2.84848e-06
2.97138e-06
2.26961e-06
2.68026e-06
2.83488e-06
3.86594e-06
4.9574e-06
2.2941e-06
2.93717e-06
2.87086e-06
5.17104e-06
5.78218e-06
7.68267e-06
3.00579e-06
2.71841e-06
3.77129e-06
3.7606e-06
5.56753e-06
7.72162e-06
3.02206e-06
3.18374e-06
3.7638e-06
3.56399e-06
3.05327e-06
3.84897e-06
3.72208e-06
5.86203e-06
7.24581e-06
3.09562e-06
3.49002e-06
3.76949e-06
7.88338e-06
8.37509e-06
1.18653e-05
4.11595e-06
4.1126e-06
4.96487e-06
4.6202e-06
8.78425e-06
1.13221e-05
4.09735e-06
4.02395e-06
4.98453e-06
5.14075e-06
4.03434e-06
4.6618e-06
5.04824e-06
7.27444e-06
1.33819e-05
4.09668e-06
5.10458e-06
5.15153e-06
1.19404e-05
1.251e-05
1.66985e-05
5.3172e-06
5.07653e-06
6.71797e-06
6.79613e-06
1.14312e-05
1.767e-05
5.34382e-06
5.41978e-06
6.69853e-06
6.64255e-06
5.38885e-06
6.80494e-06
6.67589e-06
1.41342e-05
1.59026e-05
5.47781e-06
6.58681e-06
6.76455e-06
1.65017e-05
1.79802e-05
2.27213e-05
7.15897e-06
7.13196e-06
8.65436e-06
8.48038e-06
1.92321e-05
2.19917e-05
7.13765e-06
7.06191e-06
8.66445e-06
8.7001e-06
7.21155e-06
8.53074e-06
8.56003e-06
1.73981e-05
2.24219e-05
7.35348e-06
8.6219e-06
8.67576e-06
2.30638e-05
2.38704e-05
2.98178e-05
9.24635e-06
9.16242e-06
1.10655e-05
1.1067e-05
2.31266e-05
3.05785e-05
9.25565e-06
9.26934e-06
1.10204e-05
1.1216e-05
9.07107e-06
1.10261e-05
1.12938e-05
2.35741e-05
3.05087e-05
9.18509e-06
1.11685e-05
1.14846e-05
2.96938e-05
3.11784e-05
3.7001e-05
1.17381e-05
1.16623e-05
1.40638e-05
1.39004e-05
3.18555e-05
3.613e-05
1.17155e-05
1.18933e-05
1.40497e-05
1.38664e-05
1.18973e-05
1.39164e-05
1.39411e-05
3.15507e-05
3.70581e-05
1.21554e-05
1.37521e-05
1.4119e-05
3.72504e-05
3.84257e-05
4.39173e-05
1.47646e-05
1.47353e-05
1.72183e-05
1.73638e-05
3.80239e-05
4.43657e-05
1.47075e-05
1.47383e-05
1.72522e-05
1.74031e-05
1.48856e-05
1.72408e-05
1.69684e-05
3.87285e-05
4.37164e-05
1.51627e-05
1.73525e-05
1.71239e-05
4.41852e-05
4.52768e-05
5.13461e-05
1.82868e-05
1.83577e-05
2.11371e-05
2.12945e-05
4.5295e-05
5.18036e-05
1.83493e-05
1.8089e-05
2.09818e-05
2.13321e-05
1.76647e-05
2.13187e-05
2.19517e-05
4.52823e-05
5.10806e-05
1.80161e-05
2.1206e-05
2.18211e-05
5.14717e-05
5.26999e-05
5.72377e-05
2.20321e-05
2.19647e-05
2.52639e-05
2.46846e-05
5.2757e-05
5.71173e-05
2.19218e-05
2.25567e-05
2.53792e-05
2.47782e-05
2.24615e-05
2.44243e-05
2.46165e-05
5.22724e-05
5.75387e-05
2.25161e-05
2.47761e-05
2.50862e-05
5.73224e-05
5.85976e-05
6.33987e-05
2.64044e-05
2.65554e-05
2.99101e-05
3.10471e-05
5.91244e-05
6.32107e-05
2.63562e-05
2.59385e-05
2.97123e-05
3.02589e-05
2.64955e-05
3.13303e-05
3.00583e-05
5.8727e-05
6.33127e-05
2.67076e-05
3.03455e-05
3.02407e-05
6.34885e-05
6.46491e-05
6.87987e-05
3.11663e-05
3.10238e-05
3.48221e-05
3.30477e-05
6.42398e-05
6.83485e-05
3.12493e-05
3.1323e-05
3.49949e-05
3.49406e-05
3.10526e-05
3.24921e-05
3.52124e-05
6.46826e-05
6.90161e-05
3.15444e-05
3.45499e-05
3.51925e-05
6.87374e-05
6.97925e-05
7.36219e-05
3.59797e-05
3.58326e-05
3.99012e-05
4.36249e-05
6.94619e-05
7.57709e-05
3.57924e-05
3.61285e-05
3.9586e-05
3.93719e-05
3.55159e-05
4.3439e-05
3.95745e-05
6.99596e-05
7.32756e-05
3.57739e-05
3.97429e-05
3.91354e-05
7.37105e-05
7.48571e-05
7.87716e-05
4.14152e-05
4.40399e-05
4.63976e-05
4.37826e-05
7.65834e-05
7.68982e-05
4.14071e-05
4.10859e-05
4.64893e-05
4.70043e-05
4.20884e-05
4.3478e-05
4.69407e-05
7.47084e-05
7.8804e-05
4.17134e-05
4.63597e-05
4.78058e-05
7.90547e-05
7.9691e-05
8.2294e-05
4.7698e-05
4.59073e-05
5.01522e-05
4.99553e-05
7.74695e-05
8.30397e-05
4.76409e-05
4.75598e-05
5.01463e-05
5.03876e-05
4.75969e-05
4.99381e-05
4.99251e-05
7.95746e-05
8.26448e-05
4.77382e-05
5.07332e-05
4.96291e-05
8.19026e-05
8.32015e-05
8.74155e-05
5.18632e-05
5.16313e-05
5.88166e-05
6.01334e-05
8.42393e-05
8.76709e-05
5.18458e-05
5.32512e-05
5.8573e-05
5.83775e-05
5.17699e-05
5.94323e-05
5.92966e-05
8.38133e-05
8.71139e-05
5.214e-05
5.79827e-05
5.90646e-05
8.77661e-05
8.83436e-05
9.06779e-05
5.97494e-05
6.18983e-05
6.21274e-05
6.13636e-05
8.86354e-05
9.0528e-05
5.96005e-05
5.80914e-05
6.23356e-05
6.26075e-05
6.02697e-05
6.20306e-05
6.15299e-05
8.77477e-05
9.0469e-05
6.05084e-05
6.29221e-05
6.10373e-05
9.01052e-05
9.15077e-05
9.51869e-05
6.47417e-05
6.17449e-05
7.06041e-05
7.23141e-05
9.1138e-05
9.60217e-05
6.47757e-05
6.59663e-05
7.03361e-05
6.956e-05
6.3828e-05
7.15489e-05
7.08967e-05
9.17632e-05
9.52385e-05
6.23083e-05
6.9053e-05
7.17617e-05
9.5991e-05
9.58388e-05
9.82735e-05
7.04931e-05
7.45483e-05
7.42684e-05
7.41332e-05
9.70386e-05
9.80544e-05
7.03952e-05
6.96091e-05
7.4085e-05
7.69727e-05
7.18803e-05
7.4325e-05
7.57031e-05
9.5822e-05
9.93759e-05
7.36486e-05
7.67755e-05
7.34382e-05
9.81638e-05
9.94952e-05
0.000103635
7.77494e-05
7.40286e-05
8.36356e-05
8.37748e-05
9.84101e-05
0.000103672
7.74917e-05
7.97174e-05
8.42959e-05
8.13309e-05
7.72151e-05
8.34607e-05
8.06472e-05
0.000100638
0.000102442
7.54472e-05
8.20673e-05
8.20228e-05
0.000102961
0.000103991
0.000105967
8.32726e-05
8.46619e-05
8.68198e-05
8.63859e-05
0.000104542
0.000106166
8.40565e-05
8.1667e-05
8.566e-05
8.70111e-05
8.25099e-05
8.71258e-05
8.89489e-05
0.000102697
0.000106441
8.28991e-05
8.63741e-05
8.80819e-05
0.000106812
0.000107326
0.000110279
8.9975e-05
8.98375e-05
9.42932e-05
9.49738e-05
0.000107159
0.00011091
8.94839e-05
8.97823e-05
9.46652e-05
9.53993e-05
9.00138e-05
9.4586e-05
9.3827e-05
0.000107889
0.000111268
8.96704e-05
9.59437e-05
9.30352e-05
0.000110201
0.000110444
0.000112909
9.40698e-05
9.5126e-05
9.6712e-05
9.68096e-05
0.000111264
0.000112228
9.42072e-05
9.56681e-05
9.64157e-05
9.75346e-05
9.54901e-05
9.67137e-05
9.75938e-05
0.000111616
0.000112911
9.50636e-05
9.78582e-05
9.97888e-05
0.000113787
0.000114319
0.000120485
9.94902e-05
9.814e-05
0.000108661
0.000106447
0.000112834
0.000119496
9.94282e-05
9.9571e-05
0.000108901
0.000105247
9.86251e-05
0.000104951
0.000106683
0.000113639
0.000118053
9.99052e-05
0.000103898
0.000103254
0.000118049
0.000121082
0.000121116
0.000110226
0.000109798
0.000110203
0.000114374
0.000121192
0.000123281
0.000110628
0.000106312
0.000110536
0.00011116
0.000109194
0.000114534
0.000110331
0.000118918
0.000122362
0.000106328
0.000112184
0.000113027
0.000121988
0.000121044
0.000123553
0.000110512
0.000113886
0.00011359
0.000109885
0.000122992
0.000119357
0.000109864
0.000113348
0.000113641
0.000115949
0.000109767
0.000110975
0.00011548
0.00012323
0.000124869
0.000112997
0.00011568
0.000113415
0.000123975
0.000124558
0.000128229
0.000114646
0.000108915
0.000119063
0.000121418
0.000120236
0.000131677
0.000115351
0.000115503
0.000118943
0.000117361
0.000117735
0.000120783
0.000119141
0.00012485
0.000126533
0.000116058
0.000117348
0.000119339
0.000128416
0.00012913
0.000134061
0.00012144
0.000124812
0.000128939
0.000130605
0.000132975
0.000135066
0.000120795
0.000119857
0.00012819
0.000128623
0.000119974
0.000129969
0.000127127
0.000127914
0.000134796
0.000120212
0.000129041
0.000127191
0.000133209
0.000134726
0.000134851
0.000130434
0.000131441
0.000130456
0.000130973
0.000135293
0.000134256
0.000129828
0.000130528
0.000130125
0.000131305
0.000129377
0.000130969
0.000130889
0.000135403
0.00013501
0.000129363
0.000130567
0.000130471
0.000134996
0.000134683
0.000138154
0.000129707
0.000129933
0.000132796
0.000126849
0.000133924
0.000133627
0.000129745
0.000130642
0.000133774
0.000132576
0.000130275
0.000126917
0.000132411
0.00013467
0.000138608
0.000129827
0.00013444
0.000133537
0.000138121
0.000139413
0.000141684
0.000135553
0.000129837
0.000139611
0.000142802
0.000135776
0.000145201
0.000135379
0.000135898
0.000138383
0.000139744
0.000135695
0.000142983
0.000139872
0.000139982
0.000140992
0.000136558
0.000137829
0.00013927
0.000141858
0.000142048
0.000145179
0.000140331
0.000144635
0.000144001
0.000145593
0.000145783
0.000145604
0.000139551
0.000139434
0.000144594
0.000142336
0.000139737
0.000145663
0.000143467
0.000140791
0.000144757
0.000139001
0.000143371
0.000143372
0.000145003
0.000145835
0.000147154
0.000145346
0.000145121
0.000146897
0.000144651
0.000145352
0.000145759
0.000146157
0.00014445
0.000147797
0.000148953
0.0001457
0.000144237
0.000148599
0.000146092
0.000148621
0.000145776
0.000148945
0.000148943
0.000147931
0.00014726
0.000150206
0.000147065
0.00014657
0.0001511
0.000153038
0.000146854
0.00015184
0.000147669
0.000150129
0.00015019
0.000152443
0.000148381
0.000153466
0.000150442
0.000149053
0.000151142
0.000148749
0.000152754
0.000149407
0.000149844
0.000151274
0.00015401
0.000153354
0.000154477
0.000157634
0.000155111
0.000152164
0.000151638
0.000152325
0.000152835
0.00015752
0.00015377
0.000152818
0.000154716
0.000157827
0.000151231
0.00015074
0.000151846
0.000153423
0.000157838
0.00015425
0.000153991
0.000153577
0.000157766
0.000154775
0.000156492
0.000157636
0.000151397
0.000155432
0.000157935
0.00015427
0.000157056
0.000157878
0.000158175
0.000157282
0.000156854
0.000150866
0.000155405
0.000158502
0.000157622
0.00015761
0.000153477
0.000154197
0.000160459
0.000156762
0.000159962
0.000165111
0.000166498
0.000156889
0.000161065
0.000157283
0.000159985
0.000164798
0.000166224
0.000156401
0.000166758
0.000164415
0.000156688
0.000161002
0.000157096
0.000166377
0.000163912
0.000160059
0.000161149
0.00016191
0.00016717
0.000167568
0.000169172
0.00016761
0.000161216
0.000160466
0.000166774
0.000167386
0.000168633
0.000167773
0.000166785
0.000167565
0.00016864
0.000161241
0.000160847
0.000166416
0.000168071
0.000168885
0.000161937
0.000161788
0.000162491
0.000168975
0.000167358
0.000168831
0.000169455
0.000160344
0.000163026
0.000168478
0.000167539
0.00016956
0.000168983
0.000168751
0.000169539
0.000169891
0.000160743
0.000162553
0.000168765
0.000168646
0.000169681
0.00016307
0.000162952
0.0001653
0.000170009
0.000169848
0.000172571
0.000172616
0.000163196
0.000165129
0.000170666
0.000169987
0.000172879
0.000173446
0.000169922
0.000172455
0.0001731
0.000162813
0.000165645
0.000170455
0.000173686
0.000173994
0.00016572
0.000165779
0.000169299
0.000173838
0.000174617
0.000178812
0.000179284
0.000166192
0.00016962
0.00017377
0.000174507
0.000178485
0.000178042
0.000175064
0.000179546
0.00017828
0.000166421
0.000169036
0.000175085
0.000177819
0.000176348
0.00016806
0.000169713
0.000169923
0.000179766
0.000179612
0.000179828
0.000179467
0.000169634
0.000169889
0.000179765
0.000179417
0.000180444
0.000181981
0.000178248
0.00017949
0.000179463
0.000169384
0.000171643
0.000176958
0.00018228
0.000181575
0.000170892
0.000169795
0.000173589
0.000179794
0.000180714
0.000184794
0.000185666
0.000170628
0.000174215
0.000180316
0.000182165
0.000184172
0.000183464
0.000181395
0.000185804
0.000185761
0.00017184
0.000172343
0.000183213
0.000183572
0.000185113
0.00017363
0.000174242
0.000174792
0.000186276
0.000186286
0.000187386
0.000185856
0.000174215
0.000172903
0.000185756
0.000184468
0.000187372
0.000186437
0.000186119
0.000186022
0.000185661
0.000172377
0.000174289
0.000184929
0.000185936
0.000184325
0.0001733
0.000174541
0.000175608
0.000187138
0.000185372
0.000186989
0.000187545
0.000172537
0.000176649
0.000187204
0.000186449
0.000187154
0.000187614
0.000185574
0.000187601
0.000189715
0.000174457
0.000175775
0.000186131
0.000188538
0.000190439
0.000177786
0.000176524
0.000179369
0.000189272
0.000190221
0.000193318
0.000194667
0.00017788
0.000180398
0.000188981
0.000189127
0.000193063
0.000194362
0.000191273
0.000194765
0.000193599
0.000176418
0.000180423
0.000191125
0.000194208
0.000192766
0.000178759
0.000179485
0.000180691
0.000193607
0.000195073
0.000195227
0.00019491
0.000180319
0.000179616
0.000193982
0.000195354
0.000196055
0.000195947
0.000193664
0.000194841
0.000193057
0.00018067
0.000180191
0.000192945
0.000195522
0.000193189
0.000178759
0.000180915
0.000181189
0.000195993
0.000194658
0.00019669
0.000196631
0.000179413
0.000181876
0.000196288
0.000195632
0.000196011
0.000194358
0.0001931
0.000196331
0.000198083
0.000179898
0.00017987
0.000194145
0.000194258
0.000198156
0.000183159
0.000181037
0.000184209
0.000196703
0.000197542
0.000199714
0.000200362
0.000182432
0.000184593
0.000195812
0.000194742
0.000199932
0.000201676
0.000199298
0.000201084
0.000200217
0.000180676
0.000186102
0.000198896
0.000202322
0.000200399
0.00018392
0.000184986
0.000187077
0.000201323
0.000201429
0.000204379
0.000203366
0.000184887
0.00018581
0.000201759
0.000203262
0.000204767
0.000205163
0.000200739
0.000203051
0.000203448
0.000186572
0.000187143
0.000201332
0.000204815
0.000203729
0.000186169
0.000186964
0.000186501
0.000204713
0.0002035
0.000204724
0.000203869
0.0001857
0.000186428
0.000205074
0.000205279
0.000204825
0.00020381
0.000203849
0.000203742
0.00020434
0.000186859
0.00018522
0.000204027
0.000203335
0.000204126
0.000186601
0.000186352
0.000187902
0.00020467
0.00020482
0.000206246
0.000206916
0.000186933
0.000188326
0.000204721
0.000203577
0.000205561
0.000204349
0.000204947
0.00020688
0.000206643
0.000184982
0.000187175
0.000204195
0.000205162
0.000206444
0.000188113
0.000187999
0.00018839
0.000206777
0.000207009
0.000207342
0.000206646
0.000188133
0.000187317
0.000206049
0.000205249
0.000207591
0.000208239
0.000206702
0.000206401
0.000206287
0.000187456
0.000189327
0.000206666
0.000208358
0.000206748
0.000187469
0.000188867
0.000193732
0.000208207
0.000207021
0.000213157
0.000213098
0.000187841
0.000193895
0.00020898
0.00020986
0.000213444
0.000214028
0.00020688
0.000213162
0.000213303
0.000190054
0.000194496
0.000207853
0.000213928
0.00021344
0.000193997
0.000194031
0.000193525
0.000214141
0.000214197
0.00021603
0.000216101
0.000194232
0.000193559
0.000214393
0.000214949
0.000216076
0.000215869
0.000214438
0.000216251
0.000216398
0.000194684
0.000193006
0.000214481
0.000215753
0.000216183
0.000193619
0.000192382
0.000186897
0.000214391
0.000214295
0.000208829
0.000208586
0.000192347
0.000186699
0.000214226
0.00021351
0.000208612
0.000207723
0.000214546
0.000208643
0.00020865
0.000191678
0.000185944
0.000214158
0.000207658
0.000208342
0.000186658
0.000186164
0.000187371
0.000207865
0.000207617
0.000205501
0.000205379
0.000185961
0.000187462
0.000207641
0.000206756
0.000205339
0.00020484
0.000207651
0.00020541
0.000205309
0.000185201
0.000187393
0.000207351
0.000204845
0.000205155
0.000187336
0.000189419
0.000204286
0.000208971
0.000209168
0.000226366
0.000226617
0.000189593
0.000204557
0.000208987
0.000209286
0.000226419
0.000226871
0.000208959
0.000226667
0.000226509
0.000189671
0.000204752
0.000209112
0.000226985
0.000226651
0.000204446
0.00020607
0.000213747
0.000230563
0.000230802
0.000239232
0.000239489
0.000206336
0.000213942
0.000230623
0.000231057
0.000239296
0.000239743
0.000230725
0.000239556
0.000239433
0.000206529
0.000214112
0.000230857
0.000239856
0.000239559
0.000213911
0.00021198
0.00019731
0.0002411
0.000241326
0.000225946
0.000225877
0.000212107
0.000197236
0.000241168
0.000241565
0.000226011
0.000225981
0.000241296
0.000225937
0.00022598
0.000212252
0.000197309
0.000241409
0.00022603
0.000226017
0.000197307
0.000194137
0.000181391
0.000219502
0.000219407
0.000203823
0.000203713
0.000194049
0.000181284
0.000219559
0.000219489
0.000203852
0.000203731
0.000219498
0.000203742
0.000203764
0.00019411
0.000181299
0.000219535
0.000203768
0.000203798
0.000181334
0.000179666
0.000173033
0.000199845
0.000199749
0.000192333
0.000192296
0.000179573
0.000173009
0.000199864
0.000199747
0.000192332
0.000192252
0.000199788
0.000192319
0.000192305
0.000179576
0.000172974
0.000199818
0.000192294
0.000192327
0.000173015
0.00017195
0.000177474
0.000190704
0.000190668
0.000192705
0.000192803
0.00017193
0.000177552
0.000190703
0.00019062
0.000192681
0.000192733
0.000190679
0.000192838
0.000192776
0.000171893
0.000177521
0.000190702
0.00019279
0.000192782
0.000177526
0.000180156
0.00019849
0.000199049
0.000199125
0.000220278
0.000220317
0.00018023
0.000198537
0.000199035
0.000199075
0.000220279
0.000220305
0.000199108
0.000220357
0.000220313
0.0001802
0.000198534
0.000199118
0.000220356
0.000220328
0.000198514
0.00020153
0.000218945
0.000227818
0.000227847
0.000247432
0.000247431
0.000201574
0.000218954
0.000227823
0.000227843
0.000247448
0.000247445
0.000227846
0.000247476
0.000247442
0.000201572
0.000218965
0.000227862
0.00024749
0.00024746
0.000218944
0.00022076
0.000228553
0.00025189
0.000251879
0.000260824
0.000260805
0.000220765
0.000228533
0.000251909
0.000251897
0.000260848
0.000260827
0.000251894
0.000260851
0.000260822
0.000220777
0.000228551
0.000251913
0.000260867
0.000260843
0.000228536
0.000226622
0.000212355
0.000262509
0.000262484
0.000245952
0.000245909
0.000226599
0.000212331
0.000262537
0.000262507
0.000245985
0.000245928
0.000262503
0.000245964
0.000245933
0.000226615
0.000212343
0.000262527
0.000245977
0.000245962
0.000212331
0.000208721
0.000194523
0.000238931
0.000238891
0.000221394
0.00022136
0.0002087
0.000194507
0.000238962
0.000238907
0.000221417
0.00022137
0.000238914
0.000221409
0.00022138
0.000208709
0.000194515
0.000238942
0.000221419
0.000221404
0.000194504
0.000192496
0.0001863
0.000217146
0.000217115
0.000210009
0.000209984
0.000192482
0.000186292
0.000217167
0.000217124
0.000210024
0.00020999
0.000217134
0.000210026
0.000209999
0.000192488
0.000186296
0.000217156
0.000210033
0.000210017
0.000186288
0.000185761
0.000185823
0.000208972
0.000208949
0.000209217
0.000209197
0.000185753
0.000185816
0.000208986
0.000208954
0.000209231
0.000209201
0.000208963
0.000209234
0.00020921
0.000185757
0.000185818
0.00020898
0.000209239
0.000209225
0.000185812
0.000186062
0.000188112
0.000209647
0.000209628
0.00021238
0.000212361
0.000186055
0.000188105
0.00020966
0.000209632
0.000212396
0.000212367
0.000209641
0.000212398
0.000212374
0.000186058
0.000188109
0.000209656
0.000212406
0.000212391
0.000188101
0.00018809
0.000189748
0.000212597
0.000212576
0.000215518
0.000215501
0.000188081
0.000189741
0.000212614
0.000212583
0.000215536
0.000215511
0.000212589
0.000215534
0.000215512
0.000188087
0.000189748
0.000212606
0.000215545
0.00021553
0.00018974
0.000191646
0.000214005
0.000213989
0.000191638
0.00021402
0.000213999
0.000236496
0.00023651
0.000236503
0.000213999
0.000191646
0.000214015
2.16569e-05
2.57356e-06
1.27984e-05
1.28866e-05
6.60401e-07
2.26087e-06
1.55477e-06
6.10442e-06
6.51328e-07
2.42195e-06
5.93722e-06
1.80545e-06
2.29768e-06
1.86619e-06
2.3179e-06
1.11075e-06
1.35184e-05
9.90177e-07
1.53034e-05
1.09232e-05
1.31134e-05
1.32175e-06
1.35139e-05
1.23086e-06
1.52965e-05
5.13284e-06
5.33288e-06
5.12782e-06
5.33411e-06
5.07911e-06
5.28094e-06
5.16867e-06
6.88599e-07
3.69109e-07
2.64903e-06
2.10142e-06
6.86624e-07
4.7684e-07
2.62152e-06
1.09561e-05
1.32112e-05
6.64837e-07
2.52507e-06
5.13629e-07
2.20213e-06
6.55048e-07
2.497e-06
6.20118e-07
1.52747e-06
1.73305e-06
2.2442e-06
1.73673e-06
1.97037e-06
1.3711e-06
1.85919e-05
1.25925e-06
2.09888e-05
1.71242e-05
1.92582e-05
1.53347e-06
1.85868e-05
1.40784e-06
2.09853e-05
5.09598e-06
5.29675e-06
5.26466e-06
5.40481e-06
5.15213e-06
5.34975e-06
5.44982e-06