/*--------------------------------*- C++ -*----------------------------------*\
| =========                 |                                                 |
| \\      /  F ield         | OpenFOAM: The Open Source CFD Toolbox           |
|  \\    /   O peration     | Version:  v2012                                 |
|   \\  /    A nd           | Website:  www.openfoam.com                      |
|    \\/     M anipulation  |                                                 |
\*---------------------------------------------------------------------------*/
FoamFile
{
    version     2.0;
    format      ascii;
    class       volScalarField;
    location    "0.055";
    object      p;
}
// * * * * * * * * * * * * * * * * * * * * * * * * * * * * * * * * * * * * * //

dimensions      [0 2 -2 0 0 0 0];


internalField   nonuniform List<scalar> 
247104
(
2.11935e-06
2.12081e-06
2.12049e-06
2.12023e-06
2.11984e-06
2.12027e-06
2.12052e-06
2.12072e-06
2.12079e-06
2.12092e-06
2.12096e-06
2.12068e-06
2.12047e-06
2.12072e-06
2.12097e-06
2.12089e-06
2.12049e-06
2.12096e-06
2.12072e-06
2.1203e-06
2.12011e-06
2.12034e-06
2.12077e-06
2.12095e-06
2.12039e-06
2.12022e-06
2.12068e-06
2.1203e-06
2.11981e-06
2.11963e-06
2.11986e-06
2.12036e-06
2.12069e-06
2.12007e-06
2.11933e-06
2.11983e-06
2.12046e-06
2.12011e-06
2.11963e-06
2.11945e-06
2.11968e-06
2.12018e-06
2.12046e-06
2.11966e-06
2.12027e-06
2.12072e-06
2.12034e-06
2.11986e-06
2.11968e-06
2.11991e-06
2.12041e-06
2.12073e-06
2.12012e-06
2.12053e-06
2.12097e-06
2.12077e-06
2.12036e-06
2.12018e-06
2.12041e-06
2.12082e-06
2.12096e-06
2.12043e-06
2.1207e-06
2.12089e-06
2.12095e-06
2.12069e-06
2.12046e-06
2.12073e-06
2.12096e-06
2.12085e-06
2.12039e-06
2.12007e-06
2.11966e-06
2.12012e-06
2.12043e-06
2.08642e-06
2.08391e-06
2.08631e-06
2.0845e-06
2.08312e-06
2.08332e-06
2.08323e-06
2.08748e-06
2.08691e-06
2.08633e-06
2.08321e-06
2.07865e-06
2.07825e-06
2.07825e-06
2.07865e-06
2.08341e-06
2.08405e-06
2.08449e-06
2.07865e-06
2.07849e-06
2.07843e-06
2.07843e-06
2.07849e-06
2.07865e-06
2.08417e-06
2.08788e-06
2.08642e-06
2.08312e-06
2.07824e-06
2.07843e-06
2.07858e-06
2.07858e-06
2.07843e-06
2.07825e-06
2.08317e-06
2.08701e-06
2.0839e-06
2.08331e-06
2.07824e-06
2.07843e-06
2.07858e-06
2.07858e-06
2.07843e-06
2.07825e-06
2.08335e-06
2.08289e-06
2.08323e-06
2.07865e-06
2.07849e-06
2.07843e-06
2.07843e-06
2.07849e-06
2.07866e-06
2.08341e-06
2.08543e-06
2.08749e-06
2.08341e-06
2.07865e-06
2.07825e-06
2.07825e-06
2.07865e-06
2.08307e-06
2.08432e-06
2.08815e-06
2.08692e-06
2.08407e-06
2.08417e-06
2.08317e-06
2.08335e-06
2.08341e-06
2.08431e-06
2.08951e-06
2.08788e-06
2.08701e-06
2.0829e-06
2.08545e-06
2.08813e-06
2.06614e-06
2.06608e-06
2.06555e-06
2.06333e-06
2.06329e-06
2.06324e-06
2.06334e-06
2.06626e-06
2.06615e-06
2.06556e-06
2.06305e-06
2.05987e-06
2.05965e-06
2.05965e-06
2.05987e-06
2.06467e-06
2.06392e-06
2.06332e-06
2.05986e-06
2.05931e-06
2.05925e-06
2.05925e-06
2.05931e-06
2.05988e-06
2.06526e-06
2.06694e-06
2.06615e-06
2.06328e-06
2.05964e-06
2.05925e-06
2.05918e-06
2.05918e-06
2.05926e-06
2.05966e-06
2.06479e-06
2.06598e-06
2.06607e-06
2.06323e-06
2.05964e-06
2.05925e-06
2.05918e-06
2.05918e-06
2.05926e-06
2.05966e-06
2.06448e-06
2.06343e-06
2.06334e-06
2.05986e-06
2.05931e-06
2.05925e-06
2.05925e-06
2.05931e-06
2.05988e-06
2.0651e-06
2.06651e-06
2.06626e-06
2.06467e-06
2.05988e-06
2.05965e-06
2.05965e-06
2.05987e-06
2.0652e-06
2.06468e-06
2.0666e-06
2.06614e-06
2.06391e-06
2.06525e-06
2.06478e-06
2.06448e-06
2.06509e-06
2.06468e-06
2.06684e-06
2.06695e-06
2.06598e-06
2.06343e-06
2.06653e-06
2.06662e-06
2.04378e-06
2.04371e-06
2.04369e-06
2.04134e-06
2.04128e-06
2.04114e-06
2.04144e-06
2.04451e-06
2.04433e-06
2.04369e-06
2.0408e-06
2.03755e-06
2.03746e-06
2.03746e-06
2.03755e-06
2.04307e-06
2.04226e-06
2.04135e-06
2.03755e-06
2.0374e-06
2.03739e-06
2.03739e-06
2.0374e-06
2.03755e-06
2.04387e-06
2.04496e-06
2.04376e-06
2.04128e-06
2.03746e-06
2.03739e-06
2.03738e-06
2.03738e-06
2.03739e-06
2.03746e-06
2.04364e-06
2.04377e-06
2.04372e-06
2.04114e-06
2.03746e-06
2.03739e-06
2.03738e-06
2.03738e-06
2.03739e-06
2.03746e-06
2.04336e-06
2.04136e-06
2.04144e-06
2.03755e-06
2.0374e-06
2.03739e-06
2.03739e-06
2.0374e-06
2.03755e-06
2.04387e-06
2.04433e-06
2.04451e-06
2.04307e-06
2.03755e-06
2.03746e-06
2.03746e-06
2.03755e-06
2.04432e-06
2.04318e-06
2.04477e-06
2.04433e-06
2.04227e-06
2.04387e-06
2.04364e-06
2.04335e-06
2.04386e-06
2.04317e-06
2.04486e-06
2.04497e-06
2.04377e-06
2.04137e-06
2.04433e-06
2.04477e-06
2.02224e-06
2.02222e-06
2.02207e-06
2.0196e-06
2.01954e-06
2.01933e-06
2.01972e-06
2.02289e-06
2.02263e-06
2.02202e-06
2.01841e-06
2.01523e-06
2.01522e-06
2.01522e-06
2.01523e-06
2.02103e-06
2.02063e-06
2.01959e-06
2.01523e-06
2.01521e-06
2.01521e-06
2.01521e-06
2.01521e-06
2.01523e-06
2.02236e-06
2.02343e-06
2.02229e-06
2.01955e-06
2.01522e-06
2.01521e-06
2.01522e-06
2.01522e-06
2.01521e-06
2.01522e-06
2.02245e-06
2.02228e-06
2.02223e-06
2.01935e-06
2.01522e-06
2.01521e-06
2.01522e-06
2.01522e-06
2.01521e-06
2.01522e-06
2.0222e-06
2.0199e-06
2.01974e-06
2.01524e-06
2.01521e-06
2.01521e-06
2.01521e-06
2.01521e-06
2.01523e-06
2.02254e-06
2.02285e-06
2.0229e-06
2.02104e-06
2.01524e-06
2.01522e-06
2.01522e-06
2.01523e-06
2.02281e-06
2.02157e-06
2.02321e-06
2.02263e-06
2.02064e-06
2.02237e-06
2.02246e-06
2.02221e-06
2.02254e-06
2.02156e-06
2.02321e-06
2.02343e-06
2.02228e-06
2.01991e-06
2.02285e-06
2.02321e-06
2.00052e-06
2.00052e-06
2.00026e-06
1.99774e-06
1.99769e-06
1.99744e-06
1.99789e-06
2.00108e-06
2.00082e-06
2.00021e-06
1.99634e-06
1.99316e-06
1.99316e-06
1.99316e-06
1.99316e-06
1.99903e-06
1.99883e-06
1.99774e-06
1.99316e-06
1.99316e-06
1.99316e-06
1.99316e-06
1.99315e-06
1.99316e-06
2.00057e-06
2.00167e-06
2.00056e-06
1.9977e-06
1.99316e-06
1.99316e-06
1.99316e-06
1.99316e-06
1.99315e-06
1.99315e-06
2.00079e-06
2.00054e-06
2.00051e-06
1.99745e-06
1.99316e-06
1.99316e-06
1.99316e-06
1.99316e-06
1.99315e-06
1.99315e-06
2.00051e-06
1.99818e-06
1.9979e-06
1.99316e-06
1.99315e-06
1.99316e-06
1.99315e-06
1.99315e-06
1.99316e-06
2.00081e-06
2.0011e-06
2.0011e-06
1.99904e-06
1.99316e-06
1.99316e-06
1.99315e-06
1.99315e-06
2.00102e-06
1.99977e-06
2.00143e-06
2.00083e-06
1.99885e-06
2.00058e-06
2.00079e-06
2.00052e-06
2.00081e-06
1.99977e-06
2.0014e-06
2.00168e-06
2.00054e-06
1.9982e-06
2.00111e-06
2.00144e-06
1.97861e-06
1.97862e-06
1.97828e-06
1.97579e-06
1.97576e-06
1.97549e-06
1.97596e-06
1.97917e-06
1.97891e-06
1.97828e-06
1.97432e-06
1.97115e-06
1.97115e-06
1.97115e-06
1.97115e-06
1.97705e-06
1.97692e-06
1.97579e-06
1.97115e-06
1.97115e-06
1.97115e-06
1.97115e-06
1.97115e-06
1.97115e-06
1.97865e-06
1.97976e-06
1.97864e-06
1.97575e-06
1.97115e-06
1.97115e-06
1.97115e-06
1.97115e-06
1.97115e-06
1.97115e-06
1.9789e-06
1.97863e-06
1.97861e-06
1.97549e-06
1.97115e-06
1.97115e-06
1.97115e-06
1.97115e-06
1.97115e-06
1.97115e-06
1.97862e-06
1.9763e-06
1.97595e-06
1.97115e-06
1.97115e-06
1.97115e-06
1.97115e-06
1.97115e-06
1.97115e-06
1.97889e-06
1.9792e-06
1.97918e-06
1.97706e-06
1.97115e-06
1.97115e-06
1.97115e-06
1.97115e-06
1.9791e-06
1.97785e-06
1.97951e-06
1.97891e-06
1.97692e-06
1.97866e-06
1.97891e-06
1.97863e-06
1.97891e-06
1.97784e-06
1.97949e-06
1.97977e-06
1.97864e-06
1.97631e-06
1.97919e-06
1.97952e-06
1.95665e-06
1.95666e-06
1.95632e-06
1.95383e-06
1.95379e-06
1.95352e-06
1.95399e-06
1.9572e-06
1.95694e-06
1.95637e-06
1.95232e-06
1.94916e-06
1.94916e-06
1.94916e-06
1.94916e-06
1.95507e-06
1.95494e-06
1.95383e-06
1.94916e-06
1.94916e-06
1.94916e-06
1.94916e-06
1.94916e-06
1.94916e-06
1.95669e-06
1.9578e-06
1.95669e-06
1.95379e-06
1.94916e-06
1.94916e-06
1.94916e-06
1.94916e-06
1.94916e-06
1.94916e-06
1.95695e-06
1.95668e-06
1.95665e-06
1.95352e-06
1.94916e-06
1.94916e-06
1.94916e-06
1.94916e-06
1.94916e-06
1.94916e-06
1.95667e-06
1.95433e-06
1.95398e-06
1.94916e-06
1.94916e-06
1.94916e-06
1.94916e-06
1.94916e-06
1.94917e-06
1.95693e-06
1.95724e-06
1.95722e-06
1.95507e-06
1.94916e-06
1.94916e-06
1.94916e-06
1.94916e-06
1.95714e-06
1.95589e-06
1.95754e-06
1.95695e-06
1.95495e-06
1.95669e-06
1.95695e-06
1.95667e-06
1.95695e-06
1.95587e-06
1.95752e-06
1.95781e-06
1.95668e-06
1.95435e-06
1.95724e-06
1.95756e-06
1.93468e-06
1.93469e-06
1.93434e-06
1.93185e-06
1.93181e-06
1.93154e-06
1.93201e-06
1.93524e-06
1.93497e-06
1.93439e-06
1.93035e-06
1.92718e-06
1.92718e-06
1.92718e-06
1.92718e-06
1.93308e-06
1.93296e-06
1.93184e-06
1.92718e-06
1.92718e-06
1.92718e-06
1.92718e-06
1.92718e-06
1.92718e-06
1.93471e-06
1.93582e-06
1.93473e-06
1.93181e-06
1.92718e-06
1.92718e-06
1.92718e-06
1.92718e-06
1.92718e-06
1.92718e-06
1.93497e-06
1.9347e-06
1.93468e-06
1.93154e-06
1.92718e-06
1.92718e-06
1.92718e-06
1.92718e-06
1.92718e-06
1.92718e-06
1.9347e-06
1.93237e-06
1.93201e-06
1.92718e-06
1.92718e-06
1.92718e-06
1.92718e-06
1.92718e-06
1.92718e-06
1.93496e-06
1.93527e-06
1.93525e-06
1.93309e-06
1.92718e-06
1.92718e-06
1.92718e-06
1.92718e-06
1.93517e-06
1.93392e-06
1.93557e-06
1.93497e-06
1.93297e-06
1.93471e-06
1.93498e-06
1.93471e-06
1.93498e-06
1.93391e-06
1.93555e-06
1.93584e-06
1.93471e-06
1.93238e-06
1.93527e-06
1.93559e-06
1.9127e-06
1.91272e-06
1.91236e-06
1.90987e-06
1.90983e-06
1.90956e-06
1.91003e-06
1.91326e-06
1.91299e-06
1.91241e-06
1.90836e-06
1.9052e-06
1.9052e-06
1.9052e-06
1.9052e-06
1.9111e-06
1.91098e-06
1.90987e-06
1.9052e-06
1.9052e-06
1.9052e-06
1.9052e-06
1.9052e-06
1.9052e-06
1.91273e-06
1.91384e-06
1.91275e-06
1.90983e-06
1.9052e-06
1.9052e-06
1.9052e-06
1.9052e-06
1.9052e-06
1.9052e-06
1.91299e-06
1.91272e-06
1.9127e-06
1.90956e-06
1.9052e-06
1.9052e-06
1.9052e-06
1.9052e-06
1.9052e-06
1.9052e-06
1.91273e-06
1.91039e-06
1.91003e-06
1.9052e-06
1.9052e-06
1.9052e-06
1.9052e-06
1.9052e-06
1.9052e-06
1.91299e-06
1.91329e-06
1.91326e-06
1.9111e-06
1.9052e-06
1.9052e-06
1.9052e-06
1.9052e-06
1.91319e-06
1.91194e-06
1.91359e-06
1.91299e-06
1.91099e-06
1.91274e-06
1.913e-06
1.91273e-06
1.913e-06
1.91193e-06
1.91357e-06
1.91385e-06
1.91272e-06
1.9104e-06
1.91329e-06
1.91361e-06
1.89072e-06
1.89074e-06
1.89039e-06
1.88789e-06
1.88785e-06
1.88758e-06
1.88805e-06
1.89128e-06
1.891e-06
1.89043e-06
1.88638e-06
1.88321e-06
1.88321e-06
1.88322e-06
1.88321e-06
1.88912e-06
1.889e-06
1.88788e-06
1.88321e-06
1.88321e-06
1.88321e-06
1.88321e-06
1.88321e-06
1.88321e-06
1.89075e-06
1.89186e-06
1.89077e-06
1.88785e-06
1.88321e-06
1.88321e-06
1.88321e-06
1.88322e-06
1.88321e-06
1.88321e-06
1.89101e-06
1.89074e-06
1.89072e-06
1.88758e-06
1.88322e-06
1.88322e-06
1.88322e-06
1.88322e-06
1.88322e-06
1.88322e-06
1.89074e-06
1.88841e-06
1.88805e-06
1.88322e-06
1.88322e-06
1.88322e-06
1.88322e-06
1.88322e-06
1.88322e-06
1.891e-06
1.89131e-06
1.89128e-06
1.88912e-06
1.88322e-06
1.88322e-06
1.88322e-06
1.88322e-06
1.89121e-06
1.88996e-06
1.89161e-06
1.89101e-06
1.88901e-06
1.89076e-06
1.89102e-06
1.89075e-06
1.89102e-06
1.88995e-06
1.89159e-06
1.89187e-06
1.89074e-06
1.88842e-06
1.89131e-06
1.89163e-06
1.86874e-06
1.86875e-06
1.86845e-06
1.86591e-06
1.86586e-06
1.8656e-06
1.86607e-06
1.86931e-06
1.86902e-06
1.86845e-06
1.8644e-06
1.86123e-06
1.86123e-06
1.86123e-06
1.86123e-06
1.86713e-06
1.86702e-06
1.8659e-06
1.86123e-06
1.86123e-06
1.86123e-06
1.86123e-06
1.86123e-06
1.86123e-06
1.86877e-06
1.86988e-06
1.86879e-06
1.86586e-06
1.86123e-06
1.86123e-06
1.86123e-06
1.86123e-06
1.86123e-06
1.86123e-06
1.86903e-06
1.86876e-06
1.86874e-06
1.8656e-06
1.86123e-06
1.86123e-06
1.86123e-06
1.86123e-06
1.86123e-06
1.86123e-06
1.86876e-06
1.86643e-06
1.86607e-06
1.86123e-06
1.86123e-06
1.86123e-06
1.86123e-06
1.86123e-06
1.86123e-06
1.86902e-06
1.86933e-06
1.8693e-06
1.86714e-06
1.86123e-06
1.86123e-06
1.86123e-06
1.86123e-06
1.86923e-06
1.86798e-06
1.86963e-06
1.86903e-06
1.86703e-06
1.86878e-06
1.86904e-06
1.86877e-06
1.86904e-06
1.86797e-06
1.86961e-06
1.86989e-06
1.86876e-06
1.86644e-06
1.86933e-06
1.86964e-06
1.84676e-06
1.84677e-06
1.84642e-06
1.84393e-06
1.84388e-06
1.84362e-06
1.84409e-06
1.84732e-06
1.84704e-06
1.84647e-06
1.84242e-06
1.83925e-06
1.83925e-06
1.83925e-06
1.83925e-06
1.84515e-06
1.84505e-06
1.84392e-06
1.83925e-06
1.83925e-06
1.83925e-06
1.83925e-06
1.83925e-06
1.83925e-06
1.84679e-06
1.8479e-06
1.84681e-06
1.84388e-06
1.83925e-06
1.83925e-06
1.83925e-06
1.83925e-06
1.83925e-06
1.83925e-06
1.84705e-06
1.84678e-06
1.84676e-06
1.84362e-06
1.83925e-06
1.83925e-06
1.83925e-06
1.83925e-06
1.83925e-06
1.83925e-06
1.84678e-06
1.84445e-06
1.84409e-06
1.83925e-06
1.83925e-06
1.83925e-06
1.83925e-06
1.83925e-06
1.83925e-06
1.84704e-06
1.84735e-06
1.84732e-06
1.84516e-06
1.83925e-06
1.83925e-06
1.83925e-06
1.83925e-06
1.84725e-06
1.846e-06
1.84765e-06
1.84705e-06
1.84505e-06
1.84679e-06
1.84706e-06
1.84678e-06
1.84706e-06
1.84599e-06
1.84763e-06
1.84791e-06
1.84678e-06
1.84446e-06
1.84734e-06
1.84766e-06
1.82478e-06
1.82479e-06
1.82448e-06
1.82195e-06
1.8219e-06
1.82164e-06
1.82211e-06
1.82534e-06
1.82506e-06
1.82449e-06
1.82044e-06
1.81727e-06
1.81727e-06
1.81727e-06
1.81727e-06
1.82317e-06
1.82307e-06
1.82194e-06
1.81727e-06
1.81727e-06
1.81727e-06
1.81727e-06
1.81727e-06
1.81727e-06
1.82481e-06
1.82592e-06
1.82481e-06
1.8219e-06
1.81727e-06
1.81727e-06
1.81727e-06
1.81727e-06
1.81727e-06
1.81727e-06
1.82507e-06
1.8248e-06
1.82478e-06
1.82164e-06
1.81727e-06
1.81727e-06
1.81727e-06
1.81727e-06
1.81727e-06
1.81727e-06
1.8248e-06
1.82247e-06
1.82211e-06
1.81727e-06
1.81727e-06
1.81727e-06
1.81727e-06
1.81727e-06
1.81727e-06
1.82506e-06
1.82537e-06
1.82534e-06
1.82318e-06
1.81727e-06
1.81727e-06
1.81727e-06
1.81727e-06
1.82527e-06
1.82402e-06
1.82567e-06
1.82507e-06
1.82307e-06
1.82481e-06
1.82508e-06
1.8248e-06
1.82508e-06
1.82401e-06
1.82565e-06
1.82593e-06
1.8248e-06
1.82248e-06
1.82536e-06
1.82568e-06
1.8028e-06
1.80281e-06
1.80249e-06
1.79997e-06
1.79992e-06
1.79966e-06
1.80013e-06
1.80336e-06
1.80308e-06
1.8025e-06
1.79846e-06
1.79529e-06
1.79529e-06
1.79529e-06
1.79529e-06
1.80119e-06
1.80109e-06
1.79996e-06
1.79529e-06
1.79529e-06
1.79529e-06
1.79529e-06
1.79529e-06
1.79529e-06
1.80283e-06
1.80394e-06
1.80283e-06
1.79992e-06
1.79529e-06
1.79529e-06
1.79529e-06
1.79529e-06
1.79529e-06
1.79529e-06
1.80309e-06
1.80282e-06
1.8028e-06
1.79966e-06
1.79529e-06
1.79529e-06
1.79529e-06
1.79529e-06
1.79529e-06
1.79529e-06
1.80282e-06
1.80049e-06
1.80013e-06
1.79529e-06
1.79529e-06
1.79529e-06
1.79529e-06
1.79529e-06
1.79529e-06
1.80308e-06
1.80339e-06
1.80336e-06
1.8012e-06
1.79529e-06
1.79529e-06
1.79529e-06
1.79529e-06
1.80329e-06
1.80204e-06
1.80369e-06
1.80309e-06
1.80109e-06
1.80283e-06
1.8031e-06
1.80282e-06
1.80309e-06
1.80203e-06
1.80366e-06
1.80394e-06
1.80282e-06
1.8005e-06
1.80338e-06
1.8037e-06
1.78081e-06
1.78083e-06
1.78051e-06
1.77798e-06
1.77794e-06
1.77767e-06
1.77814e-06
1.78137e-06
1.78109e-06
1.78053e-06
1.77648e-06
1.77331e-06
1.77331e-06
1.77331e-06
1.77331e-06
1.77921e-06
1.77911e-06
1.77798e-06
1.77331e-06
1.77331e-06
1.77331e-06
1.77331e-06
1.77331e-06
1.77331e-06
1.78085e-06
1.78196e-06
1.78085e-06
1.77794e-06
1.77331e-06
1.77331e-06
1.77331e-06
1.77331e-06
1.77331e-06
1.77331e-06
1.78111e-06
1.78084e-06
1.78082e-06
1.77768e-06
1.77331e-06
1.77331e-06
1.77331e-06
1.77331e-06
1.77331e-06
1.77331e-06
1.78084e-06
1.77851e-06
1.77814e-06
1.77331e-06
1.77331e-06
1.77331e-06
1.77331e-06
1.77331e-06
1.77331e-06
1.7811e-06
1.78141e-06
1.78138e-06
1.77922e-06
1.77331e-06
1.77331e-06
1.77331e-06
1.77331e-06
1.7813e-06
1.78005e-06
1.78171e-06
1.78111e-06
1.77911e-06
1.78085e-06
1.78112e-06
1.78084e-06
1.78111e-06
1.78005e-06
1.78168e-06
1.78196e-06
1.78084e-06
1.77851e-06
1.7814e-06
1.78172e-06
1.75883e-06
1.75885e-06
1.75853e-06
1.756e-06
1.75596e-06
1.75569e-06
1.75616e-06
1.7594e-06
1.75911e-06
1.75854e-06
1.7545e-06
1.75133e-06
1.75133e-06
1.75133e-06
1.75133e-06
1.75723e-06
1.75712e-06
1.756e-06
1.75133e-06
1.75133e-06
1.75133e-06
1.75133e-06
1.75133e-06
1.75133e-06
1.75887e-06
1.75998e-06
1.75887e-06
1.75596e-06
1.75133e-06
1.75133e-06
1.75133e-06
1.75133e-06
1.75133e-06
1.75133e-06
1.75913e-06
1.75886e-06
1.75884e-06
1.7557e-06
1.75133e-06
1.75133e-06
1.75133e-06
1.75133e-06
1.75133e-06
1.75133e-06
1.75886e-06
1.75653e-06
1.75616e-06
1.75133e-06
1.75133e-06
1.75133e-06
1.75133e-06
1.75133e-06
1.75133e-06
1.75912e-06
1.75943e-06
1.75939e-06
1.75724e-06
1.75133e-06
1.75133e-06
1.75133e-06
1.75133e-06
1.75932e-06
1.75807e-06
1.75973e-06
1.75913e-06
1.75713e-06
1.75887e-06
1.75913e-06
1.75886e-06
1.75913e-06
1.75807e-06
1.7597e-06
1.75998e-06
1.75886e-06
1.75654e-06
1.75942e-06
1.75974e-06
1.73685e-06
1.73686e-06
1.73655e-06
1.73402e-06
1.73398e-06
1.73371e-06
1.73418e-06
1.73741e-06
1.73713e-06
1.73656e-06
1.73252e-06
1.72935e-06
1.72935e-06
1.72935e-06
1.72935e-06
1.73525e-06
1.73514e-06
1.73402e-06
1.72935e-06
1.72935e-06
1.72935e-06
1.72935e-06
1.72935e-06
1.72935e-06
1.73689e-06
1.73799e-06
1.73689e-06
1.73398e-06
1.72935e-06
1.72935e-06
1.72935e-06
1.72935e-06
1.72935e-06
1.72935e-06
1.73715e-06
1.73688e-06
1.73685e-06
1.73371e-06
1.72935e-06
1.72935e-06
1.72935e-06
1.72935e-06
1.72935e-06
1.72935e-06
1.73688e-06
1.73454e-06
1.73418e-06
1.72935e-06
1.72935e-06
1.72935e-06
1.72935e-06
1.72935e-06
1.72935e-06
1.73714e-06
1.73744e-06
1.73741e-06
1.73525e-06
1.72935e-06
1.72935e-06
1.72935e-06
1.72935e-06
1.73734e-06
1.73609e-06
1.73775e-06
1.73714e-06
1.73514e-06
1.73689e-06
1.73715e-06
1.73688e-06
1.73715e-06
1.73609e-06
1.73772e-06
1.738e-06
1.73688e-06
1.73455e-06
1.73744e-06
1.73776e-06
1.71487e-06
1.71488e-06
1.71457e-06
1.71204e-06
1.71199e-06
1.71173e-06
1.7122e-06
1.71543e-06
1.71515e-06
1.71458e-06
1.71053e-06
1.70736e-06
1.70736e-06
1.70736e-06
1.70736e-06
1.71327e-06
1.71316e-06
1.71203e-06
1.70736e-06
1.70736e-06
1.70736e-06
1.70736e-06
1.70736e-06
1.70736e-06
1.7149e-06
1.71601e-06
1.7149e-06
1.712e-06
1.70736e-06
1.70736e-06
1.70736e-06
1.70736e-06
1.70736e-06
1.70736e-06
1.71516e-06
1.71489e-06
1.71487e-06
1.71173e-06
1.70736e-06
1.70736e-06
1.70736e-06
1.70736e-06
1.70736e-06
1.70736e-06
1.71489e-06
1.71256e-06
1.7122e-06
1.70736e-06
1.70736e-06
1.70736e-06
1.70736e-06
1.70736e-06
1.70736e-06
1.71516e-06
1.71546e-06
1.71543e-06
1.71327e-06
1.70736e-06
1.70736e-06
1.70736e-06
1.70736e-06
1.71536e-06
1.71411e-06
1.71576e-06
1.71516e-06
1.71316e-06
1.71491e-06
1.71517e-06
1.7149e-06
1.71517e-06
1.7141e-06
1.71574e-06
1.71602e-06
1.71489e-06
1.71257e-06
1.71546e-06
1.71578e-06
1.69289e-06
1.6929e-06
1.69259e-06
1.69005e-06
1.69001e-06
1.68975e-06
1.69022e-06
1.69345e-06
1.69317e-06
1.6926e-06
1.68855e-06
1.68538e-06
1.68538e-06
1.68538e-06
1.68538e-06
1.69129e-06
1.69118e-06
1.69005e-06
1.68538e-06
1.68538e-06
1.68538e-06
1.68538e-06
1.68538e-06
1.68538e-06
1.69292e-06
1.69403e-06
1.69292e-06
1.69001e-06
1.68538e-06
1.68538e-06
1.68538e-06
1.68538e-06
1.68538e-06
1.68538e-06
1.69318e-06
1.69291e-06
1.69289e-06
1.68975e-06
1.68538e-06
1.68538e-06
1.68538e-06
1.68538e-06
1.68538e-06
1.68538e-06
1.69291e-06
1.69058e-06
1.69022e-06
1.68538e-06
1.68538e-06
1.68538e-06
1.68538e-06
1.68538e-06
1.68538e-06
1.69317e-06
1.69348e-06
1.69345e-06
1.69129e-06
1.68538e-06
1.68538e-06
1.68538e-06
1.68538e-06
1.69338e-06
1.69213e-06
1.69378e-06
1.69318e-06
1.69118e-06
1.69292e-06
1.69319e-06
1.69291e-06
1.69319e-06
1.69212e-06
1.69376e-06
1.69404e-06
1.69291e-06
1.69058e-06
1.69348e-06
1.6938e-06
1.67091e-06
1.67092e-06
1.6706e-06
1.66807e-06
1.66803e-06
1.66777e-06
1.66824e-06
1.67147e-06
1.67119e-06
1.67062e-06
1.66657e-06
1.6634e-06
1.6634e-06
1.6634e-06
1.6634e-06
1.66931e-06
1.6692e-06
1.66807e-06
1.6634e-06
1.6634e-06
1.6634e-06
1.6634e-06
1.6634e-06
1.6634e-06
1.67094e-06
1.67205e-06
1.67094e-06
1.66803e-06
1.6634e-06
1.6634e-06
1.6634e-06
1.6634e-06
1.6634e-06
1.6634e-06
1.6712e-06
1.67093e-06
1.67091e-06
1.66777e-06
1.6634e-06
1.6634e-06
1.6634e-06
1.6634e-06
1.6634e-06
1.6634e-06
1.67093e-06
1.6686e-06
1.66824e-06
1.6634e-06
1.6634e-06
1.6634e-06
1.6634e-06
1.6634e-06
1.6634e-06
1.67119e-06
1.6715e-06
1.67147e-06
1.66931e-06
1.6634e-06
1.6634e-06
1.6634e-06
1.6634e-06
1.6714e-06
1.67015e-06
1.6718e-06
1.6712e-06
1.66919e-06
1.67094e-06
1.67121e-06
1.67093e-06
1.67121e-06
1.67014e-06
1.67178e-06
1.67205e-06
1.67093e-06
1.6686e-06
1.67149e-06
1.67181e-06
1.64892e-06
1.64894e-06
1.64862e-06
1.64609e-06
1.64605e-06
1.64578e-06
1.64625e-06
1.64949e-06
1.6492e-06
1.64864e-06
1.64459e-06
1.64142e-06
1.64142e-06
1.64142e-06
1.64142e-06
1.64733e-06
1.64722e-06
1.64609e-06
1.64142e-06
1.64142e-06
1.64142e-06
1.64142e-06
1.64142e-06
1.64142e-06
1.64896e-06
1.65007e-06
1.64896e-06
1.64605e-06
1.64142e-06
1.64142e-06
1.64142e-06
1.64142e-06
1.64142e-06
1.64142e-06
1.64922e-06
1.64895e-06
1.64893e-06
1.64579e-06
1.64142e-06
1.64142e-06
1.64142e-06
1.64142e-06
1.64142e-06
1.64142e-06
1.64895e-06
1.64662e-06
1.64625e-06
1.64142e-06
1.64142e-06
1.64142e-06
1.64142e-06
1.64142e-06
1.64142e-06
1.64921e-06
1.64952e-06
1.64949e-06
1.64733e-06
1.64142e-06
1.64142e-06
1.64142e-06
1.64142e-06
1.64941e-06
1.64816e-06
1.64982e-06
1.64922e-06
1.64721e-06
1.64896e-06
1.64922e-06
1.64895e-06
1.64922e-06
1.64816e-06
1.64979e-06
1.65007e-06
1.64895e-06
1.64662e-06
1.64951e-06
1.64983e-06
1.62694e-06
1.62696e-06
1.62664e-06
1.62411e-06
1.62407e-06
1.6238e-06
1.62427e-06
1.6275e-06
1.62722e-06
1.62665e-06
1.62261e-06
1.61944e-06
1.61944e-06
1.61944e-06
1.61944e-06
1.62534e-06
1.62523e-06
1.62411e-06
1.61944e-06
1.61944e-06
1.61944e-06
1.61944e-06
1.61944e-06
1.61944e-06
1.62698e-06
1.62808e-06
1.62698e-06
1.62407e-06
1.61944e-06
1.61944e-06
1.61944e-06
1.61944e-06
1.61944e-06
1.61944e-06
1.62724e-06
1.62697e-06
1.62694e-06
1.62381e-06
1.61944e-06
1.61944e-06
1.61944e-06
1.61944e-06
1.61944e-06
1.61944e-06
1.62697e-06
1.62463e-06
1.62427e-06
1.61944e-06
1.61944e-06
1.61944e-06
1.61944e-06
1.61944e-06
1.61944e-06
1.62723e-06
1.62753e-06
1.6275e-06
1.62534e-06
1.61944e-06
1.61944e-06
1.61944e-06
1.61944e-06
1.62743e-06
1.62618e-06
1.62784e-06
1.62723e-06
1.62523e-06
1.62698e-06
1.62724e-06
1.62697e-06
1.62724e-06
1.62618e-06
1.62781e-06
1.62809e-06
1.62697e-06
1.62464e-06
1.62753e-06
1.62785e-06
1.60496e-06
1.60497e-06
1.60466e-06
1.60213e-06
1.60208e-06
1.60182e-06
1.60229e-06
1.60552e-06
1.60524e-06
1.60467e-06
1.60063e-06
1.59746e-06
1.59746e-06
1.59746e-06
1.59746e-06
1.60336e-06
1.60325e-06
1.60213e-06
1.59746e-06
1.59746e-06
1.59746e-06
1.59746e-06
1.59746e-06
1.59746e-06
1.605e-06
1.6061e-06
1.60499e-06
1.60209e-06
1.59746e-06
1.59746e-06
1.59746e-06
1.59746e-06
1.59746e-06
1.59746e-06
1.60525e-06
1.60498e-06
1.60496e-06
1.60182e-06
1.59746e-06
1.59746e-06
1.59746e-06
1.59746e-06
1.59746e-06
1.59746e-06
1.60499e-06
1.60265e-06
1.60229e-06
1.59746e-06
1.59746e-06
1.59746e-06
1.59746e-06
1.59746e-06
1.59746e-06
1.60525e-06
1.60555e-06
1.60552e-06
1.60336e-06
1.59746e-06
1.59745e-06
1.59746e-06
1.59746e-06
1.60545e-06
1.6042e-06
1.60585e-06
1.60525e-06
1.60324e-06
1.605e-06
1.60526e-06
1.60499e-06
1.60526e-06
1.60419e-06
1.60583e-06
1.60611e-06
1.60498e-06
1.60266e-06
1.60555e-06
1.60587e-06
1.58298e-06
1.58299e-06
1.58268e-06
1.58015e-06
1.5801e-06
1.57984e-06
1.58031e-06
1.58354e-06
1.58326e-06
1.58269e-06
1.57864e-06
1.57547e-06
1.57547e-06
1.57547e-06
1.57547e-06
1.58138e-06
1.58127e-06
1.58014e-06
1.57547e-06
1.57547e-06
1.57547e-06
1.57547e-06
1.57547e-06
1.57547e-06
1.58301e-06
1.58412e-06
1.58303e-06
1.58011e-06
1.57547e-06
1.57547e-06
1.57547e-06
1.57547e-06
1.57547e-06
1.57547e-06
1.58327e-06
1.583e-06
1.58298e-06
1.57984e-06
1.57547e-06
1.57547e-06
1.57547e-06
1.57547e-06
1.57547e-06
1.57547e-06
1.583e-06
1.58067e-06
1.58031e-06
1.57547e-06
1.57547e-06
1.57547e-06
1.57547e-06
1.57547e-06
1.57547e-06
1.58326e-06
1.58357e-06
1.58354e-06
1.58138e-06
1.57547e-06
1.57547e-06
1.57547e-06
1.57547e-06
1.58347e-06
1.58222e-06
1.58387e-06
1.58327e-06
1.58126e-06
1.58301e-06
1.58328e-06
1.58301e-06
1.58328e-06
1.58221e-06
1.58385e-06
1.58413e-06
1.583e-06
1.58068e-06
1.58357e-06
1.58389e-06
1.561e-06
1.56101e-06
1.5607e-06
1.55817e-06
1.55812e-06
1.55786e-06
1.55833e-06
1.56155e-06
1.56128e-06
1.56071e-06
1.55666e-06
1.55349e-06
1.55349e-06
1.55349e-06
1.55349e-06
1.5594e-06
1.55929e-06
1.55816e-06
1.55349e-06
1.55349e-06
1.55349e-06
1.55349e-06
1.55349e-06
1.55349e-06
1.56103e-06
1.56214e-06
1.56104e-06
1.55812e-06
1.55349e-06
1.55349e-06
1.55349e-06
1.55349e-06
1.55349e-06
1.55349e-06
1.56129e-06
1.56102e-06
1.561e-06
1.55786e-06
1.55349e-06
1.55349e-06
1.55349e-06
1.55349e-06
1.55349e-06
1.55349e-06
1.56102e-06
1.55869e-06
1.55833e-06
1.55349e-06
1.55349e-06
1.55349e-06
1.55349e-06
1.55349e-06
1.55349e-06
1.56128e-06
1.56159e-06
1.56156e-06
1.5594e-06
1.55349e-06
1.55349e-06
1.55349e-06
1.55349e-06
1.56149e-06
1.56024e-06
1.56189e-06
1.56129e-06
1.55928e-06
1.56103e-06
1.5613e-06
1.56102e-06
1.5613e-06
1.56023e-06
1.56187e-06
1.56215e-06
1.56102e-06
1.5587e-06
1.56159e-06
1.5619e-06
1.53902e-06
1.53903e-06
1.53871e-06
1.53619e-06
1.53614e-06
1.53588e-06
1.53634e-06
1.53957e-06
1.5393e-06
1.53873e-06
1.53468e-06
1.53151e-06
1.53151e-06
1.53151e-06
1.53151e-06
1.53742e-06
1.53731e-06
1.53618e-06
1.53151e-06
1.53151e-06
1.53151e-06
1.53151e-06
1.53151e-06
1.53151e-06
1.53905e-06
1.54016e-06
1.53906e-06
1.53614e-06
1.53151e-06
1.53151e-06
1.53151e-06
1.53151e-06
1.53151e-06
1.53151e-06
1.53931e-06
1.53904e-06
1.53902e-06
1.53588e-06
1.53151e-06
1.53151e-06
1.53151e-06
1.53151e-06
1.53151e-06
1.53151e-06
1.53904e-06
1.53671e-06
1.53635e-06
1.53151e-06
1.53151e-06
1.53151e-06
1.53151e-06
1.53151e-06
1.53151e-06
1.5393e-06
1.53961e-06
1.53958e-06
1.53742e-06
1.53151e-06
1.53151e-06
1.53151e-06
1.53151e-06
1.53951e-06
1.53826e-06
1.53991e-06
1.53931e-06
1.5373e-06
1.53905e-06
1.53932e-06
1.53904e-06
1.53932e-06
1.53825e-06
1.53989e-06
1.54016e-06
1.53904e-06
1.53672e-06
1.53961e-06
1.53992e-06
1.51703e-06
1.51705e-06
1.51673e-06
1.51421e-06
1.51416e-06
1.51389e-06
1.51436e-06
1.51759e-06
1.51731e-06
1.51674e-06
1.5127e-06
1.50953e-06
1.50953e-06
1.50953e-06
1.50953e-06
1.51544e-06
1.51532e-06
1.5142e-06
1.50953e-06
1.50953e-06
1.50953e-06
1.50953e-06
1.50953e-06
1.50953e-06
1.51707e-06
1.51818e-06
1.51708e-06
1.51416e-06
1.50953e-06
1.50953e-06
1.50953e-06
1.50953e-06
1.50953e-06
1.50953e-06
1.51733e-06
1.51706e-06
1.51704e-06
1.5139e-06
1.50953e-06
1.50953e-06
1.50953e-06
1.50953e-06
1.50953e-06
1.50953e-06
1.51706e-06
1.51473e-06
1.51436e-06
1.50953e-06
1.50953e-06
1.50953e-06
1.50953e-06
1.50953e-06
1.50953e-06
1.51732e-06
1.51763e-06
1.51759e-06
1.51543e-06
1.50953e-06
1.50953e-06
1.50953e-06
1.50953e-06
1.51752e-06
1.51627e-06
1.51793e-06
1.51732e-06
1.51532e-06
1.51707e-06
1.51733e-06
1.51706e-06
1.51733e-06
1.51627e-06
1.5179e-06
1.51818e-06
1.51706e-06
1.51473e-06
1.51762e-06
1.51794e-06
1.49505e-06
1.49506e-06
1.49475e-06
1.49223e-06
1.49218e-06
1.49191e-06
1.49238e-06
1.49561e-06
1.49533e-06
1.49476e-06
1.49071e-06
1.48755e-06
1.48755e-06
1.48755e-06
1.48754e-06
1.49345e-06
1.49334e-06
1.49221e-06
1.48755e-06
1.48755e-06
1.48755e-06
1.48755e-06
1.48755e-06
1.48754e-06
1.49509e-06
1.49619e-06
1.4951e-06
1.49218e-06
1.48754e-06
1.48754e-06
1.48754e-06
1.48754e-06
1.48754e-06
1.48754e-06
1.49535e-06
1.49507e-06
1.49505e-06
1.49191e-06
1.48754e-06
1.48754e-06
1.48754e-06
1.48754e-06
1.48754e-06
1.48754e-06
1.49508e-06
1.49274e-06
1.49238e-06
1.48754e-06
1.48754e-06
1.48754e-06
1.48754e-06
1.48754e-06
1.48754e-06
1.49534e-06
1.49564e-06
1.49561e-06
1.49345e-06
1.48754e-06
1.48754e-06
1.48754e-06
1.48754e-06
1.49554e-06
1.49429e-06
1.49594e-06
1.49534e-06
1.49333e-06
1.49509e-06
1.49535e-06
1.49507e-06
1.49535e-06
1.49428e-06
1.49592e-06
1.4962e-06
1.49507e-06
1.49275e-06
1.49564e-06
1.49596e-06
1.47307e-06
1.47308e-06
1.47277e-06
1.47024e-06
1.47019e-06
1.46993e-06
1.4704e-06
1.47362e-06
1.47334e-06
1.47278e-06
1.46873e-06
1.46556e-06
1.46556e-06
1.46556e-06
1.46556e-06
1.47148e-06
1.47136e-06
1.47023e-06
1.46556e-06
1.46556e-06
1.46556e-06
1.46556e-06
1.46556e-06
1.46556e-06
1.4731e-06
1.47421e-06
1.47311e-06
1.47019e-06
1.46556e-06
1.46556e-06
1.46556e-06
1.46556e-06
1.46556e-06
1.46556e-06
1.47336e-06
1.47309e-06
1.47307e-06
1.46993e-06
1.46556e-06
1.46556e-06
1.46556e-06
1.46556e-06
1.46556e-06
1.46556e-06
1.47309e-06
1.47076e-06
1.4704e-06
1.46556e-06
1.46556e-06
1.46556e-06
1.46556e-06
1.46556e-06
1.46556e-06
1.47335e-06
1.47366e-06
1.47363e-06
1.47147e-06
1.46556e-06
1.46556e-06
1.46556e-06
1.46556e-06
1.47356e-06
1.47231e-06
1.47396e-06
1.47336e-06
1.47135e-06
1.4731e-06
1.47337e-06
1.47309e-06
1.47337e-06
1.4723e-06
1.47394e-06
1.47422e-06
1.47309e-06
1.47076e-06
1.47366e-06
1.47397e-06
1.45109e-06
1.4511e-06
1.45078e-06
1.44826e-06
1.44821e-06
1.44794e-06
1.44841e-06
1.45164e-06
1.45137e-06
1.4508e-06
1.44675e-06
1.44358e-06
1.44358e-06
1.44358e-06
1.44358e-06
1.44949e-06
1.44938e-06
1.44825e-06
1.44358e-06
1.44358e-06
1.44358e-06
1.44358e-06
1.44358e-06
1.44358e-06
1.45112e-06
1.45223e-06
1.45113e-06
1.44821e-06
1.44358e-06
1.44358e-06
1.44358e-06
1.44358e-06
1.44358e-06
1.44358e-06
1.45138e-06
1.45111e-06
1.45109e-06
1.44795e-06
1.44358e-06
1.44358e-06
1.44358e-06
1.44358e-06
1.44358e-06
1.44358e-06
1.45111e-06
1.44878e-06
1.44841e-06
1.44358e-06
1.44358e-06
1.44358e-06
1.44358e-06
1.44358e-06
1.44358e-06
1.45137e-06
1.45168e-06
1.45165e-06
1.44949e-06
1.44358e-06
1.44358e-06
1.44358e-06
1.44358e-06
1.45158e-06
1.45032e-06
1.45198e-06
1.45138e-06
1.44937e-06
1.45112e-06
1.45138e-06
1.45111e-06
1.45138e-06
1.45032e-06
1.45195e-06
1.45223e-06
1.45111e-06
1.44878e-06
1.45167e-06
1.45199e-06
1.4291e-06
1.42912e-06
1.4288e-06
1.42628e-06
1.42623e-06
1.42596e-06
1.42643e-06
1.42966e-06
1.42938e-06
1.42881e-06
1.42476e-06
1.4216e-06
1.4216e-06
1.4216e-06
1.4216e-06
1.42751e-06
1.42739e-06
1.42626e-06
1.4216e-06
1.4216e-06
1.4216e-06
1.4216e-06
1.4216e-06
1.4216e-06
1.42914e-06
1.43024e-06
1.42915e-06
1.42623e-06
1.4216e-06
1.4216e-06
1.4216e-06
1.4216e-06
1.4216e-06
1.4216e-06
1.4294e-06
1.42912e-06
1.4291e-06
1.42596e-06
1.4216e-06
1.4216e-06
1.4216e-06
1.4216e-06
1.4216e-06
1.4216e-06
1.42913e-06
1.42679e-06
1.42643e-06
1.4216e-06
1.4216e-06
1.4216e-06
1.4216e-06
1.4216e-06
1.4216e-06
1.42939e-06
1.42969e-06
1.42966e-06
1.4275e-06
1.4216e-06
1.4216e-06
1.4216e-06
1.4216e-06
1.42959e-06
1.42834e-06