/*--------------------------------*- C++ -*----------------------------------*\
| =========                 |                                                 |
| \\      /  F ield         | OpenFOAM: The Open Source CFD Toolbox           |
|  \\    /   O peration     | Version:  v2006                                 |
|   \\  /    A nd           | Website:  www.openfoam.com                      |
|    \\/     M anipulation  |                                                 |
\*---------------------------------------------------------------------------*/
FoamFile
{
    version     2.0;
    format      ascii;
    class       volScalarField;
    location    "750";
    object      p;
}
// * * * * * * * * * * * * * * * * * * * * * * * * * * * * * * * * * * * * * //

dimensions      [0 2 -2 0 0 0 0];


internalField   nonuniform List<scalar> 
14361
(
0.000434251
0.000434491
0.000435925
0.000435996
0.000435929
0.000435881
0.000435854
0.000435779
0.000431279
0.00043604
0.000431325
0.00043603
0.000431187
0.000436107
0.000435883
0.00043118
0.000431297
0.000435963
0.000431172
0.000431197
0.000435934
0.000435931
0.000431246
0.000435932
0.000431241
0.000431195
0.000431178
0.000435823
0.000431163
0.000431115
0.000435802
0.00043113
0.000431034
0.000435796
0.000435737
0.000431065
0.000435772
0.000431074
0.000431534
0.000436207
0.00043159
0.000436092
0.000431543
0.000436236
0.000435947
0.000431237
0.000436197
0.000431462
0.000431219
0.000431615
0.000431266
0.000436268
0.000435998
0.000436246
0.000431607
0.000431278
0.000443734
0.000441428
0.000443961
0.000443841
0.00044125
0.000444833
0.000444629
0.000440415
0.000440495
0.000440381
0.000440665
0.000440352
0.000440353
0.000440406
0.000440681
0.000440301
0.000440331
0.000440724
0.000440693
0.000440649
0.000440593
0.000444357
0.00044074
0.000440929
0.000444295
0.000440491
0.000440873
0.000440554
0.000440534
0.00044026
0.000440488
0.000440148
0.000440185
0.000440126
0.000440135
0.000440453
0.000440379
0.00044026
0.000440568
0.000440531
0.000440322
0.00044039
0.00044045
0.000440313
0.000440326
0.000440307
0.000440165
0.000440153
0.00044028
0.000440323
0.000440289
0.000440923
0.000440768
0.000440809
0.000440902
0.000440591
0.000440738
0.000440632
0.000440634
0.00044064
0.000445071
0.000445124
0.000440537
0.000445126
0.000440497
0.000445049
0.00044514
0.000440539
0.000440436
0.000445137
0.000445028
0.000440462
0.000444762
0.000444823
0.000440269
0.000444834
0.000440201
0.000444927
0.00044509
0.000440432
0.000440385
0.000445028
0.000444971
0.000440337
0.000440574
0.000440159
0.000440356
0.000444925
0.00044055
0.00044477
0.000440091
0.000440293
0.000445212
0.000444663
0.000440048
0.000440035
0.000440056
0.000444696
0.000441172
0.000441245
0.000441066
0.000445226
0.000445587
0.000440852
0.000441033
0.000440752
0.000445361
0.000445546
0.000445504
0.000445328
0.000440718
0.000440452
0.000440788
0.00044059
0.000441035
0.000441027
0.000440942
0.000440489
0.000440893
0.000441085
0.000440665
0.000441136
0.000445665
0.00044109
0.000445289
0.000440833
0.000441183
0.000445668
0.000445376
0.000445788
0.000445468
0.000441349
0.000440913
0.000441328
0.000445835
0.000445441
0.000445456
0.000440774
0.000445009
0.000440604
0.000445164
0.000445452
0.000440942
0.000445754
0.000445424
0.00044125
0.000440809
0.000445747
0.000445359
0.000441274
0.000507356
0.000507356
0.000507344
0.000507313
0.000511294
0.000511197
0.000507392
0.000507295
0.000511256
0.000511248
0.000507326
0.000511207
0.000511181
0.000507298
0.000507318
0.000511239
0.00051117
0.000507268
0.000471588
0.000471369
0.000470927
0.000472388
0.00049134
0.000487304
0.000501842
0.000494794
0.000486793
0.000487255
0.000488248
0.000487644
0.000487707
0.000487623
0.000471075
0.000441141
0.000470442
0.000470535
0.00044365
0.000443486
0.000472065
0.0004705
0.000440903
0.000471726
0.000471771
0.000443748
0.000443953
0.000470924
0.000470996
0.00047095
0.000443517
0.000472211
0.000471328
0.000471676
0.00047128
0.000471362
0.000470807
0.000501725
0.000491665
0.000503315
0.000487591
0.000487805
0.000486864
0.000479189
0.000475127
0.000479106
0.000479712
0.000487611
0.000475552
0.000476848
0.000475048
0.000491322
0.000503249
0.000491167
0.000503345
0.000503331
0.000491629
0.000458406
0.000470801
0.000470912
0.000458463
0.00047048
0.000457979
0.000471371
0.000471162
0.000458795
0.000458676
0.000472443
0.000472945
0.000472646
0.000444389
0.000444137
0.000470677
0.0004716
0.000470906
0.000458866
0.000461991
0.000458254
0.000462647
0.000471343
0.00045863
0.000471546
0.000471573
0.000471938
0.000459212
0.000462379
0.000462991
0.000458828
0.000470945
0.000470882
0.000459881
0.0004581
0.000458146
0.000503253
0.0004912
0.000491304
0.000503279
0.000503337
0.000503484
0.000492599
0.000503341
0.000491296
0.000474987
0.000487127
0.000487264
0.000475129
0.000488344
0.000475156
0.000476438
0.000475066
0.000487239
0.000491278
0.000503297
0.000494535
0.00049469
0.000501877
0.000491889
0.000503487
0.000491504
0.000503652
0.000501973
0.000491857
0.000503615
0.000487255
0.000474905
0.000487087
0.000475065
0.000487209
0.00047471
0.000486895
0.000475015
0.000487162
0.000478737
0.000479257
0.000487774
0.000475235
0.000487394
0.000475695
0.000486814
0.000478819
0.000479344
0.00048775
0.000475109
0.000487238
0.000475684
0.000474603
0.000486817
0.000476559
0.000474721
0.000474723
0.000486939
0.0004746
0.000503353
0.000491669
0.000491653
0.000492383
0.000491605
0.00047552
0.000476688
0.000487696
0.000488335
0.000475583
0.000475575
0.000475494
0.000470881
0.000458527
0.000471039
0.000458616
0.000471945
0.000470967
0.00045941
0.000458556
0.000458626
0.0004411
0.000454231
0.000441111
0.000454313
0.000454569
0.000440985
0.000441051
0.000454265
0.000454345
0.000458342
0.000470584
0.000470865
0.000458144
0.000470957
0.000458835
0.000471067
0.000461818
0.000471442
0.000458618
0.000462243
0.000471045
0.000458805
0.000470948
0.000461852
0.000471434
0.000458355
0.000462305
0.000454094
0.000441093
0.000454189
0.000440794
0.000454018
0.000440768
0.000453888
0.00044074
0.000454323
0.000452867
0.000440942
0.000443802
0.000454249
0.00045316
0.000440796
0.00045428
0.000452806
0.000440586
0.000443752
0.000453955
0.000453164
0.000440736
0.000470567
0.000470593
0.000459482
0.000458018
0.000458029
0.000457941
0.000440646
0.000453701
0.000454562
0.000440472
0.000453729
0.000453727
0.000453643
0.000471327
0.000470534
0.000471116
0.000459131
0.000461935
0.000458829
0.000462496
0.0004714
0.000471364
0.000458791
0.000458757
0.000471212
0.000470812
0.000471575
0.000459162
0.000462245
0.000462643
0.000458944
0.000454441
0.000441064
0.000454368
0.000440998
0.00045461
0.000452981
0.000441038
0.000444122
0.000454421
0.000453471
0.000441141
0.000454423
0.000440922
0.000454402
0.000440966
0.000454632
0.000453284
0.000444254
0.000440965
0.000453639
0.000454479
0.000441146
0.000470536
0.000458215
0.000457923
0.000471501
0.000471643
0.000471134
0.000458903
0.00046238
0.000462824
0.000458394
0.000470717
0.00045822
0.000458015
0.000454295
0.000452895
0.000443866
0.000453833
0.000453421
0.000453831
0.000453615
0.000454325
0.000453252
0.00044401
0.000453615
0.000453915
0.000453825
0.000453652
0.000471417
0.000471414
0.000459774
0.000458669
0.000458652
0.000458557
0.000454233
0.000454903
0.000454266
0.000454231
0.000454137
0.000471106
0.000471911
0.000471366
0.000459188
0.000462494
0.000463082
0.000458561
0.000471423
0.000458624
0.000458503
0.000471044
0.000458567
0.000458203
0.000454635
0.000453363
0.000453917
0.000454316
0.000454605
0.00045337
0.000453926
0.000454049
0.000454166
0.000454087
0.000454107
0.000453787
0.000470727
0.000457971
0.00045802
0.000454942
0.000453689
0.000453713
0.000453577
0.000453614
0.000491439
0.000503364
0.000491609
0.000503435
0.000487836
0.000480175
0.000480684
0.000488131
0.000501288
0.000491802
0.000494151
0.000492043
0.000494166
0.000503561
0.000501749
0.000494482
0.00049203
0.000501539
0.000503519
0.00049441
0.000503329
0.000491583
0.000491638
0.000503435
0.0004918
0.000501398
0.000494202
0.000492032
0.000501409
0.000503474
0.00049427
0.000487395
0.000475492
0.000475269
0.000487609
0.00048683
0.000475971
0.000475488
0.000478826
0.000479315
0.000487966
0.000487067
0.000487603
0.000475544
0.000475509
0.000487645
0.000476015
0.000479339
0.000479011
0.000486819
0.00047577
0.000487983
0.000486998
0.000479579
0.000478933
0.000475849
0.000475119
0.000487334
0.000475095
0.000474694
0.000479647
0.000475889
0.000475354
0.000487001
0.000487304
0.000487528
0.000474898
0.000487171
0.000492042
0.000494264
0.000491583
0.000491651
0.000491625
0.000479569
0.000487817
0.000486848
0.000475789
0.000476181
0.000488052
0.000487072
0.000479268
0.000476161
0.00047559
0.000488047
0.000487043
0.000487205
0.000487716
0.000475458
0.000475608
0.000487696
0.00047523
0.000487662
0.000487465
0.000475146
0.000475061
0.00048848
0.000487357
0.000487429
0.000474951
0.00048722
0.000487348
0.000495612
0.000495323
0.000491886
0.000491361
0.000495343
0.000491646
0.00049584
0.000483567
0.000487847
0.000483282
0.000487323
0.000487586
0.000483303
0.000483813
0.000483666
0.000483972
0.000488051
0.000483729
0.000487707
0.00048791
0.000483736
0.000484108
0.000483647
0.000467166
0.000471466
0.00047107
0.000466992
0.000471256
0.000466986
0.00046734
0.000466397
0.000466386
0.000470824
0.000470595
0.000466755
0.000466658
0.000466426
0.000470556
0.000466456
0.000470622
0.000470895
0.000466774
0.000466444
0.000466714
0.000470638
0.000467156
0.000467046
0.00047132
0.000467094
0.000467129
0.000471218
0.000466916
0.000471303
0.000471092
0.000467173
0.000467117
0.000466904
0.000471106
0.000466616
0.000478907
0.000474786
0.000475069
0.000479212
0.000474807
0.000478888
0.00047916
0.000483572
0.000483631
0.00048762
0.000487549
0.000483645
0.000479387
0.000475493
0.000475277
0.000479629
0.000475283
0.000479579
0.000479379
0.000479176
0.000495079
0.000491044
0.000491279
0.000495309
0.000495063
0.000495275
0.000491054
0.000499161
0.000499235
0.000503254
0.000499232
0.000503173
0.000495097
0.000491189
0.000495181
0.000495197
0.000491087
0.000499127
0.000499341
0.000503121
0.000503331
0.000499105
0.000499317
0.000503148
0.000499456
0.000495527
0.000462465
0.000462607
0.000458302
0.000458402
0.000462464
0.000462584
0.000458313
0.000466695
0.00047084
0.000466736
0.000470745
0.000466757
0.000466606
0.00046682
0.000470742
0.000470867
0.000470701
0.000466616
0.000466777
0.000462542
0.000458433
0.000462613
0.000462601
0.000458408
0.000466359
0.000462147
0.000467078
0.000471217
0.000471324
0.000467251
0.000467206
0.0004671
0.000471193
0.000467001
0.000471128
0.000467058
0.000467041
0.000471076
0.000462882
0.000463015
0.000458766
0.000458691
0.000462982
0.00046291
0.000458675
0.00046282
0.000462863
0.000458678
0.000462867
0.000458645
0.000467178
0.000462904
0.000467158
0.000471661
0.000470908
0.000466744
0.000467487
0.000466688
0.000471331
0.00046669
0.000470753
0.000470737
0.000466525
0.000466532
0.000470923
0.000467081
0.000471602
0.000470787
0.000466674
0.000467422
0.000466584
0.000471268
0.000462401
0.000457928
0.000457932
0.000462231
0.000462238
0.000458078
0.00046275
0.000462391
0.000458004
0.000458768
0.00046307
0.000462302
0.000458448
0.000462817
0.000462449
0.000458069
0.000458866
0.000463179
0.000462376
0.000458511
0.000499252
0.000495205
0.000495284
0.000499304
0.000499631
0.000499336
0.00050371
0.000503345
0.000499364
0.000499824
0.000503593
0.000495344
0.000491253
0.000491231
0.000495235
0.000495251
0.000491337
0.0004996
0.000503732
0.000499328
0.000503287
0.000499282
0.000499825
0.000503576
0.000495567
0.000491846
0.000491229
0.0004953
0.000495238
0.000491587
0.000495824
0.000499365
0.000503275
0.000503273
0.000499277
0.000499285
0.000503362
0.00047902
0.000483096
0.000483259
0.000479163
0.000479454
0.000479195
0.000475634
0.000475185
0.000479233
0.000475409
0.0004797
0.000483235
0.000487177
0.000487172
0.000487276
0.00048315
0.000483162
0.000479374
0.000475567
0.000479119
0.000475001
0.000479047
0.000479629
0.000475336
0.000483486
0.000487779
0.000487163
0.000483202
0.000487509
0.000483131
0.000483739
0.000479161
0.00047507
0.000475035
0.000479069
0.000479102
0.000475109
0.000495013
0.000490999
0.000491202
0.000495268
0.000495022
0.000495198
0.000490992
0.000499056
0.0004993
0.000503082
0.000503214
0.000499067
0.00049923
0.000503065
0.000482938
0.000486981
0.000487204
0.000483227
0.000486984
0.000482937
0.000483169
0.000478886
0.000478949
0.000474945
0.000474845
0.000478996
0.000482973
0.000487121
0.000483043
0.000487003
0.000483082
0.000478851
0.000479124
0.000474818
0.000475004
0.000474793
0.000478862
0.000479064
0.000482884
0.000486931
0.000487134
0.00048318
0.000486924
0.000482885
0.000483105
0.000478646
0.000478769
0.000474662
0.000478745
0.000474573
0.000482754
0.000486898
0.000482861
0.000486797
0.000482847
0.000478801
0.000479078
0.000474741
0.00047495
0.000478804
0.000479011
0.000474742
0.000478683
0.000482778
0.00047919
0.000478801
0.000475495
0.000474615
0.000478707
0.000475121
0.000479556
0.000479197
0.000475494
0.0004788
0.000474686
0.000479554
0.000478757
0.000475147
0.000483291
0.000487598
0.000486886
0.000482897
0.00048362
0.00048729
0.00048285
0.000478803
0.000474536
0.000474563
0.000478641
0.000478617
0.000474711
0.000478665
0.000499615
0.000499476
0.000499472
0.000499666
0.000495717
0.00049556
0.000491985
0.000491672
0.000495561
0.000491866
0.000495832
0.000495716
0.000495548
0.000492003
0.000491647
0.000495546
0.000491862
0.000495849
0.000495606
0.000491684
0.000491657
0.000495578
0.00049555
0.000491722
0.000495497
0.000479592
0.000483967
0.000488069
0.000483721
0.000487672
0.000487907
0.000483686
0.000484129
0.000479892
0.000476015
0.000479659
0.000475522
0.00047961
0.000475839
0.000480066
0.0004799
0.000479659
0.000475989
0.0004756
0.000479671
0.000475858
0.00048004
0.000483778
0.000487704
0.000487674
0.000487764
0.000483724
0.000483689
0.000479713
0.000475527
0.00047555
0.000479634
0.000479607
0.000475627
0.000479568
0.000466823
0.000462681
0.000466963
0.00046279
0.000462768
0.00045858
0.0004586
0.000462733
0.00046276
0.000458598
0.000467102
0.000471416
0.000470868
0.000466887
0.000471223
0.00046684
0.00046729
0.000466922
0.000470979
0.000470931
0.000471013
0.000466879
0.000466914
0.00046288
0.00045854
0.00046274
0.000458808
0.000462698
0.000458696
0.000463043
0.000462934
0.000462824
0.000458633
0.000458809
0.000462813
0.000458785
0.000463079
0.000445515
0.000449922
0.000445551
0.000449981
0.000449935
0.000454286
0.000454303
0.000454296
0.000449983
0.000449991
0.000445444
0.000440839
0.000445448
0.000441116
0.000445523
0.000445454
0.000440943
0.000445422
0.00044088
0.000445528
0.000441052
0.000445505
0.000445484
0.000440904
0.000449981
0.000454257
0.00045443
0.000449914
0.000454351
0.000449939
0.00045005
0.000450005
0.000454327
0.000454477
0.000449999
0.00045438
0.000449966
0.000450107
0.000445485
0.000441121
0.00044111
0.000445566
0.000445561
0.000441045
0.00046239
0.000462538
0.000458225
0.000458312
0.000462379
0.000462502
0.000458226
0.000466373
0.000470477
0.000466486
0.000470423
0.000466424
0.00046654
0.000466761
0.000470661
0.000470803
0.000466527
0.000470642
0.000466712
0.000462177
0.00045799
0.000462338
0.000462231
0.000458015
0.000449738
0.000454033
0.000454099
0.000449753
0.000454046
0.000449708
0.00044977
0.000445488
0.000445476
0.000441008
0.000441125
0.000445406
0.000449854
0.000454157
0.000449884
0.000454117
0.000449831
0.000445378
0.000445266
0.000441004
0.000440873
0.000441066
0.000445325
0.000445302
0.000449622
0.000453961
0.000454009
0.000449692
0.000453956
0.000449643
0.000449664
0.000445126
0.000445152
0.000440689
0.000445054
0.000440858
0.000449462
0.000453762
0.000449585
0.000453744
0.000449458
0.000445236
0.00044521
0.000440944
0.000440741
0.000445259
0.000445182
0.000440931
0.000466796
0.000471315
0.000470459
0.000466416
0.000467157
0.000470946
0.000466308
0.000462186
0.0004579
0.000457886
0.000462084
0.000462059
0.00045795
0.00046683
0.000471311
0.00047052
0.000466454
0.000466421
0.000470995
0.000467152
0.000466409
0.000470399
0.00047041
0.000466294
0.000470563
0.00046627
0.000462569
0.000458056
0.000462228
0.00045861
0.000462257
0.000462883
0.000458319
0.00046253
0.000462226
0.000457867
0.000458596
0.000462892
0.000462063
0.000458269
0.000462124
0.000444962
0.000449373
0.000449281
0.000453622
0.000453614
0.000453648
0.000449294
0.000449296
0.000444947
0.000440448
0.000444923
0.000440567
0.000445104
0.000444971
0.000440338
0.000444882
0.000444897
0.000444784
0.000445114
0.000449548
0.000453762
0.000454156
0.000449379
0.000449751
0.000453934
0.000449431
0.000449485
0.000453584
0.000454149
0.000449375
0.00045386
0.000449251
0.00044974
0.000444796
0.000444879
0.000444871
0.000444848
0.000449307
0.000467168
0.000471246
0.000471403
0.000467268
0.000467118
0.000467276
0.000471295
0.00046713
0.000471305
0.000467231
0.000467148
0.000471268
0.000462968
0.000463018
0.000458683
0.000458802
0.000462916
0.000463036
0.000458746
0.000462877
0.000463006
0.000458636
0.000462896
0.000458638
0.000449987
0.000454429
0.000454381
0.000450073
0.000454357
0.00045006
0.000450013
0.000445566
0.00044553
0.000441086
0.000441129
0.000445562
0.000450006
0.000454382
0.000450008
0.000454318
0.000450029
0.000445509
0.000445546
0.000441004
0.000441022
0.000441031
0.00044554
0.000445523
0.000450036
0.000454359
0.000454446
0.000450046
0.000454412
0.000449984
0.000450071
0.000445346
0.000445495
0.00044078
0.000445341
0.000440823
0.000449882
0.00045427
0.00045002
0.000454265
0.000449865
0.000445527
0.000445513
0.000440957
0.000440994
0.000445481
0.000445543
0.000440982
0.000466301
0.000470585
0.000466389
0.000466442
0.000470436
0.000462158
0.000462475
0.000458128
0.000457975
0.000462365
0.00046221
0.000457935
0.000462076
0.000462148
0.000457995
0.000462213
0.000457898
0.000466423
0.000470743
0.000466537
0.000466542
0.000470606
0.000462218
0.000462487
0.000457973
0.000458167
0.000462218
0.000462398
0.000457983
0.000462141
0.000462281
0.000457994
0.000462257
0.000457905
0.000449254
0.000453768
0.000453654
0.00044943
0.000453617
0.000449383
0.000449296
0.000444796
0.000444807
0.000444853
0.000449254
0.000453683
0.000449275
0.00045359
0.000449332
0.000444766
0.000444897
0.000444852
0.00044482
0.000449289
0.000453639
0.000453787
0.000449416
0.000453648
0.000449274
0.000449393
0.000444663
0.000444803
0.000444712
0.000449181
0.000453623
0.000449283
0.000453538
0.000449225
0.000444807
0.000444879
0.000444792
0.000444866
0.000467482
0.00047184
0.000471342
0.000467228
0.000467664
0.000471654
0.000467147
0.000467526
0.000471805
0.000471434
0.000467238
0.000467275
0.000471689
0.000467659
0.000462981
0.000458608
0.00045859
0.000462906
0.000462886
0.000458665
0.000467264
0.000471344
0.000471371
0.000467189
0.000471458
0.000467164
0.000463221
0.000462954
0.000458714
0.00045906
0.000463004
0.000463372
0.000458927
0.000463161
0.00046296
0.000458556
0.000459048
0.000463349
0.00046286
0.00045886
0.000462856
0.000445289
0.000449828
0.000449781
0.000454179
0.000454172
0.000454239
0.000449752
0.000449748
0.000445414
0.000445287
0.000445531
0.000445347
0.000445331
0.000445243
0.000445155
0.000445508
0.000450038
0.000454314
0.000454602
0.000449837
0.000450154
0.000454475
0.000449884
0.000449951
0.000454134
0.000454584
0.00044979
0.00045439
0.000449703
0.000450133
0.000445237
0.000445207
0.000445204
0.000445171
0.000449715
0.000466986
0.000471382
0.000471175
0.000467236
0.000467199
0.000466982
0.000471178
0.000462715
0.000462921
0.000458573
0.000458388
0.000462889
0.00046271
0.00045842
0.000462737
0.000462805
0.000458533
0.000462831
0.000458453
0.000466685
0.000470995
0.00046684
0.000466775
0.0004709
0.000462651
0.000462841
0.000458517
0.000458316
0.000462792
0.000462662
0.000458306
0.000462387
0.000462519
0.000458159
0.000462463
0.000458076
0.000449584
0.000454141
0.000453983
0.000449721
0.000454002
0.000449707
0.000449563
0.000449618
0.000454117
0.000449661
0.00045403
0.000449664
0.000449469
0.000454057
0.000453915
0.000449658
0.000453894
0.000449599
0.000449502
0.000449283
0.000453766
0.000449359
0.000453669
0.000449342
0.000466533
0.000462251
0.000462319
0.00044922
0.000453528
0.000453514
0.000453664
0.000449125
0.000449102
0.000444969
0.00044473
0.000445276
0.000444698
0.000449579
0.000453616
0.000454326
0.000449265
0.000454006
0.000449868
0.000449211
0.000449576
0.000453629
0.000454398
0.000449299
0.000454033
0.000449905
0.000449204
0.000444663
0.000444605
0.000444589
0.000444678
0.000449192
0.000449207
0.000495288
0.000495403
0.000491359
0.000495319
0.000491335
0.000499298
0.000499397
0.000503293
0.000499312
0.000503257
0.000495394
0.000491577
0.000491416
0.000495528
0.000495506
0.000495359
0.000491434
0.000499363
0.000503434
0.000503286
0.000499512
0.000499489
0.000499335
0.000503317
0.000499412
0.000499422
0.000503347
0.00049943
0.00050331
0.000495451
0.000495483
0.000491573
0.000495486
0.00049154
0.000495409
0.000491462
0.000491618
0.000495549
0.000495401
0.000495522
0.000491482
0.000499358
0.000503394
0.000503306
0.000499523
0.000499361
0.000499484
0.000503286
0.00048329
0.000483389
0.000487342
0.000487291
0.000483325
0.000479364
0.000475324
0.000475495
0.000479555
0.000475316
0.000479508
0.000479374
0.000479215
0.000479317
0.000475216
0.000475185
0.000479265
0.000483426
0.000487573
0.000487422
0.000483632
0.000487431
0.000483583
0.000483428
0.00048356
0.000483633
0.000487589
0.000487547
0.000483607
0.000479464
0.000475368
0.000475543
0.000479598
0.000475415
0.000479423
0.000479594
0.000479487
0.000479565
0.000475458
0.000475432
0.000479536
0.000483516
0.000487471
0.000487633
0.000483672
0.000487499
0.000483479
0.000483665
0.000478821
0.00047499
0.00047475
0.000479176
0.000474715
0.00047908
0.000478845
0.000478679
0.000478777
0.00047474
0.0004746
0.000478824
0.000478916
0.000474919
0.000479004
0.000474819
0.000479039
0.000483044
0.000483125
0.000487213
0.000487093
0.000483164
0.000495434
0.000495478
0.000491581
0.000495475
0.000491535
0.00049539
0.000491625
0.000495534
0.00049147
0.000495509
0.00049538
0.00049148
0.000495369
0.000495513
0.000491595
0.000491434
0.000495484
0.000495353
0.000491451
0.000479484
0.000479543
0.000475496
0.000475404
0.000479578
0.00047944
0.000475565
0.000475349
0.000479677
0.000475349
0.000479638
0.000479437
0.000483518
0.000487666
0.000483746
0.000487496
0.000487503
0.000483711
0.000483507
0.000479221
0.000475184
0.000479339
0.000475111
0.000479299
0.00048347
0.000483703
0.000487626
0.000487452
0.000487467
0.000483659
0.000483456
0.000483349
0.000483452
0.00048742
0.000487365
0.000483404
0.000479627
0.000475855
0.000475122
0.000479276
0.000475542
0.000479925
0.000479256
0.000479271
0.000474985
0.000474958
0.000475134
0.000479094
0.000479121
0.000479564
0.000475789
0.000474985
0.000479184
0.000475474
0.000479847
0.000479107
0.000483399
0.000487298
0.000487322
0.000487454
0.00048324
0.000483265
0.000483691
0.000483309
0.000487282
0.000487932
0.000487695
0.000483939
0.000483236
0.000483754
0.000483395
0.000487426
0.000487998
0.000487751
0.000484026
0.000483386
0.000479062
0.000483172
0.000483311
0.000507424
0.000507365
0.000507277
0.000510925
0.000511001
0.000511072
0.000510865
0.000507209
0.000507222
0.0005073
0.000510816
0.000510963
0.000510806
0.000510956
0.000472307
0.000472236
0.000462897
0.000463558
0.000463771
0.000464852
0.00047327
0.000467643
0.000472061
0.000472099
0.000468557
0.000468081
0.000468058
0.000471649
0.000483737
0.000487941
0.000484613
0.000487938
0.000484139
0.000487571
0.000484142
0.000445503
0.000445414
0.00044105
0.000441268
0.00044549
0.000445745
0.000441063
0.000467318
0.00047177
0.000471726
0.000468204
0.000467751
0.000471313
0.000467711
0.000445143
0.000445278
0.000440809
0.000440887
0.00044531
0.000445405
0.000440706
0.000468102
0.00047163
0.000472123
0.000467669
0.000467593
0.000468121
0.000472113
0.000468212
0.000472201
0.000471765
0.000467706
0.000468206
0.000467707
0.000472189
0.000467858
0.000472159
0.000472073
0.000468389
0.000468139
0.000471876
0.000468098
0.000445527
0.000445702
0.000445663
0.000445712
0.000496061
0.000495569
0.000492239
0.000491826
0.000496145
0.000495691
0.000492288
0.000503418
0.00050339
0.000499787
0.000499599
0.000503403
0.000499773
0.000499692
0.000484267
0.000488198
0.000483626
0.000487746
0.000484164
0.000488163
0.000483819
0.000484429
0.000488253
0.00048389
0.000487886
0.000484331
0.00048826
0.000484011
0.000479886
0.000476379
0.00047641
0.000480567
0.000475973
0.000480269
0.000480297
0.000472004
0.000472735
0.000463481
0.000463991
0.000464287
0.000465133
0.000473389
0.000472348
0.000472821
0.000463686
0.000464187
0.000464425
0.000465413
0.000473793
0.000471809
0.000472391
0.000462989
0.000463654
0.000463937
0.000465106
0.000473653
0.000453792
0.000444885
0.000445198
0.000454405
0.000454697
0.000455795
0.000446217
0.000453703
0.000444822
0.000444913
0.000454418
0.000454633
0.000455915
0.000446199
0.000454381
0.000445447
0.000454973
0.000455168
0.000456185
0.000446596
0.000454393
0.000445174
0.000454937
0.000455172
0.000456345
0.000446683
0.000468075
0.000472156
0.000471444
0.00046751
0.000467376
0.000468153
0.000472086
0.000467745
0.000471602
0.000471227
0.00046678
0.000467489
0.000467139
0.000471779
0.000463545
0.000463089
0.000458759
0.000459458
0.000462988
0.000463632
0.000459393
0.000463265
0.000462452
0.000458577
0.000458877
0.000463155
0.000462776
0.000459085
0.000468097
0.000472105
0.000471721
0.000467432
0.00046795
0.000467644
0.000472149
0.000468362
0.000472413
0.000471864
0.000467853
0.000468429
0.000467783
0.000472341
0.000463876
0.000463414
0.000459785
0.000459146
0.000463963
0.000463363
0.000459722
0.00046364
0.000463104
0.000459018
0.000459304
0.000463568
0.000463264
0.000459473
0.000463172
0.000463871
0.000459348
0.000459452
0.000463545
0.000463598
0.000458995
0.000499903
0.000503658
0.000500156
0.000503754
0.000500157
0.000500068
0.000503656
0.000495743
0.000492264
0.000496168
0.00049234
0.000491937
0.000496167
0.000496056
0.000483885
0.000488103
0.000484615
0.000488175
0.000487725
0.000484247
0.00048422
0.000479623
0.000480226
0.000476066
0.000476064
0.000480011
0.000475738
0.000479976
0.0004962
0.000492449
0.000491825
0.000495746
0.000495701
0.000496222
0.00049242
0.000500092
0.000503824
0.00049953
0.000503607
0.000499717
0.000500013
0.000503729
0.000496079
0.000492092
0.00049173
0.000495451
0.000495627
0.000496034
0.000492256
0.000500202
0.000503771
0.000499823
0.000503645
0.000499795
0.0005002
0.000503771
0.00049613
0.000492397
0.000491769
0.000495711
0.000495625
0.000496178
0.00049235
0.000500152
0.000503778
0.000499779
0.00050353
0.000499686
0.000500171
0.000503797
0.000484359
0.000488282
0.000487701
0.000483855
0.000488224
0.00048377
0.000484422
0.000479926
0.000475777
0.000479258
0.000475489
0.000479783
0.000479489
0.000475996
0.000484172
0.000487963
0.000487609
0.000483397
0.000483957
0.00048808
0.000483655
0.000480086
0.000476282
0.00047968
0.000475599
0.000479588
0.000480176
0.000476203
0.000484366
0.000488246
0.000487664
0.000483836
0.000488186
0.000483748
0.000484406
0.000479973
0.000475817
0.000479141
0.000475402
0.000479362
0.000479899
0.000475995
0.000484123
0.000487831
0.000487484
0.000483262
0.000487964
0.000483543
0.000483918
0.000480137
0.000476283
0.000479666
0.000475614
0.000479587
0.00048018
0.000476255
0.000479532
0.00048029
0.000476078
0.000476042
0.000479917
0.00047562
0.000479976
0.000495766
0.000492304
0.000495805
0.000492296
0.000492078
0.000495936
0.000495952
0.000480058
0.000480423
0.000476458
0.000476417
0.000476164
0.000480298
0.000480366
0.00048424
0.000488302
0.000484716
0.000488312
0.000488013
0.000484506
0.000484515
0.000467473
0.000471789
0.000471747
0.000468054
0.000471443
0.00046774
0.000467746
0.000463082
0.000463398
0.000459166
0.000459244
0.000459005
0.000463296
0.000463348
0.000450284
0.000450439
0.000454538
0.000454771
0.000454458
0.000450281
0.000450473
0.000463409
0.000462992
0.000458793
0.000459332
0.000462934
0.000463496
0.000459284
0.000467672
0.000471574
0.000471242
0.000467005
0.000467199
0.000471725
0.000467501
0.000467867
0.00047195
0.000467381
0.000471317
0.000467297
0.000471893
0.000467942
0.00046322
0.000458728
0.000462784
0.000459004
0.000462869
0.000463211
0.000459098
0.000463462
0.000462974
0.000458761
0.000459288
0.000462921
0.000463458
0.000459324
0.000467631
0.000471604
0.000471218
0.000466831
0.000471691
0.000467078
0.000467496
0.000467934
0.00047194
0.000467364
0.000471357
0.000471939
0.000467301
0.000467926
0.000463174
0.000458569
0.00046252
0.000458962
0.000462711
0.000459006
0.000463212
0.000450424
0.000454307
0.000454719
0.000450038
0.000454674
0.000450031
0.000450431
0.000445531
0.000441145
0.000445411
0.000440798
0.000445724
0.000445283
0.000441037
0.000450265
0.000454276
0.000454635
0.000449961
0.000450286
0.000454543
0.00044996
0.000445655
0.000445331
0.000440826
0.000441159
0.000445338
0.000445654
0.000441194
0.000450415
0.000454248
0.000454649
0.000449987
0.000454678
0.000449952
0.000450357
0.000445293
0.000440858
0.000445064
0.000440499
0.000445027
0.00044553
0.000440777
0.000450082
0.000454052
0.000454509
0.000449664
0.000454381
0.00044971
0.000450141
0.000445612
0.000445276
0.0004407
0.000441062
0.000445246
0.000445558
0.000441132
0.000462866
0.000463504
0.00045907
0.000459148
0.000463332
0.00046324
0.000458768
0.000449904
0.000450378
0.000454417
0.00045454
0.00045009
0.000454163
0.000450203
0.000467749
0.000471448
0.000471756
0.000467246
0.000467397
0.000467642
0.000471779
0.000463648
0.000463279
0.00045907
0.000459528
0.000463228
0.000463688
0.000459523
0.000463326
0.000462978
0.000458912
0.000459132
0.00046307
0.000463345
0.000459188
0.000467972
0.000471638
0.000472019
0.000467467
0.000467568
0.000467949
0.000472021
0.000463791
0.000463296
0.000459613
0.000459172
0.000463796
0.000463332
0.000459674
0.000463548
0.000463128
0.000459003
0.000459411
0.000463202
0.000459354
0.000463705
0.00045065
0.000454571
0.000454902
0.000450313
0.000454894
0.000450282
0.000450622
0.000445595
0.000441186
0.000445523
0.000441007
0.000445734
0.00044551
0.000441135
0.000450335
0.000454454
0.000454702
0.000450115
0.000450344
0.000454597
0.000450158
0.000445848
0.000445625
0.000441102