/*--------------------------------*- C++ -*----------------------------------*\
| =========                 |                                                 |
| \\      /  F ield         | OpenFOAM: The Open Source CFD Toolbox           |
|  \\    /   O peration     | Version:  v2006                                 |
|   \\  /    A nd           | Website:  www.openfoam.com                      |
|    \\/     M anipulation  |                                                 |
\*---------------------------------------------------------------------------*/
FoamFile
{
    version     2.0;
    format      ascii;
    class       surfaceScalarField;
    location    "750";
    object      phi;
}
// * * * * * * * * * * * * * * * * * * * * * * * * * * * * * * * * * * * * * //

dimensions      [0 3 -1 0 0 0 0];
oriented        oriented;


internalField   nonuniform List<scalar> 
41280
(
5.14879e-07
-3.37917e-07
9.22096e-08
8.28362e-07
-2.21295e-07
-8.62723e-07
1.67776e-07
-0.00113056
9.38689e-07
-7.57598e-07
-9.35452e-07
7.57127e-07
-0.00114822
8.13425e-10
-1.38867e-07
1.67276e-07
1.69921e-08
0.000246865
-0.000246911
-1.52869e-07
0.00025103
2.15657e-07
-2.17742e-08
-0.000251086
-1.38198e-07
1.2355e-07
7.35739e-08
0.000280062
-0.00028012
-7.516e-08
9.87043e-05
-9.87674e-05
-1.19846e-07
0.000195068
-0.000195162
0.000230757
5.97057e-08
-1.14556e-07
-0.000230784
-3.60386e-08
-0.000223128
-7.25292e-08
7.09975e-08
0.000184212
6.67571e-08
-5.96418e-08
-0.000184272
-5.82204e-08
-7.70215e-08
1.30371e-07
-0.000223143
3.19812e-08
-0.000223259
-8.88694e-08
-7.9974e-09
3.51324e-08
0.000251888
-6.52572e-08
1.03912e-07
8.75731e-08
-0.000251891
1.03298e-07
0.000184455
4.63245e-08
-0.000184531
9.31885e-08
9.19291e-08
-1.30831e-07
-2.94162e-08
9.42705e-10
3.95294e-08
-3.2264e-08
8.21525e-08
-0.000223271
6.14275e-08
3.74846e-08
-0.000215115
-8.8852e-08
8.10418e-05
-2.04164e-08
-8.1081e-05
9.12798e-08
8.10709e-05
-8.11159e-05
-0.000215153
-8.84437e-08
1.10917e-07
-7.98224e-05
-7.09099e-08
0.000265003
-1.33658e-07
-6.02837e-08
1.54392e-07
-0.000265083
-1.2875e-07
1.10486e-07
-7.59251e-08
1.02244e-07
-6.72857e-08
-7.98888e-05
9.81472e-08
-0.000144404
-8.79602e-08
7.78555e-08
-1.00291e-07
1.03368e-07
0.000224823
-1.17863e-07
1.55219e-07
-0.000224861
8.48078e-08
0.000172296
-0.000172409
9.93357e-08
-0.000144505
3.32529e-08
-0.000243876
0.00026141
-1.98757e-07
-0.000261657
-0.000243953
-0.000264592
-7.44263e-08
6.61578e-08
8.053e-08
8.54464e-08
0.000261227
-0.000261279
2.32847e-07
0.000251941
2.08338e-08
-0.000252024
2.26106e-08
1.90592e-09
8.74859e-08
-0.000265224
9.07105e-09
-0.000266035
9.23278e-08
9.36718e-08
-7.46441e-08
-1.13553e-08
-8.59726e-08
0.000266078
-0.000266622
2.3336e-07
0.000250574
-0.000250653
-0.000266736
1.18439e-06
-5.2233e-07
-1.23365e-06
1.67283e-07
-2.75173e-07
1.94837e-07
8.62797e-07
-0.00112886
6.77884e-07
-8.19179e-07
-1.70694e-07
-1.1221e-06
1.33418e-07
2.41421e-07
-1.30131e-06
-0.000268251
-3.79902e-07
7.2867e-08
1.53074e-07
-8.18186e-07
2.20477e-07
8.72056e-07
-1.66064e-07
-0.00113007
-1.29581e-06
-2.73217e-07
1.22658e-06
2.14646e-08
-8.09331e-07
-1.18727e-06
2.49052e-07
-1.7866e-07
-9.04704e-07
1.36106e-07
-2.71173e-07
7.89568e-07
-0.00112858
-0.000267962
1.87559e-07
1.48894e-07
-2.80082e-07
2.10154e-07
-0.00117853
1.59631e-07
-7.90653e-07
-0.00117592
5.6053e-07
-1.1111e-07
8.94392e-08
8.2639e-08
-6.51756e-09
-0.000280281
-1.01195e-08
-9.87592e-05
-9.51587e-08
-1.23104e-08
1.06663e-07
-0.000246991
-8.91016e-08
5.50727e-08
-6.79643e-08
-1.25003e-07
-0.000251032
1.33406e-08
-0.00019525
8.55474e-08
-8.99725e-08
-1.17589e-07
-0.000230885
-1.12697e-07
4.21373e-08
3.85809e-08
-4.27688e-08
-0.000246925
-9.60472e-08
-1.2089e-07
5.17576e-08
-0.000250995
6.2659e-08
-7.63409e-08
-0.000195353
-1.15457e-07
7.55339e-08
-0.000230853
1.9595e-08
-1.53642e-09
-9.88109e-05
6.24666e-08
-2.18183e-08
-3.60894e-08
-0.000279978
-1.07945e-07
-2.28419e-08
4.76478e-08
7.87387e-08
-0.000280116
-7.64393e-08
-9.87989e-05
4.83685e-07
-3.70833e-07
-8.84572e-07
8.00872e-07
9.86444e-07
-7.08524e-07
-0.00114845
-6.49338e-08
-3.91536e-08
-0.000246837
7.62513e-09
2.55024e-08
-4.97245e-08
-0.000250905
-1.28344e-07
-2.88433e-08
-1.95472e-07
-9.28988e-07
7.66722e-07
-7.38109e-07
9.40234e-07
-0.00114772
-3.47777e-08
-9.53294e-08
1.06204e-09
-0.000246791
6.27377e-08
-5.89035e-08
-0.000250861
-1.06966e-07
1.14041e-08
-0.0001952
-1.03663e-07
-5.32232e-08
-0.00023075
4.43919e-08
-7.41397e-08
-6.49216e-08
-0.00019527
1.04868e-07
-0.000230704
-6.89159e-08
-7.6084e-08
-1.38087e-07
1.30978e-07
6.61178e-08
-0.000280332
-1.23644e-08
5.67627e-08
-0.000280281
-1.0056e-07
-9.894e-05
-9.89628e-05
-7.68572e-08
4.06525e-08
-0.000251926
-2.82748e-08
1.0159e-07
1.66751e-08
-0.000184598
-6.0762e-08
-0.000223394
3.15109e-08
-1.93862e-09
7.02998e-08
-8.10239e-05
8.97243e-08
-8.10649e-05
8.33775e-08
-0.000215238
-7.58877e-08
7.93369e-08
8.40848e-08
-0.000265231
7.10643e-09
-7.98924e-05
-9.82931e-08
7.37867e-08
-0.000224964
-1.51406e-08
1.61853e-08
-0.000172476
-0.00014453
-9.36315e-08
-5.83032e-08
1.18175e-07
-0.000265242
-2.2858e-08
-7.99721e-05
2.06321e-08
-0.000172451
-1.06628e-07
1.06834e-07
-0.000224888
-0.000144502
2.58544e-08
3.09966e-08
-0.000251639
-8.62115e-08
3.76642e-08
-4.01328e-08
-0.000184292
-3.60967e-08
5.14948e-08
-0.000223095
-1.88151e-08
-4.26431e-08
1.79894e-08
-0.0002518
5.20604e-08
5.03437e-08
-0.000184555
-1.2292e-08
-4.13338e-09
-0.000223221
-2.27822e-08
-8.10983e-05
7.26345e-08
-8.11382e-05
-0.000215152
1.11834e-07
7.99213e-05
-5.80127e-08
-7.99751e-05
-9.35331e-08
8.93634e-08
6.09686e-08
-0.000195257
-0.000265099
-9.52306e-08
-5.00243e-08
5.72266e-08
-3.79427e-08
1.06391e-07
-0.000265149
-6.27054e-08
8.73147e-08
-7.2056e-08
0.000144564
-0.000144637
3.09398e-08
-8.10118e-08
-3.6347e-08
9.29473e-08
-0.000230757
-0.000224838
-7.45266e-08
4.58336e-08
-0.000172481
7.77145e-08
-8.03842e-08
9.5609e-08
-0.000224853
-7.23461e-08
-0.000172561
1.92298e-08
8.00039e-05
5.34554e-08
-8.00766e-05
8.79842e-08
-6.50964e-08
6.50687e-08
-0.000195358
-0.000265202
1.17745e-09
8.67494e-08
5.5265e-08
6.70193e-08
1.06656e-07
-0.000265269
6.29849e-08
6.63641e-08
7.0681e-08
0.000144473
-0.000144556
-4.94509e-08
-8.24123e-08
1.02448e-07
-0.000230711
-0.000224757
-5.55651e-08
5.22782e-08
-0.000172439
-8.11201e-08
1.04121e-07
-0.000224777
-0.000172523
2.85356e-08
1.3811e-08
-4.14331e-08
-0.000251775
1.13181e-07
3.86198e-08
-0.000184737
-1.44121e-09
8.43595e-08
-0.000223319
0.000223252
1.27916e-07
-5.84809e-08
1.25256e-07
-0.000223257
-1.8978e-07
-9.19305e-08
-0.000251622
3.47222e-08
1.61451e-08
1.09036e-07
-9.74395e-08
-2.37164e-08
9.17087e-08
-0.000280361
3.08793e-08
-0.000184684
-5.16079e-08
-1.34705e-07
3.50352e-08
2.45492e-07
5.2293e-08
-0.000251683
-0.000184779
-6.09886e-08
9.68964e-08
-8.12245e-05
6.43283e-09
-8.12193e-05
-0.000215336
-9.90517e-05
1.03924e-07
-2.73434e-07
-0.000261698
1.20284e-08
-0.000261317
-0.000243789
0.000243747
6.46397e-08
1.86367e-07
-8.05272e-08
-0.000243792
-2.32888e-07
-2.42022e-07
-0.000269908
4.47531e-08
-0.000261172
2.10856e-08
-0.000261456
2.96668e-09
-0.000261618
-0.000261444
2.4596e-07
-0.00120671
-1.44559e-07
-0.00120539
8.33456e-11
3.87887e-08
-2.35863e-07
-0.000261181
-1.04049e-07
8.38051e-08
-0.000252006
1.28251e-08
-9.05157e-07
-0.000264509
-1.51033e-07
-0.000250592
7.0873e-09
-2.46181e-08
-8.51236e-07
-0.00026598
-1.03809e-06
-0.000265928
2.79387e-09
-0.000261027
-6.04887e-08
-5.26403e-08
-0.000251891
1.20149e-08
-0.000264366
-2.20448e-08
-8.4731e-07
-0.000265951
-1.20653e-07
-0.00025048
-1.01092e-06
-0.000265826
0.000264483
-5.21852e-08
-1.75148e-07
5.24981e-08
-0.000265126
4.89796e-08
-0.000261129
1.01724e-07
1.36611e-08
7.45958e-10
-0.000246864
-1.20842e-07
-0.000251858
2.04305e-08
5.89594e-08
-6.22448e-08
-0.000261183
2.20375e-08
-0.000251936
0.000265921
6.61848e-08
-1.6957e-07
-0.00026665
1.56452e-07
-3.10476e-08
3.26838e-08
-0.00025097
-7.86261e-08
-0.000265959
8.8199e-08
-1.52253e-07
-0.000250464
7.72796e-08
-0.000266522
-0.000250547
-2.18793e-07
2.15313e-08
0.000264267
-6.84476e-08
-0.000264906
-0.000260919
-2.16298e-08
4.11372e-08
1.44937e-07
-0.00024682
-0.000251747
-6.96147e-08
1.34209e-08
-2.92091e-09
-0.000251815
-0.000260971
-7.81129e-08
-7.75432e-08
-1.99105e-07
0.000265749
-0.00026647
1.7471e-07
2.35674e-08
-0.000250924
-0.000265909
8.2473e-08
-0.000250341
-1.19146e-07
-0.000266472
-0.000250415
-2.20774e-07
-2.72208e-08
-0.000229813
5.55963e-08
1.21337e-07
0.000229884
4.50555e-09
0.000250485
3.43981e-08
-3.79857e-07
-0.000250365
-2.16864e-07
-0.000229764
1.18639e-07
-1.11521e-09
0.000229836
0.000250453
-3.7098e-07
3.86418e-08
-0.000250333
-7.23217e-08
-2.22609e-08
0.000143913
-0.000143849
3.01052e-08
4.85551e-08
8.66883e-08
-2.05452e-08
-1.36139e-07
-0.000229792
-0.000223903
1.01328e-07
0.000223985
-2.04649e-07
7.70083e-08
-0.000171669
1.72291e-08
-3.61904e-09
0.000171776
-1.165e-07
-0.000223879
6.83324e-08
-7.25258e-09
-0.000171597
0.000144005
2.63091e-08
-2.56094e-09
-7.63135e-08
0.000143827
-0.00014376
1.14157e-08
8.40013e-08
3.20819e-09
-1.27928e-07
-0.000229743
-0.000171632
4.40209e-09
0.000171742
-0.000223781
1.05234e-07
0.000223861
-2.08256e-07
2.16458e-08
-0.000171557
-1.14337e-07
-0.00022376
2.11054e-08
0.000143923
1.38778e-08
1.25689e-06
6.32556e-07
-9.00078e-07
-9.08405e-07
0.00117865
-0.00117873
-7.20978e-07
6.6995e-07
0.00114663
-4.72394e-07
-0.00114686
1.11298e-06
-5.58848e-07
9.39355e-07
-7.46986e-07
-1.07381e-06
-0.0011301
-4.85048e-07
0.00113001
-7.28955e-08
1.3975e-06
3.61501e-07
-7.83263e-07
1.03025e-06
-6.98276e-09
3.82795e-07
-6.62102e-07
1.15448e-06
-0.000269836
1.05312e-06
-1.48326e-07
-4.45666e-08
0.000267821
0.000279575
-1.18432e-07
5.17078e-08
-0.000279437
-1.20809e-07
4.90265e-08
-8.8615e-08
2.92423e-08
-6.28803e-08
0.000279673
2.40923e-08
-8.98785e-07
-1.16e-06
0.00113032
-5.31231e-07
1.28479e-06
-1.38596e-07
3.19505e-07
1.08059e-06
1.4215e-08
4.29357e-07
-6.29223e-07
-0.00113009
0.00114799
4.3401e-08
-0.00114842
-6.94827e-07
1.0139e-06
-5.10265e-07
1.18842e-06
2.08655e-07
-8.17992e-07
-1.15929e-06
-0.0011296
-5.35306e-07
0.00112987
1.28311e-06
-1.26036e-07
3.21826e-07
1.07439e-06
3.09707e-08
4.24831e-07
-6.30106e-07
-9.50674e-07
9.63534e-08
3.02031e-07
0.00114747
-8.56907e-07
1.18073e-06
-5.12041e-07
-6.96412e-07
1.00435e-06
1.05189e-06
1.08537e-06
-5.5215e-08
0.000267624
-5.46784e-08
-0.000269652
-4.45495e-09
-9.86198e-05
-3.62292e-08
9.86605e-05
-6.09232e-08
-0.000279268
-9.23472e-08
0.000279361
5.59389e-08
1.35005e-09
-9.86546e-05
-4.94842e-08
9.87027e-05
-0.000279968
2.21936e-08
-1.2804e-08
-1.45932e-08
-3.931e-08
0.000280013
-1.2134e-06
-1.3285e-06
-0.00026846
2.42513e-07
1.82148e-07
-0.00112945
-1.19543e-06
-4.08833e-07
0.00113009
-1.61275e-07
1.23913e-06
2.89121e-07
1.06222e-06
1.38195e-08
-6.42349e-07
4.20266e-07
-1.11155e-06
-0.00112834
-1.90875e-07
0.00112846
-1.3397e-07
1.2658e-06
2.98281e-07
-8.49725e-07
9.99337e-07
-4.36736e-08
-6.89582e-07
3.38369e-07
-1.26277e-06
-0.00113055
3.00491e-07
-1.2729e-06
1.95213e-07
-2.59331e-07
-7.60253e-07
2.52952e-07
-1.39647e-07
9.36726e-07
1.34948e-06
-1.05233e-06
-0.00112912
-6.49726e-07
-1.14154e-06
3.14887e-07
-1.40771e-07
-8.20677e-07
1.98343e-07
-1.97727e-07
8.7671e-07
1.07821e-06
-0.000269616
-1.22807e-07
-8.66057e-08
0.000267636
-9.91545e-05
-9.14738e-11
1.24191e-08
9.91422e-05
-1.29539e-06
-0.000268157
1.79669e-07
2.49501e-07
-4.90102e-08
6.35751e-08
-0.000250713
6.6864e-08
-2.12261e-08
0.000250653
7.26165e-08
-0.000250694
-4.10231e-08
-1.47253e-08
0.000250628
-3.33214e-07
-0.0011317
-8.40848e-07
-1.05753e-06
3.05003e-07
-1.14739e-07
-8.24867e-07
2.31164e-07
-1.75849e-07
8.8655e-07
-0.00113092
2.19003e-07
-1.14039e-06
-1.75322e-07
-8.49485e-07
1.76879e-07
-2.14537e-07
8.4935e-07
1.55297e-08
-7.00172e-08
-0.000230599
-9.35411e-09
2.5154e-08
0.000230638
-0.00112921
1.8861e-07
0.00112888
-1.82261e-07
1.21519e-06
2.47525e-07
-8.2119e-07
1.04533e-06
1.75413e-08
4.09418e-07
-6.36788e-07
-0.000230575
-8.08902e-08
2.83665e-08
2.838e-08
0.000230615
-8.09113e-07
-0.00112915
-4.20125e-07
-1.12761e-06
2.354e-07
-1.96318e-07
-7.98455e-07
-1.61587e-07
-0.0002701
1.09724e-06
-1.02846e-07
-6.83778e-08
0.0002681
-1.49372e-08
-9.88505e-05
1.52842e-09
9.88639e-05
-0.00114862
-1.06062e-06
3.11548e-08
5.11659e-07
0.00114825
1.1417e-06
-5.21604e-07
9.76213e-07
-7.15797e-07
-4.85616e-08
-0.000195078
-2.12153e-08
0.000195133
-0.000230445
-9.46529e-08
-2.75206e-08
4.09048e-08
4.32096e-08
0.000230483
-9.91118e-05
-2.22677e-08
6.49054e-10
9.91334e-05
8.4408e-07
-0.00118066
-1.14784e-06
-1.95695e-07
0.00118026
0.000246271
1.26798e-07
-0.000246143
-2.41221e-07
-1.3192e-07
6.4894e-07
2.08696e-08
0.000264041
1.18243e-07
-1.11235e-07
-0.000264718
6.7686e-08
-6.38474e-08
0.000246294
-1.15678e-07
-0.000246132
7.32281e-08
-1.12407e-07
0.000246157
-4.6688e-08
0.00112823
-3.32226e-07
-6.89818e-08
1.34881e-06
3.69174e-07
-7.05235e-07
-0.00112861
1.04388e-06
1.59729e-08
3.97319e-07
-6.35662e-07
1.26211e-06
-1.35082e-07
-0.00112939
2.82274e-07
-1.10803e-06
-1.48493e-07
-9.07747e-07
-6.09582e-07
4.34561e-07
1.07977e-06
3.36184e-08
-5.54324e-09
-1.89192e-07
7.65793e-08
2.16472e-08
-0.000230478
1.46857e-06
-3.81187e-07
-0.00113066
-9.84836e-07
4.04092e-07
-3.57425e-08
-8.25429e-07
-6.12624e-07
4.24614e-07
1.07892e-06
2.89588e-08
-1.3471e-06
7.79748e-08
4.49073e-07
-0.00114893
-6.53708e-07
1.04377e-06
1.20927e-06
-4.60308e-07
-0.000194663
-1.04255e-07
0.000194762
7.15543e-09
-1.96526e-07
-3.30946e-08
4.96699e-08
8.64619e-08
-0.000230351
-1.44067e-06
2.95524e-07
4.13383e-07
-0.000267842
-1.79152e-08
-4.44465e-08
-9.90494e-05
2.41314e-08
-2.33647e-07
0.000230234
1.18299e-07
-2.9108e-09
-0.00023014
2.36943e-09
-1.17185e-07
0.000194534
2.38642e-09
-0.000194421
1.6518e-08
-1.47385e-07
0.000194914
-2.30903e-09
-0.000194781
3.2802e-08
-1.83446e-07
0.000229999
1.15837e-07
-6.20224e-09
-0.000229958
-3.0706e-08
-2.08605e-08
9.84261e-05
-9.83745e-05
-3.25679e-08
-3.92406e-08
-9.8548e-05
6.07282e-09
-4.461e-08
0.00023074
-0.00023067
-2.86673e-08
-3.40856e-09
-0.00019522
3.42672e-08
-1.6992e-08
-3.29206e-08
0.000195235
-0.000230511
2.16958e-08
-5.09932e-08
0.000230553
6.25552e-10
-1.26031e-08
6.96561e-08
5.14663e-09
0.000195235
-6.52356e-08
-0.000195244
-9.91119e-05
-1.44394e-08
2.79956e-08
9.90983e-05
7.34844e-09
2.79518e-08
9.90146e-05
-9.90499e-05
2.43766e-08
-0.000230408
1.62559e-08
-1.81254e-08
0.00023045
-3.36972e-08
-3.19959e-08
-0.000195065
5.45631e-08
0.000195076
-7.15193e-08
7.03549e-08
0.000230627
-0.000230559
-7.05957e-08
3.22566e-09
-4.60542e-08
-4.44387e-08
0.000195096
-0.000195093
8.67489e-08
1.54832e-06
-0.00121014
9.07026e-08
4.96364e-07
0.0012096
-1.58775e-06
-0.00120855
4.62508e-07
3.63282e-07
0.00120756
-8.96161e-07
-2.41347e-07
7.34886e-07
0.00120525
-6.97003e-08
-0.0012064
-0.00117862
-1.56895e-07
-1.53779e-06
-0.00117566
-6.79498e-07
-1.10775e-06
0.00112759
-0.00112755
-7.49116e-08
1.37672e-06
3.53368e-07
-4.57923e-07
9.64012e-07
-5.7515e-08
3.22593e-07
-7.14854e-07
-4.13752e-08
-0.000250622
-1.36757e-08
5.43331e-08
0.000250553
2.52951e-08
3.98161e-08
-0.000246643
-2.70934e-08
-5.3445e-08
0.000246659
4.22035e-08
-1.74593e-08
0.000250871
-0.000250674
1.35826e-08
-2.35916e-07
-9.20706e-07
1.28505e-06
0.00112844
-6.58391e-07
-7.50952e-07
2.9278e-07
-9.24176e-08
9.35094e-07
-1.13706e-06
3.10371e-07
-1.11708e-07
-1.78469e-08
1.76662e-08
0.000246903
-0.000246792
5.15104e-09
-1.16008e-07
-7.47665e-07
0.00114659
-7.04028e-07
-7.90594e-07
8.97986e-07
-6.05883e-07
1.07544e-06
-9.8808e-05
-5.00407e-08
3.53276e-08
9.88227e-05
-4.80673e-08
3.05072e-08
9.88735e-05
-9.8856e-05
0.00114896
-0.00114924
-1.13756e-06
1.17722e-06
-5.11359e-07
9.92349e-07
-6.92193e-07
3.17267e-08
-0.000246545
-6.32496e-08
-3.06374e-08
0.000246558
4.04369e-08
9.7724e-08
-0.000250704
-4.52567e-08
-1.19049e-08
0.000250623
4.31005e-08
7.89592e-08
0.00025087
-0.000250704
-2.62697e-07
-2.60735e-08
-4.82872e-07
1.27597e-06
0.00113041
-7.32329e-07
-7.15729e-07
3.31567e-07
-5.77797e-08
9.74216e-07
-1.1553e-06
2.96617e-07
-1.32002e-07
9.561e-08
0.00114851
-8.31028e-07
-7.54842e-07
9.22843e-07
-5.76534e-07
1.10754e-06
3.54655e-08
3.35127e-08
0.000246787
-0.000246681
-1.58286e-08
-1.59213e-07
-7.15524e-08
-0.000280116
-3.57473e-08
1.37284e-08
0.000280188
-6.29334e-08
-3.93412e-08
-0.000280053
-5.20517e-08
8.3547e-08
0.000280124
-1.22453e-06
-1.30406e-06
0.000269833
-0.000267819
3.05588e-07
2.08894e-07
-7.32257e-08
-8.05178e-08
0.000280372
-0.000280306
9.6214e-08
-7.84916e-09
-1.77011e-08
1.94596e-08
0.000280314
-0.000280271
-2.99552e-08
-1.4205e-08
-5.95845e-08
9.85813e-05
-9.85194e-05
-5.11519e-08
9.87769e-05
-9.87093e-05
9.87878e-05
-2.01823e-08
-9.87159e-05
-3.19239e-08
-3.21756e-08
9.85791e-05
-9.8515e-05
0.000279174
-9.89459e-08
6.58739e-08
-1.17922e-07
-0.000279054
1.01756e-06
-1.1075e-07
0.000267935
-3.5246e-08
-0.000269967
0.000269897
-1.39698e-06
-1.34559e-06
3.44676e-07
-0.000267889
3.90387e-07
-4.74254e-08
-1.21436e-07
0.000279115
2.32823e-08
-0.000279029
0.000279489
-6.66282e-08
-1.63441e-07
4.75371e-08
-0.000279358
1.0148e-08
-3.46766e-08
9.88818e-05
-9.88573e-05
-1.58713e-08
-1.19943e-08
9.88048e-05
-2.87659e-09
9.88199e-05
-4.6584e-08
9.89117e-05
1.72068e-08
-9.88823e-05
9.82872e-07
-1.07989e-07
0.000267881
-1.79729e-08
-5.50915e-08
-0.000279872
-7.97023e-08
-7.96851e-09
-1.36663e-06
0.000269964
-1.39179e-06
-0.000267914
3.14859e-07
3.93389e-07
-4.66764e-08
0.000279857
-9.75835e-08
-0.000279764
6.06449e-08
-4.42435e-08
-9.98844e-08
3.72133e-08
0.00027958
-2.33276e-07
0.000230198
1.19065e-07
4.51758e-08
-0.000230104
-1.83118e-07
0.000229963
1.16547e-07
5.47153e-08
-0.000229918
-2.00898e-07
-1.04766e-06
3.47232e-07
-1.01336e-07
-6.23619e-07
4.31556e-07
2.93334e-08
1.0835e-06
-5.92183e-07
-0.00114891
0.0011486
-6.86504e-07
1.01546e-06
-5.05616e-07
1.1954e-06
-8.64452e-07
1.09429e-08
1.19749e-06
-5.03745e-07
1.01858e-06
-6.87616e-07
-0.00114962
-8.57813e-07
2.56436e-08
0.000250481
-3.95116e-07
2.43456e-09
-0.000250348
-1.24198e-07
0.000246002
-4.18693e-08
-0.000246
0.000246274
-2.82001e-07
-5.92884e-08
-0.000246147
5.38491e-08
-9.84441e-08
0.000250338
-1.58733e-08
-0.000250461
1.1835e-06
-5.16744e-07
1.00839e-06
-7.06485e-07
6.51437e-07
-0.00114927
-7.62989e-07
0.000250435
-3.95785e-07
5.72358e-08
-0.000250304
-9.14163e-08
0.000250295
8.46013e-08
-0.000250417
2.36746e-08
-1.43693e-07
7.53185e-08
-4.47608e-09
0.000230283
-8.513e-08
-0.000195148
-2.15543e-08
-8.20216e-08
-9.29841e-09
0.000194993
2.32167e-08
-1.50293e-07
-0.000230422
4.9772e-08
-1.17623e-08
-1.43818e-07
7.62345e-08
4.21543e-08
0.000230247
-8.4523e-08
2.91845e-08
0.000195333
-0.000195254
-2.39648e-08
-7.80867e-08
3.43029e-08
-4.86398e-08
0.000195076
-0.000194984
-1.48839e-07
0.00023047
-0.000230383
5.04153e-08
3.4505e-08
0.00114802
-8.4645e-07
1.19087e-06
-5.11049e-07
-6.93669e-07
1.00654e-06
-1.57943e-07
-1.06915e-06
3.18875e-07
-1.20747e-07
-6.32541e-07
4.15975e-07
2.01407e-08
1.06864e-06
-7.95769e-07
-2.87679e-08
0.00114793
-6.94658e-07
9.99367e-07
-5.16364e-07
1.1827e-06
-1.01452e-06
2.29613e-08
-7.95741e-08
6.22003e-09
0.000250388
0.000246586
-2.26799e-07
-0.000246459
-3.24421e-08
-1.0833e-07
-4.57988e-08
0.000246302
2.37773e-08
0.000250644
-3.39783e-07
-0.000250471
-6.92148e-09
0.00112796
1.35802e-06
-7.7513e-08
3.50162e-07
1.04796e-06
1.05512e-08
-6.47997e-07
3.98186e-07
-6.93285e-07
-0.00112832
-4.42374e-07
1.24643e-06
-6.61477e-07
3.74086e-07
-7.74932e-10
1.02578e-06
-1.16051e-06
3.08742e-07
-1.2289e-07
-9.45944e-07
0.00114703
-7.08112e-07
9.9455e-07
-5.19051e-07
1.16287e-06
-9.61547e-07
-7.93543e-08
4.97439e-08
0.000250344
7.95933e-08
0.000246515
-2.00913e-07
-0.000246397
-8.17924e-08
9.61255e-08
-9.8636e-08
-1.01963e-07
0.000246248
-0.000246222
0.000250589
-3.39359e-07
-0.000250419
4.40512e-08
-4.9867e-09
-9.90777e-05
-1.27446e-08
9.8994e-05
-9.8947e-05
-1.42329e-06
-0.000267607
2.95585e-07
3.64992e-07
3.31896e-08
0.000280213
-6.17839e-08
-0.000280104
-1.03148e-07
2.24834e-08
0.000280043
-8.16673e-08
-0.000279941
5.36463e-08
-8.72462e-08
6.6701e-08
0.000279739
-0.000279635
1.68322e-09
-9.9123e-05
0.000278968
-7.18501e-08
-0.00027889
4.68003e-08
-8.40198e-08
-8.32594e-08
-0.000279136
-1.50039e-07
6.84475e-08
7.47677e-08
0.000279377
-6.75443e-08
-0.000279224
-1.7863e-07
1.85709e-08
0.000270035
-1.37288e-06
-1.45117e-06
3.82002e-07
-0.000268011
4.17886e-07
-3.67582e-09
-9.85762e-05
3.61721e-09
-5.63069e-08
-9.87553e-05
-1.287e-06
-0.000268069
3.30398e-07
3.94284e-07
-4.32464e-08
-1.14401e-07
0.000279478
7.26128e-09
1.05232e-06
1.01564e-06
-3.55757e-08
0.00026804
-3.69133e-08
3.14127e-08
0.00027982
-5.75836e-08
-1.24193e-07
-0.000279702
3.21825e-08
0.000279672
-7.78203e-08
-0.000279564
-9.77056e-08
7.08806e-08
-1.73741e-08
-9.88017e-05
4.87345e-08
9.88673e-05
8.61832e-08
9.88192e-05
-9.88357e-05
9.89002e-05
-3.15678e-08
9.8857e-05
-9.88715e-05
9.54076e-07
-1.55559e-07
-2.54459e-08
0.000267995
-2.04517e-08
-2.55024e-08
4.93616e-08
0.000279903
0.000270213
-1.31617e-06
-1.37504e-06
-0.00026812
3.43074e-07
2.55856e-07
0.000280101
-4.03591e-08
8.03193e-08
-0.000280043
-1.23941e-08
0.000280074
3.47935e-08
-0.000280045
-7.13913e-08
-2.36359e-08
1.26414e-07
-9.5319e-08
-9.86805e-05
1.19032e-07
-6.83066e-08
9.87685e-05
-1.45762e-08
4.85563e-08
-9.87166e-05
-7.16125e-09
5.78942e-08
9.88063e-05
1.22999e-06
1.0074e-06
0.000268284
-9.51715e-08
-2.13796e-07
-5.85596e-08
1.0791e-07
-0.000280046
9.79353e-08
1.0998e-07
-8.73637e-09
-0.000280015
-9.36187e-08
-1.38776e-08
6.88041e-08
7.45858e-08
0.000280091
7.63594e-08
-9.35457e-08
2.70717e-08
0.000280057
-3.63453e-08
0.000230689
-0.000230621
-3.17129e-08
6.25021e-09
-1.34641e-08
-1.66076e-08
0.000195349
-4.77798e-08
0.00023051
3.52421e-10
2.93987e-08
-6.18601e-09
0.00019533
3.06214e-08
-0.000195347
0.00114779
-5.59604e-08
-1.15738e-06
1.17633e-06
-5.2626e-07
-7.01709e-07
9.93108e-07
3.91288e-08
0.000250969
-0.000250753
-3.06429e-08
-2.69426e-07
-4.62276e-08
-1.57024e-08
0.000246611
7.99064e-08
0.00112994
-1.0678e-06
-1.10896e-06
2.75369e-07
-1.54206e-07
-6.47459e-07
3.8811e-07
2.74852e-08
1.04447e-06
2.79577e-08
-1.5663e-08
0.000250592
-1.12203e-08
0.000246882
-4.21062e-09
-0.000246767
-1.45359e-07
5.03586e-08
0.00114834
-1.40913e-06
-7.13079e-07
9.81714e-07
-5.39516e-07
1.16612e-06
0.00114705
-1.12672e-06
1.14602e-06
-5.37951e-07
-7.24755e-07
9.78548e-07
0.000250909
-0.000250695
4.52808e-08
-2.55796e-07
4.12528e-08
-1.09349e-08
-6.1554e-08
0.000246533
-6.27108e-08
0.00112838
1.34617e-06
-7.25925e-07
-7.29881e-07
2.88915e-07
9.60641e-07
-9.00683e-08
-1.08092e-06
3.07157e-07
-1.38552e-07
-7.53e-09
0.000250536
4.10353e-08
0.000246766
8.17938e-09
-3.13744e-08
-0.00024666
-8.93137e-08
0.00114756
-1.30142e-06
-7.52311e-07
9.61517e-07
-5.56572e-07
1.12613e-06
-3.56994e-09
5.61617e-08
-7.72273e-08
5.94794e-09
0.000230759
9.70541e-08
-0.000195028
-1.27402e-07
8.10267e-08
-8.30136e-08
0.000195168
-5.35544e-08
5.69773e-08
-0.000230801
-8.51548e-08
5.48066e-08
6.55516e-08
-8.03297e-08
-7.19851e-09
0.000230707
6.63588e-08
-6.18775e-08
-0.000195039
1.04052e-07
6.97821e-08
-2.72668e-08
4.4493e-08
0.000195243
6.61162e-08
-0.000230751
-8.69144e-08
-6.11999e-08
4.29729e-08
-3.16521e-08
6.76152e-08
0.000250946
1.16189e-07
-1.29956e-06
1.24096e-06
-2.17853e-07
2.21749e-07
9.99972e-07
-6.48473e-08
3.2355e-07
-6.99903e-07
-6.66353e-09
-0.000246942
-2.28664e-08
-0.00114893
5.40666e-07
-1.66339e-06
-7.81076e-07
9.2933e-07
-5.93717e-07
1.09797e-06
5.34195e-09
6.44396e-08
0.000246879
2.86751e-07
-1.56242e-06
1.13876e-06
-5.57014e-07
-7.39264e-07
9.58249e-07
3.20002e-08
-0.000251146
-2.22881e-08
-1.72442e-07
4.402e-08
8.48703e-08
0.000250888
-4.11019e-07
-1.14967e-06
-9.12003e-07
9.2238e-07
-1.4211e-07
-7.74287e-07
2.45323e-07
1.32577e-06
-1.43183e-07
3.02331e-07
-7.79745e-08
1.72454e-08
-0.000246851
4.27986e-08
-0.0011482
-1.5308e-06
-8.17022e-07
9.02792e-07
-6.19541e-07
1.0656e-06
-3.18375e-08
-5.45995e-09
1.06217e-07
0.000246767
-1.42291e-06
1.09746e-06
-5.83565e-07
-7.8225e-07
9.31925e-07
-0.000251099
3.03184e-08
-1.55373e-07
-2.96678e-08
3.82955e-09
0.000280264
-3.4073e-09
2.74514e-08
0.000280089
0.00026981
-0.00026773
2.64911e-07
2.86051e-07
0.000280197
-1.29445e-08
-0.000280166
1.76231e-08
-3.86409e-08
0.00028039
-0.000280355
-8.40038e-10
-1.34794e-08
9.90421e-05
4.98748e-09
-9.90857e-05
2.49861e-08
-9.87565e-05
5.41861e-08
9.89331e-05
1.10386e-06
0.000267897
-1.74538e-07
-1.65879e-07
9.36482e-08
-0.000280113
-1.02619e-07
-5.30065e-08
9.48297e-08
0.000280178
-7.65448e-08
5.70509e-08
-1.65938e-08
6.30071e-08
0.000280363
1.05607e-08
9.8955e-05
-0.000246568
-5.23338e-08
-3.15178e-09
0.000246579
-7.65537e-07
0.00113001
-0.00113008
-8.83556e-11
1.48637e-06
4.21732e-07
9.82418e-07
-6.70652e-08
3.13685e-07
-7.09777e-07
0.00114949
-4.47062e-07
-0.00114934
-1.41785e-06
1.16841e-06
-5.13905e-07
1.0026e-06
-7.07059e-07
-7.01819e-09
0.000250972
-0.000250783
1.47515e-08
-2.68466e-07
-1.20802e-06
0.0011311
-8.50366e-07
-1.06535e-06
3.89127e-07
-5.55276e-08
-7.6079e-07
2.83671e-07
-1.45345e-07
9.48963e-07
0.000246782
-0.000246681
9.0651e-09
-1.19419e-07
-7.66799e-07
0.00114951
-1.25347e-06
-7.50819e-07
9.62527e-07
-5.55271e-07
1.1323e-06
-0.000230374
1.42227e-08
3.96488e-08
0.000230417
-1.86215e-08
-0.000194947
-6.7909e-08
0.000194983
-7.46265e-08
0.000230595
-0.00023053
5.33716e-09
7.41378e-08
-1.93661e-08
0.000195086
-0.000195053
-6.20869e-08
5.05684e-08
0.00114953
-0.00114957
1.21235e-06
-4.8745e-07
1.03473e-06
-6.7085e-07
0.00113096
-0.00113095
-1.25478e-07
1.28557e-06
3.07593e-07
-1.16856e-06
1.06265e-06
9.057e-09
3.95468e-07
-6.36519e-07
5.87034e-08
-0.000246437
-4.52588e-08
-4.29383e-08
0.000246448
0.00025094
-0.000250758
-2.81563e-07
1.78915e-08
3.23484e-07
0.00113051
1.32521e-06
-8.22383e-07
-6.92964e-07
3.27306e-07
1.00082e-06
-5.43684e-08
-1.09642e-06
2.94926e-07
-1.53307e-07
0.00114963
-1.44736e-06
-7.14722e-07
9.87022e-07
-5.26659e-07
1.1597e-06
0.000246663
6.94139e-08
-0.000246561
-6.43364e-08
-1.26343e-07
2.72695e-08
8.33055e-08
-8.56181e-08
-4.0507e-08
0.000230643
5.55052e-09
-0.000194955
8.29185e-08
1.85713e-08
8.81865e-08
0.000195048
1.69342e-08
1.03025e-07
-0.000230692
-1.11377e-07
-4.47483e-08
1.63511e-08
-7.80354e-09
7.49526e-08
0.000250916
-1.031e-06
-5.12096e-07
1.37969e-06
-5.89215e-08
3.67923e-07
9.19395e-07
-1.39039e-07
2.62519e-07
-7.85092e-07
-6.64062e-08
-0.000246821
1.10703e-07
-0.00114968
-6.37274e-07
-8.52963e-07
-8.49214e-07
8.54021e-07
-6.66225e-07
1.04052e-06
4.6351e-08
6.41126e-08
0.000246767
-7.00852e-07
-1.10599e-06
1.09111e-06
-6.04548e-07
-7.90201e-07
9.13239e-07
7.93627e-08
-0.000251045
-8.31025e-08
-1.57663e-07
2.91962e-08
-4.22753e-08
8.16792e-08
0.00023061
3.8732e-08
-0.00019501
-1.68461e-08
5.1665e-08
3.17369e-08
-5.83576e-08
0.000195061
2.25656e-08
-0.000230657
-4.15437e-08
8.7773e-08
6.66516e-08
3.35861e-08
0.000250886
7.59442e-08
-1.21542e-06
-8.44259e-07
9.26311e-07
-1.29556e-07
-7.67076e-07
2.54838e-07
1.2176e-06
-1.86318e-07
2.58791e-07
-0.00114956
-9.30506e-07
-8.59533e-07
8.52945e-07
-6.60562e-07
1.01892e-06
-3.61754e-09
-0.000246712
-6.27475e-08
-1.20974e-06
1.09583e-06
-5.88003e-07
-7.83412e-07
9.27046e-07
4.49683e-08
-5.69059e-08
7.54863e-08
0.000246651
-0.000251006
-1.54192e-07
8.50479e-08
-0.000195472
1.84615e-08
0.000195506
4.86988e-08
0.000230822
-0.000230753
-5.01574e-08
-2.55924e-08
0.000195525
-0.000195534
3.11527e-08
0.00114672
-0.00114702
-8.66242e-07
1.15053e-06
-5.32679e-07
9.6892e-07
-7.0725e-07
-0.000250613
-3.40395e-08
-2.11965e-08
0.000250546
3.86198e-08
-0.000246602
-7.67288e-08
-4.52967e-08
0.000246622
4.84899e-08
0.000250852
-0.000250663
-2.50711e-07
-4.9247e-09
5.97664e-07
0.00112816
-5.88136e-07
-1.16787e-06
2.06416e-07
-2.06173e-07
-6.78518e-07
3.38629e-07
4.19046e-09
9.88742e-07
0.00114674
-8.71506e-07
-7.52195e-07
9.22941e-07
-5.76961e-07
1.10282e-06
6.41992e-09
0.00024687
-0.000246763
-5.14618e-08
-1.34702e-07
5.65772e-08
-0.000195407
-7.44871e-08
0.000195463
0.000230796
-0.000230729
-2.23057e-08
5.15927e-08
0.00019556
7.55033e-08
-0.000195542
-8.61271e-08
-6.58775e-08
4.78785e-10
-4.0665e-09
1.05208e-07
0.000250835
-7.12296e-07
-5.89085e-07
1.28417e-06
-1.46315e-07
2.75695e-07
9.14429e-07
-1.27935e-07
-7.77533e-07
2.63178e-07
-0.00114695
-6.94928e-07
-1.04341e-06
-8.41134e-07
-6.62676e-07
-5.88861e-08
3.98081e-08
7.57248e-08
0.000246904
-7.06202e-07
-8.21073e-07
1.04882e-06
-6.38947e-07
-8.23119e-07
8.64987e-07
5.99351e-08
-6.2768e-08
-7.65353e-08
0.000230836
2.70188e-08
0.00019545
-6.21461e-08
9.50055e-08
5.70777e-09
0.000250814
3.65046e-07
-1.32891e-06
-9.23449e-07
9.17043e-07
-1.20602e-07
-7.57265e-07
2.3079e-07
1.07281e-06
-2.90707e-07
1.35292e-07
-0.00114679
-1.02591e-06
-8.56865e-07
-6.6451e-07
-8.92481e-07
1.0527e-06
-6.19713e-07
-8.08729e-07
8.78618e-07
-7.59381e-08
4.15688e-08
-3.70675e-08
7.90534e-08
0.000246862
-7.33149e-08
5.89344e-08
0.000230809
6.76214e-08
-9.12329e-08
0.000195507
-5.77041e-08
1.79653e-08
0.000279893
-2.42538e-08
5.53243e-08
0.000279735
0.000270187
-0.00026814
2.68929e-07
2.85757e-07
0.000279927
-0.000279861
4.25563e-08
-8.63346e-09
-3.69702e-08
0.000280098
-0.000280028
5.10277e-08
-4.87708e-08
9.88903e-05
-4.32791e-08
-9.8884e-05
5.37007e-08
9.88516e-05
1.1301e-06
0.000268193
-1.74617e-07
-1.77108e-07
1.79309e-08
6.39875e-08
0.000279944
-7.30206e-08
-7.40429e-09
4.62248e-08
2.83535e-08
0.000280104
-4.38062e-08
9.88611e-05
0.00112858
-0.00112874
-4.39103e-08
1.40178e-06
3.80857e-07
-5.03377e-07
9.61263e-07
-6.75512e-08
3.01147e-07
-7.13375e-07
-0.000250657
-3.96659e-08
7.23191e-08
0.00025057
4.63772e-08
-0.000246548
-2.96393e-08
-1.02488e-07
0.000246563
7.14008e-08
0.000250816
-0.000250654
-2.46077e-07
5.60025e-08
-7.07794e-07
0.00112904
-3.32033e-07
-1.12259e-06
3.39662e-07
-1.03165e-07
-7.94755e-07
2.41249e-07
-1.74269e-07
8.93376e-07
0.00114775
-6.83374e-07
-7.96022e-07
9.01124e-07
-5.97471e-07
1.06535e-06
4.41932e-08
0.000246743
-0.000246649
-4.96928e-08
-1.06244e-07
-0.000230477
-1.22534e-08
4.17728e-08
0.000230518
2.87449e-09
0.000230695
-0.000230628
1.9648e-09
6.46036e-09
0.000195272
-0.000195231
-5.06295e-08
-0.000195251
-9.39406e-09
0.000195307
0.000230654
-0.000230589
3.98471e-09
5.34132e-09
0.000195418
-2.50449e-08