/*--------------------------------*- C++ -*----------------------------------*\
| =========                 |                                                 |
| \\      /  F ield         | OpenFOAM: The Open Source CFD Toolbox           |
|  \\    /   O peration     | Version:  v2006                                 |
|   \\  /    A nd           | Website:  www.openfoam.com                      |
|    \\/     M anipulation  |                                                 |
\*---------------------------------------------------------------------------*/
FoamFile
{
    version     2.0;
    format      ascii;
    class       volVectorField;
    location    "750";
    object      U;
}
// * * * * * * * * * * * * * * * * * * * * * * * * * * * * * * * * * * * * * //

dimensions      [0 1 -1 0 0 0 0];


internalField   nonuniform List<vector> 
14361
(
(4.33591e-05 1.90594e-05 0.107363)
(5.78216e-05 2.7188e-05 0.109544)
(5.90211e-06 -5.48176e-05 0.0935388)
(8.8013e-06 -4.68605e-05 0.0988762)
(-7.74538e-06 -5.06357e-05 0.0881307)
(-3.44959e-05 -3.15812e-05 0.0720654)
(-3.35605e-05 -4.44847e-05 0.0828595)
(-2.42804e-05 -5.64979e-05 0.091945)
(2.57153e-05 -2.0746e-05 0.0922299)
(5.53786e-06 -2.29115e-05 0.0821055)
(-3.78101e-06 -2.29024e-05 0.0821145)
(4.16823e-05 -2.02739e-05 0.0921959)
(1.17807e-05 -3.06041e-05 0.092259)
(2.50388e-05 -3.95682e-05 0.0967123)
(-1.64958e-05 -4.48551e-05 0.0821958)
(-1.63276e-05 -4.83491e-05 0.0881507)
(1.55815e-05 -2.78666e-05 0.0967643)
(1.86199e-05 -3.65641e-05 0.0922244)
(-2.22031e-05 -4.28842e-05 0.0821972)
(-9.61932e-06 -3.66171e-05 0.0841673)
(-1.20371e-05 -2.81606e-05 0.0687607)
(-2.36315e-05 -3.18581e-05 0.0687801)
(-1.64663e-05 -2.7132e-05 0.0687665)
(-1.83375e-07 -3.56505e-05 0.0841529)
(-2.96228e-05 -2.96441e-05 0.0687808)
(-3.9929e-05 -2.74442e-05 0.0720635)
(-4.05717e-05 -1.62677e-05 0.0688948)
(-2.64253e-05 -4.78116e-05 0.0863957)
(-3.85599e-05 -3.66219e-05 0.0828623)
(-3.06964e-05 -4.01767e-05 0.0864169)
(-4.08458e-05 -2.15812e-05 0.0688941)
(-4.30792e-05 -2.6334e-05 0.0774295)
(-3.13379e-05 -4.89624e-05 0.091971)
(-2.37817e-05 -5.4813e-05 0.0904749)
(-3.69541e-05 -3.00494e-05 0.0792325)
(-3.0931e-05 -4.74814e-05 0.0905021)
(-4.15558e-05 -3.13369e-05 0.0774461)
(-3.83896e-05 -2.61392e-05 0.0792091)
(3.60175e-05 -3.38915e-06 0.0980028)
(7.31598e-05 -1.61375e-05 0.101681)
(1.23763e-05 2.31578e-06 0.101754)
(5.07958e-05 -1.78299e-05 0.0979429)
(3.25199e-05 1.91958e-05 0.101661)
(2.83153e-05 -5.98112e-05 0.099849)
(7.9878e-06 -5.27463e-05 0.0960603)
(-2.29447e-06 -4.50727e-05 0.0935855)
(3.07644e-05 -5.72891e-05 0.101552)
(2.56719e-05 1.19851e-05 0.0999173)
(4.42028e-06 -3.95624e-05 0.0961309)
(3.64238e-05 2.3357e-05 0.10313)
(4.5054e-06 -3.40372e-05 0.098948)
(3.45619e-05 -4.88846e-05 0.103611)
(8.33528e-06 -4.72954e-05 0.0979563)
(3.29997e-05 -4.89787e-05 0.10301)
(3.69291e-05 2.18499e-05 0.103714)
(4.81554e-06 -3.46363e-05 0.098032)
(4.29431e-05 -3.34474e-05 0.107213)
(-1.13999e-05 4.55212e-05 0.104376)
(1.10385e-05 2.86628e-05 0.107346)
(5.69728e-05 -1.16937e-05 0.107214)
(4.69342e-05 -6.93407e-07 0.10427)
(-4.60501e-05 1.81053e-05 0.111964)
(8.88198e-05 -2.70575e-05 0.111717)
(-4.49295e-05 2.15714e-05 0.0882146)
(-2.78909e-05 -1.31855e-05 0.0720806)
(-3.79108e-05 4.17032e-05 0.0936391)
(-2.06362e-05 2.35945e-05 0.098954)
(-3.35017e-05 1.19897e-06 0.0829294)
(-5.42214e-05 3.45238e-05 0.0920248)
(-5.47454e-05 1.55349e-05 0.0936352)
(-2.34369e-05 1.98707e-05 0.0989487)
(-2.94859e-05 2.32473e-05 0.0829981)
(-5.64868e-05 3.06588e-05 0.0920262)
(-1.90793e-06 -6.65865e-07 0.0721616)
(2.26096e-05 5.56667e-07 0.0881659)
(-1.43462e-05 -3.72828e-05 0.0881721)
(-3.60627e-05 -2.36213e-05 0.0721373)
(3.01933e-05 3.93996e-05 0.109541)
(-2.70767e-07 -2.24389e-05 0.0935781)
(1.20361e-05 -1.11961e-05 0.0988968)
(5.94358e-05 2.24712e-05 0.109478)
(-3.14357e-05 -2.6813e-05 0.093591)
(7.88096e-06 -1.66617e-05 0.0988897)
(-3.18145e-05 -2.63657e-05 0.0829257)
(-1.77167e-05 -3.5802e-05 0.091972)
(-3.19559e-05 -1.86114e-06 0.0829712)
(-2.30007e-05 -3.72871e-05 0.0919697)
(-6.59969e-05 9.86318e-06 0.0882504)
(-4.00624e-05 -2.59813e-05 0.0882504)
(-2.30296e-05 3.05829e-05 0.0722319)
(-2.49735e-05 8.92206e-07 0.0722522)
(-1.97597e-05 2.41859e-05 0.0967907)
(-4.45153e-05 2.67961e-06 0.0822484)
(-3.02035e-05 3.54731e-05 0.0923218)
(-2.64468e-05 -6.44452e-06 0.06873)
(-3.21984e-05 -1.71711e-05 0.0687577)
(-3.24393e-05 8.12974e-06 0.08421)
(-3.79131e-05 2.21357e-05 0.0864862)
(-1.71071e-05 -6.39145e-06 0.0689375)
(-4.51843e-05 3.67506e-05 0.0905607)
(-3.2001e-05 7.06831e-06 0.0792872)
(-2.93671e-05 6.04732e-06 0.0774903)
(-4.78552e-05 1.40391e-05 0.0865351)
(-1.18725e-05 1.61653e-05 0.0690503)
(-2.96875e-05 6.4223e-06 0.0792899)
(-5.69724e-05 3.09323e-05 0.0905689)
(-2.33069e-05 1.38875e-05 0.0775094)
(2.66423e-05 2.21124e-05 0.0967285)
(1.56207e-06 -1.43209e-05 0.082154)
(2.49593e-05 -5.2869e-06 0.0922185)
(8.19441e-06 -6.15818e-06 0.0967329)
(-1.89627e-05 -3.27793e-05 0.0822497)
(9.56524e-06 -1.14502e-05 0.0922473)
(-1.34112e-05 -2.05099e-05 0.068817)
(-2.48104e-05 -2.6996e-05 0.0688412)
(-7.62883e-07 -2.4756e-05 0.0841869)
(-3.61164e-05 -1.82231e-05 0.0689746)
(-2.60574e-05 -3.30888e-05 0.0829079)
(-2.33044e-05 -3.28083e-05 0.0864526)
(-1.95178e-05 -3.88902e-05 0.0864222)
(-3.72431e-05 -1.45301e-05 0.068985)
(-3.47768e-05 -2.47677e-05 0.0775249)
(-1.19839e-05 -3.87529e-05 0.0919383)
(-1.77373e-05 -3.45739e-05 0.0905122)
(-3.43078e-05 -1.98998e-05 0.0793004)
(-1.26236e-05 -3.83447e-05 0.0904763)
(-3.14626e-05 -2.23649e-05 0.0793103)
(-3.71038e-05 -2.1732e-05 0.0775218)
(-2.5088e-05 -3.78949e-06 0.0690995)
(-2.95993e-05 -8.90628e-06 0.0829689)
(-3.88096e-05 -2.40777e-05 0.086525)
(-3.25645e-05 -3.19376e-05 0.0865034)
(-2.94474e-05 -1.36934e-07 0.0690839)
(-3.16788e-05 -1.39284e-05 0.0775175)
(-1.60026e-05 -4.04961e-05 0.0919357)
(-3.05547e-05 -3.18951e-05 0.0905186)
(-3.47024e-05 -1.85219e-05 0.0792966)
(-2.17593e-05 -3.73648e-05 0.0904847)
(-3.0904e-05 -2.0629e-05 0.0793074)
(-3.80236e-05 -1.10313e-05 0.0775064)
(-4.71252e-05 8.78298e-06 0.0967472)
(-3.86146e-05 1.15725e-05 0.082324)
(-5.79277e-05 -1.34806e-06 0.0922974)
(-3.81959e-05 -2.13298e-05 0.0922383)
(-1.72094e-05 -1.35006e-05 0.0967198)
(-3.87751e-05 -2.89792e-05 0.0882309)
(-2.68241e-05 -4.66499e-07 0.0823161)
(-4.24804e-05 -1.10434e-05 0.0922802)
(-1.86672e-05 -2.83699e-05 0.0966622)
(-2.64184e-05 -1.30914e-06 0.0823188)
(-2.18624e-05 1.85673e-05 0.0689021)
(-1.65982e-05 -4.15578e-07 0.0689029)
(-5.61209e-05 -4.88726e-06 0.0842541)
(-2.58428e-05 -1.90388e-06 0.0722755)
(2.03357e-05 4.70054e-05 0.101722)
(-8.18269e-06 1.29996e-05 0.101716)
(2.30283e-05 8.7253e-06 0.0979673)
(-3.04058e-05 -3.0532e-05 0.0978892)
(-9.86066e-06 -6.28142e-05 0.104162)
(-7.48758e-06 7.29074e-06 0.10166)
(3.25155e-05 -1.84134e-05 0.10165)
(-2.33646e-05 -1.33339e-05 0.0979597)
(-1.75934e-05 -5.69965e-05 0.101579)
(-2.33647e-05 -3.66834e-05 0.101574)
(-1.11201e-05 3.44728e-05 0.114194)
(5.49641e-05 1.78929e-05 0.114071)
(2.94339e-05 1.82288e-05 0.0999117)
(-3.24033e-05 3.66386e-05 0.0961636)
(4.04116e-05 1.05225e-05 0.101641)
(-1.85018e-05 2.88762e-05 0.0980467)
(4.89559e-05 -5.67478e-06 0.10368)
(5.24218e-05 -5.66812e-07 0.103094)
(8.05209e-06 6.8438e-07 0.0998698)
(-4.58965e-05 1.64965e-05 0.0961484)
(2.2811e-05 -3.64958e-06 0.101605)
(4.69051e-05 -9.39356e-06 0.103671)
(-2.97878e-05 2.20753e-05 0.0980319)
(3.97812e-05 -5.54286e-06 0.103073)
(1.85914e-05 -3.63161e-05 0.101514)
(1.66453e-05 3.57729e-05 0.0998801)
(4.75411e-06 -3.028e-05 0.0935254)
(6.2703e-06 -1.72336e-05 0.0960998)
(2.23038e-05 3.91122e-05 0.101617)
(1.76231e-05 -3.5229e-05 0.0998146)
(6.65445e-06 -2.91774e-05 0.0960279)
(2.29764e-05 -2.60882e-05 0.10297)
(1.34804e-05 -2.18091e-05 0.098829)
(3.23877e-05 4.00878e-05 0.103662)
(9.99547e-06 -1.04921e-05 0.097988)
(2.8549e-05 4.38707e-05 0.103081)
(2.79654e-05 -2.70184e-05 0.103569)
(1.05369e-05 -2.1735e-05 0.0979143)
(1.93269e-05 -5.75276e-05 0.101458)
(-8.50613e-07 1.54716e-05 0.099831)
(-2.50483e-05 -3.65242e-05 0.0935389)
(-1.40808e-05 -2.68049e-05 0.0960951)
(-5.43972e-06 -3.95388e-05 0.0960201)
(7.68459e-07 -5.51156e-05 0.0997613)
(1.63821e-05 1.64856e-05 0.101565)
(3.09867e-05 -3.96441e-05 0.102926)
(1.16575e-05 -2.7398e-05 0.0988204)
(3.27923e-05 3.18887e-05 0.103646)
(8.76126e-07 -1.66451e-05 0.0979732)
(3.17447e-05 -3.44877e-05 0.103552)
(7.59709e-06 -2.91888e-05 0.0978959)
(2.93127e-05 3.00503e-05 0.103039)
(-6.0777e-05 -1.47377e-05 0.0916047)
(-9.02346e-05 -4.67088e-06 0.0986703)
(-6.03789e-05 -5.71171e-06 0.0916007)
(-8.79001e-05 8.99215e-06 0.098669)
(-1.7549e-05 -1.53883e-05 0.0771377)
(-4.57916e-05 -1.21542e-05 0.0915583)
(-5.22248e-05 -2.9055e-05 0.0901462)
(-2.91187e-05 -2.1989e-06 0.078966)
(-3.78326e-05 -2.61701e-05 0.0900924)
(-2.06803e-05 -4.14172e-06 0.0788983)
(-2.63049e-05 -1.23457e-05 0.0772107)
(-1.73038e-05 2.83372e-06 0.0771282)
(-4.49611e-05 -3.37533e-06 0.0915534)
(-2.7948e-05 -7.45907e-07 0.078966)
(-5.64436e-05 3.52558e-06 0.0901348)
(-1.98348e-05 -1.85851e-06 0.0788961)
(-4.07683e-05 4.98015e-06 0.0900815)
(-2.46482e-05 3.12434e-06 0.0772033)
(-8.32691e-05 -0.000106726 0.111971)
(7.33629e-05 -5.9439e-05 0.109376)
(-6.08545e-05 7.38073e-05 0.10735)
(3.92343e-05 -1.14859e-05 0.104117)
(-2.61491e-05 -3.25249e-05 0.0879779)
(-1.6011e-05 -2.02614e-05 0.0879825)
(-4.25991e-05 -8.46056e-05 0.107312)
(1.91118e-05 -8.75772e-05 0.109527)
(-3.98339e-05 -8.3835e-05 0.107255)
(1.30888e-05 -8.8478e-05 0.109472)
(2.76659e-05 -2.7024e-05 0.104036)
(2.61452e-06 1.7309e-05 0.0720043)
(-2.01896e-05 2.45053e-05 0.0879207)
(1.15326e-06 7.80037e-06 0.0720238)
(-3.94572e-06 5.1636e-06 0.0881)
(-1.91132e-05 -6.39028e-05 0.104465)
(-2.58249e-05 -9.66777e-05 0.107264)
(2.74173e-05 -7.07619e-05 0.107117)
(1.36437e-05 -7.92829e-05 0.107432)
(6.23214e-05 -4.67895e-05 0.107294)
(9.35757e-07 -2.18652e-05 0.104035)
(-2.019e-07 3.81781e-06 0.0723676)
(5.87583e-05 -2.83855e-05 0.104348)
(-4.25355e-05 -2.30265e-05 0.0987265)
(-4.7979e-05 -1.39109e-05 0.0987298)
(-2.72982e-05 -7.61286e-05 0.107441)
(-2.04003e-05 1.65018e-05 0.10739)
(1.61299e-05 4.05742e-06 0.091885)
(8.20204e-05 -3.32464e-06 0.107187)
(1.82683e-05 7.5463e-06 0.0918905)
(5.44129e-05 -4.00744e-05 0.107256)
(-2.85239e-05 8.2931e-06 0.104215)
(-7.89819e-06 -3.84876e-06 0.072155)
(2.48011e-05 9.05802e-05 0.109546)
(-5.50939e-06 3.71939e-06 0.0828555)
(1.21498e-05 2.5168e-05 0.0918377)
(-1.78946e-06 8.03391e-06 0.0723555)
(-0.000103686 -5.36682e-05 0.112139)
(-6.19724e-05 -5.10156e-05 0.0933224)
(-3.4202e-05 4.70197e-05 0.101374)
(-3.73475e-05 -4.13206e-05 0.0933087)
(-5.11531e-05 2.15639e-05 0.0932914)
(7.06763e-05 -4.67253e-05 0.107142)
(9.12027e-05 1.92253e-05 0.107213)
(4.29363e-05 4.11094e-06 0.0918909)
(-6.82762e-05 9.09623e-05 0.107356)
(1.90401e-05 0.000112649 0.109582)
(1.42375e-06 2.03706e-05 0.0826877)
(1.4708e-05 4.73777e-05 0.0918398)
(0.000109867 6.4212e-05 0.104207)
(5.81642e-06 1.45188e-05 0.072363)
(5.3585e-06 -6.18303e-05 0.0917404)
(9.76919e-07 -2.35643e-05 0.0825823)
(-3.02748e-06 -3.00354e-05 0.0827781)
(7.99533e-06 -6.16434e-05 0.0916275)
(-2.87124e-06 9.98442e-06 0.0718253)
(-4.54384e-06 1.89858e-05 0.0720017)
(3.04732e-06 1.14206e-05 0.0919467)
(-1.09162e-05 6.73532e-06 0.0829031)
(7.06711e-06 -5.72847e-06 0.0918495)
(-2.47984e-05 1.29687e-05 0.0829434)
(8.54448e-06 3.01274e-06 0.0723426)
(3.67703e-07 2.36169e-07 0.07233)
(-1.32478e-05 8.13008e-06 0.0918085)
(-1.22183e-05 1.64928e-05 0.0828403)
(-4.29927e-06 2.78314e-05 0.091904)
(-1.48121e-05 2.30807e-05 0.0828885)
(-0.000161212 1.91911e-05 0.114506)
(-4.28437e-06 0.000106229 0.11436)
(6.3739e-05 -4.93137e-05 0.114139)
(-3.24195e-05 -0.000148954 0.111969)
(8.38017e-05 -0.000112432 0.111725)
(4.7904e-05 -6.36296e-05 0.107105)
(4.52054e-05 -1.9395e-05 0.0986904)
(2.31355e-05 -1.50429e-05 0.0934515)
(2.99868e-05 -6.48277e-06 0.0988059)
(4.39482e-05 -6.40784e-05 0.107124)
(1.02227e-05 5.45416e-06 0.0935671)
(6.7762e-05 -7.22577e-05 0.109367)
(7.44484e-06 2.244e-05 0.0721332)
(2.44484e-06 2.07227e-05 0.0722082)
(-3.257e-05 9.90471e-05 0.109606)
(-1.16962e-05 3.44468e-05 0.0934133)
(1.02895e-05 5.43958e-05 0.098719)
(1.40233e-05 4.09276e-05 0.0988128)
(-4.39924e-05 5.62688e-05 0.107344)
(-1.81061e-05 7.74704e-05 0.109577)
(-8.69257e-06 2.56557e-05 0.0935255)
(1.44284e-05 7.30175e-06 0.0881622)
(-1.95186e-06 2.43033e-05 0.0881644)
(8.41587e-05 2.10723e-05 0.104203)
(-2.88634e-05 2.49551e-05 0.0882561)
(-3.34075e-06 -4.34582e-06 0.0882585)
(-1.27602e-06 -9.58841e-06 0.0719279)
(-9.30126e-06 -9.26802e-06 0.0721071)
(-1.4486e-05 -8.07466e-06 0.0721125)
(-7.30213e-06 -1.24798e-05 0.0719254)
(-2.51494e-05 -3.51233e-05 0.0878242)
(-1.31157e-05 -2.6068e-05 0.104143)
(-7.96793e-05 -0.000102015 0.104222)
(-1.94105e-05 -3.94737e-05 0.0878325)
(-2.43819e-05 -3.37245e-05 0.0879794)
(-2.01874e-05 4.29631e-06 0.0721993)
(-7.5896e-06 -6.23986e-07 0.0721057)
(-8.97543e-06 -8.16247e-07 0.0721135)
(-1.37785e-05 7.57662e-06 0.0722186)
(-1.19183e-05 -3.9081e-05 0.104123)
(-1.41378e-05 -8.80119e-06 0.0881092)
(-6.7806e-05 -0.000111468 0.104236)
(-1.84965e-05 -6.63531e-06 0.0881013)
(-1.60673e-05 -2.02449e-05 0.0879831)
(1.28332e-05 -6.20709e-05 0.0917411)
(1.66979e-05 -6.16167e-05 0.0916282)
(-4.27089e-05 -8.28331e-05 0.107278)
(-2.44133e-05 -9.25916e-05 0.109572)
(-2.00223e-05 -9.67438e-05 0.109625)
(4.31106e-06 -9.95419e-05 0.0986649)
(-1.90834e-05 -6.63624e-05 0.0932123)
(-2.48284e-05 -7.66578e-05 0.0933364)
(1.36131e-05 -8.31123e-05 0.0986158)
(2.18947e-05 -8.82818e-05 0.10959)
(1.59854e-05 -9.88878e-05 0.0986572)
(2.66048e-05 -8.12897e-05 0.0986086)
(5.45107e-06 -4.23482e-05 0.0917403)
(-9.76954e-06 -1.22195e-05 0.0829217)
(-2.32082e-06 -1.41776e-05 0.082787)
(6.97715e-06 -2.84898e-05 0.0918523)
(1.21895e-05 -4.25752e-05 0.0917409)
(7.95811e-06 -1.873e-05 0.0829919)
(1.33909e-05 -1.53823e-05 0.0828411)
(1.01906e-05 -2.82204e-05 0.0918514)
(-2.78766e-05 -9.1058e-05 0.109528)
(-3.44337e-05 -8.96992e-05 0.107247)
(-2.72727e-05 -9.55466e-05 0.109495)
(2.98264e-06 -7.12007e-05 0.0986303)
(-1.46472e-05 -4.85453e-05 0.0934563)
(-1.70545e-05 -5.0645e-05 0.0933245)
(5.5923e-06 -7.14628e-05 0.0987215)
(4.1003e-05 -7.13611e-05 0.107144)
(3.1135e-05 -7.24662e-05 0.107118)
(8.67192e-06 -9.21824e-05 0.109433)
(1.3752e-05 -7.09463e-05 0.0986221)
(3.24612e-05 -4.25992e-05 0.093452)
(3.86472e-05 -4.73902e-05 0.093326)
(1.22397e-05 -7.06054e-05 0.0987105)
(1.43588e-05 -3.95454e-06 0.0723752)
(1.42278e-05 -2.86993e-06 0.0722435)
(7.0128e-05 -8.95775e-05 0.104112)
(1.54545e-05 -1.50277e-05 0.0881846)
(2.16609e-05 -3.13272e-06 0.0881708)
(2.96583e-05 -1.75807e-05 0.0880402)
(9.32001e-06 -8.14234e-08 0.0723969)
(-2.95216e-05 2.63438e-05 0.0877783)
(-3.20912e-05 3.21382e-05 0.0879182)
(-2.09436e-05 4.2778e-05 0.0879152)
(-9.69461e-05 0.000112513 0.10428)
(-1.44735e-06 1.53189e-05 0.0720142)
(9.68754e-07 2.57082e-05 0.0721472)
(-0.000102994 8.48613e-05 0.104302)
(-1.40998e-05 3.19734e-05 0.0879217)
(-3.4055e-05 3.87319e-05 0.104185)
(-1.97736e-05 2.41197e-05 0.0880608)
(-9.291e-06 2.89386e-05 0.0880497)
(-8.82541e-06 5.3709e-06 0.072169)
(-2.01818e-05 1.38671e-05 0.0721664)
(-3.47767e-05 1.92876e-05 0.0721653)
(-7.22404e-06 1.48809e-05 0.0721885)
(-9.20291e-06 1.8362e-05 0.0721975)
(4.54798e-06 -4.42655e-05 0.104161)
(-1.01248e-05 8.53674e-06 0.0880917)
(-4.23567e-05 -0.000103329 0.104326)
(-1.66518e-05 2.55178e-05 0.0881636)
(-2.83074e-06 1.794e-05 0.0881746)
(-4.1961e-05 2.49024e-05 0.0720422)
(-3.37546e-05 2.80713e-05 0.0721035)
(-1.9829e-06 1.8961e-05 0.0720769)
(-1.47632e-06 2.34754e-05 0.0721377)
(3.24181e-05 -2.67406e-05 0.104267)
(-2.42243e-05 4.93275e-05 0.0881486)
(2.42631e-06 3.48576e-05 0.0881601)
(-1.05438e-05 4.01316e-05 0.088135)
(6.46826e-06 3.10299e-05 0.0881461)
(1.63583e-06 1.35604e-05 0.0919425)
(2.76473e-06 -1.92954e-06 0.0829737)
(9.00932e-06 -5.0711e-06 0.0918479)
(-8.51922e-06 -3.99534e-06 0.083012)
(-1.95803e-05 -0.000104523 0.109489)
(1.44707e-05 -3.46697e-05 0.0988413)
(-5.60437e-06 -2.01274e-05 0.0934423)
(-1.34259e-05 -9.97297e-05 0.107302)
(7.69142e-06 -4.0199e-05 0.098702)
(-6.00945e-06 -8.89425e-06 0.0935612)
(-4.32506e-06 -0.000113879 0.109506)
(1.02198e-05 -9.75879e-05 0.10942)
(1.63843e-05 -3.06151e-05 0.0988281)
(2.15001e-05 -1.24432e-05 0.0934348)
(3.2077e-05 -6.62791e-05 0.107144)
(1.27826e-05 -3.85625e-05 0.0986902)
(9.05532e-06 2.49922e-06 0.0935502)
(2.02076e-05 -0.000102665 0.109435)
(-5.30114e-07 3.38473e-05 0.0919354)
(-4.12961e-05 3.32947e-05 0.082837)
(-2.73969e-05 3.20389e-05 0.0828903)
(-1.87639e-05 3.92847e-05 0.091991)
(-2.48511e-06 3.62945e-05 0.0919307)
(-3.05789e-05 1.07225e-05 0.0828602)
(-1.55051e-05 1.25608e-05 0.0829509)
(-2.23031e-05 4.0911e-05 0.091987)
(1.54918e-05 -3.89871e-07 0.0988342)
(3.18867e-07 -9.53851e-05 0.107361)
(-1.45103e-05 3.75454e-05 0.0936174)
(4.04913e-05 -0.000116006 0.109614)
(6.64323e-07 2.4022e-05 0.0935374)
(1.68247e-05 -0.000119693 0.109551)
(1.2808e-05 1.02216e-05 0.098998)
(1.68415e-05 4.38141e-06 0.0988213)
(4.5162e-05 -5.91278e-05 0.107203)
(-2.4302e-05 4.0961e-05 0.0936199)
(6.21265e-05 -0.000102215 0.10955)
(-5.23598e-06 3.45478e-05 0.0935268)
(3.8561e-05 -0.000105682 0.10948)
(1.23683e-05 1.53368e-05 0.0989901)
(-3.97029e-08 -2.4117e-06 0.0881788)
(8.02015e-06 1.16922e-05 0.0881593)
(5.46578e-05 -6.78408e-05 0.104172)
(-6.67211e-06 2.58639e-05 0.0882312)
(-1.90667e-05 7.23629e-06 0.0882518)
(-7.5448e-06 -3.52e-06 0.0723428)
(-2.42091e-05 1.58857e-06 0.0720942)
(-9.15338e-06 6.53516e-06 0.072246)
(-1.02787e-05 6.5813e-06 0.104123)
(-3.53225e-05 3.27401e-05 0.0882031)
(-2.16762e-05 3.84199e-05 0.0881979)
(-3.50998e-05 1.96562e-05 0.0882213)
(-1.85216e-05 -1.72745e-06 0.0722574)
(-1.60497e-05 -1.46593e-05 0.0934216)
(-6.36701e-05 -9.42901e-05 0.10731)
(-0.000110044 -7.141e-05 0.109634)
(-3.86711e-05 -4.09392e-06 0.0988491)
(-5.38509e-05 -0.000100381 0.107341)
(-1.80637e-05 7.40615e-06 0.0935334)
(-0.000101058 -8.61656e-05 0.109641)
(-1.4347e-05 1.02277e-05 0.0918105)
(3.84269e-06 1.98581e-05 0.0828181)
(-3.59003e-06 2.57558e-05 0.0919069)
(-8.36197e-07 1.86431e-05 0.0829011)
(-0.000124934 -1.71962e-05 0.109663)
(-9.75128e-05 2.54428e-05 0.107367)
(-2.26308e-05 2.10795e-05 0.0934039)
(-4.17434e-05 6.02706e-07 0.0988487)
(-7.88319e-05 1.33629e-05 0.107369)
(-0.00011357 -3.443e-05 0.109658)
(-1.18349e-05 2.82621e-05 0.0935133)
(1.5599e-05 3.3223e-05 0.0918921)
(3.13231e-06 2.19071e-05 0.082821)
(2.30346e-06 2.61639e-05 0.0828426)
(1.91151e-05 4.27492e-05 0.0919503)
(-4.94664e-06 4.21684e-06 0.0988316)
(-4.1474e-05 -9.52739e-05 0.107388)
(3.54144e-06 4.3666e-05 0.0935837)
(-6.46824e-05 -7.56608e-05 0.109679)
(8.42119e-06 2.3544e-05 0.0935075)
(-8.58465e-05 -8.83762e-05 0.109658)
(2.30017e-06 3.16914e-05 0.0989527)
(1.67981e-05 2.99133e-05 0.0918938)
(3.80546e-06 1.90147e-06 0.0828704)
(1.3706e-05 1.39348e-05 0.0828644)
(2.20025e-05 3.58228e-05 0.0919513)
(-6.63024e-06 7.69912e-06 0.0988296)
(-5.21131e-05 1.0566e-05 0.107378)
(-6.58374e-05 -3.10837e-05 0.109667)
(2.72249e-05 2.02146e-05 0.0935656)
(-9.36386e-05 -3.96648e-05 0.109662)
(1.91741e-05 2.13068e-05 0.0934865)
(5.07202e-06 3.08936e-05 0.0989462)
(8.53891e-06 7.58535e-06 0.0830187)
(-9.09783e-06 1.86198e-05 0.09198)
(1.04597e-06 7.85854e-06 0.0830741)
(8.74222e-05 -2.76712e-05 0.109413)
(5.08393e-05 -1.32182e-05 0.0986983)
(3.28087e-05 2.10106e-05 0.0934679)
(3.38534e-05 -5.20031e-06 0.0988095)
(6.97401e-05 -2.30344e-05 0.107172)
(7.98088e-05 -4.82313e-05 0.109391)
(1.00635e-05 2.32955e-05 0.0935793)
(-1.34755e-06 2.16247e-05 0.0830197)
(-8.33033e-06 1.86359e-05 0.0919849)
(-7.4383e-06 2.77026e-05 0.0831046)
(-6.18282e-06 -8.64861e-08 0.098794)
(4.72554e-05 -5.73209e-05 0.107173)
(7.5626e-05 -6.54009e-05 0.109438)
(-2.22729e-05 2.13313e-05 0.0935453)
(6.90167e-05 -7.52456e-05 0.109388)
(-3.48633e-05 2.32018e-05 0.0919687)
(-1.94155e-05 9.04502e-06 0.0830184)
(-3.63681e-06 -1.79855e-07 0.0987959)
(5.69913e-05 -3.3867e-05 0.107179)
(7.42988e-05 -5.64279e-05 0.109427)
(7.57909e-05 -5.91722e-05 0.109396)
(-2.64555e-05 1.53688e-05 0.0935548)
(-3.46496e-05 2.22309e-05 0.0919733)
(-2.5999e-05 2.60729e-05 0.0830597)
(-1.17628e-05 1.02581e-05 0.0880582)
(4.31147e-06 2.01853e-05 0.0880432)
(-6.79875e-05 5.64201e-05 0.104331)
(1.41145e-05 1.9406e-05 0.0881367)
(-1.581e-05 -4.99999e-06 0.0881554)
(-2.23946e-05 -9.62138e-06 0.0722137)
(7.2931e-06 1.29671e-05 0.0721679)
(1.47471e-05 -1.64127e-05 0.104249)
(2.54734e-05 8.22501e-06 0.0881167)
(-7.80747e-06 -2.06242e-05 0.0881348)
(-2.2413e-05 -1.91203e-05 0.0721684)
(6.58526e-05 4.605e-05 0.107226)
(2.12051e-05 5.25196e-05 0.0987116)
(3.61995e-05 2.52815e-05 0.0934372)
(1.89427e-05 3.67927e-05 0.0988031)
(6.43986e-05 2.16666e-05 0.107204)
(3.37948e-05 6.51377e-05 0.109512)
(1.60468e-05 1.53988e-05 0.0935423)
(8.40535e-06 2.55315e-05 0.0918359)
(1.2526e-06 6.86923e-06 0.0919299)
(-1.61337e-05 -2.01431e-06 0.0829556)
(-1.87144e-07 1.406e-05 0.0829499)
(7.75854e-07 5.27598e-06 0.0919287)
(-1.36503e-05 1.72896e-05 0.0830442)
(1.44092e-05 4.38325e-06 0.0987878)
(-1.9049e-05 4.07472e-05 0.107342)
(3.67927e-06 5.6491e-05 0.109555)
(3.20661e-07 -6.12027e-06 0.0934995)
(1.72158e-05 -3.43765e-07 0.0987781)
(6.13885e-05 1.22711e-06 0.107199)
(4.57991e-05 4.11544e-05 0.109488)
(-1.11258e-06 -1.50982e-05 0.0935152)
(-2.53242e-06 -1.70706e-05 0.0919173)
(-1.79889e-05 -2.10955e-05 0.0829228)
(-4.07154e-06 -1.87861e-05 0.0919154)
(-2.0483e-05 2.21835e-07 0.083005)
(-1.06177e-05 2.67904e-05 0.0723432)
(-1.48292e-05 3.62253e-05 0.0723929)
(-1.10539e-05 9.96199e-06 0.0724132)
(9.55458e-06 -5.1465e-05 0.104129)
(-4.75111e-05 1.45769e-05 0.0882333)
(-1.99621e-05 -1.77902e-05 0.0882333)
(-2.31248e-05 3.26146e-05 0.0723346)
(-1.90735e-05 2.34292e-06 0.0723552)
(-3.24216e-05 -5.51795e-06 0.0827304)
(-1.86142e-05 -1.26869e-05 0.0825528)
(-5.65169e-05 -1.58048e-05 0.0917009)
(-5.00717e-05 -1.66706e-05 0.0915955)
(-8.03022e-05 -7.03441e-05 0.114446)
(-0.000161557 5.17997e-05 0.114559)
(-1.25976e-05 0.000134279 0.114454)
(-1.70242e-05 -7.10301e-05 0.114379)
(-9.26179e-05 0.000117069 0.112205)
(-2.50352e-05 8.28812e-05 0.0933061)
(-5.56367e-05 0.000114998 0.107362)
(8.59325e-06 0.000113138 0.0986946)
(-2.73162e-05 0.000137539 0.109675)
(-5.48151e-05 -4.09242e-05 0.0957547)
(-8.4658e-05 -4.19913e-05 0.107339)
(-8.07682e-05 -5.31581e-05 0.107314)
(-9.65742e-05 -2.40263e-05 0.0986842)
(-0.000115539 1.19209e-05 0.109697)
(-7.2341e-05 -9.9049e-06 0.0986265)
(-0.000117806 -1.24411e-06 0.109673)
(-1.54455e-05 7.37535e-06 0.0824973)
(-2.36499e-05 1.32706e-05 0.0826739)
(-5.8228e-05 -8.55973e-06 0.0917002)
(-5.01796e-05 -7.65579e-06 0.0915918)
(-7.45441e-05 2.87847e-05 0.0933054)
(-8.41177e-05 8.49514e-05 0.107376)
(-9.70886e-05 7.97072e-05 0.107371)
(-9.95508e-05 -9.67627e-06 0.0986877)
(-0.000111944 5.69179e-05 0.109714)
(-7.12441e-05 4.75294e-06 0.0986265)
(-0.00012141 5.08111e-05 0.109699)
(-1.92742e-05 1.07968e-07 0.0827344)
(-3.30646e-05 1.77995e-06 0.0918116)
(-2.7765e-05 1.08104e-05 0.0828599)
(-3.91162e-05 -1.31527e-05 0.0917001)
(-7.51129e-05 -6.63884e-05 0.107296)
(-7.33732e-05 -2.65717e-05 0.0987477)
(-4.14356e-05 -2.91104e-05 0.0934377)
(-7.00829e-05 -8.14425e-05 0.107294)
(-0.000113795 -4.82126e-05 0.109637)
(-7.01091e-05 -2.68712e-05 0.0986515)
(-0.000116286 -2.30112e-05 0.109652)
(-8.62816e-06 1.3522e-05 0.0826802)
(-3.46143e-05 4.91664e-06 0.0918142)
(-1.21804e-05 2.07937e-05 0.0828292)
(-4.1142e-05 -6.6585e-06 0.0916997)
(-7.90641e-05 -1.6094e-05 0.0987517)
(-0.00012801 7.12668e-06 0.10967)
(-0.00010566 4.35435e-05 0.107364)
(-0.000104903 6.38144e-05 0.107367)
(-5.10572e-05 2.68701e-05 0.0934211)
(-7.43657e-05 -1.31774e-05 0.0986553)
(-0.000126652 3.22642e-05 0.109685)
(8.34615e-05 -4.01178e-05 0.109406)
(5.76533e-05 -5.73542e-05 0.107114)
(7.94422e-05 -2.1689e-05 0.0987153)
(5.25409e-05 -2.87218e-05 0.0934659)
(9.56788e-05 -1.80113e-05 0.109453)
(4.05613e-05 -2.4997e-07 0.0918858)
(2.70262e-05 3.90906e-06 0.0830287)
(9.59591e-05 -2.58318e-06 0.10945)
(8.51309e-05 -1.38671e-05 0.0987238)
(6.42673e-05 2.82188e-05 0.0934816)
(9.78489e-05 4.09734e-05 0.107246)
(0.000105017 2.14044e-05 0.109499)
(7.06826e-05 2.50775e-05 0.0933476)
(1.71908e-05 2.1008e-05 0.0830203)
(1.88226e-05 1.13615e-05 0.0828251)
(2.26407e-05 0.000113334 0.0986926)
(1.67791e-05 0.000135376 0.109643)
(8.44869e-07 3.50897e-05 0.0826741)
(1.20376e-05 7.18476e-05 0.0917108)
(1.95885e-05 7.22106e-05 0.0917159)
(-3.81695e-05 0.000118166 0.109633)
(-1.92263e-05 5.97438e-05 0.0932946)
(-6.62508e-05 0.00010597 0.107361)
(-2.06634e-05 6.22596e-05 0.0934287)
(9.21888e-06 8.78905e-05 0.098747)
(7.77511e-06 8.78911e-05 0.0986628)
(-3.5602e-05 0.000132491 0.109657)
(6.63268e-05 6.93569e-05 0.107254)
(2.15008e-05 8.65987e-05 0.0987405)
(4.85801e-05 5.40749e-05 0.0934537)
(2.20523e-05 8.78761e-05 0.0986601)
(6.67458e-05 8.93965e-05 0.107283)
(1.66643e-05 0.000129222 0.109616)
(5.34275e-05 5.54103e-05 0.0933218)
(-5.18994e-06 2.1639e-05 0.0828586)
(9.86263e-06 4.74113e-05 0.0918371)
(1.16856e-05 5.54526e-05 0.0917156)
(6.27308e-06 2.9408e-05 0.0829507)
(1.89937e-05 5.57713e-05 0.0917203)
(1.47684e-05 2.10194e-05 0.0827638)
(2.85898e-05 2.01e-05 0.0881634)
(1.59809e-05 3.25565e-05 0.0881641)
(4.83893e-05 2.32356e-05 0.104134)
(3.53056e-05 2.70105e-05 0.0880169)
(3.64785e-05 2.72573e-05 0.0880028)
(-1.37751e-06 2.75099e-05 0.0723532)
(3.33796e-06 1.34755e-05 0.0721777)
(1.10195e-05 9.08513e-06 0.0721742)
(-2.05943e-05 -4.35175e-05 0.0919105)
(-2.17862e-05 -2.96932e-05 0.0879056)
(-5.55487e-05 -6.64819e-05 0.0964756)
(-2.5127e-05 -1.14103e-05 0.0820342)
(-1.88394e-05 -1.0428e-05 0.0819566)
(-3.30189e-05 -4.73747e-05 0.0919727)
(-3.7084e-05 -5.58341e-05 0.0964233)
(-2.76517e-05 -3.79722e-05 0.0920376)
(-3.07025e-05 -5.12976e-05 0.0964612)
(-2.02136e-05 -2.1564e-05 0.08805)
(-1.82709e-05 -4.21763e-06 0.0820449)
(-1.54765e-05 -3.58264e-05 0.0919739)
(-2.38806e-05 -4.33076e-06 0.0821133)
(-4.82405e-05 -5.98734e-05 0.0965198)
(-1.5633e-06 2.29761e-05 0.0720825)
(-3.93169e-05 3.7422e-05 0.0920119)
(-5.04401e-05 3.59225e-05 0.0964687)
(-2.18629e-05 3.0914e-05 0.0879883)
(-5.17852e-06 1.67847e-05 0.0819806)
(-2.93614e-05 3.22812e-05 0.0919518)
(-8.36253e-06 2.08219e-05 0.0820502)
(-6.79994e-05 4.42541e-05 0.0965256)
(-4.30688e-06 1.12316e-05 0.0721029)
(-1.72154e-05 -1.04291e-05 0.0921613)
(-1.40572e-05 -3.24364e-05 0.0965647)
(-1.33678e-05 1.20929e-05 0.0821562)
(-8.22666e-06 4.68394e-06 0.0881522)
(-4.64218e-06 -1.11539e-05 0.0920994)
(-1.75968e-05 1.23993e-05 0.0821998)
(-3.13325e-05 -3.8617e-05 0.0966318)
(1.45293e-06 -5.74768e-07 0.0723978)
(4.7143e-06 1.27868e-05 0.0777051)
(1.01293e-05 3.49451e-06 0.0904446)
(3.56935e-06 1.28203e-05 0.0794437)
(1.65992e-05 8.82446e-06 0.0919381)
(1.24652e-05 9.65312e-06 0.0905017)
(3.97192e-06 1.39154e-05 0.0794763)
(3.62708e-06 9.88984e-06 0.0776689)
(2.65443e-07 2.67711e-05 0.0777182)
(3.43047e-06 1.78034e-05 0.079448)
(1.04236e-05 1.47244e-05 0.0904527)
(1.83393e-05 1.11583e-05 0.0919435)
(4.07565e-06 1.81917e-05 0.0794805)
(1.10683e-05 1.75321e-05 0.0905094)
(-1.73275e-06 2.69668e-05 0.0776822)
(-1.50345e-05 -1.81594e-06 0.072207)
(-1.5887e-05 -5.65214e-07 0.0690962)
(-7.95958e-06 2.29658e-06 0.0863761)
(-9.90582e-06 1.05937e-05 0.0829213)
(-9.59112e-06 6.42154e-06 0.0864379)
(-1.33362e-05 -3.60324e-06 0.0690382)
(-3.18346e-06 1.17046e-05 0.0776268)
(2.05703e-05 1.61524e-05 0.0903981)
(-6.19247e-06 7.884e-06 0.0793427)
(9.01067e-06 2.75579e-05 0.0918899)
(1.55785e-05 2.0124e-05 0.0904548)
(-1.04588e-05 9.70268e-06 0.0793854)
(3.19056e-06 8.2443e-06 0.0775822)
(-2.21431e-06 1.28012e-05 0.0724134)
(8e-06 2.25355e-05 0.077637)
(1.61097e-05 1.6326e-05 0.0794542)
(3.49772e-05 1.21679e-05 0.0904577)
(4.11084e-05 1.10514e-06 0.0918332)
(1.02096e-05 2.37557e-05 0.0776949)
(1.47287e-05 1.47794e-05 0.0794005)
(3.29367e-05 9.60386e-06 0.0903944)
(-1.04811e-06 8.86836e-06 0.0690049)
(-1.84151e-06 2.99644e-05 0.0827738)
(-4.72984e-06 2.54363e-05 0.0862505)
(2.01642e-07 4.96839e-06 0.0689167)
(-6.1219e-06 3.1538e-05 0.0863284)
(1.1495e-05 1.45567e-05 0.0775295)
(2.47471e-05 3.76687e-05 0.0904043)
(-2.49557e-06 1.91786e-05 0.0793437)
(1.66396e-05 4.30621e-05 0.0917829)
(6.4287e-06 1.85161e-05 0.0775912)
(2.77066e-05 3.28133e-05 0.0903417)
(1.25844e-06 1.64172e-05 0.0792849)
(5.44833e-06 9.18847e-06 0.0722832)
(2.9534e-07 -1.8842e-05 0.0773979)
(5.70436e-06 -2.73205e-05 0.0792412)
(-2.02729e-06 -5.41666e-05 0.0902971)
(5.57586e-06 -5.51474e-05 0.091683)
(6.18005e-06 -2.37204e-05 0.0791708)
(-2.64985e-06 -4.69199e-05 0.0902317)
(1.15074e-06 -2.3136e-05 0.0774727)
(1.69961e-06 -1.32906e-05 0.0689208)
(-1.35337e-06 -3.45977e-05 0.0826744)
(-9.64437e-06 -3.24451e-05 0.0861577)
(-1.03519e-05 -4.00228e-05 0.0862388)
(6.97164e-07 -8.46848e-06 0.0688211)
(-4.50475e-07 -6.53589e-06 0.0689266)
(-9.57254e-06 -3.08568e-05 0.0863167)
(-3.07136e-07 -2.0193e-05 0.0826913)
(-9.56673e-06 -2.49213e-05 0.0862394)
(1.35499e-07 -1.06755e-05 0.069014)
(1.82657e-06 -2.76848e-05 0.0773797)
(6.50367e-06 -7.16735e-05 0.0916834)
(7.03154e-06 -2.77192e-05 0.0790687)
(-2.08588e-06 -5.37081e-05 0.0901683)
(6.8742e-06 -3.26884e-05 0.079147)
(-2.75336e-06 -6.36105e-05 0.0902331)
(8.61456e-07 -2.22622e-05 0.0772966)
(-7.41417e-06 1.5046e-05 0.0719109)
(-4.15729e-07 1.31908e-05 0.0719176)
(-1.58724e-05 1.4042e-05 0.0775514)
(5.2901e-06 1.44268e-05 0.0918973)
(-1.70796e-05 1.08614e-05 0.0793408)
(-3.78275e-07 1.08423e-05 0.0904976)
(-1.26235e-05 1.28229e-05 0.0793319)
(2.2076e-06 1.48553e-05 0.0904476)
(-1.9416e-05 1.16027e-05 0.0775645)
(-1.52569e-05 4.54013e-06 0.0690831)
(-5.02168e-06 1.10269e-05 0.0864059)
(-1.62075e-05 3.11268e-07 0.0829495)
(-1.27675e-05 7.46447e-06 0.069053)
(-5.93672e-06 6.50616e-06 0.0864562)
(-1.03742e-05 2.62259e-06 0.0775901)
(6.65524e-06 -8.52531e-06 0.0919032)
(-4.47228e-06 2.90908e-06 0.0793393)
(3.7165e-06 -3.20367e-06 0.090405)
(-8.12387e-06 4.67537e-06 0.0775605)
(-8.04439e-06 1.33763e-06 0.0793652)
(3.47192e-06 -7.21072e-06 0.0904611)
(-2.09176e-05 1.29413e-05 0.0690192)
(-9.45097e-06 1.90103e-05 0.086462)
(-1.85418e-05 1.95897e-05 0.0829137)