/*--------------------------------*- C++ -*----------------------------------*\
| =========                 |                                                 |
| \\      /  F ield         | OpenFOAM: The Open Source CFD Toolbox           |
|  \\    /   O peration     | Version:  v2006                                 |
|   \\  /    A nd           | Website:  www.openfoam.com                      |
|    \\/     M anipulation  |                                                 |
\*---------------------------------------------------------------------------*/
FoamFile
{
    version     2.0;
    format      ascii;
    class       surfaceScalarField;
    location    "250";
    object      phi;
}
// * * * * * * * * * * * * * * * * * * * * * * * * * * * * * * * * * * * * * //

dimensions      [0 3 -1 0 0 0 0];
oriented        oriented;


internalField   nonuniform List<scalar> 
123680
(
-1.76013e-07
-1.76028e-07
-0.0011913
1.61987e-07
1.61073e-07
0.00119132
-0.00113981
-1.22738e-06
1.71841e-07
1.83117e-08
0.00113969
-2.26595e-07
1.23585e-06
2.45961e-07
8.54468e-07
-2.44027e-07
-9.01758e-07
2.006e-07
-0.00113971
-1.22596e-06
1.74873e-07
2.22907e-08
0.00113959
-2.30794e-07
1.23196e-06
2.47705e-07
8.48767e-07
-2.41811e-07
-8.96494e-07
1.97317e-07
-0.000271355
1.25644e-06
1.21366e-06
-2.14633e-07
-2.25046e-07
0.000269324
-1.81211e-07
-1.80208e-07
-0.00119135
1.79014e-07
1.80518e-07
0.00119135
-0.00113923
-1.25476e-06
1.87747e-07
1.13156e-07
0.00113906
-2.65338e-07
1.20338e-06
2.07672e-07
8.72936e-07
-2.25061e-07
-8.74565e-07
2.10702e-07
-0.00113913
-1.25085e-06
1.85909e-07
1.10153e-07
0.00113896
-2.67114e-07
1.20146e-06
2.1098e-07
8.67405e-07
-2.22164e-07
-8.69306e-07
2.08264e-07
-0.000271201
1.28271e-06
1.24033e-06
-2.33475e-07
-2.43726e-07
0.000269155
-1.22359e-07
-1.22799e-07
-0.0011914
1.26818e-07
1.26255e-07
0.00119139
-0.00113866
-1.20608e-06
1.11429e-07
-4.27196e-08
0.00113857
-2.04669e-07
1.25028e-06
2.64191e-07
8.53537e-07
-2.40037e-07
-8.97566e-07
2.00877e-07
-0.00113856
-1.20474e-06
1.12486e-07
-3.82522e-08
0.00113846
-2.08792e-07
1.24623e-06
2.65674e-07
8.48808e-07
-2.36932e-07
-8.9146e-07
1.98554e-07
-0.000271086
1.23507e-06
1.19236e-06
-2.01031e-07
-2.11452e-07
0.000269071
-9.45916e-08
-9.39605e-08
-0.00119116
1.28915e-07
1.29665e-07
0.00119109
-0.00113813
-1.24198e-06
1.08754e-07
1.18128e-07
0.0011379
-2.60921e-07
1.19635e-06
1.92718e-07
8.98981e-07
-1.87878e-07
-8.40118e-07
2.40321e-07
-0.00113803
-1.23706e-06
1.07368e-07
1.11412e-07
0.00113781
-2.60971e-07
1.19602e-06
1.98308e-07
8.92184e-07
-1.86267e-07
-8.3609e-07
2.36894e-07
-0.000270981
1.2732e-06
1.23075e-06
-2.2007e-07
-2.30319e-07
0.000268927
-1.13735e-07
-1.12874e-07
-0.00119116
1.23993e-07
1.24766e-07
0.00119114
-0.00113749
-1.20716e-06
1.01594e-07
-6.61876e-08
0.00113748
-2.06291e-07
1.2557e-06
2.79168e-07
8.39504e-07
-2.55477e-07
-9.0105e-07
1.73034e-07
-0.0011374
-1.20708e-06
1.01805e-07
-5.83839e-08
0.00113738
-2.12734e-07
1.24993e-06
2.78042e-07
8.36038e-07
-2.51339e-07
-8.93774e-07
1.71647e-07
-0.00027079
1.23326e-06
1.19092e-06
-2.12486e-07
-2.22742e-07
0.000268801
3.72466e-07
3.71734e-07
-0.00119031
-1.75231e-07
-1.77078e-07
0.00118992
-0.0011372
-1.1192e-06
-3.6578e-07
-1.85967e-07
0.00113688
-1.30832e-07
1.30204e-06
3.07754e-07
9.9458e-07
-8.75927e-08
-7.43335e-07
3.49924e-07
-0.0011371
-1.1142e-06
-3.64341e-07
-1.9116e-07
0.00113678
-1.30649e-07
1.30181e-06
3.13574e-07
9.87126e-07
-8.62919e-08
-7.39765e-07
3.46051e-07
-0.000270947
1.15093e-06
1.10789e-06
-1.08214e-07
-1.18435e-07
0.000268914
-3.61203e-07
-3.59184e-07
-0.0011892
3.83036e-07
3.85677e-07
0.00118915
-0.00113524
-1.26374e-06
3.56616e-07
2.29047e-07
0.00113474
-2.64715e-07
1.16548e-06
1.86974e-07
8.72671e-07
-1.71807e-07
-8.38931e-07
2.31659e-07
-0.00113514
-1.26247e-06
3.55195e-07
2.31309e-07
0.00113464
-2.69139e-07
1.16127e-06
1.85373e-07
8.68489e-07
-1.68445e-07
-8.32481e-07
2.29646e-07
-0.000270369
1.29084e-06
1.24881e-06
-2.1409e-07
-2.24271e-07
0.000268268
-2.20026e-07
-2.21992e-07
-0.00118951
1.32432e-07
1.32141e-07
0.00118968
-0.00113483
-1.27028e-06
2.2406e-07
5.11518e-08
0.0011354
-2.99642e-07
1.17238e-06
1.66868e-07
7.23137e-07
-3.72866e-07
-1.01269e-06
4.81785e-08
-0.00113473
-1.26727e-06
2.22822e-07
5.1399e-08
0.0011353
-2.99186e-07
1.17009e-06
1.67454e-07
7.17517e-07
-3.70238e-07
-1.00729e-06
4.52188e-08
-0.000270241
1.30071e-06
1.25871e-06
-3.11533e-07
-3.21622e-07
0.000268315
1.51122e-07
1.52243e-07
-0.0011902
-2.00379e-07
-2.01656e-07
0.0011903
-0.00113755
-1.22712e-06
-1.52984e-07
-5.07417e-08
0.001138
-2.57628e-07
1.22091e-06
2.17597e-07
8.34491e-07
-2.83675e-07
-9.18762e-07
1.64073e-07
-0.00113745
-1.2238e-06
-1.50403e-07
-5.19586e-08
0.00113791
-2.57067e-07
1.2187e-06
2.18073e-07
8.28627e-07
-2.8123e-07
-9.13897e-07
1.61166e-07
-0.000271065
1.25498e-06
1.21162e-06
-2.56535e-07
-2.676e-07
0.000269123
4.58345e-07
4.59773e-07
-0.00118989
-2.3412e-07
-2.33921e-07
0.00118944
-0.0011379
-1.09715e-06
-4.62081e-07
-2.53469e-07
0.00113743
-1.10113e-07
1.33886e-06
3.49894e-07
1.04214e-06
-3.8244e-08
-6.90917e-07
3.86763e-07
-0.0011378
-1.09502e-06
-4.62443e-07
-2.52018e-07
0.00113733
-1.10786e-07
1.33553e-06
3.49285e-07
1.03703e-06
-3.5316e-08
-6.85285e-07
3.84166e-07
-0.000271188
1.12615e-06
1.08412e-06
-7.85158e-08
-8.81318e-08
0.000269144
1.07444e-06
1.0759e-06
-0.00118703
-5.54086e-07
-5.53977e-07
0.00118598
-0.00113562
-9.98789e-07
-1.07471e-06
-4.34406e-07
0.0011351
-2.3286e-08
1.41217e-06
4.1396e-07
1.16385e-06
9.60405e-08
-5.41395e-07
5.03401e-07
-0.00113552
-9.9623e-07
-1.07574e-06
-4.34288e-07
0.001135
-2.33796e-08
1.40929e-06
4.13887e-07
1.15861e-06
9.86213e-08
-5.35887e-07
5.0085e-07
-0.000270796
1.02854e-06
9.86213e-07
1.38789e-08
2.63084e-09
0.000268765
1.13921e-06
1.14094e-06
-0.00118299
-7.26207e-07
-7.27096e-07
0.00118217
-0.00113412
-1.0236e-06
-1.13933e-06
-4.23117e-07
0.00113397
-5.20202e-08
1.37462e-06
3.78228e-07
1.11216e-06
5.7281e-08
-5.81301e-07
4.50985e-07
-0.00113402
-1.02064e-06
-1.13881e-06
-4.23753e-07
0.00113387
-5.18214e-08
1.37215e-06
3.78437e-07
1.10669e-06
5.96832e-08
-5.76008e-07
4.4828e-07
-0.000270657
1.05264e-06
1.00983e-06
-2.92986e-08
-3.9467e-08
0.000268663
7.20328e-07
7.21345e-07
-0.00118036
-5.23207e-07
-5.2425e-07
0.00117996
-0.00113388
-1.10146e-06
-7.21442e-07
-2.78872e-07
0.00113394
-1.25603e-07
1.29959e-06
3.08821e-07
9.9209e-07
-6.15504e-08
-7.07172e-07
3.3416e-07
-0.00113379
-1.09874e-06
-7.21088e-07
-2.78862e-07
0.00113385
-1.25598e-07
1.29683e-06
3.088e-07
9.86645e-07
-5.87275e-08
-7.01866e-07
3.31489e-07
-0.000270759
1.13052e-06
1.08795e-06
-1.13857e-07
-1.24161e-07
0.000268779
3.02249e-07
3.02541e-07
-0.00117926
-2.46399e-07
-2.47082e-07
0.00117915
-0.00113424
-1.1668e-06
-3.03057e-07
-1.20019e-07
0.00113434
-1.88413e-07
1.24115e-06
2.52863e-07
9.01562e-07
-1.60026e-07
-8.07258e-07
2.45968e-07
-0.00113414
-1.16414e-06
-3.0322e-07
-1.19736e-07
0.00113425
-1.88443e-07
1.23834e-06
2.52822e-07
8.96204e-07
-1.57312e-07
-8.01852e-07
2.4329e-07
-0.000270925
1.19578e-06
1.15338e-06
-1.76639e-07
-1.86885e-07
0.00026894
6.68107e-08
6.6972e-08
-0.00117903
-6.59536e-08
-6.61579e-08
0.00117902
-0.00113459
-1.19962e-06
-6.72299e-08
-2.56943e-08
0.00113465
-2.18551e-07
1.2132e-06
2.26789e-07
8.62107e-07
-2.0333e-07
-8.52855e-07
2.08129e-07
-0.0011345
-1.19695e-06
-6.72824e-08
-2.54371e-08
0.00113455
-2.18589e-07
1.2104e-06
2.26744e-07
8.56724e-07
-2.00622e-07
-8.47465e-07
2.05441e-07
-0.000271037
1.22853e-06
1.18609e-06
-2.03957e-07
-2.14291e-07
0.000269041
-1.18443e-08
-1.15661e-08
-0.00117906
4.0466e-09
4.11404e-09
0.00117908
-0.00113474
-1.2091e-06
1.15323e-08
8.25654e-09
0.00113475
-2.26569e-07
1.20575e-06
2.20324e-07
8.54775e-07
-2.1163e-07
-8.6234e-07
2.0148e-07
-0.00113464
-1.20636e-06
1.17062e-08
8.36524e-09
0.00113465
-2.26562e-07
1.20302e-06
2.20321e-07
8.49337e-07
-2.08971e-07
-8.57003e-07
1.98742e-07
-0.000271073
1.23801e-06
1.19556e-06
-2.09372e-07
-2.19722e-07
0.000269069
-8.4719e-09
-8.2064e-09
-0.0011791
8.96314e-09
9.11048e-09
0.0011791
-0.00113474
-1.20741e-06
8.41111e-09
7.8455e-09
0.00113473
-2.24904e-07
1.20749e-06
2.21966e-07
8.58242e-07
-2.08091e-07
-8.58754e-07
2.04912e-07
-0.00113464
-1.20465e-06
8.46902e-09
7.8011e-09
0.00113463
-2.24881e-07
1.20478e-06
2.21977e-07
8.52804e-07
-2.05429e-07
-8.5342e-07
2.0218e-07
-0.000271067
1.23641e-06
1.19398e-06
-2.07033e-07
-2.17351e-07
0.000269061
6.81165e-09
7.13773e-09
-0.00117908
-3.0717e-09
-2.87277e-09
0.00117907
-0.0011347
-1.20524e-06
-6.88682e-09
1.41331e-09
0.0011347
-2.22954e-07
1.20926e-06
2.23605e-07
8.60354e-07
-2.05676e-07
-8.56174e-07
2.06901e-07
-0.0011346
-1.2025e-06
-7.03374e-09
1.35837e-09
0.0011346
-2.2293e-07
1.20654e-06
2.23625e-07
8.54961e-07
-2.02988e-07
-8.50795e-07
2.04194e-07
-0.000271059
1.23415e-06
1.19173e-06
-2.05367e-07
-2.15681e-07
0.000269054
8.81367e-09
9.06127e-09
-0.00117905
-6.57671e-09
-6.54547e-09
0.00117905
-0.00113469
-1.20517e-06
-8.99096e-09
7.41041e-11
0.00113469
-2.229e-07
1.20919e-06
2.23572e-07
8.59849e-07
-2.06103e-07
-8.56593e-07
2.06426e-07
-0.00113459
-1.20245e-06
-9.04195e-09
1.31173e-10
0.0011346
-2.22892e-07
1.20645e-06
2.23569e-07
8.54468e-07
-2.03402e-07
-8.51205e-07
2.03734e-07
-0.000271059
1.23414e-06
1.1917e-06
-2.05613e-07
-2.15939e-07
0.000269055
4.9272e-09
5.07776e-09
-0.00117904
-4.35307e-09
-4.46621e-09
0.00117904
-0.0011347
-1.20584e-06
-5.20224e-09
1.4332e-09
0.0011347
-2.23561e-07
1.20858e-06
2.22953e-07
8.59045e-07
-2.06975e-07
-8.57462e-07
2.05603e-07
-0.0011346
-1.20313e-06
-5.09505e-09
1.61742e-09
0.0011346
-2.23573e-07
1.20583e-06
2.22931e-07
8.53653e-07
-2.04276e-07
-8.52082e-07
2.02905e-07
-0.000271061
1.2348e-06
1.19234e-06
-2.06218e-07
-2.16558e-07
0.000269056
2.34715e-09
2.53411e-09
-0.00117904
-2.23513e-09
-2.25556e-09
0.00117904
-0.0011347
-1.20629e-06
-2.54777e-09
2.92999e-09
0.0011347
-2.23942e-07
1.20819e-06
2.22622e-07
8.58749e-07
-2.07364e-07
-8.57868e-07
2.0526e-07
-0.0011346
-1.20356e-06
-2.50989e-09
2.98446e-09
0.0011346
-2.23942e-07
1.20545e-06
2.22616e-07
8.53331e-07
-2.04697e-07
-8.52513e-07
2.02529e-07
-0.000271062
1.2352e-06
1.19277e-06
-2.06554e-07
-2.1688e-07
0.000269058
1.43394e-09
1.74064e-09
-0.00117904
-1.60135e-09
-1.45966e-09
0.00117904
-0.0011347
-1.20623e-06
-1.65281e-09
2.69863e-09
0.0011347
-2.23914e-07
1.20826e-06
2.22641e-07
8.58479e-07
-2.0745e-07
-8.58121e-07
2.05172e-07
-0.0011346
-1.20346e-06
-1.81147e-09
2.53621e-09
0.0011346
-2.23853e-07
1.20557e-06
2.22694e-07
8.5308e-07
-2.0476e-07
-8.52753e-07
2.02473e-07
-0.000271062
1.23514e-06
1.19271e-06
-2.06508e-07
-2.16824e-07
0.000269058
1.16892e-09
1.39066e-09
-0.00117904
-1.34302e-09
-1.30438e-09
0.00117904
-0.0011347
-1.20644e-06
-1.34959e-09
3.19294e-09
0.0011347
-2.24056e-07
1.2081e-06
2.22554e-07
8.58501e-07
-2.07602e-07
-8.58099e-07
2.05077e-07
-0.0011346
-1.20374e-06
-1.3018e-09
3.35171e-09
0.0011346
-2.24083e-07
1.20534e-06
2.22519e-07
8.53111e-07
-2.04905e-07
-8.52719e-07
2.02378e-07
-0.000271063
1.23543e-06
1.19296e-06
-2.067e-07
-2.17048e-07
0.000269058
9.46782e-10
1.19176e-09
-0.00117904
-1.06972e-09
-1.06212e-09
0.00117904
-0.0011347
-1.20643e-06
-1.1855e-09
3.35499e-09
0.0011347
-2.24115e-07
1.20803e-06
2.2245e-07
8.5853e-07
-2.07546e-07
-8.581e-07
2.0509e-07
-0.0011346
-1.20368e-06
-1.13925e-09
3.36355e-09
0.0011346
-2.24082e-07
1.20532e-06
2.22481e-07
8.53119e-07
-2.04858e-07
-8.52736e-07
2.02384e-07
-0.000271062
1.23536e-06
1.1929e-06
-2.06669e-07
-2.17007e-07
0.000269058
1.14256e-09
1.47925e-09
-0.00117904
-1.37753e-09
-1.27812e-09
0.00117904
-0.0011347
-1.20627e-06
-1.40361e-09
2.75389e-09
0.0011347
-2.23959e-07
1.20826e-06
2.22625e-07
8.5836e-07
-2.07611e-07
-8.58256e-07
2.05052e-07
-0.0011346
-1.20355e-06
-1.43762e-09
2.83354e-09
0.0011346
-2.23972e-07
1.20551e-06
2.22599e-07
8.52971e-07
-2.04911e-07
-8.52863e-07
2.02359e-07
-0.000271062
1.23524e-06
1.19282e-06
-2.06619e-07
-2.16931e-07
0.000269058
1.39258e-09
1.53065e-09
-0.00117904
-1.32344e-09
-1.37079e-09
0.00117904
-0.0011347
-1.20636e-06
-1.61616e-09
3.05299e-09
0.0011347
-2.23969e-07
1.20816e-06
2.2262e-07
8.5859e-07
-2.07459e-07
-8.57993e-07
2.05218e-07
-0.0011346
-1.20362e-06
-1.55269e-09
3.13296e-09
0.0011346
-2.23946e-07
1.20544e-06
2.22648e-07
8.53163e-07
-2.048e-07
-8.52638e-07
2.02478e-07
-0.000271063
1.2353e-06
1.19285e-06
-2.06577e-07
-2.16927e-07
0.000269058
-1.27086e-06
-1.22842e-06
0.000271401
-0.000269374
2.31836e-07
2.39678e-07
0.0011392
1.95229e-07
-0.00113933
3.84116e-08
-1.27514e-06
2.50418e-07
-2.43124e-07
-9.00966e-07
1.92542e-07
-2.44899e-07
8.4902e-07
1.27031e-06
0.00113932
1.93035e-07
-0.00113945
2.98978e-08
-1.27057e-06
2.53076e-07
-2.40499e-07
-9.06523e-07
1.95206e-07
-2.48016e-07
8.53988e-07
-1.23246e-06
0.000271392
-0.000269364
2.3592e-07
2.38436e-07
0.00114022
1.94702e-07
-0.00114035
3.63857e-08
-1.23249e-06
2.45348e-07
-2.37494e-07
-9.0053e-07
1.92978e-07
-2.44656e-07
8.49192e-07
1.2661e-06
0.00113921
1.95579e-07
-0.00113934
3.49207e-08
-1.26917e-06
2.48454e-07
-2.39674e-07
-9.03702e-07
1.95196e-07
-2.47732e-07
8.51428e-07
1.89456e-07
-0.00113994
3.32468e-08
-1.23386e-06
2.44658e-07
-2.32646e-07
-9.03308e-07
1.95683e-07
8.51672e-07
-2.47327e-07
1.26287e-06
0.00113889
1.86425e-07
-0.00113902
2.78287e-08
-1.26101e-06
2.51007e-07
-2.36133e-07
-9.00224e-07
1.96783e-07
-2.46684e-07
8.49839e-07
-1.22828e-06
0.000271376
-0.000269351
2.32233e-07
2.37203e-07
1.92639e-07
-0.00113984
3.82283e-08
-1.23239e-06
2.45539e-07
-2.37294e-07
-8.97877e-07
1.9278e-07
8.46161e-07
-2.44683e-07
1.22057e-06
0.0011399
1.86672e-07
-0.00114003
2.58373e-08
-1.2182e-06
2.43279e-07
-2.27649e-07
-8.99999e-07
1.97019e-07
-2.46613e-07
8.49729e-07
-0.000269345
2.31902e-07
2.42177e-07
1.26929e-06
1.22656e-06
-2.19234e-07
-2.26992e-07
0.000269352
-1.24773e-06
-1.20516e-06
0.000271256
-0.000269245
2.17069e-07
2.24779e-07
2.46435e-08
0.00113907
-2.37162e-07
1.27395e-06
2.52143e-07
8.51966e-07
-2.41784e-07
-8.99092e-07
1.97198e-07
-1.26494e-06
1.7155e-07
1.7007e-08
0.0011392
-2.35123e-07
1.27279e-06
2.53692e-07
8.57739e-07
-2.43812e-07
-9.03996e-07
2.01044e-07
0.00113862
1.63544e-07
-0.00113879
9.12365e-08
-1.2876e-06
2.15859e-07
-2.68668e-07
-8.71933e-07
2.16327e-07
-2.1827e-07
8.76658e-07
1.24238e-06
0.00113875
1.65526e-07
-0.00113891
1.02669e-07
-1.28781e-06
2.13047e-07
-2.71903e-07
-8.76369e-07
2.18827e-07
-2.20636e-07
8.82351e-07
-2.20348e-07
-2.23041e-07
0.000269343
-1.20613e-06
0.000271245
-0.000269235
2.18303e-07
2.2018e-07
2.25793e-08
0.00114009
-2.31427e-07
1.23161e-06
2.47157e-07
8.5194e-07
-2.41628e-07
-8.98795e-07
1.97517e-07
-1.26342e-06
1.75145e-07
2.11532e-08
0.00113908
-2.33742e-07
1.26907e-06
2.50051e-07
8.54652e-07
-2.44275e-07
-9.01602e-07
2.00248e-07
0.00113964
1.63639e-07
-0.0011398
9.22652e-08
-1.24503e-06
2.10401e-07
-2.63301e-07
-8.71925e-07
2.16358e-07
-2.18465e-07
8.76521e-07
1.2412e-06
0.00113863
1.62483e-07
-0.0011388
9.7138e-08
-1.2833e-06
2.11851e-07
-2.67146e-07
-8.74092e-07
2.19191e-07
-2.20632e-07
8.79533e-07
1.69439e-07
1.9689e-08
0.00113876
-2.32928e-07
1.2639e-06
2.49337e-07
8.53356e-07
-2.42433e-07
2.02284e-07
-8.97667e-07
1.70737e-07
-0.0011394
9.54745e-08
-1.24907e-06
2.05796e-07
-2.62572e-07
-8.74433e-07
2.18547e-07
8.7914e-07
-2.21122e-07
1.23362e-06
0.0011383
1.75645e-07
-0.00113847
1.04404e-07
-1.28086e-06
2.10836e-07
-2.7013e-07
-8.72649e-07
2.16059e-07
-2.22971e-07
8.74894e-07
-2.18983e-07
-2.24017e-07
0.00026933
-1.20502e-06
0.000271231
-0.000269223
2.1708e-07
2.21309e-07
1.69754e-07
1.79384e-08
0.00113977
-2.24465e-07
1.22154e-06
2.41545e-07
8.53272e-07
-2.42348e-07
2.0254e-07
-8.97432e-07
1.67307e-07
-0.0011393
9.03408e-08
-1.24467e-06
2.10261e-07
-2.63245e-07
-8.69219e-07
2.16206e-07
8.73563e-07
-2.18348e-07
1.19087e-06
0.00113931
1.74497e-07
-0.00113948
1.05376e-07
-1.23853e-06
2.02591e-07
-2.62149e-07
-8.72236e-07
2.16363e-07
-2.22809e-07
8.75013e-07
-0.000269211
2.11775e-07
2.22255e-07
1.29311e-06
1.25077e-06
-2.353e-07
-2.4301e-07
0.000269191
-1.27826e-06
-1.23585e-06
0.000271127
-0.000269094
2.36491e-07
2.44302e-07
1.07061e-07
0.00113845
-2.72002e-07
1.24478e-06
2.17077e-07
8.70995e-07
-2.21637e-07
-8.71634e-07
2.0887e-07
-1.2927e-06
1.84748e-07
1.17111e-07
0.00113857
-2.74083e-07
1.24048e-06
2.15627e-07
8.75848e-07
-2.25095e-07
-8.76826e-07
2.10572e-07
0.00113805
1.70537e-07
-0.00113816
6.59871e-09
-1.26109e-06
2.62454e-07
-2.27719e-07
-9.01131e-07
1.86647e-07
-2.44976e-07
8.40252e-07
1.27834e-06
0.00113817
1.70763e-07
-0.00113827
-5.34082e-09
-1.25614e-06
2.65418e-07
-2.24845e-07
-9.07379e-07
1.88835e-07
-2.48399e-07
8.44483e-07
-2.39326e-07
-2.41789e-07
0.000269179
-1.239e-06
0.000271117
-0.000269083
2.39855e-07
2.43376e-07
1.0814e-07
0.00113947
-2.66833e-07
1.20197e-06
2.11451e-07
8.71258e-07
-2.21582e-07
-8.71263e-07
2.0921e-07
-1.28903e-06
1.8143e-07
1.1375e-07
0.00113846
-2.70573e-07
1.2382e-06
2.1316e-07
8.73524e-07
-2.2442e-07
-8.74084e-07
2.11346e-07
0.00113906
1.69714e-07
-0.00113917
5.28101e-09
-1.21858e-06
2.57399e-07
-2.22134e-07
-9.0072e-07
1.87026e-07
-2.44719e-07
8.40319e-07
1.27454e-06
0.00113806
1.7231e-07
-0.00113817
-3.78096e-10
-1.25452e-06
2.61408e-07
-2.23528e-07
-9.04219e-07
1.88909e-07
-2.4818e-07
8.42308e-07
1.87469e-07
1.08316e-07
0.00113813
-2.68402e-07
1.23455e-06
2.16436e-07
8.68522e-07
-2.27228e-07
2.08739e-07
-8.73446e-07
1.63173e-07
-0.00113876
4.57606e-09
-1.22063e-06
2.554e-07
-2.18364e-07
-9.0349e-07
1.89693e-07
8.4332e-07
-2.47596e-07
1.27059e-06
0.00113774
1.5763e-07
-0.00113784
-8.98012e-09
-1.24605e-06
2.62399e-07
-2.20442e-07
-9.00309e-07
1.91544e-07
-2.4625e-07
8.41403e-07
-2.35779e-07
-2.41093e-07
0.000269168
-1.23497e-06
0.000271102
-0.000269071
2.36233e-07
2.42773e-07
1.86229e-07
1.08718e-07
0.00113914
-2.60367e-07
1.19189e-06
2.08295e-07
8.68645e-07
-2.27042e-07
2.09084e-07
-8.72965e-07
1.64651e-07
-0.00113866
8.27126e-09
-1.21907e-06
2.5673e-07
-2.22627e-07
-8.97608e-07
1.87514e-07
8.38496e-07
-2.4448e-07
1.22831e-06
0.00113875
1.57997e-07
-0.00113886
-1.04063e-08
-1.20332e-06
2.54619e-07
-2.1201e-07
-9.00112e-07
1.91677e-07
-2.4624e-07
8.41264e-07
-0.00026907
2.36521e-07
2.46756e-07
1.24744e-06
1.20462e-06
-2.04898e-07
-2.12771e-07
0.000269093
-1.26476e-06
-1.22238e-06
0.000271037
-0.00026903
2.36592e-07
2.44292e-07
-3.49699e-08
0.00113795
-2.14466e-07
1.28882e-06
2.70709e-07
8.49396e-07
-2.38355e-07
-8.96269e-07
1.96691e-07
-1.24182e-06
1.20132e-07
-4.97082e-08
0.00113808
-2.11498e-07
1.28916e-06
2.73613e-07
8.54365e-07
-2.4107e-07
-9.01895e-07
1.9973e-07
0.00113751
2.52401e-08
-0.0011377
3.26079e-08
-1.2566e-06
2.32784e-07
-2.38388e-07
-8.38677e-07
2.48326e-07
-1.84706e-07
9.04314e-07
1.25926e-06
0.00113764
2.34167e-08
-0.00113783
4.33241e-08
-1.25594e-06
2.29305e-07
-2.41011e-07
-8.42339e-07
2.52403e-07
-1.85904e-07
9.11136e-07
-2.06744e-07
-2.08026e-07
0.000269084
-1.22449e-06
0.000271028
-0.000269023
2.3895e-07
2.3948e-07
-3.695e-08
0.00113897
-2.08606e-07
1.24673e-06
2.65901e-07
8.49084e-07
-2.38367e-07
-8.9623e-07
1.96798e-07
-1.23998e-06
1.23241e-07
-4.5056e-08
0.00113796
-2.09778e-07
1.28566e-06
2.6992e-07
8.51713e-07
-2.41276e-07
-8.99125e-07
1.99329e-07
0.00113853
2.59439e-08
-0.00113872
3.24892e-08
-1.21389e-06
2.27468e-07
-2.32835e-07
-8.38673e-07
2.48409e-07
-1.84869e-07
9.04167e-07
1.2576e-06
0.00113753
2.2656e-08
-0.00113772
3.90495e-08
-1.25247e-06
2.28245e-07
-2.37101e-07
-8.40603e-07
2.51761e-07
-1.86618e-07
9.07535e-07
1.12781e-07
-4.03313e-08
0.00113765
-2.11598e-07
1.27808e-06
2.66776e-07
8.51602e-07
-2.38361e-07
2.02417e-07
-8.94212e-07
3.08236e-08
-0.00113832
3.15712e-08
-1.21641e-06
2.23655e-07
-2.30434e-07
-8.40867e-07
2.51335e-07
9.06821e-07
-1.86737e-07
1.24889e-06
0.00113719
3.89538e-08
-0.00113739
5.21221e-08
-1.25025e-06
2.25026e-07
-2.40772e-07
-8.38174e-07
2.49873e-07
-1.87545e-07
9.03889e-07
-2.0533e-07
-2.08394e-07
0.000269071
-1.22319e-06
0.000271012
-0.000269009
2.37576e-07
2.39933e-07
1.13082e-07
-4.14129e-08
0.00113866
-2.032e-07
1.23573e-06
2.58934e-07
8.51471e-07
-2.38367e-07
2.02566e-07
-8.9404e-07
3.09256e-08
-0.00113822
2.83588e-08
-1.21277e-06
2.28349e-07
-2.3185e-07
-8.36466e-07
2.47521e-07
9.00086e-07
-1.85127e-07
1.20634e-06
0.0011382
3.78081e-08
-0.0011384
5.16826e-08
-1.20782e-06
2.17024e-07
-2.32588e-07
-8.37702e-07
2.50301e-07
-1.87282e-07
9.04032e-07
-0.000268997
2.30174e-07
2.40692e-07
1.28047e-06
1.23816e-06
-2.1968e-07
-2.27356e-07
0.000268965
-1.24549e-06
-1.20273e-06
0.000270836
-0.000268802
2.03213e-07
2.11197e-07
1.11379e-07
0.00113729
-2.67017e-07
1.23798e-06
2.03239e-07
8.98344e-07
-1.84216e-07
-8.3626e-07
2.39253e-07
-1.28208e-06
9.65942e-08
1.30272e-07
0.00113742
-2.71744e-07
1.23087e-06
1.98482e-07
9.04438e-07
-1.86177e-07
-8.40188e-07
2.4208e-07
0.00113689
2.36404e-07
-0.00113695
7.51069e-08
-1.2893e-06
2.2313e-07
-2.68748e-07
-9.02765e-07
1.6676e-07
-2.50098e-07
8.26482e-07
1.24544e-06
0.00113701
2.3736e-07
-0.00113707
6.6862e-08
-1.28529e-06
2.26827e-07
-2.66477e-07
-9.09097e-07
1.6793e-07
-2.54088e-07
8.30264e-07
-2.23331e-07
-2.27716e-07
0.000268955
-1.20589e-06
0.000270823
-0.000268789
2.06359e-07
2.10385e-07
1.12559e-07
0.00113831
-2.61868e-07
1.19519e-06
1.97556e-07
8.98551e-07
-1.84113e-07
-8.35909e-07
2.3961e-07
-1.27774e-06
9.22302e-08
1.23281e-07
0.00113731
-2.66684e-07
1.2299e-06
1.98173e-07
9.01374e-07
-1.86365e-07
-8.38224e-07
2.42263e-07
0.00113791
2.34471e-07
-0.00113797
7.54997e-08
-1.24722e-06
2.17687e-07
-2.6358e-07
-9.02158e-07
1.6724e-07
-2.49752e-07
8.26773e-07
1.24157e-06
0.0011369
2.37525e-07
-0.00113696
7.0889e-08
-1.28318e-06
2.21937e-07
-2.65022e-07
-9.05589e-07
1.68839e-07
-2.53314e-07
8.28696e-07
1.09714e-07
1.25418e-07
0.00113696
-2.67444e-07
1.22448e-06
1.98789e-07
8.95858e-07
-1.89363e-07
2.38473e-07
-8.37439e-07
2.32195e-07
-0.00113755
7.60269e-08
-1.24963e-06
2.16325e-07
-2.60118e-07
-9.04975e-07
1.69114e-07
8.29613e-07
-2.5316e-07
1.23888e-06
0.00113658
2.25396e-07
-0.00113663
5.70128e-08
-1.27432e-06
2.25697e-07
-2.61118e-07
-9.03164e-07
1.69411e-07
-2.5307e-07
8.26112e-07
-2.19089e-07
-2.26758e-07
0.000268943
-1.20154e-06
0.00027081
-0.000268779
2.02492e-07
2.09792e-07
1.08958e-07
1.25042e-07
0.00113797
-2.59235e-07
1.18201e-06
1.90809e-07
8.95894e-07
-1.89119e-07
2.38834e-07
-8.37048e-07
2.31013e-07
-0.00113746
7.88995e-08
-1.24782e-06
2.16631e-07
-2.64355e-07
-8.9846e-07
1.67972e-07
8.25756e-07
-2.49245e-07
1.19633e-06
0.00113758
2.25518e-07
-0.00113764
5.77357e-08
-1.23189e-06
2.17512e-07
-2.53076e-07
-9.0294e-07
1.69514e-07
-2.53111e-07
8.26043e-07
-0.000268773
2.03741e-07
2.14031e-07
1.24873e-06
1.20624e-06
-2.18538e-07
-2.26221e-07
0.000268826
-1.37141e-06
-1.32965e-06
0.000270993
-0.000268966
3.33204e-07
3.40735e-07
-6.00077e-08
0.00113687
-2.17456e-07
1.29353e-06
2.84024e-07
8.35544e-07
-2.53179e-07
-8.99744e-07
1.69379e-07
-1.24178e-06
1.11464e-07
-7.87937e-08
0.001137
-2.11891e-07
1.29592e-06
2.90024e-07
8.39572e-07
-2.57048e-07
-9.06177e-07
1.71357e-07
0.00113658
-3.87102e-07
-0.00113676
-2.80269e-07
-1.1404e-06
3.51823e-07
-1.12439e-07
-7.74752e-07
3.10544e-07
-1.27708e-07
9.65475e-07
1.36703e-06
0.00113671
-3.87174e-07
-0.00113689
-2.76965e-07
-1.13876e-06
3.49313e-07
-1.14262e-07
-7.79077e-07
3.14257e-07
-1.29412e-07
9.71671e-07
-2.19987e-07
-2.20307e-07
0.000268815
-1.33095e-06
0.000270987
-0.000268961
3.35018e-07
3.36382e-07
-6.11015e-08
0.00113789
-2.11872e-07
1.25123e-06
2.79017e-07
8.35588e-07
-2.53085e-07
-8.99428e-07
1.696e-07
-1.2409e-06
1.15246e-07
-7.09791e-08
0.00113688
-2.12263e-07
1.29102e-06
2.83944e-07
8.37693e-07
-2.56471e-07
-9.02669e-07
1.71629e-07
0.0011376
-3.85615e-07
-0.00113777
-2.82494e-07
-1.09727e-06
3.47147e-07
-1.06293e-07
-7.7507e-07
3.1038e-07
-1.2811e-07
9.64931e-07
1.36527e-06
0.00113659
-3.86173e-07
-0.00113677
-2.79152e-07
-1.13535e-06
3.48271e-07
-1.10177e-07
-7.77364e-07
3.13534e-07
-1.30155e-07
9.6801e-07
9.94118e-08
-7.82789e-08
0.00113657
-2.09291e-07
1.2869e-06
2.85977e-07
8.36474e-07
-2.55048e-07
1.73824e-07
-8.99021e-07
-3.87142e-07
-0.00113738
-2.81098e-07
-1.10068e-06
3.42471e-07
-1.04935e-07
-7.77248e-07
3.13853e-07
9.68041e-07
-1.29725e-07
1.35648e-06
0.00113628
-3.81587e-07
-0.00113646
-2.67139e-07
-1.13306e-06
3.44362e-07
-1.14287e-07
-7.73656e-07
3.13598e-07
-1.296e-07
9.66016e-07
-2.19565e-07
-2.21388e-07
0.000268803
-1.32967e-06
0.000270969
-0.000268945
3.33849e-07
3.36951e-07
9.86969e-08
-7.75232e-08
0.00113758
-2.01289e-07
1.24424e-06
2.77747e-07
8.36652e-07
-2.54999e-07
1.74051e-07
-8.98604e-07
-3.85427e-07
-0.00113727
-2.82182e-07
-1.09706e-06
3.47307e-07
-1.06178e-07
-7.72895e-07
3.09949e-07
9.61192e-07
-1.28182e-07
1.31438e-06
0.00113729
-3.82573e-07
-0.00113747
-2.69408e-07
-1.09042e-06
3.36918e-07
-1.05617e-07
-7.73329e-07
3.13878e-07
-1.29403e-07
9.65904e-07
-0.000268941
3.27368e-07
3.37882e-07
1.15766e-06
1.11477e-06
-1.07733e-07
-1.15523e-07
0.000268944
-1.22136e-06
-1.17843e-06
0.000270421
-0.000268493
2.32129e-07
2.40367e-07
-1.90245e-07
0.00113626
-1.36981e-07
1.34355e-06
3.18208e-07
9.92346e-07
-8.49404e-08
-7.40359e-07
3.47364e-07
-1.15826e-06
-3.69791e-07
-1.77876e-07
0.00113639
-1.41e-07
1.33736e-06
3.14055e-07
9.98468e-07
-8.68557e-08
-7.4456e-07
3.50574e-07
0.00113464
2.15029e-07
-0.00113524
1.93414e-07
-1.28516e-06
2.08862e-07
-2.58495e-07
-7.87291e-07
2.86983e-07
-1.18015e-07
9.25402e-07
1.21983e-06
0.00113476
2.14278e-07
-0.00113536
1.92193e-07
-1.28209e-06
2.1056e-07
-2.57197e-07
-7.92691e-07
2.89315e-07
-1.21086e-07
9.30172e-07
-1.1174e-07
-1.15323e-07
0.000268937
-1.18216e-06
0.000270407
-0.00026848
2.35918e-07
2.38639e-07
-1.91719e-07
0.00113728
-1.31119e-07
1.3015e-06
3.13199e-07
9.92087e-07
-8.50883e-08
-7.4049e-07
3.4748e-07
-1.15407e-06
-3.7172e-07
-1.82871e-07
0.00113627
-1.35941e-07
1.33615e-06
3.13654e-07
9.94941e-07
-8.72976e-08
-7.42875e-07
3.50319e-07
0.00113565
2.1254e-07
-0.00113626
1.94715e-07
-1.24329e-06
2.03057e-07
-2.53602e-07
-7.86324e-07
2.87716e-07
-1.17426e-07
9.26154e-07
1.21637e-06
0.00113465
2.13287e-07
-0.00113525
1.94088e-07
-1.27991e-06
2.06527e-07
-2.55635e-07
-7.8965e-07
2.89585e-07
-1.20776e-07
9.28134e-07
-3.62544e-07
-1.74496e-07
0.00113595
-1.38823e-07
1.32855e-06
3.11407e-07
9.92011e-07
-8.78874e-08
3.4923e-07
-7.40102e-07
2.14341e-07
-0.00113585
1.93444e-07
-1.24494e-06
2.01791e-07
-2.49304e-07
-7.8939e-07
2.89613e-07
9.28297e-07
-1.20836e-07
1.21318e-06
0.00113432
2.10566e-07
-0.00113492
1.8582e-07
-1.2717e-06
2.09443e-07
-2.52095e-07
-7.87217e-07
2.89813e-07
-1.2065e-07
9.25108e-07
-1.0733e-07
-1.14365e-07
0.000268922
-1.17842e-06
0.000270394
-0.00026847
2.32238e-07
2.38112e-07
-3.61932e-07
-1.77922e-07
0.00113696
-1.29771e-07
1.2869e-06
3.04276e-07
9.91487e-07
-8.79555e-08
3.49244e-07
-7.4019e-07
2.14193e-07
-0.00113575
1.93405e-07
-1.24283e-06
2.03141e-07
-2.53228e-07
-7.83798e-07
2.87522e-07
9.23488e-07
-1.17653e-07
1.17089e-06
0.00113532
2.11608e-07
-0.00113593
1.86159e-07
-1.22899e-06
2.0123e-07
-2.43926e-07
-7.87146e-07
2.89814e-07
-1.20866e-07
9.25031e-07
-0.00026846
2.32235e-07
2.42414e-07
1.3048e-06
1.26288e-06
-2.19027e-07
-2.26392e-07
0.000268299
-1.20154e-06
-1.1596e-06
0.000270289
-0.000268191
1.28195e-07
1.35149e-07
2.3267e-07
0.00113414
-2.74342e-07
1.20411e-06
1.91029e-07
8.69803e-07
-1.69391e-07
-8.36818e-07
2.28568e-07
-1.30034e-06
3.58171e-07
2.26177e-07
0.00113426
-2.72218e-07
1.20346e-06
1.93181e-07
8.74576e-07
-1.72277e-07
-8.42359e-07
2.31186e-07
0.00113422
3.5605e-07
-0.00113389
1.13594e-07
-1.3186e-06
1.68117e-07
-3.06887e-07
-9.9087e-07
6.16169e-08
-3.44867e-07
7.29642e-07
1.19867e-06
0.00113435
3.54408e-07
-0.00113401
1.14138e-07
-1.31605e-06
1.67528e-07
-3.07223e-07
-9.95854e-07
6.48221e-08
-3.47179e-07
7.35117e-07
-2.20594e-07
-2.22401e-07
0.000268286
-1.16223e-06
0.000270282
-0.000268184
1.30626e-07
1.32405e-07
2.34387e-07
0.00113515
-2.69374e-07
1.16134e-06
1.85346e-07
8.70238e-07
-1.68966e-07
-8.36009e-07
2.29079e-07
-1.29845e-06
3.58797e-07
2.28833e-07
0.00113415
-2.70747e-07
1.19998e-06
1.89292e-07
8.72522e-07
-1.72158e-07
-8.39167e-07
2.31213e-07
0.00113523
3.57946e-07
-0.0011349
1.13526e-07
-1.27588e-06
1.63086e-07
-3.01216e-07
-9.91206e-07
6.1281e-08
-3.45311e-07
7.28933e-07
1.19643e-06
0.00113423
3.5535e-07
-0.0011339
1.12201e-07
-1.31281e-06
1.65401e-07
-3.03973e-07
-9.93285e-07
6.46324e-08
-3.47355e-07
7.32254e-07
3.54511e-07
2.23349e-07
0.00113382
-2.68511e-07
1.19572e-06
1.90657e-07
8.69745e-07
-1.71534e-07
2.31883e-07
-8.36519e-07
3.57582e-07
-0.00113449
1.09672e-07
-1.2781e-06
1.63017e-07
-3.00891e-07
-9.93791e-07
6.44138e-08
7.31642e-07
-3.47559e-07
1.1894e-06
0.0011339
3.61124e-07
-0.00113357
1.17483e-07
-1.3085e-06
1.63724e-07
-3.05569e-07
-9.91216e-07
6.39035e-08
-3.47705e-07
7.28867e-07
-2.19334e-07
-2.22827e-07
0.000268275
-1.15936e-06
0.000270266
-0.000268171
1.28233e-07
1.32624e-07
3.53453e-07
2.2611e-07
0.00113482
-2.60959e-07
1.15276e-06
1.81848e-07
8.70131e-07
-1.71384e-07
2.32256e-07
-8.35945e-07
3.54864e-07
-0.0011344
1.11137e-07
-1.27573e-06
1.63078e-07
-3.01107e-07
-9.87637e-07
6.18205e-08
7.26804e-07
-3.44622e-07
1.14616e-06
0.00113491
3.57627e-07
-0.00113458
1.20005e-07
-1.26713e-06
1.54979e-07
-2.98245e-07
-9.90188e-07
6.46196e-08
-3.47132e-07
7.29468e-07
-0.000268163
1.23529e-07
1.34198e-07
1.31023e-06
1.26736e-06
-3.12278e-07
-3.20658e-07
0.000268345
-1.24126e-06
-1.1986e-06
0.000271116
-0.000269002
1.58662e-07
1.66599e-07
5.22665e-08
0.00113479
-3.05035e-07
1.21229e-06
1.72476e-07
7.21251e-07
-3.69832e-07
-1.00951e-06
4.56695e-08
-1.30846e-06
2.20136e-07
5.6122e-08
0.00113492
-3.06172e-07
1.20873e-06
1.71343e-07
7.26758e-07
-3.72303e-07
-1.01439e-06
4.8679e-08
0.00113695
-1.0191e-07
-0.00113629
-3.19428e-08
-1.28422e-06
1.98017e-07
-2.86929e-07
-9.60868e-07
1.11529e-07
-3.28176e-07
7.86798e-07
1.23841e-06
0.00113707
-9.87874e-08
-0.00113641
-3.04568e-08
-1.282e-06
1.97887e-07
-2.87242e-07
-9.66269e-07
1.13803e-07
-3.31241e-07
7.91655e-07
-3.1543e-07
-3.1842e-07
0.000268337
-1.20014e-06
0.000271104
-0.00026899
1.60696e-07
1.63802e-07
5.12729e-08
0.0011358
-2.99261e-07
1.17031e-06
1.67462e-07
7.20639e-07
-3.7029e-07
-1.00994e-06
4.5437e-08
-1.30522e-06
2.20506e-07
5.40237e-08
0.0011348
-3.02757e-07
1.20645e-06
1.692e-07
7.23744e-07
-3.72365e-07
-1.01208e-06