/*--------------------------------*- C++ -*----------------------------------*\
| =========                 |                                                 |
| \\      /  F ield         | OpenFOAM: The Open Source CFD Toolbox           |
|  \\    /   O peration     | Version:  v2012                                 |
|   \\  /    A nd           | Website:  www.openfoam.com                      |
|    \\/     M anipulation  |                                                 |
\*---------------------------------------------------------------------------*/
FoamFile
{
    version     2.0;
    format      ascii;
    class       volScalarField;
    location    "875";
    object      epsilon;
}
// * * * * * * * * * * * * * * * * * * * * * * * * * * * * * * * * * * * * * //

dimensions      [0 2 -3 0 0 0 0];


internalField   nonuniform List<scalar> 
171728
(
4.95567e-07
4.97331e-07
4.97331e-07
4.99575e-07
4.45573e-07
4.53736e-07
4.53738e-07
4.63711e-07
4.03752e-07
4.18514e-07
4.18515e-07
4.39411e-07
3.68363e-07
3.88554e-07
3.88556e-07
4.1767e-07
3.38014e-07
3.62105e-07
3.62107e-07
3.96085e-07
3.11645e-07
3.38275e-07
3.38278e-07
3.74584e-07
2.88472e-07
3.1664e-07
3.16643e-07
3.53713e-07
2.67922e-07
2.97024e-07
2.97027e-07
3.34152e-07
2.49579e-07
2.79373e-07
2.79376e-07
3.16488e-07
2.33136e-07
2.63682e-07
2.63685e-07
3.01169e-07
2.18365e-07
2.49959e-07
2.49962e-07
2.88506e-07
2.0509e-07
2.38205e-07
2.38209e-07
2.7872e-07
1.93171e-07
2.28421e-07
2.28427e-07
2.71923e-07
1.82498e-07
2.20623e-07
2.20626e-07
2.68254e-07
1.72979e-07
2.14796e-07
2.14802e-07
2.67758e-07
1.64542e-07
2.1096e-07
2.10969e-07
2.7068e-07
1.57122e-07
2.09153e-07
2.09124e-07
2.7686e-07
1.50668e-07
2.09333e-07
2.09333e-07
2.86386e-07
1.45138e-07
2.11528e-07
2.11521e-07
2.98949e-07
1.40488e-07
2.15918e-07
2.15913e-07
3.15277e-07
1.36698e-07
2.22312e-07
2.22318e-07
3.35371e-07
1.3374e-07
2.30874e-07
2.30888e-07
3.58176e-07
1.31594e-07
2.41427e-07
2.41579e-07
3.84469e-07
1.30265e-07
2.54356e-07
2.54424e-07
4.13766e-07
1.297e-07
2.69368e-07
2.69061e-07
4.44559e-07
1.29919e-07
2.85913e-07
2.85953e-07
4.79602e-07
1.30906e-07
3.04509e-07
3.04547e-07
5.13764e-07
1.32664e-07
3.24939e-07
3.2487e-07
5.50486e-07
1.35166e-07
3.47118e-07
3.47254e-07
5.88672e-07
1.38484e-07
3.70732e-07
3.70765e-07
6.25431e-07
1.4255e-07
3.95755e-07
3.95879e-07
6.632e-07
1.47374e-07
4.22119e-07
4.2206e-07
7.01066e-07
1.5299e-07
4.49352e-07
4.49365e-07
7.37976e-07
1.59392e-07
4.77519e-07
4.77568e-07
7.73947e-07
1.6659e-07
5.06451e-07
5.06503e-07
8.08929e-07
1.74584e-07
5.3591e-07
5.35959e-07
8.42979e-07
1.83371e-07
5.65729e-07
5.65816e-07
8.7581e-07
1.92945e-07
5.95771e-07
5.95799e-07
9.07386e-07
2.03303e-07
6.25739e-07
6.25839e-07
9.37843e-07
2.14427e-07
6.55652e-07
6.55731e-07
9.67016e-07
2.26282e-07
6.85248e-07
6.85302e-07
9.95034e-07
2.38866e-07
7.14378e-07
7.1447e-07
1.02186e-06
2.52128e-07
7.43027e-07
7.43108e-07
1.0475e-06
2.66025e-07
7.70944e-07
7.71041e-07
1.07205e-06
2.80509e-07
7.98166e-07
7.98247e-07
1.09547e-06
2.95523e-07
8.24516e-07
8.24606e-07
1.11792e-06
3.10993e-07
8.49952e-07
8.50065e-07
1.13922e-06
3.26861e-07
8.74492e-07
8.74577e-07
1.15961e-06
3.43041e-07
8.98007e-07
8.98101e-07
1.179e-06
3.5944e-07
9.20474e-07
9.20585e-07
1.19746e-06
3.76033e-07
9.42062e-07
9.42144e-07
1.2151e-06
3.92648e-07
9.62431e-07
9.62532e-07
1.23167e-06
4.09266e-07
9.81839e-07
9.81955e-07
1.24738e-06
4.25807e-07
1.00037e-06
1.00047e-06
1.26255e-06
4.4223e-07
1.01789e-06
1.01799e-06
1.27681e-06
4.58317e-07
1.0342e-06
1.0343e-06
1.28994e-06
4.74132e-07
1.04976e-06
1.04986e-06
1.30273e-06
4.89703e-07
1.06449e-06
1.06461e-06
1.31484e-06
5.04725e-07
1.07801e-06
1.07809e-06
1.32597e-06
5.19261e-07
1.09064e-06
1.09078e-06
1.33608e-06
5.33555e-07
1.10317e-06
1.10321e-06
1.34695e-06
5.46964e-07
1.11355e-06
1.11367e-06
1.35548e-06
5.59929e-07
1.12391e-06
1.12407e-06
1.36362e-06
5.72499e-07
1.13386e-06
1.13387e-06
1.37269e-06
5.84314e-07
1.14242e-06
1.14253e-06
1.37992e-06
5.95491e-07
1.15041e-06
1.15054e-06
1.38658e-06
6.05882e-07
1.15746e-06
1.15756e-06
1.39267e-06
6.15796e-07
1.16419e-06
1.16424e-06
1.39862e-06
6.25118e-07
1.17009e-06
1.17022e-06
1.40381e-06
6.33633e-07
1.17524e-06
1.17535e-06
1.40803e-06
6.41907e-07
1.18082e-06
1.18086e-06
1.41411e-06
6.49088e-07
1.18417e-06
1.18431e-06
1.4166e-06
6.55471e-07
1.18722e-06
1.18728e-06
1.41904e-06
6.61795e-07
1.19067e-06
1.19081e-06
1.42283e-06
6.67318e-07
1.19327e-06
1.19339e-06
1.42537e-06
6.72217e-07
1.19507e-06
1.19508e-06
1.42708e-06
6.76518e-07
1.1964e-06
1.19655e-06
1.42893e-06
6.80255e-07
1.19727e-06
1.19741e-06
1.42943e-06
6.83522e-07
1.19794e-06
1.19792e-06
1.4309e-06
6.86165e-07
1.19781e-06
1.19808e-06
1.43126e-06
6.88354e-07
1.19706e-06
1.19715e-06
1.42985e-06
6.90201e-07
1.19657e-06
1.19652e-06
1.4298e-06
6.91481e-07
1.19618e-06
1.19645e-06
1.43109e-06
6.93223e-07
1.19553e-06
1.19557e-06
1.43206e-06
6.93143e-07
1.1913e-06
1.1913e-06
1.42525e-06
6.92162e-07
1.18854e-06
1.18913e-06
1.42214e-06
6.93427e-07
1.19033e-06
1.18988e-06
1.42989e-06
6.9396e-07
1.18743e-06
1.1873e-06
1.42584e-06
6.90249e-07
1.17864e-06
1.1809e-06
1.41191e-06
6.9133e-07
1.18114e-06
1.17935e-06
1.42108e-06
6.95239e-07
1.18647e-06
1.183e-06
1.42718e-06
6.87109e-07
1.16858e-06
1.17367e-06
1.40844e-06
6.76891e-07
1.15183e-06
1.15284e-06
1.37765e-06
6.85683e-07
1.17313e-06
1.16852e-06
1.42453e-06
6.69733e-07
1.11262e-06
1.11655e-06
1.39729e-06
5.06417e-07
5.05584e-07
5.05582e-07
5.06417e-07
5.05583e-07
5.05583e-07
5.09649e-07
5.09649e-07
5.09649e-07
5.09649e-07
5.05584e-07
5.05584e-07
5.06417e-07
5.05584e-07
5.05583e-07
5.06418e-07
4.99575e-07
4.67236e-07
4.97331e-07
4.97335e-07
4.63713e-07
4.63721e-07
4.99575e-07
4.67237e-07
4.97334e-07
4.97335e-07
4.63718e-07
4.63723e-07
4.97332e-07
4.6371e-07
4.63715e-07
4.99575e-07
4.67239e-07
4.97334e-07
4.63711e-07
4.63719e-07
4.67243e-07
4.63708e-07
4.41422e-07
4.53739e-07
4.53748e-07
4.26738e-07
4.26747e-07
4.63709e-07
4.41422e-07
4.53743e-07
4.5375e-07
4.26738e-07
4.26749e-07
4.53743e-07
4.26732e-07
4.26742e-07
4.6371e-07
4.41428e-07
4.53745e-07
4.26734e-07
4.26742e-07
4.41434e-07
4.39404e-07
4.19278e-07
4.18521e-07
4.1853e-07
3.95675e-07
3.95684e-07
4.39408e-07
4.19279e-07
4.18521e-07
4.18533e-07
3.9567e-07
3.95686e-07
4.18526e-07
3.95665e-07
3.9568e-07
4.39409e-07
4.19285e-07
4.18525e-07
3.95668e-07
3.95675e-07
4.19293e-07
4.17658e-07
3.9764e-07
3.88564e-07
3.88573e-07
3.6846e-07
3.68468e-07
4.1766e-07
3.97641e-07
3.88558e-07
3.88576e-07
3.6845e-07
3.6847e-07
3.8857e-07
3.68447e-07
3.68466e-07
4.17664e-07
3.97647e-07
3.88564e-07
3.68449e-07
3.68455e-07
3.97655e-07
3.96071e-07
3.7608e-07
3.62118e-07
3.62126e-07
3.44031e-07
3.44038e-07
3.96073e-07
3.76081e-07
3.62108e-07
3.62129e-07
3.44017e-07
3.44041e-07
3.62124e-07
3.44016e-07
3.44037e-07
3.96078e-07
3.76087e-07
3.62113e-07
3.44018e-07
3.44023e-07
3.76096e-07
3.7457e-07
3.55105e-07
3.38291e-07
3.38298e-07
3.21873e-07
3.21879e-07
3.74572e-07
3.55107e-07
3.38277e-07
3.38301e-07
3.21856e-07
3.21881e-07
3.38297e-07
3.21856e-07
3.21879e-07
3.74577e-07
3.55113e-07
3.38283e-07
3.21858e-07
3.21862e-07
3.55122e-07
3.537e-07
3.35389e-07
3.16658e-07
3.16664e-07
3.01762e-07
3.01767e-07
3.53702e-07
3.35391e-07
3.16641e-07
3.16666e-07
3.01743e-07
3.01769e-07
3.16664e-07
3.01743e-07
3.01767e-07
3.53706e-07
3.35396e-07
3.16647e-07
3.01746e-07
3.01748e-07
3.35408e-07
3.34136e-07
3.17529e-07
2.97043e-07
2.97048e-07
2.83622e-07
2.83626e-07
3.3414e-07
3.1753e-07
2.97024e-07
2.9705e-07
2.83601e-07
2.83628e-07
2.97048e-07
2.83602e-07
2.83627e-07
3.34142e-07
3.17536e-07
2.97029e-07
2.83605e-07
2.83607e-07
3.17544e-07
3.16475e-07
3.01972e-07
2.79393e-07
2.79398e-07
2.67441e-07
2.67446e-07
3.16476e-07
3.01973e-07
2.79372e-07
2.79399e-07
2.67419e-07
2.67447e-07
2.79398e-07
2.67421e-07
2.67446e-07
3.16481e-07
3.01978e-07
2.79377e-07
2.67423e-07
2.67424e-07
3.0199e-07
3.01153e-07
2.89044e-07
2.63703e-07
2.63708e-07
2.53227e-07
2.53232e-07
3.01156e-07
2.89044e-07
2.63681e-07
2.63709e-07
2.53203e-07
2.53233e-07
2.63708e-07
2.53205e-07
2.53231e-07
3.01159e-07
2.89049e-07
2.63686e-07
2.53208e-07
2.53208e-07
2.89061e-07
2.8849e-07
2.78961e-07
2.49982e-07
2.49987e-07
2.40982e-07
2.40987e-07
2.88492e-07
2.78966e-07
2.49958e-07
2.49988e-07
2.40957e-07
2.40988e-07
2.49986e-07
2.40959e-07
2.40986e-07
2.88494e-07
2.7897e-07
2.49963e-07
2.40961e-07
2.40962e-07
2.78982e-07
2.78702e-07
2.71861e-07
2.3823e-07
2.38235e-07
2.30706e-07
2.30713e-07
2.78707e-07
2.71866e-07
2.38204e-07
2.38236e-07
2.3068e-07
2.30714e-07
2.38235e-07
2.30684e-07
2.30711e-07
2.78711e-07
2.71873e-07
2.3821e-07
2.30685e-07
2.30685e-07
2.71884e-07
2.71903e-07
2.67918e-07
2.28448e-07
2.28455e-07
2.22407e-07
2.22422e-07
2.71911e-07
2.67959e-07
2.28421e-07
2.28457e-07
2.22379e-07
2.2242e-07
2.28454e-07
2.2239e-07
2.22415e-07
2.71914e-07
2.67949e-07
2.28427e-07
2.22386e-07
2.22387e-07
2.67961e-07
2.68214e-07
2.67026e-07
2.20647e-07
2.20662e-07
2.16085e-07
2.16106e-07
2.68261e-07
2.67112e-07
2.20617e-07
2.2066e-07
2.16054e-07
2.16107e-07
2.20655e-07
2.16072e-07
2.16099e-07
2.68245e-07
2.671e-07
2.20626e-07
2.16068e-07
2.16068e-07
2.67105e-07
2.67688e-07
2.69251e-07
2.14825e-07
2.14839e-07
2.11762e-07
2.11776e-07
2.67765e-07
2.69276e-07
2.14794e-07
2.14842e-07
2.11731e-07
2.11786e-07
2.14837e-07
2.11736e-07
2.11779e-07
2.67762e-07
2.69335e-07
2.14805e-07
2.1174e-07
2.11746e-07
2.6936e-07
2.70603e-07
2.74761e-07
2.11004e-07
2.11007e-07
2.09432e-07
2.09454e-07
2.7057e-07
2.74795e-07
2.10973e-07
2.11015e-07
2.094e-07
2.09439e-07
2.11017e-07
2.09403e-07
2.09437e-07
2.70649e-07
2.74695e-07
2.10985e-07
2.09384e-07
2.09403e-07
2.74819e-07
2.76806e-07
2.83696e-07
2.09171e-07
2.09207e-07
2.09149e-07
2.09196e-07
2.76872e-07
2.83823e-07
2.09139e-07
2.09178e-07
2.09111e-07
2.09185e-07
2.09197e-07
2.09134e-07
2.09165e-07
2.76715e-07
2.83752e-07
2.09163e-07
2.09126e-07
2.09128e-07
2.83731e-07
2.86419e-07
2.95901e-07
2.09375e-07
2.09402e-07
2.10873e-07
2.10811e-07
2.86441e-07
2.95435e-07
2.09333e-07
2.09392e-07
2.10833e-07
2.10841e-07
2.09373e-07
2.10742e-07
2.10817e-07
2.86393e-07
2.95557e-07
2.09335e-07
2.10774e-07
2.10777e-07
2.95621e-07
2.99323e-07
3.11885e-07
2.11613e-07
2.11601e-07
2.14741e-07
2.14695e-07
2.98889e-07
3.11514e-07
2.11573e-07
2.11591e-07
2.14704e-07
2.14717e-07
2.11578e-07
2.14618e-07
2.14619e-07
2.98963e-07
3.1157e-07
2.11538e-07
2.14635e-07
2.14576e-07
3.11171e-07
3.15955e-07
3.30101e-07
2.16003e-07
2.15999e-07
2.20522e-07
2.20552e-07
3.15607e-07
3.30167e-07
2.15963e-07
2.15998e-07
2.20482e-07
2.20623e-07
2.15928e-07
2.20466e-07
2.20581e-07
3.15693e-07
3.3049e-07
2.15885e-07
2.20531e-07
2.20537e-07
3.30464e-07
3.34845e-07
3.52734e-07
2.22321e-07
2.22401e-07
2.28614e-07
2.28634e-07
3.34986e-07
3.52768e-07
2.22276e-07
2.22411e-07
2.2856e-07
2.28642e-07
2.22424e-07
2.28534e-07
2.28635e-07
3.35229e-07
3.52777e-07
2.22379e-07
2.28541e-07
2.28586e-07
3.52896e-07
3.58129e-07
3.77954e-07
2.30922e-07
2.30978e-07
2.38715e-07
2.38712e-07
3.58181e-07
3.77811e-07
2.30864e-07
2.30991e-07
2.38653e-07
2.38832e-07
2.30936e-07
2.38599e-07
2.3878e-07
3.58284e-07
3.78403e-07
2.30885e-07
2.38719e-07
2.38726e-07
3.78358e-07
3.84014e-07
4.06464e-07
2.41568e-07
2.41543e-07
2.50979e-07
2.51022e-07
3.83758e-07
4.06497e-07
2.41501e-07
2.41695e-07
2.50911e-07
2.51176e-07
2.41643e-07
2.50901e-07
2.51076e-07
3.84507e-07
4.07328e-07
2.41587e-07
2.51053e-07
2.51019e-07
4.07093e-07
4.13487e-07
4.38404e-07
2.54442e-07
2.5448e-07
2.65475e-07
2.65584e-07
4.13445e-07
4.38851e-07
2.5437e-07
2.54548e-07
2.65399e-07
2.65346e-07
2.54454e-07
2.65447e-07
2.65266e-07
4.14018e-07
4.37527e-07
2.54397e-07
2.65208e-07
2.65204e-07
4.37358e-07
4.45456e-07
4.70924e-07
2.69298e-07
2.6951e-07
2.8164e-07
2.8179e-07
4.4624e-07
4.71388e-07
2.69215e-07
2.69201e-07
2.81549e-07
2.81684e-07
2.69155e-07
2.81645e-07
2.81801e-07
4.44644e-07
4.70942e-07
2.69089e-07
2.81538e-07
2.81725e-07
4.71763e-07
4.78713e-07
5.05734e-07
2.86027e-07
2.8606e-07
2.9983e-07
2.99768e-07
4.78761e-07
5.05289e-07
2.85932e-07
2.86099e-07
2.99737e-07
2.99915e-07
2.86202e-07
2.99613e-07
2.99833e-07
4.78823e-07
5.06025e-07
2.86126e-07
2.99759e-07
2.99756e-07
5.05848e-07
5.13794e-07
5.42384e-07
3.04662e-07
3.04667e-07
3.19897e-07
3.19846e-07
5.13602e-07
5.42012e-07
3.04562e-07
3.04703e-07
3.19792e-07
3.1975e-07
3.04638e-07
3.1968e-07
3.1981e-07
5.13945e-07
5.41409e-07
3.04558e-07
3.19583e-07
3.1972e-07
5.41953e-07
5.50992e-07
5.78661e-07
3.25231e-07
3.25111e-07
3.41439e-07
3.4168e-07
5.50385e-07
5.79488e-07
3.25118e-07
3.2504e-07
3.41322e-07
3.41759e-07
3.25129e-07
3.41504e-07
3.41741e-07
5.49866e-07
5.7988e-07
3.25035e-07
3.41584e-07
3.41641e-07
5.80047e-07
5.87016e-07
6.16782e-07
3.47048e-07
3.47293e-07
3.64809e-07
3.64813e-07
5.88021e-07
6.16555e-07
3.46927e-07
3.47425e-07
3.64687e-07
3.64877e-07
3.47428e-07
3.64633e-07
3.64803e-07
5.88512e-07
6.16766e-07
3.47327e-07
3.64699e-07
3.64695e-07
6.16757e-07
6.25842e-07
6.55035e-07
3.70958e-07
3.70917e-07
3.89668e-07
3.89588e-07
6.25522e-07
6.54538e-07
3.70825e-07
3.70946e-07
3.89535e-07
3.89738e-07
3.70832e-07
3.89398e-07
3.89529e-07
6.25601e-07
6.55035e-07
3.7072e-07
3.89548e-07
3.8941e-07
6.54441e-07
6.63787e-07
6.92037e-07
3.96017e-07
3.95947e-07
4.15529e-07
4.15632e-07
6.63364e-07
6.92327e-07
3.95876e-07
3.96068e-07
4.15385e-07
4.15561e-07
3.9587e-07
4.15435e-07
4.15499e-07
6.63814e-07
6.91941e-07
3.95749e-07
4.15367e-07
4.15368e-07
6.92006e-07
7.00875e-07
7.28914e-07
4.22188e-07
4.22316e-07
4.42593e-07
4.42653e-07
7.01276e-07
7.29e-07
4.22035e-07
4.22251e-07
4.42439e-07
4.42639e-07
4.22241e-07
4.42457e-07
4.42676e-07
7.00867e-07
7.28886e-07
4.22107e-07
4.42445e-07
4.42535e-07
7.29232e-07
7.37719e-07
7.64939e-07
4.49509e-07
4.49549e-07
4.7057e-07
4.70601e-07
7.37777e-07
7.64949e-07
4.49346e-07
4.49557e-07
4.70405e-07
4.70636e-07
4.49575e-07
4.70401e-07
4.7064e-07
7.37703e-07
7.65024e-07
4.4943e-07
4.70438e-07
4.70486e-07
7.65223e-07
7.73665e-07
8.00188e-07
4.77694e-07
4.77719e-07
4.99331e-07
4.99352e-07
7.73693e-07
8.00185e-07
4.77521e-07
4.77762e-07
4.99159e-07
4.99411e-07
4.77768e-07
4.99153e-07
4.99378e-07
7.73761e-07
8.00291e-07
4.77613e-07
4.99215e-07
4.99217e-07
8.0035e-07
8.088e-07
8.34379e-07
5.06629e-07
5.0665e-07
5.28692e-07
5.28699e-07
8.08823e-07
8.34376e-07
5.06449e-07
5.06697e-07
5.28512e-07
5.28755e-07
5.06662e-07
5.28502e-07
5.2874e-07
8.0889e-07
8.34421e-07
5.06498e-07
5.2856e-07
5.28568e-07
8.34554e-07
8.42793e-07
8.67429e-07
5.36098e-07
5.36107e-07
5.58456e-07
5.58443e-07
8.4281e-07
8.67373e-07
5.3591e-07
5.3615e-07
5.58269e-07
5.58525e-07
5.36156e-07
5.58249e-07
5.58498e-07
8.42834e-07
8.67512e-07
5.35982e-07
5.58333e-07
5.58319e-07
8.67601e-07
8.75635e-07
8.99252e-07
5.65932e-07
5.65921e-07
5.88417e-07
5.88451e-07
8.75602e-07
8.99361e-07
5.65739e-07
5.66003e-07
5.88224e-07
5.88472e-07
5.65984e-07
5.88261e-07
5.8847e-07
8.75731e-07
8.99294e-07
5.65804e-07
5.88285e-07
5.88283e-07
8.99406e-07
9.0724e-07
9.29885e-07
5.95933e-07
5.95959e-07
6.18448e-07
6.1843e-07
9.07359e-07
9.29847e-07
5.95732e-07
5.95982e-07
6.1825e-07
6.1852e-07
5.95976e-07
6.18247e-07
6.18524e-07
9.07291e-07
9.29982e-07
5.95787e-07
6.1834e-07
6.1833e-07
9.30117e-07
9.3767e-07
9.5946e-07
6.25958e-07
6.25918e-07
6.48424e-07
6.48378e-07
9.37609e-07
9.59369e-07
6.25753e-07
6.26014e-07
6.48224e-07
6.4846e-07
6.26014e-07
6.48199e-07
6.48424e-07
9.37743e-07
9.59465e-07
6.25821e-07
6.48285e-07
6.48226e-07
9.59483e-07
9.66947e-07
9.87548e-07
6.55861e-07
6.55825e-07
6.78039e-07
6.78054e-07
9.66908e-07
9.8766e-07
6.55654e-07
6.55902e-07
6.77834e-07
6.78103e-07
6.55883e-07
6.77883e-07
6.7812e-07
9.66976e-07
9.8765e-07
6.55686e-07
6.77937e-07
6.77919e-07
9.87771e-07
9.94847e-07
1.0147e-06
6.85404e-07
6.85412e-07
7.07341e-07
7.07299e-07
9.94953e-07
1.01463e-06
6.85192e-07
6.85462e-07
7.07134e-07
7.07385e-07
6.85478e-07
7.0714e-07
7.07395e-07
9.94941e-07
1.01472e-06
6.85276e-07
7.07227e-07
7.07193e-07
1.01483e-06
1.02175e-06
1.04057e-06
7.14586e-07
7.14535e-07
7.36095e-07
7.36076e-07
1.02167e-06
1.04063e-06
7.14376e-07
7.14622e-07
7.35891e-07
7.36159e-07
7.14639e-07
7.35927e-07
7.36146e-07
1.02176e-06
1.04069e-06
7.14437e-07
7.3601e-07
7.35944e-07
1.04071e-06
1.04738e-06
1.06538e-06
7.43188e-07
7.43174e-07
7.64225e-07
7.64169e-07
1.04744e-06
1.06532e-06
7.42981e-07
7.43251e-07
7.64022e-07
7.64261e-07
7.43241e-07
7.6403e-07
7.64273e-07
1.04749e-06
1.0654e-06
7.43037e-07
7.64121e-07
7.64069e-07
1.06549e-06
1.07194e-06
1.08901e-06
7.7114e-07
7.7108e-07
7.91597e-07
7.91557e-07
1.07189e-06
1.08903e-06
7.70934e-07
7.71175e-07
7.91396e-07
7.91651e-07
7.71191e-07
7.9143e-07
7.91654e-07
1.07197e-06
1.0891e-06
7.70987e-07
7.91521e-07
7.91451e-07
1.08914e-06
1.09537e-06
1.11166e-06
7.98324e-07
7.98291e-07
8.18187e-07
8.1814e-07
1.0954e-06
1.11167e-06
7.9812e-07
7.98371e-07
8.17985e-07
8.18222e-07
7.98376e-07
8.18024e-07
8.18243e-07
1.09544e-06
1.11172e-06
7.98173e-07
8.181e-07
8.18039e-07
1.11181e-06
1.11778e-06
1.13324e-06
8.24688e-07
8.24629e-07
8.43859e-07
8.43773e-07
1.11776e-06
1.13317e-06
8.24483e-07
8.24721e-07
8.4366e-07
8.43902e-07
8.24753e-07
8.4367e-07
8.43908e-07
1.11783e-06
1.13331e-06
8.24549e-07
8.43791e-07
8.43707e-07
1.13334e-06
1.13915e-06
1.15381e-06
8.50136e-07
8.50053e-07
8.68609e-07
8.68544e-07
1.13909e-06
1.15381e-06
8.49933e-07
8.5017e-07
8.68408e-07
8.68638e-07
8.50176e-07
8.68452e-07
8.68651e-07
1.1392e-06
1.15387e-06
8.49975e-07
8.68536e-07
8.6845e-07
1.15393e-06
1.15951e-06
1.17342e-06
8.74647e-07
8.74581e-07
8.92381e-07
8.92308e-07
1.15951e-06
1.17343e-06
8.74443e-07
8.74674e-07
8.9218e-07
8.92415e-07
8.7469e-07
8.92228e-07
8.92424e-07
1.15957e-06
1.1735e-06
8.74489e-07
8.92321e-07
8.92225e-07
1.17353e-06
1.1789e-06
1.19203e-06
8.98159e-07
8.98084e-07
9.15108e-07
9.15012e-07
1.17891e-06
1.19199e-06
8.97955e-07
8.98189e-07
9.14908e-07
9.15135e-07
8.98208e-07
9.14944e-07
9.1517e-07
1.17897e-06
1.1921e-06
8.98009e-07
9.1505e-07
9.14972e-07
1.19218e-06
1.19734e-06
1.2099e-06
9.20644e-07
9.2054e-07
9.3691e-07
9.36823e-07
1.19728e-06
1.20991e-06
9.2044e-07
9.20665e-07
9.36711e-07
9.36935e-07
9.20699e-07
9.36764e-07
9.36941e-07
1.19739e-06
1.20998e-06
9.20502e-07
9.36856e-07
9.36745e-07
1.20999e-06
1.21502e-06
1.22668e-06
9.42197e-07
9.4212e-07
9.57591e-07
9.57501e-07
1.21504e-06
1.22668e-06
9.41993e-07
9.42218e-07
9.5739e-07
9.57611e-07
9.4223e-07
9.57451e-07
9.57643e-07
1.21509e-06
1.22675e-06
9.42034e-07
9.5754e-07
9.57446e-07
1.22681e-06
1.23155e-06
1.24256e-06
9.62583e-07
9.62478e-07
9.77233e-07
9.77104e-07
1.23154e-06
1.24249e-06
9.62378e-07
9.62597e-07
9.77034e-07
9.77249e-07
9.62632e-07
9.77062e-07
9.77257e-07
1.23162e-06
1.24263e-06
9.62436e-07
9.77184e-07
9.77063e-07
1.24264e-06
1.24731e-06
1.25786e-06
9.82006e-07
9.8188e-07
9.95972e-07
9.95861e-07
1.24724e-06
1.25785e-06
9.81803e-07
9.82016e-07
9.95771e-07
9.9598e-07
9.82029e-07
9.95828e-07
9.96009e-07
1.24737e-06
1.25793e-06
9.81835e-07
9.95923e-07
9.95815e-07
1.25796e-06
1.26247e-06
1.27232e-06
1.00052e-06
1.00041e-06
1.01377e-06
1.01365e-06
1.26247e-06
1.27229e-06
1.00031e-06
1.00052e-06
1.01357e-06
1.01378e-06
1.00055e-06
1.01362e-06
1.0138e-06
1.26253e-06
1.27239e-06
1.00036e-06
1.01372e-06
1.01361e-06
1.27245e-06
1.27668e-06
1.28566e-06
1.01803e-06
1.01791e-06
1.03035e-06
1.03023e-06
1.27665e-06
1.28563e-06
1.01783e-06
1.01804e-06
1.03015e-06
1.03036e-06
1.01807e-06
1.03021e-06
1.03039e-06
1.27676e-06
1.28573e-06
1.01788e-06
1.03031e-06
1.0302e-06
1.28576e-06
1.28988e-06
1.29852e-06
1.03434e-06
1.03422e-06
1.04608e-06
1.04596e-06
1.28987e-06
1.29851e-06
1.03414e-06
1.03434e-06
1.04588e-06
1.04608e-06
1.03437e-06
1.04594e-06
1.04609e-06
1.28995e-06
1.29856e-06
1.03418e-06
1.04603e-06
1.0459e-06
1.29861e-06
1.30262e-06
1.31079e-06
1.0499e-06
1.04978e-06
1.06105e-06
1.06092e-06
1.3026e-06
1.31074e-06
1.0497e-06
1.0499e-06
1.06085e-06
1.06106e-06
1.04993e-06
1.0609e-06
1.06107e-06
1.30267e-06
1.3109e-06
1.04974e-06
1.06103e-06
1.06088e-06
1.31089e-06
1.31479e-06
1.32214e-06
1.06464e-06
1.06451e-06
1.07491e-06
1.07479e-06
1.31474e-06
1.32214e-06
1.06443e-06
1.06465e-06
1.07471e-06
1.07489e-06
1.06465e-06
1.07478e-06
1.07495e-06
1.31489e-06
1.32217e-06
1.06446e-06
1.07485e-06
1.07477e-06
1.32227e-06
1.32579e-06
1.3323e-06
1.07815e-06
1.07803e-06
1.08761e-06
1.08746e-06
1.32579e-06
1.33222e-06
1.07794e-06
1.07812e-06
1.08741e-06
1.08762e-06
1.07823e-06
1.08746e-06
1.08765e-06
1.32581e-06
1.33238e-06
1.07804e-06
1.08759e-06
1.08746e-06
1.33242e-06
1.33607e-06
1.34341e-06
1.09079e-06
1.09064e-06
1.1003e-06
1.1002e-06
1.33599e-06
1.34344e-06
1.09059e-06
1.09081e-06
1.10011e-06
1.10031e-06
1.09077e-06
1.10018e-06
1.1002e-06
1.33616e-06
1.34349e-06
1.09058e-06
1.10026e-06
1.10002e-06
1.34326e-06
1.34701e-06
1.35191e-06
1.10326e-06
1.10319e-06
1.1112e-06
1.11107e-06
1.34709e-06
1.35188e-06
1.10307e-06
1.10325e-06
1.11099e-06
1.11116e-06
1.10325e-06
1.11108e-06
1.11142e-06
1.34706e-06
1.35192e-06
1.10306e-06
1.11115e-06
1.11122e-06
1.3524e-06
1.35505e-06
1.36038e-06
1.1137e-06
1.11353e-06
1.12143e-06
1.12124e-06
1.35496e-06
1.36024e-06
1.1135e-06
1.11368e-06
1.12124e-06
1.12146e-06
1.1139e-06
1.12124e-06
1.12135e-06
1.35508e-06
1.3605e-06
1.1137e-06
1.12143e-06
1.12118e-06
1.36027e-06
1.36386e-06
1.36947e-06
1.12408e-06
1.12392e-06
1.13164e-06
1.13156e-06
1.36375e-06
1.36955e-06
1.12389e-06
1.1241e-06
1.13144e-06
1.13161e-06
1.12392e-06
1.13155e-06
1.13157e-06
1.36397e-06
1.36949e-06
1.12375e-06
1.13157e-06
1.13138e-06
1.36942e-06
1.3726e-06
1.37662e-06
1.13394e-06
1.13387e-06
1.14044e-06
1.14031e-06
1.37269e-06
1.37661e-06
1.13374e-06
1.1339e-06
1.14024e-06
1.14042e-06
1.13397e-06
1.14033e-06
1.14061e-06
1.37261e-06
1.37669e-06
1.13378e-06
1.14041e-06
1.14042e-06
1.377e-06
1.37964e-06
1.38378e-06
1.14254e-06
1.1424e-06
1.14866e-06
1.14849e-06
1.3796e-06
1.3837e-06
1.14234e-06
1.14253e-06
1.14847e-06
1.14866e-06
1.14266e-06
1.14849e-06
1.14857e-06
1.37971e-06
1.38385e-06
1.14248e-06
1.14863e-06
1.14839e-06
1.38366e-06
1.38674e-06
1.38986e-06
1.15059e-06
1.15042e-06
1.1559e-06
1.15577e-06
1.38666e-06
1.38982e-06
1.1504e-06
1.15057e-06
1.15571e-06
1.1559e-06
1.15047e-06
1.15577e-06
1.15591e-06
1.38679e-06
1.38993e-06
1.1503e-06
1.15587e-06
1.15573e-06
1.38996e-06
1.39254e-06
1.39558e-06
1.15757e-06
1.15745e-06
1.16259e-06
1.1625e-06
1.39252e-06
1.39564e-06
1.15738e-06
1.15757e-06
1.1624e-06
1.16258e-06
1.15762e-06
1.16252e-06
1.16269e-06
1.39262e-06
1.39567e-06
1.15744e-06
1.16258e-06
1.16251e-06
1.39581e-06
1.3984e-06
1.4013e-06
1.16427e-06
1.16417e-06
1.16893e-06
1.16877e-06
1.39846e-06
1.40121e-06
1.16407e-06
1.16424e-06
1.16875e-06
1.1689e-06
1.16436e-06
1.16877e-06
1.16896e-06
1.39846e-06
1.4013e-06
1.16417e-06
1.16888e-06
1.16878e-06
1.40143e-06
1.40378e-06
1.40552e-06
1.17027e-06
1.17009e-06
1.17402e-06
1.17389e-06
1.40365e-06
1.40546e-06
1.17009e-06
1.17024e-06
1.17384e-06
1.17405e-06
1.17024e-06
1.17388e-06
1.17391e-06
1.40378e-06
1.40564e-06
1.17007e-06
1.17402e-06
1.17374e-06
1.40538e-06
1.40815e-06
1.41126e-06
1.17535e-06
1.17524e-06
1.17961e-06
1.17951e-06
1.40813e-06
1.41132e-06
1.17516e-06
1.17537e-06
1.17942e-06
1.17958e-06
1.17528e-06
1.17954e-06
1.17968e-06
1.40827e-06
1.4113e-06
1.17511e-06
1.17957e-06
1.17948e-06
1.41144e-06
1.41391e-06
1.41459e-06
1.18092e-06
1.1808e-06
1.18365e-06
1.18351e-06
1.41394e-06
1.41452e-06
1.18072e-06
1.18086e-06
1.18347e-06
1.18365e-06
1.18101e-06
1.18351e-06
1.18369e-06
1.41392e-06
1.41464e-06
1.18082e-06
1.18364e-06
1.18353e-06
1.4147e-06
1.41652e-06
1.41661e-06
1.1843e-06
1.18417e-06
1.18642e-06
1.18634e-06
1.41647e-06
1.41667e-06
1.18413e-06
1.18432e-06
1.18624e-06
1.18644e-06
1.18431e-06
1.18635e-06
1.18647e-06
1.4166e-06
1.41673e-06
1.18416e-06
1.18643e-06
1.18629e-06
1.41675e-06
1.41888e-06
1.42043e-06
1.1873e-06
1.1872e-06
1.19006e-06
1.18986e-06
1.41894e-06
1.42032e-06
1.18711e-06
1.18729e-06
1.18987e-06
1.18999e-06
1.18736e-06
1.18988e-06
1.19009e-06
1.41898e-06
1.42042e-06
1.18717e-06
1.18998e-06
1.18991e-06
1.42055e-06
1.42279e-06
1.42345e-06
1.19089e-06
1.19066e-06
1.19282e-06
1.19269e-06
1.42262e-06
1.42335e-06
1.19069e-06
1.19082e-06
1.19265e-06
1.19285e-06
1.19087e-06
1.19267e-06
1.19274e-06
1.42275e-06
1.4235e-06
1.1907e-06
1.19282e-06
1.19258e-06
1.42334e-06
1.42546e-06
1.42502e-06
1.19336e-06
1.19328e-06
1.19472e-06
1.19468e-06
1.42544e-06
1.42519e-06
1.19318e-06
1.19341e-06
1.19453e-06
1.19472e-06
1.1933e-06
1.19469e-06
1.19473e-06
1.42556e-06
1.42515e-06
1.19314e-06
1.1947e-06
1.19454e-06
1.42513e-06
1.42698e-06
1.42681e-06
1.19515e-06
1.19506e-06
1.19624e-06
1.19606e-06
1.42711e-06
1.42662e-06
1.19495e-06
1.1951e-06
1.19606e-06
1.19618e-06
1.19515e-06
1.19607e-06
1.19631e-06
1.42706e-06
1.42668e-06
1.19496e-06
1.19618e-06
1.19614e-06
1.42696e-06
1.42878e-06
1.42747e-06
1.19654e-06
1.19638e-06
1.19716e-06
1.19707e-06
1.42855e-06
1.42759e-06
1.19636e-06
1.19653e-06
1.197e-06
1.19727e-06
1.19666e-06
1.1971e-06
1.19726e-06
1.42865e-06
1.42778e-06
1.19649e-06
1.19728e-06
1.19711e-06
1.42762e-06
1.42938e-06
1.4291e-06
1.19733e-06
1.19725e-06
1.19794e-06
1.19779e-06
1.42948e-06
1.42909e-06
1.19716e-06
1.19741e-06
1.19775e-06
1.1978e-06
1.19733e-06
1.19778e-06
1.19781e-06
1.42962e-06
1.42896e-06
1.19718e-06
1.19777e-06
1.19763e-06
1.42888e-06
1.43113e-06
1.42936e-06
1.19812e-06
1.19796e-06
1.1982e-06
1.19803e-06
1.43106e-06
1.42917e-06
1.19792e-06
1.19795e-06
1.19802e-06
1.19819e-06
1.198e-06
1.19803e-06
1.19828e-06
1.43089e-06
1.42942e-06
1.19781e-06
1.19818e-06
1.19812e-06
1.42972e-06
1.43089e-06
1.4278e-06
1.19793e-06
1.1978e-06
1.19721e-06
1.19718e-06
1.43073e-06
1.42815e-06
1.19777e-06
1.19808e-06
1.19705e-06
1.19735e-06
1.19811e-06
1.19719e-06
1.19733e-06
1.43107e-06
1.42831e-06
1.19797e-06
1.19737e-06
1.19719e-06
1.42817e-06
1.42958e-06
1.42891e-06
1.19711e-06
1.19704e-06
1.19702e-06
1.19668e-06
1.42989e-06
1.42821e-06
1.19694e-06
1.19714e-06
1.19682e-06
1.19666e-06
1.19715e-06
1.19668e-06
1.19672e-06
1.42994e-06
1.42802e-06
1.197e-06
1.19661e-06
1.1965e-06
1.42808e-06
1.43071e-06
1.42844e-06
1.19688e-06
1.19659e-06
1.1961e-06
1.1962e-06
1.43001e-06
1.42912e-06
1.19668e-06
1.19659e-06
1.19594e-06
1.19643e-06
1.19654e-06
1.19619e-06
1.19624e-06
1.42983e-06
1.42941e-06
1.19634e-06
1.19641e-06
1.19609e-06
1.42901e-06
1.43036e-06
1.42989e-06
1.19598e-06
1.19617e-06
1.19599e-06
1.19587e-06
1.43108e-06
1.42949e-06
1.19583e-06
1.19644e-06
1.19584e-06
1.19606e-06
1.19629e-06
1.19595e-06
1.1965e-06
1.43142e-06
1.42966e-06
1.19616e-06
1.19613e-06
1.19637e-06
1.43059e-06
1.43162e-06
1.42486e-06
1.19593e-06
1.19549e-06
1.19321e-06
1.19267e-06
1.43099e-06
1.42438e-06
1.19577e-06
1.19556e-06
1.19298e-06
1.19256e-06
1.19617e-06
1.19253e-06
1.19246e-06
1.43112e-06
1.42402e-06
1.19601e-06
1.19241e-06
1.19225e-06
1.42419e-06
1.42595e-06
1.42005e-06
1.19183e-06
1.19146e-06
1.18844e-06
1.18874e-06
1.42561e-06
1.42084e-06
1.19161e-06
1.19148e-06
1.18831e-06
1.18923e-06
1.19108e-06
1.18871e-06
1.18826e-06
1.42524e-06
1.42181e-06
1.19088e-06
1.18922e-06
1.18817e-06
1.41968e-06
1.42248e-06
1.42691e-06
1.18831e-06
1.18854e-06
1.18995e-06
1.18958e-06
1.42309e-06
1.42582e-06
1.18819e-06
1.18909e-06
1.18978e-06
1.18948e-06
1.18822e-06
1.18975e-06
1.19036e-06
1.42401e-06
1.42571e-06
1.18815e-06
1.18961e-06
1.19018e-06
1.42685e-06
1.42994e-06
1.42517e-06
1.19078e-06
1.19017e-06
1.19008e-06
1.1894e-06
1.4286e-06
1.42453e-06
1.19057e-06
1.18978e-06
1.18976e-06
1.18871e-06
1.19103e-06
1.18941e-06
1.18963e-06
1.42808e-06
1.42374e-06
1.19079e-06
1.18861e-06
1.18929e-06
1.42514e-06
1.42578e-06
1.40641e-06
1.18756e-06
1.1875e-06
1.17876e-06
1.18032e-06
1.42537e-06
1.41052e-06
1.18732e-06
1.18741e-06
1.17877e-06
1.182e-06
1.18752e-06
1.18031e-06
1.18044e-06
1.42475e-06
1.4133e-06
1.18728e-06
1.18202e-06
1.18053e-06
1.41055e-06
1.40733e-06
1.41708e-06
1.17674e-06
1.17861e-06
1.17957e-06
1.179e-06
1.41172e-06
1.41694e-06
1.1768e-06
1.18077e-06
1.17939e-06
1.17898e-06
1.17898e-06
1.179e-06
1.17908e-06
1.41466e-06
1.41577e-06
1.17917e-06
1.17908e-06
1.17903e-06
1.41681e-06
1.42419e-06
1.44122e-06
1.18336e-06
1.18134e-06
1.19208e-06
1.18693e-06
1.42189e-06
1.42982e-06
1.18296e-06
1.17941e-06
1.19124e-06
1.18291e-06
1.18062e-06
1.18631e-06
1.18471e-06
1.41896e-06
1.42364e-06
1.18029e-06
1.18217e-06
1.18383e-06
1.42554e-06
1.4426e-06
1.39694e-06
1.19196e-06
1.1871e-06
1.17225e-06
1.17475e-06
1.43116e-06
1.40228e-06
1.19121e-06
1.18382e-06
1.17259e-06
1.17766e-06
1.1849e-06
1.1756e-06
1.17926e-06
1.42609e-06
1.41074e-06
1.18404e-06
1.17837e-06
1.17941e-06
1.40943e-06
1.39336e-06
1.36527e-06
1.16304e-06
1.16739e-06
1.146e-06
1.1514e-06
1.4005e-06
1.3762e-06
1.16383e-06
1.17252e-06
1.14648e-06
1.15465e-06
1.17314e-06
1.15202e-06
1.1514e-06
1.4099e-06
1.37775e-06
1.17401e-06
1.15559e-06
1.15212e-06
1.37623e-06
1.37335e-06
1.43252e-06
1.14724e-06
1.15157e-06
1.17334e-06
1.16875e-06
1.38159e-06
1.42385e-06
1.14732e-06
1.15234e-06
1.17187e-06
1.16286e-06
1.14943e-06
1.16655e-06
1.16103e-06
1.37901e-06
1.40813e-06
1.14977e-06
1.16131e-06
1.16018e-06
1.41193e-06
1.44626e-06
1.41754e-06
1.18318e-06
1.17543e-06
1.16572e-06
1.15522e-06
1.43438e-06
1.40404e-06
1.18163e-06
1.17016e-06
1.16577e-06
1.15912e-06
1.17042e-06
1.15576e-06
1.16715e-06
1.41905e-06
1.41705e-06
1.16953e-06
1.15911e-06
1.16685e-06
1.42774e-06
1.38337e-06
1.11841e-06
1.11117e-06
1.37399e-06
1.11881e-06
1.11556e-06
6.66107e-07
6.657e-07
6.71973e-07
1.1257e-06
1.38687e-06
1.12567e-06
5.35663e-07
5.35601e-07
5.35655e-07
5.35655e-07
5.34573e-07
5.35516e-07
5.33634e-07
5.35654e-07
5.34573e-07
5.35517e-07
5.35654e-07
5.33634e-07
5.35256e-07
5.35987e-07
5.35987e-07
1.10716e-06
3.88072e-06
9.33919e-07
4.60577e-06
1.26086e-05
1.66015e-05
1.10712e-06
3.88125e-06
9.33931e-07
4.60629e-06
4.95567e-07
4.95567e-07
4.95567e-07
4.57231e-07
4.57231e-07
4.57232e-07
4.57232e-07
5.43136e-07
1.22024e-06
4.95565e-07
4.85523e-07
5.25345e-07
1.20948e-06
4.82301e-07
1.26098e-05
1.6603e-05
5.43156e-07
4.95565e-07
1.22026e-06
4.85523e-07
5.25333e-07
4.82301e-07
1.20949e-06
2.52183e-06
2.52237e-06
4.84192e-07
2.37257e-06
2.3728e-06
1.43088e-06
5.59303e-06
1.32969e-06
6.136e-06
2.12849e-05
2.31112e-05
1.43097e-06
5.59385e-06
1.3298e-06
6.13682e-06
4.45573e-07
4.45573e-07
4.45573e-07
4.13542e-07