/*--------------------------------*- C++ -*----------------------------------*\
| =========                 |                                                 |
| \\      /  F ield         | OpenFOAM: The Open Source CFD Toolbox           |
|  \\    /   O peration     | Version:  v2006                                 |
|   \\  /    A nd           | Website:  www.openfoam.com                      |
|    \\/     M anipulation  |                                                 |
\*---------------------------------------------------------------------------*/
FoamFile
{
    version     2.0;
    format      ascii;
    class       volScalarField;
    location    "875";
    object      k;
}
// * * * * * * * * * * * * * * * * * * * * * * * * * * * * * * * * * * * * * //

dimensions      [0 2 -2 0 0 0 0];


internalField   nonuniform List<scalar> 
171728
(
3.58932e-05
3.58912e-05
3.58912e-05
3.59957e-05
3.39296e-05
3.3889e-05
3.3889e-05
3.39623e-05
3.21578e-05
3.20081e-05
3.20081e-05
3.19522e-05
3.05346e-05
3.02293e-05
3.02292e-05
2.99885e-05
2.90329e-05
2.8554e-05
2.85539e-05
2.81226e-05
2.76354e-05
2.69871e-05
2.69871e-05
2.63906e-05
2.63308e-05
2.5531e-05
2.55309e-05
2.48071e-05
2.51112e-05
2.4185e-05
2.41848e-05
2.33781e-05
2.3971e-05
2.29506e-05
2.29505e-05
2.21044e-05
2.29058e-05
2.18268e-05
2.18268e-05
2.09862e-05
2.1912e-05
2.08114e-05
2.08113e-05
2.0013e-05
2.09865e-05
1.99014e-05
1.99013e-05
1.91817e-05
2.01242e-05
1.90948e-05
1.90948e-05
1.84876e-05
1.93239e-05
1.8389e-05
1.83885e-05
1.79331e-05
1.85848e-05
1.77795e-05
1.77791e-05
1.75026e-05
1.79044e-05
1.7269e-05
1.72675e-05
1.72148e-05
1.72798e-05
1.68411e-05
1.68412e-05
1.70209e-05
1.67093e-05
1.65271e-05
1.65326e-05
1.6973e-05
1.6193e-05
1.62907e-05
1.62878e-05
1.70737e-05
1.57248e-05
1.61517e-05
1.61572e-05
1.73419e-05
1.53074e-05
1.61047e-05
1.61099e-05
1.76406e-05
1.49378e-05
1.61548e-05
1.61517e-05
1.81347e-05
1.46124e-05
1.6283e-05
1.62911e-05
1.8775e-05
1.43406e-05
1.65505e-05
1.65254e-05
1.93654e-05
1.41054e-05
1.67959e-05
1.68317e-05
2.0304e-05
1.39281e-05
1.72452e-05
1.72497e-05
2.10399e-05
1.37876e-05
1.77288e-05
1.77151e-05
2.20527e-05
1.36865e-05
1.82749e-05
1.82569e-05
2.29785e-05
1.36456e-05
1.88974e-05
1.89079e-05
2.41225e-05
1.36354e-05
1.95858e-05
1.96054e-05
2.51113e-05
1.36824e-05
2.03575e-05
2.03583e-05
2.61851e-05
1.37696e-05
2.11715e-05
2.1168e-05
2.72791e-05
1.39055e-05
2.20311e-05
2.20326e-05
2.83607e-05
1.40849e-05
2.29354e-05
2.29381e-05
2.94353e-05
1.43127e-05
2.3886e-05
2.38872e-05
3.04803e-05
1.45882e-05
2.48571e-05
2.48632e-05
3.15192e-05
1.49103e-05
2.5857e-05
2.58541e-05
3.25302e-05
1.52731e-05
2.68677e-05
2.68757e-05
3.35395e-05
1.569e-05
2.78993e-05
2.78976e-05
3.45043e-05
1.61443e-05
2.8935e-05
2.89409e-05
3.54414e-05
1.66482e-05
2.99682e-05
2.99701e-05
3.63867e-05
1.71903e-05
3.10002e-05
3.10038e-05
3.72604e-05
1.7772e-05
3.20251e-05
3.20259e-05
3.81419e-05
1.83962e-05
3.3041e-05
3.30445e-05
3.89935e-05
1.90478e-05
3.40262e-05
3.40299e-05
3.98056e-05
1.97404e-05
3.50156e-05
3.50195e-05
4.06072e-05
2.04578e-05
3.59721e-05
3.59749e-05
4.13833e-05
2.11983e-05
3.68947e-05
3.68989e-05
4.21215e-05
2.19614e-05
3.78112e-05
3.7813e-05
4.28556e-05
2.27508e-05
3.86909e-05
3.8697e-05
4.35452e-05
2.35329e-05
3.95349e-05
3.95334e-05
4.42038e-05
2.43618e-05
4.03918e-05
4.03999e-05
4.49178e-05
2.51575e-05
4.11486e-05
4.11499e-05
4.54546e-05
2.59667e-05
4.19314e-05
4.1933e-05
4.6095e-05
2.67993e-05
4.2693e-05
4.27007e-05
4.67117e-05
2.76029e-05
4.33732e-05
4.33707e-05
4.72108e-05
2.83965e-05
4.40735e-05
4.40832e-05
4.77755e-05
2.91936e-05
4.46939e-05
4.46908e-05
4.8241e-05
2.99807e-05
4.54026e-05
4.54087e-05
4.88414e-05
3.0742e-05
4.5868e-05
4.58759e-05
4.91719e-05
3.14456e-05
4.65245e-05
4.6518e-05
4.9645e-05
3.22763e-05
4.71387e-05
4.71452e-05
5.02407e-05
3.28861e-05
4.7455e-05
4.74683e-05
5.03944e-05
3.35662e-05
4.80745e-05
4.80568e-05
5.08539e-05
3.4299e-05
4.85405e-05
4.85649e-05
5.13407e-05
3.48811e-05
4.89223e-05
4.89112e-05
5.15186e-05
3.55323e-05
4.94304e-05
4.9436e-05
5.20139e-05
3.60674e-05
4.96508e-05
4.96615e-05
5.21033e-05
3.66392e-05
5.017e-05
5.01608e-05
5.26393e-05
3.71713e-05
5.03894e-05
5.04015e-05
5.26884e-05
3.76227e-05
5.06944e-05
5.06973e-05
5.29382e-05
3.82035e-05
5.11933e-05
5.11879e-05
5.34687e-05
3.86159e-05
5.12749e-05
5.12841e-05
5.33854e-05
3.89415e-05
5.14734e-05
5.1462e-05
5.35692e-05
3.93585e-05
5.17603e-05
5.17805e-05
5.38576e-05
3.98075e-05
5.20539e-05
5.20589e-05
5.40533e-05
4.00659e-05
5.21102e-05
5.20848e-05
5.40673e-05
4.0382e-05
5.23146e-05
5.23389e-05
5.43077e-05
4.0657e-05
5.23959e-05
5.24062e-05
5.42376e-05
4.09431e-05
5.2657e-05
5.26431e-05
5.46337e-05
4.11668e-05
5.26578e-05
5.26697e-05
5.45451e-05
4.13279e-05
5.26866e-05
5.26901e-05
5.45323e-05
4.14947e-05
5.2727e-05
5.2736e-05
5.44934e-05
4.16522e-05
5.29296e-05
5.29058e-05
5.47471e-05
4.20097e-05
5.30975e-05
5.3121e-05
5.51855e-05
4.19284e-05
5.27718e-05
5.27389e-05
5.44395e-05
4.18717e-05
5.26636e-05
5.26971e-05
5.41406e-05
4.22333e-05
5.32324e-05
5.32075e-05
5.5528e-05
4.23403e-05
5.31226e-05
5.30664e-05
5.48856e-05
4.19175e-05
5.21653e-05
5.21995e-05
5.33118e-05
4.23341e-05
5.33499e-05
5.32893e-05
5.56923e-05
4.3084e-05
5.41158e-05
5.41672e-05
5.65283e-05
4.15055e-05
5.10955e-05
5.13256e-05
5.25504e-05
4.09297e-05
5.02707e-05
5.00638e-05
5.06338e-05
4.40661e-05
5.55544e-05
5.41984e-05
6.02294e-05
3.63068e-05
3.6291e-05
3.6291e-05
3.63068e-05
3.6291e-05
3.6291e-05
3.6423e-05
3.6423e-05
3.6423e-05
3.6423e-05
3.6291e-05
3.6291e-05
3.63068e-05
3.6291e-05
3.6291e-05
3.63068e-05
3.59957e-05
3.42687e-05
3.58912e-05
3.58912e-05
3.43767e-05
3.43766e-05
3.59957e-05
3.42687e-05
3.58911e-05
3.58912e-05
3.43767e-05
3.43766e-05
3.58912e-05
3.43767e-05
3.43767e-05
3.59957e-05
3.42687e-05
3.58912e-05
3.43767e-05
3.43767e-05
3.42687e-05
3.39623e-05
3.22635e-05
3.38889e-05
3.38889e-05
3.24684e-05
3.24683e-05
3.39622e-05
3.22635e-05
3.38889e-05
3.38889e-05
3.24684e-05
3.24683e-05
3.38889e-05
3.24685e-05
3.24683e-05
3.39622e-05
3.22635e-05
3.38889e-05
3.24685e-05
3.24684e-05
3.22634e-05
3.19522e-05
3.02993e-05
3.2008e-05
3.20078e-05
3.06643e-05
3.06642e-05
3.19522e-05
3.02994e-05
3.2008e-05
3.20078e-05
3.06644e-05
3.06641e-05
3.20079e-05
3.06645e-05
3.06642e-05
3.19522e-05
3.02993e-05
3.2008e-05
3.06645e-05
3.06644e-05
3.02991e-05
2.99886e-05
2.84254e-05
3.0229e-05
3.02288e-05
2.89624e-05
2.89622e-05
2.99885e-05
2.84254e-05
3.02292e-05
3.02288e-05
2.89626e-05
2.89621e-05
3.02289e-05
2.89628e-05
2.89623e-05
2.99885e-05
2.84253e-05
3.02291e-05
2.89627e-05
2.89626e-05
2.84251e-05
2.81228e-05
2.66741e-05
2.85536e-05
2.85534e-05
2.7368e-05
2.73678e-05
2.81227e-05
2.66741e-05
2.85539e-05
2.85533e-05
2.73684e-05
2.73677e-05
2.85535e-05
2.73685e-05
2.73679e-05
2.81226e-05
2.6674e-05
2.85538e-05
2.73684e-05
2.73682e-05
2.66737e-05
2.63909e-05
2.50664e-05
2.69866e-05
2.69864e-05
2.58841e-05
2.58838e-05
2.63909e-05
2.50664e-05
2.6987e-05
2.69863e-05
2.58846e-05
2.58837e-05
2.69865e-05
2.58847e-05
2.58839e-05
2.63907e-05
2.50662e-05
2.69869e-05
2.58846e-05
2.58844e-05
2.50659e-05
2.48077e-05
2.36126e-05
2.55303e-05
2.55301e-05
2.45102e-05
2.451e-05
2.48076e-05
2.36125e-05
2.55308e-05
2.55299e-05
2.45108e-05
2.45098e-05
2.55302e-05
2.4511e-05
2.45101e-05
2.48075e-05
2.36123e-05
2.55307e-05
2.45109e-05
2.45107e-05
2.36121e-05
2.33784e-05
2.23127e-05
2.41841e-05
2.41839e-05
2.32478e-05
2.32475e-05
2.33785e-05
2.23128e-05
2.41848e-05
2.41837e-05
2.32486e-05
2.32474e-05
2.4184e-05
2.32487e-05
2.32477e-05
2.33782e-05
2.23126e-05
2.41846e-05
2.32486e-05
2.32484e-05
2.23118e-05
2.21052e-05
2.11679e-05
2.29497e-05
2.29494e-05
2.20965e-05
2.20962e-05
2.21048e-05
2.1168e-05
2.29504e-05
2.29492e-05
2.20973e-05
2.20961e-05
2.29495e-05
2.20975e-05
2.20964e-05
2.2105e-05
2.11677e-05
2.29503e-05
2.20974e-05
2.20972e-05
2.11679e-05
2.09861e-05
2.01709e-05
2.18259e-05
2.18256e-05
2.10542e-05
2.10539e-05
2.09867e-05
2.01714e-05
2.18267e-05
2.18255e-05
2.10551e-05
2.10538e-05
2.18257e-05
2.10553e-05
2.1054e-05
2.09862e-05
2.0171e-05
2.18266e-05
2.10552e-05
2.10549e-05
2.01703e-05
2.00142e-05
1.93149e-05
2.08103e-05
2.081e-05
2.0118e-05
2.01178e-05
2.0014e-05
1.93151e-05
2.08112e-05
2.08099e-05
2.01189e-05
2.01176e-05
2.08102e-05
2.01191e-05
2.01179e-05
2.00142e-05
1.93147e-05
2.08111e-05
2.0119e-05
2.01189e-05
1.93145e-05
1.91818e-05
1.8591e-05
1.99003e-05
1.99e-05
1.92856e-05
1.92854e-05
1.91823e-05
1.85914e-05
1.99013e-05
1.98999e-05
1.92865e-05
1.92852e-05
1.99001e-05
1.92867e-05
1.92854e-05
1.91821e-05
1.85911e-05
1.99011e-05
1.92866e-05
1.92864e-05
1.85897e-05
1.84908e-05
1.80004e-05
1.90936e-05
1.90935e-05
1.85545e-05
1.85542e-05
1.84897e-05
1.79953e-05
1.90947e-05
1.90932e-05
1.85554e-05
1.8554e-05
1.90935e-05
1.85556e-05
1.85545e-05
1.8489e-05
1.7995e-05
1.90946e-05
1.85553e-05
1.85554e-05
1.7995e-05
1.79331e-05
1.75379e-05
1.83875e-05
1.83877e-05
1.7921e-05
1.79213e-05
1.79308e-05
1.75356e-05
1.83883e-05
1.83873e-05
1.7922e-05
1.79213e-05
1.83878e-05
1.79222e-05
1.79207e-05
1.79304e-05
1.75372e-05
1.83887e-05
1.7922e-05
1.79217e-05
1.75358e-05
1.7501e-05
1.72183e-05
1.77777e-05
1.77787e-05
1.7384e-05
1.73854e-05
1.75054e-05
1.72227e-05
1.77787e-05
1.77783e-05
1.73849e-05
1.73848e-05
1.77779e-05
1.73872e-05
1.73872e-05
1.75063e-05
1.72243e-05
1.77788e-05
1.73865e-05
1.73881e-05
1.72324e-05
1.72037e-05
1.70512e-05
1.72663e-05
1.72672e-05
1.69455e-05
1.69354e-05
1.72089e-05
1.69938e-05
1.72674e-05
1.72659e-05
1.69465e-05
1.6939e-05
1.72681e-05
1.69361e-05
1.69416e-05
1.72087e-05
1.70099e-05
1.72691e-05
1.69395e-05
1.69425e-05
1.70209e-05
1.70412e-05
1.69707e-05
1.68448e-05
1.68411e-05
1.65927e-05
1.65984e-05
1.69914e-05
1.70069e-05
1.68453e-05
1.68409e-05
1.65931e-05
1.65978e-05
1.68477e-05
1.65991e-05
1.65891e-05
1.70025e-05
1.69931e-05
1.68485e-05
1.65985e-05
1.65898e-05
1.69566e-05
1.69862e-05
1.70665e-05
1.65181e-05
1.6526e-05
1.63454e-05
1.634e-05
1.70182e-05
1.70685e-05
1.65187e-05
1.65317e-05
1.63462e-05
1.63384e-05
1.65213e-05
1.63408e-05
1.63407e-05
1.70266e-05
1.70449e-05
1.65221e-05
1.6339e-05
1.63417e-05
1.70628e-05
1.71082e-05
1.72032e-05
1.62945e-05
1.62904e-05
1.61697e-05
1.61828e-05
1.7098e-05
1.72699e-05
1.62951e-05
1.62873e-05
1.617e-05
1.6171e-05
1.62802e-05
1.61827e-05
1.618e-05
1.7066e-05
1.72215e-05
1.62809e-05
1.61713e-05
1.61805e-05
1.72395e-05
1.72799e-05
1.76021e-05
1.61459e-05
1.61519e-05
1.61135e-05
1.61011e-05
1.73167e-05
1.75207e-05
1.61463e-05
1.6157e-05
1.61141e-05
1.61158e-05
1.6161e-05
1.6101e-05
1.61068e-05
1.73022e-05
1.76175e-05
1.61615e-05
1.61159e-05
1.61074e-05
1.75525e-05
1.76827e-05
1.80215e-05
1.61074e-05
1.61048e-05
1.61331e-05
1.61387e-05
1.76271e-05
1.80508e-05
1.61078e-05
1.61098e-05
1.61334e-05
1.61295e-05
1.61079e-05
1.61385e-05
1.61353e-05
1.76798e-05
1.80036e-05
1.61085e-05
1.61294e-05
1.61358e-05
1.80387e-05
1.81597e-05
1.8584e-05
1.61572e-05
1.61548e-05
1.62483e-05
1.62376e-05
1.81405e-05
1.85526e-05
1.61573e-05
1.6152e-05
1.62489e-05
1.6238e-05
1.61496e-05
1.62373e-05
1.6269e-05
1.8113e-05
1.85443e-05
1.615e-05
1.6238e-05
1.62695e-05
1.86537e-05
1.86998e-05
1.93358e-05
1.62756e-05
1.62835e-05
1.64842e-05
1.64834e-05
1.8692e-05
1.93962e-05
1.62758e-05
1.62912e-05
1.6484e-05
1.64591e-05
1.63014e-05
1.64822e-05
1.64262e-05
1.86889e-05
1.93031e-05
1.63019e-05
1.64581e-05
1.64265e-05
1.91535e-05
1.95119e-05
1.9893e-05
1.65424e-05
1.65517e-05
1.67181e-05
1.67282e-05
1.95571e-05
1.99657e-05
1.65417e-05
1.65264e-05
1.67181e-05
1.6745e-05
1.65218e-05
1.67276e-05
1.67795e-05
1.94407e-05
2.00399e-05
1.6522e-05
1.67445e-05
1.67795e-05
2.01838e-05
2.00931e-05
2.09549e-05
1.68255e-05
1.67964e-05
1.71355e-05
1.7123e-05
2.00839e-05
2.09004e-05
1.68255e-05
1.68321e-05
1.71356e-05
1.71466e-05
1.68519e-05
1.71217e-05
1.71136e-05
2.02052e-05
2.09678e-05
1.68521e-05
1.71456e-05
1.7114e-05
2.08457e-05
2.11287e-05
2.19274e-05
1.72551e-05
1.72466e-05
1.7611e-05
1.76255e-05
2.11501e-05
2.19316e-05
1.72547e-05
1.72508e-05
1.76102e-05
1.75824e-05
1.72291e-05
1.76239e-05
1.75966e-05
2.11521e-05
2.17975e-05
1.72292e-05
1.75811e-05
1.75961e-05
2.18672e-05
2.2096e-05
2.27544e-05
1.77322e-05
1.77303e-05
1.81074e-05
1.8117e-05
2.21086e-05
2.27428e-05
1.77314e-05
1.77164e-05
1.81068e-05
1.81196e-05
1.77204e-05
1.81151e-05
1.8112e-05
2.20028e-05
2.27961e-05
1.772e-05
1.8118e-05
1.81115e-05
2.27637e-05
2.2956e-05
2.38949e-05
1.82508e-05
1.82767e-05
1.87507e-05
1.87278e-05
2.29868e-05
2.38218e-05
1.82498e-05
1.82583e-05
1.87501e-05
1.87477e-05
1.82584e-05
1.8726e-05
1.87547e-05
2.29924e-05
2.38569e-05
1.82578e-05
1.87461e-05
1.87538e-05
2.38873e-05
2.41269e-05
2.48545e-05
1.89225e-05
1.88997e-05
1.94062e-05
1.9415e-05
2.40318e-05
2.49059e-05
1.89216e-05
1.89096e-05
1.94049e-05
1.94241e-05
1.89191e-05
1.94129e-05
1.94221e-05
2.40933e-05
2.48951e-05
1.89183e-05
1.94224e-05
1.9421e-05
2.48877e-05
2.50467e-05
2.59672e-05
1.95689e-05
1.95876e-05
2.01627e-05
2.01695e-05
2.51148e-05
2.59913e-05
1.95672e-05
1.96067e-05
2.01614e-05
2.01696e-05
1.95987e-05
2.01678e-05
2.0155e-05
2.51381e-05
2.59768e-05
1.95976e-05
2.01678e-05
2.01538e-05
2.59453e-05
2.62338e-05
2.70337e-05
2.03732e-05
2.03595e-05
2.09574e-05
2.09675e-05
2.62298e-05
2.70439e-05
2.03716e-05
2.03602e-05
2.09557e-05
2.09593e-05
2.03547e-05
2.09649e-05
2.09651e-05
2.62036e-05
2.70224e-05
2.03534e-05
2.09572e-05
2.09633e-05
2.70515e-05
2.72486e-05
2.8142e-05
2.11653e-05
2.11737e-05
2.18169e-05
2.18102e-05
2.72848e-05
2.81053e-05
2.11632e-05
2.11699e-05
2.18149e-05
2.18097e-05
2.11684e-05
2.18076e-05
2.18138e-05
2.72624e-05
2.81118e-05
2.11665e-05
2.18075e-05
2.18116e-05
2.81169e-05
2.83727e-05
2.9185e-05
2.20387e-05
2.20337e-05
2.27048e-05
2.27114e-05
2.83474e-05
2.919e-05
2.20365e-05
2.20347e-05
2.27026e-05
2.2714e-05
2.20355e-05
2.2709e-05
2.27169e-05
2.83495e-05
2.91999e-05
2.20335e-05
2.2712e-05
2.27145e-05
2.92e-05
2.94149e-05
3.02625e-05
2.29356e-05
2.29376e-05
2.36493e-05
2.36458e-05
2.94191e-05
3.02453e-05
2.29331e-05
2.29399e-05
2.36471e-05
2.36527e-05
2.29469e-05
2.36435e-05
2.36479e-05
2.94283e-05
3.02535e-05
2.29446e-05
2.36509e-05
2.36453e-05
3.02476e-05
3.04909e-05
3.12955e-05
2.38826e-05
2.38883e-05
2.46206e-05
2.46113e-05
3.04842e-05
3.12848e-05
2.388e-05
2.3889e-05
2.46179e-05
2.46123e-05
2.38885e-05
2.4609e-05
2.46134e-05
3.04882e-05
3.12817e-05
2.38859e-05
2.46103e-05
2.46104e-05
3.12909e-05
3.15273e-05
3.23083e-05
2.48625e-05
2.48595e-05
2.56087e-05
2.5606e-05
3.15125e-05
3.23145e-05
2.48596e-05
2.4865e-05
2.5606e-05
2.56049e-05
2.48625e-05
2.56041e-05
2.56055e-05
3.15176e-05
3.23082e-05
2.48594e-05
2.56032e-05
2.56026e-05
3.23092e-05
3.25401e-05
3.32887e-05
2.58659e-05
2.58591e-05
2.66079e-05
2.66181e-05
3.25394e-05
3.33064e-05
2.58629e-05
2.58559e-05
2.66049e-05
2.6622e-05
2.58552e-05
2.66163e-05
2.66231e-05
3.25275e-05
3.33166e-05
2.58521e-05
2.66204e-05
2.66196e-05
3.33173e-05
3.35094e-05
3.43014e-05
2.68655e-05
2.6869e-05
2.76528e-05
2.76409e-05
3.35225e-05
3.42807e-05
2.68624e-05
2.68769e-05
2.765e-05
2.76435e-05
2.68782e-05
2.76391e-05
2.76481e-05
3.35372e-05
3.42786e-05
2.6875e-05
2.7642e-05
2.76449e-05
3.42896e-05
3.45115e-05
3.52239e-05
2.79062e-05
2.79012e-05
2.86704e-05
2.86788e-05
3.45019e-05
3.5242e-05
2.79031e-05
2.7899e-05
2.86671e-05
2.86812e-05
2.79056e-05
2.86773e-05
2.86718e-05
3.44935e-05
3.52468e-05
2.79021e-05
2.86801e-05
2.86681e-05
3.52266e-05
3.54412e-05
3.61738e-05
2.89329e-05
2.89363e-05
2.9718e-05
2.97123e-05
3.54525e-05
3.61634e-05
2.89294e-05
2.8942e-05
2.97149e-05
2.97145e-05
2.89326e-05
2.97111e-05
2.97244e-05
3.54612e-05
3.61632e-05
2.8929e-05
2.97136e-05
2.97209e-05
3.61856e-05
3.63756e-05
3.70661e-05
2.99737e-05
2.99691e-05
3.07455e-05
3.07423e-05
3.6369e-05
3.70626e-05
2.99703e-05
2.99708e-05
3.07421e-05
3.07454e-05
2.99804e-05
3.07413e-05
3.07407e-05
3.63674e-05
3.70665e-05
2.99768e-05
3.07445e-05
3.0737e-05
3.70556e-05
3.72704e-05
3.79385e-05
3.10055e-05
3.10013e-05
3.17695e-05
3.17692e-05
3.72654e-05
3.79423e-05
3.1002e-05
3.10047e-05
3.1766e-05
3.17696e-05
3.10002e-05
3.17686e-05
3.17763e-05
3.7269e-05
3.79404e-05
3.09965e-05
3.17691e-05
3.17725e-05
3.79502e-05
3.8134e-05
3.88079e-05
3.20243e-05
3.20255e-05
3.27947e-05
3.27897e-05
3.8139e-05
3.8802e-05
3.20207e-05
3.2026e-05
3.27911e-05
3.27955e-05
3.20297e-05
3.27892e-05
3.27908e-05
3.81373e-05
3.88099e-05
3.20259e-05
3.2795e-05
3.2787e-05
3.88022e-05
3.8994e-05
3.96119e-05
3.30449e-05
3.30416e-05
3.37824e-05
3.37801e-05
3.89901e-05
3.96121e-05
3.30411e-05
3.3045e-05
3.37789e-05
3.37844e-05
3.30441e-05
3.37803e-05
3.37907e-05
3.8995e-05
3.9615e-05
3.30403e-05
3.37846e-05
3.3787e-05
3.96237e-05
3.97977e-05
4.04362e-05
3.40291e-05
3.40257e-05
3.47755e-05
3.47717e-05
3.97946e-05
4.04351e-05
3.40254e-05
3.40294e-05
3.47718e-05
3.47733e-05
3.40358e-05
3.47718e-05
3.47693e-05
3.97988e-05
4.04343e-05
3.40321e-05
3.47732e-05
3.47654e-05
4.04252e-05
4.06168e-05
4.1208e-05
3.50206e-05
3.50155e-05
3.57366e-05
3.5734e-05
4.06135e-05
4.12108e-05
3.50167e-05
3.50195e-05
3.5733e-05
3.57376e-05
3.50153e-05
3.57347e-05
3.57406e-05
4.06166e-05
4.1211e-05
3.50115e-05
3.57381e-05
3.5737e-05
4.12151e-05
4.13809e-05
4.19504e-05
3.59727e-05
3.59712e-05
3.6671e-05
3.66671e-05
4.1386e-05
4.19458e-05
3.59689e-05
3.5974e-05
3.66671e-05
3.66716e-05
3.5975e-05
3.66678e-05
3.66708e-05
4.13843e-05
4.19528e-05
3.59714e-05
3.66719e-05
3.66671e-05
4.19545e-05
4.21136e-05
4.26879e-05
3.6899e-05
3.6894e-05
3.75817e-05
3.75789e-05
4.21086e-05
4.26894e-05
3.68951e-05
3.68984e-05
3.7578e-05
3.75813e-05
3.69011e-05
3.75806e-05
3.75865e-05
4.21138e-05
4.26895e-05
3.68974e-05
3.75827e-05
3.75829e-05
4.26897e-05
4.28576e-05
4.34018e-05
3.78125e-05
3.78095e-05
3.84877e-05
3.84784e-05
4.28581e-05
4.33907e-05
3.78086e-05
3.78116e-05
3.84838e-05
3.84852e-05
3.78134e-05
3.84796e-05
3.84823e-05
4.28589e-05
4.33993e-05
3.78097e-05
3.84856e-05
3.84786e-05
4.33966e-05
4.35455e-05
4.40361e-05
3.86974e-05
3.86896e-05
3.93118e-05
3.93161e-05
4.35375e-05
4.40519e-05
3.86936e-05
3.86962e-05
3.9308e-05
3.93163e-05
3.86969e-05
3.93183e-05
3.93192e-05
4.35454e-05
4.40465e-05
3.86934e-05
3.93182e-05
3.93157e-05
4.40468e-05
4.41986e-05
4.47761e-05
3.95278e-05
3.95326e-05
4.01973e-05
4.0185e-05
4.42126e-05
4.47569e-05
3.95238e-05
3.95315e-05
4.01933e-05
4.01912e-05
3.95314e-05
4.01869e-05
4.0193e-05
4.42069e-05
4.47666e-05
3.95277e-05
4.01923e-05
4.01893e-05
4.47704e-05
4.49217e-05
4.53276e-05
4.04067e-05
4.03899e-05
4.09648e-05
4.096e-05
4.48985e-05
4.53323e-05
4.04027e-05
4.03987e-05
4.09614e-05
4.09651e-05
4.04041e-05
4.09624e-05
4.09664e-05
4.49106e-05
4.53332e-05
4.04006e-05
4.0967e-05
4.09634e-05
4.53301e-05
4.54524e-05
4.59422e-05
4.11445e-05
4.11462e-05
4.17278e-05
4.17308e-05
4.54648e-05
4.59496e-05
4.11407e-05
4.11479e-05
4.17236e-05
4.17302e-05
4.11454e-05
4.17334e-05
4.17282e-05
4.54617e-05
4.5948e-05
4.11421e-05
4.17319e-05
4.17243e-05
4.59432e-05
4.60945e-05
4.65877e-05
4.19307e-05
4.19287e-05
4.25177e-05
4.25052e-05
4.6096e-05
4.6573e-05
4.19264e-05
4.19309e-05
4.25144e-05
4.2515e-05
4.19322e-05
4.25078e-05
4.25154e-05
4.6098e-05
4.65842e-05
4.19284e-05
4.25168e-05
4.25126e-05
4.6586e-05
4.67134e-05
4.70828e-05
4.27024e-05
4.26907e-05
4.32076e-05
4.32061e-05
4.67001e-05
4.70909e-05
4.26991e-05
4.26991e-05
4.32036e-05
4.32045e-05
4.26995e-05
4.32095e-05
4.32152e-05
4.67086e-05
4.70844e-05
4.26968e-05
4.32073e-05
4.32116e-05
4.70942e-05
4.71998e-05
4.76591e-05
4.3368e-05
4.33695e-05
4.38974e-05
4.3892e-05
4.72116e-05
4.76514e-05
4.33636e-05
4.33674e-05
4.38939e-05
4.39012e-05
4.33757e-05
4.38942e-05
4.38884e-05
4.72055e-05
4.76638e-05
4.33719e-05
4.39027e-05
4.38855e-05
4.76464e-05
4.77885e-05
4.81268e-05
4.40822e-05
4.40715e-05
4.45524e-05
4.45438e-05
4.77744e-05
4.8126e-05
4.4079e-05
4.40822e-05
4.45487e-05
4.45439e-05
4.40725e-05
4.45484e-05
4.45607e-05
4.77878e-05
4.812e-05
4.40698e-05
4.4547e-05
4.45572e-05
4.81403e-05
4.82288e-05
4.87194e-05
4.46906e-05
4.46889e-05
4.52097e-05
4.52154e-05
4.82375e-05
4.87295e-05
4.46864e-05
4.46866e-05
4.5206e-05
4.52193e-05
4.46985e-05
4.5217e-05
4.51962e-05
4.82291e-05
4.87348e-05
4.46948e-05
4.52209e-05
4.51932e-05
4.86988e-05
4.88581e-05
4.9085e-05
4.54033e-05
4.54018e-05
4.5806e-05
4.57803e-05
4.88584e-05
4.90548e-05
4.53999e-05
4.5408e-05
4.58026e-05
4.57893e-05
4.53916e-05
4.57848e-05
4.58264e-05
4.8866e-05
4.90653e-05
4.53888e-05
4.57927e-05
4.58236e-05
4.91189e-05
4.91363e-05
4.95169e-05
4.58845e-05
4.58621e-05
4.62906e-05
4.63064e-05
4.91099e-05
4.95589e-05
4.58811e-05
4.58706e-05
4.62874e-05
4.63052e-05
4.59098e-05
4.63106e-05
4.62761e-05
4.91197e-05
4.95484e-05
4.59071e-05
4.63089e-05
4.62735e-05
4.9482e-05
4.96958e-05
5.01705e-05
4.65016e-05
4.6522e-05
4.70522e-05
4.70442e-05
4.97409e-05
5.0149e-05
4.6498e-05
4.65163e-05
4.70474e-05
4.70426e-05
4.64723e-05
4.70449e-05
4.70351e-05
4.97255e-05
5.0154e-05
4.64691e-05
4.70419e-05
4.70304e-05
5.01658e-05
5.02268e-05
5.02814e-05
4.71605e-05
4.71369e-05
4.73665e-05
4.73382e-05
5.01922e-05
5.02514e-05
4.71561e-05
4.71447e-05
4.73658e-05
4.73618e-05
4.71613e-05
4.73456e-05
4.74101e-05
5.02063e-05
5.02777e-05
4.71572e-05
4.73693e-05
4.74103e-05
5.03412e-05
5.03423e-05
5.07841e-05
4.74551e-05
4.74468e-05
4.78833e-05
4.79125e-05
5.03317e-05
5.08351e-05
4.74541e-05
4.74595e-05
4.78777e-05
4.7892e-05
4.74913e-05
4.79151e-05
4.78495e-05
5.03473e-05
5.08018e-05
4.74917e-05
4.78936e-05
4.78442e-05
5.07212e-05
5.09236e-05
5.12485e-05
4.80563e-05
4.80749e-05
4.84805e-05
4.84508e-05
5.09604e-05
5.12061e-05
4.80499e-05
4.80586e-05
4.84782e-05
4.84717e-05
4.80106e-05
4.8453e-05
4.84856e-05
5.09342e-05
5.12363e-05
4.80042e-05
4.84726e-05
4.84833e-05
5.12764e-05
5.13006e-05
5.14495e-05
4.85674e-05
4.85345e-05
4.87946e-05
4.87931e-05
5.12575e-05
5.14599e-05
4.85665e-05
4.85596e-05
4.8792e-05
4.87903e-05
4.85953e-05
4.87997e-05
4.87977e-05
5.12886e-05
5.14465e-05
4.8595e-05
4.87973e-05
4.87964e-05
5.1448e-05
5.15466e-05
5.19254e-05
4.89116e-05
4.89195e-05
4.93193e-05
4.93276e-05
5.15708e-05
5.19402e-05
4.89071e-05
4.89083e-05
4.93149e-05
4.93269e-05
4.88914e-05
4.93299e-05
4.93168e-05
5.15474e-05
5.19442e-05
4.88879e-05
4.9327e-05
4.93116e-05
5.19383e-05
5.19885e-05
5.20814e-05
4.94221e-05
4.94248e-05
4.96075e-05
4.95821e-05
5.19948e-05
5.20466e-05
4.94194e-05
4.94326e-05
4.96066e-05
4.95971e-05
4.94391e-05
4.95862e-05
4.96006e-05
5.20056e-05
5.2064e-05
4.94354e-05
4.96034e-05
4.96021e-05
5.20648e-05
5.21376e-05
5.24889e-05
4.96782e-05
4.96509e-05
5.00252e-05
5.00309e-05
5.2099e-05
5.25188e-05
4.96754e-05
4.96582e-05
5.00204e-05
5.00245e-05
4.96477e-05
5.00352e-05
5.00303e-05
5.21119e-05
5.25047e-05
4.96486e-05
5.00255e-05
5.00245e-05
5.25216e-05
5.25815e-05
5.26874e-05
5.01456e-05
5.01602e-05
5.03714e-05
5.03662e-05
5.26182e-05
5.26762e-05
5.01421e-05
5.01566e-05
5.03702e-05
5.03755e-05
5.01798e-05
5.03751e-05
5.03876e-05
5.26081e-05
5.26881e-05
5.01728e-05
5.03834e-05
5.0386e-05
5.26832e-05
5.27088e-05
5.28463e-05
5.04063e-05
5.03865e-05
5.05778e-05
5.05653e-05
5.26876e-05
5.28361e-05
5.04038e-05
5.03962e-05
5.05743e-05
5.05689e-05
5.03942e-05
5.05578e-05
5.05183e-05
5.27004e-05
5.28398e-05
5.03937e-05
5.0567e-05
5.05215e-05
5.27933e-05
5.29522e-05
5.33667e-05
5.06928e-05
5.06944e-05
5.10809e-05
5.1091e-05
5.29628e-05
5.33863e-05
5.06906e-05
5.06972e-05
5.10789e-05
5.10919e-05
5.06761e-05
5.1106e-05
5.11279e-05
5.29625e-05
5.33822e-05
5.06757e-05
5.10999e-05
5.11212e-05
5.34242e-05
5.34264e-05
5.34322e-05
5.11764e-05
5.1179e-05
5.12906e-05
5.12693e-05
5.34358e-05
5.34002e-05
5.11729e-05
5.11793e-05
5.12865e-05
5.12752e-05
5.12131e-05
5.12696e-05
5.12635e-05
5.34333e-05
5.34117e-05
5.1207e-05
5.12774e-05
5.12617e-05
5.33762e-05
5.34426e-05
5.34775e-05
5.12969e-05
5.12761e-05
5.13914e-05
5.13927e-05
5.34109e-05
5.34901e-05
5.1294e-05
5.1283e-05
5.1392e-05
5.13907e-05
5.12648e-05
5.13959e-05
5.1393e-05
5.34222e-05
5.34769e-05
5.12643e-05
5.13924e-05
5.13924e-05
5.34938e-05
5.35307e-05
5.37528e-05
5.14571e-05
5.14661e-05
5.16734e-05
5.16758e-05
5.35551e-05
5.37611e-05
5.14554e-05
5.14576e-05
5.16684e-05
5.16823e-05
5.14784e-05
5.16861e-05
5.17013e-05
5.35346e-05
5.37777e-05
5.14748e-05
5.16932e-05
5.16983e-05
5.37896e-05
5.38354e-05
5.4082e-05
5.17596e-05
5.17515e-05
5.20259e-05
5.1998e-05
5.38288e-05
5.40445e-05
5.17567e-05
5.17701e-05
5.20267e-05
5.20214e-05
5.17762e-05
5.19979e-05
5.19938e-05
5.38599e-05
5.40661e-05
5.17757e-05
5.20211e-05
5.19955e-05
5.40277e-05
5.41119e-05
5.40209e-05
5.20742e-05
5.20557e-05
5.20895e-05
5.20987e-05
5.4083e-05
5.40664e-05
5.2073e-05
5.20624e-05
5.20839e-05
5.20764e-05
5.20355e-05
5.20994e-05
5.20723e-05
5.40909e-05
5.40192e-05
5.20343e-05
5.20749e-05
5.20665e-05
5.40288e-05
5.40334e-05
5.42425e-05
5.20912e-05
5.2106e-05
5.22577e-05
5.22495e-05
5.40814e-05
5.42126e-05
5.20855e-05
5.2082e-05
5.22569e-05
5.22653e-05
5.20975e-05
5.22624e-05
5.23016e-05
5.40378e-05
5.42463e-05
5.20912e-05
5.228e-05
5.23017e-05
5.4278e-05
5.42989e-05
5.4303e-05
5.23311e-05
5.23052e-05
5.23994e-05
5.23735e-05
5.42534e-05
5.42783e-05
5.23317e-05
5.23298e-05
5.23999e-05
5.23932e-05
5.23429e-05
5.23715e-05
5.23588e-05
5.42914e-05
5.42952e-05
5.23435e-05
5.23902e-05
5.23588e-05
5.42225e-05
5.43168e-05
5.45089e-05
5.24108e-05
5.24007e-05
5.25751e-05
5.25919e-05
5.43117e-05
5.45412e-05
5.24105e-05
5.24106e-05
5.25697e-05
5.25754e-05
5.23662e-05
5.26018e-05
5.25972e-05
5.43193e-05
5.45164e-05
5.23658e-05
5.25837e-05
5.25924e-05
5.45623e-05
5.45637e-05
5.45131e-05
5.26374e-05
5.26451e-05
5.26716e-05
5.2665e-05
5.45849e-05
5.45092e-05
5.2632e-05
5.26318e-05
5.26695e-05
5.267e-05
5.26761e-05
5.26737e-05
5.27051e-05
5.45633e-05
5.45251e-05
5.26716e-05
5.26794e-05
5.27037e-05
5.45474e-05
5.45163e-05
5.45519e-05
5.26599e-05
5.26526e-05
5.26738e-05
5.2657e-05
5.45143e-05
5.45189e-05
5.26591e-05
5.26623e-05
5.26725e-05
5.2663e-05
5.26791e-05
5.26572e-05
5.26536e-05
5.45304e-05
5.45191e-05
5.26801e-05
5.26655e-05
5.26545e-05
5.44963e-05
5.46163e-05
5.45417e-05
5.27275e-05
5.26891e-05
5.27576e-05
5.27274e-05
5.45518e-05
5.4511e-05
5.27251e-05
5.2692e-05
5.27557e-05
5.27423e-05
5.26685e-05
5.27266e-05
5.27127e-05
5.45556e-05
5.45316e-05
5.2668e-05
5.2738e-05
5.27099e-05
5.44908e-05
5.45149e-05
5.44309e-05
5.27228e-05
5.27262e-05
5.27115e-05
5.27911e-05
5.45179e-05
5.46736e-05
5.27212e-05
5.27377e-05
5.27087e-05
5.27699e-05
5.27098e-05
5.28151e-05
5.27705e-05
5.45348e-05
5.46174e-05
5.27067e-05
5.27867e-05
5.27666e-05
5.46071e-05
5.45835e-05
5.53187e-05
5.27929e-05
5.29082e-05
5.32119e-05
5.30997e-05
5.47967e-05
5.5046e-05
5.2789e-05
5.28731e-05
5.32156e-05
5.31279e-05
5.29002e-05
5.31013e-05
5.31652e-05
5.47496e-05
5.51083e-05
5.28976e-05
5.3126e-05
5.31668e-05
5.5169e-05
5.53257e-05
5.43368e-05
5.32112e-05
5.30961e-05
5.28227e-05
5.28605e-05
5.5046e-05
5.45127e-05
5.3215e-05
5.3124e-05
5.28147e-05
5.2828e-05
5.31668e-05
5.28693e-05
5.29016e-05
5.51093e-05
5.44301e-05
5.3168e-05
5.28343e-05
5.28912e-05
5.45178e-05
5.42889e-05
5.437e-05
5.2694e-05
5.2767e-05
5.26348e-05
5.26718e-05
5.44944e-05
5.4354e-05
5.26833e-05
5.27319e-05
5.26279e-05
5.26811e-05
5.27354e-05
5.26583e-05
5.25444e-05
5.44085e-05
5.44208e-05
5.27275e-05
5.26795e-05
5.25503e-05
5.40959e-05
5.4458e-05
5.49844e-05
5.26602e-05
5.26777e-05
5.30407e-05
5.3032e-05
5.43812e-05
5.50589e-05
5.26585e-05
5.27015e-05
5.3047e-05
5.30601e-05
5.25572e-05
5.30537e-05
5.31433e-05
5.44872e-05
5.50479e-05
5.25647e-05
5.30807e-05
5.31463e-05
5.5318e-05
5.51791e-05
5.5389e-05
5.31985e-05
5.31939e-05
5.32809e-05
5.32394e-05
5.52574e-05
5.52261e-05
5.31985e-05
5.31794e-05
5.32742e-05
5.31997e-05
5.33449e-05
5.32778e-05
5.33521e-05
5.52074e-05
5.51404e-05
5.33341e-05
5.32192e-05
5.33295e-05
5.52116e-05
5.5239e-05
5.31537e-05
5.3179e-05
5.31034e-05
5.21249e-05
5.22245e-05
5.49806e-05
5.34072e-05
5.31714e-05
5.30694e-05
5.21266e-05
5.22422e-05
5.31114e-05
5.22014e-05
5.21483e-05
5.49194e-05
5.34683e-05
5.30835e-05
5.22311e-05
5.21607e-05
5.32963e-05
5.31017e-05
5.48461e-05
5.2039e-05
5.21847e-05
5.25504e-05
5.27063e-05
5.34064e-05
5.50047e-05
5.20414e-05
5.22013e-05
5.25406e-05
5.26463e-05
5.21319e-05
5.27337e-05
5.28724e-05
5.34675e-05
5.48737e-05
5.21479e-05
5.27105e-05
5.28951e-05
5.52667e-05
5.56176e-05
5.80157e-05
5.34211e-05
5.33371e-05
5.46193e-05
5.41885e-05
5.55291e-05
5.7011e-05
5.33996e-05
5.32471e-05
5.46074e-05
5.42254e-05
5.33951e-05
5.41477e-05
5.39799e-05
5.53654e-05
5.70316e-05
5.34016e-05
5.41747e-05
5.39677e-05
5.65565e-05
5.79705e-05
5.16807e-05
5.45591e-05
5.41559e-05
5.15934e-05
5.19834e-05
5.69977e-05
5.26417e-05
5.45526e-05
5.422e-05
5.16579e-05
5.23739e-05
5.39513e-05
5.20751e-05
5.22755e-05
5.70518e-05
5.32022e-05
5.39405e-05
5.24142e-05
5.22936e-05
5.32154e-05
5.08044e-05
4.97119e-05
5.04746e-05
5.09711e-05
4.97239e-05
5.00576e-05
5.18905e-05
5.02419e-05
5.05227e-05
5.12395e-05
4.97202e-05
4.9937e-05
5.13697e-05
5.01325e-05
5.02672e-05
5.23839e-05
5.00855e-05
5.13813e-05
4.9997e-05
5.0244e-05
5.05345e-05
5.05715e-05
6.09334e-05
5.00449e-05
5.02287e-05
5.59018e-05
5.52753e-05
5.0562e-05
6.00444e-05
5.00135e-05
5.00192e-05
5.56917e-05
5.4019e-05
5.03463e-05
5.49992e-05
5.43729e-05
5.02031e-05
5.77514e-05
5.03173e-05
5.38299e-05
5.42378e-05
5.87125e-05
6.25334e-05
5.62806e-05
5.56583e-05
6.16827e-05
5.62129e-05
5.43772e-05
4.36992e-05
4.32007e-05
4.33234e-05
5.47454e-05
5.91411e-05
5.46835e-05
3.73773e-05
3.73765e-05
3.7377e-05
3.7377e-05
3.73701e-05
3.73777e-05
3.73043e-05
3.73768e-05
3.73701e-05
3.73777e-05
3.73768e-05
3.73043e-05
3.73741e-05
3.72959e-05
3.72959e-05
3.58805e-05
4.08715e-05
3.66032e-05
4.51448e-05
5.51149e-05
6.4895e-05
3.58803e-05
4.08725e-05
3.66033e-05
4.5145e-05
3.58932e-05
3.58932e-05
3.58932e-05
3.44005e-05
3.44005e-05
3.44005e-05
3.44005e-05
3.52758e-05
3.56381e-05
3.58929e-05
3.53771e-05
3.60475e-05
3.42376e-05
3.53822e-05
5.51167e-05
6.48972e-05
3.52758e-05
3.58929e-05
3.56378e-05
3.53771e-05
3.60475e-05
3.53822e-05
3.42373e-05
3.65967e-05
3.65975e-05
3.5279e-05
3.40646e-05
3.40634e-05
3.39677e-05
5.13531e-05
3.46791e-05
5.46237e-05
7.65454e-05
8.08614e-05
3.39675e-05
5.13543e-05
3.46793e-05
5.46247e-05
3.39296e-05
3.39296e-05
3.39297e-05
3.25854e-05
3.25854e-05
3.25855e-05
3.25855e-05