/*--------------------------------*- C++ -*----------------------------------*\
| =========                 |                                                 |
| \\      /  F ield         | OpenFOAM: The Open Source CFD Toolbox           |
|  \\    /   O peration     | Version:  v2012                                 |
|   \\  /    A nd           | Website:  www.openfoam.com                      |
|    \\/     M anipulation  |                                                 |
\*---------------------------------------------------------------------------*/
FoamFile
{
    version     2.0;
    format      ascii;
    class       volScalarField;
    location    "875";
    object      k;
}
// * * * * * * * * * * * * * * * * * * * * * * * * * * * * * * * * * * * * * //

dimensions      [0 2 -2 0 0 0 0];


internalField   nonuniform List<scalar> 
171728
(
3.58932e-05
3.58912e-05
3.58912e-05
3.59957e-05
3.39296e-05
3.3889e-05
3.3889e-05
3.39623e-05
3.21578e-05
3.20081e-05
3.20081e-05
3.19522e-05
3.05346e-05
3.02293e-05
3.02292e-05
2.99885e-05
2.90329e-05
2.8554e-05
2.85539e-05
2.81226e-05
2.76354e-05
2.69871e-05
2.69871e-05
2.63906e-05
2.63308e-05
2.5531e-05
2.55309e-05
2.48072e-05
2.51112e-05
2.41849e-05
2.41848e-05
2.3378e-05
2.3971e-05
2.29506e-05
2.29505e-05
2.21047e-05
2.29058e-05
2.18268e-05
2.18267e-05
2.09854e-05
2.1912e-05
2.08114e-05
2.08112e-05
2.00131e-05
2.09865e-05
1.99014e-05
1.99012e-05
1.91814e-05
2.01242e-05
1.90949e-05
1.9095e-05
1.84896e-05
1.9324e-05
1.83882e-05
1.83895e-05
1.79325e-05
1.8585e-05
1.77794e-05
1.77802e-05
1.75141e-05
1.79046e-05
1.7274e-05
1.72718e-05
1.72206e-05
1.72798e-05
1.68398e-05
1.68405e-05
1.7006e-05
1.67101e-05
1.65443e-05
1.65317e-05
1.70253e-05
1.61914e-05
1.62761e-05
1.62869e-05
1.70984e-05
1.5728e-05
1.61607e-05
1.61486e-05
1.72817e-05
1.53059e-05
1.60992e-05
1.61109e-05
1.75193e-05
1.49381e-05
1.61425e-05
1.61428e-05
1.8238e-05
1.46157e-05
1.62988e-05
1.62828e-05
1.87074e-05
1.43298e-05
1.6493e-05
1.65241e-05
1.94271e-05
1.4113e-05
1.68209e-05
1.6858e-05
2.02413e-05
1.39231e-05
1.73156e-05
1.7214e-05
2.10345e-05
1.37894e-05
1.76896e-05
1.7744e-05
2.21388e-05
1.36847e-05
1.8236e-05
1.8237e-05
2.29649e-05
1.36512e-05
1.89502e-05
1.89209e-05
2.40745e-05
1.36299e-05
1.95646e-05
1.95709e-05
2.51537e-05
1.3685e-05
2.03604e-05
2.03943e-05
2.62598e-05
1.37731e-05
2.11659e-05
2.11652e-05
2.71586e-05
1.39042e-05
2.20426e-05
2.20344e-05
2.84079e-05
1.40862e-05
2.29436e-05
2.29357e-05
2.9425e-05
1.43113e-05
2.38787e-05
2.3878e-05
3.04878e-05
1.45864e-05
2.4851e-05
2.48601e-05
3.15103e-05
1.49093e-05
2.58547e-05
2.58589e-05
3.25312e-05
1.52751e-05
2.68704e-05
2.68713e-05
3.35344e-05
1.56879e-05
2.79014e-05
2.79019e-05
3.45162e-05
1.61464e-05
2.8933e-05
2.89394e-05
3.54382e-05
1.66483e-05
2.99652e-05
2.9968e-05
3.63767e-05
1.71886e-05
3.10046e-05
3.1005e-05
3.72696e-05
1.77735e-05
3.20222e-05
3.20275e-05
3.81415e-05
1.8394e-05
3.30416e-05
3.30414e-05
3.89869e-05
1.90509e-05
3.40275e-05
3.40363e-05
3.98137e-05
1.97386e-05
3.50164e-05
3.50133e-05
4.0601e-05
2.04566e-05
3.59668e-05
3.59744e-05
4.13865e-05
2.11994e-05
3.69003e-05
3.69024e-05
4.21243e-05
2.19635e-05
3.7808e-05
3.78131e-05
4.28485e-05
2.27463e-05
3.86943e-05
3.86939e-05
4.35479e-05
2.354e-05
3.95325e-05
3.95405e-05
4.42143e-05
2.43518e-05
4.0386e-05
4.0385e-05
4.48878e-05
2.51641e-05
4.11649e-05
4.11674e-05
4.5494e-05
2.59699e-05
4.19198e-05
4.19286e-05
4.60764e-05
2.67899e-05
4.26856e-05
4.26837e-05
4.66935e-05
2.76099e-05
4.33904e-05
4.33973e-05
4.7247e-05
2.83944e-05
4.40579e-05
4.40608e-05
4.77433e-05
2.91984e-05
4.47175e-05
4.47143e-05
4.82805e-05
2.99655e-05
4.53485e-05
4.53653e-05
4.87746e-05
3.07649e-05
4.59677e-05
4.59504e-05
4.92579e-05
3.14339e-05
4.6415e-05
4.64439e-05
4.95541e-05
3.22584e-05
4.71864e-05
4.71648e-05
5.02569e-05
3.29119e-05
4.74813e-05
4.74949e-05
5.04545e-05
3.35678e-05
4.80279e-05
4.80425e-05
5.08137e-05
3.42803e-05
4.85666e-05
4.85501e-05
5.13366e-05
3.48913e-05
4.89161e-05
4.89286e-05
5.15615e-05
3.55198e-05
4.94081e-05
4.94085e-05
5.19797e-05
3.60903e-05
4.96994e-05
4.97132e-05
5.21558e-05
3.66178e-05
5.01231e-05
5.01093e-05
5.25812e-05
3.71915e-05
5.04373e-05
5.04518e-05
5.27558e-05
3.76101e-05
5.06499e-05
5.06574e-05
5.286e-05
3.81936e-05
5.11917e-05
5.11815e-05
5.34714e-05
3.86282e-05
5.13002e-05
5.13134e-05
5.34298e-05
3.89449e-05
5.14798e-05
5.14715e-05
5.35669e-05
3.93615e-05
5.17425e-05
5.17525e-05
5.38249e-05
3.97902e-05
5.20426e-05
5.20515e-05
5.40571e-05
4.00712e-05
5.21227e-05
5.21152e-05
5.40671e-05
4.04022e-05
5.23358e-05
5.23409e-05
5.43464e-05
4.06287e-05
5.23643e-05
5.23893e-05
5.42177e-05
4.0943e-05
5.26745e-05
5.26404e-05
5.46283e-05
4.12121e-05
5.26979e-05
5.27235e-05
5.4618e-05
4.12622e-05
5.26434e-05
5.26504e-05
5.44604e-05
4.15072e-05
5.27019e-05
5.26822e-05
5.44696e-05
4.17099e-05
5.29984e-05
5.30223e-05
5.48638e-05
4.19745e-05
5.30981e-05
5.31175e-05
5.5169e-05
4.1895e-05
5.27317e-05
5.26848e-05
5.4419e-05
4.18306e-05
5.25805e-05
5.26132e-05
5.39447e-05
4.23747e-05
5.34074e-05
5.34037e-05
5.58688e-05
4.24581e-05
5.31584e-05
5.30103e-05
5.48041e-05
4.17197e-05
5.20782e-05
5.22297e-05
5.32181e-05
4.2181e-05
5.3347e-05
5.30179e-05
5.56678e-05
4.32641e-05
5.39092e-05
5.38022e-05
5.56935e-05
4.17256e-05
5.13145e-05
5.22727e-05
5.34052e-05
4.08562e-05
5.04423e-05
5.01176e-05
5.08894e-05
4.37418e-05
5.59117e-05
5.31609e-05
6.09757e-05
3.63068e-05
3.6291e-05
3.6291e-05
3.63068e-05
3.6291e-05
3.6291e-05
3.6423e-05
3.6423e-05
3.6423e-05
3.6423e-05
3.6291e-05
3.6291e-05
3.63068e-05
3.6291e-05
3.6291e-05
3.63068e-05
3.59957e-05
3.42687e-05
3.58912e-05
3.58912e-05
3.43767e-05
3.43766e-05
3.59957e-05
3.42687e-05
3.58911e-05
3.58912e-05
3.43767e-05
3.43766e-05
3.58912e-05
3.43767e-05
3.43767e-05
3.59957e-05
3.42687e-05
3.58912e-05
3.43767e-05
3.43767e-05
3.42687e-05
3.39623e-05
3.22635e-05
3.38889e-05
3.38889e-05
3.24684e-05
3.24683e-05
3.39622e-05
3.22635e-05
3.38889e-05
3.38889e-05
3.24684e-05
3.24683e-05
3.38889e-05
3.24685e-05
3.24683e-05
3.39622e-05
3.22635e-05
3.38889e-05
3.24685e-05
3.24684e-05
3.22634e-05
3.19522e-05
3.02994e-05
3.2008e-05
3.20078e-05
3.06643e-05
3.06642e-05
3.19522e-05
3.02994e-05
3.2008e-05
3.20078e-05
3.06644e-05
3.06641e-05
3.20079e-05
3.06645e-05
3.06642e-05
3.19522e-05
3.02993e-05
3.2008e-05
3.06645e-05
3.06644e-05
3.02991e-05
2.99886e-05
2.84254e-05
3.0229e-05
3.02288e-05
2.89624e-05
2.89622e-05
2.99885e-05
2.84254e-05
3.02292e-05
3.02288e-05
2.89626e-05
2.89621e-05
3.02289e-05
2.89628e-05
2.89623e-05
2.99885e-05
2.84252e-05
3.02291e-05
2.89627e-05
2.89626e-05
2.8425e-05
2.81227e-05
2.66741e-05
2.85536e-05
2.85534e-05
2.7368e-05
2.73678e-05
2.81228e-05
2.66741e-05
2.85539e-05
2.85533e-05
2.73684e-05
2.73677e-05
2.85535e-05
2.73685e-05
2.73679e-05
2.81227e-05
2.66739e-05
2.85538e-05
2.73684e-05
2.73682e-05
2.66737e-05
2.63909e-05
2.50664e-05
2.69866e-05
2.69864e-05
2.58841e-05
2.58838e-05
2.63908e-05
2.50664e-05
2.6987e-05
2.69863e-05
2.58846e-05
2.58837e-05
2.69865e-05
2.58847e-05
2.58839e-05
2.63908e-05
2.50662e-05
2.69869e-05
2.58846e-05
2.58844e-05
2.50659e-05
2.48077e-05
2.36126e-05
2.55303e-05
2.55301e-05
2.45102e-05
2.451e-05
2.48075e-05
2.36126e-05
2.55308e-05
2.55299e-05
2.45108e-05
2.45098e-05
2.55302e-05
2.4511e-05
2.45101e-05
2.48075e-05
2.36123e-05
2.55307e-05
2.45109e-05
2.45107e-05
2.36121e-05
2.33784e-05
2.23128e-05
2.41841e-05
2.41839e-05
2.32478e-05
2.32475e-05
2.33786e-05
2.23125e-05
2.41848e-05
2.41837e-05
2.32485e-05
2.32474e-05
2.4184e-05
2.32487e-05
2.32477e-05
2.33783e-05
2.23125e-05
2.41846e-05
2.32486e-05
2.32484e-05
2.23118e-05
2.21051e-05
2.11678e-05
2.29497e-05
2.29494e-05
2.20965e-05
2.20963e-05
2.21047e-05
2.11686e-05
2.29504e-05
2.29492e-05
2.20973e-05
2.20961e-05
2.29495e-05
2.20975e-05
2.20963e-05
2.21047e-05
2.11678e-05
2.29503e-05
2.20974e-05
2.20972e-05
2.11678e-05
2.09863e-05
2.01712e-05
2.18259e-05
2.18255e-05
2.10542e-05
2.10539e-05
2.09871e-05
2.01714e-05
2.18267e-05
2.18254e-05
2.10551e-05
2.10538e-05
2.18257e-05
2.10552e-05
2.1054e-05
2.09865e-05
2.01713e-05
2.18265e-05
2.10551e-05
2.1055e-05
2.01697e-05
2.00144e-05
1.93145e-05
2.08103e-05
2.08101e-05
2.0118e-05
2.01177e-05
2.00134e-05
1.93146e-05
2.08112e-05
2.08099e-05
2.0119e-05
2.01177e-05
2.08102e-05
2.01191e-05
2.01179e-05
2.00138e-05
1.93149e-05
2.08111e-05
2.01191e-05
2.01189e-05
1.93141e-05
1.91816e-05
1.85924e-05
1.99003e-05
1.99e-05
1.92859e-05
1.92854e-05
1.91817e-05
1.85914e-05
1.99012e-05
1.98998e-05
1.92869e-05
1.92855e-05
1.99001e-05
1.92867e-05
1.92855e-05
1.91824e-05
1.85924e-05
1.99011e-05
1.92869e-05
1.92866e-05
1.85904e-05
1.84925e-05
1.79964e-05
1.90941e-05
1.90936e-05
1.85542e-05
1.85542e-05
1.8491e-05
1.79996e-05
1.9095e-05
1.90936e-05
1.85555e-05
1.85543e-05
1.90938e-05
1.85556e-05
1.85544e-05
1.84922e-05
1.79982e-05
1.90949e-05
1.85557e-05
1.85554e-05
1.79938e-05
1.79324e-05
1.75454e-05
1.83881e-05
1.83869e-05
1.79231e-05
1.79235e-05
1.79324e-05
1.75542e-05
1.83893e-05
1.83882e-05
1.79241e-05
1.79226e-05
1.83881e-05
1.79247e-05
1.79235e-05
1.79354e-05
1.75434e-05
1.83891e-05
1.79241e-05
1.79246e-05
1.75512e-05
1.75081e-05
1.72068e-05
1.778e-05
1.77784e-05
1.7383e-05
1.73926e-05
1.7514e-05
1.72633e-05
1.7781e-05
1.77789e-05
1.73839e-05
1.73858e-05
1.77787e-05
1.73937e-05
1.73859e-05
1.75061e-05
1.72259e-05
1.77798e-05
1.73864e-05
1.73866e-05
1.72316e-05
1.7195e-05
1.70255e-05
1.72674e-05
1.72727e-05
1.69427e-05
1.69385e-05
1.72499e-05
1.69971e-05
1.72682e-05
1.7271e-05
1.6943e-05
1.69457e-05
1.72704e-05
1.69396e-05
1.69407e-05
1.72201e-05
1.70468e-05
1.72712e-05
1.69468e-05
1.69413e-05
1.70347e-05
1.70185e-05
1.69848e-05
1.68451e-05
1.68384e-05
1.65942e-05
1.66028e-05
1.69915e-05
1.70117e-05
1.6846e-05
1.68397e-05
1.65962e-05
1.65985e-05
1.68415e-05
1.66039e-05
1.65994e-05
1.70311e-05
1.69823e-05
1.68424e-05
1.65985e-05
1.66005e-05
1.70168e-05
1.7004e-05
1.70743e-05
1.65228e-05
1.65442e-05
1.63495e-05
1.63372e-05
1.70725e-05
1.70315e-05
1.65242e-05
1.65316e-05
1.63492e-05
1.63432e-05
1.65252e-05
1.63375e-05
1.63442e-05
1.70397e-05
1.70574e-05
1.6526e-05
1.63444e-05
1.63447e-05
1.70724e-05
1.70924e-05
1.71977e-05
1.6286e-05
1.62756e-05
1.61709e-05
1.61687e-05
1.70298e-05
1.71976e-05
1.62857e-05
1.62853e-05
1.61711e-05
1.61688e-05
1.62924e-05
1.61686e-05
1.61732e-05
1.70726e-05
1.71792e-05
1.62929e-05
1.61696e-05
1.6174e-05
1.72253e-05
1.73431e-05
1.76262e-05
1.6169e-05
1.6161e-05
1.61123e-05
1.61041e-05
1.72996e-05
1.75739e-05
1.61692e-05
1.61484e-05
1.61128e-05
1.61181e-05
1.61568e-05
1.61038e-05
1.60836e-05
1.72801e-05
1.75935e-05
1.61572e-05
1.61178e-05
1.6084e-05
1.74717e-05
1.76513e-05
1.80071e-05
1.60962e-05
1.60991e-05
1.61314e-05
1.61253e-05
1.76105e-05
1.80065e-05
1.6097e-05
1.61111e-05
1.61321e-05
1.61229e-05
1.6085e-05
1.61256e-05
1.61561e-05
1.76849e-05
1.79694e-05
1.60856e-05
1.61227e-05
1.61569e-05
1.8149e-05
1.81567e-05
1.85672e-05
1.61602e-05
1.61424e-05
1.62414e-05
1.62676e-05
1.81016e-05
1.86827e-05
1.61605e-05
1.61429e-05
1.62414e-05
1.62584e-05
1.61692e-05
1.62668e-05
1.62477e-05
1.80866e-05
1.86302e-05
1.61699e-05
1.62582e-05
1.62478e-05
1.85713e-05
1.87461e-05
1.91316e-05
1.63061e-05
1.62999e-05
1.6417e-05
1.64316e-05
1.87974e-05
1.91558e-05
1.63061e-05
1.62832e-05
1.64165e-05
1.64435e-05
1.62857e-05
1.64305e-05
1.64357e-05
1.87319e-05
1.92265e-05
1.62857e-05
1.64427e-05
1.64357e-05
1.92198e-05
1.92045e-05
2.01774e-05
1.64564e-05
1.64937e-05
1.67851e-05
1.6725e-05
1.9308e-05
1.99591e-05
1.6456e-05
1.65244e-05
1.67854e-05
1.67835e-05
1.65253e-05
1.67247e-05
1.67794e-05
1.94389e-05
2.01592e-05
1.65254e-05
1.67832e-05
1.67801e-05
2.01503e-05
2.04063e-05
2.08493e-05
1.68733e-05
1.6822e-05
1.71253e-05
1.71974e-05
2.01599e-05
2.11406e-05
1.68737e-05
1.68588e-05
1.71248e-05
1.71059e-05
1.68238e-05
1.71956e-05
1.70965e-05
2.03076e-05
2.08002e-05
1.68248e-05
1.71043e-05
1.70961e-05
2.07479e-05
2.10357e-05
2.19163e-05
1.72309e-05
1.73171e-05
1.76238e-05
1.75541e-05
2.13509e-05
2.17393e-05
1.72297e-05
1.7215e-05
1.76229e-05
1.7594e-05
1.72431e-05
1.75523e-05
1.76234e-05
2.09859e-05
2.18881e-05
1.72421e-05
1.75925e-05
1.7623e-05
2.19808e-05
2.21154e-05
2.26475e-05
1.77517e-05
1.76917e-05
1.8067e-05
1.81358e-05
2.18877e-05
2.28654e-05
1.77507e-05
1.77457e-05
1.80671e-05
1.81433e-05
1.77435e-05
1.81355e-05
1.81286e-05
2.21258e-05
2.28549e-05
1.77435e-05
1.8143e-05
1.81287e-05
2.27858e-05
2.28729e-05
2.40575e-05
1.8245e-05
1.82363e-05
1.88031e-05
1.87626e-05
2.30355e-05
2.38624e-05
1.8245e-05
1.82374e-05
1.88014e-05
1.87131e-05
1.82539e-05
1.8759e-05
1.87118e-05
2.29779e-05
2.37516e-05
1.82539e-05
1.87098e-05
1.871e-05
2.3787e-05
2.42196e-05
2.47087e-05
1.89404e-05
1.89538e-05
1.93609e-05
1.93879e-05
2.41721e-05
2.48124e-05
1.89383e-05
1.8924e-05
1.93603e-05
1.94339e-05
1.89214e-05
1.93872e-05
1.94487e-05
2.40872e-05
2.49465e-05
1.89197e-05
1.94335e-05
1.94483e-05
2.50005e-05
2.49501e-05
2.60297e-05
1.95484e-05
1.95655e-05
2.01748e-05
2.01794e-05
2.50012e-05
2.60199e-05
1.95474e-05
1.95712e-05
2.01729e-05
2.01793e-05
1.95895e-05
2.01771e-05
2.01762e-05
2.50959e-05
2.59839e-05
1.95888e-05
2.01773e-05
2.01743e-05
2.59915e-05
2.62755e-05
2.70784e-05
2.03755e-05
2.03626e-05
2.09801e-05
2.09494e-05
2.62432e-05
2.6991e-05
2.03736e-05
2.03963e-05
2.0979e-05
2.09603e-05
2.03822e-05
2.09469e-05
2.09277e-05
2.62786e-05
2.70298e-05
2.03805e-05
2.0958e-05
2.09263e-05
2.69344e-05
2.73019e-05
2.81198e-05
2.11786e-05
2.11685e-05
2.18134e-05
2.18297e-05
2.72543e-05
2.81686e-05
2.11768e-05
2.11677e-05
2.18115e-05
2.18132e-05
2.11374e-05
2.18272e-05
2.1826e-05
2.72429e-05
2.81293e-05
2.11355e-05
2.18113e-05
2.1824e-05
2.81716e-05
2.83625e-05
2.91941e-05
2.20363e-05
2.20447e-05
2.27123e-05
2.27154e-05
2.83962e-05
2.91909e-05
2.20342e-05
2.2036e-05
2.27103e-05
2.27102e-05
2.20471e-05
2.27129e-05
2.27126e-05
2.83562e-05
2.91932e-05
2.20452e-05
2.27081e-05
2.27103e-05
2.91891e-05
2.94241e-05
3.02369e-05
2.29424e-05
2.29462e-05
2.36397e-05
2.36393e-05
2.9426e-05
3.0232e-05
2.294e-05
2.29378e-05
2.36371e-05
2.36428e-05
2.29436e-05
2.36373e-05
2.3653e-05
2.94203e-05
3.02454e-05
2.29411e-05
2.36411e-05
2.36502e-05
3.02607e-05
3.04685e-05
3.12913e-05
2.38779e-05
2.3881e-05
2.46151e-05
2.46065e-05
3.04639e-05
3.12822e-05
2.3875e-05
2.38797e-05
2.46128e-05
2.4621e-05
2.38897e-05
2.46045e-05
2.46084e-05
3.04788e-05
3.12969e-05
2.38868e-05
2.4619e-05
2.46058e-05
3.12786e-05
3.15192e-05
3.23071e-05
2.48565e-05
2.4853e-05
2.56077e-05
2.56105e-05
3.15107e-05
3.23158e-05
2.48541e-05
2.48619e-05
2.56044e-05
2.56018e-05
2.48595e-05
2.56082e-05
2.56018e-05
3.15245e-05
3.22981e-05
2.48567e-05
2.55999e-05
2.55985e-05
3.23078e-05
3.25383e-05
3.33045e-05
2.58626e-05
2.5857e-05
2.66146e-05
2.66094e-05
3.25348e-05
3.32954e-05
2.58592e-05
2.58608e-05
2.66121e-05
2.66201e-05
2.58545e-05
2.66079e-05
2.66277e-05
3.25333e-05
3.33112e-05
2.5851e-05
2.66189e-05
2.66248e-05
3.33219e-05
3.35282e-05
3.42817e-05
2.6874e-05
2.6872e-05
2.76463e-05
2.76521e-05
3.35286e-05
3.42983e-05
2.68712e-05
2.68724e-05
2.76431e-05
2.76476e-05
2.68752e-05
2.765e-05
2.7646e-05
3.35263e-05
3.42875e-05
2.68724e-05
2.76456e-05
2.76422e-05
3.42893e-05
3.4488e-05
3.52422e-05
2.78963e-05
2.79031e-05
2.86761e-05
2.86726e-05
3.45047e-05
3.52301e-05
2.78929e-05
2.79034e-05
2.86729e-05
2.86761e-05
2.7911e-05
2.86716e-05
2.8677e-05
3.45031e-05
3.52373e-05
2.79071e-05
2.86754e-05
2.86735e-05
3.52319e-05
3.54653e-05
3.61664e-05
2.89433e-05
2.89341e-05
2.97171e-05
2.97062e-05
3.54464e-05
3.61553e-05
2.89399e-05
2.89403e-05
2.97142e-05
2.97141e-05
2.89326e-05
2.97045e-05
2.97153e-05
3.54551e-05
3.61632e-05
2.89291e-05
2.97127e-05
2.97119e-05
3.61709e-05
3.6365e-05
3.70614e-05
2.99709e-05
2.99667e-05
3.07419e-05
3.07525e-05
3.63649e-05
3.70798e-05
2.99677e-05
2.99691e-05
3.07383e-05
3.07495e-05
2.99744e-05
3.07518e-05
3.07468e-05
3.63644e-05
3.7074e-05
2.9971e-05
3.0749e-05
3.07429e-05
3.70673e-05
3.72653e-05
3.79485e-05
3.10013e-05
3.10052e-05
3.17753e-05
3.17636e-05
3.72726e-05
3.79326e-05
3.09975e-05
3.10053e-05
3.17719e-05
3.17692e-05
3.10054e-05
3.17628e-05
3.17753e-05
3.72723e-05
3.79398e-05
3.10014e-05
3.17685e-05
3.17716e-05
3.79484e-05
3.81405e-05
3.8797e-05
3.2028e-05
3.20229e-05
3.27873e-05
3.27902e-05
3.81359e-05
3.88042e-05
3.20245e-05
3.20279e-05
3.27838e-05
3.27913e-05
3.20295e-05
3.279e-05
3.2789e-05
3.81414e-05
3.8801e-05
3.20259e-05
3.27912e-05
3.27853e-05
3.87974e-05
3.89917e-05
3.96222e-05
3.30424e-05
3.30418e-05
3.37903e-05
3.37827e-05
3.89914e-05
3.96141e-05
3.30387e-05
3.30415e-05
3.37865e-05
3.37887e-05
3.30407e-05
3.37825e-05
3.3793e-05
3.89868e-05
3.96262e-05
3.30369e-05
3.37885e-05
3.3789e-05
3.96312e-05
3.98025e-05
4.04298e-05
3.40346e-05
3.40275e-05
3.47715e-05
3.47706e-05
3.9795e-05
4.04363e-05
3.40308e-05
3.40361e-05
3.47682e-05
3.47727e-05
3.40399e-05
3.47709e-05
3.47682e-05
3.98102e-05
4.0429e-05
3.40361e-05
3.47729e-05
3.47648e-05
4.04202e-05
4.06092e-05
4.1205e-05
3.50152e-05
3.50162e-05
3.57344e-05
3.5732e-05
4.0618e-05
4.12012e-05
3.50114e-05
3.50131e-05
3.57302e-05
3.57343e-05
3.50118e-05
3.57326e-05
3.574e-05
4.06052e-05
4.121e-05
3.50081e-05
3.57347e-05
3.57358e-05
4.12166e-05
4.13802e-05
4.19569e-05
3.59722e-05
3.59659e-05
3.66729e-05
3.66675e-05
4.13717e-05
4.19562e-05
3.59681e-05
3.59736e-05
3.66695e-05
3.66732e-05
3.59765e-05
3.66684e-05
3.6672e-05
4.13865e-05
4.19563e-05
3.59726e-05
3.66738e-05
3.66687e-05
4.19563e-05
4.21218e-05
4.26887e-05
3.69027e-05
3.68995e-05
3.75865e-05
3.7581e-05
4.21244e-05
4.26823e-05
3.6899e-05
3.69017e-05
3.75825e-05
3.7585e-05
3.69025e-05
3.75823e-05
3.75878e-05
4.21209e-05
4.26888e-05
3.6899e-05
3.7586e-05
3.75839e-05
4.26879e-05
4.28524e-05
4.33906e-05
3.78126e-05
3.78065e-05
3.84765e-05
3.84774e-05
4.28466e-05
4.33997e-05
3.78086e-05
3.78119e-05
3.84728e-05
3.84777e-05
3.7812e-05
3.84787e-05
3.84749e-05
4.28531e-05
4.33944e-05
3.78083e-05
3.84785e-05
3.84714e-05
4.33917e-05
4.35434e-05
4.40583e-05
3.86926e-05
3.8693e-05
3.93287e-05
3.93196e-05
4.35506e-05
4.40458e-05
3.86885e-05
3.8693e-05
3.93248e-05
3.93269e-05
3.86934e-05
3.93218e-05
3.9334e-05
4.35463e-05
4.40574e-05
3.86897e-05
3.93285e-05
3.93303e-05
4.40641e-05
4.42113e-05
4.47439e-05
3.95395e-05
3.95301e-05
4.01765e-05
4.01736e-05
4.42008e-05
4.47482e-05
3.95357e-05
3.95386e-05
4.01729e-05
4.01767e-05
3.95432e-05
4.01754e-05
4.01724e-05
4.42116e-05
4.47464e-05
3.95398e-05
4.01778e-05
4.01691e-05
4.47392e-05
4.48912e-05
4.53539e-05
4.03845e-05
4.03844e-05
4.09775e-05
4.09757e-05
4.48972e-05
4.53553e-05
4.03806e-05
4.03839e-05
4.09733e-05
4.09762e-05
4.03815e-05
4.09783e-05
4.09818e-05
4.48924e-05
4.53551e-05
4.0378e-05
4.09781e-05
4.09779e-05
4.53606e-05
4.54888e-05
4.5941e-05
4.1167e-05
4.11621e-05
4.17345e-05
4.17251e-05
4.54862e-05
4.59325e-05
4.11627e-05
4.11652e-05
4.1731e-05
4.17352e-05
4.11707e-05
4.17275e-05
4.17331e-05
4.54896e-05
4.59451e-05
4.1167e-05
4.17367e-05
4.173e-05
4.59405e-05
4.60782e-05
4.65625e-05
4.19262e-05
4.19174e-05
4.24964e-05
4.24941e-05
4.6071e-05
4.65674e-05
4.19227e-05
4.19269e-05
4.24926e-05
4.24943e-05
4.19244e-05
4.2497e-05
4.24936e-05
4.60826e-05
4.65602e-05
4.19213e-05
4.24965e-05
4.24903e-05
4.65564e-05
4.66985e-05
4.71137e-05
4.26846e-05
4.26831e-05
4.32272e-05
4.3221e-05
4.67042e-05
4.71072e-05
4.26807e-05
4.26817e-05
4.32231e-05
4.32257e-05
4.2681e-05
4.32235e-05
4.32339e-05
4.66958e-05
4.7117e-05
4.26776e-05
4.32272e-05
4.323e-05
4.71308e-05
4.72287e-05
4.76422e-05
4.33943e-05
4.3387e-05
4.38873e-05
4.38809e-05
4.72207e-05
4.76418e-05
4.33902e-05
4.33947e-05
4.38843e-05
4.3889e-05
4.34053e-05
4.38847e-05
4.38807e-05
4.72337e-05
4.76448e-05
4.34017e-05
4.38926e-05
4.38785e-05
4.76217e-05
4.77687e-05
4.81425e-05
4.406e-05
4.40555e-05
4.45656e-05
4.45657e-05
4.77709e-05
4.81472e-05
4.4057e-05
4.40587e-05
4.4561e-05
4.45591e-05
4.4044e-05
4.45678e-05
4.45713e-05
4.77677e-05
4.81376e-05
4.40418e-05
4.45595e-05
4.45668e-05
4.81666e-05
4.82465e-05
4.86787e-05
4.47154e-05
4.47131e-05
4.51769e-05
4.51644e-05
4.82475e-05
4.86671e-05
4.47103e-05
4.47116e-05
4.51741e-05
4.51829e-05
4.47355e-05
4.51697e-05
4.51714e-05
4.8246e-05
4.86905e-05
4.47305e-05
4.51882e-05
4.51693e-05
4.86507e-05
4.88168e-05
4.91492e-05
4.53575e-05
4.53464e-05
4.58528e-05
4.58575e-05
4.88088e-05
4.91603e-05
4.53558e-05
4.53626e-05
4.5849e-05
4.58447e-05
4.53323e-05
4.58575e-05
4.58549e-05
4.88254e-05
4.91388e-05
4.53315e-05
4.58435e-05
4.58515e-05
4.91796e-05
4.92101e-05
4.94499e-05
4.59592e-05
4.59644e-05
4.62633e-05
4.62425e-05
4.92192e-05
4.94209e-05
4.59537e-05
4.59485e-05
4.62596e-05
4.62659e-05
4.5988e-05
4.62508e-05
4.62747e-05
4.92001e-05
4.94633e-05
4.5983e-05
4.62739e-05
4.62715e-05
4.94439e-05
4.95996e-05
5.01686e-05
4.64311e-05
4.64094e-05
4.70214e-05
4.70298e-05
4.95691e-05
5.01956e-05
4.64293e-05
4.64385e-05
4.70195e-05
4.70229e-05
4.64093e-05
4.70281e-05
4.69838e-05
4.96163e-05
5.01649e-05
4.64082e-05
4.70199e-05
4.69822e-05
5.01366e-05
5.02518e-05
5.03379e-05
4.7172e-05
4.71871e-05
4.74189e-05
4.74116e-05
5.02814e-05
5.0329e-05
4.7168e-05
4.71669e-05
4.74125e-05
4.7407e-05
4.71596e-05
4.74194e-05
4.74721e-05
5.02435e-05
5.03316e-05
4.71558e-05
4.74142e-05
4.74662e-05
5.04124e-05
5.03884e-05
5.07636e-05
4.74912e-05
4.74723e-05
4.78741e-05
4.78581e-05
5.03692e-05
5.07498e-05
4.74864e-05
4.74856e-05
4.78743e-05
4.78851e-05
4.75388e-05
4.78617e-05
4.78434e-05
5.03869e-05
5.07784e-05
4.75349e-05
4.78886e-05
4.78446e-05
5.0694e-05
5.08951e-05
5.12333e-05
4.80344e-05
4.8027e-05
4.84551e-05
4.84607e-05
5.08914e-05
5.12478e-05
4.8034e-05
4.80425e-05
4.84501e-05
4.84449e-05
4.79861e-05
4.84609e-05
4.8443e-05
5.09055e-05
5.12225e-05
4.79862e-05
4.84429e-05
4.84373e-05
5.12459e-05
5.12972e-05
5.14637e-05
4.856e-05
4.85637e-05
4.88183e-05
4.88118e-05
5.1309e-05
5.14602e-05
4.85543e-05
4.85487e-05
4.88151e-05
4.88207e-05
4.85765e-05
4.88204e-05
4.88513e-05
5.12877e-05
5.14736e-05
4.85707e-05
4.88305e-05
4.88503e-05
5.15023e-05
5.15458e-05
5.19155e-05
4.8916e-05
4.89088e-05
4.92911e-05
4.92838e-05
5.15411e-05
5.19088e-05
4.89133e-05
4.89202e-05
4.92884e-05
4.92871e-05
4.89261e-05
4.92856e-05
4.92648e-05
5.15581e-05
5.19086e-05
4.89256e-05
4.92863e-05
4.92607e-05
5.18815e-05
5.20016e-05
5.21209e-05
4.9415e-05
4.9406e-05
4.96556e-05
4.96434e-05
5.1992e-05
5.21112e-05
4.94125e-05
4.94092e-05
4.96538e-05
4.96556e-05
4.93983e-05
4.96465e-05
4.96561e-05
5.19933e-05
5.21253e-05
4.9394e-05
4.96598e-05
4.96562e-05
5.212e-05
5.21596e-05
5.24314e-05
4.97053e-05
4.96973e-05
4.99764e-05
4.99841e-05
5.2154e-05
5.24549e-05
4.97026e-05
4.97083e-05
4.99719e-05
4.99768e-05
4.96991e-05
4.99901e-05
4.99842e-05
5.2168e-05
5.24358e-05
4.97001e-05
4.9981e-05
4.99795e-05
5.24542e-05
5.25453e-05
5.27388e-05
5.01078e-05
5.01144e-05
5.04153e-05
5.0403e-05
5.25667e-05
5.27228e-05
5.01037e-05
5.01045e-05
5.04126e-05
5.04058e-05
5.01289e-05
5.04101e-05
5.0429e-05
5.25438e-05
5.27296e-05
5.01223e-05
5.04112e-05
5.04266e-05
5.27481e-05
5.27573e-05
5.27972e-05
5.04539e-05
5.04353e-05
5.05471e-05
5.05387e-05
5.27376e-05
5.2791e-05
5.04514e-05
5.04476e-05
5.05464e-05
5.05559e-05
5.04484e-05
5.05338e-05
5.05092e-05
5.27498e-05
5.28105e-05
5.04486e-05
5.05565e-05
5.05117e-05
5.27509e-05
5.28916e-05
5.3378e-05
5.06491e-05
5.06488e-05
5.10714e-05
5.10736e-05
5.28993e-05
5.33866e-05
5.06483e-05
5.0656e-05
5.1067e-05
5.1065e-05
5.06168e-05
5.10845e-05
5.10912e-05
5.29053e-05
5.33724e-05
5.06173e-05
5.10701e-05
5.10832e-05
5.34066e-05
5.34469e-05
5.34424e-05
5.11846e-05
5.11817e-05
5.13093e-05
5.12954e-05
5.3448e-05
5.34256e-05
5.11788e-05
5.11756e-05
5.13063e-05
5.13054e-05
5.12041e-05
5.12963e-05
5.1301e-05
5.34401e-05
5.34403e-05
5.11975e-05
5.13095e-05
5.13022e-05
5.34219e-05
5.34508e-05
5.34704e-05
5.13119e-05
5.12997e-05
5.13861e-05
5.13982e-05
5.34353e-05
5.34963e-05
5.13099e-05
5.13098e-05
5.13887e-05
5.13964e-05
5.13022e-05
5.1404e-05
5.13958e-05
5.34495e-05
5.34877e-05
5.13037e-05
5.13979e-05
5.13927e-05
5.34958e-05
5.35279e-05
5.37734e-05
5.1458e-05
5.14701e-05
5.16836e-05
5.16686e-05
5.35586e-05
5.37494e-05
5.1457e-05
5.14673e-05
5.16776e-05
5.16728e-05
5.14811e-05
5.16757e-05
5.16844e-05
5.35477e-05
5.37574e-05
5.14755e-05
5.16816e-05
5.1682e-05
5.37631e-05
5.3852e-05
5.40429e-05
5.17637e-05
5.17395e-05
5.20022e-05
5.19811e-05
5.38148e-05
5.40251e-05
5.17581e-05
5.1745e-05
5.20013e-05
5.19918e-05
5.17491e-05
5.19803e-05
5.198e-05
5.38254e-05
5.40381e-05
5.17488e-05
5.19911e-05
5.19799e-05
5.40224e-05
5.40683e-05
5.40247e-05
5.20472e-05
5.20408e-05
5.2078e-05
5.20974e-05
5.40647e-05
5.40766e-05
5.20473e-05
5.20523e-05
5.20774e-05
5.21003e-05
5.20371e-05
5.21051e-05
5.20859e-05
5.40766e-05
5.4065e-05
5.20361e-05
5.21034e-05
5.20832e-05
5.4038e-05
5.40576e-05
5.43018e-05
5.20956e-05
5.21154e-05
5.23162e-05
5.22879e-05
5.41068e-05
5.42518e-05
5.20932e-05
5.21106e-05
5.23098e-05
5.22783e-05
5.21029e-05
5.22907e-05
5.23161e-05
5.40845e-05
5.4249e-05
5.20998e-05
5.22827e-05
5.23107e-05
5.43077e-05
5.43341e-05
5.42005e-05
5.23623e-05
5.23313e-05
5.23613e-05
5.2351e-05
5.42811e-05
5.42157e-05
5.23591e-05
5.23363e-05
5.23631e-05
5.23775e-05
5.23699e-05
5.23583e-05
5.23722e-05
5.42897e-05
5.42588e-05
5.23668e-05
5.23845e-05
5.23744e-05
5.42109e-05
5.42103e-05
5.45623e-05
5.23609e-05
5.23572e-05
5.25623e-05
5.25823e-05
5.42338e-05
5.45709e-05
5.23627e-05
5.23823e-05
5.25548e-05
5.2549e-05
5.23676e-05
5.25845e-05
5.25123e-05
5.42719e-05
5.45133e-05
5.23702e-05
5.25503e-05
5.25071e-05
5.45045e-05
5.46764e-05
5.4609e-05
5.26851e-05
5.26709e-05
5.27507e-05
5.27146e-05
5.46433e-05
5.45492e-05
5.26765e-05
5.26396e-05
5.27483e-05
5.27261e-05
5.26516e-05
5.27199e-05
5.27562e-05
5.45915e-05
5.45971e-05
5.26428e-05
5.27288e-05
5.27526e-05
5.46321e-05
5.45805e-05
5.43341e-05
5.27147e-05
5.26927e-05
5.25931e-05
5.26344e-05
5.45458e-05
5.44538e-05
5.27177e-05
5.272e-05
5.2594e-05
5.26463e-05
5.27391e-05
5.26426e-05
5.26432e-05
5.45982e-05
5.4464e-05
5.27392e-05
5.26587e-05
5.26473e-05
5.44472e-05
5.4372e-05
5.46549e-05
5.25969e-05
5.26348e-05
5.2772e-05
5.26891e-05
5.44765e-05
5.44904e-05
5.25966e-05
5.26376e-05
5.27637e-05
5.26637e-05
5.26404e-05
5.26865e-05
5.26669e-05
5.44726e-05
5.44581e-05
5.26426e-05
5.26605e-05
5.26596e-05
5.44578e-05
5.46824e-05
5.46217e-05
5.28113e-05
5.27122e-05
5.28396e-05
5.28972e-05
5.45135e-05
5.47953e-05
5.28059e-05
5.26999e-05
5.28382e-05
5.29111e-05
5.26768e-05
5.29012e-05
5.28551e-05
5.44889e-05
5.48153e-05
5.26693e-05
5.2916e-05
5.2855e-05
5.4726e-05
5.46691e-05
5.51588e-05
5.28768e-05
5.29845e-05
5.31302e-05
5.30871e-05
5.49053e-05
5.50234e-05
5.28776e-05
5.30065e-05
5.31346e-05
5.31154e-05
5.29779e-05
5.31058e-05
5.317e-05
5.4935e-05
5.50787e-05
5.29805e-05
5.31321e-05
5.31717e-05
5.51596e-05
5.51804e-05
5.43243e-05
5.3134e-05
5.30804e-05
5.28139e-05
5.28339e-05
5.50112e-05
5.44812e-05
5.31379e-05
5.31037e-05
5.28045e-05
5.27821e-05
5.31689e-05
5.28404e-05
5.28873e-05
5.50556e-05
5.43728e-05
5.31696e-05
5.27831e-05
5.28722e-05
5.45046e-05
5.42389e-05
5.41216e-05
5.26556e-05
5.27296e-05
5.25353e-05
5.259e-05
5.44518e-05
5.41876e-05
5.26432e-05
5.26819e-05
5.25264e-05
5.25968e-05
5.2712e-05
5.25739e-05
5.24504e-05
5.43499e-05
5.42395e-05
5.27013e-05
5.25951e-05
5.24583e-05
5.39225e-05
5.4241e-05
5.5531e-05
5.25635e-05
5.25979e-05
5.32749e-05
5.31601e-05
5.42104e-05
5.53737e-05
5.25579e-05
5.26166e-05
5.32857e-05
5.32185e-05
5.24587e-05
5.31679e-05
5.32218e-05
5.43091e-05
5.54251e-05
5.24681e-05
5.32282e-05
5.323e-05
5.55887e-05
5.5777e-05
5.55929e-05
5.35081e-05
5.33781e-05
5.35564e-05
5.34005e-05
5.55975e-05
5.52089e-05
5.35143e-05
5.33867e-05
5.35524e-05
5.33389e-05
5.35222e-05
5.34347e-05
5.35354e-05
5.56015e-05
5.49635e-05
5.3515e-05
5.33464e-05
5.3509e-05
5.52698e-05
5.51795e-05
5.25495e-05
5.33041e-05
5.31439e-05
5.1766e-05
5.20986e-05
5.48528e-05
5.32491e-05
5.32894e-05
5.30275e-05
5.17755e-05
5.22182e-05
5.31657e-05
5.20986e-05
5.20697e-05
5.46286e-05
5.35456e-05
5.31248e-05
5.22271e-05
5.20875e-05
5.31432e-05
5.24872e-05
5.46114e-05
5.165e-05
5.20694e-05
5.22584e-05
5.27231e-05
5.327e-05
5.51366e-05
5.16667e-05
5.22124e-05
5.2256e-05
5.25939e-05
5.20724e-05
5.28222e-05
5.29887e-05
5.36461e-05
5.4732e-05
5.2096e-05
5.27188e-05
5.30179e-05
5.54486e-05
5.55115e-05
5.85944e-05
5.33142e-05
5.33058e-05
5.49533e-05
5.40568e-05
5.55932e-05
5.66714e-05
5.32704e-05
5.29312e-05
5.48977e-05
5.38525e-05
5.33349e-05
5.39331e-05
5.35802e-05
5.49308e-05
5.62491e-05
5.3328e-05
5.37133e-05
5.35303e-05
5.57075e-05
5.85764e-05
5.19968e-05
5.4927e-05
5.40392e-05
5.19724e-05
5.21289e-05
5.66514e-05
5.28334e-05
5.48807e-05
5.39618e-05
5.2111e-05
5.33305e-05
5.35699e-05
5.21734e-05
5.25842e-05
5.64194e-05
5.46014e-05
5.35236e-05
5.32923e-05
5.26647e-05
5.39561e-05
5.1013e-05
4.93834e-05
5.06986e-05
5.11753e-05
4.96114e-05
5.01835e-05
5.21361e-05
5.04145e-05
5.08211e-05
5.21748e-05
4.96427e-05
5.00519e-05
5.18489e-05
5.03374e-05
5.05672e-05
5.37814e-05
5.02129e-05
5.19248e-05
5.01782e-05
5.05687e-05
5.08928e-05
5.0016e-05
6.16891e-05
4.98353e-05
5.03194e-05
5.56953e-05
5.54257e-05
5.06226e-05
6.12278e-05
4.98278e-05
5.0013e-05
5.53345e-05
5.27282e-05
5.05759e-05
5.51834e-05
5.40946e-05
5.01793e-05
5.65464e-05
5.05666e-05
5.25042e-05
5.37727e-05
5.90708e-05
6.2984e-05
5.6313e-05
5.60715e-05
6.26035e-05
5.60429e-05
5.33143e-05
4.37082e-05
4.25901e-05
4.32953e-05
5.50164e-05
5.8328e-05
5.48519e-05
3.73773e-05
3.73765e-05
3.7377e-05
3.7377e-05
3.73701e-05
3.73777e-05
3.73043e-05
3.73768e-05
3.73701e-05
3.73777e-05
3.73768e-05
3.73043e-05
3.73741e-05
3.72959e-05
3.72959e-05
3.58805e-05
4.08716e-05
3.66032e-05
4.51448e-05
5.51149e-05
6.4895e-05
3.58803e-05
4.08726e-05
3.66033e-05
4.51451e-05
3.58932e-05
3.58932e-05
3.58932e-05
3.44005e-05
3.44005e-05
3.44005e-05
3.44005e-05
3.52758e-05
3.56381e-05
3.58929e-05
3.53771e-05
3.60475e-05
3.42376e-05
3.53822e-05
5.51167e-05
6.48972e-05
3.52758e-05
3.58929e-05
3.56378e-05
3.53771e-05
3.60475e-05
3.53822e-05
3.42373e-05
3.65967e-05
3.65975e-05
3.5279e-05
3.40646e-05
3.40634e-05
3.39677e-05
5.1353e-05
3.46791e-05
5.46237e-05
7.65454e-05
8.08614e-05
3.39675e-05
5.13542e-05
3.46793e-05
5.46247e-05
3.39296e-05
3.39296e-05
3.39297e-05
3.25854e-05
3.25854e-05
3.25855e-05
3.25855e-05