/*--------------------------------*- C++ -*----------------------------------*\
| =========                 |                                                 |
| \\      /  F ield         | OpenFOAM: The Open Source CFD Toolbox           |
|  \\    /   O peration     | Version:  v2012                                 |
|   \\  /    A nd           | Website:  www.openfoam.com                      |
|    \\/     M anipulation  |                                                 |
\*---------------------------------------------------------------------------*/
FoamFile
{
    version     2.0;
    format      ascii;
    class       volScalarField;
    location    "875";
    object      nut;
}
// * * * * * * * * * * * * * * * * * * * * * * * * * * * * * * * * * * * * * //

dimensions      [0 2 -1 0 0 0 0];


internalField   nonuniform List<scalar> 
171728
(
1.75352e-06
1.77354e-06
3.76018e-06
2.32616e-06
1.75449e-06
1.74694e-06
4.75056e-06
2.30462e-06
1.74969e-06
1.72853e-06
7.13009e-06
2.22794e-06
1.74798e-06
1.71432e-06
1.05275e-05
2.13179e-06
1.75136e-06
1.70105e-06
8.05533e-06
2.03663e-06
1.75273e-06
1.6824e-06
3.37986e-06
1.92261e-06
1.7438e-06
1.65359e-06
1.83949e-06
1.82418e-06
1.74383e-06
1.6135e-06
1.56624e-06
1.83354e-06
1.76775e-06
1.56122e-06
1.52864e-06
2.05597e-06
1.79796e-06
1.49808e-06
1.5271e-06
3.1684e-06
1.83115e-06
1.42259e-06
1.51818e-06
4.54918e-06
1.87974e-06
1.33928e-06
1.49998e-06
5.76267e-06
1.94096e-06
1.25736e-06
1.46934e-06
6.12342e-06
1.89231e-06
1.17483e-06
1.42181e-06
2.9023e-06
1.7292e-06
1.09475e-06
1.37634e-06
1.73064e-06
1.58077e-06
1.01346e-06
1.30127e-06
1.36174e-06
1.50974e-06
9.43807e-07
1.20554e-06
1.20896e-06
1.47381e-06
9.12761e-07
1.1254e-06
1.11877e-06
1.46764e-06
9.50932e-07
1.11189e-06
1.1358e-06
1.43608e-06
1.00339e-06
1.18825e-06
1.48007e-06
1.40461e-06
1.23577e-06
1.35547e-06
1.42824e-06
1.36463e-06
1.55836e-06
1.6035e-06
2.78474e-06
1.30583e-06
2.1891e-06
2.17782e-06
4.18338e-06
1.24273e-06
2.84985e-06
2.88148e-06
5.96601e-06
1.16938e-06
3.51911e-06
3.82799e-06
7.99188e-06
1.09576e-06
5.26297e-06
5.15636e-06
1.19002e-05
1.01684e-06
6.95769e-06
6.91292e-06
1.88923e-05
1.00711e-06
9.17943e-06
9.19431e-06
2.33449e-05
9.9503e-07
1.19079e-05
1.14711e-05
3.0802e-05
1.07236e-06
1.40222e-05
1.46675e-05
3.7689e-05
1.13875e-06
1.79413e-05
1.80277e-05
4.75824e-05
1.38739e-06
2.24128e-05
2.1904e-05
5.18873e-05
1.56458e-06
2.49634e-05
2.57476e-05
5.48506e-05
2.18131e-06
3.25188e-05
3.20676e-05
6.7386e-05
2.49843e-06
3.48215e-05
3.503e-05
7.13307e-05
3.45404e-06
4.17722e-05
4.53048e-05
7.2653e-05
3.72442e-06
4.72206e-05
4.74145e-05
7.91187e-05
7.14061e-06
5.23493e-05
5.22684e-05
8.38944e-05
7.89054e-06
5.75067e-05
5.84813e-05
8.64821e-05
8.07877e-06
6.552e-05
6.62939e-05
9.26755e-05
1.16169e-05
7.12257e-05
7.01144e-05
9.47231e-05
1.38496e-05
7.5916e-05
7.77677e-05
9.95469e-05
1.71581e-05
8.36206e-05
8.14593e-05
0.000102005
1.98843e-05
8.75284e-05
8.94651e-05
0.000108948
2.49395e-05
9.71295e-05
9.57429e-05
0.00011023
2.94531e-05
9.83023e-05
9.88818e-05
0.000113388
2.95445e-05
0.000107598
0.000105825
0.000119326
4.22909e-05
0.000111272
0.000111922
0.000119964
4.96602e-05
0.000116201
0.000115733
0.000126332
5.13622e-05
0.000122162
0.00012214
0.000131094
5.66029e-05
0.000121935
0.000124303
0.000130464
6.26621e-05
0.000134013
0.000131109
0.000135122
7.57604e-05
0.000139496
0.000136241
0.000139195
7.98276e-05
0.000138274
0.000139962
0.000140333
8.5674e-05
0.000141668
0.000140974
0.000143365
9.08353e-05
0.000147928
0.000148697
0.000149038
0.00010143
0.000153089
0.000153292
0.000150922
0.000107165
0.000155535
0.000153461
0.000151718
0.000111684
0.000159899
0.000160507
0.000154314
0.000122609
0.00016247
0.000165311
0.000161498
0.000126101
0.000169013
0.000166046
0.000161097
0.000133197
0.000169619
0.000170481
0.00015992
0.000138363
0.000171921
0.000173672
0.00016746
0.000144846
0.000177995
0.000176452
0.000169872
0.000152668
0.000181514
0.00018185
0.000167862
0.000155317
0.000182955
0.000182639
0.000170352
0.000162928
0.00018587
0.000187996
0.000179081
0.000170463
0.000191123
0.000191489
0.000176617
0.000173439
0.000191631
0.000191185
0.000173874
0.000174107
0.00019435
0.000191957
0.000181974
0.000187397
0.000200038
0.000199962
0.000186563
0.000195636
0.000199985
0.000202712
0.000180441
0.000192183
0.000199711
0.000200711
0.000181965
0.000189351
0.000203438
0.000199589
0.000192548
0.000205174
0.000210034
0.000209177
0.000189534
0.000215758
0.000210836
0.00021333
0.000184264
0.000213068
0.000207328
0.000210187
0.000190782
0.000209974
0.000213057
0.000209337
0.000196631
0.000215289
0.000218148
0.000216398
0.000193737
0.000225255
0.000215167
0.000218531
0.000192004
0.000227777
0.000213994
0.000215579
0.000193602
0.000228449
0.000220299
0.00021887
0.000197277
0.000234536
0.000223995
0.000224048
0.000199763
0.000234649
0.000223362
0.000221226
0.000196648
0.000231487
0.000218251
0.000217991
0.000195998
0.000235507
0.000223725
0.000225193
0.000202755
0.000245931
0.000229617
0.000229452
0.00020088
0.00024488
0.000223116
0.000222627
0.00019435
0.000240665
0.000221012
0.00022128
0.000199166
0.000245758
0.000231075
0.000231064
0.000206763
0.000252204
0.000232473
0.000232468
0.000204215
0.000248266
0.000219993
0.000222294
0.000194786
0.000242205
0.000218979
0.000221051
0.000192569
0.000249654
0.000235727
0.000231933
0.000205208
0.000262463
0.000241683
0.000236119
0.00021567
2.1974e-06
2.0936e-06
2.1882e-06
2.27166e-06
2.29346e-06
1.72689e-06
1.75837e-06
1.73707e-06
2.07814e-06
2.20758e-06
2.03227e-06
2.1964e-06
2.2444e-06
3.98728e-06
1.70889e-06
2.32794e-06
2.19408e-06
2.16967e-06
1.60626e-06
1.74567e-06
1.61958e-06
1.73632e-06
2.27073e-06
2.22774e-06
1.95064e-06
1.46102e-06
1.9472e-06
1.44371e-06
3.74176e-06
1.75019e-06
4.01873e-06
2.24046e-06
2.30513e-06
1.64713e-06
4.45089e-06
1.57369e-06
2.31021e-06
2.1713e-06
2.18114e-06
1.62221e-06
1.73175e-06
1.625e-06
1.71666e-06
2.22675e-06
2.1881e-06
1.94608e-06
1.44415e-06
1.94486e-06
1.48021e-06
4.04576e-06
1.73257e-06
3.75498e-06
2.31022e-06
2.50317e-06
1.55517e-06
6.35675e-06
1.52053e-06
2.24384e-06
2.18426e-06
2.20068e-06
1.62642e-06
1.71092e-06
1.64253e-06
1.69154e-06
2.18627e-06
2.15043e-06
1.94467e-06
1.50489e-06
1.93158e-06
1.6693e-06
3.54869e-06
1.71706e-06
2.81677e-06
2.51425e-06
2.6783e-06
1.51472e-06
9.74563e-06
1.48861e-06
2.14687e-06
2.20017e-06
2.17697e-06
1.65144e-06
1.68408e-06
1.68247e-06
1.66483e-06
2.14721e-06
2.11051e-06
1.92605e-06
1.73011e-06
1.92186e-06
1.91603e-06
2.59486e-06
1.70341e-06
2.19076e-06
2.66296e-06
2.58251e-06
1.47444e-06
9.3657e-06
1.43094e-06
2.04912e-06
2.17031e-06
2.14799e-06
1.6922e-06
1.65887e-06
1.70565e-06
1.64105e-06
2.107e-06
2.07609e-06
1.92235e-06
2.01598e-06
1.92565e-06
2.83102e-06
2.13597e-06
1.68716e-06
2.06538e-06
2.48473e-06
2.45223e-06
1.4185e-06
4.24014e-06
1.38869e-06
1.94034e-06
2.14658e-06
2.13055e-06
1.70153e-06
1.63251e-06
1.67115e-06
1.60125e-06
2.07196e-06
2.03621e-06
1.93013e-06
3.35384e-06
1.91982e-06
5.82501e-06
2.05543e-06
1.66088e-06
2.03108e-06
2.49726e-06
2.88919e-06
1.3805e-06
2.0331e-06
1.37083e-06
1.83263e-06
2.12731e-06
2.09186e-06
1.65844e-06
1.58957e-06
1.62792e-06
1.55692e-06
2.03105e-06
1.9883e-06
1.89902e-06
6.84539e-06
1.85845e-06
9.44939e-06
2.02119e-06
1.62414e-06
1.99344e-06
2.88909e-06
3.17875e-06
1.39888e-06
1.59362e-06
1.57359e-06
1.83077e-06
2.08796e-06
2.07946e-06
1.62038e-06
1.54543e-06
1.60314e-06
1.50843e-06
1.98299e-06
1.93913e-06
1.86674e-06
1.00293e-05
1.92738e-06
7.49478e-06
1.98421e-06
1.57456e-06
1.95579e-06
3.16682e-06
2.45107e-06
1.68872e-06
1.5324e-06
2.44402e-06
2.02442e-06
2.07879e-06
2.10309e-06
1.59753e-06
1.49366e-06
1.58687e-06
1.44655e-06
1.93422e-06
1.87394e-06
1.96784e-06
6.11651e-06
2.23679e-06
3.28057e-06
1.94889e-06
1.51393e-06
1.93379e-06
2.37917e-06
2.07721e-06
2.89173e-06
1.52699e-06
5.46105e-06
3.08326e-06
2.1065e-06
2.18183e-06
1.58083e-06
1.43118e-06
1.56121e-06
1.38007e-06
1.86812e-06
1.78937e-06
2.36226e-06
2.7359e-06
2.86509e-06
1.82145e-06
1.92988e-06
1.44037e-06
1.92444e-06
2.05096e-06
1.81693e-06
6.76867e-06
1.52272e-06
1.17913e-05
4.4852e-06
2.19084e-06
2.32498e-06
1.55113e-06
1.36197e-06
1.51954e-06
1.30804e-06
1.78242e-06
1.69347e-06
3.07773e-06
1.67185e-06
3.88243e-06
1.43875e-06
1.9229e-06
1.35911e-06
1.91573e-06
1.80138e-06
1.70608e-06
1.35612e-05
1.50531e-06
1.76917e-05
5.77627e-06
2.34012e-06
2.40795e-06
1.50857e-06
1.2897e-06
1.47585e-06
1.22583e-06
1.68366e-06
1.59056e-06
4.16861e-06
1.39266e-06
4.89951e-06
1.28148e-06
1.91114e-06
1.27382e-06
1.86115e-06
1.69632e-06
1.61491e-06
1.84154e-05
1.47958e-06
1.93091e-05
6.19181e-06
2.40019e-06
2.32872e-06
1.46301e-06
1.20573e-06
1.40689e-06
1.14394e-06
1.57722e-06
1.48397e-06
5.05588e-06
1.25307e-06
5.20691e-06
1.17061e-06
1.81704e-06
1.19416e-06
1.65307e-06
1.60202e-06
1.52101e-06
1.88634e-05
1.43367e-06
1.07027e-05
3.15002e-06
2.2837e-06
1.88923e-06
1.38442e-06
1.12177e-06
1.30469e-06
1.06332e-06
1.46579e-06
1.3743e-06
5.17706e-06
1.14588e-06
3.95818e-06
1.07514e-06
1.6044e-06
1.11506e-06
1.48013e-06
1.5033e-06
1.4226e-06
8.37939e-06
1.3907e-06
3.63692e-06
1.79737e-06
1.83945e-06
1.58107e-06
1.29216e-06
1.0408e-06
1.22489e-06
9.80412e-07
1.35418e-06
1.25986e-06
3.45815e-06
1.05076e-06
2.26846e-06
9.86144e-07
1.44827e-06
1.0286e-06
1.35488e-06
1.40124e-06
1.31635e-06
2.75491e-06
1.32473e-06
1.53606e-06
1.39899e-06
1.54077e-06
1.33058e-06
1.21111e-06
9.63897e-07
1.15404e-06
9.12639e-07
1.23348e-06
1.16273e-06
1.92252e-06
9.63318e-07
1.31194e-06
9.13982e-07
1.32872e-06
9.56667e-07
1.25774e-06
1.29228e-06
1.21323e-06
1.35574e-06
1.23264e-06
1.05899e-06
1.23626e-06
1.2926e-06
1.1948e-06
1.13855e-06
9.04909e-07
1.0991e-06
8.87271e-07
1.14035e-06
1.088e-06
1.19883e-06
8.9796e-07
1.10252e-06
8.71129e-07
1.23701e-06
9.19304e-07
1.1803e-06
1.18877e-06
1.12982e-06
1.01009e-06
1.14024e-06
9.21402e-07
1.13144e-06
1.1635e-06
1.1869e-06
1.08515e-06
8.84512e-07
1.12118e-06
9.0471e-07
1.08283e-06
1.08062e-06
1.06701e-06
8.65431e-07
1.03565e-06
8.75114e-07
1.16738e-06
9.27009e-07
1.17725e-06
1.11639e-06
1.1138e-06
8.87947e-07
1.10811e-06
9.27645e-07
1.13486e-06
1.2063e-06
1.19881e-06
1.12672e-06
9.30046e-07
1.13194e-06
9.41242e-07
1.1029e-06
1.13955e-06
1.04931e-06
8.84761e-07
1.04315e-06
9.64756e-07
1.17481e-06
9.53474e-07
1.21323e-06
1.11969e-06
1.227e-06
9.33539e-07
1.16696e-06
1.00803e-06
1.2884e-06
1.20943e-06
1.61009e-06
1.16392e-06
9.93127e-07
1.29886e-06
1.21028e-06
1.15479e-06
1.66546e-06
1.06201e-06
9.90321e-07
1.22126e-06
1.12355e-06
1.29745e-06
1.22047e-06
1.3696e-06
1.27827e-06
1.4628e-06
1.09423e-06
1.29047e-06
1.17238e-06
1.45511e-06
1.69262e-06
2.10876e-06
1.34108e-06
1.23006e-06
1.57867e-06
1.31259e-06
1.6707e-06
1.74336e-06
1.26194e-06
1.19476e-06
1.49586e-06
1.41469e-06
1.36727e-06
1.28379e-06
1.59548e-06
1.59105e-06
2.08841e-06
1.17453e-06
1.54739e-06
1.48736e-06
2.10021e-06
2.31244e-06
3.09057e-06
1.64458e-06
1.57896e-06
1.9532e-06
2.1057e-06
2.25362e-06
4.14875e-06
1.58893e-06
1.46691e-06
1.93174e-06
1.85089e-06
1.84496e-06
2.12567e-06
2.17287e-06
2.17202e-06
3.10104e-06
1.73088e-06
1.97469e-06
2.04681e-06
4.05962e-06
3.39096e-06
5.27006e-06
2.1393e-06
2.16673e-06
2.6931e-06
2.48449e-06
4.18044e-06
4.29973e-06
2.12549e-06
2.07222e-06
2.67243e-06
2.61119e-06
2.38735e-06
2.47061e-06
2.79605e-06
3.4638e-06
5.43653e-06
2.26309e-06
2.69203e-06
2.67744e-06
5.7799e-06
5.59858e-06
7.46077e-06
2.85997e-06
2.85914e-06
3.59216e-06
3.3627e-06
4.89549e-06
7.52935e-06
2.86195e-06
2.80006e-06
3.58834e-06
3.53412e-06
2.92464e-06
3.36903e-06
3.70726e-06
5.78446e-06
7.53614e-06
2.79471e-06
3.58779e-06
3.58571e-06
7.21172e-06
8.13236e-06
1.14192e-05
3.89109e-06
3.56276e-06
4.85425e-06
5.04092e-06
7.68353e-06
1.18671e-05
3.88961e-06
3.81059e-06
4.86791e-06
4.69531e-06
3.91173e-06
4.97296e-06
4.85585e-06
8.27894e-06
1.1042e-05
3.806e-06
4.75238e-06
4.83286e-06
1.11382e-05
1.22461e-05
1.66789e-05
5.22172e-06
5.31891e-06
6.5309e-06
6.25469e-06
1.31629e-05
1.62036e-05
5.24791e-06
5.10411e-06
6.60676e-06
6.50875e-06
5.31476e-06
6.25297e-06
6.66972e-06
1.18704e-05
1.67588e-05
5.28957e-06
6.55329e-06
6.6395e-06
1.77157e-05
1.78235e-05
2.28232e-05
6.96229e-06
6.96326e-06
8.60923e-06
8.9386e-06
1.72911e-05
2.42414e-05
7.04747e-06
6.9281e-06
8.79654e-06
8.51251e-06
7.31241e-06
8.98226e-06
8.50284e-06
1.77428e-05
2.24471e-05
7.23984e-06
8.5607e-06
8.35283e-06
2.21992e-05
2.38956e-05
2.89783e-05
9.1546e-06
9.08294e-06
1.06163e-05
1.09344e-05
2.53995e-05
2.81945e-05
9.26941e-06
9.11809e-06
1.06749e-05
1.08802e-05
8.76876e-06
1.07353e-05
1.14288e-05
2.36559e-05
2.95143e-05
8.74191e-06
1.06831e-05
1.14566e-05
2.9307e-05
3.0449e-05
3.77859e-05
1.14247e-05
1.20324e-05
1.43907e-05
1.34873e-05
2.97018e-05
3.76876e-05
1.15923e-05
1.16142e-05
1.45807e-05
1.37119e-05
1.22763e-05
1.34183e-05
1.35935e-05
3.09368e-05
3.67061e-05
1.21503e-05
1.37067e-05
1.36324e-05
3.69609e-05
3.94169e-05
4.34162e-05
1.50331e-05
1.3924e-05
1.68773e-05
1.73865e-05
3.84824e-05
4.27278e-05
1.52239e-05
1.46997e-05
1.68548e-05
1.75617e-05
1.45484e-05
1.71945e-05
1.74646e-05
3.83453e-05
4.47774e-05
1.46464e-05
1.76519e-05
1.72872e-05
4.49611e-05
4.42504e-05
5.0117e-05
1.76542e-05
1.81401e-05
2.07392e-05
2.09488e-05
4.49044e-05
5.13071e-05
1.76074e-05
1.81322e-05
2.09897e-05
2.06667e-05
1.84929e-05
2.09083e-05
2.181e-05
4.58539e-05
4.9813e-05
1.82906e-05
2.04861e-05
2.17479e-05
5.13298e-05
5.19948e-05
5.71936e-05
2.22274e-05
2.24639e-05
2.4933e-05
2.42083e-05
5.20362e-05
5.64399e-05
2.2338e-05
2.18162e-05
2.48507e-05
2.47623e-05
2.26628e-05
2.42893e-05
2.35686e-05
5.11433e-05
5.66192e-05
2.26356e-05
2.48283e-05
2.35371e-05
5.38892e-05
5.81966e-05
6.28864e-05
2.57166e-05
2.51185e-05
3.0194e-05
3.09583e-05
5.81154e-05
6.40729e-05
2.57864e-05
2.59146e-05
3.01324e-05
3.06008e-05
2.36334e-05
3.07785e-05
3.13651e-05
5.82392e-05
6.32946e-05
2.37184e-05
3.05022e-05
3.12847e-05
6.46693e-05
6.41614e-05
6.88419e-05
3.14209e-05
3.26116e-05
3.42586e-05
3.48243e-05
6.54379e-05
6.77369e-05
3.12576e-05
3.19093e-05
3.43398e-05
3.29777e-05
3.33361e-05
3.48581e-05
3.60416e-05
6.41076e-05
6.7726e-05
3.31591e-05
3.34284e-05
3.61527e-05
7.09164e-05
7.01533e-05
7.27048e-05
3.56961e-05
3.47815e-05
4.02912e-05
3.93067e-05
6.82471e-05
7.26843e-05
3.59108e-05
3.45588e-05
4.06863e-05
4.21412e-05
3.70799e-05
3.91015e-05
3.9362e-05
6.93688e-05
7.54847e-05
3.70878e-05
4.33292e-05
3.91012e-05
7.20744e-05
7.32956e-05
7.7257e-05
4.10302e-05
4.19621e-05
4.25706e-05
4.59527e-05
7.4733e-05
7.90929e-05
4.14848e-05
4.39176e-05
4.26295e-05
4.54905e-05
3.96077e-05
4.61307e-05
4.38998e-05
7.6491e-05
7.77988e-05
3.96261e-05
4.74999e-05
4.44492e-05
7.73624e-05
7.93458e-05
8.55215e-05
4.58696e-05
4.70231e-05
5.6751e-05
5.16442e-05
7.97364e-05
8.20415e-05
4.53825e-05
4.54337e-05
5.46495e-05
5.07948e-05
4.6637e-05
5.13591e-05
5.33096e-05
7.8296e-05
8.19166e-05
4.69484e-05
4.965e-05
5.297e-05
8.33272e-05
8.60507e-05
8.60401e-05
5.87199e-05
5.27648e-05
6.04349e-05
5.5768e-05
8.28608e-05
8.57145e-05
5.62825e-05
5.32914e-05
5.79674e-05
5.71476e-05
5.42954e-05
5.54694e-05
5.47183e-05
8.34557e-05
8.67856e-05
5.3661e-05
5.75146e-05
5.48513e-05
8.53792e-05
8.63748e-05
8.98384e-05
6.0345e-05
5.76991e-05
6.00859e-05
6.37862e-05
8.68475e-05
9.14476e-05
5.77807e-05
5.77734e-05
6.12277e-05
6.38696e-05
5.63305e-05
6.41713e-05
6.51334e-05
8.74729e-05
9.09451e-05
5.69333e-05
6.39804e-05
6.52529e-05
9.19066e-05
9.13916e-05
9.52788e-05
6.23323e-05
6.49755e-05
7.00233e-05
6.98016e-05
9.22773e-05
9.47123e-05
6.406e-05
6.60734e-05
7.02677e-05
6.8986e-05
6.70986e-05
6.9705e-05
6.82115e-05
9.21696e-05
9.47583e-05
6.7094e-05
6.93576e-05
6.82075e-05
9.40658e-05
9.59395e-05
9.87486e-05
7.17284e-05
7.16564e-05
7.61541e-05
7.44626e-05
9.54943e-05
9.80424e-05
7.14332e-05
7.03449e-05
7.52697e-05
7.60791e-05
6.95487e-05
7.43333e-05
7.60012e-05
9.53986e-05
9.87859e-05
6.97258e-05
7.6162e-05
7.58626e-05
9.88702e-05
9.97652e-05
0.00010267
7.77381e-05
7.57342e-05
8.28937e-05
8.24325e-05
9.88005e-05
0.0001026
7.68123e-05
7.77002e-05
8.17135e-05
8.0644e-05
7.7619e-05
8.24581e-05
7.99513e-05
9.96923e-05
0.000101665
7.74354e-05
8.00619e-05
7.9923e-05
0.000101191
0.000103291
0.000106305
8.4208e-05
8.38864e-05
8.66083e-05
8.54316e-05
0.000103365
0.000105254
8.33312e-05
8.17251e-05
8.71306e-05
8.75322e-05
8.10554e-05
8.51632e-05
8.85425e-05
0.000102269
0.000106648
8.11161e-05
8.75912e-05
8.86907e-05
0.000107908
0.00010735
0.000111014
8.79511e-05
8.75557e-05
9.48992e-05
9.5367e-05
0.000106193
0.000111349
8.8599e-05
8.94892e-05
9.4935e-05
9.44904e-05
9.11813e-05
9.55446e-05
9.52696e-05
0.00010772
0.000110617
9.12625e-05
9.4528e-05
9.50705e-05
0.000110158
0.000111617
0.000112683
9.69187e-05
9.69616e-05
9.96384e-05
9.84343e-05
0.00011192
0.000112705
9.67611e-05
9.61618e-05
9.88858e-05
9.86856e-05
9.56012e-05
9.85389e-05
9.53973e-05
0.000111248
0.000113007
9.53428e-05
9.77953e-05
9.51732e-05
0.000112076
0.000112934
0.000115046
9.98632e-05
9.82217e-05
9.99366e-05
0.000104542
0.000112978
0.000118387
9.90255e-05
9.86885e-05
9.8879e-05
0.000102507
9.73449e-05
0.000104954
0.000106376
0.000113404
0.000116749
9.73074e-05
0.000104018
0.000106307
0.000118894
0.000116351
0.000124041
0.000103223
0.000107309
0.000113061
0.000111144
0.000119686
0.000121095
0.000100715
0.000105162
0.000113758
0.000111785
0.000108164
0.000111146
0.000110118
0.000117957
0.000122261
0.000108091
0.000110538
0.000110079
0.000119722
0.000124913
0.000126076
0.000114425
0.000111318
0.00011493
0.000112324
0.000121149
0.000123647
0.00011681
0.000113283
0.00012033
0.000116035
0.000110129
0.000112885
0.000112512
0.000122829
0.000124542
0.000110042
0.000114899
0.000112816
0.0001245
0.000126354
0.000127649
0.000116035
0.000115468
0.000120249
0.000121884
0.000125235
0.000129224
0.000120372
0.000116452
0.000119568
0.000119462
0.000116298
0.000121826
0.000124201
0.000124963
0.000127942
0.000116679
0.000120425
0.000124228
0.000130972
0.000127967
0.000130244
0.000121344
0.000122488
0.00012396
0.000122628
0.000129271
0.000128786
0.000119274
0.000121206
0.000122624
0.000124619
0.000124936
0.000122167
0.000125057
0.000128826
0.000131101
0.000124882
0.000124209
0.000124848
0.000130426
0.000130865
0.000134699
0.00012461
0.000123214
0.000128216
0.000128925
0.000129184
0.000136066
0.000123882
0.0001248
0.00012901
0.000128167
0.000124937
0.000129944
0.000126118
0.000131309
0.000134396
0.000124669
0.000128992
0.000125977
0.000133562
0.000135787
0.000139763
0.000130354
0.000131591
0.000136088
0.000136926
0.000137761
0.000140525
0.0001314
0.000130799
0.000137032
0.00013716
0.000129797
0.000139378
0.000136742
0.000135615
0.000139772
0.000129316
0.00013523
0.000134958
0.000139012
0.000139987
0.000140079
0.000137017
0.000137551
0.000137441
0.000137763
0.000140484
0.000139415
0.000137889
0.000137889
0.000138079
0.00013852
0.000137311
0.000138698
0.000137634
0.000140077
0.000140896
0.000135589
0.000139246
0.000138135
0.000139905
0.000140286
0.000144352
0.000137758
0.000137448
0.000142638
0.000141849
0.000139254
0.000143629
0.00013814
0.00013876
0.000142563
0.000140751
0.000137883
0.000139495
0.000139945
0.000141086
0.000142601
0.000139089
0.000140534
0.000140771
0.000142735
0.000144771
0.000146039
0.000143595
0.000143906
0.000145615
0.000145901
0.000144838
0.000146535
0.00014339
0.000142301
0.000145855
0.000148114
0.000141548
0.000146129
0.000147822
0.000143221
0.000147974
0.000141718
0.000146519
0.000147261
0.000148111
0.000146791
0.00015091
0.000147027
0.000147099
0.000152053
0.000151712
0.000146956
0.000150491
0.000147412
0.000149497
0.000152257
0.000151693
0.000149416
0.000152513
0.00015225
0.000148807
0.000150151
0.000149128
0.000152816
0.00015279
0.000150746
0.000151216
0.0001515
0.000153183
0.000152409
0.00015431
0.000153813
0.000150732
0.000151604
0.000153248
0.00015205
0.000154263
0.000152405
0.000153036
0.000153961
0.000155014
0.000150198
0.000150409
0.000153375
0.000153547
0.000153889
0.000151585
0.000151497
0.000155553
0.000154352
0.000155233
0.000158564
0.000159511
0.000152366
0.000155778
0.000154278
0.000152781
0.000157845
0.000157722
0.000155338
0.000159433
0.000156011
0.000150639
0.000155691
0.000153965
0.000158035
0.000155865
0.000153393
0.000156637
0.000158542
0.000160481
0.000160251
0.000163546
0.00016099
0.000155951
0.000156509
0.00016001
0.000160083
0.000164172
0.000164854
0.000157446
0.00016066
0.00016465
0.000156928
0.00015931
0.000157996
0.0001648
0.000165285
0.000160701
0.000158577
0.000159537
0.00016375
0.00016207
0.000164981
0.000167186
0.000157157
0.000161815
0.000164581
0.000165614
0.000165486
0.000166525
0.000166725
0.000168181
0.000168842
0.000159358
0.000159693
0.000166889
0.000165619
0.000168149
0.000161408
0.000160348
0.000163251
0.000166809
0.000168451
0.000170391
0.000170021
0.000162119
0.000162376
0.000166671
0.000166917
0.00017007
0.000169756
0.0001689
0.000169612
0.00016804
0.000159935
0.000163132
0.000167925
0.000169173
0.000167311
0.000159798
0.000163405
0.000164169
0.000170722
0.000170097
0.00017203
0.000171043
0.00016233
0.000163789
0.000170761
0.000170825
0.000171978
0.000172607
0.000167895
0.000169757
0.000170664
0.0001637
0.000164739
0.000167132
0.000173352
0.000172912
0.000165959
0.000164629
0.000168558
0.000173139
0.000172852
0.000176925
0.000176356
0.000164699
0.000168157
0.000172678
0.000172752
0.000176873
0.00017476
0.000173997
0.000177323
0.000179211
0.000164704
0.000166652
0.000175696
0.000174678
0.000179183
0.000170007
0.000169151
0.000170109
0.000178033
0.000177071
0.000180214
0.000180518
0.000168311
0.00017066
0.000178431
0.000177119
0.000181063
0.000182067
0.00017944
0.000180623
0.000179022
0.000167788
0.000171426
0.000179358
0.000181109
0.000178707
0.000167972
0.000170027
0.000170326
0.000180486
0.000181637
0.000180785
0.000183267
0.000171133
0.000171877
0.000181299
0.000182613
0.000181467
0.000183186
0.000178903
0.000182844
0.000178669
0.000171407
0.000171261
0.000178638
0.000182604
0.000178449
0.000169106
0.000170914
0.000176886
0.000181632
0.000183398
0.000187785
0.000183699
0.000171792
0.000173031
0.000181603
0.000183231
0.00018754
0.000185316
0.000180367
0.00018374
0.000189437
0.000171264
0.00017506
0.000180269
0.000185879
0.000189648
0.000178704
0.000177313
0.000176666
0.000189261
0.000185353
0.00019055
0.000190509
0.000173999
0.000177799
0.000189093
0.000187328
0.000190429
0.000190753
0.000190796
0.000190696
0.000191876
0.000176112
0.000177845
0.000191167
0.000191236
0.000192427
0.000177521
0.000176334
0.00017534
0.000190453
0.000191087
0.000189859
0.000191666
0.000177743
0.000177396
0.000190326
0.000191022
0.000189513
0.000191079
0.000190746
0.000191588
0.000188894
0.000177656
0.000176854
0.000191551
0.000191249
0.000188961
0.000173995
0.000175323
0.00017871
0.00018978
0.000191738
0.00019092
0.000192102
0.000177276
0.000179441
0.000189458
0.000191055
0.000190375
0.000191155
0.000188759
0.000192256
0.000192213
0.000176691
0.000178577
0.000188834
0.000191063
0.000190374
0.000180275
0.000180005
0.000186497
0.000193585
0.000193766
0.000200982
0.00019897
0.000180305
0.000183903
0.000193617
0.000192764
0.000202066
0.000199
0.000196089
0.000199467
0.00020144
0.000179293
0.000183586
0.000194269
0.000198312
0.000200914
0.000186753
0.000186841
0.000185975
0.000202378
0.000199964
0.000203321
0.000200805
0.000183947
0.000183523
0.000203219
0.000200602
0.00020412
0.000203023
0.00020181
0.000200457
0.000199186
0.000184101
0.000186085
0.000201279
0.0002026
0.000199811
0.000181141
0.000184888
0.000180102
0.000203059
0.000200824
0.000198027
0.000200207
0.000183374
0.000183643
0.000202807
0.000203117
0.000197392
0.000201417
0.000197802
0.000199628
0.000196964
0.000186074
0.000184131
0.000198751
0.000201886
0.000198057
0.000180704
0.000179901
0.00018236
0.000197501
0.00020022
0.000197577
0.000200424
0.000183781
0.000184748
0.000196903
0.000199683
0.000197003
0.000197742
0.000197073
0.000202117
0.000208202
0.000183177
0.0001811
0.000198212
0.000199572
0.000207879
0.000192144
0.000183779
0.000193802
0.000199244
0.000200874
0.000211194
0.000208554
0.000184845
0.000190852
0.000198643
0.000197676
0.000209994
0.000204582
0.00020982
0.000208772
0.000211493
0.00018095
0.000189513
0.000209298
0.000206085
0.000210833
0.000191074
0.000194497
0.000194544
0.000213388
0.000210909
0.000215107
0.000212824
0.000191576
0.000192849
0.000212689
0.000209066
0.000214989
0.000215793
0.000209697
0.000211065
0.000204853
0.000191028
0.000195214
0.000209366
0.000212962
0.000205125
0.000184613
0.000193419
0.000187612
0.000214973
0.000213274
0.000208061
0.000207907
0.000191803
0.000187233
0.000215477
0.000216087
0.000210262
0.000214929
0.000204656
0.000207443
0.00020581
0.00019512
0.000191612
0.000204944
0.000211403
0.000205654
0.000189293
0.000187219
0.000188379
0.000207131
0.000207264
0.000206597
0.000206991
0.000186956
0.000190497
0.000208819
0.000212101
0.00020777
0.000207953
0.000209438
0.000209785
0.000216359
0.000190494
0.000188161
0.000208873
0.000209254
0.000216204
0.000196635
0.000188958
0.000194475
0.00020748
0.000209634
0.000214969
0.000217566
0.000191809
0.000197298
0.000207684
0.000207814
0.000212657
0.000210442
0.000216864
0.000217826
0.00021697
0.00018785
0.000193492
0.000216972
0.000214694
0.000217794
0.000194436
0.000194905
0.000195793
0.000216353
0.000218066
0.000217864
0.000218159
0.000197291
0.000194194
0.000214843
0.000213885
0.000217729
0.000218156
0.000215717
0.000216506
0.000213708
0.00019449
0.000197233
0.000216848
0.000218106
0.00021431
0.000192126
0.000195565
0.000195038
0.000218139
0.000216548
0.000217261
0.000214681
0.000193232
0.000191942
0.000218194
0.000218921
0.000218235
0.000217651
0.000213615
0.000214033
0.00021452
0.00019665
0.000193711
0.000213975
0.000215779
0.000214005
0.000193396
0.000194864
0.000196849
0.000217242
0.000214616
0.00021837
0.000217872
0.000192083
0.00019699
0.000218119
0.000217344
0.000218318
0.000217378
0.000215476
0.000218528
0.000219005
0.000193468
0.000196029
0.000214191
0.000216179
0.000217767
0.000196635
0.000197501
0.000200115
0.00022016
0.00021993
0.000223082
0.000223855
0.000197711
0.000200265
0.000219741
0.000219424
0.000222788
0.000222984
0.000220391
0.000223705
0.000222688
0.000196951
0.000200782
0.00021965
0.000223833
0.000223351
0.000199823
0.000200027
0.000196667
0.000223239
0.000224154
0.000222016
0.000224471
0.000200212
0.000199868
0.000222966
0.000223207
0.000221356
0.000221612
0.000222846
0.000224296
0.000222264
0.000200666
0.000197212
0.000223537
0.000223358
0.000223167
0.000197519
0.000195518
0.000193828
0.000220235
0.000223216
0.000217822
0.000218051
0.000198561
0.000193953
0.000219695
0.000219923
0.000217818
0.000217746
0.000221225
0.000218565
0.000220113
0.000195996
0.000193838
0.000221726
0.000218051
0.000220056
0.000195751
0.000193858
0.000200771
0.000217816
0.000217715
0.000222282
0.000219175
0.000193684
0.000198258
0.000217845
0.000217738
0.000222974
0.000222143
0.000220183
0.000219769
0.000225053
0.00019356
0.000200152
0.000220067
0.000221813
0.000224762
0.000202331
0.000201751
0.000204197
0.000225389
0.0002234
0.00022896
0.000229703
0.000199637
0.00020531
0.000225719
0.000225352
0.000228608
0.000229102
0.000226692
0.000229218
0.000227844
0.000201274
0.000204934
0.000226553
0.000229002
0.000227822
0.000202405
0.000203425
0.000198524
0.000229341
0.000230088
0.00022571
0.000226655
0.000205267
0.000198891
0.000228996
0.000229506
0.000225336
0.000225321
0.000227737
0.000225639
0.00022111
0.000204475
0.000198084
0.000227846
0.000224681
0.000221094
0.000194705
0.000197582
0.00019703
0.000223791
0.000223798
0.000221936
0.000221018
0.000197302
0.000195372
0.000223729
0.000223213
0.000222279
0.000221455
0.000220263
0.00022102
0.000220446
0.000196879
0.000196081
0.000220206
0.000221151
0.000220344
0.000197848
0.00019729
0.000203151
0.00022196
0.00022093
0.000227203
0.000228034
0.000195753
0.000204483
0.000222352
0.000221514
0.000227576
0.000228413
0.000222959
0.000229164
0.00023167
0.000196639
0.000204367
0.000222833
0.000229331
0.000231867
0.000206652
0.000203721
0.000205034
0.0002293
0.000230248
0.000231048
0.000231824
0.0002051
0.000205705
0.000229488
0.0002303
0.000231064
0.000231712
0.000232714
0.000232412
0.000233555
0.000204845
0.000205308
0.000232955
0.000232386
0.000233872
0.000205617
0.00020431
0.000198463
0.00023142
0.000232193
0.000225843
0.000222934
0.000204136
0.000194991
0.000231449
0.000232071
0.000226075
0.000224901
0.000232801
0.00022219
0.000223132
0.000204116
0.000197097
0.00023305
0.000224173
0.000223367
0.000196245
0.000197104
0.00019505
0.000223459
0.000220714
0.000220681
0.000219168
0.000193754
0.000193552
0.000223812
0.00022301
0.000221039
0.000221367
0.000220646
0.000218546
0.000218002
0.000196063
0.000195611
0.000220904
0.000220815
0.000218252
0.000192699
0.000194871
0.000203398
0.00022071
0.000219531
0.000227656
0.000231369
0.000194452
0.000207354
0.000221052
0.000221529
0.000227061
0.000228882
0.000218092
0.00023168
0.000227399
0.000196114
0.000204645
0.00021833
0.000229191
0.000226864
0.000203587
0.000204604
0.000210246
0.000231669
0.000235204
0.000239657
0.000242621
0.000208612
0.000213117
0.000230839
0.000231493
0.000238523
0.000237363
0.000232648
0.000243375
0.000242699
0.000205401
0.000208225
0.00023183
0.000237999
0.000241588
0.000212949
0.000212635
0.000238551
0.000240971
0.000214958
0.000237548
0.000235484
0.000266766
0.000260855
0.000266038
0.000241868
0.000209948
0.000240919
5.75717e-06
2.25684e-06
1.94673e-06
2.78518e-06
1.19006e-06
1.94542e-06
6.12657e-07
1.41628e-06
1.22651e-06
3.78221e-06
1.86373e-06
1.72016e-06
2.33374e-06
2.12648e-06
1.63788e-06
1.07908e-06
1.3332e-05
9.61329e-07
1.50929e-05
1.05778e-05
1.28358e-05
1.33075e-06
1.3702e-05
1.25912e-06
1.55036e-05
1.7477e-06
2.07541e-06
2.20523e-06
1.75586e-06
1.77e-06
2.08223e-06
2.23246e-06
1.18619e-06
3.27794e-07
1.61327e-06
1.76089e-06
1.16669e-06
4.33666e-07
1.61558e-06
1.06273e-05
1.28891e-05
1.20221e-06
3.14235e-06
9.18979e-07
3.96699e-06
1.21048e-06
3.15377e-06
1.10532e-06
1.46959e-06
1.53537e-06
2.32557e-06
1.66962e-06
1.7452e-06
1.32937e-06
1.83053e-05
1.23192e-06
2.0714e-05
1.68535e-05
1.90641e-05
1.5185e-06
1.87807e-05
1.45654e-06
2.12626e-05
1.77097e-06
2.0624e-06
2.23949e-06
1.75034e-06
1.77305e-06
2.0298e-06