/*--------------------------------*- C++ -*----------------------------------*\
| =========                 |                                                 |
| \\      /  F ield         | OpenFOAM: The Open Source CFD Toolbox           |
|  \\    /   O peration     | Version:  v2006                                 |
|   \\  /    A nd           | Website:  www.openfoam.com                      |
|    \\/     M anipulation  |                                                 |
\*---------------------------------------------------------------------------*/
FoamFile
{
    version     2.0;
    format      ascii;
    class       volScalarField;
    location    "875";
    object      epsilon;
}
// * * * * * * * * * * * * * * * * * * * * * * * * * * * * * * * * * * * * * //

dimensions      [0 2 -3 0 0 0 0];


internalField   nonuniform List<scalar> 
14199
(
2.21037e-06
7.51061e-07
2.21039e-06
7.51021e-07
4.15576e-06
4.15556e-06
1.23493e-05
4.8007e-06
1.09604e-05
4.15632e-06
4.801e-06
1.09633e-05
1.23459e-05
1.23502e-05
4.80043e-06
1.09607e-05
4.15641e-06
4.80115e-06
1.09635e-05
1.2347e-05
2.22711e-05
7.13324e-06
7.13345e-06
2.22646e-05
2.62196e-07
2.62164e-07
2.46155e-06
1.55887e-06
1.42922e-06
2.21152e-06
1.55979e-06
1.42887e-06
2.46257e-06
2.46156e-06
1.55885e-06
1.42921e-06
2.21152e-06
1.55978e-06
1.42886e-06
2.46251e-06
2.94512e-06
1.74583e-06
1.74655e-06
2.94524e-06
5.53789e-06
1.86414e-05
3.55899e-06
9.30658e-06
9.30643e-06
1.04196e-06
3.55915e-06
1.86429e-05
1.29622e-06
5.53905e-06
1.04225e-06
4.61982e-06
2.9009e-06
5.53867e-06
9.66249e-06
4.61795e-06
9.66727e-06
2.90265e-06
1.86479e-05
2.22696e-05
9.30969e-06
7.13415e-06
7.13437e-06
2.22622e-05
9.30944e-06
1.86494e-05
9.81678e-06
2.19423e-05
2.19414e-05
9.81488e-06
2.19501e-05
2.19514e-05
4.62526e-06
2.90223e-06
5.54016e-06
9.66701e-06
2.90308e-06
4.62412e-06
9.67158e-06
2.94513e-06
1.74586e-06
2.14364e-06
3.55943e-06
2.1438e-06
1.74655e-06
2.94534e-06
2.14372e-06
3.55962e-06
2.14385e-06
2.76018e-06
1.8843e-06
1.29527e-06
1.88439e-06
1.88434e-06
2.75958e-06
1.88423e-06
4.66355e-07
4.15766e-06
4.1578e-06
2.21355e-06
7.5549e-07
9.31456e-06
2.21351e-06
3.56194e-06
1.04586e-06
7.55526e-07
1.23511e-05
1.09675e-05
4.80259e-06
4.15715e-06
1.09644e-05
4.80179e-06
1.23548e-05
2.227e-05
7.13613e-06
7.13544e-06
2.2278e-05
1.23508e-05
4.80272e-06
1.09677e-05
4.15704e-06
4.80161e-06
1.09646e-05
1.23545e-05
2.22717e-05
7.13541e-06
9.311e-06
7.1347e-06
2.22795e-05
1.86514e-05
4.62729e-06
5.54214e-06
2.9049e-06
9.67333e-06
9.81998e-06
2.19508e-05
2.19526e-05
4.6209e-06
9.66953e-06
1.74901e-06
2.94706e-06
2.94678e-06
1.74832e-06
1.56259e-06
2.46446e-06
1.43183e-06
2.21236e-06
2.46337e-06
1.43219e-06
1.56166e-06
1.56255e-06
2.46446e-06
1.4318e-06
2.21232e-06
1.43215e-06
2.46334e-06
1.56164e-06
1.74898e-06
2.94707e-06
2.14617e-06
3.56141e-06
2.94674e-06
2.14618e-06
1.7483e-06
2.76232e-06
1.88695e-06
1.15954e-06
8.74741e-07
1.84345e-05
5.46656e-06
9.16831e-06
7.08917e-06
1.84368e-05
5.46584e-06
2.81839e-06
2.81676e-06
9.50878e-06
4.54603e-06
1.77743e-06
1.77638e-06
2.67456e-06
1.62582e-06
3.4799e-06
2.86547e-06
2.0409e-06
1.13311e-07
1.13338e-07
1.13307e-07
1.13344e-07
8.74624e-07
8.74408e-07
8.74701e-07
1.15968e-06
4.0978e-06
9.1667e-06
4.09476e-06
1.84356e-05
2.04028e-06
2.11743e-06
2.04023e-06
5.68276e-07
1.42557e-06
4.09753e-06
9.16634e-06
4.09497e-06
2.11733e-06
5.68313e-07
1.626e-06
1.42551e-06
5.46689e-06
5.46525e-06
1.84337e-05
9.16633e-06
1.22118e-05
4.74897e-06
1.08374e-05
4.09672e-06
4.74806e-06
1.0835e-05
1.22143e-05
2.20657e-05
9.16952e-06
7.08958e-06
7.08962e-06
2.20606e-05
1.22109e-05
4.09582e-06
4.74636e-06
1.08318e-05
4.74746e-06
1.08341e-05
1.22083e-05
1.84397e-05
1.22118e-05
1.08372e-05
4.74859e-06
4.09695e-06
1.08348e-05
4.74811e-06
1.22143e-05
2.20659e-05
9.16914e-06
7.08806e-06
7.08813e-06
2.20608e-05
1.2211e-05
4.09554e-06
1.08316e-05
4.74643e-06
1.08339e-05
4.74706e-06
1.22083e-05
4.54897e-06
2.818e-06
5.46726e-06
9.51065e-06
9.513e-06
2.81948e-06
4.54899e-06
4.54282e-06
2.81692e-06
5.46576e-06
9.50585e-06
2.81827e-06
9.50822e-06
4.54288e-06
9.73424e-06
2.17321e-05
2.17326e-05
2.17344e-05
2.17349e-05
9.73693e-06
1.84379e-05
2.20646e-05
9.16912e-06
7.08932e-06
7.08919e-06
2.20592e-05
1.77711e-06
1.77723e-06
2.67486e-06
2.67521e-06
1.15895e-06
1.77728e-06
1.7774e-06
1.6261e-06
3.47925e-06
2.86489e-06
1.62578e-06
3.47989e-06
2.04083e-06
2.86541e-06
1.43065e-06
2.37558e-06
1.29366e-06
2.1153e-06
2.37371e-06
1.29358e-06
1.43006e-06
1.62606e-06
3.47957e-06
2.86494e-06
1.62574e-06
3.48019e-06
2.86555e-06
2.04091e-06
2.11161e-06
2.37029e-06
1.2883e-06
1.42499e-06
2.11383e-06
2.37228e-06
1.2884e-06
1.43057e-06
1.29361e-06
2.3754e-06
2.11526e-06
1.29354e-06
2.37357e-06
1.42998e-06
2.04052e-06
3.47963e-06
2.86461e-06
1.62569e-06
3.4802e-06
2.86518e-06
2.04106e-06
2.11157e-06
1.28827e-06
2.37016e-06
1.42494e-06
2.11372e-06
1.28837e-06
2.37212e-06
9.30656e-06
3.55896e-06
7.5096e-07
1.03439e-06
1.29018e-06
1.86403e-05
5.53785e-06
1.03443e-06
1.04211e-06
1.29003e-06
1.03453e-06
1.03434e-06
4.15563e-06
7.50969e-07
1.04197e-06
2.21034e-06
4.15564e-06
2.21025e-06
5.53597e-06
1.86302e-05
1.86394e-05
2.62139e-07
2.62187e-07
4.58378e-07
4.58461e-07
2.20964e-06
3.55626e-06
7.41758e-07
1.03826e-06
3.55764e-06
7.46441e-07
2.20649e-06
3.55737e-06
2.20944e-06
2.20629e-06
5.53547e-06
5.53689e-06
1.2922e-06
5.53685e-06
5.53831e-06
1.86397e-05
1.29611e-06
5.53759e-06
9.3001e-06
9.30471e-06
3.55655e-06
1.03828e-06
3.55782e-06
4.15569e-06
9.30587e-06
4.15561e-06
2.21048e-06
3.55895e-06
7.51022e-07
2.2104e-06
7.50955e-07
5.53665e-06
5.53511e-06
1.29207e-06
5.53727e-06
5.53604e-06
1.86293e-05
1.86386e-05
4.1553e-06
9.30066e-06
9.30535e-06
4.15348e-06
2.20962e-06
7.41826e-07
3.55625e-06
1.0384e-06
7.46498e-07
3.55792e-06
2.20642e-06
4.15526e-06
9.30041e-06
9.30579e-06
4.15334e-06
2.20948e-06
7.41783e-07
3.55663e-06
1.03821e-06
7.46432e-07
3.55833e-06
2.20631e-06
1.86304e-05
1.86402e-05
1.8632e-05
1.86424e-05
2.2269e-05
9.30906e-06
7.1338e-06
2.22623e-05
7.13387e-06
1.86459e-05
4.62169e-06
2.90066e-06
5.53833e-06
9.66255e-06
2.90174e-06
4.6177e-06
9.66666e-06
1.23495e-05
4.80028e-06
4.15615e-06
1.09606e-05
1.23464e-05
4.80091e-06
1.09633e-05
1.23497e-05
4.15601e-06
1.09603e-05
4.80015e-06
1.23464e-05
1.09631e-05
4.80082e-06
2.22705e-05
7.13248e-06
2.22634e-05
7.13295e-06
4.61389e-06
5.53546e-06
2.8998e-06
9.66034e-06
4.6152e-06
2.89847e-06
9.65631e-06
9.80585e-06
2.19389e-05
2.1938e-05
2.19264e-05
9.8092e-06
2.1927e-05
1.86341e-05
1.86348e-05
9.80304e-06
2.19284e-05
2.19285e-05
2.19229e-05
2.19229e-05
9.80328e-06
4.61343e-06
2.89765e-06
5.53573e-06
9.65507e-06
2.898e-06
9.65687e-06
4.61355e-06
4.61834e-06
2.8989e-06
5.53709e-06
9.65876e-06
2.89942e-06
9.66109e-06
4.61828e-06
4.61409e-06
9.66013e-06
5.5366e-06
2.89948e-06
2.89899e-06
9.65772e-06
4.61427e-06
4.61924e-06
9.66458e-06
5.53801e-06
2.90084e-06
2.90033e-06
9.66208e-06
4.61951e-06
9.80266e-06
2.19194e-05
2.19184e-05
2.19231e-05
2.19225e-05
9.80351e-06
1.86452e-05
9.81501e-06
2.1933e-05
2.19363e-05
9.80784e-06
2.19474e-05
2.19457e-05
4.62076e-06
2.90156e-06
9.66357e-06
5.53791e-06
4.61964e-06
9.66706e-06
2.90135e-06
2.22584e-05
9.30195e-06
7.13203e-06
7.13183e-06
2.22535e-05
2.22582e-05
7.13195e-06
9.30277e-06
7.1321e-06
2.22634e-05
1.23492e-05
1.09605e-05
4.80042e-06
4.15614e-06
1.23462e-05
1.09631e-05
4.80087e-06
2.22687e-05
7.13376e-06
9.30826e-06
2.22624e-05
7.13368e-06
1.23496e-05
1.09604e-05
4.80015e-06
4.15608e-06
1.23466e-05
1.09631e-05
4.80071e-06
2.22699e-05
7.13244e-06
2.22636e-05
7.1326e-06
9.80266e-06
2.19322e-05
2.1933e-05
2.19227e-05
2.19235e-05
9.80512e-06
4.61747e-06
2.89832e-06
5.53654e-06
9.65783e-06
9.65975e-06
2.8986e-06
4.61728e-06
4.61157e-06
2.89711e-06
5.53521e-06
9.65388e-06
2.89776e-06
9.65583e-06
4.61123e-06
4.61914e-06
9.66377e-06
5.53729e-06
2.90034e-06
9.66084e-06
2.8998e-06
4.61999e-06
4.61314e-06
9.65991e-06
5.53579e-06
2.89953e-06
2.8986e-06
9.65695e-06
4.61413e-06
9.79993e-06
2.19156e-05
2.19164e-05
2.19206e-05
2.19214e-05
9.79965e-06
1.86332e-05
1.8634e-05
1.23424e-05
4.7999e-06
1.09598e-05
4.15462e-06
4.79982e-06
1.09573e-05
1.23452e-05
2.22568e-05
9.30255e-06
7.13322e-06
7.13285e-06
2.22515e-05
2.22563e-05
7.13302e-06
9.30336e-06
7.13335e-06
2.22619e-05
1.23415e-05
4.15419e-06
4.79907e-06
1.09537e-05
4.79916e-06
1.09563e-05
1.23388e-05
1.23428e-05
1.09596e-05
4.80004e-06
4.15455e-06
1.09571e-05
4.79953e-06
1.23456e-05
2.22578e-05
9.30262e-06
7.13176e-06
7.13171e-06
2.22525e-05
2.22578e-05
7.13215e-06
9.30358e-06
7.13222e-06
2.22631e-05
1.23418e-05
4.15411e-06
1.09535e-05
4.79859e-06
1.0956e-05
4.79916e-06
1.2339e-05
1.86347e-05
1.86356e-05
1.86367e-05
1.86377e-05
1.86396e-05
4.15331e-06
9.30523e-06
4.15489e-06
4.1531e-06
9.30075e-06
4.15507e-06
9.30642e-06
1.86341e-05
1.23406e-05
1.09529e-05
4.79852e-06
4.15364e-06
1.23378e-05
1.09555e-05
4.79857e-06
2.22552e-05
9.30268e-06
7.13271e-06
7.13278e-06
2.22616e-05
1.23417e-05
4.15449e-06
4.79962e-06
1.09593e-05
1.09566e-05
4.79946e-06
1.23447e-05
1.23419e-05
1.09532e-05
4.79839e-06
4.15384e-06
1.23391e-05
1.09558e-05
4.799e-06
2.22583e-05
7.1318e-06
9.30309e-06
2.2253e-05
7.13178e-06
1.2343e-05
4.15432e-06
4.79998e-06
1.09595e-05
1.09569e-05
4.79939e-06
1.23459e-05
2.22584e-05
9.3041e-06
7.13243e-06
7.13241e-06
2.22642e-05
1.74573e-06
2.14338e-06
3.55923e-06
2.94502e-06
1.74646e-06
2.94513e-06
2.14344e-06
2.75533e-06
1.87964e-06
1.87996e-06
1.28917e-06
1.87939e-06
1.87977e-06
2.75524e-06
2.75471e-06
1.87956e-06
1.87949e-06
1.28901e-06
1.87928e-06
1.87934e-06
2.75452e-06
1.55882e-06
2.46151e-06
1.42918e-06
2.21141e-06
1.55976e-06
2.46241e-06
1.42883e-06
1.55873e-06
1.42913e-06
2.21135e-06
2.46134e-06
1.55966e-06
1.42877e-06
2.46233e-06
1.74563e-06
2.94472e-06
1.74633e-06
2.94493e-06
4.66299e-07
2.62158e-07
2.5603e-07
2.55991e-07
4.62403e-07
2.59125e-07
2.59083e-07
1.12003e-07
1.10675e-07
2.56097e-07
2.5604e-07
4.62442e-07
2.59171e-07
2.59099e-07
1.12019e-07
1.10712e-07
2.62163e-07
1.55705e-06
2.46077e-06
1.42593e-06
2.20855e-06
2.45996e-06
1.42627e-06
1.55611e-06
1.74089e-06
2.13956e-06
3.5564e-06
2.94246e-06
2.13954e-06
2.94244e-06
1.7416e-06
1.74409e-06
2.94374e-06
3.55747e-06
2.14151e-06
2.14151e-06
2.94376e-06
1.74336e-06
1.55323e-06
2.20766e-06
2.4582e-06
1.42314e-06
2.45908e-06
1.42282e-06
1.55415e-06
3.55707e-06
2.94338e-06
2.9435e-06
1.74395e-06
2.14137e-06
2.14129e-06
1.74325e-06
2.45968e-06
2.20834e-06
2.4606e-06
1.55692e-06
1.42583e-06
1.42617e-06
1.55599e-06
2.45789e-06
2.45875e-06
2.20741e-06
1.55311e-06
1.42308e-06
1.42273e-06
1.55404e-06
2.75662e-06
1.29322e-06
1.88152e-06
1.88189e-06
1.88173e-06
1.88211e-06
2.75679e-06
2.75911e-06
1.88363e-06
1.29506e-06
1.88433e-06
1.88357e-06
2.75841e-06
1.88371e-06
1.74077e-06
2.13972e-06
3.55661e-06
2.94221e-06
2.9422e-06
2.13969e-06
1.74149e-06
1.74398e-06
2.94345e-06
3.55774e-06
2.14164e-06
2.94346e-06
1.74324e-06
2.14166e-06
1.55898e-06
2.46169e-06
1.4293e-06
2.21149e-06
1.55994e-06
2.46252e-06
1.42893e-06
1.74591e-06
2.14384e-06
2.94516e-06
3.55917e-06
2.14374e-06
1.74666e-06
2.94522e-06
1.5588e-06
2.46146e-06
1.42923e-06
2.21142e-06
1.55976e-06
2.46232e-06
1.42886e-06
1.7457e-06
2.94477e-06
1.74643e-06
2.94488e-06
2.75632e-06
1.29308e-06
1.88159e-06
1.88154e-06
1.88169e-06
1.88176e-06
2.75678e-06
1.557e-06
1.4259e-06
2.46077e-06
2.20851e-06
1.42624e-06
2.45988e-06
1.55608e-06
1.74079e-06
2.13964e-06
3.55646e-06
2.94209e-06
2.1396e-06
2.94213e-06
1.7415e-06
1.74404e-06
2.94358e-06
3.55771e-06
2.14161e-06
2.14163e-06
2.94353e-06
1.74333e-06
1.55317e-06
2.20761e-06
1.42311e-06
2.45804e-06
1.42279e-06
2.45899e-06
1.55409e-06
2.20837e-06
2.45976e-06
2.46067e-06
1.55693e-06
1.42582e-06
1.42616e-06
1.55599e-06
2.94217e-06
2.9421e-06
3.55685e-06
1.74077e-06
2.13986e-06
2.13989e-06
1.74148e-06
2.94362e-06
2.94367e-06
3.55813e-06
1.74404e-06
2.14192e-06
2.14195e-06
1.74331e-06
2.20745e-06
2.45887e-06
2.45792e-06
1.55309e-06
1.42305e-06
1.42272e-06
1.55401e-06
8.11213e-08
1.15966e-06
3.43002e-07
8.97882e-07
8.97976e-07
1.17875e-06
3.59467e-07
9.20665e-07
9.2071e-07
1.19779e-06
3.76017e-07
9.4186e-07
9.42036e-07
1.21473e-06
3.92661e-07
9.62564e-07
9.62687e-07
1.23202e-06
4.09287e-07
9.81876e-07
9.81986e-07
1.24736e-06
4.25755e-07
1.00019e-06
1.00029e-06
1.26212e-06
4.42207e-07
1.01794e-06
1.01828e-06
1.2771e-06
1.17306e-06
8.92235e-07
8.92157e-07
1.17311e-06
8.92042e-07
8.92289e-07
8.74714e-07
8.92066e-07
8.92294e-07
1.17321e-06
8.74528e-07
8.92202e-07
8.92105e-07
1.17324e-06
1.17859e-06
1.19239e-06
8.97999e-07
8.97969e-07
9.15221e-07
9.1517e-07
1.1787e-06
1.1924e-06
8.97801e-07
8.98053e-07
9.15024e-07
9.15215e-07
8.9807e-07
9.15094e-07
9.15262e-07
1.17872e-06
1.19236e-06
8.97884e-07
9.15132e-07
9.15061e-07
1.19249e-06
1.19771e-06
1.20963e-06
9.20827e-07
9.2074e-07
9.36841e-07
9.36713e-07
1.19767e-06
1.20954e-06
9.20621e-07
9.20778e-07
9.3664e-07
9.36867e-07
9.20851e-07
9.36648e-07
9.36881e-07
1.19764e-06
1.20975e-06
9.20662e-07
9.36785e-07
9.36677e-07
1.20971e-06
1.2147e-06
1.22691e-06
9.42046e-07
9.41922e-07
9.57624e-07
9.57505e-07
1.2146e-06
1.22687e-06
9.41849e-07
9.42083e-07
9.57421e-07
9.57664e-07
9.42064e-07
9.57446e-07
9.57634e-07
1.21484e-06
1.22698e-06
9.41886e-07
9.57568e-07
9.57424e-07
1.227e-06
1.23189e-06
1.24258e-06
9.62724e-07
9.62622e-07
9.77324e-07
9.7723e-07
1.23186e-06
1.24261e-06
9.62534e-07
9.62717e-07
9.771e-07
9.77376e-07
9.62754e-07
9.77189e-07
9.77455e-07
1.23194e-06
1.2427e-06
9.62583e-07
9.77264e-07
9.7723e-07
1.24282e-06
1.24721e-06
1.25752e-06
9.81974e-07
9.81914e-07
9.9583e-07
9.95695e-07
1.24725e-06
1.25749e-06
9.81801e-07
9.81961e-07
9.95573e-07
9.95773e-07
9.82059e-07
9.95654e-07
9.95765e-07
1.24727e-06
1.2574e-06
9.81905e-07
9.95604e-07
9.95513e-07
1.25746e-06
1.26212e-06
1.27242e-06
1.00032e-06
1.00024e-06
1.01378e-06
1.0136e-06
1.26208e-06
1.27239e-06
1.00018e-06
1.00022e-06
1.01347e-06
1.01395e-06
1.00027e-06
1.01357e-06
1.01386e-06
1.26208e-06
1.27275e-06
1.00014e-06
1.01371e-06
1.01358e-06
1.27261e-06
1.27696e-06
1.28598e-06
1.01801e-06
1.01797e-06
1.03076e-06
1.03048e-06
1.27693e-06
1.28595e-06
1.01794e-06
1.01808e-06
1.0303e-06
1.03053e-06
1.01811e-06
1.03046e-06
1.03061e-06
1.27723e-06
5.53331e-06
1.01802e-06
1.55017e-06
1.41954e-06
5.53545e-06
4.09753e-06
9.17185e-06
1.84422e-05
9.17325e-06
3.26858e-07
8.11367e-08
3.2691e-07
3.38944e-07
3.38937e-07
3.39025e-07
3.39017e-07
2.11732e-06
5.68292e-07
8.80381e-07
3.4819e-06
5.74183e-07
1.42558e-06
1.84442e-05
2.11739e-06
5.68366e-07
8.80557e-07
5.74277e-07
3.48245e-06
1.28837e-06
5.46466e-06
5.4663e-06
1.16372e-06
5.46681e-06
5.46851e-06
4.10472e-06
9.18002e-06
4.10156e-06
9.18775e-06
1.84553e-05
1.84681e-05
4.10473e-06
9.18141e-06
4.1017e-06
9.1891e-06
3.43004e-07
3.4309e-07
3.43076e-07
3.55321e-07
3.55335e-07
3.554e-07
3.554e-07
2.13097e-06
3.48923e-06
5.91741e-07
9.03668e-07
2.12552e-06
3.49302e-06
5.97553e-07
1.84557e-05
1.84686e-05
2.13089e-06
5.91833e-07
3.48912e-06
9.03731e-07
2.12554e-06
5.97639e-07
3.49277e-06
5.47233e-06
5.47396e-06
1.18292e-06
5.47629e-06
5.47789e-06
4.11327e-06
9.19932e-06
4.11014e-06
9.20585e-06
1.84815e-05
1.84898e-05
4.11333e-06
9.20075e-06
4.11021e-06
9.20727e-06
3.59473e-07
3.59537e-07
3.59537e-07
3.71884e-07
3.71872e-07
3.71959e-07
3.71957e-07
2.14467e-06
3.50131e-06
6.1496e-07
9.26094e-07
2.13935e-06
3.50419e-06
6.20707e-07
1.84829e-05
1.84915e-05
2.14461e-06
6.15023e-07
3.5013e-06
9.26157e-07
2.13933e-06
6.20776e-07
3.5042e-06
5.4846e-06
5.48623e-06
1.20134e-06
5.48659e-06
5.48825e-06
4.11956e-06
9.21327e-06
4.11684e-06
9.22064e-06
1.85008e-05
1.85144e-05
4.11976e-06
9.21472e-06
4.11696e-06
9.22217e-06
3.76e-07
3.76099e-07
3.76082e-07
3.88479e-07
3.88466e-07
3.88574e-07
3.88548e-07
2.15644e-06
3.50979e-06
6.37655e-07
9.47057e-07
2.15183e-06
3.51297e-06
6.43202e-07
1.85032e-05
1.85163e-05
2.15649e-06
6.37744e-07
3.51017e-06
9.47232e-07
2.15187e-06
6.43306e-07
3.51334e-06
5.49002e-06
5.49167e-06
1.21827e-06
5.49345e-06
5.49511e-06
4.12824e-06
9.23279e-06
4.12496e-06
9.23992e-06
1.85312e-05
1.85405e-05
4.12825e-06
9.23418e-06
4.12506e-06
9.24125e-06
3.92643e-07
3.92754e-07
3.92722e-07
4.05158e-07
4.05161e-07
4.05245e-07
4.0526e-07
2.16903e-06
3.52134e-06
6.59803e-07
9.67556e-07
2.16403e-06
3.52435e-06
6.65299e-07
1.85319e-05
1.85417e-05
2.16894e-06
6.59898e-07
3.52124e-06
9.67639e-07
2.16406e-06
6.6538e-07
3.52426e-06
5.50295e-06
5.50459e-06
1.23527e-06
5.50572e-06
5.50738e-06
4.13414e-06
9.24719e-06
4.13176e-06
9.25384e-06
1.85506e-05
1.85625e-05
4.13429e-06
9.2487e-06
4.13191e-06
9.2553e-06
4.09284e-07
4.09372e-07
4.09373e-07
4.21633e-07
4.21638e-07
4.21705e-07
4.21702e-07
2.1795e-06
3.52946e-06
6.81432e-07
9.86495e-07
2.17559e-06
3.53195e-06
6.86661e-07
1.85521e-05
1.85631e-05
2.17949e-06
6.81508e-07
3.52971e-06
9.86504e-07
2.1756e-06
6.86735e-07
3.53187e-06
5.50837e-06
5.51005e-06
1.25004e-06
5.51012e-06
5.51179e-06
4.1417e-06
9.26515e-06
4.13873e-06
9.27287e-06
1.85791e-05
1.85917e-05
4.1417e-06
9.26646e-06
4.13871e-06
9.27433e-06
4.2574e-07
4.25825e-07
4.25791e-07
4.38111e-07
4.38108e-07
4.3822e-07
4.38205e-07
2.19021e-06
3.53858e-06
7.02141e-07
1.00468e-06
2.18589e-06
3.54148e-06
7.0725e-07
1.85803e-05
1.85951e-05
2.19014e-06
7.02199e-07
3.53826e-06
1.00472e-06
2.18578e-06
7.07302e-07
3.54165e-06
5.51778e-06
5.51938e-06
1.26511e-06
5.52185e-06
5.5235e-06
4.14914e-06
9.28321e-06
4.14621e-06
9.2914e-06
1.86078e-05
1.86202e-05
4.14943e-06
9.28489e-06
4.14655e-06
9.29284e-06
4.42182e-07
4.42331e-07
4.42277e-07
4.54404e-07
2.52995e-07
4.54443e-07
1.09433e-07
2.20069e-06
3.54816e-06
7.22338e-07
1.02222e-06
2.19662e-06
3.55124e-06
7.27295e-07
1.86106e-05
1.86202e-05
2.20081e-06
7.22472e-07
3.549e-06
1.02226e-06
2.19682e-06
7.27407e-07
3.55148e-06
5.5285e-06
5.53022e-06
1.27964e-06
5.53099e-06
5.53288e-06
1.84405e-05
1.84433e-05
1.16363e-06
5.46697e-06
5.46864e-06
1.84504e-05
1.84409e-05
1.84536e-05
1.84439e-05
1.1691e-06
5.46999e-06
5.47178e-06
5.46791e-06
5.46978e-06
4.09745e-06
9.17151e-06
2.11734e-06
8.80624e-07
3.48227e-06
5.74191e-07
2.11725e-06
8.80479e-07
3.48214e-06
5.74149e-07
4.09819e-06
9.17876e-06
9.17284e-06
4.10091e-06
4.0981e-06
9.17926e-06
9.17267e-06
4.10088e-06
2.11874e-06
8.86467e-07
3.48677e-06
5.85924e-07
3.48404e-06
5.80081e-07
2.1241e-06
2.11867e-06
8.86342e-07
3.48731e-06
5.85874e-07
3.48414e-06
5.80026e-07
2.12404e-06
1.16349e-06
5.46772e-06
5.46639e-06
1.8441e-05
1.84541e-05
1.8443e-05
1.16901e-06
5.47216e-06
5.47086e-06
5.46932e-06
5.46779e-06
1.8453e-05
1.84419e-05
8.80415e-07
3.48286e-06
5.74188e-07
9.17281e-06
8.80649e-07
5.74217e-07
3.48278e-06
4.09847e-06
9.18017e-06
9.17428e-06
4.10103e-06
2.11883e-06
8.86258e-07
3.4874e-06
5.85922e-07
3.4847e-06
5.8009e-07
2.12416e-06
4.09868e-06
9.17988e-06
9.17387e-06
4.10081e-06
2.11876e-06
8.865e-07
5.85958e-07
3.48746e-06
5.80123e-07
3.48469e-06
2.12411e-06
4.09753e-06
9.172e-06
4.09457e-06
2.11729e-06
5.68342e-07
2.04011e-06
8.80646e-07
5.7425e-07
3.48214e-06
1.42555e-06
4.09745e-06
9.16583e-06
9.17217e-06
4.09447e-06
2.11872e-06
8.86247e-07
3.4871e-06
5.85904e-07
3.48385e-06
5.80063e-07
2.12415e-06
4.0982e-06
9.17986e-06
9.17316e-06
4.10106e-06
2.11869e-06
8.86498e-07
5.85973e-07
3.48702e-06
5.80133e-07
3.48403e-06
2.12411e-06
4.09811e-06
9.17961e-06
9.17328e-06
4.10096e-06
1.16374e-06
5.46886e-06
5.46737e-06
1.84424e-05
1.84545e-05
1.84447e-05
1.16922e-06
5.47212e-06
5.47062e-06
5.47003e-06
5.46842e-06
1.84526e-05
1.8443e-05
2.11737e-06
5.68327e-07
2.04047e-06
8.80454e-07
5.74239e-07
3.48266e-06
1.42558e-06
4.09745e-06
9.17278e-06
4.0949e-06
4.09761e-06
9.16662e-06
9.17301e-06
4.09456e-06
2.11881e-06
8.86416e-07
5.86013e-07
3.48712e-06
5.80161e-07
3.48429e-06
2.12417e-06
2.11879e-06
8.86314e-07
5.85972e-07
3.48753e-06
5.80116e-07
3.48455e-06
2.12415e-06
4.09864e-06
9.17988e-06
9.17384e-06
4.10084e-06
4.0983e-06
9.18032e-06
9.1741e-06
4.10101e-06
1.84333e-05
1.84421e-05
1.84355e-05
1.84443e-05
1.16921e-06
5.47059e-06
5.47225e-06
5.46802e-06
5.46971e-06
1.84531e-05
1.84428e-05
1.84552e-05
1.8445e-05
1.84517e-05
1.8465e-05
1.84549e-05
1.84682e-05
5.47165e-06
5.47338e-06
1.18278e-06
5.476e-06
5.47773e-06
1.84792e-05
1.84667e-05
1.84824e-05
1.84699e-05
1.18836e-06
5.48298e-06
5.48467e-06
5.47865e-06
5.48038e-06
4.1047e-06
9.18061e-06
4.10153e-06
9.18838e-06
2.13086e-06
3.48875e-06
5.91746e-07
9.0376e-07
2.12547e-06
3.49249e-06
5.97546e-07
2.13083e-06
3.48949e-06
5.91707e-07
9.0375e-07
2.12543e-06
3.4932e-06
5.97514e-07
4.10557e-06
9.19792e-06
9.18937e-06
4.10922e-06
4.10554e-06
9.198e-06
9.18993e-06
4.10918e-06
2.13228e-06
9.09527e-07
3.49911e-06
6.09154e-07
3.49498e-06
6.03356e-07
2.13791e-06
2.13226e-06
9.09505e-07
3.49939e-06
6.09124e-07
3.49562e-06
6.03329e-07
2.13786e-06
5.47423e-06
5.47276e-06
1.1829e-06
5.47815e-06
5.47684e-06
1.84544e-05
1.8467e-05
1.84808e-05
1.84695e-05
1.18844e-06
5.48417e-06
5.48281e-06
5.48066e-06
5.47906e-06
1.84797e-05
1.84684e-05
2.13087e-06
3.48932e-06
5.91755e-07
9.03566e-07
2.12553e-06
3.49304e-06
5.97538e-07
4.10452e-06
9.18112e-06
4.1019e-06
9.18872e-06
2.13082e-06
5.91795e-07
3.48942e-06
9.03812e-07
2.12547e-06
5.97581e-07
3.49305e-06
4.10561e-06
9.19934e-06
9.19073e-06
4.10927e-06
2.13228e-06
9.09325e-07
3.49963e-06
6.09137e-07
3.49551e-06
6.03354e-07
2.13791e-06
4.10581e-06
9.19868e-06
9.1903e-06
4.10904e-06
2.13221e-06
9.09539e-07
6.09177e-07
3.49938e-06
6.03396e-07
3.49546e-06
2.13784e-06
4.10492e-06
9.18121e-06
4.10173e-06
9.18899e-06
2.1309e-06
5.91804e-07
3.48906e-06
9.03832e-07
2.12546e-06
5.9761e-07
3.4927e-06
4.10479e-06
9.18089e-06
4.10161e-06
9.1885e-06
2.13237e-06
9.09426e-07
3.49918e-06
6.09167e-07
3.49536e-06
6.03369e-07
2.13796e-06
4.10575e-06
9.19856e-06
9.19052e-06
4.10932e-06
2.13229e-06
9.09576e-07
6.09216e-07
3.49905e-06
6.0342e-07
3.49508e-06
2.1379e-06
4.1056e-06
9.19834e-06
9.19005e-06
4.10921e-06
5.47371e-06
5.4723e-06
1.18288e-06
5.4778e-06
5.47641e-06
1.84538e-05
1.84667e-05
1.84821e-05
1.84701e-05
1.18839e-06
5.48418e-06
5.48282e-06
5.48025e-06
5.47886e-06
1.84802e-05
1.84682e-05
2.13087e-06
5.91794e-07
3.48953e-06
9.03638e-07
2.12552e-06
5.97602e-07
3.49316e-06
4.10457e-06
9.18113e-06
4.102e-06
9.18873e-06
4.10473e-06
9.18158e-06
4.10166e-06
9.18913e-06
2.13231e-06
9.09468e-07
6.09236e-07
3.4991e-06
6.03441e-07
3.49519e-06
2.13788e-06
2.13229e-06
9.09386e-07
6.09199e-07
3.4995e-06
6.03404e-07
3.49551e-06
2.13787e-06
4.10593e-06
9.19862e-06
9.1903e-06
4.10901e-06
4.10559e-06
9.19904e-06
9.19069e-06
4.10917e-06
1.84544e-05
1.8467e-05
1.84565e-05
1.84691e-05
1.18845e-06
5.4828e-06
5.48442e-06
5.47862e-06
5.4802e-06
1.84807e-05
1.84685e-05
1.84828e-05
1.84706e-05
1.848e-05
1.8488e-05
1.84831e-05
1.84912e-05
5.48464e-06
5.48633e-06
1.20124e-06
5.48632e-06
5.48802e-06
1.84975e-05
1.84885e-05
1.85007e-05
1.84916e-05
1.20629e-06
5.48852e-06
5.49024e-06
5.48704e-06
5.48875e-06
4.1132e-06
9.19935e-06
4.11007e-06
9.20579e-06
2.14464e-06
3.50136e-06
6.14956e-07
9.26276e-07
2.13933e-06
3.50425e-06
6.20713e-07
2.14457e-06
3.50159e-06
6.14919e-07
9.26167e-07
2.13928e-06
3.50441e-06
6.20667e-07
4.11392e-06
9.21213e-06
9.2068e-06
4.11628e-06
4.11385e-06
9.21222e-06
9.20677e-06
4.11622e-06
2.14592e-06
9.31611e-07
3.50805e-06
6.3207e-07
3.50584e-06
6.26428e-07
2.15059e-06
2.14586e-06
9.3149e-07
3.50831e-06
6.32014e-07
3.50608e-06
6.26379e-07
2.15052e-06
5.48591e-06
5.48437e-06
1.20116e-06
5.48749e-06
5.48616e-06
1.84804e-05
1.84887e-05
1.84996e-05
1.84903e-05
1.20619e-06
5.48995e-06
5.48866e-06
5.48853e-06
5.48698e-06
1.84986e-05
1.84893e-05
2.14466e-06
3.50188e-06
6.14946e-07
9.26075e-07
2.13933e-06
3.50477e-06
6.20689e-07
4.1131e-06
9.20007e-06
4.11038e-06
9.20663e-06
2.14458e-06
6.14979e-07
3.50156e-06
9.26242e-07
2.13924e-06
6.20721e-07
3.50445e-06
4.114e-06
9.21357e-06
9.20821e-06
4.11638e-06
2.14594e-06
9.31406e-07
3.50857e-06
6.32044e-07
3.50636e-06
6.26415e-07
2.15062e-06
4.11417e-06
9.21332e-06
9.20762e-06
4.11618e-06
2.14584e-06
9.31578e-07
6.32082e-07
3.50859e-06
6.26444e-07
3.50614e-06
2.15056e-06
4.11336e-06
9.1999e-06
4.11021e-06
9.20635e-06
2.14463e-06
6.15011e-07
3.50132e-06
9.26313e-07
2.13929e-06
6.20764e-07
3.50433e-06
4.11328e-06
9.19975e-06
4.11009e-06
9.20649e-06
2.14594e-06
9.3142e-07
3.50812e-06
6.32057e-07
3.5058e-06
6.26419e-07
2.15065e-06
4.11402e-06
9.21283e-06
9.20733e-06
4.11644e-06
2.14589e-06
9.31644e-07
6.32123e-07
3.5082e-06
6.26481e-07
3.50601e-06
2.15061e-06
4.11393e-06
9.21286e-06
9.20748e-06
4.11636e-06
5.48578e-06
5.48444e-06
1.20121e-06
5.48769e-06
5.48635e-06
1.8481e-05
1.84897e-05
1.85019e-05
1.84921e-05
1.20629e-06
5.49062e-06
5.4893e-06
5.48864e-06
5.48732e-06
1.85001e-05
1.84903e-05
2.14462e-06
6.14988e-07
3.50176e-06
9.26108e-07
2.13929e-06
6.20743e-07
3.5048e-06
4.11311e-06
9.19999e-06
4.11043e-06
9.20661e-06
4.11328e-06
9.20046e-06
4.11011e-06
9.20723e-06
2.14593e-06
9.31519e-07
6.32139e-07
3.50838e-06
6.26487e-07
3.5059e-06
2.15065e-06
2.14591e-06
9.31457e-07
6.32104e-07
3.5087e-06
6.26456e-07
3.50647e-06
2.15063e-06
4.11428e-06
9.21336e-06
9.20763e-06
4.11626e-06
4.11397e-06
9.21361e-06
9.20822e-06
4.11641e-06
1.84816e-05
1.84902e-05
1.84837e-05
1.84923e-05
1.20637e-06
5.48882e-06
5.49049e-06
5.48744e-06
5.4891e-06
1.84994e-05
1.84906e-05
1.85016e-05
1.84928e-05
1.84987e-05
1.85122e-05
1.85019e-05
1.85154e-05
5.48987e-06
5.49161e-06
1.21825e-06
5.49378e-06
5.49556e-06
1.85277e-05
1.8514e-05
1.85308e-05
1.85173e-05
1.22339e-06
5.50079e-06
5.50255e-06
5.4963e-06
5.49809e-06
4.1195e-06
9.21338e-06
4.11678e-06
9.22074e-06
2.1564e-06
3.50971e-06
6.37664e-07
9.47244e-07
2.15179e-06
3.5129e-06
6.43212e-07
2.15633e-06
3.51003e-06
6.3761e-07
9.47116e-07
2.15173e-06
3.51317e-06
6.43154e-07
4.12036e-06
9.23125e-06
9.22228e-06
4.124e-06
4.12028e-06
9.23145e-06
9.2224e-06
4.12396e-06
2.15768e-06
9.5245e-07
3.51905e-06
6.54284e-07
3.51516e-06
6.48753e-07
2.16272e-06
2.15762e-06
9.52332e-07
3.51935e-06
6.54226e-07
3.51548e-06
6.48699e-07
2.16266e-06
5.49148e-06
5.49002e-06
1.21817e-06
5.49519e-06
5.49382e-06
1.84999e-05
1.85132e-05
1.85301e-05
1.85162e-05
1.22332e-06
5.50233e-06
5.50092e-06
5.49798e-06
5.49629e-06
1.8529e-05
1.85151e-05
2.15648e-06
3.51024e-06
6.37655e-07
9.47046e-07
2.15183e-06
3.51346e-06
6.43193e-07
4.11956e-06
9.21452e-06
4.11715e-06
9.22199e-06
2.15643e-06
6.37696e-07
3.51038e-06
9.47316e-07
2.15176e-06
6.43246e-07
3.51358e-06
4.12058e-06
9.23267e-06
9.22381e-06
4.12411e-06
2.15776e-06
9.5226e-07
3.51959e-06
6.54267e-07
3.51572e-06
6.48752e-07
2.16278e-06
4.12079e-06
9.2321e-06
9.22357e-06
4.12389e-06
2.15769e-06
9.52484e-07
6.54323e-07
3.51938e-06
6.48803e-07
3.51576e-06
2.16271e-06
4.11966e-06
9.21398e-06
4.11699e-06
9.22132e-06
2.15638e-06
6.3772e-07
3.50982e-06
9.47253e-07
2.15178e-06
6.43265e-07
3.51279e-06
4.11954e-06
9.21394e-06
4.11689e-06
9.22096e-06
2.15769e-06
9.52273e-07
3.51912e-06
6.54272e-07
3.51519e-06
6.48744e-07
2.16273e-06
4.12042e-06
9.23197e-06
9.22296e-06
4.12405e-06
2.15762e-06
9.52437e-07
6.54327e-07
3.51891e-06
6.48801e-07
3.51498e-06
2.16266e-06
4.12027e-06
9.23164e-06
9.22256e-06
4.12393e-06
5.49216e-06
5.49085e-06
1.2184e-06
5.49592e-06
5.49456e-06
1.85014e-05
1.85144e-05
1.85308e-05
1.8518e-05
1.2235e-06
5.50217e-06
5.50071e-06
5.49815e-06
5.49676e-06
1.85289e-05
1.8516e-05
2.15643e-06
6.37701e-07
3.5103e-06
9.4705e-07
2.15184e-06
6.43252e-07
3.51329e-06
4.11956e-06
9.21455e-06
4.11731e-06
9.22192e-06
4.11965e-06
9.2147e-06
4.11697e-06
9.22174e-06
2.15776e-06
9.52444e-07
6.54376e-07
3.5191e-06
6.48852e-07
3.51551e-06
2.16272e-06
2.1577e-06
9.52265e-07
6.54316e-07
3.51939e-06
6.48791e-07
3.51546e-06
2.16268e-06
4.12082e-06
9.23202e-06
9.22348e-06
4.12381e-06
4.12043e-06
9.23235e-06
9.22334e-06
4.12394e-06
1.85005e-05
1.85134e-05
1.85027e-05
1.85156e-05
1.22341e-06
5.50075e-06
5.50241e-06
5.49583e-06
5.49748e-06
1.85299e-05
1.85153e-05
1.85321e-05
1.85175e-05
1.85287e-05
1.85379e-05
1.85319e-05
1.85411e-05
5.50262e-06
5.50437e-06
1.23501e-06
5.50474e-06
5.50647e-06
1.85471e-05
1.85385e-05
1.85504e-05
1.85416e-05
1.23974e-06
5.5069e-06
5.50867e-06
5.50561e-06
5.50734e-06
4.12821e-06
9.23303e-06
4.12491e-06
9.24026e-06
2.16897e-06
3.52126e-06
6.59813e-07
9.67715e-07
2.16405e-06
3.52418e-06
6.65309e-07
2.16891e-06
3.52163e-06
6.59763e-07
9.6761e-07
2.164e-06
3.52455e-06
6.65255e-07
4.12894e-06
9.24617e-06
9.24093e-06
4.13124e-06
4.1289e-06
9.24647e-06
9.24128e-06
4.1312e-06
2.17017e-06
9.72566e-07
3.52777e-06
6.76122e-07
3.52577e-06
6.70753e-07
2.17437e-06
2.17012e-06
9.72487e-07
3.52817e-06
6.76069e-07
3.5262e-06
6.70709e-07
2.17432e-06
5.5044e-06
5.50281e-06
1.23501e-06
5.50636e-06
5.50506e-06
1.85302e-05
1.85396e-05
1.85497e-05
1.8541e-05
1.23974e-06
5.5086e-06
5.50731e-06
5.50744e-06
5.50595e-06
1.85486e-05
1.85401e-05
2.16895e-06
3.52177e-06
6.59809e-07
9.675e-07
2.16409e-06
3.52467e-06
6.65282e-07
4.12802e-06
9.23357e-06
4.12524e-06
9.2407e-06
2.16888e-06
6.59853e-07
3.52152e-06
9.67745e-07
2.164e-06
6.65332e-07
3.52449e-06
4.12897e-06
9.24766e-06
9.24228e-06
4.13136e-06
2.17015e-06
9.7238e-07
3.52829e-06
6.76087e-07
3.52625e-06
6.70738e-07
2.17439e-06
4.12915e-06
9.24743e-06
9.24178e-06
4.13116e-06
2.17006e-06
9.72565e-07
6.76138e-07
3.52842e-06
6.70775e-07
3.52621e-06
2.17434e-06
4.12842e-06
9.23355e-06
4.125e-06
9.24091e-06
2.16899e-06
6.59857e-07
3.52125e-06
9.67804e-07
2.16396e-06
6.65359e-07
3.52453e-06
4.12835e-06
9.2333e-06
4.12487e-06
9.24111e-06
2.17023e-06
9.72437e-07
3.52802e-06
6.76127e-07
3.52595e-06
6.70755e-07
2.17452e-06
4.12915e-06
9.24718e-06
9.24194e-06
4.13155e-06
2.17019e-06
9.72679e-07
6.76199e-07
3.5283e-06
6.70819e-07
3.52629e-06
2.17449e-06
4.12908e-06
9.24739e-06
9.2422e-06
4.13148e-06
5.504e-06
5.50256e-06
1.23511e-06
5.50647e-06
5.50509e-06
1.853e-05
1.85399e-05
1.85512e-05
1.85424e-05
1.23985e-06
5.50913e-06
5.50777e-06
5.5076e-06
5.50624e-06
1.85493e-05
1.85405e-05
2.16896e-06
6.59843e-07
3.52171e-06
9.67585e-07
2.164e-06
6.65339e-07
3.525e-06
4.12809e-06
9.23352e-06
4.12524e-06
9.24078e-06
4.12829e-06
9.23399e-06
4.12491e-06
9.24178e-06
2.17019e-06
9.72561e-07
6.76198e-07
3.52822e-06
6.70829e-07
3.52599e-06
2.17449e-06
2.17019e-06
9.72514e-07
6.76173e-07
3.52879e-06
6.70796e-07
3.52675e-06
2.1745e-06
4.12934e-06
9.2475e-06
9.24187e-06
4.13136e-06