/*--------------------------------*- C++ -*----------------------------------*\
| =========                 |                                                 |
| \\      /  F ield         | OpenFOAM: The Open Source CFD Toolbox           |
|  \\    /   O peration     | Version:  v2006                                 |
|   \\  /    A nd           | Website:  www.openfoam.com                      |
|    \\/     M anipulation  |                                                 |
\*---------------------------------------------------------------------------*/
FoamFile
{
    version     2.0;
    format      ascii;
    class       volScalarField;
    location    "875";
    object      k;
}
// * * * * * * * * * * * * * * * * * * * * * * * * * * * * * * * * * * * * * //

dimensions      [0 2 -2 0 0 0 0];


internalField   nonuniform List<scalar> 
14199
(
5.68715e-05
3.71428e-05
5.68729e-05
3.71427e-05
6.64988e-05
6.65013e-05
7.06857e-05
6.97387e-05
7.04057e-05
6.65235e-05
6.97601e-05
7.0418e-05
7.06728e-05
7.06865e-05
6.97439e-05
7.04066e-05
6.6526e-05
6.97645e-05
7.04186e-05
7.06745e-05
7.06441e-05
7.83605e-05
7.83714e-05
7.06305e-05
2.02728e-05
2.02709e-05
5.88745e-05
5.09243e-05
4.92729e-05
5.69203e-05
5.09195e-05
4.92897e-05
5.8918e-05
5.88784e-05
5.09272e-05
4.92733e-05
5.6922e-05
5.09219e-05
4.92903e-05
5.89226e-05
6.1274e-05
5.2693e-05
5.26809e-05
6.13083e-05
6.82673e-05
7.00679e-05
6.23988e-05
7.21035e-05
7.21001e-05
4.37227e-05
6.23962e-05
7.00688e-05
4.74868e-05
6.82701e-05
4.37323e-05
7.20535e-05
6.2216e-05
6.82884e-05
7.19461e-05
7.19903e-05
7.19693e-05
6.22659e-05
7.0084e-05
7.0644e-05
7.21195e-05
7.83607e-05
7.8375e-05
7.06283e-05
7.21158e-05
7.0085e-05
9.35145e-05
7.25051e-05
7.24983e-05
9.34574e-05
7.25183e-05
7.2525e-05
7.21003e-05
6.22213e-05
6.82916e-05
7.19549e-05
6.22698e-05
7.20421e-05
7.1978e-05
6.12666e-05
5.26869e-05
5.64269e-05
6.24285e-05
5.64498e-05
5.26746e-05
6.13012e-05
5.64234e-05
6.24249e-05
5.64457e-05
6.27324e-05
5.49215e-05
4.74962e-05
5.492e-05
5.49463e-05
6.26727e-05
5.49473e-05
2.80106e-05
6.65565e-05
6.65588e-05
5.6994e-05
3.73429e-05
7.21428e-05
5.69915e-05
6.24774e-05
4.38871e-05
3.73409e-05
7.069e-05
7.0436e-05
6.97886e-05
6.65309e-05
7.04226e-05
6.97636e-05
7.07042e-05
7.0645e-05
7.83961e-05
7.8381e-05
7.06611e-05
7.06913e-05
6.97927e-05
7.04366e-05
6.65343e-05
6.97714e-05
7.04234e-05
7.0705e-05
7.06456e-05
7.83862e-05
7.21241e-05
7.83649e-05
7.06621e-05
7.00901e-05
7.21356e-05
6.83057e-05
6.22981e-05
7.19881e-05
9.35655e-05
7.25209e-05
7.25277e-05
7.20817e-05
7.19796e-05
5.27746e-05
6.13588e-05
6.13254e-05
5.27863e-05
5.10339e-05
5.89868e-05
4.94096e-05
5.69467e-05
5.89446e-05
4.93936e-05
5.10381e-05
5.10269e-05
5.89815e-05
4.9407e-05
5.69433e-05
4.93906e-05
5.89362e-05
5.10322e-05
5.27641e-05
6.1353e-05
5.65321e-05
6.24411e-05
6.13135e-05
5.65079e-05
5.2778e-05
6.27734e-05
5.5028e-05
4.21332e-05
3.69077e-05
6.95487e-05
6.69805e-05
7.13914e-05
7.74557e-05
6.95565e-05
6.70079e-05
5.95516e-05
5.94873e-05
7.1176e-05
7.02303e-05
5.07873e-05
5.07788e-05
5.9751e-05
4.83438e-05
6.03361e-05
5.86808e-05
5.27794e-05
1.30157e-05
1.3018e-05
1.30154e-05
1.3018e-05
3.69072e-05
3.69014e-05
3.6906e-05
4.21351e-05
6.48633e-05
7.13793e-05
6.47584e-05
6.95478e-05
5.27396e-05
5.36123e-05
5.27375e-05
2.92557e-05
4.59707e-05
6.486e-05
7.13745e-05
6.47554e-05
5.36101e-05
2.9257e-05
4.83105e-05
4.59692e-05
6.69746e-05
6.69715e-05
6.95466e-05
7.13773e-05
7.01593e-05
6.83366e-05
6.98775e-05
6.4821e-05
6.82998e-05
6.98676e-05
7.01689e-05
7.02117e-05
7.13938e-05
7.74326e-05
7.7458e-05
7.02009e-05
7.01562e-05
6.4802e-05
6.82451e-05
6.98535e-05
6.82844e-05
6.98637e-05
7.01461e-05
6.95584e-05
7.01571e-05
6.98764e-05
6.8329e-05
6.48179e-05
6.98665e-05
6.82925e-05
7.01669e-05
7.02099e-05
7.13891e-05
7.74135e-05
7.74384e-05
7.01989e-05
7.0154e-05
6.47988e-05
6.98524e-05
6.82382e-05
6.98626e-05
6.82769e-05
7.01439e-05
7.02797e-05
5.94909e-05
6.70087e-05
7.11768e-05
7.11885e-05
5.95575e-05
7.02469e-05
7.0227e-05
5.94846e-05
6.70063e-05
7.11673e-05
5.95511e-05
7.11792e-05
7.01942e-05
9.24619e-05
7.20373e-05
7.20437e-05
7.20423e-05
7.20487e-05
9.24634e-05
6.95572e-05
7.02098e-05
7.13918e-05
7.74291e-05
7.74523e-05
7.01983e-05
5.0783e-05
5.0783e-05
5.97536e-05
5.98118e-05
4.21536e-05
5.08206e-05
5.08206e-05
4.83157e-05
6.02796e-05
5.86147e-05
4.8343e-05
6.0334e-05
5.27781e-05
5.86783e-05
4.61451e-05
5.58957e-05
4.42463e-05
5.35313e-05
5.58208e-05
4.42139e-05
4.61639e-05
4.83126e-05
6.02812e-05
5.86138e-05
4.83403e-05
6.03368e-05
5.86792e-05
5.27777e-05
5.34074e-05
5.57055e-05
4.40315e-05
4.59896e-05
5.34889e-05
5.57817e-05
4.40639e-05
4.61427e-05
4.42451e-05
5.58905e-05
5.35293e-05
4.42129e-05
5.58163e-05
4.61612e-05
5.27372e-05
6.02766e-05
5.86072e-05
4.83378e-05
6.03311e-05
5.86715e-05
5.27757e-05
5.34057e-05
4.40308e-05
5.57019e-05
4.5988e-05
5.34868e-05
4.40631e-05
5.57773e-05
7.21045e-05
6.24131e-05
3.71398e-05
4.34027e-05
4.72559e-05
7.00664e-05
6.8283e-05
4.34e-05
4.37353e-05
4.72542e-05
4.34031e-05
4.34003e-05
6.65031e-05
3.7142e-05
4.37349e-05
5.68756e-05
6.64982e-05
5.68714e-05
6.82585e-05
7.00387e-05
7.00616e-05
2.02697e-05
2.02718e-05
2.76064e-05
2.76103e-05
5.68559e-05
6.23366e-05
3.67242e-05
4.35721e-05
6.2403e-05
3.69367e-05
5.67194e-05
6.23858e-05
5.68466e-05
5.67181e-05
6.82459e-05
6.82528e-05
4.73888e-05
6.82822e-05
6.82877e-05
7.00649e-05
4.74979e-05
6.82813e-05
7.20707e-05
7.20944e-05
6.23327e-05
4.35695e-05
6.23986e-05
6.65095e-05
7.21029e-05
6.65076e-05
5.68823e-05
6.24152e-05
3.71444e-05
5.68802e-05
3.71416e-05
6.82567e-05
6.82554e-05
4.73833e-05
6.82737e-05
6.82754e-05
7.00388e-05
7.00619e-05
6.65003e-05
7.20741e-05
7.20983e-05
6.64346e-05
5.68544e-05
3.67259e-05
6.23265e-05
4.35731e-05
3.69376e-05
6.24018e-05
5.67175e-05
6.64991e-05
7.20705e-05
7.20986e-05
6.6432e-05
5.68479e-05
3.67271e-05
6.23287e-05
4.35697e-05
3.69368e-05
6.24018e-05
5.67171e-05
7.00395e-05
7.00642e-05
7.00416e-05
7.00668e-05
7.06429e-05
7.21173e-05
7.83707e-05
7.06289e-05
7.83773e-05
7.00804e-05
7.20517e-05
6.22288e-05
6.82916e-05
7.19456e-05
6.22667e-05
7.2002e-05
7.19652e-05
7.06861e-05
6.97477e-05
6.65249e-05
7.04062e-05
7.06742e-05
6.97646e-05
7.0418e-05
7.06848e-05
6.65209e-05
7.04051e-05
6.97354e-05
7.06721e-05
7.04172e-05
6.97548e-05
7.06432e-05
7.83454e-05
7.06281e-05
7.83576e-05
7.19276e-05
6.82473e-05
6.21934e-05
7.19357e-05
7.19621e-05
6.21584e-05
7.1916e-05
9.33412e-05
7.24975e-05
7.24908e-05
7.24653e-05
9.33876e-05
7.2472e-05
7.00484e-05
7.00502e-05
9.34034e-05
7.2475e-05
7.24696e-05
7.2463e-05
7.24575e-05
9.33992e-05
7.19799e-05
6.21358e-05
6.82623e-05
7.19073e-05
6.21709e-05
7.19175e-05
7.19692e-05
7.20207e-05
6.21475e-05
6.82682e-05
7.19154e-05
6.21826e-05
7.19255e-05
7.20075e-05
7.19841e-05
7.19343e-05
6.82687e-05
6.222e-05
6.21872e-05
7.19221e-05
7.19952e-05
7.20255e-05
7.19425e-05
6.82744e-05
6.22297e-05
6.21982e-05
7.19302e-05
7.20376e-05
9.341e-05
7.24543e-05
7.24491e-05
7.24629e-05
7.24571e-05
9.34209e-05
7.00785e-05
9.34407e-05
7.24837e-05
7.24874e-05
9.33743e-05
7.2511e-05
7.25088e-05
7.20417e-05
6.22278e-05
7.19404e-05
6.82879e-05
7.19991e-05
7.19603e-05
6.22585e-05
7.06171e-05
7.20803e-05
7.83444e-05
7.83524e-05
7.06066e-05
7.06166e-05
7.8357e-05
7.20844e-05
7.83524e-05
7.06275e-05
7.06854e-05
7.04067e-05
6.97528e-05
6.653e-05
7.0674e-05
7.0418e-05
6.97677e-05
7.06415e-05
7.83726e-05
7.21152e-05
7.06283e-05
7.83773e-05
7.06847e-05
7.04063e-05
6.97468e-05
6.65281e-05
7.06732e-05
7.04176e-05
6.9762e-05
7.06413e-05
7.8357e-05
7.06281e-05
7.83619e-05
9.33588e-05
7.24784e-05
7.24851e-05
7.24577e-05
7.24644e-05
9.33646e-05
7.19926e-05
6.21412e-05
6.82652e-05
7.19104e-05
7.19198e-05
6.21701e-05
7.19886e-05
7.1945e-05
6.21378e-05
6.82656e-05
7.19029e-05
6.21667e-05
7.19125e-05
7.19407e-05
7.19971e-05
7.19395e-05
6.82683e-05
6.22128e-05
7.19252e-05
6.21838e-05
7.20132e-05
7.19491e-05
7.19325e-05
6.82686e-05
6.22097e-05
6.21802e-05
7.1918e-05
7.19657e-05
9.33621e-05
7.24425e-05
7.24491e-05
7.24532e-05
7.24598e-05
9.3373e-05
7.00485e-05
7.00506e-05
7.06595e-05
6.97448e-05
7.04028e-05
6.6475e-05
6.97264e-05
7.03919e-05
7.067e-05
7.06171e-05
7.20839e-05
7.8356e-05
7.83638e-05
7.06058e-05
7.0616e-05
7.83683e-05
7.20881e-05
7.83646e-05
7.06278e-05
7.0656e-05
6.64642e-05
6.96958e-05
7.03766e-05
6.97194e-05
7.03875e-05
7.06458e-05
7.06595e-05
7.04026e-05
6.97429e-05
6.6473e-05
7.03917e-05
6.97218e-05
7.06701e-05
7.06172e-05
7.20822e-05
7.83352e-05
7.83483e-05
7.06061e-05
7.06172e-05
7.83603e-05
7.20872e-05
7.83513e-05
7.06285e-05
7.06557e-05
6.64619e-05
7.03761e-05
6.96886e-05
7.03872e-05
6.97138e-05
7.06452e-05
7.00503e-05
7.00527e-05
7.00525e-05
7.0055e-05
7.00633e-05
6.64283e-05
7.20966e-05
6.64889e-05
6.64289e-05
7.20708e-05
6.64914e-05
7.20997e-05
7.00495e-05
7.06526e-05
7.03736e-05
6.96849e-05
6.64545e-05
7.06419e-05
7.03847e-05
6.97049e-05
7.06137e-05
7.20835e-05
7.83559e-05
7.83471e-05
7.06272e-05
7.06566e-05
6.64646e-05
6.97311e-05
7.04007e-05
7.03893e-05
6.9712e-05
7.06682e-05
7.06551e-05
7.03746e-05
6.96854e-05
6.64561e-05
7.06444e-05
7.03857e-05
6.97084e-05
7.06171e-05
7.8332e-05
7.20825e-05
7.06059e-05
7.83441e-05
7.0659e-05
6.64665e-05
6.97367e-05
7.04016e-05
7.03903e-05
6.9716e-05
7.06701e-05
7.06174e-05
7.20878e-05
7.83573e-05
7.83473e-05
7.06295e-05
5.26943e-05
5.64369e-05
6.24357e-05
6.1279e-05
5.26836e-05
6.13087e-05
5.64565e-05
6.26258e-05
5.47647e-05
5.47682e-05
4.72646e-05
5.47849e-05
5.47889e-05
6.2593e-05
6.26076e-05
5.47625e-05
5.47644e-05
4.72619e-05
5.47827e-05
5.47807e-05
6.2582e-05
5.09294e-05
5.88831e-05
4.9275e-05
5.69228e-05
5.09251e-05
5.89241e-05
4.92916e-05
5.09214e-05
4.9272e-05
5.69189e-05
5.88717e-05
5.09169e-05
4.92885e-05
5.89141e-05
5.26807e-05
6.12605e-05
5.26689e-05
6.12938e-05
2.80112e-05
2.02698e-05
1.99135e-05
1.99126e-05
2.78111e-05
2.00924e-05
2.00911e-05
1.29213e-05
1.28272e-05
1.99179e-05
1.99165e-05
2.78126e-05
2.00954e-05
2.00933e-05
1.29229e-05
1.28298e-05
2.02697e-05
5.08134e-05
5.88655e-05
4.91726e-05
5.68033e-05
5.882e-05
4.91537e-05
5.08199e-05
5.25038e-05
5.62879e-05
6.23667e-05
6.11746e-05
5.63094e-05
6.12138e-05
5.24889e-05
5.25912e-05
6.12649e-05
6.23785e-05
5.63859e-05
5.63662e-05
6.12321e-05
5.26037e-05
5.07004e-05
5.67761e-05
5.87456e-05
4.9023e-05
5.87965e-05
4.90434e-05
5.06919e-05
6.23611e-05
6.12169e-05
6.12489e-05
5.25814e-05
5.63705e-05
5.63507e-05
5.25928e-05
5.88096e-05
5.67967e-05
5.88529e-05
5.08079e-05
4.91686e-05
4.9151e-05
5.0813e-05
5.87419e-05
5.87876e-05
5.67709e-05
5.06988e-05
4.90248e-05
4.90436e-05
5.06926e-05
6.26438e-05
4.73813e-05
5.48723e-05
5.48759e-05
5.4853e-05
5.48568e-05
6.26745e-05
6.27135e-05
5.49274e-05
4.75038e-05
5.4934e-05
5.49486e-05
6.26731e-05
5.49497e-05
5.24979e-05
5.62834e-05
6.23627e-05
6.11679e-05
6.12079e-05
5.63048e-05
5.24829e-05
5.2586e-05
6.12587e-05
6.23747e-05
5.63816e-05
6.1226e-05
5.25983e-05
5.63621e-05
5.09354e-05
5.88894e-05
4.92802e-05
5.69297e-05
5.09309e-05
5.89302e-05
4.92971e-05
5.26994e-05
5.6443e-05
6.12842e-05
6.2437e-05
5.64608e-05
5.26889e-05
6.13132e-05
5.09296e-05
5.88832e-05
4.92779e-05
5.69276e-05
5.09252e-05
5.89241e-05
4.92948e-05
5.26917e-05
6.12743e-05
5.26809e-05
6.13037e-05
6.26235e-05
4.73766e-05
5.4863e-05
5.48651e-05
5.48465e-05
5.48446e-05
6.26524e-05
5.08099e-05
4.91714e-05
5.88621e-05
5.68014e-05
4.91524e-05
5.88148e-05
5.08168e-05
5.24977e-05
5.62817e-05
6.23587e-05
6.1163e-05
5.63039e-05
6.12032e-05
5.24828e-05
5.25859e-05
6.12595e-05
6.23727e-05
5.63845e-05
5.63636e-05
6.12229e-05
5.25994e-05
5.06971e-05
5.67741e-05
4.9022e-05
5.87398e-05
4.90424e-05
5.87908e-05
5.06889e-05
5.67971e-05
5.88107e-05
5.88565e-05
5.08076e-05
4.91683e-05
4.91504e-05
5.08136e-05
6.12011e-05
6.11621e-05
6.236e-05
5.24965e-05
5.62836e-05
5.63061e-05
5.24821e-05
6.12203e-05
6.12559e-05
6.23735e-05
5.2584e-05
5.63858e-05
5.63653e-05
5.25967e-05
5.67708e-05
5.87876e-05
5.87386e-05
5.0696e-05
4.90229e-05
4.90422e-05
5.06885e-05
1.09062e-05
4.21356e-05
2.19639e-05
3.77999e-05
3.78071e-05
4.28344e-05
2.27422e-05
3.86941e-05
3.86933e-05
4.35575e-05
2.35466e-05
3.95456e-05
3.95494e-05
4.42175e-05
2.43465e-05
4.03665e-05
4.03732e-05
4.48722e-05
2.51662e-05
4.11754e-05
4.11801e-05
4.5512e-05
2.59705e-05
4.19233e-05
4.19201e-05
4.60669e-05
2.67872e-05
4.26728e-05
4.26861e-05
4.66882e-05
4.26777e-05
3.75877e-05
3.75783e-05
4.26696e-05
3.75841e-05
3.75875e-05
3.69083e-05
3.75791e-05
3.75871e-05
4.2681e-05
3.69044e-05
3.75886e-05
3.75836e-05
4.26786e-05
4.28311e-05
4.33912e-05
3.78054e-05
3.7799e-05
3.84671e-05
3.8468e-05
4.28281e-05
4.33973e-05
3.78015e-05
3.78061e-05
3.84634e-05
3.84682e-05
3.78064e-05
3.84694e-05
3.84693e-05
4.28353e-05
4.33927e-05
3.78032e-05
3.84695e-05
3.84656e-05
4.33932e-05
4.35573e-05
4.40749e-05
3.86935e-05
3.86926e-05
3.93452e-05
3.93397e-05
4.35607e-05
4.40702e-05
3.86891e-05
3.86919e-05
3.93411e-05
3.93409e-05
3.8694e-05
3.93412e-05
3.93459e-05
4.35559e-05
4.40719e-05
3.86905e-05
3.93422e-05
3.93418e-05
4.40764e-05
4.42165e-05
4.47224e-05
3.95503e-05
3.9544e-05
4.01613e-05
4.0155e-05
4.42117e-05
4.47183e-05
3.95457e-05
3.95477e-05
4.01579e-05
4.0164e-05
3.95507e-05
4.01571e-05
4.01597e-05
4.42169e-05
4.47273e-05
3.95474e-05
4.01653e-05
4.01559e-05
4.47189e-05
4.48757e-05
4.53668e-05
4.03708e-05
4.03646e-05
4.09838e-05
4.09796e-05
4.48724e-05
4.53667e-05
4.0367e-05
4.03709e-05
4.09797e-05
4.0984e-05
4.03673e-05
4.09815e-05
4.09887e-05
4.4878e-05
4.53712e-05
4.03647e-05
4.09844e-05
4.09841e-05
4.53778e-05
4.54999e-05
4.59436e-05
4.11766e-05
4.11731e-05
4.17368e-05
4.17341e-05
4.55004e-05
4.59456e-05
4.11725e-05
4.11765e-05
4.17325e-05
4.17339e-05
4.1183e-05
4.1737e-05
4.17357e-05
4.55061e-05
4.59343e-05
4.11807e-05
4.17339e-05
4.17305e-05
4.59351e-05
4.60784e-05
4.65431e-05
4.19241e-05
4.19208e-05
4.24895e-05
4.24826e-05
4.60789e-05
4.65399e-05
4.19209e-05
4.19151e-05
4.24833e-05
4.2491e-05
4.19173e-05
4.24847e-05
4.24902e-05
4.60657e-05
4.65552e-05
4.1916e-05
4.24875e-05
4.24829e-05
4.65493e-05
4.66804e-05
4.71362e-05
4.26747e-05
4.26705e-05
4.32318e-05
4.32242e-05
4.66783e-05
4.71338e-05
4.26729e-05
4.26777e-05
4.32242e-05
4.32329e-05
4.26772e-05
4.32276e-05
4.3229e-05
4.66974e-05
6.82315e-05
4.26774e-05
5.0579e-05
4.89112e-05
6.8245e-05
6.48627e-05
7.141e-05
6.95665e-05
7.14125e-05
2.12008e-05
1.09071e-05
2.12014e-05
2.17724e-05
2.17702e-05
2.17754e-05
2.17745e-05
5.36129e-05
2.92593e-05
3.71338e-05
6.03968e-05
2.95058e-05
4.59769e-05
6.95695e-05
5.36123e-05
2.92603e-05
3.71394e-05
2.95079e-05
6.04093e-05
4.4034e-05
6.6968e-05
6.69749e-05
4.23332e-05
6.70337e-05
6.70422e-05
6.50763e-05
7.14528e-05
6.49868e-05
7.14928e-05
6.95995e-05
6.96316e-05
6.50741e-05
7.14546e-05
6.49875e-05
7.14944e-05
2.19615e-05
2.19672e-05
2.19661e-05
2.25438e-05
2.25449e-05
2.25479e-05
2.25477e-05
5.40673e-05
6.05525e-05
3.02406e-05
3.80214e-05
5.38818e-05
6.06736e-05
3.04832e-05
6.95978e-05
6.96301e-05
5.40663e-05
3.02459e-05
6.05566e-05
3.80255e-05
5.3884e-05
3.04881e-05
6.06673e-05
6.71131e-05
6.71213e-05
4.30258e-05
6.71906e-05
6.71977e-05
6.53205e-05
7.15529e-05
6.52156e-05
7.15869e-05
6.96653e-05
6.96863e-05
6.53191e-05
7.15548e-05
6.52132e-05
7.15888e-05
2.27436e-05
2.27457e-05
2.27457e-05
2.33462e-05
2.33458e-05
2.33478e-05
2.33488e-05
5.45309e-05
6.0858e-05
3.12134e-05
3.89154e-05
5.43366e-05
6.09798e-05
3.14584e-05
6.96663e-05
6.9688e-05
5.4528e-05
3.12152e-05
6.08542e-05
3.89146e-05
5.4333e-05
3.14603e-05
6.09788e-05
6.73298e-05
6.7337e-05
4.37536e-05
6.74031e-05
6.74106e-05
6.55107e-05
7.16253e-05
6.54351e-05
7.16633e-05
6.97137e-05
6.97478e-05
6.55108e-05
7.16274e-05
6.54341e-05
7.16658e-05
2.35457e-05
2.35484e-05
2.35492e-05
2.41446e-05
2.41429e-05
2.41489e-05
2.41471e-05
5.49451e-05
6.1109e-05
3.21882e-05
3.97474e-05
5.47832e-05
6.12026e-05
3.24247e-05
6.97172e-05
6.97501e-05
5.49456e-05
3.21904e-05
6.11123e-05
3.97543e-05
5.47823e-05
3.24279e-05
6.12109e-05
6.74559e-05
6.74638e-05
4.43853e-05
6.75088e-05
6.75166e-05
6.5742e-05
7.17263e-05
6.56377e-05
7.17634e-05
6.97901e-05
6.98137e-05
6.57399e-05
7.1728e-05
6.56384e-05
7.17648e-05
2.43444e-05
2.43508e-05
2.4348e-05
2.49618e-05
2.49607e-05
2.49652e-05
2.49647e-05
5.53663e-05
6.13752e-05
3.31255e-05
4.05758e-05
5.51827e-05
6.15024e-05
3.33614e-05
6.97894e-05
6.9814e-05
5.53644e-05
3.3131e-05
6.13778e-05
4.05795e-05
5.51837e-05
3.33663e-05
6.14982e-05
6.76519e-05
6.76597e-05
4.50615e-05
6.77382e-05
6.77457e-05
6.5922e-05
7.18011e-05
6.58545e-05
7.18353e-05
6.98388e-05
6.98687e-05
6.59226e-05
7.18034e-05
6.58529e-05
7.18374e-05
2.51656e-05
2.51695e-05
2.51702e-05
2.57696e-05
2.57704e-05
2.57733e-05
2.57745e-05
5.57582e-05
6.16296e-05
3.40701e-05
4.1364e-05
5.56096e-05
6.17085e-05
3.42988e-05
6.984e-05
6.98676e-05
5.57574e-05
3.40723e-05
6.16313e-05
4.13674e-05
5.56068e-05
3.43016e-05
6.17116e-05
6.77957e-05
6.78037e-05
4.56595e-05
6.78225e-05
6.78307e-05
6.61225e-05
7.18938e-05
6.60314e-05
7.19338e-05
6.99103e-05
6.99421e-05
6.61183e-05
7.18951e-05
6.60292e-05
7.19358e-05
2.59706e-05
2.59728e-05
2.59727e-05
2.65822e-05
2.65812e-05
2.65833e-05
2.65828e-05
5.6122e-05
6.18462e-05
3.49656e-05
4.21098e-05
5.59633e-05
6.19535e-05
3.51864e-05
6.99108e-05
6.99478e-05
5.61165e-05
3.49673e-05
6.18364e-05
4.2104e-05
5.59606e-05
3.51869e-05
6.19471e-05
6.79139e-05
6.79208e-05
4.62341e-05
6.8006e-05
6.80129e-05
6.63189e-05
7.19872e-05
6.62352e-05
7.20292e-05
6.99823e-05
7.00135e-05
6.63239e-05
7.19904e-05
6.62372e-05
7.20315e-05
2.67857e-05
2.67903e-05
2.67883e-05
2.74035e-05
1.97381e-05
2.74092e-05
1.27389e-05
5.65061e-05
6.20956e-05
3.58514e-05
4.286e-05
5.63493e-05
6.22025e-05
3.60717e-05
6.99874e-05
7.00116e-05
5.65123e-05
3.58543e-05
6.21123e-05
4.28699e-05
5.63503e-05
3.60772e-05
6.22189e-05
6.81134e-05
6.81224e-05
4.68547e-05
6.81746e-05
6.81841e-05
6.95671e-05
6.95693e-05
4.23357e-05
6.70451e-05
6.70522e-05
6.95924e-05
6.95684e-05
6.95945e-05
6.95706e-05
4.24966e-05
6.70979e-05
6.71055e-05
6.7054e-05
6.70615e-05
6.48604e-05
7.14046e-05
5.36131e-05
3.71393e-05
6.04099e-05
2.95041e-05
5.36108e-05
3.71329e-05
6.03931e-05
2.95031e-05
6.48799e-05
7.14463e-05
7.14153e-05
6.49713e-05
6.48775e-05
7.14449e-05
7.14107e-05
6.49692e-05
5.36538e-05
3.73668e-05
6.05335e-05
2.99978e-05
6.04314e-05
2.97519e-05
5.38451e-05
5.36513e-05
3.73571e-05
6.05265e-05
2.99944e-05
6.04152e-05
2.97494e-05
5.38424e-05
4.23246e-05
6.70269e-05
6.70259e-05
6.95659e-05
6.95963e-05
6.95686e-05
4.24836e-05
6.71029e-05
6.71022e-05
6.70389e-05
6.70376e-05
6.95961e-05
6.95683e-05
3.7135e-05
6.04121e-05
2.95035e-05
7.14082e-05
3.71382e-05
2.95043e-05
6.04066e-05
6.4881e-05
7.14482e-05
7.14179e-05
6.49724e-05
5.36536e-05
3.73625e-05
6.05364e-05
2.99979e-05
6.0434e-05
2.97517e-05
5.38467e-05
6.48778e-05
7.14446e-05
7.14137e-05
6.49694e-05
5.36515e-05
3.73657e-05
2.99987e-05
6.05341e-05
2.97525e-05
6.04291e-05
5.38448e-05
6.48612e-05
7.14078e-05
6.47628e-05
5.36125e-05
2.92599e-05
5.27386e-05
3.71388e-05
2.95073e-05
6.04017e-05
4.59737e-05
6.48604e-05
7.13737e-05
7.14067e-05
6.47614e-05
5.3653e-05
3.73579e-05
6.05302e-05
2.99967e-05
6.04186e-05
2.9752e-05
5.38435e-05
6.48782e-05
7.14485e-05
7.14138e-05
6.49704e-05
5.36527e-05
3.73651e-05
2.99996e-05
6.05309e-05
2.97543e-05
6.04234e-05
5.38433e-05
6.48774e-05
7.14452e-05
7.14124e-05
6.49695e-05
4.23371e-05
6.70486e-05
6.70467e-05
6.95684e-05
6.95948e-05
6.95709e-05
4.24982e-05
6.71057e-05
6.71044e-05
6.70586e-05
6.70567e-05
6.9594e-05
6.95699e-05
5.36118e-05
2.92593e-05
5.274e-05
3.71349e-05
2.95068e-05
6.04046e-05
4.59718e-05
6.4861e-05
7.14109e-05
6.47582e-05
6.48614e-05
7.13758e-05
7.1409e-05
6.47589e-05
5.36534e-05
3.73667e-05
3.00018e-05
6.05367e-05
2.97554e-05
6.04315e-05
5.38458e-05
5.36527e-05
3.73615e-05
3.00001e-05
6.05345e-05
2.97539e-05
6.04265e-05
5.3845e-05
6.48786e-05
7.14477e-05
7.14164e-05
6.49706e-05
6.48788e-05
7.14469e-05
7.14147e-05
6.4971e-05
6.95447e-05
6.95668e-05
6.95475e-05
6.95696e-05
4.24933e-05
6.71007e-05
6.71091e-05
6.70444e-05
6.70529e-05
6.95944e-05
6.95686e-05
6.9597e-05
6.95715e-05
6.95956e-05
6.9629e-05
6.95976e-05
6.96311e-05
6.71082e-05
6.71154e-05
4.30197e-05
6.71833e-05
6.71891e-05
6.96648e-05
6.96333e-05
6.96668e-05
6.96354e-05
4.31827e-05
6.73188e-05
6.7325e-05
6.72044e-05
6.72104e-05
6.50755e-05
7.14518e-05
6.49849e-05
7.14921e-05
5.4066e-05
6.05529e-05
3.02418e-05
3.80224e-05
5.38832e-05
6.06629e-05
3.04834e-05
5.40648e-05
6.05488e-05
3.02384e-05
3.80203e-05
5.38807e-05
6.06688e-05
3.04809e-05
6.50936e-05
7.15456e-05
7.15012e-05
6.5196e-05
6.50928e-05
7.1542e-05
7.15001e-05
6.5195e-05
5.41042e-05
3.82434e-05
6.08279e-05
3.09668e-05
6.06881e-05
3.07251e-05
5.42945e-05
5.41033e-05
3.82437e-05
6.08281e-05
3.0966e-05
6.06943e-05
3.07235e-05
5.42937e-05
6.71171e-05
6.71164e-05
4.30259e-05
6.72005e-05
6.72016e-05
6.95995e-05
6.96312e-05
6.96636e-05
6.9635e-05
4.3191e-05
6.73183e-05
6.73175e-05
6.72206e-05
6.72201e-05
6.96631e-05
6.96347e-05
5.40655e-05
6.05554e-05
3.02424e-05
3.80189e-05
5.38847e-05
6.06641e-05
3.04839e-05
6.50713e-05
7.1451e-05
6.49845e-05
7.14904e-05
5.40638e-05
3.02434e-05
6.05538e-05
3.80243e-05
5.38827e-05
3.04852e-05
6.06636e-05
6.50911e-05
7.15475e-05
7.15028e-05
6.51934e-05
5.41032e-05
3.82392e-05
6.08289e-05
3.09666e-05
6.06892e-05
3.07251e-05
5.42919e-05
6.50882e-05
7.15421e-05
7.14985e-05
6.51903e-05
5.41015e-05
3.8245e-05
3.09682e-05
6.08242e-05
3.07266e-05
6.06884e-05
5.42901e-05
6.50784e-05
7.14555e-05
6.49864e-05
7.14959e-05
5.40662e-05
3.02436e-05
6.05519e-05
3.80253e-05
5.38814e-05
3.04859e-05
6.06661e-05
6.50768e-05
7.14519e-05
6.49854e-05
7.14913e-05
5.41059e-05
3.82449e-05
6.08324e-05
3.09687e-05
6.06988e-05
3.0726e-05
5.42966e-05
6.50958e-05
7.15455e-05
7.15038e-05
6.51972e-05
5.41045e-05
3.82461e-05
3.09701e-05
6.08244e-05
3.0728e-05
6.06908e-05
5.42949e-05
6.5094e-05
7.15423e-05
7.14993e-05
6.51954e-05
6.71161e-05
6.71151e-05
4.30255e-05
6.71908e-05
6.71905e-05
6.9597e-05
6.96293e-05
6.96643e-05
6.96341e-05
4.3188e-05
6.73172e-05
6.73158e-05
6.72108e-05
6.72101e-05
6.96635e-05
6.96332e-05
5.40657e-05
3.02443e-05
6.05552e-05
3.80219e-05
5.38832e-05
3.04867e-05
6.06684e-05
6.50745e-05
7.14541e-05
6.49861e-05
7.14935e-05
6.5075e-05
7.14534e-05
6.49865e-05
7.14925e-05
5.41044e-05
3.82463e-05
3.09716e-05
6.08277e-05
3.07296e-05
6.06922e-05
5.42928e-05
5.41038e-05
3.82427e-05
3.09704e-05
6.0826e-05
3.07284e-05
6.06928e-05
5.42923e-05
6.50915e-05
7.15448e-05
7.15016e-05
6.51924e-05
6.5092e-05
7.15439e-05
7.15006e-05
6.51929e-05
6.95976e-05
6.96294e-05
6.96002e-05
6.96318e-05
4.31878e-05
6.73107e-05
6.73178e-05
6.72087e-05
6.72156e-05
6.96638e-05
6.96331e-05
6.96664e-05
6.96356e-05
6.96668e-05
6.9687e-05
6.96688e-05
6.96891e-05
6.73387e-05
6.73446e-05
4.37534e-05
6.74064e-05
6.74126e-05
6.97106e-05
6.96882e-05
6.97128e-05
6.96902e-05
4.39059e-05
6.74469e-05
6.74532e-05
6.74143e-05
6.74204e-05
6.53186e-05
7.15491e-05
6.52144e-05
7.15825e-05
5.45311e-05
6.08555e-05
3.12113e-05
3.89167e-05
5.4335e-05
6.09843e-05
3.14569e-05
5.45293e-05
6.08539e-05
3.12105e-05
3.8914e-05
5.43341e-05
6.09757e-05
3.14557e-05
6.53374e-05
7.16194e-05
7.15918e-05
6.54221e-05
6.53354e-05
7.16159e-05
7.15876e-05
6.54202e-05
5.457e-05
3.9135e-05
6.10953e-05
3.19474e-05
6.10046e-05
3.17034e-05
5.47493e-05
5.45681e-05
3.91305e-05
6.10883e-05
3.19453e-05
6.0996e-05
3.17016e-05
5.4747e-05
6.73359e-05
6.73339e-05
4.37516e-05
6.73994e-05
6.73995e-05
6.9665e-05
6.9686e-05
6.97109e-05
6.96875e-05
4.39024e-05
6.74455e-05
6.74451e-05
6.74082e-05
6.74078e-05
6.97107e-05
6.96874e-05
5.45291e-05
6.08565e-05
3.12107e-05
3.89128e-05
5.43324e-05
6.09854e-05
3.14561e-05
6.53156e-05
7.15493e-05
6.521e-05
7.15834e-05
5.45267e-05
3.12121e-05
6.08509e-05
3.89133e-05
5.43303e-05
3.14571e-05
6.09759e-05
6.53361e-05
7.16214e-05
7.15937e-05
6.54209e-05
5.45681e-05
3.91305e-05
6.10965e-05
3.19464e-05
6.10057e-05
3.17025e-05
5.4748e-05
6.53326e-05
7.1618e-05
7.15886e-05
6.54177e-05
5.45655e-05
3.91296e-05
3.19465e-05
6.10912e-05
3.17029e-05
6.09963e-05
5.47456e-05
6.53196e-05
7.15525e-05
6.52163e-05
7.1586e-05
5.45298e-05
3.12144e-05
6.08511e-05
3.89168e-05
5.43349e-05
3.14594e-05
6.0979e-05
6.53184e-05
7.15496e-05
6.52145e-05
7.15847e-05
5.45695e-05
3.91319e-05
6.10925e-05
3.19476e-05
6.09998e-05
3.17041e-05
5.4749e-05
6.53365e-05
7.16196e-05
7.15911e-05
6.54225e-05
5.45684e-05
3.91348e-05
3.19495e-05
6.1095e-05
3.17055e-05
6.10002e-05
5.47486e-05
6.53354e-05
7.16178e-05
7.15899e-05
6.54217e-05
6.73348e-05
6.73332e-05
4.37479e-05
6.74017e-05
6.74002e-05
6.96655e-05
6.96874e-05
6.9714e-05
6.96895e-05
4.38994e-05
6.7452e-05
6.74504e-05
6.74104e-05
6.74088e-05
6.97133e-05
6.96889e-05
5.45276e-05
3.1214e-05
6.08527e-05
3.89128e-05
5.43325e-05
3.14591e-05
6.09812e-05
6.53163e-05
7.15519e-05
6.52119e-05
7.15864e-05
6.53171e-05
7.15513e-05
6.52123e-05
7.15865e-05
5.4567e-05
3.9131e-05
3.19495e-05
6.10947e-05
3.17055e-05
6.09993e-05
5.47477e-05
5.45667e-05
3.91312e-05
3.19489e-05
6.10976e-05
3.17047e-05
6.10024e-05
5.47476e-05
6.53336e-05
7.16213e-05
7.15916e-05
6.54204e-05
6.53343e-05
7.16196e-05
7.15917e-05
6.54212e-05
6.9666e-05
6.96877e-05
6.96687e-05
6.96904e-05
4.39063e-05
6.74492e-05
6.74572e-05
6.74123e-05
6.74199e-05
6.97107e-05
6.96889e-05
6.97135e-05
6.96916e-05
6.97137e-05
6.97475e-05
6.97159e-05
6.97498e-05
6.74541e-05
6.74604e-05
4.43861e-05
6.75146e-05
6.75217e-05
6.97865e-05
6.97522e-05
6.97886e-05
6.97544e-05
4.45343e-05
6.76405e-05
6.7648e-05
6.75329e-05
6.75402e-05
6.55089e-05
7.16218e-05
6.54332e-05
7.16598e-05
5.49444e-05
6.11112e-05
3.21885e-05
3.9752e-05
5.47833e-05
6.1203e-05
3.24248e-05
5.49423e-05
6.11049e-05
3.21859e-05
3.97456e-05
5.47812e-05
6.11975e-05
3.24221e-05
6.55255e-05
7.17183e-05
7.16718e-05
6.56188e-05
6.55237e-05
7.17153e-05
7.16684e-05
6.5617e-05
5.49777e-05
3.99556e-05
6.13507e-05
3.28912e-05
6.12247e-05
3.26588e-05
5.51466e-05
5.49757e-05
3.99488e-05
6.13453e-05
3.28883e-05
6.12194e-05
3.26559e-05
5.51446e-05
6.74532e-05
6.7453e-05
4.4381e-05
6.75117e-05
6.75133e-05
6.97138e-05
6.97472e-05
6.97875e-05
6.97525e-05
4.45292e-05
6.76394e-05
6.76381e-05
6.7532e-05
6.75308e-05
6.9787e-05
6.9752e-05
5.49442e-05
6.11124e-05
3.21874e-05
3.97481e-05
5.47822e-05
6.12047e-05
3.24238e-05
6.55081e-05
7.16242e-05
6.5431e-05
7.16628e-05
5.49426e-05
3.21878e-05
6.11087e-05
3.97527e-05
5.47798e-05
3.24247e-05
6.12071e-05
6.55259e-05
7.17202e-05
7.16743e-05
6.56198e-05
5.49778e-05
3.99516e-05
6.1353e-05
3.28912e-05
6.12266e-05
3.26582e-05
5.51477e-05
6.55233e-05
7.17152e-05
7.1671e-05
6.5617e-05
5.49762e-05
3.99574e-05
3.28932e-05
6.1351e-05
3.26598e-05
6.12291e-05
5.51462e-05
6.55116e-05
7.16255e-05
6.54357e-05
7.16635e-05
5.49445e-05
3.21905e-05
6.11111e-05
3.97528e-05
5.47828e-05
3.24273e-05
6.12e-05
6.55103e-05
7.16233e-05
6.54349e-05
7.16596e-05
5.49782e-05
3.99508e-05
6.13491e-05
3.28913e-05
6.1224e-05
3.26586e-05
5.51461e-05
6.5526e-05
7.17186e-05
7.16719e-05
6.56176e-05
5.49774e-05
3.99545e-05
3.28935e-05
6.13416e-05
3.26611e-05
6.12205e-05
5.51447e-05
6.55247e-05
7.17148e-05
7.16678e-05
6.56158e-05
6.74617e-05
6.74601e-05
4.43928e-05
6.75302e-05
6.75286e-05
6.97165e-05
6.97492e-05
6.97866e-05
6.97542e-05
4.4542e-05
6.7642e-05
6.76383e-05
6.75474e-05
6.75455e-05
6.97856e-05
6.97533e-05
5.49446e-05
3.21899e-05
6.11137e-05
3.97488e-05
5.47821e-05
3.24269e-05
6.12029e-05
6.5511e-05
7.16275e-05
6.5434e-05
7.16655e-05
6.55108e-05
7.16253e-05
6.54345e-05
7.16616e-05
5.49792e-05
3.99597e-05
3.28965e-05
6.13534e-05
3.2663e-05
6.12328e-05
5.51472e-05
5.49779e-05
3.99517e-05
3.28939e-05
6.13445e-05
3.26611e-05
6.12233e-05
5.51454e-05
6.55258e-05
7.17178e-05
7.16736e-05
6.56169e-05
6.55254e-05
7.17164e-05
7.16698e-05
6.56164e-05
6.97135e-05
6.97459e-05
6.97163e-05
6.97487e-05
4.45318e-05
6.76294e-05
6.76373e-05
6.75247e-05
6.75325e-05
6.97873e-05
6.97507e-05
6.979e-05
6.97534e-05
6.97892e-05
6.98124e-05
6.97912e-05
6.98144e-05
6.76605e-05
6.76677e-05
4.50602e-05
6.77334e-05
6.77399e-05
6.98354e-05
6.98138e-05
6.98377e-05
6.98158e-05
4.52048e-05
6.77777e-05
6.77842e-05
6.77426e-05
6.7749e-05
6.57407e-05
7.17235e-05
6.5636e-05
7.17611e-05
5.53673e-05
6.13767e-05
3.31258e-05
4.05792e-05
5.51836e-05
6.15021e-05
3.33618e-05
5.53656e-05
6.13717e-05
3.3123e-05
4.0574e-05
5.51817e-05
6.14984e-05
3.33592e-05
6.57591e-05
7.17958e-05
7.17686e-05
6.58425e-05
6.57578e-05
7.17933e-05
7.17664e-05
6.58413e-05
5.54043e-05
4.07851e-05
6.16122e-05
3.38363e-05
6.15225e-05
3.36e-05
5.55752e-05
5.54028e-05
4.07803e-05
6.16098e-05
3.38341e-05
6.15192e-05
3.35976e-05
5.55738e-05
6.76617e-05
6.76589e-05
4.50585e-05
6.77344e-05
6.77347e-05
6.97899e-05
6.98137e-05
6.98366e-05
6.98148e-05
4.52037e-05
6.77802e-05
6.77807e-05
6.77445e-05
6.77443e-05
6.98364e-05
6.9815e-05
5.53663e-05
6.13789e-05
3.31261e-05
4.05756e-05
5.51845e-05
6.15033e-05
3.33622e-05
6.57365e-05
7.17229e-05
6.56355e-05
7.17599e-05
5.53641e-05
3.3128e-05
6.13755e-05
4.0579e-05
5.51828e-05
3.3364e-05
6.14958e-05
6.57567e-05
7.1798e-05
7.17701e-05
6.58403e-05
5.54028e-05
4.07811e-05
6.1613e-05
3.38355e-05
6.15234e-05
3.35997e-05
5.55726e-05
6.57532e-05
7.17948e-05
7.17655e-05
6.58372e-05
5.54005e-05
4.07827e-05
3.38366e-05
6.16113e-05
3.36008e-05
6.15164e-05
5.55704e-05
6.57414e-05
7.17268e-05
6.56363e-05
7.1765e-05
5.5365e-05
3.31271e-05
6.1368e-05
4.05776e-05
5.51811e-05
3.33628e-05
6.14999e-05
6.574e-05
7.17234e-05
6.56345e-05
7.1764e-05
5.54036e-05
4.0782e-05
6.1615e-05
3.38361e-05
6.15231e-05
3.35995e-05
5.55774e-05
6.5759e-05
7.17976e-05
7.17704e-05
6.58459e-05
5.54024e-05
4.07851e-05
3.38381e-05
6.16212e-05
3.36008e-05
6.15224e-05
5.55772e-05
6.57578e-05
7.17966e-05
7.17697e-05
6.58455e-05
6.76594e-05
6.76551e-05
4.506e-05
6.77332e-05
6.77304e-05
6.97884e-05
6.98133e-05
6.98379e-05
6.98157e-05
4.5205e-05
6.77884e-05
6.77865e-05
6.77438e-05
6.77411e-05
6.9837e-05
6.9815e-05
5.53638e-05
3.31278e-05
6.13707e-05
4.05734e-05
5.51819e-05
3.33634e-05
6.15021e-05
6.57371e-05
7.17256e-05
6.56352e-05
7.17633e-05
6.5738e-05
7.1725e-05
6.56348e-05
7.17655e-05
5.54014e-05
4.07852e-05
3.38389e-05
6.16153e-05
3.3603e-05
6.1519e-05
5.55742e-05
5.5401e-05
4.07825e-05
3.38378e-05
6.16235e-05
3.36009e-05
6.15245e-05
5.55749e-05
6.57545e-05
7.17982e-05
7.1769e-05
6.58419e-05