/*--------------------------------*- C++ -*----------------------------------*\
| =========                 |                                                 |
| \\      /  F ield         | OpenFOAM: The Open Source CFD Toolbox           |
|  \\    /   O peration     | Version:  v2006                                 |
|   \\  /    A nd           | Website:  www.openfoam.com                      |
|    \\/     M anipulation  |                                                 |
\*---------------------------------------------------------------------------*/
FoamFile
{
    version     2.0;
    format      ascii;
    class       surfaceScalarField;
    location    "875";
    object      phi;
}
// * * * * * * * * * * * * * * * * * * * * * * * * * * * * * * * * * * * * * //

dimensions      [0 3 -1 0 0 0 0];
oriented        oriented;


internalField   nonuniform List<scalar> 
40825
(
7.6812e-10
-2.70743e-08
1.294e-09
1.55381e-07
0.000249612
-0.000249742
-1.56718e-08
1.19462e-07
9.65808e-07
-7.77057e-07
-9.58308e-07
7.81992e-07
2.20467e-08
-0.00115791
-2.7376e-08
5.32609e-10
1.53086e-07
0.000249589
-0.000249714
1.07745e-07
9.65052e-07
-7.77192e-07
-9.55657e-07
7.81756e-07
-0.00115774
7.35808e-10
2.14958e-10
-8.22474e-09
0.000228275
-0.000228295
1.4649e-09
-6.35227e-09
0.000228236
-0.000228258
-2.294e-08
2.63827e-10
-0.000142389
3.87679e-10
0.000222237
-1.12845e-08
2.77825e-08
3.60607e-10
-0.000222254
0.000169929
8.73839e-10
3.06508e-10
-0.000169938
1.00389e-09
2.19465e-08
7.71827e-10
-4.78029e-08
-5.01074e-08
2.34153e-09
1.71249e-10
2.34358e-10
-0.0001424
-1.87201e-08
2.8367e-11
-0.000142321
3.59901e-10
0.000222141
-7.62443e-09
1.43149e-09
2.85086e-08
-0.000222162
0.000169896
1.4065e-09
-0.000169903
2.3998e-09
1.97735e-08
-4.76068e-08
3.20864e-09
-4.96912e-08
7.60036e-10
-0.000142328
-1.60341e-08
-7.86568e-05
0.000261549
-9.69806e-09
2.56878e-08
-0.000261566
-4.48895e-08
-7.86657e-05
-4.05585e-08
-5.42169e-08
2.20878e-07
-0.00122019
1.17967e-07
-0.00122066
1.71153e-07
0.000248909
-2.47252e-10
-0.00024905
-0.000265755
-1.53052e-10
1.94055e-07
-2.33411e-10
3.60082e-09
0.000266064
-5.43237e-09
-0.000266684
-1.77096e-07
1.35631e-09
1.41914e-09
1.15929e-09
-0.000266539
6.91022e-09
3.20634e-09
1.71644e-07
0.000248826
-1.27304e-09
-0.000248967
-0.000265693
-4.46171e-09
1.91099e-07
1.44451e-08
-3.43242e-09
0.000266058
-0.000266684
-1.74335e-07
3.42387e-09
-1.80157e-08
-0.000266462
4.92378e-09
1.57326e-07
0.000249798
-0.000249927
-0.000263814
1.78202e-07
-0.00026452
-3.5283e-09
9.99783e-09
1.91337e-08
0.000276683
-8.56244e-09
-0.0002767
4.32049e-09
9.73133e-05
-9.73211e-05
-1.85409e-08
2.67518e-09
8.48083e-08
0.000244383
-0.000244442
0.000192352
-1.89062e-09
-0.000192365
1.86081e-08
-4.25282e-09
0.0001923
-1.97799e-09
-0.000192313
-1.20562e-06
-2.04405e-07
2.30225e-07
1.22522e-06
-2.2611e-07
2.44313e-07
4.54936e-08
0.00113613
4.44391e-08
8.82011e-07
-8.55755e-07
-0.00113631
-1.02621e-08
7.74954e-08
0.000244306
5.2823e-09
-0.00024436
3.6476e-09
9.73006e-05
-9.73085e-05
1.25283e-06
-2.08688e-07
0.000268543
-2.1636e-07
-0.000270576
1.21938e-08
0.000276578
-6.32722e-09
-0.000276591
8.71868e-07
-2.06847e-07
2.11567e-07
-8.61333e-07
-2.36299e-07
1.25168e-06
2.3101e-07
4.02695e-08
-0.00113549
-0.000220953
2.15396e-08
-1.91111e-08
1.40888e-08
-4.41511e-08
0.000220981
-2.03545e-08
0.000249975
3.00643e-08
5.3268e-08
-0.000250019
6.76976e-09
-3.22377e-08
1.38439e-08
-1.20172e-08
9.22964e-09
0.000181945
-4.70526e-09
-0.000181958
-9.47061e-09
2.64962e-08
-0.000220981
6.18591e-09
0.000181967
-2.36742e-08
-6.69742e-08
-3.98809e-09
-1.83918e-08
-7.87e-05
1.00018e-09
-3.18361e-08
0.000261674
-1.12673e-08
2.45989e-08
-0.000261689
-4.55768e-08
-7.87111e-05
4.10172e-09
-3.39643e-08
0.000192329
1.24806e-09
-1.36908e-08
9.73184e-05
-0.000212562
6.77729e-09
6.75399e-09
-2.07164e-08
0.000212583
3.43745e-09
8.00414e-05
-8.00496e-05
3.38665e-09
8.00272e-05
2.87837e-09
-8.00335e-05
7.28339e-09
-0.000212572
-7.82776e-09
8.00418e-05
8.00544e-05
-2.93155e-08
-0.000220882
2.40952e-08
-4.94192e-08
0.000220916
0.000249834
-1.53164e-08
2.78136e-08
5.26724e-08
-0.000249887
-3.96665e-08
8.98017e-09
-1.42057e-08
0.000276609
6.53428e-09
0.00018189
-0.0001819
-3.35249e-08
-8.79044e-08
0.000249887
2.61931e-08
-0.00022091
0.000181915
1.53806e-07
0.000249888
-0.000250015
5.725e-09
-0.000263864
1.76699e-07
0.000259948
7.74379e-09
-0.000260048
-9.62866e-08
-7.98417e-09
-0.000264563
0.00025988
1.35293e-08
-0.000259992
-1.03764e-07
0.000244372
-1.03197e-08
0.000259988
-1.56024e-08
-1.13637e-07
-0.000242274
-1.00709e-07
0.000242395
-9.06306e-08
0.000260669
-0.00026097
2.33113e-07
2.3598e-07
0.000261067
-8.6157e-08
-0.000261371
0.000261343
-0.000242398
1.84661e-07
-0.00119055
2.06315e-10
-5.35073e-08
2.24561e-08
1.30959e-09
-0.000228245
-5.11943e-08
1.76987e-09
2.26031e-08
-0.000228286
-3.91054e-10
2.81424e-09
-1.78045e-07
-0.000249617
-8.24439e-08
-9.56741e-07
7.85756e-07
-7.72648e-07
9.6661e-07
-0.00115788
-3.34551e-08
-2.74012e-09
-0.000192317
-9.84661e-10
-1.77898e-07
-0.000249585
-1.37856e-08
-1.14924e-07
-0.00024432
2.39431e-07
-8.47163e-07
2.67435e-07
-1.88027e-07
8.92625e-07
-2.03864e-07
-9.51185e-07
7.88226e-07
-7.72636e-07
9.74273e-07
-0.00115766
-1.39612e-09
6.85964e-09
0.000142332
1.06672e-09
-0.000142339
-0.000169908
3.50581e-10
-2.42672e-10
-0.00022215
1.90587e-08
3.49715e-09
-5.54304e-08
-7.54604e-09
4.50089e-10
5.83388e-10
2.59969e-08
-0.000228264
-1.71269e-10
-0.000169917
1.20064e-09
2.71184e-08
-0.000222171
8.10135e-10
1.15361e-08
7.87087e-05
-5.11451e-10
-7.87198e-05
-0.000261691
1.61985e-08
-3.05709e-09
-4.58107e-08
-1.04753e-09
2.4322e-08
-0.000261705
-4.81075e-10
8.89412e-09
-1.29474e-09
0.000142402
-0.00014241
-0.000222249
1.93866e-08
-5.08502e-08
-0.000169942
-1.78152e-10
1.28104e-09
-7.57851e-09
2.60096e-08
-0.000228305
2.71104e-08
-0.000222267
-0.000169951
9.59257e-09
7.86648e-05
-7.86733e-05
-0.000261566
1.57364e-08
-4.74482e-08
-3.09521e-09
-3.49014e-09
1.87245e-08
2.46281e-08
-0.000261583
4.28864e-09
-5.81978e-09
-1.20612e-09
6.38037e-09
1.50667e-08
3.97928e-09
-4.7594e-09
4.55649e-09
1.41872e-08
2.00923e-08
-1.9893e-09
-3.39728e-09
-1.65374e-09
1.90316e-08
5.49651e-09
-1.26351e-08
3.47988e-08
-1.55527e-07
0.000263867
4.37996e-10
-0.000264565
-0.000249899
-1.79466e-07
-4.3155e-09
-7.28571e-10
-0.000250028
-3.45046e-09
-1.72481e-07
-2.90427e-09
0.00026575
-0.000266531
-0.000248907
-1.97359e-07
-0.000266068
2.35741e-09
1.37181e-09
1.70322e-09
1.53921e-07
-2.87772e-09
-0.000249743
-0.000249051
-1.09534e-08
-0.000266679
7.79626e-09
-1.67283e-07
0.000265688
-2.03211e-08
-0.00026646
-0.000248831
-1.97225e-07
1.44634e-09
-0.000266038
-4.68417e-09
1.51359e-07
-1.75038e-09
-0.000249711
-0.000266662
-1.49298e-10
-0.000248973
-3.73434e-10
-1.48327e-07
-8.46221e-09
0.000263799
-0.00026451
-0.000249811
-1.83815e-07
-0.000259879
-1.62168e-08
2.22909e-09
7.27493e-08
-0.000249932
5.58761e-08
1.29088e-06
-2.43177e-07
-2.7128e-07
1.31205e-06
0.000269495
-2.6159e-07
8.61328e-07
2.19542e-07
0.00113974
4.06889e-07
1.26664e-06
2.46771e-07
5.59498e-08
-2.77492e-07
-9.14715e-07
1.00851e-08
4.56546e-09
9.7096e-05
2.82903e-08
-5.68537e-09
9.5897e-09
0.000276418
-2.16408e-09
3.52294e-09
-2.187e-08
0.000192106
-0.000192086
-3.79437e-08
0.000261426
1.32098e-08
-0.000261399
-4.41811e-09
-1.11478e-08
9.71161e-05
-9.71014e-05
-5.65604e-08
-1.53452e-08
9.61484e-09
0.00027644
-0.000276389
-3.38352e-08
7.0397e-08
0.000250195
-1.91381e-07
-0.000250097
-2.17166e-09
7.36454e-08
3.19142e-08
0.000250162
1.17234e-08
0.000181675
9.7863e-10
3.40939e-09
0.000220904
7.87875e-08
-1.55859e-07
0.00026155
-2.00598e-07
-7.25341e-08
2.57957e-07
0.000261357
0.000242549
-4.87313e-08
1.67544e-07
4.14034e-09
0.000265204
-0.000264518
3.72442e-09
-8.24167e-09
-9.28742e-08
0.000244467
-0.000244403
0.000250235
-0.000250111
-3.3523e-09
0.00026046
-0.000260363
1.23124e-07
5.91009e-10
-1.60614e-07
-1.12845e-07
-0.00125083
-2.92212e-08
-1.60788e-07
-0.00125034
1.40771e-07
-0.00125065
-1.53764e-08
-0.00125058
-1.24747e-06
-2.47736e-07
-2.49923e-07
1.21825e-06
2.27922e-07
-9.00923e-07
8.53333e-07
1.98031e-07
9.3391e-08
0.00114017
2.14486e-07
-2.50402e-07
-1.41447e-07
-9.09355e-07
8.42344e-07
1.54607e-07
0.00114055
2.84328e-07
1.17501e-06
2.02801e-07
-1.2822e-06
6.59844e-08
-9.06427e-07
-2.58201e-07
1.25573e-06
2.3609e-07
-2.47919e-07
8.55848e-07
1.97877e-07
0.00113969
2.48829e-07
-2.37827e-07
-2.35557e-07
0.000269471
-3.82007e-08
-3.9766e-10
2.47455e-09
1.52994e-08
-0.000228318
0.000228339
0.000192069
-6.10868e-09
3.2898e-08
2.42895e-11
0.00022833
2.18589e-09
-1.43147e-08
4.27923e-08
4.59141e-09
9.93009e-09
9.70811e-05
-3.7215e-08
1.46761e-08
-1.07681e-07
0.000260384
-2.06387e-09
1.63874e-09
-1.60081e-07
-0.000250078
0.0002502
1.44968e-08
-1.10139e-07
0.000260383
-1.01622e-06
-1.62909e-08
-8.36046e-07
9.36929e-07
7.57734e-07
0.00116181
4.0301e-07
-1.04763e-08
-2.07524e-07
2.49916e-09
0.000266506
-4.06557e-08
1.73284e-08
2.04447e-09
-0.00022828
0.000228301
0.000192016
-6.04288e-09
3.30628e-08
0.000228295
-1.63231e-08
1.84004e-09
4.27127e-08
-1.60128e-07
1.10566e-09
-0.000250054
0.000250171
-1.01327e-06
-8.3602e-07
9.39791e-07
7.57803e-07
0.00116186
3.61589e-07
1.31417e-08
-1.4584e-08
-1.83019e-07
0.000264437
3.93282e-09
-2.07375e-07
0.000266445
2.85125e-08
0.00027632
-8.45577e-09
1.20583e-08
-7.71528e-09
3.0772e-08
0.000276437
-7.90845e-09
1.21681e-08
4.5046e-09
9.70959e-05
0.00019207
-6.01475e-09
3.07978e-08
1.36343e-08
-2.10765e-09
0.000142162
-0.000142174
1.24277e-09
-0.000222179
1.41476e-08
-4.04664e-08
4.09644e-09
0.000222204
-0.000169689
5.99854e-10
-7.2296e-11
0.000169704
1.98902e-09
-1.43697e-08
-0.000228348
-1.77214e-10
4.25844e-08
-0.000222211
4.57072e-08
2.34904e-09
-0.000169706
-6.7013e-11
6.82427e-10
0.000142176
-1.32771e-08
-7.85332e-05
-9.70398e-10
7.85475e-05
-2.10632e-09
-2.19461e-08
0.000192091
1.86157e-09
0.000261402
-1.3806e-08
-2.53964e-09
3.7698e-08
-4.44068e-09
-3.5556e-08
0.000261427
-1.47039e-09
-1.4014e-08
-8.18194e-10
-0.000142161
2.81395e-09
1.73789e-08
-2.34302e-10
-3.79979e-08
0.000222189
-1.3679e-08
4.34776e-08
0.000169689
2.24868e-09
-5.44218e-11
-3.77229e-08
-8.09993e-11
-3.52728e-09
-1.366e-08
9.70983e-05
-2.00041e-09
1.55799e-08
0.000142089
-0.000142103
1.16464e-09
-0.000169653
5.19956e-10
0.000169669
-0.000222084
1.61489e-08
-4.29199e-08
3.89652e-09
0.000222109
-1.63628e-08
1.77715e-09
-0.00022831
4.49373e-08
-0.000169671
-0.000222117
4.80588e-08
2.18632e-09
5.71945e-10
0.000142105
-1.33861e-08
-7.84889e-05
-8.45995e-10
7.85031e-05
-2.04893e-09
-2.42363e-08
0.000192039
0.000261274
-1.36964e-08
-2.38975e-09
3.99717e-08
-4.32461e-09
-3.8108e-08
0.000261301
-1.39861e-09
-7.06385e-10
-1.60272e-08
-0.000142088
1.94065e-08
2.41616e-09
-3.79665e-08
0.000169652
2.13281e-09
0.000222095
-1.56365e-08
4.58021e-08
-4.0155e-08
1.66822e-08
-1.76238e-08
-0.000220844
1.19666e-08
-4.01325e-08
0.000220873
0.00025001
-2.15948e-08
7.15219e-08
3.97536e-08
4.64108e-09
-2.45339e-08
-1.30989e-08
0.000276339
0.000181642
1.48873e-08
-6.03237e-09
3.65308e-09
0.00018166
-6.54096e-08
-2.41406e-08
0.000250057
-8.0678e-09
3.31704e-08
-1.76276e-08
1.8621e-08
-0.000220923
1.20148e-08
-4.00735e-08
0.00022095
0.000250178
-2.15453e-08
7.14417e-08
-2.68712e-08
4.21387e-09
1.13722e-08
-1.31618e-08
0.000276461
0.000181703
1.68091e-08
-5.96711e-09
-6.54358e-08
-2.16225e-08
0.00025022
3.70636e-09
0.000181722
-8.01547e-09
3.3087e-08
7.09046e-09
7.01362e-09
-0.000212356
0.000212365
7.98891e-05
4.32802e-09
7.99054e-05
4.3737e-09
7.98998e-05
7.99161e-05
-3.5376e-09
9.71108e-05
-1.54542e-08
-7.85319e-05
7.85484e-05
-1.05355e-09
-2.08482e-09
-2.20664e-08
0.00019209
0.000261407
-1.58361e-08
3.99093e-08
-2.30867e-09
-3.78667e-08
0.000261434
-6.41438e-09
-1.23706e-09
-1.04142e-07
0.000261271
-1.04287e-07
0.000261618
0.000242526
-1.04688e-07
-1.04832e-07
0.000242656
2.29536e-07
2.24589e-07
0.000271491
0.000261558
0.000261908
-1.82971e-07
0.000264523
2.1074e-08
3.37833e-09
0.000244415
0.000250117
3.35428e-09
1.50696e-09
1.65082e-07
0.000265216
-6.65357e-09
-8.35434e-08
-8.27821e-09
0.000244471
0.000260478
0.000250245
-8.19526e-09
-2.09228e-07
5.50498e-09
0.00026647
-0.000267258
1.01442e-06
-2.20712e-08
-0.000249262
-1.77317e-07
3.92164e-09
0.000249396
-0.000266869
-1.19744e-09
-6.76461e-09
-7.558e-07
0.000267473
-8.30655e-12
1.91743e-07
-0.000250227
-2.8321e-10
-0.000249423
-2.63671e-09
-0.000267508
1.44145e-09
8.34297e-07
-9.34973e-07
1.0566e-08
0.000267216
-1.85848e-07
0.000264534
3.09027e-09
0.000244401
0.000250113
5.85953e-10
1.59792e-07
1.91747e-09
-1.19776e-08
0.000265227
-8.47511e-09
-6.90686e-08
6.28255e-09
0.00024445
-6.1178e-09
0.000250235
6.93419e-09
0.000260464
1.40368e-09
1.90055e-07
0.00025011
1.03828e-09
0.000249289
0.000266905
2.68711e-09
1.74263e-07
-1.78644e-09
3.09273e-09
-1.57122e-07
-6.73539e-10
-3.66716e-09
4.00166e-09
-2.04002e-07
0.000266408
-0.000267205
1.0089e-06
-1.21533e-08
-0.000266856
-3.57354e-09
-7.58628e-07
0.000267452
-0.000249186
-1.77364e-07
3.62222e-09
0.000249318
1.91663e-07
2.0157e-11
-0.000250201
-0.000267491
8.31537e-07
-0.000249339
-2.87349e-09
-9.40589e-07
-2.72859e-09
0.000267171
-1.07803e-07
0.000260282
3.26164e-09
0.000244317
0.000250013
3.2124e-09
1.62548e-07
1.5894e-09
7.87657e-10
0.000265128
-8.34142e-09
-8.33954e-08
0.000244372
-5.89357e-09
0.000250135
0.000260374
1.90022e-07
6.017e-11
0.000250082
0.000266893
0.000249207
3.44125e-09
1.76833e-07
-1.59691e-07
1.44717e-09
2.11825e-08
-4.66952e-09
0.000192354
-1.83094e-09
-0.000192369
-1.01047e-08
8.25376e-08
0.000244395
4.64468e-09
-0.000244451
9.71481e-09
1.0162e-07
9.70946e-07
-7.76839e-07
-9.55134e-07
7.87637e-07
-0.00115775
-1.21163e-06
5.28393e-08
-7.26785e-09
0.00113624
-2.21998e-07
1.22859e-06
2.37913e-07
8.6924e-07
-2.07796e-07
2.174e-07
-8.57024e-07
-0.00113634
1.23557e-06
1.21567e-06
-2.1635e-07
-2.07446e-07
0.000268563
-0.00027059
5.81517e-09
9.73146e-05
-9.73251e-05
1.63731e-08
0.000276694
-8.63387e-09
-0.000276706
-1.24893e-06
4.23269e-08
0.00113573
-2.30251e-07
1.26315e-06
2.43284e-07
8.77236e-07
-2.10614e-07
2.20002e-07
-8.65087e-07
-0.00113585
2.60477e-08
-1.19316e-06
8.88856e-08
4.36159e-08
1.24814e-06
-2.18785e-07
2.45898e-07
8.85469e-07
-1.90801e-07
2.52314e-07
-8.5311e-07
-0.00113646
-2.09974e-07
-2.14859e-07
0.000268586
-0.000270621
5.02613e-08
3.37028e-08
0.00113538
-2.14841e-07
1.26823e-06
2.51095e-07
8.74096e-07
-1.91963e-07
2.24824e-07
-8.51782e-07
-0.00113558
3.63587e-08
-3.12684e-08
0.00113637
-2.40037e-07
1.21395e-06
2.31542e-07
8.66659e-07
-2.29044e-07
2.09216e-07
-8.69719e-07
-0.00113635
2.47287e-08
-5.06965e-10
1.40887e-09
0.000228277
-8.33989e-09
-0.000228295
-6.08233e-09
8.99755e-08
9.68818e-07
-7.7691e-07
-9.55462e-07
7.85022e-07
-0.00115797
-1.25441e-06
8.80015e-07
-2.01402e-07
-8.56058e-07
2.22709e-07
-4.78062e-08
-2.37641e-07
1.25863e-06
2.37641e-07
-0.00113555
-8.25251e-10
2.46349e-09
1.52733e-07
0.000249617
-0.000249747
2.45631e-08
0.000228238
-8.20817e-09
5.89198e-10
-0.000228255
1.55137e-07
0.00024959
-5.52933e-10
-0.000249721
-1.36477e-08
-0.000276674
-3.56871e-08
8.74076e-09
1.44799e-08
5.67162e-09
5.86799e-09
9.72844e-05
-9.7296e-05
-2.8529e-09
-1.66219e-08
-9.72923e-05
9.21466e-08
-6.55673e-08
-0.00122026
-0.00122039
1.26158e-07
6.17574e-08
0.00119045
-0.00119054
9.64774e-08
3.93287e-08
0.0011904
-0.00119045
4.6505e-08
-1.75639e-09
1.76646e-09
-1.75931e-07
-0.000249618
-8.58651e-09
-2.0931e-08
8.40111e-08
0.000244382
2.04825e-09
-0.000244439
0.00115793
-8.10854e-09
1.28733e-07
9.60176e-07
-7.78075e-07
7.82155e-07
-9.53966e-07
-0.00115807
-8.49947e-10
1.22765e-06
4.15973e-08
-8.55069e-07
2.18961e-07
-2.085e-07
8.70765e-07
-1.21149e-06
2.36143e-07
-2.22988e-07
1.08579e-08
3.11481e-08
-7.96903e-09
-0.00024439
-9.80431e-08
-2.5544e-09
1.15354e-07
-9.54717e-07
7.77937e-07
-7.76249e-07
9.58924e-07
-2.9313e-08
9.38132e-10
0.000249625
2.5872e-09
1.58399e-07
-0.000249758
3.16346e-08
-0.000244381
-7.80097e-09
-9.85847e-08
4.94513e-10
4.93541e-08
-0.000249616
1.77362e-13
-1.76188e-07
-7.50651e-10
-2.90024e-08
5.52793e-10
0.000249624
1.60619e-07
-0.000249756
8.23571e-09
-4.36804e-09
7.91682e-09
0.000276619
-4.37685e-09
-0.000276626
1.50661e-08
-6.56191e-09
3.156e-08
0.000276554
-1.15979e-08
-0.000276582
-1.26238e-06
-1.21975e-06
-0.000268547
2.35213e-07
2.37999e-07
-1.33961e-08
1.4063e-08
6.67227e-09
-0.000276641
-3.66343e-08
-1.38752e-08
1.39286e-08
4.49035e-09
-0.000276558
-3.65398e-08
3.302e-09
4.89149e-09
9.73149e-05
-9.73231e-05
-1.97136e-07
0.000268547
-2.07408e-07
-0.00027059
1.08353e-08
4.90405e-09
-5.77144e-09
0.000276616
-0.000276623
2.30948e-08
0.000192283
-1.50976e-09
-0.000192299
-3.3338e-08
2.15404e-09
-0.000192295
-8.64059e-09
8.40204e-08
0.000244285
4.53314e-09
-0.000244342
1.25935e-06
3.07716e-08
-8.63069e-07
2.21696e-07
8.78861e-07
-2.08456e-07
-1.24626e-06
2.38653e-07
-2.28647e-07
1.60079e-08
1.2955e-08
-7.691e-09
-0.000244295
-9.80779e-08
7.52032e-11
2.73679e-08
-8.56051e-09
7.77237e-10
0.000228275
-0.000228295
1.88572e-08
-1.43795e-09
0.000192363
-0.000192376
2.73294e-08
-8.54562e-09
6.34336e-10
0.000228238
-0.000228257
1.54267e-09
1.37114e-09
1.55364e-07
0.000249615
-0.000249746
7.30135e-08
2.75767e-09
0.000244368
-0.000244414
1.79999e-08
9.01112e-08
9.71343e-07
-7.76992e-07
-9.5548e-07
7.87715e-07
-0.00115793
9.91161e-10
1.55316e-07
0.00024959
-0.000249717
7.87935e-08
9.74205e-07
-7.76901e-07
-9.57981e-07
7.87842e-07
-0.00115795
1.85031e-08
0.000276543
-1.16044e-08
-0.000276552
-3.80746e-09
1.63296e-08
0.000276666
-9.33278e-09
-0.000276677
-0.000268568
2.35186e-07
2.37406e-07
7.33989e-09
-0.000276555
-3.79273e-08
1.44316e-08
5.42414e-09
-0.000276681
-3.55849e-08
5.53523e-09
9.72977e-05
-9.7307e-05
-2.83124e-09
-9.73056e-05
3.81138e-11
1.16225e-09
1.89711e-08
-0.00022827
0.00019233
-1.64059e-09
-0.000192344
2.14216e-09
-0.000192343
-1.74916e-10
0.000228262
1.71164e-09
-7.57915e-09
-0.000228285
4.64004e-08
-1.75755e-07
1.96327e-09
-0.000249594
0.00115791
1.16962e-07
9.62761e-07
-7.7817e-07
7.82044e-07
-9.53977e-07
-0.00115802
-1.87518e-08
7.91812e-08
0.000244314
-2.04555e-10
-0.000244366
5.09738e-09
3.79251e-08
-1.24295e-06
2.45256e-07
-2.27933e-07
-8.55627e-07
2.20588e-07
-2.06573e-07
8.72424e-07
1.09749e-07
-9.55e-07
7.8051e-07
-7.76453e-07
9.61239e-07
3.04409e-08
-8.14885e-09
-0.000244323
-9.91103e-08
-2.92603e-08
0.000249602
1.5839e-07
6.47213e-10
-0.000249731
1.88992e-08
1.64379e-09
-0.000228233
-4.89519e-09
0.000192281
-1.80299e-09
-0.000192293
3.00733e-09
1.52248e-09
-0.000192293
0.000228225
-7.55242e-09
1.04816e-09
-0.000228248
4.91275e-08
-0.000249592
2.82979e-09
-1.73379e-07
0.00115785
1.15372e-07
9.57508e-07
-7.7766e-07
7.7687e-07
-9.61572e-07
-0.00115792
-7.31823e-08
-2.32084e-08
7.07268e-09
0.000244292
9.36376e-08
-0.000244355
-5.34268e-09
3.64054e-08
-1.2066e-06
2.39976e-07
-2.2824e-07
-8.6049e-07
2.18288e-07
-2.09124e-07
8.72791e-07
1.02501e-07
-9.57274e-07
7.8351e-07
-7.78819e-07
9.63994e-07
-1.58753e-08
3.04618e-08
-1.10127e-08
-0.000244292
-9.92689e-08
-3.15595e-08
0.000249593
1.54282e-09
1.60709e-07
-0.000249724
9.72868e-05
-9.7296e-05
-9.72946e-05
9.72814e-05
6.49177e-09
-9.72944e-05
-9.72891e-05
-3.31362e-09
-7.87008e-05
-1.8559e-08
-4.3464e-10
1.16125e-09
3.83663e-09
-3.39909e-08
-1.15594e-08
0.000261674
-8.0723e-10
2.50014e-08
-0.000261689
-2.63632e-10
-7.87121e-05
-2.71276e-09
-4.55825e-08
-1.63405e-08
-2.64106e-09
-0.000220965
2.11845e-08
-7.32882e-08
-1.23218e-08
0.000249995
-2.23317e-08
3.15662e-08
4.79914e-08
-0.000250035
-3.78873e-08
3.90786e-09
-1.19512e-08
8.92531e-09
0.000181936
-6.22345e-09
-0.000181947
-2.42603e-08
-7.50046e-08
-2.06577e-08
2.66523e-08
-0.000220985
1.54294e-09
-0.00014239
-2.1059e-08
2.72091e-10
-9.49548e-09
0.000222239
2.81491e-08
-0.000222257
1.64048e-09
2.2027e-08
-7.10397e-10
-5.03453e-08
1.0797e-09
0.000169929
-2.06988e-12
-0.000169939
-0.000142399
-5.01964e-08
6.90972e-11
-0.00014232
6.53429e-11
-1.89331e-08
3.92799e-10
2.19946e-08
1.0621e-09
-5.03739e-08
1.27936e-09
0.000169895
-0.000169904
-7.24608e-09
0.000222141
4.39288e-10
2.77729e-08
-0.000222161
5.44787e-10
-0.000142327
2.5389e-09
-5.02907e-08
-7.86568e-05
-1.61308e-08
-9.28867e-09
0.000261547
2.47015e-08
-0.000261564
-7.86655e-05
-4.79406e-08
0.000220952
1.79142e-08
-8.42241e-09
-7.56449e-09
-0.000220979
2.55747e-08
1.42524e-08
-1.01132e-08
-3.1287e-09
1.07463e-08
-0.000276685
2.33636e-08
-0.000249972
-3.11944e-08
-7.56854e-08
-2.31409e-08
-0.000181934
8.31268e-09
1.77267e-08
-4.70936e-08
2.95404e-08
-0.000250021
5.26044e-08
-4.94439e-09
-0.000181948
-2.66042e-09
0.000212553
-4.60967e-09
-0.000212561
7.48815e-09
-7.13807e-09
-8.00341e-05
-8.00198e-05
-7.13142e-09
-6.55482e-09
-8.00257e-05
3.22364e-09
-1.55686e-08
-8.00437e-05
9.73033e-05
-2.32521e-09
-1.65685e-08
5.49419e-09
5.49234e-09
-1.70607e-09
-2.14674e-09
0.000212554
3.75387e-09
5.81377e-09
-0.00021256
-8.00317e-05
-8.40963e-09
-4.83376e-09
-8.00169e-05
-8.03692e-09
-5.14292e-09
4.85997e-09
-8.00383e-05
4.69483e-09
-8.00238e-05
-1.67693e-08
-1.71414e-08
-2.86665e-08
2.57838e-08
-0.000220933
0.000220966
1.74741e-08
-4.80243e-08
0.000249935
3.98114e-09
2.15062e-08
1.72746e-08
-0.00024997
-3.79787e-08
6.45968e-09
0.00027665
1.3764e-08
-1.33602e-08
0.000181911
5.00672e-09
-3.52625e-09
-0.000181917
0.000249989
-8.46065e-08
-3.62523e-08
0.000181939
4.38051e-09
6.91803e-09
1.23251e-08
-0.000220943
-1.83298e-08
2.11966e-08
-0.000220874
0.000220902
1.28517e-08
-4.34874e-08
0.000249833
-3.03033e-08
8.98319e-08
3.52187e-08
-0.000249896
-2.82144e-08
4.64627e-09
0.000276575
1.33526e-08
-1.14083e-08
0.000181862
1.65242e-08
-6.65059e-09
-0.000181883
0.00024988
-6.69538e-08
-2.60911e-08
0.000181885
2.88321e-09
-1.65135e-08
3.55045e-08
-0.000220907
1.32404e-08
-7.02844e-09
0.000220941
2.2201e-08
-0.000181925
-2.45935e-08
1.61416e-08
-1.10964e-08
-3.91214e-09
8.29691e-09
-0.000249942
2.52318e-08
-7.77649e-08
-3.32876e-08
5.11433e-08
2.48772e-08
-4.83535e-08
1.34781e-08
-8.90763e-09
0.000220881
2.22795e-08
-0.000181873
-2.42571e-08
1.86461e-08
-7.74444e-09
-4.18125e-09
1.03186e-08
-0.000249831
2.29814e-08
-7.78e-08
-3.34616e-08
5.3252e-08
2.75561e-08
-4.83941e-08
1.02021e-08
8.1522e-09
-0.000212548
8.00237e-05
4.04399e-09
-8.00313e-05
8.00127e-05
2.22853e-09
-8.00216e-05
-0.000212551
-1.42125e-08
-3.5142e-09
-0.000212548
3.21939e-09
5.43705e-09
1.19729e-08
2.8014e-09
8.00322e-05
-8.00412e-05
3.27554e-09
8.00315e-05
2.99845e-09
-8.00378e-05
1.00846e-08
-0.000212572
-6.47502e-09
-0.000220912
3.83909e-08
-4.47973e-08
-6.09652e-08
-8.62865e-09
0.000249875
2.22948e-08
2.7044e-08
-0.000249911
1.91088e-09
0.000181907
-0.000181912
3.89372e-09
-6.7799e-08
-1.36987e-08
1.60401e-08
-0.000220924
-2.103e-07
-3.60889e-08
-1.58508e-08
-7.86426e-05
7.86582e-05
2.58275e-10
2.25021e-09
0.000192311
-3.23167e-08
0.000261513
-1.00107e-08
2.71827e-08
-0.00026153
-9.76877e-10
0.000261545
-4.36552e-08
-2.38879e-09
-7.86525e-05
-1.74977e-10
9.53547e-09
7.86488e-05
-1.33787e-10
-0.000261528
1.61856e-08
0.000261561
-4.48155e-08
-2.06732e-09
-1.13422e-09
2.19545e-08
2.6012e-08
-4.72382e-10
7.86649e-05
1.358e-10
-0.000142392
2.81137e-10
-2.08977e-08
3.22369e-10
9.90562e-10
0.000169932
2.70692e-11
-0.000169941
-9.64938e-09
0.000222237
4.41363e-10
2.82232e-08
-0.000222255
2.18682e-08
1.27041e-09
-2.43812e-11
-5.02089e-08
1.01861e-10
-0.000142401
4.37255e-11
2.33405e-09
-5.01046e-08
-7.86985e-05
-1.85846e-08
-1.14399e-08
0.000261664
2.49089e-08
-0.000261678
1.50761e-09
-3.18477e-08
-7.87098e-05
-4.56367e-08
-0.000142322
1.82847e-10
-1.88771e-08
2.42422e-10
1.04082e-09
0.000169898
-0.000169907
-7.53397e-09
0.000222142
4.49898e-10
2.81218e-08
-0.000222162
2.18795e-08
1.19685e-09
-5.0248e-08
4.01925e-10
-0.000142329
2.35554e-09
-5.01915e-08
-7.8656e-05
-1.62116e-08
-9.31154e-09
0.000261544
2.48839e-08
-4.56185e-08
-2.33677e-09
-2.43015e-09
0.000212556
7.25397e-09
4.9456e-09
-0.000212563
-8.002e-05
-7.44802e-09
-6.22522e-09
-8.00328e-05
-7.4194e-09
-6.32044e-09
3.87299e-09
-8.00262e-05
3.85926e-09
-8.00391e-05
-1.54874e-08
-1.35139e-08
2.49189e-08
-2.45154e-08
-0.000220872
0.000220902
1.62807e-08
-4.63695e-08
0.000249818
-1.8559e-08
5.37067e-08
2.46374e-08
-0.00024986
5.76462e-09
-3.67731e-08
0.000276567
-1.0243e-08
0.000181863
8.68401e-09
-5.2563e-09
-0.000181878
0.000181889
4.79787e-09
0.000249863
-7.78146e-08
-2.81454e-08
-6.2587e-09
2.21758e-08
-0.000220898
-2.241e-08
2.26923e-08
-0.000220949
0.00022098
1.43794e-08
-4.6083e-08
0.000249986
-1.35608e-08
5.11208e-08
2.2034e-08
-0.000250029
-3.44768e-08
4.01531e-09
0.000276692
1.42986e-08
-1.05751e-08
0.000181921
6.69837e-09
-5.18064e-09
-0.000181932
0.000250033
-7.54021e-08
-2.83402e-08
0.000181943
4.98065e-09
-3.93789e-09
2.20115e-08
-0.000220974
-8.12925e-09
1.76639e-08
0.000220877
2.26078e-08
-0.000181874
-2.49418e-08
-1.05608e-08
1.69226e-08
1.11654e-08
-0.000249819
2.33624e-08
-2.91823e-08
-7.82762e-08
2.61428e-08
5.26489e-08
-4.5319e-08
1.50042e-08
-6.13412e-09
0.000220954
2.26651e-08
-0.000181932
-2.27645e-08
1.47993e-08
-8.39392e-09
-3.38878e-09
8.69695e-09
-0.000249986
2.12247e-08
-2.69207e-08
-7.5777e-08
2.34151e-08
5.28196e-08
-4.50203e-08
8.36814e-09
8.25645e-09
-0.000212549
8.0013e-05
1.63617e-09
-8.00199e-05
8.00259e-05
1.78427e-09
-8.00328e-05
-0.000212556
9.73144e-05
-2.44873e-09
5.43329e-09
1.01799e-08
-7.24546e-10
0.00014238
-9.27595e-11
-0.000142389
-0.00022223
2.02293e-08
2.16467e-09
-5.14207e-08
-0.000169917
-6.46997e-10
2.80316e-10
9.71917e-10
-7.18909e-09
-0.00022829
1.17938e-11
2.61281e-08
5.65859e-10
-0.000222251
3.177e-08
-0.000169925
2.51485e-10
-3.93167e-11
-1.79738e-08
-7.86863e-05
7.87042e-05
7.87783e-11
2.05973e-09
0.000192356
-3.01331e-08
0.000261643
-1.21505e-08
-1.14738e-09
2.94856e-08
-0.00026166
0.000261675
-2.64145e-09
-4.59715e-08
-3.82658e-11
-7.86985e-05
1.16218e-08
7.86925e-05
-0.000261658
1.83713e-08
-4.70568e-08
-1.17039e-09
1.98129e-08
2.83652e-08
-1.96212e-08
5.84078e-10
-0.00014237
1.67877e-09
1.84435e-08
-1.76964e-10
-4.80837e-08
0.000222221
-1.07172e-08
3.27701e-08
-0.000222243
0.000169907
9.22762e-10
8.70695e-11
-0.000169915
-5.0336e-08
1.76087e-10
-0.00014238
-1.22093e-09
8.39356e-09
0.000142313
4.68108e-10
-0.000142321
-0.000169886
-1.08112e-10
-0.000222138
1.79621e-08
2.68231e-09
-4.86069e-08
-7.24087e-09
1.08873e-09
-0.000228253
2.61849e-08
-0.000169894
9.493e-10
-0.000222159
2.96741e-08
1.37752e-10
-1.55467e-08
-7.86454e-05
7.8661e-05
-7.62682e-11
1.37005e-09
0.000192306
3.00878e-09
-2.98414e-08
0.00026152
-1.02054e-08
-1.08241e-09
2.47686e-08
-0.000261536
0.000261555
-2.78139e-09
-4.58017e-08
-4.46425e-10
-7.86551e-05
9.91419e-09
7.86515e-05
-0.000261537
1.58183e-08
-4.41348e-08
-1.923e-09
-5.00246e-09
2.0377e-08
2.64743e-08
1.91906e-10
-1.75228e-08
-0.000142304
1.84519e-08
1.54826e-09
-4.8093e-08
0.000169875
1.14407e-09
-0.000169884
0.000222128
-8.73653e-09
3.03519e-08
-0.000222149
-5.02669e-08
-0.000142312
9.73035e-05
9.7298e-05
-3.28564e-09
4.69997e-09
-3.15713e-09
-9.73035e-05
1.65451e-10
-9.38985e-09
5.92589e-10
0.000228263
-0.000228283
-0.000192338
1.90988e-09
8.29168e-10
-0.000228268
5.13525e-10
2.13877e-08
-7.43833e-09
1.31093e-09
0.000228223
-0.000228248
5.79051e-11
0.000192274
-0.000192291
-0.000228229
2.13614e-09
1.91715e-08
-0.000192286
1.07504e-09
5.14128e-09
-9.73118e-05
-0.000142368
7.03458e-10
-2.19997e-08
0.000142389
-1.61805e-10
5.49756e-10
0.000169905
3.52397e-10
-0.000169916
-1.24032e-08
0.00022222
3.23399e-08
-0.00022224
6.60395e-10
2.08111e-08
9.65193e-10
0.000228288
9.80167e-10
-4.84264e-08
-0.000142379
-8.42923e-11
0.000169926
4.83773e-10
0.000222248
-5.07884e-08
2.20672e-09
1.12797e-08
7.86925e-05
7.17845e-11
-7.87038e-05
-1.2238e-09
1.9147e-08
-0.000192351
-0.000261658
1.85749e-08
-1.95911e-09
-4.51899e-08
-2.54272e-10
2.77281e-08
-0.000261676
-1.53688e-11
-6.4114e-10
1.18114e-08
0.000142378
-8.85109e-09
4.43193e-10
6.50491e-10
2.80944e-08
-0.000222229
2.25664e-08
-4.93738e-08
-0.000169916
-6.1759e-10
4.3047e-10
4.64389e-10
3.12396e-08
-0.000142301
-4.63567e-11
-1.76875e-08
3.11717e-10
0.000142318
1.33836e-09
0.000169873
-0.000169881
-8.61671e-09
0.000222124
1.10426e-09
3.49865e-08
-0.000222151
1.86449e-08
2.05627e-09
0.000228252
-4.83133e-08
6.46623e-10
-0.000142308
0.000169892
3.01052e-09
0.000222154
-4.80368e-08
-7.86433e-05
-1.54139e-08
7.8659e-05
-1.0314e-08
0.000261519
2.93676e-08
-0.000261536
1.02266e-09
0.000192299
-2.96933e-08
-7.86529e-05
0.000261551
-4.33998e-08
-1.45426e-09
8.21e-09
0.00014231
7.40525e-10
-6.98498e-09
1.50178e-09
2.83586e-08
-0.000222133
1.81613e-08
3.15944e-09
-4.87987e-08
-0.000169884
8.12811e-11
1.33979e-09
2.94597e-08
3.56573e-10
1.00718e-08
7.86497e-05
-2.37433e-09
2.04952e-08
-0.000261533
1.57074e-08
-4.40917e-08
2.65662e-08
-0.000263875
1.81719e-07
9.37014e-09
-1.11731e-09
9.16336e-09
0.000259958
-0.000260055
-8.44161e-09
-1.01504e-07
1.56561e-07
0.000249896
-8.56381e-10
-0.000250022
4.91103e-11
-0.000264566
-4.46441e-09
-1.12311e-07
-1.01566e-07
-0.00024227
0.000242393
0.000260672
-6.53984e-08
-0.000261016
0.000261068
-1.04151e-07
-0.000261321
2.32031e-07
2.38349e-07
0.000270575
0.000260958
0.000261369
-0.000242392
-1.09565e-07
-1.09653e-07
-0.000242281
0.000242408
0.000261067
-8.74558e-08
-0.000261366
0.000260715
-8.47355e-08
-0.000261016
2.382e-07
2.35912e-07
0.000270603
0.000261006
0.000261359
-0.000242409
-0.000265759
1.94315e-07
1.31689e-09
1.71257e-07
0.00024891
-0.000249051
3.27972e-09
0.000266066
-5.33595e-09
-0.000266688
1.73048e-09
-1.74814e-07
-3.16046e-09
-0.00026654
-9.99887e-10
-0.000265696
-4.89873e-09
1.96933e-07
1.49175e-08
-4.0598e-09
0.000266058
-0.000266681
-1.77375e-07
2.33692e-09
1.70791e-07
0.000248827
-3.77813e-10
-0.00024897
-1.73604e-08
-0.000266467
3.26117e-09
-0.000263811
1.81698e-07
1.51127e-07
0.000249806
-0.000249927
-0.000264519
1.5947e-07
-0.00119054
1.83372e-08
-0.00122081
0.00122008
1.16473e-07
-0.00122016
-1.17044e-07
2.0642e-07
0.00122069
1.88849e-07
9.29873e-10
-0.00122069
9.23379e-08
3.92533e-08
9.9467e-08
0.00122013
-9.76668e-08
4.29334e-08
1.53704e-07
2.04106e-08
-0.00125045
2.57415e-08
2.7224e-08
5.88197e-08
-0.00125035
1.45574e-07
0.00121995
1.52708e-07
-0.00121989
0.00122058
1.33118e-07
-0.00122036
-1.96085e-07
6.26649e-08
5.21293e-08
1.35682e-07
1.10048e-07