/*--------------------------------*- C++ -*----------------------------------*\
| =========                 |                                                 |
| \\      /  F ield         | OpenFOAM: The Open Source CFD Toolbox           |
|  \\    /   O peration     | Version:  v2006                                 |
|   \\  /    A nd           | Website:  www.openfoam.com                      |
|    \\/     M anipulation  |                                                 |
\*---------------------------------------------------------------------------*/
FoamFile
{
    version     2.0;
    format      ascii;
    class       volVectorField;
    location    "875";
    object      U;
}
// * * * * * * * * * * * * * * * * * * * * * * * * * * * * * * * * * * * * * //

dimensions      [0 1 -1 0 0 0 0];


internalField   nonuniform List<vector> 
14199
(
(-7.39805e-08 -7.94559e-06 0.0983267)
(4.48953e-07 -4.28875e-06 0.110445)
(6.01046e-07 -8.05271e-06 0.0983268)
(3.93988e-08 -4.33023e-06 0.110445)
(-6.38541e-08 -2.67429e-06 0.0909517)
(6.4329e-07 -2.78463e-06 0.0909522)
(5.55494e-07 4.55966e-06 0.0763766)
(-1.78152e-07 -2.96807e-06 0.0894282)
(-2.58886e-07 -2.07199e-06 0.0781172)
(-2.08729e-08 1.08441e-05 0.0909864)
(-3.31983e-07 1.04741e-05 0.0894694)
(-7.76505e-08 4.84278e-06 0.0781476)
(-6.37494e-07 -2.47217e-06 0.0763381)
(-4.47203e-07 4.60861e-06 0.0763744)
(7.12073e-07 -3.20553e-06 0.0894297)
(5.20935e-07 -2.15707e-06 0.0781185)
(6.32873e-07 1.0787e-05 0.090986)
(8.34621e-07 1.03853e-05 0.0894683)
(2.33933e-07 4.84486e-06 0.0781469)
(8.57274e-07 -2.62697e-06 0.0763412)
(-5.58866e-07 3.34479e-06 0.0679517)
(6.76297e-07 -3.02515e-06 0.0852999)
(1.30656e-06 8.56482e-06 0.085344)
(9.12076e-07 -2.68048e-06 0.067906)
(5.33893e-06 -1.49508e-05 0.115523)
(-5.35772e-06 -1.49331e-05 0.115523)
(-1.15334e-07 -8.2588e-06 0.0973118)
(4.24698e-07 5.12775e-05 0.10303)
(-2.27961e-07 -4.18985e-05 0.103602)
(3.16132e-08 1.65668e-05 0.098383)
(3.54152e-07 -4.22413e-05 0.102893)
(3.27438e-07 4.98503e-05 0.103713)
(-4.41407e-07 1.67487e-05 0.0973773)
(6.82205e-07 -8.50151e-06 0.0973122)
(2.88283e-07 5.11225e-05 0.103029)
(5.96518e-07 -4.19902e-05 0.103602)
(6.84846e-07 1.64893e-05 0.0983829)
(1.77824e-07 -4.24747e-05 0.102893)
(2.58529e-07 4.97774e-05 0.103713)
(1.1595e-06 1.66102e-05 0.097377)
(3.03225e-07 -8.00758e-06 0.0952829)
(1.98177e-06 5.25714e-05 0.101392)
(-7.44506e-07 -4.34128e-05 0.101273)
(2.46046e-06 1.64586e-05 0.0953483)
(3.30077e-06 -6.43543e-07 0.0870616)
(2.59289e-06 -2.04665e-06 0.0710284)
(2.23694e-06 -7.07488e-06 0.0926004)
(6.54052e-07 -4.7848e-06 0.0816861)
(4.85335e-06 -6.20866e-07 0.0816863)
(1.53829e-07 -1.89259e-06 0.107866)
(6.97273e-06 -2.32907e-06 0.0925996)
(2.08266e-06 -2.57029e-06 0.0710278)
(3.60342e-05 -3.62082e-05 0.10437)
(5.64534e-07 -3.32003e-06 0.0870583)
(1.78813e-06 -8.95029e-08 0.107867)
(-5.64823e-06 1.17738e-05 0.091305)
(6.09545e-06 -6.75329e-06 0.0959894)
(-4.30783e-06 6.38986e-06 0.0870974)
(1.34993e-06 -1.08815e-06 0.0810632)
(2.0621e-06 -4.3024e-06 0.0912748)
(-2.4929e-06 5.34948e-06 0.0810961)
(-7.14066e-06 1.61557e-05 0.0960268)
(-1.45018e-06 3.88723e-06 0.0710699)
(6.51186e-07 3.29392e-06 0.0679519)
(-1.37053e-06 8.41276e-06 0.0817288)
(-3.72322e-07 -2.79636e-06 0.0852974)
(-1.12378e-06 8.63262e-06 0.0853444)
(-7.73602e-07 -2.53252e-06 0.0679005)
(-8.3103e-06 1.4048e-06 0.0817287)
(-3.81134e-06 1.48909e-06 0.0710702)
(-3.90232e-06 3.95724e-06 0.0831762)
(1.24056e-06 -1.10717e-06 0.0678917)
(1.09732e-06 -1.17616e-06 0.067885)
(1.57489e-06 -1.53109e-06 0.0831451)
(-1.80795e-06 2.49859e-06 0.0679211)
(-2.43921e-06 1.78235e-06 0.0679263)
(-1.17542e-05 5.79981e-06 0.0913035)
(6.79138e-06 -6.12447e-06 0.0959821)
(-6.52193e-06 4.33894e-06 0.0870973)
(9.61087e-07 -1.2561e-06 0.081056)
(-1.63158e-05 7.2644e-06 0.0960285)
(4.25376e-06 -1.98807e-06 0.0912635)
(-5.35187e-06 2.50674e-06 0.0810929)
(1.79532e-07 -7.53537e-06 0.0952823)
(-1.21684e-06 5.29246e-05 0.101393)
(3.1048e-06 -4.08566e-05 0.0993678)
(-4.39629e-06 1.32613e-05 0.0926519)
(-3.58555e-06 4.92204e-05 0.0994309)
(1.47946e-06 -4.29594e-05 0.101274)
(-1.9236e-06 1.67646e-05 0.0953484)
(4.08767e-05 -3.27248e-06 0.0993651)
(-1.34659e-05 4.33439e-06 0.0926518)
(-4.92067e-05 3.36698e-06 0.0994303)
(-1.45106e-05 1.47535e-05 0.0973558)
(3.63882e-05 -7.70645e-06 0.101404)
(-4.41394e-05 4.41562e-05 0.104507)
(7.71848e-06 -3.65872e-05 0.101398)
(-1.61888e-05 4.22488e-05 0.101473)
(7.18402e-06 -7.26016e-06 0.0973047)
(-4.23998e-05 1.63579e-05 0.101474)
(6.57295e-06 -6.67121e-06 0.1131)
(-1.1088e-05 3.56305e-07 0.0909898)
(-1.11437e-05 -3.15466e-07 0.0909895)
(-1.69722e-05 -4.68113e-07 0.0983817)
(3.75736e-06 3.47509e-08 0.110435)
(-8.19824e-06 1.66057e-06 0.081735)
(-1.69318e-05 8.38466e-08 0.0983818)
(-1.325e-05 4.73369e-06 0.0926544)
(1.07052e-07 -2.05632e-06 0.107857)
(3.87854e-06 -5.62553e-07 0.110435)
(2.42289e-06 9.93408e-07 0.0763458)
(-4.96954e-06 3.10063e-07 0.0781541)
(-1.05651e-05 7.7121e-07 0.0894727)
(2.35087e-06 2.76724e-07 0.0909544)
(1.88689e-06 5.1084e-07 0.0781229)
(2.83854e-06 4.68006e-07 0.0894326)
(-4.67989e-06 -2.11356e-07 0.0763817)
(2.58554e-06 -9.09939e-07 0.0679104)
(-8.65656e-06 -1.38267e-06 0.0853486)
(2.79611e-06 -6.30096e-07 0.0853045)
(-3.40476e-06 4.7295e-07 0.0679565)
(2.40133e-06 -7.90575e-07 0.0763476)
(-1.07102e-05 -6.46608e-07 0.0894724)
(-5.03005e-06 -6.4409e-08 0.0781535)
(2.35876e-06 -3.81518e-07 0.0909548)
(2.80304e-06 -4.83367e-07 0.0894334)
(1.90176e-06 -3.20949e-07 0.0781239)
(-4.78837e-06 4.41816e-07 0.0763812)
(2.64046e-06 1.05664e-06 0.0679121)
(-8.46376e-06 1.57018e-06 0.0853492)
(4.88674e-06 -2.59677e-07 0.0816926)
(2.92733e-06 7.47307e-07 0.0853043)
(-3.34934e-06 -2.997e-07 0.067959)
(2.03001e-06 -2.32055e-06 0.0710351)
(4.45973e-06 -1.26994e-06 0.0912648)
(1.12358e-06 -3.01009e-06 0.0870628)
(6.90577e-06 -5.51968e-06 0.0959815)
(1.60631e-06 -1.46953e-06 0.0810617)
(1.35959e-06 -1.28009e-06 0.0831502)
(1.20783e-06 -1.49333e-06 0.0678905)
(1.54818e-06 -1.29468e-06 0.0678969)
(1.7375e-06 -4.55037e-06 0.0912769)
(1.69361e-06 -1.78999e-06 0.0810686)
(4.25887e-05 1.1826e-06 0.101271)
(-1.69342e-05 -2.3327e-06 0.0953495)
(7.31031e-06 -1.80444e-07 0.0952841)
(-5.30043e-05 -1.603e-06 0.10139)
(4.16925e-05 -3.96744e-08 0.102889)
(-1.70835e-05 -8.78758e-07 0.097377)
(-5.01571e-05 -2.11707e-07 0.103708)
(7.4665e-06 -5.46507e-07 0.0983253)
(7.90386e-06 -5.15829e-07 0.0973117)
(4.12649e-05 -6.93619e-07 0.103596)
(-5.15316e-05 -7.1106e-08 0.103025)
(4.17802e-05 -5.87567e-07 0.102888)
(-1.70458e-05 5.90742e-07 0.097377)
(-5.00803e-05 -4.55248e-07 0.103708)
(7.46355e-06 -1.9211e-10 0.0983254)
(4.13041e-05 -4.58223e-08 0.103596)
(7.84338e-06 5.62629e-08 0.0973116)
(-5.13688e-05 -4.65667e-07 0.103025)
(4.2755e-05 -1.72827e-06 0.10127)
(-1.67475e-05 2.24235e-06 0.0953493)
(-4.89558e-05 3.72631e-06 0.0994291)
(6.98629e-06 -1.98063e-06 0.0926024)
(7.39104e-06 -6.53965e-08 0.0952837)
(4.08125e-05 -3.19944e-06 0.0993637)
(-5.27103e-05 1.1576e-06 0.101389)
(7.21687e-06 -6.78495e-06 0.0973027)
(7.92477e-06 -3.64218e-05 0.101393)
(4.80613e-05 4.77036e-05 0.10472)
(1.00283e-05 1.68906e-05 0.108266)
(2.38027e-06 3.28267e-06 0.0708699)
(4.37064e-06 4.50497e-06 0.0869811)
(-1.97285e-06 -7.38145e-06 0.0816081)
(-2.09932e-06 -7.23183e-06 0.0852566)
(-6.38586e-07 -3.90613e-06 0.0709114)
(-3.3015e-06 -3.49729e-06 0.0870184)
(-4.63157e-06 -1.15219e-05 0.096103)
(1.33472e-05 9.47574e-06 0.0960626)
(4.15966e-06 2.59426e-06 0.0809497)
(7.60738e-06 3.27594e-06 0.0912568)
(4.51091e-05 1.41208e-05 0.101618)
(1.43462e-05 4.49463e-05 0.101624)
(1.0997e-05 1.04021e-05 0.097405)
(1.22281e-06 -4.79391e-05 0.101648)
(-4.28931e-06 -6.76929e-06 0.0926604)
(-2.01361e-06 -1.10315e-05 0.0954355)
(-9.87977e-07 -4.40185e-05 0.0995938)
(8.67156e-06 8.70878e-06 0.11768)
(8.65248e-06 -8.61796e-06 0.11768)
(-8.6687e-06 8.7403e-06 0.11768)
(-8.68983e-06 -8.61063e-06 0.11768)
(9.97833e-06 -1.68883e-05 0.108268)
(1.69677e-05 9.92556e-06 0.108269)
(1.69706e-05 -1.0006e-05 0.108265)
(4.79597e-05 -4.79706e-05 0.104719)
(-8.4836e-06 -6.7778e-07 0.091004)
(6.64391e-06 -1.59564e-07 0.0815672)
(5.91681e-06 -6.6721e-07 0.0909746)
(2.29893e-06 -3.32269e-06 0.0708693)
(6.28054e-06 -5.4527e-05 0.099525)
(-9.79347e-06 -4.72832e-07 0.0985696)
(5.45454e-05 6.21735e-06 0.099526)
(2.52392e-05 3.53725e-06 0.11083)
(5.90575e-05 2.32449e-06 0.103172)
(-8.46693e-06 5.8102e-07 0.0910044)
(6.52787e-06 1.75782e-07 0.0815664)
(5.87702e-06 6.28006e-07 0.0909741)
(-9.80731e-06 3.7277e-07 0.0985695)
(2.52161e-05 -3.59514e-06 0.11083)
(5.8078e-05 -4.10057e-06 0.101515)
(5.90357e-05 -2.34929e-06 0.103172)
(4.38327e-06 -4.54034e-06 0.086979)
(4.5494e-06 -4.40552e-06 0.0869809)
(3.32187e-06 -2.34067e-06 0.0708699)
(-1.68577e-07 -6.53337e-06 0.0815665)
(4.14414e-06 -1.30478e-06 0.0762188)
(-8.11844e-06 -1.03281e-06 0.0894466)
(-3.7143e-06 -4.83698e-07 0.0780365)
(5.92173e-06 -6.88644e-07 0.0909699)
(6.29098e-06 -9.50743e-07 0.0894071)
(3.53992e-06 -7.58118e-07 0.0780084)
(-3.36753e-06 1.09673e-07 0.076252)
(-2.96353e-06 6.39579e-08 0.0678055)
(-7.31684e-06 -1.93971e-06 0.0816091)
(4.98547e-06 -1.45417e-06 0.0852117)
(-7.22234e-06 -2.08551e-06 0.0852567)
(3.34933e-06 -1.50387e-06 0.0677591)
(-3.32238e-06 -3.42374e-08 0.0762514)
(-8.47065e-06 -6.87276e-07 0.0910089)
(6.32663e-06 -9.51785e-07 0.0894104)
(3.52767e-06 -7.91353e-07 0.0780082)
(-8.05606e-06 -1.11622e-06 0.0894499)
(-3.69896e-06 -5.30109e-07 0.0780365)
(4.16909e-06 -1.40717e-06 0.0762182)
(-3.91793e-06 5.77458e-07 0.0709118)
(4.08822e-06 1.25952e-06 0.0762166)
(-3.67573e-06 4.44805e-07 0.0780372)
(-8.10965e-06 9.35959e-07 0.0894473)
(5.87802e-06 6.22503e-07 0.0909694)
(3.48434e-06 7.12002e-07 0.0780071)
(6.23767e-06 8.73641e-07 0.0894062)
(-3.32335e-06 -1.71277e-07 0.0762526)
(-2.97093e-06 -1.20625e-07 0.0678076)
(-7.38874e-06 1.95276e-06 0.081609)
(4.92929e-06 1.414e-06 0.0852116)
(-7.2732e-06 2.05692e-06 0.0852575)
(3.34435e-06 1.46292e-06 0.0677602)
(-3.28517e-06 -4.01796e-08 0.076252)
(-8.45474e-06 6.09027e-07 0.0910094)
(3.47256e-06 7.43283e-07 0.0780069)
(6.27067e-06 9.03808e-07 0.0894096)
(-3.65971e-06 4.76149e-07 0.0780372)
(-8.05563e-06 1.04129e-06 0.0894506)
(4.10467e-06 1.3601e-06 0.076216)
(-1.00589e-05 4.61423e-06 0.0912877)
(1.34597e-05 -9.61984e-06 0.096056)
(-3.52236e-06 3.30578e-06 0.0870171)
(4.08487e-06 -2.67913e-06 0.0809481)
(-3.37569e-06 1.24623e-06 0.0809823)
(-1.15264e-05 4.69517e-06 0.0961007)
(7.63491e-06 -3.44186e-06 0.0912506)
(-4.61266e-06 1.00567e-05 0.0912953)
(9.59615e-06 -1.34224e-05 0.0960589)
(-3.34285e-06 3.53846e-06 0.0870192)
(2.64618e-06 -4.07441e-06 0.0809529)
(-4.7131e-06 1.1554e-05 0.0961045)
(-1.25387e-06 3.35651e-06 0.0809884)
(3.42626e-06 -7.61242e-06 0.0912572)
(-3.9541e-06 3.91832e-06 0.0830956)
(1.38051e-06 -2.20984e-06 0.0677686)
(2.18536e-06 -1.40082e-06 0.0677747)
(-1.95746e-06 1.72753e-06 0.0678036)
(-1.76358e-06 1.93111e-06 0.0678099)
(2.03772e-06 -2.04907e-06 0.0830643)
(-6.36427e-07 3.95092e-06 0.0709114)
(1.3791e-07 2.88375e-06 0.0678074)
(-1.97742e-06 7.40173e-06 0.0816089)
(-1.41196e-06 -4.8888e-06 0.08521)
(-2.04449e-06 7.23349e-06 0.0852581)
(-1.51027e-06 -3.27321e-06 0.0677553)
(4.50159e-05 -1.42477e-05 0.101621)
(1.42566e-05 -4.50183e-05 0.101618)
(1.07309e-05 -1.07336e-05 0.0974048)
(-1.32179e-05 1.32333e-05 0.0974621)
(-4.33155e-05 4.33515e-05 0.104878)
(-4.30444e-05 1.20079e-05 0.101704)
(-1.19646e-05 4.30279e-05 0.101701)
(4.12296e-06 -5.80241e-05 0.101516)
(2.71383e-06 -1.46807e-05 0.0926073)
(4.1474e-07 -1.46426e-05 0.0953659)
(1.16318e-06 4.7991e-05 0.101649)
(-4.30627e-06 6.84486e-06 0.0926616)
(-1.0204e-06 4.40669e-05 0.0995957)
(-2.0306e-06 1.10721e-05 0.0954366)
(5.85928e-05 1.91714e-06 0.10316)
(-9.99168e-06 -7.47431e-07 0.0975198)
(-4.38814e-05 5.66246e-07 0.104032)
(1.64147e-05 -4.19476e-07 0.0985098)
(1.66833e-05 -1.71838e-07 0.09745)
(5.8842e-05 1.01041e-07 0.103906)
(-4.55433e-05 1.86433e-06 0.103314)
(5.81282e-05 4.12558e-06 0.101516)
(1.46229e-05 2.65115e-06 0.0926077)
(1.47174e-05 2.78545e-07 0.0953663)
(-4.78865e-05 1.02288e-06 0.10165)
(-6.71258e-06 -4.35495e-06 0.0926614)
(-1.09895e-05 -2.14373e-06 0.0954362)
(-4.39989e-05 -1.07128e-06 0.0995956)
(1.6558e-05 -3.2706e-07 0.0985204)
(1.67872e-05 1.07376e-08 0.0974592)
(5.93511e-05 2.82353e-07 0.10392)
(-4.53788e-05 2.20891e-06 0.103327)
(-9.64888e-06 -4.03046e-07 0.0985804)
(-9.83437e-06 -6.2372e-07 0.097529)
(-4.37223e-05 7.29142e-07 0.104046)
(5.85639e-05 -2.0776e-06 0.10316)
(-4.38893e-05 -6.6558e-07 0.104031)
(-1.00118e-05 6.30408e-07 0.0975199)
(1.6385e-05 3.38059e-07 0.0985099)
(5.88313e-05 -1.6274e-07 0.103906)
(1.66562e-05 8.13886e-08 0.0974501)
(-4.55735e-05 -2.0702e-06 0.103313)
(5.45939e-05 -6.22671e-06 0.099523)
(1.47207e-05 -2.66753e-06 0.0926063)
(1.46549e-05 -3.70394e-07 0.0953659)
(-4.79565e-05 -1.16251e-06 0.101648)
(-6.79144e-06 4.31901e-06 0.092661)
(-1.10972e-05 2.0617e-06 0.0954363)
(-4.40201e-05 1.05908e-06 0.0995936)
(1.65471e-05 3.04718e-07 0.0985204)
(5.93477e-05 -2.33949e-07 0.103919)
(1.68028e-05 -5.28673e-08 0.097459)
(-4.54058e-05 -2.30204e-06 0.103326)
(-9.65096e-06 3.48612e-07 0.0985804)
(-4.37282e-05 -7.24997e-07 0.104045)
(-9.82732e-06 5.48744e-07 0.0975291)
(5.01079e-06 7.92321e-07 0.0816867)
(7.11886e-06 2.25772e-06 0.0926009)
(4.29261e-06 -4.32905e-07 0.110445)
(-7.36171e-07 8.61149e-07 0.107887)
(-3.61186e-05 -3.55088e-05 0.104383)
(2.13126e-06 2.62221e-06 0.0710274)
(3.77834e-07 3.35968e-06 0.0870608)
(-9.04402e-07 7.98038e-07 0.107885)
(1.30645e-06 -1.16446e-07 0.107866)
(-3.55117e-05 3.5511e-05 0.104384)
(-1.05211e-06 -1.17333e-06 0.107885)
(-1.19616e-06 -6.66277e-07 0.107886)
(2.74815e-06 -4.97047e-07 0.0909516)
(4.24083e-06 -8.20672e-08 0.110445)
(-8.52921e-08 1.29449e-06 0.107868)
(7.92999e-06 -6.2897e-07 0.0983265)
(2.68939e-06 1.34821e-07 0.0909514)
(7.87072e-06 1.1786e-08 0.0983266)
(-4.02752e-06 6.95832e-06 0.0870933)
(-3.13808e-06 1.97739e-06 0.0710139)
(1.01224e-06 -3.7053e-06 0.0710637)
(1.49149e-05 5.36266e-06 0.115524)
(1.49441e-05 -5.31659e-06 0.115523)
(-7.37538e-06 7.43884e-06 0.113113)
(-7.64901e-06 -7.46016e-06 0.113112)
(1.60625e-05 -4.77241e-07 0.0983842)
(-8.47154e-06 2.32649e-06 0.0925948)
(-5.69172e-06 -3.0229e-08 0.110468)
(-2.32376e-07 9.7426e-07 0.107878)
(1.30262e-05 -4.1042e-06 0.092649)
(-4.98978e-06 -6.24028e-08 0.110456)
(-8.91169e-06 -5.82894e-07 0.0983304)
(-4.18105e-06 1.32289e-05 0.0926495)
(-2.08217e-07 1.61863e-05 0.0983847)
(-6.19307e-07 -8.792e-06 0.0983301)
(-1.47076e-06 -3.71624e-06 0.0870507)
(-3.64791e-06 -1.70438e-06 0.0870503)
(4.5106e-05 4.51915e-05 0.104515)
(6.50612e-06 3.80412e-06 0.0870933)
(3.94592e-06 6.46826e-06 0.0870917)
(2.81564e-06 2.15783e-06 0.0710279)
(3.56224e-05 3.55948e-05 0.10437)
(3.64329e-06 2.20747e-07 0.0870591)
(-1.08036e-06 5.11725e-06 0.0816748)
(8.36671e-07 -8.18596e-06 0.0817228)
(-2.35484e-06 8.46098e-06 0.0925935)
(-1.06937e-06 2.4747e-07 0.107875)
(3.9983e-06 -1.30293e-05 0.0926489)
(-3.55525e-07 2.81442e-06 0.0909512)
(8.64583e-07 4.87265e-06 0.0816856)
(2.85174e-07 2.80681e-06 0.0909515)
(-3.90608e-07 7.98679e-06 0.0983258)
(2.38961e-06 7.10176e-06 0.0925987)
(8.33387e-08 4.24798e-06 0.110446)
(3.27207e-07 7.97557e-06 0.0983261)
(-1.32926e-07 4.21689e-06 0.110445)
(-3.97064e-06 9.77587e-07 0.0870492)
(-1.07562e-06 3.93636e-06 0.0870523)
(4.49519e-05 -4.4985e-05 0.104516)
(3.73811e-06 -7.00818e-06 0.0870938)
(7.02062e-06 -3.81085e-06 0.0870933)
(-2.07315e-06 3.12963e-06 0.0710163)
(3.78198e-06 -1.05496e-06 0.0710618)
(1.04052e-05 -2.65135e-07 0.090983)
(-5.15782e-06 1.05443e-06 0.0816758)
(8.22094e-06 -8.43455e-07 0.0817225)
(-3.35851e-06 -5.50722e-07 0.0909473)
(1.60219e-05 3.50392e-07 0.0983841)
(-5.70798e-06 -1.66728e-07 0.110467)
(-8.44748e-06 -2.21286e-06 0.0925942)
(-4.62412e-07 -1.00884e-06 0.107875)
(-5.0329e-06 -3.85385e-08 0.110456)
(1.25546e-05 4.20153e-06 0.0926485)
(-8.89237e-06 3.14481e-07 0.0983305)
(1.03709e-05 4.25439e-07 0.0909828)
(-5.1622e-06 -7.55355e-07 0.0816761)
(8.12577e-06 9.93458e-07 0.0817222)
(-3.33722e-06 3.47478e-07 0.0909475)
(5.25249e-07 1.60843e-05 0.0983846)
(-4.13223e-07 -5.51623e-06 0.110467)
(-2.25835e-06 -8.64519e-06 0.0925948)
(-9.92201e-07 -2.34139e-07 0.107877)
(-1.8059e-07 -4.89421e-06 0.110456)
(4.39768e-06 1.25409e-05 0.0926488)
(2.00108e-07 -8.83873e-06 0.0983304)
(-2.06192e-06 -2.91435e-06 0.0710162)
(3.83675e-06 1.04608e-06 0.0710623)
(-2.79308e-06 -2.10934e-06 0.0710166)
(1.18252e-06 3.85635e-06 0.0710623)
(-3.36174e-06 6.30091e-07 0.0679498)
(-8.23891e-06 -1.23673e-06 0.0817286)
(2.89482e-06 -4.39902e-07 0.0852989)
(2.60641e-06 -7.80576e-07 0.0679033)
(-8.67265e-06 -1.14425e-06 0.0853435)
(-3.76066e-06 -1.42708e-06 0.0710696)
(-1.19511e-05 -5.67558e-06 0.0913052)
(6.63317e-06 5.80119e-06 0.0959895)
(-6.86037e-06 -4.32442e-06 0.0870993)
(8.52632e-07 1.23752e-06 0.0810591)
(-1.64799e-05 -7.31064e-06 0.0960325)
(4.09683e-06 2.02047e-06 0.0912756)
(-5.67673e-06 -2.72415e-06 0.0810942)
(-4.67836e-06 5.58291e-07 0.0763749)
(3.1158e-06 -4.70399e-07 0.0894293)
(-1.08484e-05 -4.39429e-07 0.0909865)
(2.09378e-06 -3.81408e-07 0.0781178)
(2.55368e-06 -6.90771e-07 0.076341)
(-1.05066e-05 -5.94115e-07 0.0894686)
(-4.89076e-06 -1.01004e-07 0.0781474)
(-4.6271e-06 -4.44026e-07 0.0763751)
(-1.08579e-05 1.59092e-07 0.0909868)
(2.05553e-06 3.80749e-07 0.0781169)
(3.01019e-06 2.00193e-07 0.0894289)
(2.54274e-06 7.21629e-07 0.0763395)
(-4.86004e-06 1.92735e-07 0.0781479)
(-1.05229e-05 4.35826e-07 0.0894689)
(-3.34811e-06 -5.24109e-07 0.0679521)
(2.85304e-06 3.86801e-07 0.0852991)
(2.64675e-06 8.03131e-07 0.0679052)
(-8.63336e-06 1.19582e-06 0.085344)
(2.22479e-06 -4.07759e-06 0.0912734)
(3.64903e-06 -3.38269e-07 0.087057)
(-7.03636e-06 1.64536e-05 0.096028)
(-2.58913e-06 5.98987e-06 0.0810911)
(-5.33677e-06 1.20436e-05 0.0913051)
(5.97249e-06 -6.75343e-06 0.095989)
(1.52055e-06 -5.95351e-07 0.0810575)
(1.36601e-06 -1.40981e-06 0.0831418)
(-2.64313e-06 2.03349e-06 0.0679207)
(-2.04092e-06 2.64346e-06 0.0679151)
(8.36334e-07 -1.23957e-06 0.0678784)
(-3.79457e-06 3.83721e-06 0.0831723)
(1.25832e-06 -8.51461e-07 0.0678849)
(7.28477e-07 -3.76958e-06 0.0710577)
(-2.98247e-06 2.05406e-06 0.0710195)
(-6.34898e-07 -7.73221e-07 0.0831431)
(2.28089e-06 2.1212e-06 0.0679181)
(2.2483e-06 2.15217e-06 0.0679124)
(-6.81406e-07 -1.71986e-06 0.0678804)
(-1.66667e-06 -8.75489e-07 0.0678763)
(4.67973e-06 4.49166e-06 0.0831754)
(1.19616e-05 6.06091e-06 0.0913056)
(-7.81745e-06 -4.91044e-06 0.0959847)
(6.13299e-06 3.77513e-06 0.0870886)
(-1.68306e-06 -2.46957e-06 0.0810501)
(1.56156e-05 8.26707e-06 0.0960286)
(5.28429e-06 1.48522e-06 0.0810864)
(-4.40281e-06 -1.41547e-06 0.0912678)
(5.76427e-06 1.19564e-05 0.0912991)
(-5.09125e-06 -8.0897e-06 0.0959829)
(3.8778e-06 5.90833e-06 0.0870872)
(-2.40949e-06 -1.8437e-06 0.0810466)
(8.08826e-06 1.53079e-05 0.0960253)
(1.53518e-06 5.14882e-06 0.0810815)
(-1.72742e-06 -4.31844e-06 0.0912625)
(-4.09853e-06 -1.61977e-06 0.0912714)
(5.73208e-06 1.74852e-06 0.0810916)
(-1.08462e-06 -3.72179e-06 0.0870553)
(1.59507e-05 7.97296e-06 0.0960297)
(-7.4252e-06 -4.97426e-06 0.0959864)
(-1.19307e-06 -2.27242e-06 0.081055)
(1.21673e-05 5.69144e-06 0.0913088)
(-1.73433e-06 -4.17125e-06 0.0912653)
(1.83841e-06 5.68755e-06 0.0810866)
(-3.61882e-06 -1.20359e-06 0.0870545)
(8.00786e-06 1.58301e-05 0.0960262)
(-5.08133e-06 -7.602e-06 0.0959833)
(-2.2354e-06 -1.31149e-06 0.0810513)
(5.74337e-06 1.20611e-05 0.091302)
(4.68949e-06 4.7083e-06 0.0831714)
(-8.80639e-07 -1.76771e-06 0.0678753)
(-1.78709e-06 -9.46835e-07 0.0678717)
(2.22798e-06 2.03574e-06 0.0679126)
(2.08695e-06 2.12556e-06 0.0679072)
(-7.75899e-07 -6.45314e-07 0.083139)
(-1.28127e-06 -3.76031e-06 0.0710686)
(-3.98188e-06 -3.76359e-06 0.0831716)
(9.07869e-07 1.23448e-06 0.0678865)
(1.11698e-06 1.03264e-06 0.0678885)
(1.36249e-06 1.66715e-06 0.0831497)
(-2.69739e-06 -1.96814e-06 0.0679226)
(-2.05822e-06 -2.58726e-06 0.0679211)
(-5.36593e-06 -1.18871e-05 0.0913031)
(6.09123e-06 6.67329e-06 0.0959813)
(1.44197e-06 5.68004e-07 0.0810596)
(-4.11967e-06 -7.00213e-06 0.0870972)
(2.28416e-06 4.14482e-06 0.0912694)
(-2.53412e-06 -5.90391e-06 0.0810946)
(-7.06725e-06 -1.65061e-05 0.0960288)
(-8.28259e-07 -3.26381e-06 0.0679393)
(6.62948e-07 -8.08568e-06 0.0817174)
(4.74642e-07 3.31183e-06 0.0852894)
(9.66103e-07 -8.33675e-06 0.0853336)
(6.75852e-07 2.76579e-06 0.0678942)
(6.30757e-07 2.70362e-06 0.0678994)
(8.81316e-07 -8.56716e-06 0.0853386)
(-1.08958e-06 5.00556e-06 0.0816799)
(2.71453e-07 3.07466e-06 0.0852944)
(-7.94894e-07 -3.30203e-06 0.0679448)
(5.87769e-07 -4.5765e-06 0.0763746)
(-3.66637e-07 2.18482e-06 0.0781179)
(-2.97486e-07 3.11845e-06 0.0894286)
(-3.1612e-07 -1.07965e-05 0.0909861)
(-6.1879e-07 2.65693e-06 0.0763403)
(-1.27546e-07 -4.82588e-06 0.0781472)
(-4.30292e-07 -1.04853e-05 0.0894682)
(6.98991e-07 -3.31528e-06 0.0679497)
(-3.09124e-07 2.82911e-06 0.0852978)
(-1.17039e-06 -8.33332e-06 0.0817272)
(-7.06647e-07 2.62471e-06 0.0679021)
(-1.01034e-06 -8.71241e-06 0.0853432)
(-5.29481e-07 -4.61411e-06 0.0763741)
(3.81145e-07 2.17869e-06 0.078118)
(2.57498e-07 3.11148e-06 0.0894295)
(2.69868e-07 -1.08072e-05 0.0909862)
(6.50356e-07 2.64245e-06 0.0763408)
(1.64151e-07 -4.83066e-06 0.0781473)
(4.22867e-07 -1.05076e-05 0.0894683)
(-6.04904e-07 -3.32261e-06 0.0679512)
(3.33857e-07 2.85312e-06 0.0852996)
(7.46623e-07 2.67361e-06 0.0679053)
(1.07763e-06 -8.70303e-06 0.0853438)
(-1.10807e-06 1.0508e-06 0.0831432)
(2.57447e-06 -2.07988e-06 0.0679137)
(2.08049e-06 -2.60349e-06 0.0679194)
(-1.4146e-06 8.33199e-07 0.0678775)
(-8.55147e-07 1.39685e-06 0.0678838)
(4.00423e-06 -4.03135e-06 0.0831733)
(5.34477e-06 -1.22323e-05 0.0913002)
(-5.0268e-06 7.62847e-06 0.0959827)
(3.45067e-06 -6.66766e-06 0.0870891)
(-2.54392e-06 9.13412e-07 0.081046)
(1.59949e-06 -5.97907e-06 0.0810826)
(7.78572e-06 -1.5903e-05 0.0960267)
(-1.96571e-06 4.05793e-06 0.0912632)
(1.22137e-05 -5.45073e-06 0.0913061)
(-7.63432e-06 4.96663e-06 0.0959864)
(6.66079e-06 -3.56209e-06 0.0870886)
(-1.0393e-06 2.5158e-06 0.0810526)
(1.59107e-05 -7.88413e-06 0.0960288)
(5.98073e-06 -1.69252e-06 0.0810863)
(-4.13082e-06 1.87957e-06 0.0912709)
(-2.34086e-06 3.9716e-06 0.0912656)
(2.32061e-06 -6.0288e-06 0.0810875)
(-3.87852e-06 3.86833e-07 0.0870539)
(7.16545e-06 -1.63731e-05 0.0960276)
(-1.87371e-06 5.88576e-07 0.0810509)
(-5.71201e-06 6.99814e-06 0.0959841)
(5.18473e-06 -1.21046e-05 0.0913018)
(-4.05498e-06 2.23477e-06 0.0912733)
(6.07518e-06 -2.36602e-06 0.0810913)
(-5.01711e-07 3.8651e-06 0.0870571)
(1.63564e-05 -7.26469e-06 0.0960297)
(-7.04702e-06 5.6193e-06 0.0959877)
(-6.898e-07 1.8821e-06 0.0810575)
(1.20925e-05 -5.26837e-06 0.0913077)
(4.54292e-06 -4.60331e-06 0.0831708)
(-1.82916e-06 6.6169e-07 0.0678719)
(-7.08986e-07 1.79086e-06 0.0678782)
(2.16914e-06 -2.26811e-06 0.0679076)
(2.24047e-06 -2.22713e-06 0.0679133)
(-6.9489e-07 6.23619e-07 0.0831405)
(3.83139e-06 -8.32984e-07 0.0710559)
(-2.13106e-06 3.01223e-06 0.0710219)
(-2.76075e-06 -4.75675e-07 0.0763338)
(1.01479e-05 -4.03682e-07 0.0894654)
(4.6177e-06 -1.0781e-08 0.0781413)
(-3.17989e-06 -3.94547e-07 0.0909496)
(-3.4313e-06 -4.13594e-07 0.089425)
(-2.39915e-06 -2.71807e-07 0.0781132)
(4.39799e-06 8.04094e-07 0.0763697)
(3.18998e-06 8.73747e-07 0.0679394)
(8.11686e-06 -7.34412e-07 0.0817171)
(-3.26377e-06 -5.50576e-07 0.0852876)
(8.31518e-06 -1.02165e-06 0.0853344)
(-2.68546e-06 -7.37024e-07 0.0678896)
(-2.61395e-06 -6.5008e-07 0.0678947)
(8.52296e-06 -8.82579e-07 0.0853394)
(-5.0403e-06 1.09387e-06 0.081681)
(-3.02769e-06 -3.19977e-07 0.0852926)
(3.25252e-06 8.731e-07 0.0679449)
(4.23353e-06 7.9668e-07 0.0763644)
(1.0158e-05 -4.43701e-07 0.0909807)
(-3.69558e-06 -6.60332e-07 0.0894216)
(-2.52587e-06 -3.70649e-07 0.0781084)
(9.84815e-06 -6.30171e-07 0.0894619)
(4.45274e-06 -7.29089e-08 0.0781363)
(-2.90558e-06 -5.71041e-07 0.0763287)
(-2.8764e-06 7.23864e-07 0.0763354)
(4.59375e-06 2.62512e-07 0.0781412)
(1.0042e-05 6.2548e-07 0.0894642)
(-3.1992e-06 3.99935e-07 0.0909497)
(-2.42392e-06 4.89513e-07 0.0781135)
(-3.55126e-06 4.99446e-07 0.0894258)
(4.37155e-06 -5.40126e-07 0.0763681)
(3.23059e-06 -6.69641e-07 0.0679397)
(8.07754e-06 1.01943e-06 0.081717)
(-3.35489e-06 5.93689e-07 0.0852897)
(8.2453e-06 1.16448e-06 0.0853336)
(-2.7896e-06 8.14747e-07 0.0678947)
(-2.74169e-06 7.9061e-07 0.0678999)
(8.39501e-06 1.11512e-06 0.0853383)
(-5.13058e-06 -8.34849e-07 0.0816811)
(-3.2095e-06 5.0262e-07 0.0852945)
(3.27916e-06 -6.70183e-07 0.0679451)
(4.22914e-06 -5.84751e-07 0.0763629)
(1.01686e-05 3.53168e-07 0.0909805)
(-2.52848e-06 4.46971e-07 0.0781087)
(-3.70801e-06 5.23065e-07 0.0894226)
(4.44803e-06 2.33049e-07 0.0781362)
(9.8408e-06 6.25376e-07 0.0894609)
(-2.98637e-06 7.0006e-07 0.0763303)
(3.87965e-06 1.01204e-06 0.0710564)
(-2.09509e-06 -2.92084e-06 0.0710217)
(1.16071e-06 3.84502e-06 0.0710565)
(-2.77745e-06 -2.07766e-06 0.0710222)
(-1.15984e-06 3.85828e-06 0.0710626)
(-4.22173e-07 -3.25008e-06 0.0909466)
(-1.00382e-06 8.34222e-06 0.0817226)
(-5.25577e-08 1.05586e-05 0.0909838)
(3.83217e-07 -3.29915e-06 0.0909473)
(-7.15114e-07 -5.20059e-06 0.0816767)
(6.17551e-07 1.04952e-05 0.0909833)
(1.12298e-06 8.21008e-06 0.0817227)
(2.90596e-06 -2.05937e-06 0.0710214)
(8.3852e-07 4.31033e-06 0.0763649)
(-2.61233e-07 -2.39492e-06 0.0781066)
(-4.60855e-07 -3.54256e-06 0.0894211)
(-2.48333e-07 1.02737e-05 0.0909814)
(-5.07065e-07 -2.76348e-06 0.0763267)
(3.5054e-08 4.53573e-06 0.0781368)
(-4.26355e-07 9.99026e-06 0.0894624)
(-6.2007e-07 -2.53946e-06 0.0678941)
(9.737e-07 -4.90525e-06 0.0816802)
(-8.88812e-07 8.60871e-06 0.0853392)
(-2.44459e-07 -2.91041e-06 0.0852923)
(8.67553e-07 3.30291e-06 0.0679453)
(-4.93597e-07 -2.60628e-06 0.0763321)
(-1.86581e-07 -2.98959e-06 0.090949)
(-2.68072e-07 1.02762e-05 0.0894658)
(3.58475e-08 4.69835e-06 0.0781419)
(-1.97749e-07 -2.23758e-06 0.0781116)
(-2.32582e-07 -3.24537e-06 0.0894246)
(7.70387e-07 4.45857e-06 0.0763705)
(-4.54644e-07 4.3078e-06 0.076363)
(5.3037e-07 -2.47376e-06 0.0781081)
(5.30447e-07 -3.67079e-06 0.089423)
(4.77886e-07 1.02461e-05 0.090981)
(7.9839e-07 -2.91642e-06 0.0763303)
(3.23651e-07 4.52111e-06 0.0781361)
(7.22495e-07 9.90327e-06 0.0894614)
(-5.35144e-07 3.22779e-06 0.0679398)
(6.39946e-07 -3.36746e-06 0.0852902)
(1.11882e-06 8.09953e-06 0.0817175)
(9.15003e-07 -2.7889e-06 0.0678946)
(1.2861e-06 8.2441e-06 0.085334)
(8.58784e-07 -2.79369e-06 0.0763355)
(5.59362e-07 -3.08662e-06 0.0909496)
(8.15604e-07 1.01239e-05 0.0894647)
(3.17808e-07 4.67644e-06 0.0781413)
(5.70553e-07 -2.33621e-06 0.0781131)
(6.54603e-07 -3.47623e-06 0.0894262)
(-4.27357e-07 4.44967e-06 0.0763684)
(9.29803e-07 -2.75151e-06 0.0679)
(-7.10314e-07 -5.0664e-06 0.0816817)
(1.29863e-06 8.40741e-06 0.0853388)
(6.71438e-07 -3.20919e-06 0.0852948)
(-5.42896e-07 3.27802e-06 0.0679454)
(-5.29325e-05 -1.66006e-06 0.101393)
(4.08944e-05 2.67954e-06 0.0993682)
(-1.34508e-05 -4.40436e-06 0.0926529)
(7.66567e-06 -1.56899e-07 0.0952826)
(4.30971e-05 1.01854e-06 0.101274)
(-1.68018e-05 -2.27403e-06 0.0953485)
(-4.9365e-05 -3.89881e-06 0.0994329)
(1.5324e-05 1.59444e-05 0.0973584)
(-7.83742e-06 -3.54114e-05 0.101408)
(-3.5603e-05 -7.39686e-06 0.101406)
(4.49299e-05 4.54491e-05 0.104522)
(1.64641e-05 4.40402e-05 0.101482)
(4.38681e-05 1.687e-05 0.101479)
(-6.69657e-06 -6.01924e-06 0.0973053)
(1.56203e-05 -1.56633e-05 0.0973597)
(-3.49695e-05 7.31938e-06 0.101406)
(-7.34791e-06 3.49604e-05 0.10141)
(4.53922e-05 -4.53797e-05 0.104523)
(1.68864e-05 -4.4146e-05 0.101483)
(4.41072e-05 -1.68846e-05 0.10148)
(-6.11161e-06 6.04112e-06 0.0973068)
(-5.13978e-05 -1.64675e-07 0.10303)
(8.33063e-06 -6.35396e-07 0.0973118)
(4.18358e-05 -6.79542e-07 0.103601)
(-1.66482e-05 -6.20106e-07 0.098383)
(4.22344e-05 -1.20489e-07 0.102893)
(-1.68208e-05 -1.02084e-06 0.0973772)
(-4.99689e-05 -2.7304e-07 0.103713)
(-5.13609e-05 -4.75212e-07 0.10303)
(4.18176e-05 1.1697e-07 0.103601)
(-1.66677e-05 -1.52054e-08 0.0983832)
(8.15441e-06 6.22509e-08 0.0973119)
(4.21837e-05 -4.16734e-07 0.102893)
(-4.99487e-05 -4.13002e-07 0.103713)
(-1.69087e-05 4.53781e-07 0.0973774)
(-5.28999e-05 1.02938e-06 0.101392)
(7.5141e-06 -2.36765e-07 0.0952826)
(4.29547e-05 -1.61074e-06 0.101273)
(-1.68305e-05 1.91977e-06 0.0953485)
(6.35417e-06 6.46047e-06 0.113101)
(5.31077e-06 1.50022e-05 0.115523)
(-5.79824e-06 1.63635e-05 0.115515)
(-1.63408e-05 5.82583e-06 0.115516)
(-6.81292e-06 6.8487e-06 0.113107)
(-5.57724e-06 1.56681e-05 0.115519)
(-1.56563e-05 5.57751e-06 0.11552)
(-8.87756e-06 8.93618e-06 0.117655)
(-9.09298e-06 9.12827e-06 0.117629)
(-1.63487e-05 -5.70319e-06 0.115514)
(-5.88016e-06 -1.618e-05 0.115515)
(-6.96546e-06 -6.8805e-06 0.113106)
(-1.56598e-05 -5.49766e-06 0.115518)
(-5.62114e-06 -1.55157e-05 0.11552)
(-8.91323e-06 -8.79029e-06 0.117654)
(-9.12128e-06 -9.01032e-06 0.117629)
(-5.41942e-06 1.5012e-05 0.115523)
(-4.29962e-05 -2.2995e-07 0.102898)
(1.6301e-05 -1.00392e-06 0.0973775)
(4.94818e-05 -1.48083e-07 0.103719)
(-8.53703e-06 -5.49971e-07 0.0983284)
(-8.8806e-06 -6.9095e-07 0.0973121)
(-4.26166e-05 -6.21941e-07 0.103607)
(5.09479e-05 -2.12186e-07 0.103034)
(5.19096e-05 -2.17917e-06 0.1014)
(-4.24929e-05 2.08007e-06 0.0993696)
(1.23367e-05 -4.12074e-06 0.092646)
(-8.77713e-06 -3.74296e-07 0.09528)
(4.8308e-05 -4.44489e-06 0.0994337)
(1.57565e-05 -2.40669e-06 0.095346)
(-4.46337e-05 5.29036e-07 0.101281)
(-4.38389e-05 7.45497e-07 0.101277)
(1.63167e-05 -2.19689e-06 0.0953471)
(-7.73506e-06 2.44957e-06 0.0925978)
(4.89314e-05 -3.99719e-06 0.0994326)
(-4.16611e-05 2.46861e-06 0.0993685)
(-8.21323e-06 -1.79499e-07 0.0952812)
(5.24943e-05 -1.84634e-06 0.101396)
(5.04468e-05 -3.36695e-07 0.10304)
(1.56513e-05 -5.90359e-07 0.0983862)
(-9.35915e-06 -7.85832e-07 0.0973127)
(-4.32222e-05 -5.79072e-07 0.103613)
(1.57976e-05 -1.18995e-06 0.0973782)
(4.90712e-05 -1.87342e-07 0.103725)
(-4.36905e-05 -2.4036e-07 0.102902)
(2.39975e-06 -7.38684e-06 0.0925977)
(4.03995e-08 -7.91494e-06 0.0952813)
(-1.98759e-06 1.65512e-05 0.0953475)
(1.10843e-06 -4.35042e-05 0.101277)
(-3.68814e-06 4.91848e-05 0.0994328)
(2.81275e-06 -4.12936e-05 0.0993691)
(-1.46371e-06 5.27484e-05 0.101396)
(-4.12618e-07 -8.71487e-06 0.0973123)