/*--------------------------------*- C++ -*----------------------------------*\
| =========                 |                                                 |
| \\      /  F ield         | OpenFOAM: The Open Source CFD Toolbox           |
|  \\    /   O peration     | Version:  v2006                                 |
|   \\  /    A nd           | Website:  www.openfoam.com                      |
|    \\/     M anipulation  |                                                 |
\*---------------------------------------------------------------------------*/
FoamFile
{
    version     2.0;
    format      ascii;
    class       volScalarField;
    location    "125";
    object      epsilon;
}
// * * * * * * * * * * * * * * * * * * * * * * * * * * * * * * * * * * * * * //

dimensions      [0 2 -3 0 0 0 0];


internalField   nonuniform List<scalar> 
14212
(
3.84438e-06
8.8936e-06
1.82745e-05
8.89459e-06
3.13257e-07
3.04429e-06
1.82729e-05
1.82747e-05
5.26532e-07
5.21432e-06
5.21544e-06
3.84434e-06
8.89361e-06
1.50805e-06
3.13327e-07
3.04425e-06
1.78789e-07
1.50801e-06
3.13421e-07
3.0446e-06
1.78778e-07
5.26631e-07
5.21552e-06
5.21426e-06
1.82734e-05
3.13369e-07
3.04471e-06
8.89422e-06
1.20977e-05
3.84448e-06
1.07003e-05
4.5659e-06
1.07e-05
4.56582e-06
1.20983e-05
2.21091e-05
7.10079e-06
8.89341e-06
7.10091e-06
2.21129e-05
1.82723e-05
8.89427e-06
1.82712e-05
1.82722e-05
9.63402e-06
2.16896e-05
2.16913e-05
2.16882e-05
2.16888e-05
9.63293e-06
4.13767e-06
9.11149e-06
5.21467e-06
2.24904e-06
9.11168e-06
4.13675e-06
2.24921e-06
4.13986e-06
5.2156e-06
9.11453e-06
2.25125e-06
9.11335e-06
4.14007e-06
2.25106e-06
1.20981e-05
3.84443e-06
1.07002e-05
4.5658e-06
1.06999e-05
4.5657e-06
1.20987e-05
2.21105e-05
7.09967e-06
8.89337e-06
7.09968e-06
2.21143e-05
2.16904e-05
2.169e-05
9.63279e-06
4.14167e-06
9.11499e-06
5.21577e-06
2.25094e-06
9.11465e-06
2.25115e-06
4.14153e-06
9.11134e-06
2.24939e-06
4.13591e-06
1.23485e-07
9.12364e-08
1.23457e-07
9.12363e-08
1.34345e-06
2.06854e-06
5.28198e-07
1.07732e-06
1.07828e-06
2.06808e-06
1.07838e-06
1.07918e-06
6.97314e-07
1.50839e-06
1.80535e-06
5.78324e-07
1.80581e-06
5.79298e-07
6.95691e-07
9.27477e-07
2.37811e-06
3.04475e-06
1.34346e-06
2.37873e-06
1.34448e-06
9.2585e-07
6.97288e-07
1.50834e-06
1.80526e-06
5.78309e-07
1.80567e-06
5.79285e-07
6.95669e-07
9.27451e-07
2.37793e-06
3.04509e-06
1.34391e-06
2.37845e-06
9.25852e-07
1.3449e-06
2.06868e-06
5.28285e-07
1.07811e-06
1.07761e-06
1.07866e-06
1.07919e-06
2.06824e-06
3.04512e-06
1.34388e-06
1.34474e-06
9.63299e-06
2.16875e-05
2.16871e-05
4.13603e-06
5.21444e-06
2.24944e-06
9.11106e-06
1.82714e-05
8.89398e-06
3.04474e-06
1.34441e-06
1.5083e-06
1.78705e-07
3.84421e-06
1.5083e-06
3.13237e-07
1.78725e-07
3.04452e-06
3.84413e-06
8.89377e-06
3.13166e-07
3.04497e-06
8.89438e-06
5.28241e-07
5.21435e-06
5.21587e-06
1.82723e-05
1.82741e-05
1.20982e-05
4.56567e-06
1.07002e-05
3.84415e-06
1.20975e-05
4.56569e-06
1.07006e-05
1.20985e-05
1.07e-05
4.56543e-06
3.84407e-06
1.20978e-05
1.07004e-05
4.56553e-06
2.21135e-05
7.09932e-06
8.89401e-06
2.21097e-05
7.09929e-06
8.89461e-06
9.63281e-06
2.16871e-05
2.16873e-05
9.6331e-06
2.16901e-05
2.16902e-05
4.13544e-06
9.11043e-06
2.24926e-06
5.21412e-06
4.13585e-06
2.24903e-06
9.11075e-06
4.14169e-06
9.11513e-06
2.25088e-06
5.21567e-06
4.14195e-06
2.25065e-06
9.11544e-06
1.82743e-05
1.82762e-05
1.23458e-07
6.9537e-07
1.80561e-06
5.79162e-07
1.50786e-06
6.97074e-07
1.80504e-06
5.78076e-07
6.95389e-07
5.7917e-07
1.80557e-06
1.50782e-06
6.97096e-07
5.7808e-07
1.80497e-06
9.25489e-07
2.37814e-06
1.34414e-06
3.04405e-06
9.27172e-07
2.37751e-06
1.34318e-06
1.34457e-06
3.04449e-06
1.34361e-06
2.06795e-06
5.26504e-07
1.07846e-06
1.07895e-06
2.06854e-06
1.07732e-06
1.07781e-06
2.21127e-05
7.10102e-06
2.21086e-05
7.10066e-06
9.25461e-07
2.37846e-06
9.2713e-07
2.37783e-06
7.10068e-06
2.21127e-05
2.37801e-06
9.25741e-07
3.84433e-06
1.50792e-06
5.26345e-07
1.78754e-07
3.13303e-07
3.84432e-06
3.8443e-06
5.26487e-07
1.82743e-05
1.23451e-07
3.13253e-07
1.78759e-07
5.28136e-07
1.78782e-07
1.78772e-07
5.26263e-07
3.13249e-07
1.78779e-07
8.89406e-06
5.21515e-06
3.1333e-07
1.78776e-07
5.28053e-07
3.04492e-06
3.84455e-06
1.50836e-06
1.7878e-07
8.89383e-06
5.28122e-07
3.13307e-07
3.84447e-06
3.84437e-06
1.82723e-05
9.1235e-08
9.12354e-08
9.12388e-08
9.12279e-08
8.89436e-06
3.84437e-06
3.13191e-07
3.0444e-06
1.50796e-06
3.13226e-07
1.78781e-07
1.78776e-07
8.89434e-06
3.13417e-07
1.78772e-07
3.0448e-06
3.13415e-07
1.78772e-07
1.82757e-05
5.21589e-06
5.21442e-06
1.82739e-05
3.13253e-07
1.50787e-06
3.04436e-06
3.13251e-07
1.78754e-07
1.78776e-07
1.50788e-06
3.04477e-06
3.13293e-07
1.78773e-07
3.04523e-06
8.89435e-06
8.89466e-06
8.8944e-06
5.21429e-06
5.21578e-06
5.28231e-07
5.21446e-06
5.21596e-06
1.82723e-05
1.82761e-05
1.8274e-05
3.84423e-06
8.8936e-06
3.84447e-06
1.82723e-05
8.89413e-06
3.84452e-06
9.12361e-08
9.12394e-08
9.12282e-08
1.78766e-07
1.50805e-06
3.04473e-06
1.50833e-06
1.78766e-07
1.82736e-05
3.13265e-07
1.50829e-06
3.04481e-06
5.21446e-06
5.21596e-06
5.26493e-07
5.21429e-06
5.21581e-06
1.82737e-05
1.82718e-05
1.82737e-05
5.28005e-07
5.21479e-06
5.26281e-07
5.21504e-06
5.21527e-06
3.84417e-06
1.50789e-06
1.50786e-06
3.8444e-06
8.89384e-06
8.89373e-06
3.84434e-06
3.84434e-06
8.89358e-06
8.89333e-06
3.84427e-06
3.1339e-07
3.13386e-07
1.78784e-07
1.50831e-06
3.04452e-06
3.04507e-06
1.50793e-06
1.78774e-07
3.13415e-07
3.13411e-07
1.50828e-06
3.04455e-06
3.04501e-06
1.50787e-06
1.82744e-05
1.82722e-05
5.28113e-07
5.21541e-06
5.21429e-06
5.21561e-06
5.21455e-06
1.82735e-05
1.82714e-05
1.78766e-07
3.13245e-07
1.78766e-07
1.50841e-06
3.04427e-06
3.04475e-06
1.50792e-06
3.84443e-06
8.89419e-06
8.89396e-06
3.84436e-06
3.13379e-07
3.04432e-06
1.78776e-07
3.13373e-07
3.04476e-06
1.50838e-06
1.5079e-06
8.8938e-06
3.84433e-06
3.84429e-06
1.82717e-05
1.82716e-05
5.28101e-07
5.21542e-06
8.89335e-06
3.84441e-06
1.78787e-07
3.04493e-06
1.50834e-06
3.13417e-07
3.04505e-06
1.50829e-06
5.21572e-06
5.21445e-06
1.82714e-05
1.5084e-06
3.13232e-07
1.78775e-07
8.89411e-06
3.13427e-07
1.78776e-07
3.04527e-06
3.84443e-06
8.89396e-06
3.84443e-06
3.13385e-07
3.04478e-06
1.50804e-06
3.13392e-07
1.5083e-06
1.78782e-07
3.04436e-06
3.84435e-06
3.84435e-06
8.89409e-06
5.21616e-06
5.21459e-06
1.82718e-05
1.78778e-07
1.50832e-06
3.04522e-06
3.1331e-07
3.0448e-06
8.89412e-06
8.89444e-06
8.8947e-06
1.82743e-05
1.82741e-05
1.82761e-05
1.20979e-05
1.07001e-05
4.56576e-06
3.84454e-06
1.06998e-05
4.56572e-06
1.20986e-05
1.20972e-05
4.56579e-06
1.07002e-05
3.84446e-06
4.5659e-06
1.06998e-05
1.20978e-05
1.20981e-05
4.5658e-06
1.07004e-05
3.84435e-06
4.56568e-06
1.07e-05
1.20988e-05
1.82723e-05
2.21095e-05
8.89381e-06
7.09926e-06
7.09927e-06
2.21134e-05
4.1387e-06
2.24993e-06
9.1119e-06
5.21469e-06
4.13716e-06
9.11271e-06
2.24969e-06
1.20986e-05
1.06998e-05
4.56573e-06
3.84443e-06
1.20979e-05
1.07002e-05
4.56577e-06
2.21134e-05
7.0993e-06
8.89407e-06
2.21096e-05
7.09929e-06
1.20979e-05
4.5659e-06
1.06998e-05
3.84441e-06
1.20972e-05
4.56592e-06
1.07002e-05
1.20988e-05
4.56571e-06
1.07001e-05
3.84435e-06
1.20982e-05
4.56583e-06
1.07004e-05
1.82743e-05
2.21091e-05
8.89413e-06
7.10089e-06
7.10107e-06
2.21131e-05
1.20978e-05
4.56592e-06
1.07004e-05
3.84451e-06
4.56584e-06
1.07e-05
1.20984e-05
2.21096e-05
7.09938e-06
8.89411e-06
7.09944e-06
2.21135e-05
1.82736e-05
4.1421e-06
2.25083e-06
9.11562e-06
5.21615e-06
2.25106e-06
9.11532e-06
4.14195e-06
9.63353e-06
2.16906e-05
2.16908e-05
2.16878e-05
2.16879e-05
9.63331e-06
4.13539e-06
2.24938e-06
9.11066e-06
5.21458e-06
9.11035e-06
2.24959e-06
4.13525e-06
1.82718e-05
2.21081e-05
7.10059e-06
8.8941e-06
7.10092e-06
2.21123e-05
2.21104e-05
7.09969e-06
8.89442e-06
7.09968e-06
2.21143e-05
2.21142e-05
8.89464e-06
7.09964e-06
2.21104e-05
7.09965e-06
4.13611e-06
2.24933e-06
9.11096e-06
5.21448e-06
9.11065e-06
4.13582e-06
2.24954e-06
9.63319e-06
2.16899e-05
2.16903e-05
2.16868e-05
2.16874e-05
9.63291e-06
4.14182e-06
2.25103e-06
9.11551e-06
5.21595e-06
2.25125e-06
9.11518e-06
4.14163e-06
4.13593e-06
5.21428e-06
2.2495e-06
9.11069e-06
9.11096e-06
2.24929e-06
4.13617e-06
9.63291e-06
2.16869e-05
2.16872e-05
2.16899e-05
2.16903e-05
9.63315e-06
4.14157e-06
5.21577e-06
2.25127e-06
9.11514e-06
2.25105e-06
9.11547e-06
4.14171e-06
1.82743e-05
1.8274e-05
1.82761e-05
1.20977e-05
1.07003e-05
4.56589e-06
3.84434e-06
1.06999e-05
4.56581e-06
1.20983e-05
2.21133e-05
7.10112e-06
8.89372e-06
2.21094e-05
7.1009e-06
1.20984e-05
3.84433e-06
1.06999e-05
4.56588e-06
1.20977e-05
1.07003e-05
4.56593e-06
1.82745e-05
2.21134e-05
7.10102e-06
8.89442e-06
2.21092e-05
7.10099e-06
1.20985e-05
4.56585e-06
1.07e-05
3.84442e-06
1.20978e-05
4.56595e-06
1.07004e-05
1.82757e-05
4.13577e-06
2.2496e-06
9.11059e-06
5.21428e-06
4.13603e-06
2.24939e-06
9.11092e-06
9.63295e-06
2.16869e-05
2.16874e-05
9.63322e-06
2.169e-05
2.16903e-05
4.1417e-06
2.25123e-06
9.11522e-06
5.21579e-06
4.14189e-06
2.251e-06
9.11555e-06
9.63336e-06
2.16904e-05
2.16903e-05
2.16871e-05
2.16874e-05
9.63307e-06
4.13602e-06
5.21447e-06
9.11094e-06
2.24952e-06
2.24965e-06
9.11063e-06
4.13572e-06
4.14196e-06
5.21598e-06
9.11558e-06
2.25106e-06
2.25121e-06
9.11526e-06
4.14182e-06
1.82716e-05
1.82739e-05
1.82717e-05
4.13768e-06
5.21505e-06
2.24958e-06
9.11207e-06
2.24973e-06
9.11181e-06
4.13741e-06
4.13959e-06
2.2504e-06
5.21524e-06
9.11395e-06
9.11367e-06
2.25069e-06
4.13954e-06
4.13924e-06
2.25081e-06
9.1136e-06
5.21509e-06
4.13933e-06
9.11394e-06
2.25055e-06
9.63296e-06
2.16886e-05
2.16917e-05
2.1689e-05
2.16855e-05
9.63267e-06
1.2098e-05
1.07002e-05
4.56573e-06
3.84427e-06
1.06998e-05
4.56563e-06
1.20987e-05
1.20983e-05
1.06999e-05
4.56585e-06
3.84428e-06
1.20977e-05
1.07003e-05
4.56591e-06
2.21093e-05
8.89363e-06
7.10087e-06
2.21133e-05
7.10115e-06
2.21133e-05
7.10114e-06
8.89395e-06
2.21093e-05
7.10092e-06
1.20977e-05
3.84445e-06
1.07003e-05
4.56595e-06
1.20983e-05
1.06999e-05
4.56587e-06
1.20987e-05
1.06998e-05
4.56564e-06
3.84422e-06
1.2098e-05
1.07002e-05
4.56575e-06
2.21104e-05
8.89334e-06
7.09965e-06
7.09964e-06
2.21143e-05
2.21143e-05
7.09963e-06
8.89357e-06
2.21104e-05
7.09963e-06
1.20981e-05
3.84438e-06
1.07002e-05
4.56578e-06
1.06998e-05
4.56566e-06
1.20987e-05
1.82722e-05
1.82744e-05
9.63275e-06
2.16874e-05
2.16874e-05
2.16905e-05
2.16902e-05
9.633e-06
4.1415e-06
2.25095e-06
5.21566e-06
9.11487e-06
2.25124e-06
9.11453e-06
4.14129e-06
4.1362e-06
2.24915e-06
5.21448e-06
9.11139e-06
9.1111e-06
2.24931e-06
4.136e-06
4.14117e-06
2.25123e-06
9.11436e-06
5.21537e-06
2.25099e-06
9.11476e-06
4.14135e-06
4.13611e-06
2.24931e-06
9.11134e-06
5.21432e-06
9.11152e-06
2.24908e-06
4.13644e-06
9.63296e-06
2.16904e-05
2.16899e-05
2.16876e-05
2.16871e-05
9.63273e-06
1.82714e-05
1.82735e-05
1.20982e-05
4.56582e-06
1.07002e-05
3.84434e-06
4.56582e-06
1.07006e-05
1.20975e-05
2.21085e-05
8.89394e-06
7.10065e-06
7.10098e-06
2.21126e-05
2.21126e-05
7.10098e-06
8.89417e-06
7.10064e-06
2.21084e-05
1.20975e-05
3.84443e-06
4.56584e-06
1.07006e-05
4.56581e-06
1.07002e-05
1.20982e-05
2.21134e-05
8.89404e-06
7.09929e-06
7.09923e-06
2.21095e-05
1.20984e-05
4.56556e-06
1.07e-05
3.84425e-06
1.07004e-05
4.56564e-06
1.20978e-05
1.20978e-05
4.56567e-06
3.84435e-06
1.07004e-05
1.07e-05
4.56556e-06
1.20985e-05
1.82735e-05
1.82739e-05
4.13989e-06
2.25073e-06
9.11344e-06
5.21456e-06
4.13949e-06
9.11293e-06
2.24944e-06
9.63524e-06
2.16866e-05
2.16886e-05
9.63226e-06
2.16917e-05
2.1691e-05
2.21143e-05
7.09966e-06
8.8936e-06
2.21104e-05
7.09966e-06
1.20987e-05
3.84428e-06
1.06999e-05
4.56568e-06
1.07002e-05
1.20981e-05
4.56579e-06
4.1414e-06
2.25119e-06
9.11459e-06
5.21546e-06
9.11493e-06
4.14159e-06
2.25091e-06
4.13592e-06
2.24938e-06
9.11108e-06
5.21427e-06
2.24924e-06
4.1361e-06
9.11137e-06
9.63275e-06
2.16875e-05
2.1687e-05
2.16904e-05
9.63296e-06
2.16899e-05
1.82735e-05
2.21135e-05
7.09945e-06
8.89433e-06
2.21096e-05
7.09939e-06
1.20976e-05
3.84445e-06
4.56587e-06
1.07007e-05
4.56585e-06
1.07003e-05
1.20982e-05
2.21127e-05
7.101e-06
8.8942e-06
7.10067e-06
2.21085e-05
1.20982e-05
3.84438e-06
4.56583e-06
1.07003e-05
4.56585e-06
1.20976e-05
1.07006e-05
2.21085e-05
7.10101e-06
1.20979e-05
3.84437e-06
1.07004e-05
4.56572e-06
1.07e-05
4.56561e-06
1.20985e-05
1.20985e-05
4.56558e-06
3.84431e-06
1.07e-05
1.20978e-05
1.07004e-05
4.56569e-06
2.21096e-05
8.89385e-06
7.09931e-06
7.09932e-06
2.21134e-05
4.14208e-06
2.25106e-06
9.11532e-06
5.21591e-06
4.1421e-06
9.11561e-06
2.25093e-06
9.63332e-06
2.16878e-05
2.16879e-05
9.63355e-06
2.16906e-05
2.16908e-05
4.13526e-06
2.2496e-06
9.11036e-06
5.21443e-06
4.13539e-06
2.24947e-06
9.11067e-06
1.82739e-05
2.21123e-05
7.10094e-06
8.89437e-06
2.21081e-05
7.10061e-06
2.21143e-05
7.09971e-06
8.89468e-06
2.21104e-05
7.09972e-06
2.21105e-05
8.89446e-06
7.09974e-06
7.09973e-06
2.21143e-05
1.82723e-05
1.82761e-05
1.82741e-05
6.97278e-07
5.78275e-07
1.80517e-06
1.50832e-06
5.79264e-07
1.8057e-06
6.95662e-07
2.06865e-06
1.07801e-06
1.07769e-06
5.28016e-07
1.07906e-06
1.07874e-06
2.0682e-06
2.0687e-06
1.07764e-06
1.07816e-06
5.28224e-07
1.07922e-06
2.06824e-06
1.07869e-06
9.12352e-08
9.12321e-08
7.72614e-08
2.06827e-06
1.07871e-06
1.07921e-06
5.26418e-07
2.06872e-06
1.07766e-06
1.07817e-06
2.06864e-06
5.2795e-07
1.07812e-06
1.07753e-06
1.07919e-06
1.07856e-06
2.06819e-06
2.06822e-06
1.07919e-06
1.0786e-06
5.26468e-07
1.07757e-06
2.06865e-06
1.07812e-06
9.25787e-07
2.37868e-06
1.34445e-06
3.0445e-06
9.27379e-07
2.37809e-06
1.34356e-06
6.95684e-07
5.79257e-07
1.80572e-06
1.50799e-06
6.97286e-07
5.7828e-07
1.80523e-06
2.06825e-06
1.07908e-06
1.07876e-06
5.26522e-07
2.06865e-06
1.0777e-06
1.07802e-06
1.23469e-07
1.23468e-07
9.12343e-08
9.12312e-08
9.12286e-08
7.72602e-08
7.72602e-08
9.12358e-08
1.23457e-07
9.12291e-08
1.23456e-07
9.12285e-08
7.72586e-08
7.72587e-08
1.23474e-07
9.12321e-08
9.12359e-08
1.23471e-07
9.12308e-08
7.7261e-08
7.72619e-08
1.23456e-07
9.12377e-08
1.23455e-07
9.12366e-08
9.12275e-08
7.72604e-08
7.72604e-08
9.27338e-07
3.04485e-06
2.37806e-06
1.3434e-06
2.37862e-06
1.34435e-06
9.2575e-07
6.97269e-07
1.80526e-06
5.78289e-07
1.50837e-06
1.80572e-06
5.79277e-07
6.95657e-07
9.27491e-07
2.37787e-06
1.34398e-06
3.04529e-06
2.3785e-06
1.34496e-06
9.25877e-07
6.97263e-07
5.78278e-07
1.80508e-06
1.50829e-06
5.7925e-07
1.80565e-06
6.95643e-07
9.27355e-07
1.34346e-06
2.37795e-06
3.0448e-06
1.34444e-06
2.3786e-06
9.25735e-07
6.97314e-07
5.78301e-07
1.80508e-06
1.5083e-06
5.79277e-07
1.80559e-06
6.95698e-07
9.27435e-07
1.344e-06
2.37775e-06
3.04522e-06
2.37833e-06
1.34498e-06
9.25833e-07
9.25808e-07
3.04476e-06
1.34496e-06
2.37833e-06
9.27418e-07
2.37771e-06
1.34397e-06
2.06825e-06
5.26541e-07
1.0787e-06
1.07922e-06
1.07816e-06
1.07762e-06
2.06868e-06
1.23457e-07
9.12288e-08
9.12288e-08
7.72591e-08
1.23475e-07
9.12331e-08
1.23476e-07
9.12398e-08
7.7262e-08
1.2346e-07
9.1237e-08
7.72602e-08
6.97288e-07
1.50835e-06
1.80522e-06
5.78316e-07
1.80565e-06
5.79288e-07
6.95673e-07
9.25729e-07
1.34441e-06
2.3785e-06
3.04428e-06
9.27315e-07
1.34343e-06
2.37788e-06
6.9567e-07
5.79295e-07
1.50792e-06
1.80563e-06
6.9727e-07
1.80508e-06
5.78305e-07
9.27324e-07
2.37855e-06
6.95662e-07
5.79266e-07
1.80563e-06
1.50795e-06
6.97265e-07
5.78299e-07
1.80514e-06
9.25748e-07
1.34445e-06
2.3786e-06
3.04436e-06
9.27349e-07
1.34346e-06
2.37799e-06
2.06873e-06
5.2812e-07
1.07771e-06
1.07819e-06
1.07875e-06
1.07923e-06
2.06829e-06
2.06809e-06
1.0783e-06
5.26218e-07
1.07934e-06
1.07724e-06
2.06852e-06
1.07822e-06
2.06852e-06
5.27923e-07
1.07733e-06
1.07812e-06
1.07836e-06
1.07926e-06
2.06806e-06
6.97322e-07
5.78297e-07
1.80519e-06
1.50833e-06
1.80576e-06
5.79279e-07
6.95698e-07
6.97227e-07
5.78282e-07
1.80505e-06
1.50829e-06
1.80562e-06
5.79258e-07
6.95623e-07
6.95709e-07
5.79286e-07
1.80573e-06
1.50788e-06
6.97319e-07
1.80518e-06
5.78298e-07
9.2759e-07
1.34392e-06
3.045e-06
2.37818e-06
1.34497e-06
2.37878e-06
9.25955e-07
9.2596e-07
1.34501e-06
2.37877e-06
3.0446e-06
1.344e-06
9.27565e-07
2.37815e-06
6.9732e-07
5.78298e-07
1.50833e-06
1.80524e-06
1.80574e-06
5.79286e-07
6.95708e-07
6.95645e-07
5.7927e-07
1.80558e-06
1.50785e-06
6.97244e-07
1.80503e-06
5.7828e-07
9.27404e-07
1.34389e-06
3.04503e-06
2.37772e-06
2.37831e-06
1.34486e-06
9.25795e-07
9.25781e-07
1.34484e-06
2.3783e-06
3.04452e-06
9.27372e-07
2.37769e-06
1.34386e-06
6.97251e-07
5.78271e-07
1.50828e-06
1.80505e-06
1.80557e-06
5.79266e-07
6.95643e-07
2.06819e-06
5.26302e-07
1.0792e-06
1.07856e-06
1.07811e-06
1.07748e-06
2.06862e-06
6.9566e-07
5.7929e-07
1.80578e-06
1.50794e-06
1.80516e-06
5.78308e-07
6.9727e-07
9.27318e-07
1.34342e-06
3.04472e-06
2.37787e-06
9.25718e-07
1.34439e-06
2.37853e-06
9.25721e-07
1.34442e-06
2.37863e-06
3.04426e-06
1.34341e-06
2.37792e-06
9.27349e-07
6.97257e-07
5.78313e-07
1.50836e-06
1.8051e-06
6.95658e-07
1.80568e-06
5.79291e-07
9.2732e-07
1.34354e-06
3.04477e-06
2.37756e-06
1.3445e-06
2.37815e-06
9.25736e-07
9.25717e-07
3.0443e-06
1.34449e-06
2.37824e-06
1.3435e-06
2.37756e-06
9.27332e-07
6.95676e-07
5.79302e-07
1.80568e-06
1.50793e-06
5.78318e-07
1.80509e-06
6.97281e-07
6.97274e-07
5.78322e-07
1.80503e-06
1.50834e-06
5.79301e-07
1.80558e-06
6.95677e-07
2.06808e-06
1.07845e-06
1.07917e-06
5.26393e-07
2.06843e-06
1.07743e-06
1.07741e-06
9.25906e-07
1.34481e-06
2.37883e-06
3.04434e-06
2.37814e-06
9.27564e-07
1.34358e-06
6.95701e-07
5.79275e-07
1.50794e-06
1.80578e-06
1.80526e-06
6.97323e-07
5.783e-07
9.25823e-07
1.34487e-06
2.37837e-06
3.04457e-06
9.27421e-07
2.37779e-06
1.34389e-06
6.95667e-07
5.79254e-07
1.50789e-06
1.8056e-06
6.97268e-07
1.8051e-06
5.78281e-07
6.9568e-07
1.80582e-06
5.79271e-07
1.50804e-06
6.97283e-07
1.80536e-06
5.78291e-07
9.25897e-07
2.37852e-06
1.34496e-06
3.04477e-06
9.27488e-07
2.37792e-06
1.34397e-06
9.25763e-07
1.34452e-06
2.37818e-06
3.04433e-06
1.34354e-06
9.27341e-07
2.37761e-06
6.97305e-07
1.50833e-06
5.7833e-07
1.8052e-06
5.79299e-07
1.80559e-06
6.95696e-07
6.95694e-07
5.79298e-07
1.80555e-06
1.50791e-06
5.78314e-07
6.97287e-07
1.80504e-06
9.27366e-07
3.04481e-06
2.37773e-06
1.34355e-06
1.34454e-06
2.37826e-06
9.25771e-07
6.95715e-07
5.79294e-07
1.80561e-06
1.50799e-06
6.97316e-07
5.78326e-07
1.8052e-06
9.25864e-07
1.34497e-06
2.3784e-06
3.04478e-06
9.27465e-07
1.344e-06
2.37782e-06
9.27481e-07
3.04524e-06
2.37792e-06
1.34401e-06
1.34499e-06
2.37846e-06
9.25866e-07
1.23442e-07
3.13154e-07
3.13276e-07
5.27947e-07
1.23455e-07
3.13189e-07
3.1322e-07
5.28127e-07
1.23456e-07
3.1322e-07
3.13247e-07
5.28113e-07
1.2345e-07
3.13228e-07
3.1325e-07
5.28013e-07
1.23444e-07
3.13225e-07
3.13248e-07
5.28065e-07
1.23444e-07
3.13226e-07
3.13247e-07
5.28198e-07
1.23452e-07
3.13235e-07
3.13249e-07
5.2824e-07
5.28115e-07
3.13295e-07
5.26331e-07
3.13143e-07
3.13246e-07
3.13174e-07
5.26335e-07
5.215e-06
5.26205e-07
3.13255e-07
3.13306e-07
3.13232e-07
3.13333e-07
5.27959e-07
5.26319e-07
3.04469e-06
3.84447e-06
1.50835e-06
3.13225e-07
3.13311e-07
3.13258e-07
3.13179e-07
3.1331e-07
5.2153e-06
5.26372e-07
3.13192e-07
3.13211e-07
3.13237e-07
5.26445e-07
5.27837e-07
5.26309e-07
3.13246e-07
3.13345e-07
3.13281e-07
3.13364e-07
5.2805e-07
5.26272e-07
3.13229e-07
3.13326e-07
3.13244e-07
3.13364e-07
3.13321e-07
3.13215e-07
3.13355e-07
5.2805e-07
5.26372e-07
3.13247e-07
3.13243e-07
3.13278e-07
5.26392e-07
5.27907e-07
5.26432e-07
3.1329e-07
3.13364e-07
3.13307e-07
3.13371e-07
5.27966e-07
5.26379e-07
3.13246e-07
3.13372e-07
3.13253e-07
3.13391e-07
3.13361e-07
3.13227e-07
3.13363e-07
5.28061e-07
5.26444e-07
3.13281e-07
3.13249e-07
3.13283e-07
5.26344e-07
5.28015e-07
5.26491e-07
3.13307e-07
3.13371e-07
3.13312e-07
3.13373e-07
5.28019e-07
5.26464e-07
3.13251e-07
3.13391e-07
3.13252e-07
3.13392e-07
3.13362e-07
3.13227e-07
3.13362e-07
5.28134e-07
5.26506e-07
3.1328e-07
3.13249e-07
3.1328e-07
5.26469e-07
5.28144e-07
5.26406e-07
3.13312e-07
3.13371e-07
3.13322e-07
3.13369e-07
5.28156e-07
5.264e-07
3.1325e-07
3.13391e-07
3.1325e-07
3.13398e-07
3.13361e-07
3.13225e-07
3.13361e-07
5.28227e-07
5.26434e-07
3.13277e-07
3.13246e-07
3.13277e-07
5.26557e-07
5.28129e-07
5.26384e-07
3.13326e-07
3.13369e-07
3.13339e-07
3.13373e-07
5.28173e-07
5.26347e-07
3.13249e-07
3.13401e-07
3.13252e-07
3.1341e-07
3.13361e-07
3.13233e-07
3.13366e-07
5.28218e-07
5.26382e-07
3.13276e-07
3.13248e-07
3.1328e-07
5.26511e-07
5.28104e-07
5.26392e-07
3.13339e-07
3.13372e-07
3.13397e-07
9.25629e-07
5.28136e-07
3.13252e-07
3.1341e-07
3.13213e-07
3.1341e-07
3.13367e-07
3.13321e-07
1.50788e-06
3.84423e-06
5.28128e-07
5.26429e-07
3.1328e-07
3.1325e-07
3.13206e-07
5.26398e-07
1.82747e-05
1.82727e-05
3.1332e-07
1.50834e-06
3.84433e-06
8.89434e-06
3.04415e-06
3.13115e-07
1.82753e-05
5.21524e-06
5.26322e-07
5.21468e-06
1.82746e-05
1.23446e-07
1.2346e-07
3.84412e-06
8.89354e-06
3.84431e-06
8.89353e-06
1.82722e-05
1.82743e-05
8.89411e-06
3.84434e-06
3.84419e-06
8.89463e-06
1.23472e-07
1.23448e-07
1.23461e-07
1.23455e-07
1.23451e-07
1.2348e-07
1.23468e-07
1.50796e-06
3.0445e-06
1.78716e-07
3.13165e-07
1.50832e-06
3.04409e-06
1.7872e-07
1.82728e-05
1.82755e-05
3.0449e-06
1.50792e-06
1.78733e-07
3.13205e-07
1.50836e-06
1.78739e-07
3.04424e-06
5.21429e-06
5.21586e-06
5.2629e-07
5.2141e-06
5.21568e-06
3.84403e-06
8.89318e-06
3.84415e-06
8.8934e-06
1.8272e-05
1.82742e-05
3.84415e-06
8.89449e-06
3.84428e-06
8.89472e-06
1.23453e-07
1.23479e-07
1.2347e-07
1.23456e-07
1.23456e-07
1.23478e-07
1.23473e-07
1.50799e-06
3.04459e-06
1.78737e-07
3.13202e-07
1.50836e-06
3.04417e-06
1.78742e-07
1.82736e-05
1.82759e-05
1.50793e-06
1.78753e-07
3.0447e-06
3.13228e-07
1.50832e-06
1.78757e-07
3.04425e-06
5.21426e-06
5.21587e-06
5.26427e-07
5.21408e-06
5.21569e-06
3.84395e-06
8.89315e-06
3.84404e-06
8.89339e-06
1.82719e-05
1.82741e-05
3.84411e-06
8.89447e-06
3.84421e-06
8.89471e-06
1.23456e-07
1.23477e-07
1.23473e-07
1.23452e-07
1.23453e-07
1.23471e-07
1.2347e-07
1.50802e-06
3.04465e-06
1.78757e-07
3.13223e-07
1.50842e-06
3.04421e-06
1.78757e-07
1.82738e-05
1.82758e-05
1.50797e-06
1.78767e-07
3.04472e-06
3.13247e-07
1.50838e-06
1.78766e-07
3.04426e-06
5.21425e-06
5.21587e-06
5.26551e-07
5.21407e-06
5.21569e-06
3.84396e-06
8.89316e-06
3.84402e-06
8.89342e-06
1.8272e-05
1.82742e-05
3.8441e-06
8.89451e-06
3.84419e-06
8.89478e-06
1.23451e-07
1.23468e-07
1.23467e-07
1.23445e-07
1.23446e-07
1.23461e-07
1.23461e-07
1.50791e-06
3.04466e-06
1.78757e-07
3.13226e-07
1.50839e-06
3.0442e-06
1.78754e-07
1.82737e-05
1.82758e-05
1.50781e-06
1.78764e-07
3.04474e-06
3.13248e-07
1.5083e-06
1.7876e-07
3.04431e-06
5.21426e-06
5.21588e-06
5.26494e-07
5.21409e-06
5.21571e-06
3.844e-06
8.89321e-06
3.84407e-06
8.89345e-06
1.8272e-05
1.82742e-05
3.84412e-06
8.89458e-06
3.84419e-06
8.89481e-06
1.23445e-07
1.23459e-07
1.23459e-07
1.23444e-07
1.23444e-07
1.23458e-07
1.23458e-07
1.50784e-06
3.04465e-06
1.78751e-07
3.13224e-07
1.50824e-06
3.04419e-06
1.7875e-07
1.82737e-05
1.82758e-05
1.50784e-06
1.78757e-07
3.04485e-06
3.13246e-07
1.50821e-06
1.78755e-07
3.04436e-06
5.21429e-06
5.21592e-06
5.26348e-07
5.21412e-06
5.21574e-06
3.84404e-06
8.89321e-06
3.8441e-06
8.89345e-06
1.8272e-05
1.82742e-05
3.84415e-06
8.89455e-06
3.84424e-06
8.89478e-06
1.23444e-07
1.23458e-07
1.23458e-07
1.23446e-07
1.23446e-07
1.23458e-07
1.23458e-07
1.50789e-06
3.04467e-06
1.7875e-07
3.13226e-07
1.50833e-06
3.04423e-06
1.78749e-07
1.82738e-05
1.82759e-05
1.5078e-06
1.78755e-07
3.04479e-06
3.13246e-07
1.50826e-06
1.78754e-07
3.04435e-06
5.21431e-06
5.21595e-06
5.26343e-07
5.21415e-06
5.21575e-06
3.84412e-06
8.89322e-06
3.84416e-06
8.89352e-06
1.82721e-05
1.82743e-05
3.8442e-06
8.89454e-06
3.84425e-06
8.89478e-06
1.23461e-07
1.23446e-07
1.23448e-07
1.23459e-07
1.23459e-07
1.23447e-07
7.72602e-08
1.50788e-06
3.04467e-06
1.7875e-07
3.1323e-07
1.50825e-06
3.04426e-06
1.78754e-07
1.82738e-05
1.82758e-05
1.50779e-06
1.78754e-07
3.04481e-06
3.13247e-07
1.50825e-06
1.78754e-07
3.04434e-06
5.21431e-06
5.21598e-06
5.26497e-07
5.21417e-06
5.21572e-06
5.21529e-06
5.21431e-06
5.282e-07
5.21549e-06
5.21577e-06
1.82737e-05
1.82738e-05
5.21473e-06
5.26118e-07
5.21467e-06
8.89379e-06
3.84416e-06
8.89353e-06
3.8441e-06
3.13267e-07
3.04423e-06
1.78732e-07
1.50788e-06
3.04433e-06
1.78729e-07
1.50786e-06
1.82744e-05
5.21538e-06
5.214e-06
1.82734e-05
3.04403e-06
1.78712e-07
1.50789e-06
8.89414e-06
3.84417e-06
1.78728e-07
3.0441e-06
1.50785e-06
8.89401e-06
3.84409e-06
3.13232e-07
3.04439e-06
1.78729e-07
1.50791e-06
1.78723e-07
3.04454e-06
1.50791e-06
8.89456e-06
3.84424e-06
8.89461e-06
3.84413e-06
5.21411e-06
5.21568e-06
1.82743e-05
1.82761e-05
1.82716e-05
1.82728e-05
1.82717e-05
1.82746e-05
5.27767e-07
5.21495e-06
5.26315e-07
5.21408e-06
5.21533e-06
1.82723e-05
1.82706e-05
1.8275e-05
1.82728e-05
5.2809e-07
5.21407e-06
5.21546e-06
5.21432e-06
5.21566e-06
3.84408e-06
8.89329e-06
3.84424e-06
8.89352e-06
1.50792e-06
3.04468e-06
1.78733e-07
3.13219e-07
1.50832e-06
3.04397e-06
1.78748e-07
1.50789e-06
3.04484e-06
1.78735e-07
3.13315e-07
1.5083e-06
3.04439e-06
1.7874e-07
3.84426e-06
8.89342e-06
8.89329e-06
3.84409e-06
3.84421e-06
8.8935e-06
8.89327e-06
3.84405e-06
1.50834e-06
3.13214e-07
3.04402e-06
1.78758e-07
3.04446e-06
1.78753e-07
1.50792e-06
1.50831e-06
3.13325e-07
3.04442e-06
1.78747e-07
3.04489e-06
1.78743e-07
1.50787e-06
5.21565e-06
5.21417e-06
5.262e-07
5.21537e-06
5.214e-06
1.82713e-05
1.82733e-05
1.82742e-05
1.82721e-05
5.27937e-07
5.21536e-06
5.21402e-06
5.21564e-06
5.21417e-06
1.82732e-05
1.82712e-05
1.50841e-06
3.13153e-07
1.78728e-07
1.50797e-06
3.13195e-07
3.04452e-06
1.78734e-07
8.89381e-06
3.84421e-06
8.89425e-06
3.04469e-06
3.13198e-07
1.78746e-07
1.50791e-06
3.13269e-07
1.78755e-07
3.04449e-06
3.84432e-06
8.89473e-06
8.89447e-06
3.84421e-06
1.50838e-06
3.13213e-07
3.04458e-06
1.78747e-07
3.04503e-06
1.78743e-07
1.50793e-06
3.84439e-06
8.89429e-06
8.89408e-06
3.84417e-06
1.50834e-06
3.13296e-07
1.7877e-07
3.04458e-06
1.78762e-07
3.04501e-06
1.50789e-06
3.84419e-06
8.89389e-06
3.84424e-06
8.89412e-06
1.50794e-06
1.78733e-07
3.04458e-06
3.13282e-07
1.50829e-06
1.7874e-07
3.04417e-06
3.84412e-06
8.89377e-06
3.84416e-06
8.894e-06
1.50836e-06
3.13173e-07
3.04413e-06
1.78731e-07
3.04454e-06
1.78725e-07
1.50794e-06
3.84426e-06
8.89409e-06
8.89387e-06
3.84421e-06
1.50835e-06
3.13295e-07
1.78752e-07
3.04421e-06
1.78746e-07
3.04464e-06
1.50795e-06
3.84418e-06
8.89398e-06
8.89376e-06
3.84413e-06
5.2791e-07
5.21523e-06
5.26242e-07
5.21557e-06
5.21448e-06
1.82727e-05
1.82743e-05
1.82757e-05
1.82736e-05
5.28e-07
5.21576e-06
5.21434e-06
5.21594e-06
5.21458e-06
1.8274e-05
1.8272e-05
1.50795e-06
1.78727e-07
3.045e-06
3.1321e-07
1.50835e-06
1.78736e-07
3.0446e-06
8.89431e-06
3.84419e-06
3.84437e-06
8.89442e-06
3.84416e-06
8.89438e-06
3.84422e-06
8.8946e-06
1.50833e-06
3.132e-07
1.78748e-07
3.04423e-06
1.78743e-07
3.04468e-06
1.50791e-06
1.50836e-06
3.13224e-07
1.78747e-07
3.04464e-06
1.78742e-07
3.04505e-06
1.50794e-06
3.8443e-06
8.89433e-06
8.89409e-06
3.84415e-06
3.84422e-06
8.89458e-06
8.89436e-06
3.84415e-06
1.82722e-05
1.82741e-05
1.8274e-05
1.8276e-05
5.28052e-07
5.21409e-06
5.21569e-06
5.21427e-06
5.21586e-06
1.82741e-05
1.82721e-05
1.8276e-05
1.8274e-05
1.82703e-05
1.82722e-05
1.82729e-05
1.8275e-05
5.21422e-06
5.21562e-06
5.2634e-07
5.21403e-06
5.21545e-06
1.82722e-05
1.82702e-05
1.8275e-05
1.82729e-05
5.28139e-07
5.21402e-06
5.21546e-06
5.21419e-06
5.21562e-06
3.84399e-06
8.89325e-06
3.8441e-06
8.89348e-06
1.50791e-06
3.04448e-06
1.78759e-07
3.13259e-07
1.50834e-06
3.04405e-06
1.78764e-07
1.50789e-06
3.04492e-06
1.78751e-07
3.13356e-07
1.5083e-06
3.04446e-06
1.78756e-07
3.84409e-06
8.89339e-06
8.89316e-06
3.84397e-06
3.84405e-06
8.89347e-06
8.89324e-06
3.84393e-06
1.50834e-06
3.13271e-07
3.04408e-06
1.78767e-07
3.04451e-06
1.78764e-07
1.50794e-06
1.50833e-06
3.13362e-07
3.04447e-06
1.78764e-07
3.04495e-06
1.78761e-07
1.50791e-06
5.21564e-06
5.21419e-06
5.26397e-07
5.21536e-06
5.21403e-06
1.82712e-05
1.82732e-05
1.82741e-05
1.8272e-05
5.28084e-07
5.21536e-06
5.21404e-06
5.21563e-06
5.21419e-06
1.82731e-05
1.82711e-05
1.508e-06
3.04501e-06
1.78754e-07
3.13234e-07
1.50836e-06
3.04459e-06
1.78758e-07
3.8441e-06
8.89405e-06
3.8443e-06
8.89433e-06
1.50794e-06
1.78773e-07
3.04508e-06
3.13342e-07
1.50831e-06
1.78776e-07
3.04462e-06
3.84423e-06
8.89471e-06
8.89447e-06
3.84413e-06
1.50845e-06
3.13238e-07
3.04459e-06
1.78765e-07
3.04503e-06
1.78763e-07
1.508e-06
3.84423e-06
8.89433e-06
8.89409e-06
3.84408e-06
1.50837e-06
3.13354e-07
1.7878e-07
3.04462e-06
1.7878e-07
3.04508e-06
1.50797e-06
3.84421e-06
8.89385e-06
3.84428e-06
8.89408e-06
1.50797e-06
1.78757e-07
3.04468e-06
3.13332e-07
1.50835e-06
1.78762e-07
3.04425e-06
3.84413e-06
8.89374e-06
3.8442e-06
8.89396e-06
1.50841e-06
3.13209e-07
3.04419e-06
1.78752e-07
3.04462e-06
1.78748e-07
1.50801e-06
3.84427e-06
8.89407e-06
8.89384e-06
3.8442e-06
1.50839e-06
3.13345e-07
1.78772e-07
3.04426e-06
1.78768e-07
3.04471e-06
1.50802e-06
3.84419e-06
8.89394e-06
8.89372e-06
3.84412e-06
5.21599e-06
5.21449e-06
5.26356e-07
5.21573e-06
5.21429e-06
1.82719e-05
1.82739e-05
1.82758e-05
1.82738e-05
5.28066e-07
5.21568e-06
5.21427e-06
5.21589e-06
5.21445e-06
1.82738e-05
1.82718e-05
1.50796e-06
1.78752e-07
3.0451e-06
3.13256e-07
1.50835e-06
1.78756e-07
3.04468e-06
3.84414e-06
8.89408e-06
3.84428e-06
8.89432e-06
3.84414e-06
8.89434e-06
3.84422e-06
8.89456e-06
1.50836e-06
3.13237e-07
1.78765e-07
3.04426e-06
1.78762e-07
3.04471e-06
1.50797e-06
1.5084e-06
3.13268e-07
1.78766e-07
3.04469e-06
1.78762e-07
3.04513e-06
1.50801e-06
3.84427e-06
8.8943e-06
8.89407e-06
3.84414e-06
3.8442e-06
8.89454e-06
8.89432e-06
3.84414e-06
1.8272e-05
1.8274e-05
1.82739e-05
1.82759e-05
5.28109e-07
5.21407e-06
5.21568e-06
5.21425e-06
5.21586e-06
1.82739e-05
1.82719e-05
1.82759e-05
1.82738e-05
1.82702e-05
1.82722e-05
1.82729e-05
1.8275e-05
5.21418e-06
5.21564e-06
5.26302e-07
5.21401e-06
5.21549e-06
1.82722e-05
1.82702e-05
1.8275e-05
1.82729e-05
5.2813e-07
5.214e-06
5.21552e-06
5.21418e-06
5.21566e-06
3.84391e-06
8.89324e-06
3.844e-06
8.89349e-06
1.50793e-06
3.04453e-06
1.78767e-07
3.13299e-07
1.50836e-06
3.0441e-06
1.78767e-07
1.50788e-06
3.04496e-06
1.78765e-07
3.13366e-07
1.50833e-06
3.0445e-06
1.78765e-07
3.84402e-06
8.8934e-06
8.89315e-06
3.84394e-06
3.84399e-06
8.89352e-06
8.89326e-06
3.8439e-06
1.50834e-06
3.13305e-07