/*--------------------------------*- C++ -*----------------------------------*\
| =========                 |                                                 |
| \\      /  F ield         | OpenFOAM: The Open Source CFD Toolbox           |
|  \\    /   O peration     | Version:  v2006                                 |
|   \\  /    A nd           | Website:  www.openfoam.com                      |
|    \\/     M anipulation  |                                                 |
\*---------------------------------------------------------------------------*/
FoamFile
{
    version     2.0;
    format      ascii;
    class       volScalarField;
    location    "125";
    object      k;
}
// * * * * * * * * * * * * * * * * * * * * * * * * * * * * * * * * * * * * * //

dimensions      [0 2 -2 0 0 0 0];


internalField   nonuniform List<scalar> 
14212
(
5.77383e-05
6.99586e-05
6.9144e-05
6.99598e-05
1.82648e-05
5.06313e-05
6.91442e-05
6.91448e-05
2.30374e-05
6.16036e-05
6.16093e-05
5.77371e-05
6.99552e-05
3.77752e-05
1.82653e-05
5.06326e-05
1.46535e-05
3.77734e-05
1.82663e-05
5.06311e-05
1.4653e-05
2.30379e-05
6.16054e-05
6.16027e-05
6.91437e-05
1.82665e-05
5.06337e-05
6.9959e-05
6.97226e-05
5.77348e-05
6.92882e-05
6.2475e-05
6.92866e-05
6.247e-05
6.9725e-05
7.03039e-05
7.47567e-05
6.99574e-05
7.47506e-05
7.03121e-05
6.91384e-05
6.99585e-05
6.91391e-05
6.91395e-05
8.86295e-05
7.19476e-05
7.19469e-05
7.19413e-05
7.19407e-05
8.86318e-05
6.13996e-05
6.91857e-05
6.16024e-05
4.61997e-05
6.91844e-05
6.13982e-05
4.61977e-05
6.1417e-05
6.16074e-05
6.91888e-05
4.62225e-05
6.91868e-05
6.14216e-05
4.62191e-05
6.97218e-05
5.77335e-05
6.92878e-05
6.24711e-05
6.92862e-05
6.24659e-05
6.97242e-05
7.03033e-05
7.47416e-05
6.99539e-05
7.47354e-05
7.03115e-05
7.19448e-05
7.19488e-05
8.86329e-05
6.14338e-05
6.91903e-05
6.16043e-05
4.62176e-05
6.91886e-05
4.62162e-05
6.14361e-05
6.91836e-05
4.62034e-05
6.13869e-05
1.30834e-05
1.22183e-05
1.30827e-05
1.22183e-05
3.57126e-05
4.5357e-05
2.30709e-05
3.26309e-05
3.26443e-05
4.53572e-05
3.2646e-05
3.26572e-05
2.57445e-05
3.77758e-05
4.12841e-05
2.35303e-05
4.12822e-05
2.35506e-05
2.57133e-05
2.9557e-05
4.64452e-05
5.06328e-05
3.5713e-05
4.64475e-05
3.57255e-05
2.95304e-05
2.57429e-05
3.77737e-05
4.12789e-05
2.35296e-05
4.12767e-05
2.35499e-05
2.57118e-05
2.95548e-05
4.6439e-05
5.06312e-05
3.57168e-05
4.64393e-05
2.95286e-05
3.57289e-05
4.53588e-05
2.3075e-05
3.26412e-05
3.26348e-05
3.26498e-05
3.26567e-05
4.53588e-05
5.06334e-05
3.57178e-05
3.57282e-05
8.86295e-05
7.19384e-05
7.19424e-05
6.13849e-05
6.16012e-05
4.6201e-05
6.91821e-05
6.91386e-05
6.99577e-05
5.06309e-05
3.57244e-05
3.77766e-05
1.46517e-05
5.7731e-05
3.77771e-05
1.82624e-05
1.46523e-05
5.06254e-05
5.77302e-05
6.99547e-05
1.8262e-05
5.06281e-05
6.99558e-05
2.30737e-05
6.15976e-05
6.16059e-05
6.91389e-05
6.91409e-05
6.97242e-05
6.24649e-05
6.92866e-05
5.77348e-05
6.97217e-05
6.24695e-05
6.92883e-05
6.97239e-05
6.92863e-05
6.24626e-05
5.77339e-05
6.97215e-05
6.92879e-05
6.24676e-05
7.03113e-05
7.47325e-05
6.99559e-05
7.03032e-05
7.47386e-05
6.99571e-05
8.8629e-05
7.1942e-05
7.19372e-05
8.86259e-05
7.19486e-05
7.19435e-05
6.13798e-05
6.91796e-05
4.61944e-05
6.15991e-05
6.13779e-05
4.61966e-05
6.91812e-05
6.14345e-05
6.91899e-05
4.62116e-05
6.16075e-05
6.14322e-05
4.62136e-05
6.91915e-05
6.9144e-05
6.9146e-05
1.30834e-05
2.57053e-05
4.12799e-05
2.35469e-05
3.77707e-05
2.57387e-05
4.12735e-05
2.35238e-05
2.57058e-05
2.35473e-05
4.12776e-05
3.77709e-05
2.57394e-05
2.35242e-05
4.12724e-05
2.95204e-05
4.6439e-05
3.57185e-05
5.06255e-05
2.95501e-05
4.64327e-05
3.57055e-05
3.57242e-05
5.06282e-05
3.5711e-05
4.53561e-05
2.3035e-05
3.26453e-05
3.26537e-05
4.53608e-05
3.26272e-05
3.26355e-05
7.03115e-05
7.47472e-05
7.03028e-05
7.47525e-05
2.95202e-05
4.64423e-05
2.95499e-05
4.64363e-05
7.47543e-05
7.03115e-05
4.64404e-05
2.95277e-05
5.77347e-05
3.77685e-05
2.30514e-05
1.46531e-05
1.82662e-05
5.77358e-05
5.77367e-05
2.30515e-05
6.9144e-05
1.30826e-05
1.82648e-05
1.46531e-05
2.30885e-05
1.46534e-05
1.46528e-05
2.30515e-05
1.82648e-05
1.46538e-05
6.99561e-05
6.16052e-05
1.8265e-05
1.46529e-05
2.30843e-05
5.06325e-05
5.77315e-05
3.77753e-05
1.46538e-05
6.99549e-05
2.30836e-05
1.82663e-05
5.77325e-05
5.77332e-05
6.91388e-05
1.22183e-05
1.22183e-05
1.22186e-05
1.22182e-05
6.99596e-05
5.77376e-05
1.82635e-05
5.06322e-05
3.77694e-05
1.82641e-05
1.46534e-05
1.46533e-05
6.99559e-05
1.82669e-05
1.46529e-05
5.06336e-05
1.82669e-05
1.46529e-05
6.9145e-05
6.16084e-05
6.16057e-05
6.91438e-05
1.8265e-05
3.77685e-05
5.06322e-05
1.82649e-05
1.46531e-05
1.46538e-05
3.77682e-05
5.06335e-05
1.82659e-05
1.46538e-05
5.06333e-05
6.99587e-05
6.99573e-05
6.9956e-05
6.16019e-05
6.16097e-05
2.3075e-05
6.16003e-05
6.1608e-05
6.91388e-05
6.91458e-05
6.91405e-05
5.7738e-05
6.99576e-05
5.77348e-05
6.91383e-05
6.99584e-05
5.77341e-05
1.22183e-05
1.22186e-05
1.22182e-05
1.46535e-05
3.7774e-05
5.06308e-05
3.77747e-05
1.46535e-05
6.91397e-05
1.8265e-05
3.77718e-05
5.06319e-05
6.16004e-05
6.16082e-05
2.30477e-05
6.16022e-05
6.161e-05
6.91445e-05
6.91392e-05
6.91446e-05
2.30829e-05
6.16066e-05
2.30483e-05
6.16069e-05
6.16059e-05
5.77367e-05
3.77706e-05
3.77703e-05
5.77346e-05
6.99588e-05
6.99576e-05
5.77383e-05
5.77332e-05
6.99551e-05
6.99537e-05
5.7737e-05
1.82667e-05
1.82665e-05
1.46534e-05
3.77744e-05
5.06341e-05
5.06344e-05
3.77686e-05
1.46529e-05
1.82663e-05
1.82663e-05
3.77745e-05
5.06296e-05
5.06303e-05
3.77678e-05
6.91438e-05
6.91381e-05
2.30791e-05
6.16051e-05
6.16025e-05
6.16035e-05
6.16012e-05
6.91437e-05
6.91386e-05
1.46536e-05
1.82648e-05
1.46536e-05
3.77782e-05
5.06309e-05
5.06311e-05
3.7771e-05
5.77351e-05
6.99588e-05
6.99575e-05
5.77386e-05
1.82666e-05
5.06305e-05
1.46538e-05
1.82662e-05
5.06303e-05
3.77782e-05
3.77703e-05
6.99548e-05
5.77339e-05
5.77375e-05
6.91393e-05
6.91394e-05
2.30793e-05
6.16042e-05
6.99538e-05
5.77333e-05
1.46534e-05
5.06344e-05
3.77741e-05
1.82663e-05
5.06308e-05
3.7773e-05
6.1604e-05
6.1601e-05
6.91386e-05
3.77766e-05
1.82641e-05
1.46532e-05
6.99546e-05
1.82669e-05
1.4653e-05
5.0633e-05
5.7739e-05
6.99576e-05
5.7735e-05
1.82668e-05
5.06303e-05
3.77737e-05
1.82668e-05
3.7774e-05
1.46538e-05
5.06311e-05
5.7738e-05
5.7734e-05
6.99563e-05
6.16068e-05
6.16042e-05
6.91386e-05
1.46539e-05
3.77714e-05
5.06332e-05
1.82663e-05
5.0634e-05
6.99574e-05
6.99561e-05
6.99575e-05
6.9144e-05
6.91406e-05
6.91459e-05
6.97202e-05
6.92864e-05
6.24684e-05
5.77314e-05
6.92847e-05
6.24635e-05
6.97228e-05
6.97203e-05
6.24703e-05
6.9287e-05
5.77323e-05
6.24658e-05
6.92853e-05
6.9723e-05
6.97215e-05
6.24703e-05
6.92876e-05
5.7733e-05
6.24652e-05
6.9286e-05
6.9724e-05
6.91388e-05
7.03028e-05
6.99548e-05
7.47394e-05
7.47332e-05
7.03111e-05
6.14192e-05
4.62082e-05
6.91864e-05
6.16078e-05
6.14016e-05
6.91883e-05
4.62095e-05
6.97229e-05
6.92847e-05
6.24638e-05
5.77345e-05
6.97203e-05
6.92865e-05
6.24684e-05
7.03111e-05
7.47334e-05
6.99562e-05
7.03029e-05
7.47397e-05
6.97231e-05
6.24659e-05
6.92853e-05
5.77358e-05
6.97204e-05
6.24702e-05
6.9287e-05
6.9724e-05
6.24655e-05
6.9286e-05
5.77369e-05
6.97216e-05
6.24706e-05
6.92877e-05
6.9144e-05
7.03041e-05
6.99584e-05
7.47576e-05
7.47514e-05
7.03124e-05
6.97225e-05
6.24746e-05
6.92877e-05
5.7734e-05
6.24694e-05
6.9286e-05
6.97249e-05
7.03022e-05
7.47387e-05
6.99546e-05
7.47324e-05
7.03105e-05
6.91398e-05
6.14389e-05
4.62178e-05
6.91927e-05
6.16073e-05
4.62158e-05
6.91912e-05
6.14413e-05
8.86357e-05
7.1945e-05
7.19507e-05
7.19386e-05
7.19443e-05
8.86385e-05
6.13767e-05
4.6204e-05
6.91818e-05
6.16041e-05
6.91802e-05
4.62019e-05
6.13792e-05
6.91385e-05
7.03016e-05
7.47532e-05
6.99574e-05
7.47476e-05
7.03105e-05
7.03035e-05
7.47415e-05
6.9956e-05
7.47352e-05
7.03118e-05
7.03117e-05
6.99572e-05
7.4735e-05
7.03035e-05
7.47412e-05
6.13837e-05
4.62034e-05
6.91821e-05
6.16004e-05
6.91805e-05
6.13851e-05
4.62011e-05
8.86281e-05
7.19483e-05
7.19438e-05
7.19415e-05
7.19373e-05
8.86313e-05
6.14358e-05
4.62203e-05
6.91918e-05
6.16081e-05
4.62183e-05
6.91902e-05
6.14381e-05
6.13864e-05
6.16017e-05
4.62004e-05
6.91805e-05
6.9182e-05
4.62024e-05
6.13846e-05
8.86303e-05
7.19416e-05
7.19373e-05
7.19482e-05
7.19438e-05
8.86268e-05
6.14376e-05
6.16094e-05
4.62188e-05
6.919e-05
4.62203e-05
6.91916e-05
6.14349e-05
6.9144e-05
6.91406e-05
6.91457e-05
6.97223e-05
6.9288e-05
6.24748e-05
5.77345e-05
6.92863e-05
6.247e-05
6.97248e-05
7.03122e-05
7.47509e-05
6.99586e-05
7.03039e-05
7.47568e-05
6.9725e-05
5.77382e-05
6.92865e-05
6.24701e-05
6.97225e-05
6.92881e-05
6.24749e-05
6.91439e-05
7.03123e-05
7.47513e-05
6.99597e-05
7.03042e-05
7.47574e-05
6.9725e-05
6.24697e-05
6.92861e-05
5.77375e-05
6.97225e-05
6.24747e-05
6.92877e-05
6.91449e-05
6.13846e-05
4.62018e-05
6.91804e-05
6.1602e-05
6.13829e-05
4.62039e-05
6.91821e-05
8.86324e-05
7.19415e-05
7.19373e-05
8.86292e-05
7.19484e-05
7.19438e-05
6.14388e-05
4.62179e-05
6.91903e-05
6.16098e-05
6.14364e-05
4.62199e-05
6.9192e-05
8.86301e-05
7.19488e-05
7.19438e-05
7.19416e-05
7.19373e-05
8.86332e-05
6.13823e-05
6.16007e-05
6.9182e-05
4.62044e-05
4.62025e-05
6.91804e-05
6.13839e-05
6.14369e-05
6.16085e-05
6.91922e-05
4.62198e-05
4.6218e-05
6.91905e-05
6.14391e-05
6.91392e-05
6.91444e-05
6.91394e-05
6.14029e-05
6.16049e-05
4.6209e-05
6.91881e-05
4.62059e-05
6.91868e-05
6.14045e-05
6.14112e-05
4.62112e-05
6.16055e-05
6.91862e-05
6.91844e-05
4.621e-05
6.1415e-05
6.14125e-05
4.62116e-05
6.91836e-05
6.16073e-05
6.14081e-05
6.91855e-05
4.62129e-05
8.86299e-05
7.1946e-05
7.19482e-05
7.19423e-05
7.19395e-05
8.86326e-05
6.97214e-05
6.92876e-05
6.24701e-05
5.77331e-05
6.92859e-05
6.24652e-05
6.97239e-05
6.97249e-05
6.92864e-05
6.24699e-05
5.77381e-05
6.97224e-05
6.9288e-05
6.24747e-05
7.03038e-05
6.99575e-05
7.47571e-05
7.03122e-05
7.47509e-05
7.03122e-05
7.47513e-05
6.99588e-05
7.03037e-05
7.47571e-05
6.97225e-05
5.77348e-05
6.92881e-05
6.24749e-05
6.97249e-05
6.92864e-05
6.24699e-05
6.9724e-05
6.9286e-05
6.24652e-05
5.77367e-05
6.97215e-05
6.92876e-05
6.24702e-05
7.03033e-05
6.99538e-05
7.4741e-05
7.47347e-05
7.03115e-05
7.03114e-05
7.47345e-05
6.9955e-05
7.03033e-05
7.47407e-05
6.97216e-05
5.77334e-05
6.92877e-05
6.24704e-05
6.9286e-05
6.24653e-05
6.9724e-05
6.91382e-05
6.91437e-05
8.86306e-05
7.19387e-05
7.19422e-05
7.19451e-05
7.19488e-05
8.86272e-05
6.1432e-05
4.62186e-05
6.16038e-05
6.91897e-05
4.62171e-05
6.9188e-05
6.14345e-05
6.13873e-05
4.62019e-05
6.1601e-05
6.91838e-05
6.91823e-05
4.61991e-05
6.1389e-05
6.14335e-05
4.62176e-05
6.91876e-05
6.16047e-05
4.6219e-05
6.91894e-05
6.14305e-05
6.13906e-05
4.61984e-05
6.91825e-05
6.16024e-05
6.91839e-05
4.62006e-05
6.13892e-05
8.86279e-05
7.1945e-05
7.19487e-05
7.19386e-05
7.19424e-05
8.86313e-05
6.91386e-05
6.91438e-05
6.97242e-05
6.24684e-05
6.92867e-05
5.77383e-05
6.24727e-05
6.92884e-05
6.97217e-05
7.03025e-05
6.99575e-05
7.47542e-05
7.47488e-05
7.03114e-05
7.03113e-05
7.47488e-05
6.99587e-05
7.47542e-05
7.03025e-05
6.97217e-05
5.7735e-05
6.24727e-05
6.92885e-05
6.24683e-05
6.92868e-05
6.97243e-05
7.0311e-05
6.9956e-05
7.47332e-05
7.47391e-05
7.03028e-05
6.97239e-05
6.24654e-05
6.92864e-05
5.77373e-05
6.9288e-05
6.24701e-05
6.97214e-05
6.97215e-05
6.24703e-05
5.7734e-05
6.92881e-05
6.92864e-05
6.24653e-05
6.97239e-05
6.91444e-05
6.91446e-05
6.1417e-05
4.62101e-05
6.91849e-05
6.16044e-05
6.14123e-05
6.91862e-05
4.62016e-05
8.86412e-05
7.194e-05
7.19419e-05
8.8632e-05
7.19476e-05
7.19468e-05
7.03115e-05
7.4735e-05
6.99551e-05
7.03033e-05
7.47413e-05
6.97241e-05
5.77369e-05
6.92861e-05
6.24655e-05
6.92877e-05
6.97217e-05
6.24707e-05
6.14355e-05
4.62165e-05
6.91883e-05
6.16053e-05
6.919e-05
6.14329e-05
4.6218e-05
6.13879e-05
4.62e-05
6.91822e-05
6.16026e-05
4.62026e-05
6.13859e-05
6.91837e-05
8.86321e-05
7.19385e-05
7.19423e-05
7.19449e-05
8.86287e-05
7.19487e-05
6.91437e-05
7.03105e-05
7.47326e-05
6.99558e-05
7.03022e-05
7.47388e-05
6.97218e-05
5.77354e-05
6.2473e-05
6.92886e-05
6.24684e-05
6.92869e-05
6.97244e-05
7.03114e-05
7.47488e-05
6.99589e-05
7.47542e-05
7.03026e-05
6.97244e-05
5.77387e-05
6.24682e-05
6.92869e-05
6.24728e-05
6.97218e-05
6.92885e-05
7.03026e-05
7.47489e-05
6.97216e-05
5.77344e-05
6.92882e-05
6.24709e-05
6.92866e-05
6.24658e-05
6.9724e-05
6.9724e-05
6.24654e-05
5.77377e-05
6.92865e-05
6.97215e-05
6.92881e-05
6.24705e-05
7.0303e-05
6.9955e-05
7.474e-05
7.47338e-05
7.03111e-05
6.14414e-05
4.62157e-05
6.91912e-05
6.16079e-05
6.14389e-05
6.91927e-05
4.62175e-05
8.86387e-05
7.19386e-05
7.19444e-05
8.86358e-05
7.1945e-05
7.19507e-05
6.13794e-05
4.62019e-05
6.91802e-05
6.16057e-05
6.13768e-05
4.62037e-05
6.91818e-05
6.91438e-05
7.03106e-05
7.47477e-05
6.99588e-05
7.03017e-05
7.47532e-05
7.03118e-05
7.47355e-05
6.99574e-05
7.03036e-05
7.47419e-05
7.03037e-05
6.99563e-05
7.47421e-05
7.47359e-05
7.03119e-05
6.91388e-05
6.91458e-05
6.91407e-05
2.57426e-05
2.35292e-05
4.12749e-05
3.7772e-05
2.35493e-05
4.12776e-05
2.57117e-05
4.5359e-05
3.26406e-05
3.26358e-05
2.30863e-05
3.2656e-05
3.26512e-05
4.53547e-05
4.53596e-05
3.26349e-05
3.26437e-05
2.3084e-05
3.2659e-05
4.53554e-05
3.265e-05
1.22183e-05
1.22184e-05
1.1993e-05
4.53553e-05
3.26503e-05
3.26588e-05
2.30538e-05
4.53594e-05
3.26351e-05
3.26436e-05
4.53588e-05
2.30862e-05
3.26413e-05
3.26339e-05
3.2657e-05
3.2649e-05
4.53546e-05
4.53547e-05
3.26566e-05
3.26491e-05
2.30431e-05
3.26341e-05
4.53586e-05
3.2641e-05
2.95291e-05
4.6447e-05
3.57247e-05
5.06322e-05
2.95547e-05
4.64468e-05
3.57139e-05
2.57122e-05
2.35496e-05
4.12811e-05
3.77749e-05
2.5743e-05
2.35294e-05
4.12788e-05
4.53583e-05
3.26558e-05
3.26511e-05
2.30425e-05
4.53579e-05
3.26356e-05
3.26404e-05
1.30831e-05
1.30831e-05
1.22183e-05
1.22183e-05
1.22182e-05
1.19929e-05
1.19929e-05
1.22183e-05
1.30827e-05
1.22185e-05
1.30827e-05
1.22185e-05
1.1993e-05
1.1993e-05
1.30834e-05
1.22185e-05
1.22186e-05
1.30833e-05
1.22185e-05
1.19929e-05
1.19929e-05
1.30827e-05
1.22182e-05
1.30826e-05
1.22182e-05
1.22182e-05
1.19929e-05
1.19928e-05
2.95526e-05
5.06324e-05
4.64391e-05
3.57118e-05
4.64421e-05
3.57232e-05
2.95268e-05
2.57427e-05
4.12762e-05
2.35296e-05
3.77728e-05
4.12779e-05
2.35497e-05
2.5712e-05
2.95552e-05
4.64358e-05
3.57181e-05
5.06346e-05
4.64407e-05
3.57301e-05
2.95286e-05
2.57427e-05
2.35296e-05
4.12741e-05
3.77742e-05
2.35499e-05
4.12806e-05
2.57114e-05
2.95541e-05
3.57125e-05
4.64385e-05
5.06318e-05
3.57244e-05
4.64445e-05
2.95274e-05
2.57439e-05
2.35301e-05
4.12716e-05
3.77741e-05
2.35505e-05
4.12783e-05
2.57126e-05
2.9555e-05
3.57188e-05
4.64316e-05
5.06332e-05
4.64375e-05
3.57306e-05
2.95283e-05
2.95288e-05
5.06333e-05
3.57305e-05
4.64411e-05
2.95559e-05
4.64332e-05
3.57184e-05
4.53556e-05
2.30438e-05
3.26496e-05
3.26585e-05
3.26432e-05
3.26342e-05
4.5359e-05
1.30827e-05
1.22184e-05
1.22184e-05
1.1993e-05
1.30834e-05
1.22185e-05
1.30834e-05
1.22186e-05
1.19929e-05
1.30827e-05
1.22182e-05
1.19929e-05
2.57437e-05
3.77733e-05
4.12778e-05
2.35308e-05
4.12765e-05
2.3551e-05
2.57127e-05
2.95275e-05
3.57243e-05
4.64418e-05
5.0631e-05
2.95539e-05
3.57123e-05
4.64353e-05
2.57128e-05
2.3551e-05
3.77689e-05
4.12799e-05
2.57435e-05
4.12727e-05
2.35305e-05
2.95537e-05
4.64412e-05
2.57115e-05
2.35496e-05
4.12769e-05
3.77706e-05
2.57424e-05
2.35293e-05
4.12755e-05
2.95276e-05
3.57243e-05
4.64437e-05
5.06322e-05
2.95541e-05
3.57122e-05
4.64394e-05
4.53591e-05
2.30871e-05
3.26354e-05
3.26436e-05
3.26507e-05
3.26589e-05
4.53587e-05
4.53538e-05
3.26467e-05
2.305e-05
3.26585e-05
3.26312e-05
4.53581e-05
3.26423e-05
4.53573e-05
2.30865e-05
3.2632e-05
3.26406e-05
3.26472e-05
3.26573e-05
4.5353e-05
2.5745e-05
2.353e-05
4.1278e-05
3.7777e-05
4.12855e-05
2.35504e-05
2.57136e-05
2.57422e-05
2.35293e-05
4.12761e-05
3.7776e-05
4.1282e-05
2.35495e-05
2.57113e-05
2.57135e-05
2.35502e-05
4.12816e-05
3.77684e-05
2.57446e-05
4.12743e-05
2.35299e-05
2.9558e-05
3.57188e-05
5.06343e-05
4.64395e-05
3.57316e-05
4.64446e-05
2.95309e-05
2.95315e-05
3.57323e-05
4.64458e-05
5.06344e-05
3.57198e-05
2.95585e-05
4.64391e-05
2.57443e-05
2.35302e-05
3.77734e-05
4.12739e-05
4.12796e-05
2.35505e-05
2.57133e-05
2.57116e-05
2.35494e-05
4.12809e-05
3.77684e-05
2.57424e-05
4.12735e-05
2.35292e-05
2.95541e-05
3.57163e-05
5.06304e-05
4.6431e-05
4.64376e-05
3.57282e-05
2.95273e-05
2.95276e-05
3.57278e-05
4.64408e-05
5.06292e-05
2.95542e-05
4.64337e-05
3.57158e-05
2.57422e-05
2.35294e-05
3.77731e-05
4.12707e-05
4.12774e-05
2.35498e-05
2.57113e-05
4.53548e-05
2.30477e-05
3.26571e-05
3.2649e-05
3.26413e-05
3.26334e-05
4.53588e-05
2.5713e-05
2.35511e-05
4.12847e-05
3.77731e-05
4.12788e-05
2.35305e-05
2.57439e-05
2.95547e-05
3.57123e-05
5.06307e-05
4.64375e-05
2.95279e-05
3.57241e-05
4.64449e-05
2.95285e-05
3.57246e-05
4.64469e-05
5.06309e-05
3.57121e-05
4.64404e-05
2.95553e-05
2.57435e-05
2.35307e-05
3.77776e-05
4.12765e-05
2.57127e-05
4.12841e-05
2.35509e-05
2.95543e-05
3.57131e-05
5.06303e-05
4.64315e-05
3.57248e-05
4.64383e-05
2.95277e-05
2.95282e-05
5.06304e-05
3.57247e-05
4.64423e-05
3.57126e-05
4.64346e-05
2.95549e-05
2.57133e-05
2.35515e-05
4.12839e-05
3.77728e-05
2.35308e-05
4.12775e-05
2.57441e-05
2.57438e-05
2.35309e-05
4.12742e-05
3.7777e-05
2.35512e-05
4.12819e-05
2.5713e-05
4.53527e-05
3.26479e-05
3.26566e-05
2.3037e-05
4.53556e-05
3.26316e-05
3.26316e-05
2.95305e-05
3.57296e-05
4.64462e-05
5.06331e-05
4.64411e-05
2.95574e-05
3.57145e-05
2.57134e-05
2.35503e-05
3.777e-05
4.12803e-05
4.12762e-05
2.57444e-05
2.35301e-05
2.95278e-05
3.57283e-05
4.64365e-05
5.06304e-05
2.9554e-05
4.64321e-05
3.57165e-05
2.57117e-05
2.35496e-05
3.77684e-05
4.12761e-05
2.57424e-05
4.12709e-05
2.35294e-05
2.57128e-05
4.1284e-05
2.355e-05
3.77767e-05
2.57434e-05
4.12821e-05
2.35299e-05
2.95299e-05
4.64426e-05
3.57299e-05
5.06323e-05
2.95556e-05
4.64415e-05
3.57178e-05
2.95275e-05
3.5725e-05
4.64364e-05
5.06305e-05
3.57131e-05
2.95538e-05
4.64314e-05
2.57439e-05
3.77731e-05
2.35311e-05
4.1277e-05
2.35513e-05
4.12754e-05
2.5713e-05
2.57131e-05
2.35509e-05
4.12776e-05
3.77684e-05
2.35308e-05
2.57437e-05
4.12713e-05
2.95539e-05
5.06308e-05
4.64372e-05
3.57133e-05
3.57254e-05
4.64381e-05
2.95278e-05
2.57128e-05
2.35502e-05
4.12744e-05
3.77711e-05
2.57436e-05
2.35299e-05
4.12754e-05
2.9529e-05
3.57306e-05
4.64378e-05
5.06336e-05
2.95552e-05
3.57188e-05
4.64335e-05
2.95558e-05
5.06337e-05
4.64385e-05
3.5719e-05
3.5731e-05
4.64403e-05
2.95292e-05
1.30828e-05
1.8262e-05
1.82643e-05
2.3082e-05
1.30833e-05
1.8263e-05
1.8264e-05
2.30782e-05
1.30835e-05
1.82644e-05
1.82651e-05
2.30767e-05
1.30834e-05
1.8265e-05
1.82656e-05
2.3082e-05
1.30827e-05
1.82646e-05
1.82653e-05
2.30848e-05
1.30825e-05
1.82641e-05
1.82649e-05
2.30779e-05
1.30826e-05
1.82644e-05
1.8265e-05
2.30732e-05
2.30806e-05
1.82627e-05
2.30377e-05
1.82614e-05
1.82627e-05
1.82623e-05
2.30403e-05
6.1603e-05
2.30411e-05
1.82626e-05
1.82633e-05
1.82629e-05
1.8264e-05
2.30801e-05
2.30349e-05
5.06283e-05
5.77277e-05
3.7775e-05
1.82632e-05
1.82638e-05
1.82632e-05
1.82627e-05
1.82646e-05
6.16038e-05
2.30361e-05
1.82628e-05
1.82634e-05
1.8264e-05
2.3038e-05
2.30813e-05
2.30407e-05
1.82634e-05
1.82642e-05
1.82648e-05
1.82656e-05
2.30693e-05
2.30502e-05
1.82635e-05
1.82645e-05
1.82642e-05
1.82658e-05
1.82652e-05
1.82644e-05
1.82662e-05
2.30756e-05
2.30406e-05
1.82645e-05
1.82648e-05
1.82655e-05
2.30411e-05
2.30818e-05
2.30386e-05
1.82651e-05
1.82655e-05
1.82656e-05
1.8266e-05
2.30826e-05
2.30474e-05
1.82645e-05
1.82661e-05
1.82646e-05
1.82669e-05
1.82666e-05
1.8265e-05
1.82671e-05
2.3075e-05
2.30402e-05
1.82658e-05
1.82655e-05
1.82662e-05
2.30439e-05
2.30797e-05
2.3036e-05
1.82657e-05
1.8266e-05
1.82653e-05
1.82657e-05
2.30853e-05
2.30366e-05
1.82647e-05
1.8267e-05
1.82644e-05
1.82667e-05
1.8267e-05
1.82646e-05
1.82668e-05
2.30766e-05
2.3039e-05
1.82661e-05
1.82653e-05
1.8266e-05
2.30441e-05
2.30731e-05
2.30381e-05
1.82653e-05
1.82657e-05
1.82653e-05
1.82652e-05
2.30763e-05
2.30376e-05
1.82644e-05
1.82666e-05
1.82642e-05
1.82664e-05
1.82667e-05
1.82641e-05
1.82663e-05
2.30739e-05
2.30409e-05
1.82659e-05
1.82649e-05
1.82655e-05
2.30384e-05
2.30715e-05
2.30431e-05
1.82654e-05
1.82651e-05
1.82659e-05
1.82653e-05
2.30709e-05
2.30441e-05
1.82642e-05
1.82664e-05
1.82643e-05
1.82669e-05
1.82663e-05
1.82643e-05
1.82663e-05
2.30734e-05
2.30485e-05
1.82655e-05
1.8265e-05
1.82655e-05
2.30397e-05
2.3075e-05
2.30447e-05
1.8266e-05
1.82652e-05
1.82675e-05
2.95241e-05
2.30755e-05
1.82643e-05
1.82668e-05
1.82636e-05
1.82669e-05
1.82664e-05
1.82662e-05
3.77682e-05
5.77368e-05
2.30795e-05
2.30501e-05
1.82655e-05
1.8265e-05
1.82643e-05
2.30496e-05
6.9144e-05
6.91388e-05
1.82661e-05
3.77732e-05
5.77333e-05
6.99595e-05
5.06274e-05
1.8261e-05
6.91452e-05
6.16057e-05
2.30429e-05
6.16056e-05
6.91445e-05
1.30829e-05
1.30836e-05
5.77349e-05
6.99573e-05
5.77314e-05
6.99583e-05
6.91381e-05
6.91435e-05
6.99583e-05
5.77306e-05
5.77347e-05
6.99598e-05
1.30837e-05
1.3083e-05
1.30836e-05
1.30833e-05
1.30831e-05
1.30838e-05
1.30838e-05
3.77727e-05
5.06277e-05
1.46521e-05
1.82624e-05
3.77755e-05
5.06287e-05
1.46523e-05
6.91398e-05
6.9145e-05
5.06306e-05
3.77707e-05
1.46525e-05
1.82631e-05
3.77752e-05
1.46527e-05
5.06299e-05
6.15979e-05
6.16063e-05
2.30459e-05
6.15995e-05
6.16079e-05
5.77346e-05
6.99569e-05
5.77314e-05
6.99581e-05
6.91377e-05
6.91431e-05
5.77352e-05
6.99584e-05
5.77314e-05
6.99596e-05
1.30832e-05
1.30839e-05
1.30839e-05
1.30835e-05
1.30834e-05
1.30839e-05
1.30841e-05
3.77731e-05
5.06295e-05
1.4653e-05
1.82637e-05
3.77778e-05
5.06305e-05
1.46531e-05
6.91397e-05
6.91448e-05
3.77709e-05
1.46533e-05
5.06303e-05
1.82643e-05
3.77765e-05
1.46534e-05
5.06311e-05
6.15984e-05
6.16067e-05
2.30504e-05
6.16001e-05
6.16083e-05
5.77348e-05
6.99567e-05
5.77313e-05
6.9958e-05
6.91375e-05
6.91431e-05
5.77354e-05
6.99583e-05
5.7732e-05
6.99596e-05
1.30834e-05
1.3084e-05
1.30842e-05
1.30835e-05
1.30835e-05
1.3084e-05
1.30842e-05
3.77749e-05
5.06308e-05
1.46539e-05
1.82645e-05
3.77819e-05
5.06312e-05
1.4654e-05
6.91395e-05
6.91447e-05
3.77729e-05
1.46541e-05
5.06312e-05
1.82653e-05
3.77802e-05
1.46542e-05
5.06315e-05
6.15989e-05
6.1607e-05
2.30491e-05
6.16004e-05
6.16085e-05
5.77345e-05
6.99568e-05
5.77311e-05
6.99582e-05
6.91376e-05
6.91432e-05
5.77357e-05
6.99585e-05
5.77322e-05
6.99599e-05
1.30835e-05
1.3084e-05
1.30842e-05
1.30828e-05
1.30829e-05
1.30833e-05
1.30836e-05
3.77732e-05
5.0631e-05
1.46541e-05
1.82647e-05
3.77812e-05
5.0631e-05
1.46539e-05
6.91394e-05
6.91446e-05
3.77688e-05
1.46543e-05
5.06309e-05
1.82655e-05
3.77783e-05
1.4654e-05
5.06315e-05
6.1599e-05
6.16072e-05
2.30462e-05
6.16007e-05
6.16088e-05
5.77353e-05
6.99571e-05
5.77315e-05
6.99583e-05
6.91376e-05
6.91432e-05
5.77352e-05
6.99589e-05
5.77319e-05
6.99601e-05
1.30827e-05
1.30832e-05
1.30834e-05
1.30825e-05
1.30825e-05
1.30829e-05
1.30831e-05
3.77686e-05
5.06307e-05
1.46534e-05
1.82644e-05
3.77743e-05
5.06304e-05
1.46533e-05
6.91394e-05
6.91447e-05
3.77672e-05
1.46535e-05
5.06342e-05
1.82652e-05
3.77718e-05
1.46534e-05
5.06335e-05
6.15997e-05
6.16078e-05
2.30492e-05
6.16013e-05
6.16092e-05
5.77357e-05
6.99571e-05
5.77321e-05
6.99583e-05
6.91377e-05
6.91432e-05
5.77357e-05
6.99587e-05
5.7732e-05
6.99599e-05
1.30824e-05
1.30829e-05
1.30831e-05
1.30825e-05
1.30825e-05
1.30829e-05
1.3083e-05
3.77726e-05
5.06308e-05
1.46532e-05
1.82642e-05
3.77762e-05
5.06315e-05
1.46532e-05
6.91396e-05
6.9145e-05
3.77676e-05
1.46533e-05
5.06321e-05
1.82649e-05
3.77758e-05
1.46532e-05
5.06329e-05
6.15998e-05
6.1608e-05
2.30523e-05
6.16015e-05
6.16094e-05
5.77366e-05
6.99571e-05
5.77328e-05
6.99584e-05
6.91379e-05
6.91434e-05
5.77363e-05
6.99587e-05
5.77327e-05
6.99599e-05
1.30831e-05
1.30826e-05
1.30825e-05
1.30829e-05
1.30831e-05
1.30826e-05
1.19929e-05
3.77702e-05
5.06312e-05
1.46531e-05
1.82643e-05
3.77731e-05
5.06306e-05
1.46532e-05
6.91398e-05
6.91452e-05
3.77675e-05
1.46532e-05
5.06329e-05
1.82649e-05
3.7774e-05
1.46531e-05
5.06327e-05
6.15999e-05
6.16084e-05
2.30482e-05
6.1602e-05
6.16093e-05
6.16022e-05
6.16017e-05
2.30742e-05
6.16058e-05
6.16094e-05
6.91444e-05
6.91447e-05
6.16045e-05
2.30414e-05
6.16034e-05
6.99585e-05
5.77347e-05
6.99548e-05
5.77334e-05
1.82626e-05
5.06291e-05
1.46519e-05
3.77712e-05
5.06252e-05
1.46516e-05
3.77696e-05
6.91437e-05
6.16013e-05
6.16005e-05
6.91435e-05
5.06275e-05
1.46519e-05
3.77703e-05
6.99585e-05
5.77353e-05
1.46524e-05
5.06264e-05
3.77699e-05
6.99559e-05
5.77345e-05
1.82634e-05
5.06298e-05
1.46524e-05
3.77696e-05
1.46523e-05
5.06294e-05
3.77695e-05
6.99589e-05
5.77323e-05
6.99571e-05
5.77336e-05
6.15993e-05
6.16077e-05
6.91439e-05
6.91458e-05
6.91392e-05
6.9144e-05
6.91394e-05
6.91446e-05
2.30815e-05
6.16021e-05
2.30389e-05
6.16009e-05
6.16073e-05
6.91436e-05
6.91388e-05
6.91446e-05
6.91394e-05
2.30707e-05
6.16011e-05
6.16073e-05
6.15994e-05
6.16057e-05
5.77338e-05
6.99535e-05
5.77299e-05
6.99547e-05
3.77722e-05
5.06293e-05
1.46519e-05
1.82621e-05
3.7776e-05
5.06287e-05
1.46525e-05
3.77718e-05
5.06265e-05
1.46518e-05
1.82637e-05
3.77749e-05
5.06263e-05
1.4652e-05
5.77313e-05
6.99582e-05
6.9957e-05
5.77349e-05
5.77302e-05
6.99546e-05
6.99534e-05
5.77339e-05
3.77778e-05
1.82623e-05
5.06293e-05
1.46529e-05
5.06286e-05
1.46527e-05
3.77735e-05
3.77773e-05
1.82639e-05
5.06269e-05
1.46523e-05
5.06276e-05
1.46521e-05
3.77725e-05
6.16001e-05
6.1599e-05
2.30494e-05
6.16013e-05
6.16008e-05
6.91383e-05
6.91433e-05
6.91433e-05
6.91379e-05
2.30814e-05
6.16014e-05
6.16012e-05
6.16001e-05
6.15993e-05
6.91432e-05
6.91381e-05
3.77768e-05
1.82619e-05
1.4652e-05
3.77728e-05
1.82625e-05
5.06309e-05
1.46522e-05
6.99544e-05
5.77311e-05
6.99558e-05
5.06267e-05
1.82612e-05
1.46522e-05
3.77706e-05
1.82627e-05
1.46524e-05
5.06289e-05
5.77311e-05
6.99597e-05
6.99585e-05
5.77348e-05
3.77783e-05
1.82629e-05
5.06315e-05
1.46526e-05
5.0631e-05
1.46525e-05
3.77721e-05
5.77278e-05
6.99556e-05
6.99545e-05
5.77313e-05
3.77762e-05
1.82633e-05
1.46529e-05
5.06298e-05
1.46526e-05
5.06294e-05
3.7771e-05
5.77363e-05
6.99573e-05
5.77319e-05
6.99584e-05
3.77719e-05
1.46526e-05
5.0627e-05
1.82637e-05
3.77749e-05
1.46528e-05
5.0628e-05
5.77354e-05
6.99546e-05
5.7731e-05
6.99559e-05
3.77783e-05
1.82626e-05
5.06294e-05
1.46527e-05
5.06285e-05
1.46525e-05
3.77736e-05
5.77328e-05
6.99583e-05
6.99572e-05
5.7737e-05
3.77776e-05
1.82641e-05
1.46532e-05
5.06288e-05
1.4653e-05
5.06282e-05
3.77737e-05
5.7732e-05
6.99557e-05
6.99546e-05
5.77361e-05
2.30834e-05
6.16045e-05
2.30447e-05
6.16079e-05
6.16031e-05
6.91393e-05
6.91443e-05
6.91449e-05
6.91398e-05
2.30755e-05
6.16078e-05
6.16029e-05
6.16066e-05
6.16013e-05
6.9144e-05
6.9139e-05
3.77714e-05
1.46525e-05
5.06297e-05
1.82632e-05
3.77749e-05
1.46527e-05
5.06309e-05
6.99576e-05
5.77325e-05
5.7729e-05
6.99586e-05
5.77344e-05
6.99558e-05
5.77302e-05
6.9957e-05
3.7776e-05
1.8263e-05
1.46531e-05
5.063e-05
1.46529e-05
5.06296e-05
3.77719e-05
3.77769e-05
1.82635e-05
1.46532e-05
5.06316e-05
1.4653e-05
5.06307e-05
3.77729e-05
5.77293e-05
6.99586e-05
6.99573e-05
5.77332e-05
5.77309e-05
6.99569e-05
6.99557e-05
5.7735e-05
6.91386e-05
6.91436e-05
6.91406e-05
6.91456e-05
2.30765e-05
6.15998e-05
6.16081e-05
6.1598e-05
6.16064e-05
6.91434e-05
6.91383e-05
6.91454e-05
6.91404e-05
6.91384e-05
6.91434e-05
6.91394e-05
6.91445e-05
6.15996e-05
6.16057e-05
2.30434e-05
6.16018e-05
6.16075e-05
6.91434e-05
6.91383e-05
6.91445e-05
6.91393e-05
2.30745e-05
6.16024e-05
6.16078e-05
6.16004e-05
6.1606e-05
5.77336e-05
6.99533e-05
5.77301e-05
6.99545e-05
3.77732e-05
5.06292e-05
1.4653e-05
1.82638e-05
3.77788e-05
5.063e-05
1.46532e-05
3.77714e-05
5.06281e-05
1.46525e-05
1.82649e-05
3.77773e-05
5.0628e-05
1.46527e-05
5.77309e-05
6.9958e-05
6.99568e-05
5.77347e-05
5.77299e-05
6.99545e-05
6.99533e-05
5.77336e-05
3.7778e-05
1.82643e-05
5.06305e-05
1.46535e-05
5.06298e-05
1.46533e-05
3.7774e-05
3.77771e-05
1.82654e-05
5.06283e-05
1.46531e-05
5.06292e-05
1.46529e-05
3.77744e-05
6.16003e-05
6.15997e-05
2.30434e-05
6.16017e-05
6.16016e-05
6.9138e-05
6.91431e-05
6.9143e-05
6.91376e-05
2.30824e-05
6.16019e-05
6.16017e-05
6.16006e-05
6.16e-05
6.91429e-05
6.91379e-05
3.77721e-05
5.06311e-05
1.46528e-05
1.82637e-05
3.77764e-05
5.06321e-05
1.4653e-05
5.77316e-05
6.99543e-05
5.7728e-05
6.99556e-05
3.777e-05
1.46531e-05
5.063e-05
1.82651e-05
3.77755e-05
1.46532e-05
5.06309e-05
5.77318e-05
6.99596e-05
6.99583e-05
5.77355e-05
3.77785e-05
1.82638e-05
5.06326e-05
1.46534e-05
5.06319e-05
1.46533e-05
3.77754e-05
5.77285e-05
6.99556e-05
6.99543e-05
5.77322e-05
3.77756e-05
1.82654e-05
1.46535e-05
5.06313e-05
1.46534e-05
5.06307e-05
3.77735e-05
5.77377e-05
6.9957e-05
5.77335e-05
6.99582e-05
3.7773e-05
1.46534e-05
5.06291e-05
1.82655e-05
3.77784e-05
1.46536e-05
5.06298e-05
5.77368e-05
6.99545e-05
5.77326e-05
6.99556e-05
3.77793e-05
1.82642e-05
5.0631e-05
1.46536e-05
5.06302e-05
1.46534e-05
3.77772e-05
5.77342e-05
6.99582e-05
6.9957e-05
5.77381e-05
3.77784e-05
1.82659e-05
1.46541e-05
5.06304e-05
1.46538e-05
5.063e-05
3.77765e-05
5.77333e-05
6.99555e-05
6.99544e-05
5.77372e-05
6.16062e-05
6.16013e-05
2.30496e-05
6.16075e-05
6.16031e-05
6.91387e-05
6.91437e-05
6.91447e-05
6.91396e-05
2.30844e-05
6.16076e-05
6.16034e-05
6.1606e-05
6.16016e-05
6.91435e-05
6.91384e-05
3.77715e-05
1.46534e-05
5.06317e-05
1.82648e-05
3.77774e-05
1.46536e-05
5.06327e-05
5.77338e-05
6.99573e-05
5.773e-05
6.99585e-05
5.77355e-05
6.99556e-05
5.77314e-05
6.99568e-05
3.77771e-05
1.82646e-05
1.46539e-05
5.06314e-05
1.46537e-05
5.06312e-05
3.77753e-05
3.77775e-05
1.82651e-05
1.46541e-05
5.06331e-05
1.46538e-05
5.06325e-05
3.77762e-05
5.77307e-05
6.99584e-05
6.99572e-05
5.77344e-05
5.7732e-05
6.99567e-05
6.99555e-05
5.7736e-05
6.91381e-05
6.91432e-05
6.91402e-05
6.91453e-05
2.30841e-05
6.16003e-05
6.16084e-05
6.15986e-05
6.16068e-05
6.91431e-05
6.91379e-05
6.91452e-05
6.91401e-05
6.91382e-05
6.91433e-05
6.91392e-05
6.91444e-05
6.1601e-05
6.16063e-05
2.30468e-05
6.16028e-05
6.16082e-05
6.91434e-05
6.91382e-05
6.91445e-05
6.91393e-05
2.30775e-05
6.16031e-05
6.16085e-05
6.16013e-05
6.16067e-05
5.77336e-05
6.99532e-05
5.77299e-05
6.99545e-05
3.7775e-05
5.06302e-05
1.46537e-05
1.82653e-05
3.77798e-05
5.06308e-05
1.46537e-05
3.77725e-05
5.06291e-05
1.46533e-05
1.82656e-05
3.77798e-05
5.06279e-05
1.46534e-05
5.77311e-05
6.9958e-05
6.99567e-05
5.77346e-05
5.77299e-05
6.99547e-05
6.99533e-05
5.77335e-05
3.77791e-05
1.82654e-05