/*--------------------------------*- C++ -*----------------------------------*\
| =========                 |                                                 |
| \\      /  F ield         | OpenFOAM: The Open Source CFD Toolbox           |
|  \\    /   O peration     | Version:  v2006                                 |
|   \\  /    A nd           | Website:  www.openfoam.com                      |
|    \\/     M anipulation  |                                                 |
\*---------------------------------------------------------------------------*/
FoamFile
{
    version     2.0;
    format      ascii;
    class       volScalarField;
    location    "125";
    object      nut;
}
// * * * * * * * * * * * * * * * * * * * * * * * * * * * * * * * * * * * * * //

dimensions      [0 2 -1 0 0 0 0];


internalField   nonuniform List<scalar> 
14212
(
7.80448e-05
4.95276e-05
2.35454e-05
4.95238e-05
9.5846e-05
7.5787e-05
2.35476e-05
2.35457e-05
9.07165e-05
6.55024e-05
6.55005e-05
7.80424e-05
4.95227e-05
8.51611e-05
9.5829e-05
7.57918e-05
0.00010809
8.51549e-05
9.58114e-05
7.57786e-05
0.000108088
9.07033e-05
6.54913e-05
6.55013e-05
2.35466e-05
9.58291e-05
7.57838e-05
4.95247e-05
3.6165e-05
7.80334e-05
4.03797e-05
7.69358e-05
4.03793e-05
7.69249e-05
3.61656e-05
2.01202e-05
7.08331e-05
4.9527e-05
7.08204e-05
2.01213e-05
2.35444e-05
4.95238e-05
2.35463e-05
2.35452e-05
7.33823e-05
2.14795e-05
2.14774e-05
2.1477e-05
2.14762e-05
7.33944e-05
8.20008e-05
4.72809e-05
6.54954e-05
8.54128e-05
4.72782e-05
8.20153e-05
8.53993e-05
8.20036e-05
6.54945e-05
4.72693e-05
8.54131e-05
4.72728e-05
8.20119e-05
8.5408e-05
3.61628e-05
7.8031e-05
4.03796e-05
7.69278e-05
4.03792e-05
7.6917e-05
3.61634e-05
2.01185e-05
7.08156e-05
4.95223e-05
7.08038e-05
2.01197e-05
2.1477e-05
2.14798e-05
7.33973e-05
8.2013e-05
4.7269e-05
6.54857e-05
8.54072e-05
4.72685e-05
8.5394e-05
8.20217e-05
4.72787e-05
8.54133e-05
8.20017e-05
0.000124758
0.000147265
0.000124773
0.000147264
8.54407e-05
8.9509e-05
9.06929e-05
8.89523e-05
8.89454e-05
8.953e-05
8.89469e-05
8.89417e-05
8.55425e-05
8.51445e-05
8.49662e-05
8.61638e-05
8.49364e-05
8.61676e-05
8.55348e-05
8.47733e-05
8.16381e-05
7.578e-05
8.54418e-05
8.16247e-05
8.54368e-05
8.47698e-05
8.5535e-05
8.51374e-05
8.49489e-05
8.61608e-05
8.49209e-05
8.61645e-05
8.55273e-05
8.47634e-05
8.16225e-05
7.57669e-05
8.54312e-05
8.16054e-05
8.47589e-05
8.54263e-05
8.95102e-05
9.07108e-05
8.89426e-05
8.89496e-05
8.89451e-05
8.8938e-05
8.95295e-05
7.57725e-05
8.54375e-05
8.54337e-05
7.33901e-05
2.14761e-05
2.14789e-05
8.19941e-05
6.54958e-05
8.54028e-05
4.72782e-05
2.35457e-05
4.95242e-05
7.57748e-05
8.54356e-05
8.5153e-05
0.000108115
7.80286e-05
8.51556e-05
9.58266e-05
0.000108111
7.57636e-05
7.8028e-05
4.9521e-05
9.58436e-05
7.57605e-05
4.95193e-05
9.07074e-05
6.54892e-05
6.54878e-05
2.35448e-05
2.35437e-05
3.61651e-05
7.69149e-05
4.03784e-05
7.804e-05
3.61644e-05
7.6926e-05
4.03789e-05
3.6164e-05
4.03789e-05
7.69132e-05
7.80393e-05
3.61634e-05
4.03793e-05
7.69239e-05
2.01203e-05
7.08018e-05
4.95215e-05
2.01192e-05
7.08137e-05
4.95198e-05
7.33908e-05
2.14786e-05
2.14755e-05
7.33833e-05
2.14796e-05
2.14764e-05
8.1992e-05
4.72781e-05
8.53849e-05
6.54954e-05
8.19788e-05
8.54021e-05
4.72786e-05
8.20143e-05
4.72677e-05
8.53868e-05
6.54936e-05
8.2003e-05
8.54034e-05
4.72683e-05
2.35456e-05
2.35446e-05
0.000124787
8.55207e-05
8.49367e-05
8.61607e-05
8.51513e-05
8.55338e-05
8.49369e-05
8.61533e-05
8.55221e-05
8.61624e-05
8.49293e-05
8.51544e-05
8.55356e-05
8.61555e-05
8.49358e-05
8.47455e-05
8.16151e-05
8.54248e-05
7.57756e-05
8.47618e-05
8.16148e-05
8.54235e-05
8.54247e-05
7.57729e-05
8.54228e-05
8.95312e-05
9.07018e-05
8.89368e-05
8.89414e-05
8.9524e-05
8.89321e-05
8.89368e-05
2.01212e-05
7.08128e-05
2.01199e-05
7.08264e-05
8.47466e-05
8.16159e-05
8.47644e-05
8.16162e-05
7.08297e-05
2.01212e-05
8.16247e-05
8.47641e-05
7.80361e-05
8.51382e-05
9.08583e-05
0.000108104
9.58463e-05
7.80392e-05
7.80422e-05
9.08348e-05
2.35456e-05
0.000124779
9.58467e-05
0.000108102
9.08421e-05
0.000108093
0.00010809
9.08741e-05
9.58479e-05
0.0001081
4.95216e-05
6.54954e-05
9.5825e-05
0.000108089
9.08233e-05
7.5775e-05
7.8023e-05
8.51442e-05
0.0001081
4.95211e-05
9.08062e-05
9.58459e-05
7.80273e-05
7.80314e-05
2.35448e-05
0.000147266
0.000147265
0.000147267
0.000147275
4.95248e-05
7.80431e-05
9.58521e-05
7.57871e-05
8.51398e-05
9.5848e-05
0.000108093
0.000108094
4.95196e-05
9.58187e-05
0.000108091
7.57812e-05
9.58188e-05
0.000108091
2.35445e-05
6.54928e-05
6.55056e-05
2.3546e-05
9.58483e-05
8.51412e-05
7.57879e-05
9.58488e-05
0.000108105
0.000108103
8.51388e-05
7.57816e-05
9.58462e-05
0.000108104
7.57696e-05
4.95235e-05
4.95199e-05
4.95194e-05
6.54991e-05
6.54969e-05
9.07196e-05
6.54934e-05
6.54912e-05
2.35448e-05
2.35446e-05
2.35437e-05
7.80472e-05
4.95261e-05
7.80334e-05
2.35444e-05
4.95244e-05
7.80307e-05
0.000147264
0.000147266
0.000147275
0.000108104
8.51557e-05
7.57745e-05
8.51432e-05
0.000108104
2.35436e-05
9.58449e-05
8.51317e-05
7.57757e-05
6.54938e-05
6.54916e-05
9.08036e-05
6.54998e-05
6.54973e-05
2.35467e-05
2.35455e-05
2.35468e-05
9.0821e-05
6.5503e-05
9.08456e-05
6.55003e-05
6.54953e-05
7.80449e-05
8.51492e-05
8.51496e-05
7.80343e-05
4.95266e-05
4.95254e-05
7.80456e-05
7.8032e-05
4.95227e-05
4.95222e-05
7.80435e-05
9.58248e-05
9.58241e-05
0.000108091
8.51427e-05
7.57897e-05
7.57767e-05
8.5138e-05
0.00010809
9.58132e-05
9.58135e-05
8.51447e-05
7.57754e-05
7.57659e-05
8.51379e-05
2.35454e-05
2.35444e-05
9.07725e-05
6.54918e-05
6.55004e-05
6.54859e-05
6.54944e-05
2.35466e-05
2.35457e-05
0.000108105
9.58488e-05
0.000108105
8.51545e-05
7.57863e-05
7.57749e-05
8.51493e-05
7.80352e-05
4.95246e-05
4.9524e-05
7.80459e-05
9.58273e-05
7.57839e-05
0.000108101
9.58249e-05
7.57724e-05
8.5156e-05
8.51471e-05
4.95211e-05
7.8034e-05
7.80447e-05
2.35458e-05
2.35459e-05
9.07757e-05
6.54898e-05
4.95222e-05
7.80308e-05
0.00010809
7.57802e-05
8.51397e-05
9.58123e-05
7.57664e-05
8.51373e-05
6.54857e-05
6.54951e-05
2.35457e-05
8.51471e-05
9.58461e-05
0.000108094
4.95191e-05
9.58156e-05
0.00010809
7.57677e-05
7.80458e-05
4.95242e-05
7.80349e-05
9.58272e-05
7.57716e-05
8.51549e-05
9.58255e-05
8.5141e-05
0.000108099
7.57848e-05
7.80447e-05
7.80337e-05
4.95216e-05
6.54861e-05
6.55001e-05
2.35451e-05
0.000108102
8.5129e-05
7.57695e-05
9.58453e-05
7.57826e-05
4.95231e-05
4.95194e-05
4.95199e-05
2.35456e-05
2.35437e-05
2.35446e-05
3.61618e-05
4.03784e-05
7.69218e-05
7.8023e-05
4.03779e-05
7.69106e-05
3.61625e-05
3.61641e-05
7.6926e-05
4.03788e-05
7.80272e-05
7.69131e-05
4.03783e-05
3.61648e-05
3.61624e-05
7.6926e-05
4.03788e-05
7.80311e-05
7.69155e-05
4.03783e-05
3.61631e-05
2.35448e-05
2.01191e-05
4.95211e-05
7.08155e-05
7.08036e-05
2.01203e-05
8.20325e-05
8.54107e-05
4.72797e-05
6.55066e-05
8.20164e-05
4.72781e-05
8.54247e-05
3.61625e-05
4.03779e-05
7.6911e-05
7.80335e-05
3.61618e-05
4.03784e-05
7.69218e-05
2.01203e-05
7.08038e-05
4.95216e-05
2.01191e-05
7.08157e-05
3.61648e-05
7.69135e-05
4.03783e-05
7.80375e-05
3.61642e-05
7.69238e-05
4.03788e-05
3.61631e-05
7.69155e-05
4.03783e-05
7.80415e-05
3.61625e-05
7.69263e-05
4.03788e-05
2.35456e-05
2.01202e-05
4.95244e-05
7.08338e-05
7.08202e-05
2.01214e-05
3.61644e-05
7.69346e-05
4.0379e-05
7.80306e-05
7.69232e-05
4.03785e-05
3.61651e-05
2.01186e-05
7.0813e-05
4.95191e-05
7.08005e-05
2.01198e-05
2.35436e-05
8.20181e-05
8.54118e-05
4.72691e-05
6.54871e-05
8.53957e-05
4.72686e-05
8.20273e-05
7.33963e-05
2.14769e-05
2.14802e-05
2.14759e-05
2.14792e-05
7.34028e-05
8.19848e-05
8.5416e-05
4.72798e-05
6.55001e-05
4.72793e-05
8.54003e-05
8.19941e-05
2.35451e-05
2.01197e-05
7.08284e-05
4.9523e-05
7.08146e-05
2.0121e-05
2.01187e-05
7.08153e-05
4.95194e-05
7.08035e-05
2.01199e-05
2.01199e-05
4.95198e-05
7.08035e-05
2.01187e-05
7.08151e-05
8.19893e-05
8.54157e-05
4.72787e-05
6.54935e-05
4.72781e-05
8.19988e-05
8.53991e-05
7.33864e-05
2.14796e-05
2.14765e-05
2.14786e-05
2.14755e-05
7.33938e-05
8.20152e-05
8.54135e-05
4.72684e-05
6.54914e-05
8.53976e-05
4.72678e-05
8.20251e-05
8.19999e-05
6.54988e-05
8.5398e-05
4.72779e-05
4.72787e-05
8.54135e-05
8.19905e-05
7.33921e-05
2.14786e-05
2.14757e-05
2.14796e-05
2.14765e-05
7.33845e-05
8.20249e-05
6.54965e-05
8.53987e-05
4.72678e-05
8.54129e-05
4.72683e-05
8.2015e-05
2.35456e-05
2.35437e-05
2.35445e-05
3.61647e-05
4.03797e-05
7.69356e-05
7.80354e-05
4.03792e-05
7.69251e-05
3.61653e-05
2.0121e-05
7.08188e-05
4.9527e-05
2.01198e-05
7.08322e-05
3.61654e-05
7.80455e-05
4.03792e-05
7.6924e-05
3.61647e-05
4.03797e-05
7.6935e-05
2.35454e-05
2.01211e-05
7.08206e-05
4.95246e-05
2.01202e-05
7.08325e-05
3.61649e-05
7.69235e-05
4.03785e-05
7.80418e-05
3.61645e-05
7.69342e-05
4.0379e-05
2.35445e-05
8.19984e-05
8.53995e-05
4.72783e-05
6.54994e-05
8.19887e-05
8.54155e-05
4.72789e-05
7.33953e-05
2.14786e-05
2.14755e-05
7.33879e-05
2.14796e-05
2.14765e-05
8.20255e-05
8.53973e-05
4.72679e-05
6.54971e-05
8.20153e-05
8.54133e-05
4.72685e-05
7.33883e-05
2.14794e-05
2.14765e-05
2.14783e-05
2.14755e-05
7.33956e-05
8.19873e-05
6.54943e-05
4.72787e-05
8.54119e-05
8.54002e-05
4.72782e-05
8.19974e-05
8.20154e-05
6.54919e-05
4.72685e-05
8.54105e-05
8.53983e-05
4.7268e-05
8.20239e-05
2.35458e-05
2.35464e-05
2.35459e-05
8.20094e-05
6.54959e-05
8.54268e-05
4.72811e-05
8.54095e-05
4.72807e-05
8.2019e-05
8.19938e-05
8.5404e-05
6.54948e-05
4.72689e-05
4.72678e-05
8.53886e-05
8.20046e-05
8.20041e-05
8.53899e-05
4.72671e-05
6.55005e-05
8.19905e-05
4.7268e-05
8.54042e-05
7.3391e-05
2.14795e-05
2.14778e-05
2.14769e-05
2.14787e-05
7.33978e-05
3.61627e-05
4.03796e-05
7.69268e-05
7.80331e-05
4.03791e-05
7.69162e-05
3.61633e-05
3.61653e-05
4.03792e-05
7.69241e-05
7.80462e-05
3.61647e-05
4.03797e-05
7.69349e-05
2.01198e-05
4.95259e-05
7.08331e-05
2.0121e-05
7.08186e-05
2.0121e-05
7.08193e-05
4.95258e-05
2.01198e-05
7.08326e-05
3.61647e-05
7.8034e-05
4.03797e-05
7.69348e-05
3.61654e-05
4.03792e-05
7.69238e-05
3.61634e-05
4.03791e-05
7.69161e-05
7.80439e-05
3.61627e-05
4.03796e-05
7.69265e-05
2.01185e-05
4.95222e-05
7.08146e-05
7.08028e-05
2.01197e-05
2.01197e-05
7.08027e-05
4.95226e-05
2.01185e-05
7.08142e-05
3.61628e-05
7.80316e-05
4.03796e-05
7.69267e-05
4.03791e-05
7.69161e-05
3.61634e-05
2.35444e-05
2.35453e-05
7.33939e-05
2.14763e-05
2.14784e-05
2.14771e-05
2.14796e-05
7.33863e-05
8.20112e-05
8.54103e-05
6.54859e-05
4.72688e-05
8.53939e-05
4.72682e-05
8.20221e-05
8.1997e-05
8.54167e-05
6.54948e-05
4.72788e-05
4.72783e-05
8.54005e-05
8.20054e-05
8.20219e-05
8.53962e-05
4.72686e-05
6.54915e-05
8.54103e-05
4.72689e-05
8.20103e-05
8.20076e-05
8.53979e-05
4.72773e-05
6.54999e-05
4.72782e-05
8.54146e-05
8.19972e-05
7.33877e-05
2.14771e-05
2.14798e-05
2.14761e-05
2.14789e-05
7.33951e-05
2.35457e-05
2.35466e-05
3.61651e-05
7.69209e-05
4.03784e-05
7.80458e-05
7.69315e-05
4.03789e-05
3.61644e-05
2.01199e-05
4.95242e-05
7.08297e-05
7.08162e-05
2.01211e-05
2.01211e-05
7.08162e-05
4.95246e-05
7.08297e-05
2.01199e-05
3.61644e-05
7.8035e-05
7.69313e-05
4.03789e-05
7.69207e-05
4.03785e-05
3.61651e-05
2.01203e-05
4.95215e-05
7.08034e-05
7.08153e-05
2.01191e-05
3.6164e-05
7.6918e-05
4.03789e-05
7.80448e-05
4.03794e-05
7.69282e-05
3.61633e-05
3.61633e-05
7.69281e-05
7.80338e-05
4.03794e-05
4.03789e-05
7.69177e-05
3.6164e-05
2.3547e-05
2.35465e-05
8.20032e-05
8.53872e-05
4.72698e-05
6.55011e-05
8.19987e-05
4.72741e-05
8.54047e-05
7.33924e-05
2.14779e-05
2.1477e-05
7.33999e-05
2.14774e-05
2.14777e-05
2.01197e-05
7.08032e-05
4.95227e-05
2.01185e-05
7.08151e-05
3.61634e-05
7.80432e-05
4.03791e-05
7.69163e-05
4.03796e-05
3.61628e-05
7.6927e-05
8.20229e-05
8.53933e-05
4.72683e-05
6.54916e-05
4.72689e-05
8.20119e-05
8.54096e-05
8.20041e-05
8.54011e-05
4.72783e-05
6.55008e-05
8.54163e-05
8.19951e-05
4.72788e-05
7.33963e-05
2.14761e-05
2.14789e-05
2.14771e-05
7.3389e-05
2.14798e-05
2.35466e-05
2.01198e-05
7.08008e-05
4.95195e-05
2.01187e-05
7.0813e-05
3.61645e-05
7.80356e-05
7.69315e-05
4.0379e-05
7.69205e-05
4.03785e-05
3.61651e-05
2.01212e-05
7.0816e-05
4.95246e-05
7.08295e-05
2.01199e-05
3.61651e-05
7.80459e-05
7.69203e-05
4.03785e-05
7.69311e-05
3.61644e-05
4.0379e-05
2.01199e-05
7.0816e-05
3.61634e-05
7.80345e-05
4.03794e-05
7.69287e-05
4.03789e-05
7.6918e-05
3.6164e-05
3.6164e-05
7.69175e-05
7.80447e-05
4.03789e-05
3.61634e-05
4.03794e-05
7.69281e-05
2.01191e-05
4.95212e-05
7.08162e-05
7.08043e-05
2.01203e-05
8.2025e-05
8.53956e-05
4.72686e-05
6.54915e-05
8.2018e-05
4.72691e-05
8.54068e-05
7.34029e-05
2.14759e-05
2.14792e-05
7.33964e-05
2.14769e-05
2.14802e-05
8.19944e-05
8.54e-05
4.72793e-05
6.55055e-05
8.19849e-05
8.54113e-05
4.72798e-05
2.3546e-05
2.0121e-05
7.08145e-05
4.95235e-05
2.01197e-05
7.08283e-05
2.01199e-05
7.08038e-05
4.95199e-05
2.01187e-05
7.08156e-05
2.01188e-05
4.95195e-05
7.08159e-05
7.08042e-05
2.01199e-05
2.35448e-05
2.35446e-05
2.35437e-05
8.55342e-05
8.61634e-05
8.4937e-05
8.51311e-05
8.61634e-05
8.49229e-05
8.55272e-05
8.95122e-05
8.89481e-05
8.89482e-05
9.08457e-05
8.89451e-05
8.89452e-05
8.95147e-05
8.95123e-05
8.89473e-05
8.89523e-05
9.07914e-05
8.89479e-05
8.95158e-05
8.8943e-05
0.000147265
0.000147272
0.000167545
8.95141e-05
8.89431e-05
8.89483e-05
9.08651e-05
8.95109e-05
8.89464e-05
8.89514e-05
8.95118e-05
9.08564e-05
8.8943e-05
8.89511e-05
8.89399e-05
8.8948e-05
8.95146e-05
8.95138e-05
8.8938e-05
8.89457e-05
9.07724e-05
8.89486e-05
8.95105e-05
8.89412e-05
8.47679e-05
8.16248e-05
8.54347e-05
7.57847e-05
8.47695e-05
8.16441e-05
8.54394e-05
8.55284e-05
8.61661e-05
8.49364e-05
8.51631e-05
8.55359e-05
8.61637e-05
8.49499e-05
8.95269e-05
8.8943e-05
8.89429e-05
9.0758e-05
8.95076e-05
8.8946e-05
8.8946e-05
0.000124769
0.00012477
0.000147267
0.000147272
0.000147275
0.000167547
0.000167547
0.000147265
0.000124773
0.000147279
0.000124774
0.00014728
0.000167552
0.000167551
0.000124769
0.000147275
0.000147271
0.000124771
0.000147277
0.000167546
0.000167544
0.000124774
0.00014726
0.000124774
0.000147262
0.000147276
0.000167545
0.000167544
8.47612e-05
7.57762e-05
8.16183e-05
8.54395e-05
8.16095e-05
8.54339e-05
8.47581e-05
8.55362e-05
8.49382e-05
8.61644e-05
8.51321e-05
8.49234e-05
8.61641e-05
8.55298e-05
8.47617e-05
8.16131e-05
8.54332e-05
7.57719e-05
8.16089e-05
8.54279e-05
8.47571e-05
8.55366e-05
8.61656e-05
8.49381e-05
8.51425e-05
8.61694e-05
8.4938e-05
8.55278e-05
8.4768e-05
8.5439e-05
8.16201e-05
7.57758e-05
8.54337e-05
8.16184e-05
8.47632e-05
8.55384e-05
8.61663e-05
8.49275e-05
8.51417e-05
8.61702e-05
8.49312e-05
8.55294e-05
8.4766e-05
8.54354e-05
8.16024e-05
7.57694e-05
8.16032e-05
8.54298e-05
8.47592e-05
8.47642e-05
7.57812e-05
8.543e-05
8.16161e-05
8.47727e-05
8.16097e-05
8.54349e-05
8.95161e-05
9.07646e-05
8.89403e-05
8.89453e-05
8.89501e-05
8.89449e-05
8.95109e-05
0.000124773
0.000147278
0.000147278
0.000167551
0.000124769
0.000147275
0.000124768
0.000147266
0.000167544
0.00012477
0.000147261
0.000167545
8.55408e-05
8.51356e-05
8.49464e-05
8.6169e-05
8.49209e-05
8.61719e-05
8.55325e-05
8.47639e-05
8.54357e-05
8.16124e-05
7.57863e-05
8.47704e-05
8.54405e-05
8.16111e-05
8.55335e-05
8.61713e-05
8.51399e-05
8.49359e-05
8.55418e-05
8.49321e-05
8.61683e-05
8.47684e-05
8.16087e-05
8.55262e-05
8.61649e-05
8.49233e-05
8.5146e-05
8.55346e-05
8.61606e-05
8.49407e-05
8.47629e-05
8.54333e-05
8.16161e-05
7.57877e-05
8.47685e-05
8.54381e-05
8.16216e-05
8.95093e-05
9.08344e-05
8.89444e-05
8.89495e-05
8.89418e-05
8.8947e-05
8.95267e-05
8.95159e-05
8.89574e-05
9.08698e-05
8.89357e-05
8.896e-05
8.95141e-05
8.89395e-05
8.95113e-05
9.08634e-05
8.89573e-05
8.89389e-05
8.8955e-05
8.8936e-05
8.95139e-05
8.5545e-05
8.61661e-05
8.49484e-05
8.51528e-05
8.49528e-05
8.6169e-05
8.55357e-05
8.55378e-05
8.61627e-05
8.49473e-05
8.5151e-05
8.49453e-05
8.61653e-05
8.55297e-05
8.5534e-05
8.61664e-05
8.49381e-05
8.51395e-05
8.55425e-05
8.49343e-05
8.61653e-05
8.47687e-05
8.54403e-05
7.57781e-05
8.16155e-05
8.54349e-05
8.1613e-05
8.47627e-05
8.47661e-05
8.54356e-05
8.16172e-05
7.57886e-05
8.544e-05
8.47743e-05
8.16155e-05
8.55406e-05
8.61669e-05
8.51366e-05
8.49295e-05
8.49294e-05
8.61686e-05
8.55327e-05
8.55288e-05
8.61634e-05
8.49424e-05
8.51419e-05
8.5537e-05
8.49375e-05
8.61627e-05
8.47633e-05
8.54306e-05
7.57659e-05
8.16014e-05
8.16042e-05
8.54251e-05
8.47567e-05
8.47602e-05
8.54249e-05
8.16161e-05
7.57751e-05
8.47671e-05
8.16118e-05
8.54297e-05
8.55353e-05
8.61654e-05
8.51382e-05
8.49254e-05
8.49285e-05
8.61665e-05
8.5527e-05
8.95158e-05
9.08368e-05
8.89397e-05
8.89483e-05
8.89435e-05
8.89521e-05
8.95124e-05
8.55365e-05
8.61729e-05
8.49485e-05
8.51574e-05
8.49532e-05
8.6168e-05
8.55441e-05
8.47749e-05
8.54408e-05
7.57744e-05
8.16192e-05
8.47675e-05
8.54354e-05
8.16225e-05
8.47708e-05
8.54359e-05
8.16262e-05
7.57865e-05
8.54407e-05
8.16275e-05
8.47753e-05
8.55432e-05
8.61684e-05
8.51542e-05
8.49468e-05
8.55349e-05
8.49506e-05
8.61706e-05
8.47724e-05
8.54373e-05
7.57718e-05
8.16089e-05
8.5432e-05
8.16126e-05
8.47646e-05
8.47692e-05
7.57839e-05
8.54323e-05
8.16231e-05
8.54369e-05
8.16198e-05
8.47745e-05
8.55363e-05
8.61733e-05
8.495e-05
8.51572e-05
8.61687e-05
8.49517e-05
8.55443e-05
8.55427e-05
8.61689e-05
8.49406e-05
8.51527e-05
8.61712e-05
8.49466e-05
8.55341e-05
8.95121e-05
8.89514e-05
8.89396e-05
9.0737e-05
8.95083e-05
8.89466e-05
8.8948e-05
8.47652e-05
8.5435e-05
8.16168e-05
7.57913e-05
8.16226e-05
8.47681e-05
8.54413e-05
8.55338e-05
8.61688e-05
8.51436e-05
8.49303e-05
8.49379e-05
8.5541e-05
8.6166e-05
8.47573e-05
8.54255e-05
8.15987e-05
7.57774e-05
8.47615e-05
8.16026e-05
8.54309e-05
8.55269e-05
8.61669e-05
8.51393e-05
8.49218e-05
8.55345e-05
8.49235e-05
8.61639e-05
8.55327e-05
8.49438e-05
8.61674e-05
8.51681e-05
8.55394e-05
8.49577e-05
8.61658e-05
8.47622e-05
8.16147e-05
8.54275e-05
7.57779e-05
8.47645e-05
8.16315e-05
8.54321e-05
8.47613e-05
8.54319e-05
8.16045e-05
7.57834e-05
8.54373e-05
8.47675e-05
8.16065e-05
8.554e-05
8.51352e-05
8.6169e-05
8.4944e-05
8.61723e-05
8.49193e-05
8.55317e-05
8.55326e-05
8.61702e-05
8.49304e-05
8.51384e-05
8.61691e-05
8.5541e-05
8.49283e-05
8.47659e-05
7.57724e-05
8.16227e-05
8.54374e-05
8.54324e-05
8.1608e-05
8.47619e-05
8.55285e-05
8.61652e-05
8.49143e-05
8.5146e-05
8.55363e-05
8.6161e-05
8.49377e-05
8.47604e-05
8.54299e-05
8.1602e-05
7.57817e-05
8.47641e-05
8.54355e-05
8.16068e-05
8.47661e-05
7.57705e-05
8.1621e-05
8.54357e-05
8.54306e-05
8.16087e-05
8.47614e-05
0.000124791
9.58476e-05
9.58346e-05
9.08235e-05
0.000124787
9.58469e-05
9.58477e-05
9.07631e-05
0.00012479
9.58532e-05
9.58515e-05
9.07536e-05
0.000124793
9.58565e-05
9.5856e-05
9.08121e-05
0.000124786
9.58532e-05
9.58537e-05
9.08255e-05
0.000124783
9.58478e-05
9.58496e-05
9.0748e-05
0.000124776
9.58477e-05
9.58498e-05
9.07039e-05
9.0784e-05
9.5812e-05
9.07529e-05
9.58449e-05
9.58274e-05
9.58442e-05
9.07729e-05
6.54927e-05
9.08013e-05
9.58225e-05
9.5815e-05
9.58335e-05
9.58138e-05
9.08064e-05
9.07334e-05
7.57683e-05
7.80144e-05
8.51432e-05
9.58384e-05
9.58184e-05
9.58282e-05
9.58469e-05
9.58274e-05
6.54906e-05
9.07338e-05
9.58445e-05
9.58452e-05
9.58434e-05
9.07357e-05
9.0837e-05
9.07804e-05
9.58345e-05
9.58129e-05
9.58376e-05
9.58206e-05
9.07062e-05
9.08617e-05
9.58404e-05
9.58207e-05
9.58436e-05
9.58232e-05
9.58296e-05
9.5854e-05
9.58305e-05
9.07556e-05
9.07686e-05
9.58453e-05
9.58497e-05
9.58464e-05
9.07694e-05
9.08288e-05
9.07426e-05
9.58384e-05
9.58202e-05
9.58386e-05
9.58234e-05
9.08253e-05
9.08214e-05
9.58452e-05
9.58243e-05
9.5845e-05
9.58265e-05
9.58325e-05
9.58566e-05
9.5837e-05
9.07489e-05
9.07538e-05
9.58487e-05
9.58557e-05
9.58527e-05
9.07996e-05
9.07936e-05
9.07123e-05
9.58391e-05
9.58232e-05
9.58341e-05
9.58194e-05
9.08375e-05
9.07213e-05
9.58465e-05
9.58271e-05
9.58432e-05
9.58238e-05
9.58363e-05
9.58524e-05
9.58346e-05
9.07489e-05
9.0733e-05
9.58524e-05
9.5853e-05
9.58508e-05
9.07796e-05
9.072e-05
9.07436e-05
9.58342e-05
9.58199e-05
9.58313e-05
9.5815e-05
9.07425e-05
9.07405e-05
9.58439e-05
9.58238e-05
9.58412e-05
9.58191e-05
9.58337e-05
9.58481e-05
9.58296e-05
9.07119e-05
9.07606e-05
9.58505e-05
9.58499e-05
9.58467e-05
9.07198e-05
9.07095e-05
9.07868e-05
9.58307e-05
9.58147e-05
9.5832e-05
9.5815e-05
9.06977e-05
9.08012e-05
9.58411e-05
9.5818e-05
9.5842e-05
9.58203e-05
9.58297e-05
9.58478e-05
9.5828e-05
9.0709e-05
9.08299e-05
9.58469e-05
9.58504e-05
9.58456e-05
9.07379e-05
9.07417e-05
9.07975e-05
9.58325e-05
9.58146e-05
9.58308e-05
8.47538e-05
9.07399e-05
9.58419e-05
9.58198e-05
9.58465e-05
9.58203e-05
9.58283e-05
9.58409e-05
8.51387e-05
7.8044e-05
9.07729e-05
9.08336e-05
9.58461e-05
9.58493e-05
9.5856e-05
9.08352e-05
2.35451e-05
2.35442e-05
9.58402e-05
8.51354e-05
7.80325e-05
4.95247e-05
7.57787e-05
9.58495e-05
2.35453e-05
6.54951e-05
9.07958e-05
6.55021e-05
2.35456e-05
0.000124788
0.000124787
7.80407e-05
4.9526e-05
7.80275e-05
4.95275e-05
2.35444e-05
2.35453e-05
4.95243e-05
7.80248e-05
7.80388e-05
4.95235e-05
0.000124777
0.000124787
0.000124786
0.000124786
0.000124786
0.000124771
0.000124784
8.51548e-05
7.5771e-05
0.000108113
9.58483e-05
8.51472e-05
7.57844e-05
0.000108113
2.35447e-05
2.35448e-05
7.57696e-05
8.51479e-05
0.000108109
9.58436e-05
8.51437e-05
0.000108108
7.5784e-05
6.54906e-05
6.54888e-05
9.08246e-05
6.54965e-05
6.54945e-05
7.8042e-05
4.95275e-05
7.80309e-05
4.95279e-05
2.35443e-05
2.35452e-05
7.80411e-05
4.95224e-05
7.80283e-05
4.95228e-05
0.000124786
0.000124773
0.000124784
0.000124789
0.000124787
0.000124776
0.000124784
8.51545e-05
7.57741e-05
0.000108113
9.58503e-05
8.51554e-05
7.57876e-05
0.000108113
2.35436e-05
2.35442e-05
8.51487e-05
0.000108108
7.57738e-05
9.58486e-05
8.51515e-05
0.000108108
7.57873e-05
6.54921e-05
6.54896e-05
9.08364e-05
6.5498e-05
6.54952e-05
7.80441e-05
4.95275e-05
7.80327e-05
4.95279e-05
2.35443e-05
2.35452e-05
7.80424e-05
4.95223e-05
7.80312e-05
4.95228e-05
0.000124788
0.000124778
0.000124785
0.000124793
0.000124792
0.000124785
0.000124789
8.51609e-05
7.57766e-05
0.000108115
9.58525e-05
8.51703e-05
7.57888e-05
0.000108117
2.35433e-05
2.35442e-05
8.51549e-05
0.000108111
7.5776e-05
9.58536e-05
8.51648e-05
0.000108114
7.57882e-05
6.54932e-05
6.54902e-05
9.08053e-05
6.54987e-05
6.54956e-05
7.80432e-05
4.95275e-05
7.80326e-05
4.9528e-05
2.35443e-05
2.35452e-05
7.80433e-05
4.95224e-05
7.80322e-05
4.95229e-05
0.000124794
0.000124787
0.000124791
0.000124788
0.000124788
0.000124782
0.000124786
8.51601e-05
7.57768e-05
0.000108118
9.58542e-05
8.51686e-05
7.57883e-05
0.000108116
2.35433e-05
2.35442e-05
8.5146e-05
0.000108116
7.57747e-05
9.58555e-05
8.51609e-05
0.000108115
7.57869e-05
6.54934e-05
6.54904e-05
9.07918e-05
6.54991e-05
6.54959e-05
7.80446e-05
4.95276e-05
7.80327e-05
4.9528e-05
2.35443e-05
2.35452e-05
7.80418e-05
4.95225e-05
7.80314e-05
4.9523e-05
0.000124785
0.00012478
0.000124784
0.000124783
0.000124781
0.000124776
0.00012478
8.51429e-05
7.57761e-05
0.000108111
9.5852e-05
8.51461e-05
7.57868e-05
0.00010811
2.35433e-05
2.35442e-05
8.5137e-05
0.00010811
7.57816e-05
9.58533e-05
8.51368e-05
0.000108108
7.57918e-05
6.54944e-05
6.54912e-05
9.08407e-05
6.55e-05
6.54965e-05
7.80448e-05
4.95276e-05
7.80337e-05
4.9528e-05
2.35443e-05
2.35453e-05
7.80425e-05
4.95225e-05
7.80308e-05
4.95229e-05
0.000124781
0.000124776
0.00012478
0.000124782
0.000124779
0.000124775
0.000124779
8.5158e-05
7.57759e-05
0.000108109
9.58483e-05
8.51499e-05
7.57892e-05
0.000108109
2.35433e-05
2.35443e-05
8.51404e-05
0.000108107
7.57768e-05
9.58498e-05
8.51516e-05
0.000108107
7.57902e-05
6.54945e-05
6.54914e-05
9.0866e-05
6.55002e-05
6.54968e-05
7.80455e-05
4.95276e-05
7.80343e-05
4.95277e-05
2.35443e-05
2.35453e-05
7.8043e-05
4.95225e-05
7.80323e-05
4.95229e-05
0.000124777
0.000124781
0.000124778
0.000124775
0.000124778
0.000124781
0.000167547
8.51481e-05
7.57771e-05
0.000108108
9.58485e-05
8.51401e-05
7.57858e-05
0.000108106
2.35434e-05
2.35445e-05
8.51406e-05
0.000108106
7.57787e-05
9.58498e-05
8.5144e-05
0.000108106
7.579e-05
6.54946e-05
6.54918e-05
9.08073e-05
6.55007e-05
6.54969e-05
6.54872e-05
6.54985e-05
9.07192e-05
6.54924e-05
6.54964e-05
2.35467e-05
2.35468e-05
6.54991e-05
9.08188e-05
6.54976e-05
4.95265e-05
7.80394e-05
4.95226e-05
7.80371e-05
9.58196e-05
7.5782e-05
0.000108101
8.51526e-05
7.57675e-05
0.000108098
8.51465e-05
2.35453e-05
6.54841e-05
6.54998e-05
2.35465e-05
7.57819e-05
0.000108114
8.51482e-05
4.95245e-05
7.80411e-05
0.00010811
7.5777e-05
8.51485e-05
4.95215e-05
7.80403e-05
9.58383e-05
7.57799e-05
0.000108109
8.51437e-05
0.000108113
7.57752e-05
8.5143e-05
4.95227e-05
7.80313e-05
4.95198e-05
7.80372e-05
6.54958e-05
6.5494e-05
2.35456e-05
2.35446e-05
2.35458e-05
2.35476e-05
2.35459e-05
2.35457e-05
9.08509e-05
6.54913e-05
9.07652e-05
6.54997e-05
6.54975e-05
2.3548e-05
2.35469e-05
2.35451e-05
2.35445e-05
9.07105e-05
6.55002e-05
6.54959e-05
6.54934e-05
6.54901e-05
7.80386e-05
4.95221e-05
7.80251e-05
4.95225e-05
8.5155e-05
7.57711e-05
0.000108101
9.58285e-05
8.51495e-05
7.5787e-05
0.000108099
8.51549e-05
7.5759e-05
0.000108097
9.58156e-05
8.51453e-05
7.57697e-05
0.000108097
7.80285e-05
4.95279e-05
4.9527e-05
7.80416e-05
7.80263e-05
4.95225e-05
4.95221e-05
7.80396e-05
8.51562e-05
9.58323e-05
7.57878e-05
0.000108099
7.57748e-05
0.000108099
8.51609e-05
8.51561e-05
9.58149e-05
7.57705e-05
0.000108098
7.5761e-05
0.000108097
8.51586e-05
6.54783e-05
6.54945e-05
9.08678e-05
6.54843e-05
6.55004e-05
2.35456e-05
2.35465e-05
2.35453e-05
2.35443e-05
9.08207e-05
6.54846e-05
6.55011e-05
6.54784e-05
6.54951e-05
2.35465e-05
2.35456e-05
8.51478e-05
9.58473e-05
0.000108105
8.51545e-05
9.58399e-05
7.57801e-05
0.000108103
4.95204e-05
7.80288e-05
4.952e-05
7.57632e-05
9.58261e-05
0.000108096
8.51481e-05
9.58203e-05
0.000108094
7.57747e-05
7.80266e-05
4.95228e-05
4.95226e-05
7.80389e-05
8.5156e-05
9.58387e-05
7.57804e-05
0.000108102
7.57678e-05
0.000108102
8.51538e-05
7.80163e-05
4.95195e-05
4.95191e-05
7.80301e-05
8.51495e-05
9.58179e-05
0.000108092
7.57752e-05
0.000108093
7.57634e-05
8.5151e-05
7.80431e-05
4.95241e-05
7.80305e-05
4.95245e-05
8.51523e-05
0.00010811
7.57668e-05
9.58262e-05
8.51464e-05
0.000108109
7.57801e-05
7.80424e-05
4.9521e-05
7.80297e-05
4.95215e-05
8.51575e-05
9.58478e-05
7.57854e-05
0.000108113
7.57724e-05
0.000108114
8.51594e-05
7.80325e-05
4.95244e-05
4.9524e-05
7.80447e-05
8.51546e-05
9.58261e-05
0.000108108
7.57814e-05
0.000108109
7.57689e-05
8.51597e-05
7.80317e-05
4.95214e-05
4.9521e-05
7.80441e-05
9.08409e-05
6.54929e-05
9.08236e-05
6.54959e-05
6.54992e-05
2.35446e-05
2.35458e-05
2.35445e-05
2.35436e-05
9.07633e-05
6.54931e-05
6.55006e-05
6.54884e-05
6.54941e-05
2.3546e-05
2.35452e-05
8.51493e-05
0.000108112
7.57645e-05
9.5843e-05
8.51427e-05
0.000108111
7.57781e-05
4.95222e-05
7.8033e-05
7.802e-05
4.9523e-05
7.80388e-05
4.95193e-05
7.80263e-05
4.95198e-05
8.51488e-05
9.58443e-05
0.000108108
7.57848e-05
0.000108108
7.57722e-05
8.5154e-05
8.5151e-05
9.58422e-05
0.00010811
7.57793e-05
0.00010811
7.57662e-05
8.51564e-05
7.80222e-05
4.95235e-05
4.9523e-05
7.80356e-05
7.80282e-05
4.95197e-05
4.95193e-05
7.80405e-05
2.35447e-05
2.35456e-05
2.35437e-05
2.35445e-05
9.0762e-05
6.54973e-05
6.54948e-05
6.54912e-05
6.54891e-05
2.35455e-05
2.35447e-05
2.35445e-05
2.35436e-05
2.35471e-05
2.35479e-05
2.35443e-05
2.35451e-05
6.54952e-05
6.54906e-05
9.07969e-05
6.55021e-05
6.54965e-05
2.35479e-05
2.3547e-05
2.35451e-05
2.35442e-05
9.0732e-05
6.55037e-05
6.5497e-05
6.54971e-05
6.54911e-05
7.80402e-05
4.9522e-05
7.80283e-05
4.95225e-05
8.51599e-05
7.5776e-05
0.0001081
9.58344e-05
8.51606e-05
7.5789e-05
0.000108101
8.51531e-05
7.57617e-05
0.000108098
9.58159e-05
8.51564e-05
7.57728e-05
0.000108098
7.80308e-05
4.95279e-05
4.95275e-05
7.80433e-05
7.80288e-05
4.95224e-05
4.9522e-05
7.80413e-05
8.51575e-05
9.58356e-05
7.57898e-05
0.000108103
7.5777e-05
0.000108102
8.51617e-05
8.51534e-05
9.58198e-05
7.57735e-05
0.0001081
7.57643e-05
0.000108098
8.51655e-05
6.54789e-05
6.54958e-05
9.07867e-05
6.54852e-05
6.55017e-05
2.35456e-05
2.35464e-05
2.35452e-05
2.35443e-05
9.08033e-05
6.54856e-05
6.55019e-05
6.54794e-05
6.54963e-05
2.35464e-05
2.35456e-05
8.51494e-05
7.57684e-05
0.000108101
9.58407e-05
8.51487e-05
7.57822e-05
0.000108101
7.80324e-05
4.9519e-05
7.80187e-05
4.95193e-05
8.51437e-05
0.000108093
7.57636e-05
9.58226e-05
8.51474e-05
0.000108093
7.57775e-05
7.80302e-05
4.95228e-05
4.95223e-05
7.80422e-05
8.51531e-05
9.5841e-05
7.57833e-05
0.000108103
7.57703e-05
0.000108102
8.51643e-05
7.80214e-05
4.95192e-05
4.95188e-05
7.80343e-05
8.51448e-05
9.58225e-05
0.000108096
7.57788e-05
0.000108094
7.57657e-05
8.51577e-05
7.80465e-05
4.9524e-05
7.80339e-05
4.95244e-05
8.51559e-05
0.000108108
7.57706e-05
9.58301e-05
8.51581e-05
0.000108107
7.57835e-05
7.80457e-05
4.9521e-05
7.80333e-05
4.95214e-05
8.51592e-05
9.58535e-05
7.57884e-05
0.000108114
7.57756e-05
0.000108113
8.51721e-05
7.80359e-05
4.95244e-05
4.9524e-05
7.8048e-05
8.51565e-05
9.58297e-05
0.000108108
7.5785e-05
0.000108107
7.57726e-05
8.51687e-05
7.80351e-05
4.95213e-05
4.95209e-05
7.80473e-05
6.54868e-05
6.54953e-05
9.08423e-05
6.5493e-05
6.55018e-05
2.35452e-05
2.3546e-05
2.35442e-05
2.35433e-05
9.08225e-05
6.54938e-05
6.55027e-05
6.54878e-05
6.54965e-05
2.3546e-05
2.35451e-05
8.51496e-05
0.000108111
7.5768e-05
9.58458e-05
8.5154e-05
0.000108111
7.57816e-05
7.80376e-05
4.9523e-05
7.80243e-05
4.95234e-05
7.80421e-05
4.95193e-05
7.80296e-05
4.95197e-05
8.51518e-05
9.58494e-05
0.00010811
7.5788e-05
0.000108109
7.57761e-05
8.51658e-05
8.51515e-05
9.58453e-05
0.000108112
7.57825e-05
0.000108111
7.57697e-05
8.51673e-05
7.80266e-05
4.95234e-05
4.9523e-05
7.80393e-05
7.80315e-05
4.95197e-05
4.95192e-05
7.80436e-05
2.35446e-05
2.35455e-05
2.35436e-05
2.35445e-05
9.08124e-05
6.54985e-05
6.54955e-05
6.54926e-05
6.54898e-05
2.35455e-05
2.35446e-05
2.35444e-05
2.35436e-05
2.3547e-05
2.35479e-05
2.35442e-05
2.35451e-05
6.54985e-05
6.54916e-05
9.08298e-05
6.55047e-05
6.54975e-05
2.35479e-05
2.3547e-05
2.35451e-05
2.35442e-05
9.07572e-05
6.55052e-05
6.54978e-05
6.54993e-05
6.54921e-05
7.80417e-05
4.9522e-05
7.803e-05
4.95225e-05
8.51671e-05
7.57777e-05
0.000108105
9.58375e-05
8.5164e-05
7.57903e-05
0.000108106
8.51584e-05
7.57636e-05
0.000108102
9.582e-05
8.51661e-05
7.57717e-05
0.000108103
7.80326e-05
4.95279e-05
4.95274e-05
7.80438e-05
7.80301e-05
4.95225e-05
4.9522e-05
7.80415e-05
8.51624e-05
9.58373e-05