/*--------------------------------*- C++ -*----------------------------------*\
| =========                 |                                                 |
| \\      /  F ield         | OpenFOAM: The Open Source CFD Toolbox           |
|  \\    /   O peration     | Version:  v2006                                 |
|   \\  /    A nd           | Website:  www.openfoam.com                      |
|    \\/     M anipulation  |                                                 |
\*---------------------------------------------------------------------------*/
FoamFile
{
    version     2.0;
    format      ascii;
    class       surfaceScalarField;
    location    "125";
    object      phi;
}
// * * * * * * * * * * * * * * * * * * * * * * * * * * * * * * * * * * * * * //

dimensions      [0 3 -1 0 0 0 0];
oriented        oriented;


internalField   nonuniform List<scalar> 
40846
(
-2.09002e-10
-5.43056e-08
-0.00023254
2.14119e-08
1.39298e-09
8.19467e-09
-3.45327e-08
-1.17031e-09
-0.000194373
-6.44013e-09
-1.33669e-08
-9.78833e-05
6.52458e-09
-3.21039e-08
-0.000194356
1.29681e-06
-5.48088e-09
2.59823e-07
-1.28962e-06
2.78553e-07
-2.83058e-07
-2.69525e-07
9.40552e-07
-0.00114466
6.08656e-09
-9.40044e-07
1.50115e-08
3.22425e-08
-1.26626e-07
-0.00024878
-1.0968e-08
-1.33263e-08
-9.78998e-05
-1.11008e-08
-9.78925e-05
-1.34042e-06
-1.25002e-06
-0.000273641
2.54783e-07
2.73649e-07
-2.20398e-08
1.10755e-08
-0.000280372
-3.85075e-08
-1.28025e-08
-0.000280324
8.32805e-09
-1.90405e-08
-5.4334e-08
-0.000232499
2.1432e-08
1.10681e-09
-3.44641e-08
-1.07596e-09
-0.000194313
-1.24722e-09
-0.000255992
1.17978e-09
-2.28698e-07
2.34014e-08
2.24327e-07
-1.31638e-06
2.94832e-07
-2.66643e-07
-9.37843e-07
2.64993e-07
-2.53372e-07
9.4838e-07
-0.00114441
-1.33827e-08
-0.000248778
-1.29105e-07
7.51647e-09
3.38444e-08
-1.03743e-06
8.61941e-07
-8.57796e-07
1.04438e-06
-0.00115268
-0.000255966
1.2932e-09
-2.28727e-07
6.44089e-09
1.33191e-06
-4.86384e-09
-9.48209e-07
2.62406e-07
9.48607e-07
-2.72278e-07
-1.32467e-06
2.86716e-07
-2.91395e-07
-0.00114418
1.47543e-08
-1.33235e-08
-0.00024868
-1.26494e-07
6.2266e-09
-1.03993e-06
8.61958e-07
-8.57702e-07
1.04421e-06
-0.00115259
-0.000273624
2.76136e-07
2.81158e-07
1.13474e-08
-0.000280261
-3.56686e-08
1.11405e-08
9.605e-09
-3.34966e-08
-0.000280387
-6.53143e-09
-9.78965e-05
5.04902e-08
-1.37758e-06
2.56233e-07
-3.22182e-07
2.35307e-07
-3.26559e-07
-0.00114449
-0.000248752
-1.16588e-07
-0.000194361
-1.26504e-09
-1.67632e-09
1.80839e-08
0.000143654
1.4322e-09
-0.000143672
-2.03581e-08
5.87863e-10
-1.13214e-10
5.18035e-08
-0.000232571
-0.000171566
-3.61157e-10
-6.43521e-11
-0.00022586
1.92265e-08
3.30294e-09
-5.7035e-08
-6.02577e-11
-0.000171588
6.6913e-10
5.0981e-08
-0.000225893
8.79799e-10
1.89417e-08
7.92084e-05
-7.9226e-05
-0.000264909
1.66518e-08
-4.96539e-08
-5.56823e-09
-4.34588e-09
3.69174e-08
-0.0001944
4.67063e-08
-0.000264942
4.36765e-09
1.54689e-08
-9.79032e-05
-6.04275e-09
4.1515e-08
-0.000194385
1.3269e-08
-9.79174e-05
1.54528e-08
-9.7914e-05
-5.49949e-09
-3.63952e-09
0.000215301
-8.57551e-08
-1.62614e-09
-0.000215205
-8.07875e-05
-6.88884e-09
-1.01468e-08
-8.07787e-05
-6.63984e-09
-6.81124e-09
-6.23143e-10
-8.07923e-05
7.8646e-09
-8.07902e-05
-3.31218e-08
-1.54878e-08
-1.10969e-08
0.000224593
-1.36653e-08
-2.06033e-09
-0.000224652
-0.00018397
-2.58212e-08
-2.54776e-09
2.19999e-08
1.13929e-08
-0.00028039
3.54353e-08
-0.000254945
-8.6964e-08
-4.0419e-08
-0.000183984
-5.30697e-08
4.41619e-08
2.15801e-08
-0.000255003
-4.63473e-08
0.000224547
7.02738e-08
7.5936e-08
-0.000224648
-9.61899e-09
8.35848e-08
2.04105e-08
-0.000280402
-0.000183929
-1.45603e-08
1.01498e-08
-0.000254855
-3.99514e-08
-1.75303e-08
-0.000183977
-3.99123e-08
2.56888e-07
5.50313e-08
-0.000255013
-1.42667e-09
1.80271e-08
0.000143581
1.38646e-09
-0.000143599
-2.03388e-08
2.81239e-10
5.17741e-08
-0.000232531
-0.000171531
-4.39764e-10
-0.000225761
1.92559e-08
3.1649e-09
-5.45851e-08
-0.000171553
6.23524e-10
5.0915e-08
-0.000225794
8.33811e-10
1.89067e-08
7.91626e-05
-7.91802e-05
-0.000264783
1.66619e-08
-4.72366e-08
-5.56016e-09
3.91014e-08
-0.000194342
4.66787e-08
-0.000264816
-6.77276e-09
-6.69855e-09
-8.07783e-05
-6.80223e-09
-6.90291e-09
-8.07892e-05
-1.50014e-08
-1.30583e-08
-0.00021532
-2.31539e-08
2.88701e-08
0.00022451
4.66895e-08
-1.57963e-08
-0.000224546
-0.000183912
-2.31305e-08
-1.0953e-08
3.87281e-08
1.34777e-08
-0.000280287
-0.000254777
2.5061e-08
-3.02784e-08
-8.36718e-08
-6.26897e-09
-0.00018394
3.67796e-08
8.38664e-08
-0.00025483
-4.96149e-08
-2.09074e-08
-0.000183969
2.29645e-08
-2.78796e-08
-8.13147e-08
-0.000254954
-4.93252e-08
-0.000224586
-7.87682e-08
-0.00116378
1.76947e-08
-0.00117394
-1.6768e-08
-0.00116426
-1.09771e-08
-0.00117381
-0.000265539
-6.40159e-09
0.000247092
8.67473e-08
2.10597e-07
-0.000247315
-3.18287e-07
-2.66203e-07
-0.000275751
1.50218e-07
-0.000265977
1.19015e-07
-0.00026633
-0.000266431
-0.000266451
-2.34393e-07
1.12523e-09
0.000271675
-1.97557e-09
-0.000272477
-7.04872e-10
2.20196e-07
-3.41665e-10
-0.000256159
-0.000254774
-2.45744e-07
4.95324e-09
-0.000272046
-2.71703e-09
-7.14275e-10
-1.46063e-09
-0.000254957
-1.25108e-09
-0.000272682
-1.84769e-09
-2.14618e-07
-3.80667e-09
0.000269979
-0.0002707
-0.000255134
-2.24017e-07
3.76913e-09
1.24827e-07
-0.000248858
-0.000265529
-1.13048e-08
-0.000255299
-0.000265639
-2.36952e-07
1.6227e-09
0.00027161
-4.27305e-09
-0.00027241
-7.42611e-10
2.20135e-07
-0.000256134
-0.000254689
-2.4567e-07
4.81893e-09
-0.000272035
-2.75324e-10
-1.50029e-09
-0.000254874
-0.000272672
9.35177e-10
-2.19512e-07
0.000269896
-1.38523e-08
-0.000270615
-0.000255033
-2.21504e-07
8.50774e-09
1.34696e-07
-0.000248771
-9.02414e-09
-0.000265426
-0.000255199
-0.00026554
1.3701e-07
1.37431e-07
0.000247079
-4.67444e-08
-0.00024726
-2.73793e-07
-2.68919e-07
-0.000275695
-0.000266321
1.40015e-07
-0.000265965
1.39941e-07
-8.13828e-08
-0.000266303
-0.00026666
1.5694e-07
-0.000248855
-0.000265509
-0.00026564
-7.34732e-09
-7.34949e-09
1.34484e-08
-0.000215334
-8.0792e-05
6.21765e-09
-8.08027e-05
2.61609e-08
-2.11753e-08
-0.000224624
3.64891e-08
-8.69616e-09
-1.34418e-08
1.3546e-08
-0.000280415
3.4219e-08
-0.000255007
-0.000183993
4.26567e-09
-9.79142e-05
3.69812e-08
-0.000194388
-5.70152e-09
1.34788e-07
-0.00024887
6.11831e-09
-0.00026565
1.12528e-08
-4.93026e-08
1.73087e-09
2.33823e-10
2.22775e-07
0.000255987
1.62116e-08
1.03865e-06
-8.51975e-07
-1.03154e-06
8.56384e-07
0.00115234
5.9518e-09
-6.78394e-10
1.07278e-10
4.27871e-10
-1.82172e-08
0.000232537
-4.93402e-08
2.2286e-07
-2.14751e-10
0.000255962
6.51421e-09
-1.32449e-06
1.27322e-09
9.40146e-07
-2.69609e-07
-9.40056e-07
2.59531e-07
1.33164e-06
-2.88726e-07
2.83719e-07
0.00114379
1.03869e-06
-8.5485e-07
-1.03426e-06
8.5638e-07
0.00115237
1.10642e-08
-3.70232e-08
-1.60483e-08
6.11792e-09
1.34856e-07
0.000248715
-1.82352e-08
2.77784e-10
0.000232498
-4.3718e-09
-5.59529e-09
0.00019431
-1.28124e-06
-5.47619e-09
-2.72142e-07
2.60016e-07
1.28879e-06
-2.85729e-07
2.81447e-07
0.0011448
-3.68784e-08
-1.59811e-08
1.37005e-07
0.000248679
-4.36315e-09
0.000194303
0.000273601
-2.68509e-07
-2.71426e-07
-1.34341e-08
-8.32262e-09
3.8853e-08
0.000280346
-1.33079e-08
-8.29551e-09
3.87214e-08
0.000280263
9.78855e-05
9.78795e-05
-0.00014365
-2.11897e-08
3.22427e-10
1.09441e-09
0.00014367
-2.005e-08
0.00022586
5.33721e-08
7.33818e-10
1.55448e-09
0.000171563
-5.8656e-11
1.19812e-09
1.9252e-08
-7.26583e-11
-5.18035e-08
0.000232568
1.32398e-09
-5.69844e-08
3.37394e-09
0.000225893
-6.83121e-11
0.000171582
-0.000143583
4.54848e-10
-1.92472e-08
8.3638e-10
0.000143601
1.40495e-09
0.000171531
-1.80231e-08
0.000225767
6.64735e-10
5.09484e-08
1.9257e-08
1.31162e-09
-5.1782e-08
0.00023253
1.39487e-09
0.000171551
3.22599e-09
-5.45687e-08
0.0002258
-7.91653e-05
-1.66458e-08
7.91828e-05
-1.89365e-08
0.000264794
4.67383e-08
-1.14362e-09
6.4344e-09
-3.22228e-08
0.000194337
-4.71996e-08
0.000264827
6.44706e-09
-3.24083e-08
0.00019433
-0.000215315
6.79902e-09
6.6935e-09
-1.50229e-08
-1.52079e-08
0.000215332
7.18338e-09
8.07907e-05
6.24463e-09
7.45089e-09
8.07754e-05
6.20866e-09
1.57845e-08
1.56597e-08
-6.69095e-09
8.08042e-05
-6.8709e-09
8.07889e-05
-0.000224577
-2.26151e-08
2.28501e-08
-5.18669e-08
0.000224613
2.29766e-08
0.000183967
-2.62705e-08
0.000254907
3.68717e-08
8.38828e-08
-3.58028e-08
8.85718e-09
1.1246e-08
-1.73215e-08
0.000280379
4.90359e-08
-3.02466e-08
-8.37647e-08
0.000254963
0.000183992
-0.00022451
-2.2788e-08
2.2895e-08
-4.95502e-08
0.000224544
2.30034e-08
0.000183911
-2.61969e-08
0.000254789
3.93897e-08
8.61975e-08
-3.58216e-08
8.99335e-09
1.12304e-08
-1.49915e-08
0.000280294
4.91529e-08
-3.03947e-08
-8.12693e-08
0.000254842
0.000183936
9.79031e-05
9.78972e-05
0.00116421
-2.78761e-08
-0.000271666
2.43071e-07
-2.36083e-09
8.89251e-09
0.000272455
2.37023e-07
0.000254772
-1.50063e-09
-6.55639e-10
0.000272042
6.12959e-09
2.08122e-09
-2.26126e-07
-1.10215e-10
0.000256159
-1.23642e-08
4.88975e-09
0.000254956
-2.36538e-09
0.000272672
-0.000271608
7.86333e-10
2.45673e-07
9.7614e-10
0.000272399
-5.74567e-11
0.000272028
2.3699e-07
0.000254692
-1.46439e-09
-2.26063e-07
1.62454e-09
0.000256135
-4.31204e-09
0.000272656
4.89435e-09
0.00025488
-0.000269904
2.21462e-07
6.3397e-09
0.000270617
2.17207e-07
0.000255049
1.12488e-08
0.000265461
-1.0924e-08
-1.2646e-07
0.000248803
0.000255217
0.00026557
0.000265447
-1.29184e-07
0.000248774
0.00026556
-0.000247066
-1.39775e-07
-1.40131e-07
0.000247245
2.76031e-07
2.78733e-07
0.000275667
-1.37266e-07
0.000265914
-1.37168e-07
0.000266336
0.00026625
0.000266674
-7.92069e-05
-1.86895e-08
7.92267e-05
-2.11261e-08
0.000264915
4.90524e-08
5.72116e-09
-4.95935e-08
0.000264948
1.2825e-09
-0.00026999
2.19075e-07
0.000270711
-9.40511e-07
9.11675e-09
2.17112e-07
0.000255143
-6.08281e-09
9.39993e-07
-1.12543e-08
0.000255306
1.10072e-08
1.87109e-08
-4.95953e-08
-3.35669e-09
-0.000264916
-1.08339e-09
-7.92069e-05
-2.1906e-07
-4.90171e-09
-0.000255143
-8.86523e-09
-0.000269989
-5.42421e-08
0.000232525
-1.71839e-10
2.33999e-08
1.13361e-09
-0.000232496
0.000256134
-1.65673e-09
-2.28685e-07
6.63604e-10
-0.000255958
0.000275692
-1.33211e-06
-1.2943e-06
2.73669e-07
2.78649e-07
-0.000273618
0.0011523
5.40416e-09
-2.25205e-08
-0.00115233
3.39286e-08
-1.03434e-06
8.56433e-07
-8.54792e-07
1.03872e-06
1.28609e-06
0.00114475
-1.05511e-08
-0.0011447
2.78821e-07
-1.28954e-06
-2.91069e-07
-1.07376e-08
-9.45139e-07
2.62715e-07
-2.7213e-07
9.43292e-07
7.35333e-11
0.000232566
-5.4255e-08
9.33745e-10
2.13317e-08
-0.000232534
0.000232527
-5.4302e-08
1.34604e-09
1.92841e-08
-0.000232494
0.000275658
-1.33184e-06
2.73406e-07
2.81517e-07
-0.000273595
-6.44599e-09
9.79033e-05
-1.12787e-08
-9.78856e-05
3.76486e-08
2.09368e-07
4.59316e-08
1.49203e-07
-0.00116422
-0.00114466
-1.28954e-06
1.14179e-08
-2.83093e-07
1.29687e-06
2.78436e-07
-1.15119e-08
9.40483e-07
-2.69564e-07
-9.40088e-07
2.59755e-07
1.684e-08
-2.24576e-08
1.81995e-08
1.03588e-06
-8.54853e-07
-1.03438e-06
8.53552e-07
1.28121e-06
1.31882e-06
-2.68501e-07
-2.73932e-07
0.000273601
-3.81435e-08
2.83385e-08
1.11441e-07
0.00115255
1.04416e-06
-8.57757e-07
-1.04018e-06
8.59079e-07
-0.00115266
5.75446e-09
0.00115253
-2.84254e-08
1.04158e-06
-8.57538e-07
-1.03972e-06
8.59314e-07
-0.00115255
-1.29686e-06
0.000275698
-1.33507e-06
-0.000273621
2.76151e-07
2.78777e-07
5.97186e-09
-0.00114465
-1.28947e-06
2.78403e-07
-2.83007e-07
-1.15789e-08
-9.40045e-07
2.62444e-07
9.40372e-07
-2.69496e-07
0.00115235
2.22037e-08
1.74928e-08
-2.32106e-08
-0.00115237
-1.03704e-06
8.56373e-07
-8.54841e-07
1.03866e-06
0.000194337
-3.22372e-08
-0.00019431
-1.1942e-09
1.82554e-08
-0.000280413
-1.57372e-08
4.12738e-08
-1.34857e-08
0.000280383
-0.00114482
-1.2563e-06
1.66429e-07
-2.66345e-07
1.37678e-06
3.1481e-07
9.70339e-07
-2.45379e-07
-9.3225e-07
3.13968e-07
8.22379e-10
-0.00115253
-6.29363e-08
-1.27515e-09
1.04423e-06
-8.57682e-07
-1.03991e-06
8.59177e-07
1.32725e-06
-2.68904e-07
-2.71071e-07
0.000273621
-0.000248863
-3.92081e-08
8.58054e-09
1.39669e-07
0.000248773
5.17245e-08
2.43158e-11
-2.23665e-08
2.86399e-10
0.000232496
7.72926e-10
2.25403e-07
4.6967e-11
0.000255959
5.58936e-09
2.03989e-09
-2.30939e-08
0.00115236
1.03866e-06
-8.54869e-07
8.5634e-07
-1.0343e-06
-4.38604e-09
3.70111e-08
-5.61401e-09
0.00019431
1.28948e-06
1.32456e-06
-2.68871e-07
-2.73799e-07
0.00027362
7.96181e-10
0.00114476
-2.82779e-07
1.28334e-06
2.75918e-07
8.49825e-10
9.43137e-07
-2.7209e-07
-9.42417e-07
2.62654e-07
1.5518e-10
5.17981e-08
3.78841e-10
-2.03087e-08
0.000232534
5.18319e-08
2.73071e-10
-1.82219e-08
0.000232494
1.33667e-08
9.78855e-05
-1.5731e-07
-5.10445e-08
0.00117434
-1.59933e-07
-0.00117394
0.00117367
-2.88903e-08
-3.43014e-08
-0.00117376
0.00117349
3.0574e-08
1.70543e-08
-0.00117364
1.26812e-07
0.00117409
1.60986e-07
-3.49286e-08
-0.00117421
-6.26002e-09
-3.45121e-08
0.000194388
6.51756e-09
-0.000194359
-1.14623e-09
-5.43243e-08
0.000232567
1.20765e-09
2.13709e-08
-0.000232535
0.0011442
1.84125e-07
-1.26175e-06
1.3014e-07
-2.77572e-07
1.36851e-06
2.9781e-07
-0.00114463
9.48876e-07
-2.72183e-07
-9.45432e-07
2.59867e-07
1.49722e-08
-0.000248778
-1.08307e-08
-1.24205e-07
0.000256166
8.27885e-10
-2.28749e-07
-0.000255994
4.02096e-08
1.34085e-06
0.00114418
-1.51762e-08
-9.48303e-07
2.59848e-07
-2.72155e-07
9.43423e-07
-1.32442e-06
2.84157e-07
-2.88434e-07
-0.00115264
1.13855e-08
0.00115267
4.37253e-10
-1.04003e-06
8.59325e-07
-8.57661e-07
1.04168e-06
4.49992e-08
-1.15411e-08
-0.0011525
1.04448e-06
-8.57615e-07
-1.03713e-06
8.59267e-07
-3.45045e-08
6.45623e-09
0.00019433
-1.09328e-09
-0.000194301
6.47047e-09
-0.00114415
0.00114414
2.86659e-07
-1.32456e-06
-2.91412e-07
6.18492e-09
-9.45628e-07
2.62396e-07
-2.7237e-07
9.45818e-07
-0.00115253
0.00115253
-1.03713e-06
8.59182e-07
-8.57631e-07
1.0415e-06
1.15413e-08
1.71781e-08
0.000248763
-1.08923e-08
-1.26528e-07
-0.000248677
1.17241e-09
1.03394e-09
-0.00114414
-1.32465e-06
9.4581e-07
-2.72357e-07
-9.45542e-07
2.62393e-07
1.33204e-06
-2.91393e-07
2.86713e-07
1.1503e-08
-0.0011525
1.04148e-06
-8.57655e-07
-1.0371e-06
8.59189e-07
-1.35282e-08
9.78988e-05
-9.78788e-05
0.000280287
-3.35846e-08
1.19078e-08
-0.000280262
1.11899e-08
-1.73545e-08
0.000280414
-3.36113e-08
9.53499e-09
-0.000280384
-6.51199e-09
9.79113e-05
-9.78936e-05
-0.00114461
0.00114461
2.81315e-07
-1.28945e-06
-2.85752e-07
-5.74354e-09
-9.45458e-07
2.62605e-07
-2.72179e-07
9.46085e-07
-3.80326e-10
0.000256156
-2.26113e-07
1.41895e-10
-0.000255984
3.2265e-08
0.000248865
-1.26622e-07
-1.08921e-08
-0.000248777
1.70854e-08
-1.17462e-08
-0.00114462
-1.28956e-06
1.297e-06
-2.8296e-07
2.78608e-07
9.46106e-07
-2.72124e-07
-9.42682e-07
2.62607e-07
3.96392e-08
-1.04159e-10
-0.00115236
1.03872e-06
-8.54784e-07
-1.03156e-06
8.56432e-07
-0.00115219
0.00115221
5.37668e-09
-1.03696e-06
8.5919e-07
-8.57598e-07
1.03847e-06
0.000256125
-2.26102e-07
2.27803e-09
-0.000255956
3.239e-08
1.49716e-08
0.000248771
-1.29213e-07
-1.08906e-08
-0.000248679
-1.84424e-07
-1.35538e-06
-1.1488e-07
9.4333e-07
-2.72176e-07
-9.47924e-07
2.59998e-07
1.25547e-06
-2.99438e-07
2.70492e-07
-0.00114426
2.7945e-08
-0.00115237
1.04129e-06
-8.57578e-07
-1.03978e-06
8.5923e-07
-3.70383e-08
-1.59493e-08
0.000248679
1.37209e-07
6.10113e-09
-0.000248769
0.000194383
-1.27703e-09
-0.000194356
6.42843e-09
0.00019433
-1.07762e-09
-0.000194303
-4.34598e-09
0.000194303
-5.68081e-09
-0.00019433
0.000280379
-1.73582e-08
-3.59207e-08
1.14677e-08
-0.000280348
1.12691e-08
0.000280294
-3.58824e-08
8.95092e-09
-0.000280263
1.26969e-06
0.000273604
-2.79015e-07
-2.66105e-07
-0.000275684
-1.3387e-08
1.35881e-08
0.000280351
3.64589e-08
-8.25801e-09
-0.000280379
-1.33641e-08
0.000280263
3.87912e-08
-8.38838e-09
-0.000280296
4.30795e-09
9.78857e-05
-9.79033e-05
9.78973e-05
-9.78796e-05
9.78795e-05
-9.78972e-05
-2.72388e-10
-5.42749e-08
0.000232567
2.13785e-08
1.17496e-09
-0.000232535
-0.000194396
-4.37621e-09
3.69756e-08
-5.55456e-09
0.000194369
-0.000232567
1.69111e-10
4.67845e-08
0.00023254
-2.03341e-08
3.80705e-10
-9.79031e-05
4.40099e-09
1.53894e-08
9.78833e-05
-4.38833e-09
-5.65438e-09
0.000194358
5.17744e-08
1.15652e-10
-2.03364e-08
0.000232535
-1.9207e-07
-0.00117368
3.91298e-08
2.31755e-08
1.04164e-08
6.72762e-10
0.00117348
5.32453e-09
4.23453e-08
-1.17629e-08
2.87158e-08
0.0011524
-0.0011524
2.68311e-10
1.0387e-06
-8.51925e-07
-1.03148e-06
8.56432e-07
5.18121e-08
-1.72276e-09
-0.000255987
6.42357e-10
-2.26124e-07
-0.000248871
-1.35748e-08
-3.70092e-08
1.34833e-07
6.13354e-09
0.00024878
-0.000256162
-4.932e-08
1.5208e-09
2.22763e-07
0.000255987
2.60846e-10
-6.28045e-09
5.81864e-09
-1.0343e-06
8.56402e-07
-8.54761e-07
1.03867e-06
4.4612e-09
1.55909e-08
9.78787e-05
-2.88597e-07
1.29419e-06
2.81328e-07
4.80373e-10
9.43294e-07
-2.72212e-07
-9.45369e-07
2.62622e-07
1.28181e-09
2.2282e-07
-1.91059e-12
0.000255984
-1.60364e-08
-3.69711e-08
1.34747e-07
6.17417e-09
0.000248777
1.60514e-08
3.87502e-08
-8.35022e-09
0.000280346
1.35844e-08
-1.33025e-08
3.86656e-08
-8.31071e-09
0.000280263
-1.32628e-06
-1.28325e-06
-0.000273601
2.70708e-07
2.81356e-07
-1.72992e-08
1.12601e-08
-0.000280346
8.85441e-09
-3.58882e-08
-1.49362e-08
1.12378e-08
-0.000280263
8.96778e-09
-3.58507e-08
-1.11978e-08
-6.37795e-09
9.79151e-05
-9.78975e-05
1.5563e-08
4.47883e-09
9.78951e-05
-9.79151e-05
-1.36176e-08
9.79165e-05
-9.78964e-05
1.35776e-06
-2.8124e-07
0.00027364
-2.60947e-07
-0.000275717
-0.00028039
-3.12777e-08
9.47086e-09
-1.3079e-06
0.00027572
-0.00027364
2.81712e-07
2.86862e-07
-1.71287e-08
0.000280329
-3.84245e-08
-0.000280296
1.14025e-08
1.36287e-08
3.63718e-08
-9.027e-09
0.000280293
-0.000280319
-5.43168e-08
0.000232529
2.13929e-08
7.17048e-10
-0.000232497
-1.50188e-09
0.000256165
-2.28674e-07
8.09972e-11
-0.000255989
0.000256136
-2.26129e-07
1.61269e-10
-0.000255965
-9.16228e-11
5.18141e-08
-2.03116e-08
5.65328e-10
0.000232535
-3.22452e-08
-0.000194369
-1.1333e-09
3.92286e-08
-5.6123e-09
0.000194365
-0.000194394
-1.85477e-10
-5.43085e-08
-0.000232535
2.14075e-08
1.18993e-09
5.17846e-08
-2.02991e-08
3.2354e-10
0.000232497
-3.44978e-08
6.39847e-09
0.000194342
-0.000194313
-1.09963e-09
3.92725e-08
-4.35845e-09
-5.76948e-09
0.000194313
-0.000194342
-5.43563e-08
0.000232528
-0.000232497
2.14318e-08
9.16338e-10
0.00114485
-1.47846e-07
1.27472e-06
-2.967e-07
2.73226e-07
9.48756e-07
-2.69708e-07
2.65125e-07
-9.45611e-07
-0.00114448
2.30476e-08
-2.68537e-08
-1.29213e-06
2.89687e-07
-2.85751e-07
-9.4298e-07
2.73177e-07
-2.67095e-07
9.51265e-07
2.87984e-09
0.00115256
-5.55251e-09
-1.03735e-06
8.64692e-07
-8.57782e-07
1.04694e-06
6.39335e-10
2.25457e-07
8.84131e-10
0.00025599
0.000248835
-1.33998e-07
-0.000248737
-1.33144e-08
1.34775e-07
6.16764e-09
0.000248739
-0.000248827
-1.31909e-09
0.000256165
-2.28706e-07
-0.00025599
6.10445e-10
-1.20076e-08
5.74364e-10
-1.04264e-06
8.64866e-07
-8.60431e-07
1.04707e-06
-0.00114416
0.00114417
-1.32456e-06
2.8686e-07
-2.91325e-07
-1.07302e-08
-9.48146e-07
2.62478e-07
-2.72302e-07
9.48728e-07
-1.33041e-06
-1.11099e-08
9.43376e-07
-2.80476e-07
-9.50673e-07
2.57053e-07
1.33209e-06
-2.9699e-07
2.86859e-07
-0.00114414
2.25391e-07
-9.5632e-10
0.000255964
1.47354e-08
0.000248771
-1.26556e-07
-0.00024868
-1.33607e-08
-1.57956e-08
1.42287e-07
5.95349e-09
0.000248682
-0.000248776
0.000256135
-2.28799e-07
-0.000255963
1.1209e-09
-1.34664e-08
-9.78833e-05
1.55154e-08
9.78832e-05
-9.79031e-05
1.28387e-06
0.00027362
-2.68547e-07
-2.71401e-07
-0.000275695
0.000280287
-3.58477e-08
-0.000280261
1.12831e-08
1.11785e-08
-1.49706e-08
0.000280415
-3.3578e-08
-0.000280387
9.6045e-09
4.35678e-08
-7.98393e-09
0.000280258
-0.000280294
-1.33744e-08
1.36693e-08
3.14997e-08
-8.60911e-09
0.000280384
-0.000280407
-6.51179e-09
9.79142e-05
-9.78965e-05
4.27725e-09
9.78966e-05
-9.79142e-05
-0.00115239
5.57356e-09
-1.03146e-06
8.53656e-07
1.03594e-06
-8.51913e-07
6.18098e-09
7.93022e-10
1.29965e-06
-2.80009e-07
2.84118e-07
9.45868e-07
-2.61242e-07
2.62556e-07
-9.37272e-07
-0.00114468
-2.57793e-08
5.59106e-09
1.04149e-06
-8.51987e-07
8.59232e-07
-1.03155e-06
-0.00115238
-5.18028e-08
1.45971e-09
2.20075e-07
7.57386e-10
0.000255992
-0.000256163
3.22061e-08
-1.26548e-07
-0.00024878
-1.09332e-08
-3.68846e-08
1.29586e-07
3.71585e-09
0.000248778
-0.000248861
5.42991e-08
-1.88741e-09
-2.26167e-07
-0.00025599
1.1242e-09
1.54958e-10
5.68293e-10
-1.81916e-08
0.000232532
-0.000232566
0.000194388
-0.000194361
-1.29866e-09
-8.11724e-09
0.000194361
-0.000194386
-2.2003e-10
0.000232568
-0.000232534
1.34145e-09
1.92683e-08
-0.00114381
0.00114377
2.86568e-07
-1.31884e-06
-2.8862e-07
2.30354e-08
-9.42647e-07
2.56913e-07
-2.69512e-07
9.40238e-07
0.000248803
-1.26518e-07
-0.000248715
-1.09407e-08
-1.11679e-07
-2.34074e-08
1.04147e-06
-8.52059e-07
8.59166e-07
-1.02867e-06
-0.00115228
1.46199e-07
1.35415e-06
-2.80295e-07
2.94897e-07
9.43135e-07
-2.66677e-07
2.57078e-07
-9.37084e-07
-0.00114417
-3.68873e-08
0.000248718
1.32154e-07
6.10113e-09
-0.000248806
-5.18293e-08
2.22736e-07
-6.96336e-10
0.000255965
-0.000256134
5.42771e-08
0.000256134
-2.26098e-07
8.86736e-10
-0.000255965
0.00019431
-5.62713e-09
-0.000194337
3.45614e-10
-1.82094e-08
0.000232496
-0.00023253
0.00023253
1.1673e-09
-0.000232496
1.92733e-08
1.32691e-08
9.78974e-05
9.78964e-05
1.33552e-06
-2.49929e-07
-2.68507e-07
0.000273647
1.38573e-08
2.21483e-08
-7.73654e-09
0.000280314
3.90822e-08
-5.56306e-09
0.000194313
4.92517e-08
0.000232499
-2.03072e-08
5.26316e-10
-4.63676e-08
1.05543e-06
-8.54987e-07
-1.03182e-06
8.61905e-07
1.24843e-07
6.22827e-09
0.000248755
1.74532e-09
2.20185e-07
0.00025599
-2.16158e-11
-2.91339e-07
1.33492e-06
2.8676e-07
-4.75994e-09
9.48641e-07
-2.72266e-07
-9.48186e-07
2.62436e-07
-1.34949e-08
1.34667e-07
8.50265e-09
0.00024868
2.22737e-07
0.000255964
-1.02856e-11
3.86071e-08
-1.09812e-08
0.000280261
-1.34728e-08
3.64405e-08
-8.70685e-09
0.000280387
4.27067e-09
9.78965e-05
-5.46282e-10
2.25439e-07
0.000255994
-9.44498e-09
9.40889e-07
-2.74867e-07
-9.48142e-07
2.43468e-07
-3.021e-07
1.32174e-06
2.61989e-07
-2.86742e-08
-2.86713e-08
1.04174e-06
-8.57633e-07
-1.03999e-06
8.56549e-07
3.9224e-08
-5.5107e-09
0.000194301
2.82879e-08
-2.91465e-07
1.33206e-06
2.86684e-07
-5.05979e-09
9.45862e-07
-2.72345e-07
-9.4824e-07
2.59716e-07
1.04154e-06
-8.57604e-07
-1.03985e-06
8.5642e-07
5.88225e-09
-1.60803e-08
6.17256e-09
1.34801e-07
0.000248677
-2.09146e-10
-0.000232537
1.17658e-09
1.92552e-08
-5.71966e-09
0.000194361
1.10915e-10
0.000232537
3.8385e-10
-1.82102e-08
0.00114376
-2.88663e-07
1.32632e-06
2.8375e-07
1.22683e-09
9.42946e-07
-2.723e-07
2.62337e-07
-9.42753e-07
1.34807e-07
6.12576e-09
0.000248715
5.17831e-08
-0.000255962
-2.2604e-07
1.10413e-09
1.2089e-08
9.0128e-10
-1.31882e-06
2.80934e-07
-2.85898e-07
-9.42812e-07
2.62349e-07
-2.72277e-07
9.42974e-07
-4.93648e-08
2.22858e-07
-2.37221e-10
0.000255962
1.12895e-08
-1.03436e-06
8.5632e-07
-8.54897e-07
1.03863e-06
3.22743e-08
-0.000248713
-1.08667e-08
-1.28956e-07
-0.000232498
1.92569e-08
1.12295e-09
3.44287e-10
0.000232498
-1.82314e-08
6.41606e-09
-0.00019431
-1.09445e-09
3.64804e-08
-1.15743e-08
0.000280262
-1.3426e-08
3.64651e-08
-8.74099e-09
0.000280384
4.28109e-09
9.78936e-05
1.66411e-08
1.0384e-06
-8.57644e-07
-1.03418e-06
8.56327e-07
2.22829e-07
-7.78951e-10
0.000255956
-3.68877e-08
1.3702e-07
6.12961e-09
0.000248679
-5.81046e-09
-1.2757e-06
2.7581e-07
-2.80097e-07
-9.42412e-07
2.62633e-07
-2.72116e-07
9.43114e-07
3.23781e-08
-0.000248679
-1.08793e-08
-1.29132e-07
-5.69473e-09
0.000194356
-4.38978e-09
-5.49821e-09
0.000194303
6.43658e-09
-0.000194303
-1.02437e-09
-9.78855e-05
9.78796e-05
-9.78795e-05
-1.4139e-09
2.00132e-08
0.000143575
1.41321e-09
-0.000143595
-0.000171525
-4.48941e-10
0.000171549
2.71747e-11
-0.000225758
2.1256e-08
0.000225792
3.24954e-09
-5.7011e-08
-2.23406e-08
3.30953e-10
-1.04968e-10
5.16957e-08
-0.000232525
2.13379e-11
-0.000171549
6.08845e-10
5.33466e-08
-0.000225792
0.000143595
7.92304e-10
2.20823e-08
-1.53035e-09
0.000143648
1.33022e-09
-0.00014367
-0.000225858
2.32585e-08
0.000225889
3.34108e-09
-5.69541e-08
-0.000171562
-2.99471e-10
-8.81026e-11
0.000171584
1.44934e-10
-2.02871e-08
8.84255e-11
5.18091e-08
-0.000232566
6.94305e-10
5.33489e-08
-0.00022589
-6.52756e-11
-0.000171584
0.00014367
1.06374e-09
1.80371e-08
-1.39112e-09
0.000143579
1.35309e-09
-0.000143597
-0.00022576
1.92622e-08
0.000225794
3.20236e-09
-5.45574e-08
-0.000171528
-4.99353e-10
0.000171548
2.95736e-10
-1.82147e-08
5.18484e-08
-0.000232528
6.52094e-10
5.09968e-08
-0.000225793
-0.000171548
0.000143597
7.77007e-10
4.34193e-09
1.34452e-08
-9.79034e-05
1.89151e-08
7.91653e-05
-7.91828e-05
-1.40086e-09
-5.6472e-09
-0.000194337
3.70011e-08
-0.000264794
1.66637e-08
0.000264827
-3.29763e-09
-4.72208e-08
-0.000264827
-7.05667e-10
4.66905e-08
7.91828e-05
-8.42684e-10
-0.000224589
1.29242e-08
1.70769e-08
-8.63523e-08
-3.17367e-09
-4.11393e-08
0.000254956
-0.00025501
4.73032e-08
8.9546e-08
2.58795e-08
0.000183961
-0.000183992
-8.00952e-09
3.16206e-09
-2.14508e-08
1.11442e-08
-1.27414e-08
-0.000224627
-2.94944e-08
5.24894e-08
-1.28157e-10
-1.48145e-08
-4.69772e-08
-0.000143575
4.53496e-10
-2.12684e-08
7.90796e-10
1.40149e-09
0.000171525
3.64615e-11
-2.00059e-08
0.000225758
5.90909e-10
5.33418e-08
2.34003e-08
8.63999e-10
-1.67897e-10
-5.41992e-08
1.40708e-09
3.13326e-11
3.24493e-09
-5.69991e-08
-7.91653e-05
-1.66629e-08
-8.38212e-10
7.91828e-05
-1.89352e-08
0.000264794
-7.03941e-10
4.67393e-08
-1.1398e-09
6.41768e-09
0.000194337
-3.22624e-08
-1.40544e-09
-3.26496e-09
0.000264827
-4.72142e-08
-0.000143648
-2.32377e-08
2.93028e-10
1.06963e-09
-2.20896e-08
0.00022586
-1.43247e-09
5.32673e-08
1.53262e-09
0.000171562
-7.06966e-11
1.16703e-09
2.13168e-08
1.36194e-10
-5.42561e-08
1.33474e-09
5.47062e-09
-5.68632e-08
-9.10949e-11
-0.000143579
-1.92239e-08
5.06979e-10
7.54279e-10
-1.80413e-08
0.00022576
6.12262e-10
5.09601e-08
1.37506e-09
0.000171528
1.3189e-09
1.92634e-08
-5.42946e-08
1.3286e-09
3.135e-09
-5.45265e-08
-1.1292e-08
9.79032e-05
2.12333e-08
7.92078e-05
-1.23158e-09
-7.92278e-05
-5.58051e-09
-4.43365e-09
3.91852e-08
-0.000194388
-0.000264916
1.8898e-08
-3.29409e-09
0.000264946
-4.72788e-08
1.5062e-09
4.64996e-08
-0.000264948
-1.11669e-09
7.92278e-05
2.01539e-08
-1.51089e-09
0.000143649
-0.000143669
-0.000225861
2.13374e-08
0.000225892
-5.46047e-08
-0.000171562
-3.68663e-10
0.000171584
9.85435e-11
-2.0311e-08
5.17406e-08
-0.000232567
5.08327e-08
-0.00022589
-0.000171584
0.000143669
1.89021e-08
7.91629e-05
-7.91804e-05
-0.000264782
1.66847e-08
0.000264818
-4.9665e-08
-5.50692e-09
-4.4667e-09
3.92047e-08
-0.00019433
4.91199e-08
-0.000264818
7.91804e-05
1.55428e-08
-9.78988e-05
2.88973e-08
-2.12204e-08
0.000224508
-1.35685e-08
4.65598e-08
-0.000224549
-0.000254779
2.51296e-08
0.000254837
-8.38494e-08
-3.28414e-08
-0.000183913
-2.12891e-08
6.72039e-09
0.000183939
3.64224e-08
-1.15802e-08
1.60814e-08
-0.000280288
8.3811e-08
3.94978e-08
-0.000254837
-6.3618e-09
-0.000183939
1.28096e-08
0.000224549
-4.96195e-08
-7.23442e-09
-7.42293e-09
0.000215319
1.33366e-08
-0.000215331
-8.07756e-05
-6.88965e-09
8.07892e-05
-8.0792e-05
-6.69597e-09
-6.91308e-09
8.08056e-05
-8.07892e-05
6.18961e-09
-8.08056e-05
-1.29807e-08
0.000215331
-2.10439e-08
2.6252e-08
0.000224588
4.65626e-08
-0.000224626
-0.000254948
2.28201e-08
0.000255008
-8.40213e-08
-3.29124e-08
-0.000183975
-2.09381e-08
0.000183999
-8.76441e-09
3.64197e-08
-1.34026e-08
1.60603e-08
-0.000280414
-0.000183999
8.38307e-08
3.94013e-08
-0.000255008
0.000224626
-4.94635e-08
4.30122e-09
-9.79113e-05
2.1098e-08
7.92064e-05
-7.92262e-05
-0.000264917
1.87303e-08
0.00026495
-4.96203e-08
-5.68003e-09
3.69677e-08
-0.000194383
4.90343e-08
-0.00026495
7.92262e-05
1.88591e-08
7.91631e-05
-7.91806e-05
-0.000264787
1.67536e-08
0.00026482
-4.7361e-08
-5.56975e-09
-0.00019433
-4.38414e-09
3.69123e-08
-0.000264819
4.66157e-08
7.91806e-05
-7.91631e-05
-1.67233e-08
-8.01171e-10
-1.17024e-09
6.463e-09
-3.23202e-08
-1.88919e-08
0.000264787
4.66366e-08
-0.00026482
-6.76045e-10
-7.91806e-05
-1.37618e-09
-4.73471e-08
-3.23979e-09
-2.31524e-08
0.000224577
2.62102e-08
-1.35214e-08
-0.000224612
4.62894e-08
2.51253e-08
-0.000254913
0.000254963
-7.8851e-08
-3.27922e-08
-0.000183964
-2.31802e-08
6.70064e-09
0.000183992
-1.09167e-08
3.88863e-08
-0.000280379
1.59913e-08
-6.19807e-09
-0.000183992
1.50593e-08
0.000224613
-4.95976e-08
-0.000254968
8.11763e-08
3.95372e-08
-7.17038e-09
-7.43259e-09
0.000215315
1.55449e-08
-0.00021533
-8.07905e-05
-6.79897e-09
8.0804e-05
-8.07757e-05
-6.70184e-09
-6.86933e-09
8.07892e-05
-8.08039e-05
6.22672e-09
-8.07893e-05
-1.52355e-08
0.000215332
2.6296e-08
-2.29507e-08
0.00022451
-0.000224542
4.42803e-08
-0.000254789
2.27209e-08
0.00025484
-8.1275e-08
-2.77792e-08
-0.000183911
-2.29845e-08
0.000183936
3.86499e-08
-8.33645e-09
-0.000280294
-1.32764e-08
1.35654e-08
-0.000254842
8.126e-08
3.67414e-08
-0.000183936
0.000224544
-4.9714e-08
2.31778e-08
-2.52863e-08
-0.000224576
1.28111e-08
-4.69985e-08
1.15101e-08
-3.35431e-08
1.12322e-08
-1.74256e-08
0.000254913
-2.34985e-08
8.12153e-08
3.42346e-08
-0.000254968
0.000183964
2.28924e-08
-6.176e-09
-0.000183989
6.72424e-09
-7.8934e-08
-3.54537e-08
-1.33042e-08
4.64338e-08
-0.00022461
6.82609e-09
6.69205e-09
-0.000215317
-1.28626e-08
8.07903e-05
7.18587e-09
-8.08037e-05
8.07758e-05
7.4419e-09
7.96676e-09
-8.07912e-05
-6.8079e-09
1.56856e-08
-0.000215332
-2.0152e-08
2.29722e-08
-0.000224509
-4.94012e-08
-3.58776e-08
8.9022e-09
1.12556e-08
-1.50022e-08
0.000254787
-2.64636e-08
4.19673e-08
8.3756e-08
-0.000254847
0.000183911
2.32675e-08
-0.000183935
-2.7772e-08
-8.37202e-08
4.64819e-08
-0.000224543
-6.46806e-09
-9.78972e-05
-1.5189e-09
2.01145e-08
0.000143652
1.24146e-09
-0.000143671
-0.000171566
-3.57195e-10
-9.39016e-11
0.000171588
-0.000225857
2.13e-08
0.000225888
-5.45199e-08
3.31493e-09
-2.02985e-08
9.80682e-11
-1.70767e-10
5.68072e-08
-0.000232571
-7.38337e-11
-0.000171588
5.34493e-08
7.12432e-10
-0.000225891
0.000143672
1.08006e-09
-7.92059e-05
-1.89482e-08
-1.10066e-09
-2.12254e-08
0.000264906
-6.41234e-10
-0.000264937
4.67073e-08
-7.04336e-10
6.49157e-09
-3.68375e-08
-1.20006e-09
-7.92259e-05
-3.33975e-09
-5.20899e-08
-0.000143652
3.46258e-10
-2.13232e-08