/*--------------------------------*- C++ -*----------------------------------*\
| =========                 |                                                 |
| \\      /  F ield         | OpenFOAM: The Open Source CFD Toolbox           |
|  \\    /   O peration     | Version:  v2006                                 |
|   \\  /    A nd           | Website:  www.openfoam.com                      |
|    \\/     M anipulation  |                                                 |
\*---------------------------------------------------------------------------*/
FoamFile
{
    version     2.0;
    format      ascii;
    class       volScalarField;
    location    "375";
    object      nut;
}
// * * * * * * * * * * * * * * * * * * * * * * * * * * * * * * * * * * * * * //

dimensions      [0 2 -1 0 0 0 0];


internalField   nonuniform List<scalar> 
42840
(
0.00012658
0.000143268
0.000143283
0.000140137
0.00012957
0.000146368
0.000146378
0.000142547
0.000132662
0.000149406
0.000149414
0.000144849
0.000135883
0.000152389
0.000152399
0.000147118
0.000139208
0.000155338
0.000155347
0.000149335
0.000142621
0.000158213
0.000158225
0.000151492
0.000146081
0.000161038
0.000161039
0.000153596
0.000149584
0.000163782
0.000163804
0.000155635
0.000153115
0.000166484
0.000166472
0.000157624
0.000156661
0.000169085
0.000169121
0.00015955
0.00016021
0.000171666
0.000171642
0.000161414
0.000163722
0.000174106
0.000174148
0.000163225
0.000167255
0.000176561
0.000176538
0.000164971
0.000170695
0.000178847
0.00017888
0.000166651
0.000174135
0.00018116
0.00018115
0.000168293
0.000177488
0.000183266
0.000183288
0.000169827
0.000180879
0.000185522
0.000185513
0.000171392
0.00018389
0.000187301
0.000187331
0.000172716
0.000187476
0.000189588
0.000189577
0.000174287
0.000190017
0.000191131
0.000191144
0.000175356
0.000193544
0.000193121
0.000193144
0.000176833
0.000196076
0.000194909
0.000194889
0.000177921
0.000199109
0.000196177
0.000196213
0.000179002
0.000201577
0.000198269
0.000198252
0.000180321
0.000204738
0.000199369
0.000199405
0.000181097
0.00020608
0.000200852
0.000200819
0.000182168
0.000139759
0.00014249
0.000142471
0.00013975
0.000142493
0.000142484
0.000142489
0.000142453
0.000139762
0.000142503
0.000142457
0.000139725
0.000140166
0.000142158
0.000143273
0.000143248
0.000145601
0.000145574
0.000140156
0.000142142
0.000143276
0.000143264
0.000145605
0.000145587
0.000143242
0.000145597
0.000145598
0.000140171
0.000142151
0.000143247
0.000145609
0.000145602
0.000142155
0.000142549
0.000144475
0.000146368
0.000146345
0.000148641
0.000148629
0.000142535
0.000144476
0.00014637
0.000146355
0.000148643
0.000148637
0.000146368
0.000148652
0.000148642
0.000142542
0.000144482
0.000146372
0.00014866
0.000148646
0.000144473
0.000144853
0.000146755
0.000149394
0.000149382
0.000151643
0.000151624
0.000144852
0.000146747
0.000149396
0.000149391
0.000151645
0.000151634
0.000149397
0.000151648
0.000151643
0.000144859
0.000146756
0.000149401
0.000151656
0.000151647
0.000146753
0.000147121
0.000148987
0.000152386
0.000152365
0.000154598
0.00015458
0.000147112
0.00014898
0.000152388
0.000152376
0.000154601
0.000154593
0.000152384
0.000154604
0.000154597
0.000147121
0.000148989
0.000152388
0.000154616
0.000154602
0.000148981
0.00014934
0.000151161
0.00015533
0.000155314
0.000157498
0.000157479
0.000149335
0.000151154
0.000155333
0.000155324
0.000157501
0.000157488
0.00015533
0.000157503
0.000157493
0.000149343
0.000151161
0.000155335
0.00015751
0.000157498
0.000151155
0.0001515
0.000153273
0.000158208
0.000158188
0.000160327
0.000160311
0.000151492
0.000153268
0.000158212
0.000158202
0.00016033
0.00016032
0.000158204
0.000160335
0.000160326
0.000151499
0.000153275
0.000158209
0.000160343
0.000160331
0.000153269
0.000153599
0.000155334
0.000161029
0.000161013
0.000163099
0.000163078
0.000153595
0.000155326
0.000161031
0.000161016
0.000163104
0.000163093
0.000161028
0.000163104
0.000163096
0.0001536
0.000155335
0.000161032
0.000163117
0.000163102
0.000155326
0.000155644
0.000157331
0.000163779
0.000163757
0.000165802
0.000165787
0.000155635
0.000157327
0.000163785
0.00016378
0.000165805
0.000165789
0.000163772
0.000165812
0.000165793
0.000155647
0.000157331
0.00016378
0.000165812
0.000165798
0.000157323
0.00015763
0.000159274
0.000166472
0.000166458
0.000168442
0.000168419
0.000157628
0.000159263
0.000166472
0.000166448
0.000168447
0.00016844
0.00016647
0.000168447
0.000168446
0.000157625
0.000159277
0.000166472
0.000168467
0.000168454
0.000159272
0.000159557
0.000161155
0.000169086
0.000169059
0.000171012
0.000170996
0.000159542
0.000161152
0.000169094
0.000169096
0.000171016
0.000170993
0.000169079
0.000171021
0.000170993
0.000159565
0.000161151
0.00016909
0.000171016
0.000170998
0.000161137
0.000161426
0.000162971
0.000171647
0.000171639
0.0001735
0.000173482
0.000161429
0.000162963
0.000171648
0.000171617
0.000173505
0.000173502
0.000171643
0.000173511
0.000173513
0.000161415
0.000162978
0.000171645
0.000173531
0.00017352
0.000162978
0.000163224
0.000164746
0.000174109
0.000174079
0.000175944
0.000175918
0.00016321
0.000164733
0.000174117
0.000174121
0.000175951
0.000175922
0.000174105
0.000175944
0.00017592
0.00016324
0.000164736
0.000174116
0.000175945
0.000175927
0.000164719
0.000164991
0.000166425
0.000176544
0.000176533
0.000178277
0.000178269
0.000164987
0.000166431
0.000176547
0.000176513
0.00017828
0.000178279
0.000176535
0.000178298
0.000178286
0.000164973
0.000166438
0.000176539
0.000178308
0.000178293
0.000166434
0.000166647
0.000168087
0.000178841
0.000178819
0.000180568
0.000180535
0.000166644
0.000168064
0.000178848
0.000178852
0.000180577
0.000180548
0.000178839
0.000180564
0.000180553
0.000166668
0.000168074
0.00017885
0.000180574
0.000180562
0.000168064
0.000168311
0.000169649
0.000181153
0.000181132
0.000182762
0.000182753
0.000168296
0.000169655
0.000181157
0.000181123
0.000182767
0.000182758
0.000181142
0.000182781
0.000182759
0.000168292
0.000169657
0.000181148
0.000182787
0.000182768
0.000169646
0.000169831
0.00017119
0.000183256
0.000183237
0.000184925
0.000184904
0.000169832
0.000171178
0.000183265
0.000183261
0.000184933
0.000184913
0.000183252
0.000184936
0.000184921
0.000169846
0.000171186
0.000183263
0.000184941
0.000184929
0.000171179
0.000171404
0.000172588
0.000185505
0.000185491
0.00018686
0.000186834
0.000171396
0.000172579
0.000185509
0.000185483
0.000186869
0.000186848
0.000185496
0.000186862
0.000186844
0.000171394
0.000172588
0.000185502
0.000186877
0.000186857
0.000172573
0.000172726
0.000174107
0.000187303
0.000187271
0.000189061
0.000189046
0.000172711
0.000174104
0.000187315
0.000187302
0.000189068
0.000189054
0.000187301
0.00018908
0.000189067
0.000172731
0.000174109
0.000187314
0.000189084
0.000189074
0.000174106
0.000174297
0.000175255
0.000189569
0.000189559
0.000190623
0.000190609
0.0001743
0.000175252
0.000189573
0.000189548
0.000190631
0.000190606
0.000189554
0.000190639
0.000190606
0.000174293
0.000175247
0.00018956
0.000190636
0.000190616
0.000175228
0.00017537
0.000176744
0.000191113
0.000191097
0.000192815
0.000192775
0.000175363
0.000176725
0.000191124
0.00019111
0.000192829
0.000192813
0.000191121
0.000192807
0.000192804
0.000175369
0.000176749
0.000191132
0.00019284
0.000192819
0.000176737
0.000176849
0.000177724
0.000193131
0.000193093
0.000194199
0.000194209
0.000176831
0.000177739
0.000193143
0.000193119
0.000194201
0.000194179
0.000193102
0.000194246
0.000194216
0.000176848
0.000177718
0.000193116
0.00019422
0.000194222
0.000177719
0.000177913
0.000179062
0.000194865
0.000194872
0.000196143
0.000196086
0.000177933
0.00017903
0.000194867
0.000194848
0.000196161
0.000196132
0.000194886
0.000196108
0.000196086
0.000177912
0.000179059
0.000194892
0.000196147
0.000196105
0.000179026
0.000179039
0.000179983
0.0001962
0.000196153
0.000197432
0.000197456
0.000179006
0.00018002
0.000196219
0.000196194
0.000197437
0.000197434
0.000196155
0.000197507
0.000197492
0.000179036
0.000180001
0.000196173
0.000197488
0.000197497
0.000180025
0.000180286
0.000181271
0.000198209
0.000198221
0.000199461
0.000199387
0.000180316
0.000181222
0.000198213
0.000198202
0.000199476
0.000199422
0.000198254
0.000199401
0.00019938
0.000180299
0.000181244
0.000198261
0.000199431
0.0001994
0.000181212
0.000181168
0.000181719
0.000199443
0.000199359
0.000199788
0.000199867
0.000181109
0.000181796
0.00019946
0.000199401
0.000199791
0.000199824
0.000199346
0.000199937
0.000199903
0.000181136
0.000181767
0.000199367
0.000199902
0.000199905
0.000181791
0.000182092
0.000200723
0.000200787
0.000182172
0.000200725
0.000200749
0.000200822
0.000182141
0.000200826
9.23974e-05
5.00389e-05
2.3618e-05
9.23936e-05
5.00339e-05
0.000125855
0.000125847
0.000125858
0.000125811
0.00012216
0.000140932
9.42816e-05
0.000136453
2.3617e-05
0.000122155
0.000140933
0.000136457
9.42826e-05
0.000138515
7.39606e-05
7.39555e-05
9.28759e-05
5.00562e-05
9.26718e-05
5.00689e-05
2.36232e-05
2.36277e-05
9.28723e-05
5.00512e-05
9.26674e-05
5.00638e-05
0.000126564
0.000126579
0.000126533
0.00012881
0.000128787
0.000128804
0.000128798
0.00012349
9.46027e-05
0.000139075
0.000144046
0.00012293
9.48832e-05
0.000139962
2.36222e-05
2.36267e-05
0.000123487
0.000139089
9.4605e-05
0.000144061
0.000122926
0.000139976
9.48841e-05
7.41069e-05
7.41019e-05
0.000140953
7.42293e-05
7.4224e-05
9.33347e-05
5.00862e-05
9.31394e-05
5.00989e-05
2.36332e-05
2.36378e-05
9.33307e-05
5.00811e-05
9.31344e-05
5.00939e-05
0.000129551
0.000129567
0.000129566
0.00013188
0.000131876
0.000131886
0.000131886
0.000124769
9.51888e-05
0.000142638
0.000147134
0.000124233
9.54592e-05
0.000143527
2.36321e-05
2.36367e-05
0.000124764
0.000142649
9.51883e-05
0.000147142
0.000124226
0.000143537
9.54596e-05
7.43631e-05
7.4358e-05
0.000143324
7.44774e-05
7.44722e-05
9.37772e-05
5.01165e-05
9.35885e-05
5.01294e-05
2.36434e-05
2.36481e-05
9.37734e-05
5.01115e-05
9.35836e-05
5.01244e-05
0.000132663
0.000132673
0.000132676
0.000135066
0.000135065
0.000135077
0.00013508
0.000126002
9.57511e-05
0.000146186
0.000150156
0.000125482
9.60112e-05
0.000147071
2.36424e-05
2.36471e-05
0.000125997
0.000146195
9.57512e-05
0.000150165
0.000125476
0.00014708
9.60119e-05
7.46061e-05
7.46009e-05
0.000145618
7.47194e-05
7.47141e-05
9.4205e-05
5.01471e-05
9.40222e-05
5.01601e-05
2.36539e-05
2.36588e-05
9.42009e-05
5.01421e-05
9.40174e-05
5.0155e-05
0.000135877
0.000135889
0.000135892
0.000138364
0.000138357
0.000138377
0.000138376
0.000127198
9.6294e-05
0.00014972
0.000153129
0.000126694
9.65462e-05
0.0001506
2.36529e-05
2.36577e-05
0.000127193
0.000149729
9.62945e-05
0.00015314
0.000126688
0.000150611
9.65473e-05
7.48425e-05
7.48373e-05
0.000147871
7.49509e-05
7.49456e-05
9.46169e-05
5.01778e-05
9.44414e-05
5.01908e-05
2.36647e-05
2.36696e-05
9.46128e-05
5.01728e-05
9.44366e-05
5.01857e-05
0.000139204
0.000139223
0.000139222
0.000141768
0.000141762
0.000141768
0.00014177
0.000128358
9.68199e-05
0.000153252
0.000156066
0.000127869
9.70619e-05
0.000154133
2.36636e-05
2.36685e-05
0.000128353
0.000153263
9.68202e-05
0.000156072
0.000127863
0.00015414
9.70623e-05
7.50703e-05
7.50651e-05
0.000150078
7.51744e-05
7.5169e-05
9.50124e-05
5.02085e-05
9.48436e-05
5.02214e-05
2.36756e-05
2.36806e-05
9.50083e-05
5.02035e-05
9.48387e-05
5.02164e-05
0.000142612
0.000142624
0.000142624
0.000145205
0.0001452
0.000145223
0.000145214
0.000129476
9.7323e-05
0.000156742
0.000158921
0.000129003
9.7556e-05
0.000157604
2.36746e-05
2.36795e-05
0.000129471
0.000156752
9.73234e-05
0.000158936
0.000128997
0.000157619
9.75574e-05
7.52869e-05
7.52817e-05
0.000152216
7.53876e-05
7.53822e-05
9.53947e-05
5.02392e-05
9.5231e-05
5.02521e-05
2.36867e-05
2.36917e-05
9.53905e-05
5.02342e-05
9.5226e-05
5.02471e-05
0.000146079
0.000146089
0.000146088
0.000148707
0.0001487
0.000148707
0.000148717
0.000130562
9.78085e-05
0.000160191
0.000161734
0.000130101
9.80343e-05
0.000161046
2.36856e-05
2.36907e-05
0.000130555
0.000160194
9.7808e-05
0.000161732
0.000130095
0.000161044
9.80339e-05
7.54971e-05
7.54917e-05
0.000154309
7.5593e-05
7.55876e-05
9.57598e-05
5.02698e-05
9.56034e-05
5.02827e-05
2.36979e-05
2.3703e-05
9.5756e-05
5.02648e-05
9.55989e-05
5.02776e-05
0.000149572
0.000149599
0.000149593
0.000152228
0.000152222
0.00015224
0.00015222
0.000131606
9.82735e-05
0.00016357
0.000164459
0.000131163
9.84899e-05
0.0001644
2.36968e-05
2.37019e-05
0.000131602
0.000163588
9.82751e-05
0.000164482
0.000131158
0.000164423
9.84923e-05
7.56954e-05
7.56902e-05
0.000156327
7.57889e-05
7.57834e-05
9.61143e-05
5.03003e-05
9.59626e-05
5.03131e-05
2.37092e-05
2.37143e-05
9.61095e-05
5.02953e-05
9.59566e-05
5.03081e-05
0.000153114
0.000153107
0.000153112
0.000155778
0.000155774
0.000155787
0.000155805
0.000132626
9.87246e-05
0.000166891
0.000167149
0.000132192
9.89326e-05
0.000167719
2.37081e-05
2.37133e-05
0.000132617
0.000166883
9.87218e-05
0.000167136
0.000132184
0.000167706
9.89306e-05
7.58897e-05
7.58842e-05
0.000158312
7.59788e-05
7.59734e-05
9.64509e-05
5.03306e-05
9.63064e-05
5.03433e-05
2.37205e-05
2.37257e-05
9.64476e-05
5.03255e-05
9.63028e-05
5.03382e-05
0.00015665
0.000156691
0.000156679
0.000159319
0.000159302
0.000159321
0.000159294
0.000133598
9.91502e-05
0.00017013
0.000169725
0.000133186
9.93511e-05
0.000170916
2.37195e-05
2.37246e-05
0.000133598
0.000170157
9.91556e-05
0.000169761
0.000133183
0.000170949
9.9356e-05
7.60704e-05
7.60653e-05
0.000160202
7.61553e-05
7.61496e-05
9.67786e-05
5.03607e-05
9.66378e-05
5.03732e-05
2.37319e-05
2.3737e-05
9.67729e-05
5.03556e-05
9.66307e-05
5.03682e-05
0.000160206
0.000160192
0.000160199
0.000162851
0.000162863
0.000162868
0.000162888
0.000134556
9.95689e-05
0.00017331
0.000172298
0.000134146
9.97601e-05
0.000174105
2.37309e-05
2.37361e-05
0.000134543
0.000173294
9.95617e-05
0.000172272
0.000134136
0.000174082
9.97554e-05
7.62489e-05
7.62432e-05
0.000162079
7.63323e-05
7.63268e-05
9.70869e-05
5.03904e-05
9.69537e-05
5.04029e-05
2.37433e-05
2.37486e-05
9.70847e-05
5.03854e-05
9.69503e-05
5.03979e-05
0.000163716
0.000163755
0.000163744
0.000166373
0.000166339
0.000166369
0.000166347
0.000135453
9.99547e-05
0.000176378
0.000174709
0.000135072
0.00010014
0.00017712
2.37424e-05
2.37474e-05
0.000135457
0.000176406
9.99641e-05
0.000174754
0.000135071
0.000177158
0.000100147
7.64124e-05
7.64074e-05
0.000163839
7.64896e-05
7.6484e-05
9.73885e-05
5.04198e-05
9.72591e-05
5.0432e-05
2.37548e-05
2.37599e-05
9.73815e-05
5.04147e-05
9.72522e-05
5.04269e-05
0.000167243
0.00016724
0.000167244
0.000169844
0.000169866
0.000169861
0.000169868
0.000136348
0.000100342
0.000179408
0.000177161
0.000135963
0.000100518
0.000180164
2.37537e-05
2.37589e-05
0.000136332
0.000179396
0.000100333
0.000177133
0.000135953
0.000180141
0.000100512
7.65768e-05
7.65708e-05
0.000165603
7.6652e-05
7.66463e-05
9.76665e-05
5.04487e-05
9.75447e-05
5.0461e-05
2.37661e-05
2.37713e-05
9.76651e-05
5.04437e-05
9.75403e-05
5.04561e-05
0.000170697
0.000170722
0.000170709
0.000173256
0.000173226
0.00017326
0.000173252
0.000137167
0.00010069
0.000182304
0.000179401
0.000136818
0.000100857
0.000182994
2.37651e-05
2.37702e-05
0.000137171
0.000182323
0.000100699
0.000179442
0.000136816
0.000183024
0.000100865
7.67215e-05
7.67165e-05
0.000167233
7.67941e-05
7.67885e-05
9.7946e-05
5.04775e-05
9.78261e-05
5.04891e-05
2.37775e-05
2.37825e-05
9.79384e-05
5.04724e-05
9.78203e-05
5.0484e-05
0.00017412
0.000174128
0.000174134
0.00017671
0.000176715
0.000176715
0.000176713
0.000138001
0.000101045
0.000185166
0.000181739
0.00013764
0.000101208
0.0001859
2.37764e-05
2.37815e-05
0.000137987
0.000185163
0.000101038
0.000181721
0.000137633
0.000185886
0.000101203
7.68741e-05
7.68681e-05
0.000168894
7.69397e-05
7.69339e-05
9.81884e-05
5.05051e-05
9.80797e-05
5.05172e-05
2.37886e-05
2.37938e-05
9.81874e-05
5.05002e-05
9.80746e-05
5.05122e-05
0.000177483
0.000177504
0.000177493
0.000179947
0.000179938
0.000179959
0.000179956
0.000138733
0.000101356
0.000187857
0.000183775
0.00013842
0.000101505
0.000188483
2.37876e-05
2.37927e-05
0.000138734
0.000187871
0.000101361
0.000183804
0.000138417
0.000188503
0.000101511
7.6999e-05
7.69938e-05
0.000170374
7.70677e-05
7.70618e-05
9.84466e-05
5.05331e-05
9.83401e-05
5.05439e-05
2.37999e-05
2.38047e-05
9.84386e-05
5.0528e-05
9.83337e-05
5.05389e-05
0.000180882
0.000180883
0.000180885
0.000183244
0.000183231
0.000183241
0.000183229
0.000139515
0.000101685
0.000190653
0.000186038
0.000139182
0.000101827
0.000191333
2.37988e-05
2.38036e-05
0.000139505
0.000190646
0.00010168
0.000186026
0.000139174
0.000191323
0.000101824
7.71411e-05
7.71351e-05
0.000171949
7.71942e-05
7.71888e-05
9.86567e-05
5.05594e-05
9.85487e-05
5.05716e-05
2.38108e-05
2.38161e-05
9.86554e-05
5.05545e-05
9.85457e-05
5.05665e-05
0.000183864
0.000183896
0.000183885
0.000186536
0.000186533
0.000186557
0.000186566
0.000140148
0.000101936
0.00019295
0.000187843
0.000139856
0.000102089
0.000193596
2.38098e-05
2.38149e-05
0.000140149
0.000192971
0.000101943
0.000187875
0.000139856
0.00019362
0.000102094
7.72427e-05
7.72373e-05
0.00017327
7.73164e-05
7.73099e-05
9.8887e-05
5.05862e-05
9.88109e-05
5.05956e-05
2.38216e-05
2.38261e-05
9.88791e-05
5.05811e-05
9.88017e-05
5.05906e-05
0.00018748
0.000187483
0.000187485
0.000189338
0.000189337
0.000189327
0.000189312
0.000140887
0.000102275
0.000195816
0.000189965
0.000140609
0.000102369
0.000196339
2.38206e-05
2.38251e-05
0.000140876
0.000195808
0.000102268
0.000189946
0.000140598
0.000196325
0.000102364
7.73832e-05
7.73772e-05
0.000174733
7.74105e-05
7.74053e-05
9.90726e-05
5.06112e-05
9.8952e-05
5.06234e-05
2.38325e-05
2.38375e-05
9.90709e-05
5.06062e-05
9.89504e-05
5.06183e-05
0.000190021
0.000190024
0.000190024
0.000192861
0.000192829
0.000192877
0.000192868
0.000141427
0.000102446
0.000197786
0.000191734
0.000141127
0.00010262
0.000198514
2.38315e-05
2.38365e-05
0.000141431
0.00019779
0.000102451
0.00019176
0.000141127
0.000198528
0.000102629
7.74545e-05
7.74493e-05
0.00017597
7.75428e-05
7.75366e-05
9.92553e-05
5.0636e-05
9.9214e-05
5.06451e-05
2.38426e-05
2.38474e-05
9.92485e-05
5.06309e-05
9.92068e-05
5.064e-05
0.0001935
0.000193548
0.000193519
0.000195124
0.000195154
0.000195131
0.000195151
0.000142067
0.000102768
0.000200395
0.000193372
0.000141871
0.000102819
0.000200742
2.38415e-05
2.38462e-05
0.000142061
0.000200418
0.000102767
0.000193376
0.000141868
0.000200752
0.000102813
7.75804e-05
7.75743e-05
0.000177189
7.75861e-05
7.758e-05
9.9467e-05
5.06613e-05
9.93327e-05
5.06707e-05
2.38536e-05
2.38574e-05
9.94624e-05
5.06563e-05
9.93254e-05
5.06658e-05
0.00019612
0.000196088
0.000196125
0.000198776
0.000198718
0.000198761
0.000198719
0.000142655
0.000102955
0.000202506
0.000195528
0.000142304
0.000103122
0.000203321
2.38526e-05
2.38565e-05
0.000142652
0.000202482
0.000102955
0.000195528
0.000142296
0.000203309
0.000103126
7.76894e-05
7.76833e-05
0.000178575
7.77322e-05
7.77273e-05
9.95152e-05
5.06807e-05
9.9513e-05
5.0693e-05
2.38627e-05
2.38687e-05
9.95117e-05
5.06756e-05
9.95122e-05
5.06878e-05
0.00019904
0.000199096
0.000199038
0.000200484
0.000200542
0.000200529
0.000200563
0.000142989
0.000103117
0.00020447
0.000196362
0.000142917
0.000103164
0.000204639
2.38615e-05
2.38674e-05
0.000142991
0.000204503
0.000103122
0.00019638
0.000142922
0.000204662
0.000103163
7.76952e-05
7.76903e-05
0.000179251
7.77602e-05
7.77522e-05
9.97964e-05
5.07087e-05
9.97003e-05
5.07135e-05
2.38734e-05
2.38762e-05
9.97917e-05
5.07036e-05
9.96914e-05
5.07085e-05
0.000201644
0.000201618
0.000201672
0.000204543
0.000204449
0.000204492
0.000204453
0.000143781
0.000103459
0.00020677
0.000198899
0.000143384
0.00010352
0.00020767
2.38725e-05
2.38752e-05
0.000143778
0.000206748
0.000103456
0.000198897
0.000143373
0.000207658
0.000103522
7.78948e-05
7.78893e-05
0.000180922
7.78908e-05
7.78862e-05
9.97265e-05
5.07223e-05
9.97666e-05
5.07371e-05
2.38817e-05
2.38886e-05
9.9722e-05
5.07172e-05
9.97633e-05
5.07319e-05
0.000204624
0.000204682
0.000204615
0.00020516
0.000205225
0.00020521
0.000205225
0.000143789
0.00010342
0.000208559
0.000199302
0.000143825
0.000103445
0.000208488
2.38805e-05
2.38874e-05
0.000143793
0.000208595
0.000103425
0.000199335
0.000143829
0.00020852
0.000103443
7.77895e-05
7.77844e-05
0.000181133
7.78813e-05
7.78731e-05
0.000100089
5.07539e-05
9.99794e-05
5.07561e-05
2.3893e-05
2.38947e-05
0.000100086
5.07488e-05
9.99719e-05
5.07512e-05
0.000206178
0.000206144
0.000206188
0.000144699
0.000103839
0.000210096
0.000201699
0.000144267
0.000103934
0.00021114
2.38922e-05
2.38938e-05
0.000144697
0.000210066
0.000103834
0.000201679
0.000144253
0.000211115
0.000103934
7.80714e-05
7.80659e-05
0.000182964
7.80885e-05
7.80839e-05
2.36206e-05
2.3618e-05
0.000138555
7.39719e-05
7.39642e-05
2.36254e-05
2.3621e-05
2.36228e-05
2.36184e-05
0.000138961
7.41067e-05
7.4099e-05
7.39809e-05
7.39731e-05
9.23941e-05
5.00336e-05
0.000122167
0.000140928
9.42856e-05
0.000136449
0.000122162
0.000140912
9.42638e-05
0.000136442
9.2431e-05
5.00539e-05
5.00412e-05
9.26383e-05
9.2428e-05
5.00485e-05
5.00359e-05
9.2635e-05
0.000122268
0.000141708
9.45893e-05
0.000138201
9.43013e-05
0.000137323
0.000122831
0.000122263
0.000141691
9.45673e-05
0.000138192
9.42792e-05
0.000137315
0.000122827
0.000138543
7.39521e-05
7.39692e-05
2.36192e-05
2.36228e-05
2.36184e-05
0.00013895
7.40857e-05
7.41032e-05
7.39592e-05
7.39784e-05
2.3624e-05
2.36196e-05
0.000122162
0.00014093
9.42763e-05
0.000136449
9.23898e-05
5.00303e-05
0.000122156
0.000140914
0.000136446
9.4269e-05
9.24262e-05
5.00489e-05
5.00362e-05
9.2635e-05
0.000122263
0.00014171
9.45802e-05
0.000138203
9.42922e-05
0.000137321
0.000122827
9.24132e-05
5.00453e-05
5.00326e-05
9.26314e-05
0.000122258
0.000141699
0.000138203
9.45746e-05
0.00013732
9.42853e-05
0.000122823
9.23938e-05
5.00354e-05
0.000122157
0.000140899
0.000136448
9.42682e-05
9.23915e-05
5.00322e-05
0.000122262
0.00014171
9.45863e-05
0.000138194
9.42981e-05
0.00013732
0.000122828
9.24276e-05
5.00504e-05
5.00377e-05
9.26365e-05
0.000122259
0.00014167
0.000138182
9.45772e-05
0.000137309
9.42844e-05
0.000122826
9.24258e-05
5.00473e-05
5.00345e-05
9.26346e-05
0.000138543
7.39605e-05
7.39721e-05
2.36187e-05
2.36218e-05
2.36174e-05
0.000138954
7.40945e-05
7.41065e-05
7.39698e-05
7.39813e-05
2.36235e-05
2.36191e-05
0.000122152
0.000140902
0.00013645
9.4263e-05
9.23927e-05
5.00345e-05
9.23896e-05
5.00307e-05
0.000122257
0.000141718
0.000138205
9.45891e-05
0.000137328
9.4299e-05
0.000122825
0.000122253
0.000141674
0.000138187
9.45721e-05
0.000137312
9.42795e-05
0.000122821
9.24143e-05
5.00494e-05
5.00368e-05
9.26356e-05
9.24223e-05
5.00458e-05
5.0033e-05
9.26328e-05
2.36181e-05
2.36172e-05
0.000138917
7.4098e-05
7.4093e-05
7.39697e-05
7.39648e-05
2.36231e-05
2.36186e-05
2.36221e-05
2.36176e-05
2.36258e-05
2.36303e-05
2.36233e-05
2.36277e-05
7.41157e-05
7.41079e-05
0.000140968
7.42367e-05
7.42289e-05
2.36353e-05
2.36307e-05
2.36327e-05
2.36282e-05
0.00014137
7.4362e-05
7.4354e-05
7.4245e-05
7.42371e-05
9.28723e-05
5.00509e-05
9.26685e-05
5.00635e-05
0.000123491
9.46056e-05
0.000139084
0.000144053
0.000122931
9.48888e-05
0.00013997
0.000123486
9.45827e-05
0.000139073
0.000144025
0.000122927
9.48636e-05
0.000139956
9.29085e-05
5.00838e-05
5.00712e-05
9.31076e-05
9.29049e-05
5.00786e-05
5.00658e-05
9.31042e-05
0.000123589
0.00014483
9.51775e-05
0.000141746
9.49041e-05
0.000140858
0.000124137
0.000123584
0.0001448
9.51541e-05
0.000141733
9.4878e-05
0.000140843
0.000124131
7.40923e-05
7.41119e-05
0.000140954
7.42141e-05
7.42317e-05
2.36244e-05
2.36289e-05
2.36327e-05
2.36281e-05
0.000141353
7.43416e-05
7.43591e-05
7.42203e-05
7.424e-05
2.36339e-05
2.36293e-05
0.000123487
9.45967e-05
0.000139085
0.000144057
0.000122927
9.48797e-05
0.000139973
9.28682e-05
5.00476e-05
9.26545e-05
5.00602e-05
0.000123482
0.000139084
9.45905e-05
0.000144041
0.000122924
0.000139971
9.48693e-05
9.29038e-05
5.00788e-05
5.00662e-05
9.31035e-05
0.000123585
0.000144833
9.51681e-05
0.00014175
9.48951e-05
0.000140859
0.000124131
9.28903e-05
5.00752e-05
5.00625e-05
9.30996e-05
0.00012358
0.000144814
0.000141747
9.51586e-05
0.000140856
9.4884e-05
0.000124126
9.28743e-05
5.00527e-05
9.267e-05
5.00654e-05
0.000123489
0.000139068
9.45937e-05
0.000144033
0.000122927
0.000139961
9.48785e-05
9.2873e-05
5.00497e-05
9.26686e-05
5.00623e-05
0.000123589
0.000144822
9.51735e-05
0.000141745
9.48986e-05
0.000140853
0.000124136
9.29068e-05
5.00804e-05
5.00677e-05
9.3106e-05
0.000123588
0.00014482
0.000141752
9.51686e-05
0.000140857
9.48938e-05
0.000124136
9.29059e-05
5.00773e-05
5.00647e-05
9.31047e-05
7.41031e-05
7.41149e-05
0.000140968
7.42217e-05
7.42336e-05
2.36239e-05
2.36284e-05
2.36317e-05
2.36271e-05
0.000141365
7.43487e-05
7.43607e-05
7.42297e-05
7.42416e-05
2.36334e-05
2.36289e-05
0.000123485
0.000139073
9.45889e-05
0.000144038
0.000122923
0.000139966
9.48733e-05
9.2873e-05
5.00517e-05
9.26569e-05
5.00643e-05
9.28708e-05
5.00482e-05
9.26652e-05
5.00608e-05
0.000123585
0.000144836
0.000141759
9.51735e-05
0.000140867
9.48989e-05
0.000124131
0.000123583
0.000144824
0.000141758
9.51632e-05
0.000140862
9.48889e-05
0.000124131
9.28932e-05
5.00794e-05
5.00666e-05
9.31043e-05
9.29022e-05
5.00758e-05
5.00632e-05
9.31023e-05
2.36235e-05
2.3628e-05
2.36225e-05
2.3627e-05
0.000141359
7.43554e-05
7.43501e-05
7.42374e-05
7.42323e-05
2.36329e-05
2.36284e-05
2.3632e-05
2.36275e-05
2.36357e-05
2.36403e-05
2.36331e-05
2.36378e-05
7.43698e-05
7.43618e-05
0.000143324
7.44847e-05
7.44768e-05
2.36455e-05
2.36408e-05
2.36429e-05
2.36382e-05
0.000143706
7.46065e-05
7.45985e-05
7.44923e-05
7.44842e-05
9.33316e-05
5.00809e-05
9.31361e-05
5.00936e-05
0.000124769
9.5192e-05
0.000142635
0.000147129
0.000124232
9.54602e-05
0.000143522
0.000124765
9.51684e-05
0.000142623
0.000147111
0.000124227
9.54398e-05
0.000143512
9.33659e-05
5.01141e-05
5.01013e-05
9.35578e-05
9.33628e-05
5.01088e-05
5.0096e-05
9.35546e-05
0.000124862
0.000147886
9.57393e-05
0.000145291
9.54744e-05
0.000144407
0.00012539
0.000124858
0.000147872
9.57177e-05
0.000145285
9.54534e-05
0.000144399
0.000125386
7.43476e-05
7.43672e-05
0.000143319
7.44656e-05
7.4483e-05
2.36344e-05
2.3639e-05
2.36429e-05
2.36382e-05
0.000143704
7.45861e-05
7.46036e-05
7.44711e-05
7.44906e-05
2.36441e-05
2.36394e-05
0.000124763
9.51828e-05
0.000142636
0.000147131
0.000124227
9.54509e-05
0.000143524
9.33271e-05
5.00776e-05
9.31212e-05
5.00904e-05
0.000124758
0.000142634
9.51734e-05
0.00014712
0.000124222
0.000143523
9.54448e-05
9.3361e-05
5.01091e-05
5.00963e-05
9.35538e-05
0.000124857
0.000147888
9.573e-05
0.000145291
9.54652e-05
0.000144405
0.000125385
9.33481e-05
5.01055e-05
5.00927e-05
9.35501e-05
0.000124853
0.00014788
0.000145293
9.57229e-05
0.000144406
9.54589e-05
0.00012538
9.33333e-05
5.00828e-05
9.31379e-05
5.00955e-05
0.000124768
0.000142645
9.5183e-05
0.000147129
0.000124232
0.000143532
9.54509e-05
9.33317e-05
5.00796e-05
9.31369e-05
5.00924e-05
0.000124863
0.000147895
9.57371e-05
0.0001453
9.54738e-05
0.000144414
0.00012539
9.33645e-05
5.01107e-05
5.00979e-05
9.3556e-05
0.000124862
0.000147886
0.000145303
9.57288e-05
0.000144418
9.54647e-05
0.000125388
9.33631e-05
5.01076e-05
5.00947e-05
9.35545e-05
7.43568e-05
7.43686e-05
0.000143324
7.4473e-05
7.44849e-05
2.36339e-05
2.36385e-05
2.36419e-05
2.36372e-05
0.00014371
7.45936e-05
7.46055e-05
7.44805e-05
7.44923e-05
2.36436e-05
2.36389e-05
0.000124762
0.000142649
9.5178e-05
0.000147133
0.000124226
0.000143536
9.54456e-05
9.33317e-05
5.00817e-05
9.3124e-05
5.00945e-05
9.33293e-05
5.00781e-05
9.3133e-05
5.00909e-05
0.000124857
0.000147903
0.000145308
9.57377e-05
0.000144423
9.54737e-05
0.000125385
0.000124856
0.00014789
0.000145306
9.57236e-05
0.000144421
9.54597e-05
0.000125383
9.33507e-05
5.01096e-05
5.00968e-05
9.35545e-05
9.33594e-05
5.01061e-05
5.00932e-05
9.35521e-05
2.36334e-05
2.3638e-05
2.36324e-05
2.3637e-05
0.000143705
7.45988e-05
7.45935e-05
7.44847e-05
7.44796e-05
2.36431e-05
2.36384e-05
2.36422e-05
2.36375e-05
2.3646e-05
2.36507e-05
2.36434e-05
2.36481e-05
7.46139e-05
7.46058e-05
0.000145621
7.47262e-05
7.47182e-05
2.3656e-05
2.36512e-05
2.36534e-05
2.36486e-05
0.000145993
7.48432e-05
7.48351e-05
7.47332e-05
7.47251e-05
9.37739e-05
5.01112e-05
9.35852e-05
5.0124e-05
0.000126002
9.57532e-05
0.000146175
0.000150146
0.000125482
9.60145e-05
0.00014706
0.000125998
9.57307e-05
0.00014617
0.000150132
0.000125478
9.59916e-05
0.000147054
9.38073e-05
5.01447e-05
5.01318e-05
9.39927e-05
9.38039e-05
5.01394e-05
5.01264e-05
9.39894e-05
0.000126092
0.000150896
9.62839e-05
0.000148831
9.60279e-05
0.000147946
0.000126605
0.000126087
0.00015088
9.62609e-05
0.000148823
9.60043e-05
0.000147939
0.0001266
7.45914e-05
7.46109e-05
0.000145617
7.47054e-05
7.47229e-05
2.36446e-05
2.36493e-05
2.36534e-05
2.36486e-05
0.000145988
7.48223e-05
7.48399e-05
7.47103e-05
7.473e-05
2.36546e-05
2.36498e-05
0.000125997
9.57441e-05
0.000146173
0.000150149
0.000125477
9.60052e-05
0.000147061
9.37696e-05
5.01079e-05
9.35705e-05
5.01208e-05
0.000125992
0.000146176
9.57364e-05
0.000150142
0.000125472
0.000147064
9.5997e-05
9.38025e-05
5.01397e-05
5.01268e-05
9.39888e-05
0.000126087
0.000150898
9.62746e-05
0.000148832
9.60188e-05
0.000147945
0.0001266
9.37894e-05
5.01361e-05
5.01232e-05
9.3985e-05
0.000126083
0.000150889
0.000148833
9.62666e-05
0.000147947
9.60103e-05
0.000126595
9.37755e-05
5.0113e-05
9.35867e-05
5.01259e-05
0.000126001
0.000146189
9.57425e-05
0.000150149
0.00012548
0.000147075
9.6005e-05
9.37743e-05
5.011e-05
9.35854e-05
5.01229e-05
0.000126092
0.000150904
9.62807e-05
0.000148838
9.60249e-05
0.000147955
0.000126605
9.38057e-05
5.01413e-05
5.01283e-05
9.39911e-05
0.000126091
0.000150898
0.000148843
9.62746e-05
0.00014796
9.60185e-05
0.000126604
9.38046e-05
5.01382e-05
5.01253e-05
9.39899e-05
7.46009e-05
7.46126e-05
0.000145624
7.47131e-05
7.4725e-05
2.36441e-05
2.36489e-05
2.36524e-05
2.36476e-05
0.000145995
7.48301e-05
7.48421e-05
7.47201e-05
7.47319e-05
2.36541e-05
2.36493e-05
0.000125995
0.000146192
9.57376e-05
0.000150153
0.000125475
0.000147078
9.59999e-05
9.37741e-05
5.0112e-05
9.3573e-05
5.01249e-05
9.37719e-05
5.01085e-05
9.35817e-05
5.01214e-05
0.000126087
0.000150912
0.000148847