/*--------------------------------*- C++ -*----------------------------------*\
| =========                 |                                                 |
| \\      /  F ield         | OpenFOAM: The Open Source CFD Toolbox           |
|  \\    /   O peration     | Version:  v2006                                 |
|   \\  /    A nd           | Website:  www.openfoam.com                      |
|    \\/     M anipulation  |                                                 |
\*---------------------------------------------------------------------------*/
FoamFile
{
    version     2.0;
    format      ascii;
    class       volScalarField;
    location    "250";
    object      p;
}
// * * * * * * * * * * * * * * * * * * * * * * * * * * * * * * * * * * * * * //

dimensions      [0 2 -2 0 0 0 0];


internalField   nonuniform List<scalar> 
14298
(
0.00268768
0.00268768
0.00268785
0.00268777
0.00268777
0.00268779
0.0026877
0.00268779
0.00268791
0.0026854
0.00268779
0.00268544
0.00268792
0.00268544
0.00268779
0.00268771
0.00268791
0.0026854
0.00268779
0.00268544
0.00268779
0.0026877
0.00268791
0.0026854
0.00268544
0.00268778
0.00268541
0.00268779
0.00268771
0.00268768
0.00268785
0.00268778
0.00268778
0.00268768
0.00268791
0.0026854
0.00268544
0.00268778
0.00268791
0.00268541
0.00268544
0.00268779
0.00268779
0.0026877
0.00268779
0.00268771
0.00268786
0.00268777
0.00268777
0.00268768
0.00268768
0.0026827
0.0026827
0.0026828
0.0026877
0.0026877
0.00268778
0.00268272
0.00268272
0.00268284
0.00268772
0.00268786
0.00268278
0.00268778
0.00268274
0.0026829
0.00268283
0.00268772
0.00268786
0.00268279
0.00268778
0.00268274
0.00268289
0.00268271
0.0026877
0.00268777
0.00268281
0.0026877
0.0026827
0.00268279
0.0026827
0.00268774
0.00268272
0.00268767
0.00268275
0.00268271
0.0026877
0.00268777
0.00268281
0.0026877
0.0026827
0.00268279
0.0026827
0.00268777
0.0026877
0.00268281
0.0026877
0.00268279
0.0026827
0.0026827
0.00268774
0.00268272
0.00268767
0.00268275
0.0026827
0.0026877
0.00268777
0.00268281
0.0026877
0.0026827
0.00268279
0.0026827
0.00268774
0.00268272
0.00268767
0.00268275
0.00268273
0.0026827
0.00268279
0.00268771
0.00268771
0.0026878
0.00268271
0.00268271
0.00268285
0.00268773
0.00268788
0.00268278
0.00268292
0.0026878
0.00268274
0.00268285
0.00268773
0.00268788
0.00268278
0.0026878
0.00268274
0.00268292
0.0026827
0.00268271
0.00268777
0.0026877
0.00268281
0.0026877
0.00268279
0.0026827
0.0026827
0.00268774
0.00268272
0.00268767
0.00268275
0.00268271
0.00268777
0.0026877
0.00268281
0.0026877
0.00268279
0.0026827
0.0026827
0.00268774
0.00268273
0.00268767
0.00268275
0.00268274
0.00268767
0.00268767
0.00268776
0.00268265
0.00268265
0.00268286
0.00268771
0.00268791
0.00268277
0.00268782
0.00268293
0.00268272
0.00268286
0.00268771
0.00268791
0.00268277
0.00268782
0.00268293
0.00268272
0.0026827
0.0026827
0.00268545
0.00268544
0.00268544
0.00268544
0.00268544
0.00268544
0.00268545
0.00268544
0.00268544
0.00268544
0.00268545
0.00268544
0.00268544
0.00268306
0.00268305
0.00268783
0.00268783
0.00268774
0.00268301
0.00268301
0.002683
0.00268788
0.0026879
0.00268308
0.0026879
0.00268305
0.00268299
0.002683
0.00268783
0.00268789
0.0026829
0.00268292
0.00268791
0.00268299
0.002683
0.00268788
0.0026879
0.00268308
0.0026879
0.00268305
0.00268299
0.002683
0.00268788
0.0026879
0.00268308
0.0026879
0.00268305
0.00268299
0.002683
0.00268783
0.00268789
0.0026829
0.00268292
0.00268791
0.00268299
0.002683
0.0026879
0.00268788
0.00268308
0.0026879
0.00268299
0.00268305
0.00268301
0.00268783
0.00268789
0.0026829
0.00268791
0.00268298
0.00268293
0.00268791
0.00268291
0.00268294
0.00268309
0.00268306
0.00268783
0.00268783
0.00268302
0.00268776
0.00268302
0.002683
0.0026879
0.00268788
0.00268308
0.0026879
0.00268299
0.00268305
0.00268301
0.00268783
0.00268789
0.0026829
0.00268791
0.00268293
0.00268298
0.002683
0.0026879
0.00268788
0.00268308
0.0026879
0.002683
0.00268305
0.00268301
0.00268783
0.00268791
0.00268291
0.00268792
0.00268299
0.00268294
0.00268311
0.00268308
0.00268786
0.00268786
0.00268781
0.00268305
0.00268305
0.00303827
0.00304077
0.00304909
0.00304909
0.00304639
0.00304078
0.00303824
0.00304906
0.00304063
0.00304089
0.00303826
0.00304088
0.00304085
0.00304085
0.00304907
0.00304643
0.00304627
0.00304906
0.00304641
0.00304642
0.00304614
0.00304627
0.00304906
0.00304641
0.00304643
0.00304614
0.00304627
0.00304629
0.00304629
0.00304606
0.00304606
0.00304085
0.00304085
0.00304063
0.00304071
0.00304083
0.00303826
0.00304088
0.00304088
0.00304069
0.00304083
0.00304063
0.00304063
0.00303526
0.00304091
0.00304074
0.00304088
0.00304091
0.00304074
0.00304088
0.00304075
0.00304076
0.00304097
0.00305136
0.00304624
0.00305162
0.00304599
0.00305146
0.00305164
0.00304628
0.00304607
0.00305166
0.00305146
0.00304607
0.00305137
0.00305152
0.00304624
0.00305162
0.00304599
0.00305146
0.00305164
0.00304607
0.00304628
0.00305146
0.00305165
0.00304607
0.00305137
0.00305152
0.00304624
0.00305162
0.003046
0.00305146
0.00305164
0.00304628
0.00304607
0.00305165
0.00305146
0.00304607
0.00305167
0.00304632
0.00305167
0.00304616
0.00304629
0.00305172
0.00305153
0.00305167
0.00304632
0.00305168
0.00304616
0.00304628
0.00305173
0.00305152
0.00305157
0.00304614
0.00304615
0.00304628
0.00305144
0.00305144
0.00305144
0.00305143
0.00303554
0.00304093
0.00304071
0.00303549
0.00303535
0.0030409
0.00303557
0.00303554
0.00304091
0.00304072
0.00303549
0.00303555
0.00304088
0.00303539
0.00303552
0.00304061
0.00304061
0.00303534
0.00304079
0.00303535
0.00303527
0.00303522
0.0030408
0.00303534
0.00303544
0.00304056
0.00303528
0.00303547
0.00304084
0.00304064
0.00303547
0.00304065
0.00303528
0.00303521
0.00304079
0.00303534
0.00304055
0.00303543
0.00303528
0.00303547
0.00304064
0.00304084
0.00304064
0.00303527
0.00303548
0.00304085
0.00304085
0.00304079
0.00305165
0.00305159
0.00304643
0.00304643
0.00304644
0.00305167
0.00305168
0.00303568
0.00304087
0.00304087
0.0030356
0.00303565
0.00304084
0.00303566
0.00304907
0.00304908
0.00304907
0.00304907
0.00304908
0.00303557
0.00304087
0.00304091
0.00303562
0.00304086
0.00303553
0.00303565
0.00303557
0.00303563
0.0030409
0.00304084
0.00304084
0.00303565
0.00303557
0.00305168
0.00304646
0.00304637
0.00305173
0.00305166
0.00305169
0.00304645
0.00304637
0.00304637
0.00305172
0.00305165
0.00305167
0.00304631
0.0030517
0.00304646
0.00305173
0.00305168
0.00304636
0.00305165
0.00305169
0.00304636
0.00304645
0.00305165
0.00305171
0.00304636
0.00305167
0.00304631
0.00305171
0.00304646
0.00305173
0.00305168
0.00304636
0.00305165
0.00305169
0.00304636
0.00304645
0.00305165
0.00305172
0.00304636
0.00303558
0.00304086
0.0030409
0.00303561
0.00303555
0.00304085
0.00303565
0.00303557
0.00303563
0.00304084
0.0030409
0.00303557
0.00304084
0.00303565
0.00299535
0.00299788
0.00297657
0.00299534
0.00299787
0.00297402
0.00297403
0.00297643
0.00300602
0.00303826
0.00298466
0.00299531
0.00299785
0.00300342
0.00303827
0.00300602
0.0030034
0.00300325
0.00303826
0.00300602
0.00300601
0.00300602
0.00300602
0.00300325
0.00304077
0.0030034
0.00303824
0.00300601
0.00300599
0.00300342
0.00300306
0.00299786
0.00299536
0.00299792
0.0029766
0.00299536
0.00299531
0.00299783
0.00299534
0.00298173
0.00297652
0.00297637
0.00299768
0.00298172
0.00299533
0.00299794
0.00299793
0.00298467
0.00298467
0.0029821
0.00298205
0.00299785
0.00299788
0.00298191
0.00298208
0.00298191
0.00299768
0.00298172
0.00297637
0.00297654
0.00297656
0.00297637
0.00299787
0.00299775
0.00298191
0.00298178
0.00299794
0.00298467
0.00299535
0.0029847
0.00298206
0.00299792
0.0029821
0.00298179
0.00299774
0.00298191
0.00297403
0.00297663
0.00297659
0.00297655
0.00297642
0.00297401
0.00297661
0.00297663
0.00297656
0.0030247
0.00304083
0.00302458
0.0030245
0.0030247
0.00302458
0.00300602
0.00303825
0.00303825
0.00303825
0.00303825
0.00300602
0.00300601
0.00302487
0.00302749
0.00302485
0.00302749
0.00304063
0.00302451
0.00302487
0.00303826
0.00304089
0.00302748
0.00304089
0.00302749
0.00302485
0.00302489
0.0030247
0.0030247
0.00298191
0.00299775
0.00299787
0.00298178
0.00298192
0.00299775
0.00299787
0.00298178
0.00299533
0.00299533
0.00299532
0.0029977
0.00298172
0.0029821
0.00299533
0.00299792
0.00298473
0.00299794
0.00298468
0.00298206
0.00298206
0.0029819
0.00299789
0.00299789
0.0029819
0.00302451
0.00302451
0.00302485
0.00302471
0.00302471
0.00300306
0.0030191
0.00300306
0.0030191
0.00301925
0.00300325
0.00300325
0.00301931
0.00301931
0.0030247
0.0030407
0.00304083
0.00302457
0.00302487
0.00303826
0.0030275
0.00304088
0.00302486
0.00302749
0.00302487
0.00304089
0.00303826
0.00302748
0.00304088
0.00302485
0.00302749
0.00301929
0.00300313
0.00301917
0.00300326
0.00300313
0.00301929
0.00301917
0.00300326
0.00301936
0.00301676
0.0030034
0.00300602
0.00301935
0.00301674
0.00300343
0.00300603
0.00301936
0.00301676
0.00300602
0.00301935
0.00301674
0.00300343
0.00302487
0.00302471
0.00302471
0.00302451
0.00300306
0.0030191
0.00300341
0.00300325
0.00301928
0.00301931
0.00301931
0.00300307
0.0030191
0.00302487
0.0030275
0.00302485
0.00302749
0.0030247
0.0030407
0.00304083
0.00302458
0.00302487
0.00303826
0.00304089
0.00302748
0.00304088
0.00302749
0.00302485
0.0030193
0.00300313
0.00301917
0.00300325
0.00301936
0.00301676
0.00300339
0.00300602
0.00301935
0.00301674
0.00300343
0.0030193
0.00300311
0.00301917
0.00300325
0.00301936
0.00301679
0.00300602
0.00300339
0.00301674
0.00301935
0.00300343
0.00302471
0.00302458
0.00302487
0.00302751
0.00302749
0.00302486
0.00302471
0.00302459
0.00300602
0.00300343
0.0030034
0.00301936
0.00301676
0.00301935
0.00301674
0.00300325
0.00300313
0.0030193
0.00301917
0.00300343
0.00300599
0.0030034
0.00301936
0.00301679
0.00301674
0.00301936
0.00300312
0.0030193
0.00301918
0.00304086
0.00304086
0.00302488
0.00302471
0.00302471
0.00304063
0.00302451
0.00300306
0.0030191
0.00301927
0.00300327
0.00300327
0.00301931
0.00301932
0.00300306
0.0030191
0.00302487
0.00303826
0.00304088
0.00302752
0.00304088
0.00302749
0.00302486
0.0030247
0.0030407
0.00304083
0.00302458
0.00302471
0.00304069
0.00304083
0.00302459
0.00301936
0.00301679
0.00300602
0.00300339
0.00301674
0.00301936
0.00300342
0.00301936
0.00301679
0.00300602
0.0030034
0.00301674
0.00301936
0.00300342
0.0030193
0.00300311
0.00301918
0.00300325
0.0030193
0.00300312
0.00301918
0.00300325
0.00302451
0.00302451
0.00300328
0.00301927
0.00300329
0.0030193
0.0030193
0.0030191
0.00300306
0.0030191
0.00299768
0.00298172
0.00299768
0.00298172
0.00299788
0.00299788
0.00298207
0.00298191
0.00298191
0.00299775
0.00298178
0.00298191
0.00299787
0.0029821
0.00299792
0.00299534
0.00298469
0.00299794
0.00298205
0.00298467
0.00299536
0.00298205
0.00298467
0.0029821
0.00299534
0.00299794
0.00298467
0.00297643
0.00297656
0.00297402
0.00297663
0.00297403
0.0029821
0.00299792
0.00299534
0.00298469
0.00299794
0.00298205
0.00298467
0.00298192
0.00299774
0.00299787
0.0029818
0.0029821
0.00299533
0.00299792
0.00298473
0.00299794
0.00298468
0.00298206
0.00297656
0.00297664
0.00297403
0.00297656
0.00297643
0.00297664
0.00297403
0.00297403
0.0029766
0.00299792
0.0029979
0.00298208
0.00298188
0.00298188
0.00299769
0.00298172
0.00297637
0.00297653
0.00297655
0.00297655
0.00297637
0.0029847
0.0029821
0.00299534
0.00299792
0.00299794
0.00298468
0.00298206
0.00298192
0.00299774
0.00299787
0.00298179
0.00298192
0.00299774
0.00299787
0.00298178
0.00297403
0.0029766
0.00297643
0.00299768
0.00299767
0.00298173
0.00297657
0.00297658
0.00297637
0.00299261
0.00299777
0.00299798
0.00299257
0.00299246
0.00299795
0.00299265
0.00297144
0.00297668
0.00297127
0.00297644
0.00297663
0.00297118
0.00297142
0.00299238
0.00299769
0.00299787
0.00299257
0.00299237
0.00299257
0.00299769
0.00297104
0.00297115
0.0029765
0.00297631
0.00297121
0.00300869
0.00300315
0.00300339
0.00300858
0.00300339
0.0030087
0.00300845
0.00300838
0.00300306
0.00300325
0.00300857
0.00300306
0.00300838
0.00300857
0.00300838
0.00298702
0.00297109
0.00299237
0.002987
0.00299246
0.00299764
0.00299763
0.00299236
0.00299236
0.0029978
0.00299261
0.00299775
0.00299799
0.00299257
0.00299266
0.00299245
0.00299796
0.0029872
0.00298721
0.002982
0.00298179
0.00298708
0.00298195
0.00298727
0.00298718
0.00298181
0.0029818
0.00298705
0.00298705
0.00298196
0.00298719
0.00298721
0.00298199
0.00298181
0.00298727
0.00298709
0.00298195
0.00299237
0.002987
0.0029711
0.00297126
0.00297642
0.00297643
0.00297663
0.00297104
0.00297104
0.00297145
0.00297667
0.00297646
0.00297127
0.00297665
0.00297117
0.00297144
0.0029711
0.00299237
0.00299787
0.00299769
0.00299257
0.00299257
0.00299237
0.00299769
0.00299233
0.00299783
0.00299244
0.00299251
0.00299763
0.00298701
0.0029872
0.00298191
0.00298171
0.0029872
0.00298702
0.00298171
0.00298695
0.00298707
0.00298185
0.00298715
0.00298167
0.00298696
0.00298708
0.00298186
0.00298715
0.00298167
0.00299233
0.00299782
0.00299245
0.00299252
0.00299762
0.00298702
0.0029872
0.00298191
0.00298171
0.00298702
0.0029872
0.00298172
0.00297109
0.00297655
0.00297637
0.00297128
0.00297637
0.00297127
0.00297109
0.00297105
0.0029765
0.00297115
0.00297631
0.00297122
0.00297109
0.00297655
0.00297637
0.00297128
0.00297637
0.00297108
0.00297127
0.00302987
0.00303005
0.00302451
0.00302471
0.00302986
0.00303005
0.00302451
0.00303521
0.0030408
0.00304056
0.00303543
0.00303528
0.00303547
0.00304065
0.00304084
0.00304065
0.00303527
0.00303548
0.00302978
0.00302467
0.00302992
0.00303001
0.00302445
0.00302984
0.00302987
0.00303005
0.00302471
0.00302451
0.00303005
0.00302986
0.00302451
0.00302978
0.00302466
0.00302992
0.00303001
0.00302445
0.00303528
0.00302986
0.00303006
0.00302433
0.00302433
0.00302976
0.00302975
0.00302457
0.00303564
0.00303548
0.00303561
0.00303538
0.00303564
0.00303548
0.00303561
0.00303539
0.00303559
0.00303533
0.00303533
0.00303027
0.00302458
0.00303006
0.00302487
0.00303023
0.00302994
0.00302492
0.00303028
0.00302457
0.00303006
0.00302487
0.00303024
0.00302994
0.00302492
0.00298702
0.0029872
0.00298172
0.00298191
0.00298702
0.0029872
0.00298172
0.00299233
0.00299783
0.00299245
0.00299762
0.00299252
0.00299238
0.00299257
0.00299769
0.00299787
0.00299769
0.00299238
0.00299257
0.00298696
0.00298185
0.00298708
0.00298715
0.00298167
0.00298702
0.0029872
0.00298191
0.00298172
0.0029872
0.00298702
0.00298172
0.00299233
0.00299783
0.00299245
0.00299762
0.00299252
0.00299238
0.00299257
0.00299787
0.00299769
0.00299769
0.00299257
0.00299237
0.00298695
0.00298185
0.00298708
0.00298715
0.00298167
0.00299238
0.002987
0.00298731
0.00298202
0.00298719
0.0029818
0.00298734
0.00298704
0.002982
0.00299271
0.002998
0.00299255
0.00299777
0.00299272
0.00299796
0.00299243
0.00298707
0.00298166
0.00298166
0.00298686
0.00298686
0.00298185
0.0029927
0.002998
0.00299779
0.00299254
0.00299796
0.00299271
0.00299243
0.00299246
0.00299775
0.00299776
0.00299792
0.0029923
0.0029923
0.0029873
0.00298201
0.00298181
0.00298718
0.00298732
0.00298704
0.002982
0.00302985
0.00302985
0.00303007
0.00302444
0.00302444
0.0030298
0.0030298
0.00302464
0.0030302
0.0030246
0.00303006
0.00302483
0.00302994
0.00302484
0.00303018
0.0030302
0.0030246
0.00303006
0.00302483
0.00302994
0.00302484
0.00303018
0.00300838
0.00301377
0.00300837
0.00301377
0.00301395
0.00301908
0.00301908
0.00301923
0.00301381
0.00301381
0.00300865
0.00300339
0.00300858
0.00300315
0.00300846
0.00300868
0.00300341
0.00300865
0.00300339
0.00300858
0.00300315
0.00300846
0.00300868
0.00300341
0.00301403
0.00301918
0.0030194
0.00301397
0.00301936
0.00301385
0.00301406
0.00301402
0.00301918
0.0030194
0.00301397
0.00301936
0.00301385
0.00301406
0.00300864
0.00300303
0.00300303
0.00300842
0.00300842
0.00300328
0.00302986
0.00303005
0.00302451
0.00302471
0.00302986
0.00303005
0.00302451
0.00303521
0.0030408
0.00303534
0.00304056
0.00303543
0.00303528
0.00303547
0.00304065
0.00304084
0.00303528
0.00304065
0.00303548
0.00302978
0.00302466
0.00302991
0.00303001
0.00302445
0.00301377
0.00301911
0.0030193
0.00301397
0.00301911
0.00301377
0.00301397
0.00300831
0.00300844
0.00300321
0.00300301
0.00300853
0.00301371
0.00301926
0.00301384
0.00301904
0.00301392
0.00300838
0.00300857
0.00300306
0.00300326
0.00300306
0.00300839
0.00300857
0.00300831
0.00300844
0.00300321
0.00300853
0.00300301
0.00301377
0.00301911
0.0030193
0.00301396
0.00301911
0.00301377
0.00301397
0.00301372
0.00301384
0.00301926
0.00301904
0.00301392
0.00300839
0.00300326
0.00300857
0.00300306
0.00300839
0.00300857
0.00300306
0.00303012
0.00302449
0.00302449
0.00302992
0.00302992
0.00302469
0.00303012
0.0030246
0.00303007
0.00302481
0.00302995
0.00303015
0.00302483
0.00303014
0.00302459
0.00303007
0.00302484
0.00303016
0.00302996
0.00302484
0.00302986
0.00300838
0.00301377
0.00300859
0.00300302
0.00300302
0.00300323
0.00300835
0.00300836
0.00300868
0.00300315
0.00300338
0.00300858
0.0030034
0.00300847
0.00300869
0.00301394
0.00301905
0.00301905
0.00301925
0.00301374
0.00301375
0.00301409
0.00301397
0.00301918
0.0030194
0.00301408
0.0030194
0.00301384
0.00301408
0.00301397
0.00301917
0.00301942
0.0030194
0.00301385
0.00301408
0.00300838
0.00301377
0.00302987
0.00303005
0.00302451
0.00302471
0.00302986
0.00303005
0.00302451
0.00303521
0.0030408
0.00303534
0.00304056
0.00303543
0.00303528
0.00303547
0.00304065
0.00304084
0.00303528
0.00304065
0.00303548
0.00302979
0.00302467
0.00302992
0.00303001
0.00302446
0.00301377
0.0030193
0.00301911
0.00301397
0.00301911
0.00301397
0.00301377
0.00300832
0.00300844
0.00300321
0.00300301
0.00300853
0.00301371
0.00301926
0.00301384
0.00301903
0.00301392
0.00300839
0.00300857
0.00300325
0.00300306
0.00300306
0.00300857
0.00300838
0.00301377
0.00301911
0.0030193
0.00301397
0.00301911
0.00301377
0.00301397
0.00300831
0.00300843
0.0030032
0.00300852
0.003003
0.00301371
0.00301926
0.00301384
0.00301904
0.00301392
0.00300838
0.00300857
0.00300306
0.00300325
0.00300838
0.00300857
0.00300306
0.00302987
0.00303005
0.00302471
0.00302451
0.00303005
0.00302987
0.00302451
0.00302979
0.00302467
0.00302992
0.00303001
0.00302445
0.00302987
0.00303005
0.00302451
0.00302471
0.00302987
0.00303005
0.00302452
0.00302979
0.00302467
0.00302993
0.00303002
0.00302446
0.00300839
0.00300325
0.00300306
0.00300857
0.00300306
0.00300857
0.00300839
0.00300832
0.00300321
0.00300845
0.00300302
0.00300853
0.00301377
0.00301397
0.0030193
0.00301911
0.00301911
0.00301397
0.00301377
0.00301371
0.00301384
0.00301926
0.00301903
0.00301392
0.00300831
0.0030032
0.00300844
0.00300301
0.00300852
0.00301377
0.00301397
0.00301911
0.00301931
0.00301912
0.00301377
0.00301397
0.00301371
0.00301384
0.00301926
0.00301904
0.00301392
0.00303013
0.00302442
0.00302442
0.0030299
0.00302991
0.00302462
0.00303556
0.00304091
0.00304074
0.0030355
0.00303538
0.00304088
0.00303557
0.00303556
0.00304091
0.00304074
0.00303549
0.00303557
0.00304088
0.00303538
0.0030356
0.00304069
0.00304069
0.00303538
0.0030409
0.00303538
0.00303018
0.00302458
0.00303007
0.00302486
0.00302995
0.00303019
0.00302488
0.00303018
0.00302458
0.00303007
0.00302486
0.00303019
0.00302996
0.00302488
0.00303528
0.00302986
0.00300837
0.00301376
0.00301383
0.00301897
0.00301896
0.00301913
0.00301372
0.00301372
0.00300855
0.00300332
0.00300858
0.00300316
0.00300861
0.00300846
0.00300329
0.00300855
0.00300332
0.00300858
0.00300316
0.00300846
0.00300861
0.00300329
0.00301399
0.00301915
0.00301942
0.00301396
0.00301403
0.00301939
0.00301383
0.00301399
0.00301914
0.00301942
0.00301397
0.00301939
0.00301383
0.00301403
0.00300861
0.00300317
0.00300318
0.00300843
0.00300843
0.00300337
0.00300837
0.00301376
0.00302987
0.00303005
0.00302471
0.00302451
0.00303005
0.00302987
0.00302452
0.00303522
0.0030408
0.00303534
0.00303543
0.00304055
0.00303528
0.00303547
0.00304084
0.00304065
0.00303548
0.00304064
0.00303527
0.0030298
0.00302467
0.00302992
0.00303001
0.00302446
0.00302987
0.00303005
0.00302472
0.00302451
0.00303005
0.00302987
0.00302452
0.00303521
0.00304079
0.00303534
0.00304055
0.00303543
0.00303528
0.00303547
0.00304084
0.00304064
0.00304064
0.00303548
0.00303527
0.00302979
0.00302467
0.00302993
0.00303002
0.00302446
0.00301377
0.00301931
0.00301911
0.00301397
0.00301911
0.00301397
0.00301377
0.00300831
0.00300843
0.0030032
0.00300852
0.00300301
0.0030137
0.00301926
0.00301384
0.00301903
0.00301392
0.00300838
0.00300857
0.00300325
0.00300305
0.00300857
0.00300838
0.00300306
0.00301377
0.00301931
0.00301911
0.00301397
0.00301912
0.00301397
0.00301377
0.00300831
0.00300844
0.0030032
0.00300852
0.00300301
0.00301371
0.00301926
0.00301384
0.00301904
0.00301392
0.00300838
0.00300857
0.00300325
0.00300306
0.00300857
0.00300838
0.00300306
0.00303527
0.00302985
0.00303528
0.00302985
0.00300859
0.00300334
0.00300859
0.00300318
0.00300333
0.00300863
0.00300849
0.00301392
0.003019
0.00301899
0.00301916
0.00301378
0.00301378
0.0030086
0.00300336
0.0030086
0.0030032
0.00300334
0.00300864
0.0030085
0.00301401
0.00301397
0.00301917
0.00301941
0.00301939
0.00301403
0.00301386
0.00301401
0.00301916
0.00301941
0.00301397
0.00301939
0.00301404
0.00301386
0.00300867
0.0030032
0.0030032
0.00300337
0.00300848
0.00300849
0.00301377
0.00300838
0.00301378
0.00299238
0.00298701
0.00299238
0.00298701
0.00298714
0.00298178
0.00298178
0.002987
0.002987
0.00298194
0.00299267
0.00299802
0.00299777
0.00299257
0.00299801
0.00299247
0.00299269
0.00299267
0.00299802
0.00299777
0.00299257
0.00299801
0.00299247
0.00299269
0.00299242
0.00299758
0.00299758
0.00299781
0.00299227
0.00299227
0.00298722
0.00298181
0.00298721
0.00298199
0.00298709
0.00298195
0.00298728
0.00298722
0.00298181
0.00298721
0.00298199
0.00298709
0.00298195
0.00298729
0.00299233
0.00299244
0.00299783
0.00299762
0.00299252
0.00298695
0.00298707
0.00298185
0.00298715
0.00298167
0.00298702
0.00298191
0.0029872
0.00298172
0.00298702
0.0029872
0.00298172
0.00299238
0.00299787
0.00299257
0.00299769
0.00299237
0.00299769
0.00299257
0.00297105
0.00297115
0.0029765
0.00297631
0.00297122
0.00297109
0.00297655
0.00297128
0.00297637
0.00297637
0.00297108
0.00297128
0.00298702
0.0029872
0.00298172
0.00298192
0.00298702
0.0029872
0.00298172
0.00299233
0.00299782
0.00299245
0.00299762
0.00299252
0.00299238
0.00299257
0.00299769
0.00299787
0.00299238
0.00299769
0.00299257
0.00298696
0.00298186
0.00298709
0.00298715
0.00298168
0.00297109
0.00297128
0.00297655
0.00297637
0.00297637
0.00297127
0.00297108
0.00297109
0.00297128
0.00297637
0.00297655
0.00297637
0.00297108
0.00297127
0.00297105
0.0029765
0.00297115
0.00297631
0.00297122
0.00298704
0.00298157
0.00298157
0.00298682
0.00298682
0.00298176
0.00299273
0.00299799
0.00299776
0.00299257
0.00299245
0.00299795
0.00299273
0.00299273
0.00299799
0.00299777
0.00299257
0.00299272
0.00299795
0.00299245
0.00299252
0.00299778
0.00299778
0.00299234
0.00299798
0.00299234
0.00298735
0.00298176
0.00298719
0.00298204
0.00298705
0.00298738
0.00298203
0.00298735
0.00298176
0.00298718
0.00298204
0.00298737
0.00298705
0.00298203
0.00299238
0.002987
0.0029711
0.00297133
0.00297635
0.00297635
0.00297654
0.00297116
0.00297116
0.00297136
0.00297645
0.00297664
0.00297129
0.00297137
0.00297661
0.00297121
0.00297136
0.00297645
0.00297664
0.00297129
0.00297661
0.00297121
0.00297137
0.0029711
0.00298702
0.00298721
0.00298191
0.00298172
0.0029872
0.00298702
0.00298171
0.00299233
0.00299782
0.00299244
0.00299252
0.00299762
0.00299238
0.00299257
0.00299786
0.00299769
0.00299257
0.00299769
0.00299237
0.00298695
0.00298186
0.00298708
0.00298715
0.00298167
0.00298702
0.0029872
0.00298191
0.00298172
0.0029872
0.00298702
0.00298172
0.00299233
0.00299782
0.00299245
0.00299762
0.00299252
0.00299238
0.00299257
0.00299787
0.00299769
0.00299769
0.00299257
0.00299237
0.00298696
0.00298186
0.00298708
0.00298715
0.00298168
0.00297105
0.0029765
0.00297115
0.00297631
0.00297122
0.00299238
0.00299237
0.00298701
0.00297136
0.00297665
0.00297129
0.00297648
0.00297139
0.00297661
0.0029712
0.00297128
0.00297641
0.00297641
0.0029766
0.00297116
0.00297116
0.00297137
0.00297665
0.00297649
0.00297129
0.00297662
0.0029714
0.00297118
0.00297109
0.00300602
0.00301674
0.00300602
0.00301674
0.00301674
0.00301675
0.00300603
0.00303575
0.00303564
0.00303567
0.00303568
0.00299292
0.00299273
0.00299791
0.00299791
0.00299279
0.00299793
0.00299278
0.00300859
0.00300853
0.00300347
0.00300346
0.00300862
0.00300861
0.00300356
0.00300861
0.00300334
0.00300862
0.00300344
0.00300864
0.00300864
0.00300336
0.00303568
0.00304086
0.00304087
0.00303561
0.00303565
0.0030408
0.00303565
0.00300849
0.00300851
0.0030034
0.0030034
0.00300857
0.00300857
0.00300342
0.00300852
0.00300336
0.00300852
0.00300343
0.0030035
0.00300855
0.00300859
0.00299287
0.00299794
0.00299794
0.00299274
0.00299798
0.00299278
0.00299277
0.00299267
0.00299793
0.00299271
0.00299794
0.00299263
0.00299791
0.00299276
0.0029714
0.00297662
0.00297142
0.00297663
0.00297138
0.0029766
0.00297147
0.00299292
0.0029979
0.0029979
0.00299274
0.00299278
0.00299788
0.0029928
0.00297155
0.00297659
0.00297145
0.00297659
0.00297147
0.00297655
0.00297147
0.00299267
0.00299789
0.00299796
0.00299275
0.00299277
0.00299267
0.00299789
0.00299267
0.00299793
0.00299795
0.00299272
0.00299263
0.00299276
0.00299791
0.00298721
0.00298728
0.00298201
0.00298211
0.00298729
0.00298721
0.00298201
0.00298723
0.00298725
0.00298198
0.0029821
0.00298724
0.00298728
0.00298201
0.00299281
0.00299793
0.00299793
0.00299272
0.00299276
0.00299793
0.00299275
0.00298718
0.00298717
0.00298207
0.00298208
0.00298723
0.00298213
0.0029872
0.00297162
0.0029766
0.00297147
0.00297659
0.00297659
0.0029715
0.0029715
0.00299267
0.00299789
0.00299795
0.00299275
0.00299267
0.00299277
0.00299788
0.00298725
0.00298199
0.00298725
0.0029821
0.00298727
0.00298202
0.00298728
0.00299268
0.00299794
0.00299793
0.00299271
0.00299275
0.00299266
0.00299791
0.00298722
0.00298728
0.00298201
0.00298212
0.00298722
0.00298729
0.00298201
0.00297139
0.00297657
0.00297664
0.00297147
0.00297657
0.00297149
0.00297138
0.0029714
0.00297662
0.00297662
0.00297141
0.0029766
0.00297138
0.00297146
0.00297139
0.00297661
0.00297142
0.00297663
0.00297659
0.00297147
0.00297135
0.00297138
0.00297657
0.00297665
0.00297147
0.00297657
0.00297138
0.00297149
0.00300601
0.00301674
0.00300601
0.00301674
0.00301674
0.00301675
0.00300603
0.00303826
0.00303826
0.00302748
0.00302748
0.00302748
0.00302749
0.00303827
0.00303826
0.00303826
0.00302748
0.00302748
0.00302748
0.00302749
0.00303827
0.00303826
0.00303826
0.00302748
0.00302748
0.00302748
0.00302749
0.00303827
0.00303826
0.00303826
0.00302749
0.00302749
0.00302749
0.0030275
0.00303827
0.00301674
0.00300602
0.00300602
0.00301674
0.00301674
0.00301675
0.00300603
0.00301674
0.00300602
0.00300601
0.00301674
0.00301674
0.00301675
0.00300603
0.00303006
0.0030301
0.00302489
0.0030248
0.00303012
0.00303006
0.0030248
0.00303008
0.00302489
0.0030301
0.00302479
0.0030301
0.00303013
0.00302481
0.00303006
0.0030301
0.0030248
0.00302489
0.00303006
0.00303012
0.0030248
0.00303557
0.00304087
0.00304091
0.00303562
0.00304086
0.00303554
0.00303565
0.00303557
0.00303563
0.00304084
0.00304091
0.00304084
0.00303557
0.00303565
0.00303008
0.00302489
0.0030301
0.00302479
0.00303011
0.00303012
0.00302482
0.0030302
0.00303005
0.00302494
0.00302495
0.00303013
0.00303014
0.00302509
0.00298467
0.00299533
0.00298467
0.00299533
0.00298467
0.00298467
0.00299534
0.00299533
0.00299533
0.00298467
0.00298466
0.00298467
0.00298467
0.00299534
0.00299533
0.00299533
0.00298468
0.00298467
0.00298467
0.00298467
0.00299534
0.00298723
0.00298728
0.00298202
0.00298212
0.00298722
0.00298729
0.00298202
0.00299268
0.00299792
0.00299794
0.00299271
0.0029979
0.00299266
0.00299275
0.00299267
0.00299275
0.00299788
0.00299795
0.00299788
0.00299267
0.00299277
0.00298726
0.00298211
0.00298725
0.002982
0.00298729
0.00298728
0.00298202
0.0029873
0.00298718
0.00298212
0.0029821
0.00298728
0.00298726
0.00298217
0.00303012
0.00303001
0.0030249
0.00302491
0.003025
0.0030301
0.00303011
0.0030142
0.0030141
0.00301934
0.00301934
0.00301934
0.00301416
0.00301415
0.00303006
0.0030301
0.00302489
0.0030248
0.00303012
0.00303006
0.0030248
0.00303557
0.00304091
0.00303565
0.00304086
0.00303557
0.00303563
0.0030409
0.00304084
0.00303565
0.00304084
0.00303557
0.00303008
0.00302489
0.0030301
0.00302478
0.00303012
0.00303011
0.00302481
0.00303006
0.00303011
0.00302489
0.0030248
0.00303012
0.00303006
0.0030248
0.00303557
0.00304088
0.00304091
0.00303562
0.00304086
0.00303566
0.00303553
0.00303557
0.00303563
0.0030409
0.00304084
0.00304084
0.00303566
0.00303557
0.00303008
0.00302489
0.0030301
0.00302477
0.00303012
0.00302481
0.00303009
0.00301406
0.00301937
0.00301931
0.00301414
0.00301931
0.00301416
0.00301406
0.0030086
0.00300334
0.00300862
0.00300344
0.00300862
0.00300864
0.00300336
0.00301406
0.00301937
0.00301935
0.00301411
0.00301403
0.00301933
0.00301415
0.00300858
0.00300864
0.00300345
0.00300335
0.00300865
0.00300858
0.00300336
0.00301406
0.00301937
0.00301931
0.00301414
0.00301931
0.00301416
0.00301406
0.00301407
0.00301411
0.00301937
0.00301935
0.00301933
0.00301415
0.00301405
0.00300859
0.00300345
0.00300864
0.00300335
0.00300865
0.00300858
0.00300336
0.00303007
0.00303001
0.00302489
0.0030249
0.00303008
0.00303009
0.00302499
0.00300863
0.00300347
0.00300346
0.00300855
0.00300355
0.00300862
0.00300862
0.00301426
0.00301415
0.00301933
0.00301935
0.00301413
0.00301937
0.00301416
0.00303006
0.0030301
0.00302489
0.0030248
0.00303012
0.00303006
0.0030248
0.00303008
0.00302489
0.0030301
0.00302478
0.00303013
0.00303011
0.00302481
0.00303006
0.0030301
0.0030248
0.00302489
0.00303006
0.00303012
0.0030248
0.00303557
0.00304087
0.00304091
0.00303562
0.00304086
0.00303565
0.00303554
0.00303557
0.00303563
0.00304084
0.00304091
0.00304084
0.00303557
0.00303565
0.00303008
0.00302489
0.0030301
0.00302479
0.00303012
0.00302481
0.00303011
0.00301406
0.00301938
0.00301931
0.00301414
0.00301931
0.00301416
0.00301406
0.0030086
0.00300334
0.00300862
0.00300343
0.00300862
0.00300864
0.00300336
0.00301406
0.00301937
0.00301935
0.00301411
0.00301403
0.00301933
0.00301415
0.00300858
0.00300863
0.00300345
0.00300335
0.00300865
0.00300858
0.00300335
0.00301406
0.00301931
0.00301938
0.00301414
0.00301931
0.00301406
0.00301416
0.00300859
0.0030033
0.00300862