/*--------------------------------*- C++ -*----------------------------------*\
| =========                 |                                                 |
| \\      /  F ield         | OpenFOAM: The Open Source CFD Toolbox           |
|  \\    /   O peration     | Version:  v2006                                 |
|   \\  /    A nd           | Website:  www.openfoam.com                      |
|    \\/     M anipulation  |                                                 |
\*---------------------------------------------------------------------------*/
FoamFile
{
    version     2.0;
    format      ascii;
    class       volVectorField;
    location    "250";
    object      U;
}
// * * * * * * * * * * * * * * * * * * * * * * * * * * * * * * * * * * * * * //

dimensions      [0 1 -1 0 0 0 0];


internalField   nonuniform List<vector> 
14298
(
(2.30103e-06 6.63864e-06 0.0722558)
(6.63888e-06 2.31072e-06 0.072255)
(0.000159515 0.000159446 0.106601)
(1.37602e-05 3.04577e-05 0.0895371)
(3.0424e-05 1.37339e-05 0.0895341)
(2.07074e-06 4.68925e-05 0.0942426)
(-1.40287e-06 2.06379e-05 0.0837103)
(-2.13159e-06 4.68878e-05 0.0942425)
(5.2033e-06 0.000109402 0.102585)
(6.03278e-05 9.85777e-05 0.107878)
(1.75833e-05 6.39582e-05 0.0958742)
(1.88465e-05 0.000101696 0.108487)
(-5.13469e-06 0.000109358 0.102585)
(-1.89273e-05 0.000101704 0.108487)
(4.69449e-05 2.12457e-06 0.0942424)
(2.06404e-05 -1.40929e-06 0.0837105)
(0.000109408 5.25691e-06 0.102585)
(9.84865e-05 6.02241e-05 0.107879)
(6.39326e-05 1.75774e-05 0.0958737)
(0.000101716 1.87792e-05 0.108487)
(4.69283e-05 -2.03185e-06 0.0942418)
(2.064e-05 1.3677e-06 0.0837096)
(0.000109392 -5.03344e-06 0.102585)
(9.86874e-05 -6.05676e-05 0.107878)
(0.000101738 -1.89072e-05 0.108487)
(6.33849e-05 -1.75876e-05 0.0958724)
(-9.8737e-05 -6.08561e-05 0.107878)
(-6.26268e-05 -1.71376e-05 0.0958741)
(-2.06247e-05 1.58242e-06 0.0837106)
(6.84938e-06 -2.11879e-06 0.0722542)
(0.000159281 -0.00015939 0.1066)
(2.96713e-05 -1.34353e-05 0.0895339)
(1.34364e-05 -2.96868e-05 0.0895364)
(2.15517e-06 -6.88709e-06 0.0722552)
(5.06373e-06 -0.000109367 0.102584)
(6.04461e-05 -9.85906e-05 0.107879)
(1.8817e-05 -0.000101716 0.108487)
(1.76137e-05 -6.33992e-05 0.0958743)
(-5.14588e-06 -0.000109316 0.102584)
(-6.07831e-05 -9.86475e-05 0.107878)
(-1.90861e-05 -0.00010172 0.108487)
(-1.71355e-05 -6.25815e-05 0.0958738)
(1.99226e-06 -4.69746e-05 0.0942423)
(-1.35789e-06 -2.06542e-05 0.0837099)
(-2.20185e-06 -4.69625e-05 0.0942424)
(1.57573e-06 -2.06108e-05 0.0837106)
(-0.000160692 -0.000160733 0.1066)
(-2.94174e-05 -1.26347e-05 0.089536)
(-1.26197e-05 -2.94138e-05 0.0895345)
(-7.16162e-06 -1.70139e-06 0.0722557)
(-1.69842e-06 -7.1587e-06 0.0722556)
(-3.21529e-06 -1.73645e-06 0.0722979)
(-1.73579e-06 -3.22369e-06 0.0722972)
(9.99916e-06 9.99005e-06 0.0853433)
(5.49186e-06 5.87906e-06 0.0692943)
(5.90893e-06 5.51058e-06 0.0692875)
(1.76199e-05 1.763e-05 0.0853243)
(-4.87757e-07 1.93941e-06 0.0693255)
(1.98008e-06 -4.8785e-07 0.0693191)
(2.34481e-05 2.0302e-05 0.0941865)
(4.39899e-06 2.54315e-05 0.0830458)
(5.30266e-05 7.91299e-05 0.0994674)
(1.76193e-06 1.96567e-05 0.0895671)
(3.4259e-05 4.78999e-05 0.0941548)
(-1.75899e-06 1.50268e-05 0.0830724)
(3.20772e-05 3.9196e-05 0.0995147)
(2.03172e-05 2.33679e-05 0.0941786)
(2.54386e-05 4.34126e-06 0.0830389)
(7.90049e-05 5.29292e-05 0.099463)
(1.96359e-05 1.74542e-06 0.0895649)
(4.78324e-05 3.41837e-05 0.0941458)
(1.51143e-05 -1.77397e-06 0.0830672)
(3.9126e-05 3.20042e-05 0.0995111)
(2.30097e-06 -1.60169e-07 0.0778567)
(1.00797e-06 6.41183e-06 0.0796351)
(4.31864e-06 3.94479e-05 0.0923439)
(1.99388e-06 2.50018e-05 0.0942613)
(4.16494e-07 9.5075e-06 0.077826)
(1.34857e-06 -2.67821e-06 0.0796622)
(4.02756e-06 1.81337e-05 0.0923717)
(3.90723e-06 -2.30038e-06 0.0691576)
(4.49477e-06 2.35737e-05 0.0876439)
(-3.71041e-06 1.13276e-06 0.0837431)
(1.79937e-06 6.12062e-06 0.0691081)
(3.56112e-06 6.3715e-06 0.0876804)
(-2.33816e-06 -1.69556e-07 0.0778558)
(-1.02861e-06 6.40803e-06 0.079635)
(-4.39048e-06 3.94277e-05 0.092344)
(-2.10185e-06 2.49998e-05 0.0942611)
(-4.59264e-07 9.48419e-06 0.0778254)
(-1.36993e-06 -2.6791e-06 0.0796621)
(-4.13255e-06 1.80929e-05 0.0923709)
(-1.66214e-07 2.3126e-06 0.0778563)
(3.94881e-05 4.36725e-06 0.0923436)
(6.43569e-06 1.0085e-06 0.0796354)
(2.5008e-05 2.00972e-06 0.094261)
(9.50781e-06 4.39011e-07 0.0778259)
(1.81705e-05 4.06125e-06 0.0923714)
(-2.70771e-06 1.33758e-06 0.0796615)
(-2.31041e-06 3.93476e-06 0.0691573)
(2.35826e-05 4.50912e-06 0.0876443)
(1.13594e-06 -3.70953e-06 0.083743)
(6.11438e-06 1.83315e-06 0.0691083)
(6.37995e-06 3.57867e-06 0.0876797)
(-1.24668e-07 -2.40378e-06 0.0778573)
(6.37491e-06 -1.03215e-06 0.0796339)
(3.94301e-05 -4.29981e-06 0.0923423)
(2.5057e-05 -2.07693e-06 0.0942611)
(9.41795e-06 -4.61287e-07 0.0778234)
(-2.65348e-06 -1.39686e-06 0.0796626)
(1.81437e-05 -4.12214e-06 0.092372)
(-2.31805e-06 -3.97095e-06 0.0691594)
(2.35919e-05 -4.52703e-06 0.0876437)
(1.10291e-06 3.80133e-06 0.0837434)
(6.0865e-06 -1.84261e-06 0.0691093)
(6.34252e-06 -3.67431e-06 0.0876808)
(-1.01156e-06 4.00184e-06 0.0837433)
(-1.42758e-06 3.52727e-06 0.0722983)
(1.13069e-05 -1.13709e-05 0.0853425)
(6.07469e-06 -4.96427e-06 0.0692864)
(4.89995e-06 -6.11712e-06 0.0692927)
(1.80181e-05 -1.80734e-05 0.085324)
(2.14013e-06 1.37797e-06 0.0693188)
(-1.43913e-06 -2.18455e-06 0.0693255)
(2.09755e-05 -2.40721e-05 0.0941778)
(2.42665e-05 -3.40966e-06 0.0830398)
(7.8985e-05 -5.37865e-05 0.0994646)
(1.91716e-05 -1.17247e-06 0.089565)
(3.9188e-05 -3.36654e-05 0.0995112)
(4.77677e-05 -3.50284e-05 0.0941482)
(1.42979e-05 3.21313e-06 0.0830671)
(2.40723e-05 -2.10126e-05 0.0941872)
(3.34364e-06 -2.42591e-05 0.0830449)
(5.37621e-05 -7.89178e-05 0.0994682)
(1.14898e-06 -1.91408e-05 0.0895679)
(3.4974e-05 -4.77687e-05 0.0941561)
(-3.23213e-06 -1.43416e-05 0.0830737)
(3.36396e-05 -3.91337e-05 0.0995164)
(-3.53113e-06 1.45931e-06 0.072298)
(2.38818e-06 1.28904e-07 0.0778581)
(4.27329e-06 -3.94442e-05 0.0923425)
(1.004e-06 -6.4127e-06 0.0796352)
(1.98907e-06 -2.50174e-05 0.0942606)
(4.80167e-07 -9.41991e-06 0.0778239)
(4.09474e-06 -1.81825e-05 0.0923723)
(1.35613e-06 2.73367e-06 0.0796613)
(4.03794e-06 2.2385e-06 0.0691602)
(4.5072e-06 -2.35244e-05 0.0876425)
(-3.81235e-06 -1.10451e-06 0.0837436)
(1.8385e-06 -6.00227e-06 0.0691051)
(3.68489e-06 -6.39017e-06 0.0876818)
(-2.44481e-06 2.10718e-07 0.0778553)
(-4.48752e-06 -3.94228e-05 0.0923437)
(-1.08626e-06 -6.41643e-06 0.0796352)
(-2.17838e-06 -2.49883e-05 0.0942603)
(-5.84781e-07 -9.44573e-06 0.0778251)
(-4.26831e-06 -1.80571e-05 0.0923705)
(-1.40806e-06 2.73817e-06 0.079661)
(-4.0204e-06 2.3237e-06 0.0691588)
(-4.72875e-06 -2.35048e-05 0.0876449)
(4.00099e-06 -1.00191e-06 0.0837434)
(-1.95458e-06 -6.0688e-06 0.0691099)
(-3.81646e-06 -6.25396e-06 0.0876803)
(-1.28391e-05 -1.28464e-05 0.0853423)
(-6.23028e-06 -3.57303e-06 0.069293)
(-3.59852e-06 -6.28185e-06 0.0692876)
(-2.03576e-05 -2.03624e-05 0.0853215)
(-2.2635e-06 1.91493e-06 0.0693294)
(1.95128e-06 -2.24884e-06 0.0693223)
(-2.20472e-05 -2.38579e-05 0.0941846)
(-2.37856e-05 -1.37434e-06 0.0830453)
(-7.89797e-05 -5.60566e-05 0.0994678)
(-1.95199e-05 -8.1975e-07 0.0895674)
(-4.89481e-05 -3.54131e-05 0.0941535)
(-3.92192e-05 -3.49469e-05 0.0995145)
(-1.49663e-05 3.89303e-06 0.0830752)
(-2.37558e-05 -2.20265e-05 0.0941757)
(-1.36895e-06 -2.38554e-05 0.0830407)
(-5.59911e-05 -7.89233e-05 0.0994646)
(-7.76017e-07 -1.95002e-05 0.0895647)
(-3.53546e-05 -4.89461e-05 0.0941457)
(-3.48705e-05 -3.91945e-05 0.0995101)
(3.95271e-06 -1.49626e-05 0.0830689)
(1.43174e-06 3.77477e-06 0.0722985)
(3.7864e-06 1.42959e-06 0.0722979)
(6.14043e-05 6.14207e-05 0.108776)
(2.13863e-05 6.44043e-05 0.108989)
(6.43754e-05 2.13665e-05 0.108989)
(2.18185e-05 2.18116e-05 0.109108)
(-2.14028e-05 6.43986e-05 0.108989)
(-2.18348e-05 2.18061e-05 0.109108)
(6.14456e-05 -6.14699e-05 0.108776)
(6.44065e-05 -2.14349e-05 0.108989)
(2.13841e-05 -6.44241e-05 0.108989)
(2.18157e-05 -2.18458e-05 0.109108)
(-6.16692e-05 -6.16607e-05 0.108776)
(-2.14817e-05 -6.44394e-05 0.108989)
(-2.18509e-05 -2.18646e-05 0.109108)
(3.71418e-05 3.70516e-05 0.100778)
(-6.18907e-06 -6.20236e-06 0.106765)
(0.000149013 9.823e-05 0.104491)
(9.82025e-05 0.00014888 0.104489)
(7.50198e-05 7.49686e-05 0.100696)
(-1.21035e-05 5.6707e-05 0.10461)
(5.67037e-05 -1.20998e-05 0.104608)
(2.52156e-05 7.9732e-06 0.106059)
(1.19045e-05 9.9217e-05 0.101334)
(9.77976e-06 0.000213352 0.106428)
(5.0337e-06 6.65205e-05 0.102661)
(2.45352e-05 0.000207628 0.105888)
(1.07966e-05 5.69547e-05 0.101423)
(1.0909e-05 1.67437e-05 0.106566)
(3.86956e-05 -4.77722e-06 0.104894)
(1.70098e-05 8.17022e-05 0.0989776)
(4.84316e-05 0.000174466 0.102921)
(6.13853e-06 3.2067e-05 0.0959426)
(3.90737e-05 -5.62395e-06 0.103025)
(4.08001e-05 0.00019776 0.104717)
(1.28214e-05 4.24712e-05 0.0990718)
(-2.54309e-05 7.84946e-06 0.106058)
(-1.18329e-05 9.90733e-05 0.101334)
(-9.81765e-06 0.000213299 0.106428)
(-5.06906e-06 6.64562e-05 0.102661)
(-2.46033e-05 0.00020753 0.105888)
(-1.08587e-05 5.67908e-05 0.101422)
(-1.10888e-05 1.66733e-05 0.106566)
(8.00918e-06 2.52259e-05 0.106059)
(9.92089e-05 1.19577e-05 0.101333)
(0.000213356 9.82963e-06 0.106428)
(6.64782e-05 5.09428e-06 0.102661)
(0.000207681 2.45367e-05 0.105887)
(5.69258e-05 1.08636e-05 0.101423)
(1.66951e-05 1.09466e-05 0.106566)
(-4.86178e-06 3.86527e-05 0.104894)
(8.1664e-05 1.70417e-05 0.0989778)
(0.000174385 4.83573e-05 0.10292)
(3.20227e-05 6.15381e-06 0.0959419)
(-5.69759e-06 3.90239e-05 0.103024)
(0.000197661 4.07453e-05 0.104717)
(4.2403e-05 1.28661e-05 0.0990713)
(7.86006e-06 -2.52713e-05 0.106058)
(0.000213351 -9.61727e-06 0.106428)
(9.91529e-05 -1.17091e-05 0.101333)
(6.6429e-05 -4.99416e-06 0.102661)
(0.000207637 -2.42922e-05 0.105888)
(1.66382e-05 -1.09506e-05 0.106566)
(5.67788e-05 -1.07387e-05 0.101422)
(-4.90302e-06 -3.90255e-05 0.104893)
(8.14555e-05 -1.68062e-05 0.098977)
(0.00017442 -4.8616e-05 0.102919)
(3.13853e-05 -5.95265e-06 0.0959424)
(0.000197994 -4.05199e-05 0.104716)
(4.20246e-05 -1.28051e-05 0.0990722)
(-5.94331e-06 -4.00536e-05 0.103024)
(-0.000173812 -5.0266e-05 0.102921)
(-3.11552e-05 -5.58867e-06 0.0959428)
(6.41774e-06 -4.115e-05 0.103026)
(3.79516e-05 -3.79661e-05 0.100779)
(-5.59836e-06 5.62587e-06 0.106764)
(9.81913e-05 -0.000149225 0.10449)
(0.000149158 -9.82003e-05 0.104491)
(5.73386e-05 1.06557e-05 0.104608)
(7.49673e-05 -7.5039e-05 0.100699)
(-1.07433e-05 -5.72664e-05 0.10461)
(2.52385e-05 -7.88419e-06 0.106059)
(9.65005e-06 -0.000213359 0.106428)
(1.17337e-05 -9.91174e-05 0.101333)
(4.92761e-06 -6.64038e-05 0.102661)
(2.43504e-05 -0.000207666 0.105887)
(1.08595e-05 -1.66294e-05 0.106566)
(1.06923e-05 -5.67735e-05 0.101423)
(3.89598e-05 4.94386e-06 0.104894)
(1.6865e-05 -8.14149e-05 0.0989772)
(4.86309e-05 -0.000174381 0.102921)
(5.92965e-06 -3.13796e-05 0.0959435)
(4.05434e-05 -0.000197916 0.104717)
(3.99935e-05 5.97173e-06 0.103026)
(1.27987e-05 -4.20322e-05 0.0990725)
(-2.57171e-05 -7.75006e-06 0.106058)
(-9.8613e-06 -0.000213298 0.106428)
(-1.17723e-05 -9.89186e-05 0.101334)
(-5.14738e-06 -6.63517e-05 0.10266)
(-2.47009e-05 -0.000207527 0.105887)
(-1.11931e-05 -1.65745e-05 0.106566)
(-1.0914e-05 -5.65868e-05 0.101422)
(-3.99097e-05 5.57876e-06 0.104894)
(-1.69335e-05 -8.08818e-05 0.0989784)
(-5.02328e-05 -0.0001737 0.10292)
(-5.57411e-06 -3.10985e-05 0.0959421)
(-4.14449e-05 -0.000197408 0.104716)
(-1.30557e-05 -4.16882e-05 0.0990717)
(-4.11224e-05 6.51311e-06 0.103024)
(-3.95082e-05 -3.95588e-05 0.100777)
(4.33869e-06 4.38204e-06 0.106764)
(-9.9404e-05 -0.000152 0.104491)
(-0.000151854 -9.93734e-05 0.10449)
(-7.6836e-05 -7.68959e-05 0.100698)
(-5.82831e-05 8.74092e-06 0.104609)
(8.73763e-06 -5.8257e-05 0.104607)
(-0.000116221 6.92849e-05 0.105615)
(-0.000174467 -0.000174546 0.105239)
(-0.000116817 -6.94847e-05 0.105531)
(-6.94788e-05 -0.000116753 0.105532)
(-3.01675e-05 -3.02229e-05 0.105248)
(-0.000175148 0.000175041 0.105241)
(-0.000116618 -6.99492e-05 0.105614)
(-7.43279e-05 -7.43358e-05 0.105755)
(9.56677e-07 1.13543e-05 0.0744353)
(-0.000125237 4.64024e-05 0.0991158)
(-0.000119325 2.47612e-05 0.105779)
(-0.000179358 1.10933e-05 0.1037)
(-7.06455e-05 -3.11807e-05 0.0932227)
(-3.13245e-05 -7.04005e-05 0.093222)
(-0.000120081 2.51862e-05 0.105687)
(-0.000130194 1.22337e-05 0.103767)
(-0.00010343 5.3057e-06 0.0981855)
(-0.000120081 -2.48646e-05 0.105687)
(-8.8345e-05 -3.34723e-05 0.0992892)
(-0.000130207 -1.19077e-05 0.103767)
(-4.78443e-05 1.43246e-05 0.0872784)
(-0.000103299 -4.92994e-06 0.0981852)
(-2.47878e-05 -0.000120088 0.105687)
(-3.35575e-05 -8.84809e-05 0.099288)
(-1.19099e-05 -0.000130239 0.103767)
(1.43056e-05 -4.77933e-05 0.0872779)
(-4.93941e-06 -0.000103315 0.0981854)
(-6.31482e-05 -1.84623e-05 0.0933798)
(-1.84157e-05 -6.3146e-05 0.0933757)
(-2.51231e-06 6.40318e-06 0.0745627)
(6.34919e-06 -2.5831e-06 0.0745616)
(-3.05934e-05 7.30508e-05 0.0932158)
(-7.34881e-05 3.1729e-05 0.0932216)
(-1.11683e-05 -1.03609e-06 0.0744375)
(-6.54372e-05 -1.20709e-05 0.0871302)
(-0.000126027 4.84091e-06 0.0980535)
(-0.000119374 -2.49323e-05 0.105779)
(-0.000124947 -4.571e-05 0.0991148)
(-0.000179403 -1.09343e-05 0.1037)
(-6.56929e-05 1.16564e-05 0.0871295)
(-0.000126053 -4.8877e-06 0.0980535)
(-1.16127e-05 7.81295e-07 0.0744364)
(6.48299e-07 -1.16412e-05 0.0744358)
(6.36758e-06 2.37246e-06 0.0744659)
(-0.000137161 -9.96954e-05 0.101983)
(-4.44269e-05 -2.56418e-06 0.0860469)
(-9.27873e-05 -8.17111e-05 0.0978323)
(-9.94026e-05 -0.000136784 0.101985)
(-2.72878e-06 -4.4519e-05 0.086044)
(-8.15688e-05 -9.22208e-05 0.0978321)
(8.21581e-08 -1.19615e-05 0.0714702)
(-1.18534e-05 -4.73604e-08 0.0714654)
(-4.32565e-05 -4.33106e-05 0.0891144)
(1.55259e-06 -5.9959e-06 0.0711099)
(-5.67967e-05 8.57054e-06 0.0917804)
(-7.57782e-05 9.24411e-06 0.0917888)
(9.12777e-06 -3.25299e-06 0.0711661)
(-1.97208e-05 -1.20235e-05 0.0806712)
(-0.000128804 5.00864e-06 0.0981729)
(-8.76918e-05 1.09601e-05 0.0965317)
(-3.16311e-05 2.01421e-06 0.0828882)
(-0.000111436 1.06997e-05 0.0965292)
(-4.17794e-05 1.8437e-06 0.0829265)
(-1.01745e-05 -9.71196e-06 0.0806609)
(1.3288e-06 6.21781e-06 0.0711139)
(-6.82012e-05 1.24224e-05 0.0872837)
(-5.74798e-05 -8.02715e-06 0.0917791)
(-7.5387e-05 -8.94386e-06 0.0917905)
(9.46845e-06 3.58437e-06 0.0711653)
(-2.00184e-05 1.20415e-05 0.080672)
(-0.000128752 -4.56287e-06 0.0981729)
(-3.15852e-05 -1.92004e-06 0.0828878)
(-8.76085e-05 -1.06586e-05 0.0965307)
(-4.18322e-05 -1.90746e-06 0.0829266)
(-0.000110934 -1.03918e-05 0.0965299)
(-9.96658e-06 1.01409e-05 0.0806585)
(6.15042e-06 1.2699e-06 0.0711139)
(1.2448e-05 -6.81058e-05 0.0872835)
(-8.0548e-06 -5.71869e-05 0.0917786)
(-8.99864e-06 -7.53861e-05 0.0917902)
(3.53116e-06 9.35568e-06 0.0711651)
(1.20301e-05 -2.00276e-05 0.0806718)
(-4.70321e-06 -0.000128801 0.0981724)
(-1.06446e-05 -8.75682e-05 0.0965304)
(-1.92288e-06 -3.16197e-05 0.0828877)
(-1.04599e-05 -0.000111114 0.0965297)
(-1.83539e-06 -4.18764e-05 0.0829262)
(1.00353e-05 -1.00693e-05 0.0806583)
(-0.000100542 -8.01221e-05 0.0979624)
(-9.1301e-05 -7.46175e-05 0.102095)
(-7.64464e-05 -3.22332e-05 0.0933767)
(-4.11366e-05 -1.1816e-06 0.0861819)
(-6.62175e-05 -6.66444e-05 0.0979848)
(-0.000140091 -0.000103888 0.102034)
(-5.33764e-05 -4.51167e-06 0.0861784)
(-8.04359e-05 -0.00010112 0.0979609)
(-7.44479e-05 -9.12294e-05 0.102089)
(-3.20323e-05 -7.6771e-05 0.0933757)
(-1.27438e-06 -4.12081e-05 0.086173)
(-6.65362e-05 -6.57823e-05 0.0979731)
(-0.000104175 -0.000140446 0.102036)
(-4.59338e-06 -5.36818e-05 0.0861752)
(-4.17045e-05 -4.14859e-05 0.0893027)
(3.05011e-06 -9.82082e-06 0.0715808)
(-9.69916e-06 3.06269e-06 0.0715717)
(-3.1228e-05 -3.09556e-05 0.0892758)
(-3.75048e-06 -1.54057e-05 0.0715642)
(-1.56149e-05 -3.79264e-06 0.0715591)
(-1.13225e-05 1.16962e-06 0.074538)
(1.25912e-06 -1.12945e-05 0.0745378)
(-6.79539e-05 6.43918e-05 0.0978405)
(-0.000102277 0.000137877 0.101978)
(-3.70108e-06 4.9236e-05 0.086041)
(-1.78172e-05 6.06968e-05 0.0932229)
(1.93537e-06 3.76619e-05 0.0860478)
(-7.93158e-05 9.76048e-05 0.0978141)
(-7.50712e-05 8.91824e-05 0.102043)
(-6.25853e-05 6.65721e-05 0.097837)
(-0.000137593 0.000101671 0.10199)
(-5.03212e-05 4.30574e-06 0.08605)
(-6.05338e-05 1.85771e-05 0.0932211)
(-8.81972e-05 7.41871e-05 0.102036)
(-9.53348e-05 7.76214e-05 0.0978321)
(-3.74903e-05 -1.94025e-06 0.0860483)
(-3.37661e-05 3.35138e-05 0.0890801)
(-1.42985e-05 2.77691e-06 0.0714717)
(-2.96539e-06 1.38083e-05 0.0714794)
(-7.6295e-06 -1.42359e-06 0.0714889)
(-4.07834e-05 4.09603e-05 0.0891101)
(1.45752e-06 7.49921e-06 0.071495)
(-2.2891e-06 -6.35815e-06 0.0744637)
(8.17314e-06 -3.06889e-06 0.0710912)
(-7.16766e-05 8.81107e-06 0.0916049)
(-4.51367e-05 -1.42584e-05 0.0871272)
(-5.37044e-05 8.04999e-06 0.0915989)
(-7.01242e-08 -5.52611e-06 0.071036)
(-8.87882e-06 -9.65877e-06 0.0805138)
(-0.000100527 4.97994e-06 0.0980654)
(-0.000108456 1.04192e-05 0.0963751)
(-3.83452e-05 1.58416e-06 0.0827429)
(-8.43044e-05 1.06392e-05 0.0963785)
(-1.87131e-05 -1.15182e-05 0.0805212)
(-2.82412e-05 1.79874e-06 0.0827083)
(8.17527e-06 2.84937e-06 0.0710906)
(-7.25775e-05 -8.48988e-06 0.0916052)
(-4.4878e-05 1.3986e-05 0.0871265)
(9.15878e-08 5.52794e-06 0.0710406)
(-5.35744e-05 -8.1709e-06 0.0915971)
(-8.79186e-06 9.48017e-06 0.0805115)
(-0.000100668 -5.1676e-06 0.0980648)
(-3.82873e-05 -1.37575e-06 0.0827429)
(-0.00010908 -1.03236e-05 0.0963753)
(-1.85012e-05 1.18354e-05 0.080522)
(-2.8228e-05 -1.74794e-06 0.0827079)
(-8.46568e-05 -1.06231e-05 0.0963764)
(-0.000140762 -0.0001795 0.104523)
(-0.000179364 -0.00014051 0.104525)
(-0.000126099 -0.000125911 0.10282)
(-0.000131342 -0.000131727 0.102848)
(-0.000175095 -0.00017525 0.105175)
(-9.77903e-05 -1.29618e-05 0.104571)
(-1.29216e-05 -9.78105e-05 0.104569)
(-8.27154e-05 -8.27128e-05 0.102932)
(-0.000142428 -0.000183194 0.104488)
(-0.000183054 -0.000142788 0.104489)
(-8.20282e-05 8.26342e-05 0.1029)
(-0.000182326 0.000141812 0.104523)
(-0.000141366 0.000182239 0.104527)
(-2.94733e-05 2.96204e-05 0.105315)
(-9.66881e-05 1.24114e-05 0.104605)
(-0.00012902 0.000129537 0.102818)
(-1.25754e-05 9.7701e-05 0.104609)
(-7.51524e-05 2.48292e-05 0.105791)
(-2.52003e-05 2.52013e-05 0.105796)
(-7.51584e-05 -2.47609e-05 0.105791)
(-2.47163e-05 -7.51616e-05 0.105791)
(-2.51783e-05 -2.52156e-05 0.105796)
(-3.13719e-05 5.52809e-05 0.104665)
(-0.000238524 7.90516e-05 0.103769)
(-0.000152739 4.70346e-05 0.101653)
(-8.59107e-05 3.28109e-05 0.09919)
(-0.000245329 5.72027e-05 0.104551)
(-2.47502e-05 6.76841e-05 0.103869)
(-0.000104046 4.48618e-05 0.101746)
(-4.91357e-05 3.24628e-05 0.105068)
(-0.000128072 1.18869e-05 0.103779)
(-0.000171953 3.02769e-05 0.103136)
(-0.000237014 1.25792e-05 0.105144)
(-0.000240505 3.19063e-05 0.104976)
(-0.000120466 3.17435e-05 0.103223)
(-5.64967e-05 1.34458e-05 0.105221)
(-0.000246273 5.85785e-05 0.104511)
(-0.000105667 4.59139e-05 0.101807)
(-3.24816e-05 5.69515e-05 0.104624)
(-0.000154435 4.75627e-05 0.101713)
(-0.000240786 3.23895e-05 0.104918)
(-0.000181243 1.10996e-05 0.103689)
(-0.000122621 3.25297e-05 0.103236)
(-5.81588e-05 1.38442e-05 0.105155)
(-5.08909e-05 3.32004e-05 0.10501)
(-0.000173805 3.07124e-05 0.10315)
(-0.000237272 1.2665e-05 0.105079)
(-0.000246105 -5.75554e-05 0.104512)
(-2.59542e-05 -6.79274e-05 0.103858)
(-0.000127357 -4.75249e-05 0.0992134)
(-0.00010646 -4.54618e-05 0.101807)
(-0.000155003 -4.79179e-05 0.101713)
(-0.000239871 -8.00654e-05 0.103755)
(-3.31457e-05 -5.52842e-05 0.104624)
(-0.000240721 -3.18849e-05 0.104919)
(-0.000181265 -1.09094e-05 0.103689)
(-5.82119e-05 -1.32928e-05 0.105155)
(-0.000122769 -3.24022e-05 0.103236)
(-0.00023728 -1.23591e-05 0.10508)
(-0.000173844 -3.06445e-05 0.10315)
(-5.09224e-05 -3.24032e-05 0.105009)
(-5.75737e-05 -0.000246052 0.104512)
(-6.79539e-05 -2.59718e-05 0.103857)
(-4.75242e-05 -0.000127343 0.0992132)
(-4.55207e-05 -0.000106422 0.101806)
(-4.79089e-05 -0.000154972 0.101713)
(-8.0326e-05 -0.000239842 0.103756)
(-5.52519e-05 -3.30597e-05 0.104624)
(-3.18938e-05 -0.000240794 0.104919)
(-1.09466e-05 -0.000181285 0.103688)
(-1.33036e-05 -5.82553e-05 0.105155)
(-3.2364e-05 -0.000122795 0.103236)
(-1.23301e-05 -0.000237282 0.105079)
(-3.06783e-05 -0.000173916 0.10315)
(-3.23994e-05 -5.10032e-05 0.105009)
(-3.1899e-05 -5.57323e-05 0.104664)
(-0.00023911 -7.7949e-05 0.103765)
(-0.00015308 -4.60452e-05 0.101652)
(-8.41677e-05 -3.23107e-05 0.0991906)
(-2.47488e-05 -6.96171e-05 0.103868)
(-0.000246325 -5.62586e-05 0.10455)
(-0.000103483 -4.42521e-05 0.101746)
(-4.91364e-05 -3.264e-05 0.105068)
(-0.000128088 -1.18836e-05 0.103779)
(-0.000237082 -1.22537e-05 0.105144)
(-0.000172191 -3.00812e-05 0.103136)
(-5.65046e-05 -1.35626e-05 0.105221)
(-0.000240637 -3.14358e-05 0.104975)
(-0.000120457 -3.14845e-05 0.103222)
(-0.000113584 6.78027e-05 0.105938)
(-2.79308e-05 6.55988e-05 0.0926146)
(-2.58899e-05 5.93789e-05 0.0923348)
(-0.000116398 -2.46565e-05 0.106138)
(-0.000113993 -5.31276e-06 0.0975681)
(-0.000113121 6.82423e-05 0.106094)
(-0.000115034 -2.41096e-05 0.106314)
(-5.24613e-05 1.05046e-05 0.0862857)
(-7.31541e-05 7.31252e-05 0.106135)
(6.97387e-05 -0.000116506 0.105614)
(-7.21859e-05 7.21534e-05 0.106322)
(6.86075e-05 -0.000114037 0.105938)
(-0.000175417 -0.000175975 0.105489)
(2.68566e-05 2.69986e-05 0.105511)
(-6.93995e-05 0.000116329 0.105615)
(6.87708e-05 0.000114684 0.105858)
(-2.85176e-05 7.89197e-05 0.0988893)
(-1.52677e-05 5.4751e-05 0.0927709)
(0.000116564 -6.98284e-05 0.105614)
(0.000114584 6.87831e-05 0.105859)
(0.000114498 -6.82858e-05 0.105858)
(-0.000114598 6.87346e-05 0.105859)
(-0.00011712 -2.43473e-05 0.106049)
(-9.19316e-05 -5.39875e-06 0.0977002)
(0.000174624 -0.000174651 0.105241)
(2.46797e-05 -2.45564e-05 0.105511)
(-6.98738e-05 -0.000116553 0.105614)
(6.8257e-05 -0.00011443 0.105858)
(-6.86922e-05 -0.000114549 0.105858)
(-2.55147e-05 -2.56764e-05 0.10551)
(-1.50365e-06 6.58856e-06 0.0741875)
(0.000175994 0.000176042 0.10549)
(6.83396e-05 0.00011391 0.105938)
(-4.10021e-05 0.000115614 0.0987113)
(-3.81946e-05 0.000111374 0.0985063)
(0.000113825 6.82278e-05 0.105939)
(0.000114106 -6.86515e-05 0.105937)
(0.000174921 -0.000174954 0.105489)
(-6.85305e-05 -0.000113985 0.105938)
(-1.23926e-06 5.78204e-06 0.0740153)
(-0.000174133 -0.000173986 0.105609)
(-9.89678e-06 3.30987e-07 0.0739009)
(9.1327e-07 1.05592e-05 0.0740677)
(5.87143e-06 1.80947e-06 0.074017)
(-0.000116352 2.43329e-05 0.106138)
(-0.00017065 1.11641e-05 0.103718)
(-0.000115346 4.09328e-05 0.0987122)
(-0.000113379 6.79638e-05 0.106017)
(-0.00011572 2.4024e-05 0.106226)
(-0.00011817 1.17192e-05 0.103798)
(-7.66194e-05 2.62967e-05 0.0986831)
(-0.000175472 0.000175338 0.105491)
(-6.55782e-05 2.75909e-05 0.0926175)
(-1.32111e-05 5.09544e-05 0.0924837)
(-2.27776e-05 2.25743e-05 0.105636)
(-5.07912e-05 1.3803e-05 0.0924794)
(-1.05753e-05 -1.02791e-06 0.0740691)
(-1.72692e-06 -5.71809e-06 0.0740143)
(2.23612e-07 1.08117e-05 0.0738985)
(-0.000174467 0.000174153 0.105607)
(-5.90535e-05 2.58933e-05 0.092337)
(-1.09159e-05 -2.36977e-07 0.0738997)
(-0.000114026 5.62478e-06 0.0975683)
(-5.67245e-05 -1.13779e-05 0.0865531)
(-8.6456e-05 5.48209e-06 0.0974548)
(-3.43638e-05 -1.30031e-05 0.086422)
(-0.000170641 -1.08032e-05 0.103718)
(-0.000115717 -2.43114e-05 0.106226)
(-0.000113952 -6.84736e-05 0.105938)
(-0.000113382 -6.80923e-05 0.106017)
(-7.61935e-05 -2.5937e-05 0.0986843)
(-0.000115078 -4.12554e-05 0.0987116)
(-0.000118156 -1.20192e-05 0.103798)
(-3.3904e-05 1.28446e-05 0.0864222)
(-5.69555e-05 1.1581e-05 0.0865528)
(-8.6509e-05 -5.79037e-06 0.0974545)
(-0.000115125 2.41547e-05 0.106314)
(-0.000166691 1.07305e-05 0.103712)
(-0.000111305 3.84713e-05 0.0985073)
(-0.000108382 5.32291e-06 0.0973225)
(-5.29708e-05 -1.0377e-05 0.0862848)
(-0.000112731 -6.76286e-05 0.106095)
(-0.000111987 -3.91113e-05 0.098507)
(-0.00016678 -1.10626e-05 0.103712)
(-0.000108481 -5.56705e-06 0.0973225)
(5.35569e-06 9.75838e-05 0.0979457)
(4.88341e-06 0.000125826 0.0980527)
(-1.41176e-05 4.27237e-05 0.0869792)
(6.6133e-06 2.34231e-06 0.0743706)
(9.75401e-05 5.50167e-06 0.0979447)
(4.26442e-05 -1.39636e-05 0.0869787)
(-7.38558e-05 -2.44384e-05 0.106186)
(7.40751e-05 7.4073e-05 0.105851)
(-7.40778e-05 7.40258e-05 0.105851)
(7.40243e-05 -7.40698e-05 0.105851)
(-7.41048e-05 -7.41134e-05 0.105851)
(7.31233e-05 7.31855e-05 0.106135)
(7.27223e-05 -7.27168e-05 0.106135)
(-0.000125795 1.20171e-05 0.103788)
(-0.000115846 6.92642e-05 0.105697)
(-8.24415e-05 3.06667e-05 0.0990904)
(-0.00011862 2.47537e-05 0.105869)
(1.12399e-05 4.36471e-07 0.0744361)
(2.11119e-06 7.14788e-06 0.0743691)
(1.18398e-05 -0.000125675 0.103788)
(2.4776e-05 -0.000119386 0.105779)
(4.64014e-05 -0.000125438 0.0991152)
(6.91213e-05 -0.000115541 0.105697)
(1.12363e-05 -0.000179431 0.1037)
(2.49423e-05 -0.00011854 0.10587)
(3.09774e-05 -8.19065e-05 0.0990913)
(-3.04552e-05 -3.06048e-05 0.105381)
(-5.94446e-05 -1.60827e-05 0.0930668)
(-1.56833e-05 -5.95028e-05 0.0930627)
(5.73489e-06 8.64619e-05 0.0974561)
(-1.12006e-05 5.66999e-05 0.0865532)
(5.45399e-06 0.000114055 0.0975676)
(-1.30437e-05 3.43757e-05 0.0864225)
(8.6389e-05 5.43181e-06 0.0974553)
(5.66752e-05 -1.11538e-05 0.0865532)
(0.000114108 5.71923e-06 0.0975677)
(3.43761e-05 -1.30677e-05 0.0864219)
(-7.35238e-05 -2.44953e-05 0.106283)
(7.29205e-05 7.28975e-05 0.106229)
(7.29302e-05 -7.29247e-05 0.106229)
(1.09724e-05 8.03155e-07 0.0740682)
(1.99855e-06 5.89223e-06 0.0740143)
(1.22123e-05 -0.000118086 0.103798)
(2.45828e-05 -0.000116416 0.106138)
(4.10959e-05 -0.000115039 0.0987123)
(6.82432e-05 -0.000113394 0.106017)
(1.06432e-05 -0.000170664 0.103718)
(2.4547e-05 -0.000115746 0.106226)
(2.54762e-05 -7.58115e-05 0.0986848)
(-2.33602e-05 -2.31143e-05 0.105637)
(-5.1108e-05 -1.42257e-05 0.0924821)
(-6.49481e-05 -2.72517e-05 0.0926175)
(-2.67759e-05 -6.49765e-05 0.0926158)
(-1.44914e-05 -5.08574e-05 0.0924795)
(-6.71016e-06 2.12994e-06 0.0743698)
(2.03486e-06 -6.66862e-06 0.0743681)
(2.92691e-05 2.91949e-05 0.105381)
(1.67539e-05 5.87715e-05 0.0930683)
(5.86503e-05 1.67222e-05 0.0930652)
(-6.31999e-06 2.13995e-06 0.0741876)
(-9.41498e-07 1.09395e-05 0.0742478)
(2.15471e-06 -6.26032e-06 0.0741858)
(1.08447e-05 -9.89949e-07 0.0742466)
(0.00017548 0.000175317 0.105368)
(1.51462e-05 5.34266e-05 0.0927713)
(5.32694e-05 1.51026e-05 0.092768)
(2.92575e-05 6.9175e-05 0.0929124)
(6.9301e-05 2.92768e-05 0.09291)
(-5.35102e-06 9.75931e-05 0.0979446)
(1.20534e-05 6.57352e-05 0.0871287)
(-4.95709e-06 0.000125792 0.098053)
(1.40752e-05 4.26933e-05 0.0869792)
(1.19781e-05 0.000125884 0.103788)
(2.48799e-05 0.000119325 0.105779)
(6.91525e-05 0.000115698 0.105697)
(1.09435e-05 0.00017923 0.103699)
(3.09248e-05 8.2792e-05 0.0990912)
(2.48238e-05 0.000118578 0.105869)
(-1.19964e-05 0.000125917 0.103788)
(-4.59783e-05 0.000124942 0.0991131)
(-2.48245e-05 0.000119335 0.105779)
(-6.93553e-05 0.000115805 0.105696)
(-1.10792e-05 0.000179199 0.103699)
(-3.11226e-05 8.28786e-05 0.0990902)
(-2.48139e-05 0.000118611 0.105869)
(5.31602e-06 0.000119801 0.0978114)
(-1.34733e-05 3.82993e-05 0.0866939)
(-1.17897e-05 6.10838e-05 0.0868343)
(5.52944e-06 9.1979e-05 0.0977018)
(1.35705e-05 3.813e-05 0.0866944)
(-5.22779e-06 0.000119823 0.0978117)
(1.1811e-05 6.11208e-05 0.086833)
(-5.66728e-06 9.19848e-05 0.0977011)
(1.10884e-05 0.000174888 0.103714)
(6.89196e-05 0.000115196 0.105778)
(2.83841e-05 7.88232e-05 0.0988895)
(2.46126e-05 0.000117156 0.106049)
(4.33569e-05 0.000120105 0.0989146)
(2.46293e-05 0.000117873 0.10596)
(1.18975e-05 0.000121904 0.103798)
(-6.86685e-05 0.000114561 0.105859)
(-1.10175e-05 0.000174884 0.103713)
(-6.92569e-05 0.000115349 0.105778)
(-2.45657e-05 0.000117137 0.106049)
(-4.33036e-05 0.000119785 0.0989132)
(-2.47078e-05 0.000117903 0.10596)
(-1.20546e-05 0.00012191 0.103799)
(-2.92375e-05 2.91801e-05 0.105381)
(-1.74156e-05 5.86109e-05 0.0930686)
(-5.82793e-05 1.64184e-05 0.0930669)
(-2.28047e-06 -6.71449e-06 0.074369)
(6.42223e-06 1.89679e-06 0.0741892)
(9.97121e-07 1.11555e-05 0.0742452)
(-2.67109e-05 2.67247e-05 0.105511)
(-5.42486e-05 1.53818e-05 0.0927655)
(-0.000175831 0.000175558 0.105368)
(-2.91853e-05 6.82253e-05 0.0929086)
(-6.85818e-05 2.88507e-05 0.0929147)
(-1.89701e-06 -6.4345e-06 0.0741865)
(-1.11311e-05 -1.08569e-06 0.0742473)
(0.00012585 1.21343e-05 0.103788)
(0.000115618 6.91341e-05 0.105697)
(8.26835e-05 3.07401e-05 0.09909)
(0.000118552 2.48284e-05 0.10587)
(9.75082e-05 -5.30127e-06 0.097945)
(6.562e-05 1.16971e-05 0.0871291)
(0.000125914 -5.09518e-06 0.0980526)
(4.25688e-05 1.42543e-05 0.0869788)
(0.000125771 -1.18913e-05 0.103787)
(0.000119388 -2.48328e-05 0.105779)
(0.000125425 -4.62747e-05 0.0991137)
(0.000115595 -6.91983e-05 0.105697)
(0.000179331 -1.12149e-05 0.1037)
(0.000118548 -2.49824e-05 0.10587)
(8.19227e-05 -3.10831e-05 0.09909)
(0.000119889 5.30062e-06 0.0978119)
(3.83178e-05 -1.3422e-05 0.0866932)
(6.095e-05 -1.17339e-05 0.0868344)
(9.19524e-05 5.73873e-06 0.0977009)
(0.000174922 1.1132e-05 0.103714)
(0.000115101 6.89444e-05 0.105778)
(7.88162e-05 2.83746e-05 0.098888)
(0.000117121 2.46534e-05 0.106049)
(0.000120042 4.34123e-05 0.0989147)
(0.000117813 2.47106e-05 0.10596)
(0.000121959 1.20253e-05 0.103798)
(0.000119739 -5.35527e-06 0.0978113)
(3.83616e-05 1.34064e-05 0.0866925)
(6.10003e-05 1.21099e-05 0.0868342)
(9.20969e-05 -5.25433e-06 0.097701)
(0.000174844 -1.11113e-05 0.103714)
(0.000114652 -6.81801e-05 0.105779)
(0.000117082 -2.40934e-05 0.106049)
(8.0469e-05 -2.88714e-05 0.0988878)
(0.000117739 -2.45649e-05 0.10596)
(0.000119779 -4.31639e-05 0.0989135)
(0.000122084 -1.17084e-05 0.103798)
(-9.74708e-05 5.47629e-06 0.0979446)
(-4.28248e-05 -1.40008e-05 0.0869795)
(-0.000125673 -1.20852e-05 0.103787)
(-0.000115722 -6.94184e-05 0.105697)
(-0.000118597 -2.51674e-05 0.10587)
(-8.19939e-05 -3.08499e-05 0.0990904)
(-9.7361e-05 -5.44755e-06 0.0979442)
(-4.27604e-05 1.44136e-05 0.086979)
(-0.00011712 2.46227e-05 0.106049)
(-0.000121841 1.19737e-05 0.103798)
(-7.87741e-05 2.86665e-05 0.0988875)
(-0.00017494 1.10905e-05 0.103714)
(-0.000115309 6.91751e-05 0.105778)
(-0.000119547 4.31015e-05 0.0989156)
(-0.000117888 2.47556e-05 0.10596)
(-9.18443e-05 5.65776e-06 0.0977008)