/*--------------------------------*- C++ -*----------------------------------*\
| =========                 |                                                 |
| \\      /  F ield         | OpenFOAM: The Open Source CFD Toolbox           |
|  \\    /   O peration     | Version:  v2006                                 |
|   \\  /    A nd           | Website:  www.openfoam.com                      |
|    \\/     M anipulation  |                                                 |
\*---------------------------------------------------------------------------*/
FoamFile
{
    version     2.0;
    format      ascii;
    class       volScalarField;
    location    "125";
    object      epsilon;
}
// * * * * * * * * * * * * * * * * * * * * * * * * * * * * * * * * * * * * * //

dimensions      [0 2 -3 0 0 0 0];


internalField   nonuniform List<scalar> 
14258
(
3.84987e-06
8.89751e-06
3.85002e-06
8.89874e-06
1.82775e-05
1.828e-05
5.24717e-07
5.21699e-06
5.21859e-06
1.50968e-06
3.11856e-07
3.04716e-06
1.78127e-07
1.50977e-06
3.11753e-07
3.04764e-06
1.78127e-07
3.84994e-06
1.50973e-06
1.78134e-07
1.21035e-05
3.85099e-06
1.07048e-05
4.57151e-06
1.0705e-05
4.57215e-06
1.21034e-05
2.2119e-05
7.10631e-06
8.8978e-06
7.10757e-06
2.21215e-05
1.21038e-05
3.85114e-06
4.57161e-06
1.07052e-05
4.57222e-06
1.07054e-05
1.21037e-05
2.21198e-05
7.1069e-06
8.89903e-06
7.10783e-06
2.21222e-05
1.82764e-05
1.82788e-05
9.6384e-06
2.16958e-05
2.16952e-05
2.1694e-05
2.16934e-05
9.63698e-06
4.13955e-06
9.11326e-06
5.21806e-06
2.25135e-06
9.11343e-06
4.13838e-06
2.25207e-06
4.14623e-06
9.11826e-06
5.21963e-06
2.25278e-06
9.11842e-06
4.14505e-06
2.25356e-06
1.21038e-05
3.85126e-06
1.0705e-05
4.57145e-06
1.07052e-05
4.57223e-06
1.21037e-05
2.21198e-05
7.10523e-06
7.10628e-06
2.21223e-05
2.07132e-06
5.2659e-07
1.07765e-06
1.07802e-06
2.07023e-06
1.0789e-06
1.07926e-06
6.9552e-07
1.51062e-06
1.80765e-06
5.76343e-07
1.80886e-06
5.77291e-07
6.93945e-07
9.26562e-07
2.38126e-06
3.04841e-06
1.34356e-06
2.38272e-06
1.34458e-06
9.24876e-07
6.9561e-07
1.51071e-06
1.80769e-06
5.76375e-07
1.8089e-06
5.77326e-07
6.94019e-07
9.26676e-07
2.38138e-06
3.04888e-06
1.34399e-06
2.38281e-06
1.345e-06
9.24978e-07
6.95557e-07
1.51066e-06
5.76353e-07
1.8076e-06
5.77297e-07
1.80882e-06
6.93977e-07
9.2669e-07
2.38106e-06
2.38253e-06
9.24992e-07
3.13322e-07
1.78772e-07
5.28205e-07
1.78783e-07
3.84426e-06
3.13234e-07
5.26497e-07
1.82751e-05
3.13222e-07
1.78779e-07
3.04494e-06
5.28129e-07
5.21506e-06
1.82718e-05
8.8942e-06
3.13384e-07
1.78772e-07
1.50842e-06
5.21522e-06
5.21464e-06
1.82739e-05
1.508e-06
3.04446e-06
3.84436e-06
8.89444e-06
1.50796e-06
3.135e-07
3.04466e-06
8.89438e-06
3.0444e-06
8.89425e-06
5.21501e-06
5.21503e-06
1.82748e-05
1.78778e-07
3.04489e-06
1.50839e-06
3.84442e-06
8.89402e-06
3.84438e-06
1.82728e-05
4.14048e-06
5.21476e-06
9.11349e-06
2.24974e-06
1.20978e-05
1.07004e-05
4.56566e-06
3.84434e-06
1.20984e-05
1.07e-05
4.56558e-06
1.82729e-05
1.82739e-05
9.63539e-06
2.16906e-05
2.1693e-05
4.1392e-06
9.11246e-06
2.25074e-06
5.21449e-06
2.24993e-06
9.11269e-06
4.1384e-06
1.82737e-05
2.21127e-05
7.10108e-06
8.89439e-06
7.10077e-06
2.21086e-05
4.13981e-06
2.24981e-06
9.11235e-06
5.21477e-06
4.13843e-06
2.24959e-06
9.1131e-06
4.56591e-06
1.07006e-05
1.20982e-05
7.10077e-06
2.21127e-05
2.21094e-05
7.0993e-06
8.8941e-06
2.21133e-05
7.09935e-06
2.21103e-05
8.89406e-06
7.09953e-06
7.0996e-06
2.21142e-05
4.13857e-06
2.25084e-06
5.21519e-06
9.11357e-06
4.1387e-06
2.25103e-06
9.11293e-06
4.13935e-06
2.24944e-06
5.21531e-06
9.11263e-06
4.13873e-06
2.2497e-06
9.11267e-06
9.63338e-06
2.16923e-05
2.16879e-05
9.63296e-06
2.16893e-05
2.16853e-05
1.82728e-05
1.2098e-05
3.84432e-06
4.56583e-06
1.07e-05
4.56579e-06
1.20973e-05
1.07004e-05
2.21142e-05
7.09957e-06
8.89433e-06
2.21103e-05
7.09961e-06
1.20988e-05
3.8443e-06
4.56565e-06
1.07001e-05
1.20982e-05
4.56576e-06
1.07005e-05
1.82748e-05
2.06823e-06
5.2639e-07
1.07951e-06
1.07841e-06
1.07771e-06
2.06859e-06
1.07736e-06
2.06867e-06
1.07843e-06
5.28187e-07
1.07729e-06
2.06822e-06
1.07954e-06
1.07834e-06
9.25818e-07
1.34471e-06
2.37871e-06
3.04438e-06
1.34354e-06
2.37806e-06
9.27467e-07
2.0682e-06
1.07841e-06
1.07933e-06
5.26393e-07
1.07771e-06
2.06853e-06
1.07729e-06
6.95719e-07
1.50797e-06
5.79327e-07
1.80572e-06
6.97324e-07
5.78341e-07
1.80513e-06
5.78344e-07
1.80527e-06
6.95722e-07
1.34369e-06
2.37808e-06
9.25828e-07
6.97344e-07
5.7835e-07
1.80518e-06
1.50839e-06
6.95733e-07
5.7933e-07
1.8057e-06
9.27465e-07
2.37784e-06
1.34401e-06
3.04514e-06
9.25894e-07
2.37839e-06
1.345e-06
9.27332e-07
1.34343e-06
3.04484e-06
2.37762e-06
2.37827e-06
1.34443e-06
9.25701e-07
9.25733e-07
1.34444e-06
2.37827e-06
3.04452e-06
1.34359e-06
9.27317e-07
2.37771e-06
6.95725e-07
1.50799e-06
5.79332e-07
1.80565e-06
5.78353e-07
6.97313e-07
1.80517e-06
3.84435e-06
1.50843e-06
3.84445e-06
1.5084e-06
3.04503e-06
8.89406e-06
5.21538e-06
1.82729e-05
1.20984e-05
1.07e-05
4.56556e-06
3.84427e-06
1.07004e-05
4.56567e-06
1.20978e-05
1.20982e-05
4.56588e-06
1.07002e-05
3.84441e-06
4.5659e-06
1.07006e-05
1.20975e-05
2.21133e-05
7.09929e-06
8.89421e-06
7.09928e-06
2.21094e-05
4.13916e-06
2.25116e-06
5.21455e-06
9.11315e-06
2.2498e-06
4.13881e-06
9.11268e-06
9.6356e-06
2.16894e-05
2.16856e-05
9.63273e-06
2.16927e-05
2.16902e-05
1.82746e-05
6.95697e-07
5.79324e-07
1.8058e-06
1.50808e-06
1.80531e-06
5.78341e-07
6.97319e-07
6.95719e-07
5.79339e-07
1.80573e-06
1.50799e-06
5.7835e-07
1.80522e-06
6.9734e-07
9.25861e-07
2.37845e-06
1.34492e-06
3.04446e-06
2.37785e-06
1.34368e-06
9.27505e-07
1.82747e-05
1.82771e-05
5.26348e-07
5.21681e-06
5.21838e-06
3.84937e-06
8.89656e-06
3.84939e-06
8.89662e-06
1.50998e-06
3.11901e-07
3.04725e-06
1.78059e-07
1.5101e-06
3.11943e-07
3.04762e-06
1.78058e-07
1.82765e-05
5.2648e-07
5.2184e-06
5.21677e-06
1.82751e-05
3.84955e-06
8.89779e-06
1.51009e-06
3.11808e-07
3.04771e-06
1.78061e-07
3.8496e-06
8.89733e-06
1.51003e-06
3.11998e-07
1.78067e-07
3.04782e-06
3.11872e-07
3.04743e-06
8.89716e-06
1.82775e-05
5.26513e-07
5.21873e-06
5.21709e-06
1.82757e-05
1.51024e-06
3.11848e-07
1.78058e-07
3.04752e-06
3.84958e-06
8.89733e-06
1.8276e-05
1.82784e-05
9.63558e-06
2.1692e-05
2.16914e-05
9.63668e-06
2.16941e-05
2.16935e-05
4.13733e-06
5.21599e-06
9.1124e-06
2.25133e-06
4.13822e-06
9.11232e-06
2.25071e-06
4.144e-06
5.21759e-06
9.11738e-06
2.25278e-06
4.1449e-06
9.11733e-06
2.25214e-06
1.21021e-05
3.84839e-06
1.07037e-05
4.57052e-06
1.21021e-05
1.07036e-05
4.57e-06
2.21191e-05
8.89635e-06
7.10581e-06
2.21164e-05
7.10473e-06
1.21025e-05
3.8484e-06
1.07036e-05
4.57048e-06
1.21025e-05
1.07035e-05
4.56994e-06
2.21207e-05
8.89627e-06
7.10472e-06
2.2118e-05
7.10376e-06
1.82776e-05
9.63599e-06
2.16915e-05
2.16927e-05
9.63718e-06
2.16934e-05
2.16952e-05
4.14479e-06
5.21723e-06
9.11713e-06
2.25254e-06
2.25235e-06
4.14469e-06
9.11677e-06
4.13731e-06
5.21598e-06
9.11293e-06
2.25157e-06
4.13855e-06
9.11315e-06
2.25084e-06
1.82767e-05
1.21024e-05
3.84857e-06
4.57064e-06
1.07041e-05
1.21024e-05
4.57013e-06
1.0704e-05
2.21198e-05
8.89759e-06
7.10608e-06
2.21171e-05
7.10532e-06
1.21024e-05
3.84849e-06
1.07039e-05
4.57059e-06
1.21024e-05
1.07038e-05
4.56995e-06
2.21199e-05
8.89709e-06
7.10453e-06
2.21171e-05
7.10364e-06
2.2119e-05
8.8971e-06
7.10613e-06
2.2116e-05
7.10484e-06
1.82789e-05
9.63592e-06
2.16919e-05
2.16921e-05
9.63706e-06
2.16939e-05
2.16942e-05
4.14426e-06
5.2177e-06
9.11742e-06
2.25294e-06
2.2523e-06
4.14526e-06
9.11735e-06
4.13746e-06
9.11241e-06
2.25148e-06
5.21619e-06
4.13849e-06
9.11235e-06
2.25079e-06
1.82771e-05
4.57068e-06
1.0704e-05
1.21018e-05
7.10612e-06
2.21158e-05
1.2363e-07
9.20642e-08
9.20557e-08
7.86175e-08
1.23639e-07
9.20657e-08
9.2059e-08
7.86182e-08
1.23643e-07
9.2068e-08
9.20595e-08
7.86198e-08
1.23644e-07
9.20666e-08
9.20617e-08
7.86198e-08
2.06968e-06
5.24683e-07
1.07865e-06
1.07902e-06
2.07052e-06
1.07756e-06
1.07792e-06
6.94119e-07
1.50929e-06
1.80798e-06
5.77443e-07
6.95642e-07
1.80707e-06
5.7652e-07
9.24861e-07
3.04622e-06
2.38163e-06
1.34447e-06
1.34345e-06
9.26459e-07
2.38044e-06
6.94055e-07
1.50917e-06
1.80805e-06
5.77473e-07
6.95672e-07
1.80687e-06
5.76514e-07
9.24854e-07
3.04635e-06
2.38149e-06
1.34489e-06
9.26595e-07
2.38008e-06
1.3437e-06
2.0697e-06
5.24754e-07
1.07913e-06
1.07884e-06
1.07767e-06
2.07075e-06
1.0777e-06
6.94188e-07
1.50939e-06
1.80803e-06
5.77481e-07
6.95729e-07
1.80712e-06
5.76556e-07
9.24952e-07
3.0467e-06
2.38172e-06
1.34489e-06
1.34387e-06
9.26572e-07
2.38057e-06
6.9415e-07
1.50933e-06
5.77453e-07
1.80794e-06
6.9568e-07
5.7653e-07
1.80702e-06
9.24965e-07
3.04666e-06
2.38144e-06
1.34499e-06
9.26588e-07
2.38024e-06
1.34395e-06
9.24864e-07
3.04648e-06
2.38165e-06
1.3445e-06
9.26534e-07
1.34359e-06
2.38039e-06
2.06971e-06
5.24794e-07
1.07919e-06
1.07886e-06
1.07796e-06
2.07074e-06
1.07762e-06
5.77562e-07
1.80816e-06
6.95749e-07
2.38172e-06
1.34449e-06
9.26589e-07
1.82711e-05
1.8273e-05
5.27211e-07
5.2148e-06
5.21585e-06
3.84568e-06
8.89496e-06
6.9648e-07
3.1238e-07
3.04534e-06
1.78175e-07
3.84572e-06
5.78359e-07
1.78177e-07
1.82729e-05
1.82749e-05
9.63258e-06
2.16885e-05
2.16866e-05
2.16907e-05
2.16898e-05
9.63313e-06
4.13551e-06
9.11143e-06
2.24984e-06
5.21418e-06
9.11095e-06
4.13643e-06
2.2493e-06
4.14162e-06
9.11425e-06
2.25073e-06
5.2156e-06
9.11514e-06
2.25065e-06
4.14166e-06
1.20994e-05
4.56694e-06
1.07012e-05
3.84528e-06
4.56675e-06
1.07014e-05
1.2099e-05
2.21144e-05
7.10202e-06
8.89507e-06
7.10167e-06
2.21109e-05
1.20994e-05
1.07009e-05
3.84522e-06
4.56687e-06
1.07011e-05
4.56657e-06
1.2099e-05
1.23436e-07
1.50896e-06
1.50887e-06
3.04598e-06
3.8473e-06
1.50901e-06
3.12017e-07
1.78052e-07
3.84745e-06
5.2502e-07
1.78047e-07
3.11801e-07
5.25069e-07
1.82767e-05
5.2688e-07
9.14003e-08
3.12136e-07
1.5093e-06
1.5092e-06
3.04619e-06
3.84717e-06
1.50936e-06
3.84718e-06
9.17741e-08
9.17779e-08
9.17709e-08
1.82751e-05
3.12057e-07
3.04582e-06
1.82748e-05
1.82772e-05
5.21525e-06
5.21685e-06
5.24953e-07
3.8472e-06
8.89543e-06
3.84719e-06
8.89515e-06
3.04551e-06
3.12021e-07
1.78047e-07
3.04552e-06
1.78039e-07
3.11973e-07
1.82759e-05
5.21599e-06
5.24986e-07
5.21597e-06
1.82764e-05
8.89668e-06
3.84741e-06
1.50908e-06
3.11889e-07
1.78047e-07
8.89616e-06
3.12067e-07
1.78055e-07
3.04602e-06
1.78046e-07
3.04593e-06
1.50897e-06
8.89644e-06
3.84753e-06
3.12155e-07
1.50897e-06
3.04585e-06
8.89621e-06
1.82777e-05
5.21694e-06
5.21545e-06
1.82759e-05
3.11917e-07
3.04561e-06
1.7804e-07
8.89621e-06
5.21603e-06
5.21701e-06
5.21544e-06
1.82734e-05
8.89559e-06
3.84696e-06
8.89481e-06
3.84562e-06
8.89431e-06
1.82731e-05
1.82749e-05
8.89606e-06
3.84712e-06
3.84582e-06
8.89538e-06
9.1559e-08
9.14099e-08
1.78061e-07
3.04617e-06
1.50932e-06
3.1221e-07
3.04464e-06
1.82723e-05
1.82733e-05
1.82747e-05
1.82753e-05
5.21523e-06
5.21686e-06
5.26816e-07
5.25437e-07
5.21469e-06
5.21561e-06
3.84691e-06
8.89442e-06
3.84555e-06
8.89425e-06
3.0457e-06
3.12129e-07
1.78057e-07
1.50851e-06
3.12353e-07
3.0447e-06
1.78087e-07
3.04573e-06
1.78048e-07
3.1208e-07
1.50844e-06
3.1232e-07
3.04492e-06
1.78087e-07
3.84552e-06
8.89387e-06
3.84545e-06
1.50887e-06
3.12478e-07
3.04496e-06
1.78165e-07
1.50881e-06
1.78171e-07
5.21582e-06
5.26861e-07
5.21612e-06
5.25467e-07
5.21567e-06
5.21454e-06
1.8274e-05
1.82741e-05
1.50941e-06
3.12083e-07
1.78055e-07
6.94743e-07
3.12157e-07
3.04492e-06
1.78088e-07
8.89556e-06
8.89503e-06
3.84573e-06
3.12205e-07
1.7806e-07
3.04628e-06
9.25162e-07
3.12374e-07
5.77219e-07
1.78093e-07
8.89589e-06
3.84725e-06
8.89501e-06
1.50931e-06
9.63542e-06
2.16928e-05
2.16922e-05
2.16905e-05
2.16899e-05
9.63455e-06
9.6357e-06
2.16907e-05
2.16946e-05
2.16891e-05
2.1692e-05
9.63455e-06
1.21012e-05
1.07028e-05
4.56876e-06
3.84826e-06
1.07029e-05
4.56931e-06
1.21014e-05
1.21012e-05
1.0703e-05
4.56881e-06
3.84827e-06
1.0703e-05
4.56923e-06
1.21013e-05
1.82749e-05
9.63383e-06
2.16894e-05
2.16888e-05
9.63449e-06
2.16918e-05
2.16913e-05
9.63379e-06
2.16868e-05
2.16913e-05
9.63445e-06
2.16897e-05
2.16933e-05
1.21005e-05
1.07021e-05
4.56829e-06
3.8464e-06
1.21003e-05
1.07021e-05
4.56783e-06
1.21004e-05
1.07022e-05
4.56818e-06
3.84649e-06
1.21002e-05
1.07022e-05
4.56783e-06
1.82768e-05
1.82733e-05
1.82757e-05
4.13725e-06
9.11165e-06
2.25022e-06
5.21591e-06
9.11164e-06
2.25071e-06
4.13653e-06
4.14393e-06
9.11669e-06
2.25162e-06
5.21746e-06
9.11665e-06
2.25218e-06
4.14321e-06
1.21009e-05
1.07027e-05
4.56882e-06
3.84804e-06
1.07027e-05
4.56927e-06
1.21011e-05
2.21142e-05
7.10344e-06
8.89556e-06
7.10437e-06
2.21172e-05
1.21013e-05
1.07026e-05
4.56873e-06
3.848e-06
1.07026e-05
4.56912e-06
1.21015e-05
2.21158e-05
7.10242e-06
8.89543e-06
7.10315e-06
2.21187e-05
1.82746e-05
4.14209e-06
9.114e-06
2.25034e-06
5.21704e-06
2.25111e-06
9.11503e-06
4.14046e-06
4.13979e-06
9.11455e-06
2.25165e-06
5.21638e-06
9.11347e-06
2.25176e-06
4.13981e-06
1.82745e-05
2.21149e-05
7.10402e-06
8.8968e-06
7.10466e-06
2.21179e-05
1.21012e-05
4.56898e-06
1.07031e-05
3.8482e-06
4.56937e-06
1.07031e-05
1.21014e-05
2.2115e-05
7.10235e-06
8.89632e-06
7.10308e-06
2.2118e-05
2.21139e-05
7.10365e-06
8.89645e-06
7.1047e-06
2.21171e-05
1.21009e-05
4.56899e-06
1.07032e-05
3.84836e-06
4.56951e-06
1.07032e-05
1.2101e-05
2.2115e-05
7.10233e-06
8.89618e-06
7.10302e-06
2.2118e-05
1.82761e-05
4.14415e-06
2.25178e-06
5.21772e-06
9.11668e-06
2.25231e-06
9.11666e-06
4.14343e-06
4.13739e-06
2.25027e-06
5.21611e-06
9.1117e-06
9.11168e-06
2.25084e-06
4.13664e-06
9.63575e-06
2.16926e-05
2.16929e-05
2.16904e-05
2.16906e-05
9.63487e-06
1.82744e-05
1.21019e-05
3.84863e-06
4.57e-06
1.07039e-05
2.21136e-05
8.89634e-06
7.10346e-06
7.10463e-06
2.21169e-05
2.21188e-05
8.89712e-06
7.10471e-06
4.13991e-06
2.25187e-06
5.21642e-06
9.1141e-06
4.13989e-06
2.25211e-06
9.1131e-06
4.14284e-06
2.25179e-06
5.2164e-06
9.1161e-06
9.11618e-06
4.1434e-06
2.25137e-06
4.13605e-06
2.25032e-06
9.11112e-06
5.21494e-06
2.24986e-06
4.13664e-06
9.11121e-06
9.63413e-06
2.16893e-05
2.16895e-05
2.16917e-05
9.6348e-06
2.16919e-05
1.82751e-05
2.21154e-05
7.10347e-06
8.89556e-06
7.10249e-06
2.21119e-05
1.21002e-05
1.07019e-05
4.56826e-06
3.84631e-06
1.21e-05
1.0702e-05
4.56789e-06
2.21157e-05
7.10324e-06
8.89478e-06
2.21124e-05
7.10242e-06
1.20993e-05
3.84615e-06
1.07014e-05
4.5672e-06
1.07013e-05
4.56752e-06
1.20996e-05
2.21115e-05
8.89428e-06
7.10181e-06
7.10245e-06
2.21149e-05
1.82748e-05
1.82726e-05
2.21164e-05
7.10356e-06
8.89596e-06
2.21132e-05
7.10295e-06
1.21005e-05
4.56836e-06
1.07023e-05
3.84651e-06
1.21003e-05
4.56802e-06
1.07024e-05
1.20995e-05
3.84631e-06
4.56729e-06
1.07018e-05
4.56756e-06
1.07017e-05
1.20999e-05
2.21119e-05
8.89543e-06
7.10216e-06
7.10271e-06
2.21152e-05
1.82739e-05
1.82716e-05
1.82761e-05
1.82735e-05
4.13602e-06
9.1111e-06
2.25017e-06
5.21477e-06
4.13649e-06
9.11121e-06
2.24988e-06
4.14252e-06
9.11605e-06
2.25167e-06
5.21631e-06
4.14319e-06
9.11606e-06
2.25113e-06
9.63386e-06
2.16919e-05
2.16896e-05
2.16889e-05
2.16878e-05
9.63317e-06
4.13553e-06
5.21491e-06
9.11185e-06
2.25059e-06
9.11093e-06
2.2498e-06
4.1377e-06
4.14306e-06
5.21647e-06
9.11469e-06
2.2499e-06
9.11532e-06
2.25138e-06
4.14022e-06
1.21006e-05
1.07018e-05
4.5681e-06
3.84626e-06
1.21004e-05
1.07019e-05
4.56777e-06
2.21172e-05
7.10193e-06
8.89446e-06
2.2114e-05
7.1014e-06
1.20996e-05
3.84609e-06
1.07013e-05
4.56702e-06
1.07012e-05
4.56731e-06
1.21e-05
2.21127e-05
8.89406e-06
7.10066e-06
7.10112e-06
2.2116e-05
1.20991e-05
1.07008e-05
4.56693e-06
3.84509e-06
1.20987e-05
1.0701e-05
4.56667e-06
2.21141e-05
7.10184e-06
8.89394e-06
2.21106e-05
7.10135e-06
1.20995e-05
1.07007e-05
4.5667e-06
3.84503e-06
1.20991e-05
1.07009e-05
4.56653e-06
4.13883e-06
9.11313e-06
2.25033e-06
5.21519e-06
4.14002e-06
9.11341e-06
2.24982e-06
4.14018e-06
9.11429e-06
2.2514e-06
5.21535e-06
4.13984e-06
2.25128e-06
9.11419e-06
9.63377e-06
2.16906e-05
2.16911e-05
2.16872e-05
2.16893e-05
9.63301e-06
4.14146e-06
5.21592e-06
9.11502e-06
2.25114e-06
9.11387e-06
2.25119e-06
4.14141e-06
4.13794e-06
5.2154e-06
9.11192e-06
2.24937e-06
2.25009e-06
9.11278e-06
4.13656e-06
1.82753e-05
1.82726e-05
2.21164e-05
7.10193e-06
8.8955e-06
2.21132e-05
7.10134e-06
2.21119e-05
8.89502e-06
7.10059e-06
7.10106e-06
2.21153e-05
1.20995e-05
3.84636e-06
4.5671e-06
1.07015e-05
1.07014e-05
4.56749e-06
1.20999e-05
2.21156e-05
7.10369e-06
8.89569e-06
2.21122e-05
7.10262e-06
1.21002e-05
4.56846e-06
1.07024e-05
3.84658e-06
1.20999e-05
4.56799e-06
1.07025e-05
2.21109e-05
8.89511e-06
7.10186e-06
7.1027e-06
2.21145e-05
1.07853e-06
2.06885e-06
1.0787e-06
5.25555e-07
1.07734e-06
2.06827e-06
1.07773e-06
5.78379e-07
1.50896e-06
1.80646e-06
6.94929e-07
1.50843e-06
1.80579e-06
5.77443e-07
9.26789e-07
1.34447e-06
2.37938e-06
9.2522e-07
3.04477e-06
1.34354e-06
2.37858e-06
1.50891e-06
6.96448e-07
1.80635e-06
6.94909e-07
1.50838e-06
5.7743e-07
1.80568e-06
9.17711e-08
9.17655e-08
7.82438e-08
6.9583e-07
1.80663e-06
5.7675e-07
1.50962e-06
1.80744e-06
5.7767e-07
6.94314e-07
6.95738e-07
1.80641e-06
5.76702e-07
1.50951e-06
1.80722e-06
5.77628e-07
6.94201e-07
9.2658e-07
2.37989e-06
1.34377e-06
3.04683e-06
1.3448e-06
2.38094e-06
9.24977e-07
6.95863e-07
5.76765e-07
1.80657e-06
1.50966e-06
5.77682e-07
1.80741e-06
6.94337e-07
2.07e-06
1.0779e-06
5.26578e-07
1.07757e-06
1.07898e-06
1.07865e-06
2.06925e-06
2.07015e-06
1.07834e-06
5.26686e-07
1.07713e-06
2.06921e-06
1.07943e-06
1.07838e-06
2.06888e-06
1.07891e-06
5.25315e-07
1.07859e-06
1.07751e-06
2.06957e-06
1.07784e-06
1.23258e-07
1.23324e-07
9.15582e-08
9.15486e-08
9.14055e-08
7.77319e-08
7.79523e-08
6.94515e-07
1.80703e-06
5.77893e-07
1.50871e-06
6.96037e-07
1.80628e-06
5.76975e-07
6.9441e-07
1.80678e-06
5.7785e-07
1.50862e-06
6.95934e-07
1.80607e-06
5.76931e-07
9.25055e-07
2.38031e-06
1.34469e-06
3.0454e-06
9.26636e-07
2.37931e-06
1.34364e-06
6.94535e-07
5.77908e-07
1.80699e-06
1.50874e-06
6.9607e-07
5.76987e-07
1.80619e-06
1.23452e-07
9.17689e-08
7.82441e-08
1.23449e-07
9.17706e-08
7.82458e-08
1.23452e-07
9.17761e-08
7.82456e-08
9.24938e-07
1.34431e-06
2.38012e-06
3.04509e-06
9.26514e-07
1.34328e-06
2.37911e-06
2.06998e-06
1.0775e-06
1.07786e-06
5.26496e-07
1.07858e-06
1.07895e-06
2.0692e-06
9.26468e-07
2.37976e-06
1.34337e-06
3.04635e-06
1.34438e-06
2.38085e-06
9.24894e-07
9.26414e-07
2.37934e-06
1.34335e-06
3.0465e-06
2.38046e-06
1.34447e-06
9.24777e-07
2.06999e-06
1.07703e-06
1.07834e-06
5.26545e-07
1.07821e-06
1.07932e-06
2.06924e-06
6.95914e-07
1.80669e-06
5.76789e-07
1.50973e-06
1.80751e-06
5.77711e-07
6.94371e-07
9.26589e-07
2.37955e-06
1.34387e-06
3.04689e-06
2.38065e-06
1.34489e-06
9.24993e-07
9.26501e-07
1.34378e-06
2.3798e-06
3.0467e-06
1.3447e-06
2.38081e-06
9.24928e-07
6.95895e-07
5.76798e-07
1.80652e-06
1.50982e-06
1.80754e-06
5.77744e-07
6.94326e-07
6.95925e-07
5.76808e-07
1.8065e-06
1.5098e-06
5.77748e-07
1.80752e-06
6.94356e-07
9.26662e-07
1.34379e-06
2.37946e-06
3.04674e-06
2.38067e-06
1.34473e-06
9.25036e-07
6.94155e-07
1.50933e-06
5.76607e-07
1.807e-06
9.26485e-07
1.34337e-06
3.04648e-06
2.37967e-06
9.24874e-07
1.34439e-06
2.38076e-06
9.24884e-07
3.04635e-06
1.34345e-06
2.38034e-06
1.23336e-07
9.1553e-08
1.23275e-07
9.14086e-08
9.14032e-08
7.77325e-08
7.79529e-08
9.15551e-08
1.23336e-07
9.15606e-08
9.14048e-08
1.23278e-07
7.77338e-08
7.79547e-08
9.25025e-07
1.3447e-06
2.38024e-06
3.04522e-06
9.26604e-07
1.34358e-06
2.37919e-06
6.94509e-07
5.77919e-07
1.80692e-06
1.50873e-06
6.96044e-07
1.80616e-06
5.76996e-07
9.26636e-07
3.04545e-06
2.37871e-06
1.34324e-06
1.34437e-06
2.37965e-06
9.25029e-07
2.0688e-06
1.07851e-06
1.07886e-06
5.25242e-07
2.06951e-06
1.07747e-06
1.07774e-06
1.07788e-06
2.06847e-06
1.07712e-06
2.06913e-06
5.27068e-07
1.0786e-06
1.07879e-06
9.24973e-07
2.38019e-06
1.34428e-06
3.045e-06
9.26528e-07
2.37921e-06
1.34332e-06
6.96233e-07
1.50907e-06
1.806e-06
5.77202e-07
1.8067e-06
5.78128e-07
6.94702e-07
1.34346e-06
9.26648e-07
3.04529e-06
2.37882e-06
2.37969e-06
1.34432e-06
9.25108e-07
9.24847e-07
2.37974e-06
1.34429e-06
3.04507e-06
9.26414e-07
2.37883e-06
1.34337e-06
6.96151e-07
1.50898e-06
1.80582e-06
5.77169e-07
1.8065e-06
5.78089e-07
6.9463e-07
9.26568e-07
3.04548e-06
2.37849e-06
1.34364e-06
2.37931e-06
9.25026e-07
1.3445e-06
6.94888e-07
1.80642e-06
5.78331e-07
1.50834e-06
6.96427e-07
1.80574e-06
5.77401e-07
1.34432e-06
1.34325e-06
3.04434e-06
9.2519e-07
2.37931e-06
9.26771e-07
2.37846e-06
6.94837e-07
1.80626e-06
5.78299e-07
1.50828e-06
6.96371e-07
1.80562e-06
5.77369e-07
2.06887e-06
1.0781e-06
1.07933e-06
5.25287e-07
2.06956e-06
1.07806e-06
1.07702e-06
2.06921e-06
5.27099e-07
1.07784e-06
1.07734e-06
1.07856e-06
1.07878e-06
2.06856e-06
6.94578e-07
1.80708e-06
5.77935e-07
1.5088e-06
6.96117e-07
1.80632e-06
5.77014e-07
5.77238e-07
1.5086e-06
1.80602e-06
6.9629e-07
1.50916e-06
1.80674e-06
5.78162e-07
9.251e-07
1.34341e-06
2.37885e-06
9.26711e-07
3.04567e-06
2.3798e-06
1.34456e-06
9.25071e-07
2.38e-06
1.3448e-06
3.0455e-06
9.26645e-07
1.34379e-06
2.37899e-06
2.37857e-06
3.04513e-06
9.26732e-07
3.04581e-06
1.34374e-06
1.34475e-06
2.37948e-06
1.50854e-06
6.94723e-07
1.8059e-06
6.96257e-07
1.50912e-06
5.78142e-07
1.80664e-06
6.94522e-07
5.77921e-07
1.80691e-06
1.50871e-06
6.96055e-07
5.76999e-07
1.80612e-06
5.21517e-06
1.23252e-07
3.12665e-07
3.12688e-07
5.27531e-07
1.23364e-07
3.13036e-07
3.13069e-07
5.27966e-07
1.2342e-07
3.13173e-07
3.132e-07
5.28165e-07
1.23436e-07
3.13215e-07
3.13236e-07
5.28147e-07
1.23441e-07
3.13221e-07
3.13243e-07
5.28166e-07
1.23445e-07
3.13229e-07
3.13253e-07
5.28179e-07
1.23461e-07
3.13238e-07
3.13266e-07
5.28188e-07
1.23468e-07
3.13291e-07
5.25669e-07
3.12551e-07
3.12689e-07
5.27439e-07
5.26122e-07
3.12774e-07
3.12801e-07
3.13091e-07
3.13132e-07
5.27474e-07
5.26138e-07
3.127e-07
3.12834e-07
3.13014e-07
3.13153e-07
3.12846e-07
3.12968e-07
3.13158e-07
5.27492e-07
5.26167e-07
3.12687e-07
3.13002e-07
3.13015e-07
5.26245e-07
5.27843e-07
5.26324e-07
3.13157e-07
3.13199e-07
3.13276e-07
3.13318e-07
5.27872e-07
5.26341e-07
3.13077e-07
3.13217e-07
3.13189e-07
3.13336e-07
3.13223e-07
3.13152e-07
3.13338e-07
5.2789e-07
5.26368e-07
3.13083e-07
3.1318e-07
3.13208e-07
5.26458e-07
5.28027e-07
5.26323e-07
3.13295e-07
3.1334e-07
3.1333e-07
3.13376e-07
5.28056e-07
5.26354e-07
3.13207e-07
3.13354e-07
3.13233e-07
3.1339e-07
3.13356e-07
3.13211e-07
3.13376e-07
5.28074e-07
5.26369e-07
3.1323e-07
3.13233e-07
3.13264e-07
5.2646e-07
5.28012e-07
5.26326e-07
3.13335e-07
3.13381e-07
3.1334e-07
3.13385e-07
5.28056e-07
5.26353e-07
3.13233e-07
3.13392e-07
3.13238e-07
3.13397e-07
3.13376e-07
3.13219e-07
3.1338e-07
5.28062e-07
5.26377e-07
3.13269e-07
3.1324e-07
3.13275e-07
5.26467e-07
5.28024e-07
5.26357e-07
3.1334e-07
3.13385e-07
3.13351e-07
3.13391e-07
5.28064e-07
5.26371e-07
3.13238e-07
3.13397e-07
3.13246e-07
3.13406e-07
3.13379e-07
3.13227e-07
3.13382e-07
5.28079e-07
5.26405e-07
3.13275e-07
3.13249e-07
3.13283e-07
5.26484e-07
5.2805e-07
5.26381e-07
3.13351e-07
3.13391e-07
3.13363e-07
3.13398e-07
5.28078e-07
5.26392e-07
3.13246e-07
3.13406e-07
3.13256e-07
3.13416e-07
3.13382e-07
3.13234e-07
3.13383e-07
5.28101e-07
5.26432e-07
3.13284e-07
3.13263e-07
3.13294e-07
5.26496e-07
5.28075e-07
5.26434e-07
3.13365e-07
3.13398e-07
3.13385e-07
3.04433e-06
5.28095e-07
5.21506e-06
3.13259e-07
3.13417e-07
3.13278e-07
3.13428e-07
3.13383e-07
3.13297e-07
5.28129e-07
5.26468e-07
3.13293e-07
3.13287e-07
3.04476e-06
3.13429e-07
5.28181e-07
1.82718e-05
3.84431e-06
8.89338e-06
3.84471e-06
8.89347e-06
1.82726e-05
1.82745e-05
3.84444e-06
8.89459e-06
3.84485e-06
8.89468e-06
7.73841e-08
1.23267e-07
1.23268e-07
1.23339e-07
1.23346e-07
1.23351e-07
1.23354e-07
1.50806e-06
9.26844e-07
1.78366e-07
3.1278e-07
6.9668e-07
3.04409e-06
1.78447e-07
1.82735e-05
1.82754e-05
1.5081e-06
1.78367e-07
1.34418e-06
3.12813e-07
1.78448e-07
3.04418e-06
6.96763e-07
5.21419e-06
5.21569e-06
5.26064e-07
5.21392e-06
5.21544e-06
3.84409e-06
8.89318e-06
3.84426e-06
8.89344e-06
1.82725e-05
1.82747e-05
3.84418e-06
8.8944e-06
3.8443e-06
8.89466e-06
1.2337e-07
1.23376e-07
1.23378e-07
1.23411e-07
1.23418e-07
1.23423e-07
1.23428e-07
1.50795e-06
3.04454e-06
1.78617e-07
3.13084e-07
1.5084e-06
3.0441e-06
1.7865e-07
1.82733e-05
1.82754e-05
1.50801e-06
1.78624e-07
3.04465e-06
3.13114e-07
1.50846e-06
1.78658e-07
3.04421e-06
5.21411e-06
5.21565e-06
5.26358e-07
5.21398e-06
5.21552e-06
3.84407e-06
8.89329e-06
3.84423e-06
8.89357e-06
1.82728e-05
1.82749e-05
3.84416e-06
8.89451e-06
3.84425e-06
8.89478e-06
1.23426e-07
1.23432e-07
1.23437e-07
1.23434e-07
1.23441e-07
1.23447e-07
1.23452e-07
1.50797e-06
3.0446e-06
1.78715e-07
3.13186e-07
1.50837e-06
3.04416e-06
1.78724e-07
1.82735e-05
1.82757e-05
1.50799e-06
1.78723e-07
3.04473e-06
3.13213e-07
1.50844e-06
1.78733e-07
3.0443e-06
5.21424e-06
5.21577e-06
5.26484e-07
5.21409e-06
5.21562e-06
3.84412e-06
8.89335e-06
3.84424e-06
8.89358e-06
1.82728e-05
1.82749e-05
3.84419e-06
8.89457e-06
3.84426e-06
8.8948e-06
1.23443e-07
1.23449e-07
1.23453e-07
1.2344e-07
1.23446e-07
1.23453e-07
1.23457e-07
1.50786e-06
3.0447e-06
1.78744e-07
3.13216e-07
1.50835e-06
3.04427e-06
1.78746e-07
1.82737e-05
1.82758e-05
1.50785e-06
1.78752e-07
3.04485e-06
3.13236e-07
1.50831e-06
1.78755e-07
3.04438e-06
5.21429e-06
5.21583e-06
5.26448e-07
5.21412e-06
5.21567e-06
3.84411e-06
8.89335e-06
3.84427e-06
8.89359e-06
1.82729e-05
1.82749e-05
3.84418e-06
8.89457e-06
3.84428e-06
8.89481e-06
1.23447e-07
1.23454e-07
1.23458e-07
1.23444e-07
1.23449e-07
1.23457e-07
1.2346e-07
1.50784e-06
3.04469e-06
1.78748e-07
3.13221e-07
1.50822e-06
3.04421e-06
1.78748e-07
1.82737e-05
1.82759e-05
1.50793e-06
1.78758e-07
3.0448e-06
3.13243e-07
1.50834e-06
1.78758e-07
3.04435e-06
5.21432e-06
5.21588e-06
5.26482e-07
5.21414e-06
5.21573e-06
3.84416e-06
8.89336e-06
3.84428e-06
8.89361e-06
1.82729e-05
1.8275e-05
3.84424e-06
8.89458e-06
3.84429e-06
8.89483e-06
1.2345e-07
1.23458e-07
1.2346e-07
1.23448e-07
1.23452e-07
1.2346e-07
1.23462e-07
1.50785e-06
3.04471e-06
1.78752e-07
3.13229e-07
1.5083e-06
3.04423e-06
1.78752e-07
1.82738e-05
1.8276e-05
1.50785e-06
1.78762e-07
3.04479e-06
3.13253e-07
1.50827e-06
1.78762e-07
3.04431e-06
5.21433e-06
5.21593e-06
5.26491e-07
5.21413e-06
5.21578e-06
3.84423e-06
8.8934e-06
3.84431e-06
8.89366e-06
1.82729e-05
1.82748e-05
3.84433e-06
8.89461e-06
3.84439e-06
8.89487e-06
9.12396e-08
1.23448e-07
1.23453e-07
1.23461e-07
1.23462e-07
1.23454e-07
1.23459e-07
1.50794e-06
3.04469e-06
1.78756e-07
3.13235e-07
1.50828e-06
3.04429e-06
1.78759e-07
1.82739e-05
1.82759e-05
1.50796e-06
1.78768e-07
3.04481e-06
3.13274e-07
1.50838e-06
1.78769e-07
3.04434e-06
5.21435e-06
5.21595e-06
5.26487e-07
5.2141e-06
5.21576e-06
9.12378e-08
1.23453e-07
1.2346e-07
1.82738e-05
3.04484e-06
1.82727e-05
1.82751e-05
5.21403e-06
5.21561e-06
8.89491e-06
3.8449e-06
3.04468e-06
1.78274e-07
1.5083e-06
8.89447e-06
3.84483e-06
8.89459e-06
3.12537e-07
1.78277e-07
1.34469e-06
1.50825e-06
1.3437e-06
1.82706e-05
1.82725e-05
1.82729e-05
1.82749e-05
5.21416e-06
5.21575e-06
5.25958e-07
5.21394e-06
5.2155e-06
1.82725e-05
1.82704e-05
1.82749e-05
1.82728e-05
5.27705e-07
5.21396e-06
5.21551e-06
5.2141e-06
5.21567e-06
3.84424e-06
8.8934e-06
3.84465e-06
8.89348e-06
1.50802e-06
1.3442e-06
1.78364e-07
3.12898e-07
6.96728e-07
3.04408e-06
1.78457e-07
1.50798e-06
1.34466e-06
1.78368e-07
3.12933e-07
6.96694e-07
3.04444e-06
1.78453e-07
3.8444e-06
8.89342e-06
8.89321e-06
3.84413e-06
3.84434e-06
8.89343e-06
8.89322e-06
3.84407e-06
1.50842e-06
3.13006e-07
3.04407e-06
1.78584e-07
3.04452e-06
1.78519e-07
1.50795e-06
1.50838e-06
3.13046e-07
3.04443e-06
1.78581e-07
3.04488e-06
1.78523e-07
1.50793e-06
5.21546e-06
5.21419e-06
5.25968e-07
5.21525e-06
5.21392e-06
1.82711e-05
1.82729e-05
1.82746e-05
1.82725e-05
5.27728e-07
5.21529e-06
5.21391e-06
5.21542e-06
5.21407e-06
1.82729e-05
1.82709e-05
1.50811e-06
3.04508e-06
1.78372e-07
3.12827e-07
1.50868e-06
3.04456e-06
1.78454e-07
3.84437e-06
8.89415e-06
3.84488e-06
8.89425e-06
1.50806e-06
1.78375e-07
1.34467e-06
3.12961e-07
1.50862e-06
1.78457e-07
3.04456e-06
3.84445e-06
8.89463e-06
8.89442e-06
3.84424e-06
1.50851e-06
3.12931e-07
3.04454e-06
1.78583e-07
3.045e-06
1.78529e-07
1.50803e-06
3.84445e-06
8.8942e-06
8.89399e-06
3.84417e-06
1.50844e-06
3.13068e-07
1.78586e-07
3.04454e-06
1.78533e-07
3.04501e-06
1.50798e-06
3.84443e-06
8.89397e-06
3.84483e-06
8.89406e-06
1.50806e-06
1.78375e-07
1.34425e-06
3.12971e-07
6.96716e-07
1.78458e-07
3.04413e-06
3.84435e-06
8.8938e-06
3.84475e-06
8.89389e-06
1.50843e-06
3.12886e-07
3.04408e-06
1.78571e-07
3.04453e-06
1.78517e-07
1.50799e-06
3.84442e-06
8.894e-06
8.8938e-06
3.84423e-06
1.50843e-06
3.13076e-07
1.78583e-07
3.04412e-06
1.78527e-07
3.04458e-06
1.50799e-06
3.84434e-06
8.89382e-06
8.89362e-06
3.84415e-06
5.21575e-06
5.21435e-06
5.25997e-07
5.21546e-06
5.21411e-06
1.82717e-05
1.82736e-05
1.82754e-05
1.82733e-05
5.27749e-07
5.21545e-06
5.21412e-06
5.21562e-06
5.21428e-06
1.82736e-05
1.82715e-05
1.50806e-06
1.78371e-07
1.34468e-06
3.12821e-07
1.78454e-07
3.04457e-06
6.9676e-07
3.84442e-06
8.89417e-06
8.89428e-06
3.84483e-06
3.84437e-06
8.89442e-06
8.89451e-06
3.84477e-06
1.50849e-06
3.12922e-07
1.78577e-07
3.04418e-06
1.78521e-07
3.04464e-06
1.50803e-06
1.50846e-06
3.12931e-07
1.78579e-07
3.04456e-06
1.78523e-07
3.04501e-06
1.50801e-06
3.84442e-06
8.89422e-06
8.89401e-06
3.84422e-06
3.84436e-06
8.89444e-06
8.89424e-06
3.84416e-06
1.82719e-05
1.82738e-05
1.82737e-05
1.82756e-05
5.27814e-07
5.21392e-06
5.21545e-06
5.21408e-06
5.21561e-06
1.82738e-05
1.82717e-05
1.82756e-05
1.82735e-05
1.82705e-05
1.82726e-05
1.82728e-05
1.8275e-05
5.21413e-06
5.2157e-06
5.26238e-07
5.21401e-06
5.21557e-06
1.82727e-05
1.82706e-05
1.82751e-05
1.82729e-05
5.27957e-07
5.21408e-06
5.21564e-06
5.21419e-06
5.21576e-06
3.84403e-06
8.89319e-06
3.84419e-06
8.89346e-06
1.50792e-06
3.04452e-06
1.78622e-07
3.13208e-07
1.50838e-06
3.0441e-06
1.78664e-07
1.5079e-06
3.04488e-06
1.78626e-07
3.13249e-07
1.50835e-06
3.04447e-06
1.78663e-07
3.84424e-06
8.8935e-06
8.89322e-06
3.84409e-06
3.84418e-06
8.89354e-06
8.89324e-06
3.84402e-06
1.50834e-06
3.13248e-07
3.04416e-06
1.78711e-07
3.04456e-06
1.78686e-07
1.50791e-06
1.50832e-06
3.1329e-07
3.04455e-06
1.78711e-07
3.04494e-06
1.78691e-07
1.50789e-06
5.21547e-06
5.21408e-06
5.26252e-07
5.21536e-06
5.21395e-06
1.82709e-05
1.82729e-05
1.82748e-05
1.82727e-05
5.27985e-07
5.21544e-06
5.214e-06
5.21555e-06