/*--------------------------------*- C++ -*----------------------------------*\
| =========                 |                                                 |
| \\      /  F ield         | OpenFOAM: The Open Source CFD Toolbox           |
|  \\    /   O peration     | Version:  v2006                                 |
|   \\  /    A nd           | Website:  www.openfoam.com                      |
|    \\/     M anipulation  |                                                 |
\*---------------------------------------------------------------------------*/
FoamFile
{
    version     2.0;
    format      ascii;
    class       volScalarField;
    location    "125";
    object      nut;
}
// * * * * * * * * * * * * * * * * * * * * * * * * * * * * * * * * * * * * * //

dimensions      [0 2 -1 0 0 0 0];


internalField   nonuniform List<scalar> 
14258
(
7.81138e-05
4.95348e-05
7.81155e-05
4.95305e-05
2.35493e-05
2.35473e-05
9.04618e-05
6.55283e-05
6.55215e-05
8.50738e-05
9.5568e-05
7.57921e-05
0.000108449
8.50743e-05
9.55895e-05
7.5787e-05
0.000108454
7.81098e-05
8.507e-05
0.000108449
3.61709e-05
7.81036e-05
4.03858e-05
7.69953e-05
4.03861e-05
7.69948e-05
3.61708e-05
2.01234e-05
7.08804e-05
4.95354e-05
7.08705e-05
2.01242e-05
3.61703e-05
7.81053e-05
7.69937e-05
4.03849e-05
7.69929e-05
4.03852e-05
3.61702e-05
2.01231e-05
7.08782e-05
4.9531e-05
7.0871e-05
2.01238e-05
2.35488e-05
2.35469e-05
7.34173e-05
2.14818e-05
2.14787e-05
2.14812e-05
2.14782e-05
7.34238e-05
8.19982e-05
4.72846e-05
6.55218e-05
8.53582e-05
4.72849e-05
8.2012e-05
8.53384e-05
8.20259e-05
4.72733e-05
6.5515e-05
8.53552e-05
4.72736e-05
8.20402e-05
8.53352e-05
3.61678e-05
7.8096e-05
4.03843e-05
7.69812e-05
4.03846e-05
7.69788e-05
3.61677e-05
2.01218e-05
7.0858e-05
7.08498e-05
2.01226e-05
8.94726e-05
9.04733e-05
8.87157e-05
8.87222e-05
8.94753e-05
8.87172e-05
8.87238e-05
8.51492e-05
8.50698e-05
8.48964e-05
8.57326e-05
8.48908e-05
8.57355e-05
8.51414e-05
8.44577e-05
8.16381e-05
7.57764e-05
8.52456e-05
8.16458e-05
8.52385e-05
8.44582e-05
8.51457e-05
8.507e-05
8.48945e-05
8.57335e-05
8.48889e-05
8.57363e-05
8.51378e-05
8.44529e-05
8.16352e-05
7.57706e-05
8.52418e-05
8.16433e-05
8.52346e-05
8.44538e-05
8.51421e-05
8.50653e-05
8.57328e-05
8.48861e-05
8.57361e-05
8.48805e-05
8.51343e-05
8.44451e-05
8.16255e-05
8.16339e-05
8.44461e-05
9.58374e-05
0.0001081
9.0761e-05
0.000108097
7.80456e-05
9.5851e-05
9.07768e-05
2.35445e-05
9.58524e-05
0.000108098
7.57762e-05
9.07645e-05
6.54929e-05
2.35451e-05
4.9523e-05
9.58186e-05
0.000108106
8.51461e-05
6.54947e-05
6.55012e-05
2.3546e-05
8.51474e-05
7.57865e-05
7.80466e-05
4.95235e-05
8.51445e-05
9.5809e-05
7.57823e-05
4.95196e-05
7.57859e-05
4.95219e-05
6.54964e-05
6.55e-05
2.35459e-05
0.000108106
7.57735e-05
8.51369e-05
7.80343e-05
4.95215e-05
7.80336e-05
2.3545e-05
8.20359e-05
6.55041e-05
4.72785e-05
8.54382e-05
3.61633e-05
4.03794e-05
7.69285e-05
7.80342e-05
3.6164e-05
4.03789e-05
7.69177e-05
2.35438e-05
2.35471e-05
7.33863e-05
2.14772e-05
2.14771e-05
8.19936e-05
4.72709e-05
8.53937e-05
6.55011e-05
8.53978e-05
4.72718e-05
8.19916e-05
2.35463e-05
2.01212e-05
7.08164e-05
4.95236e-05
7.08296e-05
2.01199e-05
8.20416e-05
8.54096e-05
4.72799e-05
6.55062e-05
8.20258e-05
8.54236e-05
4.72785e-05
7.69318e-05
4.03789e-05
3.6165e-05
7.08297e-05
2.01212e-05
2.01191e-05
7.08147e-05
4.95194e-05
2.01202e-05
7.08026e-05
2.01187e-05
4.95212e-05
7.08162e-05
7.08039e-05
2.01199e-05
8.19808e-05
8.54009e-05
6.54911e-05
4.72663e-05
8.19934e-05
8.53896e-05
4.72666e-05
8.20157e-05
8.54246e-05
6.54929e-05
4.7281e-05
8.2028e-05
8.54037e-05
4.72792e-05
7.33866e-05
2.14777e-05
2.14786e-05
7.33937e-05
2.1477e-05
2.14772e-05
2.3545e-05
3.61653e-05
7.80452e-05
7.69189e-05
4.03788e-05
7.69301e-05
3.61646e-05
4.03793e-05
2.01199e-05
7.08044e-05
4.95217e-05
2.01187e-05
7.08162e-05
3.61631e-05
7.80448e-05
7.69169e-05
4.03784e-05
3.61625e-05
7.69276e-05
4.03789e-05
2.35459e-05
8.95113e-05
9.07845e-05
8.89336e-05
8.89561e-05
8.89425e-05
8.95078e-05
8.89527e-05
8.95095e-05
8.89323e-05
9.07658e-05
8.89603e-05
8.95135e-05
8.89278e-05
8.89565e-05
8.47674e-05
8.54335e-05
8.16256e-05
7.57871e-05
8.54382e-05
8.16325e-05
8.47716e-05
8.95298e-05
8.89526e-05
8.89347e-05
9.07871e-05
8.8944e-05
8.9509e-05
8.89542e-05
8.55317e-05
8.51464e-05
8.61705e-05
8.49403e-05
8.55399e-05
8.61668e-05
8.49372e-05
8.61675e-05
8.49455e-05
8.55332e-05
8.54385e-05
8.16259e-05
8.47657e-05
8.554e-05
8.61684e-05
8.49294e-05
8.51458e-05
8.55323e-05
8.61705e-05
8.49286e-05
8.47653e-05
8.16083e-05
8.54342e-05
7.57695e-05
8.47599e-05
8.16061e-05
8.54288e-05
8.47642e-05
8.54385e-05
7.57738e-05
8.16064e-05
8.16047e-05
8.54328e-05
8.47589e-05
8.47625e-05
8.54331e-05
8.16064e-05
7.5783e-05
8.54383e-05
8.47653e-05
8.16122e-05
8.55318e-05
8.51418e-05
8.6169e-05
8.49223e-05
8.61656e-05
8.55382e-05
8.49347e-05
7.80345e-05
8.51441e-05
7.80356e-05
8.51424e-05
7.57731e-05
4.95196e-05
6.54859e-05
2.35439e-05
3.6164e-05
4.03789e-05
7.69183e-05
7.8046e-05
4.03794e-05
7.69291e-05
3.61633e-05
3.61651e-05
7.6921e-05
4.03785e-05
7.80459e-05
7.69318e-05
4.03789e-05
3.61644e-05
2.01202e-05
7.08035e-05
4.95205e-05
7.08154e-05
2.01191e-05
8.1993e-05
8.53839e-05
6.54969e-05
4.72667e-05
8.54023e-05
8.19871e-05
4.72712e-05
7.33885e-05
2.14764e-05
2.14773e-05
7.3395e-05
2.14769e-05
2.14768e-05
2.35452e-05
8.55336e-05
8.61689e-05
8.49373e-05
8.51647e-05
8.49648e-05
8.61667e-05
8.5541e-05
8.55342e-05
8.6169e-05
8.493e-05
8.51455e-05
8.61678e-05
8.49415e-05
8.5541e-05
8.47622e-05
8.16092e-05
8.54291e-05
7.57846e-05
8.16147e-05
8.54356e-05
8.47657e-05
2.3548e-05
2.35461e-05
9.04379e-05
6.55129e-05
6.55056e-05
7.80864e-05
4.9533e-05
7.80831e-05
4.95294e-05
8.50698e-05
9.54613e-05
7.57718e-05
0.000108138
8.50489e-05
9.54516e-05
7.57649e-05
0.000108138
2.35468e-05
9.0437e-05
6.55016e-05
6.55103e-05
2.35474e-05
7.80878e-05
4.95287e-05
8.50701e-05
9.54794e-05
7.57659e-05
0.000108142
7.80795e-05
4.95253e-05
8.50661e-05
9.54394e-05
0.000108136
7.57647e-05
9.54583e-05
7.5768e-05
4.95299e-05
2.35454e-05
9.04419e-05
6.54987e-05
6.55102e-05
2.35469e-05
8.50495e-05
9.54713e-05
0.000108152
7.57673e-05
7.80889e-05
4.95292e-05
2.35486e-05
2.35467e-05
7.34146e-05
2.14806e-05
2.14775e-05
7.34087e-05
2.14812e-05
2.14782e-05
8.20011e-05
6.55179e-05
4.72831e-05
8.53399e-05
8.19911e-05
4.7283e-05
8.53603e-05
8.20289e-05
6.55108e-05
4.72718e-05
8.53368e-05
8.20182e-05
4.72717e-05
8.53571e-05
3.61695e-05
7.80963e-05
4.03844e-05
7.69757e-05
3.61694e-05
4.03843e-05
7.69784e-05
2.01234e-05
4.95326e-05
7.0861e-05
2.01226e-05
7.08715e-05
3.61673e-05
7.80927e-05
4.03843e-05
7.69662e-05
3.61673e-05
4.03842e-05
7.69684e-05
2.01218e-05
4.95294e-05
7.08432e-05
2.0121e-05
7.08517e-05
2.35476e-05
7.3413e-05
2.14777e-05
2.14802e-05
7.34069e-05
2.14786e-05
2.14805e-05
8.20253e-05
6.55106e-05
4.72732e-05
8.53457e-05
8.53472e-05
8.20252e-05
4.72746e-05
8.2001e-05
6.55154e-05
4.72802e-05
8.53409e-05
8.19947e-05
4.72788e-05
8.53585e-05
2.35477e-05
3.61689e-05
7.80973e-05
7.6974e-05
4.03835e-05
3.61688e-05
7.6977e-05
4.03834e-05
2.01231e-05
4.95283e-05
7.08618e-05
2.01223e-05
7.08694e-05
3.61664e-05
7.80914e-05
4.03829e-05
7.69594e-05
3.61664e-05
4.03827e-05
7.69634e-05
2.01218e-05
4.95248e-05
7.08401e-05
2.0121e-05
7.08489e-05
2.01232e-05
4.95292e-05
7.08534e-05
2.01222e-05
7.08657e-05
2.35459e-05
7.34155e-05
2.14773e-05
2.14807e-05
7.34093e-05
2.1478e-05
2.14813e-05
8.2033e-05
6.55058e-05
4.72721e-05
8.53357e-05
8.5356e-05
8.20204e-05
4.72719e-05
8.19978e-05
4.72827e-05
8.53381e-05
6.55162e-05
8.19847e-05
4.72826e-05
8.53593e-05
2.35474e-05
7.69693e-05
4.0384e-05
3.61692e-05
7.08522e-05
2.01222e-05
0.000125786
0.000149218
0.000149232
0.000170427
0.000125779
0.000149216
0.000149229
0.000170426
0.000125782
0.000149218
0.000149231
0.000170423
0.000125779
0.000149216
0.000149228
0.000170422
8.94715e-05
9.04345e-05
8.8716e-05
8.87228e-05
8.94697e-05
8.87241e-05
8.87304e-05
8.51496e-05
8.50713e-05
8.48883e-05
8.57326e-05
8.51541e-05
8.48928e-05
8.57331e-05
8.4474e-05
7.57853e-05
8.16314e-05
8.52478e-05
8.52602e-05
8.44728e-05
8.16249e-05
8.51436e-05
8.50673e-05
8.48681e-05
8.57317e-05
8.51491e-05
8.48813e-05
8.57301e-05
8.44684e-05
7.57818e-05
8.16212e-05
8.52452e-05
8.44647e-05
8.16161e-05
8.52527e-05
8.94726e-05
9.04257e-05
8.87258e-05
8.87253e-05
8.87267e-05
8.94703e-05
8.87207e-05
8.51456e-05
8.50716e-05
8.4886e-05
8.57328e-05
8.515e-05
8.48905e-05
8.57333e-05
8.44704e-05
7.57797e-05
8.16289e-05
8.5244e-05
8.52561e-05
8.44684e-05
8.16223e-05
8.51427e-05
8.50677e-05
8.57328e-05
8.48788e-05
8.51471e-05
8.57333e-05
8.48835e-05
8.44631e-05
7.57758e-05
8.16189e-05
8.52433e-05
8.4461e-05
8.16123e-05
8.525e-05
8.44711e-05
7.57768e-05
8.16293e-05
8.52495e-05
8.44701e-05
8.52578e-05
8.16243e-05
8.9474e-05
9.04304e-05
8.87276e-05
8.87281e-05
8.87269e-05
8.94719e-05
8.87273e-05
8.57359e-05
8.48761e-05
8.51515e-05
8.16308e-05
8.52519e-05
8.4471e-05
2.35464e-05
2.3545e-05
9.04091e-05
6.54912e-05
6.54907e-05
7.80529e-05
4.95242e-05
8.52649e-05
9.52977e-05
7.5752e-05
0.000107687
7.80427e-05
8.58482e-05
0.000107683
2.35472e-05
2.35458e-05
7.3391e-05
2.14786e-05
2.14769e-05
2.14798e-05
2.14772e-05
7.33837e-05
8.19927e-05
4.72754e-05
8.53487e-05
6.54998e-05
4.7279e-05
8.19745e-05
8.53694e-05
8.20158e-05
4.72731e-05
8.53578e-05
6.54954e-05
4.72701e-05
8.5372e-05
8.20066e-05
3.61658e-05
7.69422e-05
4.03797e-05
7.80624e-05
7.69505e-05
4.03799e-05
3.61654e-05
2.01214e-05
7.08315e-05
4.9524e-05
7.08418e-05
2.01204e-05
3.61634e-05
4.03791e-05
7.80537e-05
7.69275e-05
4.03793e-05
7.69369e-05
3.61629e-05
0.000125345
8.50739e-05
8.50737e-05
7.57727e-05
7.80758e-05
8.50703e-05
9.5398e-05
0.000107931
7.80818e-05
9.03769e-05
0.000107933
9.54367e-05
9.03755e-05
2.3546e-05
9.03406e-05
0.000147756
9.53569e-05
8.50722e-05
8.50723e-05
7.57583e-05
7.80526e-05
8.50684e-05
7.8061e-05
0.000148619
0.000148619
0.00014863
2.35443e-05
9.53662e-05
7.57619e-05
2.35481e-05
2.35461e-05
6.55096e-05
6.5503e-05
9.03785e-05
7.80811e-05
4.95309e-05
7.80776e-05
4.95284e-05
7.57787e-05
9.53881e-05
0.000107919
7.57734e-05
0.000107921
9.53788e-05
2.35476e-05
6.55031e-05
9.03713e-05
6.55044e-05
2.35462e-05
4.95266e-05
7.8082e-05
8.50738e-05
9.54193e-05
0.000107925
4.95231e-05
9.53828e-05
0.000107919
7.57674e-05
0.000107931
7.57717e-05
8.50822e-05
4.95264e-05
7.80825e-05
9.53698e-05
8.50815e-05
7.57693e-05
4.95237e-05
2.35454e-05
6.54971e-05
6.55079e-05
2.35469e-05
9.54143e-05
7.57784e-05
0.00010794
4.95271e-05
6.54998e-05
6.54853e-05
6.54977e-05
2.35458e-05
4.95259e-05
7.80604e-05
4.95297e-05
7.80677e-05
4.95287e-05
2.35468e-05
2.35464e-05
4.95254e-05
7.80618e-05
7.80679e-05
4.9525e-05
0.000148126
0.000147742
0.000107806
7.57564e-05
8.5081e-05
9.53212e-05
7.57664e-05
2.3547e-05
2.35474e-05
2.3545e-05
2.3546e-05
6.54997e-05
6.54922e-05
9.03425e-05
9.03907e-05
6.55011e-05
6.54974e-05
7.80568e-05
4.95277e-05
7.80645e-05
4.95255e-05
7.57628e-05
9.53505e-05
0.000107799
8.50877e-05
9.5295e-05
7.57681e-05
0.00010774
7.57577e-05
0.000107798
9.53398e-05
8.50869e-05
9.52878e-05
7.57607e-05
0.000107735
7.8052e-05
4.95279e-05
7.80489e-05
8.50932e-05
9.52738e-05
7.57563e-05
0.000107688
8.50925e-05
0.00010768
6.54943e-05
9.03344e-05
6.54929e-05
9.03859e-05
6.54946e-05
6.54962e-05
2.3545e-05
2.35465e-05
8.50723e-05
9.53544e-05
0.000107806
8.52279e-05
9.53259e-05
7.57638e-05
0.000107745
4.95219e-05
4.95209e-05
7.80591e-05
9.53351e-05
0.0001078
7.57526e-05
8.453e-05
9.5289e-05
8.58143e-05
0.00010774
4.95251e-05
7.80616e-05
4.95252e-05
8.50803e-05
7.34023e-05
2.14808e-05
2.14777e-05
2.14801e-05
2.1477e-05
7.34084e-05
7.33951e-05
2.14795e-05
2.1479e-05
2.1478e-05
2.14789e-05
7.34024e-05
3.61652e-05
4.03815e-05
7.69548e-05
7.80647e-05
4.03816e-05
7.69468e-05
3.61653e-05
3.61668e-05
4.03827e-05
7.69612e-05
7.80722e-05
4.03827e-05
7.69553e-05
3.61669e-05
2.35456e-05
7.34043e-05
2.14797e-05
2.14766e-05
7.33987e-05
2.14805e-05
2.14774e-05
7.33994e-05
2.14788e-05
2.14776e-05
7.33937e-05
2.14795e-05
2.14785e-05
3.61645e-05
4.03805e-05
7.69398e-05
7.80645e-05
3.61642e-05
4.03806e-05
7.69483e-05
3.6166e-05
4.03817e-05
7.69477e-05
7.80721e-05
3.61658e-05
4.03818e-05
7.69542e-05
2.3545e-05
2.35474e-05
2.35455e-05
8.19821e-05
4.72817e-05
8.5362e-05
6.55053e-05
4.72817e-05
8.53435e-05
8.19916e-05
8.20091e-05
4.72705e-05
8.536e-05
6.54976e-05
4.72705e-05
8.53397e-05
8.20207e-05
3.61683e-05
4.03831e-05
7.69702e-05
7.80716e-05
4.03831e-05
7.69636e-05
3.61684e-05
2.01219e-05
7.08628e-05
4.95311e-05
7.08522e-05
2.01228e-05
3.61662e-05
4.0383e-05
7.69598e-05
7.80683e-05
4.0383e-05
7.69534e-05
3.61663e-05
2.01203e-05
7.08432e-05
4.95284e-05
7.08347e-05
2.01212e-05
2.35467e-05
8.20177e-05
4.72826e-05
8.53646e-05
6.54943e-05
8.53412e-05
4.72781e-05
8.20349e-05
8.19728e-05
4.72686e-05
8.53532e-05
6.5501e-05
4.72733e-05
8.53452e-05
8.19866e-05
2.3546e-05
2.01216e-05
7.08611e-05
4.95268e-05
7.08529e-05
2.01225e-05
3.61677e-05
7.6969e-05
4.03821e-05
7.80732e-05
7.69628e-05
4.03822e-05
3.61678e-05
2.01203e-05
7.084e-05
4.95234e-05
7.08312e-05
2.01212e-05
2.01216e-05
7.08567e-05
4.95271e-05
7.08454e-05
2.01226e-05
3.61678e-05
7.69621e-05
4.03823e-05
7.8073e-05
7.69554e-05
4.03823e-05
3.6168e-05
2.01208e-05
7.08426e-05
4.95245e-05
7.08343e-05
2.01217e-05
2.35447e-05
8.20138e-05
8.53585e-05
6.5491e-05
4.72707e-05
8.53387e-05
4.72707e-05
8.2024e-05
8.1978e-05
8.53625e-05
6.55031e-05
4.72814e-05
4.72814e-05
8.53418e-05
8.19888e-05
7.34031e-05
2.14776e-05
2.14809e-05
2.14768e-05
2.14801e-05
7.34091e-05
2.35463e-05
3.61693e-05
7.8098e-05
7.69733e-05
4.03838e-05
2.01215e-05
4.95273e-05
7.0856e-05
7.08438e-05
2.01225e-05
2.01231e-05
4.95288e-05
7.0865e-05
8.1981e-05
8.53512e-05
6.54959e-05
4.72696e-05
8.19927e-05
8.53346e-05
4.72736e-05
8.20206e-05
8.53426e-05
6.54912e-05
4.72697e-05
4.72698e-05
8.20095e-05
8.53601e-05
8.1986e-05
8.53463e-05
4.72804e-05
6.55032e-05
8.53649e-05
8.19742e-05
4.72805e-05
7.3405e-05
2.14765e-05
2.14798e-05
2.14773e-05
7.33994e-05
2.14806e-05
2.35466e-05
2.0122e-05
7.08356e-05
4.95258e-05
7.08477e-05
2.01209e-05
3.61675e-05
4.03821e-05
7.69564e-05
7.80721e-05
3.61673e-05
4.03822e-05
7.69637e-05
2.01223e-05
7.08438e-05
4.95296e-05
2.01214e-05
7.08552e-05
3.61663e-05
7.80565e-05
4.03814e-05
7.69575e-05
4.03813e-05
7.69486e-05
3.61667e-05
2.01207e-05
4.95287e-05
7.08476e-05
7.08359e-05
2.01217e-05
2.35475e-05
2.35462e-05
2.0122e-05
7.08442e-05
4.95255e-05
2.01211e-05
7.08538e-05
3.61669e-05
7.69552e-05
4.03812e-05
7.80727e-05
3.61667e-05
7.69623e-05
4.03812e-05
3.6166e-05
7.80573e-05
7.69563e-05
4.03805e-05
7.69483e-05
4.03803e-05
3.61663e-05
2.01207e-05
4.95247e-05
7.08475e-05
7.08369e-05
2.01217e-05
2.35477e-05
2.35467e-05
2.3546e-05
2.35453e-05
8.19882e-05
4.72808e-05
8.53486e-05
6.55031e-05
8.19785e-05
4.72807e-05
8.53636e-05
8.20193e-05
4.72697e-05
8.53429e-05
6.5499e-05
8.20057e-05
4.72703e-05
8.5361e-05
7.33964e-05
2.14797e-05
2.14779e-05
2.14792e-05
2.14765e-05
7.33983e-05
8.19873e-05
6.54959e-05
4.72761e-05
8.53586e-05
4.7279e-05
8.53607e-05
8.19787e-05
8.20044e-05
6.54876e-05
4.72739e-05
8.53644e-05
4.72705e-05
8.53541e-05
8.20208e-05
3.61654e-05
4.0382e-05
7.69463e-05
7.80684e-05
3.61652e-05
4.03821e-05
7.69535e-05
2.01207e-05
7.08268e-05
4.95274e-05
2.01198e-05
7.08357e-05
3.61644e-05
7.80528e-05
4.03813e-05
7.69479e-05
4.03812e-05
7.69394e-05
3.61647e-05
2.01194e-05
4.9526e-05
7.08294e-05
7.08194e-05
2.01204e-05
3.61662e-05
4.03806e-05
7.69418e-05
7.80627e-05
3.61658e-05
4.03809e-05
7.69512e-05
2.01215e-05
7.08299e-05
4.9528e-05
2.01204e-05
7.08417e-05
3.61642e-05
4.03806e-05
7.69336e-05
7.80597e-05
3.61638e-05
4.03808e-05
7.69419e-05
8.20286e-05
4.72823e-05
8.53575e-05
6.55037e-05
8.20231e-05
4.72813e-05
8.53698e-05
8.19806e-05
4.72667e-05
8.53445e-05
6.54999e-05
8.19778e-05
8.53462e-05
4.7268e-05
7.3385e-05
2.14777e-05
2.14794e-05
2.14776e-05
2.1478e-05
7.3392e-05
8.19993e-05
6.54904e-05
4.72709e-05
8.53676e-05
4.72755e-05
8.53547e-05
8.20135e-05
8.19777e-05
6.54868e-05
4.72768e-05
8.53654e-05
8.53412e-05
4.72718e-05
8.19975e-05
2.35461e-05
2.35455e-05
2.01208e-05
7.08228e-05
4.95218e-05
2.01198e-05
7.08322e-05
2.01194e-05
4.95209e-05
7.08259e-05
7.08159e-05
2.01204e-05
3.61635e-05
7.8047e-05
7.69423e-05
4.03799e-05
4.03797e-05
7.6933e-05
3.61639e-05
2.01221e-05
7.08358e-05
4.95253e-05
2.0121e-05
7.08483e-05
3.61671e-05
7.69478e-05
4.03813e-05
7.80727e-05
3.61669e-05
7.6956e-05
4.03813e-05
2.01206e-05
4.95248e-05
7.0842e-05
7.08296e-05
2.01217e-05
8.87751e-05
8.94647e-05
8.87806e-05
9.04419e-05
8.87892e-05
8.947e-05
8.87895e-05
8.58495e-05
8.50931e-05
8.49075e-05
8.52676e-05
8.51041e-05
8.4912e-05
8.58598e-05
8.45644e-05
8.53056e-05
8.16005e-05
8.45649e-05
7.57617e-05
8.53182e-05
8.16015e-05
8.50874e-05
8.52599e-05
8.48941e-05
8.52624e-05
8.50982e-05
8.58582e-05
8.48988e-05
0.000148623
0.000148633
0.000169707
8.51685e-05
8.48945e-05
8.57472e-05
8.50692e-05
8.48884e-05
8.57431e-05
8.51664e-05
8.51605e-05
8.48828e-05
8.57431e-05
8.5067e-05
8.48759e-05
8.57385e-05
8.51583e-05
8.44909e-05
8.16139e-05
8.52711e-05
7.57625e-05
8.52589e-05
8.16174e-05
8.44918e-05
8.51614e-05
8.57472e-05
8.48858e-05
8.50657e-05
8.57431e-05
8.488e-05
8.51596e-05
8.94689e-05
8.8738e-05
9.03883e-05
8.87384e-05
8.87289e-05
8.87293e-05
8.94722e-05
8.94605e-05
8.87278e-05
9.03891e-05
8.87478e-05
8.94679e-05
8.87176e-05
8.875e-05
8.94713e-05
8.8741e-05
9.03524e-05
8.87414e-05
8.87515e-05
8.94676e-05
8.87512e-05
0.000124746
0.000124993
0.000148128
0.000148142
0.000147747
0.0001686
0.000169098
8.51955e-05
8.48934e-05
8.57682e-05
8.5078e-05
8.51949e-05
8.49005e-05
8.57757e-05
8.51869e-05
8.48834e-05
8.57647e-05
8.50777e-05
8.5186e-05
8.48909e-05
8.57725e-05
8.45141e-05
8.16093e-05
8.52734e-05
7.57668e-05
8.45145e-05
8.16076e-05
8.52858e-05
8.5188e-05
8.57679e-05
8.48845e-05
8.50742e-05
8.51872e-05
8.57754e-05
8.48909e-05
0.000125334
0.00014863
0.000169706
0.000125342
0.000148631
0.000169703
0.000125338
0.000148618
0.000169703
8.45136e-05
8.52759e-05
8.16096e-05
7.57714e-05
8.45135e-05
8.52877e-05
8.16073e-05
8.94659e-05
8.87345e-05
8.87413e-05
9.03913e-05
8.87256e-05
8.87324e-05
8.94688e-05
8.44951e-05
8.16163e-05
8.52752e-05
7.57683e-05
8.52628e-05
8.16196e-05
8.44953e-05
8.44805e-05
8.16073e-05
8.52681e-05
7.57628e-05
8.16106e-05
8.52556e-05
8.44827e-05
8.94675e-05
8.87463e-05
8.87237e-05
9.03833e-05
8.87372e-05
8.87154e-05
8.9471e-05
8.51641e-05
8.48921e-05
8.57473e-05
8.50692e-05
8.48856e-05
8.57431e-05
8.51625e-05
8.44836e-05
8.16037e-05
8.52648e-05
7.57601e-05
8.16072e-05
8.52525e-05
8.44846e-05
8.449e-05
8.52718e-05
8.16137e-05
7.57624e-05
8.52599e-05
8.16192e-05
8.44905e-05
8.51633e-05
8.57473e-05
8.48853e-05
8.50687e-05
8.48668e-05
8.57434e-05
8.51615e-05
8.51656e-05
8.57483e-05
8.48834e-05
8.50678e-05
8.57446e-05
8.48636e-05
8.51651e-05
8.4489e-05
8.52665e-05
8.16105e-05
7.57577e-05
8.16161e-05
8.5259e-05
8.44883e-05
8.51462e-05
8.50693e-05
8.57345e-05
8.48891e-05
8.44894e-05
8.52731e-05
7.57669e-05
8.16144e-05
8.44907e-05
8.52609e-05
8.16185e-05
8.44729e-05
7.5784e-05
8.52583e-05
8.16237e-05
0.000124983
0.000148138
0.000124736
0.000147742
0.000147754
0.000168599
0.000169097
0.000148138
0.000124987
0.000148126
0.000147754
0.000124737
0.000168595
0.000169093
8.45116e-05
8.52741e-05
8.16087e-05
7.57705e-05
8.4512e-05
8.52869e-05
8.16068e-05
8.51896e-05
8.57693e-05
8.48883e-05
8.50871e-05
8.51885e-05
8.48988e-05
8.57774e-05
8.45332e-05
7.57548e-05
8.16028e-05
8.53035e-05
8.52902e-05
8.16023e-05
8.45349e-05
8.9468e-05
8.87372e-05
8.87447e-05
9.03549e-05
8.94641e-05
8.87436e-05
8.87556e-05
8.87601e-05
8.94687e-05
8.8777e-05
8.9464e-05
9.03605e-05
8.8753e-05
8.87621e-05
8.45185e-05
8.16116e-05
8.52773e-05
7.5772e-05
8.45193e-05
8.16101e-05
8.52899e-05
8.52295e-05
8.50791e-05
8.49081e-05
8.58152e-05
8.49023e-05
8.58056e-05
8.52317e-05
8.5305e-05
8.45418e-05
7.57577e-05
8.16063e-05
8.16065e-05
8.52926e-05
8.45416e-05
8.45076e-05
8.16029e-05
8.52704e-05
7.57653e-05
8.45075e-05
8.16002e-05
8.52826e-05
8.52214e-05
8.5079e-05
8.49018e-05
8.58128e-05
8.4895e-05
8.58031e-05
8.52241e-05
8.45312e-05
7.57515e-05
8.15964e-05
8.52975e-05
8.15969e-05
8.45314e-05
8.5285e-05
8.52714e-05
8.49087e-05
8.58493e-05
8.51038e-05
8.52687e-05
8.49131e-05
8.58598e-05
8.53082e-05
8.5322e-05
7.57671e-05
8.45686e-05
8.16027e-05
8.45675e-05
8.16039e-05
8.52649e-05
8.49038e-05
8.58472e-05
8.51034e-05
8.5262e-05
8.49088e-05
8.58578e-05
8.94706e-05
8.87493e-05
8.87277e-05
9.03468e-05
8.94669e-05
8.87411e-05
8.87511e-05
8.9466e-05
9.03543e-05
8.87623e-05
8.87709e-05
8.87569e-05
8.87549e-05
8.94709e-05
8.51914e-05
8.4892e-05
8.57682e-05
8.50782e-05
8.51905e-05
8.48995e-05
8.57757e-05
8.58153e-05
8.50876e-05
8.4907e-05
8.52255e-05
8.5079e-05
8.49011e-05
8.58057e-05
8.45371e-05
8.53024e-05
8.16039e-05
8.45358e-05
7.57551e-05
8.16033e-05
8.52892e-05
8.45071e-05
8.1599e-05
8.52668e-05
7.57606e-05
8.45072e-05
8.52793e-05
8.15973e-05
8.15933e-05
7.57566e-05
8.45299e-05
7.57474e-05
8.52951e-05
8.52822e-05
8.15934e-05
8.50827e-05
8.52233e-05
8.4895e-05
8.52211e-05
8.50745e-05
8.58048e-05
8.48909e-05
8.51916e-05
8.57707e-05
8.48865e-05
8.50868e-05
8.51906e-05
8.57789e-05
8.48973e-05
6.54943e-05
0.000124521
9.54257e-05
9.54343e-05
9.05103e-05
0.000124588
9.57093e-05
9.57077e-05
9.06694e-05
0.000124717
9.58095e-05
9.58105e-05
9.07687e-05
0.000124768
9.58362e-05
9.58416e-05
9.07826e-05
0.00012478
9.58468e-05
9.58515e-05
9.07728e-05
0.000124782
9.58506e-05
9.58548e-05
9.0782e-05
0.000124772
9.58485e-05
9.58524e-05
9.0784e-05
0.000124767
9.58485e-05
9.04948e-05
9.53395e-05
9.53147e-05
9.05125e-05
9.06731e-05
9.54115e-05
9.54128e-05
9.56355e-05
9.5625e-05
9.05088e-05
9.06696e-05
9.54273e-05
9.54043e-05
9.56523e-05
9.56275e-05
9.53954e-05
9.5657e-05
9.56077e-05
9.05127e-05
9.06722e-05
9.54502e-05
9.56585e-05
9.56433e-05
9.06648e-05
9.06767e-05
9.07818e-05
9.56848e-05
9.56713e-05
9.57718e-05
9.5757e-05
9.06726e-05
9.07773e-05
9.57024e-05
9.5676e-05
9.57904e-05
9.57617e-05
9.56605e-05
9.57948e-05
9.57625e-05
9.06754e-05
9.07802e-05
9.56895e-05
9.57939e-05
9.57859e-05
9.07759e-05
9.07736e-05
9.07984e-05
9.57885e-05
9.57751e-05
9.58146e-05
9.58039e-05
9.0768e-05
9.07935e-05
9.5806e-05
9.57781e-05
9.58337e-05
9.58041e-05
9.57819e-05
9.58316e-05
9.58124e-05
9.07717e-05
9.07972e-05
9.58058e-05
9.58358e-05
9.58335e-05
9.08e-05
9.07822e-05
9.07923e-05
9.58183e-05
9.58085e-05
9.58249e-05
9.58153e-05
9.07789e-05
9.07841e-05
9.58389e-05
9.58086e-05
9.58457e-05
9.58163e-05
9.58173e-05
9.58455e-05
9.5822e-05
9.07811e-05
9.07901e-05
9.58371e-05
9.58505e-05
9.58442e-05
9.07873e-05
9.07759e-05
9.08025e-05
9.5827e-05
9.58171e-05
9.58295e-05
9.58193e-05
9.07689e-05
9.07967e-05
9.58473e-05
9.58182e-05
9.58503e-05
9.58212e-05
9.5822e-05
9.58509e-05
9.5822e-05
9.07747e-05
9.08019e-05
9.58468e-05
9.58546e-05
9.58491e-05
9.0798e-05
9.07869e-05
9.08e-05
9.58303e-05
9.58192e-05
9.58286e-05
9.5817e-05
9.07798e-05
9.07945e-05
9.58502e-05
9.58223e-05
9.58486e-05
9.58203e-05
9.5822e-05
9.58495e-05
9.5822e-05
9.07862e-05
9.07984e-05
9.58495e-05
9.5853e-05
9.58483e-05
9.07953e-05
9.07884e-05
9.07847e-05
9.58281e-05
9.5817e-05
9.58244e-05
7.5785e-05
9.07825e-05
6.55002e-05
9.58487e-05
9.582e-05
9.58474e-05
9.58162e-05
9.5822e-05
9.58442e-05
9.07869e-05
9.07831e-05
9.58474e-05
9.58491e-05
7.57726e-05
9.58157e-05
9.07658e-05
2.35462e-05
7.80513e-05
4.95269e-05
7.80445e-05
4.95271e-05
2.35447e-05
2.35455e-05
7.80507e-05
4.95226e-05
7.80441e-05
4.95227e-05
0.000167737
0.000124514
0.000124515
0.000124545
0.000124538
0.000124537
0.00012453
8.5137e-05
8.46248e-05
0.000107625
9.55119e-05
8.53479e-05
7.57728e-05
0.000107694
2.35432e-05
2.3544e-05
8.5136e-05
0.000107629
8.53421e-05
9.55195e-05
0.000107699
7.57747e-05
8.53472e-05
6.54865e-05
6.54839e-05
9.05839e-05
6.54928e-05
6.54898e-05
7.80463e-05
4.95266e-05
7.80362e-05
4.9527e-05
2.35446e-05
2.35456e-05
7.80465e-05
4.95222e-05
7.80366e-05
4.95227e-05
0.000124583
0.000124582
0.000124575
0.000124694
0.000124687
0.000124687
0.000124684
8.51519e-05
7.57684e-05
0.000107916
9.57473e-05
8.51483e-05
7.57821e-05
0.000107964
2.35431e-05
2.3544e-05
8.51533e-05
0.000107918
7.57701e-05
9.57443e-05
8.51495e-05
0.000107966
7.57834e-05
6.54896e-05
6.54862e-05
9.07299e-05
6.54964e-05
6.54927e-05
7.80432e-05
4.95267e-05
7.80325e-05
4.95273e-05
2.35447e-05
2.35456e-05
7.80444e-05
4.95224e-05
7.80341e-05
4.95229e-05
0.000124711
0.000124711
0.000124709
0.000124761
0.000124754
0.000124754
0.000124754
8.5158e-05
7.57732e-05
0.000108051
9.58198e-05
8.51532e-05
7.5785e-05
0.000108067
2.35432e-05
2.35441e-05
8.51577e-05
0.000108053
7.57742e-05
9.58214e-05
8.51523e-05
0.000108068
7.57864e-05
6.54933e-05
6.54889e-05
9.0799e-05
6.54996e-05
6.54948e-05
7.8041e-05
4.95269e-05
7.80293e-05
4.95273e-05
2.35448e-05
2.35457e-05
7.80428e-05
4.95225e-05
7.80317e-05
4.95229e-05
0.000124762
0.000124761
0.000124761
0.000124779
0.000124773
0.000124772
0.000124771
8.51575e-05
7.57763e-05
0.000108091
9.58397e-05
8.51601e-05
7.57908e-05
0.000108095
2.35433e-05
2.35442e-05
8.51407e-05
0.000108093
7.57798e-05
9.58451e-05
8.51495e-05
0.000108097
7.5793e-05
6.54947e-05
6.54899e-05
9.07911e-05
6.55002e-05
6.54955e-05
7.80417e-05
4.95269e-05
7.80297e-05
4.95273e-05
2.35448e-05
2.35457e-05
7.80437e-05
4.95225e-05
7.80325e-05
4.9523e-05
0.000124775
0.000124774
0.000124772
0.000124782
0.000124777
0.000124776
0.000124774
8.51446e-05
7.57778e-05
0.000108104
9.58486e-05
8.51415e-05
7.57871e-05
0.000108105
2.35433e-05
2.35442e-05
8.51505e-05
0.000108106
7.57765e-05
9.58531e-05
8.5143e-05
0.000108107
7.57905e-05
6.54951e-05
6.54907e-05
9.07933e-05
6.55005e-05
6.54962e-05
7.80417e-05
4.95269e-05
7.80291e-05
4.95273e-05
2.35448e-05
2.35457e-05
7.80438e-05
4.95225e-05
7.80324e-05
4.9523e-05
0.000124777
0.000124776
0.000124774
0.000124781
0.000124777
0.000124775
0.000124774
8.51558e-05
7.5779e-05
0.000108107
9.58506e-05
8.51519e-05
7.57891e-05
0.000108107
2.35433e-05
2.35443e-05
8.51354e-05
0.000108108
7.57787e-05
9.58551e-05
8.51464e-05
0.000108108
7.57882e-05
6.54953e-05
6.54913e-05
9.07912e-05
6.55005e-05
6.54969e-05
7.80431e-05
4.9527e-05
7.80308e-05
4.95274e-05
2.35448e-05
2.3546e-05
7.80448e-05
4.95226e-05
7.80334e-05
4.95231e-05
0.000147266
0.00012478
0.000124776
0.000124774
0.000124773
0.000124777
0.000124776
8.51455e-05
7.57766e-05
0.000108105
9.58481e-05
8.51355e-05
7.57886e-05
0.000108103
2.35434e-05
2.35446e-05
8.51456e-05
0.000108106
7.57792e-05
9.58513e-05
8.5147e-05
0.000108106
7.579e-05
6.5495e-05
6.54914e-05
9.08014e-05
6.55018e-05
6.54969e-05
0.000147268
0.000124776
0.000124773
2.35437e-05
7.57776e-05
2.35471e-05
2.35452e-05
6.54995e-05
6.54931e-05
4.95232e-05
7.80577e-05
7.57628e-05
0.000107637
8.51194e-05
4.95196e-05
7.80492e-05
4.95201e-05
9.52677e-05
0.000107632
8.53156e-05
8.51134e-05
8.53115e-05
2.35462e-05
2.3547e-05
2.35443e-05
2.35451e-05
6.5494e-05
6.54873e-05
9.05882e-05
6.54999e-05
6.54934e-05
2.3547e-05
2.35462e-05
2.35451e-05
2.35442e-05
9.05992e-05
6.55011e-05
6.5495e-05
6.54947e-05
6.54883e-05
7.80485e-05
4.95233e-05
7.80416e-05
4.95234e-05
8.51346e-05
8.53444e-05
0.000107619
9.54969e-05
8.53515e-05
7.57775e-05
0.000107684
8.51327e-05
8.5337e-05
0.000107614
9.54946e-05
8.53451e-05
7.57696e-05
0.000107683
7.80379e-05
4.9527e-05
4.95266e-05
7.80485e-05
7.80352e-05
4.95233e-05
4.95229e-05
7.80459e-05
8.51368e-05
9.55729e-05
7.57829e-05
0.000107843
7.57677e-05
0.000107771
8.51472e-05
8.51347e-05
9.55666e-05
7.57751e-05
0.000107841
7.576e-05
0.000107768
8.51453e-05
6.54866e-05
6.54892e-05
9.05855e-05
6.54923e-05
6.5495e-05
2.35455e-05
2.35463e-05
2.35455e-05
2.35446e-05
9.0596e-05
6.54935e-05
6.54966e-05
6.5487e-05
6.54899e-05
2.35463e-05
2.35454e-05
8.5133e-05
7.57532e-05
0.00010762
9.55123e-05
8.51233e-05
7.57712e-05
0.000107689
7.80425e-05
4.95189e-05
7.80342e-05
4.95191e-05
8.51277e-05
0.000107615
8.53333e-05
9.54897e-05
8.51175e-05
0.000107684
7.57645e-05
7.80385e-05
4.95226e-05
4.95222e-05
7.80478e-05
8.51346e-05
9.55885e-05
7.57771e-05
0.000107847
7.57618e-05
0.000107773
8.51453e-05
7.80295e-05
4.9519e-05
4.95186e-05
7.80396e-05
8.51294e-05
9.55651e-05
0.000107842
7.57703e-05
0.000107768
7.5755e-05
8.51398e-05
7.80513e-05
4.95242e-05
7.8045e-05
4.95244e-05
8.51359e-05
0.000107623
8.53393e-05
9.54732e-05
8.53489e-05
0.000107691
7.57692e-05
7.80506e-05
4.95211e-05
7.80444e-05
4.95213e-05
8.51387e-05
9.55906e-05
7.57793e-05
0.000107854
7.57635e-05
0.00010778
8.51469e-05
7.80392e-05
4.95243e-05
4.95239e-05
7.80482e-05
8.51372e-05
9.5545e-05
0.00010785
7.57753e-05
0.000107776
7.57602e-05
8.51454e-05
7.80384e-05
4.95211e-05
4.95208e-05
7.80473e-05
6.54808e-05
6.54936e-05
9.05888e-05
6.54868e-05
6.54993e-05
2.35451e-05
2.35459e-05
2.3544e-05
2.35431e-05
9.05991e-05
6.54883e-05
6.55005e-05
6.54816e-05
6.5494e-05
2.35459e-05
2.3545e-05
8.51354e-05
0.000107631
8.53369e-05
9.55259e-05
0.000107701
7.57678e-05
8.53485e-05
7.80517e-05
4.95232e-05
4.95234e-05
7.8045e-05
7.80494e-05
4.95195e-05
4.95196e-05
7.80428e-05
8.51378e-05
9.55958e-05
0.000107858
7.57812e-05
0.000107784
7.57656e-05
8.51481e-05
8.51373e-05
9.559e-05
0.000107858
7.57733e-05
0.000107786
7.57582e-05
8.51477e-05
7.80394e-05
4.95233e-05
4.95229e-05
7.80488e-05
7.80372e-05
4.95195e-05
4.95191e-05
7.80468e-05
2.35446e-05
2.35454e-05
2.35435e-05
2.35443e-05
9.05933e-05
6.54945e-05
6.54911e-05
6.54876e-05
6.54846e-05
2.35454e-05
2.35445e-05
2.35443e-05
2.35435e-05
2.35462e-05
2.35471e-05
2.35442e-05
2.35451e-05
6.5496e-05
6.54899e-05
9.07379e-05
6.55026e-05
6.54966e-05
2.35471e-05
2.35462e-05
2.35452e-05
2.35442e-05
9.07356e-05
6.5504e-05
6.5498e-05
6.54975e-05
6.54915e-05
7.80437e-05
4.95229e-05
7.80332e-05
4.95234e-05
8.51516e-05
7.57712e-05
0.000107905
9.57221e-05
8.51485e-05
7.57848e-05
0.000107952
8.51493e-05
7.57635e-05
0.000107901
9.57067e-05
8.51465e-05
7.57769e-05
0.000107949
7.80335e-05
4.95272e-05
4.95266e-05
7.80446e-05
7.80309e-05
4.95235e-05
4.9523e-05
7.8042e-05
8.515e-05
9.57505e-05
7.57877e-05
0.000108019
7.57737e-05
0.000107991
8.51518e-05
8.51476e-05
9.57353e-05
7.57811e-05
0.000108014
7.57666e-05
0.000107986
8.51499e-05
6.54883e-05
6.54915e-05
9.07351e-05
6.54948e-05
6.54983e-05
2.35454e-05
2.35463e-05
2.35456e-05
2.35447e-05
9.07322e-05
6.54962e-05
6.54998e-05