/*--------------------------------*- C++ -*----------------------------------*\
| =========                 |                                                 |
| \\      /  F ield         | OpenFOAM: The Open Source CFD Toolbox           |
|  \\    /   O peration     | Version:  v2006                                 |
|   \\  /    A nd           | Website:  www.openfoam.com                      |
|    \\/     M anipulation  |                                                 |
\*---------------------------------------------------------------------------*/
FoamFile
{
    version     2.0;
    format      ascii;
    class       volScalarField;
    location    "375";
    object      epsilon;
}
// * * * * * * * * * * * * * * * * * * * * * * * * * * * * * * * * * * * * * //

dimensions      [0 2 -3 0 0 0 0];


internalField   nonuniform List<scalar> 
42616
(
6.67199e-07
1.19244e-06
1.19257e-06
1.42415e-06
6.71768e-07
1.19539e-06
1.19544e-06
1.42767e-06
6.77109e-07
1.19645e-06
1.19659e-06
1.42862e-06
6.80598e-07
1.198e-06
1.19807e-06
1.43104e-06
6.81981e-07
1.19448e-06
1.19461e-06
1.42681e-06
6.8755e-07
1.20108e-06
1.20114e-06
1.43416e-06
6.91933e-07
1.20331e-06
1.20341e-06
1.44374e-06
6.74123e-07
1.16069e-06
1.16085e-06
1.37614e-06
6.95447e-07
1.21432e-06
1.21441e-06
1.45167e-06
7.30418e-07
1.26036e-06
1.26042e-06
1.5334e-06
6.71049e-07
1.13474e-06
1.13485e-06
1.37274e-06
6.06534e-07
1.05123e-06
1.05135e-06
1.23916e-06
6.42937e-07
1.13552e-06
1.13562e-06
1.35375e-06
7.56479e-07
1.28233e-06
1.28242e-06
1.55146e-06
7.77314e-07
1.29637e-06
1.29646e-06
1.59047e-06
7.00592e-07
1.18367e-06
1.18377e-06
1.45923e-06
6.1874e-07
1.07849e-06
1.07859e-06
1.31312e-06
5.86249e-07
1.03732e-06
1.03742e-06
1.25762e-06
5.84431e-07
1.03568e-06
1.03577e-06
1.26538e-06
5.98185e-07
1.04782e-06
1.0479e-06
1.28777e-06
5.86657e-07
1.00136e-06
1.00141e-06
1.25604e-06
1.42276e-06
1.19272e-06
1.19251e-06
1.42253e-06
1.19255e-06
1.19268e-06
1.19249e-06
1.19264e-06
1.42272e-06
1.19263e-06
1.19248e-06
1.42267e-06
1.42422e-06
1.42463e-06
1.19263e-06
1.19245e-06
1.19416e-06
1.19414e-06
1.42402e-06
1.42479e-06
1.19246e-06
1.1926e-06
1.19396e-06
1.19419e-06
1.19259e-06
1.1942e-06
1.1943e-06
1.42419e-06
1.42479e-06
1.19242e-06
1.19423e-06
1.19412e-06
1.42489e-06
1.42746e-06
1.42743e-06
1.19539e-06
1.19535e-06
1.19678e-06
1.19661e-06
1.42763e-06
1.42719e-06
1.1952e-06
1.19542e-06
1.1966e-06
1.19675e-06
1.19549e-06
1.1966e-06
1.1967e-06
1.42762e-06
1.42738e-06
1.19531e-06
1.19672e-06
1.19654e-06
1.42724e-06
1.42882e-06
1.42804e-06
1.19666e-06
1.19647e-06
1.19742e-06
1.19731e-06
1.42858e-06
1.42806e-06
1.19649e-06
1.19662e-06
1.19724e-06
1.19741e-06
1.19659e-06
1.19733e-06
1.19754e-06
1.42876e-06
1.42811e-06
1.19642e-06
1.19741e-06
1.19737e-06
1.42833e-06
1.43071e-06
1.42604e-06
1.19806e-06
1.19797e-06
1.19642e-06
1.19628e-06
1.43079e-06
1.42599e-06
1.19788e-06
1.19807e-06
1.19624e-06
1.19642e-06
1.19818e-06
1.19629e-06
1.19636e-06
1.43081e-06
1.42612e-06
1.19801e-06
1.19641e-06
1.1962e-06
1.42598e-06
1.42692e-06
1.42723e-06
1.19462e-06
1.19447e-06
1.19584e-06
1.19574e-06
1.42684e-06
1.42721e-06
1.19445e-06
1.19462e-06
1.19567e-06
1.19584e-06
1.19455e-06
1.19575e-06
1.19589e-06
1.42698e-06
1.42729e-06
1.19438e-06
1.19584e-06
1.19572e-06
1.42734e-06
1.43392e-06
1.44517e-06
1.20113e-06
1.20107e-06
1.20759e-06
1.2075e-06
1.43398e-06
1.44517e-06
1.20095e-06
1.20113e-06
1.20741e-06
1.20757e-06
1.20127e-06
1.20749e-06
1.20765e-06
1.434e-06
1.44522e-06
1.2011e-06
1.20756e-06
1.20749e-06
1.4453e-06
1.44369e-06
1.37711e-06
1.20346e-06
1.20333e-06
1.1656e-06
1.16544e-06
1.44365e-06
1.37698e-06
1.20329e-06
1.20344e-06
1.16544e-06
1.1656e-06
1.20344e-06
1.16542e-06
1.16549e-06
1.44371e-06
1.37715e-06
1.20328e-06
1.16558e-06
1.16535e-06
1.37699e-06
1.37625e-06
1.42355e-06
1.16085e-06
1.16071e-06
1.18713e-06
1.18706e-06
1.37614e-06
1.42359e-06
1.16069e-06
1.16086e-06
1.18693e-06
1.18716e-06
1.16076e-06
1.18704e-06
1.18717e-06
1.3763e-06
1.42369e-06
1.16063e-06
1.18716e-06
1.187e-06
1.42366e-06
1.45153e-06
1.53146e-06
1.21442e-06
1.21435e-06
1.26157e-06
1.26151e-06
1.45159e-06
1.53149e-06
1.21421e-06
1.21443e-06
1.26138e-06
1.26158e-06
1.21449e-06
1.2615e-06
1.26175e-06
1.45166e-06
1.53152e-06
1.2143e-06
1.26155e-06
1.26154e-06
1.5318e-06
1.53307e-06
1.39475e-06
1.26043e-06
1.26036e-06
1.17525e-06
1.17519e-06
1.5331e-06
1.39481e-06
1.26024e-06
1.26044e-06
1.17514e-06
1.17529e-06
1.26061e-06
1.17522e-06
1.17536e-06
1.53312e-06
1.39488e-06
1.26041e-06
1.17532e-06
1.17524e-06
1.395e-06
1.37254e-06
1.2405e-06
1.13476e-06
1.13469e-06
1.05599e-06
1.05586e-06
1.37261e-06
1.24043e-06
1.13465e-06
1.13479e-06
1.05585e-06
1.05597e-06
1.1348e-06
1.05586e-06
1.05588e-06
1.37265e-06
1.24055e-06
1.1347e-06
1.05599e-06
1.05577e-06
1.24035e-06
1.23934e-06
1.31673e-06
1.05137e-06
1.05124e-06
1.09626e-06
1.0961e-06
1.23926e-06
1.31658e-06
1.05122e-06
1.05134e-06
1.09604e-06
1.09621e-06
1.05125e-06
1.09603e-06
1.09621e-06
1.23937e-06
1.31669e-06
1.05113e-06
1.09614e-06
1.09599e-06
1.31668e-06
1.35376e-06
1.52515e-06
1.13576e-06
1.13561e-06
1.25765e-06
1.25755e-06
1.35363e-06
1.52512e-06
1.13553e-06
1.13571e-06
1.25743e-06
1.25765e-06
1.13575e-06
1.25748e-06
1.25772e-06
1.35373e-06
1.5252e-06
1.13552e-06
1.25757e-06
1.25749e-06
1.52534e-06
1.55129e-06
1.59126e-06
1.28249e-06
1.28241e-06
1.30276e-06
1.30271e-06
1.55128e-06
1.59133e-06
1.28228e-06
1.2825e-06
1.30257e-06
1.3028e-06
1.28256e-06
1.30266e-06
1.30284e-06
1.55135e-06
1.5914e-06
1.28236e-06
1.30275e-06
1.30267e-06
1.59149e-06
1.59027e-06
1.4724e-06
1.29644e-06
1.29641e-06
1.21654e-06
1.2165e-06
1.59034e-06
1.47244e-06
1.29627e-06
1.2965e-06
1.2164e-06
1.21659e-06
1.29653e-06
1.21649e-06
1.21661e-06
1.5904e-06
1.47251e-06
1.29637e-06
1.21658e-06
1.21648e-06
1.47255e-06
1.4591e-06
1.31989e-06
1.18371e-06
1.18366e-06
1.09804e-06
1.09795e-06
1.45914e-06
1.31986e-06
1.18357e-06
1.18375e-06
1.0979e-06
1.09804e-06
1.18376e-06
1.09796e-06
1.09807e-06
1.45918e-06
1.31994e-06
1.18364e-06
1.09805e-06
1.09793e-06
1.31998e-06
1.31304e-06
1.25728e-06
1.07857e-06
1.07849e-06
1.04244e-06
1.04234e-06
1.31302e-06
1.25723e-06
1.07843e-06
1.07857e-06
1.04228e-06
1.04243e-06
1.0786e-06
1.04232e-06
1.04245e-06
1.31308e-06
1.25731e-06
1.07846e-06
1.04241e-06
1.0423e-06
1.25734e-06
1.25756e-06
1.25931e-06
1.03745e-06
1.03735e-06
1.03359e-06
1.0335e-06
1.25751e-06
1.25927e-06
1.03729e-06
1.03745e-06
1.03342e-06
1.0336e-06
1.03746e-06
1.03346e-06
1.0336e-06
1.25759e-06
1.25936e-06
1.03731e-06
1.03355e-06
1.03345e-06
1.25938e-06
1.2653e-06
1.2832e-06
1.03581e-06
1.03573e-06
1.04586e-06
1.04578e-06
1.26528e-06
1.28318e-06
1.03565e-06
1.03582e-06
1.04569e-06
1.04587e-06
1.03582e-06
1.04574e-06
1.04588e-06
1.26536e-06
1.28326e-06
1.03566e-06
1.04582e-06
1.04571e-06
1.28329e-06
1.28769e-06
1.27642e-06
1.04794e-06
1.04786e-06
1.03149e-06
1.03137e-06
1.28768e-06
1.2764e-06
1.04777e-06
1.04794e-06
1.03137e-06
1.03142e-06
1.04795e-06
1.03143e-06
1.03144e-06
1.28775e-06
1.27644e-06
1.0478e-06
1.03147e-06
1.03134e-06
1.27644e-06
1.25606e-06
1.0014e-06
1.00128e-06
1.25603e-06
1.00132e-06
1.00133e-06
5.86615e-07
5.8665e-07
5.86606e-07
1.00134e-06
1.25608e-06
1.00127e-06
6.66423e-07
6.6632e-07
6.66484e-07
6.66414e-07
4.23824e-06
9.57268e-06
4.23828e-06
9.58074e-06
1.91083e-05
1.91269e-05
4.23831e-06
9.57423e-06
4.23842e-06
9.58217e-06
6.67112e-07
6.67268e-07
6.67199e-07
6.70238e-07
6.70262e-07
6.70365e-07
6.70343e-07
2.29711e-06
3.64786e-06
9.41579e-07
1.19251e-06
2.29753e-06
3.64883e-06
9.42009e-07
1.91097e-05
1.91278e-05
2.29711e-06
9.4168e-07
3.64804e-06
1.19263e-06
2.29759e-06
9.42086e-07
3.64881e-06
5.64907e-06
5.65073e-06
1.42231e-06
5.65443e-06
5.65605e-06
4.24777e-06
9.59501e-06
4.24617e-06
9.5971e-06
1.91435e-05
1.91461e-05
4.24785e-06
9.59647e-06
4.24618e-06
9.59862e-06
6.71818e-07
6.71911e-07
6.71901e-07
6.76166e-07
6.76139e-07
6.7627e-07
6.7622e-07
2.30246e-06
3.65728e-06
9.45112e-07
1.19627e-06
2.30146e-06
3.65716e-06
9.46298e-07
1.91453e-05
1.91481e-05
2.30246e-06
9.45155e-07
3.65724e-06
1.19634e-06
2.30141e-06
9.46352e-07
3.65721e-06
5.66531e-06
5.66699e-06
1.42747e-06
5.6636e-06
5.66531e-06
4.24242e-06
9.59416e-06
4.24379e-06
9.59926e-06
1.91468e-05
1.91648e-05
4.24262e-06
9.59576e-06
4.24401e-06
9.60081e-06
6.77061e-07
6.77199e-07
6.77141e-07
6.7965e-07
6.7961e-07
6.79737e-07
6.79701e-07
2.29856e-06
3.65197e-06
9.4755e-07
1.19641e-06
2.29981e-06
3.65137e-06
9.47668e-07
1.91487e-05
1.91661e-05
2.29863e-06
9.4765e-07
3.65228e-06
1.19654e-06
2.2999e-06
9.47766e-07
3.65153e-06
5.65525e-06
5.65691e-06
1.42619e-06
5.65835e-06
5.66e-06
4.25184e-06
9.6169e-06
4.25011e-06
9.61834e-06
1.91895e-05
1.9188e-05
4.25185e-06
9.61838e-06
4.25014e-06
9.61982e-06
6.80564e-07
6.80688e-07
6.80662e-07
6.81939e-07
6.81912e-07
6.82045e-07
6.82001e-07
2.3038e-06
3.66231e-06
9.49478e-07
1.19814e-06
2.30284e-06
3.66282e-06
9.49886e-07
1.91909e-05
1.91894e-05
2.30375e-06
9.49542e-07
3.66219e-06
1.19822e-06
2.30281e-06
9.49948e-07
3.6627e-06
5.67818e-06
5.67987e-06
1.43037e-06
5.67724e-06
5.67896e-06
4.2293e-06
9.59718e-06
4.23609e-06
9.5986e-06
1.91627e-05
1.91859e-05
4.22947e-06
9.59872e-06
4.23625e-06
9.60014e-06
6.81961e-07
6.82093e-07
6.82049e-07
6.84586e-07
6.84626e-07
6.8473e-07
6.84731e-07
2.28779e-06
3.64416e-06
9.48511e-07
1.19372e-06
2.29338e-06
3.63767e-06
9.47872e-07
1.91646e-05
1.91873e-05
2.28785e-06
9.48595e-07
3.64443e-06
1.19385e-06
2.29341e-06
9.47959e-07
3.63788e-06
5.64348e-06
5.64514e-06
1.4217e-06
5.63845e-06
5.64009e-06
4.29259e-06
9.66889e-06
4.26149e-06
9.6989e-06
1.92849e-05
1.9307e-05
4.2926e-06
9.67039e-06
4.26157e-06
9.7004e-06
6.8757e-07
6.87672e-07
6.8767e-07
6.92553e-07
6.92518e-07
6.92634e-07
6.92597e-07
2.32583e-06
3.67323e-06
9.51867e-07
1.20581e-06
2.30558e-06
3.70061e-06
9.55651e-07
1.92858e-05
1.93078e-05
2.32582e-06
9.51938e-07
3.67322e-06
1.20586e-06
2.30563e-06
9.55717e-07
3.70048e-06
5.70547e-06
5.70713e-06
1.44314e-06
5.74109e-06
5.74281e-06
4.1993e-06
9.62448e-06
4.27888e-06
9.52131e-06
1.91692e-05
1.90605e-05
4.19944e-06
9.62603e-06
4.27892e-06
9.5229e-06
6.91889e-07
6.92012e-07
6.91963e-07
6.77127e-07
6.77075e-07
6.77225e-07
6.77137e-07
2.26813e-06
3.68248e-06
9.5612e-07
1.19042e-06
2.31638e-06
3.60907e-06
9.48765e-07
1.91709e-05
1.90617e-05
2.26807e-06
9.56193e-07
3.68255e-06
1.19055e-06
2.31634e-06
9.48856e-07
3.60916e-06
5.69493e-06
5.69662e-06
1.41353e-06
5.58818e-06
5.58985e-06
4.14805e-06
9.47628e-06
4.11966e-06
9.59408e-06
1.90875e-05
1.92792e-05
4.1482e-06
9.4778e-06
4.11988e-06
9.59547e-06
6.74082e-07
6.74229e-07
6.74147e-07
6.81449e-07
6.81449e-07
6.81567e-07
6.81536e-07
2.22309e-06
3.53735e-06
9.25601e-07
1.16079e-06
2.21054e-06
3.56146e-06
9.25192e-07
1.90891e-05
1.92797e-05
2.22329e-06
9.25726e-07
3.53763e-06
1.16095e-06
2.21068e-06
9.25318e-07
3.56169e-06
5.50916e-06
5.51082e-06
1.37484e-06
5.56796e-06
5.56964e-06
4.45421e-06
9.88824e-06
4.35127e-06
9.99308e-06
1.96194e-05
1.97003e-05
4.45419e-06
9.88959e-06
4.35128e-06
9.99455e-06
6.95464e-07
6.95569e-07
6.95566e-07
7.2883e-07
7.28857e-07
7.28952e-07
7.28997e-07
2.42762e-06
3.74491e-06
9.62319e-07
1.23891e-06
2.35708e-06
3.83833e-06
9.81523e-07
1.96203e-05
1.97009e-05
2.42751e-06
9.62398e-07
3.74504e-06
1.23898e-06
2.35718e-06
9.81579e-07
3.83822e-06
5.81925e-06
5.82084e-06
1.50012e-06
5.93901e-06
5.94061e-06
4.36448e-06
9.90283e-06
4.49011e-06
9.67366e-06
1.94808e-05
1.91741e-05
4.36473e-06
9.9046e-06
4.49022e-06
9.67553e-06
7.30444e-07
7.30541e-07
7.30586e-07
6.95021e-07
6.95013e-07
6.9513e-07
6.95111e-07
2.37022e-06
3.87841e-06
1.00048e-06
1.2485e-06
2.44842e-06
3.77854e-06
9.92064e-07
1.9482e-05
1.91746e-05
2.37007e-06
1.00051e-06
3.87823e-06
1.24856e-06
2.44823e-06
9.9211e-07
3.77835e-06
5.97093e-06
5.97262e-06
1.49509e-06
5.80846e-06
5.81031e-06
3.95887e-06
9.2963e-06
4.07973e-06
9.19786e-06
1.87463e-05
1.868e-05
3.95904e-06
9.29795e-06
4.07999e-06
9.19933e-06
6.7102e-07
6.71137e-07
6.71096e-07
6.13288e-07
6.13243e-07
6.13355e-07
6.1328e-07
2.0849e-06
3.51966e-06
9.0097e-07
1.09783e-06
2.17546e-06
3.39847e-06
8.70647e-07
1.87474e-05
1.86808e-05
2.08508e-06
9.01074e-07
3.51986e-06
1.09794e-06
2.17563e-06
8.70756e-07
3.39866e-06
5.4716e-06
5.47348e-06
1.29173e-06
5.33493e-06
5.3367e-06
3.97851e-06
9.26302e-06
3.90835e-06
9.4243e-06
1.88566e-05
1.91208e-05
3.9785e-06
9.26428e-06
3.90841e-06
9.42555e-06
6.06483e-07
6.06594e-07
6.06522e-07
6.18384e-07
6.18343e-07
6.18455e-07
6.18418e-07
2.07788e-06
3.33727e-06
8.31571e-07
1.05267e-06
2.03827e-06
3.38661e-06
8.32943e-07
1.8858e-05
1.91213e-05
2.07785e-06
8.31664e-07
3.33749e-06
1.05279e-06
2.03842e-06
8.33032e-07
3.38664e-06
5.285e-06
5.28655e-06
1.2459e-06
5.37094e-06
5.37238e-06
4.31865e-06
9.77148e-06
4.18346e-06
9.97677e-06
1.95834e-05
1.9848e-05
4.31868e-06
9.7728e-06
4.1835e-06
9.97817e-06
6.42912e-07
6.43023e-07
6.43007e-07
7.32628e-07
7.32623e-07
7.32734e-07
7.32746e-07
2.3279e-06
3.58082e-06
9.02884e-07
1.17956e-06
2.22865e-06
3.70769e-06
9.3905e-07
1.95848e-05
1.98486e-05
2.32778e-06
9.02927e-07
3.58092e-06
1.17965e-06
2.22861e-06
9.39099e-07
3.70763e-06
5.61825e-06
5.61969e-06
1.42861e-06
5.77651e-06
5.778e-06
4.56963e-06
1.02119e-05
4.50574e-06
1.0256e-05
2.01002e-05
2.01267e-05
4.56972e-06
1.02134e-05
4.50582e-06
1.02576e-05
7.56491e-07
7.56603e-07
7.56608e-07
7.79724e-07
7.79731e-07
7.79842e-07
7.79829e-07
2.50649e-06
3.89263e-06
1.02539e-06
1.29691e-06
2.4636e-06
3.95523e-06
1.0356e-06
2.01013e-05
2.01277e-05
2.50648e-06
1.02546e-06
3.89268e-06
1.297e-06
2.46358e-06
1.03568e-06
3.95523e-06
6.00976e-06
6.01136e-06
1.57982e-06
6.08804e-06
6.08976e-06
4.48534e-06
1.01283e-05
4.56886e-06
9.95854e-06
1.98847e-05
1.96579e-05
4.48548e-06
1.01301e-05
4.56902e-06
9.96029e-06
7.77322e-07
7.77431e-07
7.77415e-07
7.2399e-07
7.23998e-07
7.24099e-07
7.24072e-07
2.44883e-06
3.96766e-06
1.02781e-06
1.27526e-06
2.50468e-06
3.89023e-06
1.00613e-06
1.98857e-05
1.96586e-05
2.44885e-06
1.02789e-06
3.96774e-06
1.27535e-06
2.50479e-06
1.00623e-06
3.89032e-06
6.08432e-06
6.08619e-06
1.55144e-06
5.96979e-06
5.97168e-06
4.20904e-06
9.65736e-06
4.30893e-06
9.52901e-06
1.92447e-05
1.91005e-05
4.20918e-06
9.65903e-06
4.3091e-06
9.53061e-06
7.00585e-07
7.00685e-07
7.00655e-07
6.34388e-07
6.34379e-07
6.34478e-07
6.34448e-07
2.24295e-06
3.72822e-06
9.27889e-07
1.15094e-06
2.32009e-06
3.62014e-06
9.00103e-07
1.92459e-05
1.91016e-05
2.24293e-06
9.27965e-07
3.72836e-06
1.15103e-06
2.32018e-06
9.00187e-07
3.62016e-06
5.76302e-06
5.76487e-06
1.38738e-06
5.6351e-06
5.63687e-06
4.06048e-06
9.4037e-06
4.09521e-06
9.38815e-06
1.89533e-05
1.89505e-05
4.0606e-06
9.40519e-06
4.09535e-06
9.3896e-06
6.18721e-07
6.18821e-07
6.18792e-07
5.90345e-07
5.90329e-07
5.90433e-07
5.90404e-07
2.1166e-06
3.51171e-06
8.41872e-07
1.06233e-06
2.14988e-06
3.46791e-06
8.30069e-07
1.89541e-05
1.89513e-05
2.11659e-06
8.41939e-07
3.51179e-06
1.06243e-06
2.14992e-06
8.30144e-07
3.46798e-06
5.51602e-06
5.51768e-06
1.2771e-06
5.47446e-06
5.47609e-06
4.06362e-06
9.40997e-06
4.04857e-06
9.45215e-06
1.89956e-05
1.90702e-05
4.06375e-06
9.4114e-06
4.04868e-06
9.4536e-06
5.86227e-07
5.86334e-07
5.86304e-07
5.83126e-07
5.83111e-07
5.83215e-07
5.83186e-07
2.09959e-06
3.45621e-06
8.13189e-07
1.03418e-06
2.09755e-06
3.46064e-06
8.1107e-07
1.89966e-05
1.90713e-05
2.0996e-06
8.13258e-07
3.4563e-06
1.03428e-06
2.09757e-06
8.11142e-07
3.4607e-06
5.47212e-06
5.47372e-06
1.25295e-06
5.48661e-06
5.48822e-06
4.11826e-06
9.51296e-06
4.09592e-06
9.55454e-06
1.91602e-05
1.92276e-05
4.11833e-06
9.51441e-06
4.09602e-06
9.55606e-06
5.8442e-07
5.84522e-07
5.84491e-07
5.95323e-07
5.95315e-07
5.95406e-07
5.95381e-07
2.13169e-06
3.49711e-06
8.11205e-07
1.039e-06
2.12089e-06
3.50872e-06
8.13027e-07
1.91609e-05
1.92282e-05
2.13172e-06
8.1128e-07
3.49717e-06
1.03908e-06
2.12091e-06
8.13093e-07
3.50878e-06
5.53857e-06
5.54018e-06
1.27216e-06
5.55976e-06
5.56135e-06
4.14821e-06
9.58075e-06
4.14048e-06
9.60167e-06
1.9266e-05
1.93074e-05
4.14836e-06
9.58216e-06
4.14061e-06
9.60308e-06
5.98175e-07
5.9826e-07
5.98231e-07
5.95163e-07
5.95137e-07
5.95184e-07
5.95152e-07
2.15024e-06
3.54041e-06
8.16801e-07
1.04693e-06
2.14986e-06
3.53303e-06
8.16971e-07
1.92666e-05
1.9308e-05
2.15023e-06
8.16877e-07
3.54048e-06
1.047e-06
2.14985e-06
8.17025e-07
3.53305e-06
5.59827e-06
5.59989e-06
1.2887e-06
5.60528e-06
5.60685e-06
3.3822e-06
8.81407e-06
4.10299e-06
5.73495e-06
1.70795e-05
8.48922e-06
3.38219e-06
8.81523e-06
4.1031e-06
5.7352e-06
2.98862e-07
4.31782e-07
4.31747e-07
6.29505e-07
3.01431e-07
4.5054e-07
4.50522e-07
2.07125e-06
3.4535e-06
7.93535e-07
9.54088e-07
2.12619e-06
3.55127e-06
7.39279e-07
1.70799e-05
8.48933e-06
2.07121e-06
7.93575e-07
3.45354e-06
9.54121e-07
2.12617e-06
7.39306e-07
3.55126e-06
5.53146e-06
5.53334e-06
1.20658e-06
5.16197e-06
5.16259e-06
1.91037e-05
1.90969e-05
1.91072e-05
1.91004e-05
1.42518e-06
5.64842e-06
5.65028e-06
5.65155e-06
5.65342e-06
4.24112e-06
9.57194e-06
9.57137e-06
4.23886e-06
4.24102e-06
9.57207e-06
9.57127e-06
4.23878e-06
2.29957e-06
1.19276e-06
3.64792e-06
9.41438e-07
3.65098e-06
9.41194e-07
2.29785e-06
2.29949e-06
1.19255e-06
3.6481e-06
9.41339e-07
3.65105e-06
9.41097e-07
2.29776e-06
1.91063e-05
1.90986e-05
1.42504e-06
5.64982e-06
5.64833e-06
5.65278e-06
5.65096e-06
1.91052e-05
1.90975e-05
4.24132e-06
9.57351e-06
9.57296e-06
4.23902e-06
2.29965e-06
1.19258e-06
3.64849e-06
9.41437e-07
3.65154e-06
9.41195e-07
2.29791e-06
4.2414e-06
9.57299e-06
9.57234e-06
4.2389e-06
2.29955e-06
1.19272e-06
9.41452e-07
3.6483e-06
9.41211e-07
3.65131e-06
2.29782e-06
2.29941e-06
1.19253e-06
3.64777e-06
9.4136e-07
3.65066e-06
9.4112e-07
2.29777e-06
4.24094e-06
9.57262e-06
9.57153e-06
4.23879e-06
2.29936e-06
1.19267e-06
9.41393e-07
3.6479e-06
9.41154e-07
3.65069e-06
2.29773e-06
4.24086e-06
9.5727e-06
9.57166e-06
4.23872e-06
1.91078e-05
1.91007e-05
1.42517e-06
5.65015e-06
5.64864e-06
5.65313e-06
5.65146e-06
1.91058e-05
1.90984e-05
2.29949e-06
1.19267e-06
9.41473e-07
3.64796e-06
9.41231e-07
3.65089e-06
2.29784e-06
2.29945e-06
1.19251e-06
9.414e-07
3.64842e-06
9.4116e-07
3.6512e-06
2.2978e-06
4.24106e-06
9.57293e-06
9.57194e-06
4.2389e-06
4.24102e-06
9.57353e-06
9.57253e-06
4.23888e-06
1.42513e-06
5.64867e-06
5.65035e-06
5.65113e-06
5.65284e-06
1.91064e-05
1.90985e-05
1.91087e-05
1.91009e-05
1.91056e-05
1.91234e-05
1.9109e-05
1.91268e-05
5.64862e-06
5.65047e-06
1.42215e-06
5.65311e-06
5.65492e-06
1.91411e-05
1.91266e-05
1.91445e-05
1.91299e-05
1.42448e-06
5.66383e-06
5.66564e-06
5.65721e-06
5.659e-06
4.23821e-06
9.57295e-06
4.2382e-06
9.58143e-06
2.29693e-06
3.64795e-06
9.41625e-07
1.19267e-06
2.29758e-06
3.64843e-06
9.4199e-07
2.29688e-06
3.64823e-06
9.41537e-07
1.19252e-06
2.29751e-06
3.64898e-06
9.41926e-07
4.23943e-06
9.59372e-06
9.58336e-06
4.24465e-06
4.23941e-06
9.59419e-06
9.5841e-06
4.24464e-06
2.29757e-06
1.19305e-06
3.65504e-06
9.43768e-07
3.65042e-06
9.42721e-07
2.30013e-06
2.29754e-06
1.19297e-06
3.65569e-06
9.43728e-07
3.65118e-06
9.42671e-07
2.3001e-06
5.65037e-06
5.64866e-06
1.42213e-06
5.65527e-06
5.6542e-06
1.91073e-05
1.91259e-05
1.91435e-05
1.91299e-05
1.42458e-06
5.66577e-06
5.66457e-06
5.6599e-06
5.65831e-06
1.91424e-05
1.9129e-05
2.29694e-06
3.64851e-06
9.4162e-07
1.1925e-06
2.29764e-06
3.64896e-06
9.41967e-07
4.23825e-06
9.57378e-06
4.23843e-06
9.58199e-06
2.29687e-06
9.4164e-07
3.64835e-06
1.19265e-06
2.29752e-06
9.41999e-07
3.64893e-06
4.23945e-06
9.59516e-06
9.58477e-06
4.24463e-06
2.29755e-06
1.19286e-06
3.65554e-06
9.43726e-07
3.65092e-06
9.4269e-07
2.30007e-06
4.23954e-06
9.59487e-06
9.58462e-06
4.24457e-06
2.29746e-06
1.19305e-06
9.43771e-07
3.65559e-06
9.42731e-07
3.65099e-06
2.30003e-06
4.23865e-06
9.5736e-06
4.23831e-06
9.58251e-06
2.29706e-06
9.41612e-07
3.64802e-06
1.19266e-06
2.29747e-06
9.42039e-07
3.64893e-06
4.23855e-06
9.57363e-06
4.23823e-06
9.58223e-06
2.29783e-06
1.193e-06
3.65563e-06
9.43853e-07
3.65106e-06
9.42777e-07
2.30042e-06
4.24003e-06
9.59487e-06
9.58519e-06
4.24511e-06
2.29776e-06
1.19313e-06
9.43876e-07
3.65541e-06
9.42805e-07
3.65112e-06
2.30035e-06
4.2399e-06
9.59437e-06
9.58481e-06
4.24498e-06
5.6504e-06
5.64894e-06
1.42221e-06
5.65521e-06
5.65398e-06
1.91077e-05
1.9126e-05
1.91452e-05
1.9131e-05
1.4246e-06
5.66586e-06
5.66445e-06
5.65935e-06
5.65813e-06
1.91429e-05
1.91291e-05
2.29708e-06
9.4161e-07
3.64851e-06
1.19249e-06
2.29755e-06
9.42024e-07
3.64941e-06
4.23863e-06
9.57385e-06
4.2384e-06
9.5825e-06
4.23859e-06
9.57444e-06
4.23837e-06
9.58296e-06
2.2978e-06
1.19306e-06
9.43901e-07
3.6555e-06
9.42838e-07
3.65097e-06
2.30036e-06
2.29776e-06
1.19295e-06
9.43844e-07
3.65589e-06
9.4278e-07
3.65155e-06
2.30031e-06
4.23995e-06
9.59496e-06
9.58513e-06
4.24502e-06
4.23989e-06
9.59514e-06
9.58554e-06
4.24496e-06
1.91084e-05
1.91266e-05
1.91107e-05
1.91289e-05
1.42473e-06
5.66412e-06
5.6658e-06
5.65843e-06
5.66005e-06
1.91424e-05
1.91295e-05
1.91448e-05
1.91318e-05
1.91413e-05
1.91443e-05
1.91447e-05
1.91477e-05
5.66535e-06
5.66717e-06
1.42739e-06
5.66442e-06
5.66625e-06
1.91443e-05
1.91428e-05
1.91477e-05
1.91463e-05
1.4295e-06
5.65606e-06
5.6579e-06
5.66317e-06
5.66501e-06
4.24772e-06
9.59537e-06
4.24615e-06
9.59712e-06
2.30249e-06
3.65691e-06
9.45017e-07
1.19633e-06
2.30127e-06
3.6571e-06
9.4623e-07
2.30243e-06
3.65746e-06
9.4498e-07
1.19625e-06
2.30124e-06
3.65736e-06
9.46184e-07
4.24778e-06
9.59447e-06
9.59667e-06
4.24494e-06
4.24771e-06
9.59424e-06
9.59659e-06
4.24484e-06
2.30262e-06
1.19675e-06
3.65285e-06
9.47485e-07
3.65704e-06
9.47095e-07
2.30055e-06
2.30256e-06
1.1966e-06
3.65278e-06
9.47401e-07
3.65727e-06
9.47027e-07
2.30045e-06
5.66732e-06
5.66585e-06
1.42748e-06
5.66564e-06
5.66427e-06
1.91424e-05
1.91448e-05
1.91461e-05
1.91443e-05
1.42952e-06
5.65699e-06
5.65543e-06
5.66447e-06
5.66269e-06
1.91446e-05
1.91431e-05
2.30248e-06
3.65741e-06
9.44975e-07
1.19615e-06
2.30122e-06
3.65763e-06
9.46189e-07
4.24781e-06
9.59612e-06
4.24629e-06
9.59808e-06
2.30242e-06
9.45022e-07
3.65742e-06
1.19634e-06
2.30115e-06
9.4623e-07
3.65751e-06
4.24787e-06
9.59607e-06
9.59822e-06
4.24514e-06
2.30264e-06
1.19657e-06
3.65341e-06
9.4747e-07
3.65757e-06
9.47071e-07
2.30062e-06
4.2479e-06
9.59539e-06
9.59761e-06
4.24501e-06
2.30255e-06
1.19673e-06
9.4749e-07
3.6531e-06
9.471e-07
3.65742e-06
2.30054e-06
4.24774e-06
9.59596e-06
4.24648e-06
9.59743e-06
2.30237e-06
9.45129e-07
3.65699e-06
1.19635e-06
2.30137e-06
9.4631e-07
3.65678e-06
4.2476e-06
9.59542e-06
4.24634e-06
9.59698e-06
2.3025e-06
1.1966e-06
3.65235e-06
9.47443e-07
3.65695e-06
9.471e-07
2.30034e-06
4.24766e-06
9.59445e-06
9.59679e-06
4.24458e-06
2.30241e-06
1.1967e-06
9.47453e-07
3.65227e-06
9.47109e-07
3.65662e-06
2.30028e-06
4.24752e-06
9.59443e-06
9.59645e-06
4.24447e-06
5.66731e-06
5.66586e-06
1.42752e-06
5.66614e-06
5.66455e-06
1.9143e-05
1.91456e-05
1.91479e-05
1.91465e-05
1.42959e-06
5.65757e-06
5.65593e-06
5.66479e-06
5.66316e-06
1.91456e-05
1.91441e-05
2.30239e-06
9.45094e-07
3.65746e-06
1.19618e-06
2.30135e-06
9.46281e-07
3.65729e-06
4.24775e-06
9.59608e-06
4.24642e-06
9.59773e-06
4.24766e-06
9.59621e-06
4.24634e-06
9.59781e-06
2.30253e-06
1.19671e-06
9.47536e-07
3.65264e-06
9.47176e-07
3.65709e-06
2.30041e-06
2.30245e-06
1.19653e-06
9.47448e-07
3.65278e-06
9.47093e-07
3.6571e-06
2.30035e-06
4.24769e-06
9.59495e-06
9.59717e-06
4.2447e-06
4.2476e-06
9.59528e-06
9.59729e-06
4.24463e-06
1.91424e-05
1.91449e-05
1.91448e-05
1.91473e-05
1.42948e-06
5.65547e-06
5.65715e-06
5.66214e-06
5.66384e-06
1.91457e-05
1.91434e-05
1.9148e-05
1.91458e-05
1.91449e-05
1.91619e-05
1.91484e-05
1.91653e-05
5.65563e-06
5.65747e-06
1.42622e-06
5.65759e-06
5.65943e-06
1.91862e-05
1.91658e-05
1.91897e-05
1.91692e-05
1.42809e-06
5.67402e-06
5.67586e-06
5.66197e-06
5.66381e-06
4.24232e-06
9.59401e-06
4.24367e-06
9.59959e-06
2.29865e-06
3.65244e-06
9.47606e-07
1.1966e-06
2.30005e-06
3.65153e-06
9.47713e-07
2.29856e-06
3.65247e-06
9.47516e-07
1.19642e-06
2.29996e-06
3.65171e-06
9.47625e-07
4.24283e-06
9.61484e-06
9.60211e-06
4.24802e-06
4.24275e-06
9.6156e-06
9.60259e-06
4.24801e-06
2.29895e-06
1.19675e-06
3.65897e-06
9.48706e-07
3.65303e-06
9.47997e-07
2.30127e-06
2.29887e-06
1.19659e-06
3.6596e-06
9.48647e-07
3.65342e-06
9.47921e-07
2.30123e-06
5.65682e-06
5.65504e-06
1.42603e-06
5.65906e-06
5.65769e-06
1.91456e-05
1.91638e-05
1.91895e-05
1.91688e-05
1.42799e-06
5.6762e-06
5.67509e-06
5.66405e-06
5.66255e-06
1.91887e-05
1.9168e-05
2.29873e-06
3.65299e-06
9.47597e-07
1.19643e-06
2.30013e-06
3.6521e-06
9.47702e-07
4.24254e-06
9.59512e-06
4.24403e-06
9.60044e-06
2.29865e-06
9.47614e-07
3.65272e-06
1.19657e-06
2.30001e-06
9.4772e-07
3.65189e-06
4.24301e-06
9.61633e-06
9.60364e-06
4.24807e-06
2.29901e-06
1.19657e-06
3.65952e-06
9.48685e-07
3.65359e-06
9.47985e-07
2.30128e-06
4.24301e-06
9.61613e-06
9.60334e-06
4.24797e-06
2.29892e-06
1.19672e-06
9.48718e-07
3.65955e-06
9.48009e-07
3.65347e-06
2.30122e-06
4.24234e-06
9.59428e-06
4.24345e-06
9.60033e-06
2.29852e-06
9.47566e-07
3.652e-06
1.19656e-06
2.29974e-06
9.47694e-07
3.65156e-06
4.24226e-06
9.59432e-06
4.24335e-06
9.60061e-06
2.29892e-06
1.19659e-06
3.65964e-06
9.4875e-07
3.6531e-06
9.47993e-07
2.30158e-06
4.2429e-06
9.61656e-06
9.60346e-06
4.24867e-06
2.29889e-06
1.19677e-06
9.48805e-07
3.65988e-06
9.48041e-07
3.65343e-06
2.30157e-06
4.24282e-06
9.61667e-06
9.60373e-06
4.24861e-06
5.65716e-06
5.65554e-06
1.42619e-06
5.65934e-06
5.65785e-06
1.91464e-05
1.91641e-05
1.91907e-05
1.917e-05
1.42809e-06
5.67614e-06
5.67484e-06
5.66391e-06
5.66253e-06
1.91887e-05
1.91681e-05
2.29858e-06
9.47564e-07
3.65247e-06
1.1964e-06
2.29983e-06
9.47692e-07
3.65207e-06
4.24244e-06
9.59475e-06
4.24359e-06
9.60055e-06
4.2424e-06
9.59517e-06
4.24351e-06
9.60141e-06
2.29898e-06
1.1967e-06
9.48822e-07
3.65947e-06
9.48081e-07
3.6532e-06
2.30156e-06
2.29895e-06
1.1966e-06
9.48791e-07
3.6604e-06
9.48034e-07
3.6539e-06
2.30157e-06
4.24297e-06
9.61651e-06
9.60358e-06
4.24861e-06
4.24294e-06
9.61744e-06
9.60453e-06
4.24864e-06
1.91468e-05
1.91655e-05
1.91491e-05
1.91677e-05
1.42822e-06
5.67549e-06
5.67717e-06
5.66339e-06
5.66503e-06
1.91894e-05
1.91696e-05
1.91918e-05
1.91719e-05
1.91865e-05
1.91853e-05
1.91899e-05
1.91887e-05
5.67688e-06
5.67871e-06
1.43007e-06
5.6767e-06
5.67854e-06
1.91634e-05
1.91786e-05
1.91668e-05
1.91821e-05
1.43166e-06
5.65e-06
5.65184e-06
5.67336e-06
5.6752e-06
4.25183e-06
9.61764e-06
4.2501e-06
9.61888e-06
2.30345e-06
3.66167e-06
9.49416e-07
1.1982e-06
2.30251e-06
3.66225e-06
9.49815e-07
2.30342e-06
3.6624e-06
9.49365e-07
1.19811e-06
2.30248e-06
3.6628e-06
9.49766e-07
4.25132e-06
9.60102e-06
9.61572e-06
4.2407e-06
4.25131e-06
9.60089e-06
9.616e-06
4.24062e-06
2.30318e-06
1.1979e-06
3.64817e-06
9.4953e-07
3.66129e-06
9.49851e-07
2.29624e-06
2.30315e-06
1.1978e-06
3.64821e-06
9.49471e-07
3.66181e-06
9.498e-07
2.29617e-06
5.67931e-06
5.67792e-06
1.43019e-06
5.67859e-06
5.67743e-06
1.91888e-05
1.91868e-05
1.91653e-05
1.91808e-05
1.43175e-06
5.65092e-06
5.64954e-06
5.67525e-06
5.67365e-06
1.91636e-05
1.91795e-05
2.30343e-06
3.66219e-06
9.49396e-07
1.19802e-06
2.30249e-06
3.66278e-06
9.49793e-07
4.25183e-06
9.61817e-06
4.25021e-06
9.61952e-06
2.30337e-06
9.49433e-07
3.66225e-06
1.19821e-06
2.30241e-06
9.49831e-07
3.66279e-06
4.25135e-06
9.60255e-06
9.61722e-06
4.24082e-06
2.30316e-06
1.19772e-06
3.64872e-06
9.49509e-07
3.66181e-06
9.4983e-07
2.29627e-06
4.25139e-06
9.60198e-06
9.61679e-06
4.24073e-06
2.30308e-06
1.19791e-06
9.49544e-07
3.6485e-06
9.49868e-07
3.6618e-06
2.29622e-06
4.25247e-06
9.6186e-06
4.25079e-06
9.61968e-06
2.30375e-06
9.49525e-07
3.66249e-06
1.19831e-06
2.30281e-06
9.49924e-07
3.66275e-06
4.25238e-06
9.61859e-06
4.25073e-06
9.61941e-06
2.30345e-06
1.19783e-06
3.64797e-06
9.49579e-07
3.66171e-06
9.49919e-07
2.29621e-06
4.25184e-06
9.60111e-06
9.61656e-06
4.24054e-06
2.30338e-06
1.19796e-06
9.49597e-07
3.64754e-06
9.49951e-07
3.66157e-06
2.29612e-06
4.25173e-06
9.60046e-06
9.61604e-06
4.24037e-06
5.67902e-06
5.67772e-06
1.43021e-06
5.67872e-06
5.67736e-06
1.91889e-05
1.91873e-05
1.91671e-05
1.91826e-05
1.43178e-06
5.6516e-06
5.65e-06
5.67525e-06
5.67382e-06
1.91647e-05
1.91803e-05
2.30373e-06
9.49508e-07
3.66297e-06
1.19814e-06
2.30281e-06
9.49906e-07
3.66327e-06
4.25239e-06
9.61853e-06
4.25073e-06
9.6197e-06
4.25239e-06
9.61938e-06
4.25075e-06
9.62021e-06
2.30341e-06
1.19791e-06
9.4965e-07
3.64815e-06
9.49982e-07
3.66168e-06
2.29621e-06
2.30338e-06
1.19779e-06
9.49582e-07
3.64805e-06
9.49934e-07
3.66206e-06
2.29613e-06
4.25177e-06
9.60153e-06
9.61671e-06
4.24055e-06
4.25175e-06
9.60125e-06
9.61685e-06
4.24041e-06
1.91894e-05
1.91869e-05
1.91918e-05
1.91893e-05
1.43185e-06
5.64885e-06
5.65054e-06
5.67318e-06
5.6749e-06
1.91635e-05
1.91792e-05
1.91658e-05
1.91816e-05
1.91609e-05
1.91833e-05
1.91643e-05
1.91867e-05
5.64455e-06
5.64638e-06
1.42185e-06
5.6391e-06
5.64092e-06
1.92662e-05
1.91947e-05
1.92696e-05
1.91981e-05
1.42386e-06
5.68509e-06
5.68688e-06
5.64255e-06
5.64436e-06
4.2292e-06
9.59704e-06
4.23599e-06
9.59862e-06
2.288e-06
3.64448e-06
9.48494e-07
1.19387e-06
2.29355e-06
3.63794e-06
9.47863e-07
2.28791e-06
3.64459e-06
9.48422e-07
1.19372e-06
2.29348e-06
3.63801e-06
9.47788e-07
4.22966e-06
9.65275e-06
9.60649e-06
4.24882e-06
4.22956e-06
9.65343e-06
9.60672e-06
4.24879e-06
2.28813e-06
1.19403e-06
3.65941e-06
9.48654e-07
3.63886e-06
9.47853e-07
2.29807e-06
2.28805e-06
1.19389e-06
3.65987e-06
9.48586e-07
3.63904e-06
9.47779e-07
2.29802e-06
5.64577e-06
5.64402e-06
1.42171e-06
5.6402e-06
5.63875e-06
1.91612e-05
1.91846e-05
1.92701e-05
1.91973e-05
1.42374e-06
5.68709e-06
5.68595e-06
5.6441e-06
5.64243e-06
1.92686e-05
1.91963e-05
2.28807e-06
3.64501e-06
9.48478e-07
1.19369e-06
2.2936e-06
3.63848e-06
9.47846e-07
4.22937e-06
9.59814e-06
4.23626e-06
9.59965e-06
2.288e-06
9.48508e-07
3.6448e-06
1.19386e-06
2.29352e-06
9.47873e-07
3.63828e-06
4.22983e-06
9.65425e-06
9.60802e-06
4.24891e-06
2.2882e-06
1.19385e-06
3.65995e-06
9.48633e-07
3.6394e-06
9.47837e-07
2.2981e-06
4.22977e-06
9.654e-06
9.60762e-06
4.24873e-06
2.28812e-06
1.19402e-06
9.48662e-07
3.65992e-06
9.47864e-07
3.63923e-06
2.29804e-06
4.22897e-06
9.59724e-06
4.23578e-06
9.59891e-06
2.28771e-06
9.48512e-07
3.6438e-06
1.19381e-06
2.29327e-06
9.47875e-07
3.63742e-06
4.22881e-06
9.59665e-06
4.2356e-06
9.59861e-06