/*--------------------------------*- C++ -*----------------------------------*\
| =========                 |                                                 |
| \\      /  F ield         | OpenFOAM: The Open Source CFD Toolbox           |
|  \\    /   O peration     | Version:  v2006                                 |
|   \\  /    A nd           | Website:  www.openfoam.com                      |
|    \\/     M anipulation  |                                                 |
\*---------------------------------------------------------------------------*/
FoamFile
{
    version     2.0;
    format      ascii;
    class       volScalarField;
    location    "375";
    object      k;
}
// * * * * * * * * * * * * * * * * * * * * * * * * * * * * * * * * * * * * * //

dimensions      [0 2 -2 0 0 0 0];


internalField   nonuniform List<scalar> 
42616
(
3.95123e-05
5.18199e-05
5.18266e-05
5.38634e-05
3.96123e-05
5.18507e-05
5.18533e-05
5.39137e-05
4.01694e-05
5.22357e-05
5.22395e-05
5.42051e-05
4.04024e-05
5.22868e-05
5.22915e-05
5.42287e-05
4.06849e-05
5.24519e-05
5.2454e-05
5.44486e-05
4.07394e-05
5.23212e-05
5.23254e-05
5.40231e-05
4.16451e-05
5.34499e-05
5.34506e-05
5.57148e-05
4.11197e-05
5.16107e-05
5.16161e-05
5.30851e-05
4.01265e-05
5.08549e-05
5.08615e-05
5.23054e-05
4.43456e-05
5.72406e-05
5.72404e-05
5.9792e-05
4.58806e-05
5.69312e-05
5.69305e-05
5.80207e-05
3.81365e-05
4.62371e-05
4.62423e-05
4.72288e-05
3.44298e-05
4.46433e-05
4.46482e-05
4.67857e-05
4.14316e-05
5.53516e-05
5.53534e-05
5.76462e-05
5.06765e-05
6.1644e-05
6.16463e-05
6.37101e-05
5.14413e-05
6.04645e-05
6.04679e-05
6.12948e-05
4.31096e-05
5.1512e-05
5.1515e-05
5.30173e-05
3.7044e-05
4.71056e-05
4.71087e-05
4.90235e-05
3.55632e-05
4.65188e-05
4.65219e-05
4.88405e-05
3.7072e-05
4.79866e-05
4.79894e-05
5.03244e-05
3.83664e-05
4.76837e-05
4.76857e-05
5.0616e-05
5.38577e-05
5.18191e-05
5.18089e-05
5.38484e-05
5.18173e-05
5.18154e-05
5.18118e-05
5.18124e-05
5.38544e-05
5.18174e-05
5.1811e-05
5.38494e-05
5.3873e-05
5.38343e-05
5.18299e-05
5.18178e-05
5.18273e-05
5.18168e-05
5.38618e-05
5.38352e-05
5.18284e-05
5.18253e-05
5.18257e-05
5.18234e-05
5.1821e-05
5.18194e-05
5.1821e-05
5.38687e-05
5.38362e-05
5.18198e-05
5.18253e-05
5.18197e-05
5.38406e-05
5.39009e-05
5.41905e-05
5.18504e-05
5.18457e-05
5.21908e-05
5.21896e-05
5.39099e-05
5.41907e-05
5.18482e-05
5.18489e-05
5.21878e-05
5.21909e-05
5.18518e-05
5.21958e-05
5.21923e-05
5.39073e-05
5.41929e-05
5.18498e-05
5.21969e-05
5.21901e-05
5.41844e-05
5.42152e-05
5.41673e-05
5.22378e-05
5.22314e-05
5.22654e-05
5.22551e-05
5.42114e-05
5.41576e-05
5.22354e-05
5.22355e-05
5.22636e-05
5.22611e-05
5.22323e-05
5.22577e-05
5.22566e-05
5.42151e-05
5.41629e-05
5.22305e-05
5.22633e-05
5.22551e-05
5.41622e-05
5.42239e-05
5.44503e-05
5.22932e-05
5.22841e-05
5.24588e-05
5.24561e-05
5.42197e-05
5.44566e-05
5.22915e-05
5.22892e-05
5.24566e-05
5.24585e-05
5.22895e-05
5.24624e-05
5.24641e-05
5.4222e-05
5.4456e-05
5.22881e-05
5.24641e-05
5.24624e-05
5.44604e-05
5.44439e-05
5.4006e-05
5.24489e-05
5.24456e-05
5.22994e-05
5.22928e-05
5.44479e-05
5.39987e-05
5.24466e-05
5.24484e-05
5.22973e-05
5.22978e-05
5.24525e-05
5.2298e-05
5.2295e-05
5.44487e-05
5.4005e-05
5.24508e-05
5.23025e-05
5.22933e-05
5.39942e-05
5.40328e-05
5.55791e-05
5.23221e-05
5.2316e-05
5.33051e-05
5.3303e-05
5.40265e-05
5.55843e-05
5.232e-05
5.23206e-05
5.33026e-05
5.33036e-05
5.23187e-05
5.33077e-05
5.33096e-05
5.40321e-05
5.55816e-05
5.2317e-05
5.33083e-05
5.33077e-05
5.55896e-05
5.57067e-05
5.36661e-05
5.34485e-05
5.34456e-05
5.26359e-05
5.26264e-05
5.57107e-05
5.36558e-05
5.3446e-05
5.34463e-05
5.26346e-05
5.26311e-05
5.34513e-05
5.26299e-05
5.26269e-05
5.57084e-05
5.3662e-05
5.34494e-05
5.26338e-05
5.26255e-05
5.36533e-05
5.30966e-05
5.18128e-05
5.16162e-05
5.16067e-05
5.06489e-05
5.06416e-05
5.3087e-05
5.18102e-05
5.16153e-05
5.16126e-05
5.06476e-05
5.06479e-05
5.16068e-05
5.06454e-05
5.06419e-05
5.30934e-05
5.1816e-05
5.1606e-05
5.06522e-05
5.06416e-05
5.18064e-05
5.23092e-05
5.90808e-05
5.08578e-05
5.08514e-05
5.59917e-05
5.59892e-05
5.23105e-05
5.90818e-05
5.08559e-05
5.08572e-05
5.59872e-05
5.59904e-05
5.08519e-05
5.59931e-05
5.5997e-05
5.23148e-05
5.90817e-05
5.08513e-05
5.59943e-05
5.5993e-05
5.90878e-05
5.97847e-05
5.93347e-05
5.72384e-05
5.7236e-05
5.78088e-05
5.78071e-05
5.97858e-05
5.9339e-05
5.72345e-05
5.72366e-05
5.78067e-05
5.78075e-05
5.72465e-05
5.78142e-05
5.78202e-05
5.97848e-05
5.93373e-05
5.72422e-05
5.78131e-05
5.7817e-05
5.9351e-05
5.80043e-05
4.81475e-05
5.69231e-05
5.69221e-05
4.81787e-05
4.8175e-05
5.80089e-05
4.81469e-05
5.69232e-05
5.69229e-05
4.81804e-05
4.81784e-05
5.69351e-05
4.81821e-05
4.81759e-05
5.80075e-05
4.81507e-05
5.6934e-05
4.81865e-05
4.81787e-05
4.81417e-05
4.72359e-05
4.59445e-05
4.62361e-05
4.62309e-05
4.44407e-05
4.44333e-05
4.72343e-05
4.59378e-05
4.62367e-05
4.62347e-05
4.44387e-05
4.44372e-05
4.62292e-05
4.44358e-05
4.44306e-05
4.72382e-05
4.59415e-05
4.62313e-05
4.44409e-05
4.44301e-05
4.59311e-05
4.67968e-05
5.61124e-05
4.46493e-05
4.46416e-05
5.24055e-05
5.2399e-05
4.67892e-05
5.61088e-05
4.46465e-05
4.46455e-05
5.23991e-05
5.24017e-05
4.46399e-05
5.23993e-05
5.24068e-05
4.67927e-05
5.61109e-05
4.46382e-05
5.2401e-05
5.23995e-05
5.61154e-05
5.76449e-05
6.33183e-05
5.53563e-05
5.5351e-05
6.08896e-05
6.08871e-05
5.76425e-05
6.332e-05
5.5351e-05
5.53535e-05
6.08869e-05
6.08894e-05
5.53592e-05
6.08914e-05
6.08942e-05
5.76438e-05
6.33213e-05
5.53533e-05
6.08935e-05
6.08917e-05
6.33242e-05
6.37051e-05
6.23704e-05
6.16417e-05
6.16395e-05
6.16533e-05
6.16515e-05
6.37071e-05
6.23727e-05
6.16395e-05
6.16419e-05
6.16524e-05
6.16541e-05
6.16462e-05
6.16574e-05
6.16567e-05
6.37084e-05
6.2375e-05
6.16443e-05
6.16602e-05
6.16565e-05
6.23731e-05
6.12914e-05
5.39123e-05
6.04588e-05
6.04569e-05
5.33992e-05
5.33951e-05
6.12934e-05
5.39113e-05
6.04597e-05
6.04597e-05
5.33999e-05
5.33978e-05
6.04604e-05
5.3402e-05
5.33983e-05
6.12953e-05
5.39134e-05
6.04622e-05
5.3405e-05
5.33996e-05
5.39115e-05
5.30174e-05
4.92359e-05
5.15094e-05
5.15047e-05
4.77304e-05
4.77253e-05
5.30161e-05
4.92336e-05
5.15096e-05
5.15074e-05
4.77293e-05
4.7728e-05
5.1508e-05
4.77301e-05
4.77288e-05
5.30178e-05
4.92357e-05
5.15088e-05
4.77331e-05
4.77279e-05
4.92347e-05
4.90246e-05
4.86703e-05
4.71062e-05
4.71011e-05
4.64887e-05
4.64839e-05
4.90222e-05
4.86681e-05
4.71047e-05
4.7104e-05
4.64865e-05
4.64869e-05
4.71047e-05
4.64871e-05
4.64876e-05
4.90241e-05
4.86706e-05
4.71035e-05
4.64903e-05
4.64858e-05
4.86697e-05
4.88409e-05
5.01048e-05
4.65203e-05
4.65156e-05
4.76225e-05
4.76187e-05
4.88389e-05
5.01039e-05
4.65181e-05
4.65187e-05
4.76202e-05
4.76215e-05
4.65194e-05
4.76218e-05
4.76224e-05
4.88415e-05
5.0106e-05
4.65174e-05
4.76246e-05
4.76204e-05
5.01054e-05
5.03241e-05
5.07308e-05
4.79873e-05
4.79838e-05
4.84425e-05
4.84383e-05
5.03235e-05
5.073e-05
4.7985e-05
4.79863e-05
4.84415e-05
4.84403e-05
4.79875e-05
4.84434e-05
4.84416e-05
5.03253e-05
5.07317e-05
4.79854e-05
4.84454e-05
4.84409e-05
5.07309e-05
5.06165e-05
4.76827e-05
4.76784e-05
5.06154e-05
4.76823e-05
4.76805e-05
3.83648e-05
3.83664e-05
3.83649e-05
4.76813e-05
5.06172e-05
4.76814e-05
3.9421e-05
3.9418e-05
3.94234e-05
3.94222e-05
6.85914e-05
7.34761e-05
6.86283e-05
7.35168e-05
7.12315e-05
7.12775e-05
6.85911e-05
7.34784e-05
6.86291e-05
7.35185e-05
3.95031e-05
3.95113e-05
3.95064e-05
3.95878e-05
3.95743e-05
3.95844e-05
3.95768e-05
6.07538e-05
6.48398e-05
4.72078e-05
5.18184e-05
6.07926e-05
6.48219e-05
4.72179e-05
7.12324e-05
7.12771e-05
6.07558e-05
4.7213e-05
6.48445e-05
5.18254e-05
6.07949e-05
4.72239e-05
6.48245e-05
6.99208e-05
6.99287e-05
5.38148e-05
6.99407e-05
6.99474e-05
6.88137e-05
7.35902e-05
6.87133e-05
7.36013e-05
7.13192e-05
7.13259e-05
6.88113e-05
7.3592e-05
6.87096e-05
7.36035e-05
3.96045e-05
3.96121e-05
3.96077e-05
4.0018e-05
4.00296e-05
4.00293e-05
4.0035e-05
6.09798e-05
6.50135e-05
4.72428e-05
5.19671e-05
6.08221e-05
6.50905e-05
4.73238e-05
7.13212e-05
7.13281e-05
6.09772e-05
4.72466e-05
6.50096e-05
5.19624e-05
6.08188e-05
4.73218e-05
6.50893e-05
7.01537e-05
7.01613e-05
5.4055e-05
7.0176e-05
7.01841e-05
6.87014e-05
7.35863e-05
6.87796e-05
7.36115e-05
7.13274e-05
7.13716e-05
6.87032e-05
7.35888e-05
6.8781e-05
7.36138e-05
4.01749e-05
4.0177e-05
4.01789e-05
4.03767e-05
4.03688e-05
4.03761e-05
4.03668e-05
6.09493e-05
6.49901e-05
4.77151e-05
5.22472e-05
6.10142e-05
6.4925e-05
4.77572e-05
7.13294e-05
7.13721e-05
6.09523e-05
4.77167e-05
6.49957e-05
5.22523e-05
6.10149e-05
4.77605e-05
6.49303e-05
7.00032e-05
7.00111e-05
5.41604e-05
6.99768e-05
6.99843e-05
6.89164e-05
7.3702e-05
6.8775e-05
7.37101e-05
7.14335e-05
7.14302e-05
6.89133e-05
7.37039e-05
6.87734e-05
7.3712e-05
4.03941e-05
4.04012e-05
4.03932e-05
4.06258e-05
4.06242e-05
4.06287e-05
4.06296e-05
6.1135e-05
6.5108e-05
4.77945e-05
5.23761e-05
6.09496e-05
6.52552e-05
4.78414e-05
7.14343e-05
7.14312e-05
6.11325e-05
4.77986e-05
6.51051e-05
5.23783e-05
6.09502e-05
4.78446e-05
6.5251e-05
7.02952e-05
7.03028e-05
5.4378e-05
7.03823e-05
7.03904e-05
6.84652e-05
7.36022e-05
6.87764e-05
7.36077e-05
7.1367e-05
7.14228e-05
6.84664e-05
7.36045e-05
6.87762e-05
7.36099e-05
4.06852e-05
4.06896e-05
4.06909e-05
4.07192e-05
4.0721e-05
4.07255e-05
4.07263e-05
6.07963e-05
6.5014e-05
4.801e-05
5.23895e-05
6.11384e-05
6.46772e-05
4.80029e-05
7.13691e-05
7.14238e-05
6.0797e-05
4.80118e-05
6.50173e-05
5.23931e-05
6.11367e-05
4.80048e-05
6.46823e-05
6.99159e-05
6.9924e-05
5.41472e-05
6.96433e-05
6.96504e-05
6.9455e-05
7.39639e-05
6.85559e-05
7.41203e-05
7.16683e-05
7.17253e-05
6.94531e-05
7.39659e-05
6.85559e-05
7.41222e-05
4.07413e-05
4.07457e-05
4.07463e-05
4.14432e-05
4.14429e-05
4.14463e-05
4.14451e-05
6.14696e-05
6.48338e-05
4.7966e-05
5.24829e-05
6.06466e-05
6.5791e-05
4.80425e-05
7.16677e-05
7.17245e-05
6.14702e-05
4.79685e-05
6.4834e-05
5.24858e-05
6.06482e-05
4.8045e-05
6.57884e-05
7.02624e-05
7.02691e-05
5.459e-05
7.11049e-05
7.11123e-05
6.89909e-05
7.37498e-05
7.00826e-05
7.32207e-05
7.13886e-05
7.11161e-05
6.89897e-05
7.3752e-05
7.00796e-05
7.32232e-05
4.16437e-05
4.16473e-05
4.16457e-05
4.15712e-05
4.15678e-05
4.15723e-05
4.1569e-05
6.20748e-05
6.64374e-05
4.89029e-05
5.34499e-05
6.24553e-05
6.53938e-05
4.89363e-05
7.13902e-05
7.11165e-05
6.20701e-05
4.89044e-05
6.64342e-05
5.34507e-05
6.24534e-05
4.89377e-05
6.53937e-05
7.14044e-05
7.14125e-05
5.56543e-05
6.98006e-05
6.98082e-05
6.58565e-05
7.29785e-05
6.62646e-05
7.35717e-05
7.11745e-05
7.16465e-05
6.5859e-05
7.29808e-05
6.62671e-05
7.35732e-05
4.11143e-05
4.11203e-05
4.11148e-05
4.01201e-05
4.01164e-05
4.01232e-05
4.01178e-05
5.78914e-05
6.26467e-05
4.77314e-05
5.09454e-05
5.87992e-05
6.21518e-05
4.70685e-05
7.1176e-05
7.16451e-05
5.78958e-05
4.77345e-05
6.26509e-05
5.09518e-05
5.87998e-05
4.70729e-05
6.21575e-05
6.76138e-05
6.76219e-05
5.1908e-05
6.74902e-05
6.74986e-05
7.1824e-05
7.50694e-05
6.91764e-05
7.56076e-05
7.24904e-05
7.26953e-05
7.18207e-05
7.50705e-05
6.91746e-05
7.56092e-05
4.01229e-05
4.01297e-05
4.01244e-05
4.28408e-05
4.28429e-05
4.28465e-05
4.28483e-05
6.34743e-05
6.5075e-05
4.67577e-05
5.18612e-05
6.02066e-05
6.77433e-05
4.7295e-05
7.249e-05
7.26941e-05
6.34753e-05
4.67633e-05
6.50794e-05
5.18669e-05
6.02147e-05
4.73005e-05
6.77434e-05
7.09309e-05
7.09376e-05
5.51761e-05
7.316e-05
7.31654e-05
7.348e-05
7.51722e-05
7.42047e-05
7.40158e-05
7.21661e-05
7.141e-05
7.34814e-05
7.51754e-05
7.42022e-05
7.40196e-05
4.43486e-05
4.43513e-05
4.43552e-05
4.59954e-05
4.59984e-05
4.60002e-05
4.60061e-05
6.72093e-05
7.04093e-05
5.23352e-05
5.78511e-05
6.70482e-05
7.0241e-05
5.30736e-05
7.21663e-05
7.14087e-05
6.72004e-05
5.23347e-05
7.04043e-05
5.78501e-05
6.70408e-05
5.30721e-05
7.02349e-05
7.5014e-05
7.50198e-05
6.06136e-05
7.39567e-05
7.39654e-05
6.42202e-05
7.20693e-05
6.74239e-05
7.15496e-05
7.03358e-05
7.01637e-05
6.42224e-05
7.20724e-05
6.74274e-05
7.15517e-05
4.58835e-05
4.58855e-05
4.58912e-05
4.04466e-05
4.04464e-05
4.04505e-05
4.04491e-05
5.72043e-05
6.46201e-05
5.2753e-05
5.41929e-05
6.14814e-05
6.11885e-05
5.09292e-05
7.03359e-05
7.0163e-05
5.7209e-05
5.2752e-05
6.46207e-05
5.4194e-05
6.14814e-05
5.09302e-05
6.1192e-05
6.8762e-05
6.87736e-05
5.35612e-05
6.61052e-05
6.61161e-05
6.21915e-05
7.18716e-05
6.18308e-05
7.26974e-05
7.05957e-05
7.12505e-05
6.21891e-05
7.18726e-05
6.18303e-05
7.26983e-05
3.81338e-05
3.81385e-05
3.81346e-05
3.45815e-05
3.45772e-05
3.45825e-05
3.45763e-05
5.25361e-05
5.81925e-05
4.2872e-05
4.50516e-05
5.29026e-05
5.81159e-05
4.14958e-05
7.05967e-05
7.1249e-05
5.25402e-05
4.28769e-05
5.81969e-05
4.5057e-05
5.29087e-05
4.15007e-05
5.81193e-05
6.42272e-05
6.42354e-05
4.57502e-05
6.46573e-05
6.46626e-05
6.86022e-05
7.44703e-05
6.58608e-05
7.55123e-05
7.23954e-05
7.30485e-05
6.86003e-05
7.44713e-05
6.5859e-05
7.55136e-05
3.44251e-05
3.44304e-05
3.44245e-05
3.77133e-05
3.77107e-05
3.77143e-05
3.7716e-05
5.94419e-05
6.15176e-05
4.06643e-05
4.57936e-05
5.60754e-05
6.42938e-05
4.12742e-05
7.23961e-05
7.30472e-05
5.9438e-05
4.06682e-05
6.15183e-05
4.5797e-05
5.60734e-05
4.12767e-05
6.42933e-05
6.78133e-05
6.78183e-05
5.01678e-05
7.01121e-05
7.01168e-05
7.45601e-05
7.67038e-05
7.27905e-05
7.69316e-05
7.36725e-05
7.37417e-05
7.4559e-05
7.67055e-05
7.27892e-05
7.69337e-05
4.14318e-05
4.14352e-05
4.14379e-05
4.93216e-05
4.93229e-05
4.93263e-05
4.93284e-05
6.74748e-05
6.87651e-05
5.03822e-05
5.77672e-05
6.50117e-05
7.07233e-05
5.30026e-05
7.36723e-05
7.37413e-05
6.74725e-05
5.03819e-05
6.87645e-05
5.7769e-05
6.50088e-05
5.3003e-05
7.07228e-05
7.37492e-05
7.3755e-05
6.07174e-05
7.53234e-05
7.53298e-05
7.44424e-05
7.63059e-05
7.55097e-05
7.54549e-05
7.31585e-05
7.26029e-05
7.44427e-05
7.63088e-05
7.55092e-05
7.5458e-05
5.06786e-05
5.06821e-05
5.06837e-05
5.17328e-05
5.17343e-05
5.17379e-05
5.17385e-05
6.89772e-05
7.20878e-05
5.73238e-05
6.19372e-05
6.93024e-05
7.14315e-05
5.7702e-05
7.31584e-05
7.26019e-05
6.89786e-05
5.73257e-05
7.20882e-05
6.19397e-05
6.93025e-05
5.77042e-05
7.14329e-05
7.62157e-05
7.62238e-05
6.40004e-05
7.51487e-05
7.51578e-05
6.89331e-05
7.39235e-05
7.09942e-05
7.32632e-05
7.15792e-05
7.12189e-05
6.89335e-05
7.39263e-05
7.0995e-05
7.32658e-05
5.14426e-05
5.14463e-05
5.14463e-05
4.53625e-05
4.53617e-05
4.53657e-05
4.53636e-05
6.22858e-05
6.8019e-05
5.68058e-05
5.79969e-05
6.50744e-05
6.56563e-05
5.46334e-05
7.15796e-05
7.12188e-05
6.22863e-05
5.6809e-05
6.80207e-05
5.80002e-05
6.50762e-05
5.46371e-05
6.56571e-05
7.22347e-05
7.22447e-05
5.80685e-05
7.03253e-05
7.03342e-05
6.54923e-05
7.26126e-05
6.6344e-05
7.25296e-05
7.08474e-05
7.0839e-05
6.54923e-05
7.26147e-05
6.63442e-05
7.25315e-05
4.31074e-05
4.31113e-05
4.31092e-05
3.80646e-05
3.80626e-05
3.80666e-05
3.80647e-05
5.69942e-05
6.28855e-05
4.78306e-05
4.99094e-05
5.84372e-05
6.17361e-05
4.61145e-05
7.08468e-05
7.08383e-05
5.69936e-05
4.78332e-05
6.28864e-05
4.99124e-05
5.84372e-05
4.6117e-05
6.17368e-05
6.82773e-05
6.82857e-05
5.09265e-05
6.74658e-05
6.74734e-05
6.516e-05
7.26386e-05
6.50082e-05
7.28544e-05
7.09492e-05
7.11341e-05
6.51601e-05
7.26404e-05
6.50082e-05
7.28563e-05
3.70414e-05
3.70456e-05
3.70436e-05
3.56275e-05
3.56259e-05
3.56302e-05
3.56285e-05
5.58094e-05
6.11531e-05
4.3055e-05
4.67089e-05
5.58897e-05
6.11576e-05
4.25961e-05
7.0949e-05
7.11342e-05
5.58094e-05
4.30572e-05
6.11542e-05
4.6712e-05
5.58895e-05
4.25985e-05
6.11585e-05
6.71925e-05
6.71998e-05
4.8624e-05
6.72787e-05
6.72859e-05
6.61818e-05
7.31667e-05
6.57533e-05
7.33809e-05
7.1358e-05
7.15257e-05
6.61815e-05
7.31685e-05
6.57534e-05
7.33828e-05
3.55616e-05
3.55659e-05
3.55643e-05
3.63427e-05
3.63425e-05
3.63464e-05
3.63455e-05
5.68181e-05
6.17891e-05
4.2285e-05
4.66989e-05
5.64002e-05
6.21002e-05
4.23759e-05
7.13576e-05
7.15251e-05
5.68184e-05
4.22875e-05
6.17898e-05
4.67021e-05
5.64005e-05
4.23784e-05
6.2101e-05
6.78829e-05
6.78902e-05
4.93063e-05
6.81429e-05
6.81501e-05
6.67605e-05
7.35191e-05
6.65974e-05
7.36464e-05
7.16244e-05
7.17448e-05
6.67594e-05
7.35209e-05
6.65968e-05
7.36482e-05
3.70719e-05
3.70753e-05
3.70744e-05
3.82002e-05
3.81993e-05
3.82015e-05
3.82004e-05
5.76706e-05
6.26928e-05
4.3689e-05
4.82522e-05
5.75184e-05
6.26704e-05
4.39706e-05
7.16238e-05
7.17443e-05
5.767e-05
4.3692e-05
6.26937e-05
4.82548e-05
5.75179e-05
4.39727e-05
6.26712e-05
6.85798e-05
6.85874e-05
5.06187e-05
6.86023e-05
6.86102e-05
6.27963e-05
7.33389e-05
6.65946e-05
7.42503e-05
7.15765e-05
6.56738e-05
6.27949e-05
7.33403e-05
6.65932e-05
7.42543e-05
2.80543e-05
3.32645e-05
3.32635e-05
3.98599e-05
2.77052e-05
3.44133e-05
3.44127e-05
5.75382e-05
6.26183e-05
4.42908e-05
4.66241e-05
5.76078e-05
6.45135e-05
4.27528e-05
7.1576e-05
6.56741e-05
5.75374e-05
4.42924e-05
6.2619e-05
4.66259e-05
5.76071e-05
4.2754e-05
6.45141e-05
6.82615e-05
6.82691e-05
5.02052e-05
6.91779e-05
6.91837e-05
7.12255e-05
7.1209e-05
7.12281e-05
7.12116e-05
5.38449e-05
6.99397e-05
6.99476e-05
7.00165e-05
7.00245e-05
6.86785e-05
7.34725e-05
7.34697e-05
6.86569e-05
6.86762e-05
7.34689e-05
7.3465e-05
6.86544e-05
6.08093e-05
5.17766e-05
6.48784e-05
4.71744e-05
6.49326e-05
4.70915e-05
6.08101e-05
6.08068e-05
5.17705e-05
6.48638e-05
4.71706e-05
6.4923e-05
4.70894e-05
6.08073e-05
7.12267e-05
7.12078e-05
5.38406e-05
6.99313e-05
6.99302e-05
7.00034e-05
7.00028e-05
7.12264e-05
7.12075e-05
6.86789e-05
7.34749e-05
7.34723e-05
6.86578e-05
6.08092e-05
5.17742e-05
6.48813e-05
4.71746e-05
6.49341e-05
4.70903e-05
6.08107e-05
6.86763e-05
7.34701e-05
7.3467e-05
6.86538e-05
6.08071e-05
5.17745e-05
4.71743e-05
6.48733e-05
4.7091e-05
6.49283e-05
6.08083e-05
6.08057e-05
5.1775e-05
6.48662e-05
4.71709e-05
6.49257e-05
4.70938e-05
6.08043e-05
6.8675e-05
7.34723e-05
7.3467e-05
6.86497e-05
6.08048e-05
5.1775e-05
4.71716e-05
6.4866e-05
4.70945e-05
6.49225e-05
6.08036e-05
6.86741e-05
7.34706e-05
7.34656e-05
6.86492e-05
7.12277e-05
7.12104e-05
5.38442e-05
6.99412e-05
6.99362e-05
7.00171e-05
7.00093e-05
7.12267e-05
7.12086e-05
6.08067e-05
5.17782e-05
4.71745e-05
6.48713e-05
4.70954e-05
6.49284e-05
6.08061e-05
6.08054e-05
5.17731e-05
4.71721e-05
6.48697e-05
4.70935e-05
6.49255e-05
6.08047e-05
6.86758e-05
7.34729e-05
7.34681e-05
6.8652e-05
6.86747e-05
7.34728e-05
7.34679e-05
6.86513e-05
5.38411e-05
6.99322e-05
6.99403e-05
7.00002e-05
7.00091e-05
7.12273e-05
7.1208e-05
7.12302e-05
7.12111e-05
7.12301e-05
7.12741e-05
7.12325e-05
7.12765e-05
6.99246e-05
6.99322e-05
5.38226e-05
6.99295e-05
6.99366e-05
7.13185e-05
7.1282e-05
7.1321e-05
7.12844e-05
5.38323e-05
7.01203e-05
7.01271e-05
6.99691e-05
6.99756e-05
6.85897e-05
7.34733e-05
6.86259e-05
7.35161e-05
6.0757e-05
6.48495e-05
4.72157e-05
5.1829e-05
6.07995e-05
6.48244e-05
4.72278e-05
6.07545e-05
6.48382e-05
4.72106e-05
5.18165e-05
6.07965e-05
6.48185e-05
4.72221e-05
6.85888e-05
7.35834e-05
7.35301e-05
6.86793e-05
6.85872e-05
7.35818e-05
7.35297e-05
6.86789e-05
6.07421e-05
5.18253e-05
6.49585e-05
4.72311e-05
6.48279e-05
4.7229e-05
6.0776e-05
6.07401e-05
5.18133e-05
6.49646e-05
4.72259e-05
6.48249e-05
4.72234e-05
6.07753e-05
6.99196e-05
6.99176e-05
5.38105e-05
6.99356e-05
6.99349e-05
7.12314e-05
7.12774e-05
7.13193e-05
7.12851e-05
5.3821e-05
7.01313e-05
7.01324e-05
6.99854e-05
6.99845e-05
7.1319e-05
7.12852e-05
6.07576e-05
6.4852e-05
4.7217e-05
5.18276e-05
6.08003e-05
6.48265e-05
4.72297e-05
6.85874e-05
7.3474e-05
6.86245e-05
7.35155e-05
6.07548e-05
4.7216e-05
6.48449e-05
5.18243e-05
6.07976e-05
4.72283e-05
6.48217e-05
6.8588e-05
7.35852e-05
7.35317e-05
6.86753e-05
6.07418e-05
5.18238e-05
6.49586e-05
4.72327e-05
6.48297e-05
4.72309e-05
6.07729e-05
6.85846e-05
7.35817e-05
7.35289e-05
6.86736e-05
6.07393e-05
5.18208e-05
4.72316e-05
6.49605e-05
4.72296e-05
6.48262e-05
6.07715e-05
6.85922e-05
7.34772e-05
6.86217e-05
7.35223e-05
6.07533e-05
4.72086e-05
6.48406e-05
5.18197e-05
6.07919e-05
4.72188e-05
6.48238e-05
6.85914e-05
7.34753e-05
6.86212e-05
7.35188e-05
6.07425e-05
5.18154e-05
6.4974e-05
4.72229e-05
6.48294e-05
4.72193e-05
6.07875e-05
6.85917e-05
7.35859e-05
7.35359e-05
6.8693e-05
6.07419e-05
5.1817e-05
4.72238e-05
6.49708e-05
4.72203e-05
6.48315e-05
6.07864e-05
6.85908e-05
7.35813e-05
7.35319e-05
6.86911e-05
6.99269e-05
6.99228e-05
5.38178e-05
6.99354e-05
6.9935e-05
7.12315e-05
7.12766e-05
7.13207e-05
7.1285e-05
5.38278e-05
7.01298e-05
7.0129e-05
6.99789e-05
6.99808e-05
7.13191e-05
7.12843e-05
6.07549e-05
4.72101e-05
6.48439e-05
5.18187e-05
6.07936e-05
4.72208e-05
6.48266e-05
6.85931e-05
7.34775e-05
6.86241e-05
7.35212e-05
6.85923e-05
7.34774e-05
6.86235e-05
7.35204e-05
6.07436e-05
5.18222e-05
4.72284e-05
6.49696e-05
4.72253e-05
6.48307e-05
6.07851e-05
6.07427e-05
5.18159e-05
4.72255e-05
6.4972e-05
4.72222e-05
6.48337e-05
6.07841e-05
6.85921e-05
7.35853e-05
7.35346e-05
6.86896e-05
6.85912e-05
7.35831e-05
7.35336e-05
6.86881e-05
7.12322e-05
7.12773e-05
7.12351e-05
7.12801e-05
5.38255e-05
7.01274e-05
7.01346e-05
6.99891e-05
6.99956e-05
7.1317e-05
7.12846e-05
7.13201e-05
7.12875e-05
7.13191e-05
7.13267e-05
7.13217e-05
7.13293e-05
7.01518e-05
7.01585e-05
5.40419e-05
7.01852e-05
7.01923e-05
7.13265e-05
7.13231e-05
7.13291e-05
7.13257e-05
5.41366e-05
7.00571e-05
7.00647e-05
7.01791e-05
7.01863e-05
6.88125e-05
7.3588e-05
6.87128e-05
7.35973e-05
6.09737e-05
6.49999e-05
4.72456e-05
5.19478e-05
6.0809e-05
6.50867e-05
4.73099e-05
6.09729e-05
6.50058e-05
4.7242e-05
5.19567e-05
6.08086e-05
6.50845e-05
4.7311e-05
6.88207e-05
7.3588e-05
7.35992e-05
6.88155e-05
6.88192e-05
7.35826e-05
7.35947e-05
6.88133e-05
6.09956e-05
5.20944e-05
6.50501e-05
4.76181e-05
6.509e-05
4.74731e-05
6.10285e-05
6.09945e-05
5.20996e-05
6.50354e-05
4.76186e-05
6.50865e-05
4.74764e-05
6.10264e-05
7.01615e-05
7.01614e-05
5.40565e-05
7.01874e-05
7.01881e-05
7.13191e-05
7.13251e-05
7.13257e-05
7.13216e-05
5.41469e-05
7.00443e-05
7.00423e-05
7.01775e-05
7.01775e-05
7.13245e-05
7.1321e-05
6.09699e-05
6.49998e-05
4.72462e-05
5.19439e-05
6.08049e-05
6.50873e-05
4.73072e-05
6.88084e-05
7.35882e-05
6.87083e-05
7.35986e-05
6.09686e-05
4.7246e-05
6.50014e-05
5.19522e-05
6.08038e-05
4.73094e-05
6.50855e-05
6.88187e-05
7.35906e-05
7.36015e-05
6.88153e-05
6.09923e-05
5.20906e-05
6.5052e-05
4.76148e-05
6.50907e-05
4.7468e-05
6.10272e-05
6.88161e-05
7.3585e-05
7.35964e-05
6.88122e-05
6.09909e-05
5.20973e-05
4.7617e-05
6.5044e-05
4.74718e-05
6.50881e-05
6.10252e-05
6.88143e-05
7.35916e-05
6.87242e-05
7.35995e-05
6.0978e-05
4.72436e-05
6.50084e-05
5.19662e-05
6.08207e-05
4.73243e-05
6.50803e-05
6.88122e-05
7.35868e-05
6.87222e-05
7.35951e-05
6.09985e-05
5.21083e-05
6.50378e-05
4.76282e-05
6.50919e-05
4.74919e-05
6.10236e-05
6.88194e-05
7.35843e-05
7.35964e-05
6.88071e-05
6.09965e-05
5.21056e-05
4.76278e-05
6.50281e-05
4.74918e-05
6.50813e-05
6.10215e-05
6.88173e-05
7.35821e-05
7.35925e-05
6.88053e-05
7.01606e-05
7.01588e-05
5.4052e-05
7.01916e-05
7.0188e-05
7.13194e-05
7.13261e-05
7.13277e-05
7.13243e-05
5.41445e-05
7.00565e-05
7.00502e-05
7.01842e-05
7.01796e-05
7.13259e-05
7.13222e-05
6.09755e-05
4.72442e-05
6.50097e-05
5.19629e-05
6.08176e-05
4.73212e-05
6.50825e-05
6.88129e-05
7.35911e-05
6.87212e-05
7.36e-05
6.88112e-05
7.35887e-05
6.87197e-05
7.35972e-05
6.09966e-05
5.2106e-05
4.76274e-05
6.50423e-05
4.74888e-05
6.50913e-05
6.10236e-05
6.09946e-05
5.21027e-05
4.76254e-05
6.50315e-05
4.74881e-05
6.50835e-05
6.10212e-05
6.88185e-05
7.35858e-05
7.35972e-05
6.88081e-05
6.88166e-05
7.35844e-05
7.35947e-05
6.88061e-05
7.1317e-05
7.13235e-05
7.13202e-05
7.13266e-05
5.41424e-05
7.00355e-05
7.00436e-05
7.01639e-05
7.01722e-05
7.13251e-05
7.13197e-05
7.13281e-05
7.13229e-05
7.1328e-05
7.13696e-05
7.13306e-05
7.13722e-05
7.00212e-05
7.00286e-05
5.4175e-05
6.99857e-05
6.9993e-05
7.14305e-05
7.13792e-05
7.1433e-05
7.13817e-05
5.41828e-05
7.02111e-05
7.02183e-05
6.99947e-05
7.0002e-05
6.86986e-05
7.35813e-05
6.87767e-05
7.3609e-05
6.09606e-05
6.50039e-05
4.77128e-05
5.22531e-05
6.10212e-05
6.49369e-05
4.77606e-05
6.09573e-05
6.49897e-05
4.77111e-05
5.22439e-05
6.10188e-05
6.49244e-05
4.77572e-05
6.86863e-05
7.36912e-05
7.36259e-05
6.87245e-05
6.86837e-05
7.36909e-05
7.36242e-05
6.87232e-05
6.09299e-05
5.22576e-05
6.50291e-05
4.77857e-05
6.49319e-05
4.77778e-05
6.09251e-05
6.09267e-05
5.22476e-05
6.5031e-05
4.77813e-05
6.49209e-05
4.77736e-05
6.09226e-05
7.00102e-05
7.00065e-05
5.41621e-05
6.99775e-05
6.99743e-05
7.13267e-05
7.13715e-05
7.14332e-05
7.13814e-05
5.41696e-05
7.02206e-05
7.02232e-05
6.99903e-05
6.99876e-05
7.14337e-05
7.13817e-05
6.09624e-05
6.5006e-05
4.77112e-05
5.2251e-05
6.10204e-05
6.49393e-05
4.77601e-05
6.86995e-05
7.35834e-05
6.87774e-05
7.36098e-05
6.09595e-05
4.77121e-05
6.49974e-05
5.22494e-05
6.10182e-05
4.77601e-05
6.49314e-05
6.8688e-05
7.36932e-05
7.36281e-05
6.87239e-05
6.09316e-05
5.22556e-05
6.50308e-05
4.7786e-05
6.49342e-05
4.7778e-05
6.09261e-05
6.86847e-05
7.36901e-05
7.36245e-05
6.87204e-05
6.09288e-05
5.22535e-05
4.77854e-05
6.50299e-05
4.77775e-05
6.49269e-05
6.09236e-05
6.8693e-05
7.35833e-05
6.87669e-05
7.36134e-05
6.09482e-05
4.77145e-05
6.49835e-05
5.22442e-05
6.10122e-05
4.77564e-05
6.49249e-05
6.8692e-05
7.35814e-05
6.87654e-05
7.36127e-05
6.09205e-05
5.22506e-05
6.50377e-05
4.7779e-05
6.49213e-05
4.77716e-05
6.09218e-05
6.86802e-05
7.36964e-05
7.36292e-05
6.8732e-05
6.09197e-05
5.2248e-05
4.77784e-05
6.50467e-05
4.77707e-05
6.49225e-05
6.09216e-05
6.86793e-05
7.36949e-05
7.36285e-05
6.87319e-05
7.00205e-05
7.00145e-05
5.41696e-05
6.99858e-05
6.99809e-05
7.13277e-05
7.13712e-05
7.14336e-05
7.13818e-05
5.41771e-05
7.02197e-05
7.02194e-05
6.99961e-05
6.99922e-05
7.14327e-05
7.1381e-05
6.09503e-05
4.77136e-05
6.49867e-05
5.22426e-05
6.10125e-05
4.77565e-05
6.49278e-05
6.86954e-05
7.35847e-05
6.87693e-05
7.36135e-05
6.86939e-05
7.35836e-05
6.87674e-05
7.36147e-05
6.09234e-05
5.2256e-05
4.77833e-05
6.50356e-05
4.77757e-05
6.49263e-05
6.09236e-05
6.09216e-05
5.22466e-05
4.77791e-05
6.50485e-05
4.77713e-05
6.49252e-05
6.09228e-05
6.86824e-05
7.36951e-05
7.36288e-05
6.87315e-05
6.86811e-05
7.36968e-05
7.36305e-05
6.87317e-05
7.13278e-05
7.13736e-05
7.13308e-05
7.13765e-05
5.41684e-05
7.02315e-05
7.02387e-05
6.99941e-05
7.00013e-05
7.14337e-05
7.13838e-05
7.14368e-05
7.13867e-05
7.14313e-05
7.14288e-05
7.14338e-05
7.14314e-05
7.02759e-05
7.0283e-05
5.43603e-05
7.03696e-05
7.03768e-05
7.13745e-05
7.14127e-05
7.1377e-05
7.14153e-05
5.44381e-05
7.00844e-05
7.0092e-05
7.03689e-05
7.03762e-05
6.89159e-05
7.37016e-05
6.8774e-05
7.37087e-05
6.11209e-05
6.50971e-05
4.78006e-05
5.23768e-05
6.09473e-05
6.52414e-05
4.78436e-05
6.11203e-05
6.5101e-05
4.77964e-05
5.23718e-05
6.09454e-05
6.52451e-05
4.78405e-05
6.89299e-05
7.36224e-05
7.36974e-05
6.88954e-05
6.89293e-05
7.36176e-05
7.36947e-05
6.88941e-05
6.115e-05
5.24428e-05
6.51676e-05
4.79925e-05
6.52517e-05
4.7935e-05
6.11709e-05
6.11495e-05
5.24398e-05
6.51603e-05
4.79908e-05
6.52549e-05
4.7933e-05
6.11701e-05
7.02878e-05
7.02895e-05
5.43673e-05
7.03799e-05
7.03826e-05
7.14342e-05
7.14298e-05
7.13739e-05
7.14128e-05
5.44459e-05
7.00763e-05
7.00756e-05
7.03785e-05
7.03809e-05
7.13722e-05
7.1412e-05
6.11179e-05
6.50984e-05
4.78011e-05
5.2375e-05
6.09474e-05
6.52425e-05
4.7844e-05
6.89103e-05
7.37007e-05
6.87712e-05
7.37084e-05
6.11163e-05
4.78004e-05
6.50982e-05
5.23747e-05
6.0945e-05
4.78437e-05
6.52427e-05
6.89268e-05
7.36245e-05
7.36994e-05
6.88935e-05
6.11467e-05
5.24406e-05
6.51688e-05
4.79917e-05
6.52526e-05
4.79346e-05
6.11677e-05
6.89243e-05
7.36195e-05
7.36952e-05
6.88912e-05
6.11452e-05
5.2442e-05
4.79926e-05
6.51646e-05
4.79351e-05
6.52527e-05
6.11664e-05
6.89298e-05
7.37071e-05
6.87867e-05
7.37134e-05
6.1135e-05
4.77945e-05
6.51147e-05
5.23823e-05
6.09497e-05
4.78436e-05
6.52557e-05
6.89292e-05
7.3705e-05
6.87866e-05
7.371e-05
6.11646e-05
5.24457e-05
6.51674e-05
4.79972e-05
6.52649e-05
4.7938e-05
6.11826e-05
6.89431e-05
7.36193e-05
7.36983e-05
6.88996e-05
6.11643e-05
5.2449e-05
4.79985e-05
6.51552e-05
4.79403e-05
6.52641e-05
6.11815e-05
6.89423e-05
7.36139e-05
7.36936e-05
6.88975e-05
7.02853e-05
7.0285e-05
5.43653e-05
7.03792e-05
7.03785e-05
7.14333e-05
7.14299e-05
7.13757e-05
7.14145e-05
5.44439e-05
7.00866e-05
7.00816e-05
7.03782e-05
7.03773e-05
7.13738e-05
7.14128e-05
6.1133e-05
4.77953e-05
6.51166e-05
5.23808e-05
6.095e-05
4.78441e-05
6.52581e-05
6.89273e-05
7.37057e-05
6.87855e-05
7.37125e-05
6.89275e-05
7.3707e-05
6.87859e-05
7.3712e-05
6.11619e-05
5.24472e-05
4.79988e-05
6.51684e-05
4.794e-05
6.52609e-05
6.118e-05
6.11622e-05
5.24474e-05
4.7998e-05
6.51584e-05
4.79401e-05
6.52666e-05
6.11794e-05
6.89406e-05
7.36204e-05
7.36979e-05
6.88979e-05
6.89407e-05
7.36159e-05
7.36956e-05
6.88962e-05
7.14338e-05
7.14281e-05
7.14369e-05
7.14312e-05
5.44536e-05
7.00612e-05
7.00694e-05
7.03793e-05
7.03875e-05
7.137e-05
7.14095e-05
7.13729e-05
7.14126e-05
7.13678e-05
7.14219e-05
7.13703e-05
7.14243e-05
6.99401e-05
6.99474e-05
5.41607e-05
6.96642e-05
6.96715e-05
7.16265e-05
7.14497e-05
7.1629e-05
7.14521e-05
5.41144e-05
6.99244e-05
6.99311e-05
6.96367e-05
6.96439e-05
6.84626e-05
7.35973e-05
6.8774e-05
7.36036e-05
6.08055e-05
6.50197e-05
4.80054e-05
5.23889e-05
6.11328e-05
6.46883e-05
4.79987e-05
6.08027e-05
6.50103e-05
4.80036e-05
5.23836e-05
6.11314e-05
6.46759e-05
4.79968e-05
6.84019e-05
7.38811e-05
7.36464e-05
6.84057e-05
6.83991e-05
7.38804e-05
7.36434e-05
6.84035e-05
6.07066e-05
5.23171e-05
6.46469e-05
4.79558e-05
6.46264e-05
4.797e-05
6.06216e-05
6.07037e-05
5.23106e-05
6.46394e-05
4.79533e-05
6.46149e-05
4.79677e-05
6.06189e-05
6.9932e-05
6.9929e-05
5.41537e-05
6.96547e-05
6.96524e-05
7.13658e-05
7.1422e-05
7.16308e-05
7.14507e-05
5.41062e-05
6.99314e-05
6.9933e-05
6.96286e-05
6.96262e-05
7.16297e-05
7.14507e-05
6.08059e-05
6.5021e-05
4.80046e-05
5.23867e-05
6.11305e-05
6.46901e-05
4.79979e-05
6.84642e-05
7.35994e-05
6.87749e-05
7.36053e-05
6.08041e-05
4.80055e-05
6.50152e-05
5.23878e-05
6.11292e-05
4.79988e-05
6.46834e-05
6.84032e-05
7.38832e-05
7.36486e-05
6.84067e-05
6.07073e-05
5.2315e-05
6.46486e-05
4.79551e-05
6.4628e-05
4.79693e-05
6.06225e-05
6.84015e-05
7.38798e-05
7.36444e-05
6.84044e-05
6.07055e-05
5.23155e-05
4.79558e-05
6.46441e-05
4.79701e-05
6.46216e-05
6.06207e-05
6.84539e-05
7.3599e-05
6.87704e-05
7.36056e-05
6.07936e-05
4.80107e-05
6.50014e-05
5.23869e-05
6.11363e-05
4.80032e-05
6.46671e-05
6.84512e-05
7.35939e-05
6.87673e-05