/*--------------------------------*- C++ -*----------------------------------*\
| =========                 |                                                 |
| \\      /  F ield         | OpenFOAM: The Open Source CFD Toolbox           |
|  \\    /   O peration     | Version:  v2006                                 |
|   \\  /    A nd           | Website:  www.openfoam.com                      |
|    \\/     M anipulation  |                                                 |
\*---------------------------------------------------------------------------*/
FoamFile
{
    version     2.0;
    format      ascii;
    class       surfaceScalarField;
    location    "375";
    object      phi;
}
// * * * * * * * * * * * * * * * * * * * * * * * * * * * * * * * * * * * * * //

dimensions      [0 3 -1 0 0 0 0];
oriented        oriented;


internalField   nonuniform List<scalar> 
123728
(
1.38255e-07
1.39984e-07
-0.00118372
-9.24159e-08
-9.22529e-08
0.00118363
-0.00113209
-1.18308e-06
-1.36334e-07
-5.17005e-08
0.00113207
-2.04676e-07
1.22977e-06
2.43892e-07
8.89099e-07
-1.78387e-07
-8.25771e-07
2.35435e-07
-0.00113199
-1.18011e-06
-1.36343e-07
-5.33521e-08
0.00113197
-2.04423e-07
1.22733e-06
2.44151e-07
8.8365e-07
-1.75771e-07
-8.20534e-07
2.32734e-07
-0.000270068
1.21243e-06
1.17073e-06
-1.87651e-07
-1.9743e-07
0.00026807
1.00088e-07
9.98352e-08
-0.0011834
-5.83007e-08
-5.72284e-08
0.00118331
-0.00113197
-1.18692e-06
-1.01511e-07
-4.38279e-08
0.00113194
-2.06988e-07
1.22695e-06
2.42163e-07
8.84495e-07
-1.82851e-07
-8.30855e-07
2.31496e-07
-0.00113188
-1.18442e-06
-1.02012e-07
-4.2278e-08
0.00113184
-2.07198e-07
1.22396e-06
2.41926e-07
8.79268e-07
-1.80017e-07
-8.25301e-07
2.2891e-07
-0.000270071
1.21486e-06
1.17193e-06
-1.88192e-07
-1.98952e-07
0.000268071
1.86019e-07
1.8616e-07
-0.00118296
-1.22918e-07
-1.24755e-07
0.00118284
-0.00113191
-1.17783e-06
-1.86647e-07
-6.66396e-08
0.00113191
-2.00674e-07
1.23397e-06
2.47089e-07
8.96154e-07
-1.71295e-07
-8.18247e-07
2.41973e-07
-0.00113181
-1.175e-06
-1.85606e-07
-6.75215e-08
0.00113181
-2.00484e-07
1.23142e-06
2.47311e-07
8.90552e-07
-1.68824e-07
-8.13146e-07
2.39126e-07
-0.000270087
1.20807e-06
1.16604e-06
-1.84334e-07
-1.94335e-07
0.000268092
6.2072e-08
6.31905e-08
-0.00118261
-4.38266e-08
-4.20735e-08
0.00118257
-0.00113188
-1.19173e-06
-5.96129e-08
-3.19654e-08
0.00113185
-2.10983e-07
1.22072e-06
2.37412e-07
8.73836e-07
-1.91442e-07
-8.39538e-07
2.21592e-07
-0.00113178
-1.18902e-06
-6.12263e-08
-3.17254e-08
0.00113175
-2.11077e-07
1.2179e-06
2.37255e-07
8.68763e-07
-1.88509e-07
-8.33854e-07
2.19123e-07
-0.000270106
1.21955e-06
1.17719e-06
-1.93201e-07
-2.0355e-07
0.000268107
2.25143e-07
2.24305e-07
-0.00118231
-1.38432e-07
-1.4043e-07
0.00118214
-0.00113179
-1.17038e-06
-2.3042e-07
-8.58071e-08
0.00113178
-1.94554e-07
1.24238e-06
2.53331e-07
9.07895e-07
-1.62687e-07
-8.09242e-07
2.52661e-07
-0.00113169
-1.16781e-06
-2.28583e-07
-8.49682e-08
0.00113168
-1.94564e-07
1.23959e-06
2.5338e-07
9.02214e-07
-1.60295e-07
-8.0419e-07
2.49689e-07
-0.000270117
1.19946e-06
1.15687e-06
-1.76542e-07
-1.86956e-07
0.000268124
6.43324e-08
6.62211e-08
-0.00118169
-5.22245e-08
-5.01189e-08
0.00118166
-0.00113173
-1.19346e-06
-5.93694e-08
-1.59778e-08
0.00113168
-2.12026e-07
1.21457e-06
2.33654e-07
8.76039e-07
-1.82165e-07
-8.31495e-07
2.25684e-07
-0.00113163
-1.19045e-06
-6.09871e-08
-1.7695e-08
0.00113158
-2.11816e-07
1.21206e-06
2.33769e-07
8.70903e-07
-1.79234e-07
-8.25936e-07
2.23238e-07
-0.00027014
1.22271e-06
1.18076e-06
-1.9368e-07
-2.03732e-07
0.000268134
8.43639e-08
8.28162e-08
-0.00118171
-3.54061e-08
-3.70116e-08
0.00118162
-0.00113152
-1.18936e-06
-8.91322e-08
-5.11022e-08
0.00113157
-2.11648e-07
1.22629e-06
2.37426e-07
8.70573e-07
-2.04138e-07
-8.47581e-07
2.10398e-07
-0.00113142
-1.18692e-06
-8.87787e-08
-4.90601e-08
0.00113147
-2.11871e-07
1.22332e-06
2.37236e-07
8.65193e-07
-2.01495e-07
-8.4216e-07
2.07601e-07
-0.000270104
1.21767e-06
1.17486e-06
-1.97875e-07
-2.08549e-07
0.000268118
4.64401e-07
4.65562e-07
-0.00118091
-3.53186e-07
-3.54622e-07
0.00118069
-0.00113202
-1.14376e-06
-4.63237e-07
-1.67872e-07
0.00113209
-1.72331e-07
1.26767e-06
2.7757e-07
9.43208e-07
-1.32002e-07
-7.7315e-07
2.87036e-07
-0.00113192
-1.1408e-06
-4.61453e-07
-1.68885e-07
0.00113199
-1.72098e-07
1.26515e-06
2.77753e-07
9.37488e-07
-1.29547e-07
-7.68152e-07
2.84121e-07
-0.000270293
1.17309e-06
1.13076e-06
-1.56749e-07
-1.66973e-07
0.000268313
-5.92133e-08
-5.70279e-08
-0.00118032
1.19699e-07
1.2309e-07
0.0011802
-0.00113134
-1.1626e-06
5.95034e-08
-5.57816e-08
0.00113086
-1.70302e-07
1.2464e-06
2.7344e-07
9.19764e-07
-1.24914e-07
-7.90054e-07
2.82296e-07
-0.00113124
-1.16006e-06
5.72751e-08
-5.6199e-08
0.00113076
-1.70487e-07
1.24349e-06
2.73263e-07
9.14745e-07
-1.21869e-07
-7.84344e-07
2.79913e-07
-0.00027015
1.19423e-06
1.14972e-06
-1.39791e-07
-1.49574e-07
0.000268096
2.10477e-07
2.09232e-07
-0.00117961
-1.17872e-07
-1.18913e-07
0.00117943
-0.00113025
-1.20577e-06
-2.09759e-07
-2.23956e-08
0.00113054
-2.36654e-07
1.1982e-06
2.01725e-07
8.54784e-07
-2.10637e-07
-8.49305e-07
1.87269e-07
-0.00113016
-1.20299e-06
-2.10209e-07
-2.19317e-08
0.00113045
-2.36567e-07
1.19557e-06
2.01828e-07
8.49411e-07
-2.07924e-07
-8.43909e-07
1.84555e-07
-0.000269992
1.23744e-06
1.19174e-06
-2.29701e-07
-2.40577e-07
0.000268033
2.63469e-07
2.63396e-07
-0.00117939
-4.0909e-07
-4.11852e-07
0.00117968
-0.00113279
-1.25046e-06
-2.66918e-07
4.0077e-09
0.00113364
-2.8713e-07
1.15876e-06
1.63141e-07
7.728e-07
-3.09721e-07
-9.44597e-07
1.08381e-07
-0.00113269
-1.24777e-06
-2.64777e-07
4.47487e-09
0.00113354
-2.87103e-07
1.15599e-06
1.63116e-07
7.67245e-07
-3.07193e-07
-9.39427e-07
1.05488e-07
-0.000270655
1.28144e-06
1.23644e-06
-2.95155e-07
-3.0551e-07
0.000268738
-4.83095e-07
-4.81563e-07
-0.00118117
2.94232e-07
2.96558e-07
0.00118155
-0.0011344
-1.21392e-06
4.833e-07
7.35154e-08
0.00113383
-2.17907e-07
1.21534e-06
2.44084e-07
8.58616e-07
-2.16327e-07
-8.7885e-07
2.1932e-07
-0.0011343
-1.21129e-06
4.81839e-07
7.31213e-08
0.00113373
-2.17957e-07
1.21253e-06
2.44036e-07
8.53428e-07
-2.13467e-07
-8.73276e-07
2.1678e-07
-0.000270811
1.24614e-06
1.20179e-06
-1.77988e-07
-1.87726e-07
0.000268729
2.72021e-07
2.72402e-07
-0.00118077
2.51288e-07
2.53137e-07
0.00117972
-0.00113037
-1.0408e-06
-2.69264e-07
-2.19642e-07
0.00112917
-6.06045e-08
1.37102e-06
3.81841e-07
1.11646e-06
5.23759e-08
-5.94606e-07
4.62363e-07
-0.00113027
-1.03803e-06
-2.70221e-07
-2.20029e-07
0.00112907
-6.04407e-08
1.36842e-06
3.82006e-07
1.11121e-06
5.48994e-08
-5.89124e-07
4.59798e-07
-0.000269872
1.07326e-06
1.02757e-06
6.76939e-11
-9.32313e-09
0.000267781
1.53816e-06
1.53909e-06
-0.00117577
-1.04551e-06
-1.04814e-06
0.00117479
-0.00112768
-9.96025e-07
-1.53987e-06
-5.36995e-07
0.00112791
-3.96303e-08
1.38696e-06
3.83306e-07
1.129e-06
7.5844e-08
-5.53038e-07
4.62281e-07
-0.00112758
-9.93279e-07
-1.53919e-06
-5.36807e-07
0.00112781
-3.96507e-08
1.38427e-06
3.83289e-07
1.12359e-06
7.82868e-08
-5.47719e-07
4.59614e-07
-0.000269646
1.02733e-06
9.81828e-07
-3.37331e-08
-4.40686e-08
0.000267714
7.54304e-07
7.55036e-07
-0.00117347
-7.81856e-07
-7.84045e-07
0.00117352
-0.00112986
-1.16643e-06
-7.56813e-07
-2.61507e-07
0.00113077
-2.03105e-07
1.22417e-06
2.26902e-07
8.59656e-07
-1.98064e-07
-8.3104e-07
1.92955e-07
-0.00112976
-1.16377e-06
-7.56419e-07
-2.6137e-07
0.00113067
-2.03148e-07
1.2214e-06
2.26853e-07
8.5426e-07
-1.95348e-07
-8.25676e-07
1.90279e-07
-0.000270398
1.19787e-06
1.1529e-06
-2.26019e-07
-2.36279e-07
0.000268509
-6.2048e-07
-6.20485e-07
-0.00117505
1.73693e-07
1.74135e-07
0.00117595
-0.00113353
-1.36865e-06
6.20846e-07
3.10932e-07
0.0011342
-3.80966e-07
1.04797e-06
7.07339e-08
6.16584e-07
-4.48295e-07
-1.10703e-06
-3.00604e-08
-0.00113344
-1.36592e-06
6.20405e-07
3.1075e-07
0.0011341
-3.80931e-07
1.04524e-06
7.07804e-08
6.11183e-07
-4.45615e-07
-1.10164e-06
-3.24551e-08
-0.000271191
1.40034e-06
1.35552e-06
-3.87867e-07
-3.98231e-07
0.000269221
-1.19555e-06
-1.19666e-06
-0.00117878
8.50407e-07
8.52089e-07
0.00117947
-0.00113466
-1.35828e-06
1.19751e-06
4.38577e-07
0.00113435
-3.6096e-07
1.07874e-06
1.03402e-07
6.70606e-07
-4.04091e-07
-1.07041e-06
2.03278e-08
-0.00113456
-1.35547e-06
1.1972e-06
4.38677e-07
0.00113425
-3.60896e-07
1.07608e-06
1.03445e-07
6.6526e-07
-4.01417e-07
-1.06499e-06
1.72978e-08
-0.000271134
1.38994e-06
1.34481e-06
-3.23916e-07
-3.34415e-07
0.000269057
-3.84445e-07
-3.84887e-07
-0.00118008
5.17894e-07
5.18817e-07
0.00117981
-0.00113265
-1.21362e-06
3.84892e-07
1.48487e-07
0.00113204
-2.29098e-07
1.21017e-06
2.23079e-07
8.79862e-07
-1.84272e-07
-8.41141e-07
2.25402e-07
-0.00113255
-1.21092e-06
3.84933e-07
1.48754e-07
0.00113194
-2.2913e-07
1.20738e-06
2.23032e-07
8.74442e-07
-1.81597e-07
-8.3579e-07
2.22682e-07
-0.000270558
1.24247e-06
1.19998e-06
-1.81486e-07
-1.91872e-07
0.000268488
7.26548e-07
7.16245e-07
-0.00117809
-3.92594e-07
-3.9299e-07
0.00117744
-0.00113077
-1.08285e-06
-7.22236e-07
-2.61944e-07
0.00113064
-1.10776e-07
1.31895e-06
3.1796e-07
1.01631e-06
-2.18268e-08
-6.66257e-07
3.45519e-07
-0.00113066
-1.07741e-06
-7.22182e-07
-2.6751e-07
0.00113054
-1.08067e-07
1.31351e-06
3.15143e-07
1.01628e-06
-2.18132e-08
-6.66319e-07
3.45522e-07
-0.000270275
1.11434e-06
1.0747e-06
-9.0557e-08
-9.30573e-08
0.00026827
1.82962e-06
1.82695e-06
-0.00117563
-1.52925e-06
-1.52528e-06
0.00117502
-0.00113124
-9.84305e-07
-1.83268e-06
-7.63416e-07
0.00113191
-2.11116e-08
1.47805e-06
4.01101e-07
1.1479e-06
5.3255e-08
-5.79023e-07
4.26179e-07
-0.00113114
-9.78746e-07
-1.8384e-06
-7.63877e-07
0.00113182
-2.38705e-08
1.47807e-06
4.06712e-07
1.14527e-06
5.32832e-08
-5.76317e-07
4.26286e-07
-0.000270606
1.01593e-06
9.76194e-07
-9.55129e-09
-1.67087e-08
0.00026864
5.54092e-06
5.53352e-06
-0.00116127
-1.19882e-05
-1.19305e-05
0.000282752
0.000284815
0.000284613
0.000284614
4.582e-06
6.83599e-06
7.24298e-06
4.58005e-06
6.83384e-06
7.24626e-06
-0.00028067
5.45459e-06
-5.53885e-06
6.03365e-06
-3.47597e-06
0.000278197
-0.000280666
-5.53899e-06
5.45478e-06
-3.47872e-06
6.03363e-06
0.000278196
-0.000271863
-5.45386e-06
-5.46825e-06
5.80624e-06
5.7968e-06
0.000271182
-1.27054e-06
-1.22775e-06
0.000270117
-0.000268096
2.34546e-07
2.42749e-07
0.00113148
-1.47231e-07
-0.00113149
-5.5579e-08
-1.22226e-06
2.50146e-07
-2.09574e-07
-8.22715e-07
2.34086e-07
-1.74803e-07
8.87614e-07
1.2667e-06
0.00113161
-1.49411e-07
-0.00113162
-4.97105e-08
-1.22068e-06
2.48874e-07
-2.10804e-07
-8.27195e-07
2.37432e-07
-1.76765e-07
8.93446e-07
-1.2311e-06
0.000270108
-0.000268087
2.37974e-07
2.39095e-07
0.00113249
-1.47582e-07
-0.0011325
-5.4051e-08
-1.18034e-06
2.44338e-07
-2.0461e-07
-8.22432e-07
2.34436e-07
-1.74649e-07
8.87683e-07
1.26397e-06
0.00113149
-1.4869e-07
-0.0011315
-5.03971e-08
-1.21799e-06
2.46183e-07
-2.08024e-07
-8.24775e-07
2.37305e-07
-1.7693e-07
8.90649e-07
-1.48542e-07
-0.0011321
-5.49895e-08
-1.18212e-06
2.45026e-07
-2.03795e-07
-8.24956e-07
2.37023e-07
8.90303e-07
-1.77233e-07
1.25927e-06
0.00113117
-1.47791e-07
-0.00113118
-5.33197e-08
-1.21156e-06
2.47024e-07
-2.07075e-07
-8.223e-07
2.36842e-07
-1.77258e-07
8.87606e-07
-1.2285e-06
0.000270092
-0.000268074
2.3555e-07
2.39006e-07
-1.47519e-07
-0.001132
-5.57341e-08
-1.17932e-06
2.45168e-07
-2.03675e-07
-8.19855e-07
2.34126e-07
8.8469e-07
-1.74799e-07
1.21651e-06
0.00113217
-1.48149e-07
-0.00113218
-5.20711e-08
-1.16962e-06
2.38529e-07
-1.99344e-07
-8.21972e-07
2.37182e-07
-1.77058e-07
8.87642e-07
-0.000268067
2.31695e-07
2.42475e-07
1.22291e-06
1.18124e-06
-1.89978e-07
-1.97187e-07
0.0002681
-1.26589e-06
-1.22401e-06
0.00027012
-0.000268102
2.32184e-07
2.39559e-07
-5.4037e-08
0.00113146
-2.10145e-07
1.26958e-06
2.4937e-07
8.86859e-07
-1.75508e-07
-8.23087e-07
2.32929e-07
-1.22192e-06
-1.40115e-07
-4.48413e-08
0.00113159
-2.11778e-07
1.26532e-06
2.47884e-07
8.92428e-07
-1.7776e-07
-8.2773e-07
2.35916e-07
0.00113137
-9.48771e-08
-0.00113141
-4.16875e-08
-1.22697e-06
2.4698e-07
-2.12796e-07
-8.2838e-07
2.27707e-07
-1.80618e-07
8.81218e-07
1.26436e-06
0.00113149
-9.22046e-08
-0.00113153
-4.56113e-08
-1.22371e-06
2.48317e-07
-2.11841e-07
-8.34393e-07
2.29563e-07
-1.84219e-07
8.85515e-07
-1.92064e-07
-1.95633e-07
0.00026809
-1.22551e-06
0.000270109
-0.000268091
2.33975e-07
2.37711e-07
-5.12898e-08
0.00113247
-2.05366e-07
1.22662e-06
2.43462e-07
8.87048e-07
-1.75239e-07
-8.22664e-07
2.33362e-07
-1.21908e-06
-1.40497e-07
-4.64344e-08
0.00113148
-2.08857e-07
1.26275e-06
2.45326e-07
8.89797e-07
-1.77737e-07
-8.25167e-07
2.35978e-07
0.00113238
-9.62028e-08
-0.00113242
-4.25715e-08
-1.1844e-06
2.42205e-07
-2.06999e-07
-8.28228e-07
2.27771e-07
-1.80696e-07
8.81066e-07
1.26168e-06
0.00113138
-9.3711e-08
-0.00113142
-4.54332e-08
-1.22088e-06
2.45558e-07
-2.09048e-07
-8.31489e-07
2.29776e-07
-1.83942e-07
8.83151e-07
-1.3668e-07
-5.07793e-08
0.00113115
-2.07792e-07
1.25815e-06
2.46149e-07
8.86471e-07
-1.78353e-07
2.35302e-07
-8.23028e-07
-9.25102e-08
-0.00113201
-4.05193e-08
-1.18787e-06
2.41089e-07
-2.079e-07
-8.31318e-07
2.30209e-07
8.83426e-07
-1.83707e-07
1.2553e-06
0.00113106
-9.36439e-08
-0.00113109
-4.43267e-08
-1.21583e-06
2.446e-07
-2.09676e-07
-8.28628e-07
2.30145e-07
-1.83651e-07
8.80758e-07
-1.89339e-07
-1.95568e-07
0.000268077
-1.22272e-06
0.000270094
-0.000268079
2.31358e-07
2.37749e-07
-1.38335e-07
-4.83914e-08
0.00113215
-2.00221e-07
1.21523e-06
2.37572e-07
8.86623e-07
-1.78046e-07
2.35715e-07
-8.22564e-07
-9.40756e-08
-0.00113191
-4.02647e-08
-1.18512e-06
2.40993e-07
-2.07924e-07
-8.25651e-07
2.27792e-07
8.78344e-07
-1.8071e-07
1.2134e-06
0.00113206
-9.48328e-08
-0.0011321
-4.51379e-08
-1.17327e-06
2.37049e-07
-2.01174e-07
-8.28429e-07
2.30194e-07
-1.83686e-07
8.80573e-07
-0.000268072
2.29724e-07
2.39687e-07
1.22634e-06
1.18335e-06
-1.9105e-07
-1.99279e-07
0.0002681
-1.27338e-06
-1.2311e-06
0.000270134
-0.000268112
2.37165e-07
2.45045e-07
-4.27381e-08
0.00113134
-2.1218e-07
1.26695e-06
2.47716e-07
8.81807e-07
-1.80216e-07
-8.28381e-07
2.28575e-07
-1.22204e-06
-9.75099e-08
-5.21714e-08
0.00113146
-2.10451e-07
1.26625e-06
2.49562e-07
8.8629e-07
-1.83623e-07
-8.34339e-07
2.30715e-07
0.00113129
-1.76255e-07
-0.0011313
-6.34755e-08
-1.21883e-06
2.52175e-07
-2.06961e-07
-8.17763e-07
2.38627e-07
-1.70105e-07
8.92517e-07
1.27033e-06
0.00113142
-1.78748e-07
-0.00113143
-6.3454e-08
-1.21628e-06
2.51476e-07
-2.07425e-07
-8.22176e-07
2.42269e-07
-1.71897e-07
8.98526e-07
-1.94654e-07
-1.95452e-07
0.00026809
-1.23456e-06
0.000270126
-0.000268104
2.40738e-07
2.41788e-07
-4.55194e-08
0.00113235
-2.06026e-07
1.22543e-06
2.43207e-07
8.81482e-07
-1.80454e-07
-8.28431e-07
2.28512e-07
-1.21939e-06
-9.77464e-08
-5.07694e-08
0.00113135
-2.07803e-07
1.26339e-06
2.46683e-07
8.83732e-07
-1.8354e-07
-8.31592e-07
2.30731e-07
0.0011323
-1.74992e-07
-0.00113231
-6.4387e-08
-1.17637e-06
2.46805e-07
-2.01501e-07
-8.17697e-07
2.38817e-07
-1.70137e-07
8.92397e-07
1.26749e-06
0.00113131
-1.76753e-07
-0.00113131
-6.28232e-08
-1.21372e-06
2.48686e-07
-2.04754e-07
-8.19917e-07
2.41937e-07
-1.72237e-07
8.95536e-07
-1.01704e-07
-4.7049e-08
0.00113103
-2.0889e-07
1.25659e-06
2.45409e-07
8.81814e-07
-1.82788e-07
2.31435e-07
-8.28184e-07
-1.80681e-07
-0.00113191
-6.6831e-08
-1.17813e-06
2.47672e-07
-2.00615e-07
-8.1973e-07
2.4188e-07
8.9552e-07
-1.72283e-07
1.26216e-06
0.00113099
-1.79356e-07
-0.00113099
-6.14825e-08
-1.20799e-06
2.49034e-07
-2.04425e-07
-8.16942e-07
2.41835e-07
-1.72149e-07
8.92949e-07
-1.92265e-07
-1.95394e-07
0.000268078
-1.23177e-06
0.00027011
-0.000268091
2.38179e-07
2.41666e-07
-1.01448e-07
-4.95778e-08
0.00113203
-2.00075e-07
1.215e-06
2.38086e-07
8.81471e-07
-1.82967e-07
2.31373e-07
-8.28172e-07
-1.78874e-07
-0.00113181
-6.61933e-08
-1.17556e-06
2.4767e-07
-2.00667e-07
-8.14681e-07
2.38871e-07
8.89818e-07
-1.69922e-07
1.21987e-06
0.00113199
-1.78299e-07
-0.001132
-6.24442e-08
-1.16556e-06
2.40943e-07
-1.96238e-07
-8.16783e-07
2.4202e-07
-1.72126e-07
8.92826e-07
-0.000268085
2.34333e-07
2.448e-07
1.21838e-06
1.17637e-06
-1.86595e-07
-1.94021e-07
0.00026812
-1.26251e-06
-1.21999e-06
0.000270157
-0.000268138
2.27442e-07
2.35303e-07
-6.51457e-08
0.0011313
-2.06814e-07
1.27302e-06
2.51882e-07
8.93643e-07
-1.6866e-07
-8.15823e-07
2.39239e-07
-1.21712e-06
-1.89201e-07
-5.80646e-08
0.00113143
-2.08429e-07
1.2688e-06
2.50204e-07
8.99652e-07
-1.70452e-07
-8.20105e-07
2.4273e-07
0.00113128
-9.40943e-08
-0.00113129
-3.92568e-08
-1.22839e-06
2.44101e-07
-2.14501e-07
-8.30409e-07
2.22872e-07
-1.83377e-07
8.76915e-07
1.25949e-06
0.0011314
-9.26403e-08
-0.00113142
-3.47781e-08
-1.22666e-06
2.44162e-07
-2.14956e-07
-8.36047e-07
2.24866e-07
-1.86691e-07
8.81456e-07
-1.88376e-07
-1.92361e-07
0.000268112
-1.22209e-06
0.000270147
-0.000268127
2.29716e-07
2.32591e-07
-6.40264e-08
0.0011323
-2.0177e-07
1.23032e-06
2.46148e-07
8.93721e-07
-1.68482e-07
-8.15542e-07
2.39614e-07
-1.21436e-06
-1.88171e-07
-5.88541e-08
0.00113131
-2.05561e-07
1.26616e-06
2.47599e-07
8.96812e-07
-1.70638e-07
-8.17747e-07
2.42594e-07
0.00113229
-9.62006e-08
-0.0011323
-3.76076e-08
-1.18642e-06
2.3869e-07
-2.09328e-07
-8.30058e-07
2.23103e-07
-1.83281e-07
8.76962e-07
1.25694e-06
0.00113129
-9.47225e-08
-0.00113131
-3.60113e-08
-1.22369e-06
2.41499e-07
-2.12051e-07
-8.33124e-07
2.25181e-07
-1.86358e-07
8.79174e-07
-1.85988e-07
-5.98861e-08
0.00113099
-2.04691e-07
1.26135e-06
2.48389e-07
8.93591e-07
-1.7119e-07
2.41889e-07
-8.15413e-07
-8.84343e-08
-0.0011319
-3.66664e-08
-1.18921e-06
2.38128e-07
-2.09586e-07
-8.33543e-07
2.25203e-07
8.78823e-07
-1.86593e-07
1.25139e-06
0.00113096
-8.79923e-08
-0.00113098
-3.81772e-08
-1.21786e-06
2.41423e-07
-2.11792e-07
-8.31224e-07
2.24685e-07
-1.86979e-07
8.75751e-07
-1.85745e-07
-1.92319e-07
0.000268099
-1.21955e-06
0.000270131
-0.000268115
2.27246e-07
2.32655e-07
-1.86153e-07
-5.90279e-08
0.00113199
-1.96869e-07
1.21868e-06
2.39979e-07
8.93634e-07
-1.70985e-07
2.42218e-07
-8.15075e-07
-9.03804e-08
-0.0011318
-3.79565e-08
-1.18623e-06
2.38217e-07
-2.09407e-07
-8.27917e-07
2.22815e-07
8.73767e-07
-1.83614e-07
1.20888e-06
0.00113196
-8.98944e-08
-0.00113198
-3.66642e-08
-1.17587e-06
2.33282e-07
-2.0387e-07
-8.30858e-07
2.24878e-07
-1.86858e-07
8.75734e-07
-0.000268106
2.2478e-07
2.35193e-07
1.23082e-06
1.18845e-06
-1.96044e-07
-2.03827e-07
0.000268138
-1.27597e-06
-1.23416e-06
0.000270163
-0.000268142
2.4086e-07
2.48346e-07
-3.38356e-08
0.00113125
-2.1587e-07
1.26116e-06
2.43365e-07
8.71471e-07
-1.88679e-07
-8.36741e-07
2.18772e-07
-1.22764e-06
-5.93302e-08
-3.69159e-08
0.00113137
-2.14934e-07
1.25956e-06
2.44696e-07
8.75816e-07
-1.92188e-07
-8.42717e-07
2.20697e-07
0.00113118
-1.58442e-07
-0.0011312
-6.76706e-08
-1.21786e-06
2.54631e-07
-2.05358e-07
-8.21139e-07
2.38001e-07
-1.72998e-07
8.91734e-07
1.27474e-06
0.00113131
-1.58799e-07
-0.00113132
-7.61481e-08
-1.21362e-06
2.55652e-07
-2.04104e-07
-8.2613e-07
2.41146e-07
-1.75383e-07
8.97237e-07
-1.9936e-07
-2.00594e-07
0.000268127
-1.23656e-06
0.000270154
-0.000268133
2.43553e-07
2.46379e-07
-3.40492e-08
0.00113226
-2.10298e-07
1.21905e-06
2.38344e-07
8.71328e-07
-1.88757e-07
-8.36579e-07
2.18839e-07
-1.22488e-06
-6.08176e-08
-3.67253e-08
0.00113126
-2.12246e-07
1.2568e-06
2.41836e-07
8.73452e-07
-1.91954e-07
-8.39802e-07
2.20876e-07
0.00113219
-1.57007e-07
-0.0011322
-7.03182e-08
-1.17501e-06
2.49755e-07
-1.99455e-07
-8.21213e-07
2.38038e-07
-1.73182e-07
8.91454e-07
1.27168e-06
0.00113119
-1.56787e-07
-0.00113121
-7.40785e-08
-1.21125e-06
2.52672e-07
-2.01625e-07
-8.23822e-07
2.40811e-07
-1.75687e-07
8.94252e-07
-5.90458e-08
-3.7439e-08
0.00113093
-2.12502e-07
1.25072e-06
2.41229e-07
8.70791e-07
-1.91758e-07
2.21166e-07
-8.37245e-07
-1.65659e-07
-0.0011318
-6.93444e-08
-1.17781e-06
2.49526e-07
-1.99659e-07
-8.22699e-07
2.41555e-07
8.95203e-07
-1.74874e-07
1.26574e-06
0.00113087
-1.65939e-07
-0.00113089
-7.25968e-08
-1.20602e-06
2.52235e-07
-2.01982e-07
-8.19816e-07
2.41705e-07
-1.74608e-07
8.92773e-07
-1.96852e-07
-2.00533e-07
0.000268115
-1.23351e-06
0.000270138
-0.00026812
2.40826e-07
2.46127e-07
-6.01241e-08
-3.75581e-08
0.00113193
-2.04226e-07
1.20858e-06
2.33435e-07
8.7062e-07
-1.91796e-07
2.21223e-07
-8.37042e-07
-1.63923e-07
-0.0011317
-6.72394e-08
-1.17546e-06
2.49314e-07
-1.99927e-07
-8.17568e-07
2.38573e-07
8.8955e-07
-1.72443e-07
1.22391e-06
0.00113188
-1.64765e-07
-0.00113189
-7.51589e-08
-1.16321e-06
2.4463e-07
-1.93357e-07
-8.19781e-07
2.41745e-07
-1.74726e-07
8.92512e-07
-0.000268114
2.38544e-07
2.48634e-07
1.21058e-06
1.16801e-06
-1.7917e-07
-1.87024e-07
0.000268151
-1.26649e-06
-1.22375e-06
0.000270189
-0.000268171
2.32375e-07
2.4048e-07
-8.4471e-08
0.00113117
-2.00336e-07
1.28171e-06
2.58398e-07
9.04854e-07
-1.6047e-07
-8.07387e-07
2.49531e-07
-1.20751e-06
-2.2707e-07
-8.66596e-08
0.0011313
-2.00306e-07
1.2792e-06
2.5819e-07
9.10639e-07
-1.62533e-07
-8.11978e-07
2.52874e-07
0.00113113
-1.71766e-07
-0.00113116
-5.03369e-08
-1.22002e-06
2.47744e-07
-2.07893e-07
-8.08726e-07
2.42527e-07
-1.61041e-07
8.95244e-07
1.26228e-06
0.00113125
-1.72149e-07
-0.00113129
-4.14068e-08
-1.21915e-06
2.46493e-07
-2.09436e-07
-8.13805e-07
2.45047e-07
-1.63738e-07
9.00339e-07
-1.81728e-07
-1.84149e-07
0.000268142
-1.22658e-06
0.000270179
-0.000268162
2.35298e-07
2.3673e-07
-8.57695e-08
0.00113218
-1.94729e-07
1.23958e-06
2.53208e-07
9.04729e-07
-1.605e-07
-8.07325e-07
2.49717e-07
-1.20499e-06
-2.25211e-07
-8.56821e-08
0.00113119
-1.97626e-07
1.27632e-06
2.55424e-07
9.07678e-07
-1.6283e-07
-8.09718e-07
2.52594e-07
0.00113214
-1.73741e-07
-0.00113217
-4.79629e-08
-1.17817e-06
2.42072e-07
-2.02899e-07
-8.08319e-07
2.42894e-07
-1.60823e-07
8.95375e-07
1.25992e-06
0.00113114
-1.73637e-07
-0.00113117
-4.36139e-08
-1.21606e-06
2.4407e-07
-2.06336e-07
-8.11074e-07
2.45239e-07
-1.63603e-07
8.97886e-07
-2.31168e-07
-8.46926e-08
0.00113087
-1.97703e-07
1.2707e-06
2.55285e-07
9.05527e-07
-1.62377e-07
2.52794e-07
-8.06211e-07
-1.66535e-07
-0.00113177
-4.92745e-08
-1.18033e-06
2.42257e-07
-2.02495e-07
-8.11957e-07
2.44664e-07
8.96998e-07
-1.64355e-07
1.25451e-06
0.00113082
-1.66056e-07
-0.00113085
-4.38984e-08
-1.21018e-06
2.44218e-07
-2.05956e-07
-8.09351e-07
2.44319e-07
-1.64447e-07
8.94165e-07
-1.79252e-07
-1.84239e-07
0.000268129
-1.22426e-06
0.000270164
-0.000268149
2.32999e-07
2.36938e-07
-2.30372e-07
-8.62256e-08
0.00113187
-1.8931e-07
1.22862e-06
2.47433e-07
9.0538e-07
-1.62371e-07
2.52952e-07
-8.0607e-07
-1.67508e-07
-0.00113167
-5.1636e-08
-1.17719e-06
2.426e-07
-2.02099e-07
-8.0658e-07
2.42124e-07
8.91707e-07
-1.61583e-07
1.21182e-06
0.00113182
-1.67517e-07
-0.00113186
-4.19666e-08
-1.16826e-06
2.3585e-07
-1.98173e-07
-8.08972e-07
2.44624e-07
-1.64238e-07
8.94197e-07
-0.000268143
2.29173e-07
2.39797e-07
1.23303e-06
1.19106e-06
-1.95989e-07
-2.03452e-07
0.000268164
-1.25213e-06
-1.21032e-06
0.000270153
-0.000268129
2.15927e-07
2.23285e-07
-1.68561e-08
0.00113108
-2.17368e-07
1.25455e-06
2.39152e-07
8.74105e-07
-1.78936e-07
-8.28313e-07
2.2332e-07
-1.23147e-06
-6.33047e-08
-1.16451e-08
0.0011312
-2.181e-07
1.25123e-06
2.38834e-07
8.78854e-07
-1.82059e-07
-8.33803e-07
2.25553e-07
0.00113092
3.18962e-08
-0.00113094
-7.54824e-09
-1.24099e-06
2.33614e-07
-2.24636e-07
-8.58678e-07
1.95601e-07
-2.09245e-07
8.50741e-07
1.25103e-06
0.00113104
3.34081e-08
-0.00113106
-1.55174e-08
-1.23697e-06
2.35016e-07
-2.23312e-07
-8.64199e-07
1.98077e-07
-2.12269e-07
8.55639e-07
-1.98584e-07
-2.01425e-07
0.000268154
-1.21244e-06
0.000270143
-0.00026812
2.18254e-07
2.21652e-07
-1.49922e-08
0.00113208
-2.12233e-07
1.21197e-06
2.33655e-07
8.74162e-07
-1.78806e-07
-8.27972e-07
2.23589e-07
-1.22843e-06
-6.51403e-08
-1.34718e-08
0.00113109
-2.15109e-07
1.24877e-06
2.36257e-07
8.7649e-07
-1.81801e-07
-8.30952e-07
2.25798e-07
0.00113192
3.28092e-08
-0.00113195
-9.66474e-09
-1.19825e-06
2.28772e-07
-2.18791e-07
-8.58707e-07
1.95523e-07
-2.09504e-07
8.50456e-07
1.2481e-06
0.00113093
3.37712e-08
-0.00113095
-1.41592e-08
-1.23441e-06
2.32021e-07
-2.20773e-07
-8.6155e-07
1.98089e-07
-2.12229e-07
8.53012e-07
-5.81995e-08
-1.3499e-08
0.00113076
-2.14878e-07
1.2432e-06
2.36271e-07
8.73063e-07
-1.8245e-07
2.25263e-07
-8.29089e-07
2.82568e-08
-0.00113154
-8.81288e-09
-1.20119e-06
2.28279e-07
-2.19157e-07
-8.60643e-07
1.98858e-07
8.53857e-07
-2.11484e-07
1.24197e-06
0.0011306
2.96819e-08
-0.00113062
-1.30119e-08
-1.22927e-06
2.31485e-07
-2.21155e-07
-8.58215e-07
1.9861e-07
-2.11632e-07
8.50965e-07
-1.95871e-07
-2.01185e-07
0.000268142
-1.20941e-06
0.000270128
-0.000268107
2.15538e-07
2.21473e-07
-5.97741e-08
-1.17123e-08
0.00113176
-2.07038e-07
1.20058e-06
2.2799e-07
8.73069e-07
-1.82301e-07
2.25499e-07
-8.28726e-07
2.7686e-08
-0.00113144
-7.04302e-09
-1.19877e-06
2.28012e-07
-2.19421e-07
-8.55085e-07
1.96242e-07
8.48651e-07
-2.08689e-07
1.20005e-06
0.0011316
2.97545e-08
-0.00113162
-1.45337e-08
-1.18665e-06
2.23852e-07
-2.1266e-07
-8.58073e-07
1.98555e-07
-2.11795e-07
8.50763e-07
-0.000268099
2.137e-07
2.23675e-07
1.2293e-06
1.18647e-06
-2.00873e-07
-2.08984e-07
0.000268147
-1.30222e-06
-1.25981e-06
0.000270339
-0.0002683
2.57563e-07
2.65577e-07
-4.95667e-08
0.00113096
-2.17256e-07
1.26585e-06
2.42643e-07
8.67413e-07
-2.0194e-07
-8.45688e-07
2.07095e-07
-1.22537e-06
-8.37648e-08
-5.69843e-08
0.00113109
-2.16157e-07
1.2645e-06
2.43685e-07
8.72605e-07
-2.04669e-07
-8.50941e-07
2.09897e-07
0.00113141
-4.80451e-07
-0.00113124
-1.65391e-07
-1.18815e-06
2.73192e-07
-1.86544e-07
-7.78743e-07
2.69725e-07
-1.42701e-07
9.32894e-07
1.29883e-06
0.00113153
-4.81096e-07
-0.00113137
-1.62113e-07
-1.18626e-06
2.72443e-07
-1.87362e-07
-7.83549e-07
2.72707e-07
-1.45101e-07
9.3839e-07
-2.03892e-07
-2.0536e-07
0.000268138
-1.26253e-06
0.000270331
-0.000268292
2.60571e-07
2.62187e-07
-5.22412e-08
0.00113197
-2.11365e-07
1.22409e-06
2.37802e-07
8.67107e-07
-2.02228e-07
-8.45759e-07
2.07012e-07
-1.22291e-06
-8.26937e-08
-5.50677e-08
0.00113098
-2.13679e-07
1.26149e-06
2.4066e-07
8.69856e-07
-2.04713e-07
-8.48396e-07
2.09809e-07
0.00113241
-4.80462e-07
-0.00113225
-1.65628e-07
-1.14589e-06
2.67763e-07
-1.8121e-07
-7.78505e-07
2.69994e-07
-1.42634e-07
9.32882e-07
1.29594e-06
0.00113142
-4.80461e-07
-0.00113126
-1.61338e-07
-1.1837e-06
2.69616e-07
-1.84692e-07
-7.81073e-07
2.72622e-07
-1.45161e-07
9.35645e-07
-8.85799e-08
-5.44082e-08
0.00113065
-2.13936e-07
1.25552e-06
2.40285e-07
8.67911e-07
-2.04074e-07
2.10372e-07
-8.44929e-07
-4.8059e-07
-0.00113185
-1.64951e-07
-1.14831e-06
2.67867e-07
-1.81023e-07
-7.81284e-07
2.72433e-07
9.35351e-07
-1.45496e-07
1.29082e-06
0.0011311
-4.81802e-07
-0.00113094
-1.63171e-07
-1.17767e-06
2.70046e-07
-1.84151e-07
-7.78366e-07
2.72526e-07
-1.45199e-07
9.32907e-07
-2.01491e-07
-2.05504e-07
0.000268125
-1.26001e-06
0.000270314
-0.000268279
2.58178e-07
2.62035e-07
-8.76964e-08
-5.6859e-08
0.00113165
-2.05277e-07
1.21377e-06
2.32785e-07
8.67619e-07
-2.04314e-07
2.10264e-07
-8.44878e-07
-4.78508e-07
-0.00113175
-1.65305e-07
-1.14539e-06
2.68092e-07
-1.80768e-07
-7.76345e-07
2.69462e-07
9.29555e-07
-1.43079e-07
1.24878e-06
0.00113211
-4.80496e-07
-0.00113194
-1.64605e-07
-1.13505e-06
2.62202e-07
-1.75744e-07
-7.78347e-07
2.72569e-07
-1.45346e-07
9.32569e-07
-0.000268273
2.54886e-07
2.65196e-07
1.1835e-06
1.14148e-06
-1.59291e-07
-1.66704e-07
0.00026834
-1.29583e-06
-1.25321e-06
0.000270199
-0.000268229
2.85539e-07
2.93548e-07
-1.68939e-07
0.00113149
-1.7779e-07
1.30746e-06
2.82973e-07
9.40817e-07
-1.29147e-07
-7.70514e-07
2.84371e-07
-1.18188e-06
-4.65082e-07
-1.63864e-07
0.00113161
-1.78758e-07
1.30389e-06
2.82148e-07
9.46231e-07
-1.31617e-07
-7.75388e-07
2.87261e-07
0.00113074
-4.5479e-08
-0.00113115
-9.10627e-08
-1.19209e-06
2.87454e-07
-1.6856e-07
-7.77799e-07
2.90148e-07
-1.15206e-07
9.27325e-07
1.29306e-06
0.00113086
-4.65362e-08
-0.00113127
-8.87444e-08
-1.18978e-06
2.87463e-07
-1.68748e-07
-7.82901e-07
2.92842e-07
-1.17926e-07
9.32543e-07
-1.61673e-07
-1.64748e-07
0.000268332
-1.25617e-06
0.000270189
-0.000268219
2.88573e-07
2.90846e-07
-1.67844e-07
0.00113249
-1.7268e-07
1.26482e-06
2.77345e-07
9.40945e-07
-1.2896e-07
-7.7013e-07
2.84725e-07
-1.17924e-06
-4.6497e-07
-1.63838e-07
0.0011315
-1.76013e-07
1.30109e-06
2.794e-07
9.43527e-07
-1.31675e-07
-7.72858e-07
2.87175e-07
0.00113174
-4.79451e-08
-0.00113216
-8.87435e-08
-1.15016e-06
2.81924e-07
-1.63446e-07
-7.77357e-07
2.90478e-07
-1.14999e-07
9.27464e-07
1.29054e-06
0.00113075
-4.7234e-08
-0.00113116
-9.04049e-08
-1.18687e-06
2.84923e-07
-1.65781e-07
-7.80283e-07
2.92858e-07
-1.17895e-07
9.29922e-07
-4.64187e-07
-1.6585e-07
0.00113118
-1.75369e-07
1.29606e-06
2.79877e-07
9.40648e-07
-1.31838e-07
2.86991e-07
-7.70336e-07
-4.49425e-08
-0.00113175
-9.08014e-08
-1.15223e-06
2.82185e-07
-1.63e-07
-7.80217e-07
2.92984e-07
9.29932e-07
-1.17885e-07
1.2877e-06
0.00113042
-4.37597e-08
-0.00113084
-9.01575e-08
-1.18382e-06
2.84831e-07
-1.65599e-07
-7.77754e-07
2.92692e-07
-1.17995e-07
9.27024e-07
-1.58978e-07
-1.64774e-07
0.000268318
-1.2533e-06
0.000270173
-0.000268206
2.85825e-07
2.90931e-07
-4.63768e-07
-1.65872e-07
0.00113218
-1.67272e-07
1.25369e-06
2.7172e-07
9.40477e-07
-1.31777e-07
2.87216e-07
-7.70179e-07
-4.60426e-08
-0.00113165
-9.16651e-08
-1.14962e-06
2.82021e-07
-1.63126e-07
-7.7469e-07
2.90525e-07
9.24783e-07
-1.14944e-07
1.242e-06
0.00113143
-4.6768e-08
-0.00113184
-8.70181e-08
-1.13944e-06
2.76231e-07
-1.58065e-07
-7.79775e-07
2.93175e-07
-1.17624e-07
9.30065e-07
-0.000268197
2.82765e-07
2.93685e-07
1.20259e-06
1.1604e-06
-1.42227e-07
-1.49821e-07
0.000268128
-1.24688e-06
-1.20511e-06
0.000270041
-0.000267999
2.01365e-07
2.08688e-07
-5.53673e-08
0.00113026
-1.75966e-07
1.28595e-06
2.78646e-07
9.17188e-07
-1.22251e-07
-7.87634e-07
2.79491e-07
-1.19994e-06
5.79609e-08
-5.44639e-08
0.00113038
-1.75854e-07
1.28346e-06
2.78891e-07
9.22367e-07
-1.24986e-07
-7.92762e-07
2.82151e-07
0.00112965
-8.69686e-08
-0.00112963
-5.06979e-09
-1.23581e-06
2.21871e-07
-2.2672e-07
-8.30196e-07
2.11503e-07
-1.8158e-07
8.68329e-07
1.24464e-06
0.00112977
-8.63621e-08
-0.00112976
-6.21591e-09
-1.23287e-06
2.22272e-07
-2.26405e-07
-8.3555e-07
2.1398e-07
-1.84485e-07
8.73259e-07
-1.44698e-07
-1.47027e-07
0.000268118
-1.2072e-06
0.000270031
-0.000267989
2.03679e-07
2.06279e-07
-5.3737e-08
0.00113127