/*--------------------------------*- C++ -*----------------------------------*\
| =========                 |                                                 |
| \\      /  F ield         | OpenFOAM: The Open Source CFD Toolbox           |
|  \\    /   O peration     | Version:  v2006                                 |
|   \\  /    A nd           | Website:  www.openfoam.com                      |
|    \\/     M anipulation  |                                                 |
\*---------------------------------------------------------------------------*/
FoamFile
{
    version     2.0;
    format      ascii;
    class       volScalarField;
    location    "250";
    object      epsilon;
}
// * * * * * * * * * * * * * * * * * * * * * * * * * * * * * * * * * * * * * //

dimensions      [0 2 -3 0 0 0 0];


internalField   nonuniform List<scalar> 
14258
(
3.97281e-06
8.97293e-06
3.9729e-06
8.97413e-06
1.82958e-05
1.82983e-05
6.35747e-07
5.29845e-06
5.30007e-06
1.69177e-06
3.77063e-07
3.18316e-06
2.1063e-07
1.69181e-06
3.7687e-07
3.18364e-06
2.10623e-07
3.9728e-06
1.69176e-06
2.10639e-07
1.21476e-05
3.97197e-06
1.07559e-05
4.67077e-06
1.07555e-05
4.67e-06
1.21477e-05
2.21272e-05
7.14411e-06
8.97184e-06
7.14633e-06
2.21268e-05
1.21478e-05
3.97208e-06
4.67082e-06
1.07562e-05
4.67003e-06
1.07558e-05
1.21479e-05
2.21277e-05
7.14451e-06
8.97304e-06
7.14664e-06
2.21274e-05
1.82954e-05
1.82979e-05
9.68982e-06
2.16628e-05
2.16622e-05
2.16626e-05
2.1662e-05
9.68884e-06
4.27977e-06
9.20434e-06
5.29774e-06
2.42201e-06
9.2016e-06
4.28175e-06
2.41608e-06
4.28656e-06
9.20945e-06
5.29934e-06
2.42307e-06
9.20671e-06
4.28833e-06
2.41785e-06
1.21482e-05
3.97207e-06
1.07562e-05
4.67044e-06
1.07557e-05
4.67015e-06
1.21483e-05
2.21281e-05
7.14288e-06
7.14509e-06
2.21277e-05
2.25306e-06
6.35127e-07
1.24953e-06
1.24994e-06
2.25615e-06
1.24662e-06
1.24702e-06
8.28262e-07
1.68834e-06
1.98341e-06
6.99934e-07
1.97991e-06
6.97775e-07
8.29858e-07
1.07076e-06
2.53792e-06
3.18124e-06
1.516e-06
2.53577e-06
1.51267e-06
1.07252e-06
8.28354e-07
1.68843e-06
1.98348e-06
6.99979e-07
1.97993e-06
6.97824e-07
8.2992e-07
1.07087e-06
2.53806e-06
3.18171e-06
1.51645e-06
2.53587e-06
1.5131e-06
1.07261e-06
8.28312e-07
1.68841e-06
6.99971e-07
1.98324e-06
6.97807e-07
1.97997e-06
8.29898e-07
1.07088e-06
2.53769e-06
2.53556e-06
1.07261e-06
6.25906e-07
3.59635e-07
9.3774e-07
3.54359e-07
4.03079e-06
6.18247e-07
9.30035e-07
1.82898e-05
6.25649e-07
3.59614e-07
3.35859e-06
9.37668e-07
5.37978e-06
1.82881e-05
9.04089e-06
6.25975e-07
3.59645e-07
1.95192e-06
5.38036e-06
5.37811e-06
1.82887e-05
1.94937e-06
3.35567e-06
4.03088e-06
9.04027e-06
1.94932e-06
6.18695e-07
3.3558e-06
9.04018e-06
3.35557e-06
9.04007e-06
5.37844e-06
5.37854e-06
1.82897e-05
3.59647e-07
3.35854e-06
1.95182e-06
4.03174e-06
9.04068e-06
4.03162e-06
1.82891e-05
4.43919e-06
5.38038e-06
9.34538e-06
2.67135e-06
1.21296e-05
1.07574e-05
4.69659e-06
4.03022e-06
1.21304e-05
1.07567e-05
4.69616e-06
1.82871e-05
1.82905e-05
9.68294e-06
2.16095e-05
2.1612e-05
4.4379e-06
9.34198e-06
2.66929e-06
5.38043e-06
2.67152e-06
9.34489e-06
4.43564e-06
1.82905e-05
2.19791e-05
7.07719e-06
9.04242e-06
7.07594e-06
2.19768e-05
4.43859e-06
2.66844e-06
9.34201e-06
5.38042e-06
4.43595e-06
2.6714e-06
9.34525e-06
4.69678e-06
1.07577e-05
1.21302e-05
7.07719e-06
2.19809e-05
2.19794e-05
7.07568e-06
9.03839e-06
2.19814e-05
7.07672e-06
2.19804e-05
9.03832e-06
7.07596e-06
7.07701e-06
2.19824e-05
4.43284e-06
2.66715e-06
5.37773e-06
9.34162e-06
4.43432e-06
2.6642e-06
9.33823e-06
4.43337e-06
2.66597e-06
5.378e-06
9.34077e-06
4.43449e-06
2.66289e-06
9.33809e-06
9.68112e-06
2.16112e-05
2.16069e-05
9.68066e-06
2.16086e-05
2.16046e-05
1.82871e-05
1.21305e-05
4.03208e-06
4.69724e-06
1.07575e-05
4.69727e-06
1.21296e-05
1.07582e-05
2.19807e-05
7.0757e-06
9.04235e-06
2.19786e-05
7.07482e-06
1.21312e-05
4.03212e-06
4.69695e-06
1.07576e-05
1.21305e-05
4.69737e-06
1.07583e-05
1.82917e-05
2.52308e-06
9.37334e-07
1.58228e-06
1.58113e-06
1.58287e-06
2.52148e-06
1.58225e-06
2.51602e-06
1.57636e-06
9.30301e-07
1.57511e-06
2.51757e-06
1.57506e-06
1.57386e-06
1.41152e-06
1.84859e-06
2.73694e-06
3.3595e-06
1.84995e-06
2.73796e-06
1.41126e-06
2.52302e-06
1.58118e-06
1.5821e-06
9.37327e-07
1.58284e-06
2.5214e-06
1.58218e-06
1.1856e-06
1.95464e-06
1.04381e-06
2.22133e-06
1.18543e-06
1.04484e-06
2.22417e-06
1.03642e-06
2.2193e-06
1.17716e-06
1.84304e-06
2.73381e-06
1.40392e-06
1.17692e-06
1.03641e-06
2.21921e-06
1.94646e-06
1.17715e-06
1.03534e-06
2.21624e-06
1.40357e-06
2.73362e-06
1.84325e-06
3.35481e-06
1.40394e-06
2.7324e-06
1.84166e-06
1.40335e-06
1.84259e-06
3.35458e-06
2.73345e-06
2.73224e-06
1.84108e-06
1.40368e-06
1.41133e-06
1.84814e-06
2.73641e-06
3.35947e-06
1.84968e-06
1.411e-06
2.73769e-06
1.1855e-06
1.95464e-06
1.04377e-06
2.22114e-06
1.04481e-06
1.18531e-06
2.22408e-06
4.03158e-06
1.95186e-06
4.03172e-06
1.95181e-06
3.3586e-06
9.04067e-06
5.37982e-06
1.8289e-05
1.21308e-05
1.07575e-05
4.69687e-06
4.03212e-06
1.07581e-05
4.69726e-06
1.21301e-05
1.21307e-05
4.69725e-06
1.07577e-05
4.03222e-06
4.69746e-06
1.07584e-05
1.21299e-05
2.19796e-05
7.07545e-06
9.04215e-06
7.07442e-06
2.19776e-05
4.4382e-06
2.6694e-06
5.38049e-06
9.34271e-06
2.67164e-06
4.43643e-06
9.34489e-06
9.6835e-06
2.16094e-05
2.16056e-05
9.6809e-06
2.16122e-05
2.16098e-05
1.82912e-05
1.18557e-06
1.0438e-06
2.22133e-06
1.95471e-06
2.22421e-06
1.04482e-06
1.18542e-06
1.18556e-06
1.04379e-06
2.22121e-06
1.95466e-06
1.04481e-06
2.2241e-06
1.18541e-06
1.41151e-06
2.73655e-06
1.84875e-06
3.35951e-06
2.73767e-06
1.85003e-06
1.41124e-06
1.82926e-05
1.82951e-05
6.4458e-07
5.30041e-06
5.30201e-06
3.97473e-06
8.97322e-06
3.97467e-06
8.97322e-06
1.69934e-06
3.83227e-07
3.18808e-06
2.1364e-07
1.6993e-06
3.83306e-07
3.18841e-06
2.13649e-07
1.82944e-05
6.4462e-07
5.30158e-06
5.30052e-06
1.82931e-05
3.97484e-06
8.97444e-06
1.69943e-06
3.83166e-07
3.18856e-06
2.1365e-07
3.97482e-06
8.97405e-06
1.69942e-06
3.83318e-07
2.13661e-07
3.18863e-06
3.83121e-07
3.18813e-06
8.9738e-06
1.82956e-05
6.4465e-07
5.30213e-06
5.30059e-06
1.82938e-05
1.69942e-06
3.83141e-07
2.13652e-07
3.18822e-06
3.97483e-06
8.97402e-06
1.82931e-05
1.82957e-05
9.68817e-06
2.16584e-05
2.16578e-05
9.68895e-06
2.16589e-05
2.16583e-05
4.28767e-06
5.3011e-06
9.20544e-06
2.42576e-06
4.28544e-06
9.20825e-06
2.43169e-06
4.2941e-06
5.30274e-06
9.21053e-06
2.42764e-06
4.29234e-06
9.21336e-06
2.43261e-06
1.21466e-05
3.97552e-06
1.07555e-05
4.67127e-06
1.21465e-05
1.07559e-05
4.67198e-06
2.21193e-05
8.97434e-06
7.14327e-06
2.21196e-05
7.1411e-06
1.21469e-05
3.97545e-06
1.07554e-05
4.67112e-06
1.21469e-05
1.07558e-05
4.67181e-06
2.21207e-05
8.97424e-06
7.14216e-06
2.2121e-05
7.13992e-06
1.82947e-05
9.68815e-06
2.16573e-05
2.16584e-05
9.68894e-06
2.16577e-05
2.16594e-05
4.29475e-06
5.30263e-06
9.21007e-06
2.42709e-06
2.43298e-06
4.29159e-06
9.21257e-06
4.28711e-06
5.30085e-06
9.20593e-06
2.42628e-06
4.28626e-06
9.2089e-06
2.4314e-06
1.82938e-05
1.21468e-05
3.97561e-06
4.67133e-06
1.07558e-05
1.21468e-05
4.67206e-06
1.07562e-05
2.212e-05
8.9756e-06
7.14363e-06
2.21203e-05
7.14155e-06
1.21471e-05
3.97551e-06
1.07558e-05
4.67141e-06
1.2147e-05
1.07562e-05
4.67167e-06
2.21202e-05
8.97515e-06
7.14203e-06
2.21205e-05
7.13988e-06
2.21192e-05
8.97503e-06
7.14343e-06
2.21192e-05
7.14118e-06
1.82961e-05
9.68847e-06
2.16584e-05
2.16588e-05
9.6894e-06
2.16587e-05
2.16591e-05
4.29427e-06
5.30266e-06
9.21049e-06
2.42746e-06
2.43305e-06
4.2925e-06
9.2133e-06
4.28755e-06
9.20563e-06
2.42613e-06
5.30128e-06
4.28582e-06
9.20844e-06
2.43151e-06
1.82943e-05
4.67148e-06
1.07556e-05
1.21463e-05
7.1435e-06
2.21192e-05
1.40411e-07
9.857e-08
9.85609e-08
8.06858e-08
1.40416e-07
9.85717e-08
9.8563e-08
8.06861e-08
1.40426e-07
9.85754e-08
9.85654e-08
8.06884e-08
1.40427e-07
9.85756e-08
9.85675e-08
8.06886e-08
2.26656e-06
6.45173e-07
1.25894e-06
1.25934e-06
2.26352e-06
1.2618e-06
1.2622e-06
8.41431e-07
1.70271e-06
1.98991e-06
7.08657e-07
8.39875e-07
1.99337e-06
7.10796e-07
1.08433e-06
3.18996e-06
2.54397e-06
1.52522e-06
1.5285e-06
1.08262e-06
2.54607e-06
8.41382e-07
1.70267e-06
1.98971e-06
7.08638e-07
8.39849e-07
1.99329e-06
7.10769e-07
1.08432e-06
3.19023e-06
2.54368e-06
1.52562e-06
1.08263e-06
2.54576e-06
1.52887e-06
2.26661e-06
6.45193e-07
1.25919e-06
1.25914e-06
1.26215e-06
2.26359e-06
1.26185e-06
8.41501e-07
1.70279e-06
1.98994e-06
7.0871e-07
8.39969e-07
1.99347e-06
7.10846e-07
1.08442e-06
3.19046e-06
2.54408e-06
1.52566e-06
1.52895e-06
1.08273e-06
2.54622e-06
8.41475e-07
1.7027e-06
7.08696e-07
1.98997e-06
8.39929e-07
7.10834e-07
1.9932e-06
1.08443e-06
3.19042e-06
2.54377e-06
1.52577e-06
1.08274e-06
2.54584e-06
1.52902e-06
1.08431e-06
3.19004e-06
2.5439e-06
1.52527e-06
1.08261e-06
1.52855e-06
2.54604e-06
2.26667e-06
6.45239e-07
1.25937e-06
1.25905e-06
1.26223e-06
2.26363e-06
1.2619e-06
7.08745e-07
1.99e-06
8.39962e-07
2.54394e-06
1.52527e-06
1.08265e-06
1.82833e-05
1.82853e-05
6.82231e-07
5.31069e-06
5.31203e-06
3.98463e-06
8.98018e-06
8.8589e-07
4.08777e-07
3.21432e-06
2.26548e-07
3.98463e-06
7.52039e-07
2.26563e-07
1.82841e-05
1.82861e-05
9.68299e-06
2.16417e-05
2.16399e-05
2.16417e-05
2.16409e-05
9.68397e-06
4.30927e-06
9.22166e-06
2.463e-06
5.31136e-06
9.22369e-06
4.30795e-06
2.46804e-06
4.31499e-06
9.22466e-06
2.46397e-06
5.3126e-06
9.22791e-06
2.46934e-06
4.31304e-06
1.21424e-05
4.67567e-06
1.07555e-05
3.98526e-06
4.67621e-06
1.07558e-05
1.21424e-05
2.20919e-05
7.13192e-06
8.98136e-06
7.1299e-06
2.2092e-05
1.21428e-05
1.07554e-05
3.98516e-06
4.67577e-06
1.07558e-05
4.67592e-06
1.21427e-05
1.41447e-07
1.71337e-06
1.71333e-06
3.19712e-06
3.97809e-06
1.71336e-06
3.89482e-07
2.16755e-07
3.97814e-06
6.54652e-07
2.16758e-07
3.89369e-07
6.54721e-07
1.82924e-05
6.63514e-07
9.85506e-08
3.95935e-07
1.72044e-06
1.72036e-06
3.20184e-06
3.97998e-06
1.72052e-06
3.97991e-06
9.85367e-08
9.85429e-08
9.85329e-08
1.82907e-05
3.95821e-07
3.20145e-06
1.82907e-05
1.82932e-05
5.3037e-06
5.3054e-06
6.54585e-07
3.9781e-06
8.97582e-06
3.97803e-06
8.97557e-06
3.19661e-06
3.89589e-07
2.16754e-07
3.19662e-06
2.16745e-07
3.89524e-07
1.82918e-05
5.30443e-06
6.54606e-07
5.30433e-06
1.82922e-05
8.97712e-06
3.97822e-06
1.71347e-06
3.89375e-07
2.16748e-07
8.97664e-06
3.89621e-07
2.16765e-07
3.19706e-06
2.16745e-07
3.19701e-06
1.71353e-06
8.97677e-06
3.97823e-06
3.89676e-07
1.7135e-06
3.19701e-06
8.97652e-06
1.82937e-05
5.30526e-06
5.3039e-06
1.82918e-05
3.89444e-07
3.19673e-06
2.16749e-07
8.97666e-06
5.30436e-06
5.30731e-06
5.3058e-06
1.82889e-05
8.97698e-06
3.97988e-06
8.97615e-06
3.98294e-06
8.97883e-06
1.82886e-05
1.82877e-05
8.97745e-06
3.97998e-06
3.98303e-06
8.97985e-06
9.85426e-08
9.85715e-08
2.19929e-07
3.20179e-06
1.7205e-06
4.0228e-07
3.20951e-06
1.82877e-05
1.82861e-05
1.82903e-05
1.82882e-05
5.30569e-06
5.30725e-06
6.63454e-07
6.73342e-07
5.30911e-06
5.30998e-06
3.9798e-06
8.97581e-06
3.98286e-06
8.97873e-06
3.20136e-06
3.959e-07
2.19924e-07
1.73386e-06
4.02441e-07
3.20952e-06
2.23206e-07
3.20134e-06
2.19922e-07
3.95847e-07
1.7338e-06
4.02392e-07
3.20971e-06
2.23194e-07
3.98455e-06
8.97914e-06
3.98448e-06
1.74045e-06
4.08916e-07
3.21399e-06
2.26532e-07
1.74038e-06
2.2654e-07
5.30646e-06
6.63486e-07
5.30622e-06
6.73376e-07
5.30994e-06
5.30894e-06
1.82894e-05
1.82869e-05
1.7205e-06
3.95846e-07
2.19938e-07
8.75919e-07
4.02188e-07
3.20972e-06
2.232e-07
8.977e-06
8.97966e-06
3.98292e-06
3.95998e-07
2.19948e-07
3.20186e-06
1.11916e-06
4.02452e-07
7.43323e-07
2.23211e-07
8.97716e-06
3.98e-06
8.97955e-06
1.72046e-06
9.68828e-06
2.16551e-05
2.16545e-05
2.16546e-05
2.1654e-05
9.68735e-06
9.6884e-06
2.16529e-05
2.16569e-05
2.16529e-05
2.16557e-05
9.6876e-06
1.21459e-05
1.07561e-05
4.67283e-06
3.97746e-06
1.07557e-05
4.67263e-06
1.21461e-05
1.21455e-05
1.07559e-05
4.67296e-06
3.97738e-06
1.07555e-05
4.67227e-06
1.21456e-05
1.82916e-05
9.68586e-06
2.16506e-05
2.165e-05
9.68725e-06
2.16506e-05
2.16501e-05
9.68618e-06
2.16482e-05
2.16527e-05
9.68756e-06
2.16487e-05
2.16525e-05
1.2145e-05
1.07557e-05
4.67377e-06
3.98057e-06
1.21449e-05
1.07561e-05
4.67394e-06
1.21445e-05
1.07555e-05
4.67345e-06
3.98062e-06
1.21444e-05
1.07558e-05
4.67407e-06
1.82913e-05
1.82901e-05
1.82926e-05
4.29092e-06
9.2122e-06
2.44121e-06
5.30305e-06
9.20937e-06
2.43523e-06
4.29358e-06
4.29801e-06
9.21734e-06
2.4419e-06
5.30466e-06
9.21447e-06
2.43729e-06
4.29977e-06
1.21454e-05
1.07559e-05
4.67311e-06
3.97737e-06
1.07555e-05
4.67248e-06
1.21455e-05
2.21123e-05
7.13817e-06
8.97465e-06
7.1403e-06
2.21121e-05
1.21458e-05
1.07558e-05
4.67297e-06
3.97729e-06
1.07554e-05
4.67226e-06
1.21458e-05
2.21137e-05
7.13699e-06
8.97449e-06
7.1391e-06
2.21135e-05
1.82914e-05
4.29577e-06
9.21455e-06
2.4407e-06
5.30389e-06
2.43602e-06
9.21263e-06
4.29693e-06
4.29322e-06
9.21498e-06
2.44257e-06
5.30363e-06
9.21102e-06
2.43641e-06
4.29676e-06
1.82912e-05
2.21131e-05
7.13862e-06
8.97593e-06
7.14069e-06
2.21129e-05
1.21457e-05
4.67323e-06
1.07562e-05
3.97747e-06
4.67254e-06
1.07558e-05
1.21457e-05
2.21132e-05
7.13699e-06
8.97549e-06
7.13907e-06
2.21131e-05
2.2112e-05
7.13832e-06
8.9755e-06
7.14054e-06
2.21121e-05
1.21454e-05
4.67298e-06
1.07562e-05
3.97748e-06
4.67272e-06
1.07558e-05
1.21455e-05
2.21128e-05
7.1369e-06
8.97522e-06
7.13894e-06
2.21127e-05
1.82931e-05
4.29811e-06
2.44245e-06
5.30475e-06
9.21716e-06
2.43697e-06
9.21438e-06
4.29982e-06
4.29145e-06
2.44094e-06
5.30323e-06
9.21233e-06
9.20953e-06
2.43565e-06
4.29311e-06
9.68847e-06
2.16544e-05
2.16548e-05
2.16542e-05
2.16546e-05
9.6873e-06
1.82913e-05
1.21464e-05
3.97561e-06
4.67171e-06
1.0756e-05
2.2112e-05
8.97548e-06
7.13823e-06
7.14055e-06
2.2112e-05
2.21192e-05
8.97516e-06
7.14113e-06
4.29359e-06
2.442e-06
5.30351e-06
9.21453e-06
4.29611e-06
2.43701e-06
9.21077e-06
4.30516e-06
2.44628e-06
5.30781e-06
9.21822e-06
9.22092e-06
4.30352e-06
2.45166e-06
4.29846e-06
2.44496e-06
9.21338e-06
5.30644e-06
2.45015e-06
4.29687e-06
9.21608e-06
9.68586e-06
2.16498e-05
2.16502e-05
2.16499e-05
9.68718e-06
2.16503e-05
1.82895e-05
2.2105e-05
7.13766e-06
8.97816e-06
7.13535e-06
2.2105e-05
1.21444e-05
1.07554e-05
4.67363e-06
3.98059e-06
1.21443e-05
1.07558e-05
4.67418e-06
2.21052e-05
7.1374e-06
8.97734e-06
2.21052e-05
7.13523e-06
1.21433e-05
3.98228e-06
1.07557e-05
4.67523e-06
1.07553e-05
4.67475e-06
1.21434e-05
2.20986e-05
8.97767e-06
7.13244e-06
7.13462e-06
2.20986e-05
1.82892e-05
1.82866e-05
2.21058e-05
7.1378e-06
8.97855e-06
2.2106e-05
7.13564e-06
1.21446e-05
4.67368e-06
1.07557e-05
3.98068e-06
1.21446e-05
4.67429e-06
1.07561e-05
1.21435e-05
3.98236e-06
4.67528e-06
1.0756e-05
4.67471e-06
1.07556e-05
1.21435e-05
2.20989e-05
8.97881e-06
7.13269e-06
7.13486e-06
2.20987e-05
1.82883e-05
1.82855e-05
1.82907e-05
1.82875e-05
4.29945e-06
9.21329e-06
2.44447e-06
5.30621e-06
4.296e-06
9.21608e-06
2.45056e-06
4.30512e-06
9.21838e-06
2.44678e-06
5.30791e-06
4.30335e-06
9.22103e-06
2.45084e-06
9.68564e-06
2.16465e-05
2.16443e-05
2.16461e-05
2.1645e-05
9.68403e-06
4.30078e-06
5.30813e-06
9.22067e-06
2.46052e-06
9.21727e-06
2.45357e-06
4.30645e-06
4.30888e-06
5.30967e-06
9.22365e-06
2.45918e-06
9.22183e-06
2.45601e-06
4.30806e-06
1.21447e-05
1.07553e-05
4.6734e-06
3.98051e-06
1.21447e-05
1.07557e-05
4.67404e-06
2.21065e-05
7.13611e-06
8.97703e-06
2.21067e-05
7.1341e-06
1.21436e-05
3.98221e-06
1.07556e-05
4.67504e-06
1.07552e-05
4.67447e-06
1.21437e-05
2.20998e-05
8.97744e-06
7.13125e-06
7.13328e-06
2.20996e-05
1.21422e-05
1.07552e-05
4.67571e-06
3.98517e-06
1.21422e-05
1.07555e-05
4.67618e-06
2.20918e-05
7.13184e-06
8.98026e-06
2.20918e-05
7.12964e-06
1.21426e-05
1.07551e-05
4.67546e-06
3.98511e-06
1.21425e-05
1.07554e-05
4.67602e-06
4.30126e-06
9.21542e-06
2.44528e-06
5.3066e-06
4.30064e-06
9.21828e-06
2.45002e-06
4.30286e-06
9.21641e-06
2.44596e-06
5.3072e-06
4.29963e-06
2.45184e-06
9.21915e-06
9.68593e-06
2.16455e-05
2.16459e-05
2.16448e-05
2.16468e-05
9.68419e-06
4.30727e-06
5.30923e-06
9.22384e-06
2.4608e-06
9.22031e-06
2.45515e-06
4.30926e-06
4.30381e-06
5.3084e-06
9.2209e-06
2.45909e-06
2.4541e-06
9.21922e-06
4.30492e-06
1.82897e-05
1.82864e-05
2.21061e-05
7.13619e-06
8.97816e-06
2.21062e-05
7.13412e-06
2.20993e-05
8.97851e-06
7.13124e-06
7.13333e-06
2.20992e-05
1.21438e-05
3.98237e-06
4.67497e-06
1.07559e-05
1.07556e-05
4.67483e-06
1.21439e-05
2.21051e-05
7.13781e-06
8.97826e-06
2.21051e-05
7.13541e-06
1.21444e-05
4.67387e-06
1.07557e-05
3.98072e-06
1.21443e-05
4.67407e-06
1.07561e-05
2.20982e-05
8.97851e-06
7.1325e-06
7.13485e-06
2.20982e-05
1.30663e-06
2.30307e-06
1.30662e-06
6.82695e-07
1.30911e-06
2.30586e-06
1.30938e-06
7.52047e-07
1.74047e-06
2.0272e-06
8.87281e-07
1.74374e-06
2.03071e-06
7.54091e-07
1.12893e-06
1.57373e-06
2.57476e-06
1.13044e-06
3.21598e-06
1.57681e-06
2.57662e-06
1.74043e-06
8.85878e-07
2.02721e-06
8.87284e-07
1.74373e-06
7.54093e-07
2.03054e-06
9.85358e-08
9.85261e-08
8.01434e-08
8.51443e-07
2.00308e-06
7.21646e-07
1.71004e-06
1.99962e-06
7.19528e-07
8.52974e-07
8.51381e-07
2.00298e-06
7.21609e-07
1.70996e-06
1.99936e-06
7.19499e-07
8.52881e-07
1.09448e-06
2.55416e-06
1.54125e-06
3.19528e-06
1.53804e-06
2.55209e-06
1.09612e-06
8.51495e-07
7.21688e-07
2.00291e-06
1.71012e-06
7.19565e-07
1.99969e-06
8.53012e-07
2.27386e-06
1.27431e-06
6.54091e-07
1.27399e-06
1.27151e-06
1.2712e-06
2.27682e-06
2.27391e-06
1.27481e-06
6.54171e-07
1.2736e-06
2.2769e-06
1.27184e-06
1.27097e-06
2.28674e-06
1.28346e-06
6.64049e-07
1.28316e-06
1.2859e-06
2.28385e-06
1.28621e-06
1.43668e-07
1.42539e-07
9.85433e-08
9.85297e-08
9.85631e-08
7.91112e-08
7.96186e-08
8.64456e-07
2.00907e-06
7.30378e-07
1.72377e-06
8.62969e-07
2.01254e-06
7.32478e-07
8.6436e-07
2.00881e-06
7.30343e-07
1.72371e-06
8.62878e-07
2.01241e-06
7.3244e-07
1.10769e-06
2.55989e-06
1.55022e-06
3.20357e-06
1.1061e-06
2.56185e-06
1.55333e-06
8.64493e-07
7.30425e-07
2.00913e-06
1.72376e-06
8.63024e-07
7.32518e-07
2.01237e-06
1.41459e-07
9.8528e-08
8.01442e-08
1.41469e-07
9.85321e-08
8.01463e-08
1.41466e-07
9.8542e-08
8.01459e-08
1.10762e-06
1.54981e-06
2.55974e-06
3.20321e-06
1.10602e-06
1.55293e-06
2.56168e-06
2.27378e-06
1.27389e-06
1.27429e-06
6.54027e-07
1.27109e-06
1.2715e-06
2.27675e-06
1.09437e-06
2.55401e-06
1.54081e-06
3.19478e-06
1.53759e-06
2.55197e-06
1.09603e-06
1.09431e-06
2.55361e-06
1.54081e-06
3.19493e-06
2.55159e-06
1.53773e-06
1.09592e-06
2.27383e-06
1.27343e-06
1.27476e-06
6.54056e-07
1.2708e-06
1.2718e-06
2.27682e-06
8.51543e-07
2.00319e-06
7.21699e-07
1.71012e-06
1.99965e-06
7.19583e-07
8.53036e-07
1.09448e-06
2.55378e-06
1.54132e-06
3.19533e-06
2.55177e-06
1.53813e-06
1.09613e-06
1.09443e-06
1.54123e-06
2.5541e-06
3.1951e-06
1.53789e-06
2.552e-06
1.0961e-06
8.51522e-07
7.21712e-07
2.00317e-06
1.71009e-06
1.99964e-06
7.1959e-07
8.53037e-07
8.51508e-07
7.21709e-07
2.00308e-06
1.71004e-06
7.19579e-07
1.99953e-06
8.53041e-07
1.09445e-06
1.54131e-06
2.55379e-06
3.19508e-06
2.5517e-06
1.53799e-06
1.09613e-06
8.4151e-07
1.70281e-06
7.10883e-07
1.99331e-06
1.09439e-06
1.54083e-06
3.19492e-06
2.55395e-06
1.09604e-06
1.53764e-06
2.55195e-06
1.08434e-06
3.19009e-06
1.52853e-06
2.54601e-06
1.42547e-07
9.85332e-08
1.43682e-07
9.85648e-08
9.85562e-08
7.91122e-08
7.96186e-08
9.85387e-08
1.42556e-07
9.85488e-08
9.85611e-08
1.43689e-07
7.91139e-08
7.96217e-08
1.10769e-06
1.55026e-06
2.55987e-06
3.20347e-06
1.1061e-06
1.55337e-06
2.56181e-06
8.64533e-07
7.30454e-07
2.00912e-06
1.72391e-06
8.63065e-07
2.01262e-06
7.32545e-07
1.11754e-06
3.20791e-06
2.56922e-06
1.56492e-06
1.56197e-06
2.56734e-06
1.11906e-06
2.28666e-06
1.28306e-06
1.28344e-06
6.63981e-07
2.28377e-06
1.28579e-06
1.28618e-06
1.29808e-06
2.29631e-06
1.29729e-06
2.29353e-06
6.72868e-07
1.29461e-06
1.29547e-06
1.10762e-06
2.55978e-06
1.54977e-06
3.20309e-06
1.106e-06
2.56172e-06
1.55292e-06
8.74445e-07
1.73059e-06
2.02174e-06
7.4328e-07
2.01828e-06
7.41213e-07
8.75886e-07
1.56503e-06
1.11753e-06
3.20772e-06
2.56929e-06
2.56735e-06
1.56174e-06
1.11912e-06
1.10749e-06
2.55933e-06
1.54975e-06
3.20308e-06
1.10589e-06
2.56133e-06
1.55288e-06
8.74361e-07
1.73051e-06
2.02163e-06
7.4325e-07
2.01804e-06
7.41174e-07
8.75817e-07
1.11745e-06
3.20788e-06
2.56892e-06
1.56515e-06
2.56698e-06
1.11903e-06
1.56194e-06
8.87244e-07
2.02722e-06
7.52002e-07
1.74366e-06
8.8585e-07
2.03064e-06
7.54045e-07
1.57372e-06
1.57664e-06
3.21564e-06
1.13043e-06
2.57472e-06
1.12894e-06
2.57655e-06
8.87196e-07
2.02698e-06
7.51975e-07
1.74363e-06
8.85796e-07
2.03061e-06
7.54016e-07
2.28677e-06
1.2827e-06
1.28386e-06
6.64015e-07
2.28388e-06
1.28671e-06
1.28531e-06
2.29364e-06
6.72893e-07
1.29792e-06
1.29753e-06
1.29505e-06
1.29508e-06
2.29644e-06
8.64518e-07
2.0091e-06
7.30436e-07
1.72385e-06
8.63057e-07
2.01261e-06
7.3253e-07
7.43326e-07
1.73393e-06
2.02177e-06
8.74504e-07
1.73062e-06
2.01828e-06
7.41255e-07
1.11909e-06
1.56501e-06
2.56928e-06
1.11759e-06
3.20817e-06
2.56745e-06
1.56219e-06
1.1077e-06
2.55956e-06
1.55029e-06
3.20355e-06
1.10611e-06
1.55341e-06
2.56151e-06
2.56901e-06
3.20988e-06
1.11761e-06
3.20824e-06
1.56531e-06
1.56226e-06
2.56714e-06
1.73388e-06
8.75921e-07
2.02158e-06
8.74486e-07
1.73062e-06
7.41252e-07
2.0183e-06
8.64506e-07
7.30442e-07
2.009e-06
1.72388e-06
8.63038e-07
7.32535e-07
2.01252e-06
5.38016e-06
1.47373e-07
4.22033e-07
4.2208e-07
7.01046e-07
1.52993e-07
4.49343e-07
4.49397e-07
7.37913e-07
1.59396e-07
4.77546e-07
4.77603e-07
7.73954e-07
1.66594e-07
5.06467e-07
5.06522e-07
8.09023e-07
1.74589e-07
5.3593e-07
5.35982e-07
8.42995e-07
1.83376e-07
5.65763e-07
5.6581e-07
8.75781e-07
2.00639e-07
5.95784e-07
5.95807e-07
9.07419e-07
2.03303e-07
6.25829e-07
6.92023e-07
4.15396e-07
4.15585e-07
7.00908e-07
7.28934e-07
4.22183e-07
4.22237e-07
4.42588e-07
4.42627e-07
7.00928e-07
7.28941e-07
4.22071e-07
4.22261e-07
4.42462e-07
4.42665e-07
4.22235e-07
4.42434e-07
4.42637e-07
7.00974e-07
7.28999e-07
4.22103e-07
4.42482e-07
4.42497e-07
7.29098e-07
7.37755e-07
7.65068e-07
4.49509e-07
4.49556e-07
4.70597e-07
4.70632e-07
7.37781e-07
7.65079e-07
4.49373e-07
4.49581e-07
4.70454e-07
4.70669e-07
4.49555e-07
4.70432e-07
4.70644e-07
7.37823e-07
7.6513e-07
4.49419e-07
4.70481e-07
4.70497e-07
7.6523e-07
7.73797e-07
8.00271e-07
4.77721e-07
4.77759e-07
4.99364e-07
4.99391e-07
7.73824e-07
8.00278e-07
4.77568e-07
4.77792e-07
4.99202e-07
4.99433e-07
4.77762e-07
4.99185e-07
4.99412e-07
7.73867e-07
8.00337e-07
4.77618e-07
4.99242e-07
4.99256e-07
8.00436e-07
8.08869e-07
8.34407e-07
5.06648e-07
5.06671e-07
5.28702e-07
5.28732e-07
8.08897e-07
8.34414e-07
5.06478e-07
5.06713e-07
5.28529e-07
5.28767e-07
5.06681e-07
5.28516e-07
5.28761e-07
8.08936e-07
8.34466e-07
5.06528e-07
5.28576e-07
5.28596e-07
8.34584e-07
8.42827e-07
8.67424e-07
5.36111e-07
5.36115e-07
5.58452e-07
5.58483e-07
8.42841e-07
8.67429e-07
5.3593e-07
5.36175e-07
5.58265e-07
5.58513e-07
5.36144e-07
5.58245e-07
5.5851e-07
8.42886e-07
8.67498e-07
5.3598e-07
5.58327e-07
5.5834e-07
8.6758e-07
8.75629e-07
8.99266e-07
5.65932e-07
5.65913e-07
5.88426e-07
5.88478e-07
8.75654e-07
8.99271e-07
5.65741e-07
5.65999e-07
5.88231e-07
5.88479e-07
5.65952e-07
5.88198e-07
5.88507e-07
8.75708e-07
8.99323e-07
5.65777e-07
5.88296e-07
5.88333e-07
8.99438e-07
9.07258e-07
9.29919e-07
5.95935e-07
5.95873e-07
6.18468e-07
3.35545e-06
9.07274e-07
5.37858e-06
5.95736e-07
5.95993e-07
6.18267e-07
6.18511e-07
5.95943e-07
6.18336e-07
9.07315e-07
9.29979e-07
5.95755e-07
6.18339e-07
3.35839e-06
6.25994e-07
9.37745e-07
1.82879e-05
3.99134e-06
8.98205e-06
3.98879e-06
8.9849e-06
1.82816e-05
1.82809e-05
3.99143e-06
8.9834e-06
3.98888e-06
8.9862e-06
7.76919e-08
1.47395e-07
1.4739e-07
1.51517e-07
1.51522e-07
1.51538e-07
1.51547e-07
1.77174e-06
1.15119e-06
2.33459e-07
4.28776e-07
9.08435e-07
3.23343e-06
2.37045e-07
1.82827e-05
1.82821e-05
1.77169e-06
2.33482e-07
1.59653e-06
4.28823e-07
2.37064e-07
3.23353e-06
9.0851e-07
5.31548e-06
5.317e-06
7.10721e-07
5.31848e-06
5.32004e-06
3.99858e-06
8.98845e-06
3.99646e-06
8.99138e-06
1.82758e-05
1.8276e-05
3.99867e-06
8.98961e-06
3.99646e-06
8.99272e-06
1.52999e-07
1.53015e-07
1.53008e-07
1.57726e-07
1.57731e-07
1.57749e-07
1.57762e-07
1.80579e-06
3.24872e-06
2.48241e-07
4.56327e-07
1.79429e-06
3.25555e-06
2.52134e-07
1.82769e-05
1.8277e-05
1.80573e-06
2.48269e-07
3.24885e-06
4.56373e-07
1.79443e-06
2.52157e-07
3.25563e-06
5.32488e-06
5.32645e-06
7.47269e-07
5.32772e-06
5.32932e-06
4.00507e-06
8.99535e-06
4.00317e-06
8.9985e-06
1.82724e-05
1.82734e-05
4.00512e-06
8.99668e-06
4.00316e-06
8.99971e-06
1.59402e-07
1.59422e-07
1.5941e-07
1.64725e-07
1.64729e-07
1.6475e-07
1.64768e-07
1.83667e-06
3.26978e-06
2.64213e-07
4.84725e-07
1.826e-06
3.27613e-06
2.684e-07
1.82736e-05
1.82746e-05
1.83663e-06
2.64247e-07
3.26991e-06
4.8478e-07
1.82614e-06
2.68427e-07
3.27624e-06
5.33405e-06
5.33564e-06
7.82965e-07
5.33687e-06
5.33845e-06
4.01099e-06
9.00281e-06
4.00923e-06
9.00616e-06
1.82713e-05
1.82732e-05
4.01107e-06
9.00403e-06
4.00922e-06
9.00757e-06
1.666e-07
1.66622e-07
1.66604e-07
1.72513e-07
1.72517e-07
1.7254e-07
1.72567e-07
1.86496e-06
3.28945e-06
2.81315e-07
5.13792e-07
1.85498e-06
3.29544e-06
2.85777e-07
1.82724e-05
1.82742e-05
1.86491e-06
2.81356e-07
3.2896e-06
5.13848e-07
1.85511e-06
2.85805e-07
3.29554e-06
5.343e-06
5.34461e-06
8.17644e-07
5.34583e-06
5.34745e-06
4.01662e-06
9.01088e-06
4.01492e-06
9.01465e-06
1.82725e-05
1.82751e-05
4.01668e-06
9.01215e-06
4.01492e-06
9.01581e-06
1.74595e-07
1.74622e-07
1.74595e-07
1.81097e-07
1.81099e-07
1.81127e-07
1.81163e-07
1.89108e-06
3.30802e-06
2.99485e-07
5.43339e-07
1.88168e-06
3.31361e-06
3.04195e-07
1.82737e-05
1.82763e-05
1.89104e-06
2.99534e-07
3.30812e-06
5.43411e-07
1.88181e-06
3.04225e-07
3.31374e-06
5.35216e-06
5.35373e-06
8.51231e-07
5.35484e-06
5.35646e-06
4.02216e-06
9.01982e-06
4.02047e-06
9.02385e-06
1.82759e-05
1.82794e-05
4.02225e-06
9.02116e-06
4.02048e-06
9.0252e-06
1.83383e-07
1.83413e-07
1.83374e-07
1.90475e-07
1.90474e-07
1.90505e-07
1.90557e-07
1.91546e-06
3.3256e-06
3.18641e-07
5.73208e-07
1.90653e-06
3.33096e-06
3.23593e-07
1.8277e-05
1.82806e-05
1.91543e-06
3.187e-07
3.32574e-06
5.73296e-07
1.90665e-06
3.23621e-07
3.33106e-06
5.36099e-06
5.36259e-06
8.83654e-07
5.36398e-06
5.3656e-06
4.02776e-06
9.02928e-06
4.02582e-06
9.03384e-06
1.82813e-05
1.82854e-05
4.02785e-06
9.03039e-06
4.0259e-06
9.03524e-06
1.12979e-07
1.9295e-07
1.9296e-07
1.92989e-07
1.92939e-07
2.0064e-07
2.00666e-07
1.93833e-06
3.34228e-06
3.38694e-07
6.03212e-07
1.92981e-06
3.34737e-06
3.43885e-07
1.82823e-05
1.82865e-05
1.93828e-06
3.38765e-07
3.34236e-06
6.03318e-07
1.92988e-06
3.43905e-07
3.34748e-06
5.36998e-06
5.37156e-06
9.14901e-07
5.3728e-06
5.37462e-06
1.13929e-07
2.03305e-07
2.03318e-07
1.829e-05
3.35848e-06
1.82821e-05
1.82847e-05
5.3137e-06
5.31529e-06
8.98303e-06
3.98739e-06
3.22217e-06
2.29969e-07
1.75329e-06
8.98262e-06
3.98728e-06
8.97999e-06
4.08983e-07
2.29981e-07
1.58561e-06
1.75328e-06
1.57702e-06
1.82795e-05
1.82789e-05
1.82821e-05
1.82814e-05
5.31549e-06
5.31718e-06
7.10571e-07
5.31852e-06
5.32015e-06
1.82761e-05
1.82764e-05
1.82785e-05
1.82789e-05
7.19425e-07
5.32317e-06
5.32465e-06
5.32026e-06
5.32185e-06
3.99128e-06
8.98211e-06
3.98872e-06
8.98491e-06
1.77158e-06
1.59652e-06
2.3346e-07
4.28922e-07
9.08423e-07
3.23342e-06
2.37066e-07
1.77157e-06
1.59698e-06
2.33471e-07
4.28966e-07
9.08394e-07
3.2338e-06
2.37052e-07
3.99282e-06
8.98809e-06
8.98528e-06
3.99509e-06
3.99275e-06
8.9881e-06
8.98528e-06
3.99503e-06
1.77732e-06
4.35726e-07
3.24466e-06
2.44459e-07
3.23759e-06
2.40699e-07
1.78903e-06
1.77724e-06
4.35777e-07
3.24503e-06
2.44445e-07
3.23797e-06
2.40712e-07
1.78902e-06
5.31684e-06
5.31549e-06
7.10575e-07
5.31986e-06
5.3185e-06
1.828e-05
1.82793e-05
1.82781e-05
1.82784e-05
7.19447e-07
5.32447e-06
5.32315e-06
5.32159e-06
5.32023e-06
1.82765e-05
1.82768e-05
1.77167e-06
3.22652e-06
2.33481e-07
4.2881e-07
1.75941e-06
3.23394e-06
2.37054e-07
3.99133e-06
8.98295e-06
3.98886e-06
8.98573e-06
1.77168e-06
2.33495e-07
1.597e-06
4.29001e-07
1.75933e-06
2.37067e-07
3.2339e-06
3.99282e-06
8.98922e-06
8.98653e-06
3.99515e-06
1.77735e-06
4.35602e-07
3.24512e-06
2.44446e-07
3.23807e-06
2.40722e-07
1.78911e-06
3.9928e-06
8.989e-06
8.98611e-06
3.99509e-06
1.77725e-06
4.35801e-07
2.4446e-07
3.24517e-06
2.40736e-07
3.2381e-06
1.78913e-06
3.99143e-06
8.98268e-06
3.98888e-06
8.98543e-06
1.77173e-06
2.33475e-07
1.59654e-06
4.28971e-07
9.08422e-07
2.37059e-07
3.23347e-06
3.99133e-06
8.98253e-06
3.98878e-06
8.98525e-06
1.77723e-06
4.35566e-07
3.24469e-06
2.44438e-07
3.2376e-06
2.40697e-07
1.78919e-06
3.9928e-06
8.98869e-06
8.98579e-06
3.99519e-06
1.77716e-06
4.35773e-07
2.44454e-07
3.24475e-06
2.40714e-07
3.23767e-06
1.78918e-06
3.9927e-06
8.98852e-06
8.98562e-06
3.99509e-06
5.31712e-06
5.31569e-06
7.10637e-07
5.32014e-06
5.31865e-06
1.82807e-05
1.828e-05
1.82793e-05
1.82796e-05
7.19495e-07
5.32481e-06
5.32333e-06
5.32191e-06
5.32042e-06
1.82772e-05
1.82775e-05
1.77167e-06
2.33479e-07
1.59704e-06
4.28835e-07
2.37062e-07
3.23394e-06
9.08487e-07
3.99141e-06
8.98289e-06
8.98567e-06
3.98886e-06
3.99137e-06
8.98321e-06
8.98596e-06
3.98883e-06
1.77737e-06
4.35621e-07
2.4446e-07
3.24481e-06
2.40723e-07
3.23773e-06
1.78915e-06
1.77732e-06
4.3564e-07
2.44455e-07
3.24521e-06
2.40721e-07
3.23812e-06
1.78912e-06
3.9928e-06
8.98898e-06
8.98606e-06
3.99517e-06
3.99276e-06
8.98916e-06
8.98631e-06
3.99513e-06
1.82808e-05
1.82801e-05
1.82827e-05
1.82821e-05
7.19571e-07
5.32315e-06
5.32473e-06
5.32027e-06
5.32182e-06
1.82774e-05
1.82776e-05
1.82793e-05
1.82796e-05
1.82738e-05
1.8274e-05
1.82761e-05
1.82765e-05
5.32489e-06
5.3264e-06
7.47107e-07
5.32784e-06
5.32942e-06
1.82723e-05
1.82718e-05
1.82749e-05
1.82744e-05
7.5589e-07
5.33232e-06
5.33394e-06
5.32955e-06
5.33117e-06
3.99852e-06
8.98847e-06
3.9964e-06
8.99145e-06
1.80562e-06
3.24868e-06
2.48243e-07
4.56487e-07
1.79436e-06
3.25553e-06
2.52154e-07
1.80561e-06
3.24905e-06
2.48256e-07
4.56523e-07
1.79429e-06
3.25588e-06
2.52139e-07
3.99989e-06
8.99492e-06
8.9918e-06
4.00193e-06
3.99984e-06
8.99498e-06
8.99187e-06
4.00186e-06
1.81059e-06
4.63516e-07
3.26597e-06
2.60144e-07
3.25942e-06
2.56084e-07
1.82144e-06
1.81052e-06
4.63559e-07
3.26635e-06
2.60128e-07
3.25978e-06
2.56098e-07
1.82143e-06
5.32621e-06
5.32487e-06
7.47117e-07
5.32915e-06
5.32778e-06
1.82742e-05
1.82744e-05
1.82745e-05
1.82739e-05
7.55919e-07