/*--------------------------------*- C++ -*----------------------------------*\
| =========                 |                                                 |
| \\      /  F ield         | OpenFOAM: The Open Source CFD Toolbox           |
|  \\    /   O peration     | Version:  v2006                                 |
|   \\  /    A nd           | Website:  www.openfoam.com                      |
|    \\/     M anipulation  |                                                 |
\*---------------------------------------------------------------------------*/
FoamFile
{
    version     2.0;
    format      ascii;
    class       volScalarField;
    location    "250";
    object      k;
}
// * * * * * * * * * * * * * * * * * * * * * * * * * * * * * * * * * * * * * //

dimensions      [0 2 -2 0 0 0 0];


internalField   nonuniform List<scalar> 
14258
(
5.97984e-05
7.03735e-05
5.97981e-05
7.03751e-05
6.92015e-05
6.92035e-05
2.54302e-05
6.29025e-05
6.29095e-05
4.1069e-05
1.97843e-05
5.28143e-05
1.55566e-05
4.10692e-05
1.97817e-05
5.28159e-05
1.5557e-05
5.97967e-05
4.10677e-05
1.55571e-05
6.99143e-05
5.97261e-05
6.9528e-05
6.41955e-05
6.95261e-05
6.41386e-05
6.99146e-05
7.03429e-05
7.56809e-05
7.03678e-05
7.56626e-05
7.03422e-05
6.99143e-05
5.97262e-05
6.41942e-05
6.95281e-05
6.41377e-05
6.95262e-05
6.99146e-05
7.03432e-05
7.5681e-05
7.03693e-05
7.56627e-05
7.03425e-05
6.92005e-05
6.92024e-05
8.96452e-05
7.1889e-05
7.18829e-05
7.18886e-05
7.18824e-05
8.96742e-05
6.34607e-05
6.96546e-05
6.28493e-05
4.90501e-05
6.96408e-05
6.35511e-05
4.89023e-05
6.35217e-05
6.96657e-05
6.28564e-05
4.90647e-05
6.96519e-05
6.36123e-05
4.8917e-05
6.99131e-05
5.97249e-05
6.95277e-05
6.419e-05
6.95257e-05
6.41337e-05
6.99135e-05
7.03416e-05
7.56625e-05
7.56446e-05
7.03409e-05
4.83583e-05
2.53917e-05
3.57918e-05
3.57993e-05
4.84638e-05
3.57094e-05
3.57169e-05
2.8419e-05
4.09162e-05
4.44109e-05
2.61405e-05
4.42658e-05
2.60673e-05
2.8481e-05
3.23468e-05
4.91839e-05
5.27092e-05
3.87502e-05
4.90831e-05
3.8663e-05
3.24133e-05
2.84201e-05
4.09171e-05
4.4411e-05
2.61415e-05
4.42653e-05
2.60684e-05
2.84816e-05
3.23476e-05
4.91851e-05
5.27111e-05
3.8755e-05
4.90811e-05
3.86678e-05
3.24138e-05
2.84189e-05
4.09164e-05
2.61412e-05
4.44066e-05
2.6068e-05
4.42642e-05
2.84808e-05
3.23465e-05
4.91766e-05
4.90789e-05
3.24127e-05
2.7902e-05
2.08787e-05
3.45042e-05
2.06778e-05
6.24891e-05
2.76422e-05
3.4287e-05
6.91811e-05
2.7898e-05
2.08779e-05
5.71309e-05
3.45018e-05
6.51409e-05
6.91798e-05
7.07246e-05
2.7903e-05
2.08795e-05
4.82633e-05
6.51429e-05
6.51216e-05
6.91812e-05
4.82037e-05
5.70956e-05
6.24902e-05
7.07213e-05
4.8203e-05
2.76516e-05
5.70953e-05
7.07182e-05
5.70947e-05
7.07194e-05
6.51217e-05
6.5125e-05
6.91831e-05
2.08795e-05
5.71293e-05
4.82622e-05
6.25102e-05
7.07226e-05
6.25095e-05
6.91815e-05
6.74734e-05
6.51792e-05
7.03597e-05
5.52906e-05
6.98435e-05
6.9534e-05
6.63285e-05
6.24385e-05
6.98465e-05
6.95308e-05
6.62857e-05
6.91745e-05
6.91874e-05
9.10923e-05
7.17665e-05
7.17705e-05
6.74521e-05
7.03383e-05
5.52011e-05
6.5179e-05
5.52921e-05
7.03533e-05
6.73838e-05
6.91863e-05
7.00283e-05
7.64275e-05
7.07327e-05
7.64364e-05
7.00235e-05
6.74766e-05
5.51978e-05
7.03452e-05
6.51811e-05
6.74024e-05
5.52954e-05
7.03595e-05
6.63314e-05
6.95344e-05
6.98471e-05
7.64253e-05
7.00322e-05
7.00271e-05
7.64094e-05
7.0709e-05
7.00314e-05
7.63917e-05
7.0028e-05
7.071e-05
7.64101e-05
7.63914e-05
7.00324e-05
6.72904e-05
5.51533e-05
6.50802e-05
7.03316e-05
6.73584e-05
5.50568e-05
7.03156e-05
6.73152e-05
5.51488e-05
6.50835e-05
7.03395e-05
6.73758e-05
5.50496e-05
7.03246e-05
9.10428e-05
7.177e-05
7.17643e-05
9.107e-05
7.17645e-05
7.17583e-05
6.91765e-05
6.98485e-05
6.25566e-05
6.63453e-05
6.9534e-05
6.63818e-05
6.98454e-05
6.9537e-05
7.00288e-05
7.64114e-05
7.07311e-05
7.00244e-05
7.64209e-05
6.98486e-05
6.25559e-05
6.63425e-05
6.9534e-05
6.98458e-05
6.63789e-05
6.9537e-05
6.9188e-05
5.52206e-05
3.45252e-05
4.45136e-05
4.45046e-05
4.45634e-05
5.51347e-05
4.45578e-05
5.49768e-05
4.43604e-05
3.42627e-05
4.43492e-05
5.50668e-05
4.43038e-05
4.42931e-05
4.16749e-05
4.70208e-05
5.4661e-05
5.72e-05
4.70754e-05
5.47433e-05
4.16319e-05
5.52194e-05
4.45045e-05
4.45122e-05
3.45244e-05
4.45631e-05
5.51312e-05
4.45563e-05
3.84695e-05
4.83738e-05
3.61526e-05
5.09761e-05
3.84312e-05
3.62058e-05
5.10766e-05
3.59458e-05
5.09208e-05
3.82167e-05
4.6882e-05
5.46146e-05
4.1449e-05
3.81773e-05
3.59456e-05
5.09192e-05
4.8091e-05
3.82165e-05
3.58921e-05
5.08155e-05
4.14043e-05
5.46108e-05
4.68831e-05
5.70235e-05
4.14489e-05
5.45239e-05
4.68256e-05
4.14005e-05
4.68763e-05
5.70229e-05
5.46076e-05
5.45214e-05
4.68196e-05
4.14445e-05
4.16706e-05
4.7015e-05
5.46536e-05
5.71987e-05
4.70717e-05
4.16269e-05
5.47361e-05
3.84666e-05
4.83727e-05
3.61514e-05
5.0972e-05
3.62046e-05
3.84282e-05
5.10727e-05
6.25103e-05
4.82634e-05
6.25116e-05
4.82627e-05
5.71298e-05
7.07212e-05
6.51397e-05
6.91796e-05
6.98483e-05
6.95341e-05
6.63434e-05
6.25569e-05
6.9537e-05
6.63795e-05
6.98455e-05
6.9849e-05
6.63471e-05
6.95345e-05
6.25585e-05
6.6384e-05
6.95374e-05
6.9846e-05
7.00275e-05
7.64097e-05
7.07293e-05
7.64187e-05
7.00232e-05
6.74566e-05
5.52023e-05
6.51758e-05
7.03379e-05
5.52911e-05
6.73918e-05
7.03528e-05
9.11071e-05
7.17653e-05
7.17606e-05
9.10816e-05
7.17706e-05
7.17666e-05
6.9186e-05
3.84689e-05
3.6152e-05
5.0976e-05
4.83741e-05
5.10769e-05
3.62051e-05
3.84308e-05
3.84682e-05
3.6152e-05
5.09739e-05
4.83732e-05
3.62049e-05
5.10743e-05
3.84304e-05
4.16739e-05
5.46563e-05
4.70212e-05
5.71977e-05
5.47376e-05
4.70751e-05
4.16311e-05
6.91936e-05
6.91955e-05
2.566e-05
6.29275e-05
6.29341e-05
5.98312e-05
7.0375e-05
5.98296e-05
7.03723e-05
4.11889e-05
1.99709e-05
5.28674e-05
1.56479e-05
4.11876e-05
1.9972e-05
5.2867e-05
1.56478e-05
6.91952e-05
2.56609e-05
6.29311e-05
6.29256e-05
6.91934e-05
5.98307e-05
7.03767e-05
4.11891e-05
1.99706e-05
5.2869e-05
1.56483e-05
5.98294e-05
7.03728e-05
4.11885e-05
1.99726e-05
1.56484e-05
5.28687e-05
1.99696e-05
5.28666e-05
7.0375e-05
6.91953e-05
2.56615e-05
6.29329e-05
6.29282e-05
6.91941e-05
4.11896e-05
1.99708e-05
1.5649e-05
5.28677e-05
5.98311e-05
7.03755e-05
6.91948e-05
6.91969e-05
8.97267e-05
7.18793e-05
7.18731e-05
8.96883e-05
7.18803e-05
7.18742e-05
6.36883e-05
6.29801e-05
6.96601e-05
4.91255e-05
6.3596e-05
6.96743e-05
4.92718e-05
6.37493e-05
6.2987e-05
6.96711e-05
4.91397e-05
6.36567e-05
6.96854e-05
4.9286e-05
6.99103e-05
5.99014e-05
6.95262e-05
6.42193e-05
6.99101e-05
6.9528e-05
6.42745e-05
7.03263e-05
7.03808e-05
7.56844e-05
7.03268e-05
7.57023e-05
6.99093e-05
5.98998e-05
6.95258e-05
6.42138e-05
6.9909e-05
6.95276e-05
6.4269e-05
7.03257e-05
7.03781e-05
7.56676e-05
7.03263e-05
7.56858e-05
6.91964e-05
8.97174e-05
7.18723e-05
7.18783e-05
8.96837e-05
7.18737e-05
7.18796e-05
6.37462e-05
6.2983e-05
6.96702e-05
4.91399e-05
4.92852e-05
6.36579e-05
6.96843e-05
6.36825e-05
6.29776e-05
6.96598e-05
4.91298e-05
6.3598e-05
6.96735e-05
4.92699e-05
6.91947e-05
6.99104e-05
5.99006e-05
6.42178e-05
6.95263e-05
6.99101e-05
6.42733e-05
6.95281e-05
7.03269e-05
7.03827e-05
7.56844e-05
7.03274e-05
7.57037e-05
6.99093e-05
5.98991e-05
6.95258e-05
6.42136e-05
6.99089e-05
6.95277e-05
6.42685e-05
7.0325e-05
7.03786e-05
7.56656e-05
7.03255e-05
7.56836e-05
7.03256e-05
7.0381e-05
7.56811e-05
7.03257e-05
7.56991e-05
6.91967e-05
8.97348e-05
7.18739e-05
7.18802e-05
8.96967e-05
7.18746e-05
7.18809e-05
6.37534e-05
6.29858e-05
6.96711e-05
4.91408e-05
4.92873e-05
6.36606e-05
6.96852e-05
6.36933e-05
6.96608e-05
4.9128e-05
6.29811e-05
6.36005e-05
6.96749e-05
4.92743e-05
6.91954e-05
6.42177e-05
6.95261e-05
6.99095e-05
7.56813e-05
7.03256e-05
1.36544e-05
1.25853e-05
1.25853e-05
1.23034e-05
1.36544e-05
1.25853e-05
1.25853e-05
1.23034e-05
1.3655e-05
1.25856e-05
1.25855e-05
1.23034e-05
1.36549e-05
1.25855e-05
1.25856e-05
1.23034e-05
4.87043e-05
2.56982e-05
3.60069e-05
3.60143e-05
4.85977e-05
3.60887e-05
3.6096e-05
2.87912e-05
4.13403e-05
4.45121e-05
2.63713e-05
2.87298e-05
4.4656e-05
2.64443e-05
3.27167e-05
5.29709e-05
4.92848e-05
3.8953e-05
3.90391e-05
3.2651e-05
4.93862e-05
2.87892e-05
4.13389e-05
4.45073e-05
2.63707e-05
2.87283e-05
4.46525e-05
2.64435e-05
3.27149e-05
5.29699e-05
4.92764e-05
3.89569e-05
3.26496e-05
4.93813e-05
3.90423e-05
4.87039e-05
2.56986e-05
3.60126e-05
3.60117e-05
3.60957e-05
4.85986e-05
3.60904e-05
2.87917e-05
4.13401e-05
4.45109e-05
2.63723e-05
2.87307e-05
4.46559e-05
2.64451e-05
3.2717e-05
5.29728e-05
4.92824e-05
3.89574e-05
3.90435e-05
3.26516e-05
4.93874e-05
2.87908e-05
4.13384e-05
2.6372e-05
4.45099e-05
2.87296e-05
2.64449e-05
4.46513e-05
3.27161e-05
5.29715e-05
4.92803e-05
3.8958e-05
3.26508e-05
4.93791e-05
3.9044e-05
3.27158e-05
5.29702e-05
4.92827e-05
3.89539e-05
3.26501e-05
3.90399e-05
4.93847e-05
4.87082e-05
2.56997e-05
3.60147e-05
3.60098e-05
3.60966e-05
4.86002e-05
3.60916e-05
2.63732e-05
4.45125e-05
2.87308e-05
4.92854e-05
3.89535e-05
3.26507e-05
6.91701e-05
6.91719e-05
2.674e-05
6.32334e-05
6.32384e-05
6.02281e-05
7.04073e-05
2.99693e-05
2.0756e-05
5.34805e-05
1.60536e-05
6.0227e-05
2.75911e-05
1.60538e-05
6.9172e-05
6.91738e-05
8.98851e-05
7.1841e-05
7.18353e-05
7.18419e-05
7.18361e-05
8.98656e-05
6.42175e-05
6.97376e-05
4.9997e-05
6.32824e-05
6.97511e-05
6.41414e-05
5.01306e-05
6.42714e-05
6.97474e-05
5.00049e-05
6.3287e-05
6.97605e-05
5.01442e-05
6.41848e-05
6.98935e-05
6.45258e-05
6.95249e-05
6.02926e-05
6.45766e-05
6.95262e-05
6.98933e-05
7.02673e-05
7.57736e-05
7.04132e-05
7.57902e-05
7.02674e-05
6.98924e-05
6.95244e-05
6.02914e-05
6.4522e-05
6.95259e-05
6.45732e-05
6.98921e-05
1.36664e-05
4.16062e-05
4.16049e-05
5.31291e-05
5.99997e-05
4.16046e-05
2.01625e-05
1.5744e-05
6.00004e-05
2.59685e-05
1.57445e-05
2.016e-05
2.59696e-05
6.91888e-05
2.62005e-05
1.24809e-05
2.03584e-05
4.17181e-05
4.17165e-05
5.31815e-05
6.00315e-05
4.17179e-05
6.00317e-05
1.25485e-05
1.25489e-05
1.25489e-05
6.91829e-05
2.03571e-05
5.31789e-05
6.91886e-05
6.91907e-05
6.30572e-05
6.30653e-05
2.59668e-05
6.00019e-05
7.03886e-05
6.00004e-05
7.03859e-05
5.31258e-05
2.01634e-05
1.57433e-05
5.31244e-05
1.57428e-05
2.01611e-05
6.91901e-05
6.30594e-05
2.59668e-05
6.30572e-05
6.91887e-05
7.03907e-05
6.00016e-05
4.16067e-05
2.01604e-05
1.57437e-05
7.03864e-05
2.0164e-05
1.57438e-05
5.31268e-05
1.57437e-05
5.31272e-05
4.1607e-05
7.03891e-05
6.00018e-05
2.01654e-05
4.16061e-05
5.31254e-05
7.03861e-05
6.91904e-05
6.30633e-05
6.3059e-05
6.91892e-05
2.01622e-05
5.31271e-05
1.57443e-05
7.03892e-05
6.30558e-05
6.30878e-05
6.30835e-05
6.91817e-05
7.03909e-05
6.00333e-05
7.03903e-05
6.01984e-05
7.04043e-05
6.91826e-05
6.91786e-05
7.03924e-05
6.00331e-05
6.01985e-05
7.04056e-05
1.25135e-05
1.24811e-05
1.5843e-05
5.31801e-05
4.17183e-05
2.05552e-05
5.34289e-05
6.91812e-05
6.91772e-05
6.91832e-05
6.91791e-05
6.3082e-05
6.309e-05
2.6199e-05
2.65064e-05
6.3211e-05
6.32147e-05
6.00317e-05
7.03876e-05
6.01966e-05
7.04016e-05
5.31777e-05
2.03574e-05
1.58426e-05
4.21254e-05
2.05576e-05
5.34306e-05
1.59463e-05
5.31765e-05
1.58421e-05
2.03559e-05
4.21239e-05
2.05558e-05
5.34299e-05
1.59457e-05
6.02283e-05
7.04059e-05
6.02267e-05
4.22307e-05
2.07581e-05
5.348e-05
1.60531e-05
4.22292e-05
1.60529e-05
6.30841e-05
2.61987e-05
6.30827e-05
2.65062e-05
6.32138e-05
6.32077e-05
6.91813e-05
6.91772e-05
4.17185e-05
2.03573e-05
1.58431e-05
2.972e-05
2.05535e-05
5.34306e-05
1.59467e-05
7.03882e-05
7.04021e-05
6.01968e-05
2.0359e-05
1.58431e-05
5.31789e-05
3.36159e-05
2.05575e-05
2.73582e-05
1.59467e-05
7.03909e-05
6.00331e-05
7.04046e-05
4.17174e-05
8.97443e-05
7.18719e-05
7.18657e-05
7.1871e-05
7.18647e-05
8.97867e-05
8.97359e-05
7.18662e-05
7.18719e-05
7.18644e-05
7.18706e-05
8.97834e-05
6.99047e-05
6.95275e-05
6.43464e-05
5.99312e-05
6.95257e-05
6.42919e-05
6.99051e-05
6.99045e-05
6.95274e-05
6.43464e-05
5.99318e-05
6.95257e-05
6.4292e-05
6.99047e-05
6.91872e-05
8.98355e-05
7.1862e-05
7.18558e-05
8.98019e-05
7.18622e-05
7.1856e-05
8.98409e-05
7.18567e-05
7.18622e-05
8.9802e-05
7.18574e-05
7.18623e-05
6.99009e-05
6.95255e-05
6.43698e-05
6.00993e-05
6.99005e-05
6.95272e-05
6.4424e-05
6.99006e-05
6.95255e-05
6.43696e-05
6.00996e-05
6.99004e-05
6.95271e-05
6.4424e-05
6.91845e-05
6.91872e-05
6.91892e-05
6.37346e-05
6.96942e-05
4.94923e-05
6.3005e-05
6.96799e-05
4.93468e-05
6.38284e-05
6.37949e-05
6.97055e-05
4.95048e-05
6.30118e-05
6.9691e-05
4.93606e-05
6.38894e-05
6.99058e-05
6.95278e-05
6.43522e-05
5.99333e-05
6.95261e-05
6.42978e-05
6.99061e-05
7.03114e-05
7.57248e-05
7.03825e-05
7.57061e-05
7.03111e-05
6.99048e-05
6.95274e-05
6.43469e-05
5.99316e-05
6.95257e-05
6.42921e-05
6.99051e-05
7.03108e-05
7.57083e-05
7.03799e-05
7.56894e-05
7.03104e-05
6.91887e-05
6.37811e-05
6.97037e-05
4.94909e-05
6.30064e-05
4.935e-05
6.96894e-05
6.38667e-05
6.3742e-05
6.96949e-05
4.95024e-05
6.3004e-05
6.96797e-05
4.93538e-05
6.38488e-05
6.91871e-05
7.03121e-05
7.57278e-05
7.03844e-05
7.57077e-05
7.03117e-05
6.99059e-05
6.4352e-05
6.95279e-05
5.99326e-05
6.42967e-05
6.95262e-05
6.99062e-05
7.03102e-05
7.57065e-05
7.03804e-05
7.56874e-05
7.03099e-05
7.03105e-05
7.57228e-05
7.03828e-05
7.57034e-05
7.03105e-05
6.99055e-05
6.43509e-05
6.95279e-05
5.99332e-05
6.42962e-05
6.95263e-05
6.99059e-05
7.03102e-05
7.57069e-05
7.03799e-05
7.56877e-05
7.03098e-05
6.91889e-05
6.37985e-05
4.95074e-05
6.30108e-05
6.97047e-05
4.93621e-05
6.96907e-05
6.38912e-05
6.37385e-05
4.94947e-05
6.30062e-05
6.96946e-05
6.96805e-05
4.93494e-05
6.38313e-05
8.97503e-05
7.18652e-05
7.18715e-05
7.18648e-05
7.1871e-05
8.97869e-05
6.91877e-05
6.99099e-05
5.99012e-05
6.42727e-05
6.95278e-05
7.03103e-05
7.03831e-05
7.57224e-05
7.57035e-05
7.03104e-05
7.03255e-05
7.03814e-05
7.56992e-05
6.37446e-05
4.94998e-05
6.3003e-05
6.96939e-05
6.38445e-05
4.9357e-05
6.96792e-05
6.40236e-05
4.95811e-05
6.31392e-05
6.97101e-05
6.97237e-05
6.39348e-05
4.9724e-05
6.39641e-05
4.95688e-05
6.96999e-05
6.31351e-05
4.97117e-05
6.38751e-05
6.97135e-05
8.98265e-05
7.1855e-05
7.18613e-05
7.18551e-05
8.97987e-05
7.18615e-05
6.91833e-05
7.02956e-05
7.57269e-05
7.03971e-05
7.57461e-05
7.02954e-05
6.99019e-05
6.95259e-05
6.43753e-05
6.0101e-05
6.99016e-05
6.95275e-05
6.44295e-05
7.02963e-05
7.5729e-05
7.03965e-05
7.02964e-05
7.57485e-05
6.98975e-05
6.01318e-05
6.95269e-05
6.45054e-05
6.95254e-05
6.44521e-05
6.98977e-05
7.02817e-05
7.03982e-05
7.57715e-05
7.57525e-05
7.02817e-05
6.91842e-05
6.91769e-05
7.02967e-05
7.57317e-05
7.03983e-05
7.02971e-05
7.57506e-05
6.9902e-05
6.4375e-05
6.9526e-05
6.01012e-05
6.99018e-05
6.44295e-05
6.95276e-05
6.98976e-05
6.0132e-05
6.45044e-05
6.9527e-05
6.44518e-05
6.95255e-05
6.98978e-05
7.02821e-05
7.03999e-05
7.57706e-05
7.57538e-05
7.02817e-05
6.91827e-05
6.91755e-05
6.91848e-05
6.91774e-05
6.39666e-05
6.96997e-05
4.95664e-05
6.31339e-05
6.38742e-05
6.97136e-05
4.97113e-05
6.40228e-05
6.97109e-05
4.95828e-05
6.31426e-05
6.39346e-05
6.97247e-05
4.97205e-05
8.98437e-05
7.18516e-05
7.18451e-05
7.18516e-05
7.18454e-05
8.98607e-05
6.40069e-05
6.31585e-05
6.97326e-05
4.99338e-05
6.97187e-05
4.97831e-05
6.4109e-05
6.4073e-05
6.31661e-05
6.97423e-05
4.99271e-05
6.97298e-05
4.98025e-05
6.41378e-05
6.99009e-05
6.95254e-05
6.43697e-05
6.00994e-05
6.99007e-05
6.9527e-05
6.44239e-05
7.02955e-05
7.57122e-05
7.03938e-05
7.02959e-05
7.57318e-05
6.98965e-05
6.01301e-05
6.95265e-05
6.44996e-05
6.9525e-05
6.44465e-05
6.98967e-05
7.02812e-05
7.03955e-05
7.57544e-05
7.57357e-05
7.02809e-05
6.98934e-05
6.95248e-05
6.45271e-05
6.02931e-05
6.98933e-05
6.95262e-05
6.45785e-05
7.02671e-05
7.57745e-05
7.04118e-05
7.02673e-05
7.57914e-05
6.98925e-05
6.95244e-05
6.45216e-05
6.02915e-05
6.98923e-05
6.95258e-05
6.45733e-05
6.40004e-05
6.9709e-05
4.95695e-05
6.31373e-05
6.39115e-05
6.97224e-05
4.97124e-05
6.39963e-05
6.9701e-05
4.95777e-05
6.31349e-05
6.38985e-05
4.97226e-05
6.97159e-05
8.98476e-05
7.18467e-05
7.18503e-05
7.18469e-05
7.1851e-05
8.98628e-05
6.40551e-05
6.31628e-05
6.97407e-05
4.99401e-05
6.97278e-05
4.97968e-05
6.41462e-05
6.40297e-05
6.31577e-05
6.97342e-05
4.99225e-05
4.9786e-05
6.97209e-05
6.41071e-05
6.91829e-05
6.91756e-05
7.02952e-05
7.57108e-05
7.03943e-05
7.02954e-05
7.57305e-05
7.02808e-05
7.03962e-05
7.57535e-05
7.57346e-05
7.02805e-05
6.98964e-05
6.01305e-05
6.44999e-05
6.95266e-05
6.95251e-05
6.44469e-05
6.98967e-05
7.02958e-05
7.57273e-05
7.0397e-05
7.02957e-05
7.57465e-05
6.99017e-05
6.43741e-05
6.9526e-05
6.01012e-05
6.99013e-05
6.44284e-05
6.95276e-05
7.0281e-05
7.03988e-05
7.57691e-05
7.57508e-05
7.02811e-05
3.71766e-05
4.9534e-05
3.7179e-05
2.67763e-05
3.72528e-05
4.96348e-05
3.7258e-05
2.75914e-05
4.22305e-05
4.54534e-05
3.00282e-05
4.23779e-05
4.55954e-05
2.76631e-05
3.38496e-05
4.00855e-05
5.00586e-05
3.39121e-05
5.3577e-05
4.01679e-05
5.01658e-05
4.22298e-05
2.99685e-05
4.54523e-05
3.00277e-05
4.23771e-05
2.7663e-05
4.55926e-05
1.25486e-05
1.25486e-05
1.22376e-05
2.90401e-05
4.48967e-05
2.67484e-05
4.1456e-05
4.47532e-05
2.66758e-05
2.91011e-05
2.90378e-05
4.48931e-05
2.67473e-05
4.14543e-05
4.47478e-05
2.66748e-05
2.90983e-05
3.29539e-05
4.95879e-05
3.93295e-05
5.30256e-05
3.92442e-05
4.94818e-05
3.30186e-05
2.90397e-05
2.67489e-05
4.48921e-05
4.14553e-05
2.66761e-05
4.47511e-05
2.91005e-05
4.884e-05
3.63915e-05
2.59306e-05
3.63866e-05
3.63104e-05
3.63055e-05
4.8948e-05
4.88395e-05
3.63945e-05
2.59322e-05
3.6383e-05
4.89419e-05
3.6312e-05
3.63046e-05
4.91828e-05
3.66037e-05
2.6238e-05
3.6599e-05
3.66792e-05
4.90767e-05
3.6684e-05
1.36992e-05
1.36815e-05
1.25136e-05
1.25135e-05
1.24809e-05
1.211e-05
1.2173e-05
2.94106e-05
4.49905e-05
2.69803e-05
4.18679e-05
2.93501e-05
4.5134e-05
2.70528e-05
2.94077e-05
4.49854e-05
2.69793e-05
4.18665e-05
2.93473e-05
4.51303e-05
2.70517e-05
3.33188e-05
4.96792e-05
3.95289e-05
5.32823e-05
3.32547e-05
4.97851e-05
3.96131e-05
2.941e-05
2.69809e-05
4.49887e-05
4.18669e-05
2.93497e-05
2.70533e-05
4.51299e-05
1.36666e-05
1.25486e-05
1.22376e-05
1.36671e-05
1.25489e-05
1.22376e-05
1.3667e-05
1.25488e-05
1.22376e-05
3.3318e-05
3.9525e-05
4.96806e-05
5.32796e-05
3.32537e-05
3.96091e-05
4.97797e-05
4.88371e-05
3.63836e-05
3.63909e-05
2.5929e-05
3.63024e-05
3.63097e-05
4.89451e-05
3.29532e-05
4.95856e-05
3.93251e-05
5.30233e-05
3.92398e-05
4.94829e-05
3.30183e-05
3.29504e-05
4.95802e-05
3.93232e-05
5.3022e-05
4.94739e-05
3.92396e-05
3.30146e-05
4.88341e-05
3.63791e-05
3.63936e-05
2.59293e-05
3.63002e-05
3.63109e-05
4.8944e-05
2.9041e-05
4.48976e-05
2.67491e-05
4.14558e-05
4.47524e-05
2.66765e-05
2.91014e-05
3.29529e-05
4.95789e-05
3.933e-05
5.30249e-05
4.94787e-05
3.92449e-05
3.30177e-05
3.29533e-05
3.93292e-05
4.95854e-05
5.3024e-05
3.92428e-05
4.94818e-05
3.30184e-05
2.90409e-05
2.67497e-05
4.48967e-05
4.14561e-05
4.47525e-05
2.6677e-05
2.91017e-05
2.90406e-05
2.67497e-05
4.4894e-05
4.14551e-05
2.66769e-05
4.47501e-05
2.91016e-05
3.29534e-05
3.93299e-05
4.95807e-05
5.30227e-05
4.94766e-05
3.92436e-05
3.30187e-05
2.87921e-05
4.13409e-05
2.64461e-05
4.46547e-05
3.2953e-05
3.93258e-05
5.30245e-05
4.95827e-05
3.30179e-05
3.92406e-05
4.94843e-05
3.27162e-05
5.29718e-05
3.90395e-05
4.93826e-05
1.36815e-05
1.25135e-05
1.36994e-05
1.24808e-05
1.24808e-05
1.211e-05
1.2173e-05
1.25138e-05
1.36819e-05
1.25138e-05
1.24811e-05
1.36998e-05
1.211e-05
1.21731e-05
3.33185e-05
3.95288e-05
4.96789e-05
5.32804e-05
3.32544e-05
3.9613e-05
4.97828e-05
2.94112e-05
2.69817e-05
4.49904e-05
4.18689e-05
2.93511e-05
4.51344e-05
2.7054e-05
3.35525e-05
5.33307e-05
4.99755e-05
3.98895e-05
3.98078e-05
4.98714e-05
3.36156e-05
4.91827e-05
3.65964e-05
3.66034e-05
2.62365e-05
4.9076e-05
3.66767e-05
3.66841e-05
3.69733e-05
4.94126e-05
3.69669e-05
4.93094e-05
2.64699e-05
3.68853e-05
3.68975e-05
3.33184e-05
4.96789e-05
3.95241e-05
5.32793e-05
3.32539e-05
4.97828e-05
3.96087e-05
2.96599e-05
4.19766e-05
4.53679e-05
2.73575e-05
4.52249e-05
2.72855e-05
2.97198e-05
3.98915e-05
3.35533e-05
5.33305e-05
4.99773e-05
4.98726e-05
3.98057e-05
3.36174e-05
3.33145e-05
4.96697e-05
3.95221e-05
5.32784e-05
3.32501e-05
4.97775e-05
3.96068e-05
2.96573e-05
4.1975e-05
4.5364e-05
2.73566e-05
4.522e-05
2.72843e-05
2.97175e-05
3.35501e-05
5.333e-05
4.99721e-05
3.98919e-05
4.98637e-05
3.36143e-05
3.9807e-05
3.00282e-05
4.5455e-05
2.75905e-05
4.23777e-05
2.99691e-05
4.55963e-05
2.76623e-05
4.00856e-05
4.01664e-05
5.35766e-05
3.39132e-05
5.00622e-05
3.38508e-05
5.01659e-05
3.00262e-05
4.545e-05
2.75896e-05
4.23764e-05
2.9967e-05
4.5593e-05
2.76614e-05
4.91845e-05
3.6593e-05
3.66049e-05
2.62362e-05
4.90749e-05
3.66877e-05
3.66716e-05
4.93103e-05
2.64693e-05
3.6973e-05
3.69675e-05
3.68903e-05
3.68919e-05
4.94152e-05
2.94111e-05
4.49907e-05
2.69812e-05
4.1869e-05
2.9351e-05
4.51354e-05
2.70537e-05
2.73584e-05
4.21262e-05
4.5368e-05
2.96606e-05
4.19771e-05
4.52248e-05
2.72863e-05
3.36163e-05
3.9891e-05
4.99772e-05
3.35536e-05
5.33332e-05
4.98718e-05
3.98108e-05
3.33177e-05
4.96748e-05
3.9529e-05
5.32795e-05
3.32534e-05
3.96132e-05
4.9776e-05
4.99697e-05
5.34295e-05
3.35524e-05
5.33306e-05
3.98928e-05
3.981e-05
4.9868e-05
4.21247e-05
2.97192e-05
4.53637e-05
2.96594e-05
4.19764e-05
2.7286e-05
4.52227e-05
2.94106e-05
2.69815e-05
4.49875e-05
4.18678e-05
2.93504e-05
2.70538e-05
4.51311e-05
6.51414e-05
1.37698e-05
2.11688e-05
2.11705e-05
2.7283e-05
1.39042e-05
2.20319e-05
2.20345e-05
2.83616e-05
1.40853e-05
2.29387e-05
2.29404e-05
2.94292e-05
1.43145e-05
2.38823e-05
2.38855e-05
3.04854e-05
1.45899e-05
2.48582e-05
2.486e-05
3.1521e-05
1.49096e-05
2.58553e-05
2.58588e-05
3.25374e-05
1.55821e-05
2.6871e-05
2.68732e-05
3.35335e-05
1.56877e-05
2.79019e-05
2.70456e-05
2.09613e-05
2.09641e-05
2.72795e-05
2.81245e-05
2.11714e-05
2.11719e-05
2.18152e-05
2.18148e-05
2.72794e-05
2.81238e-05
2.11698e-05
2.11724e-05
2.18135e-05
2.18168e-05
2.11726e-05
2.1813e-05
2.18161e-05
2.72806e-05
2.81259e-05
2.11712e-05
2.18147e-05
2.18142e-05
2.81266e-05
2.83588e-05
2.91936e-05
2.20348e-05
2.20353e-05
2.27124e-05
2.27116e-05
2.83584e-05
2.91932e-05
2.20325e-05
2.20365e-05
2.27102e-05
2.27127e-05
2.20364e-05
2.27099e-05
2.27129e-05
2.83606e-05
2.91932e-05
2.20347e-05
2.27107e-05
2.27108e-05
2.9196e-05
2.94277e-05
3.02496e-05
2.29418e-05
2.29423e-05
2.36468e-05
2.36454e-05
2.94276e-05
3.02486e-05
2.29395e-05
2.29423e-05
2.36441e-05
2.36483e-05
2.29425e-05
2.3644e-05
2.36485e-05
2.94271e-05
3.02521e-05
2.29408e-05
2.36461e-05
2.36459e-05
3.02539e-05
3.0482e-05
3.12885e-05
2.38869e-05
2.38859e-05
2.46123e-05
2.46119e-05
3.04807e-05
3.129e-05
2.38836e-05
2.38876e-05
2.46097e-05
2.46136e-05
2.38874e-05
2.46107e-05
2.46139e-05
3.04838e-05
3.12903e-05
2.38853e-05
2.46118e-05
2.46111e-05
3.12917e-05
3.15171e-05
3.23116e-05
2.48605e-05
2.48614e-05
2.56069e-05
2.56044e-05
3.1519e-05
3.23086e-05
2.4858e-05
2.48619e-05
2.56035e-05
2.5607e-05
2.48627e-05
2.56029e-05
2.56077e-05
3.15188e-05
3.23117e-05
2.48603e-05
2.56052e-05
2.56046e-05
3.23135e-05
3.25366e-05
3.3308e-05
2.58596e-05
2.58584e-05
2.6619e-05
2.66177e-05
3.25347e-05
3.33081e-05
2.58562e-05
2.58605e-05
2.66156e-05
2.66199e-05
2.58591e-05
2.66162e-05
2.66216e-05
3.25378e-05
3.33098e-05
2.58566e-05
2.66184e-05
2.66181e-05
3.3312e-05
3.35293e-05
3.42852e-05
2.68744e-05
2.68731e-05
2.76457e-05
5.70924e-05
3.3529e-05
6.51242e-05
2.68709e-05
2.68749e-05
2.76426e-05
2.76462e-05
2.68751e-05
2.76453e-05
3.35301e-05
3.42859e-05
2.68723e-05
2.76447e-05
5.71264e-05
2.7903e-05
3.45032e-05
6.91808e-05
6.05627e-05
7.04212e-05
6.04129e-05
7.0436e-05
6.91621e-05
6.91605e-05
6.05637e-05
7.04235e-05
6.04125e-05
7.04382e-05
1.19285e-05
1.37703e-05
1.37704e-05
1.38669e-05
1.38669e-05
1.38677e-05
1.38677e-05
4.3106e-05
3.44342e-05
1.62796e-05
2.13811e-05
3.05832e-05
5.40043e-05
1.63987e-05
6.91624e-05
6.91607e-05
4.31056e-05
1.62805e-05
4.06274e-05
2.13824e-05
1.63996e-05
5.40048e-05
3.05845e-05
6.33732e-05
6.33818e-05
2.75878e-05
6.34933e-05
6.35016e-05
6.09017e-05
7.04546e-05
6.0763e-05
7.04699e-05
6.91475e-05
6.91481e-05
6.0902e-05
7.04559e-05
6.07619e-05
7.04722e-05
1.39042e-05
1.3905e-05
1.3905e-05
1.40366e-05
1.40366e-05
1.40372e-05
1.40375e-05
4.40199e-05
5.43242e-05
1.67767e-05
2.22558e-05
4.36548e-05
5.45465e-05
1.69113e-05
6.91478e-05
6.9148e-05
4.40199e-05
1.67781e-05
5.43264e-05
2.22575e-05
4.36567e-05
1.69126e-05
5.45477e-05
6.36559e-05
6.3664e-05
2.86637e-05
6.37685e-05
6.37766e-05
6.12199e-05
7.04906e-05
6.10881e-05
7.05071e-05
6.91391e-05
6.91415e-05
6.12205e-05
7.04929e-05
6.10894e-05
7.05087e-05
1.40852e-05
1.40859e-05
1.40859e-05
1.42515e-05
1.42514e-05
1.42525e-05
1.42529e-05
4.48745e-05
5.48499e-05
1.73326e-05
2.31729e-05
4.45296e-05
5.50613e-05
1.74813e-05
6.91393e-05
6.91419e-05
4.48753e-05
1.7334e-05
5.48508e-05
2.31742e-05
4.45303e-05
1.74826e-05
5.50624e-05
6.39239e-05
6.39321e-05
2.97262e-05
6.40346e-05
6.40421e-05
6.15188e-05
7.05296e-05
6.13942e-05
7.05471e-05
6.91362e-05
6.91411e-05
6.15201e-05
7.05312e-05
6.13945e-05
7.05498e-05
1.43143e-05
1.43155e-05
1.43153e-05
1.45125e-05
1.45124e-05
1.45134e-05
1.4514e-05
4.56791e-05
5.5347e-05
1.7945e-05
2.41232e-05
4.53527e-05
5.55474e-05
1.81039e-05
6.91363e-05
6.91409e-05
4.56802e-05
1.79469e-05
5.5349e-05
2.41253e-05
4.53534e-05
1.81056e-05
5.55502e-05
6.41818e-05
6.41895e-05
3.07748e-05
6.4285e-05
6.42935e-05
6.1805e-05
7.05718e-05
6.16849e-05
7.05915e-05
6.91393e-05
6.91458e-05
6.1806e-05
7.05737e-05
6.16868e-05
7.05928e-05
1.45901e-05
1.45911e-05
1.45909e-05
1.48228e-05
1.48225e-05
1.48237e-05
1.48247e-05
4.64421e-05
5.58241e-05
1.86105e-05
2.51037e-05
4.61333e-05
5.60134e-05
1.87797e-05
6.91395e-05
6.91461e-05
4.64422e-05
1.86122e-05
5.5823e-05
2.51048e-05
4.61328e-05
1.8781e-05
5.6014e-05
6.44332e-05
6.44405e-05
3.18068e-05
6.45361e-05
6.45434e-05
6.20824e-05
7.06184e-05
6.19654e-05
7.06395e-05
6.91478e-05
6.91568e-05
6.20842e-05
7.06207e-05
6.19659e-05
7.06418e-05
1.49094e-05
1.4911e-05
1.491e-05
1.51795e-05
1.51793e-05
1.51808e-05
1.51821e-05
4.71703e-05
5.62741e-05
1.93212e-05
2.61083e-05
4.68722e-05
5.64596e-05
1.95056e-05
6.91479e-05
6.91569e-05
4.71707e-05
1.93238e-05
5.62769e-05
2.61111e-05
4.68738e-05
1.95074e-05
5.64614e-05
6.46668e-05
6.46747e-05
3.28134e-05
6.47715e-05
6.47794e-05
6.23487e-05
7.06678e-05
6.22357e-05
7.06916e-05
6.91616e-05
6.91723e-05
6.23472e-05
7.06688e-05
6.22369e-05
7.06941e-05
1.24446e-05
1.52752e-05
1.52752e-05
1.52766e-05
1.52756e-05
1.55821e-05
1.55832e-05
4.78616e-05
5.67102e-05
2.00775e-05
2.7127e-05
4.75827e-05
5.68818e-05
2.02754e-05
6.91614e-05
6.91724e-05
4.78614e-05
2.00801e-05
5.67101e-05
2.71287e-05
4.75824e-05
2.02766e-05
5.6882e-05
6.49067e-05
6.49144e-05
3.38032e-05
6.49979e-05
6.50058e-05
1.24746e-05
1.5688e-05
1.56887e-05
6.91812e-05
5.71313e-05
6.91671e-05
6.91691e-05
6.33539e-05
6.3359e-05
7.04215e-05
6.03842e-05
5.37218e-05
1.61649e-05
4.26244e-05
7.04174e-05
6.0383e-05
7.04039e-05
2.0759e-05
1.6165e-05
4.03604e-05
4.26238e-05
4.01686e-05
6.91605e-05
6.91589e-05
6.91626e-05
6.91609e-05
6.33767e-05
6.33828e-05
2.75851e-05
6.34981e-05
6.35072e-05
6.91518e-05
6.91526e-05
6.91535e-05
6.91546e-05
2.78203e-05
6.36365e-05
6.36408e-05
6.35207e-05
6.35295e-05
6.05612e-05
7.04188e-05
6.04114e-05
7.04335e-05
4.31041e-05
4.06267e-05
1.62792e-05
2.13831e-05
3.05831e-05
5.40048e-05
1.63984e-05
4.31031e-05
4.06305e-05
1.6279e-05
2.1383e-05
3.05815e-05
5.40057e-05
1.63979e-05
6.05903e-05
7.04527e-05
7.0438e-05
6.07368e-05
6.05888e-05
7.04501e-05
7.04354e-05
6.0735e-05
4.31966e-05
2.15976e-05
5.42802e-05
1.66474e-05
5.40519e-05
1.65201e-05
4.35701e-05
4.3195e-05
2.15981e-05
5.42799e-05
1.66467e-05
5.40526e-05
1.65201e-05
4.35688e-05
6.33805e-05
6.33749e-05
2.75846e-05
6.35031e-05
6.34969e-05
6.91605e-05
6.91587e-05
6.91534e-05
6.91542e-05
2.78201e-05
6.36398e-05
6.36347e-05
6.35254e-05
6.35193e-05
6.91516e-05
6.91525e-05
4.31057e-05
5.37704e-05
1.62799e-05
2.13818e-05
4.2722e-05
5.40094e-05
1.63988e-05
6.05615e-05
7.04192e-05
6.04114e-05
7.04337e-05
4.31042e-05
1.628e-05
4.06309e-05
2.13842e-05
4.2721e-05
1.63989e-05
5.40048e-05
6.05911e-05
7.04539e-05
7.04399e-05
6.07359e-05
4.31974e-05
2.1596e-05
5.42812e-05
1.66477e-05
5.40561e-05
1.6521e-05
4.35699e-05
6.05891e-05
7.04508e-05
7.04356e-05
6.07345e-05
4.31954e-05
2.15986e-05
1.66478e-05
5.42813e-05
1.6521e-05
5.40519e-05
4.35691e-05
6.05634e-05
7.04217e-05
6.04139e-05
7.04361e-05
4.31053e-05
1.628e-05
4.0627e-05
2.13839e-05
3.0583e-05
1.63991e-05
5.40022e-05
6.05621e-05
7.04189e-05
6.04127e-05
7.04332e-05
4.3196e-05
2.15947e-05
5.42789e-05
1.66474e-05
5.40511e-05
1.65206e-05
4.35697e-05
6.05904e-05
7.04531e-05
7.0438e-05
6.0736e-05
4.31948e-05
2.15983e-05
1.66478e-05
5.42782e-05
1.6521e-05
5.40493e-05
4.3569e-05
6.0589e-05
7.04503e-05
7.04351e-05
6.07345e-05
6.33822e-05
6.33786e-05
2.75865e-05
6.35027e-05
6.34987e-05
6.91611e-05
6.91594e-05
6.91537e-05
6.91545e-05
2.78216e-05
6.36431e-05
6.36375e-05
6.35254e-05
6.3521e-05
6.91524e-05
6.91531e-05
4.31049e-05
1.62804e-05
4.06327e-05
2.13822e-05
1.63995e-05
5.40055e-05
3.05836e-05
6.05629e-05
7.04218e-05
7.04364e-05
6.04132e-05
6.05621e-05
7.04205e-05
7.04349e-05
6.04121e-05
4.31969e-05
2.15967e-05
1.66486e-05
5.42808e-05
1.65217e-05
5.40518e-05
4.35706e-05
4.3196e-05
2.15968e-05
1.66484e-05
5.42811e-05
1.65216e-05
5.40524e-05
4.35691e-05
6.05902e-05
7.04537e-05
7.04384e-05
6.07365e-05
6.05893e-05
7.04516e-05
7.04367e-05
6.07349e-05
6.91605e-05
6.91588e-05
6.91626e-05
6.9161e-05
2.7822e-05
6.36343e-05
6.36424e-05
6.35163e-05
6.35245e-05
6.91519e-05
6.91525e-05
6.91541e-05
6.91548e-05
6.9146e-05
6.91465e-05
6.91476e-05
6.91484e-05
6.36579e-05
6.36619e-05
2.86592e-05
6.37732e-05
6.37782e-05
6.91423e-05
6.91411e-05
6.91445e-05
6.91431e-05
2.88935e-05
6.39078e-05
6.39157e-05
6.37953e-05
6.3801e-05
6.09003e-05
7.04521e-05
6.07613e-05
7.04676e-05
4.40176e-05
5.43251e-05
1.67763e-05
2.22581e-05
4.36564e-05
5.45468e-05
1.69109e-05
4.40166e-05
5.43249e-05
1.67762e-05
2.22574e-05
4.36547e-05
5.45465e-05
1.69103e-05
6.0927e-05
7.04884e-05
7.04721e-05
6.10634e-05
6.09256e-05
7.04861e-05
7.04698e-05
6.10619e-05
4.40989e-05
2.24836e-05
5.4809e-05
1.71892e-05
5.45913e-05
1.70469e-05
4.44528e-05
4.40973e-05
2.24834e-05
5.48083e-05
1.71885e-05
5.45908e-05
1.70466e-05
4.44516e-05
6.36613e-05
6.36563e-05
2.86588e-05
6.37759e-05
6.37708e-05
6.91458e-05
6.91462e-05
6.91442e-05
6.91427e-05
2.88935e-05
6.39113e-05
6.39048e-05
6.37978e-05
6.37924e-05