/*--------------------------------*- C++ -*----------------------------------*\
| =========                 |                                                 |
| \\      /  F ield         | OpenFOAM: The Open Source CFD Toolbox           |
|  \\    /   O peration     | Version:  v2006                                 |
|   \\  /    A nd           | Website:  www.openfoam.com                      |
|    \\/     M anipulation  |                                                 |
\*---------------------------------------------------------------------------*/
FoamFile
{
    version     2.0;
    format      ascii;
    class       surfaceScalarField;
    location    "250";
    object      phi;
}
// * * * * * * * * * * * * * * * * * * * * * * * * * * * * * * * * * * * * * //

dimensions      [0 3 -1 0 0 0 0];
oriented        oriented;


internalField   nonuniform List<scalar> 
40970
(
1.91525e-08
-0.000231507
-5.12169e-09
-7.23187e-11
0.000231493
7.66084e-09
5.26599e-09
-7.44708e-09
-0.000193766
0.000193761
1.91326e-08
-1.56094e-10
-0.000231503
8.72496e-11
-5.11211e-09
0.000231489
7.65261e-09
5.21201e-09
-7.40678e-09
-0.000193746
0.000193741
3.66331e-09
-9.76596e-05
9.76636e-05
3.65051e-09
-9.76487e-05
9.76527e-05
-1.2044e-06
-1.16395e-06
-0.000273436
1.53473e-07
1.61311e-07
0.000275489
-5.0557e-09
1.03432e-08
-0.000279302
2.055e-08
0.00027928
-5.10883e-09
9.82315e-09
-0.000279223
1.82113e-08
0.000279204
-0.000254933
-6.02523e-09
-8.02384e-08
0.000255039
3.42569e-07
-1.45939e-06
1.70135e-07
-4.00115e-07
-1.0996e-06
1.08956e-07
-4.12291e-07
7.81136e-07
0.00114629
-1.2772e-09
-0.000247784
-3.71512e-08
0.000247822
-1.22648e-06
6.50961e-07
-1.05591e-06
8.45482e-07
0.00115684
-1.84347e-09
-0.000254923
-5.05343e-09
-8.02461e-08
0.000255029
3.41841e-07
-1.41653e-06
1.61849e-07
-3.91874e-07
-1.09656e-06
1.06421e-07
-4.09464e-07
7.75771e-07
0.0011473
1.16318e-09
-0.00024775
-3.72826e-08
0.000247786
-4.47258e-09
-1.22627e-06
6.50957e-07
-1.05586e-06
8.42496e-07
0.0011567
1.92064e-08
-0.000231464
-3.03039e-09
1.77082e-10
0.000231448
-0.0002549
-7.76618e-08
-5.05307e-09
0.000255
-1.22344e-06
6.50989e-07
-1.0559e-06
8.42625e-07
0.00115666
-4.05469e-10
3.63016e-08
0.000143263
-9.09714e-10
-3.94547e-08
-7.29351e-10
1.18101e-07
-0.000171076
-1.10981e-09
0.000171072
-0.000224948
-2.13678e-09
1.52714e-09
8.79011e-09
0.00022494
-9.83257e-10
1.11555e-07
-1.30575e-09
0.000143261
2.50192e-08
7.90432e-05
-0.000264023
7.44145e-09
-3.0804e-09
0.000264013
-1.19285e-08
-2.06682e-09
6.86543e-08
8.85603e-08
7.90493e-05
3.6314e-08
-2.16777e-10
0.00014326
-9.54944e-10
-1.24642e-09
-3.94987e-08
1.11115e-10
1.18108e-07
-0.000224945
-2.1098e-09
1.45693e-09
1.11709e-08
0.000224935
-0.000171071
-1.13436e-09
-1.37712e-11
0.000171067
-1.00494e-09
1.0911e-07
1.5703e-11
-1.31601e-09
0.000143258
2.49906e-08
7.90427e-05
-0.00026402
7.51359e-09
-6.08966e-10
0.000264007
-1.19004e-08
-2.05875e-09
6.85988e-08
8.59922e-08
7.90488e-05
2.59879e-08
2.59904e-08
-1.46641e-08
-1.46938e-08
0.000214366
3.98032e-08
3.77316e-08
-8.04923e-05
1.70628e-09
-3.35199e-09
8.04939e-05
-8.04744e-05
1.759e-09
-3.3197e-09
8.0476e-05
8.89183e-09
8.77595e-09
1.10637e-08
1.30983e-08
0.000214346
-5.22551e-08
0.000223574
6.25864e-08
1.05571e-07
-0.000183281
1.31372e-08
0.000183275
-7.05036e-09
8.58482e-08
2.15419e-08
-1.66238e-08
-0.00025386
1.33409e-08
1.8784e-08
0.000253865
1.41214e-08
0.000223568
1.74768e-07
8.46976e-08
-5.41921e-08
0.000223502
6.23555e-08
1.07781e-07
-0.00018322
1.12633e-08
0.000183215
-6.37866e-09
8.8082e-08
2.14576e-08
-1.6529e-08
-0.000253746
1.34585e-08
2.1377e-08
0.000253746
1.21956e-08
0.000223498
1.74352e-07
8.18631e-08
-3.86549e-10
3.83571e-08
0.000143187
-8.86194e-10
-4.15497e-08
-7.16338e-10
1.18069e-07
-0.000171035
-1.10495e-09
0.000171033
-0.000224848
1.12761e-11
1.53202e-09
8.81123e-09
0.000224838
-9.83974e-10
1.11429e-07
-1.30208e-09
0.000143187
2.5039e-08
7.8998e-05
-0.000263895
7.446e-09
-3.12916e-09
0.000263885
8.848e-08
7.90042e-05
0.000246049
2.18901e-07
2.16765e-07
-3.74148e-07
-3.82016e-07
4.99771e-08
-0.000265205
0.000265492
4.77243e-08
-0.000265631
0.00026592
0.000246173
-3.53609e-07
2.04957e-08
0.000271216
-3.78129e-08
-7.23032e-09
3.55039e-07
-0.000253737
-1.05531e-07
-6.94722e-09
0.000253853
-0.000271717
-2.32282e-08
0.000272311
-1.30496e-08
-3.81943e-08
0.000271971
-3.07427e-07
-5.45207e-08
0.000269299
-0.000254127
-1.1128e-07
0.000254227
1.90039e-08
2.1252e-07
-0.000264626
3.31534e-08
0.000264683
0.000269964
-3.58796e-07
2.38041e-08
0.000271213
-5.09753e-08
-7.96058e-09
3.55052e-07
4.19612e-10
-0.000253722
-1.10605e-07
-7.05944e-09
0.000253846
-0.000271714
-1.9367e-08
-7.60533e-09
0.000272311
-1.31172e-08
4.65661e-09
-2.49435e-08
0.00027195
-3.09868e-07
-5.43833e-08
0.000269309
-0.00025411
-1.14046e-07
0.000254217
1.65176e-08
2.12419e-07
-0.000264613
3.31069e-08
0.00026467
0.000269979
1.94263e-08
-3.56075e-07
0.00027115
-3.7794e-08
3.52458e-07
-6.71206e-09
-0.000271695
-2.12351e-08
0.000272282
-0.000253646
-1.08105e-07
-6.96363e-09
0.000253765
-1.30482e-08
-3.83038e-08
0.000271901
-3.12428e-07
0.000269223
-0.000254014
-1.16399e-07
0.000254122
0.00026988
4.94266e-09
-1.38592e-06
8.35753e-07
-3.18767e-07
1.99622e-07
-9.76272e-07
-3.22247e-07
1.16856e-06
2.09913e-07
2.55042e-07
-0.00114532
-0.00116356
2.08647e-08
-2.06387e-07
9.09604e-07
-9.18831e-07
7.18742e-07
-1.08998e-06
5.05194e-07
0.00116362
-0.000273236
1.27971e-06
1.34833e-06
0.000271163
-2.70405e-07
-2.85099e-07
-1.99918e-07
-1.09879e-06
7.11284e-07
8.96718e-07
-9.22161e-07
5.4104e-07
-5.90331e-08
-0.00116343
-2.41824e-10
-1.88119e-08
7.16009e-09
2.5647e-09
-0.000229252
0.000229261
1.20349e-06
0.00114543
-1.30153e-06
2.05531e-07
-2.94154e-07
-9.68027e-07
1.68199e-07
-2.93876e-07
8.2622e-07
-0.00114565
2.27149e-07
4.40047e-07
-1.2351e-06
2.10403e-07
-0.000271215
2.07177e-07
-6.04947e-09
-7.12374e-09
-9.71313e-05
9.71445e-05
3.71454e-07
1.25601e-06
-3.08488e-07
1.95294e-07
8.14329e-07
-3.15627e-07
1.36682e-07
-9.75559e-07
4.11888e-07
0.00114513
9.01218e-07
-9.18893e-07
7.1602e-07
-1.09287e-06
-0.00116366
5.58084e-07
-1.58521e-08
-4.67381e-08
-0.000245405
1.50392e-07
9.56599e-09
0.000245308
-3.25661e-07
-2.37462e-07
0.000271161
-0.000273253
1.26927e-06
-1.49488e-08
-0.000277093
-8.80984e-09
6.79289e-08
0.000277033
2.93778e-09
-9.7157e-05
9.71391e-05
-0.000192422
-1.08128e-08
0.000192389
-0.00114507
1.24233e-06
-3.03079e-07
2.265e-07
8.46395e-07
-2.86598e-07
2.15739e-07
-9.65363e-07
2.32835e-07
0.001145
-4.43413e-08
8.95709e-07
-9.18744e-07
-1.09272e-06
7.10432e-07
-1.84557e-07
-0.00116333
5.63453e-07
0.0011634
1.99703e-10
-7.29033e-08
0.000251683
2.51183e-07
-6.51009e-10
-0.000251861
-0.000277093
1.80863e-08
-1.51898e-08
5.21081e-08
-1.14184e-08
0.000277049
4.83404e-09
-1.41845e-08
1.0482e-08
-3.69325e-08
-0.000277057
-5.88065e-09
-9.71462e-05
1.62959e-08
1.53502e-09
-1.31896e-07
-6.15279e-10
0.000251864
-0.000251749
9.73955e-09
-7.60391e-08
-8.31201e-09
-0.000245345
2.43768e-09
7.16183e-09
0.000229297
-0.000229291
-6.8296e-09
-0.000192412
-1.3187e-07
-9.70389e-10
-0.000251718
0.000251834
2.08312e-07
-1.35344e-06
-3.27392e-07
-9.87061e-07
1.5987e-07
8.23505e-07
-3.31958e-07
-0.00114512
4.21764e-07
1.20164e-08
1.18963e-08
-5.85931e-09
-6.66248e-08
-0.000245283
0.000245331
-6.88416e-09
-0.000192359
0.000192372
9.80865e-09
1.19618e-08
0.000245368
-6.68713e-08
-0.000245317
-5.81226e-09
5.91833e-09
0.00019238
-0.00019237
-6.78355e-09
-9.42445e-09
-0.000277005
7.39166e-09
0.000277012
5.00845e-09
-9.89947e-09
-0.000277086
1.03813e-08
9.71491e-05
-9.71382e-05
8.95907e-07
-9.18599e-07
7.10568e-07
-1.09231e-06
-0.00116332
5.10736e-07
0.00116354
-4.61817e-08
1.50663e-07
9.48901e-09
0.000245272
-7.04415e-08
0.000251659
2.53734e-07
-3.16226e-09
-0.000251838
-1.86161e-10
0.000229246
2.04996e-09
-2.2977e-08
-0.000229298
-2.88148e-09
-1.08261e-08
0.000192348
0.000229212
1.05501e-09
-2.304e-08
-0.000229261
9.7131e-05
2.75032e-09
1.91224e-08
-8.66372e-08
1.63466e-08
-0.000221589
2.8741e-09
-5.65346e-09
5.23173e-09
-0.000277028
-9.76327e-09
-4.72392e-10
-0.000181983
-2.5926e-08
-0.000251218
8.86351e-10
0.000142326
-2.56494e-09
2.36308e-08
1.4886e-09
-0.000142349
1.05941e-09
-0.000169982
-3.98258e-11
0.000169988
6.82867e-09
-0.00022288
4.62061e-09
-2.3178e-08
0.000222894
-2.32845e-08
1.69211e-09
7.39408e-08
-1.65455e-10
-0.000229304
1.03777e-09
0.000142333
-3.5367e-11
-0.000170007
2.62869e-09
7.44679e-08
-0.000222932
4.64582e-09
1.73676e-08
-9.71533e-05
-9.71379e-05
-5.74439e-09
1.2434e-09
-1.03274e-09
2.62583e-08
-0.000212768
-7.99892e-05
-2.93457e-09
-7.99868e-05
-2.91085e-08
2.39266e-08
-0.000221582
-3.8803e-08
0.000181969
4.31724e-08
-9.60319e-09
-0.000182011
0.000251172
-7.74425e-08
6.25642e-08
2.02332e-07
-0.000251292
-4.25055e-08
7.6348e-09
7.42917e-09
-1.1617e-08
-1.14554e-08
-1.76602e-07
9.65109e-08
-8.33786e-08
-0.00022163
-5.88864e-09
-1.18026e-08
-7.85948e-05
-1.26551e-09
0.000262004
-2.1646e-08
-0.000262046
5.59351e-08
-2.5006e-09
-6.72559e-09
-1.24464e-08
-2.26439e-08
-6.56172e-09
-7.86152e-05
-1.27152e-09
-0.000221597
3.15576e-08
-1.73527e-09
2.66348e-08
-9.69859e-08
0.000221637
-5.08428e-08
0.000251236
-0.000251313
1.1483e-07
6.52516e-08
3.37562e-08
0.000181986
-0.000182021
-9.62646e-09
6.25729e-09
4.35769e-09
5.02367e-09
-7.36539e-09
0.000277041
-0.000221641
6.57978e-08
-3.80461e-08
6.72107e-09
8.82571e-09
0.000251258
-2.17132e-09
0.00018199
8.78082e-09
4.56561e-09
-2.06049e-08
0.000222985
-0.000222975
1.0091e-09
0.000170019
-0.000170013
1.15441e-09
0.000142401
-0.000142393
1.16903e-08
-2.45476e-08
-0.000262036
-7.86023e-05
7.85609e-05
1.97523e-08
-7.85792e-05
9.51875e-09
-0.000261912
-2.45919e-08
0.000261925
-1.14269e-08
5.15527e-08
-0.000192395
7.85715e-05
6.16392e-08
-0.000261963
1.95863e-08
7.85591e-05
-7.85773e-05
-1.39591e-09
-1.04556e-08
-2.92911e-09
4.48754e-08
-0.000192401
-0.000261921
9.6567e-09
0.000261934
-2.48089e-08
-4.55033e-09
5.42286e-08
-0.000261964
-2.52255e-09
7.85697e-05
-9.60241e-10
0.000221576
5.95962e-08
-3.77966e-08
-3.36963e-08
7.38972e-08
-0.000221638
-1.08671e-09
-0.000251141
-3.52796e-08
-6.02801e-09
0.000251174
6.4911e-08
-1.00652e-08
2.0287e-08
-0.000277063
-7.23023e-09
-0.000181972
4.49521e-09
0.000181982
1.05678e-09
-2.15988e-08
0.000221588
1.442e-07
7.12692e-08
-0.000251232
-7.81582e-09
-0.000182012
0.000221626
2.4592e-08
-2.26118e-08
-9.87902e-09
4.83531e-08
-0.000221666
7.48141e-09
-0.000251282
-4.26341e-08
-6.19703e-09
3.63055e-08
-5.4833e-09
-1.52674e-08
1.10781e-08
-0.000277113
-7.77537e-09
-0.000182009
6.17863e-09
5.50299e-09
-2.14516e-08
7.27542e-08
4.77983e-08
-0.000251341
-4.52409e-09
-0.000182033
0.000212806
-9.25677e-09
-8.769e-09
-0.000212831
-2.33613e-09
-7.99965e-05
8.00033e-05
-3.05568e-09
-7.9998e-05
8.00072e-05
0.000212807
-8.00136e-05
-8.00113e-05
-9.71564e-05
-8.95548e-09
-0.000142378
-1.11613e-09
1.29668e-09
0.000142387
2.43483e-09
7.37396e-09
-1.19809e-10
-1.9695e-08
0.000229256
0.000222939
-2.5296e-08
7.3456e-08
-0.000222987
2.4824e-09
2.56866e-09
0.000169996
-4.77192e-11
-0.000170021
-2.3848e-08
4.5866e-09
0.000222951
-0.000142402
1.31868e-09
-1.0405e-11
0.000170002
-7.85517e-05
-9.70826e-09
-1.14839e-09
7.85625e-05
-1.94926e-08
0.000261887
-2.42862e-09
5.82161e-08
-7.21589e-09
5.89386e-09
-7.46329e-09
0.000192357
-1.46048e-09
-2.45301e-09
-2.04432e-08
0.000261893
-0.000142307
-7.07287e-09
-1.15614e-09
0.000142314
2.43646e-09
7.45015e-09
-1.72362e-08
0.000229219
-2.33594e-08
0.000222848
7.09472e-08
-0.000222897
2.35036e-09
0.00016996
-0.000169985
-0.00014233
-1.90998e-08
0.00022286
0.000169966
9.7142e-05
-1.48792e-07
-0.000243594
-4.00692e-08
4.93955e-08
0.000243761
2.13746e-07
2.34647e-07
0.000273213
0.000262982
-1.38999e-07
-0.000263351
-6.63087e-08
-1.44634e-07
0.000262665
-0.000262999
2.07644e-07
0.000263066
-0.000243765
-4.76319e-08
0.000263061
0.000243638
1.69963e-07
1.28051e-07
-0.000243814
8.07403e-08
-0.000263048
-2.8484e-07
-2.93202e-07
-0.000273292
8.86083e-08
-0.000262718
-0.000263346
-0.000263104
-8.28127e-09
1.54336e-07
-0.000266192
-3.60583e-10
0.000261729
3.14637e-08
-0.000261866
0.000251316
2.29349e-07
-0.000251485
4.72882e-09
-7.94495e-08
-8.20806e-09
-4.86952e-09
-0.000266928
2.14338e-08
-1.23738e-07
-0.000243605
-6.72821e-08
-7.18106e-08
0.000262714
2.89343e-07
1.65852e-08
-0.000263274
0.000262951
-2.14811e-07
-0.000263094
2.19055e-07
2.21579e-07
-1.2721e-06
-1.93425e-08
-0.000243776
-2.06358e-07
-0.000268224
6.12737e-09
1.532e-07
-7.60852e-09
0.000268968
-1.30725e-07
3.73521e-10
-3.20104e-10
0.000251794
-7.14371e-09
0.000268735
-1.99402e-09
-0.000269393
2.62065e-07
0.000250698
-4.71734e-09
-0.000250883
-2.65556e-08
-0.000269035
-4.73146e-10
0.000269321
1.78807e-10
0.000250828
-9.80897e-09
3.11028e-09
0.00026941
-7.11367e-07
-0.000268824
-1.51904e-07
2.03498e-10
0.000250886
-0.000250756
-1.58178e-08
0.000269047
-8.99538e-07
-0.000268293
8.34573e-09
-1.84465e-07
1.60247e-08
-0.000261782
-1.50748e-07
-0.000251367
-8.29063e-07
-0.000266258
0.000268239
9.31425e-09
-2.66957e-07
-2.40149e-08
-0.000269056
-1.08202e-08
-0.000268789
0.000269382
-1.49447e-07
-0.000250683
2.17839e-10
0.000250808
2.56256e-07
-2.29537e-09
-6.71806e-10
-0.000251897
-1.58299e-08
0.000268991
-4.03027e-09
-0.000269441
-7.1486e-09
-0.00025087
0.000266175
-2.36592e-07
-3.39952e-08
-0.000266916
-1.45824e-07
-0.000251279
0.000251394
1.34212e-08
-0.000261707
0.000261781
9.32821e-09
1.59669e-07
-0.00024538
0.00026685
-0.000251452
-0.000261842
-2.2617e-07
-2.68865e-08
0.000266196
-0.000266943
3.24154e-08
-0.000261754
1.36156e-08
0.000261836
7.09834e-09
1.39706e-07
-0.000245408
-0.000251295
-1.48385e-07
0.000251415
-2.64688e-09
-0.000251466
7.03078e-09
-0.000261888
0.000266882
5.44853e-09
-1.77716e-08
-0.000266138
1.41682e-07
2.07049e-08
0.000266808
0.000261702
3.37822e-08
2.31971e-07
0.000251244
7.00713e-09
-5.53755e-08
-5.91513e-09
0.000245318
0.000261775
3.43771e-08
4.64326e-09
0.000251354
1.01018e-08
-0.000268169
1.48227e-07
0.000268927
-1.28201e-07
-7.771e-10
0.00025177
0.000268727
-1.35101e-08
-0.00026938
2.64439e-07
0.000250622
-0.000250812
0.000269319
-0.000268976
0.000250755
6.66016e-11
7.04792e-08
-2.30628e-08
2.05769e-09
0.000229212
-7.04867e-08
-1.02151e-09
2.48609e-07
-1.58421e-09
0.000251689
1.79447e-09
-2.30507e-08
0.000229248
2.5115e-07
-3.4524e-10
0.000251652
-4.4806e-08
-1.35264e-08
7.14928e-09
1.38456e-07
0.000245244
-2.91468e-09
-1.0484e-08
0.000192341
-1.51262e-08
3.59206e-08
0.000276984
-5.95626e-09
9.71264e-05
-1.18484e-09
-7.05855e-09
-0.000142311
1.19301e-09
0.000142318
0.000169962
2.56499e-09
-3.16088e-11
0.000222848
-2.33837e-08
2.56694e-09
6.86648e-08
7.43513e-09
2.46304e-09
-2.48102e-11
-1.729e-08
0.000229219
-4.57496e-11
0.000169968
4.53183e-09
-1.90882e-08
0.000222858
1.5246e-09
-9.01117e-09
-1.07571e-09
-0.000142377
0.000222941
-2.5374e-08
6.85536e-08
0.000169994
2.50978e-09
2.60039e-09
7.41938e-09
-1.72723e-08
-1.89097e-08
-9.6465e-09
-7.85534e-05
7.85642e-05
0.000261883
-1.96033e-08
5.36624e-08
-6.8068e-09
7.58449e-09
-1.24348e-08
0.000192352
-2.28055e-08
0.000261894
-4.42118e-08
-0.000221559
3.01765e-08
-1.55296e-08
0.000221638
0.000251121
-2.95454e-08
5.26075e-08
-5.2071e-08
9.46474e-09
7.07897e-09
-1.63617e-08
0.000277036
2.43512e-08
0.000181958
-6.27906e-09
-1.8685e-08
0.000251251
-2.31354e-08
4.45466e-09
0.000181994
-0.000212767
7.50008e-10
3.10078e-09
0.000212651
1.11143e-08
7.99859e-05
1.05994e-08
7.9987e-05
7.99911e-05
7.99879e-05
9.71411e-05
1.55726e-07
4.1301e-09
-0.000268229
0.00026875
-8.42703e-09
-1.96191e-09
0.000250696
2.62028e-07
1.12059e-09
-1.30817e-07
-7.81585e-11
-1.60414e-09
8.47878e-09
1.55958e-07
-0.000268173
-1.59001e-08
0.000268934
0.000268719
-6.16344e-09
0.000250619
2.59409e-07
-2.20517e-09
-1.33354e-07
-6.8243e-11
0.000251768
0.000269311
2.31403e-10
0.000250755
-1.87776e-08
1.5436e-07
-6.11698e-09
-0.000266117
0.0002668
0.000251231
2.2196e-07
0.000261656
2.91403e-08
-8.30248e-09
-8.668e-08
0.00024531
0.000251354
0.00026176
2.56794e-08
2.00233e-09
9.7636e-05
2.56326e-08
2.01781e-09
9.76251e-05
1.45355e-06
1.41327e-06
0.000273372
-3.71041e-07
-3.78931e-07
2.10886e-08
0.000279207
-6.79891e-09
8.44921e-08
2.09912e-08
0.000279128
-6.11716e-09
8.67236e-08
2.30456e-10
1.16184e-07
0.000231416
-3.8841e-08
-5.98568e-10
6.78763e-08
0.000193707
-1.20895e-08
1.16153e-07
0.000231376
-3.88354e-08
-3.93597e-10
6.79483e-08
-2.05154e-09
0.000193652
-1.21245e-08
1.35714e-09
0.000254811
-5.82499e-09
3.48486e-07
3.40019e-07
6.49673e-07
1.2053e-06
-3.97594e-07
1.70936e-07
7.79901e-07
-4.08955e-07
1.10564e-07
-1.0928e-06
0.00114638
0.000247683
1.85433e-08
2.10131e-07
9.59992e-09
7.43823e-07
8.4436e-07
-1.05155e-06
-1.21952e-06
6.52892e-07
0.0011572
0.000254784
-6.03725e-09
3.51062e-07
3.2731e-07
-1.44251e-06
6.59067e-07
7.9055e-07
-3.98139e-07
-1.08998e-06
1.32855e-07
1.21121e-06
-3.86364e-07
1.85346e-07
0.00114642
-2.12037e-08
0.000247595
1.36655e-08
2.07516e-07
7.49233e-07
8.52551e-07
-1.05157e-06
-1.2221e-06
6.55633e-07
0.00115715
2.55802e-08
9.76229e-05
1.41837e-06
0.000273369
-3.76626e-07
-3.80891e-07
0.000279096
-4.20264e-09
8.18612e-08
-2.5625e-08
2.347e-08
0.000279205
-5.87191e-09
9.16413e-08
2.00815e-09
9.76314e-05
1.18648e-07
2.29365e-10
0.00023141
-6.79324e-10
-3.88753e-08
6.78067e-08
0.000193687
-1.20458e-08
1.7292e-09
0.000254801
-6.35789e-09
3.5111e-07
3.38585e-07
6.55238e-07
1.16502e-06
-3.89194e-07
1.62819e-07
7.77266e-07
-4.06075e-07
1.08075e-07
-1.08977e-06
0.00114739
0.000247649
1.60529e-08
2.10032e-07
1.81627e-09
7.49192e-07
8.44112e-07
-1.05151e-06
-1.21934e-06
6.52844e-07
0.00115706
1.1614e-07
0.000231373
-4.09265e-08
-5.6454e-10
7.00572e-08
-2.07151e-09
0.000193636
-1.21074e-08
0.000254776
3.48507e-07
-6.2589e-09
3.39742e-07
-1.45093e-06
6.54997e-07
7.79895e-07
-4.08846e-07
-1.09259e-06
1.10624e-07
1.20276e-06
-3.94785e-07
1.68302e-07
0.0011464
7.49282e-07
8.44278e-07
-1.05153e-06
-1.21928e-06
6.52887e-07
0.00115703
-2.3457e-08
0.000247582
1.60791e-08
2.12518e-07
6.57171e-07
1.16186e-06
-3.91759e-07
1.51461e-07
7.66373e-07
-4.19475e-07
-1.09784e-06
8.56598e-08
0.00114705
-6.76955e-08
0.000247676
1.60577e-08
2.17603e-07
0.000193693
-1.20121e-08
2.78791e-08
9.7614e-05
1.41311e-06
0.000273353
-3.73908e-07
-3.78716e-07
0.00027909
-6.81252e-09
8.4498e-08
-2.56715e-08
2.3495e-08
-6.22594e-09
8.68273e-08
0.000279209
2.03176e-09
9.7629e-05
-1.16248e-07
3.53747e-07
-6.08861e-09
0.000254799
3.38878e-07
6.55179e-07
1.16476e-06
-3.91927e-07
1.6566e-07
-4.08794e-07
-1.08977e-06
0.00114688
7.77212e-07
1.10766e-07
7.48984e-07
-1.04595e-06
-1.21385e-06
0.00115685
8.38537e-07
6.49987e-07
-6.7846e-08
1.61278e-08
2.10044e-07
0.000247684
-5.92588e-10
-3.88859e-08
0.00023141
-1.20475e-08
0.000193691
3.39622e-09
-7.67859e-09
9.76402e-05
3.38939e-09
-7.664e-09
9.76293e-05
-0.000214298
-1.67612e-09
-1.72259e-09
1.06268e-08
1.2668e-08
0.000214278
1.45694e-08
8.04708e-05
8.57303e-09
1.45964e-08
8.04529e-05
8.44782e-09
3.93366e-08
3.7222e-08
-3.57825e-09
8.04727e-05
-3.52724e-09
8.04548e-05
-0.000223492
-1.24967e-08
1.59283e-08
1.31325e-08
0.000223486
1.0505e-08
1.94979e-08
-5.39733e-09
0.000279185
5.14021e-08
0.000183226
-6.18097e-08
0.000253755
1.72516e-07
8.37629e-08
1.04117e-07
0.00018322
1.15894e-08
1.79654e-08
0.000253761
-0.00022342
-1.06434e-08
1.58076e-08
1.12405e-08
0.000223417
9.96526e-09
1.71914e-08
-5.44499e-09
0.00027911
5.33035e-08
0.000183164
-6.15188e-08
0.000253641
1.721e-07
8.08965e-08
1.06327e-07
0.00018316
1.17536e-08
2.05176e-08
0.000253642
-0.000143226
9.65563e-10
1.7768e-09
-1.13967e-09
0.000143225
-4.62584e-09
3.12277e-10
2.27927e-10
1.76445e-08
0.000231402
5.33539e-10
0.000171033
1.8597e-11
-3.58211e-08
0.000224866
-7.59847e-10
1.09937e-07
-7.57675e-10
1.48909e-11
0.000171029
1.73806e-09
7.60628e-09
0.000224858
-7.90237e-05
-7.47476e-09
7.903e-05
-7.62141e-09
4.76327e-09
0.000193702
-2.4853e-08
0.000263938
8.73529e-08
-4.01018e-09
0.000263928
-0.000143155
8.30075e-10
1.74798e-09
-1.1469e-09
0.000143154
-4.61999e-09
7.97597e-10
1.52178e-08
0.000231365
5.1968e-10
0.000170998
-3.58057e-08
0.000224772
-7.19755e-10
1.0745e-07
-7.71863e-10
0.000170995
3.82207e-09
5.28644e-09
0.000224766
-7.89774e-05
-7.5267e-09
7.89838e-05
-7.23278e-09
7.67886e-09
5.32351e-10
0.000193651
-2.48523e-08
0.000263811
8.48819e-08
-6.53504e-09
0.000263806
9.54678e-10
9.76296e-05
-0.000214298
-1.51384e-09
-2.3283e-11
-3.02247e-10
2.33441e-08
0.000214276
1.43778e-08
8.0456e-05
8.60981e-09
1.64688e-08
8.04636e-05
1.02313e-08
3.73948e-08
4.1537e-08
-5.19633e-09
8.04597e-05
-2.05301e-09
8.04656e-05
-4.23707e-09
-0.000223418
-3.43274e-09
-1.55202e-09
0.000223427
2.77198e-09
1.39918e-08
-1.00232e-08
0.00027909
5.11531e-08
0.000183168
0.000253603
-5.39014e-08
7.84983e-08
1.59335e-07
4.52467e-09
-2.87847e-08
0.000253626
9.89079e-08
0.000183173
-0.000223487
-1.53995e-08
3.61521e-08
2.5899e-08
0.000223464
5.99593e-09
3.16255e-08
-5.84256e-09
-3.12467e-09
0.000279177
5.75104e-08
0.000183215
-6.43738e-08
0.00025376
1.80079e-07
8.62062e-08
1.06517e-07
0.000183204
5.28247e-08
2.85133e-08
0.000253746
-7.60573e-09
9.76332e-05
-0.000143224
1.75376e-09
8.38271e-10
-1.16495e-09
0.000143222
7.4012e-10
-4.60651e-09
-1.17938e-10
1.52237e-08
0.000231398
-3.58472e-08
0.000224861
-7.66301e-10
1.0996e-07
5.16102e-10
0.000171028
1.57485e-11
-7.97582e-10
1.66363e-09
7.64065e-09
0.000224854
-8.76447e-12
0.000171024
-7.90232e-05
-7.56101e-09
7.90296e-05
-7.5682e-09
4.6996e-09
0.000193682
-2.48296e-08
0.000263934
8.48319e-08
-1.58083e-09
0.000263922
-0.00014315
9.52881e-10
-3.0961e-10
-1.14602e-09
0.000143151
-2.52042e-09
3.27101e-10
1.77071e-08
0.000231358
5.22347e-10
0.000170991
-3.78834e-08
0.000224767
-7.45279e-10
1.09836e-07
-7.31118e-10
0.00017099
1.74114e-09
7.64345e-09
0.000224757
-7.89786e-05
-7.50728e-09
7.89849e-05
-7.64731e-09
7.70374e-09
2.68095e-09
0.000193633
-2.48735e-08
0.00026381
8.73017e-08
-4.03929e-09
0.0002638
-7.90223e-05
-9.6405e-09
7.9031e-05
-7.97038e-09
9.13866e-09
0.000193684
-2.69608e-08
0.000263947
8.71914e-08
1.04651e-09
0.00026393
1.12514e-09
9.76206e-05
-0.000214293
-1.63283e-09
-1.71522e-09
1.05441e-08
1.25653e-08
0.000214274
1.45568e-08
8.04527e-05
8.63926e-09
1.46375e-08
8.04693e-05
8.53806e-09
3.9414e-08
3.71097e-08
-3.39848e-09
8.04544e-05
-3.45346e-09
8.0471e-05
1.57885e-08
-0.000223411
-1.26323e-08
1.54878e-08
0.000223403
1.95341e-08
1.03823e-08
-7.75443e-09
0.000279069
5.14482e-08
0.000183164
0.000253597
-6.17377e-08
8.36964e-08
1.69643e-07
1.78989e-08
1.42835e-08
0.0002536
1.01888e-07
0.000183159
-0.000223491
-1.06547e-08
1.57111e-08
1.11207e-08
0.000223487
5.34312e-08
0.000183226
-6.15429e-08
0.000253764
1.72399e-07
8.61624e-08
9.93283e-09
1.72108e-08
-3.3591e-09
0.000279193
-7.85957e-09
1.06313e-07
0.000183221
1.16577e-08
0.000253771
1.51371e-08
9.76333e-05
-7.66289e-09
-3.79104e-08
-8.22495e-10
1.09914e-07
0.000224867
5.05674e-10
0.000171029
-9.79786e-10
0.000143225
-2.69444e-08
8.72069e-08
0.000263945
7.90222e-05
3.68536e-07
3.69147e-07
0.00117039
3.97282e-07
9.04397e-09
0.00118055
4.03109e-07
3.2101e-10
0.00118103
5.21355e-09
-2.68861e-09
0.00119174
3.51354e-07
3.2326e-07
0.00117019
3.8567e-07
0.00118049
3.91568e-07
-2.31851e-08
0.00118098
-1.1045e-08
0.00119171
3.74109e-07
3.68927e-07
0.00117002
4.02735e-07
0.00118015
4.02896e-07
6.02127e-09
0.00118061
3.81925e-09
0.00119111
3.68525e-07
3.69088e-07
0.00117001
4.02762e-07
0.0011802
4.02974e-07
0.00118067
0.00119113
-0.000245952
-5.0834e-08
-4.86392e-08
0.000246076
1.54982e-07
1.62745e-07
0.000275425
-2.16659e-07
0.000265113
-2.14474e-07
0.000265538
0.000265399
0.000265827
-0.000271121
1.09738e-07
2.00974e-08
-3.73063e-08
0.000271873
-4.61208e-09
-8.2277e-08
9.41336e-10
0.000254915
3.50078e-07
0.000253619
-1.27039e-08
-1.71317e-08
0.000271624
1.00921e-09
-3.69464e-08
-6.63449e-09
0.000253739
3.45669e-09
0.000272211
-3.21976e-08
-0.000269192
1.1262e-07
0.000269854
-3.81567e-08
-1.68336e-09
0.000247722
3.04297e-07
0.000254016
0.000264515
5.35153e-08
0.000264573
0.000254117
-0.000271061
1.14883e-07
1.68457e-08
-2.95501e-08
0.000271812
-3.3679e-09
-8.48513e-08
0.000254888
3.52498e-07
0.000253538
-1.26992e-08
-1.88727e-08
0.000271616
-3.95702e-08
-1.70674e-09
0.000253656
0.000272207
-0.000269117
1.20286e-07
-2.73388e-08
0.000269785
-1.57801e-09
-5.01498e-08
0.000247637
3.04228e-07
0.000253914
4.8317e-08
0.000264435
0.000254024
0.000264495
-7.41466e-08
-0.000245935
-3.09739e-08
0.000246064
1.57272e-07
1.68343e-07
0.000275417
0.000265478
-2.06256e-07
-2.19172e-07
0.000265138
0.000265718
0.00026548
-0.000271116
1.12208e-07
1.62901e-08
-2.4093e-08
0.000271856
-3.68926e-09
-8.22447e-08
-9.29747e-10
0.000254903
3.55289e-07
0.000253607
-1.27902e-08
-2.01835e-08
0.000271624
7.26543e-09
-5.01158e-08
-6.74767e-09
0.00025373
-5.74899e-09
0.000272217
-3.21407e-08
-0.000269199
1.15349e-07
0.000269869
-3.82834e-08
7.94027e-10
0.000247686
3.06789e-07
0.000253999
0.000264502
5.33771e-08
0.00026456
0.000254107
-0.000271053
1.96512e-08
1.12287e-07
-3.73797e-08
0.000271803
-8.22231e-08
-4.3557e-09
0.000254879
-1.83879e-08
0.000271605
3.52531e-07
0.000253529
-1.2698e-08
-3.69055e-08
0.000272189
-6.63468e-09
0.000253651
-0.000269111
1.1771e-07
-3.47677e-08
0.00026977
8.46541e-10
-4.04892e-08
0.000247616
3.09335e-07
0.000253903
5.09067e-08
0.000264424
0.000254011
0.000264477
-0.000269204
-3.69122e-08
1.07671e-07
0.000269873
-2.86162e-08
3.1329e-09
0.000247708
3.12045e-07
0.000254015
5.31539e-08
0.000264529
0.000264578
0.00025412
-5.09911e-08
-0.000245939
-4.85967e-08
0.000246066
1.57665e-07
1.62655e-07
0.0002754
0.000265483
-2.16914e-07
-2.14165e-07
0.000265127
0.000265772
0.000265419
-1.84002e-08
0.000271615
3.55223e-07
-1.52176e-08
0.000253614
-4.75486e-08
0.000271115
3.06693e-07
0.000254015
5.34292e-08
0.000264532
0.000269199
2.43462e-08
9.75473e-05
-9.75737e-05
2.03371e-09
2.41171e-08
2.0573e-09
9.75391e-05
-9.75652e-05
1.41638e-06
-0.00027524
1.43522e-06
-3.96844e-07
-3.35811e-07
0.000273121
-4.17691e-09
4.74182e-08
0.000278832
-0.000278871
1.985e-08
2.44086e-08
-9.54597e-09
1.0955e-07
0.000278782
-0.000278883
3.21029e-10
-1.57198e-10
-3.65962e-08
0.000231067
-0.000231139
1.09064e-07
6.70721e-08
-1.28908e-08
0.000193467
-0.000193519
1.20569e-06
-0.000271558
1.76168e-08
-3.41829e-07
0.000270726
-4.9258e-08
3.03792e-07
-0.00114745
-3.94314e-07
1.16141e-06
1.59387e-07
-1.08475e-06
-4.25314e-07
7.80613e-07
1.00643e-07
0.00114764
6.26964e-07
-0.00024741
2.13316e-07
1.43148e-08
0.000247273
-9.23099e-10
-0.00115805
-1.03428e-06
8.5081e-07
6.60463e-07
0.00115835
7.2957e-07
-3.86748e-08
0.000231028
-5.49084e-11
-0.000231101
1.11493e-07
1.03434e-06
-0.000271915
-6.106e-09
-3.36188e-07
-1.69185e-08
0.000271239
-0.00115807
-1.20295e-06
8.50843e-07
6.60474e-07
-3.26272e-07
0.00115839
7.29489e-07
2.15415e-09
-7.50929e-09
9.75527e-05
2.25498e-09
-7.50039e-09
9.75443e-05
-8.04109e-10
-8.13369e-10
-0.000214043
-5.01513e-10
1.8883e-08
0.000214027
8.03866e-05
1.54644e-08
5.26373e-09
-8.04073e-05
8.03727e-05
1.15554e-08
1.34954e-08
-8.03977e-05
-5.1439e-09
8.03909e-05
-1.93013e-09
8.03738e-05
-2.38756e-08
9.72624e-08
-0.00021409
-5.17632e-09
-0.000223174
7.93613e-10
-1.37814e-09
0.00022318
0.000183009
2.90691e-08
-0.000183037
-1.25526e-08
0.000253335
-0.000253378
3.06441e-08
7.19354e-08
1.17955e-08
8.33059e-09
-1.10256e-08
0.000278825
0.000183011
-0.000223233
5.11461e-08
-2.29602e-08
3.51822e-09
0.000253364
-1.45502e-08
2.50531e-08
-0.000223131
2.10023e-08
0.000223118
0.000182965
6.76403e-08
-0.000183028
0.000253259
-1.03746e-07
-0.000253435
2.97805e-07
9.17585e-08
8.5168e-09
2.496e-08
-6.35912e-09
0.000278757
0.000182957
3.80861e-08
1.91321e-08
0.000253252
-0.000223216
1.46677e-07
4.66198e-10
5.39909e-10
-0.000143085
-6.65063e-10
0.000143085
0.000224553
-3.41795e-08
2.59325e-12
-0.000224623
1.03977e-07
0.000170862
9.44575e-10
4.34489e-11
-0.0001709
7.82759e-10
-2.79837e-09
3.93007e-11
1.21844e-08
0.000231057
2.36771e-09
3.36016e-09
0.000224549
5.31054e-12
0.00017086
-3.50446e-10
-0.000143118
-7.72655e-09
-7.89498e-05
7.89569e-05
0.000263611
-2.41936e-08
-0.000263685
8.52224e-08
-7.99804e-09
2.97092e-09
0.000193464
-7.4804e-09
0.000263606
-7.89744e-05
5.06676e-10
-1.47193e-09
-0.000143012
0.000143014
-6.78033e-10
0.000170826
9.81545e-10
-0.000170866
-6.98715e-10
8.67442e-10
1.22562e-08
0.000231016
0.000224456
-3.61602e-08
-0.000224527
1.06352e-07
7.68589e-11
0.000170826
3.36164e-09
0.00022445
2.44678e-09
-0.000143047
-2.78537e-10
-6.49499e-07
-6.49539e-07
3.77958e-07
3.55726e-07
0.00117096
-5.69427e-10
0.000254793
-1.37916e-08
-5.65508e-09
-8.42282e-08
-0.000254689
0.000254767
-1.61612e-08
-3.67161e-09
-8.68261e-08
-0.000254661
0.000247587
5.72586e-09
-4.25222e-09
4.40877e-10
-3.92012e-08
-0.00024755
1.38796e-08
0.000231272
3.09542e-11
-2.03648e-09
2.56921e-10
-0.000231284
0.000254753
-1.02229e-10
-8.41241e-08
-5.36034e-09
-0.000254649
0.00114735
1.15441e-06
2.97585e-07
6.44862e-07
1.52363e-07
-1.43235e-06
-4.17385e-07
-1.10743e-06
9.29176e-08
-4.56869e-07
7.7342e-07
7.50143e-07
1.98832e-08
-3.48142e-07
-1.21786e-06
6.52026e-07
-1.04704e-06
8.45973e-07
0.0011573
0.000231271
6.56833e-11
1.62032e-08
-4.09272e-09
2.68282e-10
-0.000231283
0.000275335
-1.20392e-06
-1.16593e-06
1.59274e-07
-0.000273289
1.64262e-07
7.38498e-07
-3.35575e-07
-8.01596e-09
0.00115721
-1.20973e-06
6.49069e-07
8.40175e-07
-1.0416e-06
1.16884e-06
3.62676e-07
-1.3849e-06
1.75411e-07
-3.61028e-07
6.60421e-07
0.00114687
-1.06928e-06
1.26402e-07
-3.53831e-07
7.86771e-07
-1.19799e-06
1.64715e-07
-0.00027328
1.63811e-07
0.000275318
-7.6796e-09
3.18439e-09
-9.75949e-05
9.75994e-05
1.40653e-06
1.4416e-06
-3.67542e-07
0.000273227
-3.72384e-07
1.50622e-07
-7.34047e-07
-2.70707e-07
-0.00118237
3.91732e-07
0.00118283
3.24857e-07
0.00114738
-1.40717e-06
6.41906e-07
7.91129e-07
-4.02406e-07
-1.08455e-06
1.33521e-07
-3.86665e-07
1.17539e-06
1.82316e-07
1.11216e-09
-1.14918e-07
-5.22945e-09
3.43467e-07
0.000254569
-1.12422e-07
-6.09734e-09
3.43431e-07
0.000254544
-6.64059e-08
-2.02257e-08
1.51648e-08
2.05505e-07
0.000247453
1.14927e-07
-2.84926e-11
-3.9744e-08
1.20532e-10
0.000231196
5.58657e-10
3.43538e-07
-4.90202e-09
0.000254529
4.29361e-11
1.12504e-07
-3.76578e-08
-6.48766e-11
0.000231196
-7.38889e-07
0.00118121
-3.50755e-09
-3.60795e-07
3.83926e-07