/*--------------------------------*- C++ -*----------------------------------*\
| =========                 |                                                 |
| \\      /  F ield         | OpenFOAM: The Open Source CFD Toolbox           |
|  \\    /   O peration     | Version:  v2012                                 |
|   \\  /    A nd           | Website:  www.openfoam.com                      |
|    \\/     M anipulation  |                                                 |
\*---------------------------------------------------------------------------*/
FoamFile
{
    version     2.0;
    format      ascii;
    class       volScalarField;
    location    "2050";
    object      epsilon;
}
// * * * * * * * * * * * * * * * * * * * * * * * * * * * * * * * * * * * * * //

dimensions      [0 2 -3 0 0 0 0];


internalField   nonuniform List<scalar> 
171728
(
1.54795e-09
2.76115e-09
4.78066e-09
5.29511e-09
1.52675e-09
2.59194e-09
4.44196e-09
4.82823e-09
1.46582e-09
2.46697e-09
4.08618e-09
4.28627e-09
1.40812e-09
2.34259e-09
3.74824e-09
3.83248e-09
1.35287e-09
2.21284e-09
3.44678e-09
3.47666e-09
1.30052e-09
2.10874e-09
3.20814e-09
3.17798e-09
1.24319e-09
2.04175e-09
3.02403e-09
2.92847e-09
1.18457e-09
2.00606e-09
2.88446e-09
2.71992e-09
1.12538e-09
1.99493e-09
2.79333e-09
2.55194e-09
1.07048e-09
2.00465e-09
2.74321e-09
2.42479e-09
1.01832e-09
2.03704e-09
2.73138e-09
2.33537e-09
9.51676e-10
2.09469e-09
2.75192e-09
2.28519e-09
8.8794e-10
2.19189e-09
2.83861e-09
2.2786e-09
8.38007e-10
2.3341e-09
2.98883e-09
2.32381e-09
7.92665e-10
2.54743e-09
3.22263e-09
2.44376e-09
7.34027e-10
2.86702e-09
3.58633e-09
2.68111e-09
6.74694e-10
3.363e-09
4.15423e-09
3.10086e-09
6.32151e-10
4.09665e-09
5.02988e-09
3.83008e-09
6.10996e-10
5.22502e-09
6.34281e-09
5.13342e-09
5.98364e-10
6.89023e-09
8.14208e-09
7.31592e-09
5.91189e-10
9.29946e-09
1.05024e-08
1.10735e-08
5.97523e-10
1.2739e-08
1.37794e-08
1.765e-08
6.10575e-10
1.76461e-08
1.82221e-08
3.433e-08
6.62895e-10
2.42156e-08
2.44668e-08
3.78699e-08
7.28735e-10
3.36294e-08
3.36692e-08
9.21452e-08
8.39464e-10
4.37529e-08
4.43106e-08
1.15945e-07
1.01747e-09
5.94721e-08
5.86884e-08
1.5497e-07
1.26541e-09
7.49853e-08
7.49085e-08
2.22704e-07
1.63287e-09
9.57698e-08
9.52512e-08
2.85893e-07
2.12952e-09
1.17341e-07
1.17792e-07
3.64776e-07
2.82764e-09
1.43661e-07
1.43382e-07
4.44484e-07
3.79005e-09
1.75883e-07
1.73452e-07
5.18876e-07
5.08156e-09
2.03381e-07
2.05673e-07
5.87697e-07
6.74585e-09
2.40257e-07
2.39376e-07
6.49236e-07
8.94385e-09
2.79589e-07
2.79443e-07
7.06497e-07
1.19528e-08
3.18954e-07
3.20288e-07
7.56536e-07
1.53601e-08
3.6508e-07
3.61143e-07
8.02431e-07
2.03651e-08
4.0797e-07
4.08576e-07
8.40994e-07
2.53311e-08
4.5267e-07
4.57069e-07
8.79439e-07
3.29722e-08
5.11628e-07
5.00549e-07
9.13973e-07
4.07346e-08
5.48312e-07
5.53289e-07
9.45406e-07
5.10222e-08
5.9907e-07
5.97023e-07
9.78212e-07
6.09868e-08
6.54391e-07
6.5236e-07
1.004e-06
7.61941e-08
6.90613e-07
6.89208e-07
1.03641e-06
8.93993e-08
7.54505e-07
7.42241e-07
1.07211e-06
1.12792e-07
7.85826e-07
7.90734e-07
1.09374e-06
1.27838e-07
8.12546e-07
8.16513e-07
1.10411e-06
1.44301e-07
8.69472e-07
8.64006e-07
1.14266e-06
1.79224e-07
9.33199e-07
9.1011e-07
1.18303e-06
2.02693e-07
9.43668e-07
9.40863e-07
1.1929e-06
2.20111e-07
9.39468e-07
9.65105e-07
1.19907e-06
2.54489e-07
1.00951e-06
9.97852e-07
1.23241e-06
2.91502e-07
1.05606e-06
1.0399e-06
1.27898e-06
3.16443e-07
1.03832e-06
1.0567e-06
1.27681e-06
3.46384e-07
1.0359e-06
1.06262e-06
1.27849e-06
3.71334e-07
1.09653e-06
1.0935e-06
1.31509e-06
4.12614e-07
1.14867e-06
1.13477e-06
1.34645e-06
4.6073e-07
1.14403e-06
1.14013e-06
1.35162e-06
4.78042e-07
1.13689e-06
1.1466e-06
1.35074e-06
4.91177e-07
1.16611e-06
1.16984e-06
1.37131e-06
5.25832e-07
1.19878e-06
1.19737e-06
1.40254e-06
5.63442e-07
1.20676e-06
1.20693e-06
1.41288e-06
5.77933e-07
1.22057e-06
1.21888e-06
1.41863e-06
5.98557e-07
1.23475e-06
1.23454e-06
1.42469e-06
6.24061e-07
1.23706e-06
1.24011e-06
1.43661e-06
6.39481e-07
1.25723e-06
1.25436e-06
1.4577e-06
6.58933e-07
1.2687e-06
1.26791e-06
1.45925e-06
6.7139e-07
1.26299e-06
1.26774e-06
1.45995e-06
6.91834e-07
1.27948e-06
1.27801e-06
1.47379e-06
7.1584e-07
1.29874e-06
1.29709e-06
1.49176e-06
7.22966e-07
1.29747e-06
1.2984e-06
1.49873e-06
7.29999e-07
1.29291e-06
1.29762e-06
1.49644e-06
7.38415e-07
1.30573e-06
1.30386e-06
1.50013e-06
7.58103e-07
1.31436e-06
1.30636e-06
1.50517e-06
7.79166e-07
1.30463e-06
1.30915e-06
1.50307e-06
7.84615e-07
1.315e-06
1.32776e-06
1.52713e-06
7.83407e-07
1.32946e-06
1.32329e-06
1.52868e-06
7.76774e-07
1.31628e-06
1.30206e-06
1.49873e-06
7.84922e-07
1.30424e-06
1.30985e-06
1.5103e-06
8.16919e-07
1.32332e-06
1.34051e-06
1.55869e-06
8.31305e-07
1.34184e-06
1.34112e-06
1.5596e-06
8.12712e-07
1.32628e-06
1.31362e-06
1.51084e-06
7.95997e-07
1.30296e-06
1.30341e-06
1.49257e-06
7.98671e-07
1.30056e-06
1.31037e-06
1.52272e-06
8.12777e-07
1.31484e-06
1.31631e-06
1.54429e-06
8.2695e-07
1.32124e-06
1.3197e-06
1.53488e-06
8.24615e-07
1.31836e-06
1.31289e-06
1.51707e-06
7.99393e-07
1.30768e-06
1.2998e-06
1.51618e-06
7.86535e-07
1.28548e-06
1.29375e-06
1.51892e-06
8.05304e-07
1.28048e-06
1.29317e-06
1.51376e-06
8.20601e-07
1.29877e-06
1.29297e-06
1.51446e-06
7.98501e-07
1.29497e-06
1.28353e-06
1.51107e-06
7.71836e-07
1.26795e-06
1.27063e-06
1.49728e-06
7.71614e-07
1.2531e-06
1.26455e-06
1.48514e-06
7.67956e-07
1.20125e-06
1.20471e-06
1.44588e-06
3.5665e-09
3.96006e-09
3.28743e-09
3.20666e-09
2.78203e-09
3.76941e-09
1.5101e-09
1.11118e-09
1.34517e-09
1.40744e-09
2.42104e-09
3.54135e-09
5.28645e-09
4.10638e-09
4.11804e-09
5.33493e-09
3.52249e-09
3.34017e-09
4.60328e-09
3.47961e-09
4.31068e-09
3.10114e-09
3.19974e-09
3.01515e-09
4.74822e-09
3.43167e-09
4.6293e-09
3.24095e-09
1.13878e-08
2.63054e-09
6.9956e-09
5.26503e-09
4.75472e-09
4.40714e-09
4.53579e-09
4.20368e-09
4.87198e-09
3.29818e-09
3.14709e-09
4.20887e-09
3.0121e-09
3.91675e-09
2.79538e-09
3.00192e-09
2.8019e-09
4.57356e-09
3.16925e-09
4.44455e-09
2.96851e-09
5.8818e-09
2.49768e-09
3.79574e-09
4.72489e-09
4.26535e-09
4.11625e-09
4.17243e-09
3.86498e-09
4.31926e-09
3.11036e-09
2.97068e-09
3.82281e-09
2.72944e-09
3.55212e-09
2.56781e-09
2.78911e-09
2.61983e-09
4.40901e-09
2.90572e-09
4.29678e-09
2.73134e-09
3.42634e-09
2.37399e-09
2.81949e-09
4.23999e-09
3.85259e-09
3.78559e-09
3.83141e-09
3.5603e-09
3.85468e-09
2.93573e-09
2.80229e-09
3.46881e-09
2.5211e-09
3.242e-09
2.39395e-09
2.60927e-09
2.45288e-09
4.25452e-09
2.67694e-09
4.08703e-09
2.52456e-09
2.70428e-09
2.24488e-09
2.46528e-09
3.831e-09
3.50184e-09
3.48978e-09
3.51676e-09
3.29616e-09
3.49345e-09
2.7716e-09
2.65441e-09
3.17612e-09
2.3548e-09
3.00283e-09
2.24619e-09
2.44379e-09
2.30907e-09
4.01758e-09
2.47748e-09
3.82997e-09
2.34727e-09
2.4072e-09
2.13107e-09
2.26855e-09
3.48371e-09
3.19861e-09
3.23778e-09
3.26196e-09
3.08188e-09
3.1913e-09
2.62996e-09
2.541e-09
2.95316e-09
2.21181e-09
2.81953e-09
2.11759e-09
2.30253e-09
2.1922e-09
3.78951e-09
2.30783e-09
3.72037e-09
2.20033e-09
2.23045e-09
2.05508e-09
2.12828e-09
3.18398e-09
2.94439e-09
3.03446e-09
3.06554e-09
2.90054e-09
2.93825e-09
2.53214e-09
2.45319e-09
2.78104e-09
2.08943e-09
2.68312e-09
2.01842e-09
2.18867e-09
2.10027e-09
3.69957e-09
2.16905e-09
3.6293e-09
2.08578e-09
2.09912e-09
2.01302e-09
2.02416e-09
2.93382e-09
2.73585e-09
2.85911e-09
2.91513e-09
2.74731e-09
2.72642e-09
2.44639e-09
2.38215e-09
2.65567e-09
1.99832e-09
2.58996e-09
1.951e-09
2.0993e-09
2.02741e-09
3.60095e-09
2.06257e-09
3.55252e-09
2.00512e-09
2.00362e-09
1.99552e-09
1.95352e-09
2.7291e-09
2.56964e-09
2.71505e-09
2.81166e-09
2.63662e-09
2.55436e-09
2.38018e-09
2.3666e-09
2.57409e-09
1.93845e-09
2.53972e-09
1.9161e-09
2.02858e-09
1.97524e-09
3.55236e-09
1.98907e-09
3.57369e-09
1.95455e-09
1.94098e-09
2.00102e-09
1.91524e-09
2.56697e-09
2.4429e-09
2.61621e-09
2.75345e-09
2.56857e-09
2.42339e-09
2.37301e-09
2.38929e-09
2.5358e-09
1.9123e-09
2.52816e-09
1.91623e-09
1.97892e-09
1.94708e-09
3.60008e-09
1.94683e-09
3.70993e-09
1.93659e-09
1.91081e-09
2.0294e-09
1.91025e-09
2.44385e-09
2.35002e-09
2.55649e-09
2.73132e-09
2.53394e-09
2.33067e-09
2.40061e-09
2.41774e-09
2.52996e-09
1.92111e-09
2.54678e-09
1.94839e-09
1.95567e-09
1.94489e-09
3.74753e-09
1.93781e-09
3.84393e-09
1.95405e-09
1.91371e-09
2.08031e-09
1.93823e-09
2.35429e-09
2.29094e-09
2.53047e-09
2.74263e-09
2.5378e-09
2.2741e-09
2.43068e-09
2.46874e-09
2.56205e-09
1.96229e-09
2.63907e-09
2.01815e-09
1.95967e-09
1.97246e-09
3.8605e-09
1.96374e-09
3.85558e-09
2.00606e-09
1.95083e-09
2.16837e-09
2.00528e-09
2.30107e-09
2.27446e-09
2.54558e-09
2.81134e-09
2.58746e-09
2.25848e-09
2.49541e-09
2.58737e-09
2.66968e-09
2.04378e-09
2.78712e-09
2.13787e-09
1.99553e-09
2.03961e-09
3.84123e-09
2.02616e-09
3.82802e-09
2.11735e-09
2.02872e-09
2.29831e-09
2.1218e-09
2.29462e-09
2.31382e-09
2.60685e-09
2.94553e-09
2.68662e-09
2.29102e-09
2.63093e-09
2.76042e-09
2.83806e-09
2.17808e-09
3.03003e-09
2.33038e-09
2.07572e-09
2.16445e-09
3.8415e-09
2.15604e-09
3.96939e-09
2.30521e-09
2.15965e-09
2.49231e-09
2.30125e-09
2.34728e-09
2.42377e-09
2.72655e-09
3.15451e-09
2.86141e-09
2.38899e-09
2.81949e-09
2.96346e-09
3.10123e-09
2.39222e-09
3.35719e-09
2.62177e-09
2.2225e-09
2.3831e-09
4.04506e-09
2.36453e-09
4.26338e-09
2.59318e-09
2.36312e-09
2.78261e-09
2.58081e-09
2.48019e-09
2.63867e-09
2.92217e-09
3.47779e-09
3.13693e-09
2.58722e-09
3.04141e-09
3.23736e-09
3.46378e-09
2.71795e-09
3.8407e-09
3.06959e-09
2.47816e-09
2.75982e-09
4.33444e-09
2.68616e-09
4.4898e-09
3.03769e-09
2.67245e-09
3.22277e-09
3.02089e-09
2.73289e-09
3.02332e-09
3.22876e-09
3.98357e-09
3.54468e-09
2.9429e-09
3.3671e-09
3.71362e-09
3.99839e-09
3.21923e-09
4.59237e-09
3.76299e-09
2.91951e-09
3.42065e-09
4.54313e-09
3.18224e-09
4.75496e-09
3.70703e-09
3.16013e-09
3.88534e-09
3.6672e-09
3.17778e-09
3.69206e-09
3.6854e-09
4.77434e-09
4.21086e-09
3.57353e-09
3.94729e-09
4.76701e-09
4.85335e-09
3.98353e-09
5.72611e-09
4.79996e-09
3.67226e-09
4.55522e-09
4.82199e-09
3.92433e-09
5.37132e-09
4.73161e-09
3.88934e-09
4.90197e-09
4.6738e-09
3.94606e-09
4.85951e-09
4.42939e-09
5.9713e-09
5.20917e-09
4.68784e-09
5.19621e-09
6.79859e-09
6.10798e-09
5.13312e-09
7.55994e-09
6.35233e-09
4.98283e-09
6.49755e-09
5.68828e-09
5.05226e-09
6.39169e-09
6.23998e-09
4.98787e-09
6.39825e-09
6.19884e-09
5.28522e-09
6.82568e-09
5.56999e-09
7.61838e-09
6.78789e-09
6.55755e-09
7.40306e-09
1.025e-08
8.00833e-09
6.85758e-09
9.87612e-09
8.55225e-09
7.23458e-09
9.74819e-09
6.86086e-09
6.72012e-09
8.54698e-09
8.39523e-09
6.71436e-09
8.566e-09
8.1813e-09
7.55126e-09
1.01125e-08
7.24077e-09
9.84098e-09
9.05865e-09
1.00428e-08
1.14891e-08
1.54276e-08
1.05921e-08
9.29658e-09
1.28508e-08
1.19082e-08
1.08728e-08
1.61707e-08
9.12877e-09
9.11707e-09
1.19193e-08
1.16099e-08
8.9087e-09
1.18394e-08
1.16618e-08
1.12327e-08
1.59683e-08
9.88881e-09
1.28531e-08
1.26974e-08
1.56734e-08
1.73965e-08
2.54503e-08
1.38802e-08
1.2835e-08
1.70831e-08
1.66383e-08
1.76834e-08
2.6374e-08
1.29528e-08
1.25743e-08
1.61291e-08
1.61321e-08
1.26755e-08
1.64093e-08
1.72544e-08
1.77481e-08
2.60045e-08
1.39806e-08
1.70053e-08
1.78869e-08
3.18348e-08
2.75743e-08
3.90493e-08
1.81105e-08
1.79173e-08
2.24074e-08
2.275e-08
2.9281e-08
4.18725e-08
1.75692e-08
1.74744e-08
2.26171e-08
2.21497e-08
1.82829e-08
2.23956e-08
2.07708e-08
2.88564e-08
4.08432e-08
1.87107e-08
2.26384e-08
2.23313e-08
3.45513e-08
4.38858e-08
6.64254e-08
2.44434e-08
2.45786e-08
3.14067e-08
3.10808e-08
4.64063e-08
6.46327e-08
2.46585e-08
2.40309e-08
3.18444e-08
3.08862e-08
2.24849e-08
3.06835e-08
3.24328e-08
4.50522e-08
6.70682e-08
2.48957e-08
3.12385e-08
3.59754e-08
8.16831e-08
7.26995e-08
9.99121e-08
3.38972e-08
3.40404e-08
4.18277e-08
4.1797e-08
7.2146e-08
1.02393e-07
3.42334e-08
3.33478e-08
4.15335e-08
4.12442e-08
3.55412e-08
4.1244e-08
4.26675e-08
7.3564e-08
1.00231e-07
3.86771e-08
4.13636e-08
4.49784e-08
1.10696e-07
1.0764e-07
1.44045e-07
4.46932e-08
4.44073e-08
5.48898e-08
5.58555e-08
1.07708e-07
1.4749e-07
4.43233e-08
4.41974e-08
5.45011e-08
5.47646e-08
4.52095e-08
5.5248e-08
5.41729e-08
1.07922e-07
1.46018e-07
4.74613e-08
5.4824e-08
5.67461e-08
1.45256e-07
1.54948e-07
2.04649e-07
5.88561e-08
6.00081e-08
7.1508e-08
7.1863e-08
1.61663e-07
2.08073e-07
5.84104e-08
5.86603e-08
7.08491e-08
7.05929e-08
5.79574e-08
7.11129e-08
7.21254e-08
1.57321e-07
2.04556e-07
6.04642e-08
7.05164e-08
7.38731e-08
2.07598e-07
2.17235e-07
2.71155e-07
7.59023e-08
7.57993e-08
9.02485e-08
9.02091e-08
2.18782e-07
2.68996e-07
7.51987e-08
7.50257e-08
8.95448e-08
9.02455e-08
7.69667e-08
8.96221e-08
8.97132e-08
2.16418e-07
2.7281e-07
7.85888e-08
9.00301e-08
9.12726e-08
2.75039e-07
2.85561e-07
3.48373e-07
9.56619e-08
9.64598e-08
1.12926e-07
1.13557e-07
2.84091e-07
3.54743e-07
9.48989e-08
9.54898e-08
1.12167e-07
1.1191e-07
9.42799e-08
1.12596e-07
1.12783e-07
2.88459e-07
3.49185e-07
9.56574e-08
1.11704e-07
1.13332e-07
3.44767e-07
3.64239e-07
4.23863e-07
1.18735e-07
1.18176e-07
1.37438e-07
1.36396e-07
3.68981e-07
4.17452e-07
1.17996e-07
1.17984e-07
1.36645e-07
1.37081e-07
1.19534e-07
1.35315e-07
1.37479e-07
3.64034e-07
4.25335e-07
1.19891e-07
1.36869e-07
1.38048e-07
4.31084e-07
4.39468e-07
5.00549e-07
1.4444e-07
1.44845e-07
1.6684e-07
1.69556e-07
4.34651e-07
5.10784e-07
1.43636e-07
1.43591e-07
1.65885e-07
1.65528e-07
1.43911e-07
1.69156e-07
1.67041e-07
4.41433e-07
5.00259e-07
1.4454e-07
1.65296e-07
1.67368e-07
5.01492e-07
5.16785e-07
5.71604e-07
1.74407e-07
1.76049e-07
1.98258e-07
1.96467e-07
5.26211e-07
5.67993e-07
1.73404e-07
1.73748e-07
1.97438e-07
1.98485e-07
1.75177e-07
1.95204e-07
1.98416e-07
5.163e-07
5.73556e-07
1.75435e-07
1.97855e-07
1.98012e-07
5.7414e-07
5.86215e-07
6.3457e-07
2.06788e-07
2.05256e-07
2.3248e-07
2.33395e-07
5.81678e-07
6.3319e-07
2.06003e-07
2.06281e-07
2.31981e-07
2.30473e-07
2.06142e-07
2.31305e-07
2.31727e-07
5.8807e-07
6.32521e-07
2.05578e-07
2.30239e-07
2.32348e-07
6.34669e-07
6.48426e-07
6.90798e-07
2.41294e-07
2.42067e-07
2.69605e-07
2.70294e-07
6.48274e-07
6.93195e-07
2.40862e-07
2.39471e-07
2.68826e-07
2.69581e-07
2.41265e-07
2.68826e-07
2.70857e-07
6.4627e-07
6.92331e-07
2.42289e-07
2.6924e-07
2.70125e-07
6.93726e-07
7.03945e-07
7.43753e-07
2.79501e-07
2.81304e-07
3.10654e-07
3.12142e-07
7.05969e-07
7.43621e-07
2.78652e-07
2.7995e-07
3.09832e-07
3.10729e-07
2.80059e-07
3.09731e-07
3.09416e-07
7.06044e-07
7.45032e-07
2.78835e-07
3.0981e-07
3.10068e-07
7.44118e-07
7.55947e-07
7.89182e-07
3.21639e-07
3.2109e-07
3.52882e-07
3.53038e-07
7.55994e-07
7.90921e-07
3.20717e-07
3.21307e-07
3.5199e-07
3.51675e-07
3.20849e-07
3.52013e-07
3.54897e-07
7.56653e-07
7.87317e-07
3.21993e-07
3.51461e-07
3.55355e-07
7.91383e-07
8.00212e-07
8.30982e-07
3.63222e-07
3.66231e-07
3.98273e-07
4.02507e-07
8.02301e-07
8.3158e-07
3.62252e-07
3.61153e-07
3.97229e-07
3.95037e-07
3.65164e-07
3.99103e-07
3.98076e-07
7.98058e-07
8.3042e-07
3.65079e-07
3.94785e-07
3.96489e-07
8.30968e-07
8.41477e-07
8.68247e-07
4.10916e-07
4.11408e-07
4.43739e-07
4.39464e-07
8.40832e-07
8.66181e-07
4.09884e-07
4.0923e-07
4.43011e-07
4.49069e-07
4.10217e-07
4.38924e-07
4.43543e-07
8.41724e-07
8.70797e-07
4.08273e-07
4.47023e-07
4.43242e-07
8.69427e-07
8.77494e-07
9.03236e-07
4.53912e-07
4.527e-07
4.92428e-07
5.027e-07
8.77149e-07
9.1048e-07
4.5342e-07
4.58718e-07
4.91652e-07
4.87302e-07
4.54576e-07
4.98222e-07
4.94299e-07
8.79499e-07
9.01092e-07
4.55429e-07
4.8759e-07
4.9497e-07
9.04969e-07
9.13105e-07
9.39267e-07
5.0611e-07
5.1755e-07
5.41666e-07
5.46377e-07
9.19957e-07
9.36823e-07
5.04931e-07
4.99865e-07
5.39516e-07
5.42401e-07
5.07247e-07
5.40199e-07
5.39335e-07
9.10522e-07
9.38198e-07
5.06617e-07
5.41673e-07
5.36935e-07
9.36811e-07
9.47506e-07
9.68041e-07
5.53806e-07
5.53397e-07
5.89994e-07
5.82452e-07
9.43685e-07
9.65612e-07
5.51468e-07
5.54471e-07
5.90455e-07
5.86165e-07
5.50435e-07
5.83199e-07
5.91374e-07
9.46791e-07
9.6644e-07
5.48965e-07
5.8478e-07
5.92329e-07
9.69757e-07
9.75989e-07
9.96792e-07
6.00238e-07
5.96217e-07
6.33759e-07
6.43369e-07
9.7534e-07
1.00284e-06
6.01518e-07
5.9827e-07
6.32918e-07
6.4008e-07
6.05065e-07
6.44627e-07
6.37077e-07
9.74736e-07
9.9947e-07
6.05448e-07
6.39471e-07
6.35497e-07
9.96977e-07
1.00487e-06
1.02804e-06
6.47721e-07
6.55858e-07
6.86475e-07
6.83056e-07
1.00982e-06
1.02447e-06
6.45752e-07
6.52612e-07
6.85744e-07
6.80301e-07
6.47337e-07
6.78945e-07
6.8401e-07
1.00742e-06
1.0242e-06
6.45885e-07
6.80427e-07
6.81691e-07
1.02714e-06
1.03546e-06
1.05557e-06
6.9601e-07
6.93585e-07
7.27646e-07
7.3622e-07
1.03211e-06
1.06368e-06
6.9597e-07
6.8949e-07
7.27273e-07
7.28452e-07
6.97318e-07
7.37756e-07
7.40279e-07
1.0309e-06
1.05489e-06
6.94347e-07
7.26521e-07
7.36657e-07
1.06389e-06
1.06412e-06
1.09036e-06
7.41776e-07
7.522e-07
7.85075e-07
7.83932e-07
1.07337e-06
1.088e-06
7.41056e-07
7.44412e-07
7.84031e-07
7.82871e-07
7.54337e-07
7.82051e-07
7.85077e-07
1.06431e-06
1.08882e-06
7.50907e-07
7.82474e-07
7.8265e-07
1.08958e-06
1.09654e-06
1.10545e-06
7.95091e-07
7.89427e-07
8.13457e-07
8.0727e-07
1.09087e-06
1.09824e-06
7.94123e-07
7.90702e-07
8.13016e-07
8.09776e-07
7.90894e-07
8.02832e-07
8.05219e-07
1.09427e-06
1.10387e-06
7.8929e-07
8.09379e-07
8.07769e-07
1.09921e-06
1.11034e-06
1.13303e-06
8.19746e-07
8.16562e-07
8.5109e-07
8.54446e-07
1.10494e-06
1.13798e-06
8.19336e-07
8.17172e-07
8.50244e-07
8.50953e-07
8.12548e-07
8.5237e-07
8.48973e-07
1.10926e-06
1.13164e-06
8.15649e-07
8.49831e-07
8.50097e-07
1.13172e-06
1.14244e-06
1.17181e-06
8.64988e-07
8.701e-07
9.06181e-07
9.14793e-07
1.14929e-06
1.18604e-06
8.6421e-07
8.65348e-07
9.0514e-07
9.02561e-07
8.656e-07
9.21844e-07
9.13077e-07
1.14043e-06
1.16922e-06
8.65456e-07
9.01279e-07
9.08278e-07
1.17634e-06
1.17787e-06
1.18677e-06
9.14781e-07
9.23755e-07
9.30485e-07
9.33586e-07
1.19266e-06
1.19338e-06
9.13705e-07
9.10787e-07
9.29514e-07
9.32081e-07
9.23177e-07
9.44731e-07
9.37547e-07
1.176e-06
1.18888e-06
9.18125e-07
9.33119e-07
9.34386e-07
1.19076e-06
1.19062e-06
1.20437e-06
9.35629e-07
9.33531e-07
9.57325e-07
9.34206e-07
1.19411e-06
1.1778e-06
9.34788e-07
9.4011e-07
9.58134e-07
9.62237e-07
9.39333e-07
9.37956e-07
9.43905e-07
1.19357e-06
1.20811e-06
9.3796e-07
9.59959e-07
9.52401e-07
1.19518e-06
1.21143e-06
1.23655e-06
9.66052e-07
9.39934e-07
9.94282e-07
9.86755e-07
1.18044e-06
1.22396e-06
9.67643e-07
9.67792e-07
9.96975e-07
9.88127e-07
9.4744e-07
9.8945e-07
9.76217e-07
1.21347e-06
1.2282e-06
9.59385e-07
9.87283e-07
9.88768e-07
1.22192e-06
1.24314e-06
1.25793e-06
1.00233e-06
1.00363e-06
1.02492e-06
1.04002e-06
1.2402e-06
1.28595e-06
1.00504e-06
9.97688e-07
1.02502e-06
1.02969e-06
9.92099e-07
1.05353e-06
1.04431e-06
1.23465e-06
1.2606e-06
1.00149e-06
1.03182e-06
1.03402e-06
1.27239e-06
1.26248e-06
1.27124e-06
1.03327e-06
1.04379e-06
1.05466e-06
1.04489e-06
1.29023e-06
1.27569e-06
1.03011e-06
1.03811e-06
1.04166e-06
1.05474e-06
1.05481e-06
1.04333e-06
1.0594e-06
1.26757e-06
1.27974e-06
1.0391e-06
1.0539e-06
1.04153e-06
1.27608e-06
1.27473e-06
1.28424e-06
1.05873e-06
1.04342e-06
1.0646e-06
1.04234e-06
1.27508e-06
1.24962e-06
1.04597e-06
1.0584e-06
1.0626e-06
1.06447e-06
1.05651e-06
1.03243e-06
1.05349e-06
1.28283e-06
1.28622e-06
1.04119e-06
1.06077e-06
1.05038e-06
1.27343e-06
1.28905e-06
1.30005e-06
1.066e-06
1.04528e-06
1.07674e-06
1.08083e-06
1.25177e-06
1.29273e-06
1.06829e-06
1.06613e-06
1.08441e-06
1.08151e-06
1.05451e-06
1.07949e-06
1.077e-06
1.28893e-06
1.29899e-06
1.05954e-06
1.08235e-06
1.09333e-06
1.30625e-06
1.30522e-06
1.33299e-06
1.08401e-06
1.09482e-06
1.11568e-06
1.13184e-06
1.30877e-06
1.36435e-06
1.09207e-06
1.09097e-06
1.12268e-06
1.12453e-06
1.08734e-06
1.14225e-06
1.12251e-06
1.3061e-06
1.33798e-06
1.10501e-06
1.12798e-06
1.12743e-06
1.34088e-06
1.3421e-06
1.35879e-06
1.12749e-06
1.13716e-06
1.14807e-06
1.13744e-06
1.37081e-06
1.36002e-06
1.13194e-06
1.13292e-06
1.14388e-06
1.14129e-06
1.13281e-06
1.14814e-06
1.14669e-06
1.34484e-06
1.34955e-06
1.13077e-06
1.14026e-06
1.13372e-06
1.35026e-06
1.36089e-06
1.35483e-06
1.1496e-06
1.13506e-06
1.14964e-06
1.13332e-06
1.35942e-06
1.33545e-06
1.14395e-06
1.14135e-06
1.14219e-06
1.14397e-06
1.14753e-06
1.13693e-06
1.14731e-06
1.35077e-06
1.35086e-06
1.13373e-06
1.14305e-06
1.13633e-06
1.34821e-06
1.3563e-06
1.36393e-06
1.14993e-06
1.13595e-06
1.16003e-06
1.16228e-06
1.33716e-06
1.36125e-06
1.14273e-06
1.14824e-06
1.15869e-06
1.16559e-06
1.14741e-06
1.15663e-06
1.15816e-06
1.35471e-06
1.37024e-06
1.14035e-06
1.16258e-06
1.16099e-06
1.36398e-06
1.36983e-06
1.39285e-06
1.16607e-06
1.17184e-06
1.18826e-06
1.19538e-06
1.37144e-06
1.40278e-06
1.16664e-06
1.1727e-06
1.19248e-06
1.19176e-06
1.16541e-06
1.19311e-06
1.18999e-06
1.37672e-06
1.39438e-06
1.17002e-06
1.19192e-06
1.19461e-06
1.39667e-06
1.39896e-06
1.4069e-06
1.19567e-06
1.19877e-06
1.20715e-06
1.2009e-06
1.40774e-06
1.40682e-06
1.19868e-06
1.19575e-06
1.20641e-06
1.20184e-06
1.19733e-06
1.20526e-06
1.20923e-06
1.39875e-06
1.40169e-06
1.19968e-06
1.2055e-06
1.20809e-06
1.41032e-06
1.40906e-06
1.4121e-06
1.20853e-06
1.20126e-06
1.21367e-06
1.21051e-06
1.40816e-06
1.41132e-06
1.20732e-06
1.20344e-06
1.21285e-06
1.21368e-06
1.21143e-06
1.21622e-06
1.21764e-06
1.4037e-06
1.41055e-06
1.21006e-06
1.21486e-06
1.2166e-06
1.41588e-06
1.41575e-06
1.42729e-06
1.21677e-06
1.21565e-06
1.22919e-06
1.23074e-06
1.41584e-06
1.42956e-06
1.21625e-06
1.21878e-06
1.22959e-06
1.23505e-06
1.21985e-06
1.23215e-06
1.22644e-06
1.41574e-06
1.43206e-06
1.2189e-06
1.23143e-06
1.22509e-06
1.42217e-06
1.43183e-06
1.43781e-06
1.23364e-06
1.23472e-06
1.24238e-06
1.23904e-06
1.43356e-06
1.43305e-06
1.23425e-06
1.23875e-06
1.24231e-06
1.24227e-06
1.22844e-06
1.23661e-06
1.23701e-06
1.43629e-06
1.43716e-06
1.22702e-06
1.23857e-06
1.23715e-06
1.43157e-06
1.44047e-06
1.44717e-06
1.24421e-06
1.23981e-06
1.25227e-06
1.251e-06
1.43477e-06
1.44552e-06
1.24381e-06
1.24262e-06
1.25081e-06
1.24797e-06
1.24162e-06
1.25131e-06
1.2567e-06
1.43869e-06
1.4431e-06
1.2422e-06
1.2499e-06
1.25717e-06
1.45333e-06
1.45124e-06
1.45744e-06
1.25554e-06
1.25592e-06
1.26187e-06
1.26631e-06
1.45159e-06
1.46488e-06
1.25407e-06
1.25152e-06
1.2627e-06
1.26344e-06
1.26028e-06
1.26861e-06
1.2638e-06
1.44724e-06
1.45914e-06
1.26006e-06
1.26617e-06
1.26262e-06
1.45802e-06
1.459e-06
1.45365e-06
1.26198e-06
1.26684e-06
1.26064e-06
1.2634e-06
1.46642e-06
1.45405e-06
1.26414e-06
1.26683e-06
1.26504e-06
1.27043e-06
1.26356e-06
1.26328e-06
1.26379e-06
1.46278e-06
1.46255e-06
1.26289e-06
1.26809e-06
1.26565e-06
1.45722e-06
1.45625e-06
1.47401e-06
1.26173e-06
1.26324e-06
1.2808e-06
1.2743e-06
1.45515e-06
1.46604e-06
1.26583e-06
1.27041e-06
1.27929e-06
1.27503e-06
1.26603e-06
1.27343e-06
1.2765e-06
1.46392e-06
1.46852e-06
1.26715e-06
1.27286e-06
1.27459e-06
1.46893e-06
1.48153e-06
1.49864e-06
1.28771e-06
1.28074e-06
1.30105e-06
1.2978e-06
1.47314e-06
1.49451e-06
1.28484e-06
1.27994e-06
1.29711e-06
1.29366e-06
1.28059e-06
1.29581e-06
1.29192e-06
1.47349e-06
1.48947e-06
1.27846e-06
1.29334e-06
1.29188e-06
1.48751e-06
1.50072e-06
1.49041e-06
1.30137e-06
1.30049e-06
1.29567e-06
1.29935e-06
1.49862e-06
1.4947e-06
1.29794e-06
1.29661e-06
1.29446e-06
1.29722e-06
1.29479e-06
1.29949e-06
1.30011e-06
1.49385e-06
1.49327e-06
1.29546e-06
1.29935e-06
1.30042e-06
1.49686e-06
1.49124e-06
1.48475e-06
1.2941e-06
1.29666e-06
1.29121e-06
1.29142e-06
1.49551e-06
1.48481e-06
1.29351e-06
1.29605e-06
1.2938e-06
1.29584e-06
1.30065e-06
1.29312e-06
1.29972e-06
1.49448e-06
1.49233e-06
1.30059e-06
1.29725e-06
1.29966e-06
1.49512e-06
1.48621e-06
1.48615e-06
1.29073e-06
1.29099e-06
1.29101e-06
1.29854e-06
1.48604e-06
1.49429e-06
1.29472e-06
1.29729e-06
1.29621e-06
1.30216e-06
1.29927e-06
1.30119e-06
1.30095e-06
1.49454e-06
1.49718e-06
1.29961e-06
1.30235e-06
1.30293e-06
1.49728e-06
1.48878e-06
1.50046e-06
1.29315e-06
1.30339e-06
1.30771e-06
1.31473e-06
1.50009e-06
1.51473e-06
1.29714e-06
1.30347e-06
1.30461e-06
1.30564e-06
1.30326e-06
1.31435e-06
1.30748e-06
1.49974e-06
1.50174e-06
1.30446e-06
1.3064e-06
1.30662e-06
1.50374e-06
1.50687e-06
1.52514e-06
1.31345e-06
1.31583e-06
1.32475e-06
1.31039e-06
1.5171e-06
1.50509e-06
1.30859e-06
1.3057e-06
1.32031e-06
1.30854e-06
1.30768e-06
1.3061e-06
1.30644e-06
1.50345e-06
1.50515e-06
1.30629e-06
1.30653e-06
1.30466e-06
1.50017e-06
1.5296e-06
1.53365e-06
1.32592e-06
1.30848e-06
1.32629e-06
1.30958e-06
1.50571e-06
1.50487e-06
1.32303e-06
1.31235e-06
1.32735e-06
1.32569e-06
1.30718e-06
1.30921e-06
1.32007e-06
1.50913e-06
1.52563e-06
1.30621e-06
1.32383e-06
1.32134e-06
1.52049e-06
1.53516e-06
1.52048e-06
1.32588e-06
1.31438e-06
1.31997e-06
1.32621e-06
1.50997e-06
1.52721e-06
1.32762e-06
1.32881e-06
1.32143e-06
1.32826e-06
1.32404e-06
1.32791e-06
1.32713e-06
1.53093e-06
1.52874e-06
1.32548e-06
1.32867e-06
1.32722e-06
1.52891e-06
1.51978e-06
1.48788e-06
1.31583e-06
1.32773e-06
1.30066e-06
1.32009e-06
1.53143e-06
1.5231e-06
1.31602e-06
1.32228e-06
1.29849e-06
1.3036e-06
1.32334e-06
1.32168e-06
1.30748e-06
1.52859e-06
1.49853e-06
1.32196e-06
1.30592e-06
1.30555e-06
1.49867e-06
1.48791e-06
1.49037e-06
1.29721e-06
1.31468e-06
1.29771e-06
1.30427e-06
1.52326e-06
1.50478e-06
1.29469e-06
1.29943e-06
1.2967e-06
1.30097e-06
1.30394e-06
1.30505e-06
1.30437e-06
1.49849e-06
1.49904e-06
1.30223e-06
1.30261e-06
1.30499e-06
1.50195e-06
1.49859e-06
1.54043e-06
1.30471e-06
1.30381e-06
1.3311e-06
1.31701e-06
1.50589e-06
1.51672e-06
1.3055e-06
1.30953e-06
1.33453e-06
1.33571e-06
1.3114e-06
1.31619e-06
1.33577e-06
1.50673e-06
1.54262e-06
1.31342e-06
1.33385e-06
1.33878e-06
1.54997e-06
1.5505e-06
1.56537e-06
1.33949e-06
1.32402e-06
1.35016e-06
1.3408e-06
1.52374e-06
1.5456e-06
1.343e-06
1.34261e-06
1.35132e-06
1.34678e-06
1.34267e-06
1.34019e-06
1.34783e-06
1.55075e-06
1.55446e-06
1.34532e-06
1.34523e-06
1.34792e-06
1.56059e-06
1.56639e-06
1.53587e-06
1.3495e-06
1.34254e-06
1.33007e-06
1.33508e-06
1.5496e-06
1.54114e-06
1.34929e-06
1.34211e-06
1.32629e-06
1.32114e-06
1.34319e-06
1.33287e-06
1.31669e-06
1.55463e-06
1.52361e-06
1.34113e-06
1.31998e-06
1.31384e-06
1.51291e-06
1.5341e-06
1.5028e-06
1.3223e-06
1.32874e-06
1.30281e-06
1.3095e-06
1.54123e-06
1.51505e-06
1.31836e-06
1.31481e-06
1.30133e-06
1.30444e-06
1.30851e-06
1.30742e-06
1.29548e-06
1.52295e-06
1.50687e-06
1.30579e-06
1.30358e-06
1.29524e-06
1.48963e-06
1.50328e-06
1.50157e-06
1.29962e-06
1.30432e-06
1.29822e-06
1.29814e-06
1.51505e-06
1.50252e-06
1.29947e-06
1.30407e-06
1.30113e-06
1.30728e-06
1.29547e-06
1.29915e-06
1.30862e-06
1.50848e-06
1.51291e-06
1.29595e-06
1.30843e-06
1.3112e-06
1.51463e-06
1.50499e-06
1.51591e-06
1.30008e-06
1.29847e-06
1.30853e-06
1.30806e-06
1.50439e-06
1.51357e-06
1.30306e-06
1.30855e-06
1.30975e-06
1.31229e-06
1.31412e-06
1.31134e-06
1.32566e-06
1.51602e-06
1.52044e-06
1.31654e-06
1.31502e-06
1.3259e-06
1.54128e-06
1.52103e-06
1.53885e-06
1.31279e-06
1.31209e-06
1.3265e-06
1.32281e-06
1.51892e-06
1.53349e-06
1.31298e-06
1.31404e-06
1.32444e-06
1.32027e-06
1.32637e-06
1.32095e-06
1.31963e-06
1.52357e-06
1.53259e-06
1.32609e-06
1.31938e-06
1.3187e-06
1.53452e-06
1.54468e-06
1.5506e-06
1.32984e-06
1.32474e-06
1.33144e-06
1.32547e-06
1.53744e-06
1.54031e-06
1.32751e-06
1.32163e-06
1.32911e-06
1.32061e-06
1.3159e-06
1.31918e-06
1.30619e-06
1.53636e-06
1.53505e-06
1.31526e-06
1.31596e-06
1.30554e-06
1.51628e-06
1.55134e-06
1.51641e-06
1.32776e-06
1.32398e-06
1.30047e-06
1.31022e-06
1.54186e-06
1.53051e-06
1.32582e-06
1.31698e-06
1.30067e-06
1.30314e-06
1.30446e-06
1.31171e-06
1.30291e-06
1.53588e-06
1.51752e-06
1.30358e-06
1.30265e-06
1.30138e-06
1.51377e-06
1.51388e-06
1.47671e-06
1.29091e-06
1.30379e-06
1.27107e-06
1.28315e-06
1.53062e-06
1.50029e-06
1.29191e-06
1.29869e-06
1.27372e-06
1.28976e-06
1.30281e-06
1.29056e-06
1.29971e-06
1.51776e-06
1.50587e-06
1.30131e-06
1.29437e-06
1.3003e-06
1.51762e-06
1.47755e-06
1.50034e-06
1.27022e-06
1.27901e-06
1.28917e-06
1.27849e-06
1.50003e-06
1.48975e-06
1.27287e-06
1.28908e-06
1.28874e-06
1.2916e-06
1.29723e-06
1.27929e-06
1.29083e-06
1.50736e-06
1.51035e-06
1.29877e-06
1.29296e-06
1.293e-06
1.51243e-06
1.51173e-06
1.55031e-06
1.29945e-06
1.28478e-06
1.32112e-06
1.30338e-06
1.49432e-06
1.51805e-06
1.29762e-06
1.29375e-06
1.31618e-06
1.29734e-06
1.29013e-06
1.29482e-06
1.29166e-06
1.51352e-06
1.51588e-06
1.29219e-06
1.29344e-06
1.29184e-06
1.51245e-06
1.55482e-06
1.52439e-06
1.32227e-06
1.30723e-06
1.29713e-06
1.30178e-06
1.52494e-06
1.52609e-06
1.31712e-06
1.29724e-06
1.2949e-06
1.28694e-06
1.29286e-06
1.29973e-06
1.29231e-06
1.51724e-06
1.50588e-06
1.29225e-06
1.28599e-06
1.29015e-06
1.51014e-06
1.52109e-06
1.46447e-06
1.28453e-06
1.29338e-06
1.24995e-06
1.26631e-06
1.52622e-06
1.49308e-06
1.28401e-06
1.28306e-06
1.2544e-06
1.2696e-06
1.2899e-06
1.27342e-06
1.27515e-06
1.50647e-06
1.49215e-06
1.28783e-06
1.27226e-06
1.2742e-06
1.49667e-06
1.464e-06
1.46228e-06
1.24446e-06
1.25974e-06
1.24354e-06
1.24883e-06
1.49234e-06
1.47187e-06
1.25011e-06
1.26779e-06
1.25015e-06
1.26426e-06
1.2715e-06
1.25414e-06
1.25881e-06
1.49326e-06
1.49062e-06
1.27114e-06
1.26486e-06
1.26019e-06
1.48401e-06
1.46811e-06
1.47397e-06
1.24849e-06
1.24848e-06
1.24581e-06
1.23627e-06
1.47295e-06
1.45767e-06
1.2548e-06
1.2644e-06
1.2456e-06
1.24309e-06
1.258e-06
1.23458e-06
1.23721e-06
1.49236e-06
1.4704e-06
1.25955e-06
1.24148e-06
1.23867e-06
1.46477e-06
1.45865e-06
1.2143e-06
1.20441e-06
1.44168e-06
1.21244e-06
1.20605e-06
7.60118e-07
7.61194e-07
7.58553e-07
1.20242e-06
1.44979e-06
1.2032e-06
2.0861e-11
2.41517e-09
1.47033e-10
1.96452e-10
5.42751e-09
2.46817e-09
1.06567e-08
1.05697e-09
5.37756e-09
4.3071e-09
1.17706e-09
7.24058e-09
5.49951e-09
1.4695e-08
2.44554e-09
7.52548e-09
1.62687e-07
6.0187e-09
2.58427e-07
2.60276e-06
4.97669e-06
8.7887e-09
1.77485e-07
7.78431e-09
2.79712e-07
1.13229e-09
1.37012e-09
1.46412e-09
1.54243e-09
1.12263e-09
1.34897e-09
1.42363e-09
4.75778e-09
1.01958e-07
2.81961e-09
2.72199e-09
4.99035e-09
7.79117e-08
2.79339e-09
1.47485e-06
2.98369e-06
4.65377e-09
3.41963e-09
8.33599e-08
4.71729e-09
4.91465e-09
3.38363e-09
6.14309e-08
2.252e-07
2.10801e-07
5.12901e-09
1.94022e-07
1.79265e-07
1.69033e-08
4.6426e-07
1.21769e-08
6.63157e-07
1.05657e-05
1.33035e-05
1.80489e-08
5.11589e-07
1.3424e-08
7.13048e-07
1.1108e-09
1.33109e-09
1.39307e-09
1.48109e-09
1.0748e-09