/*--------------------------------*- C++ -*----------------------------------*\
| =========                 |                                                 |
| \\      /  F ield         | OpenFOAM: The Open Source CFD Toolbox           |
|  \\    /   O peration     | Version:  v2012                                 |
|   \\  /    A nd           | Website:  www.openfoam.com                      |
|    \\/     M anipulation  |                                                 |
\*---------------------------------------------------------------------------*/
FoamFile
{
    version     2.0;
    format      ascii;
    class       volScalarField;
    location    "1100";
    object      k;
}
// * * * * * * * * * * * * * * * * * * * * * * * * * * * * * * * * * * * * * //

dimensions      [0 2 -2 0 0 0 0];


internalField   nonuniform List<scalar> 
171728
(
1.7114e-07
2.7542e-07
7.39261e-07
3.4352e-07
1.69903e-07
2.64372e-07
8.06314e-07
3.29572e-07
1.66045e-07
2.53328e-07
8.69125e-07
3.18056e-07
1.62593e-07
2.43955e-07
8.63748e-07
3.09795e-07
1.59547e-07
2.34769e-07
5.97439e-07
3.06505e-07
1.5651e-07
2.27144e-07
3.56379e-07
3.08529e-07
1.53228e-07
2.21329e-07
2.61395e-07
3.15512e-07
1.50767e-07
2.16939e-07
2.24192e-07
3.17799e-07
1.49959e-07
2.12897e-07
2.01033e-07
2.91854e-07
1.4804e-07
2.08295e-07
1.87926e-07
2.57366e-07
1.44902e-07
2.0359e-07
1.80458e-07
2.53545e-07
1.41177e-07
1.99163e-07
1.74974e-07
2.72731e-07
1.3856e-07
1.95245e-07
1.71779e-07
2.86495e-07
1.34725e-07
1.9111e-07
1.70714e-07
2.67212e-07
1.27963e-07
1.8961e-07
1.70867e-07
2.13162e-07
1.23447e-07
1.9197e-07
1.73774e-07
1.95291e-07
1.21606e-07
2.00408e-07
1.81968e-07
1.96124e-07
1.20822e-07
2.14283e-07
1.94683e-07
2.11003e-07
1.16957e-07
2.43848e-07
2.26208e-07
2.44037e-07
1.10518e-07
2.90426e-07
2.71986e-07
3.16857e-07
1.05983e-07
3.82989e-07
3.40944e-07
4.61235e-07
1.03721e-07
4.73565e-07
4.57883e-07
6.53401e-07
1.02686e-07
6.58248e-07
6.2717e-07
9.95032e-07
1.02838e-07
9.56943e-07
8.55838e-07
1.79121e-06
1.04505e-07
1.18307e-06
1.20708e-06
2.02321e-06
1.08643e-07
1.61055e-06
1.65462e-06
4.96894e-06
1.1341e-07
2.34033e-06
1.96289e-06
4.88589e-06
1.26414e-07
2.70435e-06
2.8833e-06
7.4125e-06
1.4255e-07
3.51609e-06
3.4623e-06
1.0298e-05
1.64015e-07
4.43296e-06
4.29268e-06
1.20312e-05
1.97143e-07
5.43664e-06
5.42972e-06
1.50705e-05
2.52884e-07
6.43729e-06
6.48293e-06
1.73274e-05
3.11707e-07
7.88142e-06
7.70725e-06
1.97224e-05
4.0761e-07
8.91291e-06
9.09001e-06
2.13642e-05
5.38192e-07
1.06507e-05
1.06912e-05
2.34791e-05
6.56749e-07
1.24574e-05
1.19605e-05
2.51193e-05
9.41854e-07
1.31806e-05
1.3802e-05
2.64668e-05
1.18875e-06
1.55355e-05
1.55537e-05
2.77591e-05
1.47656e-06
1.74321e-05
1.69743e-05
2.97339e-05
1.90064e-06
1.94867e-05
1.94631e-05
3.07163e-05
2.26669e-06
2.01479e-05
2.10362e-05
3.075e-05
2.50789e-06
2.31216e-05
2.14835e-05
3.31615e-05
3.92215e-06
2.54887e-05
2.56131e-05
3.51592e-05
4.29399e-06
2.55232e-05
2.65856e-05
3.44818e-05
4.28836e-06
2.77243e-05
2.66665e-05
3.56985e-05
6.52252e-06
3.07658e-05
3.03644e-05
3.79307e-05
7.91757e-06
3.07984e-05
3.16802e-05
3.78397e-05
7.75781e-06
3.18606e-05
3.16797e-05
3.87818e-05
8.55015e-06
3.53374e-05
3.47755e-05
4.14719e-05
1.10749e-05
3.56895e-05
3.56527e-05
4.18234e-05
1.23336e-05
3.62034e-05
3.6922e-05
4.15406e-05
1.31656e-05
3.77035e-05
3.76743e-05
4.28225e-05
1.46168e-05
3.91827e-05
3.93933e-05
4.42777e-05
1.752e-05
4.09008e-05
4.08584e-05
4.49251e-05
1.85011e-05
4.15574e-05
4.15088e-05
4.6235e-05
1.92337e-05
4.24861e-05
4.16193e-05
4.59319e-05
2.10018e-05
4.25822e-05
4.43229e-05
4.60621e-05
2.30471e-05
4.46858e-05
4.51903e-05
4.89413e-05
2.53892e-05
4.60763e-05
4.43093e-05
4.95752e-05
2.55031e-05
4.59329e-05
4.4583e-05
4.81025e-05
2.5949e-05
4.64154e-05
4.80675e-05
4.90451e-05
2.92882e-05
4.81743e-05
4.93755e-05
5.26653e-05
3.09527e-05
4.92723e-05
4.8249e-05
5.17286e-05
3.07256e-05
4.83181e-05
4.71402e-05
4.85902e-05
3.04524e-05
4.83276e-05
4.99939e-05
5.24042e-05
3.35363e-05
5.21707e-05
5.29863e-05
5.61323e-05
3.63963e-05
5.21238e-05
5.20138e-05
5.3005e-05
3.63238e-05
5.13052e-05
5.02409e-05
5.18195e-05
3.58884e-05
5.21651e-05
5.14254e-05
5.39342e-05
3.66943e-05
5.27746e-05
5.34348e-05
5.42789e-05
3.78513e-05
5.26968e-05
5.32854e-05
5.40388e-05
3.91601e-05
5.38922e-05
5.33758e-05
5.65153e-05
4.12226e-05
5.56064e-05
5.55533e-05
5.80025e-05
4.18619e-05
5.48236e-05
5.5573e-05
5.5781e-05
4.12951e-05
5.34571e-05
5.36313e-05
5.37536e-05
4.12239e-05
5.48511e-05
5.38014e-05
5.59463e-05
4.27044e-05
5.67596e-05
5.62156e-05
5.80528e-05
4.4169e-05
5.60559e-05
5.64785e-05
5.70661e-05
4.46078e-05
5.55204e-05
5.63738e-05
5.69589e-05
4.47239e-05
5.65974e-05
5.67878e-05
5.84511e-05
4.45501e-05
5.67652e-05
5.65713e-05
5.75529e-05
4.45721e-05
5.62997e-05
5.55689e-05
5.60787e-05
4.59841e-05
5.69838e-05
5.62461e-05
5.79146e-05
4.67457e-05
5.75913e-05
5.8537e-05
5.98127e-05
4.62645e-05
5.68958e-05
5.84879e-05
5.84191e-05
4.60408e-05
5.66699e-05
5.61726e-05
5.69364e-05
4.69465e-05
5.72438e-05
5.54786e-05
5.72742e-05
4.70451e-05
5.72632e-05
5.68152e-05
5.82115e-05
4.60765e-05
5.697e-05
5.82634e-05
5.8852e-05
4.61507e-05
5.72604e-05
5.84993e-05
5.91078e-05
4.73926e-05
5.72232e-05
5.66172e-05
5.75749e-05
4.72704e-05
5.62869e-05
5.55105e-05
5.66772e-05
4.69085e-05
5.64518e-05
5.67889e-05
5.8065e-05
4.69688e-05
5.7579e-05
5.77732e-05
5.91636e-05
4.60325e-05
5.57728e-05
5.53552e-05
5.75094e-05
3.65377e-07
3.08448e-07
3.23509e-07
3.52901e-07
3.19267e-07
3.2653e-07
1.692e-07
1.62541e-07
1.84408e-07
1.88153e-07
2.96938e-07
3.12355e-07
3.56829e-07
4.53776e-07
3.3237e-07
3.46416e-07
3.64278e-07
3.46037e-07
2.51477e-07
3.15502e-07
2.43119e-07
3.06207e-07
3.51842e-07
3.32774e-07
3.72324e-07
3.37466e-07
3.65053e-07
3.28906e-07
3.31453e-07
2.67388e-07
3.14845e-07
3.54074e-07
3.52782e-07
5.46303e-07
7.88155e-07
4.85483e-07
3.32037e-07
3.44649e-07
3.27051e-07
2.40052e-07
3.02286e-07
2.31473e-07
2.90282e-07
3.31466e-07
3.12856e-07
3.60899e-07
3.25745e-07
3.48325e-07
3.17255e-07
3.1028e-07
2.55917e-07
2.9842e-07
3.51426e-07
3.61937e-07
4.67393e-07
8.58033e-07
4.44703e-07
3.20499e-07
3.25721e-07
3.09286e-07
2.28587e-07
2.86389e-07
2.20204e-07
2.75285e-07
3.11634e-07
2.95213e-07
3.44579e-07
3.1481e-07
3.35683e-07
3.07616e-07
2.94621e-07
2.46297e-07
2.83109e-07
3.60361e-07
3.65623e-07
4.43596e-07
8.75603e-07
4.46898e-07
3.11446e-07
3.08144e-07
2.93933e-07
2.17552e-07
2.71415e-07
2.09697e-07
2.60448e-07
2.94117e-07
2.79545e-07
3.33546e-07
3.0483e-07
3.27817e-07
2.95769e-07
2.79983e-07
2.37005e-07
2.72775e-07
3.61797e-07
3.27043e-07
4.5303e-07
6.74012e-07
4.71673e-07
3.075e-07
2.92952e-07
2.80386e-07
2.07161e-07
2.57148e-07
1.99538e-07
2.48487e-07
2.78592e-07
2.66034e-07
3.25591e-07
2.92696e-07
3.17081e-07
2.83926e-07
2.7073e-07
2.28871e-07
2.66246e-07
3.15773e-07
2.90062e-07
4.79845e-07
4.00642e-07
5.0861e-07
3.09019e-07
2.79481e-07
2.67144e-07
1.97082e-07
2.46074e-07
1.90311e-07
2.40433e-07
2.65268e-07
2.54631e-07
3.14109e-07
2.81516e-07
3.03564e-07
2.7492e-07
2.65482e-07
2.22639e-07
2.64846e-07
2.87067e-07
2.71691e-07
5.19954e-07
2.76504e-07
5.66423e-07
3.16151e-07
2.66213e-07
2.54515e-07
1.8827e-07
2.38741e-07
1.82888e-07
2.33998e-07
2.54016e-07
2.44855e-07
2.99379e-07
2.72712e-07
2.88231e-07
2.67346e-07
2.64855e-07
2.17928e-07
2.65638e-07
2.7033e-07
2.5675e-07
5.82201e-07
2.31605e-07
6.06175e-07
3.19692e-07
2.53812e-07
2.46902e-07
1.81478e-07
2.32594e-07
1.78323e-07
2.28502e-07
2.44337e-07
2.36094e-07
2.86019e-07
2.65906e-07
2.84126e-07
2.60526e-07
2.67134e-07
2.13914e-07
2.80342e-07
2.5579e-07
2.43079e-07
6.0638e-07
2.05762e-07
5.38513e-07
3.04152e-07
2.46749e-07
2.44107e-07
1.77518e-07
2.27175e-07
1.75978e-07
2.22481e-07
2.35594e-07
2.27554e-07
2.84188e-07
2.58056e-07
2.8934e-07
2.50912e-07
2.86489e-07
2.09505e-07
3.09623e-07
2.42278e-07
2.31106e-07
4.79602e-07
1.90492e-07
3.25562e-07
2.59664e-07
2.44428e-07
2.44679e-07
1.75697e-07
2.20612e-07
1.74915e-07
2.15479e-07
2.27064e-07
2.19322e-07
2.93541e-07
2.4952e-07
3.08905e-07
2.48537e-07
3.19309e-07
2.04646e-07
3.62166e-07
2.30518e-07
2.22202e-07
2.84378e-07
1.82139e-07
2.00621e-07
2.52909e-07
2.45294e-07
2.46676e-07
1.7481e-07
2.13941e-07
1.7503e-07
2.09743e-07
2.18924e-07
2.12088e-07
3.15935e-07
2.48592e-07
3.4096e-07
2.50356e-07
3.83121e-07
2.00272e-07
4.58058e-07
2.21934e-07
2.17764e-07
1.85596e-07
1.76173e-07
1.63508e-07
2.70707e-07
2.47418e-07
2.48738e-07
1.75225e-07
2.08865e-07
1.76246e-07
2.06998e-07
2.11826e-07
2.05827e-07
3.49284e-07
2.53257e-07
3.71001e-07
2.7637e-07
4.82052e-07
1.96083e-07
5.32565e-07
2.18122e-07
2.19504e-07
1.60318e-07
1.72328e-07
1.55688e-07
2.859e-07
2.49396e-07
2.47446e-07
1.76693e-07
2.06042e-07
1.77838e-07
2.05269e-07
2.05723e-07
2.0078e-07
3.76588e-07
2.8677e-07
3.85256e-07
3.23389e-07
5.39815e-07
1.9199e-07
5.39145e-07
2.20667e-07
2.26862e-07
1.54712e-07
1.70778e-07
1.52848e-07
2.72515e-07
2.47229e-07
2.28868e-07
1.78094e-07
2.05432e-07
1.79062e-07
2.07683e-07
2.00924e-07
1.9851e-07
3.85525e-07
3.35818e-07
3.65739e-07
3.66781e-07
5.2242e-07
1.89555e-07
3.8169e-07
2.28377e-07
2.30574e-07
1.52881e-07
1.70802e-07
1.53893e-07
2.14784e-07
2.27766e-07
2.18069e-07
1.79648e-07
2.09078e-07
1.83344e-07
2.16343e-07
1.99276e-07
2.00281e-07
3.50169e-07
3.73701e-07
3.25542e-07
3.80167e-07
3.43123e-07
1.91089e-07
2.5535e-07
2.31423e-07
2.24795e-07
1.54689e-07
1.72255e-07
1.60157e-07
1.94744e-07
2.19222e-07
2.24112e-07
1.84692e-07
2.19852e-07
1.92786e-07
2.34534e-07
2.02043e-07
2.08163e-07
3.23754e-07
3.79492e-07
3.25728e-07
3.3425e-07
2.37196e-07
1.97248e-07
2.05417e-07
2.2522e-07
2.17388e-07
1.62543e-07
1.78331e-07
1.73258e-07
1.93615e-07
2.28015e-07
2.4168e-07
1.95546e-07
2.41161e-07
2.08548e-07
2.63963e-07
2.1227e-07
2.25396e-07
3.30563e-07
3.15392e-07
3.66445e-07
2.86381e-07
2.02387e-07
2.09507e-07
2.03355e-07
2.19073e-07
2.17723e-07
1.77367e-07
1.89783e-07
1.93218e-07
2.04432e-07
2.49833e-07
2.68599e-07
2.15321e-07
2.7418e-07
2.3291e-07
3.0997e-07
2.32166e-07
2.61498e-07
3.8007e-07
2.79589e-07
4.01429e-07
2.66477e-07
2.06598e-07
2.34948e-07
2.21321e-07
2.21801e-07
2.52247e-07
2.00958e-07
2.21104e-07
2.20801e-07
2.3349e-07
2.79336e-07
3.31656e-07
2.43274e-07
3.24689e-07
2.79003e-07
3.75982e-07
2.75198e-07
3.24516e-07
4.04796e-07
2.65911e-07
4.05221e-07
2.80938e-07
2.31508e-07
2.79466e-07
2.66801e-07
2.58098e-07
2.7745e-07
2.32066e-07
2.51582e-07
2.69264e-07
2.98374e-07
3.4684e-07
4.08279e-07
2.92071e-07
3.93357e-07
3.40703e-07
4.64909e-07
3.44046e-07
4.46105e-07
4.01113e-07
3.173e-07
4.07944e-07
4.0703e-07
2.77317e-07
3.50823e-07
3.50508e-07
3.0709e-07
4.23526e-07
2.78806e-07
3.21949e-07
3.50839e-07
4.18283e-07
4.43294e-07
6.36804e-07
3.63253e-07
5.00158e-07
4.52678e-07
5.73533e-07
4.92898e-07
6.40458e-07
4.19983e-07
4.30752e-07
4.97981e-07
5.18088e-07
3.67855e-07
4.40824e-07
4.42087e-07
4.4567e-07
6.21704e-07
3.68983e-07
4.34618e-07
4.39599e-07
5.7613e-07
6.97231e-07
9.68986e-07
4.90576e-07
6.02259e-07
5.96412e-07
7.46173e-07
6.80388e-07
1.0601e-06
5.31563e-07
5.39123e-07
6.00953e-07
6.70606e-07
4.94146e-07
6.322e-07
5.76054e-07
6.82012e-07
9.16182e-07
4.90391e-07
5.71938e-07
5.70428e-07
9.32492e-07
1.04293e-06
1.53657e-06
6.4688e-07
7.71944e-07
8.18416e-07
9.28823e-07
1.1627e-06
1.54586e-06
6.45425e-07
7.40535e-07
8.04842e-07
9.63433e-07
6.19365e-07
8.58396e-07
8.81563e-07
1.04548e-06
1.58146e-06
6.18482e-07
8.15732e-07
8.83266e-07
1.7299e-06
1.68801e-06
2.38676e-06
8.71021e-07
1.01777e-06
1.14704e-06
1.13754e-06
1.75858e-06
2.35177e-06
8.52857e-07
9.98948e-07
1.14287e-06
1.25703e-06
9.14873e-07
1.09068e-06
9.84171e-07
1.70498e-06
2.29575e-06
9.13431e-07
1.07855e-06
9.73873e-07
1.79036e-06
2.62979e-06
3.49427e-06
1.22633e-06
1.19433e-06
1.48064e-06
1.60507e-06
2.43744e-06
3.75645e-06
1.21064e-06
1.40221e-06
1.4635e-06
1.7215e-06
1.10756e-06
1.55952e-06
1.71375e-06
2.5714e-06
4.03558e-06
1.08767e-06
1.54513e-06
1.71276e-06
4.78835e-06
3.77286e-06
5.51713e-06
1.65248e-06
1.67309e-06
2.0498e-06
2.01804e-06
4.08159e-06
5.18456e-06
1.64864e-06
1.83695e-06
2.02091e-06
2.04769e-06
1.77535e-06
2.1002e-06
1.92431e-06
4.2497e-06
4.83232e-06
1.78026e-06
1.88087e-06
1.92092e-06
4.82351e-06
5.73482e-06
6.63193e-06
2.09642e-06
2.21004e-06
2.54633e-06
2.57028e-06
5.6958e-06
7.51344e-06
2.06376e-06
2.10883e-06
2.51714e-06
2.7337e-06
2.03729e-06
2.66568e-06
2.5242e-06
5.06353e-06
7.09738e-06
2.03466e-06
2.62475e-06
2.50464e-06
6.83003e-06
7.23966e-06
1.01457e-05
2.81498e-06
2.64304e-06
3.4255e-06
3.25394e-06
7.64351e-06
8.8029e-06
2.78337e-06
2.98938e-06
3.42752e-06
3.44558e-06
2.76183e-06
3.20694e-06
3.40713e-06
7.80006e-06
1.0046e-05
2.75711e-06
3.33205e-06
3.41566e-06
9.84772e-06
1.05266e-05
1.16009e-05
3.58002e-06
3.56852e-06
4.11314e-06
4.28891e-06
9.50465e-06
1.24258e-05
3.55388e-06
3.5888e-06
4.07197e-06
4.13906e-06
3.54724e-06
4.28016e-06
4.07369e-06
1.02623e-05
1.13434e-05
3.54894e-06
4.06066e-06
4.0703e-06
1.15677e-05
1.20666e-05
1.44237e-05
4.35753e-06
4.44735e-06
5.1708e-06
5.12727e-06
1.28716e-05
1.42886e-05
4.33358e-06
4.34101e-06
5.10149e-06
5.18298e-06
4.3581e-06
5.18296e-06
5.16264e-06
1.18998e-05
1.45008e-05
4.32499e-06
5.1317e-06
5.1618e-06
1.45197e-05
1.49683e-05
1.68404e-05
5.40683e-06
5.41248e-06
6.24749e-06
6.06679e-06
1.47579e-05
1.66297e-05
5.34603e-06
5.50084e-06
6.27165e-06
6.30958e-06
5.39075e-06
6.11114e-06
6.25221e-06
1.50627e-05
1.68817e-05
5.4214e-06
6.20962e-06
6.22972e-06
1.68547e-05
1.73291e-05
1.90676e-05
6.5745e-06
6.3517e-06
7.45049e-06
7.56027e-06
1.71394e-05
1.92727e-05
6.56389e-06
6.56875e-06
7.40473e-06
7.41369e-06
6.54472e-06
7.54631e-06
7.55315e-06
1.7323e-05
1.89126e-05
6.51315e-06
7.39208e-06
7.5916e-06
1.92553e-05
1.95114e-05
2.11016e-05
7.729e-06
7.91231e-06
8.84891e-06
8.7502e-06
1.9782e-05
2.09689e-05
7.77755e-06
7.72299e-06
8.7103e-06
8.74607e-06
7.8885e-06
8.67635e-06
8.62038e-06
1.93771e-05
2.10706e-05
7.92014e-06
8.70576e-06
8.5732e-06
2.09605e-05
2.15617e-05
2.3089e-05
9.22013e-06
8.93427e-06
1.02674e-05
9.95859e-06
2.12963e-05
2.28634e-05
9.0606e-06
9.12133e-06
1.03737e-05
1.03189e-05
8.9531e-06
1.00376e-05
1.02685e-05
2.15438e-05
2.30971e-05
8.93092e-06
1.03037e-05
1.04927e-05
2.3011e-05
2.34889e-05
2.45131e-05
1.07514e-05
1.06196e-05
1.17276e-05
1.23221e-05
2.34315e-05
2.5031e-05
1.07315e-05
1.07067e-05
1.15989e-05
1.16531e-05
1.06656e-05
1.22397e-05
1.18567e-05
2.34906e-05
2.45267e-05
1.09364e-05
1.17025e-05
1.19255e-05
2.47951e-05
2.48765e-05
2.6349e-05
1.19062e-05
1.25528e-05
1.34823e-05
1.28291e-05
2.52802e-05
2.5793e-05
1.18769e-05
1.19191e-05
1.34322e-05
1.32744e-05
1.21883e-05
1.27952e-05
1.33329e-05
2.48573e-05
2.61173e-05
1.21664e-05
1.31935e-05
1.32706e-05
2.60995e-05
2.67736e-05
2.76908e-05
1.41928e-05
1.30645e-05
1.52906e-05
1.51838e-05
2.61006e-05
2.76651e-05
1.41752e-05
1.38832e-05
1.54699e-05
1.51891e-05
1.37795e-05
1.51307e-05
1.49838e-05
2.65589e-05
2.77243e-05
1.37602e-05
1.5185e-05
1.5126e-05
2.74636e-05
2.79364e-05
2.8876e-05
1.53964e-05
1.55772e-05
1.65933e-05
1.68533e-05
2.8066e-05
2.90713e-05
1.56847e-05
1.55557e-05
1.70159e-05
1.67346e-05
1.53456e-05
1.68325e-05
1.66518e-05
2.79953e-05
2.87733e-05
1.54963e-05
1.67048e-05
1.66976e-05
2.92284e-05
2.9271e-05
3.0432e-05
1.72734e-05
1.74067e-05
1.92792e-05
1.91254e-05
2.9418e-05
3.0513e-05
1.74566e-05
1.69908e-05
1.8549e-05
1.86041e-05
1.73651e-05
1.91496e-05
1.95185e-05
2.90792e-05
3.04218e-05
1.73882e-05
1.86349e-05
1.95006e-05
3.063e-05
3.06923e-05
3.1209e-05
1.98025e-05
1.95245e-05
2.0402e-05
2.01561e-05
3.07436e-05
3.10493e-05
1.89953e-05
1.9437e-05
2.05687e-05
2.09496e-05
1.9856e-05
1.99745e-05
2.00471e-05
3.08381e-05
3.14696e-05
1.98309e-05
2.09324e-05
2.0027e-05
3.05666e-05
3.13958e-05
3.23831e-05
2.04428e-05
2.03302e-05
2.10802e-05
2.17877e-05
3.12239e-05
3.27298e-05
2.10008e-05
2.10643e-05
2.18524e-05
2.12746e-05
2.00604e-05
2.20541e-05
2.07519e-05
3.1563e-05
3.19271e-05
2.00462e-05
2.12238e-05
2.07675e-05
3.24848e-05
3.2859e-05
3.4385e-05
2.20308e-05
2.27181e-05
2.52613e-05
2.50719e-05
3.32924e-05
3.43442e-05
2.23844e-05
2.15577e-05
2.4847e-05
2.47816e-05
2.21688e-05
2.53075e-05
2.59284e-05
3.23094e-05
3.44888e-05
2.21285e-05
2.46847e-05
2.57748e-05
3.50495e-05
3.4572e-05
3.45111e-05
2.58625e-05
2.53684e-05
2.62417e-05
2.55308e-05
3.44017e-05
3.4235e-05
2.54358e-05
2.57031e-05
2.58971e-05
2.66832e-05
2.62929e-05
2.55173e-05
2.62377e-05
3.48571e-05
3.50813e-05
2.62157e-05
2.65818e-05
2.6309e-05
3.44688e-05
3.4559e-05
3.5255e-05
2.62241e-05
2.55594e-05
2.63187e-05
2.65293e-05
3.44109e-05
3.58181e-05
2.58937e-05
2.66875e-05
2.60779e-05
2.66498e-05
2.60275e-05
2.64686e-05
2.60794e-05
3.5111e-05
3.51396e-05
2.61226e-05
2.65628e-05
2.60807e-05
3.51842e-05
3.56896e-05
3.79439e-05
2.66189e-05
2.7614e-05
3.01477e-05
3.00797e-05
3.63095e-05
3.75956e-05
2.66592e-05
2.67358e-05
3.00003e-05
2.92396e-05
2.64906e-05
3.04481e-05
3.02262e-05
3.53714e-05
3.7409e-05
2.63267e-05
2.93402e-05
2.97887e-05
3.77765e-05
3.82922e-05
3.85126e-05
3.09471e-05
3.04794e-05
3.16397e-05
3.08143e-05
3.77447e-05
3.77861e-05
3.08873e-05
3.02956e-05
3.20251e-05
3.18917e-05
3.07423e-05
3.08413e-05
3.09743e-05
3.78984e-05
3.86491e-05
3.05459e-05
3.16627e-05
3.12061e-05
3.78042e-05
3.85237e-05
3.83147e-05
3.16324e-05
3.08527e-05
3.1572e-05
3.18099e-05
3.78227e-05
3.87641e-05
3.20519e-05
3.19578e-05
3.19527e-05
3.19213e-05
3.09652e-05
3.10642e-05
3.11182e-05
3.86694e-05
3.83297e-05
3.12166e-05
3.16272e-05
3.13145e-05
3.83937e-05
3.84618e-05
4.00439e-05
3.16454e-05
3.29112e-05
3.36735e-05
3.5305e-05
3.93543e-05
4.12484e-05
3.19558e-05
3.19371e-05
3.29047e-05
3.35592e-05
3.14881e-05
3.48819e-05
3.48055e-05
3.84239e-05
4.03319e-05
3.15675e-05
3.39776e-05
3.46002e-05
4.11285e-05
4.04101e-05
4.14296e-05
3.43334e-05
3.56379e-05
3.57486e-05
3.58079e-05
4.13945e-05
4.1208e-05
3.36527e-05
3.44061e-05
3.57771e-05
3.53917e-05
3.56146e-05
3.56862e-05
3.66278e-05
4.07961e-05
4.13491e-05
3.5315e-05
3.55238e-05
3.59881e-05
4.18107e-05
4.16527e-05
4.19671e-05
3.599e-05
3.57497e-05
3.62594e-05
3.57033e-05
4.12135e-05
4.12259e-05
3.62414e-05
3.57168e-05
3.66995e-05
3.69176e-05
3.66548e-05
3.58018e-05
3.64702e-05
4.1437e-05
4.22098e-05
3.59834e-05
3.66945e-05
3.58825e-05
4.14867e-05
4.20385e-05
4.25901e-05
3.6425e-05
3.58913e-05
3.75002e-05
3.76541e-05
4.15365e-05
4.2983e-05
3.67406e-05
3.71122e-05
3.73973e-05
3.75042e-05
3.64315e-05
3.75843e-05
3.67193e-05
4.24043e-05
4.26496e-05
3.59169e-05
3.73766e-05
3.71967e-05
4.24587e-05
4.28398e-05
4.38922e-05
3.78127e-05
3.78864e-05
3.8861e-05
3.88028e-05
4.30997e-05
4.36326e-05
3.77236e-05
3.77492e-05
3.89064e-05
3.87639e-05
3.74254e-05
3.85862e-05
3.91442e-05
4.27636e-05
4.37794e-05
3.78557e-05
3.90089e-05
3.9401e-05
4.41296e-05
4.42163e-05
4.53465e-05
3.94391e-05
3.93724e-05
4.08956e-05
4.08167e-05
4.3961e-05
4.52477e-05
3.94752e-05
3.91465e-05
4.08723e-05
4.0517e-05
3.93877e-05
4.06873e-05
4.01779e-05
4.40541e-05
4.50659e-05
3.96127e-05
4.04755e-05
3.99429e-05
4.4674e-05
4.54268e-05
4.51781e-05
4.10646e-05
4.10111e-05
4.11215e-05
4.12123e-05
4.5374e-05
4.55124e-05
4.10414e-05
4.09601e-05
4.11056e-05
4.15869e-05
4.05941e-05
4.12235e-05
4.19425e-05
4.53141e-05
4.56653e-05
4.02777e-05
4.14806e-05
4.17209e-05
4.61052e-05
4.51981e-05
4.61113e-05
4.11279e-05
4.14059e-05
4.20453e-05
4.22264e-05
4.56476e-05
4.6179e-05
4.11219e-05
4.16104e-05
4.20394e-05
4.16262e-05
4.22119e-05
4.24111e-05
4.23646e-05
4.56725e-05
4.54316e-05
4.19939e-05
4.15315e-05
4.21226e-05
4.5948e-05
4.63479e-05
4.66999e-05
4.2419e-05
4.22971e-05
4.27832e-05
4.23837e-05
4.62062e-05
4.61399e-05
4.22895e-05
4.16907e-05
4.27606e-05
4.3371e-05
4.23156e-05
4.253e-05
4.2192e-05
4.55382e-05
4.76428e-05
4.2078e-05
4.35891e-05
4.21074e-05
4.58192e-05
4.69008e-05
4.8378e-05
4.29854e-05
4.25252e-05
4.45312e-05
4.44935e-05
4.63115e-05
4.8183e-05
4.31448e-05
4.4094e-05
4.48646e-05
4.51004e-05
4.22398e-05
4.39744e-05
4.4032e-05
4.81501e-05
4.88019e-05
4.23167e-05
4.51958e-05
4.49285e-05
4.84577e-05
4.86429e-05
4.8654e-05
4.50752e-05
4.5121e-05
4.56906e-05
4.58782e-05
4.85828e-05
4.91286e-05
4.52441e-05
4.511e-05
4.54605e-05
4.46112e-05
4.49013e-05
4.59825e-05
4.62944e-05
4.87469e-05
4.71303e-05
4.55819e-05
4.45024e-05
4.61467e-05
4.95979e-05
4.86122e-05
4.80919e-05
4.56804e-05
4.58805e-05
4.53541e-05
4.55775e-05
4.91308e-05
4.85792e-05
4.53798e-05
4.44634e-05
4.50706e-05
4.45349e-05
4.63415e-05
4.59898e-05
4.59145e-05
4.70633e-05
4.75944e-05
4.61204e-05
4.43118e-05
4.52281e-05
4.81749e-05
4.81568e-05
4.98012e-05
4.5342e-05
4.55439e-05
4.61278e-05
4.60511e-05
4.85908e-05
4.93594e-05
4.50917e-05
4.49073e-05
4.65904e-05
4.76815e-05
4.56788e-05
4.60528e-05
4.56133e-05
4.81416e-05
5.11731e-05
4.50473e-05
4.72576e-05
4.5213e-05
4.84977e-05
5.02224e-05
5.12635e-05
4.68516e-05
4.66613e-05
4.82589e-05
4.77007e-05
4.9689e-05
5.05973e-05
4.72804e-05
4.8368e-05
4.87467e-05
4.92492e-05
4.58472e-05
4.76598e-05
4.87896e-05
5.16015e-05
5.21414e-05
4.59406e-05
4.93297e-05
4.94124e-05
5.23443e-05
5.14421e-05
5.1571e-05
4.86332e-05
4.80898e-05
4.91285e-05
4.91718e-05
5.08217e-05
5.17422e-05
4.90038e-05
4.92609e-05
4.91334e-05
4.8571e-05
4.94286e-05
4.92343e-05
4.97384e-05
5.21073e-05
5.03783e-05
4.98755e-05
4.88852e-05
4.98821e-05
5.2128e-05
5.15121e-05
5.01151e-05
4.91169e-05
4.92464e-05
4.84378e-05
4.88984e-05
5.17875e-05
5.06792e-05
4.90239e-05
4.79404e-05
4.77753e-05
4.6914e-05
4.95179e-05
4.87363e-05
4.74347e-05
5.01124e-05
4.90343e-05
4.93296e-05
4.71637e-05
4.68288e-05
4.86519e-05
5.00722e-05
5.08065e-05
4.82008e-05
4.8503e-05
4.81512e-05
4.82293e-05
5.05095e-05
5.0384e-05
4.76064e-05
4.6894e-05
4.78675e-05
4.82968e-05
4.7203e-05
4.81047e-05
4.76646e-05
4.90996e-05
5.18089e-05
4.66892e-05
4.84808e-05
4.79168e-05
5.12282e-05
5.13176e-05
5.409e-05
4.84106e-05
4.83766e-05
5.13148e-05
5.13571e-05
5.08205e-05
5.43096e-05
4.87074e-05
4.97225e-05
5.17225e-05
5.26905e-05
4.90018e-05
5.15778e-05
5.27242e-05
5.26614e-05
5.53049e-05
4.99901e-05
5.27652e-05
5.34491e-05
5.60742e-05
5.44098e-05
5.44627e-05
5.20024e-05
5.2071e-05
5.25544e-05
5.24481e-05
5.46029e-05
5.40225e-05
5.22969e-05
5.30355e-05
5.27239e-05
5.29755e-05
5.29707e-05
5.23695e-05
5.23721e-05
5.54181e-05
5.41439e-05
5.35939e-05
5.27248e-05
5.26135e-05
5.34957e-05
5.43721e-05
5.30311e-05
5.25134e-05
5.23001e-05
5.15448e-05
5.12921e-05
5.38157e-05
5.28174e-05
5.26681e-05
5.24826e-05
5.14706e-05
5.0509e-05
5.16072e-05
5.13208e-05
5.07081e-05
5.37597e-05
5.17306e-05
5.15565e-05
5.03585e-05
5.00743e-05
5.17017e-05
5.30017e-05
5.33792e-05
5.13659e-05
5.12396e-05
5.13569e-05
5.15706e-05
5.28551e-05
5.39459e-05
5.12363e-05
5.03422e-05
5.11976e-05
5.06733e-05
5.0711e-05
5.17172e-05
5.15666e-05
5.1715e-05
5.31383e-05
5.00364e-05
5.05918e-05
5.07249e-05
5.35913e-05
5.36169e-05
5.44024e-05
5.15602e-05
5.21072e-05
5.26173e-05
5.28238e-05
5.42461e-05
5.45433e-05
5.14056e-05
5.15381e-05
5.26836e-05
5.34085e-05
5.20531e-05
5.27724e-05
5.25857e-05
5.37521e-05
5.5413e-05
5.14408e-05
5.32773e-05
5.25568e-05
5.43106e-05
5.44105e-05
5.40377e-05
5.26886e-05
5.28203e-05
5.26672e-05
5.26397e-05
5.451e-05
5.40307e-05
5.27767e-05
5.3494e-05
5.27365e-05
5.31991e-05
5.25766e-05
5.26949e-05
5.25106e-05
5.54478e-05
5.45883e-05
5.2633e-05
5.33956e-05
5.27807e-05
5.39679e-05
5.40444e-05
5.50149e-05
5.26677e-05
5.26366e-05
5.31044e-05
5.31113e-05
5.40405e-05
5.51656e-05
5.27285e-05
5.29738e-05
5.301e-05
5.28914e-05
5.25385e-05
5.31689e-05
5.3747e-05
5.44966e-05
5.44154e-05
5.29444e-05
5.32595e-05
5.41701e-05
5.60126e-05
5.55129e-05
5.73028e-05
5.38347e-05
5.38942e-05
5.55308e-05
5.55229e-05
5.56754e-05
5.72352e-05
5.35845e-05
5.30347e-05
5.54235e-05
5.51632e-05
5.45509e-05
5.54824e-05
5.60808e-05
5.46683e-05
5.7022e-05
5.47722e-05
5.51502e-05
5.59551e-05
5.79789e-05
5.73829e-05
5.65619e-05
5.56866e-05
5.5624e-05
5.55383e-05
5.52978e-05
5.72781e-05
5.61349e-05
5.56535e-05
5.56337e-05
5.562e-05
5.58544e-05
5.6154e-05
5.53686e-05
5.56061e-05
5.7277e-05
5.7142e-05
5.60046e-05
5.57247e-05
5.54398e-05
5.62251e-05
5.63064e-05
5.48234e-05
5.50998e-05
5.4702e-05
5.38311e-05
5.35493e-05
5.58285e-05
5.446e-05
5.53338e-05
5.57145e-05
5.4001e-05
5.40843e-05
5.4771e-05
5.35311e-05
5.30581e-05
5.69309e-05
5.48864e-05
5.46783e-05
5.39379e-05
5.30746e-05
5.37731e-05
5.47946e-05
5.54811e-05
5.37193e-05
5.35003e-05
5.39262e-05
5.4106e-05
5.44614e-05
5.59647e-05
5.38244e-05
5.37599e-05
5.386e-05
5.36439e-05
5.29409e-05
5.39489e-05
5.34268e-05
5.47577e-05
5.49685e-05
5.29521e-05
5.35549e-05
5.33504e-05
5.53265e-05
5.584e-05
5.72448e-05
5.44675e-05
5.49725e-05
5.59158e-05
5.65575e-05
5.65006e-05
5.81317e-05
5.41515e-05
5.38339e-05
5.57176e-05
5.571e-05
5.44227e-05
5.66368e-05
5.64788e-05
5.53048e-05
5.72906e-05
5.42484e-05
5.58388e-05
5.63641e-05
5.79903e-05
5.73783e-05
5.74817e-05
5.61432e-05
5.66661e-05
5.63435e-05
5.64314e-05
5.81766e-05
5.72561e-05
5.60278e-05
5.61058e-05
5.64039e-05
5.64764e-05
5.66328e-05
5.64895e-05
5.6407e-05
5.74841e-05
5.75765e-05
5.65604e-05
5.64919e-05
5.64424e-05
5.72206e-05
5.74902e-05
5.75475e-05
5.6344e-05
5.60694e-05
5.63416e-05
5.56184e-05
5.70551e-05
5.64307e-05
5.64315e-05
5.64771e-05
5.64546e-05
5.6422e-05
5.60664e-05
5.55142e-05
5.57831e-05
5.75651e-05
5.74648e-05
5.61812e-05
5.6366e-05
5.59696e-05
5.67963e-05
5.75884e-05
5.75918e-05
5.63603e-05
5.56231e-05
5.64623e-05
5.62417e-05
5.64659e-05
5.7515e-05
5.6473e-05
5.64258e-05
5.64874e-05
5.66112e-05
5.58367e-05
5.62795e-05
5.69155e-05
5.75095e-05
5.7823e-05
5.60255e-05
5.67069e-05
5.69725e-05
5.83619e-05
5.75687e-05
5.69224e-05
5.64559e-05
5.64914e-05
5.61277e-05
5.66376e-05
5.76779e-05
5.774e-05
5.64681e-05
5.66406e-05
5.60867e-05
5.65432e-05
5.70998e-05
5.68053e-05
5.70237e-05
5.78542e-05
5.75207e-05
5.71102e-05
5.6741e-05
5.69893e-05
5.78171e-05
5.68628e-05
5.67622e-05
5.59842e-05
5.6594e-05
5.58735e-05
5.63353e-05
5.76946e-05
5.72821e-05
5.59451e-05
5.63373e-05
5.58225e-05
5.57632e-05
5.66842e-05
5.633e-05
5.55775e-05
5.7415e-05
5.65464e-05
5.66077e-05
5.56771e-05
5.54418e-05
5.60995e-05
5.69065e-05
5.85256e-05
5.59443e-05
5.63365e-05
5.72385e-05
5.69355e-05
5.72923e-05
5.81213e-05
5.58808e-05
5.57205e-05
5.71082e-05
5.60602e-05
5.55012e-05
5.6572e-05
5.59176e-05
5.65259e-05
5.71818e-05
5.5358e-05
5.57325e-05
5.57793e-05
5.73936e-05
5.87826e-05
5.91127e-05
5.76116e-05
5.727e-05
5.78957e-05
5.75577e-05
5.83401e-05
5.86289e-05
5.75209e-05
5.66419e-05
5.79385e-05
5.80895e-05
5.67102e-05
5.75904e-05
5.83024e-05
5.75618e-05
5.93492e-05
5.66215e-05
5.82237e-05
5.84626e-05
5.97609e-05
5.89981e-05
5.73788e-05
5.78354e-05
5.75253e-05
5.67275e-05
5.68036e-05
5.85545e-05
5.75805e-05
5.79125e-05
5.82961e-05
5.70028e-05
5.83271e-05
5.84015e-05
5.71313e-05
5.80367e-05
5.95166e-05
5.95025e-05
5.86106e-05
5.86515e-05
5.83544e-05
5.87234e-05
5.72472e-05
5.72832e-05
5.64795e-05
5.66384e-05
5.63941e-05
5.65893e-05
5.75167e-05
5.76352e-05
5.67031e-05
5.81453e-05
5.64745e-05
5.67042e-05
5.74749e-05
5.6657e-05
5.63288e-05
5.93169e-05
5.74436e-05
5.77871e-05
5.66945e-05
5.62971e-05
5.69825e-05
5.75308e-05
5.90709e-05
5.65699e-05
5.6714e-05
5.78905e-05
5.74943e-05
5.77834e-05
5.84731e-05
5.6533e-05
5.63174e-05
5.74843e-05
5.58606e-05
5.62002e-05
5.71147e-05
5.6208e-05
5.72098e-05
5.63864e-05
5.60517e-05
5.54847e-05
5.5893e-05
5.71211e-05
5.92039e-05
5.88397e-05
5.80606e-05
5.75903e-05
5.79875e-05
5.75527e-05
5.85279e-05
5.82955e-05
5.76733e-05
5.5867e-05
5.76925e-05
5.66105e-05
5.63872e-05
5.73061e-05
5.70844e-05
5.6396e-05
5.75618e-05
5.59456e-05
5.62907e-05
5.68277e-05
5.80798e-05
5.85747e-05
5.67258e-05
5.76223e-05
5.73671e-05
5.60174e-05
5.65928e-05
5.82172e-05
5.76569e-05
5.74951e-05
5.69435e-05
5.63344e-05
5.75791e-05
5.72401e-05
5.6982e-05
5.75652e-05
5.78461e-05
5.89249e-05
5.71235e-05
5.79964e-05
5.78582e-05
5.87287e-05
5.66492e-05
5.72752e-05
5.58302e-05
5.65202e-05
5.59324e-05
5.66375e-05
5.76597e-05
5.81151e-05
5.62084e-05
5.77523e-05
5.63575e-05
5.80251e-05
5.76584e-05
5.71396e-05
5.77457e-05
5.9112e-05
5.95752e-05
5.80333e-05
5.85217e-05
5.81703e-05
5.91079e-05
5.76314e-05
5.87484e-05
5.63929e-05
5.6937e-05
5.76169e-05
5.73878e-05
5.82683e-05
5.84417e-05
5.67774e-05
5.80272e-05
5.7463e-05
5.74228e-05
5.77349e-05
5.73018e-05
5.70753e-05
5.9583e-05
5.80895e-05
5.8139e-05
5.72511e-05
5.7011e-05
5.78092e-05
5.8777e-05
5.82267e-05
5.76976e-05
5.7385e-05
5.75028e-05
5.68874e-05
5.83951e-05
5.74818e-05
5.74697e-05
5.68723e-05
5.70345e-05
5.58466e-05
5.66731e-05
5.6422e-05
5.59277e-05
5.77651e-05
5.6414e-05
5.65062e-05
5.55464e-05
5.57066e-05
5.66681e-05
5.81655e-05
5.81521e-05
5.72403e-05
5.66711e-05
5.69649e-05
5.65102e-05
5.74228e-05
5.74991e-05
5.6905e-05
5.58024e-05
5.68971e-05
5.62729e-05
5.5898e-05
5.62724e-05
5.62448e-05
5.64125e-05
5.76546e-05
5.56897e-05
5.61124e-05
5.62586e-05
5.7726e-05
5.82634e-05
5.8518e-05
5.69868e-05
5.65679e-05
5.71067e-05
5.72265e-05
5.76658e-05
5.87234e-05
5.70536e-05
5.68588e-05
5.72641e-05
5.76247e-05
5.67843e-05
5.74718e-05
5.77407e-05
5.80419e-05
5.91036e-05
5.68506e-05
5.77446e-05
5.77665e-05
5.91327e-05
5.84982e-05
5.67781e-05
5.70938e-05
5.7304e-05
5.6121e-05
5.7002e-05
5.8791e-05
5.81168e-05
5.72408e-05
5.76353e-05
5.59945e-05
5.66185e-05
5.77988e-05
5.72889e-05
5.7245e-05
5.91183e-05
5.75658e-05
5.78089e-05
5.69245e-05
5.71411e-05
5.79943e-05
5.63763e-05
5.46838e-05
5.55716e-05
5.76705e-05
5.45557e-05
5.51082e-05
4.68448e-05
4.66827e-05
4.70183e-05
5.56476e-05
5.71014e-05
5.55636e-05
8.50656e-08
2.47756e-07
5.99156e-08
7.57809e-08
2.88943e-07
2.92874e-07
1.62168e-07
1.40718e-07
2.62002e-07
5.49978e-07
1.39155e-07
7.85203e-07
3.54209e-07
2.45226e-07
5.43231e-07
3.02033e-07
4.81794e-06
2.60122e-07
6.45271e-06
1.34421e-05
2.08618e-05
3.61569e-07
5.25939e-06
3.19401e-07
6.99138e-06
1.6451e-07
1.8866e-07
1.91055e-07
1.70861e-07
1.64221e-07
1.87439e-07
1.91388e-07
2.68877e-07
5.28224e-07
2.35822e-07
2.73134e-07
2.75376e-07
5.15931e-07
2.34993e-07
1.34648e-05
2.07948e-05
2.42293e-07
4.20601e-07
1.09614e-06
7.56942e-07
2.49171e-07
4.14768e-07
1.09105e-06
1.85666e-06
1.94831e-06
3.38447e-07
1.83709e-06
1.92337e-06
4.96519e-07
9.51075e-06
4.03467e-07
1.21652e-05
3.59537e-05
4.58786e-05
5.5221e-07
1.02142e-05
4.61352e-07
1.31301e-05
1.63132e-07
1.85102e-07
1.90749e-07
1.66996e-07
1.59858e-07
1.79126e-07
1.88967e-07