/*--------------------------------*- C++ -*----------------------------------*\
| =========                 |                                                 |
| \\      /  F ield         | OpenFOAM: The Open Source CFD Toolbox           |
|  \\    /   O peration     | Version:  v2012                                 |
|   \\  /    A nd           | Website:  www.openfoam.com                      |
|    \\/     M anipulation  |                                                 |
\*---------------------------------------------------------------------------*/
FoamFile
{
    version     2.0;
    format      ascii;
    class       volScalarField;
    location    "1100";
    object      p;
}
// * * * * * * * * * * * * * * * * * * * * * * * * * * * * * * * * * * * * * //

dimensions      [0 2 -2 0 0 0 0];


internalField   nonuniform List<scalar> 
171728
(
0.0035204
0.00351909
0.00351973
0.00351925
0.00348479
0.00348323
0.00348345
0.00348601
0.00344623
0.00344432
0.00344441
0.00344666
0.00340212
0.00340041
0.00340044
0.00340266
0.00335402
0.0033526
0.00335257
0.00335491
0.00330515
0.00330384
0.00330386
0.00330624
0.00325686
0.0032557
0.0032556
0.00325806
0.00320954
0.00320851
0.00320845
0.00321088
0.00316322
0.00316231
0.0031623
0.0031647
0.00311786
0.00311708
0.00311706
0.00311946
0.00307343
0.00307276
0.00307271
0.00307506
0.00302976
0.0030292
0.00302923
0.00303163
0.00298665
0.00298621
0.00298625
0.00298849
0.00294397
0.00294358
0.00294362
0.00294583
0.00290161
0.00290135
0.00290135
0.00290354
0.00285955
0.00285939
0.00285949
0.00286177
0.00281786
0.00281775
0.00281788
0.00281998
0.00277653
0.00277646
0.00277646
0.00277859
0.0027355
0.00273551
0.00273544
0.00273759
0.00269479
0.00269485
0.00269508
0.00269679
0.0026546
0.00265474
0.00265458
0.0026564
0.00261453
0.00261467
0.00261464
0.00261638
0.00257481
0.00257497
0.00257506
0.00257661
0.00253534
0.0025357
0.00253558
0.00253712
0.00249615
0.00249649
0.00249664
0.00249843
0.00245718
0.00245755
0.00245753
0.00245917
0.00241842
0.00241891
0.00241883
0.00242032
0.00237987
0.00238035
0.0023804
0.00238238
0.00234156
0.00234213
0.00234211
0.00234389
0.00230339
0.00230396
0.00230399
0.00230584
0.00226542
0.00226603
0.00226605
0.00226799
0.0022276
0.00222831
0.00222825
0.00223012
0.00218994
0.00219052
0.00219059
0.00219241
0.00215242
0.00215313
0.00215312
0.00215493
0.00211502
0.0021157
0.00211561
0.00211753
0.00207774
0.00207822
0.00207834
0.00208019
0.00204072
0.00204127
0.00204124
0.00204304
0.00200363
0.00200417
0.00200411
0.00200617
0.00196689
0.00196732
0.00196738
0.0019692
0.00192999
0.00193019
0.00193028
0.00193212
0.00189334
0.00189389
0.00189362
0.00189602
0.00185744
0.00185739
0.00185773
0.00185935
0.00182059
0.00182059
0.00182061
0.0018225
0.00178425
0.00178471
0.00178438
0.0017868
0.00174867
0.00174852
0.00174886
0.00175087
0.00171274
0.00171224
0.00171235
0.00171407
0.00167641
0.00167681
0.00167636
0.00167883
0.00164087
0.00164104
0.00164126
0.00164328
0.00160577
0.00160502
0.00160512
0.00160701
0.00156975
0.00156966
0.00156958
0.00157158
0.00153398
0.00153417
0.00153391
0.00153634
0.00149896
0.00149858
0.00149878
0.00150066
0.0014641
0.00146359
0.0014636
0.00146548
0.0014287
0.00142851
0.00142846
0.00143065
0.00139332
0.00139315
0.00139299
0.00139501
0.00135846
0.00135801
0.00135859
0.00136013
0.00132379
0.0013238
0.0013234
0.00132581
0.00128895
0.00128866
0.0012881
0.00129046
0.00125392
0.00125349
0.00125407
0.00125533
0.00121938
0.0012191
0.0012197
0.0012212
0.00118528
0.001185
0.00118462
0.00118719
0.00115035
0.00115031
0.00114965
0.00115176
0.00111488
0.00111457
0.00111461
0.00111605
0.00108036
0.00108024
0.00108109
0.00108286
0.00104715
0.00104722
0.00104694
0.00104914
0.00101252
0.00101154
0.0010111
0.00101286
0.000977089
0.000977162
0.000977015
0.00097905
0.000943091
0.00094351
0.000943768
0.000945882
0.000908546
0.000908025
0.000908524
0.000910134
0.000873029
0.000872766
0.000872608
0.000874644
0.000839313
0.000839387
0.000838984
0.000841101
0.000806646
0.000806339
0.000806424
0.000808049
0.0007712
0.000770884
0.000771039
0.000772848
0.000734727
0.000734683
0.000734682
0.000736799
0.000700553
0.000700884
0.000700718
0.000702921
0.000667289
0.000667294
0.000667327
0.000669214
0.000632177
0.000631497
0.000631754
0.000633422
0.000596822
0.000596528
0.000596605
0.000598429
0.000562712
0.000563188
0.00056292
0.000565195
0.000528242
0.000528247
0.000528271
0.00053025
0.000492587
0.000492265
0.00049233
0.000494206
0.00045773
0.000457574
0.000457531
0.000459539
0.000423333
0.000423316
0.000423548
0.00042541
0.000387977
0.000387934
0.000388025
0.000389916
0.000352611
0.000352599
0.000352162
0.000354382
0.000317632
0.000317532
0.000317361
0.000319477
0.00028221
0.000282175
0.000282622
0.000284396
0.000246662
0.000246814
0.000246955
0.000248908
0.000212042
0.000211916
0.000211719
0.000213777
0.000176879
0.00017659
0.000176294
0.000178325
0.000140526
0.000140553
0.000140655
0.000142702
0.000105158
0.000105174
0.000105522
0.000107406
7.00785e-05
7.00755e-05
6.99247e-05
7.18663e-05
3.44473e-05
3.39105e-05
3.36338e-05
3.56015e-05
5.58633e-06
6.4582e-06
6.56723e-06
4.75297e-06
0.00352484
0.00352234
0.00352218
0.00352458
0.00352249
0.00352284
0.00352879
0.00352861
0.00352913
0.00352876
0.00352213
0.00352197
0.00352537
0.00352303
0.00352248
0.0035241
0.00352008
0.00349094
0.00351933
0.0035192
0.00349273
0.00349266
0.00351985
0.00349087
0.00351937
0.00351956
0.00349282
0.00349287
0.00351887
0.0034927
0.00349253
0.00352048
0.00349098
0.0035191
0.0034927
0.00349256
0.00349068
0.00348619
0.00345223
0.00348338
0.00348329
0.00345441
0.00345447
0.00348612
0.00345218
0.00348332
0.00348326
0.00345456
0.00345458
0.0034832
0.00345446
0.0034544
0.00348622
0.00345224
0.00348325
0.00345452
0.00345446
0.00345214
0.0034467
0.00340883
0.00344434
0.0034443
0.00341196
0.00341196
0.00344664
0.00340882
0.0034444
0.00344435
0.00341198
0.00341194
0.00344439
0.00341192
0.00341182
0.0034467
0.00340885
0.00344446
0.00341201
0.00341195
0.00340881
0.00340267
0.00336134
0.0034004
0.00340035
0.00336476
0.00336472
0.00340264
0.00336135
0.00340048
0.0034004
0.00336474
0.00336468
0.00340045
0.00336467
0.0033647
0.00340268
0.00336136
0.00340046
0.00336472
0.00336475
0.00336136
0.00335488
0.00331267
0.00335248
0.00335253
0.00331603
0.00331599
0.00335488
0.00331266
0.0033525
0.00335258
0.00331603
0.00331598
0.00335255
0.00331601
0.00331605
0.00335489
0.00331261
0.0033525
0.00331598
0.00331596
0.00331267
0.00330624
0.00326437
0.00330384
0.00330385
0.00326765
0.00326765
0.0033062
0.0032644
0.00330388
0.0033038
0.00326771
0.00326764
0.00330385
0.00326767
0.00326767
0.00330616
0.00326441
0.00330386
0.00326773
0.00326772
0.00326436
0.00325805
0.00321705
0.00325572
0.00325571
0.0032202
0.00322021
0.00325806
0.00321705
0.00325567
0.00325567
0.00322022
0.00322016
0.00325574
0.00322022
0.00322025
0.00325809
0.00321706
0.00325572
0.00322026
0.00322032
0.00321706
0.00321087
0.00317074
0.00320852
0.0032085
0.00317376
0.00317376
0.00321087
0.00317073
0.00320848
0.0032085
0.00317376
0.00317376
0.00320855
0.00317377
0.00317377
0.00321089
0.00317074
0.00320843
0.00317379
0.0031739
0.00317074
0.0031647
0.00312536
0.00316233
0.00316232
0.00312828
0.00312829
0.00316468
0.00312535
0.0031623
0.0031623
0.00312834
0.0031283
0.00316233
0.00312829
0.00312831
0.0031647
0.00312535
0.00316223
0.00312828
0.00312843
0.00312535
0.00311945
0.00308091
0.00311708
0.00311708
0.00308377
0.00308376
0.00311945
0.0030809
0.00311711
0.00311709
0.00308376
0.00308379
0.00311709
0.00308376
0.00308375
0.00311943
0.00308089
0.00311718
0.00308373
0.00308367
0.00308082
0.00307513
0.00303722
0.00307277
0.00307277
0.00304001
0.00304002
0.00307512
0.00303723
0.00307277
0.00307271
0.00304002
0.00304
0.00307273
0.00304003
0.00304007
0.0030751
0.00303727
0.00307271
0.00304
0.00304012
0.0030373
0.00303156
0.00299413
0.00302922
0.00302921
0.00299693
0.00299692
0.00303156
0.00299413
0.00302921
0.00302924
0.00299692
0.00299686
0.00302924
0.00299689
0.00299687
0.00303161
0.0029941
0.00302926
0.00299687
0.00299679
0.00299406
0.00298852
0.00295142
0.00298619
0.0029862
0.00295428
0.00295421
0.00298852
0.00295143
0.0029862
0.00298631
0.0029543
0.00295437
0.00298615
0.00295421
0.00295422
0.00298852
0.00295146
0.00298612
0.00295432
0.00295422
0.00295134
0.00294588
0.00290913
0.00294353
0.0029436
0.00291196
0.0029119
0.0029459
0.00290913
0.00294352
0.00294365
0.00291195
0.00291205
0.00294356
0.00291188
0.00291185
0.00294594
0.00290912
0.00294352
0.00291205
0.00291188
0.00290904
0.00290363
0.00286698
0.00290123
0.00290135
0.00286986
0.00286984
0.00290364
0.00286707
0.00290126
0.00290138
0.00286992
0.00287005
0.0029013
0.00286986
0.00286993
0.00290368
0.00286697
0.00290132
0.00287005
0.00286993
0.0028672
0.00286155
0.00282527
0.00285926
0.00285937
0.00282816
0.00282811
0.00286164
0.00282535
0.00285931
0.00285948
0.00282808
0.00282815
0.00285956
0.00282813
0.00282813
0.00286157
0.00282521
0.00285958
0.00282809
0.00282812
0.00282534
0.00281989
0.00278392
0.00281766
0.00281776
0.00278686
0.00278671
0.00281996
0.0027839
0.00281767
0.00281791
0.00278683
0.00278646
0.00281783
0.0027867
0.0027867
0.00281994
0.00278407
0.00281778
0.00278645
0.00278671
0.0027839
0.00277861
0.00274293
0.00277653
0.00277644
0.00274562
0.00274574
0.00277858
0.00274281
0.00277654
0.00277642
0.00274566
0.00274581
0.00277648
0.00274577
0.00274555
0.00277864
0.00274279
0.00277649
0.00274567
0.00274555
0.00274286
0.0027377
0.00270193
0.00273561
0.00273552
0.00270491
0.00270498
0.00273758
0.00270201
0.00273565
0.00273553
0.00270481
0.00270475
0.00273544
0.00270501
0.00270494
0.00273759
0.00270198
0.00273543
0.00270496
0.00270494
0.00270201
0.00269674
0.00266168
0.00269484
0.00269484
0.00266467
0.00266469
0.00269685
0.00266151
0.00269473
0.00269495
0.00266475
0.0026646
0.00269473
0.0026647
0.00266477
0.00269686
0.00266173
0.00269473
0.00266458
0.00266477
0.00266147
0.00265655
0.00262149
0.00265473
0.00265474
0.00262464
0.00262454
0.00265645
0.00262143
0.00265477
0.00265464
0.00262465
0.00262467
0.00265461
0.00262453
0.0026247
0.00265655
0.00262134
0.0026546
0.00262467
0.00262472
0.00262141
0.0026164
0.00258171
0.00261471
0.00261466
0.00258485
0.00258493
0.00261631
0.00258161
0.00261473
0.00261468
0.00258489
0.00258495
0.00261479
0.00258493
0.00258479
0.00261632
0.00258162
0.00261479
0.00258497
0.0025848
0.00258164
0.00257664
0.00254223
0.002575
0.00257497
0.00254546
0.00254553
0.00257658
0.00254231
0.00257503
0.00257507
0.00254545
0.00254542
0.00257506
0.00254552
0.00254545
0.00257665
0.00254213
0.00257507
0.00254546
0.00254546
0.00254214
0.00253721
0.00250311
0.00253559
0.00253574
0.00250631
0.00250612
0.00253738
0.0025029
0.00253558
0.00253556
0.00250631
0.00250631
0.00253554
0.00250613
0.00250627
0.00253714
0.00250314
0.00253555
0.00250633
0.00250629
0.00250299
0.00249817
0.00246412
0.00249653
0.00249647
0.0024673
0.00246732
0.00249797
0.0024643
0.00249651
0.00249659
0.00246731
0.00246724
0.00249669
0.00246731
0.00246735
0.00249828
0.00246421
0.00249671
0.00246724
0.00246735
0.00246429
0.00245929
0.00242546
0.00245762
0.00245754
0.00242849
0.00242854
0.00245924
0.0024257
0.00245761
0.00245753
0.00242847
0.00242845
0.00245754
0.00242857
0.00242849
0.0024592
0.00242535
0.00245753
0.00242844
0.00242848
0.00242505
0.0024204
0.00238727
0.00241879
0.0024189
0.00239004
0.00238993
0.00242083
0.00238685
0.00241879
0.00241884
0.00239005
0.00239002
0.00241887
0.00238991
0.00239001
0.00242047
0.00238742
0.00241887
0.00239003
0.00239003
0.00238731
0.00238243
0.00234885
0.00238042
0.00238038
0.00235164
0.00235169
0.0023819
0.00234903
0.00238043
0.00238039
0.00235162
0.0023516
0.0023804
0.0023517
0.00235165
0.00238252
0.00234868
0.00238042
0.00235164
0.00235163
0.00234887
0.00234385
0.0023107
0.0023421
0.0023421
0.00231351
0.00231347
0.00234416
0.00231079
0.00234207
0.00234208
0.00231352
0.00231349
0.00234208
0.00231348
0.00231353
0.00234372
0.00231076
0.00234206
0.00231351
0.00231352
0.0023107
0.00230583
0.00227287
0.002304
0.00230396
0.0022755
0.0022755
0.00230583
0.00227274
0.002304
0.00230398
0.00227551
0.00227552
0.00230401
0.0022755
0.00227549
0.00230591
0.00227289
0.002304
0.00227552
0.0022755
0.0022729
0.00226796
0.00223501
0.00226604
0.00226603
0.0022377
0.00223774
0.00226786
0.0022351
0.00226605
0.00226604
0.0022377
0.00223768
0.00226605
0.00223774
0.00223771
0.00226797
0.002235
0.00226605
0.00223769
0.00223771
0.00223502
0.00223011
0.00219733
0.00222827
0.00222832
0.00219997
0.00219995
0.00223019
0.00219729
0.00222825
0.00222823
0.00219998
0.00219999
0.00222827
0.00219995
0.00219997
0.00223009
0.00219732
0.00222826
0.0022
0.00219995
0.00219731
0.00219244
0.00215984
0.00219059
0.00219051
0.00216247
0.00216242
0.00219238
0.00215983
0.0021906
0.0021906
0.00216247
0.00216247
0.00219055
0.00216243
0.00216246
0.00219244
0.00215986
0.00219054
0.00216248
0.00216248
0.00215982
0.00215493
0.00212234
0.00215308
0.00215313
0.00212498
0.00212511
0.00215498
0.00212244
0.0021531
0.0021531
0.00212494
0.00212496
0.00215312
0.0021251
0.00212503
0.00215496
0.00212235
0.00215314
0.00212498
0.00212501
0.00212242
0.00211745
0.00208515
0.00211563
0.00211571
0.00208765
0.0020875
0.00211752
0.00208499
0.00211559
0.00211559
0.00208766
0.00208764
0.00211568
0.00208753
0.00208763
0.00211746
0.0020851
0.00211564
0.00208763
0.00208759
0.00208507
0.00208027
0.00204789
0.00207838
0.00207819
0.00205048
0.00205056
0.00208012
0.00204804
0.00207839
0.00207836
0.00205053
0.00205054
0.0020783
0.00205051
0.00205044
0.00208023
0.00204797
0.0020783
0.00205054
0.00205047
0.00204791
0.00204301
0.002011
0.00204116
0.0020413
0.00201337
0.00201339
0.00204315
0.00201093
0.00204121
0.00204124
0.00201336
0.00201337
0.00204117
0.00201342
0.00201342
0.00204309
0.0020109
0.00204119
0.00201336
0.00201341
0.00201099
0.00200614
0.00197408
0.00200419
0.00200415
0.0019766
0.00197655
0.00200607
0.0019741
0.00200413
0.00200411
0.00197647
0.0019765
0.00200424
0.00197656
0.00197668
0.00200602
0.00197416
0.00200421
0.00197654
0.00197666
0.00197415
0.00196923
0.00193715
0.00196734
0.00196733
0.00193948
0.00193948
0.00196924
0.00193708
0.00196726
0.00196735
0.00193961
0.00193962
0.00196733
0.00193943
0.00193929
0.00196933
0.00193711
0.00196733
0.00193963
0.0019393
0.00193693
0.00193227
0.00190054
0.00193021
0.00193021
0.00190278
0.00190281
0.00193222
0.00190065
0.00193036
0.00193029
0.00190277
0.00190265
0.00193007
0.00190287
0.00190293
0.00193218
0.00190045
0.00193009
0.00190263
0.00190294
0.00190076
0.00189575
0.00186436
0.00189378
0.00189381
0.0018668
0.0018667
0.00189587
0.00186427
0.00189369
0.00189364
0.00186663
0.00186675
0.00189398
0.00186666
0.00186684
0.0018957
0.00186454
0.00189397
0.00186679
0.00186677
0.00186432
0.00185948
0.00182749
0.00185761
0.00185746
0.00182966
0.00182963
0.00185937
0.00182743
0.00185752
0.00185768
0.00182987
0.00182992
0.00185757
0.00182965
0.00182947
0.00185969
0.00182751
0.00185753
0.00182989
0.00182958
0.0018273
0.00182267
0.00179144
0.00182047
0.00182057
0.00179356
0.00179372
0.00182263
0.00179163
0.00182068
0.00182065
0.00179347
0.00179328
0.0018203
0.00179367
0.00179361
0.00182264
0.00179123
0.00182042
0.00179333
0.00179356
0.00179154
0.00178666
0.00175559
0.00178468
0.00178478
0.00175784
0.00175741
0.00178688
0.00175531
0.00178451
0.00178432
0.00175774
0.00175771
0.00178481
0.00175765
0.001758
0.00178646
0.00175568
0.00178469
0.00175774
0.00175788
0.00175578
0.00175076
0.00171911
0.00174873
0.00174834
0.00172116
0.00172126
0.00175047
0.00171905
0.00174876
0.00174886
0.00172142
0.00172166
0.00174875
0.0017212
0.00172088
0.00175095
0.00171929
0.00174875
0.00172158
0.00172112
0.00171884
0.0017143
0.00168341
0.00171211
0.00171237
0.00168549
0.00168578
0.00171429
0.00168368
0.00171231
0.00171242
0.00168533
0.0016852
0.00171189
0.00168566
0.00168566
0.0017144
0.0016832
0.00171209
0.00168521
0.00168554
0.00168353
0.00167867
0.00164798
0.00167668
0.00167686
0.00165013
0.00164989
0.00167895
0.00164788
0.00167643
0.00167629
0.00164993
0.00164992
0.0016769
0.00165009
0.00165019
0.00167846
0.00164797
0.00167673
0.00165004
0.0016501
0.00164811
0.00164324
0.00161209
0.00164119
0.00164076
0.0016141
0.00161384
0.00164303
0.00161181
0.00164113
0.00164116
0.00161446
0.00161442
0.00164114
0.00161389
0.00161383
0.00164327
0.0016121
0.00164113
0.00161423
0.00161396
0.0016118
0.0016073
0.00157632
0.0016051
0.00160506
0.00157835
0.0015786
0.00160707
0.00157646
0.00160547
0.00160532
0.00157833
0.00157848
0.00160483
0.00157851
0.0015783
0.0016073
0.00157639
0.001605
0.00157845
0.00157843
0.00157633
0.00157155
0.00154082
0.00156946
0.00156973
0.00154296
0.00154308
0.00157171
0.00154109
0.00156932
0.00156955
0.00154273
0.00154267
0.00156949
0.00154306
0.00154311
0.0015716
0.00154074
0.00156959
0.00154279
0.00154305
0.00154107
0.00153608
0.00150549
0.00153413
0.00153417
0.00150751
0.00150728
0.00153632
0.00150535
0.00153395
0.00153382
0.00150763
0.00150753
0.00153431
0.00150738
0.00150764
0.001536
0.00150548
0.0015342
0.00150755
0.00150756
0.00150546
0.00150077
0.00147036
0.00149869
0.00149848
0.00147243
0.00147243
0.00150059
0.00147028
0.00149883
0.00149877
0.00147243
0.00147251
0.00149865
0.00147236
0.0014721
0.00150077
0.00147037
0.00149862
0.00147237
0.00147211
0.00147013
0.00146564
0.00143507
0.00146363
0.00146368
0.00143706
0.00143722
0.00146559
0.00143521
0.00146362
0.00146375
0.00143712
0.00143724
0.00146347
0.00143727
0.00143752
0.00146567
0.00143519
0.00146347
0.00143731
0.00143756
0.00143541
0.00143033
0.00140003
0.00142827
0.00142843
0.0014021
0.00140202
0.00143048
0.00139998
0.00142833
0.00142833
0.00140201
0.00140174
0.00142868
0.00140204
0.00140184
0.00143042
0.00139975
0.00142872
0.00140177
0.00140177
0.00139977
0.00139531
0.00136488
0.00139337
0.00139322
0.00136692
0.00136681
0.00139522
0.00136472
0.00139324
0.001393
0.00136697
0.00136716
0.00139294
0.00136665
0.00136671
0.00139503
0.00136513
0.00139287
0.00136714
0.00136683
0.00136477
0.00136019
0.00133023
0.0013581
0.00135814
0.0013322
0.00133235
0.00136004
0.00133036
0.00135824
0.00135859
0.0013323
0.0013323
0.00135811
0.00133238
0.00133244
0.00136052
0.00133022
0.00135835
0.00133228
0.00133253
0.00133047
0.00132554
0.00129504
0.0013236
0.00132371
0.00129733
0.00129731
0.00132573
0.00129532
0.00132356
0.00132341
0.00129706
0.0012968
0.00132386
0.00129756
0.00129761
0.00132545
0.00129469
0.00132381
0.00129685
0.00129715
0.00129524
0.00129027
0.00126022
0.00128847
0.00128846
0.00126221
0.00126225
0.00129055
0.00126011
0.00128823
0.00128806
0.00126231
0.00126253
0.00128867
0.0012622
0.00126208
0.00128994
0.00126046
0.00128824
0.00126252
0.00126213
0.00126003
0.00125561
0.00122619
0.00125362
0.00125361
0.00122798
0.00122789
0.00125539
0.00122578
0.00125382
0.0012541
0.00122827
0.00122848
0.00125335
0.00122765
0.00122754
0.00125591
0.00122653
0.00125357
0.00122839
0.00122801
0.00122579
0.00122156
0.00119128
0.00121943
0.00121931
0.00119352
0.00119348
0.00122116
0.00119146
0.00121964
0.00121975
0.00119337
0.00119316
0.00121906
0.00119355
0.00119385
0.00122183
0.00119119
0.00121946
0.00119335
0.00119386
0.00119185
0.00118654
0.00115655
0.00118477
0.0011848
0.0011588
0.0011589
0.0011868
0.00115688
0.00118458
0.00118443
0.00115858
0.00115845
0.00118543
0.00115905
0.00115903
0.00118644
0.00115617
0.00118522
0.00115844
0.00115859
0.00115664
0.00115183
0.00112147
0.00115009
0.00115026
0.0011236
0.00112369
0.00115214
0.00112146
0.00114989
0.00114975
0.00112353
0.00112345
0.00115001
0.00112352
0.00112291
0.00115141
0.00112135
0.00114958
0.00112324
0.00112279
0.00112074
0.00111671
0.00108705
0.00111475
0.00111474
0.00108871
0.0010885
0.00111661
0.00108663
0.00111478
0.00111478
0.00108912
0.00108932
0.00111407
0.00108854
0.00108892
0.00111669
0.00108757
0.00111414
0.00108935
0.00108937
0.00108729
0.00108247
0.00105338
0.00108026
0.00108011
0.00105534
0.00105544
0.00108212
0.00105368
0.00108068
0.00108097
0.0010554
0.00105566
0.00108074
0.00105563
0.00105616
0.00108312
0.00105353
0.0010812
0.00105582
0.00105613
0.00105397
0.00104877
0.00101844
0.001047
0.00104713
0.00102087
0.0010207
0.00104912
0.00101835
0.00104682
0.0010469
0.00102056
0.00102021
0.00104741
0.0010205
0.00102009
0.00104874
0.00101785
0.00104716
0.00102
0.00101975
0.00101773
0.00101359
0.000983375
0.00101195
0.00101173
0.000985466
0.000985474
0.00101348
0.000983428
0.00101172
0.00101132
0.000985473
0.000985225
0.00101112
0.000985509
0.000985362
0.00101302
0.000983305
0.00101086
0.000985333
0.000985406
0.00098347
0.000978757
0.000949952
0.000976902
0.000977029
0.000951728
0.000951926
0.000978902
0.000950132
0.000976927
0.000976762
0.000951841
0.000952067
0.000977186
0.000952081
0.000952318
0.000978816
0.000950286
0.000977274
0.000952251
0.000952419
0.000950512
0.000945364
0.000915351
0.000943291
0.000943421
0.000917307
0.000917142
0.000945512
0.000914979
0.000943363
0.000943634
0.000917443
0.000917652
0.000943701
0.000917008
0.000917073
0.000945703
0.000915481
0.000943829
0.000917553
0.000917234
0.000915035
0.000910474
0.000879376
0.000908438
0.000908178
0.000881522
0.000881421
0.000910087
0.000879376
0.000908537
0.000908637
0.000881461
0.000881421
0.000908099
0.000881427
0.000881532
0.000910542
0.000879323
0.000908201
0.000881418
0.00088148
0.00087937
0.000874575
0.000845454
0.000872716
0.000872718
0.000847412
0.000847541
0.000874652
0.000845634
0.00087262
0.00087258
0.000847339
0.000847168
0.000872882
0.00084756
0.000847547
0.000874513
0.000845233
0.000872789
0.000847141
0.000847426
0.000845539
0.000841051
0.000812873
0.00083927
0.000839382
0.000814818
0.000814826
0.000841194
0.000812799
0.000839262
0.000839052
0.000814838
0.000814797
0.000839312
0.000814788
0.000814554
0.00084081
0.000812882
0.000839218
0.000814713
0.000814533
0.000812637
0.000808277
0.00077784
0.000806388
0.000806361
0.000779948
0.000779863
0.000808177
0.000777765
0.000806446
0.000806481
0.000780044
0.000780095
0.000806085
0.000779945
0.000779823
0.00080835
0.000777965
0.000806112
0.000780135
0.000779892
0.000777782
0.000772883
0.000741507
0.000770858
0.000770779
0.000743573
0.000743527
0.000772816
0.000741533
0.000770955
0.000770975
0.000743559
0.00074356
0.000770813
0.000743531
0.000743589
0.000773023
0.000741494
0.000770883
0.000743642
0.000743637
0.000741592
0.000736709
0.000707313
0.000734736
0.000734722
0.000709178
0.000709259
0.000736757
0.000707435
0.000734648
0.000734631
0.000709025
0.000709038
0.00073481
0.000709182
0.000709355
0.000736641
0.000707228
0.000734809
0.000709024
0.000709268
0.00070744
0.00070277
0.000673775
0.000700829
0.000700941
0.000675724
0.00067588
0.000702918
0.000673861
0.000700664
0.000700736
0.000675751
0.000675793
0.000701029
0.000675958
0.000675973
0.000702707
0.000673912
0.000700941
0.000675834
0.00067598
0.00067395
0.000669088
0.00063855
0.000667138
0.00066723
0.000640671
0.00064053
0.000669116
0.000638352
0.00066723
0.000667307
0.000640812
0.000640817
0.000667269
0.000640504
0.000640439
0.000669249
0.000638577
0.000667351
0.00064075
0.00064054
0.000638338
0.00063366
0.000603251
0.000631743
0.000631544
0.00060529
0.000605073
0.000633437
0.000603089
0.000631854
0.000631827
0.000605256
0.000605228
0.000631447
0.000605018
0.000605044
0.000633667
0.000603155
0.000631536
0.000605183
0.000605014
0.000603036
0.000598569
0.000569409
0.000596699
0.000596559
0.000571307
0.000571466
0.000598479
0.000569672
0.000596611
0.000596602
0.000571197
0.000571253
0.00059658
0.000571535
0.000571613
0.000598481
0.000569442
0.000596521
0.00057133
0.000571501
0.000569752
0.000564813
0.000535042
0.00056286
0.000563079
0.000537041
0.000537164
0.000565116
0.000535128
0.000562763
0.000562825
0.000537045
0.000537058
0.000563241
0.000537197
0.000537107
0.000564866
0.000535105
0.000563141
0.000537093
0.000537107
0.000535115
0.000530227
0.000499418
0.000528229
0.000528257
0.000501433
0.000501279
0.000530261
0.00049919
0.00052826
0.000528259
0.000501507
0.000501394
0.000528178
0.000501207
0.000501088
0.000530286
0.000499322
0.000528213
0.000501306
0.000501149
0.000499065
0.000494536
0.000464245
0.000492503
0.000492343
0.000466214
0.000466136
0.000494312
0.000464181
0.000492572
0.000492435
0.00046621
0.000466094
0.000492184
0.000466108
0.000466145
0.000494434
0.000464122
0.00049223
0.000466079
0.000466159
0.00046418
0.000459565
0.000429819
0.000457641
0.00045759
0.000431846
0.000431904
0.000459526
0.000429917
0.000457609
0.000457513
0.000431832
0.000432046
0.000457636
0.000432014
0.000432228
0.000459452
0.000430024
0.000457635
0.000432178
0.000432234
0.000430168
0.000425089
0.000394665
0.000423151
0.000423203
0.000396742
0.00039677
0.000425169
0.000394708
0.000423154
0.000423419
0.000396785
0.000396984
0.000423507
0.000396831
0.000396855
0.000425305
0.000394912
0.000423516
0.00039699
0.000396849
0.000394791
0.000389808
0.000359444
0.000387858
0.00038791
0.000361462
0.000361485
0.000389857
0.000359464
0.000387881
0.000388047
0.000361394
0.000361169
0.000387933
0.000361376
0.000361166
0.000390032
0.000359145
0.00038792
0.000361066
0.000361098
0.000359172
0.000354647
0.000324444
0.000352698
0.000352705
0.000326435
0.000326366
0.000354672
0.00032437
0.000352621
0.000352276
0.000326364
0.00032604
0.000352387
0.000326309
0.000326199
0.000354311
0.000324112
0.000352305
0.000325999
0.000326164
0.000324242
0.000319649
0.000289027
0.000317633
0.000317555
0.000290967
0.000290949
0.000319568
0.000288958
0.000317616
0.000317373
0.000291089
0.000291306
0.000317454
0.000291035
0.000291163
0.000319376
0.000289307
0.000317453
0.000291367
0.00029126
0.0002892
0.000284183
0.000253394
0.00028208
0.000282091
0.000255401
0.000255534
0.000284122
0.000253548
0.000282199
0.00028254
0.000255467
0.000255819
0.000282354
0.000255619
0.000255791
0.000284517
0.000253748
0.000282478
0.000255913
0.000255845
0.000253739
0.000248595
0.000218672
0.000246623
0.000246752
0.000220708
0.000220688
0.000248752
0.000218676
0.000246642
0.000246891
0.000220641
0.00022054
0.000246968
0.000220627
0.000220627
0.000248888
0.000218525
0.000246982
0.00022048
0.000220556
0.000218572
0.000213946
0.000183666
0.000212073
0.000212003
0.000185804
0.000185662
0.000213926
0.000183519
0.000211993
0.000211817
0.000185705
0.000185374
0.000211842
0.000185527
0.000185288
0.000213759
0.000183278
0.000211757
0.000185242
0.000185195
0.000183209
0.000178734
0.000147393
0.000176778
0.000176689
0.000149416
0.000149487
0.000178621
0.000147447
0.000176694
0.000176423
0.000149429
0.00014942
0.000176356
0.00014954
0.000149527
0.000178374
0.000147465
0.000176257
0.000149495
0.000149549
0.000147558
0.000142478
0.000111952
0.000140406
0.000140471
0.00011381
0.000113826
0.000142526
0.000111935
0.000140446
0.000140547
0.000113949
0.000114193
0.000140649
0.000113937
0.000114149
0.000142611
0.000112256
0.000140712
0.000114284
0.000114259
0.000112226
0.000107171
7.69196e-05
0.000105129
0.000105099
7.89229e-05
7.88941e-05
0.00010713
7.68939e-05
0.000105248
0.000105452
7.89437e-05
7.90046e-05
0.00010536
7.89008e-05
7.89269e-05
0.000107455
7.68929e-05
0.000105472
7.89739e-05
7.89227e-05
7.68246e-05
7.19888e-05
4.07479e-05
7.00771e-05
7.00975e-05
4.29571e-05
4.30109e-05
7.1998e-05
4.08656e-05
7.00311e-05
6.99833e-05
4.28307e-05
4.26786e-05
6.99947e-05
4.29293e-05
4.27895e-05
7.18999e-05
4.05429e-05
6.99289e-05
4.26256e-05
4.26966e-05
4.06434e-05
3.56681e-05
8.0378e-06
3.38907e-05
3.39927e-05
1.10067e-05
1.09454e-05
3.5809e-05
7.91879e-06
3.37585e-05
3.36643e-05
1.10143e-05
1.09806e-05
3.3804e-05
1.0898e-05
1.08883e-05
3.54902e-05
8.01973e-06
3.3726e-05
1.0949e-05
1.09099e-05
7.94785e-06
4.84056e-06
6.56159e-06
6.49378e-06
4.69507e-06
6.65635e-06
6.62793e-06
5.38093e-06
5.51253e-06
5.36183e-06
6.46035e-06
4.84188e-06
6.52939e-06
0.00353202
0.00353448
0.00353311
0.00353356
0.00356
0.00353417
0.00356373
0.00353452
0.00356355
0.00353528
0.00353585
0.00356549
0.00354542
0.0035664
0.00357305
0.00350433
0.00351805
0.00352194
0.00349668
0.00349472
0.00349994
0.00350445
0.003518
0.00352206
0.00349682
0.00352024
0.00352059
0.00352022
0.00349389
0.00349384
0.00349384
0.00349366
0.00350381
0.00351537
0.00352067
0.00351148
0.00352275
0.00350106
0.00351168
0.00349544
0.00350035
0.00350406
0.00352122
0.00351651
0.00351161
0.00352361
0.00351195
0.00350135
0.00352094
0.00351847
0.00350836
0.00350055
0.00350006
0.00347674
0.00349103
0.00349089
0.00347478
0.0034882
0.0034738
0.00347674
0.00349115
0.00349095
0.00347481
0.00348474
0.00348469
0.00348461
0.00345635
0.00345633
0.00345623
0.00345621
0.00347444
0.00348947
0.00348321
0.00347377
0.00348789
0.00347499
0.00347374
0.00348836
0.00347384
0.00347445
0.00348327
0.00348973
0.00347392
0.00348796
0.00347385
0.003475
0.003491
0.00349113
0.00347216
0.00347537
0.00347525
0.00343422
0.00344892
0.00344984
0.00343293
0.00344773
0.00343206
0.00343413
0.00344899
0.00344989
0.00343282
0.00344624
0.0034461
0.00344613
0.00341365
0.00341367
0.00341357
0.00341355
0.00343287
0.00344845
0.00344432
0.00343388
0.00344742
0.0034334
0.00343386
0.00344783
0.00343191
0.00343286
0.00344432
0.00344861
0.00343393
0.00344746
0.00343388
0.00343332
0.00344913
0.00344911
0.00343117
0.00343318
0.00343319
0.00338784
0.00340434
0.00340574
0.00338641
0.00340354
0.00338595
0.00338781
0.0034042
0.00340571
0.00338649
0.00340212
0.00340203
0.00340203
0.00336621
0.00336623
0.00336616
0.00336616
0.00338699
0.00340409
0.00340039
0.00338866
0.00340348
0.00338715
0.00338868
0.00340351
0.00338583
0.00338695
0.00340044
0.00340414
0.00338872
0.00340349
0.00338868
0.00338708
0.00340434
0.00340435
0.00338543
0.00338657
0.00338656
0.00333897
0.00335603
0.00335738
0.00333772
0.00335563
0.0033374
0.00333888
0.00335614
0.00335737
0.00333761
0.00335403
0.00335396
0.00335395
0.00331734
0.00331735
0.00331729
0.00331728
0.00333851
0.00335606
0.0033526
0.00334038
0.00335569
0.00333844
0.00334041
0.00335561
0.00333737
0.00333847
0.00335254
0.00335606
0.00334053
0.00335564
0.0033404
0.00333843
0.00335607
0.00335597
0.00333701
0.00333782
0.00333787
0.00328983
0.00330714
0.00330814
0.00328897
0.00330685
0.00328871
0.00328976
0.00330722
0.00330812
0.00328904
0.00330515
0.00330511
0.00330509
0.00326885
0.00326888
0.00326885
0.0032688
0.00328975
0.00330714
0.00330388
0.00329177
0.00330691