/*--------------------------------*- C++ -*----------------------------------*\
| =========                 |                                                 |
| \\      /  F ield         | OpenFOAM: The Open Source CFD Toolbox           |
|  \\    /   O peration     | Version:  v2012                                 |
|   \\  /    A nd           | Website:  www.openfoam.com                      |
|    \\/     M anipulation  |                                                 |
\*---------------------------------------------------------------------------*/
FoamFile
{
    version     2.0;
    format      ascii;
    class       volScalarField;
    location    "0.04";
    object      p;
}
// * * * * * * * * * * * * * * * * * * * * * * * * * * * * * * * * * * * * * //

dimensions      [0 2 -2 0 0 0 0];


internalField   nonuniform List<scalar> 
247104
(
2.18113e-06
2.18274e-06
2.18232e-06
2.18219e-06
2.1818e-06
2.18228e-06
2.18243e-06
2.1827e-06
2.18272e-06
2.18289e-06
2.18297e-06
2.18275e-06
2.18255e-06
2.18282e-06
2.18302e-06
2.1829e-06
2.18232e-06
2.18297e-06
2.18277e-06
2.18237e-06
2.1822e-06
2.18243e-06
2.18285e-06
2.18299e-06
2.18222e-06
2.18218e-06
2.18274e-06
2.18236e-06
2.18188e-06
2.1817e-06
2.18195e-06
2.18246e-06
2.18278e-06
2.18203e-06
2.1811e-06
2.18178e-06
2.18255e-06
2.18219e-06
2.1817e-06
2.18152e-06
2.18177e-06
2.18228e-06
2.18257e-06
2.18161e-06
2.18227e-06
2.18281e-06
2.18243e-06
2.18195e-06
2.18177e-06
2.18201e-06
2.18252e-06
2.18285e-06
2.18211e-06
2.18243e-06
2.18303e-06
2.18285e-06
2.18246e-06
2.18229e-06
2.18252e-06
2.18293e-06
2.18304e-06
2.18234e-06
2.18269e-06
2.1829e-06
2.18299e-06
2.18279e-06
2.18258e-06
2.18286e-06
2.18304e-06
2.18291e-06
2.18222e-06
2.18203e-06
2.18161e-06
2.18212e-06
2.18234e-06
2.14821e-06
2.14594e-06
2.14954e-06
2.14725e-06
2.14544e-06
2.14586e-06
2.1457e-06
2.15133e-06
2.15017e-06
2.14956e-06
2.14583e-06
2.14065e-06
2.14021e-06
2.14022e-06
2.14066e-06
2.14592e-06
2.14688e-06
2.14725e-06
2.14064e-06
2.14048e-06
2.14041e-06
2.14042e-06
2.1405e-06
2.14067e-06
2.14677e-06
2.15264e-06
2.14822e-06
2.14543e-06
2.1402e-06
2.14041e-06
2.14058e-06
2.14059e-06
2.14043e-06
2.14023e-06
2.14545e-06
2.15021e-06
2.14593e-06
2.14584e-06
2.14021e-06
2.14042e-06
2.14058e-06
2.14059e-06
2.14043e-06
2.14024e-06
2.14575e-06
2.14539e-06
2.14569e-06
2.14066e-06
2.14049e-06
2.14043e-06
2.14043e-06
2.14051e-06
2.1407e-06
2.14577e-06
2.14846e-06
2.15133e-06
2.14591e-06
2.14067e-06
2.14023e-06
2.14024e-06
2.14069e-06
2.14545e-06
2.14709e-06
2.15262e-06
2.15014e-06
2.14689e-06
2.14677e-06
2.14545e-06
2.14575e-06
2.14577e-06
2.14708e-06
2.15372e-06
2.15264e-06
2.15021e-06
2.14539e-06
2.14849e-06
2.1526e-06
2.12831e-06
2.12838e-06
2.12759e-06
2.12548e-06
2.1254e-06
2.12533e-06
2.12549e-06
2.12858e-06
2.12842e-06
2.12761e-06
2.12528e-06
2.12243e-06
2.12222e-06
2.12223e-06
2.12243e-06
2.12726e-06
2.12615e-06
2.12546e-06
2.12242e-06
2.12187e-06
2.12179e-06
2.12179e-06
2.12188e-06
2.12245e-06
2.1278e-06
2.12927e-06
2.12835e-06
2.12538e-06
2.12221e-06
2.12178e-06
2.12167e-06
2.12168e-06
2.1218e-06
2.12225e-06
2.12712e-06
2.1282e-06
2.12837e-06
2.12531e-06
2.12221e-06
2.12178e-06
2.12168e-06
2.12168e-06
2.12181e-06
2.12225e-06
2.12673e-06
2.12547e-06
2.12548e-06
2.12241e-06
2.12187e-06
2.12179e-06
2.1218e-06
2.12189e-06
2.12247e-06
2.12756e-06
2.12877e-06
2.12857e-06
2.12726e-06
2.12245e-06
2.12223e-06
2.12223e-06
2.12244e-06
2.12786e-06
2.1271e-06
2.12885e-06
2.12837e-06
2.12616e-06
2.12779e-06
2.12712e-06
2.12672e-06
2.12753e-06
2.12709e-06
2.12931e-06
2.12928e-06
2.1282e-06
2.12547e-06
2.12878e-06
2.12886e-06
2.10479e-06
2.10482e-06
2.10464e-06
2.1025e-06
2.10234e-06
2.1022e-06
2.10257e-06
2.10583e-06
2.10551e-06
2.10464e-06
2.10222e-06
2.099e-06
2.09888e-06
2.09888e-06
2.099e-06
2.10512e-06
2.10354e-06
2.1025e-06
2.09901e-06
2.09889e-06
2.09886e-06
2.09886e-06
2.09889e-06
2.09899e-06
2.10575e-06
2.10622e-06
2.10478e-06
2.10234e-06
2.09887e-06
2.09885e-06
2.09885e-06
2.09885e-06
2.09886e-06
2.09887e-06
2.10523e-06
2.10489e-06
2.10483e-06
2.10219e-06
2.09888e-06
2.09886e-06
2.09885e-06
2.09885e-06
2.09886e-06
2.09888e-06
2.1048e-06
2.1023e-06
2.10257e-06
2.09901e-06
2.09889e-06
2.09886e-06
2.09886e-06
2.09889e-06
2.099e-06
2.10561e-06
2.10547e-06
2.10583e-06
2.10513e-06
2.099e-06
2.09887e-06
2.09888e-06
2.09901e-06
2.10653e-06
2.10483e-06
2.10596e-06
2.10554e-06
2.10356e-06
2.10575e-06
2.10522e-06
2.1048e-06
2.10561e-06
2.10483e-06
2.10636e-06
2.10622e-06
2.10489e-06
2.10232e-06
2.10547e-06
2.10595e-06
2.08272e-06
2.08279e-06
2.08249e-06
2.08017e-06
2.08e-06
2.07982e-06
2.08026e-06
2.08368e-06
2.08323e-06
2.08241e-06
2.07921e-06
2.07576e-06
2.07574e-06
2.07574e-06
2.07576e-06
2.08254e-06
2.08127e-06
2.08016e-06
2.07576e-06
2.07575e-06
2.07575e-06
2.07575e-06
2.07575e-06
2.07575e-06
2.08379e-06
2.08418e-06
2.08273e-06
2.08e-06
2.07574e-06
2.07576e-06
2.07576e-06
2.07576e-06
2.07575e-06
2.07574e-06
2.0836e-06
2.08283e-06
2.0828e-06
2.07984e-06
2.07574e-06
2.07576e-06
2.07576e-06
2.07576e-06
2.07576e-06
2.07574e-06
2.08322e-06
2.08023e-06
2.08028e-06
2.07577e-06
2.07576e-06
2.07576e-06
2.07576e-06
2.07575e-06
2.07576e-06
2.08385e-06
2.08344e-06
2.08371e-06
2.08255e-06
2.07576e-06
2.07575e-06
2.07574e-06
2.07576e-06
2.0845e-06
2.08265e-06
2.08388e-06
2.08324e-06
2.08128e-06
2.08381e-06
2.08362e-06
2.08324e-06
2.08385e-06
2.08265e-06
2.08413e-06
2.08419e-06
2.08284e-06
2.08025e-06
2.08344e-06
2.0839e-06
2.06039e-06
2.06047e-06
2.06003e-06
2.05773e-06
2.05751e-06
2.0573e-06
2.05783e-06
2.06132e-06
2.06085e-06
2.06002e-06
2.05651e-06
2.05294e-06
2.05293e-06
2.05293e-06
2.05293e-06
2.05993e-06
2.05887e-06
2.05774e-06
2.05294e-06
2.05294e-06
2.05294e-06
2.05293e-06
2.05293e-06
2.05293e-06
2.06143e-06
2.06186e-06
2.06038e-06
2.05752e-06
2.05293e-06
2.05294e-06
2.05294e-06
2.05294e-06
2.05293e-06
2.05293e-06
2.06138e-06
2.06047e-06
2.06045e-06
2.0573e-06
2.05293e-06
2.05294e-06
2.05294e-06
2.05294e-06
2.05293e-06
2.05292e-06
2.06096e-06
2.05787e-06
2.05784e-06
2.05294e-06
2.05293e-06
2.05293e-06
2.05293e-06
2.05293e-06
2.05293e-06
2.06156e-06
2.06109e-06
2.06134e-06
2.05995e-06
2.05294e-06
2.05293e-06
2.05293e-06
2.05293e-06
2.06212e-06
2.06028e-06
2.06153e-06
2.06088e-06
2.0589e-06
2.06145e-06
2.06139e-06
2.06097e-06
2.06156e-06
2.06027e-06
2.06173e-06
2.06188e-06
2.06048e-06
2.05788e-06
2.0611e-06
2.06155e-06
2.03782e-06
2.03792e-06
2.03744e-06
2.03511e-06
2.03488e-06
2.03469e-06
2.03524e-06
2.03876e-06
2.03829e-06
2.03745e-06
2.03382e-06
2.03022e-06
2.03021e-06
2.03021e-06
2.03021e-06
2.03729e-06
2.03631e-06
2.03512e-06
2.03022e-06
2.03022e-06
2.03022e-06
2.03022e-06
2.03021e-06
2.03022e-06
2.03886e-06
2.03929e-06
2.03784e-06
2.0349e-06
2.03021e-06
2.03022e-06
2.03022e-06
2.03022e-06
2.03022e-06
2.03021e-06
2.03883e-06
2.0379e-06
2.03789e-06
2.03467e-06
2.03021e-06
2.03022e-06
2.03022e-06
2.03022e-06
2.03022e-06
2.03021e-06
2.03842e-06
2.03531e-06
2.03523e-06
2.03022e-06
2.03022e-06
2.03022e-06
2.03022e-06
2.03022e-06
2.03021e-06
2.03898e-06
2.03853e-06
2.03878e-06
2.0373e-06
2.03022e-06
2.03022e-06
2.03022e-06
2.03022e-06
2.03954e-06
2.0377e-06
2.03897e-06
2.03831e-06
2.03631e-06
2.03886e-06
2.03884e-06
2.03843e-06
2.03901e-06
2.03769e-06
2.03919e-06
2.0393e-06
2.0379e-06
2.03534e-06
2.03854e-06
2.03898e-06
2.01517e-06
2.01527e-06
2.0148e-06
2.01246e-06
2.01222e-06
2.01203e-06
2.01259e-06
2.01611e-06
2.01564e-06
2.01482e-06
2.01114e-06
2.00753e-06
2.00753e-06
2.00753e-06
2.00753e-06
2.01463e-06
2.01365e-06
2.01247e-06
2.00753e-06
2.00753e-06
2.00753e-06
2.00753e-06
2.00753e-06
2.00753e-06
2.01622e-06
2.01665e-06
2.01521e-06
2.01224e-06
2.00753e-06
2.00753e-06
2.00753e-06
2.00753e-06
2.00753e-06
2.00753e-06
2.01621e-06
2.01526e-06
2.01527e-06
2.01207e-06
2.00753e-06
2.00753e-06
2.00753e-06
2.00753e-06
2.00753e-06
2.00753e-06
2.0158e-06
2.01269e-06
2.01257e-06
2.00753e-06
2.00753e-06
2.00753e-06
2.00753e-06
2.00753e-06
2.00754e-06
2.01634e-06
2.01588e-06
2.01613e-06
2.01463e-06
2.00753e-06
2.00753e-06
2.00753e-06
2.00753e-06
2.0169e-06
2.01505e-06
2.01632e-06
2.01566e-06
2.01365e-06
2.01622e-06
2.01621e-06
2.0158e-06
2.01637e-06
2.01504e-06
2.01653e-06
2.01666e-06
2.01526e-06
2.01269e-06
2.0159e-06
2.01634e-06
1.99251e-06
1.99261e-06
1.99214e-06
1.9898e-06
1.98956e-06
1.98937e-06
1.98992e-06
1.99347e-06
1.99299e-06
1.99215e-06
1.98847e-06
1.98486e-06
1.98485e-06
1.98486e-06
1.98485e-06
1.99195e-06
1.99098e-06
1.9898e-06
1.98485e-06
1.98485e-06
1.98485e-06
1.98485e-06
1.98485e-06
1.98486e-06
1.99355e-06
1.99398e-06
1.99252e-06
1.98956e-06
1.98485e-06
1.98485e-06
1.98485e-06
1.98485e-06
1.98485e-06
1.98485e-06
1.99354e-06
1.9926e-06
1.9926e-06
1.98941e-06
1.98485e-06
1.98485e-06
1.98485e-06
1.98486e-06
1.98485e-06
1.98486e-06
1.99315e-06
1.99003e-06
1.98991e-06
1.98485e-06
1.98485e-06
1.98485e-06
1.98485e-06
1.98485e-06
1.98486e-06
1.99368e-06
1.99323e-06
1.99347e-06
1.99196e-06
1.98485e-06
1.98486e-06
1.98486e-06
1.98485e-06
1.99424e-06
1.99239e-06
1.99366e-06
1.993e-06
1.99099e-06
1.99356e-06
1.99356e-06
1.99315e-06
1.99371e-06
1.99239e-06
1.99388e-06
1.99401e-06
1.9926e-06
1.99003e-06
1.99324e-06
1.99368e-06
1.96985e-06
1.96995e-06
1.96947e-06
1.96713e-06
1.96689e-06
1.9667e-06
1.96725e-06
1.9708e-06
1.97032e-06
1.96949e-06
1.9658e-06
1.96218e-06
1.96218e-06
1.96218e-06
1.96218e-06
1.96928e-06
1.96831e-06
1.96713e-06
1.96218e-06
1.96218e-06
1.96218e-06
1.96218e-06
1.96218e-06
1.96218e-06
1.97089e-06
1.97132e-06
1.96985e-06
1.96689e-06
1.96218e-06
1.96218e-06
1.96218e-06
1.96218e-06
1.96218e-06
1.96218e-06
1.97088e-06
1.96993e-06
1.96993e-06
1.96674e-06
1.96218e-06
1.96218e-06
1.96218e-06
1.96218e-06
1.96218e-06
1.96218e-06
1.97048e-06
1.96736e-06
1.96724e-06
1.96218e-06
1.96218e-06
1.96218e-06
1.96218e-06
1.96218e-06
1.96218e-06
1.97102e-06
1.97056e-06
1.9708e-06
1.96928e-06
1.96218e-06
1.96218e-06
1.96218e-06
1.96219e-06
1.97157e-06
1.96973e-06
1.97099e-06
1.97033e-06
1.96832e-06
1.97089e-06
1.97089e-06
1.97048e-06
1.97104e-06
1.96972e-06
1.97121e-06
1.97132e-06
1.96993e-06
1.96736e-06
1.97057e-06
1.97101e-06
1.94718e-06
1.94728e-06
1.94679e-06
1.94446e-06
1.94422e-06
1.94403e-06
1.94459e-06
1.94813e-06
1.94761e-06
1.94681e-06
1.94313e-06
1.93951e-06
1.93951e-06
1.93951e-06
1.93951e-06
1.94661e-06
1.94564e-06
1.94446e-06
1.93951e-06
1.93951e-06
1.93951e-06
1.93951e-06
1.93951e-06
1.93951e-06
1.94821e-06
1.94864e-06
1.94718e-06
1.94422e-06
1.93951e-06
1.93951e-06
1.93951e-06
1.93951e-06
1.93951e-06
1.93951e-06
1.9482e-06
1.94726e-06
1.94726e-06
1.94406e-06
1.93951e-06
1.93951e-06
1.93951e-06
1.93951e-06
1.93951e-06
1.93951e-06
1.94781e-06
1.94469e-06
1.94457e-06
1.93951e-06
1.93951e-06
1.93951e-06
1.93951e-06
1.93951e-06
1.93951e-06
1.94835e-06
1.94789e-06
1.94813e-06
1.94661e-06
1.93951e-06
1.93951e-06
1.93951e-06
1.93951e-06
1.9489e-06
1.94705e-06
1.94832e-06
1.94766e-06
1.94565e-06
1.94822e-06
1.94822e-06
1.94781e-06
1.94838e-06
1.94705e-06
1.94854e-06
1.94865e-06
1.94726e-06
1.94469e-06
1.9479e-06
1.94835e-06
1.9245e-06
1.9246e-06
1.92419e-06
1.92179e-06
1.92155e-06
1.92136e-06
1.92192e-06
1.92546e-06
1.92496e-06
1.92414e-06
1.92045e-06
1.91684e-06
1.91684e-06
1.91684e-06
1.91684e-06
1.92393e-06
1.92296e-06
1.92179e-06
1.91684e-06
1.91684e-06
1.91684e-06
1.91684e-06
1.91684e-06
1.91684e-06
1.92554e-06
1.92597e-06
1.92451e-06
1.92155e-06
1.91684e-06
1.91684e-06
1.91684e-06
1.91684e-06
1.91684e-06
1.91684e-06
1.92553e-06
1.92459e-06
1.92459e-06
1.92139e-06
1.91684e-06
1.91684e-06
1.91684e-06
1.91684e-06
1.91684e-06
1.91684e-06
1.92514e-06
1.92202e-06
1.9219e-06
1.91684e-06
1.91684e-06
1.91684e-06
1.91684e-06
1.91684e-06
1.91684e-06
1.92567e-06
1.92522e-06
1.92545e-06
1.92394e-06
1.91684e-06
1.91684e-06
1.91684e-06
1.91684e-06
1.92622e-06
1.92438e-06
1.92565e-06
1.92499e-06
1.92298e-06
1.92555e-06
1.92555e-06
1.92514e-06
1.92571e-06
1.92437e-06
1.92586e-06
1.92598e-06
1.92459e-06
1.92202e-06
1.92523e-06
1.92567e-06
1.90184e-06
1.90193e-06
1.90144e-06
1.89912e-06
1.89888e-06
1.89869e-06
1.89924e-06
1.90279e-06
1.90229e-06
1.90147e-06
1.89779e-06
1.89417e-06
1.89417e-06
1.89417e-06
1.89417e-06
1.90126e-06
1.9003e-06
1.89912e-06
1.89417e-06
1.89417e-06
1.89417e-06
1.89417e-06
1.89417e-06
1.89417e-06
1.90287e-06
1.9033e-06
1.90183e-06
1.89888e-06
1.89417e-06
1.89417e-06
1.89417e-06
1.89417e-06
1.89417e-06
1.89417e-06
1.90286e-06
1.90192e-06
1.90192e-06
1.89872e-06
1.89417e-06
1.89417e-06
1.89417e-06
1.89417e-06
1.89417e-06
1.89417e-06
1.90247e-06
1.89935e-06
1.89923e-06
1.89417e-06
1.89417e-06
1.89417e-06
1.89417e-06
1.89417e-06
1.89417e-06
1.903e-06
1.90254e-06
1.90278e-06
1.90127e-06
1.89417e-06
1.89417e-06
1.89417e-06
1.89417e-06
1.90355e-06
1.90171e-06
1.90297e-06
1.90232e-06
1.90031e-06
1.90287e-06
1.90288e-06
1.90246e-06
1.90303e-06
1.9017e-06
1.90319e-06
1.90331e-06
1.90191e-06
1.89935e-06
1.90256e-06
1.903e-06
1.87916e-06
1.87926e-06
1.87885e-06
1.87645e-06
1.8762e-06
1.87602e-06
1.87657e-06
1.88012e-06
1.87962e-06
1.8788e-06
1.87512e-06
1.8715e-06
1.8715e-06
1.8715e-06
1.8715e-06
1.87859e-06
1.87763e-06
1.87645e-06
1.8715e-06
1.8715e-06
1.8715e-06
1.8715e-06
1.8715e-06
1.8715e-06
1.8802e-06
1.88063e-06
1.87919e-06
1.87621e-06
1.8715e-06
1.8715e-06
1.8715e-06
1.8715e-06
1.8715e-06
1.8715e-06
1.88019e-06
1.87925e-06
1.87925e-06
1.87605e-06
1.8715e-06
1.8715e-06
1.8715e-06
1.8715e-06
1.8715e-06
1.8715e-06
1.8798e-06
1.87668e-06
1.87656e-06
1.8715e-06
1.8715e-06
1.8715e-06
1.8715e-06
1.8715e-06
1.8715e-06
1.88033e-06
1.87988e-06
1.88011e-06
1.8786e-06
1.8715e-06
1.8715e-06
1.8715e-06
1.8715e-06
1.88088e-06
1.87904e-06
1.8803e-06
1.87965e-06
1.87764e-06
1.88021e-06
1.88021e-06
1.87979e-06
1.88036e-06
1.87903e-06
1.88052e-06
1.88064e-06
1.87925e-06
1.87668e-06
1.87989e-06
1.88033e-06
1.85649e-06
1.85659e-06
1.85618e-06
1.85378e-06
1.85353e-06
1.85334e-06
1.8539e-06
1.85745e-06
1.85695e-06
1.85613e-06
1.85245e-06
1.84883e-06
1.84883e-06
1.84883e-06
1.84883e-06
1.85592e-06
1.85496e-06
1.85378e-06
1.84883e-06
1.84883e-06
1.84883e-06
1.84883e-06
1.84883e-06
1.84883e-06
1.85753e-06
1.85796e-06
1.85652e-06
1.85354e-06
1.84883e-06
1.84883e-06
1.84883e-06
1.84883e-06
1.84883e-06
1.84883e-06
1.85752e-06
1.85658e-06
1.85658e-06
1.85338e-06
1.84883e-06
1.84883e-06
1.84883e-06
1.84883e-06
1.84883e-06
1.84883e-06
1.85713e-06
1.85401e-06
1.85389e-06
1.84883e-06
1.84883e-06
1.84883e-06
1.84883e-06
1.84883e-06
1.84883e-06
1.85766e-06
1.8572e-06
1.85744e-06
1.85593e-06
1.84883e-06
1.84883e-06
1.84883e-06
1.84883e-06
1.85821e-06
1.85637e-06
1.85763e-06
1.85698e-06
1.85497e-06
1.85754e-06
1.85754e-06
1.85712e-06
1.85769e-06
1.85636e-06
1.85785e-06
1.85797e-06
1.85658e-06
1.85401e-06
1.85722e-06
1.85766e-06
1.83382e-06
1.83392e-06
1.83351e-06
1.8311e-06
1.83086e-06
1.83067e-06
1.83123e-06
1.83477e-06
1.83428e-06
1.83346e-06
1.82977e-06
1.82616e-06
1.82616e-06
1.82616e-06
1.82616e-06
1.83325e-06
1.83229e-06
1.8311e-06
1.82616e-06
1.82616e-06
1.82616e-06
1.82616e-06
1.82616e-06
1.82616e-06
1.83486e-06
1.83529e-06
1.83385e-06
1.83087e-06
1.82616e-06
1.82616e-06
1.82616e-06
1.82616e-06
1.82616e-06
1.82616e-06
1.83485e-06
1.83391e-06
1.83391e-06
1.83071e-06
1.82616e-06
1.82616e-06
1.82616e-06
1.82616e-06
1.82616e-06
1.82616e-06
1.83446e-06
1.83134e-06
1.83122e-06
1.82616e-06
1.82616e-06
1.82616e-06
1.82616e-06
1.82616e-06
1.82616e-06
1.83499e-06
1.83453e-06
1.83477e-06
1.83326e-06
1.82616e-06
1.82616e-06
1.82616e-06
1.82616e-06
1.83554e-06
1.8337e-06
1.83496e-06
1.83431e-06
1.8323e-06
1.83487e-06
1.83487e-06
1.83445e-06
1.83502e-06
1.83369e-06
1.83518e-06
1.8353e-06
1.83391e-06
1.83134e-06
1.83454e-06
1.83499e-06
1.81115e-06
1.81125e-06
1.81084e-06
1.80843e-06
1.80819e-06
1.808e-06
1.80856e-06
1.81211e-06
1.81162e-06
1.81079e-06
1.8071e-06
1.80349e-06
1.80349e-06
1.80349e-06
1.80349e-06
1.81058e-06
1.80962e-06
1.80843e-06
1.80349e-06
1.80349e-06
1.80349e-06
1.80349e-06
1.80349e-06
1.80349e-06
1.81219e-06
1.81262e-06
1.81118e-06
1.8082e-06
1.80349e-06
1.80349e-06
1.80349e-06
1.80349e-06
1.80349e-06
1.80349e-06
1.81218e-06
1.81124e-06
1.81124e-06
1.80804e-06
1.80349e-06
1.80349e-06
1.80349e-06
1.80349e-06
1.80349e-06
1.80349e-06
1.81179e-06
1.80867e-06
1.80855e-06
1.80349e-06
1.80349e-06
1.80349e-06
1.80349e-06
1.80349e-06
1.80349e-06
1.81232e-06
1.81186e-06
1.8121e-06
1.81059e-06
1.80349e-06
1.80349e-06
1.80349e-06
1.80349e-06
1.81287e-06
1.81103e-06
1.81229e-06
1.81164e-06
1.80963e-06
1.8122e-06
1.8122e-06
1.81178e-06
1.81235e-06
1.81102e-06
1.81251e-06
1.81263e-06
1.81124e-06
1.80867e-06
1.81188e-06
1.81232e-06
1.78848e-06
1.78858e-06
1.78816e-06
1.78576e-06
1.78552e-06
1.78533e-06
1.78589e-06
1.78944e-06
1.78895e-06
1.78812e-06
1.78443e-06
1.78082e-06
1.78082e-06
1.78082e-06
1.78082e-06
1.78792e-06
1.78695e-06
1.78576e-06
1.78082e-06
1.78082e-06
1.78082e-06
1.78082e-06
1.78082e-06
1.78082e-06
1.78953e-06
1.78995e-06
1.78851e-06
1.78553e-06
1.78082e-06
1.78082e-06
1.78082e-06
1.78082e-06
1.78082e-06
1.78082e-06
1.78951e-06
1.78857e-06
1.78857e-06
1.78537e-06
1.78082e-06
1.78082e-06
1.78082e-06
1.78082e-06
1.78082e-06
1.78082e-06
1.78912e-06
1.786e-06
1.78588e-06
1.78082e-06
1.78082e-06
1.78082e-06
1.78082e-06
1.78082e-06
1.78082e-06
1.78965e-06
1.78919e-06
1.78943e-06
1.78792e-06
1.78082e-06
1.78082e-06
1.78082e-06
1.78082e-06
1.7902e-06
1.78836e-06
1.78962e-06
1.78897e-06
1.78696e-06
1.78953e-06
1.78953e-06
1.78911e-06
1.78968e-06
1.78835e-06
1.78984e-06
1.78996e-06
1.78857e-06
1.786e-06
1.78921e-06
1.78965e-06
1.76581e-06
1.76591e-06
1.7655e-06
1.76309e-06
1.76285e-06
1.76266e-06
1.76322e-06
1.76677e-06
1.76628e-06
1.76545e-06
1.76176e-06
1.75815e-06
1.75815e-06
1.75815e-06
1.75815e-06
1.76524e-06
1.76428e-06
1.76309e-06
1.75815e-06
1.75815e-06
1.75815e-06
1.75815e-06
1.75815e-06
1.75815e-06
1.76685e-06
1.76728e-06
1.76584e-06
1.76286e-06
1.75815e-06
1.75815e-06
1.75815e-06
1.75815e-06
1.75815e-06
1.75815e-06
1.76684e-06
1.7659e-06
1.7659e-06
1.7627e-06
1.75815e-06
1.75815e-06
1.75815e-06
1.75815e-06
1.75815e-06
1.75815e-06
1.76645e-06
1.76333e-06
1.76321e-06
1.75815e-06
1.75815e-06
1.75815e-06
1.75815e-06
1.75815e-06
1.75815e-06
1.76698e-06
1.76652e-06
1.76676e-06
1.76525e-06
1.75815e-06
1.75815e-06
1.75815e-06
1.75815e-06
1.76753e-06
1.76569e-06
1.76695e-06
1.7663e-06
1.76429e-06
1.76686e-06
1.76686e-06
1.76644e-06
1.76701e-06
1.76568e-06
1.76717e-06
1.76729e-06
1.7659e-06
1.76332e-06
1.76653e-06
1.76698e-06
1.74314e-06
1.74324e-06
1.74283e-06
1.74042e-06
1.74018e-06
1.73999e-06
1.74055e-06
1.7441e-06
1.74361e-06
1.74278e-06
1.7391e-06
1.73548e-06
1.73548e-06
1.73548e-06
1.73548e-06
1.74257e-06
1.74161e-06
1.74042e-06
1.73548e-06
1.73548e-06
1.73548e-06
1.73548e-06
1.73548e-06
1.73548e-06
1.74418e-06
1.74461e-06
1.74317e-06
1.74019e-06
1.73548e-06
1.73548e-06
1.73548e-06
1.73548e-06
1.73548e-06
1.73548e-06
1.74417e-06
1.74323e-06
1.74323e-06
1.74003e-06
1.73548e-06
1.73548e-06
1.73548e-06
1.73548e-06
1.73548e-06
1.73548e-06
1.74378e-06
1.74066e-06
1.74054e-06
1.73548e-06
1.73548e-06
1.73548e-06
1.73548e-06
1.73548e-06
1.73548e-06
1.74431e-06
1.74385e-06
1.74409e-06
1.74258e-06
1.73548e-06
1.73548e-06
1.73548e-06
1.73548e-06
1.74486e-06
1.74302e-06
1.74428e-06
1.74363e-06
1.74162e-06
1.74419e-06
1.74419e-06
1.74378e-06
1.74434e-06
1.74301e-06
1.7445e-06
1.74462e-06
1.74323e-06
1.74066e-06
1.74386e-06
1.74431e-06
1.72047e-06
1.72057e-06
1.72016e-06
1.71775e-06
1.71751e-06
1.71732e-06
1.71788e-06
1.72143e-06
1.72094e-06
1.72011e-06
1.71643e-06
1.71281e-06
1.71281e-06
1.71281e-06
1.7128e-06
1.7199e-06
1.71894e-06
1.71775e-06
1.71281e-06
1.71281e-06
1.71281e-06
1.71281e-06
1.71281e-06
1.71281e-06
1.72151e-06
1.72194e-06
1.7205e-06
1.71752e-06
1.71281e-06
1.71281e-06
1.71281e-06
1.71281e-06
1.71281e-06
1.71281e-06
1.7215e-06
1.72056e-06
1.72056e-06
1.71736e-06
1.71281e-06
1.71281e-06
1.71281e-06
1.71281e-06
1.71281e-06
1.71281e-06
1.72111e-06
1.71799e-06
1.71787e-06
1.71281e-06
1.71281e-06
1.71281e-06
1.71281e-06
1.71281e-06
1.71281e-06
1.72164e-06
1.72118e-06
1.72142e-06
1.71991e-06
1.71281e-06
1.71281e-06
1.71281e-06
1.71281e-06
1.72219e-06
1.72035e-06
1.72161e-06
1.72096e-06
1.71893e-06
1.72151e-06
1.72152e-06
1.72111e-06
1.72167e-06
1.72034e-06
1.72183e-06
1.72195e-06
1.72055e-06
1.71798e-06
1.72119e-06
1.72164e-06
1.6978e-06
1.6979e-06
1.69749e-06
1.69508e-06
1.69484e-06
1.69465e-06
1.6952e-06
1.69876e-06
1.69827e-06
1.69744e-06
1.69376e-06
1.69014e-06
1.69014e-06
1.69014e-06
1.69014e-06
1.69723e-06
1.69627e-06
1.69508e-06
1.69014e-06
1.69014e-06
1.69014e-06
1.69014e-06
1.69014e-06
1.69014e-06
1.69884e-06
1.69927e-06
1.69783e-06
1.69485e-06
1.69014e-06
1.69014e-06
1.69014e-06
1.69014e-06
1.69014e-06
1.69014e-06
1.69883e-06
1.69789e-06
1.69789e-06
1.69469e-06
1.69014e-06
1.69014e-06
1.69014e-06
1.69014e-06
1.69014e-06
1.69014e-06
1.69844e-06
1.69532e-06
1.6952e-06
1.69014e-06
1.69014e-06
1.69014e-06
1.69014e-06
1.69014e-06
1.69014e-06
1.69897e-06
1.69851e-06
1.69875e-06
1.69724e-06
1.69014e-06
1.69014e-06
1.69014e-06
1.69014e-06
1.69952e-06
1.69768e-06
1.69894e-06
1.69829e-06
1.69627e-06
1.69884e-06
1.69885e-06
1.69844e-06
1.699e-06
1.69767e-06
1.69916e-06
1.69928e-06
1.69788e-06
1.69532e-06
1.69852e-06
1.69897e-06
1.67514e-06
1.67523e-06
1.67482e-06
1.67242e-06
1.67218e-06
1.67198e-06
1.67254e-06
1.67609e-06
1.6756e-06
1.67477e-06
1.67109e-06
1.66747e-06
1.66747e-06
1.66747e-06
1.66747e-06
1.67457e-06
1.6736e-06
1.67241e-06
1.66747e-06
1.66747e-06
1.66747e-06
1.66747e-06
1.66747e-06
1.66747e-06
1.67618e-06
1.6766e-06
1.67516e-06
1.67218e-06
1.66747e-06
1.66747e-06
1.66747e-06
1.66747e-06
1.66747e-06
1.66747e-06
1.67616e-06
1.67522e-06
1.67522e-06
1.67202e-06
1.66747e-06
1.66747e-06
1.66747e-06
1.66747e-06
1.66747e-06
1.66747e-06
1.67577e-06
1.67265e-06
1.67253e-06
1.66747e-06
1.66747e-06
1.66747e-06
1.66747e-06
1.66747e-06
1.66747e-06
1.6763e-06
1.67585e-06
1.67608e-06
1.67457e-06
1.66747e-06
1.66747e-06
1.66747e-06
1.66747e-06
1.67686e-06
1.67501e-06
1.67628e-06
1.67562e-06
1.6736e-06
1.67617e-06
1.67618e-06
1.67577e-06
1.67633e-06
1.675e-06
1.67649e-06
1.67661e-06
1.67522e-06
1.67265e-06
1.67585e-06
1.6763e-06
1.65247e-06
1.65256e-06
1.65215e-06
1.64975e-06
1.64951e-06
1.64932e-06
1.64987e-06
1.65341e-06
1.65293e-06
1.6521e-06
1.64842e-06
1.6448e-06
1.6448e-06
1.6448e-06
1.6448e-06
1.6519e-06
1.65094e-06
1.64975e-06
1.6448e-06
1.6448e-06
1.6448e-06
1.6448e-06
1.6448e-06
1.6448e-06
1.65351e-06
1.65393e-06
1.65249e-06
1.64951e-06
1.6448e-06
1.6448e-06
1.6448e-06
1.6448e-06
1.6448e-06
1.6448e-06
1.6535e-06
1.65255e-06
1.65255e-06
1.64935e-06
1.6448e-06
1.6448e-06
1.6448e-06
1.6448e-06
1.6448e-06
1.6448e-06
1.6531e-06
1.64998e-06
1.64986e-06
1.6448e-06
1.6448e-06
1.6448e-06
1.6448e-06
1.6448e-06
1.6448e-06
1.65363e-06
1.65318e-06
1.65342e-06
1.6519e-06
1.6448e-06
1.6448e-06
1.6448e-06
1.6448e-06
1.65419e-06
1.65234e-06
1.65361e-06
1.65295e-06
1.65093e-06
1.6535e-06
1.65351e-06
1.6531e-06
1.65367e-06
1.65234e-06
1.65383e-06
1.65394e-06
1.65255e-06
1.64998e-06
1.65319e-06
1.65364e-06
1.6298e-06
1.62989e-06
1.62948e-06
1.62708e-06
1.62684e-06
1.62665e-06
1.6272e-06
1.63074e-06
1.63026e-06
1.62943e-06
1.62575e-06
1.62213e-06
1.62213e-06
1.62213e-06
1.62213e-06
1.62923e-06
1.62827e-06
1.62708e-06
1.62213e-06
1.62213e-06
1.62213e-06
1.62213e-06
1.62213e-06
1.62213e-06
1.63084e-06
1.63127e-06
1.62979e-06
1.62684e-06
1.62213e-06
1.62213e-06
1.62213e-06
1.62213e-06
1.62213e-06
1.62213e-06
1.63083e-06
1.62988e-06
1.62988e-06
1.62668e-06
1.62213e-06
1.62213e-06
1.62213e-06
1.62213e-06
1.62213e-06
1.62213e-06
1.63043e-06
1.62731e-06
1.62719e-06
1.62213e-06
1.62213e-06
1.62213e-06
1.62213e-06
1.62213e-06
1.62213e-06
1.63096e-06
1.63051e-06
1.63075e-06
1.62923e-06
1.62213e-06
1.62213e-06
1.62213e-06
1.62213e-06
1.63152e-06
1.62967e-06
1.63094e-06
1.63028e-06
1.62826e-06
1.63084e-06
1.63084e-06
1.63043e-06
1.631e-06
1.62967e-06
1.63116e-06
1.63127e-06
1.62988e-06
1.62731e-06
1.63052e-06
1.63097e-06
1.60713e-06
1.60723e-06
1.60681e-06
1.60442e-06
1.60417e-06
1.60398e-06
1.60453e-06
1.60807e-06
1.60759e-06
1.60677e-06
1.60308e-06
1.59946e-06
1.59946e-06
1.59946e-06
1.59946e-06
1.60656e-06
1.6056e-06
1.60441e-06
1.59947e-06
1.59946e-06
1.59946e-06
1.59946e-06
1.59946e-06
1.59946e-06
1.60817e-06
1.6086e-06
1.60713e-06
1.60418e-06
1.59946e-06
1.59946e-06
1.59946e-06
1.59946e-06
1.59946e-06
1.59946e-06
1.60816e-06
1.60721e-06
1.60721e-06
1.60401e-06
1.59946e-06
1.59946e-06
1.59946e-06
1.59946e-06
1.59946e-06
1.59946e-06
1.60776e-06
1.60464e-06
1.60452e-06
1.59946e-06
1.59946e-06
1.59946e-06
1.59946e-06
1.59946e-06
1.59946e-06
1.6083e-06
1.60784e-06
1.60808e-06
1.60656e-06
1.59946e-06
1.59946e-06
1.59946e-06
1.59946e-06
1.60885e-06
1.60701e-06
1.60827e-06
1.60761e-06
1.60559e-06
1.60817e-06
1.60817e-06
1.60776e-06
1.60833e-06
1.607e-06
1.60849e-06
1.6086e-06
1.60721e-06
1.60464e-06
1.60785e-06
1.6083e-06
1.58446e-06
1.58456e-06
1.58414e-06
1.58175e-06
1.5815e-06
1.58131e-06
1.58186e-06
1.5854e-06
1.58492e-06
1.5841e-06
1.58041e-06
1.5768e-06
1.5768e-06
1.5768e-06
1.5768e-06
1.5839e-06
1.58293e-06
1.58174e-06
1.5768e-06
1.5768e-06
1.5768e-06
1.5768e-06
1.5768e-06
1.5768e-06
1.5855e-06
1.58593e-06
1.58446e-06
1.58151e-06
1.5768e-06
1.5768e-06
1.5768e-06
1.5768e-06
1.5768e-06
1.5768e-06
1.58549e-06
1.58455e-06
1.58455e-06
1.58135e-06
1.5768e-06
1.5768e-06
1.5768e-06
1.5768e-06
1.5768e-06
1.5768e-06
1.5851e-06
1.58198e-06
1.58185e-06
1.57679e-06
1.57679e-06
1.57679e-06
1.57679e-06
1.57679e-06
1.57679e-06
1.58563e-06
1.58517e-06
1.58541e-06
1.5839e-06
1.57679e-06
1.57679e-06
1.57679e-06
1.57679e-06
1.58618e-06
1.58434e-06
1.5856e-06
1.58495e-06
1.58292e-06
1.5855e-06
1.58551e-06
1.58509e-06
1.58566e-06
1.58433e-06
1.58582e-06
1.58594e-06
1.58455e-06
1.58197e-06
1.58518e-06
1.58563e-06
1.56179e-06
1.56189e-06
1.56147e-06
1.55908e-06
1.55883e-06
1.55864e-06
1.55919e-06
1.56273e-06
1.56225e-06
1.56143e-06
1.55774e-06
1.55413e-06
1.55413e-06
1.55413e-06
1.55413e-06
1.56123e-06
1.56026e-06
1.55907e-06
1.55413e-06
1.55413e-06
1.55413e-06
1.55413e-06
1.55413e-06
1.55413e-06
1.56283e-06
1.56326e-06
1.56179e-06
1.55884e-06
1.55413e-06
1.55413e-06
1.55413e-06
1.55413e-06
1.55413e-06
1.55413e-06
1.56282e-06
1.56188e-06
1.56188e-06
1.55868e-06
1.55413e-06
1.55413e-06
1.55413e-06
1.55413e-06
1.55413e-06
1.55413e-06
1.56243e-06
1.55931e-06
1.55918e-06
1.55413e-06
1.55413e-06
1.55413e-06
1.55413e-06
1.55413e-06
1.55413e-06
1.56296e-06
1.5625e-06
1.56274e-06
1.56123e-06
1.55413e-06
1.55413e-06
1.55413e-06
1.55413e-06
1.56351e-06
1.56167e-06
1.56293e-06
1.56228e-06
1.56025e-06
1.56283e-06
1.56284e-06
1.56242e-06
1.56299e-06
1.56166e-06
1.56315e-06
1.56327e-06
1.56188e-06
1.5593e-06
1.56251e-06
1.56296e-06
1.53912e-06
1.53922e-06
1.5388e-06
1.53641e-06
1.53616e-06
1.53597e-06
1.53652e-06
1.54007e-06
1.53959e-06
1.53876e-06
1.53508e-06
1.53146e-06
1.53146e-06
1.53146e-06
1.53145e-06
1.53856e-06
1.53759e-06
1.53641e-06
1.53146e-06
1.53146e-06
1.53146e-06
1.53146e-06
1.53146e-06
1.53146e-06
1.54016e-06
1.54059e-06
1.53912e-06
1.53617e-06
1.53146e-06
1.53146e-06
1.53146e-06
1.53146e-06
1.53146e-06
1.53146e-06
1.54015e-06
1.53921e-06
1.53921e-06
1.53601e-06
1.53146e-06
1.53146e-06
1.53146e-06
1.53146e-06
1.53146e-06
1.53146e-06
1.53976e-06
1.53664e-06
1.53652e-06
1.53146e-06
1.53146e-06
1.53146e-06
1.53146e-06
1.53146e-06
1.53146e-06
1.54029e-06
1.53983e-06
1.54007e-06
1.53856e-06
1.53146e-06
1.53146e-06
1.53146e-06
1.53146e-06
1.54084e-06
1.539e-06
1.54026e-06
1.53961e-06
1.53759e-06
1.54016e-06
1.54017e-06
1.53975e-06
1.54032e-06
1.53899e-06
1.54048e-06
1.5406e-06
1.53921e-06
1.53663e-06
1.53984e-06
1.54029e-06
1.51645e-06
1.51655e-06
1.51614e-06
1.51374e-06
1.51349e-06
1.51331e-06
1.51386e-06
1.5174e-06
1.5169e-06
1.51609e-06
1.5124e-06
1.50879e-06
1.50879e-06
1.50879e-06
1.50879e-06
1.51589e-06
1.51492e-06
1.51373e-06
1.50879e-06
1.50879e-06
1.50879e-06
1.50879e-06
1.50879e-06
1.50879e-06
1.5175e-06
1.51792e-06
1.51645e-06
1.5135e-06
1.50879e-06
1.50879e-06
1.50879e-06
1.50879e-06
1.50879e-06
1.50879e-06
1.51748e-06
1.51654e-06
1.51654e-06
1.51334e-06
1.50879e-06
1.50879e-06
1.50879e-06
1.50879e-06
1.50879e-06
1.50879e-06
1.51709e-06
1.51397e-06
1.51385e-06
1.50879e-06
1.50879e-06
1.50879e-06
1.50879e-06
1.50879e-06
1.50879e-06
1.51762e-06
1.51716e-06
1.5174e-06
1.51589e-06
1.50879e-06
1.50879e-06
1.50879e-06
1.50879e-06
1.51817e-06
1.51633e-06
1.51759e-06
1.51694e-06
1.51492e-06
1.51749e-06
1.5175e-06
1.51708e-06
1.51765e-06
1.51632e-06
1.51781e-06
1.51793e-06
1.51654e-06
1.51396e-06
1.51717e-06
1.51762e-06
1.49378e-06
1.49388e-06
1.49346e-06
1.49107e-06
1.49083e-06
1.49064e-06
1.49118e-06
1.49473e-06
1.49424e-06
1.49342e-06
1.48973e-06
1.48612e-06
1.48612e-06
1.48612e-06
1.48612e-06
1.49322e-06
1.49225e-06
1.49106e-06
1.48612e-06
1.48612e-06
1.48612e-06
1.48612e-06
1.48612e-06
1.48612e-06
1.49482e-06
1.49525e-06
1.49378e-06
1.49083e-06
1.48612e-06
1.48612e-06
1.48612e-06
1.48612e-06
1.48612e-06
1.48612e-06
1.49481e-06
1.49387e-06
1.49387e-06
1.49067e-06
1.48612e-06
1.48612e-06
1.48612e-06
1.48612e-06
1.48612e-06
1.48612e-06
1.49442e-06
1.4913e-06
1.49117e-06
1.48612e-06
1.48612e-06
1.48612e-06
1.48612e-06
1.48612e-06
1.48612e-06
1.49495e-06
1.49449e-06
1.49473e-06
1.49322e-06
1.48612e-06
1.48612e-06
1.48612e-06
1.48612e-06
1.4955e-06
1.49366e-06
1.49492e-06
1.49427e-06
1.49224e-06
1.49482e-06
1.49483e-06
1.49441e-06
1.49498e-06
1.49365e-06
1.49514e-06
1.49526e-06
1.49387e-06
1.49129e-06
1.4945e-06
1.49495e-06
1.47112e-06
1.47121e-06
1.47078e-06
1.46841e-06
1.46816e-06
1.46797e-06
1.46851e-06
1.47206e-06
1.47157e-06
1.47075e-06
1.46706e-06
1.46344e-06
1.46344e-06
1.46344e-06
1.46344e-06
1.47055e-06
1.46958e-06
1.46839e-06
1.46344e-06
1.46344e-06
1.46344e-06
1.46344e-06
1.46344e-06
1.46344e-06
1.47215e-06
1.47258e-06
1.47111e-06
1.46816e-06
1.46344e-06
1.46344e-06
1.46344e-06
1.46344e-06
1.46344e-06
1.46344e-06
1.47214e-06
1.4712e-06
1.4712e-06
1.468e-06
1.46344e-06
1.46344e-06
1.46344e-06
1.46344e-06
1.46344e-06
1.46344e-06
1.47175e-06
1.46862e-06
1.4685e-06
1.46344e-06
1.46344e-06
1.46344e-06
1.46344e-06
1.46344e-06
1.46344e-06
1.47228e-06
1.47182e-06
1.47206e-06
1.47055e-06
1.46344e-06
1.46344e-06
1.46344e-06
1.46344e-06
1.47283e-06
1.47099e-06
1.47225e-06
1.4716e-06