/*--------------------------------*- C++ -*----------------------------------*\
| =========                 |                                                 |
| \\      /  F ield         | OpenFOAM: The Open Source CFD Toolbox           |
|  \\    /   O peration     | Version:  v2012                                 |
|   \\  /    A nd           | Website:  www.openfoam.com                      |
|    \\/     M anipulation  |                                                 |
\*---------------------------------------------------------------------------*/
FoamFile
{
    version     2.0;
    format      ascii;
    class       volScalarField;
    location    "1425";
    object      epsilon;
}
// * * * * * * * * * * * * * * * * * * * * * * * * * * * * * * * * * * * * * //

dimensions      [0 2 -3 0 0 0 0];


internalField   nonuniform List<scalar> 
171728
(
1.44161e-09
3.43189e-09
4.60613e-09
5.03637e-09
1.3711e-09
3.2226e-09
4.13537e-09
4.56744e-09
1.35115e-09
2.98202e-09
3.6757e-09
4.1855e-09
1.28958e-09
2.75072e-09
3.2703e-09
3.87469e-09
1.23284e-09
2.52182e-09
2.92478e-09
3.61516e-09
1.17972e-09
2.31417e-09
2.65607e-09
3.38846e-09
1.1259e-09
2.14993e-09
2.46132e-09
3.18521e-09
1.07393e-09
2.03253e-09
2.32245e-09
3.01121e-09
1.02248e-09
1.95749e-09
2.21833e-09
2.85052e-09
9.73544e-10
1.91752e-09
2.14789e-09
2.73685e-09
9.28387e-10
1.91519e-09
2.11591e-09
2.646e-09
8.88686e-10
1.94696e-09
2.12561e-09
2.53292e-09
8.545e-10
2.01748e-09
2.18479e-09
2.47872e-09
8.23136e-10
2.14332e-09
2.29864e-09
2.50252e-09
7.93409e-10
2.34711e-09
2.48382e-09
2.61656e-09
7.65021e-10
2.66158e-09
2.77694e-09
2.87917e-09
7.39496e-10
3.14802e-09
3.23144e-09
3.25905e-09
7.16056e-10
3.87657e-09
3.97266e-09
4.17389e-09
6.96946e-10
5.0035e-09
5.09298e-09
6.18408e-09
6.84323e-10
6.6718e-09
6.72314e-09
1.09627e-08
6.74856e-10
9.07495e-09
9.15782e-09
1.3897e-08
6.79865e-10
1.25284e-08
1.27209e-08
2.03878e-08
6.98585e-10
1.74803e-08
1.75068e-08
3.05561e-08
7.33773e-10
2.39731e-08
2.45103e-08
4.4298e-08
8.24125e-10
3.33245e-08
3.32469e-08
7.72222e-08
9.37948e-10
4.42036e-08
4.50747e-08
1.12331e-07
1.1735e-09
5.84896e-08
5.84162e-08
1.55192e-07
1.38615e-09
7.5253e-08
7.62116e-08
2.18829e-07
1.89248e-09
9.44834e-08
9.56887e-08
2.86123e-07
2.57646e-09
1.18827e-07
1.18442e-07
3.66411e-07
3.20541e-09
1.42973e-07
1.4691e-07
4.36683e-07
4.04464e-09
1.73924e-07
1.7409e-07
5.22715e-07
5.3245e-09
2.06105e-07
2.07242e-07
5.88635e-07
7.07016e-09
2.4066e-07
2.45441e-07
6.45738e-07
8.86503e-09
2.78738e-07
2.79346e-07
7.096e-07
1.19074e-08
3.19285e-07
3.18783e-07
7.58174e-07
1.59603e-08
3.63061e-07
3.66634e-07
8.00333e-07
1.99269e-08
4.08195e-07
4.06733e-07
8.40032e-07
2.57714e-08
4.56793e-07
4.5504e-07
8.78956e-07
3.26545e-08
5.0397e-07
5.06513e-07
9.14363e-07
3.99505e-08
5.53005e-07
5.49946e-07
9.45031e-07
5.15248e-08
6.01586e-07
6.00705e-07
9.78313e-07
6.25018e-08
6.46742e-07
6.47888e-07
1.00671e-06
7.46493e-08
6.92531e-07
6.95551e-07
1.0354e-06
9.09581e-08
7.35914e-07
7.36636e-07
1.0622e-06
1.07062e-07
7.91241e-07
7.85418e-07
1.09105e-06
1.30289e-07
8.29633e-07
8.39877e-07
1.12417e-06
1.52003e-07
8.50605e-07
8.63518e-07
1.1381e-06
1.67036e-07
9.00487e-07
8.87697e-07
1.16117e-06
1.98811e-07
9.48637e-07
9.37933e-07
1.19723e-06
2.32791e-07
9.71404e-07
9.82161e-07
1.22553e-06
2.55971e-07
9.93287e-07
9.98582e-07
1.23724e-06
2.79328e-07
1.01937e-06
1.01595e-06
1.25197e-06
3.07479e-07
1.05179e-06
1.05156e-06
1.27675e-06
3.50739e-07
1.0816e-06
1.08511e-06
1.29838e-06
3.92392e-07
1.09899e-06
1.09956e-06
1.31647e-06
4.11475e-07
1.11728e-06
1.11965e-06
1.33676e-06
4.40597e-07
1.1374e-06
1.14058e-06
1.34784e-06
4.73382e-07
1.15331e-06
1.15216e-06
1.35687e-06
4.95783e-07
1.17399e-06
1.17077e-06
1.37903e-06
5.26272e-07
1.1933e-06
1.19289e-06
1.39781e-06
5.57774e-07
1.20166e-06
1.20785e-06
1.40316e-06
5.75676e-07
1.21467e-06
1.22017e-06
1.41689e-06
5.99614e-07
1.23516e-06
1.22894e-06
1.43368e-06
6.22829e-07
1.24593e-06
1.23389e-06
1.43551e-06
6.38206e-07
1.24632e-06
1.25142e-06
1.43981e-06
6.57275e-07
1.26584e-06
1.27321e-06
1.46569e-06
6.80567e-07
1.28118e-06
1.28206e-06
1.48549e-06
6.95848e-07
1.2802e-06
1.27775e-06
1.47684e-06
7.01914e-07
1.28326e-06
1.28247e-06
1.46893e-06
7.16886e-07
1.29382e-06
1.29194e-06
1.48263e-06
7.35336e-07
1.30141e-06
1.29865e-06
1.50528e-06
7.49371e-07
1.30834e-06
1.30819e-06
1.51858e-06
7.61821e-07
1.31368e-06
1.31571e-06
1.51281e-06
7.71031e-07
1.31161e-06
1.31231e-06
1.49948e-06
7.74818e-07
1.31174e-06
1.30993e-06
1.50588e-06
7.82874e-07
1.32043e-06
1.3189e-06
1.52656e-06
7.97797e-07
1.32438e-06
1.32343e-06
1.53203e-06
8.04053e-07
1.32054e-06
1.31767e-06
1.5195e-06
8.00328e-07
1.31537e-06
1.31639e-06
1.51372e-06
8.00458e-07
1.31927e-06
1.32756e-06
1.5309e-06
8.13196e-07
1.32929e-06
1.33325e-06
1.54686e-06
8.21192e-07
1.32439e-06
1.31803e-06
1.53075e-06
8.13667e-07
1.30672e-06
1.3025e-06
1.50375e-06
8.04567e-07
1.30481e-06
1.30908e-06
1.51303e-06
8.11957e-07
1.32198e-06
1.32422e-06
1.54691e-06
8.21612e-07
1.32123e-06
1.31866e-06
1.54772e-06
8.15325e-07
1.29802e-06
1.29786e-06
1.51293e-06
7.9808e-07
1.28646e-06
1.28669e-06
1.49357e-06
7.90688e-07
1.2913e-06
1.2889e-06
1.50705e-06
8.00755e-07
1.294e-06
1.29274e-06
1.52031e-06
8.07693e-07
1.29255e-06
1.28989e-06
1.5198e-06
7.94445e-07
1.27915e-06
1.27185e-06
1.50538e-06
7.73536e-07
1.25271e-06
1.25802e-06
1.47974e-06
7.51809e-07
1.19216e-06
1.205e-06
1.4386e-06
5.1912e-09
3.84588e-09
4.64699e-09
4.92435e-09
3.92208e-09
2.92742e-09
1.41676e-09
1.36999e-09
1.36253e-09
1.71986e-09
3.78904e-09
4.66731e-09
5.22112e-09
3.85546e-09
3.98652e-09
5.06922e-09
5.17047e-09
4.68436e-09
3.95474e-09
1.52475e-08
3.85103e-09
1.236e-08
4.88047e-09
4.63099e-09
3.89896e-09
2.68469e-08
3.72538e-09
1.37663e-08
5.40196e-09
3.282e-09
5.19297e-09
5.13451e-09
4.72902e-09
4.93455e-09
4.26001e-09
4.65802e-09
4.63059e-09
4.65552e-09
4.22604e-09
3.79996e-09
1.07743e-08
3.66315e-09
6.55442e-09
4.57109e-09
4.13956e-09
3.65844e-09
1.05459e-08
3.47014e-09
5.3705e-09
5.11699e-09
3.04167e-09
4.91026e-09
4.65838e-09
4.07742e-09
4.55245e-09
3.78499e-09
4.25381e-09
4.24421e-09
4.20146e-09
3.84156e-09
3.62022e-09
5.57611e-09
3.50378e-09
3.85613e-09
4.10242e-09
3.64239e-09
3.4117e-09
4.61719e-09
3.24353e-09
3.56224e-09
4.84852e-09
2.8082e-09
4.68251e-09
4.03416e-09
3.60658e-09
4.15795e-09
3.3667e-09
3.88144e-09
3.92393e-09
3.81968e-09
3.5133e-09
3.46821e-09
3.56217e-09
3.36783e-09
3.0773e-09
3.61277e-09
3.26859e-09
3.18877e-09
3.40308e-09
3.03486e-09
3.12961e-09
4.63474e-09
2.57812e-09
4.51166e-09
3.5788e-09
3.25242e-09
3.79293e-09
3.0045e-09
3.54032e-09
3.65462e-09
3.49428e-09
3.24774e-09
3.34248e-09
2.98792e-09
3.28974e-09
2.80673e-09
3.253e-09
2.98711e-09
2.98807e-09
3.06988e-09
2.85822e-09
2.93237e-09
4.47518e-09
2.36288e-09
4.37579e-09
3.23106e-09
2.97542e-09
3.46383e-09
2.71593e-09
3.26522e-09
3.40697e-09
3.23389e-09
3.03688e-09
3.27643e-09
2.76207e-09
3.23654e-09
2.65441e-09
2.97342e-09
2.7481e-09
2.81813e-09
2.89326e-09
2.70628e-09
2.78946e-09
4.34584e-09
2.18637e-09
4.26085e-09
2.9604e-09
2.76311e-09
3.2078e-09
2.50373e-09
3.0532e-09
3.20015e-09
3.02538e-09
2.85585e-09
3.22503e-09
2.62393e-09
3.20071e-09
2.54243e-09
2.73853e-09
2.55725e-09
2.67155e-09
2.7595e-09
2.57906e-09
2.68003e-09
4.2351e-09
2.05799e-09
4.13031e-09
2.75276e-09
2.59624e-09
3.00686e-09
2.35402e-09
2.8858e-09
3.02443e-09
2.8473e-09
2.70082e-09
3.18936e-09
2.51742e-09
3.1173e-09
2.4554e-09
2.55133e-09
2.40387e-09
2.55122e-09
2.65683e-09
2.4802e-09
2.59961e-09
4.07652e-09
1.97298e-09
3.85166e-09
2.58968e-09
2.46038e-09
2.85169e-09
2.24133e-09
2.76654e-09
2.85829e-09
2.69491e-09
2.57074e-09
3.08181e-09
2.4388e-09
2.96052e-09
2.39685e-09
2.40179e-09
2.28839e-09
2.46005e-09
2.58411e-09
2.41284e-09
2.55048e-09
3.76007e-09
1.92388e-09
3.48462e-09
2.4572e-09
2.35159e-09
2.74416e-09
2.16127e-09
2.69581e-09
2.73947e-09
2.56913e-09
2.47301e-09
2.91882e-09
2.38751e-09
2.80456e-09
2.36583e-09
2.28991e-09
2.20631e-09
2.40238e-09
2.5428e-09
2.37954e-09
2.5288e-09
3.39715e-09
1.91286e-09
3.15868e-09
2.35197e-09
2.27031e-09
2.68424e-09
2.12112e-09
2.67681e-09
2.64661e-09
2.47506e-09
2.40525e-09
2.77205e-09
2.36091e-09
2.6972e-09
2.36335e-09
2.21112e-09
2.15798e-09
2.37599e-09
2.52926e-09
2.37819e-09
2.5409e-09
3.08705e-09
1.93832e-09
2.89102e-09
2.27385e-09
2.21965e-09
2.67841e-09
2.11957e-09
2.69927e-09
2.5301e-09
2.41274e-09
2.378e-09
2.68335e-09
2.36626e-09
2.64884e-09
2.38924e-09
2.16912e-09
2.14686e-09
2.38348e-09
2.55037e-09
2.41665e-09
2.59606e-09
2.83153e-09
1.99976e-09
2.68079e-09
2.22902e-09
2.20598e-09
2.71209e-09
2.16504e-09
2.7813e-09
2.4651e-09
2.39497e-09
2.40043e-09
2.64963e-09
2.40591e-09
2.675e-09
2.47657e-09
2.16704e-09
2.18241e-09
2.43254e-09
2.61645e-09
2.50474e-09
2.70359e-09
2.63921e-09
2.1106e-09
2.58038e-09
2.22424e-09
2.23903e-09
2.81002e-09
2.26403e-09
2.91009e-09
2.47309e-09
2.42983e-09
2.48564e-09
2.69837e-09
2.50728e-09
2.81865e-09
2.61562e-09
2.2149e-09
2.28103e-09
2.53746e-09
2.74054e-09
2.66649e-09
2.88021e-09
2.5802e-09
2.293e-09
2.62275e-09
2.26988e-09
2.3338e-09
2.95884e-09
2.42904e-09
3.14099e-09
2.56399e-09
2.53576e-09
2.67449e-09
2.8705e-09
2.66274e-09
3.06594e-09
2.83992e-09
2.3353e-09
2.47383e-09
2.72296e-09
2.94072e-09
2.93353e-09
3.16576e-09
2.66173e-09
2.57364e-09
2.83892e-09
2.38561e-09
2.52219e-09
3.18279e-09
2.69296e-09
3.5253e-09
2.77619e-09
2.76464e-09
3.02503e-09
3.15024e-09
2.92225e-09
3.46127e-09
3.22356e-09
2.56405e-09
2.81921e-09
3.0203e-09
3.25747e-09
3.34973e-09
3.6121e-09
2.93737e-09
3.00741e-09
3.25414e-09
2.6101e-09
2.87034e-09
3.68811e-09
3.10157e-09
4.16903e-09
3.14213e-09
3.17714e-09
3.65459e-09
3.59783e-09
3.35644e-09
4.1264e-09
3.82744e-09
2.96906e-09
3.42355e-09
3.48619e-09
3.7553e-09
4.01033e-09
4.28674e-09
3.37075e-09
3.66228e-09
3.9155e-09
3.01675e-09
3.48632e-09
4.30665e-09
3.75875e-09
5.05912e-09
3.83195e-09
3.89722e-09
4.78252e-09
4.3231e-09
4.02327e-09
5.14505e-09
4.768e-09
3.66799e-09
4.4967e-09
4.20477e-09
4.49327e-09
5.00811e-09
5.31145e-09
4.17468e-09
4.68838e-09
5.02242e-09
3.72767e-09
4.57078e-09
5.42442e-09
4.77036e-09
6.82507e-09
5.58855e-09
5.20912e-09
6.68833e-09
5.46524e-09
5.07065e-09
6.67018e-09
6.25599e-09
4.89994e-09
6.42185e-09
5.33257e-09
5.64859e-09
6.49405e-09
6.85478e-09
5.36775e-09
6.21558e-09
6.87411e-09
4.98561e-09
6.47574e-09
7.47362e-09
6.24713e-09
9.74639e-09
9.68958e-09
7.37796e-09
1.02129e-08
7.15742e-09
6.72049e-09
8.94347e-09
8.39725e-09
7.13875e-09
9.70383e-09
6.99081e-09
7.37205e-09
8.76065e-09
9.17562e-09
7.44583e-09
8.35653e-09
9.10109e-09
7.17861e-09
9.93253e-09
1.05531e-08
8.47596e-09
1.31307e-08
1.31095e-08
1.13999e-08
1.59944e-08
9.69882e-09
9.11816e-09
1.22141e-08
1.1541e-08
1.08749e-08
1.53443e-08
9.47408e-09
9.86732e-09
1.19773e-08
1.24762e-08
9.61774e-09
1.15448e-08
1.2072e-08
1.09984e-08
1.58037e-08
1.4146e-08
1.17364e-08
1.76147e-08
1.82165e-08
1.78693e-08
2.6021e-08
1.32895e-08
1.25291e-08
1.69449e-08
1.61433e-08
1.70909e-08
2.60523e-08
1.29854e-08
1.34671e-08
1.6591e-08
1.7086e-08
1.31786e-08
1.61402e-08
1.63111e-08
1.77311e-08
2.53177e-08
1.88428e-08
1.61434e-08
2.18909e-08
2.81301e-08
2.88522e-08
4.24816e-08
1.83686e-08
1.74508e-08
2.33078e-08
2.21106e-08
2.89229e-08
4.06332e-08
1.79725e-08
1.84444e-08
2.28842e-08
2.32804e-08
1.77647e-08
2.21865e-08
2.24497e-08
2.80763e-08
4.16952e-08
2.31081e-08
2.24164e-08
2.76806e-08
4.06569e-08
4.68989e-08
6.61371e-08
2.52476e-08
2.39126e-08
3.1894e-08
3.06225e-08
4.46942e-08
6.52091e-08
2.48517e-08
2.53487e-08
3.12036e-08
3.17818e-08
2.41118e-08
3.06809e-08
3.18032e-08
4.6382e-08
6.59826e-08
2.96614e-08
3.10013e-08
3.75063e-08
6.89167e-08
7.23005e-08
1.01549e-07
3.44613e-08
3.32174e-08
4.30898e-08
4.13958e-08
7.21424e-08
1.01327e-07
3.36724e-08
3.41455e-08
4.23056e-08
4.29417e-08
3.45557e-08
4.12989e-08
4.31842e-08
7.14086e-08
1.00763e-07
4.009e-08
4.19152e-08
4.59528e-08
1.05686e-07
1.10102e-07
1.47299e-07
4.63465e-08
4.43313e-08
5.65889e-08
5.47879e-08
1.08931e-07
1.44006e-07
4.53999e-08
4.61658e-08
5.55809e-08
5.6181e-08
4.63954e-08
5.46005e-08
5.65365e-08
1.10051e-07
1.46164e-07
4.81361e-08
5.4707e-08
5.55988e-08
1.44604e-07
1.57863e-07
2.08853e-07
6.07773e-08
5.88398e-08
7.51107e-08
7.121e-08
1.54878e-07
2.05967e-07
5.96677e-08
5.99322e-08
7.3319e-08
7.32783e-08
6.01839e-08
7.06643e-08
7.35993e-08
1.55901e-07
2.04473e-07
5.86058e-08
7.15324e-08
7.11254e-08
2.0566e-07
2.22317e-07
2.74748e-07
7.8906e-08
7.57716e-08
9.21565e-08
8.99936e-08
2.19123e-07
2.71675e-07
7.78974e-08
7.78725e-08
9.0888e-08
9.15346e-08
7.81762e-08
8.96809e-08
9.19185e-08
2.17914e-07
2.74719e-07
7.55607e-08
9.0691e-08
8.97767e-08
2.72136e-07
2.8816e-07
3.51047e-07
9.85726e-08
9.48574e-08
1.1931e-07
1.13385e-07
2.85776e-07
3.48131e-07
9.62486e-08
9.6387e-08
1.14657e-07
1.12413e-07
9.71434e-08
1.12482e-07
1.14287e-07
2.89133e-07
3.45484e-07
9.53532e-08
1.12505e-07
1.12464e-07
3.51138e-07
3.68315e-07
4.49165e-07
1.26736e-07
1.19841e-07
1.50588e-07
1.38551e-07
3.64569e-07
4.26836e-07
1.21825e-07
1.18324e-07
1.45183e-07
1.38984e-07
1.19645e-07
1.3611e-07
1.37359e-07
3.60261e-07
4.26619e-07
1.17996e-07
1.39032e-07
1.36391e-07
4.20873e-07
4.65032e-07
4.98603e-07
1.54932e-07
1.45696e-07
1.64733e-07
1.67513e-07
4.4183e-07
5.01252e-07
1.51364e-07
1.46748e-07
1.6801e-07
1.6728e-07
1.44619e-07
1.66073e-07
1.68288e-07
4.4436e-07
5.03541e-07
1.4377e-07
1.67672e-07
1.67477e-07
5.05224e-07
5.12083e-07
5.69077e-07
1.72137e-07
1.74774e-07
1.98417e-07
1.98537e-07
5.18474e-07
5.73945e-07
1.74533e-07
1.73349e-07
1.97761e-07
1.96465e-07
1.76647e-07
1.97847e-07
2.00582e-07
5.17337e-07
5.68091e-07
1.75435e-07
1.97632e-07
1.99856e-07
5.75241e-07
5.87024e-07
6.41681e-07
2.09028e-07
2.07259e-07
2.39347e-07
2.34719e-07
5.87988e-07
6.36692e-07
2.07539e-07
2.06085e-07
2.36364e-07
2.34629e-07
2.07971e-07
2.31807e-07
2.31466e-07
5.84046e-07
6.40568e-07
2.07476e-07
2.36377e-07
2.31923e-07
6.31733e-07
6.53793e-07
6.8946e-07
2.46269e-07
2.4397e-07
2.68245e-07
2.72366e-07
6.5099e-07
6.9241e-07
2.44349e-07
2.4334e-07
2.69074e-07
2.68644e-07
2.40004e-07
2.69113e-07
2.69913e-07
6.54096e-07
6.88417e-07
2.40768e-07
2.71193e-07
2.71271e-07
6.95125e-07
7.02261e-07
7.44176e-07
2.77358e-07
2.8152e-07
3.07985e-07
3.10168e-07
7.05181e-07
7.43907e-07
2.78569e-07
2.77116e-07
3.09208e-07
3.06932e-07
2.80965e-07
3.08844e-07
3.12008e-07
7.00322e-07
7.41378e-07
2.82982e-07
3.07004e-07
3.19201e-07
7.47359e-07
7.56811e-07
7.90831e-07
3.19157e-07
3.20813e-07
3.53592e-07
3.54209e-07
7.5619e-07
7.90177e-07
3.20079e-07
3.19367e-07
3.5688e-07
3.57098e-07
3.22286e-07
3.51853e-07
3.53285e-07
7.55052e-07
7.93635e-07
3.30953e-07
3.55751e-07
3.61e-07
7.8936e-07
8.01925e-07
8.29754e-07
3.64524e-07
3.65694e-07
3.94577e-07
3.99338e-07
8.01329e-07
8.3197e-07
3.6838e-07
3.6749e-07
3.98581e-07
3.96275e-07
3.63316e-07
3.96348e-07
3.95873e-07
8.04373e-07
8.283e-07
3.69496e-07
3.96762e-07
3.96575e-07
8.29749e-07
8.39608e-07
8.684e-07
4.05484e-07
4.11113e-07
4.43334e-07
4.49425e-07
8.42708e-07
8.7114e-07
4.08972e-07
4.06653e-07
4.42735e-07
4.44416e-07
4.07947e-07
4.44763e-07
4.44454e-07
8.3804e-07
8.67891e-07
4.06548e-07
4.417e-07
4.43049e-07
8.68881e-07
8.78624e-07
9.04215e-07
4.55863e-07
4.61928e-07
4.92522e-07
4.97853e-07
8.80494e-07
9.05229e-07
4.54555e-07
4.58718e-07
4.90618e-07
4.97146e-07
4.56133e-07
4.92318e-07
4.91801e-07
8.78636e-07
9.06388e-07
4.57092e-07
4.94934e-07
4.98073e-07
9.05402e-07
9.12992e-07
9.34692e-07
5.0419e-07
5.09335e-07
5.36598e-07
5.44366e-07
9.14489e-07
9.38652e-07
5.02257e-07
5.07357e-07
5.35133e-07
5.38924e-07
5.03695e-07
5.40496e-07
5.37106e-07
9.14864e-07
9.36031e-07
5.10605e-07
5.38443e-07
5.43033e-07
9.36555e-07
9.43052e-07
9.67887e-07
5.48416e-07
5.56202e-07
5.89082e-07
5.91088e-07
9.46931e-07
9.67829e-07
5.46886e-07
5.51001e-07
5.88835e-07
5.9138e-07
5.49426e-07
5.90126e-07
5.90276e-07
9.44499e-07
9.68277e-07
5.53768e-07
5.87538e-07
5.90029e-07
9.69526e-07
9.77134e-07
1.00007e-06
6.02319e-07
6.01759e-07
6.37134e-07
6.34563e-07
9.75766e-07
9.97315e-07
6.03174e-07
6.05514e-07
6.39135e-07
6.452e-07
6.03243e-07
6.34665e-07
6.37321e-07
9.77162e-07
1.00149e-06
6.02579e-07
6.37265e-07
6.3684e-07
9.99547e-07
1.00711e-06
1.02571e-06
6.47687e-07
6.47428e-07
6.82076e-07
6.87156e-07
1.00533e-06
1.02616e-06
6.49286e-07
6.5606e-07
6.81659e-07
6.85399e-07
6.47873e-07
6.82225e-07
6.83933e-07
1.00888e-06
1.02642e-06
6.47467e-07
6.83001e-07
6.83455e-07
1.0275e-06
1.03324e-06
1.05484e-06
6.94613e-07
6.99053e-07
7.29528e-07
7.34453e-07
1.03347e-06
1.05459e-06
6.93603e-07
6.93689e-07
7.27226e-07
7.18436e-07
6.97248e-07
7.23671e-07
7.30775e-07
1.03278e-06
1.04799e-06
6.96844e-07
7.27256e-07
7.31034e-07
1.05592e-06
1.06196e-06
1.08105e-06
7.40221e-07
7.47376e-07
7.72247e-07
7.85333e-07
1.06286e-06
1.08777e-06
7.38099e-07
7.29681e-07
7.7055e-07
7.7417e-07
7.39936e-07
7.77222e-07
7.72149e-07
1.05499e-06
1.08349e-06
7.40077e-07
7.71344e-07
7.71239e-07
1.08257e-06
1.08914e-06
1.11606e-06
7.84578e-07
7.9646e-07
8.23049e-07
8.20867e-07
1.09561e-06
1.11347e-06
7.82928e-07
7.91074e-07
8.22786e-07
8.38962e-07
7.85184e-07
8.2483e-07
8.24604e-07
1.09334e-06
1.12458e-06
7.83982e-07
8.2714e-07
8.23172e-07
1.11661e-06
1.12401e-06
1.13518e-06
8.34526e-07
8.23144e-07
8.53489e-07
8.29393e-07
1.1164e-06
1.119e-06
8.35236e-07
8.5201e-07
8.58325e-07
8.65883e-07
8.36421e-07
8.42009e-07
8.56791e-07
1.1326e-06
1.1407e-06
8.35214e-07
8.61547e-07
8.57582e-07
1.13471e-06
1.13783e-06
1.15086e-06
8.5712e-07
8.40551e-07
8.81382e-07
8.86921e-07
1.12499e-06
1.1545e-06
8.62006e-07
8.65938e-07
8.82615e-07
8.72833e-07
8.60442e-07
8.87402e-07
8.83467e-07
1.14225e-06
1.14687e-06
8.61352e-07
8.77626e-07
8.82287e-07
1.15328e-06
1.15885e-06
1.18805e-06
8.93767e-07
9.02978e-07
9.32737e-07
9.47012e-07
1.16408e-06
1.19914e-06
8.93618e-07
8.83612e-07
9.28366e-07
9.24079e-07
8.95433e-07
9.37767e-07
9.3344e-07
1.15307e-06
1.17996e-06
8.93548e-07
9.25398e-07
9.30827e-07
1.189e-06
1.19639e-06
1.21617e-06
9.44869e-07
9.5915e-07
9.70788e-07
9.76599e-07
1.20763e-06
1.22296e-06
9.39e-07
9.38695e-07
9.66717e-07
9.80902e-07
9.45442e-07
9.67008e-07
9.73166e-07
1.18901e-06
1.22404e-06
9.42896e-07
9.73451e-07
9.73257e-07
1.22041e-06
1.22067e-06
1.22954e-06
9.7589e-07
9.78963e-07
9.91152e-07
9.87001e-07
1.2265e-06
1.22908e-06
9.73589e-07
9.918e-07
9.91907e-07
1.00575e-06
9.78449e-07
9.8721e-07
9.911e-07
1.23189e-06
1.24296e-06
9.78964e-07
9.9594e-07
9.9079e-07
1.23367e-06
1.2336e-06
1.2448e-06
9.96402e-07
9.91364e-07
1.01157e-06
1.00889e-06
1.23204e-06
1.24147e-06
9.97444e-07
1.007e-06
1.01355e-06
1.01052e-06
9.95836e-07
1.01223e-06
1.01518e-06
1.24528e-06
1.24692e-06
9.95131e-07
1.00967e-06
1.01376e-06
1.24677e-06
1.25016e-06
1.26821e-06
1.01766e-06
1.01642e-06
1.04121e-06
1.04415e-06
1.24757e-06
1.27269e-06
1.01911e-06
1.0149e-06
1.0407e-06
1.03803e-06
1.02274e-06
1.04402e-06
1.0462e-06
1.25054e-06
1.26528e-06
1.02123e-06
1.04201e-06
1.04434e-06
1.2703e-06
1.27491e-06
1.29868e-06
1.05055e-06
1.05412e-06
1.07943e-06
1.07998e-06
1.27984e-06
1.29938e-06
1.04959e-06
1.04764e-06
1.07738e-06
1.0761e-06
1.05344e-06
1.07484e-06
1.07091e-06
1.27196e-06
1.29698e-06
1.052e-06
1.07853e-06
1.07051e-06
1.29349e-06
1.3058e-06
1.31886e-06
1.0875e-06
1.08659e-06
1.09992e-06
1.09818e-06
1.3053e-06
1.31698e-06
1.0859e-06
1.08461e-06
1.09971e-06
1.0989e-06
1.07644e-06
1.09542e-06
1.0949e-06
1.30394e-06
1.3167e-06
1.07589e-06
1.09607e-06
1.09412e-06
1.31126e-06
1.32172e-06
1.32636e-06
1.10175e-06
1.10058e-06
1.11075e-06
1.1109e-06
1.32037e-06
1.32641e-06
1.10187e-06
1.10164e-06
1.11154e-06
1.11332e-06
1.1016e-06
1.11197e-06
1.11919e-06
1.32026e-06
1.32819e-06
1.10089e-06
1.11404e-06
1.11936e-06
1.33175e-06
1.3302e-06
1.34177e-06
1.11585e-06
1.11592e-06
1.13292e-06
1.13187e-06
1.33017e-06
1.34063e-06
1.11668e-06
1.11878e-06
1.13377e-06
1.13596e-06
1.12326e-06
1.13294e-06
1.1323e-06
1.33243e-06
1.34514e-06
1.12403e-06
1.13594e-06
1.1328e-06
1.34514e-06
1.34695e-06
1.35935e-06
1.1382e-06
1.13644e-06
1.15107e-06
1.14968e-06
1.34557e-06
1.35722e-06
1.13906e-06
1.14134e-06
1.15192e-06
1.15346e-06
1.13527e-06
1.14938e-06
1.14755e-06
1.35025e-06
1.3592e-06
1.13475e-06
1.1493e-06
1.14383e-06
1.35265e-06
1.36292e-06
1.37032e-06
1.15438e-06
1.15382e-06
1.1663e-06
1.16824e-06
1.36121e-06
1.3719e-06
1.1547e-06
1.1557e-06
1.16394e-06
1.16329e-06
1.1532e-06
1.16846e-06
1.17212e-06
1.36222e-06
1.36826e-06
1.1492e-06
1.16537e-06
1.16901e-06
1.37286e-06
1.37455e-06
1.387e-06
1.17147e-06
1.17336e-06
1.18741e-06
1.1885e-06
1.37679e-06
1.39166e-06
1.16849e-06
1.16727e-06
1.18494e-06
1.18263e-06
1.17809e-06
1.18926e-06
1.18977e-06
1.37229e-06
1.38566e-06
1.1753e-06
1.18745e-06
1.19113e-06
1.39425e-06
1.3922e-06
1.4033e-06
1.19229e-06
1.1928e-06
1.2014e-06
1.20022e-06
1.39614e-06
1.40071e-06
1.19038e-06
1.18861e-06
1.20428e-06
1.20788e-06
1.19138e-06
1.20004e-06
1.19644e-06
1.3914e-06
1.40665e-06
1.19447e-06
1.20479e-06
1.20043e-06
1.40028e-06
1.40675e-06
1.41292e-06
1.20358e-06
1.20205e-06
1.2131e-06
1.21091e-06
1.40314e-06
1.4086e-06
1.20763e-06
1.21329e-06
1.21666e-06
1.22427e-06
1.19986e-06
1.21013e-06
1.2147e-06
1.41128e-06
1.4204e-06
1.2029e-06
1.21726e-06
1.21544e-06
1.41212e-06
1.41648e-06
1.4256e-06
1.2173e-06
1.21536e-06
1.23015e-06
1.23008e-06
1.41276e-06
1.4251e-06
1.21989e-06
1.22618e-06
1.22954e-06
1.227e-06
1.22018e-06
1.2303e-06
1.2342e-06
1.42375e-06
1.42514e-06
1.22029e-06
1.22736e-06
1.23186e-06
1.42974e-06
1.42979e-06
1.43595e-06
1.2341e-06
1.23468e-06
1.24165e-06
1.24412e-06
1.43011e-06
1.44032e-06
1.2323e-06
1.22578e-06
1.23723e-06
1.2244e-06
1.23721e-06
1.24505e-06
1.23927e-06
1.4265e-06
1.42189e-06
1.23459e-06
1.2322e-06
1.2375e-06
1.43423e-06
1.43857e-06
1.44297e-06
1.24339e-06
1.24509e-06
1.24934e-06
1.24574e-06
1.44265e-06
1.44113e-06
1.23883e-06
1.22545e-06
1.24626e-06
1.24181e-06
1.23869e-06
1.24576e-06
1.2401e-06
1.42397e-06
1.4345e-06
1.23731e-06
1.24575e-06
1.24047e-06
1.43527e-06
1.44635e-06
1.45653e-06
1.25139e-06
1.24712e-06
1.26009e-06
1.26115e-06
1.44382e-06
1.45432e-06
1.24943e-06
1.24866e-06
1.26178e-06
1.26882e-06
1.24534e-06
1.26054e-06
1.26579e-06
1.44069e-06
1.46389e-06
1.24718e-06
1.26828e-06
1.26732e-06
1.45897e-06
1.46137e-06
1.47219e-06
1.26413e-06
1.26591e-06
1.27585e-06
1.2777e-06
1.45943e-06
1.47339e-06
1.26667e-06
1.27493e-06
1.27919e-06
1.28483e-06
1.27177e-06
1.27851e-06
1.28478e-06
1.47074e-06
1.48283e-06
1.27297e-06
1.28189e-06
1.28428e-06
1.48283e-06
1.47591e-06
1.47778e-06
1.27907e-06
1.28011e-06
1.28332e-06
1.28051e-06
1.47718e-06
1.47543e-06
1.28196e-06
1.28519e-06
1.28429e-06
1.2811e-06
1.28603e-06
1.28122e-06
1.28094e-06
1.48473e-06
1.4762e-06
1.28479e-06
1.27844e-06
1.27922e-06
1.47621e-06
1.47897e-06
1.47338e-06
1.28297e-06
1.27981e-06
1.28072e-06
1.28118e-06
1.47661e-06
1.47471e-06
1.28298e-06
1.27972e-06
1.27988e-06
1.27891e-06
1.27855e-06
1.28066e-06
1.27491e-06
1.47706e-06
1.47218e-06
1.27742e-06
1.27968e-06
1.27561e-06
1.46704e-06
1.47531e-06
1.48193e-06
1.28106e-06
1.28433e-06
1.29006e-06
1.29266e-06
1.47763e-06
1.48534e-06
1.28007e-06
1.28065e-06
1.28865e-06
1.28899e-06
1.27513e-06
1.29148e-06
1.28634e-06
1.47484e-06
1.48201e-06
1.2766e-06
1.28987e-06
1.28663e-06
1.47747e-06
1.48601e-06
1.49574e-06
1.29322e-06
1.29482e-06
1.30079e-06
1.2995e-06
1.48925e-06
1.4961e-06
1.29186e-06
1.2913e-06
1.29971e-06
1.29718e-06
1.29137e-06
1.29984e-06
1.30609e-06
1.4859e-06
1.49326e-06
1.29085e-06
1.29704e-06
1.30402e-06
1.4998e-06
1.49906e-06
1.50275e-06
1.30237e-06
1.30038e-06
1.30563e-06
1.30484e-06
1.49874e-06
1.50205e-06
1.30149e-06
1.29883e-06
1.30538e-06
1.30496e-06
1.31032e-06
1.30652e-06
1.31643e-06
1.49626e-06
1.50152e-06
1.30778e-06
1.30558e-06
1.31482e-06
1.51601e-06
1.50545e-06
1.50938e-06
1.30731e-06
1.30708e-06
1.31286e-06
1.31328e-06
1.50483e-06
1.50891e-06
1.30709e-06
1.30738e-06
1.31238e-06
1.31358e-06
1.31647e-06
1.31282e-06
1.3107e-06
1.50473e-06
1.51076e-06
1.31566e-06
1.31466e-06
1.31381e-06
1.5121e-06
1.512e-06
1.51316e-06
1.31429e-06
1.31469e-06
1.31599e-06
1.31561e-06
1.5116e-06
1.51144e-06
1.31371e-06
1.31479e-06
1.31526e-06
1.31439e-06
1.30822e-06
1.31282e-06
1.30264e-06
1.51362e-06
1.51184e-06
1.31161e-06
1.31397e-06
1.30549e-06
1.49863e-06
1.51447e-06
1.50963e-06
1.31537e-06
1.31437e-06
1.31175e-06
1.31163e-06
1.51272e-06
1.51003e-06
1.31467e-06
1.313e-06
1.31139e-06
1.31093e-06
1.30203e-06
1.31057e-06
1.3091e-06
1.51302e-06
1.50876e-06
1.30417e-06
1.30972e-06
1.3053e-06
1.50126e-06
1.51105e-06
1.51334e-06
1.31136e-06
1.31163e-06
1.31456e-06
1.31602e-06
1.51225e-06
1.51633e-06
1.31106e-06
1.31119e-06
1.31448e-06
1.31731e-06
1.31351e-06
1.31843e-06
1.32476e-06
1.51092e-06
1.51574e-06
1.30916e-06
1.31667e-06
1.32007e-06
1.52134e-06
1.51657e-06
1.52431e-06
1.31712e-06
1.31798e-06
1.32447e-06
1.32339e-06
1.51949e-06
1.52405e-06
1.31709e-06
1.31944e-06
1.32446e-06
1.32413e-06
1.32749e-06
1.32424e-06
1.32807e-06
1.51909e-06
1.5244e-06
1.32312e-06
1.32329e-06
1.32723e-06
1.53096e-06
1.52793e-06
1.52935e-06
1.32636e-06
1.32457e-06
1.32773e-06
1.3253e-06
1.52632e-06
1.52473e-06
1.32627e-06
1.32458e-06
1.32696e-06
1.32204e-06
1.32492e-06
1.32195e-06
1.31591e-06
1.52636e-06
1.52124e-06
1.3262e-06
1.31921e-06
1.31686e-06
1.51892e-06
1.53047e-06
1.52021e-06
1.32586e-06
1.32435e-06
1.31793e-06
1.31823e-06
1.526e-06
1.51965e-06
1.32459e-06
1.32058e-06
1.31719e-06
1.31743e-06
1.31358e-06
1.31628e-06
1.31092e-06
1.52235e-06
1.51815e-06
1.31428e-06
1.31578e-06
1.31106e-06
1.51096e-06
1.52108e-06
1.51657e-06
1.31596e-06
1.31657e-06
1.31377e-06
1.315e-06
1.52082e-06
1.51928e-06
1.31554e-06
1.31713e-06
1.31436e-06
1.32024e-06
1.31224e-06
1.31626e-06
1.32335e-06
1.52039e-06
1.52639e-06
1.31223e-06
1.32477e-06
1.3256e-06
1.52552e-06
1.51927e-06
1.52677e-06
1.31481e-06
1.31633e-06
1.32307e-06
1.32516e-06
1.52237e-06
1.53092e-06
1.31599e-06
1.32232e-06
1.32314e-06
1.32796e-06
1.32687e-06
1.32744e-06
1.33444e-06
1.53032e-06
1.53839e-06
1.32952e-06
1.33317e-06
1.3365e-06
1.54436e-06
1.53072e-06
1.53673e-06
1.32557e-06
1.3273e-06
1.32996e-06
1.32918e-06
1.53476e-06
1.53521e-06
1.32532e-06
1.32911e-06
1.32891e-06
1.32686e-06
1.33485e-06
1.32878e-06
1.32343e-06
1.54088e-06
1.53222e-06
1.33633e-06
1.32287e-06
1.32035e-06
1.53113e-06
1.53836e-06
1.52626e-06
1.32971e-06
1.32699e-06
1.31824e-06
1.31336e-06
1.53603e-06
1.51892e-06
1.32854e-06
1.32294e-06
1.31766e-06
1.31134e-06
1.31745e-06
1.31042e-06
1.30183e-06
1.53265e-06
1.51379e-06
1.31387e-06
1.30522e-06
1.29813e-06
1.50355e-06
1.52673e-06
1.51337e-06
1.31392e-06
1.30957e-06
1.30495e-06
1.30403e-06
1.51929e-06
1.51082e-06
1.31361e-06
1.30824e-06
1.30494e-06
1.30471e-06
1.29854e-06
1.30252e-06
1.30076e-06
1.51423e-06
1.51098e-06
1.29545e-06
1.30408e-06
1.30261e-06
1.50621e-06
1.51476e-06
1.52086e-06
1.30427e-06
1.30484e-06
1.31144e-06
1.31623e-06
1.51433e-06
1.52784e-06
1.3042e-06
1.30642e-06
1.31063e-06
1.31618e-06
1.30803e-06
1.31858e-06
1.32595e-06
1.51516e-06
1.52929e-06
1.3102e-06
1.32136e-06
1.32853e-06
1.53966e-06
1.52518e-06
1.53431e-06
1.31481e-06
1.31938e-06
1.32119e-06
1.32301e-06
1.53306e-06
1.5384e-06
1.31389e-06
1.31869e-06
1.32058e-06
1.32116e-06
1.33009e-06
1.32481e-06
1.3303e-06
1.53439e-06
1.53641e-06
1.33261e-06
1.32383e-06
1.33068e-06
1.54793e-06
1.53682e-06
1.52757e-06
1.32153e-06
1.32125e-06
1.31215e-06
1.30584e-06
1.53926e-06
1.51941e-06
1.32119e-06
1.31913e-06
1.31322e-06
1.30612e-06
1.32243e-06
1.30313e-06
1.29808e-06
1.53724e-06
1.51902e-06
1.32212e-06
1.30246e-06
1.29791e-06
1.514e-06
1.52802e-06
1.5082e-06
1.30732e-06
1.30119e-06
1.29219e-06
1.28998e-06
1.5195e-06
1.50237e-06
1.30823e-06
1.30196e-06
1.29183e-06
1.29052e-06
1.29164e-06
1.28726e-06
1.28091e-06
1.51922e-06
1.50344e-06
1.29153e-06
1.28773e-06
1.28103e-06
1.49171e-06
1.50848e-06
1.49529e-06
1.28811e-06
1.28832e-06
1.28102e-06
1.28787e-06
1.50354e-06
1.50449e-06
1.28728e-06
1.2882e-06
1.27885e-06
1.28554e-06
1.28118e-06
1.28958e-06
1.29026e-06
1.50453e-06
1.5032e-06
1.28129e-06
1.28743e-06
1.28904e-06
1.50236e-06
1.4968e-06
1.50354e-06
1.28091e-06
1.28898e-06
1.28765e-06
1.29076e-06
1.50746e-06
1.51193e-06
1.27869e-06
1.2861e-06
1.28716e-06
1.29075e-06
1.29313e-06
1.29369e-06
1.29745e-06
1.50581e-06
1.51035e-06
1.29148e-06
1.29182e-06
1.29521e-06
1.5175e-06
1.50832e-06
1.52104e-06
1.29111e-06
1.29166e-06
1.29756e-06
1.29257e-06
1.51452e-06
1.51569e-06
1.29128e-06
1.2924e-06
1.2987e-06
1.29386e-06
1.29767e-06
1.29292e-06
1.29432e-06
1.51338e-06
1.51486e-06
1.29549e-06
1.29206e-06
1.29307e-06
1.51848e-06
1.52474e-06
1.51258e-06
1.29832e-06
1.29268e-06
1.28625e-06
1.28579e-06
1.51767e-06
1.50911e-06
1.29941e-06
1.29278e-06
1.28532e-06
1.27684e-06
1.29312e-06
1.28433e-06
1.28069e-06
1.51601e-06
1.50012e-06
1.2919e-06
1.27558e-06
1.27958e-06
1.50526e-06
1.51227e-06
1.48087e-06
1.27958e-06
1.28017e-06
1.25715e-06
1.25828e-06
1.50942e-06
1.4822e-06
1.2784e-06
1.27237e-06
1.25611e-06
1.25845e-06
1.27581e-06
1.25761e-06
1.2569e-06
1.50044e-06
1.48117e-06
1.2751e-06
1.25945e-06
1.258e-06
1.47968e-06
1.48041e-06
1.45152e-06
1.25239e-06
1.25342e-06
1.22717e-06
1.22518e-06
1.48195e-06
1.44925e-06
1.25145e-06
1.25643e-06
1.22784e-06
1.2377e-06
1.25277e-06
1.22485e-06
1.22945e-06
1.48203e-06
1.46521e-06
1.25443e-06
1.23926e-06
1.23252e-06
1.45553e-06
1.43474e-06
1.19464e-06
1.19232e-06
1.4322e-06
1.19547e-06
1.20391e-06
7.50002e-07
7.59575e-07
7.54771e-07
1.19696e-06
1.4476e-06
1.19927e-06
6.86496e-11
2.45788e-09
1.37663e-10
1.9871e-10
5.62635e-09
3.68149e-09
3.10816e-09
9.81099e-10
5.48626e-09
4.13746e-09
1.04157e-09
1.13289e-08
5.24895e-09
3.53115e-09
8.93617e-09
7.35299e-09
1.8091e-07
5.94717e-09
2.53298e-07
1.65787e-06
3.2944e-06
8.77901e-09
1.58434e-07
7.3147e-09
2.50735e-07
1.43552e-09
1.48646e-09
1.75823e-09
1.37458e-09
1.39567e-09
1.40772e-09
1.74335e-09
4.82168e-09
7.79241e-08
2.72026e-09
3.39389e-09
5.02897e-09
5.55321e-08
2.69462e-09
1.74691e-06
3.47873e-06
4.75841e-09
2.95233e-09
8.64835e-08
4.5108e-09
5.01955e-09
2.9148e-09
6.48538e-08
2.12956e-07
2.15351e-07
4.85177e-09
1.84215e-07
1.84524e-07
1.66495e-08
4.5093e-07
1.20741e-08
6.39625e-07
7.32441e-06
1.05142e-05
1.80582e-08
4.46466e-07
1.32748e-08
6.48466e-07
1.35125e-09
1.35175e-09
1.72383e-09
1.36611e-09
1.23067e-09
1.23667e-09
1.66855e-09
4.32714e-09