/*--------------------------------*- C++ -*----------------------------------*\
| =========                 |                                                 |
| \\      /  F ield         | OpenFOAM: The Open Source CFD Toolbox           |
|  \\    /   O peration     | Version:  v2012                                 |
|   \\  /    A nd           | Website:  www.openfoam.com                      |
|    \\/     M anipulation  |                                                 |
\*---------------------------------------------------------------------------*/
FoamFile
{
    version     2.0;
    format      ascii;
    class       volScalarField;
    location    "1425";
    object      nut;
}
// * * * * * * * * * * * * * * * * * * * * * * * * * * * * * * * * * * * * * //

dimensions      [0 2 -1 0 0 0 0];


internalField   nonuniform List<scalar> 
171728
(
1.6335e-06
1.86345e-06
2.21846e-06
2.28907e-06
1.69248e-06
1.74065e-06
2.19065e-06
2.25859e-06
1.59216e-06
1.67661e-06
2.16744e-06
2.20749e-06
1.66699e-06
1.65892e-06
2.12914e-06
2.15459e-06
1.65275e-06
1.69563e-06
2.05532e-06
2.10542e-06
1.63792e-06
1.72887e-06
1.88369e-06
2.06491e-06
1.62186e-06
1.722e-06
1.70245e-06
2.04456e-06
1.59293e-06
1.67752e-06
1.59413e-06
2.06924e-06
1.55516e-06
1.59589e-06
1.55383e-06
2.13069e-06
1.54686e-06
1.51436e-06
1.51745e-06
2.18683e-06
1.54624e-06
1.43502e-06
1.44678e-06
2.21675e-06
1.52515e-06
1.35469e-06
1.36274e-06
2.24097e-06
1.48261e-06
1.27643e-06
1.26751e-06
1.91649e-06
1.47448e-06
1.18998e-06
1.19025e-06
1.53362e-06
1.49152e-06
1.10069e-06
1.12129e-06
1.28118e-06
1.50209e-06
1.02487e-06
1.03257e-06
1.09823e-06
1.49925e-06
9.56646e-07
9.40711e-07
1.03802e-06
1.48952e-06
9.26118e-07
9.01791e-07
1.04601e-06
1.4886e-06
9.4994e-07
9.12528e-07
6.73249e-07
1.48622e-06
1.06434e-06
1.00442e-06
1.80575e-06
1.49227e-06
1.23464e-06
1.24154e-06
3.82847e-06
1.48248e-06
1.45596e-06
1.58073e-06
2.75735e-06
1.45842e-06
2.1392e-06
2.08209e-06
5.6506e-06
1.43933e-06
2.80431e-06
2.69584e-06
5.92904e-06
1.3196e-06
3.71455e-06
3.81199e-06
6.48377e-06
1.30501e-06
5.5052e-06
5.51543e-06
1.66011e-05
1.09946e-06
6.53635e-06
6.86465e-06
1.67051e-05
1.20343e-06
9.47762e-06
8.94255e-06
2.41033e-05
1.15175e-06
1.09561e-05
1.19012e-05
2.97425e-05
9.71591e-07
1.54767e-05
1.49151e-05
4.01229e-05
1.71683e-06
1.74711e-05
1.68572e-05
4.5157e-05
1.84828e-06
2.13947e-05
2.38958e-05
4.85029e-05
1.32306e-06
2.6449e-05
2.53386e-05
6.14011e-05
2.51254e-06
3.13017e-05
2.98172e-05
6.50093e-05
2.94675e-06
3.58042e-05
4.07015e-05
6.61499e-05
2.85932e-06
4.19148e-05
3.92874e-05
7.64259e-05
4.44639e-06
4.56535e-05
4.50236e-05
8.01247e-05
5.65438e-06
5.3706e-05
5.79999e-05
8.33966e-05
6.97397e-06
5.55969e-05
5.48811e-05
8.6598e-05
8.37874e-06
6.89595e-05
6.51259e-05
9.1702e-05
1.25058e-05
6.70096e-05
7.4873e-05
9.63405e-05
1.08409e-05
8.04269e-05
7.11081e-05
9.74568e-05
1.87617e-05
8.26742e-05
8.75961e-05
0.00010564
2.22618e-05
8.79078e-05
8.58484e-05
0.000104937
1.96999e-05
9.77559e-05
9.68865e-05
0.000113011
3.33307e-05
9.16545e-05
0.000100539
0.000114038
2.93752e-05
0.000112572
9.63285e-05
0.000113917
4.16606e-05
0.000118964
0.000122426
0.000129479
5.40571e-05
0.000109562
0.000121687
0.000123292
4.40461e-05
0.000113599
0.000112168
0.000121936
5.23909e-05
0.000133197
0.000123777
0.000135671
7.62467e-05
0.000136193
0.000137378
0.000140215
7.3494e-05
0.000132201
0.000139486
0.000137348
7.88981e-05
0.000136581
0.000133634
0.000137981
7.45589e-05
0.000140128
0.000139095
0.000145946
8.89608e-05
0.00015209
0.000153563
0.00014576
0.000113677
0.000154495
0.000152524
0.000149349
0.000110496
0.000152099
0.000152613
0.000157406
0.000105118
0.000162322
0.000164429
0.000156149
0.000126642
0.000160774
0.000162186
0.000151904
0.0001243
0.000165614
0.00016059
0.000162661
0.000126541
0.000174342
0.00017343
0.000167476
0.000145625
0.000174281
0.000175367
0.000162868
0.000144668
0.000171685
0.000178813
0.000165936
0.000148195
0.000183097
0.000183814
0.000176388
0.000160886
0.000188374
0.000180183
0.000173291
0.000160677
0.000182182
0.000177116
0.000164278
0.000162534
0.00018495
0.000193548
0.000178374
0.00017638
0.000199263
0.000201107
0.000188227
0.000188313
0.000197563
0.00019598
0.000182859
0.000184557
0.000192883
0.000192629
0.000175806
0.000180217
0.000198302
0.000198933
0.000176838
0.000191509
0.000203225
0.000200813
0.00018583
0.000199793
0.00020465
0.000204186
0.000195053
0.000206166
0.00021024
0.000211719
0.00019487
0.000210549
0.000209339
0.000211099
0.000183694
0.000211791
0.000206585
0.000206571
0.00018241
0.000209318
0.000213374
0.000211761
0.000195708
0.000218319
0.000217624
0.000218426
0.000201416
0.000229992
0.000218825
0.000216826
0.000194403
0.000229278
0.000214922
0.000211881
0.000186079
0.000221884
0.000212636
0.000217621
0.00019389
0.000223673
0.000224419
0.000230008
0.000208674
0.000242149
0.000231147
0.000230457
0.000207343
0.000245474
0.000219968
0.000214506
0.000187769
0.000232326
0.000211831
0.000210569
0.0001832
0.000229469
0.000226618
0.000230035
0.000207407
0.000248052
0.000238046
0.000238372
0.000219123
0.00025747
0.000227694
0.000227023
0.000199301
0.000248282
0.000218009
0.00021939
0.000188271
0.000235281
0.000221682
0.000220551
0.000196696
0.000234709
0.000227671
0.00022724
0.00020306
0.000258094
0.000232525
0.000235014
0.000206905
0.000268954
0.000239143
0.000231457
0.000208584
0.000251539
0.000224383
0.000220515
0.000197117
2.29735e-06
2.35056e-06
2.81001e-06
2.21236e-06
1.98399e-06
5.64924e-06
1.60929e-06
1.58059e-06
1.72911e-06
1.4688e-06
2.06202e-06
2.12603e-06
2.24238e-06
2.57324e-06
2.38358e-06
2.28747e-06
2.29313e-06
2.24553e-06
1.9046e-06
2.71733e-06
1.87001e-06
3.28644e-06
2.21316e-06
2.26563e-06
1.5937e-06
4.24367e-06
1.57328e-06
8.37493e-06
1.8679e-06
1.76788e-06
1.80105e-06
2.24116e-06
2.53193e-06
1.81513e-06
2.19766e-06
1.79559e-06
2.24473e-06
2.24211e-06
2.19339e-06
1.85974e-06
3.74224e-06
1.82468e-06
6.02022e-06
2.27575e-06
2.50625e-06
1.56976e-06
1.06409e-05
1.56137e-06
1.14515e-05
1.78088e-06
1.68661e-06
1.72697e-06
2.52424e-06
2.56517e-06
1.79168e-06
2.17314e-06
1.7961e-06
2.19249e-06
2.19103e-06
2.14728e-06
1.81281e-06
6.74256e-06
1.7754e-06
5.75948e-06
2.50212e-06
2.42505e-06
1.55876e-06
9.57172e-06
1.55582e-06
4.06692e-06
1.7099e-06
1.65612e-06
1.67039e-06
2.49573e-06
2.36324e-06
1.80142e-06
2.13854e-06
1.81843e-06
2.14453e-06
2.14562e-06
2.10128e-06
1.76247e-06
4.91231e-06
1.73152e-06
2.77491e-06
2.38659e-06
2.25479e-06
1.55589e-06
3.11423e-06
1.56443e-06
1.90237e-06
1.65971e-06
1.68401e-06
1.65484e-06
2.34881e-06
2.18375e-06
1.82183e-06
2.08286e-06
1.81281e-06
2.10546e-06
2.10025e-06
2.05482e-06
1.71958e-06
2.37092e-06
1.67686e-06
1.77584e-06
2.23717e-06
2.16566e-06
1.56985e-06
1.75612e-06
1.58895e-06
1.60073e-06
1.6651e-06
1.723e-06
1.7056e-06
2.17462e-06
2.09232e-06
1.80176e-06
1.93235e-06
1.74767e-06
2.08036e-06
2.05239e-06
2.00985e-06
1.66582e-06
1.69725e-06
1.66616e-06
1.61737e-06
2.16116e-06
2.10715e-06
1.59512e-06
1.59171e-06
1.61102e-06
1.58053e-06
1.72328e-06
1.72611e-06
1.81833e-06
2.08605e-06
1.99e-06
1.72643e-06
1.74218e-06
1.66907e-06
2.05581e-06
2.00828e-06
1.98965e-06
1.67238e-06
1.61587e-06
1.70512e-06
1.63821e-06
2.10171e-06
2.03557e-06
1.61707e-06
1.58109e-06
1.63403e-06
1.58276e-06
1.86093e-06
1.6925e-06
2.01804e-06
1.98499e-06
1.91135e-06
1.65128e-06
1.61326e-06
1.59392e-06
2.06788e-06
1.98932e-06
2.00012e-06
1.73992e-06
1.64761e-06
1.87499e-06
1.66592e-06
2.0307e-06
1.9749e-06
1.63839e-06
1.58287e-06
1.63654e-06
1.57843e-06
2.08507e-06
1.6161e-06
2.38405e-06
1.90557e-06
1.84908e-06
1.57024e-06
1.56078e-06
1.48247e-06
2.12692e-06
2.00033e-06
2.02334e-06
1.92932e-06
1.67146e-06
2.10483e-06
1.6762e-06
1.96974e-06
1.91502e-06
1.63087e-06
1.57278e-06
1.60361e-06
1.55188e-06
2.51774e-06
1.53305e-06
2.9932e-06
1.8454e-06
1.81265e-06
1.4503e-06
1.52854e-06
1.34568e-06
2.18671e-06
2.02093e-06
2.00066e-06
2.16092e-06
1.67499e-06
2.28418e-06
1.67967e-06
1.90885e-06
1.85404e-06
1.59255e-06
1.54279e-06
1.55747e-06
1.52587e-06
3.17882e-06
1.45464e-06
3.8071e-06
1.80873e-06
1.7776e-06
1.3064e-06
1.46744e-06
1.18679e-06
2.21901e-06
1.99174e-06
1.90565e-06
2.30874e-06
1.67889e-06
2.21278e-06
1.67153e-06
1.84757e-06
1.79433e-06
1.54737e-06
1.51996e-06
1.50786e-06
1.48917e-06
4.02011e-06
1.37179e-06
4.52686e-06
1.7728e-06
1.72655e-06
1.15023e-06
1.38378e-06
1.04666e-06
2.24722e-06
1.89108e-06
1.77801e-06
2.14288e-06
1.66928e-06
1.92095e-06
1.64987e-06
1.78534e-06
1.72943e-06
1.49494e-06
1.4796e-06
1.4455e-06
1.43397e-06
4.63263e-06
1.29396e-06
4.4965e-06
1.71748e-06
1.63828e-06
1.01757e-06
1.2913e-06
9.24919e-07
1.96914e-06
1.76058e-06
1.64576e-06
1.84178e-06
1.63572e-06
1.61529e-06
1.57052e-06
1.71571e-06
1.64157e-06
1.42653e-06
1.42014e-06
1.36383e-06
1.37843e-06
4.02034e-06
1.20849e-06
2.77085e-06
1.62396e-06
1.53266e-06
8.98624e-07
1.20695e-06
8.46244e-07
1.56411e-06
1.62648e-06
1.51307e-06
1.53468e-06
1.54338e-06
1.32429e-06
1.46496e-06
1.62233e-06
1.52885e-06
1.34181e-06
1.36471e-06
1.26404e-06
1.31948e-06
2.43148e-06
1.12095e-06
1.72142e-06
1.51488e-06
1.42798e-06
8.27257e-07
1.1428e-06
7.76833e-07
1.3079e-06
1.49027e-06
1.38921e-06
1.27814e-06
1.4401e-06
1.19264e-06
1.3497e-06
1.50381e-06
1.40874e-06
1.23981e-06
1.3004e-06
1.17271e-06
1.25038e-06
1.56273e-06
1.04159e-06
1.23804e-06
1.40571e-06
1.32124e-06
7.67072e-07
1.05582e-06
7.14665e-07
1.13007e-06
1.36254e-06
1.27261e-06
1.16953e-06
1.31308e-06
1.12665e-06
1.18745e-06
1.37904e-06
1.28156e-06
1.15208e-06
1.22998e-06
1.09825e-06
1.20114e-06
1.1913e-06
9.71038e-07
1.10888e-06
1.29451e-06
1.20925e-06
6.96474e-07
9.62983e-07
6.34157e-07
1.0351e-06
1.24438e-06
1.21039e-06
1.09721e-06
1.1455e-06
1.05317e-06
1.06843e-06
1.25078e-06
1.18134e-06
1.07333e-06
1.18687e-06
1.06397e-06
1.18341e-06
1.07166e-06
9.40258e-07
9.91149e-07
1.18557e-06
1.13407e-06
6.37031e-07
9.06041e-07
7.99972e-07
1.03151e-06
1.18632e-06
1.17528e-06
1.02623e-06
1.04027e-06
1.04112e-06
1.01534e-06
1.16167e-06
1.13591e-06
1.04106e-06
1.18393e-06
1.05152e-06
1.17121e-06
1.0595e-06
9.47882e-07
1.0149e-06
1.12328e-06
1.10749e-06
8.01548e-07
8.89469e-07
6.87612e-07
7.40088e-07
1.2048e-06
1.28932e-06
1.05235e-06
1.00626e-06
1.11634e-06
9.97995e-07
1.14311e-06
1.16168e-06
1.06554e-06
1.18287e-06
1.11384e-06
1.22124e-06
9.44529e-07
9.98641e-07
9.3376e-07
1.12187e-06
1.19561e-06
6.75638e-07
9.9342e-07
1.22765e-06
1.1805e-06
1.30341e-06
1.52339e-06
1.13841e-06
1.0598e-06
1.25494e-06
1.12505e-06
1.21931e-06
1.46749e-06
1.1403e-06
1.23598e-06
1.24855e-06
1.44287e-06
1.17762e-06
1.15911e-06
1.63228e-06
1.21666e-06
1.59196e-06
1.68649e-06
1.20633e-06
2.89727e-06
3.97669e-06
1.65942e-06
2.19094e-06
1.36871e-06
1.19834e-06
1.4915e-06
1.41279e-06
1.52941e-06
2.15002e-06
1.34163e-06
1.47543e-06
1.54802e-06
1.69047e-06
1.59819e-06
1.44557e-06
1.45586e-06
1.69474e-06
2.00321e-06
3.1054e-06
1.43375e-06
3.73362e-06
2.6297e-06
2.31082e-06
3.33926e-06
1.62708e-06
1.43117e-06
2.051e-06
1.93937e-06
2.18052e-06
3.17061e-06
1.62944e-06
1.82072e-06
2.08927e-06
2.21522e-06
1.67855e-06
1.95913e-06
2.01816e-06
2.26095e-06
3.33377e-06
4.12559e-06
1.94332e-06
6.13839e-06
5.29113e-06
3.56442e-06
5.00028e-06
2.16799e-06
2.08976e-06
2.78381e-06
2.64918e-06
3.77975e-06
5.16631e-06
2.16659e-06
2.33446e-06
2.65341e-06
2.7009e-06
2.26146e-06
2.7031e-06
2.91255e-06
3.48637e-06
4.48666e-06
6.47785e-06
2.42549e-06
5.38838e-06
6.33931e-06
5.60037e-06
7.83363e-06
3.06724e-06
2.76693e-06
3.73793e-06
3.30715e-06
5.46723e-06
6.40625e-06
3.03331e-06
3.00836e-06
3.63341e-06
3.92591e-06
2.82761e-06
3.27569e-06
3.26345e-06
4.9501e-06
8.85119e-06
4.72618e-06
3.72204e-06
4.08145e-06
5.19983e-06
8.29252e-06
1.12904e-05
4.00926e-06
3.68428e-06
4.9664e-06
4.92184e-06
6.98823e-06
1.28395e-05
3.81904e-06
4.0453e-06
5.08917e-06
5.01188e-06
3.62061e-06
5.07855e-06
5.33617e-06
9.35706e-06
9.99321e-06
4.9608e-06
4.86462e-06
8.24855e-06
1.56551e-05
1.22801e-05
1.69035e-05
5.7274e-06
5.3942e-06
6.73222e-06
6.43467e-06
1.39136e-05
1.5997e-05
5.5456e-06
5.60126e-06
6.49826e-06
6.86621e-06
6.25157e-06
6.34872e-06
6.66014e-06
1.12846e-05
1.80482e-05
8.65378e-06
6.5102e-06
8.12688e-06
1.66401e-05
1.74803e-05
2.15333e-05
6.75611e-06
6.5465e-06
8.76854e-06
8.17248e-06
1.64208e-05
2.12558e-05
7.01484e-06
7.17926e-06
8.50345e-06
8.79707e-06
6.52544e-06
8.38887e-06
9.50987e-06
1.83557e-05
2.15684e-05
7.79714e-06
8.6008e-06
8.87498e-06
2.16399e-05
2.3103e-05
3.13087e-05
9.40734e-06
9.46271e-06
1.28027e-05
1.1531e-05
2.33007e-05
3.12773e-05
8.70682e-06
9.31383e-06
1.22033e-05
1.11155e-05
1.07874e-05
1.10954e-05
1.09588e-05
2.31125e-05
2.87231e-05
9.88849e-06
1.057e-05
1.00463e-05
3.01321e-05
3.38073e-05
3.5783e-05
1.40277e-05
1.13257e-05
1.29995e-05
1.32834e-05
3.17307e-05
3.39699e-05
1.4012e-05
1.26015e-05
1.39162e-05
1.55948e-05
1.08608e-05
1.3538e-05
1.51922e-05
3.03588e-05
4.00066e-05
1.04698e-05
1.50555e-05
1.45355e-05
3.6197e-05
3.41575e-05
3.84187e-05
1.22554e-05
1.50498e-05
1.75137e-05
1.69439e-05
3.59674e-05
4.67632e-05
1.3093e-05
1.5194e-05
1.50363e-05
1.44833e-05
1.67053e-05
1.72003e-05
1.77875e-05
4.08326e-05
3.86314e-05
1.56812e-05
1.47806e-05
1.71318e-05
4.57686e-05
4.78772e-05
6.25797e-05
2.43325e-05
1.79104e-05
2.97669e-05
2.13765e-05
4.74648e-05
4.72098e-05
2.02687e-05
1.62567e-05
2.71544e-05
2.42663e-05
1.7905e-05
2.04582e-05
1.89391e-05
3.98378e-05
5.48584e-05
1.72666e-05
2.33808e-05
1.95117e-05
4.58925e-05
6.11937e-05
4.98404e-05
2.79011e-05
2.21092e-05
2.13772e-05
2.51725e-05
4.91346e-05
5.8388e-05
2.62943e-05
2.49495e-05
2.30889e-05
2.40588e-05
2.05287e-05
2.48012e-05
2.7171e-05
5.73391e-05
5.60433e-05
2.08558e-05
2.47613e-05
2.68091e-05
5.98061e-05
5.01243e-05
6.65537e-05
2.07743e-05
2.65474e-05
3.29703e-05
2.98466e-05
5.94185e-05
6.32576e-05
2.27316e-05
2.46067e-05
3.14065e-05
2.835e-05
2.81512e-05
3.09248e-05
3.09937e-05
5.56718e-05
6.15028e-05
2.76295e-05
2.82402e-05
2.99384e-05
6.44662e-05
6.88254e-05
6.99288e-05
3.56126e-05
3.03972e-05
3.73998e-05
3.47076e-05
6.46898e-05
6.81035e-05
3.26768e-05
3.02097e-05
3.61924e-05
3.86039e-05
3.23343e-05
3.3615e-05
3.3671e-05
6.45143e-05
7.1857e-05
3.20497e-05
3.83407e-05
3.40619e-05
6.52479e-05
7.01807e-05
7.17654e-05
3.84676e-05
3.74537e-05
3.85175e-05
4.18859e-05
6.91975e-05
7.39214e-05
3.82325e-05
4.01349e-05
3.95144e-05
3.819e-05
3.41674e-05
4.12299e-05
3.84129e-05
7.23961e-05
7.14041e-05
3.3808e-05
4.02736e-05
3.6328e-05
7.47088e-05
7.28886e-05
7.78741e-05
3.82146e-05
4.18686e-05
4.46595e-05
4.25628e-05
7.45902e-05
7.71822e-05
3.88307e-05
3.72946e-05
4.43484e-05
4.28106e-05
4.14189e-05
4.29195e-05
4.95626e-05
7.15196e-05
7.64898e-05
3.97414e-05
4.23296e-05
5.05056e-05
7.94407e-05
7.94818e-05
8.35254e-05
4.84609e-05
4.50411e-05
5.26932e-05
5.44042e-05
7.85512e-05
8.26882e-05
4.79904e-05
4.63374e-05
5.257e-05
5.6713e-05
4.98158e-05
5.34329e-05
4.84092e-05
7.89458e-05
8.54228e-05
5.1965e-05
5.57821e-05
5.54173e-05
8.25611e-05
8.39914e-05
8.56952e-05
5.23611e-05
5.46822e-05
5.59139e-05
5.3524e-05
8.32116e-05
8.60455e-05
5.40296e-05
5.76875e-05
5.87662e-05
5.4162e-05
5.03467e-05
5.37618e-05
5.84956e-05
8.5733e-05
8.42563e-05
5.67175e-05
5.61339e-05
5.53641e-05
8.59533e-05
8.65498e-05
9.05264e-05
5.70009e-05
5.50962e-05
6.20936e-05
6.64324e-05
8.73839e-05
9.17945e-05
5.89055e-05
5.30821e-05
6.13114e-05
6.21084e-05
5.88413e-05
6.67781e-05
6.17326e-05
8.45782e-05
9.10602e-05
5.46511e-05
5.99418e-05
5.95373e-05
9.00826e-05
9.18625e-05
9.57843e-05
6.54448e-05
6.9836e-05
7.23041e-05
7.06865e-05
9.25673e-05
9.42284e-05
6.42914e-05
6.70543e-05
7.30831e-05
7.6022e-05
6.56211e-05
6.75702e-05
7.16535e-05
9.31093e-05
9.63916e-05
6.41042e-05
7.51896e-05
7.55792e-05
9.61566e-05
9.60548e-05
9.57804e-05
7.21472e-05
6.9742e-05
7.13276e-05
7.53822e-05
9.49738e-05
9.96299e-05
7.30053e-05
7.56928e-05
6.97169e-05
7.11091e-05
7.09162e-05
7.61549e-05
7.13399e-05
9.65037e-05
9.65095e-05
7.58888e-05
7.11493e-05
7.29059e-05
9.65909e-05
9.64341e-05
0.00010431
7.25914e-05
8.00548e-05
8.37088e-05
8.53828e-05
0.000100997
0.000102749
7.06194e-05
7.00118e-05
8.29876e-05
8.04886e-05
7.33776e-05
8.35607e-05
8.50836e-05
9.70289e-05
0.000103472
7.32129e-05
8.47081e-05
8.52591e-05
0.000104661
0.00010596
0.000106765
8.77416e-05
8.41788e-05
8.90827e-05
8.14746e-05
0.000102918
0.000104855
8.7767e-05
8.56719e-05
9.16733e-05
9.44673e-05
8.7824e-05
8.51037e-05
8.64613e-05
0.000104808
0.000107527
8.81162e-05
8.65715e-05
8.66612e-05
0.000105002
0.000106366
0.000108175
8.76225e-05
8.37856e-05
8.79774e-05
9.68827e-05
0.000106145
0.000111922
9.03232e-05
9.47836e-05
8.82361e-05
9.39319e-05
8.53911e-05
9.75531e-05
9.20423e-05
0.000108299
0.000111058
8.54136e-05
9.28381e-05
9.16786e-05
0.000110916
0.000110303
0.000115314
9.38389e-05
9.91056e-05
0.000103287
9.69407e-05
0.00011208
0.000109052
9.15535e-05
9.56307e-05
0.00010279
9.57754e-05
9.6887e-05
9.29193e-05
0.000103401
0.000111715
0.000110763
9.68361e-05
0.000102024
0.000103926
0.000114801
0.000114782
0.000112694
0.000102333
9.62096e-05
9.86271e-05
0.000110287
0.000108944
0.000123956
0.000102347
9.38032e-05
9.82402e-05
9.14444e-05
0.000102013
0.000105933
9.75e-05
0.000110007
0.000111192
0.00010253
9.58968e-05
9.7777e-05
0.000112069
0.000114062
0.000127831
9.94446e-05
0.000117325
0.00011743
0.000121697
0.000127182
0.000127222
9.82071e-05
9.77081e-05
0.000115522
0.00012381
9.7895e-05
0.000120162
0.000117356
0.000114007
0.000131864
9.77192e-05
0.000117663
0.000116269
0.000128891
0.000128857
0.000124715
0.000120546
0.000119479
0.000118151
0.000106883
0.00012588
0.000115666
0.000120295
0.000127191
0.000120725
0.000127034
0.000120919
0.000111629
0.000119195
0.000132829
0.000128389
0.000120466
0.000123432
0.000120109
0.000124148
0.0001238
0.000121212
0.00011564
0.000104421
0.000110417
0.000103141
0.000114962
0.000121509
0.000118768
0.000124338
0.000113078
0.000112919
0.0001169
0.000107813
0.00011152
0.000127466
0.000120929
0.000118147
0.000113797
0.000112262
0.000121241
0.000122273
0.000134612
0.000110158
0.000110907
0.00012652
0.000133533
0.000125305
0.000138369
0.000112297
0.000110571
0.000124403
0.000110342
0.000110845
0.000130312
0.000125028
0.0001202
0.000125929
0.000111162
0.000116328
0.000122935
0.000133415
0.000136329
0.000137967
0.000131095
0.000137646
0.000136606
0.000142251
0.000139537
0.000141552
0.000128928
0.000118581
0.000133466
0.00013849
0.000129853
0.000136727
0.000137186
0.000129593
0.000141516
0.000128435
0.000135915
0.000137801
0.000140114
0.000137798
0.000137736
0.000136603
0.000141746
0.000135266
0.000136001
0.000141388
0.000136125
0.00013324
0.000142067
0.000136013
0.000145319
0.000137539
0.000133126
0.000134897
0.000142687
0.000144017
0.000138443
0.000139986
0.000135895
0.000137868
0.000138226
0.000138512
0.000135131
0.000133501
0.000135463
0.000129911
0.000135435
0.000136428
0.000138024
0.000144634
0.000137273
0.000137648
0.000133621
0.000135441
0.00013273
0.000143671
0.000137401
0.000134269
0.000135151
0.000131648
0.000136831
0.000137942
0.000137777
0.000134436
0.000131264
0.00013401
0.000138625
0.000137544
0.00014164
0.000135804
0.000134906
0.000132775
0.000131287
0.000135799
0.000138158
0.000143037
0.000136576
0.000137455
0.000133212
0.000133665
0.000143549
0.000145138
0.000139613
0.000151464
0.000137754
0.000141809
0.000151118
0.000152006
0.000142928
0.000150854
0.00013476
0.000133066
0.000150507
0.000149775
0.000144266
0.000149263
0.000145691
0.00013991
0.000151062
0.000145123
0.00015151
0.00014562
0.000145913
0.000152972
0.000153447
0.000154418
0.00015465
0.000157026
0.000156556
0.000152036
0.000152816
0.000154061
0.000153238
0.000156753
0.000155614
0.000146055
0.000155155
0.000149736
0.000151998
0.000151429
0.000145725
0.000153439
0.000148976
0.000148124
0.000152949
0.000149247
0.000156264
0.000155802
0.000152766
0.000152766
0.00015241
0.000149677
0.000155986
0.000154831
0.000152695
0.000152074
0.000151739
0.000152209
0.000158367
0.000150968
0.000149624
0.000151097
0.000150799
0.000158508
0.000156415
0.000149063
0.000156361
0.000152089
0.000152294
0.000157454
0.000158776
0.000149809
0.000156654
0.000152071
0.000151718
0.000158141
0.00015982
0.000160085
0.000160469
0.000160526
0.000150568
0.000158216
0.000160572
0.00016293
0.000162569
0.000156803
0.000157965
0.000159017
0.000161233
0.00016137
0.00016451
0.000161894
0.000157467
0.000156099
0.000161766
0.000162925
0.000166006
0.000166441
0.000159664
0.0001616
0.000156921
0.000159038
0.000158533
0.000161804
0.000163384
0.000158086
0.000151958
0.000158563
0.000156395
0.00016379
0.000161187
0.000161578
0.000161944
0.00015561
0.000158377
0.000165446
0.000165926
0.000162513
0.000162963
0.000156972
0.000161528
0.00016622
0.000158083
0.000156229
0.000157218
0.000159778
0.00016077
0.000160338
0.000156744
0.000164169
0.000161911
0.000165778
0.000171495
0.000172718
0.000160346
0.000166031
0.000161829
0.000162118
0.000166984
0.000164486
0.000169598
0.000173633
0.000175191
0.000156658
0.000162469
0.000165712
0.000171256
0.000175409
0.000167705
0.000165472
0.000166948
0.000173924
0.000173624
0.000175518
0.000174953
0.000166154
0.00016581
0.000170629
0.000167194
0.000176714
0.000174259
0.000174925
0.000174789
0.000171764
0.000163375
0.000165583
0.000176273
0.000175448
0.000174743
0.000163417
0.000166599
0.000165379
0.000174887
0.000174456
0.000172895
0.000172216
0.00016553
0.000163768
0.000176864
0.000176494
0.000175978
0.000183308
0.00017072
0.00017202
0.000170797
0.000166088
0.000171721
0.000173788
0.000177137
0.000172442
0.000164346
0.000165903
0.000171916
0.000173
0.000171898
0.0001812
0.000179943
0.000163543
0.00017098
0.00017621
0.000184958
0.00018183
0.00018592
0.000174322
0.000179519
0.000184728
0.000173027
0.000174818
0.000173326
0.000183439
0.000183802
0.000175459
0.000172512
0.000172184
0.000183303
0.000183214
0.000184958
0.000187784
0.00017286
0.000176211
0.000183228
0.00018535
0.000183473
0.000178338
0.000186794
0.000188395
0.000187583
0.000174321
0.000166913
0.000186027
0.000181747
0.000186694
0.000174421
0.000171832
0.000171457
0.000184689
0.000187611
0.000183647
0.000183468
0.000175826
0.000170387
0.000182922
0.000176157
0.000180962
0.000173089
0.000186208
0.000183829
0.000178546
0.000165872
0.00016456
0.000185096
0.000177116
0.000178037
0.000164894
0.000171924
0.000174922
0.000184026
0.000182237
0.000185764
0.000182408
0.000169701
0.000172473
0.000180933
0.000174166
0.000185929
0.000189088
0.000177515
0.000181443
0.000182321
0.000165871
0.000178861
0.000177198
0.000189139
0.0001845
0.000175127
0.000175448
0.000181996
0.00018701
0.000186461
0.000194511
0.00019722
0.000174747
0.0001845
0.000188246
0.000193379
0.000196603
0.00020168
0.000188607
0.000197656
0.000201251
0.000181135
0.000187203
0.000190634
0.000200778
0.000201537
0.00018808
0.000183141
0.000183938
0.000196849
0.000198645
0.000199087
0.000198416
0.000184833
0.000181604
0.000198757
0.000202405
0.000200412
0.000200654
0.000202713
0.000199233
0.000202376
0.000187162
0.000181771
0.000202439
0.000198279
0.00020081
0.000183877
0.000183383
0.000178038
0.000198837
0.000196672
0.000194229
0.00019289
0.000180649
0.000177057
0.000199914
0.000198059
0.000194089
0.000193142
0.000200054
0.000193271
0.000192441
0.000180715
0.000177103
0.000198289
0.000192831
0.000192359
0.000176475
0.000177545
0.000180258
0.00019334
0.000192622
0.000193766
0.000197402
0.000177159
0.00018338
0.000193066
0.000192729
0.000193243
0.000195522
0.000190701
0.000195892
0.000188647
0.000177161
0.000182586
0.000191308
0.00019716
0.000190863
0.00017599
0.000181724
0.000186398
0.000196716
0.000199743
0.000203019
0.000203015
0.000184487
0.000186131
0.000196111
0.000197877
0.00020258
0.000201581
0.000190169
0.000202705
0.000200821
0.000183518
0.00018482
0.000192691
0.000200968
0.00019968
0.000184244
0.000186486
0.000186298
0.000203832
0.000203104
0.000203999
0.000202636
0.00018591
0.00018539
0.000203534
0.000201728
0.000204122
0.000202248
0.000203971
0.00020372
0.000212089
0.000184523
0.000184826
0.000202289
0.000202042
0.000209854
0.000194172
0.00018616
0.000189424
0.000203995
0.000202874
0.000207237
0.000208115
0.000185573
0.000190451
0.00020418
0.000203626
0.000207457
0.000209478
0.000213708
0.000209323
0.000214833
0.000185687
0.000191785
0.000212012
0.000210652
0.000214611
0.000195843
0.000190375
0.000192178
0.000209136
0.000209873
0.000211654
0.000211316
0.00019098
0.000190925
0.000209173
0.000210794
0.000211465
0.000211453
0.000213603
0.000210314
0.000204797
0.000192166
0.00019151
0.000214516
0.000212021
0.000208293
0.000185149
0.000191954
0.000189684
0.00021167
0.000211091
0.000209937
0.00020888
0.000190492
0.000188457
0.000211476
0.000210914
0.000209793
0.000207715
0.00020219
0.000206762
0.000199538
0.000190975
0.000187573
0.000205493
0.000207098
0.000201356
0.000181276
0.000189202
0.000187778
0.000209036
0.000208501
0.000207533
0.000209373
0.000188264
0.000191405
0.000208897
0.00020726
0.000207456
0.000209043
0.00020072
0.000211512
0.000213972
0.000187195
0.000190727
0.000201204
0.000208726
0.000210627
0.000194058
0.000187998
0.000194524
0.00020769
0.000210723
0.000214198
0.000214629
0.000192032
0.00019461
0.000207744
0.000211459
0.0002148
0.000217051
0.000217623
0.000216889
0.000222654
0.000192063
0.000196786
0.000214451
0.00021782
0.000221736
0.000201457
0.000195766
0.000200185
0.000216847
0.000216029
0.000221681
0.000219655
0.000194928
0.0001972
0.000217483
0.000217954
0.000221579
0.000218529
0.000222969
0.000218747
0.000218486
0.000196815
0.000195265
0.000222337
0.00021807
0.000219681
0.000195801
0.000200061
0.000195013
0.000222024
0.000220052
0.000219341
0.000219116
0.000197181
0.000194857
0.000221799
0.000218148
0.00021838
0.000215301
0.000216147
0.000216552
0.000209759
0.000194642
0.000191263
0.000217034
0.000212511
0.000209261
0.000186841
0.000194032
0.000190906
0.00021742
0.00021736
0.000213123
0.000213182
0.000193961
0.000190566
0.000216576
0.000214501
0.000213426
0.000213958
0.000208832
0.000212484
0.000211178
0.000190796
0.000193519
0.000208228
0.000214193
0.000211212
0.000191579
0.000190669
0.000195212
0.000212641
0.000212843
0.000215467
0.000217663
0.000190444
0.000198232
0.000213102
0.000215381
0.000216908
0.000222652
0.000215509
0.000220795
0.000228393
0.000194779
0.000202682
0.000216377
0.000227731
0.00023122
0.00020743
0.000196554
0.000204026
0.000218699
0.000221495
0.00022797
0.000229442
0.000199797
0.000206334
0.000219497
0.000225208
0.000227499
0.000229103
0.000231567
0.000230614
0.00023499
0.000203569
0.000205998
0.000234157
0.000232241
0.000236208
0.000209716
0.000204375
0.000202221
0.000229428
0.00023017
0.000229369
0.000226014
0.000206261
0.000198055
0.000228804
0.000229383
0.000228736
0.000222729
0.000233594
0.00022415
0.000218353
0.000204822
0.000194547
0.00023254
0.0002183
0.000215152
0.000190427
0.000200744
0.000193103
0.000226261
0.000222263
0.000217378
0.000214333
0.000196047
0.000189006
0.000225875
0.00021948
0.000217764
0.000214076
0.000213109
0.0002123
0.000206424
0.000192766
0.000188474
0.000210194
0.000210121
0.000204679
0.000181751
0.000192432
0.000195091
0.000216095
0.000213745
0.000216649
0.000219702
0.000188607
0.000199428
0.000216523
0.00021382
0.000216742
0.000221809
0.000206542
0.000221019
0.000224402
0.000189119
0.000201626
0.000205584
0.000224922
0.000226473
0.000204297
0.00019667
0.00020458
0.000220069
0.00022449
0.000230039
0.000234389
0.000201669
0.000210434
0.000219774
0.00022582
0.000229192
0.000233297
0.000231965
0.000237073
0.000244012
0.000203427
0.000209659
0.000233989
0.0002377
0.000245196
0.000219386
0.000205145
0.000207798
0.000232082
0.000235411
0.000234981
0.000232561
0.000210419
0.000203105
0.000231469
0.000234127
0.000235208
0.000232133
0.000245009
0.000232072
0.000232385
0.000209427
0.00020254
0.000246046
0.000230705
0.000231852
0.000202259
0.000207333
0.000201452
0.000234625
0.000229128
0.000227293
0.000221691
0.000201376
0.000194727
0.000235548
0.000229683
0.000228541
0.000223594
0.000225946
0.000218954
0.000214041
0.000201213
0.000196286
0.000225543
0.00022025
0.000214489
0.000188849
0.000200423
0.000193225
0.000225164
0.000220581
0.00021888
0.000220163
0.000194282
0.000196288
0.000225935
0.000222308
0.00021799
0.000219597
0.000213069
0.000219017
0.00021667
0.000195892
0.000195541
0.000213667
0.000219226
0.000217348
0.000194944
0.00019213
0.000191941
0.000217484
0.000221069
0.00021691
0.000224258
0.000197086
0.000200124
0.000216249
0.000219291
0.00021552
0.000222385
0.00022104
0.000226678
0.000228873
0.000195534
0.000199152
0.000221254
0.000225214
0.000228048
0.000202756
0.000193813
0.000206773
0.000219597
0.000225539
0.000231873
0.000229329
0.000200274
0.00020328
0.000218556
0.000225123
0.000233098
0.00023406
0.000230107
0.000230503
0.000233695
0.000200223
0.000207664
0.000229245
0.000233753
0.000233322
0.000206367
0.000208551
0.000216004
0.000235942
0.000231966
0.000242533
0.00023874
0.000203942
0.000211482
0.000237359
0.000235904
0.000243466
0.000237405
0.000235277
0.000238468
0.00023868
0.000208212
0.000206528
0.000234903
0.000235374
0.000237695
0.000210367
0.000214802
0.000198402
0.000242601
0.000239539
0.000228981
0.000231416
0.000211554
0.000201323
0.000242973
0.000234019
0.000227632
0.000223445
0.000237321
0.000230348
0.000226089
0.000204318
0.000194347
0.000235646
0.00022336
0.000225434
0.000196979
0.000197869
0.000222975
0.000225049
0.000200469
0.000222043
0.000220175
0.000253568
0.00024674
0.000247824
0.000221321
0.000195815
0.000221209
2.50185e-06
2.16877e-06
1.09593e-06
1.22945e-06
1.30935e-06
2.02422e-06
1.52199e-06
1.30172e-06
1.19823e-06
2.44863e-06
1.36618e-06
1.67459e-06
2.28751e-06
1.83836e-06
1.94722e-06
1.1298e-06
1.39605e-05
1.09603e-06
1.51664e-05
1.10375e-05
1.3316e-05
1.31881e-06
1.33391e-05
1.25081e-06
1.50929e-05
1.57667e-06
1.68972e-06
1.49174e-06
1.72834e-06
1.61762e-06
1.78024e-06
1.5036e-06
1.30204e-06
3.82079e-07
1.6081e-06
1.82848e-06
1.31761e-06
4.86016e-07
1.61082e-06
1.12083e-05
1.35491e-05
1.21889e-06
1.7527e-06
5.4261e-07
2.21675e-06
1.20661e-06
1.75679e-06
6.67698e-07
1.49413e-06
1.50457e-06
2.26677e-06
1.6977e-06
1.71644e-06
1.33155e-06
1.83179e-05
1.25337e-06
2.0591e-05
1.73585e-05
1.95844e-05
1.49919e-06
1.82621e-05
1.45332e-06
2.0693e-05
1.6409e-06
1.81583e-06
1.50253e-06
1.57303e-06
1.71549e-06
1.75473e-06