/*--------------------------------*- C++ -*----------------------------------*\
| =========                 |                                                 |
| \\      /  F ield         | OpenFOAM: The Open Source CFD Toolbox           |
|  \\    /   O peration     | Version:  v2012                                 |
|   \\  /    A nd           | Website:  www.openfoam.com                      |
|    \\/     M anipulation  |                                                 |
\*---------------------------------------------------------------------------*/
FoamFile
{
    version     2.0;
    format      ascii;
    class       volScalarField;
    location    "1425";
    object      p;
}
// * * * * * * * * * * * * * * * * * * * * * * * * * * * * * * * * * * * * * //

dimensions      [0 2 -2 0 0 0 0];


internalField   nonuniform List<scalar> 
171728
(
0.00351975
0.00351857
0.00351869
0.0035193
0.00348415
0.00348261
0.0034827
0.0034855
0.00344551
0.00344363
0.00344369
0.003446
0.00340134
0.00339972
0.00339968
0.00340193
0.00335322
0.00335184
0.0033517
0.00335413
0.00330439
0.00330307
0.00330304
0.00330546
0.00325615
0.00325496
0.003255
0.00325736
0.00320886
0.00320782
0.00320781
0.00321019
0.00316255
0.00316166
0.00316164
0.00316404
0.00311721
0.00311643
0.00311642
0.00311882
0.0030728
0.00307212
0.00307212
0.00307447
0.00302914
0.00302858
0.00302857
0.00303087
0.00298603
0.0029856
0.0029856
0.00298797
0.00294333
0.00294301
0.00294304
0.00294532
0.00290101
0.00290075
0.00290074
0.00290288
0.00285899
0.00285869
0.00285867
0.00286082
0.00281727
0.00281702
0.0028171
0.00281924
0.00277589
0.00277581
0.00277591
0.00277846
0.00273489
0.00273477
0.00273487
0.00273654
0.00269426
0.00269438
0.00269431
0.00269612
0.00265391
0.00265407
0.00265389
0.0026558
0.00261393
0.00261397
0.0026141
0.00261582
0.0025742
0.00257443
0.00257442
0.00257599
0.00253476
0.00253507
0.0025351
0.00253648
0.0024956
0.00249605
0.0024959
0.00249802
0.00245662
0.00245698
0.00245708
0.00245864
0.00241789
0.00241837
0.00241833
0.0024199
0.00237933
0.00237982
0.00237985
0.00238187
0.00234098
0.0023416
0.00234163
0.00234318
0.00230295
0.00230357
0.0023034
0.0023057
0.00226512
0.00226561
0.00226574
0.00226718
0.00222693
0.0022277
0.00222764
0.00222979
0.00218948
0.00219015
0.00219007
0.00219197
0.00215191
0.00215255
0.00215271
0.00215432
0.00211445
0.00211514
0.002115
0.00211713
0.00207719
0.00207784
0.00207792
0.00207959
0.00204026
0.00204069
0.00204084
0.00204265
0.00200301
0.00200361
0.00200339
0.00200545
0.0019662
0.00196671
0.00196681
0.00196871
0.00192968
0.00192982
0.00192991
0.0019318
0.00189266
0.00189327
0.00189306
0.00189514
0.00185659
0.00185651
0.00185686
0.00185882
0.0018202
0.00182042
0.00182008
0.00182216
0.00178361
0.00178389
0.00178409
0.00178618
0.00174791
0.00174754
0.00174756
0.00174961
0.00171166
0.00171223
0.00171185
0.00171384
0.00167635
0.00167581
0.0016766
0.00167868
0.00164031
0.00163972
0.00163946
0.00164161
0.00160414
0.0016049
0.00160418
0.00160649
0.00156919
0.00156905
0.00156954
0.00157147
0.00153463
0.00153369
0.00153407
0.00153579
0.0014989
0.00149859
0.00149828
0.00150051
0.00146283
0.00146295
0.00146263
0.00146501
0.00142731
0.00142738
0.00142761
0.00142948
0.00139292
0.00139248
0.00139265
0.00139437
0.00135845
0.00135767
0.00135752
0.00135969
0.00132295
0.0013229
0.00132301
0.00132502
0.00128791
0.001288
0.00128794
0.00128968
0.00125348
0.00125273
0.00125262
0.00125462
0.00121817
0.00121837
0.0012184
0.00122056
0.00118368
0.00118362
0.00118376
0.00118553
0.00114958
0.00114872
0.00114876
0.00115045
0.00111467
0.00111466
0.00111469
0.00111663
0.00108011
0.00108022
0.00107995
0.00108216
0.00104545
0.00104504
0.00104496
0.00104683
0.00101066
0.00101027
0.00101069
0.00101224
0.000976484
0.000976498
0.00097678
0.000978721
0.000942461
0.000942277
0.000941932
0.000943939
0.000907687
0.000907163
0.000907006
0.000908892
0.000872855
0.000872987
0.00087304
0.000874964
0.000838584
0.000838713
0.000838745
0.000840729
0.000804025
0.000803633
0.000803674
0.000805742
0.00076898
0.000768855
0.000768905
0.000770766
0.000735085
0.000734954
0.000734926
0.000736641
0.000700889
0.000700631
0.000700599
0.000702456
0.000665607
0.000665651
0.000665607
0.000667806
0.000630702
0.000630946
0.000630935
0.000633074
0.000596721
0.00059639
0.000596516
0.000598255
0.000562028
0.000561649
0.000561577
0.000563411
0.000526396
0.000526478
0.000526452
0.000528511
0.000491769
0.000491988
0.000492163
0.000494232
0.000457726
0.000457805
0.000457624
0.000459545
0.000422999
0.000422441
0.000422257
0.000424105
0.000386803
0.00038655
0.000386641
0.000388578
0.000351227
0.000351635
0.000351894
0.000353991
0.000317215
0.000317591
0.000317587
0.00031971
0.000282851
0.000282265
0.000282047
0.000283897
0.000246758
0.000246169
0.000246206
0.000247907
0.000210512
0.000210821
0.000210901
0.000213078
0.000175095
0.000175688
0.000175601
0.00017791
0.000140178
0.000140049
0.000140054
0.000141932
0.000105374
0.000104644
0.000104802
0.000106469
6.95198e-05
6.94936e-05
6.92728e-05
7.13305e-05
3.3423e-05
3.30804e-05
3.31914e-05
3.50795e-05
5.37595e-06
6.2857e-06
6.67599e-06
4.73027e-06
0.0035242
0.00352179
0.00352162
0.00352405
0.00352175
0.0035218
0.00352811
0.00352799
0.00352813
0.00352803
0.00352156
0.00352176
0.00352422
0.00352171
0.00352171
0.00352411
0.00351939
0.00349029
0.00351882
0.00351861
0.00349211
0.00349215
0.00351929
0.00349029
0.00351865
0.0035187
0.00349218
0.00349229
0.00351878
0.00349216
0.00349212
0.00351945
0.00349033
0.00351864
0.0034921
0.00349203
0.00349024
0.00348552
0.00345154
0.00348272
0.00348268
0.00345378
0.00345389
0.00348551
0.00345147
0.00348266
0.0034827
0.0034538
0.00345385
0.00348267
0.0034538
0.00345377
0.00348555
0.00345151
0.0034827
0.00345374
0.00345376
0.00345152
0.00344601
0.00340812
0.00344367
0.0034436
0.00341117
0.0034112
0.00344593
0.00340807
0.00344372
0.00344389
0.00341118
0.00341154
0.00344373
0.00341112
0.00341111
0.00344596
0.00340803
0.00344373
0.0034112
0.00341112
0.0034081
0.00340192
0.00336055
0.00339964
0.0033997
0.00336397
0.00336401
0.00340189
0.00336055
0.00339968
0.00339964
0.00336387
0.00336408
0.00339971
0.00336393
0.00336395
0.00340183
0.00336043
0.00339967
0.00336388
0.00336397
0.0033606
0.00335408
0.00331186
0.00335175
0.00335181
0.00331524
0.00331518
0.00335409
0.00331185
0.00335178
0.00335163
0.00331522
0.00331515
0.00335182
0.00331522
0.00331529
0.003354
0.00331191
0.00335178
0.00331518
0.00331527
0.0033119
0.00330542
0.00326364
0.00330308
0.00330305
0.00326689
0.0032668
0.00330541
0.00326367
0.00330306
0.00330302
0.00326693
0.0032668
0.00330309
0.00326693
0.00326694
0.00330548
0.00326371
0.00330308
0.00326693
0.00326693
0.00326367
0.00325732
0.00321635
0.00325499
0.00325491
0.00321956
0.00321949
0.00325734
0.00321636
0.00325496
0.00325489
0.00321954
0.00321951
0.00325502
0.00321949
0.00321952
0.00325737
0.00321636
0.003255
0.00321949
0.00321952
0.00321637
0.00321016
0.00317005
0.0032078
0.00320777
0.00317311
0.00317305
0.00321017
0.00317004
0.00320782
0.00320781
0.00317311
0.00317308
0.00320783
0.00317307
0.0031731
0.00321018
0.00317004
0.00320783
0.00317306
0.00317311
0.00317006
0.003164
0.00312471
0.00316161
0.00316167
0.00312764
0.00312766
0.00316402
0.00312468
0.00316164
0.00316164
0.00312766
0.00312764
0.00316168
0.00312764
0.00312769
0.00316401
0.00312471
0.00316168
0.00312763
0.0031277
0.00312471
0.00311879
0.00308026
0.00311644
0.00311647
0.00308313
0.00308316
0.00311879
0.00308028
0.00311644
0.00311641
0.00308315
0.00308314
0.00311646
0.00308314
0.00308317
0.0031188
0.00308027
0.00311644
0.00308313
0.00308317
0.00308028
0.00307447
0.00303659
0.00307213
0.00307215
0.00303939
0.00303942
0.00307449
0.0030366
0.00307212
0.00307212
0.00303941
0.00303939
0.00307211
0.00303942
0.00303937
0.00307449
0.00303659
0.00307213
0.0030394
0.00303937
0.00303654
0.00303093
0.00299347
0.00302855
0.0030286
0.00299621
0.00299628
0.00303092
0.00299348
0.00302856
0.00302857
0.00299622
0.00299629
0.00302859
0.0029963
0.00299625
0.00303091
0.00299352
0.00302866
0.0029963
0.00299636
0.0029935
0.00298791
0.00295089
0.00298561
0.0029856
0.0029536
0.00295362
0.00298789
0.00295083
0.00298561
0.00298561
0.00295362
0.00295359
0.00298566
0.00295363
0.00295352
0.00298792
0.00295087
0.0029857
0.0029536
0.00295369
0.00295077
0.0029453
0.00290859
0.00294308
0.00294301
0.00291134
0.00291129
0.00294528
0.0029085
0.00294307
0.00294305
0.00291136
0.0029113
0.00294304
0.0029113
0.00291111
0.00294534
0.00290852
0.00294301
0.0029113
0.00291131
0.00290827
0.00290311
0.00286654
0.00290082
0.00290071
0.00286919
0.00286926
0.00290302
0.00286644
0.00290086
0.00290073
0.00286917
0.0028692
0.00290078
0.00286926
0.00286914
0.00290304
0.00286644
0.00290084
0.00286922
0.00286917
0.00286622
0.00286114
0.00282472
0.00285894
0.00285871
0.00282732
0.00282748
0.002861
0.00282468
0.00285892
0.00285868
0.00282733
0.00282747
0.00285868
0.00282747
0.00282735
0.002861
0.00282468
0.00285871
0.00282743
0.00282733
0.00282488
0.0028194
0.00278316
0.00281715
0.00281704
0.00278606
0.00278614
0.00281932
0.00278335
0.00281716
0.00281711
0.00278605
0.00278616
0.0028168
0.00278618
0.00278682
0.00281933
0.00278326
0.00281686
0.00278622
0.0027867
0.00278368
0.00277785
0.00274222
0.0027757
0.00277574
0.00274518
0.00274516
0.00277803
0.00274215
0.00277568
0.00277583
0.00274514
0.0027451
0.0027764
0.00274512
0.0027445
0.00277795
0.00274214
0.00277625
0.00274506
0.00274454
0.00274195
0.00273699
0.00270144
0.00273495
0.00273481
0.0027044
0.00270451
0.00273689
0.00270147
0.00273495
0.00273493
0.0027044
0.00270431
0.00273451
0.00270452
0.00270464
0.00273692
0.0027015
0.00273451
0.0027043
0.00270471
0.00270106
0.00269625
0.00266095
0.00269427
0.00269437
0.00266409
0.00266402
0.00269629
0.00266097
0.00269428
0.0026943
0.00266412
0.00266405
0.00269453
0.00266404
0.00266403
0.00269631
0.0026609
0.00269455
0.00266407
0.00266408
0.00266096
0.00265582
0.00262088
0.00265405
0.00265409
0.00262399
0.00262392
0.00265583
0.0026208
0.00265406
0.00265391
0.00262401
0.00262407
0.00265386
0.00262393
0.00262398
0.00265575
0.00262075
0.00265387
0.00262409
0.00262407
0.0026209
0.00261579
0.00258105
0.00261409
0.00261396
0.00258426
0.00258436
0.00261567
0.00258103
0.00261409
0.00261409
0.00258428
0.0025843
0.00261406
0.00258436
0.00258434
0.0026157
0.00258104
0.00261409
0.00258425
0.00258422
0.00258099
0.00257599
0.00254166
0.0025744
0.00257442
0.00254486
0.00254489
0.00257605
0.00254156
0.00257442
0.00257442
0.00254489
0.00254487
0.0025745
0.00254489
0.00254479
0.00257601
0.00254168
0.00257439
0.00254486
0.00254481
0.00254164
0.00253667
0.00250251
0.00253507
0.00253505
0.0025057
0.00250574
0.00253659
0.00250251
0.00253511
0.00253507
0.00250567
0.0025057
0.00253495
0.00250572
0.00250571
0.00253672
0.00250249
0.0025349
0.00250572
0.00250598
0.00250279
0.0024976
0.00246369
0.00249593
0.00249605
0.00246683
0.00246672
0.00249765
0.00246371
0.00249596
0.00249588
0.00246678
0.0024668
0.00249604
0.00246673
0.00246676
0.00249742
0.00246377
0.00249617
0.00246676
0.00246668
0.0024637
0.00245872
0.00242495
0.00245714
0.00245703
0.00242784
0.00242792
0.00245871
0.00242482
0.0024571
0.00245713
0.00242789
0.00242787
0.00245697
0.00242798
0.00242795
0.00245893
0.00242481
0.00245692
0.00242793
0.00242794
0.00242478
0.00242007
0.00238662
0.00241832
0.00241833
0.00238947
0.00238948
0.00241995
0.00238676
0.00241832
0.00241826
0.00238944
0.00238944
0.00241835
0.00238946
0.00238949
0.0024199
0.00238659
0.00241835
0.00238945
0.00238948
0.00238679
0.00238176
0.00234859
0.00237989
0.00237982
0.00235102
0.00235102
0.00238183
0.00234817
0.0023799
0.00237983
0.00235113
0.0023512
0.0023798
0.00235107
0.00235111
0.00238166
0.00234845
0.00237983
0.00235119
0.00235117
0.00234807
0.00234363
0.00230972
0.00234144
0.00234155
0.0023129
0.00231309
0.00234328
0.00231042
0.00234152
0.00234161
0.0023128
0.00231285
0.00234164
0.00231313
0.00231308
0.00234357
0.00231013
0.00234167
0.00231291
0.00231302
0.00231064
0.00230485
0.00227343
0.00230362
0.00230358
0.00227556
0.00227515
0.00230556
0.0022724
0.00230355
0.00230338
0.0022754
0.00227531
0.0023035
0.00227504
0.00227503
0.00230515
0.00227249
0.00230349
0.00227521
0.00227506
0.00227208
0.00226853
0.00223412
0.00226582
0.00226573
0.00223668
0.0022371
0.00226742
0.0022345
0.00226583
0.00226582
0.0022369
0.00223714
0.00226557
0.00223719
0.00223726
0.00226766
0.0022346
0.00226563
0.00223717
0.00223723
0.0022347
0.00222911
0.00219692
0.00222724
0.00222755
0.0021996
0.00219939
0.00222962
0.0021968
0.00222741
0.00222758
0.00219948
0.00219937
0.00222782
0.00219949
0.00219949
0.0022296
0.00219659
0.00222776
0.0021994
0.00219944
0.00219686
0.00219215
0.00215949
0.00219035
0.00219011
0.00216211
0.00216208
0.00219192
0.00215943
0.0021902
0.0021901
0.0021621
0.00216215
0.00219011
0.00216196
0.0021619
0.00219178
0.00215959
0.00219008
0.00216212
0.00216196
0.00215922
0.00215452
0.0021217
0.00215258
0.00215266
0.00212436
0.00212446
0.00215452
0.00212178
0.00215265
0.00215271
0.00212439
0.00212438
0.0021525
0.00212451
0.00212453
0.00215464
0.00212167
0.00215253
0.0021244
0.00212446
0.002122
0.00211682
0.00208469
0.00211503
0.00211507
0.00208716
0.00208705
0.00211689
0.00208459
0.00211502
0.00211498
0.00208713
0.00208709
0.00211525
0.0020871
0.00208714
0.00211679
0.00208469
0.00211519
0.00208709
0.00208723
0.00208449
0.00207982
0.00204743
0.00207791
0.0020778
0.00205009
0.00205009
0.00207974
0.00204747
0.0020779
0.00207794
0.00205011
0.0020502
0.00207781
0.00205004
0.00204995
0.00207987
0.00204756
0.0020779
0.0020502
0.00204995
0.00204749
0.00204255
0.00201033
0.00204076
0.00204074
0.00201276
0.00201274
0.00204253
0.00201034
0.00204079
0.00204079
0.00201281
0.00201262
0.00204069
0.0020128
0.0020129
0.00204261
0.00201014
0.00204065
0.00201267
0.00201278
0.00201036
0.00200545
0.00197353
0.00200352
0.00200355
0.00197592
0.00197601
0.00200553
0.00197356
0.00200352
0.00200338
0.00197584
0.00197606
0.00200361
0.00197598
0.00197582
0.00200531
0.00197372
0.00200348
0.00197592
0.00197586
0.00197352
0.00196871
0.00193674
0.00196674
0.00196674
0.00193922
0.00193898
0.00196865
0.00193655
0.00196669
0.00196695
0.00193926
0.00193909
0.00196667
0.00193897
0.0019392
0.0019689
0.00193659
0.00196675
0.00193921
0.00193924
0.0019367
0.00193185
0.0018999
0.00192997
0.00192981
0.00190217
0.0019024
0.00193175
0.00190022
0.00193001
0.00192975
0.00190212
0.00190216
0.00192992
0.00190248
0.0019022
0.00193168
0.00189991
0.00192994
0.00190218
0.00190216
0.00189995
0.00189508
0.00186369
0.00189302
0.00189324
0.00186596
0.00186572
0.00189534
0.0018633
0.00189296
0.00189311
0.00186595
0.001866
0.00189309
0.00186563
0.00186592
0.00189511
0.00186378
0.00189302
0.00186595
0.00186589
0.00186364
0.00185888
0.00182696
0.0018569
0.00185653
0.00182928
0.00182933
0.00185849
0.00182726
0.00185694
0.00185687
0.00182934
0.00182924
0.00185684
0.00182948
0.00182926
0.00185895
0.0018269
0.00185686
0.00182923
0.00182929
0.00182698
0.0018221
0.00179088
0.00182006
0.00182036
0.00179296
0.00179321
0.00182246
0.00179088
0.00182009
0.0018201
0.0017929
0.00179301
0.00182008
0.00179304
0.00179305
0.00182206
0.00179094
0.00182009
0.00179309
0.00179304
0.00179096
0.00178612
0.00175461
0.00178404
0.00178405
0.00175695
0.00175641
0.00178601
0.00175435
0.00178398
0.00178396
0.00175698
0.00175664
0.00178411
0.00175655
0.00175682
0.00178615
0.00175447
0.00178411
0.00175674
0.00175686
0.00175449
0.00174968
0.00171846
0.00174769
0.0017474
0.00172041
0.0017211
0.00174959
0.00171895
0.00174777
0.00174754
0.00172035
0.00172087
0.00174758
0.00172099
0.00172045
0.00174961
0.0017187
0.00174761
0.00172062
0.00172041
0.00171849
0.00171383
0.00168352
0.00171172
0.00171237
0.00168572
0.00168494
0.00171426
0.00168279
0.0017116
0.00171207
0.00168566
0.00168563
0.00171175
0.00168504
0.0016857
0.00171401
0.00168342
0.0017117
0.00168557
0.00168567
0.00168354
0.00167867
0.0016464
0.00167663
0.00167559
0.00164853
0.00164837
0.00167793
0.00164645
0.00167675
0.00167652
0.00164876
0.00164843
0.00167665
0.00164856
0.00164858
0.00167855
0.00164644
0.00167669
0.00164866
0.00164865
0.00164645
0.00164151
0.00161106
0.00163929
0.00163964
0.00161301
0.00161388
0.0016417
0.00161172
0.00163946
0.00163931
0.00161278
0.00161287
0.00163939
0.00161365
0.00161308
0.00164159
0.00161092
0.00163944
0.00161284
0.00161299
0.00161115
0.00160649
0.00157652
0.0016045
0.00160519
0.00157864
0.00157825
0.00160707
0.00157607
0.0016042
0.00160421
0.00157841
0.00157834
0.00160447
0.00157809
0.00157825
0.00160626
0.00157633
0.00160435
0.00157826
0.0015782
0.00157621
0.00157177
0.0015404
0.00156973
0.00156912
0.00154235
0.00154209
0.00157122
0.0015402
0.00156965
0.00156963
0.00154279
0.00154322
0.00156936
0.00154234
0.00154255
0.00157169
0.00154084
0.00156942
0.00154309
0.00154285
0.00154052
0.00153561
0.00150517
0.00153336
0.00153342
0.00150721
0.00150734
0.00153549
0.00150527
0.00153379
0.00153419
0.00150728
0.00150696
0.00153367
0.00150747
0.00150733
0.00153602
0.00150502
0.00153385
0.00150715
0.00150727
0.00150527
0.00150044
0.00146976
0.0014985
0.00149849
0.00147196
0.00147188
0.0015005
0.00146994
0.00149846
0.00149805
0.0014717
0.00147143
0.00149851
0.00147185
0.00147186
0.00150024
0.00146949
0.00149839
0.00147152
0.00147173
0.0014698
0.00146498
0.00143423
0.00146303
0.00146305
0.00143617
0.00143647
0.0014652
0.00143431
0.00146271
0.00146259
0.00143605
0.00143626
0.00146297
0.00143627
0.00143631
0.00146472
0.00143434
0.00146284
0.00143632
0.0014364
0.00143424
0.0014295
0.00139934
0.00142736
0.00142754
0.00140132
0.0014011
0.0014295
0.00139903
0.0014274
0.0014276
0.0014016
0.00140171
0.00142744
0.00140116
0.00140099
0.00142966
0.00139945
0.00142758
0.00140144
0.00140104
0.00139905
0.00139463
0.0013642
0.00139263
0.00139243
0.00136633
0.00136636
0.00139437
0.00136428
0.00139286
0.00139298
0.00136631
0.00136623
0.00139231
0.00136636
0.0013665
0.00139471
0.00136415
0.00139231
0.00136621
0.00136643
0.00136436
0.00135948
0.00132933
0.00135758
0.00135765
0.00133142
0.00133146
0.00135959
0.00132947
0.00135751
0.00135742
0.00133136
0.00133135
0.0013579
0.00133157
0.00133179
0.00135944
0.00132948
0.00135785
0.00133166
0.00133183
0.00132971
0.00132465
0.00129483
0.00132273
0.00132275
0.00129678
0.0012968
0.00132476
0.0012948
0.0013227
0.00132272
0.00129677
0.00129685
0.00132298
0.00129676
0.00129646
0.00132481
0.00129478
0.00132304
0.00129679
0.00129649
0.00129447
0.00129018
0.00125962
0.00128813
0.00128816
0.00126183
0.00126176
0.00129011
0.00125952
0.00128811
0.00128817
0.0012618
0.00126169
0.00128766
0.00126153
0.00126148
0.00129003
0.0012594
0.00128764
0.00126135
0.00126132
0.0012593
0.00125484
0.0012246
0.00125292
0.00125285
0.00122665
0.00122671
0.00125476
0.00122482
0.00125291
0.00125283
0.00122658
0.00122664
0.00125285
0.00122689
0.0012271
0.00125466
0.00122477
0.00125269
0.00122691
0.00122716
0.00122515
0.00121994
0.00119032
0.00121808
0.00121817
0.00119236
0.0011924
0.0012202
0.00119027
0.00121796
0.00121801
0.0011923
0.00119225
0.00121856
0.00119246
0.00119232
0.00122013
0.00119039
0.00121864
0.00119251
0.00119253
0.00119032
0.00118566
0.00115557
0.00118369
0.00118365
0.0011575
0.00115747
0.00118551
0.00115531
0.00118376
0.00118369
0.00115783
0.00115786
0.00118343
0.0011573
0.0011572
0.00118571
0.00115551
0.00118362
0.00115743
0.00115723
0.00115512
0.00115088
0.00112107
0.00114885
0.00114884
0.00112319
0.00112315
0.00115064
0.00112119
0.00114911
0.00114917
0.00112306
0.00112321
0.00114865
0.0011232
0.00112333
0.00115081
0.00112109
0.0011486
0.00112319
0.00112317
0.00112121
0.0011164
0.00108667
0.00111464
0.00111459
0.00108884
0.00108883
0.00111658
0.00108684
0.00111444
0.00111456
0.00108861
0.00108843
0.00111485
0.00108886
0.00108899
0.00111645
0.00108654
0.00111471
0.00108873
0.00108898
0.00108691
0.00108196
0.00105164
0.00108014
0.0010802
0.00105375
0.00105386
0.00108214
0.00105169
0.00107995
0.00107967
0.00105374
0.00105357
0.00108018
0.00105387
0.0010536
0.00108181
0.00105157
0.00108023
0.00105365
0.00105366
0.0010516
0.00104691
0.0010172
0.00104497
0.00104504
0.00101906
0.00101893
0.0010469
0.00101687
0.00104503
0.00104495
0.00101924
0.00101939
0.00104481
0.00101887
0.00101883
0.00104686
0.00101731
0.0010449
0.00101918
0.0010189
0.00101684
0.00101259
0.000983137
0.00101055
0.00101035
0.000984974
0.000984938
0.00101223
0.000983037
0.00101074
0.00101092
0.000985152
0.000985386
0.00101033
0.000984906
0.00098517
0.00101271
0.00098339
0.00101041
0.00098532
0.000985238
0.000983279
0.000978473
0.00094856
0.000976421
0.000976462
0.000950736
0.000950873
0.00097845
0.000948835
0.000976535
0.000976756
0.000950582
0.000950585
0.00097677
0.000951012
0.000950998
0.000978728
0.000948496
0.000976806
0.000950705
0.00095083
0.000948723
0.000943859
0.000913886
0.000942163
0.000942192
0.000916097
0.000915977
0.000944075
0.000913802
0.000941973
0.000941886
0.000915985
0.000915751
0.000942149
0.000915856
0.000915747
0.000943735
0.000913611
0.000941968
0.000915663
0.000915717
0.000913614
0.000909166
0.000879444
0.000907358
0.00090731
0.000881379
0.000881493
0.000909085
0.000879516
0.000907304
0.000907092
0.000881409
0.000881405
0.000907054
0.000881471
0.000881354
0.000908902
0.000879571
0.000907078
0.000881494
0.000881512
0.00087956
0.000874817
0.000845399
0.000872823
0.000872961
0.000847266
0.000847302
0.000874903
0.000845444
0.000872879
0.000872914
0.000847307
0.000847301
0.000872858
0.000847361
0.000847288
0.000874969
0.000845471
0.000873015
0.00084741
0.00084732
0.000845434
0.000840722
0.000810461
0.000838695
0.000838681
0.000812573
0.000812377
0.000840756
0.000810355
0.000838724
0.000838731
0.000812554
0.000812515
0.000838682
0.000812436
0.000812707
0.000840777
0.000810397
0.000838675
0.00081246
0.000812561
0.000810516
0.000805625
0.000775303
0.000803714
0.000803575
0.00077732
0.000777456
0.000805569
0.000775391
0.000803697
0.000803714
0.000777351
0.000777527
0.000803981
0.000777464
0.000777624
0.000805615
0.000775444
0.000803847
0.000777514
0.000777632
0.000775492
0.000770626
0.000741513
0.000768721
0.000768897
0.000743443
0.000743501
0.000770698
0.000741475
0.000768745
0.000768922
0.000743439
0.000743465
0.000768908
0.0007434
0.000743153
0.000770751
0.000741453
0.000768938
0.000743407
0.00074321
0.000741247
0.000736951
0.000707445
0.000735073
0.000735065
0.000709494
0.000709363
0.000736889
0.000707346
0.000735053
0.000734997
0.00070944
0.000709291
0.000734651
0.000709307
0.000709083
0.000736846
0.0007073
0.000734698
0.000709262
0.000709104
0.00070716
0.000702689
0.000672286
0.000700759
0.000700641
0.000674292
0.000674277
0.000702618
0.000672374
0.000700728
0.000700602
0.000674309
0.000674292
0.000700475
0.000674377
0.000674537
0.000702581
0.000672353
0.000700486
0.00067436
0.000674483
0.000672554
0.000667477
0.000637396
0.000665476
0.000665499
0.000639323
0.000639458
0.0006676
0.000637562
0.000665499
0.000665523
0.000639339
0.000639487
0.000665871
0.00063959
0.000639859
0.000667571
0.00063756
0.000665792
0.000639549
0.000639787
0.000637807
0.000632716
0.000603268
0.000630731
0.000630862
0.000605201
0.000605191
0.000632858
0.000603069
0.000630742
0.000630905
0.000605207
0.000605231
0.000631156
0.000605018
0.000604962
0.000632876
0.000603168
0.000631147
0.000605145
0.000605069
0.000602963
0.000598609
0.000568516
0.00059668
0.000596588
0.000570617
0.000570524
0.000598375
0.000568396
0.000596684
0.000596622
0.000570602
0.000570462
0.000596288
0.000570397
0.000570195
0.00059847
0.000568359
0.000596394
0.00057038
0.000570239
0.000568209
0.000563683
0.000533054
0.000561774
0.000561727
0.000535106
0.000535151
0.000563604
0.000533213
0.000561747
0.000561631
0.000535079
0.000535131
0.000561442
0.000535251
0.000535231
0.000563543
0.000533141
0.000561465
0.00053516
0.000535145
0.000533251
0.000528252
0.00049855
0.000526293
0.000526353
0.000500384
0.000500351
0.000528431
0.000498576
0.000526281
0.000526392
0.000500437
0.00050055
0.000526543
0.000500504
0.000500765
0.000528391
0.000498754
0.000526463
0.000500681
0.00050079
0.000498881
0.00049391
0.00046443
0.000491889
0.000491859
0.000466357
0.000466421
0.000493941
0.000464458
0.000491943
0.00049202
0.000466361
0.000466366
0.000492232
0.000466423
0.000466439
0.000494119
0.000464338
0.000492282
0.000466378
0.00046648
0.000464341
0.000459737
0.000429388
0.000457775
0.000457866
0.000431586
0.000431551
0.000459755
0.000429279
0.000457753
0.0004577
0.00043152
0.000431339
0.000457669
0.000431376
0.000431121
0.00045957
0.000429113
0.000457654
0.000431145
0.000431038
0.000428965
0.000424523
0.000393571
0.000422667
0.000422578
0.000395648
0.000395536
0.000424397
0.000393449
0.000422624
0.00042245
0.000395679
0.000395583
0.000422201
0.000395508
0.000395336
0.000424257
0.000393502
0.000422119
0.000395502
0.000395328
0.00039337
0.000388671
0.000358187
0.00038665
0.000386539
0.000360009
0.000360079
0.000388555
0.000358336
0.000386689
0.000386623
0.000360063
0.000360272
0.000386489
0.000360209
0.000360425
0.000388665
0.000358533
0.000386527
0.000360467
0.000360542
0.000358668
0.000353488
0.00032399
0.000351369
0.000351488
0.000325869
0.000325997
0.000353645
0.000324167
0.000351418
0.000351665
0.000325859
0.000326056
0.00035188
0.000326112
0.000326353
0.000353839
0.000324224
0.000352002
0.00032623
0.000326408
0.000324435
0.000319329
0.000289262
0.000317357
0.000317501
0.000291454
0.000291403
0.000319525
0.000289106
0.000317329
0.000317504
0.000291404
0.000291205
0.000317786
0.000291255
0.000291099
0.000319518
0.000288905
0.000317761
0.000291004
0.000290999
0.000288805
0.000284393
0.000253356
0.000282574
0.000282443
0.000255501
0.000255308
0.000284206
0.000253109
0.000282535
0.000282273
0.000255532
0.000255334
0.000282073
0.000255187
0.00025496
0.000284028
0.000253125
0.000281982
0.000255166
0.000254938
0.000252829
0.000248439
0.00021751
0.000246468
0.000246278
0.000219477
0.000219503
0.000248183
0.000217667
0.000246513
0.000246348
0.000219495
0.00021956
0.00024593
0.000219559
0.000219613
0.000248229
0.000217732
0.000245934
0.000219669
0.000219668
0.000217838
0.000212659
0.00018223
0.000210562
0.000210707
0.000184136
0.000184352
0.000212871
0.000182502
0.000210548
0.000210735
0.000184084
0.000184268
0.000210947
0.000184509
0.000184708
0.000212919
0.000182442
0.000211
0.00018446
0.000184703
0.000182747
0.000177416
0.00014699
0.000175344
0.000175548
0.000148964
0.000149013
0.000177683
0.00014695
0.000175293
0.000175442
0.000148971
0.000148979
0.00017587
0.000149007
0.000149014
0.000177611
0.000146919
0.000175849
0.000148929
0.000148991
0.000146861
0.000142195
0.000111836
0.000140216
0.000140146
0.000113916
0.000113564
0.000142069
0.000111419
0.000140249
0.000140189
0.000113991
0.00011378
0.000139925
0.000113393
0.00011327
0.000142077
0.000111589
0.000139983
0.000113579
0.000113313
0.000111256
0.000106954
7.61162e-05
0.000105065
0.000104773
7.82588e-05
7.83377e-05
0.000106608
7.62486e-05
0.000105118
0.000104937
7.82137e-05
7.81851e-05
0.000104541
7.83647e-05
7.83258e-05
0.000106752
7.61192e-05
0.000104583
7.82282e-05
7.83013e-05
7.62485e-05
7.11541e-05
3.97852e-05
6.92705e-05
6.94342e-05
4.18926e-05
4.21022e-05
7.13209e-05
4.00558e-05
6.92e-05
6.91942e-05
4.18598e-05
4.18952e-05
6.94634e-05
4.21888e-05
4.21799e-05
7.1162e-05
3.99826e-05
6.94246e-05
4.20433e-05
4.21812e-05
4.01229e-05
3.47305e-05
7.94415e-06
3.28492e-05
3.29931e-05
1.07439e-05
1.04853e-05
3.49534e-05
7.68231e-06
3.28569e-05
3.30711e-05
1.08719e-05
1.11014e-05
3.31406e-05
1.05051e-05
1.07556e-05
3.50283e-05
8.115e-06
3.31824e-05
1.11122e-05
1.08771e-05
7.89344e-06
4.80643e-06
6.48821e-06
6.31274e-06
4.5991e-06
6.55405e-06
6.74394e-06
5.13008e-06
5.60334e-06
5.37219e-06
6.4588e-06
4.92878e-06
6.48521e-06
0.00353118
0.00353383
0.00353239
0.00353272
0.00355966
0.00353359
0.00356319
0.00353395
0.00355982
0.00353382
0.00353399
0.00356353
0.00354467
0.00356599
0.00356638
0.00350376
0.00351765
0.00352131
0.00349583
0.00349392
0.00349935
0.00350384
0.00351745
0.0035213
0.00349604
0.00351965
0.00351972
0.00351971
0.00349324
0.00349321
0.00349319
0.00349318
0.00350338
0.003515
0.00352023
0.00351097
0.00352238
0.00350053
0.0035112
0.00349405
0.00349946
0.00350342
0.00352027
0.0035151
0.00351095
0.00352241
0.00351123
0.00350055
0.00351958
0.0035211
0.00350817
0.0035002
0.00350036
0.00347606
0.00349034
0.0034902
0.00347413
0.00348755
0.00347313
0.00347605
0.0034904
0.00349026
0.0034742
0.0034841
0.00348408
0.00348409
0.00345564
0.00345562
0.00345555
0.00345561
0.00347384
0.00348887
0.00348264
0.00347319
0.00348734
0.00347436
0.00347313
0.00348745
0.00347299
0.00347385
0.00348263
0.00348891
0.00347316
0.00348735
0.00347319
0.00347436
0.00349062
0.0034906
0.00347158
0.00347476
0.00347476
0.00343344
0.00344828
0.00344912
0.00343219
0.00344707
0.00343118
0.00343343
0.00344826
0.00344921
0.00343209
0.00344552
0.00344544
0.00344551
0.00341291
0.0034129
0.00341286
0.00341287
0.00343219
0.00344777
0.00344365
0.00343317
0.00344677
0.00343269
0.00343315
0.00344681
0.0034314
0.00343217
0.00344365
0.0034478
0.00343313
0.00344677
0.00343316
0.00343264
0.00344859
0.00344855
0.00343049
0.0034324
0.00343248
0.00338706
0.00340355
0.00340494
0.00338563
0.00340269
0.00338525
0.00338697
0.00340341
0.00340487
0.00338565
0.00340135
0.00340131
0.00340131
0.00336542
0.00336545
0.00336539
0.00336542
0.00338624
0.00340332
0.00339968
0.0033879
0.00340277
0.0033864
0.00338795
0.00340274
0.00338507
0.00338621
0.00339967
0.00340336
0.00338787
0.00340274
0.0033879
0.00338626
0.00340359
0.00340359
0.00338467
0.00338581
0.00338582
0.00333808
0.00335525
0.00335661
0.00333692
0.00335484
0.00333669
0.00333805
0.00335522
0.00335642
0.00333691
0.00335326
0.00335321
0.00335322
0.00331657
0.00331657
0.00331661
0.00331653
0.00333773
0.00335529
0.00335184
0.00333958
0.00335494
0.00333765
0.00333963
0.00335487
0.00333675
0.00333772
0.00335178
0.00335519
0.00333961
0.00335489
0.00333965
0.00333759
0.00335531
0.00335533
0.00333626
0.00333706
0.00333705
0.00328905
0.00330633
0.00330729
0.00328819
0.0033059
0.00328812
0.00328907
0.00330634
0.00330732
0.00328817
0.00330439
0.00330443
0.00330434
0.00326813
0.00326815
0.00326817
0.00326808
0.003289
0.00330636
0.00330313
0.00329099
0.00330616
0.00328884
0.00329105