/*--------------------------------*- C++ -*----------------------------------*\
| =========                 |                                                 |
| \\      /  F ield         | OpenFOAM: The Open Source CFD Toolbox           |
|  \\    /   O peration     | Version:  v2006                                 |
|   \\  /    A nd           | Website:  www.openfoam.com                      |
|    \\/     M anipulation  |                                                 |
\*---------------------------------------------------------------------------*/
FoamFile
{
    version     2.0;
    format      ascii;
    class       volScalarField;
    location    "625";
    object      k;
}
// * * * * * * * * * * * * * * * * * * * * * * * * * * * * * * * * * * * * * //

dimensions      [0 2 -2 0 0 0 0];


internalField   nonuniform List<scalar> 
42616
(
3.93462e-05
5.1721e-05
5.18526e-05
5.37051e-05
3.98449e-05
5.20027e-05
5.21244e-05
5.40913e-05
4.01712e-05
5.21982e-05
5.21364e-05
5.42443e-05
4.02586e-05
5.22818e-05
5.21245e-05
5.41674e-05
4.05453e-05
5.2361e-05
5.24533e-05
5.42602e-05
4.09689e-05
5.25688e-05
5.26818e-05
5.4551e-05
4.12281e-05
5.27263e-05
5.26582e-05
5.45624e-05
4.14068e-05
5.27379e-05
5.26951e-05
5.45674e-05
4.15791e-05
5.28355e-05
5.28638e-05
5.47103e-05
4.16263e-05
5.28814e-05
5.28301e-05
5.46837e-05
4.162e-05
5.27651e-05
5.27971e-05
5.45869e-05
4.19774e-05
5.28093e-05
5.29395e-05
5.47192e-05
4.22589e-05
5.31064e-05
5.29864e-05
5.48361e-05
4.23003e-05
5.30859e-05
5.30343e-05
5.48687e-05
4.19498e-05
5.27264e-05
5.27956e-05
5.45837e-05
4.18217e-05
5.25301e-05
5.26124e-05
5.45618e-05
4.29536e-05
5.31741e-05
5.32022e-05
5.52771e-05
4.28207e-05
5.30371e-05
5.22428e-05
5.37942e-05
4.13374e-05
5.19263e-05
5.18523e-05
5.33228e-05
4.29944e-05
5.37156e-05
5.48753e-05
5.62733e-05
4.31331e-05
5.24921e-05
5.23927e-05
5.56062e-05
5.37337e-05
5.1654e-05
5.16859e-05
5.37621e-05
5.16573e-05
5.17558e-05
5.16814e-05
5.1573e-05
5.386e-05
5.17493e-05
5.15751e-05
5.3646e-05
5.38036e-05
5.40675e-05
5.17327e-05
5.1728e-05
5.20134e-05
5.19299e-05
5.38039e-05
5.39689e-05
5.17493e-05
5.186e-05
5.20423e-05
5.20901e-05
5.16397e-05
5.19213e-05
5.195e-05
5.39417e-05
5.41188e-05
5.16564e-05
5.20837e-05
5.19799e-05
5.40141e-05
5.41216e-05
5.41693e-05
5.20917e-05
5.20082e-05
5.21969e-05
5.21596e-05
5.40278e-05
5.41355e-05
5.21151e-05
5.21265e-05
5.21913e-05
5.21389e-05
5.2052e-05
5.21724e-05
5.22512e-05
5.41505e-05
5.40848e-05
5.20758e-05
5.21453e-05
5.22447e-05
5.42224e-05
5.41778e-05
5.4081e-05
5.2197e-05
5.21788e-05
5.21681e-05
5.22349e-05
5.41608e-05
5.41871e-05
5.21893e-05
5.21253e-05
5.21446e-05
5.2093e-05
5.2269e-05
5.22563e-05
5.2255e-05
5.40903e-05
5.40251e-05
5.22545e-05
5.21111e-05
5.22293e-05
5.41612e-05
5.40932e-05
5.42277e-05
5.21669e-05
5.22666e-05
5.22854e-05
5.23435e-05
5.4218e-05
5.42799e-05
5.21415e-05
5.21058e-05
5.22734e-05
5.23631e-05
5.22359e-05
5.23399e-05
5.2246e-05
5.40662e-05
5.43272e-05
5.22101e-05
5.23623e-05
5.22344e-05
5.41883e-05
5.42996e-05
5.44969e-05
5.23631e-05
5.23656e-05
5.25776e-05
5.24989e-05
5.43083e-05
5.44093e-05
5.23684e-05
5.24553e-05
5.26063e-05
5.26542e-05
5.23153e-05
5.2503e-05
5.25796e-05
5.44036e-05
5.45608e-05
5.23261e-05
5.26567e-05
5.2607e-05
5.4509e-05
5.4538e-05
5.45722e-05
5.26335e-05
5.25634e-05
5.27088e-05
5.27029e-05
5.44606e-05
5.45675e-05
5.26572e-05
5.2678e-05
5.27041e-05
5.26716e-05
5.26389e-05
5.27078e-05
5.2697e-05
5.45857e-05
5.45086e-05
5.2661e-05
5.26762e-05
5.26948e-05
5.45554e-05
5.45872e-05
5.46283e-05
5.27197e-05
5.27235e-05
5.27777e-05
5.27387e-05
5.45922e-05
5.45919e-05
5.27052e-05
5.2655e-05
5.27553e-05
5.26605e-05
5.2695e-05
5.2735e-05
5.26877e-05
5.45151e-05
5.45287e-05
5.26873e-05
5.26572e-05
5.26716e-05
5.45282e-05
5.46636e-05
5.47051e-05
5.28045e-05
5.27444e-05
5.28477e-05
5.2805e-05
5.46068e-05
5.46402e-05
5.27946e-05
5.27066e-05
5.28553e-05
5.28474e-05
5.27042e-05
5.28032e-05
5.28317e-05
5.45781e-05
5.46921e-05
5.26874e-05
5.28477e-05
5.28394e-05
5.46821e-05
5.47165e-05
5.4586e-05
5.2848e-05
5.28318e-05
5.27999e-05
5.28649e-05
5.46689e-05
5.47015e-05
5.28553e-05
5.28577e-05
5.27937e-05
5.28377e-05
5.28597e-05
5.28826e-05
5.28752e-05
5.47125e-05
5.46319e-05
5.28658e-05
5.28528e-05
5.28718e-05
5.46774e-05
5.45879e-05
5.44636e-05
5.27679e-05
5.28627e-05
5.26867e-05
5.27803e-05
5.47164e-05
5.45826e-05
5.27592e-05
5.28112e-05
5.26848e-05
5.27711e-05
5.28672e-05
5.2803e-05
5.27854e-05
5.4637e-05
5.45884e-05
5.28586e-05
5.2793e-05
5.27827e-05
5.45779e-05
5.44792e-05
5.47602e-05
5.26855e-05
5.27471e-05
5.28923e-05
5.27482e-05
5.45832e-05
5.45671e-05
5.26863e-05
5.27766e-05
5.29113e-05
5.29136e-05
5.27706e-05
5.27499e-05
5.28044e-05
5.46243e-05
5.47488e-05
5.27746e-05
5.2907e-05
5.28332e-05
5.46656e-05
5.48434e-05
5.49581e-05
5.29944e-05
5.28286e-05
5.31305e-05
5.30793e-05
5.46486e-05
5.49094e-05
5.30017e-05
5.29518e-05
5.31095e-05
5.29919e-05
5.2878e-05
5.30734e-05
5.30137e-05
5.47816e-05
5.47868e-05
5.28913e-05
5.29817e-05
5.2993e-05
5.48137e-05
5.4974e-05
5.4891e-05
5.31448e-05
5.31097e-05
5.31367e-05
5.31181e-05
5.4945e-05
5.48906e-05
5.31209e-05
5.29942e-05
5.31237e-05
5.30234e-05
5.30359e-05
5.31114e-05
5.30606e-05
5.47957e-05
5.48058e-05
5.30111e-05
5.30197e-05
5.30529e-05
5.48535e-05
5.48858e-05
5.43909e-05
5.30792e-05
5.30973e-05
5.26763e-05
5.28037e-05
5.48877e-05
5.45249e-05
5.30863e-05
5.30396e-05
5.26803e-05
5.29379e-05
5.30574e-05
5.28194e-05
5.28728e-05
5.48435e-05
5.46675e-05
5.30536e-05
5.29475e-05
5.28902e-05
5.46142e-05
5.43479e-05
5.39029e-05
5.2544e-05
5.26982e-05
5.23048e-05
5.2436e-05
5.45035e-05
5.42404e-05
5.25296e-05
5.2769e-05
5.22913e-05
5.24962e-05
5.27836e-05
5.25259e-05
5.27017e-05
5.46084e-05
5.42229e-05
5.27804e-05
5.25844e-05
5.2692e-05
5.44355e-05
5.3968e-05
5.5616e-05
5.23519e-05
5.24363e-05
5.34904e-05
5.29909e-05
5.42587e-05
5.49222e-05
5.23526e-05
5.25205e-05
5.3565e-05
5.32053e-05
5.27476e-05
5.29681e-05
5.31565e-05
5.42924e-05
5.52441e-05
5.27521e-05
5.31482e-05
5.32136e-05
5.52515e-05
5.58908e-05
5.54104e-05
5.38357e-05
5.32935e-05
5.37836e-05
5.34241e-05
5.50872e-05
5.50819e-05
5.38791e-05
5.33302e-05
5.3703e-05
5.29253e-05
5.3177e-05
5.32321e-05
5.26173e-05
5.53233e-05
5.4196e-05
5.32247e-05
5.26802e-05
5.25026e-05
5.39849e-05
5.48856e-05
5.2255e-05
5.3166e-05
5.32027e-05
5.12026e-05
5.17963e-05
5.48763e-05
5.33539e-05
5.29592e-05
5.23635e-05
5.1138e-05
5.15436e-05
5.22838e-05
5.19658e-05
5.16873e-05
5.39112e-05
5.29382e-05
5.21266e-05
5.17107e-05
5.15997e-05
5.31732e-05
5.2262e-05
5.62278e-05
5.11814e-05
5.17457e-05
5.33192e-05
5.299e-05
5.33468e-05
5.5491e-05
5.11453e-05
5.16471e-05
5.35796e-05
5.42296e-05
5.17189e-05
5.29625e-05
5.33691e-05
5.31964e-05
5.69887e-05
5.16722e-05
5.42291e-05
5.3619e-05
5.58311e-05
5.68997e-05
5.60619e-05
5.43395e-05
5.38121e-05
5.44384e-05
5.41521e-05
5.59899e-05
5.59132e-05
5.45758e-05
5.49579e-05
5.45154e-05
5.45367e-05
5.4114e-05
5.41924e-05
5.4691e-05
5.74722e-05
5.58314e-05
5.43383e-05
5.45457e-05
5.47416e-05
5.66261e-05
5.46769e-05
5.2429e-05
5.23861e-05
5.48548e-05
5.24276e-05
5.23386e-05
4.29321e-05
4.32353e-05
4.35594e-05
5.29589e-05
5.44742e-05
5.29201e-05
3.9243e-05
3.92979e-05
3.9292e-05
3.91584e-05
6.87091e-05
7.35241e-05
6.8633e-05
7.35539e-05
7.12547e-05
7.128e-05
6.87451e-05
7.3531e-05
6.86758e-05
7.35567e-05
3.93681e-05
3.94321e-05
3.92513e-05
3.97188e-05
3.96294e-05
3.98044e-05
3.96369e-05
6.08028e-05
6.4878e-05
4.70513e-05
5.17736e-05
6.07304e-05
6.49414e-05
4.71166e-05
7.12738e-05
7.12881e-05
6.08905e-05
4.71235e-05
6.49967e-05
5.19442e-05
6.07938e-05
4.72296e-05
6.50627e-05
6.99359e-05
6.99677e-05
5.38079e-05
7.00382e-05
7.00592e-05
6.87742e-05
7.35699e-05
6.8766e-05
7.35766e-05
7.12993e-05
7.13144e-05
6.87866e-05
7.3571e-05
6.8782e-05
7.35759e-05
3.97417e-05
3.99016e-05
3.97823e-05
4.01237e-05
4.00573e-05
4.00765e-05
4.01491e-05
6.09777e-05
6.50203e-05
4.73939e-05
5.20748e-05
6.09292e-05
6.50291e-05
4.74908e-05
7.12927e-05
7.13005e-05
6.09786e-05
4.7506e-05
6.50819e-05
5.21433e-05
6.09644e-05
4.7567e-05
6.50506e-05
7.01498e-05
7.01528e-05
5.41564e-05
7.01826e-05
7.01797e-05
6.87379e-05
7.3585e-05
6.87597e-05
7.35983e-05
7.13353e-05
7.13612e-05
6.87012e-05
7.35825e-05
6.87397e-05
7.35966e-05
4.01339e-05
4.01006e-05
4.02285e-05
4.02317e-05
4.03193e-05
4.01785e-05
4.03384e-05
6.09843e-05
6.5014e-05
4.76907e-05
5.22155e-05
6.09876e-05
6.50045e-05
4.77238e-05
7.132e-05
7.13499e-05
6.09386e-05
4.76492e-05
6.49475e-05
5.21199e-05
6.0965e-05
4.7653e-05
6.49069e-05
7.01616e-05
7.01552e-05
5.42186e-05
7.011e-05
7.01022e-05
6.87284e-05
7.36322e-05
6.87125e-05
7.36675e-05
7.13942e-05
7.14163e-05
6.87119e-05
7.36349e-05
6.86699e-05
7.36744e-05
4.03803e-05
4.0235e-05
4.03489e-05
4.0448e-05
4.05409e-05
4.05093e-05
4.04464e-05
6.09554e-05
6.50121e-05
4.77897e-05
5.23041e-05
6.09576e-05
6.50324e-05
4.78089e-05
7.13984e-05
7.14347e-05
6.09108e-05
4.7682e-05
6.49087e-05
5.21784e-05
6.08945e-05
4.77187e-05
6.49903e-05
7.00119e-05
7.00135e-05
5.41263e-05
7.00097e-05
7.00272e-05
6.88276e-05
7.37182e-05
6.87785e-05
7.37443e-05
7.14425e-05
7.14688e-05
6.88646e-05
7.37243e-05
6.88147e-05
7.37451e-05
4.05894e-05
4.06213e-05
4.05312e-05
4.0867e-05
4.07858e-05
4.0939e-05
4.08588e-05
6.10568e-05
6.50444e-05
4.78993e-05
5.23924e-05
6.09933e-05
6.50781e-05
4.79474e-05
7.14659e-05
7.14804e-05
6.11286e-05
4.79397e-05
6.51447e-05
5.25365e-05
6.10395e-05
4.80332e-05
6.52055e-05
7.01559e-05
7.0187e-05
5.43731e-05
7.02325e-05
7.02578e-05
6.88721e-05
7.37614e-05
6.8867e-05
7.37735e-05
7.14946e-05
7.1513e-05
6.88797e-05
7.37614e-05
6.88812e-05
7.3774e-05
4.08786e-05
4.10217e-05
4.09633e-05
4.11832e-05
4.11515e-05
4.11612e-05
4.11725e-05
6.11483e-05
6.51438e-05
4.81546e-05
5.26281e-05
6.11318e-05
6.51561e-05
4.82226e-05
7.14871e-05
7.14982e-05
6.11663e-05
4.82581e-05
6.52011e-05
5.26872e-05
6.11671e-05
4.82951e-05
6.51503e-05
7.02688e-05
7.02774e-05
5.45653e-05
7.02406e-05
7.02312e-05
6.88657e-05
7.37945e-05
6.88645e-05
7.38145e-05
7.15323e-05
7.15496e-05
6.88283e-05
7.3795e-05
6.8833e-05
7.38175e-05
4.12203e-05
4.11773e-05
4.12066e-05
4.13575e-05
4.13385e-05
4.12581e-05
4.12779e-05
6.1138e-05
6.51509e-05
4.83499e-05
5.27331e-05
6.11432e-05
6.51485e-05
4.83657e-05
7.15231e-05
7.15513e-05
6.10853e-05
4.83113e-05
6.50673e-05
5.26489e-05
6.11041e-05
4.83055e-05
6.5075e-05
7.01695e-05
7.01569e-05
5.45185e-05
7.01647e-05
7.01608e-05
6.88831e-05
7.38346e-05
6.88721e-05
7.38419e-05
7.15663e-05
7.15815e-05
6.8906e-05
7.38389e-05
6.88725e-05
7.38441e-05
4.13681e-05
4.13174e-05
4.13236e-05
4.15421e-05
4.14902e-05
4.15091e-05
4.15027e-05
6.11486e-05
6.51488e-05
4.83924e-05
5.27481e-05
6.11336e-05
6.51556e-05
4.84119e-05
7.15754e-05
7.15881e-05
6.11701e-05
4.83388e-05
6.51701e-05
5.27587e-05
6.11198e-05
4.83992e-05
6.52112e-05
7.02443e-05
7.02682e-05
5.46095e-05
7.02827e-05
7.03122e-05
6.88791e-05
7.38417e-05
6.88891e-05
7.38389e-05
7.15992e-05
7.16159e-05
6.88797e-05
7.38405e-05
6.89175e-05
7.38389e-05
4.15449e-05
4.15671e-05
4.15636e-05
4.16269e-05
4.16984e-05
4.16858e-05
4.1708e-05
6.11726e-05
6.51715e-05
4.85183e-05
5.28619e-05
6.11642e-05
6.51852e-05
4.85558e-05
7.15936e-05
7.16044e-05
6.11827e-05
4.85515e-05
6.52019e-05
5.28657e-05
6.11886e-05
4.85756e-05
6.51551e-05
7.03018e-05
7.03076e-05
5.47086e-05
7.02767e-05
7.02635e-05
6.87803e-05
7.38417e-05
6.88178e-05
7.38591e-05
7.16295e-05
7.16411e-05
6.87457e-05
7.38482e-05
6.878e-05
7.38684e-05
4.17301e-05
4.16972e-05
4.17289e-05
4.16132e-05
4.17385e-05
4.17054e-05
4.1729e-05
6.11132e-05
6.51853e-05
4.8599e-05
5.28728e-05
6.11519e-05
6.51385e-05
4.85961e-05
7.16284e-05
7.16574e-05
6.10794e-05
4.85801e-05
6.50781e-05
5.28083e-05
6.11101e-05
4.85667e-05
6.50691e-05
7.02123e-05
7.02071e-05
5.46251e-05
7.01698e-05
7.01838e-05
6.87594e-05
7.39146e-05
6.87275e-05
7.39665e-05
7.16642e-05
7.17036e-05
6.88182e-05
7.39218e-05
6.87565e-05
7.39642e-05
4.17273e-05
4.17222e-05
4.17283e-05
4.18665e-05
4.17412e-05
4.18966e-05
4.18224e-05
6.10105e-05
6.49948e-05
4.85302e-05
5.27422e-05
6.10257e-05
6.49727e-05
4.85132e-05
7.16914e-05
7.17124e-05
6.10759e-05
4.85405e-05
6.51034e-05
5.2819e-05
6.10559e-05
4.8546e-05
6.51479e-05
7.01401e-05
7.0178e-05
5.45799e-05
7.01852e-05
7.02128e-05
6.89223e-05
7.40035e-05
6.88702e-05
7.40086e-05
7.17407e-05
7.17531e-05
6.88986e-05
7.39948e-05
6.88794e-05
7.40033e-05
4.18124e-05
4.19563e-05
4.18962e-05
4.22116e-05
4.21397e-05
4.20803e-05
4.20803e-05
6.11854e-05
6.5151e-05
4.85587e-05
5.29221e-05
6.10915e-05
6.52466e-05
4.86567e-05
7.17237e-05
7.17296e-05
6.11509e-05
4.86603e-05
6.51913e-05
5.29586e-05
6.1132e-05
4.86923e-05
6.5193e-05
7.03153e-05
7.02986e-05
5.47633e-05
7.03457e-05
7.0315e-05
6.90046e-05
7.40001e-05
6.89794e-05
7.39943e-05
7.17425e-05
7.17354e-05
6.89488e-05
7.40054e-05
6.89125e-05
7.40047e-05
4.22139e-05
4.21196e-05
4.21348e-05
4.23092e-05
4.22945e-05
4.22294e-05
4.22631e-05
6.12435e-05
6.53155e-05
4.88528e-05
5.31167e-05
6.12344e-05
6.53084e-05
4.88717e-05
7.1726e-05
7.17355e-05
6.11728e-05
4.87781e-05
6.51613e-05
5.29898e-05
6.11566e-05
4.87917e-05
6.5168e-05
7.03524e-05
7.03394e-05
5.48366e-05
7.03519e-05
7.03753e-05
6.8879e-05
7.39481e-05
6.89718e-05
7.39019e-05
7.17164e-05
7.17188e-05
6.89782e-05
7.39508e-05
6.90517e-05
7.3895e-05
4.22948e-05
4.22568e-05
4.22764e-05
4.2039e-05
4.22032e-05
4.22466e-05
4.22338e-05
6.11055e-05
6.52359e-05
4.88702e-05
5.30133e-05
6.11856e-05
6.51039e-05
4.88364e-05
7.17418e-05
7.17359e-05
6.11944e-05
4.88305e-05
6.52942e-05
5.30333e-05
6.12239e-05
4.88277e-05
6.52713e-05
7.03421e-05
7.04594e-05
5.48186e-05
7.02213e-05
7.029e-05
6.81292e-05
7.3839e-05
6.84457e-05
7.38906e-05
7.17275e-05
7.17754e-05
6.79833e-05
7.38403e-05
6.83687e-05
7.3913e-05
4.21347e-05
4.21931e-05
4.21896e-05
4.18036e-05
4.19359e-05
4.20334e-05
4.21432e-05
6.06426e-05
6.48304e-05
4.85999e-05
5.26268e-05
6.08032e-05
6.47202e-05
4.85193e-05
7.17063e-05
7.17484e-05
6.05431e-05
4.86431e-05
6.47685e-05
5.26562e-05
6.07731e-05
4.85437e-05
6.45514e-05
6.98192e-05
6.9753e-05
5.43985e-05
6.97659e-05
6.96799e-05
6.87975e-05
7.4179e-05
6.82654e-05
7.4357e-05
7.18349e-05
7.18677e-05
6.89772e-05
7.42235e-05
6.82816e-05
7.43804e-05
4.19163e-05
4.20344e-05
4.21567e-05
4.26518e-05
4.21209e-05
4.23219e-05
4.23922e-05
6.10974e-05
6.49082e-05
4.84452e-05
5.25719e-05
6.07469e-05
6.51543e-05
4.84745e-05
7.18446e-05
7.18745e-05
6.13245e-05
4.85037e-05
6.50436e-05
5.27327e-05
6.07848e-05
4.85796e-05
6.55933e-05
7.05038e-05
7.06319e-05
5.48976e-05
7.10416e-05
7.12335e-05
7.01586e-05
7.43633e-05
6.99883e-05
7.40685e-05
7.18282e-05
7.17907e-05
7.01337e-05
7.43022e-05
7.023e-05
7.39718e-05
4.2403e-05
4.24292e-05
4.24205e-05
4.30576e-05
4.27258e-05
4.23753e-05
4.22366e-05
6.15373e-05
6.55516e-05
4.89174e-05
5.32681e-05
6.15788e-05
6.5494e-05
4.89777e-05
7.17261e-05
7.16441e-05
6.13535e-05
4.89456e-05
6.59128e-05
5.3182e-05
6.18114e-05
4.89362e-05
6.51713e-05
7.10148e-05
7.10351e-05
5.4958e-05
7.01462e-05
7.00069e-05
6.69307e-05
7.34752e-05
6.8345e-05
7.35081e-05
7.1686e-05
7.17453e-05
6.64259e-05
7.34474e-05
6.78159e-05
7.35551e-05
4.2695e-05
4.21732e-05
4.20364e-05
4.14126e-05
4.19541e-05
4.17516e-05
4.15972e-05
5.97948e-05
6.47314e-05
4.87729e-05
5.25924e-05
6.05332e-05
6.39252e-05
4.84326e-05
7.16117e-05
7.18279e-05
5.91656e-05
4.82437e-05
6.36733e-05
5.18771e-05
5.98587e-05
4.79338e-05
6.30375e-05
6.90081e-05
6.86941e-05
5.32809e-05
6.85992e-05
6.85009e-05
6.82456e-05
7.42498e-05
6.64999e-05
7.47778e-05
7.19633e-05
7.21095e-05
6.86287e-05
7.43682e-05
6.67345e-05
7.48441e-05
4.18278e-05
4.17725e-05
4.15922e-05
4.21985e-05
4.20494e-05
4.30364e-05
4.25302e-05
6.03419e-05
6.39057e-05
4.7885e-05
5.19756e-05
5.94294e-05
6.48572e-05
4.79079e-05
7.21703e-05
7.23126e-05
6.10318e-05
4.77912e-05
6.43818e-05
5.24131e-05
5.97655e-05
4.80754e-05
6.57635e-05
6.93554e-05
6.97428e-05
5.42062e-05
7.03849e-05
7.07768e-05
7.22055e-05
7.45999e-05
7.16506e-05
7.39914e-05
7.19057e-05
7.16418e-05
7.25892e-05
7.45816e-05
7.22344e-05
7.39375e-05
4.25403e-05
4.35492e-05
4.31345e-05
4.34402e-05
4.30002e-05
4.36607e-05
4.36458e-05
6.36868e-05
6.73099e-05
4.93064e-05
5.41437e-05
6.28413e-05
6.73377e-05
4.97709e-05
7.19465e-05
7.15295e-05
6.42443e-05
5.01869e-05
6.85107e-05
5.51077e-05
6.37182e-05
5.05019e-05
6.81486e-05
7.30009e-05
7.30035e-05
5.70812e-05
7.31493e-05
7.29413e-05
6.09891e-05
7.25159e-05
6.76569e-05
7.30582e-05
7.06835e-05
6.3895e-05
6.0561e-05
7.24713e-05
6.73255e-05
7.30276e-05
3.05652e-05
3.74644e-05
3.76354e-05
4.31511e-05
3.09453e-05
3.76992e-05
3.77235e-05
5.85674e-05
6.44745e-05
4.95378e-05
4.98114e-05
6.1509e-05
6.34201e-05
4.65812e-05
7.04274e-05
6.34366e-05
5.78955e-05
4.94697e-05
6.3855e-05
4.91588e-05
6.09483e-05
4.61788e-05
6.26287e-05
6.93768e-05
6.90861e-05
5.28908e-05
6.74842e-05
6.72467e-05
7.12582e-05
7.12225e-05
7.12624e-05
7.12294e-05
5.368e-05
6.99992e-05
7.00294e-05
6.99093e-05
6.99388e-05
6.85843e-05
7.3517e-05
7.34764e-05
6.8621e-05
6.85913e-05
7.35046e-05
7.34732e-05
6.86232e-05
6.06978e-05
5.15966e-05
6.48678e-05
4.70063e-05
6.48009e-05
4.69509e-05
6.07401e-05
6.07047e-05
5.16524e-05
6.48754e-05
4.7024e-05
6.4848e-05
4.69756e-05
6.07431e-05
7.12517e-05
7.1223e-05
5.37381e-05
7.00075e-05
6.99938e-05
6.99713e-05
6.99695e-05
7.12502e-05
7.12219e-05
6.85916e-05
7.35246e-05
7.34842e-05
6.86607e-05
6.07019e-05
5.1586e-05
6.48945e-05
4.701e-05
6.48149e-05
4.69231e-05
6.07832e-05
6.85966e-05
7.35362e-05
7.35033e-05
6.86718e-05
6.07064e-05
5.16454e-05
4.70447e-05
6.49819e-05
4.69413e-05
6.48708e-05
6.07965e-05
6.06908e-05
5.16502e-05
6.48698e-05
4.69987e-05
6.48503e-05
4.69543e-05
6.07205e-05
6.85841e-05
7.35047e-05
7.34737e-05
6.86054e-05
6.06749e-05
5.15296e-05
4.69515e-05
6.47972e-05
4.69045e-05
6.47635e-05
6.07049e-05
6.85685e-05
7.34977e-05
7.34572e-05
6.8591e-05
7.12725e-05
7.12469e-05
5.37432e-05
7.01258e-05
7.01182e-05
7.00274e-05
7.00215e-05
7.12714e-05
7.12454e-05
6.06902e-05
5.16401e-05
4.70173e-05
6.49787e-05
4.69163e-05
6.48693e-05
6.07742e-05
6.06756e-05
5.15175e-05
4.69526e-05
6.48233e-05
4.68727e-05
6.47741e-05
6.0747e-05
6.85882e-05
7.35379e-05
7.3504e-05
6.86574e-05
6.85723e-05
7.35064e-05
7.34645e-05
6.86317e-05
5.36114e-05
6.99131e-05
6.9946e-05
6.98631e-05
6.98875e-05
7.12479e-05
7.12098e-05
7.12532e-05
7.12172e-05
7.1262e-05
7.12871e-05
7.12655e-05
7.12877e-05
7.00276e-05
7.00554e-05
5.39083e-05
7.01113e-05
7.01291e-05
7.13038e-05
7.12884e-05
7.1303e-05
7.12887e-05
5.39883e-05
7.01665e-05
7.01734e-05
7.01288e-05
7.01435e-05
6.87024e-05
7.35108e-05
6.86335e-05
7.35409e-05
6.08404e-05
6.489e-05
4.70751e-05
5.18264e-05
6.07538e-05
6.49929e-05
4.71567e-05
6.08333e-05
6.48854e-05
4.70803e-05
5.17825e-05
6.07552e-05
6.49513e-05
4.71474e-05
6.87208e-05
7.35689e-05
7.35568e-05
6.87644e-05
6.87135e-05
7.35606e-05
7.35447e-05
6.87565e-05
6.08587e-05
5.19233e-05
6.50583e-05
4.735e-05
6.50082e-05
4.72506e-05
6.09353e-05
6.08505e-05
5.18522e-05
6.50096e-05
4.73196e-05
6.49649e-05
4.72288e-05
6.09256e-05
7.00247e-05
7.00082e-05
5.38475e-05
7.00783e-05
7.0071e-05
7.12538e-05
7.12812e-05
7.12989e-05
7.12813e-05
5.39035e-05
7.01104e-05
7.01143e-05
7.00915e-05
7.00854e-05
7.13013e-05
7.12832e-05
6.09008e-05
6.49173e-05
4.71088e-05
5.18521e-05
6.08034e-05
6.50098e-05
4.72157e-05
6.87508e-05
7.35398e-05
6.86866e-05
7.35542e-05
6.09099e-05
4.71515e-05
6.49999e-05
5.19526e-05
6.08167e-05
4.7258e-05
6.50661e-05
6.87522e-05
7.35702e-05
7.35591e-05
6.87812e-05
6.09149e-05
5.19526e-05
6.50645e-05
4.7427e-05
6.50221e-05
4.73249e-05
6.09652e-05
6.87571e-05
7.35593e-05
7.35551e-05
6.87819e-05
6.09227e-05
5.20308e-05
4.74507e-05
6.5086e-05
4.73601e-05
6.50728e-05
6.09674e-05
6.86781e-05
7.35111e-05
6.86132e-05
7.35448e-05
6.07964e-05
4.70139e-05
6.48132e-05
5.17306e-05
6.07159e-05
4.70937e-05
6.49197e-05
6.86733e-05
7.35061e-05
6.86003e-05
7.35482e-05
6.08215e-05
5.18426e-05
6.50156e-05
4.72927e-05
6.49566e-05
4.71985e-05
6.09152e-05
6.86919e-05
7.35679e-05
7.35494e-05
6.87546e-05
6.0817e-05
5.18391e-05
4.72995e-05
6.50316e-05
4.71915e-05
6.49437e-05
6.09178e-05
6.86886e-05
7.35779e-05
7.35543e-05
6.87569e-05
7.01491e-05
7.01406e-05
5.40244e-05
7.0203e-05
7.01943e-05
7.12728e-05
7.12878e-05
7.1295e-05
7.12874e-05
5.40815e-05
7.02027e-05
7.02e-05
7.02095e-05
7.02015e-05
7.12956e-05
7.12873e-05
6.0868e-05
4.70486e-05
6.4841e-05
5.17586e-05
6.0766e-05
4.71559e-05
6.4946e-05
6.87403e-05
7.35418e-05
6.86718e-05
7.35573e-05
6.87232e-05
7.35145e-05
6.86463e-05
7.35525e-05
6.09054e-05
5.20224e-05
4.74261e-05
6.50848e-05
4.73326e-05
6.50697e-05
6.09602e-05
6.08855e-05
5.18715e-05
4.73793e-05
6.50372e-05
4.72692e-05
6.49654e-05
6.09516e-05
6.87475e-05
7.35632e-05
7.35584e-05
6.87751e-05
6.87327e-05
7.35769e-05
7.35573e-05
6.87686e-05
7.12531e-05
7.12872e-05
7.12577e-05
7.12884e-05
5.38969e-05
7.01361e-05
7.01414e-05
7.0065e-05
7.00817e-05
7.13122e-05
7.12902e-05
7.13114e-05
7.12909e-05
7.13037e-05
7.13147e-05
7.13029e-05
7.13139e-05
7.01702e-05
7.01752e-05
5.41532e-05
7.01646e-05
7.01625e-05
7.13269e-05
7.1314e-05
7.13278e-05
7.13135e-05
5.41816e-05
7.01076e-05
7.01023e-05
7.01486e-05
7.01444e-05
6.8767e-05
7.35624e-05
6.87583e-05
7.35738e-05
6.09701e-05
6.50614e-05
4.74484e-05
5.21507e-05
6.09439e-05
6.50661e-05
4.75337e-05
6.09629e-05
6.50123e-05
4.74147e-05
5.20752e-05
6.09346e-05
6.50162e-05
4.75018e-05
6.87718e-05
7.35837e-05
7.35771e-05
6.87677e-05
6.87647e-05
7.35887e-05
7.35757e-05
6.87615e-05
6.09696e-05
5.21854e-05
6.50327e-05
4.76456e-05
6.50614e-05
4.76008e-05
6.09732e-05
6.09626e-05
5.21271e-05
6.5004e-05
4.76245e-05
6.50139e-05
4.75742e-05
6.09676e-05
7.01112e-05
7.01161e-05
5.40755e-05
7.01006e-05
7.01135e-05
7.13019e-05
7.13167e-05
7.13334e-05
7.13149e-05
5.41176e-05
7.00706e-05
7.00872e-05
7.00926e-05
7.01072e-05
7.13339e-05
7.13172e-05
6.09801e-05
6.50667e-05
4.7515e-05
5.21639e-05
6.09686e-05
6.50687e-05
4.75813e-05
6.87827e-05
7.35585e-05
6.87819e-05
7.35582e-05
6.09776e-05
4.75245e-05
6.50818e-05
5.21407e-05
6.09692e-05
4.75772e-05
6.50431e-05
6.87823e-05
7.35811e-05
7.35759e-05
6.8759e-05
6.09769e-05
5.2187e-05
6.50241e-05
4.76463e-05
6.50609e-05
4.76247e-05
6.09644e-05
6.87755e-05
7.35643e-05
7.35573e-05
6.87454e-05
6.09734e-05
5.2142e-05
4.76231e-05
6.4958e-05
4.76102e-05
6.50145e-05
6.09544e-05
6.87768e-05
7.35696e-05
6.87597e-05
7.35798e-05
6.09831e-05
4.74114e-05
6.50425e-05
5.21396e-05
6.09324e-05
4.75157e-05
6.50781e-05
6.8781e-05
7.35801e-05
6.87625e-05
7.35905e-05
6.09799e-05
5.21331e-05
6.50208e-05
4.76422e-05
6.50271e-05
4.75763e-05
6.09907e-05
6.8776e-05
7.35938e-05
7.35814e-05
6.87777e-05
6.09858e-05
5.2208e-05
4.76747e-05
6.5081e-05
4.76063e-05
6.50796e-05
6.09972e-05
6.87803e-05
7.35981e-05
7.35915e-05
6.87827e-05
7.01792e-05
7.01812e-05
5.41406e-05
7.01095e-05
7.01175e-05
7.12935e-05
7.13013e-05
7.13176e-05
7.13002e-05
5.41489e-05
7.00097e-05
7.00208e-05
7.00807e-05
7.009e-05
7.13171e-05
7.13008e-05
6.09791e-05
4.74797e-05
6.50454e-05
5.21549e-05
6.09579e-05
4.75634e-05
6.5074e-05
6.87813e-05
7.35627e-05
6.87756e-05
7.35633e-05
6.87812e-05
7.35788e-05
6.87706e-05
7.35888e-05
6.09762e-05
5.21469e-05
4.76366e-05
6.49727e-05
4.76104e-05
6.50253e-05
6.09726e-05
6.09784e-05
5.22125e-05
4.76715e-05
6.50746e-05
4.76273e-05
6.50749e-05
6.09816e-05
6.87782e-05
7.35691e-05
7.35625e-05
6.87689e-05
6.87796e-05
7.35963e-05
7.35897e-05
6.87773e-05
7.13132e-05
7.13285e-05
7.13124e-05
7.13282e-05
5.42026e-05
7.01794e-05
7.01728e-05
7.01859e-05
7.0182e-05
7.13401e-05
7.13286e-05
7.13414e-05
7.13285e-05
7.13278e-05
7.13472e-05
7.13289e-05
7.13498e-05
7.00903e-05
7.00837e-05
5.41197e-05
7.00504e-05
7.00411e-05
7.13761e-05
7.13495e-05
7.13811e-05
7.13524e-05
5.41266e-05
7.00197e-05
7.0015e-05
7.00371e-05
7.00279e-05
6.87365e-05
7.35913e-05
6.87546e-05
7.36098e-05
6.09534e-05
6.50136e-05
4.76715e-05
5.21922e-05
6.09679e-05
6.49783e-05
4.76813e-05
6.09519e-05
6.49963e-05
4.76574e-05
5.21916e-05
6.09624e-05
6.49881e-05
4.76779e-05
6.87252e-05
7.36263e-05
7.36016e-05
6.87152e-05
6.8726e-05
7.36396e-05
7.3614e-05
6.87203e-05
6.09426e-05
5.2178e-05
6.49438e-05
4.76952e-05
6.4962e-05
4.76867e-05
6.09318e-05
6.09439e-05
5.221e-05
6.50046e-05
4.77214e-05
6.49871e-05
4.76979e-05
6.09379e-05
7.00659e-05
7.00798e-05
5.41589e-05
7.00675e-05
7.00741e-05
7.13356e-05
7.13591e-05
7.1392e-05
7.13644e-05
5.41803e-05
7.01144e-05
7.0105e-05
7.00779e-05
7.00759e-05
7.13895e-05
7.13622e-05
6.09076e-05
6.50023e-05
4.76508e-05
5.21789e-05
6.09485e-05
6.49628e-05
4.7649e-05
6.86868e-05
7.35668e-05
6.87252e-05
7.35891e-05
6.0894e-05
4.76235e-05
6.49314e-05
5.21048e-05
6.09354e-05
4.76198e-05
6.48901e-05
6.86826e-05
7.36282e-05
7.36003e-05
6.86702e-05
6.08887e-05
5.21584e-05
6.49256e-05
4.76407e-05
6.49444e-05
4.76428e-05
6.08746e-05
6.86696e-05
7.36355e-05
7.35954e-05
6.86613e-05
6.0876e-05
5.20937e-05
4.76168e-05
6.48944e-05
4.76156e-05
6.48806e-05
6.08653e-05
6.87647e-05
7.35962e-05
6.87738e-05
7.36141e-05
6.09899e-05
4.77223e-05
6.50743e-05
5.2271e-05
6.09942e-05
4.77522e-05
6.504e-05
6.87694e-05
7.35985e-05
6.87789e-05
7.36053e-05
6.09774e-05
5.22347e-05
6.50086e-05
4.77696e-05
6.50017e-05
4.77496e-05
6.09649e-05
6.87553e-05
7.36419e-05
7.3618e-05
6.87394e-05
6.09825e-05
5.2268e-05
4.77728e-05
6.4973e-05
4.77684e-05
6.50178e-05
6.0963e-05
6.87588e-05
7.36221e-05
7.36069e-05
6.87369e-05
6.99868e-05
6.99968e-05
5.40293e-05
6.99548e-05
6.99587e-05
7.13192e-05
7.13475e-05
7.1393e-05
7.13548e-05
5.4038e-05
6.99999e-05
6.99878e-05
6.99539e-05
6.99554e-05
7.13895e-05
7.1352e-05
6.09572e-05
4.76997e-05
6.50661e-05
5.22541e-05
6.09761e-05
4.77131e-05
6.50279e-05
6.87266e-05
7.35715e-05
6.87569e-05
7.35931e-05
6.87435e-05
7.35969e-05
6.87699e-05
7.36044e-05
6.09218e-05
5.21111e-05
4.76634e-05
6.48994e-05
4.76561e-05
6.48951e-05
6.09001e-05
6.09414e-05
5.22482e-05
4.77139e-05
6.49564e-05
4.77151e-05
6.50042e-05
6.09123e-05
6.87079e-05
7.36366e-05
7.35989e-05
6.86844e-05
6.87245e-05
7.36235e-05
7.36062e-05
6.86941e-05
7.13395e-05
7.13522e-05
7.13413e-05
7.13555e-05
5.4225e-05
7.00261e-05
7.00233e-05
7.00856e-05
7.00777e-05
7.13726e-05
7.13528e-05
7.13782e-05
7.13564e-05
7.13798e-05
7.14126e-05
7.13852e-05
7.14195e-05
7.00189e-05
7.00164e-05
5.41053e-05
7.0045e-05
7.00642e-05
7.14507e-05
7.14172e-05
7.14555e-05
7.1424e-05
5.41528e-05
7.01343e-05
7.01669e-05
7.00595e-05
7.00841e-05
6.87379e-05
7.36444e-05
6.87187e-05
7.36686e-05
6.09427e-05
6.49409e-05
4.77144e-05
5.21747e-05
6.09276e-05
6.49602e-05
4.77455e-05
6.09541e-05
6.50108e-05
4.77536e-05
5.22964e-05
6.09352e-05
6.50375e-05
4.77895e-05
6.87336e-05
7.37121e-05
7.36747e-05
6.87708e-05
6.87422e-05
7.36955e-05
7.36726e-05
6.87725e-05
6.09502e-05
5.22125e-05
6.50366e-05
4.78443e-05
6.497e-05
4.77906e-05
6.09974e-05
6.09611e-05
5.23233e-05
6.50438e-05
4.78705e-05
6.50389e-05
4.78301e-05
6.1001e-05
7.01242e-05
7.01117e-05
5.42367e-05
7.01361e-05
7.0128e-05
7.13922e-05
7.14154e-05
7.14401e-05
7.14178e-05
5.42681e-05
7.01328e-05
7.0128e-05
7.0136e-05
7.01282e-05
7.14395e-05
7.14173e-05
6.09145e-05
6.49243e-05
4.76454e-05
5.21481e-05
6.08729e-05
6.49599e-05
4.7672e-05
6.87153e-05
7.36442e-05
6.86632e-05
7.36897e-05
6.09183e-05
4.76317e-05
6.49073e-05
5.21625e-05
6.0866e-05
4.7685e-05
6.49996e-05
6.87252e-05
7.37192e-05
7.36821e-05
6.88024e-05
6.09317e-05
5.21844e-05
6.50634e-05
4.78261e-05
6.49747e-05
4.77421e-05
6.10272e-05
6.87297e-05
7.37284e-05
7.36972e-05
6.88097e-05
6.09369e-05
5.22644e-05
4.78575e-05
6.5128e-05
4.77683e-05
6.50237e-05
6.10367e-05
6.87298e-05
7.36465e-05
6.87318e-05
7.36712e-05
6.09446e-05
4.77743e-05
6.49528e-05
5.22271e-05
6.0952e-05
4.77783e-05
6.49386e-05
6.87196e-05
7.36263e-05
6.87256e-05
7.36579e-05
6.09549e-05
5.23241e-05
6.50418e-05
4.78607e-05
6.50337e-05
4.78328e-05
6.09831e-05
6.87299e-05
7.37003e-05
7.36755e-05
6.87606e-05
6.09427e-05
5.22282e-05
4.78244e-05
6.50182e-05
4.77911e-05
6.49419e-05
6.09739e-05
6.87193e-05
7.37085e-05
7.36656e-05
6.87561e-05
7.00209e-05
7.00072e-05
5.41406e-05
7.01221e-05
7.01081e-05
7.13949e-05
7.14322e-05
7.14645e-05
7.14385e-05
5.42196e-05
7.0245e-05
7.02377e-05
7.01533e-05
7.01402e-05
7.1463e-05
7.14363e-05
6.09074e-05
4.77139e-05
6.49391e-05
5.22033e-05
6.09029e-05
4.772e-05
6.49348e-05
6.87013e-05
7.36452e-05
6.86792e-05
7.36921e-05
6.86939e-05
7.36286e-05
6.86843e-05
7.36642e-05
6.0924e-05
5.22692e-05
4.78496e-05
6.51255e-05
4.77748e-05
6.50151e-05
6.10185e-05
6.09163e-05
5.22068e-05
4.78079e-05
6.50461e-05
4.77448e-05
6.49445e-05
6.10027e-05
6.87145e-05
7.37331e-05
7.37002e-05
6.8801e-05
6.87046e-05
7.37154e-05
7.36726e-05
6.87885e-05
7.13756e-05
7.14083e-05
7.13817e-05
7.14158e-05
5.41441e-05
7.01272e-05
7.01584e-05
7.00266e-05
7.00542e-05
7.14502e-05
7.14137e-05
7.14554e-05
7.14211e-05
7.14541e-05
7.14785e-05
7.14582e-05
7.14796e-05
7.01565e-05
7.01884e-05
5.43849e-05
7.02139e-05
7.0237e-05
7.14977e-05
7.148e-05
7.14976e-05
7.14807e-05
5.44474e-05
7.02356e-05
7.02466e-05
7.02232e-05
7.02429e-05
6.88224e-05
7.37001e-05
6.87786e-05
7.37268e-05
6.10649e-05
6.50528e-05
4.79063e-05
5.24393e-05
6.10077e-05
6.51269e-05
4.79711e-05
6.10576e-05
6.50454e-05
4.79149e-05
5.23948e-05
6.10092e-05
6.50718e-05
4.79618e-05
6.88351e-05
7.37597e-05
7.37469e-05
6.88666e-05
6.88301e-05
7.3753e-05
7.37314e-05
6.88643e-05
6.10759e-05
5.25127e-05
6.51615e-05
4.81134e-05
6.5136e-05
4.8042e-05
6.11264e-05
6.1068e-05
5.24412e-05
6.51283e-05
4.80827e-05
6.50807e-05
4.80187e-05
6.1119e-05
7.0134e-05
7.01295e-05
5.43257e-05
7.0164e-05
7.01647e-05
7.1442e-05
7.14683e-05
7.14933e-05
7.14711e-05
5.43653e-05
7.0209e-05
7.02154e-05
7.01775e-05
7.01774e-05
7.14924e-05
7.14708e-05
6.11193e-05
6.50813e-05
4.79189e-05
5.24573e-05
6.10453e-05
6.51456e-05
4.80128e-05
6.88699e-05
7.37315e-05
6.88218e-05
7.37438e-05
6.11269e-05
4.79524e-05
6.51446e-05
5.25376e-05
6.10548e-05
4.80449e-05
6.51995e-05
6.88683e-05
7.37595e-05
7.37473e-05
6.88825e-05
6.11277e-05
5.25384e-05
6.51667e-05
4.81852e-05
6.51519e-05
4.81048e-05
6.11546e-05
6.88735e-05
7.3748e-05
7.37444e-05
6.88856e-05
6.11347e-05
5.26064e-05
4.82042e-05
6.52045e-05
4.81312e-05
6.52032e-05
6.11583e-05
6.88276e-05
7.37052e-05
6.87697e-05
7.37319e-05
6.10616e-05
4.78809e-05
6.50428e-05
5.24156e-05
6.09868e-05
4.79494e-05
6.51342e-05
6.88313e-05