/*--------------------------------*- C++ -*----------------------------------*\
| =========                 |                                                 |
| \\      /  F ield         | OpenFOAM: The Open Source CFD Toolbox           |
|  \\    /   O peration     | Version:  v2006                                 |
|   \\  /    A nd           | Website:  www.openfoam.com                      |
|    \\/     M anipulation  |                                                 |
\*---------------------------------------------------------------------------*/
FoamFile
{
    version     2.0;
    format      ascii;
    class       volScalarField;
    location    "625";
    object      nut;
}
// * * * * * * * * * * * * * * * * * * * * * * * * * * * * * * * * * * * * * //

dimensions      [0 2 -1 0 0 0 0];


internalField   nonuniform List<scalar> 
42616
(
0.000208348
0.000201645
0.000202525
0.000181864
0.000212472
0.000203556
0.000204834
0.000184303
0.0002153
0.000205099
0.000204855
0.000185671
0.000214702
0.000205706
0.000204057
0.000184836
0.000216127
0.000205913
0.000206461
0.000184997
0.000219852
0.000207441
0.000208623
0.00018717
0.000222008
0.000208965
0.000208388
0.00018726
0.000223529
0.000209093
0.00020866
0.000187167
0.000225495
0.000210132
0.000210541
0.000188511
0.000225889
0.000211193
0.000210487
0.000188656
0.000224454
0.000210099
0.00021024
0.000187755
0.000227898
0.00021012
0.000211599
0.000188542
0.00023166
0.000213424
0.000212198
0.000189623
0.000234098
0.000214625
0.000214118
0.000190812
0.000229872
0.000212162
0.00021231
0.000188373
0.000224157
0.000209184
0.000210062
0.000188088
0.000242068
0.000216673
0.000218991
0.000196988
0.000244998
0.00021791
0.000209127
0.000185443
0.00021839
0.000203193
0.000200022
0.000176341
0.000243173
0.000223331
0.000236649
0.000203062
0.00026392
0.000233659
0.00023476
0.000216346
0.00018231
0.000201027
0.000201523
0.000182726
0.000201022
0.000201767
0.000201508
0.000200457
0.000183079
0.000201732
0.000200432
0.000181793
0.000182506
0.000184587
0.000201531
0.000201693
0.000203677
0.000203042
0.000182716
0.000183846
0.000201653
0.000202572
0.000203958
0.000204538
0.000200775
0.000202936
0.000202974
0.000183415
0.000185124
0.000200892
0.000204462
0.000203263
0.000183965
0.000184762
0.000185534
0.000204365
0.000203643
0.000205361
0.000204829
0.00018402
0.000185026
0.000204633
0.000204881
0.000205408
0.000204991
0.000203788
0.000204897
0.00020564
0.000185148
0.000184929
0.000204049
0.000205014
0.000205676
0.000185718
0.00018536
0.000184536
0.000205363
0.000204956
0.000204813
0.000205345
0.000184957
0.00018524
0.000205389
0.000204779
0.000204631
0.000203948
0.000205836
0.000205537
0.000205622
0.000184663
0.000183916
0.000205798
0.00020411
0.000205411
0.000185119
0.000184298
0.000185055
0.000204641
0.000205562
0.00020521
0.00020589
0.000185205
0.000185612
0.000204415
0.000203893
0.000205093
0.000205737
0.000205258
0.000205856
0.000204905
0.00018387
0.000185617
0.000205021
0.000205735
0.000204791
0.000184766
0.000185287
0.000186893
0.000205774
0.000205956
0.000207483
0.000206875
0.000185528
0.000186253
0.000205813
0.000206476
0.000207786
0.000208329
0.000205403
0.000206909
0.000207595
0.000185933
0.000187533
0.000205478
0.000208354
0.000207878
0.000187079
0.000186965
0.000187363
0.000207963
0.000207393
0.000208613
0.000208703
0.000186376
0.000187507
0.000208236
0.000208582
0.000208633
0.000208534
0.000208153
0.000208769
0.000208722
0.000187505
0.000187139
0.000208399
0.0002086
0.000208761
0.000187483
0.00018722
0.000187903
0.000208708
0.000208914
0.000209319
0.0002091
0.000187466
0.000187693
0.000208632
0.000208331
0.000209117
0.000208339
0.000208694
0.000209072
0.000208583
0.000186918
0.00018714
0.000208668
0.000208329
0.000208463
0.000187114
0.000187958
0.000188942
0.000209659
0.000209151
0.000210471
0.000209772
0.000187554
0.000188133
0.000209581
0.000208751
0.000210595
0.000210328
0.000208726
0.000209706
0.000210051
0.00018729
0.000188674
0.000208602
0.00021029
0.000210178
0.000188507
0.000188834
0.000188393
0.000210622
0.000210159
0.000210501
0.000210966
0.000188143
0.000189051
0.000210741
0.000210535
0.000210464
0.000210561
0.000210421
0.000211084
0.000210949
0.000188622
0.00018839
0.000210534
0.000210656
0.00021093
0.000188819
0.000188109
0.000186926
0.000210245
0.000211052
0.000209169
0.000210371
0.00018896
0.000188132
0.000210175
0.000210351
0.00020916
0.000209985
0.000210956
0.000210593
0.000210288
0.000188157
0.00018788
0.000210876
0.000210196
0.000210251
0.000187972
0.000186693
0.000188784
0.000209035
0.0002099
0.000210641
0.00020961
0.000187792
0.000187451
0.00020908
0.000210033
0.000210903
0.000211314
0.000210077
0.000209647
0.000210269
0.00018788
0.000189143
0.000210138
0.000211293
0.000210588
0.000188379
0.000189175
0.000190911
0.000211577
0.00021025
0.000213401
0.000212866
0.000187761
0.000190429
0.000211759
0.000211665
0.000213205
0.00021212
0.000210873
0.000212873
0.000212283
0.000189162
0.0001895
0.000211086
0.000212075
0.000212091
0.000189656
0.000190875
0.000192014
0.000213906
0.000213392
0.000215363
0.000214674
0.000190522
0.000191442
0.000213677
0.000212226
0.000215328
0.000213708
0.000212674
0.000214529
0.000213869
0.000189339
0.000190666
0.000212406
0.0002136
0.000213853
0.000190865
0.000191846
0.00018859
0.000215238
0.000214885
0.000212106
0.000213094
0.000191266
0.000189395
0.000215391
0.000214317
0.000212181
0.000213992
0.000214064
0.00021295
0.00021265
0.000190806
0.000190193
0.000214106
0.000213799
0.000212798
0.000189088
0.000187522
0.00018163
0.000210398
0.00021219
0.00020563
0.000208317
0.000188857
0.000185928
0.000210141
0.000212366
0.00020539
0.000208746
0.000211639
0.000209391
0.000210778
0.000189231
0.000185521
0.000211511
0.000209767
0.000210549
0.000187293
0.000181517
0.000197768
0.000205746
0.000207928
0.000218327
0.000213258
0.000185586
0.000191801
0.000205692
0.000208933
0.0002197
0.000217978
0.000211395
0.000213566
0.00021783
0.000185797
0.000196729
0.000211379
0.000217697
0.000218867
0.000196862
0.000200301
0.000201217
0.000223989
0.000217659
0.000226927
0.000221912
0.000193128
0.000196161
0.000224985
0.000220326
0.000226368
0.000217643
0.000218679
0.000219581
0.000214628
0.000197344
0.000189161
0.000219641
0.000214728
0.000213892
0.000187881
0.000196126
0.000169069
0.000221148
0.00021997
0.000196674
0.000203023
0.000194166
0.000178288
0.00021921
0.000211196
0.00019554
0.000197834
0.000211248
0.000204616
0.000201151
0.000185338
0.000172324
0.000209509
0.000199363
0.00019993
0.00017623
0.000168094
0.000204753
0.000195413
0.00020149
0.000217593
0.000213878
0.000177295
0.000197562
0.000194636
0.000198114
0.000220286
0.000226367
0.000200416
0.000212996
0.000215181
0.000173334
0.000210459
0.000199674
0.000225899
0.000217871
0.000198392
0.000211635
0.00021784
0.000232024
0.000225244
0.000246761
0.000241596
0.00020249
0.000214275
0.000234772
0.000238186
0.000248123
0.00024812
0.000225986
0.000241315
0.000247394
0.000215875
0.000216251
0.000228881
0.000247576
0.000248596
0.000221027
0.000208707
0.000234563
0.000232869
0.000208641
0.000234899
0.0002344
0.000258527
0.000265559
0.000269635
0.000239926
0.00020765
0.000240018
0.00020776
0.000208764
0.000208039
0.000207034
0.000100115
5.07739e-05
9.99094e-05
5.07845e-05
2.39021e-05
2.39064e-05
0.000100217
5.07706e-05
0.000100017
5.07797e-05
0.00020899
0.000209195
0.000207396
0.000211301
0.000210439
0.000212551
0.0002101
0.000144587
0.000103701
0.000211302
0.00020192
0.000144276
0.000103889
0.00021162
2.39041e-05
2.39066e-05
0.000145014
0.000211712
0.000104015
0.00020325
0.000144524
0.000212561
0.000104261
7.77997e-05
7.78465e-05
0.000182623
7.79934e-05
7.8021e-05
0.000100325
5.07902e-05
0.000100286
5.07926e-05
2.39097e-05
2.39122e-05
0.000100377
5.07848e-05
0.000100342
5.07866e-05
0.000211302
0.000213427
0.000211386
0.00021502
0.00021381
0.000214552
0.000214949
0.000145509
0.000104137
0.000213684
0.000204121
0.000145208
0.000104183
0.000214521
2.39074e-05
2.39086e-05
0.00014559
0.000214976
0.000104382
0.000205012
0.000145445
0.000215526
0.00010433
7.82197e-05
7.82113e-05
0.000185115
7.8308e-05
7.82859e-05
0.000100222
5.07954e-05
0.00010029
5.07998e-05
2.39157e-05
2.392e-05
0.000100125
5.07887e-05
0.000100251
5.07934e-05
0.000214359
0.000214432
0.000215696
0.000214867
0.000215653
0.000213913
0.000216093
0.000145628
0.000104126
0.000216267
0.000205232
0.000145619
0.000104092
0.000216532
2.39117e-05
2.39167e-05
0.000145421
0.000216125
0.000103984
0.000204551
0.000145566
0.000216004
0.000103817
7.82872e-05
7.82524e-05
0.000185747
7.8178e-05
7.81373e-05
0.000100113
5.08113e-05
0.0001001
5.08233e-05
2.39255e-05
2.39292e-05
0.000100038
5.08063e-05
9.99602e-05
5.08198e-05
0.000216072
0.000214056
0.000215767
0.000215438
0.000216849
0.0002159
0.000215455
0.000145388
0.000104071
0.000216871
0.000205806
0.000145437
0.00010412
0.000216898
2.39247e-05
2.39309e-05
0.000145082
0.00021557
0.00010368
0.000204368
0.000145067
0.000215672
0.000103896
7.79027e-05
7.78755e-05
0.000184574
7.78504e-05
7.78568e-05
0.000100332
5.08409e-05
0.000100202
5.08501e-05
2.39336e-05
2.3938e-05
0.000100437
5.08373e-05
0.000100292
5.08446e-05
0.000216978
0.000216871
0.000216
0.000218906
0.000218074
0.000219957
0.000218929
0.000145794
0.000104097
0.000217178
0.000206085
0.000145481
0.000104191
0.00021749
2.39362e-05
2.39387e-05
0.000146161
0.000217358
0.000104358
0.000207188
0.000145658
0.000218204
0.000104592
7.81021e-05
7.81469e-05
0.000185989
7.82683e-05
7.83037e-05
0.000100459
5.08561e-05
0.000100443
5.08603e-05
2.39424e-05
2.39455e-05
0.000100493
5.08503e-05
0.000100492
5.08546e-05
0.000218852
0.000220765
0.000219963
0.000221696
0.000221471
0.000221782
0.00022187
0.000146349
0.000104385
0.000219275
0.000207977
0.000146209
0.000104438
0.000219921
2.39399e-05
2.39417e-05
0.000146483
0.000220454
0.000104617
0.000208703
0.000146437
0.000220842
0.000104469
7.83568e-05
7.83601e-05
0.000187576
7.8301e-05
7.82634e-05
0.000100424
5.08674e-05
0.000100423
5.08743e-05
2.39487e-05
2.39516e-05
0.000100308
5.08617e-05
0.000100336
5.08694e-05
0.000222125
0.000221717
0.000222035
0.000223028
0.000222967
0.000221917
0.000222145
0.00014634
0.000104415
0.000221226
0.000209049
0.000146349
0.000104413
0.000221376
2.39457e-05
2.39505e-05
0.000146055
0.000220904
0.000104149
0.000208271
0.000146151
0.000220738
0.000104156
7.81107e-05
7.80584e-05
0.000187109
7.8076e-05
7.80397e-05
0.000100497
5.08814e-05
0.000100446
5.0884e-05
2.39544e-05
2.39569e-05
0.000100556
5.0877e-05
0.000100431
5.0879e-05
0.000223067
0.0002224
0.00022245
0.000225045
0.000223994
0.000224331
0.000224173
0.000146475
0.000104398
0.000221545
0.000209177
0.000146331
0.000104428
0.000221723
2.39546e-05
2.39567e-05
0.000146599
0.000220951
0.00010445
0.00020928
0.000146254
0.000221525
0.000104626
7.8217e-05
7.82452e-05
0.000187815
7.83053e-05
7.83494e-05
0.000100549
5.0884e-05
0.000100548
5.08831e-05
2.39599e-05
2.39627e-05
0.000100557
5.08778e-05
0.00010064
5.08772e-05
0.000224577
0.000224963
0.000224834
0.000226026
0.000226463
0.000226229
0.000226513
0.000146808
0.00010449
0.000222867
0.000210551
0.000146651
0.000104586
0.000223421
2.39577e-05
2.39594e-05
0.000146868
0.000223335
0.000104642
0.000210657
0.000146807
0.000223702
0.000104519
7.83618e-05
7.83568e-05
0.000188885
7.8326e-05
7.82728e-05
0.00010026
5.08837e-05
0.000100382
5.08894e-05
2.3965e-05
2.39669e-05
0.000100143
5.08801e-05
0.000100263
5.08868e-05
0.00022687
0.000226235
0.000226742
0.000224692
0.000226803
0.00022585
0.000226365
0.000146678
0.000104646
0.000224347
0.000211191
0.000146826
0.000104517
0.000224407
2.39633e-05
2.39681e-05
0.000146423
0.000223968
0.000104242
0.000210315
0.00014656
0.000223863
0.000104197
7.8187e-05
7.81426e-05
0.000188454
7.80791e-05
7.80774e-05
0.000100069
5.09081e-05
0.000100026
5.09261e-05
2.39706e-05
2.39771e-05
0.000100241
5.09048e-05
0.000100094
5.09196e-05
0.000226284
0.000225919
0.000226146
0.000226706
0.000225511
0.000227652
0.000226684
0.000145991
0.00010395
0.000223658
0.000209742
0.000146126
0.000103809
0.000223315
2.39739e-05
2.39775e-05
0.000146353
0.000223617
0.000104246
0.000210453
0.000146262
0.000223674
0.000104386
7.79321e-05
7.7998e-05
0.000187837
7.79962e-05
7.80468e-05
0.000100478
5.09394e-05
0.000100326
5.09413e-05
2.39835e-05
2.39857e-05
0.000100438
5.09305e-05
0.000100384
5.09336e-05
0.000226161
0.000228208
0.000227374
0.000230766
0.000229896
0.000229406
0.000229296
0.000146902
0.000104287
0.00022354
0.000211101
0.000146333
0.000104624
0.000224488
2.39794e-05
2.39804e-05
0.000146787
0.000224796
0.000104518
0.000211806
0.000146636
0.000225149
0.000104541
7.82449e-05
7.81963e-05
0.00018917
7.8311e-05
7.82218e-05
0.000100876
5.09386e-05
0.000100699
5.09368e-05
2.3984e-05
2.39829e-05
0.000100672
5.09345e-05
0.000100489
5.09344e-05
0.000230957
0.000229838
0.000229925
0.00023383
0.00023273
0.000231709
0.000232121
0.000147602
0.000104936
0.00022714
0.000213865
0.000147343
0.000105043
0.000227715
2.39798e-05
2.39814e-05
0.000147218
0.000226212
0.000104442
0.000212438
0.000146907
0.000226684
0.000104543
7.83262e-05
7.82618e-05
0.000190186
7.83826e-05
7.83961e-05
0.000100889
5.09216e-05
0.000101021
5.09057e-05
2.39797e-05
2.398e-05
0.000101206
5.09169e-05
0.000101241
5.08976e-05
0.00023307
0.000232436
0.000232485
0.000231395
0.000232855
0.000232902
0.000232125
0.000147435
0.000104966
0.000228771
0.000214309
0.000147665
0.000104615
0.000228717
2.39826e-05
2.39817e-05
0.000147936
0.000228357
0.000105162
0.000214401
0.000147906
0.000228599
0.000105204
7.84816e-05
7.87191e-05
0.000190925
7.82437e-05
7.83851e-05
9.83444e-05
5.08827e-05
9.95352e-05
5.08981e-05
2.39811e-05
2.39889e-05
9.78881e-05
5.08771e-05
9.93235e-05
5.08996e-05
0.000232138
0.000232257
0.000231388
0.000224424
0.000228567
0.000229484
0.000230608
0.000144703
0.000103639
0.000226657
0.000211121
0.000145752
0.00010317
0.000225705
2.39763e-05
2.39828e-05
0.000143905
0.000226719
0.000103317
0.000210709
0.000145402
0.000225368
0.000102388
7.71516e-05
7.69608e-05
0.000186921
7.68688e-05
7.66215e-05
9.9639e-05
5.09958e-05
9.81579e-05
5.10588e-05
2.3999e-05
2.40048e-05
0.000100198
5.10055e-05
9.81614e-05
5.10615e-05
0.000227606
0.000229456
0.000230906
0.00023544
0.000229422
0.000234548
0.000236226
0.000146968
0.000103529
0.000224285
0.000209486
0.000144894
0.000104393
0.000224578
2.39993e-05
2.4005e-05
0.000148567
0.000224792
0.000103812
0.00021158
0.000145
0.000226051
0.000106055
7.83485e-05
7.86175e-05
0.000192371
7.9778e-05
8.02378e-05
0.000105122
5.10678e-05
0.000103855
5.09703e-05
2.39989e-05
2.39928e-05
0.000105284
5.1042e-05
0.000104818
5.09314e-05
0.000233259
0.000236681
0.000237211
0.000247857
0.000240908
0.00023667
0.000235782
0.000151123
0.000106112
0.000231133
0.000218734
0.000150564
0.000106371
0.000232857
2.39813e-05
2.3967e-05
0.000150851
0.000233317
0.000107999
0.00021928
0.000152635
0.00023376
0.000105918
8.02699e-05
8.04009e-05
0.000195622
7.86139e-05
7.83657e-05
9.54226e-05
5.07596e-05
0.000100162
5.07639e-05
2.39744e-05
2.39831e-05
9.37658e-05
5.0743e-05
9.8548e-05
5.07721e-05
0.000240836
0.000233499
0.000233267
0.000220964
0.000229529
0.000222632
0.00022291
0.00014113
0.000103789
0.00023198
0.000213526
0.000145948
0.000100685
0.000228291
2.39595e-05
2.3994e-05
0.000137073
0.000225751
0.000100174
0.000203666
0.000141938
0.000220241
9.72537e-05
7.59042e-05
7.51127e-05
0.000179921
7.46022e-05
7.42235e-05
9.71383e-05
5.10128e-05
9.25912e-05
5.12012e-05
2.40191e-05
2.4045e-05
9.80552e-05
5.10477e-05
9.296e-05
5.12188e-05
0.000226525
0.000222128
0.000221402
0.000228905
0.000228318
0.00023914
0.000231172
0.000140918
9.92857e-05
0.000217842
0.000203289
0.000136935
0.000102427
0.000217485
2.40526e-05
2.4078e-05
0.000143992
0.0002146
9.9942e-05
0.000204552
0.000137646
0.000217103
0.000104796
7.51674e-05
7.59151e-05
0.000182019
7.72199e-05
7.80933e-05
0.000112418
5.11587e-05
0.000108826
5.09763e-05
2.4016e-05
2.39813e-05
0.000113837
5.11478e-05
0.000110711
5.0953e-05
0.000235726
0.000250503
0.000240674
0.000263181
0.000254243
0.000266052
0.0002642
0.000166021
0.000112097
0.000234809
0.000232617
0.000156982
0.000114478
0.000244963
2.40235e-05
2.39627e-05
0.00017001
0.00024673
0.000116418
0.000244365
0.000162301
0.000255804
0.000117893
8.37755e-05
8.39418e-05
0.000216956
8.56195e-05
8.52683e-05
9.79906e-05
5.462e-05
0.000101269
8.42978e-05
2.68301e-05
4.33204e-05
9.65834e-05
5.45971e-05
0.00010038
8.41604e-05
0.000268286
0.000269864
0.000273891
0.000244235
0.000268514
0.000260819
0.000262225
0.000145812
0.000108577
0.000259436
0.000218128
0.000159328
0.000101548
0.000244321
2.67802e-05
4.27254e-05
0.000142335
0.000261126
0.000106925
0.000212872
0.000156824
0.000240987
9.93202e-05
7.92831e-05
7.86567e-05
0.000199591
8.00249e-05
7.94174e-05
2.39053e-05
2.38993e-05
2.39031e-05
2.38975e-05
0.000181896
7.79396e-05
7.79785e-05
7.77771e-05
7.781e-05
9.98208e-05
5.07714e-05
5.07574e-05
9.98874e-05
9.98451e-05
5.0763e-05
5.07522e-05
9.99011e-05
0.000144187
0.000200747
0.000103655
0.000211049
0.000103481
0.000210858
0.000144334
0.000144232
0.000201438
0.000103709
0.000211339
0.000103646
0.000211195
0.000144364
2.39016e-05
2.38968e-05
0.000182498
7.79632e-05
7.79535e-05
7.79053e-05
7.79273e-05
2.39026e-05
2.38979e-05
9.98105e-05
5.07683e-05
5.07543e-05
9.99815e-05
0.000144132
0.000200614
0.000103719
0.000210874
0.000103496
0.000210357
0.000144489
9.98128e-05
5.07703e-05
5.07587e-05
0.000100009
0.000144143
0.000200951
0.000211154
0.000103968
0.000210432
0.000103619
0.000144548
0.000144193
0.000201449
0.000103699
0.000211138
0.000103667
0.000211052
0.000144262
9.98337e-05
5.07636e-05
5.0753e-05
9.98537e-05
0.000144128
0.000200369
0.000210623
0.000103464
0.000210554
0.000103415
0.000144188
9.97972e-05
5.07589e-05
5.0745e-05
9.98141e-05
2.39038e-05
2.38995e-05
0.000182134
7.8162e-05
7.81655e-05
7.79547e-05
7.79632e-05
2.39057e-05
2.39012e-05
0.000144087
0.000200931
0.000210929
0.000103965
0.000210252
0.000103625
0.000144449
0.00014405
0.000200215
0.000210416
0.000103525
0.00021001
0.000103419
0.000144339
9.98016e-05
5.07742e-05
5.07622e-05
9.99718e-05
9.97762e-05
5.07597e-05
5.07453e-05
9.99098e-05
0.000181589
7.77762e-05
7.7822e-05
7.77178e-05
7.77408e-05
2.39011e-05
2.38948e-05
2.39006e-05
2.38946e-05
2.3906e-05
2.39103e-05
2.39036e-05
2.39074e-05
7.79868e-05
7.80231e-05
0.000183373
7.81628e-05
7.81804e-05
2.39132e-05
2.39105e-05
2.391e-05
2.39076e-05
0.000183698
7.8292e-05
7.82893e-05
7.81974e-05
7.82092e-05
0.000100104
5.07651e-05
9.9919e-05
5.07756e-05
0.000144781
0.000103703
0.000211399
0.000202209
0.000144372
0.00010403
0.000211929
0.00014476
0.000103718
0.000211569
0.000201999
0.000144394
0.000103921
0.000211946
0.000100146
5.07899e-05
5.07856e-05
0.000100281
0.000100132
5.07827e-05
5.0777e-05
0.000100263
0.000144859
0.000202955
0.000104263
0.000213473
0.000104072
0.000212643
0.000145284
0.000144832
0.000202469
0.000104112
0.000213233
0.000103955
0.000212513
0.000145244
7.79863e-05
7.79711e-05
0.000183114
7.80971e-05
7.80969e-05
2.39032e-05
2.39078e-05
2.39096e-05
2.39067e-05
0.000183235
7.81648e-05
7.81874e-05
7.81196e-05
7.8123e-05
2.39113e-05
2.39082e-05
0.000145082
0.000103773
0.000211572
0.000202422
0.000144569
0.000104075
0.000212425
0.000100236
5.07716e-05
0.000100044
5.07768e-05
0.000145134
0.00021198
0.000104019
0.000203312
0.000144634
0.000212874
0.00010427
0.000100237
5.07845e-05
5.07806e-05
0.000100337
0.000145151
0.000203209
0.000104281
0.000214278
0.000104109
0.000213363
0.000145475
0.000100253
5.07787e-05
5.07772e-05
0.000100348
0.000145201
0.000203994
0.000214592
0.000104396
0.000213773
0.000104292
0.000145501
0.000100023
5.07658e-05
9.98616e-05
5.07776e-05
0.000144549
0.000210849
0.000103477
0.000201348
0.000144206
0.000211283
0.000103783
0.000100005
5.07618e-05
9.98245e-05
5.07765e-05
0.00014466
0.000202368
0.000104127
0.000212854
0.000103927
0.000212145
0.00014514
0.000100056
5.07858e-05
5.07792e-05
0.000100237
0.000144631
0.000202125
0.000212805
0.000104131
0.000211954
0.000103842
0.000145144
0.000100042
5.0787e-05
5.07786e-05
0.00010024
7.82108e-05
7.82118e-05
0.000184323
7.83517e-05
7.835e-05
2.39059e-05
2.39085e-05
2.39077e-05
2.39065e-05
0.000184519
7.83964e-05
7.84055e-05
7.83705e-05
7.83697e-05
2.39099e-05
2.39084e-05
0.000144902
0.000211018
0.000103549
0.000201583
0.000144408
0.000211795
0.000103861
0.000100199
5.07755e-05
0.000100005
5.07811e-05
0.00010015
5.07625e-05
9.99406e-05
5.07759e-05
0.000145085
0.000203912
0.000214259
0.00010439
0.000213435
0.000104282
0.000145418
0.000144981
0.000202419
0.000213647
0.00010415
0.000212703
0.000103909
0.000145359
0.000100219
5.07833e-05
5.07815e-05
0.000100313
0.000100174
5.07846e-05
5.07776e-05
0.000100285
2.3902e-05
2.39078e-05
2.39014e-05
2.39066e-05
0.000182964
7.81922e-05
7.81889e-05
7.80395e-05
7.80597e-05
2.39121e-05
2.39083e-05
2.39106e-05
2.39071e-05
2.39132e-05
2.3915e-05
2.391e-05
2.39119e-05
7.83016e-05
7.82945e-05
0.000185322
7.8311e-05
7.82881e-05
2.3917e-05
2.39149e-05
2.39141e-05
2.39118e-05
0.000185319
7.81949e-05
7.81625e-05
7.82766e-05
7.82482e-05
0.000100304
5.07833e-05
0.000100269
5.07872e-05
0.000145522
0.000104271
0.000214337
0.000204912
0.000145327
0.000104329
0.000215105
0.000145486
0.000104114
0.000214035
0.000204169
0.000145287
0.000104142
0.000214789
0.000100318
5.0795e-05
5.07928e-05
0.000100315
0.000100297
5.07923e-05
5.07879e-05
0.000100293
0.000145521
0.000205243
0.000104248
0.000216112
0.000104312
0.000215712
0.000145586
0.000145484
0.000204578
0.0001041
0.000215796
0.000104126
0.000215399
0.000145551
7.81617e-05
7.81883e-05
0.000184601
7.81408e-05
7.81837e-05
2.39114e-05
2.39139e-05
2.39154e-05
2.39123e-05
0.000184676
7.80592e-05
7.81145e-05
7.81152e-05
7.81652e-05
2.39167e-05
2.39139e-05
0.000145632
0.000104286
0.000215086
0.000205105
0.000145498
0.000104335
0.000215721
0.000100376
5.07785e-05
0.000100348
5.07784e-05
0.000145637
0.000215275
0.000104383
0.000205024
0.00014552
0.000215762
0.000104306
0.000100367
5.07883e-05
5.07866e-05
0.00010031
0.000145619
0.000205347
0.000104213
0.000216315
0.000104308
0.000216126
0.000145595
0.000100355
5.07802e-05
5.0778e-05
0.000100277
0.00014562
0.000205039
0.000216126
0.000104033
0.000216056
0.00010421
0.000145557
0.000100313
5.07864e-05
0.000100252
5.07899e-05
0.000145531
0.000213761
0.000104161
0.000204559
0.000145216
0.000214694
0.000104315
0.000100324
5.07878e-05
0.000100256
5.07915e-05
0.000145524
0.000204584
0.000104158
0.000215852
0.00010417
0.000215271
0.000145634
0.000100311
5.07947e-05
5.07905e-05
0.000100325
0.000145551
0.000205211
0.000216184
0.000104366
0.000215525
0.000104317
0.000145673
0.000100323
5.07942e-05
5.07919e-05
0.000100344
7.83489e-05
7.83686e-05
0.000185397
7.82186e-05
7.82525e-05
2.39095e-05
2.39108e-05
2.39114e-05
2.39086e-05
0.000185243
7.79871e-05
7.80307e-05
7.81529e-05
7.81903e-05
2.39133e-05
2.39107e-05
0.000145571
0.000214543
0.000104172
0.00020478
0.000145394
0.000215309
0.0001043
0.000100352
5.07831e-05
0.000100316
5.07834e-05
0.00010034
5.07853e-05
0.000100292
5.07888e-05
0.000145584
0.000205046
0.000216113
0.000104085
0.000215911
0.000104245
0.000145615
0.000145574
0.000205342
0.000216337
0.000104337
0.000215919
0.000104301
0.000145645
0.000100345
5.07851e-05
5.07831e-05
0.000100329
0.000100338
5.07914e-05
5.07891e-05
0.000100345
2.39123e-05
2.39149e-05
2.39107e-05
2.39134e-05
0.00018524
7.83261e-05
7.82917e-05
7.83172e-05
7.82919e-05
2.39168e-05
2.39149e-05
2.39156e-05
2.39135e-05
2.39171e-05
2.39203e-05
2.39143e-05
2.39177e-05
7.81529e-05
7.81162e-05
0.000185055
7.80524e-05
7.80065e-05
2.39251e-05
2.39207e-05
2.39229e-05
2.39181e-05
0.000184802
7.79375e-05
7.78957e-05
7.80084e-05
7.79605e-05
0.000100212
5.07931e-05
0.00010027
5.07994e-05
0.000145486
0.000104179
0.000216305
0.000205288
0.000145551
0.000104064
0.000216277
0.000145467
0.000104061
0.000216012
0.000205034
0.000145513
0.000104029
0.00021611
0.000100176
5.08093e-05
5.08009e-05
0.000100124
0.000100172
5.08096e-05
5.08009e-05
0.000100135
0.00014541
0.00020505
0.0001039
0.000216093
0.00010399
0.000216176
0.000145338
0.000145407
0.000205164
0.000104054
0.000216309
0.000104007
0.000216194
0.000145364
7.80345e-05
7.80886e-05
0.000185103
7.80219e-05
7.80595e-05
2.3917e-05
2.39209e-05
2.39251e-05
2.39205e-05
0.000185008
7.80963e-05
7.80975e-05
7.80291e-05
7.80508e-05
2.3926e-05
2.39214e-05
0.000145275
0.000104134
0.000216292
0.00020526
0.000145497
0.000103998
0.000216092
0.000100083
5.0781e-05
0.000100212
5.07884e-05
0.000145207
0.000215967
0.000103926
0.000204425
0.000145441
0.000215711
0.000103753
0.000100056
5.0804e-05
5.07946e-05
9.99817e-05
0.000145144
0.000204939
0.000103814
0.000215529
0.000103913
0.0002158
0.000145016
0.000100014
5.08042e-05
5.07905e-05
9.99502e-05
0.000145081
0.00020414
0.000215187
0.000103665
0.000215431
0.000103681
0.000144961
0.000100287
5.07955e-05
0.000100313
5.08016e-05
0.000145671
0.000216637
0.000104342
0.000205867
0.000145661
0.000216909
0.00010425
0.000100308
5.07943e-05
0.000100333
5.07966e-05
0.000145576
0.000205378
0.000104078
0.000216806
0.000104068
0.000216707
0.000145502
0.000100254
5.08111e-05
5.08029e-05
0.000100191
0.000145617
0.000205827
0.000216929
0.000104
0.000217022
0.000104166
0.000145502
0.000100271
5.08021e-05
5.07971e-05
0.000100189
7.79185e-05
7.79612e-05
0.000184281
7.78033e-05
7.78349e-05
2.39136e-05
2.39183e-05
2.39238e-05
2.39175e-05
0.000184004
7.7816e-05
7.78127e-05
7.7771e-05
7.77978e-05
2.39253e-05
2.3919e-05
0.000145516
0.000216592
0.000104307
0.000205801
0.000145613
0.000216679
0.000104195
0.000100193
5.07859e-05
0.000100293
5.07931e-05
0.000100242
5.07916e-05
0.000100324
5.07941e-05
0.000145304
0.000204294
0.000215658
0.000103693
0.000215832
0.000103739
0.000145137
0.000145408
0.00020572
0.000216293
0.00010392
0.000216557
0.000104103
0.000145213
0.000100126
5.08078e-05
5.0795e-05
0.00010002
0.000100177
5.08004e-05
5.07947e-05
0.000100056
2.39167e-05
2.39188e-05
2.39156e-05
2.39179e-05
0.000185507
7.79575e-05
7.79217e-05
7.8116e-05
7.8073e-05
2.39221e-05
2.39189e-05
2.39216e-05
2.39181e-05
2.39257e-05
2.39312e-05
2.39236e-05
2.39293e-05
7.79136e-05
7.78753e-05
0.000184419
7.79319e-05
7.79402e-05
2.39376e-05
2.39319e-05
2.39354e-05
2.39301e-05
0.000184441
7.80802e-05
7.81241e-05
7.79417e-05
7.79638e-05
0.000100141
5.08113e-05
0.000100116
5.08197e-05
0.000145321
0.000103858
0.000216088
0.000204552
0.000145284
0.000103879
0.000216189
0.000145384
0.000104055
0.000216485
0.000205732
0.000145321
0.000104129
0.000216683
0.000100112
5.08388e-05
5.08258e-05
0.000100191
0.000100139
5.08289e-05
5.0821e-05
0.000100198
0.000145324
0.000204722
0.000104064
0.000216731
0.000103879
0.000216413
0.000145521
0.000145386
0.000205844
0.000104112
0.000217101
0.000104113
0.000216898
0.00014555
7.81055e-05
7.81011e-05
0.000185472
7.81207e-05
7.81219e-05
2.39264e-05
2.39303e-05
2.39332e-05
2.39295e-05
0.000185418
7.80818e-05
7.80899e-05
7.81064e-05
7.81106e-05
2.39343e-05
2.39306e-05
0.000145113
0.000103775
0.000215307
0.000204303
0.000144966
0.000103847
0.000215307
0.000100041
5.08072e-05
9.99295e-05
5.08229e-05
0.000145118
0.000215066
0.000103664
0.000204231
0.000144923
0.000215333
0.000103918
0.00010006
5.08355e-05
5.08225e-05
0.000100263
0.000145167
0.000204466
0.000104128
0.000216389
0.000103865
0.000215748
0.000145621
0.000100063
5.08366e-05
5.08255e-05
0.000100279
0.000145181
0.000204974
0.000216655
0.000104306
0.000215931
0.000103971
0.000145664
0.000100119
5.08127e-05
0.000100156
5.08212e-05
0.000145334
0.00021674
0.000103903
0.000205001
0.000145417
0.00021656
0.000103811
0.00010009
5.08035e-05
0.000100143
5.08142e-05
0.000145353
0.000205852
0.000104111
0.000216999
0.000104104
0.000216934
0.000145454
0.000100103
5.08312e-05
5.08226e-05
0.00010016
0.000145292
0.000204862
0.000216556
0.000103995
0.000216451
0.000103785
0.000145405
0.000100073
5.08316e-05
5.08168e-05
0.000100147
7.78335e-05
7.78256e-05
0.00018444
7.80185e-05
7.80081e-05
2.39262e-05
2.39325e-05
2.3936e-05
2.39316e-05
0.000184707
7.82675e-05
7.82705e-05
7.80721e-05
7.80625e-05
2.39378e-05
2.39332e-05
0.000145085
0.000216017
0.000103831
0.000204773
0.000145126
0.000215808
0.000103768
0.000100001
5.08108e-05
9.99844e-05
5.08269e-05
9.99892e-05
5.08021e-05
0.000100009
5.08141e-05
0.000145115
0.00020502
0.000216582
0.000104303
0.000216005
0.00010395
0.000145563
0.000145096
0.000204658
0.000216241
0.000104064
0.000215814
0.000103765
0.000145496
0.000100022
5.08415e-05
5.08298e-05
0.00010025
0.000100002
5.08319e-05
5.0817e-05
0.000100219
2.39226e-05
2.3928e-05
2.39222e-05
2.39278e-05
0.000184382
7.80516e-05
7.80939e-05
7.7861e-05
7.78915e-05
2.39351e-05
2.39289e-05
2.39346e-05
2.39287e-05
2.39382e-05
2.39423e-05
2.39359e-05
2.39395e-05
7.81167e-05
7.8162e-05
0.000186056
7.82363e-05
7.82653e-05
2.39456e-05
2.39426e-05
2.39425e-05
2.39397e-05
0.000186265
7.82756e-05
7.82815e-05
7.82512e-05
7.82741e-05
0.000100318
5.08305e-05
0.000100204
5.08397e-05
0.000145826
0.000104096
0.000217151
0.00020636
0.000145547
0.000104331
0.000217644
0.000145797
0.000104094
0.000217341
0.000206109
0.000145565
0.000104164
0.000217638
0.00010035
5.08555e-05
5.08511e-05
0.000100443
0.000100336
5.08488e-05
5.08413e-05
0.000100439
0.00014587
0.000206941
0.000104443
0.000218872
0.000104351
0.000218237
0.000146159
0.000145836
0.000206431
0.00010433
0.000218615
0.000104175
0.00021807
0.000146129
7.80669e-05
7.80784e-05
0.00018577
7.81153e-05
7.81354e-05
2.39347e-05
2.39391e-05
2.39421e-05
2.39384e-05
0.000185783
7.81923e-05
7.82283e-05
7.81311e-05
7.81528e-05
2.39432e-05
2.39396e-05
0.000146112
0.000104172
0.000217169
0.000206513
0.0001457
0.000104384
0.000218006
0.000100452
5.08377e-05
0.000100307
5.08422e-05
0.000146156
0.000217486
0.000104353
0.000207203
0.000145746
0.000218326
0.000104564
0.000100447
5.08496e-05
5.08454e-05
0.000100497
0.00014615
0.000207182
0.000104456
0.000219631
0.000104397
0.000218849
0.00014634
0.000100461
5.08437e-05
5.08424e-05
0.00010051
0.000146194
0.000207858
0.00021989
0.000104617
0.000219144
0.000104573
0.000146374
0.000100332
5.08328e-05
0.000100176
5.08421e-05
0.000145821
0.00021692
0.000104055
0.000206185
0.000145445
0.000217458
0.000104353
0.000100345
5.0834e-05
0.000100169
5.08437e-05