/*--------------------------------*- C++ -*----------------------------------*\
| =========                 |                                                 |
| \\      /  F ield         | OpenFOAM: The Open Source CFD Toolbox           |
|  \\    /   O peration     | Version:  v2006                                 |
|   \\  /    A nd           | Website:  www.openfoam.com                      |
|    \\/     M anipulation  |                                                 |
\*---------------------------------------------------------------------------*/
FoamFile
{
    version     2.0;
    format      ascii;
    class       volScalarField;
    location    "625";
    object      p;
}
// * * * * * * * * * * * * * * * * * * * * * * * * * * * * * * * * * * * * * //

dimensions      [0 2 -2 0 0 0 0];


internalField   nonuniform List<scalar> 
42616
(
0.000713984
0.0007139
0.000713859
0.000715921
0.000678407
0.000678354
0.000678291
0.000680329
0.000642767
0.000642723
0.000642745
0.000644729
0.000607223
0.000607145
0.000607214
0.000609207
0.000571703
0.000571621
0.000571601
0.000573654
0.00053604
0.000536
0.000535934
0.000537964
0.000500361
0.000500291
0.000500334
0.000502341
0.00046464
0.00046459
0.00046461
0.000466646
0.000428826
0.000428808
0.000428763
0.000430813
0.000393015
0.000392953
0.000393
0.000395019
0.000357318
0.000357249
0.000357249
0.000359286
0.000321536
0.000321528
0.000321441
0.000323497
0.00028559
0.000285491
0.000285573
0.000287586
0.000249428
0.000249442
0.000249463
0.000251518
0.000213378
0.00021349
0.00021342
0.000215537
0.000178149
0.00017781
0.000177928
0.000179839
0.000141452
0.00014148
0.000141139
0.000143232
0.000104364
0.000104825
0.000105259
0.000107435
7.11092e-05
7.04672e-05
7.0805e-05
7.23725e-05
3.4328e-05
3.38936e-05
3.30234e-05
3.53283e-05
3.35349e-06
4.46652e-06
4.31227e-06
2.49565e-06
0.000720723
0.000722774
0.00072275
0.000720722
0.000722771
0.000722743
0.000722754
0.000722787
0.000720692
0.000722747
0.000722785
0.000720739
0.000715898
0.000685144
0.000713903
0.000713895
0.000687215
0.000687252
0.000715911
0.000685194
0.00071389
0.000713853
0.000687191
0.000687175
0.000713925
0.00068726
0.000687248
0.000715867
0.000685131
0.000713912
0.000687181
0.000687223
0.000685169
0.000680309
0.000649582
0.000678309
0.000678348
0.000651614
0.000651634
0.000680355
0.000649584
0.000678291
0.000678286
0.000651616
0.000651635
0.000678332
0.000651627
0.000651594
0.000680302
0.000649595
0.000678312
0.000651629
0.000651598
0.000649559
0.000644754
0.000614058
0.000642724
0.000642733
0.000616074
0.000616043
0.000644748
0.000614008
0.000642731
0.000642754
0.000616091
0.000616106
0.000642694
0.000616032
0.00061604
0.000644768
0.000614074
0.000642702
0.000616095
0.000616056
0.000614026
0.00060923
0.00057847
0.000607193
0.000607152
0.000580525
0.000580496
0.000609179
0.000578466
0.000607211
0.00060722
0.000580528
0.000580511
0.00060717
0.000580503
0.000580547
0.000609246
0.000578457
0.000607187
0.000580518
0.00058055
0.000578497
0.000573627
0.000542811
0.00057162
0.000571613
0.000544877
0.000544921
0.000573637
0.000542861
0.000571613
0.000571593
0.000544854
0.000544842
0.000571648
0.000544922
0.000544878
0.000573613
0.000542793
0.000571639
0.000544843
0.000544855
0.000542807
0.00053797
0.000507191
0.000535963
0.000536002
0.000509226
0.000509219
0.00053801
0.000507171
0.000535945
0.000535936
0.000509233
0.000509237
0.000535955
0.000509216
0.000509214
0.000537952
0.0005072
0.000535937
0.000509234
0.000509219
0.000507179
0.000502345
0.000471474
0.000500311
0.000500292
0.000473523
0.000473511
0.000502322
0.000471471
0.000500323
0.000500335
0.000473537
0.00047356
0.000500306
0.000473517
0.000473551
0.000502363
0.000471509
0.000500318
0.000473565
0.000473563
0.00047151
0.000466609
0.000435673
0.000464577
0.000464582
0.00043773
0.000437762
0.000466618
0.000435705
0.000464583
0.000464603
0.000437718
0.000437717
0.00046461
0.000437766
0.000437741
0.000466638
0.000435661
0.000464615
0.00043772
0.000437729
0.000435676
0.000430807
0.000399901
0.00042878
0.000428808
0.000401938
0.000401916
0.000430832
0.00039987
0.000428766
0.000428761
0.000401943
0.000401938
0.000428786
0.000401911
0.000401922
0.000430795
0.000399898
0.000428774
0.000401932
0.000401927
0.000399882
0.000395041
0.000364183
0.000392994
0.000392961
0.000366216
0.000366165
0.000395004
0.000364135
0.000393007
0.000393008
0.000366222
0.000366204
0.000392971
0.000366152
0.000366165
0.000395043
0.000364162
0.000392984
0.000366192
0.000366172
0.000364135
0.000359329
0.000328342
0.000357294
0.00035726
0.000330433
0.000330488
0.000359292
0.00032843
0.00035729
0.000357261
0.000330409
0.000330387
0.000357247
0.000330497
0.000330448
0.0003593
0.00032833
0.000357243
0.000330395
0.000330422
0.000328373
0.00032346
0.000292413
0.000321446
0.000321514
0.00029448
0.000294499
0.000323547
0.000292426
0.000321428
0.000321428
0.000294495
0.000294539
0.00032148
0.000294506
0.000294525
0.000323463
0.000292483
0.00032146
0.000294547
0.000294539
0.000292465
0.000287531
0.00025642
0.000285495
0.000285485
0.000258457
0.000258441
0.000287526
0.000256372
0.000285519
0.000285567
0.000258473
0.000258521
0.000285543
0.000258443
0.000258498
0.000287604
0.000256446
0.000285565
0.000258526
0.000258516
0.000256442
0.000251506
0.000220381
0.000249422
0.000249436
0.000222409
0.000222446
0.000251481
0.000220448
0.000249422
0.000249458
0.00022237
0.000222308
0.00024946
0.000222462
0.000222426
0.000251515
0.000220306
0.000249458
0.000222328
0.000222395
0.000220377
0.000215518
0.0001849
0.000213457
0.000213471
0.000186933
0.000186775
0.000215563
0.000184728
0.000213441
0.000213393
0.000186921
0.00018691
0.000213505
0.000186718
0.000186772
0.000215471
0.000184872
0.000213497
0.000186857
0.00018682
0.000184755
0.000180087
0.000148419
0.000178084
0.000177897
0.000150663
0.000150766
0.000179893
0.000148509
0.00017811
0.000178015
0.00015057
0.000150444
0.000177779
0.00015069
0.00015037
0.000180015
0.000148221
0.000177817
0.000150376
0.000150278
0.000148199
0.00014329
0.000111332
0.000141241
0.000141473
0.000113171
0.000113524
0.000143446
0.000111655
0.000141134
0.000141122
0.000113217
0.000113657
0.000141239
0.000113794
0.00011418
0.000143163
0.000111908
0.000141132
0.000113944
0.000114222
0.000112286
0.00010666
7.79047e-05
0.000104488
0.000104598
7.97078e-05
7.92036e-05
0.000106811
7.72965e-05
0.000104606
0.000105025
7.98595e-05
7.97568e-05
0.000105317
7.90151e-05
7.91001e-05
0.000107197
7.77652e-05
0.000105437
7.95648e-05
7.92591e-05
7.72031e-05
7.31522e-05
4.06064e-05
7.12312e-05
7.0717e-05
4.33409e-05
4.35258e-05
7.25732e-05
4.1004e-05
7.1329e-05
7.10937e-05
4.31404e-05
4.28093e-05
7.03303e-05
4.3451e-05
4.31451e-05
7.29328e-05
4.02692e-05
7.04093e-05
4.27652e-05
4.29307e-05
4.06303e-05
3.49894e-05
5.19337e-06
3.31918e-05
3.3757e-05
8.04881e-06
8.83285e-06
3.55731e-05
5.77859e-06
3.29471e-05
3.28694e-05
7.89998e-06
8.26256e-06
3.37483e-05
9.10031e-06
8.87519e-06
3.48019e-05
5.51964e-06
3.34889e-05
8.52524e-06
8.70688e-06
5.67749e-06
2.4342e-06
4.12016e-06
4.46244e-06
2.55337e-06
4.15752e-06
4.2845e-06
3.63474e-06
3.44518e-06
3.45446e-06
4.39994e-06
2.57758e-06
4.45846e-06
0.000722844
0.000722799
0.000722857
0.000722845
0.000702768
0.000716061
0.000716072
0.000702751
0.000716085
0.000702788
0.000702718
0.00071603
0.000716024
0.000702719
0.000713949
0.000713969
0.000713994
0.000687315
0.000687347
0.000687275
0.000687351
0.00070286
0.00071606
0.000713926
0.000705035
0.000716043
0.000702823
0.000705064
0.000715997
0.000702712
0.000702799
0.000713912
0.000715982
0.000704967
0.000715999
0.000705021
0.000702747
0.000716085
0.000716071
0.000702975
0.000702752
0.000702739
0.000667214
0.000680513
0.000680513
0.000667214
0.000680545
0.000667236
0.000667211
0.000680496
0.000680488
0.000667214
0.000678448
0.000678369
0.000678442
0.00065167
0.000651701
0.00065167
0.000651676
0.000667253
0.0006805
0.000678388
0.000669443
0.000680471
0.000667241
0.000669473
0.000680525
0.000667261
0.000667246
0.000678324
0.000680469
0.000669401
0.000680437
0.000669425
0.000667247
0.000680488
0.000680482
0.000667353
0.000667168
0.000667169
0.000631675
0.000644998
0.000644973
0.000631699
0.000644981
0.000631659
0.000631725
0.000645025
0.000645012
0.000631731
0.000642789
0.000642774
0.000642758
0.000616099
0.000616091
0.000616125
0.000616064
0.000631677
0.000644917
0.000642736
0.000633821
0.000644875
0.000631662
0.000633833
0.000645057
0.000631744
0.000631724
0.000642743
0.000644977
0.00063386
0.000644908
0.000633852
0.000631734
0.00064495
0.000644963
0.000631779
0.000631666
0.000631681
0.000596093
0.000609438
0.000609412
0.000596102
0.00060939
0.000596089
0.000596096
0.00060946
0.000609445
0.000596103
0.000607198
0.000607256
0.000607189
0.000580602
0.000580539
0.000580607
0.000580601
0.00059614
0.000609349
0.00060716
0.000598261
0.00060933
0.000596107
0.000598281
0.000609426
0.000596063
0.000596161
0.000607214
0.000609394
0.000598324
0.000609368
0.000598338
0.000596108
0.000609454
0.000609463
0.00059628
0.000596125
0.000596124
0.000560487
0.000573806
0.000573813
0.000560475
0.000573845
0.000560514
0.000560436
0.000573778
0.000573769
0.000560442
0.000571662
0.000571695
0.000571722
0.000544962
0.000545
0.00054493
0.000544969
0.000560554
0.000573804
0.000571645
0.000562733
0.000573778
0.000560535
0.000562755
0.000573754
0.000560437
0.000560496
0.000571647
0.000573732
0.00056268
0.000573739
0.000562726
0.000560458
0.0005738
0.000573786
0.000560654
0.000560446
0.000560432
0.000524855
0.000538199
0.000538189
0.000524866
0.000538206
0.000524861
0.000524867
0.000538183
0.000538168
0.000524874
0.000536086
0.000536007
0.000536038
0.000509278
0.000509288
0.000509268
0.000509262
0.000524893
0.00053816
0.000536018
0.000527071
0.000538127
0.000524873
0.000527091
0.000538204
0.000524904
0.00052489
0.000535957
0.000538138
0.000527029
0.000538095
0.000527047
0.000524895
0.000538175
0.000538171
0.000524987
0.000524852
0.000524858
0.000489181
0.000502555
0.00050254
0.000489181
0.000502543
0.000489185
0.000489217
0.000502587
0.000502585
0.000489205
0.000500349
0.00050036
0.000500346
0.000473584
0.00047355
0.000473603
0.000473591
0.000489236
0.000502501
0.000500312
0.000491366
0.000502474
0.000489207
0.000491386
0.000502605
0.000489217
0.00048928
0.000500333
0.00050256
0.000491425
0.000502517
0.000491426
0.000489255
0.000502581
0.000502595
0.000489367
0.000489213
0.000489221
0.000453419
0.000466801
0.000466805
0.000453411
0.000466831
0.000453445
0.000453388
0.000466791
0.000466789
0.00045339
0.000464624
0.000464666
0.00046466
0.000437781
0.000437825
0.00043779
0.000437809
0.000453482
0.000466795
0.000464608
0.000455656
0.00046677
0.000453464
0.000455674
0.000466794
0.000453396
0.000453456
0.000464636
0.000466773
0.000455646
0.000466766
0.000455678
0.000453422
0.000466817
0.000466809
0.00045359
0.000453402
0.000453391
0.000417643
0.000431043
0.000431027
0.00041767
0.000431032
0.000417623
0.000417664
0.000431037
0.000431015
0.00041768
0.000428875
0.000428827
0.000428849
0.000401961
0.000401965
0.000401968
0.000401968
0.000417668
0.000430991
0.000428824
0.000419842
0.000430964
0.000417639
0.000419861
0.000431041
0.000417677
0.000417668
0.000428789
0.000430979
0.000419811
0.000430942
0.000419831
0.000417666
0.000431019
0.00043102
0.000417775
0.000417633
0.000417642
0.000381908
0.000395318
0.000395271
0.000381944
0.000395261
0.000381921
0.000381925
0.000395339
0.000395306
0.00038195
0.000392995
0.000393027
0.000393009
0.000366232
0.000366168
0.000366222
0.000366184
0.000381889
0.000395188
0.000392968
0.000384004
0.000395158
0.000381889
0.000384016
0.000395308
0.000381909
0.000381923
0.000393
0.000395243
0.000384067
0.000395194
0.000384063
0.000381912
0.000395268
0.000395277
0.000381997
0.00038188
0.000381883
0.000346136
0.000359543
0.000359543
0.000346096
0.000359581
0.000346156
0.000346079
0.000359515
0.000359503
0.00034607
0.000357259
0.000357289
0.000357263
0.000330515
0.000330532
0.000330456
0.000330492
0.000346197
0.000359513
0.000357243
0.000348343
0.000359449
0.000346194
0.000348335
0.000359482
0.000346072
0.000346138
0.000357252
0.000359444
0.0003483
0.000359425
0.000348312
0.000346101
0.000359519
0.000359508
0.000346283
0.000346117
0.000346101
0.000310198
0.000323634
0.000323644
0.000310195
0.00032366
0.000310203
0.000310229
0.00032363
0.00032364
0.000310212
0.000321592
0.000321494
0.000321538
0.000294567
0.000294597
0.000294597
0.000294599
0.000310294
0.000323653
0.000321539
0.000312529
0.000323653
0.000310247
0.000312556
0.000323676
0.000310281
0.000310311
0.000321466
0.000323646
0.000312483
0.000323618
0.000312505
0.000310299
0.000323669
0.000323673
0.000310416
0.00031022
0.000310241
0.000274224
0.000287688
0.000287688
0.000274202
0.000287692
0.000274224
0.000274251
0.000287728
0.000287734
0.000274225
0.000285572
0.000285622
0.000285619
0.000258514
0.000258499
0.000258586
0.000258557
0.000274305
0.000287673
0.000285533
0.00027647
0.000287665
0.000274261
0.000276513
0.000287798
0.000274267
0.000274368
0.000285592
0.000287768
0.00027658
0.00028773
0.000276599
0.000274326
0.000287766
0.000287776
0.00027449
0.000274288
0.000274286
0.000238339
0.000251745
0.000251728
0.000238406
0.000251752
0.000238371
0.000238302
0.000251707
0.000251681
0.000238378
0.000249479
0.000249508
0.000249492
0.000222333
0.000222436
0.000222335
0.000222403
0.000238343
0.000251705
0.000249458
0.000240439
0.000251679
0.000238357
0.000240435
0.000251667
0.000238294
0.000238264
0.000249473
0.000251653
0.000240387
0.000251661
0.000240396
0.000238264
0.000251752
0.00025173
0.000238345
0.000238337
0.000238333
0.000202676
0.000216184
0.000216031
0.000202776
0.000216029
0.00020261
0.000202736
0.000216216
0.000216101
0.000202822
0.000213462
0.000213396
0.000213498
0.000187016
0.00018672
0.000186887
0.000186812
0.000202486
0.000215892
0.000213477
0.000204545
0.000215783
0.000202521
0.000204541
0.000216112
0.000202667
0.000202555
0.000213423
0.00021593
0.00020457
0.000215773
0.000204568
0.000202591
0.000215983
0.000216032
0.000202609
0.000202481
0.000202504
0.000166161
0.000179843
0.000180002
0.000165892
0.00017993
0.000166179
0.000165925
0.000179743
0.000179848
0.000165739
0.000177847
0.000177956
0.000177841
0.000150924
0.000150894
0.00015056
0.000150442
0.000166391
0.000179844
0.000177805
0.000168856
0.000179853
0.000166291
0.00016883
0.000179653
0.000165799
0.000166255
0.00017791
0.000179702
0.000168859
0.000179851
0.000168865
0.000166024
0.000179558
0.00017949
0.000166554
0.000165929
0.000165806
0.000129522
0.000142833
0.000143027
0.000129614
0.000143235
0.000129769
0.000129706
0.000142808
0.000142942
0.000129815
0.000141681
0.000141244
0.000141279
0.000113258
0.000113769
0.000113754
0.000114105
0.000130053
0.00014346
0.000141479
0.000132212
0.000143513
0.000130049
0.000132229
0.000143302
0.00013031
0.00013007
0.00014116
0.000143342
0.000131898
0.000143302
0.000131913
0.000130327
0.000143609
0.000143606
0.000130009
0.000130518
0.000130612
9.53294e-05
0.00010853
0.000108091
9.56765e-05
0.000108197
9.51546e-05
9.5665e-05
0.000108853
0.000108551
9.58783e-05
0.000104734
0.00010498
0.000105228
7.95653e-05
7.89504e-05
7.95553e-05
7.90573e-05
9.4583e-05
0.000107779
0.000104908
9.60506e-05
0.000107599
9.47916e-05
9.60969e-05
0.000108865
9.54907e-05
9.50279e-05
0.000105194
0.000108391
9.67263e-05
0.000108012
9.66183e-05
9.52251e-05
0.000108374
0.0001085
9.47452e-05
9.49921e-05
9.50544e-05
5.81753e-05
7.24623e-05
7.28704e-05
5.773e-05
7.23425e-05
5.77087e-05
5.77003e-05
7.22487e-05
7.25566e-05
5.73672e-05
7.04778e-05
7.08761e-05
7.03695e-05
4.40444e-05
4.39759e-05
4.35734e-05
4.37404e-05
5.88554e-05
7.23014e-05
7.0378e-05
6.17507e-05
7.24597e-05
5.84768e-05
6.17112e-05
7.1746e-05
5.67438e-05
5.84438e-05
7.07508e-05
7.19159e-05
6.16769e-05
7.23687e-05
6.17909e-05
5.77226e-05
7.1941e-05
7.18327e-05
5.92356e-05
5.78865e-05
5.77449e-05
1.9563e-05
3.32999e-05
3.36693e-05
1.92667e-05
3.42289e-05
1.92276e-05
1.9309e-05
3.29803e-05
3.31787e-05
1.9172e-05
3.47682e-05
3.40561e-05
3.47054e-05
8.45703e-06
9.26762e-06
8.65251e-06
9.21917e-06
2.062e-05
3.42291e-05
3.44112e-05
2.44212e-05
3.4988e-05
2.01112e-05
2.50085e-05
3.3559e-05
1.91853e-05
2.0191e-05
3.37164e-05
3.35496e-05
2.364e-05
3.43797e-05
2.43011e-05
1.97945e-05
3.3587e-05
3.35474e-05
2.1644e-05
1.95933e-05
1.95998e-05
3.43807e-06
4.47126e-06
3.39272e-06
3.7236e-07
1.79148e-06
-3.09773e-06
3.59193e-06
4.59645e-06
3.60776e-06
4.03238e-07
-2.76343e-07
4.7037e-06
4.55836e-06
5.62001e-06
5.52506e-06
2.4231e-06
2.46999e-06
1.26617e-06
2.54643e-06
3.86998e-06
-7.73978e-09
3.18468e-06
5.3854e-06
-3.61812e-06
2.19019e-06
-2.91661e-06
1.46541e-06
3.81086e-06
2.92227e-06
8.28111e-08
3.40892e-06
-3.31695e-06
5.54648e-06
1.0977e-07
1.82788e-07
-3.41424e-07
3.57633e-06
3.59802e-06
0.000720522
0.000733836
0.000720504
0.000733826
0.000733645
0.000720512
0.0007205
0.000733834
0.000733828
0.000733824
0.00072053
0.000733836
0.000720543
0.000733821
0.000720546
0.000733825
0.000720545
0.000733761
0.000731633
0.000720559
0.000722783
0.000733795
0.000731637
0.000720601
0.000733757
0.000731601
0.000720571
0.000722773
0.00073378
0.000731624
0.0007206
0.000720549
0.000733826
0.000733623
0.000720541
0.000720548
0.000733819
0.000733825
0.00072056
0.000733834
0.00073381
0.000720503
0.000733825
0.000720502
0.000733762
0.00073164
0.000720539
0.000722793
0.000733793
0.000731664
0.000720572
0.000733804
0.000720472
0.000733782
0.000720497
0.000733758
0.000731629
0.000722787
0.000720502
0.000731666
0.00073375
0.000720566
0.000733767
0.000731604
0.00072058
0.000722779
0.000733787
0.000731629
0.000720613
0.000733836
0.000720559
0.000733836
0.000720564
0.000733773
0.000731642
0.000722792
0.000720591
0.000731641
0.000733821
0.000720617
0.000733842
0.000720566
0.000733868
0.000720565
0.000720464
0.000733767
0.00073364
0.000720454
0.00072046
0.000733765
0.000733769
0.000720473
0.000733774
0.000733769
0.000731633
0.000722795
0.00072051
0.000731672
0.000733757
0.00072058
0.000733774
0.000731649
0.000722804
0.000720569
0.00073167
0.000733818
0.000720589
0.000733818
0.000720484
0.000733791
0.000720514
0.000733828
0.000720536
0.000733857
0.000720523
0.000733655
0.000720552
0.000720539
0.000733869
0.000733863
0.000720562
0.000733875
0.000720543
0.000733864
0.000716049
0.00070274
0.00071603
0.000702721
0.000716045
0.000716032
0.000702945
0.000702726
0.000702713
0.000684972
0.000698269
0.00068496
0.000698253
0.000698111
0.000684957
0.000684948
0.000698263
0.000698251
0.000702774
0.000716083
0.000716075
0.000702781
0.000702836
0.000716029
0.000713922
0.000705017
0.000716028
0.000702776
0.00070505
0.000702841
0.000716049
0.000713916
0.000705028
0.000716028
0.000702811
0.00070505
0.000698292
0.00068498
0.000698284
0.000684988
0.000698298
0.000685008
0.000698314
0.000684993
0.000698252
0.000696119
0.000684998
0.000687266
0.000698245
0.000696164
0.000685043
0.000698257
0.000696147
0.000685029
0.000687277
0.00069828
0.00069617
0.000685049
0.000716084
0.000716092
0.000702983
0.000702781
0.000702787
0.000716095
0.000702795
0.000685015
0.00069832
0.000698156
0.000685004
0.000685004
0.000698318
0.000698323
0.000685015
0.000698325
0.000702784
0.000716005
0.000713914
0.000704996
0.000715989
0.000702747
0.000705023
0.000702717
0.000716006
0.000716019
0.000702711
0.00070278
0.000713901
0.000715973
0.00070496
0.000715983
0.000705008
0.000702736
0.000698245
0.000684957
0.000698253
0.000684956
0.000698201
0.000696095
0.000684976
0.000687222
0.000698217
0.000696125
0.000685008
0.000698245
0.000684968
0.00069825
0.000684959
0.000698199
0.000696067
0.000687209
0.000684986
0.000696109
0.000698212
0.000685008
0.000702794
0.000716097
0.000716096
0.000702793
0.000702859
0.000713937
0.000716061
0.000705048
0.000716045
0.000705072
0.000702805
0.000702791
0.000716096
0.000716095
0.000702774
0.000698277
0.000696155
0.000685034
0.000687294
0.000698291
0.000696187
0.000685061
0.000698316
0.000685011
0.000698324
0.000684998
0.000698275
0.000696156
0.000687294
0.000685003
0.000696192
0.000698269
0.000685057
0.000698312
0.000684978
0.000698301
0.000684993
0.000715994
0.000716001
0.000702911
0.000702701
0.000702707
0.000716006
0.00070272
0.000684982
0.000698251
0.000698082
0.000684967
0.000684968
0.000698247
0.000698253
0.000684983
0.000698258
0.000702806
0.00071393
0.000716036
0.000705028
0.000716008
0.000705046
0.000702774
0.000702735
0.000716018
0.000716038
0.000702723
0.000702738
0.000716063
0.000716046
0.000702741
0.000698215
0.000696074
0.000687225
0.000684992
0.000696126
0.000698223
0.000685018
0.000698222
0.00069613
0.000687247
0.000684983
0.000696151
0.00069824
0.000685019
0.000698261
0.000684974
0.000698262
0.000684966
0.000698263
0.00068496
0.00069827
0.000684964
0.000716088
0.000702763
0.000716067
0.000702745
0.000698144
0.000684954
0.000684947
0.000698284
0.000698271
0.000684968
0.000698287
0.000684958
0.000698271
0.000680505
0.000667217
0.000680497
0.000667219
0.000680498
0.000680491
0.000667357
0.0006672
0.000667201
0.000649471
0.000662754
0.000649487
0.00066276
0.000662527
0.000649456
0.000649467
0.000662745
0.000662748
0.000667217
0.00068054
0.000680518
0.00066723
0.000667257
0.000680469
0.00067836
0.000669407
0.000680458
0.000667228
0.000669452
0.000667261
0.000680497
0.000678373
0.000669441
0.000680464
0.000667245
0.000669464
0.000662741
0.00064946
0.000662751
0.000649445
0.000662742
0.000649453
0.000662761
0.000649444
0.000662676
0.000660509
0.000649471
0.000651642
0.000662703
0.000660546
0.000649481
0.000662679
0.000660536
0.000649465
0.00065165
0.000662712
0.000660556
0.000649482
0.00068054
0.000680539
0.000667384
0.000667222
0.000667217
0.000680543
0.000667229
0.000649454
0.000662765
0.000662545
0.000649438
0.000649429
0.000662757
0.000662751
0.000649442
0.000662756
0.00066725
0.000680451
0.00067832
0.000669396
0.00068043
0.000667224
0.000669421
0.000667215
0.000680511
0.000680491
0.000667245
0.000667252
0.000678311
0.000680465
0.000669399
0.000680432
0.000669419
0.000667253
0.000662747
0.000649484
0.000662758
0.000649477
0.000662675
0.000660505
0.000649487
0.000651637
0.000662704
0.000660528
0.000649503
0.000662751
0.000649513
0.00066279
0.000649482
0.000662678
0.000660515
0.000651641
0.000649517
0.000660529
0.000662735
0.000649507
0.000667204
0.000680541
0.000680519
0.000667222
0.000667248
0.000678383
0.000680468
0.000669414
0.000680466
0.000669466
0.000667208
0.000667199
0.000680507
0.000680514
0.000667189
0.000662666
0.000660534
0.000649449
0.000651644
0.000662707
0.000660557
0.000649458
0.000662726
0.000649433
0.00066275
0.000649416
0.000662661
0.000660501
0.000651633
0.000649427
0.000660548
0.000662675
0.000649453
0.000662721
0.000649414
0.000662719
0.000649412
0.000680516
0.000680516
0.000667357
0.000667245
0.00066724
0.000680524
0.000667254
0.000649523
0.000662804
0.000662528
0.000649504
0.000649496
0.000662794
0.000662787
0.00064951
0.000662794
0.000667242
0.00067834
0.000680451
0.000669403
0.000680437
0.000669432
0.000667204
0.000667204
0.000680514
0.000680495
0.000667236
0.000667197
0.000680492
0.000680492
0.000667189
0.000662669
0.000660514
0.000651637
0.000649501
0.000660531
0.000662727
0.000649484
0.000662663
0.000660498
0.000651629
0.000649443
0.00066053
0.000662677
0.000649477
0.000662735
0.000649492
0.000662777
0.000649452
0.000662727
0.000649436
0.000662725
0.000649443
0.000680493
0.000667183
0.000680487
0.000667184
0.000662518
0.000649405
0.000649415
0.000662706
0.000662709
0.000649421
0.000662713
0.000649436
0.000662718
0.000645007
0.000631713
0.000645025
0.000631734
0.000645
0.000645012
0.000631819
0.000631699
0.000631714
0.000613928
0.000627244
0.000613943
0.000627264
0.000626994
0.000613916
0.000613927
0.000627238
0.000627253
0.00063167
0.000644984
0.000644971
0.000631667
0.000631707
0.000644947
0.000642744
0.000633837
0.0006449
0.000631709
0.000633847
0.000631704
0.000644935
0.000642748
0.000633833
0.0006449
0.000631679
0.00063385
0.0006272
0.000613912
0.000627231
0.000613891
0.000627194
0.000613869
0.000627195
0.000613883
0.000627127
0.000624955
0.000613928
0.000616072
0.000627181
0.000624957
0.000613927
0.000627122
0.000624936
0.000613883
0.000616067
0.000627146
0.000624956
0.000613919
0.000644971
0.000644963
0.00063179
0.000631645
0.000631638
0.000644969
0.000631652
0.000613862
0.000627182
0.000626955
0.000613846
0.000613847
0.000627175
0.000627171
0.000613864
0.000627178
0.000631748
0.000644966
0.000642747
0.000633849
0.00064493
0.000631735
0.000633861
0.000631726
0.000645051
0.000645016
0.000631743
0.000631751
0.000642753
0.000644994
0.000633871
0.000644933
0.00063387
0.000631751
0.00062725
0.000613939
0.000627264
0.00061393
0.000627169
0.00062497
0.000613953
0.000616102
0.000627208
0.000624981
0.000613966
0.00062725
0.000613921
0.000627269
0.000613927
0.00062717
0.000624989
0.000616111
0.000613941
0.00062499
0.000627217
0.000613965
0.000631643
0.000644964
0.000644942
0.000631649
0.000631675
0.000642724
0.000644902
0.0006338
0.000644871
0.000633823
0.000631672
0.000631644
0.000644952
0.000644938
0.000631665
0.000627097
0.000624924
0.000613878
0.000616044
0.00062713
0.000624935
0.000613908
0.000627171
0.000613867
0.000627179
0.000613877
0.000627097
0.000624915
0.000616039
0.00061392
0.000624927
0.00062715
0.000613912
0.000627173
0.000613912
0.000627204
0.000613883
0.000645046
0.000645037
0.000631838
0.000631727
0.000631721
0.000645044
0.000631735
0.000613915
0.000627265
0.000627012
0.000613904
0.000613904
0.000627257
0.000627252
0.000613916
0.000627259
0.000631717
0.000642732
0.000644921
0.000633811
0.0006449
0.000633838
0.000631699
0.000631699
0.00064503
0.000644984
0.000631726
0.000631693
0.000644978
0.000644976
0.000631698
0.000627145
0.000624977
0.000616089
0.000613934
0.000624968
0.000627202
0.000613951
0.000627139
0.000624929
0.00061607
0.000613943
0.000624949
0.000627177
0.000613949
0.000627227
0.000613918
0.000627254
0.00061392
0.000627223
0.000613937
0.000627237
0.000613922
0.000644959
0.000631681
0.000644976
0.000631703
0.000626954
0.000613916
0.000613927
0.000627212
0.000627227
0.000613931
0.00062722
0.000613944
0.000627241
0.000609451
0.000596109
0.000609461
0.000596105
0.000609447
0.000609456
0.000596281
0.000596099
0.000596098
0.000578279
0.000591625
0.000578261
0.000591616
0.000591444
0.000578267
0.000578254
0.000591622
0.000591617
0.000596088
0.000609396
0.000609404
0.000596085
0.000596137
0.000609394
0.00060719
0.00059831
0.000609343
0.000596124
0.000598309
0.000596131
0.000609349
0.000607179
0.000598263
0.000609335
0.000596099
0.000598292
0.000591613
0.000578284
0.000591623
0.000578294
0.00059161
0.000578308
0.000591618
0.000578297
0.000591554
0.000589422
0.000578309
0.000580533
0.000591584
0.000589423
0.000578347
0.000591549
0.000589378
0.000578327
0.000580519
0.000591571
0.000589405
0.000578346
0.000609381
0.000609384
0.000596234
0.000596074
0.000596078
0.000609393
0.000596096
0.000578319
0.000591623
0.00059141
0.000578307
0.00057831
0.000591615
0.00059162
0.000578324
0.00059163
0.000596155
0.000609416
0.000607224
0.000598326
0.000609378
0.000596132
0.000598343
0.000596092
0.000609435
0.000609441
0.000596069
0.000596152
0.000607233
0.000609396
0.000598326
0.000609377
0.000598349
0.0005961
0.000591606
0.000578259
0.000591617
0.000578257
0.000591563
0.000589432
0.000578291
0.000580553
0.000591586
0.000589454
0.000578324
0.0005916
0.000578238
0.000591584
0.000578253
0.000591559
0.000589423
0.000580549
0.000578266
0.000589455
0.000591555
0.00057832
0.000596104
0.000609399
0.000609405
0.000596095
0.000596147
0.000607162
0.000609394
0.000598301
0.000609336
0.000598291
0.000596145
0.00059611
0.000609445
0.000609412
0.000596126
0.00059156
0.000589381
0.000578336
0.000580527
0.00059158
0.000589404
0.000578362
0.000591628
0.000578317
0.000591629
0.00057831
0.000591567
0.000589429
0.000580545
0.000578327
0.00058942
0.000591611
0.000578365
0.000591634
0.000578297
0.000591649
0.00057831
0.000609423
0.000609425
0.000596279
0.000596054
0.000596059
0.000609429
0.00059607
0.000578233
0.000591576
0.000591441
0.000578223
0.000578226
0.000591575
0.00059158
0.000578237
0.000591583
0.000596164
0.000607197
0.000609415
0.000598316
0.000609368
0.000598327
0.000596154
0.000596108
0.000609436
0.000609441
0.000596078
0.000596115
0.000609466
0.000609444
0.000596128
0.000591574
0.000589427
0.000580556
0.000578274
0.000589453
0.000591564
0.000578337
0.000591578
0.000589439
0.000580565
0.000578309
0.000589451
0.000591612
0.000578343
0.000591619
0.000578245
0.000591594
0.000578266
0.000591626
0.000578272
0.000591642
0.000578271
0.000609461
0.000596135
0.000609471
0.00059613
0.000591455
0.000578281
0.000578267
0.00059165
0.000591644
0.000578291
0.000591651
0.000578272
0.00059164
0.000573798
0.000560467
0.000573778
0.000560447
0.000573792
0.000573778
0.00056064
0.000560451
0.000560437
0.000542669
0.000555991
0.00054266
0.000555973
0.000555794
0.000542653
0.000542646
0.000555982
0.000555969
0.000560493
0.000573837
0.000573817
0.000560507
0.000560544
0.00057377
0.000571639
0.000562709
0.000573761
0.000560495
0.000562739
0.000560549
0.000573796
0.000571632
0.000562726
0.000573762
0.000560532
0.000562741
0.000556004
0.000542674
0.000556001
0.000542673
0.000556009
0.000542686
0.000556029
0.000542677
0.000555953
0.000553794
0.000542688
0.000544923
0.000555957
0.000553834
0.000542722
0.000555959
0.00055383
0.000542708
0.000544937
0.000555992
0.000553844
0.000542728
0.000573841
0.000573845
0.00056068
0.000560506
0.000560505
0.000573849
0.000560512
0.000542689
0.000556033
0.00055584
0.000542677
0.000542674
0.000556031
0.000556029
0.000542685
0.00055603
0.000560492
0.000573747
0.000571641
0.000562692
0.000573728
0.000560465
0.00056272
0.000560435
0.00057376
0.000573765
0.000560435
0.00056049
0.000571634
0.000573725
0.000562672
0.000573725
0.000562712
0.000560455
0.000555955
0.000542652
0.000555969
0.000542643
0.000555901
0.00055377
0.000542665
0.000544879
0.000555927
0.000553798
0.000542684
0.000555954
0.000542659
0.000555966
0.000542644
0.000555899
0.000553754
0.000544871
0.000542668
0.000553789
0.000555921
0.000542684
0.000560494
0.000573844
0.000573829
0.000560508
0.00056055
0.000571659
0.000573782
0.000562731
0.000573779
0.00056276
0.000560494
0.000560488
0.000573815
0.000573826
0.000560473