/*--------------------------------*- C++ -*----------------------------------*\
| =========                 |                                                 |
| \\      /  F ield         | OpenFOAM: The Open Source CFD Toolbox           |
|  \\    /   O peration     | Version:  v2006                                 |
|   \\  /    A nd           | Website:  www.openfoam.com                      |
|    \\/     M anipulation  |                                                 |
\*---------------------------------------------------------------------------*/
FoamFile
{
    version     2.0;
    format      ascii;
    class       surfaceScalarField;
    location    "625";
    object      phi;
}
// * * * * * * * * * * * * * * * * * * * * * * * * * * * * * * * * * * * * * //

dimensions      [0 3 -1 0 0 0 0];
oriented        oriented;


internalField   nonuniform List<scalar> 
123728
(
1.31999e-07
1.0114e-07
-0.00118375
-2.89842e-08
-1.0008e-07
0.00118364
-0.00113208
-1.17955e-06
-1.38493e-07
-8.43083e-08
0.00113208
-2.00641e-07
1.2343e-06
2.48547e-07
8.89753e-07
-1.77894e-07
-8.25647e-07
2.36434e-07
-0.00113185
-1.17936e-06
-1.04874e-07
-7.21997e-08
0.00113184
-2.02269e-07
1.22883e-06
2.46893e-07
8.77794e-07
-1.81255e-07
-8.26557e-07
2.27614e-07
-0.000270073
1.21494e-06
1.17383e-06
-1.89551e-07
-1.97189e-07
0.000268071
1.02328e-07
1.5375e-07
-0.00118333
-1.06906e-07
-5.29876e-08
0.00118323
-0.00113204
-1.18143e-06
-1.21847e-07
-5.92779e-08
0.00113202
-2.03487e-07
1.23141e-06
2.44778e-07
8.87017e-07
-1.80273e-07
-8.27846e-07
2.3368e-07
-0.00113188
-1.17382e-06
-1.44132e-07
-1.07224e-07
0.00113191
-1.98672e-07
1.23367e-06
2.49632e-07
8.82255e-07
-1.76748e-07
-8.2237e-07
2.32272e-07
-0.000270061
1.20926e-06
1.183e-06
-1.97436e-07
-1.95994e-07
0.000268063
1.22902e-07
1.5021e-07
-0.00118299
-1.34213e-07
-7.34927e-08
0.00118293
-0.00113193
-1.19069e-06
-1.12552e-07
-1.39049e-08
0.00113189
-2.12564e-07
1.22132e-06
2.35514e-07
8.85924e-07
-1.81124e-07
-8.28758e-07
2.32561e-07
-0.00113193
-1.18467e-06
-1.42328e-07
-3.21333e-08
0.00113191
-2.10078e-07
1.22209e-06
2.38001e-07
8.85895e-07
-1.74198e-07
-8.18599e-07
2.34478e-07
-0.00027008
1.21153e-06
1.16854e-06
-1.86595e-07
-1.98885e-07
0.000268086
1.50143e-07
1.11674e-07
-0.00118273
-7.13411e-08
-1.07233e-07
0.00118264
-0.0011318
-1.18771e-06
-1.2906e-07
-4.03905e-08
0.00113179
-2.07686e-07
1.22573e-06
2.41699e-07
8.85875e-07
-1.8165e-07
-8.28915e-07
2.3229e-07
-0.00113179
-1.18944e-06
-1.16621e-07
3.26728e-09
0.00113173
-2.12223e-07
1.21826e-06
2.36892e-07
8.81668e-07
-1.77654e-07
-8.21964e-07
2.304e-07
-0.000270116
1.21695e-06
1.16083e-06
-1.79978e-07
-2.00545e-07
0.000268119
1.39221e-07
1.00121e-07
-0.00118233
-2.4601e-08
-9.73742e-08
0.00118221
-0.00113182
-1.17636e-06
-1.54541e-07
-9.4191e-08
0.00113183
-1.98027e-07
1.23603e-06
2.4992e-07
8.90787e-07
-1.76524e-07
-8.24248e-07
2.37327e-07
-0.00113162
-1.17801e-06
-1.16642e-07
-6.89556e-08
0.00113161
-2.01226e-07
1.229e-06
2.4699e-07
8.78557e-07
-1.80154e-07
-8.25266e-07
2.28116e-07
-0.000270117
1.21694e-06
1.1723e-06
-1.89264e-07
-1.99647e-07
0.000268117
1.13147e-07
1.68305e-07
-0.00118187
-1.16486e-07
-6.37458e-08
0.00118177
-0.00113179
-1.18577e-06
-1.36386e-07
-2.69774e-08
0.00113177
-2.08001e-07
1.22565e-06
2.39509e-07
8.8898e-07
-1.78215e-07
-8.25319e-07
2.35056e-07
-0.00113163
-1.17653e-06
-1.61034e-07
-7.9619e-08
0.00113164
-2.01783e-07
1.22938e-06
2.45525e-07
8.85722e-07
-1.73471e-07
-8.18432e-07
2.3489e-07
-0.000270127
1.20203e-06
1.17708e-06
-1.93562e-07
-1.90729e-07
0.000268132
1.22608e-07
1.35615e-07
-0.0011815
-1.11509e-07
-6.62987e-08
0.00118142
-0.00113169
-1.18693e-06
-1.22744e-07
-3.85081e-08
0.00113168
-2.07741e-07
1.22528e-06
2.40665e-07
8.8358e-07
-1.83176e-07
-8.30729e-07
2.30075e-07
-0.00113167
-1.18328e-06
-1.45037e-07
-3.95967e-08
0.00113167
-2.0774e-07
1.22317e-06
2.40299e-07
8.8236e-07
-1.76863e-07
-8.21171e-07
2.30965e-07
-0.000270165
1.21427e-06
1.16672e-06
-1.84683e-07
-2.00601e-07
0.00026817
1.35578e-07
9.29872e-08
-0.0011812
-5.33312e-08
-1.04544e-07
0.00118113
-0.0011317
-1.17982e-06
-1.26977e-07
-8.48755e-08
0.00113171
-2.01186e-07
1.23245e-06
2.46725e-07
8.84818e-07
-1.82804e-07
-8.30423e-07
2.31226e-07
-0.00113163
-1.18289e-06
-9.89276e-08
-4.74107e-08
0.00113161
-2.06253e-07
1.22428e-06
2.42119e-07
8.75169e-07
-1.83842e-07
-8.29103e-07
2.24609e-07
-0.000270182
1.22227e-06
1.17021e-06
-1.8844e-07
-2.05327e-07
0.000268183
1.26808e-07
1.54745e-07
-0.00118093
-1.1917e-07
-1.05705e-07
0.00118088
-0.00113169
-1.18901e-06
-1.01758e-07
-2.5938e-08
0.00113166
-2.1141e-07
1.22206e-06
2.35946e-07
8.82171e-07
-1.8424e-07
-8.32108e-07
2.28764e-07
-0.00113157
-1.1798e-06
-1.1597e-07
-6.55456e-08
0.00113156
-2.04615e-07
1.22629e-06
2.42793e-07
8.78927e-07
-1.79993e-07
-8.25317e-07
2.28318e-07
-0.000270198
1.21015e-06
1.17628e-06
-1.93337e-07
-1.94596e-07
0.000268199
1.37863e-07
1.32512e-07
-0.00118071
-1.07857e-07
-9.5243e-08
0.00118064
-0.00113162
-1.18533e-06
-1.17352e-07
-6.18762e-08
0.00113162
-2.05784e-07
1.22752e-06
2.4283e-07
8.83026e-07
-1.848e-07
-8.3284e-07
2.2981e-07
-0.00113156
-1.18575e-06
-1.24769e-07
-3.62024e-08
0.00113156
-2.10216e-07
1.22053e-06
2.37666e-07
8.80606e-07
-1.79132e-07
-8.23936e-07
2.29303e-07
-0.000270225
1.22183e-06
1.16993e-06
-1.87954e-07
-2.03984e-07
0.000268226
1.21177e-07
8.13162e-08
-0.00118036
-6.47777e-09
-7.43819e-08
0.00118023
-0.00113166
-1.18503e-06
-1.79741e-07
-4.98242e-08
0.00113167
-2.07229e-07
1.22669e-06
2.40635e-07
8.96106e-07
-1.72597e-07
-8.19565e-07
2.41229e-07
-0.00113148
-1.18844e-06
-1.31699e-07
-1.75038e-08
0.00113147
-2.11628e-07
1.21834e-06
2.36622e-07
8.81781e-07
-1.7769e-07
-8.22804e-07
2.30656e-07
-0.000270242
1.218e-06
1.16779e-06
-1.86039e-07
-1.9925e-07
0.000268241
7.21398e-08
1.38233e-07
-0.00117987
-8.94951e-08
-1.53474e-08
0.00117976
-0.00113164
-1.1868e-06
-1.11401e-07
-1.79098e-08
0.0011316
-2.07212e-07
1.22594e-06
2.41119e-07
8.80832e-07
-1.86232e-07
-8.33401e-07
2.26845e-07
-0.0011315
-1.17464e-06
-1.57426e-07
-8.99871e-08
0.00113153
-1.9781e-07
1.23347e-06
2.51286e-07
8.80479e-07
-1.79644e-07
-8.23918e-07
2.28633e-07
-0.000270261
1.20676e-06
1.18099e-06
-1.96731e-07
-1.93071e-07
0.000268263
1.43894e-07
1.35437e-07
-0.00117954
-1.33054e-07
-1.02627e-07
0.0011795
-0.00113152
-1.18708e-06
-8.04303e-08
-6.05696e-08
0.00113153
-2.08667e-07
1.22452e-06
2.3899e-07
8.74376e-07
-1.92085e-07
-8.4078e-07
2.21019e-07
-0.00113157
-1.18289e-06
-1.11002e-07
-5.24632e-08
0.00113158
-2.0918e-07
1.22165e-06
2.36647e-07
8.75849e-07
-1.82082e-07
-8.284e-07
2.25703e-07
-0.000270304
1.22401e-06
1.16604e-06
-1.84642e-07
-2.06503e-07
0.000268305
1.53193e-07
7.80805e-08
-0.00117946
-6.01594e-08
-1.78106e-07
0.00117947
-0.00113171
-1.18288e-06
-1.27212e-07
-9.60482e-08
0.00113175
-2.05547e-07
1.22926e-06
2.41848e-07
8.83909e-07
-1.84446e-07
-8.32648e-07
2.30242e-07
-0.00113156
-1.19567e-06
-3.75488e-08
-9.08142e-09
0.00113154
-2.18291e-07
1.21297e-06
2.31582e-07
8.64743e-07
-1.95945e-07
-8.40657e-07
2.12535e-07
-0.000270317
1.2355e-06
1.17685e-06
-1.96257e-07
-2.14669e-07
0.000268316
1.50258e-07
2.70775e-07
-0.00117939
-2.19832e-07
-1.11397e-07
0.0011793
-0.00113162
-1.18594e-06
-5.106e-08
-3.02058e-08
0.00113156
-2.07345e-07
1.22853e-06
2.43117e-07
8.73553e-07
-1.92569e-07
-8.40596e-07
2.19711e-07
-0.00113143
-1.16295e-06
-1.35831e-07
-1.3727e-07
0.00113143
-1.89399e-07
1.24475e-06
2.58796e-07
8.85224e-07
-1.75013e-07
-8.18759e-07
2.32529e-07
-0.000270343
1.19427e-06
1.18027e-06
-1.93566e-07
-1.79013e-07
0.000268341
5.41611e-08
-1.16517e-07
-0.0011789
2.0248e-07
4.44528e-08
0.00117871
-0.00113166
-1.19337e-06
-2.33185e-07
-8.02201e-08
0.00113177
-2.14565e-07
1.21373e-06
2.27047e-07
9.01911e-07
-1.63363e-07
-8.15937e-07
2.51122e-07
-0.00113154
-1.22089e-06
-1.07752e-07
6.50261e-08
0.0011316
-2.42805e-07
1.17889e-06
1.9846e-07
8.68229e-07
-1.81739e-07
-8.35368e-07
2.24481e-07
-0.000270326
1.26547e-06
1.1738e-06
-1.93726e-07
-2.42372e-07
0.000268322
-3.08815e-07
-1.60278e-08
-0.00117825
7.50087e-08
3.49081e-07
0.00117815
-0.00113184
-1.26146e-06
-1.84459e-07
4.29856e-07
0.00113173
-2.74915e-07
1.15255e-06
1.76284e-07
8.74841e-07
-1.84206e-07
-8.27492e-07
2.10701e-07
-0.00113176
-1.21294e-06
-3.55569e-07
1.2427e-07
0.00113185
-2.25841e-07
1.20534e-06
2.31973e-07
8.93078e-07
-1.68073e-07
-8.08235e-07
2.30431e-07
-0.000270449
1.13152e-06
1.17615e-06
-1.97895e-07
-1.38041e-07
0.000268477
7.05331e-07
7.45756e-07
-0.00117802
-8.33087e-07
-6.42451e-07
0.00117804
-0.00113119
-1.04151e-06
2.64498e-07
-6.57348e-07
0.00113109
-6.40112e-08
1.37472e-06
3.78306e-07
8.20225e-07
-2.46159e-07
-8.89746e-07
1.61042e-07
-0.00113184
-1.03041e-06
1.00447e-07
-6.00696e-07
0.00113168
-6.72446e-08
1.37325e-06
3.67669e-07
8.59953e-07
-2.012e-07
-8.36667e-07
1.98354e-07
-0.000270545
1.26309e-06
1.17391e-06
-1.73265e-07
-2.26766e-07
0.000268508
3.00287e-07
-4.14001e-07
-0.00117829
4.45459e-07
-4.5928e-07
0.00117842
-0.00113139
-1.23823e-06
-3.73773e-07
-7.39211e-08
0.00113168
-2.69473e-07
1.1403e-06
1.44645e-07
9.29206e-07
-8.62303e-08
-7.55934e-07
2.87033e-07
-0.00113072
-1.32712e-06
1.39749e-07
5.12086e-07
0.00113055
-3.44912e-07
1.04177e-06
6.66172e-08
8.52566e-07
-1.52686e-07
-8.28067e-07
2.18035e-07
-0.000270325
1.28285e-06
1.10167e-06
-1.33931e-07
-2.3267e-07
0.000268307
1.47514e-07
6.06315e-07
-0.00117836
-3.07817e-07
-6.77406e-08
0.00117798
-0.00113267
-1.14775e-06
-9.28192e-07
-1.7461e-07
0.00113315
-1.48253e-07
1.35131e-06
3.07568e-07
9.44956e-07
-1.35832e-07
-7.82457e-07
2.31417e-07
-0.00113124
-1.08842e-06
-1.02916e-06
-6.47235e-07
0.00113209
-9.05897e-08
1.41036e-06
3.75708e-07
9.33752e-07
-1.486e-07
-7.93559e-07
2.23272e-07
-0.000270525
1.08205e-06
1.2405e-06
-2.30414e-07
-7.83005e-08
0.000268511
5.59586e-06
5.71339e-06
-0.00116429
-1.29581e-05
-1.19319e-05
0.000283599
0.000285462
0.000285349
0.000285354
4.63594e-06
6.91463e-06
7.33045e-06
4.76069e-06
7.02059e-06
7.44533e-06
-0.000280684
5.47253e-06
-5.43518e-06
5.9355e-06
-3.45896e-06
0.00027817
-0.000280882
-5.55262e-06
5.54876e-06
-3.55563e-06
6.02619e-06
0.000278415
-0.000271516
-5.4846e-06
-5.42942e-06
5.76986e-06
5.78501e-06
0.000270875
-1.26458e-06
-1.2261e-06
0.000270108
-0.00026809
2.32398e-07
2.40108e-07
0.00113145
-1.46061e-07
-0.00113149
-8.28289e-09
-1.22935e-06
2.45779e-07
-2.15123e-07
-8.22661e-07
2.32301e-07
-1.7572e-07
8.86802e-07
1.26888e-06
0.00113159
-1.38604e-07
-0.00113159
-7.69436e-08
-1.21912e-06
2.51337e-07
-2.08608e-07
-8.28421e-07
2.36733e-07
-1.77835e-07
8.92547e-07
-1.23394e-06
0.000270106
-0.000268084
2.40101e-07
2.40644e-07
0.00113245
-9.47613e-08
-0.00113249
-5.28616e-08
-1.18129e-06
2.42022e-07
-2.0618e-07
-8.25738e-07
2.31119e-07
-1.77796e-07
8.84174e-07
1.261e-06
0.00113135
-9.76762e-08
-0.00113138
-4.20953e-08
-1.22152e-06
2.44742e-07
-2.09862e-07
-8.31934e-07
2.30179e-07
-1.84e-07
8.83247e-07
-1.38046e-07
-0.00113208
-8.49165e-08
-1.17991e-06
2.4837e-07
-2.00849e-07
-8.25962e-07
2.36352e-07
8.89653e-07
-1.78222e-07
1.25492e-06
0.00113122
-1.56011e-07
-0.00113125
-8.05163e-09
-1.21735e-06
2.43947e-07
-2.11404e-07
-8.19882e-07
2.37726e-07
-1.75961e-07
8.8964e-07
-1.22644e-06
0.000270061
-0.000268044
2.33684e-07
2.36498e-07
-9.52091e-08
-0.00113189
-5.12817e-08
-1.18192e-06
2.44778e-07
-2.04559e-07
-8.27061e-07
2.26928e-07
8.77297e-07
-1.81931e-07
1.21686e-06
0.0011322
-1.03211e-07
-0.00113226
-5.42637e-08
-1.16888e-06
2.37818e-07
-1.99361e-07
-8.23045e-07
2.36476e-07
-1.78042e-07
8.86742e-07
-0.000268074
2.31627e-07
2.41677e-07
1.22609e-06
1.18531e-06
-1.93482e-07
-1.98345e-07
0.000268088
-1.27561e-06
-1.21705e-06
0.000270115
-0.000268094
2.25648e-07
2.45783e-07
-2.36297e-08
0.00113142
-2.11642e-07
1.2679e-06
2.49218e-07
8.83824e-07
-1.7863e-07
-8.25663e-07
2.29463e-07
-1.21973e-06
-1.43795e-07
-7.01055e-08
0.00113159
-2.09385e-07
1.26807e-06
2.50377e-07
8.93359e-07
-1.76934e-07
-8.2753e-07
2.37473e-07
0.00113135
-1.04621e-07
-0.00113137
-8.1069e-08
-1.21711e-06
2.55641e-07
-2.03782e-07
-8.30754e-07
2.25531e-07
-1.83015e-07
8.78985e-07
1.26323e-06
0.00113156
-1.52042e-07
-0.00113157
-3.20543e-08
-1.22416e-06
2.45604e-07
-2.1393e-07
-8.26574e-07
2.37355e-07
-1.76476e-07
8.93694e-07
-1.89473e-07
-1.94024e-07
0.00026809
-1.23302e-06
0.000270125
-0.000268104
2.39144e-07
2.36541e-07
-3.40186e-08
0.00113241
-2.09788e-07
1.22201e-06
2.38469e-07
8.8437e-07
-1.77631e-07
-8.25511e-07
2.31198e-07
-1.21974e-06
-1.11474e-07
-5.7061e-08
0.00113134
-2.08364e-07
1.26248e-06
2.45954e-07
8.84192e-07
-1.82901e-07
-8.31032e-07
2.31349e-07
0.00113234
-1.42291e-07
-0.00113235
-1.08748e-08
-1.19071e-06
2.34716e-07
-2.14162e-07
-8.2393e-07
2.32286e-07
-1.76197e-07
8.85554e-07
1.26435e-06
0.00113138
-1.60449e-07
-0.00113136
-7.40443e-08
-1.21748e-06
2.46803e-07
-2.07165e-07
-8.26108e-07
2.365e-07
-1.77674e-07
8.89269e-07
-1.38046e-07
-1.64546e-08
0.00113117
-2.08852e-07
1.25715e-06
2.46268e-07
8.86449e-07
-1.78733e-07
2.34781e-07
-8.22784e-07
-1.27221e-07
-0.00113206
-6.76827e-08
-1.18021e-06
2.46592e-07
-2.01935e-07
-8.27052e-07
2.34451e-07
8.87909e-07
-1.79527e-07
1.26123e-06
0.00113103
-8.93066e-08
-0.00113108
-5.32136e-08
-1.2095e-06
2.49591e-07
-2.04256e-07
-8.30885e-07
2.27185e-07
-1.86312e-07
8.78165e-07
-1.89814e-07
-1.9697e-07
0.000268049
-1.23374e-06
0.000270102
-0.00026808
2.38044e-07
2.38209e-07
-1.05531e-07
-2.77599e-08
0.00113215
-2.04017e-07
1.21155e-06
2.33006e-07
8.86648e-07
-1.77791e-07
2.3638e-07
-8.22916e-07
-1.3674e-07
-0.00113186
-1.08363e-07
-1.17398e-06
2.50225e-07
-1.98308e-07
-8.23674e-07
2.30868e-07
8.80802e-07
-1.78041e-07
1.20231e-06
0.00113201
-1.28059e-07
-0.00113205
1.76507e-08
-1.18347e-06
2.25633e-07
-2.12254e-07
-8.23785e-07
2.33999e-07
-1.79372e-07
8.8492e-07
-0.000268062
2.20626e-07
2.4355e-07
1.21645e-06
1.18991e-06
-1.97446e-07
-1.93619e-07
0.0002681
-1.27148e-06
-1.22612e-06
0.000270146
-0.000268123
2.33478e-07
2.4134e-07
-9.13607e-08
0.00113135
-2.03679e-07
1.27577e-06
2.55351e-07
8.78908e-07
-1.82874e-07
-8.3095e-07
2.25788e-07
-1.22524e-06
-1.50686e-07
-2.24594e-08
0.00113154
-2.14987e-07
1.26212e-06
2.44637e-07
8.92778e-07
-1.77223e-07
-8.27291e-07
2.36445e-07
0.00113135
-1.1515e-07
-0.00113134
-8.67028e-08
-1.22032e-06
2.50682e-07
-2.08128e-07
-8.27769e-07
2.29688e-07
-1.79266e-07
8.82567e-07
1.26291e-06
0.00113146
-1.28315e-07
-0.00113149
-2.01151e-08
-1.22456e-06
2.46044e-07
-2.13857e-07
-8.31488e-07
2.31742e-07
-1.81648e-07
8.88241e-07
-1.90935e-07
-1.97847e-07
0.000268107
-1.22366e-06
0.000270128
-0.000268109
2.31384e-07
2.36729e-07
-1.52664e-08
0.00113234
-2.13161e-07
1.21809e-06
2.35992e-07
8.85707e-07
-1.7608e-07
-8.23731e-07
2.3232e-07
-1.21739e-06
-1.71925e-07
-7.12302e-08
0.00113141
-2.07302e-07
1.26452e-06
2.46785e-07
8.90857e-07
-1.76316e-07
-8.24519e-07
2.37769e-07
0.00113237
-1.5678e-07
-0.00113236
-5.13572e-08
-1.18242e-06
2.43987e-07
-2.05454e-07
-8.24884e-07
2.30865e-07
-1.77705e-07
8.84655e-07
1.26464e-06
0.00113145
-1.61981e-07
-0.00113145
-4.9643e-08
-1.2176e-06
2.46757e-07
-2.07735e-07
-8.24749e-07
2.35861e-07
-1.77842e-07
8.90293e-07
-8.21935e-08
-6.22483e-08
0.001131
-2.04303e-07
1.26099e-06
2.49206e-07
8.76738e-07
-1.87464e-07
2.26143e-07
-8.32371e-07
-1.12652e-07
-0.00113196
-2.49443e-08
-1.18836e-06
2.37396e-07
-2.10504e-07
-8.28729e-07
2.32852e-07
8.86078e-07
-1.81015e-07
1.25886e-06
0.00113095
-9.572e-08
-0.00113096
-7.82765e-08
-1.21109e-06
2.47074e-07
-2.06338e-07
-8.31119e-07
2.28903e-07
-1.85318e-07
8.78681e-07
-1.86105e-07
-1.95346e-07
0.000268092
-1.22581e-06
0.000270137
-0.000268119
2.32314e-07
2.39928e-07
-1.34315e-07
1.45403e-08
0.00113198
-2.11261e-07
1.20305e-06
2.26933e-07
8.83511e-07
-1.80659e-07
2.32615e-07
-8.25027e-07
-1.46633e-07
-0.00113194
-5.60363e-08
-1.18101e-06
2.41263e-07
-2.06714e-07
-8.19069e-07
2.34584e-07
8.85545e-07
-1.74238e-07
1.21392e-06
0.00113197
-1.37665e-07
-0.00113196
-4.46904e-08
-1.1728e-06
2.38131e-07
-2.0048e-07
-8.28076e-07
2.3039e-07
-1.83431e-07
8.80923e-07
-0.000268077
2.29771e-07
2.40007e-07
1.22239e-06
1.17978e-06
-1.88994e-07
-1.98503e-07
0.000268132
-1.26324e-06
-1.23353e-06
0.000270166
-0.000268147
2.39788e-07
2.37431e-07
-7.71514e-08
0.00113135
-2.10283e-07
1.26956e-06
2.48675e-07
8.84498e-07
-1.77639e-07
-8.26017e-07
2.31344e-07
-1.22323e-06
-1.15811e-07
-2.65728e-08
0.00113143
-2.12467e-07
1.26416e-06
2.47386e-07
8.8641e-07
-1.83543e-07
-8.33274e-07
2.29777e-07
0.00113132
-1.45749e-07
-0.00113134
-3.16479e-08
-1.22871e-06
2.42825e-07
-2.16263e-07
-8.20198e-07
2.36325e-07
-1.72452e-07
8.90141e-07
1.26782e-06
0.00113133
-9.02702e-08
-0.00113136
-6.22877e-08
-1.21923e-06
2.51135e-07
-2.08368e-07
-8.36553e-07
2.2744e-07
-1.86566e-07
8.83557e-07
-1.9845e-07
-1.96414e-07
0.000268109
-1.22189e-06
0.000270129
-0.000268109
2.30969e-07
2.39424e-07
-6.28669e-08
0.00113238
-2.03097e-07
1.22882e-06
2.4632e-07
8.84389e-07
-1.78352e-07
-8.25461e-07
2.30405e-07
-1.21754e-06
-1.46074e-07
-4.34388e-08
0.00113144
-2.07514e-07
1.26461e-06
2.46894e-07
8.88951e-07
-1.79454e-07
-8.25996e-07
2.34301e-07
0.00113236
-1.23174e-07
-0.00113237
-8.07655e-08
-1.17467e-06
2.5022e-07
-1.9868e-07
-8.25152e-07
2.31155e-07
-1.77803e-07
8.84764e-07
1.26305e-06
0.0011313
-9.28731e-08
-0.00113136
-3.5066e-08
-1.21848e-06
2.45906e-07
-2.07879e-07
-8.30306e-07
2.30672e-07
-1.83173e-07
8.84526e-07
-1.10509e-07
-8.11014e-08
0.00113095
-2.06838e-07
1.25847e-06
2.46549e-07
8.81396e-07
-1.8282e-07
2.31597e-07
-8.28694e-07
-1.20635e-07
-0.00113182
-1.98631e-08
-1.19112e-06
2.37801e-07
-2.11349e-07
-8.29333e-07
2.31426e-07
8.85187e-07
-1.82214e-07
1.25506e-06
0.00113098
-1.58116e-07
-0.00113097
-5.73367e-08
-1.21485e-06
2.42462e-07
-2.10883e-07
-8.19384e-07
2.39787e-07
-1.74499e-07
8.9085e-07
-1.93088e-07
-1.93769e-07
0.000268122
-1.21685e-06
0.000270125
-0.000268112
2.279e-07
2.39045e-07
-1.37208e-07
-6.83927e-08
0.00113198
-1.9651e-07
1.2181e-06
2.41827e-07
8.81254e-07
-1.83266e-07
2.30807e-07
-8.28e-07
-1.23025e-07
-0.00113184
8.23436e-09
-1.19064e-06
2.35032e-07
-2.13948e-07
-8.20505e-07
2.31781e-07
8.83314e-07
-1.76392e-07
1.22513e-06
0.00113201
-1.35452e-07
-0.001132
-1.05573e-07
-1.16101e-06
2.46844e-07
-1.9084e-07
-8.24425e-07
2.3443e-07
-1.80029e-07
8.85324e-07
-0.000268113
2.38405e-07
2.38751e-07
1.23072e-06
1.17442e-06
-1.83866e-07
-2.02014e-07
0.000268147
-1.26206e-06
-1.22714e-06
0.000270158
-0.00026814
2.33412e-07
2.3797e-07
-1.35408e-08
0.00113129
-2.17952e-07
1.26118e-06
2.4119e-07
8.90905e-07
-1.71483e-07
-8.19142e-07
2.36928e-07
-1.21765e-06
-9.74692e-08
-7.84795e-08
0.00113132
-2.06874e-07
1.2694e-06
2.52544e-07
8.85369e-07
-1.84798e-07
-8.35166e-07
2.2959e-07
0.00113118
-1.45603e-07
-0.00113122
7.64141e-10
-1.23054e-06
2.43608e-07
-2.16447e-07
-8.21762e-07
2.32591e-07
-1.74711e-07
8.87127e-07
1.26996e-06
0.00113133
-1.46098e-07
-0.00113132
-9.26534e-08
-1.21653e-06
2.52109e-07
-2.06691e-07
-8.26549e-07
2.38267e-07
-1.75829e-07
8.94099e-07
-1.96051e-07
-1.93495e-07
0.000268113
-1.23589e-06
0.00027016
-0.000268137
2.41634e-07
2.40672e-07
-7.90269e-08
0.00113232
-1.98643e-07
1.23344e-06
2.499e-07
8.84473e-07
-1.77678e-07
-8.25254e-07
2.31038e-07
-1.2192e-06
-8.4412e-08
-3.53321e-08
0.00113125
-2.0854e-07
1.26205e-06
2.45043e-07
8.83879e-07
-1.83439e-07
-8.30951e-07
2.30386e-07
0.00113218
-9.18635e-08
-0.00113223
-5.46338e-08
-1.17931e-06
2.43424e-07
-2.04092e-07
-8.26482e-07
2.29567e-07
-1.78714e-07
8.82864e-07
1.26078e-06
0.00113112
-1.03284e-07
-0.00113115
-4.84932e-08
-1.22018e-06
2.44239e-07
-2.09246e-07
-8.2972e-07
2.31671e-07
-1.8181e-07
8.84876e-07
-1.67493e-07
-3.77119e-08
0.00113098
-2.12884e-07
1.25289e-06
2.40502e-07
8.92668e-07
-1.72658e-07
2.41269e-07
-8.17251e-07
-1.53151e-07
-0.0011318
-9.56902e-08
-1.17698e-06
2.50309e-07
-1.98105e-07
-8.25075e-07
2.3672e-07
8.90037e-07
-1.77342e-07
1.25082e-06
0.00113091
-1.52524e-07
-0.00113094
6.80724e-10
-1.21987e-06
2.403e-07
-2.14163e-07
-8.20468e-07
2.36021e-07
-1.76513e-07
8.87963e-07
-1.952e-07
-1.94965e-07
0.000268107
-1.22667e-06
0.000270121
-0.000268103
2.34254e-07
2.35806e-07
-1.29382e-07
-1.02579e-07
0.001132
-1.91053e-07
1.22496e-06
2.463e-07
8.8614e-07
-1.78894e-07
2.35345e-07
-8.23396e-07
-1.10407e-07
-0.00113165
-5.11575e-08
-1.18064e-06
2.45088e-07
-2.0344e-07
-8.25491e-07
2.27513e-07
8.78154e-07
-1.80576e-07
1.21574e-06
0.0011319
-9.909e-08
-0.00113194
-5.43958e-08
-1.16877e-06
2.37223e-07
-1.99213e-07
-8.25101e-07
2.33114e-07
-1.80363e-07
8.83761e-07
-0.000268119
2.30401e-07
2.37697e-07
1.22694e-06
1.1822e-06
-1.91261e-07
-1.99234e-07
0.000268139
-1.27783e-06
-1.21803e-06
0.000270173
-0.000268151
2.26134e-07
2.4787e-07
-1.74646e-08
0.00113115
-2.12504e-07
1.26599e-06
2.4773e-07
8.84685e-07
-1.77238e-07
-8.24162e-07
2.30111e-07
-1.21791e-06
-1.57731e-07
-8.04504e-08
0.00113134
-2.08282e-07
1.26846e-06
2.50479e-07
8.95719e-07
-1.74151e-07
-8.24652e-07
2.39601e-07
0.00113111
-1.17049e-07
-0.00113111
-9.08143e-08
-1.21411e-06
2.57956e-07
-2.00922e-07
-8.29084e-07
2.26568e-07
-1.81584e-07
8.80326e-07
1.26369e-06
0.00113131
-1.50371e-07
-0.00113133
-3.22241e-08
-1.22272e-06
2.45944e-07
-2.13007e-07
-8.25867e-07
2.36673e-07
-1.76254e-07
8.93568e-07
-1.87023e-07
-1.93205e-07
0.000268146
-1.22836e-06
0.000270183
-0.000268163
2.35569e-07
2.36884e-07
-4.45825e-08
0.00113214
-2.06854e-07
1.224e-06
2.40515e-07
8.83565e-07
-1.78081e-07
-8.25791e-07
2.30302e-07
-1.21947e-06
-1.19225e-07
-5.55217e-08
0.0011311
-2.08587e-07
1.26155e-06
2.44958e-07
8.86003e-07
-1.80639e-07
-8.28631e-07
2.32868e-07
0.00113209
-1.54126e-07
-0.00113209
-2.0766e-08
-1.18845e-06
2.35537e-07
-2.12478e-07
-8.2097e-07
2.34922e-07
-1.7328e-07
8.88394e-07
1.26584e-06
0.00113113
-1.60101e-07
-0.00113111
-7.48414e-08
-1.21519e-06
2.48156e-07
-2.05319e-07
-8.24475e-07
2.3682e-07
-1.76635e-07
8.90248e-07
-1.40202e-07
-1.09744e-08
0.00113087
-2.10756e-07
1.25414e-06
2.43902e-07
8.84755e-07
-1.79718e-07
2.32892e-07
-8.23691e-07
-1.41456e-07
-0.00113182
-4.27318e-08
-1.18308e-06
2.41874e-07
-2.05498e-07
-8.24379e-07
2.36018e-07
8.9008e-07
-1.77354e-07
1.26624e-06
0.00113081
-1.12797e-07
-0.00113082
-8.58641e-08
-1.20402e-06
2.54724e-07
-1.98769e-07
-8.29875e-07
2.28355e-07
-1.85097e-07
8.79161e-07
-1.88331e-07
-1.96946e-07
0.000268108
-1.2307e-06
0.000270157
-0.000268136
2.36071e-07
2.39751e-07
-1.01821e-07
-3.82078e-08
0.00113186
-2.02444e-07
1.21207e-06
2.33949e-07
8.83752e-07
-1.80296e-07
2.33274e-07
-8.25092e-07
-1.5104e-07
-0.00113162
-8.60938e-08
-1.17541e-06
2.47096e-07
-2.003e-07
-8.20241e-07
2.3344e-07
8.83971e-07
-1.75022e-07
1.20677e-06
0.00113179
-1.49521e-07
-0.0011318
-1.65336e-08
-1.17803e-06
2.29896e-07
-2.07223e-07
-8.21748e-07
2.36591e-07
-1.76797e-07
8.87101e-07
-0.000268124
2.23294e-07
2.47295e-07
1.21306e-06
1.18829e-06
-1.96307e-07
-1.90664e-07
0.000268158
-1.26723e-06
-1.22541e-06
0.000270203
-0.000268181
2.33017e-07
2.37739e-07
-1.01659e-07
0.0011311
-2.00629e-07
1.27816e-06
2.57561e-07
8.80684e-07
-1.81227e-07
-8.29029e-07
2.27219e-07
-1.22337e-06
-1.39585e-07
-2.48632e-08
0.00113128
-2.1355e-07
1.26302e-06
2.45436e-07
8.91273e-07
-1.78328e-07
-8.28005e-07
2.34565e-07
0.00113109
-1.18883e-07
-0.00113109
-6.69031e-08
-1.22266e-06
2.45966e-07
-2.11409e-07
-8.2553e-07
2.30929e-07
-1.77296e-07
8.84312e-07
1.26355e-06
0.00113121
-1.13853e-07
-0.00113123
-3.86822e-08
-1.22271e-06
2.46676e-07
-2.1236e-07
-8.33758e-07
2.29671e-07
-1.83477e-07
8.85763e-07
-1.94053e-07
-1.96527e-07
0.000268164
-1.22379e-06
0.000270187
-0.000268167
2.31631e-07
2.3583e-07
-2.10397e-08
0.00113209
-2.11988e-07
1.21864e-06
2.36501e-07
8.89201e-07
-1.72558e-07
-8.19993e-07
2.35443e-07
-1.21426e-06
-1.64745e-07
-7.71405e-08
0.00113115
-2.04754e-07
1.26662e-06
2.48584e-07
8.90865e-07
-1.76153e-07
-8.23778e-07
2.37229e-07
0.00113211
-1.55223e-07
-0.0011321
-4.37875e-08
-1.18198e-06
2.43241e-07
-2.0538e-07
-8.2409e-07
2.30319e-07
-1.77227e-07
8.84647e-07
1.26418e-06
0.00113118
-1.4757e-07
-0.00113117
-6.12553e-08
-1.21638e-06
2.46108e-07
-2.07086e-07
-8.25979e-07
2.34452e-07
-1.789e-07
8.88588e-07
-1.11761e-07
-1.02918e-07
0.00113081
-1.97492e-07
1.26763e-06
2.55393e-07
8.79788e-07
-1.84487e-07
2.29334e-07
-8.29652e-07
-1.24494e-07
-0.00113171
-2.46931e-08
-1.18817e-06
2.38925e-07
-2.09316e-07
-8.29455e-07
2.31156e-07
8.84698e-07
-1.81942e-07
1.2592e-06
0.00113082
-1.30758e-07
-0.00113082
-8.30963e-08
-1.20913e-06
2.45861e-07
-2.06058e-07
-8.24159e-07
2.35369e-07
-1.78575e-07
8.85787e-07
-1.87688e-07
-1.92832e-07
0.000268147
-1.22441e-06
0.000270193
-0.000268174
2.31429e-07
2.38061e-07
-1.66096e-07
-2.24865e-08
0.00113179
-2.05979e-07
1.20821e-06
2.31633e-07
8.8807e-07
-1.75977e-07
2.37303e-07
-8.20739e-07
-1.58065e-07
-0.00113167
-4.68593e-08
-1.1819e-06
2.41097e-07
-2.0685e-07
-8.19037e-07
2.33023e-07
8.84632e-07
-1.74887e-07
1.2171e-06
0.00113184
-1.6631e-07
-0.00113182
-5.89276e-08
-1.1688e-06
2.40072e-07
-1.97757e-07
-8.22876e-07
2.34382e-07
-1.78818e-07
8.85821e-07
-0.000268161
2.32349e-07
2.39766e-07
1.22778e-06
1.18033e-06
-1.89394e-07
-2.0272e-07
0.000268187
-1.25844e-06
-1.22871e-06
0.000270223
-0.000268202
2.33488e-07
2.32378e-07
-4.46352e-08
0.00113108
-2.16191e-07
1.26223e-06
2.4148e-07
8.84691e-07
-1.76947e-07
-8.24934e-07
2.30959e-07
-1.22205e-06
-1.12517e-07
-5.0237e-08
0.0011312
-2.11492e-07
1.26426e-06
2.47522e-07
8.85075e-07
-1.84291e-07
-8.34687e-07
2.29068e-07
0.00113107
-1.33064e-07
-0.00113107
-1.35889e-08
-1.23346e-06
2.39841e-07
-2.19663e-07
-8.269e-07
2.28393e-07
-1.79219e-07
8.82312e-07
1.26543e-06
0.00113122
-1.30104e-07
-0.00113121
-6.98021e-08
-1.22089e-06
2.48227e-07
-2.10513e-07
-8.32735e-07
2.31945e-07
-1.82144e-07
8.87927e-07
-1.96151e-07
-1.97061e-07
0.000268171
-1.2318e-06
0.000270221
-0.000268197
2.37102e-07
2.36239e-07
-5.23917e-08
0.00113211
-2.03943e-07
1.22684e-06
2.44402e-07
8.81438e-07
-1.80409e-07
-8.27182e-07
2.2712e-07
-1.2186e-06
-1.35436e-07
-5.06314e-08
0.00113117
-2.08958e-07
1.26186e-06
2.44107e-07
8.86814e-07
-1.80362e-07
-8.27664e-07
2.32941e-07
0.00113209
-9.02444e-08
-0.0011321
-7.37003e-08
-1.17813e-06
2.45834e-07
-2.02111e-07
-8.33857e-07
2.22459e-07
-1.86057e-07
8.75635e-07
1.25672e-06
0.00113113
-1.06169e-07
-0.00113115
-2.76963e-08
-1.22434e-06
2.40081e-07
-2.13462e-07
-8.32769e-07
2.2876e-07
-1.84779e-07
8.82087e-07
-1.37418e-07
-5.81362e-08
0.00113082
-2.11115e-07
1.25402e-06
2.40961e-07
8.87192e-07
-1.77325e-07
2.36353e-07
-8.22564e-07
-1.27554e-07
-0.00113169
-8.25849e-08
-1.1808e-06
2.46656e-07
-2.01697e-07
-8.31066e-07
2.30517e-07
8.84142e-07
-1.83497e-07
1.24603e-06
0.0011308
-1.34155e-07
-0.00113081
-1.24221e-09
-1.22405e-06
2.35355e-07
-2.18671e-07
-8.24983e-07
2.32291e-07
-1.80421e-07
8.83877e-07
-1.92444e-07
-1.95998e-07
0.000268179
-1.22292e-06
0.000270205
-0.000268188
2.3036e-07
2.3219e-07
-1.49833e-07
-6.66718e-08
0.00113185
-1.95997e-07
1.21889e-06
2.41495e-07
8.83686e-07
-1.80982e-07
2.32314e-07
-8.24998e-07
-1.02664e-07
-0.00113165
-4.01574e-08
-1.18422e-06
2.40928e-07
-2.07479e-07
-8.28455e-07
2.24709e-07
8.75481e-07
-1.83439e-07
1.21626e-06
0.00113181
-9.17125e-08
-0.00113183
-6.21203e-08
-1.16852e-06
2.38491e-07
-1.98159e-07
-8.31722e-07
2.26647e-07
-1.86949e-07
8.77322e-07
-0.000268181
2.3015e-07
2.3175e-07
1.23089e-06
1.17831e-06
-1.89603e-07
-2.0437e-07
0.000268208
-1.27377e-06
-1.22231e-06
0.000270258
-0.000268234
2.27838e-07
2.44268e-07
-2.51169e-08
0.00113107
-2.16745e-07
1.26147e-06
2.43033e-07
8.81284e-07
-1.80163e-07
-8.28033e-07
2.27557e-07
-1.22199e-06
-1.37933e-07
-6.09495e-08
0.00113123
-2.11894e-07
1.26408e-06
2.46602e-07
8.89517e-07
-1.80536e-07
-8.31143e-07
2.33467e-07
0.00113111
-1.31423e-07
-0.00113109
-8.6046e-08
-1.21861e-06
2.53835e-07
-2.05374e-07
-8.29817e-07
2.26626e-07
-1.81532e-07
8.80134e-07
1.2575e-06
0.00113121
-1.34224e-07
-0.00113123
-1.05771e-08
-1.22841e-06
2.40269e-07
-2.18431e-07
-8.30901e-07
2.31763e-07
-1.81026e-07
8.88707e-07
-1.90851e-07
-1.97055e-07
0.000268207
-1.225e-06
0.000270243
-0.000268223
2.31469e-07
2.31412e-07
-7.7559e-08
0.00113208
-2.02409e-07
1.22829e-06
2.45226e-07
8.76646e-07
-1.84913e-07
-8.3321e-07
2.23926e-07
-1.22445e-06
-1.09263e-07
-2.52652e-08
0.00113111
-2.1345e-07
1.25672e-06
2.40172e-07
8.82315e-07
-1.84581e-07
-8.32771e-07
2.29141e-07
0.0011321
-1.38205e-07
-0.00113209
-5.93619e-08
-1.18366e-06
2.38562e-07
-2.08574e-07
-8.25033e-07
2.32327e-07
-1.76379e-07
8.85255e-07
1.25895e-06
0.00113108
-1.34273e-07
-0.00113108
-3.33411e-08
-1.22196e-06
2.42141e-07
-2.11306e-07
-8.29487e-07
2.31699e-07
-1.81711e-07
8.85543e-07
-1.29199e-07
-5.35509e-09
0.00113078
-2.16241e-07
1.24845e-06
2.38222e-07
8.81736e-07
-1.82654e-07
2.30249e-07
-8.27139e-07
-1.08712e-07
-0.00113171
-4.08822e-08
-1.18601e-06
2.3836e-07
-2.08705e-07
-8.30798e-07
2.30292e-07
8.83753e-07
-1.82995e-07
1.26311e-06
0.00113075
-1.15203e-07
-0.00113076
-6.44927e-08
-1.21279e-06
2.4918e-07
-2.04536e-07
-8.31121e-07
2.27564e-07
-1.85934e-07
8.78312e-07
-1.92351e-07
-2.00575e-07
0.00026819
-1.22694e-06
0.000270222
-0.000268203
2.32654e-07
2.34601e-07
-8.75965e-08
-5.63517e-08
0.00113179
-1.99853e-07
1.21453e-06
2.3679e-07
8.77507e-07
-1.86939e-07
2.27059e-07
-8.31947e-07
-1.09902e-07
-0.00113158
-6.48202e-08
-1.17942e-06
2.4373e-07
-2.03891e-07
-8.26267e-07
2.27528e-07
8.77998e-07
-1.8082e-07
1.20947e-06
0.00113174
-1.22772e-07
-0.00113175
-3.8679e-08
-1.1749e-06
2.31948e-07
-2.04544e-07
-8.28827e-07
2.33079e-07
-1.80742e-07
8.86071e-07
-0.000268192
2.24354e-07
2.42804e-07
1.21651e-06
1.18642e-06
-1.95734e-07
-1.93518e-07
0.000268245
-1.2673e-06
-1.22595e-06
0.000270291
-0.000268269
2.33447e-07
2.38338e-07
-9.70794e-08
0.00113113
-2.04109e-07
1.27533e-06
2.54537e-07
8.80378e-07
-1.81683e-07
-8.29783e-07
2.26649e-07
-1.22917e-06
-1.24556e-07
-3.35383e-09
0.00113119
-2.188e-07
1.25698e-06
2.40228e-07
8.85993e-07
-1.83565e-07
-8.33293e-07
2.29007e-07
0.00113115
-1.27241e-07
-0.00113115
-5.73332e-08
-1.22339e-06
2.46121e-07
-2.11833e-07
-8.25984e-07
2.30968e-07
-1.78051e-07
8.84879e-07
1.26448e-06
0.00113116
-1.07589e-07
-0.00113116
-4.89641e-08
-1.22279e-06
2.48804e-07
-2.11077e-07
-8.38264e-07
2.25785e-07
-1.88166e-07
8.8228e-07
-1.97948e-07
-2.01535e-07
0.000268224
-1.22398e-06
0.000270253
-0.000268232
2.30779e-07
2.36308e-07