/*--------------------------------*- C++ -*----------------------------------*\
| =========                 |                                                 |
| \\      /  F ield         | OpenFOAM: The Open Source CFD Toolbox           |
|  \\    /   O peration     | Version:  v2006                                 |
|   \\  /    A nd           | Website:  www.openfoam.com                      |
|    \\/     M anipulation  |                                                 |
\*---------------------------------------------------------------------------*/
FoamFile
{
    version     2.0;
    format      ascii;
    class       volScalarField;
    location    "875";
    object      k;
}
// * * * * * * * * * * * * * * * * * * * * * * * * * * * * * * * * * * * * * //

dimensions      [0 2 -2 0 0 0 0];


internalField   nonuniform List<scalar> 
14361
(
5.29783e-05
4.85958e-05
6.54221e-05
6.13591e-05
7.0563e-05
7.16866e-05
7.39716e-05
6.90675e-05
7.50872e-05
7.3873e-05
7.38722e-05
7.50595e-05
7.50501e-05
6.60832e-05
7.38582e-05
7.05763e-05
6.61099e-05
7.50285e-05
7.38534e-05
9.61212e-05
7.40473e-05
7.40508e-05
7.40283e-05
9.60973e-05
7.403e-05
7.1685e-05
7.21597e-05
8.03714e-05
7.39673e-05
8.03692e-05
7.21632e-05
7.23385e-05
6.90683e-05
7.2112e-05
7.21095e-05
7.21129e-05
7.23395e-05
7.21098e-05
6.69063e-05
6.05676e-05
6.05892e-05
6.6877e-05
5.83779e-05
6.1254e-05
6.49012e-05
6.5436e-05
5.83776e-05
6.12681e-05
6.49105e-05
5.73178e-05
6.13664e-05
5.61007e-05
6.30303e-05
5.73238e-05
5.60978e-05
6.30393e-05
5.29116e-05
5.48064e-05
5.28896e-05
5.29099e-05
5.48476e-05
4.14916e-05
4.15013e-05
7.06362e-05
7.16433e-05
6.54848e-05
6.13916e-05
7.39624e-05
6.91158e-05
6.54502e-05
6.13855e-05
7.39418e-05
6.9109e-05
7.17097e-05
7.0524e-05
7.05389e-05
7.16912e-05
4.85119e-05
6.54027e-05
6.13526e-05
4.85176e-05
6.54267e-05
6.13518e-05
7.39732e-05
6.90661e-05
7.39395e-05
6.90611e-05
7.05795e-05
7.05542e-05
7.16391e-05
7.16464e-05
6.61387e-05
7.37463e-05
7.50668e-05
7.38139e-05
7.3821e-05
9.58932e-05
8.04842e-05
7.21349e-05
7.21825e-05
7.2106e-05
7.23274e-05
8.04276e-05
7.21377e-05
7.21052e-05
7.21598e-05
7.23258e-05
6.6026e-05
7.38715e-05
7.50155e-05
6.60472e-05
7.38592e-05
7.49899e-05
7.407e-05
7.40761e-05
9.60376e-05
7.21727e-05
7.39694e-05
8.0367e-05
8.03479e-05
7.21756e-05
7.23401e-05
6.90501e-05
7.21097e-05
7.21105e-05
7.20903e-05
7.21084e-05
7.23421e-05
7.21513e-05
7.39564e-05
8.03373e-05
8.03444e-05
7.21484e-05
7.23313e-05
6.9051e-05
7.20968e-05
7.2107e-05
7.20926e-05
7.21057e-05
7.23309e-05
6.60359e-05
7.37045e-05
7.47542e-05
7.49486e-05
6.6033e-05
7.05704e-05
7.37055e-05
7.47619e-05
6.60572e-05
7.37413e-05
7.38152e-05
7.38092e-05
9.52974e-05
7.16541e-05
6.04856e-05
6.05009e-05
6.68272e-05
6.68184e-05
5.48526e-05
6.05065e-05
6.05069e-05
6.67597e-05
6.0516e-05
6.05166e-05
3.52393e-05
3.52381e-05
6.12879e-05
6.49719e-05
5.8393e-05
6.30808e-05
5.60756e-05
5.73088e-05
6.12395e-05
6.49389e-05
5.83666e-05
5.60709e-05
6.30616e-05
5.72957e-05
5.83106e-05
6.12062e-05
6.53642e-05
6.48865e-05
5.83233e-05
6.11707e-05
6.48502e-05
5.72696e-05
6.13211e-05
5.60547e-05
6.30224e-05
5.72697e-05
5.605e-05
6.29856e-05
5.83502e-05
6.12293e-05
6.54254e-05
6.4897e-05
6.48914e-05
6.12306e-05
5.83499e-05
5.72845e-05
6.13271e-05
5.60581e-05
6.30217e-05
5.60552e-05
6.3006e-05
5.72809e-05
6.86894e-05
6.10026e-05
6.86789e-05
6.09937e-05
7.21326e-05
6.87065e-05
7.16718e-05
7.19284e-05
7.16815e-05
7.19203e-05
7.21453e-05
7.21241e-05
6.86976e-05
7.19256e-05
7.16386e-05
7.19175e-05
7.1652e-05
7.21375e-05
4.12495e-05
4.82732e-05
5.25926e-05
5.44414e-05
7.01e-05
7.01052e-05
5.26116e-05
4.82596e-05
5.2587e-05
4.82578e-05
5.43132e-05
7.15435e-05
7.01026e-05
7.15435e-05
7.00719e-05
5.47608e-05
5.25895e-05
5.25946e-05
5.28265e-05
5.29158e-05
5.44646e-05
7.1654e-05
5.48918e-05
6.10352e-05
6.10406e-05
5.28211e-05
5.28638e-05
6.87681e-05
5.25816e-05
6.8761e-05
5.29328e-05
5.44475e-05
7.16149e-05
4.82654e-05
7.38675e-05
6.88164e-05
7.16515e-05
4.11436e-05
6.49977e-05
5.79306e-05
6.50107e-05
6.49668e-05
5.25567e-05
5.25524e-05
6.86993e-05
5.25655e-05
4.82474e-05
7.37692e-05
6.87747e-05
5.43375e-05
7.16417e-05
6.87066e-05
7.37185e-05
7.37606e-05
6.86955e-05
7.14674e-05
7.15363e-05
6.88451e-05
7.37897e-05
6.87901e-05
7.38874e-05
7.16413e-05
7.16773e-05
6.87917e-05
7.37871e-05
6.88188e-05
7.38788e-05
3.50005e-05
3.49964e-05
3.50014e-05
4.14597e-05
4.15056e-05
5.25961e-05
6.09769e-05
6.50842e-05
6.12084e-05
5.2705e-05
6.53446e-05
4.83236e-05
7.1598e-05
7.16639e-05
4.82708e-05
6.50891e-05
6.10247e-05
6.12064e-05
5.26652e-05
4.83333e-05
6.52309e-05
7.02995e-05
7.02688e-05
5.466e-05
7.05227e-05
7.05236e-05
7.14801e-05
7.15147e-05
7.15156e-05
7.14785e-05
7.00217e-05
5.44481e-05
5.4393e-05
7.00315e-05
7.01017e-05
7.15559e-05
7.1518e-05
7.15188e-05
7.15561e-05
5.44016e-05
7.00875e-05
5.43755e-05
7.00811e-05
7.01046e-05
6.86912e-05
6.86841e-05
5.25968e-05
4.82669e-05
4.82739e-05
6.0976e-05
6.49701e-05
6.50104e-05
6.09885e-05
4.82686e-05
6.09624e-05
6.09792e-05
6.87185e-05
7.37809e-05
7.37644e-05
6.87835e-05
6.87043e-05
7.38467e-05
7.37624e-05
6.87921e-05
4.82659e-05
5.2587e-05
4.82702e-05
6.09777e-05
6.50234e-05
6.50185e-05
6.10237e-05
5.25552e-05
5.25605e-05
4.82612e-05
6.09642e-05
6.5048e-05
6.48999e-05
6.10227e-05
7.16314e-05
7.1546e-05
5.43632e-05
7.01843e-05
7.02064e-05
6.99792e-05
7.16422e-05
6.9925e-05
7.00638e-05
7.00217e-05
5.43375e-05
7.15331e-05
7.15891e-05
5.43911e-05
7.00549e-05
5.43548e-05
7.01688e-05
7.01634e-05
7.16053e-05
7.15666e-05
7.16607e-05
7.15666e-05
7.16619e-05
5.43941e-05
7.00668e-05
5.44224e-05
7.00793e-05
7.00779e-05
7.17426e-05
7.16846e-05
7.17561e-05
7.1688e-05
5.44964e-05
7.06075e-05
7.0608e-05
7.01822e-05
7.01622e-05
6.88803e-05
7.38679e-05
6.88049e-05
7.39437e-05
4.82892e-05
6.11099e-05
6.50184e-05
5.26084e-05
6.10369e-05
6.50225e-05
4.83249e-05
4.82832e-05
6.11416e-05
6.50969e-05
5.27034e-05
6.10415e-05
6.52905e-05
4.83409e-05
6.88778e-05
7.40291e-05
7.39284e-05
6.90512e-05
6.89076e-05
7.39657e-05
7.39555e-05
6.9045e-05
6.11339e-05
5.26722e-05
6.53974e-05
4.84704e-05
6.50588e-05
4.83855e-05
6.13027e-05
6.11666e-05
5.28316e-05
6.54278e-05
4.84959e-05
6.53399e-05
4.84163e-05
6.13113e-05
7.02765e-05
7.02795e-05
5.4675e-05
7.04803e-05
7.05278e-05
7.16881e-05
7.1656e-05
7.16748e-05
5.47983e-05
7.05835e-05
7.05285e-05
7.05823e-05
7.16836e-05
6.50201e-05
5.25862e-05
4.82815e-05
6.1096e-05
5.26044e-05
6.5021e-05
4.83158e-05
6.88011e-05
7.38243e-05
6.88383e-05
7.38967e-05
4.82804e-05
5.25902e-05
6.50793e-05
6.11144e-05
5.26551e-05
4.8328e-05
6.51505e-05
6.88404e-05
7.40526e-05
7.39241e-05
6.9037e-05
6.11138e-05
5.26665e-05
6.5392e-05
4.84616e-05
6.50482e-05
4.83738e-05
6.12777e-05
6.88565e-05
7.40064e-05
7.3924e-05
6.9028e-05
6.11322e-05
5.27498e-05
4.84746e-05
6.53709e-05
4.83919e-05
6.51846e-05
6.12774e-05
7.39053e-05
6.89936e-05
7.39867e-05
4.82703e-05
6.09709e-05
6.50603e-05
6.12046e-05
5.26879e-05
4.83182e-05
6.53417e-05
7.38979e-05
6.89898e-05
7.39767e-05
6.12645e-05
5.2845e-05
4.8526e-05
6.54027e-05
4.84305e-05
6.90378e-05
7.39925e-05
6.12608e-05
5.28225e-05
4.85198e-05
4.84233e-05
6.53944e-05
6.90334e-05
7.39805e-05
7.0202e-05
7.0175e-05
5.45545e-05
7.0281e-05
7.03483e-05
7.16691e-05
7.16738e-05
5.46498e-05
7.03369e-05
7.04015e-05
7.16743e-05
5.25833e-05
6.10178e-05
6.51044e-05
6.12156e-05
5.26947e-05
4.833e-05
6.53454e-05
6.88139e-05
6.89709e-05
7.3936e-05
7.38996e-05
6.89797e-05
7.39615e-05
6.1242e-05
5.27799e-05
4.84226e-05
6.52722e-05
6.12537e-05
5.28279e-05
4.8428e-05
6.53873e-05
6.89981e-05
7.39491e-05
6.90071e-05
7.39644e-05
7.16505e-05
7.16813e-05
7.16781e-05
5.4778e-05
7.05656e-05
7.05542e-05
7.16757e-05
7.16732e-05
7.37591e-05
7.37107e-05
6.869e-05
6.86732e-05
3.48905e-05
3.4939e-05
3.49333e-05
3.48896e-05
4.11366e-05
6.49056e-05
5.2562e-05
6.09125e-05
4.82506e-05
6.44145e-05
5.26112e-05
5.25899e-05
6.09566e-05
4.82714e-05
6.0969e-05
4.82625e-05
7.36825e-05
7.37619e-05
6.86796e-05
6.8662e-05
6.49348e-05
5.25809e-05
5.25648e-05
6.0946e-05
4.82666e-05
6.09591e-05
4.82564e-05
7.37636e-05
6.87864e-05
7.37799e-05
6.87095e-05
5.25841e-05
6.10215e-05
6.50236e-05
5.2581e-05
4.82639e-05
6.09609e-05
4.82606e-05
7.37737e-05
6.87928e-05
7.38157e-05
6.87022e-05
6.10239e-05
4.82584e-05
5.25675e-05
5.25633e-05
6.50658e-05
6.09516e-05
4.82545e-05
4.82607e-05
5.25628e-05
6.09444e-05
6.50099e-05
4.82597e-05
6.87083e-05
7.38698e-05
4.82587e-05
6.09387e-05
6.49624e-05
5.25481e-05
4.82583e-05
6.48538e-05
7.38593e-05
7.37195e-05
6.09076e-05
4.82489e-05
7.37508e-05
6.86347e-05
6.86281e-05
4.82512e-05
6.49274e-05
5.2559e-05
6.50604e-05
6.09907e-05
6.09127e-05
4.82478e-05
5.25469e-05
6.0981e-05
6.5022e-05
6.09063e-05
5.25416e-05
4.82451e-05
6.48516e-05
7.38508e-05
6.87777e-05
6.86425e-05
7.38704e-05
6.86329e-05
7.37496e-05
7.02024e-05
7.01502e-05
5.43004e-05
6.98773e-05
6.98905e-05
7.16376e-05
7.15239e-05
7.15369e-05
7.43176e-05
7.00837e-05
6.54768e-05
7.35335e-05
7.35306e-05
7.43007e-05
6.54781e-05
7.41811e-05
6.54686e-05
7.01054e-05
7.35322e-05
7.42419e-05
7.35332e-05
6.54607e-05
7.15625e-05
7.43094e-05
6.54395e-05
7.01328e-05
7.35872e-05
7.42885e-05
7.36111e-05
6.54834e-05
7.15697e-05
7.40715e-05
6.54223e-05
7.3571e-05
7.00638e-05
7.40742e-05
7.36259e-05
6.54206e-05
7.16782e-05
7.23229e-05
7.18129e-05
7.2058e-05
6.88591e-05
7.19138e-05
7.20814e-05
7.22976e-05
7.23193e-05
7.20567e-05
7.1794e-05
6.88541e-05
7.20802e-05
7.19014e-05
7.22941e-05
7.16394e-05
7.21477e-05
8.0062e-05
7.38955e-05
8.01229e-05
7.2122e-05
7.23142e-05
7.18493e-05
7.20568e-05
6.88865e-05
7.19286e-05
7.20772e-05
7.22931e-05
7.16717e-05
7.22415e-05
7.20405e-05
7.17171e-05
6.8648e-05
7.22775e-05
7.20106e-05
7.16298e-05
7.20739e-05
7.3803e-05
7.98622e-05
7.20391e-05
7.99256e-05
7.22526e-05
7.18001e-05
7.20463e-05
6.8699e-05
7.22827e-05
7.17107e-05
7.20197e-05
7.16031e-05
7.2183e-05
7.19783e-05
7.17296e-05
6.86948e-05
7.19614e-05
7.17042e-05
7.22e-05
7.19948e-05
7.37396e-05
7.98661e-05
7.99091e-05
7.19715e-05
7.19986e-05
7.99456e-05
7.37482e-05
7.99307e-05
7.20157e-05
7.21758e-05
6.86947e-05
7.19394e-05
7.16904e-05
7.19541e-05
7.16965e-05
7.21587e-05
7.14976e-05
7.15094e-05
7.22847e-05
6.88149e-05
7.20798e-05
7.18184e-05
7.20588e-05
7.17776e-05
7.23143e-05
7.21046e-05
7.99171e-05
7.38126e-05
7.20722e-05
7.99153e-05
7.2272e-05
6.88047e-05
7.20326e-05
7.17671e-05
7.2251e-05
7.20495e-05
7.17696e-05
7.21191e-05
7.99828e-05
7.38404e-05
7.9923e-05
7.2163e-05
7.16642e-05
7.16678e-05
7.22678e-05
7.20285e-05
7.1771e-05
6.88018e-05
7.17719e-05
7.2044e-05
7.22481e-05
7.20997e-05
7.99176e-05
7.38058e-05
7.99098e-05
7.20693e-05
7.22803e-05
6.88055e-05
7.17844e-05
7.20745e-05
7.17717e-05
7.20531e-05
7.23107e-05
7.21144e-05
7.3831e-05
7.99281e-05
7.99076e-05
7.21588e-05
7.16238e-05
7.1635e-05
7.48731e-05
6.5685e-05
7.3798e-05
7.03938e-05
6.58206e-05
7.38244e-05
7.47366e-05
9.60221e-05
7.40522e-05
7.40572e-05
7.40628e-05
7.40582e-05
9.58489e-05
7.48669e-05
6.56574e-05
7.37891e-05
7.03732e-05
6.58047e-05
7.38189e-05
7.47163e-05
9.61231e-05
7.40171e-05
7.40117e-05
7.40444e-05
7.40401e-05
9.61685e-05
7.49543e-05
7.046e-05
7.3831e-05
6.5989e-05
6.59034e-05
7.38287e-05
7.50083e-05
7.49777e-05
7.04656e-05
7.38334e-05
6.60087e-05
6.59276e-05
7.38319e-05
7.50349e-05
7.14981e-05
7.15021e-05
7.15022e-05
7.14977e-05
7.4321e-05
7.0054e-05
6.54782e-05
7.3517e-05
7.35288e-05
6.54798e-05
7.43202e-05
9.51452e-05
7.37211e-05
7.37244e-05
7.37239e-05
7.37196e-05
9.5084e-05
7.43034e-05
6.54863e-05
7.00653e-05
7.35122e-05
7.35236e-05
6.54856e-05
7.42993e-05
7.43016e-05
6.54797e-05
7.35287e-05
7.00899e-05
7.35256e-05
7.42901e-05
6.54822e-05
9.51509e-05
7.37174e-05
7.37239e-05
7.37293e-05
7.37239e-05
9.51443e-05
7.1537e-05
7.15313e-05
7.1532e-05
7.15375e-05
7.41273e-05
7.01013e-05
6.54347e-05
7.35473e-05
7.35356e-05
7.40966e-05
6.54428e-05
9.47643e-05
7.3715e-05
7.37174e-05
9.49243e-05
7.37243e-05
7.37229e-05
7.41362e-05
6.54301e-05
7.00981e-05
7.35437e-05
7.35316e-05
6.54405e-05
7.41034e-05
7.41877e-05
6.54697e-05
7.35277e-05
7.01039e-05
7.42442e-05
7.35288e-05
6.5461e-05
9.46494e-05
7.37925e-05
7.37933e-05
7.37393e-05
7.37383e-05
9.45705e-05
7.21794e-05
7.19781e-05
7.16805e-05
6.8681e-05
7.19598e-05
7.16563e-05
7.22022e-05
7.21696e-05
6.86821e-05
7.19367e-05
7.1651e-05
7.19519e-05
7.16522e-05
7.21499e-05
7.22212e-05
7.1986e-05
7.1741e-05
6.87487e-05
7.22063e-05
7.20027e-05
7.17619e-05
7.20409e-05
7.37739e-05
7.99283e-05
7.20634e-05
7.99397e-05
7.20362e-05
7.99475e-05
7.3771e-05
7.20186e-05
7.99471e-05
7.22273e-05
6.87605e-05
7.20253e-05
7.17686e-05
7.22427e-05
7.20098e-05
7.17643e-05
7.22352e-05
7.19868e-05
7.16994e-05
6.87399e-05
7.22125e-05
7.20059e-05
7.17439e-05
7.20787e-05
7.38138e-05
7.99952e-05
7.99527e-05
7.21054e-05
7.20706e-05
7.98914e-05
7.37949e-05
7.20426e-05
7.99334e-05
7.22445e-05
6.87571e-05
7.20317e-05
7.18043e-05
7.20141e-05
7.17633e-05
7.22654e-05
7.15989e-05
7.15846e-05
7.43301e-05
7.00831e-05
6.55499e-05
7.37627e-05
7.37033e-05
7.45169e-05
6.54136e-05
7.4393e-05
6.55798e-05
7.01286e-05
7.37683e-05
6.54524e-05
7.37137e-05
7.45757e-05
7.42208e-05
6.52927e-05
7.35978e-05
7.00572e-05
6.53518e-05
7.40438e-05
7.36646e-05
9.53189e-05
7.4069e-05
7.40609e-05
7.40125e-05
7.40196e-05
9.55505e-05
7.16032e-05
7.41766e-05
6.99422e-05
7.35237e-05
6.53668e-05
7.42236e-05
6.99995e-05
6.54154e-05
7.35747e-05
7.35433e-05
7.4269e-05
6.53789e-05
7.41944e-05
6.99681e-05
6.53909e-05
7.35623e-05
7.35303e-05
7.42323e-05
6.53622e-05
9.50358e-05
7.38069e-05
7.38077e-05
7.37824e-05
7.37832e-05
9.50513e-05
7.15037e-05
7.15689e-05
7.42642e-05
6.54122e-05
7.00977e-05
7.35759e-05
7.42474e-05
7.36039e-05
6.54556e-05
7.42751e-05
6.55226e-05
7.01276e-05
7.36548e-05
7.36196e-05
7.43008e-05
6.54779e-05
7.43207e-05
7.01466e-05
6.55415e-05
7.365e-05
7.36229e-05
7.43464e-05
6.55031e-05
9.50484e-05
7.38151e-05
7.38164e-05
9.50547e-05
7.38416e-05
7.3845e-05
9.50422e-05
7.39035e-05
7.38962e-05
7.38552e-05
7.38597e-05
9.50467e-05
7.15797e-05
7.15971e-05
7.16154e-05
7.1597e-05
7.16156e-05
9.47421e-05
7.41127e-05
7.41109e-05
7.40152e-05
7.40144e-05
9.52049e-05
7.40817e-05
6.54161e-05
7.35689e-05
7.00578e-05
7.40819e-05
7.36252e-05
6.54142e-05
9.45575e-05
7.38384e-05
7.38403e-05
9.45376e-05
7.39404e-05
7.39386e-05
7.4107e-05
7.37693e-05
7.00573e-05
6.54458e-05
7.36849e-05
7.42604e-05
6.54145e-05
7.41098e-05
7.00618e-05
7.37676e-05
6.54599e-05
7.36842e-05
7.42712e-05
6.5428e-05
7.17309e-05
7.17215e-05
7.17414e-05
7.1729e-05
9.59975e-05
7.41644e-05
7.41628e-05
9.56243e-05
7.4211e-05
7.42095e-05
7.50708e-05
6.61143e-05
7.04942e-05
7.39741e-05
7.39496e-05
6.59513e-05
7.52465e-05
7.50808e-05
6.61187e-05
7.0485e-05
7.3981e-05
7.39537e-05
6.59536e-05
7.52614e-05
7.4842e-05
7.38419e-05
6.55603e-05
7.03519e-05
7.45576e-05
7.391e-05
6.57684e-05
7.48486e-05
7.38403e-05
6.55685e-05
7.0334e-05
7.45619e-05
7.3911e-05
6.57706e-05
9.63132e-05
7.42201e-05
7.42188e-05
7.42202e-05
7.42188e-05
9.655e-05
7.23014e-05
6.88458e-05
7.20823e-05
7.19326e-05
7.20644e-05
7.18819e-05
7.23191e-05
7.2137e-05
8.00215e-05
7.38996e-05
7.21127e-05
8.00813e-05
7.22936e-05
6.88319e-05
7.20394e-05
7.18216e-05
7.20564e-05
7.2274e-05
7.18606e-05
7.21419e-05
8.01921e-05
7.39196e-05
8.01233e-05
7.21592e-05
7.2352e-05
7.20908e-05
7.18796e-05
6.8949e-05
7.2329e-05
7.21088e-05
7.19806e-05
7.22125e-05
7.40048e-05
8.04359e-05
7.22203e-05
8.03415e-05
7.22107e-05
8.01041e-05
7.39746e-05
7.21781e-05
8.02384e-05
7.23591e-05
6.89943e-05
7.21238e-05
7.2123e-05
7.2368e-05
7.21152e-05
7.20466e-05
7.23362e-05
7.20905e-05
7.19668e-05
6.8967e-05
7.23247e-05
7.21052e-05
7.20277e-05
7.21621e-05
7.39666e-05
8.03607e-05
8.03318e-05
7.21631e-05
7.21674e-05
8.02396e-05
7.39656e-05
7.21594e-05
8.02978e-05
7.23371e-05
6.90008e-05
7.21155e-05
7.20944e-05
7.21093e-05
7.20572e-05
7.23393e-05
7.48374e-05
6.56691e-05
7.38022e-05
7.03712e-05
6.58054e-05
7.46793e-05
7.38381e-05
9.61487e-05
7.40741e-05
7.40852e-05
7.40887e-05
7.40988e-05
9.62705e-05
7.48859e-05
6.56901e-05
7.38031e-05
7.03531e-05
7.38354e-05
7.47342e-05
6.58126e-05
9.59759e-05
7.40859e-05
7.40769e-05
7.40931e-05
9.57693e-05
7.41029e-05
7.4999e-05
7.38569e-05
7.04202e-05
6.59999e-05
7.38492e-05
6.59093e-05
7.50873e-05
7.49578e-05
7.04538e-05
7.3863e-05
6.60156e-05
6.5913e-05
7.38544e-05
7.50517e-05
7.16813e-05
7.1664e-05
7.16756e-05
9.63447e-05
7.40167e-05
7.40286e-05
9.63371e-05
7.39662e-05
7.39779e-05
7.51522e-05
6.61088e-05
7.05787e-05
7.37518e-05
6.61099e-05
7.37995e-05
7.50913e-05
7.51244e-05
7.06343e-05
7.38013e-05
6.61391e-05
7.51594e-05
7.38549e-05
6.60571e-05
7.05612e-05
6.60981e-05
7.51366e-05
7.3844e-05
7.51305e-05
7.38612e-05
6.60792e-05
7.06182e-05
7.51053e-05
7.38495e-05
6.61256e-05
9.62501e-05
7.387e-05
7.38792e-05
7.16571e-05
7.16793e-05
7.22769e-05
7.20316e-05
7.1806e-05
6.88168e-05
7.2047e-05
7.18169e-05
7.22588e-05
7.21099e-05
7.99737e-05
7.38437e-05
7.99741e-05
7.20848e-05
7.22863e-05
6.88226e-05
7.20747e-05
7.18434e-05
7.20553e-05
7.18227e-05
7.23097e-05
7.21202e-05
7.38614e-05
8.00125e-05
7.99791e-05
7.21542e-05
7.23598e-05
7.18238e-05
7.20885e-05
6.89013e-05
7.23295e-05
7.19299e-05
7.21128e-05
7.22313e-05
7.40186e-05
8.04303e-05
7.22474e-05
8.03054e-05
7.22232e-05
8.00151e-05
7.3979e-05
7.21785e-05
8.01767e-05
7.23727e-05
6.89602e-05
7.21129e-05
7.21399e-05
7.23882e-05
7.20135e-05
7.21246e-05
7.23483e-05
7.20864e-05
7.18708e-05
6.89072e-05
7.2322e-05
7.21096e-05
7.19424e-05
7.22031e-05
7.39834e-05
8.03526e-05
8.02626e-05
7.22169e-05
7.21981e-05
8.00793e-05
7.39599e-05
7.21665e-05
8.01805e-05
7.23576e-05
6.89587e-05
7.2135e-05
7.20812e-05
7.21201e-05
7.20025e-05
7.23719e-05
7.21758e-05
8.00866e-05
7.39436e-05
8.01953e-05
7.21484e-05
7.23309e-05
6.89181e-05
7.20641e-05
7.21046e-05
7.19817e-05
7.20916e-05
7.23424e-05
7.21773e-05
7.39672e-05
8.0373e-05
8.02857e-05
7.21866e-05
7.21694e-05
8.00562e-05
7.39371e-05
8.01728e-05
7.21418e-05
7.23278e-05
6.89139e-05
7.21034e-05
7.20526e-05
7.20905e-05
7.19697e-05
7.2339e-05
7.21715e-05
7.39599e-05
8.03438e-05
8.02598e-05
7.21803e-05
7.23433e-05
7.2112e-05
7.21076e-05
6.90835e-05
7.23429e-05
7.2157e-05
7.21107e-05
7.21486e-05
7.39859e-05
8.04861e-05
7.21759e-05
8.04321e-05
7.39936e-05
7.2179e-05
8.04722e-05
7.23353e-05
6.91017e-05
7.21734e-05
7.21088e-05
7.234e-05
7.21064e-05
7.20972e-05
6.90783e-05
7.23395e-05
7.21096e-05
7.21397e-05
7.21487e-05
7.39693e-05
8.04351e-05
7.21715e-05
8.03934e-05
7.39803e-05
7.21737e-05
8.04269e-05
7.23328e-05
6.90957e-05
7.21078e-05
7.2153e-05
7.44303e-05
6.55537e-05
7.36799e-05
7.02483e-05
6.56187e-05
7.43441e-05
7.37227e-05
7.44634e-05
6.5564e-05
7.36707e-05
7.01998e-05
7.37121e-05
7.43821e-05
6.56117e-05
9.53836e-05
7.40389e-05
7.40488e-05
7.39974e-05
7.40057e-05
9.55321e-05
9.52342e-05
7.39269e-05
7.39196e-05
7.39757e-05
9.50934e-05
7.3985e-05
7.45393e-05
7.02303e-05
7.37825e-05
6.57229e-05
7.37406e-05
6.56494e-05
7.4648e-05
7.4515e-05
7.02923e-05
7.37905e-05
6.57537e-05
6.56704e-05
7.37511e-05
7.46259e-05
7.16478e-05
7.17007e-05
7.16969e-05
9.58168e-05
7.40507e-05
7.40591e-05
9.56764e-05
7.40709e-05
7.4079e-05
7.494e-05
7.04673e-05
6.59494e-05
7.38583e-05
7.49209e-05
7.05015e-05
7.38515e-05
6.59805e-05
7.48545e-05
7.38103e-05
6.57857e-05
7.04033e-05
6.58758e-05
7.47442e-05
7.38422e-05
7.48359e-05
7.38145e-05
6.58238e-05
7.04561e-05
7.47281e-05
7.38407e-05
6.59134e-05
9.59426e-05
7.40708e-05
7.40778e-05
7.16871e-05
7.16873e-05
7.2307e-05
7.18351e-05
7.20549e-05
6.88814e-05
7.19034e-05
7.20752e-05
7.22857e-05
7.2314e-05
6.89148e-05
7.19983e-05
7.20964e-05
7.19377e-05
7.20822e-05
7.23292e-05
7.2152e-05
7.3912e-05
8.02285e-05
8.01694e-05
7.21699e-05
7.21567e-05
8.00996e-05
7.39308e-05
8.01817e-05
7.21365e-05
7.23196e-05
6.89245e-05
7.20304e-05
7.20971e-05
7.1972e-05
7.2084e-05
7.23305e-05
7.21573e-05
7.39477e-05
8.02928e-05
8.02368e-05
7.21657e-05
7.23403e-05
7.20291e-05
7.21002e-05
6.90362e-05
7.23326e-05
7.20729e-05
7.21078e-05
7.21786e-05
8.02741e-05
7.39643e-05
7.21693e-05
8.03195e-05
7.23335e-05
7.20571e-05
7.21e-05
6.90401e-05
7.2331e-05
7.20861e-05
7.21058e-05
7.21628e-05
8.03218e-05
7.39645e-05
7.21607e-05
8.0342e-05
7.16739e-05
7.16761e-05
7.16731e-05
9.60177e-05
7.39469e-05
7.39415e-05
9.61602e-05
7.39024e-05
7.38932e-05
7.49385e-05
7.05907e-05
6.60557e-05
7.37424e-05
7.50208e-05
7.38233e-05
6.60347e-05
7.05866e-05
7.50242e-05
6.60599e-05
7.37965e-05
7.50308e-05
7.38238e-05
6.60462e-05
7.05695e-05
7.50486e-05
6.60583e-05
7.37938e-05
9.56316e-05
7.38363e-05
7.38302e-05
7.16499e-05
7.16712e-05
7.16707e-05
7.19966e-05
7.37447e-05
7.99405e-05
7.99142e-05
7.20157e-05
7.19913e-05
7.37341e-05
7.98335e-05
7.98791e-05
7.19648e-05
7.21795e-05
7.17151e-05
7.19765e-05
6.86727e-05
7.16801e-05
7.19584e-05
7.21982e-05
7.21714e-05
7.16646e-05
7.19347e-05
6.86719e-05
7.16696e-05
7.19504e-05
7.21528e-05
7.19924e-05
7.37165e-05
7.97554e-05
7.97925e-05
7.19584e-05
7.20028e-05
7.37343e-05
7.99092e-05
7.98504e-05
7.20303e-05
7.2178e-05
7.19765e-05
7.16897e-05
6.86613e-05
7.19571e-05
7.16444e-05
7.22013e-05
7.21679e-05
7.16286e-05
7.19322e-05
6.86604e-05
7.19487e-05
7.16322e-05
7.21462e-05
7.20358e-05
7.37711e-05
7.99475e-05
7.20185e-05
7.99502e-05
7.2226e-05
7.20218e-05
7.17736e-05
6.8763e-05
7.22405e-05
7.17663e-05
7.20078e-05
7.20401e-05
7.37739e-05
7.99356e-05
7.20612e-05
7.99466e-05
7.22202e-05
7.17335e-05
7.19845e-05
6.87497e-05
7.2205e-05
7.17615e-05
7.20013e-05
7.20549e-05
7.37929e-05
7.99384e-05
7.20354e-05
7.9964e-05
7.22356e-05
7.2025e-05
7.18007e-05
6.87641e-05
7.22517e-05
7.20101e-05
7.17764e-05
7.20591e-05
7.38006e-05
7.99754e-05
7.20786e-05
7.99711e-05
7.22289e-05
7.19851e-05
7.1718e-05
6.87476e-05
7.22101e-05
7.20032e-05
7.17625e-05
7.22464e-05
7.1744e-05
7.20422e-05
6.86534e-05
7.22823e-05
7.16521e-05
7.20124e-05
7.20937e-05
7.38219e-05
7.99933e-05
7.21377e-05
7.98826e-05
7.20828e-05
7.99555e-05
7.38072e-05
7.21297e-05
7.98239e-05
7.20623e-05
7.37666e-05
7.97162e-05
7.20149e-05
7.97416e-05
7.199e-05
7.37153e-05
7.98266e-05
7.97704e-05
7.20271e-05
7.217e-05
7.16267e-05
6.86325e-05
7.19701e-05
7.16116e-05
7.1949e-05
7.21962e-05
7.21636e-05
6.86276e-05
7.15971e-05
7.1968e-05
7.15938e-05
7.1947e-05
7.21905e-05
7.20838e-05
7.38204e-05
8.00218e-05
7.21144e-05
7.99617e-05
7.22496e-05
7.18016e-05
7.20448e-05
6.87086e-05
7.22758e-05
7.1733e-05
7.20195e-05
7.22375e-05
7.16471e-05
6.86781e-05
7.19816e-05
7.22089e-05
7.17011e-05
7.20073e-05
7.20966e-05
8.00344e-05
7.38277e-05
7.21295e-05
7.99412e-05
7.2238e-05
6.86645e-05
7.16104e-05
7.19799e-05
7.2205e-05
7.16644e-05
7.20066e-05
7.20838e-05
7.3794e-05
7.97826e-05
7.20405e-05
7.98779e-05
7.43421e-05
6.55426e-05
7.37641e-05
7.00819e-05
7.45609e-05
6.53791e-05
7.37055e-05
9.53426e-05
7.40427e-05
7.40468e-05
9.56177e-05
7.40036e-05
7.39975e-05
7.43093e-05
6.55188e-05
7.375e-05
7.00216e-05
7.45335e-05
6.53572e-05
7.36883e-05
9.50233e-05
7.38783e-05
7.38738e-05
9.46578e-05
7.39633e-05
7.39585e-05
7.40777e-05
6.9911e-05
7.35514e-05
6.52537e-05
7.39247e-05
6.52783e-05
7.36263e-05
7.41121e-05
6.99654e-05
7.357e-05
6.52543e-05
7.39719e-05
6.52795e-05
7.3647e-05
7.15948e-05
7.15719e-05
7.1584e-05
6.26257e-05
5.69889e-05
5.57931e-05
5.70464e-05
6.10278e-05
6.26448e-05
5.58465e-05
5.57869e-05
5.69701e-05
6.25991e-05
5.70336e-05
6.10207e-05
5.58426e-05
6.26228e-05
3.50027e-05
3.50071e-05
4.12933e-05
3.50699e-05
3.50653e-05
2.70744e-05
2.69785e-05
6.66005e-05
6.01106e-05
6.01038e-05
5.44833e-05
6.02063e-05
6.02061e-05
6.6453e-05
6.60143e-05
5.98484e-05
5.4302e-05
5.98479e-05
5.98579e-05
6.59511e-05
5.98558e-05
6.67842e-05
5.46927e-05
6.0512e-05
6.05157e-05
6.03863e-05
6.039e-05
6.69604e-05
6.66059e-05
6.01272e-05
6.01325e-05
5.45034e-05
6.0218e-05
6.64595e-05
6.02194e-05
6.69269e-05
5.48927e-05
6.0573e-05
6.05871e-05
6.05732e-05
6.05873e-05
6.69163e-05
5.69837e-05
6.26676e-05
5.57904e-05
6.10609e-05
6.26815e-05
5.57895e-05
5.69906e-05
5.70002e-05
5.57914e-05
6.26889e-05
6.10723e-05
5.57931e-05
6.27203e-05
5.70024e-05
6.63204e-05
6.00596e-05
6.00621e-05
5.4458e-05
6.00857e-05
6.62585e-05
6.00854e-05
6.67533e-05
5.47825e-05
6.04355e-05
6.0452e-05
5.79489e-05
6.49704e-05
6.07681e-05
6.44367e-05
6.07714e-05
6.44217e-05
5.79337e-05
6.43579e-05
6.48941e-05
5.78996e-05
6.48947e-05
6.07141e-05
6.07018e-05
6.43578e-05
5.79378e-05
6.07739e-05
6.5023e-05
6.44478e-05
6.07726e-05
5.79443e-05
6.4469e-05
5.79095e-05
6.07302e-05
6.50129e-05
6.44068e-05
6.07459e-05
5.79098e-05
6.44509e-05
6.60903e-05
5.99599e-05
5.99624e-05
5.43187e-05
6.62792e-05
5.98783e-05
5.98767e-05
4.12524e-05
3.50005e-05
4.13165e-05
3.50708e-05
3.50669e-05
2.70733e-05
2.69774e-05
4.12445e-05
3.49971e-05
4.13225e-05
3.50686e-05
3.50635e-05
2.70718e-05
2.69792e-05
4.1256e-05
3.50058e-05
4.13334e-05
3.50738e-05
3.50696e-05
2.70747e-05
2.69799e-05
4.13684e-05
3.52265e-05
3.5224e-05
3.51454e-05
3.51406e-05
2.71737e-05
2.72735e-05
4.14235e-05
3.52353e-05
3.52365e-05
3.51531e-05
3.51506e-05
2.71722e-05
2.72714e-05
4.14015e-05
3.52335e-05
3.51475e-05
3.51534e-05
2.71738e-05
2.72764e-05
4.14146e-05
3.5236e-05
3.51477e-05
3.51506e-05
2.717e-05
2.72713e-05
5.69781e-05
5.57515e-05
6.26343e-05
6.10544e-05
6.27333e-05
5.57642e-05
5.69637e-05
5.80142e-05
6.08459e-05
6.45074e-05
6.51814e-05
6.09198e-05
6.46157e-05
5.79775e-05
5.70768e-05
6.11169e-05
6.29035e-05
5.587e-05
6.28033e-05
5.58435e-05
5.71019e-05
5.81281e-05
6.52601e-05
6.48022e-05
6.11064e-05
6.10323e-05
6.47029e-05
5.81743e-05
5.80288e-05
6.08473e-05
6.45381e-05
6.51416e-05
6.08753e-05
6.46068e-05
5.80087e-05
5.70027e-05
5.57745e-05
6.26855e-05
6.10952e-05
5.57891e-05
6.27571e-05
5.69933e-05
5.70865e-05
6.11342e-05
5.58858e-05
6.2865e-05
5.58662e-05
6.27938e-05
5.70998e-05
5.81075e-05
6.51752e-05
6.47141e-05
6.09762e-05
6.09419e-05
6.46473e-05
5.81303e-05
6.67129e-05
5.46194e-05
6.04003e-05
6.04077e-05
6.03283e-05
6.03382e-05
6.6788e-05
6.62053e-05
6.00262e-05
5.44136e-05
6.0034e-05
6.00114e-05
6.00041e-05
6.6211e-05
6.61972e-05
5.99854e-05
5.44201e-05
5.99907e-05
6.61832e-05
6.0011e-05
6.00044e-05
6.61212e-05
5.99851e-05
5.43805e-05
5.99896e-05
6.61506e-05
5.99684e-05
5.99654e-05
6.60931e-05
5.43913e-05
5.99511e-05
5.99525e-05
5.99676e-05
6.60785e-05
5.99658e-05
5.69754e-05
5.57478e-05
6.2623e-05
6.09739e-05
6.26177e-05
5.57724e-05
5.69481e-05
5.79584e-05
6.07953e-05
6.49746e-05
6.44367e-05
6.44394e-05
6.07826e-05
5.79842e-05
5.79642e-05
6.07803e-05
6.44557e-05
6.49866e-05
6.44438e-05
6.07842e-05
5.79485e-05
5.69653e-05
5.58038e-05
6.09821e-05
6.26212e-05
6.26216e-05
5.57678e-05
5.70037e-05
5.69509e-05
5.57387e-05
6.25797e-05
6.09607e-05
6.25763e-05
5.57646e-05
5.69199e-05
5.69428e-05
5.57988e-05
6.09713e-05
6.2589e-05
6.25837e-05
5.57606e-05
5.69884e-05
5.69434e-05
5.57569e-05
6.26263e-05
6.09882e-05
5.6962e-05
6.26387e-05
5.57433e-05
5.7969e-05
6.07824e-05
6.50244e-05
6.44846e-05
6.07857e-05
6.44809e-05
5.79637e-05
5.79495e-05
6.07843e-05
6.44639e-05
6.50256e-05
6.0782e-05
5.7958e-05
6.44785e-05
5.69682e-05
5.57602e-05
6.09987e-05
6.26629e-05
6.26463e-05
5.57642e-05
5.69593e-05
5.69158e-05
5.57474e-05
6.25836e-05
6.09763e-05
5.69334e-05
6.26025e-05
5.57339e-05
5.79237e-05
6.07774e-05
6.49833e-05
6.44885e-05
6.44357e-05
6.07334e-05
5.79364e-05
5.78896e-05
6.06735e-05
6.43818e-05
6.49421e-05
5.78964e-05
6.44108e-05
6.06835e-05
5.69495e-05
5.57539e-05
6.09898e-05
6.26634e-05
6.26206e-05
5.57566e-05
5.69458e-05
6.61517e-05
5.43435e-05
5.99936e-05
6.00011e-05
5.99263e-05
6.63071e-05
5.99178e-05
6.60786e-05
5.99184e-05
5.4357e-05
5.99138e-05
6.61131e-05
5.9916e-05
5.99193e-05
6.61822e-05
5.43902e-05
6.00046e-05
6.00103e-05
6.62191e-05
5.99952e-05
5.99882e-05
6.61625e-05
5.99441e-05
5.43493e-05
5.99369e-05
6.61336e-05
5.99539e-05
5.99466e-05
6.60669e-05
5.99541e-05
5.99544e-05
5.4387e-05
6.60682e-05
5.99498e-05
5.99472e-05
6.60792e-05
5.44193e-05
5.99783e-05
5.99855e-05
6.61377e-05
5.99597e-05
5.99635e-05
6.65628e-05
5.45396e-05
6.00713e-05
6.00809e-05
6.6321e-05
6.01999e-05
6.02054e-05
5.70355e-05
6.1078e-05
6.272e-05
5.58437e-05
6.26929e-05
5.58397e-05
5.7032e-05
5.79814e-05
6.07848e-05
6.44829e-05
6.50163e-05
6.4484e-05
5.7986e-05
6.07811e-05
5.69906e-05
5.57968e-05
6.10634e-05
6.26693e-05
6.26828e-05
5.69977e-05
5.57958e-05
5.8007e-05
6.45048e-05
6.50146e-05
6.07942e-05
6.44886e-05
6.07857e-05
5.80089e-05
5.70774e-05
6.11e-05
6.28244e-05
5.58609e-05
6.27669e-05
5.58525e-05
5.70859e-05
5.80294e-05
6.08709e-05
6.4522e-05
6.51669e-05
5.80052e-05
6.45891e-05
6.09272e-05
5.70057e-05
5.57952e-05
6.10798e-05
6.26879e-05
5.70027e-05
6.2739e-05
5.57986e-05
5.81176e-05
6.4711e-05
6.52233e-05
6.10796e-05
6.46361e-05
5.81456e-05
6.10231e-05
5.70981e-05
6.27505e-05
5.58988e-05
6.11883e-05
5.70895e-05
6.28241e-05
5.591e-05
5.82007e-05
6.11719e-05
6.52879e-05
6.48645e-05
6.10725e-05
6.47584e-05
5.82517e-05
5.80912e-05
6.45524e-05
6.08427e-05
6.51705e-05
6.09289e-05
5.80611e-05
6.46594e-05
5.71855e-05
6.12334e-05
6.29811e-05
5.59963e-05
6.28896e-05
5.59806e-05
5.72047e-05
5.71731e-05
6.28558e-05
5.59233e-05
6.12196e-05
5.71652e-05
6.29193e-05
5.59349e-05
5.83279e-05
6.12429e-05
6.54115e-05
6.48923e-05
6.48595e-05
6.12351e-05
5.83343e-05
5.82573e-05
6.47615e-05
6.11578e-05
6.53864e-05
5.82363e-05
6.48242e-05
6.11951e-05
5.72474e-05
6.12553e-05
6.30004e-05
5.6013e-05
6.29519e-05
5.60026e-05
5.72485e-05
6.67282e-05
5.46353e-05
6.04171e-05
6.04251e-05
6.03476e-05
6.03442e-05
6.68241e-05
6.69202e-05
5.48218e-05
6.05043e-05
6.05155e-05
6.05404e-05
6.68859e-05
6.0554e-05
5.79762e-05
6.44819e-05
6.07812e-05
6.50182e-05
6.44832e-05
6.07789e-05
5.79804e-05
5.70283e-05
6.10725e-05
6.27061e-05
5.58352e-05
6.26885e-05
5.58329e-05
5.7024e-05
5.80027e-05
6.50156e-05
6.4493e-05
6.07955e-05
6.44849e-05
6.07858e-05
5.80034e-05
5.8016e-05
6.45239e-05
6.08501e-05
6.51048e-05
6.45499e-05
6.08681e-05
5.80079e-05
5.7058e-05
6.10864e-05
5.58466e-05
6.2765e-05
5.58421e-05
6.27348e-05
5.70577e-05
5.80699e-05
6.51191e-05
6.45968e-05
6.09376e-05
6.45654e-05
5.80814e-05
6.09146e-05
5.70846e-05
6.27293e-05
5.58858e-05
6.11551e-05
5.70781e-05
6.27894e-05
5.58947e-05
5.81873e-05
6.11679e-05
6.5272e-05
6.48547e-05
6.10657e-05
6.47313e-05
5.82416e-05
5.80792e-05
6.45249e-05
6.08419e-05
6.51462e-05
6.09218e-05
5.8051e-05
6.46183e-05
5.717e-05
6.11976e-05
6.29632e-05
5.59808e-05
6.28573e-05
5.5962e-05