/*--------------------------------*- C++ -*----------------------------------*\
| =========                 |                                                 |
| \\      /  F ield         | OpenFOAM: The Open Source CFD Toolbox           |
|  \\    /   O peration     | Version:  v2006                                 |
|   \\  /    A nd           | Website:  www.openfoam.com                      |
|    \\/     M anipulation  |                                                 |
\*---------------------------------------------------------------------------*/
FoamFile
{
    version     2.0;
    format      ascii;
    class       volScalarField;
    location    "875";
    object      nut;
}
// * * * * * * * * * * * * * * * * * * * * * * * * * * * * * * * * * * * * * //

dimensions      [0 2 -1 0 0 0 0];


internalField   nonuniform List<scalar> 
14361
(
0.000210898
0.000223416
0.000104983
0.000147245
7.8651e-05
2.39753e-05
5.09241e-05
0.000100825
0.000106874
4.88408e-05
4.88408e-05
0.000106761
0.000106904
0.000131387
4.8851e-05
7.86889e-05
0.000131517
0.000106794
4.88498e-05
8.25804e-05
2.17891e-05
2.17921e-05
2.17865e-05
8.24912e-05
2.17892e-05
2.39752e-05
2.03844e-05
7.96647e-05
5.09228e-05
7.96956e-05
2.03848e-05
3.68369e-05
0.000100847
9.53183e-05
4.11929e-05
9.535e-05
3.68371e-05
4.1193e-05
0.000141688
0.000166874
0.000167094
0.000141505
0.000165658
0.000151377
0.000124856
0.000105042
0.000165513
0.000151501
0.00012494
0.000177247
0.000147329
0.000182737
0.00014034
0.000177069
0.000182893
0.000140434
0.000210466
0.000188738
0.0002102
0.000210477
0.000189342
0.000224023
0.00022421
7.88982e-05
2.39691e-05
0.000105215
0.000147362
5.09234e-05
0.000100933
0.000105176
0.000147347
5.09142e-05
0.000100923
2.39774e-05
7.85349e-05
7.86095e-05
2.3976e-05
0.000222651
0.00010494
0.000147216
0.000222724
0.000105096
0.000147236
5.09244e-05
0.00010082
5.09108e-05
0.000100821
7.88502e-05
7.87853e-05
2.39674e-05
2.39671e-05
0.00013195
4.88154e-05
0.000107505
2.1756e-05
2.17593e-05
8.27383e-05
7.99369e-05
2.03812e-05
9.55097e-05
4.1192e-05
3.68346e-05
7.98819e-05
2.03807e-05
4.11924e-05
9.54747e-05
3.68331e-05
0.000131114
4.884e-05
0.000106643
0.000131259
4.88511e-05
0.000106688
2.1792e-05
2.17954e-05
8.23882e-05
2.0386e-05
5.09229e-05
7.96559e-05
7.96119e-05
2.03865e-05
3.68371e-05
0.000100771
9.53113e-05
4.11931e-05
9.52563e-05
4.11925e-05
3.68377e-05
2.03818e-05
5.09163e-05
7.97066e-05
7.96637e-05
2.03815e-05
3.68332e-05
0.000100784
9.5335e-05
4.11922e-05
9.5297e-05
4.11918e-05
3.68332e-05
0.000131718
4.87996e-05
0.000106771
0.000107094
0.000131646
7.87431e-05
4.87889e-05
0.00010671
0.000131599
4.88044e-05
2.1757e-05
2.17543e-05
8.19015e-05
2.39688e-05
0.000166489
0.000166589
0.000141312
0.000141906
0.000189022
0.000167174
0.000167122
0.000141859
0.00016696
0.00016694
0.000226354
0.000226354
0.000151686
0.000125176
0.000165787
0.00014057
0.000182665
0.000177148
0.000151551
0.000125129
0.000165693
0.000182643
0.000140525
0.00017709
0.000165161
0.000151188
0.000104818
0.000124818
0.000165337
0.00015099
0.000124665
0.000176706
0.000147045
0.000182535
0.000140312
0.000176881
0.000182366
0.000140132
0.000165386
0.00015149
0.000105022
0.000124972
0.000124855
0.000151356
0.000165602
0.000176803
0.00014708
0.00018258
0.000140388
0.000182398
0.000140257
0.000177024
0.000100114
0.000145954
0.000100096
0.000145933
3.67839e-05
0.000100157
9.45862e-05
4.1141e-05
9.46123e-05
4.11389e-05
3.6787e-05
3.67802e-05
0.000100143
4.11402e-05
9.45325e-05
4.11381e-05
9.45691e-05
3.67834e-05
0.000222089
0.000220597
0.000208068
0.000186327
7.80424e-05
7.80539e-05
0.000208244
0.000220581
0.000208193
0.000220566
0.000185909
2.39493e-05
7.7989e-05
2.39509e-05
7.79969e-05
0.000188195
0.000208224
0.000207963
0.000209602
0.000210463
0.000186379
2.39699e-05
0.000189575
0.000146038
0.000146036
0.000209552
0.000209993
0.000100099
0.000207909
0.000100086
0.000210563
0.000186589
2.39629e-05
0.00022058
5.08869e-05
0.000100242
2.39686e-05
0.000221428
0.00010408
0.000163598
0.000104113
0.000103932
0.000207938
0.00020784
9.99878e-05
0.000207953
0.000220486
5.08529e-05
0.000100176
0.000186037
2.39668e-05
0.000100101
5.0839e-05
5.08532e-05
0.000100105
2.39375e-05
2.39483e-05
0.000100324
5.08634e-05
0.000100279
5.08968e-05
2.39666e-05
2.3973e-05
0.000100301
5.08607e-05
0.000100297
5.08893e-05
0.000224368
0.000224281
0.000224303
0.000223648
0.000224224
0.000207918
0.000145601
0.000104058
0.000146474
0.000208695
0.000104719
0.000220959
2.39583e-05
2.39693e-05
0.000220609
0.000104193
0.00014584
0.00014657
0.000208574
0.000221105
0.000104529
7.81686e-05
7.81057e-05
0.000187831
7.85702e-05
7.85784e-05
2.3941e-05
2.39466e-05
2.39471e-05
2.39405e-05
7.78863e-05
0.000186796
0.000186765
7.79025e-05
7.80472e-05
2.39534e-05
2.39472e-05
2.39477e-05
2.39538e-05
0.000186627
7.8039e-05
0.000186712
7.80239e-05
7.80535e-05
0.000100064
0.000100089
0.000208188
0.000220618
0.000220643
0.000145794
0.000103997
0.000104112
0.000145853
0.000220641
0.00014575
0.000145836
0.000100116
5.08602e-05
5.08546e-05
0.00010028
0.000100073
5.088e-05
5.08511e-05
0.000100278
0.00022063
0.000208204
0.000220672
0.000145778
0.000104184
0.000104131
0.000145984
0.000207893
0.000207831
0.000220581
0.000145715
0.000104083
0.000103772
0.000145944
2.39649e-05
2.39504e-05
0.000186115
7.80203e-05
7.80654e-05
7.77301e-05
2.39678e-05
7.77395e-05
7.7934e-05
7.78799e-05
0.000186356
2.39491e-05
2.39569e-05
0.000186519
7.79128e-05
0.000186188
7.80828e-05
7.80871e-05
2.39613e-05
2.39554e-05
2.39714e-05
2.39554e-05
2.39698e-05
0.000186534
7.79816e-05
0.000186614
7.78102e-05
7.78059e-05
2.39865e-05
2.39756e-05
2.39857e-05
2.39739e-05
0.000186625
7.86143e-05
7.85829e-05
7.79038e-05
7.78494e-05
0.000100405
5.08873e-05
0.000100286
5.09139e-05
0.000220836
0.000146258
0.000104161
0.00020831
0.000146015
0.000104036
0.000221114
0.000220718
0.000146361
0.000104141
0.00020873
0.000145988
0.000104618
0.000221179
0.000100348
5.09476e-05
5.09109e-05
0.000100724
0.000100426
5.09225e-05
5.09182e-05
0.000100737
0.000146282
0.000208576
0.000104788
0.000222269
0.000103985
0.000221569
0.000146914
0.00014641
0.000209731
0.000105025
0.000222532
0.000104722
0.000221815
0.000146999
7.81377e-05
7.81458e-05
0.0001878
7.84853e-05
7.85632e-05
2.39761e-05
2.39698e-05
2.39726e-05
0.000188387
7.87575e-05
7.8565e-05
7.86641e-05
2.39754e-05
0.000104172
0.000208245
0.000220817
0.000146263
0.000208304
0.000104036
0.000221093
0.000100308
5.08695e-05
0.000100352
5.08936e-05
0.000220775
0.000208141
0.000104223
0.000146336
0.000208549
0.000221155
0.000104344
0.000100281
5.09495e-05
5.09042e-05
0.000100653
0.000146245
0.000208557
0.000104726
0.000222175
0.00010395
0.0002215
0.000146753
0.000100327
5.09321e-05
5.09029e-05
0.000100648
0.000146327
0.000209191
0.000222311
0.000104788
0.000221644
0.000104353
0.000146786
5.09e-05
0.000100592
5.09293e-05
0.000220608
0.000145585
0.000103977
0.000146468
0.000208656
0.000220939
0.000104727
5.08934e-05
0.000100588
5.09234e-05
0.000146694
0.000209793
0.000222769
0.000104863
0.000221888
0.000100687
5.09317e-05
0.000146688
0.000209714
0.000222725
0.000221847
0.000104868
0.000100683
5.09253e-05
7.81068e-05
7.80758e-05
0.000187328
7.81891e-05
7.83117e-05
2.39721e-05
2.3971e-05
0.000187631
7.82337e-05
7.83727e-05
2.3973e-05
0.000207939
0.000145795
0.000104112
0.000146597
0.000208739
0.000221076
0.000104757
0.000100247
0.000100595
5.09108e-05
5.08963e-05
0.000100614
5.09176e-05
0.000146694
0.000209372
0.00022186
0.00010459
0.00014674
0.000209777
0.000221916
0.000104867
0.000100643
5.09154e-05
0.000100668
5.09183e-05
2.39669e-05
2.39737e-05
2.39729e-05
0.000188395
7.86616e-05
7.86366e-05
2.39731e-05
2.39717e-05
5.08512e-05
5.08339e-05
0.000100051
0.00010006
0.00022366
0.000223914
0.000223867
0.000223612
0.000221363
0.000103831
0.000207956
0.000145593
0.0002205
0.000123528
0.000208269
0.000208217
0.000145717
0.000220642
0.000145792
0.000220612
5.08215e-05
5.08482e-05
0.000100023
0.000100039
0.000103881
0.000208072
0.000207961
0.000145673
0.00022061
0.000145765
0.000220558
5.08529e-05
0.000100294
5.08585e-05
0.000100086
0.000208211
0.000145993
0.00010419
0.000208225
0.000220666
0.000145711
0.000220625
5.08519e-05
0.000100298
5.08666e-05
0.00010006
0.000145983
0.000220596
0.000207978
0.000207948
0.000104215
0.000145662
0.000220557
0.000220586
0.00020784
0.000145567
0.000103955
0.000220609
0.000100007
5.08876e-05
0.000220592
0.000145553
0.000103809
0.000207879
0.000220608
0.000103735
5.08798e-05
5.08337e-05
0.00014559
0.000220511
5.08465e-05
9.9954e-05
9.99477e-05
0.000220491
0.00010384
0.000207938
0.000104165
0.000145757
0.000145535
0.000220478
0.000207801
0.000145707
0.000103977
0.000145525
0.00020786
0.000220479
0.000103679
5.08812e-05
0.000100192
9.99354e-05
5.0886e-05
9.99153e-05
5.08426e-05
7.80329e-05
7.79374e-05
0.000185903
7.76064e-05
7.75809e-05
2.39646e-05
2.39466e-05
2.39481e-05
0.000105657
7.80015e-05
0.00012984
4.87428e-05
4.87417e-05
0.0001057
0.000129789
0.000105454
0.000129832
7.80684e-05
4.87423e-05
0.000105583
4.87426e-05
0.000129838
2.39525e-05
0.000105441
0.000129499
7.80505e-05
4.87458e-05
0.000105393
4.87536e-05
0.000129666
2.39553e-05
0.000104853
0.000129648
4.87527e-05
7.79574e-05
0.000105018
4.87683e-05
0.000129571
2.39741e-05
3.68324e-05
9.4649e-05
4.11773e-05
0.000100302
9.48553e-05
4.11842e-05
3.68258e-05
3.68305e-05
4.11775e-05
9.46183e-05
0.000100294
4.11844e-05
9.48366e-05
3.68239e-05
2.3967e-05
2.03821e-05
7.92223e-05
5.08966e-05
7.93202e-05
2.03784e-05
3.68284e-05
9.47651e-05
4.11772e-05
0.000100408
9.49352e-05
4.11831e-05
3.68229e-05
2.39722e-05
3.68103e-05
4.11728e-05
9.45039e-05
9.99074e-05
3.68196e-05
4.11642e-05
9.43548e-05
2.03716e-05
5.08646e-05
7.89835e-05
2.03666e-05
7.90879e-05
3.68123e-05
9.4695e-05
4.11741e-05
0.000100004
3.68201e-05
9.45139e-05
4.11664e-05
2.39602e-05
3.67971e-05
4.11557e-05
9.46659e-05
0.000100076
4.11509e-05
9.46016e-05
3.68014e-05
2.03604e-05
5.08461e-05
7.90292e-05
7.91103e-05
2.0357e-05
2.03609e-05
7.91741e-05
5.08488e-05
7.91375e-05
2.03634e-05
3.67952e-05
0.000100098
4.11447e-05
9.45924e-05
4.11488e-05
9.46003e-05
3.67909e-05
2.39421e-05
2.39437e-05
3.68227e-05
0.000100282
4.11846e-05
9.46976e-05
4.11786e-05
9.46627e-05
3.68301e-05
2.03756e-05
7.91138e-05
5.08709e-05
2.03712e-05
7.90775e-05
3.68196e-05
0.000100304
4.11713e-05
9.47384e-05
3.68143e-05
4.1176e-05
9.47146e-05
2.03776e-05
7.90413e-05
5.08805e-05
7.90021e-05
2.03837e-05
2.39706e-05
2.39712e-05
3.6818e-05
4.11695e-05
9.47615e-05
0.000100323
9.47512e-05
4.11738e-05
3.68133e-05
2.0375e-05
7.9131e-05
5.08662e-05
7.90964e-05
2.03711e-05
3.68211e-05
0.0001003
9.46583e-05
4.11824e-05
9.46985e-05
4.11764e-05
3.68286e-05
2.0377e-05
5.08738e-05
7.89774e-05
7.9018e-05
2.03831e-05
2.39626e-05
2.39645e-05
0.000106361
0.000129942
4.88276e-05
7.83421e-05
0.000130433
4.88357e-05
0.000105983
8.23695e-05
2.1791e-05
2.17899e-05
2.17913e-05
2.1792e-05
8.20946e-05
0.000106305
0.000129812
4.88122e-05
7.82952e-05
0.00013033
4.88242e-05
0.000105919
8.25461e-05
2.17866e-05
2.17847e-05
2.17897e-05
2.17893e-05
8.27028e-05
0.000106584
7.84389e-05
4.88386e-05
0.000131076
0.000130719
4.88328e-05
0.000106824
0.000106616
7.84545e-05
4.88304e-05
0.000131113
0.000130776
4.8834e-05
0.000106839
2.39441e-05
2.39445e-05
2.39448e-05
2.3944e-05
0.000105612
7.79497e-05
0.000129746
4.87348e-05
4.87405e-05
0.000129778
0.000105546
8.16801e-05
2.17434e-05
2.17416e-05
2.17415e-05
2.17431e-05
8.16698e-05
0.000105552
0.000129719
7.7973e-05
4.87247e-05
4.87273e-05
0.000129747
0.000105506
0.00010559
0.000129813
4.87283e-05
7.80149e-05
4.87275e-05
0.000105647
0.000129757
8.16275e-05
2.17421e-05
2.17418e-05
2.17425e-05
2.17435e-05
8.15752e-05
2.39503e-05
2.39494e-05
2.39498e-05
2.39507e-05
0.000105302
7.80631e-05
0.000129745
4.87465e-05
4.87432e-05
0.000105202
0.00012977
8.12396e-05
2.17424e-05
2.17405e-05
8.14636e-05
2.17411e-05
2.17433e-05
0.000105291
0.000129705
7.80566e-05
4.87328e-05
4.87289e-05
0.00012974
0.000105178
0.000105439
0.000129807
4.8728e-05
7.80663e-05
0.000105561
4.87282e-05
0.000129815
8.10503e-05
2.17527e-05
2.17505e-05
2.17429e-05
2.17453e-05
8.0895e-05
3.67942e-05
4.11556e-05
9.45448e-05
0.000100049
4.11504e-05
9.45073e-05
3.68e-05
3.67918e-05
0.000100078
4.1144e-05
9.45415e-05
4.11482e-05
9.45249e-05
3.67868e-05
3.68069e-05
4.11579e-05
9.46871e-05
0.000100198
3.6803e-05
4.11627e-05
9.47444e-05
2.03669e-05
5.08579e-05
7.91526e-05
2.037e-05
7.91707e-05
2.03663e-05
7.91751e-05
5.08569e-05
2.03638e-05
7.91868e-05
3.68084e-05
0.000100218
4.11692e-05
9.4758e-05
3.68123e-05
4.11647e-05
9.47459e-05
3.68084e-05
4.11581e-05
9.45638e-05
0.000100163
3.68026e-05
4.11636e-05
9.46574e-05
2.03709e-05
5.08687e-05
7.91718e-05
7.91125e-05
2.03746e-05
2.03697e-05
7.9054e-05
5.08623e-05
2.03658e-05
7.91185e-05
3.68109e-05
0.000100187
4.1171e-05
9.47643e-05
4.11659e-05
9.46789e-05
3.68162e-05
2.39594e-05
2.39569e-05
0.00010512
7.78599e-05
0.000129541
4.88149e-05
4.8795e-05
0.000105512
0.000129146
0.000105166
0.000129617
7.79326e-05
4.8805e-05
0.000129236
4.87867e-05
0.000105549
0.000104887
0.000128918
4.87481e-05
7.78613e-05
0.000129025
0.000104553
4.87703e-05
8.14121e-05
2.1793e-05
2.17901e-05
2.17826e-05
2.17856e-05
8.16883e-05
2.39612e-05
0.000105173
7.77366e-05
4.87313e-05
0.000129345
0.000105245
7.78089e-05
0.00012945
4.87421e-05
4.87328e-05
0.000105367
0.000129318
0.000105258
7.7781e-05
0.000129445
4.87514e-05
4.87391e-05
0.000105364
0.000129343
8.14164e-05
2.17533e-05
2.17555e-05
2.17499e-05
2.17516e-05
8.14429e-05
2.39442e-05
2.39535e-05
0.000105423
0.000129474
7.799e-05
4.87564e-05
0.000105387
4.87657e-05
0.00012963
0.000105397
0.000129793
7.80137e-05
4.87822e-05
4.87707e-05
0.00010542
0.000129652
0.000105418
7.80603e-05
0.000129829
4.87661e-05
4.87574e-05
0.000105443
0.000129699
8.14209e-05
2.17543e-05
2.17567e-05
8.14422e-05
2.17579e-05
2.17608e-05
8.13694e-05
2.17694e-05
2.17656e-05
2.17598e-05
2.17629e-05
8.13246e-05
2.3957e-05
2.39603e-05
2.39635e-05
2.39601e-05
2.39627e-05
8.05606e-05
2.1799e-05
2.17968e-05
2.17835e-05
2.1783e-05
8.11054e-05
0.000104782
0.000129611
4.87408e-05
7.79312e-05
0.000105008
4.87599e-05
0.000129516
8.05353e-05
2.17586e-05
2.17573e-05
8.07192e-05
2.17718e-05
2.17725e-05
0.000104599
4.88165e-05
7.78556e-05
0.000129257
4.87841e-05
0.000104779
0.000129336
0.000104592
7.786e-05
4.88045e-05
0.000129237
4.87823e-05
0.000104764
0.000129339
2.39844e-05
2.39823e-05
2.3983e-05
2.39807e-05
8.20609e-05
2.18072e-05
2.18046e-05
8.15807e-05
2.18146e-05
2.1812e-05
0.000106491
0.000131175
7.84056e-05
4.88895e-05
4.88803e-05
0.000130605
0.000106955
0.000106446
0.000131116
7.83598e-05
4.88757e-05
4.88657e-05
0.000130539
0.000106919
0.000105975
4.88422e-05
0.000129435
7.81879e-05
0.000105343
4.8866e-05
0.000130057
0.000105929
4.88271e-05
0.00012939
7.81338e-05
0.000105295
4.88509e-05
0.00012999
8.24777e-05
2.18167e-05
2.18141e-05
2.18164e-05
2.18138e-05
8.28442e-05
3.68254e-05
0.00010034
4.11854e-05
9.49481e-05
4.11803e-05
9.48523e-05
3.683e-05
2.03792e-05
7.91648e-05
5.08983e-05
2.03757e-05
7.92523e-05
3.68234e-05
0.000100347
4.11732e-05
9.47736e-05
4.11781e-05
3.68184e-05
9.48451e-05
2.03799e-05
7.93799e-05
5.09053e-05
7.92699e-05
2.03824e-05
3.68403e-05
4.11878e-05
9.47699e-05
0.000100506
3.68342e-05
4.1193e-05
9.49691e-05
2.03915e-05
5.09384e-05
7.96641e-05
2.03928e-05
7.95054e-05
2.03911e-05
7.91745e-05
5.09274e-05
2.03863e-05
7.93739e-05
3.68423e-05
0.000100583
4.11979e-05
9.52502e-05
3.68447e-05
4.11952e-05
9.50792e-05
3.68346e-05
4.11878e-05
9.49902e-05
0.000100565
3.68315e-05
4.11922e-05
9.51249e-05
2.0383e-05
5.09226e-05
7.96442e-05
7.95808e-05
2.03833e-05
2.03837e-05
7.94256e-05
5.09221e-05
2.03825e-05
7.953e-05
3.68349e-05
0.000100622
4.11956e-05
9.52702e-05
4.11937e-05
9.51765e-05
3.68355e-05
0.000106208
0.000129855
4.88284e-05
7.82987e-05
0.000130306
0.000105824
4.88409e-05
8.24625e-05
2.17932e-05
2.17968e-05
2.17949e-05
2.17981e-05
8.26761e-05
0.000106228
0.000129911
4.88171e-05
7.82784e-05
4.88284e-05
0.000105858
0.000130323
8.22152e-05
2.17957e-05
2.17926e-05
2.17953e-05
8.19316e-05
2.17985e-05
0.000106504
4.88364e-05
7.83645e-05
0.000130995
4.88332e-05
0.000130641
0.000106765
0.000106501
7.84205e-05
4.88504e-05
0.000131054
0.000130659
4.88469e-05
0.000106776
2.39748e-05
2.39711e-05
2.39728e-05
8.30425e-05
2.17855e-05
2.17895e-05
8.28424e-05
2.17784e-05
2.17824e-05
0.000107372
0.000131802
7.8691e-05
4.88045e-05
0.000131623
4.882e-05
0.000107457
0.000107413
7.88112e-05
4.88333e-05
0.000131758
0.00010719
4.8836e-05
0.000131222
7.86438e-05
0.000131461
0.000106946
4.88332e-05
0.000107214
4.88505e-05
0.000131307
7.87507e-05
0.000106969
4.88475e-05
0.000131563
8.31169e-05
2.17644e-05
2.1768e-05
2.39714e-05
2.39748e-05
3.68186e-05
4.11702e-05
9.48021e-05
0.000100349
4.11745e-05
9.48197e-05
3.6814e-05
2.03755e-05
7.91832e-05
5.08759e-05
7.91666e-05
2.03721e-05
3.68209e-05
0.000100334
4.11823e-05
9.48039e-05
4.11769e-05
9.4792e-05
3.68268e-05
2.03769e-05
5.08816e-05
7.91349e-05
7.91181e-05
2.03817e-05
3.68413e-05
9.46613e-05
4.11863e-05
0.000100391
3.68334e-05
9.48531e-05
4.11931e-05
2.03937e-05
5.09372e-05
7.96032e-05
2.03962e-05
7.94066e-05
2.03924e-05
7.90219e-05
5.09231e-05
2.03859e-05
7.92544e-05
3.68447e-05
0.000100479
9.51864e-05
4.12012e-05
3.68489e-05
9.49812e-05
4.11966e-05
3.68366e-05
4.11856e-05
9.47919e-05
0.000100421
3.68298e-05
4.1192e-05
9.49211e-05
2.03888e-05
5.09238e-05
7.95451e-05
7.94029e-05
2.03909e-05
2.0388e-05
7.91737e-05
5.09155e-05
2.03834e-05
7.93196e-05
3.68391e-05
0.000100486
4.11996e-05
9.51629e-05
4.11951e-05
9.49966e-05
3.6843e-05
2.03861e-05
7.91766e-05
5.09136e-05
7.93439e-05
2.03821e-05
3.68346e-05
0.000100408
9.51529e-05
4.11911e-05
9.49651e-05
4.11872e-05
3.68378e-05
2.03865e-05
5.09221e-05
7.96047e-05
7.94519e-05
2.03879e-05
2.03844e-05
7.91399e-05
5.09079e-05
7.93208e-05
2.03803e-05
3.68329e-05
0.000100403
4.11914e-05
9.51431e-05
4.11875e-05
9.49554e-05
3.68359e-05
2.03848e-05
5.09168e-05
7.95834e-05
7.94345e-05
2.03862e-05
3.68383e-05
9.52517e-05
4.11921e-05
0.000100815
3.6838e-05
9.53733e-05
4.11931e-05
2.03831e-05
5.09303e-05
7.98419e-05
2.03867e-05
7.96979e-05
5.09323e-05
2.03869e-05
7.97877e-05
3.68365e-05
0.000100867
9.54256e-05
4.11927e-05
3.68364e-05
4.11924e-05
9.52393e-05
0.000100809
3.68362e-05
4.11934e-05
9.53536e-05
2.03822e-05
5.09225e-05
7.98036e-05
2.03852e-05
7.96684e-05
5.09254e-05
2.03853e-05
7.97481e-05
3.68348e-05
0.000100859
4.1193e-05
9.5401e-05
0.00010557
0.000129813
4.87901e-05
7.81819e-05
0.000130005
0.000105411
4.88043e-05
0.000105567
0.000129841
4.87729e-05
7.81074e-05
4.87865e-05
0.00010542
0.000129977
8.15757e-05
2.17868e-05
2.17905e-05
2.17805e-05
2.17842e-05
8.17495e-05
8.14433e-05
2.17725e-05
2.1769e-05
2.17772e-05
8.12886e-05
2.1781e-05
0.000105636
7.81106e-05
4.88096e-05
0.000130221
4.87956e-05
0.000130007
0.000105859
0.000105661
7.82188e-05
4.88269e-05
0.000130339
0.000130086
4.88137e-05
0.00010589
2.39684e-05
2.39757e-05
2.3975e-05
8.2078e-05
2.17886e-05
2.17924e-05
8.18935e-05
2.17919e-05
2.17955e-05
0.000106438
7.84269e-05
0.00013084
4.88355e-05
0.000106496
7.85335e-05
4.88482e-05
0.000131006
0.000106263
4.88189e-05
0.000130347
7.83485e-05
0.000130633
0.000106006
4.88298e-05
0.000106314
4.88352e-05
0.000130504
7.84709e-05
0.00010606
4.88443e-05
0.000130804
8.22362e-05
2.1792e-05
2.17955e-05
2.39753e-05
2.39753e-05
3.68283e-05
9.4762e-05
4.11766e-05
0.000100406
9.49088e-05
4.11825e-05
3.68227e-05
3.68301e-05
0.000100458
9.50794e-05
4.11888e-05
9.49449e-05
4.11846e-05
3.68341e-05
2.03828e-05
5.09024e-05
7.94511e-05
7.93531e-05
2.03854e-05
2.03822e-05
7.92375e-05
5.09071e-05
7.93709e-05
2.03792e-05
3.68299e-05
0.000100475
9.51458e-05
4.11891e-05
9.50078e-05
4.11852e-05
3.68328e-05
2.03824e-05
5.09131e-05
7.95402e-05
7.94368e-05
2.03836e-05
3.68372e-05
9.51211e-05
4.11899e-05
0.000100744
3.68351e-05
9.52269e-05
4.11922e-05
2.03868e-05
7.94942e-05
5.09209e-05
2.03854e-05
7.95772e-05
3.68337e-05
9.51989e-05
4.119e-05
0.00010076
3.6833e-05
9.52771e-05
4.11918e-05
2.03833e-05
7.95862e-05
5.09185e-05
2.0383e-05
7.96382e-05
2.39715e-05
2.39724e-05
2.39722e-05
8.28321e-05
2.17769e-05
2.17747e-05
8.286e-05
2.177e-05
2.1768e-05
0.000107132
7.87874e-05
0.00013163
4.88088e-05
0.000107163
4.88369e-05
0.000131313
7.87251e-05
0.000107044
0.000131492
4.88264e-05
0.000107217
4.88275e-05
0.00013129
7.8701e-05
0.000106969
0.000131522
4.88219e-05
8.23425e-05
2.17599e-05
2.17582e-05
2.39691e-05
2.39725e-05
2.39714e-05
2.03609e-05
5.08461e-05
7.91655e-05
7.91097e-05
2.03637e-05
2.03601e-05
5.08423e-05
7.89819e-05
7.90613e-05
2.03561e-05
3.67958e-05
9.4627e-05
4.11545e-05
0.000100017
9.45457e-05
4.11494e-05
3.68006e-05
3.67937e-05
9.45481e-05
4.11427e-05
0.000100044
9.45439e-05
4.11471e-05
3.67888e-05
2.03589e-05
5.08327e-05
7.88818e-05
7.89255e-05
2.03541e-05
2.03604e-05
5.08387e-05
7.91003e-05
7.89964e-05
2.03644e-05
3.67935e-05
4.11545e-05
9.45542e-05
9.99892e-05
4.1149e-05
9.446e-05
3.67995e-05
3.6791e-05
9.44845e-05
4.1142e-05
0.000100021
4.11466e-05
9.44644e-05
3.67855e-05
2.03665e-05
5.08556e-05
7.91762e-05
2.03641e-05
7.91931e-05
3.68078e-05
4.11676e-05
9.47736e-05
0.000100225
3.68114e-05
9.47499e-05
4.11636e-05
2.03671e-05
5.08565e-05
7.91742e-05
2.037e-05
7.91868e-05
3.68063e-05
9.46646e-05
4.11568e-05
0.000100196
3.68024e-05
9.47388e-05
4.11617e-05
2.03679e-05
5.08586e-05
7.91381e-05
2.03651e-05
7.91881e-05
3.68084e-05
4.11685e-05
9.48014e-05
0.000100216
3.68125e-05
4.11642e-05
9.47401e-05
2.03685e-05
5.08613e-05
7.92031e-05
2.03712e-05
7.91951e-05
3.68066e-05
4.1157e-05
9.46057e-05
0.000100183
3.68018e-05
4.11622e-05
9.47148e-05
3.68125e-05
9.45602e-05
4.11727e-05
9.99131e-05
3.68218e-05
9.43888e-05
4.11641e-05
2.03742e-05
5.0871e-05
7.90918e-05
2.03805e-05
7.89308e-05
2.03717e-05
7.90351e-05
5.08624e-05
2.03785e-05
7.88455e-05
2.03688e-05
5.08492e-05
7.88066e-05
2.03623e-05
7.87909e-05
2.03597e-05
5.08341e-05
7.89706e-05
7.88825e-05
2.03649e-05
3.67932e-05
9.44489e-05
9.99743e-05
4.11523e-05
9.44361e-05
4.11464e-05
3.67998e-05
3.67898e-05
9.99707e-05
9.43957e-05
4.11518e-05
9.44267e-05
4.11459e-05
3.67966e-05
2.0373e-05
5.08706e-05
7.92007e-05
2.03774e-05
7.91032e-05
3.68134e-05
9.47317e-05
4.11737e-05
0.000100035
3.68202e-05
9.45862e-05
4.11664e-05
3.68103e-05
9.44514e-05
9.99965e-05
4.11556e-05
3.68031e-05
9.45594e-05
4.11629e-05
2.03734e-05
7.91785e-05
5.08709e-05
2.03782e-05
7.9037e-05
3.68086e-05
9.99605e-05
9.43721e-05
4.11551e-05
3.68002e-05
9.44581e-05
4.11627e-05
2.03716e-05
5.08586e-05
7.8853e-05
2.03654e-05
7.89929e-05
0.000105086
0.000129526
4.88157e-05
7.78322e-05
0.000105586
0.000129023
4.87943e-05
8.14258e-05
2.17893e-05
2.17881e-05
8.1791e-05
2.17815e-05
2.1782e-05
0.000105002
0.000129396
4.87986e-05
7.77238e-05
0.000105505
0.00012891
4.8779e-05
8.10633e-05
2.17641e-05
2.17618e-05
8.06133e-05
2.17761e-05
2.17754e-05
0.000104591
7.76026e-05
4.87435e-05
0.000128932
0.000104413
0.000128822
4.87631e-05
0.000104634
7.7673e-05
4.87394e-05
0.000128843
0.000104383
0.000128827
4.87697e-05
2.39577e-05
2.39542e-05
2.39566e-05
0.000139029
0.000175432
0.000181063
0.000175556
0.000146037
0.000139088
0.000181208
0.000181045
0.000175378
0.00013897
0.000175535
0.000146023
0.000181202
0.000139049
0.000224421
0.00022443
0.000222339
0.000224872
0.00022486
0.000223244
0.000222582
0.000140415
0.000164571
0.000164461
0.000186768
0.000165031
0.000165115
0.000139812
0.000138495
0.000163701
0.000185984
0.000163672
0.000163689
0.000138399
0.000163703
0.000140658
0.000187587
0.000166302
0.00016625
0.000165606
0.000165554
0.000141363
0.000140302
0.000164531
0.000164561
0.000186794
0.000165032
0.00013974
0.000165045
0.00014207
0.000189157
0.000167381
0.000167457
0.000167074
0.000167137
0.00014234
0.000175484
0.000139174
0.000180981
0.00014617
0.00013924
0.000181088
0.000175362
0.000175487
0.000180963
0.000139183
0.000146193
0.000181085
0.000139325
0.000175346
0.000139733
0.000164635
0.000164638
0.000186836
0.000164794
0.000139537
0.000164786
0.000140997
0.000188385
0.000166176
0.000166277
0.000163636
0.000103988
0.000149608
0.000123593
0.000149567
0.000123524
0.000163673
0.00012339
0.000103843
0.000163553
0.00010383
0.000149352
0.000149311
0.000123387
0.000163685
0.000149612
0.00010417
0.000123614
0.000149665
0.000163606
0.00012372
0.000163478
0.000149311
0.000104077
0.000123441
0.000149407
0.000163385
0.000123614
0.000138574
0.000164025
0.000163948
0.00018577
0.00013923
0.000163533
0.000163611
0.000222013
0.000224288
0.000222503
0.00022487
0.000224834
0.000223204
0.000222537
0.000221904
0.000224296
0.000222555
0.000224819
0.000224827
0.000223219
0.000222585
0.000221927
0.000224376
0.000222573
0.000224894
0.000224838
0.000223254
0.000222602
0.000222884
0.000226175
0.00022616
0.00022546
0.000225445
0.000223974
0.000224756
0.00022339
0.000226294
0.000226345
0.000225541
0.00022554
0.000223962
0.000224726
0.000223224
0.000226254
0.000225506
0.000225554
0.000223957
0.00022476
0.000223393
0.000226318
0.000225514
0.000225546
0.000223927
0.000224705
0.000175183
0.000180624
0.000138743
0.000145889
0.000139092
0.000180783
0.000174987
0.000163713
0.000149503
0.000123487
0.000104317
0.000149841
0.000123835
0.000163451
0.000175518
0.000146085
0.000139701
0.000181327
0.0001393
0.000181071
0.000175794
0.000164106
0.000104471
0.000124404
0.000150621
0.000150246
0.000124048
0.000164442
0.000163929
0.00014973
0.000123729
0.000104339
0.000149872
0.000123976
0.000163733
0.000175398
0.000180775
0.000139035
0.000146134
0.00018096
0.000139313
0.000175211
0.000175691
0.000146252
0.000181496
0.000139689
0.000181273
0.000139403
0.000175906
0.000164178
0.000104376
0.000124278
0.000150245
0.000150075
0.000124034
0.000164393
0.00014087
0.000187357
0.000166121
0.000166128
0.000165631
0.000165658
0.000141271
0.000139674
0.000164713
0.000186831
0.000164658
0.000164659
0.000164712
0.000139616
0.000139676
0.000164699
0.000186681
0.000164654
0.000139738
0.000164625
0.000164676
0.000139564
0.000164659
0.000186737
0.000164614
0.00013963
0.000164612
0.000164656
0.000139433
0.000186599
0.000164574
0.000164532
0.000164554
0.000139366
0.000164598
0.000175238
0.000180851
0.000138964
0.000145779
0.000138927
0.000180869
0.00017525
0.000163763
0.00014961
0.000104011
0.000123578
0.000123598
0.0001496
0.00016377
0.000163679
0.000149623
0.000123645
0.000104027
0.000123584
0.000149581
0.000163712
0.000175322
0.000181017
0.00014584
0.000138955
0.000138968
0.000180945
0.000175361
0.000175167
0.000180818
0.000138813
0.000145738
0.000138811
0.000180847
0.000175142
0.000175268
0.000181013
0.000145816
0.000138897
0.000138879
0.000180928
0.000175349
0.000175216
0.000180788
0.000138961
0.000145833
0.00017517
0.000139038
0.000180816
0.000163694
0.000149698
0.000104169
0.000123791
0.000149666
0.000123747
0.000163793
0.000163707
0.000149619
0.000123656
0.000104174
0.000149674
0.000163637
0.000123743
0.00017519
0.00018088
0.000145858
0.000139151
0.00013906
0.000180801
0.000175293
0.000175044
0.000180742
0.000138784
0.000145771
0.000175024
0.000138846
0.000180757
0.000163355
0.000149363
0.000103911
0.000123651
0.000123472
0.000149173
0.000163502
0.000163371
0.000149075
0.000123375
0.000103873
0.000163329
0.00012347
0.000149106
0.000175028
0.000180822
0.000145791
0.000139036
0.000138874
0.000180737
0.00017514
0.000138782
0.000185846
0.000164085
0.000164113
0.000163743
0.000139291
0.000163715
0.000139098
0.000164175
0.000186301
0.0001642
0.000139243
0.000164169
0.000164139
0.000139397
0.000186329
0.000164505
0.00016451
0.000139515
0.000164395
0.000164386
0.000139394
0.0001642
0.000186343
0.000164206
0.000139276
0.000164296
0.000164298
0.000139042
0.000164436
0.000164409
0.000186646
0.000139197
0.000164372
0.000164405
0.000138727
0.000186461
0.000164215
0.000164182
0.000138701
0.000164188
0.000164158
0.000139915
0.000187031
0.0001643
0.000164278
0.000139099
0.00016492
0.000164873
0.00017558
0.000146147
0.000139215
0.000181362
0.000139171
0.000181228
0.000175693
0.000163901
0.000149662
0.000123766
0.000104145
0.000123765
0.000163806
0.000149663
0.000175481
0.000180974
0.000146139
0.000139154
0.000139207
0.000175358
0.000181082
0.000163871
0.000123661
0.000104077
0.000149579
0.000123678
0.000149575
0.000163944
0.000175648
0.000146194
0.000139546
0.000181409
0.000139331
0.000181252
0.000175835
0.000163879
0.000149648
0.000123672
0.000104332
0.000163668
0.000123896
0.000149917
0.000175425
0.000180933
0.000146158
0.000139085
0.000175272
0.000139276
0.000181059
0.000164165
0.000124221
0.000104421
0.000150554
0.000123961
0.000164406
0.000150262
0.000175947
0.000139226
0.000181543
0.000146482
0.000175786
0.00013946
0.000181704
0.000164495
0.000150825
0.000104484
0.000124564
0.000150359
0.0001242
0.000164841
0.000164168
0.000123652
0.000149562
0.00010425
0.00014991
0.000163954
0.00012397
0.000176205
0.000146615
0.000140001
0.000182161
0.000139644
0.000181964
0.000176442
0.00017631
0.000139624
0.000181652
0.000146627
0.000176117
0.000139881
0.000181828
0.000165231
0.000151473
0.000104943
0.000124836
0.000124682
0.000151305
0.00016544
0.000164961
0.000124338
0.00015088
0.000104875
0.000164741
0.000124576
0.000151122
0.000176585
0.000146742
0.000140218
0.000182287
0.000139993
0.00018211
0.000176775
0.000140759
0.000187338
0.000166039
0.000166063
0.000165579
0.000165576
0.000141189
0.000141853
0.000188829
0.000166476
0.000166516
0.000166869
0.000141492
0.000166921
0.000163908
0.000123785
0.000149673
0.000104161
0.000123793
0.000149681
0.000163812
0.000175578
0.000146185
0.000139213
0.000181357
0.00013921
0.000181232
0.000175683
0.00016387
0.000104084
0.000123661
0.000149576
0.000123709
0.00014958
0.000163934
0.000163963
0.000123816
0.000149779
0.000104292
0.000123916
0.000149881
0.00016382
0.00017566
0.000146221
0.000181404
0.000139432
0.000181263
0.000139332
0.000175811
0.000164095
0.000104276
0.000123985
0.000150117
0.000123896
0.000164245
0.000150001
0.000175885
0.000139178
0.000181502
0.000146363
0.000175743
0.000139327
0.000181641
0.000164389
0.000150748
0.000104401
0.000124453
0.000150277
0.000124054
0.000164743
0.000164102
0.00012357
0.000149538
0.00010416
0.000149846
0.000163905
0.000123809
0.000176099
0.000146443
0.000139865
0.000182046
0.000139484