/*--------------------------------*- C++ -*----------------------------------*\
| =========                 |                                                 |
| \\      /  F ield         | OpenFOAM: The Open Source CFD Toolbox           |
|  \\    /   O peration     | Version:  v2006                                 |
|   \\  /    A nd           | Website:  www.openfoam.com                      |
|    \\/     M anipulation  |                                                 |
\*---------------------------------------------------------------------------*/
FoamFile
{
    version     2.0;
    format      ascii;
    class       volScalarField;
    location    "875";
    object      p;
}
// * * * * * * * * * * * * * * * * * * * * * * * * * * * * * * * * * * * * * //

dimensions      [0 2 -2 0 0 0 0];


internalField   nonuniform List<scalar> 
14361
(
0.000434223
0.000434226
0.000436404
0.000436362
0.000436442
0.000436435
0.000436435
0.000436421
0.000431975
0.00043645
0.000431969
0.000436443
0.000431968
0.000436441
0.00043642
0.000431965
0.000431974
0.000436433
0.000431945
0.000431927
0.000436424
0.000436416
0.000431952
0.000436416
0.000431946
0.000431968
0.000431994
0.000436442
0.000431969
0.000431975
0.00043644
0.00043196
0.000431966
0.000436424
0.000436435
0.000431964
0.00043643
0.000431969
0.000432064
0.000436376
0.000432066
0.000436361
0.00043204
0.00043643
0.000436392
0.000431994
0.000436364
0.000431999
0.000432011
0.000432062
0.000432007
0.000436335
0.000436372
0.000436343
0.000432044
0.000432009
0.0004431
0.000441191
0.000443241
0.000443125
0.00044101
0.00044332
0.000443196
0.000440823
0.000440816
0.00044085
0.000440904
0.000440824
0.000440843
0.000440877
0.000440904
0.000440858
0.000440845
0.000440981
0.000440977
0.000440951
0.000440952
0.000443231
0.000440982
0.000440992
0.000443187
0.00044092
0.000440977
0.000440947
0.000440938
0.000440908
0.000440927
0.000440868
0.000440896
0.000440867
0.000440907
0.000440785
0.000440822
0.000440745
0.000440918
0.000440904
0.000440823
0.000440817
0.000440831
0.00044083
0.000440837
0.000440825
0.000440831
0.000440849
0.00044084
0.000440845
0.000440842
0.000441013
0.000440969
0.000440992
0.000440982
0.000440937
0.000440982
0.00044094
0.000440929
0.000440929
0.000445404
0.000445411
0.000440949
0.000445411
0.000440954
0.000445403
0.000445393
0.000440943
0.000440935
0.000445401
0.000445401
0.000440936
0.00044535
0.000445352
0.00044089
0.000445343
0.000440914
0.000445383
0.00044538
0.000440916
0.000440927
0.000445366
0.000445392
0.000440923
0.000440823
0.000440912
0.000440835
0.000445236
0.000440818
0.000445331
0.000440942
0.00044083
0.00044527
0.000445349
0.000440997
0.000441013
0.000440955
0.000445329
0.000441112
0.000441085
0.000441085
0.000445147
0.000445137
0.000440916
0.00044088
0.000440863
0.00044523
0.000445188
0.000443298
0.00044326
0.000440839
0.00044087
0.000440911
0.000440892
0.000440955
0.000440955
0.000440869
0.000440878
0.000440925
0.000440959
0.0004409
0.000440962
0.000445361
0.000441008
0.000445384
0.000441002
0.000441045
0.000445433
0.000445377
0.000445338
0.000445346
0.000441036
0.000441
0.000441062
0.000445327
0.000445359
0.000445265
0.000440877
0.000445312
0.000440931
0.000445306
0.000445291
0.000440954
0.000445282
0.000445331
0.000441018
0.00044096
0.000445308
0.000445317
0.000441006
0.000512259
0.00051228
0.000512259
0.00051228
0.000516704
0.000516676
0.000512259
0.000512269
0.00051668
0.000516706
0.000512268
0.00051671
0.000516675
0.00051227
0.000512267
0.000516706
0.000516685
0.000512276
0.000470072
0.000470106
0.000470064
0.000472159
0.00049441
0.000489951
0.000505517
0.000496663
0.000487729
0.000487805
0.000489865
0.000489982
0.000489983
0.000490004
0.000472257
0.000441279
0.000470025
0.000470091
0.000443335
0.000443139
0.000472153
0.000472236
0.000441011
0.000472149
0.00047215
0.00044336
0.000443283
0.000472281
0.000470109
0.000472281
0.000443099
0.000472076
0.000472228
0.000470092
0.000472231
0.000472237
0.000472202
0.000505559
0.000494452
0.000507665
0.000489922
0.000489957
0.000487843
0.000479007
0.000476776
0.000478934
0.000478976
0.000490016
0.000476729
0.000477013
0.000476704
0.000494465
0.000507769
0.000494438
0.000507774
0.000507801
0.00049445
0.000458916
0.000472262
0.000472224
0.00045896
0.000472228
0.000458816
0.000472202
0.000472248
0.000458934
0.000458963
0.00047009
0.000470119
0.000470121
0.00044338
0.000443204
0.000470115
0.000472254
0.000472237
0.000458938
0.000461155
0.000458854
0.000461169
0.000472231
0.000458909
0.000470079
0.000472199
0.000472202
0.000458936
0.000461163
0.00046117
0.000458909
0.000472202
0.000472214
0.00045905
0.000458776
0.00045878
0.000507763
0.000494429
0.000494419
0.000507768
0.000507762
0.000507533
0.000494577
0.000507762
0.000494415
0.000476723
0.000489965
0.000489953
0.000476711
0.000489753
0.000476689
0.000476848
0.000476699
0.000489959
0.000494475
0.000507777
0.000496613
0.00049664
0.000505524
0.000494512
0.000507735
0.000494455
0.000507702
0.000505528
0.000494521
0.000507701
0.000489989
0.000476711
0.000489975
0.000476694
0.000490002
0.000476714
0.000490045
0.000476701
0.000487769
0.000478873
0.00047891
0.000489936
0.000476713
0.000489927
0.000476746
0.000487826
0.00047898
0.000478947
0.000489949
0.000476748
0.000490011
0.000476759
0.000476717
0.000490049
0.000476998
0.000476726
0.000476707
0.000490051
0.000476736
0.000507791
0.000494449
0.000494462
0.000494639
0.000494475
0.000476695
0.000476896
0.000489998
0.000489816
0.000476689
0.000476676
0.000476703
0.000472282
0.000458975
0.000472272
0.000458982
0.000472047
0.000472267
0.000459181
0.000458959
0.000458962
0.00044093
0.00045444
0.000440958
0.00045446
0.000454356
0.000440938
0.00044096
0.000454447
0.000454451
0.000458899
0.00047223
0.000472227
0.000458832
0.00047005
0.000458968
0.000472205
0.000461166
0.000472167
0.000458982
0.000461176
0.00047007
0.000458957
0.0004722
0.000461146
0.000472177
0.00045887
0.000461163
0.00045442
0.000440944
0.000454448
0.000440968
0.000454399
0.000440889
0.000454326
0.000440952
0.000454374
0.000452296
0.000441008
0.00044329
0.000454429
0.000452266
0.000441045
0.000454355
0.000452155
0.000440916
0.000443218
0.000454299
0.000452213
0.00044102
0.000472232
0.000472218
0.000459077
0.000458805
0.00045879
0.00045879
0.000440857
0.0004543
0.000454172
0.00044086
0.000454298
0.00045428
0.000454266
0.000472198
0.000470037
0.000470046
0.00045898
0.00046119
0.000458992
0.000461185
0.0004722
0.000472223
0.000458926
0.000458912
0.000470044
0.000470037
0.000472174
0.000458972
0.000461154
0.000461171
0.000458936
0.000454458
0.000440983
0.000454468
0.000441041
0.000454404
0.00045232
0.000441046
0.000443334
0.000454446
0.00045229
0.000441125
0.00045445
0.000440996
0.000454424
0.00044104
0.000454393
0.000452247
0.000443315
0.00044104
0.000452269
0.000454395
0.000441117
0.000472251
0.00045885
0.000458804
0.000470101
0.000472255
0.000472229
0.000458937
0.000461133
0.00046116
0.000458841
0.000472238
0.000458848
0.0004588
0.000454294
0.000452136
0.000443143
0.000454267
0.00045217
0.000454319
0.000454284
0.000454293
0.000452117
0.000443146
0.000452163
0.00045426
0.000454318
0.000454288
0.000472222
0.000472216
0.00045912
0.000458893
0.00045887
0.000458876
0.000454415
0.000454265
0.000454408
0.000454378
0.000454378
0.00047011
0.00047221
0.000472204
0.000458931
0.000461144
0.000461162
0.000458844
0.000472233
0.000458861
0.000458872
0.000472213
0.000458853
0.0004588
0.000454319
0.000452222
0.000452217
0.000454349
0.000454309
0.000452137
0.000452184
0.000454272
0.000454355
0.000454375
0.000454344
0.000454301
0.000472217
0.000458777
0.000458783
0.000454149
0.000454273
0.000454283
0.000454257
0.00045428
0.000494431
0.000507777
0.000494455
0.000507779
0.000487817
0.000478958
0.000479
0.000487841
0.000505567
0.000494506
0.000496651
0.000494536
0.000496666
0.000507722
0.000505503
0.000496616
0.000494506
0.000505524
0.000507702
0.00049664
0.000507801
0.000494458
0.00049446
0.00050778
0.000494495
0.000505537
0.000496665
0.000494513
0.000505533
0.000507703
0.000496654
0.000489962
0.000476668
0.000476694
0.000489972
0.000487735
0.000476724
0.000476704
0.000478882
0.000478901
0.000489925
0.000487764
0.000489984
0.000476669
0.000476683
0.000489978
0.000476728
0.000478911
0.00047891
0.000487785
0.0004767
0.000489932
0.000487778
0.000478984
0.000479005
0.000476839
0.000476792
0.000487831
0.000476775
0.000476746
0.000478985
0.00047684
0.000476792
0.000487842
0.000487835
0.000490031
0.00047674
0.00049008
0.000494538
0.000496671
0.000494488
0.000494498
0.000494502
0.000478954
0.000489979
0.000487791
0.000476732
0.000476792
0.000489972
0.00048781
0.000478998
0.000476802
0.000476761
0.000489975
0.000487827
0.000487827
0.000490024
0.000476703
0.000476721
0.000490032
0.000476708
0.000490038
0.000490072
0.000476699
0.000476716
0.000489859
0.000490077
0.000490077
0.000476724
0.000490096
0.000490083
0.000498795
0.000498841
0.000494396
0.00049442
0.000498835
0.000494384
0.000498814
0.000485524
0.000489918
0.000485536
0.000489968
0.000489902
0.000485566
0.000485526
0.000485569
0.000485583
0.000490001
0.000485556
0.000489991
0.000489982
0.000485572
0.000485587
0.000485588
0.000467924
0.000472231
0.000472302
0.000467856
0.000472273
0.000467911
0.000467855
0.000467779
0.000467801
0.000472277
0.000472264
0.000467834
0.000467827
0.000467803
0.00047226
0.000467797
0.000472264
0.000472272
0.000467833
0.000467802
0.000467821
0.000472259
0.000467803
0.00046779
0.000472217
0.000467801
0.000467782
0.000472217
0.000467775
0.000472236
0.00047223
0.0004678
0.00046779
0.000467782
0.000472222
0.000467748
0.000481193
0.000476751
0.000476772
0.000481193
0.000476747
0.000481195
0.000481196
0.0004856
0.000485594
0.000490014
0.000490017
0.000485587
0.000481147
0.00047673
0.000476706
0.000481153
0.000476706
0.000481159
0.000481146
0.00048115
0.000498883
0.000494463
0.000494452
0.000498879
0.000498895
0.00049887
0.000494454
0.000503349
0.000503336
0.000507776
0.000503338
0.000507776
0.000498867
0.000494431
0.000498858
0.000498861
0.000494452
0.000503353
0.000503357
0.000507796
0.000507772
0.000503361
0.00050335
0.000507789
0.000503362
0.000498872
0.00046337
0.000463339
0.000458902
0.000458937
0.000463352
0.000463361
0.000458919
0.000467858
0.000472245
0.000467857
0.000472257
0.000467838
0.000467835
0.000467815
0.000472244
0.000472233
0.000472255
0.000467818
0.000467827
0.000463378
0.000458941
0.000463398
0.000463381
0.000458933
0.000467782
0.000463276
0.000467824
0.000472226
0.000472212
0.000467801
0.000467813
0.000467811
0.000472234
0.000467859
0.000472234
0.000467848
0.000467835
0.000472246
0.000463377
0.00046334
0.00045895
0.000458933
0.000463356
0.000463363
0.000458947
0.000463398
0.000463392
0.00045897
0.000463391
0.000458973
0.000467814
0.000463341
0.00046778
0.00047226
0.000472176
0.000467743
0.000467803
0.000467718
0.000472228
0.000467679
0.000472137
0.000472142
0.00046769
0.000467689
0.000472155
0.000467779
0.000472321
0.000472185
0.000467753
0.000467844
0.000467723
0.00047225
0.000463175
0.000458725
0.000458733
0.000463181
0.000463189
0.000458688
0.000463233
0.000463245
0.000458748
0.000458807
0.000463289
0.000463215
0.000458761
0.000463225
0.000463243
0.000458754
0.000458816
0.000463265
0.000463215
0.000458775
0.000503325
0.000498847
0.000498843
0.000503328
0.000503299
0.00050332
0.000507743
0.000507747
0.000503308
0.000503311
0.000507731
0.000498804
0.000494439
0.000494439
0.000498832
0.000498835
0.000494391
0.000503314
0.000507744
0.00050332
0.000507755
0.000503314
0.000503332
0.000507737
0.000498811
0.000494411
0.00049442
0.000498845
0.000498838
0.000494392
0.000498836
0.000503272
0.000507732
0.00050774
0.000503303
0.000503299
0.000507726
0.000481113
0.000485562
0.00048555
0.000481099
0.000481065
0.000481091
0.000476687
0.000476733
0.000481124
0.000476714
0.000481072
0.000485573
0.000490005
0.000490006
0.000489964
0.000485612
0.000485611
0.000481075
0.000476695
0.000481102
0.000476742
0.000481132
0.000481072
0.000476718
0.000485526
0.000489926
0.000489967
0.000485543
0.000489905
0.00048557
0.000485528
0.000481155
0.000476777
0.000476781
0.00048117
0.000481167
0.000476773
0.00049891
0.000494471
0.000494488
0.000498888
0.000498901
0.000498902
0.000494482
0.000503375
0.000503362
0.000507799
0.000507785
0.000503366
0.000503371
0.000507805
0.000485573
0.00049
0.000489977
0.000485577
0.000489993
0.000485574
0.000485565
0.000481111
0.000481113
0.00047669
0.000476716
0.000481096
0.000485574
0.000489965
0.000485566
0.000489978
0.000485548
0.00048112
0.000481104
0.000476698
0.000476695
0.000476706
0.000481118
0.000481098
0.00048559
0.000490009
0.000490016
0.000485589
0.000490017
0.000485582
0.0004856
0.000481143
0.000481146
0.000476717
0.000481143
0.000476732
0.000485617
0.000490028
0.000485621
0.000490025
0.000485607
0.000481128
0.000481114
0.000476699
0.000476705
0.000481124
0.000481124
0.000476699
0.000481146
0.000485625
0.000481215
0.000481166
0.000476813
0.000476715
0.000481158
0.000476787
0.00048124
0.000481204
0.000476791
0.000481139
0.000476694
0.000481218
0.000481138
0.000476781
0.000485707
0.000490087
0.000490063
0.000485618
0.000485692
0.000490116
0.000485623
0.00048116
0.000476682
0.000476674
0.00048112
0.00048113
0.000476704
0.000481172
0.000503369
0.000503356
0.000503364
0.000503352
0.000498875
0.000498882
0.000494486
0.000494457
0.000498884
0.00049447
0.000498887
0.000498873
0.000498892
0.000494473
0.000494461
0.000498879
0.00049446
0.00049889
0.000498866
0.000494465
0.000494466
0.00049888
0.000498875
0.000494445
0.000498897
0.000481107
0.000485583
0.000489995
0.000485574
0.00049
0.000489975
0.000485588
0.000485593
0.000481106
0.000476719
0.000481115
0.00047671
0.000481129
0.000476716
0.000481121
0.000481102
0.000481097
0.000476703
0.000476694
0.000481111
0.000476711
0.000481104
0.000485584
0.000490005
0.00049001
0.000489999
0.000485594
0.000485601
0.000481138
0.00047672
0.000476714
0.000481135
0.000481142
0.000476713
0.000481119
0.000467888
0.000463424
0.000467883
0.000463424
0.000463483
0.000458894
0.000458902
0.000463391
0.000463389
0.000458967
0.000467924
0.000472247
0.00047231
0.000467862
0.000472279
0.000467913
0.000467873
0.000467963
0.000472345
0.000472345
0.000472365
0.000467923
0.000467923
0.00046348
0.000458954
0.000463407
0.000459039
0.00046343
0.000459077
0.000463427
0.000463482
0.000463405
0.000458964
0.000459035
0.000463436
0.00045909
0.000463409
0.000445415
0.00044995
0.000445443
0.000449977
0.00044991
0.00045436
0.000454365
0.000454417
0.000449873
0.000449881
0.000445479
0.000441027
0.000445428
0.000440905
0.000445394
0.000445523
0.000440991
0.000445489
0.000441052
0.000445449
0.000440919
0.00044541
0.000445555
0.000440997
0.00045005
0.000454416
0.000454542
0.000449959
0.000454533
0.000449929
0.000450074
0.000450065
0.000454423
0.000454573
0.000449977
0.000454552
0.000449943
0.000450112
0.000445372
0.000440857
0.000440865
0.000445342
0.00044535
0.000440859
0.000463325
0.000463329
0.00045889
0.000458878
0.000463341
0.000463316
0.000458874
0.000467815
0.000472244
0.000467784
0.000472244
0.000467804
0.000467804
0.000467811
0.000472242
0.000472228
0.000467811
0.000472238
0.000467804
0.000463314
0.000458853
0.000463287
0.000463312
0.000458865
0.000449947
0.000454407
0.000454437
0.000449966
0.00045442
0.000449938
0.000449978
0.000445419
0.00044543
0.000440952
0.000440945
0.000445439
0.000449949
0.000454438
0.000449963
0.000454409
0.000449961
0.000445431
0.00044544
0.000440946
0.000440971
0.000440946
0.000445428
0.000445448
0.000449911
0.000454396
0.000454373
0.000449946
0.000454378
0.000449927
0.000449918
0.000445363
0.000445354
0.000440884
0.00044536
0.000440897
0.000449888
0.000454346
0.000449865
0.000454348
0.000449874
0.000445405
0.000445422
0.000440937
0.000440931
0.000445418
0.000445397
0.000440928
0.000467823
0.000472306
0.000472216
0.000467773
0.000467852
0.00047227
0.000467754
0.000463213
0.00045874
0.000458733
0.000463204
0.000463201
0.000458719
0.000467818
0.000472293
0.000472194
0.000467769
0.000467743
0.000472266
0.000467844
0.000467727
0.000472176
0.000472173
0.000467716
0.000472205
0.000467715
0.000463275
0.000458771
0.00046327
0.000458848
0.000463239
0.000463313
0.000458813
0.000463279
0.000463265
0.000458765
0.000458843
0.000463315
0.000463239
0.000458812
0.00046326
0.000445319
0.000449835
0.000449713
0.000454224
0.000454211
0.000454191
0.000449762
0.000449759
0.000445221
0.000440814
0.000445321
0.000440861
0.000445292
0.000445286
0.000440762
0.000445205
0.00044529
0.000445254
0.00044527
0.000449785
0.000454261
0.000454301
0.000449825
0.000449833
0.000454266
0.000449788
0.000449772
0.000454241
0.000454292
0.000449805
0.000454255
0.000449753
0.000449818
0.000445227
0.000445305
0.000445304
0.000445273
0.000449797
0.000467807
0.000472222
0.000472201
0.000467797
0.000467805
0.000467796
0.000472222
0.000467828
0.000472219
0.000467806
0.000467803
0.00047223
0.000463352
0.000463332
0.000458925
0.000458921
0.000463354
0.000463331
0.000458924
0.000463353
0.00046334
0.000458916
0.000463343
0.000458928
0.000449996
0.000454469
0.000454457
0.000450024
0.00045446
0.000450026
0.000449997
0.000445462
0.000445466
0.000440993
0.000440986
0.000445483
0.000449991
0.000454475
0.000449994
0.000454453
0.000450005
0.000445487
0.000445512
0.000441033
0.000441012
0.000441005
0.000445506
0.00044549
0.000449991
0.000454449
0.000454443
0.000450017
0.000454446
0.000449994
0.000450008
0.000445459
0.000445465
0.000440992
0.000445469
0.000440991
0.000449979
0.000454434
0.000449974
0.000454426
0.000449978
0.000445488
0.000445506
0.000441012
0.000441033
0.00044549
0.000445497
0.000441012
0.000467792
0.000472256
0.000467791
0.000467794
0.000472244
0.000463295
0.000463316
0.000458841
0.000458824
0.000463308
0.000463299
0.000458819
0.000463271
0.000463276
0.000458806
0.000463282
0.000458806
0.000467785
0.000472251
0.000467779
0.000467785
0.00047224
0.000463293
0.000463315
0.000458823
0.000458836
0.000463298
0.000463302
0.000458818
0.000463262
0.000463267
0.000458794
0.000463271
0.000458799
0.000449821
0.000454309
0.000454313
0.000449846
0.000454305
0.000449836
0.00044983
0.000445285
0.00044529
0.000445288
0.000449813
0.000454287
0.000449812
0.000454279
0.000449809
0.000445304
0.000445311
0.000445301
0.000445317
0.000449828
0.000454312
0.000454309
0.000449846
0.000454307
0.00044983
0.00044984
0.000445287
0.000445311
0.000445287
0.000449811
0.000454278
0.00044982
0.000454274
0.000449803
0.000445314
0.000445312
0.000445318
0.00044531
0.000467844
0.000472242
0.000472239
0.000467789
0.000467834
0.000472241
0.000467806
0.000467843
0.000472234
0.000472227
0.000467794
0.000467802
0.00047224
0.000467831
0.000463337
0.000458873
0.000458866
0.000463315
0.000463309
0.000458885
0.000467811
0.000472235
0.00047223
0.000467797
0.000472251
0.000467796
0.000463354
0.000463328
0.000458888
0.000458937
0.000463324
0.000463355
0.000458934
0.000463352
0.000463313
0.000458877
0.000458926
0.000463349
0.000463321
0.000458931
0.000463318
0.000445451
0.000449963
0.000449918
0.000454376
0.000454364
0.00045439
0.000449917
0.000449903
0.000445449
0.000445449
0.000445476
0.000445439
0.000445437
0.000445418
0.000445404
0.000445446
0.000449983
0.000454396
0.00045444
0.000449952
0.00045
0.000454422
0.000449942
0.000449972
0.000454374
0.000454422
0.00044992
0.000454416
0.000449915
0.000449975
0.00044541
0.000445403
0.000445393
0.000445414
0.000449924
0.00046779
0.00047223
0.000472229
0.000467801
0.000467802
0.000467784
0.000472232
0.000463308
0.000463304
0.000458869
0.000458847
0.000463309
0.0004633
0.000458856
0.000463295
0.00046332
0.000458858
0.000463299
0.000458862
0.000467778
0.000472229
0.000467759
0.000467772
0.000472222
0.000463286
0.000463298
0.000458835
0.000458841
0.000463284
0.000463296
0.00045883
0.00046327
0.000463254
0.000458808
0.00046327
0.000458822
0.000449903
0.000454364
0.000454357
0.000449906
0.000454363
0.000449914
0.000449897
0.000449914
0.000454367
0.000449919
0.000454359
0.000449912
0.000449879
0.000454327
0.00045435
0.000449893
0.000454338
0.000449876
0.000449888
0.000449862
0.000454306
0.00044985
0.000454311
0.000449844
0.000467759
0.000463243
0.000463239
0.000449761
0.000454235
0.000454246
0.000454193
0.000449839
0.000449852
0.000445234
0.00044531
0.000445269
0.000445324
0.000449735
0.000454239
0.000454259
0.000449809
0.000454206
0.00044979
0.000449788
0.000449769
0.000454247
0.000454282
0.00044982
0.000454225
0.000449816
0.000449811
0.000445338
0.000445406
0.000445414
0.000445295
0.000449798
0.000449825
0.000498859
0.000498859
0.000494421
0.000498857
0.000494438
0.000503346
0.000503342
0.00050778
0.000503339
0.000507779
0.00049888
0.000494447
0.000494448
0.000498877
0.000498871
0.000498888
0.000494442
0.000503356
0.000507778
0.000507799
0.000503358
0.000503354
0.000503361
0.000507795
0.000503365
0.00050337
0.000507795
0.000503359
0.000507796
0.000498874
0.000498891
0.000494448
0.000498882
0.000494455
0.000498891
0.000494452
0.000494464
0.00049888
0.000498892
0.00049889
0.000494452
0.000503369
0.000507791
0.000507801
0.000503362
0.000503364
0.000503369
0.000507805
0.000485554
0.00048555
0.000489951
0.000489961
0.000485532
0.000481095
0.000476673
0.000476671
0.000481078
0.000476681
0.000481077
0.000481089
0.000481092
0.000481096
0.000476676
0.0004767
0.000481079
0.000485549
0.000489965
0.000489977
0.000485553
0.000489974
0.000485548
0.000485547
0.000485568
0.000485563
0.000489977
0.000489978
0.000485553
0.000481093
0.000476673
0.000476668
0.000481081
0.000476672
0.00048109
0.000481081
0.000481098
0.000481099
0.000476674
0.000476696
0.000481091
0.000485552
0.00048998
0.00048998
0.000485558
0.00048998
0.000485549
0.000485558
0.000481192
0.000476773
0.000476749
0.000481191
0.00047675
0.000481195
0.000481193
0.000481177
0.000481186
0.000476748
0.000476747
0.000481187
0.000481182
0.00047675
0.000481188
0.000476746
0.000481196
0.000485676
0.000485667
0.000490077
0.000490087
0.000485667
0.000498911
0.000498911
0.000494484
0.000498909
0.000494495
0.000498921
0.000494496
0.000498903
0.000494501
0.000498904
0.000498924
0.000494498
0.000498934
0.000498903
0.000494511
0.000494506
0.000498913
0.000498926
0.000494515
0.00048112
0.000481124
0.00047669
0.000476702
0.000481117
0.000481138
0.000476714
0.000476703
0.000481143
0.000476705
0.000481135
0.00048114
0.000485606
0.000490027
0.00048562
0.000490041
0.000490034
0.000485612
0.000485609
0.00048115
0.000476722
0.000481158
0.000476723
0.000481161
0.00048562
0.000485629
0.00049005
0.000490048
0.000490052
0.000485638
0.000485616
0.000485635
0.000485645
0.00049006
0.000490048
0.000485636
0.000481213
0.00047679
0.000476672
0.000481153
0.000476766
0.00048124
0.000481126
0.000481133
0.000476635
0.000476644
0.000476656
0.000481101
0.000481089
0.000481232
0.000476833
0.000476691
0.000481168
0.000476786
0.000481257
0.000481147
0.000485649
0.000490061
0.000490043
0.000490134
0.000485603
0.000485592
0.000485739
0.000485653
0.000490096
0.000490082
0.000490144
0.000485708
0.000485652
0.000485737
0.000485644
0.000490085
0.000490098
0.00049014
0.000485726
0.000485631
0.000481173
0.000485668
0.000485648
0.000512284
0.000512321
0.000512298
0.000516543
0.000516583
0.000516595
0.000516535
0.000512297
0.000512316
0.000512288
0.000516535
0.000516581
0.000516532
0.000516594
0.000470086
0.00047009
0.000461225
0.000461211
0.000461215
0.000461226
0.000470116
0.000467906
0.000472225
0.0004723
0.000468068
0.000467994
0.000467924
0.000472201
0.000485812
0.000490003
0.000485844
0.000490001
0.000485781
0.000490018
0.000485796
0.00044546
0.000445401
0.000441164
0.000441183
0.000445494
0.000445527
0.000441127
0.000467939
0.000472267
0.000472255
0.000468073
0.000467971
0.000472217
0.000467976
0.000445161
0.000445146
0.000440902
0.000440889
0.000445226
0.000445218
0.00044084
0.000467918
0.000472153
0.000472146
0.000467848
0.000467852
0.000467908
0.00047214
0.00046792
0.000472146
0.000472151
0.000467846
0.000467906
0.000467843
0.000472147
0.000467926
0.000472183
0.000472173
0.000468018
0.000467927
0.000472147
0.000467932
0.000445374
0.000445299
0.000445422
0.000445388
0.000498758
0.00049882
0.000494442
0.000494478
0.000498814
0.000498817
0.000494497
0.000507734
0.000507756
0.000503412
0.000503396
0.000507727
0.000503367
0.000503408
0.000485618
0.000489926
0.000485564
0.000489913
0.000485563
0.000489876
0.000485579
0.000485662
0.000490002
0.00048559
0.000489948
0.000485628
0.000489922
0.000485609
0.000481182
0.000476916
0.000476959
0.000481048
0.000476909
0.000481184
0.000481187
0.000470093
0.000470108
0.000461216
0.00046121
0.000461211
0.000461225
0.000470121
0.000470129
0.000470119
0.000461192
0.000461199
0.000461204
0.000461218
0.000470129
0.000470125
0.000470106
0.000461205
0.000461206
0.000461203
0.00046122
0.000470127
0.000452339
0.000443334
0.00044336
0.000452301
0.000452313
0.000452305
0.00044334
0.000452221
0.000443279
0.000443236
0.000452263
0.000452237
0.000452276
0.000443298
0.000452296
0.000443344
0.000452295
0.000452274
0.000452295
0.00044333
0.000452205
0.000443236
0.000452232
0.000452247
0.000452269
0.000443292
0.000467991
0.000472229
0.000472257
0.000467921
0.000467917
0.000467973
0.000472237
0.000467953
0.000472312
0.000472258
0.000467843
0.000467907
0.000467898
0.000472241
0.000463284
0.0004633
0.00045893
0.000458996
0.000463298
0.000463286
0.000459007
0.000463279
0.000463265
0.000458907
0.0004589
0.000463334
0.000463292
0.000458961
0.00046791
0.000472241
0.000472195
0.000467831
0.000467866
0.000467855
0.000472184
0.000467946
0.000472192
0.000472199
0.000467877
0.000467938
0.000467873
0.000472184
0.000463266
0.000463273
0.000458996
0.000458939
0.000463268
0.000463277
0.000459014
0.000463272
0.000463288
0.000458931
0.000458949
0.000463336
0.000463281
0.000458987
0.00046318
0.000463173
0.000458925
0.000458926
0.000463285
0.000463212
0.000458885
0.000503386
0.000507671
0.000503477
0.000507651
0.000503413
0.00050339
0.000507645
0.000498715
0.000494475
0.000498639
0.000494498
0.000494462
0.000498769
0.000498731
0.000485585
0.000489849
0.000485699
0.000489852
0.000489804
0.000485606
0.000485604
0.000480963
0.000480899
0.000476759
0.000476774
0.000481007
0.000476766
0.00048099
0.00049877
0.000494543
0.000494502
0.000498817
0.000498816
0.000498776
0.000494548
0.000503402
0.00050773
0.000503362
0.000507726
0.000503387
0.000503367
0.000507666
0.000498769
0.000494458
0.000494481
0.000498822
0.000498818
0.000498842
0.000494507
0.000503432
0.000507652
0.000503395
0.000507707
0.000503393
0.000503419
0.000507654
0.000498795
0.000494557
0.000494535
0.000498823
0.000498838
0.000498786
0.000494583
0.000503444
0.000507655
0.000503398
0.000507711
0.000503405
0.000503425
0.000507655
0.000485669
0.000489904
0.000489926
0.00048563
0.000489888
0.000485614
0.000485674
0.000481019
0.000476723
0.000481057
0.000476715
0.000481071
0.000481036
0.000476765
0.000485626
0.000489934
0.000489919
0.000485572
0.00048557
0.000489884
0.000485588
0.000481021
0.000476803
0.000481053
0.000476735
0.000481042
0.000481039
0.000476801
0.000485722
0.00048992
0.000489967
0.000485645
0.000489934
0.000485658
0.00048569
0.000481102
0.000476816
0.000481116
0.000476772
0.000481103
0.000481196
0.000476837
0.000485713
0.000490053
0.000489985
0.000485652
0.00048996
0.00048566
0.000485702
0.000481071
0.000476816
0.000481067
0.000476767
0.000481082
0.000481054
0.000476846
0.000481156
0.000481039
0.000476932
0.00047691
0.000481157
0.000476904
0.000481187
0.000498793
0.000494572
0.000498686
0.000494556
0.000494546
0.00049882
0.000498803
0.000481011
0.000480949
0.000476813
0.000476796
0.00047679
0.000481041
0.000481063
0.000485658
0.000489935
0.000485767
0.000489923
0.000489889
0.000485679
0.000485681
0.000467971
0.000472153
0.000472177
0.000468007
0.000472147
0.000467954
0.000467921
0.000463382
0.000463201
0.000459139
0.000459115
0.000459177
0.000463359
0.000463302
0.000450208
0.000450298
0.00045449
0.000454511
0.000454505
0.000450208
0.000450243
0.000463281
0.000463279
0.000458988
0.000459021
0.000463293
0.000463274
0.000459049
0.000467908
0.00047224
0.00047217
0.000467862
0.000467856
0.000472165
0.000467894
0.000467931
0.000472165
0.000467861
0.000472166
0.000467862
0.000472155
0.000467922
0.000463297
0.000458995
0.000463339
0.000459029
0.000463311
0.000463402
0.000459035
0.000463264
0.000463276
0.000458944
0.000459006
0.000463276
0.000463266
0.000459012
0.00046792
0.000472283
0.000472206
0.000467821
0.000472207
0.000467866
0.00046788
0.000467943
0.000472172
0.000467865
0.000472186
0.000472183
0.000467864
0.000467923
0.000463265
0.000458924
0.00046326
0.000458899
0.000463287
0.000458958
0.000463318
0.000450127
0.000454401
0.000454352
0.000450039
0.000454377
0.000450061
0.000450083
0.000445444
0.000441075
0.000445435
0.000441057
0.000445518
0.000445454
0.000441115
0.00045012
0.000454431
0.000454497
0.000450028
0.000450096
0.000454406
0.000450068
0.000445414
0.000445412
0.000441059
0.000441091
0.000445436
0.000445387
0.000441129
0.000450041
0.000454339
0.000454329
0.000450014
0.000454308
0.000449988
0.000450054
0.000445291
0.000440881
0.000445322
0.000440952
0.000445339
0.00044531
0.000440969
0.000449976
0.000454327
0.000454324
0.000449897
0.000454286
0.000449953
0.000449895
0.00044532
0.000445385
0.000440992
0.00044106
0.000445361
0.000445355
0.000441037
0.000463222
0.000463187
0.000458968
0.000458954
0.00046327
0.000463281
0.000458922
0.000449896
0.000450048
0.000454251
0.000454247
0.000449931
0.000454197
0.00044993
0.000467895
0.000472163
0.00047221
0.00046786
0.000467854
0.000467855
0.000472149
0.000463274
0.000463277
0.000458992
0.000459029
0.000463289
0.000463273
0.000459051
0.000463293
0.000463348
0.000459003
0.000459027
0.000463314
0.000463365
0.000459042
0.000467889
0.000472159
0.000472226
0.000467821
0.000467836
0.000467852
0.000472155
0.000463265
0.000463272
0.00045902
0.000458968
0.000463268
0.000463273
0.000459034
0.00046327
0.000463293
0.000458961
0.00045896
0.000463286
0.000458996
0.000463338
0.000450161
0.000454425
0.000454379
0.000450091
0.000454395
0.000450105
0.000450126
0.000445486
0.000441112
0.00044547
0.00044111
0.000445561
0.000445506
0.000441159
0.000450156
0.000454455
0.000454529
0.000450054
0.000450141
0.000454429
0.00045011
0.000445464
0.000445482
0.000441126
0.000441163
0.000445495
0.000445448
0.00044119