/*--------------------------------*- C++ -*----------------------------------*\
| =========                 |                                                 |
| \\      /  F ield         | OpenFOAM: The Open Source CFD Toolbox           |
|  \\    /   O peration     | Version:  v2006                                 |
|   \\  /    A nd           | Website:  www.openfoam.com                      |
|    \\/     M anipulation  |                                                 |
\*---------------------------------------------------------------------------*/
FoamFile
{
    version     2.0;
    format      ascii;
    class       volVectorField;
    location    "875";
    object      U;
}
// * * * * * * * * * * * * * * * * * * * * * * * * * * * * * * * * * * * * * //

dimensions      [0 1 -1 0 0 0 0];


internalField   nonuniform List<vector> 
14361
(
(2.13074e-07 1.22402e-05 0.107438)
(3.84253e-06 1.46941e-05 0.109765)
(5.35841e-06 -5.55099e-06 0.0932667)
(5.05079e-06 -3.73836e-06 0.0987161)
(4.23525e-06 -3.65394e-06 0.0878433)
(1.61561e-06 -3.2247e-06 0.0718305)
(1.54914e-06 -5.50672e-06 0.082539)
(3.40433e-06 -3.72602e-06 0.0916598)
(-5.59147e-06 7.38592e-06 0.0919501)
(6.36729e-06 -2.45702e-06 0.0818512)
(-1.03172e-07 -5.42707e-07 0.0818806)
(9.38091e-06 9.33187e-07 0.0919157)
(-4.01124e-06 9.28178e-06 0.0919566)
(6.28986e-06 -6.3493e-06 0.0964826)
(3.92466e-06 -4.32635e-06 0.0818535)
(-3.20867e-06 2.34127e-06 0.0878776)
(-6.97941e-06 1.41809e-05 0.096522)
(3.6106e-06 -4.94528e-06 0.0919214)
(4.59003e-07 9.59143e-07 0.0818847)
(-2.20284e-06 3.173e-06 0.0839179)
(2.4453e-06 -2.39082e-06 0.0685798)
(2.76843e-06 -2.34397e-06 0.0685844)
(-9.13287e-07 1.51825e-08 0.068606)
(4.30326e-06 -1.84684e-06 0.0838873)
(-9.50368e-07 -1.56539e-07 0.0686111)
(-2.71768e-06 1.98719e-06 0.0718655)
(1.10116e-07 1.7556e-06 0.0687283)
(1.37471e-06 -4.01532e-06 0.0861287)
(-9.86021e-07 6.16088e-06 0.082577)
(4.39059e-08 6.28253e-06 0.086172)
(-5.255e-07 -3.39233e-06 0.0686838)
(1.06535e-06 2.93684e-06 0.0772148)
(2.21007e-06 8.4702e-06 0.0916917)
(2.87988e-06 -3.39642e-06 0.0901848)
(4.45729e-07 -3.4102e-06 0.0789639)
(1.92542e-06 8.712e-06 0.0902225)
(9.08017e-07 -3.49491e-06 0.077182)
(-4.97851e-07 3.1357e-06 0.07899)
(-1.05906e-05 1.62035e-05 0.0977668)
(3.44396e-05 -4.02763e-06 0.101552)
(-3.61747e-05 1.82949e-05 0.101613)
(1.00688e-05 -4.21042e-06 0.0977201)
(6.26268e-07 5.2216e-05 0.101552)
(4.84435e-06 -3.3052e-05 0.0996927)
(3.46778e-06 -5.614e-06 0.0958369)
(-9.60163e-07 1.2564e-05 0.0933131)
(3.66432e-06 -3.26608e-05 0.101455)
(-2.11237e-06 4.78682e-05 0.0997477)
(1.33661e-06 1.63145e-05 0.0958958)
(3.48942e-06 5.24534e-05 0.103074)
(4.53417e-06 1.84909e-05 0.0987651)
(5.01161e-06 -2.77215e-05 0.103604)
(3.87471e-06 -3.92014e-06 0.0977688)
(3.67925e-06 -2.90783e-05 0.102966)
(5.39735e-06 5.15884e-05 0.103692)
(3.13583e-06 1.88157e-05 0.0978262)
(1.27729e-05 1.12597e-05 0.10744)
(-3.72979e-05 4.31633e-05 0.104349)
(-2.589e-07 1.11479e-05 0.107437)
(1.33153e-05 1.26663e-05 0.10744)
(4.95386e-05 4.80382e-05 0.104355)
(-7.4968e-06 1.12237e-05 0.112179)
(1.34571e-05 1.26332e-05 0.112183)
(1.38301e-06 -2.008e-06 0.087864)
(2.07789e-06 -1.83155e-06 0.0718455)
(9.08508e-06 -1.91867e-06 0.0933017)
(1.64871e-05 -5.10053e-07 0.0987568)
(6.13605e-06 2.49293e-07 0.0825637)
(6.20119e-06 -6.66591e-07 0.0916808)
(1.10178e-05 2.71033e-06 0.0933034)
(1.66629e-05 1.93527e-06 0.0987569)
(7.13263e-06 -1.97018e-06 0.082563)
(6.42464e-06 5.03788e-07 0.0916809)
(-2.53238e-06 3.21835e-06 0.0718731)
(-1.81644e-06 7.01921e-06 0.0878733)
(-2.65187e-06 4.59751e-06 0.0878737)
(-1.61275e-06 2.86562e-06 0.0718673)
(2.07735e-06 1.36309e-05 0.109768)
(-9.23272e-07 1.50309e-05 0.0933078)
(4.85063e-06 1.91415e-05 0.0987587)
(7.98337e-06 1.3737e-05 0.109768)
(7.12056e-06 9.88456e-06 0.0933047)
(6.3332e-06 1.82654e-05 0.0987588)
(4.32721e-07 7.69883e-06 0.0825738)
(4.10796e-06 9.20129e-06 0.0916848)
(1.24229e-06 6.07223e-06 0.0825656)
(4.91398e-06 8.54301e-06 0.0916853)
(5.91114e-06 1.98602e-06 0.087869)
(5.42601e-06 4.07344e-06 0.0878687)
(3.03848e-06 2.65165e-07 0.0718492)
(2.6267e-06 2.33076e-06 0.071852)
(1.30033e-05 -1.40785e-05 0.0965183)
(2.47337e-07 4.44475e-06 0.0818642)
(1.13468e-05 -6.93103e-06 0.0919619)
(3.15478e-07 -2.81839e-07 0.0685717)
(1.40328e-06 1.27125e-06 0.0685764)
(9.82271e-06 -6.38566e-06 0.0839234)
(6.06585e-06 -5.07053e-07 0.0861599)
(1.28623e-06 4.37347e-07 0.0687129)
(6.80439e-06 -6.20332e-07 0.0902109)
(1.622e-06 -8.96855e-07 0.0789797)
(1.70773e-06 1.51501e-06 0.0772024)
(7.43203e-06 -7.84181e-07 0.0861613)
(2.39141e-06 -2.34225e-06 0.0687171)
(1.91581e-06 -1.3678e-06 0.0789797)
(7.22244e-06 5.64577e-07 0.0902108)
(2.44249e-06 -3.3282e-06 0.0772012)
(-1.23214e-05 1.13937e-05 0.0965126)
(-5.52239e-07 2.93192e-06 0.0818806)
(-6.11256e-06 8.1842e-06 0.0919415)
(-5.43364e-06 1.60544e-05 0.0965158)
(-2.20284e-07 3.27675e-06 0.0818836)
(-3.15405e-06 1.06218e-05 0.0919479)
(1.92019e-07 2.23412e-06 0.0686149)
(-7.26098e-07 9.23643e-07 0.0686194)
(1.28041e-07 3.28734e-06 0.0839098)
(7.02729e-07 -2.61294e-06 0.0686854)
(2.52219e-06 -4.21507e-06 0.0825344)
(1.36701e-06 7.18948e-06 0.0861668)
(1.95751e-06 -3.21367e-06 0.0861229)
(1.80608e-06 2.54658e-06 0.0687305)
(2.25098e-06 -2.78672e-06 0.0771788)
(4.12682e-06 -2.56347e-06 0.091653)
(3.25163e-06 9.53039e-06 0.0902155)
(1.74173e-06 3.30239e-06 0.0789863)
(3.17279e-06 -2.42732e-06 0.0901777)
(2.24677e-06 -2.95914e-06 0.0789601)
(3.06915e-06 3.50239e-06 0.077212)
(3.06348e-06 -3.59861e-06 0.0686828)
(7.54388e-07 -6.70428e-06 0.0825287)
(3.16486e-06 6.49204e-06 0.0861639)
(3.83564e-06 -5.15027e-06 0.0861218)
(4.69147e-07 2.31376e-06 0.0687239)
(2.81569e-06 -3.70877e-06 0.0771773)
(5.12563e-06 -3.389e-06 0.0916529)
(5.01061e-06 7.84988e-06 0.090215)
(1.45851e-06 3.19339e-06 0.0789865)
(5.47545e-06 -4.59861e-06 0.0901778)
(2.70649e-06 -3.24516e-06 0.0789593)
(4.16676e-07 3.13956e-06 0.0772089)
(1.59269e-05 1.49012e-05 0.0965265)
(5.36206e-06 -3.09401e-06 0.0818701)
(1.35394e-05 7.16931e-06 0.0919732)
(4.00533e-06 -4.48054e-06 0.0919279)
(1.77229e-05 1.43546e-05 0.0965239)
(-1.00292e-06 -5.37116e-06 0.087832)
(-2.69545e-07 3.33856e-06 0.0818677)
(9.91289e-06 1.12123e-05 0.0919683)
(5.62117e-06 -8.37043e-06 0.0964806)
(-4.56981e-06 -5.52826e-06 0.0818345)
(3.60218e-06 -4.22643e-07 0.0685914)
(1.65967e-06 2.06659e-06 0.0685883)
(9.83927e-06 7.18279e-06 0.0839329)
(-7.11616e-08 -3.53489e-06 0.0718167)
(-1.307e-05 4.14431e-05 0.101606)
(-3.55956e-05 1.80099e-05 0.101609)
(-1.0087e-05 1.54995e-05 0.0977598)
(1.44525e-06 1.17464e-07 0.0977278)
(-2.17765e-05 -2.22345e-05 0.104245)
(2.26813e-05 4.85257e-05 0.101619)
(5.07048e-05 2.13903e-05 0.101617)
(2.20633e-05 2.02113e-05 0.0977817)
(-1.23531e-06 -2.17377e-05 0.101554)
(-2.06984e-05 -1.53509e-06 0.101553)
(-1.06574e-06 1.29867e-05 0.114567)
(6.33337e-06 1.33324e-05 0.114568)
(4.52499e-05 -9.57045e-06 0.0997403)
(1.38331e-05 -2.67267e-06 0.0958849)
(4.96679e-05 -6.80218e-06 0.101546)
(1.64816e-05 -2.24393e-06 0.0978164)
(4.9311e-05 -6.35339e-07 0.103689)
(5.0212e-05 -3.26757e-06 0.10307)
(4.66682e-05 1.14661e-05 0.0997426)
(1.50181e-05 3.81339e-06 0.0958862)
(5.04708e-05 8.9215e-06 0.101546)
(4.94678e-05 2.60374e-06 0.103689)
(1.67343e-05 3.81662e-06 0.0978167)
(5.04369e-05 5.42129e-06 0.10307)
(2.38285e-06 -3.1914e-05 0.101451)
(-1.4887e-06 4.93152e-05 0.0997427)
(4.37447e-06 -3.27246e-06 0.093261)
(1.35087e-06 1.80384e-05 0.095889)
(5.67941e-07 5.3142e-05 0.101548)
(4.24364e-06 -3.18024e-05 0.0996883)
(2.34205e-06 -4.07727e-06 0.0958303)
(1.90697e-06 -2.85996e-05 0.102963)
(3.95428e-06 -2.8113e-06 0.0987099)
(4.6606e-06 5.179e-05 0.103688)
(3.38181e-06 1.97016e-05 0.0978193)
(2.91874e-06 5.28628e-05 0.10307)
(3.02443e-06 -2.73714e-05 0.103601)
(2.8435e-06 -2.9458e-06 0.0977623)
(7.97878e-06 -3.55688e-05 0.10145)
(1.4612e-05 4.61418e-05 0.099743)
(1.65556e-06 -1.01948e-05 0.0932568)
(7.75136e-06 1.44713e-05 0.0958884)
(5.79337e-06 -8.63176e-06 0.0958291)
(7.33283e-06 -3.61469e-05 0.0996866)
(1.21555e-05 5.01218e-05 0.101548)
(6.99625e-06 -3.05139e-05 0.102962)
(5.35243e-06 -3.78724e-06 0.0987098)
(6.6623e-06 5.08198e-05 0.103688)
(7.59208e-06 1.72802e-05 0.0978191)
(5.37498e-06 -2.83881e-05 0.103601)
(6.41264e-06 -5.64776e-06 0.0977618)
(8.78878e-06 5.1187e-05 0.10307)
(-1.28446e-05 -1.25187e-07 0.0916242)
(-2.17603e-05 6.96264e-07 0.0987246)
(-1.30129e-05 1.51356e-07 0.0916248)
(-2.19341e-05 7.97809e-07 0.0987252)
(9.84755e-07 -2.18967e-06 0.0770935)
(1.07947e-07 4.5676e-07 0.091591)
(-1.19119e-05 -1.09392e-06 0.090151)
(-6.31418e-06 -7.69506e-07 0.0789034)
(8.31689e-07 -3.94198e-08 0.0901143)
(4.29699e-07 -6.09196e-07 0.0788737)
(-5.90473e-06 -1.5063e-06 0.0771276)
(6.55354e-07 1.99904e-06 0.0770918)
(2.90043e-08 4.93154e-07 0.0915912)
(-6.48901e-06 -2.56734e-07 0.0789036)
(-1.23482e-05 1.107e-06 0.0901519)
(2.70738e-07 2.13737e-07 0.0788729)
(6.46718e-07 8.66846e-07 0.0901149)
(-6.39873e-06 7.38541e-07 0.0771267)
(-1.57813e-05 -1.44126e-05 0.112206)
(1.22316e-05 -1.6892e-06 0.109781)
(-8.77533e-06 1.05228e-05 0.107446)
(-3.14234e-05 -3.02991e-05 0.104243)
(-5.51504e-06 -7.87669e-06 0.0878105)
(-1.3551e-07 -4.00419e-07 0.0877833)
(-5.34674e-06 -1.09139e-05 0.107453)
(3.81111e-06 -1.50213e-05 0.109793)
(-1.08046e-05 -1.33659e-05 0.107452)
(4.39961e-07 -1.49917e-05 0.109789)
(-2.67705e-05 2.75381e-05 0.104251)
(1.65304e-06 -9.85787e-07 0.0717707)
(-1.94225e-06 -8.39593e-07 0.0877841)
(-6.13466e-07 -2.22315e-06 0.0717737)
(-7.59341e-06 1.26876e-06 0.0878121)
(-3.35815e-05 -3.62799e-05 0.104347)
(-1.0659e-05 -1.49808e-05 0.107448)
(-2.23929e-06 -1.07898e-05 0.107442)
(4.39563e-06 -6.62469e-06 0.107439)
(1.28566e-05 -9.2986e-06 0.107438)
(-3.26024e-05 2.85396e-05 0.104241)
(-2.02082e-06 1.17429e-06 0.0718145)
(4.88908e-05 -4.41827e-05 0.104352)
(-2.77517e-06 -2.26017e-06 0.0986948)
(-2.55834e-06 -8.07023e-07 0.098694)
(-5.22113e-06 1.46622e-06 0.107438)
(-7.16535e-06 6.52984e-06 0.107436)
(2.93825e-06 -1.43581e-07 0.091631)
(7.80394e-06 1.88854e-06 0.107445)
(2.9396e-06 6.94258e-07 0.0916315)
(1.19529e-05 -7.3988e-06 0.107439)
(2.29748e-05 -2.69825e-05 0.104246)
(1.12056e-06 -1.86869e-06 0.0718037)
(-1.69883e-06 1.30625e-05 0.109781)
(9.77876e-08 -3.27044e-06 0.0825017)
(-1.31992e-06 2.1907e-06 0.0916288)
(1.44136e-07 -2.73443e-06 0.0718114)
(-1.20498e-05 -1.16652e-05 0.11224)
(-1.44565e-05 -8.28018e-06 0.0932602)
(3.17935e-05 1.66862e-06 0.101439)
(4.02297e-06 -2.28437e-06 0.0932196)
(1.57027e-06 2.89043e-07 0.0932197)
(1.27386e-05 -4.19361e-06 0.107454)
(1.05753e-05 1.74563e-06 0.107448)
(1.62685e-05 2.77285e-07 0.0916555)
(-8.80653e-06 1.11747e-05 0.10745)
(-4.1061e-07 1.41583e-05 0.109785)
(-1.80733e-06 -3.48802e-06 0.0824739)
(-1.94113e-06 1.5176e-05 0.0916531)
(3.8732e-05 3.87459e-05 0.104353)
(3.31581e-06 3.35033e-06 0.0718422)
(-3.20468e-06 -1.32096e-05 0.0916345)
(-1.59786e-06 4.50406e-06 0.0824519)
(-3.9173e-06 -8.16661e-06 0.0825003)
(-9.41004e-08 -4.52411e-07 0.0915968)
(1.91509e-06 2.11883e-07 0.0717443)
(-4.00291e-06 3.03137e-06 0.071802)
(2.40098e-06 -1.47269e-05 0.0916728)
(8.29299e-07 3.00503e-06 0.0824948)
(-2.1361e-06 -2.55024e-06 0.0916277)
(-6.35675e-07 -1.02317e-05 0.0825564)
(-7.95991e-07 2.47639e-06 0.0718085)
(5.06896e-06 -1.69713e-06 0.071857)
(-2.56075e-06 -3.14441e-07 0.0916267)
(2.62516e-06 1.34879e-06 0.082495)
(-1.6027e-05 1.83484e-06 0.0916727)
(-9.9747e-06 -2.16729e-06 0.0825567)
(-1.59856e-05 2.08138e-06 0.114603)
(1.02192e-06 1.22975e-05 0.114604)
(1.13036e-05 -3.50815e-06 0.114603)
(-4.91734e-06 -6.71174e-06 0.112181)
(1.29368e-05 -1.01676e-05 0.112183)
(6.95848e-06 -2.7143e-06 0.107444)
(1.64438e-06 -3.74475e-07 0.0986981)
(-4.75491e-07 -1.92537e-06 0.0932381)
(1.95126e-05 1.67328e-07 0.0987486)
(5.88053e-06 -3.15038e-06 0.107441)
(1.30624e-05 -5.76513e-06 0.0932901)
(1.02065e-05 -1.41068e-06 0.109777)
(2.31102e-06 -4.87409e-07 0.0717985)
(-2.80258e-06 4.12458e-06 0.0718583)
(-6.18234e-06 1.34162e-05 0.109781)
(-2.44549e-06 -7.65766e-07 0.0932366)
(-3.51865e-06 1.29063e-06 0.0986952)
(-5.13458e-07 2.19095e-05 0.0987478)
(-6.51681e-06 1.00001e-05 0.107443)
(-4.71603e-06 1.29384e-05 0.109775)
(-5.38488e-06 1.83032e-05 0.0932936)
(-2.5971e-07 -8.35734e-07 0.0878102)
(-1.68426e-06 1.22844e-06 0.0878101)
(3.99837e-05 4.2297e-05 0.104346)
(2.5505e-07 7.09314e-06 0.0878522)
(7.58728e-06 5.97886e-08 0.0878526)
(-8.68224e-07 2.67227e-06 0.0717439)
(-4.96183e-06 -2.84705e-06 0.0717936)
(-3.26879e-06 -4.26684e-06 0.0717942)
(2.62615e-06 -9.04549e-07 0.071743)
(2.48508e-06 -9.37864e-08 0.0877667)
(2.78547e-05 2.74151e-05 0.104244)
(-4.45373e-05 -4.47041e-05 0.104356)
(2.0531e-07 2.72307e-06 0.0877651)
(-8.26077e-06 -5.30555e-06 0.0878071)
(-2.60197e-06 -3.61892e-06 0.0718221)
(-8.70425e-07 2.63754e-06 0.0717638)
(2.11195e-06 -4.91588e-08 0.0717633)
(-3.87088e-06 -2.10198e-06 0.0718223)
(2.32247e-05 2.31678e-05 0.104249)
(-1.32228e-05 -5.81239e-06 0.0878372)
(-4.88727e-05 -4.81049e-05 0.104361)
(-6.73321e-06 -1.25519e-05 0.0878344)
(-1.08648e-06 3.03382e-07 0.0877814)
(-2.13151e-06 -1.39163e-05 0.0916352)
(7.65758e-07 -6.91285e-07 0.0915975)
(-7.46743e-06 -1.14678e-05 0.107451)
(-3.05707e-06 -1.46605e-05 0.109792)
(-1.14389e-06 -1.52278e-05 0.109798)
(-2.39227e-06 -2.18879e-05 0.098731)
(-1.97679e-09 4.71696e-06 0.0932069)
(-8.50002e-06 -1.43822e-05 0.0932567)
(1.12624e-06 1.13705e-06 0.0986796)
(5.78907e-06 -1.57841e-05 0.109798)
(-1.07704e-06 -2.26672e-05 0.098732)
(1.89974e-06 8.97475e-07 0.0986803)
(-3.9267e-06 -1.04862e-06 0.0916087)
(-1.54339e-06 -9.3619e-06 0.0825228)
(-1.87499e-06 4.16049e-06 0.0824692)
(-3.2351e-06 -1.46048e-05 0.0916512)
(-2.89143e-06 -1.74591e-06 0.0916094)
(9.01192e-07 -9.87906e-06 0.0825338)
(-1.40513e-06 1.6426e-06 0.0824741)
(-2.90152e-06 -1.48052e-05 0.0916508)
(-6.14098e-06 -1.51293e-05 0.10979)
(-1.24288e-05 -1.51469e-05 0.107449)
(-8.62538e-06 -1.61234e-05 0.109783)
(-3.7482e-06 1.14003e-07 0.0986861)
(-8.13693e-06 -1.95871e-05 0.0932746)
(-2.89472e-06 4.21327e-06 0.0932166)
(-5.43948e-06 -2.44612e-05 0.098738)
(3.37203e-06 -1.18524e-05 0.107452)
(-5.07138e-07 -1.15513e-05 0.107447)
(-2.73376e-06 -1.53109e-05 0.109783)
(-2.2798e-06 -7.20892e-07 0.0986869)
(3.89173e-06 -2.16651e-05 0.0932762)
(-7.29955e-07 -2.23151e-06 0.0932229)
(-4.33176e-06 -2.48254e-05 0.0987379)
(2.21667e-06 -3.5463e-06 0.0718413)
(-1.68126e-06 1.03991e-06 0.0717767)
(3.76187e-05 -4.09517e-05 0.104352)
(9.20356e-06 -7.65308e-06 0.0878395)
(5.1343e-06 -1.0523e-05 0.0878383)
(-1.08754e-06 -5.64002e-06 0.0877885)
(3.80043e-06 -2.8081e-06 0.0718428)
(-1.66186e-07 1.27692e-07 0.0877698)
(-7.94852e-06 6.64345e-06 0.0878119)
(-8.51837e-06 7.56459e-06 0.0878132)
(-4.27279e-05 4.2909e-05 0.104358)
(-4.57964e-06 3.40875e-06 0.0718015)
(-3.38073e-06 2.84585e-06 0.0718289)
(-4.62528e-05 4.26075e-05 0.104354)
(-1.47177e-06 8.53245e-07 0.0877867)
(2.55473e-05 -2.61922e-05 0.104249)
(-7.76443e-06 9.24429e-06 0.0878369)
(-1.05569e-05 6.01805e-06 0.0878346)
(-3.18573e-06 3.66864e-06 0.071832)
(1.66139e-06 1.83338e-06 0.0717965)
(-1.72058e-06 -4.50139e-06 0.0718623)
(1.77356e-06 1.78661e-06 0.0717957)
(-3.79096e-06 -3.13181e-06 0.0718623)
(2.0913e-05 2.1971e-05 0.104253)
(6.47232e-07 -7.01646e-06 0.0878114)
(-4.18354e-05 -4.04865e-05 0.104357)
(-6.20804e-06 -1.25088e-05 0.0878644)
(-1.20714e-05 -7.356e-06 0.0878625)
(-1.79669e-06 -3.2028e-06 0.0718798)
(2.05245e-06 1.35098e-06 0.0718354)
(-2.40311e-06 -3.87695e-06 0.0718825)
(2.04896e-06 1.47838e-07 0.071836)
(3.06259e-05 3.12765e-05 0.104248)
(-3.67832e-06 -1.64623e-06 0.0878752)
(2.71988e-07 -6.82877e-06 0.0878735)
(1.50499e-06 -3.04699e-06 0.0878374)
(-2.19676e-06 -3.20405e-07 0.0878351)
(2.63762e-06 -1.37275e-05 0.0916718)
(4.31465e-08 3.33332e-06 0.082504)
(-1.93214e-06 -2.48783e-06 0.0916272)
(4.63309e-06 -6.30938e-06 0.0825588)
(-8.59724e-06 -1.67753e-05 0.10978)
(5.86784e-07 -2.46536e-05 0.0987509)
(-1.43312e-06 -1.89759e-06 0.0932378)
(-4.98211e-06 -1.22354e-05 0.107445)
(-4.8147e-06 -2.5077e-06 0.0986946)
(-6.0583e-06 -2.33066e-05 0.0932986)
(-5.12123e-06 -1.5781e-05 0.109775)
(-3.87634e-06 -1.5515e-05 0.109779)
(5.64114e-07 -2.34723e-05 0.0987494)
(-1.91421e-06 -1.14244e-06 0.0932356)
(-2.74825e-07 -9.7128e-06 0.107438)
(-3.97179e-06 -2.5225e-06 0.0986941)
(6.99113e-06 -1.37375e-05 0.0932897)
(-1.75303e-06 -1.46684e-05 0.109774)
(3.702e-06 -1.49762e-06 0.0916487)
(-9.07472e-08 -7.77686e-06 0.0825809)
(1.12693e-06 2.39157e-06 0.0825287)
(5.45558e-06 -9.72218e-06 0.091687)
(4.31604e-06 -2.86071e-07 0.091648)
(3.09379e-06 -5.08929e-06 0.082568)
(3.42443e-06 6.84985e-06 0.0825252)
(6.74487e-06 -8.72165e-06 0.0916871)
(2.78111e-06 -9.99679e-07 0.0987081)
(1.03048e-06 -8.71578e-06 0.107443)
(-2.15173e-06 -1.4392e-05 0.0933084)
(5.44503e-06 -1.12627e-05 0.10977)
(7.40775e-07 -2.41235e-06 0.0932591)
(4.76661e-07 -1.345e-05 0.109773)
(7.35427e-06 -1.86263e-05 0.0987618)
(2.85758e-06 4.02648e-07 0.0987066)
(5.50838e-06 -9.1052e-06 0.107436)
(9.55595e-06 -6.78364e-06 0.0933038)
(9.18469e-06 -1.16869e-05 0.109769)
(2.32024e-06 8.08051e-06 0.093249)
(3.25557e-06 -1.30732e-05 0.109772)
(8.42243e-06 -1.73842e-05 0.0987617)
(3.92137e-07 6.39959e-08 0.0878133)
(-1.6585e-06 -1.55893e-06 0.087809)
(3.79943e-05 -4.08478e-05 0.104343)
(7.57083e-06 -7.15266e-07 0.0878533)
(1.46628e-06 -5.1986e-06 0.0878538)
(3.10132e-06 -2.35591e-06 0.0718562)
(3.63956e-06 -1.94755e-06 0.0718525)
(1.72535e-06 3.96447e-06 0.0718178)
(-2.92189e-05 2.80176e-05 0.104236)
(6.46171e-06 1.3175e-06 0.0878663)
(1.23426e-06 8.09926e-06 0.087822)
(-6.7553e-06 2.50528e-06 0.0878249)
(-2.70619e-06 1.45075e-06 0.0718197)
(-2.63085e-06 3.81154e-08 0.0932393)
(-1.61675e-05 -8.73753e-06 0.107451)
(-1.78147e-05 -5.92307e-06 0.109781)
(-2.61515e-05 1.32471e-06 0.0987502)
(-1.38247e-05 -3.85119e-06 0.107446)
(-2.33582e-05 -6.48564e-06 0.0932982)
(-1.73987e-05 -2.86143e-06 0.109775)
(-2.35539e-06 1.93723e-08 0.0916257)
(3.35176e-06 8.07936e-09 0.0824977)
(-1.54586e-05 1.84739e-06 0.0916726)
(-8.3084e-06 3.49815e-06 0.082556)
(-1.71609e-05 5.42178e-07 0.10978)
(-1.45416e-05 4.13706e-06 0.107445)
(-8.72493e-07 -3.9686e-07 0.0932354)
(-2.5508e-05 1.4008e-06 0.0987493)
(-1.33494e-05 3.9254e-06 0.10744)
(-1.69836e-05 1.78408e-06 0.109773)
(-1.89731e-05 7.54112e-06 0.0932932)
(-3.12099e-06 1.99873e-06 0.091649)
(-6.87532e-06 -3.0618e-06 0.0825842)
(2.8256e-06 -1.15622e-06 0.0825297)
(-1.10689e-05 1.06904e-06 0.0916887)
(-2.72182e-06 2.35023e-06 0.0987075)
(-9.25268e-06 5.27219e-07 0.107443)
(-1.29264e-05 -6.46016e-06 0.093308)
(-1.06003e-05 2.60012e-06 0.109768)
(-2.25823e-06 -7.88233e-07 0.0932587)
(-1.44653e-05 6.56385e-07 0.109772)
(-1.92387e-05 2.94826e-06 0.0987611)
(-2.63414e-06 2.316e-06 0.091648)
(-6.65055e-06 2.68703e-06 0.0825786)
(4.51799e-06 2.10553e-06 0.082526)
(-1.09075e-05 2.02786e-06 0.0916894)
(-2.1079e-06 2.24948e-06 0.0987065)
(-1.03193e-05 4.74858e-06 0.107438)
(-1.11265e-05 5.00199e-06 0.109767)
(-1.22266e-05 8.3884e-06 0.0933084)
(-1.45589e-05 3.47852e-06 0.109771)
(1.78741e-06 2.22672e-06 0.0932536)
(-1.90247e-05 3.22889e-06 0.0987612)
(-3.2027e-06 -3.82124e-07 0.0825081)
(1.08168e-05 5.00023e-07 0.0916701)
(7.48523e-06 -1.18415e-06 0.0825604)
(1.25294e-05 7.89216e-07 0.109782)
(1.72552e-06 -6.39341e-08 0.0986986)
(-1.08769e-06 2.52476e-06 0.093238)
(1.94407e-05 1.27393e-06 0.098749)
(6.75826e-06 4.17958e-06 0.107441)
(1.04905e-05 2.03572e-06 0.109778)
(1.16086e-05 7.8647e-06 0.0932897)
(-3.61296e-06 2.22568e-06 0.0825084)
(1.07085e-05 1.84229e-06 0.0916703)
(6.74697e-06 2.82082e-06 0.0825595)
(-4.35379e-06 2.59842e-07 0.0987046)
(7.76481e-06 -4.87036e-06 0.107439)
(1.27162e-05 -2.40822e-06 0.109771)
(-7.98504e-06 1.13057e-06 0.0932494)
(1.02662e-05 -1.49823e-06 0.109775)
(-3.20773e-06 3.97441e-07 0.0916447)
(-5.47808e-06 8.73455e-07 0.0825267)
(-4.42589e-06 1.78282e-06 0.098705)
(8.82735e-06 8.3603e-06 0.107441)
(1.29179e-05 5.408e-06 0.10977)
(1.05481e-05 3.92717e-06 0.109776)
(-9.21297e-06 1.13826e-06 0.0932493)
(-3.28716e-06 1.96481e-06 0.0916451)
(-6.01956e-06 2.22246e-07 0.0825257)
(-2.06254e-07 2.54079e-06 0.087811)
(-3.48815e-06 -6.62997e-07 0.087808)
(-4.35426e-05 4.16714e-05 0.10435)
(-7.93148e-06 7.80927e-06 0.0878577)
(-4.74726e-06 8.98671e-06 0.0878601)
(-1.14175e-06 3.99723e-06 0.0718581)
(2.91663e-06 4.99045e-07 0.0718269)
(2.75487e-05 -2.75914e-05 0.104242)
(5.90459e-07 9.5274e-07 0.0878301)
(3.22462e-06 1.1416e-06 0.0878323)
(2.82384e-06 -1.77964e-06 0.0718264)
(-3.93248e-07 8.83952e-06 0.107446)
(-2.56397e-06 1.56918e-06 0.0986959)
(-1.27711e-07 -2.8758e-07 0.0932387)
(4.09526e-07 2.12604e-05 0.0987478)
(2.2606e-06 8.99054e-06 0.107441)
(-2.8659e-07 1.25302e-05 0.109777)
(7.18877e-06 1.20871e-05 0.0932901)
(-2.13698e-06 2.04126e-06 0.0916285)
(1.4706e-06 1.2335e-05 0.0916704)
(2.0934e-07 9.26313e-06 0.0825573)
(9.52349e-07 -3.68502e-06 0.0825091)
(2.27513e-06 1.17185e-05 0.0916705)
(4.12988e-06 6.34418e-06 0.0825596)
(1.04828e-06 -1.37085e-06 0.0987043)
(-2.99062e-06 1.01558e-05 0.10744)
(-1.43087e-06 1.29705e-05 0.109772)
(1.97732e-06 -1.61006e-06 0.093254)
(2.13546e-06 -2.21877e-06 0.0987041)
(7.4933e-06 1.04603e-05 0.107441)
(3.56462e-06 1.27686e-05 0.109773)
(1.61463e-06 -8.96793e-06 0.0932491)
(2.65159e-06 -9.23509e-07 0.0916458)
(2.36227e-06 -3.42989e-06 0.0825262)
(3.61153e-06 -1.70219e-06 0.0916456)
(2.28025e-06 -6.61774e-06 0.0825257)
(-2.6104e-06 7.21794e-07 0.0718119)
(2.61854e-06 3.86496e-06 0.0718542)
(5.14963e-06 1.90489e-06 0.0718545)
(-2.70535e-05 -2.54308e-05 0.10424)
(-7.03091e-06 -1.01123e-06 0.0878248)
(3.13516e-07 -7.49608e-06 0.0878223)
(-2.92994e-06 -4.46032e-07 0.071818)
(1.25558e-06 -3.70403e-06 0.0718176)
(-8.35561e-06 -3.03969e-06 0.0825015)
(4.76384e-06 -1.7118e-06 0.0824525)
(-1.30059e-05 -2.35468e-06 0.091636)
(-7.59949e-07 -8.27029e-07 0.0915983)
(-5.75288e-06 -1.54124e-05 0.11463)
(-1.55948e-05 2.80003e-06 0.114614)
(2.75398e-06 1.36579e-05 0.114614)
(3.91456e-06 -1.49088e-05 0.114628)
(-1.23438e-05 1.39759e-05 0.11224)
(-8.38693e-06 1.77405e-05 0.0932617)
(-5.09898e-06 1.20766e-05 0.107456)
(1.47955e-08 2.40028e-05 0.0987343)
(-1.54178e-06 1.60744e-05 0.109794)
(4.71496e-06 -1.5234e-06 0.0957932)
(-1.0819e-05 -5.24485e-06 0.107455)
(-1.11409e-05 -7.7405e-06 0.107456)
(-2.16873e-05 -2.3743e-06 0.0987336)
(-1.54355e-05 -2.27297e-06 0.109798)
(7.02664e-07 5.55164e-08 0.0986813)
(-1.46064e-05 -3.90609e-06 0.109795)
(3.88036e-06 8.1646e-07 0.0824515)
(-9.71879e-06 1.63072e-06 0.0825041)
(-1.33714e-05 -9.32348e-07 0.0916365)
(-1.04572e-06 -1.40558e-07 0.0915985)
(-1.70991e-05 6.68834e-06 0.0932613)
(-1.1516e-05 6.59067e-06 0.107456)
(-1.11243e-05 5.98314e-06 0.107454)
(-2.20953e-05 -9.81987e-07 0.098734)
(-1.56989e-05 3.72167e-06 0.109798)
(4.32392e-07 3.46846e-07 0.0986818)
(-1.47299e-05 2.48612e-06 0.109794)
(3.81539e-06 -7.3809e-07 0.08247)
(-1.43844e-05 -1.10804e-06 0.0916506)
(-9.75171e-06 -5.84488e-07 0.0825233)
(-7.08845e-07 -2.46111e-06 0.0916096)
(-1.31669e-05 -1.03438e-05 0.107454)
(-2.43843e-05 -2.94823e-06 0.0987388)
(-2.03078e-05 -6.62035e-06 0.0932771)
(-1.54743e-05 -1.1249e-05 0.107453)
(-1.6383e-05 -6.84717e-06 0.109785)
(4.81242e-07 -2.99748e-06 0.0986885)
(-1.49728e-05 -5.85125e-06 0.109791)
(2.71111e-06 -5.47224e-07 0.0824728)
(-1.42863e-05 -5.42218e-07 0.0916507)
(-9.39232e-06 1.26126e-06 0.0825281)
(-1.0429e-06 -9.93058e-07 0.0916094)
(-2.43377e-05 -1.20856e-06 0.0987384)
(-1.58546e-05 4.56308e-07 0.109785)
(-1.3699e-05 4.73536e-06 0.107448)
(-1.20553e-05 5.39419e-06 0.107452)
(-1.98381e-05 5.4358e-06 0.0932748)
(1.07348e-07 -1.20294e-06 0.0986887)
(-1.4779e-05 1.27449e-06 0.109791)
(1.47988e-05 -1.8562e-06 0.109784)
(9.80147e-06 -3.11983e-06 0.107449)
(2.52308e-05 -2.84978e-07 0.0987424)
(2.03026e-05 -8.33927e-06 0.0932778)
(1.68947e-05 -2.05119e-06 0.109788)
(1.6185e-05 -2.709e-07 0.0916552)
(9.78358e-06 -2.39191e-06 0.082536)
(1.51476e-05 1.03448e-06 0.109784)
(2.53758e-05 -1.94901e-07 0.0987428)
(2.02149e-05 8.39863e-06 0.0932781)
(1.33802e-05 4.0235e-06 0.107452)
(1.71654e-05 2.4721e-06 0.109788)
(3.16642e-06 9.87337e-07 0.0932253)
(9.66152e-06 3.77803e-06 0.0825364)
(-2.40273e-06 8.04929e-07 0.0824733)
(8.25592e-07 2.43457e-05 0.0987347)
(4.97497e-06 1.64763e-05 0.109793)
(-3.74465e-06 8.9477e-06 0.0825034)
(-1.34385e-06 1.52668e-05 0.091637)
(-5.88951e-07 1.56229e-05 0.0916375)
(-5.36641e-06 1.42096e-05 0.109785)
(-2.91541e-06 -1.67947e-06 0.093221)
(-7.04031e-06 1.16619e-05 0.107454)
(-8.93995e-06 1.83748e-05 0.0932758)
(-3.51791e-06 2.40545e-05 0.0987396)
(-1.11028e-06 1.65238e-06 0.0986895)
(-3.33796e-06 1.51384e-05 0.10979)
(8.34119e-07 9.97841e-06 0.10745)
(-2.54838e-06 2.45994e-05 0.0987405)
(5.88671e-06 2.10947e-05 0.0932798)
(-1.63893e-07 2.19028e-06 0.09869)
(4.29355e-06 1.16845e-05 0.107455)
(2.45732e-06 1.54349e-05 0.10979)
(7.17284e-07 3.25904e-06 0.0932254)
(-2.25617e-06 9.18288e-06 0.0825311)
(-2.71377e-06 1.48317e-05 0.0916526)
(-2.19548e-06 2.90336e-06 0.091612)
(2.13745e-06 9.71444e-06 0.0825378)
(-1.29038e-06 3.37333e-06 0.0916125)
(-5.37074e-07 -1.63114e-06 0.0824754)
(6.74513e-06 8.65543e-06 0.0878399)
(7.55992e-06 8.38606e-06 0.087836)
(-2.57795e-05 -2.74163e-05 0.104252)
(5.69211e-06 6.43565e-07 0.0877921)
(-2.62286e-07 6.01911e-06 0.0877894)
(3.32987e-06 4.27496e-06 0.071841)
(-1.66729e-06 -2.2963e-07 0.0717758)
(-1.32935e-06 -9.84246e-07 0.0717778)
(3.74665e-06 -3.64735e-06 0.0918797)
(2.50109e-06 -9.76025e-07 0.0877733)
(-1.63939e-05 -1.56611e-05 0.096495)
(-4.53942e-06 -2.4738e-06 0.0818034)
(3.03486e-06 5.98227e-07 0.0817669)
(-1.24859e-05 -1.13441e-05 0.0919174)
(5.79018e-06 -2.03665e-06 0.0964552)
(-1.53134e-05 -1.04942e-05 0.0919321)
(3.77851e-06 -4.23196e-06 0.0964619)
(-9.19306e-06 -6.84471e-06 0.0878225)
(-9.71673e-08 1.56823e-06 0.081779)
(1.0373e-06 -4.13502e-06 0.0918933)
(-8.53716e-06 -2.37472e-06 0.081818)
(-1.94732e-05 -1.63482e-05 0.0965033)
(-3.71849e-06 2.53989e-06 0.0718151)
(-1.487e-05 7.93567e-06 0.0919147)
(2.55856e-06 2.49202e-08 0.0964544)
(-9.76598e-06 5.91605e-06 0.0878227)
(-1.60763e-06 -1.18211e-06 0.0817846)
(7.04614e-07 1.39963e-06 0.0918806)
(-8.58162e-06 2.71373e-06 0.0818218)
(-1.98995e-05 1.19587e-05 0.0964918)
(-4.05323e-06 3.45267e-06 0.0718169)
(-1.72315e-05 -5.72261e-06 0.0919447)
(-3.03864e-06 8.56336e-07 0.0964775)
(-6.61355e-06 -1.48775e-06 0.0818139)
(-1.51259e-05 -6.28786e-06 0.0878518)
(-2.91616e-06 1.32273e-07 0.0919119)
(-1.35427e-05 -6.75334e-06 0.0818553)
(-2.52405e-05 -8.7504e-06 0.0965176)
(3.41119e-06 -2.42031e-06 0.0718537)
(5.4678e-06 6.82626e-07 0.0771965)
(1.19444e-06 -1.51712e-06 0.090154)
(6.26823e-07 5.35864e-07 0.0789386)
(1.40563e-05 1.59238e-07 0.0916633)
(1.23626e-05 -1.36313e-06 0.090192)
(6.02352e-06 8.89306e-07 0.0789687)
(-1.77417e-07 -9.72192e-07 0.0771601)
(5.17551e-06 1.46849e-06 0.0771955)
(5.43738e-07 1.26103e-06 0.078939)
(1.10539e-06 2.23411e-06 0.0901556)
(1.40031e-05 1.10786e-06 0.0916636)
(5.93229e-06 1.19277e-06 0.0789688)
(1.21634e-05 2.80912e-06 0.090192)
(-5.09464e-07 2.79659e-06 0.0771619)
(-2.0529e-06 3.96084e-06 0.0718463)
(7.83211e-07 3.82926e-06 0.0687183)
(-2.12034e-06 -1.43656e-06 0.0860948)
(-1.0069e-06 9.29557e-06 0.0825448)
(-1.81555e-06 9.09804e-06 0.0861414)
(-1.42883e-06 -1.73719e-06 0.0686673)
(1.14882e-06 5.05572e-06 0.0771943)
(-5.05909e-08 1.07114e-06 0.090154)
(6.47857e-07 -2.92631e-08 0.0789361)
(-3.8097e-07 1.37331e-05 0.091662)
(9.4881e-07 1.24483e-05 0.0901916)
(1.2952e-06 5.79272e-06 0.0789669)
(1.61224e-06 -8.6015e-07 0.0771593)
(4.45161e-06 2.47985e-06 0.0718516)
(1.10276e-06 2.55513e-06 0.0771466)
(7.95912e-06 7.47458e-07 0.078955)
(1.46837e-05 1.7773e-06 0.0901843)
(4.39809e-06 7.10067e-08 0.0916228)
(7.16252e-06 1.45345e-06 0.0771831)
(1.96475e-06 6.95023e-07 0.0789231)
(2.9067e-06 1.32381e-06 0.0901473)
(-1.54769e-06 3.66104e-06 0.0686911)
(-3.22143e-06 9.06232e-06 0.082517)
(-3.74406e-06 -1.28466e-06 0.086071)
(-3.36216e-06 -1.86363e-06 0.0686377)
(-4.22488e-06 9.49795e-06 0.0861174)
(3.76902e-07 5.51592e-07 0.0771456)
(-5.26467e-07 1.44078e-05 0.0901828)
(-4.43793e-07 7.09396e-06 0.0789541)
(-2.05113e-06 3.18207e-06 0.0916203)
(-3.64538e-07 6.59241e-06 0.0771824)
(-7.13445e-07 2.48017e-06 0.0901452)
(-8.02534e-07 1.11609e-06 0.0789222)
(-8.22887e-07 -1.74621e-06 0.0717982)
(-3.73874e-06 9.10609e-07 0.0771135)
(-2.46334e-06 -6.50973e-06 0.0789231)
(-4.44394e-06 -1.20904e-05 0.0901618)
(-2.25395e-06 -6.81171e-07 0.0916025)
(-2.51634e-06 5.92309e-08 0.0788929)
(-3.58145e-06 5.90347e-07 0.0901247)
(-2.57379e-06 -5.8111e-06 0.0771487)
(-2.34485e-06 -3.0778e-06 0.0686554)
(-3.76659e-06 -8.02771e-06 0.0824919)
(-2.6095e-06 2.99438e-06 0.0860516)
(-3.95519e-06 -7.98348e-06 0.0860945)
(-3.47787e-06 2.3728e-06 0.068607)
(-3.94595e-06 2.61465e-06 0.0686182)
(-4.69023e-06 -8.74303e-06 0.0861027)
(-2.23626e-06 4.42396e-06 0.0824601)
(-3.9621e-06 2.47144e-06 0.0860587)
(-2.40571e-06 -2.97888e-06 0.0686665)
(-2.20233e-06 -5.80982e-06 0.0771379)
(-1.11016e-06 -1.29977e-05 0.0916288)
(-1.43811e-06 2.14426e-07 0.0788829)
(-1.41628e-06 6.11297e-07 0.090119)
(-1.81939e-06 -6.35578e-06 0.0789126)
(-2.60322e-06 -1.18417e-05 0.0901556)
(-3.00891e-06 8.54197e-07 0.077103)
(-3.96119e-06 3.79038e-06 0.0717881)
(1.47503e-06 -2.06945e-07 0.0717576)
(1.60479e-07 -5.90273e-07 0.0771664)
(8.48171e-07 -2.73338e-06 0.091639)
(2.89498e-06 -6.90408e-06 0.0789752)
(1.18132e-06 -1.39555e-05 0.0902032)
(1.918e-06 -6.66437e-07 0.0789445)
(1.58438e-07 -1.8954e-06 0.0901652)
(2.09833e-06 -7.11673e-06 0.0772021)
(1.01104e-06 -4.42286e-06 0.068711)
(-1.08966e-06 -3.00861e-07 0.0860947)
(-5.5538e-07 -9.83532e-06 0.0825387)
(-1.04287e-06 1.52629e-06 0.0686607)
(-8.86101e-07 -1.11353e-05 0.0861405)
(7.78147e-07 -7.18159e-06 0.0771882)
(-6.83579e-07 -1.52117e-05 0.0916622)
(1.08939e-07 -6.03214e-07 0.0789305)
(-2.29039e-06 -1.78747e-06 0.0901536)
(-1.22972e-06 -1.75003e-07 0.0771517)
(1.32016e-06 -7.21729e-06 0.0789619)
(-1.1005e-06 -1.4555e-05 0.0901929)
(1.67626e-08 9.24196e-07 0.0686781)
(1.44181e-08 -9.86044e-06 0.0861527)
(1.2003e-06 2.47204e-06 0.0825116)
(2.03733e-07 2.1227e-07 0.0861081)
(1.79559e-06 -4.72342e-06 0.0687274)
(3.62451e-06 -2.47598e-06 0.0718523)