/*--------------------------------*- C++ -*----------------------------------*\
| =========                 |                                                 |
| \\      /  F ield         | OpenFOAM: The Open Source CFD Toolbox           |
|  \\    /   O peration     | Version:  v2006                                 |
|   \\  /    A nd           | Website:  www.openfoam.com                      |
|    \\/     M anipulation  |                                                 |
\*---------------------------------------------------------------------------*/
FoamFile
{
    version     2.0;
    format      ascii;
    class       volScalarField;
    location    "875";
    object      nut;
}
// * * * * * * * * * * * * * * * * * * * * * * * * * * * * * * * * * * * * * //

dimensions      [0 2 -1 0 0 0 0];


internalField   nonuniform List<scalar> 
14314
(
0.000220208
0.0001989
0.000202068
0.0001642
0.000263136
0.00023506
0.000249489
0.000225232
0.000168655
0.000194959
0.00019864
0.000173538
0.000194891
0.000195498
0.000199722
0.000200178
0.000170124
0.000196383
0.000200317
0.000167419
0.000174393
0.00023353
0.000196809
0.000198634
0.000243959
0.000229471
0.000175316
0.000211121
0.000196756
0.000202928
0.00024568
0.000245809
0.000197101
0.000226618
0.000225275
0.000178966
0.000237276
0.000196861
0.000243137
0.000227335
0.00021594
0.000241424
0.00025374
0.000237601
0.000219427
0.000255152
0.000251727
0.000250579
0.000257078
0.000247373
0.000235859
0.000246922
0.000237632
9.27143e-05
5.07175e-05
2.40109e-05
9.24961e-05
5.06616e-05
0.000219879
0.000222905
0.00022195
0.000224892
0.000137936
0.000200743
9.71684e-05
0.000219028
2.40714e-05
0.000138023
0.000200755
0.000219616
9.53332e-05
0.000175452
7.09078e-05
7.07665e-05
0.000104429
5.15194e-05
9.93374e-05
5.20518e-05
2.42244e-05
2.43689e-05
0.000106455
5.16528e-05
9.97831e-05
5.22636e-05
0.000222456
0.000222548
0.000223245
0.000250283
0.000237587
0.000248105
0.000234743
0.000143602
0.000100491
0.000217116
0.000201895
0.000136095
0.00010514
0.000216907
2.44395e-05
2.45115e-05
0.000149679
0.000216589
0.000103853
0.000219475
0.000136775
0.000222045
0.000112617
7.2837e-05
7.3165e-05
0.000176792
7.90454e-05
7.97682e-05
0.000129036
5.67527e-05
0.000111957
9.38653e-05
2.76093e-05
5.22623e-05
0.000130674
5.66962e-05
0.000115079
9.50355e-05
0.000261254
0.000257195
0.000258241
0.000276594
0.000254824
0.000266984
0.000267316
0.000178132
0.000119608
0.00024685
0.000250423
0.000164982
0.000127587
0.000256088
2.72902e-05
4.84794e-05
0.000182854
0.00025358
0.00012738
0.000252219
0.00017037
0.000257146
0.000123937
8.99161e-05
9.10725e-05
0.000247751
0.000104804
0.000105178
2.40255e-05
2.40255e-05
0.000166109
6.99441e-05
6.95472e-05
2.43029e-05
2.40694e-05
2.43289e-05
2.40739e-05
0.000164539
7.59917e-05
7.58268e-05
7.1147e-05
7.05654e-05
9.2968e-05
5.07586e-05
0.000133997
0.000195534
9.42089e-05
0.000214212
0.000134402
0.000199421
9.62251e-05
0.000215491
9.30453e-05
5.14152e-05
5.08215e-05
9.80078e-05
9.33664e-05
5.12683e-05
5.08352e-05
9.79879e-05
0.000133568
0.000195072
9.97157e-05
0.000214145
9.46653e-05
0.000214054
0.000138828
0.000134077
0.000199032
0.00010021
0.000215265
9.68955e-05
0.000215298
0.000139003
0.000172714
7.22755e-05
7.23259e-05
2.3977e-05
2.42e-05
2.40385e-05
0.000171839
7.57488e-05
7.49386e-05
7.32669e-05
7.26722e-05
2.41805e-05
2.40045e-05
0.00013433
0.000195773
9.38982e-05
0.00021486
9.25381e-05
5.07127e-05
0.000134614
0.000199422
0.000216398
9.42434e-05
9.20359e-05
5.15258e-05
5.07935e-05
9.7817e-05
0.000133148
0.000195246
9.92977e-05
0.000214393
9.38988e-05
0.000214612
0.000137872
9.20977e-05
5.16638e-05
5.08723e-05
9.80034e-05
0.000133335
0.000197599
0.000215093
0.000100575
0.000215937
9.39719e-05
0.000138126
9.48938e-05
5.0606e-05
0.000138105
0.000204318
0.000220609
9.64338e-05
9.48376e-05
5.03621e-05
0.000137458
0.000200334
9.85246e-05
0.000217761
9.69483e-05
0.000218153
0.000135643
9.4531e-05
5.11469e-05
5.06715e-05
9.38191e-05
0.000137442
0.000201707
0.000218205
9.39885e-05
0.000218946
9.58688e-05
0.000135171
9.43778e-05
5.09752e-05
5.04068e-05
9.30867e-05
0.000169354
6.91567e-05
6.9525e-05
2.40483e-05
2.44088e-05
2.41325e-05
0.000166438
7.74531e-05
7.69559e-05
7.04795e-05
6.99895e-05
2.43955e-05
2.4109e-05
0.000138233
0.000204313
0.000220784
9.63441e-05
9.45747e-05
5.06033e-05
9.4653e-05
5.03409e-05
0.000137281
0.000198983
0.000217855
9.92264e-05
0.0002191
9.4386e-05
0.000134549
0.000137526
0.000201975
0.000218899
9.3711e-05
0.000219717
9.56993e-05
0.000134217
9.40317e-05
5.15768e-05
5.07526e-05
9.4458e-05
9.41102e-05
5.11149e-05
5.0408e-05
9.3155e-05
2.38585e-05
2.38694e-05
0.000173001
6.982e-05
6.98024e-05
7.01914e-05
6.99823e-05
2.41489e-05
2.38904e-05
2.41839e-05
2.39055e-05
2.43374e-05
2.4507e-05
2.43655e-05
2.45325e-05
7.84947e-05
7.85215e-05
0.000195921
8.28252e-05
8.33468e-05
2.5294e-05
2.45281e-05
2.52658e-05
2.45492e-05
0.000206009
9.11341e-05
9.23941e-05
8.50748e-05
8.57734e-05
0.000103994
5.13439e-05
9.91979e-05
5.17751e-05
0.000151261
0.000103255
0.000215234
0.000210744
0.0001428
0.00011
0.000219982
0.000150479
0.000102376
0.000215906
0.000204174
0.000142659
0.000106657
0.000218882
0.000105254
5.36757e-05
5.2152e-05
0.000110794
0.000104751
5.34082e-05
5.18644e-05
0.000110063
0.000155571
0.000227407
0.000122242
0.000244854
0.000113421
0.000235628
0.000165628
0.00015446
0.000215402
0.000116111
0.000240166
0.000109005
0.000231413
0.000163895
7.72049e-05
7.64554e-05
0.000184559
7.99413e-05
7.94173e-05
2.42077e-05
2.43608e-05
2.51942e-05
2.43924e-05
0.000189939
8.57667e-05
8.5714e-05
8.15145e-05
8.11041e-05
2.5181e-05
2.43839e-05
0.000154789
0.000103304
0.000215045
0.000212006
0.000142443
0.00011106
0.000223101
0.00010676
5.18089e-05
0.000100008
5.23516e-05
0.000155476
0.000216082
0.000105234
0.000221305
0.000142682
0.000226363
0.00011376
0.000107993
5.36984e-05
5.23543e-05
0.000113736
0.000160517
0.000229102
0.000124707
0.000248075
0.000115251
0.000240107
0.000172082
0.000108303
5.34568e-05
5.24005e-05
0.000113793
0.000161217
0.000232285
0.000247145
0.000125418
0.000240891
0.000118132
0.00017212
0.000100956
5.12429e-05
9.52971e-05
5.17492e-05
0.000142589
0.000217215
9.52139e-05
0.000197435
0.00013481
0.00021622
0.000103035
0.000100669
5.11199e-05
9.44094e-05
5.18441e-05
0.000148087
0.000212467
0.00011559
0.000232137
0.000107787
0.000223345
0.000159336
0.00010198
5.33444e-05
5.18441e-05
0.0001083
0.000147566
0.000208818
0.000230813
0.000118073
0.000221741
0.000107562
0.000159737
0.000101889
5.34604e-05
5.19647e-05
0.000108515
8.08491e-05
8.04109e-05
0.000210351
8.64376e-05
8.60437e-05
2.44277e-05
2.45031e-05
2.49832e-05
2.44908e-05
0.000219148
9.56523e-05
9.5445e-05
8.91261e-05
8.87678e-05
2.49745e-05
2.44828e-05
0.000147183
0.000216989
9.54378e-05
0.000198141
0.00013467
0.0002172
0.000104486
0.000104213
5.17415e-05
9.68763e-05
5.23189e-05
0.000103188
5.12861e-05
9.55439e-05
5.20559e-05
0.000155547
0.000230203
0.000240604
0.000124644
0.000234868
0.000117069
0.000167207
0.000153196
0.000211177
0.00023543
0.000120287
0.000227491
0.000109599
0.000165916
0.000105882
5.34151e-05
5.23714e-05
0.000111848
0.000104949
5.35147e-05
5.21697e-05
0.000111346
2.42009e-05
2.44184e-05
2.4237e-05
2.44447e-05
0.000187449
8.88587e-05
9.00029e-05
8.18943e-05
8.27766e-05
2.51797e-05
2.44388e-05
2.51538e-05
2.44608e-05
2.77283e-05
5.41531e-05
2.76905e-05
5.39168e-05
9.20232e-05
9.31917e-05
0.000262578
0.000108191
0.000108805
0.000269552
0.000108896
0.000109081
0.000128378
5.64848e-05
0.000111244
9.09824e-05
0.000182102
0.000125872
0.000259248
0.000266859
0.000170679
0.000133885
0.000265517
0.000180651
0.000120146
0.000254149
0.000251835
0.000168997
0.00012782
0.000261751
0.000194504
0.0002711
0.000133983
0.000268881
0.000192913
0.000258938
0.000128177
0.000265987
8.6943e-05
8.6889e-05
0.000240549
0.000102759
0.000102626
2.75872e-05
5.21636e-05
0.000252036
0.000103679
0.000103489
0.000187217
0.000127715
0.000262321
0.000267342
0.000175135
0.000135557
0.000265936
0.000129466
5.61155e-05
0.000115174
9.40557e-05
0.000186049
0.00026051
0.000128077
0.000253739
0.000174829
0.000263024
0.000124443
0.000194017
0.000270936
0.000135047
0.000266917
0.000190432
0.00024938
0.000263328
0.000120955
0.000258903
0.000252852
0.000248028
0.000262883
0.000251435
0.000263765
0.000259344
0.000259119
0.000256326
0.000252186
0.000265484
0.000253386
0.000264758
0.000260014
0.000256907
0.000246475
0.000248287
0.000261011
0.000249819
0.000258186
0.000258231
0.000264476
0.000279749
0.000272488
0.000271025
0.000263035
0.000269309
0.000269854
0.00026575
0.000262147
0.000263294
0.00026797
0.00026359
0.000261123
0.000266326
0.000264814
0.000263185
0.000127461
5.64033e-05
0.000109649
9.09416e-05
0.000178664
0.000245932
0.000121757
0.000251923
0.000165435
0.000255756
0.000130413
0.000127774
5.65077e-05
0.000109898
9.31544e-05
0.000190676
0.000257949
0.000127733
0.000261344
0.000191287
0.00025752
0.000261115
0.000130273
9.65244e-05
9.63701e-05
0.00024496
9.429e-05
9.38214e-05
2.72667e-05
4.83095e-05
0.000235567
9.23263e-05
9.17971e-05
0.000183024
0.000249424
0.000123491
0.000252202
0.000169562
0.000256083
0.00013197
0.000127645
5.60329e-05
0.000113385
9.41296e-05
0.0001286
5.64456e-05
0.000112885
9.42277e-05
0.000188004
0.000248198
0.000258291
0.000120346
0.000190543
0.000257102
0.000258859
0.000130899
2.75819e-05
5.25115e-05
2.7543e-05
5.21299e-05
0.000254471
0.000105018
0.00010463
5.56538e-05
5.52211e-05
0.000129118
9.77106e-05
0.000128469
9.44656e-05
5.38263e-05
5.36865e-05
0.000128457
9.76564e-05
0.000126864
9.42364e-05
0.000127511
9.41931e-05
0.00012779
9.60618e-05
4.94132e-05
4.92099e-05
0.000125007
9.42303e-05
0.00012627
9.59898e-05
5.38105e-05
5.32911e-05
3.67693e-05
9.30935e-05
4.11771e-05
8.69615e-05
4.11281e-05
8.7031e-05
3.68569e-05
2.03626e-05
7.30843e-05
5.05383e-05
7.29813e-05
2.04516e-05
2.39471e-05
3.6752e-05
9.30614e-05
8.62358e-05
4.11754e-05
8.68307e-05
4.11139e-05
3.68513e-05
2.03435e-05
7.17237e-05
5.04497e-05
7.19135e-05
2.04474e-05
2.39603e-05
6.37107e-05
2.15175e-05
2.15132e-05
2.138e-05
2.13759e-05
6.18343e-05
9.04004e-05
4.79381e-05
7.19879e-05
0.000115325
0.000117593
4.78695e-05
8.83637e-05
9.03952e-05
4.79216e-05
7.18467e-05
0.000115287
0.000117541
4.78512e-05
8.8355e-05
3.7359e-05
0.000102429
4.1716e-05
9.8298e-05
4.16705e-05
9.75902e-05
3.74357e-05
2.07611e-05
7.93028e-05
5.1746e-05
2.06714e-05
7.97087e-05
3.73129e-05
0.000101323
4.15388e-05
9.46072e-05
3.7224e-05
4.15888e-05
9.55644e-05
2.07378e-05
8.17323e-05
5.18388e-05
8.15148e-05
2.08337e-05
2.4288e-05
2.43099e-05
3.74772e-05
0.000104096
0.000100201
4.18388e-05
9.88109e-05
4.17966e-05
3.75392e-05
2.08209e-05
7.9522e-05
5.19204e-05
2.07313e-05
8.02089e-05
3.74241e-05
0.000102324
9.48075e-05
4.16492e-05
3.73295e-05
9.61398e-05
4.1719e-05
2.07976e-05
8.35519e-05
5.20288e-05
8.27619e-05
2.08855e-05
2.44951e-05
2.45005e-05
8.0625e-05
2.24679e-05
2.247e-05
2.24134e-05
2.24151e-05
8.37111e-05
9.82163e-05
0.000112349
4.93403e-05
7.4463e-05
9.47941e-05
0.000116588
4.97504e-05
9.82011e-05
0.000112342
4.93709e-05
7.48697e-05
9.47541e-05
0.000116865
4.97861e-05
7.91454e-05
2.22481e-05
2.2247e-05
7.59634e-05
2.23397e-05
2.23395e-05
0.000104172
5.02717e-05
7.78349e-05
0.000128765
0.00012427
4.99489e-05
0.000107301
0.000104168
5.03164e-05
7.83623e-05
0.000129482
0.000124702
4.99926e-05
0.000107398
9.73937e-06
0.000120004
1.08225e-05
0.000124661
2.07842e-05
0.000115272
9.02678e-05
9.16826e-05
2.07654e-05
9.35858e-05
1.04364e-05
0.000117258
4.32887e-05
0.000107359
3.67703e-05
4.39929e-05
0.000111436
0.000116454
9.262e-05
0.000102614
3.61308e-05
3.94172e-05
9.68029e-06
0.000124566
0.000127315
1.07369e-05
0.000120413
2.06745e-05
9.31999e-05
9.23928e-05
2.06834e-05
9.66465e-05
1.03752e-05
0.000121032
0.00011071
4.32119e-05
3.66134e-05
0.000115237
4.37781e-05
0.000118868
9.40104e-05
0.000107145
0.000262244
0.000259515
0.00026324
0.000263955
0.000261046
0.000261901
0.000265008
0.000266703
0.00027087
0.000272513
0.000272614
0.000268513
0.000268909
0.000267988
0.000263027
0.000263214
0.000264066
0.000269207
0.00026534
0.000261592
0.000265523
0.000263468
0.000263008
0.000263545
0.000269336
0.000265082
0.000261745
0.000265351
0.000212139
0.000174742
0.000176376
0.000220858
0.000167133
0.000215702
0.000217094
0.00024223
0.00024664
0.000245531
0.000249525
0.000240356
0.000246225
0.000245565
0.000204933
0.000156588
0.000127017
0.000202681
0.000191429
0.000154129
0.000210503
0.0002536
0.00025874
0.000253574
0.000256525
0.000253871
0.00025314
0.00025794
3.59805e-05
3.9293e-05
0.00022157
0.000181548
0.000224929
0.000179932
0.000222519
0.000176035
0.000223245
0.000251545
0.000253069
0.00025206
0.000246361
0.000252158
0.000248109
0.000251125
0.000259246
0.000259751
0.000256368
0.00025734
0.000256669
0.00025789
0.000259383
0.000217969
0.000156821
0.000134721
0.000201929
0.000202653
0.00016412
0.000216543
0.000133958
5.84713e-06
5.84299e-06
1.12527e-05
1.12523e-05
0.000139469
0.000151087
0.000161078
5.23411e-05
0.000102937
0.000136335
0.00017142
5.51228e-05
0.000152282
0.000162466
5.23519e-05
0.000104305
0.000137187
0.000173436
5.51178e-05
0.000200383
0.000243627
0.000231198
0.000232029
0.0002271
0.000228081
0.000212116
0.000116938
2.39869e-05
2.40007e-05
0.0001153
1.21808e-05
1.21834e-05
0.000155902
2.64752e-05
0.000102932
0.000193266
0.000183484
2.49795e-05
0.00016479
0.000156886
2.6392e-05
0.000104623
0.000194414
0.000185737
2.4959e-05
0.000165453
2.3938e-05
2.39311e-05
6.53533e-05
2.18775e-05
2.18696e-05
2.17412e-05
2.17342e-05
6.89e-05
8.65269e-05
4.8569e-05
6.98084e-05
0.000110691
4.82585e-05
8.66201e-05
0.000111404
8.65612e-05
4.85378e-05
6.96056e-05
0.000110638
4.82243e-05
8.65971e-05
0.000111453
2.42109e-05
2.41696e-05
2.42296e-05
2.41835e-05
7.51008e-05
2.19956e-05
2.19881e-05
7.18389e-05
2.2112e-05
2.21044e-05
9.81131e-05
0.000121134
7.4791e-05
4.96624e-05
4.93105e-05
0.000117909
0.000100623
9.80001e-05
0.000120797
7.45272e-05
4.96724e-05
4.93087e-05
0.000117475
0.000100526
9.26984e-05
4.87584e-05
0.000110664
7.22972e-05
8.95338e-05
4.91364e-05
0.000112673
9.25608e-05
4.87374e-05
0.000110281
7.18036e-05
8.93899e-05
4.91226e-05
0.000112212
7.72518e-05
2.22926e-05
2.22874e-05
2.22029e-05
2.21971e-05
8.0014e-05
3.67736e-05
9.3293e-05
4.11775e-05
8.77915e-05
4.11312e-05
8.7651e-05
3.68532e-05
2.03636e-05
7.40043e-05
5.06086e-05
7.38235e-05
2.04427e-05
3.70167e-05
4.12518e-05
8.78476e-05
9.46923e-05
3.6916e-05
4.13137e-05
8.89287e-05
2.0581e-05
5.1171e-05
7.73227e-05
2.06769e-05
7.67077e-05
2.05704e-05
7.41904e-05
5.10576e-05
2.04698e-05
7.48169e-05
3.7075e-05
9.60444e-05
4.14549e-05
9.23455e-05
3.71735e-05
4.13968e-05
9.12325e-05
3.69914e-05
4.12487e-05
8.8755e-05
9.49403e-05
3.69001e-05
4.13065e-05
8.96093e-05
2.0542e-05
5.10885e-05
7.72511e-05
7.69229e-05
2.06255e-05
2.05389e-05
7.51291e-05
5.10103e-05
2.04529e-05
7.55418e-05
3.7037e-05
9.61419e-05
4.14399e-05
9.22969e-05
4.13861e-05
9.14091e-05
3.71273e-05
7.30047e-05
2.17964e-05
2.17984e-05
2.17189e-05
2.17225e-05
7.36194e-05
9.4139e-05
4.85855e-05
7.19441e-05
0.000116661
4.84037e-05
0.00011655
9.46105e-05
9.4407e-05
4.85537e-05
7.23767e-05
0.000117442
0.00011759
4.83897e-05
9.48098e-05
2.39189e-05
2.41329e-05
2.41068e-05
7.53194e-05
2.18654e-05
2.18669e-05
7.41217e-05
2.19509e-05
2.19505e-05
9.81188e-05
0.000121721
7.51219e-05
4.92551e-05
0.000120377
4.90139e-05
9.92743e-05
9.7969e-05
0.000120938
7.42926e-05
4.92262e-05
4.89779e-05
0.000119748
9.90923e-05
9.64084e-05
4.86838e-05
0.000117453
7.38418e-05
0.000118329
9.57046e-05
4.89049e-05
9.63832e-05
4.86475e-05
0.000117631
7.31285e-05
9.57519e-05
4.8866e-05
0.000118211
7.62162e-05
2.2102e-05
2.21003e-05
2.20235e-05
2.20226e-05
7.81821e-05
2.41068e-05
2.4077e-05
3.67684e-05
9.31533e-05
4.11826e-05
8.6239e-05
4.11197e-05
8.69121e-05
3.68718e-05
2.03611e-05
7.16613e-05
5.04681e-05
7.17496e-05
2.04745e-05
3.70541e-05
8.60288e-05
4.12676e-05
9.30755e-05
3.69318e-05
8.7447e-05
4.13552e-05
2.06216e-05
5.12303e-05
7.70087e-05
2.07329e-05
7.60616e-05
2.06003e-05
7.25519e-05
5.1087e-05
2.04768e-05
7.34547e-05
3.71419e-05
9.52159e-05
9.19848e-05
4.15498e-05
3.72568e-05
9.04284e-05
4.14628e-05
3.70836e-05
4.12769e-05
8.62072e-05
9.32282e-05
3.69606e-05
4.13659e-05
8.78961e-05
2.06569e-05
5.13569e-05
7.7743e-05
7.67483e-05
2.07591e-05
2.06366e-05
7.28071e-05
5.11902e-05
2.05082e-05
7.3899e-05
3.71774e-05
9.53796e-05
4.15626e-05
9.25007e-05
4.14746e-05
9.08011e-05
3.72884e-05
3.67075e-05
9.52797e-05
8.89586e-05
4.10878e-05
8.93986e-05
4.10655e-05
3.6761e-05
2.03115e-05
7.39406e-05
5.05079e-05
7.43825e-05
2.03794e-05
3.6659e-05
9.53479e-05
4.10694e-05
8.86262e-05
4.10533e-05
8.94418e-05
3.66975e-05
2.02534e-05
7.3034e-05
5.03413e-05
7.38266e-05
2.03153e-05
3.68844e-05
8.85582e-05
4.11408e-05
9.41109e-05
3.67989e-05
8.82069e-05
4.11846e-05
2.04902e-05
5.09331e-05
7.52675e-05
7.4753e-05
2.05913e-05
2.048e-05
7.39969e-05
5.08414e-05
2.03889e-05
7.3883e-05
3.69398e-05
9.36226e-05
8.91297e-05
4.13246e-05
8.82716e-05
4.12626e-05
3.70419e-05
3.68271e-05
4.1119e-05
8.8172e-05
9.3964e-05
3.67376e-05
4.11648e-05
8.75678e-05
2.0449e-05
5.06906e-05
7.30074e-05
7.25198e-05
2.05729e-05
2.04295e-05
7.27989e-05
5.05709e-05
2.03279e-05
7.23307e-05
3.68907e-05
9.33473e-05
4.131e-05
8.69433e-05
4.12448e-05
8.67277e-05
3.70042e-05
6.25218e-05
2.19889e-05
2.19917e-05
2.18151e-05
2.18191e-05
6.79801e-05
8.41197e-05
4.87169e-05
6.9386e-05
0.000110112
4.83155e-05
0.000111591
8.43684e-05
8.43722e-05
4.87051e-05
7.00359e-05
0.000110987
0.000112503
4.8313e-05
8.45559e-05
2.39434e-05
2.43096e-05
2.42583e-05
7.58121e-05
2.21373e-05
2.214e-05
7.239e-05
2.22664e-05
2.22681e-05
9.93972e-05
0.000123971
7.59273e-05
5.01243e-05
0.000118892
4.97409e-05
0.000103256
9.93325e-05
0.0001234
7.53863e-05
5.0112e-05
4.97261e-05
0.000118431
0.000103162
9.35415e-05
4.90195e-05
0.000109081
7.23679e-05
0.000112338
8.90695e-05
4.94544e-05
9.35183e-05
4.90013e-05
0.00010949
7.17428e-05
8.91002e-05
4.9437e-05
0.000112112
7.836e-05
2.2457e-05
2.24587e-05
2.23685e-05
2.23708e-05
8.08935e-05
2.42929e-05
2.42378e-05
3.67227e-05
9.49994e-05
8.79599e-05
4.11153e-05
8.85663e-05
4.10711e-05
3.68101e-05
2.03299e-05
7.21213e-05
5.04167e-05
7.26321e-05
2.04316e-05
3.66587e-05
9.51801e-05
8.82469e-05
4.10869e-05
8.90778e-05
4.10528e-05
3.67182e-05
2.02531e-05
7.22184e-05
5.03117e-05
7.31279e-05
2.03286e-05
3.7001e-05
8.70423e-05
4.11916e-05
9.31696e-05
3.68837e-05
8.66065e-05
4.12643e-05
2.06175e-05
5.12523e-05
7.62772e-05
7.5087e-05
2.07329e-05
2.05914e-05
7.20619e-05
5.10708e-05
2.04621e-05
7.26535e-05
3.70998e-05
9.28203e-05
9.01824e-05
4.14644e-05
8.80996e-05
4.137e-05
3.72208e-05
3.6885e-05
8.76354e-05
4.1159e-05
9.33638e-05
3.67776e-05
8.67679e-05
4.1226e-05
2.04974e-05
5.07769e-05
7.28581e-05
7.19241e-05
2.06357e-05
2.04685e-05
7.18429e-05
5.06237e-05
2.03502e-05
7.14071e-05
3.69733e-05
9.25978e-05
8.68332e-05
4.14215e-05
8.59438e-05
4.1328e-05
3.7104e-05
2.38101e-05
2.3814e-05
6.40025e-05
2.16716e-05
2.16675e-05
6.07445e-05
2.18483e-05
2.18436e-05
8.49321e-05
0.000109355
6.8898e-05
4.90897e-05
8.86653e-05
0.0001094
4.86439e-05
8.48615e-05
0.000109138
6.87003e-05
4.91088e-05
8.86261e-05
0.00010917
4.86551e-05
8.45276e-05
4.80661e-05
0.000113538
6.95427e-05
8.58995e-05
0.000111952
4.84017e-05
8.44792e-05
4.80549e-05
0.000113455
6.9303e-05
8.58818e-05
0.000111821
4.84012e-05
6.90133e-05
2.21403e-05
2.21367e-05
7.342e-05
2.20018e-05
2.19981e-05
2.40293e-05
2.39805e-05
2.40572e-05
2.40039e-05
2.44169e-05
2.44437e-05
2.44478e-05
2.44739e-05
8.39332e-05
2.25293e-05
2.25311e-05
2.24891e-05
2.24912e-05
8.54198e-05
0.00010744
0.000127485
4.98141e-05
7.95694e-05
0.000105443
5.01264e-05
0.000130518
0.000107376
0.000127315
4.98301e-05
7.9713e-05
0.000105362
5.0154e-05
0.00013048
8.32227e-05
2.23629e-05
2.23608e-05
8.11653e-05
2.24237e-05
2.24231e-05
0.000111358
5.05462e-05
8.19117e-05
0.000139589
5.02602e-05
0.00011305
0.000136585
0.000111329
5.05872e-05
8.22937e-05
0.000140012
5.0294e-05
0.000113071
0.000136833
2.4707e-05
2.45848e-05
2.47105e-05
2.4595e-05
8.81011e-05
2.25916e-05
2.25952e-05
8.63293e-05
2.26248e-05
2.26276e-05
0.000124982
0.000161823
8.81765e-05
5.17559e-05
5.11219e-05
0.0001569
0.00012921
0.000125644
0.000163225
8.94659e-05
5.17815e-05
5.11616e-05
0.000158187
0.000130091
0.000119097
5.06683e-05
0.000145915
8.58256e-05
0.000116959
5.09296e-05
0.000149161
0.000119386
5.07134e-05
0.000146676
8.70453e-05
0.000117106
5.09701e-05
0.000150149
9.28947e-05
2.2928e-05
2.29379e-05
2.27161e-05
2.27233e-05
9.66939e-05
3.72902e-05
0.000102075
4.16906e-05
9.72525e-05
4.1647e-05
9.66943e-05
3.73648e-05
2.07034e-05
7.87239e-05
5.15219e-05
2.06157e-05
7.89841e-05
3.72502e-05
0.000101098
4.15206e-05
9.41475e-05
4.15672e-05
3.71678e-05
9.49684e-05
2.0679e-05
8.05557e-05
5.15952e-05
8.04324e-05
2.07763e-05
3.75468e-05
4.17929e-05
0.000100144
0.000107393
3.74822e-05
4.18424e-05
0.0001014
2.08317e-05
5.26717e-05
8.68871e-05
2.10295e-05
8.66101e-05
2.08891e-05
8.3755e-05
5.23985e-05
2.07889e-05
8.41083e-05
3.76162e-05
0.000108171
4.22291e-05
0.00010539
3.78393e-05
4.19499e-05
0.000102981
3.74804e-05
4.17681e-05
9.86578e-05
0.000106733
3.74101e-05
4.18182e-05
9.97715e-05
2.07911e-05
5.2379e-05
8.48418e-05
8.46389e-05
2.10002e-05
2.08396e-05
8.21683e-05
5.20988e-05
2.07339e-05
8.23966e-05
3.75562e-05
0.000107434
4.22091e-05
0.000103437
4.19288e-05
0.000101036
3.7787e-05
8.1403e-05
2.23272e-05
2.23278e-05
2.2292e-05
2.22933e-05
8.25741e-05
0.000103294
0.00012474
4.93641e-05
7.78667e-05
4.96045e-05
0.000101947
0.000126445
0.000103065
0.000123727
4.93397e-05
7.71622e-05
0.000125405
0.00010172
4.95878e-05
8.08188e-05
2.21706e-05
2.21703e-05
2.22253e-05
7.90835e-05
2.22246e-05
0.000106081
4.99467e-05
7.94047e-05
0.000131868
4.97088e-05
0.000130069
0.000107189
0.000105848
4.99381e-05
7.88137e-05
0.000130874
0.000129025
4.96951e-05
0.000106955
2.42763e-05
2.42994e-05
2.45882e-05
2.44612e-05
8.36295e-05
2.23968e-05
2.23995e-05
8.29868e-05
2.2432e-05
2.24348e-05
0.000115093
0.000147869
8.32042e-05
5.12308e-05
0.000143533
5.05428e-05
0.000118466
0.000114936
0.000147381
8.30604e-05
5.12264e-05
5.05407e-05
0.000142954
0.000118365
0.00011107
5.00598e-05
0.00013582
8.17608e-05
0.000137841
0.000109777
5.03293e-05
0.000110849
5.00539e-05
0.000134943
8.14396e-05
0.000109537
5.03267e-05
0.000137061
8.64026e-05
2.27639e-05
2.27681e-05
2.25324e-05
2.25368e-05
8.77108e-05
2.45774e-05
2.44516e-05
3.74876e-05
0.000104394
4.18366e-05
0.000101314
4.17998e-05
9.97078e-05
3.75269e-05
2.0829e-05
8.03145e-05
5.20711e-05
2.07507e-05
8.11097e-05
3.74445e-05
0.000102593
4.16607e-05
9.53214e-05
4.17283e-05
3.73628e-05
9.69128e-05
2.07919e-05
8.50257e-05
5.21777e-05
8.41008e-05
2.08589e-05
3.75975e-05
0.00010279
4.18852e-05
0.000110375
3.75675e-05
0.000104455
4.19122e-05
2.08249e-05
5.27747e-05
9.01685e-05
2.09801e-05
8.9918e-05
2.09051e-05
8.66605e-05
5.25525e-05
2.08298e-05
8.73136e-05
3.76402e-05
0.000111274
0.000108459
4.22063e-05
3.78176e-05
0.000106807
4.19823e-05
3.75535e-05
4.1874e-05
0.000103873
0.000110516
3.75392e-05
4.18977e-05
0.000105373
2.07111e-05
5.26458e-05
9.07243e-05
9.07357e-05
2.08257e-05
2.08222e-05
8.79014e-05
5.24966e-05
2.07761e-05
8.834e-05
3.75429e-05
0.000111311
4.21618e-05
0.000108652
4.19599e-05
0.000107421
3.76917e-05
3.72443e-05
9.88466e-05
9.52493e-05
4.16257e-05
9.44595e-05
4.15721e-05
3.73252e-05
2.06823e-05
7.71653e-05
5.14565e-05
7.76201e-05
2.0589e-05
3.71939e-05
9.74903e-05
9.13534e-05
4.14191e-05
9.23827e-05
3.70991e-05
4.14812e-05
2.0662e-05
7.98976e-05
5.15442e-05
7.95528e-05
2.0761e-05
3.72532e-05
9.83772e-05
4.16313e-05
9.46861e-05
4.15737e-05
9.34025e-05
3.73417e-05
2.06913e-05
7.53382e-05
5.1429e-05
2.05838e-05
7.62398e-05
3.71882e-05
9.68148e-05
4.14098e-05
8.92172e-05
3.70796e-05
4.1478e-05
9.07732e-05
2.06754e-05
7.9546e-05
5.15617e-05
7.89174e-05
2.07752e-05
3.74426e-05
9.714e-05
4.17083e-05
0.00010443
3.73739e-05
9.85042e-05
4.17617e-05
2.07676e-05
5.23514e-05
8.49769e-05
8.47706e-05
2.09691e-05
2.08215e-05
8.20273e-05
5.20821e-05
2.0719e-05
8.24427e-05
3.75141e-05
0.000105414
0.000102694
4.21503e-05
0.000100206
4.18707e-05
3.77397e-05
3.74593e-05
4.17153e-05
9.71288e-05
0.000104482
3.73948e-05
4.1769e-05
9.87732e-05
2.07636e-05
5.24965e-05
8.59002e-05
8.56769e-05
2.09541e-05
2.08275e-05
8.24194e-05
5.22348e-05
2.07311e-05
8.30249e-05
3.75264e-05
0.000105587
4.21539e-05
0.000103478
4.18756e-05
0.000100959
3.77467e-05
8.94442e-05
2.26223e-05
2.26244e-05
2.26093e-05
2.26115e-05
9.6207e-05
0.000112873
0.000131755
5.03374e-05
8.20879e-05
5.06058e-05
0.000109108
0.000137271
0.000112703
0.000131116
5.03272e-05
8.16574e-05
0.000136596
0.000108974
5.05974e-05
8.60477e-05
2.25223e-05
2.25246e-05
2.25741e-05
8.27247e-05
2.25761e-05
0.000119286
5.08232e-05
8.5237e-05
0.000150315
5.07083e-05
0.000145398
0.000123702
0.00011908
5.08165e-05
8.48327e-05
0.000149602
0.000144694
5.07005e-05
0.000123482
2.44851e-05
2.44912e-05
2.44937e-05
2.4484e-05
0.000111209
2.26112e-05
2.26143e-05
0.00010219
2.25301e-05
2.25334e-05
0.000142559
0.000175902
9.16083e-05
5.07185e-05
0.000166431
5.07448e-05
0.000155798
0.000142378
0.000175278
9.1349e-05
5.0707e-05
5.07444e-05
0.000165773
0.000155592
0.000135655
5.08384e-05
0.000157324
9.07327e-05
0.000161574
0.000130487
5.085e-05
0.00013545
5.08325e-05
0.000156617
9.04209e-05
0.000130273
5.08453e-05
0.000160857
0.00012088
2.21847e-05
2.21911e-05
2.23082e-05
2.23127e-05
0.00012882
2.44815e-05
2.44756e-05
3.74426e-05
0.000101704
9.97021e-05
4.17738e-05
9.79758e-05
4.17311e-05
3.74853e-05
2.08105e-05
7.92598e-05
5.20183e-05
8.01955e-05
2.07291e-05
3.73947e-05
9.9701e-05
9.32568e-05
4.15739e-05
9.50367e-05
3.7305e-05
4.1652e-05
2.07754e-05
8.4429e-05
5.21369e-05
8.33915e-05
2.08437e-05
3.73769e-05
0.000100579
9.69223e-05
4.17575e-05
9.512e-05
4.1707e-05
3.74483e-05
2.07579e-05
7.59122e-05
5.16237e-05
2.06502e-05
7.70968e-05
3.73103e-05
9.84753e-05
9.01062e-05
4.15352e-05
3.71986e-05
9.20207e-05
4.16187e-05
2.07396e-05
8.14835e-05
5.17736e-05
8.04169e-05
2.08307e-05
3.75142e-05
0.000102409
4.18144e-05
0.000108211
3.74989e-05
0.000104005
4.18393e-05
2.06938e-05
5.26147e-05
9.07772e-05
9.06343e-05
2.08022e-05
2.08072e-05
8.75858e-05
5.24679e-05
2.07618e-05
8.81601e-05
3.75021e-05
0.000109162
0.000107566
4.2107e-05
0.000106159
4.19034e-05
3.7647e-05
3.75132e-05
9.98941e-05
4.18087e-05
0.000107501
3.74813e-05
0.000101869
4.18378e-05
2.07647e-05
5.25979e-05
8.90854e-05
8.87903e-05
2.09148e-05
2.08501e-05
8.51791e-05
5.23764e-05
2.07761e-05
8.60396e-05
3.75548e-05
0.000108601
0.00010624
4.21363e-05
0.000104449
4.19093e-05
3.77299e-05
2.43099e-05
2.43444e-05
2.43456e-05
2.43776e-05
9.0763e-05
2.25196e-05
2.25231e-05
8.58429e-05
2.25526e-05
2.25552e-05
0.000124133
0.000155701
8.58732e-05
5.13601e-05
0.000129164
0.000150255
5.08005e-05
0.000124814
0.000157045
8.70025e-05
5.13898e-05
0.000129967
0.000151437
5.08405e-05
0.000117244
5.04043e-05
0.000137145
8.32634e-05
0.000113499
0.000141946
5.06329e-05
0.000117748
5.04527e-05
0.000138066
8.45251e-05
0.000113729
0.000143148
5.06756e-05
9.76501e-05
2.27152e-05
2.27261e-05
0.000100407
2.26093e-05
2.26158e-05
2.46126e-05
2.44937e-05
2.4616e-05
2.45055e-05
3.68162e-05
4.03651e-05
3.69799e-05
4.06725e-05
0.000132341
5.895e-06
5.89063e-06
1.15277e-05
1.15255e-05
0.000159122
0.000149829
0.000167655
5.27949e-05
0.000105324
0.000137408
5.58661e-05
0.000176703
0.000151007
0.000168979
5.28104e-05
0.000106623
0.000138232
5.58816e-05
0.000178567
0.000206385
0.000258538
0.000242902
0.000243853
0.000221278
0.000237892
0.000238844
0.000117143
2.43087e-05
2.43239e-05
0.000111285
1.2438e-05
1.24412e-05
0.000158981
2.68418e-05
0.000105012
0.000203856
2.53599e-05
0.000177035
0.000189462
0.000159959
2.67501e-05
0.000106817
0.000205534
2.53484e-05
0.000177864
0.000191925
5.51807e-06
5.51369e-06
0.000162598
0.000253381
0.000253682
0.000219645
1.20723e-05
0.000204786
0.000180201
1.2029e-05
0.000205887
0.000180897
9.74453e-06
0.000119257
1.08246e-05
0.000121486
2.0782e-05
0.000113075
8.80679e-05
9.13637e-05
2.07399e-05
9.14783e-05
1.04376e-05
0.000116471
4.32702e-05
0.000105346
4.39844e-05
3.67397e-05
0.00010959
0.000112145
9.12755e-05
9.98145e-05
0.000221875
0.00017918
0.000182599
0.000227315
0.000173387
0.00022333
0.000226265
0.000258105
0.000264169
0.000260787
0.000264122
0.000261836
0.000258535
0.000260339
0.000217374
0.000163805
0.000133918
0.000216302
0.000161345
0.000205176
0.000221884
0.000265658
0.000268488
0.000263832
0.000266845
0.00026483
0.000264427
0.000269466
0.000215644
0.000177578
0.000177721
0.000225118
0.000169051
0.00022087
0.000220194
0.000244692
0.00024829
0.000246916
0.000251628
0.000247834
0.000242019
0.000248483
0.00020678
0.00015722
0.000127402
0.0002035
0.000154762
0.000212143
0.000192456
0.000259557
0.000264606
0.00025969
0.000261478
0.000259898
0.000262952
0.000259415
0.000179267
0.000236446
0.000238173
0.000265785
0.000268108
0.000265757
0.000164156
0.000217974
0.000234798
0.000270515
0.000270543
0.000271822
0.000174734
0.000234339
0.000232357
0.000253107
0.000258037
0.000254354
0.000157951
0.00020534
0.000224701
0.000267766
0.000265709
0.000266667
0.000113546
5.98348e-06
5.98274e-06
1.15824e-05
1.15845e-05
0.000131896
0.000134453
0.000154441
5.236e-05
9.96542e-05
5.54274e-05
0.000125627
0.000161912
0.000134404
0.000154042
5.23439e-05
9.95436e-05
0.000161576
0.000125571
5.54043e-05
0.00018484
0.000235694
0.000221049
0.000220722
0.000214987
0.00021536
0.000196349
0.000103848
2.40951e-05
2.41016e-05
1.24401e-05
9.93869e-05
1.24426e-05
0.000140508
2.70374e-05
9.84655e-05
0.0001865
2.52337e-05
0.000172152
0.0001534
0.000140502
2.70118e-05
9.8459e-05
0.000186338
0.000171965
2.52223e-05
0.00015341
3.60902e-05
3.93784e-05
5.602e-06
5.60142e-06
0.000135763
0.000235112
0.00023484
0.000197239
1.21739e-05
0.00018882
0.000156738
1.21621e-05
0.000188611
0.000156748
0.000226822
0.000185389
0.000187728
0.000231657
0.000178836
0.000229127
0.000230708
0.000259568
0.000264854
0.000261568
0.00026463
0.000262701
0.000259877
0.000261685
0.000222124
0.000167263
0.000137259
0.000219222
0.000167838
0.000207977
0.000225649
0.000268689
0.000268935
0.000265178
0.000267408
0.000266242
0.000267289