/*--------------------------------*- C++ -*----------------------------------*\
| =========                 |                                                 |
| \\      /  F ield         | OpenFOAM: The Open Source CFD Toolbox           |
|  \\    /   O peration     | Version:  v2006                                 |
|   \\  /    A nd           | Website:  www.openfoam.com                      |
|    \\/     M anipulation  |                                                 |
\*---------------------------------------------------------------------------*/
FoamFile
{
    version     2.0;
    format      ascii;
    class       volScalarField;
    location    "875";
    object      p;
}
// * * * * * * * * * * * * * * * * * * * * * * * * * * * * * * * * * * * * * //

dimensions      [0 2 -2 0 0 0 0];


internalField   nonuniform List<scalar> 
14314
(
4.52404e-05
4.36521e-05
4.53227e-05
4.65607e-05
1.18234e-05
1.46352e-05
1.02553e-05
1.10081e-05
5.109e-05
5.23495e-05
5.11091e-05
4.9461e-05
5.27063e-05
5.354e-05
5.08943e-05
5.13012e-05
5.20169e-05
5.32632e-05
5.16395e-05
5.02122e-05
4.6754e-05
1.69846e-05
4.48419e-05
4.36919e-05
2.06977e-05
2.10845e-05
4.53486e-05
1.77883e-05
4.51935e-05
4.53898e-05
2.01173e-05
1.73539e-05
4.44452e-05
2.10378e-05
2.00224e-05
4.74076e-05
1.31246e-05
4.48052e-05
1.72939e-05
1.94673e-05
1.60683e-05
1.19514e-05
1.40651e-05
1.46293e-05
1.30063e-05
1.36189e-05
1.02313e-05
1.28635e-05
9.43079e-06
1.14427e-05
1.32932e-05
7.7763e-06
1.2864e-05
6.41887e-05
6.44723e-05
6.37421e-05
6.48903e-05
6.48829e-05
5.22989e-05
5.11972e-05
5.28451e-05
5.15299e-05
6.34888e-05
6.57356e-05
6.37968e-05
6.55477e-05
6.53225e-05
6.42878e-05
6.68342e-05
6.63569e-05
6.51999e-05
6.37628e-05
6.40318e-05
6.42291e-05
3.10864e-05
4.40708e-05
4.42011e-05
3.02783e-05
4.40952e-05
2.97779e-05
3.09906e-05
4.45108e-05
4.50625e-05
3.01562e-05
4.40704e-05
4.57095e-05
4.46843e-05
2.0644e-05
2.13454e-05
1.79381e-05
2.00252e-05
3.21686e-05
4.41078e-05
4.3819e-05
3.61388e-05
4.49233e-05
3.11591e-05
3.64137e-05
4.49001e-05
2.83942e-05
3.2107e-05
4.51166e-05
4.52255e-05
3.60104e-05
4.61283e-05
3.64242e-05
3.03166e-05
4.46058e-05
4.48278e-05
3.48768e-05
3.05836e-05
3.05238e-05
4.79522e-06
1.0085e-05
1.07105e-05
1.25121e-06
7.90235e-06
-2.98633e-06
3.66184e-06
8.89469e-06
8.56986e-06
9.01507e-07
2.23462e-06
1.36625e-05
1.26271e-05
1.24248e-05
1.35486e-05
7.28618e-06
5.75314e-06
3.98256e-06
9.64104e-06
1.31837e-05
4.2539e-06
1.15535e-05
7.43334e-06
-8.26715e-07
3.84188e-06
-2.59123e-06
2.06012e-06
1.04496e-05
6.04473e-06
1.16289e-06
9.25876e-06
-2.00589e-06
5.87898e-06
4.61878e-06
4.04389e-06
1.6516e-06
4.218e-06
3.89314e-06
6.43908e-05
6.47263e-05
6.51802e-05
6.45576e-05
6.48001e-05
4.79905e-05
6.06171e-05
4.83281e-05
6.09861e-05
6.13369e-05
4.84581e-05
4.87441e-05
6.03956e-05
6.06927e-05
6.41164e-05
6.40381e-05
6.43419e-05
6.65153e-05
6.46235e-05
6.64365e-05
6.42662e-05
6.60441e-05
6.41579e-05
6.62246e-05
6.02938e-05
4.83171e-05
6.03928e-05
4.8303e-05
6.02028e-05
4.79975e-05
5.9941e-05
4.82089e-05
6.05515e-05
5.94407e-05
4.88321e-05
5.18785e-05
6.0555e-05
5.91923e-05
4.89855e-05
6.04451e-05
5.85155e-05
4.83383e-05
5.14914e-05
6.00022e-05
5.88473e-05
4.88411e-05
6.42352e-05
6.39007e-05
6.37539e-05
6.36379e-05
4.76498e-05
6.00137e-05
6.01236e-05
4.79954e-05
4.80461e-05
5.97408e-05
5.96665e-05
4.7692e-05
5.99806e-05
6.49263e-05
6.66574e-05
6.4957e-05
6.68124e-05
6.49521e-05
6.54624e-05
6.49985e-05
6.71036e-05
6.69784e-05
6.55548e-05
6.122e-05
4.88363e-05
6.08942e-05
4.9322e-05
6.1342e-05
5.97342e-05
4.93756e-05
5.26619e-05
6.1e-05
5.98594e-05
5.01419e-05
6.13077e-05
4.92589e-05
6.14954e-05
4.94158e-05
6.14393e-05
6.03822e-05
5.29372e-05
4.99487e-05
5.99887e-05
6.16949e-05
5.02418e-05
6.35011e-05
6.37962e-05
6.34404e-05
6.51795e-05
6.53576e-05
6.38634e-05
6.34974e-05
6.40368e-05
5.96776e-05
5.82453e-05
4.83681e-05
5.08933e-05
5.9734e-05
5.82548e-05
4.87686e-05
5.9745e-05
4.80427e-05
5.98089e-05
4.84282e-05
5.96688e-05
5.81701e-05
5.10334e-05
4.93025e-05
5.82261e-05
5.99669e-05
4.88596e-05
5.97699e-05
4.88852e-05
6.02118e-05
4.85608e-05
6.57379e-05
6.54459e-05
6.53065e-05
6.52267e-05
4.87803e-05
6.15465e-05
6.21049e-05
4.93621e-05
4.94047e-05
6.13675e-05
6.13043e-05
4.8824e-05
6.15162e-05
6.40907e-05
6.5349e-05
6.57922e-05
6.41582e-05
6.43301e-05
6.51862e-05
6.4189e-05
6.44093e-05
6.0684e-05
6.01273e-05
5.22852e-05
4.99521e-05
5.94293e-05
6.14308e-05
5.02027e-05
6.04781e-05
5.84856e-05
5.17693e-05
4.98949e-05
5.89221e-05
6.038e-05
5.00479e-05
6.0793e-05
4.92558e-05
6.13526e-05
4.96313e-05
6.06432e-05
4.94244e-05
6.06823e-05
4.95953e-05
6.40933e-05
6.44304e-05
6.00426e-05
4.90731e-05
4.93841e-05
6.01736e-05
6.04525e-05
4.85517e-05
6.06954e-05
4.8901e-05
6.1038e-05
4.43978e-05
2.97404e-05
4.46304e-05
2.95904e-05
4.40911e-05
4.42895e-05
3.43934e-05
3.07281e-05
3.06397e-05
1.50971e-06
2.54049e-05
6.89203e-07
2.49495e-05
2.93407e-05
9.95608e-06
9.36748e-06
2.50197e-05
2.47515e-05
3.10432e-05
4.38206e-05
4.41182e-05
3.02985e-05
3.20546e-05
4.44711e-05
4.44955e-05
3.68035e-05
4.48868e-05
3.11994e-05
3.68363e-05
3.19787e-05
4.4034e-05
4.40869e-05
3.61407e-05
4.47503e-05
3.10953e-05
3.657e-05
2.648e-05
9.91687e-06
2.47453e-05
1.34652e-05
2.64605e-05
1.04999e-05
2.49328e-05
1.3531e-05
2.76819e-05
2.85112e-05
1.23442e-05
2.08487e-05
2.59275e-05
2.87834e-05
1.50557e-05
2.76321e-05
2.8361e-05
1.294e-05
2.10581e-05
2.59938e-05
2.86653e-05
1.51349e-05
4.36602e-05
4.37123e-05
3.37294e-05
3.06826e-05
3.06939e-05
4.41342e-05
2.97614e-05
2.12858e-06
2.56623e-05
2.91172e-05
1.07606e-05
1.05764e-05
2.51783e-05
2.51212e-05
1.87407e-06
2.55727e-05
3.21425e-05
4.49489e-05
4.52761e-05
3.69202e-05
4.5895e-05
3.12132e-05
3.69893e-05
3.09252e-05
4.46274e-05
4.51478e-05
2.91368e-05
3.20326e-05
4.54068e-05
4.52121e-05
3.59456e-05
4.59684e-05
3.65941e-05
3.0316e-05
2.59839e-05
8.81487e-06
2.43374e-05
1.1525e-05
2.7272e-05
2.82381e-05
1.1399e-05
1.95388e-05
2.5672e-05
2.81019e-05
1.31852e-05
2.5778e-05
6.85736e-06
2.30485e-05
1.12145e-05
2.70686e-05
2.66236e-05
1.82998e-05
9.11551e-06
2.76322e-05
2.43299e-05
1.28266e-05
3.11278e-05
4.38579e-05
4.43757e-05
3.03102e-05
3.2268e-05
4.4061e-05
4.50165e-05
3.67697e-05
4.5075e-05
3.65179e-05
3.12688e-05
3.11691e-05
4.45424e-05
4.4532e-05
3.01788e-05
2.76979e-05
2.83646e-05
1.26762e-05
2.10432e-05
2.5972e-05
2.85918e-05
1.46758e-05
2.64015e-05
1.01643e-05
2.48502e-05
1.29319e-05
2.77439e-05
2.85311e-05
2.03299e-05
1.12772e-05
2.8708e-05
2.56818e-05
1.44988e-05
2.63828e-05
8.79261e-06
2.43644e-05
1.27683e-05
4.45948e-05
4.46296e-05
3.36115e-05
2.93363e-05
2.93187e-05
4.49458e-05
2.83824e-05
-1.98476e-06
2.34099e-05
2.78667e-05
6.49145e-06
6.3564e-06
2.29342e-05
2.29088e-05
-2.16729e-06
2.33813e-05
3.2269e-05
4.48017e-05
4.55125e-05
3.683e-05
4.61029e-05
3.66653e-05
3.12536e-05
3.09231e-05
4.46096e-05
4.53526e-05
2.91465e-05
3.10325e-05
4.49842e-05
4.53569e-05
3.00507e-05
2.70488e-05
2.66059e-05
1.81736e-05
8.94272e-06
2.75151e-05
2.42957e-05
1.24834e-05
2.72597e-05
2.82458e-05
1.91215e-05
1.0462e-05
2.80338e-05
2.54393e-05
1.27352e-05
2.56943e-05
6.64447e-06
2.29865e-05
1.07716e-05
2.58741e-05
7.87226e-06
2.39918e-05
1.09609e-05
4.48175e-05
2.96395e-05
4.50845e-05
2.94791e-05
2.96028e-05
8.70115e-06
8.18168e-06
2.45812e-05
2.43552e-05
2.66258e-07
2.50314e-05
-4.80381e-07
2.46603e-05
7.03493e-06
-3.43801e-06
6.0419e-06
-3.53238e-06
5.86046e-06
5.2191e-06
2.27224e-06
4.618e-06
4.28445e-06
1.10804e-06
3.33485e-06
3.13146e-06
4.88199e-06
1.06096e-05
1.07816e-05
1.60544e-06
4.35015e-06
9.32566e-06
1.31403e-05
3.48041e-06
1.19843e-05
7.19696e-06
-1.07715e-06
4.43225e-06
9.95947e-06
1.34627e-05
4.17559e-06
1.20844e-05
7.58522e-06
-8.56144e-07
3.75355e-06
1.4548e-06
3.62333e-06
-1.31061e-06
3.72984e-06
1.63015e-06
3.90614e-06
-1.2415e-06
6.87958e-06
6.68382e-06
3.1383e-06
5.17935e-06
5.05898e-06
7.65705e-06
-3.06786e-06
1.31143e-06
3.66906e-06
3.58297e-06
2.67933e-06
8.2595e-06
1.14567e-05
3.57881e-06
1.00654e-05
6.72616e-06
-2.14963e-06
3.64886e-06
7.11293e-06
8.23553e-06
1.08376e-06
2.48093e-06
1.0731e-05
6.28491e-06
1.1056e-06
9.66093e-06
-2.07123e-06
6.00426e-06
3.17416e-06
1.46319e-06
3.31903e-06
-1.62514e-06
2.905e-06
5.58575e-07
-1.56131e-06
2.90961e-06
2.25017e-06
1.40453e-05
1.38879e-05
1.26143e-05
1.4041e-05
7.25393e-06
6.84166e-06
2.5429e-06
1.17705e-05
1.16299e-05
8.90518e-06
1.27036e-05
5.84652e-06
5.54076e-06
2.5086e-06
1.33763e-05
1.23708e-05
1.13224e-05
1.33711e-05
7.0349e-06
5.66429e-06
4.30747e-07
5.24997e-06
3.23688e-06
2.42446e-06
3.67958e-07
5.47208e-06
3.20156e-06
3.00095e-06
5.93067e-07
3.98841e-06
2.60234e-06
2.46864e-06
5.34367e-07
4.91325e-06
3.13693e-06
2.45442e-06
4.47137e-06
1.02862e-05
1.00909e-05
1.46796e-06
3.87378e-06
1.28006e-05
8.20889e-06
2.93098e-06
1.13289e-05
-8.5648e-07
6.61742e-06
4.3788e-06
8.97076e-06
9.89366e-06
7.81474e-07
3.58728e-06
1.65808e-06
3.80762e-06
-1.27466e-06
3.51538e-06
1.17277e-06
-1.2673e-06
3.23323e-06
3.13001e-06
2.9588e-06
-1.89753e-07
4.23881e-06
4.15928e-06
3.60779e-06
-2.67333e-06
1.36027e-08
3.33442e-06
3.29635e-06
2.23149e-06
1.11213e-05
7.25737e-06
2.9871e-06
9.53332e-06
-1.85146e-06
6.14625e-06
3.29184e-06
6.84249e-06
7.66412e-06
9.93079e-07
3.29644e-06
7.87021e-06
7.86888e-06
5.16567e-07
2.72758e-06
5.79904e-07
-1.593e-06
2.84078e-06
2.88981e-06
1.16861e-06
-1.58146e-06
2.90548e-06
5.65022e-06
-3.45532e-06
4.7366e-06
-3.49168e-06
6.15908e-07
3.11424e-06
2.93104e-06
-2.94031e-06
-2.85969e-06
6.75921e-07
2.18841e-06
7.29349e-07
2.38831e-06
-2.66812e-06
-2.72034e-06
2.42351e-07
2.05749e-06
3.03305e-07
2.32924e-06
5.12379e-07
2.29071e-06
4.7235e-07
1.94425e-06
-2.13077e-06
-2.17242e-06
1.40001e-07
2.27891e-06
9.80121e-08
1.83066e-06
-2.91723e-06
-2.82052e-06
6.81688e-05
6.80121e-05
6.41686e-05
6.43962e-05
6.80884e-05
6.80398e-05
6.42384e-05
6.83336e-05
6.44008e-05
6.82619e-05
6.81099e-05
6.41197e-05
6.79555e-05
6.86786e-05
6.84726e-05
6.49974e-05
6.49973e-05
6.84347e-05
6.86476e-05
6.50068e-05
6.88297e-05
6.49754e-05
6.85545e-05
6.85357e-05
6.47625e-05
6.93112e-05
6.86615e-05
6.47041e-05
6.47784e-05
6.85189e-05
6.85636e-05
6.50763e-05
6.7653e-05
6.46192e-05
6.75546e-05
6.38294e-05
6.72556e-05
6.81383e-05
6.43822e-05
6.7695e-05
6.4738e-05
6.77067e-05
6.40001e-05
6.73864e-05
6.81972e-05
6.44487e-05
3.50943e-05
3.55927e-05
3.05882e-05
3.0995e-05
3.5244e-05
3.53633e-05
3.0247e-05
3.93076e-05
4.3798e-05
3.97685e-05
4.43773e-05
4.00216e-05
3.95923e-05
3.99611e-05
4.39733e-05
4.40703e-05
4.39401e-05
3.95943e-05
3.99963e-05
3.58649e-05
3.09511e-05
3.50994e-05
3.49445e-05
2.98493e-05
3.9128e-05
3.54674e-05
3.5329e-05
3.59407e-05
3.10686e-05
3.02468e-05
3.56847e-05
3.54057e-05
3.00672e-05
3.95244e-05
4.42262e-05
4.0146e-05
4.48075e-05
4.03006e-05
4.00821e-05
4.06273e-05
4.48102e-05
4.46388e-05
4.46367e-05
4.06598e-05
4.00869e-05
3.57908e-05
3.06483e-05
3.52471e-05
3.49671e-05
2.93673e-05
3.94352e-05
3.50383e-05
3.57593e-05
2.94236e-05
2.94428e-05
3.52529e-05
3.53079e-05
3.02098e-05
4.128e-05
4.608e-05
4.46009e-05
4.04278e-05
4.55286e-05
4.19137e-05
4.00844e-05
4.13755e-05
4.6301e-05
4.48726e-05
4.05737e-05
4.56564e-05
4.20596e-05
4.04016e-05
4.03705e-05
4.44537e-05
4.45576e-05
4.47292e-05
3.99293e-05
3.99692e-05
3.63501e-05
2.96101e-05
3.53664e-05
3.24351e-05
3.72642e-05
3.51943e-05
3.17335e-05
3.64031e-05
2.9851e-05
3.53841e-05
3.24126e-05
3.72781e-05
3.54173e-05
3.16883e-05
2.23854e-05
6.26635e-06
1.88209e-05
5.60828e-06
3.1831e-05
1.18959e-05
6.23209e-06
2.19917e-05
1.35811e-06
1.34906e-05
3.12935e-05
9.00753e-06
9.5384e-06
8.42478e-06
1.82668e-05
1.39985e-05
8.41515e-06
2.31949e-06
6.81212e-06
1.18424e-05
9.23246e-06
-5.01103e-06
2.06887e-05
4.24042e-06
4.6958e-06
1.84023e-05
1.006e-05
2.95656e-05
4.73869e-06
2.05669e-05
-5.52494e-07
1.17187e-05
2.93459e-05
6.73962e-06
6.6165e-06
7.21083e-06
1.59017e-05
6.14845e-06
1.17248e-05
1.57623e-06
6.08186e-06
1.01169e-05
9.54139e-06
6.04549e-06
5.26635e-06
4.00553e-06
8.22482e-06
7.24848e-06
7.13912e-06
2.52207e-06
1.36786e-05
6.18757e-06
5.19609e-06
8.45456e-06
7.70765e-06
-1.78792e-06
5.98127e-06
7.79661e-08
9.45106e-06
9.43164e-06
1.10537e-05
4.48802e-06
2.15593e-06
6.46044e-06
-2.53712e-07
7.92031e-06
9.21823e-06
1.06133e-05
3.81972e-06
3.17953e-06
8.20077e-06
6.22184e-06
7.46098e-06
4.4287e-06
7.8356e-06
7.70288e-06
4.38123e-06
9.97069e-06
7.20843e-06
8.1272e-06
-6.58451e-07
1.33533e-05
2.1444e-06
6.30391e-06
7.56289e-06
9.37288e-06
1.33216e-05
6.29572e-06
8.20852e-06
8.00236e-06
2.54047e-06
1.40929e-05
1.05582e-05
3.67706e-06
2.07872e-06
5.98012e-06
1.23485e-05
1.27585e-05
5.64079e-06
-8.35801e-06
5.24627e-06
3.82131e-06
2.74659e-06
5.30205e-06
5.56181e-06
4.73191e-06
2.05023e-06
6.1876e-06
2.81823e-06
-2.59919e-06
3.9333e-06
-1.07488e-06
8.01699e-06
3.40407e-06
1.09323e-05
8.61444e-06
1.6216e-06
-2.95787e-07
2.94385e-06
1.02476e-05
9.44928e-06
3.94768e-06
6.92945e-06
1.04611e-05
3.14619e-06
3.90809e-06
4.8437e-06
1.42927e-07
-6.61854e-06
1.57614e-05
1.56192e-05
2.10034e-05
2.05707e-05
-3.24001e-06
5.64378e-06
8.3569e-06
6.5259e-06
5.96807e-06
7.04369e-06
6.76372e-06
1.22503e-05
5.35091e-06
7.8892e-06
5.98132e-06
5.2966e-06
6.78978e-06
6.19176e-06
1.16396e-05
4.10094e-06
4.59628e-06
1.98939e-06
1.68172e-06
6.00523e-06
5.73157e-06
5.69185e-06
-1.64456e-06
6.84414e-07
5.15831e-07
2.79495e-06
2.89707e-05
2.84858e-05
6.64133e-06
1.17977e-05
7.40565e-06
-3.60769e-06
5.91886e-06
2.10457e-05
4.88824e-07
6.75384e-06
1.15752e-05
6.40987e-06
-4.07219e-06
5.34932e-06
2.03014e-05
4.70974e-07
6.8533e-05
6.87816e-05
6.89113e-05
6.42866e-05
6.43702e-05
6.84229e-05
6.84754e-05
6.48797e-05
6.89219e-05
6.47409e-05
6.82075e-05
6.50462e-05
6.86433e-05
6.54471e-05
6.8454e-05
6.89529e-05
6.48871e-05
6.83779e-05
6.51986e-05
6.87192e-05
6.55058e-05
6.85568e-05
5.25946e-05
5.62487e-05
5.29426e-05
5.662e-05
5.65676e-05
6.02366e-05
6.03406e-05
6.0584e-05
5.62044e-05
5.63171e-05
5.30514e-05
4.95625e-05
5.23408e-05
4.83701e-05
5.24189e-05
5.35872e-05
4.90898e-05
5.31751e-05
4.98116e-05
5.26409e-05
4.86408e-05
5.26585e-05
5.38405e-05
4.92204e-05
5.73697e-05
6.05163e-05
6.13353e-05
5.65858e-05
6.12783e-05
5.65448e-05
5.76588e-05
5.74812e-05
6.07101e-05
6.15208e-05
5.6903e-05
6.13634e-05
5.67776e-05
5.78977e-05
5.24148e-05
4.81305e-05
4.82505e-05
5.22473e-05
5.23532e-05
4.8363e-05
6.80318e-05
6.79659e-05
6.41004e-05
6.41942e-05
6.80431e-05
6.78933e-05
6.40752e-05
6.80675e-05
6.40298e-05
6.78986e-05
6.78281e-05
6.37952e-05
5.61763e-05
6.0142e-05
6.02563e-05
5.63643e-05
6.01717e-05
5.61052e-05
5.65146e-05
5.24555e-05
5.23577e-05
4.83891e-05
4.78477e-05
5.21248e-05
5.60277e-05
6.02154e-05
5.64697e-05
6.0418e-05
5.64618e-05
5.2135e-05
5.23748e-05
4.7994e-05
4.84192e-05
4.8064e-05
5.2144e-05
5.2269e-05
5.60544e-05
6.0066e-05
6.00344e-05
5.62663e-05
6.00304e-05
5.60359e-05
5.6297e-05
5.2188e-05
5.19848e-05
4.80522e-05
5.17549e-05
4.76037e-05
5.57371e-05
5.9809e-05
5.60593e-05
6.00943e-05
5.60663e-05
5.20371e-05
5.22752e-05
4.79263e-05
4.82443e-05
5.20701e-05
5.20714e-05
4.79709e-05
6.76829e-05
6.37642e-05
6.37151e-05
6.7726e-05
6.76586e-05
6.38567e-05
6.77944e-05
6.39372e-05
6.76754e-05
6.41288e-05
6.7816e-05
6.78428e-05
6.40463e-05
6.76931e-05
6.37911e-05
6.74782e-05
6.39178e-05
6.7614e-05
6.76387e-05
6.39645e-05
6.77866e-05
5.21589e-05
5.5756e-05
5.60927e-05
5.98663e-05
5.98321e-05
5.99316e-05
5.58706e-05
5.58628e-05
5.22832e-05
4.86452e-05
5.1811e-05
4.80258e-05
5.25308e-05
5.20439e-05
4.84888e-05
5.22442e-05
4.86378e-05
5.18326e-05
4.80198e-05
5.19897e-05
5.24522e-05
4.84791e-05
5.63688e-05
5.99225e-05
6.01908e-05
5.60026e-05
5.64899e-05
6.00383e-05
5.60708e-05
5.63186e-05
5.98045e-05
6.00336e-05
5.59884e-05
5.99652e-05
5.59967e-05
5.63772e-05
5.20743e-05
4.7772e-05
4.77856e-05
5.19283e-05
5.19257e-05
4.7981e-05
5.21848e-05
5.57599e-05
6.88627e-05
6.85233e-05
6.5041e-05
6.52688e-05
6.86858e-05
6.86482e-05
6.52033e-05
6.90256e-05
6.5309e-05
6.90076e-05
6.87868e-05
6.49954e-05
5.70348e-05
6.10776e-05
6.11067e-05
5.74334e-05
6.10611e-05
5.74228e-05
5.71089e-05
5.30407e-05
5.28754e-05
4.8941e-05
4.83965e-05
5.27344e-05
5.66668e-05
6.08805e-05
5.70074e-05
6.10931e-05
5.71159e-05
5.29618e-05
5.34271e-05
4.9315e-05
4.88864e-05
4.89007e-05
5.31554e-05
5.30193e-05
5.72484e-05
6.11657e-05
6.1377e-05
5.75175e-05
6.12732e-05
5.71688e-05
5.77399e-05
5.34262e-05
5.33621e-05
4.9397e-05
5.31993e-05
4.87608e-05
5.69774e-05
6.1276e-05
5.76421e-05
6.13978e-05
5.75281e-05
5.31503e-05
5.35243e-05
4.89656e-05
4.95677e-05
5.31035e-05
5.34311e-05
4.90337e-05
6.75131e-05
6.7285e-05
6.3646e-05
6.36802e-05
6.72787e-05
6.74819e-05
6.37193e-05
6.78024e-05
6.38269e-05
6.75731e-05
6.75194e-05
6.36954e-05
6.75711e-05
6.72516e-05
6.36918e-05
6.37025e-05
6.74784e-05
6.72741e-05
6.38108e-05
6.7789e-05
6.38889e-05
6.76809e-05
6.74246e-05
6.379e-05
5.61497e-05
5.96928e-05
5.99023e-05
5.60645e-05
5.99165e-05
5.61923e-05
5.6173e-05
5.23091e-05
5.19895e-05
4.81726e-05
5.19037e-05
4.76706e-05
5.58646e-05
5.97728e-05
5.60341e-05
6.01239e-05
5.61476e-05
5.2175e-05
5.231e-05
4.83931e-05
4.81912e-05
5.21283e-05
5.23027e-05
4.80882e-05
5.64335e-05
5.99328e-05
5.9829e-05
5.61173e-05
6.00729e-05
5.62342e-05
5.64205e-05
5.28613e-05
5.27768e-05
4.88618e-05
5.25219e-05
4.82036e-05
5.62961e-05
5.99945e-05
5.66943e-05
6.03532e-05
5.65787e-05
5.25418e-05
5.24006e-05
4.83201e-05
4.8862e-05
5.24163e-05
5.24755e-05
4.84323e-05
6.96086e-05
6.48285e-05
6.47764e-05
6.89343e-05
6.88681e-05
6.54684e-05
6.99659e-05
6.56779e-05
6.88911e-05
6.60031e-05
6.95158e-05
6.91309e-05
6.65919e-05
6.98694e-05
6.55457e-05
6.8698e-05
6.58099e-05
6.89548e-05
6.93463e-05
6.65128e-05
6.91238e-05
5.34425e-05
5.71632e-05
5.75012e-05
6.09754e-05
6.09414e-05
6.12418e-05
5.71734e-05
5.71613e-05
5.42045e-05
5.07334e-05
5.33035e-05
4.91664e-05
5.47966e-05
5.33737e-05
5.01672e-05
5.41423e-05
5.074e-05
5.33429e-05
4.91527e-05
5.3327e-05
5.48189e-05
5.01456e-05
5.84831e-05
6.15072e-05
6.25129e-05
5.7625e-05
5.89136e-05
6.24165e-05
5.76144e-05
5.84443e-05
6.14006e-05
6.23403e-05
5.76374e-05
6.23723e-05
5.75473e-05
5.8861e-05
5.34771e-05
4.89e-05
4.89202e-05
5.32132e-05
5.3208e-05
4.94239e-05
5.34727e-05
5.71932e-05
6.82811e-05
6.78599e-05
6.46902e-05
6.45469e-05
6.8044e-05
6.80771e-05
6.47751e-05
6.86633e-05
6.50426e-05
6.86554e-05
6.84063e-05
6.48428e-05
6.80026e-05
6.77257e-05
6.42528e-05
6.44335e-05
6.76471e-05
6.79892e-05
6.4439e-05
6.81991e-05
6.43753e-05
6.79307e-05
6.77886e-05
6.43489e-05
5.7352e-05
6.09799e-05
6.09399e-05
5.72908e-05
6.11292e-05
5.76167e-05
5.73267e-05
5.35456e-05
5.33917e-05
4.94854e-05
5.33457e-05
4.87989e-05
5.71032e-05
6.12143e-05
5.76281e-05
6.14056e-05
5.76358e-05
5.32639e-05
5.35928e-05
4.96685e-05
4.91701e-05
5.3504e-05
5.33447e-05
4.90952e-05
5.73376e-05
6.05636e-05
6.08284e-05
5.71434e-05
6.08704e-05
5.7291e-05
5.726e-05
5.35029e-05
5.33521e-05
4.94353e-05
5.31893e-05
4.87426e-05
5.69771e-05
6.05959e-05
5.72457e-05
6.09943e-05
5.72494e-05
5.34174e-05
5.34848e-05
4.97889e-05
4.91731e-05
5.34166e-05
5.33373e-05
4.92451e-05
6.79814e-05
6.82082e-05
5.73591e-05
6.07266e-05
6.08132e-05
6.13192e-05
5.65533e-05
5.66512e-05
5.40418e-05
5.01107e-05
5.28144e-05
4.89677e-05
5.00824e-05
5.3476e-05
5.31404e-05
5.4122e-05
5.03882e-05
5.31446e-05
4.92491e-05
5.02081e-05
5.37664e-05
5.33894e-05
5.7935e-05
6.09236e-05
6.02382e-05
5.67926e-05
6.10379e-05
5.69104e-05
5.72552e-05
5.80219e-05
6.10972e-05
6.04554e-05
5.71274e-05
6.11175e-05
5.72085e-05
5.74806e-05
5.30931e-05
4.84707e-05
4.86054e-05
4.88842e-05
5.25714e-05
5.26873e-05
5.31774e-05
5.67341e-05
5.35571e-05
5.71336e-05
3.93502e-05
3.55617e-05
3.9482e-05
3.55716e-05
3.56054e-05
3.00247e-05
3.00166e-05
3.54294e-05
3.54346e-05
3.04318e-05
4.05452e-05
4.52921e-05
4.4222e-05
3.99957e-05
4.47051e-05
3.97032e-05
4.10433e-05
4.06488e-05
4.54794e-05
4.44844e-05
4.01286e-05
4.48246e-05
3.99873e-05
4.11956e-05
3.98708e-05
4.41808e-05
4.42918e-05
4.4268e-05
3.96089e-05
3.96789e-05
3.59222e-05
3.02139e-05
3.51852e-05
3.2062e-05
3.53177e-05
3.15266e-05
3.65716e-05
3.5998e-05
3.02947e-05
3.51964e-05
3.20458e-05
3.5511e-05
3.15165e-05
3.66244e-05
1.20191e-05
1.75896e-05
1.12688e-05
1.69604e-05
1.93333e-05
2.47879e-05
2.47736e-05
2.5639e-05
1.80004e-05
1.7669e-05
1.60521e-05
1.37806e-05
1.3611e-05
9.18102e-06
1.32545e-05
1.77399e-05
1.20935e-05
1.59496e-05
1.33394e-05
1.311e-05
8.66863e-06
1.2951e-05
1.74013e-05
1.18995e-05
2.14906e-05
2.47937e-05
2.7137e-05
2.01042e-05
2.61822e-05
1.9134e-05
2.24815e-05
2.14482e-05
2.47567e-05
2.70467e-05
1.97075e-05
2.61167e-05
1.89245e-05
2.23068e-05
1.38169e-05
3.39639e-06
3.09487e-06
1.07596e-05
1.04385e-05
7.26711e-06
3.50557e-05
3.5538e-05
3.05655e-05
3.09441e-05
3.52083e-05
3.52791e-05
3.03251e-05
3.91031e-05
4.35125e-05
3.9587e-05
4.41543e-05
3.97765e-05
3.95265e-05
3.98905e-05
4.38998e-05
4.39258e-05
3.95486e-05
4.38737e-05
3.98705e-05
3.56883e-05
3.08656e-05
3.502e-05
3.47522e-05
2.98293e-05
1.98114e-05
2.56562e-05
2.59175e-05
2.18028e-05
2.50969e-05
2.08133e-05
2.15477e-05
1.32023e-05
1.32477e-05
9.87629e-06
-1.72606e-06
1.3273e-05
1.80074e-05
2.49102e-05
1.90612e-05
2.62573e-05
2.04142e-05
1.53342e-05
1.75191e-05
1.1875e-05
1.2879e-05
1.36245e-05
1.56995e-05
1.63596e-05
2.02188e-05
2.56709e-05
2.59466e-05
2.1798e-05
2.52409e-05
2.08642e-05
2.15653e-05
1.34942e-05
1.36968e-05
1.02481e-05
1.35229e-05
-1.42582e-06
1.81878e-05
2.49473e-05
1.94371e-05
2.63637e-05
2.0558e-05
1.55539e-05
1.75572e-05
1.19305e-05
1.31111e-05
1.57635e-05
1.65148e-05
1.38475e-05
3.53657e-05
3.0205e-05
3.02161e-05
3.53041e-05
3.5347e-05
3.05285e-05
4.01161e-05
4.45172e-05
4.39256e-05
3.96602e-05
3.9559e-05
4.41901e-05
4.04109e-05
4.01434e-05
4.45462e-05
4.39363e-05
3.9728e-05
4.04691e-05
4.41922e-05
3.96088e-05
3.94708e-05
4.3832e-05
4.38431e-05
3.93227e-05
4.38854e-05
3.93561e-05
3.55966e-05
3.03707e-05
3.49619e-05
3.17562e-05
3.52192e-05
3.60918e-05
3.13321e-05
3.56286e-05
3.04252e-05
3.49979e-05
3.17991e-05
3.61555e-05
3.52793e-05
3.13656e-05
3.91897e-05
3.55139e-05
1.26866e-05
1.80253e-05
2.00382e-05
2.53673e-05
2.53673e-05
2.58608e-05
1.90016e-05
1.89566e-05
1.65911e-05
1.4346e-05
1.42128e-05
1.02456e-05
1.80898e-05
1.42388e-05
1.27522e-05
1.65781e-05
1.42309e-05
1.40736e-05
1.01296e-05
1.41877e-05
1.80227e-05
1.27183e-05
2.17907e-05
2.52205e-05
2.7067e-05
2.05304e-05
2.26493e-05
2.62356e-05
1.9864e-05
2.17823e-05
2.52631e-05
2.7068e-05
2.04138e-05
2.6257e-05
1.98602e-05
2.26148e-05
1.48853e-05
4.89641e-06
4.81897e-06
1.21166e-05
1.20573e-05
8.83906e-06
1.24731e-05
1.78677e-05
3.50696e-05
3.59171e-05
3.01697e-05
3.06112e-05
3.5374e-05
3.5468e-05
2.96773e-05
3.96214e-05
4.46557e-05
3.99759e-05
4.51099e-05
4.05462e-05
4.00159e-05
4.06861e-05
4.47127e-05
4.49291e-05
4.01277e-05
4.46404e-05
4.07017e-05
3.56925e-05
3.04031e-05
3.46182e-05
3.49619e-05
2.9035e-05
1.89854e-05
2.55674e-05
2.49254e-05
2.08338e-05
2.46226e-05
2.0851e-05
1.95557e-05
1.15512e-05
1.23884e-05
8.51645e-06
-3.11673e-06
1.18427e-05
1.67549e-05
2.4188e-05
1.8411e-05
2.5432e-05
1.92664e-05
1.40466e-05
1.59971e-05
1.12359e-05
9.77111e-06
1.20267e-05
1.51895e-05
1.40935e-05
1.82808e-05
2.48098e-05
2.48418e-05
2.06078e-05
2.39989e-05
1.93859e-05
1.98431e-05
1.0807e-05
1.06288e-05
7.03919e-06
1.06559e-05
-4.0663e-06
1.60265e-05
2.35265e-05
1.69792e-05
2.4884e-05
1.84938e-05
1.32185e-05
1.57178e-05
9.63209e-06
9.90709e-06
1.39158e-05
1.41542e-05
1.13383e-05
3.51638e-05
3.57156e-05
3.10256e-05
3.05359e-05
3.54038e-05
3.52865e-05
3.03234e-05
3.91533e-05
4.36131e-05
3.96526e-05
3.98615e-05
4.42001e-05
3.96284e-05
4.01122e-05
4.40636e-05
4.4043e-05
4.00384e-05
4.3943e-05
3.96785e-05
3.57303e-05
3.08191e-05
3.50651e-05
3.47999e-05
2.97305e-05
3.51776e-05
3.58056e-05
3.05585e-05
3.10333e-05
3.53345e-05
3.55602e-05
3.02217e-05
3.95159e-05
4.42755e-05
4.01193e-05
4.46794e-05
4.0386e-05
3.97789e-05
4.02506e-05
4.4166e-05
4.4479e-05
4.41714e-05
3.97691e-05
4.03634e-05
3.60144e-05
3.0959e-05
3.52345e-05
3.51994e-05
2.9774e-05
1.99684e-05
2.58956e-05
2.55672e-05
2.15918e-05
2.51378e-05
2.13766e-05
2.05218e-05
1.29652e-05
1.34679e-05
9.7811e-06
1.30366e-05
-1.9443e-06
1.78398e-05
2.47732e-05
1.92771e-05
2.61712e-05
2.0254e-05
1.51387e-05
1.71166e-05
1.25831e-05
1.12143e-05
1.61695e-05
1.52622e-05
1.33087e-05
1.94367e-05
2.55095e-05
2.56889e-05
2.1536e-05
2.4854e-05
2.04407e-05
2.10398e-05
1.24177e-05
1.23368e-05
8.95118e-06
1.23873e-05
-2.55875e-06
1.74402e-05
2.46305e-05
1.84177e-05
2.59946e-05
1.9844e-05
1.45846e-05
1.70003e-05
1.1119e-05
1.19268e-05
1.51615e-05
1.56746e-05
1.27436e-05
3.42403e-05
2.70819e-05
2.70794e-05
3.3457e-05
3.34955e-05
2.82088e-05
4.105e-05
4.62095e-05
4.45004e-05
4.00938e-05
3.94677e-05
4.55308e-05
4.16177e-05
4.10676e-05
4.62231e-05
4.45143e-05
4.01118e-05
4.1617e-05
4.55651e-05
3.94961e-05
3.98267e-05
4.43511e-05
4.43805e-05
3.89649e-05
4.49268e-05
3.89953e-05
3.55708e-05
2.82817e-05
3.45143e-05
3.11883e-05
3.40327e-05
3.63534e-05
3.07484e-05
3.55801e-05
2.83239e-05
3.4496e-05
3.11307e-05
3.62952e-05
3.40532e-05
3.07629e-05
3.94549e-05
3.50302e-05
8.82048e-06
1.50156e-05
1.4657e-05
2.0782e-05
2.07566e-05
2.16464e-05
1.34768e-05
1.34539e-05
1.25699e-05
9.86252e-06
1.04269e-05
5.45213e-06
1.44254e-05
9.89723e-06
8.50358e-06
1.25555e-05
9.78273e-06
1.03532e-05
5.38221e-06
9.84393e-06
1.43833e-05
8.47603e-06
1.91285e-05
2.20097e-05
2.54722e-05
1.73474e-05
1.99293e-05
2.46822e-05
1.57969e-05
1.91069e-05
2.21152e-05
2.54495e-05
1.72969e-05
2.46506e-05
1.57989e-05
1.99004e-05
8.40419e-06
-1.7443e-07
-2.01354e-07
6.71894e-06
6.73571e-06
3.16789e-06
8.66722e-06
1.49377e-05
3.50567e-05
3.60585e-05
3.06338e-05
3.01191e-05
3.54794e-05
3.54494e-05
2.96305e-05
3.96367e-05
4.47103e-05
4.00174e-05
4.05648e-05
4.51309e-05
4.00666e-05
4.08508e-05
4.50065e-05
4.48104e-05
4.07886e-05
4.46783e-05
4.02298e-05
3.56408e-05
3.02647e-05
3.46425e-05
3.49066e-05
2.88866e-05
3.53951e-05
3.60568e-05
3.10549e-05
3.019e-05
3.58158e-05
3.54536e-05
2.99635e-05
3.97615e-05
4.4708e-05
4.04851e-05
4.51189e-05
4.06487e-05
4.04037e-05
4.0852e-05
4.522e-05
4.47828e-05
4.48713e-05
4.0982e-05
4.01797e-05
3.59176e-05
3.0693e-05
3.53765e-05
3.51866e-05
2.93229e-05
1.80302e-05
2.47767e-05
2.46864e-05
2.04056e-05
2.39198e-05
1.96689e-05
1.90542e-05
1.04293e-05
1.04957e-05
6.67409e-06
1.03497e-05
-4.58576e-06
1.57665e-05
2.33611e-05
1.6864e-05
2.4686e-05
1.82651e-05
1.28766e-05
1.53467e-05
9.73163e-06
8.96866e-06
1.39334e-05
1.34894e-05
1.05531e-05
1.84935e-05
2.53395e-05
2.47803e-05
2.05626e-05
2.43485e-05
2.02755e-05
1.9178e-05
1.10639e-05
1.1641e-05
7.70254e-06
1.12407e-05
-3.88455e-06
1.64066e-05
2.39964e-05
1.78549e-05
2.52254e-05
1.89982e-05
1.34371e-05
1.55364e-05
1.04435e-05
9.1247e-06
1.45886e-05
1.3634e-05
1.12377e-05
3.96752e-05
3.57655e-05
3.98546e-05
3.57618e-05
1.78941e-05
2.3722e-05
2.37052e-05
2.44938e-05
1.64377e-05
1.63311e-05
1.47276e-05
1.24326e-05
1.2645e-05
7.90665e-06
1.08215e-05
1.6718e-05
1.21252e-05
1.46485e-05
1.20531e-05
1.22027e-05
7.43204e-06
1.0616e-05
1.64287e-05
1.19593e-05
2.08174e-05
2.40772e-05
2.71225e-05
1.9318e-05
2.58971e-05
2.20002e-05
1.80666e-05
2.07973e-05
2.41367e-05
2.70381e-05
1.89934e-05
2.59028e-05
2.18397e-05
1.7938e-05
1.2004e-05
2.08942e-06
1.86643e-06
5.58633e-06
9.29801e-06
9.27477e-06
1.1041e-05
1.68507e-05
1.03845e-05
1.63356e-05
7.84405e-06
-6.95778e-06
7.11736e-06
-7.55629e-06
-3.17906e-06
1.37674e-05
1.36979e-05
2.15468e-05
2.10712e-05
-4.75432e-06
8.15878e-06
9.93533e-06
8.10899e-06
7.01156e-06
9.07521e-06
1.3278e-05
8.31687e-06
7.82872e-06
9.41859e-06
7.55098e-06
6.26013e-06
8.823e-06
1.26032e-05
7.71486e-06
5.7857e-06
5.47589e-06
2.81971e-06
2.48182e-06
7.0787e-06
7.16751e-06
6.87748e-06
-4.75893e-07
2.5508e-06
2.32712e-06
4.23542e-06
3.04522e-05
3.00471e-05
9.79807e-06
1.06119e-05
9.15154e-06
-3.26623e-06
2.30621e-05
1.6988e-06
6.78108e-06
9.91359e-06
1.04723e-05
8.08318e-06
-3.78631e-06
2.21207e-05
1.68609e-06
6.1698e-06
1.11918e-05
1.10405e-05
-9.39442e-06
2.64645e-06
2.47663e-06
1.56762e-05
8.04802e-06
-6.52492e-06
3.86841e-07
7.86218e-06
-7.01046e-06
4.89687e-07
2.28102e-05
6.34556e-06
1.88532e-05
5.94191e-06
3.19212e-05
1.21551e-05
6.64414e-06
2.25607e-05
1.85824e-06
1.39774e-05
3.17451e-05
9.09988e-06
9.58487e-06
8.62085e-06
1.40942e-05
1.83519e-05
8.60813e-06
2.78219e-06
7.86465e-06
1.2381e-05
8.26517e-06
6.66143e-06
7.60118e-06
4.65832e-06
8.00317e-06
7.98706e-06
4.28814e-06
9.66242e-06
6.26567e-06
7.50383e-06
-1.25523e-06
1.12034e-06
1.28795e-05
6.10992e-06
7.32109e-06
9.49454e-06
1.32501e-05
5.90721e-06
7.91489e-06
7.76359e-06
2.23977e-06
1.43765e-05
1.09111e-05
3.39049e-06
1.20823e-06
5.27302e-06
1.27302e-05
1.2762e-05
8.52413e-06
6.76831e-06
7.7854e-06
4.75885e-06
8.33103e-06
8.11591e-06
4.56229e-06
1.02822e-05
7.13206e-06
8.17135e-06
-6.34397e-07
6.51909e-06
1.34642e-05
2.19916e-06
7.88096e-06
9.68779e-06
1.36406e-05
6.40997e-06
8.48178e-06
2.74251e-06
8.43159e-06
1.43426e-05
1.09943e-05
3.7032e-06
1.75981e-06
1.28531e-05
1.28697e-05
5.78133e-06
1.08747e-05
1.94521e-06
1.98972e-06
4.20611e-06
-1.03371e-06
3.1067e-06
5.72282e-06
-3.43602e-07
1.8656e-06
4.46454e-06
-1.49957e-07
5.49138e-06
1.07749e-05
1.96058e-06
1.96259e-06
4.23434e-06
-8.54728e-07
3.19208e-06
5.77357e-06
1.60076e-07
1.85623e-06
4.51837e-06
1.81068e-08
5.53256e-06
1.03316e-06
1.44333e-05
1.43856e-05
2.41242e-05
2.40652e-05
-3.42392e-06
9.33647e-06
1.06986e-05
9.34549e-06
7.99316e-06
1.46038e-05
9.91568e-06
9.19911e-06
9.23778e-06
1.05322e-05
9.20484e-06
7.73814e-06
8.9965e-06
9.85206e-06
1.44382e-05
6.97362e-06
6.5139e-06
3.42413e-06
3.32199e-06
7.8685e-06
7.96739e-06
7.28994e-06
3.05365e-06
5.06586e-06
4.99377e-06
3.21543e-05
5.89807e-06
3.20827e-05
1.11944e-05
1.08456e-05
9.6273e-06
-2.31156e-06
2.51117e-05
7.86417e-06
2.50034e-06
1.12045e-05
1.07677e-05
9.23124e-06
-2.42697e-06
7.64271e-06
2.49427e-05
2.46695e-06
8.89939e-06
-5.31226e-06
1.16232e-05
1.15491e-05
-8.25272e-06
2.67145e-06
2.63454e-06
1.48592e-05
8.22956e-06
-6.02514e-06
8.77437e-07
8.12176e-06
-6.12891e-06
8.63713e-07
6.99266e-06
4.60922e-06
6.40133e-06
3.23557e-06
6.22747e-06
6.1941e-06
3.50194e-06
8.5663e-06
6.19527e-06
7.15124e-06
-1.5891e-06
5.12124e-07
1.23729e-05
5.17256e-06
6.22949e-06
8.34478e-06
1.25043e-05
5.42342e-06
6.46854e-06