/*--------------------------------*- C++ -*----------------------------------*\
| =========                 |                                                 |
| \\      /  F ield         | OpenFOAM: The Open Source CFD Toolbox           |
|  \\    /   O peration     | Version:  v2006                                 |
|   \\  /    A nd           | Website:  www.openfoam.com                      |
|    \\/     M anipulation  |                                                 |
\*---------------------------------------------------------------------------*/
FoamFile
{
    version     2.0;
    format      ascii;
    class       surfaceScalarField;
    location    "875";
    object      phi;
}
// * * * * * * * * * * * * * * * * * * * * * * * * * * * * * * * * * * * * * //

dimensions      [0 3 -1 0 0 0 0];
oriented        oriented;


internalField   nonuniform List<scalar> 
41864
(
1.18418e-06
4.79511e-07
-0.0011766
-1.27202e-07
-9.39879e-07
0.00117601
-0.00113111
-1.06479e-06
-1.4857e-06
-5.36463e-07
0.00113124
-8.74132e-08
1.42316e-06
3.68791e-07
1.19029e-06
1.1164e-07
-5.47408e-07
4.973e-07
-0.00112959
-1.38312e-06
-3.37132e-07
9.44294e-07
0.00112916
-4.40118e-07
1.05607e-06
-2.36814e-08
1.00834e-06
-2.25723e-08
-6.74906e-07
2.99731e-07
-0.000270653
1.24378e-06
1.03264e-06
1.34506e-09
-1.30349e-07
0.000268505
4.99016e-06
5.2467e-06
-0.00116327
-1.14845e-05
-9.78397e-06
0.000283653
0.000285204
0.000285244
0.000285284
4.06765e-06
6.22313e-06
6.67942e-06
4.34206e-06
6.56493e-06
7.0412e-06
-0.000280304
5.09787e-06
-5.16476e-06
5.65776e-06
-3.1368e-06
0.00027785
-0.000280374
-5.51229e-06
5.63028e-06
-3.68604e-06
5.86018e-06
0.000278082
-0.000270812
-5.32377e-06
-5.05729e-06
5.35287e-06
5.56324e-06
0.000270277
-1.21926e-06
-1.33148e-06
0.000270272
-0.000268359
3.75083e-07
2.61997e-07
0.00113025
-6.11413e-07
-0.00113103
3.86972e-07
-1.26366e-06
1.73022e-07
-2.55391e-07
-5.69379e-07
4.63333e-07
1.04779e-07
1.12681e-06
1.42799e-06
0.00113056
-3.86549e-07
-0.00113093
-7.03797e-07
-1.05595e-06
3.80501e-07
-4.41371e-08
-6.74028e-07
3.74282e-07
1.01814e-08
1.03514e-06
-1.26665e-06
0.000270349
-0.000268367
3.09902e-07
4.02409e-07
0.00113122
-1.94882e-07
-0.00113197
-3.33452e-07
-1.09111e-06
3.22018e-07
-1.17247e-07
-6.40506e-07
3.8802e-07
4.64892e-08
1.04151e-06
1.16571e-06
0.00112909
2.59971e-07
-0.00113017
4.39522e-07
-1.27245e-06
9.21709e-08
-3.01355e-07
-6.60146e-07
3.35055e-07
1.31959e-08
1.01489e-06
-9.64295e-07
-0.00113139
1.97912e-08
-1.16005e-06
2.61595e-07
-1.71247e-07
-5.86436e-07
4.36727e-07
1.09766e-06
7.37086e-08
1.27086e-06
0.00113091
-1.1921e-06
-0.00113097
-1.90496e-07
-1.16751e-06
1.78563e-07
-2.11276e-07
-5.03197e-07
5.28253e-07
1.6777e-07
1.18358e-06
-1.01131e-06
0.000269838
-0.000268007
1.30022e-07
2.16301e-07
-2.76106e-07
-0.00113062
1.14477e-06
-1.36746e-06
-2.03294e-08
-4.15781e-07
-5.78534e-07
3.91859e-07
1.06828e-06
7.12133e-08
1.39025e-06
0.00113179
-7.15567e-07
-0.00113189
-9.23668e-07
-9.86353e-07
3.31886e-07
-6.6238e-08
-5.81746e-07
4.50393e-07
9.86139e-08
1.09695e-06
-0.000268649
3.86936e-07
2.69978e-07
1.24828e-06
1.0357e-06
1.78935e-08
-1.12455e-07
0.000268083
-5.15912e-06
-4.98966e-06
0.000270283
-0.000268266
3.9834e-06
4.14829e-06
3.38246e-07
0.00112975
-2.37964e-07
1.29099e-06
2.17047e-07
1.21396e-06
1.27103e-07
-5.24811e-07
5.08723e-07
-1.01814e-06
-1.10471e-06
-9.41546e-07
0.00113058
-2.08812e-08
1.52642e-06
4.31915e-07
1.16111e-06
7.24064e-08
-5.93482e-07
4.68572e-07
0.000279828
-1.28496e-05
-0.00112909
-6.00385e-06
1.11314e-06
3.86728e-06
1.73364e-06
2.00881e-06
5.76625e-06
2.63839e-06
6.2583e-06
0.000280089
0.00027873
0.000280748
5.2063e-06
0.000280213
-1.34374e-05
-0.00113076
-6.34013e-06
1.2027e-06
3.9267e-06
1.82309e-06
2.1429e-06
5.96222e-06
2.78998e-06
6.42164e-06
0.000280609
0.000279075
0.000281163
-3.2088e-08
2.78006e-08
0.00026827
-5.20125e-06
0.000270823
-0.000268831
4.20579e-06
4.20988e-06
-6.16628e-07
0.00113073
-6.17552e-08
1.43516e-06
3.84278e-07
1.07958e-06
3.05965e-08
-6.4117e-07
3.92546e-07
-1.33665e-06
2.56493e-08
5.36227e-07
0.00112855
-3.66096e-07
1.15802e-06
3.62051e-08
9.836e-07
-5.98017e-08
-7.1624e-07
2.72369e-07
0.000279881
-1.30627e-05
-0.00112997
-4.9877e-06
1.05457e-06
3.67102e-06
1.6124e-06
2.04085e-06
5.86575e-06
2.68429e-06
6.36425e-06
0.000280194
0.000278815
0.000280849
5.54139e-06
0.00028029
-1.37388e-05
-0.0011298
-7.61013e-06
1.35855e-06
4.35629e-06
2.03612e-06
1.94495e-06
5.79161e-06
2.58828e-06
6.26117e-06
0.000279103
0.000280697
0.000281176
-1.47355e-06
1.34787e-07
0.00113089
-2.76497e-07
1.25774e-06
1.47613e-07
1.23946e-06
1.6961e-07
5.39621e-07
-4.79375e-07
-1.34519e-05
-0.00113143
-5.97869e-06
1.24816e-06
3.89495e-06
1.81932e-06
2.13719e-06
5.93654e-06
6.4328e-06
2.77308e-06
0.000280663
0.000279181
0.000281271
5.26557e-06
0.000280333
-1.30671e-05
-0.00113097
-6.35537e-06
1.15692e-06
4.00845e-06
1.79599e-06
2.01377e-06
5.79475e-06
2.64567e-06
6.28307e-06
0.000279163
0.000280687
0.000281246
-2.69268e-07
-2.13132e-07
0.0002676
-5.53762e-06
0.000270945
-0.000268671
4.40091e-06
4.40387e-06
-7.63546e-07
-8.18888e-07
0.00113182
-1.07915e-07
1.39658e-06
3.12306e-07
1.10667e-06
6.87019e-08
4.22851e-07
-6.06664e-07
-1.37676e-05
-0.00113043
-7.24384e-06
1.40015e-06
4.32674e-06
2.03022e-06
1.94388e-06
5.76686e-06
6.27325e-06
2.57297e-06
0.000279198
0.000280745
0.000281276
5.09605e-06
0.00028038
-1.32934e-05
-0.0011318
-5.34608e-06
1.09571e-06
3.81228e-06
1.67168e-06
2.04433e-06
5.89124e-06
2.69223e-06
6.39116e-06
0.000279243
0.000280783
0.000281336
-0.00026877
4.08005e-06
4.23876e-06
-5.18476e-06
-4.90846e-06
5.20451e-06
5.41891e-06
0.000269753
5.47706e-06
-3.26395e-06
0.00027742
5.12154e-06
-5.13587e-06
5.64397e-06
-3.17698e-06
0.00027776
5.39169e-06
5.45504e-06
0.000270196
5.67828e-06
-2.93626e-06
0.000277477
-5.49008e-06
5.64719e-06
-3.72166e-06
5.85363e-06
0.000278001
-0.00116413
-1.08714e-05
-1.04728e-05
0.00028384
0.000285438
0.000285477
0.000285466
4.23744e-06
6.43122e-06
6.88102e-06
4.20131e-06
6.38014e-06
6.82272e-06
-0.00116437
-1.27792e-05
-1.23997e-05
0.000284002
0.00028574
0.000285709
0.000285699
4.55934e-06
6.89883e-06
7.29701e-06
4.53269e-06
6.86272e-06
7.25134e-06
5.0941e-06
5.33629e-06
-0.00116482
-1.1945e-05
-1.02519e-05
0.000284
0.000285663
0.000285649
0.000285686
4.1551e-06
6.36859e-06
6.79748e-06
4.41847e-06
6.69835e-06
7.14668e-06
-3.39181e-06
5.56809e-06
0.000277927
5.77199e-06
5.82863e-06
0.000270622
-3.07555e-06
5.75768e-06
0.000277977
4.6631e-08
-2.67357e-07
0.000230645
-0.00023062
2.29659e-07
-3.43851e-08
1.71801e-08
-1.69272e-07
0.000194902
1.1582e-08
-0.000194762
-5.63644e-08
4.72193e-08
9.87302e-05
-9.8721e-05
-3.28809e-07
-3.45627e-08
0.000230712
-0.000230665
4.04351e-08
2.76045e-07
6.97013e-08
-1.58978e-07
0.000194908
-7.90527e-08
-0.00019474
-0.00117727
1.96358e-07
-3.40829e-07
0.00117653
-0.00117694
-8.57776e-07
-8.86336e-08
0.00117549
-0.00117609
-8.05187e-08
6.69914e-07
0.00117629
-0.00117651
-5.64141e-07
-1.1232e-06
2.3423e-07
9.49633e-08
0.000251258
-0.00025113
-9.13633e-08
-3.65634e-07
3.74587e-07
1.1772e-06
0.00113171
-6.28311e-07
-6.31374e-07
3.84447e-07
2.30705e-08
1.04925e-06
-1.21045e-06
1.85524e-07
-2.33776e-07
-0.0011322
3.83191e-08
8.99931e-08
0.000246761
8.20526e-09
-0.000246655
-2.43022e-07
6.26557e-07
0.00114911
-6.81419e-07
-7.27245e-07
9.68424e-07
-5.49175e-07
1.14038e-06
-0.00114951
-2.84125e-08
-6.03364e-08
9.90291e-05
-9.89404e-05
1.72342e-07
3.11012e-07
0.000251247
-0.000251124
-4.38167e-07
-1.68282e-07
4.33541e-07
1.15602e-06
0.00113157
-7.83463e-07
-5.42054e-07
4.97268e-07
1.22269e-07
1.14623e-06
-1.18861e-06
1.0635e-07
-2.60086e-07
-0.00113226
6.70469e-07
0.00114877
-8.26359e-07
-6.61924e-07
1.02851e-06
-4.90844e-07
1.20683e-06
-0.00114927
4.38942e-08
2.23917e-07
0.000246913
4.1604e-08
-0.000246807
-4.15055e-07
-1.43035e-06
-1.42888e-06
0.000270736
-0.000268716
4.34128e-07
4.05131e-07
-4.81985e-08
3.71141e-08
0.000279873
5.13263e-08
-0.00027965
-2.63621e-07
-1.27146e-07
-9.15874e-10
0.000279803
1.3672e-07
-0.000279573
-2.39103e-07
2.12559e-08
-3.86597e-07
0.000231399
-0.000231229
2.05167e-07
-1.00922e-08
-0.000195682
5.40269e-08
-2.91494e-07
-1.31065e-08
0.000195932
-0.000230853
5.15849e-08
-2.75102e-07
0.000230964
1.15078e-07
-2.46881e-09
-1.02352e-07
-8.54954e-08
0.000196444
4.8876e-08
-0.000196306
-9.91855e-05
-6.03595e-08
-2.80437e-07
9.95263e-05
1.09832e-07
1.14765e-07
9.9565e-05
-9.97896e-05
-2.58695e-07
7.71655e-09
0.000231386
-0.000231261
-4.943e-09
1.30735e-07
-0.00019578
8.80659e-08
-2.58427e-07
-9.67242e-08
0.000196047
-0.00023092
-2.58094e-07
-7.64048e-08
0.000231033
1.15039e-07
1.0691e-07
-1.49893e-07
-3.95472e-08
0.00019652
8.23586e-08
-0.000196413
-1.37644e-06
-8.28888e-07
0.00117615
-2.07696e-07
3.28053e-07
0.00117505
-6.34291e-07
-1.47476e-06
0.00117616
-0.00117176
-8.92518e-06
-8.49507e-06
-0.00117238
-9.46975e-06
-9.16913e-06
-0.00117241
-9.89158e-06
-9.57924e-06
-0.00117312
-9.23494e-06
-8.81944e-06
4.08501e-07
-1.012e-07
0.000251618
-0.000251324
1.34443e-07
-7.35809e-07
-0.000246948
2.03374e-07
2.60507e-07
-2.57663e-07
-1.72374e-07
0.000246914
0.00114889
-0.00114875
-2.72807e-07
-1.91111e-06
1.33463e-06
-4.13227e-07
-6.07424e-07
1.19202e-06
-1.37332e-06
1.79396e-06
0.00113159
-2.8055e-06
-3.73616e-07
7.64505e-07
2.55351e-07
1.52866e-06
-8.45302e-07
6.21998e-07
8.94677e-08
-0.000251279
2.89472e-07
-7.72805e-08
0.00025118
9.3094e-08
-2.05663e-07
1.13762e-07
9.68188e-08
0.000247619
-1.82353e-07
-0.000247208
-4.38622e-07
-4.94288e-07
0.00114895
-3.46877e-06
-4.48834e-07
1.55161e-06
-2.50545e-07
1.67777e-06
-9.96432e-05
1.70971e-08
-3.01965e-07
9.99281e-05
1.06004e-07
3.21973e-07
9.95092e-05
-9.99371e-05
-1.76778e-08
2.47132e-07
0.000251467
-0.000251179
-5.46641e-07
2.9462e-08
0.00114811
-0.00114803
9.44753e-07
-1.11874e-06
1.19418e-06
-5.07772e-07
-7.07313e-07
1.06463e-06
-0.000246976
9.87966e-08
2.69182e-07
-2.30752e-07
-4.94857e-08
0.000246888
-1.54404e-07
1.4377e-06
0.00112962
-1.53893e-06
-6.38021e-07
4.55277e-07
9.06454e-09
1.22892e-06
-1.21096e-06
2.52821e-07
-3.0182e-07
-0.000251193
9.10299e-08
2.77839e-07
0.000251068
-1.63568e-07
-8.04904e-08
4.2651e-07
0.00114832
-2.42518e-06
-6.65953e-07
1.32152e-06
-4.56282e-07
1.43048e-06
-4.47099e-09
-9.65153e-08
0.000247426
-8.38195e-08
-0.000247067
-1.74943e-07
-0.00028057
-1.61387e-07
3.57128e-07
-3.78424e-07
1.05162e-07
0.000280647
-0.000280541
-2.65732e-07
3.25435e-07
-3.23793e-07
1.72701e-07
0.000280633
-1.52288e-06
-1.61213e-06
0.000270485
-0.000268362
5.52474e-07
4.60393e-07
-4.75875e-08
-1.71855e-07
0.000281511
-1.80578e-08
-0.000281058
-2.16066e-07
-3.39622e-08
-1.42485e-07
0.000281491
-7.65713e-08
-0.00028105
-1.88109e-07
-2.30677e-08
-1.52375e-06
5.90959e-05
-5.90555e-05
1.32661e-06
1.79798e-07
-0.000202789
8.70891e-06
-1.08758e-05
-2.95063e-06
0.000207907
-0.000233349
-5.38405e-08
-3.94771e-06
0.000233051
3.44237e-06
8.56862e-07
2.31001e-07
-1.22641e-06
5.73534e-05
-4.64129e-07
-5.58658e-05
3.39468e-08
7.20509e-08
5.21911e-09
-8.98926e-08
-2.7443e-08
-1.17466e-07
9.55228e-08
-0.000106118
-8.64125e-06
-2.24227e-05
1.91659e-05
4.23805e-05
3.6141e-05
3.94946e-05
-2.30787e-07
-4.18408e-07
1.34255e-05
1.0424e-07
-1.30063e-05
1.25797e-07
-1.5583e-06
4.92475e-08
5.91084e-05
-5.90653e-05
1.08814e-07
1.35708e-06
-0.000202633
8.49779e-06
-1.09509e-05
-2.64161e-06
0.000207728
-0.000233182
-3.82477e-06
3.03814e-07
0.000232877
5.06379e-07
3.31978e-06
2.2247e-07
-1.2493e-06
5.72877e-05
-4.178e-07
-5.57993e-05
2.32834e-08
6.49462e-08
-2.84645e-09
-8.69373e-08
-2.54396e-08
-1.14266e-07
9.74871e-08
-1.89353e-07
2.7709e-07
0.000291548
-0.000292253
8.01992e-08
5.36831e-07
-9.93024e-06
2.12227e-05
-3.00791e-07
0.000288522
0.000288957
0.000289503
0.000288154
-0.00117761
-1.12893e-05
2.24564e-05
1.54164e-06
0.000288531
0.000289067
0.000289564
0.000288215
-0.00117787
2.71992e-06
3.19377e-06
0.000278762
-0.000281181
-1.98988e-06
-1.50517e-06
-3.85537e-07
1.09765e-06
0.00029359
0.000293116
0.00029329
0.000293344
-0.00119527
1.94751e-06
-1.76105e-07
0.000285077
-9.48433e-07
-0.000286582
6.81829e-07
2.39577e-06
3.75188e-07
0.000285148
-1.39682e-06
-0.000286683
1.60428e-07
1.55311e-06
2.76675e-07
0.000250813
-0.000253262
1.02281e-06
-5.36805e-06
1.56223e-06
1.72611e-06
1.6769e-06
-0.000250243
5.85651e-06
1.10382e-05
-8.23716e-06
-3.63677e-06
0.000245222
-0.00114394
-2.17373e-05
8.2432e-07
0.000281239
0.000279253
0.000280702
0.000281256
9.13295e-06
5.66522e-06
6.50337e-06
8.97197e-06
3.83524e-06
1.75299e-06
2.49258e-06
4.04552e-06
2.91792e-06
-2.84869e-06
0.000270632
-0.000272538
3.71976e-06
-1.88326e-06
-0.000253358
3.99649e-06
1.34153e-07
0.000253557
9.04023e-07
-5.23363e-06
7.42768e-07
1.27049e-06
6.0742e-05
-6.8112e-07
-6.04552e-05
-1.61902e-06
-2.03657e-06
2.67064e-07
0.000276875
2.57953e-06
-0.000278075
3.90071e-07
-0.000105185
-8.65717e-06
-2.20481e-05
1.89913e-05
4.19943e-05
3.5734e-05
3.91703e-05
-2.37205e-07
-4.24739e-07
1.33172e-05
1.12094e-07
-1.29009e-05
1.33542e-07
-2.21549e-07
1.57853e-06
0.000251138
-0.000253438
-5.58891e-06
1.49575e-06
1.58066e-06
1.75637e-06
1.69911e-06
-0.00114399
-2.29124e-05
-1.51983e-06
0.00028148
0.000279373
0.000280885
0.000281426
9.25567e-06
5.67711e-06
6.5132e-06
9.06448e-06
4.55154e-06
2.35685e-06
3.07098e-06
4.76929e-06
-0.000249965
5.86992e-06
1.07556e-05
-7.9145e-06
-3.8194e-06
0.000245074
-3.48875e-06
3.70861e-06
0.000271132
-0.000272969
-2.67328e-06
4.29039e-06
-0.000253294
-2.57805e-07
3.7949e-06
0.00025355
-5.10876e-06
1.31561e-06
-2.4996e-06
-3.71445e-07
0.000277001
2.9963e-06
-0.000278205
1.0786e-06
7.94757e-07
1.2651e-06
6.08301e-05
-7.34024e-07
-6.05053e-05
-1.6506e-06
-0.000287664
-6.05684e-06
2.21688e-05
-6.52116e-06
-1.67749e-06
0.00027975
-0.000287559
-5.72686e-06
2.22908e-05
-6.68821e-06
-1.95951e-06
0.000279643
-3.54816e-06
-3.07753e-06
0.000264089
-0.000265762
3.94339e-06
4.35541e-06
-7.98412e-07
4.17263e-07
5.9652e-05
7.77927e-07
-5.88133e-05
-1.67694e-06
3.10131e-07
4.67582e-08
8.45444e-08
-7.35778e-07
4.21451e-07
5.96489e-05
7.33088e-07
-5.88081e-05
-1.71554e-06
3.14983e-07
5.17592e-08
8.92336e-08
-4.21076e-08
9.88932e-05
-9.88339e-05
-4.86255e-09
9.89039e-05
-9.88293e-05
0.000270781
-1.29702e-06
-1.28175e-06
-0.00026885
3.32237e-07
3.15744e-07
0.000280094
-8.42918e-08
9.33511e-08
-0.000279876
-2.68823e-07
0.000280023
-1.62078e-07
1.83705e-07
-0.000279805
-2.44151e-07
4.51602e-08
4.56375e-09
9.94803e-05
-9.95301e-05
-2.54028e-07
-4.20479e-08
9.91892e-05
9.65543e-08
-5.34997e-08
9.95402e-05
-9.95832e-05
-2.03946e-07
-1.06433e-07
9.92143e-05
1.22272e-06
1.11447e-06
0.00026863
-7.12817e-08
-1.14776e-07
-6.59367e-08
0.000280805
-2.38123e-07
-0.000280512
5.64036e-08
-1.87576e-07
0.000280778
-1.75495e-07
-0.000280482
1.63781e-07
-1.60111e-07
1.48642e-07
-3.28273e-07
0.00028018
-2.56463e-07
2.50303e-07
-2.94496e-07
0.00028012
-2.47832e-07
0.000230595
-0.000230569
2.15747e-07
5.28468e-08
-7.8124e-08
0.000194748
-6.80138e-08
-0.000194658
4.4596e-08
0.000251277
-0.000251195
-3.33954e-08
-3.60111e-07
-5.26319e-08
0.0011316
-4.2572e-07
-1.13978e-06
2.45114e-07
-1.43099e-07
-6.43212e-07
4.04937e-07
3.605e-08
1.0429e-06
-0.00113222
0.000246881
-5.67958e-08
-0.000246758
-3.18895e-07
1.21071e-07
0.00114967
-3.3919e-07
-7.61739e-07
9.30459e-07
-5.87066e-07
1.10906e-06
-0.00115019
0.000251236
-0.000251155
5.4084e-08
-3.3827e-07
-3.31748e-07
0.00113133
1.36975e-06
-1.27716e-07
-7.31275e-07
3.01326e-07
9.55478e-07
-6.406e-08
-1.09961e-06
3.42815e-07
-8.59347e-08
-0.00113186
0.000246661
1.37135e-07
-1.23102e-07
-0.000246563
-1.90533e-07
0.00114952
-2.49812e-07
-7.98848e-07
9.02533e-07
-6.09064e-07
1.07015e-06
-0.00115005
5.45375e-08
-2.35638e-07
1.41075e-07
-6.04388e-09
0.000230691
-1.57714e-07
-0.000195542
2.28051e-08
-2.85036e-07
6.95587e-09
0.000195138
5.83047e-08
-3.0513e-07
-0.000230801
2.4038e-07
-4.58264e-08
-2.14923e-07
1.29009e-07
9.44091e-08
0.000230641
-9.44145e-08
3.84131e-09
0.00019537
-0.000195261
-1.76926e-08
-1.92737e-07
7.51379e-08
-7.26892e-08
0.000194938
-2.86632e-07
0.000230806
-0.00023075
2.30653e-07
5.80569e-08
6.58701e-08
-3.35978e-08
-1.00444e-07
0.000251109
2.30448e-07
-5.19704e-07
1.22335e-06
-2.31277e-07
1.70173e-07
1.06373e-06
6.20349e-08
4.16078e-07
-6.18245e-07
0.00024703
-3.50843e-07
-0.000246865
-3.70744e-08
-0.00114932
5.74855e-07
0.00114883
-5.90576e-07
-7.20399e-07
9.98264e-07
-5.45123e-07
1.16831e-06
-8.96565e-08
-2.79418e-07
0.000246804
3.55341e-07
-5.92993e-07
1.13867e-06
-5.60692e-07
-7.30645e-07
9.63749e-07
9.48293e-08
0.000251138
-0.000251037
-7.64886e-08
-4.2524e-07
8.72198e-08
-7.0047e-08
0.00025107
-4.90807e-07
-1.07878e-06
-2.00618e-07
9.60021e-07
-4.79344e-08
-7.22813e-07
3.04888e-07
1.38575e-06
-5.99449e-08
3.53147e-07
1.12048e-07
0.000246839
-2.51735e-07
-0.000246664
-1.29744e-07
-0.0011492
0.00114881
-4.96287e-07
-7.66019e-07
9.65519e-07
-5.77613e-07
1.13084e-06
2.05174e-07
-1.73885e-07
-1.45025e-07
0.000246582
-4.67533e-07
1.09816e-06
-5.95508e-07
-7.81917e-07
9.32306e-07
0.000251113
-0.000251005
1.01435e-07
-4.01164e-07
0.000270629
-0.000268675
2.2868e-07
3.64652e-07
0.000279749
1.22007e-07
-0.000279569
-1.17489e-07
-2.03634e-08
0.000279857
5.30834e-08
-0.000279679
-1.71804e-07
9.86695e-05
-2.49131e-08
-9.86649e-05
7.26769e-08
-9.92543e-05
-1.77975e-07
9.89833e-05
1.21351e-06
0.000268519
-1.55886e-07
-2.668e-08
0.00028039
-1.71571e-07
-0.000280107
7.40997e-08
-7.83262e-08
-1.13319e-07
0.000280487
-1.85829e-07
-0.000280205
9.5572e-08
1.60139e-07
-1.89586e-07
0.000279806
1.96289e-07
-1.31368e-07
1.17026e-07
-2.34451e-07
0.000279909
-1.60493e-08
9.91575e-05
-9.92198e-05
-6.29531e-08
9.89287e-05
-2.93713e-08
0.000251281
-0.000251195
2.82129e-08
-4.1375e-07
-1.14485e-07
0.00113253
-4.68155e-07
-1.09057e-06
2.72805e-07
-1.2621e-07
-6.26502e-07
4.06035e-07
4.46917e-08
1.04912e-06
-0.00113316
0.000246855
-1.27155e-07
-0.000246732
-3.16393e-07
7.992e-08
0.00114934
-4.89974e-07
-7.16397e-07
9.73786e-07
-5.3866e-07
1.14989e-06
-0.00114991
-3.33531e-07
0.00023067
-0.000230632
2.83555e-07
-2.23762e-08
-2.10913e-07
0.000194934
1.49992e-08
-0.000194766
0.000251242
-0.000251161
-4.20181e-07
-2.39866e-08
-2.49018e-07
0.00113119
1.33384e-06
-3.32253e-07
-6.20745e-07
4.24348e-07
1.06505e-06
5.84435e-08
-1.09725e-06
2.54075e-07
-1.36957e-07
-0.00113189
0.00114916
-4.40851e-07
-7.14587e-07
9.75562e-07
-5.34558e-07
1.14604e-06
-0.00114976
0.000246826
1.40263e-07
-8.31235e-08
-0.000246725
-3.69184e-07
-2.88606e-07
-4.76522e-08
9.10459e-08
1.96327e-07
0.000230761
-1.17285e-07
-0.000195626
-9.04071e-08
-2.67858e-07
-1.00358e-07
0.00019517
-3.1333e-07
-8.13856e-08
-0.000230873
8.45893e-08
2.63356e-07
-3.7649e-08
5.40708e-08
-1.43314e-07
0.000251119
-2.2165e-07
-2.97719e-07
1.267e-06
-1.50895e-07
2.56627e-07
1.03128e-06
4.29842e-08
3.89276e-07
-6.40605e-07
0.00024702
-2.90982e-07
-0.000246853
-1.80643e-07
-0.00114895
-2.8453e-07
0.00114844
-2.73895e-07
-7.56495e-07
9.51947e-07
-5.72826e-07
1.11573e-06
-1.91828e-07
-2.64236e-07
0.000246787
-2.50213e-07
-4.23541e-07
1.13608e-06
-5.43033e-07
-7.24067e-07
9.67366e-07
-8.35614e-08
0.000251115
-0.000251027
8.55206e-08
-4.03538e-07
-2.99307e-07
2.01883e-07
1.97601e-09
0.000230717
-1.49809e-07
-6.31801e-08
0.000195799
-0.000195648
6.2202e-08
-3.17559e-07
7.23058e-08
-1.97081e-08
0.000195199
-3.17348e-07
0.000230864
-0.000230823
2.64109e-07
-6.91327e-08
-1.50739e-07
-2.31889e-08
0.000251079
1.48277e-07
-1.1742e-06
-4.75687e-08
1.04721e-06
5.51004e-08
-6.23781e-07
3.94587e-07
1.25276e-06
-2.19549e-07
1.80088e-07
-0.00114857
0.00114814
-1.41406e-07
-7.61545e-07
9.49468e-07
-5.74996e-07
1.10727e-06
3.64537e-08
0.000246884
-3.02444e-07
-0.000246738
-2.97716e-08
-3.65294e-07
1.13842e-06
-5.40281e-07
-7.20694e-07
9.75654e-07
2.22584e-07
-1.33349e-07
-3.05866e-07
0.000246725
0.000251063
-0.00025098
-4.10843e-07
-7.30683e-08
3.49923e-08
0.0002306
-0.00023055
-3.91231e-08
1.88509e-07
0.000194668
-1.00159e-08
-0.000194593
2.30384e-07
0.000251245
-0.000251107
-3.63246e-07
8.93127e-08
-8.02974e-07
0.0011309
-9.34077e-07
-9.99625e-07
3.90155e-07
1.09343e-08
-6.26024e-07
4.21928e-07
3.17255e-08
1.06849e-06
-0.00113089
0.00114897
-7.59968e-07
-7.25858e-07
9.70894e-07
-5.51456e-07
1.14993e-06
-0.00114923
1.11641e-07
0.000246818
-6.73973e-08
-0.00024664
-2.70309e-07
0.000230576
-0.000230522
1.92316e-07
1.8847e-08
0.000194441
-5.38765e-09
2.60886e-08
-0.00019435
2.14993e-07
7.48853e-08
-5.61785e-08
-1.18642e-07
0.000251143
2.66062e-07
-7.72723e-07
1.18505e-06
-2.19838e-07
1.94838e-07
1.05906e-06
4.17183e-08
-6.1229e-07
3.98658e-07
9.85174e-08
-2.80382e-07
-0.000246759
-1.19652e-07
-0.0011489
1.99747e-07
-1.12676e-06
-6.70551e-07
1.04607e-06
1.19742e-06
-4.79369e-07
2.04408e-07
-6.53505e-08
-1.95384e-07
0.000246686
4.14827e-07
-9.6609e-07
1.18194e-06
-4.96583e-07
-6.80419e-07
1.02225e-06
3.1195e-07
-5.18526e-08
-0.000251148
4.58842e-08
-4.37229e-07
7.37692e-09
2.25871e-08
1.2694e-07
0.000230658
0.000195322
-0.000195195
-4.44273e-08
-4.46932e-08
0.000194855
-7.07457e-08
0.000230845
-0.000230792
6.42983e-08
2.65185e-07
2.23513e-07
-1.23709e-07
7.54931e-08
0.000251145
-5.45786e-07
-1.0694e-06
-1.12077e-06
1.12374e-06
1.01908e-07
-5.6621e-07
4.81255e-07
1.34804e-06
-1.00157e-07
2.684e-07
-0.00114882
0.00114883
-1.23022e-06
-6.31056e-07
1.07296e-06
-4.60465e-07
1.23975e-06
2.09135e-07
7.33436e-08
0.000247078
-4.12646e-07
-0.000246911
-3.71022e-08
-1.10021e-06
1.21538e-06
-4.81412e-07
-6.55361e-07
1.04073e-06
2.54315e-07
1.35238e-07
-1.02852e-07
-2.65153e-07
0.000246796
3.36268e-07
0.000251304
-0.000251171
-4.65599e-07
-5.50302e-08
1.34769e-07
2.851e-08
0.000230644
-2.04695e-08
0.000195259
-0.000195081
5.19655e-08
3.83858e-08
1.97117e-09
0.000194654
0.000230828
-0.00023078
2.81136e-07
-6.36804e-08
0.000270625
-0.000268724
2.35759e-07
3.53648e-07
0.000280135
1.66319e-07
-0.000279928
-2.94211e-07
8.82528e-08
0.000280231
9.6074e-08
-0.00028003
-3.41323e-07
9.89923e-05
3.79989e-09
-9.89078e-05
1.47847e-08
-9.97212e-05
-2.62491e-07
9.93639e-05
1.29911e-06
0.000268421
-1.93835e-07
-7.58368e-08
0.000280803
-1.79235e-07
-0.000280551
-2.21433e-08
-2.00889e-08
-3.08477e-08
0.000280895
-1.94321e-07
-0.000280638
-1.26022e-08
2.07189e-07
-3.2635e-07
0.000280215
2.7898e-07
-1.48362e-07
1.60559e-07
-3.71217e-07
0.000280311
5.45149e-08
9.96275e-05
-9.97021e-05
-5.68105e-08
9.93281e-05
2.83246e-07
0.000251232
-0.000251095
-4.05906e-07
1.58451e-07
-9.0887e-07
0.00113182
-9.219e-07
-9.32569e-07
4.29188e-07
3.97576e-08
-6.27326e-07
4.15391e-07
2.82094e-08
1.06194e-06
-0.00113184
0.00114865
-8.46126e-07
-6.96562e-07
1.002e-06
-5.18591e-07
1.17603e-06
-0.00114901
9.77748e-08
0.00024679
-1.43648e-07
-0.000246606
-2.64959e-07
1.18735e-07
0.000230665
-0.000230602
-1.15319e-07
2.45212e-07
0.000194895
7.20885e-08
-0.000194739
0.000230631
-0.000230558
9.72033e-08
2.32132e-07
0.000194488
4.54978e-08
-6.2834e-08
-0.000194373
1.82001e-07
2.98735e-07
-1.86743e-07
-1.65124e-07
0.000251119
8.64237e-07
-5.54812e-07
1.06352e-06
-3.68322e-07
2.74258e-08
1.13737e-06
1.32909e-07
-5.25485e-07
4.73962e-07
-0.00114825
1.06454e-06
-7.21752e-07
-6.75544e-07
1.01831e-06
1.16153e-06
-4.83634e-07
1.52163e-07
-3.23169e-07
-0.000246824
-1.10346e-08
1.02304e-06
-8.10796e-07
1.21597e-06
-4.57024e-07
-6.35936e-07
1.05292e-06
3.27609e-07
-2.59864e-08
-3.53759e-07
0.000246816
1.24171e-07
3.37212e-07
-0.000251084
-4.44223e-07
-1.26006e-07
2.7643e-07
-1.6015e-07
1.71279e-07
0.000251126
-1.0174e-06
-9.54809e-07
-8.6442e-07
1.08318e-06
7.71703e-08
-5.94788e-07
4.48786e-07
1.40429e-06
-1.2547e-08
3.65596e-07
-0.00114845
0.00114841
-8.61065e-07
-6.72263e-07
1.0194e-06
-4.92865e-07
1.18429e-06
1.68535e-07
1.91142e-07
0.000247062
-3.52145e-07
-0.000246887
-1.82544e-07
-8.87644e-07
1.20393e-06
-4.78711e-07
-6.59321e-07
1.03347e-06
2.35501e-07
2.30578e-07
-2.06466e-07
-2.42492e-07
0.000246773
3.4006e-07
0.000251244
-0.000251129
-4.37028e-07
1.05906e-07
1.10465e-07
-6.84387e-08
1.94294e-07
0.000230727
0.000195783
-0.000195618
4.18665e-08
1.19935e-08
0.000195153
6.58164e-08
0.000230896
-0.000230852
-6.17652e-08
2.8868e-07
1.27049e-07
1.84884e-07
0.000230706
3.36726e-08
0.000195394
-0.000195202
-5.7155e-08
9.91013e-08
-1.02247e-07
0.000194727
0.00023089
-0.000230846
6.39586e-08
2.97311e-07
9.84661e-05
-9.84343e-05
9.85023e-05
-9.84577e-05
0.00026871
3.01845e-08
-2.79991e-08
2.06199e-08
-3.07547e-07
-0.000280274
6.49269e-08
-2.88217e-08
-2.48448e-07
-0.000280238
1.64916e-07
2.6878e-07
1.38033e-07
-3.58023e-07
0.00027996
2.22201e-07
2.3643e-07
-3.20836e-07
0.000279896
9.91901e-05
-9.919e-05
9.87732e-05
9.92681e-05
-9.92633e-05
9.88236e-05
-2.96656e-07
9.9831e-05
1.54637e-07
9.98224e-05
-0.000100079
-2.64441e-07
9.98927e-05
1.31336e-07
9.98388e-05
-0.00010012
-1.36016e-07
-2.98807e-07
7.3661e-08
0.00028087
-2.4398e-07
-2.42083e-07
1.45096e-07
0.000280854
0.000270058
-1.60123e-06
-1.69781e-06
-0.000267919
6.29342e-07
5.30916e-07
0.000281758
-4.60635e-08
-6.87975e-08
-0.000281272
-2.1587e-07
0.000281742
-4.65112e-08
-1.17986e-07
-0.00028126
-1.86032e-07
-2.87138e-06
-1.41526e-06
0.000106094
-0.000101808
-3.82824e-07
-1.18594e-07
0.000100324
-3.03848e-06
-1.2157e-06
0.000105964
-0.00010171
-4.52761e-07
-1.56319e-08
0.000100307
5.95199e-07
4.9158e-07
0.00026798
5.28226e-07
4.62314e-07
-2.43879e-06
0.000288004
-3.46449e-06
-0.000284238
-7.33453e-07
-2.11503e-06
0.000287895
-3.58786e-06
-0.000284152
-1.07808e-06
-2.21195e-07
8.14827e-08
-4.27656e-07
0.000281942
-1.47521e-07
-5.34925e-08
-4.15644e-07
0.000281906
-3.87999e-07
0.000231361
-0.00023119
2.09718e-07
2.80094e-08
-2.49442e-07
-4.56927e-08
0.000195604
-2.60174e-07
0.000230919
1.09954e-07
8.88558e-08
-1.05573e-07
0.000196124
6.90625e-08
-0.000195977
6.52242e-08
0.000251443
-0.000251156
-1.50412e-08
-7.23537e-07
-3.10516e-07
-6.93938e-08
0.000246982
0.00114857
6.75074e-07
-1.50719e-06
1.32714e-06
-4.48159e-07
-6.27146e-07
1.17147e-06
-2.56545e-07
0.0011295
-2.40144e-06
-1.09155e-06
4.18067e-07
-1.14384e-07
-3.78311e-07
7.30054e-07
2.3678e-07
1.51152e-06
9.61065e-08
0.000251021
-5.91823e-08
-1.94467e-07
0.000247586
-8.15227e-08
-0.000247213
-4.23323e-07
7.44364e-07
0.00114823
-3.14875e-06
-4.59932e-07
1.54549e-06
-2.62903e-07
1.67241e-06
0.000251444
-0.000251151
1.08395e-07
-7.24003e-07
1.8141e-07
-2.40123e-07
-1.68073e-07
0.000246817
0.00114869
-1.46165e-06
1.30026e-06
-4.72494e-07
-6.60116e-07
1.14624e-06
-1.60456e-06
0.0011309
1.84104e-06
-2.60469e-06
-3.80963e-07
7.64176e-07
1.53522e-06
2.48662e-07
-8.57275e-07
6.36137e-07
1.02916e-07
0.000251004
1.15821e-07
-1.71503e-07
0.000247515
7.32423e-08
-1.41979e-07
-0.000247106
-4.45901e-07
0.00114853
-3.1941e-06
-4.61786e-07
1.54402e-06
-2.67017e-07
1.68269e-06
1.16476e-08
-5.02091e-07
1.15144e-07
5.44409e-08
0.00023172
-3.85744e-06
-0.00019861
-1.73692e-06
-3.30317e-07
-1.54661e-07
0.000196811
-3.70824e-08
-2.20886e-06
-0.000232777
1.19365e-06
4.80216e-07
-5.08312e-07
1.2486e-07
7.14419e-08
0.000231685
-3.98376e-06
1.35465e-06
0.000202701
-0.00019843
-1.64149e-06
-3.83919e-07
1.00923e-07
-1.21643e-07
0.000196528
-2.23617e-06
0.000233332
-0.000232758
1.21281e-06
4.11549e-07
5.43643e-08
5.42081e-08
-7.49538e-07
0.000251582
-2.07098e-06
-5.69406e-06
2.51706e-06
2.4018e-07
1.10534e-06
2.52109e-06
6.47021e-07
1.64701e-06
9.44214e-08
0.000250081
-4.58425e-06
-0.000249654
-2.13899e-06
-0.00114715
2.47835e-07
0.00114264
-1.59812e-05
1.77438e-06
5.19372e-06
1.8672e-06
5.4049e-06
-2.16028e-07
-5.97495e-07
0.000247848
4.90118e-07
-7.27231e-06
2.74514e-06
3.07748e-07
1.1521e-07
2.61468e-06
-2.48524e-08
0.0002532
-0.000252539
6.71928e-07
-3.51677e-06
1.52599e-07
-7.58653e-07
0.000251596
-3.04264e-06
-3.8424e-07
-6.17142e-06
2.62734e-06
7.36826e-07
1.63204e-07
1.7723e-06
2.71286e-06
4.33762e-07
1.29495e-06
2.37313e-06
0.000250183
-4.75642e-06
-0.000249697
-2.08688e-06
-0.00114752
0.00114313
-1.61688e-05
1.83644e-06
5.24326e-06
1.90471e-06
5.47967e-06
2.40685e-07
-2.64384e-07
-6.58474e-07
0.000247813
-7.43414e-06
2.79378e-06
3.21332e-07
1.39292e-07
2.64186e-06
0.000253223
-0.000252559
6.30657e-07
-3.55595e-06
-2.61167e-07
1.01407e-07
0.00028045
2.72488e-07
-2.64395e-07
1.29624e-07
0.000280553
0.000270524
-0.00026829
6.99139e-07
7.02109e-07
0.000281426
-7.59633e-08
-0.00028089
-2.71501e-07
-1.28346e-07
0.00028154
-4.50528e-08
-0.000280999
-2.5422e-07
-7.91112e-08
9.95091e-05
9.95609e-05
9.57366e-08
-9.9785e-05
-3.0156e-06
-0.000101748
-4.50017e-07
0.000100116
3.4525e-07
0.00026851
6.5074e-07
6.34226e-07
0.000288068
-3.67281e-06
-0.000284172
-8.66199e-07
3.06087e-06
-2.31524e-06
0.000288124
-3.6652e-06
-0.000284263
-9.41413e-07
6.41325e-08
-5.21843e-07
0.000281674
4.50173e-07
-2.64779e-07
7.01359e-08
-5.09935e-07
0.000281795
-1.30472e-06
0.000106089
-0.000101723
-9.79211e-08
0.000100109
-1.91641e-08
0.000251357
-0.000251075
4.80199e-08
-5.70074e-07
-2.41818e-07
-2.09054e-07
0.000246968
0.00114828
-5.46862e-07
-8.82705e-07
1.2027e-06
-5.48679e-07
-7.30434e-07
1.05236e-06
-9.71201e-07
0.00113044
-1.67726e-06
-8.9921e-07
5.27215e-07
2.94919e-08
-5.19655e-07
6.12201e-07
1.22984e-07
1.36898e-06
-7.50686e-08
0.000250977
9.66952e-08
-1.4176e-07
0.000247574
-1.18852e-07
-0.0002472
-3.41126e-07
-1.81601e-07
0.00114798
-2.25818e-06
-6.27982e-07
1.35159e-06
-4.37788e-07
1.48388e-06
-2.26666e-07
0.000231322
-0.000231198
1.02875e-07
7.22969e-09
-2.64204e-07
3.14779e-08
0.000196049
-2.53177e-07
0.000230972
1.0354e-07
-3.46806e-08
9.22873e-08
0.000196364
-2.20519e-08
-0.000196329
0.000251308
-0.000251025
-5.32692e-07
3.91293e-09
0.00114797
-7.06281e-07
1.16671e-06
-5.65184e-07
-7.55981e-07
1.02777e-06
8.92021e-08
-2.13129e-07
-5.24555e-08
0.000246796
-4.07e-07
0.00112898
1.49788e-06
-1.31299e-06
-6.53279e-07
4.45206e-07
1.2207e-06
-4.86042e-09
-1.20967e-06
2.81375e-07
-2.80274e-07
0.000250927
-1.34163e-07
-5.87973e-08
0.00114795
-2.15119e-06
-6.82888e-07
1.30809e-06
-4.7432e-07
1.42428e-06
0.000247323
-2.87934e-08
-5.8402e-08
-0.000246965
-1.78813e-07
-3.36255e-07
7.38242e-08
-5.28244e-09
-1.55869e-08
0.000231669
-3.94551e-06
-0.000198515
-1.38836e-06
-3.17117e-07
-2.42679e-08
0.000196846
-2.0464e-06
2.68878e-07
-0.000232639
1.89641e-07
1.04506e-06
4.11567e-08
5.44143e-08
-5.67964e-07
0.000251494
-2.11581e-06
-5.39041e-06
2.51018e-06
2.82225e-07
1.10139e-06
2.43971e-06
5.61715e-07