/*--------------------------------*- C++ -*----------------------------------*\
| =========                 |                                                 |
| \\      /  F ield         | OpenFOAM: The Open Source CFD Toolbox           |
|  \\    /   O peration     | Version:  v2006                                 |
|   \\  /    A nd           | Website:  www.openfoam.com                      |
|    \\/     M anipulation  |                                                 |
\*---------------------------------------------------------------------------*/
FoamFile
{
    version     2.0;
    format      ascii;
    class       volScalarField;
    location    "250";
    object      k;
}
// * * * * * * * * * * * * * * * * * * * * * * * * * * * * * * * * * * * * * //

dimensions      [0 2 -2 0 0 0 0];


internalField   nonuniform List<scalar> 
171728
(
1.6292e-05
1.87267e-05
1.43382e-05
1.65203e-05
1.65206e-05
1.94273e-05
1.4108e-05
1.68358e-05
1.68365e-05
2.02212e-05
1.39234e-05
1.72355e-05
1.72363e-05
2.10955e-05
1.37844e-05
1.77159e-05
1.77163e-05
2.20365e-05
1.36906e-05
1.82728e-05
1.82735e-05
2.30302e-05
1.36422e-05
1.89017e-05
1.89029e-05
2.40653e-05
1.87278e-05
1.92758e-05
1.62922e-05
1.64546e-05
1.6455e-05
1.92768e-05
1.94278e-05
2.00497e-05
1.65202e-05
1.65209e-05
1.67493e-05
1.67495e-05
1.94273e-05
2.00497e-05
1.65203e-05
1.65211e-05
1.67495e-05
1.67503e-05
1.65205e-05
1.67488e-05
1.67496e-05
1.94284e-05
2.00496e-05
1.65208e-05
1.67496e-05
1.675e-05
2.00512e-05
2.02205e-05
2.09055e-05
1.68364e-05
1.68367e-05
1.71285e-05
1.71288e-05
2.02203e-05
2.09065e-05
1.68361e-05
1.68373e-05
1.71284e-05
1.71293e-05
1.68363e-05
1.71278e-05
1.71289e-05
2.0221e-05
2.09057e-05
1.68364e-05
1.71282e-05
1.7129e-05
2.09084e-05
2.10929e-05
2.18324e-05
1.72364e-05
1.72366e-05
1.7589e-05
1.75898e-05
2.10937e-05
2.18335e-05
1.72358e-05
1.72373e-05
1.75886e-05
1.759e-05
1.72368e-05
1.75886e-05
1.759e-05
2.10932e-05
2.18334e-05
1.72366e-05
1.75888e-05
1.75898e-05
2.18349e-05
2.20332e-05
2.28162e-05
1.77169e-05
1.77173e-05
1.81278e-05
1.81282e-05
2.20353e-05
2.28156e-05
1.77162e-05
1.77176e-05
1.8127e-05
1.81288e-05
1.77175e-05
1.81267e-05
1.81282e-05
2.2034e-05
2.28174e-05
1.77172e-05
1.81273e-05
1.81276e-05
2.28178e-05
2.30281e-05
2.38418e-05
1.82741e-05
1.82744e-05
1.87398e-05
1.87403e-05
2.30288e-05
2.38414e-05
1.82731e-05
1.8275e-05
1.87385e-05
1.87408e-05
1.82747e-05
1.87387e-05
1.87407e-05
2.30293e-05
2.38428e-05
1.82743e-05
1.87392e-05
1.87394e-05
2.3844e-05
2.40628e-05
1.89033e-05
1.89035e-05
1.94205e-05
2.40631e-05
2.4895e-05
1.89024e-05
1.89045e-05
1.89041e-05
1.94187e-05
1.94209e-05
2.40642e-05
1.89038e-05
1.94188e-05
2.48975e-05
6.95566e-05
6.95374e-05
3.10998e-05
4.64228e-05
1.47401e-05
1.63406e-05
4.68349e-05
1.47068e-05
3.05298e-05
5.96694e-05
5.9678e-05
1.88935e-05
5.99258e-05
5.99345e-05
5.59566e-05
7.01473e-05
5.55227e-05
7.01684e-05
6.94898e-05
6.94725e-05
5.59571e-05
7.0149e-05
5.55231e-05
7.017e-05
1.45208e-05
1.42535e-05
1.45208e-05
1.41611e-05
1.41609e-05
1.41612e-05
1.41613e-05
3.27766e-05
4.75398e-05
1.46376e-05
1.65909e-05
3.22106e-05
4.79234e-05
1.46214e-05
6.94902e-05
6.94727e-05
3.27748e-05
1.46377e-05
3.04455e-05
1.65911e-05
2.11852e-05
1.46216e-05
4.79217e-05
6.02524e-05
6.02612e-05
1.96511e-05
6.04842e-05
6.04929e-05
5.68727e-05
7.0193e-05
5.65096e-05
7.02111e-05
6.94288e-05
6.94132e-05
5.68736e-05
7.01948e-05
5.65096e-05
7.02128e-05
1.41081e-05
1.41081e-05
1.41081e-05
1.39652e-05
1.39649e-05
1.39653e-05
1.39653e-05
3.43915e-05
4.85619e-05
1.46049e-05
1.69279e-05
3.38389e-05
4.89199e-05
1.46074e-05
6.94293e-05
6.94133e-05
3.43902e-05
1.46052e-05
4.85662e-05
1.69284e-05
3.38415e-05
1.46076e-05
4.89193e-05
6.07778e-05
6.07863e-05
2.04686e-05
6.09828e-05
6.09914e-05
5.76425e-05
7.02329e-05
5.73344e-05
7.02491e-05
6.93735e-05
6.93597e-05
5.76428e-05
7.02346e-05
5.73342e-05
7.02508e-05
1.39236e-05
1.39236e-05
1.39237e-05
1.38146e-05
1.38145e-05
1.38149e-05
1.3815e-05
3.59234e-05
4.9497e-05
1.46402e-05
1.73478e-05
3.53892e-05
4.98326e-05
1.46599e-05
6.93741e-05
6.93599e-05
3.59219e-05
1.46405e-05
4.95002e-05
1.73488e-05
3.53913e-05
1.46603e-05
4.98341e-05
6.12524e-05
6.12607e-05
2.13631e-05
6.14339e-05
6.14423e-05
5.82956e-05
7.02681e-05
5.80325e-05
7.0283e-05
6.93238e-05
6.93117e-05
5.82957e-05
7.02698e-05
5.80328e-05
7.02846e-05
1.37845e-05
1.37846e-05
1.37847e-05
1.37095e-05
1.37093e-05
1.37097e-05
1.37097e-05
3.73581e-05
5.03547e-05
1.47453e-05
1.78481e-05
3.68475e-05
5.06701e-05
1.47824e-05
6.93242e-05
6.93122e-05
3.73566e-05
1.47457e-05
5.03556e-05
1.78489e-05
3.68495e-05
1.47829e-05
5.0672e-05
6.16817e-05
6.169e-05
2.23212e-05
6.18465e-05
6.18547e-05
5.88595e-05
7.03002e-05
5.86328e-05
7.03141e-05
6.928e-05
6.92696e-05
5.88596e-05
7.0302e-05
5.86328e-05
7.03158e-05
1.36908e-05
1.36909e-05
1.3691e-05
1.36496e-05
1.36495e-05
1.36499e-05
1.365e-05
3.86921e-05
5.11429e-05
1.49193e-05
1.84237e-05
3.82084e-05
5.14413e-05
1.49733e-05
6.92799e-05
6.927e-05
3.86906e-05
1.49198e-05
5.11435e-05
1.84243e-05
3.82104e-05
1.4974e-05
5.1442e-05
6.20723e-05
6.20806e-05
2.33268e-05
6.22252e-05
6.2233e-05
5.9356e-05
7.03307e-05
5.91556e-05
7.03438e-05
6.92417e-05
6.92335e-05
5.93556e-05
7.03323e-05
5.91558e-05
7.03456e-05
1.36423e-05
1.36425e-05
1.36427e-05
1.3636e-05
1.36365e-05
3.99277e-05
5.18715e-05
1.51612e-05
1.90701e-05
3.94706e-05
5.21524e-05
1.52318e-05
6.92418e-05
6.92337e-05
3.99272e-05
1.51617e-05
5.18722e-05
1.90707e-05
3.94723e-05
1.52326e-05
5.21535e-05
6.24323e-05
6.24405e-05
2.43683e-05
6.25736e-05
6.25815e-05
5.96753e-05
5.96688e-05
1.8893e-05
5.99318e-05
5.99259e-05
6.95552e-05
6.9536e-05
6.9504e-05
6.95226e-05
1.90967e-05
6.02171e-05
6.02103e-05
5.99795e-05
5.99738e-05
6.95024e-05
6.95213e-05
5.48588e-05
7.00959e-05
7.01195e-05
5.43382e-05
3.11003e-05
1.47399e-05
4.64246e-05
1.63412e-05
1.47067e-05
4.68339e-05
3.05285e-05
5.48575e-05
7.00927e-05
7.01163e-05
5.43369e-05
3.13745e-05
1.63953e-05
4.73905e-05
1.46554e-05
4.69959e-05
1.46802e-05
3.19451e-05
5.49567e-05
7.01446e-05
7.0123e-05
5.54343e-05
3.13732e-05
1.63957e-05
1.46553e-05
4.73872e-05
1.468e-05
4.69975e-05
3.19455e-05
5.49553e-05
7.01414e-05
7.01197e-05
5.54328e-05
6.95557e-05
6.95361e-05
6.95575e-05
6.9538e-05
1.90986e-05
6.02069e-05
6.02157e-05
5.99727e-05
5.99813e-05
6.95025e-05
6.95211e-05
6.95044e-05
6.9523e-05
6.94881e-05
6.94711e-05
6.949e-05
6.9473e-05
6.02537e-05
6.02614e-05
1.96497e-05
6.04852e-05
6.04933e-05
6.94405e-05
6.94575e-05
6.94424e-05
6.94594e-05
1.98111e-05
6.07429e-05
6.07501e-05
6.05287e-05
6.05367e-05
5.59553e-05
7.01445e-05
5.55214e-05
7.01655e-05
3.27732e-05
3.0443e-05
1.46374e-05
1.65909e-05
2.11843e-05
4.79249e-05
1.46211e-05
3.27736e-05
3.04509e-05
1.46373e-05
1.65914e-05
2.11838e-05
4.79259e-05
1.46211e-05
5.60378e-05
7.01904e-05
7.01713e-05
5.64354e-05
5.60364e-05
7.01874e-05
7.01684e-05
5.64339e-05
3.30351e-05
1.66677e-05
4.84353e-05
1.46045e-05
4.80633e-05
1.46122e-05
3.35902e-05
3.30331e-05
1.66683e-05
4.84365e-05
1.46045e-05
4.80658e-05
1.46122e-05
3.35906e-05
6.02618e-05
6.02548e-05
1.96506e-05
6.04896e-05
6.0484e-05
6.94883e-05
6.94711e-05
6.94421e-05
6.94589e-05
1.98123e-05
6.07478e-05
6.07409e-05
6.05329e-05
6.05273e-05
6.94404e-05
6.94574e-05
3.27753e-05
3.04488e-05
1.46375e-05
1.65913e-05
2.11854e-05
4.79273e-05
1.46213e-05
5.5956e-05
7.01452e-05
5.55219e-05
7.01659e-05
3.27761e-05
1.46374e-05
2.45707e-05
1.65917e-05
2.11845e-05
1.46212e-05
4.79241e-05
5.60381e-05
7.01921e-05
7.01729e-05
5.64353e-05
3.30345e-05
1.66676e-05
4.84375e-05
1.46047e-05
4.80669e-05
1.46124e-05
3.35917e-05
5.60368e-05
7.01882e-05
7.01688e-05
5.6434e-05
3.30328e-05
1.66683e-05
1.46046e-05
4.8437e-05
1.46123e-05
4.80648e-05
3.35922e-05
5.59567e-05
7.01479e-05
5.55232e-05
7.01687e-05
3.27771e-05
1.46374e-05
4.75395e-05
1.65915e-05
3.22089e-05
1.46212e-05
4.79227e-05
5.59556e-05
7.01448e-05
5.55217e-05
7.01658e-05
3.3032e-05
1.66676e-05
4.84339e-05
1.46048e-05
4.80638e-05
1.46125e-05
3.35944e-05
5.60378e-05
7.01907e-05
7.01716e-05
5.64366e-05
3.30305e-05
1.66681e-05
1.46046e-05
4.84316e-05
1.46123e-05
4.80657e-05
3.35948e-05
5.60366e-05
7.01876e-05
7.01687e-05
5.64352e-05
6.02641e-05
6.02584e-05
1.96508e-05
6.04891e-05
6.04839e-05
6.94889e-05
6.94715e-05
6.94427e-05
6.94592e-05
1.98116e-05
6.0751e-05
6.07455e-05
6.05323e-05
6.05272e-05
6.94414e-05
6.9458e-05
3.2775e-05
1.46378e-05
3.04495e-05
1.6592e-05
2.11844e-05
1.46216e-05
4.79274e-05
5.59572e-05
7.01482e-05
5.55232e-05
7.01689e-05
5.59562e-05
7.01458e-05
5.55218e-05
7.01669e-05
3.30353e-05
1.66677e-05
1.4605e-05
4.8435e-05
1.46126e-05
4.80629e-05
3.35915e-05
3.3034e-05
1.66683e-05
1.4605e-05
4.8436e-05
1.46127e-05
4.80679e-05
3.35918e-05
5.60382e-05
7.01912e-05
7.01718e-05
5.64356e-05
5.60372e-05
7.01886e-05
7.01698e-05
5.64345e-05
6.94885e-05
6.94713e-05
6.94905e-05
6.94733e-05
1.9813e-05
6.07382e-05
6.07468e-05
6.05274e-05
6.05359e-05
6.94404e-05
6.94575e-05
6.94424e-05
6.94595e-05
6.94272e-05
6.94115e-05
6.94291e-05
6.94135e-05
6.07824e-05
6.07899e-05
2.04681e-05
6.09848e-05
6.09924e-05
6.93843e-05
6.9399e-05
6.93862e-05
6.94009e-05
2.06464e-05
6.12192e-05
6.12263e-05
6.10234e-05
6.10309e-05
5.68713e-05
7.01902e-05
5.65081e-05
7.02085e-05
3.43886e-05
4.85625e-05
1.46047e-05
1.69282e-05
3.3841e-05
4.89212e-05
1.46071e-05
3.4389e-05
4.85638e-05
1.46047e-05
1.69287e-05
3.3839e-05
4.89222e-05
1.46071e-05
5.694e-05
7.02307e-05
7.02136e-05
5.72722e-05
5.69386e-05
7.02277e-05
7.02109e-05
5.72708e-05
3.46268e-05
1.70257e-05
4.93884e-05
1.46245e-05
4.90389e-05
1.4613e-05
3.51646e-05
3.46248e-05
1.70264e-05
4.93902e-05
1.46243e-05
4.90422e-05
1.4613e-05
3.5165e-05
6.07874e-05
6.07804e-05
2.04679e-05
6.099e-05
6.0984e-05
6.94272e-05
6.94117e-05
6.93858e-05
6.94007e-05
2.06469e-05
6.12245e-05
6.12179e-05
6.10291e-05
6.10231e-05
6.93841e-05
6.93991e-05
3.43908e-05
4.8566e-05
1.46049e-05
1.69282e-05
3.38404e-05
4.89236e-05
1.46073e-05
5.68726e-05
7.01909e-05
5.65083e-05
7.02089e-05
3.43913e-05
1.46048e-05
4.85678e-05
1.69293e-05
3.38387e-05
1.46072e-05
4.89213e-05
5.69407e-05
7.02323e-05
7.02152e-05
5.72721e-05
3.46267e-05
1.70253e-05
4.93907e-05
1.46247e-05
4.90421e-05
1.46133e-05
3.51661e-05
5.69396e-05
7.02284e-05
7.02113e-05
5.72709e-05
3.46252e-05
1.70263e-05
1.46245e-05
4.93886e-05
1.46132e-05
4.90415e-05
3.51664e-05
5.68725e-05
7.01934e-05
5.65105e-05
7.02115e-05
3.43918e-05
1.46048e-05
4.85616e-05
1.69285e-05
3.38373e-05
1.46072e-05
4.8918e-05
5.68712e-05
7.01903e-05
5.65091e-05
7.02087e-05
3.46236e-05
1.70254e-05
4.93878e-05
1.46245e-05
4.90405e-05
1.46133e-05
3.51684e-05
5.69395e-05
7.02309e-05
7.02139e-05
5.72734e-05
3.46221e-05
1.70265e-05
1.46244e-05
4.93868e-05
1.46132e-05
4.90412e-05
3.51688e-05
5.69383e-05
7.02281e-05
7.02112e-05
5.72722e-05
6.07912e-05
6.07858e-05
2.04694e-05
6.099e-05
6.09848e-05
6.94281e-05
6.9412e-05
6.93862e-05
6.94007e-05
2.06474e-05
6.12251e-05
6.12199e-05
6.10279e-05
6.10227e-05
6.9385e-05
6.93994e-05
3.43901e-05
1.46052e-05
4.85636e-05
1.69288e-05
3.384e-05
1.46076e-05
4.89226e-05
5.68735e-05
7.01939e-05
5.651e-05
7.02117e-05
5.68722e-05
7.01914e-05
5.65087e-05
7.02098e-05
3.46272e-05
1.70255e-05
1.46248e-05
4.9387e-05
1.46136e-05
4.90396e-05
3.51659e-05
3.46256e-05
1.70265e-05
1.46248e-05
4.9391e-05
1.46136e-05
4.90435e-05
3.51662e-05
5.69405e-05
7.02313e-05
7.02141e-05
5.72724e-05
5.69393e-05
7.02292e-05
7.02123e-05
5.72715e-05
6.94272e-05
6.94119e-05
6.94293e-05
6.94139e-05
2.06475e-05
6.12171e-05
6.12255e-05
6.10224e-05
6.10309e-05
6.93843e-05
6.93993e-05
6.93863e-05
6.94014e-05
6.93722e-05
6.9358e-05
6.9374e-05
6.93599e-05
6.12556e-05
6.1263e-05
2.13623e-05
6.14394e-05
6.14465e-05
6.93334e-05
6.93463e-05
6.93353e-05
6.93482e-05
2.15563e-05
6.1649e-05
6.16562e-05
6.14734e-05
6.14806e-05
5.7641e-05
7.023e-05
5.73329e-05
7.02464e-05
3.59205e-05
4.94979e-05
1.46398e-05
1.73489e-05
3.53907e-05
4.98352e-05
1.46597e-05
3.59205e-05
4.94985e-05
1.46399e-05
1.73489e-05
3.53888e-05
4.98345e-05
1.46596e-05
5.76993e-05
7.02661e-05
7.0251e-05
5.79804e-05
5.76978e-05
7.02634e-05
7.02484e-05
5.7979e-05
3.61334e-05
1.74667e-05
5.02615e-05
1.47124e-05
4.99346e-05
1.46839e-05
3.66495e-05
3.61314e-05
1.74673e-05
5.02647e-05
1.47122e-05
4.99364e-05
1.46839e-05
3.66497e-05
6.126e-05
6.12533e-05
2.13613e-05
6.14421e-05
6.1436e-05
6.93718e-05
6.9358e-05
6.93352e-05
6.93482e-05
2.15556e-05
6.16568e-05
6.16505e-05
6.14777e-05
6.14714e-05
6.93335e-05
6.93465e-05
3.5922e-05
4.95009e-05
1.46401e-05
1.73487e-05
3.53902e-05
4.98376e-05
1.46599e-05
5.76415e-05
7.02307e-05
5.73329e-05
7.02469e-05
3.59221e-05
1.464e-05
4.95017e-05
1.73499e-05
3.53887e-05
1.46598e-05
4.98354e-05
5.76996e-05
7.02678e-05
7.02528e-05
5.79807e-05
3.61333e-05
1.7466e-05
5.02643e-05
1.47126e-05
4.99374e-05
1.46842e-05
3.66511e-05
5.76982e-05
7.0264e-05
7.02489e-05
5.79795e-05
3.61318e-05
1.74676e-05
1.47125e-05
5.0261e-05
1.46841e-05
4.99381e-05
3.66509e-05
5.76429e-05
7.02332e-05
5.73355e-05
7.02494e-05
3.59236e-05
1.46401e-05
4.94979e-05
1.73491e-05
3.53878e-05
1.46599e-05
4.98306e-05
5.76415e-05
7.02304e-05
5.73343e-05
7.02465e-05
3.61309e-05
1.7466e-05
5.02625e-05
1.47126e-05
4.99352e-05
1.46841e-05
3.66524e-05
5.76992e-05
7.02663e-05
7.02514e-05
5.79807e-05
3.61294e-05
1.7467e-05
1.47126e-05
5.02609e-05
1.4684e-05
4.99347e-05
3.66525e-05
5.76978e-05
7.02637e-05
7.02486e-05
5.79794e-05
6.12623e-05
6.12572e-05
2.13634e-05
6.14455e-05
6.14406e-05
6.93729e-05
6.93586e-05
6.93352e-05
6.93481e-05
2.15576e-05
6.16541e-05
6.1649e-05
6.14793e-05
6.14743e-05
6.93339e-05
6.93468e-05
3.59217e-05
1.46404e-05
4.94998e-05
1.7349e-05
3.539e-05
1.46603e-05
4.98349e-05
5.7643e-05
7.02336e-05
5.73346e-05
7.02497e-05
5.76418e-05
7.02314e-05
5.73337e-05
7.02477e-05
3.6134e-05
1.74664e-05
1.47131e-05
5.02599e-05
1.46845e-05
4.99367e-05
3.66506e-05
3.61323e-05
1.74668e-05
1.4713e-05
5.02649e-05
1.46843e-05
4.9937e-05
3.66505e-05
5.76996e-05
7.02666e-05
7.02516e-05
5.79803e-05
5.76983e-05
7.02647e-05
7.02497e-05
5.79792e-05
6.93719e-05
6.93581e-05
6.9374e-05
6.93602e-05
2.15567e-05
6.16491e-05
6.16575e-05
6.14695e-05
6.14779e-05
6.93337e-05
6.93466e-05
6.93358e-05
6.93487e-05
6.93224e-05
6.93103e-05
6.93243e-05
6.93122e-05
6.16825e-05
6.16898e-05
2.23186e-05
6.18524e-05
6.18595e-05
6.92883e-05
6.92996e-05
6.92902e-05
6.93014e-05
2.2526e-05
6.20429e-05
6.20498e-05
6.18835e-05
6.18907e-05
5.82941e-05
7.02653e-05
5.80311e-05
7.02802e-05
3.73553e-05
5.0354e-05
1.4745e-05
1.78493e-05
3.6849e-05
5.06732e-05
1.47823e-05
3.73551e-05
5.03558e-05
1.4745e-05
1.78495e-05
3.68473e-05
5.06719e-05
1.47821e-05
5.83444e-05
7.02986e-05
7.02848e-05
5.85882e-05
5.83429e-05
7.02959e-05
7.02821e-05
5.85867e-05
3.75426e-05
1.79862e-05
5.10651e-05
1.48693e-05
5.07568e-05
1.48234e-05
3.80358e-05
3.75406e-05
1.79863e-05
5.10674e-05
1.4869e-05
5.07568e-05
1.48234e-05
3.80357e-05
6.16891e-05
6.16828e-05
2.23187e-05
6.18535e-05
6.18472e-05
6.93221e-05
6.93099e-05
6.92902e-05
6.93012e-05
2.25252e-05
6.20501e-05
6.20439e-05
6.18855e-05
6.18791e-05
6.92884e-05
6.92994e-05
3.73565e-05
5.03567e-05
1.47453e-05
1.78487e-05
3.68491e-05
5.06757e-05
1.47825e-05
5.82947e-05
7.0266e-05
5.80315e-05
7.0281e-05
3.73564e-05
1.47452e-05
5.03571e-05
1.78504e-05
3.68477e-05
1.47825e-05
5.06731e-05
5.83445e-05
7.03003e-05
7.02864e-05
5.85883e-05
3.75428e-05
1.79854e-05
5.10677e-05
1.48694e-05
5.07593e-05
1.48238e-05
3.8037e-05
5.83434e-05
7.02962e-05
7.02827e-05
5.8587e-05
3.75417e-05
1.79872e-05
1.48694e-05
5.10644e-05
1.48238e-05
5.0761e-05
3.80365e-05
5.82965e-05
7.02683e-05
5.80329e-05
7.02832e-05
3.73581e-05
1.47452e-05
5.0355e-05
1.78497e-05
3.68461e-05
1.47824e-05
5.06692e-05
5.82952e-05
7.02656e-05
5.80317e-05
7.02805e-05
3.75408e-05
1.79848e-05
5.10655e-05
1.48693e-05
5.07559e-05
1.48238e-05
3.80382e-05
5.83448e-05
7.02988e-05
7.0285e-05
5.85885e-05
3.75395e-05
1.79868e-05
1.48693e-05
5.1064e-05
1.48238e-05
5.07558e-05
3.80381e-05
5.83436e-05
7.02962e-05
7.02823e-05
5.85872e-05
6.16879e-05
6.16829e-05
2.23194e-05
6.18585e-05
6.18535e-05
6.93229e-05
6.93109e-05
6.92901e-05
6.93014e-05
2.2527e-05
6.20483e-05
6.20437e-05
6.18898e-05
6.18848e-05
6.92888e-05
6.93001e-05
3.73564e-05
1.47456e-05
5.0357e-05
1.78493e-05
3.68481e-05
1.47827e-05
5.0673e-05
5.82962e-05
7.02686e-05
5.80325e-05
7.02837e-05
5.82951e-05
7.02667e-05
5.80315e-05
7.02817e-05
3.75434e-05
1.79859e-05
1.48699e-05
5.10642e-05
1.48243e-05
5.07594e-05
3.80372e-05
3.75419e-05
1.79864e-05
1.48697e-05
5.10677e-05
1.48242e-05
5.07583e-05
3.80369e-05
5.8345e-05
7.0299e-05
7.02854e-05
5.85886e-05
5.83438e-05
7.02973e-05
7.02835e-05
5.85875e-05
6.93223e-05
6.93101e-05
6.93244e-05
6.93122e-05
2.25275e-05
6.20421e-05
6.20504e-05
6.18783e-05
6.18865e-05
6.92886e-05
6.92995e-05
6.92907e-05
6.93017e-05
6.92783e-05
6.92681e-05
6.92801e-05
6.92701e-05
6.20732e-05
6.20802e-05
2.3324e-05
6.22298e-05
6.22369e-05
6.92491e-05
6.92585e-05
6.92511e-05
6.92604e-05
2.35415e-05
6.24062e-05
6.24135e-05
6.22587e-05
6.22659e-05
5.8858e-05
7.02975e-05
5.86313e-05
7.03113e-05
3.86898e-05
5.11419e-05
1.49189e-05
1.8425e-05
3.82097e-05
5.14435e-05
1.49732e-05
3.86894e-05
5.11439e-05
1.49189e-05
1.84252e-05
3.8208e-05
5.14427e-05
1.4973e-05
5.89016e-05
7.03292e-05
7.03157e-05
5.91164e-05
5.89001e-05
7.03266e-05
7.0313e-05
5.91149e-05
3.88519e-05
1.85803e-05
5.1806e-05
1.50942e-05
5.15139e-05
1.50314e-05
3.93208e-05
3.88501e-05
1.85803e-05
5.18075e-05
1.50939e-05
5.15138e-05
1.50314e-05
3.93203e-05
6.20801e-05
6.20738e-05
2.33248e-05
6.22322e-05
6.22259e-05
6.92782e-05
6.92678e-05
6.92509e-05
6.92601e-05
2.35419e-05
6.24122e-05
6.24066e-05
6.22613e-05
6.2255e-05
6.92491e-05
6.92583e-05
3.86904e-05
5.11443e-05
1.49193e-05
1.84239e-05
3.821e-05
5.14461e-05
1.49734e-05
5.8858e-05
7.02979e-05
5.86314e-05
7.0312e-05
3.86894e-05
1.49193e-05
5.11446e-05
1.84258e-05
3.82088e-05
1.49733e-05
5.1442e-05
5.89017e-05
7.03308e-05
7.03175e-05
5.91166e-05
3.88523e-05
1.85793e-05
5.18088e-05
1.50944e-05
5.15164e-05
1.50318e-05
3.93216e-05
5.89002e-05
7.03272e-05
7.03137e-05
5.91154e-05
3.88511e-05
1.85812e-05
1.50944e-05
5.18058e-05
1.50318e-05
5.1517e-05
3.93207e-05
5.88604e-05
7.03004e-05
5.8633e-05
7.03143e-05
3.86918e-05
1.49193e-05
5.11425e-05
1.84256e-05
3.82072e-05
1.49735e-05
5.14404e-05
5.88591e-05
7.02978e-05
5.86317e-05
7.03116e-05
3.88508e-05
1.85785e-05
5.18065e-05
1.50942e-05
5.1513e-05
1.50317e-05
3.93229e-05
5.89023e-05
7.03294e-05
7.0316e-05
5.9117e-05
3.88496e-05
1.85807e-05
1.50944e-05
5.1805e-05
1.50317e-05
5.15125e-05
3.93224e-05
5.8901e-05
7.03267e-05
7.03133e-05
5.91157e-05
6.20784e-05
6.2074e-05
2.33247e-05
6.22345e-05
6.22299e-05
6.92787e-05
6.92687e-05
6.92511e-05
6.92603e-05
2.35422e-05
6.24127e-05
6.24078e-05
6.2264e-05
6.22592e-05
6.92497e-05
6.9259e-05
3.86903e-05
1.49197e-05
5.1145e-05
1.84247e-05
3.82091e-05
1.49739e-05
5.14435e-05
5.88595e-05
7.03006e-05
5.8633e-05
7.03146e-05
5.88584e-05
7.02989e-05
5.86319e-05
7.03128e-05
3.88524e-05
1.85796e-05
1.50949e-05
5.1806e-05
1.50322e-05
5.15155e-05
3.93221e-05
3.8851e-05
1.85803e-05
1.50947e-05
5.18079e-05
1.50321e-05
5.15151e-05
3.93215e-05
5.89017e-05
7.03298e-05
7.03164e-05
5.91171e-05
5.89005e-05
7.0328e-05
7.03145e-05
5.91157e-05
6.92783e-05
6.9268e-05
6.92805e-05
6.92701e-05
2.35439e-05
6.24045e-05
6.24126e-05
6.22542e-05
6.22621e-05
6.92493e-05
6.92584e-05
6.92515e-05
6.92606e-05
6.924e-05
6.92319e-05
6.92419e-05
6.92338e-05
6.24338e-05
6.2441e-05
2.43652e-05
6.25773e-05
6.25842e-05
6.92232e-05
6.92251e-05
2.45899e-05
6.26044e-05
6.26113e-05
5.93545e-05
7.0328e-05
5.91541e-05
7.03411e-05
3.99264e-05
5.18704e-05
1.51607e-05
1.90715e-05
3.94712e-05
5.21542e-05
1.52318e-05
3.99256e-05
5.18724e-05
1.51607e-05
1.90719e-05
3.94697e-05
5.21538e-05
1.52315e-05
5.93927e-05
7.03454e-05
5.95829e-05
5.93912e-05
7.03563e-05
7.03427e-05
5.95814e-05
4.00655e-05
1.92434e-05
1.53861e-05
5.22143e-05
1.53067e-05
4.05085e-05
4.00641e-05
1.92432e-05
5.24915e-05
1.53857e-05
5.22142e-05
1.53066e-05
4.05073e-05
6.244e-05
6.24341e-05
2.43657e-05
6.25807e-05
6.2574e-05
6.92399e-05
6.92316e-05
6.92178e-05
6.92247e-05
2.45903e-05
6.27485e-05
6.27426e-05
6.26075e-05
6.26006e-05
6.9216e-05
6.92229e-05
3.99267e-05
5.18728e-05
1.51611e-05
1.90698e-05
3.9472e-05
5.21565e-05
1.5232e-05
5.93541e-05
7.03286e-05
5.91547e-05
7.03416e-05
3.99253e-05
1.51611e-05
5.18739e-05
1.90724e-05
3.94714e-05
1.5232e-05
5.2153e-05
5.93924e-05
7.03472e-05
4.00656e-05
1.92426e-05
5.22165e-05
1.5307e-05
5.9391e-05
7.03432e-05
4.00651e-05
1.92445e-05
1.53071e-05
5.22168e-05
5.93563e-05
7.03309e-05
5.9156e-05
7.0344e-05
3.99269e-05
1.51611e-05
5.18704e-05
1.90723e-05
3.94695e-05
1.5232e-05
5.2152e-05
5.9355e-05
7.03282e-05
5.91547e-05
7.03414e-05
4.00645e-05
1.92411e-05
5.2491e-05
1.53861e-05
5.22128e-05
1.53071e-05
4.05097e-05
5.93928e-05
7.03594e-05
7.03457e-05
5.95837e-05
4.00637e-05
1.92437e-05
1.53863e-05
5.24895e-05
1.53071e-05
5.22125e-05
4.05088e-05
5.93915e-05
7.03567e-05
7.0343e-05
5.95824e-05
6.24402e-05
6.24354e-05
2.43665e-05
6.25819e-05
6.25774e-05
6.92405e-05
6.92324e-05
6.92248e-05
2.4591e-05
6.26091e-05
6.26046e-05
6.92237e-05
3.99268e-05
1.51616e-05
5.18735e-05
1.90707e-05
3.94708e-05
1.52324e-05
5.21549e-05
5.93561e-05
7.03312e-05
5.91562e-05
7.03443e-05
5.93551e-05
7.03295e-05
5.91549e-05
7.03427e-05
4.00662e-05
1.92427e-05
1.5387e-05
1.53077e-05
5.22153e-05
4.05096e-05
4.00649e-05
1.92435e-05
1.53869e-05
5.24923e-05
1.53075e-05
5.22157e-05
4.05091e-05
5.93928e-05
7.03459e-05
5.95834e-05
5.93917e-05
7.03579e-05
7.03443e-05
5.95823e-05
6.92401e-05
6.92319e-05
6.92423e-05
6.9234e-05
2.45925e-05
6.2741e-05
6.27484e-05
6.26003e-05
6.26083e-05
6.92162e-05
6.92231e-05
6.92183e-05
6.92253e-05
6.95544e-05
6.95396e-05
8.79139e-05
7.23296e-05
7.23235e-05
7.23361e-05
7.23303e-05
8.79479e-05
5.81938e-05
4.04892e-05
5.97756e-05
6.89385e-05
4.07101e-05
6.89625e-05
5.80186e-05
5.82598e-05
4.05068e-05
5.97844e-05
6.89501e-05
6.89741e-05
5.80846e-05
4.07294e-05
5.82822e-05
6.89915e-05
5.98253e-05
4.10731e-05
4.08631e-05
6.89712e-05
5.84315e-05
5.83485e-05
6.90032e-05
5.9834e-05
4.10922e-05
6.89828e-05
5.84972e-05
4.08806e-05
8.78921e-05
7.23632e-05
7.23575e-05
7.23595e-05
7.23535e-05
8.78071e-05
6.99183e-05
5.57861e-05
6.93389e-05
6.13112e-05
6.93244e-05
6.11854e-05
6.99248e-05
7.08248e-05
7.46927e-05
7.01564e-05
7.47418e-05
7.08266e-05
6.99177e-05
5.57013e-05
6.93041e-05
6.09932e-05
6.93192e-05
6.11243e-05
6.99107e-05
7.08058e-05
7.48054e-05
7.01596e-05
7.47588e-05
7.08039e-05
6.9488e-05
6.94742e-05
6.99183e-05
5.57867e-05
6.13109e-05
6.9339e-05
6.11852e-05
6.93245e-05
6.99248e-05
7.08251e-05
7.46934e-05
7.01581e-05
7.47428e-05
7.0827e-05
6.99178e-05
5.57018e-05
6.09929e-05
6.93042e-05
6.11241e-05
6.93193e-05
6.99107e-05
7.08062e-05
7.48064e-05
7.01613e-05
7.47597e-05
7.08042e-05
6.94883e-05
6.94744e-05
8.82157e-05
7.22532e-05
7.2247e-05
7.22555e-05
7.22498e-05
8.8294e-05
5.91293e-05
4.18987e-05
6.90609e-05
6.03465e-05
5.89631e-05
4.21084e-05
6.90839e-05
5.9195e-05
4.19155e-05
6.90726e-05
6.03553e-05
5.90283e-05
4.21276e-05
6.90956e-05
8.81768e-05
7.22701e-05
7.22645e-05
8.80852e-05
7.22703e-05
7.22642e-05
5.92224e-05
6.91142e-05
6.03918e-05
4.24596e-05
4.22506e-05
6.90931e-05
5.93786e-05
5.92875e-05
6.91259e-05
6.04005e-05
4.24787e-05
4.22673e-05
6.91048e-05
5.9444e-05
6.99402e-05
5.67299e-05
6.94074e-05
6.1984e-05
6.93959e-05
6.18774e-05
6.99447e-05
7.07409e-05
7.49339e-05
7.02009e-05
7.07428e-05
7.4974e-05
6.99409e-05
5.66593e-05
6.93797e-05
6.17151e-05
6.99359e-05
6.9392e-05
6.18264e-05
7.0722e-05
7.50248e-05
7.02035e-05
7.49868e-05
7.072e-05
6.94273e-05
6.94145e-05
6.99402e-05
5.67306e-05
6.1984e-05
6.94076e-05
6.18773e-05
6.9396e-05
6.99447e-05
7.07413e-05
7.49347e-05
7.02027e-05
7.07433e-05
7.49752e-05
6.99409e-05
5.66598e-05
6.17145e-05
6.93798e-05
6.9936e-05
6.18262e-05
6.93921e-05
7.07224e-05
7.5026e-05
7.02052e-05
7.4988e-05
7.07203e-05
6.94278e-05
6.94146e-05
8.84856e-05
7.21757e-05
7.21696e-05
7.21753e-05
7.21695e-05
8.85635e-05
5.99879e-05
4.32288e-05
6.9173e-05
6.08598e-05
5.98544e-05
4.3423e-05
6.91925e-05
6.00528e-05
4.32447e-05
6.91847e-05
6.08684e-05
5.99192e-05
4.34418e-05
6.92042e-05
8.84549e-05
7.21887e-05
7.21828e-05
8.8409e-05
7.21883e-05
7.2182e-05
6.0069e-05
6.92216e-05
6.08998e-05
4.37481e-05
4.35481e-05
6.9201e-05
6.02205e-05
6.01325e-05
6.92333e-05
6.09083e-05
4.37668e-05
4.35639e-05
6.92128e-05
6.02852e-05
6.99501e-05
5.75208e-05
6.94587e-05
6.25566e-05
6.945e-05
6.24645e-05
6.99532e-05
7.0658e-05
7.51285e-05
7.02401e-05
7.06599e-05
7.51624e-05
6.99521e-05
5.74612e-05
6.94381e-05
6.23253e-05
6.99486e-05
6.94475e-05
6.24211e-05
7.06395e-05
7.52046e-05
7.02422e-05
7.51725e-05
7.06376e-05
6.93724e-05
6.93605e-05
6.99502e-05
5.75209e-05
6.25563e-05
6.94588e-05
6.24638e-05
6.94501e-05
6.99533e-05
7.06584e-05
7.51287e-05
7.02418e-05
7.06603e-05
7.51632e-05
6.99521e-05
5.74611e-05
6.23243e-05
6.94381e-05
6.99486e-05
6.24203e-05
6.94476e-05
7.06399e-05
7.52059e-05
7.0244e-05
7.51733e-05
7.06379e-05
6.9373e-05
6.93609e-05
8.8751e-05
7.21027e-05
7.20965e-05
7.21019e-05
7.2096e-05
8.8803e-05
6.07962e-05
4.44764e-05
6.92765e-05
6.13253e-05
6.06829e-05
4.46581e-05
6.92927e-05
6.08604e-05
4.44918e-05
6.92882e-05
6.13337e-05
6.07469e-05
4.46761e-05
6.93044e-05
8.87356e-05
7.21179e-05
7.21121e-05
8.87174e-05
7.21161e-05
7.21098e-05
6.08565e-05
6.93178e-05
6.13604e-05
4.49512e-05
4.47646e-05
6.92997e-05
6.09815e-05
6.09202e-05
6.93295e-05
6.13687e-05
4.4969e-05
4.47799e-05
6.93114e-05
6.10451e-05
6.99501e-05
5.81909e-05
6.94934e-05
6.30478e-05
6.94872e-05
6.29671e-05
6.99521e-05
7.05771e-05
7.52874e-05
7.02747e-05
7.05788e-05
7.5316e-05
6.99531e-05
5.81402e-05
6.94793e-05
6.28475e-05
6.99508e-05
6.9486e-05
6.293e-05
7.05593e-05
7.53524e-05
7.02766e-05
7.53241e-05
7.05576e-05
6.93231e-05
6.93122e-05
6.99502e-05
5.8191e-05
6.30469e-05
6.94935e-05
6.29663e-05
6.94873e-05
6.99522e-05
7.05774e-05
7.52882e-05
7.02763e-05
7.05791e-05
7.53167e-05
6.99531e-05
5.81405e-05
6.28469e-05
6.94794e-05
6.99509e-05
6.29294e-05
6.94861e-05
7.05596e-05
7.53528e-05
7.02782e-05
7.53245e-05
7.05579e-05
6.93237e-05
6.93127e-05
8.90227e-05
7.20382e-05
7.20319e-05
7.20386e-05
7.20328e-05
8.90505e-05
6.15458e-05
4.56386e-05
6.93722e-05
6.17488e-05
6.14358e-05
4.58143e-05
6.9387e-05
6.16091e-05
4.56537e-05
6.93838e-05
6.1757e-05
6.1499e-05
4.58314e-05
6.93986e-05
8.9016e-05
7.20573e-05
7.20515e-05
8.89951e-05
7.20548e-05
7.20486e-05
6.15992e-05
6.94083e-05
6.17804e-05
4.60831e-05
4.59087e-05
6.93929e-05
6.17061e-05
6.1662e-05
6.94199e-05
6.17885e-05
4.60999e-05
4.59237e-05
6.94045e-05
6.17688e-05
6.99426e-05
5.87689e-05
6.95143e-05
6.34753e-05
6.95103e-05
6.34048e-05
6.99438e-05
7.04995e-05
7.54219e-05
7.03063e-05
7.0501e-05
7.54455e-05
6.99463e-05
5.87257e-05
6.95057e-05
6.33015e-05
6.9945e-05
6.95101e-05
6.33732e-05
7.04823e-05
7.54756e-05
7.03079e-05
7.54514e-05
7.0481e-05
6.92797e-05
6.92697e-05
6.99427e-05
5.87689e-05
6.34748e-05
6.95144e-05
6.34043e-05
6.95104e-05
6.99438e-05
7.04999e-05
7.54229e-05
7.0308e-05
7.05014e-05
7.54469e-05
6.99464e-05
5.87258e-05
6.33009e-05
6.95058e-05
6.99451e-05
6.33727e-05
6.95102e-05
7.04827e-05
7.5477e-05
7.03097e-05
7.54527e-05
7.04813e-05
6.92798e-05
6.927e-05
8.92613e-05
7.19843e-05
7.1978e-05
7.19847e-05
7.19789e-05
8.92925e-05
6.22201e-05
4.67154e-05
6.94595e-05
6.21349e-05
6.21097e-05
4.68855e-05
6.94745e-05
6.22822e-05
4.67304e-05
6.94711e-05
6.2143e-05
6.21717e-05
4.69015e-05
6.9486e-05
8.925e-05
7.20001e-05
7.19943e-05
8.92139e-05
7.19991e-05
7.19928e-05
6.22724e-05
6.94948e-05
6.21641e-05
4.71403e-05
4.69734e-05
6.94801e-05
6.23759e-05
6.23342e-05
6.95062e-05
6.21721e-05
4.7156e-05
4.69883e-05
6.94916e-05
6.24377e-05
6.993e-05
5.9276e-05
6.95246e-05
6.38548e-05
6.95219e-05
6.37924e-05
6.99305e-05
7.04265e-05
7.55379e-05
7.03365e-05
7.04277e-05
7.55588e-05
6.99342e-05
5.92382e-05
6.95199e-05
6.37006e-05
6.99335e-05
6.95229e-05
6.37648e-05
7.04099e-05
7.55836e-05
7.0338e-05
7.55631e-05
7.04089e-05
6.9242e-05
6.9233e-05
6.993e-05
5.92759e-05
6.38539e-05
6.95247e-05
6.37913e-05
6.95221e-05
6.99306e-05
7.04268e-05
7.55381e-05
7.03381e-05
7.0428e-05
7.55592e-05
6.99343e-05
5.92381e-05
6.36997e-05
6.952e-05
6.99336e-05
6.37639e-05
6.9523e-05
7.04104e-05
7.55847e-05
7.03397e-05
7.55635e-05
7.04094e-05
6.92422e-05
6.92331e-05
8.94584e-05
7.19332e-05
7.19268e-05
7.1933e-05
7.1927e-05
8.94875e-05
6.28388e-05
4.7727e-05
6.95417e-05
6.24903e-05
6.27385e-05
4.78869e-05
6.95559e-05
6.29e-05
4.77416e-05
6.95532e-05
6.24984e-05
6.27996e-05
4.7902e-05
6.95673e-05
8.94481e-05
7.19461e-05
7.19402e-05
8.94174e-05
7.19456e-05
7.19392e-05
6.28869e-05
6.95755e-05
6.25171e-05
4.8125e-05
4.79683e-05
6.95613e-05
6.29831e-05
6.29478e-05
6.95869e-05
6.25253e-05
4.814e-05
4.79832e-05
6.95728e-05
6.3044e-05
8.78663e-05
7.23268e-05
7.23325e-05
7.23304e-05
7.23362e-05
8.7945e-05
5.82287e-05
4.04966e-05
5.97804e-05
6.89459e-05
6.89709e-05
5.80494e-05
4.0716e-05
5.81651e-05
4.04789e-05
5.97733e-05
6.8935e-05
4.07e-05
6.896e-05
5.79839e-05
5.83255e-05
6.90038e-05
5.98302e-05
4.10843e-05
6.89809e-05
5.84922e-05
4.08683e-05
5.82602e-05
6.8993e-05
5.98233e-05
4.10687e-05
4.08511e-05
6.89701e-05
5.84281e-05
8.78205e-05
7.23465e-05
7.23523e-05
7.23459e-05
7.23516e-05
8.77246e-05
6.9553e-05
6.95382e-05
6.9506e-05
6.95205e-05
8.80123e-05
7.23062e-05
7.23121e-05
8.79675e-05
7.23016e-05
7.23073e-05
5.88025e-05
4.1783e-05
6.01228e-05
6.90631e-05
6.90421e-05
5.89513e-05
4.15772e-05
5.8739e-05
4.17669e-05
6.0117e-05
6.90522e-05
6.90313e-05
4.15599e-05
5.88883e-05
5.8727e-05
6.90126e-05
4.12295e-05
6.00769e-05
5.85745e-05
6.90335e-05
4.14395e-05
5.86637e-05
6.90018e-05
4.12126e-05
6.00715e-05
5.85098e-05
6.90227e-05
4.14237e-05
8.80269e-05
7.22786e-05
7.22843e-05
7.22813e-05
7.22872e-05
8.8068e-05
6.95045e-05
6.95191e-05
6.98831e-05
6.05122e-05
6.9255e-05
5.46542e-05
6.03631e-05
6.92385e-05
6.98917e-05
7.09082e-05
7.01061e-05
7.43906e-05
7.44511e-05
7.09095e-05
7.08887e-05
7.45299e-05
7.01098e-05
7.44734e-05
7.08873e-05
6.98816e-05
5.4552e-05
6.01337e-05
6.92156e-05
6.02898e-05
6.92323e-05
6.98725e-05
6.98819e-05
6.92544e-05
6.05085e-05
5.46529e-05
6.92379e-05
6.03594e-05
6.98904e-05
7.0907e-05
7.0103e-05
7.43748e-05
7.44361e-05