/*--------------------------------*- C++ -*----------------------------------*\
| =========                 |                                                 |
| \\      /  F ield         | OpenFOAM: The Open Source CFD Toolbox           |
|  \\    /   O peration     | Version:  v2006                                 |
|   \\  /    A nd           | Website:  www.openfoam.com                      |
|    \\/     M anipulation  |                                                 |
\*---------------------------------------------------------------------------*/
FoamFile
{
    version     2.0;
    format      ascii;
    class       volScalarField;
    location    "250";
    object      nut;
}
// * * * * * * * * * * * * * * * * * * * * * * * * * * * * * * * * * * * * * //

dimensions      [0 2 -1 0 0 0 0];


internalField   nonuniform List<scalar> 
171728
(
9.88888e-05
8.20773e-05
0.000142048
9.65796e-05
9.65776e-05
8.21428e-05
0.00013812
9.4789e-05
9.479e-05
8.26904e-05
0.000134295
9.35161e-05
9.35177e-05
8.36702e-05
0.000130632
9.27483e-05
9.27458e-05
8.50225e-05
0.000127156
9.24642e-05
9.24634e-05
8.66918e-05
0.000123902
9.26376e-05
9.26388e-05
8.86389e-05
8.20961e-05
8.22098e-05
9.88591e-05
9.71044e-05
9.70748e-05
8.22061e-05
8.21621e-05
8.26544e-05
9.65517e-05
9.65414e-05
9.5163e-05
9.51478e-05
8.21521e-05
8.26508e-05
9.65699e-05
9.65401e-05
9.51873e-05
9.5152e-05
9.65477e-05
9.5185e-05
9.51593e-05
8.21594e-05
8.26452e-05
9.65679e-05
9.51873e-05
9.51846e-05
8.26491e-05
8.27021e-05
8.35332e-05
9.47665e-05
9.47528e-05
9.37612e-05
9.37482e-05
8.26942e-05
8.35363e-05
9.4785e-05
9.47548e-05
9.37863e-05
9.37491e-05
9.47584e-05
9.37829e-05
9.37591e-05
8.2697e-05
8.35253e-05
9.47777e-05
9.37823e-05
9.37839e-05
8.35363e-05
8.3668e-05
8.48115e-05
9.34935e-05
9.34817e-05
9.28651e-05
9.28579e-05
8.36677e-05
8.48151e-05
9.35113e-05
9.3483e-05
9.28906e-05
9.28572e-05
9.34919e-05
9.28914e-05
9.28686e-05
8.36604e-05
8.48105e-05
9.35096e-05
9.28906e-05
9.28933e-05
8.48094e-05
8.50168e-05
8.64287e-05
9.27257e-05
9.27164e-05
9.24657e-05
9.24546e-05
8.5026e-05
8.64192e-05
9.27426e-05
9.2713e-05
9.24909e-05
9.24591e-05
9.27259e-05
9.24855e-05
9.24628e-05
8.50141e-05
8.64288e-05
9.27418e-05
9.24897e-05
9.2487e-05
8.64191e-05
8.66965e-05
8.83182e-05
9.24427e-05
9.24343e-05
9.25299e-05
9.25213e-05
8.66945e-05
8.83109e-05
9.24579e-05
9.24318e-05
9.25549e-05
9.25253e-05
9.24432e-05
9.25513e-05
9.25305e-05
8.66964e-05
8.83167e-05
9.24572e-05
9.25546e-05
9.25534e-05
8.83131e-05
8.86415e-05
9.26177e-05
9.26094e-05
9.30173e-05
8.86373e-05
9.04144e-05
9.26314e-05
9.26087e-05
9.26204e-05
9.3045e-05
9.30246e-05
8.86422e-05
9.26326e-05
9.30469e-05
9.04167e-05
2.36157e-05
2.36124e-05
7.00588e-05
6.76674e-05
0.000122223
9.82604e-05
6.83727e-05
0.000121257
6.90277e-05
6.20255e-05
6.2024e-05
8.20545e-05
6.24396e-05
6.24377e-05
7.38085e-05
4.95938e-05
7.30557e-05
4.96012e-05
2.36044e-05
2.36014e-05
7.38021e-05
4.95894e-05
7.30567e-05
4.95968e-05
0.000186672
0.0001664
0.000186668
0.000139073
0.000139065
0.000139065
0.000139066
7.30728e-05
6.94617e-05
0.000118524
9.60779e-05
7.19856e-05
7.01441e-05
0.000117621
2.3603e-05
2.36001e-05
7.30631e-05
0.000118524
7.33287e-05
9.60755e-05
7.42504e-05
0.000117622
7.01387e-05
6.28966e-05
6.28948e-05
8.23528e-05
6.32796e-05
6.32775e-05
7.53478e-05
4.96099e-05
7.46779e-05
4.96163e-05
2.3594e-05
2.35914e-05
7.53421e-05
4.96056e-05
7.46814e-05
4.9612e-05
0.000138118
0.000138111
0.000138111
0.000135238
0.00013522
0.000135227
0.000135228
7.60773e-05
7.11545e-05
0.000115123
9.44192e-05
7.49559e-05
7.18162e-05
0.000114319
2.35927e-05
2.359e-05
7.607e-05
0.000115123
7.11639e-05
9.44205e-05
7.49637e-05
0.000114319
7.1814e-05
6.37064e-05
6.3704e-05
8.30268e-05
6.40507e-05
6.40484e-05
7.67144e-05
4.9624e-05
7.61119e-05
4.96297e-05
2.35846e-05
2.35822e-05
7.67072e-05
4.96196e-05
7.61149e-05
4.96254e-05
0.000134304
0.000134289
0.000134289
0.00013153
0.000131511
0.000131522
0.000131524
7.90231e-05
7.27492e-05
0.000112031
9.32699e-05
7.78783e-05
7.33928e-05
0.000111316
2.35833e-05
2.35809e-05
7.90145e-05
0.00011203
7.27546e-05
9.32766e-05
7.78842e-05
0.000111318
7.33959e-05
6.44572e-05
6.44545e-05
8.41233e-05
6.47671e-05
6.47644e-05
7.79367e-05
4.96364e-05
7.73948e-05
4.96417e-05
2.35762e-05
2.35741e-05
7.79294e-05
4.96321e-05
7.73988e-05
4.96373e-05
0.000130644
0.000130624
0.000130626
0.000128002
0.000127977
0.000127994
0.000127994
8.187e-05
7.42536e-05
0.00010932
9.26283e-05
8.07207e-05
7.48799e-05
0.000108707
2.35748e-05
2.35728e-05
8.18622e-05
0.000109321
7.42528e-05
9.26333e-05
8.07268e-05
0.000108708
7.48828e-05
6.51511e-05
6.51482e-05
8.55846e-05
6.54378e-05
6.54345e-05
7.9045e-05
4.96478e-05
7.85572e-05
4.96527e-05
2.35687e-05
2.35669e-05
7.90394e-05
4.96434e-05
7.85598e-05
4.96483e-05
0.000127172
0.000127147
0.00012715
0.000124687
0.000124657
0.000124681
0.00012468
8.46059e-05
7.56716e-05
0.000107017
9.24611e-05
8.34672e-05
7.62837e-05
0.000106508
2.35673e-05
2.35656e-05
8.45984e-05
0.000107019
7.5671e-05
9.24646e-05
8.34734e-05
0.00010651
7.62833e-05
6.57939e-05
6.57909e-05
8.73372e-05
6.60646e-05
6.60607e-05
8.00645e-05
4.96586e-05
7.96182e-05
4.96632e-05
2.35622e-05
2.35608e-05
8.00605e-05
4.96542e-05
7.96186e-05
4.96588e-05
0.000123924
0.000123893
0.000123897
0.000121599
0.000121629
8.72268e-05
7.70158e-05
0.000105141
9.27431e-05
8.61023e-05
7.76069e-05
0.000104741
2.35608e-05
2.35594e-05
8.72237e-05
0.000105144
7.70153e-05
9.27476e-05
8.61072e-05
0.000104743
7.76074e-05
6.63966e-05
6.63932e-05
8.93428e-05
6.66497e-05
6.6646e-05
6.2022e-05
6.20263e-05
8.20605e-05
6.24347e-05
6.24397e-05
2.36166e-05
2.36134e-05
2.36068e-05
2.36099e-05
8.21742e-05
6.28606e-05
6.28643e-05
6.24749e-05
6.24807e-05
2.36077e-05
2.36108e-05
7.20537e-05
4.95727e-05
4.95811e-05
7.12026e-05
7.00618e-05
0.000122219
6.76692e-05
9.82349e-05
0.000121253
6.83685e-05
6.90233e-05
7.2052e-05
4.95695e-05
4.95779e-05
7.12011e-05
7.04991e-05
9.76728e-05
6.92703e-05
0.000119404
6.85836e-05
0.00012034
7.15669e-05
7.21584e-05
4.959e-05
4.95823e-05
7.29599e-05
7.04941e-05
9.76438e-05
0.0001194
6.92597e-05
0.000120335
6.85863e-05
7.15697e-05
7.21569e-05
4.95867e-05
4.95791e-05
7.29576e-05
2.36157e-05
2.36124e-05
2.36146e-05
2.36113e-05
8.21776e-05
6.28571e-05
6.28552e-05
6.24784e-05
6.24765e-05
2.36067e-05
2.36099e-05
2.36056e-05
2.36088e-05
2.36059e-05
2.3603e-05
2.3604e-05
2.36011e-05
6.29007e-05
6.28958e-05
8.23584e-05
6.32818e-05
6.32781e-05
2.35978e-05
2.36007e-05
2.35959e-05
2.35988e-05
8.23554e-05
6.36796e-05
6.36743e-05
6.33227e-05
6.33188e-05
7.38065e-05
4.959e-05
7.3053e-05
4.95974e-05
7.30606e-05
7.33164e-05
0.000118523
9.60534e-05
7.42542e-05
7.01494e-05
0.000117611
7.30638e-05
7.33221e-05
0.000118513
9.60402e-05
7.42499e-05
7.01421e-05
0.000117609
7.3889e-05
4.9609e-05
4.96023e-05
7.46023e-05
7.38862e-05
4.96052e-05
4.95985e-05
7.45999e-05
7.34826e-05
9.55951e-05
7.10011e-05
0.000115905
7.03236e-05
0.000116781
7.45685e-05
7.34757e-05
9.55845e-05
7.09948e-05
0.000115903
7.03201e-05
0.00011677
7.45717e-05
6.28995e-05
6.29026e-05
8.23624e-05
6.32738e-05
6.32794e-05
2.36052e-05
2.36023e-05
2.35963e-05
2.35991e-05
8.23593e-05
6.3672e-05
6.36757e-05
6.33137e-05
6.33199e-05
2.35971e-05
2.36e-05
7.30658e-05
7.33166e-05
0.000118517
9.60772e-05
7.42505e-05
7.01441e-05
0.000117621
7.38067e-05
4.95859e-05
7.30483e-05
4.95933e-05
7.30693e-05
0.000118509
7.22322e-05
9.60395e-05
7.42485e-05
0.000117612
7.01347e-05
7.38937e-05
4.96046e-05
4.95979e-05
7.4594e-05
7.34768e-05
9.56136e-05
7.09954e-05
0.000115915
7.03219e-05
0.000116776
7.45711e-05
7.38851e-05
4.96012e-05
4.95943e-05
7.4598e-05
7.34709e-05
9.55805e-05
0.000115907
7.09921e-05
0.000116768
7.03144e-05
7.45732e-05
7.38014e-05
4.95911e-05
7.30579e-05
4.95985e-05
7.30759e-05
0.00011852
6.94585e-05
9.6052e-05
7.19796e-05
0.000117618
7.01399e-05
7.38e-05
4.95879e-05
7.30559e-05
4.95954e-05
7.3468e-05
9.56216e-05
7.09967e-05
0.000115915
7.03239e-05
0.000116782
7.45837e-05
7.38934e-05
4.96063e-05
4.95995e-05
7.45978e-05
7.34629e-05
9.55924e-05
0.000115912
7.09888e-05
0.000116778
7.03268e-05
7.45865e-05
7.38923e-05
4.96031e-05
4.95964e-05
7.45958e-05
6.29006e-05
6.29072e-05
8.23603e-05
6.32695e-05
6.32771e-05
2.36048e-05
2.36018e-05
2.3595e-05
2.35978e-05
8.23518e-05
6.36747e-05
6.36818e-05
6.33091e-05
6.33168e-05
2.35967e-05
2.35995e-05
7.30647e-05
0.000118522
7.33132e-05
9.60776e-05
7.42482e-05
0.000117621
7.01429e-05
7.38022e-05
4.95902e-05
7.30569e-05
4.95975e-05
7.37997e-05
4.95861e-05
7.30548e-05
4.95936e-05
7.34797e-05
9.56168e-05
0.000115917
7.09969e-05
0.000116782
7.03196e-05
7.45694e-05
7.34745e-05
9.56124e-05
0.000115916
7.09909e-05
0.00011678
7.0323e-05
7.45716e-05
7.3894e-05
4.96054e-05
4.95985e-05
7.45948e-05
7.38926e-05
4.96013e-05
4.95946e-05
7.45921e-05
2.36043e-05
2.36014e-05
2.36033e-05
2.36003e-05
8.23553e-05
6.36704e-05
6.36679e-05
6.33198e-05
6.33176e-05
2.35962e-05
2.35991e-05
2.35951e-05
2.3598e-05
2.35955e-05
2.35929e-05
2.35936e-05
2.3591e-05
6.37163e-05
6.37113e-05
8.3043e-05
6.40555e-05
6.40511e-05
2.35882e-05
2.35907e-05
2.35863e-05
2.35888e-05
8.31263e-05
6.44262e-05
6.44211e-05
6.40931e-05
6.40886e-05
7.53456e-05
4.96061e-05
7.46749e-05
4.96126e-05
7.60678e-05
7.11568e-05
0.000115122
9.43948e-05
7.49659e-05
7.18213e-05
0.000114308
7.60704e-05
7.11507e-05
0.000115111
9.43832e-05
7.4959e-05
7.18136e-05
0.000114306
7.5417e-05
4.96232e-05
4.96172e-05
7.60463e-05
7.54142e-05
4.96194e-05
4.96135e-05
7.6044e-05
7.64356e-05
9.40614e-05
7.2623e-05
0.000112757
7.19615e-05
0.000113521
7.75447e-05
7.64286e-05
9.40539e-05
7.2619e-05
0.000112753
7.19601e-05
0.000113511
7.75475e-05
6.37086e-05
6.37121e-05
8.30358e-05
6.40482e-05
6.40536e-05
2.35949e-05
2.35922e-05
2.35867e-05
2.35892e-05
8.31225e-05
6.44202e-05
6.44245e-05
6.40869e-05
6.40925e-05
2.35875e-05
2.35901e-05
7.60729e-05
7.1155e-05
0.000115117
9.44197e-05
7.49595e-05
7.18164e-05
0.000114318
7.53468e-05
4.96021e-05
7.46726e-05
4.96085e-05
7.60751e-05
0.000115109
7.11579e-05
9.43859e-05
7.49536e-05
0.00011431
7.18092e-05
7.54224e-05
4.96188e-05
4.96128e-05
7.6038e-05
7.64315e-05
9.40797e-05
7.26177e-05
0.000112767
7.19591e-05
0.000113517
7.75471e-05
7.54141e-05
4.96154e-05
4.96093e-05
7.60423e-05
7.64265e-05
9.4048e-05
0.000112758
7.26104e-05
0.00011351
7.19559e-05
7.75486e-05
7.53398e-05
4.96072e-05
7.46847e-05
4.96136e-05
7.60795e-05
0.000115119
7.11517e-05
9.43914e-05
7.49504e-05
0.000114315
7.18088e-05
7.53379e-05
4.9604e-05
7.46829e-05
4.96105e-05
7.64204e-05
9.40892e-05
7.26213e-05
0.000112764
7.19645e-05
0.000113524
7.75577e-05
7.542e-05
4.96205e-05
4.96145e-05
7.60414e-05
7.64151e-05
9.40639e-05
0.000112761
7.26164e-05
0.000113521
7.19638e-05
7.75602e-05
7.54185e-05
4.96174e-05
4.96114e-05
7.60398e-05
6.37129e-05
6.372e-05
8.30449e-05
6.4046e-05
6.40536e-05
2.35945e-05
2.35917e-05
2.35854e-05
2.35878e-05
8.31255e-05
6.44176e-05
6.44252e-05
6.40821e-05
6.40897e-05
2.35871e-05
2.35896e-05
7.60703e-05
0.000115121
7.11474e-05
9.44165e-05
7.49583e-05
0.000114319
7.18114e-05
7.53418e-05
4.96063e-05
7.46824e-05
4.96126e-05
7.53385e-05
4.96023e-05
7.46805e-05
4.96088e-05
7.64332e-05
9.40833e-05
0.000112766
7.26163e-05
0.000113524
7.19612e-05
7.75455e-05
7.64269e-05
9.40825e-05
0.000112766
7.2618e-05
0.000113523
7.19603e-05
7.75476e-05
7.54219e-05
4.96195e-05
4.96135e-05
7.60387e-05
7.54198e-05
4.96156e-05
4.96097e-05
7.60364e-05
2.35939e-05
2.35913e-05
2.35929e-05
2.35903e-05
8.31157e-05
6.44227e-05
6.442e-05
6.40903e-05
6.4088e-05
2.35866e-05
2.35892e-05
2.35856e-05
2.35881e-05
2.35862e-05
2.35838e-05
2.35843e-05
2.35819e-05
6.44632e-05
6.44582e-05
8.41371e-05
6.47784e-05
6.47734e-05
2.35796e-05
2.35818e-05
2.35777e-05
2.35799e-05
8.43058e-05
6.51162e-05
6.51112e-05
6.4813e-05
6.48079e-05
7.67119e-05
4.96202e-05
7.6109e-05
4.9626e-05
7.90134e-05
7.27513e-05
0.000112027
9.32522e-05
7.78861e-05
7.34015e-05
0.000111305
7.90148e-05
7.27443e-05
0.000112018
9.32357e-05
7.78796e-05
7.33895e-05
0.000111302
7.67753e-05
4.96358e-05
4.96304e-05
7.73384e-05
7.67723e-05
4.9632e-05
4.96267e-05
7.73362e-05
7.93259e-05
9.3047e-05
7.41515e-05
0.000109951
7.35117e-05
0.000110626
8.04475e-05
7.93186e-05
9.30383e-05
7.41512e-05
0.000109949
7.35058e-05
0.000110616
8.04495e-05
6.44551e-05
6.44594e-05
8.41244e-05
6.47662e-05
6.47713e-05
2.35855e-05
2.35831e-05
2.35781e-05
2.35803e-05
8.42919e-05
6.51151e-05
6.51201e-05
6.48032e-05
6.48084e-05
2.35789e-05
2.35812e-05
7.90154e-05
7.27483e-05
0.000112022
9.32774e-05
7.78802e-05
7.33965e-05
0.000111315
7.67111e-05
4.96162e-05
7.61064e-05
4.96219e-05
7.90158e-05
0.000112016
7.27485e-05
9.3243e-05
7.78752e-05
0.000111307
7.33893e-05
7.67793e-05
4.96314e-05
4.96261e-05
7.73315e-05
7.93214e-05
9.30643e-05
7.41477e-05
0.000109961
7.35082e-05
0.000110622
8.04499e-05
7.67706e-05
4.96279e-05
4.96226e-05
7.73353e-05
7.93166e-05
9.30361e-05
0.000109953
7.41373e-05
0.000110615
7.35087e-05
8.04494e-05
7.6708e-05
4.96213e-05
7.61189e-05
4.9627e-05
7.90248e-05
0.000112027
7.27493e-05
9.32468e-05
7.78735e-05
0.000111314
7.33856e-05
7.6706e-05
4.96182e-05
7.61176e-05
4.96239e-05
7.93134e-05
9.30712e-05
7.41537e-05
0.000109963
7.35114e-05
0.000110627
8.04563e-05
7.67792e-05
4.9633e-05
4.96277e-05
7.73315e-05
7.93083e-05
9.30435e-05
0.000109961
7.41471e-05
0.000110623
7.35079e-05
8.04577e-05
7.67775e-05
4.96299e-05
4.96246e-05
7.73297e-05
6.44558e-05
6.44635e-05
8.41364e-05
6.47707e-05
6.4779e-05
2.35851e-05
2.35827e-05
2.35767e-05
2.35789e-05
8.43066e-05
6.51064e-05
6.51144e-05
6.48046e-05
6.48129e-05
2.35785e-05
2.35806e-05
7.90151e-05
0.00011203
7.27449e-05
9.32716e-05
7.78797e-05
0.000111319
7.33874e-05
7.67081e-05
4.96203e-05
7.61159e-05
4.9626e-05
7.6705e-05
4.96164e-05
7.61146e-05
4.96222e-05
7.93239e-05
9.30694e-05
0.000109965
7.41446e-05
0.000110627
7.35148e-05
8.04475e-05
7.93178e-05
9.30601e-05
0.000109967
7.41482e-05
0.000110626
7.35046e-05
8.04483e-05
7.67796e-05
4.9632e-05
4.96267e-05
7.73311e-05
7.67777e-05
4.96282e-05
4.96229e-05
7.73284e-05
2.35845e-05
2.35822e-05
2.35835e-05
2.35811e-05
8.42886e-05
6.51169e-05
6.51141e-05
6.48041e-05
6.48015e-05
2.3578e-05
2.35802e-05
2.3577e-05
2.35792e-05
2.35777e-05
2.35757e-05
2.35758e-05
2.35737e-05
6.51519e-05
6.51471e-05
8.55851e-05
6.54494e-05
6.54443e-05
2.35719e-05
2.35738e-05
2.357e-05
2.35719e-05
8.5829e-05
6.57623e-05
6.57568e-05
6.54827e-05
6.54775e-05
7.79341e-05
4.96327e-05
7.7392e-05
4.9638e-05
8.18613e-05
7.42512e-05
0.000109318
9.26088e-05
8.07292e-05
7.4889e-05
0.000108697
8.18619e-05
7.42479e-05
0.000109309
9.2596e-05
8.07234e-05
7.48762e-05
0.000108695
7.79915e-05
4.96472e-05
4.96424e-05
7.85064e-05
7.79885e-05
4.96435e-05
4.96386e-05
7.85038e-05
8.21179e-05
9.25256e-05
7.55971e-05
0.000107544
7.4973e-05
0.000108114
8.32483e-05
8.21111e-05
9.25142e-05
7.55941e-05
0.000107541
7.49628e-05
0.000108105
8.32488e-05
6.51487e-05
6.51538e-05
8.55818e-05
6.54345e-05
6.54394e-05
2.3577e-05
2.35749e-05
2.35704e-05
2.35723e-05
8.5816e-05
6.57594e-05
6.57646e-05
6.54688e-05
6.54737e-05
2.35713e-05
2.35731e-05
8.1862e-05
7.42475e-05
0.000109315
9.26343e-05
8.07256e-05
7.48846e-05
0.000108707
7.79335e-05
4.96286e-05
7.73904e-05
4.96339e-05
8.18618e-05
0.000109308
7.42468e-05
9.26021e-05
8.07212e-05
0.0001087
7.48757e-05
7.79947e-05
4.96429e-05
4.9638e-05
7.84998e-05
8.21147e-05
9.25416e-05
7.55927e-05
0.000107553
7.49684e-05
0.000108111
8.32485e-05
7.79873e-05
4.96393e-05
4.96345e-05
7.85024e-05
8.21118e-05
9.25159e-05
0.000107546
7.55829e-05
0.000108105
7.49717e-05
8.32474e-05
7.79318e-05
4.96337e-05
7.73995e-05
4.96389e-05
8.18713e-05
0.000109318
7.42516e-05
9.26066e-05
8.0716e-05
0.000108704
7.48753e-05
7.793e-05
4.96306e-05
7.73982e-05
4.96359e-05
8.21089e-05
9.25454e-05
7.55974e-05
0.000107554
7.49691e-05
0.000108117
8.3255e-05
7.79964e-05
4.96445e-05
4.96396e-05
7.85004e-05
8.21047e-05
9.25257e-05
0.000107551
7.55913e-05
0.000108117
7.49668e-05
8.32556e-05
7.79951e-05
4.96414e-05
4.96365e-05
7.84985e-05
6.51424e-05
6.51504e-05
8.55819e-05
6.54413e-05
6.54495e-05
2.35766e-05
2.35745e-05
2.3569e-05
2.35709e-05
8.58266e-05
6.57534e-05
6.57623e-05
6.54749e-05
6.54829e-05
2.35708e-05
2.35727e-05
8.18624e-05
0.000109322
7.42475e-05
9.26305e-05
8.0722e-05
0.000108709
7.48758e-05
7.79314e-05
4.96327e-05
7.73985e-05
4.9638e-05
7.79285e-05
4.96289e-05
7.73968e-05
4.96342e-05
8.21173e-05
9.25486e-05
0.000107555
7.55921e-05
0.00010812
7.4977e-05
8.32496e-05
8.21119e-05
9.25409e-05
0.000107557
7.55915e-05
0.000108121
7.49638e-05
8.32496e-05
7.79963e-05
4.96434e-05
4.96387e-05
7.85013e-05
7.79944e-05
4.96397e-05
4.96348e-05
7.84984e-05
2.35761e-05
2.3574e-05
2.3575e-05
2.3573e-05
8.58207e-05
6.57607e-05
6.57577e-05
6.54717e-05
6.54685e-05
2.35703e-05
2.35722e-05
2.35693e-05
2.35712e-05
2.35702e-05
2.35685e-05
2.35683e-05
2.35666e-05
6.57956e-05
6.57901e-05
8.73377e-05
6.60736e-05
6.60682e-05
2.35652e-05
2.35669e-05
2.35634e-05
2.35649e-05
8.76402e-05
6.63688e-05
6.63638e-05
6.61059e-05
6.61006e-05
7.90422e-05
4.96441e-05
7.85545e-05
4.96489e-05
8.45996e-05
7.56693e-05
0.000107015
9.24414e-05
8.34745e-05
7.62904e-05
0.000106496
8.45992e-05
7.5666e-05
0.000107006
9.24305e-05
8.34689e-05
7.62792e-05
0.000106494
7.90964e-05
4.9658e-05
4.96533e-05
7.95675e-05
7.90936e-05
4.96543e-05
4.96495e-05
7.95647e-05
8.48013e-05
9.24776e-05
7.69617e-05
0.000105559
7.63522e-05
0.000106021
8.59293e-05
8.47955e-05
9.24671e-05
7.69565e-05
0.000105557
7.63423e-05
0.000106013
8.59284e-05
6.57924e-05
6.57976e-05
8.73393e-05
6.60614e-05
6.60664e-05
2.35695e-05
2.35678e-05
2.35638e-05
2.35653e-05
8.76365e-05
6.63633e-05
6.63697e-05
6.60935e-05
6.60986e-05
2.35646e-05
2.35662e-05
8.45978e-05
7.56645e-05
0.000107013
9.24666e-05
8.34719e-05
7.62861e-05
0.000106505
7.90396e-05
4.96399e-05
7.85527e-05
4.96449e-05
8.45941e-05
0.000107007
7.56644e-05
9.24336e-05
8.34687e-05
0.000106499
7.62735e-05
7.90974e-05
4.96536e-05
4.96489e-05
7.95643e-05
8.47992e-05
9.24922e-05
7.69581e-05
0.000105568
7.63477e-05
0.00010602
8.59288e-05
7.90913e-05
4.96502e-05
4.96455e-05
7.95638e-05
8.47961e-05
9.24662e-05
0.000105561
7.69487e-05
0.000106013
7.63478e-05
8.59255e-05
7.90417e-05
4.9645e-05
7.85606e-05
4.96499e-05
8.46058e-05
0.000107016
7.56681e-05
9.24406e-05
8.34632e-05
0.000106507
7.62794e-05
7.90396e-05
4.9642e-05
7.85593e-05
4.96468e-05
8.4795e-05
9.24959e-05
7.69621e-05
0.00010557
7.63487e-05
0.000106023
8.59347e-05
7.90997e-05
4.96553e-05
4.96505e-05
7.95649e-05
8.47915e-05
9.24764e-05
0.000105568
7.69559e-05
0.000106022
7.63451e-05
8.59337e-05
7.90984e-05
4.96522e-05
4.96474e-05
7.95627e-05
6.5786e-05
6.5795e-05
8.73345e-05
6.60626e-05
6.60717e-05
2.35691e-05
2.35674e-05
2.35624e-05
2.3564e-05
8.76357e-05
6.63617e-05
6.63701e-05
6.60957e-05
6.61044e-05
2.35641e-05
2.35657e-05
8.45985e-05
0.00010702
7.56655e-05
9.24643e-05
8.3469e-05
0.000106512
7.62779e-05
7.904e-05
4.9644e-05
7.85605e-05
4.9649e-05
7.90372e-05
4.96403e-05
7.85588e-05
4.96451e-05
8.47991e-05
9.24967e-05
0.000105571
7.69589e-05
0.000106025
7.63533e-05
8.59302e-05
8.47947e-05
9.24893e-05
0.000105573
7.69539e-05
0.000106027
7.63425e-05
8.5929e-05
7.90977e-05
4.96543e-05
4.96496e-05
7.95657e-05
7.90959e-05
4.96505e-05
4.96457e-05
7.95622e-05
2.35686e-05
2.35668e-05
2.35676e-05
2.35658e-05
8.76372e-05
6.63652e-05
6.63616e-05
6.60965e-05
6.60927e-05
2.35637e-05
2.35652e-05
2.35626e-05
2.35642e-05
2.35637e-05
2.35623e-05
2.35618e-05
2.35604e-05
6.63997e-05
6.63946e-05
8.93416e-05
6.66566e-05
6.6651e-05
2.35608e-05
2.35589e-05
8.96887e-05
6.66876e-05
6.66819e-05
8.00618e-05
4.96549e-05
7.96155e-05
4.96594e-05
8.72251e-05
7.70133e-05
0.000105137
9.27234e-05
8.6107e-05
7.76123e-05
0.00010473
8.72229e-05
7.70096e-05
0.00010513
9.27145e-05
8.61021e-05
7.76023e-05
0.000104728
8.01142e-05
4.96638e-05
8.05438e-05
8.01114e-05
4.96648e-05
4.966e-05
8.0541e-05
8.73785e-05
9.28671e-05
0.000104013
7.76577e-05
0.000104363
8.84904e-05
8.73743e-05
9.28551e-05
7.82414e-05
0.000104011
7.76484e-05
0.000104356
8.84869e-05
6.63947e-05
6.6401e-05
8.9342e-05
6.66464e-05
6.6651e-05
2.3563e-05
2.35616e-05
2.35581e-05
2.35593e-05
8.96858e-05
6.69312e-05
6.69368e-05
6.66766e-05
6.66808e-05
2.3559e-05
2.35601e-05
8.72225e-05
7.70086e-05
0.000105137
9.27481e-05
8.61059e-05
7.7607e-05
0.000104739
8.0059e-05
4.96507e-05
7.96147e-05
4.96553e-05
8.72174e-05
0.000105131
7.70105e-05
9.27195e-05
8.61054e-05
0.000104733
7.75967e-05
8.01126e-05
4.96594e-05
8.73745e-05
9.28804e-05
7.76521e-05
0.000104364
8.01085e-05
4.96559e-05
8.73745e-05
9.28562e-05
0.000104357
7.7652e-05
8.00619e-05
4.96558e-05
7.96198e-05
4.96604e-05
8.7225e-05
0.000105141
7.70105e-05
9.27228e-05
8.60995e-05
0.000104739
7.76037e-05
8.00598e-05
4.96527e-05
7.96185e-05
4.96573e-05
8.73728e-05
9.28816e-05
7.82481e-05
0.000104024
7.76527e-05
0.000104366
8.84907e-05
8.01139e-05
4.96658e-05
4.9661e-05
8.05432e-05
8.73706e-05
9.28659e-05
0.000104023
7.82423e-05
0.000104367
7.76499e-05
8.84885e-05
8.01126e-05
4.96628e-05
4.96579e-05
8.05412e-05
6.63923e-05
6.64007e-05
8.93425e-05
6.66459e-05
6.66551e-05
2.35626e-05
2.35612e-05
2.35579e-05
8.96874e-05
6.66767e-05
6.66858e-05
2.35597e-05
8.72233e-05
0.000105146
7.70089e-05
9.27457e-05
8.61022e-05
0.000104744
7.76017e-05
8.00621e-05
4.96548e-05
7.962e-05
4.96594e-05
8.00595e-05
4.96511e-05
7.96176e-05
4.96557e-05
8.73772e-05
9.28853e-05
0.000104027
0.00010437
7.76571e-05
8.84902e-05
8.7373e-05
9.28775e-05
0.000104029
7.82396e-05
0.000104372
7.76487e-05
8.84893e-05
8.01136e-05
4.966e-05
8.0543e-05
8.01118e-05
4.96611e-05
4.96563e-05
8.05403e-05
2.35621e-05
2.35607e-05
2.35611e-05
2.35597e-05
8.96876e-05
6.69332e-05
6.69286e-05
6.66796e-05
6.6676e-05
2.3558e-05
2.35592e-05
2.3557e-05
2.35582e-05
2.36153e-05
2.36128e-05
7.15416e-05
2.15367e-05
2.15333e-05
2.15376e-05
2.15343e-05
7.16147e-05
7.57742e-05
7.34483e-05
6.22167e-05
4.71947e-05
7.39304e-05
4.7203e-05
7.54088e-05
7.58117e-05
7.34567e-05
6.22151e-05
4.7185e-05
4.71933e-05
7.54515e-05
7.39371e-05
7.58404e-05
4.72131e-05
6.22584e-05
7.45488e-05
7.40994e-05
4.72062e-05
7.61477e-05
7.58841e-05
4.72033e-05
6.22567e-05
7.45551e-05
4.71963e-05
7.61836e-05
7.41072e-05
7.15016e-05
2.15415e-05
2.15382e-05
2.1541e-05
2.15377e-05
7.13553e-05
3.62156e-05
7.34797e-05
4.03946e-05
7.38527e-05
4.03904e-05
7.36364e-05
3.62173e-05
2.01948e-05
6.96057e-05
4.9597e-05
6.97026e-05
2.01951e-05
3.62155e-05
7.33928e-05
4.03845e-05
7.33185e-05
4.03889e-05
7.35413e-05
3.62137e-05
2.01921e-05
6.98346e-05
4.95981e-05
6.97414e-05
2.01918e-05
2.36041e-05
2.36017e-05
3.6215e-05
7.34827e-05
7.38497e-05
4.03936e-05
7.36351e-05
4.03893e-05
3.62166e-05
2.01945e-05
6.96041e-05
4.95926e-05
6.97011e-05
2.01947e-05
3.62148e-05
7.33879e-05
7.33169e-05
4.03834e-05
7.35384e-05
4.03878e-05
3.6213e-05
2.01918e-05
6.98329e-05
4.95937e-05
6.97399e-05
2.01915e-05
2.36027e-05
2.36004e-05
7.20472e-05
2.15249e-05
2.15218e-05
2.15253e-05
2.15222e-05
7.21829e-05
7.72275e-05
7.58304e-05
4.72365e-05
6.30681e-05
7.68729e-05
7.62864e-05
4.72444e-05
7.72633e-05
7.58375e-05
4.72269e-05
6.30663e-05
7.6916e-05
7.62929e-05
4.72348e-05
7.19879e-05
2.15274e-05
2.15243e-05
7.18379e-05
2.15274e-05
2.15243e-05
7.73149e-05
4.72548e-05
6.31096e-05
7.69209e-05
7.64595e-05
4.72476e-05
7.76531e-05
7.73573e-05
4.72452e-05
6.31077e-05
7.69271e-05
7.64664e-05
4.7238e-05
7.76888e-05
3.62213e-05
7.50541e-05
4.04143e-05
7.50145e-05
4.0411e-05
7.4822e-05
3.62225e-05
2.01829e-05
7.01194e-05
4.96127e-05
2.01831e-05
7.02043e-05
3.62215e-05
7.49817e-05
4.04062e-05
7.45375e-05
3.62202e-05
4.04098e-05
7.47362e-05
2.01802e-05
7.03216e-05
4.96136e-05
7.02392e-05
2.01799e-05
2.35937e-05
2.35916e-05
3.62206e-05
7.50593e-05
7.50125e-05
4.04135e-05
7.48209e-05
4.04102e-05
3.62218e-05
2.01825e-05
7.01182e-05
4.96084e-05
2.01828e-05
7.02025e-05
3.62208e-05
7.49751e-05
7.45353e-05
4.04054e-05
3.62195e-05
7.47336e-05
4.0409e-05
2.01798e-05
7.03197e-05
4.96093e-05
7.02388e-05
2.01795e-05
2.35924e-05
2.35902e-05
7.25236e-05
2.15133e-05
2.15102e-05
2.15133e-05
2.15102e-05
7.26541e-05
7.86199e-05
7.81787e-05
4.72749e-05
6.38579e-05
7.83382e-05
7.85981e-05
4.72815e-05
7.86554e-05
7.81841e-05
4.72653e-05
6.38555e-05
7.8379e-05
7.86035e-05
4.72719e-05
7.24781e-05
2.15153e-05
2.15122e-05
7.23988e-05
2.15152e-05
2.15121e-05
7.869e-05
4.72915e-05
6.38962e-05
7.91945e-05
7.87492e-05
4.72844e-05
7.9023e-05
7.87276e-05
4.72818e-05
6.38938e-05
7.92e-05
7.87546e-05
4.72748e-05
7.90591e-05
3.62239e-05
7.64486e-05
4.04292e-05
7.60607e-05
4.04267e-05
7.58853e-05
3.62247e-05
2.0171e-05
7.0576e-05
4.96266e-05
2.01713e-05
7.0654e-05
3.62244e-05
7.63847e-05
4.04232e-05
7.56273e-05
3.62235e-05
4.0426e-05
7.58071e-05
2.01684e-05
7.07606e-05
4.96273e-05
7.06847e-05
2.01681e-05
2.35844e-05
2.35824e-05
3.62232e-05
7.6452e-05
7.60583e-05
4.04284e-05
7.58823e-05
4.04259e-05
3.6224e-05
2.01707e-05
7.05738e-05
4.96222e-05
2.0171e-05
7.06511e-05
3.62237e-05
7.63766e-05
7.56237e-05
4.04224e-05
3.62228e-05
7.58037e-05
4.04252e-05
2.01681e-05
7.07587e-05
4.9623e-05
7.06835e-05
2.01678e-05
2.35831e-05
2.35811e-05
7.30011e-05
2.15024e-05
2.14993e-05
2.15023e-05
2.14993e-05
7.30903e-05
7.99924e-05
8.04607e-05
4.73103e-05
6.45939e-05
7.97494e-05
8.08545e-05
4.73158e-05
8.00274e-05
8.04654e-05
4.73007e-05
6.45911e-05
7.97866e-05
8.08587e-05
4.73061e-05
7.29787e-05
2.15048e-05
2.15017e-05
7.29377e-05
2.15045e-05
2.15014e-05
8.0026e-05
4.73243e-05
6.46287e-05
8.13911e-05
8.09772e-05
4.73182e-05
8.02984e-05
8.00635e-05
4.73146e-05
6.46259e-05
8.1395e-05
8.09817e-05
4.73085e-05
8.03322e-05
3.62239e-05
7.76954e-05
4.04393e-05
7.70058e-05
4.04375e-05
7.68444e-05
3.62244e-05
2.01595e-05
7.09855e-05
4.96388e-05
2.01597e-05
7.10571e-05
3.62247e-05
7.76393e-05
4.04352e-05
7.66116e-05
3.62241e-05
4.04372e-05
7.67743e-05
2.01569e-05
7.11557e-05
4.96395e-05
7.10836e-05
2.01567e-05
2.3576e-05
2.35742e-05
3.62232e-05
7.7699e-05
7.70025e-05
4.04385e-05
7.68414e-05
4.04367e-05
3.62237e-05
2.01591e-05
7.09845e-05
4.96344e-05
2.01594e-05
7.10544e-05
3.6224e-05
7.76323e-05
7.66092e-05
4.04344e-05
3.62234e-05
7.67716e-05
4.04364e-05
2.01566e-05
7.11523e-05
4.96351e-05
7.1082e-05
2.01563e-05
2.35747e-05
2.35729e-05
7.34879e-05
2.14929e-05
2.14897e-05
2.1493e-05
2.14899e-05
7.35432e-05
8.12966e-05
8.26413e-05
4.7343e-05
6.5279e-05
8.10519e-05
8.30322e-05
4.7348e-05
8.13308e-05
8.26456e-05
4.73333e-05
6.52758e-05
8.10873e-05
8.30345e-05
4.73383e-05
7.34765e-05
2.14958e-05
2.14927e-05
7.34257e-05
2.14954e-05
2.14923e-05
8.13306e-05
4.73553e-05
6.53117e-05
8.35341e-05
8.31455e-05
4.735e-05
8.15665e-05
8.13654e-05
4.73455e-05
6.53085e-05
8.35356e-05
8.31495e-05
4.73403e-05
8.15994e-05
3.62219e-05
7.88286e-05
4.04454e-05
7.78686e-05
4.04442e-05
7.77215e-05
3.62222e-05
2.01484e-05
7.13602e-05
4.96499e-05
2.01486e-05
7.14256e-05
3.62229e-05
7.87778e-05
4.04429e-05
7.75113e-05
3.62226e-05
4.04442e-05
7.76594e-05
2.01459e-05
7.15138e-05
4.96505e-05
7.14468e-05
2.01457e-05
2.35686e-05
2.35669e-05
3.62213e-05
7.88303e-05
7.78662e-05
4.04446e-05
7.7719e-05
4.04434e-05
3.62216e-05
2.01481e-05
7.13593e-05
4.96456e-05
2.01483e-05
7.14239e-05
3.62222e-05
7.87716e-05
7.75086e-05
4.04421e-05
3.62219e-05
7.7657e-05
4.04434e-05
2.01456e-05
7.15121e-05
4.96462e-05
7.14466e-05
2.01454e-05
2.35673e-05
2.35656e-05
7.39171e-05
2.14848e-05
2.14817e-05
2.14849e-05
2.14819e-05
7.39804e-05
8.24814e-05
8.4703e-05
4.73727e-05
6.59148e-05
8.223e-05
8.50895e-05
4.73778e-05
8.25134e-05
8.4708e-05
4.7363e-05
6.59114e-05
8.22633e-05
8.50888e-05
4.73681e-05
7.38983e-05
2.14872e-05
2.14842e-05
7.38253e-05
2.14871e-05
2.14839e-05
8.25231e-05
4.73848e-05
6.59465e-05
8.55846e-05
8.52053e-05
4.73798e-05
8.27573e-05
8.2556e-05
4.7375e-05
6.5943e-05
8.5583e-05
8.52106e-05
4.737e-05
8.27888e-05
3.62187e-05
7.98691e-05
4.04484e-05
7.86668e-05
4.04476e-05
7.85313e-05
3.62188e-05
2.01379e-05
7.17047e-05
4.96606e-05
2.01381e-05
7.17668e-05
3.62198e-05
7.98191e-05
4.04471e-05
7.83367e-05
3.62196e-05
4.04479e-05
7.84752e-05
2.01356e-05
7.18455e-05
4.96611e-05
7.17841e-05
2.01354e-05
2.35622e-05
2.35607e-05
3.6218e-05
7.98683e-05
7.86634e-05
4.04476e-05
7.85277e-05
4.04468e-05
3.62181e-05
2.01376e-05
7.17025e-05
4.96562e-05
2.01378e-05
7.17634e-05
3.62191e-05
7.98158e-05
7.83335e-05
4.04463e-05
3.62189e-05
7.84717e-05
4.04471e-05
2.01353e-05
7.18433e-05
4.96567e-05
7.17819e-05
2.01351e-05
2.35609e-05
2.35593e-05
7.42872e-05
2.14772e-05
2.14741e-05
2.14772e-05
2.14741e-05
7.43456e-05
8.35921e-05
8.66951e-05
4.74008e-05
6.65097e-05
8.33621e-05
8.70631e-05
4.74056e-05
8.36222e-05
8.67012e-05
4.7391e-05
6.65062e-05
8.33935e-05
8.70585e-05
4.73958e-05
7.42706e-05
2.14791e-05
2.14761e-05
7.42071e-05
2.14791e-05
2.14759e-05
8.36313e-05
4.74123e-05
6.65396e-05
8.75358e-05
8.71747e-05
4.74075e-05
8.38506e-05
8.36623e-05
4.74025e-05
6.65362e-05
8.753e-05
8.7183e-05
4.73977e-05
8.38804e-05
7.14686e-05
2.15341e-05
2.15372e-05
2.15346e-05
2.15377e-05
7.16021e-05
7.57341e-05
7.34332e-05
6.221e-05
4.71843e-05
4.71929e-05
7.5381e-05
7.38946e-05
7.5694e-05
7.3429e-05
6.22126e-05
4.7193e-05
7.38915e-05
4.72016e-05
7.53433e-05
7.58318e-05
4.72042e-05
6.22517e-05
7.45265e-05
4.71963e-05
7.61621e-05
7.40708e-05
7.57947e-05
4.72129e-05
6.22549e-05
7.45251e-05
7.40686e-05
4.7205e-05
7.6121e-05
7.13989e-05
2.1537e-05
2.154e-05
2.15369e-05
2.15399e-05
7.12449e-05
2.36162e-05
2.36137e-05
2.36071e-05
2.36096e-05
7.17236e-05
2.15311e-05
2.15342e-05
7.16401e-05
2.15304e-05
2.15335e-05
7.65817e-05
7.57061e-05
6.269e-05
4.72244e-05
4.72173e-05
7.68714e-05
7.52798e-05
7.65491e-05
7.57031e-05
6.26956e-05
4.72331e-05
4.7226e-05
7.52768e-05
7.68335e-05
7.65287e-05
4.72072e-05
7.46915e-05
6.26509e-05
7.62302e-05
4.72144e-05
7.51301e-05
7.64896e-05
4.72159e-05
7.46901e-05
6.26571e-05
7.61943e-05
4.72231e-05
7.51282e-05
7.17477e-05
2.15269e-05
2.153e-05
2.15273e-05
2.15304e-05
7.18202e-05
2.3608e-05
2.36105e-05
3.62062e-05
7.25558e-05
4.03691e-05
7.16879e-05
7.23002e-05
4.03643e-05
3.62085e-05
2.02065e-05
4.95764e-05
6.90212e-05
6.91355e-05
2.02067e-05
2.02038e-05
6.92841e-05
4.95777e-05
6.91747e-05
2.02036e-05
3.62059e-05
7.15808e-05
7.19416e-05
4.03576e-05
7.22062e-05
4.03624e-05
3.62035e-05
3.62043e-05
4.03694e-05
7.25439e-05
7.16866e-05
4.03646e-05
7.22987e-05
3.62065e-05