/*--------------------------------*- C++ -*----------------------------------*\
| =========                 |                                                 |
| \\      /  F ield         | OpenFOAM: The Open Source CFD Toolbox           |
|  \\    /   O peration     | Version:  v2012                                 |
|   \\  /    A nd           | Website:  www.openfoam.com                      |
|    \\/     M anipulation  |                                                 |
\*---------------------------------------------------------------------------*/
FoamFile
{
    version     2.0;
    format      ascii;
    class       volScalarField;
    location    "0.38";
    object      p;
}
// * * * * * * * * * * * * * * * * * * * * * * * * * * * * * * * * * * * * * //

dimensions      [0 2 -2 0 0 0 0];


internalField   nonuniform List<scalar> 
247104
(
1.8448e-06
1.84469e-06
1.84484e-06
1.84482e-06
1.84473e-06
1.84483e-06
1.84482e-06
1.84462e-06
1.84469e-06
1.84475e-06
1.84481e-06
1.84466e-06
1.84457e-06
1.84468e-06
1.84482e-06
1.84472e-06
1.84484e-06
1.84481e-06
1.8445e-06
1.84414e-06
1.844e-06
1.84418e-06
1.84455e-06
1.84483e-06
1.84484e-06
1.84482e-06
1.84466e-06
1.84414e-06
1.84366e-06
1.84349e-06
1.84371e-06
1.84421e-06
1.8447e-06
1.84482e-06
1.8448e-06
1.84473e-06
1.84457e-06
1.844e-06
1.84349e-06
1.8433e-06
1.84354e-06
1.84408e-06
1.84462e-06
1.84472e-06
1.84483e-06
1.84468e-06
1.84418e-06
1.84371e-06
1.84354e-06
1.84375e-06
1.84425e-06
1.84472e-06
1.84484e-06
1.84482e-06
1.84482e-06
1.84455e-06
1.84421e-06
1.84408e-06
1.84425e-06
1.8446e-06
1.84483e-06
1.84482e-06
1.84462e-06
1.84472e-06
1.84483e-06
1.8447e-06
1.84462e-06
1.84472e-06
1.84483e-06
1.84469e-06
1.84484e-06
1.84482e-06
1.84472e-06
1.84484e-06
1.84482e-06
1.81186e-06
1.80986e-06
1.80926e-06
1.80804e-06
1.80805e-06
1.80799e-06
1.80799e-06
1.80931e-06
1.80954e-06
1.80926e-06
1.8072e-06
1.80458e-06
1.80456e-06
1.80456e-06
1.80458e-06
1.80759e-06
1.80785e-06
1.80804e-06
1.80458e-06
1.80452e-06
1.80459e-06
1.80459e-06
1.80452e-06
1.80458e-06
1.80796e-06
1.80927e-06
1.81186e-06
1.80805e-06
1.80456e-06
1.80459e-06
1.80468e-06
1.80468e-06
1.80459e-06
1.80456e-06
1.80796e-06
1.8096e-06
1.80986e-06
1.80799e-06
1.80456e-06
1.80459e-06
1.80468e-06
1.80468e-06
1.80459e-06
1.80456e-06
1.80814e-06
1.8082e-06
1.80799e-06
1.80458e-06
1.80452e-06
1.80459e-06
1.80459e-06
1.80452e-06
1.80458e-06
1.80791e-06
1.80918e-06
1.80931e-06
1.80759e-06
1.80458e-06
1.80456e-06
1.80456e-06
1.80458e-06
1.80782e-06
1.80799e-06
1.80946e-06
1.80955e-06
1.80784e-06
1.80796e-06
1.80796e-06
1.80813e-06
1.80791e-06
1.80799e-06
1.80959e-06
1.80927e-06
1.8096e-06
1.8082e-06
1.80918e-06
1.80946e-06
1.79173e-06
1.79156e-06
1.79139e-06
1.78929e-06
1.78918e-06
1.78914e-06
1.78926e-06
1.79135e-06
1.7916e-06
1.79139e-06
1.78858e-06
1.78564e-06
1.78559e-06
1.78559e-06
1.78564e-06
1.78906e-06
1.78973e-06
1.78929e-06
1.78565e-06
1.7854e-06
1.78543e-06
1.78543e-06
1.78539e-06
1.78564e-06
1.78986e-06
1.79182e-06
1.79173e-06
1.78918e-06
1.7856e-06
1.78543e-06
1.78547e-06
1.78547e-06
1.78543e-06
1.78559e-06
1.78991e-06
1.79157e-06
1.79156e-06
1.78914e-06
1.78559e-06
1.78543e-06
1.78547e-06
1.78547e-06
1.78543e-06
1.78559e-06
1.78987e-06
1.78986e-06
1.78926e-06
1.78564e-06
1.78539e-06
1.78543e-06
1.78543e-06
1.7854e-06
1.78565e-06
1.78991e-06
1.79191e-06
1.79134e-06
1.78906e-06
1.78564e-06
1.78559e-06
1.78559e-06
1.78564e-06
1.78954e-06
1.78984e-06
1.79182e-06
1.7916e-06
1.78972e-06
1.78986e-06
1.78991e-06
1.78986e-06
1.78991e-06
1.78984e-06
1.79171e-06
1.79182e-06
1.79157e-06
1.78986e-06
1.79191e-06
1.79183e-06
1.77279e-06
1.77262e-06
1.77248e-06
1.77033e-06
1.77022e-06
1.77014e-06
1.77033e-06
1.77242e-06
1.7727e-06
1.77248e-06
1.7696e-06
1.76665e-06
1.76662e-06
1.76662e-06
1.76665e-06
1.77006e-06
1.77083e-06
1.77033e-06
1.76665e-06
1.76654e-06
1.76655e-06
1.76655e-06
1.76654e-06
1.76665e-06
1.77093e-06
1.77288e-06
1.77279e-06
1.77022e-06
1.76662e-06
1.76655e-06
1.76656e-06
1.76656e-06
1.76655e-06
1.76662e-06
1.77098e-06
1.77263e-06
1.77262e-06
1.77014e-06
1.76662e-06
1.76655e-06
1.76656e-06
1.76656e-06
1.76655e-06
1.76662e-06
1.77095e-06
1.77095e-06
1.77033e-06
1.76665e-06
1.76654e-06
1.76655e-06
1.76655e-06
1.76654e-06
1.76665e-06
1.77097e-06
1.77295e-06
1.77242e-06
1.77006e-06
1.76665e-06
1.76662e-06
1.76662e-06
1.76665e-06
1.7707e-06
1.77094e-06
1.77291e-06
1.7727e-06
1.77083e-06
1.77093e-06
1.77098e-06
1.77095e-06
1.77097e-06
1.77094e-06
1.77293e-06
1.77288e-06
1.77263e-06
1.77095e-06
1.77295e-06
1.77291e-06
1.75384e-06
1.75367e-06
1.75351e-06
1.75135e-06
1.75124e-06
1.75115e-06
1.75134e-06
1.75345e-06
1.75372e-06
1.75351e-06
1.75064e-06
1.74765e-06
1.74764e-06
1.74764e-06
1.74765e-06
1.75105e-06
1.75186e-06
1.75135e-06
1.74765e-06
1.74762e-06
1.74762e-06
1.74762e-06
1.74762e-06
1.74765e-06
1.75196e-06
1.75392e-06
1.75384e-06
1.75124e-06
1.74764e-06
1.74762e-06
1.74763e-06
1.74763e-06
1.74762e-06
1.74764e-06
1.75204e-06
1.75369e-06
1.75367e-06
1.75115e-06
1.74764e-06
1.74762e-06
1.74763e-06
1.74763e-06
1.74762e-06
1.74764e-06
1.75202e-06
1.75202e-06
1.75134e-06
1.74765e-06
1.74762e-06
1.74762e-06
1.74762e-06
1.74762e-06
1.74765e-06
1.75201e-06
1.75402e-06
1.75345e-06
1.75105e-06
1.74765e-06
1.74764e-06
1.74764e-06
1.74765e-06
1.75177e-06
1.75199e-06
1.75395e-06
1.75372e-06
1.75186e-06
1.75196e-06
1.75204e-06
1.75202e-06
1.75201e-06
1.75199e-06
1.75394e-06
1.75392e-06
1.75369e-06
1.75202e-06
1.75401e-06
1.75395e-06
1.73487e-06
1.7347e-06
1.73453e-06
1.73237e-06
1.73226e-06
1.73217e-06
1.73236e-06
1.73447e-06
1.73474e-06
1.73453e-06
1.73166e-06
1.72867e-06
1.72867e-06
1.72867e-06
1.72867e-06
1.73205e-06
1.73288e-06
1.73237e-06
1.72867e-06
1.72866e-06
1.72866e-06
1.72866e-06
1.72866e-06
1.72867e-06
1.73298e-06
1.73494e-06
1.73487e-06
1.73226e-06
1.72867e-06
1.72866e-06
1.72866e-06
1.72866e-06
1.72866e-06
1.72867e-06
1.73307e-06
1.73473e-06
1.7347e-06
1.73217e-06
1.72867e-06
1.72866e-06
1.72866e-06
1.72866e-06
1.72866e-06
1.72867e-06
1.73305e-06
1.73305e-06
1.73236e-06
1.72867e-06
1.72866e-06
1.72866e-06
1.72866e-06
1.72866e-06
1.72867e-06
1.73304e-06
1.73505e-06
1.73447e-06
1.73205e-06
1.72867e-06
1.72867e-06
1.72867e-06
1.72867e-06
1.73281e-06
1.73302e-06
1.73497e-06
1.73474e-06
1.73288e-06
1.73298e-06
1.73307e-06
1.73305e-06
1.73304e-06
1.73302e-06
1.73496e-06
1.73494e-06
1.73473e-06
1.73305e-06
1.73504e-06
1.73497e-06
1.71589e-06
1.71572e-06
1.71555e-06
1.7134e-06
1.71328e-06
1.7132e-06
1.71338e-06
1.7155e-06
1.71576e-06
1.71555e-06
1.71269e-06
1.7097e-06
1.70969e-06
1.70969e-06
1.70969e-06
1.71307e-06
1.7139e-06
1.71339e-06
1.7097e-06
1.70969e-06
1.70969e-06
1.70969e-06
1.70969e-06
1.70969e-06
1.714e-06
1.71596e-06
1.71589e-06
1.71328e-06
1.70969e-06
1.70969e-06
1.70969e-06
1.70969e-06
1.70969e-06
1.70969e-06
1.71409e-06
1.71575e-06
1.71572e-06
1.7132e-06
1.70969e-06
1.70969e-06
1.70969e-06
1.70969e-06
1.70969e-06
1.70969e-06
1.71407e-06
1.71407e-06
1.71338e-06
1.7097e-06
1.70969e-06
1.70969e-06
1.70969e-06
1.70969e-06
1.70969e-06
1.71407e-06
1.71607e-06
1.7155e-06
1.71307e-06
1.70969e-06
1.70969e-06
1.70969e-06
1.7097e-06
1.71384e-06
1.71405e-06
1.71599e-06
1.71576e-06
1.7139e-06
1.714e-06
1.71409e-06
1.71407e-06
1.71407e-06
1.71405e-06
1.71598e-06
1.71596e-06
1.71575e-06
1.71407e-06
1.71607e-06
1.71599e-06
1.69692e-06
1.69675e-06
1.69657e-06
1.69442e-06
1.69431e-06
1.69422e-06
1.69441e-06
1.69652e-06
1.69679e-06
1.69657e-06
1.69371e-06
1.69072e-06
1.69072e-06
1.69072e-06
1.69072e-06
1.69409e-06
1.69493e-06
1.69442e-06
1.69072e-06
1.69072e-06
1.69072e-06
1.69072e-06
1.69072e-06
1.69072e-06
1.69502e-06
1.69699e-06
1.69692e-06
1.69431e-06
1.69072e-06
1.69072e-06
1.69072e-06
1.69072e-06
1.69072e-06
1.69072e-06
1.69512e-06
1.69678e-06
1.69675e-06
1.69422e-06
1.69072e-06
1.69072e-06
1.69072e-06
1.69072e-06
1.69072e-06
1.69072e-06
1.6951e-06
1.6951e-06
1.69441e-06
1.69072e-06
1.69072e-06
1.69072e-06
1.69072e-06
1.69072e-06
1.69072e-06
1.69509e-06
1.6971e-06
1.69652e-06
1.69409e-06
1.69072e-06
1.69072e-06
1.69072e-06
1.69072e-06
1.69486e-06
1.69508e-06
1.69701e-06
1.69679e-06
1.69493e-06
1.69502e-06
1.69512e-06
1.6951e-06
1.69509e-06
1.69508e-06
1.697e-06
1.69699e-06
1.69678e-06
1.6951e-06
1.6971e-06
1.69701e-06
1.67794e-06
1.67777e-06
1.6776e-06
1.67544e-06
1.67533e-06
1.67525e-06
1.67543e-06
1.67755e-06
1.67781e-06
1.6776e-06
1.67474e-06
1.67174e-06
1.67174e-06
1.67174e-06
1.67174e-06
1.67512e-06
1.67595e-06
1.67544e-06
1.67174e-06
1.67174e-06
1.67174e-06
1.67174e-06
1.67174e-06
1.67174e-06
1.67605e-06
1.67801e-06
1.67794e-06
1.67533e-06
1.67174e-06
1.67174e-06
1.67174e-06
1.67174e-06
1.67174e-06
1.67174e-06
1.67614e-06
1.67781e-06
1.67778e-06
1.67525e-06
1.67174e-06
1.67174e-06
1.67174e-06
1.67174e-06
1.67174e-06
1.67174e-06
1.67612e-06
1.67612e-06
1.67543e-06
1.67174e-06
1.67174e-06
1.67174e-06
1.67174e-06
1.67174e-06
1.67174e-06
1.67612e-06
1.67812e-06
1.67755e-06
1.67512e-06
1.67174e-06
1.67174e-06
1.67174e-06
1.67174e-06
1.67589e-06
1.6761e-06
1.67804e-06
1.67781e-06
1.67595e-06
1.67605e-06
1.67614e-06
1.67612e-06
1.67612e-06
1.6761e-06
1.67803e-06
1.67801e-06
1.67781e-06
1.67612e-06
1.67812e-06
1.67804e-06
1.65897e-06
1.6588e-06
1.65862e-06
1.65647e-06
1.65636e-06
1.65627e-06
1.65646e-06
1.65857e-06
1.65884e-06
1.65862e-06
1.65576e-06
1.65277e-06
1.65277e-06
1.65277e-06
1.65277e-06
1.65614e-06
1.65697e-06
1.65647e-06
1.65277e-06
1.65277e-06
1.65277e-06
1.65277e-06
1.65277e-06
1.65277e-06
1.65707e-06
1.65904e-06
1.65897e-06
1.65636e-06
1.65277e-06
1.65277e-06
1.65277e-06
1.65277e-06
1.65277e-06
1.65277e-06
1.65717e-06
1.65883e-06
1.6588e-06
1.65627e-06
1.65277e-06
1.65277e-06
1.65277e-06
1.65277e-06
1.65277e-06
1.65277e-06
1.65715e-06
1.65715e-06
1.65646e-06
1.65277e-06
1.65277e-06
1.65277e-06
1.65277e-06
1.65277e-06
1.65277e-06
1.65714e-06
1.65915e-06
1.65857e-06
1.65614e-06
1.65277e-06
1.65277e-06
1.65277e-06
1.65277e-06
1.65691e-06
1.65713e-06
1.65906e-06
1.65884e-06
1.65698e-06
1.65707e-06
1.65717e-06
1.65715e-06
1.65714e-06
1.65713e-06
1.65905e-06
1.65904e-06
1.65883e-06
1.65715e-06
1.65915e-06
1.65906e-06
1.64e-06
1.63983e-06
1.63965e-06
1.6375e-06
1.63738e-06
1.6373e-06
1.63748e-06
1.6396e-06
1.63986e-06
1.63965e-06
1.63679e-06
1.6338e-06
1.6338e-06
1.6338e-06
1.6338e-06
1.63717e-06
1.638e-06
1.63749e-06
1.6338e-06
1.6338e-06
1.6338e-06
1.6338e-06
1.6338e-06
1.6338e-06
1.6381e-06
1.64007e-06
1.63999e-06
1.63738e-06
1.6338e-06
1.6338e-06
1.6338e-06
1.6338e-06
1.6338e-06
1.6338e-06
1.63819e-06
1.63986e-06
1.63983e-06
1.6373e-06
1.6338e-06
1.6338e-06
1.6338e-06
1.6338e-06
1.6338e-06
1.6338e-06
1.63818e-06
1.63817e-06
1.63748e-06
1.6338e-06
1.6338e-06
1.6338e-06
1.6338e-06
1.6338e-06
1.6338e-06
1.63817e-06
1.64017e-06
1.6396e-06
1.63717e-06
1.6338e-06
1.6338e-06
1.6338e-06
1.6338e-06
1.63794e-06
1.63815e-06
1.64009e-06
1.63986e-06
1.638e-06
1.6381e-06
1.63819e-06
1.63817e-06
1.63817e-06
1.63815e-06
1.64008e-06
1.64006e-06
1.63986e-06
1.63817e-06
1.64017e-06
1.64009e-06
1.62102e-06
1.62085e-06
1.62068e-06
1.61852e-06
1.61841e-06
1.61832e-06
1.61851e-06
1.62062e-06
1.62089e-06
1.62067e-06
1.61781e-06
1.61482e-06
1.61482e-06
1.61482e-06
1.61482e-06
1.6182e-06
1.61903e-06
1.61852e-06
1.61482e-06
1.61482e-06
1.61482e-06
1.61482e-06
1.61482e-06
1.61482e-06
1.61913e-06
1.62109e-06
1.62102e-06
1.61841e-06
1.61482e-06
1.61482e-06
1.61482e-06
1.61482e-06
1.61482e-06
1.61482e-06
1.61922e-06
1.62088e-06
1.62085e-06
1.61832e-06
1.61482e-06
1.61482e-06
1.61482e-06
1.61482e-06
1.61482e-06
1.61482e-06
1.6192e-06
1.6192e-06
1.61851e-06
1.61482e-06
1.61482e-06
1.61482e-06
1.61482e-06
1.61482e-06
1.61482e-06
1.61919e-06
1.6212e-06
1.62062e-06
1.6182e-06
1.61482e-06
1.61482e-06
1.61482e-06
1.61482e-06
1.61896e-06
1.61918e-06
1.62112e-06
1.62089e-06
1.61903e-06
1.61913e-06
1.61922e-06
1.6192e-06
1.61919e-06
1.61918e-06
1.6211e-06
1.62109e-06
1.62088e-06
1.6192e-06
1.6212e-06
1.62112e-06
1.60204e-06
1.60187e-06
1.6017e-06
1.59954e-06
1.59943e-06
1.59935e-06
1.59953e-06
1.60165e-06
1.60191e-06
1.6017e-06
1.59884e-06
1.59584e-06
1.59584e-06
1.59584e-06
1.59584e-06
1.59922e-06
1.60005e-06
1.59954e-06
1.59584e-06
1.59584e-06
1.59584e-06
1.59584e-06
1.59584e-06
1.59584e-06
1.60015e-06
1.60211e-06
1.60204e-06
1.59943e-06
1.59584e-06
1.59584e-06
1.59584e-06
1.59584e-06
1.59584e-06
1.59584e-06
1.60024e-06
1.60191e-06
1.60187e-06
1.59935e-06
1.59584e-06
1.59584e-06
1.59584e-06
1.59584e-06
1.59584e-06
1.59584e-06
1.60022e-06
1.60022e-06
1.59953e-06
1.59584e-06
1.59584e-06
1.59584e-06
1.59584e-06
1.59584e-06
1.59584e-06
1.60022e-06
1.60222e-06
1.60165e-06
1.59922e-06
1.59584e-06
1.59584e-06
1.59584e-06
1.59584e-06
1.59999e-06
1.6002e-06
1.60214e-06
1.60191e-06
1.60005e-06
1.60015e-06
1.60024e-06
1.60022e-06
1.60022e-06
1.6002e-06
1.60213e-06
1.60211e-06
1.60191e-06
1.60022e-06
1.60222e-06
1.60214e-06
1.58307e-06
1.5829e-06
1.58272e-06
1.58057e-06
1.58045e-06
1.58037e-06
1.58055e-06
1.58267e-06
1.58293e-06
1.58272e-06
1.57986e-06
1.57687e-06
1.57687e-06
1.57687e-06
1.57687e-06
1.58024e-06
1.58107e-06
1.58057e-06
1.57687e-06
1.57687e-06
1.57687e-06
1.57687e-06
1.57687e-06
1.57687e-06
1.58117e-06
1.58314e-06
1.58307e-06
1.58045e-06
1.57687e-06
1.57687e-06
1.57687e-06
1.57687e-06
1.57687e-06
1.57687e-06
1.58126e-06
1.58293e-06
1.5829e-06
1.58037e-06
1.57687e-06
1.57687e-06
1.57687e-06
1.57687e-06
1.57687e-06
1.57687e-06
1.58125e-06
1.58124e-06
1.58055e-06
1.57687e-06
1.57687e-06
1.57687e-06
1.57687e-06
1.57687e-06
1.57687e-06
1.58124e-06
1.58325e-06
1.58267e-06
1.58024e-06
1.57687e-06
1.57687e-06
1.57687e-06
1.57687e-06
1.58101e-06
1.58122e-06
1.58316e-06
1.58293e-06
1.58107e-06
1.58117e-06
1.58126e-06
1.58124e-06
1.58124e-06
1.58122e-06
1.58315e-06
1.58314e-06
1.58293e-06
1.58125e-06
1.58325e-06
1.58316e-06
1.56409e-06
1.56392e-06
1.56374e-06
1.56159e-06
1.56148e-06
1.56139e-06
1.56158e-06
1.56369e-06
1.56396e-06
1.56374e-06
1.56088e-06
1.55789e-06
1.55789e-06
1.55789e-06
1.55789e-06
1.56126e-06
1.56209e-06
1.56159e-06
1.55789e-06
1.55789e-06
1.55789e-06
1.55789e-06
1.55789e-06
1.55789e-06
1.56219e-06
1.56416e-06
1.56409e-06
1.56147e-06
1.55789e-06
1.55789e-06
1.55789e-06
1.55789e-06
1.55789e-06
1.55789e-06
1.56229e-06
1.56395e-06
1.56392e-06
1.56139e-06
1.55789e-06
1.55789e-06
1.55789e-06
1.55789e-06
1.55789e-06
1.55789e-06
1.56227e-06
1.56227e-06
1.56157e-06
1.55789e-06
1.55789e-06
1.55789e-06
1.55789e-06
1.55789e-06
1.55789e-06
1.56226e-06
1.56427e-06
1.56369e-06
1.56126e-06
1.55789e-06
1.55789e-06
1.55789e-06
1.55789e-06
1.56203e-06
1.56225e-06
1.56418e-06
1.56396e-06
1.56209e-06
1.56219e-06
1.56229e-06
1.56227e-06
1.56226e-06
1.56225e-06
1.56417e-06
1.56416e-06
1.56395e-06
1.56227e-06
1.56427e-06
1.56418e-06
1.54511e-06
1.54494e-06
1.54476e-06
1.54261e-06
1.5425e-06
1.54241e-06
1.5426e-06
1.54471e-06
1.54498e-06
1.54477e-06
1.5419e-06
1.53891e-06
1.53891e-06
1.53891e-06
1.53891e-06
1.54229e-06
1.54312e-06
1.54261e-06
1.53891e-06
1.53891e-06
1.53891e-06
1.53891e-06
1.53891e-06
1.53891e-06
1.54322e-06
1.54518e-06
1.54511e-06
1.5425e-06
1.53891e-06
1.53891e-06
1.53891e-06
1.53891e-06
1.53891e-06
1.53891e-06
1.54331e-06
1.54497e-06
1.54494e-06
1.54241e-06
1.53891e-06
1.53891e-06
1.53891e-06
1.53891e-06
1.53891e-06
1.53891e-06
1.54329e-06
1.54329e-06
1.5426e-06
1.53891e-06
1.53891e-06
1.53891e-06
1.53891e-06
1.53891e-06
1.53891e-06
1.54328e-06
1.54529e-06
1.54471e-06
1.54229e-06
1.53891e-06
1.53891e-06
1.53891e-06
1.53891e-06
1.54305e-06
1.54327e-06
1.54521e-06
1.54498e-06
1.54312e-06
1.54322e-06
1.54331e-06
1.54329e-06
1.54328e-06
1.54327e-06
1.54519e-06
1.54518e-06
1.54497e-06
1.54329e-06
1.54529e-06
1.54521e-06
1.52613e-06
1.52596e-06
1.52579e-06
1.52363e-06
1.52352e-06
1.52343e-06
1.52362e-06
1.52574e-06
1.526e-06
1.52579e-06
1.52293e-06
1.51993e-06
1.51993e-06
1.51993e-06
1.51993e-06
1.52331e-06
1.52414e-06
1.52363e-06
1.51993e-06
1.51993e-06
1.51993e-06
1.51993e-06
1.51993e-06
1.51993e-06
1.52424e-06
1.5262e-06
1.52613e-06
1.52352e-06
1.51993e-06
1.51993e-06
1.51993e-06
1.51993e-06
1.51993e-06
1.51993e-06
1.52433e-06
1.52599e-06
1.52596e-06
1.52344e-06
1.51993e-06
1.51993e-06
1.51993e-06
1.51993e-06
1.51993e-06
1.51993e-06
1.52431e-06
1.52431e-06
1.52362e-06
1.51993e-06
1.51993e-06
1.51993e-06
1.51993e-06
1.51993e-06
1.51993e-06
1.5243e-06
1.52631e-06
1.52574e-06
1.52331e-06
1.51993e-06
1.51993e-06
1.51993e-06
1.51993e-06
1.52408e-06
1.52429e-06
1.52623e-06
1.526e-06
1.52414e-06
1.52424e-06
1.52433e-06
1.52431e-06
1.5243e-06
1.52429e-06
1.52622e-06
1.5262e-06
1.52599e-06
1.52431e-06
1.52631e-06
1.52623e-06
1.50716e-06
1.50699e-06
1.50681e-06
1.50466e-06
1.50454e-06
1.50446e-06
1.50464e-06
1.50676e-06
1.50702e-06
1.50681e-06
1.50395e-06
1.50096e-06
1.50096e-06
1.50096e-06
1.50096e-06
1.50433e-06
1.50516e-06
1.50465e-06
1.50095e-06
1.50095e-06
1.50095e-06
1.50095e-06
1.50095e-06
1.50095e-06
1.50526e-06
1.50723e-06
1.50716e-06
1.50454e-06
1.50095e-06
1.50095e-06
1.50095e-06
1.50095e-06
1.50095e-06
1.50095e-06
1.50535e-06
1.50702e-06
1.50699e-06
1.50446e-06
1.50095e-06
1.50095e-06
1.50095e-06
1.50095e-06
1.50095e-06
1.50095e-06
1.50533e-06
1.50533e-06
1.50464e-06
1.50095e-06
1.50095e-06
1.50095e-06
1.50095e-06
1.50095e-06
1.50095e-06
1.50533e-06
1.50733e-06
1.50676e-06
1.50433e-06
1.50095e-06
1.50095e-06
1.50095e-06
1.50095e-06
1.5051e-06
1.50531e-06
1.50725e-06
1.50702e-06
1.50516e-06
1.50526e-06
1.50535e-06
1.50533e-06
1.50533e-06
1.50531e-06
1.50724e-06
1.50722e-06
1.50702e-06
1.50533e-06
1.50733e-06
1.50725e-06
1.48818e-06
1.48801e-06
1.48783e-06
1.48568e-06
1.48556e-06
1.48548e-06
1.48566e-06
1.48778e-06
1.48805e-06
1.48783e-06
1.48497e-06
1.48198e-06
1.48198e-06
1.48198e-06
1.48198e-06
1.48535e-06
1.48618e-06
1.48568e-06
1.48198e-06
1.48198e-06
1.48198e-06
1.48198e-06
1.48198e-06
1.48198e-06
1.48628e-06
1.48825e-06
1.48818e-06
1.48556e-06
1.48198e-06
1.48198e-06
1.48198e-06
1.48198e-06
1.48198e-06
1.48198e-06
1.48638e-06
1.48804e-06
1.48801e-06
1.48548e-06
1.48198e-06
1.48198e-06
1.48198e-06
1.48198e-06
1.48198e-06
1.48198e-06
1.48636e-06
1.48636e-06
1.48566e-06
1.48198e-06
1.48198e-06
1.48198e-06
1.48198e-06
1.48198e-06
1.48198e-06
1.48635e-06
1.48836e-06
1.48778e-06
1.48535e-06
1.48198e-06
1.48198e-06
1.48198e-06
1.48198e-06
1.48612e-06
1.48634e-06
1.48827e-06
1.48804e-06
1.48618e-06
1.48628e-06
1.48638e-06
1.48636e-06
1.48635e-06
1.48633e-06
1.48826e-06
1.48825e-06
1.48804e-06
1.48636e-06
1.48836e-06
1.48827e-06
1.4692e-06
1.46903e-06
1.46885e-06
1.4667e-06
1.46659e-06
1.4665e-06
1.46669e-06
1.4688e-06
1.46907e-06
1.46886e-06
1.46599e-06
1.463e-06
1.463e-06
1.463e-06
1.463e-06
1.46638e-06
1.46721e-06
1.4667e-06
1.463e-06
1.463e-06
1.463e-06
1.463e-06
1.463e-06
1.463e-06
1.46731e-06
1.46927e-06
1.4692e-06
1.46659e-06
1.463e-06
1.463e-06
1.463e-06
1.463e-06
1.463e-06
1.463e-06
1.4674e-06
1.46906e-06
1.46903e-06
1.4665e-06
1.463e-06
1.463e-06
1.463e-06
1.463e-06
1.463e-06
1.463e-06
1.46738e-06
1.46738e-06
1.46669e-06
1.463e-06
1.463e-06
1.463e-06
1.463e-06
1.463e-06
1.463e-06
1.46737e-06
1.46938e-06
1.4688e-06
1.46638e-06
1.463e-06
1.463e-06
1.463e-06
1.463e-06
1.46715e-06
1.46736e-06
1.4693e-06
1.46907e-06
1.46721e-06
1.46731e-06
1.4674e-06
1.46738e-06
1.46737e-06
1.46736e-06
1.46928e-06
1.46927e-06
1.46906e-06
1.46738e-06
1.46938e-06
1.4693e-06
1.45022e-06
1.45005e-06
1.44988e-06
1.44772e-06
1.44761e-06
1.44753e-06
1.44771e-06
1.44983e-06
1.45009e-06
1.44988e-06
1.44702e-06
1.44402e-06
1.44402e-06
1.44402e-06
1.44402e-06
1.4474e-06
1.44823e-06
1.44772e-06
1.44402e-06
1.44402e-06
1.44402e-06
1.44402e-06
1.44402e-06
1.44402e-06
1.44833e-06
1.45029e-06
1.45022e-06
1.44761e-06
1.44402e-06
1.44402e-06
1.44402e-06
1.44402e-06
1.44402e-06
1.44402e-06
1.44842e-06
1.45009e-06
1.45005e-06
1.44753e-06
1.44402e-06
1.44402e-06
1.44402e-06
1.44402e-06
1.44402e-06
1.44402e-06
1.4484e-06
1.4484e-06
1.44771e-06
1.44402e-06
1.44402e-06
1.44402e-06
1.44402e-06
1.44402e-06
1.44402e-06
1.4484e-06
1.4504e-06
1.44983e-06
1.4474e-06
1.44402e-06
1.44402e-06
1.44402e-06
1.44402e-06
1.44817e-06
1.44838e-06
1.45032e-06
1.45009e-06
1.44823e-06
1.44833e-06
1.44842e-06
1.4484e-06
1.4484e-06
1.44838e-06
1.45031e-06
1.45029e-06
1.45009e-06
1.4484e-06
1.4504e-06
1.45032e-06
1.43125e-06
1.43108e-06
1.4309e-06
1.42875e-06
1.42863e-06
1.42855e-06
1.42873e-06
1.43085e-06
1.43111e-06
1.4309e-06
1.42804e-06
1.42505e-06
1.42505e-06
1.42505e-06
1.42505e-06
1.42842e-06
1.42925e-06
1.42875e-06
1.42505e-06
1.42505e-06
1.42505e-06
1.42505e-06
1.42505e-06
1.42505e-06
1.42935e-06
1.43132e-06
1.43125e-06
1.42863e-06
1.42505e-06
1.42505e-06
1.42505e-06
1.42505e-06
1.42505e-06
1.42505e-06
1.42945e-06
1.43111e-06
1.43108e-06
1.42855e-06
1.42505e-06
1.42505e-06
1.42505e-06
1.42505e-06
1.42505e-06
1.42505e-06
1.42943e-06
1.42943e-06
1.42873e-06
1.42505e-06
1.42505e-06
1.42505e-06
1.42505e-06
1.42505e-06
1.42505e-06
1.42942e-06
1.43143e-06
1.43085e-06
1.42842e-06
1.42505e-06
1.42505e-06
1.42505e-06
1.42505e-06
1.42919e-06
1.4294e-06
1.43134e-06
1.43111e-06
1.42925e-06
1.42935e-06
1.42944e-06
1.42943e-06
1.42942e-06
1.4294e-06
1.43133e-06
1.43132e-06
1.43111e-06
1.42942e-06
1.43143e-06
1.43134e-06
1.41227e-06
1.4121e-06
1.41192e-06
1.40977e-06
1.40966e-06
1.40957e-06
1.40976e-06
1.41187e-06
1.41214e-06
1.41192e-06
1.40906e-06
1.40607e-06
1.40607e-06
1.40607e-06
1.40607e-06
1.40944e-06
1.41027e-06
1.40977e-06
1.40607e-06
1.40607e-06
1.40607e-06
1.40607e-06
1.40607e-06
1.40607e-06
1.41037e-06
1.41234e-06
1.41227e-06
1.40966e-06
1.40607e-06
1.40607e-06
1.40607e-06
1.40607e-06
1.40607e-06
1.40607e-06
1.41047e-06
1.41213e-06
1.4121e-06
1.40957e-06
1.40607e-06
1.40607e-06
1.40607e-06
1.40607e-06
1.40607e-06
1.40607e-06
1.41045e-06
1.41045e-06
1.40976e-06
1.40607e-06
1.40607e-06
1.40607e-06
1.40607e-06
1.40607e-06
1.40607e-06
1.41044e-06
1.41245e-06
1.41187e-06
1.40944e-06
1.40607e-06
1.40607e-06
1.40607e-06
1.40607e-06
1.41021e-06
1.41043e-06
1.41236e-06
1.41214e-06
1.41028e-06
1.41037e-06
1.41047e-06
1.41045e-06
1.41044e-06
1.41043e-06
1.41235e-06
1.41234e-06
1.41213e-06
1.41045e-06
1.41245e-06
1.41236e-06
1.39329e-06
1.39312e-06
1.39295e-06
1.39079e-06
1.39068e-06
1.39059e-06
1.39078e-06
1.39289e-06
1.39316e-06
1.39295e-06
1.39008e-06
1.38709e-06
1.38709e-06
1.38709e-06
1.38709e-06
1.39047e-06
1.3913e-06
1.39079e-06
1.38709e-06
1.38709e-06
1.38709e-06
1.38709e-06
1.38709e-06
1.38709e-06
1.3914e-06
1.39336e-06
1.39329e-06
1.39068e-06
1.38709e-06
1.38709e-06
1.38709e-06
1.38709e-06
1.38709e-06
1.38709e-06
1.39149e-06
1.39315e-06
1.39312e-06
1.3906e-06
1.38709e-06
1.38709e-06
1.38709e-06
1.38709e-06
1.38709e-06
1.38709e-06
1.39147e-06
1.39147e-06
1.39078e-06
1.38709e-06
1.38709e-06
1.38709e-06
1.38709e-06
1.38709e-06
1.38709e-06
1.39146e-06
1.39347e-06
1.3929e-06
1.39047e-06
1.38709e-06
1.38709e-06
1.38709e-06
1.38709e-06
1.39124e-06
1.39145e-06
1.39339e-06
1.39316e-06
1.3913e-06
1.3914e-06
1.39149e-06
1.39147e-06
1.39146e-06
1.39145e-06
1.39338e-06
1.39336e-06
1.39315e-06
1.39147e-06
1.39347e-06
1.39339e-06
1.37432e-06
1.37415e-06
1.37397e-06
1.37182e-06
1.3717e-06
1.37162e-06
1.3718e-06
1.37392e-06
1.37418e-06
1.37397e-06
1.37111e-06
1.36812e-06
1.36812e-06
1.36812e-06
1.36812e-06
1.37149e-06
1.37232e-06
1.37182e-06
1.36812e-06
1.36812e-06
1.36812e-06
1.36812e-06
1.36812e-06
1.36812e-06
1.37242e-06
1.37439e-06
1.37432e-06
1.3717e-06
1.36812e-06
1.36812e-06
1.36812e-06
1.36812e-06
1.36812e-06
1.36812e-06
1.37251e-06
1.37418e-06
1.37415e-06
1.37162e-06
1.36812e-06
1.36812e-06
1.36812e-06
1.36812e-06
1.36812e-06
1.36812e-06
1.3725e-06
1.37249e-06
1.3718e-06
1.36812e-06
1.36812e-06
1.36812e-06
1.36812e-06
1.36812e-06
1.36812e-06
1.37249e-06
1.3745e-06
1.37392e-06
1.37149e-06
1.36812e-06
1.36812e-06
1.36812e-06
1.36812e-06
1.37226e-06
1.37247e-06
1.37441e-06
1.37418e-06
1.37232e-06
1.37242e-06
1.37251e-06
1.37249e-06
1.37249e-06
1.37247e-06
1.3744e-06
1.37439e-06
1.37418e-06
1.37249e-06
1.37449e-06
1.37441e-06
1.35534e-06
1.35517e-06
1.35499e-06
1.35284e-06
1.35273e-06
1.35264e-06
1.35283e-06
1.35494e-06
1.35521e-06
1.35499e-06
1.35213e-06
1.34914e-06
1.34914e-06
1.34914e-06
1.34914e-06
1.35251e-06
1.35334e-06
1.35284e-06
1.34914e-06
1.34914e-06
1.34914e-06
1.34914e-06
1.34914e-06
1.34914e-06
1.35344e-06
1.35541e-06
1.35534e-06
1.35273e-06
1.34914e-06
1.34914e-06
1.34914e-06
1.34914e-06
1.34914e-06
1.34914e-06
1.35354e-06
1.3552e-06
1.35517e-06
1.35264e-06
1.34914e-06
1.34914e-06
1.34914e-06
1.34914e-06
1.34914e-06
1.34914e-06
1.35352e-06
1.35352e-06
1.35283e-06
1.34914e-06
1.34914e-06
1.34914e-06
1.34914e-06
1.34914e-06
1.34914e-06
1.35351e-06
1.35552e-06
1.35494e-06
1.35251e-06
1.34914e-06
1.34914e-06
1.34914e-06
1.34914e-06
1.35328e-06
1.3535e-06
1.35543e-06
1.35521e-06
1.35335e-06
1.35344e-06
1.35354e-06
1.35352e-06
1.35351e-06
1.3535e-06
1.35542e-06
1.35541e-06
1.3552e-06
1.35352e-06
1.35552e-06
1.35543e-06
1.33636e-06
1.33619e-06
1.33602e-06
1.33386e-06
1.33375e-06
1.33366e-06
1.33385e-06
1.33596e-06
1.33623e-06
1.33602e-06
1.33315e-06
1.33016e-06
1.33016e-06
1.33016e-06
1.33016e-06
1.33354e-06
1.33437e-06
1.33386e-06
1.33016e-06
1.33016e-06
1.33016e-06
1.33016e-06
1.33016e-06
1.33016e-06
1.33447e-06
1.33643e-06
1.33636e-06
1.33375e-06
1.33016e-06
1.33016e-06
1.33016e-06
1.33016e-06
1.33016e-06
1.33016e-06
1.33456e-06
1.33622e-06
1.33619e-06
1.33366e-06
1.33016e-06
1.33016e-06
1.33016e-06
1.33016e-06
1.33016e-06
1.33016e-06
1.33454e-06
1.33454e-06
1.33385e-06
1.33016e-06
1.33016e-06
1.33016e-06
1.33016e-06
1.33016e-06
1.33016e-06
1.33453e-06
1.33654e-06
1.33597e-06
1.33354e-06
1.33016e-06
1.33016e-06
1.33016e-06
1.33016e-06
1.33431e-06
1.33452e-06
1.33646e-06
1.33623e-06
1.33437e-06
1.33447e-06
1.33456e-06
1.33454e-06
1.33453e-06
1.33452e-06
1.33645e-06
1.33643e-06
1.33622e-06
1.33454e-06
1.33654e-06
1.33646e-06
1.31738e-06
1.31722e-06
1.31704e-06
1.31489e-06
1.31477e-06
1.31469e-06
1.31487e-06
1.31699e-06
1.31725e-06
1.31704e-06
1.31418e-06
1.31118e-06
1.31118e-06
1.31118e-06
1.31118e-06
1.31456e-06
1.31539e-06
1.31488e-06
1.31118e-06
1.31118e-06
1.31118e-06
1.31118e-06
1.31118e-06
1.31118e-06
1.31549e-06
1.31746e-06
1.31738e-06
1.31477e-06
1.31118e-06
1.31118e-06
1.31118e-06
1.31118e-06
1.31118e-06
1.31118e-06
1.31558e-06
1.31725e-06
1.31722e-06
1.31469e-06
1.31118e-06
1.31118e-06
1.31118e-06
1.31118e-06
1.31118e-06
1.31118e-06
1.31556e-06
1.31556e-06
1.31487e-06
1.31118e-06
1.31118e-06
1.31118e-06
1.31118e-06
1.31118e-06
1.31118e-06
1.31556e-06
1.31756e-06
1.31699e-06
1.31456e-06
1.31118e-06
1.31118e-06
1.31118e-06
1.31118e-06
1.31533e-06
1.31554e-06
1.31748e-06
1.31725e-06
1.31539e-06
1.31549e-06
1.31558e-06
1.31556e-06
1.31556e-06
1.31554e-06
1.31747e-06
1.31745e-06
1.31725e-06
1.31556e-06
1.31756e-06
1.31748e-06
1.29841e-06
1.29824e-06
1.29806e-06
1.29591e-06
1.29579e-06
1.29571e-06
1.29589e-06
1.29801e-06
1.29828e-06
1.29806e-06
1.2952e-06
1.29221e-06
1.29221e-06
1.29221e-06
1.29221e-06
1.29558e-06
1.29641e-06
1.29591e-06
1.29221e-06
1.29221e-06
1.29221e-06
1.29221e-06
1.29221e-06
1.29221e-06
1.29651e-06
1.29848e-06
1.29841e-06
1.29579e-06
1.29221e-06
1.29221e-06
1.29221e-06
1.29221e-06
1.29221e-06
1.29221e-06
1.29661e-06
1.29827e-06
1.29824e-06
1.29571e-06
1.29221e-06
1.29221e-06
1.29221e-06
1.29221e-06
1.29221e-06
1.29221e-06
1.29659e-06
1.29659e-06
1.29589e-06
1.29221e-06
1.29221e-06
1.29221e-06
1.29221e-06
1.29221e-06
1.29221e-06
1.29658e-06
1.29859e-06
1.29801e-06
1.29558e-06
1.29221e-06
1.29221e-06
1.29221e-06
1.29221e-06
1.29635e-06
1.29657e-06
1.2985e-06
1.29828e-06
1.29641e-06
1.29651e-06
1.29661e-06
1.29659e-06
1.29658e-06
1.29657e-06
1.29849e-06
1.29848e-06
1.29827e-06
1.29659e-06
1.29859e-06
1.2985e-06
1.27943e-06
1.27926e-06
1.27909e-06
1.27693e-06
1.27682e-06
1.27673e-06
1.27692e-06
1.27903e-06
1.2793e-06
1.27909e-06
1.27622e-06
1.27323e-06
1.27323e-06
1.27323e-06
1.27323e-06
1.27661e-06
1.27744e-06
1.27693e-06
1.27323e-06
1.27323e-06
1.27323e-06
1.27323e-06
1.27323e-06
1.27323e-06
1.27754e-06
1.2795e-06
1.27943e-06
1.27682e-06
1.27323e-06
1.27323e-06
1.27323e-06
1.27323e-06
1.27323e-06
1.27323e-06
1.27763e-06
1.27929e-06
1.27926e-06
1.27673e-06
1.27323e-06
1.27323e-06
1.27323e-06
1.27323e-06
1.27323e-06
1.27323e-06
1.27761e-06
1.27761e-06
1.27692e-06
1.27323e-06
1.27323e-06
1.27323e-06
1.27323e-06
1.27323e-06
1.27323e-06
1.2776e-06
1.27961e-06
1.27904e-06
1.27661e-06
1.27323e-06
1.27323e-06
1.27323e-06
1.27323e-06
1.27738e-06
1.27759e-06
1.27953e-06
1.2793e-06
1.27744e-06
1.27754e-06
1.27763e-06
1.27761e-06
1.2776e-06
1.27759e-06
1.27952e-06
1.2795e-06
1.27929e-06
1.27761e-06
1.27961e-06
1.27953e-06
1.26046e-06
1.26029e-06
1.26011e-06
1.25796e-06
1.25784e-06
1.25776e-06
1.25794e-06
1.26006e-06
1.26032e-06
1.26011e-06
1.25725e-06
1.25426e-06
1.25426e-06
1.25426e-06
1.25426e-06
1.25763e-06
1.25846e-06
1.25796e-06
1.25426e-06
1.25426e-06
1.25426e-06
1.25426e-06
1.25426e-06
1.25426e-06
1.25856e-06
1.26053e-06
1.26046e-06
1.25784e-06
1.25426e-06
1.25426e-06
1.25426e-06
1.25426e-06
1.25426e-06
1.25426e-06
1.25865e-06
1.26032e-06
1.26029e-06
1.25776e-06
1.25426e-06
1.25426e-06
1.25426e-06
1.25426e-06
1.25426e-06
1.25426e-06
1.25864e-06
1.25863e-06
1.25794e-06
1.25426e-06
1.25426e-06
1.25426e-06
1.25426e-06
1.25426e-06
1.25426e-06
1.25863e-06
1.26064e-06
1.26006e-06
1.25763e-06
1.25426e-06
1.25426e-06
1.25426e-06
1.25426e-06
1.2584e-06
1.25861e-06
1.26055e-06
1.26032e-06
1.25846e-06
1.25856e-06
1.25865e-06
1.25863e-06
1.25863e-06
1.25861e-06
1.26054e-06
1.26053e-06
1.26032e-06
1.25863e-06
1.26063e-06
1.26055e-06
1.24148e-06
1.24131e-06
1.24113e-06
1.23898e-06
1.23887e-06
1.23878e-06
1.23897e-06
1.24108e-06
1.24135e-06
1.24113e-06
1.23827e-06
1.23528e-06
1.23528e-06
1.23528e-06
1.23528e-06
1.23865e-06
1.23949e-06
1.23898e-06
1.23528e-06
1.23528e-06
1.23528e-06
1.23528e-06
1.23528e-06
1.23528e-06
1.23958e-06
1.24155e-06
1.24148e-06
1.23887e-06
1.23528e-06
1.23528e-06
1.23528e-06
1.23528e-06
1.23528e-06
1.23528e-06
1.23968e-06
1.24134e-06
1.24131e-06
1.23878e-06
1.23528e-06
1.23528e-06
1.23528e-06
1.23528e-06
1.23528e-06
1.23528e-06
1.23966e-06
1.23966e-06
1.23897e-06
1.23528e-06
1.23528e-06
1.23528e-06
1.23528e-06
1.23528e-06
1.23528e-06
1.23965e-06
1.24166e-06
1.24108e-06
1.23865e-06
1.23528e-06
1.23528e-06
1.23528e-06
1.23528e-06
1.23942e-06
1.23964e-06
1.24157e-06