/*--------------------------------*- C++ -*----------------------------------*\
| =========                 |                                                 |
| \\      /  F ield         | OpenFOAM: The Open Source CFD Toolbox           |
|  \\    /   O peration     | Version:  v2012                                 |
|   \\  /    A nd           | Website:  www.openfoam.com                      |
|    \\/     M anipulation  |                                                 |
\*---------------------------------------------------------------------------*/
FoamFile
{
    version     2.0;
    format      ascii;
    class       volScalarField;
    location    "90.5";
    object      p;
}
// * * * * * * * * * * * * * * * * * * * * * * * * * * * * * * * * * * * * * //

dimensions      [0 2 -2 0 0 0 0];


internalField   nonuniform List<scalar> 
247104
(
8.9676e-07
8.96724e-07
8.96722e-07
8.9669e-07
8.96668e-07
8.96695e-07
8.96723e-07
8.96714e-07
8.96724e-07
8.96705e-07
8.96553e-07
8.96408e-07
8.96356e-07
8.96422e-07
8.96575e-07
8.96716e-07
8.96722e-07
8.96553e-07
8.96285e-07
8.96083e-07
8.96016e-07
8.96102e-07
8.96317e-07
8.96585e-07
8.96724e-07
8.9669e-07
8.96408e-07
8.96083e-07
8.95853e-07
8.95778e-07
8.95874e-07
8.9612e-07
8.96449e-07
8.9671e-07
8.9676e-07
8.96668e-07
8.96356e-07
8.96016e-07
8.95778e-07
8.95702e-07
8.958e-07
8.96054e-07
8.964e-07
8.96694e-07
8.96695e-07
8.96422e-07
8.96102e-07
8.95874e-07
8.958e-07
8.95895e-07
8.96138e-07
8.96463e-07
8.96713e-07
8.96723e-07
8.96575e-07
8.96317e-07
8.9612e-07
8.96054e-07
8.96138e-07
8.96348e-07
8.96604e-07
8.96721e-07
8.96714e-07
8.96716e-07
8.96585e-07
8.96449e-07
8.964e-07
8.96463e-07
8.96604e-07
8.96724e-07
8.96724e-07
8.9671e-07
8.96694e-07
8.96713e-07
8.96721e-07
8.843e-07
8.84267e-07
8.84023e-07
8.83404e-07
8.83363e-07
8.83337e-07
8.83402e-07
8.84114e-07
8.84106e-07
8.84023e-07
8.83073e-07
8.81902e-07
8.81906e-07
8.81906e-07
8.81902e-07
8.83244e-07
8.83599e-07
8.83404e-07
8.81902e-07
8.81904e-07
8.81917e-07
8.81917e-07
8.81904e-07
8.81903e-07
8.83702e-07
8.84347e-07
8.843e-07
8.83363e-07
8.81906e-07
8.81917e-07
8.81927e-07
8.81927e-07
8.81917e-07
8.81906e-07
8.83735e-07
8.84299e-07
8.84267e-07
8.83337e-07
8.81906e-07
8.81917e-07
8.81927e-07
8.81927e-07
8.81917e-07
8.81906e-07
8.83718e-07
8.83742e-07
8.83402e-07
8.81903e-07
8.81904e-07
8.81917e-07
8.81917e-07
8.81904e-07
8.81903e-07
8.83722e-07
8.84417e-07
8.84114e-07
8.83244e-07
8.81903e-07
8.81906e-07
8.81906e-07
8.81903e-07
8.83534e-07
8.83685e-07
8.84294e-07
8.84106e-07
8.83599e-07
8.83702e-07
8.83735e-07
8.83718e-07
8.83722e-07
8.83685e-07
8.84257e-07
8.84347e-07
8.84299e-07
8.83742e-07
8.84417e-07
8.84294e-07
8.74809e-07
8.74787e-07
8.74634e-07
8.73964e-07
8.73902e-07
8.73875e-07
8.73958e-07
8.74721e-07
8.74738e-07
8.74634e-07
8.73624e-07
8.72423e-07
8.72425e-07
8.72426e-07
8.72423e-07
8.7378e-07
8.74168e-07
8.73964e-07
8.72423e-07
8.72427e-07
8.72434e-07
8.72434e-07
8.72427e-07
8.72423e-07
8.74245e-07
8.74922e-07
8.74809e-07
8.73902e-07
8.72426e-07
8.72434e-07
8.7244e-07
8.7244e-07
8.72434e-07
8.72426e-07
8.7426e-07
8.74825e-07
8.74787e-07
8.73875e-07
8.72426e-07
8.72434e-07
8.7244e-07
8.7244e-07
8.72434e-07
8.72426e-07
8.74239e-07
8.74294e-07
8.73958e-07
8.72423e-07
8.72427e-07
8.72434e-07
8.72434e-07
8.72427e-07
8.72423e-07
8.74259e-07
8.74968e-07
8.74721e-07
8.7378e-07
8.72423e-07
8.72425e-07
8.72426e-07
8.72423e-07
8.74054e-07
8.74249e-07
8.74895e-07
8.74738e-07
8.74168e-07
8.74245e-07
8.7426e-07
8.74239e-07
8.74259e-07
8.74249e-07
8.74887e-07
8.74922e-07
8.74824e-07
8.74294e-07
8.74968e-07
8.74895e-07
8.65368e-07
8.65345e-07
8.65192e-07
8.6452e-07
8.64458e-07
8.64431e-07
8.64515e-07
8.6528e-07
8.65297e-07
8.65192e-07
8.6418e-07
8.6297e-07
8.62972e-07
8.62972e-07
8.6297e-07
8.64334e-07
8.64725e-07
8.6452e-07
8.6297e-07
8.62973e-07
8.62976e-07
8.62976e-07
8.62973e-07
8.6297e-07
8.64799e-07
8.65481e-07
8.65368e-07
8.64458e-07
8.62972e-07
8.62976e-07
8.62978e-07
8.62979e-07
8.62976e-07
8.62972e-07
8.64813e-07
8.65383e-07
8.65345e-07
8.64431e-07
8.62972e-07
8.62976e-07
8.62979e-07
8.62979e-07
8.62976e-07
8.62972e-07
8.64791e-07
8.64851e-07
8.64515e-07
8.6297e-07
8.62973e-07
8.62976e-07
8.62976e-07
8.62973e-07
8.6297e-07
8.64813e-07
8.65527e-07
8.6528e-07
8.64334e-07
8.6297e-07
8.62972e-07
8.62972e-07
8.6297e-07
8.64606e-07
8.64805e-07
8.65454e-07
8.65297e-07
8.64725e-07
8.64799e-07
8.64813e-07
8.64791e-07
8.64813e-07
8.64805e-07
8.65446e-07
8.65481e-07
8.65383e-07
8.64851e-07
8.65527e-07
8.65454e-07
8.55919e-07
8.55897e-07
8.55743e-07
8.55071e-07
8.55008e-07
8.54982e-07
8.55066e-07
8.55831e-07
8.55849e-07
8.55743e-07
8.54731e-07
8.5352e-07
8.53521e-07
8.53521e-07
8.5352e-07
8.54885e-07
8.55276e-07
8.55071e-07
8.5352e-07
8.53522e-07
8.53523e-07
8.53523e-07
8.53523e-07
8.5352e-07
8.5535e-07
8.56032e-07
8.55919e-07
8.55008e-07
8.53521e-07
8.53523e-07
8.53524e-07
8.53524e-07
8.53523e-07
8.53521e-07
8.55363e-07
8.55934e-07
8.55897e-07
8.54982e-07
8.53521e-07
8.53523e-07
8.53524e-07
8.53524e-07
8.53523e-07
8.53521e-07
8.55341e-07
8.55402e-07
8.55066e-07
8.5352e-07
8.53523e-07
8.53523e-07
8.53523e-07
8.53522e-07
8.5352e-07
8.55364e-07
8.56078e-07
8.55831e-07
8.54885e-07
8.5352e-07
8.53521e-07
8.53521e-07
8.5352e-07
8.55157e-07
8.55356e-07
8.56006e-07
8.55849e-07
8.55276e-07
8.5535e-07
8.55363e-07
8.55341e-07
8.55364e-07
8.55356e-07
8.55998e-07
8.56032e-07
8.55934e-07
8.55402e-07
8.56078e-07
8.56006e-07
8.4647e-07
8.46448e-07
8.46294e-07
8.45622e-07
8.45559e-07
8.45533e-07
8.45617e-07
8.46382e-07
8.464e-07
8.46294e-07
8.45282e-07
8.44071e-07
8.44071e-07
8.44071e-07
8.44071e-07
8.45435e-07
8.45827e-07
8.45622e-07
8.44071e-07
8.44072e-07
8.44072e-07
8.44072e-07
8.44072e-07
8.44071e-07
8.45901e-07
8.46583e-07
8.4647e-07
8.45559e-07
8.44071e-07
8.44072e-07
8.44073e-07
8.44073e-07
8.44072e-07
8.44071e-07
8.45914e-07
8.46485e-07
8.46448e-07
8.45533e-07
8.44071e-07
8.44072e-07
8.44073e-07
8.44073e-07
8.44072e-07
8.44071e-07
8.45892e-07
8.45953e-07
8.45617e-07
8.44071e-07
8.44072e-07
8.44072e-07
8.44072e-07
8.44072e-07
8.44071e-07
8.45915e-07
8.46629e-07
8.46382e-07
8.45435e-07
8.44071e-07
8.44071e-07
8.44071e-07
8.44071e-07
8.45708e-07
8.45907e-07
8.46557e-07
8.464e-07
8.45827e-07
8.45901e-07
8.45914e-07
8.45892e-07
8.45915e-07
8.45907e-07
8.46549e-07
8.46583e-07
8.46486e-07
8.45953e-07
8.46629e-07
8.46557e-07
8.37021e-07
8.36999e-07
8.36845e-07
8.36173e-07
8.3611e-07
8.36083e-07
8.36167e-07
8.36933e-07
8.3695e-07
8.36845e-07
8.35832e-07
8.34621e-07
8.34622e-07
8.34622e-07
8.34621e-07
8.35986e-07
8.36378e-07
8.36173e-07
8.34621e-07
8.34623e-07
8.34623e-07
8.34623e-07
8.34623e-07
8.34621e-07
8.36452e-07
8.37134e-07
8.37021e-07
8.3611e-07
8.34622e-07
8.34623e-07
8.34623e-07
8.34623e-07
8.34622e-07
8.34622e-07
8.36464e-07
8.37036e-07
8.36999e-07
8.36083e-07
8.34622e-07
8.34623e-07
8.34623e-07
8.34623e-07
8.34623e-07
8.34622e-07
8.36442e-07
8.36504e-07
8.36167e-07
8.34621e-07
8.34623e-07
8.34623e-07
8.34623e-07
8.34623e-07
8.34621e-07
8.36465e-07
8.3718e-07
8.36933e-07
8.35986e-07
8.34621e-07
8.34622e-07
8.34622e-07
8.34621e-07
8.36258e-07
8.36458e-07
8.37107e-07
8.3695e-07
8.36378e-07
8.36452e-07
8.36464e-07
8.36442e-07
8.36465e-07
8.36458e-07
8.371e-07
8.37134e-07
8.37036e-07
8.36504e-07
8.3718e-07
8.37107e-07
8.27571e-07
8.27549e-07
8.27396e-07
8.26724e-07
8.26661e-07
8.26634e-07
8.26718e-07
8.27484e-07
8.27501e-07
8.27396e-07
8.26383e-07
8.25172e-07
8.25172e-07
8.25172e-07
8.25172e-07
8.26537e-07
8.26928e-07
8.26724e-07
8.25172e-07
8.25174e-07
8.25173e-07
8.25173e-07
8.25174e-07
8.25172e-07
8.27003e-07
8.27685e-07
8.27571e-07
8.26661e-07
8.25172e-07
8.25173e-07
8.25173e-07
8.25173e-07
8.25173e-07
8.25172e-07
8.27015e-07
8.27587e-07
8.27549e-07
8.26634e-07
8.25172e-07
8.25173e-07
8.25173e-07
8.25173e-07
8.25173e-07
8.25172e-07
8.26993e-07
8.27055e-07
8.26718e-07
8.25172e-07
8.25174e-07
8.25173e-07
8.25173e-07
8.25174e-07
8.25172e-07
8.27016e-07
8.27731e-07
8.27484e-07
8.26537e-07
8.25172e-07
8.25172e-07
8.25172e-07
8.25172e-07
8.26809e-07
8.27008e-07
8.27658e-07
8.27501e-07
8.26928e-07
8.27003e-07
8.27015e-07
8.26993e-07
8.27016e-07
8.27009e-07
8.27651e-07
8.27685e-07
8.27587e-07
8.27055e-07
8.27731e-07
8.27658e-07
8.18122e-07
8.181e-07
8.17946e-07
8.17275e-07
8.17211e-07
8.17185e-07
8.17269e-07
8.18035e-07
8.18052e-07
8.17946e-07
8.16934e-07
8.15723e-07
8.15723e-07
8.15723e-07
8.15723e-07
8.17088e-07
8.17479e-07
8.17274e-07
8.15723e-07
8.15724e-07
8.15724e-07
8.15724e-07
8.15724e-07
8.15723e-07
8.17554e-07
8.18236e-07
8.18122e-07
8.17211e-07
8.15723e-07
8.15724e-07
8.15724e-07
8.15723e-07
8.15724e-07
8.15723e-07
8.17566e-07
8.18138e-07
8.181e-07
8.17185e-07
8.15723e-07
8.15724e-07
8.15724e-07
8.15724e-07
8.15724e-07
8.15723e-07
8.17544e-07
8.17606e-07
8.17269e-07
8.15723e-07
8.15724e-07
8.15724e-07
8.15724e-07
8.15724e-07
8.15723e-07
8.17567e-07
8.18282e-07
8.18035e-07
8.17088e-07
8.15723e-07
8.15723e-07
8.15723e-07
8.15723e-07
8.1736e-07
8.17559e-07
8.18209e-07
8.18052e-07
8.17479e-07
8.17554e-07
8.17566e-07
8.17544e-07
8.17567e-07
8.17559e-07
8.18202e-07
8.18236e-07
8.18138e-07
8.17606e-07
8.18282e-07
8.18209e-07
8.08673e-07
8.08651e-07
8.08497e-07
8.07825e-07
8.07762e-07
8.07736e-07
8.0782e-07
8.08586e-07
8.08603e-07
8.08497e-07
8.07485e-07
8.06274e-07
8.06274e-07
8.06274e-07
8.06274e-07
8.07639e-07
8.0803e-07
8.07825e-07
8.06274e-07
8.06275e-07
8.06275e-07
8.06275e-07
8.06275e-07
8.06274e-07
8.08105e-07
8.08787e-07
8.08673e-07
8.07762e-07
8.06274e-07
8.06274e-07
8.06274e-07
8.06274e-07
8.06275e-07
8.06274e-07
8.08117e-07
8.08689e-07
8.08651e-07
8.07736e-07
8.06274e-07
8.06275e-07
8.06274e-07
8.06274e-07
8.06275e-07
8.06274e-07
8.08095e-07
8.08157e-07
8.0782e-07
8.06274e-07
8.06275e-07
8.06275e-07
8.06275e-07
8.06275e-07
8.06274e-07
8.08118e-07
8.08833e-07
8.08586e-07
8.07639e-07
8.06274e-07
8.06274e-07
8.06274e-07
8.06274e-07
8.07911e-07
8.0811e-07
8.0876e-07
8.08603e-07
8.0803e-07
8.08105e-07
8.08117e-07
8.08095e-07
8.08118e-07
8.0811e-07
8.08753e-07
8.08787e-07
8.08689e-07
8.08157e-07
8.08833e-07
8.0876e-07
7.99224e-07
7.99202e-07
7.99048e-07
7.98376e-07
7.98313e-07
7.98287e-07
7.98371e-07
7.99136e-07
7.99154e-07
7.99048e-07
7.98036e-07
7.96824e-07
7.96825e-07
7.96825e-07
7.96824e-07
7.9819e-07
7.98581e-07
7.98376e-07
7.96824e-07
7.96826e-07
7.96825e-07
7.96825e-07
7.96826e-07
7.96824e-07
7.98655e-07
7.99337e-07
7.99224e-07
7.98313e-07
7.96825e-07
7.96825e-07
7.96825e-07
7.96825e-07
7.96825e-07
7.96825e-07
7.98668e-07
7.9924e-07
7.99202e-07
7.98287e-07
7.96825e-07
7.96825e-07
7.96825e-07
7.96825e-07
7.96825e-07
7.96825e-07
7.98645e-07
7.98707e-07
7.98371e-07
7.96824e-07
7.96826e-07
7.96825e-07
7.96825e-07
7.96826e-07
7.96824e-07
7.98669e-07
7.99383e-07
7.99136e-07
7.9819e-07
7.96824e-07
7.96825e-07
7.96825e-07
7.96824e-07
7.98462e-07
7.98661e-07
7.99311e-07
7.99154e-07
7.98581e-07
7.98655e-07
7.98668e-07
7.98645e-07
7.98669e-07
7.98661e-07
7.99303e-07
7.99337e-07
7.9924e-07
7.98708e-07
7.99383e-07
7.99311e-07
7.89775e-07
7.89753e-07
7.89599e-07
7.88927e-07
7.88864e-07
7.88837e-07
7.88922e-07
7.89687e-07
7.89705e-07
7.89599e-07
7.88587e-07
7.87375e-07
7.87376e-07
7.87376e-07
7.87375e-07
7.8874e-07
7.89132e-07
7.88927e-07
7.87375e-07
7.87377e-07
7.87376e-07
7.87376e-07
7.87377e-07
7.87375e-07
7.89206e-07
7.89888e-07
7.89775e-07
7.88864e-07
7.87376e-07
7.87376e-07
7.87376e-07
7.87376e-07
7.87376e-07
7.87376e-07
7.89218e-07
7.8979e-07
7.89753e-07
7.88837e-07
7.87376e-07
7.87376e-07
7.87376e-07
7.87376e-07
7.87376e-07
7.87376e-07
7.89196e-07
7.89258e-07
7.88922e-07
7.87375e-07
7.87377e-07
7.87376e-07
7.87376e-07
7.87377e-07
7.87375e-07
7.89219e-07
7.89934e-07
7.89687e-07
7.8874e-07
7.87375e-07
7.87376e-07
7.87376e-07
7.87375e-07
7.89012e-07
7.89212e-07
7.89862e-07
7.89705e-07
7.89132e-07
7.89206e-07
7.89218e-07
7.89196e-07
7.89219e-07
7.89212e-07
7.89854e-07
7.89888e-07
7.8979e-07
7.89258e-07
7.89934e-07
7.89862e-07
7.80326e-07
7.80304e-07
7.8015e-07
7.79478e-07
7.79415e-07
7.79388e-07
7.79472e-07
7.80238e-07
7.80255e-07
7.8015e-07
7.79137e-07
7.77926e-07
7.77926e-07
7.77926e-07
7.77926e-07
7.79291e-07
7.79683e-07
7.79478e-07
7.77926e-07
7.77928e-07
7.77927e-07
7.77927e-07
7.77928e-07
7.77926e-07
7.79757e-07
7.80439e-07
7.80326e-07
7.79415e-07
7.77926e-07
7.77927e-07
7.77927e-07
7.77927e-07
7.77927e-07
7.77926e-07
7.79769e-07
7.80341e-07
7.80304e-07
7.79388e-07
7.77926e-07
7.77927e-07
7.77927e-07
7.77927e-07
7.77927e-07
7.77926e-07
7.79747e-07
7.79809e-07
7.79472e-07
7.77926e-07
7.77928e-07
7.77927e-07
7.77927e-07
7.77928e-07
7.77926e-07
7.7977e-07
7.80485e-07
7.80238e-07
7.79291e-07
7.77926e-07
7.77926e-07
7.77926e-07
7.77926e-07
7.79563e-07
7.79763e-07
7.80412e-07
7.80255e-07
7.79683e-07
7.79757e-07
7.79769e-07
7.79747e-07
7.7977e-07
7.79763e-07
7.80405e-07
7.80439e-07
7.80341e-07
7.79809e-07
7.80485e-07
7.80412e-07
7.70876e-07
7.70854e-07
7.707e-07
7.70029e-07
7.69966e-07
7.69939e-07
7.70023e-07
7.70789e-07
7.70806e-07
7.707e-07
7.69688e-07
7.68477e-07
7.68477e-07
7.68477e-07
7.68477e-07
7.69842e-07
7.70233e-07
7.70029e-07
7.68477e-07
7.68478e-07
7.68478e-07
7.68478e-07
7.68478e-07
7.68477e-07
7.70308e-07
7.7099e-07
7.70876e-07
7.69966e-07
7.68477e-07
7.68478e-07
7.68477e-07
7.68477e-07
7.68478e-07
7.68477e-07
7.7032e-07
7.70892e-07
7.70854e-07
7.69939e-07
7.68477e-07
7.68478e-07
7.68477e-07
7.68477e-07
7.68478e-07
7.68477e-07
7.70298e-07
7.7036e-07
7.70023e-07
7.68477e-07
7.68478e-07
7.68478e-07
7.68478e-07
7.68478e-07
7.68477e-07
7.70321e-07
7.71036e-07
7.70789e-07
7.69842e-07
7.68477e-07
7.68477e-07
7.68477e-07
7.68477e-07
7.70114e-07
7.70313e-07
7.70963e-07
7.70806e-07
7.70233e-07
7.70308e-07
7.7032e-07
7.70298e-07
7.70321e-07
7.70314e-07
7.70956e-07
7.7099e-07
7.70892e-07
7.7036e-07
7.71036e-07
7.70963e-07
7.61427e-07
7.61405e-07
7.61251e-07
7.60579e-07
7.60516e-07
7.6049e-07
7.60574e-07
7.6134e-07
7.61357e-07
7.61251e-07
7.60239e-07
7.59028e-07
7.59028e-07
7.59028e-07
7.59028e-07
7.60393e-07
7.60784e-07
7.60579e-07
7.59028e-07
7.59029e-07
7.59029e-07
7.59029e-07
7.59029e-07
7.59028e-07
7.60859e-07
7.61541e-07
7.61427e-07
7.60516e-07
7.59028e-07
7.59029e-07
7.59028e-07
7.59028e-07
7.59029e-07
7.59028e-07
7.60871e-07
7.61443e-07
7.61405e-07
7.6049e-07
7.59028e-07
7.59029e-07
7.59028e-07
7.59028e-07
7.59029e-07
7.59028e-07
7.60849e-07
7.60911e-07
7.60574e-07
7.59028e-07
7.59029e-07
7.59029e-07
7.59029e-07
7.59029e-07
7.59028e-07
7.60872e-07
7.61587e-07
7.6134e-07
7.60393e-07
7.59028e-07
7.59028e-07
7.59028e-07
7.59028e-07
7.60665e-07
7.60864e-07
7.61514e-07
7.61357e-07
7.60784e-07
7.60859e-07
7.60871e-07
7.60849e-07
7.60872e-07
7.60864e-07
7.61507e-07
7.61541e-07
7.61443e-07
7.60911e-07
7.61587e-07
7.61514e-07
7.51978e-07
7.51956e-07
7.51802e-07
7.5113e-07
7.51067e-07
7.51041e-07
7.51125e-07
7.51891e-07
7.51908e-07
7.51802e-07
7.5079e-07
7.49578e-07
7.49579e-07
7.49579e-07
7.49578e-07
7.50944e-07
7.51335e-07
7.5113e-07
7.49578e-07
7.4958e-07
7.49579e-07
7.49579e-07
7.4958e-07
7.49578e-07
7.51409e-07
7.52091e-07
7.51978e-07
7.51067e-07
7.49579e-07
7.49579e-07
7.49579e-07
7.49579e-07
7.49579e-07
7.49579e-07
7.51422e-07
7.51994e-07
7.51956e-07
7.51041e-07
7.49579e-07
7.49579e-07
7.49579e-07
7.49579e-07
7.49579e-07
7.49579e-07
7.51399e-07
7.51462e-07
7.51125e-07
7.49578e-07
7.4958e-07
7.49579e-07
7.49579e-07
7.4958e-07
7.49578e-07
7.51423e-07
7.52137e-07
7.5189e-07
7.50944e-07
7.49578e-07
7.49579e-07
7.49579e-07
7.49578e-07
7.51216e-07
7.51415e-07
7.52065e-07
7.51908e-07
7.51335e-07
7.51409e-07
7.51422e-07
7.51399e-07
7.51423e-07
7.51415e-07
7.52057e-07
7.52091e-07
7.51994e-07
7.51461e-07
7.52137e-07
7.52065e-07
7.42529e-07
7.42507e-07
7.42353e-07
7.41681e-07
7.41618e-07
7.41591e-07
7.41676e-07
7.42441e-07
7.42459e-07
7.42353e-07
7.41341e-07
7.40129e-07
7.4013e-07
7.4013e-07
7.40129e-07
7.41494e-07
7.41886e-07
7.41681e-07
7.40129e-07
7.40131e-07
7.4013e-07
7.4013e-07
7.40131e-07
7.40129e-07
7.4196e-07
7.42642e-07
7.42529e-07
7.41618e-07
7.4013e-07
7.4013e-07
7.4013e-07
7.4013e-07
7.4013e-07
7.4013e-07
7.41973e-07
7.42544e-07
7.42507e-07
7.41591e-07
7.4013e-07
7.4013e-07
7.4013e-07
7.4013e-07
7.4013e-07
7.4013e-07
7.4195e-07
7.42012e-07
7.41676e-07
7.40129e-07
7.40131e-07
7.4013e-07
7.4013e-07
7.40131e-07
7.40129e-07
7.41973e-07
7.42688e-07
7.42441e-07
7.41494e-07
7.40129e-07
7.4013e-07
7.4013e-07
7.40129e-07
7.41767e-07
7.41966e-07
7.42616e-07
7.42459e-07
7.41886e-07
7.4196e-07
7.41972e-07
7.4195e-07
7.41973e-07
7.41966e-07
7.42608e-07
7.42642e-07
7.42544e-07
7.42012e-07
7.42688e-07
7.42616e-07
7.3308e-07
7.33058e-07
7.32904e-07
7.32232e-07
7.32169e-07
7.32142e-07
7.32226e-07
7.32992e-07
7.33009e-07
7.32904e-07
7.31891e-07
7.3068e-07
7.3068e-07
7.3068e-07
7.3068e-07
7.32045e-07
7.32437e-07
7.32232e-07
7.3068e-07
7.30682e-07
7.30681e-07
7.30681e-07
7.30682e-07
7.3068e-07
7.32511e-07
7.33193e-07
7.3308e-07
7.32169e-07
7.3068e-07
7.30681e-07
7.30681e-07
7.30681e-07
7.30681e-07
7.3068e-07
7.32523e-07
7.33095e-07
7.33058e-07
7.32142e-07
7.3068e-07
7.30681e-07
7.30681e-07
7.30681e-07
7.30681e-07
7.3068e-07
7.32501e-07
7.32563e-07
7.32226e-07
7.3068e-07
7.30682e-07
7.30681e-07
7.30681e-07
7.30682e-07
7.3068e-07
7.32524e-07
7.33239e-07
7.32992e-07
7.32045e-07
7.3068e-07
7.3068e-07
7.3068e-07
7.3068e-07
7.32317e-07
7.32517e-07
7.33166e-07
7.3301e-07
7.32437e-07
7.32511e-07
7.32523e-07
7.32501e-07
7.32524e-07
7.32517e-07
7.33159e-07
7.33193e-07
7.33095e-07
7.32563e-07
7.33239e-07
7.33166e-07
7.2363e-07
7.23608e-07
7.23455e-07
7.22783e-07
7.2272e-07
7.22693e-07
7.22777e-07
7.23543e-07
7.2356e-07
7.23455e-07
7.22442e-07
7.21231e-07
7.21231e-07
7.21231e-07
7.21231e-07
7.22596e-07
7.22987e-07
7.22783e-07
7.21231e-07
7.21233e-07
7.21232e-07
7.21232e-07
7.21233e-07
7.21231e-07
7.23062e-07
7.23744e-07
7.2363e-07
7.2272e-07
7.21231e-07
7.21232e-07
7.21232e-07
7.21232e-07
7.21232e-07
7.21231e-07
7.23074e-07
7.23646e-07
7.23608e-07
7.22693e-07
7.21231e-07
7.21232e-07
7.21232e-07
7.21232e-07
7.21232e-07
7.21231e-07
7.23052e-07
7.23114e-07
7.22777e-07
7.21231e-07
7.21233e-07
7.21232e-07
7.21232e-07
7.21233e-07
7.21231e-07
7.23075e-07
7.2379e-07
7.23543e-07
7.22596e-07
7.21231e-07
7.21231e-07
7.21231e-07
7.21231e-07
7.22868e-07
7.23067e-07
7.23717e-07
7.2356e-07
7.22988e-07
7.23062e-07
7.23074e-07
7.23052e-07
7.23075e-07
7.23068e-07
7.2371e-07
7.23744e-07
7.23646e-07
7.23114e-07
7.2379e-07
7.23717e-07
7.14181e-07
7.14159e-07
7.14005e-07
7.13333e-07
7.1327e-07
7.13244e-07
7.13328e-07
7.14094e-07
7.14111e-07
7.14005e-07
7.12993e-07
7.11782e-07
7.11782e-07
7.11782e-07
7.11782e-07
7.13147e-07
7.13538e-07
7.13333e-07
7.11782e-07
7.11783e-07
7.11783e-07
7.11783e-07
7.11783e-07
7.11782e-07
7.13613e-07
7.14295e-07
7.14181e-07
7.1327e-07
7.11782e-07
7.11783e-07
7.11782e-07
7.11782e-07
7.11783e-07
7.11782e-07
7.13625e-07
7.14197e-07
7.14159e-07
7.13244e-07
7.11782e-07
7.11783e-07
7.11782e-07
7.11782e-07
7.11783e-07
7.11782e-07
7.13603e-07
7.13665e-07
7.13328e-07
7.11782e-07
7.11783e-07
7.11783e-07
7.11783e-07
7.11783e-07
7.11782e-07
7.13626e-07
7.14341e-07
7.14094e-07
7.13147e-07
7.11782e-07
7.11782e-07
7.11782e-07
7.11782e-07
7.13419e-07
7.13618e-07
7.14268e-07
7.14111e-07
7.13538e-07
7.13613e-07
7.13625e-07
7.13603e-07
7.13626e-07
7.13618e-07
7.14261e-07
7.14295e-07
7.14197e-07
7.13665e-07
7.14341e-07
7.14268e-07
7.04732e-07
7.0471e-07
7.04556e-07
7.03884e-07
7.03821e-07
7.03795e-07
7.03879e-07
7.04644e-07
7.04662e-07
7.04556e-07
7.03544e-07
7.02332e-07
7.02333e-07
7.02333e-07
7.02332e-07
7.03698e-07
7.04089e-07
7.03884e-07
7.02332e-07
7.02334e-07
7.02333e-07
7.02333e-07
7.02334e-07
7.02332e-07
7.04163e-07
7.04845e-07
7.04732e-07
7.03821e-07
7.02333e-07
7.02333e-07
7.02333e-07
7.02333e-07
7.02333e-07
7.02333e-07
7.04176e-07
7.04748e-07
7.0471e-07
7.03795e-07
7.02333e-07
7.02333e-07
7.02333e-07
7.02333e-07
7.02333e-07
7.02333e-07
7.04153e-07
7.04216e-07
7.03879e-07
7.02332e-07
7.02334e-07
7.02333e-07
7.02333e-07
7.02334e-07
7.02332e-07
7.04177e-07
7.04891e-07
7.04644e-07
7.03698e-07
7.02332e-07
7.02333e-07
7.02333e-07
7.02332e-07
7.0397e-07
7.04169e-07
7.04819e-07
7.04662e-07
7.04089e-07
7.04163e-07
7.04176e-07
7.04153e-07
7.04177e-07
7.04169e-07
7.04811e-07
7.04845e-07
7.04748e-07
7.04215e-07
7.04891e-07
7.04819e-07
6.95283e-07
6.95261e-07
6.95107e-07
6.94435e-07
6.94372e-07
6.94345e-07
6.9443e-07
6.95195e-07
6.95213e-07
6.95107e-07
6.94094e-07
6.92883e-07
6.92884e-07
6.92884e-07
6.92883e-07
6.94248e-07
6.9464e-07
6.94435e-07
6.92883e-07
6.92885e-07
6.92884e-07
6.92884e-07
6.92885e-07
6.92883e-07
6.94714e-07
6.95396e-07
6.95283e-07
6.94372e-07
6.92883e-07
6.92884e-07
6.92884e-07
6.92884e-07
6.92884e-07
6.92884e-07
6.94726e-07
6.95298e-07
6.95261e-07
6.94345e-07
6.92883e-07
6.92884e-07
6.92884e-07
6.92884e-07
6.92884e-07
6.92884e-07
6.94704e-07
6.94766e-07
6.94429e-07
6.92883e-07
6.92885e-07
6.92884e-07
6.92884e-07
6.92885e-07
6.92883e-07
6.94727e-07
6.95442e-07
6.95195e-07
6.94248e-07
6.92883e-07
6.92883e-07
6.92883e-07
6.92883e-07
6.9452e-07
6.9472e-07
6.95369e-07
6.95213e-07
6.9464e-07
6.94714e-07
6.94726e-07
6.94704e-07
6.94727e-07
6.9472e-07
6.95362e-07
6.95396e-07
6.95298e-07
6.94766e-07
6.95442e-07
6.95369e-07
6.85834e-07
6.85812e-07
6.85658e-07
6.84986e-07
6.84923e-07
6.84896e-07
6.8498e-07
6.85746e-07
6.85763e-07
6.85658e-07
6.84645e-07
6.83434e-07
6.83434e-07
6.83434e-07
6.83434e-07
6.84799e-07
6.85191e-07
6.84986e-07
6.83434e-07
6.83436e-07
6.83435e-07
6.83435e-07
6.83436e-07
6.83434e-07
6.85265e-07
6.85947e-07
6.85833e-07
6.84923e-07
6.83434e-07
6.83435e-07
6.83435e-07
6.83435e-07
6.83435e-07
6.83434e-07
6.85277e-07
6.85849e-07
6.85811e-07
6.84896e-07
6.83434e-07
6.83435e-07
6.83435e-07
6.83435e-07
6.83435e-07
6.83434e-07
6.85255e-07
6.85317e-07
6.8498e-07
6.83434e-07
6.83436e-07
6.83435e-07
6.83435e-07
6.83436e-07
6.83434e-07
6.85278e-07
6.85993e-07
6.85746e-07
6.84799e-07
6.83434e-07
6.83434e-07
6.83434e-07
6.83434e-07
6.85071e-07
6.85271e-07
6.8592e-07
6.85763e-07
6.85191e-07
6.85265e-07
6.85277e-07
6.85255e-07
6.85278e-07
6.85271e-07
6.85913e-07
6.85947e-07
6.85849e-07
6.85317e-07
6.85993e-07
6.8592e-07
6.76384e-07
6.76362e-07
6.76209e-07
6.75537e-07
6.75474e-07
6.75447e-07
6.75531e-07
6.76297e-07
6.76314e-07
6.76209e-07
6.75196e-07
6.73985e-07
6.73985e-07
6.73985e-07
6.73985e-07
6.7535e-07
6.75741e-07
6.75537e-07
6.73985e-07
6.73987e-07
6.73986e-07
6.73986e-07
6.73987e-07
6.73985e-07
6.75816e-07
6.76498e-07
6.76384e-07
6.75474e-07
6.73985e-07
6.73986e-07
6.73985e-07
6.73985e-07
6.73986e-07
6.73985e-07
6.75828e-07
6.764e-07
6.76362e-07
6.75447e-07
6.73985e-07
6.73986e-07
6.73985e-07
6.73985e-07
6.73986e-07
6.73985e-07
6.75806e-07
6.75868e-07
6.75531e-07
6.73985e-07
6.73987e-07
6.73986e-07
6.73986e-07
6.73987e-07
6.73985e-07
6.75829e-07
6.76544e-07
6.76297e-07
6.7535e-07
6.73985e-07
6.73985e-07
6.73985e-07
6.73985e-07
6.75622e-07
6.75821e-07
6.76471e-07
6.76314e-07
6.75741e-07
6.75816e-07
6.75828e-07
6.75806e-07
6.75829e-07
6.75822e-07
6.76464e-07
6.76498e-07
6.764e-07
6.75868e-07
6.76544e-07
6.76471e-07
6.66935e-07
6.66913e-07
6.66759e-07
6.66087e-07
6.66024e-07
6.65998e-07
6.66082e-07
6.66848e-07
6.66865e-07
6.66759e-07
6.65747e-07
6.64536e-07
6.64536e-07
6.64536e-07
6.64536e-07
6.65901e-07
6.66292e-07
6.66088e-07
6.64536e-07
6.64537e-07
6.64537e-07
6.64537e-07
6.64537e-07
6.64536e-07
6.66367e-07
6.67049e-07
6.66935e-07
6.66024e-07
6.64536e-07
6.64537e-07
6.64536e-07
6.64536e-07
6.64537e-07
6.64536e-07
6.66379e-07
6.66951e-07
6.66913e-07
6.65998e-07
6.64536e-07
6.64537e-07
6.64536e-07
6.64536e-07
6.64537e-07
6.64536e-07
6.66357e-07
6.66419e-07
6.66082e-07
6.64536e-07
6.64537e-07
6.64537e-07
6.64537e-07
6.64537e-07
6.64536e-07
6.6638e-07
6.67095e-07
6.66848e-07
6.65901e-07
6.64536e-07
6.64536e-07
6.64536e-07
6.64536e-07
6.66173e-07
6.66372e-07
6.67022e-07
6.66865e-07
6.66292e-07
6.66367e-07
6.66379e-07
6.66357e-07
6.6638e-07
6.66372e-07
6.67015e-07
6.67049e-07
6.66951e-07
6.66419e-07
6.67095e-07
6.67022e-07
6.57486e-07
6.57464e-07
6.5731e-07
6.56638e-07
6.56575e-07
6.56549e-07
6.56633e-07
6.57398e-07
6.57416e-07
6.5731e-07
6.56298e-07
6.55086e-07
6.55087e-07
6.55087e-07
6.55086e-07
6.56452e-07
6.56843e-07
6.56638e-07
6.55086e-07
6.55088e-07
6.55087e-07
6.55087e-07
6.55088e-07
6.55086e-07
6.56917e-07
6.57599e-07
6.57486e-07
6.56575e-07
6.55087e-07
6.55087e-07
6.55087e-07
6.55087e-07
6.55087e-07
6.55087e-07
6.5693e-07
6.57502e-07
6.57464e-07
6.56549e-07
6.55087e-07
6.55087e-07
6.55087e-07
6.55087e-07
6.55087e-07
6.55087e-07
6.56907e-07
6.5697e-07
6.56633e-07
6.55087e-07
6.55088e-07
6.55087e-07
6.55087e-07
6.55088e-07
6.55086e-07
6.56931e-07
6.57645e-07
6.57399e-07
6.56452e-07
6.55087e-07
6.55087e-07
6.55087e-07
6.55087e-07
6.56724e-07
6.56923e-07
6.57573e-07
6.57416e-07
6.56843e-07
6.56917e-07
6.5693e-07
6.56908e-07
6.56931e-07
6.56923e-07
6.57566e-07
6.576e-07
6.57502e-07
6.5697e-07
6.57645e-07
6.57573e-07
6.48037e-07
6.48015e-07
6.47861e-07
6.47189e-07
6.47126e-07
6.47099e-07
6.47184e-07
6.47949e-07
6.47967e-07
6.47861e-07
6.46849e-07
6.45637e-07
6.45638e-07
6.45638e-07
6.45637e-07
6.47002e-07
6.47394e-07
6.47189e-07
6.45637e-07
6.45639e-07
6.45638e-07
6.45638e-07
6.45639e-07
6.45637e-07
6.47468e-07
6.4815e-07
6.48037e-07
6.47126e-07
6.45638e-07
6.45638e-07
6.45638e-07
6.45638e-07
6.45638e-07
6.45638e-07
6.4748e-07
6.48052e-07
6.48015e-07
6.47099e-07
6.45638e-07
6.45638e-07
6.45638e-07
6.45638e-07
6.45638e-07
6.45638e-07
6.47458e-07
6.4752e-07
6.47184e-07
6.45637e-07
6.45639e-07
6.45638e-07
6.45638e-07
6.45639e-07
6.45637e-07
6.47481e-07
6.48196e-07
6.47949e-07
6.47002e-07
6.45637e-07
6.45638e-07
6.45638e-07
6.45637e-07
6.47275e-07
6.47474e-07
6.48124e-07
6.47967e-07
6.47394e-07
6.47468e-07
6.4748e-07
6.47458e-07
6.47481e-07
6.47474e-07
6.48116e-07
6.4815e-07
6.48052e-07
6.4752e-07
6.48196e-07
6.48124e-07
6.38588e-07
6.38566e-07
6.38412e-07
6.3774e-07
6.37677e-07
6.3765e-07
6.37734e-07
6.385e-07
6.38518e-07
6.38412e-07
6.37399e-07
6.36188e-07
6.36188e-07
6.36188e-07
6.36188e-07
6.37553e-07
6.37945e-07
6.3774e-07
6.36188e-07
6.3619e-07
6.36189e-07
6.36189e-07
6.3619e-07
6.36188e-07
6.38019e-07
6.38701e-07
6.38588e-07
6.37677e-07
6.36188e-07
6.36189e-07
6.36189e-07
6.36189e-07
6.36189e-07
6.36188e-07
6.38031e-07
6.38603e-07
6.38565e-07
6.3765e-07
6.36188e-07
6.36189e-07
6.36189e-07
6.36189e-07
6.36189e-07
6.36188e-07
6.38009e-07
6.38071e-07
6.37734e-07
6.36188e-07
6.3619e-07
6.36189e-07
6.36189e-07
6.3619e-07
6.36188e-07
6.38032e-07
6.38747e-07
6.385e-07
6.37553e-07
6.36188e-07
6.36188e-07
6.36188e-07
6.36188e-07
6.37825e-07
6.38025e-07
6.38674e-07
6.38517e-07
6.37945e-07
6.38019e-07
6.38031e-07
6.38009e-07
6.38032e-07
6.38025e-07
6.38667e-07
6.38701e-07
6.38603e-07
6.38071e-07
6.38747e-07
6.38674e-07
6.29138e-07
6.29116e-07
6.28963e-07
6.28291e-07
6.28228e-07
6.28201e-07
6.28285e-07
6.29051e-07
6.29068e-07
6.28962e-07
6.2795e-07
6.26739e-07
6.26739e-07
6.26739e-07
6.26739e-07
6.28104e-07
6.28495e-07
6.28291e-07
6.26739e-07
6.26741e-07
6.2674e-07
6.2674e-07
6.26741e-07
6.26739e-07
6.2857e-07
6.29252e-07
6.29138e-07
6.28227e-07
6.26739e-07
6.2674e-07
6.26739e-07
6.26739e-07
6.2674e-07
6.26739e-07
6.28582e-07
6.29154e-07
6.29116e-07
6.28201e-07
6.26739e-07
6.2674e-07
6.26739e-07
6.26739e-07
6.2674e-07
6.26739e-07
6.2856e-07
6.28622e-07
6.28285e-07
6.26739e-07
6.2674e-07
6.2674e-07
6.2674e-07
6.26741e-07
6.26739e-07
6.28583e-07
6.29298e-07
6.29051e-07
6.28104e-07
6.26739e-07
6.26739e-07
6.26739e-07
6.26739e-07
6.28376e-07
6.28575e-07
6.29225e-07
6.29068e-07
6.28495e-07
6.2857e-07
6.28582e-07
6.2856e-07
6.28583e-07
6.28576e-07
6.29218e-07
6.29252e-07
6.29154e-07
6.28622e-07
6.29298e-07
6.29225e-07
6.19689e-07
6.19667e-07
6.19513e-07
6.18841e-07
6.18778e-07
6.18752e-07
6.18836e-07
6.19602e-07
6.19619e-07
6.19513e-07
6.18501e-07
6.1729e-07
6.1729e-07
6.1729e-07
6.1729e-07
6.18655e-07
6.19046e-07
6.18841e-07
6.1729e-07
6.17291e-07
6.17291e-07
6.17291e-07
6.17291e-07
6.1729e-07
6.19121e-07
6.19803e-07
6.19689e-07
6.18778e-07
6.1729e-07
6.17291e-07
6.1729e-07
6.1729e-07
6.17291e-07
6.1729e-07
6.19133e-07
6.19705e-07
6.19667e-07
6.18752e-07
6.1729e-07
6.17291e-07
6.1729e-07
6.1729e-07
6.17291e-07
6.1729e-07
6.19111e-07
6.19173e-07
6.18836e-07
6.1729e-07
6.17291e-07
6.17291e-07
6.17291e-07
6.17291e-07
6.1729e-07
6.19134e-07
6.19849e-07
6.19602e-07
6.18655e-07
6.1729e-07
6.1729e-07
6.1729e-07
6.1729e-07
6.18927e-07
6.19126e-07
6.19776e-07
6.19619e-07
6.19046e-07
6.19121e-07
6.19133e-07
6.19111e-07
6.19134e-07
6.19126e-07
6.19769e-07
6.19803e-07
6.19705e-07
6.19173e-07
6.19849e-07
6.19776e-07
6.1024e-07
6.10218e-07
6.10064e-07
6.09392e-07
6.09329e-07
6.09303e-07
6.09387e-07
6.10153e-07
6.1017e-07
6.10064e-07
6.09052e-07
6.07841e-07
6.07841e-07
6.07841e-07
6.07841e-07
6.09206e-07
6.09597e-07
6.09392e-07
6.07841e-07
6.07842e-07
6.07841e-07
6.07841e-07
6.07842e-07
6.07841e-07
6.09671e-07
6.10353e-07
6.1024e-07
6.09329e-07
6.07841e-07
6.07841e-07
6.07841e-07
6.07841e-07
6.07841e-07
6.07841e-07
6.09684e-07
6.10256e-07
6.10218e-07
6.09303e-07
6.07841e-07
6.07841e-07
6.07841e-07
6.07841e-07
6.07841e-07
6.07841e-07
6.09662e-07
6.09724e-07
6.09387e-07
6.07841e-07
6.07842e-07
6.07841e-07
6.07841e-07
6.07842e-07
6.07841e-07
6.09685e-07
6.10399e-07
6.10153e-07
6.09206e-07
6.07841e-07
6.07841e-07
6.07841e-07
6.07841e-07
6.09478e-07
6.09677e-07
6.10327e-07
6.1017e-07
6.09597e-07
6.09671e-07
6.09684e-07
6.09662e-07
6.09685e-07
6.09677e-07
6.1032e-07
6.10354e-07
6.10256e-07
6.09724e-07
6.10399e-07
6.10327e-07
6.00791e-07
6.00769e-07
6.00615e-07
5.99943e-07
5.9988e-07
5.99854e-07
5.99938e-07
6.00703e-07
6.00721e-07
6.00615e-07
5.99603e-07
5.98391e-07
5.98392e-07
5.98392e-07
5.98391e-07
5.99757e-07
6.00148e-07
5.99943e-07
5.98391e-07
5.98393e-07
5.98392e-07
5.98392e-07
5.98393e-07
5.98391e-07
6.00222e-07
6.00904e-07
6.00791e-07
5.9988e-07
5.98392e-07
5.98392e-07
5.98392e-07
5.98392e-07
5.98392e-07
5.98392e-07
6.00235e-07
6.00807e-07
6.00769e-07
5.99854e-07
5.98392e-07
5.98392e-07
5.98392e-07
5.98392e-07
5.98392e-07
5.98392e-07
6.00212e-07
6.00274e-07
5.99938e-07
5.98391e-07
5.98393e-07
5.98392e-07
5.98392e-07
5.98393e-07
5.98391e-07
6.00236e-07
6.0095e-07
6.00703e-07
5.99757e-07
5.98391e-07
5.98392e-07
5.98392e-07
5.98391e-07
6.00029e-07
6.00228e-07
6.00878e-07