/*--------------------------------*- C++ -*----------------------------------*\
| =========                 |                                                 |
| \\      /  F ield         | OpenFOAM: The Open Source CFD Toolbox           |
|  \\    /   O peration     | Version:  v2012                                 |
|   \\  /    A nd           | Website:  www.openfoam.com                      |
|    \\/     M anipulation  |                                                 |
\*---------------------------------------------------------------------------*/
FoamFile
{
    version     2.0;
    format      ascii;
    class       volScalarField;
    location    "0.225";
    object      p;
}
// * * * * * * * * * * * * * * * * * * * * * * * * * * * * * * * * * * * * * //

dimensions      [0 2 -2 0 0 0 0];


internalField   nonuniform List<scalar> 
247104
(
1.88812e-06
1.88826e-06
1.88836e-06
1.88826e-06
1.88811e-06
1.88829e-06
1.88835e-06
1.88819e-06
1.88826e-06
1.88831e-06
1.88836e-06
1.88818e-06
1.88806e-06
1.88821e-06
1.88837e-06
1.88828e-06
1.88836e-06
1.88837e-06
1.88806e-06
1.88768e-06
1.88752e-06
1.88772e-06
1.88811e-06
1.88838e-06
1.88836e-06
1.88827e-06
1.88819e-06
1.88768e-06
1.88718e-06
1.88701e-06
1.88723e-06
1.88775e-06
1.88823e-06
1.88825e-06
1.88813e-06
1.88812e-06
1.88807e-06
1.88753e-06
1.88701e-06
1.88682e-06
1.88706e-06
1.8876e-06
1.88811e-06
1.88808e-06
1.88829e-06
1.88821e-06
1.88772e-06
1.88723e-06
1.88706e-06
1.88728e-06
1.88779e-06
1.88825e-06
1.88828e-06
1.88835e-06
1.88838e-06
1.88811e-06
1.88775e-06
1.8876e-06
1.88778e-06
1.88815e-06
1.88839e-06
1.88835e-06
1.88819e-06
1.88828e-06
1.88838e-06
1.88822e-06
1.8881e-06
1.88825e-06
1.88838e-06
1.88825e-06
1.88835e-06
1.88824e-06
1.88807e-06
1.88828e-06
1.88834e-06
1.8544e-06
1.85235e-06
1.8521e-06
1.85095e-06
1.85087e-06
1.85079e-06
1.8508e-06
1.85216e-06
1.85252e-06
1.85211e-06
1.85005e-06
1.84717e-06
1.84709e-06
1.84709e-06
1.84717e-06
1.85045e-06
1.85066e-06
1.85095e-06
1.84717e-06
1.8471e-06
1.84715e-06
1.84715e-06
1.8471e-06
1.84717e-06
1.85087e-06
1.85184e-06
1.8544e-06
1.85087e-06
1.84709e-06
1.84715e-06
1.84726e-06
1.84726e-06
1.84715e-06
1.84709e-06
1.85077e-06
1.85242e-06
1.85235e-06
1.85079e-06
1.84709e-06
1.84715e-06
1.84726e-06
1.84726e-06
1.84715e-06
1.84709e-06
1.85093e-06
1.85076e-06
1.8508e-06
1.84717e-06
1.8471e-06
1.84715e-06
1.84715e-06
1.8471e-06
1.84717e-06
1.85075e-06
1.85167e-06
1.85216e-06
1.85045e-06
1.84717e-06
1.84709e-06
1.84709e-06
1.84717e-06
1.85059e-06
1.85086e-06
1.85225e-06
1.85252e-06
1.85066e-06
1.85087e-06
1.85077e-06
1.85093e-06
1.85075e-06
1.85086e-06
1.85298e-06
1.85184e-06
1.85242e-06
1.85076e-06
1.85166e-06
1.85226e-06
1.8343e-06
1.8341e-06
1.83395e-06
1.83177e-06
1.83171e-06
1.83169e-06
1.83176e-06
1.83399e-06
1.8342e-06
1.83396e-06
1.83106e-06
1.82809e-06
1.82793e-06
1.82793e-06
1.82808e-06
1.83174e-06
1.83223e-06
1.83177e-06
1.82807e-06
1.82769e-06
1.82769e-06
1.82769e-06
1.82769e-06
1.82808e-06
1.83255e-06
1.83452e-06
1.8343e-06
1.83171e-06
1.82793e-06
1.82769e-06
1.82771e-06
1.82771e-06
1.82769e-06
1.82793e-06
1.83258e-06
1.83422e-06
1.83411e-06
1.8317e-06
1.82793e-06
1.82769e-06
1.82771e-06
1.82771e-06
1.82769e-06
1.82793e-06
1.83251e-06
1.83227e-06
1.83176e-06
1.82809e-06
1.82769e-06
1.82769e-06
1.82769e-06
1.82769e-06
1.82809e-06
1.83261e-06
1.83457e-06
1.83399e-06
1.83174e-06
1.82808e-06
1.82793e-06
1.82793e-06
1.82807e-06
1.83223e-06
1.83243e-06
1.83447e-06
1.83418e-06
1.83223e-06
1.83255e-06
1.83258e-06
1.83251e-06
1.83261e-06
1.83243e-06
1.83453e-06
1.83453e-06
1.83422e-06
1.83228e-06
1.83458e-06
1.83448e-06
1.81493e-06
1.81475e-06
1.81462e-06
1.81236e-06
1.81231e-06
1.81221e-06
1.81241e-06
1.81465e-06
1.81487e-06
1.81463e-06
1.81152e-06
1.80861e-06
1.80855e-06
1.80855e-06
1.80861e-06
1.81226e-06
1.81297e-06
1.81237e-06
1.80861e-06
1.80845e-06
1.80844e-06
1.80844e-06
1.80845e-06
1.80861e-06
1.81321e-06
1.81516e-06
1.81493e-06
1.81232e-06
1.80855e-06
1.80844e-06
1.80845e-06
1.80845e-06
1.80844e-06
1.80855e-06
1.81331e-06
1.81483e-06
1.81475e-06
1.81221e-06
1.80855e-06
1.80844e-06
1.80845e-06
1.80845e-06
1.80844e-06
1.80856e-06
1.81327e-06
1.81301e-06
1.81241e-06
1.80861e-06
1.80845e-06
1.80844e-06
1.80844e-06
1.80845e-06
1.80861e-06
1.81328e-06
1.81518e-06
1.81465e-06
1.81226e-06
1.80861e-06
1.80856e-06
1.80856e-06
1.80861e-06
1.81306e-06
1.81314e-06
1.81515e-06
1.81487e-06
1.81297e-06
1.81321e-06
1.81331e-06
1.81327e-06
1.81329e-06
1.81314e-06
1.81514e-06
1.81516e-06
1.81483e-06
1.81301e-06
1.81518e-06
1.81515e-06
1.79555e-06
1.79538e-06
1.79521e-06
1.79294e-06
1.79287e-06
1.79272e-06
1.79297e-06
1.79523e-06
1.79545e-06
1.79521e-06
1.79207e-06
1.78915e-06
1.78913e-06
1.78913e-06
1.78915e-06
1.79277e-06
1.79358e-06
1.79294e-06
1.78915e-06
1.7891e-06
1.7891e-06
1.7891e-06
1.7891e-06
1.78915e-06
1.79383e-06
1.79577e-06
1.79555e-06
1.79287e-06
1.78913e-06
1.7891e-06
1.7891e-06
1.7891e-06
1.7891e-06
1.78913e-06
1.79398e-06
1.79549e-06
1.79538e-06
1.79272e-06
1.78913e-06
1.7891e-06
1.7891e-06
1.7891e-06
1.7891e-06
1.78913e-06
1.79396e-06
1.79367e-06
1.79297e-06
1.78915e-06
1.7891e-06
1.7891e-06
1.7891e-06
1.7891e-06
1.78915e-06
1.79392e-06
1.79584e-06
1.79523e-06
1.79277e-06
1.78915e-06
1.78913e-06
1.78913e-06
1.78915e-06
1.79376e-06
1.79378e-06
1.79575e-06
1.79545e-06
1.79357e-06
1.79383e-06
1.79398e-06
1.79396e-06
1.79392e-06
1.79378e-06
1.79568e-06
1.79578e-06
1.79549e-06
1.79368e-06
1.79584e-06
1.79576e-06
1.77614e-06
1.77597e-06
1.77578e-06
1.77351e-06
1.77343e-06
1.77329e-06
1.77353e-06
1.77581e-06
1.77602e-06
1.77578e-06
1.77264e-06
1.76971e-06
1.76971e-06
1.76971e-06
1.76971e-06
1.77331e-06
1.77415e-06
1.77351e-06
1.76971e-06
1.7697e-06
1.7697e-06
1.7697e-06
1.7697e-06
1.76971e-06
1.77441e-06
1.77636e-06
1.77614e-06
1.77343e-06
1.7697e-06
1.7697e-06
1.7697e-06
1.7697e-06
1.7697e-06
1.76971e-06
1.77458e-06
1.77609e-06
1.77597e-06
1.77329e-06
1.7697e-06
1.7697e-06
1.7697e-06
1.7697e-06
1.7697e-06
1.7697e-06
1.77456e-06
1.77427e-06
1.77353e-06
1.76971e-06
1.7697e-06
1.7697e-06
1.7697e-06
1.7697e-06
1.76971e-06
1.77451e-06
1.77643e-06
1.77581e-06
1.77331e-06
1.76971e-06
1.7697e-06
1.7697e-06
1.76971e-06
1.77437e-06
1.77437e-06
1.77634e-06
1.77602e-06
1.77415e-06
1.77441e-06
1.77457e-06
1.77456e-06
1.77451e-06
1.77437e-06
1.77629e-06
1.77636e-06
1.7761e-06
1.77428e-06
1.77643e-06
1.77634e-06
1.75671e-06
1.75655e-06
1.75636e-06
1.75408e-06
1.75401e-06
1.75386e-06
1.75411e-06
1.75639e-06
1.75661e-06
1.75635e-06
1.75321e-06
1.75028e-06
1.75028e-06
1.75028e-06
1.75028e-06
1.75388e-06
1.7547e-06
1.75408e-06
1.75028e-06
1.75028e-06
1.75028e-06
1.75028e-06
1.75028e-06
1.75028e-06
1.75499e-06
1.75694e-06
1.75672e-06
1.75401e-06
1.75028e-06
1.75028e-06
1.75028e-06
1.75028e-06
1.75028e-06
1.75028e-06
1.75516e-06
1.75668e-06
1.75655e-06
1.75386e-06
1.75028e-06
1.75028e-06
1.75028e-06
1.75028e-06
1.75028e-06
1.75028e-06
1.75515e-06
1.75486e-06
1.7541e-06
1.75028e-06
1.75028e-06
1.75028e-06
1.75028e-06
1.75028e-06
1.75028e-06
1.75509e-06
1.75702e-06
1.75639e-06
1.75388e-06
1.75028e-06
1.75028e-06
1.75028e-06
1.75028e-06
1.75496e-06
1.75495e-06
1.75691e-06
1.75659e-06
1.75473e-06
1.75499e-06
1.75516e-06
1.75515e-06
1.75509e-06
1.75495e-06
1.75685e-06
1.75694e-06
1.75668e-06
1.75486e-06
1.75702e-06
1.75691e-06
1.73729e-06
1.73713e-06
1.73692e-06
1.73466e-06
1.73458e-06
1.73443e-06
1.73468e-06
1.73697e-06
1.73719e-06
1.73692e-06
1.73379e-06
1.73086e-06
1.73086e-06
1.73086e-06
1.73086e-06
1.73445e-06
1.73527e-06
1.73466e-06
1.73086e-06
1.73086e-06
1.73086e-06
1.73086e-06
1.73086e-06
1.73086e-06
1.73556e-06
1.73751e-06
1.7373e-06
1.73458e-06
1.73086e-06
1.73086e-06
1.73086e-06
1.73086e-06
1.73086e-06
1.73086e-06
1.73573e-06
1.73726e-06
1.73713e-06
1.73443e-06
1.73086e-06
1.73086e-06
1.73086e-06
1.73086e-06
1.73086e-06
1.73086e-06
1.73573e-06
1.73544e-06
1.73468e-06
1.73086e-06
1.73086e-06
1.73086e-06
1.73086e-06
1.73086e-06
1.73086e-06
1.73567e-06
1.73759e-06
1.73696e-06
1.73445e-06
1.73086e-06
1.73086e-06
1.73086e-06
1.73086e-06
1.73554e-06
1.73553e-06
1.73749e-06
1.73717e-06
1.7353e-06
1.73556e-06
1.73573e-06
1.73573e-06
1.73567e-06
1.73553e-06
1.73743e-06
1.73751e-06
1.73726e-06
1.73544e-06
1.73759e-06
1.73749e-06
1.71787e-06
1.7177e-06
1.7175e-06
1.71523e-06
1.71516e-06
1.71501e-06
1.71526e-06
1.71754e-06
1.71776e-06
1.7175e-06
1.71437e-06
1.71144e-06
1.71143e-06
1.71143e-06
1.71144e-06
1.71502e-06
1.71585e-06
1.71523e-06
1.71144e-06
1.71143e-06
1.71143e-06
1.71143e-06
1.71143e-06
1.71143e-06
1.71614e-06
1.71809e-06
1.71787e-06
1.71516e-06
1.71143e-06
1.71143e-06
1.71143e-06
1.71143e-06
1.71143e-06
1.71143e-06
1.71631e-06
1.71783e-06
1.7177e-06
1.71501e-06
1.71143e-06
1.71143e-06
1.71143e-06
1.71143e-06
1.71143e-06
1.71143e-06
1.71631e-06
1.71601e-06
1.71526e-06
1.71143e-06
1.71143e-06
1.71143e-06
1.71143e-06
1.71143e-06
1.71143e-06
1.71624e-06
1.71817e-06
1.71754e-06
1.71503e-06
1.71143e-06
1.71143e-06
1.71143e-06
1.71143e-06
1.71612e-06
1.71611e-06
1.71807e-06
1.71775e-06
1.71588e-06
1.71614e-06
1.71631e-06
1.71631e-06
1.71624e-06
1.71611e-06
1.718e-06
1.71809e-06
1.71783e-06
1.71602e-06
1.71817e-06
1.71807e-06
1.69844e-06
1.69828e-06
1.69808e-06
1.69581e-06
1.69574e-06
1.69559e-06
1.69583e-06
1.69812e-06
1.69834e-06
1.69808e-06
1.69495e-06
1.69201e-06
1.69201e-06
1.69201e-06
1.69201e-06
1.6956e-06
1.69643e-06
1.69581e-06
1.69201e-06
1.69201e-06
1.69201e-06
1.69201e-06
1.69201e-06
1.69201e-06
1.69671e-06
1.69867e-06
1.69845e-06
1.69574e-06
1.69201e-06
1.69201e-06
1.69201e-06
1.69201e-06
1.69201e-06
1.69201e-06
1.69689e-06
1.69841e-06
1.69828e-06
1.69559e-06
1.69201e-06
1.69201e-06
1.69201e-06
1.69201e-06
1.69201e-06
1.69201e-06
1.69688e-06
1.69659e-06
1.69583e-06
1.69201e-06
1.69201e-06
1.69201e-06
1.69201e-06
1.69201e-06
1.69201e-06
1.69682e-06
1.69875e-06
1.69812e-06
1.69561e-06
1.69201e-06
1.69201e-06
1.69201e-06
1.69201e-06
1.6967e-06
1.69668e-06
1.69864e-06
1.69832e-06
1.69646e-06
1.69672e-06
1.69689e-06
1.69688e-06
1.69682e-06
1.69669e-06
1.69858e-06
1.69867e-06
1.69841e-06
1.69659e-06
1.69875e-06
1.69865e-06
1.67902e-06
1.67886e-06
1.67865e-06
1.67639e-06
1.67631e-06
1.67616e-06
1.67641e-06
1.6787e-06
1.67892e-06
1.67865e-06
1.67552e-06
1.67259e-06
1.67259e-06
1.67259e-06
1.67259e-06
1.67618e-06
1.677e-06
1.67639e-06
1.67259e-06
1.67259e-06
1.67259e-06
1.67259e-06
1.67259e-06
1.67259e-06
1.67729e-06
1.67924e-06
1.67903e-06
1.67631e-06
1.67259e-06
1.67259e-06
1.67259e-06
1.67259e-06
1.67259e-06
1.67259e-06
1.67746e-06
1.67899e-06
1.67886e-06
1.67616e-06
1.67259e-06
1.67259e-06
1.67259e-06
1.67259e-06
1.67259e-06
1.67259e-06
1.67746e-06
1.67717e-06
1.67641e-06
1.67259e-06
1.67259e-06
1.67259e-06
1.67259e-06
1.67259e-06
1.67259e-06
1.67739e-06
1.67932e-06
1.67869e-06
1.67618e-06
1.67259e-06
1.67259e-06
1.67259e-06
1.67259e-06
1.67727e-06
1.67726e-06
1.67922e-06
1.6789e-06
1.67703e-06
1.67729e-06
1.67746e-06
1.67746e-06
1.67739e-06
1.67726e-06
1.67916e-06
1.67924e-06
1.67899e-06
1.67717e-06
1.67932e-06
1.67922e-06
1.6596e-06
1.65943e-06
1.65923e-06
1.65696e-06
1.65689e-06
1.65674e-06
1.65698e-06
1.65927e-06
1.65949e-06
1.65923e-06
1.65609e-06
1.65316e-06
1.65316e-06
1.65316e-06
1.65316e-06
1.65675e-06
1.65758e-06
1.65696e-06
1.65316e-06
1.65316e-06
1.65316e-06
1.65316e-06
1.65316e-06
1.65316e-06
1.65786e-06
1.65982e-06
1.6596e-06
1.65689e-06
1.65316e-06
1.65316e-06
1.65316e-06
1.65316e-06
1.65316e-06
1.65316e-06
1.65804e-06
1.65956e-06
1.65943e-06
1.65674e-06
1.65316e-06
1.65316e-06
1.65316e-06
1.65316e-06
1.65316e-06
1.65316e-06
1.65803e-06
1.65774e-06
1.65698e-06
1.65316e-06
1.65316e-06
1.65316e-06
1.65316e-06
1.65316e-06
1.65316e-06
1.65797e-06
1.6599e-06
1.65927e-06
1.65676e-06
1.65316e-06
1.65316e-06
1.65316e-06
1.65316e-06
1.65785e-06
1.65783e-06
1.65979e-06
1.65947e-06
1.65761e-06
1.65787e-06
1.65804e-06
1.65803e-06
1.65797e-06
1.65784e-06
1.65973e-06
1.65982e-06
1.65956e-06
1.65774e-06
1.6599e-06
1.6598e-06
1.64017e-06
1.64001e-06
1.63981e-06
1.63754e-06
1.63746e-06
1.63731e-06
1.63756e-06
1.63985e-06
1.64007e-06
1.6398e-06
1.63667e-06
1.63374e-06
1.63374e-06
1.63374e-06
1.63374e-06
1.63733e-06
1.63815e-06
1.63754e-06
1.63374e-06
1.63374e-06
1.63374e-06
1.63374e-06
1.63374e-06
1.63374e-06
1.63844e-06
1.64039e-06
1.64018e-06
1.63746e-06
1.63374e-06
1.63374e-06
1.63374e-06
1.63374e-06
1.63374e-06
1.63374e-06
1.63861e-06
1.64014e-06
1.64001e-06
1.63731e-06
1.63374e-06
1.63374e-06
1.63374e-06
1.63374e-06
1.63374e-06
1.63374e-06
1.63861e-06
1.63832e-06
1.63756e-06
1.63374e-06
1.63374e-06
1.63374e-06
1.63374e-06
1.63374e-06
1.63374e-06
1.63854e-06
1.64047e-06
1.63984e-06
1.63733e-06
1.63374e-06
1.63374e-06
1.63374e-06
1.63374e-06
1.63842e-06
1.63841e-06
1.64037e-06
1.64005e-06
1.63818e-06
1.63844e-06
1.63861e-06
1.63861e-06
1.63854e-06
1.63841e-06
1.64031e-06
1.64039e-06
1.64014e-06
1.63832e-06
1.64047e-06
1.64037e-06
1.62075e-06
1.62058e-06
1.62038e-06
1.61811e-06
1.61804e-06
1.61789e-06
1.61813e-06
1.62042e-06
1.62064e-06
1.62038e-06
1.61724e-06
1.61431e-06
1.61431e-06
1.61431e-06
1.61431e-06
1.6179e-06
1.61873e-06
1.61811e-06
1.61431e-06
1.61431e-06
1.61431e-06
1.61431e-06
1.61431e-06
1.61431e-06
1.61901e-06
1.62097e-06
1.62075e-06
1.61804e-06
1.61431e-06
1.61431e-06
1.61431e-06
1.61431e-06
1.61431e-06
1.61431e-06
1.61919e-06
1.62071e-06
1.62058e-06
1.61789e-06
1.61431e-06
1.61431e-06
1.61431e-06
1.61431e-06
1.61431e-06
1.61431e-06
1.61918e-06
1.61889e-06
1.61813e-06
1.61431e-06
1.61431e-06
1.61431e-06
1.61431e-06
1.61431e-06
1.61431e-06
1.61912e-06
1.62105e-06
1.62042e-06
1.61791e-06
1.61431e-06
1.61431e-06
1.61431e-06
1.61431e-06
1.619e-06
1.61898e-06
1.62094e-06
1.62062e-06
1.61876e-06
1.61902e-06
1.61919e-06
1.61918e-06
1.61912e-06
1.61899e-06
1.62088e-06
1.62097e-06
1.62071e-06
1.61889e-06
1.62105e-06
1.62095e-06
1.60132e-06
1.60116e-06
1.60096e-06
1.59869e-06
1.59861e-06
1.59846e-06
1.59871e-06
1.601e-06
1.60122e-06
1.60095e-06
1.59782e-06
1.59489e-06
1.59489e-06
1.59489e-06
1.59489e-06
1.59848e-06
1.5993e-06
1.59869e-06
1.59489e-06
1.59489e-06
1.59489e-06
1.59489e-06
1.59489e-06
1.59489e-06
1.59959e-06
1.60154e-06
1.60133e-06
1.59861e-06
1.59489e-06
1.59489e-06
1.59489e-06
1.59489e-06
1.59489e-06
1.59489e-06
1.59976e-06
1.60129e-06
1.60116e-06
1.59846e-06
1.59489e-06
1.59489e-06
1.59489e-06
1.59489e-06
1.59489e-06
1.59489e-06
1.59976e-06
1.59947e-06
1.59871e-06
1.59489e-06
1.59489e-06
1.59489e-06
1.59489e-06
1.59489e-06
1.59489e-06
1.59969e-06
1.60162e-06
1.60099e-06
1.59848e-06
1.59489e-06
1.59489e-06
1.59489e-06
1.59489e-06
1.59957e-06
1.59956e-06
1.60152e-06
1.6012e-06
1.59933e-06
1.59959e-06
1.59976e-06
1.59976e-06
1.59969e-06
1.59956e-06
1.60146e-06
1.60154e-06
1.60129e-06
1.59947e-06
1.60162e-06
1.60152e-06
1.5819e-06
1.58173e-06
1.58153e-06
1.57926e-06
1.57919e-06
1.57904e-06
1.57928e-06
1.58157e-06
1.58179e-06
1.58153e-06
1.57839e-06
1.57546e-06
1.57546e-06
1.57546e-06
1.57546e-06
1.57905e-06
1.57988e-06
1.57926e-06
1.57546e-06
1.57546e-06
1.57546e-06
1.57546e-06
1.57546e-06
1.57546e-06
1.58017e-06
1.58212e-06
1.5819e-06
1.57919e-06
1.57546e-06
1.57546e-06
1.57546e-06
1.57546e-06
1.57546e-06
1.57546e-06
1.58034e-06
1.58186e-06
1.58173e-06
1.57904e-06
1.57546e-06
1.57546e-06
1.57546e-06
1.57546e-06
1.57546e-06
1.57546e-06
1.58033e-06
1.58004e-06
1.57928e-06
1.57546e-06
1.57546e-06
1.57546e-06
1.57546e-06
1.57546e-06
1.57546e-06
1.58027e-06
1.5822e-06
1.58157e-06
1.57906e-06
1.57546e-06
1.57546e-06
1.57546e-06
1.57546e-06
1.58015e-06
1.58013e-06
1.5821e-06
1.58177e-06
1.57991e-06
1.58017e-06
1.58034e-06
1.58033e-06
1.58027e-06
1.58014e-06
1.58203e-06
1.58212e-06
1.58186e-06
1.58004e-06
1.5822e-06
1.5821e-06
1.56247e-06
1.56231e-06
1.56211e-06
1.55984e-06
1.55976e-06
1.55961e-06
1.55986e-06
1.56215e-06
1.56237e-06
1.56211e-06
1.55897e-06
1.55604e-06
1.55604e-06
1.55604e-06
1.55604e-06
1.55963e-06
1.56045e-06
1.55984e-06
1.55604e-06
1.55604e-06
1.55604e-06
1.55604e-06
1.55604e-06
1.55604e-06
1.56074e-06
1.5627e-06
1.56248e-06
1.55976e-06
1.55604e-06
1.55604e-06
1.55604e-06
1.55604e-06
1.55604e-06
1.55604e-06
1.56091e-06
1.56244e-06
1.56231e-06
1.55962e-06
1.55604e-06
1.55604e-06
1.55604e-06
1.55604e-06
1.55604e-06
1.55604e-06
1.56091e-06
1.56062e-06
1.55986e-06
1.55604e-06
1.55604e-06
1.55604e-06
1.55604e-06
1.55604e-06
1.55604e-06
1.56085e-06
1.56278e-06
1.56214e-06
1.55964e-06
1.55604e-06
1.55604e-06
1.55604e-06
1.55604e-06
1.56072e-06
1.56071e-06
1.56267e-06
1.56235e-06
1.56048e-06
1.56075e-06
1.56091e-06
1.56091e-06
1.56084e-06
1.56071e-06
1.56261e-06
1.5627e-06
1.56244e-06
1.56062e-06
1.56278e-06
1.56267e-06
1.54305e-06
1.54288e-06
1.54268e-06
1.54041e-06
1.54034e-06
1.54019e-06
1.54044e-06
1.54272e-06
1.54294e-06
1.54268e-06
1.53955e-06
1.53661e-06
1.53661e-06
1.53661e-06
1.53661e-06
1.54021e-06
1.54103e-06
1.54041e-06
1.53661e-06
1.53661e-06
1.53661e-06
1.53661e-06
1.53661e-06
1.53661e-06
1.54132e-06
1.54327e-06
1.54305e-06
1.54034e-06
1.53661e-06
1.53661e-06
1.53661e-06
1.53661e-06
1.53661e-06
1.53661e-06
1.54149e-06
1.54301e-06
1.54288e-06
1.54019e-06
1.53661e-06
1.53661e-06
1.53661e-06
1.53661e-06
1.53661e-06
1.53661e-06
1.54148e-06
1.54119e-06
1.54044e-06
1.53661e-06
1.53661e-06
1.53661e-06
1.53661e-06
1.53661e-06
1.53661e-06
1.54142e-06
1.54335e-06
1.54272e-06
1.54021e-06
1.53661e-06
1.53661e-06
1.53661e-06
1.53661e-06
1.5413e-06
1.54129e-06
1.54325e-06
1.54292e-06
1.54106e-06
1.54132e-06
1.54149e-06
1.54148e-06
1.54142e-06
1.54129e-06
1.54318e-06
1.54327e-06
1.54301e-06
1.54119e-06
1.54335e-06
1.54325e-06
1.52362e-06
1.52346e-06
1.52326e-06
1.52099e-06
1.52092e-06
1.52077e-06
1.52101e-06
1.5233e-06
1.52352e-06
1.52326e-06
1.52012e-06
1.51719e-06
1.51719e-06
1.51719e-06
1.51719e-06
1.52078e-06
1.52161e-06
1.52099e-06
1.51719e-06
1.51719e-06
1.51719e-06
1.51719e-06
1.51719e-06
1.51719e-06
1.52189e-06
1.52385e-06
1.52363e-06
1.52091e-06
1.51719e-06
1.51719e-06
1.51719e-06
1.51719e-06
1.51719e-06
1.51719e-06
1.52207e-06
1.52359e-06
1.52346e-06
1.52077e-06
1.51719e-06
1.51719e-06
1.51719e-06
1.51719e-06
1.51719e-06
1.51719e-06
1.52206e-06
1.52177e-06
1.52101e-06
1.51719e-06
1.51719e-06
1.51719e-06
1.51719e-06
1.51719e-06
1.51719e-06
1.522e-06
1.52393e-06
1.5233e-06
1.52079e-06
1.51719e-06
1.51719e-06
1.51719e-06
1.51719e-06
1.52188e-06
1.52186e-06
1.52382e-06
1.5235e-06
1.52164e-06
1.5219e-06
1.52206e-06
1.52206e-06
1.52199e-06
1.52186e-06
1.52376e-06
1.52385e-06
1.52359e-06
1.52177e-06
1.52393e-06
1.52382e-06
1.5042e-06
1.50404e-06
1.50383e-06
1.50156e-06
1.50149e-06
1.50134e-06
1.50159e-06
1.50387e-06
1.5041e-06
1.50383e-06
1.5007e-06
1.49777e-06
1.49777e-06
1.49777e-06
1.49777e-06
1.50136e-06
1.50218e-06
1.50156e-06
1.49777e-06
1.49777e-06
1.49777e-06
1.49777e-06
1.49777e-06
1.49777e-06
1.50247e-06
1.50442e-06
1.50421e-06
1.50149e-06
1.49777e-06
1.49777e-06
1.49777e-06
1.49777e-06
1.49777e-06
1.49777e-06
1.50264e-06
1.50416e-06
1.50403e-06
1.50134e-06
1.49777e-06
1.49777e-06
1.49777e-06
1.49777e-06
1.49777e-06
1.49777e-06
1.50264e-06
1.50235e-06
1.50159e-06
1.49777e-06
1.49777e-06
1.49777e-06
1.49777e-06
1.49777e-06
1.49777e-06
1.50257e-06
1.5045e-06
1.50387e-06
1.50136e-06
1.49777e-06
1.49777e-06
1.49777e-06
1.49777e-06
1.50245e-06
1.50244e-06
1.5044e-06
1.50408e-06
1.50221e-06
1.50247e-06
1.50264e-06
1.50264e-06
1.50257e-06
1.50244e-06
1.50433e-06
1.50442e-06
1.50416e-06
1.50235e-06
1.5045e-06
1.5044e-06
1.48477e-06
1.48461e-06
1.48441e-06
1.48214e-06
1.48207e-06
1.48192e-06
1.48216e-06
1.48445e-06
1.48467e-06
1.48441e-06
1.48127e-06
1.47834e-06
1.47834e-06
1.47834e-06
1.47834e-06
1.48193e-06
1.48276e-06
1.48214e-06
1.47834e-06
1.47834e-06
1.47834e-06
1.47834e-06
1.47834e-06
1.47834e-06
1.48304e-06
1.485e-06
1.48478e-06
1.48207e-06
1.47834e-06
1.47834e-06
1.47834e-06
1.47834e-06
1.47834e-06
1.47834e-06
1.48322e-06
1.48474e-06
1.48461e-06
1.48192e-06
1.47834e-06
1.47834e-06
1.47834e-06
1.47834e-06
1.47834e-06
1.47834e-06
1.48321e-06
1.48292e-06
1.48216e-06
1.47834e-06
1.47834e-06
1.47834e-06
1.47834e-06
1.47834e-06
1.47834e-06
1.48315e-06
1.48508e-06
1.48445e-06
1.48194e-06
1.47834e-06
1.47834e-06
1.47834e-06
1.47834e-06
1.48303e-06
1.48301e-06
1.48497e-06
1.48465e-06
1.48279e-06
1.48305e-06
1.48322e-06
1.48321e-06
1.48315e-06
1.48302e-06
1.48491e-06
1.485e-06
1.48474e-06
1.48292e-06
1.48508e-06
1.48498e-06
1.46535e-06
1.46519e-06
1.46499e-06
1.46272e-06
1.46264e-06
1.46249e-06
1.46274e-06
1.46502e-06
1.46525e-06
1.46499e-06
1.46185e-06
1.45892e-06
1.45892e-06
1.45892e-06
1.45892e-06
1.46251e-06
1.46333e-06
1.46272e-06
1.45892e-06
1.45892e-06
1.45892e-06
1.45892e-06
1.45892e-06
1.45892e-06
1.46362e-06
1.46557e-06
1.46536e-06
1.46264e-06
1.45892e-06
1.45892e-06
1.45892e-06
1.45892e-06
1.45892e-06
1.45892e-06
1.46379e-06
1.46532e-06
1.46519e-06
1.46249e-06
1.45892e-06
1.45892e-06
1.45892e-06
1.45892e-06
1.45892e-06
1.45892e-06
1.46379e-06
1.4635e-06
1.46274e-06
1.45892e-06
1.45892e-06
1.45892e-06
1.45892e-06
1.45892e-06
1.45892e-06
1.46373e-06
1.46566e-06
1.46502e-06
1.46251e-06
1.45892e-06
1.45892e-06
1.45892e-06
1.45892e-06
1.4636e-06
1.46359e-06
1.46555e-06
1.46523e-06
1.46336e-06
1.46362e-06
1.46379e-06
1.46379e-06
1.46372e-06
1.46359e-06
1.46549e-06
1.46558e-06
1.46532e-06
1.4635e-06
1.46565e-06
1.46555e-06
1.44593e-06
1.44576e-06
1.44556e-06
1.44329e-06
1.44322e-06
1.44307e-06
1.44332e-06
1.4456e-06
1.44582e-06
1.44556e-06
1.44243e-06
1.43949e-06
1.43949e-06
1.43949e-06
1.43949e-06
1.44309e-06
1.44391e-06
1.44329e-06
1.43949e-06
1.43949e-06
1.43949e-06
1.43949e-06
1.43949e-06
1.43949e-06
1.4442e-06
1.44615e-06
1.44593e-06
1.44322e-06
1.43949e-06
1.43949e-06
1.43949e-06
1.43949e-06
1.43949e-06
1.43949e-06
1.44437e-06
1.44589e-06
1.44576e-06
1.44307e-06
1.43949e-06
1.43949e-06
1.43949e-06
1.43949e-06
1.43949e-06
1.43949e-06
1.44436e-06
1.44407e-06
1.44332e-06
1.43949e-06
1.43949e-06
1.43949e-06
1.43949e-06
1.43949e-06
1.43949e-06
1.4443e-06
1.44623e-06
1.4456e-06
1.44309e-06
1.43949e-06
1.43949e-06
1.43949e-06
1.43949e-06
1.44418e-06
1.44417e-06
1.44613e-06
1.4458e-06
1.44394e-06
1.4442e-06
1.44437e-06
1.44436e-06
1.4443e-06
1.44417e-06
1.44606e-06
1.44615e-06
1.44589e-06
1.44407e-06
1.44623e-06
1.44613e-06
1.4265e-06
1.42634e-06
1.42614e-06
1.42387e-06
1.4238e-06
1.42365e-06
1.42389e-06
1.42618e-06
1.4264e-06
1.42614e-06
1.423e-06
1.42007e-06
1.42007e-06
1.42007e-06
1.42007e-06
1.42366e-06
1.42449e-06
1.42387e-06
1.42007e-06
1.42007e-06
1.42007e-06
1.42007e-06
1.42007e-06
1.42007e-06
1.42477e-06
1.42673e-06
1.42651e-06
1.4238e-06
1.42007e-06
1.42007e-06
1.42007e-06
1.42007e-06
1.42007e-06
1.42007e-06
1.42495e-06
1.42647e-06
1.42634e-06
1.42365e-06
1.42007e-06
1.42007e-06
1.42007e-06
1.42007e-06
1.42007e-06
1.42007e-06
1.42494e-06
1.42465e-06
1.42389e-06
1.42007e-06
1.42007e-06
1.42007e-06
1.42007e-06
1.42007e-06
1.42007e-06
1.42488e-06
1.42681e-06
1.42618e-06
1.42367e-06
1.42007e-06
1.42007e-06
1.42007e-06
1.42007e-06
1.42476e-06
1.42474e-06
1.4267e-06
1.42638e-06
1.42452e-06
1.42478e-06
1.42495e-06
1.42494e-06
1.42488e-06
1.42475e-06
1.42664e-06
1.42673e-06
1.42647e-06
1.42465e-06
1.42681e-06
1.4267e-06
1.40708e-06
1.40692e-06
1.40672e-06
1.40445e-06
1.40437e-06
1.40422e-06
1.40447e-06
1.40675e-06
1.40698e-06
1.40671e-06
1.40358e-06
1.40065e-06
1.40065e-06
1.40065e-06
1.40065e-06
1.40424e-06
1.40506e-06
1.40445e-06
1.40065e-06
1.40065e-06
1.40065e-06
1.40065e-06
1.40065e-06
1.40065e-06
1.40535e-06
1.4073e-06
1.40709e-06
1.40437e-06
1.40065e-06
1.40065e-06
1.40065e-06
1.40065e-06
1.40065e-06
1.40065e-06
1.40552e-06
1.40705e-06
1.40692e-06
1.40422e-06
1.40065e-06
1.40065e-06
1.40065e-06
1.40065e-06
1.40065e-06
1.40065e-06
1.40552e-06
1.40523e-06
1.40447e-06
1.40065e-06
1.40065e-06
1.40065e-06
1.40065e-06
1.40065e-06
1.40065e-06
1.40545e-06
1.40738e-06
1.40675e-06
1.40424e-06
1.40065e-06
1.40065e-06
1.40065e-06
1.40065e-06
1.40533e-06
1.40532e-06
1.40728e-06
1.40696e-06
1.40509e-06
1.40535e-06
1.40552e-06
1.40552e-06
1.40545e-06
1.40532e-06
1.40722e-06
1.4073e-06
1.40705e-06
1.40523e-06
1.40738e-06
1.40728e-06
1.38766e-06
1.38749e-06
1.38729e-06
1.38502e-06
1.38495e-06
1.3848e-06
1.38505e-06
1.38733e-06
1.38755e-06
1.38729e-06
1.38416e-06
1.38122e-06
1.38122e-06
1.38122e-06
1.38122e-06
1.38482e-06
1.38564e-06
1.38502e-06
1.38122e-06
1.38122e-06
1.38122e-06
1.38122e-06
1.38122e-06
1.38122e-06
1.38593e-06
1.38788e-06
1.38766e-06
1.38495e-06
1.38122e-06
1.38122e-06
1.38122e-06
1.38122e-06
1.38122e-06
1.38122e-06
1.3861e-06
1.38762e-06
1.38749e-06
1.3848e-06
1.38122e-06
1.38122e-06
1.38122e-06
1.38122e-06
1.38122e-06
1.38122e-06
1.38609e-06
1.3858e-06
1.38505e-06
1.38122e-06
1.38122e-06
1.38122e-06
1.38122e-06
1.38122e-06
1.38122e-06
1.38603e-06
1.38796e-06
1.38733e-06
1.38482e-06
1.38122e-06
1.38122e-06
1.38122e-06
1.38122e-06
1.38591e-06
1.3859e-06
1.38786e-06
1.38753e-06
1.38567e-06
1.38593e-06
1.3861e-06
1.38609e-06
1.38603e-06
1.3859e-06
1.38779e-06
1.38788e-06
1.38762e-06
1.3858e-06
1.38796e-06
1.38786e-06
1.36823e-06
1.36807e-06
1.36787e-06
1.3656e-06
1.36553e-06
1.36538e-06
1.36562e-06
1.36791e-06
1.36813e-06
1.36787e-06
1.36473e-06
1.3618e-06
1.3618e-06
1.3618e-06
1.3618e-06
1.36539e-06
1.36622e-06
1.3656e-06
1.3618e-06
1.3618e-06
1.3618e-06
1.3618e-06
1.3618e-06
1.3618e-06
1.3665e-06
1.36846e-06
1.36824e-06
1.36553e-06
1.3618e-06
1.3618e-06
1.3618e-06
1.3618e-06
1.3618e-06
1.3618e-06
1.36668e-06
1.3682e-06
1.36807e-06
1.36538e-06
1.3618e-06
1.3618e-06
1.3618e-06
1.3618e-06
1.3618e-06
1.3618e-06
1.36667e-06
1.36638e-06
1.36562e-06
1.3618e-06
1.3618e-06
1.3618e-06
1.3618e-06
1.3618e-06
1.3618e-06
1.36661e-06
1.36854e-06
1.36791e-06
1.3654e-06
1.3618e-06
1.3618e-06
1.3618e-06
1.3618e-06
1.36649e-06
1.36647e-06
1.36843e-06
1.36811e-06
1.36625e-06
1.36651e-06
1.36668e-06
1.36667e-06
1.36661e-06
1.36648e-06
1.36837e-06
1.36846e-06
1.3682e-06
1.36638e-06
1.36854e-06
1.36843e-06
1.34881e-06
1.34865e-06
1.34845e-06
1.34618e-06
1.3461e-06
1.34595e-06
1.3462e-06
1.34848e-06
1.34871e-06
1.34845e-06
1.34531e-06
1.34238e-06
1.34238e-06
1.34238e-06
1.34238e-06
1.34597e-06
1.34679e-06
1.34618e-06
1.34238e-06
1.34238e-06
1.34238e-06
1.34238e-06
1.34238e-06
1.34238e-06
1.34708e-06
1.34903e-06
1.34882e-06
1.3461e-06
1.34238e-06
1.34238e-06
1.34238e-06
1.34238e-06
1.34238e-06
1.34238e-06
1.34725e-06
1.34878e-06
1.34865e-06
1.34595e-06
1.34238e-06
1.34238e-06
1.34238e-06
1.34238e-06
1.34238e-06
1.34238e-06
1.34725e-06
1.34696e-06
1.3462e-06
1.34238e-06
1.34238e-06
1.34238e-06
1.34238e-06
1.34238e-06
1.34238e-06
1.34719e-06
1.34912e-06
1.34848e-06
1.34597e-06
1.34238e-06
1.34238e-06
1.34238e-06
1.34238e-06
1.34706e-06
1.34705e-06
1.34901e-06
1.34869e-06
1.34682e-06
1.34708e-06
1.34725e-06
1.34725e-06
1.34718e-06
1.34705e-06
1.34895e-06
1.34904e-06
1.34878e-06
1.34696e-06
1.34912e-06
1.34901e-06
1.32939e-06
1.32922e-06
1.32902e-06
1.32675e-06
1.32668e-06
1.32653e-06
1.32678e-06
1.32906e-06
1.32928e-06
1.32902e-06
1.32589e-06
1.32295e-06
1.32295e-06
1.32295e-06
1.32295e-06
1.32655e-06
1.32737e-06
1.32675e-06
1.32295e-06
1.32295e-06
1.32295e-06
1.32295e-06
1.32295e-06
1.32295e-06
1.32766e-06
1.32961e-06
1.32939e-06
1.32668e-06
1.32295e-06
1.32295e-06
1.32295e-06
1.32295e-06
1.32295e-06
1.32295e-06
1.32783e-06
1.32935e-06
1.32922e-06
1.32653e-06
1.32295e-06
1.32295e-06
1.32295e-06
1.32295e-06
1.32295e-06
1.32295e-06
1.32782e-06
1.32753e-06
1.32678e-06
1.32295e-06
1.32295e-06
1.32295e-06
1.32295e-06
1.32295e-06
1.32295e-06
1.32776e-06
1.32969e-06
1.32906e-06
1.32655e-06
1.32295e-06
1.32295e-06
1.32295e-06
1.32295e-06
1.32764e-06
1.32763e-06
1.32959e-06
1.32926e-06
1.3274e-06
1.32766e-06
1.32783e-06
1.32782e-06
1.32776e-06
1.32763e-06
1.32952e-06
1.32961e-06
1.32935e-06
1.32753e-06
1.32969e-06
1.32959e-06
1.30996e-06
1.3098e-06
1.3096e-06
1.30733e-06
1.30726e-06
1.30711e-06
1.30735e-06
1.30964e-06
1.30986e-06
1.3096e-06
1.30646e-06
1.30353e-06
1.30353e-06
1.30353e-06
1.30353e-06
1.30712e-06
1.30795e-06
1.30733e-06
1.30353e-06
1.30353e-06
1.30353e-06
1.30353e-06
1.30353e-06
1.30353e-06
1.30823e-06
1.31019e-06
1.30997e-06
1.30725e-06
1.30353e-06
1.30353e-06
1.30353e-06
1.30353e-06
1.30353e-06
1.30353e-06
1.30841e-06
1.30993e-06
1.3098e-06
1.30711e-06
1.30353e-06
1.30353e-06
1.30353e-06
1.30353e-06
1.30353e-06
1.30353e-06
1.3084e-06
1.30811e-06
1.30735e-06
1.30353e-06
1.30353e-06
1.30353e-06
1.30353e-06
1.30353e-06
1.30353e-06
1.30834e-06
1.31027e-06
1.30964e-06
1.30713e-06
1.30353e-06
1.30353e-06
1.30353e-06
1.30353e-06
1.30822e-06
1.3082e-06
1.31016e-06
1.30984e-06
1.30798e-06
1.30824e-06
1.30841e-06
1.3084e-06
1.30834e-06
1.30821e-06
1.3101e-06
1.31019e-06
1.30993e-06
1.30811e-06
1.31027e-06
1.31016e-06
1.29054e-06
1.29038e-06
1.29017e-06
1.28791e-06
1.28783e-06
1.28768e-06
1.28793e-06
1.29021e-06
1.29044e-06
1.29017e-06
1.28704e-06
1.28411e-06
1.28411e-06
1.28411e-06
1.28411e-06
1.2877e-06
1.28852e-06
1.2879e-06
1.28411e-06
1.28411e-06
1.28411e-06
1.28411e-06
1.28411e-06
1.28411e-06
1.28881e-06
1.29076e-06
1.29055e-06
1.28783e-06
1.28411e-06
1.28411e-06
1.28411e-06
1.28411e-06
1.28411e-06
1.28411e-06
1.28898e-06
1.2905e-06
1.29037e-06
1.28768e-06
1.28411e-06
1.28411e-06
1.28411e-06
1.28411e-06
1.28411e-06
1.28411e-06
1.28898e-06
1.28869e-06
1.28793e-06
1.28411e-06
1.28411e-06
1.28411e-06
1.28411e-06
1.28411e-06
1.28411e-06
1.28891e-06
1.29084e-06
1.29021e-06
1.2877e-06
1.28411e-06
1.28411e-06
1.28411e-06
1.28411e-06
1.28879e-06
1.28878e-06
1.29074e-06
1.29042e-06
1.28855e-06
1.28881e-06
1.28898e-06
1.28898e-06
1.28891e-06
1.28878e-06
1.29068e-06
1.29076e-06
1.29051e-06
1.28869e-06
1.29084e-06
1.29074e-06
1.27111e-06
1.27095e-06
1.27075e-06
1.26848e-06
1.26841e-06
1.26826e-06
1.2685e-06
1.27079e-06
1.27101e-06
1.27075e-06
1.26761e-06
1.26468e-06
1.26468e-06
1.26468e-06
1.26468e-06
1.26827e-06
1.2691e-06
1.26848e-06
1.26468e-06
1.26468e-06
1.26468e-06
1.26468e-06
1.26468e-06
1.26468e-06
1.26938e-06
1.27134e-06
1.27112e-06
1.26841e-06
1.26468e-06
1.26468e-06
1.26468e-06
1.26468e-06
1.26468e-06
1.26468e-06
1.26956e-06
1.27108e-06
1.27095e-06
1.26826e-06
1.26468e-06
1.26468e-06
1.26468e-06
1.26468e-06
1.26468e-06
1.26468e-06
1.26955e-06
1.26926e-06
1.2685e-06
1.26468e-06
1.26468e-06
1.26468e-06
1.26468e-06
1.26468e-06
1.26468e-06
1.26949e-06
1.27142e-06
1.27079e-06
1.26828e-06
1.26468e-06
1.26468e-06