/*--------------------------------*- C++ -*----------------------------------*\
| =========                 |                                                 |
| \\      /  F ield         | OpenFOAM: The Open Source CFD Toolbox           |
|  \\    /   O peration     | Version:  v2012                                 |
|   \\  /    A nd           | Website:  www.openfoam.com                      |
|    \\/     M anipulation  |                                                 |
\*---------------------------------------------------------------------------*/
FoamFile
{
    version     2.0;
    format      ascii;
    class       volScalarField;
    location    "1000";
    object      epsilon;
}
// * * * * * * * * * * * * * * * * * * * * * * * * * * * * * * * * * * * * * //

dimensions      [0 2 -3 0 0 0 0];


internalField   nonuniform List<scalar> 
171728
(
1.7181e-09
5.98665e-09
3.96318e-09
4.88394e-09
1.68799e-09
4.98125e-09
3.72112e-09
4.40533e-09
1.61153e-09
4.23049e-09
3.46792e-09
4.02486e-09
1.53753e-09
3.85162e-09
3.23276e-09
3.70442e-09
1.46248e-09
3.60713e-09
3.01463e-09
3.4503e-09
1.38252e-09
3.41996e-09
2.82954e-09
3.25618e-09
1.30148e-09
3.3009e-09
2.67278e-09
3.01926e-09
1.22044e-09
3.24333e-09
2.54349e-09
2.8108e-09
1.13828e-09
3.2505e-09
2.44405e-09
2.65581e-09
1.04607e-09
3.30854e-09
2.37909e-09
2.51319e-09
9.64645e-10
3.45215e-09
2.34893e-09
2.38887e-09
8.96548e-10
3.56207e-09
2.36205e-09
2.32113e-09
8.37729e-10
3.60897e-09
2.41961e-09
2.30569e-09
7.97012e-10
3.74464e-09
2.53345e-09
2.3521e-09
7.62755e-10
3.95898e-09
2.72616e-09
2.4789e-09
7.28643e-10
4.27936e-09
3.03601e-09
2.73473e-09
6.97219e-10
4.61932e-09
3.5229e-09
3.1875e-09
6.77586e-10
5.02625e-09
4.25699e-09
3.9205e-09
6.54638e-10
5.80421e-09
5.33538e-09
5.20228e-09
6.50711e-10
7.26717e-09
7.05004e-09
8.46757e-09
6.28304e-10
9.55046e-09
9.5643e-09
1.20191e-08
6.31901e-10
1.21696e-08
1.27277e-08
1.852e-08
6.67285e-10
1.89962e-08
1.784e-08
2.93785e-08
6.90768e-10
2.23363e-08
2.43899e-08
4.84667e-08
7.63244e-10
3.27342e-08
3.3387e-08
6.21423e-08
8.76738e-10
4.5095e-08
4.41879e-08
1.16554e-07
1.05854e-09
5.83066e-08
5.90852e-08
1.61521e-07
1.32759e-09
7.45905e-08
7.56593e-08
2.15246e-07
1.6621e-09
9.70871e-08
9.61791e-08
2.8876e-07
2.18698e-09
1.14143e-07
1.17359e-07
3.64407e-07
2.91234e-09
1.47756e-07
1.46001e-07
4.48869e-07
3.87748e-09
1.69823e-07
1.73761e-07
5.16697e-07
5.00204e-09
2.09446e-07
2.098e-07
6.00071e-07
6.9245e-09
2.37267e-07
2.38542e-07
6.34975e-07
8.91088e-09
2.76151e-07
2.98699e-07
7.00178e-07
1.22259e-08
3.23589e-07
3.29772e-07
7.76309e-07
1.56408e-08
3.60777e-07
3.46861e-07
8.02215e-07
1.95655e-08
4.08492e-07
4.13998e-07
8.3498e-07
2.66619e-08
4.57268e-07
4.79916e-07
8.84476e-07
3.26707e-08
4.99805e-07
5.02123e-07
9.24387e-07
4.29084e-08
5.6365e-07
5.44834e-07
9.44636e-07
4.78066e-08
5.89025e-07
6.031e-07
9.56897e-07
6.32157e-08
6.38543e-07
6.38278e-07
1.01576e-06
7.80472e-08
7.15344e-07
7.17829e-07
1.06841e-06
9.20377e-08
7.39543e-07
7.44257e-07
1.05284e-06
1.09081e-07
7.68014e-07
7.60385e-07
1.08315e-06
1.3191e-07
8.42888e-07
8.36052e-07
1.13913e-06
1.45675e-07
8.66333e-07
8.80461e-07
1.1213e-06
1.70318e-07
8.86759e-07
8.85901e-07
1.15678e-06
1.95952e-07
9.46027e-07
9.30603e-07
1.21273e-06
2.39449e-07
9.84283e-07
9.94745e-07
1.23757e-06
2.63027e-07
9.93177e-07
1.00195e-06
1.23526e-06
2.74646e-07
1.01104e-06
1.01158e-06
1.23745e-06
3.11042e-07
1.06289e-06
1.0548e-06
1.28656e-06
3.56666e-07
1.08739e-06
1.08495e-06
1.30865e-06
3.78886e-07
1.0927e-06
1.09325e-06
1.30562e-06
4.13009e-07
1.10899e-06
1.12238e-06
1.32853e-06
4.47189e-07
1.1471e-06
1.14356e-06
1.36594e-06
4.68225e-07
1.15798e-06
1.15447e-06
1.35845e-06
4.97096e-07
1.16672e-06
1.16408e-06
1.35623e-06
5.28031e-07
1.19397e-06
1.18457e-06
1.40052e-06
5.5949e-07
1.20808e-06
1.2201e-06
1.42709e-06
5.75148e-07
1.21256e-06
1.23085e-06
1.41597e-06
5.96521e-07
1.23362e-06
1.22366e-06
1.41382e-06
6.32395e-07
1.24609e-06
1.2221e-06
1.44064e-06
6.46437e-07
1.25017e-06
1.25089e-06
1.4494e-06
6.47393e-07
1.26655e-06
1.27628e-06
1.46421e-06
6.64948e-07
1.27733e-06
1.28182e-06
1.47665e-06
6.98904e-07
1.27774e-06
1.27728e-06
1.46922e-06
7.13889e-07
1.28269e-06
1.27557e-06
1.47467e-06
7.24231e-07
1.2961e-06
1.3032e-06
1.50095e-06
7.37988e-07
1.31151e-06
1.31227e-06
1.50904e-06
7.3992e-07
1.30799e-06
1.29925e-06
1.50006e-06
7.47591e-07
1.29827e-06
1.29719e-06
1.48984e-06
7.73193e-07
1.31101e-06
1.31627e-06
1.5069e-06
7.92412e-07
1.32826e-06
1.33131e-06
1.53864e-06
7.90642e-07
1.3172e-06
1.32534e-06
1.53598e-06
7.8044e-07
1.30851e-06
1.30511e-06
1.50703e-06
7.89803e-07
1.32599e-06
1.31385e-06
1.51228e-06
8.16242e-07
1.33763e-06
1.33558e-06
1.53686e-06
8.16591e-07
1.31935e-06
1.32411e-06
1.52804e-06
8.02363e-07
1.30082e-06
1.31153e-06
1.51516e-06
8.03543e-07
1.31373e-06
1.31891e-06
1.53544e-06
8.1679e-07
1.32888e-06
1.32187e-06
1.54136e-06
8.17173e-07
1.31732e-06
1.30949e-06
1.51679e-06
8.10021e-07
1.30683e-06
1.30813e-06
1.51932e-06
8.09599e-07
1.31307e-06
1.31627e-06
1.54002e-06
8.13406e-07
1.31134e-06
1.31087e-06
1.52464e-06
8.047e-07
1.28821e-06
1.28876e-06
1.49957e-06
7.97043e-07
1.28408e-06
1.28606e-06
1.51222e-06
8.00204e-07
1.29462e-06
1.2951e-06
1.52145e-06
7.96351e-07
1.2793e-06
1.27726e-06
1.4909e-06
7.86534e-07
1.26843e-06
1.26895e-06
1.49304e-06
7.88767e-07
1.28062e-06
1.28354e-06
1.52775e-06
7.6832e-07
1.21193e-06
1.21275e-06
1.4533e-06
5.1524e-09
4.2296e-09
3.51205e-09
4.93056e-09
4.84129e-09
4.02951e-09
1.67941e-09
1.56363e-09
1.42771e-09
1.4837e-09
4.06882e-09
3.89658e-09
5.2696e-09
3.9029e-09
3.908e-09
4.93169e-09
5.10466e-09
4.73055e-09
5.54957e-09
3.58857e-09
5.31465e-09
3.34586e-09
4.90572e-09
4.45384e-09
5.83636e-09
6.50317e-09
5.69747e-09
5.17711e-09
4.83172e-09
5.24148e-09
4.54071e-09
5.24294e-09
4.76638e-09
5.55665e-09
3.78838e-09
5.30103e-09
4.4794e-09
4.65698e-09
4.35339e-09
5.22206e-09
3.26721e-09
4.97137e-09
3.08149e-09
4.42201e-09
4.02822e-09
5.63734e-09
4.8807e-09
5.47879e-09
4.27915e-09
4.4299e-09
4.37425e-09
4.10592e-09
4.73177e-09
4.28927e-09
5.19757e-09
3.52919e-09
4.91754e-09
4.08551e-09
4.29355e-09
4.06436e-09
4.89491e-09
3.03139e-09
4.68308e-09
2.90684e-09
4.00242e-09
3.67686e-09
5.43149e-09
4.13458e-09
5.31451e-09
3.7968e-09
4.00333e-09
3.92716e-09
3.72375e-09
4.26009e-09
3.87682e-09
4.83088e-09
3.29083e-09
4.56586e-09
3.75753e-09
4.01581e-09
3.84055e-09
4.61782e-09
2.87207e-09
4.43402e-09
2.76418e-09
3.65433e-09
3.37708e-09
5.28539e-09
3.70778e-09
5.20994e-09
3.48696e-09
3.63958e-09
3.66222e-09
3.41172e-09
3.85245e-09
3.53312e-09
4.48985e-09
3.06634e-09
4.31816e-09
3.48987e-09
3.80056e-09
3.66311e-09
4.37789e-09
2.72837e-09
4.21253e-09
2.63333e-09
3.35859e-09
3.12164e-09
5.18986e-09
3.42404e-09
5.15248e-09
3.25777e-09
3.34386e-09
3.46081e-09
3.15953e-09
3.51289e-09
3.24462e-09
4.28055e-09
2.87304e-09
4.21488e-09
3.27529e-09
3.63137e-09
3.50724e-09
4.16034e-09
2.60556e-09
4.01317e-09
2.53057e-09
3.1064e-09
2.91228e-09
5.14722e-09
3.21044e-09
5.15595e-09
3.08557e-09
3.10535e-09
3.327e-09
2.96335e-09
3.22779e-09
3.00582e-09
4.19521e-09
2.70907e-09
4.06965e-09
3.04141e-09
3.47913e-09
3.36787e-09
3.96622e-09
2.50799e-09
3.82503e-09
2.4525e-09
2.90194e-09
2.75612e-09
5.16505e-09
3.05029e-09
5.18131e-09
2.9642e-09
2.92141e-09
3.25225e-09
2.80839e-09
2.9935e-09
2.81532e-09
3.99039e-09
2.57291e-09
3.66879e-09
2.8231e-09
3.34985e-09
3.22875e-09
3.77541e-09
2.43719e-09
3.61041e-09
2.40572e-09
2.75022e-09
2.64982e-09
5.18615e-09
2.94435e-09
5.18007e-09
2.90088e-09
2.77448e-09
3.24459e-09
2.68542e-09
2.8068e-09
2.66631e-09
3.55396e-09
2.46673e-09
3.24066e-09
2.66397e-09
3.21286e-09
3.0288e-09
3.55377e-09
2.3987e-09
3.39379e-09
2.3995e-09
2.64851e-09
2.58701e-09
5.14776e-09
2.89637e-09
4.90613e-09
2.90193e-09
2.65973e-09
3.2845e-09
2.59156e-09
2.66241e-09
2.55924e-09
3.14898e-09
2.39298e-09
2.88774e-09
2.51917e-09
3.01544e-09
2.87796e-09
3.34329e-09
2.40357e-09
3.21198e-09
2.43221e-09
2.58949e-09
2.56018e-09
4.79276e-09
2.91093e-09
4.39439e-09
2.95852e-09
2.57449e-09
3.41376e-09
2.53649e-09
2.55968e-09
2.48859e-09
2.80775e-09
2.35291e-09
2.60677e-09
2.38818e-09
2.87156e-09
2.75592e-09
3.17467e-09
2.44601e-09
3.08551e-09
2.49858e-09
2.56743e-09
2.55654e-09
4.2716e-09
2.98439e-09
3.97061e-09
3.08853e-09
2.53029e-09
3.5465e-09
2.53413e-09
2.49238e-09
2.45229e-09
2.55261e-09
2.35489e-09
2.42743e-09
2.31382e-09
2.75453e-09
2.60018e-09
3.05605e-09
2.51998e-09
2.97683e-09
2.618e-09
2.56989e-09
2.5982e-09
3.88439e-09
3.12605e-09
3.62959e-09
3.22483e-09
2.53937e-09
3.58875e-09
2.59032e-09
2.46248e-09
2.45151e-09
2.39606e-09
2.4003e-09
2.35479e-09
2.2884e-09
2.60348e-09
2.54437e-09
2.95967e-09
2.65944e-09
2.96517e-09
2.79347e-09
2.62493e-09
2.70396e-09
3.54396e-09
3.25327e-09
3.32713e-09
3.36008e-09
2.61816e-09
3.70214e-09
2.73105e-09
2.47139e-09
2.50946e-09
2.35407e-09
2.49799e-09
2.36924e-09
2.3197e-09
2.56896e-09
2.61199e-09
2.98322e-09
2.84807e-09
3.07263e-09
3.06429e-09
2.74601e-09
2.88486e-09
3.27158e-09
3.40344e-09
3.21726e-09
3.58659e-09
2.77897e-09
3.89686e-09
2.95759e-09
2.54403e-09
2.64221e-09
2.38499e-09
2.67073e-09
2.45975e-09
2.4237e-09
2.65813e-09
2.78347e-09
3.10563e-09
3.14735e-09
3.34111e-09
3.49506e-09
2.94991e-09
3.11987e-09
3.22273e-09
3.65454e-09
3.36714e-09
3.89856e-09
3.0416e-09
4.19766e-09
3.34003e-09
2.70005e-09
2.86355e-09
2.50439e-09
2.95144e-09
2.68843e-09
2.63621e-09
2.87145e-09
3.16609e-09
3.46331e-09
3.65032e-09
3.84325e-09
4.1241e-09
3.21064e-09
3.45055e-09
3.43993e-09
4.0132e-09
3.76252e-09
4.32921e-09
3.45391e-09
4.53303e-09
3.8689e-09
2.95526e-09
3.22334e-09
2.76048e-09
3.37566e-09
3.11081e-09
3.02317e-09
3.31726e-09
3.84999e-09
3.92525e-09
4.30217e-09
4.44379e-09
4.97344e-09
3.58398e-09
4.00435e-09
3.98001e-09
4.44778e-09
4.69629e-09
4.97539e-09
4.03225e-09
4.89554e-09
4.68276e-09
3.3659e-09
3.81429e-09
3.25753e-09
4.04234e-09
3.7262e-09
3.70921e-09
4.12955e-09
5.00532e-09
4.70563e-09
5.30927e-09
5.08276e-09
6.60726e-09
4.2432e-09
5.27169e-09
4.99748e-09
5.11178e-09
6.23754e-09
5.52862e-09
4.83661e-09
5.53585e-09
5.90162e-09
4.05471e-09
4.75141e-09
3.92441e-09
5.02987e-09
4.63833e-09
4.69153e-09
5.40449e-09
6.98584e-09
5.34347e-09
7.11499e-09
6.92009e-09
9.12724e-09
5.75186e-09
7.6857e-09
6.46581e-09
5.79069e-09
7.94659e-09
6.76983e-09
6.35583e-09
6.8302e-09
7.82385e-09
5.11765e-09
6.60215e-09
4.98122e-09
6.51962e-09
6.48035e-09
7.59927e-09
7.79149e-09
1.08405e-08
7.45944e-09
9.86196e-09
9.35412e-09
1.23507e-08
8.53252e-09
1.17913e-08
8.7947e-09
7.14462e-09
1.0437e-08
8.71344e-09
8.69501e-09
9.01138e-09
1.05109e-08
7.33977e-09
1.0354e-08
6.91804e-09
8.90135e-09
8.57425e-09
1.09997e-08
1.16711e-08
1.40094e-08
9.79126e-09
1.33687e-08
1.15707e-08
1.55033e-08
1.30334e-08
1.59183e-08
1.08179e-08
9.40928e-09
1.25008e-08
1.16416e-08
1.10099e-08
1.10261e-08
1.45521e-08
1.14663e-08
1.52482e-08
9.38457e-09
1.17607e-08
1.15399e-08
1.6928e-08
1.57418e-08
2.68109e-08
1.27689e-08
1.64934e-08
1.73636e-08
2.19866e-08
1.72019e-08
3.27072e-08
1.34581e-08
1.2562e-08
1.78347e-08
1.61576e-08
1.5278e-08
1.75799e-08
1.89206e-08
1.69695e-08
2.54325e-08
1.21566e-08
1.63927e-08
1.59788e-08
2.49648e-08
3.0186e-08
4.23893e-08
1.8887e-08
2.34185e-08
2.3145e-08
2.49895e-08
3.61681e-08
3.88275e-08
1.93862e-08
1.76026e-08
2.47415e-08
2.24759e-08
2.15145e-08
2.11935e-08
2.64541e-08
2.84636e-08
4.16391e-08
1.80555e-08
2.25578e-08
2.30755e-08
4.65062e-08
4.61217e-08
6.53893e-08
2.47098e-08
2.58378e-08
3.06783e-08
3.40896e-08
4.04436e-08
6.45365e-08
2.66973e-08
2.43376e-08
3.23385e-08
3.08884e-08
2.67642e-08
2.98556e-08
2.87202e-08
4.58907e-08
6.73987e-08
2.41236e-08
3.10616e-08
2.87384e-08
5.59628e-08
7.14304e-08
9.81433e-08
3.30575e-08
3.79277e-08
4.12317e-08
4.7213e-08
7.37065e-08
1.03065e-07
3.40527e-08
3.31837e-08
4.09673e-08
4.07383e-08
3.15701e-08
4.13325e-08
4.66517e-08
7.38069e-08
9.83355e-08
3.14959e-08
4.10558e-08
4.16992e-08
1.05868e-07
1.06691e-07
1.47502e-07
4.44003e-08
5.00739e-08
5.483e-08
5.73279e-08
1.11008e-07
1.51968e-07
4.41477e-08
4.37934e-08
5.45612e-08
5.5196e-08
5.16093e-08
5.57799e-08
6.06289e-08
1.05901e-07
1.46973e-07
4.52619e-08
5.52517e-08
5.56888e-08
1.52668e-07
1.58304e-07
2.07749e-07
5.84043e-08
5.92405e-08
7.13886e-08
6.96506e-08
1.61749e-07
1.98864e-07
5.82845e-08
5.9006e-08
7.15164e-08
7.10674e-08
6.27827e-08
6.89854e-08
7.09216e-08
1.58645e-07
2.06056e-07
5.91134e-08
7.09659e-08
7.05939e-08
2.02506e-07
2.21506e-07
2.75745e-07
7.64764e-08
7.53692e-08
8.9986e-08
9.32565e-08
2.12646e-07
2.86661e-07
7.6483e-08
7.5823e-08
8.98497e-08
9.12202e-08
7.5419e-08
9.25775e-08
9.11928e-08
2.1872e-07
2.77749e-07
7.51719e-08
9.09461e-08
8.9754e-08
2.73731e-07
2.88512e-07
3.44454e-07
9.46083e-08
9.76231e-08
1.11754e-07
1.09118e-07
3.02174e-07
3.42196e-07
9.41895e-08
9.65651e-08
1.11289e-07
1.11815e-07
9.60694e-08
1.08497e-07
1.123e-07
2.9305e-07
3.49032e-07
9.48844e-08
1.11704e-07
1.12098e-07
3.48785e-07
3.61393e-07
4.31563e-07
1.18209e-07
1.14937e-07
1.37899e-07
1.40172e-07
3.54586e-07
4.30796e-07
1.18112e-07
1.17235e-07
1.37802e-07
1.37812e-07
1.18342e-07
1.39281e-07
1.40291e-07
3.63408e-07
4.25603e-07
1.17925e-07
1.38512e-07
1.39371e-07
4.32158e-07
4.47994e-07
5.0445e-07
1.44692e-07
1.48574e-07
1.6797e-07
1.65519e-07
4.50704e-07
5.06583e-07
1.4476e-07
1.45115e-07
1.67279e-07
1.66015e-07
1.481e-07
1.64554e-07
1.65599e-07
4.42295e-07
5.03607e-07
1.467e-07
1.66458e-07
1.6338e-07
5.01625e-07
5.19352e-07
5.69614e-07
1.75451e-07
1.70923e-07
1.9483e-07
1.98875e-07
5.19434e-07
5.69632e-07
1.74483e-07
1.73704e-07
1.95897e-07
2.00811e-07
1.72664e-07
1.98033e-07
2.07128e-07
5.20064e-07
5.74673e-07
1.70579e-07
2.01155e-07
2.02432e-07
5.85444e-07
5.83835e-07
6.34928e-07
2.02643e-07
2.0975e-07
2.32898e-07
2.31706e-07
5.86356e-07
6.38431e-07
2.03691e-07
2.09179e-07
2.32175e-07
2.27285e-07
2.18057e-07
2.32389e-07
2.37173e-07
5.87643e-07
6.31596e-07
2.1251e-07
2.29207e-07
2.31803e-07
6.24845e-07
6.49828e-07
6.93287e-07
2.42835e-07
2.3756e-07
2.68406e-07
2.66562e-07
6.5003e-07
6.84961e-07
2.41981e-07
2.35323e-07
2.68443e-07
2.76714e-07
2.40295e-07
2.63544e-07
2.57732e-07
6.4719e-07
7.04712e-07
2.35012e-07
2.83805e-07
2.58608e-07
6.81945e-07
7.06264e-07
7.48359e-07
2.77524e-07
2.7858e-07
3.12653e-07
3.13021e-07
6.99676e-07
7.50342e-07
2.7837e-07
2.91738e-07
3.13154e-07
3.21192e-07
2.71914e-07
3.12443e-07
3.26884e-07
7.19893e-07
7.50827e-07
2.74362e-07
3.25564e-07
3.27235e-07
7.64307e-07
7.60587e-07
7.89866e-07
3.24789e-07
3.23861e-07
3.55549e-07
3.51954e-07
7.61877e-07
7.87951e-07
3.2399e-07
3.25957e-07
3.50903e-07
3.3923e-07
3.41136e-07
3.52122e-07
3.63575e-07
7.58628e-07
7.74062e-07
3.38901e-07
3.40389e-07
3.5873e-07
7.95168e-07
7.99919e-07
8.30109e-07
3.63889e-07
3.60915e-07
3.92532e-07
3.95805e-07
7.98764e-07
8.34198e-07
3.61132e-07
3.4659e-07
3.95137e-07
3.90812e-07
3.68222e-07
3.94304e-07
3.89035e-07
7.8336e-07
8.33397e-07
3.65069e-07
3.91513e-07
3.86885e-07
8.23904e-07
8.41151e-07
8.71261e-07
4.06365e-07
4.10139e-07
4.48338e-07
4.49132e-07
8.44819e-07
8.67407e-07
4.07463e-07
4.13222e-07
4.47413e-07
4.74186e-07
4.00058e-07
4.48451e-07
4.43896e-07
8.51534e-07
8.87668e-07
3.98085e-07
4.69286e-07
4.43911e-07
8.72611e-07
8.81131e-07
9.07603e-07
4.58472e-07
4.57601e-07
4.91092e-07
4.84956e-07
8.76031e-07
9.05148e-07
4.58961e-07
4.86328e-07
4.93406e-07
5.05482e-07
4.58447e-07
4.84483e-07
4.97846e-07
8.932e-07
8.99696e-07
4.58811e-07
4.97659e-07
5.02472e-07
9.15215e-07
9.17194e-07
9.39942e-07
5.06011e-07
5.00395e-07
5.49913e-07
5.51845e-07
9.16731e-07
9.44657e-07
5.07438e-07
5.10052e-07
5.48334e-07
5.28317e-07
5.12308e-07
5.51474e-07
5.51598e-07
9.07142e-07
9.36842e-07
5.16662e-07
5.2946e-07
5.46357e-07
9.40014e-07
9.46685e-07
9.60311e-07
5.59945e-07
5.63929e-07
5.79059e-07
5.84157e-07
9.51108e-07
9.60081e-07
5.57706e-07
5.39192e-07
5.76067e-07
5.88096e-07
5.60545e-07
5.83917e-07
5.7684e-07
9.46871e-07
9.67204e-07
5.51751e-07
5.92897e-07
5.6253e-07
9.50491e-07
9.68404e-07
1.00196e-06
5.88599e-07
5.89544e-07
6.38662e-07
6.22536e-07
9.66454e-07
9.92852e-07
5.85608e-07
6.02751e-07
6.37947e-07
6.32941e-07
5.80804e-07
6.19986e-07
6.17284e-07
9.73531e-07
9.91433e-07
5.68458e-07
6.24978e-07
6.32058e-07
9.98253e-07
1.01171e-06
1.03014e-06
6.55456e-07
6.41521e-07
6.90459e-07
6.99988e-07
1.00444e-06
1.04092e-06
6.56856e-07
6.47086e-07
6.92029e-07
7.02064e-07
6.42168e-07
7.00531e-07
7.1715e-07
1.00155e-06
1.04337e-06
6.65952e-07
6.99952e-07
7.38419e-07
1.06349e-06
1.03652e-06
1.06051e-06
7.00325e-07
7.12689e-07
7.32218e-07
7.33973e-07
1.04863e-06
1.05593e-06
6.99681e-07
7.16794e-07
7.32251e-07
7.38647e-07
7.29461e-07
7.37056e-07
7.37729e-07
1.05236e-06
1.05924e-06
7.45087e-07
7.42064e-07
7.43407e-07
1.05185e-06
1.06937e-06
1.08656e-06
7.43337e-07
7.37879e-07
7.75729e-07
7.58756e-07
1.0589e-06
1.07116e-06
7.44992e-07
7.41066e-07
7.77568e-07
7.58166e-07
7.38173e-07
7.5428e-07
7.50831e-07
1.06087e-06
1.06438e-06
7.41293e-07
7.52322e-07
7.4658e-07
1.06795e-06
1.09204e-06
1.11099e-06
7.86775e-07
7.73783e-07
8.17855e-07
8.28055e-07
1.08148e-06
1.12308e-06
7.87873e-07
7.69363e-07
8.21917e-07
8.16425e-07
7.70049e-07
8.27483e-07
8.35562e-07
1.07207e-06
1.1175e-06
7.62019e-07
8.13152e-07
8.30373e-07
1.13547e-06
1.11829e-06
1.13477e-06
8.25756e-07
8.40729e-07
8.52656e-07
8.59278e-07
1.1302e-06
1.13448e-06
8.31559e-07
8.33784e-07
8.54956e-07
8.72217e-07
8.46859e-07
8.63582e-07
8.52249e-07
1.12919e-06
1.14933e-06
8.43766e-07
8.76905e-07
8.54925e-07
1.1198e-06
1.13976e-06
1.15342e-06
8.64175e-07
8.62679e-07
8.89901e-07
8.79582e-07
1.1364e-06
1.14923e-06
8.63731e-07
8.78479e-07
8.87161e-07
8.86684e-07
8.52742e-07
8.78306e-07
8.69788e-07
1.1519e-06
1.14683e-06
8.58537e-07
8.8367e-07
8.782e-07
1.14531e-06
1.15931e-06
1.18647e-06
8.9586e-07
8.89922e-07
9.27459e-07
9.33216e-07
1.15768e-06
1.19297e-06
8.93622e-07
8.88957e-07
9.2483e-07
9.12877e-07
8.823e-07
9.29637e-07
9.37548e-07
1.15013e-06
1.17596e-06
8.89369e-07
9.1314e-07
9.37786e-07
1.20204e-06
1.197e-06
1.22634e-06
9.42406e-07
9.47423e-07
9.78672e-07
9.76505e-07
1.20244e-06
1.22422e-06
9.39789e-07
9.29001e-07
9.78978e-07
9.82358e-07
9.55949e-07
9.78863e-07
9.85284e-07
1.18824e-06
1.23174e-06
9.54417e-07
9.85112e-07
9.84002e-07
1.23396e-06
1.231e-06
1.23094e-06
9.84877e-07
9.81952e-07
9.9267e-07
9.90099e-07
1.22824e-06
1.2265e-06
9.86556e-07
9.92921e-07
9.96172e-07
1.00316e-06
9.88992e-07
9.91866e-07
9.94997e-07
1.23816e-06
1.23952e-06
9.88371e-07
1.0018e-06
9.94696e-07
1.23416e-06
1.23243e-06
1.24145e-06
9.94851e-07
9.91963e-07
1.00969e-06
1.00557e-06
1.22781e-06
1.23543e-06
9.97573e-07
1.00372e-06
1.00777e-06
1.008e-06
9.96302e-07
1.00299e-06
1.00331e-06
1.24075e-06
1.23956e-06
9.95712e-07
1.00605e-06
1.00188e-06
1.2325e-06
1.24835e-06
1.27785e-06
1.01841e-06
1.01457e-06
1.05035e-06
1.051e-06
1.24291e-06
1.28051e-06
1.01543e-06
1.01295e-06
1.04907e-06
1.0415e-06
1.01003e-06
1.05018e-06
1.04629e-06
1.24394e-06
1.27175e-06
1.00866e-06
1.04244e-06
1.04492e-06
1.27541e-06
1.28537e-06
1.29817e-06
1.0595e-06
1.06155e-06
1.0756e-06
1.0805e-06
1.29e-06
1.30737e-06
1.0595e-06
1.05345e-06
1.07749e-06
1.08018e-06
1.05997e-06
1.08419e-06
1.08259e-06
1.281e-06
1.30047e-06
1.05835e-06
1.08062e-06
1.08075e-06
1.30609e-06
1.30112e-06
1.30802e-06
1.07835e-06
1.08419e-06
1.09086e-06
1.09119e-06
1.31029e-06
1.30858e-06
1.08002e-06
1.08472e-06
1.09008e-06
1.09088e-06
1.08535e-06
1.09203e-06
1.08869e-06
1.30435e-06
1.30871e-06
1.0837e-06
1.09075e-06
1.08731e-06
1.30415e-06
1.31336e-06
1.33479e-06
1.09799e-06
1.09263e-06
1.12087e-06
1.10492e-06
1.31002e-06
1.31613e-06
1.09666e-06
1.09412e-06
1.12046e-06
1.11649e-06
1.08965e-06
1.10121e-06
1.10406e-06
1.31202e-06
1.32979e-06
1.08843e-06
1.11323e-06
1.10486e-06
1.3188e-06
1.34021e-06
1.34562e-06
1.12641e-06
1.11323e-06
1.13455e-06
1.13865e-06
1.32226e-06
1.34769e-06
1.1263e-06
1.12525e-06
1.13403e-06
1.13933e-06
1.115e-06
1.13944e-06
1.14837e-06
1.33756e-06
1.35124e-06
1.11633e-06
1.14093e-06
1.14816e-06
1.36141e-06
1.34759e-06
1.35368e-06
1.13646e-06
1.14361e-06
1.14941e-06
1.15179e-06
1.35334e-06
1.36004e-06
1.13547e-06
1.1406e-06
1.14862e-06
1.1477e-06
1.15351e-06
1.15708e-06
1.15467e-06
1.35366e-06
1.35502e-06
1.1524e-06
1.15079e-06
1.15251e-06
1.35792e-06
1.35867e-06
1.36932e-06
1.15499e-06
1.15446e-06
1.16535e-06
1.16451e-06
1.36252e-06
1.36896e-06
1.1549e-06
1.15314e-06
1.16603e-06
1.16632e-06
1.15307e-06
1.16267e-06
1.15323e-06
1.35833e-06
1.36608e-06
1.15111e-06
1.16258e-06
1.15178e-06
1.35189e-06
1.37321e-06
1.39305e-06
1.16886e-06
1.16931e-06
1.19012e-06
1.1896e-06
1.37395e-06
1.39412e-06
1.1686e-06
1.16808e-06
1.18729e-06
1.17965e-06
1.15648e-06
1.18696e-06
1.18453e-06
1.36923e-06
1.38053e-06
1.15554e-06
1.17633e-06
1.18347e-06
1.38964e-06
1.40036e-06
1.40863e-06
1.19778e-06
1.19602e-06
1.20766e-06
1.20531e-06
1.4e-06
1.40495e-06
1.19525e-06
1.18712e-06
1.20792e-06
1.20977e-06
1.19614e-06
1.20657e-06
1.21839e-06
1.38775e-06
1.41342e-06
1.19514e-06
1.2127e-06
1.21855e-06
1.42417e-06
1.40964e-06
1.40073e-06
1.20771e-06
1.20586e-06
1.20675e-06
1.20689e-06
1.40608e-06
1.40245e-06
1.20853e-06
1.2153e-06
1.20881e-06
1.22581e-06
1.2202e-06
1.21046e-06
1.21798e-06
1.41937e-06
1.42899e-06
1.22084e-06
1.23049e-06
1.21947e-06
1.41552e-06
1.40273e-06
1.42233e-06
1.20721e-06
1.20844e-06
1.22405e-06
1.22731e-06
1.40605e-06
1.42645e-06
1.20988e-06
1.2271e-06
1.22566e-06
1.22677e-06
1.21635e-06
1.22754e-06
1.21606e-06
1.43129e-06
1.4224e-06
1.21783e-06
1.22637e-06
1.21716e-06
1.4096e-06
1.43169e-06
1.45826e-06
1.23443e-06
1.23508e-06
1.26e-06
1.24828e-06
1.43347e-06
1.44358e-06
1.23326e-06
1.22567e-06
1.25261e-06
1.22549e-06
1.2191e-06
1.24478e-06
1.242e-06
1.4229e-06
1.41407e-06
1.2193e-06
1.22089e-06
1.23751e-06
1.43505e-06
1.4626e-06
1.45468e-06
1.26299e-06
1.24929e-06
1.26151e-06
1.25217e-06
1.44533e-06
1.44336e-06
1.25553e-06
1.22805e-06
1.25608e-06
1.25017e-06
1.24816e-06
1.24846e-06
1.25453e-06
1.4173e-06
1.4387e-06
1.24257e-06
1.24209e-06
1.24829e-06
1.44701e-06
1.45461e-06
1.4343e-06
1.25652e-06
1.25375e-06
1.24536e-06
1.25816e-06
1.44608e-06
1.45432e-06
1.25374e-06
1.25759e-06
1.24945e-06
1.26994e-06
1.25474e-06
1.26153e-06
1.25871e-06
1.44662e-06
1.46676e-06
1.24919e-06
1.27213e-06
1.26234e-06
1.45857e-06
1.4355e-06
1.45201e-06
1.24467e-06
1.25961e-06
1.25491e-06
1.26635e-06
1.45868e-06
1.46766e-06
1.24964e-06
1.27096e-06
1.26567e-06
1.27382e-06
1.26421e-06
1.27636e-06
1.27724e-06
1.4712e-06
1.47631e-06
1.26909e-06
1.28161e-06
1.2807e-06
1.47482e-06
1.46122e-06
1.48358e-06
1.26494e-06
1.2696e-06
1.28884e-06
1.28046e-06
1.47073e-06
1.47303e-06
1.27434e-06
1.27657e-06
1.28919e-06
1.28021e-06
1.27835e-06
1.27769e-06
1.2769e-06
1.47862e-06
1.47376e-06
1.28123e-06
1.27935e-06
1.27796e-06
1.46823e-06
1.48677e-06
1.4846e-06
1.29185e-06
1.2832e-06
1.29266e-06
1.28701e-06
1.47512e-06
1.4768e-06
1.28962e-06
1.27999e-06
1.28684e-06
1.27838e-06
1.27622e-06
1.28074e-06
1.27764e-06
1.47449e-06
1.4662e-06
1.27654e-06
1.27483e-06
1.27594e-06
1.46992e-06
1.48652e-06
1.49561e-06
1.29243e-06
1.28769e-06
1.29585e-06
1.29243e-06
1.4794e-06
1.48708e-06
1.28673e-06
1.27884e-06
1.29579e-06
1.29606e-06
1.28151e-06
1.29156e-06
1.29685e-06
1.46923e-06
1.49385e-06
1.27781e-06
1.29547e-06
1.2966e-06
1.4953e-06
1.50054e-06
1.5034e-06
1.29926e-06
1.29569e-06
1.3043e-06
1.30696e-06
1.49198e-06
1.50519e-06
1.30144e-06
1.30339e-06
1.30743e-06
1.31181e-06
1.30151e-06
1.30935e-06
1.30952e-06
1.50194e-06
1.51033e-06
1.30263e-06
1.31257e-06
1.31033e-06
1.50762e-06
1.50404e-06
1.48298e-06
1.30416e-06
1.30907e-06
1.29713e-06
1.30927e-06
1.50871e-06
1.50511e-06
1.30646e-06
1.31119e-06
1.29291e-06
1.29941e-06
1.31014e-06
1.31121e-06
1.30817e-06
1.51111e-06
1.4926e-06
1.31041e-06
1.30226e-06
1.30531e-06
1.49945e-06
1.48331e-06
1.48104e-06
1.29484e-06
1.30692e-06
1.29305e-06
1.29947e-06
1.50577e-06
1.49271e-06
1.28977e-06
1.29634e-06
1.2887e-06
1.29403e-06
1.30505e-06
1.29914e-06
1.29676e-06
1.493e-06
1.48858e-06
1.30248e-06
1.2964e-06
1.29622e-06
1.48861e-06
1.48637e-06
1.52006e-06
1.29431e-06
1.29856e-06
1.31337e-06
1.30229e-06
1.49384e-06
1.50157e-06
1.29195e-06
1.29536e-06
1.3195e-06
1.31306e-06
1.29588e-06
1.3036e-06
1.30148e-06
1.49248e-06
1.51204e-06
1.29583e-06
1.31062e-06
1.30304e-06
1.49928e-06
1.52927e-06
1.54504e-06
1.32111e-06
1.30954e-06
1.3344e-06
1.32852e-06
1.50876e-06
1.52974e-06
1.32808e-06
1.32011e-06
1.33917e-06
1.33374e-06
1.30946e-06
1.32705e-06
1.33009e-06
1.51896e-06
1.53447e-06
1.31007e-06
1.32944e-06
1.32998e-06
1.53351e-06
1.54685e-06
1.52156e-06
1.33502e-06
1.3307e-06
1.32652e-06
1.32677e-06
1.53316e-06
1.52057e-06
1.33917e-06
1.33488e-06
1.32426e-06
1.32957e-06
1.33306e-06
1.3221e-06
1.33253e-06
1.53768e-06
1.52772e-06
1.33346e-06
1.33015e-06
1.33435e-06
1.53593e-06
1.51955e-06
1.49073e-06
1.31924e-06
1.32077e-06
1.30373e-06
1.30901e-06
1.52002e-06
1.50225e-06
1.31515e-06
1.32169e-06
1.29644e-06
1.30192e-06
1.32793e-06
1.30872e-06
1.31137e-06
1.52689e-06
1.4978e-06
1.33094e-06
1.30793e-06
1.31138e-06
1.5068e-06
1.49187e-06
1.5119e-06
1.30262e-06
1.3083e-06
1.3111e-06
1.31676e-06
1.50414e-06
1.52419e-06
1.29535e-06
1.29979e-06
1.3077e-06
1.3068e-06
1.3083e-06
1.3192e-06
1.30843e-06
1.49845e-06
1.50967e-06
1.30705e-06
1.30682e-06
1.30519e-06
1.50643e-06
1.52221e-06
1.54614e-06
1.31986e-06
1.32379e-06
1.33705e-06
1.33631e-06
1.53259e-06
1.54719e-06
1.31877e-06
1.31714e-06
1.3395e-06
1.33758e-06
1.31335e-06
1.33736e-06
1.32999e-06
1.51896e-06
1.54353e-06
1.30867e-06
1.33361e-06
1.32775e-06
1.53309e-06
1.54892e-06
1.53267e-06
1.33806e-06
1.33679e-06
1.33002e-06
1.32807e-06
1.54891e-06
1.52794e-06
1.34053e-06
1.33874e-06
1.33039e-06
1.32927e-06
1.33186e-06
1.32681e-06
1.32722e-06
1.54652e-06
1.53066e-06
1.3307e-06
1.32991e-06
1.32871e-06
1.52791e-06
1.53196e-06
1.51026e-06
1.32348e-06
1.32153e-06
1.30863e-06
1.30603e-06
1.52678e-06
1.50195e-06
1.32335e-06
1.3231e-06
1.3083e-06
1.31114e-06
1.32142e-06
1.30241e-06
1.30971e-06
1.53024e-06
1.51339e-06
1.3238e-06
1.31251e-06
1.31404e-06
1.51348e-06
1.51135e-06
1.51891e-06
1.3071e-06
1.30437e-06
1.31097e-06
1.3083e-06
1.50295e-06
1.51369e-06
1.30695e-06
1.3103e-06
1.31137e-06
1.31487e-06
1.30892e-06
1.30629e-06
1.31659e-06
1.51487e-06
1.52365e-06
1.31338e-06
1.31551e-06
1.31973e-06
1.5291e-06
1.52451e-06
1.53386e-06
1.31614e-06
1.31467e-06
1.3251e-06
1.32734e-06
1.5213e-06
1.53815e-06
1.31604e-06
1.31803e-06
1.32325e-06
1.32126e-06
1.32237e-06
1.32806e-06
1.32913e-06
1.52826e-06
1.53048e-06
1.324e-06
1.32253e-06
1.32792e-06
1.54072e-06
1.53553e-06
1.52495e-06
1.32533e-06
1.32811e-06
1.31891e-06
1.32223e-06
1.54083e-06
1.53138e-06
1.32325e-06
1.32051e-06
1.31607e-06
1.31161e-06
1.32844e-06
1.32218e-06
1.31327e-06
1.53133e-06
1.51746e-06
1.32654e-06
1.31206e-06
1.31047e-06
1.51655e-06
1.52575e-06
1.51826e-06
1.3157e-06
1.3178e-06
1.30811e-06
1.30733e-06
1.53184e-06
1.51866e-06
1.31321e-06
1.30939e-06
1.30769e-06
1.30746e-06
1.30901e-06
1.30747e-06
1.30565e-06
1.51836e-06
1.5184e-06
1.30676e-06
1.30732e-06
1.30483e-06
1.51406e-06
1.51987e-06
1.52383e-06
1.30709e-06
1.30615e-06
1.30765e-06
1.308e-06
1.52e-06
1.52421e-06
1.30729e-06
1.30817e-06
1.30992e-06
1.31538e-06
1.30726e-06
1.31087e-06
1.31789e-06
1.52228e-06
1.53226e-06
1.30747e-06
1.31526e-06
1.31801e-06
1.53684e-06
1.52729e-06
1.52951e-06
1.30975e-06
1.31066e-06
1.31241e-06
1.31316e-06
1.52802e-06
1.52884e-06
1.31196e-06
1.31678e-06
1.31361e-06
1.31647e-06
1.3188e-06
1.31379e-06
1.31216e-06
1.53537e-06
1.531e-06
1.31865e-06
1.31467e-06
1.31087e-06
1.52561e-06
1.53055e-06
1.50955e-06
1.31194e-06
1.31231e-06
1.29815e-06
1.29653e-06
1.52962e-06
1.50702e-06
1.31267e-06
1.31393e-06
1.29655e-06
1.2943e-06
1.30534e-06
1.29315e-06
1.2884e-06
1.53157e-06
1.50565e-06
1.30459e-06
1.29328e-06
1.28949e-06
1.49871e-06
1.5095e-06
1.50016e-06
1.29281e-06
1.29102e-06
1.28543e-06
1.28364e-06
1.50708e-06
1.49816e-06
1.29098e-06
1.28856e-06
1.28417e-06
1.28253e-06
1.28613e-06
1.28321e-06
1.28702e-06
1.50566e-06
1.49815e-06
1.28766e-06
1.28478e-06
1.28918e-06
1.50613e-06
1.50408e-06
1.51636e-06
1.28575e-06
1.28399e-06
1.2927e-06
1.29279e-06
1.50194e-06
1.51542e-06
1.28473e-06
1.28342e-06
1.29319e-06
1.29407e-06
1.2908e-06
1.29363e-06
1.29525e-06
1.50247e-06
1.51674e-06
1.29267e-06
1.29468e-06
1.29598e-06
1.52047e-06
1.51918e-06
1.50222e-06
1.29347e-06
1.29414e-06
1.28489e-06
1.28741e-06
1.51883e-06
1.5057e-06
1.29406e-06
1.29517e-06
1.28522e-06
1.28631e-06
1.29472e-06
1.28598e-06
1.27734e-06
1.51966e-06
1.50327e-06
1.29505e-06
1.28342e-06
1.27603e-06
1.49123e-06
1.50174e-06
1.48854e-06
1.27871e-06
1.28058e-06
1.26862e-06
1.26816e-06
1.50524e-06
1.48914e-06
1.27893e-06
1.2797e-06
1.26865e-06
1.26887e-06
1.27213e-06
1.26821e-06
1.26771e-06
1.50284e-06
1.48966e-06
1.27086e-06
1.26832e-06
1.26688e-06
1.48589e-06
1.4925e-06
1.51213e-06
1.26891e-06
1.26816e-06
1.27953e-06
1.27717e-06
1.492e-06
1.5077e-06
1.26894e-06
1.26911e-06
1.27889e-06
1.27879e-06
1.27045e-06
1.27841e-06
1.28697e-06
1.49348e-06
1.51162e-06
1.27004e-06
1.28125e-06
1.28788e-06
1.52389e-06
1.51644e-06
1.486e-06
1.28192e-06
1.2797e-06
1.258e-06
1.2574e-06
1.51199e-06
1.48488e-06
1.28104e-06
1.28098e-06
1.25644e-06
1.25723e-06
1.28853e-06
1.2567e-06
1.25571e-06
1.51581e-06
1.48665e-06
1.28959e-06
1.25875e-06
1.25691e-06
1.48521e-06
1.45712e-06
1.21183e-06
1.21297e-06
1.45805e-06
1.21032e-06
1.21203e-06
7.70013e-07
7.69615e-07
7.66775e-07
1.20753e-06
1.45886e-06
1.20821e-06
2.28925e-10
2.9913e-09
2.15515e-10
3.26798e-10
5.50468e-09
4.51885e-09
1.29396e-08
1.35678e-09
5.50482e-09
3.90264e-09
1.15288e-09
3.95087e-09
5.09526e-09
4.01534e-09
6.79884e-09
7.34468e-09
1.7793e-07
5.82215e-09
2.79392e-07
1.67042e-06
3.35305e-06
8.76718e-09
1.62518e-07
7.27393e-09
2.57787e-07
1.59772e-09
1.46225e-09
1.52222e-09
1.7066e-09
1.5863e-09
1.44509e-09
1.51624e-09
4.81647e-09
1.08635e-07
3.73445e-09
5.77664e-09
5.02306e-09
8.49348e-08
3.63005e-09
1.69712e-06
3.38136e-06
4.75479e-09
3.07409e-09
7.43794e-08
3.91936e-09
5.03437e-09
3.04703e-09
5.36886e-08
2.1495e-07
2.17293e-07
4.70845e-09
1.84663e-07
1.86755e-07
1.73951e-08
4.93432e-07
1.30761e-08
7.24494e-07
7.24247e-06
1.02562e-05
1.812e-08
4.6149e-07
1.32601e-08
6.7979e-07
1.5702e-09
1.42773e-09
1.50066e-09
1.63039e-09
1.52253e-09
1.37831e-09
1.45351e-09