/*--------------------------------*- C++ -*----------------------------------*\
| =========                 |                                                 |
| \\      /  F ield         | OpenFOAM: The Open Source CFD Toolbox           |
|  \\    /   O peration     | Version:  v2012                                 |
|   \\  /    A nd           | Website:  www.openfoam.com                      |
|    \\/     M anipulation  |                                                 |
\*---------------------------------------------------------------------------*/
FoamFile
{
    version     2.0;
    format      ascii;
    class       volScalarField;
    location    "1000";
    object      epsilon;
}
// * * * * * * * * * * * * * * * * * * * * * * * * * * * * * * * * * * * * * //

dimensions      [0 2 -3 0 0 0 0];


internalField   nonuniform List<scalar> 
171728
(
4.95567e-07
4.97331e-07
4.97331e-07
4.99575e-07
4.45573e-07
4.53736e-07
4.53738e-07
4.63711e-07
4.03752e-07
4.18514e-07
4.18515e-07
4.39411e-07
3.68363e-07
3.88554e-07
3.88556e-07
4.1767e-07
3.38014e-07
3.62105e-07
3.62107e-07
3.96085e-07
3.11645e-07
3.38275e-07
3.38278e-07
3.74584e-07
2.88472e-07
3.1664e-07
3.16643e-07
3.53713e-07
2.67922e-07
2.97024e-07
2.97027e-07
3.34151e-07
2.49579e-07
2.79372e-07
2.79376e-07
3.16488e-07
2.33136e-07
2.6368e-07
2.63684e-07
3.01168e-07
2.18365e-07
2.49956e-07
2.4996e-07
2.88499e-07
2.05089e-07
2.38201e-07
2.38205e-07
2.78701e-07
1.9317e-07
2.28412e-07
2.28417e-07
2.7188e-07
1.82497e-07
2.20602e-07
2.20608e-07
2.68167e-07
1.72978e-07
2.14774e-07
2.14782e-07
2.67646e-07
1.6454e-07
2.10939e-07
2.10947e-07
2.70478e-07
1.57121e-07
2.09114e-07
2.09115e-07
2.76662e-07
1.50668e-07
2.09317e-07
2.09318e-07
2.8633e-07
1.45134e-07
2.11558e-07
2.11563e-07
2.9922e-07
1.40488e-07
2.15906e-07
2.15903e-07
3.15651e-07
1.36701e-07
2.22371e-07
2.22385e-07
3.35626e-07
1.33738e-07
2.30922e-07
2.30919e-07
3.58513e-07
1.31593e-07
2.41586e-07
2.41577e-07
3.84437e-07
1.3024e-07
2.54234e-07
2.54268e-07
4.13404e-07
1.29708e-07
2.69108e-07
2.69131e-07
4.45085e-07
1.29948e-07
2.85905e-07
2.85926e-07
4.78418e-07
1.30859e-07
3.04103e-07
3.042e-07
5.12251e-07
1.32673e-07
3.25383e-07
3.24996e-07
5.51999e-07
1.35314e-07
3.47892e-07
3.47678e-07
5.89424e-07
1.38529e-07
3.69972e-07
3.71309e-07
6.24478e-07
1.42457e-07
3.95616e-07
3.95116e-07
6.63945e-07
1.47456e-07
4.23416e-07
4.22145e-07
7.01119e-07
1.53068e-07
4.48583e-07
4.50513e-07
7.38237e-07
1.59435e-07
4.77016e-07
4.77004e-07
7.73967e-07
1.65941e-07
5.06158e-07
5.05225e-07
8.02889e-07
1.74673e-07
5.35635e-07
5.34873e-07
8.54009e-07
1.84085e-07
5.71656e-07
5.72428e-07
8.92595e-07
1.9397e-07
6.03282e-07
6.0304e-07
9.07052e-07
1.99976e-07
6.15673e-07
6.14946e-07
9.14797e-07
2.11077e-07
6.19943e-07
6.33347e-07
9.38298e-07
2.30746e-07
6.89723e-07
6.63759e-07
9.7821e-07
2.44182e-07
7.68586e-07
7.5251e-07
1.02888e-06
2.50201e-07
7.13056e-07
7.6063e-07
1.03846e-06
2.65191e-07
8.16426e-07
7.82602e-07
1.13649e-06
2.8451e-07
8.29333e-07
8.01728e-07
1.23064e-06
2.99181e-07
7.83467e-07
7.8957e-07
1.04291e-06
3.13883e-07
8.22329e-07
8.41846e-07
9.88771e-07
3.2146e-07
9.22216e-07
8.7554e-07
1.20014e-06
3.38735e-07
9.37169e-07
8.90635e-07
1.21255e-06
3.48156e-07
8.40737e-07
9.46446e-07
1.23634e-06
3.72421e-07
9.19223e-07
9.35272e-07
1.15295e-06
4.0599e-07
1.04127e-06
9.26309e-07
1.22045e-06
4.1751e-07
9.89035e-07
1.02888e-06
1.32366e-06
4.32107e-07
9.65338e-07
1.00078e-06
1.2156e-06
4.38101e-07
1.00621e-06
9.91372e-07
1.26855e-06
4.42953e-07
1.04058e-06
1.03209e-06
1.33606e-06
4.70891e-07
1.04502e-06
1.06052e-06
1.29237e-06
4.98128e-07
1.0588e-06
1.06653e-06
1.27406e-06
5.07802e-07
1.0879e-06
1.07106e-06
1.33151e-06
5.17627e-07
1.09574e-06
1.08998e-06
1.35863e-06
5.29706e-07
1.09677e-06
1.1048e-06
1.34831e-06
5.45901e-07
1.10924e-06
1.11276e-06
1.34506e-06
5.6041e-07
1.12359e-06
1.12232e-06
1.36194e-06
5.72918e-07
1.13567e-06
1.13509e-06
1.37465e-06
5.84073e-07
1.14511e-06
1.14254e-06
1.38167e-06
5.95672e-07
1.14758e-06
1.15102e-06
1.38531e-06
6.06675e-07
1.15799e-06
1.15835e-06
1.39146e-06
6.15271e-07
1.16508e-06
1.1629e-06
1.40063e-06
6.24683e-07
1.16919e-06
1.17008e-06
1.40365e-06
6.33967e-07
1.17632e-06
1.17651e-06
1.40862e-06
6.41992e-07
1.17953e-06
1.18054e-06
1.41229e-06
6.48565e-07
1.18423e-06
1.18298e-06
1.41544e-06
6.55724e-07
1.1879e-06
1.18834e-06
1.42205e-06
6.62069e-07
1.19053e-06
1.19128e-06
1.42329e-06
6.67468e-07
1.19419e-06
1.19372e-06
1.4241e-06
6.72091e-07
1.19393e-06
1.19389e-06
1.42543e-06
6.75073e-07
1.19324e-06
1.19394e-06
1.42661e-06
6.81243e-07
1.20274e-06
1.20203e-06
1.43799e-06
6.8522e-07
1.20008e-06
1.20041e-06
1.43274e-06
6.84647e-07
1.19152e-06
1.19193e-06
1.41823e-06
6.87095e-07
1.19852e-06
1.19803e-06
1.43601e-06
6.92359e-07
1.20142e-06
1.20213e-06
1.43949e-06
6.92153e-07
1.19465e-06
1.19371e-06
1.42543e-06
6.90585e-07
1.18968e-06
1.18928e-06
1.42237e-06
6.95452e-07
1.20056e-06
1.20106e-06
1.44284e-06
6.94591e-07
1.18756e-06
1.18804e-06
1.42339e-06
6.88545e-07
1.1744e-06
1.17537e-06
1.39694e-06
6.97284e-07
1.20515e-06
1.20278e-06
1.46461e-06
6.95617e-07
1.18257e-06
1.1858e-06
1.42256e-06
6.86709e-07
1.16523e-06
1.16665e-06
1.38405e-06
6.88574e-07
1.17967e-06
1.17745e-06
1.42509e-06
6.88851e-07
1.17531e-06
1.17576e-06
1.41759e-06
6.88817e-07
1.17506e-06
1.1765e-06
1.41642e-06
6.84636e-07
1.16473e-06
1.16485e-06
1.40514e-06
6.65731e-07
1.11471e-06
1.11272e-06
1.37746e-06
5.06417e-07
5.05584e-07
5.05582e-07
5.06417e-07
5.05583e-07
5.05583e-07
5.09649e-07
5.09649e-07
5.09649e-07
5.09649e-07
5.05584e-07
5.05584e-07
5.06417e-07
5.05584e-07
5.05583e-07
5.06418e-07
4.99575e-07
4.67236e-07
4.97331e-07
4.97335e-07
4.63713e-07
4.63721e-07
4.99575e-07
4.67237e-07
4.97334e-07
4.97335e-07
4.63718e-07
4.63723e-07
4.97332e-07
4.6371e-07
4.63715e-07
4.99575e-07
4.67239e-07
4.97334e-07
4.63711e-07
4.63719e-07
4.67243e-07
4.63708e-07
4.41422e-07
4.53739e-07
4.53748e-07
4.26738e-07
4.26747e-07
4.63709e-07
4.41422e-07
4.53743e-07
4.5375e-07
4.26738e-07
4.26749e-07
4.53743e-07
4.26732e-07
4.26742e-07
4.6371e-07
4.41428e-07
4.53745e-07
4.26734e-07
4.26742e-07
4.41434e-07
4.39404e-07
4.19278e-07
4.18521e-07
4.1853e-07
3.95675e-07
3.95684e-07
4.39408e-07
4.19279e-07
4.18521e-07
4.18533e-07
3.9567e-07
3.95686e-07
4.18526e-07
3.95665e-07
3.9568e-07
4.39409e-07
4.19285e-07
4.18525e-07
3.95668e-07
3.95675e-07
4.19293e-07
4.17658e-07
3.9764e-07
3.88564e-07
3.88573e-07
3.6846e-07
3.68468e-07
4.1766e-07
3.97641e-07
3.88558e-07
3.88576e-07
3.6845e-07
3.6847e-07
3.8857e-07
3.68447e-07
3.68466e-07
4.17664e-07
3.97647e-07
3.88564e-07
3.68449e-07
3.68456e-07
3.97655e-07
3.96071e-07
3.7608e-07
3.62118e-07
3.62126e-07
3.44032e-07
3.44038e-07
3.96074e-07
3.76081e-07
3.62108e-07
3.62129e-07
3.44018e-07
3.44041e-07
3.62124e-07
3.44016e-07
3.44037e-07
3.96078e-07
3.76087e-07
3.62113e-07
3.44018e-07
3.44023e-07
3.76096e-07
3.7457e-07
3.55106e-07
3.38291e-07
3.38298e-07
3.21873e-07
3.21879e-07
3.74573e-07
3.55107e-07
3.38277e-07
3.38301e-07
3.21856e-07
3.21881e-07
3.38297e-07
3.21856e-07
3.21879e-07
3.74577e-07
3.55113e-07
3.38283e-07
3.21858e-07
3.21862e-07
3.55122e-07
3.537e-07
3.3539e-07
3.16658e-07
3.16664e-07
3.01762e-07
3.01767e-07
3.53701e-07
3.35392e-07
3.1664e-07
3.16666e-07
3.01743e-07
3.01769e-07
3.16663e-07
3.01743e-07
3.01767e-07
3.53706e-07
3.35398e-07
3.16646e-07
3.01746e-07
3.01748e-07
3.35406e-07
3.34138e-07
3.17526e-07
2.97043e-07
2.97048e-07
2.83622e-07
2.83626e-07
3.34139e-07
3.17531e-07
2.97023e-07
2.9705e-07
2.83601e-07
2.83628e-07
2.97048e-07
2.83602e-07
2.83627e-07
3.34144e-07
3.17535e-07
2.97029e-07
2.83605e-07
2.83606e-07
3.17545e-07
3.16473e-07
3.0197e-07
2.79393e-07
2.79398e-07
2.67441e-07
2.67445e-07
3.16477e-07
3.01974e-07
2.79371e-07
2.79399e-07
2.67418e-07
2.67447e-07
2.79398e-07
2.6742e-07
2.67446e-07
3.1648e-07
3.01978e-07
2.79377e-07
2.67422e-07
2.67423e-07
3.01991e-07
3.01152e-07
2.89035e-07
2.63703e-07
2.63707e-07
2.53225e-07
2.5323e-07
3.01156e-07
2.89037e-07
2.6368e-07
2.63709e-07
2.53201e-07
2.53231e-07
2.63708e-07
2.53204e-07
2.5323e-07
3.01159e-07
2.89041e-07
2.63686e-07
2.53205e-07
2.53207e-07
2.89056e-07
2.88481e-07
2.78946e-07
2.4998e-07
2.49984e-07
2.40979e-07
2.40984e-07
2.88486e-07
2.78946e-07
2.49956e-07
2.49985e-07
2.40953e-07
2.40985e-07
2.49984e-07
2.40955e-07
2.40983e-07
2.88487e-07
2.78952e-07
2.49961e-07
2.40958e-07
2.40959e-07
2.78964e-07
2.78685e-07
2.71821e-07
2.38226e-07
2.3823e-07
2.307e-07
2.30705e-07
2.78687e-07
2.71826e-07
2.382e-07
2.38232e-07
2.30673e-07
2.30706e-07
2.3823e-07
2.30676e-07
2.30705e-07
2.7869e-07
2.71828e-07
2.38205e-07
2.30677e-07
2.30679e-07
2.71843e-07
2.71861e-07
2.67855e-07
2.2844e-07
2.28446e-07
2.22397e-07
2.22403e-07
2.71867e-07
2.67858e-07
2.28412e-07
2.28447e-07
2.22369e-07
2.22405e-07
2.28444e-07
2.2237e-07
2.22402e-07
2.71866e-07
2.67865e-07
2.28418e-07
2.22372e-07
2.22372e-07
2.67877e-07
2.68149e-07
2.66967e-07
2.20635e-07
2.20641e-07
2.16075e-07
2.16084e-07
2.68152e-07
2.66978e-07
2.20604e-07
2.20642e-07
2.16043e-07
2.16084e-07
2.2064e-07
2.16049e-07
2.16081e-07
2.68157e-07
2.66978e-07
2.20609e-07
2.16046e-07
2.1605e-07
2.66999e-07
2.67617e-07
2.6913e-07
2.14809e-07
2.14817e-07
2.11739e-07
2.11749e-07
2.6763e-07
2.69131e-07
2.14777e-07
2.1482e-07
2.11705e-07
2.11753e-07
2.14815e-07
2.11707e-07
2.11744e-07
2.67627e-07
2.69135e-07
2.14784e-07
2.11708e-07
2.11713e-07
2.69155e-07
2.70458e-07
2.74606e-07
2.10977e-07
2.10989e-07
2.09403e-07
2.09423e-07
2.70461e-07
2.74625e-07
2.10943e-07
2.10991e-07
2.0937e-07
2.09426e-07
2.10983e-07
2.09368e-07
2.09414e-07
2.70463e-07
2.7463e-07
2.10953e-07
2.09371e-07
2.09378e-07
2.7465e-07
2.76634e-07
2.83555e-07
2.0915e-07
2.09171e-07
2.0913e-07
2.09148e-07
2.76659e-07
2.83557e-07
2.09118e-07
2.09168e-07
2.09096e-07
2.09151e-07
2.09156e-07
2.09094e-07
2.09139e-07
2.76649e-07
2.83564e-07
2.0912e-07
2.09091e-07
2.091e-07
2.83599e-07
2.8628e-07
2.95758e-07
2.09358e-07
2.09376e-07
2.10834e-07
2.10864e-07
2.86282e-07
2.95793e-07
2.09323e-07
2.09382e-07
2.10794e-07
2.10872e-07
2.09371e-07
2.10795e-07
2.10855e-07
2.86285e-07
2.95796e-07
2.09332e-07
2.10797e-07
2.10812e-07
2.9581e-07
2.99161e-07
3.11542e-07
2.11602e-07
2.11633e-07
2.14662e-07
2.14687e-07
2.99198e-07
3.11502e-07
2.11559e-07
2.11637e-07
2.14624e-07
2.14692e-07
2.11619e-07
2.14607e-07
2.14663e-07
2.99203e-07
3.11552e-07
2.11579e-07
2.1462e-07
2.1463e-07
3.11521e-07
3.1563e-07
3.308e-07
2.1595e-07
2.1599e-07
2.20632e-07
2.20649e-07
3.15623e-07
3.30765e-07
2.1591e-07
2.15981e-07
2.20585e-07
2.20655e-07
2.15965e-07
2.20562e-07
2.20645e-07
3.15648e-07
3.30723e-07
2.15931e-07
2.20563e-07
2.20598e-07
3.30859e-07
3.35632e-07
3.52896e-07
2.22451e-07
2.22463e-07
2.2862e-07
2.28695e-07
3.35542e-07
3.53077e-07
2.22403e-07
2.22486e-07
2.28575e-07
2.28699e-07
2.22453e-07
2.28598e-07
2.28672e-07
3.35581e-07
3.53044e-07
2.22402e-07
2.28588e-07
2.28609e-07
3.53075e-07
3.58316e-07
3.78374e-07
2.30957e-07
2.31024e-07
2.38772e-07
2.38806e-07
3.58516e-07
3.7834e-07
2.30904e-07
2.31025e-07
2.38711e-07
2.38806e-07
2.31005e-07
2.38696e-07
2.38756e-07
3.58461e-07
3.78368e-07
2.30945e-07
2.38702e-07
2.38716e-07
3.78328e-07
3.84448e-07
4.06654e-07
2.41633e-07
2.41695e-07
2.50994e-07
2.51001e-07
3.84504e-07
4.06596e-07
2.41567e-07
2.41682e-07
2.50911e-07
2.51047e-07
2.41622e-07
2.50885e-07
2.50997e-07
3.84509e-07
4.06771e-07
2.41586e-07
2.50928e-07
2.50961e-07
4.06785e-07
4.13296e-07
4.37618e-07
2.54361e-07
2.54364e-07
2.65289e-07
2.65354e-07
4.13155e-07
4.37444e-07
2.54279e-07
2.54403e-07
2.65238e-07
2.65344e-07
2.54349e-07
2.65204e-07
2.65368e-07
4.13356e-07
4.37458e-07
2.54312e-07
2.65188e-07
2.65283e-07
4.37771e-07
4.44904e-07
4.70849e-07
2.69221e-07
2.69254e-07
2.81752e-07
2.81732e-07
4.44686e-07
4.70698e-07
2.69157e-07
2.69277e-07
2.81651e-07
2.8177e-07
2.69307e-07
2.81569e-07
2.81753e-07
4.448e-07
4.70927e-07
2.69207e-07
2.81617e-07
2.81671e-07
4.70919e-07
4.78444e-07
5.04267e-07
2.86069e-07
2.86059e-07
2.99446e-07
2.99475e-07
4.78279e-07
5.0467e-07
2.85966e-07
2.86084e-07
2.99376e-07
2.99472e-07
2.86039e-07
2.99314e-07
2.99347e-07
4.78445e-07
5.04332e-07
2.85945e-07
2.99356e-07
2.99278e-07
5.0416e-07
5.12196e-07
5.42015e-07
3.0421e-07
3.0429e-07
3.19659e-07
3.20046e-07
5.12787e-07
5.43254e-07
3.04126e-07
3.04302e-07
3.19564e-07
3.19807e-07
3.04156e-07
3.19907e-07
3.19924e-07
5.12335e-07
5.42083e-07
3.04122e-07
3.19623e-07
3.19846e-07
5.4299e-07
5.51035e-07
5.81435e-07
3.2518e-07
3.25514e-07
3.42319e-07
3.42379e-07
5.5214e-07
5.81379e-07
3.25076e-07
3.25189e-07
3.42078e-07
3.42147e-07
3.25504e-07
3.42266e-07
3.42296e-07
5.50805e-07
5.80823e-07
3.25426e-07
3.41979e-07
3.42194e-07
5.81322e-07
5.89882e-07
6.1727e-07
3.47995e-07
3.48021e-07
3.65275e-07
3.64521e-07
5.8974e-07
6.1477e-07
3.47703e-07
3.47848e-07
3.65179e-07
3.65543e-07
3.47793e-07
3.64256e-07
3.64717e-07
5.8959e-07
6.18452e-07
3.47621e-07
3.65284e-07
3.64601e-07
6.15696e-07
6.25877e-07
6.52565e-07
3.71189e-07
3.70312e-07
3.88907e-07
3.89283e-07
6.23104e-07
6.53809e-07
3.71117e-07
3.71618e-07
3.88908e-07
3.89135e-07
3.70644e-07
3.89049e-07
3.89678e-07
6.26985e-07
6.52848e-07
3.70633e-07
3.89034e-07
3.89496e-07
6.55002e-07
6.61168e-07
6.93418e-07
3.95048e-07
3.9576e-07
4.15764e-07
4.16456e-07
6.63324e-07
6.94896e-07
3.95076e-07
3.95078e-07
4.15556e-07
4.15523e-07
3.96123e-07
4.16428e-07
4.15444e-07
6.61315e-07
6.9183e-07
3.95889e-07
4.15308e-07
4.1532e-07
6.92302e-07
7.03082e-07
7.29085e-07
4.23076e-07
4.23483e-07
4.42721e-07
4.42556e-07
7.03986e-07
7.2775e-07
4.22849e-07
4.22453e-07
4.42688e-07
4.43312e-07
4.22271e-07
4.42226e-07
4.42815e-07
7.01249e-07
7.31165e-07
4.22132e-07
4.43056e-07
4.42782e-07
7.29187e-07
7.37173e-07
7.64192e-07
4.49311e-07
4.4888e-07
4.71017e-07
4.70188e-07
7.35575e-07
7.62345e-07
4.49254e-07
4.50737e-07
4.70653e-07
4.70593e-07
4.49685e-07
4.7005e-07
4.71838e-07
7.40012e-07
7.63832e-07
4.49759e-07
4.70728e-07
4.71669e-07
7.66224e-07
7.72387e-07
7.97115e-07
4.77876e-07
4.77271e-07
4.97006e-07
4.97912e-07
7.71079e-07
7.9933e-07
4.77487e-07
4.76854e-07
4.97025e-07
4.98674e-07
4.78797e-07
4.97738e-07
4.96174e-07
7.71684e-07
7.97977e-07
4.78528e-07
4.98128e-07
4.96003e-07
7.94396e-07
8.06721e-07
8.41811e-07
5.04367e-07
5.06313e-07
5.30463e-07
5.29039e-07
8.09077e-07
8.39046e-07
5.04339e-07
5.05936e-07
5.29947e-07
5.27006e-07
5.03041e-07
5.28916e-07
5.29552e-07
8.06661e-07
8.33948e-07
5.02822e-07
5.26374e-07
5.29285e-07
8.4179e-07
8.52361e-07
8.85137e-07
5.38749e-07
5.35787e-07
5.6371e-07
5.62404e-07
8.48363e-07
8.86731e-07
5.38164e-07
5.35284e-07
5.63727e-07
5.6285e-07
5.39143e-07
5.62323e-07
5.64925e-07
8.44862e-07
8.8755e-07
5.3881e-07
5.63351e-07
5.64853e-07
8.86604e-07
8.91957e-07
8.96616e-07
5.71523e-07
5.72035e-07
5.91087e-07
5.96024e-07
8.97654e-07
9.20656e-07
5.71663e-07
5.71967e-07
5.9107e-07
5.96727e-07
5.71537e-07
5.95218e-07
5.90101e-07
8.96586e-07
9.19431e-07
5.71503e-07
5.96752e-07
5.90117e-07
9.01882e-07
8.99073e-07
8.94696e-07
5.96606e-07
6.04231e-07
6.08065e-07
6.15911e-07
9.25653e-07
9.0406e-07
5.96648e-07
6.03191e-07
6.07109e-07
6.1394e-07
5.95693e-07
6.15286e-07
6.12038e-07
9.25364e-07
9.08518e-07
5.9599e-07
6.12951e-07
6.11607e-07
9.11583e-07
8.96994e-07
9.31533e-07
6.11325e-07
6.1571e-07
6.29307e-07
6.16255e-07
9.02569e-07
8.78809e-07
6.10082e-07
6.15732e-07
6.27442e-07
6.27196e-07
6.17706e-07
6.17687e-07
6.34943e-07
9.08247e-07
9.07568e-07
6.17014e-07
6.27721e-07
6.33683e-07
9.29964e-07
9.54732e-07
1.03054e-06
6.45146e-07
6.17953e-07
6.89945e-07
6.48842e-07
8.83344e-07
9.60069e-07
6.45719e-07
6.32428e-07
6.95291e-07
6.56622e-07
6.40897e-07
6.50188e-07
6.67635e-07
9.1466e-07
9.42113e-07
6.40397e-07
6.5742e-07
6.71758e-07
9.69306e-07
1.03467e-06
1.02252e-06
6.98508e-07
6.91278e-07
7.2229e-07
7.72864e-07
1.00141e-06
1.14787e-06
7.02237e-07
6.64153e-07
7.15995e-07
7.30711e-07
6.75599e-07
7.69107e-07
7.16596e-07
9.53001e-07
1.06648e-06
6.79861e-07
7.28802e-07
7.10401e-07
1.01671e-06
1.02401e-06
1.01044e-06
7.28103e-07
7.72127e-07
7.2916e-07
7.16126e-07
1.14348e-06
9.53632e-07
7.20322e-07
7.53246e-07
7.27129e-07
7.64815e-07
7.31027e-07
7.16934e-07
7.43973e-07
1.09425e-06
1.08463e-06
7.23719e-07
7.65555e-07
7.43918e-07
1.03664e-06
1.01371e-06
1.06517e-06
7.29262e-07
7.11644e-07
7.5318e-07
7.68512e-07
9.53777e-07
1.16804e-06
7.30098e-07
7.60237e-07
7.60713e-07
7.67954e-07
7.44047e-07
7.68901e-07
7.60537e-07
1.08121e-06
1.10002e-06
7.45366e-07
7.65266e-07
7.66184e-07
1.10025e-06
1.08623e-06
1.09425e-06
7.73081e-07
8.17636e-07
8.06015e-07
8.41179e-07
1.21069e-06
1.15463e-06
7.80029e-07
7.87707e-07
8.03761e-07
8.04872e-07
7.87239e-07
8.4056e-07
8.56479e-07
1.12193e-06
1.10433e-06
7.89637e-07
8.04062e-07
8.53613e-07
1.22996e-06
1.0938e-06
1.11634e-06
8.0626e-07
8.27818e-07
8.13108e-07
7.81535e-07
1.1328e-06
1.00901e-06
8.0343e-07
7.9966e-07
8.10025e-07
7.82517e-07
8.58345e-07
7.83718e-07
8.17301e-07
1.09513e-06
1.03437e-06
8.55696e-07
7.88157e-07
8.1603e-07
1.0622e-06
1.14328e-06
1.187e-06
8.30139e-07
7.81806e-07
8.60477e-07
8.11205e-07
1.01167e-06
1.09845e-06
8.26804e-07
7.84571e-07
8.61994e-07
8.3334e-07
7.90529e-07
8.0399e-07
7.68486e-07
1.04104e-06
1.13204e-06
7.89671e-07
8.26632e-07
7.68895e-07
9.77059e-07
1.18431e-06
1.13507e-06
8.59459e-07
8.31249e-07
8.54254e-07
8.92799e-07
1.12246e-06
1.2475e-06
8.61453e-07
8.51041e-07
8.57758e-07
8.72688e-07
7.72621e-07
8.94663e-07
8.59933e-07
1.14751e-06
1.15591e-06
7.7343e-07
8.69492e-07
8.62734e-07
1.17731e-06
1.14067e-06
1.15577e-06
8.59429e-07
9.18381e-07
8.9258e-07
9.44687e-07
1.27292e-06
1.25332e-06
8.62832e-07
8.75706e-07
8.86513e-07
8.85556e-07
8.89549e-07
9.45497e-07
9.16945e-07
1.15725e-06
1.15617e-06
8.90538e-07
8.87484e-07
9.12765e-07
1.20983e-06
1.15544e-06
1.12075e-06
8.94051e-07
9.37388e-07
8.87699e-07
8.48312e-07
1.23566e-06
1.01222e-06
8.86651e-07
8.89551e-07
8.84576e-07
9.30835e-07
9.20996e-07
8.49793e-07
9.40237e-07
1.16267e-06
1.23318e-06
9.14733e-07
9.32131e-07
9.39033e-07
1.2346e-06
1.12297e-06
1.19689e-06
8.87517e-07
8.37746e-07
9.06857e-07
8.61075e-07
1.00638e-06
1.13936e-06
8.85885e-07
9.42564e-07
9.25656e-07
9.43383e-07
9.39535e-07
8.64862e-07
9.1051e-07
1.24671e-06
1.21185e-06
9.41005e-07
9.48183e-07
9.2238e-07
1.1561e-06
1.22207e-06
1.27736e-06
9.30433e-07
9.16492e-07
9.87295e-07
1.04608e-06
1.21328e-06
1.40948e-06
9.45974e-07
9.32916e-07
9.79096e-07
9.24641e-07
9.06754e-07
1.03911e-06
9.21398e-07
1.2002e-06
1.15848e-06
9.14196e-07
9.20822e-07
9.19286e-07
1.185e-06
1.28127e-06
1.26425e-06
9.9448e-07
1.04794e-06
9.94898e-07
1.00851e-06
1.41093e-06
1.26117e-06
9.824e-07
9.30481e-07
9.87632e-07
1.01228e-06
9.52113e-07
1.01064e-06
1.0228e-06
1.17223e-06
1.32898e-06
9.37349e-07
1.01512e-06
1.01757e-06
1.32412e-06
1.26581e-06
1.2831e-06
9.94109e-07
9.84342e-07
1.0025e-06
9.62053e-07
1.24642e-06
1.18744e-06
9.91255e-07
1.02374e-06
1.01065e-06
1.01311e-06
1.02271e-06
9.64127e-07
9.891e-07
1.33686e-06
1.25916e-06
1.01987e-06
1.01721e-06
9.94487e-07
1.21742e-06
1.28886e-06
1.26059e-06
1.01042e-06
9.64568e-07
1.01144e-06
9.99104e-07
1.19455e-06
1.25844e-06
1.01621e-06
1.00031e-06
1.0125e-06
9.9236e-07
9.82154e-07
9.92532e-07
9.88528e-07
1.25105e-06
1.22518e-06
9.85872e-07
9.88421e-07
9.89053e-07
1.24577e-06
1.25642e-06
1.22539e-06
1.00602e-06
1.01247e-06
1.00096e-06
1.0343e-06
1.27177e-06
1.29217e-06
1.00497e-06
9.95914e-07
9.99024e-07
1.01954e-06
1.004e-06
1.03608e-06
1.05057e-06
1.23406e-06
1.27806e-06
1.00159e-06
1.0212e-06
1.04783e-06
1.33272e-06
1.22975e-06
1.30132e-06
1.00272e-06
1.03633e-06
1.04069e-06
1.0397e-06
1.29442e-06
1.28665e-06
1.00094e-06
1.02818e-06
1.04069e-06
1.05124e-06
1.05594e-06
1.04446e-06
1.05264e-06
1.2885e-06
1.31473e-06
1.0538e-06
1.05594e-06
1.05191e-06
1.29523e-06
1.31963e-06
1.34096e-06
1.0566e-06
1.04149e-06
1.07722e-06
1.05654e-06
1.28834e-06
1.30319e-06
1.0574e-06
1.05815e-06
1.07879e-06
1.06965e-06
1.04605e-06
1.05228e-06
1.04086e-06
1.32038e-06
1.32235e-06
1.04636e-06
1.06638e-06
1.04198e-06
1.26975e-06
1.3422e-06
1.32847e-06
1.07809e-06
1.06408e-06
1.07896e-06
1.08444e-06
1.31271e-06
1.34125e-06
1.07935e-06
1.0706e-06
1.07862e-06
1.07153e-06
1.04241e-06
1.08208e-06
1.06771e-06
1.32343e-06
1.31379e-06
1.04349e-06
1.06891e-06
1.06698e-06
1.31787e-06
1.32982e-06
1.32743e-06
1.07985e-06
1.08849e-06
1.08544e-06
1.09368e-06
1.34618e-06
1.34238e-06
1.07878e-06
1.07291e-06
1.08401e-06
1.08204e-06
1.08009e-06
1.09554e-06
1.1021e-06
1.31577e-06
1.32607e-06
1.07862e-06
1.08444e-06
1.10058e-06
1.35605e-06
1.32966e-06
1.33391e-06
1.08742e-06
1.09366e-06
1.09486e-06
1.09429e-06
1.34311e-06
1.33194e-06
1.08616e-06
1.08723e-06
1.09499e-06
1.10093e-06
1.10447e-06
1.09565e-06
1.10472e-06
1.3321e-06
1.34429e-06
1.10314e-06
1.10201e-06
1.10467e-06
1.34749e-06
1.33813e-06
1.34975e-06
1.09809e-06
1.09593e-06
1.1093e-06
1.10545e-06
1.33391e-06
1.34328e-06
1.09866e-06
1.10425e-06
1.11e-06
1.11175e-06
1.10376e-06
1.10476e-06
1.10474e-06
1.3479e-06
1.35174e-06
1.10419e-06
1.11109e-06
1.1054e-06
1.34196e-06
1.35449e-06
1.36251e-06
1.11324e-06
1.1104e-06
1.12271e-06
1.12155e-06
1.34878e-06
1.36013e-06
1.11359e-06
1.11366e-06
1.12207e-06
1.11983e-06
1.10684e-06
1.1209e-06
1.11833e-06
1.35443e-06
1.35845e-06
1.10714e-06
1.11921e-06
1.11775e-06
1.3566e-06
1.3657e-06
1.36976e-06
1.12503e-06
1.12389e-06
1.13193e-06
1.13214e-06
1.36386e-06
1.37186e-06
1.12439e-06
1.12259e-06
1.13193e-06
1.13222e-06
1.1229e-06
1.13225e-06
1.13252e-06
1.36222e-06
1.37065e-06
1.12233e-06
1.13235e-06
1.13256e-06
1.37137e-06
1.37268e-06
1.37544e-06
1.13425e-06
1.13565e-06
1.13996e-06
1.14369e-06
1.37621e-06
1.38141e-06
1.1343e-06
1.13506e-06
1.13943e-06
1.14084e-06
1.13487e-06
1.14382e-06
1.14212e-06
1.37416e-06
1.37725e-06
1.13496e-06
1.14089e-06
1.14157e-06
1.37882e-06
1.37827e-06
1.38495e-06
1.1417e-06
1.1448e-06
1.14892e-06
1.14633e-06
1.38336e-06
1.37996e-06
1.14102e-06
1.14229e-06
1.14869e-06
1.14832e-06
1.14435e-06
1.14669e-06
1.14874e-06
1.37981e-06
1.38422e-06
1.14364e-06
1.14868e-06
1.14843e-06
1.38316e-06
1.38883e-06
1.39231e-06
1.15163e-06
1.14745e-06
1.15746e-06
1.15551e-06
1.38224e-06
1.38953e-06
1.15167e-06
1.15094e-06
1.15777e-06
1.15757e-06
1.14967e-06
1.1549e-06
1.15415e-06
1.38771e-06
1.39167e-06
1.1497e-06
1.15695e-06
1.15458e-06
1.38801e-06
1.39428e-06
1.3936e-06
1.15857e-06
1.15852e-06
1.16168e-06
1.16396e-06
1.39362e-06
1.39733e-06
1.15874e-06
1.15892e-06
1.1611e-06
1.1615e-06
1.15657e-06
1.16413e-06
1.16414e-06
1.39388e-06
1.39365e-06
1.15677e-06
1.16165e-06
1.16352e-06
1.39775e-06
1.39608e-06
1.40049e-06
1.16317e-06
1.16474e-06
1.16814e-06
1.16737e-06
1.39932e-06
1.39979e-06
1.16249e-06
1.16256e-06
1.16795e-06
1.16785e-06
1.16596e-06
1.16765e-06
1.16902e-06
1.39598e-06
1.40028e-06
1.16531e-06
1.16809e-06
1.16884e-06
1.40154e-06
1.40356e-06
1.40722e-06
1.1697e-06
1.16907e-06
1.17494e-06
1.175e-06
1.40263e-06
1.4072e-06
1.16969e-06
1.16998e-06
1.17482e-06
1.17538e-06
1.16977e-06
1.17485e-06
1.1739e-06
1.40366e-06
1.40793e-06
1.16976e-06
1.17518e-06
1.17377e-06
1.40577e-06
1.40993e-06
1.41065e-06
1.17664e-06
1.17646e-06
1.17971e-06
1.17888e-06
1.4098e-06
1.40985e-06
1.1764e-06
1.17671e-06
1.17958e-06
1.1798e-06
1.17577e-06
1.17888e-06
1.1796e-06
1.41043e-06
1.41093e-06
1.17552e-06
1.17977e-06
1.17949e-06
1.41037e-06
1.41252e-06
1.41258e-06
1.18017e-06
1.17952e-06
1.1822e-06
1.18291e-06
1.41186e-06
1.41385e-06
1.18015e-06
1.18053e-06
1.18205e-06
1.18222e-06
1.18013e-06
1.18287e-06
1.18205e-06
1.41287e-06
1.41258e-06
1.18012e-06
1.18217e-06
1.18191e-06
1.41268e-06
1.41517e-06
1.41835e-06
1.18344e-06
1.18426e-06
1.1874e-06
1.18716e-06
1.41661e-06
1.41806e-06
1.18312e-06
1.18303e-06
1.18699e-06
1.18692e-06
1.18342e-06
1.18721e-06
1.188e-06
1.41487e-06
1.41794e-06
1.18311e-06
1.18697e-06
1.18762e-06
1.41955e-06
1.42087e-06
1.42147e-06
1.18845e-06
1.18782e-06
1.19047e-06
1.18969e-06
1.4201e-06
1.42036e-06
1.18817e-06
1.18828e-06
1.19049e-06
1.19078e-06
1.1891e-06
1.18978e-06
1.19073e-06
1.42071e-06
1.42177e-06
1.18884e-06
1.19083e-06
1.19074e-06
1.42161e-06
1.42353e-06
1.42379e-06
1.191e-06
1.19046e-06
1.19321e-06
1.19345e-06
1.42268e-06
1.42424e-06
1.19102e-06
1.19124e-06
1.193e-06
1.1931e-06
1.19094e-06
1.19334e-06
1.19212e-06
1.42373e-06
1.42358e-06
1.19096e-06
1.193e-06
1.19193e-06
1.42201e-06
1.42579e-06
1.42289e-06
1.19401e-06
1.19431e-06
1.19443e-06
1.19455e-06
1.42637e-06
1.42296e-06
1.19374e-06
1.19385e-06
1.19414e-06
1.19429e-06
1.19291e-06
1.19448e-06
1.19448e-06
1.42556e-06
1.42295e-06
1.19264e-06
1.19419e-06
1.19421e-06
1.42377e-06
1.42425e-06
1.42211e-06
1.19405e-06
1.19393e-06
1.19316e-06
1.1927e-06
1.42425e-06
1.4215e-06
1.19377e-06
1.19392e-06
1.19305e-06
1.19333e-06
1.19447e-06
1.1928e-06
1.19409e-06
1.42434e-06
1.42272e-06
1.19422e-06
1.19343e-06
1.19398e-06
1.42362e-06
1.42553e-06
1.43511e-06
1.19357e-06
1.19313e-06
1.20039e-06
1.20094e-06
1.42507e-06
1.43637e-06
1.19349e-06
1.19382e-06
1.20021e-06
1.20036e-06
1.19434e-06
1.2009e-06
1.19991e-06
1.42615e-06
1.43501e-06
1.19426e-06
1.20031e-06
1.19976e-06
1.43472e-06
1.43834e-06
1.43181e-06
1.20235e-06
1.2028e-06
1.20228e-06
1.20231e-06
1.43964e-06
1.43156e-06
1.20206e-06
1.20211e-06
1.20196e-06
1.20201e-06
1.20206e-06
1.2023e-06
1.2024e-06
1.43805e-06
1.43174e-06
1.2018e-06
1.20197e-06
1.20209e-06
1.43231e-06
1.43226e-06
1.41819e-06
1.20048e-06
1.2e-06
1.19241e-06
1.19193e-06
1.43185e-06
1.4173e-06
1.20022e-06
1.20038e-06
1.19238e-06
1.1926e-06
1.2009e-06
1.19191e-06
1.19176e-06
1.43226e-06
1.41841e-06
1.20063e-06
1.19257e-06
1.19173e-06
1.41679e-06
1.41975e-06
1.42978e-06
1.19197e-06
1.19159e-06
1.19526e-06
1.1953e-06
1.41892e-06
1.42975e-06
1.19192e-06
1.19202e-06
1.195e-06
1.19469e-06
1.19111e-06
1.19502e-06
1.19482e-06
1.4199e-06
1.42911e-06
1.19107e-06
1.19441e-06
1.19456e-06
1.4299e-06
1.43482e-06
1.43683e-06
1.19865e-06
1.19862e-06
1.20173e-06
1.20152e-06
1.43481e-06
1.43668e-06
1.19832e-06
1.19815e-06
1.20155e-06
1.20212e-06
1.19928e-06
1.20174e-06
1.20293e-06
1.43437e-06
1.43805e-06
1.19897e-06
1.20236e-06
1.20277e-06
1.4387e-06
1.43794e-06
1.42629e-06
1.20142e-06
1.2012e-06
1.19702e-06
1.19714e-06
1.43779e-06
1.42682e-06
1.20129e-06
1.20191e-06
1.19694e-06
1.19691e-06
1.20226e-06
1.19695e-06
1.19598e-06
1.43921e-06
1.42555e-06
1.20217e-06
1.19667e-06
1.19587e-06
1.4244e-06
1.42714e-06
1.41892e-06
1.19456e-06
1.19484e-06
1.18945e-06
1.18963e-06
1.42777e-06
1.41978e-06
1.19432e-06
1.19396e-06
1.18916e-06
1.18912e-06
1.19396e-06
1.18971e-06
1.18973e-06
1.42622e-06
1.41841e-06
1.19369e-06
1.18915e-06
1.18942e-06
1.41984e-06
1.42156e-06
1.43868e-06
1.18947e-06
1.1896e-06
1.19863e-06
1.19812e-06
1.42214e-06
1.43743e-06
1.18921e-06
1.18924e-06
1.19867e-06
1.19903e-06
1.1897e-06
1.19781e-06
1.19786e-06
1.42155e-06
1.43903e-06
1.18943e-06
1.19883e-06
1.19795e-06
1.43767e-06
1.44309e-06
1.42069e-06
1.20128e-06
1.20083e-06
1.19696e-06
1.19667e-06
1.442e-06
1.42099e-06
1.20119e-06
1.20125e-06
1.1966e-06
1.19664e-06
1.20141e-06
1.19695e-06
1.19938e-06
1.44302e-06
1.421e-06
1.20136e-06
1.197e-06
1.19914e-06
1.42692e-06
1.41753e-06
1.39807e-06
1.18704e-06
1.18671e-06
1.17378e-06
1.1734e-06
1.41772e-06
1.39698e-06
1.18665e-06
1.18717e-06
1.17394e-06
1.17471e-06
1.1912e-06
1.17327e-06
1.17112e-06
1.41827e-06
1.39949e-06
1.19084e-06
1.17452e-06
1.17126e-06
1.39235e-06
1.4054e-06
1.45389e-06
1.17505e-06
1.17474e-06
1.20138e-06
1.20229e-06
1.40423e-06
1.45625e-06
1.17523e-06
1.17577e-06
1.20084e-06
1.19962e-06
1.17174e-06
1.20158e-06
1.20115e-06
1.40598e-06
1.45049e-06
1.17188e-06
1.19882e-06
1.20055e-06
1.45697e-06
1.45803e-06
1.41904e-06
1.2043e-06
1.20521e-06
1.19411e-06
1.19406e-06
1.46064e-06
1.41898e-06
1.2036e-06
1.20281e-06
1.19366e-06
1.19521e-06
1.20761e-06
1.19571e-06
1.20123e-06
1.45519e-06
1.42335e-06
1.20688e-06
1.1968e-06
1.20081e-06
1.42877e-06
1.41524e-06
1.3913e-06
1.18201e-06
1.18115e-06
1.16691e-06
1.1656e-06
1.41451e-06
1.38781e-06
1.18207e-06
1.18424e-06
1.16731e-06
1.16755e-06
1.18652e-06
1.16478e-06
1.1615e-06
1.41976e-06
1.39135e-06
1.18663e-06
1.16667e-06
1.16183e-06
1.38041e-06
1.3961e-06
1.41505e-06
1.1674e-06
1.1662e-06
1.17701e-06
1.178e-06
1.39281e-06
1.41767e-06
1.16773e-06
1.16768e-06
1.17645e-06
1.17552e-06
1.16178e-06
1.17754e-06
1.17792e-06
1.39462e-06
1.41279e-06
1.16204e-06
1.17494e-06
1.17728e-06
1.41946e-06
1.41806e-06
1.41184e-06
1.17813e-06
1.17946e-06
1.17479e-06
1.17547e-06
1.42141e-06
1.41357e-06
1.1775e-06
1.17725e-06
1.17451e-06
1.17534e-06
1.18167e-06
1.17649e-06
1.17896e-06
1.41686e-06
1.41386e-06
1.18105e-06
1.17637e-06
1.17867e-06
1.41681e-06
1.41366e-06
1.42152e-06
1.17461e-06
1.1747e-06
1.17695e-06
1.17536e-06
1.41498e-06
1.41763e-06
1.17443e-06
1.17513e-06
1.17704e-06
1.17685e-06
1.1766e-06
1.1751e-06
1.1742e-06
1.41552e-06
1.42045e-06
1.17644e-06
1.17642e-06
1.17421e-06
1.41438e-06
1.42386e-06
1.40512e-06
1.17713e-06
1.17546e-06
1.16788e-06
1.16727e-06
1.41981e-06
1.4051e-06
1.17723e-06
1.17702e-06
1.16794e-06
1.16836e-06
1.17381e-06
1.16673e-06
1.16597e-06
1.42271e-06
1.40589e-06
1.17386e-06
1.16778e-06
1.16603e-06
1.40415e-06
1.40531e-06
1.38765e-06
1.16468e-06
1.16502e-06
1.14428e-06
1.14575e-06
1.40578e-06
1.39174e-06
1.1646e-06
1.16514e-06
1.14384e-06
1.14388e-06
1.16453e-06
1.14644e-06
1.14783e-06
1.40614e-06
1.38778e-06
1.16448e-06
1.14448e-06
1.14734e-06
1.39547e-06
1.36964e-06
1.11255e-06
1.11394e-06
1.37337e-06
1.11215e-06
1.11206e-06
6.66562e-07
6.6567e-07
6.67433e-07
1.1164e-06
1.36959e-06
1.11594e-06
5.35663e-07
5.35601e-07
5.35655e-07
5.35655e-07
5.34573e-07
5.35516e-07
5.33634e-07
5.35654e-07
5.34573e-07
5.35517e-07
5.35654e-07
5.33634e-07
5.35256e-07
5.35987e-07
5.35987e-07
1.10716e-06
3.88069e-06
9.33919e-07
4.60586e-06
1.26086e-05
1.66015e-05
1.10712e-06
3.88121e-06
9.33931e-07
4.60637e-06
4.95567e-07
4.95567e-07
4.95567e-07
4.57231e-07
4.57231e-07
4.57232e-07
4.57232e-07
5.43136e-07
1.22024e-06
4.95565e-07
4.85523e-07
5.25345e-07
1.20948e-06
4.82301e-07
1.26098e-05
1.6603e-05
5.43156e-07
4.95565e-07
1.22026e-06
4.85523e-07
5.25333e-07
4.82301e-07
1.2095e-06
2.52183e-06
2.52237e-06
4.84192e-07
2.37257e-06
2.37281e-06
1.43088e-06
5.59292e-06
1.32969e-06
6.13608e-06
2.12849e-05
2.31112e-05
1.43097e-06
5.59371e-06
1.32981e-06
6.1369e-06
4.45573e-07
4.45573e-07
4.45573e-07
4.13542e-07
4.13542e-07