/*--------------------------------*- C++ -*----------------------------------*\
| =========                 |                                                 |
| \\      /  F ield         | OpenFOAM: The Open Source CFD Toolbox           |
|  \\    /   O peration     | Version:  v2006                                 |
|   \\  /    A nd           | Website:  www.openfoam.com                      |
|    \\/     M anipulation  |                                                 |
\*---------------------------------------------------------------------------*/
FoamFile
{
    version     2.0;
    format      ascii;
    class       volScalarField;
    location    "1000";
    object      epsilon;
}
// * * * * * * * * * * * * * * * * * * * * * * * * * * * * * * * * * * * * * //

dimensions      [0 2 -3 0 0 0 0];


internalField   nonuniform List<scalar> 
171728
(
4.95567e-07
4.97331e-07
4.97331e-07
4.99575e-07
4.45573e-07
4.53736e-07
4.53738e-07
4.63711e-07
4.03752e-07
4.18514e-07
4.18515e-07
4.39411e-07
3.68363e-07
3.88554e-07
3.88556e-07
4.1767e-07
3.38014e-07
3.62105e-07
3.62107e-07
3.96085e-07
3.11645e-07
3.38275e-07
3.38278e-07
3.74584e-07
2.88472e-07
3.1664e-07
3.16643e-07
3.53713e-07
2.67922e-07
2.97024e-07
2.97027e-07
3.34151e-07
2.49579e-07
2.79372e-07
2.79375e-07
3.16488e-07
2.33136e-07
2.63681e-07
2.63684e-07
3.01167e-07
2.18364e-07
2.49956e-07
2.49961e-07
2.88499e-07
2.05089e-07
2.38201e-07
2.38205e-07
2.78703e-07
1.93171e-07
2.28412e-07
2.28417e-07
2.71876e-07
1.82497e-07
2.20602e-07
2.20608e-07
2.68166e-07
1.72978e-07
2.14774e-07
2.14783e-07
2.6765e-07
1.6454e-07
2.10941e-07
2.10946e-07
2.70482e-07
1.5712e-07
2.09105e-07
2.09112e-07
2.76667e-07
1.50668e-07
2.0931e-07
2.09314e-07
2.86252e-07
1.45135e-07
2.11565e-07
2.11559e-07
2.99247e-07
1.40486e-07
2.15903e-07
2.15898e-07
3.15604e-07
1.367e-07
2.22357e-07
2.22368e-07
3.35518e-07
1.3374e-07
2.30942e-07
2.30935e-07
3.58595e-07
1.31598e-07
2.41576e-07
2.41568e-07
3.84626e-07
1.30247e-07
2.54329e-07
2.54332e-07
4.13674e-07
1.29696e-07
2.69169e-07
2.6914e-07
4.44701e-07
1.29931e-07
2.85851e-07
2.85934e-07
4.78448e-07
1.30878e-07
3.04143e-07
3.04201e-07
5.13626e-07
1.3263e-07
3.25004e-07
3.24951e-07
5.5027e-07
1.35276e-07
3.47482e-07
3.47662e-07
5.87609e-07
1.3853e-07
3.70579e-07
3.70686e-07
6.26567e-07
1.42527e-07
3.95986e-07
3.95747e-07
6.63255e-07
1.4748e-07
4.22756e-07
4.22812e-07
7.02769e-07
1.53022e-07
4.48727e-07
4.48549e-07
7.36094e-07
1.59346e-07
4.77752e-07
4.78714e-07
7.75976e-07
1.6631e-07
5.05773e-07
5.05375e-07
8.08239e-07
1.75559e-07
5.38513e-07
5.37152e-07
8.47445e-07
1.83232e-07
5.66345e-07
5.67195e-07
8.70185e-07
1.89532e-07
5.92479e-07
5.93063e-07
9.16643e-07
2.06346e-07
6.20789e-07
6.2455e-07
9.70786e-07
2.19463e-07
6.5095e-07
6.52594e-07
9.32332e-07
2.18474e-07
7.16782e-07
6.94767e-07
9.04079e-07
2.33008e-07
7.28733e-07
7.26932e-07
1.11157e-06
2.71145e-07
6.81142e-07
7.13497e-07
1.09994e-06
2.67771e-07
7.61897e-07
7.81003e-07
1.07878e-06
2.75782e-07
8.92053e-07
8.08425e-07
1.06999e-06
2.89921e-07
8.24627e-07
8.11513e-07
1.04451e-06
3.06072e-07
7.93328e-07
8.79169e-07
1.17839e-06
3.3357e-07
8.34599e-07
8.6325e-07
1.23512e-06
3.51368e-07
9.39599e-07
8.63792e-07
1.10153e-06
3.5733e-07
9.67311e-07
9.12109e-07
1.19483e-06
3.6119e-07
8.93981e-07
9.64955e-07
1.2759e-06
3.94775e-07
9.48159e-07
9.81537e-07
1.2178e-06
4.24533e-07
1.01871e-06
9.75679e-07
1.22533e-06
4.28214e-07
9.89676e-07
9.74901e-07
1.2441e-06
4.37174e-07
9.96834e-07
1.01593e-06
1.2974e-06
4.49864e-07
1.03883e-06
1.05329e-06
1.30154e-06
4.72108e-07
1.05767e-06
1.05298e-06
1.29367e-06
4.94487e-07
1.0641e-06
1.05366e-06
1.30527e-06
5.06906e-07
1.07215e-06
1.07468e-06
1.3256e-06
5.17134e-07
1.08922e-06
1.09552e-06
1.34276e-06
5.32644e-07
1.10392e-06
1.10367e-06
1.34738e-06
5.47689e-07
1.11659e-06
1.1134e-06
1.35317e-06
5.60118e-07
1.12554e-06
1.12504e-06
1.36449e-06
5.71631e-07
1.13075e-06
1.13316e-06
1.37372e-06
5.8395e-07
1.14142e-06
1.1411e-06
1.37725e-06
5.95135e-07
1.15185e-06
1.15116e-06
1.38576e-06
6.06974e-07
1.15797e-06
1.15882e-06
1.39636e-06
6.16037e-07
1.16279e-06
1.16254e-06
1.39554e-06
6.24504e-07
1.17091e-06
1.17093e-06
1.40432e-06
6.34227e-07
1.177e-06
1.17751e-06
1.41155e-06
6.4109e-07
1.17766e-06
1.17762e-06
1.4099e-06
6.48555e-07
1.18408e-06
1.18397e-06
1.41503e-06
6.56652e-07
1.19034e-06
1.19075e-06
1.42403e-06
6.61931e-07
1.19003e-06
1.19027e-06
1.42304e-06
6.67181e-07
1.19291e-06
1.19304e-06
1.42412e-06
6.71663e-07
1.19305e-06
1.19297e-06
1.42207e-06
6.74638e-07
1.19374e-06
1.19355e-06
1.4291e-06
6.83696e-07
1.20504e-06
1.20557e-06
1.44452e-06
6.83744e-07
1.19423e-06
1.1938e-06
1.42065e-06
6.82924e-07
1.19018e-06
1.19035e-06
1.42062e-06
6.89575e-07
1.20398e-06
1.20404e-06
1.44569e-06
6.92233e-07
1.19959e-06
1.19952e-06
1.43255e-06
6.90106e-07
1.19039e-06
1.19043e-06
1.42007e-06
6.9052e-07
1.19286e-06
1.19256e-06
1.42878e-06
6.97622e-07
1.20325e-06
1.20398e-06
1.45082e-06
6.88558e-07
1.17305e-06
1.17265e-06
1.39294e-06
6.87181e-07
1.18208e-06
1.18021e-06
1.41584e-06
7.02741e-07
1.21179e-06
1.21419e-06
1.48447e-06
6.9137e-07
1.17045e-06
1.16921e-06
1.39059e-06
6.83674e-07
1.16316e-06
1.1614e-06
1.38368e-06
6.90441e-07
1.18075e-06
1.18288e-06
1.43339e-06
6.90153e-07
1.17883e-06
1.17776e-06
1.41736e-06
6.88421e-07
1.17615e-06
1.17621e-06
1.41825e-06
6.83501e-07
1.16149e-06
1.16209e-06
1.40113e-06
6.6904e-07
1.12097e-06
1.11964e-06
1.38573e-06
5.06417e-07
5.05584e-07
5.05582e-07
5.06417e-07
5.05583e-07
5.05583e-07
5.09649e-07
5.09649e-07
5.09649e-07
5.09649e-07
5.05584e-07
5.05584e-07
5.06417e-07
5.05584e-07
5.05583e-07
5.06418e-07
4.99575e-07
4.67236e-07
4.97331e-07
4.97335e-07
4.63713e-07
4.63721e-07
4.99575e-07
4.67237e-07
4.97334e-07
4.97335e-07
4.63718e-07
4.63723e-07
4.97332e-07
4.6371e-07
4.63715e-07
4.99575e-07
4.67239e-07
4.97334e-07
4.63711e-07
4.63719e-07
4.67243e-07
4.63708e-07
4.41422e-07
4.53739e-07
4.53748e-07
4.26738e-07
4.26747e-07
4.63709e-07
4.41422e-07
4.53743e-07
4.5375e-07
4.26738e-07
4.26749e-07
4.53743e-07
4.26732e-07
4.26742e-07
4.6371e-07
4.41428e-07
4.53745e-07
4.26734e-07
4.26742e-07
4.41434e-07
4.39404e-07
4.19278e-07
4.18521e-07
4.1853e-07
3.95675e-07
3.95684e-07
4.39408e-07
4.19279e-07
4.18521e-07
4.18533e-07
3.9567e-07
3.95686e-07
4.18526e-07
3.95665e-07
3.9568e-07
4.39409e-07
4.19285e-07
4.18525e-07
3.95668e-07
3.95675e-07
4.19293e-07
4.17658e-07
3.9764e-07
3.88564e-07
3.88573e-07
3.6846e-07
3.68468e-07
4.1766e-07
3.97641e-07
3.88558e-07
3.88576e-07
3.6845e-07
3.6847e-07
3.8857e-07
3.68447e-07
3.68466e-07
4.17664e-07
3.97647e-07
3.88564e-07
3.68449e-07
3.68456e-07
3.97655e-07
3.96071e-07
3.7608e-07
3.62118e-07
3.62126e-07
3.44032e-07
3.44038e-07
3.96074e-07
3.76081e-07
3.62108e-07
3.62129e-07
3.44018e-07
3.44041e-07
3.62124e-07
3.44016e-07
3.44037e-07
3.96078e-07
3.76087e-07
3.62113e-07
3.44018e-07
3.44023e-07
3.76096e-07
3.7457e-07
3.55106e-07
3.38291e-07
3.38298e-07
3.21873e-07
3.21879e-07
3.74573e-07
3.55107e-07
3.38277e-07
3.38301e-07
3.21856e-07
3.21881e-07
3.38297e-07
3.21856e-07
3.21879e-07
3.74577e-07
3.55113e-07
3.38283e-07
3.21858e-07
3.21862e-07
3.55122e-07
3.53699e-07
3.35391e-07
3.16658e-07
3.16664e-07
3.01762e-07
3.01767e-07
3.53701e-07
3.35392e-07
3.1664e-07
3.16666e-07
3.01743e-07
3.01769e-07
3.16663e-07
3.01743e-07
3.01767e-07
3.53706e-07
3.35398e-07
3.16646e-07
3.01746e-07
3.01748e-07
3.35406e-07
3.34138e-07
3.17527e-07
2.97043e-07
2.97048e-07
2.83622e-07
2.83626e-07
3.3414e-07
3.17531e-07
2.97024e-07
2.9705e-07
2.83601e-07
2.83629e-07
2.97048e-07
2.83602e-07
2.83627e-07
3.34144e-07
3.17535e-07
2.9703e-07
2.83605e-07
2.83606e-07
3.17545e-07
3.16474e-07
3.0197e-07
2.79393e-07
2.79397e-07
2.67441e-07
2.67445e-07
3.16477e-07
3.01974e-07
2.79372e-07
2.79399e-07
2.67418e-07
2.67447e-07
2.79398e-07
2.6742e-07
2.67445e-07
3.1648e-07
3.01977e-07
2.79377e-07
2.67422e-07
2.67423e-07
3.0199e-07
3.01152e-07
2.89036e-07
2.63703e-07
2.63707e-07
2.53226e-07
2.5323e-07
3.01156e-07
2.89038e-07
2.6368e-07
2.63708e-07
2.53201e-07
2.53231e-07
2.63707e-07
2.53204e-07
2.5323e-07
3.01157e-07
2.89042e-07
2.63685e-07
2.53206e-07
2.53207e-07
2.89056e-07
2.88482e-07
2.78947e-07
2.4998e-07
2.49984e-07
2.40979e-07
2.40984e-07
2.88487e-07
2.78946e-07
2.49956e-07
2.49985e-07
2.40953e-07
2.40985e-07
2.49985e-07
2.40956e-07
2.40984e-07
2.88488e-07
2.78954e-07
2.49961e-07
2.40958e-07
2.4096e-07
2.78966e-07
2.78684e-07
2.71822e-07
2.38226e-07
2.38231e-07
2.307e-07
2.30705e-07
2.78687e-07
2.71823e-07
2.382e-07
2.38232e-07
2.30673e-07
2.30706e-07
2.3823e-07
2.30675e-07
2.30704e-07
2.7869e-07
2.71829e-07
2.38205e-07
2.30677e-07
2.30677e-07
2.71838e-07
2.71863e-07
2.67852e-07
2.28441e-07
2.28446e-07
2.22395e-07
2.22402e-07
2.71864e-07
2.67859e-07
2.28413e-07
2.28447e-07
2.22367e-07
2.22403e-07
2.28445e-07
2.22371e-07
2.22401e-07
2.71867e-07
2.67859e-07
2.28418e-07
2.2237e-07
2.22372e-07
2.67877e-07
2.68144e-07
2.66975e-07
2.20634e-07
2.2064e-07
2.16076e-07
2.16083e-07
2.68153e-07
2.66976e-07
2.20603e-07
2.20641e-07
2.16045e-07
2.16086e-07
2.20639e-07
2.16047e-07
2.16082e-07
2.6815e-07
2.66984e-07
2.2061e-07
2.16049e-07
2.16051e-07
2.67e-07
2.67627e-07
2.69129e-07
2.14812e-07
2.14819e-07
2.1174e-07
2.11754e-07
2.67628e-07
2.6914e-07
2.14779e-07
2.14821e-07
2.11705e-07
2.11753e-07
2.14816e-07
2.1171e-07
2.11745e-07
2.67635e-07
2.69139e-07
2.14785e-07
2.11708e-07
2.11713e-07
2.6916e-07
2.70451e-07
2.74618e-07
2.10977e-07
2.1099e-07
2.09404e-07
2.09421e-07
2.70469e-07
2.7462e-07
2.10944e-07
2.10991e-07
2.09373e-07
2.09422e-07
2.10983e-07
2.09368e-07
2.09416e-07
2.7046e-07
2.74626e-07
2.1095e-07
2.09369e-07
2.0938e-07
2.74654e-07
2.7664e-07
2.83504e-07
2.09144e-07
2.09161e-07
2.09119e-07
2.0914e-07
2.76639e-07
2.83516e-07
2.09113e-07
2.09163e-07
2.09084e-07
2.09144e-07
2.09156e-07
2.09083e-07
2.09131e-07
2.76644e-07
2.83524e-07
2.0912e-07
2.09087e-07
2.09093e-07
2.83521e-07
2.86242e-07
2.95799e-07
2.0935e-07
2.09372e-07
2.10852e-07
2.10872e-07
2.86251e-07
2.9582e-07
2.09314e-07
2.09376e-07
2.1081e-07
2.10875e-07
2.09361e-07
2.10803e-07
2.10861e-07
2.86253e-07
2.95809e-07
2.09324e-07
2.108e-07
2.10824e-07
2.95865e-07
2.99198e-07
3.11467e-07
2.11614e-07
2.11637e-07
2.14653e-07
2.14692e-07
2.99223e-07
3.11493e-07
2.11569e-07
2.11639e-07
2.14618e-07
2.14693e-07
2.11621e-07
2.14616e-07
2.14669e-07
2.99206e-07
3.11492e-07
2.11582e-07
2.1461e-07
2.14627e-07
3.11508e-07
3.15573e-07
3.30611e-07
2.15938e-07
2.15984e-07
2.20588e-07
2.2062e-07
3.15601e-07
3.30589e-07
2.15904e-07
2.15982e-07
2.20548e-07
2.20628e-07
2.15958e-07
2.20533e-07
2.20615e-07
3.15597e-07
3.30621e-07
2.15914e-07
2.20541e-07
2.20565e-07
3.30686e-07
3.35423e-07
3.53126e-07
2.22417e-07
2.22445e-07
2.28666e-07
2.28699e-07
3.3541e-07
3.53149e-07
2.22366e-07
2.22455e-07
2.28614e-07
2.28704e-07
2.22446e-07
2.28604e-07
2.28679e-07
3.35435e-07
3.53143e-07
2.22395e-07
2.28601e-07
2.28638e-07
3.53211e-07
3.58562e-07
3.78454e-07
2.31003e-07
2.3104e-07
2.38797e-07
2.38845e-07
3.58603e-07
3.78532e-07
2.30942e-07
2.31041e-07
2.38727e-07
2.38826e-07
2.31002e-07
2.38724e-07
2.38797e-07
3.58582e-07
3.78475e-07
2.30958e-07
2.38714e-07
2.38744e-07
3.78528e-07
3.84523e-07
4.06864e-07
2.41646e-07
2.41703e-07
2.51017e-07
2.51054e-07
3.84602e-07
4.06858e-07
2.4158e-07
2.41682e-07
2.50973e-07
2.5107e-07
2.41659e-07
2.50939e-07
2.51086e-07
3.84535e-07
4.06925e-07
2.4162e-07
2.50948e-07
2.51014e-07
4.07025e-07
4.13551e-07
4.37714e-07
2.54401e-07
2.54443e-07
2.65338e-07
2.65385e-07
4.13563e-07
4.37869e-07
2.54347e-07
2.54458e-07
2.65254e-07
2.65419e-07
2.54455e-07
2.65268e-07
2.65294e-07
4.13616e-07
4.37863e-07
2.5438e-07
2.65258e-07
2.65224e-07
4.3753e-07
4.44989e-07
4.70795e-07
2.69233e-07
2.69279e-07
2.81683e-07
2.81708e-07
4.45053e-07
4.70853e-07
2.69152e-07
2.69303e-07
2.81541e-07
2.81762e-07
2.69176e-07
2.81544e-07
2.81585e-07
4.45128e-07
4.70853e-07
2.69117e-07
2.81621e-07
2.81555e-07
4.70762e-07
4.78352e-07
5.04704e-07
2.86056e-07
2.86014e-07
2.99545e-07
2.99555e-07
4.78392e-07
5.04358e-07
2.859e-07
2.86098e-07
2.99494e-07
2.99553e-07
2.8595e-07
2.9939e-07
2.99789e-07
4.78434e-07
5.04451e-07
2.8592e-07
2.99387e-07
2.99632e-07
5.05589e-07
5.12727e-07
5.41526e-07
3.04321e-07
3.04347e-07
3.19656e-07
3.1983e-07
5.12424e-07
5.41655e-07
3.04255e-07
3.0435e-07
3.19643e-07
3.19606e-07
3.04604e-07
3.19568e-07
3.19787e-07
5.12536e-07
5.41452e-07
3.04393e-07
3.19551e-07
3.19662e-07
5.41644e-07
5.50146e-07
5.79489e-07
3.24881e-07
3.25261e-07
3.41655e-07
3.41734e-07
5.50394e-07
5.80094e-07
3.24886e-07
3.24954e-07
3.4145e-07
3.41949e-07
3.25041e-07
3.41717e-07
3.41483e-07
5.501e-07
5.80158e-07
3.25031e-07
3.41837e-07
3.41594e-07
5.79065e-07
5.88441e-07
6.17664e-07
3.477e-07
3.47462e-07
3.65338e-07
3.65115e-07
5.88754e-07
6.17465e-07
3.47431e-07
3.47873e-07
3.6506e-07
3.65414e-07
3.47315e-07
3.64935e-07
3.65136e-07
5.89104e-07
6.17727e-07
3.47369e-07
3.64896e-07
3.64925e-07
6.17428e-07
6.2626e-07
6.54058e-07
3.71189e-07
3.70847e-07
3.89523e-07
3.89639e-07
6.2592e-07
6.53683e-07
3.70972e-07
3.71217e-07
3.89555e-07
3.89294e-07
3.71228e-07
3.89372e-07
3.89869e-07
6.26111e-07
6.53389e-07
3.70981e-07
3.89215e-07
3.89514e-07
6.55081e-07
6.62434e-07
6.92832e-07
3.95535e-07
3.96117e-07
4.15475e-07
4.15787e-07
6.62727e-07
6.93221e-07
3.9558e-07
3.956e-07
4.15312e-07
4.15907e-07
3.96005e-07
4.15611e-07
4.15503e-07
6.62362e-07
6.93693e-07
3.95705e-07
4.15896e-07
4.15564e-07
6.92955e-07
7.02724e-07
7.29452e-07
4.23092e-07
4.22999e-07
4.43293e-07
4.43372e-07
7.02743e-07
7.29564e-07
4.22817e-07
4.23059e-07
4.43111e-07
4.42652e-07
4.22714e-07
4.42946e-07
4.43024e-07
7.02819e-07
7.28113e-07
4.22789e-07
4.42308e-07
4.43045e-07
7.28476e-07
7.36963e-07
7.63187e-07
4.49078e-07
4.49092e-07
4.7021e-07
4.69717e-07
7.37285e-07
7.63489e-07
4.48987e-07
4.48846e-07
4.70279e-07
4.71015e-07
4.49029e-07
4.69777e-07
4.70429e-07
7.36407e-07
7.65701e-07
4.48976e-07
4.70957e-07
4.69994e-07
7.65745e-07
7.72806e-07
8.00138e-07
4.77425e-07
4.77544e-07
4.984e-07
4.98885e-07
7.73035e-07
8.01073e-07
4.77532e-07
4.78501e-07
4.98021e-07
4.98295e-07
4.78511e-07
4.98797e-07
4.99451e-07
7.74877e-07
7.99994e-07
4.78111e-07
4.98591e-07
4.99444e-07
8.00792e-07
8.089e-07
8.43294e-07
5.05949e-07
5.06192e-07
5.31496e-07
5.30169e-07
8.09716e-07
8.38943e-07
5.05437e-07
5.05562e-07
5.31065e-07
5.29436e-07
5.05319e-07
5.29861e-07
5.29398e-07
8.08382e-07
8.37039e-07
5.05345e-07
5.28814e-07
5.2921e-07
8.37259e-07
8.52952e-07
8.63714e-07
5.40981e-07
5.38761e-07
5.59964e-07
5.6118e-07
8.48482e-07
8.6966e-07
5.40464e-07
5.37637e-07
5.59795e-07
5.61809e-07
5.38476e-07
5.6067e-07
5.60302e-07
8.46274e-07
8.70676e-07
5.38221e-07
5.60829e-07
5.60024e-07
8.65052e-07
8.66125e-07
8.82588e-07
5.64126e-07
5.66996e-07
5.76876e-07
5.8475e-07
8.75411e-07
8.91887e-07
5.64159e-07
5.68427e-07
5.76704e-07
5.8595e-07
5.65388e-07
5.84366e-07
5.80999e-07
8.7756e-07
8.96615e-07
5.65179e-07
5.8505e-07
5.80828e-07
8.9986e-07
8.97503e-07
9.66966e-07
5.86507e-07
5.92549e-07
6.3016e-07
6.14396e-07
8.99527e-07
9.16669e-07
5.86146e-07
5.92913e-07
6.30344e-07
6.16199e-07
5.94081e-07
6.15698e-07
6.3524e-07
9.04375e-07
9.19833e-07
5.93925e-07
6.18238e-07
6.35114e-07
9.66032e-07
9.76471e-07
9.68539e-07
6.41982e-07
6.19693e-07
6.60233e-07
6.38493e-07
9.22391e-07
9.55063e-07
6.42621e-07
6.21962e-07
6.60738e-07
6.41311e-07
6.44697e-07
6.39845e-07
6.48769e-07
9.25016e-07
9.52094e-07
6.44783e-07
6.44065e-07
6.49151e-07
9.36427e-07
9.68018e-07
9.05255e-07
6.60111e-07
6.51101e-07
6.50998e-07
7.03247e-07
9.71532e-07
1.05558e-06
6.60483e-07
6.51558e-07
6.49276e-07
6.88876e-07
6.45172e-07
6.98211e-07
6.40534e-07
9.65811e-07
1.01506e-06
6.45671e-07
6.8222e-07
6.40317e-07
8.97595e-07
9.06084e-07
9.94317e-07
6.50808e-07
7.21419e-07
6.75885e-07
7.32085e-07
1.07399e-06
1.04341e-06
6.48854e-07
7.01442e-07
6.73732e-07
7.23875e-07
6.4325e-07
7.32932e-07
7.2264e-07
1.02826e-06
1.04604e-06
6.42741e-07
7.2594e-07
7.20165e-07
1.07967e-06
1.05248e-06
1.15811e-06
7.21239e-07
7.25849e-07
7.90709e-07
6.83656e-07
1.03074e-06
8.91111e-07
7.20256e-07
7.23995e-07
7.91848e-07
7.12516e-07
7.55956e-07
6.83917e-07
7.74865e-07
1.04475e-06
9.65643e-07
7.54722e-07
7.14231e-07
7.75029e-07
1.10542e-06
1.15328e-06
1.03742e-06
7.89394e-07
6.82213e-07
7.56786e-07
7.11207e-07
8.91732e-07
1.03916e-06
7.90483e-07
7.12557e-07
7.59136e-07
7.51075e-07
7.69135e-07
7.08591e-07
7.5999e-07
9.67948e-07
1.08351e-06
7.69373e-07
7.48386e-07
7.62074e-07
1.07018e-06
1.03748e-06
1.06398e-06
7.54293e-07
7.64064e-07
7.77411e-07
8.8519e-07
1.10687e-06
1.29718e-06
7.57106e-07
7.8175e-07
7.79113e-07
8.09692e-07
7.65688e-07
8.88242e-07
7.89529e-07
1.11701e-06
1.11398e-06
7.70025e-07
8.12158e-07
7.90095e-07
1.07306e-06
1.07534e-06
1.08536e-06
7.90084e-07
8.89541e-07
8.12046e-07
8.56199e-07
1.29945e-06
1.12269e-06
7.88845e-07
8.06153e-07
8.0472e-07
8.04793e-07
7.90002e-07
8.53912e-07
7.9006e-07
1.10552e-06
1.08432e-06
7.89229e-07
8.04297e-07
7.85537e-07
1.03908e-06
1.08741e-06
1.11554e-06
8.13298e-07
8.27637e-07
8.26324e-07
7.93395e-07
1.10405e-06
1.01477e-06
8.0639e-07
8.13114e-07
8.2927e-07
8.74407e-07
7.91653e-07
7.91788e-07
8.3199e-07
1.10486e-06
1.21071e-06
7.87269e-07
8.72195e-07
8.34144e-07
1.14693e-06
1.13414e-06
1.19613e-06
8.41076e-07
7.94601e-07
8.83685e-07
8.20867e-07
1.01898e-06
1.08103e-06
8.46411e-07
8.80119e-07
8.87804e-07
8.68713e-07
8.6223e-07
8.23278e-07
9.0924e-07
1.21392e-06
1.12593e-06
8.65937e-07
8.7124e-07
9.12991e-07
1.23664e-06
1.20294e-06
1.20127e-06
8.91448e-07
8.30974e-07
9.06635e-07
9.04035e-07
1.0975e-06
1.22611e-06
8.94658e-07
8.60063e-07
9.09482e-07
8.5846e-07
9.08837e-07
9.05487e-07
8.71693e-07
1.11972e-06
1.10117e-06
9.12495e-07
8.60038e-07
8.72663e-07
1.10431e-06
1.20217e-06
1.16478e-06
9.11017e-07
9.4195e-07
9.13355e-07
9.78042e-07
1.26967e-06
1.31148e-06
9.10763e-07
8.64214e-07
9.06683e-07
9.04104e-07
8.65958e-07
9.71282e-07
8.82778e-07
1.11152e-06
1.17808e-06
8.65012e-07
8.96202e-07
8.77234e-07
1.15453e-06
1.16215e-06
1.13818e-06
9.1161e-07
9.73496e-07
9.04989e-07
8.98535e-07
1.30026e-06
1.10378e-06
9.03219e-07
9.18703e-07
9.02192e-07
9.52324e-07
9.14592e-07
9.01314e-07
9.68753e-07
1.19403e-06
1.2487e-06
9.05011e-07
9.56292e-07
9.68551e-07
1.27647e-06
1.14369e-06
1.26092e-06
9.05958e-07
8.90057e-07
9.53758e-07
9.09647e-07
1.10059e-06
1.18865e-06
9.04943e-07
9.59264e-07
9.64646e-07
9.746e-07
9.68176e-07
9.12511e-07
9.5347e-07
1.25904e-06
1.26914e-06
9.69439e-07
9.79162e-07
9.59743e-07
1.21717e-06
1.28867e-06
1.30604e-06
9.81621e-07
9.47669e-07
1.01319e-06
1.02263e-06
1.23533e-06
1.32752e-06
9.89513e-07
9.7968e-07
1.01163e-06
9.82246e-07
9.53209e-07
1.01827e-06
9.68267e-07
1.27028e-06
1.235e-06
9.5862e-07
9.7859e-07
9.67283e-07
1.22136e-06
1.30221e-06
1.24526e-06
1.01224e-06
1.023e-06
9.95282e-07
9.97835e-07
1.32646e-06
1.2365e-06
1.00991e-06
9.79766e-07
9.92551e-07
9.75168e-07
9.73849e-07
9.96766e-07
9.86065e-07
1.23316e-06
1.20965e-06
9.70864e-07
9.73769e-07
9.81807e-07
1.23601e-06
1.24657e-06
1.25774e-06
9.93975e-07
9.89767e-07
1.0033e-06
9.9004e-07
1.23443e-06
1.23492e-06
9.9198e-07
9.75829e-07
1.00298e-06
9.98885e-07
9.91839e-07
9.90415e-07
1.0178e-06
1.21263e-06
1.2614e-06
9.88704e-07
1.00011e-06
1.01836e-06
1.28888e-06
1.26153e-06
1.26521e-06
1.00682e-06
9.96603e-07
1.01742e-06
1.02766e-06
1.2457e-06
1.28999e-06
1.00687e-06
1.01472e-06
1.019e-06
1.0476e-06
1.02553e-06
1.02873e-06
1.03746e-06
1.27919e-06
1.32043e-06
1.02692e-06
1.04886e-06
1.03903e-06
1.30061e-06
1.26963e-06
1.29487e-06
1.02182e-06
1.03757e-06
1.04274e-06
1.05424e-06
1.29976e-06
1.31306e-06
1.02325e-06
1.05184e-06
1.04325e-06
1.05394e-06
1.03893e-06
1.05537e-06
1.04418e-06
1.32388e-06
1.30662e-06
1.04033e-06
1.0547e-06
1.04442e-06
1.29168e-06
1.30479e-06
1.32482e-06
1.05108e-06
1.05716e-06
1.0704e-06
1.06375e-06
1.31575e-06
1.31329e-06
1.0512e-06
1.05283e-06
1.06924e-06
1.0529e-06
1.04651e-06
1.06245e-06
1.0552e-06
1.30674e-06
1.29383e-06
1.04653e-06
1.05188e-06
1.05414e-06
1.30008e-06
1.32808e-06
1.3246e-06
1.07367e-06
1.06553e-06
1.07729e-06
1.07035e-06
1.31489e-06
1.31345e-06
1.07233e-06
1.05498e-06
1.07642e-06
1.06826e-06
1.05982e-06
1.06947e-06
1.07301e-06
1.29663e-06
1.31338e-06
1.05828e-06
1.0675e-06
1.07215e-06
1.32021e-06
1.32611e-06
1.32702e-06
1.07816e-06
1.0725e-06
1.08316e-06
1.08416e-06
1.31641e-06
1.32737e-06
1.07755e-06
1.07506e-06
1.08347e-06
1.09136e-06
1.07726e-06
1.08496e-06
1.09068e-06
1.32129e-06
1.339e-06
1.0769e-06
1.09195e-06
1.09119e-06
1.3387e-06
1.33095e-06
1.34315e-06
1.08622e-06
1.08829e-06
1.09926e-06
1.09977e-06
1.33251e-06
1.3438e-06
1.08686e-06
1.09474e-06
1.0995e-06
1.10146e-06
1.09436e-06
1.10029e-06
1.10152e-06
1.34287e-06
1.3454e-06
1.09492e-06
1.10201e-06
1.10177e-06
1.34525e-06
1.34804e-06
1.3555e-06
1.10373e-06
1.10376e-06
1.11359e-06
1.11434e-06
1.34839e-06
1.35762e-06
1.10368e-06
1.10343e-06
1.11303e-06
1.11085e-06
1.10333e-06
1.11392e-06
1.10992e-06
1.3479e-06
1.35189e-06
1.10334e-06
1.11041e-06
1.10936e-06
1.34973e-06
1.35829e-06
1.36038e-06
1.11578e-06
1.11701e-06
1.12208e-06
1.12383e-06
1.36103e-06
1.36366e-06
1.11522e-06
1.11383e-06
1.12169e-06
1.12273e-06
1.11264e-06
1.12359e-06
1.12155e-06
1.35555e-06
1.36233e-06
1.1121e-06
1.12249e-06
1.12119e-06
1.3607e-06
1.3631e-06
1.36621e-06
1.12421e-06
1.12572e-06
1.1299e-06
1.12928e-06
1.36587e-06
1.36517e-06
1.12382e-06
1.12522e-06
1.12975e-06
1.13107e-06
1.1245e-06
1.12949e-06
1.13262e-06
1.36547e-06
1.36804e-06
1.12415e-06
1.13124e-06
1.13251e-06
1.37072e-06
1.3692e-06
1.37499e-06
1.13199e-06
1.1304e-06
1.13937e-06
1.13792e-06
1.36744e-06
1.37382e-06
1.13201e-06
1.13284e-06
1.13952e-06
1.1388e-06
1.13493e-06
1.13811e-06
1.13968e-06
1.37065e-06
1.37452e-06
1.13497e-06
1.13903e-06
1.13978e-06
1.37508e-06
1.37842e-06
1.38358e-06
1.14167e-06
1.14143e-06
1.14806e-06
1.1502e-06
1.37842e-06
1.38653e-06
1.14164e-06
1.14108e-06
1.14758e-06
1.14887e-06
1.14072e-06
1.14979e-06
1.14634e-06
1.37789e-06
1.38475e-06
1.14071e-06
1.14846e-06
1.14591e-06
1.38143e-06
1.38706e-06
1.393e-06
1.1506e-06
1.15217e-06
1.15803e-06
1.15648e-06
1.38941e-06
1.39039e-06
1.15016e-06
1.1515e-06
1.15791e-06
1.15741e-06
1.14968e-06
1.15672e-06
1.15893e-06
1.38835e-06
1.39166e-06
1.1493e-06
1.15759e-06
1.15881e-06
1.39395e-06
1.39568e-06
1.39582e-06
1.15971e-06
1.15764e-06
1.16282e-06
1.16138e-06
1.39247e-06
1.39366e-06
1.15963e-06
1.15856e-06
1.16267e-06
1.16137e-06
1.16054e-06
1.16134e-06
1.16188e-06
1.39369e-06
1.39346e-06
1.16046e-06
1.1613e-06
1.16176e-06
1.39391e-06
1.39792e-06
1.40052e-06
1.16376e-06
1.16298e-06
1.1679e-06
1.16887e-06
1.39658e-06
1.40236e-06
1.16357e-06
1.16275e-06
1.16762e-06
1.1687e-06
1.16229e-06
1.16874e-06
1.1676e-06
1.39614e-06
1.40223e-06
1.16214e-06
1.16857e-06
1.16734e-06
1.40041e-06
1.40362e-06
1.4071e-06
1.16984e-06
1.17096e-06
1.17567e-06
1.17607e-06
1.40566e-06
1.40799e-06
1.16957e-06
1.17097e-06
1.17553e-06
1.17662e-06
1.17012e-06
1.1761e-06
1.17668e-06
1.40575e-06
1.40871e-06
1.16987e-06
1.17664e-06
1.17656e-06
1.40937e-06
1.40922e-06
1.40725e-06
1.17682e-06
1.17691e-06
1.17761e-06
1.17729e-06
1.40989e-06
1.40674e-06
1.17672e-06
1.17743e-06
1.17749e-06
1.17746e-06
1.17809e-06
1.1775e-06
1.17881e-06
1.41058e-06
1.40647e-06
1.17801e-06
1.17761e-06
1.17868e-06
1.40844e-06
1.40906e-06
1.41438e-06
1.17788e-06
1.17744e-06
1.18258e-06
1.1819e-06
1.4084e-06
1.41358e-06
1.17771e-06
1.17748e-06
1.18231e-06
1.18146e-06
1.17869e-06
1.18175e-06
1.18024e-06
1.40802e-06
1.41309e-06
1.17853e-06
1.18133e-06
1.17994e-06
1.41123e-06
1.41813e-06
1.42147e-06
1.18475e-06
1.18432e-06
1.18956e-06
1.18988e-06
1.41759e-06
1.42207e-06
1.1845e-06
1.18418e-06
1.18938e-06
1.19022e-06
1.18265e-06
1.18971e-06
1.18934e-06
1.41737e-06
1.42261e-06
1.18238e-06
1.19005e-06
1.18917e-06
1.42161e-06
1.42335e-06
1.41931e-06
1.19011e-06
1.19039e-06
1.18988e-06
1.18991e-06
1.42398e-06
1.41952e-06
1.18996e-06
1.19082e-06
1.18974e-06
1.19023e-06
1.19055e-06
1.19005e-06
1.19105e-06
1.42457e-06
1.41993e-06
1.19042e-06
1.19035e-06
1.19093e-06
1.42156e-06
1.42092e-06
1.42286e-06
1.18993e-06
1.18987e-06
1.19271e-06
1.1919e-06
1.42104e-06
1.42176e-06
1.18978e-06
1.19012e-06
1.19251e-06
1.19208e-06
1.19109e-06
1.19197e-06
1.19249e-06
1.4214e-06
1.42191e-06
1.19094e-06
1.19213e-06
1.1923e-06
1.42213e-06
1.42534e-06
1.42075e-06
1.19364e-06
1.19295e-06
1.19358e-06
1.19379e-06
1.42421e-06
1.42197e-06
1.19345e-06
1.1931e-06
1.19344e-06
1.19385e-06
1.19294e-06
1.19368e-06
1.1931e-06
1.42438e-06
1.42178e-06
1.19276e-06
1.19372e-06
1.19296e-06
1.42073e-06
1.42192e-06
1.4229e-06
1.19228e-06
1.19313e-06
1.19195e-06
1.19251e-06
1.42329e-06
1.42356e-06
1.19213e-06
1.19304e-06
1.19171e-06
1.19227e-06
1.1924e-06
1.19255e-06
1.19235e-06
1.42303e-06
1.42295e-06
1.19226e-06
1.1923e-06
1.19213e-06
1.42369e-06
1.42851e-06
1.44314e-06
1.19372e-06
1.19367e-06
1.20566e-06
1.20455e-06
1.42835e-06
1.44098e-06
1.19343e-06
1.19349e-06
1.20556e-06
1.20512e-06
1.19408e-06
1.20454e-06
1.20546e-06
1.42792e-06
1.442e-06
1.1938e-06
1.20508e-06
1.20536e-06
1.44266e-06
1.44504e-06
1.42084e-06
1.20594e-06
1.20508e-06
1.19813e-06
1.19928e-06
1.44311e-06
1.42309e-06
1.20586e-06
1.20563e-06
1.19799e-06
1.19899e-06
1.20571e-06
1.19924e-06
1.19817e-06
1.44413e-06
1.42233e-06
1.20564e-06
1.19895e-06
1.19804e-06
1.42086e-06
1.42065e-06
1.41537e-06
1.19301e-06
1.19423e-06
1.18922e-06
1.18953e-06
1.42296e-06
1.41551e-06
1.19277e-06
1.19379e-06
1.18896e-06
1.18952e-06
1.19301e-06
1.18954e-06
1.18898e-06
1.42213e-06
1.41579e-06
1.19279e-06
1.18953e-06
1.18874e-06
1.41486e-06
1.42124e-06
1.4409e-06
1.19024e-06
1.19018e-06
1.20293e-06
1.20199e-06
1.42073e-06
1.43946e-06
1.19003e-06
1.19036e-06
1.20284e-06
1.20239e-06
1.18993e-06
1.20196e-06
1.20348e-06
1.42134e-06
1.43991e-06
1.18974e-06
1.20236e-06
1.20341e-06
1.44228e-06
1.44391e-06
1.43104e-06
1.20431e-06
1.20393e-06
1.20175e-06
1.2023e-06
1.44301e-06
1.43226e-06
1.20416e-06
1.20399e-06
1.20148e-06
1.20204e-06
1.20527e-06
1.20245e-06
1.20285e-06
1.44311e-06
1.43185e-06
1.20514e-06
1.20219e-06
1.2026e-06
1.43236e-06
1.43153e-06
1.4209e-06
1.19906e-06
1.19948e-06
1.19188e-06
1.19173e-06
1.43269e-06
1.42072e-06
1.19881e-06
1.1994e-06
1.19176e-06
1.19194e-06
1.19965e-06
1.19171e-06
1.19098e-06
1.43237e-06
1.42093e-06
1.19942e-06
1.19189e-06
1.19085e-06
1.41875e-06
1.4223e-06
1.42522e-06
1.19047e-06
1.19044e-06
1.19041e-06
1.19057e-06
1.42211e-06
1.42549e-06
1.19033e-06
1.19051e-06
1.1902e-06
1.19044e-06
1.18927e-06
1.19046e-06
1.18907e-06
1.42227e-06
1.42514e-06
1.18911e-06
1.19029e-06
1.18885e-06
1.42296e-06
1.43077e-06
1.44572e-06
1.19293e-06
1.19312e-06
1.20498e-06
1.20367e-06
1.43097e-06
1.44342e-06
1.19265e-06
1.19284e-06
1.20481e-06
1.20429e-06
1.19145e-06
1.20354e-06
1.20674e-06
1.43065e-06
1.44453e-06
1.19117e-06
1.2042e-06
1.20663e-06
1.44929e-06
1.44673e-06
1.39329e-06
1.20466e-06
1.20332e-06
1.1797e-06
1.18048e-06
1.44438e-06
1.39654e-06
1.20452e-06
1.20401e-06
1.17976e-06
1.18094e-06
1.20671e-06
1.18127e-06
1.18325e-06
1.44556e-06
1.39629e-06
1.20663e-06
1.18179e-06
1.18341e-06
1.3964e-06
1.39188e-06
1.40842e-06
1.17075e-06
1.17262e-06
1.17131e-06
1.17313e-06
1.39567e-06
1.41078e-06
1.17062e-06
1.17219e-06
1.17085e-06
1.17177e-06
1.17113e-06
1.1727e-06
1.16722e-06
1.39495e-06
1.40782e-06
1.17105e-06
1.1713e-06
1.16676e-06
1.39708e-06
1.4287e-06
1.47704e-06
1.18332e-06
1.18356e-06
1.21591e-06
1.21231e-06
1.42864e-06
1.46941e-06
1.18252e-06
1.18176e-06
1.21592e-06
1.21451e-06
1.17551e-06
1.21199e-06
1.21849e-06
1.42607e-06
1.47366e-06
1.17479e-06
1.21419e-06
1.21858e-06
1.48267e-06
1.47715e-06
1.39045e-06
1.2153e-06
1.2119e-06
1.17913e-06
1.18181e-06
1.46995e-06
1.39766e-06
1.21539e-06
1.21428e-06
1.17944e-06
1.18234e-06
1.21893e-06
1.18341e-06
1.18602e-06
1.47446e-06
1.39636e-06
1.21914e-06
1.18406e-06
1.18652e-06
1.39818e-06
1.3863e-06
1.38347e-06
1.16587e-06
1.16959e-06
1.15955e-06
1.16176e-06
1.39422e-06
1.3856e-06
1.1657e-06
1.16826e-06
1.15881e-06
1.15935e-06
1.16799e-06
1.16107e-06
1.15488e-06
1.39164e-06
1.3813e-06
1.16798e-06
1.15863e-06
1.15417e-06
1.37198e-06
1.39576e-06
1.42675e-06
1.16415e-06
1.16425e-06
1.18252e-06
1.17941e-06
1.39474e-06
1.42099e-06
1.16331e-06
1.16257e-06
1.18267e-06
1.18174e-06
1.15818e-06
1.17936e-06
1.18372e-06
1.39198e-06
1.4254e-06
1.15742e-06
1.18165e-06
1.18385e-06
1.43036e-06
1.42866e-06
1.41488e-06
1.18286e-06
1.18038e-06
1.17703e-06
1.17852e-06
1.42374e-06
1.41825e-06
1.1831e-06
1.18259e-06
1.17687e-06
1.17798e-06
1.18514e-06
1.17883e-06
1.17864e-06
1.42802e-06
1.41683e-06
1.18539e-06
1.17837e-06
1.17855e-06
1.41621e-06
1.41651e-06
1.41899e-06
1.1767e-06
1.17865e-06
1.17693e-06
1.17827e-06
1.42048e-06
1.41982e-06
1.17635e-06
1.1776e-06
1.17651e-06
1.17747e-06
1.1773e-06
1.17822e-06
1.17628e-06
1.41845e-06
1.41978e-06
1.17699e-06
1.17742e-06
1.17588e-06
1.41718e-06
1.42015e-06
1.40151e-06
1.17608e-06
1.17633e-06
1.16442e-06
1.1624e-06
1.42048e-06
1.3976e-06
1.17577e-06
1.17633e-06
1.16446e-06
1.16353e-06
1.17469e-06
1.16201e-06
1.16308e-06
1.42073e-06
1.39933e-06
1.17443e-06
1.16314e-06
1.16313e-06
1.39952e-06
1.4028e-06
1.3983e-06
1.16329e-06
1.16179e-06
1.15061e-06
1.15145e-06
1.39921e-06
1.40114e-06
1.16327e-06
1.16243e-06
1.15031e-06
1.15039e-06
1.16269e-06
1.15225e-06
1.15388e-06
1.40062e-06
1.39873e-06
1.16264e-06
1.15092e-06
1.15335e-06
1.40449e-06
1.37938e-06
1.1191e-06
1.12003e-06
1.38239e-06
1.11883e-06
1.11895e-06
6.69575e-07
6.69139e-07
6.70672e-07
1.12249e-06
1.38008e-06
1.12203e-06
5.35663e-07
5.35601e-07
5.35655e-07
5.35655e-07
5.34573e-07
5.35516e-07
5.33634e-07
5.35654e-07
5.34573e-07
5.35517e-07
5.35654e-07
5.33634e-07
5.35256e-07
5.35987e-07
5.35987e-07
1.10717e-06
3.88068e-06
9.33918e-07
4.60585e-06
1.26086e-05
1.66015e-05
1.10712e-06
3.88121e-06
9.33932e-07
4.60638e-06
4.95567e-07
4.95567e-07
4.95567e-07
4.57231e-07
4.57231e-07
4.57232e-07
4.57232e-07
5.43136e-07
1.22024e-06
4.95565e-07
4.85523e-07
5.25345e-07
1.20948e-06
4.82301e-07
1.26098e-05
1.6603e-05
5.43156e-07
4.95565e-07
1.22026e-06
4.85523e-07
5.25333e-07
4.82301e-07
1.2095e-06
2.52183e-06
2.52237e-06
4.84192e-07
2.37257e-06
2.37281e-06
1.43088e-06
5.59293e-06
1.32969e-06
6.13609e-06
2.12849e-05
2.31113e-05
1.43097e-06
5.59371e-06
1.3298e-06
6.1369e-06
4.45573e-07
4.45573e-07
4.45573e-07
4.13542e-07
4.13542e-07