/*--------------------------------*- C++ -*----------------------------------*\
| =========                 |                                                 |
| \\      /  F ield         | OpenFOAM: The Open Source CFD Toolbox           |
|  \\    /   O peration     | Version:  v2012                                 |
|   \\  /    A nd           | Website:  www.openfoam.com                      |
|    \\/     M anipulation  |                                                 |
\*---------------------------------------------------------------------------*/
FoamFile
{
    version     2.0;
    format      ascii;
    class       volScalarField;
    location    "1575";
    object      k;
}
// * * * * * * * * * * * * * * * * * * * * * * * * * * * * * * * * * * * * * //

dimensions      [0 2 -2 0 0 0 0];


internalField   nonuniform List<scalar> 
171728
(
1.65771e-07
2.55319e-07
3.39796e-07
3.65191e-07
1.63769e-07
2.43003e-07
3.22604e-07
3.41604e-07
1.58153e-07
2.3144e-07
3.0575e-07
3.18822e-07
1.53341e-07
2.2158e-07
2.90932e-07
2.99523e-07
1.46875e-07
2.13079e-07
2.7753e-07
2.83122e-07
1.40382e-07
2.05474e-07
2.65197e-07
2.69074e-07
1.37298e-07
1.97923e-07
2.53785e-07
2.56862e-07
1.34449e-07
1.90355e-07
2.43111e-07
2.45893e-07
1.31395e-07
1.83746e-07
2.33622e-07
2.35482e-07
1.28513e-07
1.78024e-07
2.2649e-07
2.24836e-07
1.25708e-07
1.72982e-07
2.20341e-07
2.15077e-07
1.22968e-07
1.68924e-07
2.14344e-07
2.07051e-07
1.20322e-07
1.66351e-07
2.09526e-07
2.00269e-07
1.17726e-07
1.65188e-07
2.06518e-07
1.95858e-07
1.1533e-07
1.65724e-07
2.05904e-07
1.95962e-07
1.12916e-07
1.69293e-07
2.09033e-07
2.0168e-07
1.10461e-07
1.78433e-07
2.17934e-07
2.14978e-07
1.08094e-07
1.96454e-07
2.35084e-07
2.42569e-07
1.05738e-07
2.27243e-07
2.62845e-07
2.92433e-07
1.03648e-07
2.65514e-07
3.14197e-07
3.72388e-07
1.01866e-07
3.41029e-07
3.89341e-07
5.05501e-07
1.00482e-07
4.89998e-07
4.98381e-07
8.1143e-07
1.00027e-07
6.10025e-07
6.69309e-07
8.69143e-07
1.00492e-07
8.39855e-07
8.96626e-07
2.25567e-06
1.02091e-07
1.18798e-06
1.21291e-06
2.13235e-06
1.0596e-07
1.57658e-06
1.64067e-06
4.51903e-06
1.11354e-07
2.22926e-06
2.13538e-06
4.81448e-06
1.22408e-07
2.60334e-06
2.80011e-06
8.35449e-06
1.36204e-07
3.69407e-06
3.4898e-06
9.25659e-06
1.61827e-07
4.12657e-06
4.43348e-06
1.25719e-05
1.92998e-07
5.61469e-06
5.37748e-06
1.49e-05
2.50588e-07
6.3501e-06
6.57271e-06
1.75253e-05
3.08454e-07
7.70328e-06
7.70129e-06
1.91567e-05
3.95209e-07
9.29811e-06
9.12792e-06
2.16975e-05
5.30067e-07
1.03237e-05
1.06533e-05
2.34768e-05
6.38048e-07
1.23713e-05
1.20762e-05
2.4847e-05
8.79305e-07
1.35779e-05
1.39014e-05
2.65867e-05
1.09e-06
1.56107e-05
1.55857e-05
2.799e-05
1.45273e-06
1.72695e-05
1.67439e-05
2.91862e-05
1.69224e-06
1.85409e-05
1.93916e-05
3.05652e-05
2.33803e-06
2.1463e-05
2.0959e-05
3.1628e-05
2.77902e-06
2.25373e-05
2.2503e-05
3.28991e-05
3.26376e-06
2.4376e-05
2.44547e-05
3.39436e-05
4.28304e-06
2.58426e-05
2.6183e-05
3.50995e-05
4.68245e-06
2.82962e-05
2.80949e-05
3.61234e-05
6.3233e-06
2.9853e-05
2.96851e-05
3.74644e-05
6.79935e-06
3.05476e-05
3.104e-05
3.80025e-05
8.21529e-06
3.32211e-05
3.30587e-05
3.95953e-05
9.11569e-06
3.35282e-05
3.34495e-05
4.04762e-05
1.05267e-05
3.61376e-05
3.62222e-05
4.07651e-05
1.23218e-05
3.66939e-05
3.64508e-05
4.15626e-05
1.34596e-05
3.80031e-05
3.82818e-05
4.56773e-05
1.49623e-05
3.98693e-05
3.98702e-05
4.33542e-05
1.70087e-05
3.98201e-05
3.98244e-05
4.30159e-05
1.73393e-05
4.11155e-05
4.1056e-05
4.50661e-05
2.02032e-05
4.30069e-05
4.30767e-05
4.79831e-05
2.2052e-05
4.33864e-05
4.34043e-05
4.86952e-05
2.23438e-05
4.47423e-05
4.47488e-05
4.79293e-05
2.49972e-05
4.51387e-05
4.51986e-05
4.68914e-05
2.54987e-05
4.52485e-05
4.5142e-05
4.78952e-05
2.67251e-05
4.74054e-05
4.73616e-05
5.1197e-05
2.90251e-05
4.83392e-05
4.85285e-05
5.17567e-05
3.01698e-05
4.86547e-05
4.8666e-05
5.07188e-05
3.12559e-05
4.84617e-05
4.92001e-05
5.12721e-05
3.14723e-05
4.98027e-05
4.9359e-05
5.21909e-05
3.3416e-05
5.11878e-05
5.05783e-05
5.21548e-05
3.52962e-05
5.13198e-05
5.15866e-05
5.36795e-05
3.59405e-05
5.13384e-05
5.17012e-05
5.43446e-05
3.60118e-05
5.24792e-05
5.26182e-05
5.36915e-05
3.70616e-05
5.29179e-05
5.28173e-05
5.34038e-05
3.87922e-05
5.30405e-05
5.27964e-05
5.54779e-05
3.94014e-05
5.40122e-05
5.40553e-05
5.62595e-05
4.00586e-05
5.40382e-05
5.44168e-05
5.54022e-05
4.12319e-05
5.4368e-05
5.43615e-05
5.51687e-05
4.19642e-05
5.52794e-05
5.50127e-05
5.61611e-05
4.22899e-05
5.55249e-05
5.54583e-05
5.693e-05
4.22595e-05
5.52126e-05
5.49852e-05
5.66686e-05
4.35545e-05
5.63947e-05
5.62662e-05
5.72521e-05
4.51416e-05
5.66333e-05
5.76271e-05
5.8294e-05
4.42581e-05
5.49372e-05
5.50871e-05
5.62191e-05
4.37824e-05
5.64295e-05
5.44541e-05
5.63301e-05
4.61924e-05
5.87325e-05
5.8357e-05
5.9342e-05
4.73799e-05
5.74803e-05
5.94343e-05
5.94587e-05
4.56435e-05
5.47828e-05
5.60516e-05
5.64254e-05
4.3927e-05
5.494e-05
5.39637e-05
5.57122e-05
4.57406e-05
5.88333e-05
5.71235e-05
5.91046e-05
4.9237e-05
5.98325e-05
6.01229e-05
6.04098e-05
4.84529e-05
5.6861e-05
5.81975e-05
5.83935e-05
4.50485e-05
5.49671e-05
5.51689e-05
5.66361e-05
4.48692e-05
5.61639e-05
5.54569e-05
5.66102e-05
4.73152e-05
5.77353e-05
5.72486e-05
5.8131e-05
4.78558e-05
5.80132e-05
5.7786e-05
5.95053e-05
4.73428e-05
5.71176e-05
5.77645e-05
5.89695e-05
4.62673e-05
5.54195e-05
5.61732e-05
5.65196e-05
4.53096e-05
5.43026e-05
5.44285e-05
5.62885e-05
3.53182e-07
3.94748e-07
3.051e-07
3.5125e-07
2.9216e-07
3.48255e-07
1.62004e-07
1.5077e-07
1.69819e-07
1.60968e-07
2.87621e-07
2.92563e-07
3.59595e-07
3.40586e-07
3.28333e-07
3.66235e-07
3.52143e-07
3.40649e-07
4.98443e-07
2.79006e-07
4.97608e-07
2.73285e-07
3.50357e-07
3.30319e-07
2.58961e-07
4.88139e-07
2.49998e-07
4.86638e-07
2.56052e-07
2.4617e-07
2.46284e-07
3.56793e-07
3.43848e-07
2.89084e-07
3.27159e-07
2.82592e-07
3.42972e-07
3.3836e-07
3.30569e-07
4.97166e-07
2.70977e-07
4.91966e-07
2.64606e-07
3.29186e-07
3.10197e-07
2.46993e-07
4.85656e-07
2.38582e-07
4.83097e-07
2.42929e-07
2.34141e-07
2.3357e-07
3.41066e-07
3.32818e-07
2.79688e-07
3.09711e-07
2.71062e-07
3.1998e-07
3.28451e-07
3.22481e-07
4.90708e-07
2.6259e-07
4.88968e-07
2.56464e-07
3.09149e-07
2.92609e-07
2.36021e-07
4.82323e-07
2.29073e-07
4.80869e-07
2.30726e-07
2.23901e-07
2.22622e-07
3.30348e-07
3.23523e-07
2.68368e-07
2.94548e-07
2.60572e-07
3.00481e-07
3.20994e-07
3.05103e-07
4.8471e-07
2.54359e-07
4.13018e-07
2.4792e-07
2.91683e-07
2.77172e-07
2.26983e-07
4.80145e-07
2.20888e-07
4.80078e-07
2.20042e-07
2.15046e-07
2.12821e-07
3.21293e-07
3.1482e-07
2.57872e-07
2.80769e-07
2.49768e-07
2.83936e-07
3.02453e-07
2.74706e-07
3.80586e-07
2.45798e-07
2.88956e-07
2.39282e-07
2.76343e-07
2.6346e-07
2.18904e-07
4.7991e-07
2.12802e-07
4.78214e-07
2.1067e-07
2.07332e-07
2.0469e-07
3.12609e-07
3.05751e-07
2.47092e-07
2.68169e-07
2.39106e-07
2.69762e-07
2.72794e-07
2.55211e-07
2.63998e-07
2.37273e-07
2.12846e-07
2.3133e-07
2.62739e-07
2.50855e-07
2.10595e-07
4.77911e-07
2.03673e-07
4.69698e-07
2.02861e-07
1.99787e-07
1.97728e-07
3.03445e-07
2.95409e-07
2.36679e-07
2.56552e-07
2.29895e-07
2.57414e-07
2.54429e-07
2.4177e-07
2.02663e-07
2.29366e-07
1.86082e-07
2.23748e-07
2.50229e-07
2.39373e-07
2.01496e-07
4.63446e-07
1.95309e-07
4.35968e-07
1.96127e-07
1.92209e-07
1.91254e-07
2.92537e-07
2.79137e-07
2.27832e-07
2.45793e-07
2.21964e-07
2.46313e-07
2.41328e-07
2.31511e-07
1.83269e-07
2.21958e-07
1.77517e-07
2.16696e-07
2.3888e-07
2.29287e-07
1.93494e-07
4.21319e-07
1.88748e-07
3.69792e-07
1.89655e-07
1.85205e-07
1.8494e-07
2.75498e-07
2.56596e-07
2.19832e-07
2.35729e-07
2.13225e-07
2.35841e-07
2.31282e-07
2.22143e-07
1.76168e-07
2.14964e-07
1.72957e-07
2.09694e-07
2.2888e-07
2.19899e-07
1.87447e-07
3.55744e-07
1.83749e-07
3.32065e-07
1.83403e-07
1.79376e-07
1.79347e-07
2.54331e-07
2.45678e-07
2.11197e-07
2.28124e-07
2.05189e-07
2.25191e-07
2.22009e-07
2.1296e-07
1.72362e-07
2.0801e-07
1.71292e-07
2.03168e-07
2.19541e-07
2.10966e-07
1.82624e-07
3.26942e-07
1.79469e-07
3.02835e-07
1.78238e-07
1.74068e-07
1.755e-07
2.4534e-07
2.39233e-07
2.03302e-07
2.21894e-07
1.98923e-07
2.15315e-07
2.1287e-07
2.0475e-07
1.71165e-07
2.01625e-07
1.70972e-07
1.97833e-07
2.10702e-07
2.03228e-07
1.78414e-07
2.90959e-07
1.75519e-07
2.51847e-07
1.74782e-07
1.69782e-07
1.73395e-07
2.37926e-07
2.22967e-07
1.97972e-07
2.15804e-07
1.95219e-07
2.07164e-07
2.04753e-07
1.98024e-07
1.70997e-07
1.96785e-07
1.71569e-07
1.94092e-07
2.03112e-07
1.9675e-07
1.74531e-07
2.39599e-07
1.72135e-07
2.09366e-07
1.73217e-07
1.66915e-07
1.73419e-07
2.21957e-07
2.09571e-07
1.94053e-07
2.10652e-07
1.89897e-07
2.00221e-07
1.98154e-07
1.93149e-07
1.71839e-07
1.93191e-07
1.73264e-07
1.91019e-07
1.9679e-07
1.91636e-07
1.71511e-07
2.02255e-07
1.70526e-07
1.90505e-07
1.73716e-07
1.65447e-07
1.75223e-07
2.08888e-07
2.01456e-07
1.88502e-07
2.06997e-07
1.87221e-07
1.95534e-07
1.93489e-07
1.90623e-07
1.73895e-07
1.90575e-07
1.76855e-07
1.90954e-07
1.91887e-07
1.88614e-07
1.70393e-07
1.89095e-07
1.70786e-07
1.88675e-07
1.76041e-07
1.65415e-07
1.79393e-07
2.01638e-07
1.99186e-07
1.87336e-07
2.05763e-07
1.88766e-07
1.94857e-07
1.91459e-07
1.91413e-07
1.77785e-07
1.91604e-07
1.82551e-07
1.95379e-07
1.89369e-07
1.89036e-07
1.71181e-07
1.89002e-07
1.73768e-07
1.91218e-07
1.80827e-07
1.67952e-07
1.86499e-07
1.99853e-07
2.00132e-07
1.90083e-07
2.07989e-07
1.99959e-07
1.99301e-07
1.93064e-07
1.97126e-07
1.84619e-07
1.97486e-07
1.92517e-07
2.04267e-07
1.9068e-07
1.94267e-07
1.75101e-07
1.92533e-07
1.81218e-07
1.98543e-07
1.88521e-07
1.75373e-07
1.97794e-07
2.01675e-07
2.05627e-07
2.03856e-07
2.15122e-07
2.22257e-07
2.1077e-07
2.00526e-07
2.11653e-07
1.95576e-07
2.07686e-07
2.09752e-07
2.20145e-07
1.98097e-07
2.08614e-07
1.83588e-07
2.01085e-07
1.9531e-07
2.11088e-07
2.00971e-07
1.90822e-07
2.17013e-07
2.08495e-07
2.19555e-07
2.29017e-07
2.29473e-07
2.66775e-07
2.34654e-07
2.18245e-07
2.42081e-07
2.15927e-07
2.25159e-07
2.39076e-07
2.4428e-07
2.14486e-07
2.38541e-07
2.00882e-07
2.16286e-07
2.21032e-07
2.34471e-07
2.22118e-07
2.14903e-07
2.45e-07
2.25384e-07
2.48141e-07
2.82932e-07
2.54987e-07
3.45219e-07
2.79791e-07
2.54056e-07
3.02661e-07
2.47636e-07
2.57285e-07
2.84965e-07
2.85387e-07
2.49932e-07
3.00362e-07
2.28985e-07
2.41607e-07
2.64117e-07
2.79636e-07
2.54267e-07
2.54435e-07
2.86869e-07
2.57869e-07
3.09914e-07
3.67577e-07
2.99871e-07
4.37646e-07
3.52321e-07
3.2422e-07
4.11333e-07
2.98396e-07
2.97273e-07
3.55977e-07
3.68075e-07
3.11718e-07
4.4024e-07
2.76382e-07
2.93339e-07
3.31873e-07
3.44254e-07
2.98854e-07
3.318e-07
3.61918e-07
3.32954e-07
4.07631e-07
4.59334e-07
3.62512e-07
5.24587e-07
4.7056e-07
4.51341e-07
6.08991e-07
3.78832e-07
3.77168e-07
4.60732e-07
4.81376e-07
4.65357e-07
6.20571e-07
3.54057e-07
3.70529e-07
4.31681e-07
4.45787e-07
3.7186e-07
4.46392e-07
4.81e-07
4.47196e-07
6.19963e-07
5.35966e-07
4.66431e-07
6.49571e-07
6.99794e-07
6.71848e-07
9.50077e-07
4.99788e-07
5.29024e-07
6.04909e-07
5.82149e-07
7.54244e-07
8.86706e-07
4.69918e-07
4.79006e-07
5.7293e-07
5.9669e-07
5.26596e-07
5.46079e-07
5.64888e-07
6.66725e-07
9.59868e-07
6.81727e-07
6.14894e-07
6.99055e-07
8.51236e-07
1.02377e-06
1.5935e-06
6.50471e-07
6.40607e-07
8.52461e-07
8.54119e-07
9.21645e-07
1.7251e-06
6.1832e-07
6.49919e-07
8.17441e-07
8.12659e-07
5.939e-07
8.08328e-07
9.27027e-07
1.05168e-06
1.53884e-06
7.33828e-07
8.25725e-07
1.06697e-06
2.13211e-06
1.75889e-06
2.29478e-06
9.16303e-07
8.7802e-07
1.12321e-06
1.1736e-06
1.77945e-06
2.48632e-06
8.74779e-07
8.79863e-07
1.07546e-06
1.13234e-06
9.94851e-07
1.12537e-06
1.0525e-06
1.67026e-06
2.44768e-06
1.11058e-06
1.14562e-06
1.17552e-06
2.10923e-06
2.49576e-06
3.64667e-06
1.22174e-06
1.25055e-06
1.52993e-06
1.48673e-06
2.88555e-06
3.29713e-06
1.17616e-06
1.2094e-06
1.48465e-06
1.48065e-06
1.08799e-06
1.47152e-06
1.61696e-06
2.66155e-06
3.46552e-06
1.22096e-06
1.50322e-06
1.79703e-06
4.10577e-06
3.91524e-06
5.20657e-06
1.6433e-06
1.5777e-06
2.04388e-06
2.04784e-06
3.55068e-06
5.32033e-06
1.59626e-06
1.61783e-06
1.97653e-06
2.01662e-06
1.70783e-06
2.01701e-06
1.8628e-06
3.76363e-06
5.33766e-06
1.89905e-06
2.01993e-06
2.00704e-06
4.69052e-06
5.5581e-06
7.12444e-06
2.16811e-06
2.2671e-06
2.64542e-06
2.55808e-06
5.58378e-06
7.42808e-06
2.09672e-06
2.13098e-06
2.58643e-06
2.59021e-06
2.09574e-06
2.52221e-06
2.72476e-06
5.66357e-06
6.99849e-06
2.19499e-06
2.61333e-06
2.93447e-06
8.15268e-06
7.56211e-06
9.49347e-06
2.84054e-06
2.63492e-06
3.34595e-06
3.53548e-06
7.57466e-06
9.79129e-06
2.77134e-06
2.77883e-06
3.25296e-06
3.32441e-06
2.81531e-06
3.50427e-06
3.21501e-06
7.43785e-06
9.51384e-06
2.97681e-06
3.30152e-06
3.11782e-06
8.71692e-06
9.93216e-06
1.19508e-05
3.53339e-06
3.73057e-06
4.29523e-06
3.94807e-06
1.07175e-05
1.16066e-05
3.45006e-06
3.49758e-06
4.16871e-06
4.20361e-06
3.42096e-06
3.92115e-06
4.20238e-06
9.97139e-06
1.19345e-05
3.34776e-06
4.20144e-06
4.37914e-06
1.20186e-05
1.2496e-05
1.43662e-05
4.50005e-06
4.14449e-06
5.15065e-06
5.3142e-06
1.1728e-05
1.48395e-05
4.39926e-06
4.44109e-06
5.03997e-06
5.12173e-06
4.48587e-06
5.3074e-06
5.07234e-06
1.24545e-05
1.43769e-05
4.64572e-06
5.13574e-06
5.2723e-06
1.45262e-05
1.48001e-05
1.68633e-05
5.44616e-06
5.63708e-06
6.35583e-06
6.19746e-06
1.56665e-05
1.68648e-05
5.27568e-06
5.37477e-06
6.23002e-06
6.25878e-06
5.30822e-06
6.18566e-06
6.40061e-06
1.48329e-05
1.6807e-05
5.49893e-06
6.23469e-06
6.32288e-06
1.69244e-05
1.74329e-05
1.90534e-05
6.63829e-06
6.34639e-06
7.55312e-06
7.23223e-06
1.7074e-05
1.85512e-05
6.57367e-06
6.59084e-06
7.39877e-06
7.39538e-06
6.7065e-06
7.18338e-06
7.25821e-06
1.73296e-05
1.90507e-05
6.60508e-06
7.40538e-06
7.27553e-06
1.87975e-05
1.94391e-05
2.09938e-05
7.88419e-06
7.74615e-06
8.77625e-06
9.09233e-06
1.92131e-05
2.15726e-05
7.64031e-06
7.70441e-06
8.62081e-06
8.8387e-06
7.55018e-06
9.09155e-06
8.90848e-06
1.94748e-05
2.10618e-05
7.55785e-06
8.80679e-06
8.81298e-06
2.11575e-05
2.14989e-05
2.31753e-05
9.18087e-06
9.29004e-06
1.04592e-05
9.92828e-06
2.19174e-05
2.26925e-05
9.07168e-06
9.14432e-06
1.03426e-05
1.01999e-05
9.37475e-06
9.8988e-06
1.03273e-05
2.15189e-05
2.30501e-05
9.28174e-06
1.01802e-05
1.02676e-05
2.3141e-05
2.35282e-05
2.44254e-05
1.07875e-05
1.0409e-05
1.16969e-05
1.19502e-05
2.30711e-05
2.4785e-05
1.06821e-05
1.06858e-05
1.14812e-05
1.19696e-05
1.06525e-05
1.19371e-05
1.16301e-05
2.34782e-05
2.46318e-05
1.05963e-05
1.18629e-05
1.16217e-05
2.44818e-05
2.47836e-05
2.61913e-05
1.20051e-05
1.22813e-05
1.33349e-05
1.33522e-05
2.52107e-05
2.61276e-05
1.18633e-05
1.21963e-05
1.33457e-05
1.31206e-05
1.19966e-05
1.32203e-05
1.33331e-05
2.49738e-05
2.62651e-05
1.20143e-05
1.32091e-05
1.33064e-05
2.61981e-05
2.66051e-05
2.76654e-05
1.38898e-05
1.37529e-05
1.5026e-05
1.49508e-05
2.64431e-05
2.76757e-05
1.38499e-05
1.37669e-05
1.50064e-05
1.55202e-05
1.37373e-05
1.5009e-05
1.52045e-05
2.66754e-05
2.76109e-05
1.3681e-05
1.54409e-05
1.50928e-05
2.76523e-05
2.79675e-05
2.89185e-05
1.54586e-05
1.55374e-05
1.70522e-05
1.72467e-05
2.80799e-05
2.89717e-05
1.54259e-05
1.57322e-05
1.67962e-05
1.60322e-05
1.57302e-05
1.70953e-05
1.67015e-05
2.7832e-05
2.85428e-05
1.56044e-05
1.60187e-05
1.66275e-05
2.8899e-05
2.92141e-05
3.00155e-05
1.73749e-05
1.7478e-05
1.82175e-05
1.78623e-05
2.91679e-05
2.97922e-05
1.71749e-05
1.63949e-05
1.82428e-05
1.93977e-05
1.70899e-05
1.78774e-05
1.87436e-05
2.89236e-05
3.06542e-05
1.70576e-05
1.91053e-05
1.87085e-05
3.02472e-05
3.03408e-05
3.15885e-05
1.88182e-05
1.83089e-05
2.0643e-05
2.10457e-05
3.01675e-05
3.1885e-05
1.88788e-05
2.02792e-05
2.07593e-05
2.17413e-05
1.91504e-05
2.09042e-05
2.02691e-05
3.09759e-05
3.16629e-05
1.91004e-05
2.04001e-05
2.02817e-05
3.13463e-05
3.18429e-05
3.24954e-05
2.09637e-05
2.18843e-05
2.22893e-05
2.29774e-05
3.22274e-05
3.27158e-05
2.10156e-05
2.18732e-05
2.208e-05
2.18952e-05
2.08382e-05
2.23226e-05
2.24546e-05
3.18883e-05
3.23626e-05
2.08004e-05
2.23193e-05
2.2337e-05
3.26577e-05
3.27692e-05
3.36698e-05
2.28415e-05
2.30365e-05
2.38388e-05
2.36132e-05
3.28564e-05
3.3476e-05
2.26118e-05
2.19098e-05
2.37927e-05
2.35473e-05
2.27247e-05
2.37862e-05
2.38319e-05
3.25326e-05
3.35237e-05
2.26859e-05
2.366e-05
2.38423e-05
3.36307e-05
3.39029e-05
3.48301e-05
2.42036e-05
2.41408e-05
2.59563e-05
2.54821e-05
3.37783e-05
3.46457e-05
2.42247e-05
2.46351e-05
2.60229e-05
2.65447e-05
2.45048e-05
2.55981e-05
2.60683e-05
3.39622e-05
3.50715e-05
2.44628e-05
2.60526e-05
2.60467e-05
3.4929e-05
3.5118e-05
3.57814e-05
2.63829e-05
2.58829e-05
2.71233e-05
2.77782e-05
3.48797e-05
3.6117e-05
2.64291e-05
2.66901e-05
2.70698e-05
2.73558e-05
2.62236e-05
2.74885e-05
2.71964e-05
3.52144e-05
3.58067e-05
2.62228e-05
2.72643e-05
2.71029e-05
3.57593e-05
3.60275e-05
3.74317e-05
2.76885e-05
2.8542e-05
2.98841e-05
2.97993e-05
3.65053e-05
3.72845e-05
2.76208e-05
2.81733e-05
2.98365e-05
2.97115e-05
2.7982e-05
2.97547e-05
2.9808e-05
3.61864e-05
3.72358e-05
2.78643e-05
2.95854e-05
2.98079e-05
3.73418e-05
3.76583e-05
3.78081e-05
3.02707e-05
2.98737e-05
3.05513e-05
3.01625e-05
3.73634e-05
3.76159e-05
3.02398e-05
2.98161e-05
3.05381e-05
3.03307e-05
2.99849e-05
3.00914e-05
3.02584e-05
3.73342e-05
3.77568e-05
3.00225e-05
3.02338e-05
3.02876e-05
3.77312e-05
3.79154e-05
3.94114e-05
3.06828e-05
3.07528e-05
3.2719e-05
3.28163e-05
3.79283e-05
3.94589e-05
3.0671e-05
3.11043e-05
3.26705e-05
3.27208e-05
3.06699e-05
3.28843e-05
3.29051e-05
3.81452e-05
3.93945e-05
3.06373e-05
3.28874e-05
3.27922e-05
3.94388e-05
3.96688e-05
3.9804e-05
3.31476e-05
3.304e-05
3.34733e-05
3.3253e-05
3.96002e-05
3.96534e-05
3.31133e-05
3.28895e-05
3.34747e-05
3.3289e-05
3.32388e-05
3.34323e-05
3.37082e-05
3.94867e-05
3.96386e-05
3.30744e-05
3.32196e-05
3.36982e-05
4.01531e-05
3.98966e-05
4.12345e-05
3.36307e-05
3.34795e-05
3.52819e-05
3.5603e-05
3.97866e-05
4.1493e-05
3.36688e-05
3.37201e-05
3.52573e-05
3.57055e-05
3.42051e-05
3.55138e-05
3.51638e-05
3.98841e-05
4.15618e-05
3.43265e-05
3.57801e-05
3.52319e-05
4.08507e-05
4.15585e-05
4.22241e-05
3.57961e-05
3.61891e-05
3.68499e-05
3.67414e-05
4.18303e-05
4.20359e-05
3.57441e-05
3.61744e-05
3.67797e-05
3.65313e-05
3.51675e-05
3.66829e-05
3.53721e-05
4.17938e-05
4.17943e-05
3.52235e-05
3.64515e-05
3.53589e-05
4.06022e-05
4.23413e-05
4.27725e-05
3.70857e-05
3.67433e-05
3.75614e-05
3.71025e-05
4.20501e-05
4.26504e-05
3.6951e-05
3.65352e-05
3.74358e-05
3.72626e-05
3.6177e-05
3.71321e-05
3.96699e-05
4.18129e-05
4.28643e-05
3.60458e-05
3.72437e-05
3.96093e-05
4.56108e-05
4.29689e-05
4.40653e-05
3.78141e-05
3.79255e-05
3.92899e-05
3.97499e-05
4.31408e-05
4.44185e-05
3.77857e-05
3.82124e-05
3.93895e-05
3.98172e-05
3.98984e-05
3.97746e-05
3.96002e-05
4.34255e-05
4.44549e-05
3.98456e-05
3.98113e-05
3.9533e-05
4.35174e-05
4.431e-05
4.45158e-05
3.97268e-05
3.98674e-05
4.00763e-05
3.97726e-05
4.44552e-05
4.40815e-05
3.98055e-05
3.9913e-05
4.01134e-05
3.98385e-05
3.92222e-05
3.98222e-05
3.88082e-05
4.44709e-05
4.41157e-05
3.91815e-05
3.9825e-05
3.88412e-05
4.28677e-05
4.45324e-05
4.49032e-05
4.00595e-05
3.97525e-05
4.02729e-05
4.04759e-05
4.41059e-05
4.52955e-05
4.00905e-05
3.98216e-05
4.02554e-05
4.0358e-05
3.88061e-05
4.03306e-05
3.98144e-05
4.41547e-05
4.51334e-05
3.88403e-05
4.02982e-05
3.97223e-05
4.45294e-05
4.53116e-05
4.69418e-05
4.09278e-05
4.13714e-05
4.29945e-05
4.28395e-05
4.57821e-05
4.67132e-05
4.08188e-05
4.10863e-05
4.29018e-05
4.28137e-05
4.07172e-05
4.27638e-05
4.32515e-05
4.55561e-05
4.67967e-05
4.05305e-05
4.2785e-05
4.32004e-05
4.75301e-05
4.70749e-05
4.69203e-05
4.32592e-05
4.29652e-05
4.3349e-05
4.30347e-05
4.67622e-05
4.673e-05
4.323e-05
4.30906e-05
4.34126e-05
4.32728e-05
4.38902e-05
4.32666e-05
4.47279e-05
4.69056e-05
4.6862e-05
4.39523e-05
4.33511e-05
4.50099e-05
4.86864e-05
4.69349e-05
4.77664e-05
4.33348e-05
4.30914e-05
4.38226e-05
4.43892e-05
4.68634e-05
4.8135e-05
4.3409e-05
4.32917e-05
4.38933e-05
4.41712e-05
4.47487e-05
4.44137e-05
4.45365e-05
4.69009e-05
4.79585e-05
4.50467e-05
4.43434e-05
4.47681e-05
4.79753e-05
4.8116e-05
4.85096e-05
4.44796e-05
4.48293e-05
4.54382e-05
4.52702e-05
4.83341e-05
4.82694e-05
4.45132e-05
4.47149e-05
4.53495e-05
4.5332e-05
4.44303e-05
4.51368e-05
4.41289e-05
4.82405e-05
4.83688e-05
4.45656e-05
4.52027e-05
4.39371e-05
4.69246e-05
4.85233e-05
4.86446e-05
4.54926e-05
4.52693e-05
4.55243e-05
4.52551e-05
4.82687e-05
4.83465e-05
4.53794e-05
4.53295e-05
4.54125e-05
4.52595e-05
4.4067e-05
4.51443e-05
4.4256e-05
4.83623e-05
4.82494e-05
4.37913e-05
4.51104e-05
4.38057e-05
4.73735e-05
4.88482e-05
4.96655e-05
4.55957e-05
4.53357e-05
4.64963e-05
4.68414e-05
4.85884e-05
5.00758e-05
4.55543e-05
4.53173e-05
4.66973e-05
4.69197e-05
4.48501e-05
4.69441e-05
4.74208e-05
4.84546e-05
5.01697e-05
4.41837e-05
4.67124e-05
4.72397e-05
5.07672e-05
4.97578e-05
5.05083e-05
4.6802e-05
4.72483e-05
4.78367e-05
4.79191e-05
5.02889e-05
5.07072e-05
4.69282e-05
4.74251e-05
4.77185e-05
4.81074e-05
4.80772e-05
4.81511e-05
4.89024e-05
5.04456e-05
5.07947e-05
4.80384e-05
4.84092e-05
4.91532e-05
5.17721e-05
5.07894e-05
5.15392e-05
4.81981e-05
4.8138e-05
4.89466e-05
4.88202e-05
5.08278e-05
5.12326e-05
4.80193e-05
4.81538e-05
4.88516e-05
4.8242e-05
4.89105e-05
4.86565e-05
4.84354e-05
5.08183e-05
5.0914e-05
4.91925e-05
4.86308e-05
4.88419e-05
5.0761e-05
5.15836e-05
5.10858e-05
4.89939e-05
4.88876e-05
4.88561e-05
4.88023e-05
5.12618e-05
5.08958e-05
4.9019e-05
4.83931e-05
4.90798e-05
4.93015e-05
4.82807e-05
4.84766e-05
4.8331e-05
5.10493e-05
5.16388e-05
4.86265e-05
4.90725e-05
4.8523e-05
5.09832e-05
5.10414e-05
5.10038e-05
4.87216e-05
4.87427e-05
4.86863e-05
4.88405e-05
5.08976e-05
5.15834e-05
4.90085e-05
4.94375e-05
4.88987e-05
4.95009e-05
4.86959e-05
4.91706e-05
4.97989e-05
5.16996e-05
5.15945e-05
4.86619e-05
4.93249e-05
4.97268e-05
5.21558e-05
5.13048e-05
5.34533e-05
4.89059e-05
4.91974e-05
5.10919e-05
5.0793e-05
5.1945e-05
5.31617e-05
4.89768e-05
4.95026e-05
5.06485e-05
4.99754e-05
4.99265e-05
5.10086e-05
5.01125e-05
5.16156e-05
5.252e-05
4.98293e-05
5.01446e-05
4.98942e-05
5.20732e-05
5.37447e-05
5.38772e-05
5.15459e-05
5.11571e-05
5.19438e-05
5.17275e-05
5.33069e-05
5.34834e-05
5.11669e-05
5.0447e-05
5.1786e-05
5.13993e-05
5.0274e-05
5.13265e-05
5.11192e-05
5.28187e-05
5.34199e-05
4.99825e-05
5.14759e-05
5.13497e-05
5.34062e-05
5.38311e-05
5.3086e-05
5.19338e-05
5.17551e-05
5.14849e-05
5.16018e-05
5.34919e-05
5.31887e-05
5.17942e-05
5.15238e-05
5.1609e-05
5.1626e-05
5.14617e-05
5.12905e-05
5.22309e-05
5.34403e-05
5.33557e-05
5.17726e-05
5.16653e-05
5.23928e-05
5.43125e-05
5.30798e-05
5.34411e-05
5.13479e-05
5.14895e-05
5.1302e-05
5.14825e-05
5.3195e-05
5.37961e-05
5.15569e-05
5.16748e-05
5.16264e-05
5.23422e-05
5.23125e-05
5.21882e-05
5.22282e-05
5.34294e-05
5.4398e-05
5.24211e-05
5.23638e-05
5.22013e-05
5.37777e-05
5.36719e-05
5.462e-05
5.14319e-05
5.16572e-05
5.26839e-05
5.28533e-05
5.40333e-05
5.46985e-05
5.18811e-05
5.26101e-05
5.28648e-05
5.30132e-05
5.20484e-05
5.29006e-05
5.18667e-05
5.45857e-05
5.46343e-05
5.19754e-05
5.28316e-05
5.16844e-05
5.3282e-05
5.47318e-05
5.4906e-05
5.29788e-05
5.30886e-05
5.34748e-05
5.33934e-05
5.47384e-05
5.47641e-05
5.3051e-05
5.30227e-05
5.32904e-05
5.29892e-05
5.19281e-05
5.29577e-05
5.32746e-05
5.46163e-05
5.43758e-05
5.17133e-05
5.27593e-05
5.31085e-05
5.51215e-05
5.49451e-05
5.51113e-05
5.3531e-05
5.34561e-05
5.37141e-05
5.3787e-05
5.48265e-05
5.53565e-05
5.33001e-05
5.29894e-05
5.33118e-05
5.32121e-05
5.37398e-05
5.38623e-05
5.44193e-05
5.44071e-05
5.51824e-05
5.36887e-05
5.37504e-05
5.46297e-05
5.62491e-05
5.52047e-05
5.5605e-05
5.383e-05
5.38897e-05
5.41076e-05
5.39788e-05
5.5429e-05
5.53593e-05
5.33674e-05
5.35046e-05
5.41081e-05
5.42816e-05
5.44342e-05
5.40599e-05
5.41201e-05
5.53894e-05
5.57717e-05
5.46819e-05
5.4413e-05
5.4478e-05
5.54794e-05
5.56753e-05
5.60678e-05
5.41492e-05
5.39784e-05
5.43758e-05
5.41242e-05
5.53648e-05
5.56687e-05
5.43285e-05
5.44101e-05
5.48578e-05
5.45964e-05
5.3962e-05
5.41352e-05
5.3849e-05
5.57892e-05
5.57682e-05
5.42577e-05
5.43617e-05
5.38525e-05
5.51001e-05
5.61899e-05
5.65577e-05
5.45398e-05
5.43155e-05
5.51484e-05
5.50551e-05
5.58322e-05
5.64724e-05
5.49986e-05
5.47295e-05
5.52488e-05
5.53017e-05
5.39057e-05
5.50879e-05
5.47766e-05
5.58316e-05
5.65217e-05
5.38256e-05
5.4677e-05
5.40829e-05
5.59451e-05
5.65933e-05
5.63342e-05
5.52725e-05
5.53002e-05
5.53135e-05
5.561e-05
5.6601e-05
5.68756e-05
5.5264e-05
5.54153e-05
5.51694e-05
5.54242e-05
5.50344e-05
5.5531e-05
5.55424e-05
5.66825e-05
5.67418e-05
5.45281e-05
5.54642e-05
5.55935e-05
5.68665e-05
5.62601e-05
5.5613e-05
5.52413e-05
5.56007e-05
5.4856e-05
5.52776e-05
5.68781e-05
5.62419e-05
5.49671e-05
5.5289e-05
5.43881e-05
5.44266e-05
5.55854e-05
5.52389e-05
5.5493e-05
5.66618e-05
5.55786e-05
5.57391e-05
5.50631e-05
5.57352e-05
5.67078e-05
5.56264e-05
5.75319e-05
5.48562e-05
5.52568e-05
5.5991e-05
5.59561e-05
5.62317e-05
5.74561e-05
5.4377e-05
5.43638e-05
5.57116e-05
5.53341e-05
5.54318e-05
5.58663e-05
5.56082e-05
5.55427e-05
5.71124e-05
5.56465e-05
5.54178e-05
5.56901e-05
5.69222e-05
5.79689e-05
5.87585e-05
5.66065e-05
5.63952e-05
5.71173e-05
5.65851e-05
5.77757e-05
5.78422e-05
5.66389e-05
5.65017e-05
5.7713e-05
5.81141e-05
5.60848e-05
5.67767e-05
5.69605e-05
5.77176e-05
5.94519e-05
5.59843e-05
5.76313e-05
5.69714e-05
5.82947e-05
5.86205e-05
5.60609e-05
5.70095e-05
5.63145e-05
5.53509e-05
5.48267e-05
5.75006e-05
5.53484e-05
5.76722e-05
5.81014e-05
5.57502e-05
5.58954e-05
5.69543e-05
5.51163e-05
5.58616e-05
5.94354e-05
5.61572e-05
5.69759e-05
5.5899e-05
5.59063e-05
5.64655e-05
5.58292e-05
5.60915e-05
5.50507e-05
5.47486e-05
5.51572e-05
5.595e-05
5.53057e-05
5.75382e-05
5.51116e-05
5.49203e-05
5.47073e-05
5.40375e-05
5.54196e-05
5.54305e-05
5.51246e-05
5.56665e-05
5.47517e-05
5.53897e-05
5.43385e-05
5.49845e-05
5.59819e-05
5.66152e-05
5.93083e-05
5.58095e-05
5.7096e-05
5.81069e-05
5.89687e-05
5.8213e-05
6.03942e-05
5.49233e-05
5.41662e-05
5.76424e-05
5.74303e-05
5.52898e-05
5.85429e-05
5.75382e-05
5.51225e-05
5.91552e-05
5.51158e-05
5.74086e-05
5.74647e-05
5.90187e-05
5.95771e-05
5.96755e-05
5.84864e-05
5.90584e-05
5.86163e-05
5.80913e-05
6.04379e-05
5.84329e-05
5.82905e-05
5.84617e-05
5.88618e-05
5.96915e-05
5.80944e-05
5.83222e-05
5.85248e-05
5.97041e-05
6.09726e-05
5.81136e-05
5.94631e-05
5.86865e-05
5.96998e-05
5.94047e-05
5.6791e-05
5.83119e-05
5.70742e-05
5.59358e-05
5.46909e-05
5.78934e-05
5.51841e-05
5.87947e-05
5.96687e-05
5.67495e-05
5.73342e-05
5.84109e-05
5.52125e-05
5.6315e-05
6.09256e-05
5.74639e-05
5.86084e-05
5.71831e-05
5.65343e-05
5.6768e-05
5.64286e-05
5.51378e-05
5.52481e-05
5.42749e-05
5.43517e-05
5.42059e-05
5.50082e-05
5.56805e-05
5.58994e-05
5.61024e-05
5.44123e-05
5.38437e-05
5.56488e-05
5.4593e-05
5.48711e-05
5.68479e-05
5.43414e-05
5.57743e-05
5.40525e-05
5.4754e-05
5.5563e-05
5.51651e-05
5.83051e-05
5.43915e-05
5.4785e-05
5.70453e-05
5.83774e-05
5.63008e-05
5.99124e-05
5.43641e-05
5.3722e-05
5.60404e-05
5.53007e-05
5.49139e-05
5.80224e-05
5.7067e-05
5.43168e-05
5.74468e-05
5.47676e-05
5.56e-05
5.67284e-05
5.86139e-05
5.90035e-05
6.14038e-05
5.82508e-05
5.92705e-05
6.01898e-05
6.03242e-05
6.03782e-05
6.13813e-05
5.74503e-05
5.69743e-05
5.99724e-05
6.00995e-05
5.79416e-05
5.98512e-05
5.92544e-05
5.83027e-05
6.1478e-05
5.77234e-05
5.99007e-05
5.93183e-05
6.0402e-05
6.14532e-05
5.89225e-05
6.02477e-05
6.02846e-05
5.8585e-05
5.77928e-05
6.12954e-05
5.79804e-05
6.01406e-05
6.0373e-05
5.91916e-05
5.97227e-05
5.92936e-05
5.78546e-05
5.83133e-05
6.15981e-05
5.96561e-05
5.93937e-05
5.94193e-05
5.86108e-05
5.87509e-05
5.82715e-05
5.56207e-05
5.72877e-05
5.66693e-05
5.49021e-05
5.47775e-05
5.7451e-05
5.5578e-05
5.78656e-05
5.84136e-05
5.51417e-05
5.54001e-05
5.75224e-05
5.50955e-05
5.58264e-05
5.9e-05
5.60461e-05
5.77509e-05
5.55215e-05
5.58627e-05
5.6721e-05
5.55532e-05
5.677e-05
5.46993e-05
5.46662e-05
5.51559e-05
5.54053e-05
5.55712e-05
5.71054e-05
5.48401e-05
5.4994e-05
5.50066e-05
5.49172e-05
5.55531e-05
5.54562e-05
5.5369e-05
5.59201e-05
5.64259e-05
5.55487e-05
5.51082e-05
5.53095e-05
5.64996e-05
5.72443e-05
5.88884e-05
5.60181e-05
5.62293e-05
5.77178e-05
5.77207e-05
5.75352e-05
5.88528e-05
5.56911e-05
5.53083e-05
5.75044e-05
5.70204e-05
5.54638e-05
5.75144e-05
5.67781e-05
5.67942e-05
5.82218e-05
5.53755e-05
5.69504e-05
5.66646e-05
5.78573e-05
5.89899e-05
5.88412e-05
5.79354e-05
5.79317e-05
5.79944e-05
5.80742e-05
5.89561e-05
5.90758e-05
5.77538e-05
5.73307e-05
5.7861e-05
5.76552e-05
5.72038e-05
5.79967e-05
5.81316e-05
5.83696e-05
5.86607e-05
5.71115e-05
5.76923e-05
5.81115e-05
5.93494e-05
5.87943e-05
5.82571e-05
5.78894e-05
5.80513e-05
5.72257e-05
5.72797e-05
5.9084e-05
5.83259e-05
5.77955e-05
5.76751e-05
5.72827e-05
5.75978e-05
5.8284e-05
5.75984e-05
5.82009e-05
5.87103e-05
5.87945e-05
5.82975e-05
5.78347e-05
5.82932e-05
5.92856e-05
5.82118e-05
5.73066e-05
5.70129e-05
5.69053e-05
5.606e-05
5.56695e-05
5.81313e-05
5.66443e-05
5.71703e-05
5.75161e-05
5.64341e-05
5.68247e-05
5.77829e-05
5.56943e-05
5.58033e-05
5.87704e-05
5.77541e-05
5.79919e-05
5.6577e-05
5.59435e-05
5.67099e-05
5.71719e-05
5.65318e-05
5.58099e-05
5.54173e-05
5.53664e-05
5.51141e-05
5.65069e-05
5.62518e-05
5.61349e-05
5.64594e-05
5.54654e-05
5.5599e-05
5.54546e-05
5.51174e-05
5.51203e-05
5.75909e-05
5.66876e-05
5.5541e-05
5.54369e-05
5.50792e-05
5.62182e-05
5.6492e-05
5.44373e-05
5.42905e-05
5.63067e-05
5.44588e-05
5.44952e-05
4.51228e-05
4.5331e-05
4.51136e-05
5.4304e-05
5.65664e-05
5.42273e-05
3.37127e-08
2.43196e-07
4.05729e-08
4.44019e-08
2.89407e-07
2.77376e-07
1.27822e-07
1.15177e-07
2.71382e-07
3.42197e-07
1.25196e-07
4.67178e-07
3.73111e-07
2.20215e-07
2.85883e-07
3.02674e-07
5.29504e-06
2.61883e-07
7.09135e-06
1.32611e-05
2.05593e-05
3.60423e-07
4.85674e-06
3.18842e-07
6.50428e-06
1.53685e-07
1.72927e-07
1.63854e-07
1.65253e-07
1.53812e-07
1.72707e-07
1.64006e-07
2.69232e-07
5.10922e-07
2.187e-07
2.52496e-07
2.76457e-07
4.99603e-07
2.1824e-07
1.41712e-05
2.21066e-05
2.53415e-07
2.43938e-07
7.18706e-07
3.36471e-07
2.59103e-07
2.42837e-07
6.85052e-07
1.84986e-06
1.83394e-06
3.55043e-07
1.82741e-06
1.869e-06
4.92338e-07
1.04218e-05
4.05238e-07
1.34643e-05
3.53335e-05
4.57689e-05
5.53622e-07
9.58989e-06
4.61492e-07
1.22482e-05
1.52821e-07
1.71426e-07
1.63055e-07
1.59474e-07
1.49735e-07
1.67482e-07