/*--------------------------------*- C++ -*----------------------------------*\
| =========                 |                                                 |
| \\      /  F ield         | OpenFOAM: The Open Source CFD Toolbox           |
|  \\    /   O peration     | Version:  v2012                                 |
|   \\  /    A nd           | Website:  www.openfoam.com                      |
|    \\/     M anipulation  |                                                 |
\*---------------------------------------------------------------------------*/
FoamFile
{
    version     2.0;
    format      ascii;
    class       volScalarField;
    location    "300";
    object      nut;
}
// * * * * * * * * * * * * * * * * * * * * * * * * * * * * * * * * * * * * * //

dimensions      [0 2 -1 0 0 0 0];


internalField   nonuniform List<scalar> 
171728
(
7.51848e-06
2.18409e-06
2.24969e-06
2.26891e-06
7.41214e-06
2.1582e-06
2.23121e-06
2.24838e-06
7.56004e-06
2.14971e-06
2.21861e-06
2.22758e-06
7.71091e-06
2.14314e-06
2.20489e-06
2.2112e-06
7.87281e-06
2.12511e-06
2.18581e-06
2.19558e-06
8.05182e-06
2.10173e-06
2.17051e-06
2.18648e-06
8.23691e-06
2.08082e-06
2.14799e-06
2.18679e-06
8.42414e-06
2.03677e-06
2.11925e-06
2.17866e-06
8.60895e-06
2.00381e-06
2.07954e-06
2.17185e-06
8.79292e-06
1.969e-06
2.01586e-06
2.16421e-06
8.97642e-06
1.90318e-06
1.94571e-06
2.13583e-06
9.14877e-06
1.84454e-06
1.87471e-06
2.088e-06
9.31691e-06
1.80634e-06
1.79769e-06
2.02357e-06
9.48467e-06
1.71578e-06
1.71091e-06
1.94497e-06
9.65125e-06
1.61485e-06
1.61752e-06
1.83472e-06
9.81451e-06
1.51374e-06
1.52908e-06
1.70275e-06
9.976e-06
1.37597e-06
1.449e-06
1.55347e-06
1.01244e-05
1.2419e-06
1.39613e-06
1.41107e-06
1.02587e-05
1.19715e-06
1.40523e-06
1.39661e-06
1.03822e-05
1.31982e-06
1.43841e-06
1.44173e-06
1.04868e-05
1.34419e-06
1.58334e-06
1.66657e-06
1.0526e-05
1.98581e-06
1.92021e-06
2.5567e-06
1.06221e-05
2.02663e-06
2.37502e-06
4.05769e-06
1.06457e-05
3.29197e-06
3.22348e-06
4.72901e-06
1.0563e-05
3.89804e-06
4.30901e-06
1.05072e-05
1.0523e-05
5.62763e-06
5.27421e-06
1.2795e-05
1.04091e-05
6.97134e-06
7.78332e-06
1.52358e-05
1.00634e-05
9.74327e-06
8.38169e-06
2.79132e-05
1.01057e-05
1.141e-05
1.34594e-05
2.949e-05
9.51709e-06
1.49175e-05
1.31722e-05
3.78192e-05
9.82377e-06
1.84258e-05
1.95516e-05
4.69253e-05
9.53541e-06
2.28898e-05
2.31641e-05
5.23626e-05
9.03814e-06
2.71905e-05
2.53812e-05
5.8376e-05
1.02925e-05
2.96887e-05
3.14504e-05
6.60012e-05
9.74477e-06
4.07358e-05
3.76719e-05
6.9823e-05
1.13864e-05
3.86936e-05
4.17928e-05
7.50882e-05
1.048e-05
4.90302e-05
4.55827e-05
7.935e-05
1.41733e-05
6.03287e-05
5.46848e-05
8.51344e-05
1.31014e-05
5.80301e-05
5.79564e-05
8.70446e-05
1.79733e-05
6.41162e-05
6.83564e-05
9.34745e-05
1.66485e-05
7.28798e-05
6.74057e-05
9.42933e-05
2.37186e-05
7.71419e-05
7.86087e-05
0.00010203
2.41083e-05
8.28998e-05
8.24938e-05
0.000101195
2.81326e-05
9.40566e-05
9.45668e-05
0.000110873
3.6321e-05
9.20382e-05
9.30647e-05
0.000111669
3.30497e-05
0.00010305
0.000101837
0.000113654
4.30519e-05
0.000108624
0.000109556
0.000120682
4.81107e-05
0.000112376
0.000112301
0.000121974
5.27198e-05
0.000117605
0.000117544
0.000126567
5.82399e-05
0.000123197
0.000121545
0.000130106
6.63612e-05
0.000125679
0.00012633
0.00013245
7.17663e-05
0.000132508
0.000133226
0.000137081
7.94091e-05
0.000140199
0.000136798
0.000139827
8.70427e-05
0.000137496
0.000141427
0.000141613
9.28662e-05
0.00014719
0.000144031
0.000147427
0.000100468
0.000151603
0.000152934
0.000148768
0.000107154
0.000151804
0.000153921
0.000150506
0.00011487
0.000156834
0.000154141
0.000155265
0.000117369
0.000162164
0.000163433
0.000155879
0.000131131
0.000165127
0.000167507
0.000160045
0.000131589
0.000170257
0.00016783
0.000163053
0.000143835
0.000174515
0.000173052
0.000165814
0.00014436
0.00017228
0.000171112
0.000162695
0.000152329
0.000185177
0.000186129
0.000174497
0.000172374
0.00019305
0.000193515
0.000180168
0.000174888
0.00018453
0.000184688
0.000171143
0.000154414
0.000171666
0.000171705
0.0001602
0.000142416
0.00017254
0.000172429
0.000163815
0.000178958
0.000197419
0.000197339
0.000181813
0.000214675
0.000215296
0.000215287
0.000194746
0.000238717
0.000227957
0.000227994
0.000205029
0.000252393
0.000227595
0.000227647
0.000200737
0.000206716
0.000195666
0.000195681
0.000177847
0.000162633
0.000175093
0.000175102
0.000162376
0.00014555
0.000171148
0.000171157
0.000160554
0.000159264
0.000184816
0.000184819
0.000170386
0.000193878
0.000198268
0.000198271
0.000179459
0.000215169
0.000205956
0.000205963
0.000184582
0.000225384
0.000209241
0.00020925
0.000186805
0.000229797
0.000210529
0.000210537
0.000187651
0.000231531
0.000210933
0.00021094
0.000187913
0.00023192
0.000210969
0.000210977
0.000187981
0.000231934
0.000210906
0.000210913
0.000187914
0.000232033
0.000210969
0.000210976
0.000187982
0.00023202
0.000210938
0.000210946
0.000187967
0.000232004
0.00021093
0.000210937
0.000187908
0.00023202
0.000210954
0.00021096
0.000188006
0.000232008
0.000210931
0.000210938
0.000187913
0.000232011
0.000210943
0.000210951
0.000187977
0.00023201
0.000210939
0.000210947
0.000187955
0.000232011
0.000210942
0.000210949
0.000187944
0.000232011
0.000210944
0.000210951
0.000187968
0.000232013
0.000210949
0.000210957
0.000187955
0.000231981
0.000210867
0.000210874
0.00018795
0.000233877
0.000212139
0.000212148
0.000191395
2.30823e-06
2.52357e-06
3.31022e-06
2.25898e-06
2.56618e-06
2.55145e-06
7.81267e-06
7.71346e-06
7.73854e-06
7.80905e-06
2.23934e-06
2.56736e-06
2.30266e-06
2.44962e-06
2.3666e-06
2.27779e-06
2.30498e-06
2.29594e-06
2.30932e-06
3.14175e-06
2.29317e-06
3.83739e-06
2.24853e-06
2.31979e-06
2.30199e-06
2.30978e-06
2.29011e-06
2.29738e-06
2.32377e-06
2.15946e-06
2.3109e-06
2.29998e-06
2.29051e-06
2.01691e-06
2.23329e-06
2.02116e-06
2.2546e-06
2.29435e-06
2.2938e-06
2.28899e-06
4.23002e-06
2.28168e-06
4.66741e-06
2.31512e-06
2.45546e-06
2.28945e-06
2.29757e-06
2.29055e-06
2.3002e-06
2.30984e-06
2.15251e-06
2.3075e-06
2.28845e-06
2.28422e-06
2.02573e-06
2.223e-06
2.03994e-06
2.2323e-06
2.28324e-06
2.28818e-06
2.27891e-06
4.42954e-06
2.27148e-06
3.18078e-06
2.42552e-06
2.3205e-06
2.28939e-06
2.29929e-06
2.28859e-06
2.30212e-06
2.30566e-06
2.14383e-06
2.30106e-06
2.27625e-06
2.27768e-06
2.04703e-06
2.20784e-06
2.06743e-06
2.21767e-06
2.27066e-06
2.27279e-06
2.26677e-06
2.76155e-06
2.25914e-06
1.93509e-06
2.30293e-06
2.18436e-06
2.28778e-06
2.30243e-06
2.28925e-06
2.30319e-06
2.29789e-06
2.13103e-06
2.29207e-06
2.26303e-06
2.26745e-06
2.07563e-06
2.19112e-06
2.10813e-06
2.20813e-06
2.25247e-06
2.25019e-06
2.2556e-06
1.79273e-06
2.24632e-06
1.58589e-06
2.17562e-06
2.1259e-06
2.28829e-06
2.30045e-06
2.28936e-06
2.29493e-06
2.28854e-06
2.10713e-06
2.28289e-06
2.24965e-06
2.25011e-06
2.12047e-06
2.17516e-06
2.16721e-06
2.2024e-06
2.23022e-06
2.22855e-06
2.24231e-06
1.56269e-06
2.23208e-06
1.54923e-06
2.1201e-06
2.08674e-06
2.28848e-06
2.28993e-06
2.28103e-06
2.27332e-06
2.27997e-06
2.0865e-06
2.27007e-06
2.23119e-06
2.22306e-06
2.18457e-06
2.15424e-06
2.23068e-06
2.20459e-06
2.20867e-06
2.20678e-06
2.22748e-06
1.55248e-06
2.21213e-06
1.56822e-06
2.08113e-06
2.04388e-06
2.27709e-06
2.26579e-06
2.26088e-06
2.24039e-06
2.26396e-06
2.04863e-06
2.24205e-06
2.20989e-06
2.18913e-06
2.24167e-06
2.12627e-06
2.27019e-06
2.19653e-06
2.18671e-06
2.17215e-06
2.20621e-06
1.57047e-06
2.18026e-06
1.57433e-06
2.0383e-06
2.00754e-06
2.25483e-06
2.23302e-06
2.23066e-06
2.20244e-06
2.23547e-06
2.0129e-06
2.20641e-06
2.18035e-06
2.15109e-06
2.28315e-06
2.09133e-06
2.32731e-06
2.18739e-06
2.15517e-06
2.12053e-06
2.16896e-06
1.57302e-06
2.12963e-06
1.56935e-06
2.00127e-06
1.95638e-06
2.22142e-06
2.19352e-06
2.18479e-06
2.15381e-06
2.19415e-06
1.97819e-06
2.15422e-06
2.14302e-06
2.10339e-06
2.34544e-06
2.03265e-06
2.40072e-06
2.18065e-06
2.10902e-06
2.05981e-06
2.1166e-06
1.56862e-06
2.07252e-06
1.56822e-06
1.94815e-06
1.88627e-06
2.16937e-06
2.13883e-06
2.12124e-06
2.0923e-06
2.14072e-06
1.92466e-06
2.09141e-06
2.09277e-06
2.03744e-06
2.41804e-06
1.96363e-06
2.46971e-06
2.14748e-06
2.04808e-06
1.98744e-06
2.05532e-06
1.57005e-06
2.00251e-06
1.58303e-06
1.87628e-06
1.81398e-06
2.10427e-06
2.07531e-06
2.04558e-06
2.02192e-06
2.07353e-06
1.85201e-06
2.01524e-06
2.02582e-06
1.96312e-06
2.49111e-06
1.89349e-06
2.5558e-06
2.10198e-06
1.97349e-06
1.90028e-06
1.98391e-06
1.58834e-06
1.91798e-06
1.59722e-06
1.80222e-06
1.75067e-06
2.0253e-06
2.00269e-06
1.95797e-06
1.93453e-06
1.99617e-06
1.81531e-06
1.9359e-06
1.94941e-06
1.87177e-06
2.57819e-06
1.81721e-06
2.64391e-06
2.04218e-06
1.88179e-06
1.79329e-06
1.89412e-06
1.59742e-06
1.81738e-06
1.58925e-06
1.73563e-06
1.67453e-06
1.93326e-06
1.90883e-06
1.85683e-06
1.83039e-06
1.91449e-06
1.73859e-06
1.84671e-06
1.85363e-06
1.76164e-06
2.66527e-06
1.73408e-06
2.69227e-06
1.96842e-06
1.77036e-06
1.6757e-06
1.78978e-06
1.58087e-06
1.70639e-06
1.54476e-06
1.65431e-06
1.57944e-06
1.82882e-06
1.80042e-06
1.74419e-06
1.71398e-06
1.82025e-06
1.6335e-06
1.73372e-06
1.73879e-06
1.64429e-06
2.68529e-06
1.64007e-06
2.62069e-06
1.86528e-06
1.64699e-06
1.55384e-06
1.6782e-06
1.53266e-06
1.59766e-06
1.4865e-06
1.55471e-06
1.47593e-06
1.71577e-06
1.68581e-06
1.63024e-06
1.60239e-06
1.70603e-06
1.53641e-06
1.62079e-06
1.61678e-06
1.52834e-06
2.5965e-06
1.55157e-06
2.50306e-06
1.73989e-06
1.52179e-06
1.42936e-06
1.57106e-06
1.47451e-06
1.49477e-06
1.42267e-06
1.4485e-06
1.36227e-06
1.60256e-06
1.57364e-06
1.5226e-06
1.49946e-06
1.59461e-06
1.39978e-06
1.51246e-06
1.49898e-06
1.41435e-06
2.4626e-06
1.46981e-06
2.29368e-06
1.59709e-06
1.40175e-06
1.33704e-06
1.47632e-06
1.41789e-06
1.41206e-06
1.36737e-06
1.3328e-06
1.28093e-06
1.50084e-06
1.47618e-06
1.43741e-06
1.42534e-06
1.4964e-06
1.28023e-06
1.42902e-06
1.39168e-06
1.32101e-06
2.2174e-06
1.41327e-06
1.98441e-06
1.4604e-06
1.3156e-06
1.31384e-06
1.4029e-06
1.36482e-06
1.38399e-06
1.38153e-06
1.24091e-06
1.27876e-06
1.42884e-06
1.4109e-06
1.39593e-06
1.39164e-06
1.41088e-06
1.23807e-06
1.4099e-06
1.31251e-06
1.28556e-06
1.89675e-06
1.3867e-06
1.73891e-06
1.4079e-06
1.30923e-06
1.39893e-06
1.38688e-06
1.34701e-06
1.43315e-06
1.45156e-06
1.25463e-06
1.39509e-06
1.39432e-06
1.40262e-06
1.44618e-06
1.40183e-06
1.39895e-06
1.26789e-06
1.41726e-06
1.29759e-06
1.36113e-06
1.68199e-06
1.39359e-06
1.53976e-06
1.37036e-06
1.43469e-06
1.65024e-06
1.46097e-06
1.50735e-06
1.5367e-06
1.54897e-06
1.5182e-06
1.56115e-06
1.46587e-06
1.44257e-06
1.53705e-06
1.55769e-06
1.4764e-06
1.37905e-06
1.50981e-06
1.35993e-06
1.79214e-06
1.56666e-06
1.56031e-06
1.51057e-06
1.6688e-06
1.71175e-06
2.41015e-06
1.60986e-06
1.51528e-06
1.81762e-06
1.90532e-06
1.58157e-06
2.28753e-06
1.62134e-06
1.58342e-06
1.811e-06
1.8427e-06
1.55997e-06
1.72356e-06
1.91405e-06
1.81369e-06
2.45539e-06
1.5058e-06
1.84832e-06
1.78953e-06
2.48958e-06
2.47906e-06
3.4424e-06
1.87246e-06
2.16272e-06
2.28415e-06
2.23304e-06
2.86985e-06
3.48792e-06
1.85768e-06
1.91832e-06
2.27307e-06
2.24965e-06
1.89326e-06
2.07361e-06
2.35797e-06
2.7365e-06
3.33233e-06
1.75892e-06
2.26278e-06
2.18742e-06
3.23594e-06
3.87078e-06
5.30128e-06
2.45325e-06
2.18321e-06
2.91586e-06
3.28448e-06
3.27623e-06
6.62815e-06
2.45469e-06
2.31159e-06
2.89085e-06
3.15518e-06
2.73819e-06
3.17616e-06
2.74058e-06
3.87757e-06
4.96363e-06
2.56333e-06
3.07159e-06
2.67559e-06
5.04789e-06
5.64141e-06
8.10872e-06
3.11124e-06
3.35398e-06
3.9421e-06
3.49766e-06
7.06825e-06
6.07091e-06
3.07023e-06
3.36646e-06
3.92191e-06
3.59368e-06
2.73568e-06
3.23969e-06
4.27813e-06
5.74238e-06
7.18365e-06
2.6287e-06
3.74552e-06
3.932e-06
9.69101e-06
9.05147e-06
1.10228e-05
4.10999e-06
4.30056e-06
5.29594e-06
5.67079e-06
7.05034e-06
1.41929e-05
4.06488e-06
4.29243e-06
5.29874e-06
5.34534e-06
4.24217e-06
5.57412e-06
5.49558e-06
7.57824e-06
1.35943e-05
3.94973e-06
5.22622e-06
5.42265e-06
1.09136e-05
1.21645e-05
1.78282e-05
5.82205e-06
5.54506e-06
6.47548e-06
6.36847e-06
1.41599e-05
1.43222e-05
5.77215e-06
5.25372e-06
6.5238e-06
7.05887e-06
6.14336e-06
5.78239e-06
6.06905e-06
1.36673e-05
1.61905e-05
5.91456e-06
6.94639e-06
5.948e-06
1.5698e-05
1.81716e-05
2.3338e-05
7.11972e-06
7.515e-06
9.3908e-06
9.88495e-06
1.62913e-05
2.68861e-05
7.16879e-06
7.92769e-06
9.21155e-06
8.30349e-06
6.73281e-06
9.77233e-06
9.24076e-06
1.86117e-05
2.35222e-05
6.80153e-06
8.32792e-06
8.87783e-06
2.66356e-05
2.48929e-05
2.82694e-05
9.38926e-06
9.78225e-06
1.10816e-05
1.03136e-05
2.72098e-05
2.46685e-05
9.2133e-06
8.34516e-06
1.1039e-05
1.23849e-05
9.36196e-06
1.0152e-05
1.11215e-05
2.35391e-05
3.04391e-05
9.11212e-06
1.23989e-05
1.11101e-05
2.74299e-05
2.97511e-05
3.95954e-05
1.27939e-05
1.25951e-05
1.43818e-05
1.49171e-05
2.77119e-05
4.04906e-05
1.27327e-05
1.33804e-05
1.44385e-05
1.31621e-05
1.18715e-05
1.47783e-05
1.40098e-05
3.37254e-05
3.72479e-05
1.16483e-05
1.33174e-05
1.40247e-05
3.73713e-05
3.97991e-05
4.46931e-05
1.41109e-05
1.45454e-05
1.88879e-05
1.84277e-05
4.03925e-05
4.3215e-05
1.41079e-05
1.33204e-05
1.86993e-05
1.88082e-05
1.46956e-05
1.65489e-05
1.76693e-05
3.67037e-05
4.45946e-05
1.52199e-05
1.8757e-05
1.66437e-05
4.56299e-05
4.85951e-05
5.23586e-05
2.03724e-05
2.04143e-05
2.12513e-05
2.14805e-05
4.64288e-05
5.30752e-05
2.05794e-05
1.92449e-05
2.11455e-05
2.1261e-05
1.88645e-05
2.2918e-05
2.09891e-05
4.80383e-05
5.1655e-05
1.74054e-05
2.1017e-05
2.21177e-05
5.07946e-05
5.18428e-05
5.60568e-05
2.18556e-05
2.10747e-05
2.39424e-05
2.52649e-05
5.35908e-05
5.52791e-05
2.11915e-05
2.31644e-05
2.38905e-05
2.50328e-05
2.16123e-05
2.4614e-05
2.56101e-05
5.18073e-05
5.91481e-05
2.24273e-05
2.52894e-05
2.52022e-05
5.72457e-05
5.94724e-05
6.4044e-05
2.52955e-05
2.79773e-05
3.21873e-05
2.97705e-05
5.70073e-05
6.40284e-05
2.53567e-05
2.5889e-05
3.20622e-05
3.07722e-05
2.66268e-05
2.87565e-05
3.01982e-05
6.023e-05
6.23533e-05
2.67261e-05
3.07693e-05
2.91389e-05
6.47207e-05
6.5032e-05
7.0433e-05
3.3581e-05
3.07556e-05
3.42298e-05
3.90423e-05
6.58558e-05
7.33498e-05
3.36213e-05
3.15441e-05
3.40317e-05
3.4621e-05
3.20691e-05
3.87519e-05
3.49294e-05
6.4274e-05
6.97136e-05
3.07162e-05
3.51573e-05
3.68008e-05
6.84422e-05
7.12943e-05
7.40865e-05
3.63136e-05
4.09609e-05
4.259e-05
4.05092e-05
7.40673e-05
7.00729e-05
3.56991e-05
3.70641e-05
4.27652e-05
4.25814e-05
3.52827e-05
4.02074e-05
4.11305e-05
7.07334e-05
7.50881e-05
3.7115e-05
4.14922e-05
3.93715e-05
7.41819e-05
7.4953e-05
7.75461e-05
4.2749e-05
3.90189e-05
4.23254e-05
4.12102e-05
6.91577e-05
7.93072e-05
4.33301e-05
4.25493e-05
4.25411e-05
4.2271e-05
4.3581e-05
4.14816e-05
4.47371e-05
7.55927e-05
7.67658e-05
4.23641e-05
4.35305e-05
4.56666e-05
7.85342e-05
7.88857e-05
8.43885e-05
4.58596e-05
4.90842e-05
5.54095e-05
6.04178e-05
8.46269e-05
8.82821e-05
4.54332e-05
4.56904e-05
5.50235e-05
5.50812e-05
4.47904e-05
5.9644e-05
5.39434e-05
7.80332e-05
8.44787e-05
4.54491e-05
5.37513e-05
5.31828e-05
8.3878e-05
8.48568e-05
8.67053e-05
5.60746e-05
6.10302e-05
5.4643e-05
5.94469e-05
8.80201e-05
8.72179e-05
5.5527e-05
5.58571e-05
5.52319e-05
5.43284e-05
5.6326e-05
5.89671e-05
5.63079e-05
8.51377e-05
8.6193e-05
5.57073e-05
5.5611e-05
5.60187e-05
8.6481e-05
8.81377e-05
9.22002e-05
5.64118e-05
5.86894e-05
6.71236e-05
6.20727e-05
8.75628e-05
8.98457e-05
5.86497e-05
5.56996e-05
6.69192e-05
6.73892e-05
5.62736e-05
6.22791e-05
6.64569e-05
8.71968e-05
9.29652e-05
5.62328e-05
6.71785e-05
6.61454e-05
9.27168e-05
9.2376e-05
9.44391e-05
6.80994e-05
6.3233e-05
6.69088e-05
6.97637e-05
9.12693e-05
9.66061e-05
6.70256e-05
6.94352e-05
6.54058e-05
6.86983e-05
6.86282e-05
6.99679e-05
6.79854e-05
9.35957e-05
9.37661e-05
6.80661e-05
6.67613e-05
6.72729e-05
9.3622e-05
9.63175e-05
0.000100795
6.88248e-05
7.29882e-05
7.93907e-05
7.85265e-05
9.7487e-05
9.85157e-05
6.8474e-05
6.78705e-05
8.00958e-05
7.75123e-05
6.75292e-05
7.75726e-05
7.81301e-05
9.42144e-05
0.000100124
6.74746e-05
7.80085e-05
7.87119e-05
0.00010131
0.000100854
0.000101058
8.09642e-05
7.82681e-05
7.99294e-05
7.8805e-05
9.87142e-05
0.000103235
8.16142e-05
7.99743e-05
8.05834e-05
7.99691e-05
8.12001e-05
7.94671e-05
8.2069e-05
0.000100859
0.000102452
8.15431e-05
7.9691e-05
8.21362e-05
0.000101181
0.000102299
0.000109544
7.95789e-05
8.23224e-05
8.99595e-05
9.25775e-05
0.000104892
0.000109085
7.99224e-05
8.15341e-05
8.90878e-05
9.19353e-05
8.10987e-05
9.2577e-05
8.76232e-05
0.000103741
0.000109579
8.11096e-05
9.26895e-05
8.71239e-05
0.000109117
0.00011048
0.000110822
9.35044e-05
9.42443e-05
9.73221e-05
9.36387e-05
0.00010936
0.00010871
9.29128e-05
9.42097e-05
9.7478e-05
9.44667e-05
9.21301e-05
9.31224e-05
9.83947e-05
0.000109998
0.000108829
9.18144e-05
9.41821e-05
9.84953e-05
0.000111983
0.00011071
0.000112615
9.66811e-05
9.25609e-05
9.50174e-05
9.78737e-05
0.000108873
0.000115321
9.69869e-05
9.34233e-05
9.49419e-05
9.67101e-05
9.81677e-05
9.84018e-05
9.57319e-05
0.000108796
0.000114846
9.83233e-05
9.64301e-05
9.59486e-05
0.000112308
0.000114418
0.000119893
9.90402e-05
0.000102709
0.00010698
0.00010921
0.000117267
0.000119726
9.8578e-05
0.000101862
0.000107821
0.000109711
9.73259e-05
0.000108984
0.000107905
0.000117029
0.00012007
9.73025e-05
0.000109655
0.000107747
0.000120235
0.000120119
0.000121785
0.000107891
0.000108931
0.00011144
0.000108868
0.000119647
0.000121322
0.000108047
0.000109664
0.000110675
0.000108797
0.000108895
0.000108648
0.000110495
0.000120004
0.000121335
0.000109322
0.000109031
0.000110511
0.000121421
0.000122766
0.000125499
0.000112721
0.000112058
0.000115945
0.00011751
0.000122875
0.000126464
0.000112419
0.000111895
0.000116258
0.000117461
0.000112172
0.000117987
0.000116538
0.000122819
0.000126682
0.000111273
0.000117784
0.000116163
0.000125864
0.000125898
0.000128868
0.000117222
0.000117546
0.000120971
0.000119756
0.000126464
0.000128174
0.000117279
0.000117998
0.000120607
0.000120442
0.000117129
0.0001202
0.000121096
0.000126727
0.000127796
0.000118027
0.000119591
0.000122091
0.000129376
0.000129594
0.000132744
0.00012216
0.000121974
0.000126476
0.000126775
0.000129559
0.000132528
0.000121854
0.000121491
0.000126507
0.000125161
0.000123413
0.000126214
0.000126853
0.000128768
0.000132171
0.000122984
0.000125447
0.000124812
0.000132211
0.000133437
0.000135451
0.000127796
0.000126919
0.000130057
0.000129346
0.000132512
0.000135119
0.000128007
0.000126711
0.000130452
0.000130977
0.000126675
0.000129023
0.000129574
0.00013266
0.000136195
0.00012573
0.000131406
0.00013168
0.000135889
0.000135781
0.000139566
0.000130898
0.000131747
0.000136225
0.000138833
0.000136724
0.000141719
0.000131075
0.000132064
0.000135774
0.000136264
0.000131964
0.000139697
0.000137455
0.000137029
0.000139752
0.000133782
0.000136015
0.000136066
0.000139783
0.000140512
0.000142385
0.000137995
0.000139759
0.000139973
0.000138628
0.000141858
0.000139927
0.00013763
0.000137869
0.000140417
0.000141006
0.000137755
0.000138529
0.000137798
0.000140233
0.000142602
0.000135932
0.000140559
0.000138395
0.000140716
0.000142564
0.000145192
0.00014044
0.000137845
0.000144132
0.000144545
0.000139515
0.0001463
0.000141003
0.000141402
0.000144026
0.000142573
0.00013903
0.000143471
0.00014547
0.000142967
0.000144127
0.000140413
0.000142742
0.000145581
0.000146752
0.000145911
0.000148375
0.000145625
0.000146889
0.000148927
0.000149477
0.000147777
0.000149411
0.000145182
0.000143776
0.000148422
0.000150206
0.00014749
0.000151608
0.000150276
0.000144735
0.000150259
0.000146625
0.000150962
0.000149575
0.000148702
0.000148777
0.000151458
0.000149615
0.000150048
0.000152795
0.000152396
0.000149396
0.0001504
0.000149472
0.000152252
0.000153627
0.000154646
0.000150146
0.000151015
0.000150436
0.000151153
0.000151713
0.000150225
0.000154378
0.000151278
0.00014973
0.000152124
0.000153521
0.000154371
0.000153373
0.000156687
0.000156334
0.000150894
0.000153217
0.000155102
0.000154442
0.000156564
0.000153307
0.00015234
0.000155754
0.000158296
0.000151527
0.000150802
0.000152509
0.000152419
0.000157631
0.000154983
0.0001535
0.000156123
0.000156614
0.000157111
0.000159604
0.000160555
0.000153713
0.000156817
0.000156312
0.000153965
0.000158966
0.000159693
0.000158941
0.000160513
0.00015877
0.000151637
0.000157267
0.000158323
0.000161273
0.000159629
0.000155449
0.000157349
0.000160773
0.000161897
0.000162231
0.000166646
0.000164974
0.000157545
0.000159319
0.000161557
0.000162304
0.000167197
0.000167942
0.000160134
0.000165046
0.000165319
0.000158329
0.000161182
0.000161206
0.000167342
0.000165482
0.000159842
0.000160795
0.000160956
0.000166849
0.000164994
0.000166552
0.000167823
0.000159337
0.000162049
0.000167592
0.000168444
0.000167201
0.000168065
0.000165677
0.000168115
0.000168144
0.000161241
0.000161206
0.000165755
0.00016687
0.000167969
0.000162036
0.000161905
0.000166056
0.000168444
0.000169981
0.000174421
0.000174185
0.000163178
0.000165904
0.000168328
0.000168526
0.000174038
0.000172904
0.000170189
0.000174364
0.000174448
0.000161769
0.000164663
0.000169909
0.000172817
0.000174018
0.000165938
0.000166009
0.000163703
0.000174817
0.000174337
0.000174091
0.000173079
0.000165737
0.000162951
0.000174418
0.0001731
0.000173652
0.000171833
0.000174658
0.00017327
0.000173557
0.000164575
0.000162343
0.000174183
0.000171777
0.000173003
0.000163165
0.00016317
0.0001722
0.000173247
0.000172084
0.000180166
0.000180816
0.000162556
0.000172762
0.00017275
0.00017112
0.00018046
0.000181943
0.000172605
0.000180786
0.000180302
0.000162407
0.000173403
0.000172021
0.000182182
0.000180902
0.000172446
0.000174252
0.000179837
0.00018459
0.000185208
0.000191152
0.000191667
0.000174801
0.000180415
0.000184787
0.000185925
0.000191217
0.00019194
0.000184776
0.00019164
0.000191402
0.000175294
0.000180623
0.000185201
0.000192128
0.000191596
0.000180183
0.000179825
0.000172989
0.000192539
0.000193078
0.000189105
0.000188988
0.000180354
0.000172868
0.000192599
0.000193319
0.000189178
0.000189083
0.000192815
0.000189006
0.000189239
0.000180551
0.000172978
0.000193
0.00018919
0.000189216
0.000173046
0.000171134
0.000161207
0.00018471
0.000184522
0.000173786
0.000173543
0.000170955
0.000160976
0.000184772
0.000184606
0.000173795
0.000173544
0.000184758
0.000173518
0.000173676
0.00017105
0.000160977
0.000184741
0.000173581
0.000173678
0.000161106
0.000160303
0.000161237
0.000171916
0.000171696
0.000168041
0.000167939
0.000160074
0.000161251
0.000171911
0.000171671
0.000168002
0.000167841
0.000171789
0.000167901
0.000167899
0.000160066
0.00016116
0.0001718
0.000167872
0.000167948
0.000161192
0.000163841
0.00017936
0.000172472
0.000172568
0.000192034
0.000192172
0.000163911
0.000179504
0.000172375
0.000172395
0.000191978
0.000192054
0.00017235
0.000192185
0.000192049
0.000163809
0.000179428
0.000172435
0.000192095
0.000192071
0.000179409
0.00018175
0.000192748
0.000197251
0.000197399
0.000210852
0.000210982
0.000181901
0.000192879
0.000197204
0.000197298
0.000210832
0.000210949
0.000197303
0.000211023
0.00021095
0.000181833
0.00019287
0.000197312
0.000210996
0.000210947
0.000192838
0.000194668
0.000204228
0.000215146
0.000215252
0.000225722
0.000225738
0.000194787
0.000204252
0.000215133
0.000215243
0.000225733
0.000225786
0.000215237
0.000225793
0.000225766
0.000194783
0.000204295
0.000215233
0.000225823
0.000225764
0.000204245
0.00020502
0.000204585
0.000227903
0.000227902
0.00023351
0.000233416
0.00020503
0.00020448
0.000227917
0.00022796
0.000233546
0.000233503
0.000227939
0.000233475
0.000233486
0.000205077
0.000204537
0.000227936
0.000233528
0.000233486
0.000204515
0.000200799
0.000181437
0.000227709
0.000227538
0.000203312
0.000203217
0.000200696
0.000181373
0.000227764
0.00022763
0.000203345
0.000203255
0.000227629
0.00020326
0.000203272
0.000200743
0.000181392
0.000227634
0.00020328
0.000203279
0.000181394
0.000177879
0.000163543
0.000195702
0.000195624
0.000178473
0.000178428
0.000177824
0.000163516
0.00019573
0.000195651
0.000178484
0.000178437
0.00019567
0.000178456
0.000178452
0.000177837
0.000163524
0.000195677
0.000178466
0.000178456
0.000163524
0.000162394
0.000160016
0.000175104
0.000175066
0.000171468
0.000171439
0.000162372
0.000160007
0.00017511
0.000175072
0.000171466
0.000171443
0.000175084
0.00017146
0.000171448
0.000162376
0.000160011
0.000175087
0.000171469
0.000171448
0.000159998
0.00016057
0.000168746
0.000171154
0.000171127
0.000180803
0.00018079
0.000160562
0.000168743
0.000171151
0.000171131
0.000180797
0.000180791
0.000171134
0.000180807
0.000180793
0.000160567
0.000168744
0.000171134
0.000180811
0.000180792
0.000168738
0.000170393
0.000178327
0.000184812
0.000184799
0.000195393
0.000195376
0.000170389
0.000178319
0.000184809
0.000184799
0.000195399
0.000195379
0.000184804
0.000195402
0.000195384
0.000170391
0.000178321
0.000184804
0.000195405
0.00019539
0.000178313
0.000179475
0.000184115
0.00019826
0.000198241
0.00020454
0.000204517
0.000179466
0.000184105
0.000198268
0.000198245
0.000204552
0.000204525
0.000198249
0.000204552
0.000204528
0.000179468
0.000184111
0.000198257
0.000204558
0.000204541
0.000184098
0.000184598
0.000186688
0.000205943
0.00020592
0.000208664
0.000208642
0.000184588
0.00018668
0.000205957
0.000205929
0.000208679
0.000208652
0.000205932
0.00020868
0.000208654
0.000184595
0.000186687
0.000205946
0.00020869
0.000208671
0.000186673
0.000186819
0.000187692
0.000209223
0.000209202
0.000210291
0.000210272
0.000186811
0.000187686
0.000209239
0.000209211
0.000210308
0.00021028
0.000209214
0.000210311
0.000210284
0.000186818
0.000187692
0.000209232
0.00021032
0.000210302
0.000187679
0.000187663
0.000188039
0.000210509
0.000210489
0.000210866
0.000210846
0.000187657
0.000188032
0.000210525
0.000210497
0.000210882
0.000210853
0.000210501
0.000210886
0.000210858
0.000187663
0.000188038
0.00021052
0.000210893
0.000210877
0.000188025
0.000187926
0.000188135
0.000210913
0.000210893
0.000210956
0.000210935
0.000187919
0.000188127
0.00021093
0.0002109
0.000210973
0.000210942
0.000210905
0.000210975
0.000210947
0.000187925
0.000188133
0.000210924
0.000210983
0.000210966
0.000188121
0.000187994
0.000188082
0.00021095
0.000210929
0.00021089
0.00021087
0.000187987
0.000188073
0.000210967
0.000210937
0.000210907
0.000210877
0.000210941
0.00021091
0.000210882
0.000187993
0.000188079
0.00021096
0.000210917
0.000210901
0.000188063
0.000187931
0.000188107
0.000210886
0.000210866
0.000210932
0.000210912
0.000187922
0.000188102
0.000210903
0.000210873
0.000210949
0.000210919
0.000210877
0.000210952
0.000210924
0.000187929
0.000188106
0.000210897
0.000210959
0.000210944
0.000188098
0.00018799
0.000188139
0.000210949
0.000210929
0.000210939
0.000210917
0.000187986
0.000188128
0.000210967
0.000210937
0.000210957
0.000210926
0.000210941
0.000210957
0.000210927
0.00018799
0.000188136
0.00021096
0.000210965
0.000210947
0.000188119
0.000187985
0.00018805
0.00021092
0.000210898
0.000210898
0.000210877
0.000187975
0.000188043
0.000210937
0.000210906
0.000210915
0.000210885
0.000210909
0.000210917
0.000210889
0.000187983
0.000188049
0.000210928
0.000210925
0.000210909
0.000188036
0.000187918
0.000188154
0.00021091
0.00021089
0.000210934
0.000210914
0.000187912
0.000188148
0.000210927
0.000210897
0.000210952
0.000210922
0.000210903
0.000210954
0.000210925
0.000187917
0.000188153
0.000210922
0.000210961
0.000210945
0.000188141
0.000188018
0.000188083
0.000210934
0.000210913
0.00021091
0.000210889
0.000188011
0.000188073
0.000210951
0.000210921
0.000210927
0.000210897
0.000210924
0.000210929
0.0002109
0.000188017
0.00018808
0.000210944
0.000210937
0.000210919
0.000188061
0.000187933
0.000188106
0.000210911
0.00021089
0.000210917
0.000210897
0.000187924
0.000188101
0.000210928
0.000210898
0.000210935
0.000210905
0.000210902
0.000210937
0.000210909
0.000187931
0.000188106
0.000210921
0.000210945
0.000210929
0.000188101
0.000187981
0.000188129
0.000210923
0.000210903
0.000210917
0.000210896
0.000187976
0.00018812
0.00021094
0.000210911
0.000210934
0.000210904
0.000210915
0.000210937
0.000210907
0.000187982
0.000188125
0.000210934
0.000210944
0.000210927
0.000188105
0.000187978
0.000188071
0.000210919
0.000210899
0.000210914
0.000210894
0.000187969
0.000188065
0.000210937
0.000210906
0.000210931
0.000210902
0.00021091
0.000210934
0.000210906
0.000187975
0.000188072
0.000210929
0.000210942
0.000210925
0.000188066
0.000187944
0.000188148
0.000210922
0.000210902
0.000210918
0.000210897
0.00018794
0.000188137
0.000210939
0.000210909
0.000210935
0.000210905
0.000210913
0.000210938
0.000210908
0.000187946
0.000188143
0.000210933
0.000210945
0.000210928
0.00018812
0.000187997
0.00018807
0.000210924
0.000210904
0.000210915
0.000210895
0.000187985
0.000188066
0.000210942
0.000210911
0.000210932
0.000210902
0.000210915
0.000210935
0.000210907
0.000187992
0.000188071
0.000210934
0.000210942
0.000210926
0.000188071
0.000187949
0.000188135
0.000210929
0.00021091
0.000210969
0.000210949
0.000187948
0.000188124
0.000210947
0.000210917
0.000210986
0.000210956
0.000210922
0.000210988
0.00021096
0.000187953
0.000188129
0.000210941
0.000210996
0.000210979
0.000188103
0.00018798
0.000189492
0.000210848
0.000210827
0.000213436
0.000213421
0.000187968
0.000189488
0.000210865
0.000210834
0.000213453
0.00021343
0.000210838
0.000213452
0.000213432
0.000187973
0.000189496
0.000210856
0.000213462
0.00021345
0.000189497
0.000191394
0.000212125
0.000212111
0.000191389
0.00021214
0.00021212
0.000233871
0.000233882
0.000233877
0.000212121
0.000191397
0.000212136
2.7109e-05
3.231e-06
1.65845e-05
1.65727e-05
7.14049e-07
2.19298e-06
1.54938e-06
8.43418e-06
7.73735e-07
2.41146e-06
8.36057e-06
1.54279e-06
2.28497e-06
1.86398e-06
1.81093e-06
1.07638e-06
1.35074e-05
9.7377e-07
1.52949e-05
1.09681e-05
1.32917e-05
1.14389e-06
1.34852e-05
1.05161e-06
1.53032e-05
7.51514e-06
7.44508e-06
7.50542e-06
7.38329e-06
7.48713e-06
7.30351e-06
7.35845e-06
7.13849e-07
3.70847e-07
3.55249e-06
2.1686e-06
7.14647e-07
4.78922e-07
3.51123e-06
1.09491e-05
1.32177e-05
7.24364e-07
3.38522e-06
4.73519e-07
2.23965e-06
7.45389e-07
3.33852e-06
5.91384e-07
1.52349e-06
1.50794e-06
2.26782e-06
1.73997e-06
1.71642e-06
1.27398e-06
1.85597e-05
1.2097e-06
2.09452e-05
1.73552e-05
1.95097e-05
1.31257e-06
1.85885e-05
1.25506e-06
2.0941e-05
7.54386e-06
7.33524e-06
7.39098e-06
7.52636e-06
7.62963e-06
7.44877e-06