/*--------------------------------*- C++ -*----------------------------------*\
| =========                 |                                                 |
| \\      /  F ield         | OpenFOAM: The Open Source CFD Toolbox           |
|  \\    /   O peration     | Version:  v2012                                 |
|   \\  /    A nd           | Website:  www.openfoam.com                      |
|    \\/     M anipulation  |                                                 |
\*---------------------------------------------------------------------------*/
FoamFile
{
    version     2.0;
    format      ascii;
    class       volScalarField;
    location    "300";
    object      p;
}
// * * * * * * * * * * * * * * * * * * * * * * * * * * * * * * * * * * * * * //

dimensions      [0 2 -2 0 0 0 0];


internalField   nonuniform List<scalar> 
171728
(
0.00352415
0.00352308
0.00352311
0.00352379
0.00348856
0.00348715
0.00348704
0.00348999
0.0034504
0.0034484
0.00344841
0.00345073
0.0034062
0.00340451
0.00340449
0.00340677
0.00335789
0.00335637
0.00335638
0.00335876
0.00330911
0.00330768
0.00330771
0.00331009
0.00326112
0.00325984
0.00325987
0.00326222
0.00321384
0.0032127
0.00321271
0.00321509
0.00316742
0.00316639
0.00316642
0.00316882
0.00312213
0.00312125
0.00312123
0.00312361
0.00307772
0.00307693
0.00307695
0.00307933
0.00303403
0.00303335
0.00303334
0.00303574
0.00299094
0.0029904
0.00299032
0.00299274
0.00294821
0.00294774
0.00294773
0.00295013
0.00290583
0.00290547
0.00290534
0.00290782
0.00286379
0.00286353
0.00286337
0.00286586
0.00282209
0.00282193
0.00282177
0.00282415
0.00278071
0.00278056
0.00278048
0.00278271
0.00273972
0.00273947
0.00273959
0.00274156
0.00269906
0.00269898
0.00269899
0.00270102
0.00265874
0.00265853
0.00265852
0.00266056
0.00261875
0.00261879
0.00261861
0.00262034
0.00257901
0.00257887
0.002579
0.00258085
0.00253953
0.00253954
0.00253966
0.00254105
0.00250035
0.00250057
0.00250052
0.00250205
0.00246129
0.00246133
0.00246136
0.0024635
0.00242259
0.00242277
0.00242281
0.00242461
0.002384
0.00238413
0.0023843
0.00238604
0.00234575
0.00234608
0.00234597
0.0023482
0.00230753
0.00230785
0.00230794
0.00230981
0.00226959
0.00226999
0.00226988
0.00227182
0.00223174
0.00223203
0.00223214
0.00223413
0.00219412
0.00219458
0.00219449
0.0021964
0.00215656
0.00215706
0.00215702
0.00215887
0.00211913
0.00211924
0.00211948
0.00212149
0.0020819
0.00208258
0.00208224
0.00208412
0.00204498
0.00204517
0.0020453
0.00204723
0.00200778
0.00200797
0.00200812
0.00201004
0.00197106
0.00197133
0.00197127
0.00197326
0.00193432
0.00193463
0.0019345
0.0019365
0.00189782
0.0018978
0.00189803
0.00190007
0.00186151
0.00186173
0.00186152
0.00186338
0.00182513
0.00182515
0.00182524
0.0018276
0.0017892
0.00178905
0.00178898
0.00179082
0.001753
0.00175318
0.00175323
0.00175516
0.00171745
0.00171704
0.00171705
0.00171937
0.00168156
0.00168152
0.0016815
0.00168339
0.00164592
0.00164569
0.00164573
0.00164787
0.00161043
0.00161028
0.00161023
0.00161227
0.00157509
0.00157476
0.00157487
0.00157686
0.00153986
0.00153969
0.00153964
0.00154168
0.00150478
0.00150443
0.00150442
0.00150647
0.00146979
0.00146927
0.00146945
0.00147142
0.00143465
0.00143476
0.00143443
0.00143654
0.00139995
0.00139939
0.00139973
0.00140152
0.00136514
0.00136474
0.00136461
0.00136673
0.00133029
0.00133018
0.0013301
0.00133211
0.00129563
0.00129544
0.00129557
0.00129736
0.00126149
0.00126102
0.00126094
0.00126298
0.00122684
0.00122676
0.00122665
0.0012286
0.00119269
0.00119231
0.00119242
0.00119425
0.00115819
0.00115795
0.00115805
0.00115982
0.00112457
0.00112466
0.00112464
0.00112658
0.00109075
0.00109014
0.0010901
0.00109196
0.00105539
0.00105507
0.00105507
0.00105691
0.00101996
0.00102028
0.00102029
0.00102239
0.000986486
0.000986728
0.00098674
0.000988764
0.000955015
0.000954543
0.00095455
0.00095618
0.000922846
0.000922066
0.00092207
0.000923625
0.000889159
0.00088868
0.000888679
0.000890447
0.00085193
0.000851671
0.000851667
0.000853739
0.00081115
0.000811665
0.000811662
0.000814206
0.00077144
0.000772346
0.000772346
0.000774915
0.0007349
0.000735323
0.00073532
0.000737556
0.000702141
0.000702087
0.000702082
0.000703841
0.000672022
0.000671443
0.000671443
0.000672899
0.000643119
0.000642825
0.000642824
0.000644325
0.000612732
0.00061257
0.000612574
0.000614289
0.000579492
0.000579407
0.000579407
0.000581313
0.000544407
0.000544358
0.000544358
0.00054637
0.00050845
0.000508422
0.000508422
0.000510484
0.000472129
0.000472107
0.000472107
0.000474191
0.000435683
0.000435657
0.000435657
0.000437746
0.000399195
0.000399169
0.000399169
0.00040126
0.000362687
0.00036266
0.00036266
0.000364752
0.000326182
0.000326156
0.000326156
0.000328246
0.000289673
0.000289645
0.000289645
0.000291735
0.000253166
0.000253139
0.000253139
0.000255227
0.000216661
0.000216634
0.000216634
0.000218722
0.000180155
0.000180129
0.000180129
0.000182212
0.000143651
0.000143626
0.000143626
0.000145702
0.000107141
0.000107118
0.000107118
0.000109178
7.06336e-05
7.06069e-05
7.06048e-05
7.2631e-05
3.48842e-05
3.43102e-05
3.43062e-05
3.61854e-05
6.18576e-06
7.09222e-06
7.08875e-06
5.34514e-06
0.0035286
0.00352616
0.00352612
0.00352855
0.00352616
0.00352611
0.00353255
0.00353252
0.00353253
0.00353251
0.00352607
0.0035261
0.00352853
0.00352612
0.00352612
0.00352855
0.00352382
0.00349476
0.00352309
0.00352311
0.0034966
0.0034966
0.0035238
0.00349477
0.0035231
0.00352312
0.00349659
0.00349656
0.00352308
0.00349657
0.00349656
0.00352382
0.00349467
0.00352309
0.00349664
0.00349656
0.00349475
0.00348999
0.00345624
0.00348711
0.00348718
0.00345853
0.00345851
0.00349002
0.00345623
0.00348712
0.00348707
0.00345852
0.00345849
0.00348715
0.00345848
0.00345851
0.00348997
0.00345618
0.00348714
0.00345849
0.00345852
0.00345623
0.00345072
0.00341296
0.00344838
0.00344843
0.00341607
0.00341611
0.00345072
0.00341296
0.00344838
0.00344842
0.00341607
0.00341608
0.0034484
0.00341605
0.00341606
0.00345069
0.00341292
0.00344843
0.00341608
0.00341604
0.00341297
0.00340676
0.00336523
0.00340451
0.0034045
0.00336861
0.00336866
0.00340676
0.00336524
0.00340452
0.0034045
0.00336862
0.00336863
0.00340451
0.00336863
0.00336862
0.00340672
0.00336523
0.00340454
0.00336862
0.00336863
0.00336525
0.00335874
0.0033165
0.00335637
0.0033563
0.0033198
0.00331981
0.00335874
0.00331647
0.00335638
0.00335637
0.00331981
0.00331981
0.00335638
0.00331981
0.00331981
0.00335875
0.00331651
0.00335638
0.0033198
0.00331982
0.00331651
0.00331008
0.0032685
0.0033077
0.00330763
0.00327173
0.00327168
0.00331006
0.00326852
0.00330771
0.00330771
0.00327174
0.00327173
0.0033077
0.00327172
0.00327173
0.00331009
0.0032685
0.00330771
0.00327171
0.00327173
0.00326851
0.00326221
0.00322129
0.00325987
0.00325982
0.00322446
0.00322443
0.00326222
0.00322131
0.00325986
0.00325987
0.00322446
0.00322446
0.00325986
0.00322443
0.00322445
0.00326221
0.00322127
0.00325988
0.00322444
0.00322444
0.00322128
0.00321509
0.00317486
0.00321272
0.0032127
0.00317789
0.00317788
0.0032151
0.00317488
0.00321271
0.00321271
0.00317789
0.00317789
0.00321271
0.00317786
0.00317788
0.00321508
0.00317486
0.00321272
0.00317788
0.0031779
0.00317487
0.00316882
0.00312953
0.0031664
0.00316639
0.00313245
0.00313243
0.00316882
0.00312953
0.00316641
0.00316642
0.00313244
0.00313244
0.0031664
0.00313242
0.00313245
0.00316881
0.00312952
0.00316641
0.00313244
0.00313245
0.00312953
0.00312364
0.00308511
0.00312124
0.00312123
0.00308792
0.00308797
0.00312364
0.0030851
0.00312125
0.00312123
0.00308793
0.00308792
0.00312123
0.00308796
0.00308795
0.00312362
0.00308511
0.00312124
0.00308791
0.00308795
0.00308512
0.00307934
0.00304143
0.00307695
0.00307692
0.00304419
0.00304418
0.00307931
0.00304142
0.00307694
0.00307693
0.00304419
0.0030442
0.00307693
0.00304418
0.0030442
0.00307933
0.00304141
0.00307692
0.0030442
0.00304419
0.00304143
0.00303573
0.00299834
0.00303334
0.00303335
0.0030011
0.00300108
0.00303574
0.00299833
0.00303334
0.00303334
0.0030011
0.0030011
0.00303332
0.00300107
0.00300101
0.00303571
0.00299835
0.00303334
0.00300111
0.00300102
0.00299831
0.00299273
0.00295564
0.00299034
0.00299039
0.00295834
0.00295844
0.00299274
0.00295563
0.00299034
0.00299031
0.00295834
0.00295836
0.00299044
0.00295843
0.0029584
0.00299273
0.00295562
0.0029904
0.00295835
0.00295837
0.00295566
0.00295008
0.00291326
0.00294774
0.00294775
0.00291598
0.00291608
0.00295006
0.00291328
0.00294773
0.00294774
0.00291596
0.002916
0.00294783
0.00291608
0.00291604
0.00295008
0.00291324
0.00294783
0.00291598
0.00291603
0.00291329
0.00290781
0.00287127
0.00290548
0.00290547
0.00287397
0.00287406
0.00290782
0.00287131
0.00290551
0.00290534
0.00287401
0.00287392
0.00290548
0.00287405
0.00287393
0.00290773
0.00287118
0.00290552
0.00287393
0.00287397
0.00287124
0.00286583
0.00282949
0.0028635
0.00286353
0.00283224
0.00283226
0.00286588
0.00282958
0.00286347
0.00286338
0.00283222
0.0028322
0.00286359
0.00283225
0.0028322
0.00286573
0.00282944
0.00286358
0.00283219
0.00283218
0.00282946
0.00282412
0.00278807
0.0028219
0.00282193
0.00279082
0.00279072
0.00282423
0.00278802
0.00282187
0.00282177
0.00279079
0.00279086
0.00282197
0.00279073
0.00279077
0.00282406
0.00278803
0.00282192
0.00279084
0.00279071
0.00278802
0.00278276
0.00274695
0.00278055
0.00278056
0.00274975
0.00274967
0.00278277
0.00274688
0.00278054
0.00278051
0.00274975
0.00274983
0.0027805
0.00274967
0.00274979
0.00278271
0.00274696
0.00278051
0.0027498
0.00274977
0.00274684
0.0027417
0.00270621
0.00273961
0.00273944
0.00270912
0.00270905
0.00274162
0.00270609
0.00273959
0.00273955
0.00270908
0.00270899
0.00273946
0.00270912
0.0027092
0.0027417
0.00270626
0.00273944
0.00270905
0.00270914
0.00270617
0.002701
0.00266574
0.00269895
0.00269893
0.00266866
0.00266852
0.00270098
0.00266556
0.00269893
0.00269897
0.00266863
0.00266864
0.00269909
0.00266856
0.00266859
0.00270103
0.00266576
0.00269904
0.00266868
0.00266856
0.00266568
0.00266054
0.0026256
0.00265861
0.0026585
0.00262857
0.00262882
0.00266041
0.00262558
0.0026586
0.00265854
0.00262854
0.00262875
0.00265877
0.00262876
0.00262852
0.00266051
0.00262563
0.00265867
0.00262878
0.00262857
0.00262544
0.00262039
0.00258581
0.00261858
0.00261882
0.00258883
0.00258875
0.00262058
0.00258568
0.00261857
0.00261863
0.00258884
0.00258901
0.00261863
0.00258869
0.00258896
0.0026205
0.00258584
0.00261855
0.00258904
0.00258901
0.0025858
0.00258073
0.00254628
0.00257893
0.00257888
0.00254934
0.00254954
0.00258049
0.00254635
0.00257895
0.002579
0.00254932
0.00254951
0.00257911
0.00254952
0.00254922
0.00258079
0.00254639
0.00257913
0.00254952
0.00254923
0.00254611
0.00254123
0.00250722
0.00253947
0.0025395
0.00251023
0.00251028
0.00254123
0.00250726
0.0025395
0.00253963
0.00251019
0.00251019
0.00253951
0.00251021
0.00251024
0.00254145
0.00250711
0.00253955
0.00251017
0.0025102
0.00250717
0.00250217
0.00246827
0.00250036
0.00250054
0.00247119
0.00247114
0.00250252
0.00246799
0.00250036
0.00250053
0.00247117
0.00247109
0.00250028
0.00247107
0.00247129
0.00250236
0.00246797
0.00250031
0.00247108
0.00247127
0.0024685
0.00246337
0.0024294
0.00246146
0.00246139
0.0024324
0.00243245
0.00246291
0.0024299
0.00246146
0.00246138
0.00243236
0.00243246
0.00246151
0.00243244
0.00243239
0.00246293
0.00242991
0.00246154
0.00243248
0.00243237
0.00242922
0.00242449
0.00239118
0.00242277
0.00242284
0.00239383
0.00239377
0.00242508
0.00239096
0.00242273
0.0024228
0.00239384
0.00239384
0.00242284
0.00239387
0.00239379
0.00242494
0.00239082
0.00242286
0.00239387
0.00239378
0.00239118
0.00238621
0.00235302
0.00238423
0.00238417
0.00235559
0.00235558
0.00238584
0.00235332
0.00238424
0.0023843
0.00235559
0.00235551
0.00238412
0.00235563
0.00235558
0.00238594
0.00235318
0.00238418
0.00235554
0.00235554
0.00235305
0.00234819
0.00231453
0.00234604
0.00234601
0.0023173
0.00231729
0.00234856
0.00231447
0.00234604
0.00234593
0.00231729
0.00231737
0.00234597
0.00231729
0.00231736
0.00234824
0.00231436
0.00234596
0.00231735
0.00231736
0.00231463
0.00230956
0.0022771
0.00230783
0.00230778
0.00227944
0.00227946
0.00230948
0.00227705
0.00230783
0.00230792
0.00227946
0.00227942
0.00230787
0.00227943
0.0022794
0.00230955
0.00227719
0.00230787
0.00227941
0.00227937
0.00227678
0.0022722
0.00223856
0.0022699
0.00226998
0.00224151
0.00224139
0.00227214
0.00223885
0.00226988
0.00226986
0.00224152
0.00224159
0.00226992
0.00224147
0.00224152
0.00227222
0.00223875
0.00226993
0.00224159
0.00224156
0.00223903
0.00223368
0.00220157
0.0022321
0.00223204
0.00220392
0.00220397
0.00223392
0.00220139
0.00223213
0.00223213
0.00220391
0.00220385
0.00223208
0.00220396
0.00220394
0.00223392
0.0022013
0.00223208
0.00220383
0.0022039
0.00220127
0.00219664
0.00216383
0.00219455
0.00219459
0.0021664
0.00216654
0.00219659
0.00216403
0.00219453
0.00219452
0.00216638
0.00216639
0.00219455
0.00216651
0.00216637
0.00219633
0.00216397
0.00219453
0.00216641
0.0021664
0.00216381
0.00215897
0.00212618
0.002157
0.00215706
0.00212881
0.00212861
0.00215898
0.00212608
0.00215699
0.002157
0.00212883
0.00212888
0.002157
0.00212864
0.00212885
0.00215909
0.00212622
0.00215701
0.00212885
0.00212883
0.00212638
0.00212125
0.00208913
0.00211946
0.00211923
0.00209151
0.00209171
0.00212129
0.002089
0.00211949
0.00211951
0.00209154
0.0020915
0.0021195
0.00209168
0.00209154
0.00212133
0.00208907
0.00211948
0.0020915
0.00209159
0.00208895
0.00208431
0.00205202
0.0020823
0.0020826
0.00205464
0.00205462
0.00208421
0.00205195
0.00208229
0.00208225
0.00205456
0.00205458
0.00208227
0.00205464
0.00205459
0.00208421
0.00205203
0.00208229
0.00205458
0.00205451
0.00205214
0.00204711
0.00201495
0.0020453
0.00204517
0.00201735
0.00201719
0.00204703
0.00201477
0.00204526
0.0020453
0.00201739
0.00201737
0.00204534
0.00201718
0.00201735
0.00204714
0.00201495
0.00204528
0.00201739
0.00201738
0.00201488
0.00201006
0.00197803
0.00200811
0.00200798
0.00198046
0.00198046
0.00200993
0.00197827
0.00200815
0.00200811
0.00198042
0.00198053
0.00200807
0.00198049
0.00198049
0.0020101
0.0019781
0.00200809
0.00198049
0.00198051
0.00197814
0.00197315
0.00194136
0.00197121
0.0019713
0.00194368
0.00194382
0.00197341
0.00194144
0.00197116
0.00197133
0.00194371
0.0019436
0.00197133
0.0019438
0.00194362
0.00197321
0.00194128
0.00197133
0.00194364
0.00194362
0.00194128
0.00193652
0.00190483
0.00193456
0.00193466
0.00190716
0.00190694
0.00193661
0.00190459
0.00193462
0.00193444
0.00190715
0.00190718
0.00193448
0.00190695
0.00190721
0.00193647
0.00190492
0.00193447
0.00190717
0.00190722
0.00190495
0.0018999
0.00186825
0.00189791
0.00189779
0.00187049
0.0018707
0.00189977
0.00186852
0.00189786
0.00189808
0.00187049
0.00187057
0.00189808
0.00187072
0.00187043
0.00190007
0.00186829
0.00189808
0.00187057
0.00187041
0.00186814
0.0018635
0.00183239
0.00186152
0.00186171
0.00183455
0.00183434
0.00186376
0.001832
0.00186154
0.00186149
0.00183455
0.00183438
0.00186135
0.00183431
0.00183451
0.00186351
0.00183213
0.00186133
0.00183439
0.0018345
0.00183237
0.0018275
0.00179562
0.00182541
0.00182517
0.00179788
0.00179796
0.00182715
0.00179581
0.0018254
0.00182527
0.0017979
0.00179793
0.00182553
0.00179798
0.00179797
0.00182728
0.00179576
0.00182554
0.00179793
0.00179799
0.00179564
0.00179087
0.00176
0.00178884
0.00178902
0.00176206
0.00176219
0.00179106
0.00176012
0.00178884
0.00178896
0.00176204
0.00176219
0.00178879
0.00176219
0.00176195
0.001791
0.00176012
0.00178879
0.0017622
0.00176192
0.00175989
0.00175525
0.00172407
0.00175316
0.00175319
0.0017263
0.00172608
0.00175531
0.00172383
0.00175314
0.00175323
0.00172632
0.00172612
0.0017531
0.00172605
0.00172639
0.00175535
0.00172385
0.00175308
0.00172611
0.00172641
0.00172422
0.00171924
0.0016882
0.00171726
0.00171704
0.00169028
0.00169036
0.00171907
0.00168832
0.00171727
0.00171706
0.00169025
0.00169033
0.00171736
0.00169039
0.00169019
0.00171908
0.00168828
0.00171739
0.00169035
0.0016902
0.00168813
0.00168344
0.00165262
0.00168136
0.00168149
0.00165469
0.00165476
0.00168356
0.00165256
0.00168136
0.00168148
0.00165472
0.00165476
0.00168129
0.00165471
0.00165472
0.00168353
0.00165259
0.00168126
0.00165474
0.00165472
0.00165262
0.00164786
0.00161701
0.00164581
0.00164575
0.00161909
0.001619
0.00164776
0.00161703
0.00164581
0.00164572
0.00161908
0.00161901
0.00164582
0.00161907
0.00161908
0.00164778
0.001617
0.00164586
0.00161902
0.00161908
0.00161701
0.00161226
0.00158163
0.0016102
0.00161021
0.00158369
0.00158376
0.0016123
0.00158161
0.0016102
0.00161017
0.00158369
0.00158373
0.00161023
0.0015837
0.00158368
0.00161226
0.00158165
0.00161017
0.00158374
0.00158364
0.00158159
0.0015769
0.00154633
0.00157486
0.00157483
0.00154835
0.00154834
0.00157684
0.00154636
0.00157487
0.00157491
0.00154837
0.0015484
0.00157479
0.00154839
0.00154835
0.00157692
0.00154636
0.00157484
0.00154841
0.00154847
0.00154639
0.00154161
0.00151126
0.00153956
0.0015396
0.00151331
0.00151335
0.00154167
0.00151124
0.00153957
0.00153959
0.00151327
0.00151324
0.00153963
0.00151332
0.00151337
0.00154164
0.00151119
0.00153968
0.00151323
0.0015132
0.0015112
0.00150655
0.00147613
0.00150457
0.00150451
0.00147817
0.00147802
0.0015065
0.00147599
0.00150454
0.00150449
0.00147824
0.00147819
0.00150452
0.00147797
0.00147805
0.00150648
0.00147614
0.00150439
0.00147819
0.00147819
0.00147611
0.0014714
0.00144113
0.00146935
0.00146928
0.00144316
0.00144329
0.00147129
0.00144136
0.00146942
0.0014694
0.00144311
0.00144311
0.00146933
0.00144337
0.00144333
0.00147143
0.00144112
0.0014695
0.00144317
0.00144325
0.00144125
0.00143645
0.00140631
0.00143448
0.00143466
0.00140836
0.00140833
0.00143672
0.00140619
0.00143439
0.00143441
0.00140836
0.00140843
0.00143462
0.00140829
0.00140828
0.00143643
0.00140636
0.00143445
0.00140841
0.00140826
0.00140621
0.00140162
0.00137149
0.00139962
0.00139951
0.00137351
0.00137344
0.00140145
0.00137138
0.00139968
0.00139975
0.00137357
0.00137347
0.00139949
0.00137336
0.0013734
0.00140169
0.00137138
0.00139959
0.00137338
0.00137349
0.00137141
0.00136679
0.00133663
0.00136483
0.0013648
0.00133873
0.00133877
0.00136671
0.00133678
0.00136484
0.00136468
0.00133864
0.00133859
0.00136479
0.00133887
0.0013389
0.00136665
0.00133662
0.00136478
0.00133866
0.00133878
0.00133679
0.00133193
0.00130207
0.00133
0.00133006
0.00130404
0.00130408
0.00133209
0.00130205
0.00132992
0.00132998
0.00130408
0.00130426
0.00133017
0.00130409
0.00130396
0.00133198
0.00130223
0.0013301
0.00130429
0.00130405
0.00130202
0.00129745
0.00126767
0.00129549
0.00129547
0.00126972
0.00126965
0.00129738
0.00126759
0.00129555
0.00129565
0.00126979
0.00126971
0.00129537
0.00126962
0.00126972
0.00129755
0.00126758
0.00129543
0.00126958
0.00126969
0.00126763
0.00126298
0.00123314
0.00126106
0.00126102
0.00123521
0.00123528
0.00126294
0.00123327
0.00126108
0.00126102
0.00123513
0.00123511
0.00126114
0.0012353
0.00123529
0.0012629
0.00123311
0.00126108
0.00123518
0.00123524
0.00123323
0.00122852
0.00119901
0.0012267
0.00122675
0.00120106
0.00120101
0.00122864
0.00119893
0.00122661
0.00122658
0.00120105
0.00120102
0.00122672
0.00120099
0.00120097
0.00122849
0.00119902
0.00122669
0.00120106
0.00120101
0.00119893
0.00119432
0.00116443
0.00119238
0.00119233
0.00116642
0.00116643
0.00119424
0.0011644
0.00119241
0.00119241
0.00116647
0.00116654
0.0011923
0.00116643
0.00116642
0.00119435
0.00116451
0.00119235
0.00116653
0.00116647
0.00116443
0.00115981
0.00113102
0.00115792
0.00115795
0.0011329
0.00113294
0.0011598
0.00113107
0.00115797
0.00115806
0.00113292
0.00113297
0.00115794
0.00113295
0.00113294
0.0011599
0.00113107
0.00115798
0.00113298
0.00113295
0.00113105
0.00112654
0.00109673
0.00112463
0.00112466
0.00109894
0.00109891
0.00112659
0.00109672
0.00112462
0.00112463
0.0010989
0.00109884
0.00112467
0.00109891
0.00109893
0.00112656
0.00109666
0.00112466
0.00109883
0.00109888
0.00109671
0.00109197
0.00106169
0.00109016
0.00109014
0.00106386
0.00106385
0.00109197
0.00106167
0.00109014
0.0010901
0.00106387
0.00106385
0.00109015
0.00106385
0.00106385
0.00109193
0.00106167
0.00109012
0.00106385
0.00106386
0.00106167
0.00105692
0.00102705
0.00105508
0.00105507
0.00102886
0.00102886
0.0010569
0.00102705
0.00105509
0.00105507
0.00102886
0.00102887
0.00105507
0.00102886
0.00102885
0.00105691
0.00102706
0.00105507
0.00102887
0.00102886
0.00102705
0.00102238
0.000993224
0.00102026
0.00102028
0.00099496
0.000994969
0.00102239
0.000993229
0.00102027
0.00102029
0.000994971
0.000994989
0.00102027
0.000994975
0.000994976
0.0010224
0.000993245
0.00102027
0.000994988
0.00099498
0.000993235
0.000988754
0.000960631
0.00098672
0.000986722
0.000962643
0.00096264
0.000988758
0.000960622
0.000986728
0.000986737
0.000962649
0.000962651
0.00098673
0.000962642
0.000962651
0.000988772
0.000960634
0.000986733
0.00096265
0.000962651
0.000960633
0.000956174
0.000928001
0.000954548
0.000954542
0.00093014
0.000930133
0.000956166
0.000927995
0.000954553
0.000954553
0.000930141
0.000930138
0.000954555
0.000930131
0.000930138
0.000956178
0.000927999
0.000954555
0.000930135
0.000930138
0.000927998
0.000923628
0.000895141
0.000922076
0.000922069
0.000897311
0.000897307
0.000923622
0.000895139
0.000922076
0.000922072
0.00089731
0.000897306
0.000922071
0.000897304
0.000897303
0.000923624
0.000895137
0.000922071
0.000897305
0.000897304
0.000895135
0.000890451
0.000858994
0.000888683
0.000888681
0.000861294
0.000861295
0.000890451
0.000858997
0.000888682
0.000888679
0.000861292
0.00086129
0.000888677
0.000861296
0.000861291
0.000890449
0.000858991
0.000888677
0.000861291
0.000861291
0.000858991
0.00085374
0.000819583
0.00085167
0.000851672
0.000821635
0.000821639
0.000853742
0.000819592
0.000851668
0.000851668
0.000821632
0.000821635
0.000851669
0.00082164
0.000821637
0.000853737
0.000819586
0.000851667
0.000821636
0.000821635
0.000819587
0.0008142
0.000780203
0.000811658
0.000811664
0.00078207
0.000782072
0.000814209
0.000780205
0.000811656
0.00081166
0.00078207
0.00078207
0.000811662
0.000782072
0.000782071
0.000814205
0.000780203
0.00081166
0.000782071
0.000782071
0.000780203
0.000774915
0.000742412
0.000772346
0.000772347
0.000744243
0.000744242
0.000774916
0.000742413
0.000772346
0.000772347
0.000744242
0.000744241
0.000772346
0.000744242
0.00074424
0.000774915
0.00074241
0.000772346
0.000744241
0.000744241
0.000742408
0.000737558
0.000708189
0.000735324
0.000735323
0.000710042
0.000710068
0.00073756
0.0007082
0.000735321
0.000735321
0.000710042
0.000710065
0.00073532
0.000710071
0.000710068
0.000737557
0.000708194
0.00073532
0.000710044
0.000710069
0.000708197
0.000703837
0.000676925
0.000702082
0.000702086
0.000678867
0.000678866
0.000703842
0.000676925
0.000702082
0.000702084
0.000678867
0.000678865
0.000702086
0.000678866
0.000678866
0.000703839
0.000676924
0.000702086
0.000678866
0.000678866
0.000676923
0.0006729
0.000648204
0.000671444
0.000671443
0.000649991
0.000649991
0.000672899
0.000648204
0.000671444
0.000671442
0.00064999
0.00064999
0.000671442
0.000649991
0.00064999
0.000672899
0.000648204
0.000671442
0.000649991
0.00064999
0.000648203
0.000644324
0.000618565
0.000642825
0.000642825
0.000620425
0.000620424
0.000644324
0.000618563
0.000642823
0.000642823
0.000620426
0.000620426
0.000642825
0.000620424
0.000620427
0.000644324
0.000618566
0.000642824
0.000620427
0.000620426
0.000618565
0.000614288
0.000585951
0.000612571
0.00061257
0.000587925
0.000587925
0.000614286
0.000585951
0.000612573
0.000612574
0.000587924
0.000587925
0.000612574
0.000587925
0.000587925
0.00061429
0.00058595
0.000612571
0.000587925
0.000587924
0.00058595
0.000581312
0.000551196
0.000579407
0.000579407
0.000553233
0.000553232
0.000581313
0.000551196
0.000579406
0.000579407
0.000553232
0.000553232
0.000579407
0.000553232
0.000553233
0.000581312
0.000551195
0.000579406
0.000553233
0.000553232
0.000551194
0.000546369
0.000515392
0.000544358
0.000544358
0.000517455
0.000517455
0.000546369
0.000515392
0.000544358
0.000544358
0.000517455
0.000517455
0.000544358
0.000517455
0.000517455
0.00054637
0.000515392
0.000544358
0.000517455
0.000517455
0.000515391
0.000510483
0.000479132
0.000508422
0.000508422
0.000481205
0.000481205
0.000510483
0.000479132
0.000508422
0.000508422
0.000481205
0.000481205
0.000508422
0.000481205
0.000481205
0.000510484
0.000479132
0.000508422
0.000481205
0.000481205
0.000479132
0.00047419
0.000442697
0.000472107
0.000472107
0.000444774
0.000444774
0.00047419
0.000442697
0.000472107
0.000472107
0.000444774
0.000444774
0.000472107
0.000444774
0.000444774
0.00047419
0.000442697
0.000472107
0.000444774
0.000444774
0.000442697
0.000437745
0.000406215
0.000435657
0.000435657
0.000408294
0.000408294
0.000437745
0.000406215
0.000435657
0.000435657
0.000408294
0.000408294
0.000435657
0.000408294
0.000408294
0.000437745
0.000406215
0.000435657
0.000408294
0.000408294
0.000406214
0.000401259
0.000369708
0.000399169
0.000399169
0.000371786
0.000371786
0.000401259
0.000369708
0.000399169
0.000399169
0.000371786
0.000371786
0.000399169
0.000371786
0.000371786
0.000401259
0.000369708
0.000399169
0.000371786
0.000371786
0.000369708
0.000364751
0.000333202
0.00036266
0.00036266
0.00033528
0.00033528
0.000364751
0.000333202
0.00036266
0.00036266
0.00033528
0.00033528
0.00036266
0.00033528
0.000335281
0.000364751
0.000333202
0.00036266
0.00033528
0.000335281
0.000333202
0.000328245
0.000296694
0.000326156
0.000326156
0.000298772
0.000298771
0.000328245
0.000296694
0.000326156
0.000326156
0.000298772
0.000298772
0.000326156
0.000298772
0.000298772
0.000328246
0.000296693
0.000326156
0.000298772
0.000298772
0.000296693
0.000291735
0.000260184
0.000289645
0.000289645
0.000262262
0.000262262
0.000291735
0.000260184
0.000289645
0.000289645
0.000262262
0.000262262
0.000289645
0.000262262
0.000262262
0.000291735
0.000260184
0.000289645
0.000262262
0.000262262
0.000260184
0.000255226
0.000223682
0.000253139
0.000253139
0.000225759
0.000225758
0.000255227
0.000223682
0.000253139
0.000253139
0.000225758
0.000225759
0.000253139
0.000225758
0.000225759
0.000255227
0.000223681
0.000253139
0.000225758
0.000225758
0.000223681
0.000218721
0.000187175
0.000216634
0.000216634
0.000189251
0.00018925
0.000218721
0.000187175
0.000216634
0.000216634
0.00018925
0.00018925
0.000216634
0.000189251
0.000189251
0.000218721
0.000187175
0.000216634
0.00018925
0.00018925
0.000187174
0.000182211
0.000150675
0.000180129
0.000180129
0.000152747
0.000152747
0.000182211
0.000150675
0.000180129
0.000180129
0.000152747
0.000152746
0.00018013
0.000152746
0.000152747
0.000182212
0.000150674
0.000180129
0.000152747
0.000152747
0.000150674
0.000145702
0.000114169
0.000143626
0.000143626
0.000116238
0.000116238
0.000145702
0.000114169
0.000143626
0.000143626
0.000116238
0.000116238
0.000143626
0.000116238
0.000116238
0.000145702
0.000114169
0.000143626
0.000116238
0.000116237
0.000114168
0.000109178
7.7661e-05
0.000107119
0.000107118
7.97239e-05
7.9724e-05
0.000109178
7.76615e-05
0.000107118
0.000107118
7.97233e-05
7.97222e-05
0.000107118
7.97238e-05
7.97224e-05
0.000109177
7.76594e-05
0.000107118
7.9722e-05
7.97219e-05
7.76587e-05
7.26331e-05
4.11901e-05
7.06075e-05
7.06074e-05
4.32496e-05
4.32491e-05
7.26335e-05
4.11888e-05
7.06067e-05
7.06052e-05
4.32479e-05
4.32444e-05
7.06051e-05
4.32474e-05
4.3245e-05
7.26315e-05
4.11844e-05
7.06046e-05
4.32437e-05
4.3244e-05
4.11849e-05
3.61899e-05
8.58527e-06
3.4312e-05
3.43119e-05
1.1612e-05
1.16137e-05
3.61879e-05
8.58727e-06
3.43105e-05
3.43062e-05
1.16153e-05
1.16092e-05
3.43068e-05
1.16151e-05
1.16094e-05
3.61841e-05
8.58198e-06
3.43067e-05
1.16115e-05
1.16132e-05
8.58365e-06
5.34678e-06
7.08946e-06
7.08996e-06
5.34815e-06
7.09162e-06
7.08614e-06
6.18657e-06
6.18478e-06
6.18554e-06
7.08774e-06
5.34297e-06
7.0897e-06
0.00353565
0.00353824
0.00353699
0.00353701
0.00356439
0.00353809
0.00356766
0.00353837
0.00356442
0.00353814
0.00353839
0.00356767
0.00354911
0.00357085
0.00357085
0.00350807
0.00352183
0.00352561
0.00350041
0.00349853
0.0035038
0.00350808
0.00352183
0.00352562
0.00350039
0.00352415
0.00352415
0.00352414
0.00349763
0.00349763
0.00349764
0.00349763
0.00350786
0.00351945
0.00352471
0.00351542
0.00352683
0.00350497
0.0035157
0.00349873
0.00350383
0.00350785
0.00352471
0.00351956
0.00351537
0.00352683
0.00351571
0.00350497
0.00352565
0.00352567
0.00351269
0.00350487
0.00350483
0.00348075
0.0034949
0.00349454
0.00347869
0.00349207
0.00347763
0.00348074
0.00349481
0.00349452
0.00347869
0.00348857
0.00348857
0.00348858
0.00346045
0.00346045
0.00346048
0.00346046
0.00347846
0.00349341
0.00348701
0.0034777
0.00349183
0.00347898
0.00347772
0.00349212
0.00347769
0.00347844
0.00348697
0.00349347
0.00347775
0.0034918
0.00347771
0.00347883
0.00349506
0.00349506
0.00347616
0.00347934
0.00347933
0.00343831
0.00345305
0.00345389
0.00343698
0.00345181
0.00343614
0.00343843
0.00345301
0.00345391
0.00343698
0.0034504
0.00345043
0.0034504
0.00341781
0.00341782
0.00341781
0.00341781
0.0034371
0.00345259
0.00344838
0.003438
0.00345147
0.00343746
0.00343802
0.00345187
0.00343617
0.00343711
0.00344839
0.00345275
0.00343813
0.00345151
0.00343807
0.0034375
0.00345325
0.00345327
0.00343533
0.00343731
0.00343732
0.00339171
0.00340829
0.00340983
0.00339044
0.00340772
0.00338985
0.00339185
0.00340833
0.00340985
0.00339038
0.00340622
0.0034062
0.0034062
0.00337012
0.00337014
0.00337012
0.00337012
0.00339106
0.00340819
0.0034045
0.00339271
0.00340759
0.00339109
0.00339272
0.00340765
0.00338987
0.00339104
0.0034045
0.00340813
0.00339275
0.00340759
0.0033927
0.00339109
0.00340844
0.00340844
0.00338943
0.0033906
0.00339059
0.00334279
0.00335992
0.0033612
0.00334158
0.00335977
0.00334108
0.00334274
0.00335991
0.00336128
0.00334157
0.00335791
0.00335789
0.00335788
0.00332123
0.00332124
0.00332123
0.00332122
0.0033424
0.00335994
0.00335639
0.00334418
0.00335958
0.00334229
0.00334419
0.00335954
0.00334125
0.00334238
0.00335639
0.0033599
0.00334419
0.00335957
0.0033442
0.00334231
0.00336
0.00336001
0.00334084
0.00334168
0.00334169
0.00329377
0.00331105
0.00331201
0.00329298
0.0033108
0.00329288
0.00329378
0.00331102
0.00331205
0.00329293
0.00330912
0.0033091
0.00330909
0.00327304
0.00327306
0.00327304
0.00327303
0.00329377
0.00331104
0.00330772
0.00329563