/*--------------------------------*- C++ -*----------------------------------*\
| =========                 |                                                 |
| \\      /  F ield         | OpenFOAM: The Open Source CFD Toolbox           |
|  \\    /   O peration     | Version:  v2012                                 |
|   \\  /    A nd           | Website:  www.openfoam.com                      |
|    \\/     M anipulation  |                                                 |
\*---------------------------------------------------------------------------*/
FoamFile
{
    version     2.0;
    format      ascii;
    class       volScalarField;
    location    "925";
    object      epsilon;
}
// * * * * * * * * * * * * * * * * * * * * * * * * * * * * * * * * * * * * * //

dimensions      [0 2 -3 0 0 0 0];


internalField   nonuniform List<scalar> 
171728
(
1.36564e-09
3.50216e-09
5.22243e-09
4.88826e-09
1.32671e-09
3.20702e-09
4.77363e-09
4.56118e-09
1.25248e-09
2.91678e-09
4.32902e-09
4.18117e-09
1.19723e-09
2.65621e-09
3.97605e-09
3.78879e-09
1.14822e-09
2.43834e-09
3.73764e-09
3.43071e-09
1.10021e-09
2.26602e-09
3.58659e-09
3.16168e-09
1.05586e-09
2.13084e-09
3.5026e-09
2.96347e-09
1.01286e-09
2.03071e-09
3.48999e-09
2.8089e-09
9.72505e-10
1.96122e-09
3.52593e-09
2.69592e-09
9.35615e-10
1.92228e-09
3.6225e-09
2.61723e-09
9.00964e-10
1.91453e-09
3.81e-09
2.55305e-09
8.68276e-10
1.94123e-09
3.94647e-09
2.51782e-09
8.37548e-10
2.01172e-09
4.02407e-09
2.51423e-09
8.08618e-10
2.1387e-09
4.18486e-09
2.53583e-09
7.81549e-10
2.33081e-09
4.40276e-09
2.61637e-09
7.56558e-10
2.65696e-09
4.69422e-09
2.80264e-09
7.35141e-10
3.13002e-09
4.9207e-09
3.28656e-09
7.11652e-10
3.86681e-09
5.26167e-09
3.78715e-09
6.938e-10
4.95849e-09
5.94653e-09
5.22775e-09
6.83375e-10
6.71565e-09
7.06379e-09
7.55946e-09
6.81676e-10
8.87823e-09
9.02506e-09
1.20069e-08
6.9804e-10
1.28472e-08
1.25213e-08
1.90462e-08
7.19901e-10
1.69638e-08
1.83769e-08
3.18546e-08
7.89544e-10
2.4179e-08
2.38301e-08
5.1972e-08
8.69886e-10
3.35803e-08
3.39278e-08
8.41117e-08
9.74626e-10
4.35468e-08
4.45214e-08
1.07335e-07
1.15105e-09
5.77973e-08
5.85868e-08
1.47785e-07
1.39409e-09
7.59286e-08
7.69712e-08
2.35508e-07
1.72097e-09
9.51298e-08
9.6923e-08
2.98725e-07
2.42995e-09
1.1627e-07
1.17896e-07
3.44687e-07
2.96466e-09
1.45812e-07
1.43473e-07
4.69212e-07
3.90305e-09
1.7763e-07
1.78426e-07
5.43305e-07
5.06508e-09
1.99065e-07
2.05458e-07
5.41703e-07
6.74718e-09
2.44709e-07
2.34982e-07
6.50594e-07
9.28851e-09
2.84642e-07
2.84212e-07
7.27439e-07
1.20395e-08
3.20225e-07
3.23931e-07
7.56092e-07
1.53205e-08
3.56957e-07
3.61599e-07
7.96417e-07
2.02676e-08
4.05976e-07
4.0878e-07
8.44208e-07
2.61961e-08
4.57992e-07
4.57348e-07
8.81111e-07
3.14893e-08
5.06375e-07
5.00066e-07
9.12257e-07
4.24564e-08
5.49372e-07
5.53813e-07
9.37806e-07
5.06963e-08
5.99627e-07
6.04401e-07
9.89303e-07
6.29882e-08
6.49879e-07
6.49882e-07
1.00996e-06
7.47538e-08
6.88987e-07
6.96929e-07
1.02158e-06
9.00206e-08
7.47177e-07
7.34889e-07
1.0639e-06
1.11145e-07
7.86985e-07
7.76961e-07
1.10231e-06
1.29397e-07
8.22601e-07
8.38666e-07
1.11689e-06
1.4047e-07
8.69654e-07
8.75715e-07
1.14212e-06
1.70501e-07
9.05453e-07
9.04987e-07
1.17042e-06
2.13592e-07
9.32775e-07
9.30845e-07
1.18976e-06
2.33999e-07
9.72344e-07
9.71915e-07
1.21701e-06
2.51267e-07
1.00239e-06
1.0027e-06
1.2415e-06
2.8523e-07
1.03039e-06
1.03302e-06
1.25872e-06
3.17277e-07
1.05289e-06
1.04706e-06
1.27326e-06
3.4966e-07
1.0716e-06
1.0757e-06
1.3e-06
3.83713e-07
1.10352e-06
1.1084e-06
1.32076e-06
4.20177e-07
1.12305e-06
1.11822e-06
1.33668e-06
4.39175e-07
1.13822e-06
1.13461e-06
1.34673e-06
4.56522e-07
1.1534e-06
1.15755e-06
1.35443e-06
5.05052e-07
1.17869e-06
1.17067e-06
1.37366e-06
5.40201e-07
1.19248e-06
1.19673e-06
1.40457e-06
5.55428e-07
1.19278e-06
1.20536e-06
1.4103e-06
5.66304e-07
1.21207e-06
1.20894e-06
1.41315e-06
5.97417e-07
1.24225e-06
1.23538e-06
1.4336e-06
6.28817e-07
1.25343e-06
1.24926e-06
1.44469e-06
6.43517e-07
1.2529e-06
1.25057e-06
1.44151e-06
6.5549e-07
1.25705e-06
1.26239e-06
1.4562e-06
6.76515e-07
1.27305e-06
1.27746e-06
1.47908e-06
6.94559e-07
1.28457e-06
1.27957e-06
1.4752e-06
7.07108e-07
1.28718e-06
1.28297e-06
1.47129e-06
7.21652e-07
1.2908e-06
1.29666e-06
1.49959e-06
7.35833e-07
1.30854e-06
1.30671e-06
1.50891e-06
7.49994e-07
1.3094e-06
1.3078e-06
1.49631e-06
7.56733e-07
1.30374e-06
1.30372e-06
1.5074e-06
7.68861e-07
1.31458e-06
1.31544e-06
1.5275e-06
7.78568e-07
1.32205e-06
1.31813e-06
1.50851e-06
7.81035e-07
1.31049e-06
1.30825e-06
1.4968e-06
7.94637e-07
1.31997e-06
1.32289e-06
1.53699e-06
8.0838e-07
1.33089e-06
1.33639e-06
1.54412e-06
8.01535e-07
1.3162e-06
1.32025e-06
1.50824e-06
7.93772e-07
1.31109e-06
1.30379e-06
1.51761e-06
8.12284e-07
1.32776e-06
1.31826e-06
1.54786e-06
8.30974e-07
1.33231e-06
1.34158e-06
1.52541e-06
8.15234e-07
1.31299e-06
1.32171e-06
1.50841e-06
7.9318e-07
1.29911e-06
1.29228e-06
1.5347e-06
8.03758e-07
1.31744e-06
1.30046e-06
1.54061e-06
8.27841e-07
1.32281e-06
1.32384e-06
1.51742e-06
8.19413e-07
1.29293e-06
1.30924e-06
1.50738e-06
7.96366e-07
1.28835e-06
1.28605e-06
1.51717e-06
7.94199e-07
1.30194e-06
1.29545e-06
1.52664e-06
8.01081e-07
1.29589e-06
1.30067e-06
1.52171e-06
7.92646e-07
1.27078e-06
1.26836e-06
1.49133e-06
7.84123e-07
1.25824e-06
1.25825e-06
1.48245e-06
7.89211e-07
1.28061e-06
1.28232e-06
1.50749e-06
7.73413e-07
1.22716e-06
1.22045e-06
1.46016e-06
5.12908e-09
3.90536e-09
5.68246e-09
5.05655e-09
3.84283e-09
3.64846e-09
1.32002e-09
1.32391e-09
1.56945e-09
1.67083e-09
3.73536e-09
4.66121e-09
5.264e-09
4.16988e-09
4.05385e-09
4.93562e-09
5.10024e-09
4.67311e-09
3.59159e-09
2.48525e-08
3.26746e-09
2.10873e-08
4.99768e-09
4.92597e-09
8.67747e-09
3.87115e-09
6.39705e-09
3.66254e-09
1.20341e-08
3.28346e-09
1.08834e-08
5.23962e-09
4.73416e-09
4.0519e-09
4.89549e-09
3.8814e-09
4.62766e-09
4.63847e-09
4.18876e-09
3.16135e-09
1.84872e-08
2.90822e-09
1.04852e-08
4.82428e-09
4.27718e-09
5.66705e-09
3.59743e-09
4.1534e-09
3.42835e-09
1.02375e-08
2.98783e-09
7.91907e-09
4.6993e-09
4.24783e-09
3.81574e-09
4.43386e-09
3.63086e-09
4.21935e-09
4.16083e-09
3.77938e-09
2.84202e-09
8.33652e-09
2.69074e-09
4.41967e-09
4.22165e-09
3.67842e-09
3.87367e-09
3.38033e-09
3.38385e-09
3.24068e-09
7.15131e-09
2.71758e-09
5.24024e-09
4.21856e-09
3.84652e-09
3.573e-09
4.05255e-09
3.40677e-09
3.82155e-09
3.75922e-09
3.44838e-09
2.64527e-09
3.75995e-09
2.50346e-09
2.75116e-09
3.6422e-09
3.23686e-09
3.29742e-09
3.19333e-09
3.14213e-09
3.05757e-09
4.76367e-09
2.48774e-09
3.82054e-09
3.82179e-09
3.518e-09
3.35185e-09
3.78871e-09
3.19038e-09
3.4551e-09
3.43086e-09
3.17091e-09
2.45565e-09
2.59398e-09
2.3319e-09
2.37527e-09
3.22456e-09
2.96152e-09
3.09344e-09
3.01688e-09
2.93139e-09
2.90738e-09
3.62673e-09
2.306e-09
3.27001e-09
3.49789e-09
3.25641e-09
3.14069e-09
3.61783e-09
3.01044e-09
3.1778e-09
3.15919e-09
2.93287e-09
2.2972e-09
2.33808e-09
2.21068e-09
2.19849e-09
2.95179e-09
2.72538e-09
2.88638e-09
2.8742e-09
2.7852e-09
2.78823e-09
3.22291e-09
2.16081e-09
3.20773e-09
3.24207e-09
3.06293e-09
2.97213e-09
3.51922e-09
2.87136e-09
2.97643e-09
2.92384e-09
2.73082e-09
2.18613e-09
2.14271e-09
2.12006e-09
2.01997e-09
2.72075e-09
2.54716e-09
2.7582e-09
2.76386e-09
2.68741e-09
2.70428e-09
3.20822e-09
2.05327e-09
3.14334e-09
3.05264e-09
2.91697e-09
2.84194e-09
3.48863e-09
2.76544e-09
2.81636e-09
2.72466e-09
2.56483e-09
2.10114e-09
1.99672e-09
2.05304e-09
1.94686e-09
2.54405e-09
2.3854e-09
2.66591e-09
2.69054e-09
2.61143e-09
2.66226e-09
3.1366e-09
1.97573e-09
3.1635e-09
2.91104e-09
2.81777e-09
2.74356e-09
3.51387e-09
2.68743e-09
2.69968e-09
2.56216e-09
2.44009e-09
2.04127e-09
1.93385e-09
2.01742e-09
1.90351e-09
2.38557e-09
2.26157e-09
2.5974e-09
2.65588e-09
2.56523e-09
2.64668e-09
3.18856e-09
1.92976e-09
3.23889e-09
2.8158e-09
2.75857e-09
2.67099e-09
3.58818e-09
2.62853e-09
2.61758e-09
2.44134e-09
2.35467e-09
2.01266e-09
1.89628e-09
2.01575e-09
1.88618e-09
2.26455e-09
2.1727e-09
2.55967e-09
2.64561e-09
2.54805e-09
2.64205e-09
3.24444e-09
1.91341e-09
3.22466e-09
2.76076e-09
2.73597e-09
2.61805e-09
3.7604e-09
2.59307e-09
2.55079e-09
2.3594e-09
2.30467e-09
2.02084e-09
1.88747e-09
2.05336e-09
1.90682e-09
2.17888e-09
2.12086e-09
2.54845e-09
2.64384e-09
2.55928e-09
2.65844e-09
3.2143e-09
1.93304e-09
3.20072e-09
2.7426e-09
2.71907e-09
2.59043e-09
3.92606e-09
2.58729e-09
2.50902e-09
2.3153e-09
2.29326e-09
2.069e-09
1.91871e-09
2.13138e-09
1.97115e-09
2.1333e-09
2.10791e-09
2.56615e-09
2.66761e-09
2.61102e-09
2.73538e-09
3.1981e-09
1.99414e-09
3.21142e-09
2.73091e-09
2.77272e-09
2.59028e-09
3.99833e-09
2.61973e-09
2.49807e-09
2.31332e-09
2.3349e-09
2.15742e-09
1.99355e-09
2.25497e-09
2.08478e-09
2.12894e-09
2.14556e-09
2.63255e-09
2.7688e-09
2.71461e-09
2.89561e-09
3.22576e-09
2.10385e-09
3.25353e-09
2.80373e-09
2.90721e-09
2.63665e-09
4.13966e-09
2.70953e-09
2.51e-09
2.36808e-09
2.4452e-09
2.29574e-09
2.1268e-09
2.44856e-09
2.26069e-09
2.17974e-09
2.25287e-09
2.75003e-09
2.95773e-09
2.89209e-09
3.18644e-09
3.26073e-09
2.27778e-09
3.25861e-09
2.95175e-09
3.06304e-09
2.7466e-09
4.3353e-09
2.8749e-09
2.57214e-09
2.50236e-09
2.65647e-09
2.51168e-09
2.32165e-09
2.75203e-09
2.5571e-09
2.30727e-09
2.45268e-09
2.95027e-09
3.25897e-09
3.16185e-09
3.53938e-09
3.26153e-09
2.5679e-09
3.31038e-09
3.11502e-09
3.23253e-09
2.92589e-09
4.61511e-09
3.13488e-09
2.71321e-09
2.74753e-09
3.01929e-09
2.84466e-09
2.6487e-09
3.20327e-09
2.99914e-09
2.55083e-09
2.8306e-09
3.25262e-09
3.65221e-09
3.5934e-09
4.14081e-09
3.39437e-09
3.00295e-09
3.64392e-09
3.31238e-09
3.52274e-09
3.23653e-09
4.88014e-09
3.55991e-09
3.14224e-09
3.17265e-09
3.66872e-09
3.35105e-09
3.13559e-09
3.89581e-09
3.66829e-09
2.97839e-09
3.45292e-09
3.73963e-09
4.36735e-09
4.25626e-09
5.17356e-09
3.71121e-09
3.66055e-09
4.0636e-09
3.64615e-09
4.09454e-09
3.68969e-09
5.0965e-09
4.15484e-09
3.57332e-09
3.92133e-09
4.75834e-09
4.09758e-09
3.87774e-09
4.87762e-09
4.64846e-09
3.70936e-09
4.58219e-09
4.46789e-09
5.55512e-09
5.26842e-09
6.72742e-09
4.23812e-09
4.64597e-09
5.06293e-09
4.37731e-09
5.53323e-09
4.35618e-09
5.77694e-09
5.19467e-09
4.7556e-09
5.1783e-09
6.78826e-09
5.23237e-09
4.97714e-09
6.44101e-09
6.26712e-09
4.99597e-09
6.56018e-09
5.58204e-09
7.1354e-09
6.81527e-09
8.80937e-09
5.39283e-09
6.22199e-09
6.61228e-09
6.01061e-09
7.4881e-09
5.54915e-09
6.71561e-09
6.93337e-09
6.86969e-09
7.51555e-09
1.02579e-08
6.96664e-09
6.73441e-09
8.67654e-09
8.26393e-09
7.27906e-09
9.87985e-09
7.25375e-09
9.40549e-09
9.21566e-09
1.10332e-08
7.10466e-09
8.23464e-09
8.90283e-09
8.11309e-09
1.03848e-08
7.62321e-09
8.50656e-09
1.00288e-08
1.06946e-08
1.13543e-08
1.6102e-08
9.29001e-09
8.94375e-09
1.20717e-08
1.17928e-08
1.09701e-08
1.58073e-08
9.85567e-09
1.13971e-08
1.24963e-08
1.31148e-08
9.62058e-09
1.16551e-08
1.20325e-08
1.13467e-08
1.50801e-08
1.10235e-08
1.14044e-08
1.45413e-08
1.71523e-08
1.80505e-08
2.67168e-08
1.31212e-08
1.29929e-08
1.63285e-08
1.60014e-08
1.80776e-08
2.71241e-08
1.38248e-08
1.42979e-08
1.72412e-08
1.90438e-08
1.30741e-08
1.58876e-08
1.66162e-08
1.6898e-08
2.83447e-08
1.60649e-08
1.67707e-08
2.09847e-08
2.84969e-08
2.94659e-08
4.17577e-08
1.77256e-08
1.707e-08
2.26818e-08
2.24162e-08
2.93169e-08
4.0462e-08
1.87141e-08
2.07595e-08
2.4531e-08
2.4349e-08
1.79832e-08
2.2165e-08
2.31134e-08
3.2143e-08
4.29195e-08
2.25777e-08
2.23255e-08
2.90615e-08
4.6821e-08
4.66577e-08
6.97952e-08
2.47485e-08
2.44199e-08
3.17231e-08
3.10525e-08
4.60492e-08
7.09516e-08
2.64132e-08
2.52751e-08
3.329e-08
3.0622e-08
2.52845e-08
3.09633e-08
3.22459e-08
4.57711e-08
6.26496e-08
3.20815e-08
3.10672e-08
4.1505e-08
7.76996e-08
7.54509e-08
9.68312e-08
3.36466e-08
3.36574e-08
4.1238e-08
4.13406e-08
7.62008e-08
1.01082e-07
3.59912e-08
3.32631e-08
4.40662e-08
4.18092e-08
3.46016e-08
4.09839e-08
4.20754e-08
6.95923e-08
1.04023e-07
4.34982e-08
4.19579e-08
4.56779e-08
1.02211e-07
1.04771e-07
1.4947e-07
4.45764e-08
4.40351e-08
5.47597e-08
5.40236e-08
1.09138e-07
1.42317e-07
4.74232e-08
4.44943e-08
5.83218e-08
5.40029e-08
4.42944e-08
5.36171e-08
5.27223e-08
1.12282e-07
1.44133e-07
4.62823e-08
5.42247e-08
5.82416e-08
1.36008e-07
1.60675e-07
2.05914e-07
5.85121e-08
5.80689e-08
7.2744e-08
7.1737e-08
1.52847e-07
2.10255e-07
6.14906e-08
5.811e-08
7.37242e-08
7.14961e-08
5.6941e-08
7.1516e-08
7.28078e-08
1.54326e-07
2.0624e-07
6.52318e-08
7.2313e-08
8.63965e-08
2.18639e-07
2.18214e-07
2.63749e-07
7.75735e-08
7.61764e-08
8.77724e-08
8.95066e-08
2.23963e-07
2.72864e-07
7.85778e-08
7.6111e-08
8.96774e-08
9.02672e-08
7.82687e-08
8.94806e-08
9.31985e-08
2.20277e-07
2.77327e-07
9.14279e-08
9.18984e-08
9.96695e-08
2.88296e-07
2.75535e-07
3.59287e-07
9.29547e-08
9.51017e-08
1.164e-07
1.12166e-07
2.86927e-07
3.48354e-07
9.40293e-08
9.50862e-08
1.17154e-07
1.12136e-07
9.7853e-08
1.11192e-07
1.08414e-07
2.91372e-07
3.49619e-07
1.01885e-07
1.12364e-07
1.08036e-07
3.32855e-07
3.83262e-07
4.43078e-07
1.24343e-07
1.17575e-07
1.40253e-07
1.37481e-07
3.63649e-07
4.28906e-07
1.25745e-07
1.18471e-07
1.43979e-07
1.36584e-07
1.12075e-07
1.36724e-07
1.42456e-07
3.64813e-07
4.23575e-07
1.11346e-07
1.36394e-07
1.41894e-07
4.37818e-07
4.52825e-07
4.95899e-07
1.44821e-07
1.46173e-07
1.65968e-07
1.71508e-07
4.47526e-07
5.0996e-07
1.48236e-07
1.42837e-07
1.66569e-07
1.67542e-07
1.55211e-07
1.71796e-07
1.81232e-07
4.39635e-07
5.08592e-07
1.54602e-07
1.69205e-07
1.7998e-07
5.38769e-07
5.13261e-07
5.7351e-07
1.74698e-07
1.77357e-07
1.98441e-07
1.91221e-07
5.21996e-07
5.57502e-07
1.74521e-07
1.77086e-07
1.97803e-07
2.0045e-07
1.84101e-07
1.90514e-07
1.8729e-07
5.26213e-07
5.76061e-07
1.82612e-07
1.99942e-07
1.85652e-07
5.34232e-07
5.87196e-07
6.32671e-07
2.05344e-07
2.0007e-07
2.30113e-07
2.34445e-07
5.70954e-07
6.41561e-07
2.04855e-07
2.06119e-07
2.29307e-07
2.25439e-07
1.90624e-07
2.32771e-07
2.25606e-07
5.87712e-07
6.24635e-07
1.89243e-07
2.25456e-07
2.25489e-07
6.2538e-07
6.47624e-07
6.97072e-07
2.40191e-07
2.46361e-07
2.72329e-07
2.76716e-07
6.60525e-07
7.05955e-07
2.39206e-07
2.34834e-07
2.71412e-07
2.70844e-07
2.40718e-07
2.7623e-07
2.82601e-07
6.38857e-07
6.96318e-07
2.40784e-07
2.71849e-07
2.81816e-07
7.16236e-07
7.10855e-07
7.46957e-07
2.82814e-07
2.84537e-07
3.11903e-07
3.09407e-07
7.16109e-07
7.44531e-07
2.81954e-07
2.83047e-07
3.11652e-07
3.14671e-07
2.92912e-07
3.09995e-07
3.16996e-07
7.1225e-07
7.50569e-07
2.91788e-07
3.14992e-07
3.15324e-07
7.47959e-07
7.57893e-07
7.87763e-07
3.21768e-07
3.19968e-07
3.52448e-07
3.49572e-07
7.5572e-07
7.84365e-07
3.21397e-07
3.23838e-07
3.50585e-07
3.51574e-07
3.23647e-07
3.48281e-07
3.46938e-07
7.60912e-07
7.88754e-07
3.21934e-07
3.51195e-07
3.46018e-07
7.8393e-07
7.98929e-07
8.32876e-07
3.62698e-07
3.58904e-07
3.97923e-07
3.94059e-07
7.9476e-07
8.28712e-07
3.60689e-07
3.62083e-07
3.96971e-07
3.96123e-07
3.5773e-07
3.92505e-07
3.98815e-07
7.99606e-07
8.3115e-07
3.57413e-07
3.9636e-07
3.98799e-07
8.33195e-07
8.43888e-07
8.69712e-07
4.10737e-07
4.0668e-07
4.46744e-07
4.44986e-07
8.40389e-07
8.71796e-07
4.10165e-07
4.08183e-07
4.46364e-07
4.4449e-07
4.11945e-07
4.45421e-07
4.45457e-07
8.42083e-07
8.70415e-07
4.11297e-07
4.45259e-07
4.43746e-07
8.71423e-07
8.78195e-07
9.01498e-07
4.5721e-07
4.57718e-07
4.87328e-07
4.94864e-07
8.81798e-07
9.0672e-07
4.56467e-07
4.56755e-07
4.86202e-07
4.90702e-07
4.57425e-07
4.9443e-07
4.95547e-07
8.79717e-07
9.02352e-07
4.55855e-07
4.90197e-07
4.94222e-07
9.04904e-07
9.11565e-07
9.4142e-07
4.99885e-07
5.0687e-07
5.45083e-07
5.39369e-07
9.15265e-07
9.3487e-07
4.99205e-07
5.01044e-07
5.44675e-07
5.38856e-07
5.06267e-07
5.38949e-07
5.32565e-07
9.11091e-07
9.37719e-07
5.04975e-07
5.38961e-07
5.31947e-07
9.28597e-07
9.50661e-07
9.70641e-07
5.59335e-07
5.49943e-07
5.91197e-07
5.8732e-07
9.43082e-07
9.69128e-07
5.58383e-07
5.53077e-07
5.90218e-07
5.93307e-07
5.43168e-07
5.85558e-07
5.90878e-07
9.47606e-07
9.7275e-07
5.42821e-07
5.92502e-07
5.90359e-07
9.78177e-07
9.78007e-07
1.00021e-06
6.01356e-07
6.01429e-07
6.3934e-07
6.39101e-07
9.78175e-07
9.97628e-07
6.00664e-07
6.05526e-07
6.38456e-07
6.38469e-07
6.09337e-07
6.39602e-07
6.52367e-07
9.8039e-07
9.99174e-07
6.08433e-07
6.38863e-07
6.50674e-07
1.00644e-06
1.00842e-06
1.02725e-06
6.51896e-07
6.48593e-07
6.83786e-07
6.76721e-07
1.00413e-06
1.02473e-06
6.50842e-07
6.48927e-07
6.83477e-07
6.84156e-07
6.61211e-07
6.77423e-07
6.77317e-07
1.00722e-06
1.03003e-06
6.59328e-07
6.85018e-07
6.7536e-07
1.01538e-06
1.03358e-06
1.05577e-06
6.93672e-07
6.89041e-07
7.28836e-07
7.34239e-07
1.03377e-06
1.05991e-06
6.93846e-07
6.97088e-07
7.27735e-07
7.30807e-07
6.8275e-07
7.32933e-07
7.17365e-07
1.03696e-06
1.05049e-06
6.81316e-07
7.26826e-07
7.17733e-07
1.05225e-06
1.06585e-06
1.09251e-06
7.43498e-07
7.48155e-07
7.86321e-07
7.78393e-07
1.06737e-06
1.08446e-06
7.40898e-07
7.39044e-07
7.81473e-07
7.66391e-07
7.35048e-07
7.78686e-07
7.88147e-07
1.05648e-06
1.07927e-06
7.35369e-07
7.63677e-07
7.86973e-07
1.09575e-06
1.09788e-06
1.10274e-06
7.96626e-07
7.86904e-07
8.14477e-07
8.13799e-07
1.09074e-06
1.10906e-06
7.92894e-07
7.79452e-07
8.16923e-07
8.24873e-07
8.01276e-07
8.13029e-07
8.23163e-07
1.08861e-06
1.11755e-06
7.99373e-07
8.24059e-07
8.20236e-07
1.11211e-06
1.10702e-06
1.12841e-06
8.18472e-07
8.22847e-07
8.39645e-07
8.55083e-07
1.1159e-06
1.13671e-06
8.226e-07
8.37738e-07
8.46147e-07
8.61895e-07
8.27886e-07
8.57043e-07
8.50361e-07
1.12517e-06
1.14334e-06
8.25674e-07
8.68599e-07
8.52297e-07
1.13462e-06
1.13772e-06
1.16862e-06
8.52188e-07
8.67036e-07
8.99286e-07
8.96361e-07
1.14389e-06
1.16381e-06
8.58457e-07
8.68399e-07
9.01585e-07
8.95285e-07
8.6178e-07
8.99001e-07
8.98968e-07
1.14912e-06
1.16458e-06
8.64492e-07
8.98455e-07
8.99896e-07
1.16417e-06
1.17666e-06
1.19769e-06
9.14643e-07
9.04318e-07
9.47931e-07
9.28671e-07
1.16956e-06
1.183e-06
9.14728e-07
9.04478e-07
9.39935e-07
9.26356e-07
9.08316e-07
9.25033e-07
9.27863e-07
1.17002e-06
1.1829e-06
9.07621e-07
9.22337e-07
9.25023e-07
1.18434e-06
1.20323e-06
1.21349e-06
9.54672e-07
9.36352e-07
9.67227e-07
9.6107e-07
1.18869e-06
1.20887e-06
9.44896e-07
9.34309e-07
9.59864e-07
9.6314e-07
9.35773e-07
9.61834e-07
9.62881e-07
1.18801e-06
1.2088e-06
9.33375e-07
9.62631e-07
9.6239e-07
1.21007e-06
1.21726e-06
1.22804e-06
9.70815e-07
9.70545e-07
9.86004e-07
9.95016e-07
1.2157e-06
1.23446e-06
9.66239e-07
9.7148e-07
9.89722e-07
9.93004e-07
9.71317e-07
9.965e-07
9.95116e-07
1.21613e-06
1.23499e-06
9.71117e-07
9.94485e-07
9.94787e-07
1.23595e-06
1.23403e-06
1.25515e-06
9.93516e-07
1.00107e-06
1.02109e-06
1.0205e-06
1.24023e-06
1.25512e-06
9.98877e-07
1.00118e-06
1.02644e-06
1.02635e-06
1.00331e-06
1.02253e-06
1.02428e-06
1.24077e-06
1.25829e-06
1.00293e-06
1.02716e-06
1.02395e-06
1.25471e-06
1.26097e-06
1.27244e-06
1.02958e-06
1.02834e-06
1.04828e-06
1.04838e-06
1.26037e-06
1.27377e-06
1.03305e-06
1.03286e-06
1.04456e-06
1.04472e-06
1.02862e-06
1.04919e-06
1.04143e-06
1.26348e-06
1.2708e-06
1.02819e-06
1.04367e-06
1.04008e-06
1.26788e-06
1.27662e-06
1.29318e-06
1.05311e-06
1.0525e-06
1.06935e-06
1.06504e-06
1.27808e-06
1.2882e-06
1.04856e-06
1.0478e-06
1.06952e-06
1.06539e-06
1.04782e-06
1.06506e-06
1.07161e-06
1.27404e-06
1.28874e-06
1.04648e-06
1.06624e-06
1.07115e-06
1.29372e-06
1.30029e-06
1.32117e-06
1.07633e-06
1.07161e-06
1.09991e-06
1.09618e-06
1.29348e-06
1.31311e-06
1.07888e-06
1.07494e-06
1.10526e-06
1.10416e-06
1.07941e-06
1.09586e-06
1.09737e-06
1.29642e-06
1.321e-06
1.07944e-06
1.10255e-06
1.09825e-06
1.31579e-06
1.32648e-06
1.33232e-06
1.10691e-06
1.1038e-06
1.12003e-06
1.11946e-06
1.31929e-06
1.33297e-06
1.1113e-06
1.11096e-06
1.1189e-06
1.12097e-06
1.10237e-06
1.11943e-06
1.11794e-06
1.3264e-06
1.33177e-06
1.1028e-06
1.11648e-06
1.11606e-06
1.33254e-06
1.33379e-06
1.32923e-06
1.12183e-06
1.12286e-06
1.12539e-06
1.13323e-06
1.33693e-06
1.34425e-06
1.11917e-06
1.12232e-06
1.11899e-06
1.1264e-06
1.12289e-06
1.13402e-06
1.13487e-06
1.33356e-06
1.3374e-06
1.12074e-06
1.12885e-06
1.13374e-06
1.34373e-06
1.33176e-06
1.34877e-06
1.12871e-06
1.13755e-06
1.14765e-06
1.14908e-06
1.34792e-06
1.3566e-06
1.11961e-06
1.12956e-06
1.13757e-06
1.1475e-06
1.13818e-06
1.14947e-06
1.14664e-06
1.34167e-06
1.3569e-06
1.13752e-06
1.15313e-06
1.14598e-06
1.35123e-06
1.35689e-06
1.38428e-06
1.15484e-06
1.15236e-06
1.17413e-06
1.16802e-06
1.36082e-06
1.37612e-06
1.14828e-06
1.15438e-06
1.18116e-06
1.17259e-06
1.14933e-06
1.17174e-06
1.16365e-06
1.36242e-06
1.37618e-06
1.14808e-06
1.16616e-06
1.16084e-06
1.36659e-06
1.39063e-06
1.40029e-06
1.17921e-06
1.17524e-06
1.19152e-06
1.19228e-06
1.38259e-06
1.39475e-06
1.1893e-06
1.17828e-06
1.19918e-06
1.19494e-06
1.17139e-06
1.19135e-06
1.19508e-06
1.38104e-06
1.3949e-06
1.16885e-06
1.19072e-06
1.19559e-06
1.39888e-06
1.40237e-06
1.39671e-06
1.19451e-06
1.19483e-06
1.19912e-06
1.19694e-06
1.39687e-06
1.39103e-06
1.1995e-06
1.19881e-06
1.1976e-06
1.2029e-06
1.20039e-06
1.19257e-06
1.20664e-06
1.39946e-06
1.40086e-06
1.20212e-06
1.20496e-06
1.20955e-06
1.40898e-06
1.39791e-06
1.40005e-06
1.19966e-06
1.19737e-06
1.20395e-06
1.20649e-06
1.39248e-06
1.40288e-06
1.19719e-06
1.20284e-06
1.19918e-06
1.20345e-06
1.20692e-06
1.2043e-06
1.20844e-06
1.40207e-06
1.40209e-06
1.20966e-06
1.20628e-06
1.20966e-06
1.40952e-06
1.40522e-06
1.4277e-06
1.20918e-06
1.21313e-06
1.22984e-06
1.23368e-06
1.41008e-06
1.4339e-06
1.20457e-06
1.20664e-06
1.22847e-06
1.23087e-06
1.21172e-06
1.23588e-06
1.23156e-06
1.40676e-06
1.4287e-06
1.21087e-06
1.22885e-06
1.22623e-06
1.42804e-06
1.43419e-06
1.44567e-06
1.23612e-06
1.23897e-06
1.24805e-06
1.24793e-06
1.43971e-06
1.44804e-06
1.23589e-06
1.23774e-06
1.24956e-06
1.24861e-06
1.23816e-06
1.25238e-06
1.24992e-06
1.43497e-06
1.44465e-06
1.23231e-06
1.24781e-06
1.24552e-06
1.44285e-06
1.44813e-06
1.44664e-06
1.25004e-06
1.24963e-06
1.25257e-06
1.2523e-06
1.45027e-06
1.448e-06
1.25108e-06
1.24936e-06
1.2521e-06
1.24973e-06
1.25076e-06
1.2535e-06
1.24947e-06
1.44649e-06
1.44349e-06
1.24723e-06
1.25031e-06
1.24824e-06
1.44003e-06
1.44826e-06
1.45213e-06
1.25282e-06
1.25257e-06
1.25599e-06
1.25583e-06
1.44934e-06
1.44947e-06
1.2522e-06
1.2503e-06
1.25743e-06
1.26179e-06
1.24926e-06
1.25362e-06
1.25411e-06
1.44581e-06
1.45553e-06
1.2483e-06
1.25763e-06
1.25531e-06
1.4499e-06
1.45639e-06
1.46848e-06
1.2602e-06
1.25981e-06
1.27351e-06
1.27091e-06
1.45318e-06
1.46456e-06
1.26165e-06
1.26662e-06
1.27468e-06
1.2769e-06
1.26059e-06
1.26962e-06
1.27767e-06
1.46067e-06
1.4714e-06
1.2619e-06
1.27497e-06
1.27931e-06
1.47484e-06
1.47226e-06
1.47467e-06
1.27673e-06
1.27376e-06
1.28084e-06
1.2811e-06
1.46879e-06
1.47593e-06
1.27772e-06
1.27821e-06
1.28134e-06
1.2782e-06
1.2809e-06
1.28235e-06
1.28186e-06
1.47397e-06
1.47069e-06
1.28245e-06
1.27961e-06
1.28224e-06
1.47454e-06
1.47659e-06
1.48013e-06
1.28147e-06
1.28346e-06
1.28726e-06
1.28803e-06
1.47899e-06
1.48181e-06
1.28162e-06
1.27782e-06
1.28403e-06
1.27868e-06
1.27987e-06
1.28718e-06
1.27773e-06
1.47203e-06
1.47423e-06
1.27943e-06
1.28052e-06
1.27651e-06
1.46795e-06
1.48328e-06
1.48835e-06
1.28962e-06
1.28852e-06
1.29373e-06
1.28936e-06
1.48356e-06
1.4841e-06
1.28631e-06
1.28145e-06
1.29246e-06
1.29216e-06
1.27834e-06
1.28791e-06
1.29493e-06
1.47795e-06
1.48815e-06
1.27734e-06
1.29342e-06
1.29687e-06
1.49288e-06
1.4911e-06
1.49701e-06
1.29428e-06
1.29045e-06
1.29991e-06
1.30194e-06
1.48764e-06
1.50003e-06
1.29444e-06
1.29518e-06
1.30228e-06
1.3043e-06
1.30096e-06
1.30543e-06
1.31002e-06
1.49222e-06
1.50042e-06
1.3027e-06
1.30491e-06
1.3097e-06
1.50795e-06
1.50062e-06
1.5041e-06
1.30308e-06
1.30558e-06
1.30824e-06
1.31055e-06
1.50444e-06
1.50676e-06
1.30473e-06
1.30688e-06
1.30776e-06
1.31011e-06
1.31002e-06
1.31086e-06
1.30309e-06
1.50379e-06
1.50635e-06
1.30888e-06
1.30837e-06
1.30053e-06
1.49535e-06
1.50537e-06
1.50089e-06
1.30836e-06
1.31044e-06
1.30687e-06
1.30598e-06
1.50785e-06
1.50011e-06
1.30757e-06
1.30977e-06
1.30541e-06
1.30413e-06
1.30175e-06
1.30422e-06
1.30301e-06
1.50749e-06
1.49949e-06
1.29957e-06
1.30386e-06
1.30365e-06
1.50098e-06
1.50333e-06
1.51214e-06
1.30693e-06
1.30518e-06
1.31384e-06
1.30775e-06
1.50141e-06
1.50705e-06
1.30546e-06
1.30338e-06
1.31251e-06
1.30775e-06
1.308e-06
1.30942e-06
1.32136e-06
1.50083e-06
1.50788e-06
1.31044e-06
1.31173e-06
1.32368e-06
1.52442e-06
1.51588e-06
1.51375e-06
1.31608e-06
1.3128e-06
1.31733e-06
1.32136e-06
1.51202e-06
1.52076e-06
1.31488e-06
1.31224e-06
1.31659e-06
1.31836e-06
1.32284e-06
1.32219e-06
1.31584e-06
1.51245e-06
1.51651e-06
1.32486e-06
1.31935e-06
1.31516e-06
1.50915e-06
1.5145e-06
1.50592e-06
1.31527e-06
1.32159e-06
1.3101e-06
1.3138e-06
1.52226e-06
1.51036e-06
1.31506e-06
1.31824e-06
1.31086e-06
1.31206e-06
1.31002e-06
1.31234e-06
1.30197e-06
1.51741e-06
1.50693e-06
1.30919e-06
1.30917e-06
1.30081e-06
1.49331e-06
1.50848e-06
1.52535e-06
1.31002e-06
1.31191e-06
1.32094e-06
1.31375e-06
1.51136e-06
1.51705e-06
1.31088e-06
1.31127e-06
1.32219e-06
1.31731e-06
1.30223e-06
1.31368e-06
1.32348e-06
1.50839e-06
1.52037e-06
1.30105e-06
1.31578e-06
1.32314e-06
1.52852e-06
1.53177e-06
1.541e-06
1.32643e-06
1.31946e-06
1.33504e-06
1.33042e-06
1.5228e-06
1.53354e-06
1.3275e-06
1.32335e-06
1.33522e-06
1.33411e-06
1.33055e-06
1.33049e-06
1.33774e-06
1.52701e-06
1.53942e-06
1.33087e-06
1.33554e-06
1.33962e-06
1.54442e-06
1.54205e-06
1.51506e-06
1.33502e-06
1.33118e-06
1.31925e-06
1.32261e-06
1.53526e-06
1.52023e-06
1.3349e-06
1.33479e-06
1.31652e-06
1.32525e-06
1.33514e-06
1.32036e-06
1.31167e-06
1.54132e-06
1.52555e-06
1.33776e-06
1.32646e-06
1.31388e-06
1.50834e-06
1.51421e-06
1.49688e-06
1.31249e-06
1.318e-06
1.30121e-06
1.30983e-06
1.52057e-06
1.51247e-06
1.3097e-06
1.31911e-06
1.29923e-06
1.30428e-06
1.30723e-06
1.31062e-06
1.30674e-06
1.52533e-06
1.5052e-06
1.30875e-06
1.30582e-06
1.30591e-06
1.50903e-06
1.49979e-06
1.53155e-06
1.3011e-06
1.3095e-06
1.32227e-06
1.32009e-06
1.51574e-06
1.53009e-06
1.29937e-06
1.30215e-06
1.3226e-06
1.30791e-06
1.31469e-06
1.32401e-06
1.33416e-06
1.50606e-06
1.51514e-06
1.31134e-06
1.3088e-06
1.32952e-06
1.54398e-06
1.54182e-06
1.56265e-06
1.3317e-06
1.32573e-06
1.34644e-06
1.33642e-06
1.53547e-06
1.54384e-06
1.33215e-06
1.31924e-06
1.34774e-06
1.34492e-06
1.33579e-06
1.33262e-06
1.32323e-06
1.52417e-06
1.55432e-06
1.33134e-06
1.33896e-06
1.32303e-06
1.52651e-06
1.56442e-06
1.52618e-06
1.34654e-06
1.33707e-06
1.32152e-06
1.32506e-06
1.54558e-06
1.52759e-06
1.34805e-06
1.34843e-06
1.32474e-06
1.33971e-06
1.31563e-06
1.31923e-06
1.30512e-06
1.55933e-06
1.54284e-06
1.31657e-06
1.3326e-06
1.30714e-06
1.50605e-06
1.52307e-06
1.48504e-06
1.30944e-06
1.31536e-06
1.2864e-06
1.29479e-06
1.52652e-06
1.50109e-06
1.31207e-06
1.32532e-06
1.28535e-06
1.28939e-06
1.3051e-06
1.29999e-06
1.31788e-06
1.54026e-06
1.49512e-06
1.30699e-06
1.29651e-06
1.31727e-06
1.52869e-06
1.48592e-06
1.51198e-06
1.2847e-06
1.29273e-06
1.30331e-06
1.30624e-06
1.50214e-06
1.52172e-06
1.28232e-06
1.28274e-06
1.29393e-06
1.28111e-06
1.32125e-06
1.31114e-06
1.32313e-06
1.49488e-06
1.49478e-06
1.32019e-06
1.29278e-06
1.32182e-06
1.53995e-06
1.52372e-06
1.55302e-06
1.31502e-06
1.3163e-06
1.33436e-06
1.32999e-06
1.53086e-06
1.54588e-06
1.30673e-06
1.2906e-06
1.33149e-06
1.32466e-06
1.32067e-06
1.32439e-06
1.30498e-06
1.50335e-06
1.53863e-06
1.31974e-06
1.32078e-06
1.30598e-06
1.5172e-06
1.55635e-06
1.5306e-06
1.33517e-06
1.32965e-06
1.31459e-06
1.30349e-06
1.54673e-06
1.51086e-06
1.33427e-06
1.33071e-06
1.32259e-06
1.33038e-06
1.30146e-06
1.29874e-06
1.29637e-06
1.54516e-06
1.53911e-06
1.30261e-06
1.3184e-06
1.29644e-06
1.50551e-06
1.52886e-06
1.49858e-06
1.30455e-06
1.29515e-06
1.28449e-06
1.2839e-06
1.5101e-06
1.49691e-06
1.3117e-06
1.31972e-06
1.2867e-06
1.28914e-06
1.29628e-06
1.28679e-06
1.29906e-06
1.53764e-06
1.50249e-06
1.29583e-06
1.28885e-06
1.29637e-06
1.51342e-06
1.4993e-06
1.50448e-06
1.28234e-06
1.28431e-06
1.28745e-06
1.29727e-06
1.50121e-06
1.5193e-06
1.28271e-06
1.28401e-06
1.28317e-06
1.28329e-06
1.30011e-06
1.30007e-06
1.30124e-06
1.50274e-06
1.50552e-06
1.29781e-06
1.28996e-06
1.30149e-06
1.52388e-06
1.50969e-06
1.51646e-06
1.29153e-06
1.30012e-06
1.29579e-06
1.30082e-06
1.5241e-06
1.52177e-06
1.28828e-06
1.28926e-06
1.29494e-06
1.29724e-06
1.30132e-06
1.30029e-06
1.29782e-06
1.51204e-06
1.52228e-06
1.30255e-06
1.30143e-06
1.30206e-06
1.52127e-06
1.51755e-06
1.49391e-06
1.29517e-06
1.29741e-06
1.27755e-06
1.27695e-06
1.52216e-06
1.4939e-06
1.29478e-06
1.29698e-06
1.27774e-06
1.27669e-06
1.29422e-06
1.27667e-06
1.27566e-06
1.52341e-06
1.49197e-06
1.29906e-06
1.27585e-06
1.27497e-06
1.49169e-06
1.49395e-06
1.484e-06
1.27233e-06
1.27088e-06
1.26379e-06
1.25855e-06
1.4934e-06
1.47542e-06
1.27224e-06
1.27032e-06
1.26422e-06
1.26149e-06
1.27036e-06
1.25853e-06
1.26158e-06
1.49132e-06
1.47803e-06
1.26836e-06
1.25749e-06
1.25824e-06
1.47863e-06
1.48828e-06
1.50978e-06
1.2642e-06
1.25831e-06
1.27806e-06
1.27366e-06
1.47753e-06
1.50251e-06
1.26493e-06
1.26239e-06
1.27856e-06
1.27861e-06
1.26184e-06
1.27275e-06
1.27353e-06
1.48256e-06
1.50889e-06
1.25872e-06
1.27721e-06
1.27336e-06
1.50238e-06
1.51515e-06
1.49488e-06
1.28216e-06
1.28164e-06
1.2649e-06
1.27105e-06
1.5113e-06
1.505e-06
1.28182e-06
1.28256e-06
1.26252e-06
1.26395e-06
1.27694e-06
1.26997e-06
1.25836e-06
1.51498e-06
1.49629e-06
1.27722e-06
1.26542e-06
1.25861e-06
1.48656e-06
1.4681e-06
1.22062e-06
1.22796e-06
1.47987e-06
1.21826e-06
1.21915e-06
7.79624e-07
7.7424e-07
7.7099e-07
1.21469e-06
1.46924e-06
1.21459e-06
2.99223e-10
2.41596e-09
2.52389e-10
3.67509e-10
5.44103e-09
3.66149e-09
2.18713e-08
1.02339e-09
5.43454e-09
4.52407e-09
1.41433e-09
9.00222e-09
5.08677e-09
9.43846e-09
6.13415e-09
7.45537e-09
2.24967e-07
6.06749e-09
3.24276e-07
1.71364e-06
3.35049e-06
8.66882e-09
2.08186e-07
7.25119e-09
3.30275e-07
1.44211e-09
1.59964e-09
1.73017e-09
1.34811e-09
1.42075e-09
1.59213e-09
1.71552e-09
4.7958e-09
1.09252e-07
2.70403e-09
3.43957e-09
4.93336e-09
7.81493e-08
2.67687e-09
1.74317e-06
3.27693e-06
4.7294e-09
3.70354e-09
9.22554e-08
5.13383e-09
4.97108e-09
3.65282e-09
6.91296e-08
2.20276e-07
2.15421e-07
4.77484e-09
1.90152e-07
1.84154e-07
1.6837e-08
5.76142e-07
1.21238e-08
8.00844e-07
7.33887e-06
1.03873e-05
1.80423e-08
6.24589e-07
1.33118e-08
9.22639e-07
1.36287e-09
1.57839e-09
1.68776e-09
1.2689e-09
1.18828e-09