/*--------------------------------*- C++ -*----------------------------------*\
| =========                 |                                                 |
| \\      /  F ield         | OpenFOAM: The Open Source CFD Toolbox           |
|  \\    /   O peration     | Version:  v2012                                 |
|   \\  /    A nd           | Website:  www.openfoam.com                      |
|    \\/     M anipulation  |                                                 |
\*---------------------------------------------------------------------------*/
FoamFile
{
    version     2.0;
    format      ascii;
    class       volScalarField;
    location    "925";
    object      nut;
}
// * * * * * * * * * * * * * * * * * * * * * * * * * * * * * * * * * * * * * //

dimensions      [0 2 -1 0 0 0 0];


internalField   nonuniform List<scalar> 
171728
(
1.61595e-06
2.34472e-06
2.00559e-06
2.18458e-06
1.61338e-06
2.13098e-06
1.99592e-06
2.23708e-06
1.60936e-06
1.99461e-06
1.95685e-06
2.39675e-06
1.60759e-06
1.90058e-06
1.84413e-06
2.52939e-06
1.64672e-06
1.78727e-06
1.70724e-06
2.30643e-06
1.6606e-06
1.70499e-06
1.56343e-06
2.17981e-06
1.66397e-06
1.66617e-06
1.46412e-06
2.09562e-06
1.65931e-06
1.63435e-06
1.39993e-06
2.0725e-06
1.65177e-06
1.58899e-06
1.37085e-06
2.01932e-06
1.64355e-06
1.52345e-06
1.34136e-06
1.95627e-06
1.6382e-06
1.44181e-06
1.29807e-06
1.94185e-06
1.63217e-06
1.35206e-06
1.53054e-06
1.91383e-06
1.62491e-06
1.2607e-06
2.32953e-06
1.88695e-06
1.62071e-06
1.16923e-06
3.7324e-06
1.82877e-06
1.61484e-06
1.08593e-06
5.40025e-06
1.63696e-06
1.61237e-06
9.98059e-07
6.39013e-06
1.37949e-06
1.61166e-06
9.43163e-07
6.28508e-06
1.13739e-06
1.62086e-06
9.10173e-07
3.42954e-06
1.19173e-06
1.59992e-06
9.37199e-07
1.85254e-06
9.44535e-07
1.5825e-06
1.03127e-06
1.49908e-06
1.37723e-06
1.56723e-06
1.30251e-06
1.37318e-06
1.43562e-06
1.52948e-06
1.33873e-06
1.5872e-06
2.76861e-06
1.51385e-06
2.49679e-06
1.92024e-06
3.69445e-06
1.44642e-06
2.37065e-06
3.20257e-06
6.43938e-06
1.41889e-06
4.30989e-06
3.47038e-06
9.42956e-06
1.42527e-06
5.36618e-06
5.78449e-06
1.77986e-05
1.29529e-06
6.44406e-06
6.6254e-06
1.63286e-05
1.11019e-06
9.06879e-06
9.08377e-06
1.93652e-05
1.07344e-06
1.17811e-05
1.18795e-05
3.76853e-05
8.37742e-07
1.4901e-05
1.5174e-05
4.16076e-05
1.45161e-06
1.65912e-05
1.79481e-05
3.47079e-05
1.27735e-06
2.27115e-05
2.06641e-05
6.27848e-05
1.74054e-06
2.91914e-05
2.9226e-05
7.05856e-05
1.85899e-06
2.61208e-05
3.08055e-05
5.01051e-05
2.41327e-06
3.76177e-05
3.25559e-05
7.18412e-05
3.57677e-06
4.26271e-05
4.3378e-05
7.9328e-05
4.42889e-06
4.8889e-05
4.78778e-05
7.86617e-05
4.99798e-06
4.94063e-05
5.16071e-05
8.16103e-05
7.02321e-06
5.77362e-05
5.86097e-05
8.82702e-05
9.67377e-06
6.5189e-05
6.65185e-05
9.21312e-05
9.27625e-06
7.26227e-05
6.75927e-05
9.61578e-05
1.58402e-05
7.54944e-05
7.77635e-05
9.43891e-05
1.58237e-05
8.29437e-05
8.4123e-05
0.000107733
2.17529e-05
9.01551e-05
8.86145e-05
0.000109754
2.33859e-05
9.06687e-05
9.64862e-05
0.000105926
2.70433e-05
0.000103916
9.88065e-05
0.000113451
3.59325e-05
0.0001068
0.000100756
0.000122313
4.39487e-05
0.000108386
0.000115337
0.000121367
3.80017e-05
0.00011832
0.000119319
0.000124052
4.53188e-05
0.000122445
0.000123018
0.000130438
6.79569e-05
0.000122886
0.000121898
0.000129568
7.13363e-05
0.000131459
0.000130798
0.000135774
6.60986e-05
0.000134681
0.000135174
0.000139558
7.87512e-05
0.000140672
0.000142745
0.000142415
8.54108e-05
0.00014451
0.000140562
0.000140931
9.18169e-05
0.000143455
0.000145685
0.000148153
9.97981e-05
0.000153773
0.000156237
0.000151263
0.000115184
0.000156859
0.000156082
0.000153646
0.00011632
0.000160019
0.000156916
0.00015671
0.000106196
0.00016088
0.000164541
0.000155676
0.000126364
0.000168794
0.000163818
0.000157145
0.000142018
0.000174237
0.000174116
0.000167469
0.000145724
0.000171128
0.000175985
0.000167385
0.000138365
0.000169601
0.00017192
0.000164807
0.000146124
0.000184167
0.000181573
0.000172081
0.000161897
0.000189288
0.000187529
0.000175415
0.00016672
0.000187567
0.000185639
0.000171707
0.000165457
0.000185175
0.000186801
0.000173332
0.000172439
0.000191387
0.00019499
0.00018293
0.000180947
0.000196763
0.00019559
0.000181703
0.000183623
0.000197855
0.000193792
0.000175456
0.000188131
0.000195956
0.000199655
0.0001857
0.000193515
0.00020544
0.000204848
0.00019039
0.000202216
0.000207756
0.000206845
0.000184443
0.000202121
0.000204098
0.000203941
0.000184931
0.000206854
0.000207893
0.000209746
0.000196586
0.000213842
0.000214315
0.000213362
0.000191812
0.000211453
0.000209658
0.000207921
0.00018157
0.000216756
0.000212675
0.000213004
0.000196284
0.000230813
0.000221191
0.000223125
0.000204515
0.000229682
0.000217498
0.000221121
0.000190315
0.000218763
0.000213112
0.000212664
0.000189626
0.000223574
0.000221754
0.000214316
0.00020531
0.000248059
0.000228217
0.0002303
0.000200253
0.000250629
0.000224319
0.000231971
0.000190089
0.000228156
0.000215662
0.00021693
0.000199688
0.000223041
0.000223997
0.000214475
0.000207081
0.000250928
0.000234452
0.000231013
0.000199847
0.000260075
0.000223983
0.000233341
0.000194874
0.000243786
0.000219116
0.000221154
0.000198772
0.000239444
0.000229001
0.000224468
0.000203837
0.000250054
0.000234634
0.000235132
0.000207532
0.000250592
0.000225694
0.000225451
0.000197724
0.000244076
0.000216748
0.00021681
0.000191762
0.000252687
0.000229216
0.000231942
0.000208116
2.28614e-06
2.47596e-06
2.95977e-06
2.18078e-06
2.29091e-06
1.92435e-06
1.61266e-06
1.75577e-06
1.73116e-06
2.02545e-06
2.36641e-06
2.96624e-06
2.28587e-06
2.06876e-06
2.14908e-06
2.1894e-06
2.27895e-06
2.3024e-06
2.49989e-06
3.5433e-06
2.33443e-06
4.22868e-06
2.17663e-06
2.30091e-06
3.61119e-06
2.15671e-06
3.87256e-06
1.70883e-06
3.03668e-06
2.17366e-06
3.35464e-06
2.27903e-06
2.24361e-06
1.80071e-06
1.99885e-06
1.77222e-06
2.22762e-06
2.29775e-06
2.26705e-06
2.24746e-06
4.78389e-06
1.92462e-06
8.16703e-06
2.32675e-06
2.76739e-06
3.84401e-06
1.64278e-06
3.30137e-06
1.54089e-06
3.55594e-06
2.01997e-06
4.46078e-06
2.24205e-06
2.19459e-06
1.76059e-06
1.97524e-06
1.72538e-06
2.40278e-06
2.25696e-06
2.1667e-06
1.82188e-06
9.59133e-06
1.6118e-06
9.11078e-06
2.74799e-06
2.47243e-06
2.97802e-06
1.52014e-06
2.11666e-06
1.47011e-06
4.92815e-06
1.92478e-06
6.4302e-06
2.19268e-06
2.13471e-06
1.71305e-06
1.87488e-06
1.68055e-06
2.56304e-06
2.15693e-06
2.07132e-06
1.57646e-06
7.76219e-06
1.51762e-06
3.80346e-06
2.4244e-06
2.24546e-06
1.92748e-06
1.45513e-06
1.58022e-06
1.4217e-06
6.48427e-06
1.81508e-06
4.95911e-06
2.13292e-06
2.0655e-06
1.67226e-06
1.74358e-06
1.65466e-06
2.33969e-06
2.06776e-06
2.00547e-06
1.50824e-06
3.04545e-06
1.48035e-06
1.89725e-06
2.22065e-06
2.09689e-06
1.52782e-06
1.41082e-06
1.51701e-06
1.37508e-06
4.26617e-06
1.71964e-06
2.69211e-06
2.06358e-06
1.99009e-06
1.65106e-06
1.59619e-06
1.63482e-06
2.19219e-06
2.00247e-06
1.96369e-06
1.46875e-06
1.74233e-06
1.42838e-06
1.60425e-06
2.09493e-06
2.0499e-06
1.52287e-06
1.3633e-06
1.5197e-06
1.31952e-06
2.38543e-06
1.67374e-06
1.85897e-06
1.98782e-06
1.9117e-06
1.62823e-06
1.48401e-06
1.60105e-06
2.0977e-06
1.96167e-06
1.92548e-06
1.41683e-06
1.61329e-06
1.39206e-06
1.60977e-06
2.04257e-06
1.97737e-06
1.51761e-06
1.30388e-06
1.51359e-06
1.25996e-06
1.79958e-06
1.64122e-06
1.81585e-06
1.90996e-06
1.83891e-06
1.59044e-06
1.41307e-06
1.55479e-06
2.07482e-06
1.92334e-06
1.88454e-06
1.38174e-06
1.59195e-06
1.33269e-06
1.53963e-06
1.97309e-06
1.93843e-06
1.51457e-06
1.24197e-06
1.5132e-06
1.19072e-06
1.81923e-06
1.60167e-06
1.79174e-06
1.83641e-06
1.75651e-06
1.54064e-06
1.37557e-06
1.49506e-06
2.02512e-06
1.88055e-06
1.81379e-06
1.31149e-06
1.52635e-06
1.24752e-06
1.48216e-06
1.93408e-06
1.88033e-06
1.50827e-06
1.17884e-06
1.48831e-06
1.14569e-06
1.7769e-06
1.53923e-06
1.7759e-06
1.75157e-06
1.66439e-06
1.48017e-06
1.35185e-06
1.43196e-06
1.96003e-06
1.80811e-06
1.73249e-06
1.22962e-06
1.46627e-06
1.17957e-06
1.41052e-06
1.87413e-06
1.79238e-06
1.48031e-06
1.13335e-06
1.45951e-06
1.09321e-06
1.82415e-06
1.46313e-06
2.04424e-06
1.65859e-06
1.56876e-06
1.41228e-06
1.3027e-06
1.34297e-06
1.94411e-06
1.72724e-06
1.6559e-06
1.16379e-06
1.38866e-06
1.11845e-06
1.32286e-06
1.78481e-06
1.69346e-06
1.4496e-06
1.07513e-06
1.41631e-06
1.00215e-06
2.13585e-06
1.37258e-06
2.48247e-06
1.56232e-06
1.54476e-06
1.31639e-06
1.42925e-06
1.24428e-06
1.92034e-06
1.6486e-06
1.57027e-06
1.10545e-06
1.30148e-06
1.07458e-06
1.23922e-06
1.68355e-06
1.59142e-06
1.40385e-06
9.75697e-07
1.35368e-06
8.88781e-07
2.63076e-06
1.28072e-06
3.11027e-06
1.54735e-06
1.61453e-06
1.22053e-06
2.06957e-06
1.14228e-06
1.89569e-06
1.55824e-06
1.4787e-06
1.06509e-06
1.21829e-06
1.04012e-06
1.15369e-06
1.57766e-06
1.47771e-06
1.33914e-06
8.63529e-07
1.30407e-06
8.19267e-07
3.24814e-06
1.19041e-06
3.53621e-06
1.64361e-06
1.83727e-06
1.11295e-06
3.33569e-06
1.03224e-06
1.84714e-06
1.46355e-06
1.39977e-06
1.03165e-06
1.12973e-06
1.00543e-06
1.07228e-06
1.45933e-06
1.36031e-06
1.29154e-06
8.04191e-07
1.24365e-06
7.65871e-07
3.57633e-06
1.10551e-06
3.57066e-06
1.87895e-06
2.13848e-06
1.00361e-06
5.01247e-06
9.41915e-07
1.67109e-06
1.38224e-06
1.32791e-06
9.99131e-07
1.05096e-06
9.75828e-07
9.8141e-07
1.34036e-06
1.25494e-06
1.22905e-06
7.69756e-07
1.18621e-06
8.78532e-07
3.44017e-06
1.01465e-06
2.44922e-06
2.18376e-06
2.4326e-06
9.2686e-07
6.25864e-06
8.691e-07
1.42017e-06
1.31159e-06
1.25995e-06
9.74619e-07
9.66642e-07
9.6413e-07
9.15568e-07
1.2272e-06
1.15003e-06
1.16798e-06
9.17997e-07
1.12877e-06
1.06472e-06
2.15252e-06
9.50067e-07
1.61424e-06
2.4452e-06
2.41342e-06
8.47839e-07
6.3817e-06
8.11391e-07
1.16144e-06
1.24042e-06
1.19293e-06
9.63102e-07
9.05545e-07
9.60301e-07
8.96008e-07
1.13736e-06
1.10104e-06
1.11309e-06
1.14077e-06
1.11567e-06
1.62487e-06
1.51457e-06
9.21271e-07
1.33341e-06
2.362e-06
2.0218e-06
8.03402e-07
4.20892e-06
7.8679e-07
1.19898e-06
1.18186e-06
1.20478e-06
9.6342e-07
8.82204e-07
9.92616e-07
9.17246e-07
1.0851e-06
1.07847e-06
1.11832e-06
1.82863e-06
1.11642e-06
2.5383e-06
1.28943e-06
9.35594e-07
1.12986e-06
1.92215e-06
1.69372e-06
8.03393e-07
2.06164e-06
7.66813e-07
9.75378e-07
1.21115e-06
1.25221e-06
9.87313e-07
9.14492e-07
1.03987e-06
9.72712e-07
1.10295e-06
1.19281e-06
1.13742e-06
2.80579e-06
1.16423e-06
3.35382e-06
1.08732e-06
1.00199e-06
1.21152e-06
1.70381e-06
2.07609e-06
7.50303e-07
1.56104e-06
9.19345e-07
1.26823e-06
1.27982e-06
1.67948e-06
1.05786e-06
1.01623e-06
1.26912e-06
1.17081e-06
1.23564e-06
1.48482e-06
1.19421e-06
3.40013e-06
1.36998e-06
3.57203e-06
1.25149e-06
1.1749e-06
1.25973e-06
2.12344e-06
2.18569e-06
9.64595e-07
1.36784e-06
1.14606e-06
1.35417e-06
1.79627e-06
2.17537e-06
1.32771e-06
1.28058e-06
1.50754e-06
1.34107e-06
1.64894e-06
1.98758e-06
1.386e-06
3.64427e-06
1.74588e-06
3.18078e-06
1.35069e-06
1.37427e-06
1.70554e-06
2.26483e-06
2.56275e-06
1.35321e-06
1.5543e-06
2.10007e-06
2.60674e-06
2.38511e-06
3.07134e-06
1.58588e-06
1.31911e-06
1.993e-06
2.11669e-06
1.86887e-06
3.66333e-06
1.75794e-06
2.82722e-06
2.24021e-06
2.16284e-06
1.75737e-06
2.07457e-06
1.99e-06
2.56532e-06
2.19173e-06
2.36656e-06
1.61486e-06
3.24717e-06
3.38661e-06
3.53643e-06
5.48735e-06
2.23247e-06
2.5264e-06
2.63122e-06
2.44763e-06
4.77544e-06
4.80843e-06
2.63494e-06
2.19976e-06
2.80204e-06
3.7329e-06
2.2028e-06
2.48249e-06
2.7843e-06
2.51257e-06
7.71888e-06
3.68774e-06
3.05084e-06
5.34653e-06
6.04174e-06
5.23434e-06
7.56454e-06
2.61372e-06
2.35115e-06
3.69084e-06
3.91143e-06
4.26922e-06
8.13289e-06
3.03872e-06
4.12619e-06
4.24515e-06
4.13563e-06
2.80633e-06
3.85617e-06
3.82889e-06
8.18552e-06
7.32749e-06
5.30227e-06
3.39186e-06
6.04146e-06
8.03973e-06
9.34021e-06
1.33767e-05
4.29341e-06
4.3591e-06
5.13113e-06
4.60659e-06
1.04879e-05
1.19469e-05
4.5609e-06
3.93284e-06
6.04848e-06
4.73592e-06
4.44386e-06
4.62278e-06
5.19311e-06
7.32036e-06
9.96397e-06
7.23363e-06
4.9756e-06
1.05918e-05
1.72635e-05
1.29734e-05
1.43248e-05
4.99836e-06
5.29839e-06
6.65512e-06
6.64725e-06
1.17354e-05
1.87631e-05
5.98696e-06
5.44871e-06
7.05585e-06
6.67693e-06
5.5457e-06
6.63292e-06
7.25159e-06
1.17344e-05
1.86686e-05
1.07391e-05
6.67611e-06
7.90928e-06
1.70126e-05
1.60647e-05
2.42111e-05
7.47831e-06
6.62034e-06
7.84108e-06
8.07373e-06
1.9373e-05
1.86562e-05
8.39977e-06
6.80895e-06
9.62484e-06
8.08586e-06
7.08773e-06
8.02607e-06
7.13272e-06
1.85948e-05
2.0703e-05
6.9304e-06
8.17806e-06
7.37267e-06
1.7065e-05
2.50126e-05
3.12207e-05
8.34482e-06
9.0218e-06
1.27584e-05
1.14817e-05
2.10558e-05
3.27008e-05
9.33061e-06
8.85829e-06
1.26489e-05
1.1199e-05
8.28332e-06
1.14243e-05
1.17311e-05
2.22507e-05
3.00475e-05
1.01412e-05
1.11612e-05
1.66597e-05
3.49883e-05
3.34084e-05
3.009e-05
1.33247e-05
1.18878e-05
1.16158e-05
1.30057e-05
3.31446e-05
3.54234e-05
1.39171e-05
1.19633e-05
1.23228e-05
1.36256e-05
1.24575e-05
1.32913e-05
1.55558e-05
3.15792e-05
3.72737e-05
1.73891e-05
1.44635e-05
1.73385e-05
4.11384e-05
2.93021e-05
4.93928e-05
1.1797e-05
1.45433e-05
1.99502e-05
1.73999e-05
3.72578e-05
4.32692e-05
1.20279e-05
1.41161e-05
1.97239e-05
1.75735e-05
1.68835e-05
1.71427e-05
1.4561e-05
3.85533e-05
4.42212e-05
1.75789e-05
1.72639e-05
1.43904e-05
3.60372e-05
5.37712e-05
5.36454e-05
2.19239e-05
1.69683e-05
2.11746e-05
2.00996e-05
4.40311e-05
5.0426e-05
2.23273e-05
1.87673e-05
2.26638e-05
1.98428e-05
1.37515e-05
1.99213e-05
2.26772e-05
4.55351e-05
4.82055e-05
1.3547e-05
1.9857e-05
2.28111e-05
5.43945e-05
5.2684e-05
5.51855e-05
2.06412e-05
2.26301e-05
2.54582e-05
2.92562e-05
5.33288e-05
6.12449e-05
2.20462e-05
2.03458e-05
2.54588e-05
2.58614e-05
2.77365e-05
2.96032e-05
3.2904e-05
4.96478e-05
5.91159e-05
2.78538e-05
2.68174e-05
3.26153e-05
7.14873e-05
5.82302e-05
6.35803e-05
2.77225e-05
2.8842e-05
2.9764e-05
2.57067e-05
6.13111e-05
5.7202e-05
2.74761e-05
2.86999e-05
2.98722e-05
3.17383e-05
3.22564e-05
2.58657e-05
2.59541e-05
6.11658e-05
6.48382e-05
3.18895e-05
3.12194e-05
2.54317e-05
5.11391e-05
6.3807e-05
6.70283e-05
2.99325e-05
2.62607e-05
3.34909e-05
3.57175e-05
5.73276e-05
7.11328e-05
3.01038e-05
3.10244e-05
3.32296e-05
3.10916e-05
2.45319e-05
3.51919e-05
3.18172e-05
6.48917e-05
6.43281e-05
2.40573e-05
3.09449e-05
3.21326e-05
6.77653e-05
6.86089e-05
7.43621e-05
3.51719e-05
3.81887e-05
4.10916e-05
4.26419e-05
7.36774e-05
7.56521e-05
3.49611e-05
3.27719e-05
4.08176e-05
4.06776e-05
3.62002e-05
4.26331e-05
4.42567e-05
6.55601e-05
7.47391e-05
3.65123e-05
4.12886e-05
4.42128e-05
7.86274e-05
7.56791e-05
7.86178e-05
4.25695e-05
4.22552e-05
4.56676e-05
4.57941e-05
7.60426e-05
7.84492e-05
4.23297e-05
4.28303e-05
4.62014e-05
4.72797e-05
4.61043e-05
4.62259e-05
4.84263e-05
7.66103e-05
7.92568e-05
4.59784e-05
4.7346e-05
4.78831e-05
7.87717e-05
7.9282e-05
8.12948e-05
4.73357e-05
4.83895e-05
5.05132e-05
4.93737e-05
7.95518e-05
8.07688e-05
4.76864e-05
4.77856e-05
4.98402e-05
5.0711e-05
4.80997e-05
4.90354e-05
4.75329e-05
7.97217e-05
8.16614e-05
4.73853e-05
5.04161e-05
4.74174e-05
8.01531e-05
8.22548e-05
8.72479e-05
5.12858e-05
5.03352e-05
5.71127e-05
5.60497e-05
8.13053e-05
8.59556e-05
5.06392e-05
5.2004e-05
5.70254e-05
5.67362e-05
4.94406e-05
5.57091e-05
5.8788e-05
8.26402e-05
8.64773e-05
4.97819e-05
5.68405e-05
5.89975e-05
8.74488e-05
8.85737e-05
9.09132e-05
5.93905e-05
5.76133e-05
6.52292e-05
6.32977e-05
8.72817e-05
9.10612e-05
5.95799e-05
5.83759e-05
6.5398e-05
6.36429e-05
6.01201e-05
6.36448e-05
6.23777e-05
8.76279e-05
9.11545e-05
5.99303e-05
6.39929e-05
6.20344e-05
9.08764e-05
9.11873e-05
9.27657e-05
6.54623e-05
6.49538e-05
6.57476e-05
7.0832e-05
9.20785e-05
9.56853e-05
6.52275e-05
6.60628e-05
6.56031e-05
6.81737e-05
6.46564e-05
7.07812e-05
7.28909e-05
9.19702e-05
9.35615e-05
6.44012e-05
6.76824e-05
7.25127e-05
9.60039e-05
9.40192e-05
0.000100273
6.77271e-05
7.26704e-05
7.82797e-05
7.47678e-05
9.63763e-05
9.73664e-05
6.81131e-05
6.8578e-05
7.8305e-05
7.46485e-05
7.36939e-05
7.50316e-05
7.04153e-05
9.4045e-05
9.84012e-05
7.32891e-05
7.53096e-05
7.0456e-05
9.37076e-05
0.000101138
0.00010204
8.0485e-05
7.53209e-05
8.04451e-05
8.07651e-05
9.79383e-05
0.000103148
8.01443e-05
7.69254e-05
8.05527e-05
8.31424e-05
7.07391e-05
7.98813e-05
8.1432e-05
9.99128e-05
0.000103487
7.09923e-05
8.24448e-05
8.15367e-05
0.000105598
0.000102514
0.000107167
8.16402e-05
8.39125e-05
8.88002e-05
8.98948e-05
0.000104378
0.000106265
8.18727e-05
8.48955e-05
8.85776e-05
8.75207e-05
8.59247e-05
9.03816e-05
9.45321e-05
0.00010393
0.00010573
8.58926e-05
8.76764e-05
9.42187e-05
0.000110039
0.000108224
0.000109266
9.04817e-05
8.92893e-05
9.27275e-05
8.90686e-05
0.000106198
0.000107946
9.01108e-05
8.81811e-05
9.32038e-05
9.29538e-05
9.58412e-05
8.94092e-05
9.2872e-05
0.00010679
0.000111268
9.54282e-05
9.41334e-05
9.21853e-05
0.000106336
0.000109162
0.000112737
9.27376e-05
9.06851e-05
9.63686e-05
0.000101343
0.000109371
0.000115712
9.37133e-05
9.60027e-05
9.67134e-05
0.000100837
9.06494e-05
0.000100722
9.01025e-05
0.000112025
0.000112694
9.0036e-05
9.96153e-05
9.09418e-05
0.000110659
0.000114784
0.000121493
9.97964e-05
0.000104272
0.000109799
0.0001061
0.000116717
0.000117789
9.92319e-05
9.98287e-05
0.000107433
9.95239e-05
9.60772e-05
0.000106575
0.000109665
0.000112519
0.000114522
9.68234e-05
9.87784e-05
0.00010962
0.000121828
0.000121823
0.000119836
0.00011157
0.000106777
0.000112153
0.000108402
0.000117943
0.000120014
0.000109617
0.000101836
0.000112282
0.000112938
0.000112219
0.000107893
0.000113711
0.00011595
0.000123166
0.000111993
0.000111453
0.00011221
0.000121676
0.000119168
0.000119699
0.000110628
0.000108594
0.000105844
0.000114479
0.000120636
0.000124582
0.000111128
0.00011601
0.000107829
0.000116436
0.000112431
0.00011483
0.000109962
0.000124389
0.000126379
0.000110884
0.000118715
0.000111465
0.000122625
0.000121009
0.000129815
0.000106429
0.000117194
0.000119609
0.000120734
0.000125978
0.000129551
0.0001098
0.000115944
0.000121702
0.000121697
0.00011269
0.000122495
0.000123296
0.000126569
0.00012946
0.000114959
0.000123327
0.000123909
0.000130086
0.000131241
0.000135117
0.000123586
0.00012167
0.000131724
0.00012473
0.000129565
0.000129828
0.000125201
0.000122864
0.000129483
0.000122221
0.000124404
0.000122476
0.000122794
0.000129989
0.000129079
0.000124221
0.000120506
0.000121691
0.000129421
0.000135473
0.000135364
0.000132981
0.000125019
0.000132476
0.000128455
0.000130406
0.000134114
0.000129027
0.000123707
0.000128479
0.00013019
0.000123321
0.000128819
0.00012944
0.000129264
0.000135161
0.00012211
0.000130001
0.000129542
0.000135135
0.000135132
0.000135703
0.000131546
0.000130748
0.000130345
0.000134473
0.000135073
0.000138631
0.000128964
0.000130717
0.00013141
0.000132423
0.000130257
0.00013456
0.000133804
0.00013592
0.000137246
0.000130415
0.000132962
0.000133891
0.000138461
0.000136683
0.000142446
0.000131615
0.000134607
0.000138255
0.000137641
0.000138956
0.000141131
0.00013336
0.00013446
0.000141084
0.000141311
0.000135959
0.000138355
0.000141178
0.000138215
0.000143595
0.00013611
0.000141745
0.000141411
0.000142612
0.000143209
0.000142845
0.000140324
0.000139954
0.000143365
0.000144764
0.000142106
0.000144853
0.00014241
0.000142692
0.000141242
0.000142031
0.000141141
0.000144942
0.000139255
0.000143965
0.000142511
0.000141287
0.000141461
0.000138828
0.000140509
0.000142554
0.000145272
0.000143536
0.000144417
0.000144259
0.000142475
0.000144669
0.000143719
0.000140682
0.000140999
0.000143581
0.00014209
0.000139899
0.000142444
0.000145952
0.000141928
0.000144084
0.000138971
0.000142875
0.000145794
0.000147038
0.000146493
0.000153354
0.000145555
0.000143674
0.000152879
0.000151577
0.000144438
0.000150856
0.000146139
0.000144781
0.000155444
0.000154248
0.000148143
0.00015147
0.000152174
0.000145664
0.000153302
0.000148363
0.000154411
0.000153125
0.000151025
0.000154435
0.000155917
0.000155313
0.000154044
0.000159471
0.000157125
0.000151868
0.000153583
0.000157743
0.000156473
0.000160095
0.000159177
0.000153033
0.000156907
0.000155985
0.000154105
0.000154041
0.000153721
0.00015685
0.000155157
0.000153062
0.000155663
0.000151159
0.000159341
0.000157095
0.000156278
0.000158064
0.000153612
0.000155062
0.00015999
0.000158869
0.000156002
0.000156175
0.000156904
0.000158682
0.000159475
0.000153639
0.000152261
0.000155948
0.000155028
0.000159428
0.00015633
0.000150324
0.000152778
0.000155289
0.000159625
0.000158653
0.000161872
0.000155759
0.00015654
0.000154028
0.000155292
0.000151086
0.000158784
0.000160618
0.00016094
0.000161731
0.000152582
0.000157327
0.000160848
0.000163783
0.000162289
0.000156349
0.000154607
0.000163016
0.000161326
0.000161319
0.000166923
0.000164163
0.000156203
0.000160091
0.000154627
0.00016127
0.000169579
0.000165965
0.000160908
0.000166002
0.000160886
0.000158263
0.000159518
0.000161308
0.000163215
0.000159191
0.000155596
0.000164245
0.000167617
0.000168585
0.00016687
0.000173352
0.000173311
0.000161869
0.000166845
0.000172811
0.000167738
0.000177014
0.000173925
0.000163521
0.000173785
0.000172733
0.000160006
0.000166141
0.000161464
0.000171977
0.00017279
0.000166464
0.000167646
0.000165367
0.000174447
0.000174299
0.000175097
0.000173654
0.000166801
0.000163262
0.00017715
0.000175231
0.00017568
0.000175996
0.000174725
0.000172528
0.000176901
0.000166911
0.00016644
0.000175293
0.000176389
0.00017801
0.000167788
0.00016469
0.00016191
0.000174267
0.000172496
0.000171013
0.000169945
0.000162396
0.000161864
0.00017415
0.000175413
0.00016975
0.000171027
0.000176466
0.000168278
0.000173372
0.000165836
0.000162492
0.000177861
0.000172624
0.000175118
0.000164932
0.000162458
0.000170915
0.000170791
0.000171093
0.00017947
0.000180974
0.000163294
0.000172529
0.000169198
0.000170348
0.000178768
0.000179377
0.000172623
0.00018133
0.000179409
0.000162754
0.000171058
0.00017426
0.000178517
0.00017761
0.000170581
0.000172213
0.000175027
0.000182011
0.000183249
0.000186202
0.000186906
0.000173578
0.000175858
0.000182008
0.000182761
0.000187154
0.000187321
0.000182645
0.000188765
0.000187679
0.000172642
0.000175492
0.000180596
0.000186926
0.000186215
0.000175519
0.000175144
0.000174455
0.000186975
0.000187541
0.00018745
0.000187464
0.000175927
0.000174962
0.000187728
0.000187526
0.000187056
0.000185452
0.000187955
0.000188869
0.000186608
0.00017528
0.000172719
0.000186844
0.000186575
0.000185823
0.000172459
0.000173983
0.00017364
0.000186739
0.000186644
0.000185052
0.000185233
0.000174468
0.000173205
0.000186205
0.000184654
0.000185181
0.000186272
0.000185034
0.000185005
0.000182717
0.000172192
0.000174784
0.000184464
0.000184658
0.00018256
0.000171931
0.00017456
0.000179816
0.000186171
0.000186519
0.000192534
0.000191194
0.000173894
0.000178138
0.000187018
0.00018911
0.000192999
0.000194681
0.000184274
0.000190285
0.00019413
0.000176224
0.000181234
0.000184848
0.000193844
0.000195047
0.000182183
0.000180249
0.000180308
0.000193986
0.000191837
0.000194881
0.000194536
0.000178328
0.00018071
0.000194353
0.000195442
0.000195901
0.00019579
0.000196115
0.00019552
0.000197449
0.000181319
0.000179986
0.000196989
0.00019598
0.000197916
0.000182401
0.000180016
0.000181104
0.000194663
0.00019577
0.000196565
0.000198524
0.000181372
0.0001827
0.000195619
0.000195301
0.000195164
0.00019346
0.000197196
0.000198309
0.000193227
0.000179548
0.000178894
0.000197208
0.000193897
0.000192258
0.000176097
0.000181666
0.000183083
0.000197991
0.000198706
0.000199131
0.000196965
0.00018233
0.000180416
0.00019592
0.000193414
0.000198253
0.000197752
0.000192281
0.000195613
0.00019646
0.000179233
0.000183231
0.000191415
0.000198289
0.000197747
0.000183737
0.000182891
0.000185678
0.000198812
0.000196629
0.000201355
0.00020179
0.000180574
0.000186831
0.000198772
0.000198813
0.000202576
0.00020296
0.000200342
0.000203515
0.000207058
0.000183569
0.000186176
0.0002015
0.0002036
0.00020706
0.000190655
0.00018663
0.000188717
0.000203206
0.000203908
0.000206487
0.000207514
0.000187775
0.00018954
0.000204105
0.000204538
0.000206613
0.000207677
0.000207422
0.000207759
0.000205762
0.000186915
0.000189543
0.000207201
0.000206863
0.000204574
0.000185499
0.000188376
0.000185732
0.000206581
0.000207691
0.000205065
0.000206258
0.000189331
0.00018656
0.000206618
0.00020778
0.000204889
0.000205689
0.000204194
0.000205217
0.000201742
0.000189387
0.000186228
0.000202798
0.000204563
0.00020094
0.000183488
0.000185405
0.000191106
0.000204727
0.000205019
0.000208361
0.000204457
0.000185912
0.00018735
0.000204507
0.000204656
0.000207864
0.000205052
0.000202535
0.000204798
0.000212131
0.000185649
0.000188831
0.000202853
0.000207272
0.000213219
0.000195883
0.000192064
0.00019285
0.000210512
0.000206891
0.000212773
0.000213534
0.000188838
0.000194277
0.000210061
0.000207703
0.000212447
0.000212699
0.000214402
0.000214011
0.000214979
0.000190187
0.000193434
0.00021524
0.000213374
0.000215192
0.000193504
0.000192168
0.000186978
0.000212558
0.000213944
0.000208634
0.000211853
0.000194154
0.000189994
0.000212316
0.000212834
0.000208809
0.000210423
0.000212745
0.000211327
0.00020497
0.000193062
0.000188382
0.000212667
0.000209462
0.000204557
0.000182418
0.000186292
0.000193247
0.000207647
0.000210288
0.000211402
0.000209506
0.000189125
0.000190915
0.000207902
0.000209149
0.000212196
0.000210112
0.000203834
0.000209428
0.000211335
0.000187534
0.00019147
0.000203293
0.000208923
0.000210713
0.000193911
0.000194881
0.00020246
0.000214861
0.000212259
0.000222773
0.00021986
0.00019251
0.000198943
0.000215545
0.000213624
0.000223561
0.000221173
0.00021621
0.000220303
0.000225205
0.000193215
0.000200025
0.000215805
0.000221569
0.000225728
0.000205292
0.000202609
0.000196693
0.000224101
0.000221007
0.000221216
0.000220343
0.000198966
0.000195643
0.000224812
0.000222655
0.000220664
0.000223279
0.000225659
0.000219227
0.000217149
0.00020019
0.000198788
0.000226429
0.000223693
0.00021856
0.000192524
0.000195042
0.000185762
0.000218273
0.000218523
0.000209898
0.000213957
0.00019463
0.000191171
0.00021761
0.000220724
0.000208968
0.000214341
0.000213493
0.000213477
0.000209374
0.000197755
0.000191544
0.000215017
0.000215015
0.000210285
0.000187499
0.000184595
0.000194738
0.000208241
0.000212999
0.0002143
0.000216541
0.000191111
0.00019692
0.000207362
0.000211585
0.00021422
0.000208866
0.000211275
0.000219588
0.000225389
0.000190119
0.000189249
0.00021123
0.000210552
0.000223464
0.000204355
0.000197259
0.000210718
0.000219699
0.000219799
0.000232841
0.000227409
0.000197997
0.000203367
0.000219786
0.000213233
0.000233025
0.000228022
0.000228165
0.00022699
0.000228292
0.000191425
0.000204938
0.000226269
0.000226823
0.000227297
0.000202188
0.000211466
0.000205676
0.000235625
0.000229799
0.000233694
0.000231551
0.000203836
0.000202988
0.000236073
0.000232655
0.000236106
0.000239323
0.000224852
0.00022701
0.000216664
0.000206344
0.000210577
0.000224787
0.000234463
0.000217744
0.00019083
0.000202556
0.000187029
0.000227272
0.0002275
0.000212639
0.000215775
0.000201372
0.000191093
0.000229429
0.000236983
0.000214101
0.000219372
0.000215867
0.000217026
0.000220354
0.000208186
0.000193717
0.00021698
0.00022012
0.000220689
0.000198052
0.000185246
0.000191323
0.000209758
0.000213187
0.000211749
0.000215217
0.000189668
0.000196129
0.000210398
0.000214725
0.000208455
0.000207307
0.00022367
0.000219858
0.000230439
0.000191627
0.000186799
0.000223555
0.000212906
0.000229588
0.000207094
0.000194407
0.00020983
0.000218592
0.000221099
0.000234484
0.000234957
0.000198543
0.000210384
0.000214244
0.000208174
0.00023171
0.000226364
0.000231113
0.000233508
0.00022758
0.000188412
0.000203824
0.000230285
0.000227399
0.00022789
0.000201068
0.000210584
0.000208186
0.000237304
0.0002367
0.000237314
0.00023104
0.000210492
0.000200754
0.000235639
0.000231819
0.000239705
0.000239663
0.000225406
0.000227161
0.000221309
0.000205416
0.000210752
0.000226022
0.000235037
0.000222159
0.000195294
0.000206002
0.000195666
0.000232334
0.000226579
0.000221625
0.000218698
0.000198668
0.000192513
0.000236813
0.000239259
0.000223788
0.000225256
0.000220902
0.000219068
0.000222637
0.000208981
0.000196793
0.000221438
0.000223216
0.000221396
0.000197894
0.000194761
0.000196994
0.00022008
0.000218276
0.00022089
0.00022445
0.000192644
0.000201804
0.00022113
0.000221729
0.000219821
0.000219709
0.000224567
0.000226471
0.00022858
0.000195264
0.000196443
0.000223074
0.000221476
0.000227902
0.000203365
0.000198293
0.000205276
0.000223479
0.000227399
0.000230402
0.000233406
0.000202901
0.000208059
0.000221681
0.000221684
0.000229812
0.000231247
0.000229963
0.000233902
0.000233826
0.000198078
0.00020786
0.000229532
0.000233712
0.000235164
0.000208151
0.000205316
0.000200009
0.00023141
0.000234363
0.000228101
0.000228686
0.000207595
0.000200773
0.00023098
0.000232579
0.000228229
0.000228576
0.000234141
0.000228251
0.000226794
0.000208032
0.000200207
0.000236006
0.000229086
0.000227588
0.000199295
0.000198501
0.000192922
0.000225766
0.000225946
0.000219952
0.000218157
0.000199424
0.000191176
0.000225809
0.000225562
0.000220356
0.000219048
0.000224485
0.000218199
0.000219036
0.000198233
0.000191076
0.00022454
0.000217447
0.000217888
0.000191921
0.000192829
0.000204861
0.000219433
0.000216699
0.000229786
0.000225612
0.000190077
0.000200941
0.000220079
0.000218663
0.000230788
0.000230137
0.00021862
0.000225449
0.000228796
0.000190912
0.000204284
0.000217439
0.000228929
0.000228704
0.000203956
0.000209068
0.000232276
0.000229418
0.000205892
0.000232887
0.000232587
0.000247562
0.000251886
0.000249915
0.000231078
0.000208728
0.000231194
5.20952e-06
2.11187e-06
1.80653e-06
2.50567e-06
1.31365e-06
2.43055e-06
1.80576e-05
1.49491e-06
1.21031e-06
2.00605e-06
2.06179e-06
1.25073e-06
2.19822e-06
1.00815e-06
2.02997e-06
1.10163e-06
1.50215e-05
9.98072e-07
1.64335e-05
1.11654e-05
1.3391e-05
1.29534e-06
1.46e-05
1.2668e-06
1.65321e-05
1.69763e-06
1.72837e-06
2.0209e-06
1.61825e-06
1.70121e-06
1.72572e-06
2.0339e-06
1.32043e-06
2.00689e-06
1.67319e-06
2.27327e-06
1.33492e-06
1.81912e-06
1.66981e-06
1.12331e-05
1.32915e-05
1.20454e-06
2.07714e-06
5.74982e-07
2.00367e-06
1.19679e-06
2.07825e-06
7.08583e-07
1.52019e-06
1.51248e-06
2.18322e-06
1.73098e-06
1.72652e-06
1.30247e-06
1.98895e-05
1.19992e-06
2.21929e-05
1.73771e-05
1.95035e-05
1.5013e-06
2.04246e-05
1.44866e-06
2.32528e-05
1.7332e-06
1.72716e-06
2.04055e-06
1.60437e-06