/*--------------------------------*- C++ -*----------------------------------*\
| =========                 |                                                 |
| \\      /  F ield         | OpenFOAM: The Open Source CFD Toolbox           |
|  \\    /   O peration     | Version:  v2012                                 |
|   \\  /    A nd           | Website:  www.openfoam.com                      |
|    \\/     M anipulation  |                                                 |
\*---------------------------------------------------------------------------*/
FoamFile
{
    version     2.0;
    format      ascii;
    class       volScalarField;
    location    "975";
    object      nut;
}
// * * * * * * * * * * * * * * * * * * * * * * * * * * * * * * * * * * * * * //

dimensions      [0 2 -1 0 0 0 0];


internalField   nonuniform List<scalar> 
171728
(
1.84771e-06
1.86687e-06
1.87035e-06
2.22724e-06
1.84148e-06
1.82969e-06
1.86284e-06
2.24317e-06
1.84778e-06
1.82543e-06
1.85425e-06
2.30414e-06
1.87979e-06
1.85619e-06
1.83367e-06
2.33535e-06
1.93693e-06
1.98066e-06
1.80779e-06
2.253e-06
1.9903e-06
2.38169e-06
1.78753e-06
2.12004e-06
1.85733e-06
3.31133e-06
1.77838e-06
1.9943e-06
1.71051e-06
5.02479e-06
1.76374e-06
1.89841e-06
1.70868e-06
6.95869e-06
1.73418e-06
1.80903e-06
1.74623e-06
8.37265e-06
1.70165e-06
1.73268e-06
1.74013e-06
7.25552e-06
1.65879e-06
1.70579e-06
1.75167e-06
3.96138e-06
1.57963e-06
1.75253e-06
1.81112e-06
2.30629e-06
1.50294e-06
1.82322e-06
1.79157e-06
1.70567e-06
1.43594e-06
1.97107e-06
1.62628e-06
1.44906e-06
1.32439e-06
2.08113e-06
1.50614e-06
1.24971e-06
1.19031e-06
2.05173e-06
1.49535e-06
1.04493e-06
1.05408e-06
1.63561e-06
1.49437e-06
9.1941e-07
9.7247e-07
1.36313e-06
1.48157e-06
9.34568e-07
9.52232e-07
1.05789e-06
1.45998e-06
1.04812e-06
1.0147e-06
1.41408e-06
1.42379e-06
1.26001e-06
1.22443e-06
1.72499e-06
1.38141e-06
1.44889e-06
1.54268e-06
2.24628e-06
1.31606e-06
2.26485e-06
2.08435e-06
3.49468e-06
1.25047e-06
2.60986e-06
2.73831e-06
5.39439e-06
1.17697e-06
3.86355e-06
3.85088e-06
8.64163e-06
1.10796e-06
5.35625e-06
5.59922e-06
1.30804e-05
1.00638e-06
6.79231e-06
7.2965e-06
1.65697e-05
9.92829e-07
9.33704e-06
9.48895e-06
2.92008e-05
9.63188e-07
1.07441e-05
1.35596e-05
1.95661e-05
1.04681e-06
1.50797e-05
1.87003e-05
5.21679e-05
1.15883e-06
1.80871e-05
1.52617e-05
4.95338e-05
1.28221e-06
2.06838e-05
2.28622e-05
4.74671e-05
1.70199e-06
2.83386e-05
3.19366e-05
5.74146e-05
1.93614e-06
2.83113e-05
3.29533e-05
6.66797e-05
3.00611e-06
3.92715e-05
2.97735e-05
7.11583e-05
3.08118e-06
4.10079e-05
4.57841e-05
7.14108e-05
4.25694e-06
4.28776e-05
4.49455e-05
7.69319e-05
6.46689e-06
5.70277e-05
5.4581e-05
9.15422e-05
6.70061e-06
6.04365e-05
6.3564e-05
8.98491e-05
8.98814e-06
6.05028e-05
5.75709e-05
8.17008e-05
1.32008e-05
7.09167e-05
6.97314e-05
0.000106451
1.22043e-05
8.2274e-05
8.38186e-05
0.000100661
1.62242e-05
7.63074e-05
8.32507e-05
9.25893e-05
2.04885e-05
8.87175e-05
7.81803e-05
0.000113484
2.72784e-05
0.000102365
0.000101581
0.00011888
3.24096e-05
9.97213e-05
0.000107132
0.000113724
2.94727e-05
9.98031e-05
9.97509e-05
0.000111182
3.62773e-05
0.000111883
0.000109799
0.000123893
4.95833e-05
0.000122499
0.000119859
0.000129236
5.0565e-05
0.0001209
0.000120622
0.000127284
5.47334e-05
0.000121485
0.000124385
0.000128587
7.08673e-05
0.00013057
0.000133973
0.000139721
6.80896e-05
0.000138063
0.000133546
0.000140675
7.65624e-05
0.00013676
0.000138154
0.000134336
8.35851e-05
0.000143657
0.00014029
0.000144825
9.75472e-05
0.000150919
0.000150597
0.000154143
0.000103594
0.000148789
0.000158018
0.000151441
9.68303e-05
0.00015424
0.000156451
0.000146632
0.00011534
0.000163011
0.000151512
0.000156018
0.000131995
0.000161794
0.000159442
0.000160201
0.000129507
0.000166022
0.000170722
0.000159535
0.000118793
0.000173957
0.000176394
0.000165988
0.000135153
0.000173324
0.000175169
0.000164941
0.000154529
0.000175367
0.000171818
0.000164266
0.000154533
0.000178626
0.000178842
0.000171458
0.000158947
0.000185986
0.000189706
0.000175958
0.000161686
0.000190685
0.000187771
0.00017452
0.000159764
0.000186813
0.00018338
0.000172508
0.000170752
0.000186276
0.000191852
0.000175238
0.000187184
0.000199287
0.000199741
0.000184042
0.000195498
0.000201126
0.000201839
0.000188508
0.000186345
0.000195584
0.000197276
0.000182393
0.000179839
0.000200708
0.000194588
0.000177864
0.000200681
0.000211846
0.000208834
0.000188949
0.00021431
0.000210375
0.000211904
0.000191201
0.000209238
0.000201852
0.000206673
0.000186895
0.000203841
0.000203112
0.000207808
0.00019
0.000213392
0.000217594
0.000215301
0.000197534
0.000222954
0.000219746
0.000214384
0.000193023
0.000223004
0.000215177
0.000213276
0.000188965
0.000223835
0.000215799
0.000220348
0.000199797
0.000230584
0.00022248
0.00022306
0.000201281
0.000234009
0.000220285
0.000219186
0.000191888
0.000230385
0.000216257
0.000215971
0.000194085
0.000233506
0.000224005
0.000225071
0.000203727
0.000242268
0.000228099
0.00022771
0.000198545
0.000240835
0.000221729
0.000221359
0.000192546
0.000242532
0.000225596
0.000227628
0.000207552
0.000249906
0.000232353
0.000233884
0.000209975
0.00024187
0.000221938
0.00022039
0.000190145
0.000235103
0.000219148
0.000214925
0.00019332
0.000255093
0.000233617
0.000233425
0.000211465
0.00026989
0.000236179
0.000243558
0.000204523
0.000245047
0.000220845
0.000223494
0.000192503
0.000226913
0.00021796
0.000211498
0.000203499
2.19713e-06
2.85647e-06
1.6892e-06
2.26882e-06
2.23904e-06
2.05497e-06
1.86448e-06
1.72747e-06
1.82044e-06
1.89142e-06
2.04363e-06
1.98008e-06
2.29945e-06
2.17294e-06
2.41588e-06
2.24699e-06
2.18899e-06
2.1751e-06
2.42634e-06
1.32748e-06
2.55619e-06
1.29376e-06
2.27716e-06
2.22761e-06
2.04969e-06
1.86447e-06
2.1804e-06
1.79505e-06
1.89773e-06
1.83296e-06
1.86472e-06
2.2979e-06
2.25585e-06
2.9088e-06
1.86347e-06
3.42067e-06
2.25493e-06
2.17512e-06
2.23761e-06
2.60146e-06
1.28216e-06
2.75105e-06
1.24924e-06
2.23594e-06
2.17949e-06
2.2378e-06
1.77599e-06
2.44334e-06
1.72019e-06
1.85306e-06
1.82069e-06
1.8098e-06
2.25505e-06
2.19897e-06
3.64604e-06
1.85722e-06
4.39734e-06
2.32035e-06
2.2497e-06
2.42083e-06
2.81116e-06
1.23701e-06
3.04845e-06
1.19711e-06
2.1763e-06
2.12101e-06
2.52377e-06
1.70708e-06
2.88418e-06
1.67514e-06
1.79467e-06
1.846e-06
1.73401e-06
2.20622e-06
2.13648e-06
4.5891e-06
1.83975e-06
4.68792e-06
2.36199e-06
2.45159e-06
2.75869e-06
3.13155e-06
1.18294e-06
3.41893e-06
1.14417e-06
2.11419e-06
2.05474e-06
3.06784e-06
1.6671e-06
3.92448e-06
1.67135e-06
1.70382e-06
1.93443e-06
1.59398e-06
2.14675e-06
2.0738e-06
4.52464e-06
1.8135e-06
3.68557e-06
2.28202e-06
2.78382e-06
3.08842e-06
3.51302e-06
1.13213e-06
3.67176e-06
1.09327e-06
2.04924e-06
2.0265e-06
4.35089e-06
1.67774e-06
5.82696e-06
1.72621e-06
1.55575e-06
2.24548e-06
1.44702e-06
2.07533e-06
2.04536e-06
3.4246e-06
1.79168e-06
2.91574e-06
2.13265e-06
3.07552e-06
2.87156e-06
3.66762e-06
1.07998e-06
3.44828e-06
1.03737e-06
2.03293e-06
2.1223e-06
6.28077e-06
1.79156e-06
5.65919e-06
2.05312e-06
1.41359e-06
3.0046e-06
1.32894e-06
2.03758e-06
2.09894e-06
2.79936e-06
1.7814e-06
2.49637e-06
2.00324e-06
2.70399e-06
2.42884e-06
3.3238e-06
1.02509e-06
3.04516e-06
9.93918e-07
2.13209e-06
2.21022e-06
4.87692e-06
2.17291e-06
2.78486e-06
2.68654e-06
1.30881e-06
4.54068e-06
1.27967e-06
2.09928e-06
2.22749e-06
2.4014e-06
1.76719e-06
2.11467e-06
1.90647e-06
2.36573e-06
2.23219e-06
3.00596e-06
9.82212e-07
3.01918e-06
9.42781e-07
2.20891e-06
2.30315e-06
2.32674e-06
2.91453e-06
1.55531e-06
3.7294e-06
1.27736e-06
6.50318e-06
1.26962e-06
2.23324e-06
2.38796e-06
2.02201e-06
1.74241e-06
1.77946e-06
1.81744e-06
2.20085e-06
2.17916e-06
3.05459e-06
9.31535e-07
3.15611e-06
9.51017e-07
2.29798e-06
2.39289e-06
1.43408e-06
4.02989e-06
1.31251e-06
4.94266e-06
1.27137e-06
8.08202e-06
1.30038e-06
2.39182e-06
2.55803e-06
1.71322e-06
1.70944e-06
1.55638e-06
1.7385e-06
2.17399e-06
2.20022e-06
3.19432e-06
9.65694e-07
3.17143e-06
1.04503e-06
2.37726e-06
2.27573e-06
1.30982e-06
5.22608e-06
1.47715e-06
5.89777e-06
1.32307e-06
8.23695e-06
1.41525e-06
2.55966e-06
2.71603e-06
1.51366e-06
1.67369e-06
1.40713e-06
1.70558e-06
2.19254e-06
2.26642e-06
3.09157e-06
1.09442e-06
2.73366e-06
1.31027e-06
2.14626e-06
1.99588e-06
1.62757e-06
6.07135e-06
2.34211e-06
5.13252e-06
1.45136e-06
4.63534e-06
1.62131e-06
2.70915e-06
2.26734e-06
1.3796e-06
1.60107e-06
1.30839e-06
1.7487e-06
2.2682e-06
2.38991e-06
2.60456e-06
1.46195e-06
2.26853e-06
2.5825e-06
1.99937e-06
2.23899e-06
2.68375e-06
4.48571e-06
3.75283e-06
2.84641e-06
1.71138e-06
2.59265e-06
2.10754e-06
2.21661e-06
1.90762e-06
1.28741e-06
1.51934e-06
1.2362e-06
1.81183e-06
2.38465e-06
2.32377e-06
2.14237e-06
3.2355e-06
1.77249e-06
5.85276e-06
2.28403e-06
3.05672e-06
4.02372e-06
2.43509e-06
4.55704e-06
1.6088e-06
2.26813e-06
1.79496e-06
2.86603e-06
1.87486e-06
1.61724e-06
1.21964e-06
1.45401e-06
1.17139e-06
1.9519e-06
2.28088e-06
1.91157e-06
1.67281e-06
6.73194e-06
1.38739e-06
8.59116e-06
3.19599e-06
3.8035e-06
4.65822e-06
1.45048e-06
3.97225e-06
1.12912e-06
3.10365e-06
1.50782e-06
3.79575e-06
1.58745e-06
1.43503e-06
1.15461e-06
1.35801e-06
1.11224e-06
2.0823e-06
1.85542e-06
1.45861e-06
1.24733e-06
8.97669e-06
9.82872e-07
9.61281e-06
3.78932e-06
3.39838e-06
3.44605e-06
1.05038e-06
1.95559e-06
9.32449e-07
3.96815e-06
1.2932e-06
4.31299e-06
1.41159e-06
1.2897e-06
1.0997e-06
1.22286e-06
1.0386e-06
2.07885e-06
1.41121e-06
1.21958e-06
9.60636e-07
9.09515e-06
9.48511e-07
4.74983e-06
3.17533e-06
1.79249e-06
1.5549e-06
9.08043e-07
1.1242e-06
8.83538e-07
4.34965e-06
1.08364e-06
4.12117e-06
1.2611e-06
1.16463e-06
1.0223e-06
1.0864e-06
9.96151e-07
1.70495e-06
1.19064e-06
1.10358e-06
9.53386e-07
3.5835e-06
9.29139e-07
1.51665e-06
1.71715e-06
1.25027e-06
1.1089e-06
8.73516e-07
1.13269e-06
8.54333e-07
3.78328e-06
9.49861e-07
2.05126e-06
1.1383e-06
1.07714e-06
9.81885e-07
9.89251e-07
9.35601e-07
1.4275e-06
1.08214e-06
1.054e-06
9.10944e-07
1.36367e-06
8.7492e-07
1.33641e-06
1.17826e-06
1.12262e-06
1.13599e-06
8.47449e-07
1.0657e-06
8.45727e-07
1.56838e-06
9.20923e-07
1.14049e-06
1.06682e-06
1.06752e-06
9.30153e-07
9.5035e-07
9.32457e-07
1.06498e-06
1.06891e-06
1.13852e-06
8.89955e-07
1.44313e-06
9.28673e-07
1.56839e-06
1.15467e-06
1.22191e-06
1.05052e-06
8.60259e-07
9.9134e-07
9.13162e-07
1.11845e-06
1.02493e-06
1.51197e-06
1.0838e-06
1.14857e-06
9.514e-07
9.9298e-07
1.02797e-06
1.34564e-06
1.16968e-06
1.48664e-06
9.66674e-07
1.51778e-06
1.11341e-06
1.30498e-06
1.24345e-06
1.53142e-06
1.01897e-06
9.38451e-07
1.17213e-06
1.10375e-06
1.66649e-06
1.1856e-06
1.71384e-06
1.17569e-06
1.43223e-06
1.05121e-06
1.16656e-06
1.23827e-06
1.64653e-06
1.58114e-06
2.12305e-06
1.16055e-06
1.30055e-06
1.41961e-06
1.38289e-06
1.67007e-06
1.91573e-06
1.22143e-06
1.16782e-06
1.48515e-06
1.41512e-06
1.64347e-06
1.39592e-06
1.56557e-06
1.55968e-06
2.09579e-06
1.28309e-06
1.47405e-06
1.50988e-06
2.06284e-06
2.31401e-06
3.393e-06
1.50699e-06
1.44299e-06
1.91013e-06
2.07563e-06
1.98821e-06
3.65121e-06
1.56966e-06
1.49915e-06
2.01644e-06
1.88703e-06
1.62747e-06
2.046e-06
2.03853e-06
2.26019e-06
3.20547e-06
1.58066e-06
1.94178e-06
1.93669e-06
3.16063e-06
3.68049e-06
4.41757e-06
2.05882e-06
2.28205e-06
2.43418e-06
2.5096e-06
4.24542e-06
4.95152e-06
2.119e-06
2.06529e-06
2.4977e-06
2.62472e-06
2.2242e-06
2.52799e-06
2.75571e-06
3.57534e-06
5.12523e-06
2.1245e-06
2.60046e-06
2.59533e-06
5.03243e-06
4.80605e-06
8.46258e-06
2.67261e-06
2.63812e-06
3.68017e-06
3.37442e-06
4.89755e-06
7.04539e-06
2.7535e-06
2.73785e-06
3.74067e-06
3.46919e-06
2.9285e-06
3.36947e-06
3.86356e-06
5.42188e-06
7.26147e-06
2.81445e-06
3.52687e-06
3.64575e-06
7.8348e-06
9.26452e-06
1.10319e-05
3.90665e-06
3.89756e-06
4.79388e-06
5.40615e-06
8.24702e-06
1.41253e-05
4.01161e-06
3.70995e-06
4.84623e-06
5.05388e-06
4.26951e-06
5.34081e-06
5.42473e-06
8.00394e-06
1.17012e-05
3.9371e-06
5.19502e-06
4.96879e-06
1.23083e-05
1.19198e-05
1.72022e-05
5.32795e-06
5.39106e-06
6.45858e-06
5.66065e-06
1.45181e-05
1.31648e-05
5.32546e-06
5.41557e-06
6.56409e-06
6.12085e-06
5.75516e-06
5.64221e-06
6.50548e-06
1.26636e-05
1.62016e-05
5.307e-06
6.44551e-06
5.98396e-06
1.54562e-05
1.77779e-05
2.04459e-05
6.76885e-06
6.77932e-06
7.91084e-06
9.43196e-06
1.4157e-05
2.76497e-05
6.82366e-06
6.91927e-06
8.19188e-06
8.7294e-06
7.34295e-06
9.47175e-06
1.13136e-05
1.69816e-05
2.3286e-05
6.64486e-06
9.48921e-06
9.94577e-06
2.83955e-05
2.19759e-05
3.11371e-05
8.77425e-06
9.31307e-06
1.14488e-05
9.58668e-06
2.82342e-05
2.44035e-05
9.07271e-06
8.66779e-06
1.12007e-05
9.77488e-06
1.12425e-05
9.25537e-06
9.25891e-06
2.4707e-05
2.63636e-05
1.0037e-05
1.13669e-05
8.64033e-06
2.06763e-05
3.24753e-05
3.56088e-05
1.17145e-05
1.1104e-05
1.32874e-05
1.43736e-05
2.52459e-05
3.97973e-05
1.1703e-05
1.1742e-05
1.35356e-05
1.68612e-05
8.88027e-06
1.44555e-05
1.65239e-05
2.8083e-05
4.62065e-05
8.55791e-06
1.90589e-05
1.68448e-05
4.5831e-05
3.69194e-05
4.47633e-05
1.44635e-05
1.49875e-05
1.81166e-05
1.7274e-05
4.18827e-05
4.31677e-05
1.45439e-05
1.66757e-05
1.7637e-05
1.47093e-05
1.96305e-05
1.721e-05
2.06563e-05
4.66533e-05
3.86111e-05
1.90824e-05
1.59589e-05
1.89706e-05
5.10709e-05
4.6327e-05
4.94725e-05
1.88464e-05
1.81208e-05
1.99172e-05
1.9978e-05
4.38571e-05
5.03597e-05
1.81355e-05
1.48606e-05
2.00869e-05
1.90889e-05
1.98724e-05
2.00739e-05
1.983e-05
3.75879e-05
4.70254e-05
1.82631e-05
2.0135e-05
1.97371e-05
4.46043e-05
5.05975e-05
5.69495e-05
2.06869e-05
2.07634e-05
2.54807e-05
2.68097e-05
5.23202e-05
5.77182e-05
2.15103e-05
2.10735e-05
2.5722e-05
2.90722e-05
2.0557e-05
2.64265e-05
2.39486e-05
5.09379e-05
6.4328e-05
2.06699e-05
2.96116e-05
2.32719e-05
5.65133e-05
5.86433e-05
6.3679e-05
2.7159e-05
2.84987e-05
2.95419e-05
2.83645e-05
5.88179e-05
6.25642e-05
2.68085e-05
3.20875e-05
2.9666e-05
3.67756e-05
2.59315e-05
2.86258e-05
3.06949e-05
6.62358e-05
6.62099e-05
2.49712e-05
3.41302e-05
3.15835e-05
6.45314e-05
6.48846e-05
6.88108e-05
2.98532e-05
2.81261e-05
3.58818e-05
3.56645e-05
6.34443e-05
6.88951e-05
3.09247e-05
3.57469e-05
3.55382e-05
3.15085e-05
3.19832e-05
3.53917e-05
3.62969e-05
6.5303e-05
6.23988e-05
3.26881e-05
2.96374e-05
3.60967e-05
7.06104e-05
6.98202e-05
7.28382e-05
3.85903e-05
3.94603e-05
3.98548e-05
4.20279e-05
7.12468e-05
7.42819e-05
3.77626e-05
3.05264e-05
3.95094e-05
3.84838e-05
3.79368e-05
4.21184e-05
4.01886e-05
6.36123e-05
7.58738e-05
3.79426e-05
4.23858e-05
3.70413e-05
7.13158e-05
7.35979e-05
7.7153e-05
3.91569e-05
4.09644e-05
4.39171e-05
4.15101e-05
7.39463e-05
7.42615e-05
3.88407e-05
4.36112e-05
4.32907e-05
4.94218e-05
3.94028e-05
4.09388e-05
3.95273e-05
7.78892e-05
7.79161e-05
3.56534e-05
4.59506e-05
3.68839e-05
7.42249e-05
7.90237e-05
8.48893e-05
4.69966e-05
4.35385e-05
5.48829e-05
5.31077e-05
7.6003e-05
8.53356e-05
4.6799e-05
4.88361e-05
5.55283e-05
5.10546e-05
4.1944e-05
5.31339e-05
5.4921e-05
7.80205e-05
8.25859e-05
4.41543e-05
4.89163e-05
6.68121e-05
8.99638e-05
8.50972e-05
8.44089e-05
5.61262e-05
5.66289e-05
5.59269e-05
6.0266e-05
8.65e-05
8.80307e-05
5.67957e-05
5.50431e-05
5.5535e-05
6.26399e-05
5.99837e-05
6.10677e-05
6.69617e-05
8.48828e-05
8.9498e-05
7.1371e-05
6.41601e-05
7.14106e-05
9.09075e-05
8.53098e-05
9.36999e-05
5.71138e-05
5.95842e-05
6.26656e-05
5.99872e-05
8.82172e-05
8.81096e-05
5.62435e-05
6.19736e-05
6.38308e-05
5.82736e-05
6.51846e-05
5.92838e-05
5.68045e-05
8.93974e-05
8.71235e-05
6.80934e-05
5.88011e-05
5.35475e-05
8.17516e-05
9.46219e-05
9.47733e-05
6.50468e-05
6.1627e-05
7.2882e-05
6.82197e-05
8.86873e-05
9.57874e-05
6.62583e-05
5.8319e-05
7.3622e-05
6.93821e-05
5.51453e-05
6.75468e-05
6.67399e-05
8.73783e-05
9.40659e-05
5.17472e-05
6.58568e-05
6.59493e-05
0.00010204
9.48058e-05
9.64273e-05
7.36228e-05
7.17435e-05
7.13408e-05
8.08051e-05
9.77877e-05
0.000100593
7.51896e-05
7.23212e-05
7.40705e-05
7.67942e-05
7.74031e-05
8.17024e-05
8.62242e-05
9.61424e-05
0.000101712
7.84751e-05
8.02774e-05
8.94094e-05
0.000102659
9.74005e-05
0.000102444
7.11746e-05
8.05251e-05
8.15065e-05
7.60447e-05
0.00010022
9.7488e-05
7.31437e-05
7.94852e-05
7.89241e-05
8.50108e-05
8.4041e-05
7.78658e-05
7.39771e-05
0.000102555
0.000102539
8.7241e-05
8.51444e-05
7.74599e-05
9.15085e-05
0.000103719
0.000105771
8.47002e-05
7.5203e-05
8.65958e-05
8.61314e-05
9.8056e-05
0.00010823
8.28453e-05
8.39445e-05
8.6891e-05
7.94203e-05
7.21128e-05
8.36701e-05
7.89247e-05
0.000101923
0.000100083
7.56476e-05
7.77336e-05
7.94459e-05
0.000109041
0.000106394
0.000112734
8.73884e-05
9.0335e-05
9.68406e-05
0.000100194
0.000110215
0.000113473
8.79506e-05
7.97078e-05
9.70869e-05
9.49186e-05
8.95948e-05
0.000100381
0.000106998
0.000101459
0.00011436
8.93131e-05
9.6445e-05
0.000106342
0.000119279
0.000114121
0.000114829
0.0001
0.000101699
0.000101542
9.97636e-05
0.000113688
0.000112883
0.000100163
9.98903e-05
0.000102856
0.000108054
0.000108783
0.000101201
0.000106024
0.000116345
0.000118025
0.000108289
0.000108248
0.000105812
0.000114407
0.000114428
0.000114071
0.000100492
9.83331e-05
0.000100444
9.80219e-05
0.000112572
0.000113216
0.000101864
0.000107411
0.00010026
0.000102207
0.000104024
9.71462e-05
9.68181e-05
0.000117561
0.000113697
0.000103835
0.000101308
9.65392e-05
0.000110976
0.000114988
0.000121258
0.000102086
0.000101422
0.00010892
0.000109473
0.000114774
0.000121483
0.000101396
0.000100662
0.000108171
0.000104206
9.55252e-05
0.000108036
0.000106571
0.000113415
0.000119021
9.52681e-05
0.000104108
0.000106606
0.000121553
0.000122566
0.000126739
0.00011148
0.000112532
0.000118146
0.000119896
0.000122911
0.000128786
0.00011128
0.000109303
0.000119178
0.000118137
0.000112403
0.000121482
0.000122159
0.000121472
0.000127346
0.000112531
0.000118788
0.000121793
0.000129098
0.000126986
0.000126765
0.000118757
0.00012088
0.000118333
0.000120979
0.00012923
0.000128536
0.000119668
0.000119585
0.00011823
0.00012096
0.000122674
0.000121327
0.00012057
0.000127642
0.000127894
0.00012208
0.000120746
0.000119991
0.000127572
0.00012706
0.000132167
0.000118982
0.000120949
0.000125199
0.000121747
0.000128274
0.000128475
0.000118633
0.000120833
0.000124989
0.000122665
0.000120394
0.000121015
0.000119614
0.000128059
0.000130351
0.000120142
0.000122167
0.000119862
0.000127917
0.000133519
0.000136394
0.00012812
0.000122371
0.000132148
0.000128146
0.000128993
0.000134061
0.000128096
0.000125017
0.000132247
0.000132848
0.000120701
0.000127223
0.000130897
0.000131358
0.000137343
0.000121039
0.000132722
0.0001312
0.000137734
0.00013617
0.000134903
0.000131647
0.000131068
0.000130148
0.000136093
0.000135511
0.000139637
0.000131681
0.000133621
0.000129994
0.000132281
0.00013474
0.000137809
0.000139893
0.000137853
0.000136953
0.000134902
0.000133439
0.00013932
0.000141378
0.000135521
0.000141369
0.000131621
0.000136016
0.000138722
0.000136223
0.000139621
0.000139297
0.000131401
0.00013234
0.000139013
0.000137188
0.000138901
0.000136531
0.000133664
0.000136814
0.000139801
0.000138251
0.000136998
0.000133141
0.000134872
0.000141688
0.000143116
0.000138991
0.000137325
0.000141004
0.000142511
0.00013975
0.000144498
0.000139539
0.000138979
0.00014084
0.000141174
0.000132457
0.000141124
0.00013607
0.000140574
0.00014214
0.000132014
0.000139583
0.000136923
0.000141668
0.000144313
0.00015057
0.000143188
0.000144755
0.000151594
0.000150292
0.000145639
0.000149385
0.000142623
0.000141635
0.000150742
0.000147139
0.000142318
0.000150309
0.000154397
0.00014252
0.000148148
0.00014281
0.000147212
0.000154016
0.000153734
0.000150865
0.000147382
0.000152637
0.000150612
0.000149892
0.000148408
0.000149348
0.00014674
0.000152248
0.000149738
0.000150637
0.000154686
0.00015606
0.000149354
0.000155188
0.000149615
0.000153609
0.000155747
0.000157077
0.00015532
0.000152061
0.000146751
0.000148235
0.000148298
0.000147611
0.000147053
0.00015104
0.000146345
0.00015075
0.000149513
0.000155722
0.000149199
0.000156739
0.000153972
0.000151962
0.000149543
0.00015388
0.000153833
0.000154267
0.000157382
0.000150098
0.000146967
0.00015051
0.000160436
0.000150571
0.000153981
0.000164749
0.000162689
0.000152336
0.000158659
0.000152863
0.000155967
0.000162201
0.000153151
0.000148806
0.000161719
0.00015596
0.000153447
0.00014982
0.000149413
0.000152402
0.000155584
0.000154089
0.000161539
0.000162948
0.000167477
0.000164097
0.000170182
0.000163812
0.000159015
0.000157109
0.000164169
0.000152629
0.000167591
0.000160548
0.000160198
0.000162387
0.000166864
0.000149338
0.000154778
0.000159353
0.000156527
0.000164631
0.00016032
0.0001626
0.000156032
0.000169664
0.000163348
0.000163733
0.000164713
0.000156702
0.000158841
0.000167113
0.000163478
0.000163054
0.00016845
0.000166938
0.000163761
0.000165432
0.000156265
0.000162329
0.000164445
0.000168081
0.000163888
0.000159205
0.000155088
0.000154685
0.000161144
0.000165495
0.000157778
0.00016819
0.000159947
0.000164302
0.00016157
0.000169863
0.000161015
0.000172476
0.000165134
0.000172734
0.00017095
0.00016345
0.000166798
0.000165428
0.000175784
0.000173239
0.000165313
0.000156745
0.000169101
0.000158716
0.000169513
0.000174993
0.000172837
0.000164885
0.000165514
0.000165163
0.000172522
0.000177469
0.000174043
0.000172926
0.000173816
0.000173894
0.000166822
0.000166207
0.00017491
0.0001758
0.000175043
0.00016537
0.000170434
0.00017084
0.000178813
0.000173726
0.000182829
0.000177306
0.00016534
0.000166377
0.000179805
0.000175238
0.000179907
0.000174855
0.000173352
0.000173872
0.000172623
0.000166062
0.000164501
0.00017429
0.000172512
0.000172029
0.000163877
0.000170482
0.000169304
0.000182514
0.000178214
0.000181079
0.000178734
0.000166984
0.000168663
0.000179043
0.000174152
0.000177599
0.000174492
0.000173708
0.000177719
0.000179192
0.000164035
0.000166957
0.000171945
0.000175121
0.000178272
0.000170159
0.000169774
0.000175029
0.000180804
0.000179063
0.000183315
0.000183163
0.000168924
0.000173406
0.00017833
0.000178297
0.000186805
0.000188578
0.000181213
0.000183972
0.000186387
0.000169065
0.000177736
0.00018092
0.00018833
0.000187314
0.000175773
0.000175521
0.000173389
0.000185041
0.000185031
0.000186137
0.000189492
0.000174441
0.000177226
0.000188078
0.000189789
0.000186542
0.000188685
0.000187335
0.000190429
0.00018803
0.000178067
0.000175005
0.000188333
0.00018913
0.000188034
0.000174884
0.000172553
0.000168508
0.000185453
0.000189777
0.000182875
0.000187944
0.000177129
0.000174484
0.000184651
0.000186866
0.000180555
0.000182619
0.000187785
0.000188295
0.000185854
0.000174222
0.000170334
0.000187355
0.000183857
0.000184748
0.000172763
0.000168563
0.000178312
0.000182564
0.00018674
0.000189107
0.000185151
0.000173897
0.000173358
0.000180217
0.000182128
0.00019018
0.00018875
0.000185135
0.000185126
0.000185396
0.000170224
0.000177599
0.000184192
0.000188758
0.000186975
0.000174308
0.000180617
0.000188969
0.000192396
0.000186353
0.000201156
0.000196181
0.00017443
0.00018296
0.000194705
0.000192516
0.000204769
0.000200425
0.000187919
0.000196832
0.00019697
0.000179323
0.000184839
0.000189081
0.000198349
0.000196554
0.000182612
0.000189428
0.000186879
0.00020286
0.000198928
0.000203657
0.000202446
0.000184218
0.000185946
0.000206164
0.000202082
0.000205878
0.00020358
0.000199653
0.000201524
0.000203749
0.000185343
0.000186153
0.000199017
0.000201808
0.000204023
0.000188547
0.000185694
0.000176081
0.000202825
0.000202362
0.000195117
0.000197718
0.000185487
0.000179354
0.000203311
0.000203305
0.00019198
0.000196124
0.000203853
0.000196512
0.000200757
0.000185869
0.000180316
0.000204354
0.000199342
0.00020229
0.000183565
0.000175123
0.000177477
0.000193382
0.00019612
0.000192537
0.000195569
0.000178639
0.000181647
0.000189804
0.00019365
0.000189148
0.000191413
0.000198474
0.000196705
0.000195157
0.000179249
0.000177607
0.000199472
0.000194395
0.000194381
0.000177844
0.000179929
0.000192964
0.000195348
0.00019818
0.00020863
0.000209285
0.00018395
0.000193501
0.000193373
0.000193058
0.000210028
0.000208344
0.000195103
0.000210568
0.000204107
0.000178926
0.000191366
0.000193987
0.000205452
0.000201421
0.00018737
0.000194031
0.000194175
0.000211302
0.000210884
0.000213241
0.000211403
0.000193828
0.000191543
0.000213194
0.00021155
0.000215388
0.000213724
0.000207136
0.000211878
0.000210295
0.000192666
0.000193335
0.00020535
0.000212086
0.000210608
0.00019155
0.000193352
0.000186577
0.000212715
0.000210445
0.000206802
0.000204996
0.000190713
0.000184315
0.000214552
0.000213094
0.000206768
0.00020669
0.000210206
0.00020348
0.000206437
0.000192657
0.00018674
0.000210675
0.00020764
0.000208533
0.000187397
0.000185823
0.000185696
0.000205252
0.000203611
0.000203895
0.000202539
0.000183547
0.000184291
0.000205034
0.000205623
0.000203722
0.000205547
0.000205333
0.000200803
0.000205209
0.000186234
0.000187941
0.000207705
0.000206361
0.000207622
0.000188555
0.000186716
0.000194506
0.000204795
0.000204147
0.000213853
0.000214431
0.000185772
0.000195334
0.000204775
0.000207574
0.000213629
0.000214106
0.000207607
0.000215063
0.000217244
0.000189179
0.000194551
0.000209227
0.000214405
0.000216707
0.000197415
0.000195052
0.000194931
0.000215755
0.000216715
0.000217134
0.000218906
0.000196201
0.000197394
0.000215328
0.00021485
0.000216336
0.000214397
0.000218409
0.000219875
0.000217928
0.000194584
0.000192716
0.000217462
0.000215164
0.000216365
0.000194182
0.000194572
0.000193151
0.000216985
0.000218879
0.000215364
0.000216325
0.000197066
0.000194075
0.000216071
0.000213708
0.000214632
0.000212944
0.000215911
0.000216103
0.00021195
0.000192216
0.000191572
0.000214174
0.000213149
0.000210961
0.000189011
0.00019297
0.000195142
0.000215135
0.000215442
0.00021573
0.000214746
0.00019368
0.000193339
0.000214527
0.000213333
0.000216777
0.000218885
0.000211913
0.000214866
0.00021801
0.000192055
0.000197723
0.000211025
0.000218439
0.000218767
0.000198357
0.00019569
0.000198328
0.000216833
0.000215178
0.00022039
0.000220747
0.000193825
0.000198926
0.000218266
0.000220597
0.000221687
0.000223321
0.000221318
0.000221783
0.000224677
0.000198343
0.000200038
0.000221974
0.000222884
0.000224728
0.000202255
0.000198436
0.000198379
0.000221348
0.000221935
0.000222123
0.000222566
0.000199147
0.000198246
0.0002222
0.0002236
0.000222251
0.000221815
0.000224418
0.000221954
0.000217665
0.000199829
0.000197122
0.000224264
0.000220798
0.000217278
0.000192855
0.000197886
0.000194183
0.000221805
0.000221883
0.000218553
0.000217662
0.00019752
0.000193432
0.000221246
0.000220088
0.000217312
0.000215496
0.000215818
0.000216448
0.00021488
0.000196354
0.000192483
0.000215755
0.000216031
0.000215416
0.000192559
0.00019389
0.00019902
0.000218254
0.00021721
0.000220628
0.000219192
0.000193081
0.000197929
0.000217102
0.000215233
0.000221005
0.000220196
0.000215984
0.000220705
0.000225536
0.000192184
0.000199056
0.000216996
0.00022203
0.000226235
0.000203383
0.000200217
0.000202431
0.000223366
0.000222504
0.000226477
0.000227656
0.000199345
0.000203556
0.000224029
0.000224011
0.000227241
0.000228539
0.000226971
0.000228096
0.000226616
0.000200442
0.000203667
0.000227319
0.000228016
0.00022629
0.000200151
0.000201753
0.000196435
0.000226393
0.000227804
0.000222532
0.000223502
0.000203276
0.000197297
0.000227137
0.000228538
0.000222805
0.000223248
0.000224336
0.000222875
0.000219235
0.00020306
0.000196699
0.000223451
0.000221999
0.000218555
0.000192635
0.000196111
0.000201358
0.000222028
0.000222162
0.000224282
0.000222436
0.000196626
0.00019894
0.000222233
0.000222229
0.000224411
0.000223348
0.000219257
0.000222601
0.000227741
0.000196246
0.000200515
0.000218623
0.000223785
0.000228119
0.000205404
0.000202892
0.000207968
0.000227554
0.00022474
0.000232569
0.00023147
0.000200421
0.00020665
0.000227526
0.00022624
0.000232134
0.000231895
0.000232166
0.000232017
0.000236559
0.000202051
0.000207794
0.000232772
0.000233615
0.000237505
0.000212097
0.000207318
0.000195127
0.000232694
0.000231917
0.000223564
0.000226047
0.000206487
0.000197853
0.000232165
0.0002322
0.000222694
0.000224663
0.000235697
0.000225334
0.000220458
0.000207435
0.000196874
0.000236663
0.000224741
0.000220531
0.000192121
0.00019301
0.00018898
0.000219387
0.000222487
0.000214983
0.000218155
0.000196213
0.000193066
0.000218634
0.000220632
0.000214632
0.000215203
0.000216904
0.000218662
0.000215543
0.000194907
0.000189746
0.000216485
0.000214851
0.000214348
0.000190674
0.000190227
0.00020889
0.000215524
0.000218379
0.000231819
0.000229232
0.000193824
0.000205789
0.000215351
0.000215256
0.000232671
0.000227753
0.000217943
0.00023033
0.00023451
0.000190048
0.000204026
0.000216302
0.000227346
0.0002337
0.000210503
0.000211598
0.000219736
0.000238021
0.000233611
0.000245679
0.000239162
0.000207194
0.000210256
0.000239008
0.00023434
0.000246986
0.000244965
0.000236846
0.000237151
0.000236309
0.000206467
0.00021685
0.00023676
0.000242894
0.00023793
0.00020718
0.000217502
0.00019335
0.000245088
0.000238915
0.000223471
0.000225214
0.000208801
0.000196389
0.00024641
0.000245724
0.000223829
0.000229927
0.000231686
0.000224234
0.000220865
0.000216698
0.000200114
0.000234509
0.000229966
0.000222295
0.000192969
0.000189417
0.000181043
0.000215702
0.000220075
0.000207965
0.000214967
0.000194374
0.000190502
0.000215514
0.000221901
0.000206195
0.000208542
0.000219982
0.000218914
0.000225436
0.000196601
0.000184466
0.00022078
0.000213452
0.000224483
0.000199768
0.000183337
0.000207726
0.000214334
0.00019283
0.000205847
0.000207173
0.000237513
0.000229826
0.0002487
0.000226621
0.000186181
0.000225194
4.7541e-06
2.51342e-06
1.7491e-06
2.22793e-06
1.11251e-06
1.95673e-06
1.27489e-06
2.28166e-06
1.20828e-06
2.05378e-06
1.65914e-06
7.38425e-07
2.26081e-06
1.67737e-06
1.56508e-06
1.16836e-06
1.41958e-05
1.06462e-06
1.60089e-05
1.05221e-05
1.26998e-05
1.31337e-06
1.38844e-05
1.24619e-06
1.56649e-05
1.73072e-06
1.81864e-06
1.88793e-06
1.84201e-06
1.75497e-06
1.83267e-06
1.88632e-06
1.12042e-06
5.10974e-07
2.16712e-06
1.84724e-06
1.1136e-06
6.3092e-07
2.1738e-06
1.07854e-05
1.30843e-05
1.21511e-06
1.75198e-06
4.24238e-07
1.86586e-06
1.20457e-06
1.75471e-06
5.43555e-07
1.48325e-06
1.50293e-06
2.23415e-06
1.69554e-06
1.70226e-06
1.36861e-06
1.93315e-05
1.30579e-06
2.19422e-05
1.68365e-05
1.901e-05
1.50237e-06
1.90315e-05
1.45126e-06
2.14895e-05
1.76077e-06
1.83649e-06
1.88733e-06
1.84693e-06
1.77569e-06
1.85405e-06
1.88912e-06
1.13725e-06