/*--------------------------------*- C++ -*----------------------------------*\
| =========                 |                                                 |
| \\      /  F ield         | OpenFOAM: The Open Source CFD Toolbox           |
|  \\    /   O peration     | Version:  v2012                                 |
|   \\  /    A nd           | Website:  www.openfoam.com                      |
|    \\/     M anipulation  |                                                 |
\*---------------------------------------------------------------------------*/
FoamFile
{
    version     2.0;
    format      ascii;
    class       volScalarField;
    location    "975";
    object      p;
}
// * * * * * * * * * * * * * * * * * * * * * * * * * * * * * * * * * * * * * //

dimensions      [0 2 -2 0 0 0 0];


internalField   nonuniform List<scalar> 
171728
(
0.00351908
0.00351808
0.00351802
0.00351881
0.00348349
0.00348212
0.00348206
0.00348491
0.003445
0.00344327
0.00344323
0.0034455
0.00340091
0.00339924
0.00339933
0.00340152
0.00335285
0.00335149
0.00335144
0.00335375
0.00330396
0.00330281
0.00330271
0.00330507
0.00325574
0.00325464
0.00325457
0.00325695
0.00320844
0.00320741
0.00320742
0.00320977
0.00316215
0.00316126
0.00316126
0.00316362
0.00311681
0.00311605
0.00311601
0.00311842
0.00307238
0.00307172
0.00307169
0.00307413
0.00302869
0.00302818
0.00302808
0.00303058
0.00298559
0.00298524
0.00298504
0.00298732
0.00294287
0.00294271
0.00294252
0.0029447
0.00290056
0.00290045
0.00290032
0.00290231
0.00285848
0.00285801
0.00285824
0.00286054
0.00281677
0.00281681
0.00281649
0.00281884
0.00277542
0.00277536
0.00277526
0.00277771
0.00273435
0.00273413
0.00273439
0.00273636
0.00269376
0.00269386
0.00269375
0.0026958
0.00265341
0.00265357
0.00265348
0.00265524
0.00261339
0.00261354
0.00261352
0.00261516
0.00257371
0.00257394
0.00257391
0.00257548
0.0025342
0.00253448
0.00253445
0.00253618
0.002495
0.00249532
0.0024953
0.00249693
0.00245602
0.00245639
0.00245643
0.00245819
0.00241731
0.00241774
0.00241768
0.00241953
0.00237874
0.0023792
0.00237919
0.00238089
0.00234047
0.00234117
0.00234101
0.00234279
0.00230227
0.00230283
0.0023026
0.00230517
0.00226431
0.00226487
0.00226502
0.00226627
0.00222659
0.00222727
0.00222737
0.00222934
0.00218889
0.00218949
0.0021894
0.00219138
0.00215115
0.00215199
0.00215166
0.00215375
0.00211391
0.00211447
0.00211471
0.00211619
0.00207661
0.00207715
0.00207714
0.00207922
0.00203991
0.00204053
0.00204058
0.00204242
0.00200254
0.00200315
0.00200323
0.00200481
0.00196551
0.00196566
0.00196545
0.00196747
0.00192895
0.00192945
0.00192947
0.00193204
0.00189245
0.00189289
0.00189314
0.00189427
0.00185571
0.00185569
0.00185567
0.0018577
0.0018196
0.00182008
0.00181966
0.00182261
0.00178366
0.00178355
0.00178414
0.00178524
0.00174748
0.00174718
0.00174701
0.00174906
0.00171074
0.00171116
0.00171087
0.00171342
0.0016753
0.00167531
0.00167557
0.00167763
0.00164009
0.0016397
0.00163971
0.0016415
0.0016041
0.00160383
0.0016038
0.00160598
0.00156833
0.00156828
0.0015683
0.00157039
0.00153322
0.00153302
0.00153296
0.00153505
0.00149767
0.00149759
0.00149745
0.00149948
0.00146265
0.001462
0.00146229
0.00146411
0.00142728
0.00142732
0.00142715
0.00142946
0.00139269
0.00139231
0.0013924
0.00139423
0.00135755
0.00135716
0.00135726
0.00135906
0.00132237
0.00132232
0.00132196
0.00132413
0.00128794
0.0012875
0.00128734
0.00128957
0.00125279
0.00125244
0.00125289
0.00125464
0.00121801
0.00121803
0.00121816
0.00121977
0.00118349
0.00118345
0.00118321
0.00118539
0.00114956
0.00114856
0.00114846
0.00115047
0.00111447
0.00111421
0.0011142
0.00111604
0.00107938
0.00107977
0.00107988
0.00108178
0.00104542
0.00104516
0.00104528
0.00104708
0.00101072
0.0010104
0.0010102
0.00101222
0.000975996
0.000975765
0.000975786
0.000977748
0.000941817
0.000941538
0.00094191
0.000943612
0.000907516
0.000907486
0.000907164
0.00090923
0.000872754
0.000872577
0.000872507
0.000874433
0.000837939
0.000837947
0.000838052
0.000839915
0.000803733
0.000803821
0.000803635
0.000805683
0.000770002
0.000769343
0.000769681
0.00077149
0.000734702
0.000734348
0.000734519
0.000736343
0.000699221
0.000699523
0.000699274
0.000701385
0.00066527
0.000665523
0.000665383
0.000667416
0.000631689
0.000631541
0.000631395
0.00063334
0.000596431
0.000596032
0.00059614
0.000597973
0.000561005
0.000560827
0.000561058
0.000562911
0.000526691
0.000526791
0.000526895
0.000528969
0.000492327
0.000492321
0.000492069
0.000494073
0.00045695
0.000456667
0.000456692
0.000458545
0.000421321
0.000421409
0.000421495
0.000423619
0.000386927
0.000387014
0.000387041
0.000388994
0.000352325
0.000352013
0.000351956
0.000353792
0.000316434
0.000316334
0.000316324
0.000318439
0.000281535
0.000281634
0.000281674
0.00028376
0.000246771
0.000246656
0.000246568
0.000248404
0.00021034
0.000210174
0.000210144
0.000212079
0.000174643
0.000174883
0.000174923
0.000177107
0.000140395
0.000140276
0.000140377
0.000142289
0.000104896
0.000104392
0.000104464
0.000106194
6.76854e-05
6.80911e-05
6.77729e-05
7.01266e-05
3.25953e-05
3.25541e-05
3.2425e-05
3.45455e-05
6.18361e-06
6.51449e-06
6.72687e-06
4.48882e-06
0.00352362
0.00352118
0.00352117
0.00352356
0.00352124
0.00352109
0.00352747
0.00352744
0.00352748
0.00352747
0.00352122
0.00352116
0.00352357
0.0035211
0.00352116
0.00352358
0.00351881
0.00348971
0.00351804
0.00351802
0.00349164
0.00349151
0.00351878
0.00348968
0.00351806
0.00351795
0.00349156
0.00349155
0.00351802
0.00349148
0.00349163
0.00351878
0.00348968
0.00351804
0.00349153
0.00349165
0.00348971
0.00348496
0.00345104
0.00348202
0.00348208
0.00345338
0.00345333
0.00348495
0.00345107
0.00348209
0.00348212
0.0034534
0.00345332
0.00348195
0.00345337
0.00345346
0.00348494
0.00345105
0.00348202
0.00345327
0.00345337
0.00345104
0.00344553
0.00340769
0.00344322
0.00344329
0.00341074
0.00341071
0.00344556
0.00340768
0.00344325
0.00344323
0.00341079
0.00341077
0.00344314
0.0034108
0.00341082
0.00344553
0.00340772
0.0034432
0.00341073
0.00341081
0.00340769
0.00340154
0.0033602
0.00339928
0.00339932
0.00336362
0.00336355
0.00340152
0.00336024
0.00339929
0.00339928
0.00336364
0.0033636
0.00339927
0.00336361
0.00336356
0.00340155
0.00336022
0.00339931
0.00336354
0.00336354
0.0033602
0.00335375
0.00331153
0.00335143
0.00335147
0.0033148
0.00331483
0.00335377
0.00331151
0.00335146
0.0033514
0.00331489
0.00331488
0.00335147
0.00331487
0.00331487
0.00335376
0.00331152
0.00335145
0.00331486
0.00331482
0.00331151
0.00330508
0.00326326
0.00330273
0.00330278
0.00326656
0.00326656
0.00330509
0.00326331
0.00330267
0.00330274
0.00326644
0.00326655
0.00330273
0.00326656
0.00326658
0.00330508
0.00326327
0.00330272
0.00326653
0.00326652
0.00326328
0.00325695
0.00321593
0.00325472
0.00325463
0.00321928
0.00321915
0.003257
0.00321597
0.00325466
0.00325461
0.00321902
0.00321912
0.0032546
0.00321914
0.00321912
0.00325695
0.00321595
0.00325454
0.00321909
0.0032191
0.00321596
0.00320976
0.00316964
0.00320744
0.00320743
0.00317268
0.00317266
0.00320979
0.00316964
0.00320736
0.0032074
0.00317259
0.00317268
0.00320742
0.00317268
0.00317272
0.00320978
0.00316964
0.00320739
0.00317268
0.00317269
0.00316967
0.00316362
0.00312427
0.00316132
0.00316129
0.00312712
0.0031273
0.00316362
0.00312432
0.00316125
0.00316129
0.00312731
0.00312728
0.00316123
0.00312727
0.00312722
0.00316361
0.00312428
0.00316122
0.00312724
0.00312724
0.0031243
0.00311837
0.00307986
0.00311609
0.00311604
0.00308268
0.00308272
0.00311843
0.00307989
0.00311604
0.00311604
0.00308276
0.00308274
0.00311606
0.00308271
0.00308273
0.00311837
0.00307983
0.00311603
0.00308271
0.0030827
0.00307989
0.00307407
0.00303612
0.00307186
0.0030717
0.00303901
0.00303892
0.00307409
0.00303618
0.00307162
0.0030717
0.00303891
0.00303898
0.00307174
0.00303895
0.00303895
0.00307404
0.00303613
0.00307173
0.00303899
0.00303896
0.00303626
0.00303043
0.00299296
0.00302822
0.00302825
0.00299591
0.00299587
0.00303052
0.00299307
0.00302805
0.00302808
0.00299578
0.00299586
0.00302815
0.00299582
0.00299569
0.00303044
0.00299304
0.00302821
0.00299586
0.00299576
0.00299289
0.00298735
0.00295029
0.00298513
0.00298529
0.00295318
0.00295318
0.00298752
0.00295043
0.00298503
0.00298507
0.00295306
0.00295309
0.00298507
0.00295315
0.00295332
0.00298741
0.00295037
0.00298506
0.00295315
0.00295333
0.00295029
0.00294476
0.00290817
0.00294235
0.00294266
0.00291095
0.00291076
0.00294497
0.00290807
0.00294241
0.00294248
0.0029108
0.00291083
0.00294264
0.00291073
0.00291089
0.00294485
0.00290807
0.00294266
0.00291078
0.00291087
0.00290779
0.00290257
0.00286593
0.00290042
0.0029005
0.00286864
0.0028684
0.00290269
0.00286565
0.00290013
0.00290032
0.00286881
0.00286871
0.00290032
0.00286847
0.00286871
0.00290258
0.002866
0.00290033
0.00286868
0.00286879
0.002866
0.00286058
0.00282418
0.00285816
0.00285804
0.00282706
0.00282717
0.00286027
0.00282415
0.00285839
0.00285831
0.00282685
0.0028269
0.0028584
0.00282713
0.00282669
0.00286059
0.00282415
0.00285836
0.00282695
0.00282676
0.00282435
0.0028188
0.00278284
0.00281672
0.00281689
0.00278575
0.00278565
0.00281882
0.00278294
0.00281648
0.00281641
0.00278577
0.00278566
0.00281642
0.00278564
0.00278591
0.00281876
0.00278277
0.00281653
0.00278561
0.00278591
0.00278292
0.00277752
0.00274169
0.00277536
0.00277524
0.0027446
0.00274453
0.00277754
0.00274156
0.00277542
0.00277529
0.00274466
0.00274453
0.00277559
0.00274443
0.00274433
0.00277745
0.00274164
0.00277547
0.00274453
0.00274451
0.00274164
0.00273647
0.002701
0.00273445
0.0027343
0.00270396
0.00270384
0.00273637
0.00270099
0.00273442
0.00273436
0.00270392
0.00270382
0.00273415
0.00270399
0.00270382
0.00273642
0.00270095
0.00273433
0.00270386
0.00270385
0.002701
0.00269578
0.00266037
0.00269387
0.00269375
0.00266351
0.00266367
0.00269573
0.00266031
0.00269386
0.00269375
0.00266354
0.00266351
0.00269369
0.00266362
0.00266355
0.00269576
0.00266038
0.00269376
0.00266351
0.00266352
0.00266037
0.00265526
0.0026202
0.00265351
0.00265364
0.0026235
0.00262344
0.00265525
0.00262029
0.00265349
0.0026535
0.00262351
0.00262352
0.00265352
0.00262344
0.00262357
0.00265527
0.00262026
0.00265347
0.00262349
0.00262352
0.00262022
0.00261514
0.00258051
0.00261354
0.00261353
0.00258383
0.00258388
0.00261518
0.00258053
0.00261354
0.00261353
0.00258384
0.0025838
0.00261359
0.00258389
0.0025838
0.00261519
0.00258049
0.00261355
0.00258378
0.00258381
0.0025805
0.00257551
0.00254102
0.00257389
0.00257393
0.00254431
0.00254431
0.00257553
0.00254104
0.00257393
0.0025739
0.00254433
0.00254428
0.00257393
0.00254431
0.00254425
0.00257549
0.00254106
0.00257391
0.00254427
0.00254429
0.00254112
0.00253606
0.00250196
0.00253448
0.00253448
0.00250516
0.00250514
0.00253601
0.00250204
0.00253448
0.00253445
0.00250517
0.00250512
0.00253449
0.00250515
0.00250511
0.00253607
0.0025019
0.0025345
0.00250512
0.00250512
0.00250192
0.00249694
0.00246301
0.00249533
0.00249534
0.00246613
0.00246617
0.00249713
0.00246296
0.00249534
0.0024953
0.00246613
0.00246614
0.00249528
0.00246619
0.00246609
0.00249693
0.00246313
0.00249533
0.00246614
0.0024661
0.00246315
0.00245812
0.00242433
0.00245644
0.00245638
0.00242735
0.00242741
0.00245789
0.00242438
0.00245646
0.00245643
0.00242734
0.00242734
0.00245647
0.00242742
0.00242741
0.00245816
0.00242435
0.00245648
0.00242734
0.00242743
0.00242441
0.00241939
0.00238605
0.00241775
0.00241775
0.00238887
0.00238884
0.00241966
0.00238595
0.00241773
0.00241766
0.00238891
0.00238884
0.00241769
0.00238881
0.00238867
0.00241948
0.00238607
0.00241773
0.00238879
0.00238871
0.00238599
0.00238118
0.00234773
0.00237927
0.00237921
0.0023505
0.00235065
0.00238083
0.00234779
0.00237927
0.00237922
0.00235051
0.00235063
0.00237913
0.00235072
0.0023508
0.00238105
0.00234791
0.00237918
0.00235063
0.00235074
0.00234724
0.00234279
0.00230966
0.00234097
0.00234109
0.00231248
0.00231239
0.00234305
0.00230978
0.00234096
0.002341
0.00231244
0.0023122
0.00234135
0.0023124
0.00231234
0.00234311
0.00230954
0.00234134
0.00231215
0.00231227
0.00231026
0.00230474
0.00227169
0.00230291
0.00230284
0.00227431
0.00227433
0.00230472
0.00227152
0.00230291
0.00230268
0.0022743
0.00227441
0.0023027
0.0022743
0.0022742
0.00230444
0.00227141
0.00230265
0.00227438
0.00227424
0.00227111
0.0022668
0.00223398
0.00226486
0.00226489
0.00223667
0.00223671
0.00226668
0.00223408
0.00226488
0.002265
0.00223674
0.00223678
0.00226485
0.00223671
0.00223666
0.00226667
0.00223443
0.00226491
0.00223681
0.00223666
0.00223419
0.00222908
0.00219634
0.00222726
0.00222727
0.00219899
0.00219893
0.00222915
0.00219618
0.00222729
0.0022274
0.00219895
0.00219899
0.00222724
0.00219895
0.002199
0.00222952
0.00219628
0.00222724
0.00219894
0.00219899
0.0021963
0.00219144
0.00215863
0.00218954
0.00218948
0.00216125
0.00216132
0.00219129
0.00215877
0.00218956
0.00218945
0.00216126
0.00216091
0.00218957
0.00216132
0.00216124
0.00219128
0.00215838
0.00218954
0.00216098
0.00216122
0.00215866
0.00215372
0.00212113
0.00215188
0.00215199
0.00212384
0.00212393
0.00215386
0.00212115
0.00215182
0.00215154
0.00212378
0.00212395
0.00215185
0.00212394
0.0021238
0.00215355
0.00212148
0.00215183
0.00212402
0.00212364
0.0021211
0.00211624
0.00208408
0.00211446
0.00211447
0.00208649
0.00208635
0.0021162
0.00208391
0.00211443
0.0021147
0.00208652
0.00208664
0.00211444
0.00208631
0.00208638
0.00211657
0.00208384
0.00211423
0.0020865
0.0020865
0.00208401
0.00207925
0.0020471
0.00207728
0.00207718
0.0020497
0.00204976
0.00207913
0.00204722
0.00207736
0.00207727
0.00204975
0.00204954
0.00207717
0.00204978
0.00204978
0.00207899
0.00204724
0.00207743
0.00204961
0.00205002
0.00204732
0.0020422
0.00200983
0.00204041
0.00204049
0.00201233
0.00201247
0.00204232
0.00200987
0.00204044
0.0020404
0.00201232
0.0020126
0.00204058
0.00201252
0.0020126
0.00204247
0.00201
0.00204067
0.00201276
0.0020123
0.00200983
0.002005
0.00197294
0.00200302
0.00200311
0.00197529
0.00197502
0.00200498
0.00197268
0.00200299
0.00200315
0.00197525
0.00197487
0.0020031
0.00197497
0.00197457
0.00200498
0.00197245
0.0020028
0.00197473
0.00197444
0.00197224
0.00196803
0.00193582
0.00196607
0.00196574
0.00193827
0.00193843
0.00196777
0.0019361
0.00196605
0.00196564
0.00193828
0.00193851
0.00196533
0.00193842
0.00193873
0.0019676
0.00193621
0.00196528
0.00193837
0.00193886
0.00193671
0.00193101
0.00189962
0.00192909
0.00192942
0.00190188
0.00190213
0.00193134
0.00189967
0.00192901
0.00192951
0.0019019
0.00190214
0.00192997
0.00190222
0.0019022
0.00193146
0.00189983
0.00193009
0.00190238
0.00190214
0.00189929
0.00189486
0.00186318
0.00189285
0.00189283
0.00186546
0.00186489
0.00189474
0.00186267
0.00189284
0.0018929
0.00186539
0.00186508
0.00189253
0.00186483
0.00186438
0.00189496
0.00186263
0.00189241
0.00186496
0.00186434
0.00186235
0.00185823
0.00182618
0.00185617
0.00185578
0.00182848
0.00182899
0.00185788
0.00182689
0.00185614
0.00185583
0.00182853
0.00182847
0.00185554
0.00182898
0.00182943
0.00185771
0.00182644
0.00185556
0.0018285
0.00182944
0.00182738
0.00182143
0.00179062
0.00181944
0.00182004
0.00179278
0.00179263
0.00182212
0.00179031
0.00181945
0.00181957
0.00179273
0.00179306
0.00182055
0.00179274
0.0017928
0.00182176
0.00179093
0.00182052
0.00179317
0.00179282
0.00179019
0.00178585
0.00175422
0.00178385
0.00178349
0.00175646
0.00175628
0.00178549
0.0017541
0.00178381
0.00178408
0.00175651
0.00175641
0.00178334
0.0017562
0.00175584
0.00178608
0.00175399
0.00178342
0.00175628
0.00175589
0.00175378
0.00174935
0.00171793
0.00174726
0.00174727
0.00171999
0.00172021
0.00174931
0.00171814
0.00174732
0.00174712
0.00171994
0.00171977
0.00174692
0.00172017
0.00172028
0.00174909
0.00171777
0.00174695
0.00171978
0.00172023
0.00171822
0.00171313
0.00168214
0.00171101
0.00171117
0.00168425
0.00168418
0.00171332
0.0016821
0.00171093
0.00171083
0.00168423
0.00168429
0.00171133
0.00168426
0.00168448
0.00171302
0.00168234
0.00171128
0.00168437
0.00168446
0.00168241
0.00167739
0.00164649
0.00167533
0.00167521
0.00164861
0.00164857
0.00167732
0.00164643
0.00167537
0.00167549
0.0016487
0.0016488
0.00167551
0.00164863
0.00164843
0.00167763
0.00164651
0.00167552
0.00164881
0.00164849
0.00164624
0.00164173
0.00161081
0.0016397
0.00163969
0.00161286
0.00161288
0.00164168
0.00161078
0.00163975
0.00163975
0.00161281
0.00161279
0.00163942
0.00161276
0.00161275
0.00164172
0.0016107
0.00163945
0.00161272
0.00161276
0.00161074
0.00160604
0.00157517
0.00160392
0.00160392
0.00157725
0.00157714
0.001606
0.00157512
0.00160388
0.00160383
0.00157726
0.00157712
0.00160389
0.00157716
0.00157718
0.00160592
0.00157514
0.0016039
0.00157716
0.00157717
0.00157514
0.00157039
0.00153954
0.00156837
0.00156826
0.0015416
0.00154177
0.00157036
0.00153973
0.00156838
0.00156827
0.00154163
0.0015418
0.00156829
0.0015418
0.00154187
0.00157039
0.00153967
0.00156828
0.0015418
0.00154186
0.00153979
0.00153481
0.00150433
0.00153273
0.00153299
0.0015063
0.00150646
0.00153502
0.00150435
0.00153273
0.00153295
0.00150628
0.00150625
0.0015331
0.00150654
0.00150643
0.00153493
0.00150428
0.0015331
0.00150632
0.0015064
0.00150427
0.00149961
0.00146918
0.00149757
0.00149753
0.00147129
0.00147096
0.00149957
0.00146893
0.00149753
0.00149742
0.0014713
0.00147118
0.00149743
0.00147078
0.0014707
0.00149954
0.00146908
0.00149739
0.00147106
0.00147074
0.00146881
0.00146443
0.00143379
0.00146245
0.00146221
0.00143578
0.00143599
0.00146422
0.00143394
0.00146249
0.00146243
0.00143578
0.00143591
0.00146196
0.00143599
0.00143613
0.00146434
0.00143384
0.00146203
0.00143593
0.00143618
0.00143412
0.00142909
0.00139896
0.00142704
0.00142722
0.00140104
0.00140091
0.00142923
0.00139894
0.00142701
0.00142706
0.00140102
0.00140091
0.00142752
0.00140108
0.00140127
0.00142913
0.00139902
0.00142754
0.00140106
0.00140121
0.00139897
0.00139426
0.00136385
0.00139232
0.00139219
0.00136587
0.00136599
0.00139425
0.00136388
0.00139233
0.00139229
0.00136594
0.00136617
0.00139232
0.00136594
0.00136571
0.00139435
0.00136393
0.00139228
0.00136612
0.00136576
0.00136377
0.00135913
0.00132907
0.00135707
0.00135723
0.00133106
0.00133111
0.00135913
0.00132901
0.00135714
0.00135737
0.00133104
0.0013309
0.001357
0.00133098
0.00133091
0.00135916
0.00132882
0.00135705
0.00133068
0.0013309
0.00132884
0.00132441
0.00129423
0.00132253
0.00132245
0.00129653
0.00129631
0.00132435
0.00129424
0.0013224
0.00132214
0.00129631
0.00129597
0.00132226
0.00129625
0.00129627
0.00132413
0.00129402
0.00132219
0.00129599
0.00129615
0.0012942
0.00128943
0.00125897
0.00128762
0.00128748
0.00126085
0.001261
0.00128952
0.001259
0.00128745
0.00128726
0.00126108
0.00126134
0.00128765
0.00126119
0.00126146
0.0012893
0.00125936
0.00128752
0.0012615
0.00126153
0.00125935
0.00125429
0.00122442
0.00125214
0.00125227
0.00122641
0.00122655
0.00125426
0.00122447
0.00125242
0.00125277
0.00122655
0.00122681
0.00125261
0.00122658
0.00122633
0.00125472
0.00122471
0.00125277
0.00122689
0.00122656
0.00122444
0.00121974
0.0011901
0.00121785
0.00121801
0.00119214
0.00119218
0.00121985
0.00119015
0.0012179
0.00121807
0.00119208
0.00119198
0.00121774
0.00119219
0.00119215
0.00122001
0.00118992
0.0012179
0.00119196
0.00119206
0.00119005
0.00118547
0.00115579
0.00118359
0.00118351
0.00115798
0.00115754
0.00118547
0.00115541
0.0011835
0.00118329
0.00115774
0.00115734
0.00118361
0.00115724
0.00115746
0.0011852
0.00115516
0.00118344
0.00115707
0.00115726
0.0011552
0.00115108
0.00112059
0.00114932
0.00114888
0.00112268
0.00112281
0.0011507
0.0011207
0.00114906
0.00114873
0.00112267
0.00112279
0.00114869
0.00112277
0.00112266
0.00115048
0.00112071
0.00114854
0.00112278
0.00112264
0.00112067
0.00111583
0.00108589
0.00111389
0.00111411
0.00108783
0.00108811
0.001116
0.00108616
0.00111394
0.00111408
0.001088
0.00108817
0.00111408
0.00108843
0.0010884
0.00111604
0.00108632
0.00111408
0.00108844
0.00108848
0.00108644
0.00108126
0.00105189
0.00107931
0.0010795
0.00105382
0.0010538
0.0010815
0.00105178
0.00107948
0.00107965
0.00105399
0.0010541
0.0010798
0.00105381
0.00105384
0.0010817
0.00105196
0.00107991
0.00105402
0.00105393
0.00105179
0.00104723
0.00101708
0.00104528
0.00104521
0.00101928
0.00101922
0.0010471
0.00101711
0.00104536
0.00104539
0.00101905
0.00101898
0.00104515
0.00101911
0.00101908
0.00104722
0.00101685
0.00104521
0.00101894
0.00101899
0.00101695
0.00101233
0.00098244
0.00101053
0.00101052
0.000984468
0.00098446
0.00101238
0.000982412
0.0010103
0.00101021
0.000984414
0.000984294
0.0010104
0.000984403
0.000984435
0.00101211
0.000982349
0.00101028
0.000984295
0.000984401
0.000982404
0.00097782
0.000948438
0.000975905
0.000975815
0.000950295
0.000950044
0.00097772
0.000948105
0.000975946
0.000975815
0.000950508
0.000950455
0.00097582
0.000950035
0.000950066
0.000977743
0.0009485
0.000975836
0.000950403
0.000950218
0.000948229
0.000943783
0.000913717
0.000941728
0.000941509
0.000915829
0.000916001
0.000943482
0.000914017
0.00094191
0.000941939
0.000915758
0.000915881
0.00094155
0.000916089
0.000916086
0.000943878
0.000913755
0.000941684
0.00091591
0.000915959
0.000913935
0.000908997
0.000878975
0.000907158
0.000907423
0.000881119
0.000881349
0.000909319
0.00087918
0.000907026
0.000907153
0.000880991
0.000881072
0.000907481
0.000881297
0.000881308
0.000909012
0.000879001
0.00090733
0.000881128
0.00088128
0.000879167
0.00087427
0.000844632
0.000872461
0.000872622
0.000846609
0.000846558
0.000874434
0.000844568
0.000872374
0.000872424
0.00084659
0.000846591
0.000872545
0.000846547
0.000846506
0.000874305
0.000844669
0.000872586
0.00084668
0.000846584
0.000844595
0.000839986
0.000810582
0.000838013
0.000837919
0.000812383
0.000812328
0.000839893
0.000810463
0.000838042
0.000837998
0.000812472
0.000812337
0.000837902
0.000812355
0.000812258
0.000839991
0.000810422
0.000837965
0.000812178
0.000812173
0.000810333
0.000805946
0.000776266
0.000803871
0.000803845
0.000778294
0.00077819
0.000805818
0.000776068
0.000803978
0.000803863
0.00077841
0.000778368
0.000803736
0.000778069
0.000778114
0.000805788
0.000776306
0.00080365
0.000778194
0.00077816
0.000776157
0.000771511
0.000740913
0.000769638
0.000769436
0.00074316
0.000742933
0.000771298
0.000740959
0.000769713
0.000769732
0.000743067
0.000743145
0.000769516
0.000743074
0.000743257
0.000771602
0.00074106
0.000769623
0.000743408
0.000743265
0.00074114
0.000736079
0.000705918
0.000734315
0.000734184
0.000707943
0.00070816
0.000736199
0.00070618
0.000734148
0.000734229
0.000707796
0.000707864
0.000734444
0.000708179
0.000708153
0.000736217
0.00070592
0.000734405
0.000707973
0.000708096
0.000706108
0.000701249
0.000672086
0.00069929
0.000699561
0.000673843
0.000674004
0.000701475
0.00067211
0.000699198
0.00069927
0.000673901
0.000673947
0.000699469
0.000673935
0.000673897
0.00070123
0.00067203
0.00069943
0.000673776
0.000673859
0.000672002
0.000667512
0.000638219
0.000665461
0.000665563
0.000640197
0.000640177
0.000667527
0.000638183
0.000665533
0.000665544
0.000640226
0.000640097
0.000665472
0.000640198
0.000640074
0.000667448
0.000638091
0.000665424
0.000640031
0.000640018
0.000638075
0.000633489
0.000602865
0.000631592
0.000631529
0.000605013
0.000604942
0.000633446
0.000602813
0.000631602
0.00063142
0.000605027
0.000604943
0.000631411
0.000604963
0.000604876
0.000633358
0.000602887
0.00063138
0.000605001
0.000604928
0.000602827
0.000597997
0.000567592
0.000596082
0.000596007
0.000569582
0.000569507
0.000597936
0.000567508
0.000596105
0.000596061
0.000569606
0.000569682
0.000595972
0.0005695
0.000569542
0.000598042
0.00056769
0.000596045
0.000569712
0.00056961
0.000567598
0.000562882
0.000533394
0.000560914
0.000560836
0.000535276
0.000535219
0.000562795
0.000533381
0.000560947
0.000561047
0.000535298
0.00053541
0.000560935
0.000535256
0.000535492
0.000562981
0.000533512
0.000560995
0.000535432
0.000535507
0.000533584
0.000528752
0.000498928
0.000526768
0.000526745
0.000500983
0.000501112
0.000528758
0.000499093
0.000526774
0.000526852
0.000500899
0.000500858
0.000527026
0.000501122
0.000501008
0.000528855
0.000498815
0.000527031
0.000500864
0.000500907
0.000498895
0.00049416
0.000463654
0.000492258
0.000492411
0.000465733
0.000465695
0.000494295
0.000463575
0.000492163
0.000492097
0.000465708
0.000465606
0.000492126
0.000465616
0.000465422
0.000494022
0.000463528
0.000492031
0.000465542
0.000465396
0.000463375
0.000458788
0.000428129
0.000456811
0.00045673
0.000430103
0.000430069
0.000458698
0.000428137
0.000456811
0.000456738
0.00043014
0.000430171
0.000456541
0.000430113
0.0004303
0.000458685
0.000428266
0.000456554
0.000430226
0.000430359
0.000428363
0.000423343
0.000393559
0.0004213
0.000421318
0.000395452
0.000395511
0.000423389
0.000393615
0.000421351
0.000421412
0.000395509
0.000395587
0.000421644
0.000395592
0.000395736
0.000423503
0.000393663
0.000421688
0.000395615
0.000395739
0.000393746
0.000388902
0.000358902
0.000386919
0.00038696
0.000361015
0.000361006
0.000388934
0.000358838
0.000386974
0.000387046
0.00036099
0.000360964
0.000387037
0.000360897
0.000360631
0.000388986
0.000358781
0.000387026
0.000360865
0.000360611
0.000358595
0.000354052
0.000323184
0.000352138
0.000352114
0.000325276
0.000325239
0.000353983
0.000323191
0.000352092
0.000352026
0.000325233
0.000325163
0.000351808
0.000325224
0.000325245
0.000353916
0.000323134
0.000351791
0.00032518
0.000325239
0.000323236
0.000318321
0.000288207
0.000316357
0.000316313
0.000290148
0.000290155
0.000318335
0.000288277
0.000316331
0.000316267
0.000290159
0.000290207
0.000316468
0.000290229
0.000290421
0.000318305
0.000288321
0.000316476
0.000290287
0.000290443
0.000288455
0.000283505
0.000253463
0.000281529
0.000281575
0.000255538
0.000255627
0.000283582
0.000253508
0.000281541
0.00028161
0.000255532
0.000255581
0.000281795
0.0002556
0.00025542
0.000283617
0.00025344
0.00028182
0.000255546
0.0002554
0.000253304
0.000248604
0.000217296
0.000246638
0.000246719
0.000219411
0.000219365
0.000248608
0.000217225
0.000246627
0.000246645
0.000219408
0.000219339
0.000246398
0.000219302
0.00021909
0.000248537
0.000217194
0.000246373
0.000219257
0.000219068
0.000217003
0.000212296
0.000181637
0.000210265
0.000210212
0.000183502
0.000183465
0.000212237
0.00018165
0.000210267
0.000210204
0.000183526
0.000183517
0.000210039
0.000183532
0.00018374
0.000212215
0.000181707
0.000210019
0.000183562
0.000183742
0.000181845
0.000176885
0.00014702
0.000174819
0.000174798
0.000148975
0.000148952
0.000176916
0.000147011
0.000174853
0.000174854
0.000148997
0.000148995
0.000175108
0.000148991
0.000149142
0.000176977
0.000147065
0.000175124
0.000149051
0.000149184
0.000147126
0.000142273
0.000111362
0.000140347
0.0001403
0.000113591
0.000113553
0.000142239
0.000111303
0.000140353
0.000140363
0.000113566
0.000113628
0.000140327
0.000113461
0.000113263
0.000142319
0.000111332
0.000140371
0.000113577
0.000113295
0.00011115
0.000106378
7.47274e-05
0.000104481
0.000104461
7.68455e-05
7.70058e-05
0.000106322
7.50002e-05
0.000104451
0.000104506
7.68021e-05
7.68806e-05
0.000104214
7.70859e-05
7.70862e-05
0.000106331
7.48297e-05
0.000104217
7.69312e-05
7.70199e-05
7.50569e-05
6.96699e-05
3.92912e-05
6.76724e-05
6.79253e-05
4.10873e-05
4.1169e-05
7.00255e-05
3.93526e-05
6.76074e-05
6.76462e-05
4.1051e-05
4.09512e-05
6.81918e-05
4.12433e-05
4.14062e-05
6.9756e-05
3.92185e-05
6.80899e-05
4.10091e-05
4.13817e-05
3.94644e-05
3.45038e-05
8.50404e-06
3.25752e-05
3.25416e-05
1.14093e-05
1.11038e-05
3.44961e-05
8.02455e-06
3.25564e-05
3.24147e-05
1.14561e-05
1.12791e-05
3.27125e-05
1.09042e-05
1.05895e-05
3.44212e-05
8.27158e-06
3.27065e-05
1.11091e-05
1.06713e-05
7.58942e-06
5.43239e-06
7.09729e-06
6.8529e-06
4.93287e-06
7.21963e-06
7.03149e-06
5.74421e-06
5.95333e-06
5.24244e-06
6.23948e-06
5.17687e-06
6.39961e-06
0.0035306
0.00353328
0.0035319
0.00353209
0.00355901
0.00353308
0.0035628
0.00353345
0.00355923
0.00353319
0.00353341
0.00356269
0.00354421
0.00356595
0.0035661
0.00350323
0.00351669
0.00352068
0.00349552
0.00349364
0.00349882
0.00350313
0.0035167
0.00352057
0.00349528
0.00351907
0.00351908
0.00351907
0.0034926
0.00349261
0.00349259
0.00349261
0.00350274
0.00351465
0.00351963
0.00351026
0.00352183
0.00349983
0.00351061
0.0034935
0.00349825
0.00350279
0.00351965
0.00351447
0.00351034
0.00352178
0.00351061
0.00349997
0.00352059
0.00352069
0.00350761
0.00349981
0.00349988
0.00347557
0.00348979
0.00348966
0.00347356
0.00348696
0.00347268
0.00347552
0.00348972
0.00348955
0.00347358
0.00348352
0.00348351
0.00348349
0.00345509
0.00345514
0.00345514
0.00345509
0.00347329
0.00348835
0.00348201
0.00347265
0.00348677
0.00347386
0.00347266
0.00348694
0.00347262
0.00347332
0.00348207
0.00348835
0.00347263
0.00348677
0.0034726
0.00347387
0.00349
0.00349004
0.00347108
0.00347424
0.00347425
0.00343305
0.0034478
0.00344867
0.00343166
0.00344659
0.00343077
0.00343303
0.00344783
0.00344861
0.00343167
0.00344506
0.00344505
0.00344501
0.00341245
0.00341246
0.0034125
0.00341247
0.00343175
0.00344741
0.00344319
0.00343278
0.00344631
0.00343215
0.00343274
0.0034466
0.00343083
0.00343174
0.00344321
0.00344732
0.0034327
0.00344631
0.00343272
0.00343222
0.00344808
0.00344802
0.00343005
0.00343205
0.00343204
0.00338668
0.00340309
0.00340457
0.00338522
0.00340235
0.00338479
0.0033867
0.00340308
0.00340453
0.00338519
0.00340092
0.00340096
0.00340093
0.00336503
0.00336506
0.00336505
0.00336504
0.00338584
0.00340297
0.00339926
0.00338765
0.00340235
0.00338591
0.00338759
0.00340245
0.00338471
0.00338586
0.0033993
0.00340296
0.00338752
0.00340238
0.00338757
0.00338599
0.00340322
0.0034032
0.00338426
0.00338542
0.00338543
0.00333777
0.00335486
0.00335627
0.00333663
0.00335449
0.00333627
0.00333781
0.00335485
0.00335618
0.00333657
0.00335285
0.00335286
0.00335285
0.00331616
0.00331616
0.00331619
0.00331618
0.00333735
0.0033549
0.00335146
0.0033393
0.00335455
0.00333727
0.00333929
0.00335446
0.00333623
0.00333736
0.00335147
0.00335492
0.00333922
0.00335456
0.00333928
0.00333726
0.00335493
0.00335493
0.00333588
0.0033367
0.00333673
0.00328872
0.00330602
0.00330699
0.00328777
0.00330571
0.0032876
0.00328868
0.00330597
0.00330694
0.00328784
0.00330397
0.003304
0.00330399
0.00326771
0.00326774
0.00326774
0.00326774
0.00328862
0.00330598
0.00330277