/*--------------------------------*- C++ -*----------------------------------*\
| =========                 |                                                 |
| \\      /  F ield         | OpenFOAM: The Open Source CFD Toolbox           |
|  \\    /   O peration     | Version:  v2012                                 |
|   \\  /    A nd           | Website:  www.openfoam.com                      |
|    \\/     M anipulation  |                                                 |
\*---------------------------------------------------------------------------*/
FoamFile
{
    version     2.0;
    format      ascii;
    class       volScalarField;
    location    "762.5";
    object      epsilon;
}
// * * * * * * * * * * * * * * * * * * * * * * * * * * * * * * * * * * * * * //

dimensions      [0 2 -3 0 0 0 0];


internalField   nonuniform List<scalar> 
171728
(
1.98509e-09
3.39684e-09
8.2723e-09
4.94161e-09
1.9525e-09
3.13815e-09
8.1384e-09
4.47895e-09
1.87413e-09
2.88161e-09
7.89461e-09
4.06456e-09
1.79663e-09
2.65697e-09
7.59446e-09
3.70073e-09
1.71252e-09
2.46062e-09
6.51876e-09
3.3788e-09
1.63517e-09
2.29393e-09
4.73838e-09
3.10366e-09
1.5367e-09
2.15891e-09
3.44238e-09
2.87368e-09
1.43036e-09
2.05604e-09
2.71518e-09
2.68458e-09
1.34567e-09
1.98689e-09
2.27752e-09
2.52996e-09
1.27488e-09
1.95356e-09
2.04922e-09
2.4097e-09
1.22209e-09
1.95551e-09
2.00413e-09
2.32393e-09
1.18117e-09
1.9904e-09
2.0442e-09
2.27319e-09
1.14111e-09
2.06725e-09
2.14366e-09
2.26331e-09
1.10424e-09
2.19894e-09
2.29943e-09
2.30979e-09
1.05404e-09
2.39934e-09
2.52757e-09
2.42501e-09
9.84826e-10
2.71507e-09
2.85345e-09
2.65505e-09
9.20663e-10
3.19233e-09
3.35149e-09
3.07881e-09
8.81465e-10
3.93996e-09
4.09123e-09
3.79955e-09
8.51899e-10
5.03224e-09
5.24718e-09
5.15929e-09
8.19205e-10
6.84507e-09
6.86353e-09
7.29874e-09
7.85361e-10
9.14567e-09
9.39178e-09
1.08705e-08
7.76149e-10
1.3121e-08
1.29222e-08
1.89809e-08
7.85809e-10
1.75697e-08
1.77493e-08
2.62845e-08
8.30308e-10
2.4865e-08
2.48321e-08
5.00218e-08
9.04403e-10
3.26882e-08
3.32529e-08
7.35399e-08
1.02785e-09
4.45617e-08
4.51443e-08
1.08958e-07
1.21759e-09
5.97624e-08
5.93003e-08
1.58874e-07
1.48225e-09
7.54881e-08
7.65572e-08
2.19367e-07
1.84149e-09
9.38644e-08
9.69244e-08
2.89347e-07
2.39936e-09
1.18709e-07
1.17598e-07
3.65048e-07
3.08368e-09
1.42559e-07
1.47596e-07
4.45887e-07
4.11994e-09
1.73632e-07
1.72642e-07
5.20359e-07
5.36197e-09
2.04266e-07
2.06687e-07
5.88545e-07
7.2039e-09
2.41805e-07
2.50211e-07
6.50845e-07
9.43271e-09
2.77411e-07
2.74458e-07
7.13594e-07
1.22533e-08
3.21899e-07
3.24527e-07
7.56331e-07
1.62512e-08
3.62086e-07
3.64521e-07
8.03443e-07
2.04649e-08
4.08682e-07
4.08753e-07
8.48375e-07
2.69636e-08
4.55573e-07
4.54559e-07
8.80227e-07
3.32528e-08
5.03147e-07
5.06752e-07
9.12498e-07
4.10563e-08
5.51198e-07
5.44779e-07
9.47518e-07
5.42404e-08
5.98407e-07
6.10489e-07
9.85985e-07
6.20055e-08
6.51285e-07
6.44693e-07
1.00317e-06
7.49748e-08
6.89481e-07
6.92566e-07
1.03361e-06
9.54816e-08
7.45456e-07
7.47612e-07
1.07353e-06
1.09315e-07
7.85537e-07
7.80618e-07
1.0962e-06
1.32658e-07
8.23439e-07
8.33747e-07
1.11049e-06
1.45021e-07
8.70348e-07
8.6838e-07
1.13848e-06
1.73706e-07
9.00967e-07
8.939e-07
1.1863e-06
2.02781e-07
9.41171e-07
9.51681e-07
1.19535e-06
2.34339e-07
9.75514e-07
9.69255e-07
1.19981e-06
2.49836e-07
9.88409e-07
9.97615e-07
1.24595e-06
2.83303e-07
1.03405e-06
1.02929e-06
1.27497e-06
3.24057e-07
1.06179e-06
1.05197e-06
1.27248e-06
3.47087e-07
1.07114e-06
1.08084e-06
1.29492e-06
3.768e-07
1.09384e-06
1.09131e-06
1.32365e-06
4.14184e-07
1.12588e-06
1.12129e-06
1.33044e-06
4.44199e-07
1.13681e-06
1.14746e-06
1.35323e-06
4.75644e-07
1.16094e-06
1.15181e-06
1.35747e-06
4.93444e-07
1.1668e-06
1.16787e-06
1.37662e-06
5.31016e-07
1.18939e-06
1.19499e-06
1.40695e-06
5.58062e-07
1.21816e-06
1.21325e-06
1.40331e-06
5.74138e-07
1.21312e-06
1.21298e-06
1.39783e-06
5.98715e-07
1.22034e-06
1.22272e-06
1.43945e-06
6.21526e-07
1.25833e-06
1.2544e-06
1.45802e-06
6.43982e-07
1.25733e-06
1.25666e-06
1.44819e-06
6.57804e-07
1.25003e-06
1.25519e-06
1.45275e-06
6.72323e-07
1.2688e-06
1.27365e-06
1.45814e-06
6.93361e-07
1.29695e-06
1.28894e-06
1.48277e-06
7.14845e-07
1.29764e-06
1.28778e-06
1.50346e-06
7.22868e-07
1.28745e-06
1.28725e-06
1.4876e-06
7.29122e-07
1.28777e-06
1.30078e-06
1.47581e-06
7.44426e-07
1.30314e-06
1.31178e-06
1.51796e-06
7.63758e-07
1.32817e-06
1.31872e-06
1.54181e-06
7.77651e-07
1.32803e-06
1.31506e-06
1.49813e-06
7.74704e-07
1.29255e-06
1.29423e-06
1.46097e-06
7.71133e-07
1.30798e-06
1.3114e-06
1.54048e-06
7.99444e-07
1.34733e-06
1.35158e-06
1.59162e-06
8.13883e-07
1.31511e-06
1.33034e-06
1.51096e-06
7.95322e-07
1.28931e-06
1.28453e-06
1.44745e-06
7.90655e-07
1.33065e-06
1.29988e-06
1.52291e-06
8.18965e-07
1.35677e-06
1.35746e-06
1.5968e-06
8.25809e-07
1.30918e-06
1.34429e-06
1.55432e-06
8.00655e-07
1.27251e-06
1.28969e-06
1.48376e-06
7.95705e-07
1.30628e-06
1.29108e-06
1.50469e-06
8.1813e-07
1.3441e-06
1.32312e-06
1.54341e-06
8.18893e-07
1.31802e-06
1.31097e-06
1.5221e-06
8.00141e-07
1.28744e-06
1.2945e-06
1.50979e-06
7.99846e-07
1.291e-06
1.30122e-06
1.53358e-06
8.0152e-07
1.28405e-06
1.28567e-06
1.50542e-06
7.89984e-07
1.27084e-06
1.2672e-06
1.47117e-06
7.90291e-07
1.28743e-06
1.28965e-06
1.51655e-06
7.95941e-07
1.2897e-06
1.29538e-06
1.53286e-06
7.7881e-07
1.2432e-06
1.24891e-06
1.46779e-06
7.46996e-07
1.18254e-06
1.17996e-06
1.41215e-06
5.07464e-09
5.52481e-09
3.81121e-09
4.93559e-09
4.44746e-09
3.95662e-09
1.94358e-09
1.18995e-09
1.6226e-09
1.43037e-09
3.63971e-09
4.19729e-09
5.15266e-09
5.62112e-09
4.04713e-09
4.97293e-09
5.01522e-09
4.70436e-09
7.35883e-09
3.30343e-09
7.33704e-09
3.12519e-09
4.91299e-09
4.43021e-09
5.19664e-09
4.5703e-09
4.90621e-09
4.32924e-09
4.84055e-09
3.20844e-09
4.52338e-09
5.09854e-09
4.76063e-09
5.09312e-09
8.18674e-09
4.78381e-09
4.51523e-09
4.63965e-09
4.42958e-09
7.31731e-09
3.0534e-09
7.26344e-09
2.85278e-09
4.40302e-09
3.97258e-09
4.80649e-09
4.23544e-09
4.53059e-09
3.96703e-09
4.40618e-09
2.94231e-09
4.07876e-09
4.69203e-09
4.46766e-09
4.66194e-09
7.97561e-09
4.32242e-09
4.09612e-09
4.37814e-09
4.23841e-09
7.23915e-09
2.79054e-09
7.21265e-09
2.61709e-09
3.95117e-09
3.59165e-09
4.44766e-09
3.88305e-09
4.22471e-09
3.64851e-09
3.97757e-09
2.71046e-09
3.69463e-09
4.41308e-09
4.24196e-09
4.21476e-09
7.68768e-09
3.8899e-09
3.72816e-09
4.19744e-09
4.09501e-09
7.21168e-09
2.56377e-09
7.17556e-09
2.41399e-09
3.57467e-09
3.27081e-09
4.15781e-09
3.5763e-09
3.97882e-09
3.37358e-09
3.60683e-09
2.50717e-09
3.36387e-09
4.19528e-09
3.99757e-09
3.78494e-09
6.90256e-09
3.4901e-09
3.40214e-09
4.06073e-09
3.97722e-09
7.15043e-09
2.36816e-09
7.10779e-09
2.24071e-09
3.25788e-09
2.99463e-09
3.9262e-09
3.30992e-09
3.78243e-09
3.13337e-09
3.28955e-09
2.33243e-09
3.08643e-09
3.91051e-09
3.443e-09
3.4026e-09
5.17418e-09
3.17554e-09
3.1222e-09
3.94394e-09
3.825e-09
7.08196e-09
2.20221e-09
6.74562e-09
2.10063e-09
2.9841e-09
2.74537e-09
3.73891e-09
3.0811e-09
3.61752e-09
2.94167e-09
3.02449e-09
2.19041e-09
2.85604e-09
3.41471e-09
3.1466e-09
3.10751e-09
3.69602e-09
2.91729e-09
2.8879e-09
3.778e-09
3.29789e-09
6.52532e-09
2.07116e-09
5.53501e-09
1.99581e-09
2.7382e-09
2.53951e-09
3.57868e-09
2.89994e-09
3.47229e-09
2.78605e-09
2.80566e-09
2.07856e-09
2.67193e-09
3.12601e-09
2.82482e-09
2.86009e-09
2.86241e-09
2.70688e-09
2.69447e-09
3.25856e-09
3.02841e-09
5.14093e-09
1.97541e-09
4.07493e-09
1.92427e-09
2.53594e-09
2.3782e-09
3.44484e-09
2.75102e-09
3.38968e-09
2.66162e-09
2.63335e-09
2.0014e-09
2.53011e-09
2.80501e-09
2.58978e-09
2.66186e-09
2.36397e-09
2.54098e-09
2.53567e-09
3.01345e-09
2.80108e-09
3.80248e-09
1.9119e-09
3.18717e-09
1.88571e-09
2.37834e-09
2.25613e-09
3.38296e-09
2.63721e-09
3.3835e-09
2.57586e-09
2.50089e-09
1.95811e-09
2.43176e-09
2.58262e-09
2.44313e-09
2.5069e-09
2.08994e-09
2.42537e-09
2.41082e-09
2.78217e-09
2.61405e-09
3.02294e-09
1.88239e-09
2.64411e-09
1.88018e-09
2.25912e-09
2.17206e-09
3.38696e-09
2.56e-09
3.42814e-09
2.53195e-09
2.41368e-09
1.95242e-09
2.37251e-09
2.44398e-09
2.35252e-09
2.40474e-09
2.00354e-09
2.36082e-09
2.32083e-09
2.61403e-09
2.55739e-09
2.54907e-09
1.88271e-09
2.32567e-09
1.9053e-09
2.17834e-09
2.12421e-09
3.45193e-09
2.52659e-09
3.54061e-09
2.52799e-09
2.36289e-09
1.9812e-09
2.35228e-09
2.35675e-09
2.29909e-09
2.35196e-09
2.02885e-09
2.35491e-09
2.26489e-09
2.56903e-09
2.56255e-09
2.27869e-09
1.91716e-09
2.24882e-09
1.97126e-09
2.13678e-09
2.11516e-09
3.57613e-09
2.53316e-09
3.72154e-09
2.56814e-09
2.3542e-09
2.04925e-09
2.37889e-09
2.31027e-09
2.29132e-09
2.36298e-09
2.11381e-09
2.40213e-09
2.24545e-09
2.584e-09
2.63059e-09
2.25459e-09
1.99269e-09
2.30659e-09
2.08661e-09
2.13619e-09
2.15379e-09
3.77967e-09
2.58631e-09
3.96438e-09
2.66955e-09
2.39348e-09
2.16641e-09
2.46116e-09
2.31185e-09
2.33259e-09
2.4197e-09
2.25564e-09
2.48487e-09
2.27786e-09
2.66832e-09
2.77663e-09
2.33084e-09
2.12516e-09
2.4482e-09
2.27184e-09
2.18784e-09
2.25503e-09
4.04297e-09
2.70649e-09
4.38356e-09
2.84473e-09
2.49313e-09
2.34901e-09
2.61349e-09
2.36579e-09
2.43895e-09
2.51447e-09
2.46104e-09
2.63831e-09
2.37309e-09
2.83614e-09
2.99569e-09
2.51181e-09
2.33259e-09
2.73484e-09
2.55951e-09
2.30916e-09
2.45609e-09
4.51352e-09
2.90445e-09
4.84099e-09
3.12318e-09
2.66502e-09
2.62591e-09
2.86854e-09
2.49472e-09
2.64295e-09
2.69326e-09
2.76153e-09
2.90655e-09
2.56495e-09
3.08849e-09
3.37539e-09
2.84248e-09
2.65564e-09
3.1823e-09
2.99931e-09
2.54528e-09
2.81932e-09
4.94784e-09
3.21421e-09
5.37996e-09
3.57071e-09
2.95571e-09
3.05908e-09
3.2864e-09
2.73404e-09
3.00551e-09
3.00055e-09
3.20726e-09
3.33331e-09
2.92854e-09
3.54529e-09
4.18327e-09
3.35088e-09
3.1469e-09
3.89361e-09
3.66915e-09
2.97483e-09
3.43332e-09
5.61533e-09
3.71167e-09
6.41317e-09
4.25467e-09
3.41987e-09
3.72282e-09
3.91785e-09
3.15872e-09
3.65494e-09
3.47609e-09
3.8893e-09
3.99625e-09
3.54639e-09
4.45416e-09
5.55771e-09
4.10574e-09
3.89388e-09
4.95578e-09
4.67926e-09
3.69082e-09
4.56699e-09
6.80371e-09
4.4536e-09
7.86593e-09
5.31613e-09
4.1316e-09
4.72251e-09
4.94844e-09
3.89101e-09
4.80183e-09
4.20651e-09
4.91521e-09
5.04083e-09
4.73617e-09
5.962e-09
7.97096e-09
5.22636e-09
4.97689e-09
6.64983e-09
6.25689e-09
4.96468e-09
6.56641e-09
8.18797e-09
5.63468e-09
1.03737e-08
6.83842e-09
5.25331e-09
6.32611e-09
6.41157e-09
5.24276e-09
6.68214e-09
5.35871e-09
6.40132e-09
6.53477e-09
6.57836e-09
8.81962e-09
9.94968e-09
7.14838e-09
6.74977e-09
8.30569e-09
8.2575e-09
7.31728e-09
9.7018e-09
1.10318e-08
7.3348e-09
1.17205e-08
9.04096e-09
6.90121e-09
8.40705e-09
8.42467e-09
7.36846e-09
1.01815e-08
7.01932e-09
8.7012e-09
8.60102e-09
9.75461e-09
1.07442e-08
1.81635e-08
9.03047e-09
8.99564e-09
1.22696e-08
1.20219e-08
1.07396e-08
1.68889e-08
1.20125e-08
9.79261e-09
1.53571e-08
1.24448e-08
9.19419e-09
1.22592e-08
1.22163e-08
1.13797e-08
1.58419e-08
9.37259e-09
1.18178e-08
1.24198e-08
1.7297e-08
2.01998e-08
2.54178e-08
1.32216e-08
1.29236e-08
1.62542e-08
1.60498e-08
1.88192e-08
2.48283e-08
1.63424e-08
1.35384e-08
1.85778e-08
1.71385e-08
1.30096e-08
1.60821e-08
1.55591e-08
1.77555e-08
2.63951e-08
1.32294e-08
1.64234e-08
1.59322e-08
2.3457e-08
2.79398e-08
4.24356e-08
1.76994e-08
1.74707e-08
2.28708e-08
2.26251e-08
2.7764e-08
4.26131e-08
1.95498e-08
1.83343e-08
2.37605e-08
2.35294e-08
1.70871e-08
2.29849e-08
2.30461e-08
2.89927e-08
4.23014e-08
1.74905e-08
2.28361e-08
2.3217e-08
4.48289e-08
4.69206e-08
6.59573e-08
2.47494e-08
2.45313e-08
3.1133e-08
3.07452e-08
4.7079e-08
6.60747e-08
2.5412e-08
2.54774e-08
3.10384e-08
3.17104e-08
2.50555e-08
3.04943e-08
3.09523e-08
4.69925e-08
6.61797e-08
2.52186e-08
3.07414e-08
3.12609e-08
6.81824e-08
7.20239e-08
1.0066e-07
3.35266e-08
3.32084e-08
4.17987e-08
4.13121e-08
7.18413e-08
1.00204e-07
3.33372e-08
3.4341e-08
4.15149e-08
4.27669e-08
3.3061e-08
4.11388e-08
4.1439e-08
7.19958e-08
1.02803e-07
3.34257e-08
4.22486e-08
4.17089e-08
1.00158e-07
1.09071e-07
1.47679e-07
4.49148e-08
4.43016e-08
5.53862e-08
5.50713e-08
1.08625e-07
1.48248e-07
4.45387e-08
4.53931e-08
5.48824e-08
5.65006e-08
4.48421e-08
5.59468e-08
5.54391e-08
1.11121e-07
1.46551e-07
4.48096e-08
5.51371e-08
5.51711e-08
1.48211e-07
1.58426e-07
2.06472e-07
5.93177e-08
5.90306e-08
7.17051e-08
7.14902e-08
1.59771e-07
2.08984e-07
5.87845e-08
6.10107e-08
7.10163e-08
7.30316e-08
5.92664e-08
7.13501e-08
7.13847e-08
1.57332e-07
2.10365e-07
5.90242e-08
7.22568e-08
7.09689e-08
2.06491e-07
2.19202e-07
2.74029e-07
7.61005e-08
7.59259e-08
9.06629e-08
8.97344e-08
2.2128e-07
2.73051e-07
7.5612e-08
7.80795e-08
8.98114e-08
9.26216e-08
7.57576e-08
8.88708e-08
9.06613e-08
2.232e-07
2.75604e-07
7.55676e-08
9.13179e-08
9.03478e-08
2.74607e-07
2.88535e-07
3.50947e-07
9.596e-08
9.45983e-08
1.1289e-07
1.12538e-07
2.8711e-07
3.50606e-07
9.47351e-08
9.72587e-08
1.12866e-07
1.18248e-07
9.5716e-08
1.12164e-07
1.12969e-07
2.90095e-07
3.52916e-07
9.52107e-08
1.12625e-07
1.12261e-07
3.49479e-07
3.6695e-07
4.26842e-07
1.19009e-07
1.19116e-07
1.37919e-07
1.36973e-07
3.67503e-07
4.29111e-07
1.18967e-07
1.2464e-07
1.36276e-07
1.39514e-07
1.19433e-07
1.36406e-07
1.38098e-07
3.6786e-07
4.28176e-07
1.18601e-07
1.38612e-07
1.37022e-07
4.29847e-07
4.42325e-07
5.03279e-07
1.44491e-07
1.43217e-07
1.67047e-07
1.66138e-07
4.43982e-07
5.01471e-07
1.43257e-07
1.47791e-07
1.67259e-07
1.75516e-07
1.45178e-07
1.65593e-07
1.68093e-07
4.45212e-07
5.06307e-07
1.44301e-07
1.68834e-07
1.67435e-07
5.04453e-07
5.19416e-07
5.72396e-07
1.75067e-07
1.74033e-07
1.97752e-07
1.96634e-07
5.17654e-07
5.73199e-07
1.74659e-07
1.80885e-07
1.96095e-07
1.9305e-07
1.749e-07
1.95879e-07
2.0037e-07
5.20729e-07
5.61062e-07
1.73713e-07
1.93164e-07
1.97653e-07
5.74285e-07
5.86868e-07
6.38109e-07
2.06193e-07
2.05098e-07
2.33818e-07
2.3329e-07
5.88187e-07
6.38344e-07
2.04651e-07
2.02522e-07
2.336e-07
2.44478e-07
2.10044e-07
2.32716e-07
2.32389e-07
5.77263e-07
6.53251e-07
2.07487e-07
2.43434e-07
2.30156e-07
6.35421e-07
6.52783e-07
6.95257e-07
2.42797e-07
2.42419e-07
2.71394e-07
2.68387e-07
6.52391e-07
6.93704e-07
2.43371e-07
2.54858e-07
2.70533e-07
2.70775e-07
2.40794e-07
2.67901e-07
2.79008e-07
6.66803e-07
6.90421e-07
2.38107e-07
2.66208e-07
2.7463e-07
7.00916e-07
7.07748e-07
7.46162e-07
2.81462e-07
2.77761e-07
3.101e-07
3.11248e-07
7.06637e-07
7.46977e-07
2.79689e-07
2.76246e-07
3.10719e-07
3.12891e-07
2.92433e-07
3.11023e-07
3.17338e-07
7.00366e-07
7.4434e-07
2.87327e-07
3.12035e-07
3.11343e-07
7.46157e-07
7.58602e-07
7.92681e-07
3.20724e-07
3.22265e-07
3.56188e-07
3.5279e-07
7.59529e-07
7.91511e-07
3.21302e-07
3.26135e-07
3.54261e-07
3.54032e-07
3.22206e-07
3.51735e-07
3.53811e-07
7.59395e-07
7.92423e-07
3.16667e-07
3.54128e-07
3.51169e-07
7.8972e-07
8.03597e-07
8.32951e-07
3.66744e-07
3.63089e-07
3.97423e-07
3.97121e-07
8.02013e-07
8.32361e-07
3.66362e-07
3.64138e-07
3.98745e-07
3.98268e-07
3.68686e-07
3.96886e-07
4.02714e-07
8.02379e-07
8.31235e-07
3.68106e-07
3.98804e-07
4.04313e-07
8.39203e-07
8.43496e-07
8.71456e-07
4.09755e-07
4.08931e-07
4.47229e-07
4.43833e-07
8.43092e-07
8.70618e-07
4.08521e-07
4.09018e-07
4.46882e-07
4.42798e-07
4.13892e-07
4.435e-07
4.50539e-07
8.41711e-07
8.69492e-07
4.12935e-07
4.40326e-07
4.4589e-07
8.71336e-07
8.80784e-07
9.04772e-07
4.58228e-07
4.55859e-07
4.92062e-07
4.91647e-07
8.80243e-07
9.0583e-07
4.61918e-07
4.56565e-07
4.95294e-07
4.97817e-07
4.59443e-07
4.90734e-07
4.9079e-07
8.79588e-07
9.07257e-07
4.59147e-07
4.96644e-07
4.9604e-07
9.03415e-07
9.13701e-07
9.37104e-07
5.0454e-07
5.04182e-07
5.38808e-07
5.40413e-07
9.15015e-07
9.38071e-07
5.0388e-07
5.07653e-07
5.37471e-07
5.34278e-07
5.04065e-07
5.39867e-07
5.3628e-07
9.15786e-07
9.34685e-07
5.04914e-07
5.3168e-07
5.3431e-07
9.37886e-07
9.46376e-07
9.7443e-07
5.50048e-07
5.51596e-07
5.94323e-07
5.86375e-07
9.46235e-07
9.68421e-07
5.52746e-07
5.47863e-07
6.0178e-07
5.97236e-07
5.4829e-07
5.86012e-07
5.96982e-07
9.435e-07
9.74959e-07
5.50888e-07
5.97125e-07
6.06762e-07
9.77636e-07
9.82563e-07
9.96004e-07
6.09307e-07
5.98817e-07
6.37026e-07
6.40699e-07
9.77151e-07
1.00116e-06
6.14403e-07
6.09985e-07
6.34924e-07
6.36997e-07
6.11842e-07
6.39669e-07
6.37826e-07
9.83961e-07
9.9892e-07
6.20336e-07
6.34942e-07
6.43571e-07
9.98237e-07
1.00178e-06
1.02601e-06
6.42884e-07
6.52435e-07
6.8005e-07
6.77316e-07
1.00862e-06
1.02513e-06
6.39743e-07
6.47346e-07
6.78931e-07
6.83221e-07
6.43221e-07
6.76988e-07
6.77614e-07
1.00499e-06
1.02676e-06
6.47787e-07
6.80937e-07
6.7037e-07
1.02255e-06
1.03721e-06
1.0625e-06
6.98118e-07
6.89653e-07
7.36267e-07
7.35605e-07
1.0327e-06
1.0608e-06
6.99501e-07
6.94296e-07
7.39478e-07
7.3383e-07
6.9527e-07
7.34547e-07
7.35648e-07
1.03551e-06
1.0595e-06
6.87311e-07
7.33471e-07
7.42789e-07
1.06645e-06
1.06811e-06
1.08602e-06
7.42579e-07
7.46494e-07
7.72222e-07
7.74609e-07
1.06884e-06
1.0844e-06
7.46331e-07
7.48239e-07
7.79606e-07
7.76457e-07
7.45697e-07
7.7439e-07
7.8059e-07
1.06728e-06
1.0853e-06
7.55097e-07
7.74369e-07
7.83727e-07
1.09048e-06
1.0949e-06
1.11516e-06
7.88348e-07
7.85677e-07
8.26049e-07
8.15972e-07
1.09036e-06
1.11051e-06
7.93375e-07
7.82762e-07
8.20026e-07
8.19726e-07
7.92233e-07
8.14809e-07
8.1673e-07
1.09101e-06
1.11331e-06
7.92031e-07
8.1832e-07
8.13891e-07
1.10598e-06
1.11952e-06
1.12991e-06
8.3256e-07
8.24981e-07
8.48251e-07
8.58853e-07
1.11759e-06
1.13775e-06
8.25074e-07
8.35224e-07
8.50618e-07
8.65564e-07
8.22243e-07
8.57703e-07
8.45804e-07
1.12296e-06
1.1413e-06
8.2131e-07
8.63327e-07
8.48314e-07
1.12889e-06
1.13651e-06
1.16467e-06
8.57419e-07
8.70998e-07
8.95524e-07
8.95103e-07
1.14507e-06
1.16299e-06
8.63582e-07
8.70969e-07
8.97139e-07
8.82887e-07
8.60246e-07
8.95992e-07
9.1066e-07
1.14475e-06
1.15112e-06
8.61025e-07
8.83266e-07
9.0686e-07
1.17824e-06
1.17208e-06
1.19298e-06
9.06733e-07
8.99935e-07
9.36652e-07
9.28062e-07
1.16796e-06
1.18695e-06
9.04954e-07
8.89348e-07
9.31616e-07
9.32173e-07
9.22038e-07
9.27752e-07
9.3632e-07
1.15707e-06
1.19531e-06
9.19182e-07
9.4083e-07
9.38686e-07
1.19373e-06
1.20025e-06
1.21596e-06
9.46865e-07
9.4228e-07
9.70074e-07
9.73105e-07
1.19594e-06
1.21763e-06
9.42769e-07
9.48428e-07
9.69562e-07
9.77564e-07
9.39014e-07
9.70332e-07
9.49823e-07
1.20484e-06
1.21918e-06
9.42505e-07
9.66456e-07
9.53806e-07
1.19513e-06
1.21913e-06
1.2222e-06
9.74038e-07
9.78203e-07
9.8263e-07
9.86183e-07
1.22136e-06
1.22372e-06
9.74254e-07
9.82362e-07
9.84142e-07
9.93655e-07
9.56156e-07
9.84748e-07
9.94531e-07
1.22246e-06
1.23062e-06
9.58309e-07
9.86807e-07
9.88224e-07
1.23433e-06
1.22671e-06
1.25968e-06
9.88752e-07
9.8884e-07
1.02475e-06
1.0154e-06
1.22682e-06
1.25186e-06
9.90832e-07
9.99234e-07
1.025e-06
1.01748e-06
1.00874e-06
1.01916e-06
1.0318e-06
1.23665e-06
1.25527e-06
1.00381e-06
1.02506e-06
1.03648e-06
1.27154e-06
1.2686e-06
1.28042e-06
1.03637e-06
1.03091e-06
1.05409e-06
1.06117e-06
1.2634e-06
1.28956e-06
1.03463e-06
1.02208e-06
1.04991e-06
1.04432e-06
1.03513e-06
1.05915e-06
1.04189e-06
1.25911e-06
1.26905e-06
1.04135e-06
1.04336e-06
1.04963e-06
1.27103e-06
1.28291e-06
1.28843e-06
1.05638e-06
1.06458e-06
1.06634e-06
1.06989e-06
1.29289e-06
1.2917e-06
1.05326e-06
1.05483e-06
1.06743e-06
1.07782e-06
1.04469e-06
1.06787e-06
1.06471e-06
1.27618e-06
1.29965e-06
1.05199e-06
1.07617e-06
1.0638e-06
1.28632e-06
1.29334e-06
1.31082e-06
1.07218e-06
1.07216e-06
1.09355e-06
1.08408e-06
1.29366e-06
1.30263e-06
1.07365e-06
1.08127e-06
1.09415e-06
1.08746e-06
1.07564e-06
1.08631e-06
1.10135e-06
1.30367e-06
1.30597e-06
1.07199e-06
1.08851e-06
1.0992e-06
1.31924e-06
1.3169e-06
1.33277e-06
1.10078e-06
1.09162e-06
1.11854e-06
1.12063e-06
1.30817e-06
1.33372e-06
1.10077e-06
1.09125e-06
1.11556e-06
1.11731e-06
1.1054e-06
1.11982e-06
1.11061e-06
1.30896e-06
1.32944e-06
1.10367e-06
1.1114e-06
1.10946e-06
1.32724e-06
1.33743e-06
1.34785e-06
1.12252e-06
1.1279e-06
1.13536e-06
1.13587e-06
1.34038e-06
1.34772e-06
1.12022e-06
1.12762e-06
1.13909e-06
1.14451e-06
1.11402e-06
1.13355e-06
1.13543e-06
1.33846e-06
1.35698e-06
1.11391e-06
1.14422e-06
1.13948e-06
1.34794e-06
1.35233e-06
1.35939e-06
1.14127e-06
1.1376e-06
1.15515e-06
1.15423e-06
1.35024e-06
1.36143e-06
1.14505e-06
1.14567e-06
1.15292e-06
1.1468e-06
1.14156e-06
1.15576e-06
1.14999e-06
1.35939e-06
1.35212e-06
1.1458e-06
1.15036e-06
1.15246e-06
1.35587e-06
1.36141e-06
1.36502e-06
1.15672e-06
1.15997e-06
1.16161e-06
1.16609e-06
1.36657e-06
1.36871e-06
1.15333e-06
1.14825e-06
1.15978e-06
1.1672e-06
1.15193e-06
1.16619e-06
1.16635e-06
1.35357e-06
1.36891e-06
1.15342e-06
1.16258e-06
1.162e-06
1.36867e-06
1.37086e-06
1.39802e-06
1.16765e-06
1.16677e-06
1.19115e-06
1.1785e-06
1.37001e-06
1.38126e-06
1.1688e-06
1.17625e-06
1.19494e-06
1.18913e-06
1.17365e-06
1.17846e-06
1.19361e-06
1.37697e-06
1.39382e-06
1.16831e-06
1.18743e-06
1.19355e-06
1.40206e-06
1.40297e-06
1.40521e-06
1.19663e-06
1.18881e-06
1.20604e-06
1.21571e-06
1.39098e-06
1.41965e-06
1.19867e-06
1.19213e-06
1.20285e-06
1.20667e-06
1.1981e-06
1.21604e-06
1.20252e-06
1.39857e-06
1.41078e-06
1.19973e-06
1.21131e-06
1.20495e-06
1.40282e-06
1.40657e-06
1.40556e-06
1.20774e-06
1.21829e-06
1.21099e-06
1.21616e-06
1.42294e-06
1.41004e-06
1.20397e-06
1.21039e-06
1.20891e-06
1.21356e-06
1.2025e-06
1.21512e-06
1.20362e-06
1.41375e-06
1.4086e-06
1.20469e-06
1.21348e-06
1.20445e-06
1.39417e-06
1.40893e-06
1.42634e-06
1.2127e-06
1.21425e-06
1.22624e-06
1.2151e-06
1.41044e-06
1.41039e-06
1.21251e-06
1.21367e-06
1.22996e-06
1.21798e-06
1.20616e-06
1.21435e-06
1.22848e-06
1.40973e-06
1.41458e-06
1.20582e-06
1.21577e-06
1.22467e-06
1.42916e-06
1.43227e-06
1.44066e-06
1.23233e-06
1.22019e-06
1.24343e-06
1.25058e-06
1.4177e-06
1.45254e-06
1.23426e-06
1.22468e-06
1.24115e-06
1.24752e-06
1.23867e-06
1.25291e-06
1.25446e-06
1.42141e-06
1.44714e-06
1.23499e-06
1.24965e-06
1.25453e-06
1.45639e-06
1.44351e-06
1.45e-06
1.2462e-06
1.25618e-06
1.25602e-06
1.25864e-06
1.45811e-06
1.4544e-06
1.24435e-06
1.25205e-06
1.25555e-06
1.25602e-06
1.25506e-06
1.2599e-06
1.25381e-06
1.45185e-06
1.45104e-06
1.25595e-06
1.25725e-06
1.25555e-06
1.44715e-06
1.4531e-06
1.45326e-06
1.25821e-06
1.25704e-06
1.25997e-06
1.2515e-06
1.4547e-06
1.43799e-06
1.25742e-06
1.25593e-06
1.25937e-06
1.25593e-06
1.25365e-06
1.25015e-06
1.25714e-06
1.45205e-06
1.44719e-06
1.25525e-06
1.25481e-06
1.25634e-06
1.44942e-06
1.45516e-06
1.46022e-06
1.26052e-06
1.25137e-06
1.26527e-06
1.26031e-06
1.43922e-06
1.45418e-06
1.26093e-06
1.25715e-06
1.26762e-06
1.26829e-06
1.25978e-06
1.26029e-06
1.26333e-06
1.44993e-06
1.4631e-06
1.25802e-06
1.26761e-06
1.26208e-06
1.45578e-06
1.46393e-06
1.47738e-06
1.26766e-06
1.26865e-06
1.28175e-06
1.29239e-06
1.46364e-06
1.49418e-06
1.2695e-06
1.27277e-06
1.28041e-06
1.2862e-06
1.26406e-06
1.29274e-06
1.27782e-06
1.46923e-06
1.48456e-06
1.26369e-06
1.28714e-06
1.27803e-06
1.47412e-06
1.48371e-06
1.49555e-06
1.2881e-06
1.2965e-06
1.29874e-06
1.29845e-06
1.49925e-06
1.49591e-06
1.28616e-06
1.28904e-06
1.2969e-06
1.29034e-06
1.28639e-06
1.29899e-06
1.30189e-06
1.48801e-06
1.48285e-06
1.28542e-06
1.28886e-06
1.30026e-06
1.50119e-06
1.49729e-06
1.48353e-06
1.2989e-06
1.29714e-06
1.29312e-06
1.28954e-06
1.49635e-06
1.47819e-06
1.29716e-06
1.28935e-06
1.2926e-06
1.2877e-06
1.30245e-06
1.28935e-06
1.29619e-06
1.48352e-06
1.47552e-06
1.30103e-06
1.28676e-06
1.29638e-06
1.488e-06
1.48405e-06
1.48169e-06
1.29043e-06
1.28796e-06
1.28876e-06
1.2878e-06
1.47891e-06
1.47812e-06
1.29062e-06
1.28797e-06
1.28992e-06
1.29639e-06
1.29143e-06
1.28658e-06
1.28529e-06
1.47798e-06
1.49359e-06
1.29208e-06
1.29642e-06
1.28623e-06
1.4732e-06
1.48615e-06
1.50285e-06
1.29011e-06
1.28962e-06
1.30441e-06
1.29901e-06
1.48195e-06
1.49495e-06
1.2917e-06
1.30063e-06
1.30516e-06
1.30874e-06
1.28574e-06
1.29818e-06
1.30528e-06
1.49991e-06
1.51064e-06
1.28663e-06
1.30982e-06
1.30622e-06
1.50644e-06
1.5078e-06
1.51661e-06
1.30847e-06
1.30254e-06
1.31635e-06
1.3188e-06
1.5003e-06
1.52344e-06
1.30863e-06
1.30974e-06
1.31527e-06
1.31382e-06
1.31535e-06
1.32298e-06
1.33019e-06
1.51324e-06
1.51526e-06
1.31672e-06
1.31756e-06
1.33099e-06
1.54001e-06
1.52038e-06
1.5254e-06
1.31927e-06
1.32436e-06
1.32434e-06
1.32946e-06
1.53069e-06
1.5354e-06
1.31802e-06
1.3163e-06
1.32334e-06
1.31973e-06
1.33033e-06
1.33092e-06
1.31654e-06
1.51771e-06
1.51554e-06
1.33089e-06
1.31809e-06
1.31263e-06
1.50256e-06
1.5268e-06
1.50438e-06
1.32423e-06
1.32836e-06
1.3127e-06
1.30542e-06
1.53558e-06
1.48827e-06
1.32326e-06
1.31937e-06
1.31217e-06
1.30629e-06
1.30517e-06
1.29789e-06
1.28337e-06
1.51617e-06
1.49095e-06
1.30044e-06
1.29681e-06
1.28096e-06
1.45929e-06
1.50346e-06
1.49129e-06
1.30622e-06
1.29904e-06
1.29986e-06
1.29739e-06
1.48744e-06
1.49195e-06
1.30547e-06
1.3013e-06
1.29847e-06
1.29897e-06
1.28287e-06
1.29539e-06
1.30689e-06
1.49114e-06
1.49622e-06
1.28092e-06
1.29881e-06
1.31072e-06
1.5186e-06
1.49571e-06
1.53622e-06
1.30109e-06
1.30364e-06
1.32959e-06
1.33906e-06
1.50493e-06
1.5554e-06
1.29961e-06
1.30318e-06
1.3298e-06
1.34141e-06
1.32829e-06
1.34547e-06
1.3614e-06
1.5072e-06
1.55803e-06
1.3322e-06
1.34805e-06
1.36394e-06
1.58964e-06
1.5455e-06
1.54779e-06
1.33759e-06
1.34229e-06
1.34071e-06
1.33196e-06
1.5594e-06
1.52324e-06
1.33899e-06
1.34767e-06
1.34359e-06
1.3459e-06
1.36154e-06
1.33006e-06
1.3293e-06
1.56427e-06
1.54776e-06
1.36402e-06
1.3444e-06
1.33053e-06
1.52027e-06
1.5473e-06
1.50323e-06
1.33611e-06
1.31891e-06
1.30697e-06
1.29355e-06
1.51844e-06
1.47811e-06
1.33965e-06
1.33593e-06
1.3083e-06
1.29768e-06
1.3091e-06
1.28975e-06
1.27569e-06
1.5436e-06
1.48229e-06
1.30872e-06
1.28985e-06
1.26926e-06
1.44651e-06
1.50264e-06
1.49903e-06
1.30115e-06
1.29258e-06
1.29975e-06
1.3099e-06
1.47987e-06
1.52602e-06
1.30113e-06
1.29167e-06
1.29776e-06
1.29211e-06
1.27478e-06
1.31305e-06
1.29892e-06
1.48193e-06
1.48909e-06
1.2675e-06
1.28748e-06
1.28857e-06
1.50018e-06
1.50644e-06
1.54904e-06
1.30498e-06
1.32619e-06
1.33796e-06
1.35376e-06
1.5437e-06
1.58136e-06
1.30158e-06
1.30056e-06
1.33541e-06
1.34414e-06
1.32051e-06
1.35674e-06
1.36136e-06
1.50173e-06
1.56443e-06
1.31261e-06
1.35025e-06
1.36503e-06
1.59158e-06
1.55551e-06
1.54669e-06
1.34289e-06
1.35423e-06
1.34023e-06
1.33061e-06
1.58318e-06
1.52425e-06
1.34147e-06
1.35073e-06
1.34047e-06
1.34865e-06
1.36345e-06
1.3278e-06
1.34627e-06
1.57273e-06
1.5633e-06
1.36926e-06
1.35559e-06
1.35765e-06
1.56083e-06
1.54442e-06
1.49687e-06
1.33054e-06
1.31342e-06
1.29659e-06
1.27889e-06
1.51752e-06
1.46216e-06
1.33208e-06
1.33808e-06
1.29844e-06
1.29722e-06
1.3284e-06
1.27436e-06
1.28679e-06
1.55985e-06
1.49516e-06
1.3398e-06
1.29813e-06
1.29199e-06
1.48387e-06
1.49693e-06
1.50151e-06
1.29122e-06
1.27657e-06
1.29143e-06
1.28846e-06
1.46315e-06
1.50184e-06
1.29261e-06
1.29e-06
1.29181e-06
1.28812e-06
1.28242e-06
1.28819e-06
1.28694e-06
1.49421e-06
1.4927e-06
1.28528e-06
1.28633e-06
1.28499e-06
1.49336e-06
1.51099e-06
1.54612e-06
1.29876e-06
1.30472e-06
1.32704e-06
1.33841e-06
1.51965e-06
1.56946e-06
1.29792e-06
1.29384e-06
1.32559e-06
1.3231e-06
1.29876e-06
1.34201e-06
1.32722e-06
1.50133e-06
1.53882e-06
1.29235e-06
1.31954e-06
1.31862e-06
1.5398e-06
1.55041e-06
1.53318e-06
1.32976e-06
1.34054e-06
1.32307e-06
1.32909e-06
1.57351e-06
1.54372e-06
1.32853e-06
1.32666e-06
1.32256e-06
1.3219e-06
1.329e-06
1.3311e-06
1.31834e-06
1.5437e-06
1.53111e-06
1.32072e-06
1.3188e-06
1.31272e-06
1.52351e-06
1.5311e-06
1.50209e-06
1.31337e-06
1.317e-06
1.29193e-06
1.29093e-06
1.53997e-06
1.49988e-06
1.31323e-06
1.31327e-06
1.29213e-06
1.29413e-06
1.30861e-06
1.29002e-06
1.29239e-06
1.5298e-06
1.50756e-06
1.30508e-06
1.29507e-06
1.29392e-06
1.50578e-06
1.50339e-06
1.51653e-06
1.29043e-06
1.28856e-06
1.29579e-06
1.29065e-06
1.50076e-06
1.50637e-06
1.29059e-06
1.29296e-06
1.29579e-06
1.29777e-06
1.29226e-06
1.2892e-06
1.3004e-06
1.50944e-06
1.52274e-06
1.29419e-06
1.30007e-06
1.3039e-06
1.5299e-06
1.5223e-06
1.51963e-06
1.29957e-06
1.29282e-06
1.30006e-06
1.2916e-06
1.51037e-06
1.50377e-06
1.2994e-06
1.2995e-06
1.29954e-06
1.29566e-06
1.30165e-06
1.28909e-06
1.29405e-06
1.52674e-06
1.51104e-06
1.30483e-06
1.29487e-06
1.29492e-06
1.50901e-06
1.51918e-06
1.48737e-06
1.29592e-06
1.28689e-06
1.27466e-06
1.27276e-06
1.50366e-06
1.48545e-06
1.29505e-06
1.28768e-06
1.27407e-06
1.26919e-06
1.2841e-06
1.27126e-06
1.2642e-06
1.50851e-06
1.47677e-06
1.28391e-06
1.26763e-06
1.26366e-06
1.46962e-06
1.48811e-06
1.49842e-06
1.27211e-06
1.27203e-06
1.27476e-06
1.27969e-06
1.48732e-06
1.50896e-06
1.27183e-06
1.26852e-06
1.27527e-06
1.27991e-06
1.26359e-06
1.28024e-06
1.27675e-06
1.47825e-06
1.50705e-06
1.2632e-06
1.28034e-06
1.27754e-06
1.50398e-06
1.50754e-06
1.52237e-06
1.28189e-06
1.28675e-06
1.29037e-06
1.29157e-06
1.51797e-06
1.52447e-06
1.28268e-06
1.28932e-06
1.2909e-06
1.29741e-06
1.28697e-06
1.29209e-06
1.29569e-06
1.51886e-06
1.53347e-06
1.28741e-06
1.29713e-06
1.29526e-06
1.53237e-06
1.52344e-06
1.48062e-06
1.2896e-06
1.28933e-06
1.26191e-06
1.25369e-06
1.52443e-06
1.46516e-06
1.29008e-06
1.29587e-06
1.26224e-06
1.26064e-06
1.29409e-06
1.25295e-06
1.25704e-06
1.53401e-06
1.47597e-06
1.29342e-06
1.25965e-06
1.25675e-06
1.47155e-06
1.47813e-06
1.43992e-06
1.25302e-06
1.24424e-06
1.2198e-06
1.21589e-06
1.46265e-06
1.43264e-06
1.25336e-06
1.24971e-06
1.21911e-06
1.2139e-06
1.24557e-06
1.21459e-06
1.21185e-06
1.4723e-06
1.42958e-06
1.24584e-06
1.21413e-06
1.21285e-06
1.42708e-06
1.42288e-06
1.18541e-06
1.18361e-06
1.41954e-06
1.18456e-06
1.17955e-06
7.47134e-07
7.4443e-07
7.4434e-07
1.17847e-06
1.41353e-06
1.17932e-06
5.53681e-10
3.22093e-09
3.88721e-10
5.65801e-10
5.62978e-09
3.56454e-09
2.86026e-09
1.81564e-09
2.74165e-09
6.57911e-09
8.51986e-10
1.72159e-08
5.14491e-09
3.78642e-09
8.21709e-09
7.425e-09
1.65189e-07
5.79725e-09
2.61941e-07
1.46819e-06
2.94693e-06
8.68877e-09
1.80542e-07
7.40109e-09
2.84509e-07
1.20615e-09
1.66634e-09
1.46193e-09
1.97257e-09
1.18815e-09
1.65284e-09
1.44795e-09
5.12446e-09
7.38717e-08
3.32187e-09
3.34691e-09
5.25514e-09
5.31177e-08
3.30435e-09
1.47956e-06
2.97861e-06
2.45657e-09
3.25588e-09
9.12734e-08
8.27179e-09
2.56251e-09
3.21126e-09
6.92928e-08
2.15192e-07
2.16789e-07
4.74401e-09
1.83306e-07
1.85723e-07
1.6706e-08
4.72807e-07
1.19861e-08
6.81035e-07
6.71006e-06
9.70468e-06
1.79877e-08
5.05185e-07
1.33772e-08
7.20229e-07
1.17379e-09
1.6312e-09
1.43079e-09
1.89363e-09
1.1311e-09
1.5621e-09