/*--------------------------------*- C++ -*----------------------------------*\
| =========                 |                                                 |
| \\      /  F ield         | OpenFOAM: The Open Source CFD Toolbox           |
|  \\    /   O peration     | Version:  v2012                                 |
|   \\  /    A nd           | Website:  www.openfoam.com                      |
|    \\/     M anipulation  |                                                 |
\*---------------------------------------------------------------------------*/
FoamFile
{
    version     2.0;
    format      ascii;
    class       volScalarField;
    location    "762.5";
    object      nut;
}
// * * * * * * * * * * * * * * * * * * * * * * * * * * * * * * * * * * * * * //

dimensions      [0 2 -1 0 0 0 0];


internalField   nonuniform List<scalar> 
171728
(
1.78487e-06
1.75105e-06
1.82952e-06
2.29379e-06
1.78581e-06
1.73775e-06
1.9113e-06
2.26494e-06
1.78124e-06
1.72909e-06
2.11211e-06
2.23424e-06
1.76757e-06
1.7165e-06
2.37999e-06
2.21473e-06
1.75534e-06
1.70107e-06
3.17968e-06
2.20123e-06
1.74994e-06
1.67548e-06
5.27758e-06
2.16781e-06
1.7739e-06
1.64228e-06
7.50781e-06
2.12463e-06
1.8595e-06
1.58678e-06
5.1969e-06
2.07557e-06
1.9496e-06
1.51435e-06
2.42957e-06
2.02042e-06
1.84079e-06
1.44331e-06
1.42561e-06
1.95762e-06
1.71108e-06
1.37366e-06
1.17819e-06
1.87703e-06
1.66841e-06
1.30067e-06
1.12417e-06
1.79112e-06
1.66878e-06
1.22142e-06
1.09205e-06
1.69281e-06
1.65185e-06
1.13674e-06
1.077e-06
1.58261e-06
1.70967e-06
1.05111e-06
1.05535e-06
1.46512e-06
1.82748e-06
9.74157e-07
1.02525e-06
1.34281e-06
1.98251e-06
9.29549e-07
9.90205e-07
1.2351e-06
2.3344e-06
9.21894e-07
9.72476e-07
1.16175e-06
2.72773e-06
9.75353e-07
9.9635e-07
1.17413e-06
2.86772e-06
1.11919e-06
1.08842e-06
1.27801e-06
2.37444e-06
1.32317e-06
1.30729e-06
1.57271e-06
1.98181e-06
1.81569e-06
1.60402e-06
2.6321e-06
1.78961e-06
2.17991e-06
2.12739e-06
3.05343e-06
1.66243e-06
3.02529e-06
2.9335e-06
5.79051e-06
1.54947e-06
3.87172e-06
3.8706e-06
8.82258e-06
1.44405e-06
5.17379e-06
5.41866e-06
1.21376e-05
1.34635e-06
7.21457e-06
6.96779e-06
1.76635e-05
1.26875e-06
9.19663e-06
9.3037e-06
2.39093e-05
1.25074e-06
1.13635e-05
1.18111e-05
3.08185e-05
1.28579e-06
1.4625e-05
1.47654e-05
3.7911e-05
1.36442e-06
1.78388e-05
1.81352e-05
4.54143e-05
1.58449e-06
2.19352e-05
2.31955e-05
5.21044e-05
1.79384e-06
2.57723e-05
2.39654e-05
5.8508e-05
2.27803e-06
3.11152e-05
3.3952e-05
6.35975e-05
2.83656e-06
3.54179e-05
3.51241e-05
7.04589e-05
3.47905e-06
4.15209e-05
4.16458e-05
7.51855e-05
4.58545e-06
4.67249e-05
4.73034e-05
7.78826e-05
5.70993e-06
5.25592e-05
5.32314e-05
8.47864e-05
7.28601e-06
5.85931e-05
5.73741e-05
8.80566e-05
9.33111e-06
6.44673e-05
6.63297e-05
9.12392e-05
1.09645e-05
7.10092e-05
6.83296e-05
9.47263e-05
1.47207e-05
7.61819e-05
7.89982e-05
0.000101426
1.84336e-05
8.39254e-05
8.26211e-05
0.000103617
1.74053e-05
8.69162e-05
8.79379e-05
0.000104418
2.71581e-05
9.58359e-05
9.51651e-05
0.000112558
2.80999e-05
0.000100397
0.000100969
0.000115863
3.66096e-05
0.00010526
0.000105126
0.000117873
3.87907e-05
0.000110975
0.000114003
0.000119011
4.29879e-05
0.000117592
0.000113003
0.000127769
5.18265e-05
0.000119244
0.000122912
0.000131543
6.20608e-05
0.000128864
0.000129038
0.000129175
6.60611e-05
0.000129703
0.000127369
0.000133565
6.46993e-05
0.000131347
0.000136769
0.000142562
8.24853e-05
0.000143442
0.000137586
0.000142064
8.69973e-05
0.000143783
0.000145041
0.000141936
9.01939e-05
0.000145006
0.000147489
0.000149039
9.98513e-05
0.000152595
0.000149305
0.000150072
0.000107715
0.000155975
0.000158965
0.00015371
0.000116224
0.00016042
0.000161015
0.00015564
0.000118074
0.000163236
0.000159512
0.000155834
0.000124112
0.000162274
0.000166487
0.000163364
0.000136674
0.000174566
0.000174346
0.000165426
0.000141331
0.000176232
0.000174714
0.000162236
0.000140937
0.000173554
0.000173063
0.000165825
0.000150977
0.000182451
0.000182628
0.000174618
0.000159103
0.00018747
0.000186255
0.00017379
0.000163498
0.000184374
0.000185242
0.000172921
0.000166077
0.000182898
0.000186869
0.00017479
0.000170932
0.000194727
0.000194405
0.000176684
0.000180759
0.000199993
0.000196926
0.000183963
0.000189605
0.000198253
0.000196051
0.000184349
0.000188779
0.000195733
0.000196915
0.000179814
0.000186768
0.000198588
0.000204089
0.000182945
0.000198692
0.000208008
0.000208301
0.00019362
0.000210217
0.000213362
0.0002096
0.000192659
0.000212791
0.000207176
0.000204328
0.000180546
0.00020692
0.000201648
0.000202018
0.000184129
0.000204265
0.000218397
0.000219967
0.000204663
0.000226864
0.000223963
0.0002262
0.000202669
0.000230691
0.000209213
0.000210437
0.000181832
0.000221105
0.000208722
0.00020436
0.000182991
0.000221259
0.000230131
0.00022404
0.000206736
0.000239528
0.000233264
0.00023446
0.000210665
0.000239786
0.00021128
0.00022203
0.00019306
0.000229998
0.000207737
0.000213738
0.000189145
0.000234209
0.00023121
0.00022297
0.000201423
0.000247336
0.000237387
0.000229634
0.000203569
0.000245062
0.000223742
0.00022553
0.000197923
0.000240973
0.000221774
0.000226419
0.000201926
0.00024557
0.000225215
0.000228807
0.000203456
0.000245892
0.00022297
0.000220653
0.000194111
0.00024337
0.000224452
0.000222063
0.00019689
0.000252341
0.000232257
0.00023352
0.000207292
0.00025748
0.00022753
0.000230505
0.00020172
0.00024641
0.000219628
0.000219928
0.0001952
2.30473e-06
1.7379e-06
2.15796e-06
2.26537e-06
2.27874e-06
2.1622e-06
1.79114e-06
1.90974e-06
1.99691e-06
1.90881e-06
2.07204e-06
2.41024e-06
2.2258e-06
2.02197e-06
2.58676e-06
2.29547e-06
2.29464e-06
2.20138e-06
1.56316e-06
1.78342e-06
1.54297e-06
1.75975e-06
2.26362e-06
2.22051e-06
2.07148e-06
1.79888e-06
1.9966e-06
1.80738e-06
2.1444e-06
1.73918e-06
2.13177e-06
2.22983e-06
2.17826e-06
2.03687e-06
1.87658e-06
2.04252e-06
2.27265e-06
2.18857e-06
2.1141e-06
1.54264e-06
1.75182e-06
1.55215e-06
1.72926e-06
2.21838e-06
2.17079e-06
1.96939e-06
1.81285e-06
1.87847e-06
1.82764e-06
2.12654e-06
1.73242e-06
2.1116e-06
2.17131e-06
2.12422e-06
2.04883e-06
2.04453e-06
2.0722e-06
2.24913e-06
2.10616e-06
2.05063e-06
1.55907e-06
1.7224e-06
1.6066e-06
1.70691e-06
2.1682e-06
2.12307e-06
1.85077e-06
1.83232e-06
1.78134e-06
1.84357e-06
2.10742e-06
1.72042e-06
2.09436e-06
2.11983e-06
2.10586e-06
2.08292e-06
2.30396e-06
2.13943e-06
2.22979e-06
2.04274e-06
1.97403e-06
1.62174e-06
1.7015e-06
1.70779e-06
1.68754e-06
2.12011e-06
2.07532e-06
1.76027e-06
1.84607e-06
1.70181e-06
1.85159e-06
2.0898e-06
1.70535e-06
2.0743e-06
2.10794e-06
2.17091e-06
2.16644e-06
2.87321e-06
2.24864e-06
2.21335e-06
1.96706e-06
1.94847e-06
1.74454e-06
1.68218e-06
1.87408e-06
1.66584e-06
2.07131e-06
2.02688e-06
1.68307e-06
1.85384e-06
1.63064e-06
1.85822e-06
2.06879e-06
1.68363e-06
2.0511e-06
2.20857e-06
2.55362e-06
2.26511e-06
4.64673e-06
2.28445e-06
2.17872e-06
1.95146e-06
2.00003e-06
1.93456e-06
1.6587e-06
2.23045e-06
1.63065e-06
2.02308e-06
1.99214e-06
1.6154e-06
1.85697e-06
1.57012e-06
1.85501e-06
2.04435e-06
1.65127e-06
2.02481e-06
2.56151e-06
2.79329e-06
2.27996e-06
7.04462e-06
2.23398e-06
2.13266e-06
2.02037e-06
2.42886e-06
2.42427e-06
1.62169e-06
3.61016e-06
1.58704e-06
1.98831e-06
1.95413e-06
1.55157e-06
1.8517e-06
1.47757e-06
1.82869e-06
2.0149e-06
1.60319e-06
1.9883e-06
2.7848e-06
2.56643e-06
2.21358e-06
6.15123e-06
2.15455e-06
2.0828e-06
2.45813e-06
2.75132e-06
4.21869e-06
1.57253e-06
6.16163e-06
1.52819e-06
1.94954e-06
1.90148e-06
1.4493e-06
1.81803e-06
1.36703e-06
1.77688e-06
1.97765e-06
1.53157e-06
1.94198e-06
2.46028e-06
2.07636e-06
2.13009e-06
2.92623e-06
2.02474e-06
2.02864e-06
2.7482e-06
2.74948e-06
6.66564e-06
1.51202e-06
7.13015e-06
1.46351e-06
1.89588e-06
1.83412e-06
1.34048e-06
1.76141e-06
1.26419e-06
1.71132e-06
1.92716e-06
1.4597e-06
1.8747e-06
2.04644e-06
1.85557e-06
1.98073e-06
1.56994e-06
1.85125e-06
1.96727e-06
2.56907e-06
1.87321e-06
6.07977e-06
1.44653e-06
3.4621e-06
1.38929e-06
1.82795e-06
1.74938e-06
1.24142e-06
1.69274e-06
1.184e-06
1.62542e-06
1.85614e-06
1.38966e-06
1.78999e-06
1.84903e-06
1.78684e-06
1.81373e-06
1.21035e-06
1.7267e-06
1.88781e-06
1.83773e-06
1.58017e-06
2.87474e-06
1.36847e-06
1.79088e-06
1.30763e-06
1.74263e-06
1.65776e-06
1.168e-06
1.60056e-06
1.13119e-06
1.5223e-06
1.76906e-06
1.31843e-06
1.69332e-06
1.78081e-06
1.70293e-06
1.70494e-06
1.13263e-06
1.63368e-06
1.80323e-06
1.55743e-06
1.40742e-06
1.58722e-06
1.28733e-06
1.24346e-06
1.22875e-06
1.6483e-06
1.56085e-06
1.12017e-06
1.50022e-06
1.08235e-06
1.42946e-06
1.66575e-06
1.2376e-06
1.5873e-06
1.69436e-06
1.61981e-06
1.60949e-06
1.09786e-06
1.54625e-06
1.70878e-06
1.39309e-06
1.29934e-06
1.19233e-06
1.21029e-06
1.09421e-06
1.14937e-06
1.54784e-06
1.45512e-06
1.07564e-06
1.40929e-06
1.05961e-06
1.3494e-06
1.5595e-06
1.15476e-06
1.47516e-06
1.60801e-06
1.5383e-06
1.52638e-06
1.08202e-06
1.4591e-06
1.60294e-06
1.28736e-06
1.2552e-06
1.06983e-06
1.12942e-06
1.01644e-06
1.06922e-06
1.43768e-06
1.34504e-06
1.04839e-06
1.33149e-06
1.09916e-06
1.26933e-06
1.44716e-06
1.06944e-06
1.36158e-06
1.5228e-06
1.45189e-06
1.43484e-06
1.06139e-06
1.35491e-06
1.49051e-06
1.25076e-06
1.26817e-06
9.96092e-07
1.04862e-06
9.64554e-07
9.8931e-07
1.32406e-06
1.23406e-06
1.15371e-06
1.24621e-06
1.26692e-06
1.18907e-06
1.33362e-06
9.91235e-07
1.24954e-06
1.43197e-06
1.35895e-06
1.32891e-06
1.03666e-06
1.25353e-06
1.37133e-06
1.26999e-06
1.31935e-06
9.58501e-07
9.70609e-07
9.45336e-07
9.21449e-07
1.2119e-06
1.13529e-06
1.284e-06
1.16944e-06
1.45944e-06
1.13922e-06
1.22079e-06
9.36182e-07
1.14714e-06
1.33542e-06
1.26967e-06
1.23493e-06
9.99558e-07
1.17285e-06
1.25895e-06
1.32146e-06
1.56923e-06
9.43933e-07
9.09636e-07
9.75621e-07
8.83682e-07
1.11648e-06
1.07771e-06
1.61818e-06
1.13252e-06
2.49485e-06
1.13783e-06
1.12861e-06
9.21298e-07
1.08129e-06
1.24745e-06
1.20405e-06
1.15207e-06
9.75481e-07
1.10968e-06
1.17768e-06
1.61996e-06
1.95348e-06
9.751e-07
8.80371e-07
1.05269e-06
9.08248e-07
1.06522e-06
1.0884e-06
2.85035e-06
1.13894e-06
4.0614e-06
1.14546e-06
1.06649e-06
9.63158e-07
1.06074e-06
1.19732e-06
1.18099e-06
1.09409e-06
9.83616e-07
1.09623e-06
1.15523e-06
2.00363e-06
1.91993e-06
1.05234e-06
9.12453e-07
1.11068e-06
9.70811e-07
1.10456e-06
1.1838e-06
4.33773e-06
1.16662e-06
4.3859e-06
1.2013e-06
1.0718e-06
1.05783e-06
1.0983e-06
1.19952e-06
1.28964e-06
1.10935e-06
1.06366e-06
1.14423e-06
1.24855e-06
2.01891e-06
2.07302e-06
1.18848e-06
1.02185e-06
1.25001e-06
1.13782e-06
1.23861e-06
1.5253e-06
4.40649e-06
1.2343e-06
4.17876e-06
1.36251e-06
1.14106e-06
1.29127e-06
1.23532e-06
1.32442e-06
1.55274e-06
1.18349e-06
1.22604e-06
1.27307e-06
1.5316e-06
1.9868e-06
2.46704e-06
1.2297e-06
1.15995e-06
1.58589e-06
1.49518e-06
1.57698e-06
2.19484e-06
3.6931e-06
1.42276e-06
2.8447e-06
1.65985e-06
1.25867e-06
1.67425e-06
1.59528e-06
1.65857e-06
2.14915e-06
1.29887e-06
1.4938e-06
1.64353e-06
2.31711e-06
2.83328e-06
3.44441e-06
1.71726e-06
1.6204e-06
1.97088e-06
1.8836e-06
2.49708e-06
3.13564e-06
2.86066e-06
1.77978e-06
2.84382e-06
2.19515e-06
1.72678e-06
2.06876e-06
1.88136e-06
2.27907e-06
3.39178e-06
1.77351e-06
2.01003e-06
1.92094e-06
3.00392e-06
3.54016e-06
5.02248e-06
2.10213e-06
2.01676e-06
2.70067e-06
2.61457e-06
3.30038e-06
5.04881e-06
2.80757e-06
2.33908e-06
3.04253e-06
2.82292e-06
1.97904e-06
2.76618e-06
2.65078e-06
3.66253e-06
4.97136e-06
2.04263e-06
2.67972e-06
2.72031e-06
5.11612e-06
5.53162e-06
7.73661e-06
2.92428e-06
2.85563e-06
3.67894e-06
3.56641e-06
5.53002e-06
7.83775e-06
3.21539e-06
3.0815e-06
3.75826e-06
3.76237e-06
2.93128e-06
3.67285e-06
3.6963e-06
5.43709e-06
7.87212e-06
2.98864e-06
3.63534e-06
3.75494e-06
8.34832e-06
8.3043e-06
1.14541e-05
3.95745e-06
3.85231e-06
4.91587e-06
4.8396e-06
8.37949e-06
1.13258e-05
3.97821e-06
4.03625e-06
4.9247e-06
5.2606e-06
3.92567e-06
4.76533e-06
4.76946e-06
8.37056e-06
1.16914e-05
3.98364e-06
5.01133e-06
4.89525e-06
1.13365e-05
1.22854e-05
1.64976e-05
5.29159e-06
5.17336e-06
6.54045e-06
6.44008e-06
1.21916e-05
1.6296e-05
5.28732e-06
5.51528e-06
6.48451e-06
6.57098e-06
5.19527e-06
6.68301e-06
6.56048e-06
1.26705e-05
1.63557e-05
5.2918e-06
6.46914e-06
6.51602e-06
1.66173e-05
1.75515e-05
2.26654e-05
7.03733e-06
6.95634e-06
8.64958e-06
8.56577e-06
1.74234e-05
2.31203e-05
6.99826e-06
7.26218e-06
8.49496e-06
8.79741e-06
7.03048e-06
8.69078e-06
8.58434e-06
1.72335e-05
2.30346e-05
7.02633e-06
8.74674e-06
8.48503e-06
2.26442e-05
2.39169e-05
2.94479e-05
9.18332e-06
9.13802e-06
1.09897e-05
1.09679e-05
2.43605e-05
2.94818e-05
9.06978e-06
9.42935e-06
1.09956e-05
1.15085e-05
9.07928e-06
1.08282e-05
1.10142e-05
2.45036e-05
2.96622e-05
9.01522e-06
1.10441e-05
1.10715e-05
2.94575e-05
3.07615e-05
3.66545e-05
1.16756e-05
1.15129e-05
1.38769e-05
1.36265e-05
3.06913e-05
3.62895e-05
1.15402e-05
1.18918e-05
1.38354e-05
1.46825e-05
1.16659e-05
1.35907e-05
1.37444e-05
3.08467e-05
3.7279e-05
1.16699e-05
1.42494e-05
1.36962e-05
3.65896e-05
3.81344e-05
4.38512e-05
1.46758e-05
1.46552e-05
1.72682e-05
1.72681e-05
3.7875e-05
4.43229e-05
1.48014e-05
1.61529e-05
1.6982e-05
1.75199e-05
1.46975e-05
1.72246e-05
1.71232e-05
3.87782e-05
4.36028e-05
1.46348e-05
1.67785e-05
1.69808e-05
4.3849e-05
4.5158e-05
5.04421e-05
1.80811e-05
1.78995e-05
2.09043e-05
2.07603e-05
4.56084e-05
5.0187e-05
1.77176e-05
1.79691e-05
2.10768e-05
2.31368e-05
1.79054e-05
2.06484e-05
2.13824e-05
4.50249e-05
5.19262e-05
1.77654e-05
2.25016e-05
2.1462e-05
5.07251e-05
5.19336e-05
5.71525e-05
2.21157e-05
2.19945e-05
2.51277e-05
2.49712e-05
5.16232e-05
5.71241e-05
2.22591e-05
2.46135e-05
2.4867e-05
2.53829e-05
2.22375e-05
2.49136e-05
2.49876e-05
5.34966e-05
5.5306e-05
2.23284e-05
2.28826e-05
2.46196e-05
5.72295e-05
5.83333e-05
6.28521e-05
2.60972e-05
2.58983e-05
2.99023e-05
2.97885e-05
5.83433e-05
6.30284e-05
2.57979e-05
2.49025e-05
2.96644e-05
3.08628e-05
2.66817e-05
2.97035e-05
2.9976e-05
5.56579e-05
6.48154e-05
2.62482e-05
3.22326e-05
2.97893e-05
6.25889e-05
6.41967e-05
6.86395e-05
3.1145e-05
3.11846e-05
3.47425e-05
3.4558e-05
6.43736e-05
6.83868e-05
3.10971e-05
3.37438e-05
3.49445e-05
3.72611e-05
3.02986e-05
3.44722e-05
3.4931e-05
6.7469e-05
6.95304e-05
3.01044e-05
3.49664e-05
3.43026e-05
6.89433e-05
6.96883e-05
7.33137e-05
3.62095e-05
3.54864e-05
3.98591e-05
3.97636e-05
6.93706e-05
7.3258e-05
3.60024e-05
3.70219e-05
3.9826e-05
3.85402e-05
3.76013e-05
3.97689e-05
4.3542e-05
6.96628e-05
7.20263e-05
3.68199e-05
3.93213e-05
4.1958e-05
7.46106e-05
7.44009e-05
7.82861e-05
4.09214e-05
4.14969e-05
4.593e-05
4.57098e-05
7.45287e-05
7.83556e-05
4.12582e-05
4.16037e-05
4.52978e-05
4.62293e-05
4.39357e-05
4.5582e-05
4.37517e-05
7.38443e-05
7.88696e-05
4.21387e-05
4.62476e-05
4.26425e-05
7.66674e-05
7.93939e-05
8.23982e-05
4.76611e-05
4.69154e-05
5.09906e-05
5.09094e-05
7.92094e-05
8.21731e-05
4.6913e-05
4.70854e-05
5.18271e-05
5.13734e-05
4.64194e-05
5.08949e-05
5.25298e-05
7.96149e-05
8.21915e-05
4.55789e-05
5.17637e-05
5.31933e-05
8.3962e-05
8.32738e-05
8.70047e-05
5.2305e-05
5.25159e-05
5.78079e-05
5.70111e-05
8.3237e-05
8.66676e-05
5.27987e-05
5.28317e-05
5.64498e-05
5.63381e-05
5.35948e-05
5.70189e-05
5.91945e-05
8.31506e-05
8.62465e-05
5.41495e-05
5.58948e-05
5.69477e-05
8.72036e-05
8.80283e-05
9.0808e-05
5.93849e-05
5.85537e-05
6.31071e-05
6.3056e-05
8.75698e-05
9.06919e-05
5.88549e-05
5.7842e-05
6.5003e-05
6.46505e-05
6.06176e-05
6.30154e-05
6.27744e-05
8.71719e-05
9.12239e-05
5.85671e-05
6.43935e-05
6.45712e-05
9.05069e-05
9.15712e-05
9.41579e-05
6.46054e-05
6.4594e-05
6.9262e-05
6.96627e-05
9.15926e-05
9.48164e-05
6.56906e-05
6.64761e-05
6.77309e-05
6.80202e-05
6.4509e-05
6.95569e-05
6.87748e-05
9.2156e-05
9.39717e-05
6.59218e-05
6.79217e-05
6.67821e-05
9.3928e-05
9.49735e-05
9.96297e-05
7.02456e-05
7.10434e-05
7.53483e-05
7.48775e-05
9.56207e-05
9.8142e-05
6.93258e-05
6.87886e-05
7.75606e-05
7.62192e-05
6.94546e-05
7.49154e-05
7.57369e-05
9.45116e-05
9.91775e-05
6.80093e-05
7.58762e-05
7.79173e-05
0.000100024
0.000100817
0.000102858
7.80443e-05
7.61379e-05
8.35829e-05
8.17193e-05
9.89128e-05
0.000102657
8.02195e-05
7.88507e-05
8.39172e-05
8.21541e-05
7.87374e-05
8.16428e-05
8.41999e-05
0.000100572
0.000102823
8.12788e-05
8.2388e-05
8.58565e-05
0.000103525
0.000103038
0.000104127
8.37613e-05
8.40856e-05
8.39346e-05
8.65428e-05
0.000103655
0.000105736
8.3812e-05
8.27587e-05
8.2377e-05
8.70687e-05
8.43514e-05
8.64685e-05
8.31452e-05
0.000103159
0.000105478
8.60452e-05
8.65215e-05
8.41449e-05
0.000103621
0.000105462
0.000111838
8.69032e-05
8.68573e-05
9.57653e-05
9.36287e-05
0.000106131
0.000110159
8.56996e-05
8.83792e-05
9.65507e-05
9.25973e-05
8.57199e-05
9.36166e-05
9.43707e-05
0.000106484
0.000110061
8.32858e-05
9.27221e-05
9.42951e-05
0.000111604
0.000112316
0.00011318
9.69516e-05
9.59656e-05
9.65376e-05
9.91193e-05
0.00011147
0.000114073
9.73637e-05
9.49948e-05
9.92945e-05
0.000101006
9.57236e-05
9.91085e-05
9.96815e-05
0.000110984
0.000114401
9.73493e-05
0.000100811
0.000101908
0.000115112
0.000114029
0.000119193
9.84079e-05
0.000100316
0.000107234
0.000104544
0.000114496
0.000117101
0.00010156
0.000101268
0.0001074
0.000102284
0.000101657
0.000104564
0.000106195
0.000114734
0.000116333
0.000102971
0.000102049
0.000105297
0.000117678
0.000119608
0.000119756
0.000108922
0.000105391
0.00010936
0.000109037
0.000117794
0.00012071
0.000107796
0.000105238
0.000107534
0.000113382
0.000106624
0.000108713
0.000106078
0.000117629
0.000123215
0.000105777
0.000112903
0.000106929
0.000118395
0.000119935
0.000124311
0.000108824
0.000111215
0.000113183
0.000116745
0.000121655
0.000125534
0.000108984
0.000114532
0.00011531
0.000114693
0.000106788
0.000116991
0.000115879
0.000123546
0.000122879
0.000107743
0.000113815
0.000114933
0.000125923
0.000125427
0.000128821
0.00011554
0.000117218
0.000120901
0.000116995
0.000125803
0.000126543
0.000116764
0.000114062
0.000119622
0.000114173
0.000119612
0.000117256
0.000125219
0.000122668
0.000127213
0.000118316
0.000118957
0.000124963
0.000131548
0.000129585
0.000133447
0.000122744
0.000119175
0.000128039
0.000127738
0.000127463
0.000133732
0.00012131
0.000118986
0.000127521
0.000129557
0.000125295
0.000127281
0.00012411
0.000129308
0.000134361
0.000125503
0.000128698
0.000124948
0.000129507
0.000133791
0.000133538
0.00012899
0.000129436
0.000129134
0.000130623
0.000134321
0.000134278
0.000128835
0.000131177
0.000129389
0.000131812
0.000123379
0.000130033
0.000123553
0.000134572
0.000134209
0.000124472
0.000127653
0.000122807
0.000131662
0.000133292
0.000136795
0.000128538
0.000130357
0.000130704
0.000128163
0.000134072
0.000134584
0.000128828
0.000131428
0.000131817
0.000133709
0.000128107
0.000128222
0.000138197
0.000134305
0.000138672
0.000125383
0.000134967
0.00013777
0.000141909
0.000138538
0.000142997
0.000134196
0.000129443
0.000141367
0.000141563
0.00013597
0.000144183
0.000134753
0.000134433
0.000140311
0.000135913
0.000139662
0.000141908
0.000140315
0.000139172
0.000139443
0.000140286
0.000137449
0.0001425
0.000142187
0.000143177
0.000143162
0.000142146
0.000143649
0.000142093
0.000144996
0.000144829
0.000144966
0.000140933
0.000137535
0.000141932
0.000144209
0.000139955
0.000144075
0.000138221
0.000139746
0.000145323
0.000142371
0.000143215
0.00014105
0.00014125
0.000143309
0.00014603
0.000142379
0.000144714
0.000145254
0.000143766
0.00014486
0.000144832
0.000142601
0.000145752
0.000145728
0.000147193
0.000139533
0.000144197
0.000147828
0.000146178
0.000146852
0.000140437
0.000147545
0.000146842
0.000148118
0.000146727
0.000150349
0.000146641
0.000144108
0.000151483
0.000149839
0.000145204
0.000149423
0.000147125
0.000146948
0.000151012
0.000148095
0.000149747
0.000150391
0.000152005
0.000146669
0.00014783
0.000149159
0.000147571
0.000151452
0.000150171
0.000150942
0.00015286
0.000152829
0.000152372
0.000155038
0.00015699
0.000150708
0.000153649
0.000151898
0.00015069
0.000155456
0.000158259
0.000151812
0.00015596
0.000153738
0.000148995
0.00015533
0.000151194
0.000156927
0.000154429
0.000152484
0.000153328
0.000155828
0.000155946
0.000157165
0.000159815
0.00015788
0.000153702
0.00015491
0.000157038
0.000159549
0.000160343
0.000160163
0.000155892
0.000158717
0.000159718
0.000155855
0.000155418
0.000156979
0.000161148
0.000160954
0.000155699
0.000156023
0.000155714
0.000160718
0.000159749
0.000161035
0.000163035
0.000155868
0.000157804
0.000160644
0.000159853
0.000160051
0.000157953
0.000159899
0.000163152
0.000159775
0.00015526
0.000154755
0.000161132
0.000159677
0.000160279
0.000155289
0.000155555
0.000161115
0.000160649
0.000163187
0.000165222
0.000162312
0.000157759
0.000157075
0.000159399
0.00015948
0.000166542
0.000166971
0.000161043
0.000162241
0.000167066
0.000155642
0.000160974
0.000159909
0.000164124
0.000165789
0.000162155
0.000162397
0.000164754
0.000167527
0.000162415
0.000172347
0.000171959
0.000157619
0.000165786
0.000168928
0.000167731
0.00017226
0.000171332
0.000169196
0.00017222
0.00017284
0.000161495
0.000164907
0.000168698
0.000173177
0.000173622
0.000165612
0.000164753
0.000164185
0.000173086
0.000174425
0.000173517
0.00017662
0.000166824
0.000167345
0.000172547
0.000172758
0.000172345
0.000174571
0.000172983
0.000176522
0.000171955
0.000165473
0.000165842
0.000173843
0.000175034
0.000172592
0.000162617
0.000163959
0.000166393
0.000173323
0.0001765
0.000173103
0.000174653
0.00016694
0.000164363
0.000172067
0.00017456
0.000174848
0.000173907
0.00017146
0.000174272
0.000170376
0.000165708
0.000164808
0.000172069
0.000173666
0.000170296
0.000164189
0.000167528
0.000171195
0.000175223
0.000174016
0.000180978
0.000178373
0.000164145
0.000170785
0.000176976
0.000173443
0.000180721
0.00017982
0.000173506
0.000178865
0.00018358
0.00016496
0.000171014
0.000171839
0.000179988
0.000183033
0.000174088
0.000171334
0.00017259
0.000181796
0.000181823
0.000183948
0.000186615
0.000172451
0.000175744
0.000181296
0.000182098
0.000183914
0.000185474
0.000185312
0.000187083
0.000186534
0.000172154
0.000174129
0.000185199
0.000186106
0.000187022
0.000174068
0.000173028
0.000174053
0.000184796
0.000186918
0.000186057
0.000185406
0.000175609
0.000172295
0.000184732
0.000185652
0.00018564
0.00018541
0.000186237
0.000185218
0.000184947
0.000174035
0.000173145
0.000186934
0.000185469
0.000185541
0.000172736
0.000174032
0.000174969
0.000186132
0.000184691
0.000186922
0.000183274
0.000172014
0.00017126
0.000185849
0.000185228
0.000187689
0.000186374
0.000184697
0.000182797
0.00018688
0.000172909
0.000174297
0.000185264
0.000184941
0.000186236
0.00017477
0.000175219
0.000177273
0.000187293
0.000183179
0.000189809
0.000191762
0.000171903
0.00018005
0.000188207
0.000187557
0.00019
0.000192072
0.000187122
0.0001918
0.000187838
0.000174974
0.000179675
0.000186639
0.000192758
0.000188618
0.000175794
0.000177964
0.000182822
0.000191574
0.000194643
0.00019759
0.000199347
0.000181478
0.00018481
0.000191415
0.000193819
0.000197053
0.000196913
0.000189967
0.000199562
0.00019773
0.000180464
0.000182224
0.000190353
0.000196743
0.000197231
0.000183319
0.000183221
0.000183226
0.000198726
0.000199768
0.00019992
0.000199453
0.000184702
0.000181985
0.000198249
0.000197155
0.000199397
0.000196611
0.000199347
0.000199692
0.000201072
0.000182031
0.00018014
0.00019885
0.00019626
0.000200516
0.000184865
0.000182763
0.000180623
0.000199483
0.00019813
0.000197028
0.00019615
0.00018146
0.000179805
0.000199059
0.000196375
0.000197342
0.000195664
0.000201088
0.000195976
0.00019674
0.000179858
0.000180872
0.000200667
0.00019549
0.000197044
0.000180172
0.000180386
0.000183846
0.00019678
0.000195847
0.000197959
0.000197592
0.000179729
0.000182645
0.000197078
0.000196757
0.000198964
0.000202479
0.000196262
0.000196815
0.000195093
0.000181785
0.000186973
0.000196622
0.000202577
0.000195508
0.000181238
0.00018486
0.000188315
0.000200497
0.000199171
0.000205586
0.000204393
0.000183266
0.000187691
0.000201219
0.000203889
0.000205654
0.000206103
0.000198142
0.000205263
0.00020961
0.000187425
0.00018878
0.000198619
0.000207452
0.000210069
0.000192887
0.00018865
0.000191092
0.000206853
0.000206775
0.000210316
0.000212116
0.000188873
0.000193766
0.000206699
0.00020673
0.000209884
0.000208707
0.000211622
0.00021285
0.000214312
0.000188868
0.000190016
0.000211849
0.000209338
0.000214652
0.000194568
0.000191218
0.000191328
0.00021078
0.000212568
0.00021185
0.000212604
0.000193919
0.00019021
0.000210358
0.00020888
0.000211446
0.000209137
0.000214301
0.000210848
0.000202784
0.000190016
0.000187708
0.00021368
0.000205911
0.000201424
0.000181377
0.000190346
0.000186277
0.000210621
0.000209391
0.000206181
0.000204906
0.000188321
0.000183336
0.000210397
0.000207516
0.0002059
0.000204963
0.000200779
0.000202979
0.000197836
0.000186829
0.000184376
0.000199803
0.000202633
0.000197058
0.00018147
0.00018576
0.000190172
0.000205837
0.000204116
0.000206758
0.000211527
0.000182822
0.000195636
0.000205552
0.000204499
0.000206256
0.00021137
0.000199407
0.000214098
0.00022134
0.000184293
0.000195577
0.000200629
0.000215773
0.000222874
0.000203418
0.000192081
0.000199285
0.000211613
0.000215995
0.00021972
0.000221008
0.000197277
0.00020101
0.000211474
0.000216453
0.000220675
0.000222793
0.000224869
0.0002234
0.000230051
0.000197368
0.000202899
0.000226259
0.000224592
0.000231523
0.000206208
0.000199441
0.000195863
0.000220644
0.000222205
0.000219671
0.000212845
0.000199288
0.000188279
0.000221599
0.000224235
0.000221294
0.000217807
0.000228207
0.000211237
0.000207773
0.000202397
0.000191851
0.000229778
0.000214774
0.000207097
0.000183353
0.000194149
0.000189739
0.000216488
0.000210763
0.000212273
0.000208135
0.000187382
0.000187897
0.000217471
0.000213508
0.000211887
0.00020844
0.000204618
0.000206393
0.000200832
0.000189786
0.000185122
0.000203171
0.000205773
0.000198839
0.000180702
0.000189084
0.000196663
0.000211545
0.000208863
0.000217069
0.000225531
0.000189892
0.000205439
0.000211271
0.000207338
0.000215069
0.00021604
0.000202
0.000227281
0.000225419
0.000184831
0.000198046
0.00019861
0.000217444
0.000223724
0.000204662
0.000198361
0.000203939
0.000221397
0.000228569
0.000226989
0.000232911
0.000206395
0.000207683
0.000219956
0.000222011
0.000226761
0.000229921
0.000230351
0.000234736
0.00023609
0.000200361
0.000207898
0.000230119
0.000232639
0.000237242
0.000212592
0.000203941
0.000196997
0.000228453
0.000232472
0.000222947
0.000216036
0.000204784
0.00018913
0.000228127
0.000231625
0.000224289
0.000226091
0.000237368
0.000214608
0.000220703
0.000208046
0.000198825
0.000239414
0.000227579
0.000224772
0.000195317
0.000195341
0.00019178
0.000219479
0.000212763
0.000215502
0.000209479
0.000187752
0.000186607
0.000220662
0.000221371
0.000216187
0.000215172
0.000216196
0.000207758
0.00021175
0.000196393
0.000190757
0.000219204
0.000214519
0.000212976
0.000188873
0.000191633
0.000200604
0.000214598
0.000209045
0.000222475
0.000225909
0.000188174
0.000204765
0.000215359
0.000214305
0.000221746
0.000219909
0.000210642
0.000226802
0.000222954
0.000190181
0.000198663
0.000211998
0.000218786
0.000220168
0.000200199
0.000201835
0.000205587
0.000226147
0.000230098
0.000230462
0.000234851
0.000206248
0.000210019
0.000225438
0.000223972
0.000229865
0.000229147
0.000226814
0.000236294
0.000231408
0.000200091
0.000204512
0.000224036
0.000228413
0.000228657
0.000204522
0.00020478
0.000198441
0.000231678
0.000235917
0.000225324
0.000226077
0.000208567
0.000198719
0.000231116
0.000230447
0.000225594
0.00022645
0.000232303
0.000226441
0.000225331
0.000204029
0.000199535
0.000229561
0.000226537
0.000225429
0.000198487
0.000197729
0.000197841
0.000223488
0.000223594
0.000221887
0.000221497
0.000197691
0.000197029
0.000223838
0.000225043
0.0002223
0.000224093
0.000224199
0.000221466
0.00022415
0.000199024
0.000200246
0.000224886
0.000225207
0.00022585
0.000201208
0.000198621
0.000202605
0.000222692
0.000221805
0.000226674
0.000224769
0.0001976
0.000200511
0.000223121
0.000225226
0.000226702
0.000227133
0.000225893
0.000224409
0.0002282
0.000200813
0.000203549
0.000227411
0.000228115
0.000229612
0.000204774
0.000202643
0.000198747
0.000227396
0.000225552
0.000225947
0.000224253
0.000200323
0.000197398
0.00022745
0.00022802
0.000225473
0.000222625
0.00022904
0.000223594
0.000221945
0.000202689
0.000195675
0.000230147
0.000221889
0.00022143
0.000194859
0.000197861
0.000196552
0.000224279
0.000223484
0.000222673
0.000222716
0.000196988
0.000198094
0.000223844
0.00022132
0.000222328
0.000219959
0.000220583
0.000222346
0.000219185
0.000194991
0.000195811
0.000220023
0.000219409
0.000218673
0.000195216
0.000197131
0.000204527
0.000222478
0.000224213
0.000229928
0.000231085
0.000199268
0.000205948
0.000222294
0.0002219
0.000230254
0.000232288
0.000221596
0.000231553
0.00023237
0.000197366
0.000206982
0.000221598
0.000232502
0.000232406
0.000206979
0.000204852
0.000204426
0.00023093
0.000231776
0.000233708
0.000232377
0.000206116
0.000202374
0.000231283
0.000233351
0.000234153
0.00023606
0.000233397
0.000232633
0.000235566
0.000207294
0.000205391
0.000233417
0.000235808
0.000235303
0.000204831
0.000202165
0.000196099
0.000230069
0.000227522
0.000223745
0.000221574
0.000199581
0.000193695
0.000230498
0.000230957
0.000223693
0.000222015
0.000229982
0.000221111
0.000220983
0.000202444
0.000194153
0.00022978
0.000221827
0.000221172
0.000193398
0.000198017
0.000221857
0.000220017
0.000195433
0.000221742
0.000220017
0.000243931
0.000244479
0.000243574
0.000219254
0.000195979
0.000219426
7.20355e-06
1.79774e-06
2.24045e-06
3.5143e-06
1.10569e-06
1.94825e-06
5.85466e-07
1.54358e-06
8.08082e-07
1.9132e-06
1.29533e-06
1.15362e-06
2.30269e-06
1.74304e-06
1.7453e-06
1.05059e-06
1.35239e-05
9.74138e-07
1.53133e-05
1.05501e-05
1.28306e-05
1.34536e-06
1.39299e-05
1.2619e-06
1.57371e-05
1.9175e-06
1.98485e-06
1.90415e-06
1.78684e-06
1.9352e-06
1.98399e-06
1.90079e-06
1.13177e-06
3.27945e-07
1.50929e-06
1.74283e-06
1.15314e-06
4.3604e-07
1.50508e-06
1.06276e-05
1.28678e-05
8.1611e-07
1.71409e-06
5.66603e-07
1.83612e-06
8.12653e-07
1.72139e-06
7.08404e-07
1.48822e-06
1.50462e-06
2.28097e-06
1.7192e-06
1.71863e-06
1.32543e-06
1.86104e-05
1.24465e-06
2.10414e-05
1.68621e-05
1.90657e-05
1.52408e-06
1.90388e-05
1.44206e-06
2.14328e-05
1.93827e-06
1.98191e-06
1.89933e-06
1.7825e-06
1.94686e-06
1.97277e-06
1.8976e-06