/*--------------------------------*- C++ -*----------------------------------*\
| =========                 |                                                 |
| \\      /  F ield         | OpenFOAM: The Open Source CFD Toolbox           |
|  \\    /   O peration     | Version:  v2012                                 |
|   \\  /    A nd           | Website:  www.openfoam.com                      |
|    \\/     M anipulation  |                                                 |
\*---------------------------------------------------------------------------*/
FoamFile
{
    version     2.0;
    format      ascii;
    class       volScalarField;
    location    "762.5";
    object      p;
}
// * * * * * * * * * * * * * * * * * * * * * * * * * * * * * * * * * * * * * //

dimensions      [0 2 -2 0 0 0 0];


internalField   nonuniform List<scalar> 
171728
(
0.00351827
0.0035172
0.00351723
0.00351795
0.00348278
0.00348136
0.00348132
0.00348421
0.00344437
0.00344253
0.0034425
0.00344481
0.00340031
0.00339868
0.00339867
0.00340088
0.00335223
0.00335077
0.00335083
0.00335311
0.00330337
0.00330206
0.0033021
0.00330444
0.00325512
0.00325395
0.00325391
0.00325632
0.00320784
0.00320679
0.00320676
0.00320916
0.00316152
0.00316062
0.00316056
0.00316299
0.00311616
0.00311539
0.00311536
0.00311776
0.00307173
0.00307105
0.00307105
0.00307342
0.00302809
0.00302748
0.00302752
0.00302985
0.00298495
0.00298449
0.00298445
0.00298682
0.00294225
0.00294192
0.00294196
0.00294422
0.00289987
0.00289959
0.00289957
0.00290189
0.00285782
0.00285763
0.00285765
0.00285988
0.0028161
0.00281599
0.00281588
0.00281818
0.00277472
0.00277464
0.00277456
0.0027768
0.00273375
0.00273367
0.00273365
0.00273576
0.00269304
0.0026931
0.00269307
0.0026951
0.00265278
0.00265281
0.00265296
0.00265464
0.00261284
0.0026129
0.002613
0.00261457
0.00257307
0.00257331
0.00257326
0.00257488
0.00253362
0.0025339
0.00253391
0.00253557
0.0024944
0.00249467
0.00249471
0.00249629
0.00245546
0.00245583
0.00245582
0.00245755
0.00241674
0.00241721
0.00241714
0.0024189
0.00237817
0.00237867
0.00237864
0.00238048
0.00233982
0.00234037
0.00234033
0.00234223
0.0023017
0.00230226
0.00230225
0.0023041
0.00226369
0.0022643
0.00226429
0.00226618
0.0022259
0.00222653
0.00222646
0.00222838
0.0021882
0.00218886
0.00218893
0.00219066
0.0021507
0.00215134
0.00215127
0.00215327
0.00211329
0.00211394
0.00211391
0.00211567
0.00207604
0.0020766
0.00207664
0.00207854
0.00203891
0.00203945
0.00203945
0.00204131
0.00200194
0.00200242
0.00200239
0.00200431
0.0019651
0.0019655
0.00196555
0.00196744
0.00192833
0.0019287
0.00192861
0.00193066
0.00189179
0.00189203
0.00189216
0.00189409
0.00185539
0.00185559
0.00185546
0.00185741
0.00181877
0.00181896
0.00181905
0.00182114
0.00178289
0.00178291
0.00178284
0.00178496
0.00174669
0.00174669
0.00174671
0.00174873
0.00171078
0.00171066
0.0017107
0.00171267
0.00167473
0.00167476
0.00167468
0.00167682
0.00163905
0.00163893
0.00163888
0.00164122
0.00160366
0.00160343
0.00160364
0.00160526
0.00156815
0.00156797
0.00156772
0.00156982
0.00153268
0.0015323
0.00153247
0.00153475
0.00149715
0.00149721
0.00149727
0.00149919
0.00146228
0.00146197
0.00146159
0.00146357
0.001427
0.00142657
0.00142696
0.00142883
0.00139187
0.00139165
0.0013915
0.00139385
0.0013569
0.00135668
0.00135657
0.00135841
0.00132196
0.00132167
0.0013219
0.00132371
0.00128722
0.00128685
0.00128665
0.00128876
0.0012522
0.00125206
0.00125199
0.00125393
0.00121761
0.00121731
0.00121768
0.00121953
0.00118298
0.00118294
0.00118266
0.00118455
0.00114828
0.0011479
0.00114788
0.00114969
0.00111386
0.0011135
0.00111368
0.00111573
0.00107923
0.00107934
0.00107926
0.00108125
0.0010446
0.0010444
0.00104432
0.00104606
0.00101027
0.00100969
0.00100985
0.00101173
0.000975553
0.000975564
0.000975565
0.000977534
0.000941024
0.000941201
0.00094102
0.000942952
0.000906854
0.000906475
0.000906385
0.000908502
0.000872066
0.000871725
0.000871817
0.00087367
0.000837342
0.000837284
0.000837547
0.000839123
0.000803295
0.000803331
0.000803314
0.000805338
0.000769054
0.000769036
0.000768724
0.000771029
0.000734278
0.000733984
0.000733848
0.000735576
0.000699186
0.000698726
0.000698984
0.000700562
0.000664449
0.000664808
0.000665035
0.000667155
0.000630871
0.000631516
0.00063131
0.000633574
0.000596608
0.000595389
0.000595515
0.00059708
0.00055994
0.000559448
0.000559417
0.000561144
0.000525056
0.000525955
0.00052559
0.000528012
0.000492254
0.000492691
0.000492892
0.000494972
0.000457901
0.000456772
0.000457325
0.000458806
0.000420914
0.000420406
0.00042035
0.000422164
0.000385443
0.000386154
0.000385642
0.000388009
0.000352008
0.000352454
0.000352276
0.000354402
0.000317154
0.000316486
0.000316874
0.000318605
0.000280777
0.000280425
0.00028057
0.00028249
0.00024559
0.000245834
0.000245697
0.000247826
0.000210639
0.000210606
0.000210445
0.000212478
0.00017436
0.000174222
0.000174117
0.000176054
0.000138947
0.000139019
0.000139237
0.00014121
0.0001043
0.000104237
0.000104328
0.000106282
6.80153e-05
6.77921e-05
6.77583e-05
6.9655e-05
3.21823e-05
3.17047e-05
3.16463e-05
3.34896e-05
5.28129e-06
6.45355e-06
6.32762e-06
4.53279e-06
0.00352275
0.00352033
0.00352014
0.00352261
0.00352033
0.00352029
0.00352664
0.00352663
0.00352664
0.00352664
0.00352014
0.00352023
0.00352273
0.00352033
0.00352025
0.0035227
0.00351799
0.00348894
0.00351723
0.00351717
0.00349084
0.00349087
0.00351787
0.00348898
0.00351726
0.00351725
0.00349077
0.00349076
0.00351723
0.00349078
0.00349083
0.00351796
0.00348898
0.00351722
0.00349086
0.00349084
0.00348899
0.0034842
0.00345037
0.00348131
0.00348124
0.00345269
0.00345266
0.0034842
0.00345034
0.00348136
0.0034814
0.00345268
0.00345261
0.00348133
0.00345262
0.0034527
0.00348421
0.00345037
0.00348132
0.00345269
0.00345266
0.00345035
0.00344484
0.00340706
0.00344248
0.00344245
0.00341012
0.0034101
0.00344482
0.00340707
0.00344254
0.00344255
0.00341015
0.00341014
0.0034425
0.00341007
0.00341014
0.00344485
0.00340707
0.00344249
0.00341016
0.00341014
0.00340706
0.00340089
0.00335959
0.00339868
0.00339864
0.00336297
0.00336297
0.00340089
0.00335959
0.00339862
0.00339864
0.00336297
0.00336295
0.00339865
0.00336299
0.00336293
0.0034009
0.00335958
0.00339863
0.00336293
0.00336295
0.00335958
0.00335313
0.00331089
0.0033508
0.00335078
0.00331424
0.00331421
0.00335311
0.00331088
0.00335078
0.00335078
0.00331424
0.00331426
0.00335078
0.00331422
0.00331425
0.00335313
0.00331087
0.00335076
0.00331426
0.00331424
0.00331088
0.00330445
0.00326264
0.00330214
0.00330207
0.00326592
0.00326587
0.00330442
0.00326263
0.00330211
0.00330208
0.00326592
0.00326591
0.00330211
0.00326584
0.00326591
0.00330443
0.00326264
0.0033021
0.00326592
0.00326587
0.00326264
0.00325632
0.00321536
0.00325394
0.00325393
0.00321846
0.0032185
0.0032563
0.00321534
0.00325398
0.00325397
0.00321851
0.0032185
0.00325394
0.00321849
0.00321852
0.00325632
0.00321534
0.00325397
0.00321846
0.0032185
0.00321534
0.00320918
0.00316903
0.00320684
0.0032068
0.00317205
0.00317206
0.00320915
0.00316902
0.0032068
0.00320679
0.00317208
0.00317208
0.00320679
0.00317206
0.00317211
0.00320915
0.00316903
0.00320682
0.00317204
0.00317207
0.00316903
0.003163
0.00312362
0.00316072
0.00316063
0.00312658
0.00312659
0.00316298
0.00312365
0.00316063
0.00316062
0.0031266
0.0031266
0.00316063
0.00312659
0.00312663
0.00316298
0.00312367
0.00316064
0.00312661
0.0031266
0.00312367
0.00311772
0.00307919
0.00311547
0.00311538
0.00308201
0.00308205
0.00311775
0.0030792
0.00311539
0.00311543
0.00308209
0.00308206
0.00311541
0.00308205
0.00308207
0.00311777
0.0030792
0.00311539
0.00308206
0.00308207
0.0030792
0.00307341
0.0030356
0.00307104
0.00307105
0.00303837
0.00303835
0.00307342
0.00303553
0.00307106
0.00307105
0.00303837
0.00303836
0.00307107
0.00303834
0.00303833
0.00307341
0.00303553
0.00307106
0.00303833
0.00303832
0.00303552
0.0030299
0.00299241
0.00302751
0.0030275
0.0029952
0.0029952
0.00302984
0.00299244
0.00302757
0.00302751
0.00299521
0.0029952
0.00302751
0.0029952
0.00299522
0.00302985
0.00299244
0.00302751
0.00299522
0.00299521
0.00299242
0.00298681
0.00294973
0.0029845
0.00298449
0.0029525
0.00295249
0.00298684
0.00294976
0.00298447
0.00298448
0.00295251
0.00295248
0.00298449
0.00295249
0.00295253
0.00298683
0.00294975
0.0029845
0.00295247
0.00295253
0.00294976
0.00294418
0.00290737
0.00294193
0.00294192
0.00291015
0.00291017
0.00294422
0.00290733
0.00294193
0.00294194
0.00291013
0.00291016
0.00294193
0.00291017
0.00291017
0.00294423
0.00290742
0.00294191
0.00291016
0.00291016
0.00290738
0.00290189
0.00286529
0.0028997
0.00289959
0.00286806
0.00286813
0.00290185
0.00286528
0.00289972
0.00289957
0.00286803
0.00286798
0.0028996
0.00286813
0.00286811
0.00290192
0.00286532
0.0028996
0.00286798
0.00286811
0.00286531
0.00285989
0.00282353
0.00285773
0.00285763
0.00282623
0.00282637
0.00285985
0.00282357
0.00285773
0.00285765
0.00282619
0.0028263
0.00285763
0.00282634
0.00282635
0.00285991
0.00282357
0.00285761
0.00282633
0.00282634
0.00282353
0.00281821
0.00278207
0.00281603
0.002816
0.00278482
0.00278488
0.0028182
0.00278214
0.002816
0.00281587
0.00278478
0.00278489
0.00281596
0.00278487
0.00278499
0.00281819
0.00278206
0.00281596
0.00278494
0.00278499
0.00278212
0.00277674
0.00274096
0.00277458
0.00277464
0.00274393
0.00274388
0.00277683
0.00274098
0.00277451
0.00277458
0.00274396
0.00274398
0.00277463
0.00274386
0.00274399
0.00277675
0.00274102
0.00277461
0.00274398
0.00274399
0.00274097
0.00273572
0.00270016
0.00273362
0.00273368
0.00270332
0.00270318
0.00273576
0.00270026
0.00273359
0.00273367
0.00270327
0.00270322
0.00273376
0.00270315
0.00270321
0.00273578
0.00270023
0.00273379
0.00270319
0.00270322
0.00270028
0.00269502
0.00265988
0.00269316
0.0026931
0.00266277
0.0026628
0.00269508
0.00265984
0.00269308
0.00269297
0.00266266
0.00266288
0.00269311
0.00266279
0.0026628
0.00269502
0.00265969
0.00269312
0.00266292
0.0026628
0.00265985
0.00265464
0.00261972
0.00265277
0.00265281
0.00262303
0.00262296
0.00265469
0.00261962
0.00265276
0.00265282
0.00262307
0.00262293
0.00265284
0.00262291
0.00262294
0.00265461
0.00261966
0.00265284
0.00262295
0.00262296
0.00261957
0.0026147
0.00257992
0.00261302
0.00261295
0.00258313
0.00258316
0.00261461
0.00257994
0.00261304
0.00261294
0.00258315
0.00258319
0.00261293
0.00258316
0.00258314
0.00261461
0.0025799
0.00261294
0.00258326
0.00258314
0.00257992
0.00257486
0.00254051
0.00257328
0.00257329
0.00254377
0.00254376
0.00257492
0.00254051
0.00257328
0.00257321
0.00254377
0.00254374
0.00257333
0.00254375
0.00254379
0.00257489
0.00254051
0.00257328
0.00254381
0.00254378
0.00254058
0.00253552
0.00250131
0.00253393
0.00253391
0.0025045
0.00250446
0.00253552
0.0025013
0.00253392
0.00253385
0.00250451
0.00250445
0.00253394
0.00250443
0.00250441
0.00253551
0.0025013
0.00253393
0.00250449
0.00250442
0.00250127
0.00249635
0.00246245
0.00249474
0.0024947
0.00246554
0.00246553
0.00249632
0.00246249
0.00249472
0.00249462
0.00246556
0.00246555
0.0024947
0.00246551
0.00246551
0.00249632
0.00246254
0.0024947
0.00246553
0.0024655
0.00246247
0.00245751
0.0024238
0.00245584
0.00245584
0.00242682
0.00242684
0.00245755
0.00242386
0.00245582
0.00245575
0.00242684
0.00242685
0.00245587
0.00242686
0.0024268
0.00245757
0.00242375
0.00245587
0.00242682
0.00242678
0.00242383
0.00241887
0.00238538
0.00241717
0.00241718
0.00238826
0.00238826
0.00241894
0.00238537
0.00241716
0.00241712
0.00238826
0.00238831
0.00241718
0.00238828
0.00238824
0.00241883
0.00238545
0.00241716
0.00238828
0.00238822
0.0023854
0.00238046
0.00234712
0.00237865
0.00237864
0.00234991
0.00234991
0.00238043
0.00234707
0.00237866
0.00237866
0.00234989
0.00234986
0.00237865
0.00234991
0.00234988
0.0023805
0.00234704
0.00237864
0.00234992
0.00234987
0.00234713
0.00234221
0.00230906
0.00234035
0.00234036
0.00231176
0.00231177
0.00234217
0.00230906
0.00234033
0.0023403
0.00231178
0.0023118
0.00234033
0.00231177
0.00231173
0.00234215
0.00230909
0.00234032
0.00231173
0.00231173
0.00230901
0.00230415
0.00227106
0.00230226
0.00230226
0.00227375
0.00227378
0.00230416
0.00227107
0.00230225
0.00230227
0.00227374
0.00227372
0.00230222
0.00227377
0.00227377
0.00230417
0.00227108
0.00230222
0.00227377
0.00227378
0.00227111
0.00226615
0.00223331
0.00226428
0.00226431
0.00223596
0.00223597
0.00226614
0.00223326
0.00226428
0.00226427
0.00223599
0.00223596
0.00226427
0.00223597
0.00223595
0.00226615
0.00223338
0.00226429
0.00223593
0.00223594
0.00223327
0.0022284
0.00219556
0.00222652
0.00222653
0.00219824
0.00219826
0.00222837
0.00219561
0.00222653
0.00222647
0.0021982
0.00219823
0.00222651
0.00219826
0.00219821
0.00222849
0.00219545
0.00222649
0.00219831
0.00219821
0.00219555
0.00219067
0.0021581
0.00218883
0.00218887
0.00216072
0.00216072
0.0021907
0.00215806
0.00218881
0.00218887
0.00216075
0.00216073
0.00218882
0.00216071
0.00216072
0.00219058
0.00215815
0.00218883
0.00216068
0.00216075
0.00215816
0.00215321
0.00212062
0.00215135
0.00215134
0.00212324
0.00212327
0.00215317
0.00212067
0.00215138
0.00215132
0.00212322
0.00212319
0.00215137
0.00212328
0.00212326
0.00215327
0.0021206
0.00215139
0.0021232
0.00212321
0.00212056
0.00211574
0.00208338
0.0021139
0.00211393
0.00208595
0.00208594
0.00211578
0.00208334
0.00211389
0.00211389
0.00208594
0.00208597
0.00211388
0.00208594
0.00208586
0.00211572
0.00208339
0.00211385
0.00208599
0.0020859
0.00208342
0.00207849
0.00204619
0.00207664
0.00207662
0.00204872
0.00204872
0.00207846
0.0020462
0.00207662
0.00207664
0.00204873
0.00204871
0.00207657
0.00204871
0.00204876
0.0020785
0.00204622
0.00207658
0.00204871
0.0020488
0.0020462
0.00204132
0.00200919
0.00203943
0.00203945
0.00201167
0.00201167
0.00204134
0.00200919
0.00203945
0.00203944
0.00201162
0.00201164
0.00203948
0.00201168
0.00201165
0.00204135
0.00200917
0.00203951
0.00201164
0.0020116
0.00200918
0.00200433
0.00197227
0.00200242
0.00200242
0.0019747
0.00197472
0.00200432
0.00197228
0.00200241
0.0020024
0.00197476
0.00197477
0.00200239
0.00197472
0.00197467
0.00200431
0.00197234
0.00200235
0.00197478
0.00197474
0.00197229
0.0019674
0.00193552
0.00196547
0.0019655
0.00193788
0.00193789
0.00196743
0.00193551
0.00196549
0.00196553
0.00193782
0.0019378
0.00196546
0.00193789
0.00193789
0.00196746
0.00193543
0.00196551
0.0019378
0.00193781
0.0019355
0.00193068
0.00189889
0.0019287
0.0019287
0.00190118
0.00190116
0.00193065
0.00189885
0.00192868
0.00192863
0.00190124
0.00190125
0.0019287
0.00190116
0.00190123
0.0019306
0.00189896
0.00192866
0.00190126
0.0019013
0.00189895
0.00189405
0.00186232
0.00189205
0.00189203
0.00186467
0.0018647
0.00189403
0.00186242
0.00189209
0.00189212
0.00186461
0.00186467
0.00189211
0.0018647
0.00186461
0.00189412
0.00186232
0.00189216
0.00186465
0.00186453
0.00186224
0.00185749
0.00182595
0.0018555
0.00185559
0.00182811
0.00182812
0.00185759
0.00182586
0.00185543
0.00185551
0.00182811
0.00182812
0.00185543
0.00182811
0.00182814
0.00185748
0.00182592
0.00185533
0.00182813
0.00182812
0.00182595
0.00182114
0.00178967
0.00181905
0.00181896
0.00179193
0.00179187
0.00182102
0.00178972
0.00181907
0.00181902
0.00179197
0.00179184
0.0018191
0.00179187
0.00179194
0.00182108
0.00178968
0.00181908
0.00179184
0.00179197
0.00178979
0.00178483
0.00175356
0.00178283
0.00178291
0.00175565
0.00175575
0.00178492
0.00175356
0.00178286
0.00178285
0.00175565
0.00175578
0.00178287
0.00175576
0.0017557
0.00178491
0.00175356
0.00178293
0.00175579
0.00175568
0.00175351
0.00174881
0.0017176
0.0017467
0.00174668
0.00171983
0.00171968
0.00174877
0.00171753
0.0017467
0.0017467
0.00171975
0.00171964
0.00174672
0.00171966
0.00171965
0.00174874
0.00171757
0.00174665
0.00171963
0.00171962
0.00171748
0.00171276
0.00168151
0.00171077
0.00171069
0.00168352
0.00168373
0.00171273
0.00168164
0.00171068
0.00171072
0.00168361
0.0016838
0.00171059
0.00168372
0.00168361
0.00171281
0.00168157
0.00171058
0.00168378
0.00168366
0.00168157
0.00167675
0.00164586
0.00167456
0.00167476
0.00164797
0.00164784
0.00167685
0.00164574
0.0016747
0.00167469
0.00164797
0.00164764
0.00167471
0.00164789
0.00164813
0.00167673
0.00164565
0.00167476
0.00164769
0.00164809
0.001646
0.00164109
0.00161021
0.00163911
0.00163889
0.00161232
0.00161227
0.00164097
0.00161024
0.00163904
0.00163881
0.00161224
0.00161243
0.00163923
0.00161225
0.00161216
0.00164094
0.00161042
0.00163918
0.0016125
0.00161214
0.00161004
0.00160548
0.00157475
0.00160337
0.00160346
0.00157675
0.00157696
0.00160552
0.00157478
0.00160336
0.00160363
0.00157688
0.00157698
0.00160309
0.0015769
0.00157651
0.00160568
0.00157466
0.00160318
0.00157674
0.00157654
0.00157453
0.00156999
0.00153913
0.0015679
0.00156803
0.00154123
0.00154107
0.00156998
0.0015391
0.001568
0.00156793
0.00154121
0.00154107
0.00156781
0.00154113
0.00154161
0.00156988
0.00153914
0.00156778
0.00154119
0.00154151
0.00153948
0.00153438
0.00150392
0.00153237
0.00153221
0.00150593
0.00150587
0.00153437
0.00150392
0.00153233
0.00153224
0.00150591
0.00150589
0.00153278
0.00150599
0.00150603
0.00153442
0.00150398
0.0015327
0.00150613
0.00150617
0.00150399
0.00149921
0.00146869
0.00149717
0.00149711
0.00147085
0.00147099
0.00149919
0.00146879
0.00149715
0.0014971
0.00147077
0.00147069
0.00149702
0.00147079
0.00147034
0.00149924
0.00146852
0.00149725
0.00147044
0.00147027
0.0014683
0.00146393
0.00143338
0.00146193
0.00146221
0.00143535
0.00143532
0.00146403
0.00143329
0.00146185
0.00146191
0.00143545
0.00143572
0.00146165
0.00143533
0.00143561
0.0014638
0.00143359
0.00146146
0.00143565
0.00143551
0.00143349
0.00142866
0.00139836
0.00142659
0.00142646
0.00140041
0.00140026
0.00142856
0.00139835
0.00142671
0.00142691
0.00140043
0.00140021
0.00142688
0.00140039
0.00140059
0.00142888
0.00139827
0.00142687
0.00140038
0.00140067
0.00139861
0.00139364
0.00136332
0.00139169
0.00139157
0.00136542
0.00136549
0.00139365
0.00136337
0.00139163
0.00139136
0.00136533
0.00136529
0.00139179
0.00136541
0.00136524
0.00139351
0.00136323
0.00139186
0.00136523
0.00136519
0.00136314
0.00135861
0.0013284
0.00135667
0.00135678
0.00133039
0.0013305
0.00135866
0.00132836
0.0013566
0.00135668
0.00133045
0.00133067
0.00135641
0.00133043
0.00133036
0.00135856
0.00132855
0.00135636
0.00133064
0.0013304
0.00132838
0.00132369
0.00129344
0.00132164
0.00132166
0.00129557
0.0012954
0.00132363
0.00129345
0.00132175
0.00132185
0.00129555
0.00129531
0.0013217
0.00129551
0.00129562
0.00132384
0.00129332
0.00132179
0.00129546
0.00129564
0.00129349
0.00128873
0.00125864
0.0012869
0.00128679
0.00126072
0.00126087
0.00128877
0.00125874
0.00128679
0.00128658
0.00126061
0.00126073
0.00128685
0.00126082
0.00126075
0.00128858
0.00125859
0.00128679
0.00126057
0.00126057
0.0012586
0.00125397
0.00122416
0.001252
0.00125211
0.00122605
0.00122592
0.00125402
0.0012239
0.00125199
0.00125216
0.00122627
0.00122636
0.0012521
0.00122592
0.00122617
0.00125396
0.00122431
0.00125198
0.00122631
0.00122629
0.0012242
0.00121949
0.00118924
0.00121747
0.0012173
0.00119143
0.00119157
0.00121924
0.00118955
0.00121765
0.00121761
0.00119128
0.00119123
0.00121747
0.00119158
0.0011913
0.00121961
0.00118927
0.00121763
0.00119142
0.00119137
0.00118928
0.00118452
0.00115454
0.00118269
0.00118294
0.00115661
0.00115669
0.00118486
0.00115453
0.0011825
0.00118254
0.00115659
0.00115666
0.00118259
0.00115664
0.00115656
0.00118453
0.00115446
0.0011826
0.0011565
0.00115644
0.00115436
0.00114988
0.00112027
0.00114798
0.00114795
0.00112225
0.001122
0.0011498
0.00111999
0.00114804
0.00114804
0.00112239
0.00112226
0.00114794
0.00112203
0.00112232
0.00114979
0.00112022
0.00114784
0.00112223
0.00112236
0.00112032
0.00111562
0.00108572
0.00111368
0.00111345
0.00108781
0.00108782
0.00111538
0.00108594
0.0011138
0.00111366
0.00108771
0.0010878
0.00111379
0.0010879
0.00108802
0.00111559
0.00108589
0.00111384
0.0010879
0.00108804
0.001086
0.00108099
0.00105095
0.00107907
0.00107928
0.00105301
0.0010533
0.0010813
0.00105106
0.00107893
0.00107915
0.00105297
0.00105304
0.00107929
0.00105324
0.0010529
0.00108119
0.00105091
0.00107931
0.00105306
0.0010529
0.00105079
0.00104626
0.00101657
0.00104441
0.0010445
0.00101862
0.00101836
0.00104629
0.00101627
0.0010444
0.00104438
0.00101868
0.00101853
0.0010442
0.00101828
0.00101839
0.00104619
0.00101643
0.00104419
0.00101841
0.0010184
0.00101635
0.00101189
0.000982083
0.00100999
0.00100974
0.000984085
0.000984032
0.00101161
0.000982118
0.00101005
0.00100994
0.000984106
0.000984116
0.00100988
0.00098411
0.00098419
0.00101178
0.00098217
0.00100988
0.000984163
0.000984177
0.000982222
0.00097739
0.000947556
0.000975444
0.000975475
0.000949572
0.000949807
0.000977464
0.000947836
0.000975451
0.000975498
0.000949515
0.00094962
0.000975538
0.000949835
0.000949603
0.0009775
0.000947625
0.000975536
0.000949696
0.000949603
0.000947617
0.000942882
0.000913162
0.000940971
0.000941205
0.000915212
0.000915179
0.000943132
0.000913068
0.000940898
0.000940995
0.000915197
0.000915098
0.000941024
0.000915144
0.000915307
0.000942912
0.000913011
0.000940999
0.000915038
0.000915268
0.000913213
0.00090847
0.000878446
0.000906592
0.000906505
0.000880504
0.000880429
0.00090836
0.000878357
0.000906609
0.000906442
0.000880563
0.000880443
0.000906658
0.000880431
0.000880469
0.000908319
0.000878412
0.000906639
0.000880446
0.000880526
0.000878408
0.000873712
0.000843901
0.000871788
0.000871723
0.000845834
0.000845831
0.000873614
0.000843903
0.000871842
0.000871801
0.000845871
0.000846101
0.000871731
0.00084581
0.000845708
0.000873707
0.000844096
0.000871794
0.000846093
0.000845755
0.000843756
0.000839281
0.00080998
0.000837321
0.000837313
0.000811885
0.000811849
0.000839267
0.000809949
0.000837341
0.00083757
0.000811858
0.000811921
0.000837163
0.000811825
0.000811848
0.000839447
0.000809973
0.000837178
0.00081191
0.000811814
0.000809942
0.000805342
0.000775363
0.000803372
0.000803328
0.000777495
0.00077757
0.000805326
0.000775552
0.000803328
0.000803299
0.000777438
0.000777295
0.00080341
0.000777673
0.000777917
0.000805289
0.00077532
0.000803377
0.000777399
0.000777887
0.000775813
0.000770611
0.000740619
0.000768761
0.000768933
0.000742655
0.000742847
0.000770841
0.000740684
0.000768719
0.000768617
0.000742709
0.000742645
0.000769194
0.000742826
0.000742505
0.000770591
0.000740545
0.00076917
0.000742583
0.000742479
0.000740381
0.000735914
0.000705986
0.000734001
0.000734077
0.000707921
0.000707672
0.000735883
0.000705596
0.000734063
0.000733987
0.000707987
0.000707894
0.000733629
0.000707482
0.000707223
0.000735798
0.000705792
0.000733619
0.000707664
0.000707247
0.000705227
0.000701236
0.000671116
0.0006992
0.000698917
0.000673019
0.000672936
0.000700843
0.000671217
0.000699254
0.000699171
0.000673018
0.000673119
0.000698567
0.000673051
0.00067346
0.00070106
0.000671384
0.000698631
0.000673355
0.000673554
0.000671686
0.000666451
0.000637366
0.000664462
0.000664563
0.000639287
0.000639638
0.000666674
0.00063796
0.000664432
0.000664624
0.000639216
0.000639505
0.000665186
0.000639947
0.000640369
0.000666793
0.000637771
0.000665246
0.000639818
0.000640283
0.000638347
0.000632816
0.000602972
0.000630917
0.000631298
0.000605196
0.00060489
0.000633391
0.000602472
0.000630861
0.000631166
0.000605235
0.000604997
0.000631722
0.00060459
0.000604315
0.000633167
0.000602554
0.000631602
0.000604595
0.000604243
0.000602056
0.000598037
0.000566642
0.000596155
0.000595703
0.000568749
0.000568407
0.000597483
0.000566174
0.000596207
0.000595879
0.000568781
0.000568523
0.000595132
0.000568241
0.000567882
0.000597604
0.000566295
0.00059513
0.00056837
0.000567924
0.000565842
0.000561701
0.000531776
0.000559717
0.000559491
0.00053357
0.000533992
0.000561388
0.000532331
0.000559732
0.000559457
0.000533482
0.00053354
0.00055916
0.000534221
0.000534283
0.000561398
0.000531971
0.000559157
0.00053379
0.000534214
0.000532505
0.000527255
0.000498869
0.000525275
0.000525709
0.000500669
0.000501058
0.000527811
0.000499272
0.000525192
0.000525323
0.000500654
0.000500881
0.000526071
0.000501222
0.000501457
0.000527473
0.000499219
0.000526018
0.000501105
0.000501588
0.000499637
0.000494389
0.000464336
0.000492423
0.000492649
0.00046653
0.000466048
0.0004946
0.000463759
0.000492455
0.000492726
0.000466672
0.000466782
0.000492969
0.000465809
0.000466013
0.000494755
0.000464338
0.000493128
0.000466568
0.000466159
0.000463812
0.000459364
0.000427611
0.000457425
0.000456981
0.00042983
0.000429492
0.000458819
0.00042728
0.000457527
0.000457573
0.000429815
0.000429716
0.000456847
0.000429379
0.000429334
0.000459315
0.00042741
0.000456918
0.000429586
0.000429287
0.000427093
0.000422588
0.000392327
0.000420651
0.000420455
0.000394167
0.000394484
0.000422419
0.000392732
0.000420599
0.000420438
0.000394041
0.0003939
0.000420259
0.000394604
0.000394398
0.000422358
0.000392225
0.000420147
0.000393971
0.000394222
0.000392581
0.000387719
0.000358783
0.000385725
0.000386026
0.000360616
0.00036088
0.00038811
0.000359097
0.000385613
0.000385531
0.000360574
0.000360584
0.000386037
0.000361
0.000360892
0.000387657
0.000358823
0.000385896
0.000360675
0.000360831
0.000359035
0.000354196
0.000323694
0.000352196
0.000352382
0.000325852
0.000325658
0.000354415
0.000323436
0.000352192
0.000352215
0.000325956
0.00032603
0.000352394
0.00032558
0.000325721
0.000354257
0.000323787
0.000352387
0.000326005
0.000325876
0.000323572
0.000318739
0.000287401
0.000316764
0.000316573
0.000289538
0.000289419
0.000318481
0.000287244
0.000316857
0.000316923
0.000289561
0.0002896
0.000316601
0.000289353
0.000289438
0.00031882
0.000287434
0.000316738
0.000289566
0.000289487
0.000287341
0.000282501
0.000252423
0.000280545
0.000280468
0.000254339
0.000254409
0.000282386
0.000252537
0.000280543
0.000280588
0.000254291
0.000254306
0.00028052
0.000254435
0.00025446
0.00028253
0.000252411
0.000280541
0.000254326
0.0002544
0.00025253
0.000247721
0.000217579
0.000245733
0.000245803
0.000219613
0.000219585
0.000247831
0.000217547
0.000245684
0.000245687
0.000219584
0.000219492
0.000245835
0.000219569
0.00021949
0.000247705
0.000217438
0.000245774
0.00021944
0.000219423
0.000217407
0.000212682
0.000181237
0.00021068
0.000210637
0.000183353
0.000183331
0.000212646
0.000181212
0.000210656
0.000210516
0.000183345
0.000183213
0.000210461
0.000183305
0.000183128
0.000212521
0.000181052
0.000210397
0.000183154
0.000183091
0.000180971
0.000176232
0.000145671
0.000174221
0.000174227
0.00014756
0.000147626
0.000176237
0.000145737
0.00017422
0.000174128
0.000147616
0.000147783
0.000174084
0.000147689
0.000147829
0.000176109
0.0001459
0.000174084
0.000147874
0.000147913
0.000145943
0.000140942
0.000111104
0.000138926
0.00013896
0.000113057
0.000113054
0.00014099
0.000111054
0.000138986
0.000139153
0.000113089
0.000113224
0.000139193
0.00011307
0.000113217
0.00014117
0.000111201
0.000139276
0.000113238
0.000113246
0.000111198
0.000106271
7.49224e-05
0.000104313
0.000104254
7.70714e-05
7.69968e-05
0.000106188
7.48236e-05
0.000104313
0.000104357
7.70439e-05
7.69486e-05
0.000104326
7.69477e-05
7.6872e-05
0.000106293
7.47843e-05
0.000104314
7.68955e-05
7.68386e-05
7.47178e-05
6.98587e-05
3.84226e-05
6.79139e-05
6.78408e-05
4.0397e-05
4.0362e-05
6.97425e-05
3.84181e-05
6.78952e-05
6.78031e-05
4.0377e-05
4.03042e-05
6.77192e-05
4.03513e-05
4.02694e-05
6.9725e-05
3.8355e-05
6.76958e-05
4.03094e-05
4.02765e-05
3.83238e-05
3.35531e-05
7.45027e-06
3.1686e-05
3.17074e-05
1.04568e-05
1.06076e-05
3.35721e-05
7.59594e-06
3.16719e-05
3.16322e-05
1.04296e-05
1.0461e-05
3.16245e-05
1.06334e-05
1.05875e-05
3.35052e-05
7.47688e-06
3.1634e-05
1.04906e-05
1.05666e-05
7.55922e-06
4.43058e-06
6.27698e-06
6.39977e-06
4.57964e-06
6.28818e-06
6.28393e-06
5.42445e-06
5.31841e-06
5.42165e-06
6.39504e-06
4.45101e-06
6.39866e-06
0.00352975
0.00353238
0.00353104
0.00353123
0.00355807
0.00353217
0.00356177
0.0035326
0.00355874
0.0035323
0.00353251
0.00356201
0.00354328
0.0035663
0.00356503
0.00350249
0.00351596
0.00351981
0.00349452
0.00349271
0.00349803
0.00350225
0.00351586
0.00351982
0.00349458
0.00351828
0.00351828
0.00351828
0.00349187
0.00349195
0.00349188
0.00349191
0.00350198
0.00351359
0.00351882
0.00350957
0.00352094
0.00349909
0.00350982
0.00349298
0.00349795
0.00350206
0.00351885
0.00351369
0.00350954
0.00352098
0.00350989
0.00349912
0.00351944
0.0035199
0.00350689
0.00349897
0.00349906
0.00347489
0.00348906
0.00348886
0.00347288
0.00348626
0.0034719
0.00347476
0.00348901
0.00348889
0.00347287
0.00348288
0.0034828
0.00348281
0.00345445
0.00345454
0.00345445
0.00345447
0.00347259
0.00348761
0.00348132
0.00347191
0.00348607
0.00347316
0.00347195
0.00348625
0.00347189
0.00347267
0.00348128
0.00348761
0.00347203
0.00348601
0.00347192
0.00347311
0.00348938
0.00348932
0.00347036
0.00347343
0.0034735
0.00343244
0.00344715
0.00344799
0.00343106
0.00344598
0.00343021
0.00343233
0.00344714
0.00344802
0.00343103
0.00344447
0.00344436
0.00344439
0.00341185
0.00341192
0.00341184
0.00341186
0.00343109
0.00344671
0.00344254
0.00343207
0.00344566
0.00343158
0.00343209
0.00344589
0.00343021
0.00343113
0.00344247
0.00344668
0.00343212
0.00344561
0.00343203
0.00343151
0.00344738
0.00344741
0.00342939
0.00343141
0.00343138
0.00338611
0.00340246
0.00340391
0.00338463
0.00340181
0.00338409
0.00338601
0.00340248
0.00340393
0.00338456
0.00340037
0.00340032
0.00340033
0.00336442
0.00336449
0.00336441
0.00336443
0.00338519
0.00340234
0.00339866
0.00338691
0.00340174
0.00338532
0.00338693
0.00340178
0.00338413
0.00338527
0.00339865
0.00340233
0.00338697
0.00340173
0.00338695
0.00338537
0.00340261
0.00340256
0.00338363
0.00338474
0.00338479
0.00333721
0.00335423
0.0033556
0.003336
0.00335386
0.00333565
0.00333713
0.00335426
0.00335558
0.00333597
0.00335229
0.00335223
0.00335224
0.00331555
0.0033156
0.00331554
0.00331556
0.00333673
0.00335427
0.00335084
0.00333863
0.00335394
0.0033367
0.00333867
0.00335386
0.0033356
0.00333675
0.00335082
0.00335431
0.00333861
0.00335391
0.00333861
0.00333664
0.00335429
0.00335427
0.00333523
0.00333607
0.00333607
0.00328804
0.00330538
0.00330635
0.00328714
0.00330506
0.00328694
0.00328801
0.00330535
0.00330635
0.00328716
0.00330341
0.00330337
0.00330339
0.0032671
0.00326713
0.00326711
0.00326711
0.00328796
0.00330539
0.00330214
0.00328998