/*--------------------------------*- C++ -*----------------------------------*\
| =========                 |                                                 |
| \\      /  F ield         | OpenFOAM: The Open Source CFD Toolbox           |
|  \\    /   O peration     | Version:  v2012                                 |
|   \\  /    A nd           | Website:  www.openfoam.com                      |
|    \\/     M anipulation  |                                                 |
\*---------------------------------------------------------------------------*/
FoamFile
{
    version     2.0;
    format      ascii;
    class       volScalarField;
    location    "1437.5";
    object      p;
}
// * * * * * * * * * * * * * * * * * * * * * * * * * * * * * * * * * * * * * //

dimensions      [0 2 -2 0 0 0 0];


internalField   nonuniform List<scalar> 
171728
(
0.00351665
0.00351555
0.00351553
0.00351637
0.00348113
0.00347965
0.00347961
0.00348249
0.0034426
0.00344069
0.00344072
0.00344304
0.00339851
0.00339679
0.00339682
0.00339905
0.00335043
0.00334896
0.00334899
0.00335132
0.00330156
0.00330029
0.00330025
0.00330264
0.00325328
0.00325211
0.00325204
0.00325448
0.00320599
0.00320491
0.00320495
0.00320731
0.0031597
0.00315881
0.00315878
0.00316116
0.00311437
0.0031136
0.0031136
0.00311597
0.00306996
0.00306928
0.00306927
0.00307164
0.00302631
0.00302574
0.00302573
0.00302806
0.00298323
0.00298277
0.00298277
0.00298513
0.00294054
0.00294019
0.00294022
0.00294253
0.00289823
0.00289798
0.00289797
0.00290019
0.0028562
0.00285595
0.00285595
0.00285827
0.00281444
0.00281429
0.00281432
0.00281669
0.00277317
0.00277316
0.00277316
0.00277547
0.00273215
0.0027322
0.00273206
0.00273404
0.00269155
0.00269164
0.00269156
0.00269348
0.00265118
0.00265128
0.00265126
0.00265332
0.00261115
0.00261115
0.00261126
0.00261265
0.00257153
0.00257187
0.00257179
0.00257387
0.00253207
0.00253242
0.00253225
0.00253391
0.0024929
0.00249314
0.00249323
0.00249471
0.00245396
0.0024544
0.00245437
0.00245634
0.00241517
0.00241561
0.00241566
0.00241698
0.00237671
0.00237727
0.00237709
0.00237929
0.00233839
0.00233898
0.00233903
0.00234107
0.00230028
0.0023009
0.00230082
0.00230253
0.00226236
0.0022629
0.002263
0.00226486
0.0022244
0.00222521
0.00222514
0.00222703
0.00218703
0.00218758
0.0021875
0.00218947
0.00214951
0.00215012
0.00215025
0.00215189
0.00211187
0.0021126
0.00211251
0.00211453
0.00207479
0.0020754
0.00207537
0.0020772
0.00203775
0.00203825
0.00203839
0.00204007
0.00200059
0.00200117
0.00200099
0.00200324
0.00196382
0.00196432
0.0019644
0.00196614
0.00192729
0.00192751
0.00192767
0.00192955
0.00189051
0.00189091
0.00189061
0.00189279
0.00185412
0.00185434
0.00185457
0.0018565
0.00181798
0.00181795
0.00181796
0.00181996
0.00178144
0.00178185
0.00178162
0.00178375
0.00174565
0.00174544
0.00174578
0.00174784
0.00170984
0.00170989
0.00170956
0.0017116
0.00167378
0.00167379
0.00167402
0.00167615
0.00163796
0.00163752
0.00163757
0.00163967
0.00160262
0.00160307
0.00160246
0.00160447
0.00156777
0.00156698
0.00156793
0.00156991
0.00153179
0.00153106
0.00153095
0.0015331
0.00149599
0.00149656
0.00149574
0.00149805
0.00146121
0.00146128
0.00146145
0.00146347
0.00142693
0.00142606
0.00142681
0.00142836
0.00139213
0.00139146
0.00139129
0.00139328
0.00135627
0.00135633
0.00135589
0.00135825
0.00132071
0.00132092
0.00132097
0.00132303
0.00128621
0.0012859
0.00128619
0.00128777
0.0012521
0.00125137
0.00125126
0.00125326
0.00121726
0.00121716
0.00121723
0.00121931
0.00118252
0.0011825
0.00118255
0.00118427
0.0011478
0.00114722
0.00114711
0.00114897
0.00111291
0.00111296
0.00111292
0.00111507
0.00107842
0.00107856
0.00107853
0.00108047
0.00104419
0.00104347
0.00104368
0.00104527
0.00100987
0.00100946
0.00100974
0.00101142
0.000975421
0.000975709
0.000975317
0.000977676
0.000940589
0.00094042
0.00094016
0.000942214
0.000905643
0.000905127
0.000905515
0.000907052
0.00087159
0.00087165
0.000872018
0.000873813
0.000838088
0.000837903
0.000837671
0.000839681
0.000802923
0.000802483
0.000802275
0.00080428
0.00076786
0.000767994
0.000767992
0.00076993
0.000733919
0.000733967
0.000734039
0.000735938
0.000699372
0.000699179
0.000699148
0.000701242
0.00066414
0.000664076
0.000664134
0.000666142
0.000629955
0.000629777
0.000629807
0.000631515
0.000595785
0.000595498
0.000595515
0.000597241
0.000560632
0.000560646
0.000560533
0.000562691
0.000525482
0.000525778
0.000525743
0.000527955
0.000491258
0.000491039
0.000491244
0.000493057
0.000456711
0.000456363
0.000456223
0.000458095
0.000420823
0.000420801
0.000420714
0.0004227
0.000385639
0.000385791
0.000385992
0.000388006
0.000351604
0.000351808
0.000351833
0.000353858
0.000317281
0.000316833
0.000316589
0.000318536
0.000280737
0.000280406
0.000280335
0.00028219
0.000244362
0.000244597
0.000244857
0.000246866
0.000210126
0.000210516
0.000210596
0.000212769
0.000175973
0.000175744
0.00017548
0.000177496
0.000140089
0.000139508
0.000139499
0.000141244
0.000103457
0.000103417
0.000103558
0.000105557
6.71705e-05
6.78487e-05
6.77341e-05
7.00233e-05
3.26805e-05
3.21859e-05
3.21896e-05
3.40224e-05
5.77346e-06
6.13981e-06
6.3946e-06
4.25071e-06
0.00352106
0.00351862
0.00351866
0.00352102
0.0035186
0.00351879
0.00352501
0.00352497
0.003525
0.003525
0.00351853
0.00351866
0.00352111
0.00351861
0.0035187
0.00352114
0.0035163
0.00348725
0.00351557
0.00351556
0.00348913
0.0034891
0.00351627
0.00348727
0.0035156
0.00351559
0.00348908
0.00348902
0.00351556
0.00348912
0.00348916
0.0035163
0.00348726
0.00351559
0.00348916
0.00348918
0.00348724
0.0034825
0.00344856
0.0034796
0.0034797
0.00345083
0.00345083
0.00348252
0.00344856
0.00347967
0.00347977
0.00345087
0.00345093
0.0034796
0.00345084
0.00345096
0.00348251
0.00344858
0.00347959
0.00345085
0.00345089
0.00344857
0.00344303
0.00340524
0.0034407
0.00344076
0.00340821
0.00340827
0.00344303
0.00340523
0.0034407
0.00344075
0.00340829
0.00340838
0.00344065
0.00340828
0.00340831
0.00344304
0.00340523
0.00344074
0.00340831
0.00340828
0.00340521
0.00339906
0.00335776
0.00339678
0.00339685
0.00336108
0.00336113
0.00339906
0.00335775
0.0033968
0.00339693
0.00336115
0.00336118
0.00339675
0.00336116
0.00336113
0.00339907
0.0033578
0.00339681
0.00336109
0.00336111
0.00335776
0.0033513
0.00330907
0.00334901
0.00334904
0.00331241
0.00331247
0.0033513
0.00330907
0.00334896
0.00334894
0.00331242
0.00331233
0.003349
0.00331241
0.00331242
0.00335133
0.00330908
0.00334904
0.00331241
0.00331243
0.00330908
0.00330262
0.00326079
0.00330027
0.00330027
0.00326407
0.00326409
0.00330262
0.0032608
0.00330028
0.00330031
0.00326402
0.00326379
0.0033003
0.00326406
0.00326409
0.00330261
0.00326073
0.00330028
0.00326407
0.00326408
0.00326081
0.00325447
0.00321347
0.0032521
0.0032521
0.00321662
0.00321664
0.00325446
0.00321345
0.00325209
0.00325199
0.00321663
0.00321651
0.00325213
0.00321664
0.00321666
0.00325438
0.00321355
0.00325211
0.00321665
0.00321666
0.00321349
0.0032073
0.00316718
0.00320497
0.00320487
0.00317025
0.00317022
0.00320726
0.00316719
0.00320495
0.00320477
0.00317025
0.00317023
0.00320495
0.00317023
0.00317024
0.00320735
0.00316719
0.00320496
0.00317021
0.00317025
0.0031672
0.00316115
0.00312186
0.00315879
0.00315874
0.00312479
0.00312478
0.00316116
0.00312186
0.00315879
0.00315872
0.00312482
0.00312476
0.0031588
0.0031248
0.00312482
0.00316116
0.00312189
0.0031588
0.0031248
0.00312481
0.00312186
0.00311595
0.00307742
0.00311362
0.00311359
0.00308029
0.00308028
0.00311595
0.00307741
0.00311359
0.00311354
0.0030803
0.00308028
0.00311361
0.00308028
0.00308029
0.00311598
0.00307742
0.00311362
0.00308027
0.0030803
0.00307743
0.00307164
0.00303376
0.00306931
0.00306925
0.00303658
0.00303655
0.00307163
0.00303378
0.00306928
0.00306926
0.00303656
0.00303657
0.00306928
0.00303657
0.00303657
0.00307164
0.00303376
0.00306928
0.00303657
0.00303657
0.00303373
0.00302811
0.00299076
0.00302571
0.00302573
0.00299344
0.00299347
0.00302809
0.00299069
0.00302573
0.00302574
0.00299343
0.00299343
0.00302574
0.00299347
0.00299347
0.00302809
0.00299072
0.00302576
0.00299343
0.00299349
0.0029907
0.00298516
0.00294811
0.00298282
0.00298277
0.00295078
0.00295083
0.00298509
0.00294802
0.00298279
0.00298277
0.00295077
0.0029508
0.00298275
0.0029508
0.00295079
0.00298514
0.00294808
0.00298276
0.00295078
0.00295083
0.00294811
0.00294257
0.00290578
0.00294032
0.00294018
0.00290856
0.00290848
0.00294249
0.00290575
0.0029403
0.00294022
0.00290851
0.00290847
0.0029402
0.00290846
0.00290844
0.00294255
0.0029057
0.00294012
0.00290847
0.00290834
0.0029057
0.00290033
0.0028636
0.00289804
0.00289798
0.00286647
0.00286644
0.00290027
0.00286371
0.00289805
0.00289798
0.00286649
0.00286652
0.00289804
0.00286643
0.00286645
0.00290022
0.00286368
0.00289798
0.0028665
0.0028663
0.00286371
0.00285821
0.00282182
0.00285591
0.00285599
0.00282483
0.00282463
0.00285829
0.00282189
0.00285587
0.00285593
0.00282482
0.00282469
0.00285613
0.00282465
0.00282472
0.00285823
0.00282193
0.0028561
0.00282469
0.00282459
0.00282201
0.00281646
0.0027806
0.00281428
0.00281431
0.00278353
0.00278328
0.00281653
0.00278061
0.00281429
0.00281434
0.00278356
0.00278333
0.00281442
0.00278329
0.00278336
0.00281655
0.00278061
0.00281438
0.00278332
0.00278334
0.00278077
0.00277529
0.00273944
0.00277315
0.00277312
0.00274248
0.00274227
0.00277532
0.00273949
0.00277319
0.00277314
0.00274244
0.00274226
0.00277331
0.00274226
0.00274213
0.00277531
0.00273943
0.00277322
0.00274228
0.00274214
0.00273928
0.00273426
0.00269881
0.00273237
0.00273218
0.00270158
0.00270158
0.00273427
0.00269874
0.00273232
0.00273208
0.00270158
0.00270168
0.00273202
0.0027016
0.00270173
0.00273418
0.00269879
0.00273208
0.00270169
0.00270171
0.0026986
0.00269357
0.00265828
0.00269159
0.00269161
0.0026613
0.00266128
0.00269355
0.00265822
0.00269161
0.00269157
0.00266132
0.0026614
0.00269144
0.00266134
0.00266204
0.00269361
0.00265828
0.00269154
0.00266145
0.00266194
0.00265826
0.00265309
0.00261804
0.00265117
0.00265124
0.00262131
0.00262126
0.00265303
0.00261789
0.00265118
0.00265123
0.0026213
0.00262126
0.00265168
0.00262119
0.00262049
0.00265311
0.00261794
0.00265167
0.00262118
0.00262053
0.00261799
0.002613
0.00257833
0.00261141
0.00261122
0.00258157
0.0025817
0.00261282
0.00257835
0.00261139
0.00261134
0.00258156
0.00258157
0.0026106
0.00258171
0.00258214
0.00261293
0.0025784
0.00261069
0.00258158
0.00258211
0.00257834
0.00257329
0.00253893
0.00257175
0.00257184
0.00254227
0.00254223
0.00257339
0.00253899
0.00257173
0.00257179
0.00254228
0.00254223
0.00257239
0.00254221
0.00254227
0.00257338
0.00253897
0.00257234
0.00254221
0.00254226
0.00253906
0.00253397
0.00249981
0.00253246
0.00253244
0.00250302
0.00250293
0.00253403
0.00249976
0.00253245
0.00253231
0.00250304
0.00250302
0.00253233
0.00250291
0.00250288
0.00253392
0.0024998
0.00253231
0.00250302
0.00250287
0.00249955
0.00249489
0.00246097
0.0024933
0.00249315
0.00246408
0.00246414
0.00249471
0.00246116
0.00249331
0.00249326
0.00246406
0.0024641
0.0024932
0.00246417
0.00246419
0.00249491
0.002461
0.00249326
0.0024641
0.00246409
0.00246129
0.00245603
0.00242233
0.00245437
0.00245437
0.00242531
0.00242532
0.00245618
0.00242219
0.00245435
0.0024544
0.00242536
0.00242529
0.00245447
0.00242531
0.00242529
0.00245603
0.00242234
0.00245436
0.00242533
0.00242519
0.00242207
0.00241737
0.00238386
0.00241564
0.00241561
0.00238676
0.00238683
0.00241721
0.00238386
0.00241566
0.00241561
0.00238678
0.00238672
0.00241551
0.00238682
0.00238675
0.00241747
0.00238382
0.00241553
0.00238672
0.0023869
0.00238404
0.00237897
0.00234579
0.00237718
0.00237724
0.00234861
0.00234852
0.00237904
0.00234592
0.0023772
0.00237711
0.00234857
0.00234861
0.00237723
0.00234853
0.00234852
0.00237881
0.00234583
0.00237727
0.00234859
0.00234848
0.00234605
0.00234088
0.00230751
0.00233896
0.00233899
0.00231029
0.00231037
0.00234096
0.00230749
0.00233899
0.00233905
0.00231029
0.00231031
0.00233899
0.0023104
0.00231046
0.00234099
0.00230762
0.00233894
0.00231034
0.00231039
0.00230745
0.00230259
0.00227
0.00230087
0.0023009
0.00227262
0.0022724
0.00230261
0.00226972
0.00230081
0.0023008
0.00227258
0.00227239
0.00230092
0.00227239
0.00227234
0.00230265
0.00226971
0.00230086
0.00227241
0.00227233
0.0022697
0.00226508
0.00223163
0.00226308
0.00226288
0.00223428
0.0022346
0.00226483
0.00223199
0.00226311
0.00226297
0.00223439
0.00223465
0.0022629
0.00223461
0.00223465
0.00226487
0.00223198
0.00226289
0.00223464
0.00223468
0.00223196
0.00222675
0.00219433
0.00222486
0.0022252
0.00219709
0.00219691
0.00222707
0.00219421
0.00222492
0.00222512
0.00219698
0.00219679
0.00222524
0.00219699
0.00219696
0.00222703
0.00219423
0.00222528
0.00219685
0.00219693
0.00219435
0.00218941
0.0021571
0.00218791
0.00218754
0.00215975
0.00215965
0.00218936
0.00215698
0.00218775
0.00218749
0.00215967
0.00215966
0.00218754
0.00215947
0.00215938
0.00218937
0.00215697
0.0021875
0.00215961
0.00215942
0.00215676
0.00215215
0.0021192
0.00215012
0.00215031
0.00212158
0.00212191
0.00215208
0.00211929
0.00215021
0.00215031
0.00212174
0.00212193
0.00215005
0.00212197
0.00212208
0.00215207
0.00211935
0.0021501
0.00212195
0.0021221
0.00211944
0.00211432
0.00208221
0.00211231
0.00211248
0.00208475
0.00208453
0.0021144
0.00208205
0.00211241
0.00211245
0.00208468
0.00208453
0.00211271
0.00208469
0.00208469
0.00211442
0.00208201
0.00211271
0.00208456
0.00208466
0.00208211
0.00207738
0.00204508
0.00207553
0.00207531
0.00204767
0.00204764
0.00207718
0.0020451
0.00207546
0.00207538
0.00204766
0.00204775
0.00207537
0.00204751
0.00204742
0.00207719
0.00204519
0.00207537
0.00204773
0.00204744
0.00204489
0.00204018
0.00200783
0.00203828
0.00203837
0.00201032
0.00201043
0.00204023
0.00200789
0.00203832
0.0020384
0.00201032
0.00201025
0.00203816
0.00201045
0.00201051
0.00204026
0.00200773
0.00203814
0.00201028
0.00201046
0.0020081
0.00200297
0.00197117
0.00200107
0.00200111
0.0019735
0.00197338
0.002003
0.00197109
0.00200105
0.00200096
0.00197348
0.0019735
0.00200131
0.00197345
0.00197351
0.00200288
0.00197122
0.00200128
0.00197347
0.00197359
0.00197101
0.00196635
0.00193434
0.00196438
0.00196427
0.00193681
0.00193681
0.00196628
0.00193434
0.00196435
0.00196443
0.00193684
0.00193695
0.00196425
0.00193676
0.00193668
0.00196643
0.00193444
0.00196433
0.00193698
0.00193671
0.00193436
0.00192949
0.0018976
0.00192754
0.00192754
0.00189993
0.00189995
0.00192945
0.0018977
0.00192762
0.00192761
0.00189995
0.0018997
0.00192756
0.00189999
0.00190007
0.00192949
0.00189741
0.00192756
0.00189976
0.00189992
0.00189768
0.00189275
0.00186133
0.00189078
0.00189087
0.00186352
0.00186356
0.0018929
0.00186125
0.00189076
0.00189061
0.00186343
0.00186372
0.00189085
0.00186355
0.00186343
0.00189261
0.00186149
0.00189071
0.00186356
0.00186346
0.00186127
0.00185655
0.00182487
0.00185449
0.00185439
0.00182721
0.00182696
0.00185638
0.00182472
0.00185444
0.00185471
0.00182729
0.00182707
0.00185442
0.00182695
0.00182715
0.00185673
0.00182475
0.00185448
0.0018272
0.00182724
0.00182482
0.00181998
0.00178842
0.00181799
0.00181791
0.00179057
0.00179088
0.00181994
0.00178876
0.00181805
0.00181779
0.00179048
0.00179058
0.00181796
0.00179094
0.00179066
0.00181985
0.00178842
0.00181802
0.00179059
0.00179057
0.00178852
0.00178366
0.00175278
0.00178159
0.00178186
0.00175492
0.00175457
0.00178394
0.00175234
0.00178149
0.00178166
0.00175489
0.0017548
0.00178166
0.00175449
0.00175484
0.00178366
0.00175272
0.00178156
0.00175479
0.0017548
0.00175266
0.00174799
0.00171631
0.00174593
0.00174543
0.00171849
0.00171865
0.00174755
0.00171662
0.00174598
0.00174578
0.00171858
0.0017187
0.00174582
0.00171876
0.00171848
0.00174794
0.00171641
0.00174585
0.00171857
0.00171851
0.00171635
0.00171151
0.00168079
0.00170942
0.00170983
0.00168283
0.00168306
0.00171189
0.00168081
0.00170946
0.00170962
0.00168275
0.00168284
0.00170948
0.00168293
0.00168296
0.00171161
0.00168083
0.00170949
0.00168295
0.00168293
0.0016809
0.00167605
0.00164467
0.001674
0.00167392
0.0016469
0.00164628
0.00167594
0.00164432
0.00167393
0.00167384
0.00164693
0.00164658
0.0016741
0.00164638
0.00164679
0.00167604
0.00164452
0.00167409
0.00164674
0.00164689
0.00164456
0.00163975
0.00160907
0.00163771
0.00163741
0.00161098
0.00161178
0.00163959
0.00160969
0.00163777
0.00163752
0.00161089
0.00161127
0.00163754
0.00161164
0.00161098
0.0016397
0.00160913
0.00163759
0.00161101
0.00161089
0.00160903
0.00160454
0.00157474
0.00160251
0.00160324
0.00157683
0.00157611
0.00160511
0.00157402
0.00160234
0.00160274
0.00157685
0.0015769
0.0016025
0.00157624
0.00157683
0.00160452
0.00157479
0.0016024
0.00157675
0.00157679
0.00157473
0.00156992
0.00153783
0.00156779
0.00156672
0.00153989
0.00153957
0.00156913
0.00153766
0.00156806
0.00156794
0.00154018
0.0015399
0.00156783
0.00153981
0.00153998
0.00157001
0.00153797
0.00156791
0.0015402
0.00154016
0.00153794
0.00153293
0.00150261
0.0015307
0.00153092
0.00150463
0.00150545
0.00153294
0.00150322
0.00153087
0.00153068
0.00150435
0.00150432
0.00153082
0.00150522
0.00150472
0.00153306
0.00150233
0.00153094
0.00150436
0.00150455
0.00150269
0.00149806
0.00146847
0.00149618
0.00149684
0.00147057
0.00147039
0.00149858
0.00146837
0.00149584
0.00149573
0.00147021
0.00147013
0.00149614
0.00147012
0.00147015
0.0014977
0.00146811
0.00149594
0.00147002
0.00147003
0.00146812
0.00146378
0.00143295
0.00146178
0.00146146
0.00143494
0.00143457
0.00146362
0.00143264
0.00146153
0.00146156
0.00143531
0.00143566
0.0014614
0.00143482
0.0014351
0.00146352
0.00143355
0.00146137
0.00143553
0.0014354
0.00143306
0.00142819
0.00139794
0.00142592
0.00142578
0.00139991
0.00139992
0.00142787
0.00139782
0.0014265
0.00142698
0.00140026
0.00140006
0.0014263
0.00140014
0.00140002
0.00142881
0.00139799
0.00142661
0.00140016
0.00140007
0.00139798
0.00139325
0.0013629
0.00139135
0.00139129
0.00136517
0.00136509
0.00139315
0.00136316
0.00139151
0.00139113
0.00136489
0.00136459
0.00139135
0.00136515
0.00136513
0.0013932
0.00136258
0.00139131
0.00136473
0.00136495
0.00136299
0.00135814
0.0013276
0.0013563
0.00135633
0.00132966
0.00132992
0.00135846
0.00132786
0.00135596
0.00135576
0.00132938
0.00132952
0.00135631
0.00132977
0.00132979
0.0013578
0.00132761
0.00135614
0.00132963
0.00132976
0.00132778
0.00132288
0.00129297
0.00132087
0.00132109
0.00129481
0.00129468
0.00132307
0.00129258
0.00132067
0.0013209
0.00129502
0.00129511
0.00132096
0.0012946
0.00129446
0.00132294
0.00129307
0.00132099
0.00129492
0.00129457
0.00129248
0.00128829
0.00125789
0.00128614
0.00128595
0.00125997
0.00125995
0.00128788
0.00125786
0.00128643
0.00128648
0.00126013
0.00126018
0.0012857
0.00125997
0.00126001
0.00128836
0.00125792
0.00128579
0.00126
0.00125993
0.00125788
0.00125317
0.00122332
0.00125129
0.00125132
0.00122548
0.00122555
0.0012532
0.00122353
0.00125135
0.00125133
0.00122541
0.0012254
0.00125154
0.00122569
0.00122602
0.00125319
0.00122348
0.00125145
0.0012257
0.00122603
0.00122393
0.0012187
0.00118925
0.00121695
0.001217
0.00119126
0.00119125
0.00121891
0.00118925
0.00121688
0.0012169
0.00119121
0.00119126
0.00121739
0.00119126
0.00119105
0.00121888
0.0011893
0.00121744
0.00119136
0.00119113
0.00118906
0.00118461
0.00115421
0.00118261
0.0011826
0.00115634
0.00115627
0.00118456
0.00115402
0.00118257
0.00118262
0.00115633
0.00115627
0.00118221
0.00115601
0.00115585
0.00118458
0.00115395
0.00118225
0.00115589
0.00115576
0.00115368
0.00114943
0.00111925
0.00114749
0.00114741
0.00112132
0.00112136
0.00114927
0.00111941
0.00114751
0.00114742
0.00112127
0.00112125
0.00114719
0.00112142
0.00112163
0.00114919
0.00111928
0.00114705
0.00112137
0.00112158
0.00111962
0.00111457
0.00108503
0.00111276
0.00111282
0.0010871
0.00108722
0.0011148
0.00108519
0.00111263
0.00111263
0.00108695
0.00108691
0.00111318
0.00108734
0.00108721
0.00111466
0.00108511
0.00111316
0.00108724
0.00108744
0.00108526
0.00108038
0.00105038
0.00107847
0.00107854
0.0010523
0.0010523
0.00108045
0.00105013
0.0010784
0.00107835
0.00105261
0.00105264
0.00107835
0.00105214
0.001052
0.00108044
0.00105039
0.00107861
0.00105232
0.00105212
0.00104999
0.00104569
0.00101607
0.00104364
0.0010436
0.00101808
0.00101784
0.00104541
0.00101588
0.00104395
0.00104405
0.00101816
0.00101836
0.00104337
0.00101788
0.00101803
0.00104572
0.00101619
0.00104344
0.00101818
0.00101789
0.00101596
0.00101145
0.00098201
0.00100965
0.00100939
0.000984128
0.000984157
0.00101132
0.000982233
0.0010096
0.00100977
0.000983919
0.000983773
0.00100967
0.000984221
0.000984384
0.00101156
0.000981879
0.00100953
0.000984031
0.000984316
0.000982354
0.000977325
0.000946994
0.000975521
0.000975667
0.000949149
0.000949409
0.000977613
0.000947214
0.000975284
0.000975049
0.000949053
0.000948812
0.000975758
0.000949401
0.00094915
0.000977163
0.000946822
0.000975725
0.00094895
0.00094916
0.000947071
0.000942216
0.000912144
0.000940298
0.000940444
0.000914065
0.000913872
0.000942338
0.000911774
0.000940267
0.000940081
0.000914182
0.000914218
0.000940159
0.000913788
0.000913679
0.000942054
0.000912164
0.000940219
0.000914061
0.000913773
0.00091169
0.000907479
0.000878168
0.000905464
0.000905222
0.000879952
0.000879931
0.000907076
0.000878083
0.000905615
0.00090571
0.000880129
0.000880415
0.000905119
0.000879939
0.00088016
0.000907519
0.000878508
0.000905221
0.000880332
0.000880231
0.000878314
0.000873593
0.000844266
0.000871531
0.000871596
0.000846349
0.000846402
0.000873564
0.000844494
0.000871684
0.000872023
0.000846282
0.000846349
0.000871882
0.000846538
0.000846646
0.000873975
0.000844254
0.000871935
0.000846435
0.000846497
0.00084446
0.000839594
0.000809281
0.000837845
0.000837816
0.000811545
0.000811393
0.000839772
0.000809214
0.000837704
0.000837633
0.000811373
0.000811151
0.000837905
0.000811322
0.000811271
0.000839495
0.000808994
0.000837704
0.000811091
0.000811161
0.000809071
0.000804457
0.000774407
0.000802632
0.000802583
0.000776342
0.000776534
0.000804411
0.000774504
0.00080253
0.000802348
0.000776393
0.000776357
0.000802436
0.000776488
0.000776383
0.000804205
0.000774528
0.000802417
0.000776425
0.000776544
0.000774529
0.000769785
0.000740676
0.000767801
0.000768012
0.000742514
0.000742548
0.000769895
0.000740692
0.000767872
0.000767888
0.000742559
0.000742565
0.000767843
0.00074256
0.000742408
0.000769946
0.000740731
0.000768032
0.000742609
0.000742483
0.000740609
0.000736036
0.000706055
0.000734022
0.000733985
0.000708083
0.000707898
0.000736033
0.000705926
0.000734054
0.000734026
0.000708082
0.000707985
0.000733882
0.000707959
0.000708031
0.000736071
0.000705919
0.000733904
0.000707936
0.000707936
0.000705981
0.00070123
0.000670589
0.000699274
0.000699094
0.000672662
0.000672737
0.000701131
0.000670692
0.000699265
0.000699184
0.000672654
0.000672827
0.00069938
0.000672801
0.000673122
0.000701121
0.000670729
0.000699265
0.00067284
0.000673067
0.000670933
0.000665822
0.000636298
0.000663896
0.000664043
0.000638254
0.000638358
0.000665927
0.00063631
0.0006639
0.000664131
0.000638251
0.000638385
0.000664301
0.000638272
0.000638137
0.000665978
0.000636346
0.000664277
0.000638335
0.000638185
0.000636163
0.000631718
0.000602375
0.000629844
0.000629888
0.000604372
0.000604228
0.000631698
0.00060222
0.000629834
0.000629881
0.000604349
0.00060418
0.000629555
0.000604136
0.000603868
0.000631712
0.000602215
0.000629596
0.000604136
0.000603931
0.000601949
0.000597664
0.000567399
0.000595722
0.000595567
0.000569413
0.000569334
0.000597514
0.000567395
0.000595706
0.000595538
0.000569412
0.0005693
0.000595247
0.000569365
0.000569399
0.000597518
0.000567323
0.000595302
0.000569302
0.000569331
0.000567435
0.000562568
0.000532205
0.00056057
0.000560546
0.000534167
0.000534317
0.000562621
0.000532437
0.000560574
0.000560505
0.000534174
0.000534319
0.000560762
0.000534482
0.000534683
0.000562535
0.000532398
0.000560673
0.000534411
0.000534597
0.000532667
0.000527461
0.000497806
0.000525472
0.000525625
0.000499727
0.000499771
0.000527685
0.000497709
0.000525479
0.000525656
0.000499764
0.000499903
0.000526013
0.000499712
0.000499819
0.000527665
0.000497902
0.000525944
0.000499919
0.00049995
0.000497805
0.000493179
0.000463262
0.000491239
0.000491172
0.000465356
0.000465253
0.000493001
0.000463126
0.000491277
0.000491288
0.000465326
0.000465136
0.000491071
0.0004651
0.000464887
0.000493183
0.000463035
0.000491202
0.000465039
0.000464914
0.000462895
0.000458436
0.000427593
0.000456518
0.000456482
0.000429675
0.000429719
0.000458347
0.000427688
0.000456474
0.000456308
0.000429641
0.000429599
0.000456114
0.000429732
0.000429541
0.000458223
0.000427524
0.000456115
0.000429555
0.000429451
0.000427507
0.000422706
0.000392443
0.000420724
0.000420763
0.00039431
0.000394259
0.000422807
0.000392428
0.000420699
0.000420706
0.000394368
0.000394488
0.000420721
0.00039438
0.000394615
0.000422695
0.000392624
0.000420646
0.000394585
0.000394638
0.000392685
0.000387748
0.000358217
0.000385712
0.000385671
0.000360137
0.00036022
0.000387746
0.000358329
0.000385772
0.000385884
0.000360141
0.000360283
0.00038603
0.000360287
0.000360519
0.000387943
0.000358412
0.000386077
0.000360436
0.000360588
0.000358572
0.000353562
0.000323759
0.00035162
0.00035175
0.000325902
0.000325921
0.000353697
0.000323699
0.000351607
0.000351754
0.00032584
0.000325664
0.000351941
0.000325778
0.000325542
0.00035372
0.00032348
0.000351947
0.000325492
0.000325453
0.000323411
0.000318919
0.000287648
0.000317072
0.000316994
0.00028977
0.000289655
0.000318821
0.000287491
0.000317018
0.000316775
0.000289782
0.000289626
0.000316585
0.000289587
0.000289343
0.000318623
0.000287399
0.000316503
0.000289467
0.000289267
0.000287171
0.000282652
0.000251363
0.000280604
0.000280478
0.000253265
0.000253239
0.00028248
0.000251396
0.000280627
0.000280449
0.000253317
0.000253439
0.000280166
0.000253295
0.000253432
0.000282406
0.000251606
0.000280143
0.000253554
0.000253532
0.000251604
0.000246573
0.000216858
0.000244436
0.000244494
0.000218723
0.000218862
0.000246637
0.000217044
0.00024449
0.000244707
0.000218731
0.000218934
0.000244779
0.000218982
0.00021919
0.000246845
0.000217139
0.000244881
0.000219104
0.000219259
0.000217348
0.000212205
0.000182498
0.000210226
0.000210386
0.000184584
0.000184704
0.000212422
0.000182538
0.000210213
0.000210419
0.000184529
0.000184508
0.000210773
0.000184685
0.00018468
0.000212504
0.000182309
0.000210818
0.000184426
0.000184562
0.000182417
0.000177698
0.000146756
0.000175856
0.000175842
0.000148906
0.000148712
0.000177656
0.000146507
0.000175841
0.000175642
0.000148937
0.000148703
0.000175654
0.00014858
0.000148371
0.000177446
0.000146489
0.000175516
0.000148538
0.000148342
0.000146232
0.000141798
0.00011049
0.000139835
0.000139636
0.00011251
0.000112349
0.00014154
0.000110385
0.000139873
0.000139678
0.000112547
0.000112477
0.000139269
0.000112313
0.000112235
0.000141538
0.000110519
0.000139248
0.000112462
0.00011229
0.000110394
0.000105503
7.44287e-05
0.000103405
0.00010339
7.63662e-05
7.66209e-05
0.000105496
7.47596e-05
0.000103428
0.000103477
7.62957e-05
7.65025e-05
0.00010345
7.67733e-05
7.6933e-05
0.000105608
7.46629e-05
0.000103508
7.67047e-05
7.69309e-05
7.49689e-05
6.94846e-05
3.87943e-05
6.74296e-05
6.77e-05
4.07955e-05
4.08776e-05
6.98195e-05
3.89131e-05
6.73695e-05
6.75533e-05
4.07881e-05
4.08257e-05
6.80074e-05
4.09623e-05
4.10543e-05
6.97099e-05
3.88447e-05
6.80171e-05
4.08487e-05
4.10264e-05
3.89842e-05
3.39544e-05
7.80468e-06
3.21919e-05
3.21819e-05
1.08225e-05
1.04451e-05
3.39977e-05
7.34921e-06
3.21986e-05
3.22227e-05
1.09258e-05
1.08264e-05
3.22418e-05
1.03099e-05
1.02757e-05
3.39779e-05
7.67146e-06
3.22159e-05
1.06591e-05
1.03427e-05
7.26484e-06
4.72519e-06
6.60564e-06
6.32737e-06
4.31958e-06
6.67368e-06
6.61754e-06
5.41066e-06
5.64123e-06
5.33336e-06
6.14333e-06
4.57016e-06
6.17341e-06
0.00352812
0.00353066
0.0035294
0.0035296
0.00355662
0.00353059
0.00356019
0.00353092
0.00355686
0.00353075
0.00353095
0.00356032
0.00354169
0.00356341
0.00356474
0.00350081
0.0035142
0.00351835
0.00349308
0.003491
0.00349646
0.00350058
0.00351433
0.00351821
0.00349286
0.00351662
0.0035166
0.00351663
0.00349022
0.00349021
0.00349015
0.00349018
0.0035003
0.00351193
0.00351715
0.0035079
0.00351929
0.00349739
0.00350818
0.00349113
0.00349633
0.00350033
0.00351718
0.00351196
0.00350793
0.00351932
0.00350819
0.00349748
0.00351813
0.00351798
0.00350514
0.00349732
0.00349736
0.00347313
0.00348734
0.0034872
0.00347115
0.00348459
0.00347008
0.00347305
0.00348733
0.00348717
0.00347115
0.00348112
0.00348106
0.00348108
0.0034527
0.00345268
0.00345263
0.00345266
0.00347087
0.00348588
0.00347957
0.00347021
0.00348435
0.00347139
0.00347023
0.00348458
0.00347008
0.00347088
0.00347962
0.00348587
0.00347024
0.00348432
0.00347019
0.00347141
0.00348758
0.00348765
0.00346863
0.00347179
0.00347181
0.00343057
0.00344533
0.0034462
0.00342918
0.00344406
0.00342837
0.00343051
0.00344532
0.00344618
0.00342924
0.00344258
0.00344251
0.00344258
0.00341003
0.00341002
0.00340998
0.00341001
0.00342929
0.00344489
0.00344068
0.00343027
0.00344383
0.00342971
0.00343026
0.0034441
0.00342827
0.00342929
0.00344074
0.00344484
0.00343023
0.00344385
0.00343024
0.00342973
0.00344558
0.00344561
0.00342758
0.00342944
0.00342958
0.00338425
0.00340056
0.00340212
0.00338284
0.00339992
0.00338227
0.00338418
0.00340067
0.00340211
0.00338283
0.00339849
0.00339846
0.00339848
0.00336262
0.00336261
0.00336257
0.00336261
0.00338339
0.00340048
0.0033968
0.00338514
0.00339988
0.00338347
0.00338511
0.00339984
0.00338231
0.00338341
0.00339681
0.00340045
0.00338509
0.00339989
0.00338511
0.00338355
0.00340086
0.00340072
0.00338181
0.00338305
0.00338296
0.00333538
0.00335246
0.00335378
0.00333414
0.00335209
0.00333376
0.00333534
0.00335245
0.00335376
0.00333414
0.00335044
0.00335038
0.00335045
0.00331376
0.00331374
0.00331372
0.00331375
0.00333493
0.00335244
0.00334902
0.00333682
0.00335212
0.00333489
0.00333684
0.00335212
0.00333377
0.00333492
0.00334903
0.00335248
0.00333678
0.00335212
0.00333684
0.00333485
0.00335252
0.00335251
0.00333343
0.00333424
0.00333425
0.00328628
0.00330352
0.00330456
0.00328536
0.00330328
0.00328518
0.00328617
0.00330352
0.00330453
0.00328534
0.00330156
0.00330151
0.00330156
0.00326527
0.00326527
0.00326523
0.00326526
0.00328618