/*--------------------------------*- C++ -*----------------------------------*\
| =========                 |                                                 |
| \\      /  F ield         | OpenFOAM: The Open Source CFD Toolbox           |
|  \\    /   O peration     | Version:  v2012                                 |
|   \\  /    A nd           | Website:  www.openfoam.com                      |
|    \\/     M anipulation  |                                                 |
\*---------------------------------------------------------------------------*/
FoamFile
{
    version     2.0;
    format      ascii;
    class       volScalarField;
    location    "1537.5";
    object      epsilon;
}
// * * * * * * * * * * * * * * * * * * * * * * * * * * * * * * * * * * * * * //

dimensions      [0 2 -3 0 0 0 0];


internalField   nonuniform List<scalar> 
171728
(
1.35397e-09
3.34407e-09
4.84553e-09
5.11731e-09
1.31474e-09
3.07843e-09
4.41992e-09
4.64063e-09
1.25033e-09
2.82248e-09
4.00543e-09
4.23319e-09
1.1918e-09
2.60506e-09
3.65089e-09
3.91787e-09
1.13696e-09
2.41993e-09
3.34619e-09
3.68121e-09
1.08491e-09
2.26588e-09
3.09224e-09
3.51334e-09
1.03556e-09
2.14147e-09
2.88691e-09
3.35382e-09
9.89111e-10
2.04666e-09
2.72348e-09
3.13414e-09
9.45587e-10
1.98058e-09
2.59811e-09
2.88881e-09
9.04855e-10
1.94484e-09
2.51118e-09
2.73738e-09
8.66399e-10
1.94216e-09
2.46259e-09
2.61104e-09
8.31453e-10
1.97301e-09
2.45631e-09
2.52041e-09
7.98128e-10
2.04927e-09
2.49866e-09
2.51507e-09
7.66154e-10
2.18432e-09
2.60063e-09
2.58042e-09
7.36434e-10
2.38917e-09
2.78402e-09
2.71118e-09
7.07515e-10
2.71971e-09
3.08464e-09
2.92521e-09
6.81543e-10
3.21632e-09
3.56644e-09
3.3113e-09
6.59925e-10
3.99762e-09
4.29377e-09
3.97439e-09
6.45e-10
5.0943e-09
5.4343e-09
5.16439e-09
6.3465e-10
6.79345e-09
7.10484e-09
7.50199e-09
6.34457e-10
9.38956e-09
9.5524e-09
1.14314e-08
6.39639e-10
1.2767e-08
1.31046e-08
1.78366e-08
6.5671e-10
1.76775e-08
1.80514e-08
2.83247e-08
6.94875e-10
2.46893e-08
2.47114e-08
4.65511e-08
7.6033e-10
3.31001e-08
3.36638e-08
7.37462e-08
8.77257e-10
4.47019e-08
4.49512e-08
1.0554e-07
1.0646e-09
5.86846e-08
5.91818e-08
1.59033e-07
1.30682e-09
7.57356e-08
7.6055e-08
2.18988e-07
1.65698e-09
9.51113e-08
9.53395e-08
2.88913e-07
2.17331e-09
1.17803e-07
1.20717e-07
3.65819e-07
2.88407e-09
1.45476e-07
1.43468e-07
4.44257e-07
3.83336e-09
1.72616e-07
1.73846e-07
5.1878e-07
5.13079e-09
2.04157e-07
2.05176e-07
5.87959e-07
6.85093e-09
2.41661e-07
2.42365e-07
6.50834e-07
9.14191e-09
2.80329e-07
2.79268e-07
7.0777e-07
1.19879e-08
3.20773e-07
3.21094e-07
7.57972e-07
1.54978e-08
3.60225e-07
3.6221e-07
8.01757e-07
2.0215e-08
4.09784e-07
4.10165e-07
8.4315e-07
2.59582e-08
4.53982e-07
4.53e-07
8.78365e-07
3.28928e-08
5.04347e-07
5.0541e-07
9.14985e-07
4.14735e-08
5.51938e-07
5.50605e-07
9.46699e-07
5.03084e-08
5.97368e-07
5.99686e-07
9.88822e-07
6.23172e-08
6.52134e-07
6.51505e-07
9.9099e-07
7.59738e-08
6.87757e-07
6.88272e-07
1.0222e-06
9.01298e-08
7.42033e-07
7.42892e-07
1.09217e-06
1.10294e-07
7.89972e-07
7.89304e-07
1.10574e-06
1.27753e-07
8.23176e-07
8.21282e-07
1.12009e-06
1.47766e-07
8.67555e-07
8.68363e-07
1.13009e-06
1.74312e-07
8.99651e-07
8.99552e-07
1.15672e-06
1.96568e-07
9.37867e-07
9.36781e-07
1.19565e-06
2.29087e-07
9.77611e-07
9.81136e-07
1.23355e-06
2.57498e-07
9.9813e-07
9.99455e-07
1.24226e-06
2.85794e-07
1.0241e-06
1.02447e-06
1.24938e-06
3.17552e-07
1.04909e-06
1.05305e-06
1.27627e-06
3.4574e-07
1.08039e-06
1.07446e-06
1.30198e-06
3.8522e-07
1.10197e-06
1.10139e-06
1.31522e-06
4.18386e-07
1.11561e-06
1.12081e-06
1.33671e-06
4.36158e-07
1.13756e-06
1.136e-06
1.34933e-06
4.67695e-07
1.1582e-06
1.15781e-06
1.35623e-06
5.09013e-07
1.17275e-06
1.17153e-06
1.37456e-06
5.31545e-07
1.18685e-06
1.18636e-06
1.40002e-06
5.52662e-07
1.20808e-06
1.20938e-06
1.40826e-06
5.8095e-07
1.21887e-06
1.21942e-06
1.40721e-06
5.99299e-07
1.23178e-06
1.22775e-06
1.42152e-06
6.17492e-07
1.24592e-06
1.24509e-06
1.44689e-06
6.3892e-07
1.25286e-06
1.25595e-06
1.45618e-06
6.56971e-07
1.26254e-06
1.26297e-06
1.46022e-06
6.80539e-07
1.27482e-06
1.27755e-06
1.46841e-06
6.95809e-07
1.28008e-06
1.28295e-06
1.47783e-06
6.98371e-07
1.28145e-06
1.27454e-06
1.4745e-06
7.20302e-07
1.303e-06
1.2976e-06
1.48961e-06
7.45042e-07
1.30746e-06
1.32225e-06
1.51552e-06
7.46165e-07
1.28876e-06
1.29997e-06
1.49962e-06
7.42758e-07
1.29767e-06
1.28283e-06
1.48604e-06
7.63228e-07
1.32584e-06
1.30818e-06
1.51163e-06
7.91999e-07
1.33523e-06
1.34076e-06
1.54043e-06
7.97256e-07
1.31482e-06
1.3303e-06
1.52932e-06
7.79267e-07
1.29902e-06
1.30009e-06
1.50497e-06
7.80093e-07
1.31142e-06
1.3023e-06
1.50757e-06
8.07563e-07
1.33128e-06
1.32705e-06
1.52805e-06
8.19107e-07
1.32983e-06
1.33386e-06
1.54299e-06
8.09469e-07
1.31916e-06
1.32628e-06
1.54186e-06
8.04286e-07
1.31151e-06
1.3182e-06
1.52482e-06
8.06377e-07
1.30776e-06
1.30838e-06
1.50922e-06
8.11739e-07
1.3156e-06
1.3081e-06
1.52246e-06
8.1717e-07
1.32003e-06
1.31538e-06
1.53574e-06
8.1606e-07
1.30739e-06
1.31673e-06
1.52651e-06
8.09392e-07
1.30114e-06
1.30959e-06
1.51979e-06
8.04593e-07
1.3044e-06
1.29542e-06
1.5248e-06
7.98341e-07
1.29176e-06
1.27773e-06
1.50964e-06
7.92121e-07
1.27508e-06
1.27625e-06
1.48922e-06
7.97266e-07
1.28318e-06
1.29598e-06
1.5093e-06
8.03137e-07
1.29177e-06
1.29842e-06
1.52927e-06
7.87123e-07
1.26957e-06
1.26627e-06
1.5018e-06
7.49325e-07
1.18954e-06
1.18574e-06
1.42281e-06
5.15134e-09
4.16882e-09
3.92447e-09
4.97083e-09
3.73666e-09
3.91652e-09
1.33236e-09
1.31913e-09
1.43597e-09
1.56778e-09
3.61815e-09
3.93584e-09
5.17623e-09
4.30337e-09
4.18432e-09
5.14199e-09
5.1314e-09
4.63682e-09
4.09969e-09
4.71172e-09
3.93907e-09
4.41431e-09
4.95014e-09
4.48651e-09
3.3672e-09
4.80676e-09
3.16644e-09
4.34787e-09
4.00485e-09
3.14984e-09
3.8183e-09
5.15029e-09
4.71013e-09
5.80861e-09
4.5346e-09
5.55406e-09
4.67387e-09
4.60851e-09
4.15935e-09
3.8741e-09
4.29498e-09
3.68517e-09
3.96225e-09
4.45693e-09
4.02814e-09
3.09281e-09
4.18626e-09
2.88761e-09
3.77976e-09
3.74674e-09
2.882e-09
3.54186e-09
4.67736e-09
4.25869e-09
5.44304e-09
4.10273e-09
5.17577e-09
4.26692e-09
4.13617e-09
3.76273e-09
3.62335e-09
3.86347e-09
3.44586e-09
3.59779e-09
4.0037e-09
3.64796e-09
2.82463e-09
3.67321e-09
2.64918e-09
3.41313e-09
3.47732e-09
2.65652e-09
3.29174e-09
4.23099e-09
3.87114e-09
5.10736e-09
3.73478e-09
4.96629e-09
3.95511e-09
3.7439e-09
3.42883e-09
3.38915e-09
3.51761e-09
3.22662e-09
3.30344e-09
3.62771e-09
3.32245e-09
2.5953e-09
3.34019e-09
2.44482e-09
3.14466e-09
3.23232e-09
2.46324e-09
3.06279e-09
3.84809e-09
3.54128e-09
4.9424e-09
3.41758e-09
4.92073e-09
3.71418e-09
3.41313e-09
3.14397e-09
3.17589e-09
3.23968e-09
3.03384e-09
3.06948e-09
3.30564e-09
3.05051e-09
2.39923e-09
3.08418e-09
2.27293e-09
2.91426e-09
3.00979e-09
2.30171e-09
2.86338e-09
3.52153e-09
3.25563e-09
4.9219e-09
3.15104e-09
4.96522e-09
3.52669e-09
3.1314e-09
2.90295e-09
2.99007e-09
3.01826e-09
2.87146e-09
2.87149e-09
3.03748e-09
2.81992e-09
2.23526e-09
2.86281e-09
2.13275e-09
2.72709e-09
2.81902e-09
2.16975e-09
2.69955e-09
3.2395e-09
3.01331e-09
4.98666e-09
2.93435e-09
5.04862e-09
3.36704e-09
2.89401e-09
2.70745e-09
2.8371e-09
2.82423e-09
2.75044e-09
2.69405e-09
2.81024e-09
2.62739e-09
2.1032e-09
2.6872e-09
2.02526e-09
2.57975e-09
2.66319e-09
2.06778e-09
2.56624e-09
3.00099e-09
2.81173e-09
5.06179e-09
2.76093e-09
5.05493e-09
3.15464e-09
2.70218e-09
2.55056e-09
2.72596e-09
2.65465e-09
2.66794e-09
2.55053e-09
2.62115e-09
2.46857e-09
2.00418e-09
2.54876e-09
1.95068e-09
2.4702e-09
2.53698e-09
1.99417e-09
2.45724e-09
2.80305e-09
2.64645e-09
5.01082e-09
2.62604e-09
4.78838e-09
2.90168e-09
2.54883e-09
2.42807e-09
2.65203e-09
2.52041e-09
2.61633e-09
2.44786e-09
2.46585e-09
2.34301e-09
1.93753e-09
2.44933e-09
1.90833e-09
2.40022e-09
2.43367e-09
1.95011e-09
2.37867e-09
2.64164e-09
2.51618e-09
4.69948e-09
2.52925e-09
4.4102e-09
2.74306e-09
2.42964e-09
2.33829e-09
2.60945e-09
2.42777e-09
2.59829e-09
2.38515e-09
2.34415e-09
2.25334e-09
1.90313e-09
2.38757e-09
1.89858e-09
2.36492e-09
2.36627e-09
1.93991e-09
2.33804e-09
2.51545e-09
2.42046e-09
4.30609e-09
2.47101e-09
3.99873e-09
2.61365e-09
2.34308e-09
2.28217e-09
2.5989e-09
2.37407e-09
2.61233e-09
2.36257e-09
2.25791e-09
2.19777e-09
1.90085e-09
2.36141e-09
1.92208e-09
2.3676e-09
2.33279e-09
1.96393e-09
2.33416e-09
2.42336e-09
2.35941e-09
3.90516e-09
2.45391e-09
3.64122e-09
2.51472e-09
2.29322e-09
2.26654e-09
2.62195e-09
2.36404e-09
2.66749e-09
2.38713e-09
2.20808e-09
2.1821e-09
1.9329e-09
2.37452e-09
1.98452e-09
2.40976e-09
2.33871e-09
2.03019e-09
2.37792e-09
2.36723e-09
2.33348e-09
3.57532e-09
2.48268e-09
3.44843e-09
2.49606e-09
2.28674e-09
2.30165e-09
2.68956e-09
2.40097e-09
2.78283e-09
2.46651e-09
2.20131e-09
2.21821e-09
2.00635e-09
2.42699e-09
2.09615e-09
2.50212e-09
2.39782e-09
2.15163e-09
2.48436e-09
2.35042e-09
2.35826e-09
3.43671e-09
2.56975e-09
3.45668e-09
2.54619e-09
2.33509e-09
2.40593e-09
2.82369e-09
2.49611e-09
2.98063e-09
2.60785e-09
2.25117e-09
2.31863e-09
2.13344e-09
2.5373e-09
2.27907e-09
2.67483e-09
2.52184e-09
2.33465e-09
2.65176e-09
2.38877e-09
2.45042e-09
3.48705e-09
2.72769e-09
3.59796e-09
2.65676e-09
2.46095e-09
2.61243e-09
3.04555e-09
2.6579e-09
3.29201e-09
2.86047e-09
2.37385e-09
2.52593e-09
2.33771e-09
2.73345e-09
2.55933e-09
2.94971e-09
2.70285e-09
2.63248e-09
2.92483e-09
2.50259e-09
2.64297e-09
3.64942e-09
2.99673e-09
3.81778e-09
2.84491e-09
2.70503e-09
2.98342e-09
3.39286e-09
2.94133e-09
3.76793e-09
3.27108e-09
2.61546e-09
2.90488e-09
2.64966e-09
3.03825e-09
2.98756e-09
3.37007e-09
3.02227e-09
3.08091e-09
3.36457e-09
2.73156e-09
2.9997e-09
3.85668e-09
3.42891e-09
4.18414e-09
3.17316e-09
3.13565e-09
3.63911e-09
3.92421e-09
3.409e-09
4.50607e-09
3.92532e-09
3.05994e-09
3.53345e-09
3.12582e-09
3.50512e-09
3.64602e-09
4.01865e-09
3.48883e-09
3.76891e-09
4.00824e-09
3.14901e-09
3.61997e-09
4.27154e-09
4.07832e-09
4.60711e-09
3.72191e-09
3.8933e-09
4.77267e-09
4.74925e-09
4.14395e-09
5.62907e-09
4.85479e-09
3.8007e-09
4.60313e-09
3.8537e-09
4.22772e-09
4.63441e-09
5.00727e-09
4.24533e-09
4.74409e-09
5.02297e-09
3.8699e-09
4.73737e-09
4.86668e-09
5.09872e-09
5.69456e-09
4.74714e-09
5.20208e-09
6.74295e-09
5.99779e-09
5.19005e-09
7.29592e-09
6.4245e-09
5.04198e-09
6.70394e-09
4.95477e-09
5.33145e-09
6.10807e-09
6.4799e-09
5.35694e-09
6.37867e-09
6.59466e-09
5.16472e-09
6.66703e-09
6.00478e-09
6.63487e-09
7.11133e-09
6.84557e-09
7.45698e-09
1.02546e-08
7.82873e-09
6.82544e-09
9.78071e-09
8.61632e-09
7.28126e-09
1.00735e-08
6.58383e-09
6.94001e-09
8.33117e-09
8.67547e-09
7.06127e-09
8.62087e-09
8.93311e-09
7.34785e-09
1.00879e-08
7.51072e-09
8.86797e-09
9.07133e-09
1.02444e-08
1.13795e-08
1.61177e-08
1.05286e-08
9.37524e-09
1.32099e-08
1.17391e-08
1.14694e-08
1.56607e-08
9.00876e-09
9.35004e-09
1.15055e-08
1.18307e-08
9.63801e-09
1.18005e-08
1.21817e-08
1.12163e-08
1.58893e-08
9.68503e-09
1.2097e-08
1.19006e-08
1.58089e-08
1.80483e-08
2.62014e-08
1.42422e-08
1.27041e-08
1.7877e-08
1.62093e-08
1.72423e-08
2.52329e-08
1.25167e-08
1.28179e-08
1.59771e-08
1.62941e-08
1.32683e-08
1.62899e-08
1.66957e-08
1.77736e-08
2.59068e-08
1.29464e-08
1.66565e-08
1.62883e-08
2.56754e-08
2.90394e-08
4.17724e-08
1.925e-08
1.76165e-08
2.38425e-08
2.28103e-08
2.81312e-08
4.34672e-08
1.73304e-08
1.76698e-08
2.20269e-08
2.24763e-08
1.81664e-08
2.28661e-08
2.3124e-08
2.87593e-08
4.17735e-08
1.76605e-08
2.28453e-08
2.26899e-08
4.2267e-08
4.6043e-08
6.69856e-08
2.57136e-08
2.46564e-08
3.19616e-08
3.08695e-08
4.80765e-08
6.57586e-08
2.39054e-08
2.43269e-08
3.04691e-08
3.10886e-08
2.49429e-08
3.071e-08
3.16802e-08
4.61384e-08
6.64401e-08
2.44891e-08
3.12117e-08
3.09351e-08
6.72311e-08
7.31651e-08
9.91564e-08
3.42003e-08
3.32844e-08
4.20072e-08
4.19385e-08
7.15586e-08
1.00486e-07
3.28409e-08
3.34748e-08
4.07585e-08
4.18886e-08
3.39852e-08
4.14886e-08
4.13278e-08
7.27335e-08
1.00706e-07
3.3343e-08
4.19702e-08
4.09122e-08
9.80416e-08
1.06851e-07
1.45782e-07
4.4936e-08
4.5217e-08
5.54056e-08
5.60357e-08
1.09636e-07
1.50839e-07
4.37e-08
4.51067e-08
5.42685e-08
5.56833e-08
4.44916e-08
5.53187e-08
5.56042e-08
1.09125e-07
1.46578e-07
4.39656e-08
5.53225e-08
5.4748e-08
1.47456e-07
1.57467e-07
2.07351e-07
5.94854e-08
5.96004e-08
7.19921e-08
7.22377e-08
1.60886e-07
2.03195e-07
5.82808e-08
5.99058e-08
7.06878e-08
7.35216e-08
5.94512e-08
7.0687e-08
7.19774e-08
1.57178e-07
2.06466e-07
5.85554e-08
7.13874e-08
7.09984e-08
2.06396e-07
2.19463e-07
2.71925e-07
7.63609e-08
7.74561e-08
9.03676e-08
9.26341e-08
2.16323e-07
2.79114e-07
7.5035e-08
7.88912e-08
8.92785e-08
9.55638e-08
7.64658e-08
9.02264e-08
9.05772e-08
2.19798e-07
2.75664e-07
7.55349e-08
9.04119e-08
9.01569e-08
2.74419e-07
2.86521e-07
3.48997e-07
9.54787e-08
9.77864e-08
1.12278e-07
1.15813e-07
2.93618e-07
3.48031e-07
9.45233e-08
1.01242e-07
1.1186e-07
1.22094e-07
9.56595e-08
1.1174e-07
1.12509e-07
2.90721e-07
3.55351e-07
9.53866e-08
1.13848e-07
1.12274e-07
3.49872e-07
3.64995e-07
4.2771e-07
1.18324e-07
1.22201e-07
1.3793e-07
1.43088e-07
3.6476e-07
4.3343e-07
1.17951e-07
1.29526e-07
1.37167e-07
1.46376e-07
1.18573e-07
1.38179e-07
1.38125e-07
3.72918e-07
4.3206e-07
1.18293e-07
1.37938e-07
1.37783e-07
4.28413e-07
4.4392e-07
5.02625e-07
1.44945e-07
1.50741e-07
1.66862e-07
1.71584e-07
4.48877e-07
5.06253e-07
1.44067e-07
1.50655e-07
1.65299e-07
1.67109e-07
1.45007e-07
1.66099e-07
1.66442e-07
4.44188e-07
4.93737e-07
1.44623e-07
1.65553e-07
1.66146e-07
5.03177e-07
5.17883e-07
5.7134e-07
1.74108e-07
1.77304e-07
1.97351e-07
1.96875e-07
5.20498e-07
5.66028e-07
1.72598e-07
1.74994e-07
1.96863e-07
2.03778e-07
1.73989e-07
1.95084e-07
1.98591e-07
5.10431e-07
5.7385e-07
1.73744e-07
1.97075e-07
1.98313e-07
5.72986e-07
5.86278e-07
6.37359e-07
2.06215e-07
2.05724e-07
2.33119e-07
2.35865e-07
5.81223e-07
6.38497e-07
2.05708e-07
2.13356e-07
2.32639e-07
2.40529e-07
2.0678e-07
2.32561e-07
2.32985e-07
5.88767e-07
6.36747e-07
2.06459e-07
2.32818e-07
2.32526e-07
6.36986e-07
6.5166e-07
6.94028e-07
2.41953e-07
2.4569e-07
2.71305e-07
2.74204e-07
6.53097e-07
6.96006e-07
2.41349e-07
2.48672e-07
2.69712e-07
2.72152e-07
2.42543e-07
2.70346e-07
2.70919e-07
6.50806e-07
6.93345e-07
2.41905e-07
2.6996e-07
2.70036e-07
6.94479e-07
7.07189e-07
7.46436e-07
2.81539e-07
2.83804e-07
3.11449e-07
3.12713e-07
7.09087e-07
7.4516e-07
2.79919e-07
2.80845e-07
3.10287e-07
3.11268e-07
2.80462e-07
3.10782e-07
3.11957e-07
7.06121e-07
7.43928e-07
2.79693e-07
3.10252e-07
3.11129e-07
7.46177e-07
7.58121e-07
7.89733e-07
3.217e-07
3.22168e-07
3.53806e-07
3.50913e-07
7.56452e-07
7.87845e-07
3.20468e-07
3.22092e-07
3.52623e-07
3.52511e-07
3.22822e-07
3.49926e-07
3.53994e-07
7.56037e-07
7.89659e-07
3.21759e-07
3.51995e-07
3.52774e-07
7.9064e-07
8.00753e-07
8.31244e-07
3.6394e-07
3.61558e-07
3.96987e-07
3.98341e-07
7.99099e-07
8.31414e-07
3.62651e-07
3.62618e-07
3.95312e-07
3.98875e-07
3.64306e-07
3.96904e-07
3.99865e-07
8.00714e-07
8.31129e-07
3.62997e-07
3.97641e-07
3.97675e-07
8.32897e-07
8.41727e-07
8.70031e-07
4.10062e-07
4.10905e-07
4.46826e-07
4.44654e-07
8.42328e-07
8.69054e-07
4.08376e-07
4.11314e-07
4.45365e-07
4.43436e-07
4.12793e-07
4.43548e-07
4.46052e-07
8.41626e-07
8.68402e-07
4.10624e-07
4.42298e-07
4.44923e-07
8.68738e-07
8.79343e-07
9.03878e-07
4.57181e-07
4.55344e-07
4.92195e-07
4.92584e-07
8.78254e-07
9.04761e-07
4.55509e-07
4.5418e-07
4.90084e-07
4.93392e-07
4.56372e-07
4.90493e-07
4.92192e-07
8.77824e-07
9.04615e-07
4.55218e-07
4.91621e-07
4.89823e-07
9.05748e-07
9.13534e-07
9.39518e-07
5.06462e-07
5.06355e-07
5.44342e-07
5.4285e-07
9.14528e-07
9.37711e-07
5.03693e-07
5.06865e-07
5.41569e-07
5.41276e-07
5.06484e-07
5.42059e-07
5.46273e-07
9.14396e-07
9.3704e-07
5.03645e-07
5.40806e-07
5.43017e-07
9.37234e-07
9.47388e-07
9.66664e-07
5.55303e-07
5.52957e-07
5.87922e-07
5.85883e-07
9.452e-07
9.65776e-07
5.53075e-07
5.51966e-07
5.86748e-07
5.87725e-07
5.57704e-07
5.8373e-07
5.97544e-07
9.44613e-07
9.66753e-07
5.55197e-07
5.85374e-07
5.97733e-07
9.78628e-07
9.74934e-07
9.9861e-07
5.99368e-07
5.98849e-07
6.36568e-07
6.40227e-07
9.74675e-07
1.00036e-06
5.98551e-07
6.01073e-07
6.36922e-07
6.41202e-07
6.12e-07
6.40394e-07
6.34562e-07
9.7587e-07
1.0004e-06
6.12702e-07
6.40753e-07
6.33425e-07
9.89489e-07
1.0069e-06
1.02806e-06
6.49169e-07
6.52409e-07
6.85576e-07
6.80546e-07
1.00793e-06
1.02271e-06
6.49132e-07
6.52389e-07
6.84421e-07
6.80834e-07
6.37348e-07
6.78424e-07
6.68434e-07
1.00754e-06
1.02218e-06
6.35788e-07
6.78447e-07
6.68273e-07
1.00811e-06
1.03518e-06
1.05535e-06
6.96853e-07
6.90358e-07
7.29893e-07
7.29552e-07
1.02939e-06
1.05514e-06
6.9565e-07
6.91134e-07
7.27741e-07
7.30215e-07
6.85562e-07
7.26503e-07
7.44728e-07
1.02892e-06
1.05564e-06
6.86261e-07
7.27031e-07
7.46735e-07
1.08095e-06
1.06322e-06
1.08695e-06
7.41716e-07
7.44609e-07
7.79432e-07
7.80247e-07
1.065e-06
1.08891e-06
7.39915e-07
7.44813e-07
7.78787e-07
7.79673e-07
7.64979e-07
7.81661e-07
7.98161e-07
1.06609e-06
1.08918e-06
7.67106e-07
7.80929e-07
8.00389e-07
1.1024e-06
1.09435e-06
1.11072e-06
7.90715e-07
7.88367e-07
8.16073e-07
8.13628e-07
1.09432e-06
1.10705e-06
7.90168e-07
7.8976e-07
8.16896e-07
8.16747e-07
8.03582e-07
8.13438e-07
8.21823e-07
1.09435e-06
1.10776e-06
8.06181e-07
8.1173e-07
8.24474e-07
1.11549e-06
1.11624e-06
1.13454e-06
8.24425e-07
8.24163e-07
8.56189e-07
8.59719e-07
1.11342e-06
1.13751e-06
8.24902e-07
8.25513e-07
8.5447e-07
8.56283e-07
8.2884e-07
8.56228e-07
8.49907e-07
1.11417e-06
1.13535e-06
8.30321e-07
8.56538e-07
8.46122e-07
1.12595e-06
1.14206e-06
1.16403e-06
8.68067e-07
8.70332e-07
8.96997e-07
8.92208e-07
1.14508e-06
1.1605e-06
8.66071e-07
8.67609e-07
8.96369e-07
8.95608e-07
8.57315e-07
8.92362e-07
8.86323e-07
1.14281e-06
1.16088e-06
8.52406e-07
8.93208e-07
8.80137e-07
1.149e-06
1.16965e-06
1.18393e-06
9.04124e-07
8.99261e-07
9.27842e-07
9.27368e-07
1.1655e-06
1.18296e-06
9.03824e-07
9.02526e-07
9.27908e-07
9.27031e-07
8.96617e-07
9.27227e-07
9.30691e-07
1.16587e-06
1.18263e-06
8.91177e-07
9.25473e-07
9.31375e-07
1.18593e-06
1.19034e-06
1.21452e-06
9.37212e-07
9.38482e-07
9.67504e-07
9.70572e-07
1.19068e-06
1.21762e-06
9.37535e-07
9.37702e-07
9.67418e-07
9.70523e-07
9.43617e-07
9.70066e-07
9.75443e-07
1.19013e-06
1.21776e-06
9.46725e-07
9.72511e-07
9.83208e-07
1.22725e-06
1.22078e-06
1.23332e-06
9.75627e-07
9.77586e-07
9.95014e-07
9.93523e-07
1.22349e-06
1.23269e-06
9.75071e-07
9.78342e-07
9.93868e-07
9.93358e-07
9.82192e-07
9.92984e-07
9.94314e-07
1.22402e-06
1.23329e-06
9.90031e-07
9.954e-07
9.99072e-07
1.2403e-06
1.23808e-06
1.2545e-06
1.00157e-06
9.99558e-07
1.02198e-06
1.02001e-06
1.23667e-06
1.25048e-06
1.00054e-06
9.98396e-07
1.02209e-06
1.01935e-06
9.97254e-07
1.01701e-06
1.01098e-06
1.23695e-06
1.24879e-06
1.00086e-06
1.01729e-06
1.0123e-06
1.24511e-06
1.26015e-06
1.27069e-06
1.02789e-06
1.02694e-06
1.04281e-06
1.04266e-06
1.25653e-06
1.27013e-06
1.02845e-06
1.02734e-06
1.04321e-06
1.04951e-06
1.01798e-06
1.043e-06
1.0447e-06
1.25475e-06
1.27502e-06
1.01841e-06
1.04654e-06
1.04243e-06
1.26856e-06
1.27485e-06
1.28968e-06
1.04855e-06
1.04753e-06
1.07064e-06
1.06933e-06
1.27466e-06
1.29131e-06
1.04818e-06
1.05438e-06
1.06755e-06
1.06766e-06
1.05434e-06
1.07225e-06
1.07459e-06
1.28053e-06
1.2916e-06
1.05125e-06
1.06894e-06
1.07436e-06
1.29729e-06
1.29657e-06
1.31916e-06
1.07916e-06
1.07818e-06
1.10248e-06
1.10199e-06
1.29815e-06
1.31753e-06
1.07541e-06
1.07346e-06
1.09968e-06
1.09443e-06
1.07843e-06
1.09833e-06
1.09095e-06
1.29597e-06
1.3102e-06
1.07886e-06
1.09423e-06
1.09254e-06
1.3109e-06
1.32471e-06
1.33037e-06
1.10704e-06
1.10653e-06
1.11266e-06
1.11376e-06
1.32185e-06
1.32669e-06
1.1058e-06
1.10197e-06
1.116e-06
1.11854e-06
1.09672e-06
1.11156e-06
1.11724e-06
1.31656e-06
1.33188e-06
1.09857e-06
1.11742e-06
1.11886e-06
1.33076e-06
1.33198e-06
1.33243e-06
1.11374e-06
1.11633e-06
1.12266e-06
1.12829e-06
1.32987e-06
1.34041e-06
1.11781e-06
1.12192e-06
1.12687e-06
1.13299e-06
1.12333e-06
1.13161e-06
1.13481e-06
1.33576e-06
1.34305e-06
1.12488e-06
1.13144e-06
1.1338e-06
1.34659e-06
1.33624e-06
1.35492e-06
1.1278e-06
1.13324e-06
1.14811e-06
1.15122e-06
1.34553e-06
1.35884e-06
1.1319e-06
1.13774e-06
1.1505e-06
1.15421e-06
1.13731e-06
1.15336e-06
1.14593e-06
1.34705e-06
1.36082e-06
1.1355e-06
1.15216e-06
1.14377e-06
1.35286e-06
1.36272e-06
1.38148e-06
1.15595e-06
1.15835e-06
1.17607e-06
1.17604e-06
1.3642e-06
1.37781e-06
1.15721e-06
1.15979e-06
1.17278e-06
1.17072e-06
1.1501e-06
1.16987e-06
1.16777e-06
1.36652e-06
1.37561e-06
1.14808e-06
1.16924e-06
1.16633e-06
1.36853e-06
1.38493e-06
1.38809e-06
1.17949e-06
1.17939e-06
1.18647e-06
1.1864e-06
1.38143e-06
1.38574e-06
1.17527e-06
1.17282e-06
1.18237e-06
1.18118e-06
1.17472e-06
1.18241e-06
1.19236e-06
1.37801e-06
1.3818e-06
1.17344e-06
1.18142e-06
1.19307e-06
1.39449e-06
1.39111e-06
1.40013e-06
1.18924e-06
1.18936e-06
1.19969e-06
1.20093e-06
1.389e-06
1.39999e-06
1.18583e-06
1.18554e-06
1.19911e-06
1.20211e-06
1.19592e-06
1.20302e-06
1.20094e-06
1.38585e-06
1.4018e-06
1.19789e-06
1.20361e-06
1.20496e-06
1.40662e-06
1.40497e-06
1.41638e-06
1.20338e-06
1.20488e-06
1.21455e-06
1.21596e-06
1.40518e-06
1.41517e-06
1.20406e-06
1.20815e-06
1.21842e-06
1.22146e-06
1.20192e-06
1.21683e-06
1.20757e-06
1.40798e-06
1.41887e-06
1.20544e-06
1.21863e-06
1.20649e-06
1.40494e-06
1.41985e-06
1.42477e-06
1.21762e-06
1.21877e-06
1.22634e-06
1.2278e-06
1.41826e-06
1.42478e-06
1.22169e-06
1.22364e-06
1.22853e-06
1.22919e-06
1.21119e-06
1.22788e-06
1.22661e-06
1.42135e-06
1.42419e-06
1.20862e-06
1.22431e-06
1.22064e-06
1.41586e-06
1.42788e-06
1.43487e-06
1.22969e-06
1.23151e-06
1.24096e-06
1.2433e-06
1.42902e-06
1.44067e-06
1.23048e-06
1.23164e-06
1.23696e-06
1.24046e-06
1.23251e-06
1.24326e-06
1.24787e-06
1.42748e-06
1.43708e-06
1.22587e-06
1.24057e-06
1.24322e-06
1.44158e-06
1.43828e-06
1.44257e-06
1.24436e-06
1.24633e-06
1.25088e-06
1.25148e-06
1.44411e-06
1.44627e-06
1.23936e-06
1.2434e-06
1.24598e-06
1.249e-06
1.25047e-06
1.25115e-06
1.25408e-06
1.44147e-06
1.44692e-06
1.24889e-06
1.25482e-06
1.25874e-06
1.45381e-06
1.44538e-06
1.45276e-06
1.25264e-06
1.25266e-06
1.26003e-06
1.25783e-06
1.44855e-06
1.45246e-06
1.24837e-06
1.24975e-06
1.25874e-06
1.25729e-06
1.25533e-06
1.25986e-06
1.2607e-06
1.44874e-06
1.45163e-06
1.26021e-06
1.26002e-06
1.26244e-06
1.4578e-06
1.45723e-06
1.47184e-06
1.26318e-06
1.26032e-06
1.27396e-06
1.2693e-06
1.45554e-06
1.46255e-06
1.26329e-06
1.26192e-06
1.27829e-06
1.27834e-06
1.263e-06
1.27162e-06
1.27188e-06
1.45556e-06
1.47061e-06
1.26348e-06
1.27395e-06
1.26942e-06
1.46498e-06
1.47682e-06
1.47946e-06
1.27752e-06
1.27267e-06
1.28133e-06
1.27937e-06
1.46679e-06
1.47418e-06
1.28232e-06
1.28355e-06
1.2859e-06
1.28803e-06
1.27513e-06
1.28007e-06
1.28195e-06
1.47648e-06
1.4826e-06
1.27215e-06
1.28368e-06
1.28037e-06
1.47537e-06
1.48034e-06
1.46766e-06
1.28044e-06
1.27954e-06
1.27777e-06
1.28129e-06
1.47574e-06
1.47248e-06
1.28376e-06
1.28425e-06
1.27517e-06
1.27169e-06
1.28249e-06
1.27951e-06
1.28038e-06
1.4833e-06
1.46334e-06
1.28171e-06
1.27526e-06
1.27999e-06
1.47327e-06
1.46898e-06
1.48477e-06
1.27869e-06
1.28613e-06
1.29584e-06
1.3027e-06
1.47596e-06
1.49792e-06
1.27442e-06
1.27027e-06
1.28888e-06
1.28698e-06
1.28018e-06
1.29767e-06
1.29034e-06
1.46384e-06
1.47758e-06
1.27962e-06
1.28869e-06
1.28941e-06
1.48283e-06
1.49284e-06
1.5151e-06
1.30201e-06
1.30742e-06
1.31265e-06
1.30805e-06
1.50609e-06
1.51022e-06
1.29714e-06
1.2978e-06
1.31673e-06
1.32411e-06
1.29645e-06
1.31013e-06
1.31211e-06
1.48728e-06
1.52514e-06
1.29597e-06
1.31991e-06
1.31319e-06
1.51226e-06
1.51723e-06
1.49671e-06
1.31167e-06
1.30093e-06
1.29672e-06
1.28344e-06
1.5097e-06
1.47503e-06
1.3182e-06
1.3268e-06
1.30503e-06
1.30926e-06
1.31353e-06
1.29212e-06
1.30415e-06
1.52999e-06
1.50819e-06
1.31501e-06
1.30776e-06
1.30514e-06
1.49982e-06
1.49632e-06
1.48141e-06
1.29244e-06
1.28053e-06
1.28776e-06
1.29004e-06
1.47492e-06
1.47886e-06
1.29933e-06
1.30016e-06
1.28888e-06
1.28123e-06
1.29961e-06
1.29081e-06
1.29191e-06
1.50647e-06
1.47223e-06
1.30003e-06
1.28383e-06
1.29089e-06
1.48377e-06
1.48398e-06
1.50164e-06
1.29011e-06
1.29867e-06
1.30982e-06
1.32545e-06
1.48675e-06
1.5248e-06
1.28869e-06
1.27985e-06
1.30248e-06
1.29656e-06
1.29232e-06
1.31885e-06
1.30888e-06
1.47285e-06
1.48702e-06
1.29098e-06
1.29906e-06
1.30685e-06
1.50383e-06
1.50961e-06
1.53724e-06
1.31758e-06
1.33343e-06
1.33688e-06
1.34174e-06
1.53428e-06
1.54822e-06
1.30965e-06
1.30645e-06
1.33226e-06
1.33591e-06
1.31558e-06
1.33574e-06
1.33253e-06
1.4961e-06
1.53845e-06
1.31384e-06
1.33492e-06
1.33284e-06
1.5364e-06
1.54267e-06
1.53613e-06
1.33916e-06
1.3401e-06
1.33071e-06
1.32035e-06
1.54932e-06
1.52198e-06
1.33719e-06
1.34277e-06
1.33608e-06
1.3423e-06
1.33426e-06
1.32062e-06
1.32633e-06
1.54692e-06
1.54718e-06
1.3355e-06
1.33883e-06
1.32903e-06
1.52951e-06
1.53545e-06
1.49937e-06
1.32288e-06
1.31293e-06
1.30062e-06
1.29507e-06
1.52041e-06
1.48987e-06
1.3283e-06
1.33302e-06
1.30545e-06
1.30552e-06
1.32115e-06
1.30056e-06
1.30733e-06
1.54639e-06
1.50414e-06
1.32331e-06
1.30622e-06
1.30773e-06
1.50455e-06
1.49882e-06
1.49382e-06
1.29585e-06
1.29336e-06
1.29844e-06
1.30303e-06
1.49047e-06
1.49834e-06
1.29955e-06
1.29815e-06
1.29637e-06
1.29224e-06
1.30469e-06
1.30616e-06
1.30547e-06
1.50266e-06
1.4898e-06
1.30426e-06
1.29685e-06
1.30338e-06
1.50354e-06
1.50005e-06
1.52966e-06
1.30609e-06
1.30949e-06
1.32756e-06
1.32875e-06
1.50527e-06
1.53337e-06
1.30234e-06
1.29714e-06
1.32395e-06
1.31911e-06
1.3089e-06
1.32743e-06
1.32119e-06
1.49479e-06
1.52087e-06
1.30687e-06
1.32138e-06
1.32031e-06
1.52252e-06
1.53747e-06
1.54491e-06
1.3332e-06
1.33299e-06
1.33631e-06
1.3334e-06
1.53959e-06
1.54213e-06
1.33015e-06
1.32572e-06
1.3368e-06
1.33545e-06
1.32557e-06
1.33265e-06
1.33372e-06
1.52883e-06
1.5421e-06
1.32523e-06
1.33437e-06
1.33477e-06
1.53981e-06
1.54574e-06
1.52871e-06
1.33262e-06
1.32962e-06
1.32037e-06
1.31907e-06
1.54298e-06
1.52708e-06
1.33477e-06
1.33513e-06
1.32287e-06
1.32778e-06
1.33439e-06
1.32153e-06
1.33096e-06
1.54388e-06
1.53624e-06
1.33555e-06
1.32797e-06
1.33214e-06
1.54088e-06
1.52912e-06
1.51902e-06
1.31716e-06
1.31613e-06
1.3121e-06
1.31048e-06
1.5276e-06
1.5166e-06
1.31988e-06
1.32575e-06
1.31458e-06
1.32041e-06
1.32759e-06
1.31317e-06
1.31603e-06
1.53726e-06
1.52872e-06
1.32876e-06
1.32049e-06
1.3166e-06
1.52482e-06
1.52037e-06
1.51736e-06
1.3117e-06
1.30944e-06
1.31094e-06
1.30791e-06
1.51768e-06
1.51234e-06
1.31407e-06
1.3188e-06
1.31212e-06
1.31289e-06
1.3122e-06
1.30792e-06
1.3053e-06
1.52972e-06
1.51878e-06
1.31244e-06
1.3104e-06
1.30401e-06
1.50786e-06
1.51873e-06
1.51781e-06
1.31071e-06
1.30816e-06
1.31158e-06
1.31378e-06
1.51419e-06
1.521e-06
1.31116e-06
1.31083e-06
1.30924e-06
1.30667e-06
1.30532e-06
1.31303e-06
1.31274e-06
1.51958e-06
1.51302e-06
1.3037e-06
1.30682e-06
1.31073e-06
1.51733e-06
1.52029e-06
1.52613e-06
1.313e-06
1.3162e-06
1.31664e-06
1.32044e-06
1.52564e-06
1.53465e-06
1.30931e-06
1.30644e-06
1.31317e-06
1.31036e-06
1.31544e-06
1.32032e-06
1.3199e-06
1.51522e-06
1.52082e-06
1.31375e-06
1.31365e-06
1.31976e-06
1.5337e-06
1.52934e-06
1.52976e-06
1.31702e-06
1.3202e-06
1.31382e-06
1.31152e-06
1.53665e-06
1.52629e-06
1.3147e-06
1.31272e-06
1.31621e-06
1.3186e-06
1.31934e-06
1.31052e-06
1.31033e-06
1.52462e-06
1.53175e-06
1.3198e-06
1.31709e-06
1.31246e-06
1.5258e-06
1.531e-06
1.52341e-06
1.31178e-06
1.30847e-06
1.3056e-06
1.30173e-06
1.5269e-06
1.51435e-06
1.31546e-06
1.31924e-06
1.30891e-06
1.31543e-06
1.30786e-06
1.30123e-06
1.30393e-06
1.53454e-06
1.53243e-06
1.30996e-06
1.3116e-06
1.30473e-06
1.51776e-06
1.52457e-06
1.51798e-06
1.30429e-06
1.30131e-06
1.30177e-06
1.30312e-06
1.51579e-06
1.5193e-06
1.3071e-06
1.31214e-06
1.29988e-06
1.29831e-06
1.30421e-06
1.3041e-06
1.30589e-06
1.53359e-06
1.51822e-06
1.30432e-06
1.29946e-06
1.30401e-06
1.52285e-06
1.51911e-06
1.50692e-06
1.30078e-06
1.30335e-06
1.29275e-06
1.297e-06
1.52228e-06
1.51586e-06
1.29752e-06
1.29328e-06
1.28765e-06
1.27791e-06
1.30566e-06
1.29704e-06
1.29273e-06
1.51818e-06
1.49147e-06
1.30318e-06
1.28126e-06
1.29017e-06
1.50976e-06
1.50748e-06
1.49414e-06
1.28954e-06
1.29214e-06
1.27948e-06
1.27865e-06
1.51625e-06
1.4953e-06
1.28453e-06
1.27477e-06
1.27719e-06
1.27272e-06
1.28731e-06
1.27748e-06
1.27421e-06
1.4916e-06
1.48483e-06
1.28541e-06
1.27401e-06
1.27444e-06
1.488e-06
1.49538e-06
1.50181e-06
1.2779e-06
1.27625e-06
1.28073e-06
1.27857e-06
1.49589e-06
1.4975e-06
1.27682e-06
1.27635e-06
1.28403e-06
1.29229e-06
1.2732e-06
1.27841e-06
1.28247e-06
1.4894e-06
1.51416e-06
1.27404e-06
1.29082e-06
1.28457e-06
1.50213e-06
1.50736e-06
1.52187e-06
1.28501e-06
1.28316e-06
1.29259e-06
1.2909e-06
1.50277e-06
1.51744e-06
1.2886e-06
1.29806e-06
1.29633e-06
1.30367e-06
1.28778e-06
1.29134e-06
1.29666e-06
1.52258e-06
1.53484e-06
1.28962e-06
1.30104e-06
1.2973e-06
1.52716e-06
1.52443e-06
1.50365e-06
1.29291e-06
1.29133e-06
1.27465e-06
1.27404e-06
1.5203e-06
1.50174e-06
1.29613e-06
1.301e-06
1.27446e-06
1.27276e-06
1.29654e-06
1.27418e-06
1.27412e-06
1.53577e-06
1.50144e-06
1.29664e-06
1.27187e-06
1.27294e-06
1.50337e-06
1.50264e-06
1.45167e-06
1.26989e-06
1.26959e-06
1.22856e-06
1.22961e-06
1.50107e-06
1.45381e-06
1.26915e-06
1.26659e-06
1.22596e-06
1.2229e-06
1.26858e-06
1.22851e-06
1.22317e-06
1.49928e-06
1.44507e-06
1.26749e-06
1.22411e-06
1.22292e-06
1.44577e-06
1.42919e-06
1.18942e-06
1.19068e-06
1.43158e-06
1.18721e-06
1.18455e-06
7.51384e-07
7.46366e-07
7.45775e-07
1.18343e-06
1.42359e-06
1.1836e-06
5.27025e-11
2.39204e-09
1.44913e-10
1.74857e-10
5.42414e-09
3.53235e-09
2.66239e-09
9.88951e-10
5.50572e-09
4.51148e-09
1.01793e-09
1.11966e-08
5.31787e-09
2.21118e-09
9.85167e-09
7.43919e-09
1.5098e-07
5.98785e-09
2.40182e-07
1.5317e-06
3.06057e-06
8.6779e-09
1.59533e-07
7.40057e-09
2.51862e-07
1.34496e-09
1.4679e-09
1.60174e-09
1.33168e-09
1.3288e-09
1.44675e-09
1.58806e-09
4.76468e-09
7.38038e-08
2.71203e-09
3.29167e-09
4.9949e-09
5.27809e-08
2.68419e-09
1.69716e-06
3.43492e-06
4.76417e-09
3.02525e-09
8.59847e-08
4.76531e-09
5.03276e-09
2.98825e-09
6.40484e-08
2.0988e-07
2.17957e-07
4.91525e-09
1.79657e-07
1.86783e-07
1.67625e-08
4.3786e-07
1.21142e-08
6.3481e-07
6.91527e-06
9.90346e-06
1.77819e-08
4.51601e-07
1.34315e-08
6.52659e-07
1.3122e-09
1.42678e-09
1.5697e-09
1.26577e-09