/*--------------------------------*- C++ -*----------------------------------*\
| =========                 |                                                 |
| \\      /  F ield         | OpenFOAM: The Open Source CFD Toolbox           |
|  \\    /   O peration     | Version:  v2012                                 |
|   \\  /    A nd           | Website:  www.openfoam.com                      |
|    \\/     M anipulation  |                                                 |
\*---------------------------------------------------------------------------*/
FoamFile
{
    version     2.0;
    format      ascii;
    class       volScalarField;
    location    "1537.5";
    object      k;
}
// * * * * * * * * * * * * * * * * * * * * * * * * * * * * * * * * * * * * * //

dimensions      [0 2 -2 0 0 0 0];


internalField   nonuniform List<scalar> 
171728
(
1.61169e-07
2.56392e-07
3.4103e-07
3.62554e-07
1.60221e-07
2.43938e-07
3.24561e-07
3.39951e-07
1.56245e-07
2.32198e-07
3.07122e-07
3.19921e-07
1.52495e-07
2.21783e-07
2.91347e-07
3.03353e-07
1.48853e-07
2.12097e-07
2.77134e-07
2.89568e-07
1.45289e-07
2.02849e-07
2.64686e-07
2.79433e-07
1.41571e-07
1.94517e-07
2.54348e-07
2.7223e-07
1.37724e-07
1.87571e-07
2.45938e-07
2.67792e-07
1.33991e-07
1.81606e-07
2.38247e-07
2.70097e-07
1.30326e-07
1.75949e-07
2.30993e-07
2.74171e-07
1.26841e-07
1.70322e-07
2.24386e-07
2.719e-07
1.23557e-07
1.65685e-07
2.1846e-07
2.47369e-07
1.2061e-07
1.62941e-07
2.13623e-07
2.37944e-07
1.1804e-07
1.62544e-07
2.11157e-07
2.39419e-07
1.1564e-07
1.648e-07
2.11029e-07
2.41981e-07
1.13384e-07
1.70896e-07
2.13989e-07
2.45821e-07
1.11245e-07
1.84677e-07
2.22087e-07
2.46198e-07
1.09072e-07
2.05023e-07
2.37981e-07
2.50495e-07
1.07315e-07
2.3077e-07
2.64412e-07
2.69927e-07
1.05685e-07
2.919e-07
3.1205e-07
3.51113e-07
1.04827e-07
3.69417e-07
3.89734e-07
4.72434e-07
1.04578e-07
4.81159e-07
5.01609e-07
6.57748e-07
1.03478e-07
6.31976e-07
6.65186e-07
1.06343e-06
1.00141e-07
9.09482e-07
9.03715e-07
1.70358e-06
9.98383e-08
1.21412e-06
1.225e-06
2.64301e-06
1.01129e-07
1.57282e-06
1.63307e-06
3.78926e-06
1.06478e-07
2.21929e-06
2.17982e-06
5.45844e-06
1.17961e-07
2.72743e-06
2.75458e-06
7.64691e-06
1.30444e-07
3.52518e-06
3.52218e-06
9.97318e-06
1.5186e-07
4.34971e-06
4.45955e-06
1.23875e-05
1.83769e-07
5.3582e-06
5.52195e-06
1.4951e-05
2.38971e-07
6.70041e-06
6.45829e-06
1.73343e-05
2.89717e-07
7.48606e-06
7.72456e-06
1.95295e-05
3.92875e-07
9.13365e-06
9.0983e-06
2.15678e-05
5.14765e-07
1.05596e-05
1.06255e-05
2.33607e-05
6.41731e-07
1.22587e-05
1.2095e-05
2.50587e-05
9.13558e-07
1.36862e-05
1.38079e-05
2.65865e-05
1.01552e-06
1.52661e-05
1.54224e-05
2.78713e-05
1.53119e-06
1.7467e-05
1.72658e-05
2.93448e-05
1.68575e-06
1.86059e-05
1.87481e-05
3.03445e-05
2.30211e-06
2.14013e-05
2.13034e-05
3.17343e-05
2.81298e-06
2.21558e-05
2.21114e-05
3.2764e-05
3.38515e-06
2.46092e-05
2.48598e-05
3.5412e-05
4.07265e-06
2.66097e-05
2.64664e-05
3.30281e-05
5.04429e-06
2.67773e-05
2.68262e-05
3.60173e-05
5.65571e-06
3.04311e-05
3.02524e-05
3.90397e-05
7.37426e-06
3.13676e-05
3.12653e-05
3.91509e-05
7.76238e-06
3.20297e-05
3.21294e-05
3.91933e-05
9.42165e-06
3.47049e-05
3.47429e-05
3.96395e-05
1.07082e-05
3.48473e-05
3.48977e-05
4.03471e-05
1.1463e-05
3.72121e-05
3.69795e-05
4.3089e-05
1.42063e-05
3.86255e-05
3.90245e-05
4.42858e-05
1.47606e-05
3.88151e-05
3.90402e-05
4.3865e-05
1.68494e-05
4.02821e-05
4.01819e-05
4.39258e-05
1.83489e-05
4.09776e-05
4.15973e-05
4.61093e-05
1.90117e-05
4.30017e-05
4.19438e-05
4.6465e-05
2.20316e-05
4.36598e-05
4.39761e-05
4.69707e-05
2.37945e-05
4.40169e-05
4.45231e-05
4.84196e-05
2.38489e-05
4.51149e-05
4.47382e-05
4.84628e-05
2.47866e-05
4.6513e-05
4.6637e-05
4.85176e-05
2.8267e-05
4.68852e-05
4.68577e-05
4.98862e-05
2.90005e-05
4.73847e-05
4.71383e-05
5.12677e-05
2.94936e-05
4.89519e-05
4.91106e-05
5.11979e-05
3.16544e-05
4.90954e-05
4.93717e-05
5.06594e-05
3.23063e-05
5.01137e-05
4.93623e-05
5.20783e-05
3.31648e-05
5.08364e-05
5.09827e-05
5.33016e-05
3.44442e-05
5.1085e-05
5.13804e-05
5.34374e-05
3.51015e-05
5.14427e-05
5.13386e-05
5.35272e-05
3.69304e-05
5.27484e-05
5.30389e-05
5.43062e-05
3.81405e-05
5.2707e-05
5.31884e-05
5.46896e-05
3.77953e-05
5.23541e-05
5.18771e-05
5.3774e-05
3.85608e-05
5.50998e-05
5.4059e-05
5.58819e-05
4.13884e-05
5.50727e-05
5.61035e-05
5.69531e-05
4.12842e-05
5.30805e-05
5.44901e-05
5.53185e-05
4.04019e-05
5.33795e-05
5.28146e-05
5.4545e-05
4.11473e-05
5.65993e-05
5.45528e-05
5.7067e-05
4.45041e-05
5.74578e-05
5.78283e-05
5.85773e-05
4.51364e-05
5.57227e-05
5.75282e-05
5.72048e-05
4.33036e-05
5.43649e-05
5.459e-05
5.59719e-05
4.27754e-05
5.54813e-05
5.4579e-05
5.65101e-05
4.51139e-05
5.75393e-05
5.71106e-05
5.7831e-05
4.65233e-05
5.76196e-05
5.75869e-05
5.87135e-05
4.61216e-05
5.69295e-05
5.74018e-05
5.90062e-05
4.56413e-05
5.64014e-05
5.6992e-05
5.73286e-05
4.55372e-05
5.60869e-05
5.62868e-05
5.66078e-05
4.60056e-05
5.73299e-05
5.64102e-05
5.83527e-05
4.69464e-05
5.79052e-05
5.74444e-05
5.89497e-05
4.72231e-05
5.70036e-05
5.77242e-05
5.78957e-05
4.70541e-05
5.67092e-05
5.78009e-05
5.80277e-05
4.68958e-05
5.76353e-05
5.70657e-05
5.89535e-05
4.64759e-05
5.70942e-05
5.55653e-05
5.73992e-05
4.59085e-05
5.57479e-05
5.54262e-05
5.62408e-05
4.67029e-05
5.67891e-05
5.80871e-05
5.86511e-05
4.81239e-05
5.80174e-05
5.87642e-05
5.9911e-05
4.71417e-05
5.55175e-05
5.50533e-05
5.72418e-05
3.63767e-07
3.12591e-07
3.22488e-07
3.52129e-07
2.95423e-07
3.2644e-07
1.58607e-07
1.49647e-07
1.57179e-07
1.69949e-07
2.88166e-07
2.95706e-07
3.52644e-07
3.40301e-07
3.36706e-07
3.63712e-07
3.62746e-07
3.41571e-07
2.71092e-07
3.17222e-07
2.66016e-07
3.05364e-07
3.51067e-07
3.31115e-07
2.62058e-07
4.34126e-07
2.53327e-07
4.11769e-07
2.70003e-07
2.47111e-07
2.62982e-07
3.50964e-07
3.38935e-07
3.36975e-07
3.29124e-07
3.25624e-07
3.41281e-07
3.40294e-07
3.20294e-07
2.64061e-07
3.00893e-07
2.57878e-07
2.88558e-07
3.29848e-07
3.10966e-07
2.50172e-07
3.94865e-07
2.41007e-07
3.27493e-07
2.60632e-07
2.34981e-07
2.54074e-07
3.37086e-07
3.20976e-07
3.21981e-07
3.11326e-07
3.12636e-07
3.21093e-07
3.192e-07
3.01536e-07
2.55753e-07
2.84763e-07
2.49841e-07
2.73956e-07
3.09811e-07
2.93121e-07
2.38024e-07
3.07942e-07
2.29627e-07
2.69358e-07
2.51975e-07
2.24301e-07
2.46458e-07
3.19576e-07
3.0242e-07
3.10122e-07
2.95183e-07
3.01444e-07
3.04359e-07
3.00589e-07
2.85141e-07
2.47927e-07
2.70517e-07
2.42569e-07
2.60494e-07
2.92092e-07
2.77127e-07
2.27007e-07
2.62119e-07
2.19537e-07
2.4989e-07
2.4475e-07
2.14461e-07
2.39947e-07
3.013e-07
2.88323e-07
2.98551e-07
2.80527e-07
2.93066e-07
2.90402e-07
2.84325e-07
2.70933e-07
2.40794e-07
2.57435e-07
2.35325e-07
2.49622e-07
2.76217e-07
2.62876e-07
2.17262e-07
2.47648e-07
2.10478e-07
2.41877e-07
2.38514e-07
2.05099e-07
2.34612e-07
2.87563e-07
2.75737e-07
2.92433e-07
2.67567e-07
2.92386e-07
2.80231e-07
2.70216e-07
2.58242e-07
2.33767e-07
2.47458e-07
2.29142e-07
2.41745e-07
2.62099e-07
2.50159e-07
2.0826e-07
2.39955e-07
2.01966e-07
2.33642e-07
2.33392e-07
1.96467e-07
2.29908e-07
2.74918e-07
2.63686e-07
2.93302e-07
2.5679e-07
3.01889e-07
2.73058e-07
2.57632e-07
2.46795e-07
2.27658e-07
2.39888e-07
2.22951e-07
2.33787e-07
2.49528e-07
2.39199e-07
2.00033e-07
2.31392e-07
1.94409e-07
2.24093e-07
2.28787e-07
1.8922e-07
2.25645e-07
2.62934e-07
2.52317e-07
3.05089e-07
2.47898e-07
3.16829e-07
2.68039e-07
2.46344e-07
2.36955e-07
2.21755e-07
2.31564e-07
2.1904e-07
2.24904e-07
2.38699e-07
2.29352e-07
1.9265e-07
2.21513e-07
1.87715e-07
2.13763e-07
2.24636e-07
1.82999e-07
2.21611e-07
2.51644e-07
2.41703e-07
3.23021e-07
2.4013e-07
3.50472e-07
2.69874e-07
2.36637e-07
2.27915e-07
2.18282e-07
2.22857e-07
2.16134e-07
2.17925e-07
2.28936e-07
2.20338e-07
1.86111e-07
2.11226e-07
1.81975e-07
2.04779e-07
2.20532e-07
1.7736e-07
2.16602e-07
2.41091e-07
2.32e-07
3.63027e-07
2.32781e-07
4.02824e-07
2.74245e-07
2.27639e-07
2.19381e-07
2.1542e-07
2.16767e-07
2.13359e-07
2.13618e-07
2.19999e-07
2.11939e-07
1.80775e-07
2.03068e-07
1.77439e-07
1.98647e-07
2.15075e-07
1.71711e-07
2.10208e-07
2.31509e-07
2.23551e-07
4.13773e-07
2.2597e-07
4.30105e-07
2.72691e-07
2.19161e-07
2.11832e-07
2.1274e-07
2.12459e-07
2.11686e-07
2.08409e-07
2.1166e-07
2.04183e-07
1.76447e-07
1.97421e-07
1.7351e-07
1.94152e-07
2.08542e-07
1.66703e-07
2.02968e-07
2.23184e-07
2.16092e-07
4.30438e-07
2.19875e-07
4.02301e-07
2.49412e-07
2.11684e-07
2.05005e-07
2.11263e-07
2.07013e-07
2.10426e-07
2.03171e-07
2.04015e-07
1.97257e-07
1.72586e-07
1.93092e-07
1.7011e-07
1.89891e-07
2.01241e-07
1.6351e-07
1.97873e-07
2.15833e-07
2.09293e-07
3.83891e-07
2.14659e-07
3.5221e-07
2.37634e-07
2.05012e-07
1.9983e-07
2.10036e-07
2.01947e-07
2.10183e-07
1.9865e-07
1.97269e-07
1.91927e-07
1.69401e-07
1.88827e-07
1.67856e-07
1.85897e-07
1.97173e-07
1.62383e-07
1.96215e-07
2.09188e-07
2.03681e-07
3.4826e-07
2.11578e-07
3.46102e-07
2.38566e-07
2.00083e-07
1.97515e-07
2.10509e-07
1.97921e-07
2.13358e-07
1.94928e-07
1.92193e-07
1.88672e-07
1.67488e-07
1.85255e-07
1.67601e-07
1.85467e-07
1.96377e-07
1.64224e-07
1.97606e-07
2.03834e-07
2.00653e-07
3.46762e-07
2.1086e-07
3.57931e-07
2.41031e-07
1.98351e-07
1.99064e-07
2.14724e-07
1.9339e-07
2.20734e-07
1.92472e-07
1.89278e-07
1.89088e-07
1.67916e-07
1.86086e-07
1.70544e-07
1.89759e-07
1.97767e-07
1.69325e-07
1.99162e-07
2.01311e-07
2.01459e-07
3.61532e-07
2.12865e-07
3.73225e-07
2.44301e-07
2.00895e-07
2.0602e-07
2.23663e-07
1.92586e-07
2.35794e-07
1.9428e-07
1.90721e-07
1.94336e-07
1.7202e-07
1.91269e-07
1.78397e-07
1.97254e-07
1.99875e-07
1.80245e-07
2.04928e-07
2.02973e-07
2.06996e-07
3.7471e-07
2.19469e-07
3.71715e-07
2.44776e-07
2.0969e-07
2.21988e-07
2.40832e-07
1.97024e-07
2.59784e-07
2.03849e-07
1.98784e-07
2.08343e-07
1.80765e-07
1.99455e-07
1.92235e-07
2.09971e-07
2.08229e-07
1.96037e-07
2.15877e-07
2.10334e-07
2.20527e-07
3.64267e-07
2.33229e-07
3.32083e-07
2.45159e-07
2.29124e-07
2.5417e-07
2.68123e-07
2.10471e-07
2.96577e-07
2.271e-07
2.1532e-07
2.37709e-07
1.97695e-07
2.14761e-07
2.16859e-07
2.34814e-07
2.23654e-07
2.24093e-07
2.43623e-07
2.26391e-07
2.49462e-07
3.24528e-07
2.55858e-07
3.19845e-07
2.64125e-07
2.66489e-07
3.16292e-07
3.10051e-07
2.31761e-07
3.52958e-07
2.78533e-07
2.46115e-07
3.17186e-07
2.25642e-07
2.43236e-07
2.58634e-07
2.78253e-07
2.50683e-07
2.82252e-07
2.93493e-07
2.61464e-07
3.09665e-07
3.20774e-07
2.99489e-07
3.60436e-07
3.2833e-07
3.35935e-07
4.35728e-07
3.69539e-07
2.86735e-07
4.39684e-07
3.27373e-07
3.36126e-07
3.84907e-07
2.71706e-07
2.89796e-07
3.28643e-07
3.44392e-07
3.03795e-07
3.37453e-07
3.66419e-07
3.29612e-07
4.17627e-07
3.75581e-07
3.69074e-07
4.06363e-07
4.28373e-07
4.73072e-07
6.23599e-07
4.63288e-07
3.59523e-07
5.56055e-07
4.39242e-07
4.38005e-07
6.4578e-07
3.50333e-07
3.63063e-07
4.25178e-07
4.41811e-07
3.92141e-07
4.52863e-07
4.62187e-07
4.56615e-07
6.07957e-07
4.23368e-07
4.66833e-07
4.5773e-07
6.0533e-07
6.85392e-07
9.99826e-07
5.94322e-07
4.66851e-07
7.20478e-07
5.7607e-07
6.81934e-07
9.19002e-07
4.61239e-07
4.72031e-07
5.82354e-07
5.93165e-07
5.08945e-07
5.95958e-07
6.20272e-07
6.71046e-07
9.66659e-07
4.92888e-07
6.19498e-07
5.97498e-07
1.00197e-06
1.08991e-06
1.53776e-06
7.6971e-07
6.14028e-07
9.12788e-07
8.20209e-07
1.00758e-06
1.54375e-06
6.31264e-07
6.3451e-07
7.86759e-07
8.12999e-07
6.69311e-07
8.37441e-07
8.46054e-07
1.06446e-06
1.50888e-06
6.33241e-07
8.41145e-07
8.21675e-07
1.5385e-06
1.66637e-06
2.40954e-06
9.75235e-07
8.88347e-07
1.20355e-06
1.1231e-06
1.75997e-06
2.41902e-06
8.4569e-07
8.6795e-07
1.09371e-06
1.11085e-06
8.95945e-07
1.13336e-06
1.18044e-06
1.65555e-06
2.37139e-06
8.83796e-07
1.12738e-06
1.12354e-06
2.38114e-06
2.65484e-06
3.62494e-06
1.28115e-06
1.20336e-06
1.5714e-06
1.46186e-06
2.58979e-06
3.4428e-06
1.18663e-06
1.2155e-06
1.49248e-06
1.48931e-06
1.29352e-06
1.46216e-06
1.5006e-06
2.58889e-06
3.58931e-06
1.23299e-06
1.5295e-06
1.48447e-06
3.64501e-06
3.85198e-06
4.9588e-06
1.66095e-06
1.58793e-06
1.97118e-06
2.08827e-06
3.71102e-06
5.42881e-06
1.58176e-06
1.62058e-06
1.92765e-06
1.98232e-06
1.58573e-06
2.09072e-06
2.00246e-06
3.85359e-06
5.18275e-06
1.57252e-06
2.02241e-06
1.97313e-06
5.00208e-06
5.32793e-06
7.36104e-06
2.12692e-06
2.20528e-06
2.64888e-06
2.54714e-06
5.85429e-06
7.07149e-06
2.08642e-06
2.1333e-06
2.59291e-06
2.53549e-06
2.14845e-06
2.49874e-06
2.63657e-06
5.50736e-06
7.13887e-06
2.1211e-06
2.54889e-06
2.58527e-06
7.26306e-06
7.81295e-06
9.39142e-06
2.82913e-06
2.77881e-06
3.33347e-06
3.40562e-06
7.3552e-06
9.64796e-06
2.76736e-06
2.75822e-06
3.26822e-06
3.60466e-06
2.82184e-06
3.34302e-06
3.35782e-06
7.59621e-06
9.48654e-06
2.75672e-06
3.42739e-06
3.31004e-06
9.50715e-06
9.82172e-06
1.18515e-05
3.51363e-06
3.5651e-06
4.161e-06
4.30289e-06
1.03308e-05
1.17099e-05
3.44401e-06
3.72976e-06
4.12571e-06
4.17469e-06
3.54772e-06
4.15781e-06
4.15056e-06
9.95975e-06
1.17049e-05
3.51226e-06
4.03018e-06
4.14485e-06
1.18909e-05
1.2362e-05
1.4375e-05
4.37941e-06
4.54402e-06
5.08106e-06
5.15676e-06
1.20452e-05
1.46403e-05
4.37064e-06
4.66167e-06
5.06299e-06
6.11042e-06
4.37087e-06
5.02402e-06
5.13722e-06
1.21962e-05
1.5496e-05
4.36068e-06
5.43614e-06
5.12727e-06
1.4448e-05
1.48766e-05
1.6892e-05
5.33526e-06
5.46799e-06
6.33232e-06
6.82641e-06
1.51347e-05
1.72619e-05
5.33982e-06
6.31656e-06
6.26248e-06
6.42812e-06
5.41431e-06
6.44272e-06
6.23411e-06
1.59422e-05
1.63359e-05
5.39471e-06
6.01009e-06
6.21242e-06
1.68432e-05
1.73896e-05
1.89909e-05
6.63813e-06
7.14324e-06
7.29775e-06
7.44241e-06
1.7902e-05
1.88617e-05
6.51513e-06
6.46625e-06
7.28491e-06
7.40534e-06
6.48106e-06
7.20881e-06
7.51268e-06
1.65961e-05
1.91049e-05
6.46485e-06
7.50261e-06
7.50421e-06
1.90602e-05
1.94155e-05
2.1089e-05
7.64814e-06
7.55826e-06
8.86177e-06
8.75103e-06
1.91002e-05
2.10057e-05
7.63024e-06
7.83376e-06
8.84932e-06
9.25161e-06
7.85561e-06
8.75665e-06
8.67596e-06
1.96668e-05
2.1114e-05
7.83612e-06
8.6564e-06
8.69717e-06
2.11358e-05
2.15801e-05
2.29362e-05
9.12563e-06
9.21049e-06
1.01736e-05
1.04145e-05
2.1588e-05
2.30325e-05
9.1677e-06
9.71853e-06
1.01291e-05
1.06265e-05
9.06922e-06
1.01938e-05
1.03413e-05
2.1565e-05
2.30867e-05
9.09056e-06
1.03345e-05
1.0277e-05
2.2955e-05
2.33169e-05
2.47262e-05
1.06484e-05
1.07697e-05
1.17599e-05
1.19968e-05
2.34427e-05
2.48152e-05
1.05646e-05
1.07974e-05
1.17236e-05
1.16381e-05
1.06422e-05
1.17705e-05
1.1616e-05
2.34527e-05
2.45465e-05
1.05798e-05
1.15913e-05
1.16305e-05
2.46593e-05
2.512e-05
2.62577e-05
1.20738e-05
1.24358e-05
1.36222e-05
1.34445e-05
2.51963e-05
2.61563e-05
1.20367e-05
1.21567e-05
1.35844e-05
1.36032e-05
1.21329e-05
1.34792e-05
1.36521e-05
2.49521e-05
2.62365e-05
1.21255e-05
1.35498e-05
1.36064e-05
2.62851e-05
2.66029e-05
2.74334e-05
1.406e-05
1.36516e-05
1.46408e-05
1.47527e-05
2.64336e-05
2.7375e-05
1.40453e-05
1.37809e-05
1.46063e-05
1.47805e-05
1.39278e-05
1.46458e-05
1.46784e-05
2.65372e-05
2.74677e-05
1.39279e-05
1.47419e-05
1.46206e-05
2.74792e-05
2.7741e-05
2.9108e-05
1.50545e-05
1.5361e-05
1.72638e-05
1.71178e-05
2.77897e-05
2.90824e-05
1.49912e-05
1.54958e-05
1.7187e-05
1.70934e-05
1.53195e-05
1.71166e-05
1.74258e-05
2.78631e-05
2.90115e-05
1.52029e-05
1.70621e-05
1.73155e-05
2.91208e-05
2.94366e-05
3.00027e-05
1.76936e-05
1.74393e-05
1.81799e-05
1.82179e-05
2.9332e-05
2.99755e-05
1.76222e-05
1.72559e-05
1.82387e-05
1.82678e-05
1.77104e-05
1.81706e-05
1.80376e-05
2.92442e-05
2.99752e-05
1.76354e-05
1.81727e-05
1.80379e-05
2.99459e-05
3.02633e-05
3.16037e-05
1.86567e-05
1.87453e-05
2.07068e-05
2.08296e-05
3.02946e-05
3.16791e-05
1.87459e-05
1.8952e-05
2.04959e-05
2.07169e-05
1.83855e-05
2.07752e-05
2.10472e-05
3.03427e-05
3.16241e-05
1.84575e-05
2.08371e-05
2.08912e-05
3.15977e-05
3.19287e-05
3.25746e-05
2.11816e-05
2.13226e-05
2.23963e-05
2.21161e-05
3.196e-05
3.23776e-05
2.10197e-05
2.11124e-05
2.22764e-05
2.20647e-05
2.14823e-05
2.20313e-05
2.19502e-05
3.18576e-05
3.23372e-05
2.12158e-05
2.18583e-05
2.16698e-05
3.21568e-05
3.27868e-05
3.35825e-05
2.27154e-05
2.23533e-05
2.3875e-05
2.37571e-05
3.25589e-05
3.36813e-05
2.25576e-05
2.2337e-05
2.3948e-05
2.39827e-05
2.24331e-05
2.37192e-05
2.5391e-05
3.25652e-05
3.38194e-05
2.23059e-05
2.39669e-05
2.54678e-05
3.53752e-05
3.38761e-05
3.48683e-05
2.43237e-05
2.45589e-05
2.57442e-05
2.63199e-05
3.41119e-05
3.50446e-05
2.44437e-05
2.4836e-05
2.57149e-05
2.62822e-05
2.5679e-05
2.64806e-05
2.54598e-05
3.42268e-05
3.4982e-05
2.56948e-05
2.64066e-05
2.53791e-05
3.30724e-05
3.51466e-05
3.59035e-05
2.62789e-05
2.64555e-05
2.76401e-05
2.66907e-05
3.51343e-05
3.52606e-05
2.63217e-05
2.6345e-05
2.75163e-05
2.66856e-05
2.52646e-05
2.66382e-05
2.54536e-05
3.505e-05
3.52076e-05
2.517e-05
2.65209e-05
2.53757e-05
3.49947e-05
3.60876e-05
3.69395e-05
2.79161e-05
2.7098e-05
2.89885e-05
2.97626e-05
3.55368e-05
3.75609e-05
2.77166e-05
2.7473e-05
2.89994e-05
2.93552e-05
2.63172e-05
2.95853e-05
3.0861e-05
3.55764e-05
3.74927e-05
2.62942e-05
2.95496e-05
3.09586e-05
3.89242e-05
3.72806e-05
3.84313e-05
2.96745e-05
3.04324e-05
3.14102e-05
3.10532e-05
3.78962e-05
3.81273e-05
2.96319e-05
2.9821e-05
3.13597e-05
3.12518e-05
3.15301e-05
3.13567e-05
3.24603e-05
3.77315e-05
3.81956e-05
3.16373e-05
3.12272e-05
3.2599e-05
3.90444e-05
3.85694e-05
3.87436e-05
3.15805e-05
3.10604e-05
3.17912e-05
3.16233e-05
3.81548e-05
3.87181e-05
3.1659e-05
3.15458e-05
3.19365e-05
3.19436e-05
3.25691e-05
3.15233e-05
3.25582e-05
3.83197e-05
3.8701e-05
3.27189e-05
3.15663e-05
3.26996e-05
3.91761e-05
3.89053e-05
4.03985e-05
3.20797e-05
3.2551e-05
3.42726e-05
3.45038e-05
3.91634e-05
4.05438e-05
3.21309e-05
3.22417e-05
3.41048e-05
3.41409e-05
3.25222e-05
3.43989e-05
3.32242e-05
3.89568e-05
4.04393e-05
3.26529e-05
3.43685e-05
3.31707e-05
3.94346e-05
4.07009e-05
4.08944e-05
3.47698e-05
3.47045e-05
3.51197e-05
3.47363e-05
4.06412e-05
4.05061e-05
3.46344e-05
3.46588e-05
3.50563e-05
3.50742e-05
3.38164e-05
3.4831e-05
3.43552e-05
4.06667e-05
4.07094e-05
3.34199e-05
3.48997e-05
3.37303e-05
4.00754e-05
4.09318e-05
4.21348e-05
3.51436e-05
3.47541e-05
3.63483e-05
3.64466e-05
4.05715e-05
4.22718e-05
3.51114e-05
3.51031e-05
3.64916e-05
3.62019e-05
3.46245e-05
3.63549e-05
3.67551e-05
4.07412e-05
4.20295e-05
3.41102e-05
3.5989e-05
3.69226e-05
4.25993e-05
4.25546e-05
4.31412e-05
3.71297e-05
3.72891e-05
3.81952e-05
3.84948e-05
4.27373e-05
4.34352e-05
3.71983e-05
3.69881e-05
3.81727e-05
3.8623e-05
3.74903e-05
3.85398e-05
3.89767e-05
4.25353e-05
4.36398e-05
3.78032e-05
3.88398e-05
3.94621e-05
4.42094e-05
4.31733e-05
4.37529e-05
3.82568e-05
3.85538e-05
3.87958e-05
3.8637e-05
4.34643e-05
4.34539e-05
3.82226e-05
3.87844e-05
3.86909e-05
3.88072e-05
3.91577e-05
3.86872e-05
3.91697e-05
4.36958e-05
4.34381e-05
3.9661e-05
3.90493e-05
3.96938e-05
4.38834e-05
4.41266e-05
4.4959e-05
3.93261e-05
3.88376e-05
4.04586e-05
4.04159e-05
4.36735e-05
4.47845e-05
3.92295e-05
3.88177e-05
4.05093e-05
4.00068e-05
3.90634e-05
4.00607e-05
3.90348e-05
4.34728e-05
4.46158e-05
3.95624e-05
3.95422e-05
3.92384e-05
4.36946e-05
4.49913e-05
4.47902e-05
4.05584e-05
4.06075e-05
4.06047e-05
4.06631e-05
4.48799e-05
4.49336e-05
4.06792e-05
4.0642e-05
4.07802e-05
4.15039e-05
3.93021e-05
4.06814e-05
4.14413e-05
4.49993e-05
4.56695e-05
3.92739e-05
4.14549e-05
4.1167e-05
4.57839e-05
4.48903e-05
4.6405e-05
4.06732e-05
4.0693e-05
4.22772e-05
4.21546e-05
4.50495e-05
4.65585e-05
4.08214e-05
4.15463e-05
4.19002e-05
4.16313e-05
4.19098e-05
4.25074e-05
4.24138e-05
4.57074e-05
4.57446e-05
4.18498e-05
4.17568e-05
4.2564e-05
4.64523e-05
4.67983e-05
4.78375e-05
4.29246e-05
4.28413e-05
4.41406e-05
4.39205e-05
4.69156e-05
4.73924e-05
4.24882e-05
4.1814e-05
4.39598e-05
4.3539e-05
4.24406e-05
4.36436e-05
4.2879e-05
4.59513e-05
4.74241e-05
4.25769e-05
4.35419e-05
4.27877e-05
4.66474e-05
4.79256e-05
4.75416e-05
4.42723e-05
4.40093e-05
4.42694e-05
4.41918e-05
4.7409e-05
4.73955e-05
4.42455e-05
4.39645e-05
4.44291e-05
4.45112e-05
4.3323e-05
4.37551e-05
4.45428e-05
4.76451e-05
4.78103e-05
4.33011e-05
4.45131e-05
4.48472e-05
4.82689e-05
4.75065e-05
4.73042e-05
4.41615e-05
4.422e-05
4.39902e-05
4.42964e-05
4.75439e-05
4.80509e-05
4.43975e-05
4.45394e-05
4.43192e-05
4.46774e-05
4.48188e-05
4.48435e-05
4.52322e-05
4.78249e-05
4.80266e-05
4.50252e-05
4.45627e-05
4.50703e-05
4.84535e-05
4.75454e-05
4.95422e-05
4.40511e-05
4.44466e-05
4.59268e-05
4.60116e-05
4.82041e-05
4.93786e-05
4.43967e-05
4.49406e-05
4.60861e-05
4.63309e-05
4.52663e-05
4.61888e-05
4.53563e-05
4.83025e-05
4.96285e-05
4.50462e-05
4.62979e-05
4.52519e-05
4.84137e-05
4.98378e-05
5.01349e-05
4.65609e-05
4.65557e-05
4.75176e-05
4.74356e-05
4.96287e-05
4.99342e-05
4.66002e-05
4.66629e-05
4.72692e-05
4.69738e-05
4.54953e-05
4.68849e-05
4.67359e-05
4.97587e-05
4.95995e-05
4.55033e-05
4.68784e-05
4.64647e-05
4.95446e-05
5.01438e-05
5.00582e-05
4.75998e-05
4.74871e-05
4.76339e-05
4.74796e-05
4.99424e-05
4.9918e-05
4.72915e-05
4.69681e-05
4.72762e-05
4.69574e-05
4.72073e-05
4.7014e-05
4.81129e-05
4.95921e-05
4.9686e-05
4.69152e-05
4.68927e-05
4.82564e-05
5.11207e-05
5.01653e-05
5.11677e-05
4.76497e-05
4.74925e-05
4.83332e-05
4.83234e-05
5.01059e-05
5.12023e-05
4.72982e-05
4.70551e-05
4.83253e-05
4.85283e-05
4.82829e-05
4.87275e-05
4.85354e-05
4.99521e-05
5.14406e-05
4.85607e-05
4.87888e-05
4.88702e-05
5.12215e-05
5.13724e-05
5.16619e-05
4.86897e-05
4.87118e-05
4.91934e-05
4.9131e-05
5.1362e-05
5.1408e-05
4.87712e-05
4.89694e-05
4.95289e-05
4.9614e-05
4.85333e-05
4.90876e-05
4.84552e-05
5.16268e-05
5.1725e-05
4.88625e-05
4.93836e-05
4.85685e-05
5.06477e-05
5.1698e-05
5.20023e-05
4.92267e-05
4.91566e-05
4.94843e-05
4.96261e-05
5.14307e-05
5.21975e-05
4.96094e-05
4.96538e-05
4.97394e-05
4.96902e-05
4.84718e-05
4.96792e-05
4.95613e-05
5.17303e-05
5.17742e-05
4.85027e-05
4.93065e-05
4.86664e-05
5.1705e-05
5.21742e-05
5.26312e-05
4.97909e-05
5.00087e-05
5.06252e-05
5.07825e-05
5.24632e-05
5.2901e-05
4.98673e-05
4.97567e-05
5.03605e-05
5.05988e-05
5.00606e-05
5.07832e-05
5.10086e-05
5.19388e-05
5.29632e-05
4.91691e-05
5.06155e-05
5.08626e-05
5.31904e-05
5.2677e-05
5.2663e-05
5.08022e-05
5.09418e-05
5.09937e-05
5.11844e-05
5.29331e-05
5.30172e-05
5.0459e-05
5.0817e-05
5.05409e-05
5.09192e-05
5.11498e-05
5.10173e-05
5.12831e-05
5.30901e-05
5.29597e-05
5.1208e-05
5.13839e-05
5.17412e-05
5.34178e-05
5.27e-05
5.33201e-05
5.09957e-05
5.11823e-05
5.11162e-05
5.11067e-05
5.30713e-05
5.31201e-05
5.05712e-05
5.08503e-05
5.11918e-05
5.08178e-05
5.1287e-05
5.12464e-05
5.13861e-05
5.29374e-05
5.2911e-05
5.17767e-05
5.13059e-05
5.16906e-05
5.3472e-05
5.36067e-05
5.49111e-05
5.14305e-05
5.11482e-05
5.27772e-05
5.23785e-05
5.31949e-05
5.43904e-05
5.16462e-05
5.10477e-05
5.30847e-05
5.31514e-05
5.15669e-05
5.24914e-05
5.23521e-05
5.31484e-05
5.50445e-05
5.16537e-05
5.25979e-05
5.19172e-05
5.40838e-05
5.50561e-05
5.46592e-05
5.2999e-05
5.26699e-05
5.30054e-05
5.27382e-05
5.4572e-05
5.42511e-05
5.33796e-05
5.3579e-05
5.34701e-05
5.37339e-05
5.26457e-05
5.28535e-05
5.30036e-05
5.53116e-05
5.50892e-05
5.2378e-05
5.33164e-05
5.29846e-05
5.47076e-05
5.44823e-05
5.33873e-05
5.27604e-05
5.25338e-05
5.21826e-05
5.23018e-05
5.40846e-05
5.36332e-05
5.32433e-05
5.34506e-05
5.19517e-05
5.15997e-05
5.29854e-05
5.22804e-05
5.24481e-05
5.48443e-05
5.28094e-05
5.29748e-05
5.19759e-05
5.24385e-05
5.37864e-05
5.34167e-05
5.57875e-05
5.22202e-05
5.25195e-05
5.41089e-05
5.51246e-05
5.39802e-05
5.70891e-05
5.1889e-05
5.14548e-05
5.30705e-05
5.25742e-05
5.23979e-05
5.45224e-05
5.32892e-05
5.2769e-05
5.51609e-05
5.23692e-05
5.28742e-05
5.31687e-05
5.53829e-05
5.62776e-05
5.70894e-05
5.47805e-05
5.55394e-05
5.53659e-05
5.53996e-05
5.73615e-05
5.64311e-05
5.41835e-05
5.4014e-05
5.56722e-05
5.63862e-05
5.41347e-05
5.53438e-05
5.52917e-05
5.59154e-05
5.81142e-05
5.40758e-05
5.6025e-05
5.53927e-05
5.69608e-05
5.70006e-05
5.52881e-05
5.52947e-05
5.46909e-05
5.39321e-05
5.26598e-05
5.60171e-05
5.36919e-05
5.56856e-05
5.64838e-05
5.47737e-05
5.54786e-05
5.53051e-05
5.33903e-05
5.45764e-05
5.81452e-05
5.60565e-05
5.54163e-05
5.52251e-05
5.46962e-05
5.55197e-05
5.5105e-05
5.44704e-05
5.35458e-05
5.2407e-05
5.31217e-05
5.2661e-05
5.3586e-05
5.45287e-05
5.42686e-05
5.45972e-05
5.33402e-05
5.27844e-05
5.41495e-05
5.30116e-05
5.34505e-05
5.56459e-05
5.36745e-05
5.42382e-05
5.29627e-05
5.34139e-05
5.45121e-05
5.45205e-05
5.63102e-05
5.3174e-05
5.35694e-05
5.50022e-05
5.63988e-05
5.51486e-05
5.81081e-05
5.32809e-05
5.25892e-05
5.39853e-05
5.31191e-05
5.3448e-05
5.59597e-05
5.4795e-05
5.36117e-05
5.52488e-05
5.33915e-05
5.34162e-05
5.44912e-05
5.65788e-05
5.68001e-05
5.87101e-05
5.57396e-05
5.70678e-05
5.74749e-05
5.79529e-05
5.84817e-05
5.9173e-05
5.49149e-05
5.4311e-05
5.71116e-05
5.74239e-05
5.5598e-05
5.74604e-05
5.70899e-05
5.59747e-05
5.91057e-05
5.53822e-05
5.73461e-05
5.71167e-05
5.85316e-05
5.88854e-05
5.82097e-05
5.76965e-05
5.79379e-05
5.73949e-05
5.63236e-05
5.9096e-05
5.68121e-05
5.75065e-05
5.80028e-05
5.76104e-05
5.82402e-05
5.72024e-05
5.63162e-05
5.67882e-05
5.94118e-05
5.9054e-05
5.72868e-05
5.79534e-05
5.70409e-05
5.74692e-05
5.78197e-05
5.53486e-05
5.6611e-05
5.55642e-05
5.44919e-05
5.40698e-05
5.64757e-05
5.49912e-05
5.7269e-05
5.78698e-05
5.49728e-05
5.50685e-05
5.62337e-05
5.44935e-05
5.51017e-05
5.85979e-05
5.55578e-05
5.64932e-05
5.50627e-05
5.51768e-05
5.60048e-05
5.51728e-05
5.56114e-05
5.41663e-05
5.39362e-05
5.42423e-05
5.45155e-05
5.49605e-05
5.62873e-05
5.45004e-05
5.44745e-05
5.42614e-05
5.40691e-05
5.4949e-05
5.47364e-05
5.49785e-05
5.5317e-05
5.53195e-05
5.49599e-05
5.43435e-05
5.48777e-05
5.63021e-05
5.61242e-05
5.86037e-05
5.48885e-05
5.54297e-05
5.72764e-05
5.74249e-05
5.67963e-05
5.87211e-05
5.45148e-05
5.42402e-05
5.69403e-05
5.65167e-05
5.5262e-05
5.72465e-05
5.64885e-05
5.5717e-05
5.80413e-05
5.50459e-05
5.66609e-05
5.64301e-05
5.76188e-05
5.88414e-05
5.89067e-05
5.77037e-05
5.77403e-05
5.79711e-05
5.7885e-05
5.88774e-05
5.87181e-05
5.74649e-05
5.70765e-05
5.78894e-05
5.77093e-05
5.68312e-05
5.76963e-05
5.75387e-05
5.82974e-05
5.86468e-05
5.68087e-05
5.75846e-05
5.7554e-05
5.85735e-05
5.87931e-05
5.77603e-05
5.78769e-05
5.77584e-05
5.69021e-05
5.68791e-05
5.86148e-05
5.77782e-05
5.78514e-05
5.77137e-05
5.70856e-05
5.73985e-05
5.76922e-05
5.70542e-05
5.78215e-05
5.86358e-05
5.82978e-05
5.77197e-05
5.74303e-05
5.78955e-05
5.903e-05
5.77076e-05
5.75256e-05
5.66939e-05
5.66963e-05
5.64401e-05
5.63353e-05
5.77446e-05
5.73551e-05
5.68877e-05
5.72844e-05
5.66499e-05
5.70933e-05
5.77707e-05
5.65637e-05
5.67643e-05
5.82955e-05
5.81145e-05
5.78663e-05
5.71748e-05
5.68818e-05
5.753e-05
5.75343e-05
5.74509e-05
5.64194e-05
5.62303e-05
5.63786e-05
5.60891e-05
5.73035e-05
5.69883e-05
5.66325e-05
5.7016e-05
5.65613e-05
5.66692e-05
5.64057e-05
5.60822e-05
5.58677e-05
5.80728e-05
5.7429e-05
5.64864e-05
5.64042e-05
5.58193e-05
5.65805e-05
5.74479e-05
5.76658e-05
5.63829e-05
5.61236e-05
5.67888e-05
5.70243e-05
5.70335e-05
5.8182e-05
5.65195e-05
5.65499e-05
5.64995e-05
5.6332e-05
5.58712e-05
5.69226e-05
5.6817e-05
5.73849e-05
5.73012e-05
5.58061e-05
5.62608e-05
5.65731e-05
5.80679e-05
5.78115e-05
5.84988e-05
5.70257e-05
5.73563e-05
5.75744e-05
5.7887e-05
5.841e-05
5.90127e-05
5.65803e-05
5.63308e-05
5.72908e-05
5.68734e-05
5.72816e-05
5.7901e-05
5.78324e-05
5.73935e-05
5.80733e-05
5.70841e-05
5.72535e-05
5.7821e-05
5.89592e-05
5.85821e-05
5.85522e-05
5.76399e-05
5.78977e-05
5.75826e-05
5.74228e-05
5.90247e-05
5.81235e-05
5.74796e-05
5.71893e-05
5.76821e-05
5.78034e-05
5.78254e-05
5.73236e-05
5.71838e-05
5.82284e-05
5.87267e-05
5.78346e-05
5.76941e-05
5.7401e-05
5.79969e-05
5.85302e-05
5.83235e-05
5.74335e-05
5.71021e-05
5.71618e-05
5.67295e-05
5.7974e-05
5.75456e-05
5.76821e-05
5.79412e-05
5.75616e-05
5.81367e-05
5.69561e-05
5.6679e-05
5.68316e-05
5.88189e-05
5.91741e-05
5.71733e-05
5.77951e-05
5.69959e-05
5.78589e-05
5.83309e-05
5.82938e-05
5.71574e-05
5.67451e-05
5.7227e-05
5.73669e-05
5.76252e-05
5.86547e-05
5.75118e-05
5.81313e-05
5.72245e-05
5.72961e-05
5.69309e-05
5.74833e-05
5.76933e-05
5.91979e-05
5.82465e-05
5.7044e-05
5.74188e-05
5.75314e-05
5.89196e-05
5.82752e-05
5.75811e-05
5.72319e-05
5.75161e-05
5.69556e-05
5.74381e-05
5.87706e-05
5.83423e-05
5.70853e-05
5.68492e-05
5.6421e-05
5.56252e-05
5.77399e-05
5.75098e-05
5.71747e-05
5.80203e-05
5.64018e-05
5.75492e-05
5.58901e-05
5.68728e-05
5.76969e-05
5.74718e-05
5.67763e-05
5.6663e-05
5.7109e-05
5.59379e-05
5.59359e-05
5.81138e-05
5.67101e-05
5.61793e-05
5.53258e-05
5.57047e-05
5.51184e-05
5.65692e-05
5.58472e-05
5.55035e-05
5.62337e-05
5.6131e-05
5.63361e-05
5.52827e-05
5.54954e-05
5.62226e-05
5.6779e-05
5.79963e-05
5.58893e-05
5.58297e-05
5.63728e-05
5.61461e-05
5.66747e-05
5.76472e-05
5.57101e-05
5.53355e-05
5.67853e-05
5.75543e-05
5.54822e-05
5.61401e-05
5.65098e-05
5.64918e-05
5.91026e-05
5.54997e-05
5.74633e-05
5.67929e-05
5.82327e-05
5.83441e-05
5.95664e-05
5.6978e-05
5.67564e-05
5.80622e-05
5.78891e-05
5.80238e-05
5.92867e-05
5.73911e-05
5.82027e-05
5.83972e-05
5.89743e-05
5.72421e-05
5.79599e-05
5.84135e-05
5.94831e-05
6.03517e-05
5.74935e-05
5.87967e-05
5.85007e-05
5.98977e-05
5.95954e-05
5.77927e-05
5.81136e-05
5.79405e-05
5.7132e-05
5.70234e-05
5.93131e-05
5.77272e-05
5.84253e-05
5.89439e-05
5.70864e-05
5.67628e-05
5.84542e-05
5.70987e-05
5.7208e-05
6.02856e-05
5.73008e-05
5.85154e-05
5.66998e-05
5.70212e-05
5.77725e-05
5.73054e-05
5.55171e-05
5.54785e-05
5.7298e-05
5.54261e-05
5.50666e-05
4.71104e-05
4.68268e-05
4.71249e-05
5.54816e-05
5.68079e-05
5.53397e-05
3.58719e-08
2.38541e-07
4.08381e-08
4.60089e-08
2.87484e-07
2.77952e-07
1.4028e-07
1.1762e-07
2.75659e-07
3.41602e-07
1.26056e-07
4.58973e-07
3.7104e-07
2.19153e-07
4.48086e-07
3.02428e-07
4.6933e-06
2.58007e-07
6.30087e-06
1.35328e-05
2.10209e-05
3.59522e-07
4.86775e-06
3.21395e-07
6.50361e-06
1.5227e-07
1.60006e-07
1.73355e-07
1.612e-07
1.52097e-07
1.59655e-07
1.73729e-07
2.70257e-07
5.17718e-07
2.18082e-07
2.53516e-07
2.74843e-07
5.0276e-07
2.17333e-07
1.44696e-05
2.2705e-05
2.55156e-07
2.43148e-07
7.11246e-07
3.37972e-07
2.61864e-07
2.4204e-07
6.80431e-07
1.8539e-06
1.9206e-06
3.52767e-07
1.82476e-06
1.89715e-06
4.99581e-07
9.3982e-06
4.13792e-07
1.20348e-05
3.61759e-05
4.59575e-05
5.51644e-07
9.59247e-06
4.66976e-07
1.22621e-05
1.51071e-07
1.58264e-07
1.7275e-07
1.57225e-07
1.47884e-07