/*--------------------------------*- C++ -*----------------------------------*\
| =========                 |                                                 |
| \\      /  F ield         | OpenFOAM: The Open Source CFD Toolbox           |
|  \\    /   O peration     | Version:  v2012                                 |
|   \\  /    A nd           | Website:  www.openfoam.com                      |
|    \\/     M anipulation  |                                                 |
\*---------------------------------------------------------------------------*/
FoamFile
{
    version     2.0;
    format      ascii;
    class       volScalarField;
    location    "1537.5";
    object      nut;
}
// * * * * * * * * * * * * * * * * * * * * * * * * * * * * * * * * * * * * * //

dimensions      [0 2 -1 0 0 0 0];


internalField   nonuniform List<scalar> 
171728
(
1.72661e-06
1.7692e-06
2.16017e-06
2.31178e-06
1.75729e-06
1.7397e-06
2.14497e-06
2.2413e-06
1.75722e-06
1.7192e-06
2.11941e-06
2.17601e-06
1.7561e-06
1.69934e-06
2.09249e-06
2.11392e-06
1.75392e-06
1.67305e-06
2.06572e-06
2.05e-06
1.75112e-06
1.63438e-06
2.03907e-06
2.00021e-06
1.74187e-06
1.59018e-06
2.01681e-06
1.98873e-06
1.72592e-06
1.54714e-06
1.9988e-06
2.05931e-06
1.70881e-06
1.49869e-06
1.96626e-06
2.27281e-06
1.68937e-06
1.43263e-06
1.91233e-06
2.47145e-06
1.67125e-06
1.34432e-06
1.8401e-06
2.54828e-06
1.65249e-06
1.25222e-06
1.74866e-06
2.18506e-06
1.64036e-06
1.16602e-06
1.64373e-06
2.02602e-06
1.63675e-06
1.08861e-06
1.54303e-06
1.99926e-06
1.63426e-06
1.02308e-06
1.43965e-06
1.94377e-06
1.63535e-06
9.66459e-07
1.33605e-06
1.85919e-06
1.63423e-06
9.54353e-07
1.24466e-06
1.64745e-06
1.62246e-06
9.46342e-07
1.1871e-06
1.42093e-06
1.60694e-06
9.40838e-07
1.15787e-06
1.26974e-06
1.58392e-06
1.12881e-06
1.2335e-06
1.47897e-06
1.5588e-06
1.30807e-06
1.43109e-06
1.75722e-06
1.53881e-06
1.63205e-06
1.72802e-06
2.18298e-06
1.46746e-06
2.0334e-06
2.20606e-06
3.59332e-06
1.29886e-06
3.01524e-06
2.97446e-06
5.61094e-06
1.17987e-06
4.00811e-06
4.01191e-06
8.52513e-06
1.04922e-06
4.98052e-06
5.33964e-06
1.22443e-05
9.58474e-07
7.55346e-06
7.22597e-06
1.68613e-05
9.58298e-07
8.83992e-06
8.97898e-06
2.40322e-05
9.24216e-07
1.17591e-05
1.1711e-05
3.09843e-05
9.55006e-07
1.44547e-05
1.48271e-05
3.77525e-05
1.05385e-06
1.77619e-05
1.91281e-05
4.52842e-05
1.34077e-06
2.3408e-05
2.1593e-05
5.21282e-05
1.47233e-06
2.4705e-05
2.61737e-05
5.83818e-05
2.0277e-06
3.10689e-05
3.07393e-05
6.43254e-05
2.6087e-06
3.57991e-05
3.63849e-05
6.93939e-05
3.09176e-06
4.21634e-05
4.10037e-05
7.45603e-05
4.84668e-06
4.67986e-05
4.73734e-05
7.93455e-05
4.59138e-06
5.1185e-05
5.21897e-05
8.29184e-05
8.12883e-06
6.0484e-05
5.92267e-05
8.82326e-05
7.77545e-06
6.17752e-05
6.25913e-05
9.05708e-05
1.15006e-05
7.46849e-05
7.4182e-05
9.57391e-05
1.41558e-05
7.39563e-05
7.33752e-05
9.7705e-05
1.65497e-05
8.35795e-05
8.53726e-05
0.000113887
1.96486e-05
9.26591e-05
9.15953e-05
9.60447e-05
2.54082e-05
8.69666e-05
8.71837e-05
0.0001069
2.61014e-05
0.000105503
0.000104356
0.000124052
3.83096e-05
0.000107575
0.000107121
0.000123161
3.66994e-05
0.000106427
0.000106991
0.000122336
4.5832e-05
0.00012049
0.000120767
0.000122256
5.25005e-05
0.00011653
0.000117003
0.000122536
5.1622e-05
0.000127481
0.00012544
0.000135462
7.05395e-05
0.000134525
0.000137137
0.000142089
6.86113e-05
0.000132404
0.000133896
0.000138607
8.04636e-05
0.000139205
0.000137993
0.000136063
8.76422e-05
0.000139879
0.000144937
0.000146965
8.44454e-05
0.000151023
0.00014376
0.000147739
0.000104414
0.000153777
0.00015529
0.000148546
0.000116829
0.000153287
0.000157049
0.000156374
0.00010945
0.000158161
0.000155584
0.000155857
0.000108629
0.000166029
0.000167089
0.000154126
0.000135289
0.000166694
0.000166567
0.000159981
0.00013696
0.000167272
0.000165359
0.000167976
0.000134759
0.000176939
0.000178008
0.000167644
0.000150476
0.000176113
0.000178686
0.000162484
0.00015212
0.000181412
0.000176129
0.000168702
0.000154936
0.000185648
0.000186258
0.000175593
0.000162528
0.000186031
0.000188124
0.000176001
0.000162945
0.000186828
0.000185675
0.000175608
0.000176409
0.000195625
0.000197343
0.000179605
0.000187469
0.00019511
0.000199767
0.00018256
0.000178486
0.000189321
0.000186661
0.000174708
0.000179619
0.000208984
0.000198914
0.000185449
0.000206616
0.000211808
0.000217916
0.000194669
0.00020652
0.000195411
0.00020831
0.000185333
0.000192483
0.000193419
0.000191904
0.000177136
0.000192398
0.000215929
0.000199768
0.00019027
0.000223586
0.000225983
0.000226243
0.000201931
0.000235293
0.000215125
0.000229102
0.000195695
0.000216344
0.000202833
0.000205949
0.000187027
0.000203917
0.000208097
0.000202025
0.000188086
0.000223626
0.000224065
0.000220073
0.000195074
0.000240649
0.000226509
0.000225038
0.000201221
0.000238035
0.000222406
0.000224963
0.000205504
0.000232499
0.000218926
0.000223427
0.000195989
0.00022991
0.000215199
0.000217979
0.00018943
0.000233105
0.00022409
0.000217724
0.000199549
0.000243067
0.00023082
0.00022555
0.000204883
0.000247966
0.000224762
0.000228994
0.000198497
0.000247663
0.000221891
0.000232114
0.000198747
0.000247926
0.000231439
0.000229379
0.000207198
0.000245418
0.000230085
0.000217729
0.000199111
0.000237917
0.000217977
0.000213341
0.000188613
0.000244423
0.000224691
0.000233876
0.000202446
0.000264802
0.000238618
0.000245437
0.000215101
0.000266922
0.000233196
0.000230049
0.000207263
2.31189e-06
2.10952e-06
2.385e-06
2.24501e-06
2.10207e-06
2.44877e-06
1.69929e-06
1.52789e-06
1.54842e-06
1.65804e-06
2.06557e-06
1.99952e-06
2.16223e-06
2.42192e-06
2.43849e-06
2.3154e-06
2.30787e-06
2.26457e-06
1.61334e-06
1.92217e-06
1.61682e-06
1.90114e-06
2.24081e-06
2.19934e-06
1.83556e-06
3.52876e-06
1.82404e-06
3.50973e-06
1.63829e-06
1.74476e-06
1.63014e-06
2.15247e-06
2.19504e-06
1.75941e-06
2.14992e-06
1.71817e-06
2.2428e-06
2.26147e-06
2.2198e-06
1.61988e-06
1.89717e-06
1.6241e-06
1.89132e-06
2.19702e-06
2.16055e-06
1.82124e-06
3.35208e-06
1.81036e-06
2.55378e-06
1.63171e-06
1.7243e-06
1.64033e-06
2.18636e-06
2.17727e-06
1.7142e-06
2.12618e-06
1.69959e-06
2.17465e-06
2.21702e-06
2.17479e-06
1.62471e-06
1.889e-06
1.63031e-06
1.87745e-06
2.15762e-06
2.11977e-06
1.80519e-06
2.32346e-06
1.79133e-06
1.91315e-06
1.64329e-06
1.70448e-06
1.66075e-06
2.17244e-06
2.12629e-06
1.69477e-06
2.09972e-06
1.64674e-06
2.10793e-06
2.17203e-06
2.1341e-06
1.6323e-06
1.87233e-06
1.64122e-06
1.84872e-06
2.11665e-06
2.08038e-06
1.78704e-06
1.85126e-06
1.77424e-06
1.78717e-06
1.66791e-06
1.68048e-06
1.69183e-06
2.12322e-06
2.11271e-06
1.62309e-06
2.0724e-06
1.57088e-06
2.04352e-06
2.13167e-06
2.1013e-06
1.64311e-06
1.84109e-06
1.64281e-06
1.82702e-06
2.07724e-06
2.03878e-06
1.77067e-06
1.78967e-06
1.75416e-06
1.80678e-06
1.70112e-06
1.64482e-06
1.73007e-06
2.11338e-06
2.10183e-06
1.56374e-06
2.04482e-06
1.54959e-06
2.00405e-06
2.09859e-06
2.06756e-06
1.64485e-06
1.82595e-06
1.64569e-06
1.83168e-06
2.03545e-06
1.99727e-06
1.74632e-06
1.81014e-06
1.7213e-06
1.80154e-06
1.73906e-06
1.60107e-06
1.76222e-06
2.09977e-06
2.07669e-06
1.55261e-06
2.02249e-06
1.62467e-06
1.99299e-06
2.06416e-06
2.02466e-06
1.64413e-06
1.83383e-06
1.62651e-06
1.8259e-06
1.99405e-06
1.95991e-06
1.71224e-06
1.79325e-06
1.67955e-06
1.75194e-06
1.76889e-06
1.55838e-06
1.78566e-06
2.07335e-06
2.0378e-06
1.65498e-06
2.00324e-06
1.78721e-06
2.0497e-06
2.02121e-06
1.98124e-06
1.62357e-06
1.81792e-06
1.6185e-06
1.78488e-06
1.95637e-06
1.91779e-06
1.66664e-06
1.73265e-06
1.62575e-06
1.66484e-06
1.79013e-06
1.51139e-06
1.79879e-06
2.03323e-06
1.98675e-06
1.87411e-06
1.97621e-06
2.30867e-06
2.25899e-06
1.97728e-06
1.92543e-06
1.61697e-06
1.77347e-06
1.60693e-06
1.7461e-06
1.91295e-06
1.86486e-06
1.60894e-06
1.63942e-06
1.56176e-06
1.5724e-06
1.79855e-06
1.45176e-06
1.77514e-06
1.9803e-06
1.92521e-06
2.5239e-06
1.92818e-06
3.31143e-06
2.46765e-06
1.91952e-06
1.85244e-06
1.60054e-06
1.74189e-06
1.5768e-06
1.72188e-06
1.85822e-06
1.79406e-06
1.54544e-06
1.55441e-06
1.49249e-06
1.50172e-06
1.75937e-06
1.36791e-06
1.70093e-06
1.91762e-06
1.85822e-06
3.57835e-06
1.85982e-06
4.16359e-06
2.56058e-06
1.84493e-06
1.7696e-06
1.5673e-06
1.71119e-06
1.54383e-06
1.65459e-06
1.78572e-06
1.70725e-06
1.47408e-06
1.48545e-06
1.40967e-06
1.4329e-06
1.67786e-06
1.27352e-06
1.58843e-06
1.84991e-06
1.78121e-06
4.26997e-06
1.7731e-06
4.00035e-06
2.22631e-06
1.75863e-06
1.66881e-06
1.53202e-06
1.63149e-06
1.49396e-06
1.55629e-06
1.69649e-06
1.60484e-06
1.3869e-06
1.41318e-06
1.31234e-06
1.34672e-06
1.55848e-06
1.18521e-06
1.4819e-06
1.77108e-06
1.68946e-06
3.70973e-06
1.6704e-06
3.2376e-06
2.03612e-06
1.65418e-06
1.56143e-06
1.47621e-06
1.52873e-06
1.42873e-06
1.43992e-06
1.59103e-06
1.49455e-06
1.28726e-06
1.32221e-06
1.20974e-06
1.24302e-06
1.45922e-06
1.10295e-06
1.39474e-06
1.6756e-06
1.58326e-06
3.17619e-06
1.5678e-06
3.11884e-06
2.01172e-06
1.54297e-06
1.45935e-06
1.41243e-06
1.41242e-06
1.37452e-06
1.31132e-06
1.47675e-06
1.38173e-06
1.1834e-06
1.21734e-06
1.10927e-06
1.15739e-06
1.37628e-06
1.03967e-06
1.32528e-06
1.5654e-06
1.47875e-06
3.10347e-06
1.46702e-06
3.20469e-06
1.96806e-06
1.43883e-06
1.36516e-06
1.3625e-06
1.26641e-06
1.33204e-06
1.16557e-06
1.35829e-06
1.27395e-06
1.08552e-06
1.14014e-06
1.02279e-06
1.09867e-06
1.30235e-06
9.80205e-07
1.22055e-06
1.45743e-06
1.38205e-06
3.22339e-06
1.36083e-06
3.28377e-06
1.8881e-06
1.34279e-06
1.2804e-06
1.32699e-06
1.13487e-06
1.32803e-06
1.0385e-06
1.25167e-06
1.17009e-06
1.0051e-06
1.0837e-06
9.5874e-07
1.0391e-06
1.18967e-06
9.49054e-07
1.12334e-06
1.35739e-06
1.28554e-06
3.27657e-06
1.26425e-06
2.97206e-06
1.69937e-06
1.26203e-06
1.21873e-06
1.33021e-06
1.02483e-06
1.34793e-06
9.52761e-07
1.16223e-06
1.10561e-06
9.40819e-07
1.02148e-06
9.12191e-07
9.87372e-07
1.11852e-06
9.177e-07
1.04641e-06
1.26441e-06
1.20909e-06
2.79574e-06
1.2004e-06
2.1543e-06
1.45336e-06
1.21357e-06
1.21824e-06
1.36234e-06
9.62079e-07
1.4063e-06
9.56102e-07
1.09786e-06
1.10479e-06
9.1276e-07
9.81859e-07
9.13278e-07
9.91036e-07
1.06044e-06
9.52676e-07
1.06346e-06
1.19196e-06
1.18227e-06
1.94767e-06
1.15552e-06
1.61682e-06
1.3226e-06
1.22864e-06
1.33527e-06
1.4425e-06
9.31432e-07
1.53677e-06
1.08682e-06
1.08122e-06
1.35064e-06
9.24823e-07
9.98739e-07
9.85619e-07
1.07536e-06
1.05578e-06
1.12405e-06
1.17556e-06
1.1913e-06
1.29447e-06
1.54221e-06
1.21667e-06
1.64417e-06
1.41728e-06
1.36204e-06
1.66631e-06
1.5699e-06
1.08411e-06
1.77891e-06
1.11945e-06
1.3965e-06
1.32366e-06
1.00917e-06
1.0891e-06
1.16677e-06
1.23043e-06
1.1763e-06
1.18883e-06
1.35268e-06
1.33073e-06
1.55603e-06
1.69032e-06
1.38244e-06
1.63833e-06
1.61213e-06
1.77001e-06
2.17145e-06
1.83474e-06
1.24084e-06
2.10658e-06
1.47915e-06
1.50542e-06
2.39663e-06
1.22614e-06
1.2688e-06
1.4141e-06
1.48493e-06
1.43595e-06
1.56414e-06
1.57823e-06
1.673e-06
2.09355e-06
1.66563e-06
1.62139e-06
1.58451e-06
2.08605e-06
2.34252e-06
3.43373e-06
2.23208e-06
1.54402e-06
2.6133e-06
1.84259e-06
2.42734e-06
3.01237e-06
1.52969e-06
1.56447e-06
1.91037e-06
1.94341e-06
1.75699e-06
1.96226e-06
2.07396e-06
2.2802e-06
3.24619e-06
1.68885e-06
2.07366e-06
1.97261e-06
3.5191e-06
3.68161e-06
5.09481e-06
2.76991e-06
1.92619e-06
3.14507e-06
2.65437e-06
3.24798e-06
4.93439e-06
2.06946e-06
2.05064e-06
2.52914e-06
2.64666e-06
2.21938e-06
2.76032e-06
2.78597e-06
3.54586e-06
4.90515e-06
2.04352e-06
2.78733e-06
2.67799e-06
5.04006e-06
5.4278e-06
7.80064e-06
3.32888e-06
2.88057e-06
4.07888e-06
3.67746e-06
5.79854e-06
8.0088e-06
2.69258e-06
2.78705e-06
3.53337e-06
3.57232e-06
2.8964e-06
3.76442e-06
3.95864e-06
5.34643e-06
7.61761e-06
2.87061e-06
3.66495e-06
3.67254e-06
7.59003e-06
8.66993e-06
1.19268e-05
4.31927e-06
3.91552e-06
5.29042e-06
4.58611e-06
8.43547e-06
1.0616e-05
3.85885e-06
3.97225e-06
4.91861e-06
4.76557e-06
4.43098e-06
4.63769e-06
4.90377e-06
8.29343e-06
1.15135e-05
4.10353e-06
5.0165e-06
4.84767e-06
1.21964e-05
1.24977e-05
1.51807e-05
5.52537e-06
5.01881e-06
6.31163e-06
7.00407e-06
1.13051e-05
1.75849e-05
5.1528e-06
5.24017e-06
6.1624e-06
6.35134e-06
5.08655e-06
7.1115e-06
6.4903e-06
1.22475e-05
1.64928e-05
5.06196e-06
6.65395e-06
6.40008e-06
1.52715e-05
1.62245e-05
2.35188e-05
6.84438e-06
7.34379e-06
8.77168e-06
8.0832e-06
1.91722e-05
2.21489e-05
6.72231e-06
6.8372e-06
8.55996e-06
7.86956e-06
6.98769e-06
7.94963e-06
8.69208e-06
1.73675e-05
2.22153e-05
6.91511e-06
8.19073e-06
8.47242e-06
2.30027e-05
2.50329e-05
2.91915e-05
9.43357e-06
8.97234e-06
1.10668e-05
1.12685e-05
2.25076e-05
3.00145e-05
9.18566e-06
8.67906e-06
1.07676e-05
1.22371e-05
9.37216e-06
1.11477e-05
1.12031e-05
2.36273e-05
2.93818e-05
9.0548e-06
1.16935e-05
1.09373e-05
2.96434e-05
3.03013e-05
3.62214e-05
1.16372e-05
1.16979e-05
1.38785e-05
1.43881e-05
3.27135e-05
3.5459e-05
1.12936e-05
1.23664e-05
1.36951e-05
1.28468e-05
1.18417e-05
1.3924e-05
1.37806e-05
3.07089e-05
3.46995e-05
1.16393e-05
1.284e-05
1.37714e-05
3.63714e-05
3.76818e-05
4.3482e-05
1.45882e-05
1.52072e-05
1.68458e-05
1.6726e-05
3.57986e-05
4.45066e-05
1.45757e-05
1.50997e-05
1.68192e-05
2.29569e-05
1.45008e-05
1.644e-05
1.7196e-05
3.58989e-05
5.00194e-05
1.44675e-05
1.92815e-05
1.71719e-05
4.38525e-05
4.48691e-05
5.10928e-05
1.76746e-05
1.78511e-05
2.16277e-05
2.44428e-05
4.59264e-05
5.29729e-05
1.78128e-05
2.38354e-05
2.13534e-05
2.22542e-05
1.81946e-05
2.24912e-05
2.1015e-05
5.14955e-05
4.86446e-05
1.8111e-05
1.96366e-05
2.09062e-05
5.07425e-05
5.25523e-05
5.68118e-05
2.2778e-05
2.5901e-05
2.42873e-05
2.53209e-05
5.54147e-05
5.65673e-05
2.21336e-05
2.15043e-05
2.4262e-05
2.422e-05
2.17276e-05
2.39744e-05
2.55784e-05
4.85643e-05
5.72443e-05
2.16496e-05
2.57061e-05
2.55565e-05
5.7063e-05
5.7868e-05
6.28017e-05
2.5529e-05
2.49921e-05
3.03183e-05
2.92211e-05
5.64906e-05
6.21953e-05
2.54723e-05
2.58868e-05
3.02956e-05
3.20265e-05
2.68593e-05
2.96744e-05
2.9077e-05
5.91244e-05
6.30109e-05
2.67677e-05
2.89668e-05
2.9277e-05
6.31172e-05
6.43171e-05
6.82194e-05
3.09769e-05
3.10757e-05
3.4335e-05
3.55994e-05
6.42228e-05
6.8598e-05
3.13413e-05
3.41836e-05
3.42359e-05
3.73434e-05
3.05207e-05
3.45935e-05
3.55262e-05
6.43115e-05
6.91859e-05
3.07452e-05
3.56058e-05
3.52008e-05
6.82867e-05
6.91909e-05
7.37165e-05
3.62471e-05
3.67814e-05
3.99638e-05
4.14219e-05
6.97524e-05
7.43752e-05
3.5885e-05
3.73607e-05
3.98658e-05
3.91629e-05
3.63442e-05
4.01213e-05
3.89279e-05
7.01049e-05
7.2894e-05
3.60181e-05
3.89758e-05
3.91288e-05
7.33436e-05
7.49105e-05
7.85736e-05
4.07832e-05
4.32022e-05
4.7203e-05
4.63587e-05
7.55325e-05
7.81543e-05
4.06889e-05
4.12947e-05
4.7099e-05
4.72446e-05
4.10403e-05
4.67297e-05
4.73854e-05
7.41162e-05
7.84537e-05
4.11256e-05
4.69433e-05
4.72316e-05
7.86469e-05
7.95432e-05
8.14842e-05
4.88858e-05
4.63904e-05
4.85952e-05
4.91734e-05
7.86963e-05
8.11211e-05
4.89569e-05
4.71354e-05
4.85718e-05
4.92927e-05
4.79229e-05
4.8639e-05
4.84936e-05
7.91544e-05
8.16991e-05
4.80962e-05
4.91881e-05
4.83774e-05
8.15944e-05
8.22838e-05
8.7646e-05
4.97421e-05
5.16818e-05
6.0031e-05
5.93084e-05
8.25142e-05
8.75906e-05
4.95285e-05
5.25409e-05
5.96938e-05
5.9302e-05
5.11683e-05
5.94479e-05
6.12695e-05
8.30202e-05
8.72289e-05
5.06583e-05
5.92367e-05
6.06494e-05
8.78538e-05
8.86869e-05
8.96302e-05
6.16296e-05
6.01124e-05
6.04348e-05
6.06399e-05
8.8167e-05
8.93801e-05
6.13574e-05
5.90051e-05
6.10882e-05
6.08727e-05
6.18559e-05
6.05824e-05
5.94927e-05
8.76831e-05
8.93928e-05
6.14882e-05
6.04575e-05
5.97827e-05
8.91064e-05
9.02297e-05
9.56784e-05
6.18534e-05
6.24556e-05
7.08918e-05
7.19322e-05
9.03184e-05
9.63208e-05
6.27897e-05
6.37766e-05
6.98109e-05
7.13629e-05
6.0066e-05
7.16618e-05
7.29831e-05
9.06186e-05
9.6055e-05
6.08785e-05
7.22563e-05
7.23361e-05
9.58747e-05
9.6845e-05
9.87928e-05
7.27158e-05
7.40001e-05
7.67847e-05
7.51362e-05
9.72599e-05
9.76912e-05
7.18969e-05
7.26785e-05
7.61171e-05
7.45526e-05
7.44731e-05
7.48363e-05
7.25688e-05
9.66974e-05
9.7349e-05
7.29648e-05
7.34585e-05
7.07042e-05
9.50978e-05
9.92351e-05
0.000101642
7.748e-05
7.50947e-05
8.05906e-05
7.93405e-05
9.78861e-05
0.000102061
7.65115e-05
7.4708e-05
8.10391e-05
8.07319e-05
7.40067e-05
7.90671e-05
9.14387e-05
9.78046e-05
0.000102897
7.30856e-05
8.06816e-05
9.21573e-05
0.000113823
0.000102575
0.000106436
8.20245e-05
8.32034e-05
8.70054e-05
9.16122e-05
0.000103903
0.000108076
8.28404e-05
8.50938e-05
8.69537e-05
9.13111e-05
9.31156e-05
9.30246e-05
8.72757e-05
0.000104644
0.000107746
9.34587e-05
9.25021e-05
8.67441e-05
9.76484e-05
0.000107397
0.00010993
8.919e-05
9.12433e-05
9.42028e-05
8.78833e-05
0.000107926
0.00010605
8.96352e-05
9.03812e-05
9.36363e-05
8.77699e-05
8.37953e-05
8.79051e-05
7.82966e-05
0.000107457
0.000105681
8.30842e-05
8.70696e-05
7.76087e-05
0.000101963
0.000110239
0.000112984
9.45616e-05
8.87541e-05
9.70321e-05
0.000102177
0.000106721
0.000116607
9.34413e-05
9.12026e-05
9.71855e-05
9.94719e-05
8.14843e-05
0.00010078
0.000107392
0.00010685
0.000116155
8.11163e-05
0.000100632
0.000107772
0.000123693
0.000114302
0.000119677
0.000100228
0.000105727
0.000108807
0.000106667
0.000118111
0.00011818
0.00010001
0.000101342
0.000108348
0.000107623
0.000111343
0.000108788
0.00011539
0.000117083
0.000118529
0.00011174
0.000108118
0.000116005
0.000122997
0.000119942
0.000119076
0.000108875
0.000105352
0.00010624
0.000104689
0.000117675
0.000118609
0.000109354
0.000108493
0.000107428
0.000107249
0.000115182
0.000104452
0.000112252
0.000118613
0.000118729
0.000116036
0.000104699
0.000113735
0.000122678
0.00011928
0.000126185
0.000106697
0.000109569
0.000117855
0.000120091
0.00012055
0.000127481
0.000107284
0.000107833
0.000116785
0.000117132
0.000111035
0.000119341
0.000112088
0.000119518
0.000126783
0.000112574
0.000119018
0.000112513
0.000121808
0.000127466
0.000127129
0.000120343
0.000120539
0.000119638
0.0001171
0.000127544
0.000124828
0.000119446
0.000119787
0.000119198
0.000119433
0.000114787
0.000117757
0.000114136
0.000127664
0.00012612
0.000112795
0.000118447
0.000109941
0.000121882
0.000126676
0.000131558
0.000118603
0.000115832
0.000122902
0.000123177
0.00012442
0.000132079
0.000118345
0.000118268
0.000123883
0.000121535
0.000114344
0.000122622
0.000124645
0.000125521
0.000130553
0.000110608
0.000119864
0.00012479
0.000133081
0.000133505
0.000135816
0.000127175
0.000128012
0.000131957
0.000134236
0.000134356
0.000137744
0.000127718
0.000125857
0.000131953
0.000135154
0.000128791
0.000134623
0.000137509
0.000133031
0.000138977
0.000129913
0.000136395
0.000140284
0.000141822
0.000135496
0.000137336
0.000131516
0.000133834
0.000132546
0.000131717
0.000137484
0.000135902
0.000131416
0.000135598
0.000131817
0.000132967
0.00013838
0.00013245
0.000136584
0.000138921
0.000135987
0.000141447
0.000134904
0.000140081
0.000139199
0.000139066
0.000143165
0.000135412
0.000132191
0.000141273
0.000140996
0.000136618
0.000142118
0.000134675
0.000132005
0.000141573
0.000137253
0.00013491
0.000138483
0.000131267
0.000135556
0.000140508
0.00013832
0.000134464
0.000132928
0.000135453
0.000142903
0.00014
0.000141194
0.000141673
0.000138597
0.000139166
0.000142217
0.00014072
0.000142086
0.000140992
0.000140202
0.000145207
0.000131854
0.000138912
0.000143836
0.00014232
0.000145334
0.000132052
0.000144691
0.000141968
0.000145422
0.000139879
0.000146918
0.000137966
0.000138226
0.00014591
0.000145129
0.000140701
0.000148074
0.000139458
0.000144718
0.000143684
0.000142526
0.000146583
0.00014806
0.000148406
0.000145085
0.000143742
0.000146104
0.000143413
0.000149242
0.000148145
0.000148792
0.000154813
0.000149793
0.000149281
0.0001576
0.000155878
0.000149863
0.000152366
0.000146926
0.000142797
0.000155844
0.000152528
0.000147813
0.000154224
0.000148111
0.000144344
0.000151976
0.000148512
0.0001527
0.000147267
0.000147162
0.000155196
0.000152667
0.000158388
0.000156149
0.000157109
0.000155778
0.000152109
0.000150828
0.00015762
0.000155054
0.000157654
0.000157382
0.000150374
0.000152267
0.000157353
0.00015295
0.000153177
0.000150014
0.000157612
0.000159653
0.000155719
0.000152007
0.000148638
0.000155632
0.000155295
0.000151694
0.000153398
0.000151195
0.000152924
0.000156731
0.000156923
0.000153653
0.000155644
0.000158959
0.000156919
0.000160686
0.000152815
0.000152548
0.000160682
0.000155122
0.00015984
0.000156186
0.000149298
0.0001599
0.000151083
0.00015349
0.000161414
0.000162015
0.000153296
0.000159269
0.000153297
0.000156726
0.000162992
0.000165018
0.000160346
0.000164126
0.000158547
0.000153661
0.000161142
0.00015907
0.000164991
0.000158014
0.000154144
0.00016141
0.000162969
0.000165421
0.000165398
0.000171276
0.000170695
0.000160464
0.000161941
0.000166295
0.000167092
0.000170077
0.000168128
0.000158577
0.000167317
0.000164867
0.000161706
0.000160233
0.000158806
0.00016741
0.000162864
0.000158424
0.000162674
0.000161074
0.000171468
0.00017064
0.000170218
0.000168943
0.000161613
0.000160188
0.000169741
0.000167468
0.000167753
0.000165084
0.00016771
0.000165357
0.000173478
0.000159717
0.000158498
0.000165368
0.000164425
0.000173933
0.000167208
0.000161206
0.000166362
0.000169809
0.00016848
0.000173108
0.000172837
0.000160802
0.00016673
0.000167218
0.000164944
0.000172503
0.000173521
0.000174563
0.000175614
0.000175569
0.000159497
0.000167847
0.000176063
0.000175796
0.000178159
0.000168069
0.000167285
0.000168593
0.000175229
0.000175223
0.0001776
0.00017694
0.000167406
0.000166939
0.00017523
0.000176375
0.000179711
0.000180231
0.000175029
0.000176615
0.000172274
0.000168769
0.000169073
0.000177789
0.000179273
0.000173926
0.000163059
0.000168461
0.00016962
0.000177357
0.000176591
0.000177591
0.000178273
0.00016659
0.000170207
0.00018001
0.000180162
0.000180007
0.000179144
0.000171566
0.000178661
0.000177157
0.000168719
0.000167876
0.000172715
0.000176372
0.000171457
0.000166905
0.000170338
0.00017282
0.000179307
0.000180593
0.0001844
0.000185458
0.000171535
0.00017415
0.000180583
0.000179199
0.000183194
0.000184485
0.000180369
0.000185512
0.000186726
0.000168431
0.000174481
0.000174222
0.00018375
0.000184971
0.000175147
0.000172784
0.000171815
0.00018543
0.000186448
0.000185736
0.000187454
0.000174086
0.00017417
0.00018356
0.000185968
0.000182638
0.000185597
0.000187574
0.000185932
0.00018775
0.000175097
0.000173892
0.000187272
0.00018859
0.000190855
0.000176164
0.000171528
0.000173846
0.000185286
0.000187068
0.000184588
0.000185197
0.000174156
0.00017364
0.000182199
0.000184415
0.000184507
0.000181814
0.000187436
0.00018587
0.000186848
0.000173276
0.000171331
0.00019096
0.000185962
0.000189436
0.000175655
0.000175128
0.000183426
0.000186343
0.000185007
0.000195648
0.000192999
0.000173626
0.000180608
0.000187208
0.000182719
0.00019723
0.000197399
0.000187686
0.000193724
0.000192415
0.000172185
0.000183928
0.000188758
0.000193965
0.000189465
0.000178433
0.000184285
0.000183208
0.000197432
0.000195126
0.000197892
0.000195365
0.000181623
0.000179892
0.000199761
0.000201179
0.000201789
0.000204341
0.000194497
0.000196492
0.000197476
0.000185629
0.00018665
0.000192641
0.000200616
0.000197394
0.000182833
0.000181861
0.000172767
0.000195927
0.000193123
0.000189122
0.000188986
0.000178367
0.000172831
0.000200198
0.000202419
0.000188465
0.000186193
0.000197371
0.000189565
0.000191866
0.000184932
0.000169869
0.000197378
0.000188669
0.000191935
0.000175589
0.000172022
0.000184873
0.000188497
0.000189876
0.000200739
0.000209078
0.000174125
0.000194227
0.000186813
0.000183605
0.000192509
0.000187873
0.000190596
0.000204211
0.000194783
0.000168503
0.000179554
0.000190458
0.000190627
0.000193744
0.000182544
0.000187871
0.000195981
0.000205906
0.000213399
0.000212756
0.000215219
0.000196153
0.000194303
0.000200446
0.000197901
0.000213747
0.000218556
0.000200795
0.000213343
0.000210977
0.000183914
0.000201535
0.000200134
0.000216012
0.000211587
0.000194696
0.000195424
0.000185708
0.000212911
0.000210224
0.000203284
0.000193463
0.000191477
0.000175442
0.000214787
0.000220847
0.000209495
0.000216205
0.000211817
0.000198749
0.0002075
0.000201981
0.000192097
0.000212601
0.0002138
0.000208578
0.00018697
0.000184161
0.000177827
0.000200017
0.000190337
0.000193898
0.000188303
0.000173823
0.000175501
0.00020568
0.000209617
0.000196599
0.000193402
0.000204203
0.000191774
0.000196447
0.000189213
0.000174366
0.000205085
0.000194336
0.000196483
0.00017784
0.000177214
0.000185641
0.000193136
0.000193689
0.000203662
0.00021336
0.000178405
0.000196283
0.000195089
0.000190521
0.000196882
0.000190094
0.000195428
0.000210995
0.00020279
0.000172903
0.000178569
0.000195274
0.000192368
0.000200501
0.000187519
0.000188221
0.000201948
0.000208803
0.000218719
0.000223417
0.00022893
0.000198675
0.000207054
0.00020297
0.000197704
0.000219714
0.000221095
0.000208506
0.000225011
0.000221162
0.000182288
0.000203217
0.000206699
0.000221067
0.00022092
0.000201591
0.000203246
0.000203388
0.000226476
0.000230104
0.00022795
0.000220461
0.000206727
0.000194974
0.000224069
0.000227145
0.000228815
0.000233832
0.000222904
0.000219473
0.00022201
0.000205432
0.000208667
0.000223198
0.00023141
0.000223922
0.000197563
0.000200746
0.000184568
0.000222582
0.000214838
0.000205818
0.000201928
0.000192594
0.000181642
0.000227138
0.000232178
0.000209801
0.000211205
0.000218137
0.000204614
0.000209318
0.000205658
0.000186468
0.000220227
0.000210411
0.000210225
0.000187749
0.000182637
0.000181959
0.000202175
0.00019994
0.000199465
0.000201297
0.000180604
0.000185959
0.000205266
0.000205894
0.000200149
0.000199462
0.000207614
0.000203135
0.000205903
0.000184238
0.000181096
0.000208019
0.000201145
0.000205285
0.000187382
0.00018439
0.000200074
0.000203381
0.000207444
0.000220946
0.000222579
0.000188572
0.000201239
0.00020108
0.000199725
0.000218281
0.000215261
0.000207344
0.000221322
0.000215326
0.00018275
0.00019661
0.000205779
0.000216538
0.000214712
0.000194045
0.000201591
0.00020429
0.000224876
0.00022567
0.000229071
0.000228616
0.000202199
0.0002032
0.000222659
0.000219602
0.000227995
0.000225739
0.000217839
0.000226705
0.000223871
0.00019812
0.000201498
0.000217477
0.000224734
0.000223791
0.00020039
0.000203448
0.000197668
0.000228883
0.000228126
0.000222091
0.000222187
0.000202417
0.000198107
0.000228211
0.00022612
0.000223105
0.000224562
0.000225638
0.000223099
0.000228641
0.00020129
0.000200087
0.000225655
0.000224796
0.000229127
0.00020567
0.000197133
0.00019628
0.000220537
0.000220935
0.000218693
0.000218386
0.000197736
0.000195766
0.000221646
0.000223943
0.000220123
0.000223451
0.000228905
0.00022016
0.000222169
0.00019994
0.000200132
0.000229622
0.000224517
0.000223311
0.000197548
0.000196163
0.000195713
0.000218571
0.000217533
0.000218111
0.000215515
0.000195175
0.000192169
0.000220149
0.000223197
0.000219919
0.000221193
0.000219368
0.000215584
0.000213987
0.00019974
0.000196183
0.000220268
0.000219104
0.000213943
0.000189888
0.000195373
0.000196104
0.000217908
0.000215383
0.000220445
0.000221639
0.00019189
0.000198522
0.000219582
0.000220301
0.000218782
0.000217953
0.000213573
0.000220869
0.000220118
0.000195597
0.000194309
0.00021335
0.000216858
0.000218256
0.000197867
0.000196683
0.000201332
0.000222224
0.000224266
0.000227073
0.000229948
0.000199821
0.000205351
0.000219153
0.000217552
0.000224433
0.000220773
0.00022383
0.000230235
0.000229722
0.00019445
0.000198156
0.00022221
0.000223992
0.000229259
0.000205045
0.000201743
0.00020254
0.000227944
0.00023057
0.000228567
0.000227976
0.000205352
0.000200779
0.000226044
0.000223124
0.000228779
0.000228603
0.000230101
0.000227277
0.000225701
0.000198855
0.00020255
0.000229805
0.000228404
0.000227279
0.000199456
0.000202235
0.00020168
0.000227615
0.00022551
0.000225901
0.000222268
0.000199559
0.000196167
0.000229096
0.000230271
0.000229406
0.000234296
0.000223858
0.000221705
0.000222594
0.000203032
0.000207573
0.000225552
0.000231346
0.000224207
0.000197846
0.000201582
0.000202954
0.000226039
0.00022235
0.000227998
0.000228363
0.000196324
0.000204263
0.000229426
0.000235163
0.00022888
0.000231203
0.000223413
0.000229283
0.000231731
0.000207746
0.000204724
0.000224728
0.000231587
0.00023089
0.000206945
0.000202748
0.000199715
0.000228604
0.000230415
0.000228181
0.000232215
0.000205018
0.000204871
0.000228323
0.00022817
0.00022432
0.000218802
0.000233083
0.000233009
0.000230892
0.000203119
0.00019282
0.000231889
0.000220668
0.000228419
0.000201348
0.000198792
0.00019318
0.000226124
0.000229994
0.000219886
0.000220242
0.00020319
0.000193285
0.000222466
0.000215838
0.000217496
0.000211581
0.000226206
0.000219571
0.000216191
0.000191085
0.000187274
0.000224199
0.000213086
0.000215775
0.00018939
0.000192487
0.000198914
0.000218773
0.000218622
0.000221268
0.000219781
0.000192366
0.0001971
0.000216767
0.000212303
0.000223872
0.000228681
0.000215133
0.000219659
0.000221648
0.00018864
0.00020483
0.000214962
0.000228419
0.000223765
0.000199844
0.00020097
0.000212373
0.00022599
0.000224509
0.000238033
0.000236729
0.000199308
0.00021065
0.000228709
0.000234344
0.000240824
0.000245936
0.000227452
0.000237283
0.000241024
0.00020735
0.00021833
0.000229435
0.000244628
0.000241968
0.000214782
0.000212722
0.000207072
0.000239349
0.000237982
0.000239113
0.000238002
0.000210932
0.000206298
0.000242065
0.000246879
0.000239238
0.000237127
0.000242413
0.000238844
0.000240807
0.000218165
0.000204492
0.00024313
0.000236367
0.000239286
0.000207771
0.000206796
0.000233217
0.000232646
0.000206398
0.000232886
0.00023039
0.000265836
0.000264411
0.000268001
0.000234098
0.000204022
0.000232868
2.19745e-06
2.14092e-06
1.03578e-06
1.08954e-06
1.37132e-06
1.96842e-06
6.65217e-07
1.25902e-06
1.24215e-06
2.3279e-06
1.40492e-06
1.69328e-06
2.32995e-06
1.95484e-06
1.83424e-06
1.10652e-06
1.31304e-05
1.00054e-06
1.48766e-05
1.07608e-05
1.2994e-05
1.34053e-06
1.33674e-05
1.25619e-06
1.51143e-05
1.55154e-06
1.56971e-06
1.68859e-06
1.7562e-06
1.56684e-06
1.58567e-06
1.71048e-06
1.37963e-06
3.26852e-07
1.5783e-06
1.75726e-06
1.36108e-06
4.3101e-07
1.58373e-06
1.11029e-05
1.35072e-05
1.22989e-06
1.75883e-06
5.29495e-07
2.15732e-06
1.22628e-06
1.76441e-06
6.50582e-07
1.47382e-06
1.52316e-06
2.27862e-06
1.66806e-06
1.73424e-06
1.34003e-06
1.8155e-05
1.27207e-06
2.05341e-05
1.70322e-05
1.91942e-05
1.54022e-06
1.83378e-05
1.46119e-06
2.0734e-05
1.56532e-06
1.57998e-06
1.71106e-06
1.75765e-06
1.56067e-06
1.56071e-06
1.71291e-06
1.37614e-06