/*--------------------------------*- C++ -*----------------------------------*\
| =========                 |                                                 |
| \\      /  F ield         | OpenFOAM: The Open Source CFD Toolbox           |
|  \\    /   O peration     | Version:  v2012                                 |
|   \\  /    A nd           | Website:  www.openfoam.com                      |
|    \\/     M anipulation  |                                                 |
\*---------------------------------------------------------------------------*/
FoamFile
{
    version     2.0;
    format      ascii;
    class       volScalarField;
    location    "1537.5";
    object      p;
}
// * * * * * * * * * * * * * * * * * * * * * * * * * * * * * * * * * * * * * //

dimensions      [0 2 -2 0 0 0 0];


internalField   nonuniform List<scalar> 
171728
(
0.0035198
0.00351867
0.0035188
0.00351948
0.00348436
0.00348282
0.00348291
0.00348575
0.00344587
0.00344396
0.00344405
0.00344634
0.00340181
0.00340012
0.00340013
0.00340238
0.00335378
0.00335234
0.00335232
0.00335466
0.00330492
0.00330364
0.0033036
0.00330599
0.00325665
0.00325547
0.00325548
0.00325785
0.00320933
0.00320827
0.00320828
0.00321066
0.003163
0.00316209
0.00316209
0.0031645
0.00311766
0.00311685
0.00311689
0.00311929
0.00307322
0.00307252
0.00307254
0.00307494
0.00302954
0.00302898
0.00302895
0.00303134
0.00298644
0.00298607
0.00298599
0.00298826
0.00294374
0.00294355
0.00294338
0.00294582
0.00290135
0.00290104
0.00290105
0.00290328
0.00285934
0.00285906
0.00285902
0.00286144
0.00281763
0.00281759
0.00281742
0.00281964
0.00277625
0.00277634
0.00277626
0.00277848
0.00273525
0.00273525
0.00273521
0.00273724
0.0026946
0.00269455
0.00269463
0.00269657
0.00265429
0.00265451
0.00265438
0.00265621
0.00261427
0.00261442
0.00261447
0.00261608
0.00257453
0.00257473
0.00257484
0.00257634
0.00253508
0.00253545
0.00253545
0.00253695
0.00249586
0.00249625
0.0024963
0.00249795
0.0024569
0.00245736
0.00245732
0.00245883
0.00241813
0.0024186
0.00241856
0.00242045
0.00237961
0.00238014
0.00238009
0.00238193
0.00234129
0.0023418
0.00234179
0.00234368
0.00230317
0.00230376
0.00230381
0.00230563
0.00226519
0.00226588
0.00226572
0.00226772
0.00222732
0.00222794
0.00222804
0.00222988
0.0021897
0.00219037
0.00219033
0.00219218
0.00215217
0.00215288
0.00215291
0.00215471
0.0021148
0.00211545
0.00211541
0.00211731
0.00207751
0.00207811
0.00207814
0.00207994
0.00204032
0.0020409
0.00204091
0.00204285
0.00200346
0.00200396
0.00200393
0.00200574
0.00196645
0.00196689
0.00196694
0.00196894
0.00192989
0.00193028
0.00193027
0.00193217
0.00189324
0.00189338
0.00189338
0.00189541
0.00185669
0.00185714
0.00185719
0.00185951
0.00182039
0.00182042
0.00182034
0.00182179
0.00178415
0.00178409
0.00178415
0.00178686
0.0017482
0.00174872
0.00174866
0.00175051
0.00171257
0.00171197
0.00171208
0.0017137
0.00167615
0.00167636
0.00167631
0.00167865
0.00164051
0.00164052
0.00164053
0.00164253
0.00160497
0.00160449
0.00160433
0.00160669
0.00156917
0.00156947
0.00156955
0.00157151
0.00153454
0.00153395
0.00153407
0.00153596
0.00149897
0.00149857
0.00149835
0.00150048
0.00146332
0.00146338
0.00146336
0.00146537
0.00142818
0.00142786
0.00142815
0.00143035
0.00139336
0.00139328
0.00139291
0.00139484
0.00135847
0.00135788
0.00135822
0.00135998
0.00132346
0.00132316
0.00132321
0.00132531
0.00128857
0.0012887
0.00128838
0.00129033
0.00125367
0.00125331
0.00125363
0.00125539
0.00121932
0.00121868
0.00121858
0.00122071
0.00118434
0.00118442
0.00118443
0.00118641
0.00114972
0.00114979
0.00114983
0.00115146
0.00111549
0.00111465
0.00111471
0.00111655
0.00108049
0.00108062
0.00108039
0.00108263
0.00104589
0.00104581
0.00104605
0.00104793
0.00101154
0.00101109
0.00101115
0.0010129
0.000976996
0.000976963
0.000976724
0.000978707
0.00094294
0.000942667
0.000942718
0.000944485
0.000907941
0.000907645
0.000907802
0.000909773
0.000872676
0.000872918
0.000872589
0.000874755
0.000839519
0.000839706
0.000839535
0.000841384
0.000805418
0.000804326
0.000805207
0.000806697
0.000769318
0.000769223
0.000768919
0.000771019
0.000734664
0.000735393
0.000734672
0.000736988
0.000701255
0.000701456
0.0007015
0.000703459
0.000667797
0.000666657
0.000667414
0.000668812
0.00063182
0.000631256
0.000631328
0.00063317
0.000595625
0.000596418
0.000595803
0.000598348
0.000562081
0.000562522
0.000562382
0.00056441
0.000528751
0.000528215
0.000528489
0.000530126
0.000492905
0.000492357
0.000492574
0.000494475
0.000457274
0.000457293
0.000457312
0.000459297
0.00042293
0.000423035
0.000422924
0.000424778
0.000388
0.000387994
0.000387892
0.000390028
0.00035253
0.000352756
0.000352659
0.0003549
0.000317402
0.000317077
0.000317301
0.000319042
0.000282267
0.000281885
0.000282084
0.000283806
0.00024713
0.000247269
0.000247136
0.000249254
0.000211849
0.000212162
0.000211756
0.000214074
0.000175849
0.00017563
0.00017575
0.000177659
0.000139755
0.000139582
0.000140041
0.000141835
0.00010499
0.000105128
0.000105193
0.000107207
7.04138e-05
7.01791e-05
6.97637e-05
7.17786e-05
3.45591e-05
3.38167e-05
3.36743e-05
3.55253e-05
5.52457e-06
6.69857e-06
6.91535e-06
5.00024e-06
0.00352417
0.00352172
0.00352168
0.00352413
0.00352171
0.00352186
0.00352813
0.00352811
0.00352818
0.00352814
0.00352165
0.00352179
0.0035243
0.00352182
0.00352189
0.00352424
0.00351941
0.00349047
0.00351874
0.00351872
0.00349229
0.00349228
0.00351941
0.00349046
0.0035187
0.00351881
0.00349242
0.00349239
0.0035187
0.00349239
0.00349238
0.00351954
0.00349048
0.0035188
0.00349227
0.00349224
0.00349047
0.00348569
0.00345182
0.00348287
0.00348288
0.00345406
0.00345411
0.00348569
0.00345183
0.00348277
0.00348281
0.00345413
0.00345415
0.00348282
0.00345413
0.00345413
0.00348572
0.0034518
0.00348296
0.00345403
0.00345408
0.00345184
0.00344629
0.00340853
0.00344401
0.00344397
0.00341156
0.00341158
0.00344629
0.00340853
0.00344393
0.00344394
0.00341159
0.00341156
0.00344397
0.00341157
0.00341157
0.00344628
0.00340853
0.00344409
0.0034115
0.00341152
0.00340854
0.00340235
0.00336108
0.00340012
0.0034001
0.00336447
0.00336448
0.00340235
0.00336109
0.0034001
0.00340007
0.00336443
0.00336447
0.00340013
0.00336445
0.00336446
0.00340236
0.00336109
0.00340017
0.00336443
0.00336451
0.00336111
0.00335462
0.00331241
0.00335229
0.00335228
0.0033158
0.00331578
0.00335462
0.00331242
0.00335231
0.00335232
0.00331576
0.00331572
0.00335235
0.00331576
0.00331575
0.00335463
0.00331243
0.00335232
0.00331579
0.0033158
0.00331242
0.00330596
0.00326416
0.0033036
0.00330363
0.00326742
0.00326742
0.00330596
0.00326416
0.00330364
0.00330358
0.00326744
0.00326742
0.00330366
0.00326744
0.00326749
0.00330597
0.00326416
0.00330367
0.00326744
0.00326749
0.00326419
0.00325783
0.00321682
0.0032555
0.00325548
0.00322
0.00322
0.00325783
0.00321683
0.00325547
0.00325548
0.00322
0.00322
0.00325545
0.00322001
0.00321997
0.00325784
0.00321684
0.00325547
0.00321999
0.00322
0.00321683
0.00321064
0.00317049
0.0032083
0.00320827
0.00317356
0.00317355
0.00321063
0.00317051
0.00320829
0.00320826
0.00317356
0.00317354
0.00320833
0.00317355
0.00317359
0.00321065
0.00317052
0.00320836
0.00317354
0.00317364
0.00317052
0.00316445
0.00312515
0.00316209
0.00316207
0.0031281
0.00312809
0.00316445
0.00312513
0.00316209
0.00316207
0.00312811
0.00312807
0.00316215
0.00312809
0.00312814
0.00316447
0.00312516
0.00316213
0.00312807
0.00312814
0.0031252
0.00311923
0.0030807
0.00311688
0.00311685
0.00308356
0.00308354
0.00311922
0.00308067
0.00311686
0.00311686
0.00308357
0.00308353
0.0031169
0.00308353
0.00308363
0.00311925
0.00308072
0.00311691
0.00308352
0.00308363
0.00308074
0.00307491
0.00303701
0.00307255
0.00307253
0.0030398
0.0030398
0.00307488
0.00303698
0.00307255
0.00307254
0.00303981
0.00303984
0.00307257
0.00303981
0.00303991
0.00307493
0.00303702
0.00307254
0.00303983
0.00303994
0.00303706
0.00303134
0.0029939
0.003029
0.00302898
0.00299672
0.00299676
0.00303129
0.00299394
0.00302899
0.00302896
0.00299671
0.00299669
0.00302903
0.00299676
0.00299675
0.00303133
0.0029939
0.00302895
0.00299668
0.00299677
0.0029939
0.00298829
0.00295123
0.00298597
0.00298606
0.00295401
0.00295413
0.00298832
0.00295135
0.00298599
0.002986
0.00295401
0.00295405
0.00298604
0.00295414
0.00295404
0.00298829
0.00295125
0.00298597
0.00295403
0.00295402
0.00295133
0.00294571
0.0029089
0.00294339
0.00294352
0.00291165
0.00291169
0.00294582
0.00290889
0.00294339
0.00294338
0.00291166
0.00291174
0.00294359
0.00291169
0.00291151
0.00294569
0.00290891
0.00294355
0.00291172
0.0029115
0.00290877
0.0029034
0.00286687
0.00290112
0.00290103
0.00286963
0.00286973
0.00290338
0.00286685
0.00290112
0.00290108
0.00286961
0.00286962
0.00290099
0.00286971
0.00286951
0.00290339
0.00286679
0.002901
0.00286959
0.0028695
0.00286685
0.00286147
0.0028251
0.00285923
0.00285906
0.00282795
0.00282806
0.00286137
0.00282522
0.00285925
0.00285904
0.00282795
0.00282784
0.0028591
0.00282805
0.00282789
0.00286133
0.00282508
0.00285912
0.00282787
0.00282789
0.00282508
0.00281971
0.00278364
0.0028175
0.00281758
0.0027865
0.00278651
0.00281981
0.0027837
0.00281749
0.00281745
0.0027865
0.0027864
0.0028174
0.00278652
0.00278658
0.00281971
0.00278364
0.00281737
0.00278639
0.00278663
0.00278374
0.00277831
0.00274256
0.00277618
0.00277634
0.00274544
0.00274529
0.00277844
0.00274258
0.00277617
0.00277622
0.00274543
0.00274544
0.00277637
0.00274529
0.00274527
0.00277838
0.00274259
0.00277636
0.00274542
0.00274525
0.0027425
0.00273735
0.00270183
0.00273533
0.00273526
0.00270474
0.00270479
0.00273739
0.00270169
0.00273531
0.00273523
0.00270474
0.00270473
0.0027352
0.0027048
0.00270476
0.00273734
0.00270178
0.00273513
0.00270476
0.00270479
0.00270177
0.00269663
0.0026613
0.00269462
0.00269455
0.00266442
0.0026645
0.00269651
0.00266128
0.00269462
0.00269458
0.00266443
0.00266441
0.00269456
0.00266449
0.00266445
0.00269658
0.00266122
0.00269453
0.00266444
0.00266449
0.00266132
0.00265617
0.00262116
0.00265441
0.00265451
0.00262438
0.00262432
0.00265621
0.00262117
0.00265438
0.00265437
0.00262441
0.00262437
0.00265442
0.00262431
0.00262433
0.0026561
0.00262107
0.00265444
0.0026244
0.00262439
0.00262117
0.00261609
0.0025814
0.00261444
0.0026144
0.00258463
0.00258463
0.00261606
0.00258135
0.00261445
0.00261445
0.00258465
0.00258465
0.00261445
0.00258464
0.0025846
0.00261602
0.00258134
0.00261451
0.00258468
0.0025846
0.00258143
0.00257636
0.00254197
0.00257476
0.00257471
0.00254519
0.00254533
0.0025763
0.00254201
0.00257479
0.0025748
0.00254519
0.0025452
0.00257471
0.00254534
0.00254523
0.00257636
0.00254191
0.00257474
0.00254523
0.00254521
0.00254202
0.00253694
0.00250284
0.00253538
0.00253544
0.00250602
0.002506
0.00253706
0.00250272
0.00253539
0.00253541
0.00250601
0.002506
0.00253534
0.00250602
0.002506
0.00253697
0.00250281
0.00253533
0.00250598
0.002506
0.00250285
0.00249789
0.00246386
0.00249623
0.00249624
0.002467
0.00246702
0.0024978
0.00246386
0.00249622
0.00249627
0.00246702
0.00246695
0.00249625
0.00246704
0.00246693
0.00249788
0.00246393
0.00249625
0.00246694
0.00246694
0.00246379
0.0024589
0.00242525
0.0024573
0.00245734
0.00242828
0.00242825
0.00245897
0.00242538
0.0024573
0.00245734
0.00242827
0.00242816
0.00245728
0.00242825
0.00242829
0.00245901
0.0024252
0.00245729
0.00242819
0.00242827
0.00242537
0.00242038
0.00238689
0.00241865
0.00241861
0.00238972
0.0023897
0.00242039
0.00238665
0.00241864
0.00241854
0.00238974
0.00238973
0.00241862
0.00238972
0.00238972
0.0024203
0.00238691
0.00241861
0.00238973
0.00238972
0.00238683
0.00238193
0.00234856
0.00238012
0.00238013
0.00235142
0.00235139
0.0023818
0.00234882
0.00238014
0.0023801
0.00235142
0.0023513
0.00238015
0.00235141
0.00235139
0.00238197
0.00234856
0.00238015
0.00235134
0.0023514
0.0023486
0.00234366
0.00231059
0.00234185
0.00234179
0.00231328
0.00231327
0.00234383
0.00231035
0.00234187
0.00234175
0.00231331
0.00231338
0.00234183
0.00231327
0.00231328
0.0023437
0.00231065
0.00234185
0.00231336
0.00231329
0.00231054
0.00230569
0.00227262
0.00230378
0.00230375
0.00227531
0.00227532
0.00230555
0.00227267
0.0023038
0.00230389
0.00227531
0.00227518
0.00230377
0.00227533
0.00227531
0.00230581
0.00227264
0.00230377
0.00227521
0.00227529
0.00227262
0.00226771
0.00223475
0.00226584
0.00226589
0.00223745
0.00223743
0.00226772
0.00223487
0.00226583
0.00226563
0.0022374
0.0022373
0.00226584
0.00223742
0.00223742
0.00226763
0.0022346
0.00226582
0.00223749
0.00223742
0.00223477
0.00222984
0.00219707
0.00222798
0.00222792
0.00219973
0.00219965
0.00222994
0.00219694
0.00222795
0.00222794
0.00219977
0.00219983
0.00222798
0.00219974
0.00219976
0.00222977
0.0021972
0.00222799
0.00219971
0.00219977
0.00219708
0.00219216
0.00215965
0.00219035
0.00219032
0.00216225
0.0021623
0.00219208
0.00215967
0.0021904
0.00219044
0.00216227
0.00216226
0.00219033
0.00216226
0.00216226
0.00219228
0.00215959
0.00219034
0.00216228
0.00216224
0.00215961
0.00215477
0.00212213
0.00215289
0.00215292
0.00212479
0.00212478
0.00215476
0.00212221
0.00215289
0.00215285
0.00212476
0.0021247
0.0021529
0.00212479
0.00212476
0.0021547
0.00212217
0.00215288
0.00212476
0.00212476
0.00212218
0.00211725
0.00208489
0.00211545
0.00211544
0.00208745
0.00208743
0.00211732
0.00208483
0.00211542
0.00211538
0.00208746
0.00208747
0.00211542
0.00208745
0.00208746
0.00211728
0.00208486
0.00211543
0.00208747
0.00208746
0.00208485
0.00207999
0.00204763
0.00207812
0.00207809
0.00205018
0.00205017
0.00207994
0.0020477
0.00207814
0.00207814
0.00205018
0.00205017
0.00207813
0.00205016
0.00205016
0.00207996
0.0020477
0.00207812
0.00205019
0.00205018
0.00204768
0.00204279
0.00201073
0.00204089
0.00204092
0.00201318
0.00201319
0.00204284
0.00201068
0.00204088
0.00204091
0.00201319
0.00201318
0.00204089
0.00201321
0.00201322
0.00204285
0.00201064
0.00204091
0.00201318
0.00201319
0.00201067
0.00200584
0.00197371
0.00200397
0.00200394
0.00197616
0.00197614
0.00200581
0.00197373
0.00200397
0.00200392
0.00197616
0.00197614
0.00200393
0.00197614
0.00197608
0.00200576
0.00197379
0.00200391
0.00197615
0.00197612
0.00197373
0.00196889
0.00193705
0.0019669
0.00196691
0.00193942
0.00193943
0.00196889
0.00193708
0.0019669
0.00196694
0.0019394
0.00193943
0.00196691
0.00193942
0.00193953
0.00196894
0.00193702
0.00196694
0.00193943
0.00193948
0.00193714
0.00193218
0.00190032
0.00193026
0.00193026
0.00190268
0.00190261
0.00193221
0.00190023
0.00193025
0.00193023
0.0019027
0.00190261
0.00193026
0.00190261
0.00190237
0.00193217
0.00190025
0.00193018
0.00190258
0.00190241
0.00190011
0.00189545
0.00186381
0.00189348
0.00189341
0.00186603
0.00186611
0.0018954
0.00186396
0.00189348
0.00189344
0.00186605
0.00186614
0.00189335
0.00186614
0.00186669
0.00189542
0.00186399
0.00189345
0.00186621
0.00186675
0.00186448
0.00185903
0.00182746
0.00185698
0.00185707
0.00182971
0.00182971
0.00185917
0.00182732
0.001857
0.00185708
0.00182969
0.00182967
0.00185751
0.00182971
0.00182892
0.00185919
0.00182725
0.00185749
0.00182963
0.0018288
0.00182665
0.00182263
0.00179099
0.00182059
0.00182048
0.00179323
0.00179305
0.0018224
0.00179095
0.00182057
0.00182041
0.00179322
0.00179309
0.00181961
0.00179298
0.00179357
0.00182234
0.001791
0.00181955
0.00179303
0.00179365
0.0017915
0.00178614
0.00175515
0.00178412
0.0017841
0.0017572
0.00175753
0.00178624
0.0017555
0.00178409
0.00178419
0.00175725
0.00175748
0.00178499
0.00175767
0.0017579
0.00178628
0.00175545
0.00178508
0.00175767
0.00175786
0.00175563
0.00175046
0.00171928
0.00174837
0.00174858
0.00172156
0.0017212
0.00175069
0.00171891
0.00174842
0.00174846
0.00172151
0.00172131
0.00174844
0.00172111
0.00172041
0.00175064
0.00171901
0.00174834
0.00172117
0.00172038
0.00171833
0.00171442
0.00168302
0.00171242
0.0017121
0.00168501
0.00168527
0.00171409
0.00168321
0.00171241
0.00171228
0.00168506
0.00168516
0.00171161
0.00168521
0.00168548
0.00171417
0.00168313
0.00171163
0.00168515
0.00168558
0.00168346
0.00167825
0.00164739
0.00167607
0.00167637
0.00164954
0.00164949
0.00167846
0.00164737
0.00167606
0.0016762
0.00164945
0.00164943
0.00167658
0.00164957
0.00164944
0.00167841
0.00164739
0.00167664
0.00164959
0.0016493
0.00164735
0.0016426
0.0016114
0.00164061
0.00164039
0.00161345
0.00161334
0.00164252
0.00161134
0.00164058
0.00164051
0.00161355
0.00161344
0.00164043
0.00161333
0.00161355
0.00164254
0.00161128
0.00164026
0.00161327
0.00161358
0.00161142
0.00160663
0.0015761
0.00160449
0.00160452
0.00157808
0.0015782
0.00160661
0.00157622
0.00160456
0.00160447
0.00157805
0.00157809
0.00160459
0.0015782
0.00157821
0.00160654
0.00157621
0.00160472
0.00157821
0.00157832
0.00157624
0.0015714
0.00154073
0.00156936
0.00156945
0.0015429
0.00154293
0.00157154
0.00154072
0.00156931
0.00156938
0.00154289
0.00154303
0.00156942
0.00154294
0.00154279
0.00157153
0.00154082
0.00156949
0.00154311
0.00154276
0.00154071
0.00153599
0.0015055
0.00153394
0.00153394
0.00150754
0.00150737
0.00153595
0.00150536
0.00153398
0.00153407
0.00150752
0.00150729
0.00153389
0.00150732
0.00150737
0.00153603
0.00150524
0.00153385
0.00150717
0.00150726
0.00150524
0.00150076
0.00147008
0.00149878
0.00149866
0.00147218
0.00147234
0.00150066
0.00147026
0.00149875
0.00149849
0.00147216
0.00147228
0.00149853
0.00147224
0.00147212
0.0015005
0.00147016
0.00149842
0.0014721
0.00147201
0.00147008
0.00146529
0.0014345
0.00146318
0.00146341
0.00143648
0.00143635
0.00146545
0.00143453
0.00146318
0.00146348
0.00143656
0.00143672
0.00146333
0.00143665
0.00143701
0.00146544
0.00143476
0.00146326
0.00143701
0.00143715
0.00143508
0.00142979
0.00139998
0.0014278
0.00142761
0.00140208
0.00140204
0.00142983
0.00139996
0.00142785
0.00142775
0.00140191
0.0014016
0.00142822
0.00140195
0.00140169
0.00143002
0.00139962
0.00142843
0.00140163
0.00140168
0.00139958
0.00139533
0.00136486
0.00139342
0.0013935
0.00136692
0.00136699
0.00139531
0.00136475
0.00139325
0.00139302
0.00136699
0.00136712
0.00139288
0.00136678
0.00136667
0.00139492
0.00136496
0.00139265
0.00136688
0.00136663
0.00136466
0.00136013
0.00132961
0.00135802
0.001358
0.00133163
0.00133152
0.00135995
0.0013296
0.00135818
0.00135838
0.00133179
0.00133186
0.00135798
0.00133171
0.0013321
0.00136027
0.00132982
0.00135809
0.00133199
0.00133229
0.00133002
0.00132488
0.00129499
0.00132296
0.00132292
0.00129713
0.00129725
0.00132496
0.0012953
0.00132304
0.00132306
0.00129698
0.00129698
0.00132343
0.00129745
0.00129716
0.00132509
0.00129494
0.0013235
0.00129705
0.00129683
0.00129502
0.00129036
0.00126063
0.00128853
0.00128858
0.00126257
0.00126246
0.00129061
0.00126029
0.00128838
0.00128833
0.0012625
0.00126242
0.00128838
0.00126213
0.00126202
0.00129026
0.00126039
0.00128812
0.00126236
0.00126216
0.00126011
0.00125594
0.00122525
0.00125387
0.00125374
0.00122742
0.00122739
0.00125554
0.00122523
0.00125379
0.0012537
0.00122741
0.00122733
0.0012533
0.00122728
0.00122749
0.00125569
0.00122523
0.00125351
0.00122727
0.0012275
0.00122535
0.00122047
0.00119052
0.00121857
0.0012186
0.00119258
0.00119261
0.00122052
0.00119071
0.0012186
0.0012186
0.00119268
0.00119273
0.00121894
0.00119299
0.00119312
0.00122051
0.00119079
0.00121888
0.00119293
0.00119314
0.00119107
0.0011859
0.00115649
0.00118404
0.00118408
0.00115839
0.00115852
0.00118609
0.00115647
0.00118415
0.00118421
0.0011585
0.00115861
0.00118443
0.00115854
0.00115824
0.00118618
0.00115658
0.00118447
0.00115861
0.00115824
0.00115622
0.00115183
0.00112159
0.00114978
0.00114991
0.00112372
0.00112359
0.00115177
0.00112141
0.00114986
0.00114998
0.00112368
0.00112366
0.0011495
0.00112335
0.00112333
0.00115186
0.00112141
0.00114945
0.00112342
0.00112328
0.00112123
0.00111686
0.00108692
0.00111499
0.00111481
0.00108904
0.00108899
0.00111669
0.00108707
0.00111494
0.00111488
0.00108891
0.00108882
0.00111471
0.00108909
0.00108926
0.00111668
0.00108686
0.00111467
0.00108893
0.00108919
0.00108722
0.00108224
0.00105243
0.00108042
0.00108048
0.00105452
0.00105463
0.00108246
0.00105252
0.00108028
0.00108021
0.00105443
0.00105448
0.00108078
0.00105463
0.00105474
0.00108222
0.00105262
0.0010807
0.0010547
0.00105488
0.00105271
0.00104773
0.00101779
0.00104581
0.00104588
0.00101977
0.00101975
0.00104775
0.00101763
0.00104581
0.00104588
0.00101989
0.00101991
0.00104586
0.00101965
0.00101961
0.00104793
0.00101777
0.00104609
0.00101984
0.00101974
0.00101759
0.00101311
0.000983531
0.00101116
0.00101113
0.000985493
0.00098542
0.00101296
0.000983494
0.00101128
0.00101127
0.000985541
0.000985454
0.00101102
0.000985522
0.000985455
0.00101307
0.000983368
0.00101105
0.000985278
0.000985228
0.000983345
0.000978894
0.000949289
0.000976938
0.000976871
0.000951302
0.000951296
0.000978862
0.000949268
0.000976982
0.000976914
0.000951313
0.000951387
0.000976907
0.000951237
0.00095114
0.000978729
0.000949326
0.000976672
0.000951219
0.000951079
0.000949134
0.000944615
0.000914285
0.000942708
0.000942738
0.00091647
0.00091645
0.000944604
0.000914359
0.000942711
0.000942803
0.000916442
0.000916413
0.000942541
0.0009165
0.000916599
0.000944672
0.000914398
0.000942572
0.000916642
0.000916759
0.00091456
0.000909436
0.000879261
0.000907617
0.000907589
0.000881306
0.000881421
0.000909557
0.000879446
0.000907519
0.000907516
0.000881086
0.000881104
0.000907821
0.000881383
0.000881497
0.000909576
0.000879169
0.000907948
0.000881265
0.000881451
0.000879464
0.000874685
0.000846195
0.000872824
0.000873019
0.000847995
0.00084824
0.000874868
0.000846287
0.000872595
0.000872522
0.000847992
0.000847894
0.000872852
0.000848063
0.000847712
0.000874518
0.000846049
0.000872757
0.000847705
0.000847689
0.000845877
0.000841708
0.000811498
0.000839614
0.000839791
0.000813572
0.000813096
0.000841705
0.000811012
0.000839817
0.000839772
0.000814082
0.000814338
0.000839437
0.000813284
0.0008138
0.000841603
0.000811935
0.000839477
0.000814209
0.00081397
0.000811595
0.000806557
0.000775624
0.000804556
0.000804104
0.000777879
0.000777688
0.000806128
0.00077579
0.000804956
0.000805254
0.000777653
0.000777672
0.000804831
0.000777832
0.000777982
0.000807001
0.00077559
0.000804934
0.000777885
0.000777798
0.000775822
0.000770885
0.000741757
0.000769188
0.000769215
0.000743639
0.000744086
0.000771164
0.000742146
0.000768823
0.000768739
0.000743274
0.000742997
0.000769171
0.000743822
0.000743423
0.000770736
0.000741322
0.000768982
0.000743017
0.000743297
0.000741566
0.000737189
0.000707996
0.000735194
0.000735633
0.000709818
0.000710078
0.000737545
0.000708047
0.000734911
0.000734707
0.000709827
0.000709875
0.000734987
0.000710011
0.000709798
0.000736785
0.000708073
0.000734903
0.000709828
0.000709863
0.000708014
0.000703377
0.000673585
0.000701224
0.000701428
0.000675633
0.000675267
0.000703338
0.000673158
0.000701478
0.000701537
0.000676062
0.000676236
0.000701408
0.000675395
0.000675691
0.000703515
0.000673988
0.000701523
0.000676204
0.000675944
0.000673601
0.000668803
0.000638088
0.000666903
0.00066652
0.00064037
0.000640083
0.000668389
0.000637948
0.000667272
0.000667446
0.000640351
0.000640414
0.00066691
0.000640158
0.000640305
0.000669184
0.000638082
0.000667106
0.000640389
0.000640201
0.000638042
0.00063318
0.000602707
0.000631401
0.000631196
0.000604679
0.000604989
0.000633094
0.000603222
0.000631242
0.000631313
0.000604377
0.000604374
0.000631429
0.000604996
0.000604992
0.000633135
0.000602481
0.000631197
0.000604462
0.000604761
0.000603022
0.000598051
0.00056913
0.000596045
0.000596432
0.000570881
0.000571069
0.000598537
0.00056924
0.000595738
0.000595696
0.000570712
0.000570654
0.000596361
0.00057096
0.000570771
0.000597824
0.000569001
0.000596153
0.000570686
0.0005707
0.00056901
0.000564596
0.000535267
0.000562557
0.000562649
0.000537213
0.000537082
0.000564642
0.000534899
0.000562458
0.000562394
0.000537376
0.000537233
0.000562299
0.000537001
0.000536777
0.000564457
0.000535252
0.000562298
0.000537131
0.000536926
0.00053487
0.00053046
0.000499156
0.000528451
0.00052824
0.000501322
0.000501231
0.000530079
0.000499071
0.000528708
0.000528588
0.000501532
0.00050161
0.000528133
0.000501334
0.000501566
0.000530503
0.000499368
0.000528306
0.000501625
0.000501675
0.000499384
0.000494202
0.000463724
0.000492279
0.000492247
0.000465805
0.000465848
0.000494176
0.00046388
0.000492406
0.000492531
0.000465718
0.000465886
0.000492618
0.000465916
0.000466108
0.000494417
0.000463848
0.000492677
0.000465962
0.000466031
0.000464013
0.000459061
0.000429842
0.000457207
0.00045726
0.00043174
0.000431729
0.000459211
0.000429809
0.000457101
0.000457242
0.000431645
0.000431607
0.00045741
0.000431643
0.000431462
0.000459147
0.000429676
0.000457325
0.000431565
0.000431403
0.000429511
0.000425166
0.000394984
0.00042318
0.000423136
0.000396957
0.000396894
0.000425106
0.000394901
0.000423107
0.000423008
0.000396934
0.000396793
0.000422774
0.000396806
0.000396733
0.000424973
0.000394801
0.000422725
0.000396688
0.000396701
0.000394812
0.000390136
0.000359334
0.000388079
0.000388058
0.000361356
0.000361499
0.000390087
0.000359544
0.000388064
0.000387954
0.000361339
0.000361365
0.000388005
0.000361572
0.000361676
0.000389988
0.000359458
0.000387979
0.000361475
0.000361679
0.000359704
0.000354487
0.000323934
0.00035248
0.000352655
0.000325945
0.000325945
0.000354718
0.000323839
0.000352466
0.000352516
0.000326024
0.000326102
0.000352863
0.000325989
0.000326029
0.000354628
0.000324065
0.000352871
0.000326159
0.000326114
0.000323922
0.000319132
0.000288818
0.000317141
0.000317086
0.000290833
0.000290682
0.000318992
0.00028862
0.000317255
0.000317333
0.000290916
0.00029096
0.000317062
0.000290627
0.0002906
0.000319244
0.000288802
0.000317141
0.000290833
0.000290633
0.000288567
0.000284042
0.000253874
0.000282082
0.000281936
0.000255877
0.000255874
0.000283854
0.00025397
0.000282138
0.000282181
0.000255841
0.000255867
0.00028188
0.000255893
0.000255959
0.000284028
0.000253874
0.000281906
0.000255874
0.00025591
0.000253991
0.000249105
0.000218724
0.000247157
0.000247232
0.00022081
0.000220993
0.000249243
0.000219007
0.000247082
0.000247092
0.000220666
0.000220567
0.000247318
0.000221054
0.000221029
0.000249099
0.000218605
0.000247246
0.000220676
0.000220924
0.000218956
0.000213868
0.000182816
0.000211924
0.00021212
0.000184863
0.000184865
0.000214148
0.000182718
0.00021179
0.000211654
0.000184888
0.000184807
0.000212102
0.000184805
0.000184715
0.000213737
0.000182775
0.000212016
0.000184759
0.00018475
0.000182644
0.000177861
0.000146798
0.000175786
0.000175698
0.000148671
0.000148429
0.000177718
0.000146476
0.000175862
0.000175832
0.000148834
0.000148931
0.000175556
0.000148392
0.000148461
0.000177846
0.000146946
0.000175632
0.000148865
0.000148595
0.00014663
0.000141934
0.000111683
0.000139773
0.000139586
0.000113589
0.000113623
0.000141664
0.000111765
0.000139928
0.000140082
0.000113624
0.000113846
0.00013971
0.000113695
0.000113832
0.000142111
0.000111919
0.000139827
0.000113879
0.00011384
0.000111925
0.000106957
7.67613e-05
0.000105005
0.000105069
7.90076e-05
7.91316e-05
0.000107051
7.69557e-05
0.000105003
0.000105143
7.88484e-05
7.86672e-05
0.000105267
7.91088e-05
7.89832e-05
0.000107129
7.65168e-05
0.000105233
7.86567e-05
7.88384e-05
7.67226e-05
7.18428e-05
4.06802e-05
7.01129e-05
7.02186e-05
4.2875e-05
4.28877e-05
7.20081e-05
4.06957e-05
6.9972e-05
6.97881e-05
4.28208e-05
4.2717e-05
7.00106e-05
4.28621e-05
4.27832e-05
7.16042e-05
4.05008e-05
6.98873e-05
4.27105e-05
4.27571e-05
4.05917e-05
3.56044e-05
8.14385e-06
3.38096e-05
3.38284e-05
1.10322e-05
1.10506e-05
3.56194e-05
8.10598e-06
3.37628e-05
3.36541e-05
1.10841e-05
1.12515e-05
3.37614e-05
1.10464e-05
1.10445e-05
3.54099e-05
8.34259e-06
3.37446e-05
1.12807e-05
1.11324e-05
8.1806e-06
4.9861e-06
6.67668e-06
6.68174e-06
4.92727e-06
6.82244e-06
6.90431e-06
5.49053e-06
5.65586e-06
5.49699e-06
6.68414e-06
5.13634e-06
6.82474e-06
0.00353125
0.00353377
0.0035325
0.0035327
0.00355973
0.00353367
0.00356324
0.00353403
0.00355996
0.00353386
0.0035341
0.00356342
0.00354484
0.0035666
0.00356657
0.00350386
0.00351747
0.0035214
0.00349614
0.00349426
0.00349949
0.0035038
0.00351741
0.00352132
0.00349622
0.00351978
0.00351983
0.00351979
0.00349345
0.00349344
0.00349341
0.00349338
0.00350351
0.00351509
0.00352032
0.00351114
0.00352246
0.0035007
0.00351136
0.00349399
0.00349958
0.00350358
0.0035204
0.00351525
0.00351108
0.00352251
0.00351136
0.00350073
0.00352116
0.00352121
0.00350834
0.00350062
0.0035005
0.00347636
0.00349054
0.0034904
0.00347437
0.0034878
0.00347338
0.00347627
0.00349052
0.00349042
0.00347436
0.00348436
0.00348432
0.00348431
0.00345595
0.00345599
0.00345591
0.00345592
0.00347411
0.00348909
0.00348283
0.00347345
0.00348755
0.00347462
0.00347341
0.00348791
0.00347346
0.00347409
0.00348287
0.00348911
0.00347334
0.00348756
0.00347335
0.00347463
0.00349091
0.00349083
0.00347187
0.00347505
0.00347495
0.0034339
0.00344857
0.00344948
0.00343257
0.00344743
0.00343171
0.00343386
0.00344859
0.00344943
0.0034325
0.0034459
0.00344584
0.00344584
0.00341334
0.00341336
0.00341331
0.00341328
0.00343257
0.00344813
0.00344399
0.00343353
0.0034471
0.00343304
0.0034335
0.00344731
0.00343148
0.00343256
0.00344399
0.00344811
0.00343345
0.00344709
0.0034335
0.00343304
0.00344896
0.00344884
0.00343084
0.00343281
0.00343277
0.0033876
0.00340397
0.00340536
0.00338611
0.00340327
0.00338558
0.00338752
0.00340393
0.00340539
0.00338612
0.00340182
0.00340178
0.00340175
0.00336596
0.00336597
0.00336594
0.00336593
0.00338673
0.00340376
0.00340011
0.00338841
0.00340319
0.00338685
0.00338842
0.00340341
0.00338558
0.0033867
0.00340012
0.00340381
0.00338835
0.00340318
0.00338839
0.0033868
0.00340402
0.00340399
0.00338513
0.00338626
0.00338625
0.00333873
0.00335579
0.0033571
0.00333746
0.00335539
0.00333715
0.00333862
0.00335577
0.0033571
0.00333747
0.00335379
0.00335377
0.00335375
0.00331711
0.00331712
0.00331711
0.00331706
0.00333828
0.0033558
0.00335236
0.00334012
0.00335545
0.00333821
0.00334018
0.00335528
0.0033372
0.00333825
0.00335236
0.0033558
0.00334014
0.00335543
0.00334017
0.00333816
0.00335585
0.00335586
0.00333677
0.00333762
0.00333759
0.00328959
0.00330688
0.00330788
0.00328872
0.00330661
0.00328851
0.00328955
0.0033069
0.00330789
0.00328871
0.00330494
0.00330492
0.00330488
0.00326864
0.00326865
0.00326864
0.00326861
0.00328953
0.00330694
0.00330367