/*--------------------------------*- C++ -*----------------------------------*\
| =========                 |                                                 |
| \\      /  F ield         | OpenFOAM: The Open Source CFD Toolbox           |
|  \\    /   O peration     | Version:  v2012                                 |
|   \\  /    A nd           | Website:  www.openfoam.com                      |
|    \\/     M anipulation  |                                                 |
\*---------------------------------------------------------------------------*/
FoamFile
{
    version     2.0;
    format      ascii;
    class       volScalarField;
    location    "1487.5";
    object      nut;
}
// * * * * * * * * * * * * * * * * * * * * * * * * * * * * * * * * * * * * * //

dimensions      [0 2 -1 0 0 0 0];


internalField   nonuniform List<scalar> 
171728
(
1.67902e-06
1.65664e-06
2.23924e-06
2.22765e-06
1.70336e-06
1.63624e-06
2.21929e-06
2.29092e-06
1.70138e-06
1.64008e-06
2.21063e-06
2.39464e-06
1.70112e-06
1.66008e-06
2.19133e-06
2.45005e-06
1.70361e-06
1.69543e-06
2.16615e-06
2.40532e-06
1.70111e-06
1.74423e-06
2.13909e-06
2.27424e-06
1.70151e-06
1.79558e-06
2.09279e-06
2.21362e-06
1.70371e-06
1.83131e-06
2.04879e-06
2.17414e-06
1.71426e-06
1.85309e-06
2.00488e-06
2.08796e-06
1.70353e-06
1.84618e-06
1.93934e-06
1.9958e-06
1.67252e-06
1.81122e-06
1.85071e-06
1.91645e-06
1.58449e-06
1.73282e-06
1.74877e-06
1.83452e-06
1.56914e-06
1.59184e-06
1.63391e-06
1.70398e-06
1.56944e-06
1.40804e-06
1.54411e-06
1.5612e-06
1.55485e-06
1.24306e-06
1.46501e-06
1.43585e-06
1.57849e-06
1.0989e-06
1.39915e-06
1.3157e-06
1.49037e-06
1.00307e-06
1.34448e-06
1.21147e-06
1.44329e-06
9.57371e-07
1.24825e-06
1.14498e-06
1.45872e-06
9.39095e-07
1.1887e-06
1.15021e-06
1.4488e-06
1.03572e-06
1.23408e-06
1.28755e-06
1.41263e-06
1.25774e-06
1.34984e-06
1.64048e-06
1.37054e-06
1.56628e-06
1.6391e-06
2.29401e-06
1.2952e-06
2.0206e-06
2.08387e-06
3.67067e-06
1.22206e-06
2.90245e-06
2.82908e-06
5.22785e-06
1.12067e-06
3.76127e-06
3.89786e-06
8.52049e-06
1.04867e-06
5.14663e-06
5.11753e-06
1.21859e-05
1.01798e-06
7.12872e-06
7.15759e-06
1.83217e-05
9.05125e-07
8.69342e-06
8.73837e-06
2.27439e-05
9.97955e-07
1.19811e-05
1.20338e-05
3.35002e-05
8.93144e-07
1.40497e-05
1.4005e-05
3.54992e-05
1.11312e-06
1.83399e-05
1.84612e-05
5.05299e-05
1.32195e-06
2.19119e-05
2.18004e-05
4.74565e-05
1.57566e-06
2.54135e-05
2.56599e-05
6.53942e-05
2.00859e-06
3.24283e-05
3.20462e-05
8.0208e-05
2.69442e-06
3.37706e-05
3.47049e-05
5.75012e-05
2.96401e-06
4.20309e-05
4.07472e-05
7.71611e-05
4.74476e-06
4.72953e-05
4.8051e-05
8.09082e-05
5.31607e-06
5.09743e-05
5.09698e-05
8.42174e-05
7.14861e-06
6.18568e-05
6.0364e-05
9.10337e-05
8.99438e-06
6.2009e-05
6.49547e-05
9.03691e-05
1.08326e-05
7.15473e-05
6.77924e-05
9.32011e-05
1.53794e-05
7.63925e-05
7.97056e-05
0.000100874
1.42036e-05
8.30427e-05
8.26817e-05
0.000104561
2.24678e-05
8.94874e-05
8.8081e-05
0.000105821
2.69811e-05
9.35424e-05
9.84751e-05
0.000111748
2.60735e-05
0.000100993
9.71056e-05
0.000115817
3.30262e-05
0.000105549
0.000107557
0.000115923
4.73862e-05
0.000111632
0.000113803
0.000121364
4.79347e-05
0.000114579
0.000110764
0.0001275
4.53005e-05
0.000122237
0.000123998
0.000129055
6.38918e-05
0.000127053
0.000129135
0.000129647
6.4956e-05
0.000129287
0.00012703
0.000133889
6.69054e-05
0.000137001
0.000136684
0.000141784
8.27658e-05
0.000137338
0.000142066
0.000142727
8.18063e-05
0.000143479
0.00014048
0.000142242
9.44096e-05
0.000149137
0.00014878
0.00014874
0.000105212
0.000151363
0.000153928
0.000149097
0.000103632
0.000155522
0.000152634
0.000153236
0.000108336
0.00015959
0.000157905
0.000154402
0.00012534
0.000167484
0.000168403
0.000160767
0.000130917
0.000164814
0.000169771
0.000161618
0.000128699
0.000162192
0.000164687
0.000158409
0.00013279
0.000180739
0.000169403
0.000166828
0.000150343
0.000184911
0.000186711
0.000173849
0.000160446
0.000178056
0.000189576
0.000171045
0.000157098
0.000174237
0.000177923
0.000165738
0.000150016
0.000185352
0.000174259
0.000172857
0.000165932
0.000196857
0.000195221
0.000180782
0.000187365
0.000198514
0.000200619
0.000180975
0.000186424
0.000192078
0.000194366
0.000180901
0.000178171
0.000191249
0.000193115
0.000180279
0.00018043
0.000200188
0.000199071
0.000178137
0.000195431
0.000203354
0.000200349
0.000186477
0.000203544
0.00020814
0.00020742
0.000191648
0.000206367
0.000208184
0.000210104
0.000188274
0.000209575
0.000205826
0.000209916
0.000186188
0.00021046
0.000211357
0.000209066
0.000192512
0.000212248
0.000216087
0.000208683
0.000193549
0.000216019
0.000212982
0.000211566
0.000189635
0.000222635
0.000211705
0.000222638
0.000195444
0.00023123
0.000221809
0.000226895
0.000202594
0.000234547
0.000222452
0.000216207
0.000195796
0.000226909
0.000216029
0.000211085
0.000189422
0.000223209
0.000218244
0.000220169
0.000195062
0.000239679
0.000226641
0.000228221
0.000204063
0.000245949
0.000228082
0.000228222
0.000205959
0.000243891
0.000224599
0.000226455
0.000199548
0.000242295
0.000223028
0.000223554
0.000193482
0.000239718
0.000222056
0.000220636
0.000194199
0.000238954
0.000227523
0.000225352
0.000205304
0.000250338
0.000231059
0.000231632
0.000208886
0.000256198
0.000228637
0.000230006
0.000199387
0.000248624
0.000223735
0.000223286
0.000193827
0.000243236
0.000222583
0.000224939
0.000199446
0.000251018
0.000232058
0.000233107
0.00021134
2.29539e-06
2.58389e-06
2.23352e-06
2.23698e-06
2.13289e-06
2.11162e-06
1.66541e-06
1.52628e-06
1.48158e-06
1.64712e-06
2.0026e-06
2.16495e-06
2.24765e-06
2.53079e-06
3.20157e-06
2.24049e-06
2.29085e-06
2.24596e-06
2.1253e-06
1.99662e-06
2.12625e-06
1.98752e-06
2.23225e-06
2.19102e-06
1.82244e-06
1.7975e-06
1.79205e-06
1.76329e-06
1.98316e-06
1.63744e-06
1.968e-06
2.24607e-06
2.22029e-06
3.64188e-06
2.22113e-06
4.03946e-06
2.30123e-06
2.24249e-06
2.21442e-06
2.13385e-06
1.97883e-06
2.17093e-06
1.93456e-06
2.18919e-06
2.1552e-06
1.78539e-06
1.75283e-06
1.76385e-06
1.73075e-06
1.96844e-06
1.63773e-06
1.96569e-06
2.21928e-06
2.19569e-06
4.20757e-06
2.21475e-06
4.84784e-06
2.40882e-06
2.21118e-06
2.19686e-06
2.19337e-06
1.91046e-06
2.25632e-06
1.82942e-06
2.15393e-06
2.1359e-06
1.75725e-06
1.73087e-06
1.73674e-06
1.73408e-06
1.95873e-06
1.65439e-06
1.92028e-06
2.19524e-06
2.18428e-06
5.01866e-06
2.19705e-06
5.39196e-06
2.47292e-06
2.18923e-06
2.18544e-06
2.28418e-06
1.80205e-06
2.38421e-06
1.73058e-06
2.13539e-06
2.11496e-06
1.72988e-06
1.73144e-06
1.70451e-06
1.69645e-06
1.90773e-06
1.68434e-06
1.87758e-06
2.18406e-06
2.17291e-06
5.39054e-06
2.17192e-06
4.73506e-06
2.44998e-06
2.17681e-06
2.18299e-06
2.41985e-06
1.70714e-06
2.54921e-06
1.63513e-06
2.11383e-06
2.0892e-06
1.69458e-06
1.67743e-06
1.65816e-06
1.62001e-06
1.8702e-06
1.73163e-06
1.86286e-06
2.17229e-06
2.15471e-06
4.39184e-06
2.14655e-06
3.46866e-06
2.31621e-06
2.17405e-06
2.21847e-06
2.60056e-06
1.61036e-06
2.79679e-06
1.5355e-06
2.08727e-06
2.04866e-06
1.64538e-06
1.6017e-06
1.60543e-06
1.55146e-06
1.86242e-06
1.7827e-06
1.87491e-06
2.15327e-06
2.1252e-06
3.25972e-06
2.10538e-06
2.91255e-06
2.22564e-06
2.20926e-06
2.27722e-06
2.88364e-06
1.51132e-06
3.18843e-06
1.4347e-06
2.04547e-06
1.99215e-06
1.59161e-06
1.53511e-06
1.54972e-06
1.45943e-06
1.87973e-06
1.82341e-06
1.89318e-06
2.12297e-06
2.07653e-06
2.83244e-06
2.05835e-06
2.60944e-06
2.18622e-06
2.26421e-06
2.30636e-06
3.28678e-06
1.40639e-06
3.57835e-06
1.3168e-06
1.98668e-06
1.91601e-06
1.53464e-06
1.42259e-06
1.4906e-06
1.30357e-06
1.90046e-06
1.84947e-06
1.93355e-06
2.07126e-06
1.98291e-06
2.50465e-06
2.01861e-06
2.09239e-06
2.09718e-06
2.29597e-06
2.33405e-06
3.67227e-06
1.28799e-06
3.91201e-06
1.19917e-06
1.90783e-06
1.81072e-06
1.47604e-06
1.26419e-06
1.43233e-06
1.14736e-06
1.94408e-06
1.84991e-06
1.97054e-06
1.97398e-06
1.85677e-06
1.95036e-06
1.95867e-06
1.59624e-06
2.0053e-06
2.32174e-06
2.20498e-06
3.9586e-06
1.17281e-06
3.59254e-06
1.11052e-06
1.80401e-06
1.72225e-06
1.4175e-06
1.11194e-06
1.36609e-06
1.02204e-06
1.98542e-06
1.82269e-06
2.02119e-06
1.8446e-06
1.69005e-06
1.51483e-06
1.87431e-06
1.37352e-06
1.92413e-06
2.17785e-06
1.93258e-06
3.40848e-06
1.0967e-06
2.77013e-06
1.0675e-06
1.712e-06
1.61594e-06
1.34805e-06
9.88103e-07
1.2853e-06
8.92915e-07
2.01838e-06
1.75662e-06
1.92815e-06
1.6739e-06
1.50747e-06
1.34852e-06
1.77454e-06
1.30752e-06
1.84558e-06
1.90757e-06
1.69521e-06
2.55402e-06
1.05825e-06
1.99497e-06
1.02932e-06
1.60354e-06
1.51064e-06
1.26315e-06
8.71129e-07
1.1913e-06
8.16201e-07
1.87538e-06
1.63145e-06
1.69421e-06
1.4905e-06
1.3612e-06
1.29946e-06
1.66276e-06
1.27471e-06
1.72082e-06
1.67311e-06
1.51113e-06
1.82315e-06
1.02254e-06
1.42972e-06
1.07638e-06
1.49665e-06
1.43724e-06
1.1686e-06
8.02864e-07
1.09921e-06
8.91521e-07
1.63255e-06
1.45226e-06
1.45427e-06
1.35154e-06
1.35146e-06
1.26529e-06
1.56544e-06
1.22583e-06
1.58015e-06
1.49102e-06
1.37153e-06
1.3375e-06
1.11225e-06
1.16697e-06
1.22532e-06
1.42592e-06
1.41826e-06
1.07832e-06
9.06063e-07
1.01536e-06
1.04518e-06
1.40074e-06
1.27707e-06
1.2721e-06
1.35538e-06
1.45264e-06
1.21085e-06
1.47949e-06
1.16121e-06
1.45817e-06
1.34919e-06
1.25891e-06
1.13899e-06
1.26711e-06
1.07031e-06
1.52266e-06
1.41344e-06
1.42678e-06
9.97979e-07
1.29475e-06
9.45793e-07
2.85727e-06
1.24453e-06
1.12568e-06
1.17108e-06
1.48276e-06
1.90831e-06
1.14413e-06
1.40141e-06
1.09149e-06
1.34272e-06
1.23522e-06
1.15738e-06
1.04857e-06
1.67583e-06
9.91088e-07
2.31958e-06
1.42857e-06
1.5474e-06
9.29216e-07
3.60054e-06
8.88769e-07
5.61567e-06
1.14384e-06
1.01365e-06
1.0682e-06
2.03657e-06
2.72902e-06
1.0738e-06
1.35004e-06
1.02933e-06
1.23464e-06
1.13875e-06
1.09178e-06
9.78332e-07
2.57138e-06
9.45456e-07
3.04859e-06
1.57454e-06
1.65386e-06
8.81207e-07
6.14356e-06
8.63082e-07
6.32595e-06
1.04624e-06
9.50305e-07
9.97501e-07
2.79078e-06
2.66261e-06
1.01911e-06
1.27497e-06
9.95971e-07
1.15587e-06
1.08374e-06
1.09057e-06
9.42952e-07
3.14208e-06
9.59962e-07
3.1049e-06
1.65065e-06
1.62169e-06
8.64917e-07
6.08561e-06
8.84076e-07
5.05898e-06
9.89156e-07
9.3927e-07
9.78977e-07
2.55759e-06
1.92309e-06
9.99691e-07
1.22902e-06
1.01744e-06
1.14467e-06
1.10389e-06
1.1935e-06
9.71162e-07
2.95664e-06
1.03554e-06
2.39594e-06
1.56299e-06
1.53066e-06
8.91751e-07
4.00359e-06
9.76151e-07
2.14739e-06
9.91424e-07
1.04083e-06
1.04892e-06
1.80754e-06
1.41337e-06
1.03931e-06
1.20049e-06
1.10447e-06
1.25468e-06
1.2406e-06
1.47482e-06
1.07005e-06
2.10864e-06
1.18142e-06
1.68579e-06
1.52562e-06
1.47021e-06
1.01215e-06
1.92192e-06
1.14709e-06
1.75446e-06
1.07873e-06
1.16692e-06
1.22234e-06
1.46659e-06
1.7185e-06
1.13754e-06
1.30721e-06
1.25133e-06
1.54309e-06
1.54041e-06
2.20867e-06
1.25149e-06
1.63995e-06
1.49975e-06
1.70348e-06
1.62069e-06
2.21678e-06
1.22113e-06
1.80649e-06
1.4576e-06
1.77324e-06
1.29815e-06
1.43283e-06
1.52073e-06
1.78198e-06
2.06193e-06
1.33828e-06
1.52834e-06
1.50478e-06
2.16663e-06
2.35253e-06
3.19623e-06
1.59411e-06
1.82866e-06
1.95722e-06
2.08584e-06
2.3201e-06
3.4848e-06
1.54963e-06
1.8056e-06
1.91635e-06
1.98601e-06
1.60474e-06
1.93575e-06
2.1128e-06
2.19869e-06
3.28817e-06
1.59249e-06
1.9717e-06
2.04125e-06
3.30897e-06
3.53176e-06
5.02353e-06
2.08936e-06
2.1147e-06
2.7482e-06
2.73047e-06
3.66787e-06
4.94777e-06
2.04528e-06
2.06465e-06
2.66272e-06
2.60443e-06
2.2157e-06
2.66384e-06
2.77795e-06
3.44997e-06
4.89123e-06
2.11822e-06
2.62245e-06
2.69743e-06
4.7642e-06
5.47255e-06
7.63249e-06
3.01641e-06
2.95575e-06
3.48712e-06
3.50085e-06
5.5846e-06
7.40528e-06
2.89346e-06
2.86095e-06
3.47299e-06
3.62718e-06
3.08015e-06
3.45481e-06
3.80333e-06
5.47236e-06
7.74103e-06
2.93674e-06
3.6199e-06
3.62018e-06
8.07338e-06
8.13258e-06
1.1536e-05
3.89569e-06
3.82067e-06
5.12022e-06
4.85468e-06
7.77153e-06
1.165e-05
3.82057e-06
3.87698e-06
4.85594e-06
4.76279e-06
4.13375e-06
4.78105e-06
5.12624e-06
8.33819e-06
1.1029e-05
3.95741e-06
4.76808e-06
4.73001e-06
1.13337e-05
1.25219e-05
1.60777e-05
5.19337e-06
5.29299e-06
6.9528e-06
6.74958e-06
1.26735e-05
1.69726e-05
5.05181e-06
5.16216e-06
6.6595e-06
6.7953e-06
5.37835e-06
6.66642e-06
7.41989e-06
1.18384e-05
1.69643e-05
5.08314e-06
6.67154e-06
6.81756e-06
1.70209e-05
1.7336e-05
2.35286e-05
7.81094e-06
7.12894e-06
8.28264e-06
8.3311e-06
1.80623e-05
2.20946e-05
7.31223e-06
7.19024e-06
8.33994e-06
8.11254e-06
7.87065e-06
8.13363e-06
8.56226e-06
1.80479e-05
2.1623e-05
7.24963e-06
8.11008e-06
8.033e-06
2.20227e-05
2.3901e-05
2.92235e-05
8.71925e-06
8.96622e-06
1.201e-05
1.15073e-05
2.30263e-05
3.01658e-05
8.63307e-06
8.83979e-06
1.13405e-05
1.1642e-05
9.28922e-06
1.13357e-05
1.24463e-05
2.27352e-05
3.03543e-05
8.58422e-06
1.14506e-05
1.16523e-05
3.10848e-05
3.17047e-05
3.70302e-05
1.28918e-05
1.20488e-05
1.31911e-05
1.3402e-05
3.19754e-05
3.58013e-05
1.2375e-05
1.20629e-05
1.32363e-05
1.31382e-05
1.34906e-05
1.33454e-05
1.38322e-05
3.21002e-05
3.53261e-05
1.27486e-05
1.31234e-05
1.28766e-05
3.62097e-05
3.74418e-05
4.31358e-05
1.38761e-05
1.41436e-05
1.77198e-05
1.73268e-05
3.66151e-05
4.35758e-05
1.38803e-05
1.42511e-05
1.7605e-05
1.77397e-05
1.34469e-05
1.70187e-05
1.84669e-05
3.6235e-05
4.43507e-05
1.27171e-05
1.75042e-05
1.88473e-05
4.74577e-05
4.50464e-05
5.15236e-05
1.8507e-05
1.86382e-05
2.09742e-05
2.141e-05
4.5674e-05
5.17855e-05
1.82817e-05
1.84357e-05
2.08088e-05
2.11564e-05
2.01329e-05
2.14565e-05
2.18286e-05
4.63656e-05
5.06516e-05
2.01513e-05
2.109e-05
2.0509e-05
4.87113e-05
5.28458e-05
5.69801e-05
2.22532e-05
2.212e-05
2.60215e-05
2.47739e-05
5.2676e-05
5.57318e-05
2.21394e-05
2.21025e-05
2.53999e-05
2.45709e-05
2.1288e-05
2.40449e-05
2.20611e-05
5.15247e-05
5.61494e-05
1.96448e-05
2.40016e-05
2.41656e-05
5.5349e-05
5.83619e-05
6.26023e-05
2.65301e-05
2.60406e-05
2.93655e-05
3.03736e-05
5.71908e-05
6.39466e-05
2.6141e-05
2.59538e-05
2.94161e-05
3.08155e-05
2.94241e-05
3.0911e-05
3.94524e-05
5.7728e-05
6.39275e-05
3.23579e-05
3.14943e-05
4.09178e-05
8.07895e-05
6.36509e-05
6.87275e-05
3.09067e-05
3.19915e-05
3.48069e-05
3.40641e-05
6.53616e-05
6.7667e-05
3.06945e-05
3.18047e-05
3.50141e-05
3.37745e-05
4.00349e-05
3.36354e-05
3.41445e-05
6.51364e-05
6.76084e-05
4.13695e-05
3.30389e-05
3.2704e-05
5.90026e-05
7.00485e-05
7.28148e-05
3.63546e-05
3.46558e-05
3.92744e-05
3.98405e-05
6.82253e-05
7.32401e-05
3.66538e-05
3.53999e-05
3.88407e-05
4.05683e-05
3.3039e-05
3.91777e-05
3.54498e-05
6.86363e-05
7.29055e-05
3.11343e-05
3.98677e-05
3.75472e-05
7.2256e-05
7.35952e-05
7.83853e-05
4.00524e-05
4.23013e-05
4.631e-05
4.65984e-05
7.51176e-05
7.86073e-05
3.95871e-05
4.09895e-05
4.6364e-05
4.50887e-05
4.17181e-05
4.74035e-05
5.07644e-05
7.39601e-05
7.82607e-05
4.32123e-05
4.56871e-05
5.04834e-05
8.1008e-05
7.9726e-05
8.22636e-05
4.8172e-05
4.68708e-05
5.06887e-05
4.90128e-05
7.90365e-05
8.08333e-05
4.79057e-05
4.80071e-05
5.11645e-05
5.15395e-05
5.1241e-05
4.83315e-05
4.92592e-05
7.95886e-05
8.24939e-05
5.02439e-05
5.02805e-05
4.8359e-05
8.22243e-05
8.29813e-05
8.68839e-05
5.14629e-05
5.11858e-05
5.75765e-05
5.95473e-05
8.22712e-05
8.83141e-05
5.27822e-05
5.19706e-05
5.65512e-05
5.73194e-05
5.08454e-05
5.98591e-05
6.13482e-05
8.30963e-05
8.67018e-05
5.35448e-05
5.80468e-05
6.659e-05
9.06303e-05
8.81363e-05
9.07246e-05
6.04352e-05
6.17694e-05
6.39168e-05
6.31144e-05
8.90992e-05
8.97798e-05
5.8703e-05
5.90919e-05
6.42741e-05
6.48861e-05
6.32367e-05
6.26641e-05
6.52941e-05
8.80696e-05
9.10888e-05
6.78306e-05
6.44745e-05
6.77811e-05
9.02999e-05
9.1099e-05
9.47514e-05
6.32834e-05
6.2357e-05
6.85801e-05
6.83018e-05
9.01072e-05
9.4351e-05
6.43533e-05
6.62134e-05
6.78672e-05
6.68776e-05
6.46513e-05
6.77256e-05
6.30197e-05
9.1599e-05
9.28968e-05
6.72068e-05
6.60453e-05
6.27537e-05
9.16288e-05
9.64707e-05
9.95212e-05
7.20028e-05
7.20895e-05
7.87965e-05
7.64742e-05
9.60354e-05
9.90635e-05
7.07952e-05
6.8323e-05
7.85126e-05
7.71671e-05
6.82007e-05
7.66796e-05
7.65069e-05
9.38657e-05
0.000100165
6.30369e-05
7.68923e-05
7.70181e-05
0.000100134
9.95902e-05
9.92367e-05
7.91815e-05
7.68974e-05
7.61008e-05
7.9877e-05
9.94114e-05
0.000101714
7.93893e-05
7.98474e-05
7.73191e-05
8.26097e-05
7.71923e-05
8.07989e-05
8.2476e-05
0.000101127
0.000102059
8.00681e-05
8.33197e-05
8.63371e-05
0.000103852
0.000100932
0.000110208
7.76525e-05
8.14245e-05
9.22741e-05
8.8623e-05
0.000102802
0.00010682
7.79094e-05
8.18092e-05
9.02415e-05
8.43135e-05
8.50857e-05
8.79718e-05
8.83272e-05
0.000102044
0.000105417
8.77004e-05
8.41066e-05
8.79586e-05
0.000105616
0.000110861
0.000109841
9.45564e-05
9.12744e-05
9.55487e-05
9.52789e-05
0.000107671
0.000110086
9.33495e-05
8.85913e-05
9.66692e-05
9.77775e-05
8.7752e-05
9.32251e-05
9.19321e-05
0.000107422
0.00011231
8.70978e-05
9.70396e-05
9.23018e-05
0.000110051
0.000109603
0.000110616
9.5447e-05
9.48818e-05
9.30517e-05
9.5295e-05
0.000110422
0.000112224
9.69963e-05
9.91265e-05
9.54538e-05
9.91687e-05
9.54022e-05
9.80482e-05
0.000102429
0.000112621
0.000112038
9.58979e-05
9.8238e-05
0.000102073
0.000115598
0.000111195
0.000119601
9.25734e-05
9.78176e-05
0.000106608
0.000104762
0.000113428
0.000118287
9.448e-05
9.80372e-05
0.000104375
0.000103203
0.000103356
0.000105383
0.000103899
0.000112045
0.000118315
0.000101994
0.000103436
0.000102112
0.000115671
0.000121352
0.000123873
0.000110914
0.000106583
0.000116286
0.000112295
0.000118784
0.000121291
0.000108646
0.000107511
0.000114778
0.000113561
0.000104015
0.000109482
0.000107559
0.000120319
0.000122728
0.0001035
0.000113419
0.000108127
0.000120093
0.000123943
0.0001233
0.000116657
0.00011388
0.000115684
0.000114749
0.000122113
0.000123783
0.000115296
0.000113954
0.000113899
0.000111953
0.000109901
0.000114287
0.000117297
0.000122603
0.000121067
0.00010995
0.000111844
0.000116981
0.000126702
0.000123171
0.000128648
0.000114606
0.000114025
0.0001179
0.000117901
0.000123958
0.00012773
0.000112767
0.000110769
0.000119449
0.000120371
0.000119167
0.000119643
0.000121982
0.000121378
0.000130007
0.000119195
0.000120125
0.000123034
0.000128994
0.000130525
0.000133283
0.000121864
0.00012119
0.000128017
0.000128149
0.000129157
0.000133097
0.000123246
0.000124378
0.000128702
0.000129177
0.000121572
0.000127038
0.000121933
0.000131763
0.000133829
0.00012327
0.000128913
0.000122274
0.000129198
0.000133272
0.000132463
0.000128424
0.000128837
0.000126708
0.000127858
0.000133295
0.000133668
0.000129081
0.000129374
0.000127567
0.0001278
0.000124198
0.000127579
0.000128414
0.00013375
0.000132765
0.000122021
0.000127796
0.000124537
0.000132925
0.000132686
0.000139027
0.000126445
0.000128534
0.000135089
0.000135561
0.000134228
0.000139225
0.000126709
0.000127002
0.000133552
0.000133881
0.000129849
0.000135566
0.000136333
0.000132824
0.000138806
0.000126942
0.000133446
0.000137125
0.000140691
0.000140077
0.000141138
0.000137369
0.000137196
0.000140093
0.000138678
0.00013985
0.000140338
0.000136211
0.000136694
0.000139455
0.000140062
0.000138133
0.000137765
0.000140404
0.000140186
0.000142177
0.000139898
0.000141621
0.000143241
0.000142817
0.000140929
0.000141712
0.000139838
0.000138254
0.00013783
0.00013925
0.000140183
0.000142531
0.000139125
0.000140061
0.000139076
0.000138597
0.000140136
0.000140858
0.000137961
0.000142181
0.000141548
0.000143322
0.000141221
0.000142062
0.000141615
0.000143284
0.000149645
0.000139871
0.000141928
0.000149265
0.000147101
0.000144036
0.00014784
0.000142309
0.000138956
0.000150652
0.000148627
0.000140159
0.000148957
0.000149206
0.000141679
0.000148079
0.000141279
0.000145773
0.00014517
0.000148009
0.000149923
0.000149494
0.000150738
0.000147803
0.000151889
0.000151178
0.000147939
0.000149167
0.000151909
0.000151369
0.000152616
0.00015477
0.000150673
0.000149641
0.000151421
0.000149496
0.000151959
0.000147916
0.000153653
0.000150868
0.000149206
0.000149298
0.000149813
0.000151576
0.00015287
0.000150963
0.0001561
0.000150191
0.000153116
0.0001524
0.000154913
0.000151507
0.00015304
0.000150972
0.000155391
0.000152707
0.000151927
0.00015004
0.0001509
0.000152923
0.000154001
0.000152212
0.000150504
0.00015435
0.000153054
0.000156089
0.000158164
0.000158833
0.000153088
0.000154445
0.000151583
0.000152482
0.000154191
0.000149084
0.000155295
0.00015635
0.000158298
0.000149663
0.000151729
0.00015596
0.000156003
0.000158613
0.000154616
0.000155274
0.000161231
0.000160234
0.000161968
0.000166355
0.000166405
0.000156305
0.000162432
0.000156759
0.000153519
0.000167268
0.000170437
0.000157924
0.000166784
0.000163767
0.000153388
0.000163597
0.000158408
0.000166381
0.000163511
0.000159426
0.000161765
0.000161069
0.000166933
0.000167253
0.00016673
0.000162156
0.000162505
0.000155951
0.000169181
0.000172553
0.000170979
0.000175633
0.000166245
0.000165669
0.000168727
0.000164568
0.000164703
0.000165914
0.000170719
0.000168711
0.000161967
0.000160629
0.000157397
0.000165724
0.000161208
0.000162896
0.000157185
0.00015533
0.000155816
0.000169764
0.000172336
0.000166327
0.00016365
0.000168552
0.000161373
0.000167173
0.000163268
0.000155786
0.000168732
0.000165791
0.000167615
0.000158838
0.000157355
0.000165989
0.000161789
0.000163771
0.000174696
0.000183048
0.000158728
0.000173228
0.000165194
0.000162388
0.000166997
0.000160257
0.000165893
0.000177212
0.000169493
0.000154821
0.000159605
0.000166534
0.000163346
0.000168063
0.000164368
0.000168048
0.000172628
0.000178345
0.000185366
0.000183282
0.000188388
0.000174318
0.000175403
0.000172113
0.000167833
0.000182617
0.000185666
0.000174132
0.000184403
0.000182961
0.000163034
0.000176067
0.00017282
0.00018452
0.000183035
0.000173653
0.000172802
0.000172186
0.000183768
0.000187779
0.000184065
0.000178035
0.00017477
0.00016637
0.000183998
0.000188125
0.00018526
0.000192061
0.000183908
0.000179904
0.000185102
0.000176992
0.000178211
0.0001842
0.00019
0.000185721
0.000172048
0.000171681
0.000167741
0.000182164
0.000175728
0.000177512
0.00017253
0.000165574
0.000162609
0.000185209
0.000191944
0.000180329
0.000179432
0.000182986
0.000175363
0.000178406
0.000176985
0.00016647
0.00018383
0.000179504
0.000178813
0.000166364
0.000167353
0.000167719
0.00017694
0.000171072
0.000175006
0.000179954
0.000162905
0.000172888
0.000179344
0.000177129
0.000176877
0.000172492
0.000177574
0.000180901
0.000177937
0.000165727
0.000163688
0.000178101
0.000173695
0.000176796
0.000170434
0.000169009
0.000181211
0.000179372
0.000185464
0.000193952
0.000196987
0.000175293
0.00018299
0.000176272
0.000171759
0.000191041
0.000189977
0.000182783
0.000195204
0.000192719
0.000165056
0.00018063
0.000181309
0.000191369
0.000192349
0.000180399
0.000182626
0.000185617
0.000196989
0.000198696
0.000200724
0.000200928
0.000183488
0.000183875
0.0001951
0.0001949
0.000199875
0.000201047
0.000194399
0.000198689
0.000196273
0.000182417
0.000185962
0.000194337
0.000200016
0.000196713
0.000181092
0.000185002
0.000177587
0.000201372
0.000200368
0.000193533
0.000192296
0.000182967
0.000176638
0.000200769
0.000201932
0.000195382
0.000197435
0.000196323
0.000192972
0.00019587
0.000185521
0.000179509
0.000196805
0.000195481
0.000196188
0.000180958
0.000176926
0.000176102
0.000191872
0.000191072
0.000189134
0.000188741
0.000176119
0.000176451
0.000193553
0.000195612
0.000191088
0.00019329
0.000195784
0.000190269
0.000195194
0.00017902
0.000178563
0.000195937
0.000192401
0.000195162
0.000180532
0.000176782
0.000183979
0.000189211
0.000189448
0.000198356
0.000198733
0.000177494
0.000184126
0.000190552
0.000192823
0.000197485
0.000197412
0.000195
0.000198783
0.000194348
0.000179101
0.000183243
0.000194978
0.000198362
0.00019443
0.000178519
0.000184761
0.000186534
0.000200451
0.000200785
0.000204272
0.000204055
0.000184725
0.000186244
0.000199694
0.000199095
0.000203541
0.000201503
0.0001937
0.000202173
0.000200398
0.000183573
0.000184034
0.000193732
0.000199764
0.000199232
0.000184892
0.000186547
0.000187616
0.000204789
0.000204978
0.000206059
0.000207541
0.000186579
0.000189478
0.000204189
0.000201928
0.000204665
0.000203735
0.000203492
0.000207552
0.00020875
0.000184044
0.000187479
0.000202567
0.000205754
0.000209035
0.000191583
0.000187955
0.000190133
0.000206856
0.000207901
0.00020833
0.000208646
0.000189622
0.000189396
0.000205347
0.000204856
0.000208791
0.000209328
0.000209494
0.000209169
0.000208612
0.000188166
0.000190696
0.000209796
0.000209763
0.000210045
0.000188949
0.000190105
0.00018976
0.000208612
0.000207983
0.000208438
0.000206504
0.000188917
0.000186975
0.000209431
0.000210363
0.000210507
0.000211967
0.000207257
0.000206305
0.000205404
0.000190794
0.000191553
0.000208531
0.000210122
0.000206479
0.000186211
0.000189592
0.000189513
0.000208355
0.000206215
0.000208154
0.000207872
0.000186526
0.000190312
0.000210484
0.000212523
0.000209213
0.000210232
0.000204698
0.000208605
0.00021094
0.000191473
0.000190083
0.000205888
0.000209208
0.000209217
0.00019185
0.000189761
0.000191234
0.000209524
0.000210613
0.000212331
0.000214603
0.000191418
0.000195104
0.000209082
0.000208662
0.000209028
0.000206325
0.000212683
0.000215161
0.000215411
0.000189567
0.000187327
0.000211167
0.000208759
0.000213747
0.000194194
0.000191302
0.000191928
0.000212751
0.000215416
0.000213047
0.000214018
0.000195101
0.000192251
0.000209534
0.000205829
0.000211786
0.000208017
0.000215359
0.000213756
0.000211758
0.000186812
0.000189737
0.000213975
0.000209307
0.000212238
0.000190318
0.000192028
0.000195111
0.00021309
0.000213383
0.00021455
0.000211432
0.000191797
0.000190559
0.00021296
0.000211861
0.000217655
0.000222269
0.00021127
0.00021067
0.000211273
0.000191127
0.000200146
0.000211844
0.000220387
0.000213648
0.000193642
0.000195742
0.000198518
0.00021611
0.000212009
0.000220454
0.000220149
0.000191407
0.000198845
0.000219269
0.000224308
0.000222048
0.000227334
0.000215858
0.000220661
0.000223466
0.000200947
0.00020416
0.000217808
0.000225584
0.000223835
0.000202304
0.00019862
0.000198807
0.000220997
0.000221254
0.00022336
0.000224088
0.000199194
0.000199484
0.000222535
0.000228579
0.000223286
0.000219627
0.000224689
0.000224634
0.000224323
0.000203324
0.000194577
0.000225203
0.000219476
0.000222605
0.000197796
0.000197591
0.000192588
0.00022226
0.000222416
0.000216675
0.000217025
0.000198097
0.000193102
0.000220455
0.000215945
0.000214592
0.000210943
0.000220454
0.000216587
0.000213784
0.000192827
0.000188315
0.000218875
0.000211991
0.0002132
0.000190149
0.000191961
0.000193717
0.000216032
0.000216497
0.000214319
0.000215835
0.000192477
0.000195243
0.00021399
0.000210019
0.000213139
0.000214616
0.000213166
0.00021509
0.000212228
0.000187763
0.000195756
0.000212548
0.000216117
0.000213841
0.000193446
0.000195224
0.000202248
0.000217209
0.000218851
0.0002255
0.0002252
0.000196556
0.000201898
0.000217259
0.000219226
0.000226205
0.000227319
0.000216431
0.000225611
0.000227408
0.000197455
0.000203374
0.000217936
0.000227244
0.000227538
0.000203513
0.000202493
0.000202584
0.000226648
0.000226101
0.000228621
0.000227349
0.000201952
0.000201529
0.000227441
0.000228403
0.000229515
0.000229373
0.000229174
0.000228556
0.000232444
0.000203398
0.000202222
0.000229053
0.00022916
0.000231866
0.000206526
0.000201993
0.000199854
0.000227796
0.000226599
0.000225212
0.000224965
0.000201076
0.000199668
0.000228587
0.000228271
0.000225483
0.000226077
0.00023319
0.000225146
0.000226906
0.000201769
0.00020076
0.000232449
0.000226421
0.000227568
0.000200976
0.000199648
0.000200019
0.000224761
0.000224732
0.000224961
0.000224961
0.000199495
0.000199671
0.000224988
0.000226024
0.000224963
0.000225415
0.000224155
0.000223481
0.000218522
0.000200642
0.000200104
0.000225221
0.000224815
0.00021935
0.000194024
0.00019975
0.000197787
0.000224732
0.000224546
0.000222892
0.000222858
0.000199327
0.000197772
0.000224608
0.000224359
0.000222674
0.000221548
0.000217876
0.00022216
0.000216342
0.000199313
0.000196365
0.00021839
0.000220859
0.000216819
0.000193209
0.000197506
0.00019763
0.000222548
0.000222675
0.000221915
0.000222987
0.000197378
0.00019985
0.000222334
0.000221281
0.000221716
0.000221345
0.000218402
0.000225536
0.000229676
0.000195878
0.00019837
0.000216994
0.000221991
0.000228043
0.000204323
0.000198216
0.000203225
0.000222947
0.000225167
0.000229033
0.000229267
0.000200661
0.00020377
0.000222918
0.000224319
0.000229121
0.000229872
0.000231835
0.000230414
0.000235587
0.000199577
0.000204601
0.000230879
0.000230764
0.000234704
0.000209451
0.000203533
0.000205934
0.000229945
0.000229846
0.000232675
0.000231612
0.000203763
0.000203083
0.000230017
0.000230662
0.000232863
0.000232674
0.000236634
0.000230065
0.000228779
0.000204733
0.000203878
0.000236127
0.00023276
0.000230839
0.000201209
0.00020529
0.000198953
0.000233227
0.00023098
0.000226468
0.00022587
0.000202425
0.000198751
0.000233254
0.000230643
0.00022606
0.000224544
0.000225578
0.00022451
0.000220546
0.000202569
0.000197772
0.000227153
0.000223886
0.000220818
0.000194437
0.000197969
0.000195493
0.000224369
0.000224529
0.000221768
0.000222763
0.000198244
0.000196882
0.000224116
0.00022369
0.000221831
0.000222787
0.00022021
0.000222839
0.000221582
0.000197355
0.000198132
0.000220385
0.000222785
0.000221079
0.000197941
0.0001952
0.000203418
0.00022106
0.000222279
0.000229461
0.000230323
0.000196683
0.000204154
0.0002211
0.000223344
0.000230068
0.000231992
0.000225461
0.000232154
0.000235665
0.00019888
0.000205221
0.00022531
0.000233223
0.0002358
0.000208136
0.000206398
0.000230369
0.000230916
0.000207003
0.000230615
0.000231811
0.00025331
0.000254511
0.000258499
0.000235871
0.000208136
0.00023611
2.33441e-06
2.16915e-06
1.04304e-06
1.14583e-06
1.31834e-06
1.88174e-06
5.57101e-07
1.34692e-06
1.22785e-06
2.41682e-06
1.36406e-06
1.71453e-06
2.24711e-06
1.67382e-06
1.47158e-06
1.12511e-06
1.38383e-05
1.06132e-06
1.56481e-05
1.07623e-05
1.3014e-05
1.3404e-06
1.33125e-05
1.26371e-06
1.50627e-05
1.53248e-06
1.49221e-06
1.65923e-06
1.70263e-06
1.54561e-06
1.50236e-06
1.67596e-06
1.33823e-06
3.25914e-07
1.59449e-06
1.64572e-06
1.3422e-06
4.33828e-07
1.60292e-06
1.06936e-05
1.29764e-05
1.21182e-06
1.78413e-06
5.36165e-07
2.2327e-06
1.20787e-06
1.79009e-06
6.558e-07
1.48118e-06
1.4799e-06
2.25376e-06
1.68303e-06
1.66889e-06
1.32965e-06
1.89576e-05
1.26454e-06
2.13712e-05
1.70275e-05
1.92229e-05
1.53546e-06
1.82276e-05
1.46747e-06
2.05831e-05
1.54569e-06
1.49999e-06
1.67388e-06
1.70162e-06
1.54598e-06