/*--------------------------------*- C++ -*----------------------------------*\
| =========                 |                                                 |
| \\      /  F ield         | OpenFOAM: The Open Source CFD Toolbox           |
|  \\    /   O peration     | Version:  v2012                                 |
|   \\  /    A nd           | Website:  www.openfoam.com                      |
|    \\/     M anipulation  |                                                 |
\*---------------------------------------------------------------------------*/
FoamFile
{
    version     2.0;
    format      ascii;
    class       volScalarField;
    location    "1487.5";
    object      p;
}
// * * * * * * * * * * * * * * * * * * * * * * * * * * * * * * * * * * * * * //

dimensions      [0 2 -2 0 0 0 0];


internalField   nonuniform List<scalar> 
171728
(
0.00351968
0.00351862
0.00351866
0.00351939
0.00348419
0.00348269
0.00348269
0.00348557
0.00344568
0.00344378
0.00344378
0.00344609
0.00340159
0.00339989
0.00339993
0.00340206
0.00335354
0.00335211
0.00335212
0.00335432
0.00330467
0.00330339
0.00330338
0.00330573
0.00325639
0.00325518
0.00325519
0.00325753
0.00320906
0.00320804
0.00320801
0.00321041
0.00316274
0.00316184
0.00316183
0.00316421
0.00311738
0.00311661
0.00311661
0.00311897
0.00307294
0.00307228
0.00307227
0.00307462
0.00302925
0.00302869
0.00302869
0.00303105
0.00298612
0.00298568
0.00298569
0.00298802
0.00294344
0.00294306
0.00294301
0.0029454
0.00290104
0.00290072
0.00290072
0.00290311
0.00285899
0.00285869
0.00285867
0.00286108
0.00281727
0.00281708
0.00281715
0.00281936
0.00277591
0.00277595
0.00277592
0.002778
0.00273489
0.0027349
0.0027348
0.00273701
0.00269429
0.00269421
0.00269435
0.00269629
0.002654
0.00265415
0.00265406
0.00265588
0.0026139
0.00261413
0.00261411
0.00261582
0.00257416
0.00257433
0.00257437
0.00257604
0.00253467
0.00253501
0.00253498
0.00253656
0.00249551
0.00249586
0.00249582
0.0024974
0.00245651
0.00245693
0.00245693
0.0024587
0.00241774
0.0024182
0.0024182
0.00241993
0.00237923
0.00237976
0.00237975
0.00238142
0.00234088
0.00234142
0.0023414
0.00234362
0.00230272
0.00230333
0.00230332
0.00230462
0.00226477
0.00226539
0.00226538
0.0022677
0.002227
0.00222766
0.00222765
0.00222913
0.00218935
0.00219014
0.00219016
0.00219239
0.00215167
0.00215224
0.0021522
0.0021541
0.00211429
0.00211497
0.00211494
0.00211662
0.00207716
0.00207778
0.00207779
0.00207954
0.00203995
0.00204053
0.00204051
0.00204252
0.00200308
0.00200364
0.00200371
0.00200551
0.00196611
0.00196643
0.00196642
0.0019683
0.00192923
0.0019297
0.00192959
0.00193179
0.00189283
0.00189308
0.00189324
0.00189515
0.00185639
0.00185667
0.00185649
0.00185857
0.00182016
0.0018202
0.00182034
0.00182218
0.00178362
0.00178382
0.00178377
0.00178614
0.00174783
0.00174777
0.00174766
0.00174962
0.00171171
0.00171176
0.00171202
0.00171387
0.00167617
0.00167598
0.00167568
0.00167816
0.00164027
0.00164011
0.00164018
0.00164217
0.00160438
0.00160447
0.00160466
0.0016064
0.0015693
0.00156886
0.00156859
0.00157102
0.0015337
0.00153351
0.00153355
0.00153567
0.00149814
0.00149812
0.00149824
0.0015002
0.0014634
0.00146289
0.00146282
0.00146476
0.00142802
0.00142784
0.0014277
0.00142979
0.00139291
0.00139265
0.00139278
0.00139481
0.0013581
0.00135777
0.00135781
0.00135966
0.00132308
0.00132289
0.00132269
0.00132489
0.00128827
0.00128802
0.00128807
0.00128988
0.00125397
0.00125343
0.0012538
0.00125553
0.0012184
0.00121799
0.00121813
0.0012202
0.00118379
0.00118406
0.00118328
0.00118543
0.00115004
0.0011501
0.00115009
0.00115201
0.00111543
0.00111449
0.00111545
0.00111688
0.00108032
0.0010799
0.00107975
0.00108169
0.00104571
0.00104601
0.00104527
0.00104757
0.0010113
0.00101175
0.0010115
0.00101366
0.000977379
0.000976793
0.000977338
0.000978767
0.00094273
0.000941909
0.000942243
0.000943967
0.000907936
0.000907978
0.000907872
0.000910009
0.000873753
0.000873977
0.000873751
0.000875719
0.000838906
0.00083886
0.000838719
0.000840659
0.000804135
0.00080368
0.000803784
0.000805896
0.000769651
0.000769537
0.000769691
0.000771392
0.00073543
0.000735227
0.000735395
0.000737151
0.000700844
0.000700717
0.000700684
0.000702738
0.000665977
0.000666337
0.000665844
0.00066822
0.000631218
0.000631136
0.000631078
0.000632997
0.000596433
0.000595803
0.00059652
0.000597955
0.000562035
0.000561884
0.000562077
0.000564007
0.000527658
0.000528015
0.000527286
0.000529599
0.000492251
0.00049203
0.000491824
0.0004938
0.000456431
0.000456446
0.000456867
0.000458688
0.000422381
0.000422419
0.000422674
0.000424573
0.000388277
0.00038802
0.00038779
0.000389872
0.000352544
0.000352406
0.000352335
0.000354318
0.000317111
0.000317042
0.000317083
0.00031887
0.000281943
0.000281913
0.000281861
0.000283884
0.000246317
0.000246508
0.000246451
0.000248697
0.000211159
0.00021128
0.000211355
0.000213452
0.000176275
0.000175801
0.000175942
0.000177659
0.000140504
0.000140272
0.000140158
0.000141936
0.000104344
0.000104619
0.00010451
0.00010672
6.88409e-05
6.90104e-05
6.91985e-05
7.12821e-05
3.45412e-05
3.39712e-05
3.38886e-05
3.56349e-05
6.40954e-06
7.21612e-06
7.03062e-06
5.11276e-06
0.00352407
0.00352166
0.00352166
0.00352408
0.0035216
0.00352174
0.00352802
0.00352805
0.00352807
0.00352808
0.0035216
0.00352176
0.00352417
0.00352171
0.00352185
0.00352424
0.00351931
0.00349035
0.00351861
0.00351869
0.00349213
0.0034921
0.00351935
0.00349038
0.0035186
0.00351867
0.0034922
0.0034921
0.00351863
0.00349221
0.00349225
0.00351939
0.00349032
0.00351871
0.00349225
0.0034922
0.00349035
0.0034856
0.00345167
0.00348281
0.00348281
0.00345389
0.00345384
0.0034856
0.00345166
0.00348272
0.00348276
0.00345394
0.00345393
0.00348279
0.00345396
0.003454
0.00348557
0.00345166
0.00348293
0.00345392
0.00345381
0.00345169
0.00344614
0.00340833
0.00344387
0.00344391
0.00341137
0.0034114
0.00344614
0.00340834
0.00344377
0.00344383
0.00341143
0.00341138
0.00344379
0.00341145
0.00341149
0.00344614
0.00340833
0.00344383
0.00341134
0.00341155
0.00340824
0.00340216
0.00336087
0.00339995
0.00339991
0.00336421
0.00336423
0.00340215
0.00336087
0.00339988
0.00339989
0.00336424
0.00336424
0.00339994
0.00336423
0.00336422
0.00340217
0.00336087
0.00339989
0.00336417
0.00336406
0.00336079
0.00335441
0.00331218
0.00335209
0.00335209
0.00331555
0.00331558
0.00335442
0.00331216
0.00335207
0.00335209
0.00331553
0.00331555
0.00335214
0.00331556
0.00331554
0.00335441
0.00331219
0.00335207
0.00331552
0.00331522
0.00331217
0.00330573
0.00326391
0.00330337
0.00330337
0.00326717
0.00326718
0.00330571
0.00326385
0.00330339
0.00330338
0.00326718
0.00326719
0.00330343
0.00326719
0.00326718
0.00330575
0.00326392
0.00330348
0.00326717
0.00326697
0.0032639
0.00325758
0.00321657
0.00325523
0.00325519
0.00321972
0.00321977
0.00325752
0.00321655
0.00325524
0.00325524
0.00321973
0.00321973
0.00325516
0.00321978
0.00321974
0.0032576
0.00321656
0.00325511
0.00321972
0.0032197
0.00321658
0.00321039
0.00317025
0.00320805
0.00320804
0.00317329
0.0031733
0.00321038
0.00317026
0.00320803
0.00320802
0.0031733
0.0031733
0.00320807
0.00317329
0.00317334
0.00321039
0.00317025
0.00320788
0.00317329
0.00317328
0.00317025
0.00316421
0.00312487
0.00316185
0.00316184
0.00312782
0.00312781
0.00316421
0.00312488
0.00316184
0.00316185
0.00312784
0.00312783
0.00316185
0.0031278
0.00312785
0.00316422
0.00312489
0.00316183
0.00312781
0.00312785
0.00312488
0.00311896
0.0030804
0.0031166
0.00311661
0.00308327
0.00308326
0.00311898
0.00308042
0.00311659
0.00311661
0.00308329
0.00308327
0.00311658
0.00308326
0.00308329
0.003119
0.00308041
0.0031166
0.00308326
0.00308326
0.00308042
0.00307461
0.00303671
0.00307225
0.00307228
0.00303951
0.0030395
0.00307464
0.0030367
0.00307226
0.00307229
0.00303952
0.00303954
0.00307226
0.00303951
0.00303954
0.00307464
0.00303675
0.00307226
0.00303952
0.00303952
0.00303674
0.00303103
0.00299363
0.0030287
0.0030287
0.00299639
0.00299639
0.00303104
0.00299361
0.0030287
0.0030287
0.00299638
0.00299642
0.00302867
0.00299639
0.00299636
0.00303105
0.0029936
0.00302868
0.00299641
0.00299635
0.00299361
0.002988
0.00295092
0.0029857
0.00298569
0.00295374
0.00295372
0.00298801
0.00295092
0.00298568
0.0029857
0.00295373
0.00295377
0.00298574
0.00295372
0.00295378
0.00298801
0.00295095
0.00298574
0.00295375
0.00295378
0.00295094
0.0029454
0.00290859
0.00294309
0.00294305
0.0029113
0.00291136
0.0029454
0.00290859
0.0029431
0.00294302
0.00291133
0.00291141
0.00294308
0.00291137
0.00291133
0.00294541
0.0029086
0.00294309
0.00291136
0.00291133
0.0029086
0.00290309
0.00286647
0.00290079
0.00290074
0.00286926
0.00286928
0.00290311
0.00286652
0.00290078
0.0029007
0.00286927
0.00286935
0.00290082
0.00286929
0.00286925
0.00290312
0.00286653
0.00290081
0.0028693
0.00286924
0.00286651
0.00286106
0.00282475
0.00285883
0.0028587
0.0028276
0.00282761
0.00286109
0.00282472
0.00285882
0.00285872
0.00282757
0.00282761
0.00285876
0.00282762
0.00282742
0.00286106
0.00282475
0.00285879
0.0028276
0.00282743
0.0028247
0.00281935
0.00278326
0.00281708
0.00281709
0.00278611
0.0027862
0.00281934
0.00278332
0.0028171
0.00281718
0.00278608
0.0027861
0.00281719
0.00278622
0.00278615
0.00281938
0.00278331
0.00281718
0.00278612
0.00278613
0.00278326
0.00277795
0.00274216
0.00277575
0.00277592
0.00274503
0.00274497
0.00277804
0.0027422
0.00277575
0.00277588
0.00274502
0.00274489
0.00277592
0.00274498
0.00274511
0.002778
0.00274206
0.00277592
0.00274497
0.00274512
0.00274225
0.00273695
0.00270147
0.00273488
0.00273485
0.00270444
0.0027044
0.00273696
0.00270135
0.0027349
0.00273474
0.00270448
0.00270456
0.00273493
0.00270443
0.00270442
0.00273684
0.00270157
0.00273492
0.00270454
0.00270441
0.0027015
0.00269631
0.00266108
0.00269438
0.00269416
0.00266409
0.00266423
0.00269615
0.00266098
0.00269441
0.00269437
0.00266412
0.0026642
0.00269438
0.00266424
0.0026641
0.00269635
0.00266098
0.00269439
0.00266416
0.0026641
0.002661
0.00265591
0.00262086
0.00265411
0.0026542
0.00262399
0.00262405
0.0026559
0.00262086
0.00265411
0.00265411
0.00262399
0.00262403
0.00265409
0.00262404
0.00262401
0.00265585
0.00262085
0.00265412
0.00262402
0.00262405
0.00262092
0.00261571
0.00258107
0.00261403
0.00261415
0.00258424
0.00258423
0.00261577
0.00258104
0.00261401
0.00261412
0.00258426
0.00258422
0.00261401
0.00258423
0.00258429
0.00261576
0.00258104
0.002614
0.00258421
0.00258432
0.00258108
0.002576
0.00254159
0.00257437
0.00257434
0.00254478
0.00254485
0.00257595
0.00254159
0.0025744
0.00257438
0.00254479
0.00254482
0.00257432
0.00254487
0.00254479
0.00257597
0.00254161
0.00257428
0.00254481
0.00254483
0.00254156
0.00253659
0.00250246
0.00253498
0.00253499
0.00250557
0.00250559
0.00253662
0.00250236
0.00253501
0.00253498
0.00250555
0.00250561
0.00253501
0.00250557
0.00250554
0.00253661
0.00250241
0.00253498
0.00250561
0.00250559
0.00250241
0.00249749
0.00246357
0.00249583
0.00249585
0.00246665
0.00246665
0.00249744
0.00246361
0.00249583
0.00249582
0.00246665
0.00246663
0.00249583
0.00246665
0.00246659
0.00249745
0.00246352
0.00249583
0.00246664
0.00246662
0.0024636
0.00245859
0.00242495
0.00245692
0.00245693
0.00242789
0.00242786
0.00245863
0.00242486
0.00245691
0.00245692
0.0024279
0.00242787
0.0024569
0.00242787
0.00242785
0.0024586
0.00242486
0.00245693
0.00242786
0.00242786
0.0024249
0.00242009
0.00238622
0.00241826
0.0024182
0.00238927
0.00238934
0.0024199
0.00238639
0.00241828
0.0024182
0.00238929
0.00238934
0.00241812
0.00238934
0.00238941
0.0024199
0.00238644
0.00241817
0.00238935
0.00238939
0.00238635
0.00238133
0.00234843
0.00237976
0.00237975
0.00235099
0.00235099
0.00238152
0.0023483
0.00237974
0.00237974
0.00235101
0.002351
0.00237977
0.00235099
0.00235098
0.00238156
0.00234827
0.00237976
0.002351
0.00235097
0.0023485
0.0023435
0.0023099
0.0023414
0.00234141
0.00231281
0.00231282
0.00234334
0.00230999
0.00234143
0.00234141
0.00231283
0.00231284
0.00234149
0.00231283
0.00231275
0.0023433
0.00231
0.0023415
0.00231284
0.00231276
0.00230944
0.00230502
0.00227228
0.00230332
0.00230332
0.00227493
0.00227486
0.00230513
0.00227227
0.00230332
0.00230333
0.00227491
0.00227485
0.0023033
0.00227487
0.00227475
0.00230514
0.00227225
0.00230331
0.00227487
0.00227465
0.00227249
0.00226737
0.00223435
0.00226543
0.00226538
0.00223705
0.0022371
0.00226734
0.00223436
0.00226543
0.00226537
0.00223705
0.00223707
0.0022654
0.00223708
0.00223721
0.0022673
0.00223432
0.0022653
0.00223703
0.00223718
0.0022341
0.00222945
0.00219685
0.00222766
0.00222767
0.00219945
0.00219948
0.00222946
0.00219685
0.00222766
0.00222767
0.00219947
0.00219947
0.0022279
0.00219954
0.00219948
0.00222948
0.0021969
0.00222799
0.00219957
0.00219946
0.00219718
0.00219194
0.00215905
0.00219003
0.00219005
0.00216176
0.00216172
0.00219195
0.00215907
0.00219005
0.00219004
0.00216176
0.00216171
0.00219002
0.00216171
0.00216141
0.00219197
0.00215904
0.00218989
0.00216167
0.00216133
0.00215894
0.00215415
0.00212166
0.00215234
0.0021523
0.00212426
0.00212429
0.00215414
0.00212167
0.00215234
0.00215229
0.00212424
0.00212426
0.00215207
0.00212421
0.00212433
0.00215411
0.00212162
0.002152
0.00212418
0.00212445
0.00212127
0.00211679
0.00208451
0.00211493
0.002115
0.00208709
0.00208705
0.00211681
0.00208446
0.00211492
0.00211496
0.0020871
0.00208704
0.00211507
0.00208713
0.0020871
0.00211678
0.00208455
0.00211514
0.00208712
0.00208694
0.00208445
0.00207962
0.00204727
0.00207781
0.00207772
0.0020498
0.0020498
0.00207958
0.00204734
0.00207781
0.00207775
0.00204981
0.00204984
0.00207766
0.00204979
0.00204974
0.00207965
0.00204724
0.00207756
0.0020498
0.00204986
0.00204734
0.00204241
0.00201035
0.0020405
0.00204054
0.00201283
0.00201288
0.00204247
0.00201036
0.00204053
0.00204053
0.00201281
0.00201281
0.00204056
0.00201289
0.00201293
0.00204238
0.00201042
0.00204071
0.0020129
0.00201299
0.00201049
0.00200549
0.00197332
0.00200362
0.00200363
0.00197576
0.0019757
0.00200548
0.00197327
0.00200357
0.00200359
0.00197583
0.00197578
0.0020036
0.0019757
0.00197556
0.00200556
0.00197331
0.00200354
0.00197575
0.00197537
0.00197313
0.00196843
0.00193654
0.00196646
0.00196643
0.00193889
0.00193888
0.00196841
0.00193659
0.00196655
0.00196649
0.00193881
0.00193875
0.00196631
0.00193884
0.00193887
0.0019684
0.00193642
0.0019662
0.00193873
0.00193891
0.00193661
0.00193168
0.00189978
0.00192975
0.00192974
0.00190214
0.00190221
0.00193174
0.00189981
0.00192966
0.00192959
0.00190222
0.00190236
0.00192976
0.00190225
0.00190238
0.00193161
0.00190002
0.00192976
0.00190236
0.00190237
0.00190001
0.00189495
0.00186348
0.00189291
0.00189305
0.00186571
0.00186575
0.00189499
0.00186353
0.00189303
0.00189323
0.00186566
0.00186559
0.00189319
0.00186575
0.0018657
0.00189517
0.00186332
0.00189325
0.00186565
0.00186566
0.00186341
0.0018587
0.00182742
0.00185674
0.00185665
0.00182972
0.00182939
0.00185871
0.00182711
0.00185664
0.00185643
0.00182964
0.00182938
0.0018566
0.00182933
0.00182921
0.00185851
0.00182721
0.00185652
0.00182933
0.00182915
0.00182697
0.00182247
0.00179029
0.00182041
0.00182032
0.0017924
0.00179282
0.0018223
0.00179063
0.00182044
0.00182041
0.00179254
0.00179299
0.00182011
0.0017929
0.00179304
0.00182243
0.00179065
0.00182009
0.00179299
0.00179314
0.00179095
0.0017855
0.00175474
0.00178337
0.00178368
0.00175697
0.00175666
0.00178579
0.0017546
0.00178344
0.00178373
0.00175682
0.00175653
0.00178404
0.00175673
0.00175676
0.00178577
0.00175446
0.00178413
0.00175657
0.00175671
0.00175445
0.00175001
0.00171897
0.00174811
0.00174773
0.00172101
0.00172099
0.00174984
0.00171872
0.00174798
0.00174765
0.00172102
0.00172102
0.00174761
0.0017208
0.00172059
0.00174973
0.00171895
0.00174756
0.00172097
0.00172062
0.00171858
0.00171412
0.0016824
0.00171189
0.00171198
0.00168451
0.00168485
0.00171394
0.00168276
0.00171195
0.00171207
0.00168463
0.00168476
0.0017117
0.00168489
0.00168507
0.00171416
0.00168252
0.00171178
0.00168471
0.00168512
0.00168296
0.00167762
0.00164697
0.00167553
0.00167585
0.00164905
0.00164894
0.00167795
0.0016469
0.00167559
0.00167564
0.001649
0.00164898
0.00167615
0.00164909
0.00164915
0.00167773
0.00164697
0.00167613
0.001649
0.00164912
0.00164697
0.00164223
0.00161152
0.00164021
0.00164001
0.00161348
0.00161342
0.00164215
0.00161138
0.00164017
0.00164016
0.00161352
0.00161361
0.00164012
0.00161335
0.00161311
0.00164224
0.00161158
0.00164012
0.00161359
0.00161316
0.00161114
0.00160676
0.00157561
0.00160456
0.00160461
0.00157783
0.0015779
0.00160662
0.0015757
0.00160463
0.00160471
0.00157777
0.00157765
0.0016042
0.00157777
0.00157787
0.00160679
0.00157546
0.00160428
0.00157758
0.00157776
0.00157576
0.00157082
0.00154022
0.00156882
0.00156889
0.00154228
0.00154218
0.00157094
0.00154027
0.00156874
0.00156859
0.0015422
0.00154224
0.00156911
0.00154235
0.00154245
0.0015707
0.00154027
0.00156893
0.00154228
0.0015425
0.00154039
0.0015355
0.00150506
0.00153349
0.00153337
0.00150705
0.001507
0.00153553
0.00150493
0.00153343
0.00153352
0.00150707
0.00150708
0.00153355
0.00150695
0.00150698
0.00153556
0.0015051
0.00153369
0.00150711
0.00150708
0.00150497
0.0015003
0.00146949
0.00149822
0.0014982
0.00147157
0.00147167
0.00150019
0.00146958
0.00149827
0.0014982
0.00147162
0.00147164
0.00149813
0.00147167
0.00147154
0.00150034
0.0014695
0.00149818
0.00147169
0.0014715
0.00146948
0.00146477
0.00143466
0.00146273
0.00146288
0.00143661
0.00143658
0.00146485
0.00143459
0.00146275
0.00146283
0.00143662
0.00143668
0.00146274
0.0014366
0.00143661
0.00146478
0.00143456
0.00146268
0.00143646
0.00143642
0.0014345
0.00142997
0.00139948
0.00142791
0.00142783
0.00140166
0.00140156
0.00142989
0.00139946
0.00142791
0.00142794
0.00140157
0.0014015
0.0014279
0.00140149
0.00140159
0.00142984
0.00139951
0.00142771
0.00140145
0.00140153
0.00139953
0.00139469
0.00136418
0.00139279
0.00139273
0.00136621
0.00136639
0.00139471
0.00136432
0.00139272
0.00139271
0.00136622
0.00136639
0.00139275
0.00136639
0.00136628
0.0013948
0.00136435
0.00139286
0.00136667
0.00136658
0.00136436
0.00135951
0.00132954
0.00135757
0.00135773
0.00133168
0.00133163
0.00135963
0.0013296
0.00135755
0.00135757
0.00133157
0.00133134
0.00135761
0.00133171
0.00133173
0.0013596
0.00132932
0.00135776
0.00133142
0.00133153
0.0013296
0.00132482
0.00129483
0.00132298
0.00132281
0.00129678
0.0012967
0.00132489
0.0012947
0.00132282
0.00132263
0.00129679
0.00129679
0.00132302
0.00129664
0.00129662
0.00132462
0.00129479
0.00132282
0.00129663
0.00129661
0.00129456
0.00129022
0.0012603
0.0012881
0.00128812
0.00126216
0.00126223
0.00129002
0.00126003
0.00128826
0.00128831
0.00126256
0.00126289
0.00128785
0.00126224
0.00126222
0.00129019
0.00126054
0.00128793
0.00126249
0.00126225
0.00126018
0.00125552
0.0012246
0.00125344
0.00125334
0.0012269
0.00122667
0.00125527
0.00122465
0.00125377
0.00125399
0.00122683
0.00122667
0.00125369
0.00122682
0.00122715
0.00125577
0.00122473
0.0012537
0.00122709
0.00122722
0.001225
0.00121979
0.00119008
0.00121801
0.00121787
0.00119223
0.00119265
0.00121986
0.00119056
0.00121787
0.0012177
0.00119174
0.00119152
0.00121819
0.00119241
0.001192
0.00121989
0.00118962
0.00121825
0.00119173
0.00119192
0.00119001
0.00118562
0.00115691
0.00118391
0.00118436
0.00115891
0.00115906
0.00118605
0.00115692
0.00118341
0.00118324
0.00115864
0.00115869
0.0011836
0.00115884
0.00115858
0.0011851
0.00115666
0.00118346
0.00115843
0.00115841
0.00115656
0.00115227
0.00112146
0.00115017
0.00115011
0.00112328
0.00112292
0.00115213
0.00112098
0.0011503
0.00115038
0.00112413
0.00112448
0.0011501
0.00112333
0.00112378
0.00115221
0.00112222
0.00115004
0.0011244
0.00112404
0.0011217
0.00111662
0.00108635
0.00111443
0.00111412
0.00108844
0.00108832
0.00111618
0.0010862
0.00111514
0.00111545
0.00108858
0.00108838
0.00111487
0.00108843
0.00108852
0.00111733
0.00108631
0.00111513
0.00108851
0.00108856
0.00108642
0.00108167
0.00105221
0.00107992
0.00107988
0.00105444
0.00105465
0.0010816
0.0010526
0.00107979
0.00107961
0.00105403
0.00105372
0.00107987
0.00105445
0.00105423
0.00108154
0.00105167
0.00107982
0.00105381
0.00105405
0.00105214
0.00104761
0.00101819
0.00104591
0.0010462
0.00102018
0.0010205
0.00104801
0.00101864
0.00104549
0.00104519
0.00101988
0.00101997
0.00104575
0.00102036
0.00102018
0.0010471
0.0010181
0.00104557
0.00102002
0.00102013
0.00101828
0.00101356
0.00098387
0.00101157
0.00101188
0.000985716
0.000985545
0.00101398
0.00098343
0.00101134
0.0010115
0.000985997
0.000986078
0.0010116
0.000985609
0.000985595
0.00101349
0.000984105
0.00101158
0.00098596
0.000985757
0.000983535
0.000979137
0.000948574
0.00097705
0.000976752
0.000950688
0.000950437
0.000978655
0.000948365
0.000977435
0.000977501
0.000950966
0.000951036
0.000976818
0.000950573
0.000950757
0.000979373
0.000948795
0.000977014
0.000950993
0.000950816
0.000948657
0.000943806
0.000914117
0.000941985
0.000941761
0.000916272
0.000916272
0.000943658
0.000914351
0.000942141
0.000942237
0.000916135
0.000916261
0.000942193
0.000916398
0.000916706
0.000944031
0.000914229
0.00094218
0.000916377
0.000916558
0.000914622
0.000909547
0.000880613
0.000907827
0.000907888
0.000882527
0.000882651
0.000909812
0.000880695
0.000907656
0.000907727
0.000882411
0.000882288
0.000908193
0.000882599
0.000882355
0.000909623
0.000880468
0.00090807
0.000882385
0.000882367
0.000880425
0.000875961
0.000845882
0.000873969
0.000874076
0.00084782
0.000847893
0.000876012
0.000845764
0.000873887
0.000873731
0.000847814
0.000847678
0.000873646
0.000847704
0.000847378
0.000875784
0.000845651
0.000873689
0.000847558
0.000847445
0.000845425
0.000841049
0.000810257
0.000838957
0.000839031
0.000812346
0.000812312
0.000840917
0.000810265
0.000839013
0.000838899
0.000812421
0.000812429
0.00083865
0.000812355
0.000812592
0.000840839
0.000810351
0.000838703
0.000812417
0.000812611
0.000810588
0.000805489
0.000775866
0.000803595
0.000803546
0.000777901
0.000777842
0.000805524
0.000775959
0.000803659
0.00080369
0.000777885
0.00077799
0.000803983
0.000778033
0.000778117
0.000805634
0.000776066
0.000803989
0.000778179
0.000778077
0.000776043
0.000771284
0.000742127
0.000769458
0.000769402
0.00074402
0.000743989
0.000771346
0.000741945
0.000769428
0.000769542
0.000744047
0.000744178
0.000769531
0.000743849
0.00074384
0.000771454
0.000742105
0.000769504
0.000744024
0.000743859
0.000741843
0.000737462
0.000707486
0.000735431
0.000735419
0.00070946
0.000709438
0.000737264
0.000707425
0.000735507
0.000735632
0.000709495
0.000709551
0.000735245
0.000709316
0.000709418
0.000737432
0.000707455
0.000735278
0.000709382
0.00070938
0.000707439
0.000702715
0.000672558
0.000700758
0.000700762
0.00067466
0.000674795
0.000702723
0.000672915
0.000700741
0.000700755
0.000674471
0.000674339
0.000700815
0.000674928
0.000674911
0.000702684
0.000672469
0.000700753
0.000674565
0.000674795
0.000672942
0.000667822
0.000637877
0.00066598
0.000666177
0.000639892
0.000640032
0.000668224
0.00063793
0.000665783
0.000665579
0.00063984
0.000639628
0.000666233
0.000640048
0.000639766
0.000667717
0.000637761
0.000666126
0.000639739
0.00063981
0.000637776
0.000633138
0.000603062
0.000631132
0.000631183
0.000604912
0.00060472
0.000633094
0.0006026
0.000631184
0.000631075
0.000605174
0.000605362
0.000630959
0.000604571
0.000604611
0.000633063
0.000603261
0.000631056
0.000605147
0.000604811
0.000602678
0.000598315
0.000568446
0.000596212
0.000595943
0.00057041
0.000570217
0.000597816
0.000568361
0.00059649
0.000596763
0.000570463
0.000570722
0.000595949
0.000570259
0.000570527
0.000598547
0.000568637
0.000596128
0.00057069
0.000570494
0.000568581
0.000563772
0.000534158
0.00056191
0.000561792
0.00053631
0.000536583
0.000563782
0.000534652
0.000561838
0.00056197
0.000536073
0.000535896
0.000562182
0.000536712
0.000536605
0.000563914
0.000533951
0.00056205
0.000536044
0.000536386
0.000534415
0.000529453
0.000499044
0.000527657
0.000527955
0.000501153
0.00050115
0.00052989
0.000498995
0.000527442
0.000527192
0.00050108
0.000500774
0.000527742
0.00050106
0.000500855
0.000529208
0.000498662
0.000527556
0.000500761
0.000500848
0.000498738
0.000494141
0.000463301
0.000492181
0.000492122
0.000465159
0.000465164
0.000494067
0.000463198
0.000492134
0.000491858
0.000465281
0.000465482
0.00049183
0.00046515
0.000465183
0.00049379
0.000463607
0.000491851
0.000465491
0.000465331
0.000463389
0.00045855
0.000429052
0.000456393
0.000456423
0.000430845
0.000430841
0.000458462
0.00042901
0.000456551
0.000456842
0.000430967
0.000431169
0.000456582
0.000430886
0.000431019
0.000458881
0.000429328
0.000456741
0.00043117
0.000431094
0.000429191
0.000424449
0.000394762
0.000422412
0.000422383
0.000396907
0.000396773
0.0004244
0.000394715
0.00042252
0.000422703
0.00039687
0.000396719
0.000422538
0.000396795
0.000396879
0.000424716
0.000394532
0.000422589
0.000396663
0.000396754
0.000394692
0.00038991
0.000359078
0.000388094
0.000387995
0.000361236
0.0003613
0.000389909
0.000359192
0.000387998
0.000387817
0.000361137
0.000361131
0.000388072
0.000361303
0.000361295
0.000389693
0.000359051
0.000387926
0.000361185
0.000361249
0.000359168
0.00035423
0.000323859
0.000352334
0.000352406
0.00032584
0.000325902
0.000354325
0.000323854
0.000352258
0.000352281
0.000325829
0.000325867
0.000352388
0.000325836
0.000325685
0.000354214
0.0003239
0.000352375
0.00032587
0.000325748
0.000323678
0.000319109
0.000288889
0.000317105
0.000317129
0.000290855
0.000290776
0.000319072
0.00028879
0.000317105
0.00031712
0.000290871
0.000290762
0.000316831
0.000290725
0.000290593
0.000319122
0.000288761
0.000316894
0.000290696
0.000290592
0.000288663
0.000284051
0.00025324
0.000282011
0.000281932
0.000255249
0.000255257
0.000283975
0.000253323
0.000282023
0.000281912
0.000255252
0.000255223
0.000281863
0.000255357
0.000255526
0.000283936
0.000253273
0.000281839
0.000255272
0.000255484
0.000253519
0.000248371
0.000217891
0.00024632
0.000246389
0.000219858
0.000219977
0.000248484
0.000218029
0.000246329
0.000246365
0.000219875
0.000220026
0.000246709
0.000220079
0.000220322
0.000248444
0.000218081
0.000246677
0.000220106
0.000220316
0.000218305
0.000213119
0.000182898
0.000211116
0.00021122
0.000184952
0.000184839
0.000213227
0.000182674
0.000211134
0.000211287
0.000184962
0.00018498
0.000211434
0.000184693
0.000184572
0.0002133
0.000182809
0.000211478
0.000184892
0.00018464
0.000182518
0.000178056
0.000147281
0.000176132
0.000175953
0.000149371
0.000149269
0.000177819
0.000147145
0.000176136
0.000176049
0.000149352
0.000149188
0.000175661
0.000149167
0.000148936
0.000177925
0.000147064
0.000175713
0.000149104
0.000148952
0.000146819
0.000142381
0.000111255
0.000140422
0.00014036
0.000113319
0.000113424
0.000142274
0.000111491
0.000140392
0.000140239
0.000113292
0.000113296
0.000140025
0.00011352
0.000113549
0.000142169
0.000111362
0.000139997
0.000113335
0.000113461
0.000111572
0.000106328
7.57881e-05
0.000104297
0.00010446
7.76788e-05
7.77329e-05
0.000106582
7.58519e-05
0.000104292
0.000104423
7.77325e-05
7.79313e-05
0.000104732
7.78533e-05
7.81027e-05
0.000106503
7.60372e-05
0.00010467
7.80356e-05
7.81543e-05
7.61721e-05
7.09289e-05
4.06761e-05
6.89203e-05
6.89246e-05
4.26552e-05
4.2638e-05
7.09723e-05
4.06284e-05
6.8969e-05
6.91038e-05
4.26515e-05
4.26573e-05
6.92467e-05
4.26015e-05
4.2647e-05
7.11488e-05
4.06113e-05
6.93013e-05
4.26477e-05
4.26757e-05
4.05806e-05
3.58346e-05
8.63435e-06
3.40623e-05
3.4057e-05
1.18398e-05
1.18252e-05
3.57775e-05
8.61737e-06
3.40286e-05
3.39518e-05
1.17802e-05
1.15696e-05
3.38768e-05
1.17174e-05
1.14218e-05
3.56855e-05
8.42238e-06
3.38759e-05
1.14446e-05
1.1346e-05
8.32201e-06
5.36101e-06
7.31285e-06
7.30323e-06
5.33769e-06
7.30152e-06
7.15472e-06
6.32418e-06
6.17709e-06
6.07308e-06
7.0369e-06
5.18724e-06
6.98552e-06
0.00353117
0.00353371
0.00353245
0.0035326
0.00355976
0.00353364
0.00356322
0.00353402
0.00355996
0.00353377
0.00353405
0.0035634
0.00354489
0.00356667
0.00356669
0.00350378
0.00351676
0.00352156
0.00349604
0.00349416
0.00349949
0.00350369
0.00351732
0.00352115
0.00349592
0.0035197
0.0035197
0.0035197
0.00349329
0.0034933
0.00349325
0.00349321
0.00350337
0.003515
0.00352024
0.00351101
0.00352235
0.00350063
0.00351127
0.00349423
0.00349919
0.00350347
0.00352031
0.0035151
0.003511
0.00352248
0.00351127
0.00350059
0.00352114
0.00352116
0.00350823
0.00350044
0.00350042
0.00347617
0.00349045
0.00349033
0.0034742
0.00348774
0.00347325
0.0034761
0.00349045
0.00349024
0.00347427
0.00348423
0.00348416
0.00348411
0.00345578
0.00345581
0.00345576
0.00345567
0.00347394
0.00348894
0.00348267
0.00347332
0.0034874
0.00347449
0.00347328
0.00348743
0.00347322
0.00347394
0.00348274
0.00348896
0.00347331
0.00348739
0.00347323
0.00347444
0.00349069
0.00349079
0.00347163
0.00347482
0.00347483
0.0034337
0.00344836
0.0034493
0.00343237
0.0034472
0.00343155
0.00343362
0.00344847
0.00344925
0.00343241
0.0034457
0.00344566
0.0034456
0.00341313
0.00341316
0.00341312
0.00341312
0.00343241
0.00344798
0.00344379
0.00343341
0.00344693
0.0034328
0.00343333
0.0034472
0.00343153
0.00343236
0.00344381
0.00344788
0.00343333
0.00344688
0.00343331
0.00343285
0.00344854
0.00344826
0.00343061
0.00343275
0.0034332
0.00338739
0.00340374
0.00340523
0.00338594
0.00340305
0.0033855
0.00338729
0.00340377
0.00340516
0.00338591
0.00340161
0.00340158
0.00340156
0.00336572
0.00336575
0.00336571
0.00336567
0.00338652
0.00340353
0.00339991
0.00338821
0.00340303
0.00338669
0.00338824
0.0034031
0.00338535
0.00338647
0.00339992
0.00340359
0.00338821
0.00340301
0.00338822
0.00338661
0.00340387
0.00340376
0.00338485
0.00338601
0.00338593
0.0033385
0.00335557
0.00335686
0.00333721
0.00335519
0.00333699
0.00333844
0.00335554
0.00335687
0.00333725
0.00335356
0.00335352
0.00335348
0.00331686
0.00331687
0.00331686
0.00331685
0.00333804
0.00335553
0.00335213
0.00333988
0.00335522
0.00333803
0.00333994
0.0033551
0.00333695
0.00333805
0.00335214
0.00335555
0.0033399
0.00335519
0.00333997
0.00333795
0.00335554
0.00335551
0.00333657
0.00333738
0.00333745
0.00328937
0.00330663
0.00330765
0.00328847
0.00330632
0.00328821
0.00328928
0.00330664
0.00330762
0.00328845
0.00330468
0.00330466
0.00330464
0.00326838
0.00326837
0.00326837
0.00326834
0.00328927
0.00330667
0.00330343
0.00329122
0.00330645
0.0032891
0.0032913
0.00330629