/*--------------------------------*- C++ -*----------------------------------*\
| =========                 |                                                 |
| \\      /  F ield         | OpenFOAM: The Open Source CFD Toolbox           |
|  \\    /   O peration     | Version:  v2006                                 |
|   \\  /    A nd           | Website:  www.openfoam.com                      |
|    \\/     M anipulation  |                                                 |
\*---------------------------------------------------------------------------*/
FoamFile
{
    version     2.0;
    format      ascii;
    class       volScalarField;
    location    "250";
    object      p;
}
// * * * * * * * * * * * * * * * * * * * * * * * * * * * * * * * * * * * * * //

dimensions      [0 2 -2 0 0 0 0];


internalField   nonuniform List<scalar> 
14374
(
0.000116497
0.000116498
0.00011443
0.000116497
0.000116498
0.000114423
0.000116517
0.00011651
0.00011424
0.00011429
0.00011429
0.00011424
0.000114207
0.00011425
0.00011425
0.000114207
0.0001165
0.00011429
0.000114294
0.0001165
0.000114289
0.000114294
0.000114241
0.000114236
0.00011424
0.000114236
0.00011425
0.00011425
0.000114207
0.000114207
0.000118773
0.000118773
0.000118803
0.000118758
0.000114248
0.000118764
0.000114236
0.000118766
0.000118777
0.000114257
0.000118758
0.000114249
0.000118764
0.000114236
0.000118777
0.000118766
0.000114257
0.000118781
0.00011422
0.00011422
0.00011879
0.00011879
0.00011423
0.000118804
0.000118803
0.000118773
0.000114255
0.000118762
0.000114211
0.000118784
0.000118778
0.000114259
0.000114231
0.000118758
0.000118785
0.00011423
0.000118803
0.000118773
0.000114254
0.000118763
0.000114212
0.000118785
0.000118778
0.000114259
0.000114232
0.000118758
0.000118785
0.000114231
0.000118758
0.000114249
0.000118765
0.000114235
0.000114256
0.000118767
0.000118777
0.000118758
0.000114247
0.000118764
0.000114235
0.000114257
0.000118765
0.000118777
0.000118781
0.000114219
0.000114219
0.00011423
0.00011879
0.00011879
0.000118804
0.000118803
0.000118678
0.000118588
0.000114333
0.000114333
0.000118692
0.000118692
0.000114343
0.000118677
0.000118581
0.000114334
0.000114329
0.000114344
0.000118694
0.000118688
0.000116512
0.000116513
0.000114271
0.000118727
0.000118742
0.000114269
0.000118728
0.000118742
0.000118691
0.000114271
0.000118728
0.000114297
0.000114325
0.000118742
0.000118723
0.000118665
0.000118723
0.000114325
0.000114299
0.000114337
0.000118674
0.000118716
0.00011869
0.00011427
0.000118728
0.000114296
0.000118722
0.000118741
0.000114324
0.000118661
0.000118723
0.000114324
0.0001143
0.000118673
0.000118716
0.000114335
0.000436599
0.000436568
0.00043865
0.000400026
0.000399996
0.000402081
0.000438649
0.000407064
0.000436568
0.000436568
0.000409138
0.000409137
0.000438645
0.000436558
0.000436563
0.000409138
0.000409138
0.000436565
0.000409138
0.000438648
0.000407063
0.000436565
0.000409136
0.000409135
0.000407061
0.000402083
0.000399997
0.000399997
0.000399997
0.000399995
0.000402083
0.000399994
0.000425166
0.000438848
0.000438847
0.000425161
0.000438848
0.000425162
0.000425165
0.000425161
0.000436593
0.0004366
0.0004366
0.000409169
0.000409174
0.000409169
0.00040917
0.000425219
0.000438818
0.000436574
0.000427423
0.000438795
0.00042519
0.000427431
0.000438849
0.000425162
0.000425219
0.000427417
0.000427431
0.000425191
0.000438852
0.000438852
0.000425346
0.000425157
0.000425159
0.000402278
0.000402279
0.000402276
0.000400028
0.000400025
0.000400024
0.000402278
0.000400002
0.00040225
0.000402228
0.000402283
0.000402283
0.000438846
0.000425162
0.000425162
0.000438852
0.000425346
0.000425159
0.000425159
0.000406875
0.000420565
0.000406876
0.000420565
0.000420365
0.000406872
0.000406873
0.000420569
0.000420569
0.000425166
0.000438849
0.000438847
0.000425161
0.000425222
0.000438819
0.000436575
0.000427424
0.000438796
0.000425193
0.000427429
0.000425222
0.000438819
0.000436573
0.000427422
0.000438796
0.000425193
0.000427428
0.000420564
0.000406874
0.000420565
0.000406878
0.000420564
0.000406874
0.000420565
0.000406878
0.000420515
0.00041828
0.000406905
0.000409145
0.000420536
0.000418286
0.000406933
0.000420515
0.000418278
0.000406905
0.000409144
0.000420535
0.000418286
0.000406933
0.000438851
0.000438852
0.000425348
0.000425159
0.000425157
0.000438847
0.000425161
0.000420564
0.000420366
0.000420568
0.000420568
0.000420563
0.00042522
0.000436569
0.000427416
0.000425191
0.000427427
0.000425165
0.000438849
0.000438847
0.000425161
0.00042522
0.00043657
0.000438819
0.000427418
0.000438796
0.000427427
0.000425191
0.000420563
0.000406875
0.000420565
0.000406879
0.000420513
0.000418277
0.000406905
0.000409147
0.000420534
0.000418287
0.000406931
0.000420563
0.000406875
0.000420565
0.000406879
0.000420513
0.000418278
0.000409147
0.000406905
0.000418287
0.000420534
0.000406931
0.000425164
0.000438848
0.000438846
0.000425159
0.000425219
0.000436575
0.000438818
0.000427422
0.000438795
0.000427431
0.000425191
0.000425164
0.000438849
0.000438846
0.000425159
0.000420512
0.000418278
0.000409146
0.000420534
0.000418288
0.000406931
0.000420562
0.000420564
0.000406878
0.000420512
0.000418281
0.000409147
0.000406905
0.000418288
0.000420535
0.000406931
0.000420562
0.000406875
0.000420564
0.000406878
0.000438852
0.000425344
0.000425159
0.000425159
0.000425162
0.000406876
0.000420565
0.000420364
0.000406872
0.000406874
0.000420568
0.000420569
0.000406877
0.000420565
0.000425219
0.000436573
0.000438819
0.000427418
0.000438794
0.000427428
0.000425192
0.000425165
0.000425161
0.000425166
0.000438849
0.000438846
0.000425162
0.000420513
0.000418275
0.000409143
0.000406907
0.000418286
0.000420535
0.000406936
0.000420514
0.000418276
0.000409143
0.000406906
0.000418285
0.000420535
0.000406935
0.000420564
0.000406876
0.000420566
0.000406881
0.000420564
0.000406876
0.000420567
0.000406881
0.000438848
0.00042516
0.000438848
0.000425163
0.000420366
0.000406873
0.000406874
0.000420567
0.000420569
0.000406876
0.000420563
0.000406877
0.000420566
0.000402277
0.000402278
0.000402282
0.000402282
0.000402247
0.000402249
0.000400006
0.000402224
0.000402279
0.000402276
0.000400006
0.000402248
0.000402224
0.000400004
0.000402249
0.000402224
0.000402279
0.000402277
0.000402282
0.000402283
0.000402279
0.000400003
0.000402249
0.000402227
0.00040228
0.000402278
0.00040228
0.000402278
0.000402279
0.000402279
0.000429713
0.000429706
0.000425159
0.000425165
0.000429714
0.000429706
0.00042516
0.000434308
0.000438851
0.000434302
0.000438846
0.000434302
0.000434301
0.000434307
0.000438855
0.000438847
0.000438854
0.000434301
0.000434306
0.000429706
0.000425161
0.000429708
0.000429711
0.000425167
0.000434303
0.000429707
0.000429713
0.000429706
0.000425165
0.000425159
0.000429706
0.000429714
0.000425159
0.000434309
0.000434303
0.000434302
0.000434301
0.000434307
0.000434306
0.000434301
0.000429706
0.00042516
0.000429708
0.000429711
0.000425167
0.000434304
0.000429707
0.000429712
0.000425161
0.00042516
0.000429707
0.000429707
0.000425156
0.000434308
0.000438844
0.000438847
0.0004343
0.000438838
0.000434302
0.0004343
0.000434315
0.000438843
0.000438851
0.0004343
0.000438843
0.000434314
0.000434303
0.000434298
0.000438846
0.00043885
0.000438853
0.000434301
0.000434303
0.000429695
0.00042516
0.000429709
0.000425163
0.000429695
0.000429707
0.000425168
0.0004297
0.00042516
0.000429711
0.000425169
0.000429708
0.000429708
0.00042517
0.000397735
0.00040228
0.00039773
0.000402275
0.000397729
0.000397737
0.000402281
0.000397732
0.000402277
0.000397731
0.00039773
0.000397736
0.000402277
0.000402284
0.000402283
0.000397735
0.000397729
0.000397733
0.000397743
0.000402274
0.000402281
0.000397731
0.000402271
0.000397739
0.000397733
0.000397742
0.000402275
0.000402281
0.00039773
0.000402271
0.000397739
0.000397732
0.000397729
0.00040228
0.00040228
0.000402285
0.000397733
0.000397733
0.000434303
0.000429707
0.000434304
0.000429707
0.000429713
0.000425162
0.000425162
0.000429708
0.000429708
0.000425156
0.000434312
0.000438843
0.00043885
0.0004343
0.00043884
0.000434302
0.000434308
0.000434311
0.000438843
0.0004343
0.000434301
0.000434307
0.000434298
0.000434303
0.000434303
0.000429699
0.000425161
0.000429711
0.000425167
0.000429709
0.00042517
0.000429702
0.000429698
0.00042516
0.000429711
0.000425167
0.000429708
0.00042517
0.000429702
0.000411421
0.000416019
0.000411422
0.00041602
0.000416014
0.000420566
0.000420566
0.000420571
0.000416019
0.000416019
0.000411414
0.000406881
0.000411425
0.000406874
0.000411423
0.000411417
0.000406884
0.000411413
0.000406882
0.000411426
0.000406874
0.000411423
0.000411417
0.000406884
0.000416028
0.000420567
0.00042056
0.000416016
0.000420557
0.000416018
0.000416024
0.000416027
0.000420566
0.00042056
0.000416016
0.000420556
0.000416018
0.000416025
0.000411428
0.000406875
0.000406875
0.000411423
0.000411423
0.000406871
0.000429713
0.000429706
0.000425159
0.000425165
0.000429714
0.000429707
0.00042516
0.000434309
0.000438852
0.000434303
0.000438847
0.000434302
0.000434301
0.000434307
0.000438855
0.000438848
0.000434301
0.000438854
0.000434307
0.000429706
0.00042516
0.000429708
0.000429711
0.000425167
0.000416017
0.000420571
0.000420564
0.000416023
0.000420571
0.000416016
0.000416022
0.000411419
0.000411422
0.000406873
0.000406879
0.000411424
0.000416024
0.000420568
0.000416018
0.000420564
0.000416017
0.000411427
0.00041142
0.000406871
0.000406877
0.000406872
0.000411428
0.00041142
0.000416017
0.000420572
0.000420564
0.000416023
0.000420571
0.000416016
0.000416022
0.00041142
0.000411422
0.000406873
0.000411425
0.000406879
0.000416024
0.000420568
0.000416018
0.000420564
0.000416017
0.000411427
0.00041142
0.000406871
0.000406877
0.000411428
0.00041142
0.000406872
0.000429711
0.00042516
0.00042516
0.000429707
0.000429706
0.000425155
0.000434311
0.000438843
0.000438849
0.000434301
0.000434301
0.000438839
0.000434309
0.000434311
0.000438842
0.000438849
0.000434299
0.000434306
0.000438839
0.000434301
0.000434297
0.000438848
0.000438848
0.000434302
0.000438853
0.000434302
0.000429698
0.00042516
0.00042971
0.000425167
0.000429708
0.000429702
0.00042517
0.000429698
0.000425159
0.000429709
0.000425166
0.000429701
0.000429707
0.000425169
0.000434302
0.000429705
0.000416019
0.000416013
0.000420565
0.000420564
0.00042057
0.000416018
0.000416018
0.000416028
0.000420566
0.00042056
0.000416016
0.000416025
0.000420556
0.000416018
0.000416027
0.000420565
0.00042056
0.000416015
0.000420556
0.000416017
0.000416024
0.000416019
0.000429713
0.000429705
0.000425159
0.000425165
0.000429714
0.000429706
0.00042516
0.000434309
0.000438852
0.000434303
0.000438847
0.000434302
0.000434302
0.000434307
0.000438855
0.000438847
0.000434301
0.000438854
0.000434307
0.000429706
0.00042516
0.000429708
0.000429711
0.000425167
0.000416016
0.000420564
0.000420571
0.000416022
0.00042057
0.000416021
0.000416016
0.00041142
0.000411422
0.000406874
0.00040688
0.000411425
0.000416024
0.000420568
0.000416018
0.000420563
0.000416017
0.000411426
0.00041142
0.000406878
0.000406872
0.000406872
0.00041142
0.000411427
0.000416016
0.000420571
0.000420563
0.000416022
0.00042057
0.000416016
0.000416021
0.00041142
0.000411422
0.000406873
0.000411424
0.00040688
0.000416023
0.000420568
0.000416018
0.000420563
0.000416017
0.000411426
0.000411419
0.000406872
0.000406878
0.000411427
0.000411419
0.000406872
0.000429711
0.000429704
0.000425163
0.000425157
0.000429704
0.000429712
0.000425157
0.000434307
0.00043885
0.000434301
0.000434301
0.000438846
0.0004343
0.000434306
0.000438847
0.000438854
0.000434305
0.000438853
0.000434299
0.000429704
0.000425159
0.000429706
0.000429709
0.000425165
0.000429711
0.000429704
0.000425157
0.000425163
0.000429712
0.000429705
0.000425158
0.000434307
0.000438851
0.000434302
0.000438846
0.000434301
0.0004343
0.000434306
0.000438854
0.000438847
0.000438853
0.000434299
0.000434306
0.000429704
0.000425159
0.000429707
0.000429709
0.000425165
0.000416015
0.000420562
0.00042057
0.000416021
0.000420569
0.000416021
0.000416015
0.000416022
0.000420566
0.000416017
0.000420562
0.000416017
0.000411426
0.000411419
0.000406878
0.000406872
0.000411419
0.000411427
0.000406872
0.000416015
0.00042057
0.000420562
0.000416021
0.000420569
0.000416015
0.00041602
0.000411419
0.000411422
0.000406874
0.000411424
0.00040688
0.000416023
0.000420567
0.000416017
0.000420562
0.000416016
0.000411426
0.000411419
0.000406872
0.000406877
0.000411427
0.000411419
0.000406872
0.000429712
0.000425161
0.000425161
0.000429707
0.000429707
0.000425156
0.000438842
0.000434301
0.000434307
0.000429698
0.00042516
0.000429711
0.000425166
0.000429708
0.000429701
0.00042517
0.000429698
0.000425161
0.00042971
0.000425167
0.000429702
0.000429708
0.00042517
0.000429706
0.000411421
0.000416019
0.000416014
0.000420565
0.000420566
0.00042057
0.000416019
0.000416019
0.000411414
0.000406881
0.000411425
0.000406874
0.000411417
0.000411423
0.000406884
0.000411413
0.000406882
0.000411427
0.000406875
0.000411424
0.000411418
0.000406885
0.000416027
0.000420566
0.00042056
0.000416016
0.000416024
0.000420557
0.000416018
0.000416028
0.000420567
0.00042056
0.000416017
0.000420556
0.000416018
0.000416025
0.000411428
0.000406875
0.000406876
0.000411422
0.000411423
0.000406871
0.000411423
0.00041602
0.000429712
0.000429705
0.000425165
0.000425159
0.000429705
0.000429713
0.000425159
0.000429705
0.00042516
0.000429707
0.000429709
0.000425167
0.000429712
0.000429705
0.000425165
0.000425159
0.000429705
0.000429713
0.00042516
0.000434308
0.000438852
0.000434302
0.000438847
0.000434302
0.000434301
0.000434306
0.000438846
0.000438854
0.000438853
0.000434305
0.0004343
0.000429706
0.000425161
0.000429708
0.00042971
0.000425167
0.000416018
0.000420564
0.000420572
0.000416024
0.000420571
0.000416023
0.000416017
0.000411422
0.000411424
0.000406876
0.000411426
0.000406882
0.000416025
0.000420568
0.000416019
0.000420564
0.000416019
0.000411429
0.000411422
0.000406881
0.000406874
0.000411422
0.00041143
0.000406875
0.000416018
0.000420564
0.000420572
0.000416024
0.000420571
0.000416023
0.000416017
0.000411422
0.000411424
0.000406875
0.000411426
0.000406881
0.000416025
0.000420569
0.00041602
0.000420564
0.000416019
0.000411429
0.000411421
0.00040688
0.000406874
0.000411422
0.00041143
0.000406875
0.000434304
0.000429706
0.000434303
0.000429707
0.000416014
0.000420565
0.000420565
0.000420569
0.000416018
0.000416018
0.000411413
0.000406882
0.000411425
0.000406875
0.000406886
0.000411417
0.000411423
0.000411413
0.000406882
0.000411426
0.000406875
0.000406885
0.000411417
0.000411423
0.000416028
0.000420565
0.000420558
0.000416015
0.000420555
0.000416024
0.000416017
0.000416027
0.000420566
0.00042056
0.000416016
0.000420555
0.000416024
0.000416018
0.000411427
0.000406876
0.000406876
0.000406872
0.000411423
0.000411423
0.000411421
0.000416018
0.000411422
0.00041602
0.000397732
0.000397733
0.000397741
0.000402273
0.000402279
0.000397729
0.00040227
0.000397731
0.000397737
0.000397741
0.000402274
0.00040228
0.00039773
0.00040227
0.000397731
0.000397739
0.000397727
0.000402279
0.000402279
0.000402284
0.000397732
0.000397732
0.000397737
0.000402281
0.000397732
0.000402276
0.000397731
0.00039773
0.000397736
0.000402284
0.000402276
0.000397729
0.000402283
0.000397736
0.000397738
0.000402282
0.000397732
0.000402277
0.000397731
0.00039773
0.000397736
0.000402284
0.000402277
0.000402283
0.00039773
0.000397735
0.000397741
0.000402274
0.00040228
0.00039773
0.000397731
0.00040227
0.000397738
0.000397741
0.000402274
0.00040228
0.00039773
0.000397738
0.00040227
0.000397731
0.000397727
0.000402279
0.000402279
0.000397732
0.000402284
0.000397732
0.000397733
0.000397738
0.000402283
0.000397732
0.000397732
0.000402278
0.000397731
0.000397737
0.000402278
0.000402286
0.000397736
0.000402285
0.00039773
0.000397737
0.000402282
0.000397732
0.000402277
0.000397731
0.00039773
0.000397737
0.000402278
0.000402286
0.000402285
0.000397736
0.00039773
0.000397734
0.000397733
0.000436586
0.000436587
0.000427455
0.000427442
0.000427443
0.000427437
0.000436583
0.000434397
0.000438766
0.00043876
0.000434488
0.000438757
0.000434382
0.000434396
0.000400018
0.000400015
0.00040001
0.000397827
0.000402193
0.000402196
0.000397919
0.000402187
0.000397821
0.00039782
0.000434395
0.00043876
0.000438763
0.000434488
0.000438753
0.000434388
0.000434388
0.000411329
0.000411224
0.000406964
0.000406964
0.000411337
0.000411339
0.000406969
0.000434396
0.000438763
0.000438759
0.000434485
0.000434386
0.000438754
0.000434391
0.000438762
0.000434487
0.000434388
0.000411329
0.000411224
0.000406963
0.000406964
0.000411337
0.000411338
0.000406969
0.000411328
0.000411224
0.000406962
0.000406962
0.00040697
0.000411335
0.000411337
0.000397826
0.000402193
0.000402195
0.000397923
0.000402185
0.000397821
0.000397821
0.000397825
0.000402194
0.000402195
0.000397922
0.00039782
0.000402185
0.00039782
0.000436589
0.000436589
0.000427458
0.000427445
0.000427447
0.000427439
0.000436585
0.000436589
0.000436585
0.00042746
0.000427446
0.000427443
0.000427438
0.000436584
0.000436592
0.000436584
0.00042746
0.000427448
0.000427443
0.000427439
0.000436584
0.000418312
0.00040916
0.000409157
0.0004183
0.0004183
0.000418295
0.000409153
0.000418318
0.00040916
0.000409159
0.000418302
0.000418303
0.000418295
0.000409152
0.000418315
0.000409159
0.000409157
0.000418302
0.000418301
0.000418295
0.000409153
0.000418316
0.000409158
0.000409158
0.000418302
0.000418301
0.000418295
0.000409153
0.000429603
0.000429654
0.000425216
0.000425252
0.000429655
0.00042961
0.000425261
0.000434383
0.000438818
0.000438806
0.000434332
0.000438765
0.000434326
0.000434349
0.000434401
0.00043436
0.000438798
0.000438751
0.000438743
0.000434357
0.000434393
0.000429624
0.000425207
0.000429676
0.000425184
0.000429677
0.000429664
0.000425242
0.000429603
0.000429653
0.000425251
0.000425217
0.000429609
0.000429655
0.00042526
0.000429623
0.000425208
0.000429677
0.000425185
0.000429677
0.000429663
0.00042524
0.000429613
0.000429507
0.000425243
0.000425249
0.000429613
0.000429628
0.000425253
0.000400016
0.000400015
0.00040001
0.000400016
0.000400015
0.000400011
0.000400014
0.000400015
0.000400011
0.000397815
0.000402251
0.000402238
0.000397763
0.000402199
0.000397757
0.00039778
0.000397834
0.000397791
0.000402183
0.00040223
0.000402177
0.000397825
0.000397789
0.000429614
0.000429507
0.000425247
0.000425248
0.000425255
0.000429619
0.000429622
0.000416113
0.000416205
0.000420478
0.00042048
0.000420472
0.000416106
0.000416106
0.000429603
0.000429656
0.00042522
0.000425252
0.000429659
0.000429609
0.00042526
0.000434384
0.000438819
0.000438807
0.000434335
0.000434352
0.000438766
0.000434326
0.000434403
0.000434362
0.000438798
0.00043875
0.00043436
0.000438745
0.000434394
0.000429626
0.000425211
0.000429679
0.000425184
0.000429667
0.000429678
0.000425243
0.000429603
0.000429656
0.00042522
0.000425252
0.000429658
0.000429609
0.000425261
0.000434383
0.000438818
0.000438807
0.000434334
0.000438765
0.000434351
0.000434325
0.000434402
0.000434362
0.000438798
0.000438751
0.000438744
0.000434359
0.000434394
0.000429624
0.000425211
0.000429678
0.000425185
0.000429667
0.000425243
0.000429677
0.000416118
0.000420517
0.000420466
0.000416079
0.000420461
0.000416076
0.00041611
0.000411341
0.000406898
0.000411392
0.000406921
0.000411393
0.00041138
0.000406957
0.0004161
0.000420525
0.000420536
0.000416049
0.000416042
0.000420483
0.000416067
0.000411318
0.000411371
0.00040693
0.000406967
0.000411372
0.000411325
0.000406976
0.000416119
0.000420517
0.000420467
0.000416079
0.000420461
0.000416077
0.00041611
0.000411341
0.000406899
0.000411392
0.000406922
0.00041138
0.000411394
0.000406958
0.000416101
0.000420525
0.000420536
0.000416049
0.000420483
0.000416068
0.000416043
0.000411319
0.000411371
0.000406931
0.000406968
0.000411373
0.000411325
0.000406976
0.000429614
0.000429507
0.000425248
0.000425249
0.000429621
0.000429621
0.000425256
0.000416113
0.000416205
0.000420479
0.000420481
0.000416106
0.000420473
0.000416107
0.000429603
0.000429655
0.000425218
0.000425252
0.000429658
0.000429609
0.000425261
0.000434383
0.00043882
0.000434332
0.00043435
0.000438765
0.000434326
0.000434402
0.000434362
0.000438751
0.000434359
0.000438744
0.000434393
0.000429624
0.000425209
0.000429677
0.000425185
0.000429665
0.000429678
0.000425242
0.000429602
0.000429655
0.000425252
0.000425218
0.000429609
0.000429658
0.00042526
0.000434383
0.000438817
0.000438807
0.000434334
0.000438764
0.000434351
0.000434326
0.000434401
0.000434362
0.00043875
0.000438798
0.000438743
0.000434393
0.00043436
0.000429625
0.000425209
0.000429677
0.000425185
0.000429666
0.000425242
0.000429678
0.000416119
0.000420515
0.000420468
0.000416076
0.000420462
0.000416074
0.00041611
0.00041134
0.0004069
0.000411391
0.000406921
0.000411393
0.000411378
0.000406958
0.0004161
0.000420523
0.000420537
0.000416048
0.000416043
0.000420483
0.000416065
0.00041132
0.000411368
0.000406929
0.000406969
0.00041137
0.000411326
0.000406977
0.000416119
0.000420468
0.000420515
0.000416076
0.000420461
0.00041611
0.000416074
0.000411341
0.0004069
0.000411391
0.000406921
0.000411378
0.000411393
0.000406957
0.0004161
0.000420523
0.000420536
0.000416048
0.000420483
0.000416065
0.000416043
0.00041132
0.000411368
0.000406968
0.000406929
0.000411326
0.00041137
0.000406977
0.000429603
0.000429654
0.000425251
0.000425217
0.00042961
0.000429657
0.000425259
0.000434381
0.00043882
0.000438806
0.000434333
0.000434322
0.000438765
0.00043435
0.000434402
0.00043436
0.000438752
0.000438797
0.000434394
0.000438747
0.000434358
0.000429624
0.000425209
0.000429677
0.000425182
0.000429672
0.000429665
0.000425241
0.000416119
0.000420513
0.000420468
0.000416076
0.000420461
0.000416073
0.00041611
0.0004161
0.000420522
0.000420535
0.000416048
0.000420482
0.000416042
0.000416065
0.00041132
0.000411368
0.00040693
0.000406967
0.000406977
0.000411371
0.000411326
0.000416119
0.000420468
0.000420515
0.000416076
0.000420461
0.00041611
0.000416074
0.000411341
0.000406899
0.000411392
0.000406921
0.000411378
0.000411393
0.000406957
0.0004161
0.000420523
0.000420535
0.000416048
0.000420483
0.000416065
0.000416042
0.00041132
0.000411368
0.000406967
0.000406929
0.000411326
0.00041137
0.000406976
0.000429614
0.000429505
0.000425246
0.000425248
0.000429621
0.000429619
0.000425255
0.000416112
0.000416204
0.000420478
0.000420479
0.000416105
0.000420472
0.000416106
0.000429604
0.000429653
0.000425251
0.000425218
0.000429609
0.000429656
0.000425261
0.000434385
0.000438818
0.000438806
0.000434333
0.000434331
0.000438765
0.00043435
0.000434401
0.000434359
0.000438751
0.000438797
0.000434394
0.000438743
0.000434358
0.000429626
0.000425209
0.000429678
0.000425189
0.000429684
0.000429665
0.000425243
0.000416118
0.000420467
0.000420515
0.000416079
0.000420461
0.000416109
0.000416077
0.000411341
0.000406901
0.000411393
0.000406925
0.000406958
0.000411394
0.000411382
0.0004161
0.000420523
0.000420536
0.00041605
0.000420482
0.000416043
0.000416068
0.000411319
0.000411372
0.000406967
0.000406934
0.000406976
0.000411325
0.000411375
0.000416118
0.000420467
0.000420516
0.000416079
0.000420462
0.00041611
0.000416076
0.000411341
0.0004069
0.000411393
0.000406923
0.000411381
0.000411394
0.000406958
0.0004161
0.000420524
0.000420537
0.000416049
0.000420483
0.000416067
0.000416043
0.00041132
0.000411372
0.000406968
0.000406932
0.000411325
0.000411373
0.000406976
0.000416111
0.000416204
0.000420476
0.00042048
0.000420469
0.000416104
0.000416104
0.000397813
0.000402249
0.000402234
0.000397761
0.000397777
0.000402197
0.000397755
0.000397815
0.000402251
0.000402235
0.000397763
0.000397779
0.000402197
0.000397758
0.000397834
0.000397789
0.000402226
0.000402184
0.000397787
0.000402177
0.000397826
0.000397814
0.00040225
0.000402235
0.000397763
0.000402197
0.000397779
0.000397757
0.000397834
0.000397789
0.000402184
0.000402226
0.000402177
0.000397826
0.000397787
0.000397813
0.00040225
0.000402235
0.000397763
0.000397756
0.000402197
0.000397779
0.000397833
0.000397789
0.000402183
0.000402226
0.000397824
0.000402176
0.000397787
0.000397814
0.000402251
0.000402236
0.000397762
0.000397757
0.000402198
0.000397779
0.000397833
0.000397791
0.000402183
0.000402228
0.000397825
0.000402177
0.000397788
0.00043885
0.000438847
0.000438849
0.000438852
0.000438818
0.000438796
0.000438852
0.000438848
0.000438847
0.000438855
0.000438854
0.000438849
0.000438838
0.000438849
0.000438848
0.000438853
0.000438806
0.000438797
0.000127941
0.000127714
0.000127911
0.000127911
0.000127941
0.000127865
0.000125647
0.000125654
0.000127874
0.000127921
0.000127918
0.000123356
0.000123374
0.000127931
0.000127931
0.000127925
0.000123366
0.000123366
0.000123398
0.000127921
0.000127908
0.00012339
0.00012339
0.000127903
0.000123379
0.000123398
0.000127921
0.000127908
0.00012339
0.000127904
0.000123379
0.000123391
0.000123356
0.000123374
0.000127904
0.000127928
0.00012338
0.000127928
0.000123399
0.000123374
0.00012336
0.000127909
0.000123383
0.000127941
0.000123394
0.000123374
0.00012338
0.000123399
0.000123375
0.00012336
0.000123383
0.000123394
0.000123357
0.000123483
0.000123568
0.000127825
0.000127825
0.000123472
0.000127819
0.000123472
0.000123487
0.000127828
0.000127861
0.000123437
0.000127818
0.000123475
0.000123441
0.000123467
0.000127866
0.000127881
0.000123428
0.00012783
0.000123412
0.000123436
0.000123437
0.000123441
0.000180519
0.000180494
0.000180495
0.000182573
0.000143954
0.000143935
0.000143931
0.000146003
0.000201059
0.000201058
0.000198783
0.000198784
0.000201057
0.000150999
0.000182736
0.000182716
0.000153067
0.000153065
0.00018277
0.000150997
0.00018272
0.00018272
0.000153068
0.000153068
0.000180482
0.000182773
0.000153068
0.00015307
0.00018257
0.000150999
0.0001805
0.00018277
0.000153069
0.000153063
0.000182776
0.000150997
0.000146003
0.000143932
0.000143927
0.000146002
0.000143932
0.000143932
0.000143935
0.000146004
0.000143926
0.000187405
0.000187426
0.00018737
0.000187428
0.000201054
0.000201025
0.000189634
0.000189621
0.000187376
0.00018756
0.000201059
0.000182771
0.000182769
0.00016909
0.000169087
0.000182775
0.000169078
0.000182772
0.000182773
0.000169093
0.000169089
0.000180506
0.000180505
0.000180509
0.000153091
0.000153093
0.000153092
0.000153093
0.00018048
0.000182722
0.000182736
0.000169145
0.000171331
0.00016912
0.000171351
0.00018278
0.00016908
0.000180498
0.000169148
0.000182739
0.000171352
0.000182721
0.000171355
0.000169126
0.000182772
0.000182774
0.000169276
0.00016909
0.000169088
0.000132523
0.000146204
0.000146205
0.000132525
0.00014622
0.000132503
0.000132523
0.000146203
0.000146204
0.000132525
0.000143955
0.000143955
0.000143956
0.000132581
0.000146164
0.000143938
0.000134786
0.000146149
0.000132568
0.000134787
0.000146218
0.000132503
0.00013258
0.000143939
0.000146164
0.000134783
0.000146151
0.000134789
0.000132568
0.0001462
0.000146201
0.000132718
0.000132531
0.00013253
0.000187368
0.000200853
0.000187557
0.000187373
0.000187371
0.000201058
0.000187364
0.000201063
0.000198767
0.000189629
0.000189636
0.000201001
0.000187406
0.000201021
0.00018743
0.000189637
0.000189638
0.000201023
0.000198778
0.000187409
0.000201001
0.000187431
0.000201056
0.000187369
0.00020106
0.000187375
0.000187369
0.000201056
0.000187375
0.000182777
0.000169079
0.000182779
0.000169081
0.000182772
0.000182773
0.000182572
0.000169278
0.00016909
0.000169091
0.000150793
0.000164497
0.000150793
0.000164498
0.000164289
0.00015081
0.000150809
0.000164487
0.000164487
0.00018277
0.00018277
0.00016909
0.000169084
0.000182716
0.000180494
0.000180501
0.000169147
0.000171348
0.000169125
0.000171356
0.00018274
0.000180502
0.000180503
0.000169147
0.000171361
0.000169129
0.000171355
0.000164488
0.000150807
0.000164488
0.000150808
0.000164488
0.000150808
0.000164486
0.000150808
0.000164436
0.000162213
0.000150846
0.000153072
0.000164451
0.00016222
0.000150867
0.000164437
0.000162218
0.000150846
0.000153069
0.000164453
0.000162217
0.000150866
0.000182575
0.000182776
0.000169276
0.00016909
0.00016909
0.000182782
0.000169081
0.000150795
0.000164498
0.000164285
0.000150811
0.000150808
0.000164487
0.000164486
0.000150791
0.000164496
0.000182738
0.000180491
0.000180498
0.00016915
0.000171347
0.000169126
0.000171352
0.000182772
0.000182774
0.000169093
0.000169089
0.000180497
0.00018049
0.000182738
0.00016915
0.000171345
0.000171352
0.000169126
0.000164489
0.000150806
0.000164489
0.000150806
0.000164438
0.000162212
0.000150845
0.000153075
0.000164452
0.000162219
0.000150862
0.000164489
0.000150806
0.000164488
0.000150807
0.000164438
0.000162212
0.000153075
0.000150845
0.000162219
0.000164451
0.000150863
0.000182773
0.000182775
0.000169091
0.000169091
0.000180495
0.000182721
0.000182734
0.000169145
0.000171341
0.000171351
0.000169121
0.000182775
0.000169091
0.000169089
0.000164432
0.000162204
0.000150845
0.000153074
0.000164447
0.00016222
0.000150861
0.000164487
0.000150803
0.000164488
0.000150805
0.000164432
0.000162211
0.000153073
0.000150845
0.000162219
0.000164449
0.000150861
0.000164487
0.000150803
0.000164487
0.000150805
0.000182773
0.000182773
0.000169279
0.000169091
0.00016909
0.000182777
0.00016908
0.000150792
0.000164498
0.00016429
0.000150809
0.000150809
0.000164487
0.000164487
0.000150792
0.000164497
0.000180504
0.000182741
0.000169147
0.000171359
0.000182721
0.000171357
0.000169128
0.00016909
0.000182771
0.000182772
0.000169088
0.00016909
0.000182771
0.000169085
0.000164435
0.000162216
0.000153076
0.000150845
0.000162222
0.000164451
0.000150863
0.000164435
0.000162216
0.000153072
0.000150844
0.000162221
0.000164452
0.000150863
0.000164487
0.000150805
0.000164487
0.000150806
0.000164486
0.000150807
0.000164486
0.000150807
0.00018278
0.00016908
0.000169079
0.000164287
0.000150808
0.00015081
0.000164485
0.000164486
0.00015079
0.000164496
0.000150794
0.000164497
0.000146219
0.000132503
0.000146219
0.000132503
0.000146201
0.000146201
0.00013272
0.00013253
0.00013253
0.000127941
0.000127942
0.000127716
0.000127911
0.000127911
0.000132522
0.000146205
0.000146205
0.000132525
0.000132579
0.000146164
0.000143939
0.000134785
0.000146152
0.000132567
0.000134791
0.000132578
0.000146163
0.000143937
0.000134781
0.000146152
0.000132567
0.000134789
0.00012792
0.000127917