/*--------------------------------*- C++ -*----------------------------------*\
| =========                 |                                                 |
| \\      /  F ield         | OpenFOAM: The Open Source CFD Toolbox           |
|  \\    /   O peration     | Version:  v2012                                 |
|   \\  /    A nd           | Website:  www.openfoam.com                      |
|    \\/     M anipulation  |                                                 |
\*---------------------------------------------------------------------------*/
FoamFile
{
    version     2.0;
    format      ascii;
    class       volScalarField;
    location    "1662.5";
    object      k;
}
// * * * * * * * * * * * * * * * * * * * * * * * * * * * * * * * * * * * * * //

dimensions      [0 2 -2 0 0 0 0];


internalField   nonuniform List<scalar> 
171728
(
1.71489e-07
2.56848e-07
3.4968e-07
3.61243e-07
1.67991e-07
2.44723e-07
3.29728e-07
3.40404e-07
1.57267e-07
2.32594e-07
3.10958e-07
3.21417e-07
1.50527e-07
2.21495e-07
2.94151e-07
3.04553e-07
1.47242e-07
2.11663e-07
2.7805e-07
2.8956e-07
1.44236e-07
2.0347e-07
2.64933e-07
2.76093e-07
1.40694e-07
1.96892e-07
2.53921e-07
2.66023e-07
1.37067e-07
1.91408e-07
2.44054e-07
2.58168e-07
1.33547e-07
1.85645e-07
2.34704e-07
2.48839e-07
1.30147e-07
1.79666e-07
2.26333e-07
2.33244e-07
1.27029e-07
1.74683e-07
2.19215e-07
2.25665e-07
1.23853e-07
1.71536e-07
2.13935e-07
2.28039e-07
1.21045e-07
1.6977e-07
2.10085e-07
2.46299e-07
1.18309e-07
1.68868e-07
2.07676e-07
2.71756e-07
1.15855e-07
1.69925e-07
2.07049e-07
2.9078e-07
1.13759e-07
1.7393e-07
2.09398e-07
2.85853e-07
1.11709e-07
1.83155e-07
2.17054e-07
2.45831e-07
1.10039e-07
2.00033e-07
2.32974e-07
2.46676e-07
1.08636e-07
2.3431e-07
2.61555e-07
2.8512e-07
1.07286e-07
2.75086e-07
3.05596e-07
3.28016e-07
1.0624e-07
3.48189e-07
3.9142e-07
5.5895e-07
1.06073e-07
4.73721e-07
4.90712e-07
5.32775e-07
1.05862e-07
6.18166e-07
6.67779e-07
1.28867e-06
1.07456e-07
8.71541e-07
9.3246e-07
1.56707e-06
1.1109e-07
1.13305e-06
1.1529e-06
2.61667e-06
1.17007e-07
1.71313e-06
1.66955e-06
3.81985e-06
1.18202e-07
1.99024e-06
2.10293e-06
6.05296e-06
1.23587e-07
2.87497e-06
2.91055e-06
7.48955e-06
1.32631e-07
3.33829e-06
3.40906e-06
9.48324e-06
1.56785e-07
4.61484e-06
4.71709e-06
1.34254e-05
1.90099e-07
5.03259e-06
5.13805e-06
1.41017e-05
2.31983e-07
6.82714e-06
6.63308e-06
1.78223e-05
3.01745e-07
7.55358e-06
7.69561e-06
1.94489e-05
3.88071e-07
9.07398e-06
9.08156e-06
2.13766e-05
5.06995e-07
1.0575e-05
1.06697e-05
2.34306e-05
6.58016e-07
1.1941e-05
1.19709e-05
2.50584e-05
8.85445e-07
1.39714e-05
1.39328e-05
2.64495e-05
1.06361e-06
1.52087e-05
1.53025e-05
2.80356e-05
1.47863e-06
1.75934e-05
1.73145e-05
2.91965e-05
1.70971e-06
1.84287e-05
1.89036e-05
3.04535e-05
2.34003e-06
2.10956e-05
2.11912e-05
3.18476e-05
2.62569e-06
2.24246e-05
2.20471e-05
3.25285e-05
3.57543e-06
2.46307e-05
2.50152e-05
3.447e-05
4.01026e-06
2.63971e-05
2.61366e-05
3.49663e-05
5.03608e-06
2.70434e-05
2.80069e-05
3.58749e-05
5.77605e-06
3.02852e-05
2.93128e-05
3.76185e-05
7.01081e-06
3.11301e-05
3.17058e-05
3.87367e-05
7.9233e-06
3.2883e-05
3.23317e-05
3.86915e-05
9.51003e-06
3.34044e-05
3.41983e-05
4.04628e-05
1.02614e-05
3.61689e-05
3.57917e-05
4.18846e-05
1.23211e-05
3.70758e-05
3.68388e-05
4.2235e-05
1.36449e-05
3.74146e-05
3.79558e-05
4.21169e-05
1.4352e-05
3.98078e-05
3.91268e-05
4.48071e-05
1.73064e-05
4.01746e-05
4.08704e-05
4.4976e-05
1.80907e-05
4.16627e-05
4.13086e-05
4.5228e-05
1.94745e-05
4.20751e-05
4.24353e-05
4.62549e-05
2.14794e-05
4.37504e-05
4.36568e-05
4.75284e-05
2.34437e-05
4.45338e-05
4.37557e-05
4.76754e-05
2.38407e-05
4.45566e-05
4.60465e-05
4.84928e-05
2.60307e-05
4.70004e-05
4.64771e-05
4.93825e-05
2.78688e-05
4.73181e-05
4.62189e-05
4.99963e-05
2.80699e-05
4.69421e-05
4.74262e-05
5.0109e-05
2.94552e-05
4.83188e-05
4.9189e-05
5.11465e-05
3.14444e-05
5.00741e-05
4.94554e-05
5.15195e-05
3.27859e-05
5.02036e-05
5.00553e-05
5.26218e-05
3.36575e-05
4.99263e-05
5.01873e-05
5.23531e-05
3.37679e-05
5.09489e-05
5.10006e-05
5.31598e-05
3.52754e-05
5.22501e-05
5.20162e-05
5.44192e-05
3.70543e-05
5.24231e-05
5.23225e-05
5.24342e-05
3.7884e-05
5.25609e-05
5.25145e-05
5.60801e-05
3.8405e-05
5.39449e-05
5.40312e-05
5.73379e-05
3.93241e-05
5.36397e-05
5.38845e-05
5.29437e-05
3.99421e-05
5.31058e-05
5.31746e-05
5.306e-05
4.0312e-05
5.43956e-05
5.3963e-05
5.71964e-05
4.18273e-05
5.59809e-05
5.6178e-05
5.9549e-05
4.31207e-05
5.62915e-05
5.64423e-05
5.79766e-05
4.33724e-05
5.50991e-05
5.50633e-05
5.39593e-05
4.31124e-05
5.43972e-05
5.42325e-05
5.34057e-05
4.29571e-05
5.57098e-05
5.56921e-05
5.80999e-05
4.43912e-05
5.76689e-05
5.79199e-05
6.09391e-05
4.63571e-05
5.79043e-05
5.80495e-05
5.88684e-05
4.63061e-05
5.6005e-05
5.62712e-05
5.57997e-05
4.47678e-05
5.5409e-05
5.54199e-05
5.63237e-05
4.48261e-05
5.72194e-05
5.6175e-05
5.78051e-05
4.71169e-05
5.82022e-05
5.80051e-05
5.86968e-05
4.7318e-05
5.72947e-05
5.80627e-05
5.93026e-05
4.60114e-05
5.65138e-05
5.71184e-05
5.84334e-05
4.59019e-05
5.69318e-05
5.67618e-05
5.67252e-05
4.69807e-05
5.71113e-05
5.63906e-05
5.70699e-05
4.71907e-05
5.73054e-05
5.70966e-05
5.94617e-05
4.70457e-05
5.72836e-05
5.77358e-05
5.91787e-05
4.68418e-05
5.64526e-05
5.68151e-05
5.67846e-05
4.66702e-05
5.64029e-05
5.62102e-05
5.66801e-05
4.67193e-05
5.71505e-05
5.6897e-05
5.85493e-05
4.58894e-05
5.54154e-05
5.54125e-05
5.83059e-05
3.76797e-07
3.40686e-07
3.01449e-07
3.51413e-07
2.96785e-07
2.92575e-07
1.64104e-07
1.46912e-07
1.60695e-07
1.64238e-07
2.87297e-07
2.91552e-07
3.65062e-07
3.47053e-07
3.25115e-07
3.62256e-07
3.73591e-07
3.62146e-07
1.35845e-06
2.53443e-07
1.05137e-06
2.44838e-07
3.50526e-07
3.30653e-07
2.63735e-07
2.95658e-07
2.54611e-07
2.59088e-07
2.58557e-07
2.4786e-07
2.49895e-07
3.64042e-07
3.43077e-07
3.52711e-07
3.35044e-07
3.46583e-07
3.41622e-07
3.57908e-07
3.3242e-07
9.12438e-07
2.41433e-07
5.79648e-07
2.31554e-07
3.29524e-07
3.10296e-07
2.51471e-07
2.50993e-07
2.42436e-07
2.3785e-07
2.46853e-07
2.35539e-07
2.38149e-07
3.41572e-07
3.20412e-07
3.44217e-07
3.15227e-07
3.36526e-07
3.22514e-07
3.2996e-07
3.05791e-07
4.99806e-07
2.28353e-07
3.49295e-07
2.1928e-07
3.09291e-07
2.91934e-07
2.3967e-07
2.35436e-07
2.31973e-07
2.29713e-07
2.35425e-07
2.24095e-07
2.27385e-07
3.1918e-07
3.01961e-07
3.34197e-07
2.98427e-07
3.25506e-07
3.05603e-07
3.04475e-07
2.87085e-07
3.22385e-07
2.1636e-07
2.80535e-07
2.08222e-07
2.91019e-07
2.75531e-07
2.29362e-07
2.27915e-07
2.21353e-07
2.22755e-07
2.24776e-07
2.13989e-07
2.17527e-07
3.00944e-07
2.85995e-07
3.22758e-07
2.81771e-07
3.13484e-07
2.90543e-07
2.86016e-07
2.71571e-07
2.73145e-07
2.05674e-07
2.58466e-07
1.98752e-07
2.74758e-07
2.6103e-07
2.18726e-07
2.21197e-07
2.11158e-07
2.16767e-07
2.15351e-07
2.05302e-07
2.09033e-07
2.85091e-07
2.71476e-07
3.10148e-07
2.67965e-07
3.02969e-07
2.76849e-07
2.70703e-07
2.57732e-07
2.54755e-07
1.96773e-07
2.44609e-07
1.91834e-07
2.60378e-07
2.48212e-07
2.08801e-07
2.15365e-07
2.0241e-07
2.11365e-07
2.07103e-07
1.98386e-07
2.0171e-07
2.70673e-07
2.58749e-07
3.0193e-07
2.56595e-07
3.0166e-07
2.66612e-07
2.57026e-07
2.45554e-07
2.41407e-07
1.90335e-07
2.3219e-07
1.85748e-07
2.47708e-07
2.37145e-07
2.00372e-07
2.10206e-07
1.9513e-07
2.06932e-07
2.0012e-07
1.92723e-07
1.95359e-07
2.58072e-07
2.47919e-07
3.01945e-07
2.4652e-07
3.05012e-07
2.58657e-07
2.45001e-07
2.34764e-07
2.29335e-07
1.84134e-07
2.21573e-07
1.79168e-07
2.36776e-07
2.26973e-07
1.93488e-07
2.05941e-07
1.88859e-07
2.03061e-07
1.93855e-07
1.87036e-07
1.89663e-07
2.47342e-07
2.38218e-07
3.05605e-07
2.36995e-07
3.04522e-07
2.49815e-07
2.34323e-07
2.25045e-07
2.192e-07
1.77594e-07
2.12148e-07
1.73215e-07
2.26676e-07
2.16816e-07
1.87424e-07
2.02192e-07
1.83414e-07
1.99885e-07
1.88207e-07
1.81036e-07
1.84051e-07
2.37709e-07
2.29413e-07
2.99785e-07
2.2835e-07
2.75508e-07
2.34006e-07
2.24692e-07
2.15882e-07
2.09971e-07
1.71764e-07
2.04458e-07
1.67568e-07
2.16546e-07
2.0674e-07
1.82146e-07
1.99031e-07
1.78663e-07
1.96683e-07
1.82722e-07
1.75742e-07
1.78825e-07
2.29029e-07
2.21818e-07
2.70443e-07
2.2074e-07
2.65402e-07
2.25594e-07
2.15623e-07
2.07562e-07
2.0274e-07
1.66136e-07
1.97186e-07
1.6211e-07
2.06589e-07
1.9843e-07
1.77462e-07
1.95867e-07
1.74103e-07
1.93502e-07
1.77668e-07
1.72131e-07
1.74506e-07
2.21553e-07
2.15281e-07
2.65429e-07
2.15149e-07
2.70778e-07
2.26401e-07
2.07433e-07
2.00525e-07
1.95579e-07
1.61004e-07
1.92112e-07
1.58339e-07
1.98442e-07
1.91803e-07
1.73233e-07
1.93016e-07
1.70835e-07
1.91728e-07
1.7361e-07
1.70015e-07
1.7176e-07
2.15117e-07
2.09662e-07
2.80443e-07
2.10972e-07
3.33171e-07
2.42138e-07
2.00551e-07
1.94832e-07
1.91052e-07
1.5766e-07
1.87407e-07
1.56061e-07
1.91947e-07
1.86642e-07
1.70249e-07
1.91649e-07
1.68938e-07
1.916e-07
1.71334e-07
1.68851e-07
1.71249e-07
2.09669e-07
2.0553e-07
3.58056e-07
2.08097e-07
4.35996e-07
2.66756e-07
1.95068e-07
1.91185e-07
1.86614e-07
1.55838e-07
1.84293e-07
1.56268e-07
1.86987e-07
1.83187e-07
1.68665e-07
1.91846e-07
1.68907e-07
1.93099e-07
1.71488e-07
1.69457e-07
1.73812e-07
2.05763e-07
2.03433e-07
4.58803e-07
2.06953e-07
5.08405e-07
2.89053e-07
1.91841e-07
1.90593e-07
1.84226e-07
1.56761e-07
1.85309e-07
1.60289e-07
1.84038e-07
1.83684e-07
1.69378e-07
1.93762e-07
1.71945e-07
1.97299e-07
1.7466e-07
1.72717e-07
1.7752e-07
2.04179e-07
2.03917e-07
5.18816e-07
2.08604e-07
5.29193e-07
2.87696e-07
1.92055e-07
1.95137e-07
1.85794e-07
1.61623e-07
1.89812e-07
1.68829e-07
1.853e-07
1.90161e-07
1.73114e-07
1.98968e-07
1.79603e-07
2.06899e-07
1.77921e-07
1.8113e-07
1.82614e-07
2.05447e-07
2.11113e-07
5.264e-07
2.1522e-07
4.64904e-07
2.45782e-07
1.98148e-07
2.07501e-07
1.92305e-07
1.70547e-07
2.02148e-07
1.83487e-07
1.92786e-07
2.04188e-07
1.82839e-07
2.09029e-07
1.94156e-07
2.21931e-07
1.8518e-07
1.96525e-07
1.93132e-07
2.13858e-07
2.23827e-07
4.46002e-07
2.2765e-07
4.06257e-07
2.39206e-07
2.14006e-07
2.38664e-07
2.08266e-07
1.87851e-07
2.31119e-07
2.11328e-07
2.10257e-07
2.33449e-07
2.00275e-07
2.28107e-07
2.20543e-07
2.48767e-07
2.0217e-07
2.22845e-07
2.20134e-07
2.31243e-07
2.54876e-07
4.03885e-07
2.52958e-07
4.0843e-07
2.77992e-07
2.48886e-07
2.97793e-07
2.39383e-07
2.21508e-07
2.78271e-07
2.461e-07
2.50029e-07
2.80906e-07
2.28012e-07
2.58255e-07
2.65151e-07
2.98367e-07
2.28966e-07
2.56835e-07
2.64661e-07
2.658e-07
3.20335e-07
4.08561e-07
2.96539e-07
3.9524e-07
3.19857e-07
3.21205e-07
4.00799e-07
2.96372e-07
2.66174e-07
3.48636e-07
3.25987e-07
2.95573e-07
4.23439e-07
2.80678e-07
3.09186e-07
3.24965e-07
3.74677e-07
2.69337e-07
3.31001e-07
3.50558e-07
3.38951e-07
4.3289e-07
3.93751e-07
3.67181e-07
4.34655e-07
4.90828e-07
4.331e-07
6.30599e-07
3.77727e-07
3.44036e-07
4.69987e-07
4.35736e-07
4.45256e-07
6.24237e-07
3.50301e-07
4.00494e-07
4.33133e-07
4.79932e-07
3.82245e-07
4.37224e-07
4.08348e-07
4.88315e-07
6.17332e-07
4.47752e-07
4.5929e-07
4.48403e-07
5.23748e-07
6.78059e-07
9.62122e-07
4.96392e-07
4.70682e-07
6.51696e-07
5.62388e-07
6.87927e-07
9.28429e-07
4.54265e-07
5.15388e-07
6.00958e-07
6.47375e-07
4.24336e-07
5.66491e-07
6.19528e-07
6.80718e-07
9.81519e-07
4.519e-07
6.27291e-07
6.28576e-07
1.16814e-06
1.10164e-06
1.45717e-06
7.10555e-07
6.20227e-07
8.481e-07
8.17778e-07
9.87677e-07
1.67881e-06
6.58123e-07
6.96561e-07
7.59379e-07
8.74198e-07
6.64885e-07
8.08359e-07
7.80132e-07
1.09182e-06
1.50944e-06
6.88369e-07
8.33506e-07
8.83333e-07
1.47559e-06
1.54132e-06
2.61768e-06
9.58249e-07
8.81889e-07
1.24115e-06
1.09039e-06
1.815e-06
2.37064e-06
8.61754e-07
9.71278e-07
1.10645e-06
1.14244e-06
8.36692e-07
1.09195e-06
1.12362e-06
1.65748e-06
2.45202e-06
9.45991e-07
1.09191e-06
1.16311e-06
2.40128e-06
2.73023e-06
3.71655e-06
1.2743e-06
1.13518e-06
1.72663e-06
1.5624e-06
2.58905e-06
3.57119e-06
1.14197e-06
1.22623e-06
1.57314e-06
1.63352e-06
1.22373e-06
1.53786e-06
1.40872e-06
2.52961e-06
3.93378e-06
1.25312e-06
1.57481e-06
1.41574e-06
3.58214e-06
4.2708e-06
4.88684e-06
1.88439e-06
1.73474e-06
2.03804e-06
1.9462e-06
4.11429e-06
5.31549e-06
1.68003e-06
1.71641e-06
1.86716e-06
2.1469e-06
1.57174e-06
1.93357e-06
2.07278e-06
4.42762e-06
4.98245e-06
1.54667e-06
2.01455e-06
2.09908e-06
5.56062e-06
5.03814e-06
7.97461e-06
2.16346e-06
2.00967e-06
2.89431e-06
2.69634e-06
5.38649e-06
7.10018e-06
2.10844e-06
2.23616e-06
2.65195e-06
2.74498e-06
2.12965e-06
2.67455e-06
2.65789e-06
5.21664e-06
7.29932e-06
2.15967e-06
2.62797e-06
2.64508e-06
6.90202e-06
8.24399e-06
8.76617e-06
2.97176e-06
2.87084e-06
3.21141e-06
3.20308e-06
7.84156e-06
9.43613e-06
2.71521e-06
3.02993e-06
3.20538e-06
3.46175e-06
2.88074e-06
3.14215e-06
3.14591e-06
7.62029e-06
9.92625e-06
2.88724e-06
3.34982e-06
3.1633e-06
9.36542e-06
9.27742e-06
1.22327e-05
3.47938e-06
3.3974e-06
4.23339e-06
4.35841e-06
9.60064e-06
1.23202e-05
3.46272e-06
3.54022e-06
4.16707e-06
4.55001e-06
3.31936e-06
4.34682e-06
4.42284e-06
1.01357e-05
1.20234e-05
3.31071e-06
4.37162e-06
4.42401e-06
1.27957e-05
1.2719e-05
1.43637e-05
4.44404e-06
4.64142e-06
5.20616e-06
4.98002e-06
1.30985e-05
1.41679e-05
4.38115e-06
4.85748e-06
5.11054e-06
5.15124e-06
4.58265e-06
4.91159e-06
4.82641e-06
1.31026e-05
1.4444e-05
4.60627e-06
5.02642e-06
4.84243e-06
1.3892e-05
1.48582e-05
1.67221e-05
5.45449e-06
5.09737e-06
6.15294e-06
6.45603e-06
1.43909e-05
1.69126e-05
5.36567e-06
5.28531e-06
6.14243e-06
6.5672e-06
5.15352e-06
6.40525e-06
6.24642e-06
1.45392e-05
1.69542e-05
5.13365e-06
6.37575e-06
6.28321e-06
1.70794e-05
1.71962e-05
1.90711e-05
6.43641e-06
6.85373e-06
7.45093e-06
7.4101e-06
1.76175e-05
1.91693e-05
6.44988e-06
6.79855e-06
7.45649e-06
7.443e-06
6.504e-06
7.2998e-06
7.60525e-06
1.78894e-05
1.90053e-05
6.5148e-06
7.34275e-06
7.54323e-06
1.9107e-05
1.95572e-05
2.10419e-05
7.75473e-06
7.6781e-06
8.72361e-06
8.64747e-06
1.94165e-05
2.08605e-05
7.74554e-06
7.8003e-06
8.69996e-06
9.01802e-06
7.9094e-06
8.68243e-06
8.56291e-06
1.92831e-05
2.12375e-05
7.8865e-06
8.80741e-06
8.63317e-06
2.10267e-05
2.14798e-05
2.29494e-05
9.08073e-06
9.10122e-06
1.02204e-05
1.03488e-05
2.15202e-05
2.30942e-05
9.06072e-06
9.28818e-06
1.01809e-05
1.0215e-05
8.87638e-06
1.02605e-05
1.01824e-05
2.17175e-05
2.28313e-05
8.87333e-06
1.01696e-05
1.01659e-05
2.28621e-05
2.33514e-05
2.46128e-05
1.05648e-05
1.06329e-05
1.16983e-05
1.15465e-05
2.33803e-05
2.44512e-05
1.0537e-05
1.06549e-05
1.16956e-05
1.17038e-05
1.07096e-05
1.14715e-05
1.18639e-05
2.32762e-05
2.46328e-05
1.07825e-05
1.17122e-05
1.1873e-05
2.47993e-05
2.49979e-05
2.62101e-05
1.20657e-05
1.19908e-05
1.34347e-05
1.36591e-05
2.49093e-05
2.63323e-05
1.20511e-05
1.20008e-05
1.33828e-05
1.35311e-05
1.20558e-05
1.36266e-05
1.32442e-05
2.49576e-05
2.62223e-05
1.19931e-05
1.34137e-05
1.32704e-05
2.59969e-05
2.65732e-05
2.75336e-05
1.39138e-05
1.40536e-05
1.49011e-05
1.47771e-05
2.6674e-05
2.75061e-05
1.38141e-05
1.40838e-05
1.49089e-05
1.49467e-05
1.3857e-05
1.47196e-05
1.50239e-05
2.66325e-05
2.75114e-05
1.39015e-05
1.49108e-05
1.49814e-05
2.77437e-05
2.78488e-05
2.90026e-05
1.52876e-05
1.52631e-05
1.69809e-05
1.72177e-05
2.78374e-05
2.91084e-05
1.5306e-05
1.53135e-05
1.69492e-05
1.68566e-05
1.53724e-05
1.71759e-05
1.70723e-05
2.77902e-05
2.89531e-05
1.53682e-05
1.68105e-05
1.7091e-05
2.89196e-05
2.93177e-05
3.00613e-05
1.7428e-05
1.75741e-05
1.83619e-05
1.81441e-05
2.93808e-05
2.98958e-05
1.73545e-05
1.72977e-05
1.82856e-05
1.86834e-05
1.74405e-05
1.80724e-05
1.8149e-05
2.93212e-05
3.02174e-05
1.74491e-05
1.85568e-05
1.80038e-05
3.00439e-05
3.03499e-05
3.15403e-05
1.88246e-05
1.87044e-05
2.06601e-05
2.06033e-05
3.01649e-05
3.15632e-05
1.87997e-05
1.91034e-05
2.06697e-05
2.05292e-05
1.87255e-05
2.06766e-05
2.09318e-05
3.04972e-05
3.14689e-05
1.85795e-05
2.06223e-05
2.09689e-05
3.16468e-05
3.18054e-05
3.23545e-05
2.1093e-05
2.09895e-05
2.1899e-05
2.21498e-05
3.18581e-05
3.24235e-05
2.10576e-05
2.10846e-05
2.18262e-05
2.1902e-05
2.14309e-05
2.19864e-05
2.19748e-05
3.17507e-05
3.23269e-05
2.14867e-05
2.18672e-05
2.20469e-05
3.22319e-05
3.26077e-05
3.39444e-05
2.23055e-05
2.2606e-05
2.43601e-05
2.39582e-05
3.26591e-05
3.38569e-05
2.23109e-05
2.21392e-05
2.43037e-05
2.41851e-05
2.2102e-05
2.40047e-05
2.41139e-05
3.25356e-05
3.39102e-05
2.21734e-05
2.42227e-05
2.41812e-05
3.41352e-05
3.42301e-05
3.46515e-05
2.49365e-05
2.45368e-05
2.55603e-05
2.62442e-05
3.41826e-05
3.49115e-05
2.48317e-05
2.49694e-05
2.54719e-05
2.60977e-05
2.49859e-05
2.61787e-05
2.63281e-05
3.43307e-05
3.48899e-05
2.50567e-05
2.60751e-05
2.64202e-05
3.4874e-05
3.4822e-05
3.59958e-05
2.5817e-05
2.65528e-05
2.75831e-05
2.68777e-05
3.50628e-05
3.54278e-05
2.57702e-05
2.61674e-05
2.76164e-05
2.71784e-05
2.64242e-05
2.67067e-05
2.69314e-05
3.49684e-05
3.57249e-05
2.65302e-05
2.7184e-05
2.68113e-05
3.55085e-05
3.6323e-05
3.69695e-05
2.80097e-05
2.70795e-05
2.92062e-05
2.94975e-05
3.56581e-05
3.73704e-05
2.8165e-05
2.8026e-05
2.90085e-05
2.91505e-05
2.75077e-05
2.96341e-05
2.92131e-05
3.62005e-05
3.70288e-05
2.73388e-05
2.89684e-05
2.93694e-05
3.73098e-05
3.7159e-05
3.81543e-05
2.96518e-05
3.02543e-05
3.08855e-05
3.11707e-05
3.77371e-05
3.82846e-05
2.94058e-05
2.94252e-05
3.10155e-05
3.11092e-05
2.99335e-05
3.09943e-05
3.16955e-05
3.71643e-05
3.82579e-05
2.99914e-05
3.12045e-05
3.1627e-05
3.86224e-05
3.83921e-05
3.90061e-05
3.12029e-05
3.12786e-05
3.23376e-05
3.25214e-05
3.84058e-05
3.91229e-05
3.13687e-05
3.15666e-05
3.20906e-05
3.20911e-05
3.19674e-05
3.25213e-05
3.21781e-05
3.8583e-05
3.89483e-05
3.19276e-05
3.22028e-05
3.22025e-05
3.86476e-05
3.92512e-05
4.02238e-05
3.28503e-05
3.29115e-05
3.39199e-05
3.33062e-05
3.93119e-05
3.95717e-05
3.25234e-05
3.24408e-05
3.40817e-05
3.40776e-05
3.2202e-05
3.32504e-05
3.35072e-05
3.90517e-05
4.02482e-05
3.22225e-05
3.38261e-05
3.2913e-05
3.99339e-05
4.03673e-05
4.08288e-05
3.40436e-05
3.34385e-05
3.49722e-05
3.54228e-05
3.97521e-05
4.15681e-05
3.435e-05
3.4342e-05
3.47561e-05
3.50916e-05
3.42858e-05
3.55011e-05
3.53824e-05
4.05391e-05
4.10507e-05
3.39487e-05
3.53051e-05
3.62657e-05
4.16965e-05
4.1115e-05
4.23974e-05
3.55391e-05
3.61128e-05
3.69334e-05
3.70276e-05
4.19176e-05
4.21981e-05
3.51854e-05
3.5596e-05
3.69804e-05
3.67234e-05
3.58248e-05
3.7024e-05
3.69522e-05
4.12489e-05
4.21913e-05
3.66608e-05
3.66887e-05
3.69799e-05
4.22115e-05
4.2558e-05
4.26997e-05
3.71802e-05
3.70852e-05
3.75037e-05
3.72339e-05
4.22175e-05
4.25073e-05
3.73494e-05
3.6885e-05
3.76768e-05
3.77893e-05
3.7081e-05
3.71957e-05
3.71398e-05
4.23226e-05
4.2759e-05
3.69621e-05
3.76388e-05
3.6818e-05
4.19834e-05
4.27716e-05
4.37433e-05
3.76598e-05
3.75069e-05
3.89128e-05
3.94436e-05
4.28194e-05
4.43231e-05
3.77068e-05
3.81629e-05
3.86009e-05
3.8759e-05
3.72121e-05
3.94328e-05
3.93685e-05
4.29882e-05
4.37902e-05
3.6881e-05
3.87646e-05
3.92683e-05
4.44618e-05
4.41362e-05
4.50474e-05
3.94577e-05
3.97589e-05
4.04884e-05
4.00221e-05
4.44443e-05
4.44818e-05
3.93396e-05
3.90162e-05
4.06577e-05
4.04816e-05
3.99989e-05
4.01193e-05
4.05562e-05
4.39576e-05
4.49724e-05
3.99687e-05
4.05139e-05
4.0664e-05
4.49697e-05
4.50999e-05
4.49634e-05
4.0587e-05
4.01139e-05
4.07853e-05
4.13722e-05
4.45693e-05
4.56803e-05
4.07807e-05
4.09098e-05
4.08415e-05
4.13999e-05
4.05581e-05
4.12583e-05
4.06862e-05
4.52272e-05
4.55025e-05
4.06805e-05
4.12882e-05
4.08233e-05
4.50371e-05
4.50806e-05
4.63609e-05
4.11275e-05
4.17037e-05
4.21809e-05
4.1982e-05
4.58674e-05
4.591e-05
4.0927e-05
4.14206e-05
4.21163e-05
4.18261e-05
4.0953e-05
4.20446e-05
4.18461e-05
4.5528e-05
4.60401e-05
4.09857e-05
4.18031e-05
4.1803e-05
4.59461e-05
4.65146e-05
4.7151e-05
4.22733e-05
4.20057e-05
4.32347e-05
4.3037e-05
4.59386e-05
4.71494e-05
4.23804e-05
4.23997e-05
4.34184e-05
4.34911e-05
4.23324e-05
4.30803e-05
4.36682e-05
4.64144e-05
4.71818e-05
4.2324e-05
4.35609e-05
4.36173e-05
4.74431e-05
4.74211e-05
4.77303e-05
4.37428e-05
4.37458e-05
4.45404e-05
4.45933e-05
4.75669e-05
4.78949e-05
4.3756e-05
4.36005e-05
4.4127e-05
4.36709e-05
4.38534e-05
4.45256e-05
4.42128e-05
4.72048e-05
4.70381e-05
4.37727e-05
4.36934e-05
4.39276e-05
4.75318e-05
4.77371e-05
4.80168e-05
4.45749e-05
4.46029e-05
4.46296e-05
4.45529e-05
4.78729e-05
4.75908e-05
4.41327e-05
4.37547e-05
4.45032e-05
4.57205e-05
4.44828e-05
4.4494e-05
4.49076e-05
4.718e-05
4.93091e-05
4.41291e-05
4.55423e-05
4.52433e-05
4.84367e-05
4.84037e-05
4.96152e-05
4.47967e-05
4.45976e-05
4.61391e-05
4.63832e-05
4.77854e-05
5.00168e-05
4.52414e-05
4.63359e-05
4.66821e-05
4.68394e-05
4.49485e-05
4.64674e-05
4.58832e-05
4.96429e-05
4.97247e-05
4.53437e-05
4.64832e-05
4.5772e-05
4.90236e-05
4.9722e-05
4.97399e-05
4.6575e-05
4.69939e-05
4.72205e-05
4.74893e-05
5.03063e-05
5.012e-05
4.68279e-05
4.67991e-05
4.68649e-05
4.59942e-05
4.64896e-05
4.73686e-05
4.73011e-05
4.96583e-05
4.85449e-05
4.62687e-05
4.62476e-05
4.71174e-05
4.99899e-05
4.97409e-05
4.95409e-05
4.72327e-05
4.74532e-05
4.71108e-05
4.68706e-05
5.00416e-05
4.93074e-05
4.67696e-05
4.58653e-05
4.66262e-05
4.60259e-05
4.73211e-05
4.69487e-05
4.72918e-05
4.85356e-05
4.95691e-05
4.71628e-05
4.66608e-05
4.71784e-05
4.99252e-05
4.96795e-05
5.12177e-05
4.71111e-05
4.68048e-05
4.8056e-05
4.71435e-05
4.93364e-05
5.04718e-05
4.67208e-05
4.66713e-05
4.86085e-05
4.91005e-05
4.73261e-05
4.77494e-05
4.83359e-05
5.0138e-05
5.18253e-05
4.72742e-05
4.8964e-05
4.8477e-05
5.10721e-05
5.1437e-05
5.17305e-05
4.84613e-05
4.79696e-05
4.92347e-05
5.00876e-05
5.0918e-05
5.25909e-05
4.9056e-05
4.95239e-05
4.95129e-05
5.00665e-05
4.85668e-05
4.97821e-05
4.88662e-05
5.19422e-05
5.20698e-05
4.86803e-05
4.94141e-05
4.88868e-05
5.13055e-05
5.18955e-05
5.263e-05
4.96432e-05
5.03768e-05
5.04872e-05
5.04724e-05
5.2766e-05
5.24009e-05
4.96894e-05
5.01121e-05
5.02674e-05
5.0076e-05
4.9182e-05
5.02597e-05
5.0289e-05
5.21259e-05
5.21599e-05
4.9042e-05
4.99282e-05
5.01961e-05
5.25649e-05
5.26516e-05
5.21714e-05
5.05222e-05
5.03149e-05
5.03272e-05
4.98653e-05
5.23039e-05
5.1728e-05
5.02995e-05
4.99595e-05
5.01932e-05
4.9787e-05
5.04103e-05
4.99299e-05
5.04109e-05
5.21557e-05
5.19761e-05
5.03876e-05
5.01584e-05
5.04662e-05
5.2352e-05
5.21746e-05
5.26093e-05
5.0252e-05
4.98536e-05
5.0305e-05
5.03503e-05
5.17949e-05
5.28138e-05
5.01592e-05
4.98017e-05
5.03195e-05
5.07051e-05
5.03709e-05
5.04463e-05
5.04973e-05
5.20667e-05
5.29739e-05
5.04368e-05
5.07408e-05
5.05306e-05
5.27693e-05
5.28486e-05
5.35556e-05
5.05918e-05
5.08278e-05
5.15777e-05
5.18219e-05
5.31013e-05
5.38625e-05
5.07332e-05
5.10138e-05
5.16012e-05
5.16877e-05
5.09802e-05
5.2033e-05
5.22205e-05
5.31447e-05
5.36289e-05
5.09437e-05
5.17658e-05
5.21812e-05
5.44114e-05
5.36703e-05
5.45542e-05
5.18181e-05
5.21088e-05
5.26907e-05
5.27001e-05
5.40147e-05
5.4393e-05
5.18065e-05
5.19866e-05
5.26305e-05
5.26053e-05
5.22314e-05
5.24358e-05
5.14988e-05
5.38187e-05
5.43133e-05
5.21924e-05
5.2325e-05
5.14809e-05
5.25216e-05
5.47022e-05
5.46271e-05
5.28862e-05
5.27357e-05
5.30124e-05
5.27087e-05
5.44129e-05
5.42464e-05
5.28284e-05
5.26321e-05
5.29744e-05
5.26053e-05
5.13914e-05
5.24196e-05
5.2407e-05
5.43242e-05
5.41167e-05
5.1381e-05
5.2345e-05
5.24232e-05
5.52085e-05
5.46148e-05
5.45667e-05
5.30077e-05
5.27112e-05
5.30245e-05
5.32587e-05
5.42723e-05
5.5237e-05
5.2974e-05
5.2615e-05
5.30073e-05
5.34143e-05
5.3775e-05
5.37909e-05
5.52324e-05
5.4158e-05
5.54132e-05
5.37598e-05
5.38552e-05
5.51566e-05
5.75925e-05
5.47045e-05
5.54681e-05
5.30965e-05
5.36054e-05
5.38028e-05
5.38723e-05
5.54143e-05
5.53085e-05
5.31171e-05
5.37791e-05
5.38887e-05
5.40565e-05
5.51802e-05
5.38983e-05
5.28295e-05
5.55917e-05
5.55042e-05
5.51027e-05
5.40496e-05
5.28884e-05
5.32828e-05
5.54943e-05
5.49626e-05
5.38537e-05
5.38221e-05
5.37332e-05
5.34382e-05
5.52034e-05
5.4583e-05
5.39299e-05
5.40118e-05
5.37521e-05
5.34657e-05
5.21295e-05
5.31195e-05
5.15779e-05
5.54252e-05
5.45967e-05
5.22464e-05
5.32434e-05
5.17226e-05
5.26758e-05
5.49418e-05
5.54265e-05
5.36892e-05
5.34239e-05
5.38162e-05
5.39165e-05
5.46005e-05
5.57022e-05
5.36826e-05
5.34007e-05
5.37605e-05
5.35771e-05
5.16615e-05
5.38009e-05
5.43591e-05
5.45876e-05
5.53016e-05
5.17846e-05
5.33723e-05
5.41649e-05
5.65364e-05
5.5782e-05
5.69464e-05
5.42145e-05
5.44127e-05
5.5441e-05
5.54078e-05
5.60396e-05
5.69222e-05
5.409e-05
5.40824e-05
5.54251e-05
5.55691e-05
5.54495e-05
5.57055e-05
5.7515e-05
5.57116e-05
5.71841e-05
5.52646e-05
5.58432e-05
5.75639e-05
5.94302e-05
5.70151e-05
5.69381e-05
5.56121e-05
5.56084e-05
5.57656e-05
5.59276e-05
5.70298e-05
5.72514e-05
5.56274e-05
5.58074e-05
5.58196e-05
5.60409e-05
5.77407e-05
5.62974e-05
5.76015e-05
5.73078e-05
5.73234e-05
5.78467e-05
5.64653e-05
5.77827e-05
5.84795e-05
5.69361e-05
5.66216e-05
5.57652e-05
5.59493e-05
5.55858e-05
5.58106e-05
5.72782e-05
5.66621e-05
5.58207e-05
5.60415e-05
5.56111e-05
5.57788e-05
5.69636e-05
5.55222e-05
5.39978e-05
5.7315e-05
5.66699e-05
5.72184e-05
5.54993e-05
5.39248e-05
5.43221e-05
5.65979e-05
5.63541e-05
5.55111e-05
5.5546e-05
5.53376e-05
5.49254e-05
5.64988e-05
5.56782e-05
5.54927e-05
5.55122e-05
5.52066e-05
5.48029e-05
5.33454e-05
5.44257e-05
5.26988e-05
5.65265e-05
5.55601e-05
5.31921e-05
5.4278e-05
5.246e-05
5.31871e-05
5.63577e-05
5.64094e-05
5.52779e-05
5.48484e-05
5.51774e-05
5.49097e-05
5.56759e-05
5.64854e-05
5.51521e-05
5.47121e-05
5.51369e-05
5.48515e-05
5.27449e-05
5.50472e-05
5.53915e-05
5.55393e-05
5.64401e-05
5.25057e-05
5.4877e-05
5.53076e-05
5.73226e-05
5.64718e-05
5.73996e-05
5.5185e-05
5.51846e-05
5.61084e-05
5.68113e-05
5.68169e-05
5.83199e-05
5.52194e-05
5.53243e-05
5.624e-05
5.7042e-05
5.66582e-05
5.73413e-05
5.90043e-05
5.68795e-05
5.85876e-05
5.66621e-05
5.75913e-05
5.9216e-05
6.08172e-05
5.77379e-05
5.91071e-05
5.67328e-05
5.72648e-05
5.79468e-05
5.78437e-05
5.85334e-05
5.89439e-05
5.67416e-05
5.73801e-05
5.78318e-05
5.76825e-05
5.92268e-05
5.79489e-05
5.89022e-05
5.87539e-05
5.88106e-05
5.94769e-05
5.81394e-05
5.92261e-05
5.94531e-05
5.9193e-05
5.83256e-05
5.80402e-05
5.78474e-05
5.77011e-05
5.69981e-05
5.8942e-05
5.73689e-05
5.7932e-05
5.76638e-05
5.77109e-05
5.70029e-05
5.79859e-05
5.65036e-05
5.55459e-05
5.87197e-05
5.75964e-05
5.83443e-05
5.67021e-05
5.55801e-05
5.59436e-05
5.79446e-05
5.61071e-05
5.69846e-05
5.64092e-05
5.54797e-05
5.55051e-05
5.71015e-05
5.62251e-05
5.71245e-05
5.66883e-05
5.56108e-05
5.5894e-05
5.52002e-05
5.54039e-05
5.50421e-05
5.74612e-05
5.65987e-05
5.5143e-05
5.54896e-05
5.48631e-05
5.60591e-05
5.60521e-05
5.71162e-05
5.53553e-05
5.54694e-05
5.56964e-05
5.60992e-05
5.62411e-05
5.78208e-05
5.54527e-05
5.57652e-05
5.56131e-05
5.57535e-05
5.52091e-05
5.66017e-05
5.65412e-05
5.65616e-05
5.68935e-05
5.49543e-05
5.56357e-05
5.61677e-05
5.76154e-05
5.76402e-05
5.96232e-05
5.65275e-05
5.68635e-05
5.83492e-05
5.82417e-05
5.82169e-05
5.93993e-05
5.62211e-05
5.59737e-05
5.8103e-05
5.76035e-05
5.68808e-05
5.81572e-05
5.76396e-05
5.72192e-05
5.88783e-05
5.65242e-05
5.77435e-05
5.75225e-05
5.85234e-05
5.9709e-05
5.87244e-05
5.85075e-05
5.83545e-05
5.82337e-05
5.80965e-05
5.94402e-05
5.84639e-05
5.83056e-05
5.7885e-05
5.82024e-05
5.80361e-05
5.7826e-05
5.77553e-05
5.80535e-05
5.90235e-05
5.89214e-05
5.78352e-05
5.81468e-05
5.83197e-05
5.92612e-05
5.83861e-05
5.69033e-05
5.75655e-05
5.75061e-05
5.60958e-05
5.62565e-05
5.81934e-05
5.71363e-05
5.7754e-05
5.79482e-05
5.64341e-05
5.71641e-05
5.80535e-05
5.65502e-05
5.76841e-05
5.88099e-05
5.80338e-05
5.83412e-05
5.7273e-05
5.79831e-05
5.86677e-05
5.68801e-05
5.75383e-05
5.59658e-05
5.61598e-05
5.6139e-05
5.63823e-05
5.71375e-05
5.78843e-05
5.62923e-05
5.70311e-05
5.63457e-05
5.68971e-05
5.72826e-05
5.67647e-05
5.62373e-05
5.80237e-05
5.80163e-05
5.74429e-05
5.68679e-05
5.60782e-05
5.68334e-05
5.78039e-05
5.85627e-05
5.66044e-05
5.6791e-05
5.75638e-05
5.74481e-05
5.80655e-05
5.83565e-05
5.66252e-05
5.68824e-05
5.72972e-05
5.66939e-05
5.60643e-05
5.71002e-05
5.5996e-05
5.80185e-05
5.74955e-05
5.58554e-05
5.64181e-05
5.57552e-05
5.67494e-05
5.86006e-05
5.84208e-05
5.76635e-05
5.75025e-05
5.765e-05
5.74798e-05
5.83604e-05
5.83094e-05
5.73532e-05
5.66283e-05
5.72915e-05
5.66071e-05
5.61647e-05
5.72402e-05
5.77688e-05
5.7465e-05
5.76219e-05
5.59355e-05
5.66747e-05
5.78343e-05
5.92479e-05
5.83967e-05
5.81167e-05
5.75402e-05
5.74322e-05
5.71585e-05
5.7192e-05
5.83279e-05
5.82582e-05
5.72147e-05
5.6704e-05
5.70972e-05
5.73438e-05
5.80547e-05
5.73315e-05
5.81703e-05
5.78454e-05
5.86587e-05
5.82006e-05
5.77131e-05
5.83999e-05
5.94448e-05
5.81078e-05
5.78658e-05
5.70657e-05
5.7061e-05
5.66929e-05
5.65275e-05
5.8216e-05
5.75196e-05
5.70908e-05
5.74284e-05
5.70294e-05
5.73849e-05
5.79907e-05
5.65949e-05
5.62839e-05
5.87116e-05
5.82145e-05
5.82579e-05
5.72313e-05
5.63605e-05
5.69548e-05
5.78617e-05
5.77743e-05
5.66136e-05
5.64241e-05
5.65202e-05
5.63437e-05
5.74923e-05
5.74786e-05
5.69989e-05
5.72065e-05
5.6758e-05
5.66421e-05
5.59586e-05
5.63468e-05
5.57126e-05
5.80763e-05
5.74824e-05
5.59119e-05
5.62133e-05
5.54809e-05
5.65278e-05
5.78046e-05
5.79874e-05
5.65506e-05
5.64121e-05
5.68202e-05
5.70859e-05
5.75836e-05
5.84007e-05
5.67337e-05
5.662e-05
5.67082e-05
5.67257e-05
5.57748e-05
5.70593e-05
5.69725e-05
5.74933e-05
5.80634e-05
5.55126e-05
5.67152e-05
5.68182e-05
5.83433e-05
5.80059e-05
5.68239e-05
5.68394e-05
5.71674e-05
5.61758e-05
5.67589e-05
5.84713e-05
5.77284e-05
5.66985e-05
5.67565e-05
5.577e-05
5.61801e-05
5.72482e-05
5.68381e-05
5.73317e-05
5.8139e-05
5.74515e-05
5.72381e-05
5.67917e-05
5.75239e-05
5.86526e-05
5.64898e-05
5.48296e-05
5.53247e-05
5.72769e-05
5.45065e-05
5.4821e-05
4.65676e-05
4.62105e-05
4.70941e-05
5.60392e-05
5.70114e-05
5.62574e-05
2.93689e-08
2.41249e-07
4.02644e-08
4.25606e-08
2.88643e-07
2.77176e-07
1.32099e-07
1.13974e-07
2.7438e-07
3.49386e-07
1.25798e-07
4.62155e-07
3.68952e-07
2.14908e-07
2.55293e-07
3.05558e-07
7.33826e-06
2.67414e-07
9.5513e-06
1.31524e-05
2.03281e-05
3.5792e-07
4.87561e-06
3.21151e-07
6.52244e-06
1.49723e-07
1.63581e-07
1.66464e-07
1.71181e-07
1.49702e-07
1.6305e-07
1.6671e-07
2.67204e-07
5.19371e-07
2.19023e-07
2.54111e-07
2.74375e-07
5.05364e-07
2.18242e-07
1.44676e-05
2.23948e-05
2.5492e-07
2.45467e-07
7.26235e-07
3.4598e-07
2.60234e-07
2.4423e-07
6.97981e-07
1.85493e-06
1.88465e-06
3.52183e-07
1.81995e-06
1.86158e-06
4.97008e-07
1.48292e-05
4.13015e-07
1.86178e-05
3.53681e-05
4.52854e-05
5.48834e-07
9.60684e-06
4.66187e-07
1.22153e-05
1.48742e-07
1.6243e-07
1.65744e-07
1.59413e-07
1.45799e-07