/*--------------------------------*- C++ -*----------------------------------*\
| =========                 |                                                 |
| \\      /  F ield         | OpenFOAM: The Open Source CFD Toolbox           |
|  \\    /   O peration     | Version:  v2012                                 |
|   \\  /    A nd           | Website:  www.openfoam.com                      |
|    \\/     M anipulation  |                                                 |
\*---------------------------------------------------------------------------*/
FoamFile
{
    version     2.0;
    format      ascii;
    class       volScalarField;
    location    "1662.5";
    object      nut;
}
// * * * * * * * * * * * * * * * * * * * * * * * * * * * * * * * * * * * * * //

dimensions      [0 2 -1 0 0 0 0];


internalField   nonuniform List<scalar> 
171728
(
1.81142e-06
1.78989e-06
2.2262e-06
2.25463e-06
1.85615e-06
1.75236e-06
2.17122e-06
2.21234e-06
1.75604e-06
1.71967e-06
2.16183e-06
2.16747e-06
1.69911e-06
1.68802e-06
2.14327e-06
2.1146e-06
1.70856e-06
1.66085e-06
2.09479e-06
2.05714e-06
1.7186e-06
1.64229e-06
2.06064e-06
1.99838e-06
1.71094e-06
1.63363e-06
2.0319e-06
1.98629e-06
1.6969e-06
1.62148e-06
1.99401e-06
1.98699e-06
1.68177e-06
1.58043e-06
1.93518e-06
1.93442e-06
1.66576e-06
1.5112e-06
1.86223e-06
1.75757e-06
1.6536e-06
1.43274e-06
1.77938e-06
1.69754e-06
1.63629e-06
1.36142e-06
1.69729e-06
1.81062e-06
1.62468e-06
1.2852e-06
1.6091e-06
2.09512e-06
1.61154e-06
1.19696e-06
1.5087e-06
2.46305e-06
1.60083e-06
1.10724e-06
1.40104e-06
2.69545e-06
1.59695e-06
1.02284e-06
1.29162e-06
2.47324e-06
1.59138e-06
9.61739e-07
1.20607e-06
1.68535e-06
1.59197e-06
9.30915e-07
1.14228e-06
1.32892e-06
1.59865e-06
9.84069e-07
1.1406e-06
1.38804e-06
1.59979e-06
1.019e-06
1.20228e-06
1.36854e-06
1.58434e-06
1.20837e-06
1.43793e-06
2.30129e-06
1.56256e-06
1.6009e-06
1.66511e-06
1.61215e-06
1.50659e-06
1.97136e-06
2.24303e-06
4.69449e-06
1.43658e-06
2.81833e-06
3.11121e-06
5.01032e-06
1.37307e-06
3.59963e-06
3.57069e-06
8.50402e-06
1.34693e-06
5.75596e-06
5.51495e-06
1.21946e-05
1.12778e-06
6.27662e-06
6.86062e-06
2.00545e-05
1.06015e-06
9.817e-06
9.74165e-06
2.25449e-05
9.35456e-07
1.05777e-05
1.10854e-05
2.90973e-05
1.00933e-06
1.60585e-05
1.65385e-05
4.29927e-05
1.13647e-06
1.61656e-05
1.65716e-05
4.1821e-05
1.26397e-06
2.37646e-05
2.27543e-05
5.38935e-05
1.60897e-06
2.52466e-05
2.58594e-05
5.82438e-05
1.98309e-06
3.06545e-05
3.09127e-05
6.37238e-05
2.55892e-06
3.62713e-05
3.63663e-05
6.93925e-05
3.2879e-06
3.99869e-05
4.05445e-05
7.49109e-05
4.48059e-06
4.83873e-05
4.78184e-05
7.83411e-05
5.10142e-06
5.09085e-05
5.17404e-05
8.3871e-05
7.59401e-06
6.12072e-05
5.89845e-05
8.74864e-05
8.08822e-06
6.10463e-05
6.39802e-05
9.09711e-05
1.19331e-05
7.25169e-05
7.29165e-05
9.67637e-05
1.24903e-05
7.56726e-05
7.36315e-05
9.72247e-05
1.79417e-05
8.34644e-05
8.55497e-05
0.000105671
1.96944e-05
9.09356e-05
8.9305e-05
0.000106914
2.48403e-05
8.92032e-05
9.49501e-05
0.000108841
2.77894e-05
0.000103985
9.84853e-05
0.000115789
3.4519e-05
0.000105541
0.000108878
0.000120867
3.79592e-05
0.000112863
0.000109056
0.000119043
4.68733e-05
0.000111566
0.000116396
0.000125103
4.82892e-05
0.000124256
0.000122246
0.00013151
5.90758e-05
0.00012815
0.00012612
0.000133056
6.6826e-05
0.000125901
0.000129893
0.000129749
6.50334e-05
0.000138342
0.000133674
0.000142026
8.36387e-05
0.000138271
0.000142098
0.000142908
8.54636e-05
0.000144991
0.00014345
0.000142506
9.03905e-05
0.000145809
0.000146871
0.000145942
9.95018e-05
0.00015286
0.00015384
0.000152203
0.000111841
0.000157697
0.000151429
0.000151739
0.000108954
0.000154446
0.00016352
0.000155517
0.000120497
0.000167839
0.000166551
0.000158446
0.000132382
0.000170405
0.00016337
0.000162097
0.000130129
0.000166222
0.000167088
0.000161033
0.000134449
0.000171431
0.000177988
0.000166299
0.000147544
0.000182094
0.000178736
0.000166582
0.000154845
0.000183293
0.000181582
0.000172719
0.000160035
0.000180027
0.000181437
0.000171249
0.000156971
0.000184362
0.00018535
0.00017283
0.000164714
0.000192133
0.000190668
0.000181947
0.000177177
0.000193555
0.000192949
0.000170761
0.000182624
0.00019227
0.000191811
0.000183807
0.000183762
0.000201154
0.000201541
0.000197749
0.000189406
0.000201076
0.000202467
0.000175488
0.000193824
0.000196536
0.000197499
0.000170716
0.000192743
0.000202032
0.000198764
0.000188952
0.000203202
0.000212241
0.00021322
0.000203443
0.000213867
0.000215857
0.000217088
0.000201067
0.00021604
0.000210041
0.00020998
0.000180878
0.000213366
0.000204465
0.000203692
0.000172991
0.00020996
0.000210056
0.000209453
0.000193054
0.000217716
0.000223141
0.000224591
0.000210654
0.000235499
0.000227462
0.00022849
0.000205472
0.000240102
0.000216999
0.000218582
0.000188318
0.000226033
0.000211264
0.000212636
0.000188827
0.000221336
0.000221318
0.000214797
0.000196539
0.000242129
0.000229912
0.000227639
0.000200768
0.000248985
0.000226563
0.000230836
0.000204858
0.000237564
0.000220831
0.000225103
0.000203109
0.000234455
0.000223669
0.000223724
0.000194216
0.000244962
0.000225987
0.000221564
0.000192793
0.000248945
0.000227693
0.000225386
0.000206022
0.000249057
0.00022956
0.000231616
0.000208666
0.000249181
0.000224899
0.000228174
0.000196229
0.000248846
0.000224144
0.00022356
0.000193446
0.000250616
0.000230126
0.000228255
0.000203272
0.000251239
0.000231508
0.000231461
0.000211296
2.34579e-06
3.36356e-06
2.15291e-06
2.25245e-06
2.1248e-06
2.02889e-06
1.75097e-06
1.56284e-06
1.59884e-06
1.57053e-06
2.04496e-06
2.06207e-06
2.31672e-06
2.5212e-06
2.2169e-06
2.25794e-06
2.33267e-06
2.42313e-06
9.35132e-06
1.79867e-06
1.08738e-05
1.76967e-06
2.25167e-06
2.22544e-06
1.82044e-06
2.07272e-06
1.79628e-06
1.70879e-06
1.7562e-06
1.75966e-06
1.74085e-06
2.31385e-06
2.26844e-06
1.81725e-06
2.18193e-06
1.80859e-06
2.21264e-06
2.3909e-06
2.32115e-06
9.94888e-06
1.75957e-06
6.09957e-06
1.72738e-06
2.22365e-06
2.18643e-06
1.79136e-06
1.63496e-06
1.77746e-06
1.54346e-06
1.73799e-06
1.72816e-06
1.72988e-06
2.264e-06
2.20119e-06
1.80833e-06
2.16013e-06
1.79862e-06
2.16857e-06
2.30373e-06
2.19338e-06
4.95579e-06
1.71581e-06
2.87344e-06
1.68305e-06
2.18385e-06
2.1393e-06
1.77565e-06
1.53577e-06
1.7759e-06
1.52777e-06
1.72792e-06
1.69458e-06
1.7172e-06
2.19851e-06
2.16036e-06
1.7971e-06
2.15337e-06
1.76914e-06
2.11661e-06
2.18677e-06
2.13587e-06
2.5414e-06
1.67161e-06
2.12718e-06
1.63853e-06
2.13573e-06
2.09412e-06
1.77373e-06
1.52607e-06
1.7583e-06
1.52244e-06
1.71276e-06
1.66714e-06
1.70167e-06
2.15881e-06
2.1239e-06
1.75968e-06
2.10547e-06
1.72021e-06
2.06065e-06
2.13029e-06
2.09169e-06
2.07634e-06
1.62744e-06
1.99398e-06
1.59733e-06
2.09056e-06
2.04956e-06
1.75111e-06
1.52194e-06
1.72668e-06
1.51838e-06
1.69959e-06
1.64474e-06
1.68964e-06
2.12189e-06
2.07873e-06
1.70215e-06
2.06805e-06
1.67593e-06
2.00021e-06
2.08724e-06
2.04934e-06
1.97672e-06
1.58968e-06
1.9254e-06
1.57613e-06
2.04569e-06
2.01546e-06
1.7183e-06
1.51652e-06
1.69554e-06
1.51081e-06
1.68685e-06
1.63521e-06
1.67606e-06
2.07611e-06
2.03403e-06
1.68231e-06
2.04038e-06
1.73392e-06
1.98713e-06
2.0451e-06
2.00695e-06
1.90665e-06
1.57174e-06
1.84454e-06
1.55069e-06
2.01204e-06
1.98571e-06
1.68613e-06
1.51029e-06
1.66206e-06
1.50601e-06
1.67332e-06
1.62575e-06
1.65417e-06
2.03115e-06
1.99483e-06
1.75483e-06
2.0061e-06
1.8414e-06
1.99001e-06
2.0025e-06
1.95801e-06
1.82326e-06
1.5393e-06
1.75902e-06
1.49503e-06
1.98202e-06
1.94343e-06
1.65261e-06
1.50461e-06
1.6178e-06
1.49454e-06
1.64576e-06
1.59206e-06
1.61622e-06
1.9912e-06
1.95019e-06
1.86411e-06
1.95193e-06
1.90281e-06
1.94737e-06
1.95252e-06
1.89804e-06
1.73672e-06
1.47807e-06
1.66343e-06
1.42685e-06
1.93815e-06
1.87077e-06
1.60492e-06
1.49073e-06
1.56197e-06
1.47599e-06
1.60211e-06
1.52843e-06
1.553e-06
1.94506e-06
1.89538e-06
1.85956e-06
1.88207e-06
1.59583e-06
1.77011e-06
1.89129e-06
1.81771e-06
1.63827e-06
1.40631e-06
1.568e-06
1.34033e-06
1.86365e-06
1.7709e-06
1.54482e-06
1.46823e-06
1.49095e-06
1.43879e-06
1.53578e-06
1.45137e-06
1.47542e-06
1.88924e-06
1.83536e-06
1.54208e-06
1.79893e-06
1.49901e-06
1.69632e-06
1.80961e-06
1.72289e-06
1.54531e-06
1.31567e-06
1.46088e-06
1.23858e-06
1.76321e-06
1.67108e-06
1.46991e-06
1.42619e-06
1.40092e-06
1.38236e-06
1.45574e-06
1.37675e-06
1.3953e-06
1.82868e-06
1.76954e-06
1.50666e-06
1.71827e-06
1.57566e-06
1.79041e-06
1.7123e-06
1.62031e-06
1.43371e-06
1.21473e-06
1.36198e-06
1.14468e-06
1.6616e-06
1.56976e-06
1.37805e-06
1.36955e-06
1.30676e-06
1.32429e-06
1.37408e-06
1.30085e-06
1.30879e-06
1.76049e-06
1.69056e-06
1.6852e-06
1.63228e-06
2.3105e-06
2.04474e-06
1.60671e-06
1.50906e-06
1.33726e-06
1.12133e-06
1.25029e-06
1.0524e-06
1.55632e-06
1.46073e-06
1.2848e-06
1.31186e-06
1.2131e-06
1.26536e-06
1.28687e-06
1.21574e-06
1.23179e-06
1.6778e-06
1.60301e-06
2.64083e-06
1.5346e-06
3.85814e-06
2.40694e-06
1.4914e-06
1.39252e-06
1.2229e-06
1.03038e-06
1.13475e-06
9.70546e-07
1.44487e-06
1.34244e-06
1.18845e-06
1.24982e-06
1.11745e-06
1.20344e-06
1.21181e-06
1.12807e-06
1.16975e-06
1.58608e-06
1.50673e-06
4.26558e-06
1.43048e-06
5.19781e-06
2.71238e-06
1.37118e-06
1.28014e-06
1.10982e-06
9.48157e-07
1.04417e-06
9.07616e-07
1.32061e-06
1.23638e-06
1.09646e-06
1.18601e-06
1.0337e-06
1.13687e-06
1.15123e-06
1.04416e-06
1.08819e-06
1.48752e-06
1.40094e-06
5.36836e-06
1.32045e-06
5.49604e-06
2.56875e-06
1.2544e-06
1.17896e-06
1.01839e-06
8.89564e-07
9.56143e-07
8.60901e-07
1.20876e-06
1.15719e-06
1.0112e-06
1.12085e-06
9.63895e-07
1.09527e-06
1.05884e-06
9.81789e-07
9.90995e-07
1.36926e-06
1.32689e-06
5.4099e-06
1.2302e-06
4.02184e-06
1.73701e-06
1.15678e-06
1.09467e-06
9.43107e-07
8.413e-07
9.06296e-07
8.28256e-07
1.1309e-06
1.08742e-06
9.54563e-07
1.07751e-06
9.22209e-07
1.05224e-06
9.79657e-07
9.48162e-07
9.04335e-07
1.3039e-06
1.22251e-06
3.67077e-06
1.15019e-06
2.8944e-06
1.36219e-06
1.08262e-06
1.11258e-06
9.09475e-07
8.21078e-07
9.48065e-07
8.59385e-07
1.08085e-06
1.05221e-06
9.25247e-07
1.05786e-06
9.41256e-07
1.06434e-06
9.29159e-07
9.47743e-07
9.22101e-07
1.2204e-06
1.22473e-06
2.69062e-06
1.13514e-06
2.41791e-06
1.41913e-06
1.11214e-06
1.20415e-06
9.55336e-07
8.8724e-07
1.04599e-06
8.88788e-07
1.10464e-06
1.1183e-06
9.40253e-07
1.07505e-06
1.01934e-06
1.18297e-06
9.34862e-07
9.69263e-07
1.05119e-06
1.22322e-06
1.36663e-06
2.34871e-06
1.21159e-06
1.92327e-06
1.42321e-06
1.26525e-06
1.46727e-06
1.1035e-06
9.49281e-07
1.22251e-06
1.13514e-06
1.09389e-06
1.61754e-06
1.06569e-06
1.18887e-06
1.13794e-06
1.36778e-06
1.0043e-06
1.18039e-06
1.25019e-06
1.40441e-06
1.59129e-06
1.77518e-06
1.35842e-06
1.77318e-06
1.88977e-06
1.51984e-06
2.27272e-06
1.314e-06
1.16898e-06
1.6229e-06
1.4588e-06
1.62908e-06
2.17502e-06
1.21282e-06
1.45305e-06
1.4766e-06
1.66583e-06
1.41612e-06
1.47442e-06
1.36215e-06
1.81981e-06
2.14652e-06
1.82829e-06
1.58559e-06
1.59941e-06
1.82283e-06
2.39419e-06
3.09446e-06
1.66969e-06
1.57852e-06
2.19827e-06
1.77631e-06
2.37173e-06
3.1309e-06
1.5014e-06
1.77137e-06
1.98565e-06
2.18955e-06
1.30676e-06
1.82083e-06
2.06951e-06
2.31998e-06
3.26473e-06
1.44638e-06
2.1244e-06
2.03002e-06
4.14096e-06
3.60909e-06
4.75109e-06
2.42891e-06
1.95558e-06
2.71019e-06
2.64902e-06
3.15741e-06
5.78131e-06
2.22611e-06
2.34854e-06
2.33575e-06
2.86559e-06
2.24286e-06
2.61929e-06
2.50653e-06
3.62506e-06
4.84154e-06
2.25257e-06
2.69011e-06
2.96383e-06
4.92762e-06
4.69312e-06
9.17687e-06
3.12698e-06
2.85654e-06
4.31419e-06
3.56072e-06
6.31489e-06
7.72729e-06
2.7145e-06
3.26816e-06
3.68287e-06
3.70781e-06
2.64208e-06
3.60153e-06
3.67055e-06
5.18975e-06
8.4677e-06
3.17266e-06
3.53315e-06
3.88404e-06
7.79906e-06
9.50084e-06
1.14458e-05
4.22146e-06
3.56709e-06
5.91042e-06
5.0493e-06
8.54742e-06
1.05747e-05
3.61154e-06
3.87904e-06
5.29844e-06
5.47039e-06
4.09078e-06
4.95216e-06
4.33233e-06
8.41126e-06
1.24889e-05
4.25272e-06
5.22082e-06
4.39847e-06
1.15808e-05
1.39724e-05
1.52633e-05
6.71563e-06
5.84456e-06
6.58579e-06
6.40021e-06
1.26834e-05
1.80781e-05
5.77345e-06
5.65424e-06
5.71694e-06
7.27294e-06
4.89206e-06
6.39563e-06
7.05488e-06
1.48122e-05
1.56307e-05
4.74961e-06
6.7039e-06
7.19653e-06
1.78429e-05
1.46752e-05
2.68203e-05
6.76113e-06
6.29628e-06
1.0221e-05
8.98684e-06
1.76814e-05
2.12989e-05
6.65605e-06
7.45334e-06
9.02872e-06
8.95112e-06
7.0265e-06
8.90261e-06
8.79432e-06
1.56882e-05
2.30384e-05
7.21875e-06
8.45612e-06
8.69527e-06
2.07358e-05
2.78466e-05
2.61912e-05
1.04355e-05
9.72003e-06
1.03171e-05
1.0366e-05
2.42211e-05
3.00882e-05
9.03228e-06
1.02493e-05
1.03495e-05
1.1774e-05
9.86341e-06
1.00998e-05
1.00257e-05
2.34966e-05
3.23331e-05
9.87382e-06
1.14218e-05
1.0166e-05
2.98466e-05
2.73363e-05
3.79789e-05
1.13162e-05
1.08547e-05
1.41945e-05
1.47322e-05
2.96538e-05
3.75911e-05
1.13179e-05
1.15336e-05
1.39347e-05
1.56076e-05
1.0267e-05
1.47728e-05
1.54291e-05
3.26861e-05
3.56154e-05
1.02562e-05
1.47209e-05
1.53756e-05
4.01309e-05
3.94916e-05
4.36117e-05
1.48744e-05
1.60696e-05
1.76091e-05
1.66688e-05
4.08062e-05
4.34448e-05
1.46464e-05
1.71808e-05
1.71721e-05
1.73128e-05
1.61227e-05
1.63777e-05
1.55351e-05
4.02531e-05
4.53546e-05
1.62239e-05
1.6895e-05
1.56329e-05
4.22914e-05
4.4986e-05
5.02906e-05
1.85078e-05
1.64579e-05
2.06316e-05
2.19334e-05
4.31605e-05
5.04877e-05
1.80794e-05
1.71267e-05
2.05666e-05
2.27108e-05
1.65971e-05
2.17069e-05
2.10517e-05
4.4697e-05
5.02938e-05
1.64347e-05
2.1786e-05
2.13011e-05
5.10455e-05
5.15379e-05
5.71421e-05
2.1527e-05
2.38359e-05
2.526e-05
2.51695e-05
5.30284e-05
5.83155e-05
2.16244e-05
2.35365e-05
2.53678e-05
2.49971e-05
2.18025e-05
2.46667e-05
2.61048e-05
5.42669e-05
5.73851e-05
2.19376e-05
2.46422e-05
2.5693e-05
5.7653e-05
5.85989e-05
6.27056e-05
2.6297e-05
2.59514e-05
2.95003e-05
2.88701e-05
5.86099e-05
6.12855e-05
2.63457e-05
2.61928e-05
2.94356e-05
3.11153e-05
2.73171e-05
2.92458e-05
2.88396e-05
5.7583e-05
6.36091e-05
2.70693e-05
3.01198e-05
2.93225e-05
6.29184e-05
6.39069e-05
6.83784e-05
3.07137e-05
3.05863e-05
3.48217e-05
3.56253e-05
6.35372e-05
6.94331e-05
3.06969e-05
3.19737e-05
3.46587e-05
3.46184e-05
2.97022e-05
3.52166e-05
3.42234e-05
6.52162e-05
6.77444e-05
2.97939e-05
3.43118e-05
3.39808e-05
6.74698e-05
6.94967e-05
7.32206e-05
3.59491e-05
3.64908e-05
3.9777e-05
3.88064e-05
7.00326e-05
7.22781e-05
3.58422e-05
3.63097e-05
3.98611e-05
3.98907e-05
3.63921e-05
3.84648e-05
4.10138e-05
6.90277e-05
7.3484e-05
3.66983e-05
4.00987e-05
4.12169e-05
7.4401e-05
7.43069e-05
7.81858e-05
4.09204e-05
4.02138e-05
4.57651e-05
4.7061e-05
7.36889e-05
7.87992e-05
4.09479e-05
4.05389e-05
4.5666e-05
4.60785e-05
4.12085e-05
4.70965e-05
4.45305e-05
7.4231e-05
7.8198e-05
4.09337e-05
4.56234e-05
4.46358e-05
7.69034e-05
7.92764e-05
8.20994e-05
4.77004e-05
4.86677e-05
5.05202e-05
4.96479e-05
7.98026e-05
8.1885e-05
4.72734e-05
4.85287e-05
5.06255e-05
5.08197e-05
4.71064e-05
4.94534e-05
5.11455e-05
7.95693e-05
8.21394e-05
4.73956e-05
5.06585e-05
5.08593e-05
8.30602e-05
8.2928e-05
8.70082e-05
5.15059e-05
5.10695e-05
5.80893e-05
5.95623e-05
8.27761e-05
8.7682e-05
5.17305e-05
5.17062e-05
5.81299e-05
5.73653e-05
5.19301e-05
5.93369e-05
5.88078e-05
8.27734e-05
8.66303e-05
5.18408e-05
5.71022e-05
5.89752e-05
8.67657e-05
8.79903e-05
9.00265e-05
5.98551e-05
6.10164e-05
6.19806e-05
6.07452e-05
8.85072e-05
8.93386e-05
5.96699e-05
5.88571e-05
6.15886e-05
6.36972e-05
6.02271e-05
6.06975e-05
6.05807e-05
8.78408e-05
9.08458e-05
6.03834e-05
6.32301e-05
5.97258e-05
8.95471e-05
9.07826e-05
9.54184e-05
6.32978e-05
6.25474e-05
7.06944e-05
7.04245e-05
8.99124e-05
9.54392e-05
6.32091e-05
6.50627e-05
7.0958e-05
6.98208e-05
6.24018e-05
7.08475e-05
7.20424e-05
9.16198e-05
9.50781e-05
6.14421e-05
7.03163e-05
7.21473e-05
9.62371e-05
9.62515e-05
9.74975e-05
7.2402e-05
7.17229e-05
7.3836e-05
7.51016e-05
9.64381e-05
9.79475e-05
7.24551e-05
7.21774e-05
7.34371e-05
7.42174e-05
7.43353e-05
7.43881e-05
7.47697e-05
9.60035e-05
9.75472e-05
7.45583e-05
7.42162e-05
7.50773e-05
9.65877e-05
9.80724e-05
0.000103507
7.4722e-05
7.66299e-05
8.29524e-05
8.076e-05
9.8458e-05
0.000102911
7.48106e-05
7.40967e-05
8.28945e-05
8.14627e-05
7.3892e-05
8.09835e-05
8.09152e-05
9.78913e-05
0.000103013
7.42119e-05
8.17327e-05
8.12399e-05
0.000104254
0.000104551
0.000105535
8.56725e-05
8.28691e-05
8.65096e-05
9.03012e-05
0.000104102
0.000107092
8.52573e-05
8.51616e-05
8.61993e-05
9.0088e-05
8.51429e-05
9.02691e-05
9.11683e-05
0.00010476
0.000107013
8.54785e-05
9.00478e-05
9.17311e-05
0.000106998
0.000105766
0.000110202
8.65164e-05
9.15392e-05
9.35821e-05
9.02828e-05
0.000107419
0.000107529
8.65243e-05
8.94322e-05
9.36515e-05
9.06797e-05
9.08351e-05
8.90721e-05
8.99308e-05
0.000106883
0.000108566
9.16052e-05
9.0865e-05
8.91253e-05
0.000107646
0.000111435
0.000113608
9.51109e-05
8.9689e-05
9.8942e-05
9.97088e-05
0.000107942
0.000115129
9.61101e-05
9.47901e-05
9.81073e-05
9.89213e-05
9.21503e-05
0.000100742
9.81244e-05
0.000110559
0.000113998
9.07657e-05
9.78817e-05
9.91149e-05
0.000114705
0.000114025
0.000117854
0.00010053
0.000103486
0.000105024
0.000106889
0.000116652
0.000118617
9.91628e-05
9.92533e-05
0.000105781
0.000105919
0.000101161
0.000105931
0.000109645
0.000114149
0.000118183
0.000101668
0.000106391
0.000109207
0.000120531
0.000118647
0.000120515
0.00010596
0.000106422
0.000109489
0.000111077
0.000118787
0.000121604
0.000107156
0.000108063
0.00010844
0.000108489
0.000110849
0.000111215
0.000110031
0.000119537
0.000120591
0.000110524
0.000109641
0.000110335
0.000119455
0.000121261
0.000125418
0.000111627
0.00011289
0.000116125
0.000112629
0.000122225
0.000121853
0.000109816
0.000109234
0.000116769
0.000116463
0.000108867
0.000112237
0.000112445
0.000120561
0.000125073
0.000109363
0.000114941
0.000108536
0.000122818
0.00012577
0.000126493
0.000116037
0.000111879
0.000118092
0.000120159
0.000121954
0.000130042
0.000117875
0.000117432
0.000117293
0.000118869
0.000116532
0.000120661
0.000120652
0.000126228
0.000127795
0.000113508
0.00012012
0.000125448
0.00013085
0.00012735
0.000133331
0.00012048
0.00012384
0.000127058
0.000128307
0.000131692
0.000132817
0.000118559
0.000120939
0.000127031
0.000125928
0.000122415
0.000128385
0.000127776
0.000128294
0.000132302
0.000127486
0.000125926
0.000128637
0.000133119
0.00013394
0.000133971
0.000128162
0.000128097
0.000128401
0.00012592
0.000132501
0.000131982
0.000128986
0.00012618
0.000129857
0.000129219
0.000128263
0.000125909
0.00012615
0.000132651
0.000133786
0.000128213
0.000128642
0.000124534
0.000130086
0.000133805
0.000136827
0.000128362
0.000126298
0.000132759
0.000136457
0.000132968
0.000140427
0.000129139
0.00013093
0.000130735
0.000132538
0.000124975
0.000136272
0.000134945
0.000134457
0.000137524
0.000123188
0.000132415
0.000134289
0.000140319
0.000138506
0.000143286
0.000135406
0.000138143
0.000141014
0.000138052
0.00014083
0.000140151
0.000134495
0.000133075
0.000141943
0.000139653
0.000138696
0.000138846
0.000141783
0.000137941
0.00014225
0.000138403
0.000140169
0.000142269
0.000143143
0.000143372
0.000141532
0.000141357
0.000137643
0.000140104
0.000143452
0.000140038
0.000145062
0.000142542
0.000142012
0.000140878
0.000144412
0.000141298
0.000142695
0.000139879
0.000143342
0.000144535
0.000141915
0.000143926
0.000140968
0.000141909
0.000141418
0.00014728
0.000141294
0.000145308
0.000146721
0.000146151
0.000145872
0.000145609
0.000140353
0.000143979
0.000145987
0.000143734
0.000140877
0.000146479
0.000143888
0.000144312
0.000145346
0.00014134
0.000143549
0.000143671
0.000144885
0.000147788
0.000150175
0.00014674
0.00014545
0.000150242
0.000148587
0.000145212
0.000149744
0.000147086
0.00014672
0.000151826
0.000152883
0.000146111
0.000148969
0.000153388
0.000146976
0.000151179
0.000146108
0.000153355
0.000153359
0.000151925
0.000151329
0.000153142
0.00015295
0.000152663
0.000157597
0.000158094
0.000151813
0.000154306
0.000153675
0.000153401
0.000155521
0.000151997
0.000154317
0.000157773
0.000155009
0.000151143
0.000148885
0.000154188
0.000152279
0.000153299
0.000151463
0.000152935
0.000152358
0.000157555
0.000158083
0.000155989
0.000155821
0.00015403
0.000150633
0.000154995
0.000151207
0.000154033
0.000160909
0.000156323
0.000155368
0.000158308
0.00014868
0.00015855
0.00015374
0.000160345
0.000159959
0.000155521
0.000153905
0.000160368
0.000156235
0.000154817
0.000162897
0.000163645
0.000150672
0.000161574
0.000158009
0.000164864
0.000166696
0.000168981
0.000157919
0.000164325
0.000160946
0.000160281
0.000162423
0.000160285
0.000166585
0.000160747
0.00015684
0.000160787
0.000161232
0.000165307
0.000167624
0.000169227
0.000171485
0.000163138
0.000163746
0.000167613
0.000169088
0.0001678
0.000163506
0.000164384
0.000170697
0.000169544
0.000161983
0.00015592
0.000163416
0.000164263
0.000168617
0.000162205
0.000161092
0.000158864
0.000169296
0.000171457
0.000167783
0.000167222
0.000163188
0.000158588
0.000167062
0.000162069
0.000164174
0.000159178
0.000169643
0.000167084
0.000168336
0.000155322
0.000157469
0.000168829
0.000162867
0.0001674
0.000160584
0.000158828
0.000166284
0.000166973
0.000166118
0.000170976
0.000164316
0.000158101
0.000161577
0.00016356
0.000162077
0.000173887
0.000176515
0.000167823
0.0001685
0.000173112
0.000159946
0.000169245
0.000167197
0.000176532
0.000173971
0.00016611
0.000167273
0.000168104
0.000173314
0.00016857
0.000176457
0.00018166
0.000163378
0.00017235
0.000176693
0.000179193
0.000178655
0.000182473
0.000174415
0.000180063
0.000174541
0.000169741
0.000170355
0.00017517
0.000178867
0.00017503
0.000165977
0.000168551
0.000173094
0.000178538
0.000183757
0.000183958
0.000185205
0.000173299
0.000172896
0.000179298
0.000182734
0.000182862
0.000182531
0.000175876
0.000183683
0.000182678
0.00017044
0.000171026
0.000175255
0.000180912
0.000181989
0.00017247
0.000173151
0.000170763
0.000184376
0.00018419
0.000183307
0.000180338
0.00017219
0.000168141
0.000183194
0.000181688
0.000182543
0.000179551
0.000183573
0.000180569
0.000183667
0.000170854
0.000169199
0.000183343
0.000181591
0.000183951
0.000171604
0.000170354
0.000171516
0.000182629
0.00017967
0.000181117
0.000181065
0.000167916
0.000172351
0.00018204
0.000179032
0.000181094
0.000183685
0.000183215
0.000181488
0.000181357
0.00016921
0.000173584
0.000183599
0.000184009
0.000181662
0.000171242
0.00017248
0.0001758
0.000182475
0.000183837
0.000187935
0.000189221
0.000173596
0.000177226
0.000183402
0.000185463
0.000188215
0.000188428
0.000183874
0.00019071
0.000192661
0.000174218
0.000176032
0.000183693
0.00018915
0.000192459
0.00018163
0.000175937
0.000180414
0.000189021
0.000190792
0.000194081
0.000194741
0.000177775
0.000180334
0.00018908
0.000190023
0.000193773
0.000194221
0.000193565
0.00019362
0.000189057
0.000176756
0.000180105
0.00019336
0.000192945
0.000188945
0.000172324
0.000181165
0.000181598
0.000195495
0.000195126
0.00019667
0.000194902
0.000180332
0.000179116
0.000195195
0.000194575
0.000196465
0.000194168
0.000187611
0.00019222
0.000188276
0.000180052
0.000178281
0.000187515
0.000191627
0.000188484
0.000179238
0.000181343
0.000180024
0.000196609
0.000194422
0.000195534
0.000196387
0.00017869
0.00018331
0.000196423
0.000193499
0.000195285
0.000197129
0.000197143
0.000199943
0.000209686
0.000177821
0.000184029
0.000197185
0.000200188
0.00020927
0.000198591
0.000180337
0.000185293
0.00019555
0.000198786
0.000200426
0.000201654
0.000184236
0.000185528
0.000195532
0.000199675
0.000200914
0.000202708
0.000211689
0.000202545
0.000198492
0.000184979
0.000186418
0.000211107
0.000203171
0.000198562
0.00017785
0.000185404
0.000183154
0.000201105
0.000201737
0.000200762
0.000199072
0.00018479
0.000180816
0.000201584
0.000202947
0.000200989
0.000199453
0.000193474
0.000197254
0.000187023
0.000185872
0.000181299
0.00019396
0.000198196
0.000188056
0.000169933
0.000182628
0.000183076
0.000200316
0.000198506
0.000198907
0.000199502
0.00018026
0.000184632
0.000200394
0.000198774
0.000198712
0.000197178
0.000185806
0.000198555
0.000199388
0.000180741
0.000182148
0.000186912
0.000195763
0.000198279
0.000185959
0.000184574
0.000191548
0.000201023
0.000202478
0.00020927
0.000208879
0.000186192
0.000191207
0.000200253
0.000199844
0.000209088
0.000209572
0.000206102
0.000210278
0.000220595
0.000183861
0.000192325
0.000204833
0.000210731
0.000220614
0.000202622
0.000191862
0.000192199
0.00021057
0.000210271
0.000212048
0.000212717
0.000191639
0.000193514
0.000210608
0.000211365
0.000212384
0.000213651
0.00022272
0.000215195
0.000226757
0.000192966
0.000194192
0.000223071
0.000216535
0.000227975
0.000203856
0.00019205
0.000191122
0.000212195
0.000213099
0.000211485
0.000213701
0.000193593
0.000192314
0.000212573
0.000213915
0.000211862
0.000213539
0.000224014
0.000212681
0.000205427
0.000194045
0.000192286
0.000226054
0.000212633
0.000205461
0.000183324
0.000190844
0.000189813
0.00021114
0.000212261
0.000210454
0.000208248
0.000191206
0.000186478
0.000211273
0.000212161
0.000209699
0.000207622
0.000200845
0.000205165
0.000194592
0.00019134
0.000186116
0.000200324
0.000204449
0.000193348
0.000173369
0.000189595
0.00018952
0.000210162
0.000207623
0.000209383
0.000206331
0.000185919
0.000188509
0.000209333
0.000206859
0.000208738
0.000205366
0.000193054
0.000206119
0.000205812
0.000185458
0.000187781
0.000191662
0.000204621
0.000205006
0.000189554
0.000189408
0.000192714
0.00020898
0.000207388
0.000212403
0.000217088
0.000189828
0.000197823
0.000208753
0.000207779
0.000213608
0.000218875
0.000213722
0.000220711
0.000230531
0.000189655
0.000199305
0.000213399
0.000222075
0.00023154
0.000209734
0.000193978
0.000202126
0.00021614
0.00022018
0.000224793
0.000224998
0.000198808
0.000202676
0.000216542
0.000221378
0.00022421
0.000224633
0.000232815
0.000226564
0.000236076
0.000200167
0.00020242
0.00023405
0.000228064
0.000238173
0.000209006
0.000202664
0.000202651
0.000226043
0.000226078
0.000228306
0.000223517
0.000202775
0.000197071
0.000225359
0.000225183
0.000228002
0.000222477
0.000230739
0.000220293
0.00021415
0.000201828
0.000197341
0.000233363
0.000221214
0.000214869
0.000189528
0.000200307
0.000190022
0.000224142
0.000219812
0.000213739
0.000213299
0.000195257
0.000189548
0.000224853
0.000220767
0.000214641
0.000215833
0.000211517
0.000212191
0.000208818
0.000196407
0.000192108
0.000211615
0.000213277
0.000208302
0.000187868
0.000189084
0.000191186
0.000212512
0.000212553
0.000210901
0.000213719
0.000188816
0.000195362
0.000213293
0.00021486
0.000210993
0.000213045
0.000209332
0.000217107
0.000217908
0.000191576
0.00019135
0.000208279
0.00021175
0.000215757
0.000195765
0.000193392
0.000205763
0.000215912
0.000218623
0.000229101
0.000228768
0.000197201
0.00020515
0.000214293
0.000213649
0.000227616
0.000224624
0.000220208
0.000228751
0.000225462
0.000192493
0.000201929
0.000217999
0.000225537
0.000224244
0.000200117
0.000206342
0.00020512
0.000230898
0.00023015
0.000233443
0.000232135
0.000205399
0.000203188
0.000229509
0.000226857
0.000232523
0.00023002
0.000226852
0.00022949
0.000229132
0.000202716
0.000204343
0.000226401
0.000230739
0.000230434
0.000204657
0.000202922
0.000194353
0.000229487
0.000228616
0.000219219
0.000219873
0.000201355
0.000195078
0.00023019
0.000230119
0.000221214
0.00022534
0.000229719
0.000221249
0.000229695
0.000203546
0.000199539
0.000231331
0.000226123
0.00023211
0.000204562
0.000193679
0.000196055
0.000218074
0.000218991
0.000217326
0.000219126
0.00019455
0.000198163
0.000220068
0.000224411
0.00021926
0.000223875
0.000227514
0.00022233
0.000220956
0.000199265
0.000199956
0.000229056
0.000224107
0.000220288
0.000195131
0.000197259
0.000202422
0.000220393
0.000222026
0.000227799
0.000227499
0.000199048
0.000201724
0.000221112
0.000224057
0.000226531
0.000223681
0.000219658
0.000225783
0.000217778
0.000199877
0.000197943
0.000218602
0.000221805
0.000216123
0.000191925
0.000202542
0.00020258
0.000228938
0.000228233
0.000230326
0.000229073
0.000201587
0.000201749
0.000227354
0.000223317
0.000228024
0.000222979
0.000218005
0.000227101
0.000229023
0.000197547
0.00019747
0.000216238
0.00022245
0.000229054
0.000204813
0.000202268
0.000201439
0.000229763
0.000228921
0.000228087
0.000228526
0.000201689
0.000202593
0.000227576
0.000223363
0.000227268
0.000228201
0.000231369
0.000229297
0.000235647
0.000198332
0.000203579
0.000231994
0.000230629
0.000236943
0.000210191
0.000201235
0.000200745
0.000227726
0.000228019
0.00022634
0.000225363
0.000202234
0.000199128
0.000227389
0.000229112
0.000228167
0.00023096
0.0002357
0.00022586
0.000225014
0.00020384
0.00020319
0.000237471
0.000230862
0.000226093
0.000197533
0.000200555
0.000200474
0.000225993
0.000224725
0.000225641
0.000224094
0.000198762
0.000198284
0.00022827
0.000230136
0.000227527
0.000226555
0.000222607
0.00022406
0.000220077
0.000202177
0.000198865
0.000222877
0.000223856
0.000219099
0.000193366
0.000200403
0.000202305
0.000225811
0.000224223
0.000228202
0.000229277
0.000198447
0.000203502
0.000227422
0.000226343
0.000228002
0.00022737
0.000219641
0.000229092
0.000227727
0.000198493
0.000201901
0.000218275
0.000226711
0.000226321
0.000202197
0.000202361
0.000200838
0.000228767
0.000230274
0.000230712
0.000234879
0.000203881
0.000205896
0.000228383
0.00022801
0.000228165
0.000231245
0.000229945
0.000235221
0.000237515
0.000202307
0.000204648
0.000229551
0.000234602
0.000238403
0.000209705
0.000201614
0.000227143
0.000230971
0.000206283
0.000225056
0.000227764
0.000257988
0.000254456
0.000261809
0.000235214
0.000205127
0.000236539
1.91519e-06
2.11568e-06
9.96418e-07
1.03293e-06
1.32336e-06
1.95955e-06
6.01041e-07
1.227e-06
1.23155e-06
2.40978e-06
1.38983e-06
1.73162e-06
2.26324e-06
2.07999e-06
1.69036e-06
1.12939e-06
1.63944e-05
1.06401e-06
1.82854e-05
1.06057e-05
1.27799e-05
1.33565e-06
1.338e-05
1.2615e-06
1.51363e-05
1.60147e-06
1.6241e-06
1.58095e-06
1.8779e-06
1.62691e-06
1.63829e-06
1.59662e-06
1.3048e-06
3.28274e-07
1.59342e-06
1.7762e-06
1.31314e-06
4.34174e-07
1.59811e-06
1.11189e-05
1.34126e-05
1.23153e-06
1.78829e-06
5.4831e-07
2.2128e-06
1.21521e-06
1.79241e-06
6.76419e-07
1.46826e-06
1.4892e-06
2.23309e-06
1.671e-06
1.69805e-06
1.3422e-06
2.27476e-05
1.25761e-06
2.55329e-05
1.68387e-05
1.90567e-05
1.52271e-06
1.83542e-05
1.46629e-06
2.06918e-05
1.62651e-06
1.64763e-06
1.59543e-06
1.77577e-06
1.62666e-06