/*--------------------------------*- C++ -*----------------------------------*\
| =========                 |                                                 |
| \\      /  F ield         | OpenFOAM: The Open Source CFD Toolbox           |
|  \\    /   O peration     | Version:  v2012                                 |
|   \\  /    A nd           | Website:  www.openfoam.com                      |
|    \\/     M anipulation  |                                                 |
\*---------------------------------------------------------------------------*/
FoamFile
{
    version     2.0;
    format      ascii;
    class       volScalarField;
    location    "750";
    object      epsilon;
}
// * * * * * * * * * * * * * * * * * * * * * * * * * * * * * * * * * * * * * //

dimensions      [0 2 -3 0 0 0 0];


internalField   nonuniform List<scalar> 
171728
(
4.95567e-07
4.97331e-07
4.97331e-07
4.99575e-07
4.45573e-07
4.53736e-07
4.53738e-07
4.63711e-07
4.03752e-07
4.18514e-07
4.18516e-07
4.39411e-07
3.68363e-07
3.88554e-07
3.88556e-07
4.1767e-07
3.38014e-07
3.62105e-07
3.62108e-07
3.96085e-07
3.11645e-07
3.38275e-07
3.38278e-07
3.74584e-07
2.88472e-07
3.1664e-07
3.16643e-07
3.53713e-07
2.67922e-07
2.97024e-07
2.97027e-07
3.34151e-07
2.49579e-07
2.79373e-07
2.79375e-07
3.16488e-07
2.33136e-07
2.63681e-07
2.63684e-07
3.01165e-07
2.18365e-07
2.49957e-07
2.4996e-07
2.88496e-07
2.05089e-07
2.38201e-07
2.38205e-07
2.78701e-07
1.93171e-07
2.28413e-07
2.28418e-07
2.7188e-07
1.82497e-07
2.20601e-07
2.20607e-07
2.68166e-07
1.72978e-07
2.14773e-07
2.14781e-07
2.67646e-07
1.6454e-07
2.10941e-07
2.10947e-07
2.70495e-07
1.5712e-07
2.09114e-07
2.09117e-07
2.767e-07
1.50666e-07
2.09306e-07
2.09309e-07
2.86284e-07
1.45134e-07
2.11565e-07
2.11566e-07
2.99236e-07
1.40489e-07
2.15905e-07
2.15905e-07
3.15619e-07
1.367e-07
2.22347e-07
2.22348e-07
3.35373e-07
1.33745e-07
2.30907e-07
2.3091e-07
3.58407e-07
1.31602e-07
2.41575e-07
2.4158e-07
3.84546e-07
1.30255e-07
2.54329e-07
2.54336e-07
4.13541e-07
1.29693e-07
2.69125e-07
2.69133e-07
4.45052e-07
1.29918e-07
2.85894e-07
2.85905e-07
4.78691e-07
1.30907e-07
3.04559e-07
3.04573e-07
5.14042e-07
1.32663e-07
3.25005e-07
3.25024e-07
5.50633e-07
1.35185e-07
3.47115e-07
3.47138e-07
5.8803e-07
1.38476e-07
3.70764e-07
3.70787e-07
6.25813e-07
1.42536e-07
3.95784e-07
3.95815e-07
6.63609e-07
1.47377e-07
4.22048e-07
4.22082e-07
7.01053e-07
1.52987e-07
4.49335e-07
4.49371e-07
7.37923e-07
1.59406e-07
4.77585e-07
4.77632e-07
7.73964e-07
1.6659e-07
5.06455e-07
5.06499e-07
8.09035e-07
1.74585e-07
5.35916e-07
5.35977e-07
8.42954e-07
1.83378e-07
5.65762e-07
5.65816e-07
8.75804e-07
1.92949e-07
5.95747e-07
5.95814e-07
9.07423e-07
2.03307e-07
6.25779e-07
6.2585e-07
9.3783e-07
2.14425e-07
6.55651e-07
6.55726e-07
9.67048e-07
2.26276e-07
6.8522e-07
6.85295e-07
9.95012e-07
2.38871e-07
7.144e-07
7.14482e-07
1.02186e-06
2.52115e-07
7.42978e-07
7.4307e-07
1.04746e-06
2.66045e-07
7.71014e-07
7.71094e-07
1.0721e-06
2.80515e-07
7.98147e-07
7.98241e-07
1.0955e-06
2.95495e-07
8.24481e-07
8.24568e-07
1.11783e-06
3.10994e-07
8.49972e-07
8.50069e-07
1.13925e-06
3.26867e-07
8.74488e-07
8.74586e-07
1.15961e-06
3.43036e-07
8.98e-07
8.98095e-07
1.17901e-06
3.59449e-07
9.20504e-07
9.206e-07
1.19746e-06
3.76028e-07
9.42001e-07
9.42103e-07
1.21504e-06
3.92648e-07
9.62482e-07
9.62567e-07
1.23168e-06
4.09307e-07
9.81906e-07
9.82004e-07
1.24756e-06
4.25754e-07
1.00026e-06
1.00039e-06
1.26237e-06
4.42184e-07
1.01782e-06
1.0179e-06
1.27665e-06
4.58388e-07
1.03433e-06
1.03445e-06
1.29017e-06
4.74194e-07
1.04991e-06
1.04999e-06
1.30291e-06
4.8965e-07
1.06425e-06
1.06433e-06
1.31458e-06
5.04601e-07
1.07801e-06
1.07816e-06
1.32579e-06
5.19558e-07
1.09101e-06
1.09113e-06
1.33667e-06
5.33442e-07
1.10283e-06
1.10283e-06
1.34655e-06
5.46755e-07
1.11339e-06
1.11359e-06
1.35519e-06
5.6011e-07
1.12457e-06
1.12477e-06
1.36461e-06
5.73086e-07
1.13366e-06
1.13361e-06
1.37246e-06
5.83674e-07
1.14134e-06
1.14192e-06
1.37828e-06
5.9403e-07
1.14951e-06
1.14898e-06
1.38616e-06
6.07325e-07
1.15879e-06
1.15901e-06
1.3937e-06
6.16088e-07
1.16347e-06
1.16584e-06
1.39805e-06
6.23649e-07
1.16704e-06
1.16712e-06
1.40058e-06
6.37075e-07
1.18226e-06
1.17544e-06
1.41741e-06
6.43923e-07
1.18696e-06
1.18567e-06
1.42505e-06
6.40491e-07
1.1686e-06
1.1794e-06
1.3939e-06
6.42557e-07
1.16125e-06
1.16666e-06
1.37796e-06
6.63095e-07
1.18448e-06
1.17431e-06
1.43182e-06
6.82979e-07
1.24261e-06
1.21652e-06
1.49187e-06
7.03115e-07
1.27015e-06
1.26869e-06
1.5016e-06
6.99084e-07
1.19654e-06
1.23806e-06
1.42832e-06
6.46764e-07
1.11676e-06
1.12918e-06
1.35268e-06
6.21437e-07
1.13844e-06
1.10986e-06
1.37165e-06
6.43611e-07
1.16801e-06
1.1509e-06
1.38769e-06
6.77155e-07
1.16365e-06
1.15299e-06
1.36072e-06
7.33277e-07
1.23183e-06
1.23638e-06
1.47139e-06
7.60239e-07
1.29249e-06
1.32153e-06
1.58824e-06
7.13869e-07
1.2321e-06
1.24926e-06
1.48908e-06
6.56828e-07
1.16443e-06
1.1305e-06
1.36243e-06
6.45382e-07
1.12462e-06
1.1097e-06
1.37147e-06
6.65357e-07
1.12865e-06
1.15259e-06
1.40378e-06
7.00436e-07
1.19924e-06
1.20077e-06
1.4041e-06
7.14288e-07
1.23322e-06
1.22134e-06
1.41994e-06
7.07112e-07
1.20423e-06
1.20376e-06
1.45318e-06
6.84174e-07
1.15141e-06
1.16359e-06
1.44266e-06
6.68566e-07
1.13739e-06
1.14038e-06
1.38802e-06
6.69848e-07
1.15231e-06
1.14464e-06
1.36791e-06
6.86022e-07
1.17201e-06
1.17065e-06
1.39722e-06
6.77336e-07
1.12561e-06
1.1269e-06
1.3835e-06
5.06417e-07
5.05584e-07
5.05582e-07
5.06417e-07
5.05583e-07
5.05583e-07
5.09649e-07
5.09649e-07
5.09649e-07
5.09649e-07
5.05584e-07
5.05584e-07
5.06417e-07
5.05584e-07
5.05583e-07
5.06418e-07
4.99575e-07
4.67236e-07
4.97331e-07
4.97335e-07
4.63713e-07
4.63721e-07
4.99575e-07
4.67237e-07
4.97334e-07
4.97335e-07
4.63718e-07
4.63723e-07
4.97332e-07
4.6371e-07
4.63715e-07
4.99575e-07
4.67239e-07
4.97334e-07
4.63711e-07
4.63719e-07
4.67243e-07
4.63708e-07
4.41422e-07
4.53739e-07
4.53748e-07
4.26738e-07
4.26747e-07
4.63709e-07
4.41422e-07
4.53743e-07
4.5375e-07
4.26738e-07
4.26749e-07
4.53743e-07
4.26732e-07
4.26742e-07
4.6371e-07
4.41428e-07
4.53745e-07
4.26734e-07
4.26742e-07
4.41434e-07
4.39404e-07
4.19278e-07
4.18521e-07
4.1853e-07
3.95675e-07
3.95684e-07
4.39408e-07
4.19279e-07
4.18521e-07
4.18533e-07
3.9567e-07
3.95686e-07
4.18526e-07
3.95665e-07
3.9568e-07
4.39409e-07
4.19285e-07
4.18525e-07
3.95668e-07
3.95675e-07
4.19293e-07
4.17658e-07
3.9764e-07
3.88564e-07
3.88573e-07
3.6846e-07
3.68468e-07
4.1766e-07
3.97641e-07
3.88558e-07
3.88576e-07
3.6845e-07
3.6847e-07
3.8857e-07
3.68447e-07
3.68466e-07
4.17664e-07
3.97647e-07
3.88564e-07
3.68449e-07
3.68455e-07
3.97655e-07
3.96071e-07
3.7608e-07
3.62118e-07
3.62126e-07
3.44031e-07
3.44038e-07
3.96074e-07
3.76081e-07
3.62108e-07
3.62129e-07
3.44017e-07
3.44041e-07
3.62124e-07
3.44016e-07
3.44037e-07
3.96078e-07
3.76087e-07
3.62113e-07
3.44018e-07
3.44023e-07
3.76096e-07
3.7457e-07
3.55106e-07
3.38291e-07
3.38298e-07
3.21873e-07
3.21879e-07
3.74573e-07
3.55107e-07
3.38277e-07
3.38301e-07
3.21856e-07
3.21881e-07
3.38297e-07
3.21856e-07
3.21879e-07
3.74577e-07
3.55113e-07
3.38283e-07
3.21858e-07
3.21862e-07
3.55122e-07
3.53699e-07
3.3539e-07
3.16658e-07
3.16664e-07
3.01762e-07
3.01767e-07
3.53701e-07
3.35391e-07
3.16641e-07
3.16666e-07
3.01742e-07
3.01769e-07
3.16664e-07
3.01743e-07
3.01767e-07
3.53705e-07
3.35396e-07
3.16647e-07
3.01745e-07
3.01748e-07
3.35406e-07
3.34137e-07
3.17527e-07
2.97043e-07
2.97048e-07
2.83622e-07
2.83626e-07
3.34139e-07
3.17529e-07
2.97024e-07
2.9705e-07
2.83601e-07
2.83628e-07
2.97048e-07
2.83602e-07
2.83627e-07
3.34143e-07
3.17534e-07
2.97029e-07
2.83604e-07
2.83606e-07
3.17545e-07
3.16473e-07
3.0197e-07
2.79393e-07
2.79397e-07
2.67441e-07
2.67445e-07
3.16476e-07
3.01972e-07
2.79372e-07
2.79399e-07
2.67418e-07
2.67446e-07
2.79398e-07
2.6742e-07
2.67445e-07
3.16479e-07
3.01977e-07
2.79377e-07
2.67422e-07
2.67423e-07
3.01987e-07
3.01151e-07
2.89034e-07
2.63703e-07
2.63707e-07
2.53225e-07
2.5323e-07
3.01154e-07
2.89036e-07
2.6368e-07
2.63708e-07
2.53201e-07
2.53231e-07
2.63707e-07
2.53204e-07
2.5323e-07
3.01157e-07
2.89041e-07
2.63685e-07
2.53206e-07
2.53207e-07
2.89054e-07
2.88481e-07
2.78944e-07
2.4998e-07
2.49984e-07
2.40979e-07
2.40983e-07
2.88484e-07
2.78944e-07
2.49956e-07
2.49986e-07
2.40953e-07
2.40984e-07
2.49984e-07
2.40955e-07
2.40983e-07
2.88486e-07
2.78951e-07
2.49961e-07
2.40957e-07
2.40958e-07
2.78965e-07
2.78683e-07
2.71822e-07
2.38226e-07
2.38231e-07
2.307e-07
2.30705e-07
2.78685e-07
2.71825e-07
2.382e-07
2.38232e-07
2.30673e-07
2.30706e-07
2.3823e-07
2.30675e-07
2.30704e-07
2.78688e-07
2.71829e-07
2.38205e-07
2.30677e-07
2.30678e-07
2.71842e-07
2.71862e-07
2.67853e-07
2.28441e-07
2.28446e-07
2.22396e-07
2.22402e-07
2.71867e-07
2.67858e-07
2.28413e-07
2.28447e-07
2.22367e-07
2.22403e-07
2.28445e-07
2.2237e-07
2.224e-07
2.71868e-07
2.67861e-07
2.28418e-07
2.22371e-07
2.22372e-07
2.67877e-07
2.68146e-07
2.6697e-07
2.20633e-07
2.20639e-07
2.16074e-07
2.16082e-07
2.68151e-07
2.66974e-07
2.20603e-07
2.20641e-07
2.16042e-07
2.16083e-07
2.20638e-07
2.16046e-07
2.16079e-07
2.68153e-07
2.66979e-07
2.20609e-07
2.16046e-07
2.16048e-07
2.66996e-07
2.67622e-07
2.69139e-07
2.14809e-07
2.14817e-07
2.11741e-07
2.11753e-07
2.67628e-07
2.69147e-07
2.14777e-07
2.14819e-07
2.11708e-07
2.11755e-07
2.14814e-07
2.1171e-07
2.11748e-07
2.67629e-07
2.6915e-07
2.14783e-07
2.1171e-07
2.11715e-07
2.69171e-07
2.70469e-07
2.74647e-07
2.10978e-07
2.10991e-07
2.09409e-07
2.09425e-07
2.70478e-07
2.74655e-07
2.10945e-07
2.10992e-07
2.09374e-07
2.09427e-07
2.10985e-07
2.09374e-07
2.09418e-07
2.70477e-07
2.74658e-07
2.10952e-07
2.09374e-07
2.09383e-07
2.74681e-07
2.76671e-07
2.83529e-07
2.09152e-07
2.09169e-07
2.09121e-07
2.09142e-07
2.7668e-07
2.8354e-07
2.09118e-07
2.09171e-07
2.09086e-07
2.09144e-07
2.09161e-07
2.09083e-07
2.09132e-07
2.76679e-07
2.83542e-07
2.09126e-07
2.09084e-07
2.09095e-07
2.83569e-07
2.86255e-07
2.95795e-07
2.09348e-07
2.09371e-07
2.10842e-07
2.10866e-07
2.86267e-07
2.95807e-07
2.09311e-07
2.09373e-07
2.10805e-07
2.10871e-07
2.09359e-07
2.10799e-07
2.10855e-07
2.86262e-07
2.95809e-07
2.09322e-07
2.108e-07
2.10816e-07
2.95839e-07
2.99205e-07
3.11481e-07
2.11609e-07
2.11636e-07
2.14663e-07
2.14694e-07
2.99213e-07
3.11494e-07
2.1157e-07
2.11639e-07
2.14625e-07
2.14699e-07
2.11622e-07
2.14618e-07
2.14679e-07
2.99211e-07
3.11498e-07
2.11582e-07
2.14618e-07
2.14637e-07
3.11532e-07
3.15576e-07
3.30544e-07
2.15952e-07
2.15986e-07
2.20587e-07
2.20624e-07
3.15585e-07
3.30556e-07
2.15911e-07
2.15988e-07
2.20545e-07
2.20629e-07
2.15968e-07
2.20537e-07
2.20605e-07
3.15587e-07
3.30564e-07
2.15925e-07
2.20538e-07
2.2056e-07
3.30601e-07
3.35322e-07
3.52887e-07
2.22401e-07
2.22437e-07
2.28631e-07
2.28669e-07
3.35337e-07
3.52906e-07
2.22354e-07
2.22441e-07
2.28578e-07
2.28674e-07
2.22417e-07
2.2857e-07
2.28647e-07
3.3534e-07
3.52917e-07
2.22371e-07
2.28572e-07
2.28599e-07
3.52962e-07
3.58336e-07
3.78369e-07
2.30972e-07
2.31009e-07
2.38783e-07
2.38823e-07
3.58363e-07
3.78395e-07
2.30916e-07
2.31014e-07
2.38722e-07
2.38829e-07
2.30987e-07
2.38712e-07
2.38798e-07
3.58368e-07
3.78404e-07
2.30937e-07
2.38716e-07
2.38745e-07
3.78453e-07
3.84463e-07
4.06753e-07
2.41649e-07
2.4169e-07
2.51028e-07
2.51071e-07
3.845e-07
4.0678e-07
2.41584e-07
2.41694e-07
2.50959e-07
2.51078e-07
2.41664e-07
2.50948e-07
2.51045e-07
3.84499e-07
4.06793e-07
2.4161e-07
2.50954e-07
2.50986e-07
4.0685e-07
4.13447e-07
4.37716e-07
2.54414e-07
2.54455e-07
2.65328e-07
2.65374e-07
4.13487e-07
4.37747e-07
2.5434e-07
2.54462e-07
2.6525e-07
2.65382e-07
2.54428e-07
2.65239e-07
2.65345e-07
4.13489e-07
4.37759e-07
2.54368e-07
2.65246e-07
2.6528e-07
4.3782e-07
4.44948e-07
4.70873e-07
2.69218e-07
2.69263e-07
2.81621e-07
2.81665e-07
4.44995e-07
4.70896e-07
2.69135e-07
2.69269e-07
2.81534e-07
2.81678e-07
2.69234e-07
2.8152e-07
2.8164e-07
4.44993e-07
4.70919e-07
2.69168e-07
2.81532e-07
2.81568e-07
4.7099e-07
4.78578e-07
5.0582e-07
2.85998e-07
2.86043e-07
2.99831e-07
2.99878e-07
4.78616e-07
5.0585e-07
2.85906e-07
2.86053e-07
2.99736e-07
2.99893e-07
2.86016e-07
2.99722e-07
2.99851e-07
4.78626e-07
5.05874e-07
2.85942e-07
2.99736e-07
2.99772e-07
5.05943e-07
5.13924e-07
5.42089e-07
3.04674e-07
3.04719e-07
3.19851e-07
3.19899e-07
5.13964e-07
5.42125e-07
3.04572e-07
3.04731e-07
3.19747e-07
3.19916e-07
3.04693e-07
3.19733e-07
3.19875e-07
5.13979e-07
5.42148e-07
3.04611e-07
3.1975e-07
3.19786e-07
5.42228e-07
5.50503e-07
5.79251e-07
3.2513e-07
3.25175e-07
3.41567e-07
3.41616e-07
5.50547e-07
5.79286e-07
3.25019e-07
3.2519e-07
3.41453e-07
3.41634e-07
3.2515e-07
3.4144e-07
3.41594e-07
5.50565e-07
5.79308e-07
3.25059e-07
3.4146e-07
3.41496e-07
5.79398e-07
5.87888e-07
6.16884e-07
3.47249e-07
3.47293e-07
3.64852e-07
3.64898e-07
5.87938e-07
6.1691e-07
3.47127e-07
3.47312e-07
3.64727e-07
3.64919e-07
3.47273e-07
3.64715e-07
3.64878e-07
5.87951e-07
6.16941e-07
3.47172e-07
3.64737e-07
3.64769e-07
6.1703e-07
6.25672e-07
6.54593e-07
3.70906e-07
3.70949e-07
3.89558e-07
3.896e-07
6.25719e-07
6.54615e-07
3.70773e-07
3.70968e-07
3.89423e-07
3.89628e-07
3.7093e-07
3.89411e-07
3.89593e-07
6.25732e-07
6.54656e-07
3.70818e-07
3.8944e-07
3.89473e-07
6.54756e-07
6.63451e-07
6.92031e-07
3.95937e-07
3.95975e-07
4.15528e-07
4.15565e-07
6.6349e-07
6.92048e-07
3.95794e-07
3.96001e-07
4.15384e-07
4.15598e-07
3.95971e-07
4.1537e-07
4.15556e-07
6.63519e-07
6.92093e-07
3.95849e-07
4.15406e-07
4.15425e-07
6.92192e-07
7.00905e-07
7.28932e-07
4.22209e-07
4.22244e-07
4.42589e-07
4.42627e-07
7.00941e-07
7.28955e-07
4.22056e-07
4.22273e-07
4.42434e-07
4.42658e-07
4.22232e-07
4.4243e-07
4.42638e-07
7.00972e-07
7.28994e-07
4.22098e-07
4.42463e-07
4.42496e-07
7.29109e-07
7.37744e-07
7.65077e-07
4.49501e-07
4.49532e-07
4.70618e-07
4.70639e-07
7.37781e-07
7.65089e-07
4.49338e-07
4.49564e-07
4.70454e-07
4.70688e-07
4.49548e-07
4.7044e-07
4.70642e-07
7.3781e-07
7.65144e-07
4.49404e-07
4.70491e-07
4.7049e-07
7.65224e-07
7.73836e-07
8.00269e-07
4.77764e-07
4.77785e-07
4.9936e-07
4.99393e-07
7.73862e-07
8.00301e-07
4.77591e-07
4.77827e-07
4.99187e-07
4.99427e-07
4.77786e-07
4.99194e-07
4.99418e-07
7.73906e-07
8.0033e-07
4.77631e-07
4.9923e-07
4.99256e-07
8.00467e-07
8.08836e-07
8.34372e-07
5.06632e-07
5.06653e-07
5.28686e-07
5.2869e-07
8.08886e-07
8.34354e-07
5.06451e-07
5.06692e-07
5.28506e-07
5.28752e-07
5.0669e-07
5.28492e-07
5.28729e-07
8.08902e-07
8.34434e-07
5.06526e-07
5.28557e-07
5.28558e-07
8.34538e-07
8.42804e-07
8.67443e-07
5.36107e-07
5.36113e-07
5.58467e-07
5.58481e-07
8.42803e-07
8.67461e-07
5.35919e-07
5.36168e-07
5.5828e-07
5.58533e-07
5.36143e-07
5.58287e-07
5.58506e-07
8.4287e-07
8.6751e-07
5.3597e-07
5.58341e-07
5.58326e-07
8.67598e-07
8.75652e-07
8.99265e-07
5.65946e-07
5.65954e-07
5.8843e-07
5.8843e-07
8.75682e-07
8.99268e-07
5.65752e-07
5.66004e-07
5.88236e-07
5.88489e-07
5.65987e-07
5.88241e-07
5.8849e-07
8.7572e-07
8.99324e-07
5.65806e-07
5.88303e-07
5.88303e-07
8.99443e-07
9.07253e-07
9.29935e-07
5.9594e-07
5.95934e-07
6.18467e-07
6.18457e-07
9.07268e-07
9.29933e-07
5.9574e-07
5.95996e-07
6.18269e-07
6.18528e-07
5.95999e-07
6.18273e-07
6.18508e-07
9.07316e-07
9.30001e-07
5.95812e-07
6.18347e-07
6.18315e-07
9.30084e-07
9.37695e-07
9.5939e-07
6.25972e-07
6.25959e-07
6.48405e-07
6.48392e-07
9.37706e-07
9.59391e-07
6.25768e-07
6.26027e-07
6.48204e-07
6.48462e-07
6.26007e-07
6.48215e-07
6.48459e-07
9.37763e-07
9.59453e-07
6.25813e-07
6.48288e-07
6.48261e-07
9.59535e-07
9.66903e-07
9.87589e-07
6.55843e-07
6.55824e-07
6.78041e-07
6.78022e-07
9.66917e-07
9.87595e-07
6.55636e-07
6.55895e-07
6.77835e-07
6.78094e-07
6.55904e-07
6.77851e-07
6.78091e-07
9.66968e-07
9.87656e-07
6.55707e-07
6.77928e-07
6.77892e-07
9.87749e-07
9.94877e-07
1.01468e-06
6.85408e-07
6.85385e-07
7.07349e-07
7.07321e-07
9.94883e-07
1.01468e-06
6.85195e-07
6.85456e-07
7.07143e-07
7.074e-07
6.85453e-07
7.07164e-07
7.07412e-07
9.94937e-07
1.01475e-06
6.85252e-07
7.07243e-07
7.07209e-07
1.01483e-06
1.02173e-06
1.04056e-06
7.14589e-07
7.14556e-07
7.3607e-07
7.36033e-07
1.02173e-06
1.04054e-06
7.14382e-07
7.14634e-07
7.35865e-07
7.3612e-07
7.14654e-07
7.3588e-07
7.3611e-07
1.02179e-06
1.04062e-06
7.14451e-07
7.3597e-07
7.35909e-07
1.04068e-06
1.04737e-06
1.06539e-06
7.43165e-07
7.43129e-07
7.64248e-07
7.64209e-07
1.04736e-06
1.06539e-06
7.42956e-07
7.43213e-07
7.64046e-07
7.64297e-07
7.432e-07
7.64075e-07
7.64304e-07
1.04742e-06
1.06546e-06
7.42998e-07
7.64158e-07
7.64097e-07
1.06551e-06
1.07199e-06
1.08906e-06
7.71185e-07
7.71145e-07
7.9163e-07
7.91582e-07
1.07198e-06
1.08906e-06
7.70979e-07
7.71227e-07
7.91425e-07
7.91671e-07
7.71248e-07
7.91452e-07
7.91687e-07
1.07205e-06
1.08913e-06
7.71042e-07
7.9154e-07
7.91485e-07
1.0892e-06
1.09539e-06
1.11159e-06
7.98326e-07
7.98277e-07
8.18129e-07
8.18078e-07
1.09538e-06
1.11158e-06
7.98119e-07
7.98366e-07
8.17932e-07
8.18175e-07
7.98379e-07
8.17962e-07
8.18184e-07
1.09544e-06
1.11166e-06
7.98177e-07
8.18055e-07
8.17981e-07
1.11171e-06
1.11772e-06
1.13323e-06
8.24643e-07
8.24592e-07
8.43863e-07
8.43796e-07
1.11771e-06
1.13322e-06
8.24441e-07
8.24682e-07
8.43662e-07
8.43899e-07
8.247e-07
8.43694e-07
8.43918e-07
1.11778e-06
1.1333e-06
8.24496e-07
8.43788e-07
8.43714e-07
1.13336e-06
1.13915e-06
1.15382e-06
8.50144e-07
8.50072e-07
8.68616e-07
8.68539e-07
1.13913e-06
1.1538e-06
8.49937e-07
8.50173e-07
8.68416e-07
8.68648e-07
8.50195e-07
8.68446e-07
8.68655e-07
1.13921e-06
1.15389e-06
8.49993e-07
8.68547e-07
8.68457e-07
1.15393e-06
1.15952e-06
1.17342e-06
8.74656e-07
8.74579e-07
8.92378e-07
8.92307e-07
1.1595e-06
1.17342e-06
8.74454e-07
8.74685e-07
8.9218e-07
8.92417e-07
8.74692e-07
8.92227e-07
8.92432e-07
1.15958e-06
1.1735e-06
8.74494e-07
8.92319e-07
8.9223e-07
1.17354e-06
1.17891e-06
1.19205e-06
8.98143e-07
8.98075e-07
9.15121e-07
9.15032e-07
1.1789e-06
1.19204e-06
8.97941e-07
8.98185e-07
9.14917e-07
9.1514e-07
8.98203e-07
9.14963e-07
9.15162e-07
1.17898e-06
1.19213e-06
8.98004e-07
9.15056e-07
9.14962e-07
1.19217e-06
1.19736e-06
1.20985e-06
9.2067e-07
9.20572e-07
9.36898e-07
9.36797e-07
1.19734e-06
1.20982e-06
9.20465e-07
9.20679e-07
9.36698e-07
9.36917e-07
9.20708e-07
9.36739e-07
9.36946e-07
1.19742e-06
1.20991e-06
9.20509e-07
9.3684e-07
9.36747e-07
1.20996e-06
1.21495e-06
1.22666e-06
9.42149e-07
9.42055e-07
9.57565e-07
9.57475e-07
1.21492e-06
1.22666e-06
9.41947e-07
9.42175e-07
9.57364e-07
9.57594e-07
9.42197e-07
9.57429e-07
9.57599e-07
1.21501e-06
1.22675e-06
9.42e-07
9.57525e-07
9.57408e-07
1.22677e-06
1.23159e-06
1.24274e-06
9.62617e-07
9.62527e-07
9.77345e-07
9.7722e-07
1.23159e-06
1.2427e-06
9.62408e-07
9.62631e-07
9.77143e-07
9.7734e-07
9.62649e-07
9.77174e-07
9.77385e-07
1.23167e-06
1.24279e-06
9.62453e-07
9.77269e-07
9.77185e-07
1.24285e-06
1.24746e-06
1.2577e-06
9.82076e-07
9.81949e-07
9.95872e-07
9.95771e-07
1.24741e-06
1.25768e-06
9.8187e-07
9.82067e-07
9.95681e-07
9.95919e-07
9.82132e-07
9.95732e-07
9.95921e-07
1.2475e-06
1.2578e-06
9.81931e-07
9.95863e-07
9.9574e-07
1.25784e-06
1.26226e-06
1.27218e-06
1.00039e-06
1.0003e-06
1.01367e-06
1.01356e-06
1.26225e-06
1.27216e-06
1.0002e-06
1.00044e-06
1.01346e-06
1.01367e-06
1.00042e-06
1.01354e-06
1.01368e-06
1.26236e-06
1.27224e-06
1.00024e-06
1.01362e-06
1.01348e-06
1.27224e-06
1.27662e-06
1.28587e-06
1.01798e-06
1.01784e-06
1.03047e-06
1.03031e-06
1.27659e-06
1.28578e-06
1.01777e-06
1.01795e-06
1.03028e-06
1.03045e-06
1.01798e-06
1.03029e-06
1.03047e-06
1.27665e-06
1.28589e-06
1.01779e-06
1.03039e-06
1.03027e-06
1.28593e-06
1.29011e-06
1.29862e-06
1.03449e-06
1.03435e-06
1.04618e-06
1.04613e-06
1.29004e-06
1.29869e-06
1.03429e-06
1.0345e-06
1.04597e-06
1.04624e-06
1.0345e-06
1.04613e-06
1.04632e-06
1.29014e-06
1.29878e-06
1.03431e-06
1.04622e-06
1.04613e-06
1.29884e-06
1.30269e-06
1.31066e-06
1.04998e-06
1.04991e-06
1.06096e-06
1.06076e-06
1.30276e-06
1.31055e-06
1.04977e-06
1.05001e-06
1.06078e-06
1.0609e-06
1.05012e-06
1.06072e-06
1.06093e-06
1.30284e-06
1.31064e-06
1.04992e-06
1.06084e-06
1.06074e-06
1.31073e-06
1.31457e-06
1.32188e-06
1.06447e-06
1.06428e-06
1.07469e-06
1.07467e-06
1.31444e-06
1.32195e-06
1.06427e-06
1.0644e-06
1.07447e-06
1.07479e-06
1.06442e-06
1.07466e-06
1.07474e-06
1.31452e-06
1.32202e-06
1.06423e-06
1.07476e-06
1.07456e-06
1.32196e-06
1.32571e-06
1.33312e-06
1.07808e-06
1.07803e-06
1.08818e-06
1.08786e-06
1.3258e-06
1.33287e-06
1.07788e-06
1.07818e-06
1.08799e-06
1.08801e-06
1.07809e-06
1.08786e-06
1.08801e-06
1.32588e-06
1.33304e-06
1.07793e-06
1.08798e-06
1.08781e-06
1.33296e-06
1.33686e-06
1.34284e-06
1.09134e-06
1.091e-06
1.10003e-06
1.09992e-06
1.33655e-06
1.3428e-06
1.09116e-06
1.09116e-06
1.09983e-06
1.10003e-06
1.09121e-06
1.09996e-06
1.10024e-06
1.3367e-06
1.34287e-06
1.09101e-06
1.10001e-06
1.10002e-06
1.34312e-06
1.34619e-06
1.35156e-06
1.10281e-06
1.1028e-06
1.11089e-06
1.11089e-06
1.34626e-06
1.35181e-06
1.10259e-06
1.10285e-06
1.1107e-06
1.11106e-06
1.10307e-06
1.11084e-06
1.11097e-06
1.34631e-06
1.35189e-06
1.10284e-06
1.11099e-06
1.11083e-06
1.35189e-06
1.35493e-06
1.36086e-06
1.11346e-06
1.11346e-06
1.12169e-06
1.12172e-06
1.35515e-06
1.361e-06
1.11328e-06
1.11365e-06
1.12148e-06
1.12184e-06
1.11351e-06
1.12172e-06
1.12179e-06
1.35526e-06
1.36117e-06
1.11338e-06
1.12187e-06
1.12164e-06
1.36106e-06
1.3645e-06
1.37048e-06
1.12467e-06
1.12455e-06
1.13253e-06
1.13172e-06
1.36454e-06
1.36955e-06
1.12448e-06
1.12472e-06
1.13229e-06
1.13182e-06
1.1247e-06
1.13172e-06
1.13197e-06
1.36469e-06
1.36967e-06
1.12457e-06
1.13179e-06
1.13174e-06
1.36971e-06
1.37343e-06
1.37568e-06
1.13454e-06
1.13369e-06
1.13967e-06
1.13946e-06
1.37235e-06
1.3753e-06
1.13427e-06
1.1337e-06
1.13958e-06
1.13996e-06
1.13381e-06
1.13939e-06
1.13937e-06
1.37246e-06
1.37565e-06
1.13351e-06
1.13977e-06
1.13919e-06
1.37528e-06
1.3782e-06
1.38106e-06
1.14121e-06
1.14134e-06
1.14641e-06
1.14709e-06
1.37821e-06
1.38227e-06
1.14121e-06
1.14204e-06
1.14624e-06
1.14693e-06
1.14152e-06
1.14732e-06
1.14795e-06
1.37867e-06
1.38221e-06
1.14143e-06
1.14716e-06
1.1478e-06
1.38308e-06
1.38432e-06
1.3919e-06
1.14891e-06
1.14935e-06
1.15772e-06
1.15691e-06
1.38543e-06
1.39113e-06
1.14863e-06
1.14877e-06
1.15744e-06
1.15668e-06
1.14997e-06
1.1566e-06
1.15633e-06
1.38498e-06
1.39051e-06
1.14979e-06
1.15644e-06
1.15623e-06
1.39066e-06
1.39536e-06
1.39639e-06
1.16e-06
1.1591e-06
1.16317e-06
1.16281e-06
1.39428e-06
1.39569e-06
1.15975e-06
1.15929e-06
1.16297e-06
1.16459e-06
1.15848e-06
1.16293e-06
1.16324e-06
1.39416e-06
1.39796e-06
1.15837e-06
1.16474e-06
1.16311e-06
1.39603e-06
1.39807e-06
1.39793e-06
1.16355e-06
1.16325e-06
1.16614e-06
1.16529e-06
1.39755e-06
1.3971e-06
1.16341e-06
1.16561e-06
1.16605e-06
1.16683e-06
1.16402e-06
1.16533e-06
1.16591e-06
1.40012e-06
1.39896e-06
1.16394e-06
1.16688e-06
1.16573e-06
1.39788e-06
1.40122e-06
1.41324e-06
1.16823e-06
1.16713e-06
1.17932e-06
1.17828e-06
1.40012e-06
1.41238e-06
1.16804e-06
1.16718e-06
1.17862e-06
1.17227e-06
1.16747e-06
1.17802e-06
1.17815e-06
1.40071e-06
1.40383e-06
1.16712e-06
1.17188e-06
1.1773e-06
1.4117e-06
1.41828e-06
1.42001e-06
1.18292e-06
1.1824e-06
1.18595e-06
1.18722e-06
1.41796e-06
1.42338e-06
1.18218e-06
1.17579e-06
1.18551e-06
1.18449e-06
1.18253e-06
1.18744e-06
1.18784e-06
1.40821e-06
1.41849e-06
1.18177e-06
1.18482e-06
1.18773e-06
1.42405e-06
1.4207e-06
1.39102e-06
1.18447e-06
1.18664e-06
1.16917e-06
1.17344e-06
1.42433e-06
1.39751e-06
1.18433e-06
1.1852e-06
1.1702e-06
1.18208e-06
1.18721e-06
1.17401e-06
1.1718e-06
1.42124e-06
1.41394e-06
1.18729e-06
1.18265e-06
1.17298e-06
1.39526e-06
1.39079e-06
1.38541e-06
1.16488e-06
1.16828e-06
1.16331e-06
1.162e-06
1.39685e-06
1.38059e-06
1.16586e-06
1.17905e-06
1.16315e-06
1.16941e-06
1.16554e-06
1.16099e-06
1.15787e-06
1.41464e-06
1.39569e-06
1.16666e-06
1.16861e-06
1.15757e-06
1.37436e-06
1.39177e-06
1.42756e-06
1.16793e-06
1.16262e-06
1.19198e-06
1.17666e-06
1.38321e-06
1.40134e-06
1.16643e-06
1.16778e-06
1.19012e-06
1.17026e-06
1.15913e-06
1.17522e-06
1.18548e-06
1.39612e-06
1.3889e-06
1.15834e-06
1.16901e-06
1.18378e-06
1.41729e-06
1.43706e-06
1.45678e-06
1.19963e-06
1.1849e-06
1.2159e-06
1.22395e-06
1.41047e-06
1.46766e-06
1.19825e-06
1.1748e-06
1.21404e-06
1.19931e-06
1.19818e-06
1.22694e-06
1.23302e-06
1.39301e-06
1.4248e-06
1.19657e-06
1.20199e-06
1.23116e-06
1.48257e-06
1.462e-06
1.47781e-06
1.22167e-06
1.2396e-06
1.23981e-06
1.2688e-06
1.48587e-06
1.54035e-06
1.21901e-06
1.21332e-06
1.23787e-06
1.25985e-06
1.24133e-06
1.26992e-06
1.25159e-06
1.43928e-06
1.51895e-06
1.23911e-06
1.26082e-06
1.24981e-06
1.50127e-06
1.48297e-06
1.47091e-06
1.24263e-06
1.26945e-06
1.23288e-06
1.22731e-06
1.54467e-06
1.45968e-06
1.24197e-06
1.26896e-06
1.23794e-06
1.26439e-06
1.25043e-06
1.22451e-06
1.21216e-06
1.53383e-06
1.52474e-06
1.24923e-06
1.26091e-06
1.21711e-06
1.4355e-06
1.46831e-06
1.39139e-06
1.21814e-06
1.19999e-06
1.16231e-06
1.1269e-06
1.44362e-06
1.30913e-06
1.22475e-06
1.24283e-06
1.16807e-06
1.1555e-06
1.19201e-06
1.12572e-06
1.14293e-06
1.51702e-06
1.36466e-06
1.19839e-06
1.15225e-06
1.14593e-06
1.353e-06
1.38578e-06
1.32641e-06
1.14509e-06
1.11619e-06
1.11921e-06
1.11811e-06
1.30535e-06
1.33015e-06
1.14849e-06
1.13044e-06
1.1172e-06
1.10375e-06
1.13674e-06
1.12374e-06
1.14066e-06
1.3523e-06
1.29787e-06
1.13754e-06
1.107e-06
1.13683e-06
1.36207e-06
1.3263e-06
1.32907e-06
1.11835e-06
1.13181e-06
1.13031e-06
1.16499e-06
1.34928e-06
1.40388e-06
1.11578e-06
1.10578e-06
1.12742e-06
1.14029e-06
1.14877e-06
1.16712e-06
1.15993e-06
1.3029e-06
1.35582e-06
1.14453e-06
1.14405e-06
1.15795e-06
1.38725e-06
1.33597e-06
1.37088e-06
1.13521e-06
1.16722e-06
1.15164e-06
1.16445e-06
1.40736e-06
1.38691e-06
1.133e-06
1.1482e-06
1.15196e-06
1.15229e-06
1.15887e-06
1.16335e-06
1.1491e-06
1.36436e-06
1.36606e-06
1.15741e-06
1.15239e-06
1.14761e-06
1.35916e-06
1.38677e-06
1.51065e-06
1.16544e-06
1.16489e-06
1.2439e-06
1.20743e-06
1.38775e-06
1.4434e-06
1.16564e-06
1.15388e-06
1.24264e-06
1.2099e-06
1.1497e-06
1.20538e-06
1.20288e-06
1.36902e-06
1.44871e-06
1.14788e-06
1.20293e-06
1.1991e-06
1.43795e-06
1.54039e-06
1.59941e-06
1.27164e-06
1.23421e-06
1.30873e-06
1.2908e-06
1.47139e-06
1.5636e-06
1.27081e-06
1.24336e-06
1.31152e-06
1.31655e-06
1.2345e-06
1.29e-06
1.30138e-06
1.48228e-06
1.60564e-06
1.23194e-06
1.31518e-06
1.30486e-06
1.5821e-06
1.59876e-06
1.47301e-06
1.30693e-06
1.29293e-06
1.23992e-06
1.25365e-06
1.56899e-06
1.50224e-06
1.31046e-06
1.32204e-06
1.24427e-06
1.28099e-06
1.30375e-06
1.25429e-06
1.25292e-06
1.6165e-06
1.55348e-06
1.30831e-06
1.28235e-06
1.25836e-06
1.50331e-06
1.45885e-06
1.35438e-06
1.21105e-06
1.23135e-06
1.15067e-06
1.17644e-06
1.49345e-06
1.40433e-06
1.21348e-06
1.24785e-06
1.14472e-06
1.14932e-06
1.22379e-06
1.17671e-06
1.15485e-06
1.53913e-06
1.36389e-06
1.22708e-06
1.15132e-06
1.1505e-06
1.36489e-06
1.35303e-06
1.34207e-06
1.14133e-06
1.16378e-06
1.12908e-06
1.12831e-06
1.40157e-06
1.33914e-06
1.1342e-06
1.12791e-06
1.12502e-06
1.10388e-06
1.14548e-06
1.13195e-06
1.1425e-06
1.35218e-06
1.29236e-06
1.14016e-06
1.10887e-06
1.13937e-06
1.36267e-06
1.34506e-06
1.36462e-06
1.12846e-06
1.12023e-06
1.14052e-06
1.11699e-06
1.33588e-06
1.31927e-06
1.12581e-06
1.10434e-06
1.14411e-06
1.13444e-06
1.14747e-06
1.12115e-06
1.1633e-06
1.29426e-06
1.34699e-06
1.14698e-06
1.13829e-06
1.16601e-06
1.39908e-06
1.37466e-06
1.41734e-06
1.15062e-06
1.12618e-06
1.18417e-06
1.18388e-06
1.32954e-06
1.41649e-06
1.154e-06
1.15066e-06
1.18354e-06
1.19376e-06
1.16733e-06
1.18102e-06
1.17318e-06
1.36529e-06
1.43667e-06
1.16969e-06
1.19044e-06
1.17334e-06
1.40261e-06
1.42799e-06
1.45877e-06
1.19372e-06
1.20298e-06
1.21195e-06
1.23397e-06
1.43789e-06
1.49776e-06
1.19238e-06
1.20478e-06
1.2106e-06
1.22334e-06
1.17544e-06
1.23097e-06
1.18718e-06
1.45059e-06
1.48077e-06
1.17473e-06
1.21962e-06
1.1849e-06
1.41234e-06
1.46504e-06
1.46375e-06
1.21452e-06
1.23574e-06
1.21231e-06
1.21776e-06
1.50396e-06
1.47195e-06
1.21356e-06
1.22467e-06
1.21269e-06
1.21315e-06
1.19279e-06
1.2172e-06
1.20305e-06
1.4844e-06
1.4594e-06
1.19063e-06
1.21229e-06
1.20242e-06
1.44778e-06
1.4637e-06
1.4163e-06
1.20657e-06
1.20454e-06
1.17907e-06
1.16073e-06
1.46658e-06
1.38335e-06
1.20742e-06
1.20388e-06
1.18003e-06
1.17064e-06
1.20341e-06
1.1612e-06
1.19113e-06
1.45681e-06
1.40269e-06
1.20324e-06
1.1725e-06
1.19314e-06
1.44392e-06
1.41374e-06
1.37226e-06
1.17006e-06
1.15094e-06
1.14806e-06
1.13741e-06
1.38037e-06
1.35539e-06
1.1708e-06
1.16159e-06
1.14772e-06
1.14173e-06
1.18352e-06
1.13758e-06
1.15531e-06
1.40074e-06
1.36773e-06
1.18566e-06
1.14314e-06
1.15663e-06
1.3898e-06
1.37233e-06
1.36824e-06
1.14458e-06
1.13729e-06
1.14246e-06
1.14612e-06
1.35794e-06
1.37759e-06
1.14396e-06
1.13924e-06
1.14146e-06
1.13961e-06
1.14922e-06
1.14543e-06
1.14184e-06
1.36816e-06
1.36644e-06
1.15e-06
1.14003e-06
1.14184e-06
1.36562e-06
1.37377e-06
1.40207e-06
1.14578e-06
1.15314e-06
1.16349e-06
1.16754e-06
1.38566e-06
1.40813e-06
1.14467e-06
1.14482e-06
1.16315e-06
1.16436e-06
1.14259e-06
1.16709e-06
1.15657e-06
1.37179e-06
1.40004e-06
1.14248e-06
1.16311e-06
1.15596e-06
1.38871e-06
1.40967e-06
1.40634e-06
1.17013e-06
1.17239e-06
1.15883e-06
1.15919e-06
1.41357e-06
1.40517e-06
1.1701e-06
1.17173e-06
1.15891e-06
1.16088e-06
1.16442e-06
1.15909e-06
1.1572e-06
1.40826e-06
1.40805e-06
1.16385e-06
1.1605e-06
1.15696e-06
1.40197e-06
1.38602e-06
1.12534e-06
1.12559e-06
1.38489e-06
1.12525e-06
1.12704e-06
6.78386e-07
6.7991e-07
6.78331e-07
1.12478e-06
1.38816e-06
1.12448e-06
5.35663e-07
5.35601e-07
5.35655e-07
5.35655e-07
5.34573e-07
5.35516e-07
5.33634e-07
5.35654e-07
5.34573e-07
5.35517e-07
5.35654e-07
5.33634e-07
5.35256e-07
5.35987e-07
5.35987e-07
1.10717e-06
3.88067e-06
9.33917e-07
4.60585e-06
1.26086e-05
1.66015e-05
1.10712e-06
3.8812e-06
9.3393e-07
4.60638e-06
4.95567e-07
4.95567e-07
4.95567e-07
4.57231e-07
4.57231e-07
4.57232e-07
4.57232e-07
5.43136e-07
1.22024e-06
4.95565e-07
4.85523e-07
5.25345e-07
1.20948e-06
4.82301e-07
1.26098e-05
1.6603e-05
5.43156e-07
4.95565e-07
1.22026e-06
4.85523e-07
5.25333e-07
4.82301e-07
1.2095e-06
2.52183e-06
2.52237e-06
4.84192e-07
2.37257e-06
2.37281e-06
1.43088e-06
5.59293e-06
1.32969e-06
6.13611e-06
2.12848e-05
2.31113e-05
1.43097e-06
5.59371e-06
1.3298e-06
6.1369e-06
4.45573e-07
4.45573e-07
4.45573e-07
4.13542e-07
4.13542e-07